/*--------------------------------*- C++ -*----------------------------------*\
  =========                 |
  \\      /  F ield         | OpenFOAM: The Open Source CFD Toolbox
   \\    /   O peration     | Website:  https://openfoam.org
    \\  /    A nd           | Version:  12
     \\/     M anipulation  |
\*---------------------------------------------------------------------------*/
FoamFile
{
    format      ascii;
    class       volScalarField;
    location    "16.3";
    object      T;
}
// * * * * * * * * * * * * * * * * * * * * * * * * * * * * * * * * * * * * * //

dimensions      [0 0 0 1 0 0 0];

internalField   nonuniform List<scalar> 
9801
(
0.824993
0.826027
0.827125
0.829844
0.833855
0.836709
0.838438
0.83978
0.840953
0.841966
0.84224
0.841467
0.841845
0.842789
0.844175
0.847033
0.851468
0.854552
0.856349
0.857714
0.858922
0.859897
0.859342
0.858526
0.85907
0.860161
0.861733
0.865146
0.869812
0.872722
0.874462
0.875819
0.876995
0.877603
0.876106
0.875761
0.876668
0.877966
0.879894
0.884479
0.889232
0.891904
0.893595
0.894975
0.89606
0.895192
0.89311
0.893327
0.894539
0.896124
0.899608
0.905705
0.909972
0.912308
0.913894
0.915158
0.915289
0.911911
0.910735
0.911836
0.913655
0.916668
0.923469
0.929477
0.932604
0.934553
0.936174
0.93694
0.933103
0.929839
0.930431
0.932569
0.936224
0.944593
0.952439
0.956555
0.959062
0.961041
0.961961
0.95698
0.951559
0.952039
0.954991
0.960993
0.973392
0.983521
0.98881
0.992454
0.99591
0.996065
0.987407
0.980379
0.982015
0.988852
1.00848
1.03517
1.0514
1.17015
1.56871
0.828673
0.829814
0.830754
0.833395
0.8378
0.840827
0.84257
0.843856
0.844916
0.845808
0.845946
0.845268
0.845578
0.846446
0.84763
0.850407
0.855156
0.85837
0.86018
0.861497
0.862589
0.863451
0.862937
0.862119
0.862579
0.863543
0.864876
0.868217
0.873197
0.876297
0.878099
0.879439
0.880576
0.881129
0.879737
0.879192
0.879871
0.880974
0.882656
0.887227
0.892318
0.895164
0.89691
0.898269
0.899359
0.898609
0.896537
0.896556
0.897578
0.898952
0.902053
0.908271
0.912827
0.915313
0.916986
0.918357
0.918649
0.915592
0.914195
0.915031
0.916603
0.919123
0.925763
0.932098
0.935435
0.937551
0.939275
0.940274
0.937075
0.933627
0.933998
0.935888
0.938682
0.946118
0.954436
0.959156
0.962078
0.964417
0.966228
0.96219
0.956421
0.956315
0.959003
0.963395
0.974052
0.984911
0.991261
0.995643
0.999767
1.00166
0.995589
0.988605
0.988805
0.99481
1.00676
1.02878
1.04526
1.16866
1.5915
0.833095
0.834307
0.835193
0.837721
0.842326
0.845463
0.847195
0.848469
0.849525
0.850448
0.850632
0.849955
0.850233
0.851093
0.852221
0.854827
0.859691
0.863012
0.864839
0.866161
0.86727
0.868189
0.867797
0.866864
0.867253
0.868214
0.86947
0.872603
0.877793
0.881109
0.882983
0.884366
0.885564
0.886264
0.884853
0.883985
0.884564
0.885655
0.887258
0.891658
0.897005
0.900027
0.901845
0.903269
0.904494
0.904088
0.901883
0.901663
0.902663
0.904051
0.906791
0.912955
0.917923
0.920589
0.922378
0.923921
0.924653
0.922002
0.920208
0.920846
0.922348
0.924368
0.930068
0.937258
0.9413
0.943724
0.945693
0.947191
0.945074
0.941386
0.94108
0.942772
0.945151
0.950955
0.960787
0.966968
0.970333
0.972932
0.975129
0.972857
0.966881
0.96563
0.968135
0.971954
0.980277
0.993678
1.00273
1.00792
1.01237
1.01545
1.01177
1.00673
1.00613
1.01071
1.0197
1.04004
1.05696
1.18735
1.61771
0.839159
0.840449
0.84135
0.843731
0.848484
0.851836
0.853635
0.854943
0.856055
0.857045
0.857168
0.856435
0.856702
0.857589
0.858734
0.861149
0.866097
0.869658
0.87158
0.872961
0.874144
0.875148
0.874739
0.873681
0.874049
0.875082
0.876378
0.879269
0.884678
0.888327
0.890284
0.891705
0.892961
0.893715
0.892213
0.891115
0.89175
0.892984
0.894619
0.898734
0.904471
0.907834
0.909754
0.911251
0.912596
0.912451
0.910013
0.909543
0.910665
0.91224
0.914696
0.920757
0.926543
0.929497
0.931348
0.932979
0.934012
0.931648
0.929253
0.929746
0.931501
0.933599
0.938413
0.946622
0.951662
0.954317
0.956443
0.958243
0.957158
0.952656
0.951548
0.953427
0.956073
0.960425
0.970275
0.978331
0.982483
0.985438
0.988241
0.9884
0.982624
0.97901
0.980922
0.984983
0.990737
1.00283
1.01482
1.02206
1.02721
1.03227
1.03193
1.02724
1.02456
1.02702
1.03404
1.04916
1.06165
1.20656
1.64131
0.84611
0.84749
0.84844
0.850671
0.855468
0.859119
0.861041
0.862417
0.8636
0.864635
0.864678
0.863914
0.864177
0.865095
0.866271
0.868459
0.873422
0.877359
0.879425
0.880876
0.882132
0.883179
0.882753
0.881676
0.882013
0.883068
0.884382
0.886909
0.892425
0.896629
0.89876
0.900239
0.901547
0.902378
0.901104
0.899901
0.900437
0.90167
0.903192
0.906611
0.912808
0.91686
0.918975
0.920549
0.921979
0.922156
0.919911
0.919226
0.920248
0.921845
0.923903
0.929155
0.935795
0.939367
0.941444
0.943205
0.944619
0.943145
0.940218
0.940215
0.941882
0.944022
0.947696
0.95575
0.962124
0.965377
0.967755
0.969938
0.970448
0.966091
0.963095
0.964356
0.96707
0.970601
0.978881
0.989199
0.994964
0.998343
1.00141
1.00343
0.999456
0.993453
0.992444
0.996057
1.00096
1.00985
1.02319
1.03322
1.03985
1.04556
1.04886
1.04549
1.04135
1.0397
1.042
1.05206
1.06184
1.21723
1.65548
0.85352
0.854966
0.85594
0.858024
0.862884
0.866926
0.868974
0.870369
0.87156
0.872606
0.87267
0.871869
0.87207
0.87299
0.874178
0.876117
0.881037
0.885519
0.887778
0.889258
0.890524
0.891595
0.891287
0.890204
0.890457
0.891484
0.892783
0.894827
0.900144
0.90507
0.907517
0.909086
0.910431
0.911394
0.910402
0.909017
0.909356
0.91053
0.912001
0.914657
0.920842
0.925722
0.928195
0.929923
0.931456
0.932109
0.930028
0.928566
0.929316
0.930861
0.932771
0.937029
0.944214
0.948714
0.951186
0.953143
0.954889
0.95476
0.951243
0.949594
0.950775
0.952859
0.955828
0.963026
0.971046
0.975242
0.977837
0.980147
0.981919
0.979121
0.97418
0.973431
0.975793
0.978913
0.984643
0.99549
1.00381
1.00836
1.01149
1.01425
1.01294
1.00648
1.00296
1.00413
1.0082
1.01382
1.02447
1.03617
1.04424
1.05031
1.05594
1.05729
1.05389
1.04915
1.04678
1.05064
1.05762
1.22261
1.66356
0.860554
0.862019
0.862982
0.864774
0.869454
0.873944
0.876224
0.877678
0.878864
0.879918
0.880084
0.879198
0.879324
0.880247
0.881451
0.883129
0.887659
0.892584
0.895137
0.896708
0.897989
0.899108
0.899026
0.897723
0.897813
0.898843
0.900177
0.902014
0.906789
0.912077
0.91487
0.916598
0.918011
0.919228
0.918789
0.916796
0.916658
0.917788
0.919316
0.921673
0.927408
0.932859
0.935706
0.937618
0.93928
0.940622
0.939439
0.936653
0.936296
0.937631
0.939494
0.942956
0.950223
0.9559
0.95878
0.960822
0.962648
0.963745
0.960818
0.95747
0.957389
0.959236
0.961719
0.967162
0.976305
0.982245
0.985224
0.98746
0.989569
0.988943
0.983592
0.980795
0.981806
0.984527
0.988067
0.996404
1.00743
1.01393
1.01775
1.02082
1.02265
1.01859
1.01259
1.01056
1.01225
1.0163
1.02297
1.03426
1.0444
1.05174
1.05757
1.06232
1.06185
1.05817
1.05156
1.04845
1.04917
1.22341
1.66839
0.86652
0.868033
0.869071
0.870853
0.87523
0.879794
0.882241
0.883788
0.885026
0.886127
0.886442
0.885353
0.885243
0.886158
0.887436
0.889156
0.893348
0.898331
0.901074
0.902749
0.904096
0.905308
0.905736
0.904302
0.903669
0.904493
0.90582
0.907628
0.912012
0.917486
0.920586
0.922458
0.923974
0.92535
0.925811
0.923702
0.922456
0.923182
0.924613
0.926686
0.931919
0.938089
0.941406
0.94336
0.944996
0.946537
0.946683
0.943452
0.941778
0.942581
0.944287
0.946886
0.95348
0.960678
0.964361
0.966389
0.968108
0.969626
0.968326
0.963879
0.96251
0.963717
0.965911
0.969276
0.977673
0.98603
0.990245
0.992673
0.994782
0.995771
0.991844
0.987041
0.986003
0.987736
0.990509
0.995038
1.00568
1.01569
1.02112
1.02484
1.02803
1.02867
1.02232
1.01655
1.01568
1.01794
1.02216
1.0298
1.04071
1.0495
1.05605
1.06146
1.06472
1.06377
1.05897
1.05134
1.04273
1.21973
1.67056
0.871374
0.872757
0.873751
0.875486
0.879789
0.884396
0.886873
0.888446
0.889731
0.890891
0.891601
0.890671
0.89003
0.89068
0.891836
0.893414
0.897371
0.902606
0.9056
0.907362
0.908775
0.910059
0.911036
0.909932
0.908548
0.908858
0.909974
0.911484
0.915211
0.921158
0.924852
0.926868
0.928425
0.929835
0.930878
0.929337
0.927225
0.927284
0.928474
0.930135
0.934213
0.941164
0.945551
0.947712
0.9493
0.95078
0.951541
0.948925
0.946281
0.946373
0.947794
0.949691
0.954328
0.962632
0.967813
0.970304
0.972027
0.973621
0.973724
0.969684
0.966825
0.967161
0.968959
0.971151
0.97633
0.986325
0.992998
0.996311
0.998569
1.00044
0.999358
0.99341
0.989743
0.989703
0.9918
0.994728
1.00118
1.01337
1.02247
1.02733
1.03056
1.03313
1.03177
1.02498
1.02028
1.02002
1.0225
1.02702
1.03543
1.04546
1.05287
1.05862
1.06361
1.06535
1.06369
1.05646
1.04312
1.2137
1.6723
0.875534
0.876718
0.877632
0.879072
0.882909
0.887876
0.890604
0.892218
0.893518
0.894709
0.895689
0.895093
0.89406
0.894396
0.895363
0.896622
0.899673
0.905397
0.909149
0.91109
0.912539
0.913838
0.915004
0.91448
0.912516
0.912306
0.913158
0.91443
0.916983
0.923127
0.928023
0.930374
0.931933
0.933313
0.934551
0.933863
0.931105
0.93054
0.931434
0.932884
0.935433
0.942129
0.948073
0.950921
0.952617
0.954071
0.955249
0.953763
0.950263
0.949489
0.950483
0.952093
0.954604
0.961919
0.969428
0.973011
0.975027
0.976756
0.978116
0.975691
0.971193
0.969981
0.970857
0.97277
0.975449
0.983395
0.993431
0.998627
1.00147
1.00358
1.00512
1.00136
0.994669
0.992462
0.993368
0.995807
0.998874
1.00664
1.01896
1.02693
1.03117
1.03439
1.03698
1.03525
1.02821
1.02374
1.02375
1.02648
1.03143
1.04031
1.04925
1.05567
1.06103
1.06485
1.06546
1.06104
1.04881
1.20825
1.67405
0.878978
0.879938
0.880786
0.881974
0.884878
0.890252
0.89363
0.895383
0.896713
0.897901
0.898968
0.898795
0.897359
0.897305
0.898103
0.899232
0.901247
0.9068
0.911765
0.914123
0.915599
0.916871
0.918042
0.918139
0.915905
0.915006
0.915623
0.916796
0.918525
0.923712
0.929916
0.93304
0.934725
0.936085
0.93734
0.937487
0.934727
0.933286
0.933873
0.935124
0.936762
0.941553
0.94898
0.953061
0.955094
0.956607
0.958
0.958072
0.954511
0.952302
0.952573
0.953862
0.955585
0.959932
0.969032
0.974889
0.977608
0.979423
0.98107
0.981046
0.976188
0.972483
0.972384
0.973925
0.975973
0.979825
0.990163
0.999112
1.00314
1.00557
1.0077
1.00878
1.00357
0.99748
0.995905
0.996635
0.998797
1.00233
1.01147
1.02355
1.03115
1.03545
1.03872
1.04042
1.03791
1.03133
1.02712
1.02713
1.02998
1.03536
1.04461
1.05287
1.05865
1.06311
1.06512
1.0639
1.05544
1.20527
1.67592
0.881883
0.882392
0.883139
0.884212
0.886177
0.891429
0.895838
0.897928
0.89932
0.900523
0.90162
0.901953
0.900269
0.899561
0.900176
0.901266
0.902745
0.907197
0.913289
0.916422
0.918047
0.919324
0.920484
0.921091
0.919147
0.91738
0.917711
0.918771
0.920135
0.923593
0.930548
0.934952
0.937006
0.938426
0.939717
0.94058
0.938635
0.936058
0.935935
0.936878
0.938268
0.940882
0.948255
0.954435
0.957223
0.958889
0.960353
0.961516
0.959362
0.955318
0.9544
0.955259
0.956829
0.959069
0.966205
0.975214
0.979566
0.981842
0.983544
0.984989
0.982808
0.977022
0.974728
0.9751
0.976716
0.978952
0.984399
0.995947
1.00378
1.00748
1.01027
1.01265
1.01247
1.00524
0.999183
0.998119
0.999543
1.00214
1.00614
1.01585
1.0273
1.03433
1.03848
1.04171
1.04328
1.04074
1.03417
1.02993
1.02991
1.03279
1.03849
1.04785
1.05546
1.06074
1.06419
1.06476
1.06098
1.20571
1.67789
0.884496
0.884438
0.885024
0.886044
0.88745
0.891781
0.897371
0.900147
0.901616
0.902803
0.903883
0.904559
0.903113
0.901677
0.902051
0.903057
0.904319
0.907309
0.913821
0.918158
0.920139
0.921469
0.922631
0.923558
0.922472
0.919982
0.919674
0.920523
0.921749
0.923737
0.929931
0.936126
0.938975
0.940576
0.941911
0.94312
0.942634
0.939241
0.937801
0.938338
0.939603
0.94124
0.946237
0.954517
0.958948
0.961041
0.962532
0.963905
0.963947
0.959675
0.956723
0.956874
0.958177
0.959831
0.963232
0.972611
0.980249
0.983541
0.985576
0.987328
0.988408
0.984305
0.978504
0.976809
0.97729
0.979021
0.98159
0.98923
1.0017
1.00884
1.01198
1.01402
1.01575
1.01472
1.00751
1.0023
1.00153
1.00276
1.0053
1.00974
1.02004
1.03082
1.03739
1.04146
1.04456
1.04558
1.0429
1.03643
1.03209
1.03194
1.03459
1.04044
1.04984
1.05713
1.0619
1.064
1.06484
1.20981
1.68022
0.887043
0.886385
0.88675
0.887722
0.888916
0.89196
0.898111
0.901906
0.903657
0.904886
0.905966
0.906859
0.906103
0.904073
0.903958
0.904824
0.905981
0.907803
0.913452
0.919256
0.921929
0.923425
0.924636
0.925724
0.925754
0.923117
0.921731
0.92224
0.923345
0.924746
0.928731
0.936239
0.940563
0.942578
0.943975
0.945238
0.945965
0.943299
0.940203
0.940051
0.941071
0.942462
0.944865
0.952494
0.959741
0.962879
0.96461
0.966103
0.967437
0.965517
0.960607
0.958963
0.959357
0.960711
0.962619
0.968098
0.978579
0.984852
0.987786
0.989852
0.991587
0.991482
0.9853
0.979949
0.979138
0.980238
0.982147
0.984885
0.993581
1.00568
1.01165
1.01457
1.01731
1.0197
1.01817
1.01025
1.00507
1.00448
1.006
1.00876
1.01354
1.02383
1.0337
1.0398
1.04378
1.04671
1.04761
1.04474
1.03803
1.03349
1.0331
1.03529
1.04108
1.05058
1.05793
1.06184
1.06646
1.21726
1.68307
0.889635
0.88851
0.888525
0.889413
0.89052
0.892483
0.898153
0.90324
0.905531
0.906879
0.907987
0.908987
0.909056
0.906913
0.906005
0.906631
0.907707
0.90902
0.912727
0.919558
0.923445
0.925273
0.926569
0.927738
0.928594
0.926828
0.924205
0.924066
0.925012
0.92626
0.928285
0.934904
0.941479
0.944391
0.945975
0.947289
0.948511
0.947878
0.94393
0.942197
0.942575
0.943687
0.945188
0.949516
0.958683
0.964321
0.966836
0.968456
0.969925
0.970511
0.966254
0.96158
0.960753
0.961684
0.963341
0.965673
0.973458
0.98404
0.989067
0.991342
0.993014
0.994904
0.994258
0.987405
0.98286
0.982102
0.982607
0.984313
0.987467
0.997562
1.00986
1.01609
1.01897
1.02127
1.0229
1.02076
1.01347
1.00863
1.00787
1.00909
1.01161
1.01689
1.02746
1.03665
1.04228
1.04597
1.04858
1.04946
1.04644
1.0392
1.03413
1.03328
1.03491
1.04093
1.05107
1.0582
1.06619
1.22645
1.68635
0.89229
0.890978
0.890422
0.891174
0.892231
0.893602
0.897809
0.903984
0.907139
0.908707
0.909897
0.910979
0.911741
0.91027
0.908371
0.908527
0.909482
0.910649
0.912607
0.918754
0.924462
0.927002
0.92847
0.929711
0.930878
0.930704
0.927592
0.926205
0.926711
0.927751
0.929082
0.932948
0.941018
0.94579
0.947941
0.949381
0.950734
0.951675
0.948876
0.944858
0.944087
0.944819
0.946204
0.948256
0.955219
0.964344
0.968643
0.970816
0.972355
0.973716
0.972839
0.966998
0.963449
0.963311
0.96429
0.965889
0.968849
0.978439
0.98823
0.992542
0.995215
0.997349
0.999004
0.996741
0.98884
0.984439
0.984194
0.985431
0.987386
0.990636
1.00089
1.01288
1.01869
1.02162
1.02431
1.02644
1.02438
1.0165
1.01109
1.01017
1.01166
1.01442
1.02029
1.03093
1.03946
1.04471
1.04822
1.05056
1.0512
1.04752
1.03979
1.03412
1.03264
1.03373
1.0409
1.05143
1.06305
1.23604
1.68955
0.894804
0.893805
0.892512
0.893026
0.894012
0.89516
0.897639
0.903888
0.908415
0.910444
0.911765
0.91293
0.914023
0.913829
0.911363
0.910587
0.911223
0.912237
0.913475
0.917317
0.924526
0.928508
0.930377
0.931725
0.93297
0.933903
0.931873
0.928771
0.928304
0.929042
0.930286
0.932209
0.938824
0.946408
0.949752
0.951491
0.952809
0.954038
0.953653
0.948917
0.94609
0.946368
0.947576
0.949033
0.951995
0.961076
0.968967
0.972167
0.974034
0.975597
0.97707
0.97494
0.968434
0.965449
0.965367
0.966351
0.968082
0.972127
0.983466
0.992988
0.996808
0.998648
1.00015
1.00181
0.999345
0.991658
0.987715
0.987197
0.987819
0.989544
0.993135
1.00423
1.01643
1.0225
1.02538
1.02757
1.02872
1.02628
1.01907
1.01385
1.01277
1.01398
1.01669
1.02339
1.03439
1.04259
1.04724
1.04999
1.05182
1.05221
1.04847
1.04036
1.0336
1.03121
1.03239
1.04099
1.05637
1.24426
1.6919
0.897034
0.897051
0.895031
0.89499
0.895785
0.896815
0.898182
0.902895
0.909114
0.912116
0.913671
0.914937
0.916117
0.91693
0.915094
0.912894
0.912843
0.913618
0.914742
0.916743
0.923304
0.929558
0.932253
0.933738
0.934983
0.936148
0.935953
0.932154
0.930131
0.930595
0.931718
0.933048
0.936344
0.944904
0.950828
0.953228
0.954622
0.955912
0.957014
0.954732
0.949876
0.948484
0.948942
0.949992
0.951554
0.956033
0.966373
0.973046
0.975909
0.977884
0.979487
0.980412
0.976296
0.969514
0.96727
0.967842
0.969198
0.970909
0.975294
0.987056
0.995623
0.999208
1.00193
1.00414
1.00559
1.00188
0.993454
0.989304
0.989283
0.990794
0.992879
0.996368
1.00689
1.01852
1.02421
1.02705
1.02928
1.03092
1.029
1.02177
1.01625
1.01489
1.016
1.01878
1.02596
1.03695
1.04457
1.0487
1.05127
1.05301
1.05327
1.04956
1.04083
1.03241
1.02928
1.03061
1.04595
1.24894
1.69298
0.899079
0.900219
0.898148
0.897029
0.89741
0.898281
0.89938
0.902006
0.908829
0.913579
0.915668
0.916982
0.918166
0.919276
0.918874
0.915712
0.914499
0.915073
0.916149
0.917463
0.921465
0.929316
0.933737
0.935678
0.936915
0.938039
0.93892
0.93677
0.933043
0.932445
0.933219
0.934357
0.935821
0.941158
0.950087
0.954558
0.956653
0.958032
0.959343
0.959885
0.955715
0.95109
0.950204
0.950976
0.952321
0.954174
0.96051
0.971302
0.976914
0.97916
0.980561
0.982149
0.983148
0.978367
0.971995
0.970152
0.970244
0.971164
0.972928
0.978251
0.990972
0.999906
1.00331
1.00505
1.0065
1.00794
1.0047
0.996892
0.993116
0.992741
0.993326
0.994907
0.998622
1.00969
1.02105
1.02674
1.02961
1.03179
1.03311
1.03159
1.02483
1.01872
1.01671
1.01734
1.01973
1.02739
1.03885
1.04645
1.05026
1.05251
1.0541
1.05424
1.05057
1.04072
1.03087
1.02607
1.03197
1.24745
1.69263
0.901114
0.90273
0.901629
0.89922
0.898946
0.899716
0.900812
0.902313
0.907552
0.914332
0.917427
0.918939
0.920114
0.921212
0.921849
0.919353
0.916677
0.916733
0.917702
0.918849
0.92059
0.927
0.934158
0.937157
0.938723
0.939967
0.941171
0.941375
0.93756
0.934703
0.934617
0.935382
0.936606
0.938739
0.946298
0.954684
0.958332
0.960284
0.961652
0.962896
0.962225
0.956474
0.952731
0.952614
0.953594
0.954847
0.956799
0.964428
0.974895
0.979737
0.98223
0.984239
0.98589
0.986084
0.980007
0.973451
0.971806
0.972641
0.974139
0.975848
0.980873
0.993232
1.00149
1.00498
1.00775
1.01006
1.01142
1.00777
0.999521
0.994906
0.994401
0.995709
0.997787
1.00158
1.01213
1.02285
1.02847
1.03165
1.03415
1.03584
1.0343
1.02672
1.01974
1.01733
1.01799
1.02055
1.02856
1.04036
1.04786
1.05136
1.05347
1.05494
1.05486
1.05089
1.03967
1.02733
1.02196
1.23991
1.69102
0.903065
0.904715
0.904731
0.902033
0.900735
0.901315
0.902371
0.903562
0.906312
0.913536
0.918609
0.920719
0.921953
0.923042
0.924034
0.923374
0.919923
0.918642
0.919143
0.920099
0.921295
0.924334
0.932568
0.938285
0.940619
0.941961
0.943159
0.944284
0.942907
0.938079
0.936183
0.936673
0.937774
0.939073
0.942097
0.951259
0.9586
0.961495
0.963218
0.964626
0.96601
0.964477
0.958181
0.955016
0.954835
0.955482
0.956824
0.959356
0.968431
0.979022
0.98361
0.98556
0.986788
0.988465
0.988851
0.982678
0.976561
0.975022
0.975028
0.97578
0.97753
0.983162
0.996267
1.00542
1.00893
1.01076
1.01228
1.01365
1.01088
1.00302
0.998309
0.997442
0.997945
0.999512
1.00364
1.01505
1.02589
1.03124
1.03383
1.03582
1.03732
1.03612
1.02871
1.02128
1.0185
1.0188
1.02118
1.02938
1.04141
1.04868
1.05185
1.05397
1.05531
1.05502
1.0502
1.03534
1.02031
1.22787
1.68938
0.904903
0.906484
0.907176
0.905555
0.903098
0.903077
0.903959
0.905045
0.90639
0.911274
0.918684
0.922119
0.923723
0.924845
0.9259
0.926633
0.924291
0.920992
0.920569
0.921384
0.922504
0.923862
0.928839
0.937596
0.94196
0.943861
0.945017
0.946217
0.947013
0.943701
0.939232
0.93838
0.938933
0.939877
0.941268
0.945591
0.955759
0.962162
0.964867
0.966721
0.968239
0.9693
0.96621
0.959361
0.956534
0.956881
0.958056
0.959386
0.961908
0.971472
0.981487
0.985733
0.988325
0.990437
0.992096
0.991762
0.984879
0.978205
0.9764
0.977132
0.978605
0.980401
0.98542
0.997949
1.00668
1.01031
1.01289
1.01514
1.0166
1.01401
1.00586
1.00013
0.998852
0.999887
1.00199
1.00638
1.01758
1.02758
1.03242
1.03521
1.03767
1.03961
1.03845
1.03048
1.02247
1.01931
1.01945
1.0216
1.02965
1.04168
1.04863
1.05176
1.05419
1.05543
1.05496
1.04616
1.0288
1.21609
1.68856
0.906739
0.90825
0.909177
0.909119
0.906293
0.904974
0.905456
0.906433
0.907566
0.909659
0.916585
0.922806
0.925296
0.926611
0.927728
0.928827
0.928755
0.924917
0.922556
0.922771
0.923697
0.924786
0.926555
0.933639
0.941918
0.945329
0.947079
0.948258
0.949452
0.949338
0.944377
0.940426
0.939961
0.940758
0.941953
0.943628
0.949508
0.960072
0.965696
0.967924
0.969281
0.970662
0.971889
0.968416
0.961713
0.959319
0.959233
0.959818
0.961218
0.964237
0.974751
0.985324
0.989668
0.991513
0.992691
0.994335
0.994571
0.988121
0.981561
0.979715
0.979605
0.980199
0.981853
0.987183
1.0004
1.01008
1.01381
1.01565
1.01716
1.01865
1.01698
1.00915
1.00312
1.00153
1.00183
1.00334
1.00779
1.01967
1.03021
1.03529
1.03777
1.03976
1.04142
1.04043
1.03263
1.02372
1.01983
1.01969
1.02166
1.02945
1.04128
1.04824
1.05179
1.05436
1.05551
1.05244
1.04201
1.20981
1.68905
0.908437
0.910027
0.91099
0.911868
0.910391
0.907505
0.907113
0.907877
0.908897
0.909982
0.913359
0.921499
0.92638
0.92841
0.929611
0.930732
0.931768
0.930238
0.925826
0.924361
0.924789
0.92575
0.926957
0.929755
0.938594
0.945903
0.948807
0.950451
0.951577
0.952633
0.951132
0.945063
0.941995
0.942207
0.943327
0.944483
0.946107
0.95289
0.963358
0.968351
0.970709
0.972584
0.974143
0.974857
0.970263
0.963135
0.960669
0.96119
0.962483
0.963874
0.96667
0.976946
0.986991
0.991237
0.993876
0.996057
0.997737
0.997508
0.990818
0.983475
0.980909
0.981336
0.982784
0.984681
0.989521
1.00189
1.01111
1.01493
1.01744
1.01964
1.02122
1.01962
1.01189
1.00509
1.00268
1.00318
1.00502
1.00963
1.0213
1.03151
1.03644
1.0393
1.04177
1.04352
1.04238
1.03412
1.02451
1.02017
1.01978
1.02149
1.02875
1.04036
1.04766
1.05171
1.05459
1.05463
1.05164
1.21121
1.69106
0.909765
0.911843
0.912876
0.913979
0.914363
0.911476
0.909207
0.909228
0.909916
0.910943
0.912372
0.917932
0.926183
0.929844
0.931507
0.932616
0.933691
0.934292
0.930874
0.926672
0.926101
0.927014
0.928217
0.92948
0.933367
0.943078
0.94924
0.951633
0.953148
0.954345
0.955517
0.953216
0.947005
0.94455
0.944633
0.945285
0.94648
0.948539
0.956482
0.967068
0.9719
0.973843
0.974979
0.97643
0.977442
0.972885
0.965981
0.963755
0.963673
0.964149
0.965511
0.96859
0.97954
0.990528
0.995047
0.9969
0.997979
0.999514
1.0001
0.994387
0.986962
0.984304
0.98414
0.984632
0.986113
0.990964
1.00397
1.01396
1.0179
1.01972
1.02129
1.02313
1.02268
1.01531
1.00761
1.0047
1.00458
1.00585
1.0101
1.02215
1.03338
1.0389
1.04153
1.04339
1.04459
1.04377
1.03592
1.02555
1.02049
1.01975
1.02098
1.02755
1.03916
1.04705
1.05195
1.05359
1.05773
1.21834
1.69403
0.910592
0.913779
0.914821
0.915895
0.91688
0.916064
0.912139
0.910595
0.911117
0.912136
0.913266
0.915462
0.923036
0.930221
0.93298
0.934354
0.935358
0.936435
0.936174
0.931372
0.928407
0.928572
0.929475
0.93049
0.931794
0.936799
0.946802
0.952283
0.954627
0.956318
0.957739
0.958629
0.954988
0.948354
0.94604
0.946612
0.947816
0.94899
0.950953
0.959259
0.969495
0.973913
0.976257
0.978206
0.979781
0.980324
0.975135
0.967707
0.964997
0.965433
0.966744
0.968272
0.970969
0.981111
0.991595
0.99607
0.998674
1.00089
1.00261
1.00298
0.997593
0.989576
0.985723
0.985534
0.98679
0.988685
0.99323
1.00515
1.01458
1.01881
1.02171
1.02404
1.02561
1.0248
1.01741
1.00904
1.00543
1.00541
1.007
1.01123
1.02278
1.03393
1.03948
1.04246
1.04471
1.04601
1.0453
1.03738
1.02635
1.02057
1.01936
1.02006
1.02613
1.03779
1.04677
1.05078
1.06008
1.22901
1.6975
0.910024
0.91523
0.916571
0.917622
0.918599
0.919346
0.916783
0.913033
0.912608
0.913438
0.914538
0.915665
0.918839
0.927641
0.933635
0.935929
0.937217
0.938268
0.939304
0.937714
0.932442
0.930233
0.930444
0.931323
0.932458
0.934088
0.94028
0.950339
0.955342
0.957371
0.958692
0.959986
0.96102
0.957215
0.950853
0.948887
0.948989
0.949571
0.950807
0.953186
0.962259
0.972869
0.977455
0.979261
0.98029
0.981682
0.982747
0.978248
0.970984
0.968379
0.968177
0.968458
0.969635
0.97238
0.982891
0.994537
0.999613
1.0016
1.00272
1.00422
1.00544
1.00147
0.993121
0.98891
0.988222
0.98854
0.989817
0.994281
1.0071
1.01763
1.02186
1.02371
1.02511
1.02689
1.02724
1.02048
1.01143
1.00743
1.00694
1.00798
1.01126
1.02252
1.03484
1.04142
1.04431
1.04577
1.04653
1.04597
1.03887
1.02755
1.02074
1.01855
1.01859
1.02419
1.03676
1.04528
1.05948
1.24078
1.70094
0.907439
0.915616
0.91789
0.919236
0.920286
0.921326
0.921378
0.917419
0.914718
0.91484
0.915642
0.916658
0.917968
0.92247
0.931784
0.936914
0.938986
0.940202
0.941275
0.942127
0.939067
0.933556
0.931954
0.932554
0.933629
0.934659
0.936288
0.943289
0.953316
0.957872
0.96001
0.96174
0.963226
0.963801
0.959104
0.952329
0.950209
0.950842
0.95211
0.953348
0.955471
0.964234
0.974437
0.978823
0.98124
0.983289
0.984896
0.985639
0.981202
0.973412
0.969687
0.969535
0.97066
0.972221
0.974628
0.983943
0.99512
1.00028
1.00303
1.00536
1.00708
1.00806
1.0045
0.995939
0.99043
0.989318
0.99034
0.992199
0.996483
1.00821
1.01795
1.02231
1.02528
1.02766
1.02934
1.02937
1.02272
1.01336
1.00856
1.00773
1.00882
1.01183
1.02223
1.03463
1.04142
1.04455
1.04623
1.04711
1.04684
1.04036
1.02873
1.02046
1.01699
1.01641
1.02286
1.03521
1.05443
1.25189
1.7036
0.904346
0.91379
0.918803
0.920858
0.921997
0.923017
0.923992
0.922848
0.91825
0.916411
0.916855
0.917887
0.918964
0.920338
0.925962
0.935337
0.939857
0.94187
0.9432
0.94433
0.944876
0.940759
0.935567
0.934355
0.934662
0.935418
0.936608
0.938668
0.946637
0.956595
0.961005
0.962856
0.963932
0.96526
0.966155
0.961759
0.955284
0.953321
0.953328
0.953708
0.954883
0.957197
0.966337
0.977355
0.982293
0.984224
0.985324
0.986764
0.988116
0.984913
0.977048
0.97307
0.972398
0.972432
0.973312
0.975569
0.984984
0.997589
1.00366
1.00592
1.0071
1.00854
1.01012
1.008
0.999487
0.993521
0.992009
0.991979
0.99301
0.996878
1.00923
1.02063
1.02556
1.02761
1.02902
1.03072
1.03174
1.02622
1.01607
1.01028
1.00887
1.00932
1.01123
1.02097
1.03464
1.0426
1.04578
1.0469
1.04741
1.04717
1.04175
1.03018
1.01996
1.01473
1.01414
1.02099
1.04486
1.25981
1.705
0.903652
0.909487
0.917827
0.921917
0.923588
0.92463
0.925669
0.926547
0.924035
0.919497
0.918514
0.919098
0.919929
0.920866
0.922507
0.929437
0.938714
0.942914
0.94491
0.946375
0.947596
0.94768
0.942348
0.936872
0.935833
0.936705
0.937917
0.938988
0.940912
0.949173
0.958865
0.96294
0.965087
0.966899
0.968382
0.968937
0.964243
0.957166
0.954489
0.954835
0.955973
0.957265
0.959252
0.967564
0.978319
0.983335
0.986013
0.988281
0.989924
0.990985
0.988075
0.979972
0.974521
0.973328
0.974162
0.975658
0.977891
0.986112
0.99802
1.00407
1.00706
1.00952
1.01129
1.01256
1.01062
1.00221
0.995038
0.992677
0.993197
0.994839
0.998416
1.00959
1.02059
1.02579
1.02906
1.0317
1.03338
1.03392
1.02822
1.01759
1.01085
1.00893
1.0095
1.01154
1.0208
1.03472
1.04294
1.04589
1.04687
1.04752
1.04736
1.0429
1.03137
1.01885
1.01209
1.01035
1.03097
1.2624
1.70485
0.904453
0.907003
0.913254
0.921483
0.924919
0.926521
0.927565
0.928617
0.928966
0.924876
0.92071
0.92001
0.92064
0.921689
0.922895
0.925011
0.932873
0.941852
0.945643
0.947385
0.948656
0.949867
0.950021
0.944675
0.939569
0.938627
0.938892
0.939594
0.940784
0.943125
0.951925
0.96188
0.966167
0.967919
0.968954
0.970349
0.971401
0.967474
0.960347
0.957593
0.9573
0.957451
0.958475
0.960496
0.96907
0.981086
0.986943
0.9891
0.9902
0.99142
0.992936
0.991539
0.983782
0.977847
0.976331
0.976285
0.976884
0.978693
0.986687
1
1.00733
1.00997
1.01127
1.01262
1.01428
1.01362
1.00569
0.997927
0.995159
0.994634
0.995307
0.998077
1.00927
1.0227
1.02927
1.03167
1.03289
1.03413
1.0353
1.03114
1.02052
1.01288
1.01029
1.01013
1.01136
1.01986
1.0343
1.04288
1.04565
1.04653
1.04731
1.04727
1.04388
1.03204
1.01754
1.00852
1.01456
1.25726
1.70271
0.905367
0.907416
0.909374
0.917378
0.925099
0.928124
0.929518
0.930426
0.931391
0.930828
0.925425
0.921891
0.921867
0.922895
0.924052
0.925125
0.927273
0.935806
0.944565
0.948096
0.949935
0.951498
0.952825
0.952557
0.946537
0.940995
0.939927
0.940793
0.942014
0.943141
0.945166
0.953729
0.963484
0.967678
0.969991
0.971921
0.973429
0.974234
0.970321
0.962559
0.958658
0.958467
0.959495
0.96097
0.962842
0.970279
0.981788
0.987575
0.990297
0.992571
0.994263
0.995558
0.994478
0.987204
0.979958
0.977299
0.977618
0.978988
0.981027
0.98794
1.00034
1.00745
1.01081
1.01351
1.01543
1.01684
1.01606
1.00824
0.999363
0.995549
0.995438
0.996835
0.999583
1.00953
1.0224
1.02891
1.03201
1.03454
1.03629
1.03718
1.0331
1.02216
1.01338
1.00993
1.00978
1.01103
1.01891
1.03363
1.04227
1.04482
1.04597
1.0473
1.04756
1.04435
1.03155
1.01335
1.00625
1.24481
1.69971
0.906448
0.908623
0.909548
0.912506
0.921195
0.928131
0.930855
0.932308
0.933271
0.934153
0.932521
0.92683
0.924158
0.924243
0.924859
0.925881
0.927129
0.929858
0.938923
0.947407
0.950821
0.952402
0.953395
0.954615
0.954822
0.94931
0.943988
0.942851
0.942977
0.943497
0.94468
0.94698
0.955863
0.96637
0.971023
0.972825
0.973796
0.975015
0.976296
0.973675
0.966004
0.961949
0.961351
0.961457
0.962198
0.963893
0.971104
0.983747
0.990795
0.99333
0.994518
0.99563
0.997206
0.997472
0.991239
0.98336
0.980357
0.979969
0.980263
0.981666
0.988015
1.00172
1.01073
1.01405
1.01554
1.01659
1.01809
1.0184
1.01168
1.00244
0.998291
0.997464
0.997805
0.999494
1.00818
1.02278
1.03146
1.0345
1.03575
1.03674
1.03775
1.03506
1.0246
1.01484
1.01056
1.00982
1.01093
1.01839
1.03284
1.04158
1.04431
1.04577
1.04714
1.04738
1.04376
1.02666
1.00903
1.22941
1.69763
0.907894
0.90994
0.910818
0.911982
0.915174
0.924206
0.930858
0.933546
0.935122
0.936206
0.937115
0.934717
0.928339
0.925606
0.926001
0.927164
0.928395
0.929497
0.932006
0.941177
0.949437
0.952663
0.954552
0.956209
0.957572
0.957477
0.951686
0.945569
0.943926
0.944617
0.945855
0.947082
0.949017
0.957161
0.967437
0.972035
0.974381
0.976379
0.977894
0.978992
0.976748
0.969103
0.963625
0.962347
0.963115
0.964505
0.966235
0.97213
0.983919
0.990968
0.994103
0.996582
0.998439
0.99986
1.00011
0.994648
0.985949
0.981446
0.9809
0.982028
0.983848
0.989373
1.00205
1.01072
1.01436
1.01696
1.0191
1.02065
1.02091
1.01478
1.00486
0.999214
0.997971
0.998903
1.00077
1.00806
1.02192
1.03065
1.03404
1.03636
1.03834
1.03951
1.03738
1.02728
1.01623
1.01094
1.00998
1.01079
1.01736
1.03132
1.0399
1.04294
1.04528
1.04702
1.04729
1.03907
1.02329
1.21764
1.69697
0.909952
0.911011
0.911833
0.912776
0.913976
0.917387
0.92671
0.933282
0.93583
0.937306
0.938438
0.939406
0.937203
0.931209
0.928727
0.928776
0.929225
0.930097
0.931321
0.934189
0.943584
0.95213
0.955573
0.957115
0.958026
0.959319
0.959877
0.954939
0.948819
0.947093
0.947101
0.947391
0.948426
0.950382
0.95856
0.969804
0.975217
0.977216
0.97822
0.979429