/*--------------------------------*- C++ -*----------------------------------*\
  =========                 |
  \\      /  F ield         | OpenFOAM: The Open Source CFD Toolbox
   \\    /   O peration     | Website:  https://openfoam.org
    \\  /    A nd           | Version:  12
     \\/     M anipulation  |
\*---------------------------------------------------------------------------*/
FoamFile
{
    format      ascii;
    class       volScalarField;
    location    "6.79";
    object      T;
}
// * * * * * * * * * * * * * * * * * * * * * * * * * * * * * * * * * * * * * //

dimensions      [0 0 0 1 0 0 0];

internalField   nonuniform List<scalar> 
22702
(
1
1
0.95649
1
1.01703
1
1.12019
1
1
0.889315
1.12034
1.1209
1
1.11842
0.961818
1
1
1
1.11997
1
1.11869
1
1.11933
0.895663
1.11899
0.888062
1
1.12056
0.906185
0.89749
1
1.12098
1
1
1
1.11083
1.11868
1.11935
1
1
0.882914
1
1.06242
1
1.12052
1
1
1
1
0.895717
1
0.897153
1
1.12038
1
1.121
1
1
1
1
0.89011
1
1
0.903995
1
0.891771
1
1
1
0.88709
1
1.11886
1.07594
1
1.11872
1.12503
0.89402
1.11931
0.89669
1
1.12045
0.898353
1.12032
1.12025
1
1
1
1
0.977188
0.886572
1.12025
1
1
0.891336
1
1.11868
0.889902
1
1
1
1
1.06303
1.12028
0.885337
1
1
1.03098
1
0.898201
1
1.11966
1.12076
1
1
0.89103
0.896601
0.887577
1
1
1
1
1
0.971933
1
1.10317
1.01204
1.11911
1
1.11913
1.12019
1.11855
1.12128
1
0.885716
1
0.891695
1
1
1
1
1.12067
1
1
1
1
1.11819
1
1.00716
1
1
1
1
0.894628
1
1.00289
1
0.899278
1
1
1
1.12002
1
1.11891
0.896861
0.885039
1.1195
1.11941
1
1.02485
1.07118
1
1.11999
0.896158
1.11098
1
1
1
1
1.11843
1.09882
1
1.12054
0.896809
1.1203
1
0.898671
1
0.899104
0.88789
0.999938
1
1
1.12033
1
1
1.11859
1
1.12017
1.12032
0.896976
1
1
0.898421
1.11847
1
1
1
1.11848
1
0.895756
1
1
1.11866
1.1186
1.11984
1
1.00001
1
1
1
1.11864
1
0.886013
1.12421
1.1187
1.11858
1
1
1
0.893832
1.11916
1.06018
1
1.11891
0.891688
0.893985
1.11898
1.11926
1
1.11712
0.870081
1.10611
1
1
1
1
1.11861
1
1.07367
1.01259
1
1
1.11881
0.891886
0.9225
1
1.11818
0.891642
1.11816
1
1
1
1
1
1
1
0.894489
0.919452
0.891039
1.11848
1
1
1
1
1.10894
1
0.895807
1
0.887875
0.898584
1.1183
0.893841
1.11867
1
1
1
0.999323
0.897426
0.870624
1
1
0.888756
1
1.12024
0.884659
1
1
1.12078
0.890047
1
1.11928
0.889014
1.11874
1
0.890348
0.999342
1
1
1
0.894426
1
1
1
1
1.00563
1.07662
1
0.888541
1
1
1
1
1
1
1
1.12112
1
1.1211
1
1
1
0.895274
1
1.11821
0.893587
1
1.09423
1
1
1.121
1
1
1
1.11825
1
1
1.11874
1.12093
1
1.02811
1
1
0.890444
1
1
1
0.895387
1
1
1
1
0.898154
1
1
1
1
1
0.879997
1.00002
1.11898
1
0.999993
1.11923
1.11976
1
1
0.901971
0.951805
1.12072
1
1
1
1.11852
0.885047
1
1.1188
1
1
0.909267
0.909183
1
0.896744
0.894706
1
1
1
1
1
1
1
1.11955
1.0314
1.11475
0.884255
0.973643
1.12071
1
1.11858
1.12093
0.887551
0.936428
1
0.890841
1
1.12491
1
1
1
1
1.11853
1
1
1
1
1
1
1
1.04701
1.1195
1
1.11852
1
1
0.899292
1
1
1
1
1.11848
1.09305
1
1
0.895448
1.1188
1.1187
1
1.11874
1.11862
1.11856
1
0.958568
1
1.11828
0.998662
1.11859
1
0.887669
0.99969
1.12035
1
1
1
1
0.896881
1.11869
1.10851
1
1.11827
1.11835
1.12028
1
1.06036
1.11884
1
1
1.08444
1.01946
1.11856
0.980234
1.11859
1
1.11862
1.11869
1.1186
1.11883
1
1.11355
0.973667
0.967252
1
1
1
1
1.12075
1
1
1
1
1
1.12047
1
1
0.998929
1.11865
1.10291
1
1.09927
1.00001
1
1
1.11879
1
0.999078
1.00142
1
1.11876
1
1.11911
1
1
1.09109
1
1.11915
1.00001
1
1.11824
1
1.1185
1
1
1
1.11861
1
1.11976
1
1.11858
1.12041
1.11858
1.11989
1
1.12096
1.11671
1
0.900247
1.11168
1.08863
1
1.11864
1
0.890447
0.890688
1
1
1
1
1
0.888598
1
1.11851
1.03427
1.11885
1
1
1
1
1
1.11864
1
1.11862
1.07412
0.941196
1
1
1.0375
1.03183
1
1
1.04502
1
0.900125
1.11827
1.11838
1
1
1
1.12049
1
1.00001
1.11809
1.11877
0.98706
1
1
0.897264
1.10883
1
1
1
1
1
1.11857
1.12096
1
1.118
1.11962
1.11866
1
1
1
1
0.88453
1.12102
1
1
1.1089
1.11825
1
1.11228
1.11939
1
1
1
1
1
1.11869
1
1
1
1
1.12078
1
1.11517
0.890115
1
0.890069
1
1
1
0.9991
0.896723
0.99972
1
1
1
1.01772
1
1
0.96173
1
1
1
1
1
1
1
0.999999
0.980556
1
1
0.999296
1
0.89666
1
1
1
1
1.09124
1
1
1
1
0.896412
1
1
1.11228
1.12077
1
1
1
0.968773
1
1
1
1
1
1
0.988557
1.00574
1.11857
1
1
1
1.11904
0.966069
1
1
1
1.11988
1.12011
1
1
1
1
1
1
1
1
1
0.895658
1
1
1.11929
0.893958
1
1.11937
1
0.895869
1
1
0.894305
1
1
1
1
1
1
1
1.11655
1.11833
1
1
1
1
1.10918
1
1.03837
0.899142
1
1
1
1
1
1
1
1.01255
1
1
1.06613
1
1
1
1.09979
1
1
1
1
0.889734
1
1
0.890647
0.890235
1
1
1.11826
1
1.01399
1
1
1
1.0856
0.882521
1
0.881392
1
0.933574
1
1
1
1.1192
1
1
1.11844
1
1
1
1.11849
1
1
1.11867
1
1
0.886455
1
1.03811
1
1
1.12092
1.12054
1.08183
1.10713
1
0.888784
1
1
1.11385
1
0.884736
1
1
1
1.11878
1
1
1
1
1.07454
1
1.11185
1.11938
0.893184
1
1
0.888921
0.891204
1
1
1
1.08639
1.09278
1
1
1
1
1
1
1
1.05425
1.12103
1.00412
1
1.11732
0.885742
1
1
1
1.06875
1
1.02626
1
1.1092
1.118
1
0.88798
1
1.12072
1
1
1.11855
1.11165
1
1.12181
1
0.900838
1
1
1
1.1192
1.11655
1.10563
1
1.11917
1.11872
1
1.1189
1
1.11807
1
0.890752
0.992968
0.89382
1
1
1
1
1
1.11881
1
1.11882
1
1
1
1.11328
1
0.89543
1.11846
1
0.900283
0.890743
0.884175
1
1.0618
1.01166
1.11897
1.1186
1
1
1
1
1.1185
1
1
1.11855
1.11878
1
1.04617
0.999976
1
0.999088
1.11968
0.956989
1
0.946627
0.898922
0.900533
0.993629
1.11961
1.11711
1.02704
1.11859
1.11851
1
1
1.12034
1.12005
1.11872
1.1211
1
1.11855
0.899219
1.11856
1.1184
1.11981
1.11952
0.959805
0.972603
0.980984
1.11843
0.988755
1.11862
1
1
1.11903
1.11871
1
0.891241
1.11962
1.11854
1
1.11852
1.1185
1
1.11856
0.897666
1.11967
1.12074
1.12123
1.12032
1
1
1
1.11846
1.07965
0.881743
1.11857
0.891829
1.11828
1
1
1
1
1.11824
1.11879
1
1
1.11882
0.892072
1.11867
0.896945
1
1.1179
1
0.88995
1.11861
0.917116
1
1.11851
1.11878
1.11867
1
1
1.05957
1.11868
0.895954
1.11859
1
1.11867
0.963647
1.11874
0.894716
1
1.11827
0.90026
1.119
0.89785
1
1.11868
1
1.11904
1
1.07243
1.11462
1.09551
0.884815
1
1.1185
1
1.11845
1
1.11858
1
1
1.11845
0.99671
1.11916
0.897028
1.10527
1
1.0866
1
1.11889
1.11852
1.11895
1
1.10763
1.11853
1.11029
1.07661
1.11469
1
1.08119
1
1.11829
1
1.01843
1
1.11067
1
1.11864
1.11349
1.11351
1
1.11693
0.89141
1
0.889972
1
1
1
1.12048
1
1.11884
1
1
1
1.11905
1.11696
1.0998
1.11811
1.11906
0.889522
1.1193
1.12138
1
1.10184
1.11847
1.11711
1
1.12018
1.12117
1
1.11924
1.11891
1.11871
1.11876
1
1
1
1.11844
0.881793
1
1.11859
1
1
0.889852
1
1
1.11843
1.11851
1
1.1186
1.12037
1.11838
0.994543
1.11867
1
1.11869
1.11855
1.09662
1
1
1
1.11885
1.11853
1.11855
0.985072
1
1.1218
1.11855
1.11842
1
1.11859
1.11838
1.11858
1.12191
1
1.11834
1.11894
1.10668
1.11833
1.12142
1
1.11926
1.11742
1.11868
1.11863
1.1184
0.887368
1.11855
1.11849
1
1.11863
1.1186
1.11866
1.11876
1
1.1184
1.11856
1
1.11875
1.10096
1
1
1
1.11875
1.1197
1
1
1.06703
1
1.11867
1
1
1.11844
1.11887
1.11855
1.11861
1
1
1
1.08718
1
1.11864
1
1
1.11996
1.12089
1
1.11849
0.886157
1.11857
1.11937
0.906076
1
0.882865
1.10642
1.11953
1.1188
1.11876
0.890797
1.11852
1.1192
0.891609
0.88973
1
1.11883
1.11861
1
1
1.11868
1
1.11817
1
1.10531
1
1.05928
1.11836
1.11875
1.0863
1.10683
1.12101
1.11897
1.11142
1
0.884568
1.11985
1.11869
1.11958
1
1
1
1.11986
1
1.11853
1.11861
0.924201
1
1.11859
0.999981
1
1.00001
1.00001
1.11879
1.11829
0.999561
1
1
1.11843
1.11876
1.11855
1.11966
1.11809
0.892925
1.10465
1
1.11785
1.11852
1.11854
1.12077
1
1.11865
1.11575
1.11876
1
1.11879
1.11839
0.957873
1.1186
1.11895
1
1.11866
0.952683
1.11868
0.955988
1.11864
1
1.1185
1.12259
1.11853
1.1186
1.11856
1.12015
1.11869
1.11929
1
0.978291
1.11858
1.11856
0.953906
1.1185
0.997486
1.07668
1.11851
1.11895
1.11913
1
1.11906
1.08144
1.11786
0.978173
1.11902
1.12179
1
0.962755
1
1.11599
1
1.08422
1
1.11353
0.962072
1
1.11822
1.11767
1
1.11887
1.11902
1.11661
1.1202
1.12079
1
1.12064
1
1
1
0.971879
1.11866
1.11887
1.11944
1.11851
1.1185
1.12019
1.11865
1.11872
0.971943
1.00932
1
1
1.12315
1.11871
1.11865
1.11858
1.00001
1.06269
1
1.11906
1.10405
1
1
0.920246
1.11868
1
1
0.90096
1.11865
1
1.12137
1.11854
1.12116
1.11434
1.11858
1
0.884425
1.03039
1.11856
1.11852
1
1.11879
1.11838
1.06354
1.00273
1.02801
1
1.11916
1.11861
1
1
0.891435
1
1
1.11851
1.11858
1.1189
1.11849
1.11845
1.12016
1.11858
1.11775
1.11855
1
0.998957
1.11854
1.11846
0.999069
1.11847
1.11845
0.888356
0.890781
1.11855
1.1193
1
1
1.00025
1.11866
1.11874
1.11867
1
1.11842
1
0.957114
1.11962
1.12013
1
1.05487
1.11876
1
1.11921
1
1.11831
1.0824
1.11934
1
1.11827
1.12092
0.889668
1.11881
1
1.11881
1.12073
1
0.888884
1.11943
1.10449
0.999263
1.11375
1.11867
1
1.00148
1.11799
0.999435
1.11858
1
1
1.11845
1
1.11872
1.11843
0.999016
1.09601
1
1.11854
1
1
1
1
1.11855
1
1
1.11831
1
1.11853
1
1.07911
1.11785
1.1189
1
1
1.00159
1
1.11906
1.1186
1.11901
1.11861
1.11855
1.11872
1.11868
1
1.11854
1.1183
1
1.11872
1.11847
1
1.11887
0.977868
1.01656
1.11864
1.11857
1.11864
1
1.1186
1
1.11831
1.11864
1
1.11871
1
1
1
1
1.11828
0.88729
0.999404
1
1.11842
1.11973
1
1.11847
1
1.00152
0.89561
1.11855
0.999884
1
1.11825
0.999546
1.11846
1
0.999933
1
1.11815
1.11958
1.11871
1.11888
0.896487
1.11807
1.11863
1.11861
1.0309
1
1
1.05522
1.11851
0.884282
0.896852
1
1.11874
1.11882
1.11928
1
1
1.11838
1.11877
0.999966
1
1.08834
0.887882
1
1.02201
1.12032
1.11942
0.999501
1.11863
1.122
1
0.99971
1
1.11924
1.11947
1.05019
1
1.11196
1
1.00075
1.11917
0.882023
1.11858
1.11857
0.999142
0.999975
1.10421
1
0.999914
1
1.11866
1
1
0.883151
1.11888
1
1
1
1
1.11856
1.07083
1
1
0.88533
1.1187
1.07132
1
1
1
1.11345
1.11439
1.12029
1
1
1.12109
1
1.11847
1.11856
1
1
1.11901
1.11872
1.11573
1
1
1.11908
1.11891
1
1
1
1.11888
1
1
1
1.11889
1.11929
1.11916
1
1.1192
1.00001
0.90838
1.11854
1.11866
1
1.11979
1.11536
1.12016
1
1
1.11931
1
1.06853
1.11832
1
0.891698
1
1.11899
1
1
1.11885
1
1
1
1.04005
1.11817
0.904539
1
1.11884
1
1
1.11887
1
1.1195
1
1
1.11865
1.11878
1
1.00001
1
1
1
1
1
1
1.1181
1.11882
1
1.12127
0.886011
1.11935
1
1.11838
1.12091
1.11866
1.1203
1.12188
1
1
1.11915
1
1.0788
1.11988
1.11869
1
1.11883
1.11954
1
1.10648
1
1.11832
1.07956
1.11918
0.999339
1.11747
1.10936
1.11899
1.11862
1.01084
1.11848
1.11894
1
1.11861
1
1.11855
1
1
1
1
0.998908
1.11863
1.11851
1.09922
1
1.11879
1
1
1
0.877513
1
1.11554
1
1.10832
1.11587
1
1
1
1.11094
1.11985
1
1
1.11842
0.893671
1.02324
1
1.11985
1.11866
1.10888
1.11521
1.11849
1
1.11797
1
1
1
1
1.1183
1.11901
1
1.11789
1.01511
1.11871
1.11123
1
1
1.11152
1
1
0.892236
1.08544
1
1
1.11757
1
1.1191
1.10925
1
1.10913
0.895643
1.11857
1.11839
1.11866
1
0.89231
1
1
1
1.11856
1.09862
1
1.12025
1.11872
1
1.11871
1
1
1
1
1.11864
0.999802
1
1.11902
1
1
1.11996
1.11855
1
1.11927
1.02491
1.00001
1
1.11861
1
1.1186
1
1.00439
1.11852
1
1.11859
1
1
1.04049
1.11894
1
1
1
1
1
0.999067
0.890353
0.884882
1.00584
1
1.00882
1
1.00877
1
1.1186
1
1.0776
1
1.11857
1
1
1
1.11852
1
1.09505
1.11821
1
1.06713
1.11848
1
1
1.12027
1.11836
1
1
1.0142
0.886059
1
1.11916
1
1
1
1
1.0221
1.11849
1
1
1
0.897375
1
1.11861
1.11856
1.12044
1
1
1
1
1.06094
1.12103
1
1
1
1.11821
1.11846
1.01451
1
1
1
1.1189
1.11845
1
0.890537
1.1185
1.11852
1.11916
1.11814
1.1195
1
1
1.11876
1.11918
1.11868
0.90188
1.01136
1.11867
1
1
1
1
1
1.11863
0.896174
1
1
1.11868
1.05859
1
1.11879
1
1
1
0.891284
1
1
1.0313
1.1185
1.11856
1
1.11972
1.11938
1
1.02325
1
1.11771
1
1.11832
0.89463
1
1
1
1
1.11865
1.00002
1
1
1
1.11557
1
1
1
1
1.11838
0.890507
1.09637
1.11942
1
1.11834
1
1
1
0.999172
1
1.12116
1
0.942424
1
1
1.00001
1.11831
0.895396
1
1.1188
1
1.11819
1.11855
0.898699
1
1
1.11365
1
1
0.904032
1
1.11696
1
1.11356
0.999792
1.11862
1
1
1
1
1.1195
1
1
1.11859
1
1
1
1
1
1
1
1
1.08084
1
1.04166
1.11837
1
1
1
0.890112
1
1
1
1
1.11912
1.11861
1.01543
1
1
1.11885
1
1
1.11892
1
1
1
1
1
1
1.1187
0.933474
1.11853
1.11904
0.999159
1
1
1
1.07405
1
1
1.11911
1.11862
1
1
1
1
0.895394
1
1
1
1.07741
1
1.11866
1.11919
1
1.11905
1
1
1
1.06785
1
1.12102
1
1.11841
1
1
0.998856
1.11848
1
1
1
1
1
1.11875
1.00001
1
0.894957
1.11816
0.899219
1
1.11857
1
0.998785
1
1.11869
1.11949
1
1.12004
0.9615
1.11852
1.12079
1.00001
1
1
0.886568
1
1
1
1.1185
1.0704
1.11834
1
1
1
1
0.999127
1.11877
1
0.893567
1
1
1
1
1
1
1
1.12072
1.11914
1.11919
1
1
0.999134
1
0.995433
1
1
1
0.889413
0.994752
1
0.888189
0.889537
1
1.11867
1.11868
1
1.1192
1.11854
0.887181
1.08034
1
1
1
0.895806
1.11909
1
0.892119
1
1.12055
1.02353
1
1
1
1
1.11861
1.11996
1
1
1.11856
1
1
1.11945
1.11853
1
1.10871
1.11853
1.12002
0.991332
1.11871
1.00253
0.890766
1.0925
1.11832
1
1
1
0.891523
1
0.889833
1.11949
0.991174
1.11846
0.986901
1
1.1187
1.05752
1
1
1.11886
1
1.05343
1.11899
1
1
1.1192
1.11745
0.890637
1.0717
0.99997
1
1.07475
1
1.11854
0.984019
1.12018
1.11801
1
1
1
1
1.11343
1
1
1.11907
0.999897
1.11881
1.09519
1.11902
0.8934
1
1
1
1
1.11885
1.00001
1.11857
1
1.1187
1.11914
1.01629
1.11608
1.04105
1.11898
1
1.08318
0.895577
1.11924
1.11858
1.0959
1.02398
1.11971
1.11853
1.11861
1.11803
1
0.982959
1.01896
1
1.11874
1.05981
1.11839
1.00001
1
1
0.90643
1.11931
1.11972
1.09921
1
1.04756
1
1.11916
1.1197
1
1.11926
1.11954
1
1
1
1.11903
1
1.04858
1.11869
1.08519
1
1.11834
1
1
1
1
1
1
1
1
1
1
0.89884
1
1.11162
0.886037
1.07382
0.99958
1.11807
1
1.06616
1
1.0791
1.10036
1
1.00045
1.11973
0.978757
1
1.11943
1.11471
0.984863
1
1.11897
1.11886
1.11884
1
1.11845
1.11916
1.11876
1
1.05881
1
1.00002
1.1188
1
1.11868
1.01929
1.11844
1
1
1.1194
1.11904
0.906251
1
1.11874
1.0915
1.11841
1
1
1.1201
1.1185
0.999508
1
1.10638
0.99913
1.11882
1.00001
1
1
1
1
1.05812
1
1.09293
1.11844
1.09109
1.119
1
1.00071
1
1
1.11954
1
1.11894
1
1
1
1
1
1
1.01614
1.06584
1
1
0.887072
1
1.11845
0.894417
1.12008
1
1.06622
0.999931
1.11873
1.07816
0.89288
1.06859
1.00001
1.11863
1.11843
1
1.07564
1.11783
1.11873
0.999543
1.12117
1.11544
0.887423
1
1
0.999317
1
1.11619
1
0.893505
1.11936
1
1
1.10387
1
1.11854
1
1.11915
1
0.896464
1
1
1.11913
1.1168
1.11852
1
1.11786
1.11852
1.1179
1
1
1.11692
1
0.919981
1
1
1
1.11911
1
1.1186
1.08029
1.11794
1
1.11852
0.999828
1
1
1
1
1
1
0.913316
1
1
1.11853
1
1.11984
1.12032
1
0.890811
0.890497
1
1.119
1.02053
0.89559
0.883245
1
1.11932
1
1.11798
0.891981
1.00034
1
1
0.999862
1
1
1
0.999974
1.05338
1.11885
1
1
1.11858
1.07214
1
1.10445
1.11868
1.11848
1.05367
1.11707
1
1.11857
1
1.11718
1
1.11781
1.11808
0.999085
1.11809
1.12008
1
1
1
1
1
0.977804
1.12031
1.00001
1.00001
0.886689
0.999995
0.887956
0.871043
1
1.11896
1.11857
1.11856
1
1.11849
1
0.891684
1
1
1.1195
0.94942
1.118
1
1.11895
1
0.997363
1.11858
1
1
1
1.11843
1
1.11881
0.890404
1
1
1.07075
1
1
1.06855
1
1
1.11863
1
1
1
1
1
1.11896
1.11853
1
1.11914
1.1188
0.885912
1.05749
1.11799
1
1
1.10834
0.999701
1
1
1.11842
1.11922
1.07839
1
1.11883
0.895815
1.11474
0.999868
1
1.11869
1.00001
1.1181
1.09876
1.0923
1
1
1.11836
0.915436
0.890457
1
1.11871
1
1.11912
1
1.07435
1
1
1.11826
1.07906
0.893084
1
0.999579
1
1
1.00741
1.05327
1.11839
1
1.12003
1
1
1
1
1
1
1.01939
0.891984
1
1
1.01183
1
1
1
1
1
1.11912
1
1
1.1185
1.11828
1.09147
1
1
1
0.953701
1.11968
1.08602
1
1
1
1
1.11886
1
1
1
1.12021
1
1
1.08855
1.12274
1.01262
0.925836
1.11834
1.08645
1.1185
1
1.06156
1
1
1
0.877642
1.00065
0.886973
1
0.889164
0.883967
1
0.883393
1
1
1
1.05648
1
1.11856
1.11887
1.00031
1.05779
1.10154
0.889256
0.925485
0.965885
1
1.11848
1.11937
1.11848
1.11845
1.10393
0.963152
1
1.10415
1
1.11114
1
1
0.99902
1.00281
1
1
1
1.11933
1
0.886834
1
1.1187
0.886667
1
1
1.11855
1
1.11841
0.999965
1
1
1.11874
1.10812
1
1.12198
1
1
1.00443
1
1.0555
1
1
0.884579
1
1
1.1183
1
1.1187
1
1.00001
0.885423
1
1
0.89616
1.00031
1
1.11907
0.888045
1.12081
0.893932
1.11886
1
1
1
1
1
1
1
1
1
1
1
1.11414
1
1.119
1.12008
0.889997
1
1
1
1
1
1
1.1155
1
1
0.892769
1
1
1.11939
1
1
1.04879
1.10019
0.892324
0.892781
0.900198
0.922404
1
0.998975
0.888162
1.00014
1.11129
0.999124
1
1
1.11904
1
1
1
0.926817
1
1.04596
1
1
1.05137
1.1184
1
0.886528
1
1
1
0.998974
1
1.11843
1.11856
1
0.887722
1
1.06798
0.887559
1
0.969419
1
0.998876
0.880619
1
1
1
0.998768
0.894467
1
0.887815
0.999552
1.06655
1.10705
0.892695
0.894969
1
0.997219
1
0.999608
1
1.11828
1.11848
1
1.00656
1.11891
1.11868
1
1
1.11862
1
1
1.00001
1
1.12076
1
1
1.00517
1
0.999584
0.898308
1
1
1
1
1
1.11978
1.0115
1.00001
1
1
1
1
1
1.00001
1
0.892264
1.0313
0.999588
1.11657
1.11835
1
1.00446
1.11885
1.10685
1
1
0.87227
1.11849
1
1.11966
1
1.11904
1.0837
0.892553
1
0.888138
1.11191
0.999909
1
0.891441
0.873139
1
1
1.10223
1
1
0.886374
1
1
1
1.04137
1
0.890107
1.11837
1
1
1
1
1.11857
1
1
1.1198
1.1078
1
1
1
1.11942
0.891644
1
1.11896
1.11878
1
1.09712
1
1.00001
1
1
1.10944
1.00703
1
0.88535
1.06654
1
1
0.999154
1
1
1.11881
1
1
1.00001
1
1.11939
1
1
1
1
1
1
1
1.05671
1
1.11876
1
1
1.11879
1
1
1
1.11854
1.11979
1.01295
1
0.999323
1
1
1
1
1.12031
1
1
1.11872
0.887882
1
1
1
1
1
1
1.09778
1
1
1.11795
1.11912
1
1
1
1.11916
1.11869
1
0.999905
1.11814
1
1
1
1
0.888269
1.00835
0.99892
0.998858
1
1
0.884262
1.11904
1
0.881078
1
1.11818
1.11392
0.89266
0.999829
1.11848
1.11929
1.11865
1
1
0.976758
1.1089
1.10007
0.877563
1
1
1
1.11878
1.11838
0.882046
0.999203
1
1.1186
0.888022
1
1.11719
0.889239
0.993639
1.00195
1
1.12041
1
1
1
1
1
1
1.00003
1.11124
1
1
1.12013
1
1
1
1.11854
1
0.892099
1
1
1
1.04483
1
1
1
1
1
0.936
1
0.889675
1
1.11854
1.00001
0.959057
0.960361
1
1.00127
1.06602
1
1
0.889466
1.11835
1.11859
1.11847
1
0.889814
0.886075
1
1.11836
1
1
1
1
1
1.00001
1
0.895182
1.07855
1
1
0.890942
0.996083
1
1
1
1
0.880217
1
0.899943
1
1
1.1205
1
1
0.894656
1
1.1185
1
0.888559
1
0.892227
1
1.00229
1.11889
1.12218
1
1
1.12008
1
1
1.03082
0.999148
1
0.999491
1
1.11933
1
0.897067
1
1.12043
0.999656
1
1
0.940109
1
0.999734
0.890912
1.11952
1.04669
1
1
0.975032
1
1
1
0.938066
1
1
1
1.11857
1
0.892541
1
1
1
1
0.885965
1.11851
1.11107
0.891043
1
1.11916
1
1
1.11846
1.1194
1.1016
0.885611
0.999364
0.999799
1
1.1184
1
1
1
1
1.1191
1.00001
1
1
1.11924
1
1
1.11846
0.884654
1
1
1
0.891456
1
1
1
0.99963
1
1
1
1
1.09372
1
1.12015
1.11878
1.12041
1.11833
1.11827
1.11845
1
1.11937
1
1.11855
1.11851
1
0.999662
0.884184
1.10344
0.999977
1
1
1
1
1.00064
1
1.02011
1
1
1
0.95324
1.11849
1.11905
1.11857
1.10389
0.999961
1
1.00667
1.11858
0.999424
1.01685
0.999188
0.891864
1
1.00001
1
1
1
1
1
1.1184
0.895566
1.11838
1.11855
0.998751
0.892925
1
1
1
1.11819
0.89486
1.10513
0.88494
1.1185
1.11804
0.892933
1.11869
1.00684
1
1.11917
0.937413
1
0.99963
0.889089
1
0.888082
1
1.11841
1.11855
0.930958
1
1.11916
0.891977
1
0.889734
1
1.1184
1
1
1.11622
1
0.950224
1
0.999905
0.888292
1.1158
0.999847
1
0.892488
1
1
1
1
1.06964
1
1.11879
1
1
1.12262
1
1
1.11898
1
0.88518
1
0.896809
1
1
1
1
1
1.11356
1.07224
1.11842
1
1.11853
1.1107
0.884368
0.885218
1
1
1.11905
1
0.885496
1
0.996725
1
1
1.11889
1
1.11837
0.886508
1.12193
1
0.885824
1
1
1.11777
1.11803
1
1.00001
1
1.12108
1
1
0.88509
0.999843
0.88997
1
1
1
1.11902
1.1177
1.11967
1
1
0.877331
1
1.11854
1
1
1
1.11475
1.11851
1.11835
0.891587
1.11928
1.11861
0.891859
1.11972
1.00001
0.896219
1.00374
1
1
1.1189
0.892238
1.0781
0.892771
1.11855
0.999221
0.890811
1.1187
1
1
1
1
1.11855
1.11978
0.89271
1
1.00001
0.888314
1.00001
1
0.886976
0.889679
1.08532
1.11853
0.999557
1.11833
1
1.1191
0.945726
0.892067
1.11853
1.12193
1
1.11854
1
1
1.11873
1
1.09219
1.11991
1
1
1
1
1.11838
1.11717
1.11817
1
1
1.11818
1.12011
1.11917
1
1.11832
1
1
1
1
1
0.888073
0.9551
0.885769
1
1
1.11871
1
1
1.11922
0.888404
1
1.11856
1.11727
1.11438
0.880571
1
0.887638
1
1.00001
1.11969
1.06223
1.11954
1.10942
1
0.880485
1
1.11937
1.08753
0.899231
1
1
1
0.93398
1
1
1.12135
1
0.898732
1.11859
1
1
1
1
1
1.09694
1.02823
1
1.11852
1
1.11855
1
0.999319
1
1.11861
1.11919
1.11828
1.11963
0.999879
1.11953
1
1.1185
1.11913
1.10229
1
1
0.889207
1.12031
1
1
1.1197
1.11854
1.11831
1
1.11845
1
1
1.00001
1.11996
1.11849
1.03463
1.02806
1.11869
1.11872
0.908527
1
1
1
1
1
1.04403
1
1
1.10342
0.891601
0.999987
1
1.11852
0.999973
0.999947
1.01819
1.11242
1.12079
0.975505
1
0.888909
1
1.00059
1.1185
1.11949
1.12063
0.999718
1
1
0.889988
1
1
1.11863
1.01349
1
1
1
1
1
1
1
0.999983
1.11923
1
1
1
1
1
1.07933
1
1.05892
1
1
1.11845
1.11987
0.893943
0.999645
1
1
1
0.892083
1.11942
1.1185
1
1
1
1
1
1
1
1
1.11904
1.11785
0.889976
1.01434
0.893791
1
0.884799
1
1.11862
1.03793
1
1
0.918268
1
1.11441
0.941093
0.999158
0.888973
1
1
1.11943
1.00001
0.999241
0.88123
1.11961
1.1197
1
1
1
1
1.11148
1
1
1.11854
0.999709
1.11903
1.00003
1
1
0.892845
1
1
1.11828
0.885993
0.931454
0.896463
1.11878
0.999814
1
1.11879
0.892791
0.886999
1.00513
1
1
1.12022
1.00001
1.05992
1
1
1.11998
0.891613
1
1
1.00004
1.11899
1.00004
1.11532
1
1.00001
1
1
0.923753
1
0.937264
1
1
1.11871
0.891475
1
0.936152
0.94041
1
1
1.11855
1
1
1
1.11897
1.11855
1.00001
1.11845
1.12035
0.938034
1.11849
1.11256
1
1
1.11882
1
1
1
1
1
1.12109
1.11825
1
1
1
1.11827
1.00007
1
0.893216
0.920791
1
1.00001
1.04738
1
1
0.972999
0.901772
1
1
1
1.11974
1.10934
1.11878
1
1
1
1
0.887013
1
1.11458
1
1.11884
0.88567
1.11948
1
1
1
0.88259
1
1.11903
1.00001
1
0.897757
1.04762
1
0.99991
1.12172
0.889692
0.885987
1
1.11944
0.892855
0.892561
1
0.887554
1
1
1
1
0.889429
1
1
1
1
1.1195
1
1.09326
0.894956
1
1
1
0.888891
1.11835
1
1
0.999087
1.11933
1
1.11828
1.11945
1
1
0.916783
0.889471
1
1
0.894305
1.04067
1.05702
1
1
1.12052
0.999242
1
0.999395
1.12045
1
1
1
1
1
1
1.11844
1
1.04506
1.03961
0.901661
1.10687
1
1.11859
1.11875
1
1
1
0.97748
0.892881
1
1.06472
0.999903
1.10479
1
1
1
1
1
1.00189
1.0562
1.11885
1.11928
1
1.11868
1
0.896897
1
0.999218
0.999937
1
0.881026
1
0.890953
1.00001
1.11962
1.12
0.885449
1.11997
0.87962
0.998879
1.09139
0.887546
1.0866
1
1
0.999542
1
1
1
1.00002
1
0.887148
1
1
1
1
0.999875
1.11884
0.945111
1
1
1
1.01105
1
1
1
1.07252
0.919424
1
1
1
1.01587
1.12055
1
0.894692
1
1.11897
0.972129
0.892427
1
0.890754
1
1
1.11273
0.9995
1.11069
1
1.0025
1
1
1.11861
1
1
1
1
1.02525
1
1.11851
1.11899
1.12016
0.893379
1.11874
0.999158
1.0996
1
1
0.878794
1
1
0.893437
1.11922
1
1
0.999989
1
1
1
0.880739
0.891849
1
1.11944
1
1.06016
1.11849
0.886707
1.10182
1
1
0.889712
1
1
1.11853
1.11852
1.04789
1
1
1.00058
1.1195
0.895295
0.892169
1.11986
1.11845
1.08453
1.05057
1
0.96852
1
1
1
1.11092
1.11907
1.11884
1
1
1.11857
0.886745
1.10824
0.884758
1
0.891725
1
0.883765
1.11847
0.890633
1
0.994937
0.903375
1
1
1
0.955031
1.10883
1.11844
1.1192
1.119
1
1
1.12045
1
1
1.11834
1
0.885637
1
0.889539
1
1.12007
1
1
1.00572
1.09343
1
0.9997
0.889734
1.11842
1
0.892879
1.02485
1
1
1.09253
1.11853
1.11869
1
1.11896
1.0352
1
1.00728
1.11858
1
1
1
1
1.11849
1
0.889134
1.11864
0.892427
0.888026
0.954442
1.11885
1.04428
1.11852
1
1.11911
0.999314
1.00001
1.11864
1.11984
1
1.11886
1
1.11818
1
1.1196
1
1.00001
0.99999
1.11935
0.884464
0.89365
0.999356
1
1
1
0.892144
1
1.08037
1
0.883373
1
1.04992
1.11825
1.11957
1
1
1.00001
0.999858
1
1.11971
1.11862
1
1.05479
1.11882
0.95487
1.11838
1.00009
0.884632
1.02819
0.890082
1
1
1.02198
1.12028
1
1
1.01249
0.999585
1
0.889807
1
0.928902
1
1.1186
1
1
0.892525
1.0316
1.01754
0.999577
1.11829
1.11844
0.92859
0.999457
0.88328
0.884284
0.88393
1
1
1
0.999738
0.915531
0.896202
1
1.11856
0.999926
1.11839
1.11876
1.11987
1.11848
1
0.887282
1.11842
0.89586
1
1.11862
1.11996
0.999066
0.944436
1.11866
1.09022
1
0.887741
1
1
1.11895
1
1.00776
1.11832
1
0.886947
0.88898
1
1
0.892355
0.887726
1.11844
1.00001
1
0.884349
0.880637
1.11948
1.11448
1.11121
1.11987
1.03925
0.995335
1.05284
1.11863
1.09812
1
1.06354
1
0.88765
0.957039
1
0.889567
1.11829
1.00629
1.11893
1
1.11859
1.11972
1
1.11893
1.11844
0.890234
1.119
1
1.12212
1
0.921948
0.889036
1.119
1
1
1
0.88624
1.11852
1.11884
1
0.889676
1
1
0.88558
1.00001
0.881138
1.11952
1
0.94853
0.886046
1
1
1.06997
1
1
1
1.02271
0.887401
1
1
1
1.11947
0.893467
1
1.11877
0.896374
0.892403
1
1
1.11872
1
1.1182
1
1.11843
0.89424
1
1
0.889442
0.944984
0.888567
1
1
1
1
1.11797
0.880236
1
0.890194
1
1.11941
1
1
0.981797
1
1
0.947
0.999906
1.00002
1
0.893657
0.891765
1
1
1
1
0.939746
1.11798
1.11941
1
0.890999
0.891591
0.974249
0.891254
1
0.947381
1
0.892868
0.996225
1
1
0.893928
1
1.11817
1.11333
0.88681
1
1
1
1.1168
1
1.01228
0.951736
1.04061
0.890381
1.04978
0.884521
1
1
0.916788
0.97331
1
1.01246
1
1
0.887519
1
0.98219
1.01281
0.891193
1
1.09793
0.925413
0.964767
1
1
1
0.898323
1
0.885379
0.892429
1
0.955202
0.890491
1.02184
0.924316
0.891606
1.11864
1
1.11853
1.06753
0.915854
1.1184
0.887618
0.999728
1.11955
1
1
1.11863
1
0.91481
1
1.02137
1
1
1.11862
1
0.929044
0.945865
1.12038
0.980661
1
0.918795
1.11871
1.11918
0.97353
1
1.11849
1.03314
0.955342
1
1.00607
1
0.895449
1.05365
0.935978
0.925504
1
1
0.891083
1.11866
0.991553
0.890791
0.880017
0.961632
1
1.00474
1.1194
1.11862
1
1
1
0.887897
1.05908
0.999996
1.1188
1.11072
0.889532
1.00001
1.02874
0.965327
1.07457
1.10851
1
1.01222
1
1.00002
0.880814
0.954613
1
1
0.942664
0.88157
1.01309
1
1
0.899201
1.05743
1
1.1155
1
1.01075
1.06738
1
1.11565
1
1
1.119
1
0.888848
1.11994
0.914582
1.03463
1
0.890599
0.999975
1
1.00001
1
0.943364
1.00773
0.892783
1.09061
1.11968
0.880411
1
1
1
1
1
0.992438
0.883719
1.01526
0.892095
0.890951
1.02441
1
0.999948
1.03222
1
1
0.899938
0.999175
1
1
1.037
1
1.1193
1
1.11984
1.02688
1.00805
0.885835
1
1
0.894636
1
1
1
1
1.11855
1.01237
0.999461
1
0.888345
1.01476
1
1
1.07993
1
0.886975
1.118
1
1
1
1.11816
0.88612
0.961819
0.882412
1.09215
1.11915
1
1
1.11834
1
0.883271
1
1
1
1
1
0.932805
1
1.11874
1
1
1.04482
1.1192
0.892852
0.965637
1
1.11823
1
1
1
1
1
1.1184
1.11987
0.887454
1.1186
0.883283
1
1
1.11857
1
1.11976
1.00279
1.00754
1.01767
1.11872
1.01866
1.08247
0.883295
1
0.883975
0.997299
1
1.11867
1
1
0.884133
1.11864
1
1.11957
1
1
1
1
1
1
0.89594
1.11945
0.957691
1.11844
1
0.884173
0.894415
0.913847
1.11961
1.11865
0.990204
1
0.941304
1
1.04849
1
1.1185
0.890017
0.892508
0.956766
1
1.11852
1
1.02556
0.892357
1
1.12046
1.10623
0.999682
1
1.11871
0.888364
1.11821
1.11878
1.12001
0.895883
1.02749
1
1
0.889055
1
0.944178
0.949122
1
1.00001
1.11892
1
1.11855
1.02478
1
1.0131
1.12039
1
0.885688
1
0.933152
1
1
1.09974
1
0.940733
1
0.896495
1.01048
0.986339
0.88172
1.11875
1.0977
1.12
0.892565
0.904553
0.998847
1
1
0.898829
1.11253
0.88876
0.999991
1
1.11837
1.11923
0.969518
1
0.88788
0.917106
1.08104
0.993104
0.88591
1
0.893007
1.03316
0.893335
1
1.00002
0.944479
1.11971
1.11906
0.953846
0.999883
1
1
0.908052
1
0.89129
1
0.888469
0.887139
1
1
1.00001
0.894304
1.11866
1
1
1.00002
1.00001
0.894062
1.11903
1.11865
1
0.892791
1.12045
1
1.02854
1
1
1.11929
0.889324
1
1
0.895328
0.929427
0.892974
0.891338
1
0.907796
0.999172
1.02925
0.891563
1
1
1.03683
1
1.10573
1
1
1.08364
0.90805
1
0.887121
1.03629
1.11841
1
1
0.893614
0.885716
0.883932
0.916375
0.891118
1.09194
0.999824
1
1
1
1
1.11871
0.896683
1
0.982062
0.999903
0.999669
0.999984
0.929628
1.03653
1
1.11858
1.11857
1
1
1.11577
1.00001
1
1.11836
0.888334
1.11655
1
0.888695
1.11855
1.00001
1
0.950906
1
0.888036
1
1.11947
1
1
1.11964
1
1
1.11785
1
1
1
1.12036
1
0.929111
0.919257
1
0.882668
1.11896
1
1
0.99455
1
1.11873
1.07225
1.09724
1
1
0.902922
1
0.890586
1.11868
1.12003
1.11922
1
1.11944
0.884347
1
0.89162
1.09742
1.10894
1.1189
1.11829
0.923562
0.881964
1
1.0811
1.11931
1.11963
1.11845
0.923314
1.04702
1
1.09306
0.924973
1
1
1
1.00001
0.972944
1
1.11886
1
1
1
1
1
1
1.00002
1.11792
1
1.11906
1.09065
0.887917
1.1198
1.00663
1.0633
1
1.1185
1
0.886722
1
1
1
1
1.10371
1
0.889619
1.1182
0.884903
1.11835
1.09716
1.06496
1
1.02487
1.05814
0.998727
0.890647
0.925221
1.00001
1
0.976911
1
0.896141
1.11913
0.890263
0.978537
0.956901
1
1
1
1.00375
1
1
0.889342
0.999176
1.11949
1
1.11837
1
0.889043
1
1
1.11868
1.11892
0.887232
1
1.11942
1
0.941446
0.89634
1.11927
1.10834
1
1.02242
1.11868
0.999617
1
1.05387
1.10509
1.11787
0.998833
1
1
1.1036
1
1
1
1.11863
0.999572
1
1
1.11851
1
1
0.894948
1
1
1
1.11931
1
1
0.958824
1.03855
1.10901
0.936277
1
1.11836
1
1.04549
1
1.11877
0.999271
1.11855
1
0.888275
1
1.0865
1
1
1.11164
1
1.11861
1
1.1186
0.896184
0.890407
1.11941
1
1.10084
1
1.11962
1
1
1.00001
1.11884
1.11815
1.03334
1.1186
0.998751
0.890379
1.11873
0.96278
1
1.11735
1
1.11877
1
1.11912
1.11959
0.998915
0.890391
1
1.11844
1
1.00656
1
1
0.999431
0.920525
1.1075
1
1.10608
1
0.967011
0.883468
1.11897
1.11876
0.914514
1
1.11874
1.11921
1.11868
0.908743
1.11861
0.906896
1.11914
1.11632
1
1
1.11857
1
1
1
1
0.894165
1
1
1.11973
1.11841
1
1.1187
1
1.11985
1.12025
1
1.10074
1
0.884872
1.11854
1.09077
1.03545
0.88597
1.11844
1
1
0.883151
1
1
1.1185
1
1
0.935194
1
1.11853
1.00002
1.11847
0.887838
1.11952
1
1.11865
1.11418
0.97137
1
1.11857
0.931633
1.11932
1.08576
1.1187
1.11892
0.999208
1.11955
1.11852
1.11863
1.11873
1.00023
1
0.884899
1
1.11963
0.947969
1.10943
1
1.11659
1
1
1
1
1
1.11824
0.885108
0.901105
1.11897
1.11853
1
1
1
1
1
1.11773
1.11124
1.11862
1.00409
1
1
1
1.00001
1.11821
1.11849
1
1.11924
1.11956
0.890743
1.08626
1
1.1185
1.1197
1.11773
0.999418
1.1189
1.11886
1
1.10831
1
1
1
1
1
1
1.11866
1.11985
1.11069
1.11845
0.888984
0.909819
1.1186
1.11856
1
0.884388
0.983266
1
1.05909
0.888351
1
0.999841
0.999501
0.890866
1
1.11855
1
1
1
1.1195
0.987863
1
1.11868
1.11864
1
1.11897
1
1
1.11839
1
0.882687
1
1.11864
1
1
0.893319
1
1.11891
1
0.88472
0.881855
1
1.11467
1
0.886448
0.965147
1
1.11843
1
1
1
1.11971
1
0.891246
1.01831
1.11914
1.11884
1.1187
1.01395
1.11903
1.11859
1
1
1
1
1
1.11869
1
0.999797
1.11963
1
0.882459
1
1.11851
1.05782
1.02101
1.05802
1.01748
1.12086
0.912429
1.11864
1
0.893432
0.999174
1.11845
0.984249
1.11846
1.1185
1.1192
1
1.11914
1.11869
1.11864
1
1.00001
1
1
1.11936
1.08729
1
1
0.893197
0.998915
1
1.11892
1
1.11846
1.11863
1.11904
0.97831
1.11888
1.1186
1.00439
1.06075
1.11975
1.11862
1
1.11035
0.953036
1.1138
0.996351
1.11865
1
1.11844
1.11866
1
0.888735
0.983923
0.910366
1
1.02476
0.999099
1.11894
1
1
0.998997
1
1.06361
1.11351
1
1
1.119
1
1
1.08801
1.11867
1.11397
1.11921
1.11899
1
1.11876
0.911561
1.11866
1
1.00059
0.890293
1
1
0.913608
1
1.03981
1
1.11936
1
1.11673
1.07811
0.888348
1
1
1
1
1
1.11862
1.00321
1
1.11964
1
1.11848
1.11868
1
1
0.991083
0.999953
0.887613
0.88043
0.913566
1.02607
1
0.999553
0.895943
1.00001
1
1.11859
0.982548
1.11152
1.1043
1
1
1
1
1
1.11864
1.11865
1
1.11908
1
1.11973
1.08169
0.998667
1
1
1
1.07188
1
0.990874
1
1.11895
1
1
1.11849
1
1
1
1
1
1.11873
0.893998
0.998932
1.10755
1.11851
1
1.11842
1
1
1
1
0.905684
1
1.11853
1.11852
1.11838
1.11987
0.98727
1
1.10214
1.03202
1.11947
1.11903
1.02519
1.11985
1
1
1
1.11895
1