/*--------------------------------*- C++ -*----------------------------------*\
  =========                 |
  \\      /  F ield         | OpenFOAM: The Open Source CFD Toolbox
   \\    /   O peration     | Website:  https://openfoam.org
    \\  /    A nd           | Version:  12
     \\/     M anipulation  |
\*---------------------------------------------------------------------------*/
FoamFile
{
    format      ascii;
    class       volScalarField;
    location    "0.18";
    object      T;
}
// * * * * * * * * * * * * * * * * * * * * * * * * * * * * * * * * * * * * * //

dimensions      [0 0 0 1 0 0 0];

internalField   nonuniform List<scalar> 
22702
(
1
1
1
1
1
1
1.08718
1
1
0.879268
1.10385
1.08471
1
1
1
1
1
1
1.10402
1
1
1
1.082
0.931239
1
0.92457
1
1.09651
0.924498
0.929521
1
1.08792
1
1
1
1
1
1.0846
1
1
0.889915
1
1
1
1.09074
1
1
1
1
0.915553
1
0.928484
1
1.10386
1
1.09671
1
1
1
1
0.93931
1
1
0.930509
1
0.931203
1
1
1
0.897932
1
1.10513
1
1
1.11178
1.10914
0.93539
1.08628
0.877797
1
1.09858
0.889061
1.09896
1.08769
1
1
1
1
1
0.88994
1.09713
1
1
0.921425
1
1
0.925778
1
1
1
1
1
1.09845
0.921349
1
1
1
1
0.88751
1
1.09301
1.09881
1
1
0.971603
0.976163
0.884919
1
1
1
1
1
1
1
1
1
1.10435
1
1.1082
1.10263
1
1.09921
1
0.919583
1
0.945495
1
1
1
1
1.09942
1
1
1
1
1.10472
1
1.00795
1
1
1
1
0.886575
1
1.00303
1
0.878665
1
1
1
1.09729
1
1.08111
0.92759
0.930893
1.108
1.10124
1
1
1
1
1.10104
0.878229
1
1
1
1
1
1
1.09485
1
1.10642
0.929706
1.10086
1
0.931547
1
0.929149
0.924394
1
1
1
1.11982
1
1
1.10916
1
1.10432
1.10832
0.884299
1
1
0.86857
1.11139
1
1
1
1.1154
1
0.919874
1
1
1.11152
1.0049
1.10157
1
1
1
1
1
1
1
0.926936
1.1087
1.10921
1
1
1
1
0.860633
1
1.06112
1
1
0.922464
0.919571
1
1
1
1
0.94137
1
1
1
1
1
1.10609
1
1
1
1
1
1.09993
0.9376
1
1
1
0.923152
1
1
1
1
1
1
1
1
0.874074
1
0.922925
1.00035
1
1
1
1
1.09569
1
0.876136
1
0.864553
0.86273
1
0.931945
1
1
1
1
1
0.931228
0.928176
1
1
0.85814
1
1.10064
0.924077
1
1
1.09906
0.930457
1
1
0.931122
1.10413
1
0.868623
1
1
1
1
0.928955
1
1
1
1
1.03588
1
1
0.994731
1
1
1
1
1
1
1
1.09915
1
1.12072
1
1
1
0.932197
1
1.10479
0.924502
1
1
1
1
1.11904
1
1
1
1.08431
1
1
1.11811
1.11739
1
1
1
1
0.943777
1
1
1
0.925987
1
1
1
1
0.988853
1
1
1
1
1
0.91564
1
1.08707
1
1
1.1023
1.10655
1
1
0.885743
1
1.09766
1
1
1
1.10637
0.901066
1
1.08217
1
1
0.951725
0.958211
1
0.930802
0.923251
1
1
1
1
1
1
1
1.09124
1
1
0.92408
0.997412
1.10131
1
1.10988
1.09724
0.92711
1
1
0.925289
1
1.1234
1
1
1
1
1.11389
1
1
1
1
1
1
1
0.999994
1.09186
1
1.00086
1
1
0.879698
1
1
1
1
1.1084
1
1
1
0.931505
1.10694
1.10218
1
1.10887
1.10802
1.00126
1
1
1
1.10271
1
1.00501
1
0.926711
1
1.09547
1
1
1
1
0.876846
1
1
1
1
1.1066
1.09782
1
1.05946
1
1
1
1
1
1.10086
1
1.08286
1
1.04222
0.999998
1.02225
1.10504
1
1
1.00752
1.00593
1
1
1
1
1
1
1
1
1
1
1.09519
1
1
1
1.09729
1
1
1
1
1
1
1.0975
1
1
1
1
0.999999
1
1
1
1
1
1
1
1
1
1
1
1.09734
1
1
1
1.10896
1
1
1
1.11233
1.09417
1.10875
1.08461
1
1.10465
1
1
0.930855
1
1
1
1.11182
1
0.94204
0.934443
1
1
1
1
1
0.923192
1
1.00468
1.00052
1.09725
1
1
1
1
1
1
1
1
1
1
1
1
1
1
1
1
1
1
0.866063
1
1
1
1
1
1.09419
1
1
1
1
1.01673
1
1
0.925028
1
1
1
1
1
1
1.09774
1.10536
1
1
1
1.1031
1
1
1
1
0.923228
1.09695
1
1
1
1
1
1
1.10166
1
1
1
1
1
0.999999
1
1
1
1
1
1
1
0.925664
1
0.929217
1
1
1
1
0.926342
1
1
1
1
1.01945
1
1
0.984889
1
1
1
1
1
1
1
0.999999
1.03319
1
1
1
1
0.863014
1
1
1
1
1
1
1
1
1
0.918285
1
1
1
1.0962
1
1
1
1.00501
1
1
1
1
1
1
1.02726
1.04491
1
1
1
1
1.10854
1
1
1
1
1.08572
1.10359
1
1
1
1
1
1
1
1
1
0.929617
1
1
1.11952
0.922202
1
1.1191
1
0.866854
1
1
0.928292
1
1
1
1
1
1
1
1
1
1
1
1
1
1
1
0.999999
0.930627
1
1
1
1
1
1
1
1.04616
1
1
1.06455
1
1
1
1
1
1
1
1
0.925791
1
1
0.922767
0.925805
1
1
1.10316
1
1.00788
1
1
1
1
0.93279
1
0.935364
1
0.97551
1
1
1
1.1055
1
1
1.07919
1
1
1
1.03103
1
1
1.10686
1
1
0.927412
1
0.999994
1
1
1.09944
1.10319
0.999998
1
1
0.926692
1
1
1
1
0.931001
1
1
1
1.00334
1
1
1
1
0.999999
1
1
1.11925
0.894913
1
1
0.912278
0.917835
1
1
1
1
1
1
1
1
1
1
1
1
0.999994
1.08428
1.04393
1
1
0.927452
1
1
1
0.999994
1
1
1
1
1
1
0.925966
1
1.09985
1
1
1.10568
1
1
1.12163
1
0.922283
1
1
1
1
1
1
1
1.11898
1.10108
1
1.02095
1
1
1
0.923446
1.02712
0.93374
1
1
1
1
1
1.1003
1
1.10017
1
1
1
1
1
0.940197
1.08661
1
0.915839
0.94455
0.943193
1
0.999993
1.01455
1
1.08084
1
1
1
1
1.04962
1
1
1.07334
1.10557
1
1
1
1
1
1.10783
0.989002
1
0.976658
0.859806
0.885172
0.993422
1.08535
1
1.00139
1
1.05906
1
1
1.09916
1.11989
1
1.12175
1
1
0.935398
1.11498
1.11322
1.11856
1.06596
0.988843
0.994902
1.02826
1.10389
1.03977
1.09379
1
1
1
1.09186
1
0.925013
1.11789
1.10312
1
1
1
1
1.10704
0.917761
1.07618
1.08536
1.099
1.05753
1
1
1
1.10606
1
0.995078
1.01047
0.927499
1.10354
1
1
1
1
1.10721
1.0249
1
1
1.01237
0.925402
1.09013
0.861128
1
1
1
0.883418
1.00024
0.954708
1
1.06225
1.00045
1
1
1
1
1.00002
0.924137
1
1
1
0.985797
1
0.921933
1
1.08485
0.952039
1
0.864815
1
1.00031
1
1.09385
1
1
1
1
0.936043
1
1.09074
1
1
1
1
1
1
1.09197
1
0.999996
0.885415
1
1
1
1
1.10421
1
1.10822
1
1
1.09106
1
0.999995
1.02819
1
0.999999
1
1.09181
1
1.01257
1
1
1
1
1
1
1
1
0.933719
1
0.926228
1
1
1
1.09784
1
1
1
1
1
1.03486
1
1
1.09097
1.09025
0.929044
1.09017
1.10244
1
1
1
1
1
1.10043
1.09393
1
1.10636
1.09249
1.09431
1.00295
1
1
1
1
0.984673
1
1
1
1
0.937008
1
1
1
1.08632
1
1
1
1.11135
1.02705
1.00019
1
1
1
1
1
1
1
1.08863
1.08754
1
1.02179
1
1.10339
1.08743
1.10176
1
1.08585
1.09068
1
1.1031
1
1
1
1.09514
1.08191
1.10294
1
1.09852
1
1
1.09278
1.08086
0.918692
1.09799
1.08479
1
1
1
1
1
1
1
1
1
1.10696
1
1
1
1
1.07721
1.04016
1
1
0.999996
1
1
1
1
1.07118
1
1.08478
1.08582
1
1
1
1.08161
1
1
1
1
1.10873
1.08529
1
1
0.932552
1.10263
1.07624
0.99997
1
0.936509
1.09485
1.06782
1
1
0.929982
1.09117
1.1003
0.929497
0.921569
1
1
1.08787
1
1
1
1
1.11035
1
1
1
1
1.08952
1.00278
1.08143
1
1.10369
1.10277
1
1
0.923499
1
1.08913
1.1048
1
1
1
1.11967
1
1.08991
1.10296
0.970819
1
1
0.999983
1
1
1
1.08704
1.10264
1
1
1
1
0.999997
1
1.09146
1.08939
0.955603
1
1
1
1.0863
1.09073
1.09641
1
1
1
0.999998
1
1.09636
1.0978
1.0083
1
1.09727
1
1
0.998719
1.0918
1.01155
1
1
1
1.12248
1
1
1
1.10443
0.999999
1.11852
1
0.999305
1.09111
1.09574
1.00754
1
1.04179
1
1.09118
1.11052
1.11344
1
1.00005
1
1.0009
1.00433
0.999997
1.12053
1
1.01917
1
1
1
1
1
1
1.01981
1
1
0.999999
1
1.11824
1
1
1
1
1
1.09599
1
1
1
1.02015
1.09346
1.05329
1.00017
1
1.04865
1.00001
1
1
1.01372
1
1
1
1.12233
1
0.999995
1
1
1.05075
1
1.1057
1.10531
1
1
0.969173
1
1
1
0.928715
1
1
1.09109
1
1.10398
1
1
1
0.932789
1.02318
1.09132
1
1
1
1
1
1.00277
1
1
1.0898
0.999999
1
1
0.930182
1
1
1
1
1.06959
1
1
1.1205
1
1
1.00001
1
1
1.09004
1
1
1
1
0.930442
0.8967
1
1
1
1
1.00051
1
1.06457
1
1
1
1
1
1.10597
1
1
1
1.1067
1
1.12016
1
1
1
1
1
1.08658
1
0.930063
1
1
1.09969
1.08479
1
0.929981
1
1
1
1
1
1
0.999854
1.09869
1
1
1
1
1.08956
1
1.09304
1
0.999251
1.07786
1
1
1
1
1
1
1
1
1
1
1
1
1
1
1
1.06365
1
1
0.999915
1
1.09301
1
1.10206
1
1.09159
1
1
1
1
1
1
1
1
1
1.02258
1.00176
1
1
1
1
1
1
1
1
1
1
1
1
1
1
1
1
0.945894
0.999538
1
1.10138
1
1
1
1
1.00141
0.926972
1
0.999864
1
1
0.999538
1
1
1
1
1
1.11838
1
1.11919
0.921205
1.00009
1
1.09259
1.03177
1
1
0.999993
1
0.942242
0.923299
1
1.0895
1.10741
1
1
1
1
1
0.999957
1
1
0.930536
1
1
1.09581
1
1
1
1.1036
1
1
1
1
1.10574
1
1
1.09179
1
1
1.06147
0.900106
1.10291
1
1
1
1.1062
1
1
1
1.10252
1
1
0.936436
1
1
1
1
1
1
1
1
1
0.929754
1
1
1
1
1
1
1.11799
1.11875
1
1
1.09015
1
1
1.09034
1
1
1
1
1.0998
1
1
1
1.10256
1
1
1
1.10406
1
1
1
1.09284
1.12017
1.11371
1
1
1
0.957347
1.10306
1.10209
1
1.1204
1
1.08757
1
1
1.10613
1
1
1.10226
1
0.929809
1
1
1
1
1
1
1
1
1
1.10158
0.951463
1
1
1
1
1.08861
1
1.10523
1
1
1
1.10408
1
1.00001
1
1
1
1
1
1
1
1
1
1.09254
0.915781
1
1
1
1.11864
1
1
1.12161
1
1
1
1
1.06976
1.09975
1.10637
1
1.10582
1
1
1.10869
1
1
1
1
1
1
1.09819
1.09935
0.999998
1
1
1.11668
1
0.999997
1
1.08815
1
1
1
1
1
1
1.08681
1.07568
1
1.10348
1
1
1
0.95725
1
1.10777
1
1
1.09519
1
1
1
1
1.10829
1
1
1.00672
0.91266
1
1
1.1013
1.10076
1
1.10773
1.09753
1
1.00009
1
1
1
1
1
1.1008
1
1
1
1.09111
1
1
1
1
1
1
0.935808
1.08686
1
1
1
1
1.11062
1.10553
1
1.10323
0.912927
1.0897
1
1
1
0.917356
1
1
1
1.08846
1
1
1
1.10207
1
1
1
1
1
1
1.09643
1
1
1
1
1
1.11647
1
1
1.10424
1
1
1
1
1
1
1
1
1.01312
1
1
1
1
1.06078
1.09764
1
1
1
1
1
1
0.924479
0.93162
1.00532
1
0.999991
1
1
1
1.00351
1
1.07181
1
1
1
1
1
1
1
1
1.08433
1
1.08649
1.10725
1
1
1.09875
1
1
1
1
0.937893
1
1.10543
1
1
1
1
1
1.09053
1
1
1
0.937109
1
1
1.08854
1.12202
1
1
1
1
1
1.11943
1
1
1
1
1
1
1
1
1
1.10452
1
1
0.930137
1.08707
1
0.999999
1
1
1
1
1
1
1.00246
0.933313
1.01179
1.107
1
1
1
1
1
1.10831
0.919844
1
1
1.00043
1.07672
1
1
1
1
1
0.925901
1
1
1
1.08964
1
1
1
1
1
1
1
1
1
1.11149
0.913386
1
1
1
1
1
1
1
1
1
1
1
1
1
1
1
0.92668
1
1.09568
1
1
1
1
1
1
1
1.1177
1
0.989226
1
1
1
1
0.926148
1
1
1
1
1
0.920641
1
1
1
1
1
0.92092
1
1.1198
1
1
1
1
1
1
1
1
1.09328
1
1
1
1
1
1
1
1
1
1
1
1.03873
1
1.04125
1.10154
1
1
1
0.926962
1
1
1
1
1
1
1
1
1
1
1
1
1.09852
1
1
1
1
1
1
1.08559
0.984883
1
1
0.99911
1
1
1
1
1
1
1.04451
1
1
1
1
1
0.897255
1
1
1
1.0797
1
1
1.11682
1
1
1
1
1
1
1
1.09872
1
1
1
1
0.998859
1
1
1
1
1
1
1
1
1
0.933433
1
0.94725
1
1
1
1
1
1.11605
1.00331
1
1
0.975311
1
1.09746
1.00001
1
1
0.917852
1
1
1
1
1.02847
1
1
1
1
1
1
1
1
0.91108
1
1
1
1
1
1
1
1.10281
1
1.08027
1
1
1
1
0.999977
1
1
1
0.919398
0.999854
1
0.878765
0.927146
1
1
0.999998
1
1
1
0.913183
1.08344
1
1
1
0.909535
1.09264
1
0.895495
1
1.00036
1
1
1
1
1
1
1.09011
1
1
1
1
1
1.09821
1
1
1
1
1.09677
0.999999
1.10978
1
0.910578
1.00007
1
1
1
1
0.920347
1
0.926224
1
0.999965
1
0.999388
1
1
1
1
1
1.07833
1
1
1
1
1
1.10431
1
0.927126
1
1
1
1
1
1.08933
1
1.10432
1
1
1
1
1
1
1
1
1
1
1.09618
1.08548
1
0.869262
1
1
1
1
1.09729
1
1
1
1.08935
1
1.01698
1.08912
1.04853
1.09774
1
1
0.892021
1
0.999995
0.999984
1
1.08962
1
1
1.00115
1
0.959114
1.02011
1
0.999999
1.05357
1.09465
1
1
1
0.968382
1
1.08817
1.08718
1
1.07722
1
1
1
1
1
1.08832
1
1
1
1
1
1
1
0.999993
1
1.09792
1
1
1
1
1
1
1
1
1
1
0.965513
1
1.09587
0.917628
1
0.999998
1
1
1.08731
1
1
1
1
1
1.09518
0.956844
1
1
1.0353
0.999999
1
0.999999
1.09657
1.11408
1
1
1.10396
1
1
1.08173
1
1
1.09772
1
1.08852
1
1
1
1
1
1
0.963562
1
1.09063
0.999994
1
1
1
1.09092
1
1
1
1
0.999988
1
1.00001
1
1
1
1
1.08339
1
1.08517
1.08142
0.999995
1
1
1.0009
1
1
1.09945
1
1
1
1
1
1
1
1
1.01755
1.06638
1
1
0.907211
1
1
0.966768
1.09697
1
0.999995
1
1.09571
1
0.882538
1
1.00001
1.09753
1.0876
1
1
1.0057
1
0.999994
1
1
0.949422
1
1
0.999153
1
1
1
0.887935
1
1
1
1
1
1.08441
1
1.09258
1
0.889228
1
1
1.08863
1
1
1
1
1
1.09235
1
1
1
1
0.913684
1
1
1
1.0975
1
0.999999
1.02164
1
1
1
1
1
1
1
1
1
1
0.906665
1
1
1
1
1.11128
1
1
0.88437
0.855122
1
1
0.999999
0.914847
0.865689
1
1
1
1.00189
0.930198
1.0003
1
1
0.999999
1
1
1
1
1
1
1
1
1.11469
1.07378
1
1.02994
1
1.10409
1
1
1
1
1
1.11519
1
1
1
0.999182
1
1
1
1
1
1
1
1.00912
1.08878
1
1
0.919802
0.999996
0.919697
0.929612
1
1.09014
1.09136
1.09575
1
1.0846
1
0.86541
1
1
1
1.0014
1
1
1.08579
1
1.04324
1.09009
1
1
1
1
1
1.09807
0.928899
1
1
1.03741
1
1
1
1
1
1.08866
1
1
1
1
1
1
1
1
1.08967
1
0.923461
1
1
1
1
1
0.999708
1
1
1
1
1.0112
1
1.08769
0.887436
1
0.999894
1
1
1.00001
1
1
0.999993
1
1
1
0.961046
0.892758
1
1.09787
1
1
1
1
1
1
1
1.00645
0.906041
1
0.999512
1
1
1
1
1
1
1.09261
1
1
1
1
1
1
1.01984
0.922957
1
1
1
1
1
1
1
1
1
1
1
1.08495
1
1
1
1
1
0.945108
1.0921
1
1
1
1
1
1.09722
1
1
1
1
1
1
1.09616
1.12149
1.0466
0.915636
1
1.00199
1.11492
1
1
1
1
1
0.912154
1.00058
0.889235
1
0.930086
0.859992
1
0.923712
1
1
1
1
1
1.09338
1
1
1.05583
1
0.891448
0.996241
0.999998
1
1
1.0929
1
1
1
0.960587
1
1
1
0.999994
1
1
1
1
1
1
1
1.08969
1
0.905474
1
0.999998
0.927883
1
1
1
1
1
0.999663
1
1
1
1.10409
1
1.10576
1
1
1
1
1.05579
1
1
0.922988
1
1
1
1
1
1
1
0.922599
1
1
0.943162
1.00031
1
1.0918
0.926946
1
0.935045
1.09506
1
1
1
1
1
1
1
1
1
1
1
1
1
1
1.09536
0.924958
1
1
1
1
1
1
1
1
1
0.856685
1
1
1.0921
1
1
1.04744
1
0.926332
0.925602
0.973119
0.922171
1
1
0.933857
1.00015
1.10947
0.999146
1
1
1.09558
1
1
1
0.997993
1
1.04623
1
1
1
1
1
0.931235
1
1
1
1
1
1
1
1
0.935986
1
1
0.923895
1
1
1
0.998749
0.860685
1
1
1
1
0.89815
1
0.93094
1
1
1
0.925392
0.925899
1
0.997265
1
1
1
1
1
1
1
1.09422
1
1
1
1
1
1
1
1
1
1
1
1.00543
1
0.999606
0.973767
1
1
1
1
1
1
1
1
1
1
1
1
1
1
1
0.920425
1
0.999582
1.11559
1
1
1.00412
1.09308
1
1
1
0.906917
1.11394
1
1.09417
1
1
1
0.922364
1
0.924061
1
1
1
0.923382
0.900974
1
1
1
1
1
0.860014
1
1
1
1.00166
1
0.925871
0.999999
1
1
1
1
1
1
1
1
1
1
1
1
1
0.881979
1
1.08797
1
1
0.999997
1
1
1
1
0.999993
1
1
0.924989
1
1
1
1
1
1
1
1
1
1
1
1.08947
1
1
1
1
1
1
1
1.0006
1
1
1
1
1
1
1
1
1
1
1
1
1
1
1
1
1
1.09835
1
1
1.09862
0.861701
1
1
1
1
1
1
1
1
1
1
1.10359
1
1
1
1.08841
1
1
0.999914
1
1
1
1
1
0.91249
1.00004
1
0.998893
1
1
0.954754
1.10281
1
0.881158
1
1
1
0.925977
1
1
1.09021
1.10216
1
1
1
1
1.05928
0.885502
1
1
1
1
1.0964
0.920837
0.999273
1
1.09166
0.940526
1
1
0.868918
0.999731
1
1
1
1
1
1
1
1
1
1.00003
1
1
1
1
1
1
1
1
1
0.919828
1
1
1
1.00441
1
1
1
1
1
0.937737
1
0.939189
1
1
1.00002
0.952916
0.96098
1
1.00137
1
1
1
0.921683
1
1
1
1
0.923039
0.877042
1
1
1
1
1
1
1
1
1
0.877221
1.09463
1
1
0.927004
1.01999
1
1
1
1
0.863062
1
0.966661
1
1
1
1
1
0.896847
1
1.09324
1
0.894719
1
0.869571
1
1.00226
1
1.10677
1
1
1.10487
1
1
1
0.999145
1
0.999483
1
1.10079
1
0.902371
1
1.12177
0.999751
1
1
1.00263
1
1
0.925768
1
1
1
1
1
1
1
1
1.00409
1
1
1
1
1
0.923368
1
1
1
1
0.858456
1.09854
1
0.924991
1
1
1
1
1
1.10384
1
0.867441
1
1
1
1
1
1
1
1
1
1
1
1
1.1062
1
1
1
0.934918
1
1
1
0.866431
1
1
1
1
1
1
1
1
1
1
1.11701
1.09413
1.10384
1.092
1.09225
1
1
1
1
1.10193
1
1
1
0.935471
0.999999
0.999971
1
1
1
1
1
1
1.02051
1
1
1
0.948664
0.999998
1
1
1.10964
1
1
1
1.09095
1
1
0.999206
0.936177
1
1
1
1
1
1
1
1
0.917727
1
1
0.99844
0.926897
1
1
1
1
0.934565
1
0.875607
1.09932
1
0.870697
1
1.0068
1
1.09739
0.942234
1
1
0.933576
1
0.936306
1
1
1
0.937217
1
1.09192
0.93822
1
0.865046
1
1.09578
1
1
1
1
0.955563
1
0.999908
0.937604
1
0.999849
1
0.93868
1
1
1
1
1.06865
1
1
1
1
1.12196
1
1
1.08966
1
0.929936
1
0.92322
1
1
1
1
1
1
1.03318
1
1
1
1
0.867287
0.933528
1
1
1
1
0.928366
1
1.03292
1
1
1.0973
1
1
0.925218
1.12232
1
0.921047
1
1
1
1
1
1
1
1
1
1
0.947081
0.99983
0.941527
1
1
1
1
1.02814
1.09456
1
1
0.892793
1
1
1
1
1
1
1
1.09201
0.911954
1.10414
1
0.927028
1.09627
1
0.930038
1.00626
1
1
1
0.911633
1
0.916079
1
0.999275
0.923673
1.11365
1
1
1
1
1
1.10401
0.868217
1
1
0.867698
1.00001
1
0.957467
0.89567
1
1
1
1.09281
1
1
0.942174
0.910781
1
1.12125
1
1
1
1
1.09682
1
1
1.09568
1
1
1
1
1
1
1
1
1
1
1.09844
1.08717
1
1
1
1
1
1
1
0.927197
0.957477
0.925303
1
1
1.09205
1
1
1.10152
0.88362
1
1.09731
1
1.09638
0.938511
1
0.883651
1
1
1.09781
1
1.10355
1
1
0.881861
1
1
1
0.919344
1
1
1
1
1
1
1.12042
1
0.919507
1
1
1
1
1
1
1
1.01384
1
1.09394
1
1
1
0.999689
1
1.09296
1
1
1.09921
1
1.10227
1
1.10724
1
1
1
1
0.920268
1.08509
1
1
1.05192
1
1
1
1.08972
1
1
1
1
1
1.03767
1.02556
1
1
0.964829
1
1
1
1
1.00001
1
1
1
1.09924
0.940994
0.999989
1
1.09796
1
1
1
1.10747
1.09045
1
1
0.940832
1
1
0.999995
1.10199
1
1
1
1
0.921585
1
1
0.999994
1.01472
1
1
1
1
1
1
1
0.999982
1.10457
1
1
1
1
1
1.07761
1
1
1
1
1
1.10222
0.925789
0.999654
1
1
1
0.867976
1.10178
1
1
1
1
1
1
1
1
1
1.08732
1.08102
0.918657
1.00108
0.885206
1
0.877812
1
1.08831
1.02606
1
1
0.999996
1
1.10072
1
0.999011
0.920646
1
1
1.11934
1
0.999209
0.87563
1.10997
1.12094
1
1
1
1
1
1
1
1
1
1.09177
1.00001
1
1
0.933656
1
1
1.09401
0.882729
1
0.927687
1.09072
1
1
1
0.925806
0.926037
1.00176
1
1
1.09812
1
1
1
1
1.09787
0.870623
1
1
1.00004
1.09216
1.00004
1.01767
1
1
1
1
1
1
0.931435
1
1
1
0.932907
1
0.998463
0.940026
1
1
1.09321
1
1
1
1.08491
1
1
1.11527
1.09854
0.993919
1
1
1
1
1.01041
1
1
1
1
1
1.11956
1
1
1
1
1.09376
1.00006
1
0.92365
1
1
1
1.0014
1
1
0.983344
0.918532
1
1
1
1.10255
1
1
1
1
1
1
0.940163
1
1.11971
1
1
0.934899
1.08716
1
1
1
0.884964
1
1.09162
1
1
0.919351
1
1
0.999901
1.11822
0.845753
0.924648
1
1.11
0.928542
0.923139
1
0.93111
1
1
1
1
0.889156
1
1
1
1
1.11951
1
1
0.940583
1
1
1
0.931714
1.10416
1
1
0.999256
1
1
1
1.09596
1
1
0.911111
0.925622
1
1
0.92613
1
0.999985
1
1
1.11881
0.999237
1
0.999259
1.1196
1
1
1
1
1
1
1.09662
1
1.04366
1
0.936827
1.09033
1
1
1.10478
1
1
1
1
0.951688
1
1.06501
1
1
1
1
1
1
1
1.00299
1
1
1
1
1
1
0.889286
1
1
1
1
0.937164
1
0.927907
1
1.09436
1.09916
0.936919
1.10364
0.893497
0.999807
1
0.931321
1.00165
1
1
0.999546
1
1
1
1
1
0.925512
1
1
1
1
1
1.10257
0.99598
1
1
1
1.0044
1
1
1
1.03818
1
1
1
1
1.00967
1.08443
1
0.914707
1
1
0.973465
0.924921
1
0.849291
1
1
1
0.999535
1.00482
1
0.999843
1
1
1.08921
1
1
1
1
1
1
1
1
1.09165
0.934884
1
0.999169
1.09253
1
1
0.938504
1
1
0.925864
1.04918
1
1
1
1
1
1
0.872264
0.930528
1
1.10003
1
1.05365
1.11495
0.923974
1.10079
1
1
0.963204
1
1
1
1
1
1
1
1.00036
1.09299
0.934314
0.927102
1.1143
1
1.00598
1.05288
1
1
1
1
1
1.11145
1.11685
1.09669
1
1
1.10318
0.928783
1.01011
0.855092
1
0.929812
1
0.933352
1.0003
0.859948
1
0.992989
0.936539
1
1
1
0.999705
1
1.11349
1.09219
1.09072
1
1
1.09613
1
1
1.09834
1
0.881036
1
0.926358
1
1.09165
1
1
1.00413
1.09663
1
0.999694
0.929677
1
1
0.925151
1.026
1
1
0.999976
1.08751
1.0951
1
1
1
1
1
1
1
1
1
1
1.10511
1
0.953342
1.09131
0.921489
0.928083
0.958237
1
1
1
1
1.09896
0.999781
1.00001
1.10493
1.10803
1
1.08944
1
1
1
1.09391
1
1.00001
1
1.07436
0.866201
0.931657
0.999402
1
1
1
0.928469
1
1
1
0.874786
1
1.03624
1
1.11521
1
1
1
0.999846
1
1.09662
1
1
1
1.09335
0.963733
1
1.00036
0.937444
1
0.886643
1
1
1.02356
1.104
1
1
1.00011
1
1
0.911438
1
1
1
1
1
1
0.910615
1
1.00038
1
1.06609
1
0.95963
0.999484
0.936957
0.879515
0.932217
1
1
1
0.999859
0.973311
0.932684
1
1
0.999921
1
1
1.10081
1
1
0.931686
1.09693
0.935023
1
1
1
0.999084
0.941684
1
1.08656
1
0.939006
1
1
1.12003
1
1
1.09489
1
0.928482
0.921503
1
1
0.936099
0.937017
1.11372
1.00001
1
0.938575
0.941732
1.10557
0.999999
1.1141
1.11866
1.04588
1
1
1.12087
1
1
1.05282
1
0.932932
0.999763
1
0.92343
1
1.00668
1
1
1.10197
1.09778
1
1.09267
1
0.922805
1.10769
1
1.11972
1
0.930632
0.922246
1.08813
1
1
1
0.920283
1.09726
1
1
0.925777
1
1
0.919288
1
0.891383
1.10371
1
1.00037
0.934384
1
1
1
1
1
1
1.01926
0.922766
1
1
1
1.08873
0.920686
1
1.09763
0.90814
0.892957
1
1
1.12064
1
1
1
0.999999
0.883709
1
1
0.925376
0.945648
0.923266
1
1
1
1
1
0.937892
1
0.91997
1
1
1
1
1
1
1
0.996563
0.999891
1.00001
1
0.920973
0.92695
1
1
1
1
0.981171
1
1.09672
1
0.934877
0.93038
0.998381
0.930824
1
1.00724
1
0.933399
1
1
1
0.860719
1
1
1.09211
0.921188
1
1
1
1.1175
1
1
1.0122
1.04193
0.926558
1.00018
0.939953
1
1
0.98093
1.02661
1
0.999991
1
1
0.886475
1
1.02757
0.999976
0.920622
1
1.06958
0.993355
1.0195
1
1
1
0.926657
1
0.920827
0.925407
1
1.0168
0.925484
0.999988
0.977831
0.938082
1.10439
1
1
1.04188
0.897264
1
0.925854
0.999714
1.11207
1
1
1
1
0.943334
1
0.99999
1
1
1.01564
1
0.987427
0.971188
1.09861
1.03257
1
0.980971
1.1028
1.10279
1.02775
1
1.09955
1.01967
0.992774
1
1
1
0.925479
1
0.985462
0.988282
1
1
0.927884
1
1.01928
0.863796
0.913069
0.997566
1
1.01895
1.10838
1.09857
1
1
1
0.92532
1
1
1
1.10846
0.936646
0.999985
0.999997
1.01181
1.03114
1.05631
1
1
1
1
0.942173
0.979462
1
1
0.970351
0.946034
1
1
1
0.917366
1
1
1.1091
1
1.00427
1.0678
1
1.07468
1
1
1.09829
1
0.880712
1.09812
0.999999
1
1
0.9329
0.999968
1
1
1
0.962049
1.00683
0.862321
1
1.09721
0.858561
1
1
1
1
1
1.01127
0.882341
1.02507
0.862583
0.926171
1.00284
1
0.999944
1.00859
1
1
0.950015
1.00253
1
1
1
1
1.10336
1
1.09808
0.999994
0.999945
0.924668
1
1
0.911911
1
1
1
1
1
1.00246
1
1
0.872156
1
1
1
1
1
0.928407
1
1
1
1
1.09499
0.927202
0.969579
0.948776
1
1.08634
1
1
1.10663
1
0.9414
1
1
1
1
1
0.925254
1
1.09532
1
1
1
1.10312
0.885829
1
1
1
1
1
1
1
1
1.0966
1.09859
0.9339
1
0.857814
1
1
1
1
1.11178
1
1.00783
1.00002
1
1
1.09778
0.854232
1
0.847874
1
1
1.10467
1
1
0.878475
1.10494
1
1.09947
1
1
1
1
1
1
0.918457
1.09737
0.994587
1.00256
1
0.933601
0.883629
0.914685
1.07855
1
1
1
0.999223
1
1.03594
1
1.11548
0.882286
0.923673
0.945208
1
1.09045
1
1.00884
0.935103
1
1.09583
1.10854
0.999963
1
1.08977
0.922566
1.08385
1
1
0.923209
1.00009
1
1
0.844864
1
0.990669
1.01117
1
1
1
1
1
1
1
1
1.12054
1
0.9275
1
0.959036
1
1
1
1
0.988654
1
0.874515
0.999827
1
0.937923
1
1
1.09435
0.860616
0.936967
0.998688
1
1
0.898097
1
0.924773
1
1
1
1.09603
0.999998
1
0.925051
0.969302
1
0.993402
0.865975
1
0.919632
0.999995
0.903258
1
1.00002
0.986423
1.11938
1.09241
1.0063
0.999991
1
1
0.97472
1
0.866799
1
0.932029
0.921576
1
1
1
0.878041
1
1
1
1
1
0.938549
1.0876
0.999998
1
0.863524
1.09446
1
1
1
1
1.08859
0.867577
1
1
0.923286
1
0.870613
0.930586
1
0.969241
0.999895
1.04763
0.887155
1
1
1
1
1.10313
1
1
1.0851
0.960391
1
0.928477
1
1.09241
1
1
0.919051
0.899789
0.856072
0.986469
0.921084
1
0.999826
1
1
1
1
1.09212
0.908071
1
1
1
0.999811
1
0.993785
1
1
1
1.09096
1
1
1.10122
1
1
1.10806
0.926653
1
1
0.879933
1.08967
1.00002
1
0.994396
1
0.855486
1
1.09339
1
1
1.09564
1
1
1.10083
1
1
1
1.09322
1
0.979713
0.982055
1
0.858168
1
1
1
0.975463
1
1.10295
1
1
1
1
0.921871
1
0.930741
1
1.09175
1.09182
1
1.09699
0.922214
1
0.927464
1.05074
1.01428
1.08784
1.09202
0.981685
0.862509
1
1
1.09657
1.09174
1
0.986855
1
1
1.08594
1
1
1
1
1
1
1
1.03078
1
1
1
1
1
1
1.00002
1.10875
1
1.1092
1.07148
0.920592
1.10402
1.01214
1.05165
1
1
1
0.857804
1
1
1
1
1.01018
1
0.845926
1
0.840357
1.09589
1.03972
1
1
1
1
1
0.934935
0.985052
1
1
1
1
0.950732
1.09668
0.935389
1
1.01581
1
1
1
1.00233
1
1
0.933711
0.998795
1.09354
1
1
1
0.880909
1
1
1
1
0.859746
1
1.09484
1
1.00749
0.944386
1.0924
1.00008
1
1
1.08887
1
1
1
0.999994
1
1
1
0.999999
1.00186
1
1
1
1
1
1
1
1.08939
1
1
0.860266
1
1
1
1.09266
1
1
1
1
1.09559
0.992654
1
1.0915
1
1.00019
1
1.09656
1
1.02175
1
0.925914
1
1.00444
1
1
0.999995
1
1.08784
1
1.10018
0.897875
0.869975
1.09293
1
1.04728
1
1.09335
1
1
1
1.07415
1
1
1.08753
1
0.897262
1.09167
0.996499
1
1
1
1.09448
1
1
1.09311
1
0.858155
1
1.01021
1
1.02763
1
1
1
0.926299
0.999997
1
1.11276
1
1
0.860148
1
1.1036
1.00001
1
1.09752
1.10111
1.09886
0.930038
1.10169
0.999121
1.09316
1.01964
1
1
1.11085
1
1
1
1
0.918766
1
1
1.09372
1.00216
1
1
1
1.10187
1.09412
1
1.08578
1
0.864681
1
1.00005
1.04605
0.842968
1
1
1
0.856571
1
1
1.09591
1
1
0.997752
1
1.09008
1.00002
1
0.84529
1.09268
1
1.08568
0.999998
1
1
1
0.929041
1.00069
1.08076
1.10832
1.0981
1
1.091
1.09066
1.06727
1.09671
1
1
0.882214
1
1.09281
0.992127
1.10812
1
1
1
1
1
1
1
1
0.838694
0.993556
1.09086
1.10968
1
1
1
1
1
1
1.00263
1.00091
0.995956
1
1
1
1
1
1.05705
1
1.0986
1.11449
0.925488
1
1
1
1.10314
1
0.999873
1
1.09344
1
1
1
1
1
1
1
1
1.08925
1.09787
0.999996
1
0.841259
0.905915
1
1.00766
1
0.933599
1
1
0.999995
0.914505
1
1
0.999504
0.927568
1
1.08953
1
1
1
1.09392
0.980888
1
1.09164
1.10853
1
1.09129
1
1
1
1
0.935835
1
1.03912
1
1
0.934063
1
1
1
0.864414
0.936771
1
1
1
0.854206
0.97302
1
1.04885
1
1
1
1.10219
1
0.926146
0.999984
1.09048
1
1.0803
1
1
1.11202
1
1
1
1
1
1
1
0.999806
1
1
0.884488
1
1
1
1.01684
1
1
0.999994
0.934557
1
1
0.864991
1
1
0.987541
1
1.09805
1.06335
1
1.09021
1
1
1
1
1
1
1.09152
1
1
1
0.920738
1
1
1.09138
1
1
1.0872
1.0573
0.972645
1.09676
1.10305
1
1
1.09122
1.09026
1
1
1
1.07472
1
1.094
1
1
1.08997
1
0.927395
0.979705
1
1
1
1
1.08734
1
1
0.999668
1
1.0638
1
1
1
1
1
1
1.08419
1
0.999999
1.09291
1.088
1
1.01033
0.982803
1.09764
1
1.00022
0.926997
1
1
0.997504
1
1
1
1.07711
1
1
1
0.928454
1
1
1
1
1
1.08852
0.999854
1
1.10211
1
1.09735
1
1
1
1
1
0.939673
0.863742
1
1
1
1
0.943334
1
1
1.09353
1
1
1
1
1
1
1
1
1.08857
1.0941
1
1.09494
1
1.09185
1
0.999453
1
1
1
1
1
1
1
1
1
1
1
1
1
1
1
1
1
0.890415
1
1
1
1
1
1
1
1
1
0.948613
1
1.0961
1
1.09288
1.09204
1
1
1
1
1.10618
1.09735
1.02678
1.08583
1
1
1
1
1
1.02243
1
1
1
0.934611
1
1.04123
1
1
1
1
1.10287
1.09717
1
1.09849
1
1
1
1
1
1.09152
1.01763
1
1
1
1
1.00004
1
1
1
1
0.967736
1
1
1
1
1
1
1
1
1
1
1
1
1
1
1
1.09428
0.97987
1
0.925546
1
1
1
1
1
1
1
1
1.09213
1
1
1
1
1.08187
1
1
1.11118
0.918991
1
1
1.00034
1
1
1
1
1
1
1
1
1
1
1
1
1
1
0.923387
1
1
0.999994
1.00167
1.01678
1
1.09359
0.999999
1.0833
1
1.10951
1.0602
0.999994
1
1
1
1
1
1
1.09707
1
0.999999
1
1.09172
1.11248
1.09589
1.08557
1
1
1
1
1.01492
1.02215
1
1
1
0.999122
1
1
0.999723
1
1.10393
1
1.10375
1.09461
1
1.05888
1
1
1
0.943869
1
1
1
1
1.10852
1
1
1
1.09831
1.08505
1.08632
1.03601
1
1
1
1.09251
1
1
1
1.10054
1.09728
1
1
1
1.09163
1
1
1
1
1
1
1
1
1.09548
1
1
1
1
1
0.999997
1
1
1
1
1
1
1
0.945435
1
1
1
1
1
1
1
1.10541
1
1
1
1.09025
0.915022
0.867064
1
1
1
1.10362
1.09003
1
1
1
1
1
1
1
1
1
1
1
0.93575
1.09159
1
1.0989
1
1
1
1
1
1
1
1
1
1
1.09254
1
1
0.999999
1
1
1
1
1
1
1
1
1
1
1
1
1
0.905886
1.11081
1
1
1
1
1.11177
1.00001
1
1
1
1
1
1.01415
1
1
1
1.09294
0.924731
1
0.922017
1
0.884915
1.09296
1
1
1
1
1
1
1
1
1
1
0.953695
1
1
1
1
1
1
1
1
1
1
1.09263
1
1
1
1
1
1
1
1
1.0871
0.916527
1
1
1
1.10969
1
1
1
1
1
1.09286
1
1
1
1
1
1
1
1
1
1
1.10725
0.998735
1
0.999998
0.999641
1
1
1
0.920574
1
1
1
1.1101
1
1
0.90459
0.986856
0.865527
1
1
1
1.1126
1
1.0431
1
1
1
1
0.865122
1
1
1
1.086
1
0.923248
1
1
1
1.11696
1
0.99985
1
1
1
1
1
1.10001
0.94791
1
1.09211
1
1
1.10752
1
1
1
1
1
1
1
1
1.03368
1
1
0.954932
1
1
0.999634
1
1
1
0.908546
1.01377
1
1
1
1
0.999999
0.999911
1
1
1
1
1.09557
1
1
1
1
1
0.999999
1
1
0.862241
1
1
1
1
1
0.920481
1
1
1
1
1
0.999907
1
1
0.999996
1
1
0.927338
1
1
1
1
1
1
1
1
1.10193
1.00021
1
1
1
1
1.09448
1
1
1
1
1
1.12105
1
1
1
0.95917
1
0.978298
1
1
1
1
1
1
1
1.09213
1
1
1
1
1
1
1
1
1
1
1
1
1
1
1.10221
1.00001
1
1
1
1
0.919034
1
1.08164
1
1
1
1
1
1
1
0.87109
1
1
1
1.08898
1
1
1
1
1
1
1
1
1.09139
1
1
1
1
1.09263
1
1.0985
1
1.08798
1.08585
1
1
0.87151
1
1
1
1
1.08933
1
0.876024
1
1
1
1
1.02522
1
1
1
1
0.851448
1.00601
1
1
1
1
1
1
1
1
1
1
1
1.00648
1
1
1
1.1045
1
1.00012
1
1.09142
1
1
1
1
1
1
1.06213
1
1
1
1
0.855745
1
1
1
1
1.00024
1
1
1
1.00421
1.09139
1
1
1
1
1
1.09241
1
1
1
1
1
1
1.00442
1
1
1
1
1
1
1
1
1
1
1
1
1
1
0.889594
1
1
1
1
1
1
1
1
1
1
1
1
1
1
1
1.09675
1
1
1
1
1
1
1
1
1.10189
1
1
1
0.883684
1
1
0.86168
1
1
1
1
1
1
1
1
1
1
1.10374
0.932197
1
1
1
1
1
0.853831
0.846937
1
1
1
1
1.10386
1
1
1
1
1
1
0.856431
1
1
1
1.09426
1
1
1
1
1
1
1
1
1
1
1
1
1
0.999999
1
1
1
0.872108
1
1
1
1
1
1.10224
1.08907
1
1
1
1
1
1
1
1
1
1
1
0.868015
1
1.10175
1.08995
1
1
1
1
0.934486
1
1
1
1
1
1
1
1
1
0.924636
1
1
1
1
1
1
1
1
1
1
0.924281
1
1
1.03866
1
1
1
0.999954
1
1
1
1
1
1
1
1
1
1
1.12019
1
1
1
1
1
1
1
0.954152
1
1
1
0.870976
0.888276
1
1
1.0947
1
1
1
1
1.02491
1
1.0917
1
1
1
1
1
1
1
1
1.00008
1
1
1
1
1
1
1
1.01369
0.837853
1
1
1
0.904743
1
1
1
1
1
0.871245
1.10303
1
1
1
1.10135
1.09264
1.02003
1
1
1.06877
1
1
1
1
1
1.00074
1
1.01052
1
1
0.999999
1
1
1.09232
1
1
1
1
1
0.999995
1
1
1
1
1
1
1
1
1.10058
1
1
1
1.10522
1
1.00118
1
1.09271
1
1
1
1
1
1
1
1
0.947465
1
1
0.92111
1.09741
1
1
1
1
1
1
1
1
1
1
1
1
1
1
1.08813
1
1
1
1
1
0.938371
1
1
1
1
1
1
1.09035
0.918502
1
0.88859
1
1
1
1
1.04641
1
1.01682
1
1
1
1
1
1.09256
1
1.00042
1
1
1
1
1
1
1
1
1.08833
1
1
1
1
1
1
1
1
1
1
1
1
1.07544
1
1
1
1
1
1
1
1
1
1
1
1
0.86787
1
1
1
1
1
1
1
1
1
1
1
1
1
1
0.92331
1
1
1
1
1
1
1
1
1
1
0.90974
1
1
1
1
1
0.999857
1
1
1.08726
1
1
1
1
1
1
1
1
1
1
1
1
1
1
1
1
1.09691
1
1
1
1
0.999999
1
1
1
1
1
1
1
1
1
1
1
0.859654
1.05067
1
1.10012
1
1
1
1
1
1
1
1
1
1
1
1
1
1
1
1
1
0.999996
1
1
1
1
1
1
1
1
1
1
1
1
1
0.999927
1
1
1
1
1
1
1
1
1.03129
1
1
1
1
1
1
1
1
1
1
1
1
1
1
1
1
1
1
1
0.956772
1
1
1
1
1
1
1.09559
1
1
1.08954
1
1
1
0.923216
1
1
0.999092
1
1
1
1
1
1
1
1
1
1
1.02944
1.00265
1
1
1
0.955382
0.874026
1
0.999992
1
1
1.00731
1
1
0.864932
1
1
1
1
0.999927
1
1
1
1
1
1.03564
0.999999
1
1
1
1
1
1
1
1
1.04701
1
1
1
1
1.09203
1
1
1
1
1
1
1.02117
1
1
1
1
1
1
1
1
1
1
1
1
1
1
1
1
1
1
1
1
1
0.892869
1
1.08979
1
1
1
1
1
1
1
1
1
1
1
1
1
1
1.00093
1
1.09252
1
0.999995
0.918785
1.08751
1
1
1
1
0.928293
1
1.05629
1
1.08342
1
1
1
0.999997
1.05164
1
1
1
0.883195
1
1
1.00793
1
1
1.06571
1
1
0.98569
1
1
1
1
0.999997
1
1.06753
1
1
1
1
1.08883
1
1
1.09031
1
1
1
1
1
1
1
1
1
1
1
1
1
1
1
1
1
1
1
0.970348
1
1
1
1
0.999895
1
1
1
1
1
1
1
1
1
1
1
1
1
1
1
1
1.08509
1
1
1
1
1
1
1
1
1
1
1
1
1
1
1
1
1
1
1
1
1.0654
1
1
1.08615
1
1
1
0.936575
1
1
1
0.944038
1
1
1
1
1
1
1
1
1
1
1
1.08653
1
1
1
1
1
1
1
1
1
1.09274
1
1.10037
1
1
1
1
1
1
1
1
1
1
1
1.02826
1
1
1
1
1
1
1
1
1
1
0.922302
1
1
1
1
1
1
1
1
1
1
1
1
1
1
1
1
1
1
1
1
1
1
1
1
1
0.926618
1
1
1
1
1
1
1
1
1
1
1.00013
1
1
1
1
1
1
1
0.920118
1
1
1
1
1
1
1
1
1
1
1
1
1
1.09719
1
1
1
1
1
1.11018
1
1.09305
1
0.910751
1
1
1
1
1
1
1
1
1
1
1
1
1
0.884483
1
1
1
1
1
1
1
1
1
1
1
1
1
1
1
1
1
1
1
1
1
1
1
1
1
1
1
1
1
1
1
1
1
1
1
1
1
1
1
1
1
1
1
1
1
1
0.91037
1
1
1
1
1
1
1
1
1
1
1
1
1
1
1
1
1
1
1
0.966067
1
1
1
1
1
1.0878
1
1
1
0.999999
1
1
1
1
1
1
1.09807
1
1
1
1
1
1
1.08319
1
1
1
1
1
1
1
1
1
1
1.09156
1
1
1
1
1
1
1
1
1
1
1
1
1
1
1
1
1
1
1
1
1
1
1
1
1
1
1
0.999925
1
1
1
1
1
1
1
1
1
1
1
1.01069
1
1
1
1
1
1
1
1
1
1
1
1
1
1
1
1
1
1
1
1
1
1
1
1
1
1
1
1
1
1
1
1
1
1
1
1
1
1
1
1
1
1
1
1
1
1
1
1
1
1
1
0.999991
1.08551
1
1
1
1
1
1
1
1
1
1
1
1
1
0.999996
1
1
1
1
1
1
1
1
1
1
1
1
1
1
1
1
1
1
1
1
1
1
1
1
1
1
1.00562
1
1
1
1
1
1
1
1
1
1
1
1
1.09265
1
1
1
0.999999
1
1
1.08982
1
1
1.04202
1
1
1
1
1
1.09888
1
1
1
1
1
1
1
1
1
1
1
1
1
1
1
1
1
1
1
1
1
1
1
1.07369
1
1
1
1
1
1
1
1
1
1
1
1
0.865788
1
1
1
1
1
1
1
1
1
1.08695
1
1
1
1
1
1
1.08452
1
1
1
1
1
1
1
1
1
1
1
1
1
1
1
1
1
1
1
1
1
1
1
1
1.10536
1
1
1
1
1
1
1
1
1
1
1
1
1.00002
1
1
1
1
1.0811
1
1
1
1
1
1
1
1
1
1
1
1
1
1
1
1
1
0.990834
1
1
1
1
1
1.08767
1
1
1
1.08518
1
1
1
1
1
1
1
1
1
1
1
1
1
1.10739
1
1
1
1
1
1
1
1
1
1
0.907972
1.08788
1
1.10226
1
1
1
1
1
1.00329
1
1.09986
1
1.10247
1
1
1
1
1
1
1
1.08941
1
1
1
1
1
1
1
0.999353
1
1
1
1
1
1
1
1
1
1
1
1
1
1
1
1
1
1
1
1
1
1
0.940895
1.08478
1
1
1
1
1
1
1
1
1.08797
1
1
1
1.09711
1
1
1
1
1
1
1
0.940346
1
1
1
1
1
1
1
1
1
1
1
1
1
1
1
1
1
1
1
1
1
1
1
1
1
1.08381
1
1
1
1
1
1
1
1
1
1
1
1
1
1
1
1
1
1
1
0.999547
1
0.912796
1
0.920421
1
1
1
1
1
1
1
1
1
1
1
1.08836
1.10127
1
1
1
1
1
1
1
1
1
1
0.996212
1
1
1
1
1
1
1.09857
1
1
1
1
1
1
1
1
1
1
1
1
1
1
1
1
1
1
1.11188
1
1
1
1
1
1.09269
1
1
1
1
1
1
1
1
1
1
1
1
1
1
1
1
1
1
1
1
1
1
1
1
1
1
1
1.01055
1
1
1
1
1
1
1
1
1
0.999978
1
1
1
1
1
1
1
1
1
1
1
1.08149
1
1
1
1
1
1
1
1
1
1
1
1
1
1
1
1
1
1
1
1
1
1
1
1
1
1
1
1
1
1
1
1
1
1
1.09449
1
1
1
1
1
1
1
1
1
1
1
1.09231
1
1
1
1.08567
1
1
1
1
1
1
1
1