/*--------------------------------*- C++ -*----------------------------------*\
  =========                 |
  \\      /  F ield         | OpenFOAM: The Open Source CFD Toolbox
   \\    /   O peration     | Website:  https://openfoam.org
    \\  /    A nd           | Version:  12
     \\/     M anipulation  |
\*---------------------------------------------------------------------------*/
FoamFile
{
    format      ascii;
    class       volVectorField;
    location    "22.3";
    object      U;
}
// * * * * * * * * * * * * * * * * * * * * * * * * * * * * * * * * * * * * * //

dimensions      [0 1 -1 0 0 0 0];

internalField   nonuniform List<vector> 
9801
(
(1.10562 -0.0588236 0)
(1.14979 -0.0485327 0)
(1.17542 -0.0418971 0)
(1.17658 -0.0385894 0)
(1.17453 -0.036412 0)
(1.16793 -0.0352438 0)
(1.14694 -0.036745 0)
(1.11536 -0.0411408 0)
(1.10209 -0.0425359 0)
(1.09786 -0.0411465 0)
(1.09871 -0.0387289 0)
(1.1079 -0.0349033 0)
(1.12784 -0.0287994 0)
(1.14344 -0.023284 0)
(1.14692 -0.0201417 0)
(1.14606 -0.0183985 0)
(1.14247 -0.0170783 0)
(1.12875 -0.0172086 0)
(1.10649 -0.0211407 0)
(1.09695 -0.0225545 0)
(1.09361 -0.0207103 0)
(1.09734 -0.0188208 0)
(1.10237 -0.0154939 0)
(1.10495 -0.0119046 0)
(1.10769 -0.00834546 0)
(1.1104 -0.00417051 0)
(1.11052 -0.000973168 0)
(1.10778 0.000326928 0)
(1.10296 0.000742645 0)
(1.09234 -0.000588583 0)
(1.0841 -0.00322743 0)
(1.07892 -0.00492512 0)
(1.0789 -0.00552236 0)
(1.08419 -0.00353668 0)
(1.08421 0.000170485 0)
(1.08032 0.00353105 0)
(1.07517 0.00666681 0)
(1.07175 0.00897734 0)
(1.0704 0.0126761 0)
(1.07158 0.0162009 0)
(1.06937 0.0153952 0)
(1.06483 0.0135924 0)
(1.06002 0.0115684 0)
(1.0566 0.00924495 0)
(1.05705 0.00859436 0)
(1.05525 0.0103005 0)
(1.04946 0.0115482 0)
(1.04145 0.01569 0)
(1.03565 0.02049 0)
(1.03179 0.0228458 0)
(1.03072 0.024528 0)
(1.03675 0.0264316 0)
(1.03786 0.0266838 0)
(1.03433 0.02556 0)
(1.02907 0.0238074 0)
(1.02345 0.0228558 0)
(1.01779 0.0231449 0)
(1.01033 0.0249401 0)
(0.9996 0.0278418 0)
(0.991678 0.0319108 0)
(0.98599 0.0343549 0)
(0.98167 0.0355524 0)
(0.985071 0.0370396 0)
(0.99578 0.0371555 0)
(0.998146 0.0377538 0)
(0.994358 0.0389041 0)
(0.987227 0.039967 0)
(0.974158 0.0406085 0)
(0.957588 0.0413378 0)
(0.942009 0.044455 0)
(0.930953 0.0467397 0)
(0.923494 0.0483477 0)
(0.917384 0.049068 0)
(0.918309 0.0484931 0)
(0.933712 0.0494205 0)
(0.939825 0.0512299 0)
(0.935941 0.0536937 0)
(0.928987 0.0558532 0)
(0.919273 0.0580273 0)
(0.898402 0.0596802 0)
(0.867472 0.0610161 0)
(0.845331 0.0604568 0)
(0.83313 0.0590379 0)
(0.824229 0.05734 0)
(0.827199 0.055298 0)
(0.845998 0.0561087 0)
(0.850137 0.059156 0)
(0.842598 0.0636293 0)
(0.831665 0.0669169 0)
(0.816515 0.0690014 0)
(0.785838 0.0686296 0)
(0.737809 0.0645449 0)
(0.694796 0.0572049 0)
(0.66539 0.0518792 0)
(0.649168 0.0453888 0)
(0.653755 0.0191689 0)
(0.644061 -0.000582328 0)
(0.0840838 -0.0904693 0)
(-1.18549 -0.0670959 0)
(1.21704 -0.141209 0)
(1.2195 -0.141993 0)
(1.23013 -0.120414 0)
(1.23145 -0.103486 0)
(1.2288 -0.0966978 0)
(1.22606 -0.092677 0)
(1.21775 -0.0859676 0)
(1.20606 -0.0845059 0)
(1.19434 -0.0964858 0)
(1.18579 -0.108433 0)
(1.18071 -0.11226 0)
(1.17567 -0.110359 0)
(1.17659 -0.102329 0)
(1.18357 -0.0857737 0)
(1.18843 -0.0718252 0)
(1.18894 -0.0658674 0)
(1.18721 -0.0621292 0)
(1.18502 -0.0577264 0)
(1.18193 -0.0587072 0)
(1.17076 -0.07185 0)
(1.15924 -0.0817779 0)
(1.15201 -0.0805598 0)
(1.145 -0.0744965 0)
(1.14123 -0.0663858 0)
(1.13763 -0.0578908 0)
(1.13616 -0.0473737 0)
(1.13973 -0.0388715 0)
(1.14267 -0.0342697 0)
(1.14315 -0.0306767 0)
(1.14274 -0.0320528 0)
(1.14283 -0.0394596 0)
(1.13713 -0.0500315 0)
(1.12616 -0.0550317 0)
(1.116 -0.0509352 0)
(1.1069 -0.0414874 0)
(1.09993 -0.0310851 0)
(1.09307 -0.0224987 0)
(1.08794 -0.0170823 0)
(1.08758 -0.011848 0)
(1.09504 -0.0071544 0)
(1.10105 -0.00723616 0)
(1.10293 -0.0123126 0)
(1.1015 -0.017934 0)
(1.09698 -0.0229379 0)
(1.08523 -0.0247689 0)
(1.07109 -0.019344 0)
(1.05965 -0.00899911 0)
(1.05027 -0.00125232 0)
(1.04296 0.00438914 0)
(1.03805 0.00761938 0)
(1.03824 0.0110192 0)
(1.04757 0.0145101 0)
(1.05301 0.0157543 0)
(1.05279 0.0140362 0)
(1.05002 0.01128 0)
(1.04536 0.00794538 0)
(1.03293 0.00524589 0)
(1.01686 0.00981704 0)
(1.00421 0.0165142 0)
(0.99508 0.0212622 0)
(0.988261 0.0251426 0)
(0.983373 0.027045 0)
(0.986366 0.030352 0)
(0.995942 0.0345674 0)
(0.998864 0.0367643 0)
(0.996925 0.0368231 0)
(0.992545 0.0360827 0)
(0.987021 0.033841 0)
(0.969544 0.0298382 0)
(0.94831 0.0317057 0)
(0.93505 0.0366847 0)
(0.926014 0.0397858 0)
(0.919023 0.0404962 0)
(0.917894 0.0432345 0)
(0.929806 0.0479693 0)
(0.936705 0.053201 0)
(0.934544 0.0561757 0)
(0.928354 0.056703 0)
(0.920676 0.055485 0)
(0.902733 0.051726 0)
(0.870436 0.0483519 0)
(0.847829 0.0483046 0)
(0.834473 0.0480858 0)
(0.824967 0.0475021 0)
(0.822167 0.0484492 0)
(0.834733 0.0580171 0)
(0.842751 0.0688539 0)
(0.83864 0.0726159 0)
(0.828541 0.0723075 0)
(0.814752 0.0710353 0)
(0.78543 0.066064 0)
(0.738655 0.0564942 0)
(0.692521 0.0463618 0)
(0.655241 0.0405296 0)
(0.632016 0.040022 0)
(0.622544 0.0234042 0)
(0.619704 0.00436853 0)
(0.0701402 -0.0875742 0)
(-1.20425 -0.0964629 0)
(1.22117 -0.132969 0)
(1.21924 -0.147091 0)
(1.22448 -0.137065 0)
(1.23181 -0.112878 0)
(1.22935 -0.0923573 0)
(1.22388 -0.0774114 0)
(1.21648 -0.0696136 0)
(1.20778 -0.0711275 0)
(1.19783 -0.0784073 0)
(1.18899 -0.0922386 0)
(1.18261 -0.106513 0)
(1.17921 -0.114892 0)
(1.17492 -0.11316 0)
(1.17786 -0.100346 0)
(1.18702 -0.0772467 0)
(1.18906 -0.0581969 0)
(1.18741 -0.0484055 0)
(1.18407 -0.0475061 0)
(1.18022 -0.0499673 0)
(1.1747 -0.0558533 0)
(1.16224 -0.070383 0)
(1.15171 -0.0802405 0)
(1.14535 -0.0817514 0)
(1.13881 -0.0768684 0)
(1.13452 -0.0656053 0)
(1.13424 -0.050665 0)
(1.13827 -0.0335774 0)
(1.14256 -0.0227323 0)
(1.14458 -0.0220578 0)
(1.14438 -0.0258801 0)
(1.14087 -0.0296602 0)
(1.13594 -0.0355205 0)
(1.1255 -0.0474007 0)
(1.11325 -0.0544439 0)
(1.10253 -0.0508073 0)
(1.09536 -0.0391708 0)
(1.09135 -0.0258674 0)
(1.08774 -0.0160154 0)
(1.08774 -0.0073358 0)
(1.09675 -0.00137413 0)
(1.10388 -0.00280474 0)
(1.10354 -0.00636244 0)
(1.09956 -0.00987357 0)
(1.09448 -0.0138727 0)
(1.08272 -0.0206784 0)
(1.06507 -0.021842 0)
(1.0531 -0.0142967 0)
(1.04655 -0.00425581 0)
(1.04161 0.00412753 0)
(1.03748 0.00964907 0)
(1.03845 0.0145701 0)
(1.04927 0.0175491 0)
(1.05508 0.0169758 0)
(1.05297 0.0151115 0)
(1.04838 0.0132097 0)
(1.0429 0.0110455 0)
(1.02914 0.00773741 0)
(1.01005 0.00809297 0)
(0.998404 0.0140064 0)
(0.991101 0.0203615 0)
(0.985336 0.0257216 0)
(0.980865 0.0299549 0)
(0.98439 0.0342219 0)
(0.995576 0.0375405 0)
(0.999085 0.038095 0)
(0.996087 0.0372557 0)
(0.990802 0.0360236 0)
(0.983661 0.0344476 0)
(0.963444 0.0318649 0)
(0.941418 0.0308315 0)
(0.929491 0.0333466 0)
(0.921003 0.036929 0)
(0.914064 0.040148 0)
(0.911299 0.0442557 0)
(0.921849 0.0510405 0)
(0.931249 0.055148 0)
(0.930401 0.0548179 0)
(0.924679 0.0532959 0)
(0.917249 0.0528227 0)
(0.899948 0.0517425 0)
(0.867886 0.0471351 0)
(0.843152 0.0439732 0)
(0.828414 0.0445674 0)
(0.81854 0.0452605 0)
(0.810985 0.0459546 0)
(0.81724 0.0511943 0)
(0.830146 0.0575028 0)
(0.829988 0.0586831 0)
(0.820774 0.0589768 0)
(0.808227 0.0595944 0)
(0.781399 0.0577411 0)
(0.738264 0.0480302 0)
(0.695889 0.0336802 0)
(0.658831 0.0202612 0)
(0.629013 0.0115133 0)
(0.608979 -0.0201294 0)
(0.616528 -0.0495005 0)
(0.0637281 -0.0998006 0)
(-1.21476 -0.0869243 0)
(1.21825 -0.12626 0)
(1.20643 -0.132647 0)
(1.20136 -0.125945 0)
(1.20454 -0.110442 0)
(1.21372 -0.0868717 0)
(1.21663 -0.0728869 0)
(1.21452 -0.0724023 0)
(1.21027 -0.0768554 0)
(1.20378 -0.0810679 0)
(1.19662 -0.0877134 0)
(1.18537 -0.0973933 0)
(1.17125 -0.103976 0)
(1.16072 -0.101829 0)
(1.15829 -0.0957321 0)
(1.16209 -0.0820072 0)
(1.17481 -0.0606884 0)
(1.18503 -0.0492617 0)
(1.18731 -0.050742 0)
(1.18332 -0.0542594 0)
(1.17755 -0.0564105 0)
(1.16896 -0.0620748 0)
(1.15133 -0.072713 0)
(1.13406 -0.0757162 0)
(1.12361 -0.0683799 0)
(1.11976 -0.0604049 0)
(1.11857 -0.051906 0)
(1.12494 -0.0389958 0)
(1.1406 -0.0279419 0)
(1.14979 -0.0273495 0)
(1.14864 -0.030547 0)
(1.14334 -0.0329752 0)
(1.1376 -0.0353555 0)
(1.12772 -0.0391091 0)
(1.10425 -0.0424955 0)
(1.08674 -0.0378301 0)
(1.0812 -0.0312969 0)
(1.07805 -0.0248828 0)
(1.07634 -0.0180042 0)
(1.08178 -0.0116054 0)
(1.0986 -0.00874103 0)
(1.10676 -0.00946976 0)
(1.10425 -0.01064 0)
(1.09913 -0.0116434 0)
(1.09376 -0.0125998 0)
(1.07815 -0.0115906 0)
(1.05316 -0.00784656 0)
(1.04104 -0.00397546 0)
(1.03635 -0.00101402 0)
(1.03233 0.00264834 0)
(1.02979 0.00631087 0)
(1.03426 0.00934608 0)
(1.04947 0.0106479 0)
(1.05595 0.0110215 0)
(1.05292 0.0112869 0)
(1.0477 0.0112236 0)
(1.04099 0.0118771 0)
(1.0239 0.0147463 0)
(1.00097 0.0172747 0)
(0.988761 0.0187934 0)
(0.982414 0.0202294 0)
(0.976921 0.0216782 0)
(0.973424 0.0239379 0)
(0.979144 0.0269156 0)
(0.993194 0.0295958 0)
(0.996732 0.0317017 0)
(0.992384 0.0336607 0)
(0.986465 0.0357456 0)
(0.978142 0.038389 0)
(0.958239 0.0392919 0)
(0.932871 0.0363633 0)
(0.918568 0.0350706 0)
(0.910798 0.0359566 0)
(0.904334 0.0368171 0)
(0.900836 0.0382949 0)
(0.910216 0.042401 0)
(0.921171 0.0485254 0)
(0.920462 0.0528326 0)
(0.914803 0.0560125 0)
(0.908098 0.0580924 0)
(0.895965 0.058411 0)
(0.867864 0.0505699 0)
(0.837781 0.0399667 0)
(0.819711 0.0363768 0)
(0.808591 0.0366991 0)
(0.799509 0.0370246 0)
(0.797307 0.0397063 0)
(0.806673 0.0506405 0)
(0.809224 0.0614773 0)
(0.80247 0.0662922 0)
(0.792068 0.0666388 0)
(0.773034 0.0633521 0)
(0.736997 0.0478553 0)
(0.694385 0.0260237 0)
(0.656788 0.00937381 0)
(0.625245 -0.00304031 0)
(0.603 -0.0344032 0)
(0.616205 -0.0677726 0)
(0.0630109 -0.103798 0)
(-1.22747 -0.0868196 0)
(1.21827 -0.116687 0)
(1.19448 -0.108938 0)
(1.18586 -0.103957 0)
(1.18411 -0.102436 0)
(1.18893 -0.0970725 0)
(1.20689 -0.0879064 0)
(1.21507 -0.0843511 0)
(1.21151 -0.0851112 0)
(1.20575 -0.0866847 0)
(1.19981 -0.0888378 0)
(1.18806 -0.0900535 0)
(1.16592 -0.0854327 0)
(1.15158 -0.079665 0)
(1.14798 -0.0776469 0)
(1.14641 -0.0760632 0)
(1.15596 -0.0708565 0)
(1.17921 -0.0641186 0)
(1.1868 -0.0619954 0)
(1.18246 -0.0623832 0)
(1.17661 -0.0624012 0)
(1.17036 -0.062327 0)
(1.15094 -0.0609933 0)
(1.12407 -0.0561057 0)
(1.11299 -0.0529241 0)
(1.10976 -0.05242 0)
(1.10704 -0.0519061 0)
(1.11033 -0.0498234 0)
(1.13287 -0.0444074 0)
(1.14947 -0.040558 0)
(1.14824 -0.0401067 0)
(1.14271 -0.0395907 0)
(1.13687 -0.0380918 0)
(1.12272 -0.0330848 0)
(1.09519 -0.0249359 0)
(1.07684 -0.0231294 0)
(1.07088 -0.0252888 0)
(1.06765 -0.0262744 0)
(1.06586 -0.0269853 0)
(1.07252 -0.0259835 0)
(1.09387 -0.0215846 0)
(1.10391 -0.0175466 0)
(1.1008 -0.0150312 0)
(1.09579 -0.0122032 0)
(1.08741 -0.00620952 0)
(1.07029 0.00141523 0)
(1.04819 0.00356748 0)
(1.03438 -0.000224696 0)
(1.02821 -0.00337557 0)
(1.02381 -0.00466467 0)
(1.02127 -0.00488143 0)
(1.02653 -0.00213119 0)
(1.04168 0.00360896 0)
(1.04877 0.0100223 0)
(1.04638 0.0140423 0)
(1.04163 0.0176114 0)
(1.03437 0.021854 0)
(1.01993 0.0245737 0)
(0.998411 0.022026 0)
(0.982659 0.018103 0)
(0.974582 0.0168963 0)
(0.968818 0.0165829 0)
(0.964346 0.0166916 0)
(0.967356 0.0197369 0)
(0.980564 0.0277225 0)
(0.98603 0.0349833 0)
(0.983221 0.0394283 0)
(0.977932 0.0427692 0)
(0.971114 0.0453982 0)
(0.956326 0.0450677 0)
(0.930564 0.0379976 0)
(0.911376 0.0315452 0)
(0.901917 0.0303548 0)
(0.89534 0.0303533 0)
(0.889973 0.0309426 0)
(0.893763 0.0359268 0)
(0.905564 0.0466823 0)
(0.90798 0.053865 0)
(0.903146 0.0565768 0)
(0.896659 0.0571352 0)
(0.888237 0.0570526 0)
(0.868054 0.0522817 0)
(0.836234 0.0410584 0)
(0.812135 0.0305576 0)
(0.798478 0.0266935 0)
(0.788901 0.0265515 0)
(0.781889 0.0275651 0)
(0.785134 0.0347741 0)
(0.791145 0.0466521 0)
(0.788084 0.0538025 0)
(0.778617 0.0555797 0)
(0.765975 0.0547232 0)
(0.740539 0.045341 0)
(0.703756 0.0244988 0)
(0.665793 0.000500935 0)
(0.633417 -0.0191079 0)
(0.609414 -0.0464572 0)
(0.625996 -0.0864049 0)
(0.0627756 -0.0988799 0)
(-1.23666 -0.0857051 0)
(1.20785 -0.10408 0)
(1.1879 -0.0901627 0)
(1.18416 -0.0888903 0)
(1.18161 -0.0898174 0)
(1.18253 -0.0941911 0)
(1.19523 -0.0981605 0)
(1.20806 -0.0962993 0)
(1.20653 -0.0945188 0)
(1.2009 -0.0937294 0)
(1.19324 -0.0900388 0)
(1.17523 -0.078165 0)
(1.15732 -0.0676712 0)
(1.14835 -0.0650632 0)
(1.14532 -0.0653088 0)
(1.14406 -0.0673798 0)
(1.1515 -0.0738084 0)
(1.16835 -0.0771095 0)
(1.17766 -0.0715155 0)
(1.17513 -0.0662584 0)
(1.17029 -0.0630467 0)
(1.16197 -0.0564429 0)
(1.14055 -0.0450811 0)
(1.11891 -0.0402782 0)
(1.11042 -0.0416031 0)
(1.10676 -0.043434 0)
(1.10401 -0.046017 0)
(1.10678 -0.0513121 0)
(1.12285 -0.0563543 0)
(1.13776 -0.0514483 0)
(1.13829 -0.0431644 0)
(1.13451 -0.0368879 0)
(1.12708 -0.0278051 0)
(1.11132 -0.016303 0)
(1.09102 -0.0107209 0)
(1.07716 -0.0131575 0)
(1.07016 -0.0175359 0)
(1.06594 -0.0226174 0)
(1.06338 -0.0277591 0)
(1.06625 -0.0319632 0)
(1.08026 -0.0306518 0)
(1.0896 -0.0210332 0)
(1.0888 -0.0109158 0)
(1.08448 -0.00112276 0)
(1.07703 0.00730093 0)
(1.06545 0.0110206 0)
(1.04867 0.00780677 0)
(1.03441 0.00254752 0)
(1.02613 -0.00178739 0)
(1.02046 -0.00535784 0)
(1.01579 -0.00727177 0)
(1.01575 -0.00725807 0)
(1.0259 5.93964e-05 0)
(1.03381 0.0109341 0)
(1.03342 0.0189342 0)
(1.02967 0.0248848 0)
(1.02446 0.0283357 0)
(1.01547 0.0292207 0)
(0.997822 0.0241385 0)
(0.979322 0.0171735 0)
(0.969045 0.0135024 0)
(0.962825 0.013058 0)
(0.957436 0.0131535 0)
(0.954814 0.0151733 0)
(0.963775 0.0240902 0)
(0.97176 0.0343655 0)
(0.971121 0.0396012 0)
(0.96704 0.0432589 0)
(0.961792 0.0461371 0)
(0.953534 0.0473754 0)
(0.932978 0.0413164 0)
(0.909453 0.0318112 0)
(0.896032 0.0260337 0)
(0.888024 0.0249788 0)
(0.881284 0.0253697 0)
(0.878044 0.0286032 0)
(0.886582 0.0403014 0)
(0.89429 0.0534776 0)
(0.892904 0.0593247 0)
(0.887215 0.0609198 0)
(0.880366 0.0609283 0)
(0.868068 0.0584942 0)
(0.84136 0.0460232 0)
(0.812835 0.0317912 0)
(0.793454 0.02154 0)
(0.781095 0.0166665 0)
(0.771836 0.0163463 0)
(0.767416 0.0202196 0)
(0.771901 0.0315298 0)
(0.773499 0.0427485 0)
(0.767279 0.0485762 0)
(0.757044 0.049415 0)
(0.74252 0.0459949 0)
(0.718367 0.0289574 0)
(0.687477 0.00395022 0)
(0.652967 -0.0188659 0)
(0.621652 -0.0433643 0)
(0.638736 -0.100149 0)
(0.0592472 -0.0949168 0)
(-1.24247 -0.0844872 0)
(1.1976 -0.0848915 0)
(1.18904 -0.0752294 0)
(1.18647 -0.0783653 0)
(1.18696 -0.0866033 0)
(1.19002 -0.0989805 0)
(1.19384 -0.10861 0)
(1.19672 -0.109038 0)
(1.19468 -0.102146 0)
(1.18903 -0.0909512 0)
(1.17633 -0.0724783 0)
(1.16258 -0.0587844 0)
(1.15236 -0.0549477 0)
(1.14785 -0.0551021 0)
(1.14541 -0.0577424 0)
(1.14978 -0.067466 0)
(1.15631 -0.0796235 0)
(1.16057 -0.0849513 0)
(1.16368 -0.0816522 0)
(1.16235 -0.0737406 0)
(1.157 -0.0615555 0)
(1.1447 -0.0428562 0)
(1.1316 -0.0303373 0)
(1.1203 -0.0289927 0)
(1.11192 -0.0338986 0)
(1.10742 -0.0381096 0)
(1.10582 -0.0451244 0)
(1.11021 -0.0556214 0)
(1.11593 -0.0615087 0)
(1.12016 -0.0581691 0)
(1.12097 -0.0468613 0)
(1.11803 -0.0317678 0)
(1.11093 -0.0164105 0)
(1.10111 -0.006578 0)
(1.08966 -0.00481433 0)
(1.07946 -0.00929568 0)
(1.07229 -0.0165497 0)
(1.06703 -0.024845 0)
(1.06302 -0.0305427 0)
(1.06208 -0.0332622 0)
(1.06568 -0.0310966 0)
(1.06984 -0.0216598 0)
(1.07124 -0.00766029 0)
(1.06905 0.00531459 0)
(1.06498 0.010627 0)
(1.05938 0.0110545 0)
(1.04851 0.00850696 0)
(1.03568 0.00211634 0)
(1.02641 -0.00353932 0)
(1.01919 -0.00663127 0)
(1.01331 -0.00744266 0)
(1.00852 -0.00633932 0)
(1.00842 -0.00031164 0)
(1.01568 0.0113914 0)
(1.01902 0.0197709 0)
(1.01856 0.024888 0)
(1.01539 0.0278056 0)
(1.01021 0.0283911 0)
(0.999443 0.0250144 0)
(0.980289 0.0165374 0)
(0.966212 0.0118886 0)
(0.957552 0.0109251 0)
(0.950598 0.0126042 0)
(0.945092 0.0148255 0)
(0.946118 0.0218977 0)
(0.956797 0.0354304 0)
(0.960758 0.0435165 0)
(0.958486 0.0455792 0)
(0.954054 0.0451789 0)
(0.9484 0.0443943 0)
(0.93724 0.0409349 0)
(0.913591 0.0298819 0)
(0.893924 0.0223517 0)
(0.881891 0.02032 0)
(0.873245 0.0219248 0)
(0.866653 0.024312 0)
(0.866627 0.0319262 0)
(0.877959 0.0471587 0)
(0.883423 0.0578312 0)
(0.880466 0.0610302 0)
(0.874293 0.0608519 0)
(0.866665 0.0592879 0)
(0.850193 0.0507575 0)
(0.821768 0.0324086 0)
(0.79568 0.0184632 0)
(0.777342 0.0119722 0)
(0.765931 0.0102401 0)
(0.757919 0.0103997 0)
(0.756694 0.0155677 0)
(0.760881 0.0260512 0)
(0.760487 0.0326255 0)
(0.75454 0.0341921 0)
(0.745076 0.0334745 0)
(0.729743 0.0266302 0)
(0.708955 0.00742958 0)
(0.682486 -0.0145794 0)
(0.647067 -0.0337616 0)
(0.64564 -0.10372 0)
(0.0524444 -0.0970142 0)
(-1.24852 -0.0842607 0)
(1.18713 -0.0734723 0)
(1.1838 -0.0672595 0)
(1.19294 -0.0778333 0)
(1.1957 -0.0945907 0)
(1.19557 -0.107407 0)
(1.19264 -0.112166 0)
(1.18886 -0.110687 0)
(1.17993 -0.100161 0)
(1.16633 -0.0793548 0)
(1.15661 -0.061031 0)
(1.15035 -0.0501783 0)
(1.14564 -0.0475044 0)
(1.14283 -0.0504737 0)
(1.14936 -0.0610308 0)
(1.15719 -0.0748447 0)
(1.15849 -0.0823576 0)
(1.15583 -0.0832586 0)
(1.15236 -0.0813041 0)
(1.14592 -0.0702098 0)
(1.13553 -0.0520117 0)
(1.12771 -0.0391289 0)
(1.12212 -0.031595 0)
(1.11689 -0.0292128 0)
(1.11206 -0.0313091 0)
(1.10983 -0.0394028 0)
(1.1108 -0.0488016 0)
(1.11135 -0.0535057 0)
(1.10951 -0.0534123 0)
(1.10712 -0.0491377 0)
(1.10349 -0.0380922 0)
(1.10021 -0.0266926 0)
(1.09722 -0.0198845 0)
(1.09373 -0.0160898 0)
(1.08884 -0.013801 0)
(1.08283 -0.0154293 0)
(1.07682 -0.0205431 0)
(1.06956 -0.0252468 0)
(1.06235 -0.0263868 0)
(1.05753 -0.0249683 0)
(1.05498 -0.0197143 0)
(1.05517 -0.0112176 0)
(1.05582 -0.00390651 0)
(1.05872 0.000596446 0)
(1.05933 0.00296188 0)
(1.05569 0.0035916 0)
(1.04968 0.00324706 0)
(1.04003 -0.00126867 0)
(1.0272 -0.0057802 0)
(1.01632 -0.00597853 0)
(1.00684 -0.00247866 0)
(1.00034 0.00220508 0)
(0.996853 0.00622731 0)
(1.00158 0.0151538 0)
(1.00968 0.0223696 0)
(1.01228 0.0236205 0)
(1.01118 0.0232191 0)
(1.00693 0.0229832 0)
(1.00071 0.0227035 0)
(0.985519 0.0174677 0)
(0.965603 0.0102951 0)
(0.951705 0.0100205 0)
(0.942317 0.0141089 0)
(0.936134 0.0183144 0)
(0.932659 0.0221244 0)
(0.941199 0.031714 0)
(0.952147 0.0418826 0)
(0.953452 0.0448513 0)
(0.950196 0.0437662 0)
(0.94512 0.0421013 0)
(0.938265 0.0404193 0)
(0.920755 0.0326869 0)
(0.895631 0.0223456 0)
(0.877293 0.0187476 0)
(0.865676 0.0203561 0)
(0.85812 0.0231089 0)
(0.85315 0.0264558 0)
(0.859138 0.0367851 0)
(0.871554 0.0510652 0)
(0.874633 0.0581682 0)
(0.870621 0.0585771 0)
(0.863944 0.0571488 0)
(0.854595 0.0549663 0)
(0.833403 0.0452695 0)
(0.802599 0.0279881 0)
(0.779338 0.0160123 0)
(0.76419 0.00877948 0)
(0.754704 0.00526079 0)
(0.747962 0.00474779 0)
(0.749029 0.0098097 0)
(0.752431 0.0173228 0)
(0.750295 0.020554 0)
(0.744166 0.0200326 0)
(0.73533 0.0174483 0)
(0.721687 0.00473855 0)
(0.704533 -0.012263 0)
(0.678069 -0.0311948 0)
(0.660047 -0.0900953 0)
(0.0438671 -0.101697 0)
(-1.25362 -0.0818848 0)
(1.17269 -0.0859114 0)
(1.1903 -0.0702227 0)
(1.20326 -0.0763108 0)
(1.20341 -0.0860772 0)
(1.19974 -0.0923597 0)
(1.19219 -0.0995958 0)
(1.17779 -0.101286 0)
(1.15776 -0.0925922 0)
(1.14534 -0.0813638 0)
(1.14083 -0.0747122 0)
(1.13886 -0.0665769 0)
(1.14076 -0.0582038 0)
(1.14838 -0.0562696 0)
(1.15736 -0.0624796 0)
(1.15951 -0.0672718 0)
(1.15695 -0.0690883 0)
(1.15375 -0.069574 0)
(1.14458 -0.0629563 0)
(1.13177 -0.0529739 0)
(1.12409 -0.0472448 0)
(1.1194 -0.0435439 0)
(1.11524 -0.0413485 0)
(1.11438 -0.0404367 0)
(1.11542 -0.0434338 0)
(1.11355 -0.0458686 0)
(1.1106 -0.0466058 0)
(1.1071 -0.0454014 0)
(1.10378 -0.0402492 0)
(1.09743 -0.0306304 0)
(1.09374 -0.0244906 0)
(1.09303 -0.021463 0)
(1.09277 -0.0201174 0)
(1.09114 -0.0210025 0)
(1.08893 -0.0248955 0)
(1.08458 -0.0285074 0)
(1.07797 -0.0290371 0)
(1.0684 -0.0269151 0)
(1.05756 -0.0217015 0)
(1.0499 -0.0141783 0)
(1.04628 -0.00750167 0)
(1.04602 -0.00077282 0)
(1.0507 0.00257838 0)
(1.05594 0.001315 0)
(1.05781 -0.00125617 0)
(1.05504 -0.0028699 0)
(1.04986 -0.00379562 0)
(1.04125 -0.00577949 0)
(1.02468 -0.0075356 0)
(1.00854 -0.00272757 0)
(0.99813 0.00471541 0)
(0.992203 0.00989322 0)
(0.988307 0.0130463 0)
(0.992642 0.0175738 0)
(1.00511 0.021447 0)
(1.01034 0.0214075 0)
(1.00869 0.0200436 0)
(1.00425 0.0191899 0)
(0.999102 0.0191454 0)
(0.988482 0.0180827 0)
(0.965281 0.0140108 0)
(0.94555 0.0135895 0)
(0.935443 0.0163574 0)
(0.929206 0.0191072 0)
(0.924592 0.0217684 0)
(0.927903 0.027202 0)
(0.94277 0.0364147 0)
(0.950348 0.0411797 0)
(0.948557 0.041353 0)
(0.943252 0.0405848 0)
(0.937336 0.0401593 0)
(0.925334 0.0387305 0)
(0.899435 0.0301042 0)
(0.875665 0.0230359 0)
(0.861727 0.020235 0)
(0.853523 0.0196444 0)
(0.847284 0.0198983 0)
(0.845438 0.0228132 0)
(0.857387 0.0344992 0)
(0.869496 0.0459336 0)
(0.869621 0.050328 0)
(0.863409 0.0522552 0)
(0.855465 0.0536775 0)
(0.842143 0.052763 0)
(0.817105 0.0415799 0)
(0.788801 0.0229054 0)
(0.768381 0.00970098 0)
(0.754307 0.00201672 0)
(0.745735 -0.00228866 0)
(0.740922 -0.00384903 0)
(0.743747 0.000292073 0)
(0.74604 0.00548086 0)
(0.743135 0.00683908 0)
(0.737553 0.00517868 0)
(0.729817 -0.00214814 0)
(0.718623 -0.0145774 0)
(0.702574 -0.029148 0)
(0.678215 -0.0711554 0)
(0.0384787 -0.107016 0)
(-1.25771 -0.078332 0)
(1.16004 -0.0945384 0)
(1.19148 -0.0872131 0)
(1.20908 -0.0859722 0)
(1.20789 -0.0861523 0)
(1.20353 -0.0854274 0)
(1.19596 -0.0836881 0)
(1.17285 -0.0775248 0)
(1.14954 -0.0721233 0)
(1.14035 -0.0698683 0)
(1.13649 -0.0693864 0)
(1.13313 -0.069936 0)
(1.13616 -0.073628 0)
(1.14796 -0.076176 0)
(1.15625 -0.0730017 0)
(1.15565 -0.0679348 0)
(1.15214 -0.0630732 0)
(1.14331 -0.0524918 0)
(1.13364 -0.0431631 0)
(1.12721 -0.0390997 0)
(1.12259 -0.0394426 0)
(1.11919 -0.042301 0)
(1.11788 -0.0489392 0)
(1.11858 -0.0562944 0)
(1.11526 -0.0584002 0)
(1.11034 -0.0562394 0)
(1.10502 -0.0498123 0)
(1.09841 -0.0378673 0)
(1.09272 -0.0242067 0)
(1.09035 -0.0152251 0)
(1.08956 -0.0131276 0)
(1.0923 -0.0161699 0)
(1.0948 -0.0224424 0)
(1.09347 -0.0286321 0)
(1.08914 -0.0337694 0)
(1.08326 -0.0365564 0)
(1.07259 -0.0348866 0)
(1.05819 -0.0250939 0)
(1.04702 -0.0136153 0)
(1.04087 -0.00603404 0)
(1.03721 -0.00129793 0)
(1.04016 0.00332539 0)
(1.05077 0.00324326 0)
(1.05677 -0.00158307 0)
(1.05612 -0.00533048 0)
(1.05244 -0.00663031 0)
(1.04775 -0.0068293 0)
(1.0387 -0.00612318 0)
(1.01644 -0.00227603 0)
(0.998553 0.00199505 0)
(0.990455 0.00517673 0)
(0.985124 0.00778472 0)
(0.981153 0.0107297 0)
(0.986253 0.0144378 0)
(1.00256 0.0176893 0)
(1.00901 0.0189278 0)
(1.00583 0.0189834 0)
(1.00112 0.0190726 0)
(0.996315 0.0201714 0)
(0.986862 0.0228704 0)
(0.964364 0.0236777 0)
(0.942681 0.0201415 0)
(0.931853 0.0177661 0)
(0.925849 0.0169572 0)
(0.920708 0.0168567 0)
(0.919484 0.017179 0)
(0.932426 0.0241312 0)
(0.945195 0.0336794 0)
(0.945363 0.0385218 0)
(0.940612 0.0416755 0)
(0.935022 0.0443076 0)
(0.926594 0.0468555 0)
(0.905721 0.0436857 0)
(0.878457 0.0319602 0)
(0.862034 0.0236283 0)
(0.85231 0.0182004 0)
(0.845295 0.0139211 0)
(0.839215 0.0114854 0)
(0.841243 0.0146997 0)
(0.854392 0.0308217 0)
(0.860401 0.0455789 0)
(0.857493 0.0523583 0)
(0.851222 0.0552938 0)
(0.843017 0.0558706 0)
(0.827975 0.0516246 0)
(0.803492 0.0368421 0)
(0.778541 0.0169173 0)
(0.760407 0.00163371 0)
(0.747087 -0.00798198 0)
(0.738962 -0.012651 0)
(0.73479 -0.0133116 0)
(0.737998 -0.00770052 0)
(0.739599 -0.00250674 0)
(0.737472 -0.00255509 0)
(0.734307 -0.00899556 0)
(0.728313 -0.0194644 0)
(0.719808 -0.030503 0)
(0.697848 -0.0587735 0)
(0.0369241 -0.109033 0)
(-1.26143 -0.0746373 0)
(1.16116 -0.103348 0)
(1.1862 -0.112998 0)
(1.20154 -0.104329 0)
(1.20105 -0.0943295 0)
(1.19612 -0.0835678 0)
(1.18394 -0.0667087 0)
(1.16848 -0.0557598 0)
(1.15358 -0.0551812 0)
(1.14545 -0.0615942 0)
(1.14173 -0.0696951 0)
(1.14179 -0.082442 0)
(1.14105 -0.0918941 0)
(1.14009 -0.0926275 0)
(1.14186 -0.0819457 0)
(1.14262 -0.0625153 0)
(1.14024 -0.0410016 0)
(1.13682 -0.0275608 0)
(1.13422 -0.0256371 0)
(1.13133 -0.0299633 0)
(1.12902 -0.0396349 0)
(1.12601 -0.0524416 0)
(1.12134 -0.0640319 0)
(1.11583 -0.0681487 0)
(1.10983 -0.0663368 0)
(1.09883 -0.0571413 0)
(1.0887 -0.0410475 0)
(1.08369 -0.0262425 0)
(1.0818 -0.0143929 0)
(1.08446 -0.00684882 0)
(1.0921 -0.00969459 0)
(1.09768 -0.0190883 0)
(1.09791 -0.0282019 0)
(1.09478 -0.0337167 0)
(1.0903 -0.0361018 0)
(1.07946 -0.0356918 0)
(1.05931 -0.0287937 0)
(1.04393 -0.0185094 0)
(1.03589 -0.0116518 0)
(1.03083 -0.0073034 0)
(1.02781 -0.00323082 0)
(1.03618 0.000577806 0)
(1.05329 0.00015606 0)
(1.05776 -0.00210019 0)
(1.05446 -0.00345252 0)
(1.0503 -0.00418579 0)
(1.04491 -0.00387485 0)
(1.03154 0.000278511 0)
(1.00898 0.0047819 0)
(0.993441 0.00548942 0)
(0.986184 0.00514477 0)
(0.981458 0.00497354 0)
(0.977904 0.00427224 0)
(0.98262 0.00314415 0)
(0.998649 0.00719919 0)
(1.00522 0.0135643 0)
(1.00261 0.018839 0)
(0.998224 0.0235212 0)
(0.992354 0.028227 0)
(0.983112 0.032467 0)
(0.965815 0.0321578 0)
(0.945033 0.025706 0)
(0.932767 0.0191119 0)
(0.925734 0.0138883 0)
(0.91987 0.00913138 0)
(0.91468 0.00702105 0)
(0.918539 0.0118674 0)
(0.932674 0.0279187 0)
(0.937905 0.0407032 0)
(0.935139 0.0458047 0)
(0.929323 0.0496491 0)
(0.922933 0.0519562 0)
(0.913185 0.0512151 0)
(0.892111 0.0389617 0)
(0.869952 0.0213715 0)
(0.855874 0.0110135 0)
(0.84636 0.00616934 0)
(0.839517 0.00391355 0)
(0.833494 0.0039543 0)
(0.834516 0.0120283 0)
(0.844631 0.0317179 0)
(0.848329 0.0465392 0)
(0.845054 0.0525565 0)
(0.83883 0.0543594 0)
(0.8305 0.0534206 0)
(0.816123 0.0463724 0)
(0.795143 0.0285611 0)
(0.772992 0.00645267 0)
(0.754473 -0.00978887 0)
(0.74036 -0.0184577 0)
(0.732605 -0.0213534 0)
(0.729371 -0.0204086 0)
(0.733745 -0.0133077 0)
(0.736597 -0.00909803 0)
(0.737006 -0.0128793 0)
(0.735348 -0.0238878 0)
(0.731428 -0.0336175 0)
(0.715518 -0.0518029 0)
(0.0385805 -0.111105 0)
(-1.26506 -0.0721503 0)
(1.16583 -0.118344 0)
(1.16655 -0.125167 0)
(1.17641 -0.104627 0)
(1.1819 -0.0745819 0)
(1.18285 -0.050499 0)
(1.18017 -0.0400022 0)
(1.17523 -0.0411753 0)
(1.16693 -0.0509479 0)
(1.1586 -0.0685803 0)
(1.15167 -0.0880027 0)
(1.14545 -0.09935 0)
(1.14062 -0.0996369 0)
(1.1323 -0.0924582 0)
(1.12257 -0.0755646 0)
(1.11889 -0.0552117 0)
(1.12069 -0.034213 0)
(1.12528 -0.0207405 0)
(1.13313 -0.0207023 0)
(1.13889 -0.0311551 0)
(1.13851 -0.0441785 0)
(1.13492 -0.0550343 0)
(1.12837 -0.0636704 0)
(1.11639 -0.0680293 0)
(1.09815 -0.0616246 0)
(1.08244 -0.0471333 0)
(1.07409 -0.0362942 0)
(1.06963 -0.0298262 0)
(1.06906 -0.0225721 0)
(1.08116 -0.0147972 0)
(1.09898 -0.0132338 0)
(1.10409 -0.0185496 0)
(1.10097 -0.0224494 0)
(1.09652 -0.0257037 0)
(1.08893 -0.028292 0)
(1.07001 -0.0272721 0)
(1.04619 -0.0215979 0)
(1.0339 -0.0174179 0)
(1.02899 -0.0143336 0)
(1.02497 -0.0123657 0)
(1.02332 -0.0106869 0)
(1.03503 -0.011294 0)
(1.05261 -0.00873212 0)
(1.05651 -0.00440926 0)
(1.05351 -0.00129009 0)
(1.04879 0.00187595 0)
(1.04036 0.0082233 0)
(1.02655 0.0139543 0)
(1.00819 0.0143511 0)
(0.99409 0.01018 0)
(0.987263 0.00545854 0)
(0.982783 -0.000628335 0)
(0.979381 -0.00716697 0)
(0.977753 -0.00961369 0)
(0.985092 -0.00214132 0)
(0.993894 0.0139672 0)
(0.994741 0.0245719 0)
(0.991094 0.0306235 0)
(0.98537 0.0355593 0)
(0.980486 0.0374505 0)
(0.972346 0.0354508 0)
(0.955676 0.0245781 0)
(0.939019 0.0111459 0)
(0.928063 0.0042615 0)
(0.920243 0.0020819 0)
(0.91314 0.00265206 0)
(0.908105 0.00482303 0)
(0.911684 0.0175712 0)
(0.923645 0.0397012 0)
(0.927504 0.0527038 0)
(0.925633 0.0560729 0)
(0.921404 0.0546962 0)
(0.916154 0.0529228 0)
(0.905878 0.0471906 0)
(0.884338 0.0302075 0)
(0.863744 0.0130609 0)
(0.849497 0.00425648 0)
(0.838075 0.0014436 0)
(0.829194 0.00210736 0)
(0.822958 0.00376163 0)
(0.824062 0.0134328 0)
(0.833733 0.0325563 0)
(0.837626 0.0454269 0)
(0.834926 0.0494118 0)
(0.828892 0.0490283 0)
(0.821208 0.0456143 0)
(0.809298 0.0373828 0)
(0.789624 0.0211083 0)
(0.765635 -0.000165755 0)
(0.746009 -0.015779 0)
(0.733207 -0.0249341 0)
(0.726789 -0.0284868 0)
(0.725703 -0.0272585 0)
(0.733106 -0.0201706 0)
(0.738688 -0.0189817 0)
(0.740961 -0.0284024 0)
(0.739744 -0.0379389 0)
(0.729151 -0.0475492 0)
(0.0428293 -0.109357 0)
(-1.26846 -0.0698007 0)
(1.17015 -0.121641 0)
(1.15798 -0.115978 0)
(1.15119 -0.0972741 0)
(1.15198 -0.0764556 0)
(1.15952 -0.0531173 0)
(1.16705 -0.0397235 0)
(1.1754 -0.0413993 0)
(1.17718 -0.053532 0)
(1.17327 -0.0665984 0)
(1.1652 -0.0804802 0)
(1.15275 -0.0917213 0)
(1.13421 -0.0936563 0)
(1.11577 -0.0829889 0)
(1.10558 -0.0704617 0)
(1.10142 -0.0634994 0)
(1.10139 -0.0546358 0)
(1.1165 -0.0394291 0)
(1.13996 -0.0304784 0)
(1.1485 -0.0332791 0)
(1.14559 -0.0380131 0)
(1.14057 -0.0423129 0)
(1.13122 -0.0482529 0)
(1.10884 -0.0526586 0)
(1.08255 -0.0491398 0)
(1.06941 -0.0427556 0)
(1.06492 -0.0378778 0)
(1.06194 -0.0340416 0)
(1.06105 -0.0308802 0)
(1.07642 -0.0281808 0)
(1.10043 -0.0265667 0)
(1.10561 -0.0242784 0)
(1.10194 -0.0224763 0)
(1.09762 -0.0203475 0)
(1.08808 -0.0155559 0)
(1.06624 -0.00852011 0)
(1.04401 -0.00673918 0)
(1.03288 -0.00912607 0)
(1.02797 -0.0125089 0)
(1.02467 -0.0169195 0)
(1.02516 -0.0242556 0)
(1.03191 -0.0276671 0)
(1.04366 -0.0211173 0)
(1.04788 -0.00999003 0)
(1.04524 -0.000950726 0)
(1.03847 0.0109172 0)
(1.03171 0.0195806 0)
(1.02591 0.0226644 0)
(1.01625 0.0183953 0)
(1.00346 0.00624694 0)
(0.993218 -0.00598787 0)
(0.985901 -0.0129379 0)
(0.979926 -0.0141657 0)
(0.972791 -0.0117915 0)
(0.968113 -0.00581763 0)
(0.973387 0.0120761 0)
(0.982377 0.0323855 0)
(0.984553 0.0411559 0)
(0.98291 0.0420477 0)
(0.98037 0.0393411 0)
(0.976586 0.0356595 0)
(0.968559 0.0285207 0)
(0.950118 0.0136891 0)
(0.932789 0.00288471 0)
(0.92015 2.4929e-05 0)
(0.90927 0.00272292 0)
(0.901044 0.00711077 0)
(0.896213 0.0111055 0)
(0.902179 0.0245826 0)
(0.916368 0.0440633 0)
(0.922085 0.052114 0)
(0.920402 0.0530575 0)
(0.9157 0.0515031 0)
(0.909844 0.049933 0)
(0.898532 0.0435585 0)
(0.875753 0.0261442 0)
(0.85328 0.0108651 0)
(0.83752 0.00436677 0)
(0.82606 0.00220733 0)
(0.818342 0.00221615 0)
(0.813274 0.00268828 0)
(0.816545 0.0102395 0)
(0.827822 0.0264189 0)
(0.832912 0.0355157 0)
(0.830648 0.0375243 0)
(0.823965 0.0375981 0)
(0.814736 0.0349065 0)
(0.801608 0.0280039 0)
(0.781952 0.0143353 0)
(0.757583 -0.00580193 0)
(0.738571 -0.0216436 0)
(0.727551 -0.0328438 0)
(0.722799 -0.0378086 0)