/*--------------------------------*- C++ -*----------------------------------*\
  =========                 |
  \\      /  F ield         | OpenFOAM: The Open Source CFD Toolbox
   \\    /   O peration     | Website:  https://openfoam.org
    \\  /    A nd           | Version:  12
     \\/     M anipulation  |
\*---------------------------------------------------------------------------*/
FoamFile
{
    format      ascii;
    class       volVectorField;
    location    "4.975";
    object      U;
}
// * * * * * * * * * * * * * * * * * * * * * * * * * * * * * * * * * * * * * //

dimensions      [0 1 -1 0 0 0 0];

internalField   nonuniform List<vector> 
46253
(
(0.916749 -0.0046526 0)
(0.893278 0.000311387 0)
(0.773569 0.00103104 0)
(0.893865 0.000382088 0)
(0.776827 0.00202161 0)
(0.779529 0.000717434 0)
(0.993398 0.00523198 0)
(1.13649 0.00984973 0)
(0.896952 0.000409764 0)
(0.897455 0.000527008 0)
(0.913013 -0.00376158 0)
(1.08738 -0.07256 0)
(0.912662 0.000360367 0)
(0.912366 0.000206107 0)
(0.900115 0.0113775 0)
(0.898884 0.00033834 0)
(0.899583 0.000392195 0)
(0.906993 0.00051367 0)
(0.906247 0.00046779 0)
(0.902745 0.000303699 0)
(0.903148 0.000378706 0)
(0.7837 0.00321609 0)
(0.91468 0.00161303 0)
(0.934275 -0.00105659 0)
(0.838687 -0.0064676 0)
(0.895681 0.000452507 0)
(0.900979 0.000235793 0)
(0.901431 0.000314362 0)
(0.895224 0.000352581 0)
(1.12529 -0.0123184 0)
(0.931102 0.0413964 0)
(0.918806 0.000213163 0)
(0.919041 0.000370062 0)
(0.904412 0.000407943 0)
(0.904803 0.000524482 0)
(0.867429 0.00301492 0)
(0.910687 8.40971e-05 0)
(0.911051 0.000118435 0)
(0.944334 -0.0139347 0)
(0.917909 0.000418539 0)
(1.01511 -0.0259634 0)
(1.09827 -0.0746172 0)
(0.91692 9.63697e-06 0)
(0.917521 8.52854e-06 0)
(1.22329 -0.103249 0)
(0.908725 0.00016057 0)
(0.909384 0.000190974 0)
(0.891056 0.00809752 0)
(0.922438 0.000207978 0)
(0.92364 0.000149629 0)
(0.925489 0.000349669 0)
(0.926089 0.000206016 0)
(0.792489 0.00182478 0)
(0.893589 0.0279781 0)
(0.764413 0.0107626 0)
(1.06673 -0.035694 0)
(0.928741 0.000765899 0)
(0.928191 0.00154303 0)
(0.859519 0.0627075 0)
(1.01901 -0.0150677 0)
(0.862304 0.00440966 0)
(0.94431 -0.0218847 0)
(0.870344 0.00114285 0)
(0.900689 0.00511463 0)
(0.899785 0.000854552 0)
(0.914336 0.000295513 0)
(0.915155 0.000345587 0)
(0.788354 0.000522633 0)
(1.06315 -0.0363928 0)
(1.1563 -0.091864 0)
(1.03097 -0.00184321 0)
(0.929029 0.00311357 0)
(0.930281 0.00266844 0)
(1.02511 -0.0105118 0)
(0.795783 0.00176676 0)
(0.945597 -0.000833222 0)
(0.934911 0.00423421 0)
(0.934655 0.00294476 0)
(0.880056 0.00676573 0)
(0.920084 0.000261886 0)
(0.920585 0.000317133 0)
(0.93105 0.0063056 0)
(0.791158 0.00223056 0)
(0.931993 0.00600963 0)
(1.10105 -0.00247411 0)
(0.799455 0.00134265 0)
(0.945423 0.000720834 0)
(0.945838 0.000385382 0)
(1.04671 -0.00365231 0)
(0.865949 -0.00076133 0)
(0.919613 -0.000192343 0)
(1.10341 -0.0184032 0)
(0.800552 0.00100587 0)
(0.927527 0.000123282 0)
(0.909863 0.00292014 0)
(0.927774 0.000466209 0)
(0.801059 0.00118577 0)
(0.8959 0.00427807 0)
(0.861673 0.061436 0)
(0.866385 0.00416574 0)
(0.919656 5.60002e-05 0)
(0.802011 0.00087319 0)
(0.798617 0.00033471 0)
(0.931979 0.0408487 0)
(0.766659 0.0065556 0)
(1.02206 0.000757874 0)
(1.12493 -0.0629369 0)
(0.961125 0.000602788 0)
(0.961868 0.000415433 0)
(1.1129 -0.0597118 0)
(0.948713 -0.0219593 0)
(0.930735 0.00375062 0)
(0.930182 0.00507255 0)
(0.894895 0.0121215 0)
(0.881623 0.0103859 0)
(1.01933 0.00241613 0)
(1.10657 -0.089436 0)
(0.963041 -0.0194619 0)
(0.761112 0.0617594 0)
(1.07078 -0.03218 0)
(0.92005 -0.000101984 0)
(0.781866 0.00155962 0)
(0.932309 0.00632227 0)
(0.932059 0.00742579 0)
(0.804929 0.000348303 0)
(0.753965 0.0559824 0)
(0.862249 0.0040068 0)
(1.07946 -0.0431254 0)
(0.750681 0.0100998 0)
(0.936188 0.00341693 0)
(0.971859 -0.000227154 0)
(0.971873 -0.000424136 0)
(0.781734 0.00277207 0)
(0.917021 -0.00195784 0)
(0.935661 0.00243656 0)
(0.91188 -0.00654743 0)
(0.939462 0.00122191 0)
(0.940124 0.00137787 0)
(1.07553 -0.0344676 0)
(0.902195 -0.000590805 0)
(0.934036 0.00450452 0)
(0.979695 3.63794e-05 0)
(0.979733 -0.000153647 0)
(0.939849 0.038371 0)
(0.933426 0.00550637 0)
(0.75688 0.00855451 0)
(0.943016 0.000571189 0)
(0.943725 0.000584365 0)
(0.949705 -0.0135649 0)
(0.864578 -0.00136092 0)
(1.11374 -0.0549495 0)
(0.794142 0.000425578 0)
(0.936865 0.00231886 0)
(0.937938 0.00184965 0)
(0.958557 0.029612 0)
(1.0879 -0.0747413 0)
(1.09426 -0.0475736 0)
(0.868547 0.00761814 0)
(0.949104 0.00015511 0)
(0.766753 0.00821757 0)
(0.94944 3.81979e-05 0)
(1.13507 -0.0647004 0)
(1.0695 -0.0383017 0)
(0.902007 0.00970589 0)
(0.888478 -0.00162588 0)
(0.941032 0.000932114 0)
(0.923844 -0.00931564 0)
(0.941159 0.000754794 0)
(0.692752 0.0398316 0)
(0.864677 0.00437 0)
(0.954265 0.000244201 0)
(0.954828 0.000193351 0)
(0.78636 0.00251741 0)
(0.786844 0.0265655 0)
(0.770428 0.00429712 0)
(0.797855 -0.0715304 0)
(1.02224 -0.0168595 0)
(0.800516 0.00205078 0)
(1.10438 -0.0115348 0)
(1.10406 -0.096251 0)
(0.770401 0.00238784 0)
(0.959705 0.0289623 0)
(0.958076 -8.47634e-06 0)
(0.958786 -0.000170894 0)
(0.841851 0.000929274 0)
(0.947106 0.00014567 0)
(0.947615 0.000242799 0)
(1.12368 -0.107282 0)
(0.842139 0.00054872 0)
(0.842487 0.000623301 0)
(0.794852 0.00154223 0)
(0.848676 0.000242344 0)
(0.966616 -0.0206294 0)
(0.848585 0.000276308 0)
(0.837992 0.000382856 0)
(0.838011 0.000398028 0)
(0.945583 -0.0258092 0)
(0.805059 0.00065223 0)
(1.01939 -0.000913816 0)
(1.01996 -0.00115196 0)
(0.889906 0.00542094 0)
(0.858969 0.00417869 0)
(0.951844 0.000658452 0)
(0.952699 0.000692937 0)
(0.862359 -0.00181678 0)
(1.06781 -0.0783889 0)
(0.964672 0.027875 0)
(0.964629 -0.000155994 0)
(0.964968 -0.000404476 0)
(0.864396 0.00572322 0)
(0.881317 0.00650741 0)
(0.759403 0.0676321 0)
(0.845439 0.0217562 0)
(0.798871 0.00109922 0)
(1.1046 0.0020695 0)
(0.804836 0.000818638 0)
(0.943156 0.0377712 0)
(1.11861 -0.0230075 0)
(0.970365 -9.03732e-05 0)
(0.786641 0.00127971 0)
(0.789947 0.00115059 0)
(0.970995 -7.90405e-05 0)
(0.795168 -0.0766988 0)
(0.955693 -0.000140913 0)
(0.956022 -7.56906e-06 0)
(1.13024 -0.00879438 0)
(0.803446 0.00124935 0)
(0.802313 0.00138437 0)
(1.03016 -0.00177394 0)
(1.03113 -0.00150391 0)
(0.891481 0.0553155 0)
(0.920063 -2.93688e-06 0)
(0.869275 0.00147188 0)
(0.864556 0.00113025 0)
(0.805186 0.000426178 0)
(0.907829 0.00244648 0)
(0.839418 0.000250815 0)
(0.875288 0.00777641 0)
(0.894006 0.0541633 0)
(0.882739 0.057314 0)
(0.804527 0.000838353 0)
(0.802221 0.0010718 0)
(0.803733 0.000895918 0)
(0.839136 0.000237166 0)
(0.909596 0.00710644 0)
(0.797032 0.00126022 0)
(0.873771 0.0076428 0)
(0.967687 0.0262221 0)
(0.803496 0.000648638 0)
(0.977331 -0.00033335 0)
(0.978075 -0.00020203 0)
(0.884696 0.0566887 0)
(1.04086 -0.00344951 0)
(0.801291 0.00120527 0)
(1.04209 -0.00248395 0)
(0.963364 0.000136583 0)
(0.963382 0.00024245 0)
(1.05372 -0.0277839 0)
(0.865945 -0.0106551 0)
(0.79726 5.43136e-05 0)
(0.966296 0.00293246 0)
(1.06626 -0.0185593 0)
(1.08364 -0.060174 0)
(0.936902 0.0399179 0)
(0.974152 -0.0200652 0)
(0.848855 0.00371899 0)
(0.890316 0.01081 0)
(0.875109 0.00901429 0)
(0.967214 3.76006e-05 0)
(0.983129 -0.000460052 0)
(0.96857 8.80354e-05 0)
(0.802985 0.00110759 0)
(0.882168 0.00640017 0)
(0.92001 2.62935e-06 0)
(0.983986 -0.000611552 0)
(0.804454 0.000924767 0)
(0.758946 0.0118714 0)
(0.865509 0.00646834 0)
(0.92234 0.0249461 0)
(1.0477 -0.0192724 0)
(1.0517 -0.00146955 0)
(1.05888 0.000142102 0)
(0.797499 0.000642368 0)
(0.799353 0.000603721 0)
(0.875571 0.00835851 0)
(0.961691 -0.0271103 0)
(1.01717 -0.0150442 0)
(1.06361 -0.0296982 0)
(0.945241 0.0355614 0)
(0.859719 0.00261403 0)
(0.866529 0.0608325 0)
(0.867941 0.0600266 0)
(1.12561 -0.017254 0)
(0.877086 0.00762949 0)
(0.871034 0.0600913 0)
(0.912234 0.0481753 0)
(0.801739 0.00163253 0)
(0.91428 0.0483666 0)
(1.03811 0.00233374 0)
(0.988515 -0.000295699 0)
(0.767343 0.0698542 0)
(0.989187 -0.000415908 0)
(1.07304 -0.0450204 0)
(0.76913 0.0514948 0)
(0.842396 -8.74805e-05 0)
(0.97354 -0.000641672 0)
(0.974919 -0.000217369 0)
(0.865335 0.00561193 0)
(0.935392 0.0413724 0)
(0.842183 0.00055866 0)
(0.842491 0.000700114 0)
(1.08131 -0.0315161 0)
(0.878179 0.00430598 0)
(0.993135 -0.000667572 0)
(0.832702 -0.00217221 0)
(0.993467 -0.000757369 0)
(1.07681 -0.0373318 0)
(0.872049 0.0595893 0)
(0.863645 -4.20599e-05 0)
(0.917699 0.0327308 0)
(1.09471 -0.0476002 0)
(0.845081 -0.00162532 0)
(0.910494 -0.00258267 0)
(0.848404 -0.0192682 0)
(0.926591 -0.0183365 0)
(0.947446 0.0351062 0)
(0.849656 -0.000488904 0)
(0.8062 0.000163216 0)
(0.997346 -0.000428466 0)
(0.998186 -0.000853954 0)
(0.890399 0.0013101 0)
(0.891507 -0.000294298 0)
(0.842134 -4.03446e-06 0)
(0.923861 0.00571697 0)
(0.854964 -0.000102199 0)
(0.948727 -0.0198573 0)
(1.05164 -0.0285072 0)
(0.980616 -0.000679285 0)
(0.981381 -0.000358127 0)
(0.848011 0.00332644 0)
(0.792794 0.000969354 0)
(0.795313 0.000825411 0)
(0.879922 0.010152 0)
(0.759926 0.0397971 0)
(0.855674 0.00142242 0)
(1.00312 -0.000957922 0)
(1.00302 -0.00115269 0)
(0.877216 0.00860862 0)
(1.06484 -0.0348021 0)
(0.800895 0.00217351 0)
(0.880531 -0.0108573 0)
(0.865306 0.00187311 0)
(1.07079 -0.0840227 0)
(0.897126 0.0185216 0)
(1.12785 -0.0636373 0)
(0.840211 -0.00228485 0)
(0.985899 -0.000308286 0)
(0.86601 0.00344985 0)
(0.98673 -0.000166269 0)
(0.868276 -0.000997757 0)
(1.11374 -0.0614673 0)
(0.843417 -2.10663e-05 0)
(0.81392 -0.00125393 0)
(0.843082 -4.76878e-05 0)
(0.842577 0.000580003 0)
(0.824746 -0.00445197 0)
(0.826018 -0.00460179 0)
(0.826237 -0.00460573 0)
(1.0062 -0.000522392 0)
(0.82826 -0.00495792 0)
(0.832435 -0.00378281 0)
(0.831349 -0.00416054 0)
(0.83144 -0.00388943 0)
(1.00804 -0.000779776 0)
(0.825314 -0.00472323 0)
(0.87606 0.0592645 0)
(1.07733 -0.0353445 0)
(0.803642 0.000863865 0)
(0.830711 -0.00479362 0)
(0.861267 0.00431726 0)
(1.04494 -0.0251657 0)
(0.980114 -0.0218489 0)
(1.09279 -0.0463931 0)
(0.991004 -0.00025647 0)
(1.00966 0.00693156 0)
(0.991581 -0.000278835 0)
(0.854048 0.000754478 0)
(0.909286 0.00225622 0)
(1.01283 -0.00138226 0)
(0.735964 0.0583244 0)
(0.841504 0.00065688 0)
(0.945068 0.0360986 0)
(1.01199 -0.00170652 0)
(0.983561 -0.0182773 0)
(0.855594 0.000810987 0)
(1.08294 0.0136342 0)
(0.971914 0.0235253 0)
(0.973813 0.0251881 0)
(0.794562 0.000281363 0)
(1.0082 -0.00346397 0)
(0.903581 0.00563188 0)
(0.918694 0.0026032 0)
(0.919818 0.00120454 0)
(0.878129 0.0579967 0)
(0.804254 0.000551989 0)
(0.834834 0.0293945 0)
(0.838225 0.000159378 0)
(0.861887 -0.000927066 0)
(0.920026 -6.49605e-05 0)
(0.855563 0.000425341 0)
(0.809115 0.000652345 0)
(0.842064 0.000577914 0)
(0.783122 0.0652102 0)
(0.841878 0.000823061 0)
(1.01829 -0.00310367 0)
(0.835668 0.0252435 0)
(0.955013 -0.0216184 0)
(0.804837 0.000562889 0)
(0.86001 0.000245211 0)
(1.06307 -0.0298888 0)
(0.835009 0.0255785 0)
(0.914138 0.00229131 0)
(1.0161 -0.000549693 0)
(0.862387 0.000193678 0)
(0.994759 -0.000908632 0)
(0.862346 0.00018283 0)
(0.866506 0.00712621 0)
(1.01724 -0.000649206 0)
(0.995257 -0.000579384 0)
(0.845187 8.73624e-05 0)
(1.04574 -0.0196515 0)
(0.866766 0.00588598 0)
(0.899436 0.00474179 0)
(0.837261 0.000351497 0)
(0.837028 0.000362937 0)
(1.03525 -0.0107248 0)
(0.867263 0.00790101 0)
(0.842925 0.000889082 0)
(0.838295 0.00019261 0)
(0.907342 0.0137623 0)
(1.0913 -0.0480253 0)
(0.830268 0.0252414 0)
(1.0193 -0.000918512 0)
(0.844826 2.99123e-05 0)
(1.03295 -0.00958957 0)
(0.957724 0.0304287 0)
(0.8484 0.000333253 0)
(0.794922 -0.000291132 0)
(1.05465 -0.0291878 0)
(0.867643 0.00683717 0)
(1.04698 -0.0213075 0)
(1.00596 -0.00240245 0)
(0.910122 -0.012915 0)
(0.953335 -0.021954 0)
(0.920026 4.01882e-06 0)
(0.8376 0.0312314 0)
(0.862008 -0.0101454 0)
(0.837323 0.0288807 0)
(1.00097 -0.000260525 0)
(1.01365 -0.0106771 0)
(0.806609 -0.00247051 0)
(1.02292 -0.0119992 0)
(1.02265 -0.0101482 0)
(1.00178 -0.000283679 0)
(0.82903 -0.00507644 0)
(1.03419 -0.0117219 0)
(0.800857 0.00170357 0)
(0.842113 0.00205034 0)
(0.835358 0.0263148 0)
(0.830651 -0.00417774 0)
(0.841757 0.00197355 0)
(1.04514 -0.0152388 0)
(0.893651 -0.00122014 0)
(0.856625 -0.0241999 0)
(1.08079 -0.0447933 0)
(1.02414 -0.00076127 0)
(1.05495 -0.0233359 0)
(0.970632 0.0256082 0)
(1.0247 -0.000868889 0)
(1.02867 -0.0132307 0)
(0.92386 0.00191292 0)
(0.930921 0.00260262 0)
(0.867064 0.00759693 0)
(0.803608 0.00116239 0)
(0.803692 0.00098264 0)
(0.866612 0.00351016 0)
(0.745977 0.00754022 0)
(0.874007 0.00831367 0)
(1.0523 -0.018464 0)
(1.13427 -0.0159851 0)
(1.10545 -0.081355 0)
(1.05011 -0.0193008 0)
(1.02478 -0.0129645 0)
(0.967782 -0.0200751 0)
(1.02273 -0.0111342 0)
(0.915846 0.000883841 0)
(0.83496 -0.00314206 0)
(1.00341 -0.00122069 0)
(1.01473 -0.00294052 0)
(1.08731 -0.0618642 0)
(1.00386 -0.000671402 0)
(1.02829 -0.00138459 0)
(1.0289 -0.00197393 0)
(0.911997 -0.00698651 0)
(0.851643 -0.0258556 0)
(0.820022 -0.00313046 0)
(0.924327 -0.00560895 0)
(0.933619 0.0404676 0)
(0.860611 -0.00100417 0)
(0.919987 8.29906e-05 0)
(0.798231 -0.0021006 0)
(1.05041 -0.00243106 0)
(0.832684 0.023666 0)
(0.98592 0.0312976 0)
(0.949681 -0.0192924 0)
(0.861912 0.000138592 0)
(0.841885 0.000498638 0)
(1.03097 -0.00795903 0)
(0.821416 -0.00181017 0)
(0.906636 0.0114692 0)
(0.943062 -0.0186145 0)
(0.803313 -0.0542009 0)
(1.01439 -0.00404974 0)
(0.800724 0.000816706 0)
(0.795188 0.000332156 0)
(1.01291 -0.00379325 0)
(0.826904 -0.0050843 0)
(1.01476 -0.00477174 0)
(1.01823 -0.000822758 0)
(1.01364 -0.0044738 0)
(0.879448 0.0128889 0)
(0.947997 -0.0204245 0)
(0.969686 -0.0217523 0)
(0.872029 0.00809107 0)
(1.01348 -0.0115823 0)
(1.01149 -0.00343752 0)
(0.858276 0.000670829 0)
(0.865134 0.00193841 0)
(1.01138 -0.000506675 0)
(0.844122 0.00451343 0)
(0.956029 -0.000485615 0)
(1.06519 -0.0258995 0)
(0.861005 0.000172082 0)
(0.851296 0.000132172 0)
(1.01198 -0.000588715 0)
(0.862386 0.00236887 0)
(0.865172 -0.00410217 0)
(0.841892 0.015931 0)
(0.841167 0.0158159 0)
(1.15012 -0.079673 0)
(0.844284 0.0172978 0)
(0.84332 0.0171887 0)
(1.03622 -0.000276711 0)
(1.0441 -0.0209717 0)
(1.03698 -0.000559461 0)
(0.960339 -0.00833326 0)
(0.851524 0.0200199 0)
(0.850918 0.0199404 0)
(0.856221 0.0208562 0)
(0.855044 0.0208358 0)
(0.799495 0.00103814 0)
(0.831625 0.0272301 0)
(0.859815 -0.000255566 0)
(1.02511 -0.0110435 0)
(1.13299 -0.0745523 0)
(0.844352 0.000751341 0)
(0.83979 0.000472463 0)
(0.861629 -0.000295114 0)
(0.835005 0.0236298 0)
(0.844828 0.00175992 0)
(0.83875 0.000410631 0)
(0.955824 0.00136717 0)
(0.944304 0.0369518 0)
(0.900774 -0.00761857 0)
(0.950208 0.0336644 0)
(0.841832 0.00139571 0)
(0.851953 0.00154928 0)
(1.07146 -0.0429185 0)
(0.844797 0.00489751 0)
(0.842949 0.00150936 0)
(0.844244 0.00265113 0)
(1.01299 -0.00137401 0)
(0.846782 0.00397417 0)
(0.839676 0.00111667 0)
(1.01394 -0.000602889 0)
(0.954872 0.0325789 0)
(0.926527 0.0255363 0)
(0.823 -0.00436998 0)
(0.924443 0.0257922 0)
(0.924268 0.0256676 0)
(0.921247 0.0257257 0)
(0.954214 0.00287801 0)
(0.840645 0.00125884 0)
(1.03947 -0.00205825 0)
(1.03981 -0.00237933 0)
(0.94686 0.0377669 0)
(0.983617 -2.90253e-05 0)
(0.844955 0.00308839 0)
(0.848048 0.000326771 0)
(1.01679 -0.0141685 0)
(0.853295 0.000689625 0)
(0.765659 0.0479555 0)
(1.12815 -0.0500089 0)
(0.835369 0.0244961 0)
(0.765913 0.0542267 0)
(0.833427 0.0302825 0)
(0.830266 -0.00411267 0)
(0.937588 0.0397477 0)
(0.932716 0.0415512 0)
(0.836753 -0.00307433 0)
(0.825496 -0.0048796 0)
(1.00771 -0.00745938 0)
(1.02028 -0.0094751 0)
(0.830116 -0.00450913 0)
(0.855668 0.000778528 0)
(0.979145 0.0220774 0)
(0.862277 0.0219269 0)
(0.860655 0.0219805 0)
(0.865008 0.0224225 0)
(0.864387 0.0225189 0)
(0.871086 0.0229946 0)
(0.869981 0.0230684 0)
(0.873922 0.0230944 0)
(0.87288 0.0232316 0)
(1.04924 -0.129746 0)
(1.02535 -0.0109479 0)
(0.880166 0.0234106 0)
(0.96596 -0.0186029 0)
(0.879488 0.0234555 0)
(0.884534 0.0231764 0)
(0.827737 -0.00519578 0)
(0.947595 -0.00245349 0)
(0.955539 0.0023557 0)
(0.882549 0.0234868 0)
(0.824381 -0.00422252 0)
(0.888972 0.0230003 0)
(0.858975 0.00070869 0)
(0.888753 0.0231024 0)
(0.892361 0.0178704 0)
(1.0315 -0.00868769 0)
(0.895314 0.022806 0)
(0.868602 0.000641342 0)
(0.894014 0.0230971 0)
(0.814076 0.0667298 0)
(0.828919 -0.000809597 0)
(0.89868 0.0221144 0)
(0.836723 0.000351968 0)
(0.897755 0.0222106 0)
(0.836517 0.000338071 0)
(1.11586 -0.075051 0)
(0.868507 0.000662056 0)
(1.0387 -0.0205988 0)
(0.951937 0.00176891 0)
(0.843766 0.000674483 0)
(0.843339 0.000639173 0)
(0.90543 0.0218169 0)
(0.90487 0.0221103 0)
(0.815009 -0.00238749 0)
(1.0197 -0.00555004 0)
(0.910188 0.0209396 0)
(0.908496 0.0211633 0)
(0.979997 0.0198778 0)
(0.806096 0.000289791 0)
(0.80567 0.000387796 0)
(0.918226 0.019726 0)
(1.05079 -0.000793755 0)
(0.91674 0.0200011 0)
(0.828206 -0.00191156 0)
(1.02137 -0.00164102 0)
(0.923036 0.0186647 0)
(1.08494 -0.0468442 0)
(0.922546 0.0189299 0)
(1.05181 -3.73123e-05 0)
(1.0222 -0.00103063 0)
(0.828986 -0.00279783 0)
(0.843621 0.00161023 0)
(0.843899 0.00169206 0)
(0.929242 0.0180779 0)
(0.928491 0.0183067 0)
(0.919196 0.0183625 0)
(0.829401 -0.00318755 0)
(0.829868 -0.00359391 0)
(0.933877 0.0163786 0)
(1.04567 -0.0169107 0)
(0.932528 0.0165988 0)
(1.09035 -0.0485793 0)
(0.826807 -0.00458195 0)
(0.941739 0.014753 0)
(0.940746 0.0150988 0)
(0.84264 0.00220658 0)
(0.840789 0.00167124 0)
(0.842345 0.00212519 0)
(0.950703 -0.0250508 0)
(0.840423 0.00158321 0)
(1.01021 -0.00350734 0)
(0.990848 -0.00111622 0)
(0.930069 0.0425592 0)
(0.804577 0.000866074 0)
(0.949205 0.0127235 0)
(0.852901 0.00148987 0)
(0.948366 0.0128909 0)
(0.853124 0.00166102 0)
(0.832389 -0.0059677 0)
(1.01176 -0.00172882 0)
(1.01112 -0.00302163 0)
(0.956458 0.0117575 0)
(0.956352 0.0120592 0)
(1.0278 -0.011896 0)
(1.02119 -0.00196027 0)
(0.960818 0.00935027 0)
(1.01902 -0.00146918 0)
(0.959313 0.00982448 0)
(0.803416 0.000960716 0)
(0.970894 0.0237446 0)
(0.968611 0.00716003 0)
(0.966839 0.00765771 0)
(0.841531 0.000916639 0)
(1.05313 -0.0286796 0)
(0.973238 0.00620515 0)
(0.97504 0.00621874 0)
(0.68778 0.0261155 0)
(0.865347 0.00249962 0)
(0.865259 0.00255853 0)
(0.841948 0.000501137 0)
(0.982491 0.00439221 0)
(1.02756 -0.012487 0)
(0.978384 0.00458557 0)
(0.880525 -0.0129144 0)
(0.985189 -0.00177036 0)
(1.01326 -0.0122956 0)
(1.10089 -0.0583257 0)
(0.981237 0.00209176 0)
(0.983198 0.00242987 0)
(0.990523 -0.00188236 0)
(0.994511 0.00120008 0)
(0.992089 0.00125135 0)
(1.07044 -0.0354516 0)
(1.06379 -0.0354677 0)
(0.848858 0.0189924 0)
(0.98194 -0.00400177 0)
(0.758779 0.0453221 0)
(1.04732 -0.00234423 0)
(0.860546 -0.000737922 0)
(1.07647 -0.0530812 0)
(1.04743 -0.00369266 0)
(1.08604 -0.0455264 0)
(0.990234 -0.00375266 0)
(0.951918 -0.00291106 0)
(0.85738 0.0213321 0)
(0.847652 0.0189616 0)
(0.856828 0.0212067 0)
(1.02675 -0.000262401 0)
(0.852857 0.00156906 0)
(0.845541 0.0178414 0)
(0.853166 0.00159425 0)
(0.814979 0.000512944 0)
(0.844874 0.0177856 0)
(1.02692 -0.000416626 0)
(0.818186 1.19817e-05 0)
(0.849749 0.0195544 0)
(0.850536 0.0195628 0)
(1.06617 -0.0271644 0)
(1.07618 -0.0359875 0)
(0.827108 -0.00483889 0)
(0.974356 0.0231035 0)
(0.928633 -0.111564 0)
(0.953706 0.00100864 0)
(0.874413 0.00786289 0)
(0.867649 -0.00162554 0)
(0.852902 0.000292962 0)
(0.831357 0.0265046 0)
(0.91721 0.00179037 0)
(0.970795 -0.0197664 0)
(0.851882 0.0015267 0)
(1.03282 -0.0101292 0)
(0.833817 0.0243224 0)
(0.931076 0.0224729 0)
(0.952015 -0.01859 0)
(0.930135 0.0220913 0)
(1.07978 -0.0432347 0)
(0.841697 0.000514785 0)
(0.994261 -0.0215296 0)
(1.07302 -0.035667 0)
(0.923081 0.0252096 0)
(0.833028 0.026574 0)
(0.871562 0.00837754 0)
(0.816961 -0.00261511 0)
(0.91588 0.000859605 0)
(0.852665 4.87329e-05 0)
(0.929084 0.021567 0)
(0.927963 0.0224267 0)
(0.973621 -0.0225961 0)
(0.942642 -0.000354415 0)
(0.942313 -0.00146205 0)
(0.830381 -0.00416138 0)
(1.03993 -0.0217948 0)
(0.8578 0.000487087 0)
(0.832485 -0.00400535 0)
(0.927293 0.0221762 0)
(0.999711 -0.00329117 0)
(0.835366 0.0291157 0)
(1.09689 0.000853671 0)
(0.835445 0.0302031 0)
(0.834556 0.0281831 0)
(0.972159 0.0240547 0)
(0.972272 0.0256188 0)
(0.827108 -0.00517708 0)
(0.926494 0.021694 0)
(1.06894 -0.0455205 0)
(1.02471 -0.0134298 0)
(0.829171 -5.52799e-05 0)
(1.02207 -0.0115542 0)
(1.0583 -0.00230956 0)
(0.829594 -2.30244e-05 0)
(0.833257 0.0275128 0)
(1.03325 -0.0111117 0)
(1.03086 -0.00776841 0)
(0.833606 0.026246 0)
(1.05572 -0.00318853 0)
(0.845433 -0.0358779 0)
(0.829768 0.0254362 0)
(0.898295 0.00860379 0)
(0.913202 0.0207772 0)
(0.91234 0.0209674 0)
(1.02675 -0.0107045 0)
(0.850784 6.48734e-05 0)
(0.847481 -0.0354428 0)
(0.844013 -0.0314213 0)
(1.07894 0.0249968 0)
(0.947683 -0.0273266 0)
(0.842543 0.000581645 0)
(1.01588 -0.00432843 0)
(1.04319 -0.0139037 0)
(1.07165 -0.0436814 0)
(0.81914 0.0669904 0)
(0.798329 -0.000556652 0)
(0.823061 -0.00141404 0)
(0.830633 -5.99977e-05 0)
(0.937493 0.0163057 0)
(0.936287 0.0163215 0)
(0.859008 0.0214832 0)
(0.831255 0.0304204 0)
(0.866272 -0.00069494 0)
(1.03278 -0.00146541 0)
(0.945722 0.0141623 0)
(0.895642 -0.00735775 0)
(0.830627 0.0308159 0)
(0.944517 0.0144661 0)
(1.03429 -0.00040698 0)
(1.02024 -0.0113956 0)
(1.0185 -0.0121981 0)
(0.86143 0.005849 0)
(1.03439 -0.0104559 0)
(1.00853 -0.00282222 0)
(1.07667 -0.0541844 0)
(1.03456 -0.0109748 0)
(1.08273 -0.0469162 0)
(0.964246 0.00914048 0)
(0.842574 0.000889949 0)
(0.842942 0.000747561 0)
(0.963192 0.00907907 0)
(0.843282 0.00206546 0)
(0.841217 0.000829334 0)
(1.03164 -0.00796308 0)
(1.03217 -0.0095518 0)
(0.841833 0.000636983 0)
(1.06618 -0.000696096 0)
(1.07463 -0.035012 0)
(1.02005 -0.00458768 0)
(1.06359 -0.0321232 0)
(1.05049 -0.0284868 0)
(1.06857 -0.000401546 0)
(1.06126 -0.0365139 0)
(1.06474 -0.0368153 0)
(1.08359 -0.0496611 0)
(1.08149 -0.0486815 0)
(0.883204 0.000317432 0)
(0.816393 0.0180918 0)
(0.920155 0.00866819 0)
(0.815795 0.018307 0)
(0.884235 0.00016214 0)
(1.03116 -0.0107659 0)
(1.07016 -0.0325251 0)
(1.05853 -0.0343725 0)
(0.828376 -0.00140389 0)
(0.842354 0.00055463 0)
(1.00546 -0.00274353 0)
(0.805314 0.000598155 0)
(1.0173 -0.00380205 0)
(1.00749 -0.00219094 0)
(0.83669 0.0306585 0)
(0.837169 0.0315837 0)
(0.960713 0.00193128 0)
(0.836863 0.0293059 0)
(0.874073 0.00860501 0)
(0.836617 0.0281978 0)
(0.828561 -0.00494076 0)
(1.02889 -0.00879942 0)
(1.02127 -0.00137608 0)
(0.943183 -0.000399726 0)
(0.847626 -0.0339857 0)
(0.838352 -0.00210397 0)
(1.03931 -0.000180546 0)
(0.863758 0.00244953 0)
(1.00706 -0.00617991 0)
(1.01155 -0.00691294 0)
(1.03893 -0.00106749 0)
(0.831711 0.0253684 0)
(1.01234 -0.00755286 0)
(1.02627 -0.00960918 0)
(1.0088 -0.0071997 0)
(0.854871 0.00106269 0)
(0.854304 0.00112561 0)
(0.854651 0.00104526 0)
(0.855894 0.00124118 0)
(1.02088 -0.0087213 0)
(1.01566 -0.00461511 0)
(0.834726 5.03395e-05 0)
(0.982632 0.0183994 0)
(0.834844 0.0265494 0)
(1.06226 -0.0370015 0)
(0.83485 1.96404e-05 0)
(1.06472 -0.036594 0)
(0.922491 -0.0015046 0)
(0.945018 0.00888773 0)
(0.828144 -0.00149079 0)
(1.06719 -0.00257297 0)
(1.0662 -0.00293501 0)
(0.959866 -0.0140782 0)
(0.78916 0.0670473 0)
(0.857992 0.0215441 0)
(1.05934 -0.0377822 0)
(1.00344 -0.0162279 0)
(1.00617 -0.00444428 0)
(1.05283 -0.0354849 0)
(0.853747 0.0203315 0)
(0.852297 0.0202892 0)
(1.02473 -0.010828 0)
(0.880401 -0.0121495 0)
(0.82863 -0.00112129 0)
(0.828384 -0.00119375 0)
(1.01798 -0.000875645 0)
(1.15748 -0.0910426 0)
(0.988049 0.000867433 0)
(1.01789 -0.0127884 0)
(0.858917 0.000633401 0)
(0.846763 0.0183869 0)
(0.805804 0.000267379 0)
(0.845989 0.0182816 0)
(0.852302 6.0883e-05 0)
(0.842872 0.0166043 0)
(0.738106 0.0498194 0)
(0.842202 0.0163717 0)
(0.950326 0.00515216 0)
(1.06585 -0.0374922 0)
(1.08211 -0.0443951 0)
(0.924496 0.00638588 0)
(0.877715 -0.0178078 0)
(0.847174 -0.0203606 0)
(0.853331 -0.0257361 0)
(1.07138 -0.0280776 0)
(0.994287 -0.00349963 0)
(0.938221 0.000109452 0)
(0.83869 -0.0363716 0)
(0.89696 0.0225661 0)
(0.891441 0.0227826 0)
(0.887801 0.0232152 0)
(0.902935 0.0220578 0)
(0.896668 0.0227859 0)
(0.859054 0.0056789 0)
(1.09832 0.00547868 0)
(0.889981 0.0229008 0)
(0.880869 0.0233845 0)
(0.901073 0.0223774 0)
(1.01965 -0.0126451 0)
(0.886772 0.0233851 0)
(0.917206 0.0206877 0)
(0.90668 0.0212237 0)
(0.880388 0.0233435 0)
(0.855379 0.000180095 0)
(0.878018 0.0232684 0)
(0.906144 0.0213904 0)
(0.876271 0.0234795 0)
(0.84333 0.00239487 0)
(0.915023 0.0201325 0)
(0.862885 0.0590436 0)
(0.872098 0.0232541 0)
(0.871813 0.0232149 0)
(0.91446 0.0203816 0)
(0.868086 0.0226545 0)
(0.867752 0.0257281 0)
(0.921224 0.0194364 0)
(0.866314 0.0227589 0)
(0.842956 0.000607454 0)
(0.864012 0.0222865 0)
(0.920423 0.0197163 0)
(0.803597 0.000790697 0)
(0.926089 0.0183169 0)
(0.863243 0.0223008 0)
(0.915183 0.000476143 0)
(0.831866 -0.00364051 0)
(0.885141 -0.00158433 0)
(0.924624 0.0184831 0)
(0.842919 0.00233097 0)
(0.838265 0.000390495 0)
(0.841474 0.00187814 0)
(0.930836 0.0170714 0)
(0.921194 0.0258633 0)
(0.840945 0.000797194 0)
(0.84109 0.00177095 0)
(0.837665 0.000387094 0)
(0.930659 0.017476 0)
(0.883948 0.00177093 0)
(0.871166 -0.0250836 0)
(0.939092 0.0156787 0)
(0.826858 -0.00480474 0)
(1.01897 -0.00102329 0)
(0.938969 0.0159121 0)
(0.947176 0.0136864 0)
(0.947221 0.0137861 0)
(1.06641 -0.0358017 0)
(0.954177 0.0120882 0)
(0.952359 0.0125401 0)
(0.95702 0.0104444 0)
(0.854691 0.000819265 0)
(0.932 -5.68315e-05 0)
(0.957126 0.0108501 0)
(0.828384 -0.00634869 0)
(0.965223 0.00830048 0)
(0.949926 0.00163515 0)
(0.828356 -0.00654861 0)
(0.863219 0.00244266 0)
(0.965234 0.00837666 0)
(1.03932 -0.0182384 0)
(0.888691 -0.0152793 0)
(0.973919 0.00686679 0)
(0.972613 0.00718605 0)
(0.973818 0.00461525 0)
(1.04503 -0.00151061 0)
(0.97303 0.00464074 0)
(0.868751 -0.0188815 0)
(0.985047 0.00426106 0)
(0.853812 0.00107684 0)
(1.0041 -0.00276413 0)
(1.04848 -0.000254513 0)
(0.985525 0.00430866 0)
(0.979173 0.0209947 0)
(0.991703 0.0159969 0)
(1.02836 -0.0110555 0)
(0.986044 0.000685428 0)
(1.00068 -0.00294052 0)
(1.00443 -0.0030804 0)
(0.974613 0.000177989 0)
(0.982746 0.00148012 0)
(0.992747 0.000657281 0)
(0.995785 0.000643592 0)
(0.949834 0.00184811 0)
(0.893856 -0.0171486 0)
(0.797397 -0.0478045 0)
(0.827032 -0.00532758 0)
(0.895984 -0.0165249 0)
(0.82961 -0.00466193 0)
(0.891431 -0.0184378 0)
(0.899797 -0.0151376 0)
(0.885778 -0.0206338 0)
(0.899358 0.0016779 0)
(0.755643 0.0522463 0)
(0.906548 0.00541806 0)
(0.873151 0.00957036 0)
(1.00125 0.00213805 0)
(0.969877 -0.00247047 0)
(0.946153 0.0367372 0)
(0.944233 0.0378772 0)
(0.827167 -0.00526869 0)
(1.00209 -0.00949389 0)
(0.924786 0.0193234 0)
(0.922166 0.0201497 0)
(0.918841 0.00366615 0)
(0.997302 -0.00431326 0)
(0.927191 0.0188086 0)
(0.925362 0.0194923 0)
(0.925629 0.018942 0)
(0.926738 0.0258012 0)
(1.07745 -0.0401859 0)
(1.07179 -0.0344 0)
(1.01185 -0.00278536 0)
(1.03608 -0.0116241 0)
(0.827685 -0.00499911 0)
(1.00861 -0.00494175 0)
(1.06037 -0.0321722 0)
(1.08656 -0.0454775 0)
(0.987173 0.0178689 0)
(0.824225 -0.000528902 0)
(0.89831 0.0246499 0)
(0.925704 0.0261168 0)
(1.08488 -0.0695955 0)
(0.917268 0.0015187 0)
(0.90053 0.000135356 0)
(0.981283 -0.0112489 0)
(1.00012 0.00624763 0)
(0.901771 -9.92704e-05 0)
(0.908475 0.00255965 0)
(0.862327 0.0248306 0)
(0.806685 -0.0028007 0)
(1.0262 -0.0113225 0)
(0.988176 0.0165942 0)
(0.946638 0.000219706 0)
(0.930205 0.0187222 0)
(0.980825 0.0207759 0)
(0.974996 0.0229159 0)
(0.912151 -0.0342716 0)
(1.05101 -0.00116243 0)
(0.999913 0.0075735 0)
(1.04634 -0.0024006 0)
(1.00562 -0.0026255 0)
(1.06051 -0.0119069 0)
(1.1358 -0.0685126 0)
(1.07159 -0.036375 0)
(0.911825 -0.0221031 0)
(1.01686 -0.000755198 0)
(0.92408 0.0198287 0)
(0.994324 -0.00194343 0)
(0.825298 -0.00547317 0)
(0.92446 0.0200733 0)
(0.881623 0.025644 0)
(1.02612 -0.00989144 0)
(0.992011 0.0114796 0)
(0.803723 0.000814487 0)
(0.825645 -0.00570806 0)
(0.882146 0.00236903 0)
(1.01401 -0.00568833 0)
(0.832845 0.0307203 0)
(0.854472 0.000983085 0)
(0.884283 0.00206066 0)
(0.884096 -0.0183663 0)
(0.986953 0.0124328 0)
(1.08261 -0.046727 0)
(0.826449 -0.000311853 0)
(1.02769 -0.00735701 0)
(0.886905 0.00203729 0)
(1.01249 -0.00671417 0)
(1.03412 -0.00866349 0)
(0.859874 0.000824165 0)
(0.826795 -0.000293391 0)
(0.772457 -0.0572201 0)
(1.08629 -0.0471406 0)
(0.869025 0.0256559 0)
(1.08459 -0.0453238 0)
(1.01971 -0.00100902 0)
(1.01873 -0.00132436 0)
(0.762124 0.00585289 0)
(0.919875 0.0206391 0)
(1.01699 -0.00153771 0)
(0.833026 0.02362 0)
(1.0173 -0.00831965 0)
(0.889611 0.00169778 0)
(0.987703 0.0162707 0)
(0.90218 -0.00149289 0)
(0.999766 0.00391818 0)
(1.07377 -0.0319392 0)
(0.87335 0.00174449 0)
(0.872464 0.00181155 0)
(1.00862 -0.00538323 0)
(0.975359 -0.00359685 0)
(1.00118 -0.00535102 0)
(1.02075 -0.0112942 0)
(1.02365 -0.00252753 0)
(1.02251 -0.00117804 0)
(0.873276 0.0018118 0)
(0.900577 -0.001938 0)
(1.0007 -0.00457051 0)
(1.02139 -0.0115738 0)
(1.02851 -0.0103435 0)
(1.08238 -0.0473676 0)
(0.983878 0.0162747 0)
(0.834822 0.023637 0)
(1.03065 -0.00778942 0)
(1.09997 -0.0472896 0)
(1.01537 -0.00602769 0)
(1.10766 -0.0567647 0)
(1.01488 -0.00664416 0)
(0.925405 0.0261276 0)
(0.518145 0.00321533 0)
(0.856902 0.00179707 0)
(0.856415 0.00177883 0)
(1.07086 -0.0311945 0)
(1.01181 -0.00943486 0)
(0.864093 0.000406544 0)
(1.02951 -0.0120056 0)
(1.00927 -0.0083441 0)
(0.949744 -0.0021314 0)
(0.993026 -0.00221034 0)
(1.05417 -0.036743 0)
(1.02663 -0.0119352 0)
(0.883543 -0.0123306 0)
(0.974158 0.00125622 0)
(0.900961 0.0247644 0)
(0.870743 0.00290795 0)
(0.868099 0.00264385 0)
(1.01328 -0.00226746 0)
(0.893598 0.0256013 0)
(0.860806 0.00221122 0)
(0.85561 0.00163052 0)
(0.840092 0.0253222 0)
(1.02566 -0.00938725 0)
(0.85924 0.00202228 0)
(1.02906 -0.00990871 0)
(1.1797 -0.0942176 0)
(0.901889 -0.022921 0)
(1.00905 -0.000794946 0)
(0.82751 -0.00449294 0)
(0.838779 0.0251991 0)
(1.0103 -0.00169857 0)
(0.854897 0.00641874 0)
(0.853587 0.0292276 0)
(1.02781 -0.00991639 0)
(0.85793 0.0301387 0)
(0.851625 0.029274 0)
(0.873816 0.00344569 0)
(0.896826 -0.0113861 0)
(0.856866 0.030092 0)
(1.03071 -0.00872242 0)
(1.00114 -0.00305183 0)
(0.905613 0.0237178 0)
(0.844632 0.00302712 0)
(0.797842 -0.0363493 0)
(0.866702 0.0307876 0)
(0.885955 0.0259481 0)
(1.01145 -0.00134846 0)
(0.90835 0.00265014 0)
(0.907646 0.0235126 0)
(0.865818 0.030705 0)