/*--------------------------------*- C++ -*----------------------------------*\
  =========                 |
  \\      /  F ield         | OpenFOAM: The Open Source CFD Toolbox
   \\    /   O peration     | Website:  https://openfoam.org
    \\  /    A nd           | Version:  12
     \\/     M anipulation  |
\*---------------------------------------------------------------------------*/
FoamFile
{
    format      ascii;
    class       volScalarField;
    location    "24.5";
    object      T;
}
// * * * * * * * * * * * * * * * * * * * * * * * * * * * * * * * * * * * * * //

dimensions      [0 0 0 1 0 0 0];

internalField   nonuniform List<scalar> 
9801
(
0.782754
0.780929
0.786311
0.802816
0.819675
0.824215
0.82443
0.823217
0.819753
0.809392
0.798743
0.797356
0.799405
0.804715
0.81629
0.830528
0.8365
0.837377
0.836614
0.833462
0.824956
0.817891
0.818218
0.821185
0.826677
0.833433
0.840318
0.845708
0.848032
0.847961
0.847014
0.842479
0.837225
0.837941
0.840959
0.847329
0.852296
0.853647
0.854249
0.855289
0.857561
0.859852
0.860635
0.860752
0.86088
0.862007
0.864468
0.867511
0.867685
0.867217
0.867385
0.867948
0.869661
0.875222
0.879563
0.881723
0.883204
0.884137
0.884146
0.883624
0.882856
0.882937
0.883676
0.885085
0.888938
0.897496
0.903024
0.905237
0.906498
0.907081
0.905289
0.902426
0.90077
0.901527
0.90322
0.906501
0.916366
0.925889
0.930335
0.93277
0.934394
0.93534
0.930524
0.922885
0.921744
0.924327
0.929503
0.944012
0.959423
0.967711
0.973546
0.978546
0.979746
0.972613
0.962979
0.960949
0.970602
1.15469
1.53687
0.797455
0.791229
0.791612
0.796308
0.809957
0.821113
0.824926
0.826315
0.825286
0.820324
0.814109
0.808365
0.806303
0.807098
0.811325
0.822598
0.833116
0.837686
0.839589
0.839638
0.837636
0.83185
0.825862
0.824733
0.826184
0.829522
0.835704
0.843008
0.848228
0.85111
0.852159
0.85237
0.851422
0.847477
0.844241
0.84489
0.847488
0.851002
0.853417
0.855446
0.859296
0.864046
0.866703
0.868171
0.86904
0.869266
0.867401
0.866283
0.867325
0.867914
0.868633
0.869905
0.872284
0.878809
0.884382
0.887138
0.888712
0.889854
0.889378
0.885681
0.884542
0.885018
0.886316
0.887963
0.891971
0.900381
0.90652
0.909539
0.91137
0.912893
0.911353
0.905611
0.903842
0.904963
0.907265
0.91038
0.918805
0.928369
0.933642
0.936918
0.939618
0.941145
0.935706
0.928462
0.927385
0.930622
0.935222
0.945529
0.959284
0.968527
0.975649
0.982422
0.985445
0.980075
0.970633
0.965547
0.963366
1.14713
1.5565
0.805905
0.807113
0.808926
0.808878
0.809916
0.817006
0.824121
0.825977
0.825116
0.823823
0.823704
0.823521
0.821863
0.820727
0.820894
0.822924
0.82905
0.836412
0.839665
0.840829
0.842238
0.843426
0.841197
0.837292
0.835894
0.836566
0.837174
0.839798
0.84644
0.851813
0.855077
0.858448
0.861067
0.862115
0.858724
0.854051
0.852634
0.852545
0.853911
0.856203
0.860696
0.867435
0.873193
0.877001
0.87917
0.880742
0.879527
0.873947
0.870664
0.870659
0.871851
0.87364
0.876919
0.884991
0.892302
0.896061
0.898256
0.899855
0.899443
0.893758
0.8902
0.89056
0.892291
0.894421
0.898408
0.907574
0.915377
0.919458
0.921971
0.923921
0.922484
0.915756
0.91255
0.913639
0.915998
0.919058
0.926481
0.938332
0.9458
0.949691
0.952657
0.95441
0.949798
0.94238
0.940709
0.943875
0.948957
0.956682
0.971492
0.984655
0.99296
1.00077
1.00614
1.00376
0.997354
0.992775
0.986548
1.15738
1.58555
0.818537
0.825461
0.826864
0.824802
0.818642
0.816259
0.817329
0.823472
0.829806
0.83314
0.83573
0.838216
0.840018
0.839893
0.836503
0.829588
0.828034
0.830689
0.839963
0.848545
0.85219
0.8547
0.856518
0.855953
0.852328
0.845565
0.841049
0.840554
0.843575
0.854182
0.864988
0.870087
0.87267
0.874706
0.874773
0.868999
0.860347
0.857235
0.857727
0.859754
0.865507
0.876949
0.885438
0.889264
0.891658
0.893321
0.891329
0.882798
0.877706
0.877807
0.879538
0.882403
0.887856
0.898172
0.905892
0.909352
0.911487
0.912464
0.910297
0.904036
0.900589
0.901301
0.903647
0.906597
0.911837
0.921716
0.929765
0.933635
0.935941
0.937571
0.936843
0.931083
0.927063
0.927959
0.930978
0.934509
0.941116
0.953228
0.962207
0.966641
0.969849
0.972764
0.971768
0.964868
0.960322
0.961944
0.967593
0.974533
0.986221
1.00094
1.01153
1.02021
1.02855
1.02998
1.02537
1.01914
1.00748
1.1713
1.6164
0.829893
0.838961
0.840733
0.839769
0.830614
0.822037
0.821277
0.823363
0.830589
0.84099
0.846351
0.849182
0.851086
0.850069
0.84362
0.837883
0.836485
0.837556
0.843584
0.855058
0.862731
0.865953
0.868572
0.867636
0.86035
0.852478
0.850035
0.850087
0.851579
0.860085
0.874858
0.882427
0.885349
0.887601
0.886779
0.877572
0.86951
0.868301
0.869024
0.870467
0.875206
0.888251
0.898856
0.902909
0.904816
0.904573
0.900083
0.893286
0.890344
0.890936
0.892804
0.895687
0.901591
0.911864
0.919381
0.922431
0.923903
0.924073
0.923014
0.919089
0.916069
0.916648
0.919072
0.921768
0.926044
0.934831
0.943261
0.947742
0.950662
0.953156
0.95453
0.950823
0.945065
0.944003
0.946908
0.950496
0.955406
0.96588
0.97733
0.983729
0.987649
0.991324
0.993243
0.988846
0.982122
0.979616
0.982652
0.98913
0.99802
1.01176
1.02471
1.03458
1.04346
1.04915
1.0473
1.04038
1.02121
1.18136
1.63889
0.837349
0.846207
0.846166
0.84202
0.83661
0.833399
0.832474
0.83359
0.837983
0.846834
0.853784
0.856628
0.855867
0.851716
0.848831
0.84865
0.849949
0.852939
0.858203
0.864518
0.870833
0.874615
0.875491
0.871028
0.865461
0.863069
0.863081
0.864286
0.867905
0.876189
0.885001
0.89188
0.895569
0.896357
0.892048
0.886413
0.883669
0.883104
0.884022
0.885943
0.890904
0.900751
0.909009
0.91276
0.913837
0.913187
0.911222
0.907917
0.90601
0.906449
0.908205
0.910839
0.915174
0.922789
0.929503
0.933028
0.935054
0.936713
0.9379
0.93624
0.932465
0.931466
0.933221
0.935645
0.93834
0.944459
0.953965
0.96005
0.9635
0.966331
0.968999
0.968763
0.962577
0.958639
0.959327
0.962431
0.966186
0.973218
0.98552
0.995148
1.00092
1.00504
1.00859
1.00769
1.00094
0.995743
0.994949
0.998517
1.00468
1.01399
1.02653
1.03726
1.04624
1.05358
1.05594
1.0525
1.03624
1.18395
1.6528
0.837102
0.845576
0.848167
0.8496
0.850297
0.850642
0.850737
0.851404
0.853041
0.854544
0.856353
0.855953
0.855757
0.857179
0.858962
0.862731
0.868286
0.873041
0.875825
0.877736
0.879394
0.879698
0.876317
0.874441
0.874848
0.875768
0.87708
0.880566
0.887779
0.893685
0.897604
0.900108
0.901067
0.899375
0.896995
0.896546
0.896819
0.897337
0.899044
0.902345
0.907643
0.912978
0.916107
0.917988
0.919182
0.920542
0.921726
0.920761
0.919968
0.920839
0.922485
0.924367
0.926297
0.929686
0.935401
0.93947
0.942741
0.946046
0.948857
0.950406
0.947291
0.944054
0.943937
0.945255
0.947155
0.950415
0.959284
0.968221
0.972956
0.976019
0.978694
0.980827
0.977625
0.971058
0.968417
0.969599
0.972676
0.976914
0.986716
0.999839
1.00834
1.01359
1.01765
1.02016
1.01661
1.00971
1.00556
1.00504
1.00828
1.01421
1.02423
1.03572
1.04503
1.05255
1.05679
1.05681
1.04723
1.18775
1.66215
0.837102
0.839484
0.848773
0.85839
0.864861
0.869107
0.87074
0.869426
0.866001
0.861945
0.85606
0.853793
0.855093
0.859427
0.866984
0.876416
0.885267
0.88945
0.890704
0.889958
0.887049
0.879913
0.875348
0.875655
0.877917
0.88291
0.888965
0.896233
0.902846
0.906257
0.906897
0.905388
0.902653
0.901255
0.901352
0.902461
0.904909
0.908918
0.912143
0.914189
0.916399
0.918331
0.919623
0.920938
0.923665
0.927026
0.929335
0.931349
0.931401
0.931326
0.931485
0.93107
0.931172
0.932956
0.938555
0.945547
0.950494
0.95418
0.957126
0.95973
0.959518
0.954332
0.950928
0.950502
0.951958
0.954416
0.960978
0.972259
0.979774
0.98368
0.986429
0.989002
0.988427
0.981308
0.975533
0.974248
0.976012
0.979399
0.985195
0.997833
1.01028
1.0176
1.02239
1.02638
1.02762
1.0223
1.01484
1.01107
1.01143
1.01494
1.0213
1.03136
1.04151
1.04938
1.05473
1.05679
1.05294
1.19425
1.66908
0.839105
0.83694
0.841307
0.857542
0.874011
0.88136
0.884476
0.885603
0.882241
0.868801
0.857874
0.855962
0.856745
0.8588
0.865708
0.882293
0.893975
0.898194
0.899941
0.89933
0.892011
0.883262
0.880096
0.880379
0.882113
0.886658
0.895468
0.903744
0.908782
0.910349
0.908912
0.906452
0.906774
0.907937
0.908666
0.910774
0.914093
0.916925
0.918201
0.918181
0.917721
0.91858
0.922173
0.926639
0.930865
0.934869
0.938171
0.940577
0.940657
0.937521
0.934136
0.932579
0.933333
0.935264
0.940918
0.950952
0.958169
0.962176
0.964681
0.966959
0.967548
0.961489
0.954585
0.95298
0.954428
0.956898
0.961604
0.972812
0.983639
0.989088
0.99232
0.9948
0.995731
0.990484
0.982118
0.978436
0.978761
0.981239
0.985073
0.992854
1.00671
1.01812
1.02467
1.02875
1.03177
1.03118
1.02566
1.01964
1.0167
1.01723
1.02053
1.02688
1.0366
1.04558
1.05187
1.05521
1.05555
1.20181
1.67423
0.843851
0.841365
0.843754
0.855138
0.876498
0.886639
0.889471
0.890315
0.884779
0.871669
0.863355
0.861618
0.86273
0.866311
0.87407
0.885539
0.896497
0.900737
0.900716
0.896696
0.89255
0.889953
0.888542
0.890049
0.893699
0.897531
0.899796
0.902243
0.905223
0.907917
0.909611
0.911079
0.913454
0.916452
0.919022
0.920381
0.920798
0.920427
0.918424
0.916322
0.916702
0.918858
0.92448
0.932799
0.939643
0.943626
0.945867
0.947765
0.94758
0.940509
0.933764
0.932561
0.933836
0.936241
0.94253
0.955034
0.963959
0.967721
0.97003
0.971531
0.970711
0.964915
0.958229
0.956136
0.956924
0.958854
0.96211
0.970761
0.983711
0.991577
0.994973
0.996955
0.99827
0.997776
0.991205
0.984762
0.983218
0.984397
0.987086
0.990676
0.99859
1.01192
1.02206
1.02796
1.03181
1.03478
1.03491
1.03059
1.02508
1.02182
1.0219
1.02479
1.03056
1.04013
1.04835
1.0533
1.05673
1.20963
1.67839
0.852128
0.851804
0.855686
0.863226
0.874505
0.884797
0.887984
0.887182
0.883594
0.878901
0.874344
0.873501
0.87562
0.879295
0.881757
0.88433
0.888899
0.89461
0.897497
0.898642
0.899584
0.900801
0.901919
0.901813
0.902356
0.902937
0.90117
0.898613
0.899266
0.903775
0.910824
0.917629
0.923397
0.926652
0.928276
0.928628
0.92621
0.920678
0.915867
0.914988
0.91623
0.918616
0.925418
0.938196
0.94652
0.949842
0.951758
0.952811
0.950039
0.941947
0.936054
0.934953
0.936004
0.938012
0.943564
0.956243
0.966367
0.970322
0.971942
0.971611
0.970814
0.968819
0.963748
0.960529
0.96101
0.963252
0.965897
0.968876
0.978102
0.989215
0.994768
0.997443
0.99979
1.00256
1.00249
0.995755
0.990198
0.988541
0.988806
0.990759
0.994372
1.00228
1.01525
1.02559
1.0321
1.03638
1.03903
1.03906
1.03556
1.02971
1.02535
1.02464
1.02674
1.03232
1.04239
1.05019
1.05639
1.21782
1.68217
0.864814
0.866723
0.86908
0.87081
0.872798
0.875721
0.880313
0.883653
0.885754
0.88709
0.888895
0.888915
0.888121
0.887631
0.885652
0.881662
0.881239
0.884902
0.893423
0.902254
0.908711
0.912444
0.913951
0.91303
0.90936
0.903738
0.898012
0.896361
0.897175
0.899518
0.908618
0.922725
0.930294
0.93341
0.93522
0.935563
0.93097
0.921114
0.916577
0.9166
0.917704
0.919529
0.926089
0.940207
0.949011
0.952219
0.953744
0.952486
0.949275
0.945079
0.940559
0.939704
0.941426
0.944816
0.94836
0.953661
0.962544
0.967585
0.969371
0.970269
0.972098
0.973979
0.972809
0.968721
0.966967
0.967164
0.96776
0.968854
0.971441
0.980767
0.992449
0.998978
1.00328
1.00694
1.00963
1.00855
1.00048
0.993758
0.991309
0.991661
0.993725
0.997532
1.00623
1.01922
1.0295
1.03599
1.04013
1.04228
1.04195
1.03842
1.03206
1.02672
1.02524
1.02664
1.03322
1.04416
1.05389
1.22642
1.68576
0.875434
0.879619
0.879819
0.877781
0.872282
0.870178
0.871427
0.87714
0.886072
0.894403
0.89797
0.899612
0.899286
0.894753
0.885495
0.880455
0.880454
0.882036
0.887831
0.90204
0.914019
0.917879
0.919771
0.920238
0.916208
0.905253
0.898907
0.898609
0.899497
0.901375
0.908475
0.923619
0.932705
0.935844
0.937389
0.935882
0.929935
0.923772
0.919931
0.919984
0.921927
0.925958
0.931388
0.939133
0.946874
0.950018
0.950351
0.949851
0.950784
0.950785
0.94925
0.948122
0.948902
0.95032
0.950635
0.950982
0.953964
0.962561
0.969096
0.972903
0.976094
0.979381
0.981615
0.979458
0.973651
0.97008
0.968198
0.967691
0.969294
0.973132
0.985138
0.999273
1.00692
1.01046
1.0132
1.01505
1.01239
1.0035
0.996573
0.99429
0.994999
0.997635
1.00191
1.01123
1.02393
1.03331
1.03882
1.04218
1.04371
1.04301
1.03959
1.03309
1.02708
1.02481
1.02604
1.03499
1.04859
1.23428
1.6888
0.878628
0.882129
0.881838
0.876394
0.871595
0.87135
0.873145
0.879632
0.890686
0.897514
0.90046
0.902193
0.901197
0.892988
0.885108
0.883289
0.883561
0.884654
0.891198
0.906077
0.915683
0.919767
0.921784
0.921126
0.914256
0.906371
0.902696
0.902561
0.904013
0.907942
0.915491
0.924554
0.931542
0.934267
0.933825
0.932427
0.931682
0.92912
0.927612
0.928355
0.930757
0.932882
0.933723
0.934835
0.939741
0.94538
0.948295
0.950919
0.954178
0.957831
0.959749
0.957821
0.954536
0.952011
0.949073
0.948255
0.949792
0.955942
0.968062
0.977151
0.982585
0.985807
0.988008
0.988573
0.98268
0.97393
0.969135
0.968134
0.96922
0.971348
0.976769
0.992273
1.00616
1.01223
1.0151
1.01712
1.01827
1.01482
1.00635
1.00052
0.999149
1.00022
1.00268
1.00673
1.01582
1.02741
1.03534
1.04
1.04302
1.04436
1.04389
1.04094
1.03397
1.02666
1.02374
1.02587
1.04022
1.23965
1.69099
0.878352
0.879331
0.875836
0.874351
0.874891
0.875837
0.880636
0.889208
0.8952
0.898697
0.900851
0.901389
0.896277
0.890863
0.888547
0.88803
0.888898
0.891867
0.900992
0.91033
0.915891
0.918501
0.918562
0.915575
0.912273
0.909205
0.908447
0.909796
0.913321
0.916679
0.919507
0.9236
0.926757
0.928332
0.928984
0.930869
0.933697
0.936804
0.938084
0.937327
0.936703
0.935074
0.931805
0.930864
0.932818
0.940273
0.948956
0.955734
0.961135
0.964129
0.96603
0.965761
0.959861
0.951217
0.946925
0.946834
0.94855
0.952148
0.964161
0.97919
0.986406
0.989463
0.991775
0.992914
0.990686
0.981057
0.972686
0.970488
0.971384
0.97381
0.977563
0.983773
0.997473
1.00924
1.01461
1.01722
1.01917
1.0204
1.01797
1.01149
1.00599
1.00369
1.00382
1.00581
1.0096
1.01898
1.03005
1.03709
1.04119
1.04415
1.04572
1.04549
1.04229
1.03376
1.02477
1.02116
1.02825
1.24119
1.692
0.874471
0.870931
0.871749
0.873607
0.877085
0.884643
0.894564
0.899115
0.900725
0.901444
0.900519
0.894886
0.890123
0.889353
0.890381
0.891878
0.89572
0.902559
0.909011
0.913483
0.915015
0.914636
0.913215
0.913106
0.913548
0.914186
0.916048
0.919163
0.921476
0.92101
0.919227
0.918707
0.921138
0.925607
0.930046
0.934775
0.940198
0.944117
0.946239
0.945162
0.939616
0.932401
0.929518
0.930026
0.931868
0.93715
0.950243
0.961869
0.966809
0.969105
0.970575
0.970032
0.963255
0.952944
0.94862
0.94864
0.950045
0.952985
0.960321
0.97517
0.986283
0.990639
0.992086
0.991129
0.990644
0.988782
0.98193
0.977046
0.976745
0.97855
0.98054
0.982215
0.985621
0.996885
1.00909
1.0157
1.01928
1.02215
1.02432
1.02322
1.01664
1.00966
1.00602
1.00579
1.00777
1.01186
1.02219
1.03307
1.03944
1.04283
1.04544
1.04672
1.04626
1.0421
1.03173
1.02133
1.01721
1.238
1.6919
0.870841
0.866552
0.867732
0.8708
0.877277
0.89227
0.902319
0.905859
0.907084
0.906135
0.898746
0.891947
0.889921
0.890464
0.892372
0.897883
0.903135
0.906089
0.909478
0.911581
0.911779
0.911121
0.91282
0.915852
0.918916
0.922166
0.923972
0.924623
0.923034
0.91852
0.915139
0.915179
0.917638
0.925314
0.935332
0.9433
0.946971
0.948924
0.950414
0.948528
0.938529
0.930842
0.929372
0.930287
0.931866
0.936618
0.951176
0.963882
0.968811
0.971061
0.97134
0.968602
0.964379
0.95809
0.953371
0.953137
0.955645
0.959587
0.962008
0.966387
0.976815
0.985
0.988546
0.990719
0.99275
0.994826
0.994783
0.988845
0.983767
0.982121
0.981432
0.980726
0.981964
0.985898
0.997656
1.01156
1.0198
1.02382
1.02609
1.02729
1.02606
1.01955
1.01177
1.00774
1.00754
1.00961
1.01448
1.02555
1.0359
1.04101
1.04351
1.04596
1.04689
1.04626
1.04048
1.02664
1.01331
1.23005
1.69108
0.872033
0.868102
0.868998
0.872829
0.882379
0.894371
0.903407
0.906643
0.906123
0.901491
0.897538
0.894962
0.894124
0.896349
0.900928
0.904195
0.905128
0.904863
0.90414
0.905163
0.908427
0.912837
0.917613
0.923143
0.92723
0.929441
0.930185
0.92728
0.918803
0.913298
0.912653
0.913946
0.916568
0.925919
0.941794
0.949277
0.951965
0.953156
0.951596
0.945327
0.938256
0.933015
0.931602
0.932591
0.936108
0.942229
0.949842
0.960311
0.966264
0.968013
0.96718
0.96736
0.968362
0.967127
0.963721
0.961561
0.961711
0.962234
0.961986
0.961493
0.964158
0.974955
0.986183
0.992461
0.996957
1.00072
1.00283
1.00206
0.994331
0.986315
0.981935
0.980641
0.981282
0.983448
0.987943
1.00124
1.01572
1.02308
1.02619
1.02819
1.02905
1.02735
1.02103
1.01372
1.01003
1.00971
1.0115
1.01677
1.02772
1.03685
1.04103
1.04366
1.0464
1.04738
1.04604
1.03543
1.01839
1.22005
1.69022
0.876891
0.874655
0.877665
0.883052
0.886611
0.890122
0.894805
0.898069
0.899236
0.900021
0.901638
0.903683
0.90567
0.906346
0.906657
0.906077
0.902681
0.899188
0.898829
0.900598
0.906206
0.916996
0.926905
0.932001
0.934185
0.935174
0.934385
0.925871
0.915742
0.912566
0.913055
0.914315
0.917345
0.928969
0.943633
0.950902
0.953364
0.952448
0.948312
0.945349
0.94165
0.938382
0.938329
0.940702
0.94456
0.946172
0.947098
0.949782
0.957622
0.964009
0.967276
0.970332
0.973571
0.976479
0.976535
0.971482
0.96615
0.962141
0.958755
0.957928
0.959419
0.964149
0.97828
0.993021
1.00095
1.00452
1.00674
1.00796
1.00617
0.99608
0.986146
0.982355
0.982592
0.98484
0.988024
0.993466
1.00636
1.01875
1.02467
1.02736
1.02919
1.03004
1.02871
1.02334
1.01659
1.01262
1.0117
1.01294
1.01757
1.02809
1.03679
1.04113
1.04445
1.04721
1.04815
1.0433
1.02936
1.21305
1.69012
0.887481
0.886889
0.888221
0.88917
0.888161
0.883813
0.883413
0.88792
0.895687
0.903065
0.909774
0.913924
0.915587
0.915144
0.911563
0.90448
0.897746
0.89527
0.89578
0.897417
0.902442
0.918234
0.931668
0.936146
0.938221
0.938673
0.933072
0.924151
0.917858
0.915002
0.915699
0.919093
0.925626
0.931948
0.939566
0.945559
0.947265
0.946444
0.946539
0.94846
0.949894
0.949655
0.948321
0.948059
0.947966
0.945796
0.942788
0.94262
0.946903
0.958776
0.969924
0.976917
0.981646
0.984052
0.985235
0.981608
0.971198
0.961938
0.958074
0.957879
0.959312
0.961806
0.968573
0.985937
1.0003
1.00589
1.00784
1.00817
1.00752
1.00449
0.996136
0.989556
0.988125
0.989869
0.992495
0.994427
0.997821
1.00821
1.01892
1.02456
1.02776
1.03024
1.03221
1.03193
1.02709
1.01918
1.01367
1.01194
1.01268
1.01716
1.02768
1.03662
1.04178
1.04577
1.04836
1.04728
1.04057
1.21163
1.69133
0.897055
0.898842
0.896492
0.891502
0.882884
0.87929
0.879582
0.881413
0.889867
0.906084
0.916073
0.919896
0.921854
0.922164
0.918151
0.906247
0.898129
0.896761
0.89732
0.898986
0.905551
0.919967
0.931989
0.936936
0.937865
0.93412
0.930178
0.927276
0.923946
0.923456
0.925496
0.929304
0.931573
0.931723
0.930975
0.933125
0.939605
0.945278
0.950025
0.954663
0.95887
0.960933
0.959617
0.954317
0.947311
0.941148
0.939003
0.939618
0.9414
0.949794
0.968376
0.980779
0.985485
0.98806
0.989261
0.987684
0.97937
0.966736
0.960687
0.960127
0.962494
0.967391
0.971671
0.976454
0.988575
0.999493
1.00382
1.00539
1.00665
1.00814
1.00852
1.00358
0.997988
0.995308
0.994241
0.993764
0.994887
0.998367
1.0086
1.01947
1.02594
1.03005
1.03325
1.03543
1.03515
1.02916
1.01939
1.01287
1.01106
1.01187
1.01628
1.027
1.03665
1.04254
1.04686
1.04832
1.04844
1.21664
1.69388
0.901722
0.904202
0.900557
0.888663
0.881349
0.880565
0.881108
0.882432
0.889216
0.90652
0.917975
0.921667
0.923378
0.922217
0.915461
0.907778
0.902268
0.901124
0.902641
0.907319
0.913094
0.918318
0.925034
0.928975
0.929337
0.928806
0.930168
0.932668
0.935406
0.936425
0.935875
0.934979
0.931801
0.92596
0.923624
0.924742
0.931202
0.944937
0.956272
0.963298
0.966549
0.968148
0.967331
0.959603
0.946587
0.9401
0.939269
0.940269
0.942414
0.948107
0.961383
0.978419
0.986224
0.988713
0.986935
0.983894
0.982188
0.977604
0.971213
0.968946
0.969861
0.971658
0.972964
0.972707
0.974513
0.984495
0.997095
1.00392
1.00784
1.01204
1.01501
1.01576
1.0109
1.00249
0.995686
0.993143
0.993397
0.994934
0.99893
1.01083
1.02291
1.02931
1.03258
1.03526
1.03663
1.03565
1.02918
1.01882
1.01215
1.01031
1.0109
1.01468
1.02587
1.0362
1.04323
1.0465
1.05304
1.2266
1.69752
0.903238
0.904513
0.89607
0.888252
0.884597
0.883972
0.884986
0.888576
0.897415
0.908652
0.916806
0.92019
0.919864
0.916684
0.914579
0.911673
0.909912
0.910536
0.913422
0.916746
0.917619
0.915769
0.914204
0.91745
0.924189
0.92991
0.935684
0.941729
0.94558
0.947154
0.945551
0.937514
0.926374
0.921043
0.920738
0.92195
0.925356
0.939724
0.959468
0.967124
0.970025
0.971503
0.969729
0.9616
0.950353
0.942864
0.941617
0.943391
0.9496
0.955309
0.958643
0.96572
0.976023
0.981208
0.983034
0.984486
0.985922
0.987831
0.987147
0.981479
0.976609
0.973846
0.971008
0.968819
0.969311
0.972511
0.98334
0.998834
1.00941
1.01427
1.01657
1.01802
1.0181
1.01264
1.00213
0.995201
0.993633
0.994779
0.996687
1.00184
1.01473
1.02539
1.03066
1.03376
1.03599
1.0367
1.03585
1.02932
1.01918
1.01231
1.00943
1.00914
1.01244
1.02445
1.03651
1.04297
1.05453
1.23801
1.70166
0.902946
0.897452
0.890494
0.887922
0.887833
0.889004
0.893756
0.899644
0.903493
0.908007
0.911799
0.913123
0.912526
0.913068
0.915452
0.917966
0.919921
0.920469
0.921247
0.921093
0.91547
0.909162
0.907936
0.90955
0.91792
0.93331
0.944746
0.950225
0.952239
0.952717
0.950557
0.937996
0.924953
0.921466
0.921836
0.923348
0.928403
0.941225
0.957526
0.967316
0.970445
0.968952
0.963953
0.961548
0.958293
0.953139
0.951287
0.952986
0.955798
0.957473
0.956952
0.955581
0.958891
0.970355
0.98096
0.987223
0.992337
0.996173
0.997945
0.995471
0.986212
0.976352
0.970167
0.968369
0.969353
0.971414
0.974698
0.986852
1.00494
1.01355
1.01609
1.01738
1.01744
1.01617
1.01161
1.00374
0.998786
0.997933
0.999075
1.00103
1.00496
1.01542
1.02543
1.03091
1.03418
1.03614
1.03754
1.03739
1.03105
1.02026
1.01184
1.00769
1.00648
1.01016
1.02436
1.03614
1.05292
1.24956
1.70556
0.900933
0.894433
0.891012
0.890523
0.892464
0.898707
0.904132
0.905872
0.905184
0.903052
0.903085
0.906561
0.91107
0.91578
0.920843
0.92591
0.928674
0.929158
0.926142
0.917738
0.909204
0.906844
0.90765
0.90921
0.914185
0.933489
0.949035
0.953472
0.955488
0.954938
0.946596
0.935759
0.92765
0.924414
0.925099
0.929974
0.938445
0.943879
0.94909
0.956652
0.961227
0.962488
0.963394
0.964486
0.965941
0.967555
0.966193
0.962888
0.95987
0.955922
0.951274
0.949803
0.951298
0.957019
0.972603
0.988465
0.997009
1.00036
1.00188
1.00223
0.997914
0.984587
0.973586
0.970559
0.971494
0.974497
0.978603
0.983586
0.99332
1.00591
1.01182
1.01382
1.01516
1.01676
1.018
1.01659
1.01095
1.00517
1.00194
1.00062
1.00081
1.00401
1.01503
1.02611
1.03259
1.03642
1.03865
1.03963
1.03895
1.03197
1.02079
1.01115
1.00545
1.00362
1.00889
1.02389
1.04638
1.25987
1.70828
0.897619
0.897398
0.896688
0.898744
0.90255
0.905738
0.907087
0.905574
0.899724
0.895945
0.896186
0.901038
0.91209
0.922946
0.929894
0.932933
0.934321
0.934024
0.926538
0.912219
0.906371
0.906327
0.90748
0.910214
0.920133
0.936452
0.948671
0.953652
0.954419
0.949281
0.942916
0.93837
0.934153
0.933141
0.935471
0.940411
0.943354
0.943783
0.941323
0.940885
0.947176
0.957366
0.964835
0.970725
0.976137
0.978957
0.979095
0.973381
0.962819
0.953081
0.948589
0.948458
0.950091
0.952712
0.961145
0.982321
0.997175
1.00136
1.00208
0.999935
0.996255
0.991842
0.985053
0.980374
0.979826
0.981471
0.983156
0.983578
0.984634
0.990547
1.00184
1.00956
1.01418
1.01835
1.02196
1.02438
1.02359
1.01583
1.00612
1.00082
0.999654
1.00022
1.00372
1.01552
1.02806
1.03518
1.03823
1.0394
1.04001
1.03882
1.03252
1.02151
1.00995
1.00255
1.00105
1.00772
1.03472
1.26686
1.70959
0.899229
0.904743
0.9089
0.910833
0.911317
0.910533
0.905962
0.896605
0.891589
0.891386
0.892795
0.897347
0.913185
0.929661
0.936271
0.938669
0.939314
0.935206
0.921784
0.911623
0.907893
0.907921
0.910359
0.918655
0.927341
0.934253
0.941468
0.945392
0.945473
0.944616
0.944102
0.944038
0.945391
0.946901
0.947277
0.946967
0.944645
0.938038
0.933685
0.933696
0.936627
0.947211
0.964296
0.977404
0.983795
0.986127
0.986706
0.983373
0.970176
0.955311
0.950067
0.94992
0.952567
0.958707
0.965356
0.973213
0.985872
0.993864
0.995541
0.995601
0.996279
0.997462
0.998533
0.996236
0.991544
0.987915
0.98505
0.98197
0.9804
0.981573
0.987484
1.00101
1.01312
1.01991
1.02367
1.02656
1.02816
1.02585
1.01631
1.00573
1.0005
0.999356
1.00009
1.0039
1.01656
1.02977
1.03647
1.03886
1.0397
1.04009
1.03841
1.03303
1.02215
1.00818
1.00001
0.997131
1.01709
1.26886
1.70922
0.903389
0.915981
0.919618
0.920501
0.919014
0.91297
0.899263
0.88952
0.887794
0.888665
0.890558
0.895805
0.913703
0.931729
0.93803
0.940013
0.937798
0.929377
0.921415
0.915407
0.913483
0.915365
0.921648
0.927539
0.929563
0.929938
0.928854
0.930989
0.937346
0.943386
0.948898
0.955009
0.958854
0.959662
0.957214
0.950632
0.940041
0.931899
0.929682
0.930571
0.932583
0.938336
0.958262
0.978716
0.985731
0.987736
0.986557
0.98048
0.972713
0.96402
0.958083
0.957731
0.961387
0.965415
0.967726
0.968582
0.969612
0.976727
0.986502
0.99302
0.997902
1.00326
1.00708
1.00828
1.00504
0.996714
0.987106
0.980839
0.978895
0.979279
0.980744
0.988538
1.0064
1.01879
1.0237
1.02638
1.0282
1.02812
1.02555
1.01607
1.00581
1.00064
0.999798
1.00042
1.00396
1.01708
1.03038
1.03659
1.03835
1.03901
1.0396
1.0376
1.03356
1.0214
1.00554
0.996207
0.997976
1.26281
1.70673
0.90507
0.922336
0.925845
0.927164
0.925569
0.91293
0.896212
0.889824
0.88904
0.889822
0.894305
0.905004
0.91641
0.92702
0.933126
0.933208
0.929432
0.926138
0.925524
0.92507
0.92595
0.928043
0.930033
0.931024
0.928538
0.921768
0.918841
0.920141
0.926949
0.941235
0.956208
0.965787
0.969306
0.970365
0.966577
0.95338
0.939209
0.932078
0.930606
0.931305
0.935472
0.944456
0.954785
0.968875
0.979109
0.981627
0.979949
0.977869
0.976907
0.975499
0.973052
0.970906
0.970066
0.969685
0.967847
0.963314
0.961443
0.963593
0.971988
0.98606
0.999024
1.00683
1.01042
1.0123
1.01259
1.0075
0.994029
0.983304
0.979602
0.979749
0.981036
0.984209
0.994741
1.01044
1.02
1.02398
1.02569
1.02575
1.02681
1.0266
1.01903
1.00903
1.0027
1.00032
1.00046
1.00357
1.01633
1.02961
1.03561
1.03758
1.0389
1.03819
1.03714
1.03327
1.01887
1.00046
0.990704
1.25029
1.70346
0.904546
0.923573
0.926966
0.927344
0.921014
0.908866
0.898998
0.893832
0.893935
0.898283
0.908194
0.914414
0.916179
0.916793
0.917616
0.921439
0.925443
0.928855
0.933343
0.938262
0.940714
0.940344
0.93707
0.930581
0.920968
0.915231
0.914471
0.915714
0.919028
0.934428
0.95867
0.969026
0.972
0.97341
0.971147
0.959515
0.943433
0.935567
0.93438
0.937513
0.945391
0.950706
0.952707
0.954607
0.959862
0.967966
0.973589
0.97685
0.980741
0.985629
0.98797
0.985698
0.980045
0.973225
0.965097
0.959404
0.958308
0.959673
0.962424
0.973391
0.994771
1.00709
1.01071
1.0124
1.01194
1.00857
1.00239
0.992756
0.985931
0.984132
0.985065
0.987182
0.989577
0.995507
1.00825
1.01785
1.02246
1.02501
1.02742
1.02995
1.03095
1.02373
1.01109
1.00262
0.999517
0.999421
1.00243
1.01552
1.0294
1.03521
1.03715
1.03828
1.03754
1.03677
1.03069
1.01226
0.993702
1.23526
1.70108
0.903099
0.917308
0.920116
0.917771
0.912429
0.908694
0.905735
0.904787
0.907304
0.912882
0.916815
0.917737
0.913316
0.905595
0.904007
0.907342
0.918511
0.932544
0.944078
0.950377
0.95218
0.950976
0.942569
0.927438
0.916351
0.912997
0.913382
0.914986
0.919766
0.933026
0.953347
0.967026
0.971145
0.96995
0.963072
0.957558
0.952853
0.947653
0.946444
0.948825
0.951616
0.95302
0.950987
0.945517
0.944584
0.950636
0.963568
0.976312
0.986656
0.99383
0.996846
0.997464
0.99244
0.97978
0.966367
0.960071
0.959463
0.961004
0.964106
0.970978
0.985115
1.00018
1.0064
1.00796
1.0074
1.00643
1.00663
1.0052
0.999524
0.9937
0.990676
0.989079
0.987976
0.988061
0.992051
1.00538
1.01835
1.02562
1.02988
1.03297
1.03452
1.03398
1.02501
1.01103
1.00145
0.998399
0.998824
1.00287
1.0163
1.02928
1.03427
1.03623
1.03659
1.03655
1.03553
1.02376
1.00699
1.22236
1.70004
0.899103
0.902423
0.906145
0.909961
0.911727
0.912882
0.915381
0.920094
0.9233
0.92435
0.923185
0.915159
0.904002
0.899849
0.900218
0.902194
0.9092
0.931675
0.950636
0.956402
0.958539
0.958203
0.949099
0.929124
0.916817
0.914071
0.914755
0.919933
0.930853
0.938299
0.943523
0.951975
0.958453
0.96006
0.960267
0.961138
0.962172
0.964207
0.96387
0.960507
0.95663
0.95157
0.943944
0.938979
0.938571
0.940386
0.947951
0.968857
0.98846
0.996261
0.998494
0.999371
0.997147
0.987947
0.973938
0.966122
0.965161
0.967742
0.972338
0.976419
0.979179
0.985166
0.99442
1.00076
1.00396
1.0061
1.00915
1.01226
1.01338
1.00876
0.999687
0.991836
0.98677
0.984735
0.984875
0.989866
1.00669
1.02276
1.03016
1.03305
1.03431
1.03518
1.03405
1.02483
1.01069
1.00177
0.999699
1.00026
1.00402
1.0166
1.02787
1.03236
1.03468
1.03547
1.03623
1.03032
1.02032
1.21643
1.70059
0.894865
0.889627
0.891456
0.900666
0.912042
0.921945
0.929961
0.933304
0.933504
0.931443
0.923064
0.906772
0.898438
0.897483
0.898517
0.90107
0.910362
0.932892
0.950476
0.956904
0.958325
0.953413
0.94264
0.932701
0.924371
0.921876
0.924693
0.932451
0.937974
0.939413
0.937327
0.93418
0.937334
0.948163
0.958787
0.96631
0.973712
0.97805
0.978898
0.974184
0.96285
0.949934
0.940888
0.938061
0.938776
0.940672
0.945099
0.95786
0.981192
0.993755
0.996671
0.995268
0.99068
0.987247
0.984773
0.980844
0.978368
0.978144
0.979001
0.978795
0.976085
0.974869
0.977955
0.988223
0.999605
1.0075
1.01299
1.01701
1.01976
1.01975
1.01182
0.998292
0.988272
0.98425
0.984057
0.985793
0.992496
1.01056
1.02577
1.03176
1.03351
1.03418
1.03435
1.03326
1.02551
1.0128
1.00372
1.00122
1.00172
1.00486
1.01491
1.0251
1.03043
1.03334
1.03485
1.03377
1.02947
1.21779
1.70258
0.889578
0.885426
0.886227
0.890726
0.909402
0.93156
0.940974
0.943569
0.943181
0.935252
0.916749
0.90261
0.898208
0.898216
0.899651
0.907305
0.919386
0.929437
0.94095
0.947606
0.947895
0.945054
0.942532
0.940073
0.938636
0.938551
0.939708
0.941081
0.941488
0.936575
0.92764
0.92478
0.926159
0.93276
0.950645
0.970525
0.981618
0.98552
0.98681
0.985033
0.974262
0.954524
0.94286
0.940236
0.94154
0.947589
0.955721
0.961804
0.967864
0.977939
0.984556
0.986619
0.987576
0.989538
0.993128
0.996239
0.995311
0.991039
0.985173
0.978032
0.971659
0.969287
0.969762
0.973695
0.989297
1.0066
1.01522
1.0191
1.02154
1.02144
1.01886
1.00917
0.995551
0.987808
0.986297
0.988389
0.990715
0.995679
1.01082
1.02456
1.03027
1.03224
1.03352
1.03452
1.03414
1.0286
1.0158
1.00542
1.00173
1.00145
1.00265
1.01124
1.02208
1.02878
1.03259
1.03335
1.0371
1.22435
1.70528
0.886766
0.886126
0.887263
0.890336
0.90909
0.934543
0.943128
0.945535
0.945561
0.93538
0.916601
0.904754
0.900988
0.901699
0.908426
0.919674
0.924742
0.926299
0.926813
0.928702