/*--------------------------------*- C++ -*----------------------------------*\
  =========                 |
  \\      /  F ield         | OpenFOAM: The Open Source CFD Toolbox
   \\    /   O peration     | Website:  https://openfoam.org
    \\  /    A nd           | Version:  12
     \\/     M anipulation  |
\*---------------------------------------------------------------------------*/
FoamFile
{
    format      ascii;
    class       volScalarField;
    location    "1.4";
    object      T;
}
// * * * * * * * * * * * * * * * * * * * * * * * * * * * * * * * * * * * * * //

dimensions      [0 0 0 1 0 0 0];

internalField   nonuniform List<scalar> 
46253
(
0.992791
1
1
1
1
1
0.981384
1.02897
1
1
0.993312
0.942896
1
1
1
1
1
1
1
1
1
1
1
0.98636
0.980987
1
1
1
1
1.02439
1.02284
1
1
1
1
1
1
1
0.972245
1
0.97849
0.943052
1
1
0.930533
1
1
1
1
1
1
1
1
0.997785
1
0.959404
1
1
1.0606
0.978742
1
1.01339
1
1
1
1
1
1
0.959813
0.931267
0.980445
1
1
1.00378
1
0.986264
1
1
1
1
1
1
1
1
0.980589
1
0.999995
0.999993
1.01869
1
1
0.978045
1
1
1
1
1
1
1.0589
1
1
1
1
1.02235
1
0.980842
0.943785
1.02334
1.02417
0.948645
0.985384
1
1
1
1
1.01897
0.934961
0.980654
1.10856
0.962757
1
1
1
1
1
1.11187
1
0.95419
1.00002
1
1.04391
1.04726
1
0.981984
1
1
1
1
0.961264
1
1
1.04487
1.04476
1.01885
1
1.00001
1
0.999995
0.970701
1
0.948403
1
1
1
1.0086
0.932407
0.953793
1
1.00008
1
1.0001
0.944195
0.958801
1
0.980575
1
0.981713
1
1.16551
1
0.99903
0.99847
1
0.979285
1
0.931088
1.01536
1
1.00613
0.934999
1
1.0075
1.00941
1.01945
1
1.00005
1.00004
0.930438
1
1
1
1
1.02583
1
1
1
0.978349
1
1.03341
1.0332
1
1
0.999529
0.999685
1
0.933776
1.00666
1.02357
1.02348
1
1
1.11089
0.979088
1
1.0124
1
1.01806
0.979089
1.04009
1
1
1.03938
0.930995
1.00231
1.00083
0.978957
1
1
1.02963
1.0293
1.04343
1
1
1
1
1
1
1
1.04203
1.04835
1
1
1
1
1
1
1
1.00595
1
1.04516
1.04523
1.04688
1.02536
1
1.02517
1.02365
1.02265
0.963696
0.977797
1
0.98142
0.975595
0.947075
1.02024
1.00199
1
1
1
1.02571
1.04375
1.03417
1
1
1
1.04349
1
0.999991
1
0.99821
0.969297
1.02147
1.02132
1
1
1
1.02477
1.01489
0.963388
1.01523
1
1.05701
1.05567
0.978721
1
1.05381
1.03324
1
1.03303
0.97911
1.04263
1.10888
1.04232
0.954993
1.10263
1
1.04582
1.04447
1
1.02147
1
1
1.0154
1
1.04153
1
1.04116
0.959883
1.05257
1
0.995941
0.95353
1
0.981913
0.98095
0.97509
1.01425
1
1
1.04017
1.0398
1.01362
1.01351
1
1
1
1.01613
0.963268
1.04382
1.04372
1
1
1
1
1.09785
1
1.03896
1.03856
1
0.96003
1
0.965512
1
0.934429
1
0.944993
1
1.04316
1
1.04316
1
0.945159
1
1
1
1
1
1
1
1.03752
1
1
1
1
1.03718
1
1.05086
0.961258
1
1
1
0.979174
1.0017
0.953816
1.04167
1.00515
1.04171
1
1
1.03608
1.12858
1
1.01625
1.03565
1.01576
1
1.02194
1.00214
1.00398
1
1.00496
1
1.00473
1.00395
1.04974
1
1
1
1
1
1
1
1
1.09863
1
1.00626
1
1.01465
1
1
0.964567
1
1
1.03441
1
1.04079
1
1
1.03409
1.04083
1
1.01807
1
1
1
1
0.995837
0.997269
1
1
0.999421
0.954098
1
1.01581
1
0.9976
1.00965
1
1
0.96302
1
0.969566
1.00605
1
1.00744
1
1.00002
0.998196
1
1.03944
0.996307
1
0.995533
0.995807
1.0395
1
0.994848
1
1
1
1
1
1.01237
1
0.998903
0.954667
1.03216
0.967625
1.00519
1.03182
1.00283
0.99802
0.997787
1
1
1
1
1.00004
1
0.971241
0.978663
0.938586
0.971485
0.995819
1.00604
0.998159
1
1
1.0379
1.00479
0.947595
1.03791
1.03058
1.03023
0.99576
0.977729
1
0.995473
1.02108
1
1
1
0.975864
1
1.00061
1.01662
1
1
1.00048
1
1
1.01402
0.927034
1.00561
1
1
1.00629
1
1.00653
1.00968
1.0069
1
0.990323
1.00283
1
0.996131
1.00529
1
1
1.03638
1
0.983072
0.967302
1
1
1.03629
1
1
1
1
0.936059
1
1
1.02806
0.967554
1.02783
0.976968
1
1
1
1
1
1
1
0.995442
0.93902
1
1
1
1
1
1
0.981787
1.01699
1
1.01292
1
1
0.954971
1
1
1
1.03503
1
1
1.03486
1.01216
1.02809
1
1.02895
1.02926
1.03049
1.01179
1
1.02629
1.02592
1.01722
1.01359
1
1
1.00477
1
1.10603
1.0131
1
1.10463
0.999999
1
1.02063
1.02293
1
1
1.02859
0.997566
1
1
1.00058
1
1
1
1
1
1
1.00019
0.999924
0.930077
0.9976
1.0538
1.01386
1.05528
1.0507
1
0.982381
0.988769
1.05144
1
1.04822
1
1.04873
1
0.999562
1.04579
1
1.04609
1.08269
1
1.04297
1
1.04342
1
0.937133
1
0.9678
0.988455
1
1
1.04033
1.04072
1
1.00393
1.03793
1.03821
0.998956
1
1
1.03446
1.02389
1.03485
1
1.03265
1.03221
0.956169
1.03253
1.02362
1.0326
1
1
1
1.03001
1.03042
0.992876
1
1
1.02788
0.972743
1.02816
0.953903
1
1.02457
1.0248
1
1
1
1.00263
1
1.00568
1.00416
1.02432
1
1.02146
1
1.02167
1
1
1.00611
1.00641
1.01889
1.01906
0.99656
1.00851
1.01733
1.00925
1.01731
1
1.0031
1.01347
1.01371
1
0.963386
1.01269
1.01236
1.13311
1
1
1
1.0097
0.996228
1.01006
0.932055
1.02363
0.995772
0.948402
1.00788
1.00814
1.00391
1.00647
1.00647
0.960347
0.959828
1
1.00995
1.11478
1.02225
1
0.951031
1.02195
0.95709
1.02178
0.983098
1
1
1
1.03117
1
1
1
1
1
1.03107
1
1
1
0.966191
0.963711
1
1.00137
0.930354
0.992003
1
1
1
1
1
1.01021
1
0.997522
1
1.0271
1.01791
1.02812
0.958628
1
1.01835
0.978564
1.03008
1
1
1
1
1
1.02904
1.02786
1.01103
0.984028
0.983641
1
0.968352
1
1
1.0289
1.00354
1
1.03993
0.999999
1
1.00321
1.00532
1
1.02987
0.955323
0.994585
1
0.997701
1.01952
1
1
0.995377
1.00041
1
1.01931
0.928689
1
1
1.03672
1.0372
0.997113
1
0.9284
0.929102
0.979198
1.01866
1
1.00564
1.01219
0.955934
1.08087
1
1
1
1.02679
1.02716
1
1
1
1.02873
1.02345
1
1
1.02372
1.02856
0.996517
0.995645
1
0.996812
1.00509
0.950543
0.996074
0.955313
1.01646
1
1
1.01665
1
1
0.999303
0.996859
1
1.01828
0.966025
1.00343
0.963373
0.963408
1.01796
0.963486
0.961876
0.95356
0.952857
1
1
0.992179
1
1
0.9967
0.969877
0.964925
1
1
1.00598
1
1.00608
1.00573
0.999998
0.999993
1.01428
1
1
1
1
0.998172
1.0082
0.997954
0.929051
1
1.02704
1
1.00019
1.00014
1.02688
1
0.998062
0.995873
0.998104
1
1
1
1
0.99631
1.00676
1
0.997909
1
0.962659
1
0.962635
0.990787
0.981466
1
1.01614
1.01597
0.996702
1.09597
1
0.964498
0.980992
0.987744
0.965609
1
1
0.994724
0.930373
1
1
1.00707
0.935142
1.02587
0.995369
1
1
1
1
1
1
1.12769
1
0.991776
0.959788
0.958093
0.99035
0.925491
0.921963
0.931219
0.965713
1.00752
0.991251
0.927703
1.04428
1.04693
1.05002
1.04159
1.04481
1
1.01101
1.04749
1.05346
1.04206
0.995699
1.05043
1.03421
1.03896
1.05293
1
1.0056
1.03943
1.00546
1
1.03561
1.05653
0.999993
0.999995
1.03595
1
1.00553
1.03333
1
1
1
1.03364
1
1.03117
1
1
1
1.01465
1.03142
1
1
1
1.02892
1.03075
1
1
1
1.02914
1.01413
0.934285
1.0256
1
0.982313
1.02593
1.02244
1.02266
0.959991
1.01995
1.02045
1.01803
1
0.986944
1.01819
1
1.01481
0.982164
1
1
1.01541
0.968229
0.937918
1.0127
1.01272
1.01143
1.02466
1.01188
0.92323
1.0089
1
1.00306
1.02456
1.00903
0.999988
0.995449
0.998171
1.00711
1.00113
1.00169
0.981606
1.00712
1.00529
1.0057
0.991532
0.939527
0.925821
1
0.939485
1
0.938368
0.937819
0.929245
1
1.11103
1.01007
1
1.01274
1.01121
1.01656
1.01851
1
1.02043
1.03096
1.03286
0.992133
1.02811
1.02953
1.03141
1.03007
1.02776
1.01082
0.960335
1.00522
0.995208
1
0.984947
0.968414
0.956599
0.996987
1
1.04266
1.02791
0.942449
1
1.01195
0.978132
0.986739
1.01163
1
1
1
0.974369
0.996684
0.997343
1.02891
1.00014
1.00161
0.94651
1.02292
0.987656
1.02274
1.00284
0.978821
0.94403
0.963613
0.942557
0.983558
1.03226
1.00323
1
1.03201
1.05149
0.97612
0.991473
1
1
1
1.00339
0.999999
1
1
0.927564
0.992402
0.954489
1
0.980602
1
1.00299
0.977261
1
1
0.924849
0.95555
1.01543
0.956835
1.00918
1.00928
1
1.0334
1.00589
1
1.00558
1
0.996332
1.01033
1.01256
0.967534
1
1
0.984393
1.01103
1.00049
0.997039
1.00719
1.00717
1
1.01011
1.0004
0.996647
0.997067
0.953608
0.997271
1
0.977755
0.958729
0.99882
0.94936
0.999244
1.0282
1
1
1
0.969192
0.997242
1
0.996178
0.997462
1.0178
1.02345
0.965143
0.996843
0.923655
0.981291
1.04125
1
1
0.980475
1.04517
1
1
1
0.995536
1
0.995321
0.935204
1.00875
1.01046
1
1
1.00976
1
0.998043
0.998545
1.06758
0.998705
1
1.03113
1.0699
0.999912
1.00902
1.04015
1
0.979363
1.05887
1.04972
0.981565
1
1.03797
1.0599
1.05373
1
1.00317
0.926828
1
1
0.964018
1.05454
1
1.04418
1.02422
1
1
0.980024
1.04891
1.00867
1.00846
1.05509
1.02064
0.952393
1
1.04854
1.04965
1.00725
1.00861
1
1.02106
1.02032
1.02251
1.02904
1
1.04422
1
1
1
1.04335
1
1
0.972415
1.00752
1
0.973083
1.04495
1.0082
0.997057
1
1.00859
1
1.00733
1
1
1
1
1
1.00537
1
1
1
1
1
1
1.02084
0.935524
1
0.994056
1
1
1
0.990214
0.971004
0.940084
1
0.940173
1.02482
1
1
1
1.02724
1
1.0298
1
1.05353
0.961185
0.947569
1
1
1
1
1
1
1.06139
1.05985
1.00497
1.05216
1
1
1
1
0.962748
1
1
1
1.02674
1
1
1
0.985074
0.985876
0.964361
1.03983
0.962398
0.981359
1
1
0.994377
0.988994
1.02777
1.02949
0.949634
1.02982
1.02715
0.998027
1.02897
1.02926
1.00675
1.03732
0.999977
0.963251
1.02408
1.02818
0.99997
0.999974
1.02877
1.00649
1.02994
1
1.00729
1.02966
0.999754
1.02717
0.964358
1.00847
1.02923
1.03155
1.0188
1.01631
0.949467
1.01604
0.970666
1
1.00318
0.954531
1.01863
1.00606
1.03175
1.03013
1.02141
1
1.00694
1.04755
1
1
0.929866
1
1
1.00891
0.960081
1
1.02984
1.02882
1.03038
1
0.959872
1.02737
1.02958
1.02927
1.02616
1.02891
1.02108
1.01359
1.04084
0.96357
1.04573
1.02724
1.03601
1.02752
1.02559
1
0.963961
1
1.00111
1
0.930648
1.01625
1.02596
1.02999
1.019
1.0304
1.00522
1.02274
1.0268
1.00826
0.966295
1.04202
1
1.02408
1.02454
1
1
1
1
1
1
1
0.974092
1
1.00556
0.929355
0.959557
1.04595
0.927161
0.959094
1.02297
0.95283
1
0.928111
1.00554
0.968777
1
0.997724
1.01937
1
1
1.05817
0.930451
0.967327
0.964652
1.02123
1
1
0.924101
0.993218
0.996152
1.03942
0.924656
1
1
1
1.02739
1
1.0214
1.02142
1.0113
0.927343
1.01935
1.02024
1
0.966996
1.02065
1.02762
1.00566
1
1.05519
1
1
1.0252
1.01932
1.0108
1.05076
0.930069
1.05542
1.05842
1.03849
1
1
1.02637
1.01626
1
1.01709
1
0.941198
1
1
1.01608
0.930304
1
1.01731
1.02317
1.01734
1
1
1.01684
1.0422
0.935531
0.9609
0.935645
0.986814
0.980164
0.985847
0.933532
1.0043
0.987452
1.00846
1
1.01649
0.930872
0.938054
0.999363
1.03645
1.01502
0.968615
1
1
1.00806
1.00679
0.981355
1
1.01348
0.987048
1.0146
1.01038
1.01491
0.987904
1.01018
1
0.936974
1
0.924831
1.00536
1.01334
1.00653
1.00347
0.924947
0.968645
1.02838
1
0.97227
1.00392
0.955837
1.06073
0.965221
1.01016
1.01266
1.06028
0.937759
1.01211
0.995363
1
1.01236
1.01186
1.04071
1.04662
1
1.00945
1
1.00062
0.97069
1.00405
0.948596
0.938643
1
0.938709
0.946941
1.01062
1
0.928882
1.01317
1.02956
1.03111
1.0145
0.92903
0.969696
1.00468
1.02517
1.03148
0.937325
1.0179
1.00865
1
1.00823
1
0.995014
1.05547
1.0111
0.956205
1.049
1.01621
1
0.937989
1.02698
1.00509
1
0.936429
1.02699
1.0352
1.06004
1.0048
1
1.02271
0.99998
1.02388
1
1.02514
1.02337
1
1.03474
1.02523
1.00711
1.04151
1.02344
1.02183
0.975077
1
1
1.02359
0.94225
1
0.943633
1.00131
1.03534
1.03715
0.945431
1.01213
0.966095
1
0.946597
1.0727
1
1
1.04082
1.07086
0.944147
1.00273
1.02045
0.94531
0.944205
1.02625
0.97538
1.02061
1.01987
1.02666
1.04929
1.02098
1.02023
1.00892
1.00273
1.017
1.01495
0.989471
1.02017
0.942539
1
1.0264
1.07325
1.01825
1.04446
1.07262
0.960455
1
1.01811
1.01337
1.01641
0.967545
1
1
1.01942
1.01904
0.965907
1.00673
1
1
1.00745
1.02528
1.01543
1
1
1.01632
1.0153
1.01495
1.06036
1.00476
0.948135
1.01347
1.01417
1
0.947759
1.01522
0.959134
0.945519
1.02471
1.02875
1.0922
1.01872
0.996188
1.01792
0.980845
1.01761
1.01903
0.982059
0.995421
0.993457
1
1.0103
1
1
0.979727
0.979326
0.984341
0.979845
1.06114
1.0056
1
1
0.98373
1.01547
0.953767
0.961773
1.00724
0.953137
1.00461
1.02898
1.01554
0.954983
0.942891
1.00856
1.06596
0.95822
1
0.994997
1.02509
0.954319
1.07679
1.00855
0.995352
1
1
0.996983
0.989804
0.999988
1
1
0.988609
1
1.01294
0.959329
0.956082
0.967908
1.00861
1.01305
1.00313
1
0.955254
0.968227
1
0.95434
0.953519
1.00279
0.997208
1.00499
1
1
1.02105
0.981259
1.00587
0.956246
0.957162
1.07097
0.968625
1
1
1.00952
1
1
1.02721
0.995146
1.02324
1.00985
1
0.936469
1.02526
0.973463
1
0.970314
1.04735
0.985029
1
1
1
0.963608
0.979915
1.02183
0.971301
1
1
0.943409
0.969264
0.958763
0.957523
1.02154
1.02154
0.971561
1
1.00008
1
1.01674
1
1
1
0.981444
1
0.999271
1
1
1
1
1
1
1
1
1
1
1
1
1.0269
0.999993
1
0.998107
1.02164
1.03388
1
1
1.00091
0.956735
0.973822
1.02149
1
1.00011
0.996686
1.02284
1.00721
1
1
1
1
1.00417
1.02231
0.997843
1.02311
1.00518
0.971553
1.02249
1.0007
0.972598
0.992562
1.0293
0.937498
1.03336
0.998478
0.997859
0.999926
1
1
0.946828
1.0272
1
1
1.02507
0.95194
0.976016
0.993889
1.02403
1.03117
1
0.967296
1
1.00236
1.02328
1.02633
1.01206
0.963268
0.97494
0.99475
1.02934
1.00238
1.03121
1.00085
1
1.01106
1.00344
0.965348
1.02645
1.05761
1.00085
1
1
1.01259
1.02805
1.01272
1.02322
1.0723
1.00381
0.953369
1.00918
1
1.01248
1.02411
1
1.02838
0.985947
0.952669
1.0267
1.01172
1.00551
1.00493
1.02494
1.00437
1.01104
1
1.01274
1.01224
1.02499
1.00423
1
1.01269
1.00889
1.00754
1.00528
1.02319
1.00851
1.00923
1
1.02573
1
1.00966
0.935914
1
1
1.07085
1.02148
1.03929
0.938059
1
1
1.01957
1.02088
1.00499
0.938261
1
1.00271
1
1.00832
1.06403
1.02994
1.00773
1.00916
0.991816
1
1.02109
1.00597
1.02404
0.974142
1.0083
1.02761
1.00773
0.990701
1
1.02178
0.995825
1.02617
1
1.02116
1.01971
1
1.00726
0.960879
0.994825
1.01145
1.02213
0.943466
0.999941
1.02603
1.01702
1
1.01775
0.998977
1.00917
1.10464
1.00839
1
1
1
0.992353
1.0112
1.01804
1.01122
1.01709
1.01981
1
1
1.07288
1.03466
1.01369
0.970415
1
1.01354
1
1.01825
1.01124
1.00318
1.01536
1.06722
1.01225
1.02775
1.02595
1.01525
1.01381
1.0041
1
1.00086
0.945629
1.00667
1
1.01136
1.00735
1
1
1.00446
1
1
0.990849
0.963531
1.01712
1.01217
1.03854
1
0.999992
1
1.00052
1
0.975946
1.00568
0.973158
1.01227
0.931403
0.93832
1.01169
0.962992
1
0.956687
0.978893
1.02717
0.963095
1.01236
1
1.02149
1
1.03141
1.00889
1
1
1.00942
1
1.01439
1
1.01986
1.00919
1.00791
1.01379
1.00894
1
0.962495
1
1.04189
1.02854
1.00374
1.02932
1
0.999993
1.0216
1.02242
1
1.01615
1.02298
0.996434
1.00432
1.02377
0.999218
0.950979
1
1.00373
1.02417
1.02348
1.02093
1.02436
0.983404
1.02315
0.992102
1
1
1.00662
1.0129
0.979641
1.00329
0.995882
0.999959
0.998943
0.962179
1.01118
1.00522
0.967252
1
1.02477
1.01474
0.98191
1.01933
0.983879
0.999992
1
1.02131
1.02065
1
1
1
1
0.999989
1.04479
1.01857
1
0.9794
1
1.02165
1.0126
1.02243
1.02135
1.02024
1.01046
1.00977
1.01853
0.977094
1
1
0.988433
1.033
1
1
1.00742
1.02548
1.019
1.00013
1.00238
1.0254
1
1.0155
1.01308
1.01538
1.02799
1.03047
1.00259
1
1.01799
0.975151
1
1.00013
0.988222
1.02896
1.02317
1.02933
1.01805
0.97153
1.02631
1.05059
1.03009
1.03484
1.03139
1
1.01503
1.02504
1.0338
1.01056
1
1
1.01511
1.01527
0.973811
0.942381
1.02542
1
1.00966
1.00706
1.03907
0.964851
1.0151
1.03677
1.03785
0.985578
0.942854
1.01013
1.03549
0.964272
1.0126
1.01046
0.964091
1.05429
1.01133
1.00909
1.01069
1
0.991906
1.02199
0.99871
0.978652
1.0071
1.04102
1.0639
0.972023
0.999297
1.02189
0.999609
0.966433
1.01646
0.968315
1.04026
1.00754
1.00319
1.02122
1.00246
1.02433
1.01788
1.01486
1.01827
1.03977
1.00344
1.0218
1.00286
0.961112
0.96726
1.01774
0.96809
1.02542
1
1.00012
1
0.974213
1.02557
1
1
0.972562
0.999994
1
1.00348
1.0166
1.07601
0.994774
1
0.942548
1
0.980774
0.96833
1.02449
0.969104
0.999618
1.02469
0.999738
1.00514
1.00623
1
0.978673
1
1.02363
1.02218
1
0.994833
0.977215
1.0408
1.02386
1.0411
1
0.976761
0.940516
1.02305
1
1.04492
1.00857
0.993371
1.02333
0.997174
1.02785
1
0.97885
1
0.968896
1.07229
0.980615
0.944138
1
1.02246
0.953089
0.981906
0.940361
1.0111
1.0225
1.02756
1.00611
1
0.996701
0.99732
1
1.04489
1
1.02105
1.02635
1.02599
1.04382
1
1
1.02156
1.00772
0.970109
1.04662
1
1
1.04563
1.02313
1.04874
0.92607
1.04762
1.02013
1
0.982825
1.00504
1.01129
1.03691
1.00942
0.987247
0.9871
1.05432
1.0293
1.04313
1.02253
1
1
1
0.969608
1.03784
1
1.00775
0.980536
1.04959
1.01547
1.00527
1.02339
0.976412
1.03863
1.02541
1.00705
1.0135
0.936526
1.002
1.01028
1
1.00847
1.01074
0.98768
1.01342
1.02876
1.02746
1.05072
1.00058
1.05553
1.05423
1
0.975334
0.939945
1.0377
1
1
0.999117
1
1.05323
0.951709
1.03838
1.02616
1
1.01286
1.00771
0.998372
0.999368
0.999336
1.01025
1.0369
1.00756
0.994236
1.05186
1
0.979962
1.00014
0.998915
0.999359
1.03666
1
0.980428
0.949089
1.00437
1.05661
1.01478
1.02274
1.05799
1.00442
1
1.00075
1.00216
1.02527
1.12248
1.01931
1.07207
1.03557
1.02062
0.983008
1.04153
1
1
1.02745
1.00209
1.03545
1.02758
1.00471
1.0029
1.02329
1.02363
1.00595
1
0.928101
1
0.941622
1.0022
1.03384
1.03392
0.974129
1
1
1.05887
1.02753
1
1
1.0054
0.973007
1.01635
1.06197
1.0047
0.998188
1.03174
1.00613
1.02802
0.972044
1
0.997903
1.03173
0.978362
0.972832
0.955055
1.00579
1.00564
1
1.01018
1
1
1.0619
0.973257
0.990169
1.02495
1.02999
1.07272
0.973765
1
1
1.03025
1.05654
1.00204
0.997357
1.00836
1
1.02528
1.00287
1.00822
1
1
1
1
1.01014
1
1.01107
1.02752
0.998586
1.01488
1.02792
1
1.00931
1
1
1
1.01045
1.0261
1.02645
1
1.02271
1.01005
0.965512
1
1
0.958865
1.01096
1
0.967192
1.01226
1
1
1
1
1
1.02361
1
0.983425
1.01187
1
1.03553
1.00422
1
1.02407
0.938073
1
0.965519
1.02599
1
1
1.035
1.03965
1
1
1
0.959414
0.959275
0.981888
1.01463
0.943574
1.03744
1
1
0.966688
1.03492
1
0.958835
1.01399
1
0.985699
1
1.01658
1
0.985135
1
0.955488
1
1
0.996921
0.938436
1.03447
1
1
1.01578
1
0.975434
0.969698
1.01647
0.942349
1
0.932703
1
0.953392
0.971013
1.00527
0.980113
1
1.02638
1.01558
0.989154
0.991526
0.996585
1
1.00026
0.98809
1
1
0.961944
0.957499
1.00998
0.939513
1.01806
1
1
1
1.01749
1.07838
0.971455
1.01963
1
1.00798
0.991217
0.971821
0.96835
1.04064
1
1.02742
1.01924
0.990064
1.01549
1.01432
0.956728
0.992992
1
0.970934
0.959047
1
1.03319
1
1
0.945411
1.02109
1
0.998816
1
1
0.993097
1.02453
1
1.00002
1
1.02159
1.03347
1
0.92053
1
1.02063
1
1.00071
0.955274
1
1
0.97922
1.02119
1
0.940572
1
0.934314
0.994196
1.00002
1.02222
0.993747
0.939287
1.02301
1.02929
0.967643
1.04687
0.998272
1.00003
0.998148
1.02177
1.02249
0.941567
1.02964
1.02658
0.969303
1
1.03682
1
1.0715
0.973652
1.02369
1.0243
0.937577
1.01202
0.998044
1
1.00283
1.02498
1.00884
0.989584
0.975334
0.998289
0.99868
0.97693
1
1.0251
1.02384
1
1
1
1.0232
0.977249
1.01885
1.02556
0.999938
1
1.02554
1.02808
1.01421
1.02515
1.02258
1
1.07098
0.940545
1.02517
1.02553
1.02299
1.01362
1
1
0.972419
1.02473
0.974803
1.02665
1.0246
1.00674
1.00772
1.00561
1.09042
1.02541
1.00795
0.950804
1
1.01187
1.02638
1.02147
1
1.0277
1
1.0473
1.01812
0.971974
1.05227
1.02403
1.01411
0.976682
1.01092
1.01711
1.04241
1
1.00736
1.00159
0.99398
1.01134
1.02713
1
1.02473
1.02595
1.02342
1.00347
0.974123
1
1.05701
1.01668
1.08196
1
1.03922
0.968806
1.01366
1.04805
0.976427
1.02441
1.02261
0.999278
1.04314
1.05297
1.00018
1.02786
1.03325
1
1.02003
1.01855
1.02363
1.02189
1.03636
0.95566
1.0617
1.02952
1.05784
1.02041
1.0035
1.02925
1
1.02738
1.02283
1.01798
1.02036
1
1.02907
0.973168
1
1.08376
1.02219
1.02976
1.02005
1
1.06246
0.981279
1
1.02076
1.03103
1.03936
1
1
1.01954
1.0222
1
1.03062
1
1.03873
1.02888
0.969784
1
1.03778
1
1.03687
0.944694
1
1.0061
1.03226
1.03759
1.03593
1
1
1
1.02269
1.03179
0.980991
1.0369
1.02097
1.03458
1.03133
0.952323
0.994578
1.03815
1
1
1.02427
1.02142
0.994824
1
1.02229
1.03886
1
1.03633
0.985842
0.996534
0.9864
1.03333
0.999999
1.03212
1.03093
1.02534
0.980418
1.03508
1.00652
1.00631
0.967073
1.00436
1.02441
1
1.08081
1.0333
0.973471
1.03082
1.05687
1.01257
1.00523
0.972648
0.965729
1
1.03256
1.03261
1.01553
1.02367
1.03266
1
1.01091
1.02831
1.01547
1.03395
1.03129
1
1
1.03212
1.02684
1.01494
1
0.937523
1
1
1.01163
1.03431
1
1.02881
1.04902
1.01995
1
0.975996
1.01701
1.03467
1.02442
1
1.02716
1.01183
0.979357
1.03088
1.04603
1.009
1.02711
1
1.0377
1.01875
0.992706
1
1
1.02187
0.983378
1.02462
1
1.02663
1.03376
1.03607
1
1.02551
1.01846
1
1.01356
1.02216
1.01958
0.970713
1.0122
1
0.970731
1
1.03719
1.00618
1
1
1.01717
1.0111
1.02039
1.01337
0.942509
1
1
0.975058
0.980432
1.03045
1.00388
1
0.992142
1.03576
1.02675
1.00025
1
1.02986
1
0.998441
1
1
1.0084
1
1.0391
0.992344
1
0.923581
1.03191
1.01964
0.957605
1
1.00645
1
1.02639
1.03331
1
1.03799
1
1
1.01245
1.03134
0.974124
1.02759
1
1.02825
1.02657
1.10312
1.04594
0.943827
1
0.975291
0.945558
1
0.973502
1
1
0.979009
1.02578
1
0.92916
1.02542
1.03428
1.02557
0.998868
0.942295
1
0.988741
0.995618
1.00181
0.993822
0.993682
1.00922
1.03355
1.00261
0.977751
0.977558
1
1
1.03723
0.994445
1
1
0.970042
1
1
1.016
1.02148
1
1.03588
1
1.01471
0.977327
0.952027
1
1.00005
1.01544
1.07113
0.937578
1.03539
1.01494
1.01586
0.976566
1.01786
0.953259
0.942368
0.942311
1.00903
0.942574
0.999414
1.03965
1
1.02354
1
0.949317
0.968814
1.05922
1.05489
1
1.02986
0.935797
0.972155
0.980561
1.03781
1.01903
0.94256
1
1.02012
0.971075
1.04862
1.02857
1.01269
1
1
1
1
1.01652
1.0136
1.03713
0.94895
1.02944
0.95353
1
0.982801
1.05584
1.01722
1.06031
1.01229
1.01839
0.976617
1
1
0.94103
1
1.01528
0.983196
0.953785
1.0034
0.998304
0.988368
1.01425
1
1.02103
1
1
1.03052
1.04008
1.00033
1.04951
0.976634
1.0145
1.02916
1.07871
0.975947
0.953702
1.01822
1
0.971797
1.03945
0.998959
0.999114
1.01611
0.9998
1.03043
0.999561
1
1.01554
1.01362
0.956617
1
1.01961
0.974557
1.01704
0.973343
1
0.930631
1.02768
1.01123
1
0.976415
1
1
1.00014
1
1
1.01684
1.02967
0.963314
0.976859
0.956434
1.01908
1.01147
1.04241
1
1
0.958257
0.973872
0.999833
0.998092
1.02199
1
1.01009
0.942806
1.00092
0.977123
0.970727
0.942056
1
1.02831
1.01712
1.01269
1.0414
1.01079
1
1
1.07053
1.00815
1.04346
1.0114
1.01951
1.02112
0.997519
0.999837
1
1.00365
0.999132
1.04274
1
0.999859
0.974298
0.9431
1
1.01021
1.01815
0.959098
0.989417
0.955436
1.02144
1.03885
1
1.02887
1.00842
1
1.01832
0.99821
0.961432
0.941664
1.00315
1.0204
1.01159
0.961184
1.00723
1
1.02377
1
0.950662
1
1
1.02004
0.943151
1
0.996343
1.04522
1.00646
1
1.03803
0.983105
1
0.98672
0.960282
1.0064
1.00557
1.02336
1.00063
0.942176
1.04399
1.00774
1.01114
0.952205
0.979883
1
1.0227
0.981464
0.985028
1.00565
0.974947
1
0.943734
1.02415
0.979615
1
1.01051
0.963865
1
1.01844
1.01997
1.02566
1.01744
0.979605
0.972774
0.976701
1.00712
1.01668
1
0.976599
1.01239
1.02207
0.987227
0.962077
1
0.962705
1.00744
1
1.01357
1
0.969089
0.995853
1
1.02501
1.01411
1
1.00854
1
0.984132
1.0198
1.01216
1.02564
1
0.942053
1
1.01479
1.08689
1.00853
1
1.01399
1.04301
1.01676
1.0258
1.01903
0.957587
0.980807
1.01907
1
1.06237
0.96434
1
0.972989
1.02796
0.994541
1.00903
1.05342
0.942977
0.999322
0.974525
1
1.02632
1.04439
1.0147
1.01557
0.985986
1
1.01722
1
0.963262
1
1.01307
1.01779
0.971228
0.999999
1.01774
1.02731
1.0436
1
1.03731
1.08559
1
1.00587
0.962984
1.01684
0.966633
1.01381
1.05567
1
1
0.985013
0.989866
1.03389
1.02426
1.04225
0.990533
0.972384
1.03789
0.994561
1
0.976924
0.973479
1.04514
1
0.96558
0.963574
0.942522
1.01453
1.02012
1
1
0.9741
0.92671
1.03447
1.02514
1.02725
1.02684
1.01504
0.94251
1.00012
1.02077
1
1.05575
0.980426
0.982271
1
0.976215
1.07978
1.01972
1
0.97684
0.989397
0.932957
1.0368
1.02316
1.02874
1.01057
1.00515
0.992417
1.01165
1
0.981388
1.02444
1.02296
1.01961
1.02577
1.02161
1.02716
1
0.978953
1.02028
1.0184
1
0.980444
1.01245
1.01229
0.99999
0.999122
1.03062
0.942259
1.01244
1.01059
1
1.01281
1.02858
1
1.03191
1.0005
0.9789
0.977922
1.0112
1
0.975815
0.977406
1.0155
1.01597
0.993483
1.02139
1.03367
1.0088
1.00967
1
1.06277
0.979243
1.00182
1.01614
0.997208
1.01649
1.03555
1.07616
1
1.01395
1.03914
1.02399
1
1.02242
1.02538
0.974128
1.02125
1
1.01961
1.02665
1.01143
1
1.03583
0.99662
1.02618
1.02814
1.01459
1.02902
0.945527
1.01974
1.03766
1
1
1.04973
1.04241
1.03017
0.979306
1.02607
0.97939
0.957724
1.00354
0.992174
0.997031
0.968129
0.970812
1.01742
1.02357
1.03155
0.979084
0.980273
0.973473
1.03079
0.995895
1.00595
1.02575
1.03292
1
0.991678
1.00942
1.01386
1
1.03775
0.979138
1.01706
0.997096
1
1.03471
1.00284
1.02828
1
1.0093
0.998337
0.977504
0.939494
0.996994
1
0.95506
1.01171
1.02831
1.01145
0.944434
1.00979
1.05146
1.02188
1.03738
0.977269
1.07558
1.007
0.967498
1.02498
0.947379
1
1.02788
0.999773
1.00421
1.07715
1.0072
1
1
0.974794
1.01274
1.02955
1
0.968074
1.0209
1.0258
1.02638
0.99766
0.976611
1.02524
1.03963
1.02467
1.02788
1
0.977139
1.0077
1.02219
1.06596
1
1
1.00382
1.00205
1
1.05326
1.02572
1
1.00797
1.05303
1
1
0.993254
0.966852
0.972311
0.964682
0.976241
0.9721
1.00665
0.999866
1
1.00473
1.03192
1
0.940088
0.976336
1.02874
1.00531
1
0.946307
0.932021
0.976235
0.995094
0.928861
1.02375
1.0281
0.996605
1.01305
1.00875
0.990125
0.967085
1.02599
1
1.01634
1.02014
1.02255
1.00006
0.988408
0.971104
0.968016
0.97814
1
1.00873
1
1.02938
1.0415
0.930991
0.988596
0.990913
0.974398
1
0.976481
1
1.02751
0.945697
0.994525
0.98878
1.02333
0.9888
1
1.01006
1.08681
1
0.995388
0.9912
0.957963
0.993155
1.05195
1.05025
1
1.0248
0.989785
1.05559
1
0.976516
1
1.04922
0.976786
1.00779
1.02206
1
0.930543
0.975083
0.992397
1.02394
1
1
1
1.00489
1.01787
1.02167
1.02434
1
1.04002
1.05094
1.02455
1.01345
0.937817
0.957471
1.04047
1.04552
1
1
0.970315
0.9716
0.998584
1
0.992563
1
0.997876
1
1.02158
0.998109
0.98605
0.976593
0.965297
0.92773
1.00901
1
1
0.981635
1
0.99329
1.0246
1.01647
1
0.985824
1.00538
1
1
0.99125
1.02095
0.992317
1.01335
1.01895
0.930407
0.975294
1.03023
0.966507
0.983053
1
1.07628
1
1.01773
1.01417
1.0048
1
1.0887
0.943848
1.03862
1.01936
1
1.02403
1.04126
0.995047
1.01655
1.0221
1
0.978776
1
1
1.01938
1.00018
0.972837
1.03458
1
1.02556
0.972873
1
0.96799
1.02711
1
1
1.00009
1.00051
0.928763
1.06286
1
1.02334
0.982036
1.01279
1
1.0506
0.978385
0.999968
1.01585
0.979631
1
1.00621
0.960809
1.02686
1.02495
1
1.02639
0.998786
0.973432
1.01727
1.01046
1.0361
0.978324
0.968432
1.00284
0.963096
1.0184
1.02777
1
1
1.06337
1.08122
1.01879
1
1.00546
1.00102
1.04119
0.982851
1
1.00023
0.981214
1
0.984144
0.967373
1.01229
1
1.02929
1.02157
1
1.0205
1
1.01339
1.00572
1
1.02726
0.974607
1.02285
0.995934
1
1.02661
1.01015
1.00707
0.977634
0.966905
1.00112
1
1.00785
1.02863
1.02722
1.05482
1
1.02483
1
1.02957
1.03117
1.08974
1
0.95742
1
1.02593
1
0.981559
1.01495
1.02409
1.01072
1
1.03337
0.939789
0.989419
1
1.03301
1.04839
1
1.02902
0.972796
1
1
1.0022
1.02846
1.01691
1.01215
1
0.999992
1.02876
0.998005
1.00533
1.00506
1
1
1.03114
1
0.973017
1.05281
1.04657
1
0.999848
0.978319
1.03513
1
1.03082
1
1
1.03482
1.03225
0.979335
0.972548
0.994791
0.957156
1.03515
0.97757
1
1.03074
1.00002
1
1.0201
1
1.03225
1.03676
1.05797
1.0321
0.998088
1.00573
0.997751
1
0.976823
0.978943
0.926617
1.00008
1.04743
1.05382
0.971602
1
0.986817
1
0.932567
1.0189
1.00592
1.02443
1.03461
1.04185
0.997937
0.953945
1.01363
1
1.03178
0.999977
0.995989
1.03901
1
1
1.0306
0.98594
1
1.04914
1
0.985055
1.03339
1.00302
1
0.982399
1.03274
1.03216
1.02094
1.03622
0.99009
1.01877
1
0.96091
0.978354
1.00514
0.957688
1
1.01534
0.978682
1.02169
1
0.981662
1.041
1.0053
1.03292
1.0007
1.00996
0.975012
0.940039
0.943563
1
1.02582
0.98141
1.03075
1.01064
1.03831
1.08734
1.0225
1
0.985002
1.03286
0.943252
0.999994
1.0178
1.00288
1.01259
0.983124
1.02014
0.976174
0.976495
1.00888
0.978926
1.01626
1.00924
1
1.00964
1.03737
1
1.08861
1
1.01822
1
1
1
1
1.02582
1.03013
1.04347
1.02213
1
1.0018
1.01477
1.01072
1
1
1.01546
1.01418
1.04052
1
0.979148
1.01162
1.01454
1.01771
1
1.01343
1
0.992141
1.01385
1
1.00812
1
1.02601
0.979093
1.03788
0.939498
1
1.04293
0.998202
0.979041
1.00062
1.0167
1.01418
1.00032
0.986527
0.993045
1.04284
0.938694
0.98767
0.97803
0.984928
1.00003
1
1.01713
0.957473
1.00918
1.02043
1
1.02932
1.0297
1.00559
1.03676
0.984005
0.957989
1
1.05907
0.98411
0.983964
0.996419
1.03502
1.03342
1.03635
1
1.00014
1
1.03393
1
1.01682
1.00398
1.01983
0.959545
1
1
1
1.03499
1.08452
1.03161
1
1
1.03117
1.00582
1
1.08068
0.952998
1
0.99886
0.974092
1.00772
1.02452
1.00116
1.01861
1.03612
1
1.0818
0.962711
1.02518
1
0.976629
1
0.989086
1.03587
0.963094
0.977277
1.03836
1.02158
1.01493
1
0.994978
0.964317
1.05069
0.999174
1
0.969879
1.03199
1
1.05271
0.990197
0.955392
1.03647
1.06125
0.97644
0.951974
1.05715
0.96496
1
1.01808
1
1.01759
1.02569
1
1
1
1.0071
0.973642
0.951567
1.05444
0.999995
1.01941
0.972307
0.997225
0.965108
1.04084
1
0.971005
0.992426
1.03909
0.947623
1.01493
0.990421
1.0329
1.03324
0.972524
0.999757
0.966546
0.998094
0.999811
1
1.00739
1.00893
0.964617
0.961728
1.03808
0.958756
1
1
1.03896
1.01254
0.963039
0.986646
1.01733
1.03721
1
1.01186
1.01004
0.975545
0.990672
1.0022
1.03975
1
0.964051
1.03608
0.995279
0.988744
0.971358
1.0394
1.01901
1.06766
1
1
1.03564
1
1
1.02182
1
1.03432
1.03064
0.977701
1
0.97716
1
0.977472
0.955281
1
0.979704
0.969039
0.989905
1.02908
0.978027
1.03081
1.00319
1.04176
0.996522
1.02065
1.0318
1
1.04679
0.97499
1
1.01876
1
1.04867
1.00008
1.00627
1.00308
1.01858
0.978219
1.01177
0.964907
0.989808
0.981406
1.00732
1
0.997285
1
0.989894
0.951412
1
1
1
0.962326
1
0.99988
0.964004
0.995715
1.02929
1.05632
0.977206
0.990277
1
1.03097
1.0203
0.971766
1
1.04475
1.02936
1
1
1
1
1
1.00495
1
1
0.974707
1
0.94705
1
1
0.980047
1.00549
0.997976
1
1.02173
1
1
1
1.02639
1
0.937935
1
1.06745
1.06161
1
0.985884
1.04751
1.00306
1.01555
1
1.03028
0.980041
1.02068
1.02012
0.97303
1
1.02226
1
1
1
1.01158
1.02245
1
1.02213
1.01683
1.02839
1
1.08295
1.01566
1
1
1.02487
1.02114
0.98254
1.05191
1
1.06001
1.00002
0.99999
0.981853
0.998934
0.946997
1.01751
1
1
0.953963
0.999007
0.969588
0.977926
0.978287
0.964374
0.982546
0.978022
1.01229
1.0148
1.02902
1.00918
0.946259
0.9818
0.947661
1.01947
1
1.02704
0.997515
1.01744
1
1
0.990914
0.998693
1.02614
0.965038
1.0156
0.988254
1
1
1.02094
0.984953
0.953523
1.02892
1.05068
1
0.99507
1.07951
0.991563
1.03622
0.988952
0.977106
0.98893
1.01532
0.997044
1.03316
1.02804
1.04368
0.991156
0.979402
1.0231
0.964728
0.956182
0.977572
1
1.03803
0.976346
1.01225
1
0.93262
1.04667
1.09
1.01327
1.01821
1.0249
1.03233
0.93897
0.97826
0.975058
0.97937
1.05097
1.00251
1
1
1.03155
1.04548
1.04774
0.997253
1.02328
1.00023
1
1.04591
1
1.07514
1.02528
1
1.02659
0.974458
1
1.06897
1.00452
1.0268
0.970008
1.02613
1
1
1.00575
1.0189
1.02515
1.04299
1.01609
1.0553
1.00994
1.01409
1.06047
1.01916
1.02438
1.04044
1.03005
1
1.04271
1
0.976102
1.03516
1.03067
1
1.0236
0.979138
1
0.986865
1.04703
1
1.041
0.928815
1.05906
1.0297
0.930736
1
1.06512
1
1.04373
1
1.0331
1.02555
1.04217
1.02639
1.04499
1.02762
1
1.01053
1
0.931904
1.03614
1
1
0.989721
1.00326
1.0164
1
1
0.987785
1.01353
1
1.00945
1
1.02534
1
1.03398
1.0295
1.07782
1.0025
1.01643
1.04504
0.999633
1
0.991259
1
1.02874
0.993166
1.04047
0.998726
1.01278
0.999991
1
1.02377
1
1.05143
0.963363
1
1
1.01078
1.03913
1.04145
1.04766
1.06512
1.05131
1.02486
1.01756
1.02438