/*--------------------------------*- C++ -*----------------------------------*\
  =========                 |
  \\      /  F ield         | OpenFOAM: The Open Source CFD Toolbox
   \\    /   O peration     | Website:  https://openfoam.org
    \\  /    A nd           | Version:  12
     \\/     M anipulation  |
\*---------------------------------------------------------------------------*/
FoamFile
{
    format      ascii;
    class       volVectorField;
    location    "4.19";
    object      U;
}
// * * * * * * * * * * * * * * * * * * * * * * * * * * * * * * * * * * * * * //

dimensions      [0 1 -1 0 0 0 0];

internalField   nonuniform List<vector> 
22702
(
(2 -1.96663e-13 0)
(2 2.65805e-14 0)
(2.0394 -0.0953173 0)
(2 -1.14244e-09 0)
(1.97959 0.0329706 0)
(2 -2.47725e-14 0)
(1.82816 0.22863 0)
(2 -2.88066e-14 0)
(2 -1.65242e-13 0)
(2.12895 -0.264104 0)
(1.83062 0.227668 0)
(1.82815 0.228816 0)
(2 -1.63225e-14 0)
(1.83057 0.228651 0)
(2.03867 -0.0820856 0)
(2 -2.47942e-13 0)
(2 -8.58404e-14 0)
(2 4.78014e-14 0)
(1.82939 0.227946 0)
(2 -1.56708e-14 0)
(1.83318 0.229284 0)
(2 1.75957e-13 0)
(1.82965 0.228486 0)
(2.09319 -0.258545 0)
(1.83322 0.230363 0)
(2.09227 -0.269272 0)
(2 -2.09477e-14 0)
(1.8292 0.228315 0)
(2.12148 -0.27112 0)
(2.09314 -0.2569 0)
(2 5.01247e-14 0)
(1.8289 0.228873 0)
(2 2.67254e-14 0)
(2 7.6331e-14 0)
(2 -2.3453e-13 0)
(1.8437 0.215071 0)
(1.83463 0.229888 0)
(1.82972 0.228703 0)
(2 -1.32025e-13 0)
(2 -2.99823e-13 0)
(2.1234 -0.268638 0)
(2 -3.79097e-14 0)
(1.91692 0.124189 0)
(2 1.30343e-14 0)
(1.82907 0.228239 0)
(2 -3.47701e-13 0)
(2 4.52462e-15 0)
(2 -2.54877e-13 0)
(2 -2.46735e-13 0)
(2.10501 -0.261465 0)
(2 1.97652e-14 0)
(2.10315 -0.263096 0)
(2 7.79079e-14 0)
(1.83181 0.227954 0)
(2 -9.06526e-14 0)
(1.8304 0.228751 0)
(2 -9.43552e-14 0)
(2 1.51892e-09 0)
(2 -4.79331e-14 0)
(2 -1.71157e-13 0)
(2.10379 -0.268944 0)
(2 -8.24802e-14 0)
(2 -1.93544e-13 0)
(2.1238 -0.265052 0)
(2 -6.11043e-15 0)
(2.10238 -0.26379 0)
(2 -1.96778e-13 0)
(2 -2.08112e-13 0)
(2 -4.80214e-14 0)
(2.11216 -0.261194 0)
(2 -1.3929e-13 0)
(1.83088 0.22888 0)
(1.89676 0.152391 0)
(2 1.30377e-09 0)
(1.8309 0.228808 0)
(1.82173 0.237518 0)
(2.08804 -0.261065 0)
(1.82912 0.228817 0)
(2.1077 -0.263344 0)
(2 -2.73897e-13 0)
(1.83061 0.228593 0)
(2.11029 -0.260224 0)
(1.83009 0.228434 0)
(1.8275 0.228116 0)
(2 1.52336e-13 0)
(2 9.0091e-07 0)
(2 -3.14518e-15 0)
(2 1.48539e-13 0)
(2.02243 -0.0451383 0)
(2.11914 -0.260474 0)
(1.83193 0.22889 0)
(2 -2.6391e-13 0)
(2 -5.51349e-11 0)
(2.13326 -0.261979 0)
(2 4.18846e-14 0)
(1.8333 0.229162 0)
(2.13758 -0.262474 0)
(2 2.5648e-08 0)
(2 -5.84395e-15 0)
(2 -2.18642e-13 0)
(2 1.46491e-14 0)
(1.9171 0.126844 0)
(1.83028 0.228559 0)
(2.09903 -0.268946 0)
(2 1.44786e-10 0)
(2 -1.02823e-09 0)
(1.95751 0.0592502 0)
(2 9.05765e-09 0)
(2.10681 -0.263177 0)
(2 -2.11817e-13 0)
(1.8312 0.229393 0)
(1.82943 0.228677 0)
(2 4.24421e-09 0)
(2 -5.92265e-14 0)
(2.10626 -0.275735 0)
(2.10412 -0.271185 0)
(2.12201 -0.262618 0)
(2 3.66368e-14 0)
(2 -1.56468e-07 0)
(2 5.24838e-14 0)
(2 -1.71362e-13 0)
(2 9.4744e-08 0)
(2.0282 -0.0593879 0)
(2 -1.00242e-07 0)
(1.85518 0.203778 0)
(1.98833 0.025562 0)
(1.83067 0.228953 0)
(2 2.48683e-13 0)
(1.83153 0.229334 0)
(1.82922 0.228147 0)
(1.83121 0.228729 0)
(1.83055 0.228888 0)
(2 -1.66318e-13 0)
(2.10459 -0.267599 0)
(2 4.04091e-15 0)
(2.12397 -0.265786 0)
(2 -3.79359e-16 0)
(2 -1.23479e-13 0)
(2 2.42939e-14 0)
(2 -8.1056e-14 0)
(1.82966 0.228618 0)
(2 3.23353e-09 0)
(2 -1.86746e-13 0)
(2 -3.08841e-13 0)
(2 2.00278e-15 0)
(1.83061 0.228896 0)
(2 2.10721e-14 0)
(1.99387 0.0150296 0)
(2 -5.47135e-14 0)
(2 -2.23548e-13 0)
(2 -7.24539e-11 0)
(2 3.79113e-14 0)
(2.10486 -0.261903 0)
(2 -5.71578e-14 0)
(1.99571 0.0089578 0)
(2 -5.33217e-14 0)
(2.10709 -0.264469 0)
(2 8.44556e-14 0)
(2 4.15589e-14 0)
(2 -4.02366e-14 0)
(1.83178 0.229246 0)
(2 -4.53281e-14 0)
(1.83085 0.22903 0)
(2.12274 -0.271064 0)
(2.10499 -0.272141 0)
(1.83047 0.228899 0)
(1.83027 0.228687 0)
(2 -2.64292e-14 0)
(1.97222 0.0468206 0)
(1.90392 0.141372 0)
(2 -9.8139e-14 0)
(1.83071 0.228497 0)
(2.10746 -0.265515 0)
(1.84259 0.215675 0)
(2 1.62218e-14 0)
(2 1.09853e-13 0)
(2 1.19086e-14 0)
(2 -2.45798e-13 0)
(1.83078 0.228421 0)
(1.87032 0.185438 0)
(2 -6.31674e-14 0)
(1.82938 0.228645 0)
(2.12585 -0.263436 0)
(1.83071 0.228574 0)
(2 -1.41327e-13 0)
(2.12313 -0.263865 0)
(2 5.54387e-14 0)
(2.10074 -0.264152 0)
(2.0946 -0.269653 0)
(2.00008 -0.000140392 0)
(2 1.11155e-13 0)
(2 1.40891e-14 0)
(1.82904 0.230149 0)
(2 7.29763e-14 0)
(2 -2.64437e-13 0)
(1.83136 0.228875 0)
(2 -2.3922e-13 0)
(1.83287 0.228962 0)
(1.82893 0.228795 0)
(2.1001 -0.276514 0)
(2 -6.09167e-14 0)
(2 -1.17398e-13 0)
(2.11451 -0.26134 0)
(1.83177 0.228823 0)
(2 5.86216e-14 0)
(2 -6.31283e-14 0)
(2 2.17799e-15 0)
(1.83168 0.228883 0)
(2 -1.37082e-13 0)
(2.12429 -0.262183 0)
(2 -6.15827e-11 0)
(2 -1.41182e-13 0)
(1.8318 0.229215 0)
(1.83119 0.228943 0)
(1.83247 0.229142 0)
(2 2.06193e-15 0)
(1.99999 2.36879e-05 0)
(2 5.6945e-15 0)
(2 4.86015e-14 0)
(2 -1.04804e-14 0)
(1.83276 0.228896 0)
(2 -5.87921e-14 0)
(2.12256 -0.258155 0)
(1.82395 0.234867 0)
(1.83164 0.228889 0)
(1.83469 0.229651 0)
(2 1.94282e-07 0)
(2 6.84531e-14 0)
(2 8.19281e-14 0)
(2.11679 -0.275606 0)
(1.83216 0.22868 0)
(1.91996 0.128355 0)
(2 8.38676e-14 0)
(1.83037 0.229267 0)
(2.1293 -0.266453 0)
(2.13236 -0.266538 0)
(1.83067 0.229436 0)
(1.83182 0.228265 0)
(2 -7.71752e-15 0)
(1.83081 0.229076 0)
(2.12125 -0.271466 0)
(1.85169 0.207044 0)
(2 8.84584e-14 0)
(2 1.45755e-13 0)
(2 -5.54064e-15 0)
(2 2.28805e-13 0)
(1.83176 0.228934 0)
(2 -1.22888e-13 0)
(1.90002 0.152702 0)
(1.98496 0.0267621 0)
(2 1.21432e-13 0)
(2 -2.5783e-13 0)
(1.83164 0.228852 0)
(2.13905 -0.262663 0)
(2.06847 -0.16794 0)
(2 -5.48293e-14 0)
(1.83201 0.228073 0)
(2.11807 -0.268068 0)
(1.82973 0.23163 0)
(2 -1.20383e-14 0)
(2 2.77773e-15 0)
(2 1.15752e-15 0)
(2 -4.117e-14 0)
(2 5.19792e-15 0)
(2 -2.7608e-14 0)
(2 -3.00823e-14 0)
(2.10849 -0.267941 0)
(2.07644 -0.171319 0)
(2.13334 -0.264332 0)
(1.83132 0.228996 0)
(2 -1.19583e-13 0)
(2 4.57616e-14 0)
(2 -1.65549e-07 0)
(2 9.75151e-14 0)
(1.8456 0.211693 0)
(2 -1.16478e-07 0)
(2.10812 -0.265555 0)
(2 -1.66194e-14 0)
(2.1123 -0.284112 0)
(2.11075 -0.263526 0)
(1.83192 0.228835 0)
(2.10427 -0.261571 0)
(1.83337 0.229114 0)
(2 6.57143e-14 0)
(2 -2.26068e-13 0)
(2 -1.40031e-13 0)
(2.00085 -0.0015529 0)
(2.12559 -0.267563 0)
(2.14003 -0.264962 0)
(2 -2.90998e-07 0)
(2 -1.38083e-07 0)
(2.11668 -0.285714 0)
(2 2.44296e-09 0)
(1.82934 0.228303 0)
(2.10819 -0.26954 0)
(2 -1.18222e-14 0)
(2 -3.30741e-11 0)
(1.8308 0.228791 0)
(2.1381 -0.272215 0)
(2 -2.37584e-13 0)
(1.83047 0.234291 0)
(2.10371 -0.269661 0)
(1.83162 0.228932 0)
(2 6.00313e-14 0)
(2.10906 -0.286568 0)
(2.00086 -0.00138861 0)
(2 -1.33991e-13 0)
(2 2.53735e-06 0)
(2 -1.27577e-13 0)
(2.11157 -0.26526 0)
(2 -2.95487e-13 0)
(2 -1.80581e-07 0)
(2 -3.13194e-08 0)
(1.99999 1.34209e-05 0)
(1.98797 0.00462697 0)
(1.89622 0.151828 0)
(2 -2.71651e-11 0)
(2.09222 -0.258117 0)
(2 -1.59083e-11 0)
(2 1.63087e-06 0)
(2 -2.24373e-16 0)
(2 -2.00799e-13 0)
(2 -8.41486e-15 0)
(2 -2.00016e-13 0)
(2 -7.43569e-13 0)
(1.8306 0.22873 0)
(2 3.02065e-13 0)
(1.82865 0.22999 0)
(2 9.41461e-14 0)
(2 -6.72223e-14 0)
(2 2.03993e-14 0)
(2.11854 -0.259483 0)
(2 9.9775e-14 0)
(1.8306 0.228709 0)
(2.11837 -0.267516 0)
(2 -1.66914e-14 0)
(1.86098 0.185836 0)
(2 1.79501e-13 0)
(2 -7.44464e-15 0)
(1.82983 0.228725 0)
(2 6.97376e-14 0)
(2 -8.18052e-09 0)
(2 1.67602e-13 0)
(1.83155 0.227396 0)
(2 4.43366e-10 0)
(2 -3.36871e-14 0)
(1.83013 0.228182 0)
(1.83002 0.228536 0)
(2 7.07356e-14 0)
(1.96679 0.0570298 0)
(2 -2.47686e-14 0)
(2 -2.33554e-15 0)
(2.12698 -0.263474 0)
(2 -1.10152e-13 0)
(2 5.29352e-14 0)
(2 -6.70295e-14 0)
(2.12577 -0.261849 0)
(2 8.35147e-14 0)
(2 1.17345e-13 0)
(2 8.34064e-14 0)
(2 2.44159e-14 0)
(2.09476 -0.265764 0)
(2 -5.02324e-14 0)
(2 -6.6843e-14 0)
(2 4.79715e-15 0)
(2 -3.26909e-15 0)
(2 -2.07393e-13 0)
(2.13949 -0.259585 0)
(1.99998 4.07675e-05 0)
(1.83084 0.228955 0)
(2 4.31057e-14 0)
(2 -4.61226e-05 0)
(1.83069 0.22894 0)
(1.82997 0.228618 0)
(2 1.71826e-13 0)
(2 1.1622e-13 0)
(2.10302 -0.278039 0)
(2.06632 -0.123581 0)
(1.82998 0.228262 0)
(2 -8.95135e-14 0)
(2 -1.3248e-13 0)
(2 1.02078e-13 0)
(1.83177 0.228988 0)
(2.11161 -0.264504 0)
(2 1.45391e-13 0)
(1.83086 0.229043 0)
(2 1.40169e-13 0)
(2 1.50802e-13 0)
(2.09292 -0.212207 0)
(2.08141 -0.215209 0)
(2 -2.6904e-13 0)
(2.12273 -0.269816 0)
(2.13064 -0.257629 0)
(2 7.44464e-14 0)
(2 1.32748e-14 0)
(2 -8.42493e-14 0)
(2 8.67245e-14 0)
(2 -9.37403e-11 0)
(2 -1.74326e-13 0)
(2 1.09005e-14 0)
(1.82772 0.228793 0)
(1.95359 0.0593387 0)
(1.83274 0.230722 0)
(2.13895 -0.259442 0)
(2.03348 -0.0620284 0)
(1.82919 0.228855 0)
(2 -6.33302e-13 0)
(1.83074 0.228898 0)
(1.82989 0.22839 0)
(2.13186 -0.262767 0)
(2.07327 -0.153606 0)
(2 1.06385e-13 0)
(2.13194 -0.265627 0)
(2 -2.35802e-14 0)
(1.82179 0.233859 0)
(2 -1.26784e-14 0)
(2 -4.87477e-14 0)
(2 -8.35451e-14 0)
(2 4.00198e-14 0)
(1.83173 0.228765 0)
(2 -3.04155e-13 0)
(2 -9.14385e-14 0)
(2 -1.21623e-13 0)
(2 1.54147e-09 0)
(2 -3.95011e-16 0)
(2 -9.03507e-14 0)
(2 3.95611e-14 0)
(1.93859 0.0955352 0)
(1.83086 0.228857 0)
(2 6.77354e-14 0)
(1.83132 0.228962 0)
(2 -2.34146e-14 0)
(2 -1.01802e-13 0)
(2.11069 -0.260732 0)
(2 5.00808e-14 0)
(2 -4.48912e-14 0)
(2 -1.56355e-13 0)
(2 -8.51595e-14 0)
(1.83165 0.228898 0)
(1.87254 0.182301 0)
(2 -2.50838e-13 0)
(2 -2.0865e-13 0)
(2.12123 -0.26383 0)
(1.83174 0.228957 0)
(1.83176 0.229173 0)
(2 -2.28105e-13 0)
(1.83186 0.22922 0)
(1.83135 0.228827 0)
(1.83124 0.228955 0)
(2 -9.27013e-14 0)
(2.06254 -0.112892 0)
(2 1.90439e-13 0)
(1.83235 0.229136 0)
(2.00567 -0.0127148 0)
(1.83127 0.228907 0)
(2 -1.02586e-13 0)
(2.13776 -0.264905 0)
(2.00035 -0.000577952 0)
(1.82889 0.22797 0)
(2 -1.85936e-13 0)
(2 9.28158e-14 0)
(2 -6.3123e-11 0)
(2 -2.17689e-11 0)
(2.10374 -0.265381 0)
(1.83205 0.228751 0)
(1.84805 0.210357 0)
(2 4.87746e-14 0)
(1.83525 0.23043 0)
(1.83199 0.229096 0)
(1.83003 0.228336 0)
(2 2.08737e-13 0)
(1.91749 0.127899 0)
(1.83154 0.228977 0)
(2 -1.61473e-13 0)
(2 6.61046e-14 0)
(1.88365 0.168021 0)
(1.9793 0.0349895 0)
(1.83162 0.229227 0)
(2.02701 -0.0416431 0)
(1.83145 0.229128 0)
(2 -7.37761e-14 0)
(1.83126 0.229027 0)
(1.83131 0.228945 0)
(1.8312 0.228986 0)
(1.83181 0.229223 0)
(2 -7.7873e-14 0)
(1.84095 0.220294 0)
(2.02863 -0.058571 0)
(2.03147 -0.077535 0)
(2 -3.20103e-14 0)
(2 -3.74154e-07 0)
(2 -1.28338e-13 0)
(2 8.84674e-14 0)
(1.83044 0.230386 0)
(2 -1.1245e-14 0)
(2 1.10871e-13 0)
(2 8.45397e-14 0)
(2 -6.9792e-14 0)
(2 1.04964e-13 0)
(1.82913 0.227959 0)
(2 8.26813e-14 0)
(2 -2.55099e-14 0)
(2.00166 -0.00295653 0)
(1.83176 0.229144 0)
(1.86777 0.192079 0)
(2 5.43448e-14 0)
(1.86334 0.186774 0)
(1.99998 2.61626e-05 0)
(2 6.94993e-14 0)
(2 1.29877e-13 0)
(1.83177 0.229371 0)
(2 -1.9946e-14 0)
(2.00154 -0.00152855 0)
(1.99824 0.00426623 0)
(2 3.60816e-14 0)
(1.83146 0.228895 0)
(2 3.41632e-14 0)
(1.83202 0.229147 0)
(2 4.31363e-14 0)
(2 8.28869e-14 0)
(1.87326 0.180457 0)
(2 9.57975e-14 0)
(1.83195 0.229493 0)
(1.99999 1.28143e-05 0)
(2 1.63243e-13 0)
(1.83166 0.229796 0)
(2 3.21719e-13 0)
(1.83168 0.228938 0)
(2 4.64476e-14 0)
(2 2.90121e-06 0)
(2 -1.16864e-14 0)
(1.83164 0.228863 0)
(2 -3.05641e-14 0)
(1.83044 0.229614 0)
(2 4.66333e-06 0)
(1.83173 0.228834 0)
(1.82936 0.228752 0)
(1.83162 0.228777 0)
(1.82711 0.228063 0)
(2 -1.46543e-14 0)
(1.83327 0.227895 0)
(1.83867 0.222509 0)
(2 7.78301e-16 0)
(2.09764 -0.259111 0)
(1.84194 0.217582 0)
(1.87903 0.173363 0)
(2 -2.48941e-14 0)
(1.83162 0.228811 0)
(2 3.61338e-15 0)
(2.13568 -0.264539 0)
(2.10165 -0.267916 0)
(2 -2.02523e-14 0)
(2 1.44943e-13 0)
(2 2.02183e-14 0)
(2 6.08332e-14 0)
(2 1.40172e-09 0)
(2.14416 -0.262665 0)
(2 -1.14375e-13 0)
(1.83136 0.228928 0)
(1.95471 0.0621897 0)
(1.83202 0.229381 0)
(2 -2.01232e-14 0)
(2 8.41779e-11 0)
(2 -1.07636e-13 0)
(2 -1.97441e-13 0)
(2 -5.92271e-08 0)
(1.83131 0.228975 0)
(2 -1.33426e-13 0)
(1.83157 0.228268 0)
(1.89937 0.14911 0)
(2.07825 -0.154626 0)
(2 1.34849e-09 0)
(1.99999 8.6165e-06 0)
(1.95401 0.0731719 0)
(1.95936 0.0669074 0)
(2 2.7631e-14 0)
(2 -1.12535e-13 0)
(1.9397 0.0915851 0)
(2 -7.94927e-14 0)
(2.10486 -0.259987 0)
(1.83168 0.228968 0)
(1.8316 0.229057 0)
(2 -7.58741e-11 0)
(2 1.04932e-13 0)
(2 1.06574e-13 0)
(1.83029 0.228928 0)
(2 2.57036e-13 0)
(1.99999 1.62211e-05 0)
(1.83497 0.231666 0)
(1.83195 0.228738 0)
(2.01774 -0.0330627 0)
(2 -4.49816e-14 0)
(2 1.39369e-10 0)
(2.10802 -0.263199 0)
(1.84703 0.211689 0)
(2 -1.79141e-13 0)
(2 -5.5503e-14 0)
(2 1.90889e-14 0)
(2 -2.97748e-11 0)
(2 -2.52582e-13 0)
(1.83164 0.228993 0)
(1.83333 0.228819 0)
(2 -9.16264e-16 0)
(1.83159 0.229475 0)
(1.83054 0.2305 0)
(1.83163 0.228789 0)
(2 3.57248e-14 0)
(2 2.43962e-14 0)
(2 -5.85449e-11 0)
(2 -2.1251e-13 0)
(2.09806 -0.271466 0)
(1.83006 0.228616 0)
(2 -4.57585e-11 0)
(2 1.05935e-13 0)
(1.84666 0.212337 0)
(1.83269 0.22851 0)
(2 -2.22807e-13 0)
(1.84202 0.21758 0)
(1.8318 0.229299 0)
(2 3.93212e-13 0)
(2 -2.16575e-07 0)
(2 8.93843e-11 0)
(2 8.67136e-14 0)
(2 -2.07032e-13 0)
(1.83147 0.228936 0)
(2 7.9851e-14 0)
(2 -1.27739e-13 0)
(2 2.04077e-14 0)
(2 1.93257e-14 0)
(1.83093 0.231731 0)
(2 -1.22835e-13 0)
(1.83379 0.234559 0)
(2.12247 -0.262696 0)
(2 2.62068e-14 0)
(2.13358 -0.262888 0)
(2 1.51706e-13 0)
(2 -1.71486e-07 0)
(2 1.2943e-13 0)
(2.00125 -0.00202043 0)
(2.10247 -0.263969 0)
(2.0003 -0.000484033 0)
(2 -1.22132e-13 0)
(2 -7.03896e-14 0)
(2 -1.18604e-07 0)
(1.97581 0.0372863 0)
(2 -3.28598e-14 0)
(2 4.903e-14 0)
(2.05506 -0.0903732 0)
(2 -2.0588e-07 0)
(2 -1.00845e-13 0)
(2 -4.75103e-14 0)
(2 -2.10086e-07 0)
(2 5.16424e-07 0)
(2 -1.59751e-07 0)
(2 -2.56228e-13 0)
(2 -1.63439e-06 0)
(2.01195 -0.0464902 0)
(2 -5.23993e-07 0)
(2 -4.41592e-08 0)
(2.00092 -0.00139629 0)
(2 8.92153e-15 0)
(2.10448 -0.265964 0)
(2 -2.9256e-11 0)
(2 -4.21669e-12 0)
(2 -3.14515e-11 0)
(2 2.03259e-14 0)
(1.87457 0.179627 0)
(2 -1.06931e-13 0)
(2 -1.50679e-13 0)
(2 1.74276e-14 0)
(2 -1.6656e-07 0)
(2.12719 -0.269287 0)
(2 9.49718e-14 0)
(2 1.34544e-09 0)
(1.8415 0.217743 0)
(1.82989 0.228727 0)
(2 -3.01244e-07 0)
(2 -1.24154e-13 0)
(2 -1.08659e-07 0)
(2.03115 -0.0773439 0)
(2 8.05194e-14 0)
(2 4.27689e-10 0)
(2 9.91763e-14 0)
(2 2.92529e-14 0)
(2 6.82897e-15 0)
(2 1.67407e-14 0)
(2.02042 -0.0362247 0)
(1.99135 -0.00195898 0)
(1.83327 0.228723 0)
(2 -2.96593e-14 0)
(2 3.36733e-13 0)
(2 -5.78984e-14 0)
(1.83133 0.230362 0)
(2.03196 -0.0684945 0)
(2 -5.10641e-09 0)
(2 -8.99636e-15 0)
(2 1.73517e-13 0)
(1.82892 0.22847 0)
(1.82974 0.227757 0)
(2 -3.32109e-08 0)
(2 5.25144e-06 0)
(2 3.52915e-09 0)
(2 2.41554e-14 0)
(2 1.37511e-09 0)
(2 -2.56479e-14 0)
(2 -1.84468e-11 0)
(2 -3.43838e-14 0)
(2 -1.1432e-13 0)
(2.12813 -0.256216 0)
(2 -1.22202e-13 0)
(2 -1.48159e-11 0)
(1.82922 0.227982 0)
(2.12851 -0.265694 0)
(2 -1.8114e-13 0)
(1.82944 0.227793 0)
(2 6.96718e-11 0)
(2.10412 -0.26292 0)
(2 -4.01861e-14 0)
(2 4.80026e-14 0)
(2.13431 -0.260663 0)
(2 -2.29726e-14 0)
(2 -1.19465e-11 0)
(2 -4.97457e-12 0)
(2 8.66241e-14 0)
(2 -2.47121e-12 0)
(2 -6.5312e-14 0)
(2 1.51724e-13 0)
(1.83493 0.225233 0)
(1.83252 0.228654 0)
(2 4.97392e-13 0)
(2 1.41615e-13 0)
(2 1.1245e-13 0)
(2 4.17046e-13 0)
(1.84594 0.212518 0)
(2 3.63995e-13 0)
(1.94398 0.084696 0)
(2.11398 -0.2675 0)
(2 -3.10477e-08 0)
(2 3.05547e-13 0)
(2 -1.42778e-13 0)
(2 -8.93985e-14 0)
(2 -4.14921e-14 0)
(2 -7.4972e-14 0)
(2 6.70562e-15 0)
(1.98331 0.0230789 0)
(2 -8.23213e-15 0)
(2 -8.92221e-14 0)
(1.90632 0.120121 0)
(2 -1.96348e-14 0)
(2 1.04563e-13 0)
(2 1.13114e-13 0)
(1.86103 0.196663 0)
(2 6.44237e-14 0)
(2 -8.52092e-14 0)
(2 2.41322e-14 0)
(2 -6.07484e-15 0)
(2.11543 -0.261596 0)
(2 2.18111e-12 0)
(2 -1.03882e-13 0)
(2.13635 -0.268466 0)
(2.12174 -0.262769 0)
(2 -1.64812e-13 0)
(2 -2.19829e-13 0)
(1.83233 0.229183 0)
(2 7.23131e-15 0)
(1.96624 -0.0300422 0)
(2 6.44506e-14 0)
(2 1.84407e-13 0)
(2 1.65561e-13 0)
(1.88154 0.169873 0)
(2.12053 -0.26706 0)
(2 -2.84143e-13 0)
(2.11681 -0.279945 0)
(2 -1.62771e-13 0)
(2.06941 -0.152028 0)
(2 7.54331e-14 0)
(2 4.40096e-14 0)
(2 1.12909e-13 0)
(1.83044 0.229763 0)
(2 -4.20664e-08 0)
(2 -5.60642e-14 0)
(1.832 0.229161 0)
(2 -5.68739e-14 0)
(2 -1.76435e-11 0)
(2 1.72352e-09 0)
(1.83189 0.228836 0)
(2 2.31937e-10 0)
(2 1.40325e-13 0)
(1.83162 0.228808 0)
(2 -3.163e-13 0)
(2 -1.24885e-13 0)
(2.13409 -0.264531 0)
(2 -1.72619e-11 0)
(1.9441 0.0844508 0)
(2 4.49124e-14 0)
(2 -4.20984e-14 0)
(1.82971 0.228704 0)
(1.82915 0.228739 0)
(1.88826 0.161545 0)
(1.84996 0.209177 0)
(2 -8.17589e-14 0)
(2.13304 -0.263523 0)
(2 -1.04688e-13 0)
(2 7.42222e-14 0)
(1.83857 0.220658 0)
(2 1.06396e-13 0)
(2.09619 -0.268061 0)
(2 8.59127e-14 0)
(2 1.32583e-15 0)
(2 -5.87177e-14 0)
(1.83095 0.229282 0)
(2 -4.21403e-14 0)
(2 -4.17573e-14 0)
(2 4.12503e-14 0)
(2 2.63312e-14 0)
(1.8994 0.146053 0)
(2 -6.13905e-14 0)
(1.84641 0.214174 0)
(1.83134 0.228397 0)
(2.12435 -0.259562 0)
(2 5.40311e-14 0)
(2 -2.64476e-13 0)
(2.09086 -0.270399 0)
(2.08915 -0.266266 0)
(2 1.03004e-13 0)
(2 1.16847e-13 0)
(2 -6.00003e-12 0)
(1.88096 0.172267 0)
(1.87078 0.183916 0)
(2 -7.79391e-15 0)
(2 -2.66332e-14 0)
(2 -1.94505e-13 0)
(2 -1.10823e-13 0)
(2 -3.05449e-14 0)
(2 -2.66004e-13 0)
(2 -1.75953e-13 0)
(1.9279 0.104694 0)
(1.82641 0.228121 0)
(1.99586 0.000916469 0)
(2 -3.2636e-14 0)
(1.83246 0.226685 0)
(2.09855 -0.265648 0)
(2 2.79178e-15 0)
(2 -6.37911e-14 0)
(2 -1.04393e-13 0)
(1.90707 0.139402 0)
(2 -6.43492e-14 0)
(1.96815 0.0530695 0)
(2 3.05622e-14 0)
(1.84636 0.211824 0)
(1.83274 0.228187 0)
(2 7.36712e-14 0)
(2.13754 -0.264178 0)
(2 -1.51292e-13 0)
(1.83125 0.228736 0)
(2 7.65272e-14 0)
(2 -1.70327e-13 0)
(1.83153 0.229254 0)
(1.84265 0.217472 0)
(2 -1.1138e-13 0)
(1.82718 0.227865 0)
(2 -1.02888e-13 0)
(2.12378 -0.252857 0)
(2 -1.82827e-13 0)
(2 1.80813e-14 0)
(2 -1.03876e-13 0)
(1.83216 0.229025 0)
(1.83434 0.225257 0)
(1.85125 0.205875 0)
(2 1.10456e-13 0)
(1.82969 0.230227 0)
(1.8313 0.228656 0)
(2 -1.34206e-13 0)
(1.83067 0.229308 0)
(2 -1.01196e-08 0)
(1.83269 0.22821 0)
(2 -1.36869e-13 0)
(2.11449 -0.270631 0)
(2.00286 -0.0164441 0)
(2.11345 -0.26971 0)
(2 -3.3368e-11 0)
(2 -2.43721e-11 0)
(2 -3.46169e-11 0)
(2 -3.6124e-14 0)
(2 -1.49793e-11 0)
(1.83189 0.228921 0)
(2 1.05027e-13 0)
(1.83167 0.228892 0)
(2 -3.48185e-11 0)
(2 -9.55817e-11 0)
(2 1.91814e-13 0)
(1.83994 0.219351 0)
(2 -7.64074e-14 0)
(2.09528 -0.258348 0)
(1.832 0.229212 0)
(2 -8.63199e-15 0)
(2.11974 -0.267993 0)
(2.09647 -0.24487 0)
(2.10195 -0.267173 0)
(2 -1.61798e-14 0)
(1.91756 0.122881 0)
(1.98278 0.0244473 0)
(1.83087 0.229749 0)
(1.83135 0.228848 0)
(2 -1.39167e-14 0)
(2 -4.03503e-07 0)
(2 -1.12733e-07 0)
(2 2.07652e-13 0)
(1.83125 0.228695 0)
(2 2.39909e-14 0)
(2 5.15965e-14 0)
(1.83131 0.228679 0)
(1.83121 0.228633 0)
(2 1.47132e-13 0)
(1.94318 0.0925737 0)
(2.00009 0.000685451 0)
(2 -6.72696e-14 0)
(2.0011 -0.00201368 0)
(1.83187 0.229316 0)
(2.05218 -0.0981763 0)
(2 -1.19964e-07 0)
(2.06718 -0.126214 0)
(2.10604 -0.259797 0)
(2.10531 -0.262556 0)
(1.99706 -0.0139246 0)
(1.82956 0.228418 0)
(1.83425 0.226556 0)
(1.96469 0.0476616 0)
(1.83134 0.228754 0)
(1.83114 0.228717 0)
(2 6.88753e-14 0)
(2 8.19017e-14 0)
(1.82862 0.228654 0)
(1.82899 0.229511 0)
(1.83115 0.229271 0)
(1.82816 0.227872 0)
(2 2.23901e-13 0)
(1.83188 0.229013 0)
(2.08433 -0.263153 0)
(1.83099 0.227116 0)
(1.83057 0.227996 0)
(1.82879 0.228427 0)
(1.82994 0.229324 0)
(2.05081 -0.0899765 0)
(2.04016 -0.0586102 0)
(2.02434 -0.0529331 0)
(1.83227 0.229194 0)
(2.00831 -0.0346809 0)
(1.83105 0.228624 0)
(2 6.13537e-15 0)
(2 -2.09193e-14 0)
(1.83121 0.22965 0)
(1.83124 0.229016 0)
(2 5.70208e-14 0)
(2.13356 -0.265217 0)
(1.83085 0.228965 0)
(1.83137 0.228616 0)
(2 -1.80195e-14 0)
(1.83195 0.228792 0)
(1.83175 0.228967 0)
(2 -2.28612e-14 0)
(1.83141 0.228699 0)
(2.12631 -0.27214 0)
(1.8308 0.230446 0)
(1.82632 0.228167 0)
(1.83034 0.22874 0)
(1.83128 0.229284 0)
(2 3.44272e-13 0)
(2 3.19276e-13 0)
(2 -1.11124e-07 0)
(1.83177 0.22869 0)
(1.89204 0.155709 0)
(2.09313 -0.258649 0)
(1.83157 0.228629 0)
(2.12676 -0.273082 0)
(1.83217 0.228968 0)
(2 6.24386e-15 0)
(2 -1.24357e-13 0)
(2 1.85007e-13 0)
(2 6.79762e-15 0)
(1.83178 0.229166 0)
(1.83116 0.228886 0)
(2 1.67239e-13 0)
(2 -4.89875e-14 0)
(1.83112 0.228901 0)
(2.13061 -0.265614 0)
(1.83118 0.22945 0)
(2.10757 -0.265163 0)
(2 -4.1478e-15 0)
(1.83214 0.227566 0)
(2 8.92409e-14 0)
(2.13153 -0.268114 0)
(1.83125 0.230066 0)
(2.08804 -0.183068 0)
(2 1.06952e-13 0)
(1.83172 0.229045 0)
(1.8304 0.229917 0)
(1.832 0.22901 0)
(2 -9.47267e-14 0)
(2 -4.18264e-14 0)
(1.91743 0.119208 0)
(1.83064 0.229484 0)
(2.10606 -0.264621 0)
(1.83175 0.228845 0)
(2 -4.96155e-14 0)
(1.83054 0.228986 0)
(2.04652 -0.0753609 0)
(1.832 0.228374 0)
(2.12686 -0.256663 0)
(2 -8.88783e-14 0)
(1.83214 0.228277 0)
(2.08764 -0.239836 0)
(1.83132 0.229679 0)
(2.10771 -0.265011 0)
(2 3.4876e-14 0)
(1.83119 0.229492 0)
(2 1.1496e-14 0)
(1.83098 0.228571 0)
(2 8.99641e-14 0)
(1.90182 0.144484 0)
(1.83793 0.222033 0)
(1.86791 0.184612 0)
(2.1128 -0.281027 0)
(2 9.25139e-14 0)
(1.83116 0.228914 0)
(2 1.27651e-13 0)
(1.83072 0.228748 0)
(2 -1.2428e-07 0)
(1.83165 0.229086 0)
(2 -2.29152e-07 0)
(2 -1.37713e-13 0)
(1.83109 0.228489 0)
(2.00515 -0.0093105 0)
(1.83031 0.229965 0)
(2.14154 -0.263597 0)
(1.84132 0.22438 0)
(2 -3.19699e-15 0)
(1.88115 0.171378 0)
(2 -3.92083e-14 0)
(1.83041 0.22973 0)
(1.8317 0.229117 0)
(1.83038 0.228817 0)
(2 1.01534e-13 0)
(1.84848 0.210028 0)
(1.83116 0.228979 0)
(1.84479 0.214673 0)
(1.89702 0.149827 0)
(1.83873 0.226395 0)
(2 -2.95182e-14 0)
(1.88938 0.158354 0)
(2 2.53327e-14 0)
(1.83117 0.228564 0)
(2 1.27656e-13 0)
(1.96862 0.0439365 0)
(2 7.28047e-14 0)
(1.84394 0.214379 0)
(2 -5.98897e-14 0)
(1.83048 0.229 0)
(1.83945 0.219977 0)
(1.83917 0.219657 0)
(2 5.22313e-14 0)
(1.83851 0.227286 0)
(2.09429 -0.263728 0)
(2 4.89466e-14 0)
(2.12061 -0.256168 0)
(2 -3.22103e-13 0)
(2 -1.08072e-13 0)
(2 -5.90358e-14 0)
(1.83221 0.228798 0)
(2 1.32615e-13 0)
(1.83161 0.229281 0)
(2 2.55039e-14 0)
(2 1.15145e-14 0)
(2 -1.98077e-13 0)
(1.83069 0.229167 0)
(1.83322 0.223516 0)
(1.85423 0.206854 0)
(1.83171 0.228715 0)
(1.83062 0.230177 0)
(2.12899 -0.262949 0)
(1.8272 0.230675 0)
(1.83248 0.228757 0)
(2 -1.20882e-13 0)
(1.85285 0.216948 0)
(1.83164 0.229053 0)
(1.8419 0.216548 0)
(2 1.03681e-13 0)
(1.83105 0.228764 0)
(1.83043 0.22871 0)
(2 4.74311e-14 0)
(1.82887 0.231621 0)
(1.83092 0.228775 0)
(1.83082 0.228784 0)
(1.83114 0.230171 0)
(2 -1.91342e-13 0)
(2 4.313e-14 0)
(2 4.82109e-14 0)
(1.83129 0.229847 0)
(2.10015 -0.27084 0)
(2 -5.54004e-14 0)
(1.83147 0.228955 0)
(2 -7.13458e-14 0)
(2 -4.22733e-14 0)
(2.1074 -0.26825 0)
(2 -1.9055e-13 0)
(2 -5.63083e-14 0)
(1.83118 0.228897 0)
(1.83175 0.228914 0)
(2 -2.02988e-13 0)
(1.83189 0.229037 0)
(1.83069 0.227535 0)
(1.83085 0.228701 0)
(2.00346 -0.0138943 0)
(1.83116 0.228862 0)
(2 -3.02038e-14 0)
(1.83122 0.228912 0)
(1.83154 0.229294 0)
(1.87029 0.194999 0)
(2 1.23512e-13 0)
(2 -3.18897e-13 0)
(2 -1.88776e-14 0)
(1.83025 0.22943 0)
(1.83139 0.229046 0)
(1.83147 0.229218 0)
(2.01405 -0.0430392 0)
(2 -1.31244e-13 0)
(1.82748 0.231244 0)
(1.83145 0.229057 0)
(1.83136 0.228529 0)
(2 -2.95958e-14 0)
(1.83163 0.229036 0)
(1.83126 0.228705 0)
(1.83151 0.228729 0)
(1.82781 0.23221 0)
(2 3.37229e-14 0)
(1.83206 0.228393 0)
(1.82951 0.229278 0)
(1.8521 0.20153 0)
(1.8322 0.228792 0)
(1.8291 0.231715 0)
(2 -1.2961e-14 0)
(1.82796 0.232342 0)
(1.83368 0.227186 0)
(1.83148 0.229247 0)
(1.82955 0.228259 0)
(1.83218 0.228199 0)
(2.1055 -0.272896 0)
(1.83156 0.229212 0)
(1.83172 0.229274 0)
(2 1.46139e-14 0)
(1.83125 0.228862 0)
(1.83134 0.229104 0)
(1.83114 0.229182 0)
(1.83202 0.228765 0)
(2 -6.03958e-08 0)
(1.83123 0.229085 0)
(1.83117 0.22881 0)
(2 -1.7292e-07 0)
(1.83134 0.228569 0)
(1.85922 0.197177 0)
(2 -6.90007e-14 0)
(2 -3.11936e-14 0)
(2 1.38635e-09 0)
(1.83136 0.230305 0)
(1.83007 0.229501 0)
(2 6.12442e-14 0)
(2 -1.06029e-14 0)
(1.90588 0.138487 0)
(2 2.36276e-13 0)
(1.83294 0.228793 0)
(2 -9.61481e-14 0)
(2 1.01368e-13 0)
(1.83119 0.228727 0)
(1.8311 0.229537 0)
(1.83178 0.228845 0)
(1.83113 0.228665 0)
(2 7.72838e-18 0)
(2 2.86746e-16 0)
(2 9.44913e-14 0)
(1.88165 0.167357 0)
(2 1.1008e-13 0)
(1.83064 0.229615 0)
(2 1.9889e-13 0)
(2 2.5835e-13 0)
(1.83138 0.228893 0)
(1.82626 0.228042 0)
(2 2.35862e-15 0)
(1.83141 0.228964 0)
(2.11522 -0.275921 0)
(1.83146 0.228733 0)
(1.83105 0.229973 0)
(2.09219 -0.210938 0)
(2 1.38607e-14 0)
(2.10934 -0.277824 0)
(1.84924 0.203577 0)
(1.83068 0.230489 0)
(1.83318 0.228371 0)
(1.83226 0.228308 0)
(2.13146 -0.25904 0)
(1.83114 0.228823 0)
(1.83069 0.228992 0)
(2.1244 -0.261294 0)
(2.13643 -0.27086 0)
(2 -2.523e-07 0)
(1.83047 0.229339 0)
(1.83202 0.228559 0)
(2 6.33412e-14 0)
(2 -2.63289e-14 0)
(1.831 0.229248 0)
(2 9.54718e-14 0)
(1.8311 0.2311 0)
(2 2.37605e-06 0)
(1.85238 0.205136 0)
(2 4.3597e-14 0)
(1.91904 0.119478 0)
(1.83194 0.228512 0)
(1.83066 0.230253 0)
(1.88314 0.170171 0)
(1.85099 0.211141 0)
(1.83337 0.229041 0)
(1.83066 0.228774 0)
(1.84004 0.225938 0)
(2 5.99324e-14 0)
(2.10629 -0.272269 0)
(1.82918 0.231713 0)
(1.83192 0.229158 0)
(1.82851 0.230678 0)
(2 7.07173e-06 0)
(2 2.75387e-10 0)
(2 1.41036e-09 0)
(1.82815 0.23035 0)
(2 2.53592e-14 0)
(1.83198 0.229002 0)
(1.83228 0.229056 0)
(2.07424 -0.179971 0)
(2 1.00273e-13 0)
(1.83112 0.229354 0)
(2.00003 -5.00078e-05 0)
(2 -6.29757e-15 0)
(1.99999 1.7806e-05 0)
(1.99998 2.25187e-05 0)
(1.83184 0.229029 0)
(1.83174 0.228586 0)
(2.00058 -0.000931863 0)
(2 6.52919e-14 0)
(2 -9.01505e-14 0)
(1.83089 0.229226 0)
(1.83058 0.229534 0)
(1.83141 0.229429 0)
(1.82977 0.230717 0)
(1.83178 0.228357 0)
(2.10201 -0.253235 0)
(1.85675 0.201841 0)
(2 -1.60311e-14 0)
(1.83248 0.22734 0)
(1.83176 0.228826 0)
(1.83191 0.228929 0)
(1.82845 0.235227 0)
(2 -6.81068e-17 0)
(1.83193 0.229024 0)
(1.83563 0.224005 0)
(1.83117 0.229403 0)
(2 4.09875e-13 0)
(1.83109 0.229038 0)
(1.8313 0.229343 0)
(2.05238 -0.0919848 0)
(1.832 0.228873 0)
(1.83099 0.229238 0)
(2 -3.02614e-14 0)
(1.83143 0.229433 0)
(2.06718 -0.104751 0)
(1.83121 0.229075 0)
(2.04014 -0.0962218 0)
(1.83165 0.22895 0)
(2 -1.01578e-07 0)
(1.83204 0.228847 0)
(1.82581 0.229522 0)
(1.83171 0.229055 0)
(1.83165 0.229139 0)
(1.83164 0.22902 0)
(1.82964 0.228193 0)
(1.83145 0.229254 0)
(1.8292 0.228435 0)
(2 -9.8984e-14 0)
(2.0215 -0.0441879 0)
(1.83116 0.22903 0)
(1.83199 0.229296 0)
(2.06604 -0.106505 0)
(1.83156 0.22893 0)
(2.00713 -0.00900102 0)
(1.89211 0.154453 0)
(1.83124 0.228958 0)
(1.83084 0.228919 0)
(1.83201 0.228443 0)
(2 8.05305e-14 0)
(1.8303 0.229849 0)
(1.88873 0.159697 0)
(1.83046 0.228949 0)
(2.02753 -0.0512673 0)
(1.83063 0.229758 0)
(1.82677 0.23239 0)
(2 5.71242e-14 0)
(2.05152 -0.083827 0)
(2 -7.46206e-09 0)
(1.83458 0.227357 0)
(2 1.14467e-13 0)
(1.88397 0.164877 0)
(2 3.99128e-09 0)
(1.83818 0.216756 0)
(2.03805 -0.0826361 0)
(2 9.78408e-14 0)
(1.83229 0.22992 0)
(1.83533 0.225657 0)
(2 3.59461e-14 0)
(1.83165 0.228564 0)
(1.83106 0.229722 0)
(1.83554 0.230525 0)
(1.83353 0.227909 0)
(1.83121 0.229184 0)
(2 1.45353e-13 0)
(1.82966 0.2285 0)
(2 -5.16425e-14 0)
(2 -1.22126e-14 0)
(2 7.47249e-14 0)
(2.0311 -0.076619 0)
(1.83209 0.229164 0)
(1.83113 0.22965 0)
(1.82915 0.231994 0)
(1.83147 0.229015 0)
(1.83342 0.228456 0)
(1.82847 0.230837 0)
(1.82917 0.228412 0)
(1.83158 0.229298 0)
(2.02692 -0.0753165 0)
(1.98973 0.0209945 0)
(2 3.58209e-09 0)
(2 6.59026e-14 0)
(1.8233 0.230989 0)
(1.83159 0.229197 0)
(1.83157 0.229201 0)
(1.83183 0.228946 0)
(1.99999 1.62721e-05 0)
(1.91415 0.129816 0)
(2 -1.64475e-07 0)
(1.82919 0.231189 0)
(1.84671 0.223606 0)
(2 -3.19087e-12 0)
(2 -5.73476e-11 0)
(2.08738 -0.187085 0)
(1.83155 0.229291 0)
(2 1.06144e-13 0)
(2 -8.12766e-14 0)
(2.09228 -0.261125 0)
(1.83147 0.228922 0)
(2 2.06734e-13 0)
(1.82833 0.22855 0)
(1.83113 0.229252 0)
(1.83368 0.229128 0)
(1.83841 0.22205 0)
(1.83233 0.228506 0)
(2 -3.32037e-11 0)
(2.10621 -0.277283 0)
(1.95876 0.064757 0)
(1.83106 0.228731 0)
(1.83221 0.228878 0)
(2 5.87913e-14 0)
(1.83092 0.228921 0)
(1.83118 0.228888 0)
(1.9196 0.124043 0)
(1.99932 0.00535265 0)
(1.96539 0.0563999 0)
(2 -1.96321e-13 0)
(1.83064 0.229324 0)
(1.8316 0.228971 0)
(2 -1.25454e-07 0)
(2 -1.71498e-10 0)
(2.13492 -0.259509 0)
(2 -2.44118e-10 0)
(2 -7.80932e-14 0)
(1.83164 0.229098 0)
(1.83147 0.229034 0)
(1.83125 0.229453 0)
(1.83093 0.229866 0)
(1.83124 0.228994 0)
(1.82867 0.2302 0)
(1.83118 0.228919 0)
(1.83107 0.228671 0)
(1.83127 0.229013 0)
(2 -2.32885e-13 0)
(2.00157 -0.00242052 0)
(1.83128 0.228903 0)
(1.83079 0.229506 0)
(2.00113 -0.00185702 0)
(1.83139 0.228901 0)
(1.83131 0.229204 0)
(2.11023 -0.266721 0)
(2.12718 -0.261092 0)
(1.83138 0.228058 0)
(1.82948 0.232926 0)
(2 -1.24942e-13 0)
(2 2.18123e-13 0)
(1.9994 0.00233785 0)
(1.83105 0.229287 0)
(1.83149 0.229169 0)
(1.83156 0.228973 0)
(2 9.63239e-10 0)
(1.83129 0.228858 0)
(2 4.78468e-14 0)
(2.05019 -0.0952077 0)
(1.82835 0.231495 0)
(1.82982 0.231488 0)
(2 -6.19035e-14 0)
(1.92233 0.111179 0)
(1.83153 0.229331 0)
(2 1.16066e-14 0)
(1.8298 0.227017 0)
(2 -1.04876e-10 0)
(1.83208 0.228451 0)
(1.89645 0.150972 0)
(1.83227 0.228285 0)
(2 1.47156e-11 0)
(1.83144 0.22917 0)
(1.83057 0.232534 0)
(2.13108 -0.261848 0)
(1.83117 0.229357 0)
(2 -1.28225e-07 0)
(1.83143 0.229354 0)
(1.82657 0.228246 0)
(2 7.34643e-09 0)
(2.10512 -0.263919 0)
(1.83284 0.227694 0)
(1.85387 0.212241 0)
(2.00084 -0.00118478 0)
(1.84212 0.225474 0)
(1.83142 0.2292 0)
(2 -4.75604e-12 0)
(1.9975 0.000981572 0)
(1.8288 0.227468 0)
(2.00105 -0.00125609 0)
(1.83148 0.228878 0)
(2 -2.98346e-12 0)
(2 7.77995e-14 0)
(1.8308 0.228954 0)
(2 -2.21124e-13 0)
(1.83042 0.228883 0)
(1.83133 0.22881 0)
(2.00141 -0.002299 0)
(1.85742 0.194397 0)
(2 2.94901e-09 0)
(1.83131 0.229056 0)
(2 2.65923e-09 0)
(2 -8.19135e-13 0)
(2 1.0333e-11 0)
(2 6.97719e-12 0)
(1.83194 0.228952 0)
(2 7.35509e-09 0)
(2 -1.37221e-13 0)
(1.82957 0.233479 0)
(2 7.54283e-14 0)
(1.83157 0.229404 0)
(2 3.01435e-10 0)
(1.89173 0.158263 0)
(1.83171 0.23028 0)
(1.83112 0.229909 0)
(2 8.45981e-10 0)
(2 -2.48092e-13 0)