/*--------------------------------*- C++ -*----------------------------------*\
  =========                 |
  \\      /  F ield         | OpenFOAM: The Open Source CFD Toolbox
   \\    /   O peration     | Website:  https://openfoam.org
    \\  /    A nd           | Version:  12
     \\/     M anipulation  |
\*---------------------------------------------------------------------------*/
FoamFile
{
    format      ascii;
    class       surfaceScalarField;
    location    "5.425";
    object      phi;
}
// * * * * * * * * * * * * * * * * * * * * * * * * * * * * * * * * * * * * * //

dimensions      [1 0 -1 0 0 0 0];

internalField   nonuniform List<scalar> 
69079
(
-0.00016191
9.14995e-05
6.65105e-05
0.000127728
6.30487e-08
-0.000127885
-0.00013333
0.000133388
0.000129384
-1.62925e-06
-0.000131808
-1.51622e-06
-0.000131884
6.6209e-05
-0.000127332
5.90711e-05
-3.3057e-06
9.97945e-05
-0.000145334
0.000130857
-0.000130937
8.18299e-08
0.000130264
5.26589e-07
-0.000101109
-6.25117e-05
-0.000116069
0.000124494
-8.42888e-06
-0.000128739
0.000126074
2.59685e-06
-0.000128226
-5.41609e-07
3.58788e-06
-0.000110609
0.000106836
0.000130172
5.05885e-08
0.00012963
5.20679e-07
-0.000130216
0.000128594
1.6068e-06
-0.0001289
-1.35621e-06
0.000130192
-0.000129501
-6.32368e-07
0.000129335
8.42365e-07
0.000126643
-0.000129135
2.44275e-06
-0.000138676
1.42897e-05
0.000124534
0.000146814
-9.87637e-05
-5.19956e-05
0.000123861
-1.88575e-05
-0.000132853
-0.000129439
-1.40093e-06
0.000129556
1.18612e-07
1.65955e-07
5.20482e-08
9.16715e-05
-0.000141778
0.000120656
-0.000125886
5.10105e-06
0.000123852
-0.000133989
1.02147e-05
0.000144464
-2.06295e-05
0.000128459
8.19812e-07
-5.5545e-07
-0.000128668
2.33768e-05
0.000105297
0.000128358
-0.000128418
1.04567e-07
1.37599e-07
-3.52345e-06
5.9973e-05
-6.02766e-05
-1.32331e-05
-0.000125316
8.54547e-05
2.34058e-05
-0.000163642
-0.000134044
1.63783e-05
0.000127587
-0.000127602
7.08989e-08
-6.27991e-06
-0.000106994
0.000130497
-2.26524e-05
0.000127118
1.50247e-06
-1.22718e-06
-7.32581e-05
0.000140053
-6.66786e-05
0.000125029
-0.000125273
9.0321e-08
0.000143425
-1.84721e-05
0.000121667
2.17765e-05
0.000142907
-2.10263e-05
0.000119726
-3.77981e-06
-0.000116013
-8.7153e-05
0.000103541
-1.22098e-05
-0.000130301
0.000131465
-1.14989e-06
-0.000130219
5.59108e-05
7.43058e-05
0.000124485
-0.000124557
5.16898e-08
0.000142582
-1.82247e-05
0.000120587
1.72194e-08
-0.00012054
-8.43574e-05
-5.52515e-05
9.57676e-05
7.66348e-05
5.04912e-05
-0.000127129
0.000153709
-7.97217e-05
-7.638e-05
-1.35815e-05
-0.000115078
4.99657e-05
-0.000123095
-0.000105551
0.000108951
0.000125302
7.48566e-07
-2.30748e-06
0.000147231
-0.000147114
-1.51166e-05
-0.00011537
-0.000116854
9.6196e-06
-4.5727e-05
0.000115515
0.000119888
2.25952e-05
0.00014148
-2.16097e-05
0.000165349
-1.19791e-05
-0.00010409
0.000127688
-0.000125334
-2.28758e-06
9.29423e-05
5.28117e-05
0.000116123
-0.000119281
3.26985e-06
-2.7827e-06
0.000118906
-0.000121671
1.14668e-05
0.000110341
0.000123676
2.07758e-05
-1.70949e-06
0.000118895
-0.000141259
2.23989e-05
0.00010169
1.80231e-05
0.000132505
-1.36207e-05
-5.10449e-05
-3.70039e-05
8.65965e-05
-0.000117679
0.000118828
-1.20764e-06
0.000117962
-0.000133536
1.55999e-05
0.000118921
-9.27759e-07
-0.000103947
-5.15932e-05
-5.9636e-06
-0.000101595
0.000107488
-6.93815e-05
0.000136838
-6.7342e-05
9.53288e-05
-2.83781e-05
-0.000127323
9.59911e-06
0.000121856
2.121e-05
6.79617e-05
5.26554e-05
-0.000120488
-2.69508e-06
-0.000116631
-1.06987e-05
6.1644e-07
-0.000104511
0.000103879
0.000124262
-3.61831e-06
6.73219e-05
6.04832e-05
-0.000127806
5.41741e-05
-0.000123406
-0.000117535
9.25898e-07
0.000126837
-0.000126747
0.000129535
-8.76444e-06
2.07411e-05
-0.00013514
0.000114446
3.13956e-05
-9.06984e-05
-0.000126286
-1.0167e-05
0.000115879
-0.000135026
1.92313e-05
0.000118513
-2.62316e-06
6.9855e-06
0.000109865
-0.000117605
-1.93933e-06
5.31284e-05
-5.04098e-05
0.000119865
2.17287e-05
-2.12339e-05
-0.000102654
0.00010326
7.98792e-06
-0.000119908
0.000112042
-0.000145036
4.15398e-05
-8.0218e-06
0.000120484
-0.000111089
5.37384e-05
-0.000152741
-0.000109521
-3.51055e-06
0.000112924
0.000119064
-0.000121832
2.84064e-06
-0.000122722
0.000105607
1.72725e-05
-3.95344e-06
-0.000128048
0.000115343
1.70799e-05
-5.46187e-06
0.00012062
-0.000131535
0.000131508
-0.000112654
3.15108e-06
-3.52837e-05
0.000111913
0.000145489
-8.63598e-05
-5.83008e-05
-0.000131869
5.26314e-05
7.92135e-05
0.000124551
-6.5871e-07
-0.000124062
0.000113695
-0.000132943
1.9076e-05
0.00011754
-3.85554e-06
0.000122586
-3.07148e-06
0.000108408
-0.000115588
0.000117351
7.12876e-06
7.71313e-05
-0.000122357
4.5271e-05
0.000114675
-0.000138256
2.37192e-05
0.000137356
-2.26904e-05
-1.59972e-06
0.000120809
-7.72547e-05
0.000145125
-6.78364e-05
-9.77828e-05
-2.12302e-05
0.000110748
-0.000131686
2.09102e-05
0.000115202
-4.53277e-06
0.000119029
-0.000127591
8.42744e-06
-0.000123272
2.55452e-05
-3.0591e-05
-0.000101297
0.000113236
-0.000136701
2.34355e-05
-2.03055e-05
-5.86178e-05
5.12933e-05
8.41101e-05
-9.0085e-05
-0.00010642
0.000112834
0.000134169
-0.000134344
0.000117112
2.47612e-07
-2.09842e-05
0.00012046
-0.000127829
7.54054e-06
-0.000122864
3.62508e-06
7.06572e-05
7.68341e-05
-0.000127602
2.01281e-05
0.000107478
0.000111322
-0.000135342
2.40173e-05
-0.000109512
0.000134811
-2.34246e-05
-0.000124582
-1.94034e-06
0.000103423
-4.71894e-05
-4.23252e-05
0.000119339
-1.40918e-05
0.000112263
0.000113351
2.39612e-05
-0.000114289
0.000102808
-2.34282e-05
0.000114759
-0.000114721
6.87288e-05
-0.000120879
5.21481e-05
0.0001102
-0.000134431
2.42574e-05
0.000133938
-2.37918e-05
-1.91333e-05
-0.000109939
0.000170292
9.51963e-06
-0.000179917
-2.16451e-05
-0.000113441
1.45724e-05
-0.000110465
9.22845e-05
-7.7008e-05
6.59408e-05
-5.16199e-05
-0.000112583
3.74542e-06
0.000108948
3.17647e-06
0.000174492
-0.000114534
0.000107368
0.000111805
0.000123927
-3.52838e-06
0.000108637
-0.000133144
2.45139e-05
-2.62623e-05
9.33226e-07
-0.000111679
0.000110759
0.000112309
6.6079e-06
-2.30401e-05
4.78676e-05
8.50807e-05
0.000109483
7.03519e-07
-0.000110185
8.64118e-07
0.000108622
8.40602e-06
0.000119208
-4.70483e-05
-6.00952e-05
0.000107151
-0.000178129
9.22903e-05
6.49144e-05
7.34922e-05
-0.000120525
3.47759e-07
0.000111391
-0.000111741
-0.000111422
0.000111768
4.94077e-05
-5.18185e-05
-0.000117393
0.000122274
-4.84628e-06
0.000103331
-0.000124064
2.07642e-05
0.000111593
-8.58247e-06
-1.00096e-05
-9.67312e-05
0.000106766
6.62576e-05
4.65669e-05
-0.00011283
0.000110146
2.47727e-05
-2.42468e-05
1.67364e-05
-0.000116995
0.000100028
-0.000119781
-6.00016e-06
0.000119933
3.64932e-06
0.000106783
-0.000132263
2.54815e-05
0.000131357
-2.45317e-05
7.42499e-05
-0.000119747
4.53927e-05
0.000111904
-0.000103784
0.000117144
-0.000120744
0.000118855
6.54286e-06
-5.77171e-07
0.000119419
3.77265e-05
-0.000170687
-0.000115824
-1.60368e-06
0.000123052
-4.23758e-06
-4.72632e-05
-2.70223e-05
7.22988e-05
0.000105566
-0.000130944
2.53593e-05
0.000128105
-1.6494e-05
-0.00013042
-2.75022e-05
9.75752e-05
-8.51247e-05
0.000108623
2.51428e-05
-2.45651e-05
-5.17002e-05
-3.74231e-05
8.3808e-05
0.000125494
-0.000123959
-1.44025e-06
-1.49108e-05
0.000125868
-0.00011104
0.000100289
-0.000121318
2.06852e-05
0.000110043
-9.78587e-06
0.000106006
-0.000106282
4.67936e-07
-4.85443e-06
-0.000117745
-0.000131599
2.01524e-05
0.000111446
-2.31602e-05
-0.000108446
-1.62885e-05
-0.000115307
-4.82127e-05
0.000116266
-0.000144628
7.76019e-05
6.70309e-05
-0.000120945
0.000105128
1.5917e-05
0.00010581
4.45759e-07
0.000115187
-0.000109379
-5.78732e-06
-0.000136757
0.000120449
-0.000117644
1.56479e-07
-0.000116238
0.00011804
-1.72226e-06
-7.07488e-05
-7.38721e-05
6.97154e-05
-0.00012376
5.40964e-05
-8.12971e-07
-0.000124408
-4.09777e-06
-0.000123513
0.000120302
-6.51065e-07
-0.00012138
5.20011e-06
0.000103543
-0.000130025
2.65175e-05
-2.81459e-05
0.000111852
3.253e-06
9.82453e-05
-0.000118539
2.03333e-05
-0.000124164
2.77231e-06
0.000109258
-1.06192e-05
0.000109369
9.13779e-06
-2.29075e-05
0.000126496
-0.000121274
-5.05205e-06
-5.89845e-06
0.000152607
-0.000152288
0.000124537
-0.000124601
-0.000154157
7.22858e-05
8.14422e-05
-5.16299e-05
8.57533e-05
-4.09213e-05
-0.000109044
-3.96491e-06
0.000112888
-0.000124905
-2.67562e-06
-9.61023e-05
-6.46048e-05
0.000154513
6.83495e-05
4.21515e-05
-0.000110494
8.26101e-05
-9.26143e-05
4.3683e-06
0.00011799
-0.000122239
0.000105526
2.59353e-05
0.000101515
-0.000128571
2.70964e-05
-2.53875e-05
-0.00013066
0.000115733
-0.000124751
0.000124737
8.04092e-05
4.72139e-05
0.000127415
-2.58675e-05
-2.04377e-05
-0.000116264
0.000100859
7.37892e-05
-0.00012076
4.67833e-05
-8.59833e-06
-9.3244e-05
0.000111558
-1.05372e-06
0.000118342
-0.000115551
9.65998e-05
-0.000116973
2.06622e-05
0.000108447
-1.18125e-05
0.000126075
-0.000127193
-0.000105303
0.000109784
-9.58796e-05
-8.30991e-05
-4.54701e-05
7.60568e-05
-3.24564e-05
-0.000124709
2.81339e-06
0.00012139
-0.00012528
4.16496e-06
-6.39585e-05
0.00013021
0.000122899
1.34517e-06
0.000122513
3.22059e-07
-9.66518e-05
5.30002e-05
5.54533e-05
3.54961e-05
0.000104553
0.000122005
4.03727e-07
7.33167e-05
-0.000106593
3.35684e-05
0.000121282
4.54029e-06
0.000109711
-3.63827e-05
2.8386e-05
0.000100061
-0.000126695
2.65782e-05
0.000117069
0.000126194
-2.61157e-05
0.000127895
-2.13306e-05
-0.000106815
-0.000107975
-1.33616e-06
0.000109416
-0.000139017
8.08242e-05
5.81935e-05
0.000107099
1.05307e-05
-2.27728e-05
-4.3236e-05
0.000117398
0.000130141
-0.000130108
-0.00010627
0.000106969
0.0001114
-0.00011051
-9.28047e-05
6.9491e-05
-5.61046e-05
-1.49142e-06
-0.000120076
9.88835e-05
-0.000125738
2.69155e-05
-0.000114649
0.000117284
-2.67386e-06
0.0001254
-2.6494e-05
-0.0001258
0.00012574
0.000118729
3.25391e-06
2.79216e-06
-0.000114214
0.000111239
-9.60738e-05
0.00010301
-0.000102833
-8.90968e-06
0.000112303
-0.000119417
4.72508e-06
-0.00010472
-3.62414e-05
9.8636e-05
-0.000141687
7.5421e-05
-7.13868e-06
0.000121762
-3.72621e-07
-0.000117341
-2.00654e-06
0.000120999
-0.000121072
9.7272e-05
-0.000124424
2.71628e-05
0.000124058
-2.66824e-05
9.33606e-05
-0.000112639
1.99635e-05
0.000106337
-1.28975e-05
-6.98464e-05
-6.91718e-05
-0.000123727
4.65138e-05
-0.000115557
-1.6746e-06
6.62236e-05
6.68758e-05
0.000121053
5.31743e-06
0.000105831
9.36429e-06
-2.26827e-05
-0.000116191
0.00010666
9.53492e-06
0.000130309
-0.000126042
-0.000100606
0.000112209
0.000104921
-0.000112546
7.51677e-06
0.00011105
-4.45679e-06
-0.000106433
9.63052e-05
-0.000123855
2.75605e-05
0.000123252
-2.71526e-05
-4.218e-06
-0.000116642
-0.000118819
0.000122859
-4.67644e-06
1.10374e-06
-0.000113625
7.08929e-05
-1.23497e-05
-5.47895e-05
0.000122111
3.86313e-07
-0.000134059
2.33003e-05
-0.000111382
-1.24306e-05
0.0001122
-4.77645e-06
-0.000107462
0.00010007
2.73544e-05
0.000118652
-4.99225e-05
-2.67286e-05
-0.000119863
0.00010917
1.08715e-05
5.65369e-06
-0.000114844
-0.000153437
8.96185e-05
6.38418e-05
-0.000112138
3.2426e-06
0.000108911
-6.95291e-05
-8.387e-05
4.03083e-06
0.000107814
-0.000111858
-0.000112709
4.73274e-06
0.000107955
-7.3301e-06
-0.000105424
-0.000117325
0.000109933
9.45838e-05
-0.000122339
2.78057e-05
-0.000113375
2.48346e-06
0.00011089
0.000113665
-4.62553e-06
-0.000109158
-3.4132e-06
0.000112987
-0.000109604
0.000110183
0.000122079
-2.7301e-05
0.000114114
-4.46924e-06
-0.000109661
0.000119547
-7.34924e-07
-0.000127338
-1.29302e-05
-0.000117732
-4.62017e-06
0.000113786
-0.000109044
6.55152e-05
4.474e-05
-0.000110267
-8.94918e-05
3.07403e-05
-5.2301e-05
-5.57291e-05
-0.000131988
3.13039e-05
9.8626e-05
2.76378e-05
-4.25356e-07
-9.2141e-05
-2.70054e-05
5.44087e-06
0.000105649
-0.000105858
7.22555e-06
9.87892e-05
9.33182e-05
-0.000121513
2.80519e-05
-5.92188e-06
0.000120773
0.000114309
-4.74183e-06
-0.000109568
-0.000118971
-6.11991e-06
0.000120803
-2.761e-05
-4.66103e-05
7.65663e-05
-3.16406e-05
0.000125404
-1.10722e-05
-0.000114188
8.93001e-05
-1.61978e-05
-0.000121599
0.00011881
2.81136e-06
0.000121536
-0.000120958
-0.000123183
7.25344e-06
0.000115911
-3.69236e-06
0.000114485
-0.000111716
-6.51989e-05
0.000117927
8.8559e-05
-0.000105181
1.95793e-05
-1.52081e-05
0.000105174
1.03506e-05
0.000118615
5.63408e-07
0.000110868
-0.000111425
-1.09755e-05
9.82705e-05
-8.72922e-05
0.000133804
-7.95369e-05
-5.42819e-05
2.28736e-06
-0.000112874
0.000110801
2.56549e-06
-0.000118066
0.000118036
-0.000117998
-0.000110471
0.000111778
-1.29047e-06
0.000111168
-0.00011443
3.29555e-06
-0.000101875
0.000102828
-3.48485e-07
0.000115542
-0.000114039
-2.3199e-06
-0.000111683
0.000113944
6.58081e-05
8.12565e-05
-0.000148012
-1.35181e-06
0.000119415
-0.000116606
-1.37069e-06
0.000117969
-0.000120465
-8.43734e-08
0.000110983
-0.000113386
0.000104255
3.25935e-05
9.21004e-05
-0.000120381
2.84976e-05
-5.03828e-05
-5.63224e-05
0.000106733
9.72401e-05
2.80056e-05
-0.000133804
8.34412e-05
0.000113811
-4.01702e-05
-3.17935e-05
-2.73442e-05
-0.000140499
8.01905e-05
6.03066e-05
-6.74762e-05
6.71688e-05
-6.4458e-05
6.399e-05
6.25547e-05
-0.000126699
-7.03414e-05
0.000120384
-0.000115987
0.000110256
5.73089e-06
-0.000116917
9.24413e-07
-0.000112043
-5.88492e-07
0.000114657
1.49492e-06
0.000114895
-0.0001081
-2.83967e-06
0.000110955
-0.000100552
8.95811e-05
6.35189e-05
-7.78284e-05
0.000111091
-0.000118955
-3.64867e-06
0.000112221
-0.000108581
3.08345e-05
-7.97422e-05
-7.41641e-05
-6.63404e-05
2.31757e-06
0.000109296
-0.000111297
-0.000121098
-6.33637e-06
-0.000143091
8.30362e-05
-2.7493e-06
-0.000120387
0.000124724
-0.00012516
-9.91888e-05
0.000119303
-0.000114314
0.000114532
-8.64764e-07
0.000115394
-0.000114602
-2.92929e-05
-9.54555e-05
8.12977e-05
-0.00016015
-3.33585e-05
0.000113318
-0.000110686
-1.45769e-06
0.000112105
-1.32539e-06
4.86539e-05
-4.74369e-05
1.89043e-07
-0.00011221
0.000112171
9.60485e-05
2.82831e-05
0.000112872
6.64593e-07
-0.000112827
0.000112536
-7.73482e-07
-0.000111784
-8.68965e-07
0.000113794
0.000112391
-0.000113227
-2.77155e-05
-0.000111176
-2.12573e-06
-1.37398e-06
0.000113089
-0.000121453
0.000125335
-0.000111943
0.000112396
-4.64863e-07
-1.57787e-07
0.000111052
0.000109078
3.87114e-06
-0.000111912
-3.9336e-08
-8.51319e-05
-7.61817e-05
8.73572e-05
-0.000134884
3.03124e-05
5.05059e-05
-4.89436e-05
-2.99136e-06
8.89106e-05
-0.000119481
3.06905e-05
0.000124267
-0.00012035
-4.62161e-06
-2.02684e-06
0.000122309
0.000117747
-2.85105e-05
6.30539e-05
-0.000152881
8.25979e-05
-9.95864e-05
1.62654e-05
-1.71974e-05
0.000100732
-0.000117854
0.000107383
1.04648e-05
0.000105177
-9.52012e-06
-0.000114455
0.000121244
-6.07621e-05
-4.00673e-05
9.26723e-05
-0.000115742
0.000111641
-3.26902e-06
-0.000110177
-4.89569e-05
-4.75492e-05
-9.45962e-05
1.13861e-06
9.36522e-05
-0.00011236
0.000109831
2.51199e-06
0.000112597
-0.000115343
-1.00383e-05
-0.000142196
0.000117254
2.20394e-06
0.000110763
-0.000114873
0.00013543
-6.61976e-05
-6.97435e-05
5.3178e-06
0.000106948
9.43791e-05
2.86676e-05
-0.000119579
3.73451e-06
0.00011605
-0.000115683
4.95446e-06
-2.79709e-05
8.83967e-05
-0.000117821
2.92499e-05
-3.32769e-05
8.77289e-05
-0.000107614
1.59526e-05
-0.000156269
0.000146695
-0.000107637
-4.53339e-06
-1.73435e-05
0.000100656
4.8513e-06
5.03719e-05
8.34261e-05
0.000120617
-0.000118113
0.000113518
-9.15526e-07
-0.000113482
3.80814e-05
0.000111186
1.51042e-07
-0.000111288
-9.70153e-05
0.000139341
0.000105686
-8.88596e-05
1.23279e-06
-0.00010751
2.82417e-06
-0.000110254
0.000107031
-3.21661e-06
0.000120519
6.46275e-05
6.22678e-05
-0.000126856
8.75893e-05
6.99932e-05
-0.000167265
-9.97541e-05
-2.6061e-06
0.000103291
-1.46162e-06
-0.000111653
0.00011268
7.53176e-06
0.000117025
-0.000117456
0.000111504
-0.000113289
0.000114327
-0.000115494
1.17852e-06
-1.59685e-06
0.000113377
3.16393e-07
0.000113326
-0.000113313
0.000113092
-0.000114323
-0.000121305
-7.06155e-05
6.88751e-05
-6.11211e-05
-7.032e-05
6.67434e-05
-5.78011e-05
-0.000136439
3.72661e-05
0.000114111
-0.000112657
-6.34581e-07
-0.00011416
0.000112582
-1.26413e-05
0.00012346
-0.00011074
0.000126516
-7.99559e-05
9.32946e-05
2.88461e-05
-0.000109309
3.31249e-06
0.000106008
7.96684e-05
-0.000133704
5.40074e-05
0.000118381
5.82332e-06
-0.000116696
-0.000136473
7.93736e-05
5.71857e-05
-2.82685e-05
0.000109766
-0.000107274
-0.000115951
-1.3454e-06
-0.000110389
0.000111082
-7.71339e-07
2.54041e-08
-0.00011044
-0.000112149
9.89403e-05
1.11315e-05
-0.000117486
0.000114967
2.65899e-06
-0.00011278
-4.66173e-06
8.69651e-05
-0.000118011
3.13366e-05
-0.000121511
-1.49464e-07
0.000116391
-2.93179e-05
-0.000160493
9.2458e-05
-0.000119983
0.000112959
6.93133e-06
-0.000117275
-2.66954e-06
-0.000116221
0.000113247
3.15544e-06
-0.000113146
-3.08334e-06
-0.000116649
-0.000113135
0.000113659
-5.65462e-07
-0.000115064
8.71767e-06
0.000106354
0.000114702
-0.000112512
-9.4796e-05
-1.64028e-07
-0.000116105
4.58783e-06
0.000111519
-0.000109
-2.89534e-06
0.000111907
9.03312e-05
-1.5271e-06
0.000109921
-0.000108299
-0.000112125
-2.16169e-06
0.000114296
-0.000113411
2.43776e-06
0.000110969
-6.70989e-05
-8.74597e-05
4.0412e-06
0.000121333
-5.16498e-05
0.000117104
4.50385e-06
0.000108952
1.97995e-06
-0.000110915
6.56268e-07
0.000112375
-0.000113
-0.000107845
0.000117156
-4.88022e-05
0.000115175
-5.14467e-06
-0.00011003
-0.000114939
2.25482e-06
0.000112625
9.14945e-05
2.93062e-05
-0.000113933
2.15199e-06
0.000111757
0.000107665
2.10429e-06
-0.000109765
-2.85865e-05
0.000118774
-1.8968e-06
-0.00011344
1.52673e-07
0.000113096
6.40749e-06
9.17333e-07
-0.000114353
-0.000111932
0.000112867
8.70175e-07
-0.000112556
-0.000138162
0.000181871
0.000114165
-3.47225e-06
-0.000110703
8.55654e-05
-0.000115356
2.9586e-05
-3.30691e-05
0.000122994
-0.000122933
-0.000109788
6.40196e-05
3.79537e-06
-0.000113575
3.20119e-06
0.000110328
-6.76331e-05
-7.54305e-05
-0.000104773
0.000136594
0.0001123
-0.00011177
-5.74819e-07
-0.000112046
4.12405e-06
-0.000178105
5.40478e-05
-0.000111923
2.6548e-07
-0.000109422
0.00010815
-9.70929e-07
0.000108654
-0.000107741
-0.000114141
3.68961e-06
0.000110453
0.000127424
-0.00013868
0.000118659
-0.000113283
0.000109603
-0.000114118
-0.000180847
0.000148389
-3.37275e-07
0.000114861
-1.62088e-06
-0.000113222
0.000111222
-0.000115721
0.000112892
0.000118555
-0.000118719
-0.000117847
0.000114996
2.88717e-06
-0.000113106
-4.81197e-06
-0.000120596
0.000115335
5.16456e-06
-0.000116013
-4.58598e-06
-0.000120371
0.000115441
5.15349e-06
-0.00011579
-4.56524e-06
-0.000120827
0.000115481
5.1503e-06
-0.0001163
-4.57123e-06
0.000141461
-9.0878e-05
-1.41574e-07
-0.000112544
0.000115385
-0.000120755
0.000115937
5.05348e-06
-0.000104766
5.6869e-05
4.91923e-05
-0.000116086
-4.47246e-06
-0.00012083
0.000115707
4.96672e-06
0.000113732
0.000122581
-0.000109223
-1.51725e-05
8.97321e-05
1.31785e-05
-0.000101154
-0.000116584
-4.4275e-06
0.000114289
-0.000121137
0.000116284
4.87889e-06
0.000118398
5.04942e-06
-0.000116618
-4.29296e-06
-0.000135711
3.30449e-05
-0.000108463
2.35151e-06
0.00010742
-0.00012073
0.000116023
4.75767e-06
-6.76146e-05
-5.23649e-05
0.000119995
-0.000116679
-4.18893e-06
9.9816e-05
-0.000102382
2.52394e-06
3.19772e-06
-0.000108639
0.000105473
-0.000121274
0.000116489
4.66834e-06
-0.000111225
-5.69864e-06
-0.000117158
-4.09614e-06
1.00525e-06
-0.000112233
-0.00010513
-9.07766e-06
5.3357e-05
-0.000120952
-0.00011657
-5.2534e-06
0.000103608
-1.10802e-05
-0.000110074
0.000114963
-4.90881e-06
-0.000112162
2.06187e-06
-0.000120755
0.000116551
4.54652e-06
-0.000116762
-3.96285e-06
-4.25727e-06
0.000110377
-0.000106177
1.95256e-06
0.000109097
-0.000110862
-0.000120757
0.000115923
4.44968e-06
-0.000117569
-3.29389e-06
0.000116086
-0.000118595
2.67212e-06
-2.49312e-06
0.000123383
-0.000122479
-0.000121429
0.000117151
4.17979e-06
8.64109e-05
-0.000117352
3.07593e-05
-0.000117713
-3.64564e-06
2.24264e-06
-0.000108403
0.000106155
9.73437e-05
1.39568e-05
-0.000120659
0.000116941
4.00626e-06
0.000115941
-8.06615e-06
-0.000108967
-0.00011723
-3.43016e-06
0.00011474
-2.87329e-05
-2.21835e-05
1.91711e-06
-0.000108311
0.000106421
0.000111295
-0.000114644
3.35328e-06
-3.6277e-07
0.000111663
-0.000121117
0.000116981
3.88735e-06
-0.000117879
-3.34756e-06
-0.000104205
0.000109662
1.98108e-05
3.12245e-06
-0.000108577
0.000105485
4.11453e-06
-0.000110024
0.00010576
-0.000120272
0.00011673
3.69578e-06
2.34746e-06
-0.000111908
0.0001095
-0.000117574
-2.55265e-06
-7.34884e-06
0.000118415
-0.000114373
-2.9586e-06
-0.000120184
0.00011662
3.46114e-06
-0.000117999
-2.30091e-06
-0.000113239
0.000113503
-2.40203e-07
-0.000112948
0.000114764
-1.79167e-06
-8.48188e-07
6.29858e-05
-0.000134719
-6.48571e-07
-0.000112282
-0.000112906
0.000110558
0.000116039
-0.000117688
1.75487e-06
-6.26018e-05
-6.33495e-05
0.000112792
-0.000120868
0.000117641
3.11046e-06
4.92527e-07
0.000110951
-0.000111376
-0.000118316
-2.53582e-06
-1.43453e-07
-0.000111318
0.000111462
-4.10053e-06
0.000109255
-0.000105108
3.77468e-07
-0.000114199
-0.000113874
0.000113544
-0.000120175
0.000117587
2.91997e-06
-0.00011781
-2.35368e-06
-0.000112416
-5.48548e-07
0.000112809
-0.000112179
-4.90217e-07
0.000113296
-0.000120059
0.000116978
2.70608e-06
-0.000111401
-0.000118623
-1.55035e-06
-0.000116091
0.000117681
-1.66787e-06
-1.24792e-06
-0.000119907
-0.000120274
0.000117792
2.32789e-06
-0.000118524
-1.78386e-06
-0.000113672
1.99781e-06
-3.96754e-06
-0.000119978
0.000117856
2.17024e-06
-0.000118304
-1.60315e-06
-4.80614e-05
-6.66341e-05
-9.8163e-07
0.0001123
-0.000111435
-0.000113294
0.000112214
0.000110981
-0.000109753
-0.00011974
0.000117884
1.85724e-06
-0.000115482
-1.2965e-06
0.000117218
-0.000118466
-1.27505e-06
2.28013e-07
9.97207e-05
-9.98618e-05
-0.000216796
0.000201792
-0.000114043
8.8913e-07
0.00011404
-8.39938e-06
-0.00011968
0.000117971
1.72412e-06
-0.000118489
-1.16902e-06
0.000114657
1.5918e-06
-0.000119393
0.000117928
1.40883e-06
-0.000118602
-8.14518e-07
4.55097e-07
-0.000119358
0.000107329
-0.000118132
0.000116891
1.26078e-06
-4.1256e-05
-2.19584e-05
5.95894e-05
-7.16043e-06
8.39102e-05
-0.000114011
3.02762e-05
5.48544e-06
-0.000120631
0.000101341
-2.13606e-06
-0.000100291
-3.27145e-05
-0.000114118
6.47832e-06
0.000106035
-5.66464e-06
-0.000192196
-6.65871e-05
-6.27202e-05
0.000128835
-0.000117911
0.000115168
2.75621e-06
-0.000115695
-2.50015e-06
-4.47241e-06
8.80349e-05
3.00957e-05
0.000111524
-0.000110971
-0.000118194
0.000115885
2.30574e-06
0.000111391
9.39426e-05
3.26185e-06
-9.71863e-05
-3.12692e-06
-2.97094e-05
0.000102136
-8.17133e-06
0.000119563
-2.54464e-06
2.47122e-06
-1.6247e-06
0.000111806
-4.91789e-06
-0.000107726
0.000115532
-1.13085e-06
-1.46877e-06
0.000119976
6.56122e-05
7.70885e-05
-0.000129257
7.5956e-05
5.36077e-05
-8.46072e-05
-5.17572e-05
-1.40283e-05
0.000114887
-3.24843e-07
-0.000112743
-0.000118956
-0.000110376
5.74923e-05
-0.000109411
0.000110115
0.000110663
-0.000107802
-6.21198e-07
-0.000112107
-3.08579e-07
0.000112377
0.000109989
-5.14534e-05
-0.000112323
6.0503e-07
0.000111717
6.83926e-06
-0.000116064
0.000108584
-0.000111566
1.09513e-06
-8.09721e-05
2.94996e-05
7.47876e-05
-8.13837e-05
-2.39942e-06
0.000112398
-0.000109962
-3.32496e-06
-0.000110154
0.000113412
7.17015e-05
-0.000122276
5.05712e-05
0.000106902
-0.000111226
0.000114129
-9.97089e-05
-0.000150291
8.88503e-05
6.14409e-05
-0.000112691
3.4795e-07
0.000112487
-5.68372e-07
-0.000111467
-0.000114419
5.7687e-05
0.00010066
6.06349e-06
-0.000107307
0.000107638
-9.22873e-06
-5.07193e-06
2.26416e-06
-0.000119489
7.6449e-06
7.4274e-07
-0.000112888
0.000115069
-0.000114759
-3.63905e-07
0.000110304
-0.000109705
1.82463e-05
-9.17481e-05
0.000112082
-1.04196e-06
-0.000115009
0.00011671
-1.76754e-06
0.000120601
-0.000122931
-0.00011483
-6.8714e-07
-3.82845e-07
-0.000112078
-6.49236e-05
9.88918e-05
-3.43634e-05
-6.23676e-07
-0.00011376
0.000114497
9.12696e-05
1.31139e-05
-0.000104359
0.000111889
-0.0001108
8.143e-05
-0.000113352
3.17917e-05
0.000102456
-1.11623e-05
-1.46195e-06
-0.000111901
0.000109989
-0.000106108
0.00010783
-0.000111196
0.000110846
-2.94264e-05
-4.224e-06
-0.000106796
0.000114809
-0.00011285
0.000109201
-6.63799e-05
0.000129809
-6.33828e-05
-0.000119367
0.000117109
2.27048e-06
-3.74055e-06
0.000114227
-0.000111608
-6.81527e-05
-6.82907e-05
0.000112433
-0.000112117
-4.78353e-06
0.000117443
7.51111e-05
-6.36054e-05
-7.27338e-05
9.83561e-05
-6.43006e-05
0.000110981
-0.000120517
2.62309e-06
8.75248e-05
-8.58596e-06
-0.000100243
3.43215e-05
-1.36746e-06
0.000101293
5.58995e-07
0.0001175
-0.000121076
5.47061e-06
0.000113844
-0.000119317
-0.000119705
0.000118175
1.5438e-06
-2.91755e-06
-0.000115856
2.56499e-06
-2.91678e-06
0.000107583
-0.00010479
-0.00011559
9.54067e-05
1.47057e-05
-0.000119268
0.000118063
1.31984e-06
-0.000135281
2.95801e-05
0.000107674
-0.000110643
-2.6823e-06
-2.20665e-05
0.000114
-2.26551e-06
-1.25912e-06
-0.000111699
0.000113012
0.000115926
-5.04216e-05
-0.000113442
1.80723e-06
-0.000111696
0.000107084
0.000103713
-2.44317e-06
0.000112318
6.13228e-06
-0.000112651
0.000106872
-0.000118713
0.000118202
5.92206e-07
-0.000108599
5.27483e-07
0.000108577
-1.90628e-06
0.000124097
-8.19382e-05
-0.000108783
-4.88128e-06
0.000109259
-0.000105734
0.000114803
-2.62966e-06
0.000116232
-1.91827e-06
7.94673e-05
-0.000109743
3.06245e-05
5.70595e-06
0.000106784
-0.000112385
-0.000109304
0.000111376
0.000127351
-0.000119929
0.000110188
-3.05866e-05
4.43982e-06
-0.000113842
0.00011077
-5.62481e-06
0.000114343
-0.000107091
7.5378e-06
0.000105121
-0.000114533
-0.000107653
0.000113442
0.000141044
-0.000112098
-2.90724e-05
4.8009e-06
-0.000108094
0.000103288
-6.53965e-05
8.61621e-05
2.66517e-06
0.000107825
-0.000102996
5.0082e-05
9.08388e-05
0.000115729
-1.16106e-06
4.78293e-06
-0.000114706
0.000110224
5.34752e-06
-0.000114261
0.000108452
8.26363e-06
0.000103172
-0.000111438
8.79596e-07
0.000110907
-0.00011258
-0.000118385
0.000109157
-0.000108179
0.000117168
-2.58477e-06
1.49902e-06
0.000109501
-0.000110963
0.000197466
-0.000204738
0.000110658
-0.000117321
1.5547e-06
4.59219e-06
0.000114419
-6.19406e-07
-6.49742e-07
-0.000108309
0.00011081
-0.000110636
-2.88032e-06
0.000111982
-0.000116089
-0.000110044
0.00010529
8.60853e-05
3.02545e-05
-0.000115023
0.00011345
1.48916e-06
0.000117941
-0.000117922
-5.12298e-09
0.00011812
-3.91701e-07
-2.9865e-05
0.00011042
1.87998e-06
0.000117014
-0.000117217
2.17858e-07
-0.000117703
0.000117896
-7.89405e-07
0.000118071
-6.43593e-07
9.92692e-06
0.000105765
-0.000115539
-9.62633e-05
0.000106261
1.1516e-05
-0.000107716
-0.000107018
0.00010272
-0.000118203
4.79916e-07
-5.63069e-06
8.80302e-05
-0.000101671
1.36369e-05
-3.23002e-07
0.000116429
0.000107586
-0.000109292
0.000115179
9.31461e-05
-5.11648e-06
-0.000113311
-8.28642e-05
0.000105327
-2.21081e-05
0.000109116
-6.9025e-06
0.000109502
-0.000101241
7.79224e-05
-0.000109097
3.07069e-05
0.000108434
-3.09768e-05
9.93506e-05
-0.000130849
0.000117728
-6.35789e-06
-7.36664e-07
-0.000108351
0.000113243
-3.90959e-06
-9.0478e-05
5.06337e-05
-8.47447e-05
5.04806e-06
-0.000113416
-0.000115207
1.93642e-06
-2.43316e-06
0.000113568
-9.99e-05
0.000100599
3.81683e-06
0.00010362
-0.000107469
0.000106961
3.56889e-07
-0.000114137
-0.000104383
-7.1824e-06
-5.99334e-06
-0.000167216
-0.000117122
3.21282e-06
6.94269e-07
0.000109095
-0.000109875
-0.00011505
-7.75844e-07
0.00011875
-0.000118708
7.53923e-07
-6.87479e-05
-8.15395e-05
-0.000114521
1.71997e-06
-0.000118483
-3.51354e-06
-5.5544e-05
-7.38869e-05
5.49529e-06
-0.000121185
-0.000107988
-9.30604e-05
-2.4673e-06
0.000117677
-0.000117594
3.63405e-06
-0.000101681
-1.97998e-06
0.000102561
0.000101614
2.55085e-06
-0.000111649
-0.000118365
0.000118916
-9.87706e-05
5.50872e-05
5.69738e-07
1.29437e-05
-9.38658e-05
-0.000109511
7.49161e-06
-0.000117496
5.67606e-07
-0.000117563
6.7291e-07
-0.000117022
6.56328e-07
-0.000117415
4.97192e-07
-1.25153e-06
-0.00011769
1.50278e-06
-0.000176466
7.71442e-05
-1.33623e-06
-0.000117349
6.78568e-07
-1.19358e-06
0.000113185
-1.33787e-06
0.000113711
-0.000116884
3.18338e-06
-0.000117891
3.52144e-07
-1.37205e-06
-0.00013903
7.78763e-05
6.11808e-05
-0.000116714
6.53571e-07
-1.04138e-06
-1.37222e-06
-0.000111613
0.000114195
-2.59751e-06
-0.000117479
1.47671e-07
0.000114046
-0.000122336
8.35269e-06
-0.000116947
6.46984e-07
-1.35136e-06
-4.35761e-08
-0.00011649
6.03656e-07
0.000116261
-0.000114177
-2.13979e-06
-0.000117465
7.5648e-09
-1.34125e-06
-4.37655e-06
-0.00011644
5.49303e-07
-6.39722e-07
-0.00011507
-1.00011e-06
-0.000117752
-1.20797e-07
-1.24797e-06
-0.000125765
5.94316e-05
0.000104275
-0.000109037
7.51039e-05
-0.000106382
3.18654e-05
-5.41648e-07
1.91165e-06
0.00011354
-2.15072e-06
-0.000111936
1.41623e-08
-0.000117295
-2.43607e-07
0.000111428
-0.000110305
2.68774e-06
-0.000111459
2.83892e-06
-1.16821e-06
-3.96749e-07
-3.65315e-05
3.29088e-06
0.000100293
-0.000105169
-0.000117498
-5.59331e-07
1.22563e-06
-0.000108969
-8.75994e-07
0.000109804
6.66141e-07
-0.000117313
-8.59339e-07
9.80782e-07
0.000131023
-0.000116994
-9.95264e-07
3.73908e-07
-0.000117271
-1.30155e-06
1.20011e-06
-0.00011304
1.04895e-05
-0.000110863
6.60585e-07
5.09008e-06
-0.000109174
0.000104074
-0.00011682
-1.60435e-06
0.000120895
-4.76503e-08
-0.000103967
0.000109087
-0.000113369
-1.70196e-06
1.67725e-06
-1.71912e-06
-0.000112233
0.000113609
-0.000100483
-4.75329e-07
9.88145e-05
-0.000116545
-1.75051e-06
1.18986e-06
-0.000116426
-2.05468e-06
9.5224e-05
1.43619e-05
1.41223e-06
-0.000105102
-2.50188e-06
0.000117317
-0.000116262
-2.19566e-06
0.000111196
0.000115305
-4.39932e-07
-2.20767e-05
1.66432e-06
-1.17892e-06
-0.000117404
-0.000115363
0.000115518
-3.19162e-06
-0.000116098
-2.51701e-06
-0.000116343
0.000118031
-1.61066e-06
-0.000117527
1.13492e-06
1.56866e-05
-0.000107942
9.25419e-05
1.88183e-06
-0.000115718
-1.96446e-06
2.15515e-06
-5.35348e-05
-7.39429e-05
0.000127549
-1.99015e-06
-0.000110297
9.90539e-05
0.000103366
-0.000109402
3.43426e-06
-0.000114753
-1.05172e-07
9.72379e-05
-0.000112188
-4.40462e-06
0.000109992
-0.000105554
1.59778e-06
-0.000124283
-2.45372e-06
9.75101e-05
1.70869e-06
0.000113532
-0.000105982
-7.0691e-05
0.000135358
-0.000106156
-9.43281e-05
0.000163023
-5.47435e-07
3.19401e-06
0.000108686
3.02401e-06
0.000105381
-0.000109948
3.45448e-07
0.000116413
-0.000113763