/*--------------------------------*- C++ -*----------------------------------*\
  =========                 |
  \\      /  F ield         | OpenFOAM: The Open Source CFD Toolbox
   \\    /   O peration     | Website:  https://openfoam.org
    \\  /    A nd           | Version:  12
     \\/     M anipulation  |
\*---------------------------------------------------------------------------*/
FoamFile
{
    format      ascii;
    class       volVectorField;
    location    "5.425";
    object      U;
}
// * * * * * * * * * * * * * * * * * * * * * * * * * * * * * * * * * * * * * //

dimensions      [0 1 -1 0 0 0 0];

internalField   nonuniform List<vector> 
46253
(
(0.952465 0.00131481 0)
(0.884941 0.000626022 0)
(0.780572 0.0011942 0)
(0.885253 0.000897362 0)
(0.783357 0.00205194 0)
(0.78671 0.000770452 0)
(0.91686 -0.0189887 0)
(1.02564 0.0358122 0)
(0.88879 0.000468143 0)
(0.889251 0.00052877 0)
(0.959379 0.00296842 0)
(1.11158 -0.0711984 0)
(0.903622 0.000878295 0)
(0.90317 0.000787505 0)
(0.909141 0.00970623 0)
(0.890271 0.000520123 0)
(0.890527 0.000707354 0)
(0.897655 0.000609446 0)
(0.897357 0.000506108 0)
(0.894275 0.000741768 0)
(0.894839 0.000880417 0)
(0.789077 0.00329616 0)
(0.880917 -0.0086524 0)
(0.955032 -0.000651602 0)
(1.0483 -0.0115113 0)
(0.887523 0.000766047 0)
(0.892049 0.000704919 0)
(0.892442 0.00097287 0)
(0.886723 0.000607867 0)
(1.00379 0.0356893 0)
(0.934677 0.0423265 0)
(0.909348 0.000918487 0)
(0.91002 0.000700236 0)
(0.89604 0.000582713 0)
(0.896395 0.000645375 0)
(0.867764 0.00175212 0)
(0.901317 0.000761508 0)
(0.901855 0.000965927 0)
(0.67186 -0.017675 0)
(0.883309 -0.0216421 0)
(0.982893 -0.0383298 0)
(1.11478 -0.0710073 0)
(0.906787 0.000601555 0)
(0.907295 0.000607795 0)
(1.1353 -0.0962481 0)
(0.899148 0.000605631 0)
(0.899534 0.0008326 0)
(0.866031 0.00137525 0)
(0.912708 0.000526972 0)
(0.912874 0.000530639 0)
(0.914174 0.000671224 0)
(0.914653 0.000676732 0)
(0.798546 0.00182088 0)
(0.864127 0.0358653 0)
(0.767868 0.0111962 0)
(1.07607 -0.0371651 0)
(0.919513 0.000280672 0)
(0.920045 0.000300619 0)
(0.86475 0.0631769 0)
(0.998982 -0.0208972 0)
(0.858968 0.00589372 0)
(1.03772 -0.00108491 0)
(0.873167 -0.00148859 0)
(0.881506 0.00836567 0)
(0.910568 -0.0109369 0)
(0.904679 0.000652509 0)
(0.905257 0.000771316 0)
(0.79608 0.000582249 0)
(1.07417 -0.0357271 0)
(1.13418 -0.0936672 0)
(0.921556 -0.010704 0)
(0.921017 0.000505215 0)
(0.921316 0.000534005 0)
(1.00239 -0.0320849 0)
(0.802083 0.00161539 0)
(0.945811 -0.00117943 0)
(0.933559 0.000344533 0)
(0.934482 0.000279007 0)
(0.887458 -0.0129031 0)
(0.911422 0.000469708 0)
(0.911917 0.000620668 0)
(0.925906 0.000863931 0)
(0.796414 0.00220933 0)
(0.926441 0.000744021 0)
(0.82389 -0.0295011 0)
(0.805532 0.00171652 0)
(0.947531 0.000333766 0)
(0.948315 0.000257606 0)
(1.05957 -0.00401442 0)
(0.86422 -0.00184776 0)
(0.865056 -0.00692222 0)
(0.815343 -0.0293756 0)
(0.807783 0.00113292 0)
(0.917112 0.000291136 0)
(0.881596 -0.00730239 0)
(0.918067 0.000500485 0)
(0.807696 0.00119138 0)
(0.891699 -0.00800355 0)
(0.866319 0.0625443 0)
(0.865845 0.00475798 0)
(0.884708 -0.00339708 0)
(0.809658 0.000837322 0)
(0.807285 0.000377909 0)
(0.937457 0.0416468 0)
(0.771641 0.00654667 0)
(0.836782 -0.0412449 0)
(1.12214 -0.0659653 0)
(0.964041 0.000122104 0)
(0.964979 -0.000112686 0)
(1.11742 -0.0582869 0)
(0.651413 0.0093927 0)
(0.923082 0.00043352 0)
(0.923831 0.000384241 0)
(0.888532 0.0117303 0)
(0.887931 0.011023 0)
(1.06979 0.00367774 0)
(1.15196 -0.0919106 0)
(1.07337 -0.00439213 0)
(0.766168 0.0626085 0)
(1.0703 -0.0327149 0)
(0.879375 0.00988683 0)
(0.789038 0.00161542 0)
(0.927794 0.000363741 0)
(0.928168 0.000367843 0)
(0.815032 0.000503128 0)
(0.758552 0.0568108 0)
(0.858285 0.00492916 0)
(1.08345 -0.0457544 0)
(0.755059 0.0100426 0)
(0.936697 0.000411023 0)
(0.975797 -0.000437856 0)
(0.976117 -0.000577006 0)
(0.787319 0.00271137 0)
(0.977116 -0.0105228 0)
(0.936882 0.000450945 0)
(0.947492 -0.00848438 0)
(0.941061 -4.08268e-06 0)
(0.94204 9.32425e-05 0)
(1.07298 -0.0337717 0)
(0.92611 -0.00422423 0)
(0.931116 1.33974e-05 0)
(0.983531 -0.00018953 0)
(0.984045 -0.000340564 0)
(0.944368 0.0386996 0)
(0.930184 0.000162851 0)
(0.761709 0.00852407 0)
(0.945416 5.82686e-05 0)
(0.945858 5.52411e-05 0)
(0.666422 0.00589207 0)
(0.861002 -0.001996 0)
(1.11781 -0.0565471 0)
(0.802194 0.00048082 0)
(0.938135 0.000356808 0)
(0.938863 0.000519606 0)
(0.966996 0.0293343 0)
(1.14002 -0.0947725 0)
(1.08889 -0.0481767 0)
(0.831335 -0.00074583 0)
(0.952252 4.32899e-05 0)
(0.770957 0.00831349 0)
(0.952804 -0.000196959 0)
(1.12716 -0.0665108 0)
(1.07767 -0.038005 0)
(0.931154 0.0179445 0)
(0.92986 -0.0256932 0)
(0.943611 0.000229665 0)
(0.970304 -0.00963736 0)
(0.944028 0.000252031 0)
(0.698041 0.0403391 0)
(0.862204 0.00499432 0)
(0.957541 -0.000159542 0)
(0.958262 -0.000297001 0)
(0.792377 0.00254478 0)
(1.16548 -0.0289927 0)
(0.775584 0.00424237 0)
(0.887 -0.0670756 0)
(0.836865 -0.0166086 0)
(0.802756 0.00225912 0)
(1.13957 -0.0303705 0)
(1.15376 -0.0893054 0)
(0.777159 0.00233579 0)
(0.968406 0.0285229 0)
(0.961197 -0.000126611 0)
(0.961726 -0.00028728 0)
(0.845403 0.00145152 0)
(0.950037 0.00020345 0)
(0.950831 0.000318279 0)
(1.1423 -0.0988935 0)
(0.845918 0.00130405 0)
(0.846317 0.00143103 0)
(0.801789 0.00135583 0)
(0.85298 0.000284107 0)
(1.05432 0.00613976 0)
(0.852893 0.000308041 0)
(0.841557 0.0001564 0)
(0.841516 0.000124536 0)
(0.64869 0.00406025 0)
(0.814923 0.00121134 0)
(1.02646 0.00039288 0)
(1.02658 -0.000283473 0)
(0.882475 -0.00887674 0)
(0.849855 0.00334788 0)
(0.95485 9.99799e-05 0)
(0.955845 7.00342e-05 0)
(0.856475 -0.00172461 0)
(1.15105 -0.09247 0)
(0.970222 0.0276017 0)
(0.968874 -0.00015794 0)
(0.969349 -0.000395222 0)
(0.854895 0.00432435 0)
(0.88439 -0.0145664 0)
(0.765187 0.068342 0)
(1.147 -0.0664379 0)
(0.805717 0.0015931 0)
(1.0811 0.0237117 0)
(0.813454 0.0011135 0)
(0.946076 0.0382386 0)
(0.807345 -0.0149548 0)
(0.974147 -0.000297363 0)
(0.794257 0.00120515 0)
(0.797041 0.00132969 0)
(0.974858 -0.000423582 0)
(0.882009 -0.0923736 0)
(0.9594 -0.0001696 0)
(0.959476 -1.87971e-05 0)
(0.798949 -0.0306017 0)
(0.807707 0.00128086 0)
(0.806994 0.00179938 0)
(1.03666 -0.00184795 0)
(1.03621 -0.00206981 0)
(0.896546 0.0556646 0)
(0.881068 0.0286478 0)
(0.872614 0.0022181 0)
(0.86346 0.00173068 0)
(0.81559 0.000533028 0)
(0.872808 -0.009299 0)
(0.843269 -0.00010202 0)
(0.881733 -0.0181498 0)
(0.899063 0.054572 0)
(0.88729 0.0578135 0)
(0.813277 0.00095594 0)
(0.809061 0.00126503 0)
(0.814725 0.000711832 0)
(0.842992 -0.000186191 0)
(0.938649 0.0118832 0)
(0.803916 0.00136956 0)
(0.830635 -0.0013004 0)
(0.969792 0.0273352 0)
(0.816791 0.000958742 0)
(0.981266 -0.000341106 0)
(0.981961 -0.000307941 0)
(0.888948 0.0572909 0)
(1.04711 -0.00298304 0)
(0.814783 0.00105762 0)
(1.04887 -0.00225637 0)
(0.966662 -0.000188188 0)
(0.96745 1.25067e-05 0)
(1.0657 -0.0277785 0)
(1.13817 -0.018548 0)
(0.820772 0.000350281 0)
(0.971911 -0.00247784 0)
(0.829298 -0.0124749 0)
(1.09693 -0.0615667 0)
(0.942948 0.0394878 0)
(1.12786 -0.031673 0)
(0.832141 -0.0007585 0)
(0.885077 0.00766136 0)
(0.879198 0.0129613 0)
(0.971449 1.67036e-05 0)
(0.988335 -0.000409506 0)
(0.972303 5.80134e-05 0)
(0.810146 0.00145689 0)
(0.8921 0.00964177 0)
(0.404001 0.0114496 0)
(0.989138 -0.000427835 0)
(0.812454 0.000882666 0)
(0.762824 0.0118478 0)
(0.845343 0.00469129 0)
(0.897602 0.0384301 0)
(1.05209 -0.0193378 0)
(1.0619 -0.00117415 0)
(1.06383 -0.000587354 0)
(0.8061 0.000513556 0)
(0.807485 0.000821785 0)
(0.87946 -0.0131677 0)
(1.08994 -0.00344979 0)
(0.795228 -0.0233439 0)
(1.06927 -0.0322266 0)
(0.951815 0.0352447 0)
(0.851745 0.000920513 0)
(0.870913 0.0617114 0)
(0.87219 0.0605033 0)
(0.844573 -0.0190559 0)
(0.820042 0.00294747 0)
(0.875914 0.0600415 0)
(0.916794 0.0485756 0)
(0.805159 0.00169922 0)
(0.91954 0.0488435 0)
(0.91103 -0.0241918 0)
(0.992718 -0.000521323 0)
(0.773347 0.0704027 0)
(0.993207 -0.000801067 0)
(1.08098 -0.04486 0)
(0.771152 0.0525164 0)
(0.846241 2.34319e-05 0)
(0.977906 -0.000660619 0)
(0.979301 -0.000191616 0)
(0.855824 0.00353122 0)
(0.942798 0.0410913 0)
(0.84601 0.00124063 0)
(0.846275 0.00147794 0)
(0.923376 -0.0311619 0)
(0.888092 -0.0314979 0)
(0.998129 -0.000621519 0)
(0.815188 0.000917553 0)
(0.999003 -0.000742117 0)
(1.07742 -0.0356346 0)
(0.877206 0.0593274 0)
(0.859881 -0.00161625 0)
(0.898853 0.031284 0)
(1.09846 -0.0487314 0)
(0.817949 0.000566079 0)
(0.942679 -0.0168949 0)
(1.04068 -0.0152394 0)
(0.682981 -0.0101081 0)
(0.955028 0.0342724 0)
(0.815401 0.000611438 0)
(0.819407 0.000281145 0)
(1.00196 -0.000570571 0)
(1.00236 -0.000984565 0)
(0.920969 -0.00055944 0)
(0.924208 0.000936411 0)
(0.845955 4.87626e-05 0)
(0.9593 0.00581322 0)
(0.817642 0.00063786 0)
(0.998179 -0.0138667 0)
(1.0687 -0.0294722 0)
(0.985534 -0.000493081 0)
(0.986553 -0.000195051 0)
(0.833473 -0.000694562 0)
(0.799903 0.00109503 0)
(0.803505 0.000779688 0)
(0.886593 0.0126964 0)
(0.760524 0.0400149 0)
(0.8099 0.000767162 0)
(1.0087 -0.00094703 0)
(1.00944 -0.00118469 0)
(0.878466 -0.0335001 0)
(1.07392 -0.0335199 0)
(0.80283 0.0022816 0)
(0.67207 -0.00323133 0)
(0.863316 0.00112125 0)
(1.15697 -0.0935988 0)
(0.907403 0.0261603 0)
(1.12278 -0.065785 0)
(0.809064 0.00222851 0)
(0.991022 -0.000304016 0)
(0.864748 0.0026054 0)
(0.991436 -0.000342951 0)
(0.868147 -0.0019557 0)
(1.11506 -0.0642278 0)
(0.847393 1.56482e-05 0)
(0.810917 0.00306516 0)
(0.846989 -4.33594e-06 0)
(0.846463 0.00108731 0)
(0.810452 0.00306087 0)
(0.810643 0.00313867 0)
(0.810904 0.00311608 0)
(1.01209 -0.000580659 0)
(0.810908 0.00266621 0)
(0.817651 0.00154794 0)
(0.81412 0.00273169 0)
(0.814485 0.00306484 0)
(1.01261 -0.000884006 0)
(0.811093 0.0029097 0)
(0.881165 0.0593584 0)
(1.07445 -0.0348879 0)
(0.811961 0.00116927 0)
(0.808028 0.00244959 0)
(0.852432 0.0039165 0)
(0.835934 -0.00863416 0)
(0.924653 -0.0221559 0)
(1.09067 -0.0460284 0)
(0.995123 -0.000733857 0)
(0.875913 0.0347881 0)
(0.995932 -0.000378199 0)
(0.810056 0.000855408 0)
(0.891839 0.0177185 0)
(1.01739 -0.00109703 0)
(0.741935 0.0590856 0)
(0.845114 0.00136097 0)
(0.94968 0.0366707 0)
(1.01766 -0.00149789 0)
(0.792336 -0.00267533 0)
(0.804338 0.000754302 0)
(0.848582 0.0314269 0)
(0.979278 0.0233443 0)
(0.976376 0.026072 0)
(0.817529 0.00033957 0)
(1.0145 -0.0124938 0)
(0.863472 0.00445525 0)
(0.925323 -0.000441947 0)
(0.939546 0.0015004 0)
(0.882815 0.0584508 0)
(0.813996 0.00061186 0)
(0.835975 0.0305509 0)
(0.842249 -0.000406521 0)
(0.857143 -0.00140258 0)
(0.892141 0.0187397 0)
(0.814013 0.000863167 0)
(0.822181 2.02078e-05 0)
(0.845777 0.000746799 0)
(0.787492 0.0659626 0)
(0.845441 0.00140912 0)
(1.01839 -0.0107853 0)
(0.8386 0.0264053 0)
(1.04005 0.00819206 0)
(0.816539 0.000659542 0)
(0.821012 0.00079009 0)
(1.06353 -0.0266911 0)
(0.838078 0.0267509 0)
(0.821834 -0.00609693 0)
(1.0229 -0.000663463 0)
(0.865663 0.000153907 0)
(1.00065 -0.000637798 0)
(0.865669 0.000184979 0)
(0.843296 0.00244959 0)
(1.02394 -0.000798874 0)
(1.0005 -0.000442186 0)
(0.849073 0.000155019 0)
(0.847119 -0.0193131 0)
(0.854957 0.0045066 0)
(0.862387 -0.00434715 0)
(0.840837 0.000182644 0)
(0.840511 0.000269701 0)
(1.028 -0.0214841 0)
(0.900141 0.0214933 0)
(0.846677 0.00141701 0)
(0.842143 -0.000390616 0)
(0.854044 0.0341279 0)
(1.09641 -0.0475831 0)
(0.832364 0.026252 0)
(0.791134 -0.0322542 0)
(0.848749 0.000128966 0)
(1.01624 -0.0185885 0)
(0.963062 0.03057 0)
(0.852646 0.000409802 0)
(0.8156 0.000467462 0)
(1.07323 -0.0314591 0)
(0.830055 -0.000504796 0)
(1.05186 -0.0179187 0)
(1.01235 -0.0114761 0)
(0.935836 -0.0269147 0)
(1.02994 -0.00835464 0)
(0.569495 0.0709088 0)
(0.841022 0.0324554 0)
(0.699698 0.028908 0)
(0.839453 0.0303663 0)
(1.00521 -0.000647879 0)
(1.03324 -0.0113133 0)
(0.810218 0.000948494 0)
(1.03601 -0.0117475 0)
(1.03552 -0.0116479 0)
(1.00672 -0.000575249 0)
(0.809824 0.00292618 0)
(1.03585 -0.0118169 0)
(0.804176 0.00162436 0)
(0.845649 0.00259239 0)
(0.838502 0.0273443 0)
(0.813019 0.00332783 0)
(0.845344 0.00254876 0)
(1.08665 -0.031545 0)
(0.892329 -0.0215869 0)
(0.706188 0.00194513 0)
(1.08076 -0.0456551 0)
(1.02848 -0.00141153 0)
(1.05693 -0.024224 0)
(0.971484 0.0263796 0)
(1.02901 -0.00210501 0)
(1.1095 -0.0257978 0)
(0.911336 -0.0126833 0)
(0.910357 -0.00997599 0)
(0.866006 0.00975794 0)
(0.808657 0.00124658 0)
(0.809119 0.0014228 0)
(0.866139 0.00389671 0)
(0.751344 0.00754891 0)
(0.831492 0.000235428 0)
(1.04378 -0.0174788 0)
(0.765924 -0.0268469 0)
(1.12369 -0.0805684 0)
(1.04404 -0.016568 0)
(1.03319 -0.0126555 0)
(1.0798 -0.027616 0)
(1.02785 -0.0151118 0)
(0.615377 -0.00655342 0)
(0.808305 0.00268284 0)
(1.01 -0.00126423 0)
(1.02571 -0.0124475 0)
(1.10169 -0.0621691 0)
(1.01013 -0.000737908 0)
(1.03617 -0.000570314 0)
(1.03684 -0.000554715 0)
(0.955206 0.0024875 0)
(1.15031 -0.00751922 0)
(0.810795 0.00301189 0)
(0.928445 0.000239178 0)
(0.939731 0.0402264 0)
(0.855681 -0.0021271 0)
(0.888194 -0.0169486 0)
(0.808871 0.00076652 0)
(0.904058 0.00691326 0)
(0.835185 0.0249278 0)
(0.870108 0.0464998 0)
(1.03772 -0.0135779 0)
(0.856666 0.000697611 0)
(0.845622 0.00104601 0)
(1.00529 -0.0171534 0)
(0.817816 0.00110163 0)
(0.935413 0.0184639 0)
(1.02072 -0.0258024 0)
(0.789954 -0.054032 0)
(1.0052 -0.0128369 0)
(0.819864 0.000569429 0)
(0.820807 0.00041064 0)
(1.00518 -0.0127923 0)
(0.810223 0.00249765 0)
(1.00528 -0.0124671 0)
(1.00688 -0.00943667 0)
(1.00575 -0.0121523 0)
(0.886772 0.0269218 0)
(0.862372 -0.0157232 0)
(0.838514 -0.0150352 0)
(0.830365 -0.0011615 0)
(1.03327 -0.0120643 0)
(1.01721 -0.0131774 0)
(0.812901 0.000591687 0)
(0.860268 0.000428004 0)
(1.01538 -3.6831e-05 0)
(0.831722 -0.000884525 0)
(0.967392 -0.00228027 0)
(1.05733 -0.0250942 0)
(0.822069 0.000240311 0)
(0.855237 -3.47624e-05 0)
(1.01604 -0.000300402 0)
(0.857688 0.00272568 0)
(0.863171 -0.00616666 0)
(0.843508 0.0183701 0)
(0.842852 0.0181825 0)
(1.13196 -0.0852759 0)
(0.845887 0.0191889 0)
(0.844752 0.0191786 0)
(1.04328 -0.000827578 0)
(1.06159 -0.0241874 0)
(1.04438 -0.000636681 0)
(1.0579 -0.0552577 0)
(0.854839 0.0220004 0)
(0.853921 0.021893 0)
(0.85712 0.0225255 0)
(0.855998 0.0224751 0)
(0.817043 0.000857909 0)
(0.834964 0.0282795 0)
(0.853403 -0.000634799 0)
(1.03285 -0.0122739 0)
(1.12264 -0.0790266 0)
(0.848133 0.00128908 0)
(0.843127 0.000491417 0)
(0.856813 -0.00296076 0)
(0.837294 0.0247769 0)
(0.848708 0.00190326 0)
(0.842292 0.000327792 0)
(0.969122 -0.00606198 0)
(0.94681 0.0375119 0)
(0.927337 -0.0125248 0)
(0.956392 0.0335508 0)
(0.845369 0.00194428 0)
(0.855845 0.00156093 0)
(1.08139 -0.0439386 0)
(0.831816 -0.000744499 0)
(0.846505 0.00212093 0)
(0.846118 0.00409268 0)
(1.01902 -0.00215947 0)
(0.841387 0.0107787 0)
(0.843219 0.00166808 0)
(1.02006 -0.00116344 0)
(0.95799 0.0329472 0)
(0.930257 0.0259174 0)
(0.811296 0.00278564 0)
(0.92846 0.0261594 0)
(0.928207 0.0259323 0)
(0.925512 0.0260905 0)
(1.06251 0.00681979 0)
(0.844198 0.00181795 0)
(1.04574 -0.00171636 0)
(1.04589 -0.0025232 0)
(0.949781 0.0380659 0)
(0.7755 0.0319593 0)
(0.842129 0.00740194 0)
(0.852127 0.000398757 0)
(1.00854 -0.0424523 0)
(0.806495 0.000738636 0)
(0.767489 0.0484775 0)
(1.10944 -0.0694007 0)
(0.837901 0.0258547 0)
(0.768962 0.0554384 0)
(0.834792 0.0313664 0)
(0.813586 0.00339357 0)
(0.944087 0.0398928 0)
(0.938875 0.0418991 0)
(0.807321 0.0026482 0)
(0.810657 0.0029107 0)
(1.14783 0.0159062 0)
(1.03239 -0.0110186 0)
(0.808485 0.00257008 0)
(0.806807 0.000666321 0)
(0.984177 0.02177 0)
(0.863111 0.0234848 0)
(0.862298 0.0235146 0)
(0.868836 0.0242822 0)
(0.867901 0.0242708 0)
(0.872335 0.0241978 0)
(0.871067 0.0243655 0)
(0.877851 0.0247935 0)
(0.877287 0.0248246 0)
(1.15377 -0.101863 0)
(1.03903 -0.0180415 0)
(0.882911 0.0241743 0)
(0.899102 -0.0220243 0)
(0.880971 0.0243897 0)
(0.88714 0.0243372 0)
(0.810154 0.00265556 0)
(0.972469 -0.00316972 0)
(0.939005 -0.00282791 0)
(0.887021 0.0245678 0)
(0.810461 0.00305571 0)
(0.89372 0.0239157 0)
(0.816384 0.000575915 0)
(0.892064 0.0239619 0)
(0.890104 0.0276319 0)
(1.00763 -0.0178241 0)
(0.896909 0.0233809 0)
(0.872816 0.000401024 0)
(0.896432 0.0236747 0)
(0.818715 0.0682435 0)
(0.817588 0.00649156 0)
(0.904248 0.0232096 0)
(0.840283 0.000320833 0)
(0.903203 0.0232603 0)
(0.839918 0.000276973 0)
(1.14088 -0.0812873 0)
(0.872546 0.000402705 0)
(1.06126 -0.0214204 0)
(0.950458 -0.0018662 0)
(0.847414 0.00127256 0)
(0.847126 0.00127782 0)
(0.907685 0.0220966 0)
(0.906304 0.0225204 0)
(0.81309 0.00278307 0)
(1.0053 -0.0128993 0)
(0.914391 0.0218926 0)
(0.914349 0.0220543 0)
(0.984985 0.0197326 0)
(0.81816 0.000599649 0)
(0.819418 0.00033929 0)
(0.923587 0.0202362 0)
(1.05572 -0.00126158 0)
(0.922596 0.0203624 0)
(0.81483 0.00513646 0)
(1.02684 -0.00192413 0)
(0.926473 0.018767 0)
(1.09404 -0.0450396 0)
(0.925283 0.0191193 0)
(1.05582 -0.00138078 0)
(1.02663 -0.0016017 0)
(0.810952 0.00437189 0)
(0.847168 0.00221427 0)
(0.847418 0.00233415 0)
(0.933225 0.0184602 0)
(0.933027 0.0186603 0)
(0.924411 0.0124194 0)
(0.80947 0.00387459 0)
(0.815219 0.00275733 0)
(0.938325 0.0167752 0)
(1.04121 -0.0160394 0)
(0.937082 0.0172035 0)
(1.09927 -0.0478566 0)
(0.81123 0.00304332 0)
(0.946208 0.0153422 0)
(0.945884 0.0155148 0)
(0.846107 0.00281205 0)
(0.844455 0.00230316 0)
(0.845764 0.00270083 0)
(1.02351 0.00921799 0)
(0.843999 0.00214814 0)
(1.01627 -0.0153165 0)
(0.999585 -0.000611515 0)
(0.933444 0.0434238 0)
(0.81303 0.00118576 0)
(0.955973 0.0131923 0)
(0.856908 0.0013916 0)
(0.954985 0.0132186 0)
(0.857652 0.00146877 0)
(0.812445 0.00162732 0)
(1.02073 -0.0128532 0)
(1.01915 -0.0133987 0)
(0.959032 0.0113748 0)
(0.958107 0.0119065 0)
(1.02849 -0.0150954 0)
(1.01185 -0.0104164 0)
(0.966212 0.0102986 0)
(1.00725 -0.00961832 0)
(0.966361 0.0102308 0)
(0.809027 0.00142727 0)
(0.977402 0.0243572 0)
(0.974523 0.00751398 0)
(0.973922 0.00784295 0)
(0.845002 0.00150251 0)
(1.06796 -0.0304024 0)
(0.979282 0.00623414 0)
(0.978339 0.00660269 0)
(0.693245 0.0266004 0)
(0.864861 0.00612435 0)
(0.864094 0.00690517 0)
(0.845693 0.000935993 0)
(0.984809 0.00385227 0)
(1.04556 -0.0197941 0)
(0.983933 0.00399175 0)
(0.836405 -0.00619143 0)
(1.2431 -0.0191011 0)
(1.02807 -0.0127071 0)
(1.11123 -0.0576706 0)
(0.99012 0.00295585 0)
(0.989432 0.00326064 0)
(1.00091 -0.000959601 0)
(0.995601 0.000430994 0)
(0.994956 0.000552655 0)
(1.07411 -0.0336672 0)
(1.07373 -0.0352572 0)
(0.849983 0.0208045 0)
(0.675712 -0.00310345 0)
(0.760553 0.0458251 0)
(1.05805 -0.00152006 0)
(0.855009 -0.00150182 0)
(1.09102 -0.0540996 0)
(1.05899 -0.00230685 0)
(1.08737 -0.0455159 0)
(1.10553 -0.0274868 0)
(0.963238 -0.00129621 0)
(0.860441 0.0231691 0)
(0.849346 0.0208411 0)
(0.858907 0.0230388 0)
(1.03251 -0.000371771 0)
(0.857001 0.00133349 0)
(0.848104 0.0199675 0)
(0.857632 0.00138459 0)
(0.83198 -0.00264512 0)
(0.846989 0.0197343 0)
(1.0343 8.1546e-05 0)
(0.841419 -0.00162125 0)
(0.851036 0.0211767 0)
(0.85256 0.0212378 0)
(1.05857 -0.0253465 0)
(1.06594 -0.0347021 0)
(0.810738 0.00266649 0)
(0.981436 0.022575 0)
(1.17102 -0.0952239 0)
(0.929373 -0.00121621 0)
(0.828086 -0.00174754 0)
(0.866765 -0.00355333 0)
(0.808439 0.000748179 0)
(0.834171 0.0275452 0)
(0.890523 0.03687 0)
(0.90826 -0.0213298 0)
(0.855891 0.00156803 0)
(1.01816 -0.0185176 0)
(0.836213 0.0256535 0)
(0.934288 0.0227957 0)
(0.96882 -0.0387204 0)
(0.932888 0.0221097 0)
(1.08982 -0.0429847 0)
(0.84539 0.000718686 0)
(0.788335 -0.000584078 0)
(0.841936 -0.0105191 0)
(0.926475 0.0251792 0)
(0.836383 0.0276361 0)
(0.82624 0.000720864 0)
(0.812278 0.00276604 0)
(0.874782 0.0180241 0)
(0.85702 5.66692e-05 0)
(0.931583 0.0218553 0)
(0.932225 0.0228767 0)
(0.918197 -0.0267146 0)
(0.974893 0.00195039 0)
(0.972761 0.00329129 0)
(0.813199 0.00343204 0)
(1.06061 -0.0207015 0)
(0.816342 0.00059739 0)
(0.807747 0.00278956 0)
(0.930588 0.02241 0)
(1.0046 -0.00218077 0)
(0.836512 0.0302586 0)
(0.771376 0.0195351 0)
(0.837129 0.0313499 0)
(0.836534 0.029251 0)
(0.979213 0.0238523 0)
(0.972445 0.0266802 0)
(0.810454 0.00250229 0)
(0.928876 0.0222131 0)
(1.08293 -0.0461045 0)
(1.03719 -0.012437 0)
(0.831125 -0.000856722 0)
(1.02752 -0.0135759 0)
(1.06477 -0.001204 0)
(0.832987 -0.000821173 0)
(0.836259 0.0285847 0)
(1.03498 -0.0122071 0)
(1.00665 -0.0174316 0)
(0.836958 0.0273448 0)
(1.06494 -0.00199939 0)
(0.842739 -0.0381661 0)
(0.831654 0.026551 0)
(0.925419 0.0112102 0)
(0.914792 0.0209008 0)
(0.914515 0.0212777 0)
(1.0381 -0.0209081 0)
(0.854631 8.22681e-05 0)
(0.846225 -0.0349591 0)
(0.864007 -0.0333428 0)
(0.824545 -0.0502537 0)
(0.964698 -0.0297025 0)
(0.846378 0.00124838 0)
(1.02051 -0.0114977 0)
(0.844214 0.0198814 0)
(1.08735 -0.0442637 0)
(0.823953 0.0686161 0)
(0.821684 0.000183194 0)
(0.821535 0.000556125 0)
(0.838624 -0.00110353 0)
(0.941784 0.0160391 0)
(0.940557 0.0163037 0)
(0.861868 0.023524 0)
(0.833443 0.0317057 0)
(0.864849 -0.00214377 0)
(1.03752 -0.00300975 0)
(0.948354 0.0144889 0)
(0.907336 -0.02697 0)
(0.833245 0.0321133 0)
(0.947783 0.0147766 0)
(1.03955 -0.00197578 0)
(1.03248 -0.0123763 0)
(1.03298 -0.0118471 0)
(0.853289 0.00665577 0)
(1.02337 -0.0177619 0)
(1.01371 -0.0126728 0)
(1.08783 -0.054471 0)
(1.02619 -0.0193214 0)
(1.08532 -0.0474822 0)
(0.966987 0.00928204 0)
(0.846275 0.0013626 0)
(0.846711 0.00143283 0)
(0.966628 0.00932488 0)
(0.832014 -0.000399499 0)
(0.844655 0.00151563 0)
(1.00898 -0.0188368 0)
(1.02284 -0.0216319 0)
(0.845475 0.00137237 0)
(1.07187 -0.00193002 0)
(1.0651 -0.0345894 0)
(1.0054 -0.0139798 0)
(1.07174 -0.0328173 0)
(1.07095 -0.0300624 0)
(1.07298 -0.00214508 0)
(1.07806 -0.0375037 0)
(1.07137 -0.0388752 0)
(1.09128 -0.0500131 0)
(1.09037 -0.0482316 0)
(0.882291 0.00396689 0)
(0.818482 0.0192124 0)
(0.690632 0.0154156 0)
(0.817862 0.0192384 0)
(0.881753 0.00396609 0)
(1.0329 -0.011673 0)
(1.06538 -0.0315178 0)
(1.07262 -0.0364118 0)
(0.815844 0.00590677 0)
(0.846146 0.000831664 0)
(1.01297 -0.0117457 0)
(0.815776 0.000791772 0)
(1.01865 -0.0121928 0)
(1.01191 -0.0114327 0)
(0.839738 0.0317373 0)
(0.840531 0.0328559 0)
(1.25089 -0.0117242 0)
(0.838756 0.0305224 0)
(0.822829 -0.0038818 0)
(0.838193 0.0295371 0)
(0.809181 0.00224686 0)
(1.02131 -0.0208808 0)
(1.01274 -0.0109553 0)
(0.663084 0.0093329 0)
(0.867726 -0.0348245 0)
(0.809904 0.00247091 0)
(1.04695 0.000456451 0)
(0.86474 0.00539832 0)
(1.01476 -0.0052609 0)
(1.01504 -0.00542756 0)
(1.04625 -0.000241178 0)
(0.833863 0.026497 0)
(1.01665 -0.00783212 0)
(1.02609 -0.00899502 0)
(1.01798 -0.00817396 0)
(0.806608 0.000488194 0)
(0.805325 0.000380238 0)
(0.803885 0.000407068 0)
(0.811174 0.000935501 0)
(1.02659 -0.00899715 0)
(1.01032 -0.0123312 0)
(0.83734 -0.000487268 0)
(0.987879 0.0185557 0)
(0.838055 0.0277037 0)
(1.07899 -0.038852 0)
(0.838338 -0.000534692 0)
(1.07091 -0.0374044 0)
(0.95879 0.0033398 0)
(0.940204 -0.0157096 0)
(0.815197 0.0058793 0)
(1.07846 -0.00220962 0)
(1.07938 -0.00149228 0)
(1.07468 -0.0354335 0)
(0.794281 0.0675856 0)
(0.861425 0.0234547 0)
(1.07432 -0.0363381 0)
(0.74035 -0.0269086 0)
(0.727635 0.0142226 0)
(1.07534 -0.0354263 0)
(0.855425 0.022391 0)
(0.85519 0.0222591 0)
(1.03729 -0.0123612 0)
(0.835035 -0.00625828 0)
(0.816807 0.00619173 0)
(0.816198 0.00625327 0)
(1.01766 -0.0120496 0)
(1.14063 -0.0905488 0)
(1.14933 0.00936116 0)
(1.0252 -0.0120695 0)
(0.854735 -8.71601e-05 0)
(0.849048 0.0206654 0)
(0.817544 0.000294061 0)
(0.848611 0.02048 0)
(0.856664 5.42162e-06 0)
(0.844179 0.0189201 0)
(0.743115 0.0504827 0)
(0.84366 0.0187523 0)
(0.929656 -0.00555786 0)
(1.07552 -0.035436 0)
(1.09079 -0.0430693 0)
(0.847875 0.020658 0)
(0.909146 -0.0201528 0)
(0.823892 -0.0205546 0)
(0.850338 -0.031422 0)
(1.06152 -0.0258039 0)
(0.736281 0.0220641 0)
(0.952268 0.00195815 0)
(0.813393 -0.0405949 0)
(0.901038 0.0229887 0)
(0.895581 0.0240655 0)
(0.889441 0.0238219 0)
(0.904901 0.0228512 0)
(0.899069 0.0233222 0)
(0.834308 -0.000534848 0)
(1.13157 0.0188606 0)
(0.895149 0.024115 0)
(0.885997 0.0245684 0)
(0.904925 0.0230888 0)
(1.03312 -0.0118687 0)
(0.888293 0.0240565 0)
(0.923694 0.0209534 0)
(0.912644 0.0219543 0)
(0.884919 0.0245836 0)
(0.859657 0.000101641 0)
(0.879106 0.0243794 0)
(0.910882 0.0221611 0)
(0.878495 0.0246113 0)
(0.846503 0.00337315 0)
(0.919719 0.0201393 0)
(0.865775 0.0599222 0)
(0.875994 0.0245315 0)
(0.874483 0.0245904 0)
(0.917217 0.0208084 0)
(0.869846 0.0243666 0)
(0.869688 0.0270737 0)
(0.924003 0.0196301 0)
(0.869444 0.024489 0)
(0.846856 0.00110875 0)
(0.866431 0.0238517 0)
(0.924394 0.0198574 0)
(0.810663 0.00118315 0)
(0.931291 0.0186501 0)
(0.864678 0.0238814 0)
(0.955222 -0.00220043 0)
(0.81911 0.00162381 0)
(0.893774 -0.00333544 0)
(0.929626 0.018935 0)
(0.846245 0.0032002 0)
(0.841812 0.000194681 0)
(0.845116 0.00250766 0)
(0.934882 0.0177313 0)
(0.925041 0.0260978 0)
(0.844273 0.00152926 0)
(0.844756 0.00244557 0)
(0.841144 0.000123082 0)
(0.934178 0.017973 0)
(0.895395 -0.00326294 0)
(0.840937 -0.0293964 0)
(0.944515 0.0157626 0)
(0.810766 0.0028306 0)
(1.02016 -0.000343652 0)
(0.943561 0.0159392 0)
(0.952785 0.0133233 0)
(0.951206 0.0137657 0)
(1.07659 -0.0361377 0)
(0.956464 0.0126185 0)
(0.956785 0.0127545 0)
(0.964461 0.0104022 0)
(0.8077 0.00056446 0)
(0.962579 0.00105058 0)
(0.962758 0.0107968 0)
(0.813281 0.00194251 0)
(0.971731 0.00804894 0)
(0.967462 -0.00864056 0)
(0.813317 0.00192146 0)
(0.864443 0.00514413 0)
(0.969871 0.00878835 0)
(1.05578 -0.0199972 0)
(0.836005 -0.0100686 0)
(0.976409 0.00690674 0)
(0.975543 0.0069474 0)
(0.982097 0.00466418 0)
(1.0522 -0.00131907 0)
(0.981498 0.00532105 0)
(0.872964 -0.0248542 0)
(0.987503 0.00357503 0)
(0.808323 0.000744115 0)
(1.00586 -0.00305466 0)
(1.05405 -0.000792433 0)
(0.986443 0.00344675 0)
(0.983304 0.020729 0)
(0.995119 0.0164043 0)
(1.02126 -0.0163308 0)
(0.993085 0.00119898 0)
(1.00779 -0.00396038 0)
(1.00707 -0.00393236 0)
(0.992993 -4.01945e-05 0)
(0.992425 0.00192909 0)
(0.997583 -0.000197798 0)
(0.996941 -0.000253687 0)
(0.932164 -0.00247109 0)
(0.869545 -0.0162032 0)
(0.819479 -0.0562392 0)
(0.810079 0.00229909 0)
(0.873473 -0.0267416 0)
(0.811752 0.00335228 0)
(0.928693 -0.0218435 0)
(0.837175 -0.0218819 0)
(0.868885 -0.0222499 0)
(0.926001 0.00123447 0)
(0.759701 0.0530138 0)
(0.908101 -0.0236141 0)
(0.826623 0.00797734 0)
(1.03106 -0.0257319 0)
(0.913278 -0.00403476 0)
(0.951 0.036709 0)
(0.947025 0.038647 0)
(0.810081 0.00238285 0)
(0.979576 -0.00762538 0)
(0.929079 0.019869 0)
(0.925222 0.0208026 0)
(0.850597 0.00224059 0)
(1.16062 0.00203749 0)
(0.933376 0.0191627 0)
(0.927459 0.020402 0)
(0.931878 0.0195121 0)
(0.930517 0.0262075 0)
(1.13447 -0.0801264 0)
(1.07431 -0.0340777 0)
(1.00886 -0.0130944 0)
(1.03269 -0.0128885 0)
(0.81137 0.0025958 0)
(1.01976 -0.00563095 0)
(1.0675 -0.0325997 0)
(1.08732 -0.044175 0)
(0.991559 0.0180306 0)
(0.825849 -0.000545934 0)
(0.902512 0.0250132 0)
(0.92984 0.0265747 0)
(1.11331 -0.0706236 0)
(0.836671 -0.00114903 0)
(0.908124 -0.00126499 0)
(1.08357 -0.0380355 0)
(1.01064 0.00517872 0)
(0.908448 -0.00214233 0)
(0.874335 0.00358256 0)
(0.865328 0.0261419 0)
(0.815223 0.00100825 0)
(1.04199 -0.0121538 0)
(0.991926 0.0172177 0)
(0.834869 0.00586387 0)
(0.934835 0.0190114 0)
(0.984901 0.0208142 0)
(0.982918 0.0226722 0)
(0.966899 -0.0278807 0)
(1.05584 -0.00192258 0)
(1.00889 0.00603656 0)
(1.05583 -0.0015982 0)
(1.00584 -0.00311527 0)
(0.844717 -0.0257219 0)
(1.12867 -0.068402 0)
(1.06608 -0.0360927 0)
(0.963804 -0.022098 0)
(1.01776 0.000411166 0)
(0.925673 0.0204215 0)
(1.00362 -0.00182587 0)
(0.813998 0.00206693 0)
(0.92592 0.0206708 0)
(0.885499 0.0267165 0)
(1.03836 -0.0104727 0)
(0.998527 0.0111193 0)
(0.809886 0.00135105 0)
(0.813581 0.00222152 0)
(0.878954 0.00874133 0)
(1.02143 -0.0150672 0)
(0.834533 0.0318433 0)
(0.803667 0.00055431 0)
(0.882194 0.00872654 0)
(0.908192 -0.0219637 0)
(0.997699 0.0121613 0)
(1.08516 -0.0482213 0)
(0.830334 -0.000870257 0)
(0.84348 -0.0119887 0)
(0.883891 0.00873336 0)
(1.03262 -0.0142666 0)
(1.03062 -0.0080554 0)
(0.857499 0.000910015 0)
(0.828907 -0.000480884 0)
(0.800757 -0.0643183 0)
(1.08935 -0.0476937 0)
(0.870867 0.0270356 0)
(1.09314 -0.0452513 0)
(1.00988 -0.0103248 0)
(1.00924 -0.00988245 0)
(0.76768 0.00568024 0)
(0.925163 0.0209706 0)
(1.02182 -0.0120347 0)
(0.835602 0.0247255 0)
(0.878533 -0.00974772 0)
(0.8866 0.0087563 0)
(0.988012 0.0165939 0)
(0.930943 -0.00114395 0)
(1.02625 -0.0234586 0)
(1.06399 -0.032469 0)
(0.872256 0.00670401 0)
(0.871293 0.00701088 0)
(1.02037 -0.00572461 0)
(0.908714 -0.00350345 0)
(1.01228 -0.0048802 0)
(1.03356 -0.0110624 0)
(1.01622 -0.0109189 0)
(1.01648 -0.0109327 0)
(0.871838 0.00717158 0)
(0.932149 -0.000420665 0)
(1.01056 -0.00435859 0)
(1.03126 -0.013201 0)
(1.02675 -0.0157527 0)
(1.08529 -0.0484759 0)
(0.986573 0.0174747 0)
(0.837127 0.0248504 0)
(1.02939 -0.00669796 0)
(1.10256 -0.0597924 0)
(1.01516 -0.00682377 0)
(1.10458 -0.0585786 0)
(1.01564 -0.00666782 0)
(0.929444 0.0265012 0)
(0.34034 0.00459132 0)
(0.861141 0.00162445 0)
(0.860479 0.00168229 0)
(1.06521 -0.0322108 0)
(1.02417 -0.00883342 0)
(0.866317 0.000956764 0)
(1.03734 -0.0195794 0)
(1.02205 -0.00846521 0)
(1.17237 -0.0182174 0)
(1.10005 0.0228136 0)
(1.07654 -0.0361493 0)
(1.04696 -0.0194703 0)
(0.849603 -0.00752517 0)
(0.991754 -7.14674e-05 0)
(0.905688 0.0254247 0)
(0.867568 0.00862816 0)
(0.866565 0.00808849 0)
(1.02638 -0.0041791 0)
(0.897543 0.026263 0)
(0.864715 0.00216412 0)
(0.859548 0.00140209 0)
(0.842424 0.0266242 0)
(1.02376 -0.0110795 0)
(0.863388 0.00173816 0)
(1.025 -0.0108088 0)
(1.12788 -0.0873603 0)
(0.715261 -0.00825527 0)
(0.903329 -0.0103023 0)
(0.812238 0.00305564 0)
(0.841118 0.026445 0)
(0.902244 -0.0117599 0)
(0.830523 -0.000776963 0)
(0.855392 0.0305838 0)
(1.021 -0.0175351 0)
(0.861923 0.0313947 0)
(0.854407 0.0304792 0)
(0.870872 0.00982506 0)
(0.974526 -0.00945027 0)
(0.860247 0.0313374 0)
(1.01075 -0.0176793 0)
(0.968905 -0.00566785 0)
(0.90759 0.02444 0)
(0.842276 0.00686865 0)
(1.15755 0.000909862 0)
(0.87074 0.0321558 0)
(0.888767 0.0270894 0)
(1.02358 -0.00266047 0)
(0.888293 -0.00599595 0)
(0.913031 0.0239666 0)
(0.86855 0.032239 0)
(0.879449 0.0320586 0)
(0.830398 0.0306355 0)
(1.00705 -0.0132253 0)
(0.812259 -0.0481699 0)
(0.828439 0.0300448 0)
(0.822246 0.0260226 0)
(1.07972 -0.034886 0)