/*--------------------------------*- C++ -*----------------------------------*\
  =========                 |
  \\      /  F ield         | OpenFOAM: The Open Source CFD Toolbox
   \\    /   O peration     | Website:  https://openfoam.org
    \\  /    A nd           | Version:  12
     \\/     M anipulation  |
\*---------------------------------------------------------------------------*/
FoamFile
{
    format      ascii;
    class       surfaceScalarField;
    location    "0.35";
    object      phi;
}
// * * * * * * * * * * * * * * * * * * * * * * * * * * * * * * * * * * * * * //

dimensions      [1 0 -1 0 0 0 0];

internalField   nonuniform List<scalar> 
33852
(
0.000251329
2.24281e-05
-0.000273757
-0.000246121
1.32441e-05
0.000232877
-0.000180517
-8.73867e-05
0.000254187
0.000304053
-0.000163969
-0.000140085
0.000304742
-3.64605e-05
-0.000262775
2.72441e-05
-0.000260681
0.000233437
0.000310893
1.39794e-05
-0.000323972
0.000304277
-9.59564e-05
-0.000208321
0.000286413
-3.50841e-05
0.000204096
3.04768e-06
-0.000161616
0.000289765
-0.000366794
7.70057e-05
0.000356428
-4.48966e-05
-4.39602e-05
0.000263285
-0.000219325
2.88401e-06
0.000238057
-0.000240941
7.161e-05
-0.00026846
0.000252057
1.2236e-05
-0.000264293
0.000264853
-1.2796e-05
-0.000278433
3.23121e-05
0.000340852
-5.1205e-05
0.000158593
0.000112308
-0.000270901
1.81749e-05
0.000225168
-0.000243343
0.000271377
-0.000276165
4.78802e-06
-1.6463e-05
0.000269907
-0.000254204
-0.000210119
1.30325e-05
0.000192459
-0.000163381
-0.00011662
0.000280001
-0.000127537
-5.69106e-05
0.000293719
3.72401e-05
0.000267037
-5.95073e-05
-0.000259664
0.000317728
-0.000173995
9.86346e-07
0.000146767
-0.000200135
-1.71226e-05
0.000142045
0.000137388
-0.000279433
0.000337599
1.87694e-05
0.000142618
0.000128347
-0.000270965
-0.000101136
0.000259729
-0.000250489
-3.78001e-06
0.000254269
0.00025624
-1.52122e-05
-0.000241028
-0.000302849
0.000139469
-0.000223824
0.000206889
0.000231645
3.32081e-05
-5.65602e-06
0.000237301
-6.25145e-06
0.000264777
-0.000232625
0.000259869
0.000361202
-7.5244e-05
-0.000276018
-0.000309093
5.51042e-05
0.000253989
0.00023619
-0.000297403
0.000273589
-0.000306321
3.27321e-05
-0.000180237
-5.49362e-05
0.000235173
0.000272133
-0.000272133
0.000148429
-0.000297473
0.000149045
-0.000199455
0.000207831
-6.79977e-06
-0.000268241
0.000237301
3.09401e-05
-0.000191443
0.000236236
-4.5148e-05
-9.16164e-05
-0.000217477
-0.000114661
-0.000252134
-0.000280169
0.000266113
1.40561e-05
0.00032466
1.18431e-05
-0.000250433
7.01963e-05
0.000117908
0.000145909
-0.000263817
1.34681e-05
-0.000267457
0.000253989
-0.000134569
0.000282997
-0.000219263
-8.37534e-05
0.000292179
-0.000274681
0.000245113
2.95681e-05
0.000237553
-0.000268437
3.08841e-05
-0.000239343
-1.94605e-05
0.000151665
0.000115565
-0.00026723
-0.000136371
-2.03553e-05
0.000252287
0.000263985
2.24281e-05
0.000275941
-2.35201e-06
0.000265329
-0.000250741
-1.45881e-05
0.000286006
-7.41448e-05
-0.000162166
-1.82001e-06
0.000239373
0.000361256
-0.00030606
-5.50569e-05
-4.02594e-05
0.000316804
-0.000282376
-0.000101584
0.000219493
0.000336038
2.56455e-05
-0.000364532
0.000348203
1.69087e-05
-0.000107271
1.7506e-05
0.000305108
-0.000316048
1.11902e-05
-0.000198526
0.000259936
-6.15952e-05
-4.45202e-06
1.7102e-05
-0.000318884
0.000301819
0.000223964
-0.000191009
-3.40268e-05
0.000264517
-0.000334678
6.94454e-05
0.000326679
-6.29005e-05
-0.000268941
0.000236573
3.23681e-05
-0.000129389
-0.000132609
0.000261997
-1.86761e-05
-0.000249565
-1.022e-05
-0.000258721
1.60554e-05
0.000222285
-0.000246668
3.48942e-05
-0.000208585
0.00023323
-2.49302e-05
0.000324126
-0.000298925
-0.000279329
0.000273701
5.62802e-06
0.000156129
-0.000296857
0.000140729
-5.26419e-05
-0.000116886
0.000167162
0.000143277
0.0001218
-0.000265077
-0.000190163
0.000208338
-0.000169927
0.000116275
-0.000168813
0.000327181
-0.000158369
0.000185389
7.16523e-05
-0.000257041
0.000255193
2.07481e-05
-0.000192277
0.000148317
6.63095e-05
0.000295039
0.000306908
-0.000289706
7.30097e-05
-0.000133756
0.000135241
0.000117096
-0.000281065
-1.36104e-05
0.000276131
-0.00026759
0.000166489
0.000122836
-0.000289325
0.000137916
8.56284e-05
-3.92002e-06
0.000259113
0.000299183
6.0433e-06
-0.000323905
0.000314921
8.94483e-06
-3.99002e-05
0.000236293
-0.000196393
4.08802e-06
-0.000284257
-2.54245e-05
0.000163831
-0.00011909
-0.000139863
0.000139206
0.000231969
-0.000149194
-0.000269921
0.000264965
4.95602e-06
2.64041e-05
0.000174721
-0.000201125
2.87841e-05
-0.000257265
0.000228481
0.000276137
-0.000262669
0.000115108
0.000212073
0.000220877
-0.000216576
-0.000175813
0.000202217
-2.21957e-05
0.000257405
-0.000235209
0.000296239
1.69762e-05
0.000267679
-0.000278327
1.11892e-05
3.86402e-06
0.000267513
-1.71383e-05
0.000285723
0.000330729
9.94937e-06
0.000198409
-0.000195525
0.000316115
-0.000316106
-6.63603e-06
-0.000272693
3.1957e-05
0.000267451
0.000187993
3.98722e-05
-0.000227865
-5.28288e-05
0.000182992
-0.000187957
0.000153609
-0.000270285
0.000116676
0.000279441
-0.000329701
5.02602e-05
-6.38122e-05
0.000249201
-0.000166909
0.000315897
-0.000148989
-0.00031391
-1.00316e-05
-0.000214929
0.000175029
2.78601e-05
-0.000278349
0.000276221
-1.88441e-05
-0.000248613
1.56e-05
-0.000297265
0.000281929
0.000344989
-0.000158593
-0.000186397
-1.68954e-05
-0.000241013
0.000257626
-0.000266617
-3.30401e-06
0.000224001
2.45841e-05
-0.000248585
0.000284509
-0.000128381
0.000140197
0.000138853
-0.000279049
-0.000189583
-1.04576e-05
0.000258169
-0.000115551
0.000225617
-0.000242553
-6.38122e-05
0.000251805
-0.000198699
0.000249481
-5.60002e-07
-0.000248921
0.000255109
-0.000237441
-0.000320604
0.000295839
-3.08841e-05
0.000203169
-0.000172285
0.000287179
-5.3294e-07
-0.000287028
0.000108279
0.000163791
-0.000243564
7.72934e-05
-0.000290037
-0.000284229
-3.15774e-06
0.000287472
-3.07413e-06
-0.000281284
0.000146973
-0.000273925
0.000126952
-0.000274396
0.000246278
-0.000326712
0.000289178
0.000279441
-0.000307397
-1.20204e-05
0.000319157
0.000105758
0.00015425
-4.79695e-05
0.000304209
0.000140141
0.000139833
-0.000279973
0.000245029
-0.000250349
5.32002e-06
-0.000210953
0.000180069
0.000279133
-5.43202e-06
0.000297333
-5.92762e-05
-0.000301002
0.000301329
-3.27421e-06
0.000270985
-0.000270985
-0.000364934
0.000226048
0.000138792
-0.0002918
2.84338e-05
1.61997e-05
0.000275157
-0.000278461
3.30401e-06
-4.89133e-06
0.000185912
-0.000170219
-0.000197345
0.000254801
-5.74562e-05
-0.000195806
4.42371e-06
-0.00027115
0.000220603
0.000122843
-0.000180265
0.000261437
-8.11723e-05
0.000256285
-0.000287113
3.08281e-05
-0.000249229
5.18842e-05
-2.36118e-05
0.000276011
-0.000252575
-0.000253547
1.35801e-06
0.000252189
0.000231281
-7.28003e-06
-0.000290801
1.0759e-05
0.00028034
-0.000266085
0.000266085
-0.00028098
-5.39397e-05
-0.000170734
-0.00019418
-0.000167293
0.000207464
-4.2197e-05
-1.232e-05
-0.000239177
0.000251497
3.10801e-06
0.000210113
-0.000213221
-0.000178254
-2.23326e-05
0.000201346
3.49912e-06
0.000291796
-0.000295249
-0.000236153
-1.34401e-05
0.000249593
1.50361e-05
-0.000251189
-0.000241025
0.000256061
-0.000298773
0.000302221
0.000256117
7.16803e-06
-0.000206197
-2.55828e-05
0.000120158
-0.000145237
-0.000134765
-0.000244329
0.000240549
0.000295972
-4.72799e-06
-0.000290752
-0.000296355
5.55571e-06
0.000290259
1.80348e-05
0.000181217
0.000163773
7.70003e-05
-0.000257265
-0.000159242
0.000310908
0.000250721
-0.000108677
-0.000235145
-1.83681e-05
0.000253513
-0.000136201
-0.000138713
0.000274913
-6.10402e-06
-0.000229125
0.000235229
-2.54068e-05
-0.000231174
-0.000281113
-8.32101e-05
2.84006e-06
-0.000293709
-0.000143585
0.000272077
-0.000128493
0.000281597
0.000288205
-5.16322e-05
0.000271993
-1.57081e-05
-0.000178223
-1.28921e-05
0.000191212
0.000292238
-6.92359e-06
-0.000285669
-0.000270346
-3.25863e-05
-0.000218821
0.000247605
1.73853e-05
0.000232421
-0.000249806
0.000259747
7.73091e-06
-0.000254448
-4.3679e-05
0.00021876
-0.000231116
0.000248501
0.00028966
-2.39231e-06
-0.000286711
0.000157445
0.00011886
-0.000276305
0.000283211
-1.03968e-05
-0.000275106
-0.000208535
9.09494e-05
0.000109705
-0.000249968
0.000227772
0.000302513
-0.000156857
-0.000145657
0.000207005
-0.000203897
-0.000232009
-0.000121156
-0.000155009
-4.3091e-07
-0.000291063
0.000291564
-1.0136e-05
0.000276249
0.000264875
-3.64898e-05
-0.000228479
-0.000262417
3.42565e-05
0.000228165
0.000271433
-0.000267569
0.000249621
2.95121e-05
0.000308572
-6.1352e-06
-0.000301299
4.45273e-05
0.000113063
-0.000188535
-8.7109e-05
0.000169383
-8.32854e-05
0.000252617
-2.91201e-05
-0.000223497
8.08645e-06
0.000281111
-9.95234e-05
-2.32207e-05
0.000113921
7.0288e-06
0.000271937
-9.33244e-05
0.000246933
-0.000255417
-5.26402e-06
0.000121184
0.000181329
1.34121e-05
0.000241557
-0.000254969
0.000236097
1.34961e-05
-0.000249593
0.000249509
-0.000242929
0.000256425
6.07373e-05
-0.000193539
0.000132827
-0.000206466
0.000101936
-0.000310275
0.000293276
-3.99898e-06
-0.000290579
0.000253849
2.22881e-05
0.000268493
-0.000216441
-5.20522e-05
0.000225518
-0.000246849
2.13305e-05
0.000257909
1.40841e-05
5.66205e-05
0.000293135
0.000267185
-3.89594e-05
-0.000228226
0.000166731
1.274e-05
0.000240297
-0.000253037
0.000184499
-0.000108386
-7.64235e-05
-0.000198961
2.11523e-05
5.31964e-06
-0.000294875
0.000289687
0.000215581
-0.000120798
-4.26137e-05
0.000292696
-6.75279e-05
0.000275969
-0.000135829
2.31561e-05
0.000238337
-0.000261493
-0.000231141
0.000254297
-2.65163e-05
-0.000230158
0.000256675
0.000172896
-0.000164196
-9.5329e-05
-0.000173328
-0.000261723
4.14346e-05
0.000220288
-3.17521e-05
-0.00022997
6.18467e-06
0.000261717
-3.25193e-05
-0.000229198
1.67132e-05
0.000102651
-0.000100185
0.000308785
-0.000171397
0.000262319
-3.57923e-05
-0.000226526
-0.000318878
0.000235739
-0.000126987
-0.000228453
-6.90203e-05
2.93006e-05
-0.000268127
0.000237131
-3.18472e-05
0.000269747
-0.000229183
0.000306063
3.40117e-06
0.000250097
-0.000248249
-1.84801e-06
-0.000168379
5.97873e-05
0.000260536
-3.06046e-05
-0.00022993
0.000197345
-0.000250769
5.34242e-05
0.000254205
-0.000231205
-2.29993e-05
-0.000252337
0.000240017
0.000138384
9.84897e-05
-0.000101864
-0.000170269
0.000132497
-0.000261885
-0.000290249
0.000242201
4.80482e-05
0.000216805
3.1248e-05
-0.000248053
-0.000236789
-4.12136e-06
0.00025815
0.000331244
-3.12954e-05
0.000263996
-3.42721e-05
-0.000229724
0.000129052
-0.000198179
8.82244e-05
3.63259e-05
-0.000265637
0.000229311
-0.000253905
0.000121296
0.000249817
-5.24722e-05
0.000294673
-0.000154253
-0.000140421
0.000122248
-0.000289157
1.53441e-05
0.000237665
-0.000253009
-0.000262031
3.54705e-05
0.00022656
-2.74833e-06
-3.77917e-05
-0.000224239
0.000248595
-0.000272263
-0.000264649
3.44737e-05
0.000230175
0.000193257
0.000101416
-0.000149941
0.000290137
-0.000210644
-4.88329e-05
0.00027843
-1.81721e-05
0.000263201
-0.000289443
0.000304982
0.000144943
0.000133014
0.000261325
-0.000261325
0.000277929
-4.38202e-05
-0.000234109
5.32002e-07
0.000248949
0.000254857
1.65761e-05
0.00030936
-0.000276103
-3.32179e-05
-2.26336e-05
0.000266577
-0.000243943
3.00077e-05
-0.000260519
0.000230511
-0.000252139
0.000229506
0.000323846
3.11501e-05
-0.000260598
0.000229447
0.000276809
-3.16961e-05
-6.29495e-06
-0.000295423
0.000302086
0.000270493
3.89896e-05
0.000230245
-0.000266617
3.63721e-05
0.000216661
-0.000231367
-0.000258301
0.000238533
1.97681e-05
0.000169762
-0.000257245
8.74835e-05
-0.000220733
0.000163241
-0.000249145
8.59043e-05
-0.000266169
0.000224813
4.13562e-05
0.000253073
-2.78797e-05
-0.000225194
0.00013364
3.96334e-05
-0.000234837
-2.29601e-05
0.000257797
-0.000236377
-2.28761e-05
0.000259253
-1.94265e-05
0.000255969
-0.000236542
-0.000259345
0.000239919
-2.75156e-05
0.000182125
-0.000235929
-2.24001e-05
0.000258329
-0.00025484
0.000229192
2.56481e-05
2.94001e-06
0.000211289
-0.000214229
-0.000267031
3.79849e-05
0.000229046
0.000270677
4.48002e-06
3.82418e-05
9.31422e-05
-0.000219216
-3.31241e-05
0.000249929
-1.9001e-05
0.000218597
9.73004e-05
0.000248221
-0.000216973
0.000271393
-0.000274554
0.000272818
-0.00027604
-1.84997e-05
0.000258601
-0.000240101
-0.000261644
0.000243145
2.91833e-05
-0.000198473
-2.43996e-05
-0.000210256
0.000264581
0.000315577
-0.000287671
-2.75804e-05
0.000261297
-3.11081e-05
-0.000230189
3.28739e-05
-0.000262362
0.000229488
-0.000229853
0.000259645
-2.97921e-05
0.000320292
-1.41576e-05
0.000197323
-0.00021849
0.000256929
-0.000109956
-0.000281935
0.000281138
0.000241977
-6.41202e-06
-0.000235565
0.000228537
-0.000211976
-3.56566e-05
0.00022885
2.42881e-05
-0.000231407
-0.000239989
0.000260317
-2.03281e-05
-0.000100851
0.000187617
-8.51077e-05
3.42901e-05
-0.000167047
0.000240169
-0.000263424
2.32552e-05
-0.000115584
0.000258861
-0.000243993
0.000265721
-2.17281e-05
-0.000238953
0.000232541
0.000258626
-0.000245105
-1.35213e-05
0.000264349
-2.46681e-05
-0.000246317
-0.000268721
-9.70398e-06
0.000315553
-4.88913e-05
1.85664e-05
0.000236567
-0.000257307
-0.000188951
0.000139801
0.000222088
1.49463e-05
-0.000239598
0.000328632
-0.000328705
0.000260955
-0.000245018
-1.59377e-05
-0.000297324
8.55817e-07
0.000305845
9.81286e-06
4.72948e-05
0.000268149
-0.000293722
0.00023278
-3.73797e-05
-0.000170158
0.000278054
-0.000255789
-2.22648e-05
-0.00023495
2.78598e-05
3.15421e-05
-0.000261891
0.000230348
0.000285445
-0.00029213
2.44721e-05
-0.000259617
-0.000257965
1.87881e-05
0.000266057
-1.64361e-05
0.000151173
-0.000267625
0.000116452
0.000292231
-6.08438e-07
0.000238617
-7.53763e-05
2.12521e-05
0.000177045
-0.000198297
-0.000183877
0.000205129
-0.000236275
0.000257219
-2.09441e-05
0.000261462
-3.31689e-05
-0.000228293
-0.000197009
-5.21362e-05
0.000251581
-1.48401e-06
3.85735e-06
-0.000263562
0.000277158
-0.00033866
0.000233775
0.000104823
0.000266371
-0.000236811
-2.95597e-05
0.000303093
-0.000305235
2.40241e-06
-2.57041e-05
-0.000229097
0.000254801
0.000261493
-7.64403e-06
9.8278e-06
-0.000200734
0.000262411
-3.19033e-05
-0.000230508
-6.90483e-05
-0.000260653
-0.000194685
0.000248025
-5.33402e-05
-0.000266533
0.000249985
1.65481e-05
-0.000310677
1.24015e-05
-1.88754e-05
0.000301825
-0.000276689
-0.000276221
1.65481e-05
0.000249537
-0.000162712
6.27524e-05
0.000267144
1.77338e-05
-0.000285185
-0.000309456
0.000305043
3.9484e-06
3.46641e-05
-0.000263649
0.000228985
-1.35535e-05
0.000278074
-0.000307472
1.11917e-05
-0.000176541
-7.42283e-05
-0.000246425
0.00024739
-2.16721e-05
-0.000216469
0.000238141
-0.000307811
0.000291923
1.47519e-05
-0.000146971
0.000302022
-0.000144191
-3.40594e-06
3.31521e-05
-0.000263453
0.000230301
-0.000302091
2.81243e-05
0.000204326
0.000221705
0.000279849
-0.00027958
2.81837e-07
-0.000236993
-2.20921e-05
0.000224813
-0.000202721
0.000139273
0.000143753
-0.000278517
0.000191659
-5.41852e-05
0.000297215
-4.02604e-06
0.000197068
-0.000212281
2.92853e-05
0.00022306
-0.000252345
-0.000256621
0.000140001
0.000294483
2.53951e-05
1.95059e-05
-0.000224355
-2.77845e-05
-0.000135847
-0.000133072
-0.000261969
0.000118384
0.000242873
2.56201e-05
0.000218765
-0.000224869
1.59143e-05
-0.00031338
0.000292168
-0.000230083
0.000259634
-2.95513e-05
0.000274162
-0.000278304
0.000295774
-7.36326e-05
-1.35723e-05
0.000287733
-1.87881e-05
0.000247101
-0.000228313
0.000274063
-0.000287559
-1.15759e-05
-0.000273952
0.000284998
0.000279248
-0.000263812
0.00028119
0.000226314
2.67597e-05
-0.000277013
0.000251735
2.45138e-05
0.000248728
-1.84505e-05
0.000247587
1.98461e-05
-0.000268913
0.000246057
-2.05381e-05
-0.000259401
3.02849e-05
0.000229116
0.000178305
7.64963e-05
3.04153e-05
0.000235936
-0.000267147
-0.000238141
-2.88401e-05
0.000266981
2.51441e-05
-0.000263285
0.000284117
-0.000162317
-0.000232177
0.000261129
-2.89521e-05
-0.000234697
0.000260709
-2.60121e-05
1.3466e-06
0.000278683
2.45001e-05
-0.000259197
2.38001e-05
-0.000255977
0.000274526
-0.000243467
-3.10558e-05
0.000310306
-6.07193e-06
-0.000246335
-3.09231e-05
-0.000255753
1.1816e-05
0.000243937
1.79604e-05
-0.000261182
0.000228058
-0.000245337
0.000270145
-2.48081e-05
-0.000263229
1.49801e-05
-2.59868e-05
0.000282567
-0.000257037
2.13641e-05
-0.000266701
-0.00024129
-2.11216e-05
3.32426e-05
-9.0432e-05
0.000260194
0.000269999
-0.000281838
5.05122e-05
0.000237693
0.000269252
-0.000276088
-0.000243181
-2.39401e-05
0.000267121
-0.000260894
7.34723e-06
-0.000309916
2.19435e-05
0.00027417
-0.000268717
2.55361e-05
-1.60442e-05
0.000287291
-0.000268325
0.000243545
2.47801e-05
-0.000232513
0.000210841
0.000269751
-0.000283889
-6.16002e-07
0.000260289
-0.000259673
-0.00029842
-1.19657e-05
-0.000264573
2.35481e-05
-0.000244169
-2.41557e-05
-3.43281e-05
-0.000291197
0.000291119
0.000286674
-0.000158327
0.00028545
-0.000287846
2.30161e-05
9.29426e-07
0.000259438
-0.000252516
-6.9568e-06
0.00030334
-2.35513e-05
-0.000280239
5.7714e-05
-0.000246765
-2.19521e-05
-0.000356314
0.000241823
0.000247872
-0.000260878
2.33801e-05
-0.000186039
-1.55009e-05
-0.00031018
2.62406e-05
0.000295444
-0.000147806
0.000269583
-0.000121908
0.000259841
-0.000238533
-2.13081e-05
-0.000288455
2.94001e-05
0.000222097
-0.000251497
-0.000164229
0.000218087
-0.000247171
0.000251441
-0.000238029
-1.34121e-05
-0.000263873
3.40201e-05
-2.23161e-05
-0.000269837
0.000251469
0.000230427
3.12901e-05
-3.95474e-05
0.000159252
0.000232619
-0.000260499
-1.23525e-05
2.71632e-07
0.000243704
-0.00024405
-0.00029036
-0.000237049
0.000265189
-2.81401e-05
0.000230096
3.22225e-05
-0.000268521
2.55921e-05
-0.000239905
-2.86161e-05
0.000228954
-0.000260706
-0.000279457
4.73202e-05
-0.000242005
0.000283433
-0.000255073
-0.000288287
1.71579e-05
0.000283835
2.07269e-06
0.000251575
0.000228551
-0.00026107
0.000296885
-0.0001309
-0.000165985
0.000220885
-0.000257383
0.000255143
-0.000226213
-1.76681e-05
-0.000181721
0.000325932
-0.000142512
2.49649e-05
0.000222662
-0.000247627
-0.000185274
0.000185063
-0.000273845
0.000279508
1.32557e-05
-0.000285864
-0.000302485
0.000146693
0.000155793
0.000259995
-0.000239359
-2.06361e-05
-0.000215741
0.000193649
0.000259338
5.6623e-08
0.000257293
0.000232521
2.16833e-05
-0.000218933
-8.39163e-05
3.37632e-06
0.000240969
-0.000267602
1.28163e-05
-0.000230917
-2.37161e-05
0.000254633
-0.000242295
0.000263191
-2.08965e-05
7.98295e-05
0.000130443
1.86817e-05
-0.000300675
0.000285889
0.000256565
-1.80041e-05
-0.000238561
0.000243881
-0.000254017
1.0136e-05
-0.000226745
0.000207957
0.000223131
-0.000258923
-0.000244693
4.76842e-05
1.15676e-05
-0.000137644
-0.000218519
1.57921e-05
0.000245701
0.000277796
0.00029037
0.000298183
5.25865e-06
0.000249817
-0.000220417
2.51749e-05
0.000225009
-0.000250184
-0.000243178
0.000268865
-2.56873e-05
2.28201e-05
-0.000262725
-8.91275e-05
0.000296544
9.10302e-06
2.08181e-05
0.000261675
-0.000235103
-2.65721e-05
1.53214e-05
-0.000313553
0.000307958
0.000330889
-2.78329e-05
-0.000291554
0.000249733
1.63241e-05
0.000326898
-0.000304167
-0.000227175
-0.000111292
9.63204e-06
0.000250657
-4.9129e-05
-0.00020239
0.000251519
2.20333e-05
0.000246832
-0.000241686
-2.29629e-05
0.000260737
-2.24001e-05
0.000284166
-0.000268023
2.63369e-05
2.68241e-05
-0.000257965
0.000210617
-0.000207677
2.58161e-05
-0.000262865
0.000263978
0.000121744
-0.000256173
0.000134429
-1.69249e-05
3.67015e-05
0.000126318
-0.000277439
-0.000239485
-2.85377e-05
4.14565e-05
0.000210099
-0.000154563
-0.000246691
0.000271066
-2.43747e-05
0.000209866
-0.000248826
1.98857e-05
1.70724e-05
-0.000166725
-2.90531e-05
0.000226829
-0.000257433
-2.88401e-05
0.000244245
-0.000215405
-2.16161e-05
0.000242985
-0.000221369
0.000201657
-0.000250786
-0.000273623
-0.000232905
-2.55081e-05
0.000258413
0.000241234
2.98318e-05
-0.00022785
-1.98674e-05
0.000227357
-2.18821e-05
-0.000224967
-0.000239345
6.28042e-05
0.000259004
-0.000229718
4.75106e-05
-0.000249901
-3.43393e-05
0.000257693
-0.000223354
0.000205675
-0.000240014
0.000261689
-1.1956e-05
-6.06764e-05
-0.000229572
-0.000216742
-1.43324e-05
0.000242972
0.000247109
5.3175e-05
0.000212448
-0.000265623
-0.000261213
0.000177353
-0.000231757
5.44042e-05
6.16493e-05
0.00013007
0.000259457
-0.000240915
-2.47224e-05
-0.000265385
0.000227165
3.82201e-05
-2.87813e-05
-0.000222158
0.00025094
-0.000303812
0.000264161
0.000234501
3.61761e-05
2.18821e-05
0.000234087
-0.000307217
0.000151089
0.000156129
0.000224801
-6.41235e-05
0.000254045
-0.000115192
2.56901e-05
0.000217446
-0.000243136
-0.0002832
0.000286192
9.27284e-06
0.000257377
-0.000245953
0.000208937
3.70161e-05
0.000254832
0.000267641
-1.41978e-05
-0.000246815
-2.02161e-05
-0.000263019
2.0724e-05
-0.000269215
2.24001e-05
2.79601e-05
0.000220024
-0.000247984
0.000242481
-0.000274597
1.32721e-05
0.000238318
-1.08253e-05
9.8536e-06
-0.0002434
-0.000263604
0.000127403
-0.000233135
-2.62109e-05
-0.000252113
0.000252113
0.000259782
-0.000144217
-1.87314e-05
-0.000277947
0.000296686
0.000285726
0.000258749
-0.000135913
0.000224113
2.39205e-05
0.00023468
7.65143e-05
-0.000336944
3.6284e-05
0.000258962
1.76373e-05
-0.000248843
-3.00917e-05
0.000207453
-3.01001e-05
0.000259701
2.95429e-05
0.000218353
-0.000247896
-3.05014e-05
-4.09782e-05
-0.000217818
0.000258797
-0.000233423
-2.14173e-05
4.77452e-05
-0.00024187
0.000224758
-3.30877e-05
0.000221671
-0.000255943
-0.000281769
-8.30526e-06
0.000290289
-0.000229449
9.51545e-05
0.000166349
8.16763e-05
1.27863e-05
-0.000294333
0.000235075
2.59446e-05
-0.000261019
-0.000190983
-1.20777e-06
0.000232743
-0.000264287
3.15449e-05
-8.42803e-06
-0.000217029
0.000225457
-0.000192407
0.000284929
-0.000249985
-3.46025e-05
0.000256274
0.000218076
-0.000252679
-0.000246289
0.000272245
-2.59561e-05
0.000253547
2.78321e-05
-0.000232062
-2.95821e-05
-0.000312783
0.000329426
-1.80185e-05
2.24232e-05
0.000212462
-0.000250254
-0.000267233
2.09441e-05
-2.12801e-05
-0.000245953
-3.61481e-05
0.00024861
-0.000290418
-1.37115e-05
0.00022082
-0.000256968
0.000246538
-0.000246659
1.73176e-06
2.80002e-06
0.000181413
-0.000184213
0.000255294
0.000234529
2.67681e-05
-2.62361e-05
0.000245001
-0.000218765
3.36001e-05
0.000216609
-0.000250209
0.000244861
2.73841e-05
0.000306545
-0.000143949
-0.000162597
1.09008e-05
0.000242524
-0.000267874
0.000271013
-0.000113568
0.000225569
-0.000256677
-0.000241173
0.00010508
-0.000265469
7.16803e-06
-0.000241635
-2.75801e-05
-0.000241361
-2.48081e-05
0.000256626
7.80889e-07
-7.67483e-05
0.000243097
-1.1452e-05
-0.000215601
0.000224281
-8.68003e-06
0.000255193
-7.68883e-05
2.81311e-05
-0.000188824
8.46559e-05
-0.000265245
-1.40001e-07
-4.14962e-05
3.7685e-05
0.000156399
-0.000156026
0.000115572
-0.000181719
0.000257041
-7.05603e-06
0.000251151
-0.000218277
-1.4631e-05
-2.1128e-05
0.000277911
-9.27507e-05
-0.000181004
-1.42801e-05
-0.000191913
0.000206193
0.000258665
-1.53553e-05
-0.00024331
1.98101e-05
0.000238855
-0.000295362
-1.43069e-05
3.59021e-05
-0.00021544
0.000141078
1.36921e-05
0.000247997
-0.000181374
0.000181335
-1.95189e-05
0.000248711
2.88251e-05
0.000213194
-0.000243622
-4.17202e-06
-2.49389e-05
0.000265108
-0.000231955
-3.14693e-05
0.000297151
-0.000281893
-1.52946e-05
1.63717e-05
-0.000237659
0.000221288
-0.00010514
0.000226885
1.49038e-05
-0.000297498
0.000282504
2.52001e-05
-2.79441e-05
2.69165e-05
0.000301299
-0.000286255
0.000238891
1.97345e-05
2.15601e-06
0.000231617
-0.000233773
-0.000302894
2.16752e-05
0.000283121
-0.000162177
-0.000144145
0.000209178
-0.000250156
-0.00023113
0.000241924
1.90317e-05
0.000265334
-4.13534e-05
0.000250531
0.000214498
-0.000255851
0.000318563
-0.000318832
-1.60529e-05
0.000294866
-0.000289264
-0.000315934
2.21644e-05
0.000289562
4.20842e-05
-0.000286413
-4.37489e-05
0.000252483
2.62921e-05
-2.22806e-05
0.000314009
-0.000297458
2.43321e-05
2.8895e-05
7.2543e-05
-0.000149926
0.000249294
-0.000219751
2.83277e-05
-0.000261633
4.36802e-06
-1.54291e-05
0.000299497
-0.000285145
-0.000250987
-0.000266673
3.07441e-05
0.000252141
-0.000236741
-1.54001e-05
1.2264e-05
0.000239877
-0.000272666
-1.62707e-05
0.000255697
2.23721e-05
0.000255557
-1.19253e-05
0.000298822
-0.000286802
-4.68186e-05
0.000247437
-0.000235621
0.000257601
-1.99361e-05
0.000111316
8.1646e-05
-0.000142515
0.000290278
3.03493e-05
0.000226759
-0.000258662
3.71393e-05
0.000271193
-0.000288153
2.09585e-05
0.000251273
-0.000239093
-1.31321e-05
0.000252225
-2.91201e-05
-0.000257265
2.56481e-05
0.000231617
-0.000228005
-2.92601e-05
0.000259765
-0.000233571
-2.61941e-05
0.000258721
-0.000267376
5.89189e-06
0.00028408
9.52089e-07
-0.00028577
0.000250628
-0.000253677
-1.85921e-05
0.00027243
-0.000231303
-4.11266e-05
0.000342214
-0.000131635
-0.000266897
2.56761e-05
0.000241221
-3.48881e-05
-0.000232009
-0.000266393
2.51161e-05
0.000241277
-1.74982e-05
-0.000275613
0.000282066
-3.45241e-05
-0.000231869
-0.000259401
2.93189e-05
-0.000266281
2.43881e-05
0.000241893
-0.000282994
-2.09949e-05
-0.000329017
3.21007e-05
0.000291959
-3.34041e-05
-0.000232877
-0.000261144
-0.000258133
2.94001e-05
0.000228733
0.000303864
-0.000304979
-0.000195805
0.000209049
-3.29281e-05
-0.000225205
0.000196625
-0.000274713
7.8019e-05
0.000300933
2.57392e-05
-0.000301953
1.76961e-05
0.000285962
-0.000280765
-4.74939e-06
-0.000257125
0.000231617
2.55081e-05
0.000112948
2.42332e-05
-0.00015317
-0.000266953
2.81681e-05
0.000238785
-0.000227361
-2.97641e-05
-3.67361e-05
-0.000230217
0.000262267
0.000302972
1.79284e-05
-0.000287753
-3.43558e-05
0.00030929
-0.000258679
-1.07248e-05
0.000297862
-0.000287432
1.11456e-05
-0.000298002
0.000286887
-0.000230609
-0.000301953
0.00028467
0.000263005
-2.92947e-05
-0.000299518
1.36081e-05
8.3096e-05
0.000251659
1.3497e-05
-0.000253846
-0.00023448
0.000205531
0.000236738
1.31517e-05
-0.00024989
-0.00025833
2.66093e-05
0.000231721
-1.09228e-05
0.000247661
5.74002e-06
0.000246877
-3.19817e-05
-0.000226348
0.00029254
-0.000282175
-1.04146e-05
0.000228024
-0.000226666
0.000287379
0.000237685
1.98521e-05
-0.000257537
-1.24236e-05
0.000250108
0.000246636
1.50389e-05
-0.000304142
1.36061e-05
0.00024448
2.18905e-05
2.61311e-05
-0.000150618
-0.000285561
-1.34952e-05
-0.000182869
0.000295177
-0.000183218
0.000141801
-4.42289e-05
3.02784e-05
-0.000228492
0.000184722
-0.000193673
0.000259149
-0.000239236
-1.99137e-05
0.000262105
-0.00029144
-0.000240139
0.000253685
-9.43835e-06
0.000252198
-0.000260738
0.00030361
-0.000292716
0.000242117
1.77241e-05
-0.000224975
0.00024443
-1.94545e-05
1.61001e-05
-0.000241075
-7.00003e-06
0.000260989
-0.000290532
4.71265e-07
0.000289889
-0.000174497
0.000160217
-1.74105e-05
-2.0442e-06
-0.000288379
-1.29748e-05
-0.000283798
4.28402e-06
-0.000320868
0.000136531
-0.000257789
2.37889e-05
0.000234
0.000238197
1.32441e-05
-3.06013e-05
-0.000227187
-3.29903e-05
-0.000286576
1.80225e-05
-0.000214649
0.000205133
0.000254969
-0.000233465
-2.15041e-05
-0.00018583
0.000205605
-0.000177593
-7.45811e-06
0.000194703
0.000134947
0.000140218
2.60607e-06
0.000266628
0.000298371
-0.000325062
2.90582e-08
0.000253757
1.65468e-05
0.00022925
-0.000247571
-0.000294204
0.000284357
1.03498e-05
-0.000258301
0.000230077
2.82241e-05
-2.64041e-05
-0.000231897
0.000296034
-0.000295882
0.000267701
-3.32286e-06
0.000263134
-0.000263288
0.000286375
-3.33212e-07
-0.000256873
0.000256873
-0.000284972
0.000311428
-7.62412e-05
-3.76827e-05
-6.94711e-06
0.000294944
-0.000287348
-0.000297869
0.00029071
0.000291333
-0.000278534
0.000288752
-0.000303685
1.40554e-05
3.06307e-05
-0.000248606
0.000210792
1.9363e-05
-1.09049e-05
-0.00024101
0.000241656
-1.44188e-05
0.000298334
-0.000284122
0.000263481
-1.96001e-05
0.000254224
-0.000235464
-1.87601e-05
-3.42336e-05
-0.000286989
0.000310476
1.24199e-05
-0.000292566
0.000279684
-1.45881e-05
0.000233465
-0.000218877
0.000127652
-0.000295466
0.000283314
-1.49048e-05
0.000297155
-0.000281958
0.00025102
-2.03436e-05
0.000287944
-0.00026732
-0.000286555
0.00026608
1.07156e-05
0.000244749
-0.000255465
0.000301849
-0.000305257
2.63896e-06
2.13564e-05
1.46816e-05
0.000286908
-0.000302129
6.40769e-06
0.000277489
2.34333e-06
-0.000318483
-0.000290185
0.000304588
-0.000242481
0.000243657
8.45603e-06
-0.0002264
0.000242772
-0.000285975
0.000271232
0.000304192
-0.000125615
-7.17094e-05
0.00029298
1.01164e-05
3.37277e-05
-0.000183895
0.000195952
-0.000272197
0.000257293
-0.000219535
0.00024982
0.000243411
1.92865e-05
-0.000262697
0.000236019
2.31309e-05
-0.000301253
0.000282919
0.000308249
-1.3935e-05
0.000237945
-0.000257069
1.91241e-05
-0.000222494
0.000247459
0.000294272
1.39989e-05
-0.000140219
-1.43963e-05
0.000298177
-0.000283596
-0.000136807
-0.000266415
0.000159993
0.000106423
-0.000309215
0.000295215
1.13257e-05
-0.000258699
0.000241826
1.68729e-05
-0.000111128
0.000146273
-0.000301293
0.000288824
1.36278e-05
-0.000244078
0.000186194
-9.69084e-06
0.000253101
1.62438e-05
1.35775e-05
-0.000300934
0.000286805
-0.000292881
1.8321e-06
0.000289215
-0.000249229
0.000220109
-0.000201153
-8.52603e-05
-0.000261045
0.000217225
0.00029897
-0.000286464
-0.00018382
1.72293e-05
1.01849e-05
0.000283782
-0.000294621
-8.80603e-05
0.000239233
-0.000231749
-1.91899e-05
0.000250938
-0.000202406
-1.43873e-05
-0.000282303
-0.000127751
2.05297e-05
0.000299489
-0.000286197
-1.2896e-05
-0.000194342
-0.000320432
-0.00017021
-2.22132e-05
0.000243528
0.000286959
1.26425e-05
0.000252869
5.77212e-05
-0.000281793
-0.000247213
-0.000285123
-3.55566e-05
-0.000281583
0.00031506
-0.000268628
0.000280776
-0.000105039
-3.46581e-05
0.000146421
0.000197569
1.56521e-05
-0.000213221
-1.03857e-05
-0.000282725
0.0002927
1.83597e-05
-1.97009e-05
-0.000233135
0.000252835
0.000253345
-1.71361e-05
-0.000236209
1.43999e-05
-0.00030099
0.0002859
2.03561e-05
0.000232989
0.000216385
-2.46121e-05
-0.000191773
1.56631e-05
0.000282288
-0.000298012
-0.000261538
0.000118393
-0.000298118
1.43297e-05
0.000284801
0.000155054
-3.85284e-05
-0.000232118
-1.90177e-05
0.000251136
0.000255837
-2.19801e-05
-0.000233857
-0.00025784
0.000109596
0.000234529
1.70521e-05
-0.000251581
0.000280252
1.67113e-05
0.000298698
-0.000285965
1.78879e-05
-0.000299594
0.000233512
1.84916e-05
-0.000252004
-2.26424e-05
-1.3235e-05
0.000294714
-0.000281888
-0.00028869
0.000308127
-0.000299998
0.000289698
-0.000301376
1.23435e-05
0.000249741
-1.62291e-05
1.49926e-05
0.000250041
-1.55121e-05
0.000298719
-0.000283039
3.95922e-05
-0.000235454