/*--------------------------------*- C++ -*----------------------------------*\
  =========                 |
  \\      /  F ield         | OpenFOAM: The Open Source CFD Toolbox
   \\    /   O peration     | Website:  https://openfoam.org
    \\  /    A nd           | Version:  12
     \\/     M anipulation  |
\*---------------------------------------------------------------------------*/
FoamFile
{
    format      ascii;
    class       volScalarField;
    location    "0.35";
    object      rho;
}
// * * * * * * * * * * * * * * * * * * * * * * * * * * * * * * * * * * * * * //

dimensions      [1 -3 0 0 0 0 0];

internalField   nonuniform List<scalar> 
22702
(
1.40001
1.40001
1.29667
1.40001
1.48276
1.40001
1.76266
1.40001
1.40001
0.946646
1.8389
1.76551
1.40001
1.40001
1.35508
1.40001
1.40001
1.40001
1.83978
1.40001
1.40001
1.40001
1.74721
0.93122
1.40001
1.04781
1.40001
1.74215
0.866344
0.951149
1.40001
1.76533
1.40001
1.40001
1.40001
1.40001
1.40001
1.74704
1.40001
1.40001
1.13348
1.40001
1.70657
1.40001
1.74241
1.40001
1.40001
1.40001
1.40001
0.940847
1.40001
0.942223
1.40001
1.83904
1.40001
1.76361
1.40001
1.40001
1.40001
1.40001
1.42392
1.40001
1.40001
1.07911
1.40001
0.828955
1.40001
1.40001
1.40001
1.1534
1.40001
1.74141
1.67241
1.40001
1.74148
1.75848
0.670472
1.75545
0.943056
1.40001
1.83675
0.952139
1.75223
1.74896
1.40001
1.40001
1.40001
1.40001
1.35105
1.07562
1.74954
1.40001
1.40001
0.900474
1.40001
1.40001
0.897648
1.40001
1.40001
1.40001
1.40001
1.72845
1.83747
0.796037
1.40001
1.40001
1.59733
1.40001
0.948401
1.40001
1.75574
1.83835
1.40001
1.40001
0.957377
0.964422
1.03412
1.40001
1.40001
1.40001
1.40001
1.40001
1.35623
1.40001
1.40001
1.4807
1.74572
1.40001
1.74702
1.83889
1.40001
1.83655
1.40001
1.29159
1.40001
1.04737
1.40001
1.40001
1.40001
1.40001
1.83813
1.40001
1.40001
1.40001
1.40001
1.7445
1.40001
1.4256
1.40001
1.40001
1.40001
1.40001
0.940503
1.40001
1.41019
1.40001
0.941931
1.40001
1.40001
1.40001
1.74863
1.40001
1.74355
1.12967
1.4036
1.73918
1.73978
1.40001
1.51205
1.72554
1.40001
1.75463
0.942551
1.40001
1.40001
1.40001
1.40001
1.40001
1.40001
1.74822
1.40001
1.8395
1.29841
1.75791
1.40001
1.0101
1.40001
0.945174
1.20072
1.40001
1.40001
1.40001
1.83952
1.40001
1.40001
1.7371
1.40001
1.75466
1.83976
0.972845
1.40001
1.40001
0.952101
1.73821
1.40001
1.40001
1.40001
1.73791
1.40001
0.897262
1.40001
1.40001
1.74193
1.73842
1.7547
1.40001
1.40001
1.40001
1.40001
1.40001
1.40001
1.40001
1.20906
1.752
1.73688
1.40001
1.40001
1.40001
1.40001
0.929053
1.72433
1.62637
1.40001
1.40001
1.25227
1.2243
1.40001
1.73038
1.40001
1.68819
0.871498
1.40001
1.40001
1.40001
1.40001
1.40001
1.73691
1.40001
1.4
1.39965
1.40001
1.40001
1.73208
0.931771
1.02892
1.40001
1.73092
0.637426
1.70026
1.40001
1.40001
1.40001
1.40001
1.40001
1.40001
1.40001
0.947201
1.07165
1.28977
1.73847
1.40001
1.40001
1.40001
1.40001
1.70873
1.40001
0.944352
1.40001
0.921577
0.948394
1.73186
0.823058
1.40001
1.40001
1.40001
1.40001
1.4
1.00973
0.986191
1.40001
1.40001
0.91986
1.40001
1.83887
0.790995
1.40001
1.40001
1.8365
1.21837
1.40001
1.46018
1.41749
1.73628
1.40001
0.933166
1.39998
1.40001
1.40001
1.40001
0.94286
1.40001
1.40001
1.4
1.40001
1.3804
1.61387
1.40001
0.953978
1.40001
1.40001
1.40001
1.40001
1.40001
1.40001
1.40001
1.83682
1.40001
1.8382
1.40001
1.40001
1.40001
1.19459
1.40001
1.74473
1.00838
1.40001
1.40001
1.40001
1.40001
1.83732
1.40001
1.40001
1.40001
1.7403
1.40001
1.40001
1.83675
1.83705
1.40001
1.58476
1.40001
1.40001
1.01053
1.40001
1.40001
1.40001
0.905304
1.40001
1.40001
1.40001
1.40001
0.966978
1.40001
1.40001
1.40001
1.40001
1.40001
0.872701
1.40001
1.7417
1.40001
1.40001
1.73995
1.73996
1.40001
1.40001
0.980911
1.2501
1.83953
1.40001
1.40001
1.40001
1.73824
1.16794
1.40001
1.74261
1.40001
1.40001
1.16367
1.16803
1.40001
0.959101
0.973983
1.40001
1.40001
1.40001
1.40001
1.40001
1.40001
1.40001
1.74501
1.5731
1.49172
0.917479
1.23352
1.83777
1.40001
1.74248
1.84074
1.31598
1.14062
1.40001
0.877031
1.40001
1.84769
1.40001
1.40001
1.40001
1.40001
1.73796
1.40001
1.40001
1.40001
1.40001
1.40001
1.40001
1.40001
1.54728
1.74944
1.40001
1.7331
1.40001
1.40001
0.950027
1.40001
1.40001
1.40001
1.40001
1.73682
1.66228
1.40001
1.40001
0.952103
1.73798
1.74197
1.40001
1.74334
1.73727
1.73808
1.40001
1.30373
1.40001
1.72923
1.44138
1.73662
1.40001
1.27621
1.4
1.82776
1.40001
1.40001
1.40001
1.40001
0.948682
1.7253
1.40001
1.40001
1.40001
1.73822
1.83853
1.40001
1.60863
1.40001
1.40001
1.40001
1.73559
1.40001
1.74072
1.34205
1.74143
1.40001
1.74052
1.73152
1.73942
1.73947
1.40001
1.42946
1.24565
1.2688
1.40001
1.40001
1.40001
1.40001
1.54803
1.40001
1.40001
1.40001
1.40001
1.40001
1.82496
1.40001
1.40001
1.39991
1.73915
1.40377
1.40001
1.41167
1.40001
1.40001
1.40001
1.74143
1.40001
1.39981
1.39974
1.40001
1.72912
1.40001
1.7215
1.40001
1.40001
1.6925
1.40001
1.72586
1.40001
1.40001
1.72852
1.40001
1.73583
1.40001
1.40001
1.40001
1.73676
1.40001
1.72926
1.40001
1.73683
1.79464
1.72962
1.74636
1.40001
1.83779
1.59759
1.40001
0.964871
1.75341
1.40045
1.40001
1.73695
1.40001
0.973687
1.44348
1.40001
1.40001
1.40001
1.40001
1.40001
0.868015
1.40001
1.73431
1.46393
1.74153
1.40001
1.40001
1.40001
1.40001
1.40001
1.73661
1.40001
1.62941
1.62528
1.23784
1.40001
1.40001
1.39961
1.3995
1.40001
1.40001
1.59078
1.40001
0.943641
1.73194
1.72881
1.40001
1.40001
1.40001
1.79265
1.40001
1.40001
1.40001
1.72945
1.36353
1.40001
1.40001
0.946828
1.69946
1.40001
1.40001
1.40001
1.40001
1.40001
1.7363
1.83706
1.40001
1.73052
1.72563
1.72881
1.40001
1.40001
1.40001
1.40001
0.92522
1.84058
1.40001
1.40001
1.76462
1.74259
1.40001
1.78379
1.75018
1.40001
1.40001
1.40001
1.40001
1.40001
1.72914
1.40001
1.40001
1.40001
1.40001
1.52962
1.40001
1.41704
1.11667
1.40001
0.922816
1.40001
1.40001
1.40001
1.39985
0.943962
1.4
1.40001
1.40001
1.40001
1.46441
1.40001
1.40001
1.25136
1.40001
1.40001
1.40001
1.40001
1.40001
1.40001
1.40001
1.4
1.26398
1.40001
1.40001
1.39998
1.40001
0.94695
1.40001
1.40001
1.40001
1.40001
1.74086
1.40001
1.40001
1.40001
1.40001
1.19001
1.40001
1.40001
1.70884
1.83819
1.40001
1.40001
1.40001
1.31913
1.40001
1.40001
1.40001
1.40001
1.40001
1.40001
1.31235
1.34152
1.40001
1.40001
1.40001
1.40001
1.83946
1.31819
1.40001
1.40001
1.40001
1.74723
1.73643
1.40001
1.40001
1.40001
1.40001
1.40001
1.40001
1.40001
1.40001
1.40001
1.22032
1.40001
1.40001
1.83957
0.909507
1.40001
1.83753
1.40001
0.9475
1.40001
1.40001
1.2161
1.40001
1.40001
1.40001
1.40001
1.40001
1.40001
1.40001
1.78372
1.77601
1.40001
1.40001
1.40001
1.40001
1.7222
1.40001
1.48295
0.966558
1.40001
1.40001
1.40001
1.40001
1.40001
1.40001
1.40001
1.42957
1.40001
1.40001
1.63557
1.40001
1.40001
1.40001
1.4
1.40001
1.40001
1.40001
1.40001
0.788336
1.40001
1.40001
0.852839
0.847045
1.40001
1.40001
1.73512
1.40001
1.34809
1.40001
1.40001
1.40001
1.73207
1.01033
1.40001
1.01253
1.40001
1.23951
1.40001
1.40001
1.40001
1.84154
1.40001
1.40001
1.72316
1.40001
1.40001
1.40001
1.72308
1.40001
1.40001
1.72978
1.40001
1.40001
1.29891
1.40001
1.50699
1.40001
1.40001
1.8376
1.83809
1.68804
1.7503
1.40001
1.27567
1.40001
1.40001
1.7697
1.40001
0.677652
1.40001
1.40001
1.40001
1.72554
1.40001
1.40001
1.40001
1.40001
1.60621
1.40001
1.40001
1.84512
0.93397
1.40001
1.40001
0.837932
0.986778
1.40001
1.40001
1.40001
1.6499
1.70569
1.40001
1.40001
1.40001
1.40001
1.40001
1.40001
1.40001
1.54233
1.74667
1.41449
1.40001
1.40001
1.32698
1.40001
1.40001
1.40001
1.61606
1.40001
1.40001
1.40001
1.69881
1.81395
1.40001
1.2912
1.40001
1.76051
1.40001
1.40001
1.74366
1.79804
1.40001
1.84007
1.40001
0.863486
1.40001
1.40001
1.40001
1.58185
1.76553
1.73966
1.40001
1.84228
1.7391
1.40001
1.72809
1.40001
1.8199
1.40001
0.633931
1.37965
1.1498
1.40001
1.40001
1.40001
1.40001
1.40001
1.73169
1.40001
1.73285
1.40001
1.40001
1.40001
1.71979
1.40001
0.793037
1.72707
1.40001
1.08001
1.12399
1.12046
1.40001
1.61248
1.42693
1.56903
1.73853
1.40001
1.40001
1.40001
1.40001
1.73445
1.40001
1.40001
1.73501
1.73741
1.40001
1.58545
1.40001
1.40001
1.40001
1.74677
1.16869
1.40001
1.13471
0.945658
0.943524
1.31764
1.74306
1.81083
1.44003
1.41188
1.7239
1.40001
1.40001
1.74412
1.84026
1.5674
1.83898
1.40001
1.80837
0.619893
1.84153
1.84215
1.83709
1.82225
1.3028
1.257
1.2473
1.72733
1.30461
1.84176
1.40001
1.40001
1.78519
1.78152
1.40001
0.904695
1.84159
1.72514
1.40001
1.7196
1.72131
1.40001
1.73366
1.20514
1.84153
1.74392
1.83666
1.84238
1.40001
1.40001
1.40001
1.72599
1.65695
0.923665
1.72618
0.989087
1.72826
1.40001
1.40001
1.40001
1.40001
1.84136
1.73423
1.40001
1.40001
1.73593
0.953168
1.84082
0.947929
1.40001
1.73382
1.40001
0.937398
1.73297
1.17121
1.40001
1.73473
1.73668
1.67602
1.40001
1.40001
1.40001
1.73409
0.94317
1.72753
1.40001
1.40001
1.2012
1.68024
0.949742
1.40001
1.80841
1.13534
1.81929
0.956019
1.40001
1.72342
1.40001
1.75015
1.40001
1.70729
1.76821
1.68492
0.726608
1.40001
1.77866
1.40001
1.40001
1.40001
1.73073
1.40001
1.40001
1.84085
1.39523
1.72954
0.810773
1.40001
1.40001
1.40299
1.40001
1.84244
1.72963
1.84163
1.40001
1.77622
1.79643
1.7515
1.68359
1.82955
1.40001
1.64935
1.40001
1.84246
1.40001
1.4107
1.40001
1.77122
1.40001
1.40001
1.73652
1.72898
1.40001
1.40001
1.41975
1.40001
1.18866
1.40001
1.40001
1.40001
1.7549
1.40001
1.72175
1.40001
1.40001
1.40001
1.7359
1.40001
1.40001
1.84338
1.83967
0.862311
1.84627
1.75287
1.40001
1.40001
1.72411
1.40001
1.40001
1.7552
1.76425
1.40001
1.74472
1.83936
1.84032
1.72688
1.40001
1.40001
1.40001
1.40001
0.912156
1.40001
1.73492
1.40001
1.40001
1.4567
1.40001
1.40001
1.73538
1.78808
1.40001
1.72908
1.40001
1.74329
1.40673
1.72633
1.40001
1.7263
1.70422
1.40001
1.40001
1.40001
1.40001
1.8437
1.78754
1.72796
1.33667
1.40001
1.74898
1.78759
1.73927
1.40001
1.79048
1.8422
1.70905
1.74677
1.40001
1.73196
1.39995
1.7095
1.80627
1.74534
1.40001
1.84581
1.73022
1.73949
1.84473
1.8015
1.06573
1.7439
1.81229
1.40001
1.4001
1.73789
1.44932
1.72179
1.40001
1.72514
1.40099
1.40001
1.73035
1.74853
1.40001
1.40001
1.40001
1.8331
1.84381
1.40001
1.40001
1.5933
1.40001
1.40001
1.40001
1.40001
1.72512
1.40001
1.79097
1.72945
1.40001
1.40001
1.40001
1.65491
1.40001
1.40001
1.40001
1.40001
1.74434
1.74498
1.40001
1.72827
1.16778
1.7304
1.81449
1.10189
1.40001
0.753192
1.708
1.82879
1.40001
1.40001
1.31176
1.79624
1.74274
1.29541
0.8223
1.40001
1.40001
1.76658
1.40001
1.40001
1.66365
1.40001
1.84708
1.40001
1.70039
1.40001
1.66929
1.76713
1.738
1.64899
1.40001
1.75461
1.7366
1.40001
1.40001
1.34978
1.40001
1.76856
1.74149
1.40001
1.40001
1.40001
1.84674
1.40001
1.76768
1.73588
1.21714
1.40001
1.61455
1.39995
1.40001
1.40001
1.40001
1.76701
1.74157
1.40001
1.40001
1.40001
1.40001
1.72916
1.40001
1.83867
1.84277
0.931961
1.40001
1.40001
1.75655
1.78858
1.76839
1.83464
1.40001
1.72403
1.72172
1.72679
1.40001
1.84069
1.84061
1.31122
1.72452
1.84061
1.40001
1.40001
1.2235
1.78191
1.30209
1.72577
1.40001
1.4
1.84454
1.72215
1.73206
1.4
1.73827
1.72751
1.83733
1.40001
1.39434
1.77834
1.73797
1.1517
1.71844
1.32745
1.59325
1.78218
1.74015
1.84017
1.40001
1.72814
1.58422
1.76417
1.3449
1.73089
1.84171
1.40001
1.1674
1.40001
1.40001
1.40001
1.73917
1.40001
1.40001
1.17788
1.40001
1.40001
1.78406
1.40001
1.84397
1.74058
1.78122
1.4
1.40001
1.40001
1.83249
1.40001
1.40001
1.40001
1.21212
1.73955
1.76439
1.79421
1.71658
1.84085
1.79024
1.40001
1.71903
1.30157
1.40001
1.40001
1.40001
1.84318
1.72399
1.72709
1.7218
1.40001
1.62691
1.40001
1.74433
1.78782
1.40001
1.40001
1.12706
1.71359
1.40001
1.40001
0.747076
1.71436
1.40001
1.7503
1.55885
1.75418
1.80612
1.40001
1.40001
0.688349
1.50776
1.83906
1.4
1.40001
1.40001
1.7248
1.40001
1.41061
1.40001
1.40001
1.75075
1.73368
1.40001
1.40001
1.22741
1.40001
1.40001
1.71791
1.73644
1.79217
1.40001
1.70084
1.83966
1.46286
1.40001
1.73167
1.40001
1.40001
1.82056
1.40001
1.40001
1.73292
1.70691
0.720553
0.946015
1.40001
1.39996
1.40001
1.40001
1.40188
1.52567
1.7911
1.72084
1.40001
1.73528
1.40001
1.36635
1.74344
1.39998
1.40001
1.40001
1.73982
1.40001
1.83964
1.40001
1.71664
1.40001
1.74998
1.40001
1.76643
1.47703
1.20495
1.68575
1.40001
1.84037
1.74697
1.40001
0.694722
1.39998
1.40001
1.40001
1.40001
1.7318
1.40001
1.45258
1.84599
1.40001
1.55556
1.40001
1.40001
1.84413
1.40001
1.84359
1.71147
1.39633
1.75024
1.40001
1.70891
1.40001
1.40001
1.40001
1.40001
1.72248
1.40001
1.40001
1.40001
1.40001
1.40001
1.40001
1.7401
1.39997
1.76623
1.40001
1.40001
1.4561
1.40001
1.83929
1.71882
1.84098
1.40131
1.8393
1.40001
1.40001
1.40001
1.70947
1.40001
1.40001
1.4
1.72686
1.40001
1.76466
1.35184
1.40001
1.73577
1.41361
1.69446
1.40001
1.40004
1.40001
1.70463
1.4142
1.40001
1.40001
1.40001
1.40001
1.40001
1.40001
1.71298
0.801683
1.39784
1.40001
1.72899
1.40001
1.40001
1.72512
1.40001
1.40481
0.594049
1.40002
1.39961
1.40001
1.40001
1.39835
1.40001
1.40001
1.40001
1.40001
1.40001
1.8388
1.40001
1.84318
0.947529
1.75974
1.62998
1.83993
1.51451
1.40001
1.40001
1.54243
1.70807
0.784172
0.942573
1.40001
1.80173
1.73735
1.40001
1.40001
1.40001
1.59297
1.40001
1.39988
1.40001
1.40001
1.1747
1.40001
1.40001
1.83024
1.40001
1.40001
1.71399
1.7497
1.40001
1.40001
1.40001
1.75563
1.74744
1.40001
1.40001
1.82866
1.40001
1.40001
1.77258
1.19137
1.73742
1.72207
1.40001
1.40001
1.7812
1.40001
1.40001
1.40001
1.73991
1.40001
1.40001
0.979364
1.69113
1.40001
1.40001
1.40001
1.40001
1.6163
1.68628
1.40001
1.40001
0.699511
1.40001
1.6745
1.40001
1.40001
1.40001
1.40011
1.83149
1.83909
1.40001
1.40001
1.84235
1.40001
1.71874
1.78499
1.40001
1.40001
1.57972
1.71677
1.73101
1.40001
1.40001
1.48097
1.73876
1.40001
1.40001
1.40001
1.74035
1.40001
1.40001
1.40001
1.84152
1.8459
1.73451
1.40001
1.59873
1.40001
1.1857
1.73779
1.735
1.40001
1.84146
1.40001
1.75305
1.40001
1.40001
1.74402
1.40001
1.40001
1.74158
1.40001
0.955878
1.40001
1.40519
1.40001
1.40001
1.39996
1.40001
1.40001
1.40001
1.40001
1.74056
1.14537
1.40001
1.4
1.40001
1.40001
1.83967
1.40001
1.74282
1.40001
1.40001
1.69546
1.73258
1.40001
1.40006
1.40001
1.40001
1.40001
1.40001
1.40001
1.40001
1.39999
1.69472
1.40001
1.75102
0.967385
1.4
1.40001
1.7293
1.83679
1.69644
1.53481
1.84021
1.40001
1.40001
1.39993
1.40001
1.60029
1.73438
1.72895
1.40001
1.73397
1.55052
1.40001
1.79689
1.40001
1.72623
1.7084
1.40023
1.40001
1.40001
1.72114
1.73163
1.73341
1.40001
1.72425
1.72557
1.40001
1.72854
1.40001
1.76443
1.40001
1.40001
1.40001
1.40001
1.40001
1.71757
1.76481
1.77549
1.40001
1.74077
1.40001
1.40001
1.40001
0.863521
1.40001
1.74582
1.40001
1.5574
1.82791
1.40001
1.40001
1.40001
1.40001
1.7432
1.40001
1.40001
1.76612
0.983325
1.43735
1.40001
1.74101
1.74009
1.63278
1.73886
1.73718
1.40001
1.76212
1.40001
1.40001
1.40001
1.40001
1.7591
1.74224
1.40001
1.46925
1.47982
1.78368
1.4236
1.40001
1.40001
1.45572
1.40001
1.40001
1.21966
1.70784
1.40001
1.40001
1.40001
1.40001
1.72581
1.73568
1.40001
1.73148
0.968432
1.79256
1.70169
1.40001
1.40001
1.25813
1.40001
1.40001
1.40001
1.77294
1.40001
1.40001
1.40001
1.73856
1.40001
1.70652
1.40001
1.40001
1.40001
1.40001
1.7385
1.40001
1.40001
1.52267
1.40001
1.40001
1.8398
1.40001
1.40001
1.74335
1.40001
1.40001
1.40001
1.6608
1.40001
1.64265
1.40001
1.40001
1.73102
1.40001
1.71979
1.40001
1.40001
1.54517
1.75205
1.40001
1.40001
1.40001
1.40001
1.40001
1.40001
1.05795
0.67095
1.42107
1.40001
1.46645
1.40001
1.3989
1.40001
1.7277
1.40001
1.67325
1.40001
1.7068
1.40001
1.40001
1.40001
1.71639
1.40001
1.40001
1.76495
1.40001
1.63513
1.73153
1.40001
1.40001
1.75547
1.71161
1.40001
1.40001
1.40007
0.749148
1.40001
1.73944
1.40001
1.40001
1.40001
1.40001
1.41306
1.77026
1.40001
1.40001
1.40001
0.909396
1.40001
1.69719
1.78509
1.85217
1.40001
1.40001
1.40001
1.40001
1.40001
1.84572
1.40001
1.40001
1.40001
1.75902
1.40001
1.38161
1.40001
1.40001
1.40001
1.74016
1.40001
1.40001
0.913881
1.78105
1.40001
1.74753
1.72141
1.76705
1.40001
1.40001
1.75293
1.72275
1.73534
0.968233
1.44153
1.73925
1.40001
1.40001
1.40001
1.40001
1.40001
1.73752
0.9439
1.40001
1.40001
1.73149
1.56876
1.40001
1.74598
1.40001
1.40001
1.40001
1.24137
1.40001
1.40001
1.40001
1.78272
1.40001
1.40001
1.73135
1.71833
1.40001
1.40049
1.40001
1.68065
1.40001
1.74404
0.993836
1.40001
1.40001
1.40001
1.40001
1.71506
1.40001
1.40001
1.40001
1.40001
1.51236
1.40001
1.40001
1.40001
1.40001
1.71035
1.26195
1.44726
1.74383
1.40001
1.40001
1.40001
1.40001
1.40001
1.40001
1.40001
1.83884
1.40001
1.26993
1.40001
1.40001
1.40004
1.40001
0.618719
1.40001
1.4
1.40001
1.40001
1.40001
0.804247
1.40001
1.40001
1.40001
1.40001
1.40001
0.862059
1.40001
1.84049
1.40001
1.40215
1.40001
1.40001
1.40001
1.40001
1.40001
1.40001
1.75326
1.40001
1.40001
1.40001
1.40001
1.40001
1.40001
1.40001
1.40001
1.40001
1.40001
1.40001
1.6556
1.40001
1.54176
1.73906
1.40001
1.40001
1.40001
1.268
1.40001
1.40001
1.40001
1.40001
1.40001
1.70852
1.50313
1.40001
1.40001
1.4
1.40001
1.40001
1.75214
1.40001
1.40001
1.40001
1.40001
1.40001
1.40002
1.76976
1.24955
1.40001
1.42735
1.39695
1.40001
1.40001
1.40001
1.68827
1.40001
1.40001
1.77014
1.69643
1.40001
1.40001
1.40001
1.40001
0.862301
1.40001
1.40001
1.40001
1.67706
1.40001
1.71177
1.7332
1.40001
1.77815
1.40001
1.40001
1.40001
1.65804
1.40001
1.83752
1.40001
1.40001
1.40001
1.40001
1.39643
1.40001
1.40001
1.40001
1.40001
1.40001
1.40001
1.69247
1.40001
1.40001
1.233
1.66981
1.05094
1.40001
1.74806
1.40001
1.39838
1.40001
1.72473
1.80476
1.40001
1.80736
1.24275
1.40001
1.83895
1.40004
1.40001
1.40001
0.966861
1.40001
1.40001
1.40001
1.40001
1.65523
1.40001
1.40001
1.40001
1.40001
1.40001
1.39889
1.4
1.40001
1.00133
1.40001
1.40001
1.40001
1.40001
1.40001
1.40001
1.40001
1.74439
1.4
1.84679
1.40001
1.40001
1.39898
1.40001
1.30947
1.40001
1.40001
1.40001
0.877073
1.37032
1.40001
0.972797
1.25621
1.40001
1.40001
1.72354
1.40001
1.40093
1.71434
0.984457
1.70058
1.40001
1.40001
1.40001
1.00188
1.83949
1.40001
0.977308
1.40001
1.81326
1.49459
1.40001
1.40001
1.40001
1.40001
1.40001
1.77832
1.40001
1.40001
1.40001
1.40001
1.40001
1.76227
1.40001
1.40001
1.64891
1.40001
1.76823
1.32136
1.84193
1.40304
0.985712
1.70286
1.40001
1.40001
1.40001
1.40001
0.648643
1.40001
1.03447
1.39987
1.26937
1.40001
1.41661
1.40001
1.40001
1.58577
1.40001
1.40001
1.82395
1.40001
1.56007
1.40001
1.40001
1.40001
1.73697
1.40001
0.986144
1.40001
1.4
1.40001
1.40001
1.40001
1.84294
1.40683
1.75154
1.40001
1.40001
1.40001
1.40001
1.40001
1.40001
1.40001
1.40001
1.4
1.39996
1.75039
1.76966
1.40001
0.960904
1.40001
1.40001
1.40001
1.40001
1.75229
1.40002
1.72056
1.40001
1.83367
1.74882
1.45581
1.84726
1.54322
1.84176
1.40001
1.76391
1.02474
1.40001
1.73456
1.74484
1.52352
1.77861
1.40001
1.71704
1.76184
1.40001
1.28006
1.46381
1.40001
1.73413
1.61118
1.74996
1.40001
1.40001
1.40001
0.946964
1.40001
1.77656
1.70007
1.40001
1.57588
1.40001
1.40001
1.40001
1.40001
1.55669
1.77621
1.40001
1.40001
1.40001
1.4
1.40001
1.4416
1.40001
1.67363
1.40001
1.72491
1.40001
1.40001
1.40001
1.40001
1.40001
1.40001
1.40001
1.40001
1.40001
1.40001
1.0989
1.40001
1.81286
1.02364
1.6965
1.39863
1.40001
1.40001
1.63467
1.40002
1.74677
1.70286
1.40001
1.39844
1.83733
1.27309
1.40001
1.40001
1.82883
1.37832
1.40001
1.76138
1.75136
1.73333
1.40001
1.7164
1.83921
1.40001
1.40001
1.60597
1.40001
1.40006
1.7516
1.40001
1.83735
1.41806
1.39996
1.40001
1.40001
1.76547
1.40001
0.880771
1.40001
1.75561
1.68012
1.4
1.40001
1.40001
1.7733
1.74911
1.39955
1.40001
1.69763
1.39678
1.72297
1.40007
1.40001
1.40001
1.40001
1.40001
1.58154
1.40001
1.73998
1.79721
1.67232
1.40001
1.40001
1.40416
1.40001
1.40001
1.76423
1.40001
1.40001
1.40001
1.40001
1.40001
1.40001
1.4
1.40001
1.45162
1.59921
1.40001
1.40001
1.33293
1.40001
1.4
1.21863
1.8378
1.40001
1.63036
1.39975
1.8403
1.66161
1.00358
1.63348
1.40004
1.73802
1.84426
1.40001
1.70903
1.79183
1.4
1.39841
1.74484
1.40001
0.94994
1.40001
1.40001
1.39729
1.40001
1.71967
1.40001
1.00288
1.4
1.40001
1.40001
1.65552
1.40001
1.79293
1.40001
1.83982
1.40001
1.02614
1.40001
1.40001
1.84071
1.40001
1.40001
1.40001
1.40001
1.72391
1.8351
1.40001
1.40001
1.71207
1.40001
1.0832
1.40001
1.40001
1.40001
1.84125
1.40001
1.72385
1.65258
1.40001
1.40001
1.40001
1.3999
1.40001
1.40001
1.40001
1.40001
1.40001
1.40001
1.0709
1.40001
1.40001
1.40001
1.40001
1.84142
1.40001
1.40001
0.997974
0.948664
1.40001
1.7421
1.47468
0.959761
0.934875
1.40001
1.48569
1.40001
1.78658
1.27625
1.40107
1.40001
1.40001
1.39952
1.40001
1.40001
1.40001
1.39999
1.60685
1.69651
1.40001
1.40001
1.72439
1.63901
1.40001
1.79539
1.40001
1.7491
1.62755
1.40001
1.40001
1.40001
1.40001
1.83891
1.40001
1.39996
1.40055
1.39714
1.74097
1.40001
1.40001
1.40001
1.40001
1.40001
1.40001
1.34907
1.77676
1.40005
1.40003
1.25119
1.39999
1.14048
0.858981
1.40001
1.74991
1.79805
1.74983
1.40001
1.77699
1.40001
0.961319
1.40001
1.40001
1.39999
1.26759
1.4051
1.40001
1.84217
1.40001
1.3174
1.75582
1.40001
1.40001
1.40001
1.73494
1.40001
1.7487
0.980511
1.40001
1.40001
1.63921
1.40001
1.40001
1.65905
1.40001
1.40001
1.78768
1.40001
1.40001
1.40001
1.40001
1.40001
1.40001
1.7193
1.40001
1.77087
1.4
0.905252
1.6133
1.40001
1.40001
1.40001
1.70135
1.39888
1.40001
1.40001
1.72529
1.40001
1.69951
1.40001
1.7492
0.980265
1.40001
1.39961
1.40001
1.42798
1.40004
1.40001
1.43035
1.71227
1.40001
1.40001
1.71436
1.07177
1.11272
1.40001
1.74496
1.40001
1.73278
1.40001
1.64551
1.40001
1.40001
1.4
1.67961
0.988112
1.40001
1.39821
1.40001
1.40001
1.42609
1.57883
1.7164
1.40001
1.83745
1.40001
1.40001
1.40001
1.40001
1.40001
1.40001
1.46389
1.04817
1.40001
1.40001
1.41863
1.40001
1.40001
1.40001
1.40001
1.40001
1.73191
1.40001
1.40001
1.77888
1.69874
1.53706
1.40001
1.40001
1.40001
1.19334
1.84201
1.69361
1.40001
1.40001
1.40001
1.40001
1.75301
1.40001
1.40001
1.40001
1.73926
1.40001
1.40001
1.67821
1.8491
1.38829
1.11585
1.40001
1.68425
1.84304
1.40001
1.60831
1.40001
1.40001
1.40001
0.667716
1.403
1.1213
1.40001
0.98643
0.930949
1.40001
0.870858
1.40001
1.40001
1.40001
1.64459
1.40001
1.74871
1.73768
1.40214
1.61273
1.40001
1.11338
1.25449
1.26893
1.40001
1.40001
1.79961
1.40001
1.7053
1.77079
1.23333
1.40001
1.72429
1.40001
1.79638
1.40001
1.40001
1.40001
1.41278
1.40001
1.40001
1.40001
1.77173
1.40001
1.31627
1.40001
1.7269
1.24504
1.40001
1.40001
1.70398
1.40001
1.40001
1.39973
1.40001
1.40001
1.4
1.79349
1.40001
1.7542
1.40001
1.40001
1.40104
1.40001
1.60246
1.40001
1.40001
0.894102
1.40001
1.40001
1.40001
1.4
1.40001
1.40001
1.40001
1.0963
1.40001
1.40001
1.33511
1.40082
1.40001
1.80464
1.21184
1.72591
1.22184
1.75409
1.40001
1.40001
1.40001
1.40001
1.40001
1.40001
1.40001
1.40001
1.40001
1.40001
1.40001
1.78509
1.40001
1.40018
1.83477
0.986876
1.40001
1.40001
1.40001
1.40001
1.40001
1.40001
1.4
1.40001
1.40001
0.956487
1.40001
1.40001
1.80321
1.40001
1.40001
1.56904
1.74228
0.912202
1.30339
1.18462
1.11384
1.40001
1.40001
1.33445
1.40023
1.82557
1.39695
1.40001
1.40001
1.75069
1.40001
1.40001
1.40001
1.23795
1.40001
1.55676
1.40001
1.40001
1.46101
1.7043
1.40001
0.691597
1.40001
1.40001
1.40001
1.39678
1.40001
1.40001
1.70277
1.40001
0.934965
1.40001
1.66614
0.744334
1.40001
1.21553
1.40001
1.39672
0.925554
1.40001
1.40001
1.40001
1.39632
0.86154
1.40001
0.941044
1.39967
1.58449
1.63503
1.3202
0.905566
1.40001
1.39005
1.40001
1.39939
1.40001
1.40001
1.40001
1.40001
1.36615
1.75103
1.40001
1.40001
1.40001
1.71783
1.40001
1.40001
1.40001
1.40001
1.71247
1.40001
1.40001
1.4185
1.40001
1.39862
1.23433
1.40001
1.40001
1.40001
1.40001
1.40001
1.40001
1.46455
1.40001
1.40001
1.40001
1.40001
1.40001
1.40001
1.40001
1.40001
0.957405
1.47183
1.39864
1.82959
1.72424
1.40001
1.41304
1.75062
1.40001
1.40001
1.40001
0.922157
1.74294
1.40001
1.83662
1.40001
1.68848
1.55201
0.922745
1.40001
0.765338
1.40001
1.39994
1.40001
1.03746
0.878063
1.40001
1.40001
1.40029
1.40001
1.4
0.927012
1.40001
1.40001
1.40001
1.54183
1.40001
0.991161
1.75398
1.40001
1.40001
1.40001
1.40001
1.40001
1.40001
1.40001
1.40001
1.70359
1.40001
1.40001
1.40001
1.40001
0.964121
1.40001
1.77364
1.71932
1.40001
1.68033
1.4
1.40002
1.40001
1.40001
1.78955
1.37738
1.40001
1.05789
1.4086
1.40001
1.40001
1.40001
1.40001
1.40001
1.40001
1.40001
1.40001
1.40004
1.40001
1.77784
1.40001
1.40001
1.40001
1.40001
1.40001
1.40001
1.40001
1.61734
1.40001
1.40001
1.40001
1.40001
1.73053
1.40001
1.40001
1.40001
1.40001
1.40001
1.40737
1.40001
1.39777
1.40001
1.40001
1.40001
1.40001
1.83877
1.40001
1.40001
1.74636
0.955526
1.40001
1.40001
1.40001
1.40001
1.40001
1.40001
1.76957
1.40001
1.40001
1.40001
1.84113
1.40001
1.40001
1.40001
1.7747
1.40001
1.40001
1.3997
1.40001
1.40001
1.40001
1.40001
1.40001
1.33236
1.42869
1.39622
1.39619
1.40001
1.40001
1.0213
1.84199
1.40001
1.0279
1.40001
1.40001
1.75419
0.924681
1.39941
1.70204
1.7779
1.73552
1.40001
1.40001
1.36242
1.40001
1.76739
0.931694
1.40001
1.40001
1.40001
1.40001
1.72668
0.864998
1.39738
1.40001
1.76619
1.34802
1.40001
1.40001
0.954925
1.4186
1.40001
1.40001
1.40001
1.40001
1.40001
1.40001
1.40001
1.40001
1.40001
1.40012
1.4
1.40001
1.40001
1.40001
1.40001
1.40001
1.40001
1.72511
1.40001
0.95676
1.40001
1.40001
1.40001
1.5544
1.40001
1.40001
1.40001
1.40001
1.40001
1.16057
1.40001
1.34894
1.40001
1.70997
1.40008
1.24944
1.25528
1.40001
1.40442
1.5709
1.40001
1.40001
0.772038
1.70381
1.71556
1.72866
1.40001
0.874184
0.994115
1.40001
1.7097
1.40001
1.40001
1.40001
1.40001
1.40001
1.40004
1.40001
0.954271
1.65583
1.40001
1.40001
1.26903
1.43586
1.40001
1.40001
1.40001
1.40001
0.943222
1.40001
0.981747
1.40001
1.40001
1.72739
1.40001
1.40001
0.993938
1.40001
1.74791
1.40001
1.12727
1.40001
0.952871
1.40001
1.40799
1.40001
1.75014
1.40001
1.40001
1.83969
1.40001
1.40001
1.50213
1.39676
1.40001
1.39826
1.40001
1.73677
1.40001
0.880249
1.40002
1.83955
1.39892
1.40001
1.40001
1.12153
1.40001
1.39905
1.03332
1.4
1.56533
1.40001
1.40001
1.27343
1.40001
1.40001
1.40001
1.23142
1.40001
1.40001
1.40001
1.4008
1.40001
0.926997
1.4
1.40001
1.40001
1.40001
0.942507
1.74579
1.57038
1.04236
1.40001
1.40001
1.40001
1.40001
1.40001
1.84052
1.71563
0.946511
1.39788
1.40001
1.40001
1.71589
1.40001
1.40001
1.40001
1.40001
1.75272
1.40001
1.40001
1.40001
1.73885
1.40001
1.40001
1.72089
0.647057
1.40001
1.40001
1.40001
0.955155
1.40001
1.4
1.4
1.40001
1.40001
1.40001
1.40001
1.40001
1.40001
1.40001
1.84152
1.76806
1.75147
1.74958
1.842
1.72743
1.40001
1.52492
1.40001
1.742
1.40001
1.40001
1.40001
0.677238
1.69973
1.3999
1.40001
1.40001
1.40001
1.40001
1.39857
1.40001
1.47306
1.40001
1.40001
1.40001
1.19408
1.72278
1.743
1.40001
1.78611
1.40001
1.40001
1.40001
1.84045
1.40001
1.42612
1.39747
0.851569
1.40001
1.40003
1.40001
1.40001
1.40001
1.40001
1.40001
1.69556
0.943978
1.70672
1.71109
1.39527
1.38733
1.40001
1.40001
1.40001
1.70303
1.23221
1.75175
0.948638
1.74283
1.40001
0.956526
1.40001
1.42274
1.40001
1.73505
1.14902
1.40001
1.40001
0.708338
1.40001
1.16782
1.40001
1.71678
1.40001
1.10789
1.40001
1.81069
0.890353
1.40001
0.961755
1.40001
1.74778
1.40001
1.40001
1.66554
1.40001
1.19551
1.40001
1.39964
1.18706
1.67411
1.39949
1.40001
1.30267
1.40001
1.40001
1.40001
1.40001
1.63391
1.40001
1.40001
1.40001
1.40001
1.84765
1.40001
1.40001
1.77745
1.40001
1.24982
1.40001
0.919798
1.40002
1.40001
1.40001
1.40001
1.40001
1.76111
1.66588
1.72318
1.40001
1.40001
1.74171
0.964618
0.676485
1.40001
1.40001
1.40001
1.40001
1.24647
1.40001
1.41743
1.40001
1.40001
1.75279
1.40001
1.40001
0.861009
1.85402
1.40001
0.795106
1.40001
1.40001
1.40001
1.40001
1.40001
1.40001
1.40001
1.40001
1.40001
1.40001
0.873461
1.39936
1.27825
1.40001
1.40001
1.40001
1.40001
1.84113
1.83952
1.40001
1.40001
0.995381
1.40001
1.40001
1.40001
1.40001
1.40001
1.40001
1.40001
1.74872
1.19025
1.74111
1.71139
0.913244
1.83986
1.40001
0.907685
1.45639
1.40001
1.40001
1.6962
1.34537
1.67721
1.37716
1.71187
1.39754
0.861742
1.72466
1.40001
1.40001
1.40001
1.40001
1.40001
1.83995
0.946564
1.40001
1.40003
0.959256
1.40004
1.40001
1.20331
1.13059
1.59581
1.40001
1.39847
1.74843
1.40001
1.40001
1.19722
0.978842
1.70676
1.85287
1.40001
1.67997
1.40001
1.40001
1.74423
1.40001
1.46761
1.8405
1.40001
1.40001
1.40001
1.40001
1.7196
1.40001
1.40001
1.40001
1.40001
1.40001
1.7429
1.76733
1.40001
1.71752
1.40001
1.40001
1.40001
1.40001
1.40001
0.857809
1.17814
0.666678
1.40001
1.40001
1.83941
1.40001
1.40001
1.74229
0.957193
1.40001
1.74279
1.40001
1.72698
1.08111
1.40001
1.03218
1.40001
1.40001
1.83982
1.40001
1.84069
1.71014
1.40001
0.958345
1.40001
1.40001
1.73194
0.654231
1.40001
1.40001
1.40001
1.26007
1.40001
1.40001
1.84394
1.40001
0.868088
1.7248
1.40001
1.40001
1.40001
1.40001
1.40001
1.74389
1.50342
1.40001
1.76844
1.40001
1.40001
1.40001
1.39727
1.40001
1.84302
1.52314
1.40001
1.73278
1.40001
1.84093
1.40001
1.73668
1.75073
1.40383
1.40001
1.40001
0.914558
1.76672
1.40001
1.40001
1.84024
1.66379
1.40001
1.40001
1.7573
1.40001
1.40001
1.40001
1.54216
1.40001
1.52416
1.49771
1.7032
1.40001
0.898955
1.40001
1.40001
1.40001
1.40001
1.40002
1.45502
1.40001
1.40001
1.77764
1.30425
1.39998
1.40001
1.74663
1.40001
1.40001
1.40001
1.79307
1.76549
1.23479
1.40001
1.24983
1.40001
1.43711
1.72394
1.74049
1.40001
1.40001
1.40001
1.40001
0.855765
1.40001
1.40001
1.72878
1.449
1.40001
1.40001
1.40001
1.40001
1.40001
1.40001
1.40001
1.39994
1.84078
1.40001
1.40001
1.40001
1.40001
1.40001
1.69852
1.40001
1.41543
1.40001
1.40001
1.71932
1.74347
0.988194
1.3988
1.40001
1.4
1.40001
0.952029
1.84144
1.40001
1.40001
1.40001
1.40001
1.40001
1.40001
1.40001
1.40001
1.40001
1.76723
1.84618
0.818886
1.45144
0.957957
1.40001
0.992589
1.40001
1.81596
1.49531
1.40001
1.40001
1.14865
1.40001
1.73683
1.33801
1.39647
0.882334
1.40001
1.40001
1.83779
1.40001
1.39689
0.939839
1.84111
1.84837
1.40001
1.40001
1.40001
1.40001
1.4
1.40001
1.40001
1.40001
1.40001
1.80251
1.40005
1.40001
1.40001
0.954042
1.40001
1.40001
1.84212
0.93361
1.29233
0.946181
1.75918
1.39928
1.40001
1.40001
1.31019
0.669733
1.39882
1.40001
1.40001
1.83926
1.40001
1.40001
1.40001
1.40001
1.83906
0.960651
1.40001
1.40001
1.40014
1.80141
1.4001
1.8377
1.40001
1.40001
1.40001
1.40001
1.23494
1.40001
1.12698
1.40001
1.40001
1.68809
0.923919
1.40001
1.03727
1.14699
1.40001
1.40001
1.84337
1.40001
1.40001
1.40001
1.74713
1.40001
1.40001
1.82621