/*--------------------------------*- C++ -*----------------------------------*\
  =========                 |
  \\      /  F ield         | OpenFOAM: The Open Source CFD Toolbox
   \\    /   O peration     | Website:  https://openfoam.org
    \\  /    A nd           | Version:  12
     \\/     M anipulation  |
\*---------------------------------------------------------------------------*/
FoamFile
{
    format      ascii;
    class       surfaceScalarField;
    location    "7.63";
    object      phi;
}
// * * * * * * * * * * * * * * * * * * * * * * * * * * * * * * * * * * * * * //

dimensions      [1 0 -1 0 0 0 0];

internalField   nonuniform List<scalar> 
33852
(
0.000251329
2.24281e-05
-0.000273757
-0.000246121
1.32441e-05
0.000232877
-0.000174542
-7.0903e-05
0.000245836
0.000304053
-0.000163969
-0.000140085
0.000291727
-4.29958e-05
-0.000249905
2.72441e-05
-0.000260681
0.000233437
0.000316021
1.47354e-05
-0.000329384
0.000304277
-9.59564e-05
-0.000208321
0.000286413
-3.50841e-05
0.000196823
1.8911e-06
-0.000198697
0.00028978
-0.000366599
7.70668e-05
0.000362659
-4.59282e-05
-4.39602e-05
0.000263285
-0.000219325
-4.3946e-05
0.000318113
-0.000274155
6.07661e-05
-0.000235665
0.000252057
1.2236e-05
-0.000264293
0.000264853
-1.2796e-05
-0.000278433
3.23121e-05
0.000340993
-5.12245e-05
0.000158593
0.000112308
-0.000270901
-2.43221e-05
0.000303262
-0.000278847
0.000271377
-0.000276165
4.78802e-06
-1.76689e-05
0.000274295
-0.000256655
-0.000225309
1.48699e-05
0.000210226
-0.000154467
-0.00018368
0.0003381
-0.000148441
-7.08637e-05
0.000217034
3.72401e-05
0.000267037
-6.10993e-05
-0.000262563
0.000325495
-0.000206818
1.65544e-06
0.000204812
-0.000205425
-1.91818e-05
0.000142045
0.000137388
-0.000279433
0.000343174
1.95228e-05
0.000142618
0.000128347
-0.000270965
-0.000101136
0.000259729
-0.000250489
-3.78001e-06
0.000254269
0.000330677
-5.95517e-05
-0.000271164
-0.000357096
0.000203746
-0.000226802
0.000209126
0.000231645
3.32081e-05
-5.65602e-06
0.000237301
-8.06224e-06
0.000209801
-0.000232625
0.000259869
0.000315703
-5.68357e-05
-0.000258167
-0.000309093
5.51042e-05
0.000253989
0.000240758
-0.000300116
0.000273589
-0.000306321
3.27321e-05
-0.000180237
-5.49362e-05
0.000235173
0.000272133
-0.000272133
0.000148429
-0.000297473
0.000149045
-0.000208618
0.00021766
-7.49906e-06
-0.000268241
0.000237301
3.09401e-05
-0.00020015
0.000247455
-4.72868e-05
-9.16164e-05
-0.000217477
-0.000114338
-0.000251879
-0.000280169
0.000266113
1.40561e-05
0.000330053
1.18824e-05
-0.000250433
7.01963e-05
0.000117908
0.000145909
-0.000263817
1.34681e-05
-0.000267457
0.000253989
-0.000134569
0.000282997
-0.000153495
-5.09477e-05
0.000204107
-0.000274681
0.000245113
2.95681e-05
0.000237553
-0.000268437
3.08841e-05
-0.000186264
-2.33283e-05
0.000151665
0.000115565
-0.00026723
-0.000188568
-2.78307e-05
0.000220678
0.000263985
2.24281e-05
0.000275941
-2.35201e-06
0.000265329
-0.000250741
-1.45881e-05
0.000223102
-6.3356e-05
-0.000160051
-1.82001e-06
0.000239373
0.000367423
-0.000313408
-5.39315e-05
-2.83761e-05
0.000304019
-0.000275563
-0.000101584
0.000219493
0.000342828
2.41979e-05
-0.000373219
0.000353756
1.82929e-05
-0.000208763
2.19445e-05
0.000310076
-0.00032184
1.23892e-05
-0.000208658
0.000273809
-6.40939e-05
-4.45202e-06
1.71164e-05
-0.00031913
0.000302155
0.000235374
-0.00019794
-3.52182e-05
0.000268898
-0.000339485
6.99766e-05
0.000332199
-6.33682e-05
-0.000268941
0.000236573
3.23681e-05
-0.000129388
-0.000132609
0.000261997
-1.86761e-05
-0.000249565
-1.022e-05
-0.000258721
2.33413e-05
0.000210103
-0.000233063
3.10339e-05
-0.00021874
0.000188219
-2.50069e-05
0.000326533
-0.000302779
-0.000279329
0.000273701
5.62802e-06
0.000156129
-0.000296857
0.000140729
-6.05661e-05
-0.000153771
0.000209973
0.000143277
0.0001218
-0.000265077
-0.000250088
0.000225755
-0.000217325
0.000154778
-0.000168813
0.000327181
-0.000158369
0.000185389
7.16523e-05
-0.000257041
0.000255193
2.07481e-05
-0.000192277
0.000148317
5.04028e-05
0.000266256
0.00030699
-0.000289826
9.31105e-05
-0.000241477
0.000135241
0.000117096
-0.000281065
-1.37928e-06
0.000244308
-0.000244023
0.000166489
0.000122836
-0.000289325
0.000145108
9.08358e-05
-3.92002e-06
0.000259113
0.000304756
5.3873e-06
-0.000324022
0.000314996
9.00724e-06
-3.99002e-05
0.000236293
-0.000196393
4.08802e-06
-0.000284257
-2.56945e-05
0.000167261
-0.000139013
-0.000157083
0.000135319
0.00020656
-0.000174962
-0.000269921
0.000264965
4.95602e-06
2.64041e-05
0.000174721
-0.000201125
2.87841e-05
-0.000257265
0.000228481
0.000276137
-0.000262669
0.000115108
0.000212073
0.000214441
-0.000190117
-0.000175813
0.000202217
1.35542e-05
0.000283303
-0.00029676
0.000269886
2.14283e-05
0.000271942
-0.000284077
1.23678e-05
3.86402e-06
0.000267513
-1.81166e-05
0.000290096
0.000330922
1.00276e-05
0.0002138
-0.000257666
0.000315968
-0.000315962
-6.63603e-06
-0.000272693
2.741e-05
0.000197352
0.000187993
3.98722e-05
-0.000227865
-5.56294e-05
0.000221826
-0.000166363
0.000153609
-0.000270285
0.000116676
0.000279441
-0.000329701
5.02602e-05
-6.38122e-05
0.000249201
-0.000166909
0.000315897
-0.000148989
-0.000314093
-1.00014e-05
-0.000214929
0.000175029
2.78601e-05
-0.000278349
0.000276221
-1.88441e-05
-0.000248613
1.70753e-05
-0.000302016
0.000284372
0.000344989
-0.000158593
-0.000186397
-1.69904e-05
-0.000240877
0.000257745
-0.000266617
-3.30401e-06
0.000224001
2.45841e-05
-0.000248585
0.000284509
-0.000128381
0.000140197
0.000138853
-0.000279049
-0.000197716
-1.058e-05
0.000258169
-0.000115551
0.000225609
-0.000242519
-6.38122e-05
0.000251805
-0.000207564
0.000249481
-5.60002e-07
-0.000248921
0.000255109
-0.000237441
-0.000324642
0.000298661
-3.08841e-05
0.000203169
-0.000172285
0.000291894
1.29432e-06
-0.000292859
7.75298e-05
0.000133474
-0.000210692
4.59661e-05
-0.000199017
-0.000290186
-4.75113e-06
0.000294989
-1.45946e-06
-0.000288084
0.000146973
-0.000273925
0.000126952
-0.000263686
0.000220715
-0.000294535
0.000265648
0.000279441
-0.000311701
-1.24291e-05
0.000323534
0.000111376
0.000162626
-2.13583e-05
0.000352066
0.000140141
0.000139833
-0.000279973
0.000245029
-0.000250349
5.32002e-06
-0.000210953
0.000180069
0.000279133
-5.43202e-06
0.000350722
-3.26363e-05
-0.000300411
0.000301146
-3.03104e-06
0.000270985
-0.000270985
-0.000364446
0.000225715
0.000138569
-0.000209839
2.00174e-05
1.68755e-05
0.000275157
-0.000278461
3.30401e-06
-5.07623e-06
0.000169293
-0.000163362
-0.000197345
0.000254801
-5.74562e-05
-0.000204581
4.62013e-06
-0.000242615
0.000157463
8.03456e-05
-0.000180264
0.000261403
-8.11408e-05
0.000256285
-0.000287113
3.08281e-05
-0.000249229
5.18842e-05
-2.34604e-05
0.000276008
-0.000252628
-0.000253547
1.35801e-06
0.000252189
0.000231281
-7.28003e-06
-0.000294212
7.5673e-06
0.000286579
-0.000266085
0.000266085
-0.000285126
-5.53248e-05
-0.000170717
-0.000194019
-0.000172669
0.000215102
-4.47797e-05
-1.232e-05
-0.000239177
0.000251497
3.10801e-06
0.000210113
-0.000213221
-0.000184754
-2.23472e-05
0.00020687
7.57847e-06
0.000294497
-0.00030211
-0.000236153
-1.34401e-05
0.000249593
1.50361e-05
-0.000251189
-0.000241025
0.000256061
-0.000301356
0.000308923
0.000256117
7.16803e-06
-0.000173466
-3.15837e-05
0.000199515
-0.000145237
-0.000134765
-0.000244329
0.000240549
0.000298706
-3.85489e-07
-0.000298156
-0.000298875
5.90977e-07
0.000298259
1.92929e-05
0.000181217
0.000163773
7.70043e-05
-0.000257269
-0.000159242
0.000310908
0.000250721
-0.000108677
-0.000235145
-1.83681e-05
0.000253513
-0.000204629
-0.000126896
0.000331468
-6.10402e-06
-0.000229125
0.000235229
-2.24804e-05
-0.000187588
-0.000287746
-8.60799e-05
6.31864e-06
-0.000300662
-0.000212657
0.000328013
-0.000115047
0.000281597
0.000288205
-5.16322e-05
0.000271993
-1.57081e-05
-0.000187809
-1.43248e-05
0.000201821
0.000297478
4.66757e-07
-0.000297807
-0.000269741
-3.28258e-05
-0.000218821
0.000247605
-2.52479e-05
0.000310547
-0.000285354
0.000182939
7.80991e-06
-0.000190245
-3.4457e-05
0.000215479
-0.000301302
0.000276041
0.00029227
6.19896e-06
-0.000297863
0.000157445
0.00011886
-0.000276305
0.000290199
4.78515e-06
-0.00029509
-0.000243649
0.000116581
0.000126933
-0.000281808
0.000295273
0.000302513
-0.000156857
-0.000145657
0.000207005
-0.000203897
-0.000232009
-0.000121156
-0.000155009
-4.06375e-06
-0.000294004
0.000298097
-1.0136e-05
0.000276249
0.000288983
-2.01266e-05
-0.000269706
-0.000262935
2.91488e-05
0.000233907
0.000271433
-0.000267569
0.000249621
2.95121e-05
0.000314728
-9.76593e-06
-0.000305014
5.04977e-05
0.00015859
-0.000208337
-9.97902e-05
0.000197152
-9.69198e-05
0.000252617
-2.91201e-05
-0.000223497
7.33635e-07
0.000291867
-0.000177836
-3.1478e-05
0.000205728
-1.84706e-06
0.000291675
-9.33244e-05
0.000246933
-0.000255417
-5.26402e-06
0.000121184
0.000181329
1.34121e-05
0.000241557
-0.000254969
0.000236097
1.34961e-05
-0.000249593
0.000249509
-0.000242929
0.000256425
6.43218e-05
-0.000203162
0.00013955
-0.00021471
0.000115174
-0.000209067
0.000297193
1.4082e-06
-0.000298571
0.000253849
2.22881e-05
0.000268493
-0.000216441
-5.20522e-05
0.000225518
-0.000246849
2.13305e-05
0.000257909
1.40841e-05
5.92558e-05
0.000293709
0.000267186
-3.89594e-05
-0.000228226
0.000175753
1.274e-05
0.000240297
-0.000253037
0.000195081
-0.000114964
-7.99006e-05
-0.000207154
2.1163e-05
-1.22162e-06
-0.000297926
0.000299159
0.000220217
-0.000168523
-5.31963e-05
0.000344629
-4.12754e-05
0.000275969
-0.000135829
2.31561e-05
0.000238337
-0.000261493
-0.000231141
0.000254297
-2.66981e-05
-0.000229706
0.000256411
0.000154871
-0.000159194
-7.70882e-05
-0.000168177
-0.000261723
4.14346e-05
0.000220288
-3.17521e-05
-0.00022997
7.14618e-06
0.000261717
-3.25193e-05
-0.000229198
1.67783e-05
0.000128047
-0.000199504
0.000308785
-0.000171397
0.000262319
-3.57923e-05
-0.000226526
-0.000318781
0.000178961
-0.000101636
-0.000228453
-6.90203e-05
-9.44921e-07
-0.000299688
0.000299489
-2.75704e-05
0.000181784
-0.000153459
0.000307854
6.86065e-06
0.000250097
-0.000248249
-1.84801e-06
-0.000176251
6.15395e-05
0.000260255
-3.07214e-05
-0.00022952
0.000197345
-0.000250769
5.34242e-05
0.000254206
-0.000231206
-2.29991e-05
-0.000252337
0.000240017
0.000144652
0.00010197
-0.000101864
-0.000170269
0.000132496
-0.000261885
-0.000290249
0.000242201
4.80482e-05
0.000216808
3.12473e-05
-0.000248056
-0.00023616
-9.602e-06
0.000247439
0.000327144
-2.29175e-05
0.000263996
-3.42721e-05
-0.000229724
0.00013985
-0.000228086
8.96652e-05
3.63259e-05
-0.000265637
0.000229311
-0.000253905
0.000121296
0.000249817
-5.24722e-05
0.000294673
-0.000154253
-0.000140421
0.000122248
-0.000289157
1.53441e-05
0.000237665
-0.000253009
-0.000262031
3.54705e-05
0.00022656
-2.74726e-06
-3.77917e-05
-0.000224239
0.00024877
-0.000272307
-0.000264649
3.44737e-05
0.000230175
0.000193257
0.000101416
-0.000149941
0.000290137
-0.00017012
-3.81957e-05
0.000205744
-1.81721e-05
0.000263201
-0.000292556
0.00030934
0.000116856
0.000103037
0.000261325
-0.000261325
0.000306872
-1.85692e-05
-0.000290205
5.32002e-07
0.000248949
0.000254857
1.65761e-05
0.000309031
-0.000275849
-3.32453e-05
-2.26336e-05
0.000266577
-0.000243943
3.00077e-05
-0.000260519
0.000230511
-0.000252139
0.000229506
0.000326065
3.11501e-05
-0.000260598
0.000229447
0.000276809
-3.16961e-05
-5.1205e-06
-0.000296137
0.000302008
0.000270375
3.87838e-05
0.000230245
-0.000266617
3.63721e-05
0.000200726
-0.000201685
-0.000258301
0.000238533
1.97681e-05
0.000169762
-0.000257245
8.74835e-05
-0.000209237
0.000163241
-0.000249145
8.59043e-05
-0.000266169
0.000224813
4.13562e-05
0.000253073
-2.78797e-05
-0.000225194
0.000174516
4.31091e-05
-0.000234837
-2.29601e-05
0.000257797
-0.000236377
-2.28761e-05
0.000259253
-1.94265e-05
0.000255969
-0.000236542
-0.000259345
0.000239919
-3.22309e-05
0.000176166
-0.000235929
-2.24001e-05
0.000258329
-0.00025484
0.000229192
2.56481e-05
2.94001e-06
0.000211289
-0.000214229
-0.000267031
3.79849e-05
0.000229046
0.000270677
4.48002e-06
4.14583e-05
0.00016184
-0.000204043
-3.31199e-05
0.000249928
-2.10701e-05
0.000218597
9.73004e-05
0.000248199
-0.000216954
0.000278418
-0.000279557
0.000278496
-0.000283146
-1.84997e-05
0.000258601
-0.000240101
-0.000261644
0.000243145
3.04689e-05
-0.000204589
-2.94707e-05
-0.00020759
0.00023778
0.00031482
-0.000287533
-2.74541e-05
0.000261297
-3.11081e-05
-0.000230189
3.28739e-05
-0.000262362
0.000229488
-0.000229853
0.000259645
-2.97921e-05
0.000325565
-1.76717e-05
0.000145378
-0.00020966
0.000256929
-0.000109956
-0.00028622
0.000287809
0.000241977
-6.41202e-06
-0.000235565
0.000228537
-0.000184217
-3.77495e-05
0.000222934
2.85549e-05
-0.0002112
-0.000239989
0.000260317
-2.03281e-05
-0.000102951
0.000189813
-8.61308e-05
3.04595e-05
-0.000202819
0.000240169
-0.000263424
2.32552e-05
-0.000115584
0.000258861
-0.000243993
0.000265721
-2.17281e-05
-0.000238953
0.000232541
0.000258626
-0.000245105
-1.35213e-05
0.000264349
-2.46681e-05
-0.000246317
-0.000272962
-1.04792e-05
0.000297092
-5.36643e-05
-9.59716e-06
0.000291296
-0.000282613
-0.000164993
0.000206118
0.000228495
1.81398e-05
-0.000246632
0.000329153
-0.000329383
0.000260955
-0.000245018
-1.59377e-05
-0.00030246
-7.6511e-07
0.000305076
9.72414e-06
3.86692e-05
0.000175915
-0.000212847
0.000215047
-3.51814e-05
-0.000179789
0.000278054
-0.000255789
-2.22648e-05
-0.000215383
3.18563e-05
3.15421e-05
-0.000261891
0.000230348
0.000285821
-0.000292306
2.44721e-05
-0.000259617
-0.000257965
1.87881e-05
0.000266057
-1.64361e-05
0.000151173
-0.000267625
0.000116452
0.000298901
-4.43529e-06
0.000238617
-7.53763e-05
2.12521e-05
0.000177045
-0.000198297
-0.000183877
0.000205129
-0.000236275
0.000257219
-2.09441e-05
0.000261462
-3.31689e-05
-0.000228293
-0.000197009
-5.21362e-05
0.000251581
-1.48401e-06
8.90546e-06
-0.000264414
0.000256422
-0.000342157
0.000235489
0.000106164
0.000266371
-0.000236811
-2.95597e-05
0.000306804
-0.000314608
7.81834e-06
-2.57041e-05
-0.000229097
0.000254801
0.000261493
-7.64403e-06
1.00266e-05
-0.000207097
0.000262411
-3.19033e-05
-0.000230508
-6.90483e-05
-0.000260653
-0.000194685
0.000248025
-5.33402e-05
-0.000266533
0.000249985
1.65481e-05
-0.000318058
1.66596e-05
-1.74309e-05
0.000297117
-0.000279287
-0.000276221
1.65481e-05
0.000249537
-0.000167296
6.43292e-05
0.000273831
1.47769e-05
-0.000288668
-0.000316193
0.000307978
8.22422e-06
3.46641e-05
-0.000263649
0.000228985
-1.74643e-05
0.000281277
-0.000315237
1.63899e-05
-0.000176541
-7.42283e-05
-0.000233955
0.000204575
-2.16721e-05
-0.000216469
0.000238141
-0.00031473
0.000295906
1.88963e-05
-0.000133376
0.000275702
-0.000141803
-8.39134e-06
3.31521e-05
-0.000263453
0.000230301
-0.000208443
2.52826e-05
0.000181663
0.000221511
0.000280365
-0.000281376
2.47813e-07
-0.000236993
-2.20921e-05
0.000224813
-0.000202721
0.000139273
0.000143753
-0.000278517
0.0002028
-5.76088e-05
0.000308228
-1.05933e-05
0.000208948
-0.000268922
2.92853e-05
0.00022306
-0.000252345
-0.000322477
0.000138324
0.000296455
2.92053e-05
1.94511e-05
-0.000224355
-2.77845e-05
-0.000136206
-0.000133135
-0.000326481
0.000113881
0.000242873
2.56201e-05
0.000218765
-0.000224869
1.10078e-05
-0.000287962
0.000277074
-0.000242978
0.000269731
-2.72624e-05
0.000281366
-0.000281723
0.000287584
-7.67453e-05
-8.82655e-06
0.000290234
-1.87881e-05
0.000247101
-0.000228313
0.000281443
-0.000290285
-5.65375e-06
-0.000283891
0.000289525
0.000282019
-0.000270031
0.000284789
0.000226314
2.67597e-05
-0.000311647
0.00031837
-6.43209e-06
0.000250451
-2.19498e-05
0.000227496
2.4054e-05
-0.000268913
0.000246057
-2.05381e-05
-0.000259401
3.02849e-05
0.000229116
0.000178305
7.64963e-05
9.48001e-06
0.000280602
-0.000291159
-0.000238141
-2.88401e-05
0.000266981
2.51441e-05
-0.000263285
0.000284117
-0.000162317
-0.000232177
0.000261129
-2.89521e-05
-0.000234697
0.000260709
-2.60121e-05
1.39576e-06
0.000278448
2.45001e-05
-0.000259197
2.38001e-05
-0.000255977
0.000274241
-0.000242921
-3.13668e-05
0.000317954
-9.9902e-06
-0.000305621
-3.61399e-06
-0.000255753
1.1816e-05
0.000243937
-1.72171e-05
-0.000261185
0.000228065
-0.000245337
0.000270145
-2.48081e-05
-0.000263229
1.49801e-05
-2.35837e-05
0.000286529
-0.000262702
2.13641e-05
-0.000266701
-0.000241608
-2.1322e-05
3.2705e-05
-9.0432e-05
0.000260194
0.000280836
-0.000286561
5.05122e-05
0.000237693
0.000282197
-0.000281748
-0.000243181
-2.39401e-05
0.000267121
-0.000260894
7.34723e-06
-0.000295587
1.92619e-05
0.000276142
-0.000268717
2.55361e-05
-8.48391e-06
0.000290545
-0.000268326
0.000243549
2.47773e-05
-0.000232513
0.000210841
0.00028038
-0.000288902
-6.16002e-07
0.000260289
-0.000259673
-0.000302007
-1.61196e-05
-0.000264573
2.35481e-05
-0.00024417
-2.41556e-05
-3.43281e-05
-0.000297915
0.000293817
0.000286674
-0.000158327
0.000295456
-0.00028941
2.30152e-05
4.89791e-06
0.00026205
-0.000255255
-7.17275e-06
0.000307429
-2.02535e-05
-0.000287258
5.93468e-05
-0.000246765
-2.19521e-05
-0.000355175
0.000241178
0.000283852
-0.000277505
2.33801e-05
-0.000188553
-1.60629e-05
-0.000306495
2.56564e-05
0.000280961
-0.000197005
0.000310968
-0.000113833
0.000259841
-0.000238533
-2.13081e-05
-0.000291709
2.94001e-05
0.000222097
-0.000251497
-0.000166445
0.000136775
-0.000163885
0.000251441
-0.000238029
-1.34121e-05
-0.000263873
3.40201e-05
-2.23161e-05
-0.000269837
0.000251469
0.000230427
3.12901e-05
-4.69711e-05
0.000205373
0.000232619
-0.000260499
-1.73925e-05
-3.4751e-06
0.000244897
-0.000242619
-0.0002935
-0.000237049
0.000265189
-2.81401e-05
0.000230096
3.22225e-05
-0.000268521
2.55921e-05
-0.000239905
-2.86161e-05
0.000228954
-0.000260706
-0.000282504
4.73202e-05
-0.000242005
0.000293976
-0.00028394
-0.000288699
1.33651e-05
0.000276051
-4.73481e-06
0.000219629
0.000228551
-0.00026107
0.000296885
-0.0001309
-0.000165985
0.000241627
-0.000261693
0.000270733
-0.000226213
-1.76681e-05
-0.000164875
0.000307327
-0.000142269
2.49649e-05
0.000222662
-0.000247627
-0.000192787
0.000192758
-0.000283795
0.000282504
7.04786e-06
-0.000290888
-0.000302485
0.000146693
0.000155793
0.000259995
-0.000239359
-2.06361e-05
-0.000215741
0.000193649
0.000261619
3.63431e-07
0.000257293
0.000232526
2.16799e-05
-0.000295215
-6.09423e-05
1.03729e-05
0.00023369
-0.000252173
1.68668e-05
-0.000230917
-2.37161e-05
0.000254633
-0.000242295
0.000263191
-2.08965e-05
8.32821e-05
0.000135439
2.02683e-05
-0.000305854
0.000285306
0.000256565
-1.80041e-05
-0.000238561
0.000243881
-0.000254017
1.0136e-05
-0.000226745
0.000207957
0.000223131
-0.000258923
-0.000244693
4.76842e-05
1.59315e-05
-0.000137347
-0.000217835
1.57921e-05
0.000245701
0.000281112
0.000293142
0.000305682
1.71318e-06
0.000249817
-0.000220417
2.51749e-05
0.000225009
-0.000250184
-0.000243178
0.000268865
-2.56873e-05
2.28201e-05
-0.000262725
-0.000116401
0.000296109
9.10078e-06
2.08181e-05
0.000261675
-0.000235103
-2.65721e-05
1.32246e-05
-0.00030372
0.000290448
0.000321759
-3.09523e-05
-0.000290764
0.000249733
1.63241e-05
0.00030606
-0.000292916
-0.000230331
-0.000112456
9.63204e-06
0.000250657
-4.9129e-05
-0.00020239
0.000251519
2.20333e-05
0.000246832
-0.000241686
-2.29629e-05
0.000260737
-2.24001e-05
0.000287786
-0.000268023
2.63369e-05
2.68241e-05
-0.000257965
0.000210617
-0.000207677
2.58161e-05
-0.000262865
0.000279537
0.000121744
-0.000256173
0.000134429
1.84024e-05
3.83764e-05
0.000162908
-0.00020303
-0.000239485
-2.85377e-05
3.97137e-05
0.000163602
-0.000201741
-0.000246691
0.000271066
-2.43747e-05
0.000209866
-0.000248826
1.98857e-05
1.73002e-05
-0.000173631
-3.02244e-05
0.000226701
-0.000257412
-2.88401e-05
0.000244245
-0.000215405
-2.16161e-05
0.000242985
-0.000221369
0.000201657
-0.000250786
-0.000273613
-0.000232905
-2.55081e-05
0.000258413
0.000241234
2.98318e-05
-0.000212724
-2.34343e-05
0.000235058
-2.18821e-05
-0.000224967
-0.000239345
6.28042e-05
0.000259004
-0.000229718
4.75106e-05
-0.000249901
-3.43393e-05
0.000257694
-0.000223354
0.000205675
-0.000240014
0.000261689
-1.1956e-05
-6.06764e-05
-0.000229572
-0.000221641
-1.71682e-05
0.000241411
0.000247109
5.3175e-05
0.000212448
-0.000265623
-0.000261104
0.000177353
-0.000231757
5.44042e-05
6.50833e-05
0.000137399
0.000259457
-0.000240915
-2.47224e-05
-0.000265385
0.000227165
3.82201e-05
-2.87813e-05
-0.000222158
0.00025094
-0.000284208
0.000264161
0.000234501
3.61761e-05
2.18821e-05
0.000234087
-0.000307217
0.000151089
0.000156129
0.000169398
-5.21832e-05
0.000254045
-0.000115192
2.56901e-05
0.000217446
-0.000243136
-0.000286245
0.000287367
9.3005e-06
0.000257377
-0.000245953
0.000208937
3.70161e-05
0.000254832
0.00024729
-1.94913e-05
-0.000246815
-2.02161e-05
-0.000263019
2.0724e-05
-0.000269215
2.24001e-05
2.79601e-05
0.000220024
-0.000247984
0.000242481
-0.000274597
1.32721e-05
0.000245808
-1.44059e-05
1.26785e-05
-0.000248858
-0.000328789
0.000124014
-0.000233135
-2.62109e-05
-0.000252113
0.000252113
0.000259782
-0.000144217
-1.8639e-05
-0.000278755
0.000297049
0.000275349
0.000258749
-0.000135913
0.000224113
2.39205e-05
0.00023468
7.79676e-05
-0.000340332
3.80849e-05
0.000258962
1.76363e-05
-0.000248843
-3.00917e-05
0.000207453
-3.01001e-05
0.000259701
2.95429e-05
0.000218353
-0.000247896
-3.05014e-05
-4.09782e-05
-0.000217818
0.000258797
-0.000233423
-2.14173e-05
3.72408e-05
-0.000198434
0.00015956
-3.30877e-05
0.000221671
-0.000255943
-0.000281643
-8.40902e-06
0.000290339
-0.000198048
0.000160403
0.000166349
8.16763e-05
1.28555e-05
-0.00029451
0.000235075
2.59446e-05
-0.000261019
-0.000196434
-1.4731e-06
0.000232743
-0.000264287
3.15449e-05
-8.42803e-06
-0.000217029
0.000225457
-0.000164739
0.000200264
-0.000249985
-3.46025e-05
0.000256274
0.000218076
-0.000252679
-0.000246289
0.000272245
-2.59561e-05
0.000253547
2.78321e-05
-0.000232062
-2.95821e-05
-0.00029839
0.000316556
-1.82346e-05
2.33903e-05
0.000212462
-0.000250254
-0.000267233
2.09441e-05
-2.12801e-05
-0.000245953
-3.61481e-05
0.00024861
-0.000290128
-1.36425e-05
0.00022082
-0.000256968
0.000247703
-0.000251245
1.85687e-06
2.80002e-06
0.000181413
-0.000184213
0.000255294
0.000234529
2.67681e-05
-2.62361e-05
0.000245001
-0.000218765
3.36001e-05
0.000216609
-0.000250209
0.000244861
2.73841e-05
0.000306545
-0.000143949
-0.000162597
1.59237e-05
0.000239949
-0.000256618
0.000271013
-0.000113568
0.000225569
-0.000256677
-0.00024148
0.000104764
-0.000265469
7.16803e-06
-0.000241635
-2.75801e-05
-0.000241361
-2.48081e-05
0.000310544
-2.73289e-05
-7.67483e-05
0.000243097
-1.1452e-05
-0.000215601
0.000224281
-8.68003e-06
0.000255193
-7.68883e-05
3.42547e-05
-0.000198674
0.000160743
-0.000265245
-1.40001e-07
-4.14962e-05
3.91046e-05
0.000154875
-0.00019502
0.00019744
-0.000166576
0.000257041
-7.05603e-06
0.000251151
-0.000218277
-1.81812e-05
-2.1128e-05
0.00027887
-9.52203e-05
-0.000182088
-1.42801e-05
-0.000191913
0.000206193
0.000258665
-1.53553e-05
-0.00024331
1.98101e-05
0.000238855
-0.000280229
-7.92204e-06
3.77162e-05
-0.000200848
0.000162175
1.36921e-05
0.000247997
-0.000165457
0.00020217
-1.95189e-05
0.000248711
3.24805e-05
0.000191256
-0.000224361
-4.17202e-06
-2.49389e-05
0.000265108
-0.000231955
-3.14693e-05
0.000296889
-0.000281731
-1.514e-05
1.63717e-05
-0.000237659
0.000221288
-0.00010514
0.000226885
1.92871e-05
-0.000304987
0.000285927
2.52001e-05
-2.79441e-05
2.69165e-05
0.000309159
-0.000289599
0.000238891
1.97345e-05
2.15601e-06
0.000231617
-0.000233773
-0.000310486
2.57062e-05
0.000284844
-0.000162177
-0.000144145
0.000209178
-0.000250156
-0.000168046
0.000241924
1.90317e-05
0.000256927
-4.13534e-05
0.000250531
0.000214498
-0.000255851
0.000318787
-0.000319454
-1.08944e-05
0.000286831
-0.00027647
-0.000302852
1.97019e-05
0.000283008
4.20842e-05
-0.000286413
-3.99509e-05
0.000252483
2.62921e-05
-2.20769e-05
0.000307219
-0.000285146
2.43321e-05
3.94316e-05
0.000158367
-0.000197399
0.000249294
-0.000219751
2.83277e-05
-0.000261633
4.36802e-06
-1.99457e-05
0.000306466
-0.00028653
-0.000250987
-0.000266673
3.07441e-05
0.000252141
-0.000236741
-1.54001e-05
1.2264e-05
0.000239877
-0.000274838
-1.28184e-05
0.000255697
-6.80535e-06
0.000314046
-1.19628e-05
0.000298244
-0.000285777
-4.69609e-05
0.000247437
-0.000235621
0.000257601
-1.99361e-05
0.000133765
8.63014e-05
-0.000219402
0.00022697
3.03493e-05
0.000226759
-0.000258662
3.71393e-05
0.000271682
-0.000288966
1.68779e-05
0.000251273
-0.000239093
-1.31321e-05
0.000252225
-2.91201e-05
-0.000257265
2.56481e-05
0.000231617
-0.000228005
-2.92601e-05
0.000259765
-0.000233571
-2.61941e-05
0.000258721
-0.000266069
2.51389e-06
0.000288927
1.27097e-06
-0.000290235
0.000247918
-0.000233408
-1.85921e-05
0.000308857
-0.000300856
-7.99842e-06
0.000245647
-0.000100187
-0.000266897
2.56761e-05
0.000241221
-3.48881e-05
-0.000232009
-0.000266393
2.51161e-05
0.000241277
-1.22802e-05
-0.000267814
0.000280089
-3.45241e-05
-0.000231869
-0.000261794
1.84675e-05
-0.000266281
2.43881e-05
0.000241893
-0.000284174
-2.16292e-05
-0.000306234
2.76564e-05
0.000278483
-3.34041e-05
-0.000232877
-0.000174701
-0.000258133
2.94001e-05
0.000228733
0.000308353
-0.000309867
-0.000195805
0.000209049
-3.29281e-05
-0.000225205
0.000197278
-0.000278822
8.15812e-05
0.000283782
2.22817e-05
-0.000301953
1.76961e-05
0.000286128
-0.000280904
-4.79955e-06
-0.000257125
0.000231617
2.55081e-05
0.00016877
2.79011e-05
-0.000198331
-0.000266953
2.81681e-05
0.000238785
-0.000227361
-2.97641e-05
-3.67361e-05
-0.000230217
0.00027668
0.000297362
1.91248e-05
-0.000275785
-3.176e-05
0.000307789
-0.000258679
-1.08089e-05
0.000298211
-0.000287378
1.49524e-05
-0.000301727
0.000286656
-0.000230609
-0.000307267
0.000287238
0.000263005
-2.5557e-05
-0.000280772
1.36081e-05
0.000163369
0.000231469
1.90076e-05
-0.000249303
-0.000197796
0.000157342
0.000236738
1.31517e-05
-0.00024989
-0.00025833
2.66093e-05
0.000231721
-1.09228e-05
0.000247661
5.74002e-06
0.000246877
-3.19817e-05
-0.000226348
0.000299554
-0.000285744
-1.38687e-05
0.000228024
-0.000226666
0.000289732
0.000237685
1.98521e-05
-0.000257537
-1.24236e-05
0.000250108
0.000246636
1.50389e-05
-0.000305489
1.53721e-05
0.00024448
2.18905e-05
3.29561e-05
-0.000202606
-0.000287229
-1.7692e-05
-0.000182869
0.000295177
-0.000151446
0.00018431
-3.3278e-05
3.04228e-05
-0.000204292
0.000174884
-0.000169537
0.000259149
-0.000239236
-1.99137e-05
0.000260618
-0.000273996
-0.000240643
0.000231658
-2.19055e-05
0.000301331
-0.000279471
0.000307665
-0.000292787
0.000242117
1.77241e-05
-0.000224975
0.00024443
-1.94545e-05
1.61001e-05
-0.000241075
-7.00003e-06
0.000260989
-0.000297146
4.83232e-06
0.000292294
-0.000174497
0.000160217
-1.74105e-05
-6.24285e-06
-0.00029096
-1.684e-05
-0.000285178
4.28402e-06
-0.000299245
0.000135518
-0.000257455
2.36691e-05
0.00023374
0.000238197
1.32441e-05
-3.08223e-05
-0.000226609
-3.31789e-05
-0.000292244
2.15681e-05
-0.000222872
0.000203929
0.000254969
-0.000233465
-2.15041e-05
-0.000195316
0.000217467
-0.000186206
-7.30172e-06
0.000203227
0.000136565
0.000138917
3.96008e-06
0.000271169
0.000279841
-0.000305484
3.19433e-06
0.000243365
-1.98351e-05
0.000298708
-0.000278826
-0.000302398
0.000287594
1.4809e-05
-0.000258301
0.000230077
2.82241e-05
-2.64041e-05
-0.000231897
0.000302276
-0.000301521
0.000267767
-1.99984e-05
0.000304548
-0.000284539
0.000286936
-4.58557e-07
-0.000256873
0.000256873
-0.000268165
0.000295728
-0.000144
-6.55909e-05
-7.4696e-06
0.00029415
-0.000286864
-0.000297766
0.000290705
0.000291814
-0.0002792
0.000291214
-0.000306486
1.46647e-05
3.47852e-05
-0.000242431
0.000214027
2.3432e-05
-1.45214e-05
-0.000244979
0.000230063
-1.43599e-05
0.000298486
-0.000284059
0.000263481
-1.96001e-05
0.000254224
-0.000235464
-1.87601e-05
-3.10143e-05
-0.000273879
0.000304784
1.43518e-05
-0.000297143
0.000282735
-1.45881e-05
0.000233465
-0.000218877
0.000206257
-0.000295527
0.000283482
-1.92791e-05
0.000304859
-0.000285566
0.00025102
-2.69006e-05
0.000297329
-0.000270409
-0.000295813
0.000268893
1.07156e-05
0.000244749
-0.000255465
0.000305198
-0.000312018
6.77081e-06
1.80964e-05
1.47517e-05
0.000286216
-0.000301209
6.30242e-06
0.000283091
2.31976e-06
-0.000318392
-0.000290041
0.000304775
-0.000242481
0.000243657
8.45603e-06
-0.0002264
0.000242772
-0.000293583
0.0002743
0.000284365
-0.000146387
-8.15425e-05
0.00029469
1.45358e-05
3.16561e-05
-0.000195952
0.000162848
-0.000274642
0.000257293
-0.000219535
0.00024982
0.000243411
1.92865e-05
-0.000262697
0.000236019
2.31309e-05
-0.000300317
0.000281809
0.000312766
-1.80643e-05
0.000237945
-0.000257069
1.91241e-05
-0.000222494
0.000247459
0.000294443
1.8084e-05
-0.000168557
-1.45961e-05
0.000298353
-0.000283738
-0.000143439
-0.000266415
0.000159993
0.000106423
-0.00030918
0.000295487
1.36786e-05
-0.000258699
0.000241826
1.68729e-05
-0.00015149
0.000153813
-0.000306308
0.000288628
1.78566e-05
-0.000218454
0.000180146
-9.69084e-06
0.000253101
2.04384e-05
1.76201e-05
-0.000304483
0.000286895
-0.00030087
-7.1197e-06
0.000307974
-0.000249229
0.000220109
-0.000201153
-8.52603e-05
-0.000273356
0.000250879
0.00030409
-0.000286507
-0.00019115
1.79217e-05
1.50529e-05
0.000284546
-0.000299608
-8.80603e-05
0.000239233
-0.000303551
1.94746e-05
0.000284105
-0.000204887
-2.73026e-06
-0.000298064
-0.000168627
2.05297e-05
0.000302519
-0.000287651
-1.45055e-05
-0.000173022
-0.00029931
-0.000174549
-2.25458e-05
0.000243528
0.000289354
1.71422e-05
0.000252869
5.74941e-05
-0.000284903
-0.000247213
-0.000271443
-2.33807e-05
-0.000274669
0.000300353
-0.000262877
0.000281797
-0.000164152
-4.06558e-05
0.00020713
0.000197569
1.56521e-05
-0.000213221
-1.2458e-05
-0.000285613
0.000298176
1.83597e-05
1.85418e-05
-0.000305495
0.00028684
0.000253345
-1.71361e-05
-0.000236209
1.89443e-05
-0.000304731
0.000285774
2.03561e-05
0.000232989
0.000216385
-2.46121e-05
-0.000191773
1.57639e-05
0.00028254
-0.000298264
-0.000251171
0.000118259
-0.000303815
1.86093e-05
0.000285098
0.000218822
-5.05361e-05
-0.000297706
1.26042e-05
0.000283954
0.000255837
-2.19801e-05
-0.000233857
-0.000303163
0.000106006
0.000234529
1.70521e-05
-0.000251581
0.000280404
1.6929e-05
0.000304142
-0.000285209
1.80696e-05
-0.000299677
0.000233512
1.84916e-05
-0.000252004
-1.89626e-05
-1.42732e-05
0.000298362
-0.000284071
-0.00028018
0.000299905
-0.000277862
0.000292094
-0.000303841
1.1659e-05
0.000249741
-1.62291e-05
1.14774e-05
0.000250041
-1.55121e-05
0.000298373
-0.000282543
3.95922e-05
-0.000236878