/*--------------------------------*- C++ -*----------------------------------*\
  =========                 |
  \\      /  F ield         | OpenFOAM: The Open Source CFD Toolbox
   \\    /   O peration     | Website:  https://openfoam.org
    \\  /    A nd           | Version:  12
     \\/     M anipulation  |
\*---------------------------------------------------------------------------*/
FoamFile
{
    format      ascii;
    class       surfaceScalarField;
    location    "8.36";
    object      phi;
}
// * * * * * * * * * * * * * * * * * * * * * * * * * * * * * * * * * * * * * //

dimensions      [1 0 -1 0 0 0 0];

internalField   nonuniform List<scalar> 
33852
(
0.000251329
2.24281e-05
-0.000273757
-0.000246121
1.32441e-05
0.000232877
-0.000175862
-7.14596e-05
0.00024948
0.000304053
-0.000163969
-0.000140085
0.0002909
-4.33357e-05
-0.000249164
2.72441e-05
-0.000260681
0.000233437
0.000314951
1.47093e-05
-0.000329682
0.000304277
-9.59564e-05
-0.000208321
0.000286413
-3.50841e-05
0.00019876
2.23594e-06
-0.000198891
0.000289741
-0.000366608
7.70195e-05
0.000360738
-4.5684e-05
-4.39602e-05
0.000263285
-0.000219325
-4.38489e-05
0.000318177
-0.000274296
6.03023e-05
-0.000235393
0.000252057
1.2236e-05
-0.000264293
0.000264853
-1.2796e-05
-0.000278433
3.23121e-05
0.000340985
-5.11488e-05
0.000158593
0.000112308
-0.000270901
-2.44057e-05
0.000303358
-0.000279036
0.000271377
-0.000276165
4.78802e-06
-1.77889e-05
0.000275586
-0.000257774
-0.000222647
1.4734e-05
0.000211131
-0.000154365
-0.000183569
0.000337252
-0.000147345
-7.01039e-05
0.000218051
3.72401e-05
0.000267037
-6.1368e-05
-0.000263753
0.0003246
-0.000213995
2.2849e-06
0.000203953
-0.000200544
-1.84587e-05
0.000142045
0.000137388
-0.000279433
0.000341566
1.93307e-05
0.000142618
0.000128347
-0.000270965
-0.000101136
0.000259729
-0.000250489
-3.78001e-06
0.000254269
0.000330936
-5.96061e-05
-0.000271317
-0.000358196
0.000203821
-0.000227858
0.000210091
0.000231645
3.32081e-05
-5.65602e-06
0.000237301
-8.14152e-06
0.000209675
-0.000232625
0.000259869
0.000317419
-5.79302e-05
-0.000260036
-0.000309093
5.51042e-05
0.000253989
0.000240462
-0.000302151
0.000273589
-0.000306321
3.27321e-05
-0.000180237
-5.49362e-05
0.000235173
0.000272133
-0.000272133
0.000148429
-0.000297473
0.000149045
-0.000206726
0.000216305
-7.02671e-06
-0.000268241
0.000237301
3.09401e-05
-0.000198846
0.000248366
-4.63368e-05
-9.16164e-05
-0.000217477
-0.000114441
-0.00025198
-0.000280169
0.000266113
1.40561e-05
0.000329716
1.18695e-05
-0.000250433
7.01963e-05
0.000117908
0.000145909
-0.000263817
1.34681e-05
-0.000267457
0.000253989
-0.000134569
0.000282997
-0.00015248
-5.08777e-05
0.000203021
-0.000274681
0.000245113
2.95681e-05
0.000237553
-0.000268437
3.08841e-05
-0.000194855
-2.41135e-05
0.000151665
0.000115565
-0.00026723
-0.000190484
-2.76259e-05
0.000226958
0.000263985
2.24281e-05
0.000275941
-2.35201e-06
0.000265329
-0.000250741
-1.45881e-05
0.000225879
-6.41752e-05
-0.000160933
-1.82001e-06
0.000239373
0.000366187
-0.000312769
-5.39038e-05
-2.83492e-05
0.000302481
-0.000275569
-0.000101584
0.000219493
0.000341865
2.4206e-05
-0.000370657
0.000352546
1.79899e-05
-0.00020285
2.16703e-05
0.000309182
-0.000321029
1.22582e-05
-0.00020739
0.000270184
-6.39302e-05
-4.45202e-06
1.71072e-05
-0.000319193
0.00030212
0.000234818
-0.000199548
-3.51684e-05
0.000269238
-0.000340171
7.00561e-05
0.000332001
-6.33173e-05
-0.000268941
0.000236573
3.23681e-05
-0.000129388
-0.000132609
0.000261997
-1.86761e-05
-0.000249565
-1.022e-05
-0.000258721
2.32984e-05
0.000209718
-0.000232056
3.15113e-05
-0.000219396
0.000190974
-2.50246e-05
0.000328643
-0.00030317
-0.000279329
0.000273701
5.62802e-06
0.000156129
-0.000296857
0.000140729
-5.95818e-05
-0.000150814
0.000208115
0.000143277
0.0001218
-0.000265077
-0.000250113
0.000225687
-0.000213968
0.000152562
-0.000168813
0.000327181
-0.000158369
0.000185389
7.16523e-05
-0.000257041
0.000255193
2.07481e-05
-0.000192277
0.000148317
4.99978e-05
0.000264158
0.000307007
-0.000289816
9.34124e-05
-0.000237212
0.000135241
0.000117096
-0.000281065
-8.55745e-07
0.000244645
-0.000242821
0.000166489
0.000122836
-0.000289325
0.00014399
9.0071e-05
-3.92002e-06
0.000259113
0.000304233
5.4342e-06
-0.000324081
0.000314994
8.90942e-06
-3.99002e-05
0.000236293
-0.000196393
4.08802e-06
-0.000284257
-2.54965e-05
0.000164439
-0.000140266
-0.000157329
0.000131119
0.000209646
-0.000174938
-0.000269921
0.000264965
4.95602e-06
2.64041e-05
0.000174721
-0.000201125
2.87841e-05
-0.000257265
0.000228481
0.000276137
-0.000262669
0.000115108
0.000212073
0.000214271
-0.000189937
-0.000175813
0.000202217
1.3645e-05
0.000282503
-0.000296554
0.000269576
2.23061e-05
0.000271343
-0.000283256
1.23369e-05
3.86402e-06
0.000267513
-1.80591e-05
0.000289881
0.000331001
9.98611e-06
0.000213753
-0.000257736
0.000316099
-0.000316014
-6.63603e-06
-0.000272693
2.79705e-05
0.000198551
0.000187993
3.98722e-05
-0.000227865
-5.53951e-05
0.000216839
-0.00016617
0.000153609
-0.000270285
0.000116676
0.000279441
-0.000329701
5.02602e-05
-6.38122e-05
0.000249201
-0.000166909
0.000315897
-0.000148989
-0.000314212
-9.99701e-06
-0.000214929
0.000175029
2.78601e-05
-0.000278349
0.000276221
-1.88441e-05
-0.000248613
1.71503e-05
-0.000301957
0.00028536
0.000344989
-0.000158593
-0.000186397
-1.66585e-05
-0.000240882
0.000257914
-0.000266617
-3.30401e-06
0.000224001
2.45841e-05
-0.000248585
0.000284509
-0.000128381
0.000140197
0.000138853
-0.000279049
-0.000195994
-1.07993e-05
0.000258169
-0.000115551
0.00022587
-0.000242574
-6.38122e-05
0.000251805
-0.000208932
0.000249481
-5.60002e-07
-0.000248921
0.000255109
-0.000237441
-0.000325032
0.000300385
-3.08841e-05
0.000203169
-0.000172285
0.000292154
1.24785e-06
-0.000293476
7.60575e-05
0.0001311
-0.000207378
4.62221e-05
-0.000198753
-0.0002891
-4.5907e-06
0.000293261
-1.5733e-06
-0.00028793
0.000146973
-0.000273925
0.000126952
-0.000263725
0.000219693
-0.000294958
0.000265233
0.000279441
-0.000312672
-1.24594e-05
0.000324942
0.000109831
0.000159983
-2.13073e-05
0.000352183
0.000140141
0.000139833
-0.000279973
0.000245029
-0.000250349
5.32002e-06
-0.000210953
0.000180069
0.000279133
-5.43202e-06
0.000350814
-3.25651e-05
-0.000302767
0.000306604
-2.86799e-06
0.000270985
-0.000270985
-0.000364799
0.000226046
0.000138814
-0.000215646
2.10458e-05
1.69353e-05
0.000275157
-0.000278461
3.30401e-06
-4.99944e-06
0.000170306
-0.000166914
-0.000197345
0.000254801
-5.74562e-05
-0.000201337
4.19868e-06
-0.000243061
0.00016092
8.21908e-05
-0.000180264
0.000261403
-8.11384e-05
0.000256285
-0.000287113
3.08281e-05
-0.000249229
5.18842e-05
-2.35809e-05
0.000276325
-0.000252792
-0.000253547
1.35801e-06
0.000252189
0.000231281
-7.28003e-06
-0.0002942
7.65355e-06
0.000286627
-0.000266085
0.000266085
-0.000285031
-5.52788e-05
-0.000170713
-0.00019398
-0.000172373
0.000216248
-4.44989e-05
-1.232e-05
-0.000239177
0.000251497
3.10801e-06
0.000210113
-0.000213221
-0.000186089
-2.24347e-05
0.000209233
7.58028e-06
0.00029432
-0.000301884
-0.000236153
-1.34401e-05
0.000249593
1.50361e-05
-0.000251189
-0.000241025
0.000256061
-0.00030117
0.000308774
0.000256117
7.16803e-06
-0.000169392
-3.12503e-05
0.000195312
-0.000145237
-0.000134765
-0.000244329
0.000240549
0.000298668
-4.15264e-07
-0.00029816
-0.00029885
6.25513e-07
0.000298241
1.92842e-05
0.000181217
0.000163773
7.70043e-05
-0.000257269
-0.000159242
0.000310908
0.000250721
-0.000108677
-0.000235145
-1.83681e-05
0.000253513
-0.000204629
-0.000126824
0.000331468
-6.10402e-06
-0.000229125
0.000235229
-2.21095e-05
-0.000188712
-0.00028597
-8.53011e-05
6.24026e-06
-0.000300419
-0.000212628
0.00032813
-0.000115496
0.000281597
0.000288205
-5.16322e-05
0.000271993
-1.57081e-05
-0.000187726
-1.41891e-05
0.00020055
0.000297885
1.61889e-07
-0.000298122
-0.000267601
-3.36614e-05
-0.000218821
0.000247605
-2.52226e-05
0.000310473
-0.000285344
0.000184927
7.42029e-06
-0.000193154
-3.39563e-05
0.0002128
-0.000301304
0.000275981
0.000291845
5.24194e-06
-0.000297638
0.000157445
0.00011886
-0.000276305
0.000288763
5.2595e-06
-0.000292946
-0.000248192
0.000119879
0.000129683
-0.000281885
0.000295309
0.000302513
-0.000156857
-0.000145657
0.000207005
-0.000203897
-0.000232009
-0.000121156
-0.000155009
-3.97969e-06
-0.000294013
0.000298083
-1.0136e-05
0.000276249
0.000288118
-1.93939e-05
-0.000271257
-0.000262804
2.93845e-05
0.000233888
0.000271433
-0.000267569
0.000249621
2.95121e-05
0.000314656
-9.75787e-06
-0.00030497
4.99021e-05
0.000156452
-0.000206754
-9.94363e-05
0.000192373
-9.64764e-05
0.000252617
-2.91201e-05
-0.000223497
3.77707e-07
0.000291438
-0.000169279
-3.0802e-05
0.000199496
-1.53238e-06
0.000291656
-9.33244e-05
0.000246933
-0.000255417
-5.26402e-06
0.000121184
0.000181329
1.34121e-05
0.000241557
-0.000254969
0.000236097
1.34961e-05
-0.000249593
0.000249509
-0.000242929
0.000256425
6.31185e-05
-0.000201289
0.000138712
-0.000217409
0.00011629
-0.000210209
0.000297277
1.3669e-06
-0.000298695
0.000253849
2.22881e-05
0.000268493
-0.000216441
-5.20522e-05
0.000225518
-0.000246849
2.13305e-05
0.000257909
1.40841e-05
5.84266e-05
0.000294746
0.000267186
-3.89594e-05
-0.000228226
0.000173408
1.274e-05
0.000240297
-0.000253037
0.00019641
-0.000115392
-8.06953e-05
-0.000206344
2.15161e-05
-1.30081e-06
-0.000297657
0.000298819
0.000225793
-0.000169438
-5.3369e-05
0.000344654
-4.13563e-05
0.000275969
-0.000135829
2.31561e-05
0.000238337
-0.000261493
-0.000231141
0.000254297
-2.66833e-05
-0.000229774
0.000256411
0.000155421
-0.000162659
-7.72622e-05
-0.000168646
-0.000261723
4.14346e-05
0.000220288
-3.17521e-05
-0.00022997
7.1954e-06
0.000261717
-3.25193e-05
-0.000229198
1.67434e-05
0.000126725
-0.000193281
0.000308785
-0.000171397
0.000262319
-3.57923e-05
-0.000226526
-0.000319052
0.00017631
-9.99398e-05
-0.000228453
-6.90203e-05
-6.81014e-07
-0.00029914
0.000299213
-2.74866e-05
0.000181969
-0.000154741
0.000307796
6.85483e-06
0.000250097
-0.000248249
-1.84801e-06
-0.00017682
6.18861e-05
0.000260233
-3.07298e-05
-0.000229566
0.000197345
-0.000250769
5.34242e-05
0.000254205
-0.000231206
-2.29991e-05
-0.000252337
0.000240017
0.000146135
0.000103669
-0.000101864
-0.000170269
0.000132496
-0.000261885
-0.000290249
0.0002422
4.80483e-05
0.000216809
3.12469e-05
-0.000248056
-0.000233841
-1.06385e-05
0.000246001
0.000324853
-2.35239e-05
0.000263996
-3.42721e-05
-0.000229724
0.000139672
-0.000231761
8.75603e-05
3.63259e-05
-0.000265637
0.000229311
-0.000253905
0.000121296
0.000249817
-5.24722e-05
0.000294673
-0.000154253
-0.000140421
0.000122248
-0.000289157
1.53441e-05
0.000237665
-0.000253009
-0.000262031
3.54705e-05
0.00022656
-2.72556e-06
-3.77917e-05
-0.000224239
0.000248805
-0.000272548
-0.000264649
3.44737e-05
0.000230175
0.000193257
0.000101416
-0.000149941
0.000290137
-0.000170531
-3.80368e-05
0.000200025
-1.81721e-05
0.000263201
-0.000292511
0.000310186
0.000120433
0.000105869
0.000261325
-0.000261325
0.000308798
-2.05221e-05
-0.000291228
5.32002e-07
0.000248949
0.000254857
1.65761e-05
0.000309219
-0.000276098
-3.32927e-05
-2.26336e-05
0.000266577
-0.000243943
3.00077e-05
-0.000260519
0.000230511
-0.000252139
0.000229506
0.000329068
3.11501e-05
-0.000260598
0.000229447
0.000276809
-3.16961e-05
-5.89307e-06
-0.000296386
0.000300552
0.000270444
3.87682e-05
0.000230245
-0.000266617
3.63721e-05
0.000201614
-0.000201967
-0.000258301
0.000238533
1.97681e-05
0.000169762
-0.000257245
8.74835e-05
-0.000208737
0.000163241
-0.000249145
8.59043e-05
-0.000266169
0.000224813
4.13562e-05
0.000253073
-2.78797e-05
-0.000225194
0.00017229
4.25916e-05
-0.000234837
-2.29601e-05
0.000257797
-0.000236377
-2.28761e-05
0.000259253
-1.94265e-05
0.000255969
-0.000236542
-0.000259345
0.000239919
-3.22561e-05
0.000171448
-0.000235929
-2.24001e-05
0.000258329
-0.00025484
0.000229192
2.56481e-05
2.94001e-06
0.000211289
-0.000214229
-0.000267031
3.79849e-05
0.000229046
0.000270677
4.48002e-06
4.14586e-05
0.000157683
-0.000199082
-3.312e-05
0.000249926
-2.09974e-05
0.000218597
9.73004e-05
0.000248204
-0.000216956
0.000277216
-0.000279204
0.00027682
-0.000281915
-1.84997e-05
0.000258601
-0.000240101
-0.000261644
0.000243145
3.12558e-05
-0.000203562
-2.98071e-05
-0.000202721
0.000234451
0.000314948
-0.000287559
-2.74541e-05
0.000261297
-3.11081e-05
-0.000230189
3.28739e-05
-0.000262362
0.000229488
-0.000229853
0.000259645
-2.97921e-05
0.000325525
-1.76564e-05
0.000146366
-0.000210368
0.000256929
-0.000109956
-0.000286639
0.000287808
0.000241977
-6.41202e-06
-0.000235565
0.000228537
-0.000183779
-3.77953e-05
0.000225353
2.87789e-05
-0.000206585
-0.000239989
0.000260317
-2.03281e-05
-0.000103255
0.000187876
-8.75436e-05
3.06391e-05
-0.000208465
0.000240169
-0.000263424
2.32552e-05
-0.000115584
0.000258861
-0.000243993
0.000265721
-2.17281e-05
-0.000238953
0.000232541
0.000258626
-0.000245105
-1.35213e-05
0.000264349
-2.46681e-05
-0.000246317
-0.000272652
-1.05115e-05
0.000300098
-5.37169e-05
-7.77597e-06
0.000292479
-0.000286858
-0.000161663
0.000202741
0.000223081
1.88006e-05
-0.00024602
0.000328729
-0.000329178
0.000260955
-0.000245018
-1.59377e-05
-0.000301249
-6.09181e-07
0.000305324
9.71531e-06
3.88907e-05
0.000177841
-0.0002188
0.000209427
-3.32394e-05
-0.000176321
0.000278054
-0.000255789
-2.22648e-05
-0.000206252
3.0554e-05
3.15421e-05
-0.000261891
0.000230348
0.000284609
-0.000291307
2.44721e-05
-0.000259617
-0.000257965
1.87881e-05
0.000266057
-1.64361e-05
0.000151173
-0.000267625
0.000116452
0.000298745
-4.39315e-06
0.000238617
-7.53763e-05
2.12521e-05
0.000177045
-0.000198297
-0.000183877
0.000205129
-0.000236275
0.000257219
-2.09441e-05
0.000261462
-3.31689e-05
-0.000228293
-0.000197009
-5.21362e-05
0.000251581
-1.48401e-06
8.87818e-06
-0.000263558
0.000255284
-0.000343452
0.000236801
0.000106736
0.000266371
-0.000236811
-2.95597e-05
0.000306837
-0.000314599
7.75652e-06
-2.57041e-05
-0.000229097
0.000254801
0.000261493
-7.64403e-06
1.00761e-05
-0.000208799
0.000262411
-3.19033e-05
-0.000230508
-6.90483e-05
-0.000260653
-0.000194685
0.000248025
-5.33402e-05
-0.000266533
0.000249985
1.65481e-05
-0.000317914
1.67253e-05
-1.69777e-05
0.000295978
-0.000279375
-0.000276221
1.65481e-05
0.000249537
-0.000171623
6.53018e-05
0.000273717
1.48442e-05
-0.000288595
-0.000316224
0.000307994
8.2641e-06
3.46641e-05
-0.000263649
0.000228985
-1.74991e-05
0.000281378
-0.000315196
1.63676e-05
-0.000176541
-7.42283e-05
-0.000231627
0.000203151
-2.16721e-05
-0.000216469
0.000238141
-0.000314686
0.000295811
1.88789e-05
-0.000133276
0.000278062
-0.000141859
-8.31549e-06
3.31521e-05
-0.000263453
0.000230301
-0.000208987
2.46735e-05
0.000175347
0.000221505
0.000279457
-0.000280211
3.03425e-07
-0.000236993
-2.20921e-05
0.000224813
-0.000202721
0.000139273
0.000143753
-0.000278517
0.00020064
-5.70333e-05
0.000308023
-1.0535e-05
0.000209339
-0.000268703
2.92853e-05
0.00022306
-0.000252345
-0.000321663
0.000138085
0.000296443
2.91859e-05
1.94578e-05
-0.000224355
-2.77845e-05
-0.000136912
-0.000132654
-0.000326408
0.000113561
0.000242873
2.56201e-05
0.000218765
-0.000224869
1.07243e-05
-0.000287924
0.000277368
-0.00024328
0.000270754
-2.72648e-05
0.000281313
-0.000281745
0.000289307
-7.71263e-05
-8.87047e-06
0.000290164
-1.87881e-05
0.000247101
-0.000228313
0.000281456
-0.000290381
-5.71352e-06
-0.000283974
0.00028966
0.000282057
-0.000269939
0.000284719
0.000226314
2.67597e-05
-0.000310844
0.000318222
-8.20556e-06
0.000245428
-2.25428e-05
0.000225374
2.42969e-05
-0.000268913
0.000246057
-2.05381e-05
-0.000259401
3.02849e-05
0.000229116
0.000178305
7.64963e-05
9.65094e-06
0.000281442
-0.000291124
-0.000238141
-2.88401e-05
0.000266981
2.51441e-05
-0.000263285
0.000284117
-0.000162317
-0.000232177
0.000261129
-2.89521e-05
-0.000234697
0.000260709
-2.60121e-05
1.37118e-06
0.000278145
2.45001e-05
-0.000259197
2.38001e-05
-0.000255977
0.000274345
-0.000242933
-3.13367e-05
0.000317966
-1.0041e-05
-0.000304458
-2.92e-06
-0.000255753
1.1816e-05
0.000243937
-1.64893e-05
-0.000261185
0.000228064
-0.000245337
0.000270145
-2.48081e-05
-0.000263229
1.49801e-05
-2.35893e-05
0.000286379
-0.000262797
2.13641e-05
-0.000266701
-0.000241673
-2.13009e-05
3.26352e-05
-9.0432e-05
0.000260194
0.000280731
-0.000286437
5.05122e-05
0.000237693
0.000282072
-0.000281507
-0.000243181
-2.39401e-05
0.000267121
-0.000260894
7.34723e-06
-0.000295085
1.93765e-05
0.000275986
-0.000268717
2.55361e-05
-8.25291e-06
0.000291173
-0.000268326
0.000243549
2.47774e-05
-0.000232513
0.000210841
0.000279438
-0.000287402
-6.16002e-07
0.000260289
-0.000259673
-0.000301887
-1.61462e-05
-0.000264573
2.35481e-05
-0.00024417
-2.41555e-05
-3.43281e-05
-0.000297862
0.00029399
0.000286674
-0.000158327
0.000296722
-0.000291218
2.30152e-05
4.83953e-06
0.00026137
-0.00025436
-7.10895e-06
0.000307481
-2.02471e-05
-0.000287337
5.93053e-05
-0.000246765
-2.19521e-05
-0.000355766
0.000241416
0.000284276
-0.000278333
2.33801e-05
-0.00018495
-1.54582e-05
-0.000306196
2.56216e-05
0.000280873
-0.000196395
0.000310411
-0.000113769
0.000259841
-0.000238533
-2.13081e-05
-0.000291537
2.94001e-05
0.000222097
-0.000251497
-0.000165325
0.00013879
-0.00016682
0.000251441
-0.000238029
-1.34121e-05
-0.000263873
3.40201e-05
-2.23161e-05
-0.000269837
0.000251469
0.000230427
3.12901e-05
-4.64016e-05
0.000201822
0.000232619
-0.000260499
-1.73268e-05
-3.51433e-06
0.000246417
-0.00024341
-0.000293547
-0.000237049
0.000265189
-2.81401e-05
0.000230096
3.22225e-05
-0.000268521
2.55921e-05
-0.000239905
-2.86161e-05
0.000228954
-0.000260706
-0.00028275
4.73202e-05
-0.000242005
0.000294037
-0.000283226
-0.000287605
1.28822e-05
0.00027446
-5.12202e-06
0.000215867
0.000228551
-0.00026107
0.000296885
-0.0001309
-0.000165985
0.000241328
-0.000262148
0.000271226
-0.000226213
-1.76681e-05
-0.000166578
0.000310205
-0.000143467
2.49649e-05
0.000222662
-0.000247627
-0.00019229
0.000193819
-0.000283358
0.000282096
7.04255e-06
-0.000290352
-0.000302485
0.000146693
0.000155793
0.000259995
-0.000239359
-2.06361e-05
-0.000215741
0.000193649
0.000261329
2.98878e-07
0.000257293
0.000232526
2.168e-05
-0.000295693
-6.21214e-05
9.94127e-06
0.000236701
-0.000253104
1.72386e-05
-0.000230917
-2.37161e-05
0.000254633
-0.000242295
0.000263191
-2.08965e-05
8.33211e-05
0.000135694
2.01678e-05
-0.00030565
0.00028573
0.000256565
-1.80041e-05
-0.000238561
0.000243881
-0.000254017
1.0136e-05
-0.000226745
0.000207957
0.000223131
-0.000258923
-0.000244693
4.76842e-05
1.60035e-05
-0.000137606
-0.000218215
1.57921e-05
0.000245701
0.000280274
0.000295257
0.000305625
1.70827e-06
0.000249817
-0.000220417
2.51749e-05
0.000225009
-0.000250184
-0.000243178
0.000268865
-2.56873e-05
2.28201e-05
-0.000262725
-0.000114736
0.000296559
9.1331e-06
2.08181e-05
0.000261675
-0.000235103
-2.65721e-05
1.30252e-05
-0.000303114
0.000290236
0.00032076
-3.0889e-05
-0.000289918
0.000249733
1.63241e-05
0.000305404
-0.000292107
-0.00023066
-0.000112485
9.63204e-06
0.000250657
-4.9129e-05
-0.00020239
0.000251519
2.20333e-05
0.000246832
-0.000241686
-2.29629e-05
0.000260737
-2.24001e-05
0.000287981
-0.000268023
2.63369e-05
2.68241e-05
-0.000257965
0.000210617
-0.000207677
2.58161e-05
-0.000262865
0.000280653
0.000121744
-0.000256173
0.000134429
1.9081e-05
3.8609e-05
0.000157363
-0.000204332
-0.000239485
-2.85377e-05
3.95933e-05
0.000169284
-0.00020649
-0.000246691
0.000271066
-2.43747e-05
0.000209866
-0.000248826
1.98857e-05
1.73434e-05
-0.000172095
-2.95668e-05
0.000226667
-0.000257417
-2.88401e-05
0.000244245
-0.000215405
-2.16161e-05
0.000242985
-0.000221369
0.000201657
-0.000250786
-0.000273484
-0.000232905
-2.55081e-05
0.000258413
0.000241234
2.98318e-05
-0.000216627
-2.35127e-05
0.000241183
-2.18821e-05
-0.000224967
-0.000239345
6.28042e-05
0.000259004
-0.000229718
4.75106e-05
-0.000249901
-3.43393e-05
0.000257694
-0.000223354
0.000205675
-0.000240014
0.000261689
-1.1956e-05
-6.06764e-05
-0.000229572
-0.000218797
-1.8811e-05
0.000235898
0.000247109
5.3175e-05
0.000212448
-0.000265623
-0.000261088
0.000177353
-0.000231757
5.44042e-05
6.42734e-05
0.000136464
0.000259457
-0.000240915
-2.47224e-05
-0.000265385
0.000227165
3.82201e-05
-2.87813e-05
-0.000222158
0.00025094
-0.000284286
0.000264161
0.000234501
3.61761e-05
2.18821e-05
0.000234087
-0.000307217
0.000151089
0.000156129
0.000173439
-5.38345e-05
0.000254045
-0.000115192
2.56901e-05
0.000217446
-0.000243136
-0.000285815
0.000287349
9.33431e-06
0.000257377
-0.000245953
0.000208937
3.70161e-05
0.000254832
0.000248456
-1.89384e-05
-0.000246815
-2.02161e-05
-0.000263019
2.0724e-05
-0.000269215
2.24001e-05
2.79601e-05
0.000220024
-0.000247984
0.000242481
-0.000274597
1.32721e-05
0.0002484
-1.36344e-05
1.40177e-05
-0.000249252
-0.000328653
0.000124086
-0.000233135
-2.62109e-05
-0.000252113
0.000252113
0.000259782
-0.000144217
-1.88155e-05
-0.000278063
0.000296748
0.000277062
0.000258749
-0.000135913
0.000224113
2.39205e-05
0.00023468
7.85037e-05
-0.000342226
3.78483e-05
0.000258962
1.76363e-05
-0.000248843
-3.00917e-05
0.000207453
-3.01001e-05
0.000259701
2.95429e-05
0.000218353
-0.000247896
-3.05014e-05
-4.09782e-05
-0.000217818
0.000258797
-0.000233423
-2.14173e-05
3.70583e-05
-0.00020041
0.000154818
-3.30877e-05
0.000221671
-0.000255943
-0.000281519
-8.52125e-06
0.000290083
-0.000192041
0.000156015
0.000166349
8.16763e-05
1.28884e-05
-0.00029472
0.000235075
2.59446e-05
-0.000261019
-0.000196634
-1.05046e-06
0.000232743
-0.000264287
3.15449e-05
-8.42803e-06
-0.000217029
0.000225457
-0.000166388
0.000197251
-0.000249985
-3.46025e-05
0.000256274
0.000218076
-0.000252679
-0.000246289
0.000272245
-2.59561e-05
0.000253547
2.78321e-05
-0.000232062
-2.95821e-05
-0.000298305
0.000317323
-1.82403e-05
2.33139e-05
0.000212462
-0.000250254
-0.000267233
2.09441e-05
-2.12801e-05
-0.000245953
-3.61481e-05
0.00024861
-0.000289855
-1.3763e-05
0.00022082
-0.000256968
0.000247068
-0.000249417
1.56215e-06
2.80002e-06
0.000181413
-0.000184213
0.000255294
0.000234529
2.67681e-05
-2.62361e-05
0.000245001
-0.000218765
3.36001e-05
0.000216609
-0.000250209
0.000244861
2.73841e-05
0.000306545
-0.000143949
-0.000162597
1.55063e-05
0.00023969
-0.000255506
0.000271013
-0.000113568
0.000225569
-0.000256677
-0.000241464
0.000104447
-0.000265469
7.16803e-06
-0.000241635
-2.75801e-05
-0.000241361
-2.48081e-05
0.000310046
-2.72851e-05
-7.67483e-05
0.000243097
-1.1452e-05
-0.000215601
0.000224281
-8.68003e-06
0.000255193
-7.68883e-05
3.37039e-05
-0.00019423
0.000155324
-0.000265245
-1.40001e-07
-4.14962e-05
3.90801e-05
0.000154733
-0.000203164
0.000188449
-0.000161375
0.000257041
-7.05603e-06
0.000251151
-0.000218277
-1.81962e-05
-2.1128e-05
0.000271664
-9.3612e-05
-0.000175789
-1.42801e-05
-0.000191913
0.000206193
0.000258665
-1.53553e-05
-0.00024331
1.98101e-05
0.000238855
-0.000279349
-8.17569e-06
3.76578e-05
-0.000199071
0.000165965
1.36921e-05
0.000247997
-0.000161617
0.000205026
-1.95189e-05
0.000248711
3.30102e-05
0.000192162
-0.000220436
-4.17202e-06
-2.49389e-05
0.000265108
-0.000231955
-3.14693e-05
0.000297125
-0.00028208
-1.52359e-05
1.63717e-05
-0.000237659
0.000221288
-0.00010514
0.000226885
1.92383e-05
-0.000305251
0.000285996
2.52001e-05
-2.79441e-05
2.69165e-05
0.000308848
-0.000289633
0.000238891
1.97345e-05
2.15601e-06
0.000231617
-0.000233773
-0.000310311
2.56432e-05
0.000284671
-0.000162177
-0.000144145
0.000209178
-0.000250156
-0.000172431
0.000241924
1.90317e-05
0.000257607
-4.13534e-05
0.000250531
0.000214498
-0.000255851
0.000318431
-0.000319205
-1.06441e-05
0.000287096
-0.000276522
-0.000302948
1.96856e-05
0.000283503
4.20842e-05
-0.000286413
-3.96264e-05
0.000252483
2.62921e-05
-2.22115e-05
0.000307386
-0.000285544
2.43321e-05
3.93114e-05
0.00015656
-0.00019284
0.000249294
-0.000219751
2.83277e-05
-0.000261633
4.36802e-06
-2.00018e-05
0.000306848
-0.000286877
-0.000250987
-0.000266673
3.07441e-05
0.000252141
-0.000236741
-1.54001e-05
1.2264e-05
0.000239877
-0.000275517
-1.29292e-05
0.000255697
-6.90266e-06
0.000315014
-1.18292e-05
0.00029853
-0.000286272
-4.72367e-05
0.000247437
-0.000235621
0.000257601
-1.99361e-05
0.000133764
8.81346e-05
-0.000221145
0.000227571
3.03493e-05
0.000226759
-0.000258662
3.71393e-05
0.000271764
-0.0002887
1.68418e-05
0.000251273
-0.000239093
-1.31321e-05
0.000252225
-2.91201e-05
-0.000257265
2.56481e-05
0.000231617
-0.000228005
-2.92601e-05
0.000259765
-0.000233571
-2.61941e-05
0.000258721
-0.000267041
2.26328e-06
0.000288968
1.26985e-06
-0.000290538
0.000250054
-0.000234513
-1.85921e-05
0.000308703
-0.000300898
-8.01331e-06
0.000247212
-0.000100758
-0.000266897
2.56761e-05
0.000241221
-3.48881e-05
-0.000232009
-0.000266393
2.51161e-05
0.000241277
-1.22077e-05
-0.000266566
0.000279704
-3.45241e-05
-0.000231869
-0.000261385
1.86492e-05
-0.000266281
2.43881e-05
0.000241893
-0.000283779
-2.16844e-05
-0.000305482
2.76144e-05
0.000278797
-3.34041e-05
-0.000232877
-0.000176229
-0.000258133
2.94001e-05
0.000228733
0.00030895
-0.000308962
-0.000195805
0.000209049
-3.29281e-05
-0.000225205
0.000197464
-0.000279016
8.17101e-05
0.000283715
2.22661e-05
-0.000301953
1.76961e-05
0.000285522
-0.000280654
-4.94532e-06
-0.000257125
0.000231617
2.55081e-05
0.000167322
2.85111e-05
-0.000201427
-0.000266953
2.81681e-05
0.000238785
-0.000227361
-2.97641e-05
-3.67361e-05
-0.000230217
0.000275199
0.000298245
1.92699e-05
-0.000275999
-3.16286e-05
0.000307542
-0.000258679
-1.05944e-05
0.000297968
-0.000287236
1.49973e-05
-0.000301923
0.000286938
-0.000230609
-0.000307554
0.000287496
0.000263005
-2.53561e-05
-0.000279586
1.36081e-05
0.000157228
0.000231345
1.85015e-05
-0.000248503
-0.00019608
0.00015153
0.000236738
1.31517e-05
-0.00024989
-0.00025833
2.66093e-05
0.000231721
-1.09228e-05
0.000247661
5.74002e-06
0.000246877
-3.19817e-05
-0.000226348
0.000299506
-0.000285738
-1.38692e-05
0.000228024
-0.000226666
0.000289657
0.000237685
1.98521e-05
-0.000257537
-1.24236e-05
0.000250108
0.000246636
1.50389e-05
-0.000306234
1.54595e-05
0.00024448
2.18905e-05
3.20594e-05
-0.000197609
-0.000287577
-1.76943e-05
-0.000182869
0.000295177
-0.00015029
0.000177841
-3.32934e-05
3.1208e-05
-0.000201699
0.000176003
-0.00016202
0.000259149
-0.000239236
-1.99137e-05
0.000261959
-0.000273894
-0.000240047
0.000232446
-2.17695e-05
0.000300714
-0.000278631
0.000308066
-0.000293046
0.000242117
1.77241e-05
-0.000224975
0.00024443
-1.94545e-05
1.61001e-05
-0.000241075
-7.00003e-06
0.000260989
-0.000297078
4.8639e-06
0.000292342
-0.000174497
0.000160217
-1.74105e-05
-6.20841e-06
-0.000290829
-1.68173e-05
-0.000285085
4.28402e-06
-0.000301441
0.000136285
-0.000257455
2.36669e-05
0.000233794
0.000238197
1.32441e-05
-3.08139e-05
-0.000226645
-3.30677e-05
-0.000291501
2.19621e-05
-0.000220436
0.000197709
0.000254969
-0.000233465
-2.15041e-05
-0.000192464
0.000210857
-0.000184786
-7.32598e-06
0.000205086
0.000136134
0.000140612
4.03024e-06
0.000271449
0.000279339
-0.00030422
3.76293e-06
0.00024312
-1.99456e-05
0.000298976
-0.000279614
-0.000302311
0.000287438
1.48954e-05
-0.000258301
0.000230077
2.82241e-05
-2.64041e-05
-0.000231897
0.000301183
-0.000301039
0.000267771
-2.00044e-05
0.00030464
-0.000284019
0.000286008
-3.91851e-07
-0.000256873
0.000256873
-0.000267836
0.000296453
-0.000138708
-6.4542e-05
-7.41668e-06
0.000294087
-0.000286536
-0.000297895
0.000291073
0.000291591
-0.00027942
0.000290476
-0.000305943
1.4714e-05
3.47028e-05
-0.000244026
0.000220792
2.25655e-05
-1.44969e-05
-0.000243138
0.000224451
-1.42764e-05
0.000298383
-0.000284076
0.000263481
-1.96001e-05
0.000254224
-0.000235464
-1.87601e-05
-3.08679e-05
-0.000272887
0.000304906
1.43654e-05
-0.000297189
0.000282713
-1.45881e-05
0.000233465
-0.000218877
0.00020001
-0.000295567
0.000283568
-1.92584e-05
0.000304673
-0.000285388
0.00025102
-2.69322e-05
0.000296993
-0.000270022
-0.000295892
0.000269024
1.07156e-05
0.000244749
-0.000255465
0.000305323
-0.000312052
6.79017e-06
1.77659e-05
1.49149e-05
0.000286182
-0.000301087
6.29222e-06
0.000282662
2.36227e-06
-0.000318377
-0.000290066
0.000305148
-0.000242481
0.000243657
8.45603e-06
-0.0002264
0.000242772
-0.0002934
0.000274141
0.000284584
-0.000153116
-8.29707e-05
0.000294473
1.44541e-05
3.12369e-05
-0.000197797
0.000157571
-0.000274512
0.000257293
-0.000219535
0.00024982
0.000243411
1.92865e-05
-0.000262697
0.000236019
2.31309e-05
-0.000300861
0.000282487
0.000312511
-1.79323e-05
0.000237945
-0.000257069
1.91241e-05
-0.000222494
0.000247459
0.000294495
1.80382e-05
-0.00017241
-1.47263e-05
0.00029837
-0.000283714
-0.000141638
-0.000266415
0.000159993
0.000106423
-0.000310219
0.000295773
1.36943e-05
-0.000258699
0.000241826
1.68729e-05
-0.000150596
0.000153322
-0.000306441
0.000288533
1.78263e-05
-0.000221151
0.000186363
-9.69084e-06
0.000253101
2.04847e-05
1.76037e-05
-0.000304362
0.000286917
-0.000300237
-7.41774e-06
0.000307503
-0.000249229
0.000220109
-0.000201153
-8.52603e-05
-0.000272495
0.000251764
0.000304122
-0.00028644
-0.00019164
1.73995e-05
1.50717e-05
0.000284443
-0.00029949
-8.80603e-05
0.000239233
-0.000303478
1.9427e-05
0.000283971
-0.000207041
-2.97382e-06
-0.000297731
-0.000174261
2.05297e-05
0.000302889
-0.000288195
-1.44327e-05
-0.00016875
-0.000297821
-0.000177349
-2.25984e-05
0.000243528
0.000289595
1.71613e-05
0.000252869
5.7672e-05
-0.000285371
-0.000247213
-0.000270739
-2.37425e-05
-0.000274261
0.000300296
-0.000263075
0.00028277
-0.000166792
-4.12352e-05
0.00021216
0.000197569
1.56521e-05
-0.000213221
-1.24661e-05
-0.000285611
0.000298095
1.83597e-05
1.85644e-05
-0.000305537
0.000286973
0.000253345
-1.71361e-05
-0.000236209
1.88915e-05
-0.000304417
0.000285554
2.03561e-05
0.000232989
0.000216385
-2.46121e-05
-0.000191773
1.57753e-05
0.000282533
-0.000298176
-0.0002489
0.000118068
-0.000303889
1.85882e-05
0.000284866
0.000216641
-5.07447e-05
-0.000293753
1.38869e-05
0.000279329
0.000255837
-2.19801e-05
-0.000233857
-0.000302086
0.000105659
0.000234529
1.70521e-05
-0.000251581
0.000280304
1.67969e-05
0.000303812
-0.000284867
1.79142e-05
-0.000299866
0.000233512
1.84916e-05
-0.000252004
-1.89587e-05
-1.43438e-05
0.000298462
-0.000284101
-0.000280583
0.000300443
-0.00027805
0.000292204
-0.000303991
1.20636e-05
0.000249741
-1.62291e-05
1.17251e-05
0.000250041
-1.55121e-05
0.000298698
-0.000282549
3.95922e-05
-0.00023478
2.21481e-05