/*--------------------------------*- C++ -*----------------------------------*\
  =========                 |
  \\      /  F ield         | OpenFOAM: The Open Source CFD Toolbox
   \\    /   O peration     | Website:  https://openfoam.org
    \\  /    A nd           | Version:  12
     \\/     M anipulation  |
\*---------------------------------------------------------------------------*/
FoamFile
{
    format      ascii;
    class       volVectorField;
    location    "2.9";
    object      U;
}
// * * * * * * * * * * * * * * * * * * * * * * * * * * * * * * * * * * * * * //

dimensions      [0 1 -1 0 0 0 0];

internalField   nonuniform List<vector> 
46253
(
(1.28663 -0.00332118 0)
(1.2 -1.9397e-13 0)
(1.2 2.65619e-08 0)
(1.2 -3.07476e-13 0)
(1.2 -3.80362e-09 0)
(1.2 6.63074e-10 0)
(1.32506 -0.0254971 0)
(1.12018 0.00636334 0)
(1.2 -1.28435e-13 0)
(1.2 8.80018e-14 0)
(1.28565 -0.00308698 0)
(1.32829 -0.0822634 0)
(1.2 1.12672e-14 0)
(1.2 -2.17604e-13 0)
(1.2 7.87709e-14 0)
(1.2 1.97903e-13 0)
(1.2 3.23895e-13 0)
(1.2 5.24945e-14 0)
(1.2 7.49572e-15 0)
(1.2 -1.66064e-13 0)
(1.2 3.20347e-14 0)
(1.2 1.49966e-11 0)
(1.2 8.74016e-14 0)
(1.30311 -0.00381439 0)
(1.32195 -0.0346407 0)
(1.2 -4.02491e-13 0)
(1.2 -6.00199e-15 0)
(1.2 -3.38634e-13 0)
(1.2 -3.47262e-13 0)
(1.12092 0.00535745 0)
(1.12885 0.0520075 0)
(1.2 7.28524e-13 0)
(1.2 -1.14823e-09 0)
(1.2 3.97693e-14 0)
(1.2 9.86702e-14 0)
(1.2 -4.74253e-14 0)
(1.2 -1.72137e-13 0)
(1.2 -4.84713e-13 0)
(1.13757 -0.00957589 0)
(1.2 -2.09126e-14 0)
(1.32291 -0.0616054 0)
(1.32927 -0.0815998 0)
(1.2 3.59621e-11 0)
(1.2 7.13522e-11 0)
(1.35745 -0.11392 0)
(1.2 1.65364e-14 0)
(1.2 -1.30042e-14 0)
(1.2 6.58237e-17 0)
(1.2 5.10297e-08 0)
(1.2 5.61428e-08 0)
(1.2 -6.34152e-07 0)
(1.20002 -1.38647e-05 0)
(1.2 -2.11458e-13 0)
(1.12322 0.00483549 0)
(1.20002 -4.4635e-07 0)
(1.28745 -0.0438057 0)
(1.20228 -0.00108674 0)
(1.20602 -0.00491133 0)
(1.04408 0.0776758 0)
(1.35639 -0.0733831 0)
(1.2 -6.70581e-14 0)
(1.34559 -0.100115 0)
(1.2 -8.02508e-15 0)
(1.2 2.73617e-14 0)
(1.2 -3.62534e-15 0)
(1.2 -1.30723e-12 0)
(1.2 -5.30796e-12 0)
(1.2 1.32854e-13 0)
(1.28587 -0.0420513 0)
(1.35381 -0.111599 0)
(1.32553 -0.024356 0)
(1.14928 0.0263948 0)
(1.15341 0.0313678 0)
(1.15587 0.000790287 0)
(1.2 -4.3963e-14 0)
(1.30538 -0.00366542 0)
(0.998689 0.002003 0)
(1.00087 0.000559162 0)
(1.2 -4.41277e-14 0)
(1.2 5.53122e-09 0)
(1.2 6.43263e-09 0)
(1.05386 0.038521 0)
(1.2 -1.38738e-13 0)
(0.993399 0.0183432 0)
(1.31979 -0.0424872 0)
(1.2 6.27208e-14 0)
(1.04174 -0.000224129 0)
(1.04316 -0.000440012 0)
(1.1253 0.00111711 0)
(1.2 1.16419e-13 0)
(1.2 -3.95239e-15 0)
(1.32567 -0.0618541 0)
(1.2 8.00584e-14 0)
(1.1998 0.000110328 0)
(1.2 4.10976e-14 0)
(1.19966 0.000318885 0)
(1.2 -2.4947e-15 0)
(1.2 -2.13026e-13 0)
(1.04598 0.0773639 0)
(1.2 -1.02608e-13 0)
(1.2 -5.16094e-14 0)
(1.2 5.09866e-15 0)
(1.2 9.0197e-15 0)
(1.13247 0.050759 0)
(1.2 1.92528e-06 0)
(1.32034 -0.0434838 0)
(1.32686 -0.0794874 0)
(1.07198 0.000402599 0)
(1.07332 0.000211959 0)
(1.31326 -0.0677491 0)
(1.13404 0.0143318 0)
(1.1096 0.0539493 0)
(1.08694 0.0707198 0)
(1.2 -7.95189e-14 0)
(1.2 -2.32533e-14 0)
(1.12479 0.00120704 0)
(1.35111 -0.105941 0)
(1.35608 -0.0718011 0)
(0.919616 0.080179 0)
(1.28003 -0.0372444 0)
(1.2 5.4991e-14 0)
(1.2 -8.62869e-11 0)
(0.954116 0.00647834 0)
(0.962501 0.00395935 0)
(1.2 2.55098e-15 0)
(0.918082 0.074872 0)
(1.2 -1.71577e-13 0)
(1.30116 -0.0549108 0)
(1.20219 -0.000463758 0)
(1.01228 0.00153199 0)
(1.09238 -0.000164119 0)
(1.09363 -0.00044176 0)
(1.2 -1.22155e-10 0)
(1.32035 -0.0222015 0)
(1.0147 0.000990449 0)
(1.2 -9.12877e-14 0)
(1.02518 0.000114245 0)
(1.02704 -5.47624e-06 0)
(1.28406 -0.0392983 0)
(1.2 7.62053e-14 0)
(0.992168 0.00274498 0)
(1.10359 -0.000634635 0)
(1.10488 -0.000775069 0)
(1.13809 0.0481416 0)
(0.989596 0.00411437 0)
(1.19977 -4.54366e-05 0)
(1.03642 -0.00057286 0)
(1.03812 -0.000604696 0)
(1.13274 -0.00118841 0)
(1.2 7.07651e-14 0)
(1.31566 -0.0692186 0)
(1.2 9.76981e-14 0)
(1.01854 0.00104718 0)
(1.02069 0.00102244 0)
(1.16337 0.0374286 0)
(1.35382 -0.11103 0)
(1.30263 -0.0551708 0)
(1.2 2.00395e-14 0)
(1.05113 -0.000430673 0)
(1.2 -2.58813e-07 0)
(1.05253 -0.000530551 0)
(1.32689 -0.0796371 0)
(1.29117 -0.0456228 0)
(1.2 -2.12522e-13 0)
(1.32312 -0.0354847 0)
(1.03143 4.57667e-05 0)
(1.32028 -0.0212562 0)
(1.03274 -6.60391e-05 0)
(0.805003 0.0318056 0)
(1.2 9.06025e-14 0)
(1.05964 -0.000474114 0)
(1.0609 -0.000497821 0)
(1.2 -2.62519e-12 0)
(1.31832 -0.0559134 0)
(1.2 -2.08726e-07 0)
(1.35868 -0.118658 0)
(1.13783 -0.0102499 0)
(1.2 -1.04212e-13 0)
(1.112 -0.00408933 0)
(1.34857 -0.105116 0)
(1.2 -8.32353e-08 0)
(1.16501 0.0370581 0)
(1.06783 -2.44445e-05 0)
(1.0691 1.72821e-05 0)
(1.2 1.36273e-13 0)
(1.0465 -0.000445227 0)
(1.04817 5.56606e-05 0)
(1.35921 -0.114959 0)
(1.2 -2.62912e-13 0)
(1.2 -1.06698e-13 0)
(1.2 -1.17132e-13 0)
(1.2 3.12672e-13 0)
(1.3508 -0.106972 0)
(1.2 1.97895e-13 0)
(1.2 -2.90093e-13 0)
(1.2 -2.78051e-13 0)
(1.13506 0.0145731 0)
(1.2 -3.80455e-14 0)
(1.15876 -0.00126014 0)
(1.15973 -0.00124382 0)
(1.2 5.4429e-14 0)
(1.2 2.5142e-14 0)
(1.05569 -0.00027071 0)
(1.05665 -0.000142131 0)
(1.2 -9.65647e-14 0)
(1.35116 -0.108536 0)
(1.16857 0.0357036 0)
(1.08052 0.000149233 0)
(1.08158 0.000148929 0)
(1.2 -6.14939e-15 0)
(1.2 -3.45083e-14 0)
(0.919203 0.0841992 0)
(1.31935 -0.0554556 0)
(1.2 -3.57878e-15 0)
(1.1375 -0.0150989 0)
(1.2 -1.80387e-15 0)
(1.1412 0.0471661 0)
(1.32475 -0.0505719 0)
(1.08847 -0.000143417 0)
(1.2 -1.66767e-12 0)
(1.2 -1.13589e-14 0)
(1.08967 -0.000246688 0)
(1.36185 -0.120281 0)
(1.06388 -0.000135405 0)
(1.06495 0.000140379 0)
(1.32913 -0.055143 0)
(1.2 2.16417e-13 0)
(1.2 -2.01103e-13 0)
(1.17412 -0.00190555 0)
(1.17555 -0.0017901 0)
(1.08363 0.0680961 0)
(1.2 4.3382e-14 0)
(1.2 1.82603e-13 0)
(1.2 5.33636e-15 0)
(1.2 4.50674e-14 0)
(1.2 -8.98753e-14 0)
(1.2 -2.88009e-13 0)
(1.2 -6.30315e-14 0)
(1.08531 0.0674721 0)
(1.0721 0.0716805 0)
(1.2 2.58396e-13 0)
(1.2 -6.31862e-14 0)
(1.2 2.12715e-13 0)
(1.2 -2.92406e-13 0)
(1.2 -7.47136e-14 0)
(1.2 -1.46919e-14 0)
(1.2 3.04675e-14 0)
(1.16958 0.0352319 0)
(1.2 2.05448e-13 0)
(1.10005 -0.000712412 0)
(1.10104 -0.000789119 0)
(1.07401 0.0711044 0)
(1.18938 -0.00294036 0)
(1.2 7.82132e-14 0)
(1.19076 -0.00257563 0)
(1.07612 0.000185826 0)
(1.07759 0.000399792 0)
(1.27489 -0.0319945 0)
(1.32618 -0.0673738 0)
(1.2 -6.84532e-14 0)
(1.32096 -0.0092102 0)
(1.32059 -0.0744015 0)
(1.31748 -0.0703642 0)
(1.13677 0.0489503 0)
(1.16413 0.00553746 0)
(1.2 6.96782e-14 0)
(1.2 -2.00312e-14 0)
(1.2 -5.31571e-14 0)
(1.08443 0.000273175 0)
(1.11143 -0.00119175 0)
(1.08553 0.000236691 0)
(1.2 9.31317e-15 0)
(1.2 4.21152e-14 0)
(1.2 1.80126e-14 0)
(1.11218 -0.00155684 0)
(1.2 1.83513e-13 0)
(1.19986 7.96353e-05 0)
(1.2 3.80285e-14 0)
(1.12154 0.00345012 0)
(1.26083 -0.0223164 0)
(1.20298 -0.00335928 0)
(1.20359 -0.00311913 0)
(1.2 -6.60603e-14 0)
(1.2 1.75882e-15 0)
(1.2 -3.95388e-14 0)
(1.32867 -0.106802 0)
(1.35748 -0.0857934 0)
(1.27951 -0.0368379 0)
(1.14702 0.0443232 0)
(1.2 -2.23299e-14 0)
(1.0515 0.0766435 0)
(1.05341 0.076258 0)
(1.3288 -0.054727 0)
(1.2 -1.34975e-14 0)
(1.05859 0.0751306 0)
(1.105 0.0608606 0)
(1.2 -1.23646e-13 0)
(1.1082 0.0604799 0)
(1.32511 -0.0556543 0)
(1.11739 -0.001535 0)
(0.931444 0.0847183 0)
(1.11836 -0.0017919 0)
(1.29547 -0.0512145 0)
(0.933059 0.0747612 0)
(1.2 1.09936e-13 0)
(1.0961 -0.000743054 0)
(1.09729 -0.000541289 0)
(1.2 5.83666e-14 0)
(1.13907 0.0500361 0)
(1.2 -1.85694e-13 0)
(1.2 4.66204e-14 0)
(1.11432 -0.00211138 0)
(1.2 -3.15688e-14 0)
(1.12423 -0.00159434 0)
(1.2 -3.40755e-14 0)
(1.1249 -0.00214082 0)
(1.29187 -0.0420879 0)
(1.06047 0.0746699 0)
(1.2 1.07328e-13 0)
(1.12062 0.00288573 0)
(1.3002 -0.0538532 0)
(1.2 1.3413e-14 0)
(1.32333 -0.026092 0)
(1.32092 -0.0334574 0)
(1.13259 -0.00796211 0)
(1.15002 0.0428966 0)
(1.2 7.95761e-15 0)
(1.2 2.88343e-14 0)
(1.13011 -0.00159871 0)
(1.13106 -0.00208222 0)
(1.22698 -0.00384638 0)
(1.22845 -0.00363286 0)
(1.2 -1.61711e-15 0)
(1.2 5.17098e-14 0)
(1.2 -5.29211e-14 0)
(1.26812 -0.0546584 0)
(1.27704 -0.0341595 0)
(1.10769 -0.00104932 0)
(1.10909 -0.000671029 0)
(1.2 -1.57688e-14 0)
(1.2 -1.78211e-13 0)
(1.2 3.39741e-14 0)
(1.2 2.44738e-14 0)
(0.914837 0.0630082 0)
(1.2 1.29117e-13 0)
(1.13617 -0.00183765 0)
(1.1372 -0.00210261 0)
(1.2 -9.87209e-14 0)
(1.28305 -0.0389202 0)
(1.2 -8.14838e-14 0)
(1.11941 0.0115085 0)
(1.2 -1.53031e-13 0)
(1.35336 -0.10849 0)
(1.2 -2.46317e-14 0)
(1.32306 -0.0772679 0)
(1.2 -1.96479e-13 0)
(1.11411 -0.00155023 0)
(1.2 4.19622e-14 0)
(1.11488 -0.0013847 0)
(1.2 -1.27405e-13 0)
(1.32364 -0.0772325 0)
(1.2 -1.25648e-13 0)
(1.2 1.10887e-13 0)
(1.2 -4.86955e-14 0)
(1.2 8.68739e-14 0)
(1.2 2.78008e-14 0)
(1.2 -1.32696e-13 0)
(1.2 -2.09627e-14 0)
(1.14294 -0.00146571 0)
(1.2 -4.17495e-14 0)
(1.2 -2.20426e-14 0)
(1.2 1.82438e-13 0)
(1.2 1.48288e-13 0)
(1.14401 -0.00182795 0)
(1.2 1.05725e-14 0)
(1.06554 0.0737 0)
(1.2876 -0.0408521 0)
(1.2 -5.11787e-14 0)
(1.2 4.21323e-14 0)
(1.2 -7.57065e-14 0)
(1.3237 -0.0486406 0)
(1.14661 0.0140833 0)
(1.29974 -0.0538333 0)
(1.12108 -0.0016477 0)
(1.12197 0.00362699 0)
(1.12195 -0.00120605 0)
(1.2 9.40736e-14 0)
(1.2 -6.46737e-14 0)
(1.14884 -0.00121481 0)
(0.89171 0.0753453 0)
(1.2 -5.84982e-14 0)
(1.14606 0.0451297 0)
(1.14989 -0.00143693 0)
(1.36658 -0.099454 0)
(1.2 1.58428e-13 0)
(1.12649 0.00637963 0)
(1.17908 0.0306657 0)
(1.17981 0.0309786 0)
(1.2 -1.07798e-13 0)
(1.14669 -0.0246219 0)
(1.2 1.28398e-13 0)
(1.25379 -0.004369 0)
(1.2558 -0.00354278 0)
(1.06772 0.0729136 0)
(1.2 -2.29657e-13 0)
(1.19986 8.64957e-06 0)
(1.2 5.94912e-14 0)
(1.2 -7.52562e-14 0)
(1.2 -3.6911e-14 0)
(1.2 -2.19701e-13 0)
(1.2 3.68553e-14 0)
(1.2 -2.18929e-14 0)
(0.954825 0.0843094 0)
(1.2 2.51501e-13 0)
(1.14742 -0.0236807 0)
(1.2 -4.09401e-10 0)
(1.36335 -0.115531 0)
(1.2 7.32462e-15 0)
(1.2 1.42459e-14 0)
(1.27446 -0.0316897 0)
(1.2 3.41134e-10 0)
(1.2 7.00866e-15 0)
(1.15586 -0.00102368 0)
(1.2 -1.81096e-13 0)
(1.12721 -0.00181191 0)
(1.2 -8.26047e-14 0)
(1.2 2.58822e-15 0)
(1.15679 -0.001549 0)
(1.12809 -0.00123936 0)
(1.2 1.91491e-13 0)
(1.12986 -0.00580961 0)
(1.2 8.31567e-14 0)
(1.2 6.14922e-14 0)
(1.2 -2.34258e-13 0)
(1.2 -5.38195e-14 0)
(1.16946 -0.0385056 0)
(1.12173 0.0049178 0)
(1.2 1.15409e-13 0)
(1.2 1.8716e-14 0)
(1.12418 0.00519247 0)
(1.29887 -0.0528541 0)
(1.2 5.57474e-11 0)
(1.37906 -0.0796046 0)
(1.2 3.40741e-13 0)
(1.16833 -0.0347847 0)
(1.16018 0.0387792 0)
(1.2 1.72124e-13 0)
(1.2 1.48048e-13 0)
(1.28404 -0.0372631 0)
(1.2 -3.39909e-14 0)
(1.25873 -0.0211873 0)
(1.14207 -0.0233612 0)
(1.2 2.50894e-14 0)
(1.36379 -0.111311 0)
(1.2 1.54618e-15 0)
(1.07585 0.063554 0)
(1.12806 0.00953796 0)
(1.1999 -3.84936e-05 0)
(1.13359 -0.00199098 0)
(1.21944 0.00974373 0)
(1.2 8.5472e-14 0)
(1.22335 0.0111629 0)
(1.22212 0.0132441 0)
(1.13422 -0.00146094 0)
(1.2 -1.24548e-13 0)
(1.21329 -0.000728905 0)
(1.2 -9.60129e-14 0)
(1.2 1.86345e-13 0)
(1.2 -1.46375e-09 0)
(1.2 1.27835e-13 0)
(1.2 1.20106e-13 0)
(1.10707 -0.0117157 0)
(1.2 -8.62081e-14 0)
(1.12818 0.00821832 0)
(1.2968 -0.0518076 0)
(1.16542 -0.00119126 0)
(1.26704 -0.0273472 0)
(1.17253 0.0332785 0)
(1.16632 -0.00133026 0)
(1.13508 -0.000299467 0)
(1.27224 -0.0046315 0)
(1.27373 -0.00400983 0)
(1.2 1.09807e-13 0)
(1.2 2.29508e-13 0)
(1.2 1.3269e-13 0)
(1.2 -1.43585e-13 0)
(1.20151 -0.00279354 0)
(1.2 -5.63045e-14 0)
(1.25559 -0.0191345 0)
(1.3271 -0.0531001 0)
(1.34099 -0.094774 0)
(1.25432 -0.0182514 0)
(1.16823 -0.03654 0)
(1.35917 -0.0772534 0)
(1.1693 -0.0365758 0)
(1.2 6.71892e-14 0)
(1.2 -3.34136e-13 0)
(1.13986 -0.00173482 0)
(1.15081 -0.026136 0)
(1.31712 -0.0703543 0)
(1.14082 -0.00122666 0)
(1.17171 -0.00135767 0)
(1.17231 -0.00200584 0)
(1.2783 -0.00470311 0)
(1.32358 -0.0670341 0)
(1.2 1.45387e-13 0)
(1.27957 -0.00416872 0)
(1.13398 0.0500744 0)
(1.2 -1.37428e-14 0)
(1.2 -8.0809e-15 0)
(1.2 6.84037e-14 0)
(1.32232 -0.0772992 0)
(1.2 -2.04458e-12 0)
(1.12134 0.00300954 0)
(1.36825 -0.117803 0)
(1.2 5.21334e-14 0)
(1.2 -4.07859e-14 0)
(1.16233 -0.0319666 0)
(1.2 6.73695e-14 0)
(1.2 -4.8638e-14 0)
(1.20011 -0.00384624 0)
(1.36921 -0.131843 0)
(1.1443 -0.025437 0)
(1.2 5.10652e-14 0)
(1.2 -8.64837e-14 0)
(1.14332 -0.0255018 0)
(1.2 4.29217e-13 0)
(1.14428 -0.0256595 0)
(1.14373 -0.0179173 0)
(1.14368 -0.025349 0)
(1.2 -5.02459e-15 0)
(1.14967 -0.0190726 0)
(1.14462 -0.0138722 0)
(1.2 5.71857e-14 0)
(1.21962 0.00886259 0)
(1.15049 -0.025356 0)
(1.2 -3.17504e-13 0)
(1.2 2.45402e-14 0)
(1.14621 -0.00148459 0)
(1.2 -1.60424e-14 0)
(1.31817 -0.00508132 0)
(1.2702 -0.0293672 0)
(1.2 2.84898e-14 0)
(1.2 -6.15495e-14 0)
(1.14676 -0.00096147 0)
(1.2 -1.52815e-14 0)
(1.2 -8.12282e-14 0)
(1.2 2.13141e-13 0)
(1.2 -2.17903e-13 0)
(1.34289 -0.0991152 0)
(1.2 -2.06459e-13 0)
(1.2 -2.2804e-14 0)
(1.18138 -0.00212061 0)
(1.26762 -0.0268581 0)
(1.18219 -0.00275605 0)
(1.35113 -0.077036 0)
(1.2 -3.02211e-13 0)
(1.2 -1.39912e-13 0)
(1.2 -1.1707e-11 0)
(1.2 -2.85185e-12 0)
(1.2 1.14172e-13 0)
(1.2 -6.78468e-09 0)
(1.2 2.91692e-14 0)
(1.16923 -0.0369554 0)
(1.33826 -0.0925177 0)
(1.2 3.61959e-13 0)
(1.2 -2.32146e-13 0)
(1.2 1.60714e-14 0)
(1.2 -6.22616e-13 0)
(1.2 -4.60295e-14 0)
(1.2 -9.08315e-14 0)
(1.32032 -0.00850149 0)
(1.1429 0.0462551 0)
(1.2 -4.43323e-14 0)
(1.1517 0.0421456 0)
(1.2 -2.37662e-13 0)
(1.2 7.5e-14 0)
(1.29703 -0.0520663 0)
(1.2 8.51365e-14 0)
(1.2 -3.48791e-13 0)
(1.2 -1.47709e-13 0)
(1.15259 -0.0011273 0)
(1.2 3.95821e-13 0)
(1.2 -8.96249e-14 0)
(1.15358 -0.000654184 0)
(1.15506 0.0409802 0)
(1.11955 0.0566121 0)
(1.2 2.6542e-13 0)
(1.11694 0.0577072 0)
(1.11596 0.0578125 0)
(1.11349 0.0587287 0)
(1.1094 0.00067763 0)
(1.2 5.12533e-14 0)
(1.18594 -0.0026662 0)
(1.187 -0.00313165 0)
(1.14767 0.0459628 0)
(1.11738 0.000324695 0)
(1.2 4.26791e-14 0)
(1.2 1.65052e-13 0)
(1.15845 0.000599409 0)
(1.2 -2.47168e-14 0)
(0.934963 0.0695292 0)
(1.11264 -0.000193973 0)
(1.2 4.663e-11 0)
(0.927647 0.0753151 0)
(1.20152 -0.00108087 0)
(1.2 -2.06478e-13 0)
(1.13929 0.0488419 0)
(1.13499 0.0508947 0)
(1.2 -2.17888e-13 0)
(1.2 1.08372e-13 0)
(1.11985 0.00151384 0)
(1.18633 -0.019409 0)
(1.2 3.11757e-14 0)
(1.2 -2.93716e-13 0)
(1.18911 0.0265858 0)
(1.2 -8.23313e-07 0)
(1.2 -1.14173e-07 0)
(1.1995 -0.000402692 0)
(1.19979 4.03483e-05 0)
(1.04831 0.0703375 0)
(1.04999 0.0691637 0)
(1.05236 0.0698682 0)
(1.05025 0.0695008 0)
(1.36415 -0.118372 0)
(1.17032 -0.0342234 0)
(1.0572 0.0690517 0)
(1.2539 -0.0563259 0)
(1.05562 0.0692077 0)
(1.063 0.0683471 0)
(1.2 1.03292e-13 0)
(1.31749 -0.0110755 0)
(1.30223 -0.00291644 0)
(1.06149 0.0684795 0)
(1.2 1.50317e-13 0)
(1.06979 0.0675341 0)
(1.2 -1.37733e-13 0)
(1.06828 0.0676369 0)
(1.2 -8.43065e-14 0)
(1.16515 -0.0330425 0)
(1.07656 0.0673187 0)
(1.2 -2.43675e-13 0)
(1.07506 0.0672023 0)
(0.991372 0.0847869 0)
(1.2 5.98478e-14 0)
(1.08321 0.0666489 0)
(1.2 7.72165e-14 0)
(1.08185 0.0666445 0)
(1.2 9.56358e-14 0)
(1.34217 -0.0971569 0)
(1.2 9.34425e-14 0)
(1.26511 -0.0244769 0)
(1.30339 -0.00194732 0)
(1.2 -6.59393e-14 0)
(1.2 1.88021e-13 0)
(1.08923 0.0653665 0)
(1.08811 0.0656896 0)
(1.2 7.39274e-14 0)
(1.15043 -0.0261584 0)
(1.09535 0.0634911 0)
(1.0942 0.0638825 0)
(1.18696 0.0255652 0)
(1.2 -2.25865e-14 0)
(1.2 9.33583e-14 0)
(1.10531 0.0607148 0)
(1.19495 -0.00310449 0)
(1.10411 0.0610226 0)
(1.2 -1.00815e-13 0)
(1.1618 -0.00167822 0)
(1.11156 0.0585105 0)
(1.29637 -0.0490135 0)
(1.11049 0.0589048 0)
(1.19522 -0.00343912 0)
(1.16286 -0.0012575 0)
(1.2 -8.48373e-14 0)
(1.2 6.89222e-15 0)
(1.2 -5.89462e-14 0)
(1.1179 0.0569143 0)
(1.11712 0.057197 0)
(1.11936 0.00101929 0)
(1.2 2.48177e-13 0)
(1.2 8.73899e-14 0)
(1.12414 0.0548168 0)
(1.25229 -0.0156367 0)
(1.12283 0.0551586 0)
(1.29914 -0.0527827 0)
(1.2 -1.31473e-15 0)
(1.13331 0.0518136 0)
(1.13204 0.0521789 0)
(1.2 -2.44858e-13 0)
(1.2 8.51509e-14 0)
(1.2 -3.36059e-14 0)
(1.33695 -0.0868769 0)
(1.2 -1.2681e-13 0)
(1.14981 -0.0251257 0)
(1.192 0.0267674 0)
(1.12708 0.053479 0)
(1.2 -2.64088e-14 0)
(1.14212 0.0482904 0)
(1.2 3.73641e-13 0)
(1.1416 0.0485845 0)
(1.2 2.24747e-13 0)
(1.2 4.29436e-15 0)
(1.14925 -0.0232345 0)
(1.14866 -0.0227703 0)
(1.14937 0.0461061 0)
(1.14823 0.0463693 0)
(1.17072 -0.0385241 0)
(1.14619 -0.0188139 0)
(1.1543 0.0430979 0)
(1.14406 -0.0181058 0)
(1.1541 0.0435452 0)
(1.2 -1.3016e-13 0)
(1.17749 0.0312466 0)
(1.16513 0.0399417 0)
(1.1646 0.0400492 0)
(1.2 1.99171e-13 0)
(1.27621 -0.0345709 0)
(1.16911 0.036372 0)
(1.16817 0.0365994 0)
(0.803823 0.00887042 0)
(1.2 1.98298e-13 0)
(1.2 1.18305e-13 0)
(1.2 1.16249e-13 0)
(1.17609 0.0344668 0)
(1.17304 -0.0358741 0)
(1.17631 0.0348714 0)
(1.37047 -0.133958 0)
(1.10628 0.000811443 0)
(1.21958 0.00863394 0)
(1.31414 -0.0683321 0)
(1.18125 0.0317008 0)
(1.18006 0.031943 0)
(1.19176 0.0263108 0)
(1.18645 0.0290425 0)
(1.18583 0.0292132 0)
(1.28265 -0.0388506 0)
(1.28419 -0.0407203 0)
(1.2 -1.51837e-13 0)
(1.13179 0.013039 0)
(0.921807 0.063941 0)
(1.2002 -0.00228103 0)
(1.2 8.78678e-14 0)
(1.31117 -0.0634946 0)
(1.20112 -0.00328179 0)
(1.29406 -0.0476244 0)
(1.11439 0.00105085 0)
(1.31587 -0.00259833 0)
(1.2 -1.93142e-10 0)
(1.2 -5.51856e-14 0)
(1.2 5.33838e-11 0)
(1.16884 -0.00108234 0)
(1.2 2.34022e-13 0)
(1.2 -2.24149e-13 0)
(1.2 1.96402e-13 0)
(1.2 -7.23313e-14 0)
(1.2 -3.16631e-13 0)
(1.16972 -0.000751403 0)
(1.2 -5.37073e-14 0)
(1.2 -1.80784e-13 0)
(1.2 -9.56866e-14 0)
(1.27082 -0.029819 0)
(1.27868 -0.0340228 0)
(1.2 2.89021e-13 0)
(1.18244 0.0289984 0)
(1.36447 -0.118143 0)
(1.29264 -0.0053337 0)
(1.2 6.07798e-14 0)
(1.2 -2.12483e-14 0)
(1.2 2.31781e-14 0)
(1.2 5.67169e-09 0)
(1.2 -7.77458e-14 0)
(1.18275 -0.0105482 0)
(1.2 8.4878e-14 0)
(1.1678 -0.0360627 0)
(1.2 -1.99295e-12 0)
(1.1227 0.0550684 0)
(1.1742 0.00839979 0)
(1.12094 0.0559834 0)
(1.29171 -0.0444311 0)
(1.2 -3.63678e-14 0)
(1.37539 -0.0980932 0)
(1.32446 -0.0614726 0)
(1.1129 0.0582455 0)
(1.2 -1.10684e-09 0)
(1.2 5.43937e-15 0)
(1.2 1.51254e-13 0)
(1.2 3.48671e-14 0)
(1.2 -3.95106e-14 0)
(1.11862 0.0567553 0)
(1.12014 0.0559235 0)
(1.151 0.0107106 0)
(1.30986 -0.00298149 0)
(1.31051 -0.00222114 0)
(1.2 1.30553e-13 0)
(1.26448 -0.0239696 0)
(1.2 -2.27391e-13 0)
(1.2 -1.24131e-14 0)
(1.11838 0.0568184 0)
(1.19453 0.0247363 0)
(1.19989 4.09528e-05 0)
(1.12895 0.0133601 0)
(1.2025 -0.00134271 0)
(1.2 6.4978e-07 0)
(1.18043 0.0300742 0)
(1.17538 0.0324496 0)
(1.2 -1.26659e-14 0)
(1.11602 0.0573697 0)
(1.30013 -0.0533689 0)
(1.22301 0.00703929 0)
(1.2 -5.88637e-14 0)
(1.16982 -0.0365977 0)
(1.20913 -0.00264855 0)
(1.2 -1.91583e-13 0)
(1.2 -2.71307e-07 0)
(1.19891 -0.0130199 0)
(1.16324 -0.032 0)
(1.2 -2.34346e-10 0)
(1.20981 -0.00306101 0)
(1.36499 -0.127488 0)
(1.2 -1.01619e-10 0)
(1.2 4.84262e-15 0)
(1.09864 0.0625126 0)
(1.09736 0.0628907 0)
(1.17112 -0.0340879 0)
(1.2 -4.0246e-14 0)
(1.36475 -0.125967 0)
(1.36409 -0.125458 0)
(1.32673 -0.0559055 0)
(1.18559 0.0158377 0)
(1.2 -6.86089e-14 0)
(1.14852 -0.0260599 0)
(1.12501 0.00513239 0)
(1.29659 -0.0514664 0)
(0.99702 0.0846779 0)
(1.2 1.61113e-13 0)
(1.2 1.32726e-14 0)
(1.2 -2.66007e-14 0)
(1.12716 0.0541016 0)
(1.12646 0.0542627 0)
(1.2 2.82684e-08 0)
(1.20075 -0.000166158 0)
(1.2 -3.14111e-14 0)
(1.17783 -0.0022138 0)
(1.13684 0.0506792 0)
(1.2 8.56497e-15 0)
(1.20126 0.00180229 0)
(1.1358 0.051038 0)
(1.1789 -0.00185188 0)
(1.17034 -0.0374065 0)
(1.17488 -0.0367012 0)
(1.2 -2.19634e-13 0)
(1.16808 -0.0387845 0)
(1.14553 -0.0245518 0)
(1.31153 -0.0638274 0)
(1.16933 -0.0370305 0)
(1.29935 -0.053157 0)
(1.15781 0.0415195 0)
(1.2 -5.28704e-15 0)
(1.2 5.74881e-14 0)
(1.15673 0.0418174 0)
(1.2 9.34823e-16 0)
(1.2 3.94678e-14 0)
(1.16641 -0.0329071 0)
(1.16968 -0.0344073 0)
(1.2 -1.96726e-13 0)
(1.21316 -0.0027906 0)
(1.27522 -0.0333147 0)
(1.15178 -0.0262377 0)
(1.28336 -0.0379174 0)
(1.28076 -0.0354307 0)
(1.21419 -0.00340706 0)
(1.28237 -0.0383076 0)
(1.28315 -0.0399681 0)
(1.29971 -0.0544362 0)
(1.30068 -0.0557107 0)
(1.2 -1.86426e-13 0)
(1.2 -2.87338e-13 0)
(1.11206 0.000861171 0)
(1.2 -2.14666e-13 0)
(1.2 -1.49779e-13 0)
(1.15964 -0.0359143 0)
(1.2682 -0.0275376 0)
(1.2798 -0.0345948 0)
(1.2 4.16911e-13 0)
(1.2 1.269e-13 0)
(1.14295 -0.0239567 0)
(1.2 1.4524e-13 0)
(1.14735 -0.0245855 0)
(1.14301 -0.0240288 0)
(1.18998 0.00563535 0)
(1.05187 0.0580208 0)
(1.09178 0.000598635 0)
(1.19988 7.72029e-05 0)
(1.2 -1.35989e-13 0)
(1.20001 7.99912e-06 0)
(1.2 -1.15555e-13 0)
(1.16874 -0.0332556 0)
(1.14642 -0.0189936 0)
(1.11705 -0.000605726 0)
(1.3641 -0.124505 0)
(1.2 -1.19817e-14 0)
(1.18373 -0.00272305 0)
(1.2 -5.52453e-14 0)
(1.20483 0.0188684 0)
(1.20601 0.0189114 0)
(1.18394 -0.00233542 0)
(1.2 9.38851e-11 0)
(1.20962 0.0162908 0)
(1.21656 0.012634 0)
(1.20905 0.015636 0)
(1.2 1.80249e-13 0)
(1.2 1.79426e-13 0)
(1.2 2.0712e-13 0)
(1.2 1.42545e-13 0)
(1.21557 0.0127024 0)
(1.14502 -0.0252637 0)
(1.2 -5.07004e-14 0)
(1.19078 0.0240717 0)
(1.2 1.6388e-08 0)
(1.28392 -0.0398043 0)
(1.2 2.04431e-14 0)
(1.28191 -0.0389132 0)
(1.29289 -0.00385662 0)
(1.32404 -0.0230712 0)
(1.2 3.45018e-13 0)
(1.2208 -0.00269972 0)
(1.22161 -0.00297573 0)
(1.35957 -0.0736711 0)
(0.961674 0.0853742 0)
(1.2 -1.4108e-09 0)
(1.28103 -0.0353565 0)
(1.15919 -0.003664 0)
(1.15376 0.0094617 0)
(1.27903 -0.0347765 0)
(1.2 4.0667e-13 0)
(1.2 -2.89172e-13 0)
(1.2225 0.00768016 0)
(1.37375 -0.137715 0)
(1.2 1.19144e-13 0)
(1.2 1.79322e-13 0)
(1.14795 -0.0208671 0)
(1.34611 -0.102826 0)
(1.11548 0.00218368 0)
(1.21904 0.00888102 0)
(1.2 -8.88835e-14 0)
(1.2 -3.00739e-13 0)
(1.2 1.00489e-13 0)
(1.2 -2.90549e-13 0)
(1.2 -4.37438e-14 0)
(1.2 3.08047e-13 0)
(0.897641 0.0660555 0)
(1.2 2.8067e-13 0)
(1.29124 -0.00503062 0)
(1.28666 -0.0421034 0)
(1.29284 -0.0451784 0)
(1.11914 0.000424137 0)
(1.36335 -0.122098 0)
(1.36984 -0.134547 0)
(1.36083 -0.122094 0)
(1.27783 -0.031919 0)
(1.10281 0.00109681 0)
(1.29387 -0.00450765 0)
(1.36511 -0.127906 0)
(1.08006 0.06701 0)
(1.07321 0.0674464 0)
(1.06645 0.067874 0)
(1.08625 0.066176 0)
(1.0785 0.0670297 0)
(1.2 5.28755e-14 0)
(1.10337 -0.0156044 0)
(1.07176 0.0673645 0)
(1.05975 0.0686977 0)
(1.08498 0.0663559 0)
(1.17371 -0.0373041 0)
(1.065 0.0680062 0)
(1.10672 0.0606215 0)
(1.09226 0.0644562 0)
(1.05853 0.0689067 0)
(1.2 5.50745e-14 0)
(1.05293 0.0698886 0)
(1.0911 0.0648672 0)
(1.05217 0.0702007 0)
(1.2 -3.00293e-13 0)
(1.1019 0.0615503 0)
(1.04748 0.0766982 0)
(1.04421 0.0712962 0)
(1.04384 0.0718276 0)
(1.10073 0.0618099 0)
(1.19864 0.00590248 0)
(1.04275 0.0702741 0)
(1.10847 0.0595986 0)
(1.1974 0.00602974 0)
(1.2 2.38029e-13 0)
(1.20002 9.55056e-06 0)
(1.10736 0.0600205 0)
(1.2 4.72892e-14 0)
(1.11497 0.0577351 0)
(1.20001 4.27207e-06 0)
(1.2 3.64265e-14 0)
(1.2 -1.97285e-14 0)
(1.22457 -0.00270292 0)
(1.11376 0.0579671 0)
(1.2 -2.81062e-13 0)
(1.2 -1.72308e-13 0)
(1.2 1.21242e-14 0)
(1.12057 0.0557556 0)
(1.11244 0.0587088 0)
(1.2 2.23524e-14 0)
(1.2 1.37295e-13 0)
(1.2 -1.99165e-13 0)
(1.11957 0.0560037 0)
(1.22521 -0.00345905 0)
(1.35684 -0.116996 0)
(1.12958 0.0529764 0)
(1.2 1.30993e-13 0)
(1.22335 0.00275248 0)
(1.12876 0.0530744 0)
(1.13985 0.049715 0)
(1.13918 0.050011 0)
(1.29075 -0.043442 0)
(1.14547 0.0472794 0)
(1.14441 0.047346 0)
(1.1525 0.0450035 0)
(1.2 -1.62412e-13 0)
(1.3018 -0.00223445 0)
(1.15201 0.0453025 0)
(1.2 2.55775e-13 0)
(1.16195 0.040535 0)
(1.31986 -0.0112893 0)
(1.2 3.50514e-13 0)
(1.2 -8.74978e-14 0)
(1.16079 0.0406272 0)
(1.26046 -0.0214601 0)
(1.35741 -0.118628 0)
(1.16601 0.0378798 0)
(1.1665 0.0382939 0)
(1.17376 0.0354858 0)
(1.19296 -0.00300885 0)
(1.1725 0.0356347 0)
(1.36664 -0.126929 0)
(1.1776 0.0325732 0)
(1.2 5.49835e-14 0)
(1.1973 0.0235135 0)
(1.19333 -0.00281422 0)
(1.17741 0.0327974 0)
(1.18586 0.0261397 0)
(1.20103 0.019566 0)
(1.16772 -0.036873 0)
(1.1839 0.0305548 0)
(1.19981 0.0215915 0)
(1.20016 0.022044 0)
(1.31748 -0.00354018 0)
(1.18367 0.0308674 0)
(1.18999 0.0278156 0)
(1.18908 0.0281093 0)
(1.29121 -0.00358683 0)
(1.3532 -0.111937 0)
(1.36274 -0.125343 0)
(1.2 -1.516e-13 0)
(1.3524 -0.110541 0)
(1.2 -3.4442e-13 0)
(1.35197 -0.111767 0)
(1.35305 -0.110021 0)
(1.3562 -0.114312 0)
(1.2 -5.53948e-14 0)
(0.919124 0.0728539 0)
(1.10166 0.0015013 0)
(1.2 -2.9096e-14 0)
(1.22329 -0.0303466 0)
(1.23051 -0.028543 0)
(1.14839 0.0448349 0)
(1.14364 0.046747 0)
(1.2 -9.34173e-14 0)
(1.12189 0.00081124 0)
(1.1161 0.0581657 0)
(1.10974 0.0595666 0)
(1.10787 0.000798335 0)
(1.11559 0.000498486 0)
(1.1191 0.0571812 0)
(1.11492 0.0586551 0)
(1.1179 0.0575917 0)
(1.12043 0.0565077 0)
(1.10621 0.00217318 0)
(1.28461 -0.0394737 0)
(1.14451 -0.0248381 0)
(1.16401 -0.0396615 0)
(1.2 2.37379e-14 0)
(1.22469 0.00466445 0)
(1.2716 -0.0305346 0)
(1.29496 -0.0479258 0)
(1.1975 0.0219682 0)
(1.2 -1.43606e-13 0)
(1.08257 0.0658229 0)
(1.11976 0.0570383 0)
(1.32828 -0.0833363 0)
(1.2 -5.95903e-14 0)
(1.23462 -0.00316668 0)
(1.32334 -0.0705498 0)
(1.21237 0.00949372 0)
(1.23439 -0.00398474 0)
(1.2 5.18971e-14 0)
(1.09663 0.0391869 0)
(1.2 7.69784e-14 0)
(1.2442 -0.0107983 0)
(1.19733 0.0208985 0)
(1.12141 -0.000162855 0)
(1.12123 0.0567373 0)
(1.18902 0.0255871 0)
(1.18507 0.0279761 0)
(1.32953 -0.0856064 0)
(1.19751 -0.00293513 0)
(1.21061 0.0112791 0)
(1.19829 -0.00203019 0)
(1.19818 0.0230841 0)
(1.32566 -0.0502843 0)
(1.33226 -0.0804253 0)
(1.27887 -0.0364956 0)
(1.34103 -0.0960977 0)
(1.22125 0.00447701 0)
(1.11195 0.0591469 0)
(1.1935 0.0250823 0)
(1.2 1.35612e-13 0)
(1.1127 0.0591275 0)
(1.06181 0.0692062 0)
(1.24213 -0.00885625 0)
(1.20134 0.0162605 0)
(1.2 -1.55273e-13 0)
(1.2 -5.9213e-14 0)
(1.2 -1.11534e-13 0)
(1.15522 -0.0278383 0)
(1.20279 0.000766154 0)
(1.2 1.55452e-13 0)
(1.2 -4.34266e-14 0)
(1.36017 -0.118273 0)
(1.19974 0.018244 0)
(1.30103 -0.0546435 0)
(1.2 -8.19913e-14 0)
(1.3199 -0.0408427 0)
(1.2 -1.00799e-13 0)
(1.15715 -0.0284172 0)
(1.23884 -0.00662196 0)
(1.2 -3.18482e-14 0)
(1.2 -2.28937e-13 0)
(1.37104 -0.131715 0)
(1.29696 -0.0508373 0)
(1.0436 0.0704508 0)
(1.29539 -0.0480199 0)
(1.14474 -0.0181695 0)
(1.14392 -0.0183575 0)
(1.19999 -7.69964e-06 0)
(1.10864 0.0600955 0)
(1.14912 -0.0239387 0)
(1.2 1.92877e-12 0)
(1.23373 -0.0452505 0)
(1.2 -1.47441e-13 0)
(1.19034 0.0232544 0)
(1.23866 -0.00342644 0)
(1.22371 -0.0315176 0)
(1.27182 -0.0280428 0)
(1.2 -6.25776e-14 0)
(1.2 4.67847e-13 0)
(1.22568 0.0044247 0)
(1.23042 -0.0295225 0)
(1.2022 0.0197842 0)
(1.20198 -0.00415797 0)
(1.15437 -0.0211215 0)
(1.15453 -0.020596 0)
(1.2 2.36405e-13 0)
(1.2397 -0.00436462 0)
(1.2015 0.0199216 0)
(1.17236 -0.0383775 0)
(1.16956 -0.0392836 0)
(1.30101 -0.0551718 0)
(1.18848 0.0250171 0)
(1.2 2.80656e-12 0)
(1.23577 -0.00490808 0)
(1.31022 -0.0573381 0)
(1.20854 0.0181854 0)
(1.31343 -0.0663645 0)
(1.20838 0.0182647 0)
(1.11874 0.057349 0)
(1.2 2.07555e-14 0)
(1.2 4.57776e-14 0)
(1.2 1.78479e-13 0)
(1.26931 -0.0278104 0)
(1.21241 0.0137062 0)
(1.2 4.55418e-14 0)
(1.17147 -0.0354168 0)
(1.21104 0.0140245 0)
(1.10074 0.000631158 0)
(1.11544 -0.000164386 0)
(1.28074 -0.0362285 0)
(1.17272 -0.0352809 0)
(1.37319 -0.137735 0)
(1.31783 -0.00417604 0)
(1.0874 0.0647391 0)
(1.2 -7.32928e-14 0)
(1.2 6.09154e-14 0)
(1.23169 -0.00184661 0)
(1.07641 0.0670909 0)
(1.2 -6.68357e-14 0)
(1.2 -3.83743e-13 0)
(1.2 2.71688e-09 0)
(1.21817 0.0108274 0)
(1.2 -3.3565e-13 0)
(1.2188 0.0114242 0)
(1.34474 -0.101528 0)
(1.19834 -0.00355966 0)
(1.22767 -0.0377988 0)
(1.2 1.75503e-13 0)
(1.2 -2.14125e-10 0)
(1.22868 -0.0377632 0)
(1.2 -7.92888e-14 0)
(1.0225 0.0733005 0)
(1.16784 -0.0336257 0)
(1.0325 0.0721663 0)
(1.01589 0.0722714 0)
(1.2 2.67501e-13 0)
(1.33384 -0.166467 0)
(1.02988 0.071742 0)
(1.16679 -0.0325492 0)
(1.22987 -0.0381315 0)
(1.09013 0.0643425 0)
(1.2 -1.58156e-13 0)
(1.31931 -0.0611768 0)
(1.04569 0.0719786 0)
(1.06633 0.0689503 0)
(1.23007 -1.90571e-05 0)
(1.2 2.53779e-14 0)
(1.09616 0.0628899 0)
(1.04417 0.0723962 0)
(1.05629 0.07056 0)
(1.20001 -7.75879e-06 0)
(1.15222 -0.0255544 0)
(1.3638 -0.126225 0)
(1.20001 -1.27071e-06 0)
(1.2 -2.19174e-11 0)
(1.27937 -0.0343264 0)
(1.05438 0.0708106 0)
(1.2 5.35494e-11 0)
(1.07898 0.066307 0)
(1.22477 -5.63281e-05 0)
(1.2 -5.43765e-14 0)
(1.2 2.16566e-13 0)
(1.32184 -0.0453456 0)
(1.06823 0.0689562 0)
(1.2418 -0.00341416 0)
(1.09463 0.00156268 0)
(1.05685 0.0708485 0)
(1.20545 -0.00367743 0)
(1.30494 -0.0578033 0)
(1.20509 -0.00135053 0)
(1.06863 0.0683385 0)
(1.06611 0.0691482 0)
(1.10833 -8.23859e-05 0)
(1.24276 -0.00426308 0)
(1.2 5.93239e-14 0)
(1.1845 -0.0360856 0)
(1.20658 -0.00286845 0)
(1.19165 -0.0304938 0)
(1.12046 0.0571321 0)
(1.2 -3.80256e-14 0)
(1.08078 0.0668566 0)
(1.2 3.35821e-14 0)
(1.2 5.36847e-14 0)
(1.2 -2.04278e-13 0)
(1.08114 0.0660051 0)
(1.2 1.59952e-13 0)
(1.2 -2.13064e-13 0)
(1.25266 -0.0161275 0)
(1.20761 0.00965685 0)
(1.2 3.82383e-13 0)
(1.25089 -0.0138485 0)
(1.0787 0.0669383 0)
(1.14494 -0.019563 0)
(1.16007 -0.0369143 0)
(1.2 -1.14591e-14 0)
(1.16637 -0.00508009 0)
(1.2 -1.15801e-14 0)
(1.14765 -0.0204739 0)
(1.2 -1.74483e-14 0)
(1.2 2.58433e-15 0)
(1.2 -2.02658e-14 0)
(1.2 -4.32389e-14 0)
(1.2 -2.37415e-13 0)
(1.18142 0.0143494 0)
(1.2 -2.89087e-13 0)
(1.2 -8.89987e-14 0)
(1.2 5.5177e-14 0)
(1.2 -1.17309e-13 0)
(1.2 9.8599e-14 0)
(1.2 -1.08094e-13 0)
(1.33867 -0.0963611 0)
(1.36939 -0.132389 0)
(1.2 -2.36144e-13 0)
(1.19939 0.0187055 0)
(1.2 -1.26585e-13 0)
(1.2 -4.07966e-13 0)
(1.2 -1.76274e-14 0)
(1.15 -0.0227545 0)
(1.26416 -0.0219787 0)
(1.33956 -0.102068 0)
(1.2 2.83074e-12 0)
(1.34973 -0.105053 0)
(1.22625 -0.000858965 0)
(1.2 2.51203e-12 0)
(1.2 -2.68663e-13 0)
(1.2 -2.56317e-13 0)
(1.18429 -0.0421744 0)
(1.2 3.00516e-09 0)
(1.11391 0.0580719 0)
(1.2 1.2144e-09 0)
(1.05899 0.0700571 0)
(1.28487 -0.0403296 0)
(1.33091 -0.080687 0)
(1.2 -1.88892e-13 0)
(1.19986 4.86943e-05 0)
(1.2 2.51147e-14 0)
(1.2 -6.1165e-14 0)
(1.1999 5.05613e-05 0)
(1.2 4.12376e-13 0)
(1.044 0.0708712 0)
(1.04733 0.0708922 0)
(1.15049 -0.0256659 0)
(1.0612 0.0697883 0)
(1.2 -7.38405e-14 0)
(1.2 1.12235e-13 0)
(1.11056 0.0497823 0)
(1.13366 0.0365824 0)
(1.28009 -0.035961 0)
(1.08683 0.0627951 0)
(1.2 1.66954e-13 0)
(1.08629 0.062673 0)
(1.12328 0.0547963 0)
(1.2 2.75618e-13 0)
(1.09018 0.0627216 0)
(1.2 -7.70165e-14 0)
(1.25183 -0.0548353 0)
(1.25043 -0.054389 0)
(1.27767 -0.0336718 0)
(1.08967 0.0661831 0)