/*--------------------------------*- C++ -*----------------------------------*\
  =========                 |
  \\      /  F ield         | OpenFOAM: The Open Source CFD Toolbox
   \\    /   O peration     | Website:  https://openfoam.org
    \\  /    A nd           | Version:  12
     \\/     M anipulation  |
\*---------------------------------------------------------------------------*/
FoamFile
{
    format      ascii;
    class       surfaceScalarField;
    location    "12.8";
    object      phi;
}
// * * * * * * * * * * * * * * * * * * * * * * * * * * * * * * * * * * * * * //

dimensions      [1 0 -1 0 0 0 0];

internalField   nonuniform List<scalar> 
19404
(
-0.000134502
2.41614e-08
-0.000136262
2.21289e-07
-0.000137137
2.97699e-07
-0.000137469
2.53147e-07
-0.000137568
1.97905e-07
-0.000137536
1.53205e-07
-0.000137404
1.12211e-07
-0.0001367
9.55433e-08
-0.000135846
1.36159e-07
-0.000135524
1.22942e-07
-0.000135401
8.29339e-08
-0.000135717
4.47126e-08
-0.000137479
1.60391e-07
-0.000139013
2.64574e-07
-0.000139623
2.83778e-07
-0.000139828
2.51678e-07
-0.000139848
2.1509e-07
-0.000139768
1.66953e-07
-0.000139136
1.41373e-07
-0.000137807
1.62739e-07
-0.000137317
1.66944e-07
-0.00013716
1.02718e-07
-0.00013717
3.81134e-08
-0.000138335
7.2416e-08
-0.000140564
2.04201e-07
-0.000141712
2.56193e-07
-0.000142116
2.68595e-07
-0.000142216
2.26741e-07
-0.000142189
1.85935e-07
-0.000141764
1.42631e-07
-0.000140038
1.77231e-07
-0.000139139
1.79899e-07
-0.000138915
1.575e-07
-0.000138864
8.88411e-08
-0.000139399
4.69754e-08
-0.000141785
1.36502e-07
-0.000143693
2.30338e-07
-0.000144399
2.57036e-07
-0.000144594
2.07107e-07
-0.000144636
1.94703e-07
-0.000144311
1.22769e-07
-0.000142255
1.57652e-07
-0.000140906
1.42186e-07
-0.000140586
1.44301e-07
-0.000140517
8.39655e-08
-0.000140835
4.26653e-08
-0.000143198
1.53035e-07
-0.000145753
2.80052e-07
-0.000146754
3.03913e-07
-0.000147058
2.89324e-07
-0.000147119
2.53289e-07
-0.000146738
1.60145e-07
-0.00014406
1.26014e-07
-0.000142304
9.82448e-08
-0.000141944
5.01614e-08
-0.000141913
-8.22402e-09
-0.000142295
-4.05073e-08
-0.000145
1.30768e-07
-0.000148125
2.78383e-07
-0.000149356
3.11748e-07
-0.000149754
3.70651e-07
-0.000149825
3.22504e-07
-0.000149375
2.6121e-07
-0.000145783
1.87695e-07
-0.000143082
9.75419e-08
-0.00014257
-6.00265e-10
-0.000142621
-8.86939e-08
-0.000143271
-1.91066e-07
-0.000147263
1.85458e-08
-0.000151031
1.95814e-07
-0.000152339
3.47295e-07
-0.00015274
3.51737e-07
-0.000152837
3.14348e-07
-0.000151989
2.49927e-07
-0.000146614
1.60418e-07
-0.000142744
2.28686e-08
-0.000142093
-9.30844e-08
-0.000142197
-2.32938e-07
-0.000144309
-3.87982e-07
-0.000150335
-1.02217e-07
-0.000153952
9.17514e-08
-0.000155073
2.87359e-07
-0.000155431
4.63782e-07
-0.000155465
4.24681e-07
-0.00015198
3.78635e-07
-0.000143053
-2.03708e-07
-0.000138467
-5.37698e-07
-0.00013816
-7.74217e-07
-0.000138916
-1.16432e-06
-0.000146155
-1.18658e-06
-0.000153711
-9.01818e-07
-0.000156297
-4.42549e-07
-0.000156922
-2.05058e-08
-0.000156812
-1.82227e-07
-0.000150884
-2.03123e-07
-0.000140258
-2.22434e-07
-0.000127264
-4.70991e-06
-0.00011817
-2.66414e-05
1.88805e-05
-0.000135147
1.39912e-07
-0.000137181
3.85062e-07
-0.000138055
4.98934e-07
-0.000138326
4.48452e-07
-0.000138383
3.91464e-07
-0.000138307
3.25303e-07
-0.000138096
2.49609e-07
-0.000137375
2.20968e-07
-0.000136492
2.57105e-07
-0.000136098
2.51501e-07
-0.000135961
2.36943e-07
-0.000136199
1.54997e-07
-0.000138135
2.66802e-07
-0.00013979
4.54656e-07
-0.000140381
5.06747e-07
-0.000140548
4.71651e-07
-0.000140532
4.20787e-07
-0.000140405
3.51713e-07
-0.000139746
2.90348e-07
-0.000138465
3.06116e-07
-0.000137865
2.78668e-07
-0.000137658
2.29298e-07
-0.000137629
1.68723e-07
-0.000138774
1.66166e-07
-0.000141174
3.31798e-07
-0.000142366
4.74754e-07
-0.000142726
4.89983e-07
-0.000142794
4.4212e-07
-0.000142745
3.97589e-07
-0.000142298
3.25377e-07
-0.000140612
3.25978e-07
-0.000139632
3.14769e-07
-0.000139328
2.82661e-07
-0.000139254
2.15185e-07
-0.000139722
1.3692e-07
-0.000142287
2.27819e-07
-0.000144284
4.01149e-07
-0.000144939
4.54712e-07
-0.000145124
4.35033e-07
-0.000145128
4.13436e-07
-0.000144789
3.22307e-07
-0.000142784
3.16527e-07
-0.000141321
2.90235e-07
-0.000140881
2.78482e-07
-0.000140785
2.20065e-07
-0.000140993
1.51064e-07
-0.000143379
2.30511e-07
-0.000146134
4.28329e-07
-0.000147196
5.2169e-07
-0.000147503
5.16874e-07
-0.000147557
4.70925e-07
-0.000147261
3.68376e-07
-0.000144762
2.90756e-07
-0.000142762
1.62083e-07
-0.000142172
1.1188e-07
-0.000142074
8.38488e-08
-0.000142267
4.81228e-08
-0.000144817
1.48476e-07
-0.00014813
4.40482e-07
-0.000149547
6.00524e-07
-0.000149998
6.53392e-07
-0.000150112
5.88362e-07
-0.000149819
4.63128e-07
-0.000146579
3.44907e-07
-0.000143529
8.86124e-08
-0.000142713
-8.70238e-09
-0.000142716
-7.44247e-08
-0.000143092
-1.81231e-07
-0.000146538
-1.0474e-07
-0.000150558
3.20591e-07
-0.000152221
6.29719e-07
-0.000152723
6.80366e-07
-0.000152839
6.33478e-07
-0.000152178
4.9575e-07
-0.000147205
3.30419e-07
-0.000143046
-1.57023e-08
-0.000142018
-2.75065e-07
-0.000142076
-4.46023e-07
-0.000143058
-6.98272e-07
-0.000148313
-5.1183e-07
-0.000152711
2.19141e-07
-0.000154338
5.87989e-07
-0.000154798
6.35101e-07
-0.000154936
5.30284e-07
-0.000152664
4.14592e-07
-0.000144068
-1.20232e-07
-0.000138638
-9.35009e-07
-0.000137722
-1.42078e-06
-0.000137862
-2.03037e-06
-0.000142007
-2.58131e-06
-0.000148555
-2.1487e-06
-0.000151451
-1.19604e-06
-0.00015223
-9.77076e-07
-0.000152116
-1.45032e-06
-0.000146126
-2.14363e-06
-0.000134515
-3.05407e-06
-0.000121827
-8.82113e-06
-0.000131683
-3.13696e-05
2.53375e-05
-0.000134932
2.69182e-07
-0.000137149
5.24344e-07
-0.000138009
6.62436e-07
-0.000138234
6.29017e-07
-0.000138257
5.73415e-07
-0.000138165
4.95487e-07
-0.000137963
4.00464e-07
-0.000137187
3.61451e-07
-0.000136231
3.99191e-07
-0.000135837
4.17267e-07
-0.000135663
3.71763e-07
-0.000135846
2.99405e-07
-0.000137835
3.70472e-07
-0.00013963
6.30974e-07
-0.000140209
6.91656e-07
-0.00014036
6.68161e-07
-0.000140335
6.02885e-07
-0.00014023
5.26417e-07
-0.000139651
4.32978e-07
-0.000138283
4.11349e-07
-0.000137616
3.99535e-07
-0.000137393
3.74422e-07
-0.00013732
3.05762e-07
-0.000138295
2.66282e-07
-0.000140834
4.84169e-07
-0.000142082
6.70835e-07
-0.000142451
7.05733e-07
-0.000142546
6.70429e-07
-0.000142487
5.74575e-07
-0.000142098
4.88342e-07
-0.000140391
4.50596e-07
-0.00013935
4.24262e-07
-0.000139019
3.70338e-07
-0.000138923
3.017e-07
-0.000139293
2.21653e-07
-0.000141824
3.24756e-07
-0.000143889
5.9166e-07
-0.000144563
7.04124e-07
-0.00014475
6.95475e-07
-0.000144755
6.51036e-07
-0.000144499
5.33094e-07
-0.000142558
4.82228e-07
-0.000140869
4.16845e-07
-0.00014034
3.54591e-07
-0.000140227
2.96911e-07
-0.000140372
2.1937e-07
-0.000142566
2.22467e-07
-0.000145575
5.31108e-07
-0.000146759
7.31212e-07
-0.000147087
7.40896e-07
-0.000147147
6.86907e-07
-0.000147
5.79053e-07
-0.000144912
5.11142e-07
-0.000142316
3.32229e-07
-0.000141439
2.39172e-07
-0.000141253
1.93766e-07
-0.000141315
1.26923e-07
-0.000143212
9.6809e-08
-0.000147
4.67583e-07
-0.000148822
8.03526e-07
-0.000149354
8.5117e-07
-0.000149476
7.70685e-07
-0.000149374
6.31404e-07
-0.000146813
5.24218e-07
-0.000143251
2.1213e-07
-0.000141955
-1.38731e-08
-0.000141677
-7.78852e-08
-0.000141786
-1.401e-07
-0.000143904
-1.98533e-07
-0.000148515
2.60828e-07
-0.000150767
8.25235e-07
-0.000151362
9.32728e-07
-0.000151471
8.80817e-07
-0.000151235
7.30678e-07
-0.000147292
4.98793e-07
-0.000142412
-1.23268e-07
-0.000140611
-6.23921e-07
-0.000140337
-7.99095e-07
-0.000140578
-9.05663e-07
-0.00014442
-9.98028e-07
-0.00015018
-1.59279e-07
-0.000152393
6.20207e-07
-0.00015286
8.2164e-07
-0.000153021
7.59679e-07
-0.000151738
6.01088e-07
-0.000144159
1.02957e-07
-0.000137452
-1.09279e-06
-0.000135263
-2.2988e-06
-0.000135257
-2.98923e-06
-0.000136685
-3.57713e-06
-0.000142843
-3.6318e-06
-0.00014707
-2.65855e-06
-0.000148373
-2.39974e-06
-0.000148632
-3.12225e-06
-0.000144495
-4.06981e-06
-0.000134149
-5.57137e-06
-0.000122086
-1.26731e-05
-0.000133283
-3.10583e-05
2.9598e-05
-0.000134425
3.68731e-07
-0.000136815
6.44755e-07
-0.000137773
8.19992e-07
-0.000137988
7.89593e-07
-0.000137977
7.36197e-07
-0.000137867
6.59249e-07
-0.000137643
5.74895e-07
-0.000136706
5.30131e-07
-0.000135738
5.60899e-07
-0.000135312
5.41672e-07
-0.000135159
5.1816e-07
-0.000135235
4.16007e-07
-0.000137149
4.79472e-07
-0.000139132
7.45629e-07
-0.000139807
8.73188e-07
-0.000139951
8.25427e-07
-0.000139937
7.72699e-07
-0.000139821
6.63991e-07
-0.000139222
5.63183e-07
-0.00013777
5.53633e-07
-0.000137055
5.45203e-07
-0.000136792
5.0307e-07
-0.000136698
4.3857e-07
-0.000137438
3.9002e-07
-0.000140023
5.72602e-07
-0.000141474
8.40961e-07
-0.000141879
8.88214e-07
-0.000141951
8.42861e-07
-0.000141913
7.43437e-07
-0.000141569
6.44961e-07
-0.000139841
5.73157e-07
-0.000138712
5.33324e-07
-0.000138347
4.52064e-07
-0.00013824
3.93029e-07
-0.000138411
3.08083e-07
-0.000140648
4.06795e-07
-0.000142939
7.46904e-07
-0.000143727
9.45648e-07
-0.000143939
9.3484e-07
-0.000143944
8.49374e-07
-0.000143788
7.40609e-07
-0.000141975
6.5302e-07
-0.000140051
5.44282e-07
-0.000139465
3.87465e-07
-0.000139326
2.94157e-07
-0.000139362
2.19244e-07
-0.000141057
1.91505e-07
-0.000144327
5.29377e-07
-0.000145698
8.75837e-07
-0.000146043
9.74873e-07
-0.000146124
9.52498e-07
-0.000146055
8.5729e-07
-0.000144272
7.61615e-07
-0.000141277
5.90994e-07
-0.000140173
2.69828e-07
-0.000139931
1.36769e-07
-0.000139947
7.20015e-08
-0.000141123
-3.67547e-10
-0.000145169
2.86808e-07
-0.000147431
8.17915e-07
-0.000147973
1.00076e-06
-0.000148087
9.77061e-07
-0.000148071
8.95233e-07
-0.000146233
7.55232e-07
-0.000142097
4.94702e-07
-0.000140198
1.96941e-08
-0.000139769
-2.25502e-07
-0.000139791
-2.58108e-07
-0.000140836
-3.13365e-07
-0.00014554
-5.95384e-08
-0.000148499
6.5644e-07
-0.000149251
1.00642e-06
-0.000149426
1.04523e-06
-0.000149406
8.91714e-07
-0.000146967
6.93694e-07
-0.00014114
5.26924e-08
-0.000138305
-7.54927e-07
-0.000137874
-1.20996e-06
-0.000137916
-1.32385e-06
-0.000139544
-1.47763e-06
-0.000145332
-1.02149e-06
-0.000148676
1.53879e-07
-0.000149481
8.09882e-07
-0.000149661
9.21242e-07
-0.000149361
7.23577e-07
-0.000144491
4.09467e-07
-0.000136674
-1.04601e-06
-0.000132701
-2.80413e-06
-0.000132061
-4.07639e-06
-0.00013221
-4.76901e-06
-0.000135177
-5.20233e-06
-0.000139364
-4.79439e-06
-0.000141142
-4.51676e-06
-0.000141442
-5.4053e-06
-0.000139895
-6.24537e-06
-0.000134068
-7.24884e-06
-0.000125954
-1.29743e-05
-0.000131508
-2.92007e-05
3.38787e-05
-0.000133701
4.60005e-07
-0.0001362
7.29224e-07
-0.00013723
9.35793e-07
-0.000137453
9.39987e-07
-0.000137438
8.90659e-07
-0.00013732
8.19986e-07
-0.000137039
7.47431e-07
-0.000135996
7.04292e-07
-0.000134998
7.17119e-07
-0.000134568
6.72137e-07
-0.000134375
6.26415e-07
-0.000134393
5.48708e-07
-0.000136076
5.62677e-07
-0.000138334
8.38304e-07
-0.000139081
9.84176e-07
-0.000139252
9.70082e-07
-0.000139206
8.83884e-07
-0.000139102
8.0811e-07
-0.000138478
7.24006e-07
-0.000136948
7.15447e-07
-0.000136137
6.63586e-07
-0.000135836
6.16974e-07
-0.000135736
5.65465e-07
-0.00013619
4.9718e-07
-0.000138782
6.36674e-07
-0.000140509
9.40577e-07
-0.000140954
1.02552e-06
-0.000141019
9.87085e-07
-0.000140979
9.05254e-07
-0.000140661
8.02209e-07
-0.000139055
7.45133e-07
-0.000137709
6.2511e-07
-0.000137197
5.14944e-07
-0.000137019
4.85171e-07
-0.000137038
4.29332e-07
-0.000138752
4.58913e-07
-0.000141539
8.09582e-07
-0.000142546
1.07104e-06
-0.000142764
1.10163e-06
-0.000142779
1.02147e-06
-0.000142654
9.25067e-07
-0.000141141
8.30497e-07
-0.000138983
6.35766e-07
-0.000138183
3.67312e-07
-0.000137946
2.93298e-07
-0.000137893
2.48513e-07
-0.0001388
2.32976e-07
-0.000142142
5.123e-07
-0.000143964
9.72263e-07
-0.000144423
1.16354e-06
-0.000144512
1.17173e-06
-0.000144479
1.09289e-06
-0.000143295
9.54665e-07
-0.00014017
7.26778e-07
-0.000138669
2.53098e-07
-0.000138295
4.57504e-08
-0.000138253
1.16685e-08
-0.000138709
-4.49925e-08
-0.000142227
1.50215e-07
-0.000145084
7.5507e-07
-0.000145866
1.12561e-06
-0.000146064
1.19055e-06
-0.00014609
1.12348e-06
-0.000145175
9.98061e-07
-0.000140981
6.96747e-07
-0.000138194
7.37287e-08
-0.000137612
-3.70325e-07
-0.000137562
-5.27792e-07
-0.000137911
-5.92753e-07
-0.00014165
-4.56974e-07
-0.000145675
3.27081e-07
-0.000146853
1.02321e-06
-0.000147068
1.20276e-06
-0.000147145
1.09659e-06
-0.000146136
9.09894e-07
-0.000140731
4.51113e-07
-0.000136243
-7.52067e-07
-0.000135207
-1.40079e-06
-0.000135227
-1.85905e-06
-0.000135588
-2.04218e-06
-0.000139638
-1.97954e-06
-0.000144774
-8.85381e-07
-0.000146532
3.22912e-07
-0.000146823
7.62398e-07
-0.000146948
7.89655e-07
-0.000144825
5.65964e-07
-0.00013762
-3.71684e-07
-0.000131449
-2.83484e-06
-0.000129322
-4.42064e-06
-0.000129319
-5.71194e-06
-0.000130303
-6.4875e-06
-0.000134198
-6.69559e-06
-0.00013699
-6.52595e-06
-0.000138139
-7.24952e-06
-0.000138278
-8.65157e-06
-0.000135826
-9.73551e-06
-0.000129861
-1.29331e-05
-0.000130585
-2.69105e-05
3.75272e-05
-0.000132756
5.36235e-07
-0.0001353
7.77208e-07
-0.000136442
1.02788e-06
-0.000136679
1.08089e-06
-0.000136663
1.04831e-06
-0.000136536
9.89517e-07
-0.000136239
9.19527e-07
-0.00013517
8.65523e-07
-0.000134108
8.37582e-07
-0.000133644
7.70911e-07
-0.000133443
7.25504e-07
-0.000133385
6.58629e-07
-0.000134786
6.47883e-07
-0.000137293
8.74882e-07
-0.000138183
1.06982e-06
-0.000138337
1.08832e-06
-0.00013831
1.03506e-06
-0.000138177
9.66582e-07
-0.00013753
8.90619e-07
-0.000135953
8.65189e-07
-0.000135081
7.6579e-07
-0.000134748
6.84248e-07
-0.000134616
6.38159e-07
-0.000134817
5.76187e-07
-0.00013723
6.72387e-07
-0.000139322
9.82035e-07
-0.000139876
1.14031e-06
-0.000139943
1.12834e-06
-0.000139895
1.09414e-06
-0.000139645
1.00119e-06
-0.000138159
9.06605e-07
-0.000136532
7.40836e-07
-0.0001359
5.86901e-07
-0.000135653
5.21605e-07
-0.000135624
5.26881e-07
-0.000136764
5.10628e-07
-0.000139846
7.76489e-07
-0.000141207
1.10159e-06
-0.000141507
1.22038e-06
-0.000141535
1.18845e-06
-0.000141454
1.11924e-06
-0.000140369
9.94843e-07
-0.000137902
7.63643e-07
-0.000136759
4.21405e-07
-0.000136365
2.7502e-07
-0.000136289
2.90458e-07
-0.000136704
2.84036e-07
-0.000139749
4.68607e-07
-0.000142146
9.85048e-07
-0.000142835
1.26996e-06
-0.000142992
1.29876e-06
-0.000143017
1.24475e-06
-0.000142553
1.09219e-06
-0.000139546
8.30801e-07
-0.000137133
3.89812e-07
-0.000136492
8.17345e-08
-0.000136363
-6.26958e-08
-0.000136538
-9.91695e-08
-0.000139222
3.99726e-09
-0.000142823
6.01073e-07
-0.000143993
1.16987e-06
-0.000144278
1.3829e-06
-0.000144353
1.34777e-06
-0.000144126
1.17789e-06
-0.000140929
8.81308e-07
-0.000136881
1.35599e-07
-0.000135615
-3.84325e-07
-0.000135554
-7.2727e-07
-0.000135652
-8.92929e-07
-0.000137784
-9.1065e-07
-0.000142693
-2.28705e-07
-0.000144934
8.8354e-07
-0.000145322
1.3543e-06
-0.000145414
1.39782e-06
-0.000145135
1.24381e-06
-0.000141336
8.18675e-07
-0.000135915
-3.85818e-07
-0.000133464
-1.48295e-06
-0.000133086
-2.31802e-06
-0.000133137
-2.56749e-06
-0.00013461
-2.71875e-06
-0.000139883
-2.25118e-06
-0.000143435
-8.09848e-07
-0.000144522
1.86127e-07
-0.000144745
4.74424e-07
-0.000144496
4.66762e-07
-0.000140157
-2.95701e-09
-0.000132957
-1.72997e-06
-0.000128518
-4.38419e-06
-0.000127486
-5.97632e-06
-0.000127565
-7.41965e-06
-0.000129733
-8.09427e-06
-0.000133191
-8.22697e-06
-0.000135013
-8.65149e-06
-0.000135617
-1.0302e-05
-0.00013521
-1.18562e-05
-0.000133055
-1.32411e-05
-0.000130196
-2.43053e-05
4.04399e-05
-0.000131809
6.21434e-07
-0.000134305
8.09619e-07
-0.000135611
1.12092e-06
-0.00013587
1.20522e-06
-0.000135864
1.21004e-06
-0.000135727
1.14473e-06
-0.000135457
1.08288e-06
-0.000134395
1.02508e-06
-0.000133215
9.3866e-07
-0.000132733
8.69768e-07
-0.000132532
8.04423e-07
-0.000132462
7.22314e-07
-0.000133572
6.82653e-07
-0.000136204
8.99049e-07
-0.000137264
1.14743e-06
-0.000137446
1.22304e-06
-0.000137408
1.21174e-06
-0.000137271
1.1627e-06
-0.000136728
1.08695e-06
-0.000135033
9.87523e-07
-0.000134015
8.44609e-07
-0.00013363
7.27863e-07
-0.000133503
6.80098e-07
-0.000133633
6.20316e-07
-0.000135726
6.86672e-07
-0.00013807
1.00354e-06
-0.000138799
1.23664e-06
-0.000138956
1.29374e-06
-0.000138917
1.26873e-06
-0.000138782
1.19098e-06
-0.000137599
1.0815e-06
-0.000135442
8.76952e-07
-0.000134582
6.80098e-07
-0.000134354
6.097e-07
-0.000134292
5.28505e-07
-0.000135138
5.09902e-07
-0.000138144
7.38864e-07
-0.000139871
1.14841e-06
-0.000140319
1.31679e-06
-0.000140417
1.32493e-06
-0.00014039
1.2495e-06
-0.000139932
1.13293e-06
-0.000137434
9.10471e-07
-0.000135456
5.80461e-07
-0.000134913
3.85596e-07
-0.000134792
3.12081e-07
-0.000134987
2.65955e-07
-0.000137554
3.84397e-07
-0.000140526
9.03302e-07
-0.000141498
1.33606e-06
-0.000141757
1.45081e-06
-0.000141804
1.35553e-06
-0.000141717
1.21143e-06
-0.000139635
1.01387e-06
-0.000136263
4.71946e-07
-0.000135006
1.76531e-07
-0.000134823
-3.70591e-08
-0.000134862
-1.67254e-07
-0.000136395
-1.92942e-07
-0.00014058
3.04961e-07
-0.000142638
1.16305e-06
-0.00014302
1.52852e-06
-0.000143086
1.55421e-06
-0.000143073
1.36083e-06
-0.000141286
1.08209e-06
-0.000136903
4.17623e-07
-0.00013465
-4.19903e-07
-0.000134155
-9.60821e-07
-0.000134162
-1.07698e-06
-0.000134667
-1.15828e-06
-0.00013883
-8.95467e-07
-0.000142972
3.5109e-07
-0.000144177
1.34986e-06
-0.000144343
1.60111e-06
-0.000144391
1.55293e-06
-0.000142846
1.2951e-06
-0.000137369
4.08792e-07
-0.000133149
-1.3671e-06
-0.000131666
-2.40471e-06
-0.000131569
-2.96618e-06
-0.00013179
-3.25108e-06
-0.000134793
-3.35862e-06
-0.000139921
-2.37662e-06
-0.000142591
-8.97737e-07
-0.000143454
-1.3907e-07
-0.000143673
3.65393e-08
-0.000142596
1.9982e-07
-0.000136833
-8.01468e-07
-0.000130621
-3.21768e-06
-0.00012719
-5.95762e-06
-0.000126615
-7.59524e-06
-0.000127003
-9.08514e-06
-0.000130074
-9.61407e-06
-0.000133225
-9.77112e-06
-0.000134532
-1.10545e-05
-0.000134671
-1.29044e-05
-0.000134391
-1.3831e-05
-0.000129757
-2.22617e-05
4.33148e-05
-0.000130961
7.00056e-07
-0.000133319
8.41273e-07
-0.000134824
1.189e-06
-0.000135183
1.33508e-06
-0.000135181
1.33608e-06
-0.000135078
1.30733e-06
-0.000134843
1.24575e-06
-0.000133868
1.17018e-06
-0.000132514
1.05729e-06
-0.000131937
9.55455e-07
-0.000131723
8.67306e-07
-0.000131644
7.79743e-07
-0.000132537
7.0953e-07
-0.000135133
9.17794e-07
-0.000136384
1.21748e-06
-0.000136673
1.37089e-06
-0.000136669
1.36721e-06
-0.000136567
1.3415e-06
-0.000136218
1.26649e-06
-0.000134668
1.14052e-06
-0.000133208
9.09631e-07
-0.000132742
8.21794e-07
-0.000132582
7.30876e-07
-0.000132642
6.58772e-07
-0.000134444
6.7732e-07
-0.000136963
1.01182e-06
-0.000137878
1.32766e-06
-0.000138107
1.42674e-06
-0.000138113
1.40129e-06
-0.000138034
1.34002e-06
-0.000137339
1.23863e-06
-0.000134992
1.05193e-06
-0.000133642
8.23233e-07
-0.000133319
6.85451e-07
-0.000133255
5.79639e-07
-0.000133832
4.86642e-07
-0.000136749
6.67225e-07
-0.000138822
1.13964e-06
-0.000139405
1.42e-06
-0.000139549
1.44233e-06
-0.000139552
1.36751e-06
-0.000139432
1.26602e-06
-0.000137578
1.10245e-06
-0.000134817
7.17925e-07
-0.000133841
5.23593e-07
-0.00013369
3.66444e-07
-0.000133727
2.45929e-07
-0.0001355
2.39169e-07
-0.000139182
6.92291e-07
-0.000140751
1.35096e-06
-0.000141066
1.58689e-06
-0.000141116
1.52841e-06
-0.000141102
1.42161e-06
-0.000139836
1.25016e-06
-0.000136273
8.69972e-07
-0.00013427
1.92261e-07
-0.000133797
-4.11112e-08
-0.000133774
-1.98679e-07
-0.000134197
-2.9916e-07
-0.000137826
-1.1871e-07
-0.000141389
8.39487e-07
-0.000142379
1.5748e-06
-0.000142512
1.68065e-06
-0.000142549
1.55702e-06
-0.000141923
1.33227e-06
-0.000138099
9.05304e-07
-0.000134621
-2.073e-07
-0.000133202
-9.64827e-07
-0.000132889
-1.20954e-06
-0.000132958
-1.31587e-06
-0.00013469
-1.39853e-06
-0.000139972
-7.11398e-07
-0.000143006
8.22819e-07
-0.000143802
1.59949e-06
-0.000143955
1.70266e-06
-0.000143807
1.5033e-06
-0.000140261
1.23349e-06
-0.000134328
-2.44115e-07
-0.000131377
-2.21257e-06
-0.000130605
-3.05197e-06
-0.000130619
-3.65924e-06
-0.000131198
-3.90853e-06
-0.000135216
-3.77564e-06
-0.000139492
-2.52516e-06
-0.000141494
-1.25081e-06
-0.000142211
-7.47148e-07
-0.000142371
-6.70496e-07
-0.000140733
-6.59984e-07
-0.000134887
-2.14297e-06
-0.000129198
-4.64248e-06
-0.000126301
-7.55214e-06
-0.00012609
-9.18638e-06
-0.000126898
-1.08404e-05
-0.000130569
-1.11375e-05
-0.000133385
-1.17773e-05
-0.000134513
-1.34975e-05
-0.000135118
-1.44533e-05
-0.00013005
-2.02391e-05
4.57788e-05
-0.000130419
7.79074e-07
-0.000132468
8.76718e-07
-0.000134197
1.25112e-06
-0.000134659
1.42549e-06
-0.00013473
1.46156e-06
-0.000134642
1.44584e-06
-0.000134463
1.3993e-06
-0.000133742
1.3337e-06
-0.000132279
1.18997e-06
-0.000131571
1.03639e-06
-0.000131317
9.30685e-07
-0.000131189
8.24684e-07
-0.000131766
7.55588e-07
-0.000134197
9.27747e-07
-0.000135653
1.28808e-06
-0.000136048
1.48241e-06
-0.000136129
1.50554e-06
-0.000136053
1.47067e-06
-0.000135874
1.39882e-06
-0.000134719
1.30907e-06
-0.000132968
1.07057e-06
-0.000132274
8.97732e-07
-0.000132057
7.90393e-07
-0.000132008
7.06387e-07
-0.000133317
6.78674e-07
-0.000136078
9.81365e-07
-0.00013724
1.39131e-06
-0.00013753
1.54424e-06
-0.000137582
1.54345e-06
-0.000137512
1.47782e-06
-0.000137175
1.41075e-06
-0.000135074
1.25605e-06
-0.000133335
9.24274e-07
-0.000132805
7.48027e-07
-0.000132709
6.20321e-07
-0.000132868
5.0943e-07
-0.000135248
5.57207e-07
-0.000138013
1.05245e-06
-0.000138869
1.50643e-06
-0.000139074
1.61525e-06
-0.00013909
1.53808e-06
-0.000139026
1.44015e-06
-0.000137812
1.31696e-06
-0.000134846
1.02744e-06
-0.000133404
5.415e-07
-0.000133051
3.4292e-07
-0.000133046
2.28712e-07
-0.000133712
1.13932e-07
-0.000137461
3.47868e-07
-0.000140079
1.19694e-06
-0.000140666
1.69566e-06
-0.000140766
1.7723e-06
-0.000140759
1.68194e-06
-0.000140192
1.54769e-06
-0.000136939
1.24458e-06
-0.000134214
4.55536e-07
-0.00013323
-5.86091e-08
-0.000133007
-2.84859e-07
-0.000133072
-3.42505e-07
-0.000134723
-4.46284e-07
-0.000139494
1.53918e-07
-0.000141894
1.35293e-06
-0.000142352
1.82028e-06
-0.000142379
1.72277e-06
-0.000142285
1.59793e-06
-0.000139995
1.50862e-06
-0.000135255
5.42062e-07
-0.000132717
-7.73405e-07
-0.000131965
-1.25899e-06
-0.000131981
-1.51842e-06
-0.000132255
-1.7349e-06
-0.000135841
-1.68761e-06
-0.000141095
-3.97581e-07
-0.000143209
1.1342e-06
-0.000143603
1.66301e-06
-0.00014371
1.6645e-06
-0.000142929
1.48305e-06
-0.000137871
1.00885e-06
-0.000132638
-1.01869e-06
-0.000130277
-2.94723e-06
-0.00012974
-3.705e-06
-0.000129791
-4.15239e-06
-0.000131105
-4.51512e-06
-0.000135685
-4.21938e-06
-0.000139286
-2.88553e-06
-0.000140902
-1.90234e-06
-0.000141507
-1.59791e-06
-0.000141451
-1.53733e-06
-0.000139109
-1.89659e-06
-0.000133373
-3.57301e-06
-0.000128077
-6.28577e-06
-0.000125499
-9.22357e-06
-0.000125525
-1.09266e-05
-0.000127196
-1.26489e-05
-0.000131418
-1.29519e-05
-0.000133879
-1.42939e-05
-0.00013533
-1.51666e-05
-0.000130472
-1.78584e-05
4.7908e-05
-0.000130145
8.71714e-07
-0.000131768
8.89537e-07
-0.000133722
1.27926e-06
-0.000134332
1.53265e-06
-0.000134455
1.6024e-06
-0.00013439
1.57258e-06
-0.00013426
1.54365e-06
-0.000133793
1.45533e-06
-0.000132327
1.32885e-06
-0.000131465
1.12099e-06
-0.000131136
1.00528e-06
-0.000131003
9.0942e-07
-0.000131192
8.00403e-07
-0.00013336
9.38733e-07
-0.000135168
1.32806e-06
-0.000135708
1.59099e-06
-0.00013582
1.62529e-06
-0.000135794
1.61082e-06
-0.000135691
1.52973e-06
-0.000134937
1.42258e-06
-0.000133002
1.25998e-06
-0.000132091
9.73047e-07
-0.000131809
8.62379e-07
-0.000131722
7.62144e-07
-0.000132332
6.54974e-07
-0.000135177
8.90648e-07
-0.000136835
1.4381e-06
-0.000137231
1.68376e-06
-0.000137315
1.72749e-06
-0.000137277
1.6474e-06
-0.000137104
1.57133e-06
-0.000135471
1.43498e-06
-0.000133363
1.09336e-06
-0.000132632
7.73583e-07
-0.000132405
6.16905e-07
-0.000132382
5.26383e-07
-0.000133624
4.51497e-07
-0.000137045
8.46388e-07
-0.00013857
1.54664e-06
-0.000138844
1.76482e-06
-0.000138891
1.77554e-06
-0.000138848
1.66489e-06
-0.000138177
1.54161e-06
-0.000135261
1.2745e-06
-0.000133373
7.05778e-07
-0.000132807
3.50283e-07
-0.000132681
1.53393e-07
-0.000132768
5.87251e-08
-0.000135108
7.16212e-08
-0.000138995
7.98382e-07
-0.000140323
1.71002e-06
-0.000140526
1.96143e-06
-0.000140561
1.96213e-06
-0.000140443
1.80998e-06
-0.000138329
1.65139e-06
-0.000134685
9.15074e-07
-0.000133002
1.84917e-08
-0.000132532
-3.58784e-07
-0.000132491
-5.00201e-07
-0.000132806
-6.15414e-07
-0.000136461
-5.36996e-07
-0.000140784
6.34612e-07
-0.000142133
1.78799e-06
-0.000142362
1.98448e-06
-0.00014242
1.99298e-06
-0.000141672
1.82113e-06
-0.000137166
1.55677e-06
-0.000133108
-3.67184e-08
-0.000131648
-1.22783e-06
-0.000131356
-1.76267e-06
-0.000131392
-1.99669e-06
-0.000132183
-2.16176e-06
-0.000137154
-1.88179e-06
-0.000141553
-1.58073e-07
-0.000142952
1.25485e-06
-0.000143242
1.64816e-06
-0.000143322
1.57868e-06
-0.000141874
1.36666e-06
-0.000135809
7.08376e-07
-0.000131145
-1.5783e-06
-0.000129408
-3.52649e-06
-0.000129157
-4.2205e-06
-0.0001293
-4.88703e-06
-0.00013141
-5.19493e-06
-0.000135832
-4.66283e-06
-0.000138665
-3.43722e-06
-0.000139979
-2.70191e-06
-0.000140404
-2.61955e-06
-0.000140157
-2.5561e-06
-0.000137564
-3.49307e-06
-0.00013207
-5.1179e-06
-0.000127095
-8.13055e-06
-0.000124706
-1.12054e-05
-0.000124927
-1.27113e-05
-0.000127902
-1.45146e-05
-0.000132048
-1.54348e-05
-0.000134539
-1.62885e-05
-0.000131181
-1.48897e-05
4.9258e-05
-0.000129983
9.8102e-07
-0.000131087
9.27388e-07
-0.000133312
1.29333e-06
-0.000134126
1.63492e-06
-0.000134297
1.7283e-06
-0.000134291
1.71535e-06
-0.000134172
1.66146e-06
-0.000133899
1.55768e-06
-0.000132637
1.46051e-06
-0.000131504
1.22866e-06
-0.000131045
1.07463e-06
-0.000130845
9.95781e-07
-0.000130812
8.94618e-07
-0.000132415
9.20973e-07
-0.000134748
1.31641e-06
-0.000135523
1.67616e-06
-0.000135712
1.77939e-06
-0.000135684
1.72881e-06
-0.000135599
1.66691e-06
-0.00013518
1.55987e-06
-0.000133278
1.3968e-06
-0.00013208
1.09894e-06
-0.000131675
9.07641e-07
-0.000131548
8.16691e-07
-0.000131669
6.98032e-07
-0.000133999
7.94883e-07
-0.00013642
1.37775e-06
-0.000137073
1.81617e-06
-0.000137169
1.89878e-06
-0.000137162
1.84653e-06
-0.000137059
1.72264e-06
-0.000136057
1.61209e-06
-0.000133677
1.28833e-06
-0.000132585
8.43952e-07
-0.000132222
6.53579e-07
-0.000132116
5.35028e-07
-0.000132402
4.45276e-07
-0.000135427
5.99447e-07
-0.000138088
1.38603e-06
-0.00013872
1.90824e-06
-0.000138797
2.01205e-06
-0.000138786
1.92784e-06
-0.000138544
1.77695e-06
-0.000136324
1.58809e-06
-0.000133692
9.46969e-07
-0.000132714
3.70312e-07
-0.000132393
1.24266e-07
-0.000132356
5.15535e-08
-0.000132985
-2.4894e-08
-0.000136959
2.78228e-07
-0.000139759
1.42773e-06
-0.000140371
2.08034e-06
-0.000140443
2.16731e-06
-0.000140447
2.07393e-06
-0.000139719
1.95529e-06
-0.00013598
1.52238e-06
-0.000133151
3.76369e-07
-0.000132277
-3.55442e-07
-0.000132062
-7.51321e-07
-0.000132091
-7.69244e-07
-0.000133267
-8.76371e-07
-0.000138302
-3.2821e-07
-0.00014137
1.27435e-06
-0.000142011
2.13923e-06
-0.000142066
2.24181e-06
-0.000142062
2.17809e-06
-0.000140406
2.03127e-06
-0.0001353
1.16758e-06
-0.000132148
-6.52943e-07
-0.000130965
-1.81608e-06
-0.000130818
-2.19739e-06
-0.000130877
-2.41351e-06
-0.00013259
-2.6503e-06
-0.000138274
-1.95527e-06
-0.000141882
1.23973e-07
-0.000142819
1.27538e-06
-0.000142954
1.57184e-06
-0.000142815
1.61089e-06
-0.000140352
1.38171e-06
-0.000134408
1.77737e-07
-0.00013044
-2.39007e-06
-0.000128937
-4.22862e-06
-0.000128743
-4.95249e-06
-0.000128991
-5.59822e-06
-0.00013171
-5.835e-06
-0.00013578
-5.09129e-06
-0.000138107
-3.98928e-06
-0.000139255
-3.57083e-06
-0.000139465
-3.68603e-06
-0.000139052
-3.70461e-06
-0.000136371
-4.9664e-06
-0.000131167
-6.8579e-06
-0.000126238
-1.02224e-05
-0.000124019
-1.31116e-05
-0.00012472
-1.45058e-05
-0.000129035
-1.6696e-05
-0.00013256
-1.78877e-05
-0.000132368
-1.17646e-05
4.96991e-05
-0.000129872
1.07504e-06
-0.000130409
1.00158e-06
-0.00013284
1.29724e-06
-0.000133996
1.6896e-06
-0.000134271
1.86531e-06
-0.000134291
1.84821e-06
-0.000134178
1.76606e-06
-0.00013402
1.67743e-06
-0.000133097
1.58432e-06
-0.000131607
1.34974e-06
-0.000130964
1.15132e-06
-0.0001307
1.06495e-06
-0.000130601
9.91357e-07
-0.000131473
9.40302e-07
-0.000134202
1.23175e-06
-0.000135418
1.7521e-06
-0.000135663
1.93523e-06
-0.000135684
1.89611e-06
-0.00013561
1.82019e-06
-0.000135373
1.68595e-06
-0.000133819
1.56099e-06
-0.000132185
1.20771e-06
-0.000131616
9.50048e-07
-0.000131375
8.46692e-07
-0.00013131
7.8008e-07
-0.000132478
7.4808e-07
-0.000135661
1.1834e-06
-0.000136954
1.86585e-06
-0.000137172
2.06348e-06
-0.000137179
2.04082e-06
-0.00013712
1.90512e-06
-0.000136667
1.77986e-06
-0.000134378
1.54003e-06
-0.000132651
9.80424e-07
-0.000132025
6.40959e-07
-0.000131809
5.60926e-07
-0.000131771
4.80907e-07
-0.000133317
4.6575e-07
-0.00013705
1.00429e-06
-0.000138536
1.91578e-06
-0.000138769
2.14149e-06
-0.000138775
2.15841e-06
-0.000138735
2.02307e-06
-0.000137657
1.88753e-06
-0.000134511
1.38171e-06
-0.000132761
5.40213e-07
-0.000132147
1.3341e-07
-0.000131937
1.44125e-08
-0.000131978
-3.49177e-08
-0.000134061
-3.05827e-08
-0.000138429
7.62107e-07
-0.000140152
1.9815e-06
-0.000140429
2.32167e-06
-0.000140463
2.37022e-06
-0.00014039
2.18953e-06
-0.000138269
2.01967e-06
-0.000134234
1.07996e-06
-0.000132369
-1.7942e-07
-0.000131694
-7.35251e-07
-0.000131476
-9.40617e-07
-0.00013159
-9.71376e-07
-0.000134211
-1.01834e-06
-0.000139354
5.36103e-08
-0.0001415
1.74877e-06
-0.000142035
2.40007e-06
-0.000142147
2.35478e-06
-0.000142039
2.2162e-06
-0.00013902
2.1627e-06
-0.000133705
7.64826e-07
-0.000131248
-1.28376e-06
-0.000130516
-2.20461e-06
-0.000130356
-2.70009e-06
-0.000130452
-2.78447e-06
-0.000132842
-2.90129e-06
-0.000138435
-1.87474e-06
-0.000141273
1.84294e-07
-0.000142045
1.24965e-06
-0.000142208
1.50624e-06
-0.000142156
1.33097e-06
-0.000139534
7.41984e-07
-0.00013358
-4.46859e-07
-0.000129808
-3.08653e-06
-0.000128383
-4.97076e-06
-0.000128281
-5.64844e-06
-0.000128707
-6.32387e-06
-0.000131832
-6.39085e-06
-0.000135447
-5.47796e-06