/*--------------------------------*- C++ -*----------------------------------*\
  =========                 |
  \\      /  F ield         | OpenFOAM: The Open Source CFD Toolbox
   \\    /   O peration     | Website:  https://openfoam.org
    \\  /    A nd           | Version:  12
     \\/     M anipulation  |
\*---------------------------------------------------------------------------*/
FoamFile
{
    format      ascii;
    class       volScalarField;
    location    "12.8";
    object      T;
}
// * * * * * * * * * * * * * * * * * * * * * * * * * * * * * * * * * * * * * //

dimensions      [0 0 0 1 0 0 0];

internalField   nonuniform List<scalar> 
9801
(
0.828148
0.829017
0.829038
0.829619
0.830313
0.831268
0.832546
0.835245
0.839426
0.842347
0.843846
0.844748
0.845387
0.845772
0.846182
0.846767
0.847577
0.848614
0.85032
0.854203
0.858189
0.860251
0.861349
0.862059
0.86229
0.862502
0.863023
0.863805
0.864825
0.866187
0.869543
0.874352
0.877099
0.878377
0.87902
0.879084
0.879132
0.879541
0.880266
0.881307
0.882526
0.88538
0.890661
0.894185
0.895645
0.896469
0.896502
0.896223
0.896437
0.897096
0.898072
0.89938
0.901994
0.908014
0.912535
0.914319
0.915313
0.914625
0.913386
0.913507
0.914418
0.915554
0.917183
0.920582
0.927388
0.932407
0.934688
0.935952
0.935156
0.932125
0.931375
0.932376
0.934026
0.936376
0.942035
0.950564
0.955826
0.958323
0.95973
0.957749
0.953235
0.951893
0.953281
0.95627
0.962101
0.974533
0.983183
0.98772
0.990989
0.992716
0.988385
0.981426
0.98079
0.986368
1.00046
1.02421
1.04068
1.15872
1.53424
0.831993
0.833021
0.832505
0.832907
0.83379
0.83486
0.836073
0.838855
0.843056
0.845732
0.847334
0.848493
0.849306
0.849009
0.848919
0.849653
0.850709
0.851866
0.853556
0.857504
0.861258
0.86331
0.864648
0.865669
0.865565
0.86491
0.865443
0.86651
0.867747
0.869121
0.872258
0.876892
0.879702
0.88126
0.882368
0.88248
0.881246
0.881425
0.882456
0.883775
0.885103
0.887657
0.8929
0.896656
0.89843
0.899672
0.899969
0.898163
0.897791
0.898746
0.900095
0.901578
0.904052
0.90983
0.914503
0.916687
0.91812
0.918361
0.91583
0.914922
0.915931
0.917326
0.919044
0.922279
0.929208
0.934316
0.93682
0.93838
0.938586
0.934998
0.933286
0.934388
0.936315
0.938712
0.944345
0.952889
0.95795
0.960582
0.962478
0.962291
0.956876
0.954499
0.956592
0.95944
0.965141
0.975548
0.983916
0.988892
0.993095
0.996667
0.994281
0.987678
0.98615
0.990699
0.999708
1.0186
1.03545
1.15634
1.55384
0.835818
0.837155
0.836776
0.836983
0.837754
0.838804
0.840011
0.842704
0.846946
0.84963
0.851223
0.852457
0.853425
0.853306
0.853006
0.853547
0.854531
0.855702
0.857362
0.861267
0.865034
0.867088
0.868495
0.869672
0.869865
0.869152
0.869489
0.87043
0.871624
0.872953
0.875854
0.880431
0.883286
0.884956
0.886287
0.886803
0.885651
0.885585
0.886455
0.887707
0.889036
0.891363
0.896462
0.900347
0.902331
0.903821
0.904437
0.902747
0.902031
0.90282
0.904148
0.905688
0.907974
0.913478
0.918301
0.920751
0.922464
0.923343
0.921341
0.919699
0.920286
0.921677
0.9235
0.926461
0.933078
0.938492
0.941308
0.943205
0.944392
0.9418
0.939218
0.939818
0.941696
0.944097
0.949061
0.957269
0.962998
0.966382
0.969036
0.970378
0.965822
0.962098
0.963539
0.966806
0.971244
0.980411
0.99113
0.997956
1.00258
1.00702
1.0065
1.00181
1.00037
1.00365
1.01081
1.02775
1.04388
1.16905
1.57361
0.840758
0.842364
0.84217
0.842073
0.842663
0.843652
0.844932
0.847721
0.851985
0.854757
0.856391
0.857634
0.858676
0.858815
0.858248
0.858583
0.859479
0.860688
0.862525
0.866474
0.870284
0.872423
0.873873
0.875108
0.875664
0.874836
0.874802
0.875542
0.876681
0.878105
0.881073
0.88582
0.888888
0.890638
0.89204
0.892935
0.891902
0.891306
0.891919
0.893047
0.894455
0.896881
0.902063
0.906252
0.908422
0.910005
0.910987
0.909638
0.908389
0.90887
0.910079
0.911666
0.914081
0.919635
0.924867
0.927578
0.929391
0.930687
0.929286
0.926849
0.926991
0.928403
0.930378
0.933302
0.939837
0.946064
0.949375
0.951526
0.953303
0.951676
0.947848
0.947673
0.94962
0.952235
0.956458
0.964851
0.971927
0.975894
0.978794
0.981011
0.978569
0.973618
0.97319
0.976456
0.980587
0.987733
0.998984
1.0077
1.01321
1.01829
1.02112
1.01802
1.01472
1.0156
1.02157
1.03433
1.04595
1.18226
1.59072
0.846118
0.847867
0.847871
0.847613
0.848107
0.849067
0.85037
0.853373
0.857722
0.860478
0.862111
0.86335
0.864379
0.864744
0.864134
0.864314
0.865186
0.866358
0.868273
0.872408
0.876353
0.878562
0.880038
0.881276
0.882029
0.881266
0.880907
0.881603
0.882735
0.884177
0.887205
0.892196
0.895518
0.897349
0.898753
0.899785
0.899029
0.898065
0.898587
0.899732
0.901133
0.903413
0.908512
0.913081
0.915517
0.917174
0.918442
0.917798
0.916011
0.916153
0.917398
0.918996
0.921293
0.926573
0.932089
0.935154
0.93712
0.938675
0.938408
0.935554
0.934895
0.936332
0.938398
0.941094
0.947068
0.953913
0.957769
0.960129
0.962169
0.962322
0.958414
0.956402
0.95785
0.960512
0.963936
0.971295
0.980008
0.98508
0.988248
0.991146
0.991707
0.986572
0.98325
0.984692
0.988723
0.994294
1.00423
1.0146
1.02174
1.02729
1.03246
1.03214
1.02817
1.0263
1.02762
1.03553
1.04424
1.18897
1.60034
0.851899
0.853727
0.85382
0.853548
0.853998
0.85495
0.856185
0.859134
0.863626
0.86646
0.868141
0.869411
0.870502
0.87111
0.870552
0.870549
0.871348
0.872465
0.874144
0.878272
0.882548
0.884931
0.886481
0.887756
0.88871
0.888179
0.887489
0.888053
0.889157
0.890522
0.893321
0.898461
0.902089
0.904102
0.905577
0.906781
0.906513
0.90507
0.905213
0.906298
0.907721
0.909876
0.914806
0.919709
0.922499
0.924363
0.925878
0.926252
0.924
0.923048
0.924036
0.925633
0.927793
0.932685
0.938665
0.942216
0.944429
0.946234
0.947344
0.944994
0.942663
0.943204
0.945104
0.947408
0.952323
0.959935
0.964865
0.967561
0.969782
0.971391
0.96887
0.964985
0.964699
0.966936
0.969841
0.975141
0.984485
0.991609
0.995763
0.998794
1.00096
0.998088
0.992724
0.9916
0.994271
0.998499
1.00549
1.01572
1.02412
1.03022
1.0357
1.03951
1.03812
1.03393
1.03124
1.03393
1.03913
1.19128
1.60557
0.857315
0.859195
0.859316
0.859087
0.859598
0.860594
0.861842
0.864675
0.868984
0.871774
0.873512
0.87487
0.876073
0.876893
0.876385
0.876254
0.877035
0.878173
0.87978
0.883685
0.887992
0.890475
0.892118
0.89347
0.894603
0.894282
0.893196
0.893606
0.894754
0.896223
0.899031
0.904043
0.907713
0.90983
0.911391
0.912729
0.913139
0.911376
0.910687
0.911625
0.913139
0.91541
0.920283
0.925382
0.928264
0.930123
0.931669
0.932775
0.931192
0.929062
0.929328
0.930809
0.932792
0.937077
0.94367
0.947912
0.95018
0.951938
0.953616
0.952921
0.949615
0.948696
0.949985
0.951952
0.955274
0.962802
0.969533
0.973094
0.975378
0.97738
0.976974
0.972499
0.970271
0.971316
0.973825
0.977182
0.984739
0.994091
0.999729
1.00329
1.00621
1.00707
1.00215
0.998002
0.997947
1.00081
1.0053
1.01367
1.0233
1.03053
1.03621
1.04126
1.04303
1.04091
1.03571
1.03212
1.03187
1.19032
1.6084
0.862043
0.86392
0.864059
0.86375
0.864244
0.865273
0.866594
0.869502
0.873768
0.876472
0.878155
0.879508
0.880728
0.881679
0.881246
0.880852
0.88156
0.882727
0.884399
0.888288
0.892649
0.895122
0.896731
0.898075
0.899284
0.899417
0.898077
0.898003
0.89903
0.900457
0.903231
0.908349
0.912212
0.914313
0.915844
0.917205
0.918192
0.916921
0.915406
0.915854
0.917216
0.919131
0.923667
0.929394
0.932646
0.934472
0.935951
0.937308
0.93681
0.934201
0.933603
0.934684
0.936365
0.939366
0.946048
0.951751
0.954642
0.956424
0.958105
0.958524
0.955271
0.952888
0.953197
0.954929
0.957281
0.963046
0.971572
0.976713
0.979528
0.981587
0.982709
0.979372
0.975135
0.974455
0.976121
0.978701
0.983107
0.992546
1.00089
1.00561
1.00896
1.01185
1.01116
1.00488
1.00154
1.00241
1.00553
1.01067
1.01955
1.02807
1.03445
1.03968
1.04397
1.04451
1.04136
1.03505
1.02729
1.18562
1.60987
0.866121
0.867993
0.868232
0.86778
0.868089
0.869029
0.870229
0.872829
0.87748
0.880523
0.8822
0.883509
0.884684
0.885694
0.885368
0.884689
0.885191
0.886274
0.88772
0.891287
0.896195
0.898987
0.90058
0.901872
0.903075
0.903584
0.902259
0.901763
0.902509
0.903756
0.905777
0.910743
0.915478
0.917877
0.919407
0.92075
0.92195
0.921323
0.919379
0.919326
0.920383
0.921861
0.925037
0.931277
0.935636
0.937806
0.939338
0.940777
0.941186
0.938623
0.937083
0.937625
0.939063
0.940978
0.946124
0.953433
0.957496
0.959654
0.961334
0.962406
0.960125
0.956429
0.955905
0.95724
0.959181
0.962411
0.970602
0.978208
0.982
0.984346
0.986212
0.985739
0.980561
0.97739
0.977604
0.979581
0.98231
0.988521
0.999004
1.00639
1.01055
1.01354
1.0156
1.01308
1.00714
1.0048
1.00612
1.00946
1.01528
1.02419
1.03153
1.03702
1.04186
1.04486
1.04443
1.03919
1.02816
1.17969
1.6111
0.869534
0.871406
0.87175
0.871193
0.871292
0.872109
0.873194
0.875093
0.879818
0.883742
0.885594
0.886856
0.887986
0.888973
0.888809
0.887906
0.888168
0.889111
0.890336
0.892955
0.89827
0.901935
0.903713
0.904999
0.906171
0.906922
0.905796
0.90482
0.905283
0.906343
0.907742
0.911494
0.917264
0.92059
0.922316
0.923667
0.924922
0.924998
0.922852
0.92206
0.922727
0.923998
0.925892
0.931304
0.937315
0.940352
0.942041
0.943464
0.944495
0.942727
0.940094
0.939924
0.940992
0.942558
0.94545
0.952814
0.958817
0.961682
0.963521
0.965132
0.96495
0.960946
0.95881
0.959204
0.96073
0.962679
0.967542
0.976929
0.983056
0.9861
0.988281
0.990036
0.98761
0.981722
0.979743
0.980741
0.983029
0.986066
0.993571
1.00375
1.01005
1.01369
1.01662
1.01852
1.01556
1.00968
1.00775
1.00934
1.01299
1.01953
1.02795
1.03433
1.03935
1.04349
1.04506
1.04255
1.033
1.17484
1.61235
0.872316
0.874175
0.874628
0.874001
0.873823
0.874515
0.875543
0.876922
0.880874
0.885804
0.88824
0.889554
0.890649
0.891639
0.891763
0.890626
0.890529
0.891315
0.892431
0.894118
0.898879
0.903732
0.906102
0.907481
0.908653
0.909646
0.909083
0.907447
0.907407
0.908245
0.909447
0.911706
0.917537
0.922305
0.924573
0.926008
0.927287
0.928063
0.926229
0.924334
0.924549
0.925606
0.927043
0.930484
0.937501
0.942027
0.944194
0.945685
0.947016
0.946704
0.94337
0.941904
0.942476
0.943798
0.945533
0.950523
0.958689
0.963291
0.965678
0.96738
0.968633
0.966428
0.962012
0.960832
0.961585
0.963287
0.965707
0.972734
0.982165
0.987075
0.989661
0.991757
0.993191
0.989525
0.98415
0.982869
0.983793
0.985893
0.989442
0.998023
1.00764
1.01353
1.01719
1.02015
1.02119
1.01761
1.01218
1.01055
1.0123
1.01607
1.0232
1.03132
1.03704
1.04141
1.04416
1.04419
1.0385
1.17264
1.61377
0.874613
0.876469
0.877055
0.876527
0.875988
0.876498
0.877441
0.878586
0.881342
0.88673
0.890115
0.891762
0.892913
0.893931
0.894449
0.893284
0.892549
0.89309
0.894095
0.895352
0.898704
0.904467
0.907834
0.909536
0.910779
0.911893
0.912138
0.91017
0.90924
0.909827
0.910927
0.912409
0.916879
0.923083
0.926315
0.928003
0.929311
0.930438
0.929684
0.926897
0.926243
0.92706
0.928344
0.930212
0.936076
0.942723
0.945895
0.947641
0.949048
0.94999
0.947522
0.94427
0.943869
0.944817
0.946357
0.948891
0.956393
0.963941
0.967468
0.969507
0.97113
0.971463
0.966969
0.963064
0.962758
0.963972
0.965875
0.969071
0.977837
0.986618
0.99083
0.993513
0.995889
0.996633
0.991286
0.985836
0.98495
0.986409
0.98887
0.993039
1.00217
1.01109
1.01648
1.02002
1.02289
1.0237
1.01973
1.01432
1.01274
1.01452
1.01842
1.026
1.0337
1.03891
1.04264
1.04409
1.0427
1.17362
1.61539
0.876513
0.878455
0.879223
0.879092
0.878122
0.878295
0.87911
0.880154
0.881951
0.886876
0.891326
0.893461
0.894797
0.895889
0.896776
0.896168
0.894654
0.894726
0.895589
0.896724
0.898802
0.904361
0.908982
0.911174
0.912574
0.913754
0.914623
0.913286
0.911301
0.911412
0.912379
0.913629
0.916264
0.92273
0.92744
0.929612
0.931042
0.932297
0.9328
0.93024
0.928235
0.928547
0.92963
0.931022
0.934295
0.941891
0.947033
0.949342
0.950864
0.952206
0.951848
0.947751
0.945589
0.946073
0.947456
0.949149
0.953309
0.962233
0.968144
0.970691
0.972366
0.973874
0.973301
0.968081
0.964968
0.964933
0.966255
0.968335
0.972726
0.983059
0.991207
0.994887
0.997058
0.998863
0.998508
0.99271
0.988151
0.987769
0.989274
0.991874
0.996789
1.00632
1.01443
1.01935
1.0227
1.02527
1.02552
1.02132
1.01596
1.01443
1.01605
1.0199
1.02777
1.03524
1.04012
1.0426
1.04527
1.17805
1.61741
0.878083
0.880235
0.881135
0.881603
0.880483
0.88007
0.880695
0.881677
0.882992
0.886814
0.892053
0.894837
0.896378
0.897569
0.898627
0.898934
0.897177
0.896459
0.897122
0.898194
0.899609
0.903844
0.909572
0.912534
0.914137
0.915392
0.916504
0.916363
0.913911
0.913146
0.913884
0.915033
0.916558
0.921437
0.927837
0.931001
0.932673
0.93399
0.935139
0.9341
0.930913
0.930137
0.930901
0.932169
0.933895
0.939445
0.947006
0.950742
0.952695
0.954123
0.955182
0.952771
0.948682
0.947875
0.948722
0.950133
0.952008
0.957895
0.966907
0.971617
0.97403
0.975897
0.977414
0.975107
0.969125
0.966891
0.967613
0.969275
0.971348
0.976489
0.98713
0.994049
0.997095
0.999439
1.00172
1.00113
0.994947
0.99075
0.990651
0.992308
0.995047
1.00054
1.00985
1.01709
1.02164
1.0249
1.02722
1.02727
1.02265
1.01713
1.01552
1.01678
1.02046
1.02856
1.03605
1.04034
1.04573
1.18512
1.61993
0.879501
0.881885
0.882838
0.883718
0.883058
0.881978
0.882327
0.88324
0.88437
0.886976
0.892377
0.896003
0.897803
0.899097
0.900231
0.901129
0.90009
0.898512
0.898767
0.899717
0.900884
0.903498
0.909487
0.913623
0.915591
0.916944
0.918126
0.918889
0.917093
0.915203
0.915442
0.916434
0.917675
0.920323
0.927074
0.932031
0.934251
0.935675
0.936966
0.937535
0.934623
0.932152
0.932319
0.933387
0.934743
0.937334
0.944857
0.951277
0.954037
0.955731
0.957214
0.957778
0.953967
0.950392
0.949982
0.950812
0.952308
0.954781
0.962656
0.971351
0.975238
0.977211
0.978861
0.980253
0.977123
0.971501
0.969825
0.970194
0.971421
0.973564
0.979955
0.990756
0.997409
1.0006
1.0029
1.0047
1.00349
0.997647
0.993722
0.993447
0.994884
0.99754
1.00378
1.01309
1.01979
1.02399
1.02694
1.02894
1.02888
1.02389
1.01787
1.0159
1.01671
1.02029
1.029
1.03617
1.04429
1.19345
1.62268
0.880882
0.883464
0.884445
0.885469
0.885541
0.884173
0.884083
0.884873
0.885909
0.887536
0.892241
0.896937
0.899233
0.900649
0.901838
0.902928
0.902921
0.900948
0.900492
0.901225
0.902311
0.903864
0.908721
0.914345
0.917043
0.918523
0.919744
0.920858
0.920445
0.917812
0.917096
0.917806
0.918932
0.920384
0.925115
0.932144
0.935685
0.937442
0.938755
0.939971
0.939028
0.935323
0.934055
0.934569
0.935655
0.937136
0.941403
0.949961
0.955125
0.957556
0.959287
0.96077
0.959991
0.954845
0.951969
0.95208
0.953125
0.954647
0.957862
0.967062
0.974846
0.978282
0.980695
0.98273
0.983527
0.978627
0.972834
0.97143
0.972373
0.974058
0.976433
0.983294
0.993873
1.00013
1.00326
1.00573
1.00774
1.00649
0.999977
0.99559
0.99528
0.996976
0.999954
1.00701
1.01616
1.02237
1.02627
1.02896
1.03072
1.03023
1.02469
1.01817
1.01558
1.01586
1.02001
1.02902
1.04002
1.20168
1.62509
0.882207
0.88505
0.886068
0.887149
0.887789
0.886668
0.885959
0.886487
0.887409
0.888563
0.891827
0.897484
0.900687
0.90229
0.903516
0.904629
0.905332
0.903728
0.902343
0.902743
0.903732
0.904927
0.907782
0.914155
0.918285
0.920186
0.921475
0.922658
0.923374
0.921207
0.919087
0.919215
0.920126
0.921319
0.923553
0.93041
0.936464
0.93907
0.940595
0.941903
0.942734
0.939959
0.936364
0.935804
0.936612
0.937896
0.939791
0.94612
0.954622
0.958674
0.960612
0.962084
0.963484
0.961833
0.956406
0.954004
0.954064
0.955073
0.956745
0.961253
0.971683
0.978961
0.981956
0.983645
0.985053
0.98556
0.980764
0.975482
0.974234
0.974795
0.976237
0.978782
0.986608
0.997331
1.00339
1.00631
1.00842
1.00972
1.00791
1.00172
0.997601
0.997287
0.998859
1.00211
1.00999
1.01916
1.02498
1.02828
1.03043
1.03189
1.03111
1.0255
1.0182
1.01456
1.01462
1.01944
1.03295
1.20756
1.62656
0.883407
0.886716
0.887792
0.888896
0.889817
0.88929
0.887858
0.887957
0.888787
0.889871
0.891795
0.897239
0.9019
0.903991
0.90524
0.906345
0.907341
0.906735
0.904588
0.904311
0.905088
0.90617
0.907653
0.912652
0.918901
0.921824
0.923308
0.924508
0.925624
0.925027
0.921858
0.920752
0.921287
0.922321
0.923665
0.927614
0.935563
0.940298
0.942472
0.943892
0.94514
0.944837
0.94046
0.937781
0.937946
0.938964
0.940272
0.942678
0.950624
0.958422
0.961809
0.96386
0.965551
0.966606
0.963054
0.957194
0.95556
0.956431
0.957887
0.959524
0.964448
0.974854
0.981176
0.983994
0.986357
0.988362
0.988508
0.982771
0.977193
0.976047
0.977149
0.979
0.981793
0.989762
0.999831
1.00522
1.00793
1.00999
1.0116
1.00997
1.00371
0.999548
0.999162
1.0007
1.00403
1.01231
1.02127
1.02657
1.02951
1.0316
1.03293
1.03205
1.02632
1.01787
1.01303
1.01246
1.02316
1.20919
1.62698
0.884319
0.888471
0.889585
0.890686
0.89167
0.891797
0.890032
0.889531
0.890226
0.891248
0.892476
0.896178
0.902273
0.905461
0.90698
0.90814
0.909215
0.909642
0.907498
0.906032
0.906382
0.907325
0.908497
0.911032
0.917918
0.92297
0.925131
0.926369
0.927502
0.928201
0.925711
0.922762
0.922585
0.923515
0.924707
0.926358
0.932237
0.939989
0.943563
0.945394
0.94673
0.947938
0.946522
0.941719
0.939767
0.940056
0.941007
0.942437
0.945943
0.955183
0.962158
0.964977
0.966529
0.967866
0.968778
0.964835
0.959658
0.958414
0.958724
0.959723
0.961536
0.967539
0.978424
0.984791
0.987391
0.989069
0.990569
0.990601
0.98517
0.980055
0.978994
0.979611
0.98104
0.983931
0.992705
1.00242
1.0075
1.01018
1.01224
1.01372
1.01231
1.00614
1.00148
1.00057
1.00179
1.00496
1.01372
1.0229
1.02802
1.03068
1.03262
1.03381
1.03289
1.02683
1.0171
1.01062
1.01213
1.20526
1.62627
0.884625
0.889983
0.891369
0.892485
0.893473
0.894122
0.892735
0.891357
0.891662
0.892534
0.893601
0.895467
0.901279
0.906503
0.908779
0.909989
0.911046
0.911966
0.910928
0.908226
0.907749
0.908525
0.909639
0.910956
0.915288
0.922675
0.926446
0.928187
0.929318
0.930413
0.930034
0.926264
0.924411
0.924791
0.925723
0.926898
0.929235
0.936785
0.943719
0.946688
0.948518
0.949935
0.950864
0.947708
0.942655
0.941438
0.942285
0.943524
0.944924
0.949078
0.958731
0.964837
0.967468
0.969483
0.971164
0.971468
0.966266
0.960919
0.959897
0.9609
0.962373
0.96421
0.970284
0.980817
0.986563
0.989216
0.991524
0.993444
0.993294
0.987525
0.982011
0.980609
0.981561
0.983415
0.986665
0.995389
1.00449
1.00943
1.01236
1.01472
1.01627
1.01452
1.00752
1.00226
1.00124
1.0025
1.00588
1.01487
1.02411
1.02902
1.0315
1.03338
1.03437
1.03327
1.02652
1.0143
1.00678
1.19588
1.62493
0.884181
0.890922
0.893087
0.894276
0.895291
0.896207
0.895803
0.893624
0.893118
0.89379
0.894816
0.896004
0.899462
0.906245
0.910017
0.911696
0.912784
0.913812
0.914181
0.911538
0.909552
0.909839
0.910815
0.911925
0.91364
0.919894
0.926731
0.929616
0.931133
0.93225
0.933184
0.931256
0.927192
0.926084
0.926705
0.927779
0.929097
0.9326
0.941188
0.947126
0.949539
0.951037
0.952343
0.953063
0.94925
0.944772
0.943926
0.944379
0.945429
0.947075
0.952456
0.962528
0.968277
0.970577
0.971907
0.973258
0.973587
0.968615
0.963802
0.962793
0.963082
0.964091
0.966037
0.97295
0.983923
0.989902
0.992353
0.993957
0.995435
0.995532
0.990251
0.984646
0.983094
0.983583
0.985102
0.988618
0.99827
1.00756
1.01215
1.01445
1.01628
1.01762
1.01593
1.00911
1.00368
1.00242
1.00335
1.00653
1.01562
1.02486
1.02952
1.03191
1.03381
1.03449
1.0331
1.02337
1.00934
1.1844
1.62403
0.88348
0.890801
0.894398
0.896044
0.897067
0.89801
0.898541
0.89672
0.894946
0.895167
0.896074
0.897136
0.898667
0.904066
0.910348
0.913085
0.914486
0.915573
0.916572
0.915705
0.912366
0.911349
0.911917
0.91292
0.914099
0.916853
0.92457
0.930346
0.932714
0.934077
0.935191
0.935631
0.932025
0.928356
0.928017
0.92894
0.930085
0.931436
0.9359
0.944914
0.950029
0.9523
0.954002
0.955449
0.955467
0.950297
0.945941
0.945552
0.946638
0.947909
0.9495
0.955254
0.965104
0.970215
0.972675
0.974772
0.97645
0.976318
0.970568
0.965235
0.964105
0.965067
0.966617
0.968731
0.975523
0.985935
0.991394
0.993926
0.996037
0.997846
0.997894
0.992416
0.986449
0.984662
0.985485
0.987395
0.99111
1.0005
1.009
1.01318
1.01563
1.01783
1.01964
1.01819
1.01092
1.00488
1.00321
1.00403
1.00695
1.01582
1.02487
1.02944
1.03203
1.03388
1.03457
1.03078
1.01948
1.17627
1.62404
0.883583
0.889188
0.894861
0.897317
0.898594
0.899653
0.900636
0.900364
0.897706
0.896768
0.897295
0.898213
0.899297
0.901825
0.908837
0.913956
0.916057
0.917249
0.918321
0.919001
0.916524
0.913416
0.913171
0.914085
0.915238
0.916488
0.920472
0.928739
0.933421
0.935454
0.936806
0.937944
0.937695
0.933286
0.930321
0.930244
0.930962
0.932081
0.933747
0.939581
0.948589
0.95311
0.955042
0.956277
0.957552
0.957442
0.952301
0.948544
0.948101
0.948536
0.949635
0.951504
0.958296
0.968478
0.973635
0.975719
0.976981
0.978225
0.978361
0.973219
0.968149
0.96702
0.967435
0.968508
0.970522
0.97782
0.988563
0.994126
0.996399
0.997836
0.999527
1.00022
0.995419
0.9893
0.987132
0.987218
0.988439
0.99201
1.00193
1.0111
1.01574
1.01817
1.02011
1.02151
1.02015
1.01284
1.006
1.00379
1.0044
1.00692
1.01542
1.02446
1.02927
1.03209
1.03402
1.03349
1.02933
1.1746
1.62517
0.884486
0.887349
0.893876
0.898274
0.900176
0.901305
0.902311
0.903089
0.901435
0.89879
0.898571
0.899395
0.90046
0.90173
0.905829
0.913212
0.917055
0.91879
0.919883
0.920975
0.920933
0.917259
0.915094
0.915398
0.916297
0.917337
0.918772
0.924246
0.932437
0.93639
0.938308
0.93971
0.94086
0.939619
0.934294
0.931735
0.932145
0.933322
0.934484
0.936155
0.94272
0.95146
0.955429
0.957477
0.959191
0.960596
0.95966
0.953663
0.949752
0.949638
0.950827
0.952236
0.954041
0.960749
0.970431
0.9751
0.977391
0.979408
0.981068
0.981117
0.975859
0.970198
0.968576
0.969336
0.970805
0.972838
0.979647
0.989705
0.995036
0.99792
1.00044
1.00228
1.00264
0.997402
0.990509
0.987764
0.988188
0.989876
0.993729
1.00347
1.01258
1.01722
1.01985
1.02188
1.02324
1.02191
1.01435
1.00672
1.00408
1.00445
1.0067
1.01473
1.02377
1.02891
1.03221
1.03314
1.03549
1.17862
1.62733
0.885618
0.887284
0.8916
0.898204
0.901317
0.902771
0.90378
0.904763
0.904984
0.902159
0.900383
0.900743
0.901658
0.902671
0.904219
0.909954
0.916965
0.92
0.921552
0.922641
0.923648
0.922335
0.918174
0.916737
0.917232
0.918249
0.91938
0.921298
0.928104
0.935774
0.939074
0.940729
0.942003
0.943117
0.941389
0.936257
0.934273
0.934497
0.935205
0.936378
0.938526
0.946117
0.95471
0.958473
0.960162
0.961218
0.962559
0.961888
0.956207
0.952725
0.952397
0.952779
0.953818
0.955789
0.963087
0.973159
0.978108
0.980147
0.981451
0.982958
0.983696
0.979054
0.973111
0.971142
0.971138
0.971974
0.973924
0.981634
0.992701
0.998391
1.00072
1.00226
1.00368
1.00427
0.999746
0.992958
0.990006
0.989869
0.991049
0.994366
1.00415
1.01386
1.01892
1.02152
1.02323
1.02435
1.02305
1.01565
1.0076
1.00448
1.00453
1.00618
1.01372
1.02277
1.02874
1.03116
1.03812
1.18709
1.63002
0.886956
0.888297
0.890113
0.89611
0.90168
0.903979
0.905244
0.90631
0.907321
0.906455
0.903174
0.902253
0.90277
0.903667
0.904749
0.907076
0.914231
0.92045
0.922955
0.924285
0.925345
0.926113
0.923331
0.919315
0.918623
0.919381
0.920435
0.92151
0.923768
0.93155
0.938693
0.941645
0.943362
0.94481
0.945837
0.943036
0.937444
0.935632
0.936325
0.937544
0.938724
0.940813
0.948682
0.956841
0.960285
0.962357
0.964119
0.965481
0.96426
0.95813
0.954064
0.953667
0.9547
0.956067
0.957969
0.964866
0.974587
0.979436
0.981946
0.984058
0.985677
0.986053
0.981199
0.974578
0.972161
0.972729
0.974328
0.976638
0.98402
0.994125
0.999184
1.00176
1.00403
1.00595
1.00678
1.00226
0.994624
0.9909
0.990713
0.992085
0.995311
1.00466
1.01459
1.01988
1.02246
1.02407
1.02509
1.02436
1.01741
1.00871
1.0047
1.00418
1.00516
1.01226
1.02188
1.02738
1.03816
1.19719
1.63286
0.888402
0.88943
0.890362
0.893269
0.900424
0.904948
0.906829
0.907933
0.908961
0.909643
0.907171
0.904205
0.904017
0.904866
0.905924
0.907069
0.910193
0.918096
0.923437
0.925681
0.927061
0.928179
0.928371
0.924442
0.921038
0.920675
0.921279
0.922285
0.923522
0.926593
0.935074
0.941614
0.944231
0.945674
0.946796
0.94777
0.944984
0.939842
0.938316
0.938519
0.939172
0.940409
0.94299
0.951563
0.959883
0.963356
0.964933
0.965986
0.967349
0.966742
0.960948
0.956838
0.956136
0.956469
0.957501
0.959451
0.967044
0.977493
0.982522
0.98449
0.98559
0.986978
0.988016
0.984091
0.977742
0.975337
0.97515
0.975746
0.977631
0.984986
0.99587
1.00204
1.00462
1.0063
1.00776
1.00854
1.0047
0.997106
0.992915
0.992295
0.993218
0.995762
1.00451
1.0148
1.0206
1.02347
1.02511
1.026
1.0255
1.0191
1.00976
1.00451
1.00316
1.00365
1.01116
1.02028
1.0347
1.20729
1.6353
0.889749
0.890434
0.891356
0.892715
0.897353
0.904559
0.90796
0.909479
0.91047
0.911478
0.911361
0.907774
0.905833
0.906161
0.906991
0.907915
0.909133
0.913318
0.921726
0.926466
0.928535
0.929883
0.930967
0.930426
0.925453
0.922276
0.922374
0.923465
0.924617
0.925761
0.929122
0.937992
0.944012
0.94645
0.948162
0.949663
0.950455
0.946761
0.941151
0.939499
0.940226
0.941453
0.942702
0.945113
0.953551
0.961501
0.964857
0.96699
0.968787
0.970183
0.969306
0.963232
0.958312
0.957471
0.958444
0.959923
0.961798
0.968587
0.978301
0.983127
0.985748
0.988024
0.989746
0.990557
0.986459
0.979273
0.97581
0.97578
0.977106
0.979341
0.986481
0.997193
1.00316
1.0058
1.00778
1.0097
1.01087
1.00729
0.999004
0.993964
0.99297
0.993909
0.996013
1.00405
1.01509
1.02164
1.02452
1.02575
1.02638
1.02602
1.02053
1.01081
1.00405
1.00161
1.00224
1.00968
1.02742
1.21491
1.63674
0.891465
0.891615
0.892507
0.893531
0.895344
0.901473
0.908062
0.910799
0.912176
0.913154
0.914065
0.912589
0.908576
0.907311
0.907805
0.908792
0.909888
0.911473
0.916798
0.924978
0.929051
0.930919
0.932276
0.933326
0.932261
0.927307
0.924768
0.924805
0.925374
0.926357
0.92773
0.931976
0.941109
0.946848
0.949137
0.950394
0.951428
0.952354
0.949112
0.943828
0.942269
0.942413
0.942991
0.944221
0.946977
0.95598
0.964382
0.96787
0.969449
0.970506
0.97193
0.971938
0.966469
0.961463
0.960216
0.960189
0.960972
0.962834
0.970065
0.980807
0.986414
0.988642
0.990004
0.991131
0.992067
0.988811
0.981907
0.978448
0.978062
0.978788
0.980412
0.986675
0.997709
1.00488
1.00814
1.00993
1.01137
1.01229
1.00929
1.00119
0.995568
0.994145
0.994795
0.996635
1.00406
1.01509
1.02188
1.02463
1.02577
1.02648
1.02639
1.02198
1.01218
1.00339
0.999803
0.999629
1.01708
1.21804
1.63698
0.893853
0.892985
0.893656
0.894602
0.895645
0.898139
0.905439
0.911363
0.913702
0.914883
0.915789
0.91636
0.913322
0.909532
0.909089
0.909949
0.911057
0.912115
0.913666
0.919746
0.927849
0.931578
0.933393
0.934819
0.935959
0.934369
0.928745
0.926045
0.926387
0.927518
0.92868
0.929924
0.934252
0.943403
0.948731
0.950982
0.952761
0.954263
0.954982
0.951235
0.945386
0.943372
0.943959
0.945195
0.946537
0.949046
0.957555
0.965584
0.96907
0.97129
0.973122
0.974516
0.974321
0.96857
0.962596
0.960993
0.961751
0.963255
0.965353
0.971958
0.981972
0.987188
0.98949
0.991375
0.993151
0.994491
0.991981
0.984585
0.979763
0.978742
0.979588
0.981157
0.986845
0.998384
1.00614
1.00932
1.01118
1.01292
1.01416
1.01191
1.00396
0.997549
0.995373
0.995499
0.996607
1.00298
1.01459
1.02192
1.02463
1.02571
1.02664
1.02686
1.02345
1.01327
1.00279
0.996564
1.00422
1.21457
1.63572
0.897018
0.894626
0.894876
0.895812
0.896839
0.897977
0.901147
0.908964
0.914168
0.91632
0.917549
0.918521
0.918397
0.914299
0.911351
0.911265
0.911911
0.912844
0.914009
0.916042
0.922907
0.930573
0.933933
0.935534
0.936695
0.937689
0.93622
0.931095
0.928775
0.92883
0.929353
0.930314
0.931782
0.936739
0.946095
0.951528
0.953665
0.954822
0.955876
0.956944
0.954007
0.94833
0.946288
0.946309
0.946744
0.947888
0.950509
0.959437
0.968215
0.971916
0.973482
0.974412
0.975736
0.976218
0.97149
0.96595
0.964269
0.964237
0.964718
0.966288
0.972497
0.983207
0.989682
0.99248
0.994115
0.995646
0.996827
0.994445
0.987003
0.981734
0.980537
0.981351
0.983029
0.987899
0.998834
1.00745
1.01141
1.01319
1.01458
1.0157
1.01406
1.00608
0.998505
0.995476
0.995447
0.996699
1.00271
1.01424
1.02185
1.0246
1.02571
1.02678
1.02704
1.02426
1.01375
0.999868
0.996371
1.2041
1.63342
0.90089
0.897711
0.896556
0.897112
0.897977
0.898887
0.900016
0.903831
0.912036
0.916892
0.918967
0.920181
0.921121
0.920412
0.91563
0.912791
0.91295
0.914014
0.915156
0.916201
0.918156
0.925463
0.932899
0.936017
0.937705
0.939169
0.940299
0.938448
0.932758
0.930015
0.930297
0.931414
0.932592
0.933904
0.938589
0.947801
0.95297
0.955252
0.957127
0.958635
0.959521
0.956527
0.95032
0.947417
0.947586
0.948707
0.95008
0.952395
0.960512
0.968802
0.972483
0.974884
0.976962
0.97858
0.97896
0.974388
0.967785
0.964803
0.964877
0.966144
0.96799
0.97398
0.984696
0.991347
0.994095
0.995592
0.996903
0.998485
0.997652
0.99071
0.984566
0.982691
0.982725
0.983625
0.98731
0.998001
1.00765
1.01205
1.01412
1.01555
1.01663
1.01577
1.0088
1.00053
0.996688
0.996071
0.996842
1.00205
1.01352
1.02128
1.02403
1.02544
1.02681
1.02706
1.02431
1.01081
0.997547
1.19003
1.63175
0.904006
0.902603
0.898931
0.89824
0.898799
0.899719
0.9007
0.902063
0.906514
0.914711
0.919263
0.921295
0.92269
0.923705
0.922551
0.9177
0.915339
0.915419
0.915929
0.916797
0.917981
0.920494
0.928253
0.935431
0.938453
0.93994
0.940929
0.942014
0.940738
0.935468
0.932852
0.932768
0.933149
0.934046
0.935514
0.940619
0.950208
0.955788
0.957938
0.959096
0.960138
0.961373
0.959503
0.953497
0.950396
0.950016
0.950221
0.951165
0.953389
0.961775
0.971363
0.975866
0.977827
0.979216
0.980517
0.981144
0.977168
0.970465
0.967428
0.967394
0.968237
0.969575
0.974163
0.984239
0.991481
0.995017
0.997743
0.999757
1.00114
1.00021
0.992892
0.985531
0.982799
0.98303
0.984271
0.987457
0.997548
1.00805
1.01289
1.01496
1.01677
1.01822
1.01775
1.01101
1.00169
0.996822
0.995965
0.996786
1.00122
1.01242
1.02039
1.0234
1.02523
1.02667
1.02705
1.02139
1.00913
1.17934
1.63124
0.905993
0.907134
0.903482
0.900312
0.900087
0.900816
0.901719
0.902554
0.903819
0.908833
0.917416
0.921902
0.92384
0.925201
0.926199
0.924763
0.919443
0.916659
0.916871
0.917922
0.919045
0.920101
0.922426
0.93034
0.937354
0.940216
0.941986
0.943534
0.944707
0.943153
0.937367
0.934044
0.934017
0.935054
0.936293
0.937617
0.9422
0.951454
0.956849
0.959283
0.961256
0.962814
0.963939
0.962199
0.955891
0.951641
0.951048
0.951997
0.953495
0.955646
0.962988
0.972302
0.976792
0.978844
0.98038
0.981954
0.983318
0.980953
0.97392
0.969374
0.968307
0.968854
0.970106
0.974127
0.985171
0.994238
0.998044
0.999731
1.00069
1.00184
1.0018
0.995725
0.988167
0.985037
0.984858
0.9858
0.988345
0.997396
1.00851
1.01434
1.0165
1.01777
1.01878
1.01857
1.01289
1.00318
0.997342
0.996005
0.996645
1.0005
1.01104
1.01911
1.02272
1.02497
1.02665
1.02572
1.02135
1.17642
1.63205
0.907743
0.909682
0.90908
0.904742
0.902094
0.901869