/*--------------------------------*- C++ -*----------------------------------*\
  =========                 |
  \\      /  F ield         | OpenFOAM: The Open Source CFD Toolbox
   \\    /   O peration     | Website:  https://openfoam.org
    \\  /    A nd           | Version:  12
     \\/     M anipulation  |
\*---------------------------------------------------------------------------*/
FoamFile
{
    format      ascii;
    class       surfaceScalarField;
    location    "2.05";
    object      phi;
}
// * * * * * * * * * * * * * * * * * * * * * * * * * * * * * * * * * * * * * //

dimensions      [1 0 -1 0 0 0 0];

internalField   nonuniform List<scalar> 
275392
(
-6.93125e-05
1.90969e-05
5.02329e-05
9.07557e-06
4.82023e-05
-5.64381e-05
3.5111e-05
2.96499e-05
-6.47609e-05
6.60056e-05
-6.04882e-05
-5.82391e-06
5.77026e-05
-7.20639e-05
1.43613e-05
6.56366e-05
-6.75242e-05
1.91526e-06
-3.88344e-05
-3.45212e-05
9.3135e-05
-6.9864e-05
6.9695e-05
4.5171e-05
1.62606e-05
-6.25729e-05
3.32312e-05
-5.72507e-05
-6.51449e-05
-5.80189e-06
7.09694e-05
6.02888e-05
1.02816e-07
-6.04403e-05
-6.47095e-05
-3.58599e-07
6.1381e-05
-6.52961e-05
3.85466e-06
-5.79095e-05
5.99114e-05
-2.003e-06
-6.38816e-05
5.96988e-06
-6.09267e-05
-2.95846e-06
6.62681e-05
-5.89756e-05
-7.16821e-06
7.74993e-05
-4.62394e-05
-3.12599e-05
-6.252e-05
1.59015e-06
-6.59077e-05
6.45232e-05
1.37888e-06
-6.96569e-05
1.73585e-05
5.22976e-05
-6.75033e-06
-6.25477e-05
6.7624e-05
-6.06318e-05
-6.93427e-06
3.77772e-05
2.95082e-05
-6.72854e-05
6.50808e-05
-6.30469e-05
-2.09088e-06
-2.1909e-05
5.96862e-05
-3.15877e-05
7.1367e-05
-3.66431e-05
3.64505e-05
2.26302e-05
-5.90808e-05
6.68228e-05
8.57122e-07
5.14651e-05
-5.94147e-06
-4.83247e-05
6.68309e-05
-5.5621e-09
-6.43126e-05
-3.57517e-07
-6.54338e-05
6.66997e-05
-1.27013e-06
-6.39166e-05
-4.0302e-07
6.32301e-05
-2.96417e-06
4.03918e-05
2.38023e-05
-6.41942e-05
6.15924e-05
-6.3241e-05
1.64865e-06
-4.03532e-05
7.10077e-05
-3.06545e-05
-2.0724e-05
6.11158e-05
1.4271e-06
0.000105861
-7.93768e-05
6.93778e-05
-7.07403e-05
1.36512e-06
-6.06894e-05
6.10752e-05
-3.89852e-07
6.58092e-05
-6.78811e-05
1.94841e-06
6.45217e-05
-6.45264e-05
9.14115e-06
6.02619e-05
6.34744e-05
-6.18672e-05
-1.0137e-06
-8.36099e-06
4.76109e-05
-3.36497e-05
3.71584e-06
4.69304e-05
6.8571e-05
-5.93902e-05
6.86708e-05
-6.99855e-05
1.80681e-05
5.19194e-05
4.81327e-06
-6.08771e-05
5.61834e-05
-2.77436e-05
6.28546e-05
2.6395e-06
-6.32392e-05
-6.52105e-06
-6.31359e-05
8.06189e-05
-1.91446e-06
-5.82165e-05
6.27653e-05
-6.25099e-05
-2.96127e-07
7.39413e-05
-7.51907e-05
1.35012e-06
-1.17987e-06
-6.45451e-05
6.63478e-05
-1.7927e-06
2.22183e-06
5.38534e-05
-8.832e-05
-6.6326e-05
3.82394e-05
6.88382e-05
-6.40024e-05
-4.90624e-06
5.44321e-05
-1.02533e-05
-3.58433e-05
-6.27233e-05
2.2964e-06
6.04248e-05
6.43427e-05
-6.43453e-05
6.25745e-05
-6.25861e-05
-6.40138e-06
5.38901e-05
-4.74887e-05
-4.68963e-05
4.04949e-05
6.64512e-05
-6.50274e-05
-1.42424e-06
-5.85964e-05
5.75919e-05
9.91362e-07
-5.99515e-05
1.37455e-06
-3.34881e-06
-5.2834e-05
5.61828e-05
6.4862e-05
-6.26215e-05
-2.18957e-06
-6.35594e-05
8.20911e-07
6.05362e-06
5.83595e-05
-6.44131e-05
3.92385e-06
9.42306e-05
6.03292e-05
-6.7482e-05
7.26284e-06
-6.24393e-05
6.19089e-05
5.84521e-07
-6.13214e-05
-1.10386e-06
-6.06135e-05
6.4104e-05
-3.49049e-06
-7.1088e-05
1.98707e-05
5.12167e-05
-7.24995e-06
-6.27295e-05
6.78043e-05
-2.16966e-06
-6.32926e-05
2.67905e-06
-6.11802e-06
6.38206e-05
-6.98664e-05
7.42264e-05
3.39299e-06
-3.0797e-07
0.000110399
-9.94501e-05
-1.70017e-06
-5.74002e-05
6.87165e-05
-1.13262e-05
-6.67093e-05
9.31123e-06
6.49915e-05
-1.91642e-05
6.79938e-05
-6.49541e-05
-3.03969e-06
-6.31638e-05
1.06518e-05
5.2512e-05
6.90757e-05
-3.26252e-05
6.29896e-05
-6.29923e-05
6.36079e-05
-2.27636e-06
-1.9744e-05
-4.56358e-05
6.54067e-05
-4.39039e-05
5.34922e-05
-6.29305e-05
2.46307e-06
6.04636e-05
9.81974e-07
-6.68931e-05
-5.25928e-05
6.39764e-05
-1.13989e-05
-6.11545e-05
6.40654e-05
-2.91089e-06
0.000114681
-8.03777e-05
7.53916e-05
-7.54769e-05
-6.3536e-05
6.00896e-07
-6.41113e-05
1.15218e-05
6.16117e-05
-6.15626e-05
-1.02025e-07
6.74271e-05
-6.74271e-05
-1.87905e-06
-6.0644e-05
3.16663e-06
5.67627e-05
-9.53843e-05
5.53842e-07
-5.66336e-05
5.60797e-05
1.29212e-05
-0.000114748
0.000100006
6.49566e-05
-6.49591e-05
6.75543e-05
-2.09984e-05
-4.65562e-05
7.1577e-05
-4.09109e-05
-3.06661e-05
5.42417e-05
-3.49293e-05
-2.03294e-05
5.35736e-05
-6.40816e-05
6.65928e-05
-2.38518e-06
6.00531e-05
-6.00504e-05
-1.1419e-05
-5.96711e-05
-6.40565e-05
6.29875e-05
8.11023e-07
-5.53347e-05
6.5204e-05
-9.85563e-06
-6.82859e-05
1.29463e-05
5.77596e-05
-6.50092e-05
7.3027e-06
-6.07552e-05
2.35705e-06
5.83981e-05
-0.000110634
0.000114154
3.82537e-05
-6.28418e-05
2.4588e-05
6.41731e-05
-5.95963e-06
-5.81374e-05
6.43155e-05
-6.22252e-05
-2.09234e-06
-6.16053e-05
6.7002e-05
-5.39674e-06
2.48042e-07
-6.09429e-05
-3.04073e-05
-2.25451e-05
8.02997e-05
-6.346e-05
1.85473e-06
-6.67001e-05
6.5e-05
1.59879e-06
-6.35409e-05
3.15621e-06
6.03867e-05
-6.0781e-05
-2.67905e-06
6.7777e-05
-6.23648e-05
-5.46996e-06
-6.30092e-05
2.22825e-06
-6.13009e-05
1.56583e-05
-5.3853e-05
6.62314e-05
-1.231e-05
-6.74699e-05
1.3614e-05
5.65122e-05
-5.65098e-05
7.27667e-09
5.54758e-05
9.86374e-07
5.86039e-05
-5.93895e-05
8.24735e-07
-6.35017e-05
-3.6578e-08
6.84317e-05
-2.59147e-05
-4.2517e-05
-6.94833e-05
4.57804e-05
2.36278e-05
6.62207e-05
-1.70277e-06
3.83053e-05
2.44721e-05
-6.27774e-05
-5.3097e-05
6.57316e-05
-1.26024e-05
-6.62208e-05
1.31718e-05
5.21203e-06
6.12393e-05
7.0825e-05
-7.08285e-05
9.08511e-07
6.27026e-05
5.44192e-05
4.23937e-06
5.7986e-05
-5.74321e-05
-6.34837e-05
4.14508e-05
2.40471e-05
7.3764e-05
-7.3764e-05
6.14765e-05
-6.31766e-05
1.70017e-06
3.73779e-05
-6.19402e-05
2.45623e-05
-4.47313e-05
-2.48027e-05
7.76463e-06
5.97886e-05
-6.05878e-05
6.28289e-05
-2.24113e-06
-6.39452e-06
5.4041e-05
-4.76457e-05
-6.15409e-05
6.50056e-05
-3.46473e-06
6.09157e-05
1.01951e-06
-1.6327e-06
6.23395e-05
-6.36955e-05
1.50951e-06
6.06716e-05
7.02328e-06
6.51643e-05
-6.554e-05
5.53225e-05
-5.44603e-05
-8.80014e-07
6.41251e-05
-6.39837e-05
5.64277e-05
-1.13243e-06
3.62058e-05
2.68034e-05
-6.30092e-05
6.36149e-05
-6.3017e-05
-5.98001e-07
6.50945e-05
-6.71906e-05
2.08343e-06
-6.18629e-05
9.26076e-06
5.26021e-05
-7.49321e-05
5.17105e-05
-1.09723e-05
-5.83517e-05
8.46869e-05
3.67339e-05
2.54252e-05
-6.21591e-05
6.64939e-05
-2.16146e-06
-6.41652e-05
-5.75214e-06
6.39176e-05
-6.38215e-05
-9.74434e-08
-6.09778e-05
-3.09793e-06
5.75609e-05
-5.15073e-05
-2.83361e-06
-5.05413e-05
5.33749e-05
6.08979e-05
-5.31962e-07
-4.85132e-06
-4.62816e-05
-5.71359e-05
1.0948e-06
5.60411e-05
6.48382e-05
-6.48382e-05
5.75094e-05
-2.01779e-06
-5.54946e-05
6.21222e-05
-2.85749e-06
-5.92655e-05
2.87539e-05
3.68327e-05
-4.31134e-05
-2.10769e-05
6.41903e-05
-4.55954e-06
-5.86042e-05
1.66192e-05
-3.90109e-05
-2.53755e-06
-5.0937e-05
5.3451e-05
-5.6374e-05
-1.70987e-06
5.80843e-05
6.21209e-05
6.04228e-05
-5.12636e-07
6.11529e-05
-6.60219e-05
4.95918e-06
1.21747e-05
5.13385e-05
5.55335e-05
-5.60607e-05
4.78179e-07
6.31901e-05
2.8529e-08
5.69167e-05
-1.42695e-06
6.4247e-05
-2.97737e-06
6.38126e-05
-6.64012e-05
2.72895e-06
-6.15568e-05
6.74515e-07
-5.28931e-05
5.48013e-05
-2.02478e-06
-4.66258e-06
-5.85785e-05
3.54459e-05
2.76792e-05
-6.31251e-05
-1.39105e-06
-5.54357e-05
5.68268e-05
-5.55972e-05
2.66003e-06
6.17212e-05
-2.44721e-07
-6.142e-05
6.16836e-05
-1.16588e-07
1.13344e-06
-3.66667e-05
5.67564e-05
-2.37717e-05
6.09924e-07
4.08465e-05
-5.43405e-05
4.4179e-05
2.26525e-05
5.63119e-05
-5.63578e-05
1.06458e-07
5.7265e-05
-8.9729e-07
-4.09717e-05
-2.02854e-05
6.12566e-05
6.49026e-05
-8.87435e-06
-5.60282e-05
-6.49541e-05
6.51988e-05
-2.44721e-07
5.88822e-05
6.90866e-06
6.17721e-05
-6.34719e-05
1.54245e-06
4.57411e-05
-5.21294e-05
3.79954e-06
-3.40533e-06
-5.03749e-05
5.36715e-05
-2.18575e-06
-6.32517e-05
-6.06877e-05
6.36748e-05
-2.93621e-06
6.42694e-05
-4.12674e-07
-2.25014e-05
6.07552e-05
6.32666e-05
-6.11223e-05
-2.23011e-06
-3.17422e-05
-4.36884e-05
6.59773e-05
-1.73168e-05
5.54153e-05
-4.3613e-05
1.01074e-05
-6.55533e-05
5.5443e-05
5.50789e-05
-5.29001e-05
-3.52418e-05
6.92219e-05
-3.40204e-05
3.61672e-05
2.24886e-05
-5.86557e-05
-5.25506e-05
-8.20459e-06
6.30994e-05
1.80321e-06
-3.37586e-05
-3.83053e-05
-2.84382e-05
-2.09046e-05
7.78162e-05
4.76479e-06
6.02141e-05
5.21127e-05
2.53866e-05
6.96661e-05
-5.95619e-05
6.26672e-05
-6.23353e-05
5.90974e-05
-5.7764e-05
-1.35385e-06
6.38959e-05
-6.38978e-05
5.8448e-05
6.04344e-07
-5.11597e-05
-2.49272e-05
8.82052e-05
-5.93074e-05
-7.40257e-06
6.55616e-05
9.80592e-06
-5.944e-05
1.26824e-07
-6.00434e-05
-1.36526e-06
6.19438e-05
-3.55236e-07
-6.53439e-05
6.57129e-05
4.43479e-06
-6.53873e-05
6.61428e-05
-1.34606e-06
-6.32148e-05
6.08007e-05
-6.04245e-05
-3.89537e-07
6.06393e-05
-6.15538e-05
9.14484e-07
5.91381e-05
-1.31449e-06
5.85802e-05
2.2276e-06
6.09636e-05
-5.92124e-05
-6.72598e-05
2.62882e-05
-6.01241e-05
6.17856e-05
-1.66153e-06
5.39803e-05
-5.53713e-05
5.84243e-05
-4.58824e-05
-6.94407e-06
6.59072e-05
-6.59072e-05
6.62827e-05
-6.69644e-05
7.82764e-07
-5.86142e-05
-2.71641e-06
2.86512e-05
3.765e-05
-1.04024e-06
6.80518e-06
5.74803e-05
6.29514e-05
-6.30428e-05
2.46367e-05
4.3565e-05
-5.79535e-05
2.9856e-05
3.85758e-05
6.41888e-05
-6.23525e-05
-1.80256e-06
-6.06779e-05
6.1953e-05
-1.27512e-06
-5.99571e-05
6.02474e-05
9.53124e-07
5.22544e-05
-5.32075e-05
3.40549e-05
2.96756e-05
-6.37305e-05
-1.9108e-05
3.63589e-05
-1.8472e-05
4.54778e-05
2.3405e-05
6.28134e-05
1.38475e-06
6.48253e-05
-6.48253e-05
-5.623e-05
-2.93918e-05
8.7872e-05
6.95521e-06
5.71489e-05
-2.09172e-05
5.82951e-05
6.32797e-05
-6.32797e-05
7.71501e-05
-5.31682e-05
-2.40006e-05
1.25788e-06
-6.43042e-05
-6.12318e-05
5.1649e-05
9.58276e-06
6.88697e-05
-6.92303e-05
3.60659e-07
5.96028e-06
5.78269e-05
-1.07231e-06
3.6899e-05
-3.14138e-05
3.6399e-05
2.10074e-05
-5.74064e-05
6.79868e-05
-6.18529e-05
3.39338e-05
3.20005e-05
-6.59343e-05
-6.24563e-05
-3.09974e-06
6.24229e-05
-5.74318e-05
6.42913e-05
-6.43563e-05
-2.55169e-08
-6.11172e-05
6.09399e-05
2.73305e-07
4.60848e-05
-6.57011e-05
6.16568e-05
4.04434e-06
6.54157e-05
-9.45136e-06
-5.59715e-05
-6.35128e-05
2.03994e-05
2.04429e-05
-6.10881e-05
-2.51882e-05
-3.02917e-05
6.08041e-05
-6.40892e-05
3.29493e-06
-1.93201e-07
-5.1327e-05
5.15202e-05
3.81765e-05
-6.05362e-05
2.23598e-05
-5.87891e-05
-9.51395e-06
4.18473e-05
-4.46809e-05
6.36137e-05
6.46974e-07
-5.94655e-05
6.50828e-07
1.47989e-06
-6.04096e-05
2.80785e-06
-6.39623e-05
-2.8257e-06
6.38989e-05
5.8354e-05
2.51302e-06
3.32048e-05
2.47426e-05
-5.79473e-05
-5.98536e-05
6.25326e-05
-2.67905e-06
-3.91001e-05
1.65775e-05
2.35083e-05
5.15202e-07
1.99413e-05
-8.84424e-05
-2.34417e-06
-6.3357e-05
-6.32131e-05
8.39758e-07
4.65705e-05
3.05737e-05
6.12704e-05
-6.12704e-05
6.16564e-05
-6.16965e-05
-1.2608e-07
-6.04148e-05
6.04032e-05
6.42452e-05
2.02187e-08
-1.84548e-07
8.22288e-06
5.80866e-05
2.18627e-06
5.93417e-05
6.2494e-05
2.29482e-06
6.26793e-05
6.62169e-05
6.63169e-05
-5.80852e-05
3.42481e-05
2.65973e-05
-6.08454e-05
4.76329e-05
-5.01963e-05
6.37148e-05
-7.24593e-08
-3.27153e-06
5.41606e-05
-5.08891e-05
-6.45534e-05
4.4439e-06
-3.65793e-06
5.44826e-05
-5.08247e-05
-6.46908e-05
2.4515e-06
6.2156e-05
1.4294e-06
-4.6497e-06
5.36325e-05
-4.89828e-05
6.22544e-05
-6.29122e-05
8.14623e-07
-5.38901e-05
4.92404e-05
6.09982e-05
-6.04087e-05
-6.75606e-07
7.48659e-05
-5.29618e-05
-2.18686e-05
-6.25217e-05
7.70705e-05
-1.51931e-05
4.40291e-05
3.08471e-05
-5.77237e-05
-2.19515e-06
-5.62374e-05
5.19231e-05
-3.59144e-05
1.10139e-05
5.04844e-07
3.75e-05
-3.87642e-05
-5.80923e-05
3.77445e-05
2.47598e-05
6.23772e-05
-6.00888e-05
-2.37317e-06
-6.72036e-05
6.7063e-05
-6.48382e-05
4.16026e-06
-7.72829e-06
-5.63002e-05
-5.93939e-05
-1.54507e-06
-5.94185e-05
-8.31596e-08
6.03603e-05
-5.1649e-06
-4.1023e-05
4.61879e-05
-3.00223e-05
5.147e-05
-2.19513e-05
-3.85899e-05
7.21102e-05
-3.35203e-05
6.6484e-05
-5.43733e-08
5.80524e-05
-5.76647e-05
-6.43874e-05
1.76457e-06
6.26228e-05
-3.01393e-06
-5.2074e-05
5.5088e-05
1.36284e-06
-6.40181e-05
-3.39859e-06
5.58272e-05
-7.42079e-06
-5.51773e-05
3.49581e-05
6.13053e-05
-3.56738e-07
-6.09961e-05
1.35016e-05
-3.49366e-05
-4.2633e-06
-5.87459e-05
-5.81749e-05
-9.28106e-06
6.81097e-05
-6.81097e-05
-5.94207e-05
1.20145e-06
3.62831e-05
-5.9699e-05
2.34159e-05
4.17571e-05
-4.6922e-05
-8.71979e-06
-5.62343e-05
6.27985e-05
-5.86044e-05
-2.51631e-06
6.07681e-05
5.53842e-07
-6.13219e-05
-6.80839e-05
5.93642e-05
-3.10252e-06
3.51216e-05
-3.05591e-05
-6.06779e-05
6.1309e-06
5.4547e-05
2.72048e-05
-6.36995e-05
6.01353e-05
-6.08906e-05
9.32711e-07
-5.05225e-05
5.61069e-05
-5.60637e-06
4.69053e-05
-6.79822e-05
6.42972e-05
-6.42972e-05
-3.9413e-06
5.43667e-05
-5.04254e-05
5.94543e-05
-6.02142e-05
7.59923e-07
-6.36101e-05
3.72051e-06
5.85585e-05
6.15769e-05
-6.15196e-05
-7.25388e-08
-4.52628e-05
-2.98822e-05
6.44003e-08
-5.58479e-05
5.57835e-05
-6.34732e-05
-9.44057e-05
2.66115e-06
9.4607e-05
1.11491e-06
-2.67573e-05
-2.33999e-05
4.95295e-05
1.81609e-05
1.20425e-05
6.55706e-05
-6.87189e-05
-1.92015e-05
-2.42232e-05
-6.90744e-05
2.70017e-05
4.202e-05
-6.21205e-05
6.21205e-05
4.37922e-07
5.90164e-05
1.30089e-06
-6.28418e-05
-5.45367e-05
3.63747e-06
5.64683e-05
-7.36271e-06
-5.5631e-05
7.98477e-06
-6.4334e-05
-4.82871e-05
7.74125e-05
2.27202e-06
6.19789e-05
4.91969e-05
2.04674e-05
4.77623e-05
-5.12939e-05
-2.26946e-05
5.94286e-05
-6.23652e-05
6.23652e-05
-4.13352e-19
1.78503e-06
-3.94933e-05
4.36586e-05
4.62394e-06
6.23781e-05
7.40366e-05
-1.79644e-05
-5.59891e-05
-6.22953e-05
6.23014e-05
-4.39553e-07
-6.44037e-05
4.80823e-05
2.60277e-05
-5.78291e-05
-8.31072e-06
-2.7999e-05
-1.64622e-05
6.55115e-05
-5.84982e-05
6.91e-07
-6.08158e-05
6.00295e-05
7.47164e-07
-4.5853e-06
-5.98021e-05
5.57577e-05
-5.56933e-05
-6.62679e-05
3.90266e-06
-6.75945e-05
1.32665e-06
5.96e-05
-5.58663e-05
-4.26329e-06
6.13219e-05
5.91133e-05
-6.27803e-05
3.31845e-06
-1.24477e-06
2.88681e-05
-2.70675e-05
-6.89082e-06
-5.7958e-05
-5.79153e-05
-5.25016e-06
-5.70539e-05
-4.40854e-06
6.27645e-05
-3.34881e-06
-6.40782e-05
-4.66434e-05
-2.79278e-05
7.9403e-05
-4.07032e-05
5.9526e-05
1.41681e-07
-5.72776e-05
-6.20537e-05
-2.35705e-05
5.97377e-05
-1.87677e-05
-4.5358e-05
5.95599e-05
-5.94725e-05
-8.1052e-08
1.82093e-06
-6.32087e-05
6.12168e-05
-1.63835e-05
-5.91588e-05
-4.87845e-05
5.06396e-05
-1.86797e-06
-3.70945e-06
6.51859e-05
-6.14765e-05
-1.49189e-06
-5.90435e-05
1.93294e-05
-4.26463e-05
2.56901e-05
-5.8019e-05
9.31523e-06
7.50503e-05
-2.51131e-05
1.78315e-06
-6.4627e-05
6.32949e-05
1.38642e-06
5.77091e-05
-3.93188e-06
-6.10315e-05
-2.1046e-05
5.93513e-05
-6.40078e-05
6.47102e-05
3.50182e-05
-3.80435e-05
-6.0645e-05
2.49229e-05
3.75067e-05
-6.24296e-05
1.84196e-05
4.1649e-05
-6.00704e-05
5.95702e-05
-4.8375e-05
5.87113e-05
-1.03446e-05
-5.41338e-05
5.69934e-06
3.6901e-06
5.76579e-05
6.76316e-05
-6.40494e-05
-4.25274e-06
6.10322e-05
1.78899e-06
2.02032e-06
7.35522e-05
7.23291e-06
6.08282e-05
4.37657e-05
-3.60928e-05
-4.89093e-05
5.11388e-05
-2.22866e-06
-4.71753e-05
-1.72734e-06
5.68512e-05
-5.71772e-05
3.71487e-07
3.94877e-07
1.082e-06
6.38233e-05
2.41497e-05
-8.82003e-05
3.4047e-05
-1.33438e-05
-5.98471e-05
2.80823e-06
4.91378e-05
-4.72786e-05
-1.86202e-06
5.13743e-05
-2.23967e-06
6.1035e-05
-4.09666e-06
-5.5952e-05
-1.86374e-05
5.68139e-05
-6.36567e-05
4.34081e-06
3.22361e-05
-5.13063e-05
1.90739e-05
5.17644e-05
-1.95273e-05
3.0762e-05
-7.65577e-05
-2.44463e-05
6.06522e-05
-4.58213e-07
5.79648e-05
6.07681e-05
-5.87874e-05
5.99111e-05
-6.79826e-07
6.36661e-05
-6.36661e-05
-3.78673e-06
-5.80761e-05
-4.89451e-07
-6.13477e-05
5.28468e-05
8.50083e-06
-4.06084e-05
-1.67833e-05
3.67812e-05
-2.82073e-06
5.38901e-05
-5.10694e-05
-0.000102693
5.20459e-05
5.24209e-05
6.34972e-05
-1.77638e-06
5.20302e-05
-4.59788e-05
-6.05288e-06
4.95424e-05
2.48631e-06
-5.68525e-05
5.40318e-05
-7.30643e-05
4.20921e-05
3.09555e-05
-3.75196e-05
6.95008e-05
-3.19812e-05
-3.31912e-05
-2.10089e-05
5.39364e-05
-3.01585e-06
-6.29802e-05
7.05116e-05
1.86352e-06
-0.000115429
5.70794e-05
-5.73067e-05
2.51535e-07
-5.34522e-06
5.64533e-05
-5.1108e-05
8.2789e-05
-1.29295e-05
-5.70545e-05
2.653e-06
5.56747e-05
3.55389e-06
6.07166e-05
-6.45976e-05
6.41596e-05
4.37472e-07
5.1546e-05
-5.68912e-05
-2.27977e-06
4.51446e-05
-4.28648e-05
-1.9793e-06
2.24981e-05
-8.1244e-05
-6.5611e-05
5.67366e-05
-6.01003e-05
5.47884e-05
-6.06767e-05
5.93233e-05
-6.37654e-05
4.8443e-06
6.43336e-05
-5.65398e-05
-3.31056e-06
3.61414e-05
2.13551e-05
-5.74965e-05
-7.89547e-06
-6.01885e-05
5.26506e-05
-4.67281e-05
-5.92822e-06
4.96538e-05
3.00047e-06
6.11589e-05
-1.55927e-06
-2.66692e-05
4.45223e-05
-1.25499e-05
-4.40058e-05
-2.67367e-05
5.28597e-05
-5.19066e-05
2.82653e-06
6.38688e-05
4.95109e-05
5.56591e-05
9.57189e-06
4.338e-05
-4.56598e-05
3.31017e-05
2.55283e-05
-5.863e-05
-6.17042e-05
5.99274e-05
-6.10579e-05
1.01054e-06
-3.76081e-06
-5.89021e-05
-1.89767e-06
-4.28869e-05
5.66925e-05
-1.38168e-05
3.6932e-05
-5.16293e-05
1.46958e-05
5.47997e-05
-1.78684e-05
-3.57e-05
-3.73791e-05
-7.72803e-07
-6.48382e-05
-2.98331e-06
6.55692e-05
5.3101e-05
-4.70279e-05
-6.07859e-06
4.99617e-05
3.13752e-06
-6.3035e-05
6.3035e-05
5.66336e-05
-2.44721e-07
-5.63889e-05
6.41427e-05
-4.15124e-05
4.3323e-06
5.88418e-05
5.94029e-05
-5.24114e-05
7.96688e-05
-2.21034e-05
-5.74322e-05
6.18799e-05
-5.90183e-05
-2.84009e-06
-2.34675e-05
5.98665e-05
-5.53509e-05
1.23399e-05
6.51548e-05
-6.07474e-05
-4.43195e-06
4.73152e-06
6.15331e-05
-4.42346e-05
-2.07609e-05
-3.54787e-05
-1.55037e-05
7.78448e-05
4.96939e-05
-4.80411e-05
-1.65136e-06
5.17847e-05
-2.09075e-06
-1.79815e-06
1.58351e-06
-6.18262e-05
5.80413e-05
5.78057e-05
1.58425e-06
-5.93899e-05
-5.28468e-05
1.28801e-08
-7.17148e-06
7.78834e-05
-5.49176e-05
6.5532e-05
-4.68848e-05
5.74219e-05
-1.05034e-05
1.88675e-06
6.17026e-05
-5.35985e-05
6.70586e-06
3.69003e-05
-5.1435e-05
1.45398e-05
5.48698e-05
-1.79664e-05
8.01139e-06
6.57527e-05
-1.03427e-05
-6.34214e-05
-6.12472e-07
6.18507e-05
5.23775e-05
-4.67918e-05
-5.58098e-06
6.6727e-05
5.04898e-05
1.88734e-06
4.27102e-05
-4.66515e-05
5.93576e-05
-6.32107e-05
3.8026e-06
1.30089e-06
-5.66465e-05
5.53456e-05
9.39499e-06
5.47771e-05
-6.45432e-05
6.36368e-05
-6.12956e-05
-6.87444e-05
3.4443e-05
3.73462e-05
6.64748e-05
6.34935e-07
-6.2816e-05
3.12202e-05
-5.01384e-05
1.89217e-05
5.11979e-05
-1.99777e-05
6.26744e-05
-3.29059e-06
6.03345e-05
-6.13174e-05
1.09228e-06
1.08871e-05
5.27267e-05
-5.78041e-05
-3.26386e-05
6.1052e-05
-2.53027e-05
6.20405e-05
8.6727e-07
8.03715e-05
-5.08633e-05
2.75547e-06
6.35994e-05
-6.15862e-05
-6.22106e-06
6.64482e-05
-6.02271e-05
-3.78673e-06
-5.7767e-05
2.92094e-05
4.23676e-05
4.95863e-05
3.01591e-05
6.15271e-05
9.32367e-07
5.80761e-05
1.03221e-05
7.60234e-05
1.81731e-05
-5.34057e-05
6.25744e-06
5.766e-05
-5.60588e-05
3.52656e-05
-6.12189e-05
2.59533e-05
1.90621e-05
-4.03722e-05
-5.95525e-05
8.24557e-07
5.83817e-05
-1.27607e-05
-5.63528e-05
-1.67665e-06
6.23166e-05
-6.47603e-05
6.32618e-05
1.93409e-05
-9.15285e-05
6.2634e-05
-6.43563e-05
5.59767e-05
1.82897e-06
-3.31714e-05
-2.25967e-05
5.54011e-05
6.35086e-05
-6.3091e-05
-3.64119e-07
6.22644e-05
-5.84112e-05
-3.81268e-06
-6.38866e-05
6.38757e-05
-3.61929e-06
-5.03352e-05
5.39545e-05
5.83853e-05
6.80067e-06
6.26133e-05
-6.1664e-05
-9.82071e-07
3.67033e-05
-5.11294e-05
1.44392e-05
5.50484e-05
-1.83322e-05
-3.74681e-05
7.07501e-05
-3.3282e-05
-3.96923e-05
2.85594e-05
-7.43179e-06
6.57398e-05
-5.8308e-05
6.99387e-06
5.49592e-05
-2.12521e-06
-5.91066e-05
-4.34039e-05
-2.40536e-05
5.14519e-05
-4.80535e-05
-3.5271e-06
7.022e-05
-2.85728e-05
2.41919e-06
5.98186e-05
-6.64436e-05
2.03911e-05
2.79599e-05
-6.14398e-05
6.14716e-05
-6.46151e-05
5.81746e-05
-6.34091e-05
6.26884e-05
9.0658e-07
5.04124e-05
-4.48969e-05
5.55517e-05
-1.05545e-05
-6.13993e-05
5.46629e-05
-5.29253e-05
8.02496e-06
6.06908e-05
-2.52449e-05
3.66441e-05
-5.09232e-05
1.42775e-05
5.50841e-05
-1.84386e-05
1.61442e-05
-3.53402e-05
-6.42972e-05
6.83931e-06
5.74579e-05
-3.97772e-07
6.32002e-05
-9.28903e-07
5.46912e-05
-5.37754e-05
-6.03559e-05
6.03559e-05
4.79395e-05
-6.86764e-05
2.07369e-05
-3.28441e-05
6.60489e-05
5.82501e-05
3.65809e-07
4.66129e-05
7.43179e-05
-3.55747e-05
-3.87432e-05
3.05415e-05
-4.94866e-05
1.89442e-05
5.06835e-05
-2.01427e-05
-4.29677e-05
7.1544e-05
-2.42151e-05
5.76311e-05
-3.9864e-06
-5.35685e-05
5.81195e-05
8.38015e-08
-5.8269e-05
4.29162e-06
5.51359e-05
-6.27915e-05
5.3648e-05
9.14355e-06
1.23994e-07
-5.12297e-05
5.14377e-05
1.85171e-06
3.14381e-05
-3.02086e-05
6.30343e-05
-6.12336e-05
-1.19134e-06
-7.54832e-06
-5.99133e-05
1.79033e-06
-6.16439e-05
-2.48418e-05
-3.23326e-05
-6.31016e-05
4.32117e-06
5.9618e-05
-5.98772e-05
2.62323e-07
-5.98969e-05
6.19626e-05
-5.92742e-06
-6.21564e-05
1.1933e-06
-5.25563e-05
5.14955e-05
-3.65679e-06
-6.08889e-05
5.97172e-05
-6.11863e-05
1.83814e-06
3.1891e-05
3.2316e-05
-6.42071e-05
-4.09454e-06
-5.94238e-05
6.21153e-05
-6.23209e-05
-6.46063e-05
5.71745e-05
5.575e-05
-8.84473e-06
1.72754e-06
-6.03825e-05
5.95464e-05
-6.24851e-05
6.23972e-05
-5.34578e-05
7.13425e-05
-6.02408e-05
6.19613e-05
-6.26143e-05
4.79938e-07
6.22707e-05
5.47212e-05
1.15361e-05
-9.56785e-06
-5.57557e-05
-3.95835e-05
3.83362e-05
6.17355e-05
-5.87816e-05
-2.95143e-06
5.81474e-05
-5.52854e-05
-4.75513e-06
-4.42062e-05
4.55288e-05
5.94318e-05
-1.12887e-06
6.17074e-05
-6.67248e-05
3.86723e-05
-5.71765e-05
1.84678e-05
3.64715e-05
-5.06312e-05
1.41581e-05
5.52675e-05
-1.88029e-05
-1.04345e-06
-5.70254e-05
-5.45016e-05
3.72512e-05
-1.78632e-06
6.19575e-05
-5.69427e-05
5.7342e-05
-3.99282e-07
2.99217e-05
-6.6958e-05
6.57655e-05
-5.87717e-05
-6.16296e-05
2.81555e-06
6.33329e-05
4.25114e-06
5.81353e-05
-6.8319e-05
4.64846e-05
2.18231e-05
-4.35405e-05
5.43695e-05
-1.07048e-05
-5.23347e-05
8.89784e-06
6.07423e-05
-6.07938e-05
5.15202e-08
6.29701e-05
-6.4989e-05
3.64077e-05
-5.04494e-05
1.40423e-05
5.53395e-05
-1.89317e-05
-6.10458e-05
8.62228e-07
-8.66931e-05
3.87409e-05
5.52489e-05
-1.65542e-05
7.67311e-06
2.08237e-05
-2.69272e-05
-6.09226e-06
5.40318e-05
3.40376e-05
-3.75272e-05
4.04669e-06
-4.09587e-05
3.49565e-05
-6.07552e-05
2.57987e-05
-6.22282e-05
5.95468e-06
5.65432e-05
4.92147e-05
-5.24862e-05
3.48663e-05
-6.33698e-05
2.85036e-05
4.88669e-05
-5.25248e-05
-2.20893e-05
5.83724e-05
-7.63947e-05
5.85157e-05
-6.0676e-05
-4.26716e-05
3.63369e-05
-5.02977e-05
1.39808e-05
5.53868e-05
-1.90233e-05
6.60747e-05
-3.29729e-05
1.14276e-06
-5.05928e-06
-4.08645e-05
4.59238e-05
-5.863e-05
3.96706e-06
5.46629e-05
6.15859e-05
-7.60912e-06
-5.55623e-05
-6.13374e-05
6.09614e-05
1.25623e-06
-6.05613e-05
5.8938e-05
6.24554e-05
-2.02002e-06
-5.75289e-05
6.27902e-05
6.41427e-06
6.00339e-05
-2.81957e-05
3.97751e-05
-1.43277e-05
6.00421e-05
3.47134e-06
6.98743e-05
-3.22001e-05
-3.76741e-05
-5.75929e-05
-1.07717e-05
-1.67453e-05
4.04155e-05
-2.29453e-05
5.82089e-05
-5.75971e-05
9.94534e-07
-6.21321e-05
3.82547e-05
-3.39328e-05
6.38464e-05
-6.34471e-05
-3.99282e-07
3.62888e-05
-5.01879e-05
1.39023e-05
5.54219e-05
-1.91374e-05
-5.87073e-05
5.98021e-05
-1.75971e-06
-5.81787e-05
-1.84028e-06
6.24683e-05
4.71228e-06
4.7457e-05
5.8705e-05
-6.10502e-05
2.26087e-06
-1.74665e-05
-4.89361e-05
6.63884e-05
7.04668e-05
-3.44928e-05
-3.5974e-05
-6.18587e-05
6.00492e-05
7.68504e-07
-6.08969e-05
-2.13809e-06
6.46063e-05
-8.23035e-06
-5.6376e-05
6.10386e-05
-2.67905e-06
-6.21462e-05
-5.73237e-05
2.74732e-06
5.48443e-05
-5.06065e-05
8.89158e-06
3.43583e-05
-5.15426e-05
1.71639e-05
3.03785e-05
-4.8189e-05
1.78214e-05
-2.02353e-05
5.06237e-05
3.18081e-05
-2.48067e-05
-6.0396e-05
-4.55052e-05
4.5312e-05
5.93902e-05
-6.11245e-05
1.51279e-06
4.85842e-05
-6.22751e-05
4.92457e-05
-1.48846e-05
-3.49079e-05
6.9232e-05
-2.75347e-05
-4.13032e-06
-6.02747e-05
3.49049e-06
5.88747e-05
-6.11417e-05
-1.89307e-06
1.05756e-05
5.61353e-05
3.10409e-06
-5.91066e-05
5.60025e-05
3.84354e-05
2.08348e-05
-5.92701e-05
-4.43394e-05
-4.57543e-05
-6.07571e-05
6.10426e-05
5.4624e-07
1.94618e-05
5.1546e-05
0.000103622
-8.31781e-05
-8.01813e-06
-3.23436e-05
5.22882e-05
-1.99645e-05
3.14571e-06
5.76259e-05
5.65205e-05
-8.35536e-07
6.20174e-05
3.74809e-06
-8.69018e-07
6.18392e-05
-4.47637e-05
5.32975e-05
-8.53065e-06
5.14439e-05
-5.36161e-05
2.14473e-06
9.41139e-06
-5.40797e-05
6.0587e-05
1.82265e-05
-5.05676e-05
4.76779e-05
-2.10641e-06
5.74065e-05
-5.48343e-05
2.12521e-06
4.01959e-05
5.96089e-05
-2.5554e-05
1.32589e-05
5.63264e-05
3.46473e-05
-6.28546e-05
2.82073e-05
2.63936e-06
-5.86257e-05
5.55489e-05
2.14334e-06
2.20957e-05
-6.30066e-05
-6.08969e-05
-6.37361e-05
-6.01136e-05
6.00589e-05
2.46009e-06
6.03688e-05
5.961e-05
-5.73332e-05
-7.58635e-06
-5.55903e-05
5.44347e-05
1.12887e-05
4.92533e-05
-5.22672e-05
4.31751e-06
5.63146e-05
-5.83824e-05
-6.59593e-07
-6.29259e-05
4.23844e-05
-4.74437e-05
-5.92772e-05
-1.40466e-06
6.77348e-05
-1.06624e-05
-5.68372e-05
5.50421e-05
-2.86755e-05
-1.77562e-05
-1.81231e-06
-5.857e-05
6.24575e-05
3.65156e-05
-2.89742e-05
-5.04408e-06
-5.05701e-06
6.40782e-05
-2.96241e-07
-6.09742e-05
5.32461e-05
-4.82744e-05
-4.9717e-06
-7.02246e-06
-5.76076e-05
5.82486e-05
1.78178e-07
-2.95137e-05
4.71463e-05
-1.75789e-05
-3.74835e-05
6.95136e-05
-3.20301e-05
3.31842e-05
1.58545e-05
-4.9066e-05
5.25618e-05
-1.9389e-05
2.09593e-05
-5.04524e-05
-5.72232e-05
5.97322e-05
-2.7039e-06
0.000134166
-1.85352e-05
-5.25543e-05
2.21747e-05
4.25923e-05
2.51866e-05
6.33827e-05
-3.86402e-05
1.90167e-06
3.166e-06
-3.47764e-05
6.33026e-06
-5.84554e-05
5.18507e-05
5.45369e-05
-3.82649e-05
-6.72409e-06
-2.56957e-05
5.99438e-05
3.08857e-05
-2.14484e-05
6.09588e-05
-5.81396e-05
-2.87963e-06
1.60616e-05
-5.76942e-06
3.91425e-05
1.32407e-05
-5.23832e-05
-7.01008e-05
3.79408e-05
3.21906e-05
-1.82947e-06
-5.52525e-05
5.72072e-05
-3.51977e-05
-3.48528e-05
-6.08362e-05
6.07769e-05
4.13578e-05
2.32099e-05
-6.45677e-05
-5.73405e-05
5.66826e-05
-3.87777e-06
-5.95006e-05
5.79336e-05
-6.39654e-07
-6.43279e-05
5.0902e-05
2.34417e-06
3.65021e-05
-5.9493e-05
2.29909e-05
-6.15738e-05
1.32763e-06
-5.87041e-05
5.90193e-05
-9.3129e-08
-7.60902e-05
5.41143e-05
-6.2597e-05
-2.00929e-06
7.41891e-06
-5.77155e-05
5.02966e-05
6.77296e-05
-5.92816e-05
-2.40684e-06
6.10921e-05
-5.92181e-05
-5.6895e-05
-5.89649e-06
-1.89705e-06
-5.39191e-05
5.58986e-05
1.85602e-06
3.41193e-05
3.0281e-05
5.94593e-05
5.63536e-07
-8.76828e-06
5.33234e-05
-4.86479e-05
-4.67546e-06
-5.51781e-05
-3.93056e-05
1.71198e-05
6.05182e-05
-6.02941e-05
5.80786e-05
5.12111e-05
2.11233e-06
5.58979e-05
-4.90114e-07
-2.82073e-06
-5.80761e-05
4.89194e-05
-1.00696e-05
5.52683e-05
-5.31946e-05
-2.07369e-06
5.42668e-05
-5.61042e-05
5.37098e-05
-4.90601e-05
-4.6497e-06
-2.33258e-05
5.94672e-05
2.78885e-05
-2.94765e-05
5.50493e-05
2.18961e-07
-3.57064e-05
-2.82345e-05
8.39948e-05
5.10436e-05
-4.96655e-05
-1.37817e-06
5.1649e-05
2.06081e-06
5.28984e-05
-1.85473e-06
-2.79582e-08
6.18832e-05
5.6366e-05
5.35539e-07
5.48561e-05
-4.74372e-05
4.40183e-06
5.76041e-05
2.51215e-05
-5.49206e-05
4.30451e-05
-4.66644e-05
5.98536e-05
6.1933e-05
6.38464e-05
-6.57527e-05
-2.60808e-06
-5.98544e-05
2.33943e-05
-6.0343e-05
5.42508e-05
6.35695e-05
5.02953e-05
-2.1782e-05
-6.9976e-05
4.11283e-05
2.88301e-05
-6.24603e-05
6.30661e-05
-1.97956e-07
-2.93665e-06
-6.19015e-05
-3.83496e-05
-3.16658e-05
4.95055e-05
1.78847e-05
5.82264e-05
-6.05403e-05
2.35327e-06
-6.19794e-05
6.14772e-05
5.96276e-07
-5.77284e-05
-3.61929e-06
1.92164e-05
-5.97473e-05
-6.16293e-05
5.46296e-05
-5.32158e-05
-1.41468e-06
5.53943e-05
-9.59814e-07
5.83814e-05
6.37036e-05
-2.94703e-07
2.08657e-06
5.58994e-05
-6.23781e-05
5.42765e-05
-5.02451e-05
-4.03146e-06
-9.19148e-07
5.19066e-05
-5.31431e-05
1.23648e-06
5.2512e-05
-5.10694e-05
-1.44257e-06
5.22544e-05
-5.30787e-05
8.24323e-07
-1.96504e-07
5.26665e-05
1.61001e-06
5.4122e-05
-1.61001e-06
-2.00929e-06
5.42637e-05
5.43023e-05
-2.39569e-06
-6.22471e-06
5.74547e-05
-5.16493e-05
5.61078e-05
2.96698e-07
5.86171e-05
-1.72593e-05
5.61845e-05
-5.87021e-06
-5.03295e-05
-1.50278e-05
-5.22045e-05
5.97428e-05
-3.02135e-06
-5.70999e-05
-4.61655e-05
5.90892e-05
-1.57275e-06
-5.6544e-05
6.0652e-05
-6.2968e-05
2.54883e-06
5.99218e-05
-5.33547e-05
5.16619e-05
-5.04125e-05
-1.24936e-06
-5.76684e-05
5.65735e-05
1.1316e-06
-1.57137e-06
5.32332e-05
2.01023e-06
5.46674e-05
-5.42365e-05
-5.97197e-05
5.80077e-05
1.71947e-06
-4.49793e-05
-3.14044e-05
-6.76443e-05
3.5277e-05
3.22407e-05
-5.9414e-05
-6.9697e-05
3.91793e-05
3.05849e-05
-1.06762e-06
-3.33725e-05
-3.61376e-05
2.84092e-05
2.49591e-05
-5.33724e-05
-6.03302e-05
-2.56956e-05
-3.64696e-05
5.87715e-05
-6.04481e-05
1.66067e-06
-2.89687e-05
5.76107e-05
-4.3921e-06
-5.99051e-05
-5.87708e-05
5.72598e-05
-1.03397e-06
-5.64765e-05
4.76947e-07
1.37589e-06
5.74189e-05
5.63514e-05
-5.04532e-05
3.75205e-07
-6.16057e-05
5.35367e-06
6.31766e-05
3.73521e-07
-6.2494e-05
6.34214e-05
-5.81935e-05
-1.16051e-06
3.71152e-07
5.99876e-05
6.12498e-05
-6.03633e-05
-8.88606e-07
-6.287e-05
-6.19902e-07
6.33602e-05
-3.50119e-05
1.40157e-05
5.96133e-05
-6.06236e-05
1.04474e-06
6.2597e-06
5.94801e-05
8.75843e-07
-5.74193e-05
5.65434e-05
5.72647e-05
-5.63889e-05
2.68807e-05
1.31724e-06
-6.15603e-05
-6.27397e-05
-3.49936e-05
-3.46659e-05
5.65209e-05
2.87705e-06
-5.82907e-05
5.92397e-05
-1.13098e-06
5.56805e-05
-5.35939e-05
5.66207e-05
-5.62343e-05
-3.86402e-07
-5.56167e-05
-4.2585e-06
3.69643e-05
-4.70912e-05
5.71359e-05
-2.35705e-06
-5.47789e-05
5.62729e-05
-1.77745e-06
-5.44955e-05
5.00002e-07
5.41031e-05
2.15339e-05
4.7662e-05
7.17187e-06
4.90099e-05
8.1856e-07
3.45634e-05
1.37464e-06
5.9617e-05
6.11864e-05
1.74942e-06
-6.91773e-05
4.17813e-05
2.72971e-05
3.41579e-05
-6.40782e-05
2.99204e-05
-1.0304e-07
5.67366e-05
6.06906e-05
-6.06915e-05
-2.32846e-06
5.10717e-05
-4.87491e-05
-6.29113e-05
2.43214e-05
1.72593e-06
6.00597e-05
-3.42873e-05
5.99064e-05
-6.03661e-05
3.64197e-07
-5.01196e-06
5.93161e-05
-5.46027e-05
6.27043e-05
-5.97831e-05
2.72901e-06
6.20812e-05
5.76125e-05
-6.93889e-05
3.70766e-05
3.22806e-05
-2.1824e-05
6.02593e-05
-5.97474e-05
5.45797e-05
8.26409e-06
5.86944e-05
-3.05257e-06
-5.56418e-05
-3.94129e-05