/*--------------------------------*- C++ -*----------------------------------*\
  =========                 |
  \\      /  F ield         | OpenFOAM: The Open Source CFD Toolbox
   \\    /   O peration     | Website:  https://openfoam.org
    \\  /    A nd           | Version:  12
     \\/     M anipulation  |
\*---------------------------------------------------------------------------*/
FoamFile
{
    format      ascii;
    class       volScalarField;
    location    "2.05";
    object      T;
}
// * * * * * * * * * * * * * * * * * * * * * * * * * * * * * * * * * * * * * //

dimensions      [0 0 0 1 0 0 0];

internalField   nonuniform List<scalar> 
183995
(
1.0501
0.938699
1
0.949398
1
1.00197
1.00226
0.999764
0.946079
0.963759
0.961487
1.03516
0.961254
1.00129
1.0288
1.02857
1.02834
0.982563
1
1.02811
1.03685
1.04275
1.04922
1.00373
1
0.983939
1
0.952427
1
1.00366
0.929579
1.00358
0.961457
1.02668
0.961444
1.03475
1
1
1
1
1.02588
1.00233
1.02576
0.991419
1.02723
1.00214
0.939543
0.858957
0.914584
1.00211
1.00208
1.03819
0.990662
1
1.00377
1.04227
0.96806
0.962106
0.958997
0.961961
1.02493
1.01066
0.944374
1.03166
0.916326
1.0481
1.02438
1.04847
1
1
1.03105
0.964072
0.964109
1
0.984629
1.04736
1
1.02648
1.02259
0.962852
0.962728
1
1.03369
1.03781
1.00181
1
1
0.978489
1.08358
1
0.964656
0.965103
0.944429
1
1
1
1.04185
1.00086
0.95843
0.939385
1.04168
1.03656
0.943331
1
1.03425
1.00469
1.04125
0.943119
1.0107
1
1.02789
1.02047
1
1.08516
1.03748
1.03008
1
0.95882
0.824625
0.996577
1.0363
1.03334
0.982988
0.965876
0.966292
1.0618
1
1.09106
1
1.00053
0.986305
1
1.02547
0.958317
1
0.983409
1.0362
1
1.02817
1
0.958345
0.96766
0.967927
0.970781
0.970615
1.03211
1.03592
1
1.06961
1.02744
1
0.969439
0.969473
1.03126
1.03313
0.940476
1.03184
1
0.993968
1
1
1
1
1.06663
1.03031
1
1.02949
1
0.962611
0.962717
0.98485
1.02908
0.940025
0.972533
0.935354
0.972324
1
1.03148
0.998614
1
1.01863
0.963276
1
1.02457
1.00021
1.03055
0.943734
1
1
1.0222
0.937155
1
1
1.02878
1.03154
0.947797
1
1
0.911781
1.03021
0.998891
1.03173
1.02902
1.00015
0.932898
0.974024
1.03357
0.973687
1.0002
0.981219
0.943319
0.94439
1
1
1
0.944721
1
0.986708
1
0.967626
0.888588
1.00337
0.974659
0.974719
1
1
1
0.990887
0.986108
1.02947
1.0332
1.00373
1.02642
0.99825
0.981551
1
0.988
0.970615
0.931703
1.02944
0.948614
0.96023
1
1
1
1
0.937338
0.983555
1
1.02947
0.995065
0.976048
1.02622
0.975902
1.03236
0.965381
1.00433
0.965428
0.986678
1.01035
0.992175
0.99839
0.948164
1.02473
0.977411
1
1.06164
0.97735
0.970181
0.999989
1
1
0.916273
1
0.99661
0.963334
0.982672
0.963468
1.00029
1.02218
0.959811
1
0.979144
1
0.990405
1
1
0.83603
1.03346
0.979139
1
1.03621
0.999998
1
1
1.00037
0.984476
1
0.999997
0.998338
0.845406
1
0.99848
1
1.02923
0.990525
0.980342
0.989188
1
1
0.983024
1
0.978186
0.846739
0.995431
1
1
0.966611
1
0.98007
0.96673
0.982691
1
1.02599
1.0217
1
1
0.840105
1
0.897806
1
1.02657
1.00002
1
1.01415
0.998534
0.981128
0.981107
0.996655
1.02075
1
0.984692
1.02768
0.996787
1
1.03023
0.979536
1
0.987199
1
0.997207
0.979643
1
0.99375
1
0.997965
1.0123
0.931235
1.01222
0.964419
1.00595
0.964316
0.858723
0.906093
0.989154
0.993809
1
0.996484
0.988809
0.936081
1
0.945153
1
1.02503
0.988664
1
1
0.985063
1.03066
1.0492
1.04771
0.95186
0.992454
0.844846
1
0.968192
1
0.968246
1
1
1
0.979332
1
1
0.846262
1
0.985809
0.991675
0.934348
1
1
1
1
0.935545
0.993828
0.978153
0.958902
1
0.994001
1.07351
1.08705
0.978056
0.931044
1
0.986317
0.859318
0.98488
1
1
1
0.93476
1.04225
1.04138
0.999067
0.988246
0.986123
1.02971
1.00494
1
1
0.86105
1
1.00891
0.988264
0.997869
1.00895
0.969757
0.897464
0.969571
0.991009
1
1
1
1
0.938457
1
0.989279
0.836367
0.94651
1.02552
0.943293
1
1
1.05338
0.932633
1
0.983967
1
0.98368
0.976552
0.989127
1.00513
0.96935
1
0.949677
0.892433
0.969502
0.991787
0.976589
0.990516
1.03778
1.03717
1
0.986377
0.911009
0.989012
1
1.03279
1
0.969251
0.969799
0.992117
0.938682
0.978652
1.00052
0.937061
0.998715
0.862125
1.02726
1.02736
0.971147
0.971201
0.936812
1.02664
0.881679
0.943134
1.02799
1.02787
1.03658
1.03598
1
0.988832
1.02669
1.02665
1.01107
1
1.02899
1
0.98126
1
1
0.978683
1
0.882621
1
1.04856
0.973852
1.02921
1.02911
1
0.987128
1
0.93675
1.00014
1.0619
0.972671
1
0.963369
0.972791
1.05692
1
1.00033
1
1
0.990724
0.90568
1
0.937074
1.00043
0.987144
1.02789
0.943594
1
1
1.03004
1.02997
0.988008
0.850631
1.00256
1
1.02695
1
0.965722
1
1
1.02697
0.98165
0.96582
0.991188
0.943878
1.02503
1.02498
0.98751
1
0.934386
1.00407
1.03058
1.03053
1
1
1
0.987485
1.03333
1.03284
1.00541
0.991023
1
0.944486
0.983837
0.996534
1.06528
0.937344
1.03078
1.03077
0.943744
0.981282
1
1
0.955201
0.98238
0.97095
1.00056
0.971313
1.02432
1.02427
1
1
0.988528
1.03048
1.02547
1.03054
1
0.984611
1
0.938291
0.940766
0.984718
0.984586
0.941708
0.982773
0.986691
1.02352
1.02348
0.984364
0.996636
1.0317
1.03125
0.946763
0.984314
1
1.02441
1.02445
1
1
1
1.00556
0.985011
1
0.992759
0.960516
1.03078
1.03031
1
0.901708
0.987981
0.98545
0.995143
0.949871
1.01581
0.998936
1
0.938219
1.00923
0.958825
0.99876
1
1
0.98672
1.0216
1.02157
1
0.854559
1
1
1
1.02313
1.01921
1.0329
0.986045
0.889294
0.996584
0.946684
0.984245
1.02169
0.972168
0.986336
1
0.972446
1
1.02071
1.02064
0.859422
1
0.995635
0.95915
1
1
1
0.977007
1
1
1.01989
1.01983
0.976814
1.02246
0.997621
0.936614
1
1.01622
0.834957
0.985254
0.986498
0.977045
1.00199
1
0.904115
0.991344
1.00394
0.936274
0.974197
0.983549
0.949637
0.981089
1
0.990223
0.99605
1
1
0.979724
1.03007
0.999354
1.0482
0.986795
1.00379
0.967505
1.00157
0.861239
0.992948
0.979794
0.967535
0.983654
1.02098
1.02644
1.02598
1.02782
1.01771
1.01763
0.96521
0.938215
0.991834
1
1.02273
1
0.991984
0.99313
0.988845
0.994488
0.974212
0.973993
1
1.0288
1.01681
1.01679
0.978298
0.874084
1.02764
0.82642
1
0.857776
0.957445
1
0.988375
1
1
1
1
1.00886
1.04168
1
1.01578
1.01576
1
0.981117
1
1
1.02466
1.01603
0.994154
0.980424
0.98677
1.00529
1
0.863272
1.00912
1
0.99485
0.840728
0.980525
0.988598
0.843383
1
1.01485
1.01479
1
0.99031
0.991247
0.871448
0.992448
0.958568
1
0.981079
1
1
1
1
0.951607
0.931828
1.0131
1.01392
1.0139
0.841206
0.987807
1
0.979841
0.999996
0.999998
1.01304
0.967743
0.990232
1
1.00958
0.996754
1
1
1.02756
0.978002
1
1.04412
1.01343
0.983199
1.05539
1
0.997403
0.976254
1.02955
0.976258
1.03715
1.01346
0.863432
1.00202
0.895679
1
0.999213
1
0.973469
0.998404
1
1
1.03621
0.994513
1
0.973205
1
0.969139
1
0.957402
0.986375
1
0.981407
0.968323
0.932545
0.999038
0.99836
0.844538
0.968975
1
1
1
0.946633
0.975282
1.01228
1
1.01124
1.01108
1.01233
0.947943
1.07133
0.953949
0.968695
1
0.975116
0.848057
1.02033
0.946608
1
0.830484
0.993736
0.970395
1.029
1
1.01061
0.984518
1.01064
0.991862
1
0.965146
0.985271
0.974614
0.995484
1
1
0.995319
0.976008
1.00535
1
1
0.937962
0.980166
1
0.962134
0.974547
1
1.00851
1.02217
1
1
0.880333
0.988565
0.98941
1
0.970026
1
0.854659
1
0.961484
1
1
0.849095
1
1.03452
1
1
1
0.986143
0.97298
1
0.99103
0.940119
1
1
0.988882
1
1
0.969858
0.946873
1
0.975607
0.945739
1.0094
0.988978
1
1.00971
0.936301
0.993407
0.980562
1
0.977294
0.995626
1.00609
1.03098
1.03152
0.983649
1
1
1
0.972925
1
1
1
1.02375
1
1
1
1
1.01507
0.971717
1
1.00233
0.998847
0.978915
0.959062
0.976705
0.98435
0.957009
1
0.984142
1
1.02669
0.995088
1.00895
0.982479
0.98894
0.986119
0.971559
0.943504
0.986749
1
0.99437
0.998292
0.987995
1
1.0308
0.988487
0.981778
0.987761
0.92342
0.939977
1
1
1
0.975963
0.996327
1.0371
0.995669
0.855104
0.994399
1
1
1
1
0.990028
1.0006
0.986176
1.00812
0.993293
1
1
1.00414
0.921157
1
1
1.0058
0.959844
1.00209
1.00962
0.849465
0.985182
1.00211
1.03045
0.959856
1
1
1.03085
0.988223
1
1
0.849154
0.991211
0.954295
0.949879
0.983113
0.987302
1
1.00811
1
0.993074
0.982025
1
1.00834
0.971619
1.00391
1.00157
0.986726
0.986807
1
0.97183
0.996629
0.915763
0.983407
1
1
0.979096
0.979416
1
1
1
1.00039
0.986593
0.991521
1
1
1.00335
0.984416
1.01024
1
0.975865
1
0.982776
0.975216
0.988173
0.944724
0.987298
0.939937
0.963459
0.990289
0.964228
1
1
0.978954
0.976936
0.991123
0.978167
0.864564
1
0.988779
0.936785
0.991983
0.958803
0.984398
0.997241
0.949921
1
0.99716
0.995148
0.996666
1
0.836319
1
1.01872
0.934621
1
1
0.986647
1.0058
0.991157
0.915953
1
1.02764
0.943896
0.946763
0.978034
0.951059
0.982302
0.960595
0.823558
1.02383
1.00614
1
1
0.998814
1.01754
0.962043
1
1
0.967193
0.955932
1.01698
0.985832
0.976157
0.980882
1
1
0.98098
0.965333
1.02498
1
0.963989
1
0.992681
1
1.02054
0.976168
0.978377
1.01628
0.9476
1
0.829618
1
0.998861
0.998477
0.995571
1.01979
1
0.966126
0.963666
0.997442
1.00534
0.836672
1
1.02194
1
0.965694
0.997195
0.99658
1
0.998899
0.984583
0.99281
1.04809
1
0.979813
0.957106
1.02151
1.03368
1.09768
1
1
0.980928
0.956129
0.962537
1
1
0.936372
0.981134
0.983511
1
0.981294
0.997892
0.965468
0.996739
0.993187
1
0.965793
0.961271
0.98439
1.02586
1
0.971777
1
0.960113
1.00748
0.992863
0.919569
0.935133
0.997366
0.995341
0.996645
1.02905
1.0201
0.984047
1.03154
0.85339
0.940673
0.984447
0.940963
1.02027
1.02028
0.976734
0.979476
1
1
0.997104
0.952099
1.02041
0.953181
0.894123
0.94915
1
0.940197
1.08292
1.05376
0.986206
1.00389
0.845895
1
0.943873
0.984508
1.05835
0.995302
1
1
0.93788
0.947397
1.01582
1.01394
1
0.945954
0.942961
0.938613
1
1
0.959555
0.942936
0.942311
1
0.984699
0.996767
1.01853
0.988225
0.935994
1.0777
0.996508
0.993769
0.969463
0.984246
0.995271
0.992996
0.940325
0.984573
1
1
0.984698
0.969132
0.94703
0.994155
0.849351
0.950725
0.944765
1
0.953493
0.949067
1
0.965042
1
1
0.962493
1
0.991749
0.992829
0.988892
0.993423
1
0.969721
0.99421
1
0.977925
0.970775
0.996214
0.938116
1
1.00113
0.85026
0.94333
0.937923
0.958322
0.973602
0.951374
1
1
1.01866
0.99657
0.996073
1.00015
1.04239
1.01868
1.01861
1.01862
0.967293
1
0.975623
0.950277
0.958455
1.00392
0.959229
1
1
0.952107
1.04085
0.951014
0.951709
0.990076
1
1
0.994251
0.968141
1
1.01869
0.986801
1
0.946645
0.896177
1.02163
1
0.971345
1
0.968774
0.958831
0.998141
1
1
0.958869
1.02165
0.836306
1
0.972996
0.975744
0.992174
1
1
0.94912
0.946975
1.01876
0.954095
1
0.991851
1
0.950494
1
0.996572
1
0.957263
1
0.994124
0.976261
0.962297
0.987316
0.834577
1.05285
0.971157
0.974464
0.865981
1.01857
0.971311
0.992001
0.991283
0.971193
0.956874
0.948158
0.995318
1
0.966034
1
1
0.959151
1.00737
0.991061
0.868043
0.98683
0.976972
0.885023
0.950369
0.929134
0.987631
0.945449
0.993009
0.955327
0.976561
0.958055
1
1
1.02619
1
1.02925
0.953748
0.984204
0.956051
0.930761
0.977184
0.94035
0.991786
1.01463
0.968532
0.97068
0.97681
0.954546
0.978186
0.988429
1.04768
0.991482
1
0.939999
0.850515
1
1.01927
0.979094
0.975122
0.993227
0.993598
0.970625
0.997295
1
1.04738
1.01069
0.973825
0.972884
1.02685
0.852166
1.01587
0.956773
0.957047
0.958623
0.959806
0.958302
1.02598
0.948047
0.95973
0.960903
0.960533
0.977481
0.989954
1
1.03858
0.946522
0.994457
0.983387
0.995948
0.996432
1.05145
1.02351
0.95065
1.02403
1
0.995913
0.948624
1.05102
1.02742
1.0264
1.05403
1.01891
1.04922
1.02639
1
1.02717
1.00123
1.02699
1
0.991805
1.02499
0.993776
0.962376
1.02763
0.962391
0.963393
0.963271
1.03745
1.03683
0.990403
0.935096
0.961215
1.02746
1
1
0.982701
0.990243
1
1
1.03347
0.94721
0.951578
1.01483
1
1
0.952798
1
0.971149
1
1.02028
0.986144
1.03687
0.824753
1.02738
0.978502
0.956991
1.03433
1.03688
1
1.01522
1
0.915571
1
1
1.02693
1.01468
0.925934
0.966883
1
1
0.970898
1.01597
1.02928
0.973181
0.995053
0.827194
1.03243
0.94093
1.02735
1.00031
0.997401
0.998486
0.974476
1.03496
1
0.949411
1
0.994393
1.03202
1.02624
1.03041
0.95218
1.02198
0.996144
0.866518
1.01876
1
0.961918
1.01985
1.03107
1.03056
0.996414
0.945184
1.01171
1.01527
0.951128
0.993708
0.9961
0.937526
1
0.945702
1.01975
1.02155
0.853286
1
0.974705
0.988208
1.01593
1
1.01888
0.950993
1
1
1
1.01929
1
0.967263
1.01864
1
1
1.0191
0.985504
0.987753
0.994234
0.849337
1.04679
0.943856
1
0.950958
0.988109
0.970373
0.975665
0.934494
1.02844
1
0.987762
0.943534
1
0.851641
0.974929
1
1.01473
1
1.01879
0.940975
0.978038
1
0.987714
0.977968
0.987098
0.95433
1
0.994616
1
0.831083
1.01977
0.991498
0.984605
1
1.00649
0.938457
1.01561
0.997131
1
0.964814
1.00962
1.01069
0.962658
0.987744
1
1
1
1
0.994587
0.954241
0.955828
1
0.986636
1
1
1
0.986268
0.987112
1
0.842104
0.98662
0.995435
0.979117
0.966938
0.987258
1
1.026
1.02785
1
1.02662
0.970924
0.983929
0.98811
0.961036
0.939904
0.944923
1.03297
0.964137
0.970101
1.02699
1.02652
1.04729
0.972907
0.950382
0.950699
0.950381
1.0425
1
1
1.02715
0.947775
0.960899
0.965938
1
0.966338
0.995805
1.02312
0.843393
0.955206
0.997404
0.986206
1
0.999198
1.02815
1
0.959081
0.986832
0.968403
1.00121
0.992557
0.986647
1
0.99183
0.938812
1
0.95008
0.944493
0.95728
0.983061
0.965125
1.03447
1
0.837894
1.00395
1
1.01372
1
1.03667
1.08727
0.92709
1.02413
1.00142
1.0222
1
1.00191
0.994299
1.03064
0.954295
0.961888
1.0189
0.966542
0.958919
1.01706
1.03684
0.959388
1.03793
1.03443
0.991365
0.959911
0.850953
1.01672
1.00373
1.04583
1.01495
0.957509
1
0.973815
1
0.977331
1.00092
0.9649
0.997308
0.97706
1
1
1
1.03884
1
1
1
1
1.00699
0.977271
1.03065
1
1.01831
1
1.05491
0.96407
0.968428
0.954134
1.04653
1.04627
1.03522
1.06954
0.991743
1.02053
1.01318
0.94691
1.0271
0.964839
0.844707
0.951478
0.973979
1
1.05696
1.06164
0.982855
0.955736
0.968073
1.05611
0.970304
0.990899
0.978585
1.02559
0.988135
1.04825
0.938795
0.952825
0.996856
1
0.964228
0.964042
0.97093
0.983616
0.983533
0.994383
0.972817
0.983785
0.957104
1.02737
1.02262
1
1.05722
0.943633
1
0.970834
1
1
1
1
1.02093
1.02041
1.02667
1.03638
1.00437
1.04089
0.961574
1
0.996165
1
1
0.949049
0.966056
0.987763
0.979766
0.986679
0.986834
0.987593
0.986987
1
0.987213
1
1
0.963831
1
0.909744
0.971012
1
1.02772
1.02598
1
1.02649
0.837602
1.00648
1.02272
0.985538
0.97853
1.01874
1.02763
0.991513
0.955892
1
1.02245
1.02627
1
1
1
0.969693
0.955132
0.991734
0.998241
0.952064
1.02689
0.983828
1.02742
0.940942
1.01667
1
1
1
1
0.848744
1
0.951328
1.01213
0.950842
1
0.98537
0.998006
0.928324
1.03347
1
1
1
1
1
1
1
1
0.998612
0.998636
1.0034
1.02072
1.01973
0.964162
1
1
1.01895
0.994994
1.01345
1
0.979102
1.02668
0.991652
1
0.956888
1
0.97234
1
1
1
1
0.967647
1
1.02788
1
0.992455
0.961087
0.947572
0.842949
0.837715
1.01589
0.954742
0.921606
0.953356
1.00386
0.964015
0.943094
0.972176
1.02454
0.972314
1
1.03659
0.944678
0.943421
0.953509
0.98613
0.983792
1.01969
1.05245
1
1.00005
1.04214
0.959462
1
0.957213
1.01608
1
0.951302
0.946828
0.955251
1
0.967036
1
1.01543
0.949212
1
1
0.989033
0.974007
0.874531
0.970436
1
0.952481
1
1
0.984038
0.98463
0.974918
1.03327
0.963597
0.950629
0.877849
1.02209
0.938052
0.974589
0.974588
0.988744
0.939655
0.960796
0.953925
0.977941
0.978094
0.956602
1.03138
0.975697
0.970419
1
1
1.00065
1.01358
1.00025
1.01008
1.01893
1.01906
0.987553
0.957423
1.0197
1.01968
0.953304
0.957383
0.838708
1.05688
0.987393
0.951495
0.95759
0.954947
0.945896
1.03463
0.849292
0.945851
0.947809
1.06343
0.947651
0.986653
0.96235
1.00326
0.98254
0.987743
0.954791
1.02072
0.982512
0.987283
0.982618
0.998948
0.978844
0.977562
0.996276
0.95118
0.951188
0.991561
0.991672
0.985508
0.95444
1.0357
0.988383
1.02715
0.946183
0.983144
0.956245
0.995257
0.995433
1.02243
1.02206
1.02256
1.02218
1.02068
1.0211
1.02013
0.996755
1.02101
1.02115
0.996913
1.01969
1.02078
1.02022
1.01904
1.01986
0.983012
1.01863
0.980414
1.01919
1.01815
1.01878
0.983696
1.0174
1.01826
0.958801
1.01687
1.01754
1.01631
1.01697
0.949818
1.01546
1.01643
1.01491
1.01558
1.01432
1.01505
0.957607
1.01447
1.01343
1.01989
1.01359
1.01285
0.999413
0.969924
0.974937
1.01296
0.990746
1
1.01219
0.957682
1.01232
0.99236
0.950614
1.01126
1.01137
0.957092
1.01023
0.965105
1.01036
0.978385
1.00926
0.953348
1.01877
1
1.00943
1.01981
1.06182
1
0.953247
0.95334
1.00835
1.00371
1.00849
1.00385
0.970372
1.02159
0.984539
1.00735
1
1.02793
0.999882
1.00747
0.982183
1.01815
1.01654
0.982647
1.00632
1.00644
1.00569
0.95272
1.00587
0.952593
1.06192
1.00506
1.00516
1
1
1.00412
0.923207
1.03889
1.02583
1.00417
1
1
1.00306
1.00845
1.00304
1.00854
0.980157
1
1.03272
0.993867
0.991265
0.983267
0.989329
1.00264
0.925319
1.01317
1.01547
1
1
1.01318
0.994257
0.99485
1.01607
0.997134
0.952014
0.958714
1.01782
0.953568
1.01786
0.953414
1.02771
1.0262
1.01957
0.968638
0.966197
1.02685
1.00313
1.02002
0.966833
0.997325
1.02002
0.996534
0.951731
1.02645
0.988503
0.962396
0.957991
0.957685
1.02655
0.917822
1.00741
0.962476
0.975924
1
0.949057
0.961671
0.98557
0.96073
1.02672
0.949959
0.949487
0.980119
1
0.949122
0.94504
0.988736
0.950983
0.98641
0.951678
1.0311
0.950079
1.01198
1
0.959744
0.985581
0.942924
0.948339
0.943339
1.0266
1.03566
1.02655
0.959018
0.964536
0.959613
0.945038
0.960367
0.952984
1
0.957627
1.03877
0.956747
1.01708
0.972406
0.964893
1
0.949119
1
1.02872
0.982222
1.02869
0.958866
1
1.01923
0.954331
1.02301
0.976094
0.978063
0.985791
0.982703
0.949778
0.956719
0.937662
0.9809
0.948889
0.94184
0.949616
0.951189
0.929591
0.949154
0.992711
1.09675
0.947888
0.954808
0.947752
1.01227
0.94093
0.927246
0.955116
0.946804
0.950873
0.946749
0.938241
0.950974
0.985491
0.987824
0.983823
0.958561
0.965896
0.964436
0.98595
1.01517
0.972254
1.01537
1.03351
0.987713
1.02054
0.985774
1.04768
0.985858
0.986108
0.925621
1.05581
1.01135
0.950655
0.991833
1.02566
0.983274
1.03341
0.918105
1
1.0276
0.976486
0.977494
0.952857
1.03731
0.926772
0.988192
0.950754
0.988092
0.950395
0.969787
1.03194
1.02659
0.976182
1.02784
0.955793
1.00385
0.981754
1.00423
1
0.951382
0.944998
1.02596
0.94958
0.946365
1.02649
0.915343
0.949516
0.994407
0.967231
1.05588
0.985445
0.995954
0.947756
0.96396
0.94934
1
0.99838
0.987277
0.945139
0.96045
0.947814
1.02663
0.985418
1.00504
0.939556
0.990793
0.995814
1.03641
0.990724
0.996344
0.962386
0.99869
1.01516
0.961018
0.996408
0.995398
0.941195
1.01302
0.980478
0.930091
0.955147
0.938882
1.00626
0.961038
0.947279
1.02694
1.00925
0.998461
0.939456
0.977004
0.986857
0.962332
0.955832
1.032
0.961378
0.992649
1.04538
0.98357
0.989541
0.95611
1.00442
1.02734
1
0.989297
0.954957
0.997973
0.993617
1.00363
1.02382
0.995856
1.02681
0.986482
0.992454
0.959933
0.943331
1.0266
1.02358
1
1.03301
1.03922
1.00004
1.00868
1.12704
1
1.02867
1.0286
1
1.05666
0.987135
1.00557
1.00585
0.987755
1.03246
0.9972
0.943308
1.03237
1
1.03532
0.976907
0.979086
1.02709
1.02708
1.03521
0.963672
0.948411
1.0351
0.962714
1.03775
1.0401
0.951627
1.01531
0.946921
0.859731
0.947538
1.0267
1.03842
0.84615
1
0.988773
0.979727
0.987518
1.02547
1.02769
0.966182
0.982333
1.01575
0.981729
1.04756
1.02706
0.851363
1.00534
1.01777
1.0187
0.956667
0.929655
0.987792
0.988255
1.03764
1.02383
0.995118
1.02727
1.02464
1.02621
0.951707
1.02097
0.951841
0.959942
0.952884
0.952885
1.03095
1.0264
1.01587
0.991618
1.02602
0.971608
0.973109
0.972799
1.02715
0.956958
1.04361
1.00567
1.02689
0.959565
0.992672
1.02561
0.959477
0.978365
1.01679
1.00475
0.938563
1
1.01746
0.956556
0.974189
0.952194
0.954269
1
1.02587
0.949759
1.02426
0.96836
0.967968
1.02708
0.974641
0.97253
0.95712
1.0266
1.00751
1.00783
0.961845
1
1
0.98731
0.978868
1.02666
0.999932
0.95156
0.946821
1.00029
1.02655
1
1.0042
1.02377
0.957926
0.969994
0.972098
1.02685
1.02768
0.853993
0.969936
0.883767
0.95504
0.975598
0.972058
1.02743
0.971788
0.973189
0.973581
1.00445
0.973784
0.986999
0.973222
0.97488
1.01903
0.974654
1.02453
0.98711
0.977046
0.996483
0.9766
0.996807
0.97834
1
0.998931
0.978075
0.995172
0.979574
0.999391
1.12261
0.996333
0.980871
0.996312
0.994314
0.994611
1.03525
0.980834
0.991605
0.991481
0.959961
1.02726
0.996406
0.983205
0.980335
0.991168
0.993768
0.993564
0.982701
1.02593
0.985073
1.01873
0.969554
1.02794
1.03235
0.996473
0.984964
1
1.03471
0.988956
0.986771
1.0277
0.96132
0.993193
0.991823
0.987305
0.996287
0.995817
0.988551
0.989623
0.991045
0.942227
0.990681
0.965303
0.992416
0.991113
0.949102
1.01038
0.962595
0.992763
0.995059
0.993396
1
0.993764
0.987488
0.994517
0.996426
0.986165
1.04128
0.959048
0.986706
0.966524
0.996427
0.997521
0.999022
0.964968
0.966665
1.03297
1
0.969423
0.970815
0.966118
1.00021
1.00034
0.959265
1.00119
1.01483
1.00269
0.977404
1.00894
0.966894
0.845253
0.947486
1.00324
1.00444
0.99792
1.02673
0.972778
1.00545
0.995389
0.98702
0.95656
1.05003
0.974188
1.02096
1.01794
0.952099
1.00698
1
1.01528
0.969251
0.969128
0.967904
1.0079
1.00895
1
1
1.01009
0.981166
0.961451
0.983936
1
0.98801
0.983691
1
0.983745
0.987607
0.985758
1.02698
0.99325
1.02041
1.01137
1.02665
1.024
0.972539
0.962194
1.01276
1.01341
0.970552
0.9714
1
1
1.02483
1
1.01496
0.988547
0.966124
0.951475
0.961345
0.974086
0.949268
1.01615
0.951176
0.983718
0.970842
1.00692
1.03426
1.02544
1.00545
0.964737
1.02359
0.981662
0.987274
0.964183
1.01061
1.01757
1.01829
1.04188
1.00517
0.949004
1.02495
0.954201
1.00861
1.03221
0.850805
1
0.98249
0.988266
1.11909
0.99652
1
0.987789
0.987388
0.988327
1.02549
1.01978
1.02045
1.02691
0.995283
1.03202
1.03735
1.02604
1.05212
1.02036
1.02186
0.956721
0.986851
0.980999
1
1.02668
1
0.98934
0.994779
0.987117
0.98741
0.855219
1.04329
1
1.02357
0.982171
0.982301
0.985402
0.987268
0.955163
1.0344
0.995352
0.987205
1.05116
0.985648
1
1.0461
1.02642
0.960604
1.02471
1.00466
0.974731
0.956838
0.990533
1
0.956439
1
0.994772
1.00514
0.98799
1
1.02635
1.01985
1.00943
1.09753
0.993307
1.02692
0.958669
0.959132
0.978033
1.03556
1.06935
0.981587
0.992113
0.973255
1.02848
0.959008
0.98715
0.966537
0.970849
0.984041
0.987599
1.02905
0.960884
0.9876
1.00306
0.987391
0.987365
0.949473
0.97579
0.94999
0.949739
0.960248
1.00398
1.00412
1.03018
0.988091
0.954332
1.03595
0.988181
0.985082
1
0.961991
1
1.03183
1
0.962299
1.00365
1.02931
1.02814
0.984501
0.949199
0.963807
1.00391
1.03127
0.949108
1.02988
0.985647
1.0053
1.01569
1.0159
1.023
1.00351
1.02786
0.962861
0.951075
0.987869
0.941498
0.965335
0.84443
0.84069
1.02713
1.03314
1.02091
0.942622
0.983319
1
1
0.983915
0.963982
0.949971
0.966144
1.03356
1.03606
1
1.03022
1.00395
1.01716
1.01583
0.95691
0.989274
0.968101
0.966091
1.00545
0.954478
0.953137
1
0.951811
0.990853
0.956831
0.960067
0.994451
1.04382
1.03415
0.954382
0.956928
1.04337
0.95362
0.848248
0.968658
0.987909
0.956437
1.02904
0.965701
0.965369
1.00595
1.02551
1.00437
1.00583
0.952287
0.951899
0.98583
1.03493
1.00747
0.952763
1.02682
0.953
1.01667
0.935793
0.942053
0.986656
1.00688
1.02605
0.980701
1.03747
0.987196
1.03952
1.01847
1.0105
0.98895
0.991986
1.02698
1.03585
1.03866
0.950346
1
1
0.950973
0.992377
1
1.00198
1
1.0057
0.986386
1
0.983803
1.02742
1.01972
1.02735
1.00516
1.03598
0.98035
0.948614
0.983546
1
0.959405
0.961452
1.0337
1
1.00681
0.970983
0.966237
1.00755
0.983486
0.955599
1.00791
1.00779
1.03609
0.959277
0.960196
0.960133
0.959211
0.991387
1
0.956653
1.00098
0.9569
0.981635
1.01412
1.03642
0.985263
1.02633
1.03006
0.965343
0.969951
0.841696
0.84557
0.955701
1
1
0.966323
0.95901
0.959392
1.01603
0.968794
0.940261
1.00931
0.962344
0.962401
0.964385
1
0.989561
0.976231
1.03621
0.988
1
0.961823
0.956394
0.991033
1.01417
1.02278
1
1.04158
1.0497
1.00557
0.960277
0.960434
0.970482
1
1
0.968152
0.957817
0.987743
0.999149
0.987551
0.987005
1
0.987096
0.970903
1.0358
0.987791
0.987577
1.02045
0.970843
1
1
0.985787
0.964308
1
0.971824
0.963968
1.01862
1.02753
0.973109
1
0.973338
0.971042
0.971131
0.96545
0.965267
1.01312
1
1
0.976773
1.03563
0.985515
1
0.892503
0.975967
1
1.00108
0.989394
0.949047
1.03775
1.01019
0.971583
0.952334
0.958803
1
0.963082
0.97934
0.961159
1.03176
1
0.963454
1.03816
0.980078
1.0226
0.97008
0.985605
0.980806
0.906185
0.949095
0.969099
1.03536
0.968977
0.839755
0.971174
0.982707
0.993067
1.00029
0.969488
1.02256
1.0488
0.982224
0.948043
0.96634
0.972211
1.02176
0.963116
1.02153
0.952194
1.0212
1.02038
1.02237
0.984929
0.971915
0.971091
0.971084
0.964029
0.98736
0.984241
0.9735
1.03496
0.964303
0.984106
1
0.986708
0.947847
1.02408
1
0.955324
0.986757
1
0.9753
1
0.988288
0.965296
0.976423
0.955891
1.01866
0.989291
1.01015
0.990084
0.964663
1.03437
1
0.99464
0.964798
0.978532
1.00641
1.0202
1.02166
1.02164
0.979431
0.99277
0.98109
1.01704
1.02297
1.02599
1
1.01624
0.981024
0.994464
0.982964
1.03365
1
1
1
0.983403
1
0.950421
0.974278
0.984456
1.01589
1.01599
1.04859
0.977497
0.985703
1
1.03311
0.986465
0.998955
0.844529
1.04274
1
0.987641
0.983871
1.0327
0.99959
1
0.968268
0.972816
1.01563
0.980971
1
0.988687
1.00101
0.997243
0.989566
1.03212
1
1.02746
0.997497
1.00221
1.05919
0.951629
1.05855
0.990949
0.980587
0.98039
1.03145
1.02625
0.992749
1.03079
0.996227
0.962977
0.962716
0.995072
0.992918
1.03012
0.951333
0.95504
0.982145
0.981992
1.0053
0.996886
0.948538
1.03581
1.0294
0.980472
0.988795
0.996493
1.00656
1.00205
0.977933
1.01873
1.01867
0.995197
0.948457
0.995438
0.99813
0.967445
0.96764
1.00926
1.00291
0.998923
1.00953
0.950854
1.0038
1.00054
0.990038
1
1.01118
1.0368
1.00134
0.980919
1.00546
0.961145
1.00718
1
0.99605
0.986963
0.988369
1.00482
0.988482
0.988407
1.03859
1.01453
0.991879
0.969762
1.00567
1.01646
1.01195
0.991488
0.967259
1.01723
1.01604
1.01653
1.01605
1.0157
0.975023
1.01156
0.968107
0.974728
1.02618
1.0249
1.01737
0.954982
1
0.991141
1.00908
0.965299
1.03055
1.01054
0.970884
1.0047
0.983763
0.967591
1.02902
0.971952
1.0389
1
0.993057
0.992893
1.01662
1.06231
1.0566
1.01367
0.978014
1.02839
1.02168
1
1.01523
1.06986
1.01878
0.96589
0.987026
1.02312
1
1.00429
0.838557
1
0.967543
0.97913
1
0.996587
0.996777
0.997117
0.979516
1.02436
0.980848
0.974417
0.952055
0.982149
0.95271
0.97448
0.982326
1.02997
1.02094
0.989039
0.990382
1.02664
0.983683
0.95091
1.02832
0.982592
0.966231
1.0096
1.01552
1.02212
1.04853
0.957902
0.933808
0.841461
0.994306
0.989208
0.988389
1.02525
1.02394
0.996533
1
1.00251
1.00405
1.00258
0.949131
0.986822
0.972185
0.994089
1.02251
1
0.953277
0.957296
0.958202
0.965484
1.00426
0.997597
0.983357
1.02664
1.03387
1.0396
1.03011
1.02751
0.980964
0.993634
0.960227
0.98076
0.978794
1.00346
0.979613
1.00623
1.00627
1
0.959247
0.957713
0.880191
1.03167
1.04094
1.00826
1.00516
0.982891
0.998314
1.02382
0.95598
0.968368
0.967191
1.02471
1.00375
1.00471
1.02963
1
1.00978
1.0099
0.985373
1.00576
1.04082
1.03071
1.01619
1.02181
1.00401
1.00341
0.969487
1.00346
0.99617
0.985428
0.975357
0.985329
1.0264
0.998197
0.999295
0.991739
0.999089
1
1.00777
1.00898
1.01002
0.953448
1.01097
1.00805
1.0133
1.0134
1.0071
1.01191
1.032
1.00906
1.0101
1.00817
1.01112
1.00721
1.01205
1.00464
1.00232
0.96904
1.00371
1.00729
1
1.00255
1.01402
1.00483
1
1.00379
1.0039
0.953526
1.01415
0.966442
1.02592
0.953778
1.03708
1.04003
0.955281
0.970039
1.01608
1.02774
0.970216
0.990289
0.990226
1.03394
0.990348
1.0162
0.988623
0.984744
1.01088
0.992562
0.988622
0.987638
0.991607
1.0174
1.02752
1.01747
0.986762
1.01787
1.0201
1.01803
1.03512
0.958819
0.973419
1.01231
0.969304
1.00374
0.988181
1.00545
0.986291
1.01952
0.990504
0.983973
0.99033
0.987587
1.01473
1.0196
1.01371
1.03373
1.03575
1.00486
1.04324
0.982529
1
1.02057
1.02066
1.02168
1.02169
0.982114
1.00591
1.03479
0.998529
1.02001
1.03589
1
1.02138
1
0.959397
0.949084
1
0.990303
1
1.01858
1.03514
0.962446
0.961322
1.02594
0.96384
1.03638
1.00522
0.984078
1.02235
1.00759
1.02241
0.983026
0.986589
0.98456
1.02005
1
1.02762
0.944965
1.03597
1.00009
1.05264
0.902856
0.969732
1
1.01986
1.02274
1.02264
0.984135
1.03657
1.01956
1.02272
1.02283
0.982992
1
1.01951
0.948114
0.982187
0.983832
0.985697
1.0101
1.02562
0.98695
1.02569
1.03641
0.986368
0.994327
1.02253
1.03617
0.98753
1.0102
0.990384
1.03622
1.05416
1.00506
0.985262
1.05356
1.02697
1.03614
0.989552
0.983334
1.03864
1.03636
0.991446
0.979898
0.984282
0.959265
0.971511
0.966453
1.0358
1
0.970278
1
0.9668
1.02205
0.982414
1.0364
1
1.02841
1.02375
0.984943
1.02312
1.02496
1.02427
1.00164
1.03064
0.967645
1.02559
1.02585
1.02229
1
0.991567
1.02452
1.02163
1.02401
1.02329
1.03049
1.02737
1.02689
1.02505
1.0213
0.955858
1.02574
1.00002
1.03819
1.02616
1.02638
1.00792
1.02145
0.993472
1.02645
1.01929
1.02701
0.971575
1.02736
1.03577
1.02014
1.02036
1.01594
0.968233
0.984205
1.02604
1.02746
0.955444
0.964448
1.01811
1.01942
1.00259
1.00682
1.02791
1.01839
1.03447
1.02792
0.94956
1.02803
1.01862
1.02803
1.028
1.00743
1.02809
1.01765
1.03389
1.01788
0.988712
1.01677
1.02784
1.02794
0.986184
1.02769
1.00852
1.02779
1.03339
1.0061
0.986337
0.985813
0.990218
1.01687
1.03168
1.03099
1.03482
1.03031
1.0296
1.02889
1.01575
1.01582
0.970115
0.979409
0.978282
1.01495
0.951169
1.0151
1.01247
1.02638
1.0347
1.01606
1.03433
1
0.993598
0.985404
1.03473
1.0062
0.95255
0.951873
1.03139
0.95269
1.00127
1.01521
1.03782
0.954477
1.03361
0.949822
0.95423
1.0386
1.01998
1.02378
0.970383
1
0.991567
1.01413
1.02661
1.00506
1.01425
1.01309
0.95254
0.95286
1.03202
1.03132
1.03064
1.02925
1.02996
0.98824
1.0133
1.00419
0.983993
1
1.00632
1.01172
1
1.00764
1.00619
0.984458
1.01297
1.01541
1.02385
0.996907
1.01193
1.06403
0.971698
1.0162
1
1.01399
1.01101
0.958544
0.947828
1.01386
0.989338
0.946743
1.00996
1.00707
0.988704
1
1.01122
1.03841
0.955732
1
0.966914
1.01438
1.01
1.03809
0.966755
0.998133
0.976798
0.967427
0.97818
0.96889
1.00904
0.976709
0.971673
1.00835
0.954919
1.0094
0.97759
1.02742
1.02739
1.03581
1.00836
0.985631
1.0619
1.02426
0.964968
1.00642
0.986455
1.01974
0.993388
1.00704
0.950225
1.06122
1.02556
1.02513
0.95096
1.0073
1.00659
0.937272
1
1
1.03255
1.02692
0.971126
0.953311
0.953003
0.987005
1.02564
1.00678
0.97687
1.037
0.973391
1.0126
0.969157
1.04593
0.989594
0.971746
1.0053
0.990641
1.0278
1.00764
1.00532
0.956407
1.01718
0.986308
1.01101
1.02665
1.02686
0.982025
1.03598
1.03555
1.04453
0.971526
0.971422
1.00298
0.99116
0.996259
0.970009
1.00393
0.990125
1.00339
1.02449
1.0041
1.00256
0.98737
1.02775
1.03009
0.995123
1.02771
1.00321
1.00217
0.988883
1
1.01364
0.983143
1.02902
0.986703
1.00349
0.99352
0.987794
1.0301
0.986752
1
1.01573
1.0103
1.01073
0.988189
0.980475
1.00954
0.967824
0.970931
1.0314
1.02432
1.00247
1.0085
1.00251
0.977164
1.03349
1.00016
0.981707
1.00131
1.00989
1.00149
1.03172
0.987893
1.00653
1.00277
0.990679
0.999115
0.992358
1.03166
1.03316
1.03294
0.997939
0.959554
0.998494
1.01291
0.985026
1.03289
0.986339
1.00438
1.00027
0.992556
0.962162
0.986362
0.836799
0.970979
0.871855
1.00647
0.985084
1
0.998329
1.01285
1.01899
0.954779
0.999731
1.01893