/*--------------------------------*- C++ -*----------------------------------*\
  =========                 |
  \\      /  F ield         | OpenFOAM: The Open Source CFD Toolbox
   \\    /   O peration     | Website:  https://openfoam.org
    \\  /    A nd           | Version:  12
     \\/     M anipulation  |
\*---------------------------------------------------------------------------*/
FoamFile
{
    format      ascii;
    class       volVectorField;
    location    "3.89";
    object      U;
}
// * * * * * * * * * * * * * * * * * * * * * * * * * * * * * * * * * * * * * //

dimensions      [0 1 -1 0 0 0 0];

internalField   nonuniform List<vector> 
22702
(
(2 -4.83051e-13 0)
(2 1.24654e-14 0)
(2.04001 -0.0945111 0)
(2 -1.17079e-09 0)
(1.98552 0.0354341 0)
(2 8.7114e-14 0)
(1.82909 0.228683 0)
(2 -4.63817e-14 0)
(2 -4.36179e-13 0)
(2.11632 -0.264974 0)
(1.82984 0.228382 0)
(1.82875 0.228703 0)
(2 -7.00466e-14 0)
(1.83157 0.229056 0)
(2.03182 -0.0771759 0)
(2 -3.25077e-13 0)
(2 -2.67422e-13 0)
(2 -2.07148e-14 0)
(1.82915 0.228665 0)
(2 -2.87552e-14 0)
(1.83182 0.22894 0)
(2 -1.81331e-14 0)
(1.83228 0.229267 0)
(2.1099 -0.267947 0)
(1.83166 0.227811 0)
(2.12319 -0.265546 0)
(2 -2.44702e-14 0)
(1.83128 0.228919 0)
(2.10895 -0.264364 0)
(2.10741 -0.265156 0)
(2 1.92091e-14 0)
(1.82887 0.228853 0)
(2 6.27314e-14 0)
(2 5.25066e-14 0)
(2 -1.21055e-13 0)
(1.84463 0.21433 0)
(1.83243 0.227489 0)
(1.83217 0.229038 0)
(2 -2.43591e-13 0)
(2 -3.04366e-13 0)
(2.11699 -0.265842 0)
(2 1.66297e-14 0)
(1.91468 0.125477 0)
(2 -3.5688e-13 0)
(1.8312 0.229152 0)
(2 1.77173e-13 0)
(2 -2.88059e-14 0)
(2 -1.344e-13 0)
(2 -1.08208e-13 0)
(2.10303 -0.259017 0)
(2 3.73893e-14 0)
(2.10384 -0.26085 0)
(2 -2.95603e-13 0)
(1.83077 0.228902 0)
(2 -4.21873e-14 0)
(1.83018 0.229047 0)
(2 6.15969e-14 0)
(2 1.26159e-09 0)
(2 6.66369e-14 0)
(2 -1.64623e-13 0)
(2.12071 -0.264083 0)
(2 -1.592e-14 0)
(2 -3.11742e-13 0)
(2.12109 -0.269984 0)
(2 2.87231e-14 0)
(2.10855 -0.263031 0)
(2 -4.47809e-13 0)
(2 2.56289e-13 0)
(2 -4.27456e-14 0)
(2.1128 -0.265684 0)
(2 -2.95743e-13 0)
(1.8312 0.228598 0)
(1.90194 0.153938 0)
(2 7.088e-10 0)
(1.83027 0.228342 0)
(1.82028 0.235862 0)
(2.09003 -0.259863 0)
(1.82778 0.228443 0)
(2.10124 -0.263403 0)
(2 -3.0197e-13 0)
(1.8291 0.22854 0)
(2.11671 -0.261554 0)
(1.83305 0.229369 0)
(1.83152 0.229505 0)
(2 -1.95404e-14 0)
(2 9.5257e-07 0)
(2 6.87572e-14 0)
(2 9.04723e-15 0)
(2.02263 -0.0467498 0)
(2.11411 -0.264681 0)
(1.83158 0.228617 0)
(2 5.31199e-15 0)
(2 -5.67689e-11 0)
(2.11709 -0.263818 0)
(2 -1.73288e-14 0)
(1.83152 0.229231 0)
(2.11625 -0.264885 0)
(2 2.33599e-08 0)
(2 1.18038e-13 0)
(2 1.7881e-13 0)
(2 -2.10826e-13 0)
(1.92363 0.127457 0)
(1.82898 0.228665 0)
(2.12282 -0.267198 0)
(2 1.05122e-09 0)
(2 -9.49052e-10 0)
(1.95606 0.0637858 0)
(2 8.94871e-09 0)
(2.11165 -0.261249 0)
(2 1.38426e-13 0)
(1.82827 0.228977 0)
(1.83067 0.229016 0)
(2 4.66943e-09 0)
(2 -1.13889e-14 0)
(2.12157 -0.276993 0)
(2.12242 -0.273138 0)
(2.11531 -0.264527 0)
(2 5.86624e-14 0)
(2 -1.48949e-07 0)
(2 -7.69754e-14 0)
(2 7.73579e-14 0)
(2 1.06879e-07 0)
(2.02635 -0.0573635 0)
(2 -1.05916e-07 0)
(1.85672 0.200185 0)
(1.99586 0.0259957 0)
(1.82666 0.228181 0)
(2 5.85256e-14 0)
(1.82672 0.228562 0)
(1.82937 0.228755 0)
(1.83171 0.228718 0)
(1.83056 0.228962 0)
(2 -5.52534e-14 0)
(2.11438 -0.26496 0)
(2 -4.05243e-14 0)
(2.12019 -0.262666 0)
(2 2.93865e-14 0)
(2 -1.04643e-13 0)
(2 6.54623e-14 0)
(2 -1.93124e-14 0)
(1.83099 0.229194 0)
(2 2.9997e-09 0)
(2 9.86483e-14 0)
(2 -1.07555e-13 0)
(2 -5.55713e-15 0)
(1.8293 0.228813 0)
(2 2.67106e-14 0)
(1.99228 0.0155671 0)
(2 9.60214e-15 0)
(2 -5.88392e-14 0)
(2 -6.75379e-11 0)
(2 -7.86201e-14 0)
(2.10489 -0.260284 0)
(2 6.04774e-14 0)
(1.99548 0.00974769 0)
(2 6.93864e-14 0)
(2.10145 -0.262319 0)
(2 -1.16581e-13 0)
(2 -6.70069e-14 0)
(2 -4.53706e-14 0)
(1.83129 0.228905 0)
(2 -3.76939e-14 0)
(1.83208 0.229241 0)
(2.12599 -0.270442 0)
(2.12096 -0.264929 0)
(1.8297 0.228458 0)
(1.8315 0.229012 0)
(2 -4.5974e-15 0)
(1.97891 0.0482299 0)
(1.90617 0.145569 0)
(2 -1.37306e-13 0)
(1.83175 0.228669 0)
(2.10012 -0.264138 0)
(1.8439 0.215224 0)
(2 -4.21099e-14 0)
(2 2.03113e-13 0)
(2 6.72163e-14 0)
(2 1.11925e-14 0)
(1.8316 0.229158 0)
(1.85392 0.19273 0)
(2 -1.02503e-13 0)
(1.82947 0.22929 0)
(2.12788 -0.270676 0)
(1.83131 0.228814 0)
(2 -1.3609e-13 0)
(2.10173 -0.26076 0)
(2 -8.3847e-14 0)
(2.10205 -0.262147 0)
(2.1165 -0.262517 0)
(2.00008 -0.000126604 0)
(2 -5.32736e-13 0)
(2 -2.11e-13 0)
(1.82971 0.228251 0)
(2 9.34151e-14 0)
(2 -1.25322e-13 0)
(1.83168 0.228824 0)
(2 -2.77479e-13 0)
(1.83302 0.229374 0)
(1.82899 0.228686 0)
(2.10446 -0.283854 0)
(2 -1.22808e-14 0)
(2 -3.68857e-13 0)
(2.11211 -0.265094 0)
(1.83157 0.228748 0)
(2 -2.20536e-14 0)
(2 -2.23605e-14 0)
(2 5.30311e-14 0)
(1.83149 0.228787 0)
(2 -5.32628e-14 0)
(2.13041 -0.264587 0)
(2 -6.51116e-11 0)
(2 -8.99042e-14 0)
(1.83156 0.229149 0)
(1.83119 0.228755 0)
(1.83145 0.229296 0)
(2 2.11658e-14 0)
(1.99998 2.42126e-05 0)
(2 3.4418e-15 0)
(2 3.10436e-14 0)
(2 -1.48184e-13 0)
(1.8315 0.228718 0)
(2 -1.29198e-14 0)
(2.12733 -0.269118 0)
(1.82303 0.234559 0)
(1.83175 0.228906 0)
(1.83192 0.228416 0)
(2 1.91417e-07 0)
(2 8.02479e-14 0)
(2 -4.97466e-13 0)
(2.11483 -0.269947 0)
(1.83233 0.227934 0)
(1.92443 0.112277 0)
(2 -2.89998e-14 0)
(1.83068 0.229512 0)
(2.13509 -0.268385 0)
(2.138 -0.268834 0)
(1.83076 0.22958 0)
(1.83069 0.229215 0)
(2 -4.58073e-14 0)
(1.83041 0.230625 0)
(2.11314 -0.274092 0)
(1.85082 0.206792 0)
(2 -3.5023e-13 0)
(2 -3.02436e-13 0)
(2 -4.50882e-13 0)
(2 4.76522e-14 0)
(1.83182 0.228816 0)
(2 -8.27532e-14 0)
(1.90356 0.138977 0)
(1.9847 0.0261069 0)
(2 2.06935e-13 0)
(2 -6.22102e-14 0)
(1.83194 0.228857 0)
(2.11612 -0.264358 0)
(2.08383 -0.159808 0)
(2 -3.49795e-13 0)
(1.82974 0.230807 0)
(2.10519 -0.266361 0)
(1.83145 0.228577 0)
(2 -3.90897e-14 0)
(2 1.23004e-13 0)
(2 -4.41753e-13 0)
(2 -4.13151e-14 0)
(2 -1.19413e-13 0)
(2 -2.08302e-14 0)
(2 -4.21575e-14 0)
(2.10481 -0.262702 0)
(2.08248 -0.163924 0)
(2.13629 -0.267418 0)
(1.83115 0.22909 0)
(2 3.00989e-14 0)
(2 9.65884e-15 0)
(2 -1.41091e-07 0)
(2 -4.80931e-13 0)
(1.84334 0.210876 0)
(2 -1.1167e-08 0)
(2.10436 -0.264558 0)
(2 -6.35337e-14 0)
(2.11587 -0.281013 0)
(2.10761 -0.265439 0)
(1.83191 0.229411 0)
(2.11851 -0.262759 0)
(1.83173 0.229002 0)
(2 -1.34447e-13 0)
(2 -2.26085e-13 0)
(2 -2.657e-13 0)
(2.0009 -0.00175435 0)
(2.10763 -0.262318 0)
(2.11454 -0.273644 0)
(2 -2.85713e-07 0)
(2 -1.45162e-07 0)
(2.11755 -0.281836 0)
(2 2.47797e-09 0)
(1.82977 0.22903 0)
(2.11843 -0.266615 0)
(2 -7.11796e-14 0)
(2 -3.49773e-11 0)
(1.82902 0.228627 0)
(2.12375 -0.27675 0)
(2 -6.63489e-14 0)
(1.83026 0.228526 0)
(2.12139 -0.263726 0)
(1.83195 0.228879 0)
(2 2.07409e-14 0)
(2.10962 -0.284863 0)
(2.00079 -0.00151549 0)
(2 -3.45466e-14 0)
(2 2.09823e-06 0)
(2 -2.30928e-16 0)
(2.10749 -0.260868 0)
(2 -1.50334e-13 0)
(2 -1.69301e-07 0)
(2 -8.70087e-07 0)
(1.99999 6.68696e-06 0)
(1.99227 0.0104947 0)
(1.9029 0.153123 0)
(2 -3.0705e-11 0)
(2.10246 -0.248232 0)
(2 -1.5031e-11 0)
(2 1.39754e-06 0)
(2 -6.4961e-14 0)
(2 3.81859e-14 0)
(2 -7.8656e-15 0)
(2 -1.20762e-13 0)
(2 -1.40819e-12 0)
(1.82924 0.228729 0)
(2 1.49713e-13 0)
(1.82906 0.228924 0)
(2 2.99651e-13 0)
(2 3.3182e-14 0)
(2 -3.75258e-15 0)
(2.11485 -0.260046 0)
(2 1.28907e-13 0)
(1.82978 0.228751 0)
(2.1211 -0.268649 0)
(2 1.05078e-13 0)
(1.86517 0.200552 0)
(2 -1.26515e-13 0)
(2 4.80828e-14 0)
(1.82954 0.229012 0)
(2 -3.8486e-14 0)
(2 -8.48343e-09 0)
(2 3.77969e-14 0)
(1.83261 0.227474 0)
(2 4.59289e-10 0)
(2 5.27499e-14 0)
(1.83551 0.219059 0)
(1.8301 0.228334 0)
(2 -4.51975e-14 0)
(1.9672 0.0551574 0)
(2 -1.12597e-13 0)
(2 -4.14282e-14 0)
(2.12052 -0.263722 0)
(2 -1.09051e-13 0)
(2 -1.03726e-13 0)
(2 1.4022e-13 0)
(2.11829 -0.263494 0)
(2 -4.1998e-14 0)
(2 1.1936e-14 0)
(2 1.90133e-14 0)
(2 1.27368e-13 0)
(2.11108 -0.259212 0)
(2 -3.13294e-14 0)
(2 1.85772e-14 0)
(2 -1.5704e-13 0)
(2 -6.12674e-14 0)
(2 -5.58895e-14 0)
(2.10662 -0.265858 0)
(1.99998 3.05849e-05 0)
(1.83205 0.229073 0)
(2 5.27788e-14 0)
(2.00001 -2.30352e-05 0)
(1.83142 0.228564 0)
(1.82954 0.228796 0)
(2 1.82427e-13 0)
(2 1.80962e-13 0)
(2.1008 -0.276387 0)
(2.07045 -0.128921 0)
(1.83007 0.229137 0)
(2 -1.64273e-13 0)
(2 1.54073e-14 0)
(2 1.2018e-13 0)
(1.83202 0.228756 0)
(2.11283 -0.265289 0)
(2 -4.86109e-14 0)
(1.83198 0.229238 0)
(2 -4.10773e-14 0)
(2 7.87345e-15 0)
(2.11428 -0.203947 0)
(2.10108 -0.213228 0)
(2 -2.14687e-13 0)
(2.11382 -0.263689 0)
(2.12588 -0.258894 0)
(2 -8.39222e-14 0)
(2 -3.56872e-14 0)
(2 -1.53375e-13 0)
(2 -4.43234e-14 0)
(2 -8.13399e-11 0)
(2 -8.28012e-14 0)
(2 -9.06871e-14 0)
(1.82665 0.227931 0)
(1.94372 0.0593883 0)
(1.8427 0.215601 0)
(2.10493 -0.262905 0)
(2.02232 -0.0577407 0)
(1.83036 0.229114 0)
(2 -4.46332e-14 0)
(1.82923 0.228552 0)
(1.83017 0.229192 0)
(2.14095 -0.260979 0)
(2.08031 -0.153081 0)
(2 9.664e-13 0)
(2.12545 -0.263136 0)
(2 2.00674e-13 0)
(1.81978 0.237337 0)
(2 -1.41212e-13 0)
(2 -5.42211e-14 0)
(2 -9.38779e-14 0)
(2 1.73368e-14 0)
(1.83161 0.228705 0)
(2 1.4074e-14 0)
(2 -5.55452e-14 0)
(2 2.6403e-14 0)
(2 1.68761e-09 0)
(2 1.57478e-13 0)
(2 -1.86423e-13 0)
(2 -6.98479e-14 0)
(1.9378 0.0985154 0)
(1.83179 0.229019 0)
(2 3.19903e-13 0)
(1.83118 0.228981 0)
(2 7.58611e-14 0)
(2 5.20364e-14 0)
(2.11418 -0.262919 0)
(2 2.27697e-13 0)
(2 -1.113e-13 0)
(2 -9.03855e-14 0)
(2 -1.95396e-13 0)
(1.83148 0.22872 0)
(1.87264 0.181956 0)
(2 -2.72193e-13 0)
(2 -2.78829e-13 0)
(2.11453 -0.260612 0)
(1.83194 0.229134 0)
(1.83175 0.229028 0)
(2 -9.67473e-14 0)
(1.83177 0.229094 0)
(1.83176 0.228922 0)
(1.83123 0.228879 0)
(2 -3.63712e-14 0)
(2.06374 -0.114291 0)
(2 -8.95359e-15 0)
(1.832 0.228862 0)
(1.9989 -0.00901581 0)
(1.83118 0.228867 0)
(2 -5.09882e-14 0)
(2.13807 -0.261373 0)
(2.00039 -0.000623556 0)
(1.82876 0.22863 0)
(2 -1.47587e-13 0)
(2 -5.66835e-14 0)
(2 -4.49426e-11 0)
(2 -2.252e-11 0)
(2.10668 -0.261585 0)
(1.83232 0.228804 0)
(1.84723 0.21115 0)
(2 -9.53875e-14 0)
(1.83064 0.230015 0)
(1.83198 0.228774 0)
(1.8293 0.228825 0)
(2 -4.19345e-14 0)
(1.92297 0.126131 0)
(1.83252 0.228095 0)
(2 -2.41806e-13 0)
(2 1.38204e-13 0)
(1.87983 0.166969 0)
(1.977 0.0394077 0)
(1.83132 0.229194 0)
(2.02352 -0.0443966 0)
(1.83125 0.229042 0)
(2 -5.30886e-14 0)
(1.83122 0.228853 0)
(1.83145 0.22865 0)
(1.83115 0.22876 0)
(1.83204 0.2291 0)
(2 1.95462e-13 0)
(1.83727 0.234442 0)
(2.01655 -0.0553692 0)
(2.03543 -0.0736278 0)
(2 9.39384e-15 0)
(2 -3.38265e-07 0)
(2 1.8125e-13 0)
(2 -5.02818e-14 0)
(1.83114 0.23029 0)
(2 1.82371e-13 0)
(2 8.00373e-14 0)
(2 -1.62367e-13 0)
(2 -2.79045e-14 0)
(2 -6.24416e-14 0)
(1.82853 0.228617 0)
(2 -2.39906e-14 0)
(2 4.56073e-14 0)
(2.00155 -0.00248775 0)
(1.83189 0.228974 0)
(1.85175 0.210207 0)
(2 -7.56995e-14 0)
(1.86796 0.180318 0)
(1.99998 2.67688e-05 0)
(2 6.01156e-14 0)
(2 4.17519e-14 0)
(1.832 0.229301 0)
(2 5.12864e-14 0)
(2.0019 -0.00257444 0)
(1.99814 0.00473391 0)
(2 -3.9883e-14 0)
(1.8317 0.228633 0)
(2 6.97294e-14 0)
(1.83191 0.228648 0)
(2 4.15665e-14 0)
(2 1.60934e-13 0)
(1.87081 0.177364 0)
(2 1.0951e-13 0)
(1.83198 0.228631 0)
(1.99999 1.32668e-05 0)
(2 -9.32182e-14 0)
(1.82999 0.230816 0)
(2 -3.71112e-13 0)
(1.83166 0.22877 0)
(2 5.79279e-14 0)
(2 2.72058e-06 0)
(2 -3.10286e-14 0)
(1.83174 0.228756 0)
(2 8.44134e-15 0)
(1.83243 0.227646 0)
(2 3.81176e-06 0)
(1.83163 0.228772 0)
(1.82937 0.228628 0)
(1.83184 0.228935 0)
(1.82836 0.227996 0)
(2 7.16378e-14 0)
(1.83171 0.228337 0)
(1.83235 0.231669 0)
(2 7.04179e-14 0)
(2.1066 -0.263473 0)
(1.84428 0.217773 0)
(1.87559 0.167253 0)
(2 -3.05704e-15 0)
(1.8317 0.228789 0)
(2 -9.03422e-14 0)
(2.11773 -0.263742 0)
(2.11976 -0.26304 0)
(2 8.31938e-14 0)
(2 -6.23395e-14 0)
(2 -4.32601e-14 0)
(2 -7.97476e-14 0)
(2 1.43653e-09 0)
(2.11488 -0.26601 0)
(2 1.69966e-13 0)
(1.83113 0.229055 0)
(1.94883 0.0710441 0)
(1.83208 0.229237 0)
(2 -2.61371e-13 0)
(2 8.02323e-11 0)
(2 -1.19501e-13 0)
(2 -9.6493e-14 0)
(2 -5.4027e-08 0)
(1.83145 0.228765 0)
(2 -6.09271e-14 0)
(1.83198 0.229367 0)
(1.8961 0.151558 0)
(2.07636 -0.155309 0)
(2 1.29844e-09 0)
(2 5.91873e-06 0)
(1.94839 0.0789386 0)
(1.95792 0.0698047 0)
(2 3.44943e-14 0)
(2 -1.15285e-13 0)
(1.92922 0.0890839 0)
(2 1.4977e-13 0)
(2.10844 -0.263365 0)
(1.83159 0.229357 0)
(1.83155 0.229393 0)
(2 -6.54932e-11 0)
(2 8.54093e-14 0)
(2 -4.85488e-14 0)
(1.82891 0.228576 0)
(2 -3.43553e-13 0)
(1.99999 1.67847e-05 0)
(1.83115 0.228847 0)
(1.83215 0.228645 0)
(2.01918 -0.0368031 0)
(2 1.66947e-13 0)
(2 2.30494e-10 0)
(2.1026 -0.259761 0)
(1.84687 0.211803 0)
(2 8.59025e-14 0)
(2 -3.9085e-14 0)
(2 -2.36345e-14 0)
(2 -2.72673e-11 0)
(2 -6.69003e-14 0)
(1.83167 0.228787 0)
(1.83184 0.228694 0)
(2 1.62025e-13 0)
(1.82989 0.230523 0)
(1.83234 0.227763 0)
(1.83185 0.228956 0)
(2 -9.26372e-14 0)
(2 -1.1425e-13 0)
(2 -5.44029e-11 0)
(2 -1.40198e-13 0)
(2.11672 -0.264303 0)
(1.83043 0.229204 0)
(2 -3.7944e-11 0)
(2 -3.78325e-14 0)
(1.85041 0.212552 0)
(1.83337 0.228623 0)
(2 -1.45157e-13 0)
(1.84422 0.218828 0)
(1.83 0.228667 0)
(2 -3.04253e-13 0)
(2 -2.13946e-07 0)
(2 9.53069e-11 0)
(2 2.88732e-13 0)
(2 -1.78211e-13 0)
(1.83175 0.228732 0)
(2 2.10912e-13 0)
(2 -3.64023e-13 0)
(2 -1.71157e-13 0)
(2 -1.86752e-13 0)
(1.83167 0.229112 0)
(2 -1.32764e-13 0)
(1.83028 0.231627 0)
(2.13208 -0.263097 0)
(2 5.52166e-14 0)
(2.12372 -0.258869 0)
(2 -7.64483e-14 0)
(2 -1.55313e-07 0)
(2 -5.56886e-15 0)
(2.00125 -0.00197885 0)
(2.11024 -0.266912 0)
(2.00027 -0.000511649 0)
(2 -1.22054e-13 0)
(2 -4.99047e-16 0)
(2 -1.18811e-07 0)
(1.97277 0.0385354 0)
(2 -3.28897e-13 0)
(2 -4.84066e-15 0)
(2.0513 -0.0950964 0)
(2 -2.1301e-07 0)
(2 -5.77908e-14 0)
(2 -4.92484e-15 0)
(2 -2.18197e-07 0)
(2 3.39732e-07 0)
(2 -1.55163e-07 0)
(2 -1.56212e-13 0)
(2 -1.60725e-06 0)
(2.00923 -0.047863 0)
(2 -4.79586e-07 0)
(2 -3.76555e-08 0)
(2.00093 -0.00134151 0)
(2 4.7124e-14 0)
(2.10529 -0.263029 0)
(2 -2.79076e-11 0)
(2 -4.90682e-12 0)
(2 -6.36539e-12 0)
(2 2.05619e-13 0)
(1.87083 0.178438 0)
(2 6.65809e-14 0)
(2 -1.33278e-13 0)
(2 9.35073e-15 0)
(2 -1.64228e-07 0)
(2.12577 -0.269812 0)
(2 -8.24988e-14 0)
(2 1.56397e-09 0)
(1.84149 0.218657 0)
(1.83039 0.229319 0)
(2 -2.75321e-07 0)
(2 -1.50882e-13 0)
(2 -1.0739e-07 0)
(2.04431 -0.0719361 0)
(2 -1.56851e-14 0)
(2 4.84342e-10 0)
(2 -4.43229e-14 0)
(2 -5.42161e-14 0)
(2 7.07787e-14 0)
(2 1.06133e-13 0)
(2.01571 -0.0407125 0)
(1.99422 0.00586278 0)
(1.83146 0.229102 0)
(2 1.70903e-13 0)
(2 -2.71851e-13 0)
(2 -3.20221e-14 0)
(1.83076 0.230694 0)
(2.03178 -0.0726151 0)
(2 -4.74204e-09 0)
(2 8.55036e-14 0)
(2 1.59024e-13 0)
(1.83233 0.229088 0)
(1.8297 0.228237 0)
(2 -2.92702e-08 0)
(2 4.18001e-06 0)
(2 3.38104e-09 0)
(2 -9.31315e-14 0)
(2 1.32844e-09 0)
(2 -8.86802e-14 0)
(2 2.27006e-12 0)
(2 1.31248e-13 0)
(2 3.33568e-14 0)
(2.12478 -0.259816 0)
(2 1.77424e-13 0)
(2 -1.54573e-11 0)
(1.82911 0.228862 0)
(2.12876 -0.266819 0)
(2 8.55798e-15 0)
(1.82931 0.228727 0)
(2 4.52331e-11 0)
(2.10557 -0.262918 0)
(2 -4.23159e-14 0)
(2 -8.79897e-14 0)
(2.12703 -0.256272 0)
(2 -1.93576e-13 0)
(2 -1.49601e-11 0)
(2 -6.02906e-12 0)
(2 2.40506e-14 0)
(2 -3.38394e-12 0)
(2 -2.4462e-13 0)
(2 1.92063e-13 0)
(1.8356 0.224528 0)
(1.83352 0.228812 0)
(2 2.59757e-13 0)
(2 6.61484e-14 0)
(2 -6.4546e-14 0)
(2 2.54616e-13 0)
(1.84756 0.214054 0)
(2 1.89642e-13 0)
(1.94467 0.0731319 0)
(2.10866 -0.263952 0)
(2 -2.70349e-08 0)
(2 3.50076e-13 0)
(2 -1.11726e-13 0)
(2 -2.46625e-13 0)
(2 -2.13569e-13 0)
(2 2.71857e-15 0)
(2 -1.52179e-13 0)
(1.98442 0.020107 0)
(2 5.40468e-14 0)
(2 -2.22267e-14 0)
(1.9046 0.128199 0)
(2 -4.83527e-14 0)
(2 -1.32559e-15 0)
(2 -1.12375e-13 0)
(1.86099 0.194229 0)
(2 -1.90221e-14 0)
(2 -1.24202e-13 0)
(2 -2.96557e-13 0)
(2 -1.42133e-13 0)
(2.11808 -0.267451 0)
(2 1.02462e-12 0)
(2 -7.35971e-14 0)
(2.11913 -0.282881 0)
(2.12069 -0.263672 0)
(2 -2.31109e-13 0)
(2 -5.74377e-14 0)
(1.83191 0.228816 0)
(2 1.19164e-14 0)
(1.98695 -0.0271262 0)
(2 2.03307e-14 0)
(2 4.38038e-14 0)
(2 7.14447e-14 0)
(1.88172 0.169271 0)
(2.13552 -0.26206 0)
(2 -2.03236e-13 0)
(2.13242 -0.272736 0)
(2 -5.0934e-14 0)
(2.08167 -0.147319 0)
(2 -4.39193e-14 0)
(2 -1.61015e-14 0)
(2 -4.60921e-14 0)
(1.83105 0.228231 0)
(2 -4.03401e-08 0)
(2 -1.79982e-13 0)
(1.83203 0.229134 0)
(2 -2.08278e-13 0)
(2 -3.90529e-11 0)
(2 1.76228e-09 0)
(1.83216 0.229029 0)
(2 2.2551e-10 0)
(2 -3.37148e-13 0)
(1.83216 0.229241 0)
(2 6.99876e-14 0)
(2 3.68673e-14 0)
(2.1371 -0.262399 0)
(2 -1.69623e-11 0)
(1.94547 0.0800575 0)
(2 -4.4796e-14 0)
(2 -1.72594e-14 0)
(1.83125 0.2289 0)
(1.82946 0.229244 0)
(1.88847 0.159804 0)
(1.84476 0.206968 0)
(2 -2.27936e-14 0)
(2.14128 -0.259074 0)
(2 -7.63527e-14 0)
(2 -1.05286e-13 0)
(1.83912 0.219889 0)
(2 6.2276e-14 0)
(2.0969 -0.274981 0)
(2 -5.20425e-14 0)
(2 1.16051e-13 0)
(2 -1.48956e-13 0)
(1.83157 0.229067 0)
(2 5.42684e-14 0)
(2 4.95299e-14 0)
(2 -1.95649e-14 0)
(2 1.11245e-13 0)
(1.89904 0.14989 0)
(2 -1.61749e-13 0)
(1.83444 0.229405 0)
(1.82833 0.230153 0)
(2.11417 -0.26402 0)
(2 -2.10548e-13 0)
(2 -1.8368e-13 0)
(2.12845 -0.264042 0)
(2.12873 -0.264061 0)
(2 2.00234e-13 0)
(2 1.85795e-13 0)
(2 -6.09669e-12 0)
(1.88173 0.171011 0)
(1.87336 0.182557 0)
(2 -5.87557e-15 0)
(2 -1.24035e-13 0)
(2 -7.00719e-14 0)
(2 1.02521e-13 0)
(2 -1.18972e-14 0)
(2 -6.02093e-14 0)
(2 -5.49077e-14 0)
(1.92196 0.112993 0)
(1.83075 0.228697 0)
(1.99434 0.00857438 0)
(2 -2.71103e-14 0)
(1.83388 0.226594 0)
(2.11519 -0.264741 0)
(2 2.32333e-13 0)
(2 2.64127e-13 0)
(2 2.17396e-15 0)
(1.90773 0.134368 0)
(2 2.91729e-15 0)
(1.96605 0.0526606 0)
(2 -3.51992e-14 0)
(1.8438 0.211927 0)
(1.83231 0.227198 0)
(2 -7.30662e-14 0)
(2.13557 -0.263865 0)
(2 -2.03664e-13 0)
(1.83162 0.228894 0)
(2 -2.80995e-14 0)
(2 -1.67614e-13 0)
(1.83102 0.228781 0)
(1.84319 0.217289 0)
(2 4.49005e-14 0)
(1.82779 0.227318 0)
(2 -3.0018e-13 0)
(2.11436 -0.267286 0)
(2 -9.83703e-14 0)
(2 -3.43041e-13 0)
(2 -9.23873e-14 0)
(1.83035 0.233571 0)
(1.83361 0.223946 0)
(1.8491 0.204526 0)
(2 1.79936e-13 0)
(1.82979 0.22869 0)
(1.83157 0.228509 0)
(2 -1.78503e-14 0)
(1.83122 0.229354 0)
(2 -9.503e-09 0)
(1.83321 0.227557 0)
(2 -8.70436e-14 0)
(2.10202 -0.267423 0)
(2.00549 -0.0124449 0)
(2.10956 -0.26943 0)
(2 -3.12517e-11 0)
(2 -2.48909e-11 0)
(2 -3.43407e-11 0)
(2 -1.8691e-13 0)
(2 -1.23475e-11 0)
(1.83203 0.228831 0)
(2 -9.36523e-15 0)
(1.83203 0.228792 0)
(2 -3.70413e-11 0)
(2 -8.22971e-11 0)
(2 -1.72973e-14 0)
(1.83875 0.219637 0)
(2 2.1226e-13 0)
(2.11165 -0.259758 0)
(1.83192 0.229038 0)
(2 -4.01088e-14 0)
(2.10469 -0.264935 0)
(2.12581 -0.240777 0)
(2.12652 -0.260178 0)
(2 -5.674e-14 0)
(1.91746 0.12271 0)
(1.98543 0.0210819 0)
(1.83127 0.229483 0)
(1.83146 0.228554 0)
(2 -4.8594e-14 0)
(2 -3.35005e-07 0)
(2 -7.60358e-08 0)
(2 -3.94955e-13 0)
(1.83138 0.228928 0)
(2 2.03833e-14 0)
(2 2.34594e-13 0)
(1.83142 0.228971 0)
(1.8316 0.228471 0)
(2 -3.41644e-14 0)
(1.92628 0.084821 0)
(1.99963 0.000832209 0)
(2 3.62616e-14 0)
(2.00121 -0.0019907 0)
(1.82834 0.228404 0)
(2.04705 -0.109819 0)
(2 -1.23592e-07 0)
(2.05013 -0.122605 0)
(2.10836 -0.263754 0)
(2.10734 -0.261855 0)
(1.97857 -0.0589612 0)
(1.83234 0.229377 0)
(1.83553 0.226553 0)
(1.96443 0.056247 0)
(1.83197 0.229373 0)
(1.8313 0.22895 0)
(2 1.20196e-13 0)
(2 1.45375e-13 0)
(1.82577 0.228268 0)
(1.82937 0.228664 0)
(1.82923 0.228132 0)
(1.829 0.227161 0)
(2 -4.52566e-13 0)
(1.83138 0.228067 0)
(2.081 -0.260988 0)
(1.82905 0.231482 0)
(1.83047 0.229287 0)
(1.82946 0.227974 0)
(1.83113 0.228339 0)
(2.05398 -0.0950539 0)
(2.03693 -0.06365 0)
(2.01641 -0.0542063 0)
(1.83209 0.229287 0)
(2.00614 -0.0349649 0)
(1.8314 0.228501 0)
(2 -4.49243e-14 0)
(2 -7.1852e-14 0)
(1.8309 0.229344 0)
(1.83102 0.228809 0)
(2 -2.22579e-13 0)
(2.1261 -0.260313 0)
(1.83032 0.226579 0)
(1.83183 0.228737 0)
(2 -1.37272e-13 0)
(1.83134 0.229289 0)
(1.83224 0.228592 0)
(2 4.81655e-14 0)
(1.83169 0.228863 0)
(2.11953 -0.274011 0)
(1.83039 0.229902 0)
(1.82749 0.228071 0)
(1.83158 0.229041 0)
(1.83089 0.228196 0)
(2 -2.82281e-13 0)
(2 -2.2223e-13 0)
(2 -1.08719e-07 0)
(1.83208 0.228773 0)
(1.89067 0.156027 0)
(2.10053 -0.249996 0)
(1.83207 0.228984 0)
(2.11495 -0.279041 0)
(1.83208 0.228833 0)
(2 -7.2447e-14 0)
(2 9.89208e-14 0)
(2 3.98289e-14 0)
(2 5.83452e-14 0)
(1.83073 0.23115 0)
(1.83175 0.229126 0)
(2 1.61666e-13 0)
(2 1.42624e-13 0)
(1.8315 0.228989 0)
(2.121 -0.266079 0)
(1.83107 0.229791 0)
(2.10565 -0.263889 0)
(2 1.58033e-14 0)
(1.83173 0.226519 0)
(2 -1.50685e-13 0)
(2.11609 -0.265938 0)
(1.83102 0.229802 0)
(2.10446 -0.187169 0)
(2 1.44061e-13 0)
(1.83181 0.22874 0)
(1.83035 0.230264 0)
(1.83149 0.228173 0)
(2 -3.19898e-13 0)
(2 -7.49966e-14 0)
(1.9203 0.122434 0)
(1.83079 0.229864 0)
(2.11438 -0.269644 0)
(1.83148 0.228984 0)
(2 5.53546e-14 0)
(1.83222 0.229347 0)
(2.04447 -0.0900778 0)
(1.83111 0.229265 0)
(2.12626 -0.256399 0)
(2 -6.91998e-14 0)
(1.83185 0.229523 0)
(2.10943 -0.234083 0)
(1.83124 0.229492 0)
(2.1118 -0.264569 0)
(2 -9.76903e-14 0)
(1.8316 0.229052 0)
(2 3.98723e-14 0)
(1.83103 0.229319 0)
(2 -2.89625e-13 0)
(1.89754 0.144432 0)
(1.8397 0.22271 0)
(1.86396 0.186371 0)
(2.12408 -0.276363 0)
(2 7.86869e-14 0)
(1.83122 0.228862 0)
(2 -6.65626e-14 0)
(1.83197 0.228853 0)
(2 -1.14685e-07 0)
(1.83139 0.229035 0)
(2 -2.31248e-07 0)
(2 -3.27574e-13 0)
(1.83121 0.228544 0)
(2.00852 -0.00813005 0)
(1.83039 0.229956 0)
(2.11271 -0.267832 0)
(1.86043 0.190999 0)
(2 -1.19094e-13 0)
(1.88303 0.170055 0)
(2 -2.49964e-13 0)
(1.83089 0.228394 0)
(1.83133 0.229 0)
(1.83159 0.228557 0)
(2 -1.77219e-13 0)
(1.84566 0.206056 0)
(1.8314 0.229372 0)
(1.84194 0.2137 0)
(1.89526 0.152223 0)
(1.8385 0.22749 0)
(2 -1.47924e-13 0)
(1.88991 0.159775 0)
(2 -2.94369e-13 0)
(1.83085 0.229329 0)
(2 -1.49243e-13 0)
(1.97317 0.0332187 0)
(2 2.47773e-13 0)
(1.84374 0.215927 0)
(2 1.19033e-13 0)
(1.83221 0.229238 0)
(1.8373 0.219674 0)
(1.8366 0.218161 0)
(2 -2.79274e-14 0)
(1.83019 0.232471 0)
(2.11669 -0.261047 0)
(2 -1.4907e-13 0)
(2.13915 -0.26281 0)
(2 -7.15114e-14 0)
(2 5.74209e-15 0)
(2 1.14194e-13 0)
(1.82932 0.228429 0)
(2 6.99264e-14 0)
(1.83128 0.229349 0)
(2 1.01745e-14 0)
(2 -9.68637e-14 0)
(2 -1.08828e-13 0)
(1.83117 0.229337 0)
(1.83367 0.225911 0)
(1.86923 0.188876 0)
(1.83 0.229654 0)
(1.8302 0.229966 0)
(2.11323 -0.263379 0)
(1.83269 0.228205 0)
(1.83456 0.22928 0)
(2 7.44989e-14 0)
(1.85406 0.199817 0)
(1.8314 0.22893 0)
(1.84005 0.227202 0)
(2 1.16936e-13 0)
(1.83206 0.228921 0)
(1.82998 0.228623 0)
(2 -2.74711e-13 0)
(1.82796 0.230848 0)
(1.83114 0.228694 0)
(1.83099 0.228859 0)
(1.83128 0.229611 0)
(2 -2.16776e-13 0)
(2 -2.07653e-16 0)
(2 9.11873e-14 0)
(1.83179 0.228676 0)
(2.11447 -0.275914 0)
(2 3.54621e-14 0)
(1.83178 0.229103 0)
(2 -1.10404e-14 0)
(2 7.42635e-14 0)
(2.12163 -0.263721 0)
(2 -1.76481e-13 0)
(2 -2.31569e-14 0)
(1.83048 0.229212 0)
(1.83179 0.229331 0)
(2 -2.01033e-13 0)
(1.83137 0.228975 0)
(1.83064 0.232742 0)
(1.83004 0.228556 0)
(2.0085 -0.0133337 0)
(1.83199 0.228629 0)
(2 -2.92559e-14 0)
(1.83193 0.228666 0)
(1.83232 0.228925 0)
(1.87097 0.178647 0)
(2 5.23994e-14 0)
(2 -2.17075e-14 0)
(2 -5.10222e-14 0)
(1.83086 0.229769 0)
(1.83115 0.228893 0)
(1.82965 0.228759 0)
(2.02106 -0.04304 0)
(2 -6.91599e-14 0)
(1.82888 0.231813 0)
(1.83123 0.228951 0)
(1.83152 0.228932 0)
(2 -1.82156e-13 0)
(1.83127 0.228887 0)
(1.83129 0.229543 0)
(1.83291 0.228945 0)
(1.82832 0.23228 0)
(2 -9.74709e-14 0)
(1.83158 0.228681 0)
(1.8342 0.231491 0)
(1.85341 0.203054 0)
(1.83196 0.229762 0)
(1.8289 0.231314 0)
(2 1.62756e-14 0)
(1.82934 0.233085 0)
(1.83449 0.226921 0)
(1.83187 0.228922 0)
(1.83004 0.230872 0)
(1.83202 0.228845 0)
(2.12253 -0.265008 0)
(1.83116 0.22883 0)
(1.83133 0.230257 0)
(2 -3.99367e-14 0)
(1.83012 0.228584 0)
(1.83143 0.229213 0)
(1.83031 0.228466 0)
(1.83139 0.22858 0)
(2 -4.8914e-08 0)
(1.83082 0.22863 0)
(1.83407 0.229979 0)
(2 -1.6793e-07 0)
(1.83213 0.22882 0)
(1.8546 0.198782 0)
(2 -6.1693e-14 0)
(2 5.74266e-14 0)
(2 6.192e-10 0)
(1.83115 0.230212 0)
(1.83096 0.228639 0)
(2 8.23054e-14 0)
(2 1.06971e-13 0)
(1.90912 0.131188 0)
(2 -3.2827e-13 0)
(1.83168 0.228509 0)
(2 -7.80994e-14 0)
(2 3.29028e-14 0)
(1.83151 0.229043 0)
(1.83075 0.229541 0)
(1.83154 0.228705 0)
(1.83136 0.228731 0)
(2 2.65197e-14 0)
(2 -2.84205e-14 0)
(2 -1.25015e-14 0)
(1.8857 0.167685 0)
(2 1.59781e-13 0)
(1.83126 0.228941 0)
(2 -3.32236e-13 0)
(2 -2.85029e-13 0)
(1.82593 0.228144 0)
(1.82725 0.228388 0)
(2 5.27815e-14 0)
(1.83109 0.229087 0)
(2.11231 -0.279495 0)
(1.83176 0.228899 0)
(1.83111 0.229608 0)
(2.09944 -0.208954 0)
(2 -5.85446e-14 0)
(2.11838 -0.277585 0)
(1.85223 0.204875 0)
(1.83213 0.22936 0)
(1.82882 0.228023 0)
(1.82916 0.22815 0)
(2.12263 -0.262451 0)
(1.83141 0.229234 0)
(1.83127 0.229269 0)
(2.12332 -0.262182 0)
(2.12511 -0.275778 0)
(2 -2.58767e-07 0)
(1.83129 0.229068 0)
(1.83189 0.228846 0)
(2 -2.534e-14 0)
(2 9.14733e-15 0)
(1.82926 0.228037 0)
(2 -2.88749e-13 0)
(1.83427 0.228761 0)
(2 2.43069e-06 0)
(1.84896 0.204674 0)
(2 -5.59199e-14 0)
(1.91401 0.117622 0)
(1.83168 0.229148 0)
(1.83045 0.230088 0)
(1.88084 0.172886 0)
(1.85643 0.207414 0)
(1.83244 0.229569 0)
(1.83102 0.229576 0)
(1.84796 0.22158 0)
(2 -1.7959e-14 0)
(2.1191 -0.263334 0)
(1.82999 0.229834 0)
(1.83184 0.229138 0)
(1.82917 0.231047 0)
(2 6.79742e-06 0)
(2 3.92495e-10 0)
(2 1.55712e-09 0)
(1.8295 0.228806 0)
(2 -1.14501e-13 0)
(1.83185 0.229107 0)
(1.83196 0.228911 0)
(2.08951 -0.176282 0)
(2 -3.92641e-14 0)
(1.83379 0.22983 0)
(2.00002 -3.77316e-05 0)
(2 -7.89937e-15 0)
(1.99999 2.01083e-05 0)
(1.99998 2.54677e-05 0)
(1.83186 0.228998 0)
(1.83095 0.228741 0)
(2.00054 -0.00085847 0)
(2 5.26976e-14 0)
(2 -4.70376e-15 0)
(1.83158 0.228468 0)
(1.83062 0.229902 0)
(1.8317 0.22837 0)
(1.8311 0.228935 0)
(1.83026 0.228627 0)
(2.11779 -0.25336 0)
(1.86417 0.202495 0)
(2 1.1426e-13 0)
(1.8318 0.226283 0)
(1.83168 0.228877 0)
(1.83188 0.2288 0)
(1.83525 0.228088 0)
(2 -1.46632e-13 0)
(1.83133 0.229069 0)
(1.83574 0.224106 0)
(1.83088 0.229438 0)
(2 -1.64108e-13 0)
(1.83114 0.228347 0)
(1.83119 0.229681 0)
(2.05519 -0.0903481 0)
(1.83141 0.229138 0)
(1.83116 0.228391 0)
(2 1.88676e-14 0)
(1.8314 0.228583 0)
(2.06553 -0.103598 0)
(1.83101 0.228817 0)
(2.0444 -0.0959212 0)
(1.83143 0.22897 0)
(2 -1.11246e-07 0)
(1.83124 0.228362 0)
(1.8241 0.233633 0)
(1.83135 0.228943 0)
(1.83135 0.229085 0)
(1.8317 0.228587 0)
(1.82951 0.228106 0)
(1.83125 0.229174 0)
(1.82929 0.2274 0)
(2 -2.08622e-13 0)
(2.01894 -0.0460392 0)
(1.83107 0.228804 0)
(1.83212 0.229319 0)
(2.06207 -0.10476 0)
(1.83152 0.228905 0)
(2.00099 -0.0121491 0)
(1.89738 0.148951 0)
(1.83117 0.228862 0)
(1.83025 0.228529 0)
(1.82986 0.230644 0)
(2 4.30713e-14 0)
(1.83043 0.230051 0)
(1.88915 0.157341 0)
(1.83057 0.229884 0)
(2.0317 -0.0452065 0)
(1.83047 0.229852 0)
(1.82577 0.229148 0)
(2 -7.61081e-14 0)
(2.04626 -0.0849386 0)
(2 -4.43043e-09 0)
(1.83674 0.221726 0)
(2 1.62721e-13 0)
(1.88939 0.169277 0)
(2 3.88913e-09 0)
(1.82723 0.22647 0)
(2.04016 -0.0836996 0)
(2 1.84428e-14 0)
(1.82838 0.227315 0)
(1.82757 0.230203 0)
(2 -1.69104e-13 0)
(1.82957 0.230707 0)
(1.83148 0.22983 0)
(1.83089 0.232919 0)
(1.83939 0.227999 0)
(1.83498 0.231551 0)
(2 -3.47284e-13 0)
(1.83012 0.229179 0)
(2 1.09613e-13 0)
(2 -1.70882e-13 0)
(2 -3.13621e-14 0)
(2.02852 -0.0661553 0)
(1.83208 0.229312 0)
(1.83116 0.228749 0)
(1.83162 0.230087 0)
(1.83114 0.229105 0)
(1.83495 0.226603 0)
(1.82992 0.229005 0)
(1.82682 0.226193 0)
(1.83127 0.229255 0)
(2.02239 -0.0680086 0)
(1.98806 0.0213189 0)
(2 3.38005e-09 0)
(2 -4.01822e-14 0)
(1.82393 0.235171 0)
(1.83126 0.229229 0)
(1.83198 0.228911 0)
(1.83161 0.228771 0)
(1.99999 1.6717e-05 0)
(1.91845 0.121351 0)
(2 -1.65095e-07 0)
(1.82862 0.230683 0)
(1.86325 0.202812 0)
(2 -2.43319e-12 0)
(2 -4.78313e-11 0)
(2.08244 -0.196461 0)
(1.8338 0.22895 0)
(2 -3.66394e-14 0)
(2 3.57806e-15 0)
(2.08284 -0.259361 0)
(1.83164 0.228732 0)
(2 -4.25836e-14 0)
(1.83422 0.229171 0)
(1.83415 0.229915 0)
(1.83306 0.22909 0)
(1.83819 0.220164 0)
(1.8315 0.228348 0)
(2 -1.67803e-10 0)
(2.11962 -0.267811 0)
(1.95557 0.0672628 0)
(1.83124 0.228598 0)
(1.83199 0.228665 0)
(2 -2.00475e-13 0)
(1.83216 0.22919 0)
(1.83138 0.228803 0)
(1.9154 0.130832 0)
(2.00009 0.0049948 0)
(1.96707 0.0602055 0)
(2 -2.48356e-13 0)
(1.8315 0.228915 0)
(1.83165 0.228898 0)
(2 -1.16833e-07 0)
(2 -2.2578e-10 0)
(2.12073 -0.263063 0)
(2 -2.41938e-10 0)
(2 -2.86221e-13 0)
(1.83132 0.229003 0)
(1.83129 0.229233 0)
(1.83129 0.22822 0)
(1.8319 0.228657 0)
(1.83105 0.229082 0)
(1.82801 0.230042 0)
(1.83138 0.22927 0)
(1.83134 0.228742 0)
(1.83135 0.22891 0)
(2 1.32709e-13 0)
(2.0017 -0.00254077 0)
(1.8308 0.229005 0)
(1.83162 0.228554 0)
(2.00118 -0.00164657 0)
(1.83171 0.229099 0)
(1.83261 0.228727 0)
(2.12051 -0.262107 0)
(2.11339 -0.265346 0)
(1.83127 0.228887 0)
(1.83582 0.229745 0)
(2 -9.4811e-14 0)
(2 2.30425e-13 0)
(1.99954 0.00203431 0)
(1.83134 0.228742 0)
(1.83168 0.227994 0)
(1.83159 0.228561 0)
(2 1.05384e-09 0)
(1.83095 0.229042 0)
(2 -5.75192e-14 0)
(2.04143 -0.0949703 0)
(1.82864 0.231503 0)
(1.83404 0.229187 0)
(2 -1.47077e-13 0)
(1.92419 0.117236 0)
(1.83158 0.22922 0)
(2 -3.3258e-15 0)
(1.82848 0.229652 0)
(2 -9.93352e-11 0)
(1.82915 0.228404 0)
(1.88742 0.152045 0)
(1.83273 0.228036 0)
(2 1.36095e-11 0)
(1.83141 0.229784 0)
(1.83087 0.23249 0)
(2.1211 -0.262971 0)
(1.83013 0.228091 0)
(2 -1.3905e-07 0)
(1.83047 0.229765 0)
(1.83043 0.22804 0)
(2 7.18715e-09 0)
(2.11796 -0.26335 0)
(1.8339 0.2287 0)
(1.84708 0.215928 0)
(2.00081 -0.00084462 0)
(1.84828 0.223587 0)
(1.83347 0.22901 0)
(2 -4.80758e-12 0)
(1.99956 -0.00784305 0)
(1.82912 0.232119 0)
(2.00236 -0.00124722 0)
(1.83087 0.228682 0)
(2 -3.13486e-12 0)
(2 2.28938e-13 0)
(1.83085 0.230121 0)
(2 -3.7372e-14 0)
(1.83031 0.230255 0)
(1.83247 0.228968 0)
(2.00135 -0.00214315 0)
(1.86148 0.188697 0)
(2 3.08545e-09 0)
(1.83319 0.228954 0)
(2 7.30215e-10 0)
(2 -5.33188e-13 0)
(2 1.10463e-11 0)
(2 6.45824e-12 0)
(1.83174 0.228642 0)
(2 7.08781e-09 0)
(2 4.61237e-14 0)
(1.82826 0.22251 0)
(2 9.86581e-14 0)
(1.83084 0.22842 0)
(2 2.74833e-10 0)
(1.88458 0.152745 0)
(1.83381 0.229657 0)
(1.83133 0.22921 0)
(2 9.94324e-10 0)
(2 -2.54872e-13 0)