/*--------------------------------*- C++ -*----------------------------------*\
  =========                 |
  \\      /  F ield         | OpenFOAM: The Open Source CFD Toolbox
   \\    /   O peration     | Website:  https://openfoam.org
    \\  /    A nd           | Version:  12
     \\/     M anipulation  |
\*---------------------------------------------------------------------------*/
FoamFile
{
    format      ascii;
    class       volScalarField;
    location    "5.12";
    object      p;
}
// * * * * * * * * * * * * * * * * * * * * * * * * * * * * * * * * * * * * * //

dimensions      [1 -1 -2 0 0 0 0];

internalField   nonuniform List<scalar> 
22702
(
1
1
0.877205
1
1.05515
1
1.4692
1
1
0.618374
1.47161
1.46463
1
1.47231
0.892878
1
1
1
1.47184
1
1.47203
1
1.47379
0.649776
1.46761
0.665648
1
1.47305
0.628398
0.649704
1
1.46447
1
1
1
1.43551
1.47245
1.47343
1
1
0.622137
1
1.22719
1
1.47304
1
1
1
1
0.653637
1
0.653413
1
1.4716
1
1.46914
1
1
1
1
0.66606
1
1
0.644486
1
0.659475
1
1
1
0.622014
1
1.47037
1.28147
1
1.47051
1.49415
0.660435
1.46576
0.658943
1
1.47408
0.6536
1.47467
1.47574
1
1
1
1
0.933961
0.616747
1.4732
1
1
0.653305
1
1.47162
0.660667
1
1
1
1
1.22394
1.47344
0.663159
1
1
1.11442
1
0.656989
1
1.46495
1.47011
1
1
0.666943
0.667475
0.61726
1
1
1
1
1
0.914279
1
1.40139
1.04014
1.46822
1
1.46762
1.47155
1.47164
1.47083
1
0.63026
1
0.695385
1
1
1
1
1.4703
1
1
1
1
1.4735
1
1.0248
1
1
1
1
0.653314
1
1.01039
1
0.659792
1
1
1
1.4714
1
1.47184
0.641256
0.661534
1.4693
1.47021
1
1.07109
1.26675
1
1.47845
0.659504
1.43611
1
1
1
1
1.47304
1.39178
1
1.47104
0.666811
1.47637
1
0.671197
1
0.649904
0.660466
0.999785
1
1
1.47118
1
1
1.47118
1
1.47186
1.47081
0.662459
1
1
0.658804
1.47187
1
1
1
1.47204
1
0.658129
1
1
1.47163
1.47183
1.46788
1
1.00004
1
1
1
1.46922
1
0.678292
1.48538
1.47136
1.46986
1
1
1
0.647508
1.4704
1.21499
1
1.47282
0.65901
0.658426
1.47287
1.46875
1
1.47973
0.653173
1.41582
1
1
1
1
1.47157
1
1.26962
1.0432
1
1
1.47198
0.68369
0.791799
1
1.47443
0.649774
1.47796
1
1
1
1
1
1
1
0.655979
0.776834
0.659364
1.4719
1
1
1
1
1.41896
1
0.659205
1
0.639892
0.661822
1.4724
0.649891
1.47121
1
1
1
0.99768
0.669447
0.629767
0.999999
1
0.637967
1
1.47073
0.657678
1
1
1.47423
0.622412
1
1.46784
0.6603
1.47169
1
0.644411
0.997837
1
1
1
0.660616
1
1
1
1.00001
1.01762
1.28273
1
0.699469
1
1
1
1
1
1
1
1.47335
1
1.47293
1
1
1
0.669815
1
1.47344
0.65913
1
1.3481
1
1
1.47288
1
1
1
1.46493
1
1
1.45492
1.47149
1
1.09939
1
1
0.697603
1
1
1
0.655641
1
1
1
1
0.686466
1
1
1
1
1
0.637448
1.00007
1.4707
1
0.999962
1.46988
1.46941
1
1
0.664412
0.807586
1.46967
1
1
1
1.4713
0.630836
1
1.47143
1
1
0.69957
0.693401
1
0.663696
0.670062
1
1
1
1
1
1
1
1.4702
1.11483
1.43756
0.641945
0.911253
1.472
1
1.47149
1.46908
0.658841
0.78679
1
0.656147
1
1.48732
1
1
1
1
1.4718
1
1
1
1
1
1
1
1.16861
1.47247
1
1.47212
1
1
0.654719
1
1
1
1
1.47202
1.35709
1
1
0.667358
1.47075
1.47147
1
1.47142
1.47086
1.47203
1
0.820133
1
1.47098
0.983061
1.47189
1
0.657754
0.998968
1.47363
1
1
1
1
0.663744
1.47185
1.42558
1
1.47085
1.47112
1.47141
1
1.21831
1.46958
1
1
1.32244
1.06706
1.4718
0.936291
1.47188
1
1.47182
1.47159
1.47186
1.47047
1
1.44787
0.912722
0.879147
1
0.999999
1
1
1.47548
1
1
1
1
1
1.47144
1
1
0.996046
1.47141
1.42451
1
1.39647
1.00004
1
1
1.47034
1
0.996897
1.00468
1
1.47134
1
1.47046
1
1
1.34675
1
1.47184
1.00002
1
1.47492
1
1.47161
1
1
1
1.47146
1
1.46849
1.00001
1.47185
1.47215
1.47187
1.47445
1
1.47037
1.46895
1
0.650672
1.44128
1.33218
1
1.47153
1
0.694547
0.661477
1
1
1
1
1
0.652274
1
1.47188
1.12005
1.47026
1
1
1
1
1
1.47165
1
1.4789
1.27741
0.77335
1
1.00001
1.13318
1.11534
1
1
1.16349
1
0.657918
1.47248
1.47256
1
1
1
1.47153
1
1.00003
1.47754
1.4713
0.949147
1
1
0.654838
1.42795
1
1
1
1
1
1.47151
1.47001
1
1.47586
1.46898
1.47203
1
1
1
1
0.657171
1.46998
1
1
1.42796
1.47054
1
1.44342
1.4695
1
1
1
1
1
1.47155
1
1
1
1
1.47514
1
1.46861
0.660266
1
0.652202
1
1
1
0.996985
0.651214
0.999117
1
1
1
1.06144
1
1
0.868898
1
1
1
1
1
1
1
0.999997
0.933447
0.999999
1
0.997506
1
0.664835
1
1
1
1
1.351
1
1
1
1
0.66438
1
1
1.44317
1.47321
1
1
1
0.879157
1
1
1
1
1
1
0.955386
1.0165
1.47003
1
1
1
1.476
0.903355
1
1
1
1.47438
1.46762
1
1.00001
1
1
1
1
1
1
1
0.667896
1
1
1.47071
0.657011
1
1.47008
1
0.654747
1
1
0.663959
1
1
1
1
1
1
1
1.46194
1.47062
1
1
1
1
1.42935
1
1.13806
0.657147
1
1
1
1
1
1
1
1.04102
1
1
1.23704
1
1
1
1.38455
1
1
1
1
0.658621
1
1
0.655998
0.657985
1
1
1.47125
1
0.997319
1
1
1
1.32354
0.643721
1
0.636134
1
0.774024
1
1
1
1.47043
1
1
1.47062
1
1
1
1.47113
1
1
1.4712
1
1
0.657786
1
1.13724
1
1
1.47058
1.47264
1.31234
1.42002
1
0.659968
1
1
1.44976
1
0.661624
1
1
1
1.47174
1
1
1
1
1.27838
1
1.446
1.47285
0.620482
1
1
0.672572
0.671079
1
1
1
1.32859
1.35435
1
1
1
1
1
1
1
1.19937
1.47499
1.01494
1
1.46545
0.651829
1
1
1
1.25494
1
1.09143
1
1.42941
1.46945
1
0.657353
1
1.47331
1
1
1.4718
1.44131
1
1.47796
1
0.640734
1
1
1
1.47601
1.46207
1.41383
1
1.46989
1.47171
1
1.47262
1
1.46966
1
0.649949
0.965241
0.66977
1
1
1
1
1
1.47197
1
1.47195
1
1
1
1.44664
1
0.647326
1.47115
1
0.663371
0.662069
0.653934
1
1.22772
1.03708
1.47373
1.47162
1
0.999999
1
1
1.47133
1
1
1.47148
1.47141
1
1.15727
1.00016
1
0.996756
1.46821
0.8433
1
0.830425
0.662923
0.653538
0.934364
1.4732
1.46523
1.09265
1.47219
1.47159
1
1
1.46996
1.47135
1.47176
1.47168
1
1.47158
0.658996
1.4762
1.47084
1.47005
1.47031
0.859262
0.897196
0.932622
1.47135
0.958254
1.4699
1
1
1.47372
1.47172
1
0.655112
1.47018
1.47104
1
1.47283
1.47249
1
1.47152
0.664955
1.47572
1.47328
1.4694
1.46802
1
1
1
1.47096
1.3033
0.699804
1.47097
0.667512
1.47094
1
1
1
1
1.47335
1.47102
1
1
1.47108
0.669325
1.47213
0.662611
1
1.46881
1
0.621543
1.47302
0.734047
1
1.47148
1.4741
1.46988
1
1
1.21171
1.47336
0.656629
1.47119
1
1.47375
0.884064
1.47091
0.667793
1
1.47196
0.677026
1.47329
0.657466
1
1.47179
1
1.47168
1
1.27047
1.45351
1.3678
0.655508
1
1.47104
1
1.47061
1
1.4719
1
1
1.47058
0.976879
1.47436
0.616524
1.41832
1
1.33371
1
1.47087
1.47146
1.47025
1
1.42259
1.47184
1.43572
1.28816
1.47136
1
1.3098
1
1.4706
1
1.05662
1
1.43646
1
1.47219
1.44875
1.44759
1
1.47045
0.662071
1
0.661329
1
1
1
1.46555
1
1.47257
1
1
1
1.47245
1.45964
1.38198
1.47244
1.47499
0.651471
1.46394
1.47166
1
1.39156
1.47094
1.46587
1
1.47759
1.46731
1
1.47964
1.47276
1.47122
1.4731
1
1
1
1.47095
0.684069
1
1.47205
1
1
0.665113
1
1
1.47142
1.47193
1
1.47155
1.47204
1.47212
0.965236
1.4714
1
1.47147
1.47146
1.37569
1
1
1
1.47315
1.47194
1.47059
0.933127
1
1.47755
1.47198
1.47071
1
1.47179
1.47083
1.47189
1.47794
1
1.47208
1.47649
1.40457
1.47276
1.47611
1
1.47798
1.46655
1.47081
1.47576
1.47025
0.654546
1.47154
1.47303
1
1.47179
1.47095
1.47227
1.47195
1
1.47085
1.47157
1
1.47108
1.39354
1
1
1
1.47509
1.46469
1
1
1.24574
1
1.46943
1
1
1.47153
1.47304
1.47149
1.47154
1
1
1
1.32905
1
1.46983
1
1
1.46785
1.47325
1
1.47136
0.646815
1.47166
1.47362
0.721328
1
0.650372
1.40677
1.47265
1.47421
1.47145
0.659996
1.47205
1.47317
0.66291
0.65772
1
1.47168
1.47103
1
1
1.47136
1
1.46982
1
1.41024
1
1.20904
1.47101
1.47409
1.33004
1.42288
1.46817
1.47198
1.44264
1
0.65251
1.47496
1.47201
1.47727
1.00001
1
1
1.47186
1
1.47195
1.47112
0.745564
1
1.47221
0.999936
1
1.00003
1.00004
1.47177
1.47229
0.998465
1
1
1.46947
1.47357
1.46933
1.47434
1.47063
0.675654
1.42146
1
1.46865
1.47166
1.47168
1.46683
1
1.47146
1.45894
1.47322
1
1.47167
1.47449
0.85144
1.4712
1.47202
1
1.4738
0.832582
1.47165
0.855413
1.47169
1
1.47102
1.48687
1.47143
1.47203
1.47064
1.46825
1.47254
1.47021
1
0.926876
1.47127
1.47128
0.83975
1.47096
0.984134
1.30566
1.47124
1.46995
1.47576
1
1.47413
1.3012
1.47203
0.918166
1.47404
1.47887
1
0.865118
1
1.47025
1
1.32043
1
1.44645
0.866568
1
1.47121
1.47054
1
1.47188
1.4741
1.48018
1.46682
1.47704
1
1.47467
1
1
1
0.898469
1.47107
1.47268
1.47709
1.47116
1.46771
1.47501
1.46948
1.47227
0.904095
1.03195
1
1
1.48467
1.47215
1.47143
1.47145
1.00003
1.2364
1
1.47884
1.41391
1
1
0.735703
1.47136
1
1
0.661208
1.47142
1
1.47372
1.47236
1.4683
1.45338
1.47084
1
0.659049
1.10841
1.471
1.4714
1
1.4741
1.47173
1.22137
1.01115
1.10385
1
1.47235
1.47164
1
1
0.6595
1
1
1.47113
1.47191
1.47141
1.46953
1.47224
1.47295
1.47218
1.46902
1.4722
1
0.996512
1.47213
1.46997
0.997095
1.47177
1.47161
0.666731
0.620088
1.47246
1.46506
1
1
1.002
1.47216
1.47146
1.47135
1
1.47152
1
0.865998
1.47879
1.46775
1
1.20262
1.47115
1
1.47174
1
1.47193
1.31228
1.46971
1
1.4723
1.46225
0.660534
1.4716
1
1.47338
1.47543
1
0.66778
1.47368
1.41268
0.997841
1.46145
1.47132
1
0.998848
1.47343
0.99856
1.47148
1
1
1.47218
1
1.4751
1.47184
0.996521
1.36189
1
1.47185
1
1
1
1
1.47147
1
1
1.4722
1
1.47199
1
1.29323
1.47685
1.4731
1
1
0.999253
1
1.47289
1.47152
1.47328
1.47203
1.47264
1.47368
1.47194
1
1.47208
1.4708
1
1.47306
1.47153
1
1.46973
0.92719
1.05427
1.47234
1.47195
1.47131
1
1.47188
1
1.47143
1.47235
1
1.47277
1
1
1
1
1.47086
0.660797
0.997922
1
1.47196
1.47624
1
1.47074
1
1.00528
0.653313
1.47085
0.999575
1
1.47483
0.998362
1.47285
1
0.999789
1
1.47509
1.47738
1.4723
1.47297
0.65442
1.47147
1.47396
1.47107
1.11015
1
1
1.20265
1.4718
0.653253
0.650955
1
1.47199
1.47125
1.46852
1
1
1.4734
1.46953
0.99987
1
1.34027
0.648161
1
1.08277
1.47473
1.47215
0.998255
1.47146
1.47937
1
0.99933
1
1.47048
1.46847
1.18943
1
1.43799
1
1.00297
1.47182
0.625574
1.47027
1.47174
0.996931
0.999904
1.41474
1
0.999688
1
1.47305
1
1.00001
0.646482
1.47184
1.00001
1
1
1
1.47871
1.2649
1
1
0.664309
1.47022
1.2666
1
1
1
1.44865
1.47031
1.472
1
1
1.47191
1
1.47116
1.47177
1
1
1.47355
1.47146
1.44595
1
1
1.47344
1.47322
1
1
1
1.47343
1
1
1
1.46988
1.47079
1.47276
1
1.47814
1.00003
0.704794
1.47053
1.4715
1
1.47246
1.45487
1.46563
1
1
1.47519
1
1.24684
1.47216
1
0.665901
1
1.47429
1
1
1.47726
1
1
1
1.14325
1.47212
0.692218
1.00001
1.47336
1
1
1.47186
1
1.4755
1
1
1.47088
1.47205
1
1.00005
1
1
1
1
1
1
1.46822
1.47224
1
1.47438
0.663801
1.46703
1
1.47271
1.47734
1.47088
1.47373
1.47992
1
1
1.47671
1
1.29087
1.47801
1.47121
1
1.47467
1.46584
1
1.417
1
1.47272
1.29799
1.47634
0.997643
1.46246
1.43018
1.47511
1.4722
1.03858
1.47089
1.47456
1
1.47109
1
1.47139
1
1
1
1
0.996376
1.47137
1.47142
1.40043
1
1.47571
1
1
1
0.673681
1
1.45598
1
1.42803
1.44855
1
1
1
1.44772
1.46778
1
1
1.46946
0.651273
1.069
1
1.4768
1.4714
1.4289
1.45679
1.47143
1
1.47246
1
1
1
1
1.47412
1.47281
1
1.45453
1.05107
1.4719
1.43886
1
1
1.44062
1
1
0.663125
1.33383
1
1
1.46779
1
1.47595
1.42353
1
1.42618
0.653678
1.47205
1.4721
1.47282
1
0.658002
1
1
1
1.47171
1.37534
1
1.47875
1.47116
1
1.4719
1
1
1
1
1.4712
0.999362
1
1.47408
1
1
1.47061
1.47206
1
1.47709
1.0917
1.00002
1
1.47043
1
1.46988
1
1.01334
1.47157
1
1.47146
1
1
1.14311
1.47277
1
1
1
1
1
0.99599
0.652656
0.663255
1.01944
1
1.02581
1
1.02882
1
1.47156
1
1.27483
1
1.47098
1
1
1
1.4714
1
1.36119
1.47303
1
1.24658
1.47203
1
1
1.4653
1.47186
1
1
1.0478
0.656712
1
1.47239
1
1
1
1
1.07227
1.47215
1
1
1
0.650123
1
1.47099
1.47185
1.47765
1
1
1
1
1.23416
1.46988
1
1
1
1.47434
1.47203
1.04739
1
1
1
1.47055
1.47202
1
0.663477
1.47116
1.47176
1.47175
1.47351
1.46972
1
1
1.47895
1.46803
1.47135
0.646968
1.03937
1.47119
1
1
1
1
1
1.47157
0.652207
1
1
1.47114
1.20333
1
1.47761
1
1
1
0.669143
1
1
1.11375
1.47111
1.46967
1
1.46592
1.47303
1
1.07368
1
1.4808
1
1.47264
0.65195
1
1
1
1
1.4718
1.00005
1
1
1
1.44581
1
1
1
1
1.47205
0.66835
1.37008
1.47565
1
1.47104
1
1
1
0.997205
1
1.47674
1
0.803608
1
1
1.00004
1.46989
0.655155
1
1.47186
1
1.47006
1.47165
0.638851
1
1
1.46197
1
1
0.641894
1
1.47434
1
1.44975
0.999372
1.47313
1
1
1
1
1.47809
1
1
1.47114
1
1
1
1
1
1
1
1
1.30036
1
1.15048
1.47064
1
1
1
0.666374
1
1
1
1
1.46687
1.47169
1.05184
1
1
1.47281
1
1
1.47282
1
1.00002
1
1
1
1.00001
1.47282
0.781809
1.47181
1.4739
0.997008
1
1
1
1.27603
1
1
1.47119
1.47158
1
1
1
1
0.633579
1
1
1
1.298
1
1.47112
1.47382
1
1.47277
1
1
1
1.25374
1
1.47012
1
1.47218
1
1
0.996015
1.47158
1
1
1
1
1
1.46974
1.00002
1
0.662158
1.4766
0.680642
1
1.47078
1
0.996042
1
1.47166
1.47946
1
1.46131
0.882586
1.4707
1.47015
1.00003
1
1
0.662977
1
1
1
1.46929
1.27053
1.46935
1
1
1
1
0.996825
1.47039
1
0.664615
1
1
1
1
1
1
1
1.47877
1.47372
1.47712
1
1
0.996939
1
0.979214
1
1
1
0.654715
0.980792
1
0.661224
0.667465
1
1.47308
1.47147
1
1.47288
1.47182
0.667051
1.31081
1
1
1
0.665302
1.47108
1
0.666902
1
1.48053
1.07277
1
1
1
1
1.47087
1.47031
1
1
1.47196
1
1
1.47613
1.47146
1
1.43918
1.46938
1.47264
0.960181
1.4725
1.00879
0.662529
1.35995
1.47085
1
1
1
0.647585
1
0.654363
1.4793
0.956652
1.47216
0.950211
1
1.4733
1.21109
1
1
1.47436
1
1.19302
1.47367
1
1
1.46673
1.4663
0.661436
1.27442
0.999894
1
1.27226
1
1.47175
0.940819
1.48314
1.47071
1
1
1
1
1.47361
1
1
1.47457
0.999641
1.47298
1.3821
1.47409
0.65911
1
1
1
1
1.47282
1.00004
1.47118
1
1.47184
1.47007
1.05803
1.478
1.14534
1.47143
1
1.32048
0.68357
1.47125
1.47217
1.38414
1.07794
1.46984
1.47074
1.47249
1.47073
1
0.913781
1.06849
1
1.47158
1.21359
1.47282
1.00003
1
1
0.697214
1.47903
1.46948
1.38526
1
1.16812
1
1.47062
1.47083
1
1.47128
1.46974
1
1
1
1.47007
1
1.17879
1.47004
1.3211
1
1.47278
1
1
1
1
1
1
1
1
1
1
0.67038
1
1.4347
0.647561
1.27382
0.998573
1.47237
1
1.24467
1.00001
1.2971
1.39992
1
1.00286
1.48028
0.9137
1
1.46623
1.45574
0.939067
1
1.47336
1.47258
1.47341
1
1.47163
1.47382
1.47145
1
1.20937
1
1.00006
1.47302
1
1.47171
1.06497
1.46971
1
1
1.4699
1.46855
0.702403
1
1.46884
1.34953
1.47083
1
1
1.46936
1.46961
0.998244
1
1.40866
0.996856
1.46974
1.00006
1
1
1
1
1.20663
1
1.36457
1.47307
1.34516
1.47456
1
1.0038
1
1
1.47583
1
1.47162
1
1
1
1
0.999999
1
1.05605
1.24116
1
1
0.675666
1
1.47227
0.670474
1.47984
1
1.2337
0.999748
1.47172
1.2933
0.665942
1.25467
1.00003
1.47262
1.4742
1
1.27928
1.47655
1.47293
0.998402
1.46587
1.45725
0.659677
1
1
0.997812
1
1.46578
1
0.679807
1.47395
1
1
1.4244
1
1.47312
1
1.47041
1
0.684674
1
1
1.47271
1.46675
1.46829
1
1.46888
1.47077
1.46487
1
1
1.45712
0.999999
0.745472
1
1
1
1.47168
1
1.47069
1.2987
1.47018
1
1.47147
0.999373
1
1
1
1
1
1
0.706364
1
1
1.47126
1
1.47383
1.47725
1
0.653068
0.662446
1
1.47327
1.07423
0.65515
0.635457
1
1.47431
1
1.47453
0.649391
1.00117
1
1
0.999501
1
1
1
0.999915
1.19414
1.4711
1
1
1.4721
1.2701
1
1.41733
1.47073
1.4698
1.19454
1.47815
1
1.4716
1
1.45208
1
1.4767
1.4696
0.996648
1.47409
1.47891
1
1
1
1
1
0.912072
1.46899
1.00004
1.00003
0.656039
0.999983
0.67402
0.667651
1
1.47331
1.47202
1.47299
1
1.47175
1
0.66276
1
1
1.47401
0.822841
1.47357
1
1.47248
1
0.983791
1.46865
1
1
1
1.47514
1
1.47212
0.665076
1
1
1.27138
1
1
1.25549
1
1
1.47219
1
1
1
1
1
1.47586
1.4725
1
1.47201
1.4725
0.652537
1.21228
1.46882
1
1
1.42309
0.999023
1
1
1.47183
1.47458
1.32411
1
1.47162
0.666804
1.43019
0.99929
1
1.47449
1.00003
1.47075
1.38556
1.35867
1
1
1.47213
0.723033
0.648032
1
1.47075
1
1.47063
1
1.27832
1
1
1.47089
1.29879
0.669868
1
0.998246
1
1
1.02625
1.19233
1.47179
1
1.47599
1
1
1
1
1
1
1.06731
0.652725
1
1
1.03753
1
1
1
1
1
1.47023
1
1
1.47109
1.46961
1.33081
1
1
1
0.824102
1.47734
1.32675
1
1
1
1
1.47097
1
1
1
1.47207
1
1
1.3379
1.48957
1.03972
0.756111
1.47179
1.33069
1.46973
1
1.22491
1
1
1
0.642182
1.0028
0.61966
1
0.648716
0.639031
1
0.662197
1
1
1
1.20296
1
1.47045
1.47042
1.00161
1.22509
1.38842
0.640051
0.764144
0.884264
1
1.47156
1.47194
1.47149
1.47136
1.40075
0.87956
1
1.40537
1
1.45166
1
1
0.996603
1.00986
1
1
1
1.47123
1
0.67138
1
1.47308
0.669174
1
1
1.47128
1
1.47258
0.999736
1
1
1.47339
1.41432
1
1.48836
1
1
1.01467
1
1.19776
1
1
0.655833
1
1
1.47025
0.999999
1.47152
1
1.00003
0.663121
1
1
0.701807
1.00089
1
1.4716
0.684927
1.47061
0.664493
1.4699
1
1
1
1
1
1
1
1
1
1
1
1.45255
1
1.47383
1.47391
0.652533
1
1
1
1
1
1
1.45834
1
1
0.664866
1
1
1.4718
1
1
1.17617
1.3931
0.66613
0.653922
0.708479
0.742023
1
0.996468
0.675613
1.00029
1.42409
0.996976
1
1
1.47366
1
1
1
0.774694
1.00001
1.16698
1
1
1.18798
1.47102
1
0.659911
1
1
1
0.996624
1.00001
1.46839
1.47162
1
0.654633
1
1.25172
0.654165
1
0.886354
1
0.995905
0.637672
1
1
1
0.99561
0.631036
1
0.645977
0.998408
1.2395
1.42468
0.654289
0.663591
1
0.991987
1
0.998621
1
1.4724
1.47165
1
1.01612
1.47309
1.47105
1
1
1.47171
1
1
1.00004
1
1.47554
1
1
1.01768
1
0.998577
0.69218
1
1
1
1
1
1.47864
1.03783
1.00005
1
1
1
1
1
1.00003
1
0.648592
1.10839
0.998584
1.45131
1.47292
1
1.01771
1.47281
1.41028
1
1
0.636946
1.47195
1
1.47278
1
1.47028
1.32042
0.65127
1
0.651299
1.43334
0.999684
1
0.651879
0.652844
1
1
1.39494
1
0.999998
0.646654
1
1
1
1.1451
1
0.652751
1.47319
1
1
1
1
1.47201
1
1
1.47779
1.41963
1
1
1
1.47349
0.659601
1
1.47101
1.4722
1
1.37466
0.999999
1.00003
1
1
1.42917
1.01771
1
0.666825
1.26017
1
1
0.997702
1
1
1.47711
1
1
1.00003
1
1.4701
1
1
1
1
1
1
1
1.20226
1
1.47262
1
1
1.47253
1
1
1
1.47201
1.47662
1.0464
1
0.997506
1
1
1
1
1.47239
1
1
1.47052
0.660836
1
1
1
1
1
1
1.37829
1
1
1.46936
1.47106
1
1
1
1.47045
1.47422
1
0.999688
1.45957
1
1
1
1.00002
0.683056
1.03113
0.995918
0.996114
1
1
0.653078
1.47085
1
0.633396
1
1.46799
1.45192
0.666655
0.999407
1.47185
1.47022
1.47089
1
1
0.927245
1.41709
1.39243
0.636014
1
1
1
1.47363
1.47123
0.66042
0.997356
1
1.47161
0.689547
1
1.46915
0.658255
0.973956
1.00705
1
1.47761
1
1
1
1
1
1
1.0001
1.43697
1
1
1.47841
1
1
1
1.4714
1
0.647634
1
1
1
1.15512
1
1
1
1
1
0.786561
1
0.692072
1
1.47201
1.00007
0.870378
0.863813
1.00002
1.00361
1.23661
1
1
0.644077
1.47127
1.47222
1.47158
1
0.652578
0.650666
1
1.46972
1
1
1
1
1
1.00003
1
0.660993
1.3016
1
1
0.667001
0.981974
1.00001
1
1
1
0.63945
1
0.707942
1
1
1.47657
1
1
0.65838
1
1.47075
1
0.635613
1
0.654418
1
1.00766
1.47088
1.48415
1
1
1.47331
1
1
1.10492
0.996848
1
0.998143
1
1.47529
1
0.636179
1.00002
1.47006
0.998919
1
1
0.804206
1
0.999004
0.655181
1.47384
1.16835
1
1.00001
0.894776
1
1
1
0.802908
1
1
1
1.47163
1
0.653345
0.999999
1
1
1
0.643964
1.47065
1.42723
0.659876
1
1.47803
1
1
1.47253
1.47231
1.39562
0.65361
0.997666
0.999324
1
1.47144
1
1
1
1
1.46957
1.00004
1
1
1.46785
1
1
1.47216
0.654524
1
1
1
0.652428
1
0.999999
0.999999
0.998668
1
1
1
1
1.36593
1
1.47214
1.47319
1.48277
1.47233
1.47251
1.47057
1
1.47016
1
1.47216
1.47201
1
0.998875
0.653458
1.40107
0.999921
1
1
1
1
0.991281
1
1.06864
1
1
1
0.835564
1.47224
1.46953
1.47737
1.40653
0.999868
1
1.02287
1.47328
0.998005
1.0536
0.997009
0.653557
1
1.00002
1
1
1
1
1
1.47015
0.64906
1.4702
1.47126
0.995149
0.664001
1
1
1
1.47275
0.66597
1.41385
0.642741
1.472
1.47717
0.653094
1.47574
1.02338
1
1.47624
0.79395
1
0.998784
0.67101
1
0.67601
1
1.47035
1.47156
0.748008
1
1.47189
0.654409
1
0.660018
1
1.47063
1
1
1.47604
1
0.832606
1
0.999698
0.669934
1.47831
0.999472
1
0.675032
1
1
1
1
1.25909
1
1.4702
1
1
1.49003
1
1
1.47058
1
0.666664
1
0.661147
1.00001
1
1
1
1
1.44999
1.27094
1.47134
1
1.47118
1.43817
0.639838
0.658322
1
1
1.46936
1
0.668708
1
0.985862
1
1
1.47153
1
1.46877
0.662814
1.47644
1
0.652932
1
1
1.47115
1.46986
1
1.00004
1
1.47864
1
1
0.678886
0.999403
0.694441
1
1
1
1.47318
1.4724
1.47158
1
1
0.633553
1
1.47682
1
1
1
1.44396
1.47122
1.47157
0.655085
1.47479
1.47147
0.669473
1.46961
1.00004
0.682573
1.01082
1
1
1.47193
0.655732
1.29277
0.657295
1.4714
0.997472
0.656237
1.47421
1
1
1
1
1.4734
1.47325
0.652268
1
1.00002
0.660611
1.00003
1
0.653214
0.653924
1.3269
1.47285
0.99848
1.47087
1
1.47954
0.82052
0.661818
1.47132
1.47963
1
1.47062
1
1
1.4713
1
1.35658
1.47009
1
1
1
1
1.47289
1.46632
1.4731
1
1
1.47447
1.46984
1.46805
1
1.47332
1
1
1
1
1
0.658025
0.838077
0.654231
1
1
1.47315
1
1
1.47165
0.662021
1
1.47207
1.46684
1.45356
0.641367
1
0.647966
1
1.00003
1.47339
1.23355
1.47178
1.42901
1
0.64968
1
1.47552
1.33294
0.656868
1
1
1
0.817432
1
1
1.47649
1
0.657957
1.47177
1
1
1
1
1
1.37621
1.1057
1
1.47266
1
1.47262
1
0.997209
1
1.47049
1.46948
1.47155
1.47721
0.999587
1.47066
1
1.47204
1.4695
1.39611
1
1
0.654498
1.46379
1
1
1.4704
1.47036
1.46989
1
1.46887
1
1
1.00003
1.47145
1.47012
1.13352
1.09522
1.47078
1.47227
0.712607
1
1
1
1
1.00002
1.1597
1
1
1.38834
0.694194
0.999966
1
1.47099
0.999867
0.99985
1.06443
1.42024
1.46508
0.912187
1
0.69968
1
0.99183
1.4718
1.47311
1.46662
0.999125
1
1
0.656516
1
1
1.47138
1.0491
1
1
1
1
1
1
1
0.999936
1.47233
1.00002
1
1
1
1
1.28426
1
1.21696
1
1
1.47147
1.47634
0.659253
0.998757
1
1
1
0.653857
1.47129
1.47268
1
1
1
1
1
1
1
1
1.46877
1.47041
0.656902
1.05024
0.654401
1
0.656572
1
1.47186
1.12597
1
1
0.716709
1
1.45184
0.811953
0.997165
0.65881
1
1
1.47085
1.00005
0.997506
0.637111
1.47148
1.48025
1
1
1
1
1.43904
1
1
1.47106
0.999025
1.4717
1.00003
1
1
0.675097
1
1
1.47317
0.663186
0.782473
0.654313
1.47163
0.999342
1
1.47447
0.655398
0.65805
1.01483
1
1
1.47131
1.00004
1.21096
1
1
1.47358
0.656239
1
1
1.00013
1.47102
1.00016
1.46815
1
1.00003
1
1
0.704147
1
0.791305
1.00002
1
1.46877
0.67565
1
0.780797
0.782781
1
1
1.47137
1
1
1
1.47241
1.47129
1.00005
1.46503
1.47025
0.774138
1.47151
1.44254
1
1
1.47434
0.999999
1
1
1
1
1.47647
1.47129
1
1
1
1.47125
1.00019
1
0.652693
0.700413
1
1.00003
1.16579
1
1
0.901858
0.635524
1
1
1
1.47616
1.43029
1.47196
1
1
1
1
0.693249
1
1.46711
1
1.45191
0.651947
1.46763
1
1
1
0.634622
1
1.47176
1.00003
1
0.656802
1.16956
1
0.999661
1.46698
0.649159
0.651148
1
1.47244
0.664393
0.652561
1
0.671942
0.999996
1
1
1
0.644741
1
1
1
1
1.46975
1
1.35926
0.67227
1
1
1
0.664357
1.47113
1
1
0.99651
1.46139
1
1.47082
1.47035
1
1
0.716345
0.655558
1
1
0.659005
1.13639
1.21374
1
1
1.47405
0.997387
1
0.997773
1.472
1
1
1
1
1
1
1.47224
1
1.16192
1.14456
0.696584
1.42071
1
1.47262
1.47146
1
1
1
0.916835
0.688793
1
1.22209
0.999684
1.42465
1
1
1
0.999999
1
1.00678
1.20903
1.47204
1.46985
1
1.47075
1
0.613435
1
0.997395
0.999794
1
0.645151
1
0.657201
1.00002
1.47482
1.47014
0.650112
1.47651
0.668525
0.996211
1.35714
0.658542
1.33451
1
1
0.998429
1
1
1
1.00006
1
0.681844
1
1
1
1
0.999571
1.47074
0.810886
1
1
1
1.03681
1
1
1
1.25805
0.760479
1
1
1
1.05036
1.46404
1
0.663362
1
1.47329
0.896981
0.622096
1
0.661789
1
1
1.44481
0.99824
1.45194
1
1.00886
1
1
1.47169
1
1
1
1
1.09584
1
1.47145
1.47311
1.46798
0.680279
1.47067
0.997171
1.38659
1
1
0.64008
1
1
0.654596
1.46973
1
1
0.999934
1
1
1
0.635678
0.661709
1
1.4798
1
1.2101
1.47205
0.663098
1.38977
1
1
0.667742
1
1
1.47135
1.4723
1.16766
1
1
1.00203
1.47209
0.675727
0.653093
1.47231
1.47103
1.31897
1.1864
1
0.896591
1
1
1
1.44258
1.47755
1.47291
1
1
1.47104
0.652856
1.42906
0.635709
1
0.64678
1
0.658103
1.47168
0.649894
1
0.981527
0.703547
1
1
1
0.845768
1.42792
1.4728
1.47184
1.47556
1
1
1.46972
1
1
1.47376
1
0.638929
1
0.664931
1
1.47081
1
1
1.0254
1.35574
1
0.998877
0.651184
1.46912
1.00001
0.665098
1.08756
1
1
1.3515
1.47102
1.47103
1
1.47311
1.12477
1
1.02783
1.47142
1
1
1
1
1.47203
1
0.668261
1.47348
0.660889
0.668985
0.818696
1.47272
1.16058
1.46986
1
1.48033
0.997318
1.00003
1.47173
1.47137
1
1.47261
1
1.47255
1
1.47269
1
1.00004
0.999994
1.4735
0.645006
0.64301
0.997785
0.999999
1
1
0.665802
1
1.30533
1
0.65734
1
1.18835
1.47095
1.47425
1
1
1.00003
0.99939
1
1.46973
1.47348
1
1.19819
1.47267
0.844346
1.47332
1.00008
0.649443
1.09213
0.640691
1
1
1.07831
1.47264
1
1
1.04022
0.998511
1
0.676017
1
0.795631
1
1.47306
1
1
0.65751
1.10827
1.05756
0.998537
1.47217
1.47145
0.767469
0.998115
0.64817
0.644232
0.659056
1
1
1
0.999074
0.74389
0.667076
1
1.47146
0.999735
1.47173
1.47041
1.47
1.47153
1
0.658618
1.47252
0.679624
1
1.47027
1.46935
0.996777
0.821353
1.47085
1.33946
1
0.654555
1
1
1.47403
1
1.02551
1.46991
1
0.665749
0.671977
1
1
0.661233
0.644312
1.47253
1.00006
1
0.656581
0.636581
1.47047
1.45152
1.44095
1.47227
1.12776
0.976141
1.19006
1.47721
1.35741
1
1.24363
1
0.656968
0.862803
1
0.656296
1.47087
1.02314
1.47297
1
1.47218
1.47272
1
1.47123
1.47132
0.652631
1.47512
1
1.47745
1
0.743977
0.658708
1.4716
1
1
1
0.666838
1.47351
1.47226
1
0.657239
1
1
0.664285
1.00003
0.642964
1.47279
1
0.821745
0.637063
1
1
1.27273
1
1
1
1.07637
0.660739
1
1.00001
1
1.47181
0.657619
1
1.47061
0.67726
0.64831
1
1
1.47963
1
1.47509
1.00001
1.47212
0.652233
1
1
0.657736
0.814302
0.661033
1
1
1
1
1.47628
0.643454
1
0.665636
1
1.4689
1
1
0.922171
1
1
0.827037
0.999664
1.00005
1
0.656531
0.655934
1
1
1
1
0.800031
1.47022
1.47112
1
0.664937
0.653134
0.909424
0.657912
1
0.825432
1
0.671113
0.979902
1
1
0.658846
1
1.47328
1.45914
0.661178
1
1
1
1.46662
1
1.04643
0.840048
1.14958
0.66069
1.18386
0.649118
1
1
0.728357
0.905945
1
1.04087
1
1
0.649965
1
0.929134
1.04598
0.663715
1
1.37912
0.758875
0.883696
1
1
1
0.656355
1
0.667839
0.660777
1
0.848018
0.660234
1.0641
0.758675
0.662219
1.4717
1
1.47111
1.25579
0.75111
1.47155
0.656703
0.998994
1.4729
0.999999
1
1.47292
1
0.730301
1
1.06287
1
1
1.47114
1
0.749999
0.819564
1.47356
0.929905
1
0.75674
1.4711
1.47184
0.90684
1
1.47123
1.12219
0.856395
1
1.01853
1
0.651886
1.19747
0.769652
0.739625
1
1
0.662775
1.47072
0.961549
0.665398
0.653224
0.856515
1
1.01188
1.47241
1.47072
1
1
0.999999
0.658268
1.21921
0.999987
1.4736
1.44524
0.657217
0.999991
1.09876
0.882871
1.27093
1.40582
1
1.04607
1
1.00005
0.644778
0.850801
1
1
0.81443
0.651313
1.04152
1
0.999994
0.671607
1.20936
1
1.47213
1
1.03475
1.25054
1
1.46632
1
1
1.47241
1
0.653162
1.47188
0.692589
1.12271
1
0.661553
0.999905
1
1.00003
1
0.787587
1.02833
0.655136
1.34409
1.47248
0.633809
1
1
1
1
1
0.965313
0.652325
1.04942
0.66485
0.663322
1.07571
1
0.999805
1.1216
1
1
0.669829
0.990705
1
1
1.12897
1
1.4722
1
1.4707
1.09024
1.0249
0.662614
1
1
0.66947
1
1
1
1
1.46939
1.04377
0.998143
1
0.65054
1.05285
0.999999
1
1.30455
1
0.652326
1.47081
1
1.00001
1
1.47323
0.657397
0.867841
0.643734
1.35382
1.4708
1
1
1.47108
1
0.637846
1
1
1
1
1
0.776896
1
1.47316
1
1
1.15138
1.47206
0.658369
0.869861
1
1.47042
1
1
1
1
1
1.47063
1.47039
0.645977
1.47235
0.645427
1
1
1.47162
1
1.47144
1.00198
1.02795
1.05637
1.47043
1.06917
1.31917
0.644359
1
0.64798
0.984727
1
1.47108
1
1
0.658345
1.47341
1
1.47078
1
1
1
1
1
1.00001
0.654404
1.47303
0.835176
1.47173
1
0.657544
0.662693
0.726197
1.47926
1.46949
0.967192
1
0.784871
1
1.18754
1
1.4724
0.645151
0.654503
0.855429
1
1.47144
1
1.07094
0.671292
1
1.47255
1.43287
0.998846
1
1.47161
0.662083
1.47451
1.47257
1.46877
0.654465
1.09366
1
1
0.651355
1
0.798736
0.827506
1
1.00001
1.46965
1
1.46962
1.08763
1
1.04098
1.47804
1
0.658272
1
0.77054
1
1
1.38392
1
0.804943
1
0.655188
1.03807
0.947078
0.634815
1.47275
1.37902
1.4711
0.661414
0.709407
0.996049
0.999999
1
0.686271
1.44356
0.65405
0.999968
1
1.47101
1.47035
0.905777
1
0.660759
0.731982
1.30795
0.96568
0.650561
0.999999
0.653064
1.11655
0.651168
1
1.00006
0.810635
1.47161
1.47076
0.83819
0.999593
1
1
0.733995
1
0.65313
1
0.643449
0.650125
1
1
1.00003
0.653938
1.4715
1
1
1.00007
1.00004
0.655734
1.47013
1.47163
1
0.657158
1.47053
1
1.10225
1
1
1.47038
0.648612
1
1
0.665288
0.738671
0.65126
0.668548
1
0.713206
0.997237
1.08837
0.655744
1
1
1.13103
1
1.41743
1
1
1.33065
0.695804
1
0.641844
1.12563
1.47037
1
1
0.662889
0.682728
0.643129
0.73633
0.683646
1.34957
0.999392
1
1
1
1
1.47167
0.676913
1
0.932889
0.999685
0.998798
0.999937
0.760617
1.12655
1
1.47139
1.47161
1
1
1.44935
1.00004
0.999999
1.47107
0.660993
1.47792
0.999999
0.636934
1.47155
1.00005
1
0.820471
1
0.644267
1
1.47182
1
1
1.47371
1
1
1.46968
1
1
1
1.47098
1
0.757352
0.730826
1
0.634106
1.46922
1
1
0.97282
1
1.47576
1.26795
1.37355
1
1
0.653805
1
0.656642
1.4738
1.47105
1.47323
1
1.47247
0.662064
1
0.660408
1.37673
1.43603
1.4741
1.47202
0.76764
0.652546
1
1.30996
1.47095
1.47095
1.47152
0.733122
1.16887
1
1.35399
0.761557
1
1.00002
1
1.00002
0.894745
1
1.47072
1
1
1
1
1
1
1.00006
1.4653
1
1.47302
1.34973
0.646994
1.47324
1.02927
1.23195
1
1.47304
1
0.659475
1
1
1
1
1.40014
1
0.643022
1.47277
0.64039
1.47162
1.3743
1.23614
1
1.08121
1.21886
0.995909
0.648375
0.759894
1.00002
0.999999
0.912349
1
0.66384
1.47121
0.660168
0.92751
0.851108
1
1
1
1.01515
1
1
0.682171
0.997117
1.47144
1
1.4714
1
0.647838
1
1
1.47138
1.47359
0.644291
1
1.4705
1
0.807879
0.66726
1.47164
1.42126
1
1.07173
1.47194
0.99868
1
1.19745
1.41219
1.47057
0.995496
1
0.999998
1.39588
1
1
1
1.47153
0.998466
1
1
1.47141
1
1
0.665184
1
1
1
1.47112
1
1
0.84494
1.13663
1.42628
0.758342
1
1.47205
1
1.1587
1
1.47789
0.997427
1.47117
1
0.664098
1
1.32559
1
1
1.4389
1.00001
1.47189
1
1.46791
0.691248
0.660674
1.472
1
1.3951
1
1.47168
1
1
1.00005
1.47331
1.46928
1.12291
1.47115
0.995553
0.651291
1.4699
0.852645
1
1.46536
1
1.47059
1
1.47396
1.47164
0.99628
0.649518
1
1.47143
1
1.03278
1
1
0.997969
0.743759
1.4193
1
1.44138
1
0.869793
0.635626
1.47394
1.47244
0.673558
1
1.47479
1.47969
1.47694
0.682469
1.47153
0.662703
1.47145
1.47391
1
1
1.47209
1
1
1
1
0.647858
1
1
1.47147
1.47126
1
1.47221
1
1.47896
1.47064
1
1.3886
1
0.638689
1.47287
1.3428
1.11946
0.648744
1.47122
1
1
0.655547
1
1
1.47189
1
1
0.78577
1
1.47155
1.00009
1.46997
0.639836
1.4721
1
1.47135
1.45251
0.890143
1
1.47379
0.761224
1.47948
1.32986
1.47183
1.46779
0.997258
1.47153
1.47136
1.47151
1.47065
1.0009
1
0.649557
1
1.47121
0.823941
1.42752
1
1.46232
1
1
1
1
1
1.4691
0.643151
0.643161
1.47187
1.47183
1
1
1
1
1
1.46758
1.4257
1.47066
1.02651
1
1
1
1.00004
1.47068
1.47213
1
1.47645
1.47285
0.667439
1.32778
1
1.4716
1.47466
1.46716
0.997737
1.47276
1.47312
1
1.42209
1
1
1
1
1
1
1.47124
1.47348
1.43788
1.47184
0.653505
0.704991
1.47109
1.47105
1
0.648262
0.938189
1
1.21937
0.652563
1
0.999453
0.99828
0.652965
1
1.46931
1
1
1
1.4716
0.935326
1
1.4707
1.47218
1
1.47236
1
1
1.47165
1
0.645026
1
1.47021
1
1
0.665268
1
1.47294
1
0.638735
0.639677
1
1.4621
1
0.633865
0.87271
1
1.47141
1
1
1
1.47509
1
0.653699
1.06202
1.4714
1.47386
1.4712
1.04581
1.47388
1.47139
1
1.00002
1
1
1.00001
1.47198
1
0.999298
1.4782
1
0.643171
1
1.47208
1.21805
1.04918
1.21684
1.05631
1.46198
0.690483
1.47125
1
0.660691
0.997145
1.47129
0.942961
1.47169
1.47207
1.45359
1
1.47159
1.4721
1.47135
1
1.00003
1
1
1.47143
1.32822
1
1
0.65747
0.996279
1
1.47019
1
1.47102
1.47175
1.47018
0.906201
1.4725
1.47182
1.00238
1.22319
1.4713
1.47123
1
1.43422
0.825984
1.46795
0.985171
1.47143
1
1.47119
1.4719
1
0.661591
0.937365
0.689428
1
1.08132
0.997172
1.46721
1
1
0.996789
1
1.22124
1.4479
1
1
1.47255
1
1
1.33596
1.47352
1.45173
1.47142
1.47048
1
1.47001
0.719945
1.47406
1
0.992203
0.65542
1
1
0.748348
1
1.13677
1
1.47238
1
1.46202
1.29529
0.659097
1
1
1
1
1
1.47169
1.01154
1
1.47412
1
1.47242
1.47116
0.999999
1
0.967838