/*--------------------------------*- C++ -*----------------------------------*\
  =========                 |
  \\      /  F ield         | OpenFOAM: The Open Source CFD Toolbox
   \\    /   O peration     | Website:  https://openfoam.org
    \\  /    A nd           | Version:  12
     \\/     M anipulation  |
\*---------------------------------------------------------------------------*/
FoamFile
{
    format      ascii;
    class       volScalarField;
    location    "2.075";
    object      T;
}
// * * * * * * * * * * * * * * * * * * * * * * * * * * * * * * * * * * * * * //

dimensions      [0 0 0 1 0 0 0];

internalField   nonuniform List<scalar> 
183995
(
1.05008
0.938706
1
0.947117
1
1.00161
0.964141
0.999395
0.954279
0.963609
0.961077
1.03508
0.96109
1.00094
1.02891
1.02869
1.02847
0.982879
1
1.02825
1.03687
1.04279
1.04924
1.00314
1
0.983063
1
0.98699
1
1.00337
0.978814
1.00344
0.96138
1.02686
0.961233
1.03466
1
1
1
1
0.84215
1.00163
1.0259
0.991233
1.02737
1.00141
0.939774
0.834464
0.98434
1.00135
1.00138
1.03817
0.989637
1
1.00313
1.0423
0.934663
0.961726
0.958763
0.961722
1.02445
0.853056
0.92427
1.03366
0.936198
1.04814
1.02454
1.04845
1
1
1.03113
0.963839
0.964
1
0.985286
1.04735
1
0.999355
1.02284
0.962763
0.962626
0.999998
1.03375
1.03784
1.00149
1
1
0.996064
0.848226
1
0.964351
0.964671
0.950265
1
1
1
1.04185
1.00056
0.957861
0.938706
1.04169
1.03658
0.940557
1
0.841295
1.00444
1.04122
0.939854
1.01048
1
1.02802
0.856604
1
0.834312
1.03752
1.03018
1
0.958364
0.806973
0.995949
1.03634
1.03341
0.982497
0.965889
0.966109
1.06202
1
0.834688
1
0.999838
0.985512
1
1.0257
1.0345
1
0.983171
1.03624
1
1.02657
1
0.957896
0.96765
0.967687
0.970513
0.970065
1.03228
1.03596
1
1.06952
1.02758
1
0.969436
0.969446
1.03134
1.03319
0.938368
1.03199
1
0.860477
1
1
1
1
1.0664
1.03042
1
1.02948
1
0.962253
0.962278
0.984997
1.02773
0.935069
0.971979
0.938596
0.971881
1
1.03155
0.99831
1
0.858462
1.041
1
1.025
0.999638
1.03066
0.940233
1
1
1.02217
1.07393
1
1
1.02889
1.03161
0.946885
1
1
0.987038
1.0307
0.998853
1.0318
1.02913
0.999644
0.919918
0.97365
1.03356
0.973677
0.99953
0.980899
0.941784
0.942321
1
1
1
0.941125
1
0.987142
1
0.934262
0.909139
1.00325
0.974538
0.97427
1.00017
1
1
0.990225
0.985535
1.02948
1.03324
1.01421
1.02661
0.99785
0.980836
1
0.987335
1.13828
0.918337
1.02953
1.06818
0.959884
1
1
1
1
1.02715
0.982979
1
1.02957
0.994912
0.975829
1.02637
0.975834
1.02693
0.964894
1.00394
0.964971
0.987415
1.01027
0.991905
0.998047
0.948244
1.02473
0.977469
1
1.06183
0.977377
0.958251
1.00002
1
1
0.943753
1
0.996337
0.963108
0.982572
0.963195
0.999603
1.02459
0.903022
1
0.978771
1
0.98929
1
1
0.978206
1.03548
0.978621
1
1.01287
0.999996
1
1
1.00018
0.983737
1
1
0.99783
1.04242
1
0.997904
1
1.02933
0.989523
0.980345
0.988738
1
1
0.983747
1
0.934897
0.924317
0.994629
1
1
0.96637
1
0.980447
0.966437
0.983192
1
1.02612
1.02146
1
1
0.94605
1
0.810869
1
1.02571
0.999883
1
1.02213
0.998263
0.980491
0.980717
0.996384
1.02467
1
0.985152
1.02781
0.996543
1
1.03069
0.979806
1
0.987666
1
0.996844
0.979647
1
0.992722
1
0.997775
1.0119
0.927758
1.01176
0.964401
0.835134
0.96424
0.830662
0.838761
0.989241
0.99317
1
0.995876
0.989024
0.938037
1
0.932826
1
1.02542
0.987111
1
1
0.985463
1.03098
1.0492
1.04768
1.10674
0.992429
0.961728
1
0.968033
1
0.967944
1
1
1
0.97765
1
1
0.813062
1
1.00134
0.991585
0.936251
1
1
1
1
0.929807
0.992994
0.977974
0.95885
1
0.993196
0.840892
0.835147
0.978081
0.961935
1
0.871423
0.943065
0.984791
1
1
1
0.935037
1.04228
1.04137
0.999117
0.908941
0.985325
1.02982
1.01385
1
1
0.841676
1
1.00853
0.98704
0.997507
1.0086
0.969769
0.841158
0.969367
0.990463
1
1
1
1
0.936991
1
0.988523
0.93691
0.948322
1.02714
0.944611
1
1
1.06719
0.957166
1
0.982954
1
0.982653
0.97611
0.987915
1.00479
0.969014
1
0.947433
0.925443
0.969379
0.894636
0.976244
0.990138
1.03782
1.03721
1
0.985999
0.93621
0.987751
1
1.03283
1
0.968782
0.969241
0.992143
0.936765
0.978208
0.999902
0.942399
0.998117
0.846247
1.02711
1.02723
0.971426
0.971268
0.939945
0.858026
0.919212
0.945909
1.02781
1.02773
1.03661
1.03603
1
0.989431
1.02654
1.02649
0.995027
1
1.0291
1
0.983648
1
1
0.978376
1
0.965207
1
1.0548
0.975521
1.0291
1.02903
1
0.987306
1
0.941935
0.999765
0.82923
0.972752
1
0.915589
0.972481
1.05714
1
1.00002
1
1
0.989814
0.917901
1
0.939597
0.999748
0.986134
1.02802
0.946353
1
1
1.03007
1.02998
0.986505
0.913373
1.00195
1
1.02711
1
0.965614
1
1
1.02712
0.980989
0.965551
0.990862
0.946734
1.02489
1.02484
0.987703
1
0.937602
1.0035
1.0307
1.03065
1
1
1
0.98738
1.0334
1.03289
1.00502
0.991075
1
0.945715
0.983787
0.996236
1.06544
0.90183
1.03089
1.03087
0.94477
0.972869
1
1
1.03439
0.98325
0.971282
1.00025
0.970961
1.0241
1.02405
1
1
0.987522
1.03076
1.0257
1.03079
1
0.98377
1
0.934683
0.938328
0.983974
0.985377
0.927143
0.983303
0.98623
1.02331
1.02329
0.983181
0.996616
1.03176
1.03133
0.863212
0.982917
1
1.02426
1.02426
1
1
1
1.00512
0.983998
1
0.895769
0.960299
1.03088
1.03042
1
0.964766
0.988168
0.985392
0.994252
0.947335
0.967617
0.998758
1
0.944644
1.00924
0.958546
0.998221
1
1
0.986304
1.02136
1.02131
1
0.911632
1
1
1
1.02333
1.02803
1.03295
0.983974
0.829476
0.996849
0.948244
0.981445
1.02894
0.972808
0.98428
1
0.973032
1
1.02048
1.02042
0.91087
1
0.995051
0.958918
1
1
1
0.976735
1
1
1.01962
1.01958
0.913082
1.02465
0.997129
0.937184
1
1.01941
0.964615
0.985572
0.985516
0.976573
1.00156
1
0.872282
0.991326
1.00332
0.936959
0.954534
0.983991
0.948195
0.979376
1
0.989126
0.99549
1
1
0.980223
1.03008
0.870097
1.04823
0.983853
1.00314
0.967353
1.00118
0.81853
0.992819
0.979955
0.967246
0.983802
1.02075
1.02662
1.02612
1.02773
1.01739
1.01735
0.948925
0.913031
0.992
1
1.03119
1
0.992011
0.992277
0.989337
0.993976
0.973648
0.974045
1
1.02891
1.01649
1.01645
0.9798
0.81056
1.02773
0.991984
1
0.832204
0.933515
1
0.988302
1
1
1
1
1.00849
1.0417
1
1.01548
1.01543
1
0.98173
1
1
1.02465
1.0225
0.993383
0.984142
0.986442
1.00123
1
0.891517
1.00897
1
0.99428
0.968153
0.984683
0.987809
1.055
1
1.01454
1.01449
1
0.989448
0.990283
0.836867
0.992112
0.957956
1
0.982987
1
1
1
1
0.952581
0.958817
1.01297
1.0136
1.01356
0.95402
0.987554
1
0.976544
1.00008
0.999996
1.01296
0.908463
0.99005
1
1.00975
0.996329
1
1
1.04158
0.97415
1
0.866849
1.01302
0.985039
1.05536
1
0.997308
0.975525
1.02938
0.975629
1.03719
1.01309
1.08577
1.00233
0.932235
1
0.998968
1
0.972191
0.998121
1
1
1.03624
0.994654
1
0.971192
1
0.968905
1
0.961473
0.985997
1
0.984458
0.968692
0.900517
0.998947
0.997888
1.06938
0.968582
1
1
1
0.94747
0.975352
1.0121
1
1.01091
1.0108
1.01208
0.947876
0.838946
0.931004
0.968506
1
0.975177
0.829786
1.01839
0.967126
1
0.988784
0.993363
0.90637
1.02878
1
1.01023
0.98413
1.01029
0.992112
1
0.97282
0.98545
0.973901
0.99488
1
1
0.994969
0.971769
1.005
1
1
0.935082
0.984013
1
0.969859
0.97387
1
1.00824
0.83244
1
1
0.900984
0.987105
0.988679
1
0.969373
1
0.811074
1
0.969264
1
1
0.81151
1
1.05219
1
1
1
0.986021
0.973281
1
0.991202
0.872748
1
1
0.988098
1
1
0.969412
0.945782
1
0.988103
0.946609
1.00907
0.989189
1
1.00937
0.936546
0.993585
0.983229
1
1.10813
0.995091
1.00591
1.03103
1.03159
0.976778
1
1
1
0.973185
1
1
1
1.02643
1
1
1
1
1.0135
0.971516
1
1.00211
0.998598
0.979667
0.959073
0.961396
0.977158
0.960868
1
0.984042
1
1.03219
0.994712
1.0086
0.982498
0.989339
0.985648
0.971689
0.939344
1.00009
1
0.994175
0.99784
0.999909
1
1.0309
0.988134
0.983462
0.987369
0.862623
0.936898
1
1
1
0.972284
0.996057
1.03714
0.995024
0.96439
0.994699
1
1
1
1
0.989638
1.00035
0.985777
1.00782
0.99311
1
1
1.00355
0.960595
1
1
1.00547
0.959688
1.00207
1.00976
0.925516
0.98168
1.00161
1.03036
0.959307
1
1
1.03094
0.988058
1
1
0.831865
0.990774
0.944543
0.948314
0.985331
0.985558
1
1.00759
1
0.992313
0.982696
1
1.0079
0.966079
1.00329
1.00127
0.987365
0.987213
1
0.967797
0.996816
0.865507
0.981724
1
1
0.979263
0.979146
1
1
1
0.999759
0.986279
0.991373
1
1
0.948447
0.98397
1.01015
1
0.961204
1
0.982482
0.959828
0.987933
0.946199
0.987789
0.937267
0.970711
0.989769
0.970136
1
1
0.970536
0.974845
0.990379
0.973019
0.824631
1
0.988311
0.960793
0.991989
0.958694
0.984106
0.996678
0.951146
1
0.996839
0.995128
0.996159
1
0.931327
1
1.01891
0.926858
1
1
0.986301
1.00537
0.991298
0.871603
1
1.02778
0.946877
0.952829
0.98037
0.950312
0.906358
0.921436
0.997302
1.0261
1.00565
1
1
0.998559
1.01882
0.977577
1
1
0.975636
0.947902
1.01387
0.985806
0.967326
0.98105
1
1
0.981268
0.9693
1.0254
1
0.969459
1
0.992379
1
1.02452
0.970946
0.979832
1.01927
0.814026
1
0.959663
1
0.998261
0.99801
0.995683
1.01993
1
0.963532
0.969459
0.996995
1.00497
0.93226
1
1.02193
1
0.954644
0.997158
0.996776
1
0.999062
0.984595
0.992669
1.04897
1
0.983169
0.963912
1.02144
1.02787
0.840701
1
1
0.971815
0.963641
0.971997
1
1
0.825346
0.970643
0.983646
1
0.979784
0.997485
0.982421
0.996178
0.993304
1
0.98247
0.946546
0.984306
0.829208
1
0.973505
1
0.959704
1.03698
0.992197
1.01468
0.911882
0.997141
0.994684
0.996374
1.02754
1.02053
0.983886
1.0331
1.10318
0.938183
0.982857
0.942576
1.01864
1.01887
0.976705
0.982627
1
1
0.996675
0.95063
1.01897
0.949178
0.880187
0.949513
1
0.937712
0.843251
1.05349
0.98391
1.00813
0.97835
1
0.947731
0.97537
0.835074
0.995608
1
1
0.948165
0.946412
1.01581
1.01623
1
0.947515
0.950426
0.946174
1
1
0.946818
0.94265
0.947935
1
0.983252
0.996828
1.01942
0.987377
0.944696
0.841055
0.996333
0.993005
0.969503
0.978052
0.9944
0.992691
0.949193
0.984519
1
1
0.983055
0.969028
0.945078
0.993461
0.814747
0.959118
0.959956
1
0.964531
0.949797
1
0.942516
1
1
0.946798
1
0.991535
0.992627
0.988054
0.993359
1
0.960877
0.99431
1
0.97732
0.978964
0.995839
0.939406
1
1.00075
0.813061
0.949477
0.946761
0.957681
0.981824
0.946746
1
1
0.892549
0.995987
0.995611
0.999775
0.816203
1.01864
1.01862
1.01868
0.964898
1
0.987076
0.955184
0.990674
1.00329
0.956727
1
1
0.954308
0.818488
0.954828
0.954578
0.989313
1
1
0.994435
0.953773
1
1.0187
0.986629
1
0.946584
0.860304
1.02159
1
0.972237
1
0.968256
0.958943
1.03901
1
1
0.958316
1.02163
0.919116
1
0.971749
0.961661
0.992529
1
1
0.947952
0.947734
1.01876
0.956289
1
0.992337
1
0.948531
1
0.996137
1
0.957372
1
0.993859
0.973388
0.945622
0.986832
0.969453
1.00756
0.970683
0.981067
1.00714
1.01901
0.970883
0.992243
0.991101
0.971974
0.956134
0.946442
0.995675
1
0.949204
1
1
0.957191
1.00722
0.990018
1.00853
0.985116
0.972998
1.02548
0.952701
0.917722
0.987816
0.957387
0.992874
0.950276
0.990151
0.940828
1
1
1.02635
1
1.02935
0.954186
0.98352
0.950814
0.944924
0.971228
0.947131
0.991947
1.02053
0.949602
0.976144
0.970834
0.949314
0.982946
0.988361
0.839602
0.990731
1
0.939115
0.801473
1
1.01962
0.96528
0.989109
0.993439
0.993438
0.987698
0.996993
1
0.83895
0.99475
0.973732
0.973614
1.02693
0.799033
0.926726
0.958255
0.95817
0.958403
0.9598
0.958472
1.02609
0.944507
0.959703
0.959655
0.959583
0.980103
0.989715
1
1.03565
0.944814
0.994734
0.983819
0.995174
0.995475
1.04979
1.03172
0.950726
1.03209
1
0.99506
0.962703
1.04941
1.02752
1.02652
1.05244
1.03122
1.04745
1.02648
1
1.02715
1.00113
1.02708
1
0.991173
1.03162
0.993019
0.961933
1.02762
0.96202
0.963417
0.963099
1.03748
1.03686
0.989282
0.972816
0.945362
1.02756
1
1
0.981277
0.989633
1
1
1.03585
0.946189
0.947746
1.01786
1
1
0.951407
1
0.97144
1
1.01799
0.986119
1.03877
0.937381
1.02747
0.982027
0.95705
1.03656
1.03779
1
1.01284
1
1.08289
1
1
1.02703
1.01691
0.850348
0.96389
1
1
0.971257
1.02191
1.03241
0.971857
0.994899
1.03513
1.03599
0.940805
1.02746
0.99995
0.99756
0.99799
0.979886
1.03614
1
0.941525
1
0.993841
1.03271
1.03279
1.03483
0.953087
1.02197
0.99548
0.836039
1.01902
1
1.06642
1.01999
1.03115
1.03066
0.995546
0.941867
1.01156
1.01551
0.954748
0.99273
0.995576
0.945105
1
0.948022
1.01996
1.02147
0.82491
1
0.974937
0.987926
1.03731
1
1.0291
0.950178
1
1
1
1.02885
1
0.969057
1.03279
1
1
1.03252
0.985742
0.987863
0.993626
0.855986
1.0468
0.947364
1
0.955115
0.98708
0.977909
0.974803
0.943554
1.03457
1
0.987186
0.948178
1
1.07487
0.972227
1
1.01622
1
1.01899
0.947926
0.979348
1
0.987049
0.994394
0.986482
0.936478
1
0.994051
1
1.07762
0.906201
0.991554
0.984384
1
1.00673
0.939341
1.03587
0.958707
1
0.958115
1.00976
1.01049
0.971775
0.987086
1
1
1
1
0.994742
0.954413
0.956498
1
0.985806
1
1
1
0.986258
0.987565
1
1.02661
0.985806
0.995756
0.977603
0.954469
0.986849
1
1.02614
1.02786
1
1.02678
0.977151
0.930098
0.987973
1.03307
0.864585
0.943118
1.02619
0.961629
0.969578
1.03231
1.02658
1.04666
1.00234
0.952575
0.950077
0.952537
1.04161
1
1
1.02688
0.942874
0.96103
0.96458
1
0.949167
0.906353
1.02961
1.00576
0.944615
0.99745
0.985898
1
0.998953
1.03267
1
0.815571
1.0337
1.00248
1.02228
0.992539
0.987109
1
0.902068
0.9399
1
0.961502
0.960465
0.944311
0.983172
0.965676
1.02658
1
0.935544
1.00323
1
1.01488
1
1.03616
0.888837
0.945724
1.02636
1.01638
1.02415
1
1.02833
0.994239
1.02914
0.955444
0.961315
1.01857
0.9684
0.959008
1.0183
1.03048
0.938907
1.03182
1.03209
0.990339
0.96007
0.805219
1.01325
1.00845
1.00783
1.01171
0.955953
1
0.960603
1
0.968764
1.01242
1.04648
0.997494
0.976356
1
1
1
0.979594
1
1
1
1
1.00706
0.976918
1.03356
1
1.01799
1
1.01399
0.959179
0.96728
0.964836
0.952357
1.04835
1.03813
0.822154
0.992379
1.01895
1.00954
0.947815
1.02725
0.950938
0.945413
0.952087
0.978302
1
1.03288
1.01831
0.982935
0.96511
0.967542
1.01502
0.969738
1.03119
0.981715
1.00515
0.964829
0.950784
0.949381
0.950838
0.996369
1
0.9636
0.963935
0.970175
0.982291
0.982808
0.994041
0.973486
0.983764
0.956103
1.02741
1.02372
1
0.922308
0.947433
1
0.970857
1
1
1
1
1.03469
1.0203
1.02674
1.0313
1.00392
1.04084
0.968796
1
0.995316
1
1
0.94403
0.950154
0.987
0.975872
0.986242
0.991507
0.990876
0.991531
1
0.991077
1
1
0.986348
1
0.967983
0.976717
1
1.02784
1.02605
1
1.02657
0.95888
1.0065
1.03527
0.981975
0.979338
1.01871
1.02771
0.991994
0.947018
1
1.02436
1.02637
1
1
1
0.973795
0.946663
0.991482
0.849563
0.95012
1.02691
1.00819
1.02756
1.00635
1.03335
1
1
1
1
0.857141
1
0.957684
1.01559
0.950323
1
0.973605
0.997604
0.904567
1.0268
1
1
1
1
1
1
1
1
0.998269
0.997935
1.01023
1.02069
1.02015
0.960509
1
1
1.01902
0.994828
0.996783
1
0.978381
1.0268
0.991134
1
0.949228
1.00003
0.971683
1
1
1
1
0.966771
1
1.0279
1
0.992214
0.970133
0.947077
0.973746
0.920531
1.01569
0.966103
1.06997
0.953709
1.03678
1.0616
0.951595
0.972039
1.025
1.12558
1
1.02596
0.918163
0.948252
0.949688
0.984369
0.981827
0.998346
1.05225
1
1.0156
1.04486
0.98256
1
0.98079
1.0165
1
0.954635
0.9477
0.943456
1
0.948199
1
1.01582
0.95048
1
1
0.988684
0.973923
0.874338
0.972468
1
0.95289
1
1
0.983551
0.982524
1.05901
1.03142
0.962394
0.955506
0.921607
0.991708
0.935112
0.97491
0.97505
0.988451
0.91597
1.05065
1.02929
0.97737
0.977366
1.03274
1.02836
1.00984
1.06061
1
1
1.00339
1.01822
1.0017
1.01731
1.01884
1.01891
0.986661
0.952362
1.01988
1.01982
0.955058
0.950004
0.909894
0.942394
0.986675
0.944259
0.968874
0.954498
0.945765
1.01533
0.979291
0.945371
0.94549
0.931832
0.945054
1.03325
0.942924
1.00314
0.980876
0.986459
0.952976
1.03621
0.983127
1.0148
0.981399
0.998615
0.980213
0.975254
0.995981
0.951458
0.951774
0.990921
0.991073
1.03265
0.944643
1.02356
1.01191
1.02729
0.945754
0.98165
0.953876
0.995459
0.995442
1.02243
1.02206
1.02253
1.02218
1.02066
1.02103
1.02007
0.997288
1.02089
1.02112
0.997351
1.01972
1.0208
1.02021
1.01904
1.01986
0.982876
1.01861
0.980686
1.0192
1.01808
1.01873
0.979148
1.01735
1.01819
0.95661
1.01676
1.01744
1.01627
1.01692
0.946818
1.0154
1.01642
1.01484
1.01556
1.01426
1.01499
0.957629
1.01439
1.01338
1.01826
1.0135
1.01271
0.999187
0.970169
0.973945
1.01283
0.990211
1
1.01213
0.944522
1.01226
0.992308
0.952424
1.01117
1.01128
0.957455
1.01018
0.965789
1.01029
0.978279
1.00924
0.953382
1.0189
1
1.00935
1.03595
1.06178
1
0.953331
0.952326
1.00826
1.0036
1.00833
1.00374
0.96955
1.02086
0.984389
1.00718
1
1.02797
0.999929
1.00729
0.98668
1.02722
1.02176
1.00934
1.00621
1.00636
1.00556
0.953081
1.00569
0.953062
1.06207
1.00493
1.00508
1
1
1.00398
1.07361
1.03297
1.02576
1.0041
1
1
1.00295
1.00823
1.00305
1.00837
0.979998
1
1.02411
1.03689
0.991817
0.97963
0.989609
1.0116
1.0302
1.01311
1.00371
1
1
1.01315
0.994053
0.995051
1.00361
0.996539
0.948072
0.959577
1.01768
0.953842
1.01768
0.953956
1.02777
1.02631
1.02084
0.968891
0.948355
1.02687
1.00315
1.02
0.964825
0.997534
1.02001
0.996167
0.952408
1.02652
1.02769
0.961834
0.958012
0.95743
1.02664
0.983366
1.00736
0.962184
0.987408
1
0.947275
0.961161
0.988674
0.960494
1.03254
0.94949
0.950679
0.984049
1
0.951227
1.05917
0.988571
0.948789
0.988694
0.952778
1.03489
0.94639
1.01197
1
0.959824
0.988857
0.959883
0.944929
0.953663
1.02651
1.03571
1.0265
0.939384
0.946477
0.95841
1.01623
0.959052
0.952287
1
0.957647
1.03682
0.957804
1.01706
0.971585
0.970599
1
1.01678
1
1.02861
0.986749
1.02854
0.958011
1
1.01912
0.955814
1.03693
0.970664
0.980866
0.986819
0.981055
0.943722
0.94353
0.943897
0.981752
0.950869
0.952914
0.950215
0.942931
0.945434
0.94161
0.973211
0.83041
0.949358
0.956795
0.947865
1.00557
0.948577
0.940009
0.94006
0.947274
0.95395
1.05028
0.938209
0.952358
0.984493
0.986464
0.983351
0.955655
0.947725
0.962042
0.984161
1.00936
0.968451
1.0105
1.03314
0.9876
1.00663
0.984199
0.941281
0.985046
0.984959
0.983005
1.05581
1.01114
0.948644
0.991978
1.02567
0.980453
1.03307
0.930658
1
1.02766
0.971741
0.975405
0.952777
1.02725
0.95925
0.989554
0.95532
0.989264
0.952529
0.970315
1.03584
1.02666
0.978558
1.02789
0.954735
1.00398
0.9825
1.0042
1
0.955441
0.957994
1.02605
0.946169
1.01651
1.0266
0.925786
0.952882
0.997261
0.968177
1.05585
0.985135
0.995158
0.946196
0.976198
0.947892
1
0.997932
0.986623
0.963834
0.952192
0.945802
1.02666
0.983977
1.0052
0.935375
0.991243
0.995009
1.03446
0.990889
0.995414
0.958496
0.998649
1.02127
0.980534
0.995497
0.994701
0.946902
1.01387
0.980505
0.946218
0.949626
0.950546
1.00614
0.946653
0.94744
1.0271
1.01307
0.998172
0.946648
0.980541
0.987359
0.876997
1.03141
1.03231
0.881753
0.993331
1.04704
0.980015
0.989677
0.955453
1.00445
1.02746
1
0.988774
0.953175
0.99791
0.99292
1.03861
1.02425
0.995267
1.02698
0.984641
0.99267
0.944462
0.951719
1.01479
1.02375
1
1.02331
1.03292
1.00044
1.00845
0.833783
1
1.02878
1.02872
1
1.03746
0.986395
1.00494
1.0053
0.986877
1.03247
1.03723
0.952209
1.03239
1
1.03522
0.97638
0.982119
1.02708
1.02716
1.0351
0.963957
0.94636
1.0366
0.961797
1.03554
1.04064
0.94589
1.01581
1.01603
0.866392
0.947214
1.02677
1.02158
0.912832
1
0.986927
0.971812
0.986913
1.02526
1.02771
0.966055
0.980619
1.01584
0.980433
1.04759
1.02718
0.824538
1.00528
1.03188
1.03629
0.955221
0.947675
0.986542
0.986718
1.02957
1.02425
0.994993
1.02733
1.03101
1.03306
0.952285
1.03422
0.948203
0.977992
0.950554
0.952833
1.03493
1.02649
1.01567
0.990826
1.02613
0.97075
0.970845
0.969588
1.02728
0.955336
1.04264
1.00548
1.02699
0.964936
0.99243
1.04032
0.943956
0.979658
1.01664
1.00499
0.946511
1
1.03185
0.958253
0.961825
0.955735
0.96055
1
1.02547
0.948984
1.02461
0.970627
0.971285
1.0272
0.962376
0.962852
0.956252
1.02134
1.00741
1.00768
0.961618
1
1
0.986266
0.987362
1.02676
0.99957
0.952794
0.946781
0.999711
1.02658
1
1.0041
1.02416
0.958084
0.968973
0.971247
1.02694
1.02775
0.819954
0.970643
0.861393
0.953816
0.974657
0.971229
1.02755
0.971591
0.974697
0.973695
1.00438
0.973331
0.985014
0.98491
0.975219
1.01947
0.9746
1.02428
0.986977
0.976551
0.996429
0.976533
0.996615
0.977447
1
0.998926
0.977849
0.994602
0.980545
0.999308
0.829593
0.995968
0.979256
0.996167
0.993954
0.994055
1.03531
0.982277
0.992391
0.9912
0.940774
1.02739
0.995655
0.981647
0.977596
0.990814
0.992904
0.9928
0.983692
1.03541
0.984176
1.02691
0.959051
1.02797
1.02956
0.995495
0.98503
1
1.02658
0.986397
0.986255
1.02783
0.961512
0.992693
0.991251
0.987605
0.995507
0.994952
0.987838
0.989933
0.990512
1.06486
0.990096
0.973444
0.991418
0.991241
0.949655
0.991114
0.963781
0.99373
0.993964
0.992746
1
0.992812
0.986927
0.99535
0.995714
0.985778
1.04129
0.973092
0.987308
0.966802
0.996936
0.997499
0.999105
0.965344
0.969909
1.03304
1
0.968683
0.968248
0.971642
0.999687
0.99219
0.956824
1.00139
1.01496
1.00235
0.960059
1.01532
0.94843
0.953989
0.966677
1.00327
1.00426
0.997453
1.02684
0.972025
1.00536
0.995082
0.985995
0.955623
1.05003
0.973362
1.02258
1.02237
0.988551
1.00691
1
1.01513
0.97128
0.967249
0.967173
1.00774
1.0088
1
1
1.00998
0.981529
0.947089
0.983458
1
0.986775
0.982982
1
0.982968
0.987033
0.985742
1.02713
0.992971
1.01838
1.01128
1.0268
1.02411
0.973899
0.985395
1.01272
1.01334
0.979622
0.972979
1
1
1.02507
1
1.01489
0.98908
0.967824
0.952744
0.952434
0.973366
0.948558
1.01608
0.952337
0.982927
0.958949
1.00326
1.00748
1.02556
1.00451
0.962783
0.864776
0.976676
0.986316
0.965151
1.03743
1.01747
1.01809
1.02825
1.02314
0.948811
1.02513
0.953735
1.00838
1.03544
0.811536
1
0.982019
0.987636
0.827849
1.02954
1
0.986561
0.986317
0.987803
1.02562
1.01978
1.02038
1.02699
0.994648
1.03208
1.02697
1.02621
1.05207
0.929525
1.02184
0.95508
0.98763
0.975491
1
1.02684
1
1.01176
0.994541
0.986661
0.98655
0.869966
1.04325
1
1.02348
0.980959
0.980769
0.984514
0.986347
0.955266
1.02452
1.00355
0.986742
1.05116
0.984659
1
1.01231
1.02659
1.03304
1.02479
1.0048
0.975118
0.956887
0.987504
1
0.95764
1
1.00203
1.02344
0.987449
1
1.02631
1.01962
1.01475
0.836172
0.993136
1.02692
0.957344
0.959547
1.01627
1.01047
0.962052
0.98459
0.991347
0.975176
1.02854
0.957964
0.986992
0.964756
0.971317
0.984162
0.98706
1.02885
0.960764
0.987117
0.860536
0.98697
0.986794
0.947581
0.96444
0.948148
0.948308
0.959315
1.00409
1.00425
1.03038
0.98799
0.953662
1.03599
0.987332
0.984333
1.00384
0.962804
1
1.03175
1
0.961032
1.00366
1.03466
1.02825
0.984177
0.948376
0.963526
1.00338
1.02711
0.947972
1.02637
0.985658
1.00541
1.01599
1.01621
1.02991
1.00352
1.02788
0.962365
0.951527
0.987675
0.940379
0.963869
1.02075
0.958328
1.02726
1.03298
1.03097
0.962804
0.982854
1
1
0.982756
0.964583
0.991826
0.965156
1.0334
1.03207
1
1.03266
1.00392
1.01717
1.02819
0.957272
0.989871
0.984172
0.966766
1.00498
0.94557
0.951519
1
0.949933
0.988712
0.955975
0.946676
0.994335
1.04384
1.03404
0.954054
0.873451
1.04337
0.954423
0.910436
0.973043
0.986535
0.87394
1.02904
0.96469
0.967049
1.00537
1.02565
1.00403
1.00516
0.953602
0.953066
0.9833
1.03507
1.00376
0.953456
1.0269
0.953504
1.01374
0.935211
1.01528
0.987984
1.00667
1.02618
0.980992
1.03749
1.02157
1.03381
1.02281
1.0106
0.986897
0.991564
1.02712
1.03583
1.0317
0.951115
1
1
0.951568
0.990378
1
1.00199
1
1.00526
0.98657
1
0.983476
1.02746
0.94154
1.02741
1.00478
1.03579
0.975795
0.948874
0.982179
1
0.959323
0.961138
1.02624
1
1.00658
0.965652
0.966874
1.00735
0.983479
0.95402
1.03498
1.00773
1.03636
0.961282
0.96121
0.961273
0.961446
0.991757
1
0.957563
1.00084
0.957781
0.98707
1.02453
1.03638
0.984789
1.03582
1.03443
0.963101
0.968378
0.926517
0.983729
0.954732
1
1
1.04531
0.95849
0.95896
1.0163
0.967917
0.936611
0.98747
0.962271
0.961991
0.956377
1
0.988674
0.9993
1.03602
0.99051
1
0.961453
0.9564
0.990871
1.00674
1.02272
1
1.04108
1.01706
1.00547
0.959176
0.959487
0.970865
1
1
0.968707
0.95889
0.987121
0.99884
0.986427
0.985922
1
0.986035
0.970388
1.03595
0.987091
0.986487
1.03525
0.970366
1
1
0.985007
0.964583
1
0.9722
0.964548
1.02259
1.02766
0.972291
1
0.973584
0.970414
0.970334
0.966638
0.966637
1.02253
1.00002
1
0.976125
1.03568
0.985449
1
0.923121
0.975993
1
1.00091
0.989629
0.947065
1.0365
1.01004
0.992048
0.953881
0.959421
1
0.961929
0.980062
0.962305
1.03182
1
0.962164
1.03883
0.978754
1.02257
0.969518
0.98536
0.981973
0.919702
0.947607
0.969265
1.03532
0.969231
0.934776
0.969333
0.981145
0.992791
1.00465
0.970227
1.02258
1.02039
0.983298
0.966704
0.966331
0.971986
1.02185
0.963716
1.02154
0.94543
1.02126
1.02046
1.02246
0.983823
0.971071
0.97149
0.971461
0.962781
0.986214
0.984631
0.974082
1.03496
0.96287
0.983449
1
0.986127
0.947029
1.0257
1
1.01301
0.987036
1
0.975244
1
0.987456
0.964734
0.976394
0.95623
1.01909
0.989709
1.01001
0.98926
0.964654
1.03438
1
0.997202
0.964773
0.977781
1.00625
1.02032
1.0216
1.02157
0.980151
0.993357
0.979904
1.03212
1.02882
1.02755
1
1.03112
0.981862
0.993468
0.98205
1.03373
1
1
1
0.983736
1
0.95119
0.973356
0.984277
1.01623
1.01627
1.00726
0.97733
0.985439
1
1.03312
0.986207
0.998551
0.93809
1.0428
1
0.987697
0.98262
1.03268
0.999436
1
0.967037
0.983321
1.01591
1.02284
1
0.988355
1.00099
0.997126
0.989343
1.0322
1
1.02749
0.997201
1.00188
1.01817
0.952053
1.01723
0.991089
0.980997
0.980686
1.03152
1.02629
0.99182
1.03085
0.995957
0.963366
0.962376
0.99444
0.993587
1.03018
0.949308
0.955395
0.980766
0.980521
1.00519
0.995954
0.946988
1.02563
1.02949
0.965056
0.988837
0.996108
1.00645
1.00221
0.983595
1.01904
1.01891
0.99479
0.945825
0.995105
0.997606
0.967927
0.965476
1.0155
1.00273
0.999331
1.0095
0.950077
1.00316
0.99995
0.990058
1
1.01106
0.846703
1.00152
0.990512
1.00567
0.961961
1.00714
1
0.995665
1.00602
0.988633
1.00463
0.987689
0.987513
1.03859
1.01443
0.98472
0.968448
1.00555
1.0182
1.0157
0.984796
0.965892
1.01727
1.01832
1.01664
1.01619
1.0156
0.987013
1.01149
0.966821
0.985963
1.02637
1.02505
1.01738
0.953803
1
0.99031
1.00903
1.00295
1.03065
1.01039
0.970033
1.00425
0.982866
0.969118
1.02913
0.971344
1.0389
1
0.992856
0.992762
1.01658
1.0195
1.03056
1.01354
0.984787
1.0285
1.02165
1
1.01516
0.978841
1.01861
0.944832
0.984367
1.0231
1
1.00455
0.945706
1
0.969087
0.966102
1
0.996654
0.996755
0.997139
0.985815
1.02437
0.98091
0.972972
0.950961
0.982468
0.952901
0.988052
0.983727
1.03007
1.02086
0.986779
1.03921
1.0267
0.983552
0.955061
1.03599
1.05073
0.964872
1.05995
1.01596
1.02216
0.997438
0.962044
0.950417
0.922146
0.993976
0.982426
0.98834
1.02533
1.02382
0.995972
1
1.00238
1.01064
1.00243
0.948112
0.986206
0.972345
0.994248
1.02257
1
0.952334
0.957012
0.95912
0.967255
1.00429
0.890399
0.982251
1.0268
1.02641
1.02216
1.03034
1.02754
0.984529
0.993505
0.959598
0.984881
0.988451
1.00384
0.985436
1.00643
1.0065
1
0.98918
0.955963
1.07717
1.03137
1.02895
1.00799
1.00539
0.981111
0.9981
1.03606
0.954813
0.971139
0.969826
1.00993
1.00368
1.00916
1.02955
1
1.00935
1.00939
0.981776
1.01321
1.03919
1.03059
1.01805
1.02185
1.00413
1.00293
0.968926
1.00319
1.02124
0.974902
0.966577
0.975618
1.02653
0.998003
0.999056
0.979148
0.999451
1
1.0086
1.00888
1.00987
0.953932
1.01089
1.00797
1.01339
1.01349
1.007
1.01181
1.03223
1.00905
1.01002
1.00812
1.01103
1.00705
1.01196
1.00448
1.00226
0.969158
1.00349
1.00691
1
1.00231
1.01393
1.00465
1
1.00328
1.0037
0.953982
1.01409
0.971476
1.02605
0.952531
1.02413
1.0267
0.956204
0.968277
1.01596
1.02787
0.960849
0.990443
0.990077
1.03401
0.987794
1.0161
0.988321
0.98285
1.01104
0.985918
0.987423
0.987788
0.986293
1.01721
1.02765
1.01725
0.983015
1.01788
1.02017
1.01801
1.0352
1.01745
0.95016
1.0255
1.01
1.00347
0.98445
1.00486
1.00022
1.01945
0.984598
0.985111
0.984145
0.98567
1.01463
1.01959
0.95469
1.03385
1.03562
1.00459
1.04427
0.986516
1
1.0205
1.02058
1.02157
1.0216
0.984854
1.00523
1.03454
1.00678
0.978309
1.03589
1
1.02137
1
0.95993
0.949734
1
0.990376
1
1.01859
1.03516
0.967175
0.960547
1.02612
0.96748
1.03659
1.0052
0.985541
1.02237
0.98969
1.02243
0.979871
1.03272
0.983414
1.02017
1
1.02774
0.945101
1.0361
1.00002
0.938216
1.07642
0.970319
1
1.01998
1.02271
1.02263
0.984163
1.03629
1.01967
1.02274
1.02282
0.982754
1
1.01965
0.947483
0.98085
0.978215
1.03291
1.00992
1.02564
0.983569
1.02558
1.03615
0.987258
0.995525
1.02257
1.03624
1.01277
1.01012
0.988996
1.03631
1.02852
1.00537
0.989165
1.02943
1.03586
1.03626
0.988869
0.981797
0.981232
1.03655
1.03224
0.985675
1.02029
0.94451
1.0486
0.965706
1.03578
1
0.967853
1
0.967031
1.02202
0.981064
1.03619
1
1.03658
1.02378
0.98518
1.02305
1.02496
1.0242
1.01121
1.0306
0.96901
1.02553
1.02583
1.02216
1.00006
1.03258
1.02449
1.02179
1.02401
1.02314
1.03055
1.02737
1.02683
1.02501
1.02116
0.956116
1.02575
1.0002
1.03817
1.02605
1.02644
1.00778
1.02134
1.0053
1.02648
1.01915
1.027
0.974293
1.02732
1.03585
1.02005
1.02021
1.0059
0.967686
1.01966
1.02612
1.02744
0.894561
0.963874
0.991107
1.01939
1.01088
1.00658
1.02787
1.0184
1.03449
1.02794
0.949781
1.02805
1.01865
1.02802
1.02803
1.00731
1.02813
1.01754
1.03397
1.01777
0.988547
1.01671
1.02787
1.02794
0.989278
1.02774
1.00867
1.02779
1.03336
1.00394
0.988913
0.986569
0.989402
1.01685
1.03174
1.03107
1.03487
1.03037
1.02968
1.02899
1.01575
1.01573
0.968119
0.981008
0.981611
1.0149
0.951419
1.02259
0.961413
1.02656
1.03455
1.01596
1.03436
1
0.993427
0.984239
1.03444
1.00995
0.951899
0.951024
1.03138
1.02656
1.00111
1.01514
1.00848
0.952814
1.03367
0.94236
0.954613
1.00945
1.00579
1.00624
0.970209
1
0.990175
1.01408
1.0266
1.01301
1.01421
1.01302
0.953982
0.951914
1.03209
1.03139
1.03071
1.02934
1.03003
0.986648
1.01326
1.00438
0.985656
1
1.00807
1.01168
1
1.00837
1.00839
0.985604
1.02955
1.00419
1.03018
0.984972
1.01187
0.994358
1.02243
1.00418
1
1.01137
1.0108
0.95618
0.946145
1.01063
0.988688
0.947087
1.00996
1.00914
0.988413
1
1.01106
1.03869
0.953333
1
0.966954
1.01286
1.01006
1.03831
0.986218
1.00864
0.966412
0.98723
0.963486
0.97196
1.00895
0.969588
1.01836
1.00812
0.956207
1.00915
0.978773
1.02746
1.0275
1.03599
1.00836
0.986361
1.00603
1.02468
0.981596
0.995452
0.991552
1.00083
0.99193
1.00723
0.948329
1.00453
1.0257
1.02528
0.948862
1.00727
1.00614
0.991099
1
1
1.04849
1.02707
0.970507
0.952593
0.953072
1.01649
1.02577
1.0065
1.01275
1.04735
1.01789
1.01961
0.966507
0.994626
0.991593
1.01894
1.00557
0.988982
1.02794
1.00862
1.00557
0.956274
1.0172
0.984148
0.969747
0.969526
1.02699
0.974217
1.00178
1.03564
0.996726
0.964223
0.96337
1.00256
0.990417
0.961484
0.981989
1.00409
0.990736
1.0029
1.02751
1.00402
1.04613
0.986985
1.02787
1.03025
1.00579
1.02784
1.00289
1.04614
0.990469
1
1.01357
0.983259
1.02902
0.986192
1.00325
1.00681
0.98662
1.03031
0.987174
1
1.01599
1.01673
1.03031
1.03831
0.980381
1.00991
0.976026
0.973274
1.02103
0.987227
1.00252
1.03085
1.00256
0.976817
1.02187
0.999808
0.981056
1.00099
1.02969
1.00113
1.03179
0.988737
1.03106
1.00089
0.930176
0.999099
0.928539
1.03173
1.03321
1.03297
0.931275
0.959422
0.930452
1.01313
0.990339
1.0329
0.986594
1.00083
1.00001
0.992979
0.883167
0.987639
0.936808
0.894159
0.909498
0.959402
0.98399
1
0.99832
1.02691
1.01029
0.954583
0.876679
1.00656
0.962108