/*--------------------------------*- C++ -*----------------------------------*\
  =========                 |
  \\      /  F ield         | OpenFOAM: The Open Source CFD Toolbox
   \\    /   O peration     | Website:  https://openfoam.org
    \\  /    A nd           | Version:  12
     \\/     M anipulation  |
\*---------------------------------------------------------------------------*/
FoamFile
{
    format      ascii;
    class       volScalarField;
    location    "4.425";
    object      p;
}
// * * * * * * * * * * * * * * * * * * * * * * * * * * * * * * * * * * * * * //

dimensions      [1 -1 -2 0 0 0 0];

internalField   nonuniform List<scalar> 
46253
(
1.0022
1.05274
1.21558
1.05217
1.2115
1.20811
1.07315
0.886697
1.0481
1.04741
1.01303
0.774756
1.02657
1.02701
1.00802
1.04535
1.04482
1.035
1.03531
1.04059
1.03989
1.20075
1
0.977566
0.836702
1.0502
1.04313
1.04271
1.05052
0.889686
1.01289
1.019
1.01846
1.03772
1.03708
1.07358
1.02986
1.02909
0.89351
1
1.05193
0.758488
1.02182
1.02121
1.00319
1.03282
1.0321
1
1.01311
1.01222
1.01007
1.00939
1.19988
0.896417
1.2231
0.832541
1.00513
1.0044
1.09976
0.939648
1.07313
0.985138
1.07173
1
1.0094
1.0246
1.02397
1.19716
0.837671
1.01991
1.12617
1.00203
1.00086
0.955681
1.19975
0.979115
0.98529
0.98498
0.999995
1.01629
1.01549
0.995965
1.19837
0.995744
1.17158
1.15494
0.964268
0.964129
0.937956
1.07314
1
0.958972
1.13986
1.00759
1
1.00735
1.13075
1.0006
1.09717
1.07317
1
1.12316
1.18457
1.00894
1.22222
1.1426
0.75693
0.943937
0.943036
0.775641
0.921019
0.998321
0.997677
1.00033
0.999993
0.954902
0.753238
1.0105
1.22599
0.825246
1
1.20418
0.993488
0.992601
1.11159
1.23252
1.073
0.816882
1.24156
0.981145
0.928098
0.926775
1.20364
0.902649
0.979672
1.07121
0.974324
0.974668
0.81949
1.07258
0.986984
0.91838
0.917349
0.998538
0.98765
1.23366
0.968429
0.966848
0.893088
1.07322
0.772831
1.20365
0.97723
0.976147
0.974047
0.925752
0.802508
0.999991
0.959888
1.21998
0.958789
0.757721
0.830754
1.07218
0.991314
0.972435
0.923526
0.971594
1.33484
1.07302
0.952878
0.952141
1.19828
0.976724
1.21829
1.04757
0.885557
1.12823
0.957275
0.752411
1.21916
0.971129
0.946845
0.946076
1.12488
0.962853
0.962037
1.00971
1.12423
1.12371
1.2029
1.11494
0.981465
1.11508
1.1309
1.13084
0.91498
1.1068
0.879331
0.879513
0.999979
1.07227
0.955998
0.955124
1.0728
0.811112
0.96576
0.937064
0.936254
1.05883
0.999992
1.22705
1.10032
1.16913
0.924618
1.10597
0.996487
1.15457
0.931025
1.19834
1.19747
0.930365
1.04417
0.949853
0.949152
1.08437
1.10853
1.11453
0.873375
0.875415
1.06095
1
1.07647
1.07608
1.11064
1
1.12879
1
1.0591
1.07236
1.11072
1.11909
1.10258
1.1292
1.07112
1.1955
0.999994
0.963309
1.10178
0.921144
0.920441
1.06895
0.866898
1.101
0.867497
0.940511
0.939183
0.849913
1.08259
1.09955
1.00046
0.850728
0.792516
1.00073
0.94666
0.999995
0.999964
1
0.933902
0.911826
0.933481
1.11411
1.07555
1
0.911204
1.10971
1.22844
1.04131
0.889584
0.862717
0.849251
0.847559
1.19595
1.16921
1
0.953385
0.949907
0.831621
0.990989
1.0721
1.09207
1.09194
0.973677
1
1.08749
1.03598
1.11699
1.0352
1.09958
0.904492
1.21739
0.90325
0.819589
1.21398
1.12416
0.924318
0.92323
1.06399
1.0004
1.12418
1.12374
0.907008
0.999998
0.899259
1.09542
0.899157
0.819179
1.08633
1.07319
0.883796
0.799732
1.09484
0.948765
0.840948
0.897503
0.986587
1.09431
1.10429
0.892487
0.891321
0.842327
0.928885
1.12463
1.07176
1.09374
0.978504
0.848913
0.914899
0.913789
0.999991
1.20043
1.20412
0.999996
1.22576
1.09102
0.885986
0.886166
1
0.836064
1.12287
0.939236
1.07299
0.740239
1.00196
0.770825
1.0883
0.909024
1.07262
0.908151
1.07315
0.784576
1.12274
1.09781
1.12313
1.1237
1.09612
1.09537
1.09528
0.88338
1.09076
1.08758
1.08825
1.08816
0.885602
1.09617
1.0803
0.816646
1.11266
1.09053
1.07026
1.14585
0.938773
0.801696
0.900853
0.869521
0.900506
1.09171
1
0.882108
1.25267
1.12516
0.993415
0.883452
0.984642
1.09031
0.890343
0.959628
0.959477
1.09875
0.906344
1
1.04314
1.04563
1.07798
1.11249
1.13448
1.13048
1.07355
1
1.09313
1.09667
1.1246
1.19684
1.12482
0.900777
1.12022
0.974652
1.10346
1.09246
0.843704
1.12237
1
0.880825
1.09578
0.896772
1.09591
1.04723
0.88091
0.895894
1.11969
0.894629
1.05005
1
1.13202
1.13238
0.878203
0.935148
1.12316
1.13046
0.903805
0.803457
1.13017
0.961118
1.12033
0.879107
0.977405
1.11532
1.09809
0.842436
0.999991
0.862562
0.908344
1.07277
0.973399
1
1.12785
0.947853
1.13045
0.88901
0.881253
1.09672
0.879576
0.880442
0.887743
1.09016
0.882471
1.12595
1.12378
1.12441
1.0888
1.12411
0.925267
1
0.943058
0.814137
0.87956
0.844613
0.959777
0.878649
0.954714
1.03126
1.03637
1.07304
1.10962
1.1076
1.07312
1.24599
0.999992
0.860727
1.09687
0.750849
0.863595
0.885252
0.985471
0.879792
1
1.08888
0.885318
0.899272
0.78577
0.884419
0.876338
0.87447
1.01528
1.06417
1.09728
1.012
1.00537
1.07462
1
1.09743
0.880183
1.12042
0.861932
0.985438
1.07272
1.12463
0.884357
1.09606
1.07208
0.971625
1.12354
0.900143
1.10027
1.09877
0.900302
1.0931
0.898212
0.903456
0.898496
0.999997
0.873404
0.874407
0.999995
0.880627
0.893995
1.09082
1.07212
0.884326
0.999999
0.970534
0.838418
1.09187
1.11159
0.882358
1.07311
1.07284
1.11074
1.11191
0.727543
1.10764
1.10858
0.874645
0.851665
0.872944
1.02029
1.09554
1.09666
1.09128
1.09293
1.10024
1.1332
1.07624
0.885023
0.740098
1.121
1.1281
1.0731
1.11672
1.12017
1.12967
0.97561
0.996205
1.07226
0.983472
1.12441
1.11026
0.821149
0.999992
1.12293
1.12097
0.88301
1.1173
1.12736
0.882382
0.97966
1.01877
1.09681
1.02112
1.02137
1.02303
0.966578
1.1259
0.863557
0.864834
0.994197
0.987227
1.11958
1.11593
0.952942
1.09248
1.21752
0.93269
1.11939
1.21693
1.13586
1.08974
0.999359
1.00621
1.08904
1.09591
1.01381
0.884008
1.0905
1.09083
0.944702
1.08311
1.08469
1.07692
1.07723
1.0707
1.07262
1.07058
1.07103
1.03013
0.878986
1.07025
0.949856
1.07149
1.0693
1.09093
0.937936
1.00341
1.07113
1.09644
1.06312
1.09134
1.06309
0.999992
0.882682
1.05584
1.08682
1.05868
1.16113
1.12701
1.05117
1.13292
1.05074
1.13332
0.740825
1.08699
0.861371
1.0167
1.12195
1.12247
1.04143
1.04377
1.09765
0.896152
1.03822
1.03922
0.943128
1.10518
1.10342
1.02781
0.856586
1.02786
1.09256
0.87884
1.01815
0.810833
1.01942
0.855093
0.879901
1.08973
1.12194
1.12154
1.01284
1.01442
0.873125
1.08886
1.08761
1.00561
0.869765
1.00595
0.803504
1.09476
0.993436
0.995418
1.1229
1.12535
1.12339
0.974745
1.12577
0.894195
0.9271
1.01444
1.10771
0.984023
1.10913
0.987009
1.10849
1.09376
0.897817
0.897496
0.979322
0.97805
0.875479
0.901589
0.968359
0.903126
0.970764
1.10504
0.96045
0.958865
0.961846
1.12529
0.843873
0.953727
0.954387
1.30466
1.09211
1.09212
1.12464
0.945809
0.875372
0.9465
1.03925
1.03514
0.887271
0.779466
0.938761
0.940185
0.924843
0.931815
0.932009
0.828665
0.836691
1.10138
0.946417
1.22615
0.853011
1.07554
0.807634
0.852329
0.805699
1.04358
0.96725
1.08744
1.10208
1.08914
0.877838
1.10919
1.10484
1.10846
1
1.10641
0.879397
1
1.09995
1.09827
0.839446
0.827373
1.09363
0.955425
1.04818
1.00728
0.999998
1.0726
1.09311
1.13311
1
0.947317
1.11039
0.878814
1.12085
1.01266
0.963131
1.01359
0.817772
1.12508
0.984483
1.06309
1.0224
1.12921
0.999984
1.09746
1
1.10952
1.01478
1.01462
0.947071
0.984125
0.968425
1.08919
0.863384
1.09249
1.08971
1.01625
0.919123
1.13379
0.894256
1.13261
1.13333
0.961116
0.957995
1.09252
1.01788
0.825486
0.876594
1.00729
0.879018
0.844976
1.02323
1.13205
0.883213
0.8841
1.12715
0.845511
1.10831
1.13263
1.06243
1.03185
1.03523
0.878696
1.11212
1.10281
1.09381
1.09755
0.951737
1.12365
0.899449
0.882388
0.819404
1.15399
1.0974
1.096
1.16195
1.00353
1.00422
1.08598
1.13782
1.07257
0.875731
0.991623
1.0035
1.13842
0.991164
0.87691
0.88128
0.878138
1.07201
0.877257
0.90653
0.809417
0.878212
0.799655
0.967118
1.12375
1.12312
0.965949
0.999995
1.12573
0.882316
0.879477
1.12473
0.833019
0.829531
0.895911
0.831014
0.850172
0.83038
0.832851
0.829452
0.803348
0.804747
1.06658
1.13825
0.857887
1.139
1.06572
0.884877
0.841686
0.83211
1.10087
1.12423
0.907696
1.10517
0.900712
0.907682
1.12938
1.12832
0.92476
1.1309
0.999996
1.13174
1.09111
0.881
0.901703
0.888747
1.08346
1.0882
0.866418
1.0932
0.904792
0.903212
0.863607
1.12987
0.90584
0.889816
0.904795
1.09115
1.09121
1.09069
1.09096
0.888673
0.898628
1.13861
0.940511
1.12661
0.831204
1.13794
0.829336
1.02218
0.998488
1.09953
0.836265
0.839711
1.0002
1.18885
1.08622
0.832856
0.896704
0.895299
0.840767
1.09422
1.09495
0.877033
1.04951
1.11291
1.11017
0.900248
0.750627
1.01951
0.893059
1.08208
1.10279
1.1076
1.10357
1.11019
1.10914
1.25673
1.10996
0.998418
0.832569
0.81594
0.833079
1.09469
1.09431
1.04367
0.832638
1.07926
1.02071
1.10954
1.05166
1.06136
1.06466
1.04736
1.05284
0.999993
0.939759
1.06245
1.07157
1.04915
0.878848
1.06671
1.0268
1.03994
1.07184
1.10548
1.07049
1.03954
1.07204
1.12185
1.02837
1.09548
1.06959
1.0702
1.02897
1.07446
1.0905
1.02308
1.07566
1.12315
1.07903
1.02537
1.10426
1.01668
1.08083
1.05679
1.08742
0.816337
1.01671
1.12235
1.1305
1.12443
1.00816
1.02314
1.12617
1.12491
1.13138
1.00974
0.810545
1.02941
0.999112
1.09424
0.903736
1.00091
0.99016
0.990639
0.833137
0.978957
0.980277
0.975333
1.09185
0.989338
0.977307
1.09416
0.965728
0.970301
1.09427
1.09415
0.966317
0.860403
1.00753
0.95559
0.955789
0.949021
0.863453
0.950779
1.10367
0.94289
1.09178
0.916579
0.85929
0.943775
0.945037
0.938756
0.87849
0.934609
0.91728
0.91727
0.982209
0.935853
0.929831
0.930319
1.00463
0.992751
1.11413
1.09206
0.997151
1.08964
1.04021
0.975905
1.09523
1.07256
1.23008
0.87504
0.999982
0.901038
0.909742
0.99244
0.997097
1.09158
0.933196
1.01528
1.02427
0.871033
1.02452
1.01423
1.01689
1.01425
1.01809
0.939017
0.825365
0.90425
0.886669
1.09185
0.905701
0.843946
0.804634
0.94195
1
1.04959
1.01919
0.778228
1
1.11955
1.03109
0.913279
1.10275
1
1.08574
1.09676
0.875096
0.942927
0.844932
1.0124
0.942023
0.954771
1.02762
0.854015
0.918078
0.855292
0.917496
1.11907
0.762295
0.827256
1.07161
0.907755
1.02058
0.92096
1.09601
1.02038
1.07262
0.87706
0.926505
1.10587
1.09581
1.06884
0.893637
1.13643
1.09076
1.06537
1.09747
0.92954
0.800915
0.999992
1.12518
1.0619
0.893782
0.886418
1.08179
0.999985
1.12975
0.802847
1.08925
0.812128
0.901903
0.902023
1.22819
1.02593
0.900112
1.11912
0.914907
1.05891
0.942836
1.06681
0.901165
0.832341
1.08009
1.08117
0.904788
0.910964
0.909813
0.883112
0.893359
0.893105
1.07998
1.08632
0.913922
0.876486
0.876339
0.801248
0.943752
1.11785
0.890457
0.974135
0.906398
0.787126
0.902462
1.0198
1.10524
1.10325
1.10411
0.839678
0.892468
1.08183
0.877481
0.898115
0.942348
1.04905
0.839447
0.875666
1.06757
0.986363
1.0491
1.08479
1.08682
0.891974
1.05903
1.09812
1.10545
1.11487
0.895739
1.10012
0.89288
0.733576
0.921946
0.913281
1.09394
1.11544
0.913179
1
1.11081
0.881202
1.10174
1.11125
1.07925
0.938632
1.10437
0.882769
0.911598
1.04495
1.12015
1.03375
1.09159
1.06892
0.893821
1
1.03706
1.09353
1.08085
1.14032
0.899518
1.10716
1.14363
1.1485
0.833617
1.08262
1.14649
1.05392
0.909971
0.999999
1.14006
1.14101
1.06988
1.07028
1.04443
1.07892
0.845512
0.803096
1.08044
1.06369
1.07121
0.87339
1.0462
1.13
0.938025
0.845062
0.965725
1.01318
1.06969
1.05766
1.07093
1.12523
1.08214
1.05107
1.06551
1.1106
0.866346
0.931897
1.06655
0.873681
1.05898
0.901701
0.885289
1.06067
0.925955
1.13952
0.899832
1.06894
1.0617
1.11275
1.12138
1.12856
0.937006
1.05115
1.05532
1.05675
1.12251
1.1207
1.11582
0.980192
1.02192
1.06536
0.93093
1.12144
1.05204
1.06174
0.912513
0.848692
1.05913
1.04512
1.00312
0.907168
1.0467
1.09
1.12409
0.977275
1.04059
1.02225
1.04133
1.07462
0.821072
1.02403
1.12551
1.03137
1.05893
1.07025
1.03244
1.11777
1.08892
1.08449
0.899416
1.07335
1.09149
1.12706
1.02668
1.02804
0.83506
1.02088
1.13856
1.02164
1.01226
1.09822
1.01458
1.13901
0.915421
0.924799
0.827405
1.05126
0.829736
0.910633
1.12491
1.0162
0.920366
0.919134
1.01349
1.01418
0.801181
1.01438
1.01335
0.93924
1.01321
1.01324
1.05838
1.03742
1.00676
0.931304
0.96693
1.01508
0.99952
1.00805
1.01449
1.0746
1.01616
1.06985
0.913287
1.01592
1.00095
0.962327
0.83201
0.897285
1.01665
0.9873
0.842992
0.994991
0.995993
0.995749
0.855476
1.08973
1.03642
0.807823
0.841124
0.888628
0.989422
1.01861
0.830028
1.14241
1.05492
1.06182
1.09263
1.07993
1.07295
1.08902
1.0878
1.05184
0.973587
1.08994
0.978718
0.973088
0.980864
1.08922
0.821048
0.981911
1.01333
1.01327
0.960315
0.972781
0.825079
0.998354
1.05393
0.935014
1.06479
0.964649
1.03483
0.968018
0.960777
1.08759
0.973089
1.10984
0.955205
1.09364
1.07471
0.928223
0.961979
1.02286
0.884937
1.02529
0.89717
0.950548
1.01287
0.953908
0.842508
1.04961
1.10688
0.96047
0.959306
1.10763
1.0823
1.09527
1.08908
1.09643
1.09018
1.11026
0.855718
1.08715
1.05133
1.10193
0.818122
1.06082
1.09743
0.820388
0.951342
0.803809
1.08991
1.03489
1.04391
0.874575
1.10364
0.909369
1.00229
1.10858
1.1068
1.0836
1.05934
0.836049
0.841762
0.928297
1.14096
1.10771
1.08457
0.925489
0.886964
1.04106
1.08666
1.19761
1.1406
1.11688
0.966822
1.08556
0.949307
0.951023
0.978738
1.11324
0.936205
0.940746
1.09263
0.897257
0.941795
0.962542
1.02076
1.07433
1.08083
1.12068
1.07537
0.984228
0.937709
1.0499
1.07107
1.09914
1.09214
1.09833
1.03782
1.10938
1.09796
1.00257
0.840076
1.03796
0.828706
1.08512
1.04879
1.03918
1.11349
0.920672
1.05884
1.11423
0.925548
0.996843
0.926929
1.13692
1.09744
0.82867
1.05874
1.00774
0.820314
0.727721
0.91998
0.922012
0.925912
1.04149
0.903949
0.901639
0.912504
1.11637
0.921627
1.0894
0.997837
0.919219
1.03611
0.925663
0.859173
1.12249
1.12276
0.912331
0.913313
1.04324
1.11971
0.910277
0.998814
0.906462
0.909326
0.910067
0.921354
0.90665
1.01162
0.999656
1.01272
1.10269
1.0536
0.906396
1.08089
0.915359
1.10923
0.862236
1.00848
1.1058
0.865555
1.1469
0.799413
1.10123
0.828899
0.896553
0.91654
1.10162
1.00271
0.88709
0.916914
1.08107
0.914437
0.887312
1.04749
1.06091
1.13063
0.910246
1.11834
0.853633
0.852863
0.919066
0.775666
0.995996
1.11884
0.994264
1.0283
0.899203
1.08236
1.10296
0.979012
0.981171
0.984315
0.98396
1.09545
0.837002
0.915505
0.977638
0.985233
0.973524
0.858594
0.890161
0.999981
0.880686
1.13753
0.886964
1.08259
0.868876
0.81686
1.06615
1.04031
1.08861
1.02584
0.960704
0.923837
1.12847
0.986927
0.961961
1.02855
1.23392
1.10756
1.12212
0.85664
1.09074
0.866109
1.08558
0.953682
0.878007
1.12869
1.02649
0.958135
0.937006
1.13158
0.959862
0.844995
0.865924
0.999969
1
0.962103
1.07656
1.07769
0.970597
0.886615
1.03183
1.0371
0.993201
0.968151
0.983949
1.08812
1.02133
1.124
1.07508
1
1.04773
1.12209
0.986331
1.04813
0.83386
0.785675
0.753581
0.97785
0.864553
0.836086
0.852993
0.978692
1.06611
0.989646
0.853994
0.9004
1.04653
1.03889
1.05574
0.832894
0.928664
0.967527
1.10242
0.972234
1.12706
0.820195
1.06429
1.12411
0.827103
1.12428
0.820917
0.903059
1.014
0.8449
1.12601
1.12623
0.989424
0.989397
0.810863
0.891869
1.1283
1.13685
0.894448
0.966765
0.836713
1.13429
1.07863
0.969485
0.805802
0.808589
1.08716
0.883629
1.00794
0.955393
0.882059
1.12938
1.01264
0.832608
0.972373
1.03666
1.00348
1.01283
1.17988
0.932295
0.887655
0.941654
0.891098
0.941501
0.933935
0.990113
0.880993
0.872903
1.13343
0.962258
1.10104
1.07175
0.888592
0.875764
0.892522
0.877613
1.08625
0.920755
1.09879
1.12159
0.887546
0.918159
0.993935
0.980657
0.913323
0.993273
1.07905
0.977329
0.919056
0.988055
1.03583
0.952659
1.12782
0.820919
1.1322
0.934691
0.977014
0.98823
1.12609
0.913994
0.886974
1
1.0903
0.882065
0.920166
1.08904
1.08657
1.08867
0.91605
1.08767
0.907051
0.975375
0.97498
0.835015
0.918574
0.909583
1.09699
1.10241
0.977753
0.832916
1.10279
0.799915
1.01848
1.08964
0.879695
0.88204
1.10218
1.12459
0.931338
0.910634
1.13982
0.969363
0.966444
1.12266
0.847829
1.03426
1.10624
0.875365
1.09104
1.09279
0.946276
0.879051
0.820499
0.885793
1.09554
1.02239
0.958649
0.861729
1.01817
0.845909
1.06161
0.915043
1.02967
1.06304
1.04838
0.836618
0.921923
0.966432
0.855388
1.04236
1.05291
1.05406
0.837169
0.818776
0.974222
0.861542
0.981817
0.814385
1.05826
1.00301
1.04353
0.855728
1.07303
1.02325
1.03608
1.04851
1.05388
0.907945
1.04972
1.08081
1.09463
1.05942
1.0674
1.09345
1.03051
1.01942
1.06428
1.02465
1.00979
1.08461
0.761018
1.08783
1.09122
0.938004
0.9674
0.991953
1.07225
1.06839
1.04208
0.807824
0.86363
0.934897
1.01051
1.00475
0.93493
0.769336
1.01756
1.1325
1.07327
1.1344
1.09637
0.920681
0.866701
0.99688
0.960341
0.922177
0.85551
0.865655
1.04234
0.87363
0.922199
0.974176
0.954867
0.993326
0.881049
0.997864
0.883164
1.10157
1.08841
0.958099
1.00505
1.13442
1.10845
0.916035
0.967238
0.871938
0.928368
0.978435
0.982855
1.1024
0.843725
1.13465
0.951127
0.984461
0.98718
0.914306
0.831616
0.86723
0.883507
0.975878
0.894937
0.983466
0.865969
1.13459
0.914766
0.899483
0.840687
0.9624
1.08387
0.95043
1.13621
1.08028
0.794127
0.971023
0.923942
0.952712
1.12528
0.919956
0.804715
1.02287
1.08414
0.919541
0.985013
1.11098
0.972127
0.907974
0.800697
0.960952
0.878236
0.923126
0.96446
0.953673
0.960386
0.909125
1.04734
0.908491
0.905527
0.954588
0.960576
1.04917
0.918676
0.968168
0.901457
0.919783
0.956658
0.902215
0.898467
1.07127
0.96745
1.04304
0.894218
0.950591
1.13091
1.04375
1.1225
0.972871
1.04054
0.953474
1.13495
1.03643
0.939439
0.992113
0.919824
0.952483
1.03791
1.05786
1.07278
0.9894
1.1065
0.976604
0.948212
0.968435
0.919805
1.1263
0.943935
0.929649
0.901085
0.825081
1.02154
0.981393
0.965599
0.920737
1.03263
0.951813
0.935458
0.958322
1.08659
0.946563
0.940015
1.03389
0.922505
0.980016
0.932165
0.96909
0.95173
1.03072
0.946193
0.966163
0.922851
1.02571
0.928707
0.94092
0.968469
1.2062
0.968902
1.10928
1.13463
1.02659
0.91993
0.973269
0.930121
0.963855
0.92408
0.983766
1.02134
1.08815
1.12865
1.02625
0.90351
0.863188
1.02288
0.981554
1.08546
0.998948
0.959351
0.87593
0.913997
1.1167
0.981346
0.998114
0.977323
0.916132
0.904165
0.920053
1.01469
1.0434
1.00298
0.966595
1.0154
0.899376
1.05228
1.0861
1.09809
0.92301
1.13373
1.13365
0.927113
0.834838
0.997308
0.8903
1.04728
1.07959
1.08761
1.08002
0.951157
1.07822
0.866944
1.05096
0.878928
0.898357
0.982884
0.87024
0.892919
0.830527
1.00481
0.802648
0.876765
1.01864
0.983383
0.88453
1.00678
1.00633
1.08361
0.938224
0.871894
1.10264
1.13266
0.976217
1.09429
0.986576
1
1.00137
0.871632
0.890219
0.982609
0.970877
0.997737
0.934714
1.09342
1.04967
0.979049
1.07235
0.86035
1.00013
1.02813
0.938471
0.844895
1.08958
0.995378
0.88023
0.935513
0.956406
1.01523
1.0327
0.954945
0.991959
1.01767
0.938188
1.01366
0.874117
1.01234
0.887129
0.850137
0.91986
1.08948
0.992733
0.921894
1.14376
0.885288
0.952264
0.935959
0.94866
1.03068
0.984021
0.981754
0.965939
0.807574
1
1.0159
0.990867
0.888671
0.999331
0.89862
0.985595
1.13567
0.84522
0.849789
1.08099
1.13097
1.06761
1.07994
0.987051
1.05707
0.827028
1.03282
0.879447
1.10334
0.859702
1.16954
1.01017
0.972948
0.838433
0.978206
0.97896
0.997937
0.874497
1.08573
1.06428
0.910953
1.03394
1.00062
1.07531
0.912671
1.01582
0.842015
0.980016
0.866025
1.00105
1.10465
0.962336
0.936665
0.958383
1.02183
1.03223
0.865496
1.06083
0.844188
0.865856
1.10654
0.981586
0.904527
1.02686
0.956045
1.02943
0.830566
0.85536
0.959515
1.07094
0.94532
1.03978
1.03282
1.13081
0.8998
1.00078
1.0357
0.977857
1.13158
1.08756
0.893455
0.816331
0.869537
0.764398
1.04446
1.05766
0.971687
1.07185
1.04977
0.981416
0.840372
1.04684
1.04883
0.911536
0.773444
0.972722
1.04343
0.985276
0.900589
0.897707
0.971304
1.07668
0.909666
0.991047
0.90441
1.13409
0.917675
0.967754
0.850577
0.8473
1.0253
1.05488
1.12721
0.854058
0.851842
0.910759
0.851953
0.843268
0.941042
0.87896
1.05211
1.01446
1.05613
0.836631
1.02988
0.914483
0.866664
1.05388
1.03478
1.05061
1.02554
0.863266
1.07242
0.828635
0.798472
0.838651
0.799434
0.951085
1.07634
0.852619
1.08257
0.878499
0.95232
1.07675
1.08562
0.867029
1.02832
1.09239
0.915514
1.01147
1.12692
0.88678
1.08487
0.766283
1.07126
0.972677
0.809453
0.943229
0.800763
0.857523
0.941963
0.856883
0.922337
0.921361
1.0943
1.11883
1.11985
0.931136
0.927556
1.03255
0.935928
1.0007
1.05427
0.93538
1.05493
1.09324
0.985556
0.758733
0.930899
1.01349
1.05716
0.898475
0.923331
0.930592
0.942807
0.78124
1.01413
0.990363
1.1325
0.80911
1.12518
0.939874
0.758755
1.08845
0.918453
0.965894
0.942237
0.995952
0.904306
0.920452
0.981558
0.88998
1.11453
0.839229
0.839359
1.00363
1.06559
1.11301
0.919713
0.982779
1.02692
1.06387
1.07172
1.00342
0.920825
0.923764
0.812858
1.06823
1.08353
1.05772
1.06633
0.91099
1.0756
0.987467
1.07136
0.912737
1.1277
0.858853
0.962182
0.96299
0.915921
0.909952
1.01537
0.983616
1.07644
0.916776
1.06164
0.949156
1.12884
1.09332
1.13134
0.813305
0.907497
1.12744
0.831181
1.08012
1.0787
0.988211
0.920957
0.758419
0.880696
0.912232
0.976885
0.828782
0.927133
1.00444
0.829376
0.905249
1.08908
0.973177
0.913954
0.909618
0.970497
1.01101
1.00516
1.08167
0.827374
1.0888
1.08601
1.1111
0.874596
1.03326
0.907192
1.10488
1.09022
0.840847
1.08638
1.08428
0.952905
0.904791
0.97286
1.10677
0.926124
0.922869
0.84296
0.975742
0.850975
0.976757
0.895513
1.03615
0.917096
1.08359
1.12957
0.887899
0.916277
0.844822
0.977746
0.901965
1.13137
0.913819
0.997166
0.920317
1.09251
0.954474
0.951876
1.09619
0.919119
1.07931
0.950986
0.853264
0.956518
1.25425
0.951256
1.12364
0.897701
0.995223
1.01343
1.04818
1.11779
1.08372
0.981657
0.851543
0.89513
1.03234
0.916434
0.8711
0.991624
0.964614
0.915108
1.09322
1.11246
1.1216
0.755948
0.869584
0.882759
0.886727
0.82272
1.07631
1.13205
1.09921
0.961991
1.13188
1.07523
0.878447
0.822575
0.920071
1.10224
0.872748
0.865349
0.878275
0.878233
1.00935
0.852649
1.11259
0.867218
0.882718
0.881138
0.845081
0.969644
0.878756
0.920215
1.13173
0.911823
1.11541
1.07024
1.12987
0.900787
0.92527
0.946016
0.871375
1.12692
0.898106
1
1.13164
0.870051
1.13193
1.07384
0.98729
0.892124
1.18311
0.948878
0.872708
0.892065
1.06647
1.11145
1.09188
1.1307
0.89742
1.06292
1.06155
0.855704
1.04693
1.06961
0.85841
1.08613
0.894385
1.08767
1.05074
1.11492
0.904151
0.865816
0.866211
1.04438
0.989533
0.902677
0.963208
1.12911
1.13192
0.935308
1.05063
1.04012
0.840767
0.910976
1.0518
1.13149
1.12429
1.13169
1.11814
0.861609
1.13289
0.895844
0.908956
1.03504
1.03201
0.916295
1.04555
0.848966
0.732731
1.073
0.841964
1.00202
1.12204
1.05998
1.02838
1.04592
1.13373
1.02836
1.04174
0.93421
0.931983
0.893302
0.918708
0.989212
1.04426
1.09284
1.03531
0.818602
1.02691
1.02448
0.931155
0.916786
1.13359
0.912704
1.07514
0.938378
1.01709
0.909567
1.13412
0.813054
1.03049
1.13454
1.02844
0.755139
1.02606
1.08379
1.12808
0.937946
1.13194
0.940201
0.850064
0.927051
0.756555
1.02513
0.992545
1.12938
0.96645
0.863021
1.07099
0.933263
1.00977
0.900281
0.928173
0.9134
0.92423
1.02092
1.01899
0.919526
0.910191
1.13396
1.13144
0.824402
0.95119
0.94439
1.02577
0.940333
1.00223
1.01184
1.05148
0.941152
1.13023
0.858243
0.946134
0.993987
1.03385
0.928924
0.85715
0.823499
1.0474
1.00325
0.97435
0.941784
0.926052
0.967274
0.983588
0.818419
0.850296
0.988902
0.85868
0.819416
1.13373
0.88165
1.08616
1.13273
1.04622
0.958104
0.995399
0.851197
1.09641
1.12597
0.850796
0.876771
1.10363
0.983142
1.08709
0.953413
0.880519
1.13287
1.13737
1.0862
0.955657
1.0831
0.910346
0.971318
1.13444
0.990376
1.06094
0.951673
1.13305
0.755215
1.10332
1.01187
0.932035
1.23692
0.965225
0.928126
1.0404
0.962797
0.871848
0.845881
1.06179
0.97335
0.984175
0.943205
0.964817
0.961101
0.956278
0.872603
1.0143
0.847705
1.10314
1.03602
1.09461
1.12288
0.916103
0.971726
0.966694
1.04731
0.926476
0.84361
1.153
0.960992
1.00054
0.913749
0.922614
0.875549
0.973959
0.944495
0.843773
1.13104
0.845218
0.964983
1.08742
1.13322
1.13118
0.9681
0.844203
0.984024
0.857275
0.918822
1.10862
0.975012
0.969553
0.947142
0.975692
0.859158
1.13542
1.12528
0.954749
0.97326
0.95354
0.863656
0.944427
1.08615
1.13187
0.863088
0.975736
0.947761
0.962992
0.941969
0.913838
0.913089
0.914499
1.17499
0.954665
0.913328
0.954618
1.08377
0.942057
0.985613
0.956066
1.13448
0.982226
1.13225
1.06495
0.993772
0.864772
1.07582
0.940157
0.92651
0.881293
0.934932
0.956702
1.05272
1.1324
0.910256
0.919336
1.03529
0.983162
0.980677
1.13475
0.94348
0.982696
0.928979
0.918358
0.935661
1.13508
1.08724
0.953607
1.15487
1.08712
1.04583
0.846086
0.935654
1.06745
0.881308
0.942139
0.925265
0.859434
1.05523
1.07858
0.909553
0.988033
1.03269
1.07862
0.963201
0.961434
0.929025
0.919583
1.03758
0.968266
1.09924
0.982506
1.08971
0.99402
0.960876
0.996266
1.13474
0.987659
0.929039
0.959626
0.913199
1.08935
0.983534
0.806858
1.09638
1.16063
0.917735
0.914077
0.96952
1.13192
1.10031
0.893323
1.13144
0.91813
0.982967
0.914661
1.13176
1.13371
0.967827
0.913631
1.13162
0.983761
1.13189
0.903362
0.994759
0.829148
1.13153
0.916595
1.13342
0.906888
1.05069
1.11485
0.965203
0.988789
0.904867
0.89187
1.08783
1.08016
1.07846
0.979219
0.986288
0.896697
0.90844
0.984834
0.893302
0.997753
0.945082
0.832071
1.0373
1.11539
1.07527
0.920799
0.909894
0.833126
1.07558
0.977506
1.03865
1.08556
0.892249
0.861863
0.999201
0.863009
0.993959
1.13302
0.88446
0.998281
1.00089
0.892643
0.897002
1.06193
0.865301
0.965507
0.920023
0.985787
1.11757
1.15711
0.993481
0.94081
0.871439
1.08232
0.973427
0.919501
0.942539
0.984371
1.0988
0.884286
0.995928
0.93768
0.983524
1.03103
1.1008
0.971315
0.863211
0.981766
1.0019
0.873621
1.07646
1.13414
0.998057
0.862697
0.936099
1.13475
0.978599
1.12925
1.13206
0.984781
0.999211
0.999999
0.869109
1.06861
0.987901
1.10609
0.869968
0.986657
1.00173
0.839119
1.08362
0.856477
0.966153
0.931287
0.976451
1.06069
1.06604
0.995504
1.13109
1.00596
0.948526
0.970335
1.07271
1.15692
0.8322
0.959564
0.838631
1.03803
0.993368
0.999866
1.00514
1.11346
0.939323
0.946504
1.15831
0.967367
0.841689
0.855901
0.838571
0.963781
1.1311
0.944016
1.08247
1.00617
0.921581
1.05304
1.07347
1.01684
0.981489
0.986874
0.950353
0.776406
1.05436
1.13503
0.934634
1.15986
1.00517
0.877245
1.08095
1.03345
1.0049
0.983366
1.01637
1.13128
1.0033
1.0956
1.01521
1.13139
1.11495
0.973278
1.11578
1.01355
0.924663
1.13118
1.12714
1.01045
1.01897
0.99229
1.09042
0.922001
1.09131
0.940004
1.03806
1.07659
1.01167
1.09495
1.09003
0.946975
1.00838
0.941743
1.00705
1.13248
0.960406
0.976528
1.20626
1.06042
0.96253
1.13245
0.936199
0.958005
1.02546
0.936737
1.13105
1.13518
0.935984
1.01939
1.13564
1.09621
0.945032
1.01745
1.0033
1.01895
0.767574
1.02372
0.915379
0.942018
0.867018
0.829233
0.828817
1.09086
1.01634
0.867085
0.939937
0.878795
1.11857
1.07497
1.01786
0.936488
1.09241
1.09655
0.849933
1.10433
1.02978
0.959967
0.965909
1.08311
1.02431
1.02833
0.970898
0.940042
0.947906
1.08592
1.02591
0.956538
1.12428
0.756681
1.02221
0.973012
0.982932
0.935042
0.965237
0.973033
0.765465
0.766036
1.09548
0.77664
1.02404
1.05082
1.07593
0.990136
1.13113
0.977164
0.825133
1.09555
1.08515
1.13212
0.997607
0.989484
0.951012
0.995062
1.02784
1.00288
0.771568
1.08
0.915922
0.814617
1.0715
1.01066
0.93786
1.03845
1.07909
1.07656
1.08314
0.940948
0.979528
1.02703
0.974858
0.997764
0.96516
1.03802
0.839151
1.0883
0.964168
1.0974
0.937524
0.912712
0.944274
1.0777
1.13445
0.762471
1.13253
0.94882
0.839947
1.00348
0.877371
0.852044
0.902544
0.970799
1.0547
0.889958
1.07467
1.07372
0.975324
1.03138
0.858544
1.07462
0.940337
0.948156
0.971339
1.15412
0.932819
1.00251
0.975973
1.1335
0.81021
1.03218
0.946161
0.850027
0.988898
0.858872
0.973226
0.851757
1.0745
1.02682
0.991713
0.972446
1.0477
0.974297
0.934198
0.845874
0.938585
1.045
1.11218
0.969047
0.960893
1.0465
0.94147
1.07387
1.10271
0.951635
1.04763
1.09885
0.972276
1.02178
0.824995
0.937415
0.97649
0.972029
0.961319
1.02963
1.13255
1.07406
0.949465
0.86043
0.850151
0.83791
0.979272
1.13155
0.977863
0.768671
0.857283
0.950692
0.857871
0.773749
1.08096
1.01722
0.973845
0.975925
1.03171
0.84662
1.0796
1.11863
1.12438
0.972573
1.06027
0.969029
0.99445
0.971816
0.832378
1.24532
1.12093
0.864069
0.860177
1.05765
1.13056
0.855002
0.868866
0.978581
1.08639
0.896641
0.998085
0.996358
0.923166
0.811576
0.977042
1.04187
1.13256
1.01933
0.978637
1.04431
1.04692
0.841097
1.00592
0.753496
0.867905
0.97021
1.05157
0.983022
0.883003
1.05567
0.995875
1.07875
0.948106
1.07513
1.04241
0.996347
0.760598
1.05417
0.839759
1.03197
1.03837
1.07405
1.03825
0.910283
1.08565
0.922644
0.983716
0.879931
1.09211
0.986708
1.08113
0.971715
1.03102
0.975353
0.978059
0.802097
0.928025
1.0697
0.985349
0.895318
0.906085
0.915078
0.941358
1.07761
0.75021
0.998247
0.837049
1.04935
0.955992
0.990303
1.06893
0.859823
0.954886
0.988582
0.989285
0.929998
0.863694
0.93348
1.01991
0.984902
1.04837
0.877963
0.914537
0.879699
0.910956
0.827291
1.12594
0.992871
0.923185
1.06956
0.961468
1.12366
0.850898
0.826064
1.06259
0.98722
0.993909
1.07937
0.92405
1.07903
0.899112
0.995841
0.912835
1.01056
1.06088
0.74836
1.09721
0.924994
1.16965
0.949332
1.07092
0.965107
1.05286
0.984741
0.994523
0.831118
0.971184
0.896539
0.831436
1
1.10228
0.941887
1.05496
0.8515
0.998003
1.03064
0.948047
1.07867
0.772101
1.04103
0.936222
1.06555
0.996254
1.05799
0.920953
0.974396
0.911989
1.05332
0.931161
1.1341
0.940288
1.13096
1.03875
0.989943
0.845446
1.2295
0.99652
0.996739
1.05568
1.06663
1.04343
1.16605
1.029
0.962663
0.793427
0.928091
0.943912
0.975729
1.08411
1.06936
1.12426
0.90981
0.92374
1.03538
0.980338
1.04976
0.914168
0.85436
1.04561
1.03268
1.05993
0.934162
0.825091
1.05957
1.06802
0.944831
0.795294
0.73944
0.979506
0.951588
1.0575
1.05906
0.936715
0.986139
1.0378
0.997941
1.02553
0.976787
0.933859
0.755996
1.1022
0.994003
1.03518
1.08399
1.10511
0.850908
1.0839
0.933362
1.15124
0.949752
1.05857
0.934443
0.917177
1.11021
1.03706
1.01455
1.02151
0.952217
0.921952
1.03148
0.971078
1.04963
0.896051
0.975863
0.965999
1.00313
0.97936
0.963427
0.987908
1.08597
0.923606
0.954274
0.94429
1.06547
0.912913
0.978453
0.960446
1.04738
0.869786
0.996867
0.772607
0.981893
0.957026
1.06396
0.985955
0.991816
1.07625
0.99779
0.871641
0.929358
0.936924
0.971829
1.04986
0.943384
0.943506
0.996648
0.972226
0.927543
1.01144
0.997611
0.978475
0.977657
1.07572
1.10426
0.963118
1.08365
0.945949
0.923205
0.995772
1.00428
1.13836
1.05125
0.980072
1.04429
0.974274
1.06977
0.964787
0.976776
0.946881
0.960879
1.13141
0.952978
0.987001
0.971319
1.11197
1.03454
0.922099
0.976562
0.98962
0.953363
1.02375
0.742277
1.00711
1.00982
1.1184
1.06903
1.07027
1.05006
0.997704
0.931249
1.00236
0.978529
0.968369
0.926727
0.927784
0.923137