/*--------------------------------*- C++ -*----------------------------------*\
  =========                 |
  \\      /  F ield         | OpenFOAM: The Open Source CFD Toolbox
   \\    /   O peration     | Website:  https://openfoam.org
    \\  /    A nd           | Version:  12
     \\/     M anipulation  |
\*---------------------------------------------------------------------------*/
FoamFile
{
    format      ascii;
    class       volScalarField;
    location    "4.425";
    object      T;
}
// * * * * * * * * * * * * * * * * * * * * * * * * * * * * * * * * * * * * * //

dimensions      [0 0 0 1 0 0 0];

internalField   nonuniform List<scalar> 
46253
(
1.00186
1.01485
1.05738
1.01469
1.05636
1.05551
1.01642
0.966254
1.01357
1.01337
1.00491
0.929814
1.00758
1.00771
1.00229
1.01281
1.01266
1.00992
1.01001
1.0115
1.01129
1.05367
1
0.994537
0.944978
1.01414
1.0122
1.01208
1.01424
0.967194
1.00389
1.00544
1.00529
1.01069
1.0105
1.02049
1.00851
1.00829
0.96822
1
1.01315
0.924188
1.00625
1.00607
1.00195
1.00933
1.00912
1
1.00378
1.00353
1.00292
1.00273
1.05346
0.96912
1.05924
0.949144
1.00152
1.0013
1.02785
0.982522
1.02028
0.995734
1.01999
1
1.00268
1.00703
1.00684
1.05277
0.950812
1.0066
1.0305
1.00062
1.00029
0.986799
1.05342
0.994995
0.995845
0.995766
0.999999
1.00467
1.00445
0.998889
1.05308
0.998828
1.04313
1.04202
0.989689
0.989651
0.9818
1.02022
1
0.987109
1.03812
1.00223
1
1.00215
1.03574
1.00017
1.02708
1.02027
1
1.03375
1.0496
1.00279
1.05902
1.03573
0.923644
0.983692
0.98343
0.930134
0.976987
0.999569
0.999382
1.00009
0.999998
0.986353
0.92229
1.00285
1.06025
0.946775
1
1.05453
0.998181
0.997918
1.0307
1.06175
1.02026
0.944019
1.06378
0.994639
0.978939
0.978552
1.0544
0.96775
0.994212
1.01965
0.992619
0.992714
0.944887
1.02008
0.996328
0.975998
0.975681
0.999793
0.99651
1.06185
0.990902
0.990442
0.96813
1.02024
0.929165
1.0544
0.993485
0.993163
0.992782
0.978907
0.939252
0.999997
0.9884
1.05847
0.988075
0.923923
0.948567
1.01993
0.993825
0.99206
0.974209
0.991818
1.08648
1.02034
0.986343
0.986126
1.05305
0.991428
1.05805
1.01444
0.963263
1.03508
0.987294
0.922011
1.05826
0.991901
0.98456
0.984329
1.03421
0.989269
0.989031
1.00387
1.03404
1.0339
1.05421
1.03167
0.994682
1.03171
1.03578
1.03577
0.975149
1.02943
0.963944
0.964002
0.999994
1.02011
0.987255
0.987001
1.02011
0.942445
0.99035
0.981639
0.981387
1.01648
0.999998
1.06066
1.02556
1.04567
0.975253
1.02921
0.999249
1.03986
0.979809
1.05307
1.05285
0.979613
1.01359
0.985448
0.985243
1.02194
1.02989
1.03147
0.962088
0.962725
1.01736
1
1.02118
1.02106
1.03044
1
1.03533
1
1.01681
1.02047
1.03046
1.03268
1.0283
1.03544
1.01962
1.05236
0.999998
0.989605
1.02809
0.976857
0.976635
1.0195
0.96002
1.02788
0.960215
0.98267
0.982277
0.954782
1.02169
1.02749
0.999914
0.954055
0.935869
1.00047
0.98454
0.999999
0.99999
1
0.980671
0.973993
0.980544
1.03136
1.0208
1
0.973804
1.0302
1.06056
1.01163
0.96691
0.958889
0.954399
0.953853
1.05247
1.04569
1
0.986443
0.985464
0.948875
0.997664
1.02007
1.02575
1.02569
0.991821
1
1.02456
1.0104
1.03212
1.01023
1.02561
0.971769
1.0583
0.971388
0.944886
1.05696
1.03412
0.977815
0.977491
1.01789
1.00046
1.03403
1.03391
0.971071
0.999999
0.970156
1.02639
0.970114
0.94481
1.02419
1.02026
0.96505
0.938278
1.02623
0.980637
0.94691
0.969371
0.996438
1.02609
1.02876
0.968044
0.967685
0.952243
0.980137
1.03424
1.01985
1.02594
0.993839
0.954469
0.974926
0.974588
0.999997
1.05359
1.05452
0.999999
1.0599
1.02521
0.966063
0.96612
1
0.950264
1.03368
0.982429
1.02023
0.917672
1.00056
0.928474
1.02448
0.973143
1.02023
0.972883
1.02024
0.933171
1.03373
1.02703
1.03383
1.0339
1.02658
1.02638
1.02635
0.96524
1.02514
1.02428
1.02447
1.02444
0.965914
1.02659
1.02263
0.943963
1.03098
1.02508
1.0196
1.03723
0.982206
0.938944
0.97065
0.960612
0.970545
1.02539
1
0.964801
1.06693
1.03428
0.998385
0.965222
0.99564
1.02502
0.967378
0.988536
0.988566
1.02728
0.972307
1
1.01314
1.01391
1.02196
1.03093
1.03672
1.03577
1.02033
1
1.02577
1.02673
1.03413
1.05292
1.03419
0.970596
1.03298
0.99266
1.02854
1.02559
0.9528
1.03354
1
0.964406
1.02658
0.969369
1.02661
1.01328
0.964434
0.969097
1.03291
0.966512
1.01405
1
1.03608
1.03617
0.963584
0.980846
1.03376
1.03576
0.971488
0.939498
1.03559
0.988797
1.03308
0.963867
0.993738
1.03176
1.02711
0.952405
0.999997
0.958811
0.972919
1.02002
0.992326
1
1.03499
0.985047
1.03567
0.966979
0.964536
1.02674
0.96401
0.964282
0.966595
1.02498
0.964918
1.03448
1.03392
1.03408
1.02461
1.034
0.977869
1
0.983632
0.943078
0.96403
0.953087
0.988593
0.963746
0.986926
1.00982
1.01133
1.02035
1.03018
1.02964
1.02027
1.06487
0.999998
0.958208
1.02494
0.921499
0.959085
0.965786
0.995831
0.964082
1
1.02463
0.965851
0.970132
0.933595
0.965571
0.963028
0.962437
1.00526
1.01686
1.02689
1.00442
1.00174
1.02064
1
1.02693
0.963556
1.03303
0.958161
0.995804
1.0201
1.03414
0.965508
1.02656
1.01999
0.991836
1.03479
0.970402
1.02769
1.02729
0.970451
1.02577
0.969806
0.97142
0.969893
0.999999
0.960487
0.960088
0.999999
0.96434
0.968503
1.02515
1.02007
0.965502
1
0.992067
0.951089
1.02544
1.03079
0.96488
1.02023
1.02011
1.03047
1.03078
0.913211
1.02965
1.0299
0.96246
0.955374
0.961921
1.00572
1.02642
1.02672
1.02528
1.02573
1.02768
1.03639
1.02111
0.965715
0.917699
1.03319
1.03505
1.02025
1.03205
1.03297
1.03546
0.99286
0.999137
1.01994
0.995505
1.03408
1.03035
0.945415
0.999998
1.0337
1.03318
0.965085
1.03221
1.03486
0.96489
0.994437
1.00534
1.02676
1.006
1.00607
1.00654
0.990415
1.03447
0.958955
0.959364
0.998699
0.996274
1.03281
1.03192
0.9859
1.0256
1.05786
0.97905
1.03276
1.05767
1.03708
1.02487
1.00012
1.00209
1.02468
1.02652
1.00346
0.965397
1.02507
1.02516
0.984196
1.02308
1.02351
1.02141
1.02149
1.01972
1.02024
1.01969
1.01981
1.00982
0.963829
1.0196
0.985499
1.01994
1.01934
1.02518
0.981283
1.00188
1.01984
1.02667
1.01765
1.02529
1.01765
0.999998
0.964985
1.01566
1.02414
1.01644
1.04383
1.03476
1.01437
1.03631
1.01425
1.03642
0.91796
1.02419
0.958455
1.00571
1.03344
1.03358
1.01168
1.01233
1.02699
0.96917
1.01078
1.01106
0.983646
1.029
1.02853
1.00788
0.956765
1.00789
1.02562
0.963796
1.00516
0.94184
1.00552
0.956287
0.964134
1.02486
1.03343
1.03333
1.00366
1.00411
0.961476
1.02463
1.02429
1.00161
0.960997
1.00171
0.939504
1.02622
0.998132
0.9987
1.03369
1.03433
1.03381
0.992727
1.03444
0.968564
0.978615
1.00436
1.02967
0.995421
1.03005
0.996282
1.02988
1.02595
0.969683
0.969584
0.99406
0.993691
0.962729
0.970845
0.990868
0.971318
0.99157
1.02896
0.988794
0.988083
0.988959
1.03432
0.952836
0.986567
0.986762
1.07913
1.02551
1.02551
1.03415
0.984219
0.962696
0.984425
1.01167
1.01006
0.966412
0.931436
0.982118
0.982543
0.977934
0.980036
0.980094
0.947868
0.950475
1.02799
0.984672
1.06
0.955615
1.0209
0.940951
0.955391
0.940111
1.01209
0.991416
1.02425
1.02817
1.02471
0.963495
1.03007
1.02891
1.02987
1
1.02932
0.963986
1
1.0276
1.02715
0.951406
0.947277
1.02591
0.987323
1.01482
1.00305
0.999999
1.02007
1.02577
1.03636
1
0.984746
1.03038
0.963775
1.03314
1.00361
0.989353
1.00388
0.944116
1.03426
0.99561
1.01575
1.00636
1.03534
0.999995
1.02694
1
1.03026
1.00421
1.00417
0.984654
0.996425
0.991868
1.02472
0.959111
1.0256
1.02486
1.00463
0.976202
1.03654
0.96876
1.03623
1.03642
0.989035
0.988109
1.02561
1.00509
0.946846
0.963075
1.00208
0.963839
0.953016
1.00661
1.03608
0.965149
0.965428
1.0348
0.953187
1.03058
1.03624
1.01745
1.00901
1.00995
0.963739
1.03093
1.02917
1.02674
1.02455
0.986003
1.03389
0.970187
0.964819
0.944853
1.04207
1.02692
1.02655
1.04389
1.00102
1.00122
1.02386
1.03759
1.02005
0.962817
0.997611
1.001
1.03775
0.997479
0.963184
0.964547
0.963563
1.02007
0.963287
0.972364
0.941535
0.963587
0.938105
0.990505
1.03391
1.03375
0.990162
0.999999
1.03443
0.964871
0.963983
1.03417
0.949136
0.947977
0.969096
0.948693
0.954889
0.948273
0.949055
0.947961
0.939425
0.939908
1.01866
1.0377
0.956771
1.0379
1.01843
0.965669
0.951944
0.948813
1.02784
1.03404
0.972721
1.02899
0.970576
0.972716
1.03539
1.03511
0.978117
1.03578
0.999999
1.036
1.02523
0.96446
0.97088
0.96677
1.02398
1.02445
0.95986
1.0258
0.971827
0.971341
0.958968
1.03551
0.972148
0.967202
0.971827
1.02524
1.02526
1.02512
1.02519
0.966846
0.969934
1.03792
0.982888
1.03466
0.948523
1.03774
0.94792
1.00736
0.996196
1.02749
0.950195
0.951307
1
1.051
1.02392
0.949052
0.969315
0.968913
0.951616
1.02607
1.02627
0.963213
1.01449
1.03105
1.03032
0.970432
0.921399
1.00522
0.968206
1.02279
1.02836
1.02964
1.02857
1.03043
1.03005
1.06774
1.03027
1.00054
0.949171
0.943513
0.948463
1.02688
1.02681
1.01302
0.949234
1.0221
1.00691
1.03094
1.01451
1.01717
1.01807
1.01332
1.01483
0.999998
0.982175
1.01747
1.01996
1.01382
0.963786
1.01863
1.0076
1.01126
1.02003
1.02917
1.01966
1.01115
1.02009
1.03341
1.00804
1.02647
1.01942
1.01959
1.00821
1.02074
1.02507
1.00655
1.02107
1.03375
1.02198
1.00719
1.02875
1.00475
1.02247
1.01591
1.02424
0.943668
1.00476
1.03354
1.03568
1.03409
1.00234
1.00657
1.03455
1.03421
1.03591
1.00279
0.941732
1.00896
0.999758
1.02608
0.97157
1.00027
0.99719
0.997328
0.949371
0.993954
0.994336
0.992901
1.02543
0.998104
0.993475
1.02605
0.990098
0.990618
1.02608
1.02606
0.99027
0.958053
1.00268
0.987117
0.987176
0.985173
0.958945
0.985694
1.02927
0.98335
1.02541
0.975428
0.957623
0.983614
0.984238
0.982402
0.963674
0.980875
0.975641
0.975638
0.99555
0.981247
0.979439
0.979585
1.00261
0.998413
1.03228
1.02549
0.999682
1.02484
1.01186
0.99348
1.02691
1.02012
1.061
0.962442
0.999995
0.970648
0.973287
0.99817
0.999482
1.02536
0.980202
1.00435
1.00689
0.960942
1.00664
1.00406
1.00481
1.00406
1.00515
0.982087
0.946807
0.971664
0.966228
1.02543
0.97211
0.952663
0.939757
0.983361
1
1.01394
1.00546
0.930996
1
1.03405
1.00746
0.974488
1.02934
1
1.02379
1.02675
0.962674
0.983634
0.952508
1.00354
0.983378
0.987174
1.00792
0.955941
0.975933
0.95635
0.975707
1.03125
0.925526
0.947237
1.02026
0.972784
1.00585
0.976759
1.02655
1.00579
1.02024
0.963275
0.978495
1.02918
1.0265
1.01922
0.968393
1.03723
1.02514
1.01827
1.02755
0.979392
0.938547
0.999998
1.03127
1.01732
0.968437
0.966215
1.02272
0.999996
1.03651
0.939186
1.02474
0.942261
0.970942
0.970979
1.0605
1.00735
0.97039
1.03269
0.974963
1.01651
0.983376
1.01983
0.970686
0.948903
1.02227
1.02256
0.97183
0.973655
0.973366
0.965117
0.968307
0.968228
1.02224
1.02502
0.974619
0.963045
0.962999
0.938702
0.983641
1.03235
0.967455
0.992723
0.97232
0.934058
0.971111
1.00563
1.0288
1.02849
1.02872
0.951292
0.968026
1.02273
0.963357
0.969772
0.983428
1.01366
0.951187
0.962788
1.01945
0.996651
1.0138
1.02354
1.02409
0.96794
1.01653
1.02712
1.02907
1.03157
0.969038
1.02765
0.968153
0.915368
0.976992
0.97443
1.026
1.03172
0.974403
1
1.03049
0.964523
1.02808
1.03061
1.02205
0.981512
1.02878
0.965012
0.973939
1.01265
1.03296
1.00796
1.02537
1.01924
0.9685
1
1.01046
1.02589
1.02247
1.03824
0.970209
1.03038
1.0391
1.04036
0.949329
1.02295
1.03984
1.01513
0.972948
1
1.03817
1.0356
1.0195
1.02074
1.01281
1.02195
0.95319
0.939309
1.02236
1.01781
1.01986
0.962014
1.01404
1.03555
0.982264
0.953045
0.990535
1.00376
1.01945
1.01616
1.01979
1.0343
1.02281
1.01434
1.01831
1.03045
0.959941
0.98012
1.01859
0.962217
1.01652
0.970881
0.965798
1.01698
0.978245
1.03803
0.970304
1.01925
1.01727
1.03102
1.03329
1.03517
0.981662
1.01437
1.01552
1.01591
1.03358
1.03311
1.03181
0.994307
1.00677
1.01827
0.97998
1.0333
1.01461
1.01728
0.972865
0.954451
1.01695
1.0127
1.00135
0.971971
1.01314
1.02494
1.034
0.993659
1.01145
1.00632
1.01165
1.02079
0.945224
1.0069
1.03437
1.00888
1.01651
1.01959
1.00918
1.03233
1.02465
1.02346
0.970176
1.02044
1.02534
1.03478
1.00756
1.00795
0.949805
1.00594
1.03778
1.00615
1.0035
1.02722
1.00416
1.0379
0.975043
0.977891
0.947285
1.0144
0.948023
0.973581
1.03421
1.00462
0.976593
0.976219
1.00385
1.00404
0.938787
1.0041
1.00381
0.982547
1.00377
1.00378
1.01742
1.01056
1.00194
0.980043
0.990452
1.0043
0.999876
1.00231
1.00413
1.02176
1.0046
1.01948
0.974452
1.00453
1.00028
0.989104
0.948784
0.96952
1.00474
0.996367
0.95237
0.998579
0.998897
0.998797
0.956599
1.02486
1.01086
0.94092
0.951765
0.966837
0.996979
1.00529
0.947582
1.03888
1.0155
1.0173
1.02564
1.02223
1.02111
1.02467
1.02434
1.01497
0.992483
1.02492
0.993885
0.992247
0.994507
1.02472
0.945218
0.994916
1.0038
1.00379
0.98805
0.992158
0.945738
1.0001
1.01514
0.980978
1.01843
0.989781
1.00984
0.990767
0.988644
1.02429
0.992271
1.03024
0.987069
1.02591
1.02159
0.976693
0.988997
1.00649
0.965575
1.00717
0.969484
0.985628
1.00367
0.98611
0.952215
1.01394
1.02946
0.988555
0.988214
1.02965
1.02286
1.02636
1.0247
1.02667
1.02499
1.03035
0.956459
1.02417
1.0154
1.02886
0.944274
1.01703
1.02752
0.945009
0.985862
0.939614
1.02491
1.01056
1.01334
0.962427
1.02859
0.973215
1.00111
1.0299
1.02943
1.02322
1.01737
0.95034
0.952191
0.979077
1.03852
1.02967
1.02421
0.978359
0.966318
1.01158
1.02476
1.05288
1.03844
1.0321
0.99042
1.02374
0.985259
0.985769
0.99411
1.03179
0.981355
0.98271
1.02565
0.969523
0.983023
0.989167
1.00646
1.02071
1.02247
1.0331
1.02099
0.995907
0.981805
1.01365
1.01982
1.02813
1.02561
1.02726
1.01068
1.03011
1.02707
1.00075
0.951399
1.01072
0.947726
1.02362
1.01408
1.01105
1.0312
0.976672
1.01707
1.0314
0.978148
0.999077
0.978565
1.03746
1.02693
0.947714
1.01645
1.00278
0.944977
0.913279
0.976469
0.977061
0.978234
1.01243
0.971572
0.970863
0.974208
1.03196
0.976962
1.02546
0.999917
0.976252
1.0102
0.978184
0.95764
1.03358
1.03365
0.974159
0.974468
1.00959
1.03284
0.973499
1.00098
0.972334
0.973221
0.973439
0.976864
0.972401
1.00332
1.00045
1.00363
1.02905
1.01501
0.972313
1.02243
0.972703
1.03076
0.958651
1.00243
1.02916
0.959796
1.03894
0.938021
1.02795
0.947771
0.969268
0.975418
1.02805
1.00131
0.966338
0.975559
1.02254
0.974778
0.96641
1.01336
1.01705
1.03571
0.973515
1.03248
0.95533
0.955783
0.976186
0.930139
0.999365
1.03262
0.998863
1.00811
0.970088
1.02289
1.02897
0.994309
0.994846
0.995505
0.995728
1.02691
0.950426
0.975135
0.993824
0.99577
0.992782
0.957357
0.967285
0.999994
0.964334
1.03753
0.966319
1.02294
0.960623
0.943903
1.01848
1.01066
1.02456
1.00789
0.988623
0.977631
1.03515
0.996218
0.988992
1.00809
1.06191
1.02917
1.03348
0.956742
1.02514
0.959747
1.02375
0.986554
0.963487
1.03521
1.00751
0.987867
0.981955
1.03596
0.988375
0.952998
0.95971
0.999991
1
0.989034
1.02159
1.02162
0.99173
0.966212
1.00901
1.01047
0.998298
0.990143
0.995398
1.02443
1.00614
1.03397
1.02077
1
1.01342
1.03347
0.996327
1.01469
0.949387
0.933535
0.922472
0.993805
0.959276
0.950117
0.955555
0.994013
1.01847
0.99752
0.955881
0.97048
1.01417
1.01008
1.01461
0.948423
0.978942
0.990815
1.02826
0.992187
1.03478
0.944906
1.01824
1.034
0.947182
1.03405
0.945148
0.971279
1.004
0.952964
1.0345
1.03456
0.997495
0.99747
0.941819
0.967844
1.03511
1.03735
0.968644
0.990211
0.950336
1.03667
1.02188
0.991219
0.940146
0.941081
1.02418
0.965279
1.00232
0.987089
0.964762
1.03539
1.00365
0.949001
0.992163
1.01049
1.00141
1.00366
1.04864
0.980181
0.966535
0.982983
0.967607
0.982937
0.980674
0.997527
0.963831
0.961503
1.03644
0.989139
1.0279
1.02
0.966828
0.962819
0.968049
0.963399
1.02393
0.976699
1.02729
1.03334
0.966503
0.975907
0.998346
0.994534
0.97446
0.998148
1.01957
0.99372
0.976181
0.996682
1.01046
0.986097
1.03498
0.945234
1.03612
0.981169
0.992909
0.996726
1.03452
0.974669
0.966322
1
1.02501
0.964793
0.97652
1.02468
1.02402
1.02458
0.97527
1.02431
0.972508
0.993058
0.992925
0.949771
0.975894
0.973286
1.02673
1.02826
0.993725
0.949092
1.02836
0.938231
1.00586
1.0248
0.964051
0.964783
1.0282
1.03413
0.980084
0.973593
1.03533
0.991312
0.990459
1.03362
0.953922
1.00968
1.02937
0.962669
1.02503
1.02548
0.983916
0.963845
0.942758
0.965933
1.02642
1.00696
0.987646
0.958369
1.00517
0.95331
1.01724
0.974932
1.0084
1.01764
1.01361
0.950309
0.977047
0.990693
0.956346
1.01194
1.01485
1.01576
0.950481
0.944502
0.992749
0.958295
0.994343
0.943021
1.01633
1.00087
1.01226
0.956438
1.02025
1.0066
1.01019
1.01132
1.01512
0.972759
1.01397
1.02245
1.02618
1.01664
1.01882
1.02586
1.00864
1.00552
1.01797
1.007
1.0028
1.02348
0.921845
1.02436
1.02527
0.981894
0.989772
0.997707
1.02014
1.0191
1.01292
0.94101
0.958978
0.981317
1.00301
1.00137
0.980973
0.925461
1.00573
1.0362
1.02042
1.0367
1.02674
0.976675
0.95993
0.999121
0.988928
0.977129
0.956393
0.959604
1.01292
0.962361
0.977137
0.992565
0.986767
0.998102
0.964475
0.999402
0.965136
1.02804
1.02451
0.987706
1.00145
1.0367
1.02987
0.974747
0.990393
0.961612
0.979
0.993633
0.995083
1.02826
0.952606
1.03676
0.9858
0.995357
0.996161
0.974739
0.94868
0.960125
0.965242
0.99306
0.968795
0.99526
0.959726
1.03675
0.97488
0.970199
0.951622
0.989121
1.02329
0.985593
1.03727
1.0223
0.933159
0.991645
0.977663
0.986267
1.03431
0.976456
0.939823
1.00695
1.02336
0.97633
0.996141
1.03054
0.991967
0.972807
0.938528
0.988696
0.962107
0.977416
0.989728
0.986551
0.988533
0.973076
1.01332
0.97294
0.972025
0.986822
0.988803
1.01382
0.976054
0.990815
0.970805
0.976404
0.987432
0.971038
0.969748
1.01978
0.990354
1.01213
0.968459
0.985476
1.03579
1.01233
1.03358
0.991993
1.01143
0.986347
1.03684
1.01029
0.982321
0.998217
0.976417
0.986026
1.01071
1.01663
1.02022
0.99685
1.02935
0.993186
0.982107
0.990754
0.976411
1.03458
0.983662
0.979936
0.970337
0.946555
1.00599
0.994829
0.990063
0.976694
1.00923
0.986003
0.98113
0.987928
1.02402
0.984444
0.982493
1.00959
0.977229
0.994347
0.980142
0.99114
0.985979
1.00921
0.984335
0.990389
0.977332
1.0073
0.979101
0.982765
0.99096
1.05549
0.99109
1.03009
1.03676
1.00754
0.976449
0.992378
0.979527
0.989588
0.977704
0.99459
1.00607
1.02444
1.03519
1.00744
0.971427
0.958936
1.0065
0.994709
1.02372
0.999714
0.988259
0.962871
0.974639
1.03205
0.99465
0.996949
0.993734
0.97529
0.971629
0.976485
1.00419
1.01264
1.00144
0.990354
1.00439
0.970144
1.01507
1.02389
1.02711
0.977381
1.03652
1.0365
0.978833
0.949689
0.999245
0.967341
1.01358
1.02213
1.0243
1.02225
0.985808
1.02176
0.960032
1.01472
0.964008
0.969837
0.995056
0.961241
0.96815
0.94828
1.00139
0.939287
0.963132
1.00531
0.995277
0.96553
1.00195
1.00182
1.02322
0.981423
0.96157
1.02832
1.03624
0.993162
1.02609
0.996162
1
1.00041
0.961489
0.967299
0.995015
0.991606
0.999369
0.980917
1.02586
1.01396
0.993961
1.02066
0.954469
1.00005
1.00797
0.982409
0.952966
1.02483
0.998692
0.964188
0.981148
0.98736
1.00434
1.01033
0.986964
0.997711
1.00561
0.981551
1.0039
0.962276
1.00316
0.966373
0.954658
0.976698
1.0248
0.997934
0.977044
1.04044
0.9658
0.986137
0.981281
0.985068
1.00969
0.995512
0.994767
0.990162
0.940699
1
1.00453
0.997397
0.966854
0.999824
0.969934
0.995877
1.03703
0.953079
0.95454
1.02252
1.0358
1.01888
1.02223
0.996296
1.016
0.947161
1.00928
0.963975
1.02851
0.957712
1.0471
1.00291
0.991665
0.950875
0.993863
0.993958
0.999426
0.962419
1.02379
1.01798
0.973718
1.0096
1.00018
1.02097
0.97426
1.00451
0.952034
0.994268
0.959742
1.00031
1.02886
0.989209
0.979163
0.988114
1.0062
1.00912
0.959574
1.01703
0.952734
0.959685
1.02936
0.994722
0.97175
1.00762
0.987717
1.00834
0.948315
0.95635
0.98782
1.01979
0.983601
1.01122
1.00928
1.03576
0.970318
1.00023
1.01009
0.993892
1.03596
1.02428
0.968262
0.943645
0.960856
0.92622
1.01221
1.01616
0.991841
1.02061
1.01399
0.994731
0.95152
1.01318
1.01373
0.973034
0.929346
0.992143
1.01224
0.99581
0.970512
0.969546
0.991722
1.02135
0.973273
0.997303
0.971623
1.03662
0.975765
0.99046
0.95482
0.953772
1.00703
1.0154
1.03482
0.956168
0.955226
0.97324
0.955262
0.952434
0.982945
0.963751
1.01463
1.00398
1.01572
0.950256
1.00843
0.974252
0.959573
1.01237
1.00924
1.01422
1.00716
0.958601
1.02015
0.947691
0.93767
0.950676
0.937999
0.985789
1.02114
0.955475
1.02293
0.963892
0.986155
1.02136
1.02376
0.960125
1.00802
1.02558
0.975144
1.00235
1.03474
0.966262
1.02356
0.926846
1.01969
0.992097
0.941353
0.983457
0.93845
0.957042
0.983079
0.956838
0.977177
0.976883
1.02616
1.03111
1.03288
0.979835
0.977949
1.00921
0.981502
1.00018
1.01523
0.98111
1.01541
1.02587
0.995842
0.924208
0.979763
1.00385
1.01602
0.969887
0.97774
0.97967
0.983536
0.927843
1.00403
0.997249
1.0362
0.941249
1.03429
0.982431
0.924145
1.02452
0.976007
0.990214
0.983144
0.999335
0.971692
0.976613
0.994833
0.967258
1.03148
0.951166
0.951208
1.00105
1.01833
1.03107
0.976384
0.995379
1.00752
1.01786
1.02
1.00099
0.976722
0.97761
0.942507
1.01905
1.0232
1.01617
1.01853
0.97373
1.02105
0.996308
1.0199
0.974263
1.03495
0.957468
0.989065
0.989348
0.975236
0.973401
1.00563
0.996539
1.02128
0.975496
1.01725
0.985652
1.03524
1.02583
1.0359
0.94265
0.972661
1.03488
0.948547
1.01846
1.02189
0.996631
0.97676
0.919854
0.964368
0.974109
0.993584
0.947763
0.978628
1.00184
0.947959
0.971971
1.02469
0.992343
0.974633
0.973282
0.99157
1.00314
1.00148
1.0227
0.947305
1.02462
1.02387
1.03057
0.962456
1.00979
0.972567
1.02892
1.025
0.951687
1.02396
1.0234
0.986393
0.971829
0.99213
1.02942
0.978323
0.977339
0.952369
0.993026
0.954951
0.993388
0.968978
1.01079
0.975611
1.02322
1.03543
0.966617
0.975374
0.952973
0.993609
0.970966
1.03591
0.974595
0.999217
0.976565
1.02562
0.987022
0.986454
1.0266
0.976202
1.02206
0.985986
0.955681
0.987077
1.06696
0.985835
1.03388
0.969648
0.99796
1.00439
1.01355
1.03234
1.02325
0.995027
0.95513
0.968855
1.00936
0.975421
0.961347
0.996965
0.989774
0.975013
1.0258
1.03173
1.03334
0.92312
0.960869
0.965007
0.966245
0.945778
1.02125
1.03608
1.02741
0.989006
1.03604
1.02095
0.963655
0.945729
0.976566
1.02822
0.961866
0.959532
0.963603
0.96359
1.00267
0.955545
1.03096
0.960124
0.964993
0.964509
0.953071
0.991292
0.963755
0.976535
1.036
0.973984
1.03171
1.0196
1.03552
0.970653
0.978299
0.984284
0.961429
1.03474
0.969796
1
1.03598
0.961012
1.03605
1.02122
0.996225
0.967921
1.04923
0.985134
0.961854
0.967903
1.01857
1.03066
1.02544
1.03573
0.969562
1.0176
1.0182
0.956442
1.0137
1.01771
0.957308
1.0239
0.968624
1.02431
1.01426
1.03158
0.971633
0.959643
0.959772
1.0125
0.997009
0.97118
0.989281
1.03531
1.03605
0.981145
1.01533
1.01132
0.951653
0.973725
1.01455
1.03594
1.03405
1.03599
1.03243
0.958306
1.03631
0.96908
0.973107
1.00991
1.00905
0.975345
1.01282
0.954268
0.914828
1.02019
0.952039
1.00059
1.03346
1.0168
1.00804
1.01292
1.03652
1.00804
1.01177
0.980808
0.980126
0.968294
0.976077
0.9968
1.01269
1.0257
1.00998
0.944374
1.00763
1.00695
0.979865
0.975493
1.03649
0.974257
1.02092
0.982003
1.00487
0.9733
1.03662
0.942655
1.00863
1.03673
1.00919
0.922677
1.00739
1.02327
1.03505
0.981873
1.03606
0.9826
0.954638
0.978604
0.923311
1.00713
0.99825
1.03539
0.990343
0.958873
1.02064
0.980518
1.0028
0.967772
0.978943
0.974469
0.977983
1.00692
1.00541
0.976321
0.973491
1.03658
1.03592
0.94632
0.985889
0.983539
1.00772
0.982587
1.00065
1.00339
1.01448
0.98283
1.03561
0.957269
0.984316
0.998294
1.01014
0.979174
0.957135
0.946009
1.01333
1.00094
0.992489
0.983021
0.978308
0.990709
0.995377
0.94443
0.954732
0.99683
0.957408
0.944727
1.03652
0.96466
1.02391
1.03626
1.01319
0.987858
0.9987
0.955021
1.02666
1.03449
0.954892
0.962034
1.02858
0.995172
1.02416
0.986472
0.964306
1.0363
1.03836
1.02392
0.987136
1.02308
0.973525
0.991779
1.03671
0.997255
1.01542
0.985957
1.03635
0.922621
1.0285
1.00377
0.980109
1.06265
0.989951
0.978934
1.01172
0.989239
0.961574
0.953296
1.01729
0.992327
0.995468
0.983452
0.989831
0.98874
0.987502
0.961814
1.00408
0.953885
1.02845
1.01017
1.02618
1.03368
0.97532
0.991851
0.99038
1.01366
0.97845
0.95258
1.04153
0.988715
1.00016
0.974589
0.977481
0.962947
0.992505
0.983835
0.952635
1.03582
0.953066
0.989879
1.02425
1.03639
1.03586
0.990792
0.952774
0.99542
0.956927
0.976107
1.02991
0.992807
0.991218
0.984615
0.993005
0.957517
1.03696
1.03431
0.987045
0.992297
0.986517
0.958943
0.983808
1.0239
1.03604
0.958819
0.993019
0.984865
0.989298
0.98308
0.97463
0.974392
0.974839
1.0475
0.98685
0.974467
0.986879
1.02326
0.983102
0.99588
0.987522
1.03672
0.994901
1.03614
1.01815
0.998372
0.959354
1.02111
0.98254
0.97868
0.964557
0.980972
0.987445
1.0148
1.03617
0.973712
0.97629
1.00984
0.995198
0.994452
1.03679
0.983529
0.995037
0.979184
0.976
0.981242
1.03687
1.0242
0.986531
1.04202
1.02416
1.0129
0.953355
0.981188
1.01884
0.964561
0.983132
0.978069
0.957653
1.01549
1.02186
0.973282
0.996578
1.00925
1.02187
0.988815
0.988838
0.979198
0.976348
1.01061
0.99091
1.02741
0.994983
1.02486
0.997692
0.988681
0.998943
1.03679
0.99647
0.979204
0.988306
0.974403
1.02476
0.995281
0.940523
1.02665
1.0435
0.975787
0.974674
0.991207
1.03605
1.0277
0.968449
1.03592
0.975903
0.995115
0.974852
1.03601
1.03652
0.990712
0.974537
1.03597
0.995345
1.03604
0.97139
0.998511
0.94786
1.03595
0.97544
1.03644
0.972477
1.01441
1.03156
0.989952
0.996796
0.971853
0.967847
1.02436
1.02229
1.02183
0.99403
0.996074
0.969343
0.97295
0.995906
0.968286
0.999368
0.984075
0.948839
1.01053
1.0317
1.02096
0.976278
0.973049
0.949182
1.02104
0.993533
1.01091
1.02375
0.967964
0.958426
0.99973
0.95879
0.998283
1.03634
0.965538
0.999519
1.00026
0.96809
0.96943
1.01744
0.959434
0.989969
0.976476
0.99593
1.03228
1.04258
0.998146
0.982792
0.961452
1.02287
0.992402
0.976319
0.983309
0.995526
1.0273
0.965484
0.998847
0.981793
0.995276
1.00878
1.02784
0.991788
0.958839
0.994769
1.00056
0.962141
1.02129
1.03663
0.999456
0.958666
0.98132
1.03679
0.993879
1.03535
1.03609
0.995707
0.999787
1
0.960706
1.01915
0.996539
1.02924
0.961211
0.996183
1.00051
0.951086
1.02322
0.956685
0.990302
0.979928
0.993091
1.01699
1.01883
0.998725
1.03583
1.00171
0.985027
0.991324
1.02027
1.04254
0.948831
0.988833
0.950927
1.01073
0.998112
0.999974
1.00148
1.0312
0.982229
0.984427
1.04289
0.990658
0.95192
0.956444
0.950936
0.989607
1.03584
0.983759
1.02291
1.00177
0.976949
1.01489
1.02048
1.00386
0.99474
0.996243
0.985568
0.930374
1.01526
1.03686
0.980829
1.03983
1.00149
0.963282
1.0225
1.00926
1.00141
0.994932
1.00466
1.03588
1.00095
1.02644
1.00433
1.03591
1.03159
0.992375
1.03181
1.00387
0.978095
1.03586
1.03554
1.00299
1.00461
0.99782
1.02505
0.977077
1.02529
0.982013
1.01075
1.02132
1.00333
1.02627
1.02495
0.984566
1.0024
0.983047
1.00202
1.0362
0.987933
0.99329
1.0554
1.01691
0.989007
1.03619
0.981379
0.987681
1.00722
0.981545
1.03582
1.0369
0.981353
1.00586
1.03702
1.02739
0.984043
1.00497
1.00134
1.00539
0.927328
1.00673
0.975302
0.983097
0.960057
0.947914
0.947778
1.02621
1.00465
0.960078
0.982442
0.963774
1.03254
1.02088
1.00508
0.981445
1.02562
1.0267
0.954597
1.02877
1.00843
0.988407
0.990124
1.02307
1.0069
1.00803
0.991608
0.982459
0.984902
1.02384
1.00735
0.987397
1.03405
0.923525
1.00631
0.992225
0.995107
0.980962
0.989954
0.992238
0.926548
0.92676
1.02751
0.930456
1.00682
1.01428
1.02114
0.996497
1.03584
0.993599
0.946539
1.02643
1.02363
1.0361
0.999327
0.996936
0.985876
0.998637
1.00789
1.00084
0.92869
1.02225
0.975354
0.943096
1.01994
1.00305
0.981848
1.01085
1.022
1.02131
1.02309
0.982849
0.994121
1.00766
0.992923
0.999372
0.989993
1.01073
0.951142
1.02448
0.98964
1.02692
0.981748
0.974369
0.983824
1.02162
1.03671
0.92553
1.03621
0.985114
0.951399
1.00115
0.963323
0.955292
0.97114
0.991727
1.01533
0.96702
1.02079
1.02053
0.993094
1.00888
0.957369
1.02079
0.982569
0.984916
0.991911
1.04183
0.980312
1.00087
0.99311
1.03646
0.941641
1.0091
0.984332
0.954643
0.996829
0.957471
0.991983
0.955198
1.02075
1.0078
0.997645
0.992164
1.01342
0.992599
0.980709
0.953271
0.982138
1.01266
1.03147
0.990691
0.988678
1.01308
0.982976
1.02058
1.02834
0.985955
1.01339
1.02731
0.99201
1.00619
0.946494
0.981659
0.993346
0.991939
0.988803
1.00839
1.03622
1.02063
0.985337
0.957959
0.954682
0.950735
0.994045
1.03595
0.993643
0.927657
0.956965
0.985715
0.957147
0.929234
1.0225
1.0049
0.992468
0.993075
1.00897
0.953581
1.02213
1.03256
1.03407
0.992102
1.01687
0.991065
0.998424
0.991877
0.948938
1.0647
1.03317
0.959121
0.957889
1.01616
1.03569
0.956239
0.96065
0.994104
1.02397
0.969326
0.999472
0.999006
0.977425
0.942154
0.993398
1.0118
1.03622
1.0055
0.993868
1.01248
1.01232
0.95177
1.00174
0.922349
0.960339
0.991408
1.0132
0.995189
0.965083
1.01561
0.998831
1.0219
0.984959
1.02092
1.01195
0.998968
0.924809
1.0152
0.951338
1.00904
1.01073
1.02063
1.01079
0.973477
1.02377
0.977247
0.995386
0.964123
1.02541
0.996196
1.02353
0.992104
1.00878
0.992914
0.9937
0.939064
0.978882
1.01945
0.995804
0.968917
0.972233
0.975014
0.98296
1.0216
0.921126
0.99951
0.95046
1.01387
0.987151
0.997273
1.01924
0.957214
0.986474
0.996736
0.99694
0.979468
0.959012
0.980517
1.00632
0.995676
1.0136
0.963514
0.974811
0.96336
0.973723
0.947271
1.03448
0.998004
0.977435
1.01941
0.988847
1.03389
0.954919
0.946877
1.01751
0.996344
0.998275
1.02207
0.977696
1.02198
0.97009
0.999241
0.974292
1.00302
1.01704
0.920486
1.02687
0.97798
1.0458
0.985265
1.01978
0.989915
1.01484
0.995629
0.998444
0.948446
0.991754
0.969295
0.948546
1
1.02823
0.983057
1.01542
0.955111
0.999441
1.00978
0.984884
1.02188
0.928634
1.01157
0.98131
1.01832
0.99894
1.01625
0.976757
0.992628
0.97404
1.01496
0.979841
1.03662
0.982586
1.0358
1.01093
0.997129
0.95316
1.06082
0.999023
0.999079
1.01561
1.01861
1.01223
1.04489
1.00821
0.989204
0.936013
0.978917
0.983703
0.993018
1.02335
1.01936
1.03405
0.97333
0.977609
1.01
0.994726
1.01398
0.974685
0.956025
1.01284
1.01024
1.01678
0.980751
0.946558
1.01668
1.01899
0.98399
0.936646
0.917202
0.994114
0.985934
1.01612
1.01654
0.981577
0.995947
1.01067
0.999398
1.00725
0.99341
0.980649
0.923068
1.02821
0.998731
1.00994
1.02332
1.0245
0.95493
1.0233
0.98051
1.04108
0.98539
1.01641
0.980841
0.97562
1.03074
1.01046
1.00415
1.00611
0.98612
0.977061
1.00879
0.991663
1.01395
0.969257
0.993055
0.990177
1.00133
0.994071
0.989424
0.996542
1.02386
0.977573
0.986728
0.983768
1.0183
0.974309
0.994136
0.988547
1.01333
0.960936
0.999114
0.928847
0.994812
0.98754
1.01788
0.995986
0.997667
1.02123
0.999379
0.961521
0.979284
0.98162
0.991881
1.01401
0.98353
0.983549
0.999061
0.991996
0.978757
1.00327
0.999329
0.993821
0.993581
1.02108
1.02875
0.989352
1.02436
0.984405
0.977441
0.99881
1.00123
1.03773
1.0144
0.994344
1.01247
0.992593
1.01947
0.989822
0.993321
0.984591
0.988675
1.03592
0.986344
0.99628
0.991733
1.03081
1.00976
0.977106
0.993259
0.997035
0.986459
1.00674
0.91819
1.00205
1.00281
1.0325
1.01927
1.01961
1.01407
0.999354
0.979849
1.00068
0.993847
0.990926
0.978502
0.978831
0.97742
0.946225
0.962775
0.997615
1.00397
0.999878
0.997735
0.995017
0.983713