/*--------------------------------*- C++ -*----------------------------------*\
  =========                 |
  \\      /  F ield         | OpenFOAM: The Open Source CFD Toolbox
   \\    /   O peration     | Website:  https://openfoam.org
    \\  /    A nd           | Version:  12
     \\/     M anipulation  |
\*---------------------------------------------------------------------------*/
FoamFile
{
    format      ascii;
    class       volScalarField;
    location    "2";
    object      rho;
}
// * * * * * * * * * * * * * * * * * * * * * * * * * * * * * * * * * * * * * //

dimensions      [1 -3 0 0 0 0 0];

internalField   nonuniform List<scalar> 
1800
(
1.40001
1.40001
1.40001
1.40001
1.40001
1.40001
1.40001
1.40001
1.40001
1.40001
1.40001
1.40001
1.40001
1.40001
1.40001
1.40001
1.40001
1.40001
1.40001
1.40001
1.40001
1.40002
1.40053
1.41116
1.49881
1.94533
2.66228
3.3702
3.81847
3.94546
3.88374
3.79602
3.76216
3.73589
3.73614
3.74493
3.75923
3.77102
3.77947
3.77425
3.75943
3.7398
3.7131
3.67597
3.63563
3.60161
3.57711
3.55563
3.53315
3.50658
3.48384
3.47246
3.46246
3.45136
3.44081
3.43196
3.42466
3.41823
3.41112
3.39835
1.40001
1.40001
1.40001
1.40001
1.40001
1.40001
1.40001
1.40001
1.40001
1.40001
1.40001
1.40001
1.40001
1.40001
1.40001
1.40001
1.40001
1.40001
1.40001
1.40001
1.40001
1.40036
1.40802
1.47757
1.72929
2.12393
2.48107
2.82656
3.24902
3.59593
3.73652
3.77393
3.76855
3.75119
3.75225
3.75549
3.75822
3.7631
3.76988
3.76601
3.75296
3.73329
3.70665
3.67189
3.63689
3.60452
3.57854
3.55582
3.53183
3.50577
3.48353
3.46997
3.45856
3.44683
3.43596
3.42698
3.41935
3.41242
3.40536
3.39292
1.40001
1.40001
1.40001
1.40001
1.40001
1.40001
1.40001
1.40001
1.40001
1.40001
1.40001
1.40001
1.40001
1.40001
1.40001
1.40001
1.40001
1.40001
1.40001
1.40001
1.40023
1.40562
1.46956
1.68868
2.08811
2.31168
2.34267
2.43346
2.74923
3.25732
3.58935
3.77768
3.76807
3.75934
3.7665
3.76031
3.75356
3.75691
3.75976
3.75667
3.74525
3.72523
3.69787
3.66629
3.63591
3.60609
3.57871
3.5535
3.52894
3.5033
3.48294
3.4712
3.4602
3.44875
3.43713
3.42782
3.4195
3.41071
3.40496
3.39437
1.40001
1.40001
1.40001
1.40001
1.40001
1.40001
1.40001
1.40001
1.40001
1.40001
1.40001
1.40001
1.40001
1.40001
1.40001
1.40001
1.40001
1.40001
1.40001
1.40019
1.40451
1.45375
1.69899
2.00577
2.30259
2.36563
2.35695
2.36395
2.42913
2.67447
3.14833
3.63048
3.69957
3.76062
3.78248
3.7709
3.75971
3.75318
3.74937
3.74554
3.73594
3.71717
3.69148
3.66445
3.63643
3.60607
3.576
3.54981
3.52542
3.50016
3.48041
3.46844
3.45778
3.44688
3.43521
3.42473
3.41567
3.40628
3.40065
3.39142
1.40001
1.40001
1.40001
1.40001
1.40001
1.40001
1.40001
1.40001
1.40001
1.40001
1.40001
1.40001
1.40001
1.40001
1.40001
1.40001
1.40001
1.40001
1.40013
1.40333
1.44268
1.65466
2.0348
2.269
2.3643
2.36527
2.36562
2.36824
2.37451
2.41593
2.65197
3.15001
3.53632
3.774
3.77159
3.75631
3.76487
3.75642
3.73923
3.73217
3.72616
3.7106
3.68732
3.66361
3.63716
3.60619
3.57458
3.54578
3.52048
3.49592
3.47738
3.46559
3.45558
3.44468
3.43271
3.42104
3.41057
3.40127
3.39553
3.38659
1.40001
1.40001
1.40001
1.40001
1.40001
1.40001
1.40001
1.40001
1.40001
1.40001
1.40001
1.40001
1.40001
1.40001
1.40001
1.40001
1.40001
1.40007
1.40197
1.43089
1.59038
2.01989
2.26521
2.34094
2.3501
2.35834
2.37312
2.37605
2.37442
2.36839
2.39901
2.59894
3.08419
3.59377
3.67076
3.7365
3.77709
3.76016
3.73259
3.72523
3.72378
3.7104
3.68799
3.66472
3.63862
3.60801
3.57529
3.54303
3.51525
3.4906
3.47515
3.46405
3.45432
3.44298
3.43067
3.41877
3.40735
3.39824
3.39266
3.38282
1.40001
1.40001
1.40001
1.40001
1.40001
1.40001
1.40001
1.40001
1.40001
1.40001
1.40001
1.40001
1.40001
1.40001
1.40001
1.40001
1.40003
1.40097
1.41894
1.55178
1.88774
2.26467
2.34962
2.37769
2.37519
2.37668
2.38469
2.38422
2.37516
2.36363
2.36214
2.385
2.57265
3.03584
3.46794
3.75042
3.75325
3.75537
3.72909
3.72215
3.72232
3.71081
3.68994
3.66507
3.63958
3.61062
3.57596
3.53743
3.50862
3.48763
3.4725
3.4634
3.45297
3.44085
3.42843
3.41703
3.40556
3.39629
3.38976
3.3794
1.40001
1.40001
1.40001
1.40001
1.40001
1.40001
1.40001
1.40001
1.40001
1.40001
1.40001
1.40001
1.40001
1.40001
1.40001
1.40002
1.4006
1.41126
1.51738
1.81574
2.21025
2.3434
2.37343
2.37884
2.37938
2.38299
2.38597
2.38417
2.3737
2.36584
2.36241
2.36348
2.38893
2.54353
2.98012
3.50386
3.63138
3.7253
3.72807
3.72048
3.72302
3.71386
3.69054
3.66344
3.63967
3.61236
3.57395
3.5278
3.50238
3.4868
3.47609
3.46548
3.45328
3.43958
3.42626
3.41515
3.40414
3.39456
3.38661
3.37556
1.40001
1.40001
1.40001
1.40001
1.40001
1.40001
1.40001
1.40001
1.40001
1.40001
1.40001
1.40001
1.40001
1.40001
1.40002
1.40047
1.40939
1.49147
1.77208
2.16023
2.36134
2.3518
2.36037
2.36596
2.37526
2.38466
2.38724
2.38286
2.36891
2.36493
2.36379
2.36678
2.37245
2.39053
2.51777
2.90217
3.37797
3.69121
3.69359
3.71318
3.72845
3.71676
3.688
3.6611
3.63907
3.60693
3.56322
3.53114
3.51051
3.49446
3.47757
3.46373
3.45279
3.44004
3.42473
3.41233
3.401
3.39156
3.38371
3.37304
1.40001
1.40001
1.40001
1.40001
1.40001
1.40001
1.40001
1.40001
1.40001
1.40001
1.40001
1.40001
1.40001
1.40001
1.4004
1.40854
1.48332
1.74987
2.09085
2.36304
2.38679
2.36323
2.35193
2.3552
2.37308
2.38707
2.39021
2.38597
2.36766
2.36225
2.36284
2.37007
2.37389
2.37201
2.38199
2.47499
2.83803
3.36386
3.54499
3.68725
3.73603
3.71783
3.68608
3.65964
3.62865
3.59293
3.56074
3.53561
3.51544
3.49791
3.48058
3.46431
3.45258
3.43895
3.4212
3.408
3.39584
3.38507
3.37984
3.37149
1.40001
1.40001
1.40001
1.40001
1.40001
1.40001
1.40001
1.40001
1.40001
1.40001
1.40001
1.40001
1.40001
1.40025
1.40614
1.47314
1.73219
2.07194
2.33914
2.39564
2.3899
2.35818
2.34985
2.35519
2.37916
2.39086
2.39292
2.38435
2.36551
2.36007
2.3612
2.37116
2.37564
2.37218
2.36417
2.36824
2.4501
2.77676
3.29486
3.6314
3.70245
3.69539
3.68218
3.64922
3.6116
3.58181
3.56157
3.54089
3.52131
3.50087
3.48346
3.46722
3.4514
3.43314
3.41418
3.40381
3.39602
3.38694
3.38155
3.37087
1.40001
1.40001
1.40001
1.40001
1.40001
1.40001
1.40001
1.40001
1.40001
1.40001
1.40001
1.40001
1.40011
1.40338
1.44692
1.69484
2.03532
2.31348
2.40598
2.40069
2.36285
2.34101
2.34808
2.36794
2.38699
2.3853
2.38282
2.37234
2.36134
2.36168
2.36561
2.376
2.37687
2.37242
2.3601
2.35627
2.36359
2.43913
2.77395
3.26244
3.55095
3.6695
3.68806
3.64853
3.60313
3.57866
3.56792
3.54782
3.52535
3.50426
3.48841
3.47173
3.44995
3.42408
3.40641
3.39814
3.3924
3.38544
3.38097
3.36679
1.40001
1.40001
1.40001
1.40001
1.40001
1.40001
1.40001
1.40001
1.40001
1.40001
1.40001
1.40005
1.40171
1.42751
1.61575
1.98527
2.2585
2.39951
2.41025
2.39262
2.34543
2.3361
2.35384
2.38715
2.39195
2.3825
2.3676
2.35351
2.35541
2.36218
2.375
2.38075
2.37763
2.36691
2.35661
2.35599
2.35963
2.37223
2.44574
2.72141
3.19262
3.56549
3.65862
3.61463
3.60034
3.59295
3.58216
3.55588
3.53147
3.51445
3.49546
3.47346
3.4439
3.42184
3.41173
3.40496
3.39715
3.38835
3.38169
3.36792
1.40001
1.40001
1.40001
1.40001
1.40001
1.40001
1.40001
1.40001
1.40001
1.40001
1.40003
1.40103
1.41814
1.54815
1.91608
2.24155
2.38531
2.41257
2.40045
2.36314
2.33696
2.34758
2.38008
2.39579
2.38804
2.36601
2.34803
2.34768
2.35528
2.37219
2.38149
2.38109
2.37432
2.36069
2.3569
2.35754
2.36263
2.37121
2.38021
2.4283
2.64816
3.07277
3.455
3.5467
3.6196
3.60847
3.5914
3.5664
3.54543
3.52111
3.49381
3.4665
3.44403
3.42943
3.42062
3.40961
3.39798
3.38809
3.38219
3.37075
1.40001
1.40001
1.40001
1.40001
1.40001
1.40001
1.40001
1.40001
1.40001
1.40003
1.40075
1.41404
1.52197
1.83469
2.1864
2.37257
2.40793
2.4073
2.38128
2.35273
2.35109
2.3675
2.38542
2.38735
2.37306
2.3511
2.34642
2.34841
2.36312
2.37737
2.37895
2.37727
2.36742
2.36177
2.36146
2.36366
2.37054
2.37516
2.37698
2.37996
2.40929
2.58016
2.99549
3.39856
3.59457
3.58534
3.5738
3.57646
3.56145
3.52101
3.47998
3.45687
3.4499
3.44106
3.42712
3.41238
3.39877
3.38996
3.38626
3.37481
1.40001
1.40001
1.40001
1.40001
1.40001
1.40001
1.40001
1.40001
1.40002
1.40061
1.4124
1.51022
1.8015
2.16162
2.36838
2.39437
2.39738
2.38685
2.36512
2.35628
2.36268
2.37325
2.37815
2.37689
2.36301
2.35077
2.34911
2.35253
2.36544
2.37418
2.37511
2.37275
2.36686
2.36533
2.36631
2.37082
2.37735
2.37885
2.37854
2.37857
2.38012
2.39982
2.54007
2.91382
3.33306
3.47215
3.55633
3.59859
3.56907
3.50578
3.46847
3.46174
3.46223
3.44962
3.42804
3.4108
3.39966
3.39392
3.38972
3.37593
1.40001
1.40001
1.40001
1.40001
1.40001
1.40001
1.40001
1.40001
1.40027
1.4085
1.49386
1.81321
2.11646
2.35707
2.401
2.39845
2.39015
2.36742
2.35686
2.35515
2.36247
2.37178
2.37389
2.37396
2.36545
2.35756
2.3562
2.35775
2.36487
2.37105
2.37236
2.37171
2.37029
2.37059
2.37251
2.37685
2.38027
2.38042
2.37925
2.37794
2.3786
2.38025
2.39493
2.5072
2.81445
3.22411
3.48019
3.56119
3.53338
3.47655
3.47374
3.47644
3.47066
3.44921
3.42482
3.40887
3.40242
3.39724
3.39015
3.37176
1.40001
1.40001
1.40001
1.40001
1.40001
1.40001
1.40001
1.40013
1.40405
1.45896
1.76335
2.15422
2.30367
2.39906
2.40678
2.39951
2.38474
2.36184
2.35337
2.35249
2.35813
2.36792
2.36977
2.37038
2.36722
2.36387
2.3633
2.36402
2.36794
2.37167
2.37255
2.37342
2.37533
2.37681
2.37857
2.38085
2.38109
2.38049
2.37856
2.37791
2.37839
2.38144
2.38116
2.38943
2.45292
2.69578
3.03695
3.31641
3.40976
3.45574
3.5026
3.48976
3.46798
3.44076
3.42448
3.41527
3.40713
3.39742
3.38359
3.35834
1.40001
1.40001
1.40001
1.40001
1.40001
1.40001
1.40007
1.40236
1.43458
1.64636
2.13365
2.30646
2.37294
2.40074
2.39356
2.38695
2.37571
2.3552
2.34946
2.3482
2.35436
2.36488
2.36688
2.36799
2.36856
2.36877
2.3689
2.36986
2.37301
2.37426
2.37443
2.37518
2.3775
2.38093
2.3831
2.38314
2.38191
2.37891
2.37727
2.3776
2.38
2.38355
2.38254
2.37807
2.37611
2.40581
2.5498
2.85656
3.21002
3.39905
3.47598
3.46215
3.43913
3.43105
3.42864
3.41914
3.40575
3.39013
3.36896
3.34497
1.40001
1.40001
1.40001
1.40001
1.40001
1.40004
1.4014
1.42681
1.57041
2.01522
2.30872
2.38114
2.40489
2.40248
2.38263
2.37098
2.35937
2.34977
2.349
2.35271
2.35861
2.36503
2.36702
2.3668
2.36835
2.37208
2.37439
2.37736
2.37801
2.37672
2.37475
2.375
2.37792
2.38394
2.38632
2.38521
2.38152
2.37668
2.37609
2.37741
2.38139
2.38417
2.38291
2.3785
2.37134
2.36282
2.37371
2.45707
2.70847
3.03648
3.29533
3.36042
3.41546
3.44683
3.43295
3.41519
3.39135
3.37553
3.36409
3.34245
1.40001
1.40001
1.40001
1.40001
1.40002
1.40083
1.419
1.5555
1.88501
2.31671
2.38085
2.39886
2.4077
2.39676
2.36676
2.3549
2.34931
2.3482
2.35492
2.36386
2.37121
2.37032
2.36878
2.36574
2.36825
2.37562
2.38337
2.38594
2.38318
2.37709
2.3731
2.37383
2.37832
2.38592
2.3871
2.38524
2.38048
2.3751
2.37503
2.37716
2.38168
2.38428
2.38309
2.37882
2.37173
2.36359
2.35466
2.35398
2.39583
2.57176
2.87296
3.18201
3.36886
3.41451
3.40903
3.37907
3.36439
3.363
3.36341
3.3414
1.40001
1.40001
1.40001
1.40001
1.40048
1.41135
1.53675
1.84353
2.23696
2.41421
2.41531
2.39153
2.38331
2.36937
2.35459
2.3523
2.3506
2.35609
2.36919
2.37659
2.37812
2.37497
2.36739
2.36663
2.37119
2.38292
2.38886
2.38836
2.38425
2.3753
2.37212
2.37289
2.37834
2.38579
2.38694
2.38496
2.37939
2.37457
2.37453
2.37662
2.38069
2.38298
2.3822
2.37903
2.37396
2.36649
2.35705
2.34731
2.33636
2.35243
2.43937
2.67515
2.97284
3.17952
3.2891
3.32117
3.35918
3.37554
3.3656
3.32318
1.40001
1.40001
1.40001
1.40019
1.40682
1.48789
1.84181
2.17703
2.39972
2.41351
2.40003
2.3759
2.36574
2.35723
2.35284
2.35505
2.35857
2.36928
2.37904
2.38037
2.37834
2.37406
2.37213
2.37205
2.37699
2.38507
2.38785
2.3873
2.38247
2.37556
2.37279
2.37352
2.37735
2.38197
2.38359
2.38238
2.37972
2.37705
2.37637
2.37747
2.37934
2.38072
2.38069
2.37922
2.37586
2.37014
2.36059
2.34935
2.33697
2.32357
2.32208
2.35611
2.49096
2.76133
3.04416
3.2455
3.33322
3.35299
3.32441
3.28097
1.40001
1.40001
1.4001
1.40358
1.45464
1.76161
2.17022
2.3562
2.41448
2.40403
2.38138
2.36376
2.36074
2.36007
2.36057
2.36297
2.3679
2.37662
2.38127
2.38241
2.38212
2.37971
2.37814
2.37747
2.3779
2.38058
2.38304
2.383
2.38172
2.3794
2.37693
2.37619
2.37664
2.37754
2.37967
2.38063
2.38057
2.38007
2.37819
2.37752
2.37748
2.37842
2.38016
2.37984
2.37795
2.37307
2.36409
2.35188
2.33874
2.32514
2.31552
2.30338
2.31115
2.37361
2.55277
2.82187
3.05374
3.18235
3.23522
3.25671
1.40001
1.40005
1.40223
1.43724
1.6514
2.15926
2.33263
2.38371
2.40368
2.39637
2.38169
2.37245
2.36844
2.36703
2.36572
2.36482
2.37069
2.38126
2.38531
2.38598
2.38579
2.38243
2.37862
2.37752
2.37622
2.37522
2.37788
2.38034
2.38148
2.38247
2.3808
2.37718
2.37511
2.37487
2.37702
2.38035
2.38204
2.38206
2.37994
2.37719
2.37687
2.37792
2.37999
2.38083
2.37959
2.37531
2.36662
2.35439
2.3408
2.32762
2.3154
2.30385
2.29464
2.28555
2.30269
2.38986
2.58799
2.84859
3.09204
3.21719
1.40001
1.40103
1.42672
1.59214
2.04197
2.36533
2.39864
2.41135
2.40827
2.39886
2.38407
2.37589
2.37059
2.36846
2.36991
2.37269
2.3803
2.38728
2.38668
2.38538
2.38395
2.38068
2.3777
2.37612
2.37486
2.37415
2.3762
2.37976
2.38151
2.38246
2.38115
2.37786
2.37591
2.37514
2.37686
2.38028
2.38184
2.38209
2.38021
2.37859
2.37782
2.37825
2.38034
2.38085
2.37994
2.37622
2.36813
2.35663
2.34315
2.32915
2.31545
2.30223
2.29038
2.27737
2.26381
2.26443
2.29227
2.40628
2.60789
2.93348
1.40008
1.41426
1.55683
1.91818
2.34625
2.41813
2.40907
2.4036
2.40057
2.39965
2.38617
2.37661
2.37189
2.37056
2.37377
2.37859
2.38414
2.38772
2.38619
2.38264
2.37902
2.37663
2.37606
2.37659
2.37656
2.37635
2.37712
2.37861
2.3794
2.3802
2.37973
2.3785
2.37812
2.37747
2.37856
2.38006
2.38037
2.38082
2.37969
2.37927
2.37946
2.37989
2.38125
2.381
2.37955
2.3761
2.36905
2.35877
2.34602
2.33154
2.31622
2.30117
2.28689
2.27183
2.25689
2.2486
2.23864
2.24434
2.28475
2.53545
1.40392
1.50942
1.85538
2.23933
2.4389
2.4474
2.43358
2.41461
2.40849
2.39759
2.38025
2.37563
2.37591
2.37632
2.37831
2.37998
2.38078
2.3819
2.38127
2.37822
2.37667
2.3751
2.37451
2.37674
2.37753
2.37787
2.37921
2.37902
2.37875
2.37848
2.37749
2.37804
2.37871
2.37961
2.38084
2.38042
2.37989
2.3791
2.37834
2.37902
2.38005
2.3814
2.38249
2.38176
2.37954
2.37546
2.36911
2.36014
2.34842
2.3338
2.31716
2.30024
2.28395
2.26825
2.25321
2.24315
2.23644
2.23253
2.22796
2.27246
1.46351
1.79104
2.15927
2.34354
2.39703
2.42897
2.42499
2.41333
2.39339
2.37621
2.37041
2.3739
2.37864
2.38099
2.38048
2.37626
2.37206
2.37272
2.37659
2.38139
2.38288
2.38103
2.37738
2.37369
2.37428
2.3764
2.37944
2.38127
2.37997
2.37811
2.37591
2.37612
2.37803
2.38025
2.38277
2.38228
2.38035
2.37805
2.37648
2.37755
2.37976
2.38242
2.38395
2.38302
2.38018
2.3754
2.36849
2.35953
2.3481
2.33409
2.31713
2.2981
2.27876
2.26098
2.24589
2.23783
2.23529
2.2333
2.22851
2.21828
1.70104
2.15839
2.60144
2.62157
2.56967
2.5057
2.45038
2.38479
2.35468
2.3492
2.3529
2.36478
2.37814
2.38223
2.37954
2.37121
2.36648
2.36753
2.37505
2.38718
2.38973
2.38631
2.3777
2.36951
2.36945
2.37322
2.38032
2.38402
2.38302
2.37936
2.37465
2.37409
2.37595
2.38051
2.3843
2.384
2.38176
2.37733
2.37526
2.37612
2.3788
2.38312
2.38477
2.38385
2.38114
2.37593
2.36868
2.35968
2.34869
2.3349
2.3179
2.29861
2.27746
2.25677
2.24259
2.23718
2.2352
2.23402
2.23084
2.21591
)
;

boundaryField
{
    top
    {
        type            calculated;
        value           nonuniform List<scalar> 
60
(
1.5502
2.21337
2.72127
2.70571
2.60321
2.50778
2.43749
2.3616
2.33785
2.33923
2.34743
2.36222
2.37907
2.38615
2.38333
2.37332
2.36638
2.36568
2.37228
2.38549
2.38998
2.38789
2.38005
2.37068
2.36917
2.37174
2.37868
2.38348
2.3835
2.38065
2.37565
2.37423
2.37534
2.37959
2.3839
2.38412
2.38244
2.37805
2.37546
2.37602
2.37831
2.38264
2.38474
2.38389
2.38126
2.37591
2.36812
2.35827
2.34654
2.33227
2.31523
2.29619
2.27566
2.25526
2.24095
2.23528
2.23322
2.23249
2.23057
2.21646
)
;
    }
    inlet
    {
        type            calculated;
        value           uniform 1.40001;
    }
    outlet
    {
        type            calculated;
        value           nonuniform List<scalar> 
30
(
3.39835
3.39292
3.39437
3.39142
3.38659
3.38282
3.3794
3.37556
3.37304
3.37149
3.37087
3.36679
3.36792
3.37075
3.37481
3.37593
3.37176
3.35834
3.34497
3.34245
3.3414
3.32318
3.28097
3.25671
3.21719
2.93348
2.53545
2.27246
2.21828
2.21591
)
;
    }
    bottom
    {
        type            symmetryPlane;
    }
    frontAndBack
    {
        type            empty;
    }
}


// ************************************************************************* //
