/*--------------------------------*- C++ -*----------------------------------*\
  =========                 |
  \\      /  F ield         | OpenFOAM: The Open Source CFD Toolbox
   \\    /   O peration     | Website:  https://openfoam.org
    \\  /    A nd           | Version:  12
     \\/     M anipulation  |
\*---------------------------------------------------------------------------*/
FoamFile
{
    format      ascii;
    class       volScalarField;
    location    "2";
    object      T;
}
// * * * * * * * * * * * * * * * * * * * * * * * * * * * * * * * * * * * * * //

dimensions      [0 0 0 1 0 0 0];

internalField   nonuniform List<scalar> 
1800
(
1
1
1
1
1
1
1
1
1
1
1
1
1
1
1
1
1
1
1
1
1
1
1.00015
1.00323
1.02917
1.15354
1.31577
1.45007
1.52607
1.55049
1.54073
1.52797
1.52137
1.5173
1.5176
1.51952
1.52266
1.52467
1.5257
1.5248
1.52242
1.51942
1.51541
1.50966
1.50316
1.49771
1.49414
1.49138
1.48852
1.48462
1.48056
1.478
1.47563
1.47322
1.47113
1.4694
1.46786
1.46633
1.46478
1.46228
1
1
1
1
1
1
1
1
1
1
1
1
1
1
1
1
1
1
1
1
1
1.0001
1.00232
1.02289
1.09396
1.19815
1.28086
1.35112
1.42934
1.49029
1.51494
1.52521
1.52458
1.52165
1.52191
1.52279
1.52375
1.52458
1.52536
1.52461
1.52237
1.51928
1.51528
1.50995
1.50431
1.499
1.49504
1.49189
1.48865
1.48477
1.48077
1.47781
1.47519
1.47265
1.47048
1.46872
1.46713
1.46554
1.46398
1.46147
1
1
1
1
1
1
1
1
1
1
1
1
1
1
1
1
1
1
1
1
1.00006
1.00163
1.02081
1.08444
1.18859
1.24369
1.25107
1.27127
1.33868
1.43858
1.49669
1.52884
1.52757
1.52618
1.52737
1.52672
1.52554
1.52613
1.52646
1.52585
1.52376
1.52044
1.51619
1.51128
1.50637
1.50131
1.49673
1.49281
1.48924
1.48534
1.48167
1.47906
1.47651
1.47395
1.47157
1.46975
1.46809
1.46627
1.46495
1.46269
1
1
1
1
1
1
1
1
1
1
1
1
1
1
1
1
1
1
1
1.00005
1.0013
1.01605
1.08906
1.16898
1.2422
1.25712
1.25449
1.25548
1.26962
1.32378
1.41985
1.51037
1.52017
1.53036
1.53291
1.53083
1.52888
1.52823
1.52785
1.52729
1.52563
1.5224
1.51815
1.51375
1.50912
1.50383
1.49846
1.49404
1.49026
1.48634
1.48295
1.4805
1.47804
1.4755
1.47304
1.47107
1.46941
1.46762
1.46638
1.46424
1
1
1
1
1
1
1
1
1
1
1
1
1
1
1
1
1
1
1.00004
1.00095
1.01253
1.07601
1.17851
1.23262
1.25812
1.25873
1.2577
1.25696
1.25762
1.26665
1.3191
1.42374
1.49648
1.53593
1.53433
1.53029
1.53207
1.53105
1.52875
1.52765
1.52656
1.52381
1.51987
1.516
1.51156
1.50603
1.50025
1.49514
1.49098
1.48713
1.48407
1.48174
1.47945
1.47693
1.47446
1.4724
1.47069
1.4691
1.46791
1.46577
1
1
1
1
1
1
1
1
1
1
1
1
1
1
1
1
1
1.00002
1.00056
1.00894
1.05636
1.17599
1.23142
1.24868
1.25515
1.25852
1.26062
1.26018
1.25804
1.25647
1.26359
1.30907
1.41194
1.50809
1.51873
1.52825
1.53538
1.53301
1.52918
1.52808
1.52774
1.52536
1.52155
1.51774
1.51329
1.50784
1.5019
1.49608
1.49136
1.48743
1.48482
1.48259
1.48042
1.4779
1.47545
1.47343
1.47169
1.47031
1.46931
1.46721
1
1
1
1
1
1
1
1
1
1
1
1
1
1
1
1
1.00001
1.00028
1.00547
1.04463
1.14152
1.23455
1.24865
1.25623
1.25997
1.26235
1.26374
1.26293
1.25899
1.25555
1.25547
1.26123
1.3045
1.40267
1.48308
1.53104
1.5322
1.53267
1.52913
1.52842
1.52847
1.52649
1.52294
1.51865
1.51426
1.50931
1.50321
1.49645
1.49137
1.48772
1.48509
1.48327
1.48103
1.47844
1.47601
1.47407
1.47236
1.47105
1.47002
1.46806
1
1
1
1
1
1
1
1
1
1
1
1
1
1
1
1
1.00017
1.00328
1.03443
1.12139
1.22658
1.25239
1.25401
1.25635
1.26005
1.26321
1.26417
1.26353
1.25957
1.25632
1.25562
1.25649
1.26361
1.29894
1.39121
1.49159
1.51225
1.52787
1.52978
1.52876
1.52924
1.52773
1.52381
1.51908
1.5151
1.51051
1.50392
1.4958
1.49124
1.48841
1.48642
1.48437
1.48184
1.47905
1.47652
1.47456
1.47277
1.47136
1.47018
1.46826
1
1
1
1
1
1
1
1
1
1
1
1
1
1
1
1.00013
1.00275
1.02714
1.10795
1.21304
1.2604
1.256
1.25463
1.25453
1.2578
1.26278
1.26442
1.26365
1.25952
1.25704
1.2566
1.25781
1.26052
1.26586
1.29487
1.37775
1.46849
1.52458
1.52594
1.5291
1.53138
1.52938
1.52438
1.51981
1.51608
1.51061
1.5031
1.49746
1.49383
1.49087
1.48758
1.48474
1.48243
1.47987
1.47705
1.47484
1.47287
1.47135
1.47012
1.46833
1
1
1
1
1
1
1
1
1
1
1
1
1
1
1.00011
1.00248
1.02492
1.10091
1.19124
1.26017
1.26596
1.25984
1.25413
1.25356
1.25678
1.26214
1.26466
1.26433
1.26036
1.25806
1.25793
1.25968
1.26192
1.26265
1.26584
1.28728
1.36616
1.46924
1.50199
1.52691
1.53399
1.53086
1.52563
1.52115
1.51563
1.50938
1.50377
1.49959
1.49601
1.4925
1.48885
1.48538
1.48288
1.48027
1.47708
1.47462
1.47236
1.47046
1.46957
1.46823
1
1
1
1
1
1
1
1
1
1
1
1
1
1.00007
1.00176
1.02178
1.09684
1.18387
1.25011
1.26708
1.26663
1.25951
1.25525
1.25486
1.25854
1.26245
1.26462
1.26413
1.26103
1.25961
1.25977
1.26191
1.26375
1.26369
1.2634
1.26472
1.28347
1.35478
1.45737
1.52086
1.53003
1.5286
1.52636
1.52061
1.51389
1.50828
1.50469
1.50104
1.49734
1.49333
1.48964
1.48608
1.48295
1.47969
1.4762
1.47401
1.47233
1.47064
1.46972
1.46776
1
1
1
1
1
1
1
1
1
1
1
1
1.00003
1.00097
1.01365
1.08745
1.17894
1.24092
1.2655
1.26605
1.26062
1.25561
1.25624
1.25842
1.26184
1.26193
1.26281
1.26229
1.26117
1.26161
1.26289
1.26514
1.26548
1.26497
1.26338
1.26296
1.2648
1.28178
1.35493
1.45332
1.50412
1.52439
1.52738
1.52072
1.51219
1.50758
1.50539
1.50156
1.49734
1.49334
1.48998
1.48651
1.48227
1.47737
1.47416
1.47246
1.47113
1.4697
1.46877
1.46565
1
1
1
1
1
1
1
1
1
1
1
1.00001
1.00049
1.00799
1.06271
1.17157
1.23574
1.26179
1.26426
1.26214
1.25544
1.25426
1.25789
1.26423
1.26477
1.26304
1.26126
1.25945
1.26062
1.26325
1.26644
1.26773
1.26706
1.26504
1.26319
1.26322
1.26418
1.26658
1.28244
1.34213
1.43621
1.50404
1.52021
1.51338
1.50965
1.5079
1.50576
1.50101
1.49649
1.49317
1.48954
1.48526
1.47956
1.47518
1.47323
1.47202
1.47059
1.4688
1.46714
1.46355
1
1
1
1
1
1
1
1
1
1
1.00001
1.00029
1.00531
1.04315
1.14888
1.23928
1.26402
1.26537
1.26225
1.25596
1.25282
1.25654
1.26449
1.26755
1.26609
1.26197
1.25848
1.25905
1.26214
1.26661
1.26853
1.26859
1.26745
1.26427
1.2632
1.26319
1.26394
1.26505
1.26605
1.27541
1.3228
1.40843
1.47872
1.49619
1.51032
1.50812
1.5045
1.49931
1.49522
1.49096
1.48621
1.48129
1.4771
1.47423
1.47219
1.47019
1.46829
1.46642
1.4648
1.46133
1
1
1
1
1
1
1
1
1
1.00001
1.00021
1.00412
1.03626
1.12305
1.22137
1.26683
1.26715
1.26602
1.25979
1.25534
1.25598
1.26169
1.26684
1.26763
1.26508
1.26065
1.26006
1.26094
1.26483
1.26826
1.2687
1.2683
1.26582
1.26386
1.26309
1.26284
1.26314
1.2632
1.2628
1.26214
1.26773
1.30439
1.38934
1.46539
1.50194
1.50035
1.49766
1.49696
1.49407
1.48733
1.48028
1.47671
1.47556
1.47362
1.47079
1.46797
1.4655
1.46382
1.46277
1.45963
1
1
1
1
1
1
1
1
1
1.00017
1.00362
1.03324
1.11484
1.20615
1.26388
1.2672
1.26675
1.26357
1.25899
1.25821
1.26025
1.26415
1.2667
1.26679
1.26456
1.26251
1.26232
1.26307
1.26578
1.26732
1.26728
1.26615
1.26422
1.26287
1.26205
1.26165
1.26151
1.26101
1.2603
1.2598
1.25968
1.26356
1.29385
1.37174
1.45169
1.47614
1.49015
1.4978
1.49289
1.48214
1.47577
1.47535
1.47539
1.4732
1.46911
1.46555
1.46327
1.46209
1.46131
1.45844
1
1
1
1
1
1
1
1
1.00008
1.00245
1.02858
1.12106
1.19337
1.25094
1.26856
1.26858
1.26702
1.26168
1.26015
1.26012
1.26216
1.26555
1.26715
1.26736
1.26602
1.26458
1.26408
1.2642
1.26502
1.26507
1.26447
1.26319
1.26196
1.26125
1.26075
1.26039
1.25989
1.25909
1.25837
1.25815
1.25836
1.25877
1.26181
1.28621
1.35115
1.43098
1.47683
1.49074
1.48587
1.47597
1.47564
1.47633
1.47548
1.47201
1.46743
1.46406
1.46249
1.46156
1.46033
1.45729
1
1
1
1
1
1
1
1.00004
1.00116
1.01747
1.11036
1.20878
1.23736
1.26265
1.27001
1.26923
1.26718
1.26303
1.26168
1.26167
1.26338
1.26644
1.26722
1.26723
1.26619
1.26504
1.26449
1.26421
1.26392
1.26316
1.2616
1.26023
1.25978
1.2596
1.2596
1.25957
1.25904
1.25807
1.25739
1.25736
1.25774
1.25877
1.25877
1.26064
1.27453
1.32776
1.39586
1.4463
1.46353
1.47222
1.48033
1.47819
1.47467
1.46977
1.46685
1.46489
1.46323
1.46152
1.45878
1.45601
1
1
1
1
1
1
1.00002
1.00068
1.01008
1.07386
1.21023
1.24384
1.25682
1.26725
1.26741
1.26803
1.26775
1.26437
1.26252
1.26233
1.26394
1.26664
1.26676
1.26637
1.26527
1.26375
1.26273
1.26232
1.26208
1.2611
1.25937
1.25825
1.25804
1.25838
1.25909
1.25922
1.25889
1.25781
1.2571
1.25709
1.25775
1.25907
1.25908
1.25849
1.2581
1.26459
1.29614
1.35964
1.42851
1.46413
1.47717
1.47445
1.46981
1.4675
1.4672
1.4657
1.4634
1.46056
1.45651
1.45645
1
1
1
1
1
1.00001
1.0004
1.00786
1.05008
1.17657
1.2509
1.2635
1.27019
1.27006
1.2672
1.26732
1.26667
1.26473
1.26418
1.26431
1.2649
1.26579
1.26549
1.26393
1.26212
1.26078
1.26006
1.26014
1.26011
1.25937
1.25786
1.2572
1.2572
1.25798
1.25913
1.25931
1.25903
1.25784
1.25727
1.25727
1.25798
1.2591
1.25911
1.25867
1.25745
1.25534
1.25762
1.27566
1.33009
1.3966
1.44559
1.45641
1.46544
1.46995
1.46768
1.46526
1.46147
1.45907
1.45888
1.45994
1
1
1
1
1.00001
1.00024
1.00557
1.04601
1.13716
1.25156
1.26836
1.27148
1.27365
1.2718
1.26683
1.26576
1.26527
1.2648
1.26509
1.26498
1.26516
1.26392
1.26223
1.26021
1.25925
1.25887
1.25905
1.25927
1.2589
1.25806
1.25714
1.25694
1.25709
1.25828
1.25895
1.25914
1.25907
1.25817
1.25792
1.25792
1.25829
1.25896
1.25891
1.25854
1.25758
1.256
1.25392
1.25312
1.2621
1.30099
1.36434
1.42436
1.4586
1.46522
1.46481
1.46017
1.45829
1.45995
1.46366
1.46451
1
1
1
1
1.00013
1.00329
1.0411
1.12709
1.22536
1.27626
1.27823
1.27393
1.27201
1.26906
1.26603
1.26545
1.26471
1.26511
1.26556
1.26461
1.26243
1.25993
1.25797
1.25769
1.25787
1.25888
1.25909
1.25844
1.25775
1.25705
1.25699
1.25734
1.25797
1.25878
1.25891
1.25883
1.25868
1.25836
1.25848
1.25868
1.2588
1.25888
1.25864
1.25811
1.25749
1.25642
1.25463
1.2522
1.2489
1.25196
1.27147
1.3241
1.38482
1.42389
1.44444
1.45188
1.46012
1.46733
1.46815
1.46605
1
1
1
1.00005
1.00196
1.02626
1.13104
1.21366
1.26739
1.27915
1.27755
1.27343
1.27063
1.26769
1.26473
1.26273
1.26251
1.26319
1.26288
1.2612
1.25831
1.25627
1.25613
1.25653
1.25808
1.25897
1.25893
1.25813
1.25702
1.25678
1.25711
1.25829
1.25917
1.25928
1.25902
1.25836
1.25823
1.25836
1.25879
1.25924
1.25925
1.25898
1.25845
1.25787
1.2573
1.25653
1.25506
1.25282
1.24974
1.24545
1.24462
1.25318
1.28488
1.34477
1.40273
1.44407
1.46165
1.47066
1.46682
1.4648
1
1
1.00003
1.00102
1.01615
1.10798
1.21957
1.2605
1.27859
1.27776
1.27415
1.27104
1.26955
1.26624
1.26096
1.25833
1.25818
1.25898
1.25931
1.25871
1.25714
1.25589
1.25594
1.25655
1.25796
1.25903
1.25901
1.25825
1.25728
1.25714
1.25757
1.25885
1.25977
1.25974
1.25936
1.25841
1.25798
1.25814
1.25863
1.2592
1.25928
1.2591
1.25879
1.25821
1.25742
1.25652
1.25517
1.25309
1.25039
1.2469
1.24316
1.24174
1.24516
1.26274
1.30659
1.36766
1.41704
1.44476
1.457
1.46645
1
1.00001
1.00063
1.01086
1.07568
1.21853
1.26315
1.27315
1.2785
1.27722
1.27323
1.26899
1.26499
1.26056
1.25592
1.25365
1.25398
1.25627
1.25847
1.25871
1.25818
1.25643
1.25582
1.25618
1.25729
1.25862
1.25968
1.25957
1.25881
1.25816
1.25788
1.2581
1.2589
1.25956
1.2597
1.25941
1.25864
1.25813
1.25809
1.25832
1.25901
1.2593
1.25921
1.25896
1.25802
1.25668
1.25506
1.25304
1.25072
1.24818
1.24486
1.24285
1.24327
1.24532
1.25304
1.27775
1.32735
1.38637
1.43677
1.46633
1
1.00028
1.00771
1.05788
1.18875
1.27306
1.27965
1.28077
1.27905
1.27402
1.26578
1.25967
1.2561
1.25445
1.25351
1.25264
1.25347
1.25645
1.25863
1.25956
1.25951
1.25804
1.25627
1.25605
1.25661
1.2581
1.25999
1.26062
1.26034
1.25919
1.25777
1.25745
1.25788
1.25906
1.25995
1.26003
1.25942
1.25823
1.25764
1.25773
1.25838
1.25926
1.2595
1.25935
1.25851
1.25695
1.255
1.25294
1.2509
1.24904
1.2469
1.24541
1.24559
1.24627
1.24741
1.25117
1.26288
1.2945
1.34252
1.41735
1.00002
1.00401
1.04719
1.15823
1.2722
1.28414
1.27985
1.27501
1.27004
1.26386
1.25484
1.25148
1.25176
1.25231
1.25399
1.25483
1.2555
1.25699
1.2588
1.26014
1.26031
1.25976
1.25826
1.2569
1.25664
1.25717
1.25914
1.26069
1.26074
1.26013
1.25824
1.25727
1.25735
1.25812
1.25975
1.26015
1.25983
1.25882
1.25765
1.25757
1.25789
1.25889
1.25957
1.25944
1.2588
1.25743
1.25538
1.25328
1.25149
1.25018
1.2491
1.2486
1.24885
1.24921
1.24944
1.25051
1.25237
1.2575
1.27082
1.33501
1.00089
1.03356
1.14346
1.25412
1.29247
1.28755
1.2774
1.26684
1.26023
1.25358
1.24884
1.24927
1.25178
1.2557
1.25829
1.25846
1.25768
1.2573
1.25742
1.25833
1.26023
1.26065
1.26014
1.25871
1.25684
1.2566
1.25754
1.25956
1.26068
1.26054
1.25923
1.25763
1.25717
1.25743
1.25877
1.25979
1.25988
1.25942
1.25819
1.25771
1.25773
1.25824
1.2592
1.25924
1.25891
1.25793
1.25629
1.25453
1.25307
1.25199
1.25142
1.25158
1.2521
1.2527
1.25275
1.25267
1.25324
1.25564
1.25818
1.273
1.01529
1.13913
1.24347
1.27681
1.27298
1.26577
1.2581
1.25265
1.25112
1.24938
1.2498
1.25217
1.25637
1.25991
1.26084
1.26045
1.2585
1.25675
1.25625
1.25694
1.2593
1.26101
1.26123
1.25988
1.2577
1.25653
1.25669
1.25821
1.25974
1.26029
1.25976
1.25848
1.25746
1.25728
1.25807
1.25906
1.25959
1.25954
1.25871
1.25812
1.25783
1.25797
1.25869
1.25885
1.25877
1.25832
1.25727
1.25599
1.25485
1.25414
1.25391
1.25403
1.25453
1.25512
1.25498
1.25462
1.25496
1.25636
1.25808
1.26003
1.14693
1.29059
1.3165
1.29892
1.27496
1.25957
1.25191
1.24629
1.24954
1.25319
1.25561
1.25717
1.25902
1.2606
1.26053
1.25965
1.25848
1.25755
1.25706
1.25764
1.25866
1.25936
1.25978
1.25915
1.25838
1.25774
1.25766
1.25824
1.25878
1.25921
1.25906
1.25861
1.25821
1.25804
1.25832
1.25859
1.25889
1.25891
1.25864
1.25848
1.25827
1.25828
1.25851
1.25855
1.25859
1.25852
1.25823
1.25778
1.25738
1.25711
1.25708
1.25721
1.25753
1.25768
1.25761
1.25746
1.25741
1.25767
1.25838
1.25884
)
;

boundaryField
{
    top
    {
        type            fixedValue;
        value           uniform 1.25853;
    }
    inlet
    {
        type            fixedValue;
        value           uniform 1;
    }
    outlet
    {
        type            zeroGradient;
    }
    bottom
    {
        type            symmetryPlane;
    }
    frontAndBack
    {
        type            empty;
    }
}


// ************************************************************************* //
