/*--------------------------------*- C++ -*----------------------------------*\
  =========                 |
  \\      /  F ield         | OpenFOAM: The Open Source CFD Toolbox
   \\    /   O peration     | Website:  https://openfoam.org
    \\  /    A nd           | Version:  12
     \\/     M anipulation  |
\*---------------------------------------------------------------------------*/
FoamFile
{
    format      ascii;
    class       volScalarField;
    location    "1.23";
    object      p;
}
// * * * * * * * * * * * * * * * * * * * * * * * * * * * * * * * * * * * * * //

dimensions      [1 -1 -2 0 0 0 0];

internalField   nonuniform List<scalar> 
22702
(
1
1
0.881011
1
1.05761
1
1.47346
1
1
0.656436
1.47105
1.47101
1
1.4711
0.904747
1
1
1
1.47042
1
1.47008
1
1.47378
0.638636
1.47228
0.649624
1
1.47591
0.657783
0.642788
1
1.46936
1
1
1
1.43286
1.46703
1.47333
1
1
0.67329
1
1.22993
1
1.47444
1
1
1
1
0.651911
1
0.640958
1
1.47088
1
1.46838
1
1
1
1
0.64073
1
1
0.664404
1
0.645255
1
1
1
0.6589
1
1.47188
1.2826
1
1.47096
1.49104
0.646304
1.47105
0.660133
1
1.47251
0.660225
1.47019
1.47369
1
1
1
1
0.93479
0.659938
1.47038
1
1
0.669394
1
1.47031
0.675363
1
1
1
1
1.23067
1.47242
0.688652
1
1
1.10602
1
0.653542
1
1.46811
1.47187
1
1
0.629072
0.629383
0.657689
1
1
1
1
1
0.920699
1
1.40103
1.0296
1.47062
1
1.4692
1.47085
1.47053
1.47126
1
0.658102
1
0.664241
1
1
1
1
1.4717
1
1
1
1
1.46743
1
1.0279
1
1
1
1
0.662623
1
1.01029
1
0.665638
1
1
1
1.46959
1
1.47134
0.634765
0.640379
1.46982
1.47432
1
1.07498
1.26118
1
1.47193
0.653208
1.43324
1
1
1
1
1.47111
1.37419
1
1.47388
0.667893
1.46958
1
0.67864
1
0.644966
0.642122
0.999787
1
1
1.47086
1
1
1.47092
1
1.46777
1.47396
0.656707
1
1
0.664372
1.47023
1
1
1
1.47177
1
0.676276
1
1
1.46994
1.47212
1.46787
1
1.00004
1
1
1
1.47117
1
0.663301
1.4855
1.47169
1.46938
1
1
1
0.645749
1.4702
1.23784
1
1.4719
0.656037
0.667409
1.47216
1.47529
1
1.46843
0.660132
1.41439
1
1
1
1
1.4724
1
1.26121
1.04128
1
1
1.46679
0.675922
0.773839
1
1.46643
0.677336
1.46686
1
1
1
1
1
1
1
0.654879
0.786161
0.668863
1.46971
1
1
1
1
1.41364
1
0.649634
1
0.638388
0.660673
1.47193
0.65058
1.47016
1
1
1
0.997598
0.676619
0.664534
0.999999
1
0.637094
1
1.47125
0.703003
1
1
1.4724
0.65396
1
1.46087
0.634478
1.47053
1
0.643284
0.997602
1
1
1
0.645046
1
1
0.999999
1.00001
0.997148
1.28408
1
0.651575
1
1
1
1
1
1
1
1.47186
1
1.4696
1
1
1
0.66627
1
1.46934
0.65441
1
1.37254
1
1
1.47027
1
1
1
1.46125
1
1
1.46224
1.47099
1
1.0922
1
1
0.666654
1
1
1
0.660683
1
1
1
1
0.634446
1
1
1
1
1
0.69686
1.00006
1.47208
1
0.999995
1.4733
1.47038
1
1
0.664932
0.805102
1.47155
1
1
1
1.47467
0.659596
1
1.47078
1
1
0.73128
0.732553
1
0.674136
0.631139
1
1
1
1
1
1
1
1.47357
1.1043
1.45395
0.693915
0.907756
1.47107
1
1.46737
1.47148
0.653566
0.768428
1
0.696648
1
1.48215
1
1
1
1
1.47343
1
1
1
1
1
1
1
1.15836
1.47028
1
1.47002
1
1
0.664207
1
1
1
1
1.46777
1.35604
1
1
0.673398
1.47055
1.47627
1
1.47533
1.47035
1.47224
1
0.823625
1
1.47084
0.978293
1.47174
1
0.679501
0.99882
1.47096
1
1
1
1
0.65097
1.47611
1.42331
1
1.47402
1.47583
1.47213
1
1.20939
1.47124
1
1
1.3234
1.06202
1.47097
0.921437
1.47482
1
1.47387
1.46991
1.47363
1.47044
1
1.47104
0.908921
0.883825
1
0.999999
1
1
1.48472
1
1
1
1
1
1.47146
1
1
0.996381
1.47458
1.42054
1
1.37479
1.00004
1
1
1.47061
1
0.996835
1.00393
1
1.47082
1
1.47461
1
1
1.34966
1
1.47798
1.00002
1
1.47873
1
1.46693
1
1
1
1.47216
1
1.47083
1.00001
1.4739
1.46799
1.4711
1.47441
1
1.47133
1.44774
1
0.657491
1.43938
1.33492
1
1.47259
1
0.673172
0.631429
1
1
1
1
1
0.686885
1
1.46884
1.12913
1.47055
1
1
1
1
1
1.46865
1
1.48191
1.27044
0.76612
1
1.00001
1.12663
1.10578
1
1
1.15843
1
0.662086
1.47277
1.47489
1
1
1
1.46844
1
1.00003
1.46687
1.47615
0.955716
1
1
0.64737
1.42548
1
1
1
1
1
1.46936
1.47153
1
1.47134
1.46653
1.46778
1
1
1
1
0.681958
1.47144
1
1
1.42693
1.46984
1
1.4428
1.4688
1
1
1
1
1
1.47347
1
1
1
1
1.47228
1
1.46748
0.716304
1
0.599594
1
1
1
0.997101
0.659522
0.999038
1
1
1
1.06727
1
1
0.874667
1
1
1
1
1
1
1
0.999997
0.914124
0.999999
1
0.997696
1
0.651012
1
1
1
1
1.35093
1
1
1
1
0.663226
1
1
1.44136
1.47163
0.999999
1
1
0.889549
1
1
1
1
1
1
0.959981
1.00921
1.47103
1
1
1
1.46687
0.906244
1
1
1
1.47536
1.4694
1
1.00001
1
1
1
1
1
1
1
0.65744
1
1
1.47188
0.679901
1
1.47051
1
0.666257
1
1
0.648634
1
1
1
1
1
1
1
1.46228
1.47062
1
1
1
1
1.42814
1
1.15773
0.672816
1
1
1
1
1
1
1
1.04045
1
1
1.24363
1
1
1
1.38515
1
1
1
1
0.710173
1
1
0.621908
0.704534
1
1
1.47435
1
1.00309
1
1
1
1.31792
0.655923
1
0.65194
1
0.790699
1
1
1
1.47305
1
1
1.4697
1
1
1
1.46915
1
1
1.47028
1
1
0.653912
1
1.14179
1
1
1.4713
1.47087
1.30871
1.42121
1
0.690124
1
1
1.45121
1
0.695383
1
1
1
1.46897
1
1
1
1
1.28658
1
1.4299
1.47449
0.659061
1
1
0.661081
0.639036
1
1
1
1.33742
1.34706
1
1
1
1
1
1
1
1.20494
1.47311
1.01436
1
1.46377
0.651906
1
1
1
1.26555
1
1.08334
1
1.43031
1.46945
1
0.674401
1
1.46827
1
1
1.47274
1.44138
1
1.47317
1
0.635816
1
1
1
1.46627
1.4622
1.4146
1
1.47392
1.47311
1
1.46894
1
1.46974
1
0.676054
0.970687
0.668416
1
1
1
1
1
1.46705
1
1.46679
1
1
1
1.44707
1
0.64838
1.47
1
0.667775
0.696073
0.68136
1
1.23068
1.02128
1.47366
1.47374
1
0.999999
1
1
1.47502
1
1
1.47337
1.47245
1
1.16221
0.999656
1
0.996777
1.46911
0.84676
1
0.82065
0.660945
0.661482
0.937481
1.47545
1.46507
1.09128
1.47173
1.46818
1
1
1.47316
1.47129
1.47145
1.47159
1
1.47175
0.656563
1.47208
1.47426
1.46955
1.47261
0.869078
0.900937
0.925113
1.47012
0.944248
1.4723
1
1
1.47371
1.47108
1
0.689602
1.47112
1.46811
1
1.47052
1.47016
1
1.47461
0.664546
1.47232
1.47388
1.47118
1.47458
1
1
1
1.46863
1.29069
0.673317
1.47152
0.635837
1.46972
1
1
1
1
1.47032
1.47426
1
1
1.47389
0.632381
1.47163
0.651182
1
1.46839
1
0.655868
1.47679
0.74961
1
1.47193
1.4746
1.47365
1
1
1.23313
1.47429
0.668924
1.47355
1
1.46964
0.876219
1.47337
0.631631
1
1.47228
0.713574
1.4738
0.664674
1
1.46919
1
1.4698
1
1.26933
1.45261
1.36939
0.620695
1
1.47215
1
1.46967
1
1.47387
1
1
1.47208
0.971132
1.47449
0.637802
1.43734
1
1.32636
1
1.47339
1.47325
1.47376
1
1.42304
1.47138
1.43577
1.28036
1.47123
1
1.31417
1
1.4733
1
1.06574
1
1.43537
1
1.47076
1.45079
1.44829
1
1.46722
0.62799
1
0.708483
1
1
1
1.46852
1
1.47035
1
1
1
1.47136
1.46026
1.39286
1.47337
1.46963
0.604916
1.47771
1.46776
1
1.40147
1.47295
1.45182
1
1.47049
1.4683
1
1.47146
1.47036
1.47157
1.47434
1
1
1
1.47153
0.63624
1
1.47139
1
1
0.633506
1
1
1.47075
1.47091
1
1.46908
1.46248
1.46989
0.976311
1.47034
1
1.47015
1.47153
1.37906
1
1
1
1.473
1.47057
1.47155
0.937428
1
1.48605
1.47149
1.47228
1
1.47138
1.47303
1.47069
1.48146
1
1.4721
1.47297
1.40964
1.47174
1.47924
1
1.47614
1.46544
1.47073
1.47405
1.47376
0.5924
1.47184
1.47152
1
1.47128
1.47006
1.47154
1.47171
1
1.47082
1.47086
1
1.46981
1.39642
1
1
1
1.47173
1.4793
1
1
1.26586
1
1.47044
1
1
1.46812
1.47165
1.47123
1.47079
1
1
1
1.33102
1
1.47284
1
1
1.47069
1.47386
1
1.46994
0.685645
1.47117
1.47075
0.742768
1
0.680342
1.41239
1.47096
1.47255
1.4719
0.6575
1.47185
1.47367
0.644018
0.620497
1
1.47032
1.47093
1
1
1.47108
1
1.47534
1
1.41208
1
1.2154
1.46982
1.47796
1.33046
1.41604
1.46743
1.47286
1.44218
1
0.646844
1.47223
1.47335
1.47682
1.00001
1
1
1.47741
1
1.47408
1.47168
0.771723
1
1.47127
0.999939
1
1.00003
1.00004
1.47308
1.46906
0.99845
1
1
1.47072
1.47161
1.47158
1.46955
1.4729
0.694394
1.41065
1
1.46833
1.47149
1.47353
1.4613
1
1.46995
1.45811
1.47109
1
1.47168
1.47165
0.870616
1.47341
1.47121
1
1.4714
0.851453
1.4712
0.858448
1.47281
1
1.4712
1.48104
1.47376
1.47142
1.47145
1.47085
1.47064
1.46944
1
0.93041
1.4723
1.47059
0.843088
1.47304
0.989785
1.29226
1.47137
1.47067
1.4691
1
1.4718
1.30938
1.47123
0.922674
1.47411
1.47203
1
0.864295
1
1.46791
1
1.31732
1
1.44304
0.864709
1
1.46842
1.46621
1
1.47359
1.47397
1.46857
1.46037
1.46699
1
1.47165
1
1
1
0.892838
1.46889
1.47388
1.47721
1.47139
1.47319
1.47996
1.46489
1.47299
0.899444
1.03008
1
1
1.47897
1.46993
1.47183
1.47019
1.00003
1.2368
1
1.47154
1.41233
1
1
0.734745
1.47034
1
1
0.663699
1.47077
1
1.47036
1.4713
1.46746
1.45285
1.47146
1
0.634961
1.11052
1.47154
1.47121
1
1.47277
1.47169
1.21706
1.01117
1.09785
1
1.47072
1.46737
1
1
0.585601
1
1
1.47354
1.47008
1.46884
1.47114
1.47206
1.47135
1.47219
1.47071
1.47153
1
0.996092
1.47212
1.47144
0.996856
1.47181
1.47168
0.591706
0.663985
1.47484
1.47565
1
1
1.00196
1.47142
1.46881
1.47007
1
1.47029
1
0.872446
1.47842
1.47638
1
1.21734
1.47081
1
1.4717
1
1.47197
1.31093
1.48069
1
1.47059
1.48643
0.582818
1.47102
1
1.47208
1.4735
1
0.592438
1.47144
1.39576
0.997989
1.45596
1.46958
1
0.988972
1.47781
0.998847
1.4712
1
1
1.47435
1
1.4727
1.47205
0.996267
1.37013
1
1.47011
1
1
1
1
1.47109
1
1
1.46742
1
1.4711
1
1.29793
1.4772
1.473
1
1
0.995645
1
1.47014
1.47185
1.47296
1.47117
1.47158
1.47218
1.47171
1
1.47184
1.47239
1
1.47213
1.47157
1
1.47381
0.925302
1.05646
1.47199
1.47099
1.47108
1
1.47114
1
1.47177
1.47137
1
1.47373
1
1
1
1
1.47122
0.6539
0.997816
1
1.47065
1.47713
1
1.4695
1
1.00496
0.659854
1.47146
0.999618
1
1.47035
0.998371
1.47131
1
0.999754
1
1.46976
1.46903
1.47259
1.47369
0.66591
1.46894
1.47302
1.4712
1.1131
1
1
1.21156
1.4715
0.663139
0.649573
1
1.47148
1.47176
1.47453
1
1
1.47236
1.47311
0.999884
1
1.33673
0.68085
1
1.07445
1.47134
1.47541
0.998251
1.4727
1.48642
1
0.999199
1
1.46487
1.46934
1.18471
1
1.45664
1
1.00309
1.47149
0.66628
1.47279
1.47245
0.996972
0.999911
1.41348
1
0.999694
1
1.47055
1
1.00001
0.696783
1.47235
1.00001
1
1
1
1.46339
1.25741
1
1
0.695111
1.47181
1.26174
1
1
1
1.44967
1.45619
1.47057
1
1
1.47188
1
1.4717
1.47067
1
1
1.47317
1.47262
1.45102
1
1
1.47328
1.47184
1
1
1
1.47157
1
1
1
1.47161
1.47733
1.47702
1
1.46738
1.00003
0.709818
1.47376
1.46932
1
1.47338
1.44524
1.47203
1
1
1.47396
1
1.24175
1.46804
1
0.569627
1
1.4738
1
1
1.47225
1
1
1
1.14548
1.46837
0.680563
1.00001
1.47189
1
1
1.47114
1
1.47472
1
1
1.4724
1.47047
1
1.00005
1
1
1
1
1
1
1.47714
1.4722
1
1.47051
0.650519
1.47852
1
1.46688
1.47001
1.47196
1.47056
1.47463
1
1
1.47109
1
1.28201
1.47642
1.46992
1
1.47473
1.47999
1
1.42059
1
1.47338
1.30282
1.47014
0.997545
1.46503
1.42867
1.47335
1.47569
1.03441
1.47059
1.47574
1
1.47138
1
1.47022
1
1
1
1
0.996554
1.47242
1.47275
1.39452
1
1.47081
1
1
1
0.634816
1
1.45906
1
1.42705
1.45414
1
1
1
1.44084
1.47023
1
1
1.47108
0.669384
1.0836
1
1.4756
1.47549
1.42783
1.45942
1.46713
1
1.47279
1
1
1
1
1.46815
1.47313
1
1.47639
1.05467
1.47083
1.43923
1
1
1.44081
1
1
0.670862
1.32429
1
1
1.47705
1
1.47627
1.42674
1
1.42536
0.670975
1.47122
1.47191
1.47232
1
0.660074
1
1
1
1.47301
1.38367
1
1.47873
1.47048
1
1.47185
1
1
1
1
1.46875
0.999381
1
1.47358
1
1
1.47395
1.47193
1
1.46736
1.09014
1.00002
1
1.47179
1
1.47134
1
1.01495
1.47087
1
1.47135
1
1
1.13766
1.47125
1
1
1
1
1
0.996748
0.648914
0.656471
1.02033
1
1.02079
1
1.02396
1
1.46943
1
1.28628
1
1.47206
1
1
1
1.47165
1
1.36364
1.47175
1
1.23881
1.47369
1
1
1.46781
1.47182
1
1
1.05253
0.615364
1
1.47313
1
1
1
1
1.07499
1.4742
1
1
1
0.666299
1
1.47254
1.47097
1.48408
1
1
1
1
1.22449
1.47775
1
1
1
1.46477
1.4714
1.04867
1
1
1
1.47115
1.47121
1
0.570078
1.472
1.47214
1.47898
1.47783
1.47305
1
1
1.46529
1.47946
1.47348
0.663734
1.04027
1.47029
1
1
1
1
1
1.47192
0.656065
1
1
1.47064
1.21283
1
1.47959
1
1
1
0.660316
1
1
1.11803
1.47183
1.47058
1
1.48154
1.48277
1
1.08228
1
1.4796
1
1.4714
0.67152
1
1
1
1
1.47157
1.00007
1
1
1
1.44166
1
1
1
1
1.47292
0.659173
1.36068
1.47467
1
1.47106
1
1
1
0.997144
1
1.47032
1
0.822299
1
1
1.00003
1.47023
0.665577
1
1.47453
1
1.46936
1.46981
0.652527
1
1
1.45696
1
1
0.630448
1
1.47375
1
1.45041
0.999246
1.471
1
1
1
1
1.47489
1
1
1.46986
1
1
1
1
1
1
1
1
1.30806
1
1.14263
1.47066
1
1
1
0.655135
1
1
1
1
1.47283
1.47128
1.04729
1
1
1.47227
1
1
1.47139
1
1.00002
1
1
1
1.00001
1.47144
0.797138
1.47139
1.47354
0.997042
1
1
1
1.27147
1
1
1.47152
1.47231
1
1
1
1
0.647069
1
1
1
1.28593
1
1.47142
1.47746
1
1.47293
1
1
1
1.24886
1
1.47159
1
1.47168
1
1
0.996324
1.47171
1
1
1
1
1
1.4751
1.00002
1
0.670148
1.47666
0.644159
1
1.48039
1
0.996093
1
1.47386
1.47737
1
1.47314
0.895453
1.47211
1.46736
1.00003
1
1
0.651204
1
1
1
1.47127
1.26287
1.4692
1
1
1
1
0.996876
1.47043
1
0.674291
1
1
1
1
1
1
1
1.47307
1.47214
1.48012
1
1
0.996942
1
0.9748
1
1
1
0.611804
0.973107
1
0.64372
0.652521
1
1.47235
1.46931
1
1.47178
1.47076
0.66334
1.31156
1
1
1
0.673036
1.47013
1
0.665421
1
1.48075
1.08166
1
1
1
1
1.46929
1.46841
1
1
1.47202
1
1
1.47462
1.47238
1
1.44895
1.47032
1.47346
0.960538
1.47038
1.0089
0.671783
1.35764
1.47151
1
1
1
0.633873
1
0.652085
1.46897
0.957674
1.47083
0.950033
1
1.47124
1.20636
1
1
1.47098
1
1.18451
1.47317
1
1
1.46331
1.46832
0.661041
1.26931
0.999892
1
1.2773
1
1.47548
0.94835
1.47724
1.47574
1
1
1
1
1.47356
1
1
1.47294
0.999631
1.47078
1.39457
1.47398
0.662332
1
1
1
1
1.47138
1.00005
1.47137
1
1.47129
1.47081
1.05623
1.48097
1.13447
1.47099
1
1.31626
0.670737
1.47374
1.47171
1.37659
1.07662
1.46885
1.47211
1.47143
1.47221
1
0.910067
1.06595
1
1.4724
1.21731
1.4712
1.00003
1
1
0.657812
1.47208
1.47052
1.38206
1
1.18164
1
1.46841
1.46938
1
1.47003
1.47193
1
1
1
1.47008
1
1.18021
1.47095
1.32402
1
1.47195
1
1
1
1
1
1
1
1
1
1
0.647777
1
1.43723
0.604215
1.26735
0.99856
1.47138
1
1.23913
1.00001
1.30025
1.39028
1
1.00194
1.46691
0.90441
1
1.46772
1.46746
0.946694
1
1.47317
1.47062
1.47623
1
1.47244
1.46911
1.47053
1
1.20558
1
1.00006
1.47135
1
1.47189
1.06513
1.47076
1
1
1.46611
1.46735
0.665653
1
1.47158
1.35268
1.47101
1
1
1.47112
1.47285
0.998238
1
1.42126
0.99686
1.4744
1.00004
1
1
1
1
1.21693
1
1.35725
1.47293
1.35322
1.47338
1
1.00368
1
1
1.47434
1
1.47024
1
1
1
1
0.999999
1
1.05239
1.23867
1
1
0.659888
1
1.47464
0.684232
1.46731
1
1.23902
0.99976
1.47199
1.29917
0.672051
1.25378
1.00003
1.47241
1.47124
1
1.28226
1.46885
1.47154
0.998393
1.48287
1.45626
0.692655
1
1
0.997981
1
1.46019
1
0.677885
1.47366
1
1
1.41568
1
1.47356
1
1.47014
1
0.686442
1
1
1.46964
1.47426
1.4731
1
1.47031
1.47076
1.46511
1
1
1.47418
0.999999
0.732661
1
1
1
1.47054
1
1.46911
1.30443
1.47185
1
1.47183
0.999376
1
1
1
1
1
1
0.728782
1
1
1.4712
1
1.46806
1.4692
1
0.676018
0.661231
1
1.47222
1.07234
0.669584
0.6355
1
1.47022
1
1.47094
0.689016
1.00117
1
1
0.999512
1
1
1
0.999914
1.18711
1.47218
1
1
1.47181
1.27803
1
1.43583
1.47127
1.47136
1.18734
1.47772
1
1.47051
1
1.47213
1
1.47767
1.47207
0.997234
1.47955
1.47451
1
1
1
1
1
0.915319
1.46871
1.00004
1.00003
0.683721
0.999986
0.616875
0.656707
1
1.47198
1.47184
1.47166
1
1.47303
1
0.661993
1
1
1.46999
0.831024
1.47364
1
1.46855
1
0.982904
1.47135
1
1
1
1.48323
1
1.47162
0.655907
1
1
1.26645
1
1
1.25217
1
1
1.47115
1
1
1
1
1
1.47705
1.4714
1
1.47292
1.47118
0.643351
1.21091
1.47049
1
1
1.42308
0.998882
1
1
1.47256
1.47241
1.30962
1
1.4725
0.667396
1.43603
0.99961
1
1.47172
1.00004
1.47314
1.36719
1.35434
1
1
1.47177
0.706583
0.651241
1
1.47244
1
1.47809
1
1.27156
1
1
1.47111
1.29601
0.668145
1
0.998437
1
1
1.02451
1.18446
1.47172
1
1.46715
1
1
1
1
1
1
1.06618
0.668546
1
1
1.02913
1
1
1
1
1
1.48129
1
1
1.4722
1.47101
1.34679
1
1
1
0.841282
1.47196
1.32407
1
1
1
1
1.47115
1
1
1
1.48418
1
1
1.34173
1.48522
1.04312
0.744141
1.47083
1.32836
1.47476
1
1.23632
1
1
1
0.702364
1.00276
0.692346
1
0.742902
0.643493
1
0.649054
1
1
1
1.20697
1
1.47224
1.48061
1.00138
1.22324
1.40277
0.645313
0.785366
0.878613
1
1.47211
1.46979
1.47206
1.47258
1.40232
0.88104
1
1.40322
1
1.44961
1
1
0.996608
1.00953
1
1
1
1.47316
1
0.655906
1
1.47144
0.665762
1
1
1.47234
1
1.47208
0.999853
1
1
1.47229
1.41355
1
1.48321
1
1
1.01482
1
1.21104
1
1
0.647018
1
1
1.47068
0.999999
1.46881
1
1.00003
0.650596
1
1
0.674472
1.00089
1
1.47068
0.658882
1.48546
0.697006
1.47123
1
1
1
1
1
1
1
1
1
1
1
1.45141
1
1.47307
1.47161
0.647403
1
1
1
1
1
1
1.45789
1
1
0.659315
1
1
1.47127
1
1
1.17917
1.38832
0.669431
0.633119
0.741171
0.743836
1
0.996599
0.691722
1.0003
1.44571
0.996874
1
1
1.472
1
1
1
0.791368
1.00001
1.16582
1
1
1.19082
1.47225
1
0.728317
1
1
1
0.99692
1.00001
1.47013
1.47189
1
0.701301
1
1.24954
0.655787
1
0.864665
1
0.996364
0.635815
1
1
1
0.996345
0.646528
1
0.740147
0.998422
1.2531
1.41991
0.707716
0.66585
1
0.989899
1
0.998643
1
1.47086
1.47006
1
1.0131
1.47096
1.47115
1
1
1.47134
1
1
1.00004
1
1.48642
1
1
1.01782
1
0.99861
0.71714
1
1
1
1
1
1.47621
1.02381
1.00005
1
1
1
1
1
1.00003
1
0.654617
1.10277
0.998671
1.46496
1.47338
1
1.01326
1.47057
1.41279
1
1
0.669479
1.47222
1
1.47157
1
1.47142
1.33385
0.641543
1
0.657966
1.43392
0.999685
1
0.667167
0.673388
1
1
1.39609
1
0.999998
0.6524
1
1
1
1.14231
1
0.646788
1.46658
1
1
1
1
1.47215
1
1
1.4743
1.41982
1
1
1
1.4695
0.641853
1
1.47236
1.47071
1
1.37566
0.999999
1.00003
1
1
1.43359
1.01653
1
0.652043
1.24044
1
1
0.99749
1
1
1.47599
1
1
1.00003
1
1.46991
1
1
1
1
1
1
1.00002
1.18707
1
1.46969
1
1
1.47264
1
1
1
1.47211
1.47008
1.04478
1
0.997563
1
1
1
1
1.47156
1
1
1.47222
0.662336
1
1
1
1
1
1
1.3791
1
1
1.46768
1.47092
1
1
1
1.47249
1.47403
1
0.999702
1.46603
1
1
1
1.00002
0.661249
1.02917
0.996138
0.995957
1
1
0.705182
1.47177
1
0.674636
1
1.46888
1.45003
0.665867
0.999409
1.47215
1.47101
1.47089
1
1
0.927388
1.41849
1.3853
0.678374
1
1
1
1.47301
1.46865
0.650924
0.997339
1
1.47128
0.661013
1
1.47207
0.662155
0.964448
1.00638
1
1.47911
1
1
1
1
1
1
1.00011
1.43846
1
1
1.47776
1
1
1
1.47124
1
0.652058
1
1
1
1.1545
1
1
1
1
1
0.789174
1
0.661582
1
1.47186
1.00006
0.864119
0.87555
1.00002
1.00385
1.25219
1
1
0.645687
1.47139
1.4715
1.47148
1
0.644582
0.643187
1
1.47134
1
1
1
1
1
1.00003
1
0.652206
1.30764
1
1
0.666021
0.983389
1.00001
1
1
1
0.635888
1
0.73023
1
1
1.48345
1
1
0.663459
1
1.47293
1
0.640992
1
0.661066
1
1.00854
1.469
1.47749
1
1
1.47078
1
1
1.10304
0.996733
1
0.998265
1
1.47472
1
0.651615
1.00002
1.47206
0.999045
1
1
0.798311
1
0.999045
0.674378
1.47046
1.16896
1
1.00001
0.893815
1
1
1
0.81288
1
1
1
1.47119
1
0.644785
0.999999
1
1
1
0.655493
1.47383
1.4104
0.676669
1
1.47815
1
1
1.47132
1.47058
1.39077
0.6595
0.997646
0.999218
1
1.47197
1
1
1
1
1.47013
1.00004
1
1
1.46354
1
1
1.46986
0.629404
1
1
1
0.661938
1
0.999999
0.999999
0.998614
1
1
1
1
1.36736
1
1.47393
1.47271
1.48514
1.47203
1.47226
1.47176
1
1.46996
1
1.47177
1.47291
1
0.998861
0.683967
1.40199
0.999896
1
1
1
1
1.00284
1
1.07499
1
1
1
0.853155
1.47026
1.46126
1.46953
1.41583
0.999873
1
1.02398
1.47005
0.997981
1.05691
0.99743
0.692047
1
1.00002
1
1
1
1
1
1.47215
0.653896
1.47156
1.47261
0.995116
0.628975
1
1
1
1.47042
0.649509
1.41319
0.648689
1.47178
1.46968
0.662849
1.47215
1.02314
1
1.47414
0.78824
1
0.998858
0.631626
1
0.679168
1
1.47183
1.46996
0.749589
1
1.47151
0.683121
1
0.65209
1
1.47318
1
1
1.46803
1
0.843888
1
0.999634
0.675868
1.45822
0.999498
1
0.652346
1
1
1
1
1.2511
1
1.47294
1
1
1.48501
1
1
1.47127
1
0.667043
1
0.66518
1.00001
1
1
1
1
1.45022
1.27436
1.47053
1
1.47157
1.4348
0.638441
0.714356
1
1
1.47343
1
0.663658
1
0.97242
1
1
1.47103
1
1.4704
0.59763
1.48551
1
0.616217
1
1
1.46719
1.47005
1
1.00004
1
1.47992
1
1
0.635103
0.999381
0.672839
1
1
1
1.47397
1.47985
1.47139
1
1
0.673346
1
1.47646
1
1
1
1.44531
1.47129
1.47258
0.65032
1.47438
1.47227
0.646765
1.47184
1.00004
0.6489
1.00906
1
1
1.47101
0.637844
1.29959
0.632944
1.47257
0.997376
0.649752
1.47285
1
1
1
1
1.47131
1.46985
0.656558
1
1.00002
0.662162
1.00003
1
0.69192
0.655001
1.32337
1.4695
0.998498
1.47292
1
1.47678
0.809853
0.67215
1.47261
1.48491
1
1.47231
1
1
1.46914
1
1.35991
1.47167
1
1
1
1
1.47318
1.4661
1.47449
1
1
1.47362
1.47292
1.4706
1
1.47557
1
1
1
1
1
0.634507
0.844209
0.687348
1
1
1.471
1
1
1.47678
0.665729
1
1.46803
1.46598
1.45017
0.679568
1
0.664595
1
1.00003
1.47033
1.23138
1.46989
1.43061
1
0.674559
1
1.47035
1.33472
0.662627
1
1
1
0.824415
1
1
1.47434
1
0.670601
1.47027
1
1
1
1
1
1.37725
1.10595
1
1.4726
1
1.47222
1
0.996936
1
1.47311
1.47356
1.47001
1.47607
0.999598
1.47042
1
1.47431
1.46168
1.39706
1
1
0.607686
1.46945
1
1
1.4746
1.47218
1.47341
1
1.47181
1
1
1.00003
1.48169
1.46962
1.12576
1.0989
1.47249
1.47
0.70213
1
1
1
1
1.00002
1.15929
1
1
1.39521
0.67674
0.999966
1
1.4748
0.999876
0.999818
1.06758
1.42245
1.46916
0.88712
1
0.658818
1
1.00755
1.47024
1.47637
1.47813
0.998978
1
1
0.651933
1
1
1.47224
1.04858
1
1
1
1
1
1
1
0.999935
1.47131
1.00002
1
1
1
1
1.3127
1
1.20413
1
1
1.47183
1.47967
0.671843
0.998816
1
1
1
0.653772
1.47254
1.47151
1
1
1
1
1
1
1
1
1.47064
1.47866
0.63889
1.05119
0.655986
1
0.650511
1
1.47128
1.12263
1
1
0.697913
1
1.45046
0.830376
0.996621
0.660323
1
1
1.46982
1.00004
0.997034
0.638152
1.47398
1.47805
1
1
1
1
1.43952
1
1
1.47195
0.999025
1.47013
1.00003
1
1
0.588738
1
1
1.47314
0.656692
0.798857
0.647616
1.47236
0.999347
1
1.47586
0.715952
0.714225
1.02474
1
1
1.47141
1.00003
1.22171
1
1
1.47135
0.663414
1
1
1.00013
1.47027
1.00014
1.46583
1
1.00003
1
1
0.715607
1
0.776666
1.00001
1
1.47399
0.59134
1
0.76113
0.795055
1
1
1.47362
1
1
1
1.47145
1.47193
1.00005
1.45178
1.47184
0.76358
1.47067
1.43731
1
1
1.47505
0.999999
1
1
1
1
1.47627
1.47231
1
1
1
1.47405
1.00024
1
0.672078
0.738311
1
1.00003
1.17491
1
1
0.892893
0.652738
1
1
1
1.47876
1.43181
1.47057
1
1
1
1
0.661801
1
1.4685
1
1.4634
0.619468
1.47684
1
1
1
0.672816
1
1.47041
1.00003
1
0.666144
1.15799
1
0.999661
1.46769
0.652794
0.699235
1
1.4728
0.631125
0.66987
1
0.652362
1
1
1
1
0.65332
1
1
1
1
1.47055
1
1.35673
0.648971
1
1
1
0.665167
1.47258
1
1
0.996679
1.47503
1
1.47273
1.47169
1
1
0.739435
0.731546
1
1
0.666486
1.15274
1.2162
1
1
1.46948
0.997418
1
0.997719
1.47055
1
1
1
1
1
1
1.47268
1
1.15934
1.14276
0.694397
1.41735
1
1.47175
1.47167
1
1
1
0.896349
0.658539
1
1.22282
0.999639
1.42977
1
1
1
0.999999
1
1.00717
1.20763
1.47368
1.4705
1
1.4715
1
0.638027
1
0.997537
0.999772
1
0.650706
1
0.646157
1.00002
1.47081
1.47151
0.698343
1.4801
0.672132
0.996196
1.34853
0.599808
1.34214
1
1
0.998465
1
1
1
1.00006
1
0.656399
1
1
1
1
0.999586
1.47275
0.78137
1
1
1
1.03713
1
1
1
1.25397
0.769563
1
1
1
1.05656
1.46974
1
0.627946
1
1.474
0.906613
0.673756
1
0.660286
1
1
1.44695
0.998252
1.43121
1
1.00877
1
1
1.47032
1
1
1
1
1.0845
1
1.47109
1.47331
1.46927
0.654184
1.47093
0.997153
1.38291
1
1
0.675836
1
1
0.656603
1.47466
1
1
0.999951
1
1
1
0.638864
0.646857
1
1.47374
1
1.20383
1.47422
0.661623
1.3849
1
1
0.711613
1
1
1.4718
1.4712
1.15849
1
1
1.00208
1.47216
0.653919
0.648359
1.47429
1.47149
1.32418
1.18754
1
0.884435
1
1
1
1.44385
1.47188
1.46963
1
1
1.47461
0.746176
1.41951
0.633729
1
0.649113
1
0.638914
1.47566
0.642099
1
0.965103
0.668963
1
1
1
0.828913
1.42223
1.47436
1.47137
1.47452
1
1
1.47149
1
1
1.47289
1
0.666438
1
0.575861
1
1.47379
1
1
1.0144
1.35559
1
0.999073
0.742475
1.47144
1.00001
0.630124
1.08807
1
1
1.36575
1.47169
1.47071
1
1.47219
1.11272
1
1.02431
1.47051
1
1
1
1
1.47278
1
0.694274
1.47057
0.671348
0.592291
0.830716
1.47258
1.15806
1.46906
1
1.4743
0.997256
1.00003
1.47567
1.47384
1
1.47415
1
1.47463
1
1.47195
1
1.00004
0.999986
1.46872
0.643196
0.649857
0.997906
0.999999
1
1
0.583064
1
1.30683
1
0.652722
1
1.1824
1.47195
1.47631
1
1
1.00003
0.999428
1
1.47214
1.47186
1
1.20293
1.46988
0.841203
1.47112
1.00072
0.689971
1.09176
0.653775
1
1
1.07658
1.47083
1
1
1.0514
0.998643
1
0.667065
1
0.795101
1
1.47303
1
1
0.662147
1.10062
1.04798
0.998451
1.46914
1.47006
0.780279
0.998085
0.665173
0.670787
0.644417
1
1
1
0.999009
0.747116
0.6733
1
1.47202
0.999742
1.47108
1.47065
1.4712
1.47156
1
0.601655
1.47209
0.643996
1
1.47289
1.46696
0.996637
0.795326
1.47028
1.33542
1
0.686921
1
1
1.47927
1
1.02685
1.47371
1
0.67048
0.611836
1
1
0.647993
0.603076
1.47513
1.00004
1
0.665678
0.694304
1.47734
1.45461
1.44183
1.47243
1.12224
0.989127
1.1801
1.47177
1.35618
1
1.23439
1
0.590252
0.867441
1
0.599246
1.47122
1.02318
1.47195
1
1.46658
1.47015
1
1.4701
1.47244
0.644472
1.47544
1
1.47106
1
0.736604
0.648588
1.47062
1
1
1
0.654278
1.47223
1.47361
1
0.642298
1
1
0.643185
1.00004
0.633782
1.46967
1
0.810071
0.63738
1
1
1.2618
1
1
1
1.08011
0.639623
1
1.00001
1
1.47084
0.678889
1
1.47333
0.631677
0.641918
1
1
1.4758
1
1.47525
1.00001
1.47315
0.660319
1
1
0.725417
0.813066
0.580386
1
1
1
1
1.46409
0.684021
1
0.676027
1
1.46958
1
1
0.909313
1
1
0.823353
0.999688
1.00005
1
0.675401
0.641338
1
1
1
1
0.793811
1.46976
1.4717
1
0.671156
0.679714
0.908054
0.64461
1
0.809837
1
0.580035
0.985061
1
1
0.664813
1
1.46935
1.45721
0.636778
1
1
1
1.47792
1
1.04497
0.855586
1.14124
0.648808
1.18964
0.68616
1
1
0.720697
0.902563
1
1.05177
1
1
0.670271
1
0.94408
1.03564
0.675306
1
1.37958
0.769392
0.864796
1
1
1
0.66266
1
0.65516
0.667319
1
0.856238
0.66701
1.08107
0.751354
0.60847
1.46648
1
1.4708
1.25711
0.718201
1.4701
0.603095
0.999045
1.47237
0.999999
1
1.46956
1
0.705728
1
1.07618
1
1
1.46894
1
0.757271
0.812127
1.47221
0.92986
1
0.788219
1.47557
1.47243
0.891568
1
1.47485
1.12297
0.835096
1
1.02004
1
0.641732
1.20341
0.738329
0.71759
1
1
0.655301
1.47238
0.971053
0.663188
0.641084
0.86406
1
1.01619
1.47203
1.47156
1
1
0.999999
0.643376
1.22644
0.999983
1.47243
1.42285
0.691182
1.00002
1.09227
0.863219
1.28059
1.40041
1
1.03925
1
1.00006
0.700083
0.84237
1
1
0.819307
0.696577
1.03553
1
1.00001
0.63164
1.21079
1
1.47467
1
1.01966
1.25813
1
1.46403
1
1
1.46756
1
0.654946
1.47047
0.678158
1.11825
1
0.653625
0.999911
1
1.00003
1
0.796751
1.02764
0.665759
1.35724
1.47219
0.639798
1
1
1
1
1
0.970175
0.670553
1.06687
0.667083
0.662668
1.07388
1
0.999797
1.11881
1
1
0.628529
1.00047
1
1
1.12644
1
1.47033
1
1.47122
1.09493
1.01434
0.653736
1
1
0.630601
1
1
1
1
1.46928
1.04344
0.998099
1
0.658961
1.05183
0.999999
1
1.30441
1
0.747503
1.47187
1
1.00001
1
1.47337
0.703934
0.873588
0.697802
1.35286
1.47248
1
1
1.47385
1
0.651977
1
1
1
1
1
0.758546
1
1.47031
1
1
1.15761
1.47034
0.657114
0.845753
1
1.47207
1
1
1
1
1
1.47373
1.47213
0.592201
1.47134
0.647479
1
1
1.47222
1
1.47441
1.0054
1.02965
1.06342
1.46869
1.06627
1.31812
0.638381
1
0.654968
0.984659
1
1.47327
1
1
0.655499
1.48068
1
1.47321
1
1
1
1
1
1.00001
0.644898
1.47053
0.831468
1.47308
1
0.690617
0.669211
0.710752
1.47935
1.47147
0.968793
1
0.775706
1
1.18651
1
1.47341
0.651993
0.667525
0.844593
1
1.4708
1
1.07225
0.677186
1
1.47147
1.40493
0.998902
1
1.47093
0.644475
1.48003
1.47154
1.47176
0.670436
1.07518
1
1
0.641277
1
0.79226
0.82141
1
1.00002
1.4665
1
1.46722
1.08882
1
1.03726
1.47818
1
0.637577
1
0.774792
1
1
1.38317
1
0.78283
1
0.665199
1.03697
0.928275
0.696629
1.47105
1.37896
1.47235
0.664831
0.684325
0.995758
0.999999
1
0.673808
1.44501
0.640079
0.999965
1
1.47204
1.47189
0.912347
1
0.634197
0.702289
1.31089
0.972573
0.654306
0.999999
0.66287
1.09736
0.655583
1
1.00005
0.827349
1.4719
1.47027
0.851071
0.999594
1
1
0.758934
1
0.648893
1
0.62651
0.637422
1
1
1.00003
0.663137
1.47101
1
1
1.00007
1.00004
0.672408
1.47053
1.47201
0.999999
0.66706
1.47233
1
1.07703
1
1
1.47095
0.651537
1
1
0.658657
0.730454
0.662309
0.578489
1
0.712841
0.99713
1.09641
0.661944
1
1
1.12322
1
1.41842
1
1
1.32064
0.65901
1
0.718032
1.11529
1.47221
1
1
0.659966
0.660579
0.63686
0.758629
0.648317
1.34386
0.999423
1
1
1
1
1.47084
0.635738
1
0.926977
0.999701
0.998146
0.999941
0.748819
1.12454
1
1.47236
1.47114
1
1
1.44761
1.00005
0.999999
1.47613
0.667366
1.47992
1
0.636879
1.47133
1.00005
1
0.804954
1
0.638024
1
1.47242
1
1
1.473
1
1
1.47823
1
1
1
1.47015
1
0.725745
0.699424
1
0.630783
1.47068
1
1
0.967267
1
1.46985
1.27105
1.36966
1
1
0.678631
1
0.600377
1.47278
1.47217
1.47048
1
1.47125
0.637827
1
0.604783
1.37514
1.43789
1.46909
1.47278
0.788777
0.657423
1
1.30534
1.47148
1.47214
1.47007
0.727147
1.16856
1
1.3533
0.732697
1
1.00002
1
1.00002
0.89526
1
1.48123
1
1
1
1
1
1
1.00006
1.46879
1
1.47597
1.34232
0.642329
1.46973
1.03714
1.23207
1
1.47163
1
0.657197
1
1
1
1
1.40005
1
0.638918
1.47093
0.642203
1.47328
1.37284
1.23475
1
1.08432
1.21072
0.995893
0.706752
0.786376
1.00002
0.999999
0.926977
1
0.634273
1.47127
0.61121
0.915889
0.868089
1
1
1
1.01436
1
1
0.694579
0.995708
1.46901
1
1.47173
1
0.650134
1
1
1.47134
1.47291
0.637541
1
1.47131
1
0.817489
0.621311
1.47283
1.4207
1
1.0707
1.46991
0.998631
1
1.18725
1.41235
1.47124
0.996198
1
0.999998
1.39821
1
1
1
1.47143
0.998515
1
1
1.47199
1
1
0.653741
1
1
1
1.47252
1
1
0.867944
1.13818
1.42519
0.745429
1
1.47319
1
1.15588
1
1.47381
0.997206
1.47403
1
0.634187
1
1.32249
1
1
1.43892
1.00001
1.4702
1
1.47429
0.677892
0.662816
1.47123
1
1.39663
1
1.47226
1
1
1.00005
1.4682
1.46696
1.10321
1.47019
0.995522
0.668177
1.47116
0.853283
1
1.47077
1
1.4705
1
1.47356
1.47232
0.996431
0.645288
1
1.47496
1
1.04433
1
1
0.99795
0.732367
1.41884
1
1.41994
1
0.864665
0.654796
1.4727
1.47006
0.694336
1
1.47182
1.47173
1.47323
0.694137
1.46829
0.657635
1.47195
1.48081
1
1
1.47437
1
1
1
1
0.651164
1
1
1.47265
1.4732
1
1.47182
1
1.47054
1.47265
1
1.38867
1
0.634353
1.47142
1.3545
1.12599
0.638567
1.47184
1
1
0.659618
1
1
1.46831
1
1
0.784635
1
1.47118
1.00008
1.47073
0.657725
1.47086
1
1.46843
1.45286
0.908861
1
1.47546
0.775297
1.47437
1.33202
1.47183
1.46941
0.997056
1.47331
1.47154
1.47365
1.47075
1.00103
1
0.670581
1
1.46983
0.835108
1.42653
1
1.46211
1
1
1
1
1
1.4691
0.649946
0.663906
1.47002
1.47312
1
1
1
1
1
1.46855
1.42091
1.47375
1.01042
1
1
1
1.00003
1.46875
1.47316
1
1.47076
1.47316
0.653567
1.3272
1
1.46983
1.478
1.46338
0.99783
1.47299
1.47083
1
1.44497
1
1
1
1
1
1
1.4705
1.47211
1.43743
1.4705
0.651509
0.690108
1.47188
1.47394
1
0.608378
0.942123
1
1.22562
0.661645
1
0.999452
0.998276
0.648856
1
1.4719
1
1
1
1.47105
0.943862
1
1.47045
1.46719
1
1.47203
1
1
1.47086
1
0.661705
1
1.47178
1
1
0.666246
1
1.47041
1
0.633644
0.718296
1
1.45599
1
0.637264
0.875189
1
1.47101
1
1
1
1.47849
1
0.645401
1.05891
1.47254
1.47267
1.46909
1.03401
1.47343
1.47612
1
1.00002
1
1
1.00001
1.47021
1
0.999337
1.47745
1
0.632968
1
1.47081
1.20196
1.0554
1.21213
1.0656
1.47328
0.712051
1.47004
1
0.66587
0.997286
1.47117
0.940797
1.47087
1.46979
1.44756
1
1.47255
1.4703
1.4717
1
1.00004
1
1
1.47281
1.33309
1
1
0.667394
0.99649
1
1.47138
1
1.4723
1.47091
1.46837
0.913519
1.47105
1.47305
1.00613
1.22709
1.4726
1.46933
1
1.43526
0.835892
1.4497
0.991997
1.47179
1
1.47079
1.47097
1
0.653962
0.934144
0.726502
1
1.08448
0.996553
1.47191
1
1
0.99681
1
1.23047
1.45806
1
1
1.47121
1
1
1.33442
1.473
1.45191
1.47051
1.4708
1
1.47323
0.731087
1.47247
1
0.993242
0.644594
1
1
0.781994
1
1.14286
1
1.47547
1
1.46219
1.29736
0.634764
1
1
1
1
1
1.47259
1.01096
1
1.47037