/*--------------------------------*- C++ -*----------------------------------*\
  =========                 |
  \\      /  F ield         | OpenFOAM: The Open Source CFD Toolbox
   \\    /   O peration     | Website:  https://openfoam.org
    \\  /    A nd           | Version:  12
     \\/     M anipulation  |
\*---------------------------------------------------------------------------*/
FoamFile
{
    format      ascii;
    class       volScalarField;
    location    "5.58";
    object      p;
}
// * * * * * * * * * * * * * * * * * * * * * * * * * * * * * * * * * * * * * //

dimensions      [1 -1 -2 0 0 0 0];

internalField   nonuniform List<scalar> 
22702
(
1
1
0.865901
1
1.05018
1
1.475
1
1
0.651611
1.47273
1.47657
1
1.47035
0.877382
1
1
1
1.47209
1
1.4721
1
1.46921
0.652651
1.47473
0.650666
1
1.46974
0.645662
0.645047
1
1.47325
1
1
1
1.43617
1.47075
1.46925
1
1
0.644543
1
1.23317
1
1.46893
1
1
1
1
0.658997
1
0.65226
1
1.4729
1
1.46606
1
1
1
1
0.666138
1
1
0.68224
1
0.676365
1
1
1
0.640155
1
1.47189
1.28279
1
1.4717
1.49742
0.646926
1.48035
0.655992
1
1.47216
0.65984
1.4632
1.46723
1
1
1
1
0.931273
0.644777
1.47349
1
1
0.66384
1
1.47143
0.662297
1
1
1
1
1.23189
1.47178
0.642995
1
1
1.11045
1
0.656775
1
1.47471
1.47069
1
1
0.650812
0.657395
0.648754
1
1
1
1
1
0.912092
1
1.40281
1.04457
1.47662
1
1.47595
1.47118
1.4696
1.47109
1
0.648941
1
0.678091
1
1
1
1
1.47061
1
1
1
1
1.47032
1
1.02471
1
1
1
1
0.654253
1
1.01028
1
0.656951
1
1
1
1.47218
1
1.47193
0.659299
0.648603
1.47287
1.47217
1
1.07849
1.26148
1
1.46375
0.655083
1.43691
1
1
1
1
1.47148
1.37621
1
1.47191
0.705416
1.4635
1
0.66658
1
0.648938
0.654664
0.999799
1
1
1.47163
1
1
1.47075
1
1.46261
1.4718
0.661108
1
1
0.661527
1.47055
1
1
1
1.47058
1
0.664449
1
1
1.47222
1.47167
1.46579
1
1.00004
1
1
1
1.47068
1
0.698554
1.48997
1.471
1.47041
1
1
1
0.645703
1.47159
1.21603
1
1.47305
0.692367
0.684867
1.47321
1.47403
1
1.47677
0.642316
1.41638
1
1
1
1
1.47216
1
1.26957
1.0434
1
1
1.47107
0.689094
0.780623
1
1.47358
0.620231
1.46875
1
1
1
1
1
1
1
0.658285
0.766034
0.684743
1.47115
1
1
1
1
1.42532
1
0.657679
1
0.638978
0.660599
1.47192
0.67477
1.47239
1
1
1
0.997652
0.668254
0.641341
0.999999
1
0.636286
1
1.47109
0.642562
1
1
1.47194
0.648522
1
1.46607
0.655866
1.47176
1
0.644019
0.997777
1
1
1
0.659902
1
1
0.999999
1.00001
0.994349
1.2864
1
0.683513
1
1
1
1
1
1
1
1.47177
1
1.47156
1
1
1
0.650562
1
1.46986
0.680132
1
1.37591
1
1
1.47039
1
1
1
1.46105
1
1
1.46653
1.4708
1
1.09928
1
1
0.68143
1
1
1
0.672238
1
1
1
1
0.673072
1
1
1
1
1
0.643963
1.00006
1.47202
1
0.999974
1.47235
1.47273
1
1
0.66851
0.815743
1.47191
1
1
1
1.47172
0.635948
1
1.4719
1
1
0.713551
0.69443
1
0.660152
0.675628
1
1
1
1
1
1
1
1.477
1.111
1.43893
0.653452
0.911523
1.4704
1
1.47193
1.47075
0.699361
0.783519
1
0.65708
1
1.48104
1
1
1
1
1.47065
1
1
1
1
1
1
1
1.16802
1.46997
1
1.47118
1
1
0.660743
1
1
1
1
1.4707
1.35646
1
1
0.666995
1.47185
1.47237
1
1.47247
1.47087
1.4715
1
0.840823
1
1.47138
0.98367
1.47135
1
0.689334
0.99896
1.47263
1
1
1
1
0.656741
1.47151
1.4253
1
1.47482
1.47175
1.47223
1
1.21384
1.47258
1
1
1.32379
1.06624
1.47187
0.935591
1.47192
1
1.47149
1.47123
1.47158
1.47236
1
1.45233
0.909912
0.871865
1
0.999999
1
1
1.47535
1
1
1
1
1
1.47333
1
1
0.996001
1.47216
1.42979
1
1.38801
1.00004
1
1
1.47309
1
0.996595
1.00489
1
1.47154
1
1.47131
1
1
1.34717
1
1.47065
1.00002
1
1.47016
1
1.47072
1
1
1
1.47136
1
1.47215
1.00001
1.47137
1.47012
1.47072
1.47436
1
1.47281
1.47911
1
0.644376
1.44078
1.33332
1
1.47079
1
0.685182
0.661349
1
1
1
1
1
0.657792
1
1.47119
1.10639
1.473
1
1
1
1
1
1.47123
1
1.47858
1.27632
0.78268
1
1.00001
1.13115
1.11395
1
1
1.16749
1
0.658282
1.47173
1.47129
1
1
1
1.47171
1
1.00003
1.46833
1.47195
0.958007
1
1
0.661702
1.42718
1
1
1
1
1
1.4713
1.47247
1
1.47123
1.46906
1.47077
1
1
1
1
0.643508
1.46993
1
1
1.42723
1.47054
1
1.44293
1.47148
1
1
1
1
1
1.47145
1
1
1
1
1.47504
1
1.46454
0.669254
1
0.680307
1
1
1
0.996479
0.650181
0.999096
1
1
1
1.06275
1
1
0.879911
1
1
1
1
1
1
1
0.999997
0.911462
0.999999
1
0.997458
1
0.657411
1
1
1
1
1.34903
1
1
1
1
0.683
1
1
1.44338
1.46976
1
1
1
0.876228
1
1
1
1
1
1
0.960811
0.994029
1.47045
1
1
1
1.46839
0.896634
1
1
1
1.46911
1.46946
1
1.00001
1
1
1
1
1
1
1
0.663576
1
1
1.47183
0.660944
1
1.47053
1
0.653667
1
1
0.670075
1
1
1
1
1
1
1
1.46215
1.47066
1
1
1
1
1.42798
1
1.13965
0.652515
1
1
1
1
1
1
1
1.0404
1
1
1.24186
1
1
1
1.38169
1
1
1
1
0.652415
1
1
0.662184
0.656085
1
1
1.4716
1
1.01506
1
1
1
1.3255
0.651791
1
0.638591
1
0.777054
1
1
1
1.47105
1
1
1.47173
1
1
1
1.47111
1
1
1.47083
1
1
0.694904
1
1.13798
1
1
1.4703
1.47086
1.31
1.42018
1
0.696389
1
1
1.4498
1
0.633507
1
1
1
1.4721
1
1
1
1
1.27922
1
1.43249
1.47595
0.651335
1
1
0.649857
0.654555
1
1
1
1.33389
1.35356
1
1
1
1
1
1
1
1.19115
1.46896
1.01369
1
1.46548
0.654869
1
1
1
1.25539
1
1.09003
1
1.4287
1.47002
1
0.685306
1
1.46304
1
1
1.47215
1.44198
1
1.47657
1
0.672075
1
1
1
1.4798
1.46183
1.41239
1
1.47434
1.47038
1
1.47223
1
1.46987
1
0.620008
0.964949
0.637459
1
1
1
1
1
1.47101
1
1.4711
1
1
1
1.44714
1
0.654189
1.47178
1
0.633455
0.664817
0.645976
1
1.22203
1.02757
1.47331
1.47071
1
0.999999
1
1
1.47138
1
1
1.47152
1.47003
1
1.1593
0.999493
1
0.996844
1.4746
0.850766
1
0.823353
0.660283
0.656981
0.922328
1.46978
1.46473
1.08127
1.47185
1.47122
1
1
1.47491
1.47161
1.47145
1.47388
1
1.47233
0.621677
1.47216
1.47352
1.46906
1.47091
0.870764
0.906317
0.923585
1.47155
0.942825
1.47089
1
1
1.47377
1.47132
1
0.656945
1.47144
1.47012
1
1.47162
1.47102
1
1.47105
0.659724
1.47091
1.47424
1.47032
1.4736
1
1
1
1.4701
1.29837
0.680764
1.47057
0.649286
1.47093
1
1
1
1
1.47299
1.47084
1
1
1.47084
0.661257
1.47085
0.65647
1
1.46794
1
0.654466
1.47424
0.744421
1
1.47119
1.47395
1.47149
1
1
1.23419
1.47253
0.656255
1.47037
1
1.47043
0.883616
1.47185
0.678157
1
1.47285
0.670535
1.4738
0.65285
1
1.47282
1
1.46978
1
1.26658
1.45335
1.3656
0.658187
1
1.47178
1
1.47139
1
1.47207
1
1
1.47251
0.985349
1.47455
0.662503
1.43869
1
1.32641
1
1.47224
1.47167
1.47203
1
1.42181
1.47229
1.4359
1.2837
1.47275
1
1.30539
1
1.47278
1
1.05767
1
1.4346
1
1.47059
1.44897
1.44808
1
1.46756
0.665003
1
0.681192
1
1
1
1.47321
1
1.47218
1
1
1
1.47177
1.45269
1.38783
1.47407
1.47024
0.673711
1.47921
1.46321
1
1.40476
1.47125
1.44939
1
1.46324
1.4679
1
1.47765
1.4707
1.47108
1.47447
1
1
1
1.47132
0.66487
1
1.47158
1
1
0.662792
1
1
1.47113
1.47173
1
1.47122
1.46593
1.47052
0.976416
1.47146
1
1.47145
1.47101
1.37673
1
1
1
1.47122
1.47161
1.47144
0.929211
1
1.47886
1.47142
1.4699
1
1.47126
1.47245
1.4713
1.48169
1
1.47156
1.47157
1.40749
1.47255
1.48086
1
1.47656
1.46598
1.47145
1.47285
1.47273
0.634063
1.47213
1.47193
1
1.47169
1.47144
1.47125
1.4707
1
1.47228
1.47155
1
1.47015
1.39398
1
1
1
1.47176
1.48037
1
1
1.25445
1
1.47127
1
1
1.47131
1.47285
1.47174
1.47056
1
1
1
1.32642
1
1.47055
1
1
1.47527
1.47343
1
1.47117
0.629994
1.47091
1.46979
0.717247
1
0.636352
1.4068
1.46957
1.46959
1.46929
0.687011
1.47261
1.47201
0.686942
0.666554
1
1.46988
1.47193
1
1
1.47166
1
1.47333
1
1.41116
1
1.21494
1.47219
1.47481
1.3217
1.43725
1.46491
1.47096
1.44349
1
0.643276
1.46798
1.47171
1.47558
1.00001
1
1
1.47647
1
1.47216
1.47155
0.744566
1
1.47093
0.999932
1
1.00003
1.00004
1.47169
1.47105
0.998482
1
1
1.47142
1.47262
1.47191
1.47036
1.47478
0.678638
1.40263
1
1.46806
1.47177
1.47204
1.46146
1
1.47078
1.45791
1.47259
1
1.47159
1.47235
0.867075
1.47079
1.47126
1
1.47205
0.852535
1.47146
0.845387
1.47051
1
1.47165
1.48259
1.47148
1.47206
1.47159
1.47087
1.47209
1.46916
1
0.927919
1.4716
1.4721
0.85764
1.47121
0.987993
1.28837
1.47179
1.4721
1.4698
1
1.47362
1.30349
1.47281
0.924024
1.47436
1.471
1
0.879801
1
1.47668
1
1.32087
1
1.43814
0.872336
1
1.47495
1.47684
1
1.47594
1.47352
1.47494
1.47503
1.47709
1
1.47002
1
1
1
0.88429
1.47168
1.47078
1.46785
1.47115
1.47407
1.46992
1.46397
1.47207
0.881712
1.03105
1
1
1.47755
1.47177
1.47228
1.47149
1.00003
1.24084
1
1.47663
1.44123
1
1
0.727295
1.47113
1
1
0.624379
1.47141
1
1.46345
1.47092
1.46615
1.45329
1.47121
1
0.648512
1.11274
1.47186
1.47148
1
1.47119
1.47105
1.23587
1.00958
1.10345
1
1.46916
1.4715
1
1
0.686787
1
1
1.47124
1.47154
1.47037
1.47202
1.47137
1.47206
1.47206
1.47374
1.47118
1
0.995876
1.47163
1.47087
0.997004
1.47129
1.47101
0.666859
0.643844
1.47396
1.47314
1
1
1.00157
1.47114
1.47056
1.47129
1
1.47116
1
0.854562
1.47688
1.4773
1
1.21031
1.47247
1
1.47218
1
1.47141
1.30734
1.47324
1
1.47189
1.46469
0.677736
1.47176
1
1.47224
1.46969
1
0.660245
1.474
1.38936
0.997917
1.45369
1.47135
1
0.996442
1.47705
0.998366
1.47106
1
1
1.47329
1
1.47013
1.47115
0.996212
1.37188
1
1.47116
1
1
1
1
1.47148
1
1
1.46236
1
1.47174
1
1.3001
1.46793
1.47055
1
1
1.00259
1
1.46951
1.47105
1.47344
1.47165
1.47202
1.47149
1.47115
1
1.47085
1.473
1
1.47096
1.47114
1
1.47226
0.914318
1.05747
1.47108
1.47162
1.47239
1
1.4714
1
1.47173
1.47129
1
1.47279
1
1
1
1
1.47205
0.659097
0.997797
1
1.47216
1.47992
1
1.47155
1
1.00515
0.634357
1.47156
0.999626
1
1.47316
0.99838
1.47145
1
0.999787
1
1.47216
1.47178
1.47179
1.47366
0.653208
1.47228
1.47221
1.47215
1.11687
1
1
1.1953
1.47121
0.643611
0.651512
1
1.47081
1.47013
1.47134
1
1
1.47067
1.47095
0.999886
1
1.34151
0.634693
1
1.08068
1.47121
1.46842
0.998238
1.47126
1.47943
1
0.999064
1
1.4709
1.47428
1.18606
1
1.45707
1
1.00145
1.46998
0.644625
1.47115
1.4715
0.996946
0.999909
1.40779
1
0.999684
1
1.47086
1
1.00001
0.62896
1.47173
1.00001
1
1
1
1.47983
1.26091
1
1
0.634081
1.4713
1.26138
1
1
1
1.44839
1.4631
1.46994
1
1
1.4732
1
1.47162
1.47176
1
1
1.47388
1.47119
1.45017
1
1
1.47404
1.47348
1
1
1
1.47339
1
1
1
1.47016
1.47786
1.47477
1
1.47891
1.00003
0.683687
1.47158
1.47164
1
1.47426
1.44365
1.48147
1
1
1.47536
1
1.24569
1.47215
1
0.684284
1
1.47342
1
1
1.46876
1
1
1
1.14373
1.46946
0.67343
1.00001
1.47271
1
1
1.47037
1
1.47554
1
1
1.47146
1.47104
1
1.00005
1
1
1
1
1
1
1.4746
1.47192
1
1.46338
0.663808
1.48095
1
1.47095
1.46773
1.47197
1.47611
1.47667
1
1
1.47252
1
1.29291
1.47663
1.47012
1
1.47547
1.47535
1
1.42435
1
1.47109
1.30312
1.47211
0.997351
1.46061
1.42784
1.47334
1.47262
1.03674
1.47145
1.47636
1
1.47164
1
1.47188
1
1
1
1
0.996403
1.47132
1.47216
1.38347
1
1.47314
1
1
1
0.648238
1
1.46098
1
1.42642
1.4515
1
1
1
1.432
1.47593
1
1
1.47302
0.652332
1.08183
1
1.47593
1.47232
1.42893
1.46095
1.47108
1
1.47199
1
1
1
1
1.46993
1.47111
1
1.45357
1.05334
1.47132
1.43726
1
1
1.43964
1
1
0.683876
1.32695
1
1
1.47851
1
1.47662
1.42812
1
1.42576
0.652041
1.472
1.47087
1.47225
1
0.696634
1
1
1
1.47179
1.39886
1
1.46415
1.47158
1
1.47196
1
1
1
1
1.47091
0.999348
1
1.47374
1
1
1.47248
1.47095
1
1.47672
1.08498
1.00002
1
1.47192
1
1.47256
1
1.01408
1.47163
1
1.4714
1
1
1.14142
1.46924
1
1
1
1
1
0.996239
0.681173
0.640589
1.02109
1
1.02378
1
1.02443
1
1.47165
1
1.28104
1
1.47191
1
1
1
1.47188
1
1.375
1.47175
1
1.24564
1.47375
1
1
1.47024
1.47071
1
1
1.0514
0.662232
1
1.47205
1
1
1
1
1.07668
1.47229
1
1
1
0.678763
1
1.47148
1.47137
1.48535
1
1
1
1
1.22876
1.47485
1
1
1
1.47438
1.47162
1.04643
1
1
1
1.47319
1.47139
1
0.673621
1.47174
1.47216
1.47018
1.47111
1.47348
1
1
1.46945
1.47445
1.4707
0.679265
1.04132
1.47158
1
1
1
1
1
1.47085
0.654306
1
1
1.47096
1.21204
1
1.46993
1
1
1
0.663968
1
1
1.12051
1.47173
1.47088
1
1.47346
1.47202
1
1.08062
1
1.47325
1
1.46995
0.653831
1
1
1
1
1.47216
1.00007
1
1
1
1.4571
1
1
1
1
1.47203
0.665177
1.36363
1.47341
1
1.47252
1
1
1
0.997152
1
1.46899
1
0.801357
1
1
1.00003
1.4719
0.634551
1
1.4716
1
1.46966
1.47266
0.660391
1
1
1.45024
1
1
0.669021
1
1.47663
1
1.44923
0.999399
1.47168
1
1
1
1
1.47479
1
1
1.47134
1
1
1
1
1
1
1
1
1.30647
1
1.1436
1.46965
1
1
1
0.67842
1
1
1
1
1.47408
1.47162
1.0472
1
1
1.47278
1
1
1.46801
1
1.00002
1
1
1
1.00001
1.4705
0.773205
1.47169
1.47361
0.996908
1
1
1
1.2731
1
1
1.47055
1.47129
1
1
1
1
0.641497
1
1
1
1.28909
1
1.4718
1.47624
1
1.47354
1
1
1
1.25255
1
1.47062
1
1.47145
1
1
0.996358
1.47151
1
1
1
1
1
1.46953
1.00002
1
0.690892
1.47543
0.67588
1
1.47441
1
0.996012
1
1.47379
1.47156
1
1.46297
0.880937
1.47148
1.47203
1.00003
1
1
0.662623
1
1
1
1.47185
1.26315
1.47163
1
1
1
1
0.996918
1.47273
1
0.655741
1
1
1
1
1
1
1
1.48028
1.46864
1.47696
1
1
0.996911
1
0.986092
1
1
1
0.626682
0.982239
1
0.669162
0.674365
1
1.47247
1.47247
1
1.47435
1.47157
0.65705
1.32452
1
1
1
0.655594
1.46948
1
0.651071
1
1.46624
1.08385
1
1
1
1
1.47153
1.47253
1
1
1.47129
1
1
1.47029
1.47204
1
1.42625
1.47082
1.47042
0.960897
1.47362
1.00885
0.65209
1.35556
1.47258
1
1
1
0.614429
1
0.677269
1.4752
0.962875
1.47163
0.958811
1
1.47125
1.20586
1
1
1.47086
1
1.19222
1.47023
1
1
1.47009
1.47599
0.676657
1.28162
0.999898
1
1.28217
1
1.47743
0.933838
1.47998
1.47792
1
1
1
1
1.47351
1
1
1.4692
0.999643
1.47151
1.3928
1.46952
0.661387
1
1
1
1
1.47055
1.00004
1.47152
1
1.47091
1.47267
1.05667
1.48026
1.1457
1.4711
1
1.31898
0.698351
1.47749
1.4713
1.37449
1.0775
1.47258
1.47141
1.47137
1.47277
1
0.912015
1.06569
1
1.47152
1.22062
1.47214
1.00003
1
1
0.71092
1.4811
1.47247
1.37794
1
1.17079
1
1.47227
1.47508
1
1.47304
1.47185
1
1
1
1.47349
1
1.18379
1.47364
1.3231
1
1.47223
1
1
1
1
1
1
1
1
1
1
0.6971
1
1.44644
0.626285
1.27178
0.99858
1.47868
1
1.24083
1.00001
1.29962
1.3951
1
1.0022
1.46773
0.902707
1
1.4689
1.47237
0.935455
1
1.46968
1.47069
1.47553
1
1.47153
1.46965
1.47002
1
1.21108
1
1.00006
1.47146
1
1.47122
1.06597
1.47384
1
1
1.47348
1.4686
0.710274
1
1.47024
1.34852
1.4702
1
1
1.47237
1.47536
0.998214
1
1.43321
0.996806
1.47167
1.00006
1
1
1
1
1.21007
1
1.35352
1.47174
1.34842
1.46966
1
1.003
1
1
1.4696
1
1.47126
1
1
1
1
0.999999
1
1.05418
1.24041
1
1
0.641393
1
1.46945
0.681082
1.46841
1
1.22607
0.999751
1.47193
1.29426
0.666813
1.25622
1.00003
1.47149
1.4712
1
1.27883
1.47495
1.47054
0.998381
1.48012
1.45771
0.655498
1
1
0.997822
1
1.47058
1
0.666757
1.4686
1
1
1.41227
1
1.47151
1
1.46917
1
0.694081
1
1
1.47019
1.47898
1.47711
1
1.46895
1.47143
1.469
1
1
1.46655
0.999999
0.73712
1
1
1
1.47043
1
1.47158
1.30615
1.46921
1
1.47169
0.999371
1
1
1
1
1
1
0.707501
1
1
1.47124
1
1.46862
1.47839
1
0.657147
0.664307
1
1.47288
1.07767
0.655374
0.635969
1
1.47131
1
1.47269
0.686652
1.00112
1
1
0.999534
1
1
1
0.999918
1.19178
1.47121
1
1
1.47387
1.2698
1
1.44025
1.47022
1.47306
1.19282
1.47294
1
1.47159
1
1.46682
1
1.46796
1.47313
0.997174
1.47043
1.47603
1
1
1
1
1
0.909349
1.47283
1.00004
1.00003
0.647475
0.99999
0.665834
0.646793
1
1.47251
1.47259
1.47219
1
1.47195
1
0.664842
1
1
1.47168
0.809304
1.46953
1
1.4697
1
0.980452
1.4712
1
1
1
1.47021
1
1.47135
0.675957
1
1
1.26748
1
1
1.25537
1
1
1.47184
1
1
1
1
1
1.48039
1.4711
1
1.47102
1.47092
0.662543
1.20669
1.46845
1
1
1.42301
0.998926
1
1
1.47164
1.46894
1.30389
1
1.47362
0.666456
1.42881
0.999545
1
1.46949
1.00003
1.46961
1.38028
1.35399
1
1
1.47147
0.704715
0.636381
1
1.47081
1
1.47225
1
1.27647
1
1
1.47019
1.29935
0.656191
1
0.998238
1
1
1.02516
1.19095
1.47149
1
1.46771
1
1
1
1
1
1
1.066
0.655531
1
1
1.03019
1
1
1
1
1
1.47312
1
1
1.47178
1.47104
1.34183
1
1
1
0.839333
1.47276
1.32598
1
1
1
1
1.46875
1
1
1
1.47484
1
1
1.33655
1.48264
1.03093
0.756526
1.47719
1.33156
1.47431
1
1.23086
1
1
1
0.632504
1.00282
0.645701
1
0.658513
0.646017
1
0.662387
1
1
1
1.19914
1
1.47336
1.47241
1.00095
1.22468
1.40184
0.635167
0.755597
0.88372
1
1.47195
1.47097
1.4718
1.47201
1.40456
0.883607
1
1.40549
1
1.45351
1
1
0.996429
1.00952
1
1
1
1.47132
1
0.642567
1
1.47176
0.687265
1
1
1.47194
1
1.47175
0.999848
1
1
1.47222
1.4147
1
1.48716
1
1
1.01425
1
1.21451
1
1
0.660891
1
1
1.47051
0.999998
1.46961
1
1.00003
0.654659
1
1
0.657782
1.00089
1
1.47179
0.694531
1.47742
0.635433
1.46964
1
1
1
1
1
1
1
1
1
1
1
1.45209
1
1.4734
1.46991
0.644997
1
1
1
1
1
1
1.45743
1
1
0.666521
1
1
1.47178
1
1
1.17417
1.39091
0.644492
0.686238
0.688726
0.739627
1
0.996552
0.648158
1.00029
1.45099
0.996874
1
1
1.47002
1
1
1
0.766533
1.00001
1.16129
1
1
1.18794
1.47189
1
0.636051
1
1
1
0.996691
1.00001
1.47369
1.47186
1
0.635913
1
1.25336
0.636621
1
0.895678
1
0.996388
0.655971
1
1
1
0.996257
0.64249
1
0.649582
0.998377
1.24425
1.42131
0.672115
0.645007
1
0.991164
1
0.998637
1
1.4734
1.47057
1
1.02023
1.47153
1.4712
1
1
1.47168
1
1
1.00004
1
1.47546
1
1
1.01779
1
0.998619
0.688998
1
1
1
1
1
1.46953
1.02768
1.00005
1
1
1
1
1
1.00003
1
0.658676
1.1051
0.998643
1.45884
1.46958
1
1.01591
1.47208
1.40811
1
1
0.645169
1.47069
1
1.4705
1
1.4708
1.31115
0.654404
1
0.636167
1.42626
0.999683
1
0.656381
0.647941
1
1
1.39409
1
0.999998
0.649751
1
1
1
1.14363
1
0.644864
1.47022
1
1
1
1
1.47178
1
1
1.47661
1.42179
1
1
1
1.4692
0.66106
1
1.47113
1.47112
1
1.3736
0.999999
1.00003
1
1
1.45344
1.01931
1
0.659531
1.26479
1
1
0.997395
1
1
1.4741
1
1
1.00003
1
1.47176
1
1
1
1
1
1
1.00001
1.2038
1
1.46947
1
1
1.47322
1
1
1
1.47157
1.47669
1.04571
1
0.997674
1
1
1
1
1.47137
1
1
1.47159
0.663211
1
1
1
1
1
1
1.37782
1
1
1.47579
1.47155
1
1
1
1.47135
1.47042
1
0.999711
1.4773
1
1
1
1.00002
0.645508
1.02918
0.996394
0.995931
1
1
0.637206
1.47234
1
0.653004
1
1.47431
1.45175
0.646839
0.999404
1.47147
1.47167
1.47177
1
1
0.917484
1.41276
1.38406
0.649501
1
1
1
1.46797
1.47081
0.654429
0.997358
1
1.47181
0.658676
1
1.47262
0.656049
0.970191
1.00641
1
1.47894
1
1
1
1
1
1
1.00011
1.43763
1
1
1.47564
1
1
1
1.47156
1
0.656255
1
1
1
1.15767
1
1
1
1
1
0.781198
1
0.660358
1
1.47198
1.00006
0.869725
0.868754
1.00002
1.00389
1.24444
1
1
0.671218
1.47118
1.47211
1.47138
1
0.658339
0.669769
1
1.47113
1
1
1
1
1
1.00003
1
0.658296
1.29876
1
1
0.66582
0.999112
1.00001
1
1
1
0.65789
1
0.682181
1
1
1.4725
1
1
0.651172
1
1.47094
1
0.631092
1
0.655328
1
1.00859
1.46989
1.48691
1
1
1.47101
1
1
1.10576
0.996687
1
0.998258
1
1.47439
1
0.637443
1.00002
1.47321
0.998924
1
1
0.803295
1
0.999026
0.658502
1.47095
1.1699
1
1.00001
0.906882
1
1
1
0.793181
1
1
1
1.47156
1
0.655347
0.999999
1
1
1
0.652493
1.47098
1.44245
0.665156
1
1.46724
1
1
1.47197
1.47186
1.39513
0.650567
0.997745
0.999286
1
1.47102
1
1
1
1
1.47198
1.00004
1
1
1.4716
1
1
1.47219
0.672923
1
1
1
0.660426
1
0.999999
0.999999
0.998592
1
1
1
1
1.37132
1
1.47333
1.47095
1.479
1.47209
1.47246
1.47167
1
1.47315
1
1.47033
1.47079
1
0.998836
0.649326
1.4024
0.999901
1
1
1
1
0.997472
1
1.0697
1
1
1
0.839862
1.47221
1.47226
1.47403
1.41465
0.999867
1
1.02196
1.47039
0.997929
1.05876
0.997412
0.679676
1
1.00002
1
1
1
1
1
1.47121
0.651742
1.47117
1.47162
0.99511
0.669721
1
1
1
1.47204
0.673013
1.41444
0.64667
1.47036
1.475
0.654834
1.47481
1.02265
1
1.47409
0.805666
1
0.998701
0.641853
1
0.687283
1
1.47179
1.47281
0.747752
1
1.47178
0.679426
1
0.66214
1
1.47207
1
1
1.45641
1
0.836671
1
0.999652
0.682077
1.4755
0.999496
1
0.674976
1
1
1
1
1.25322
1
1.47061
1
1
1.47882
1
1
1.47114
1
0.676382
1
0.638551
1.00001
1
1
1
1
1.45071
1.27103
1.47123
1
1.47116
1.43713
0.650067
0.631655
1
1
1.47199
1
0.671259
1
0.982828
1
1
1.4693
1
1.47084
0.638439
1.4765
1
0.631371
1
1
1.47487
1.46963
1
1.00004
1
1.47311
1
1
0.651952
0.999375
0.655307
1
1
1
1.47305
1.47741
1.47085
1
1
0.649602
1
1.47371
1
1
1
1.44672
1.47162
1.47221
0.664728
1.47399
1.47144
0.693191
1.47236
1.00004
0.692659
1.02368
1
1
1.47071
0.667526
1.2909
0.669112
1.47147
0.997445
0.664006
1.47492
1
1
1
1
1.47107
1.47119
0.660621
1
1.00002
0.661563
1.00004
1
0.650715
0.635287
1.32255
1.47258
0.998463
1.47162
1
1.47579
0.829072
0.653066
1.47167
1.48211
1
1.47236
1
1
1.47062
1
1.35564
1.47143
1
1
1
1
1.47264
1.46642
1.47542
1
1
1.47319
1.47609
1.4725
1
1.47254
1
1
1
1
1
0.644282
0.842228
0.632349
1
1
1.4717
1
1
1.47185
0.638954
1
1.47049
1.46663
1.44818
0.619936
1
0.654309
1
1.00003
1.47173
1.22518
1.47186
1.42832
1
0.651477
1
1.47424
1.33398
0.632215
1
1
1
0.804761
1
1
1.47214
1
0.655809
1.47066
1
1
1
1
1
1.37386
1.10558
1
1.47145
1
1.46819
1
0.997373
1
1.47142
1.47156
1.4725
1.47629
0.999588
1.47185
1
1.47112
1.47115
1.3979
1
1
0.627774
1.47339
1
1
1.47267
1.47244
1.46733
1
1.4739
1
1
1.00003
1.47219
1.47011
1.12797
1.10102
1.4713
1.46988
0.703308
1
1
1
1
1.00002
1.16514
1
1
1.39817
0.654221
0.999972
1
1.47042
0.999899
0.999827
1.06159
1.41932
1.47003
0.916526
1
0.66408
1
1.0021
1.47226
1.47397
1.47438
0.998993
1
1
0.669569
1
1
1.47207
1.0493
1
1
1
1
1
1
1
0.999934
1.4718
1.00002
1
1
1
1
1.31706
1
1.21574
1
1
1.47138
1.47638
0.661861
0.998831
1
1
1
0.662566
1.4716
1.47178
1
1
1
1
1
1
1
1
1.47166
1.47759
0.632707
1.04979
0.658147
1
0.677164
1
1.4714
1.11637
1
1
0.722196
1
1.44922
0.802405
0.996602
0.655011
1
1
1.46946
1.00004
0.997064
0.636101
1.4731
1.47987
1
1
1
1
1.44008
1
1
1.47127
0.998905
1.47162
1.00006
1
1
0.664754
1
1
1.47139
0.65289
0.781911
0.648364
1.47136
0.999297
1
1.47536
0.663111
0.630307
1.02181
1
1
1.47151
1.00004
1.20214
1
1
1.47157
0.654586
1
1
1.00014
1.47173
1.00009
1.47237
1
1.00003
1
1
0.720922
1
0.786991
1.00001
1
1.46955
0.656366
1
0.790813
0.791938
1
1
1.47154
1
1
1
1.47163
1.47238
1.00005
1.45381
1.47151
0.792605
1.47153
1.46233
1
1
1.47291
0.999999
1
1
1
1
1.47706
1.47125
1
1
1
1.47196
1.00021
1
0.654809
0.715084
1
1.00003
1.17485
1
1
0.897965
0.651119
1
1
1
1.47619
1.43052
1.47127
1
1
1
1
0.664218
1
1.46874
1
1.47069
0.680891
1.47879
1
1
1
0.653476
1
1.47148
1.00003
1
0.639688
1.17136
1
0.999654
1.46749
0.649348
0.634363
1
1.47274
0.658689
0.654318
1
0.635953
1
1
1
1
0.663735
1
1
1
1
1.47069
1
1.3574
0.678175
1
1
1
0.638594
1.47139
1
1
0.996494
1.45854
1
1.47079
1.4718
1
1
0.70853
0.645515
1
1
0.636112
1.14336
1.21781
1
1
1.46932
0.997447
1
0.997651
1.47099
1
1
1
1
1
1
1.47305
1
1.15421
1.15026
0.716878
1.4134
1
1.47094
1.47132
1
1
1
0.920465
0.673295
1
1.22391
0.999669
1.42354
1
1
1
0.999999
1
1.00629
1.20781
1.4733
1.47008
1
1.47168
1
0.652735
1
0.997395
0.999762
1
0.66812
1
0.680607
1.00002
1.4741
1.47154
0.634157
1.4762
0.652503
0.996212
1.34687
0.679514
1.33562
1
1
0.998459
1
1
1
1.00006
1
0.68691
1
1
1
1
0.999587
1.47088
0.819534
1
1
1
1.03604
1
1
1
1.25819
0.75901
1
1
1
1.04072
1.47466
1
0.672675
1
1.47282
0.891909
0.643843
1
0.661963
1
1
1.44413
0.998284
1.43392
1
1.00884
1
1
1.47151
1
1
1
1
1.09049
1
1.47161
1.47317
1.4677
0.673731
1.47168
0.997174
1.38019
1
1
0.637432
1
1
0.633708
1.47402
1
1
0.999983
1
1
1
0.646221
0.666561
1
1.46779
1
1.21775
1.47079
0.665664
1.37297
1
1
0.658509
1
1
1.47121
1.47121
1.17179
1
1
1.00109
1.47113
0.6768
0.649076
1.47399
1.47149
1.31561
1.18679
1
0.898882
1
1
1
1.44391
1.47228
1.47199
1
1
1.4749
0.636941
1.41828
0.635447
1
0.666545
1
0.659541
1.47157
0.637445
1
0.985446
0.699825
1
1
1
0.852628
1.44404
1.47053
1.47119
1.47862
1
1
1.47012
1
1
1.4731
1
0.659821
1
0.657863
1
1.47175
1
1
1.02762
1.35843
1
0.999075
0.670409
1.47214
1.00001
0.6689
1.09031
1
1
1.36449
1.47203
1.47175
1
1.47155
1.1157
1
1.02397
1.47151
1
1
1
1
1.47101
1
0.644621
1.47018
0.663734
0.644424
0.816542
1.4718
1.15689
1.47067
1
1.47053
0.997479
1.00003
1.47047
1.47164
1
1.47974
1
1.47221
1
1.47085
1
1.00004
0.999995
1.46986
0.66259
0.646709
0.997986
0.999999
1
1
0.668698
1
1.30536
1
0.656883
1
1.18369
1.47072
1.47244
1
1
1.00003
0.999403
1
1.47278
1.47152
1
1.18989
1.46941
0.858277
1.47187
1.00044
0.620901
1.09522
0.665735
1
1
1.0766
1.47238
1
1
1.04403
0.998531
1
0.647323
1
0.78761
1
1.47153
1
1
0.6659
1.10802
1.0724
0.998489
1.47151
1.47145
0.761721
0.998077
0.665483
0.649469
0.649416
1
1
1
0.999
0.722652
0.671036
1
1.47148
0.999738
1.47126
1.47161
1.47163
1.47111
1
0.676691
1.4738
0.663478
1
1.47181
1.47569
0.996634
0.821659
1.47285
1.32369
1
0.644176
1
1
1.47921
1
1.02572
1.47223
1
0.635133
0.670613
1
1
0.633217
0.671347
1.47168
1.00004
1
0.631821
0.631418
1.47094
1.46491
1.4391
1.47239
1.11954
0.977786
1.18781
1.47556
1.35677
1
1.23472
1
0.673454
0.857391
1
0.64074
1.47183
1.02186
1.47322
1
1.4707
1.47139
1
1.47128
1.47195
0.643909
1.4762
1
1.47058
1
0.756034
0.670588
1.46973
1
1
1
0.663929
1.47326
1.47308
1
0.654984
1
1
0.653083
1.00004
0.638845
1.47176
1
0.826937
0.666952
1
1
1.26333
1
1
1
1.07789
0.660052
1
1.00001
1
1.46979
0.66451
1
1.47091
0.669492
0.66924
1
1
1.47678
1
1.47355
1.00001
1.47105
0.660584
1
1
0.655465
0.81958
0.647816
1
1
1
1
1.47242
0.635608
1
0.665597
1
1.47416
1
1
0.930544
1
1
0.821392
0.999674
1.00005
1
0.662748
0.655761
1
1
1
1
0.807952
1.4698
1.47296
1
0.673694
0.686712
0.909115
0.668242
1
0.821946
1
0.675149
0.976359
1
1
0.64832
1
1.47107
1.46149
0.659167
1
1
1
1.47652
1
1.03971
0.830527
1.14066
0.674598
1.18954
0.639065
1
1
0.735219
0.907813
1
1.034
1
1
0.653447
1
0.945598
1.04179
0.666491
1
1.38421
0.762835
0.857845
1
1
1
0.649479
1
0.663936
0.628201
1
0.845485
0.677526
1.06952
0.750883
0.663131
1.47119
1
1.47125
1.25575
0.723031
1.47122
0.624456
0.999025
1.47239
0.999999
1
1.47306
1
0.745208
1
1.07222
1
1
1.4716
1
0.7695
0.83252
1.47158
0.941019
1
0.735826
1.47044
1.47246
0.888381
1
1.47045
1.1213
0.851871
1
1.01306
1
0.651902
1.19983
0.792038
0.761382
1
1
0.661849
1.47206
0.974209
0.655566
0.650838
0.87176
1
1.02134
1.4723
1.4717
1
1
0.999999
0.657063
1.21212
1.00001
1.47226
1.4254
0.625851
1.00002
1.09534
0.866104
1.28957
1.39885
1
1.0432
1
1.00006
0.627622
0.859559
1
1
0.826206
0.6288
1.03298
1
1.00002
0.657397
1.20417
1
1.47753
1
1.03695
1.25617
1
1.46381
1
1
1.46995
1
0.641083
1.47131
0.693724
1.12061
1
0.674028
0.999909
1
1.00003
1
0.792545
1.02653
0.649167
1.35421
1.47271
0.63686
1
1
1
1
1
0.971838
0.649513
1.0421
0.650589
0.682281
1.07465
1
0.999795
1.1141
1
1
0.690304
0.994912
1
1
1.12666
1
1.47272
1
1.47111
1.0988
1.01372
0.661292
1
1
0.669908
1
1
1
1
1.47057
1.04228
0.998081
1
0.636689
1.05497
0.999999
1
1.30163
1
0.641176
1.47064
1
1.00001
1
1.47215
0.629656
0.868038
0.633616
1.35367
1.47281
1
1
1.47157
1
0.650699
1
1
1
1
1
0.76729
1
1.47113
1
1
1.16235
1.47274
0.671138
0.884419
1
1.47129
1
1
1
1
1
1.47159
1.47123
0.67383
1.47118
0.633695
1
1
1.47147
1
1.4734
1.00864
1.03011
1.08025
1.47146
1.07362
1.31772
0.6521
1
0.652714
0.987942
1
1.47135
1
1
0.643118
1.47476
1
1.47133
1
1
1
1
1
1.00001
0.629373
1.47225
0.86134
1.47133
1
0.641589
0.651009
0.702843
1.47654
1.47313
0.959098
1
0.805786
1
1.18705
1
1.47036
0.634825
0.65734
0.843369
1
1.47186
1
1.07473
0.688877
1
1.4695
1.40883
0.998908
1
1.47152
0.668235
1.47863
1.4704
1.47577
0.65503
1.08728
1
1
0.642118
1
0.813211
0.810582
1
1.00002
1.47147
1
1.47024
1.08673
1
1.03579
1.47914
1
0.623595
1
0.760253
1
1
1.38619
1
0.805578
1
0.65814
1.03608
0.951733
0.638384
1.47237
1.37918
1.4717
0.648909
0.721169
0.99566
0.999999
1
0.708567
1.44225
0.643141
0.99996
1
1.47141
1.47189
0.889465
1
0.652551
0.729777
1.31375
0.968713
0.634757
0.999999
0.653081
1.11058
0.65566
1
1.00006
0.818886
1.47174
1.47125
0.83974
0.999601
1
1
0.704329
1
0.646624
1
0.675564
0.656972
1
1
1.00004
0.650252
1.47154
1
1
1.00007
1.00004
0.678847
1.46984
1.47166
0.999999
0.650764
1.47313
1
1.09406
1
1
1.4708
0.649263
1
1
0.67274
0.755752
0.659561
0.669893
1
0.714156
0.997056
1.09179
0.63531
1
1
1.12751
1
1.41413
1
1
1.32438
0.709456
1
0.650969
1.11917
1.47403
1
1
0.665159
0.656732
0.641876
0.740864
0.660202
1.35301
0.99942
1
1
1
1
1.47204
0.67004
1
0.936997
0.999682
0.99861
0.999941
0.771603
1.11912
1
1.47131
1.47206
1
1
1.45254
1.00005
0.999999
1.47187
0.662099
1.46806
0.999999
0.642458
1.47126
1.00005
1
0.834074
1
0.656799
1
1.47117
1
1
1.47435
1
1
1.47693
1
1
1
1.4727
1
0.769226
0.741075
1
0.633083
1.47326
1
1
0.97028
1
1.47382
1.26935
1.37544
1
1
0.668274
1
0.68253
1.47276
1.47237
1.46972
1
1.47287
0.66137
1
0.677729
1.3774
1.44291
1.47028
1.47236
0.748291
0.650302
1
1.31732
1.47259
1.47215
1.47132
0.75606
1.1698
1
1.35572
0.767476
1
1.00002
1
1.00002
0.89571
1
1.47765
1
1
1
1
1
1
1.00006
1.46977
1
1.47663
1.34517
0.649005
1.47169
1.03686
1.23517
1
1.47088
1
0.65662
1
1
1
1
1.40031
1
0.636334
1.47064
0.644343
1.47214
1.37365
1.242
1
1.08595
1.21348
0.996092
0.674222
0.7573
1.00002
0.999999
0.902662
1
0.65088
1.47269
0.653715
0.929094
0.851197
1
1
1
1.01399
1
1
0.69755
0.99728
1.47096
1
1.4715
1
0.64913
1
1
1.47175
1.47037
0.635685
1
1.47137
1
0.791769
0.678221
1.47106
1.42161
1
1.07702
1.47125
0.998643
1
1.1934
1.41283
1.47007
0.99592
1
0.999998
1.39944
1
1
1
1.47137
0.99846
1
1
1.47223
1
1
0.662653
1
1
1
1.47132
1
1
0.846596
1.14292
1.42669
0.793244
1
1.472
1
1.16342
1
1.47407
0.997177
1.47143
1
0.657097
1
1.31586
1
1
1.43862
1.00002
1.47149
1
1.4758
0.709767
0.659246
1.47099
1
1.40167
1
1.47147
1
1
1.00005
1.46979
1.47548
1.11247
1.47123
0.99593
0.660193
1.47231
0.879681
1
1.46131
1
1.47278
1
1.47369
1.47176
0.99626
0.661188
1
1.47146
1
1.0414
1
1
0.997954
0.743278
1.41985
1
1.42327
1
0.882953
0.661933
1.47
1.47212
0.687949
1
1.46898
1.46478
1.47024
0.684325
1.47131
0.675594
1.47189
1.4808
1
1
1.47125
1
1
1
1
0.651931
1
1
1.47144
1.47163
1
1.47165
1
1.4636
1.4724
1
1.38971
1
0.631155
1.47073
1.35229
1.12269
0.638227
1.47116
1
1
0.658123
1
1
1.47104
1
1
0.775139
1
1.47153
1.00008
1.4693
0.661938
1.47025
1
1.47128
1.45321
0.882371
1
1.47237
0.747527
1.47463
1.33209
1.47222
1.47058
0.997043
1.47329
1.47216
1.47074
1.4712
1.00047
1
0.648822
1
1.47174
0.814363
1.42987
1
1.46307
1
1
1
1
1
1.4692
0.648712
0.662776
1.47144
1.47115
1
1
1
1
1
1.46721
1.42395
1.4715
1.01688
1
1
1
1.00004
1.47048
1.4713
1
1.466
1.47338
0.675715
1.32321
1
1.4719
1.47486
1.46676
0.997929
1.47248
1.46965
1
1.44097
1
1
1
1
1
1
1.47094
1.47182
1.43733
1.47193
0.652995
0.716107
1.4714
1.4715
1
0.678883
0.941722
1
1.218
0.64685
1
0.999469
0.998283
0.650178
1
1.47225
1
1
1
1.47118
0.937887
1
1.47112
1.47239
1
1.47118
1
1
1.47137
1
0.646915
1
1.47355
1
1
0.670142
1
1.47272
1
0.636722
0.628256
1
1.45245
1
0.632207
0.872694
1
1.47161
1
1
1
1.4756
1
0.648133
1.06576
1.47183
1.4729
1.47192
1.03728
1.47376
1.47119
1
1.00002
1
1
1.00001
1.47136
1
0.999353
1.47059
1
0.633094
1
1.47153
1.2099
1.0557
1.21213
1.06113
1.47861
0.710958
1.47096
1
0.652483
0.99718
1.47121
0.941477
1.47166
1.4701
1.44516
1
1.47192
1.47142
1.47106
1
1.00004
1
1
1.47158
1.33361
1
1
0.657789
0.996784
1
1.47044
1
1.47126
1.47116
1.47013
0.911273
1.47079
1.47171
1.01037
1.22449
1.47215
1.47058
1
1.43302
0.835364
1.4474
0.988924
1.47188
1
1.47124
1.47205
1
0.658919
0.938788
0.70269
1
1.08439
0.996949
1.47981
1
1
0.996888
1
1.23074
1.44344
1
1
1.47066
1
1
1.33224
1.47251
1.45231
1.46972
1.47086
1
1.47218
0.72159
1.47112
1
0.99038
0.672526
1
1
0.726086
1
1.14756
1
1.47246
1
1.46278
1.29054
0.647967
1
1
1
1
1
1.47127
1.01137
1
1.4638
1
1.47206
1.47136
0.999999
1
0.960261