/*--------------------------------*- C++ -*----------------------------------*\
  =========                 |
  \\      /  F ield         | OpenFOAM: The Open Source CFD Toolbox
   \\    /   O peration     | Website:  https://openfoam.org
    \\  /    A nd           | Version:  12
     \\/     M anipulation  |
\*---------------------------------------------------------------------------*/
FoamFile
{
    format      ascii;
    class       volScalarField;
    location    "3.51";
    object      rho;
}
// * * * * * * * * * * * * * * * * * * * * * * * * * * * * * * * * * * * * * //

dimensions      [1 -3 0 0 0 0 0];

internalField   nonuniform List<scalar> 
22702
(
1.40001
1.40001
1.26898
1.40001
1.45434
1.40001
1.84145
1.40001
1.40001
1.03801
1.83811
1.84037
1.40001
1.84256
1.27984
1.40001
1.40001
1.40001
1.83911
1.40001
1.84208
1.40001
1.83325
1.02326
1.83962
1.04765
1.40001
1.8336
1.0381
1.02272
1.40001
1.83817
1.40001
1.40001
1.40001
1.80921
1.84382
1.83324
1.40001
1.40001
1.03854
1.40001
1.62013
1.40001
1.82988
1.40001
1.40001
1.40001
1.40001
1.02718
1.40001
1.024
1.40001
1.83825
1.40001
1.83666
1.40001
1.40001
1.40001
1.40001
1.0386
1.40001
1.40001
1.03285
1.40001
1.05883
1.40001
1.40001
1.40001
1.03887
1.40001
1.84353
1.66922
1.40001
1.84537
1.86943
1.05152
1.84204
1.01921
1.40001
1.84028
1.02797
1.83529
1.83384
1.40001
1.40001
1.40001
1.40001
1.32988
1.03685
1.83822
1.40001
1.40001
1.03396
1.40001
1.84149
1.0332
1.40001
1.40001
1.40001
1.40001
1.61944
1.84025
1.04501
1.40001
1.40001
1.503
1.40001
1.0192
1.40001
1.84219
1.83818
1.40001
1.40001
1.05099
1.05706
1.03532
1.40001
1.40001
1.40001
1.40001
1.40001
1.30799
1.40001
1.77895
1.43091
1.84685
1.40001
1.84955
1.8383
1.84209
1.83697
1.40001
1.0406
1.40001
1.03465
1.40001
1.40001
1.40001
1.40001
1.83793
1.40001
1.40001
1.40001
1.40001
1.84406
1.40001
1.4265
1.40001
1.40001
1.40001
1.40001
1.0274
1.40001
1.41022
1.40001
1.02014
1.40001
1.40001
1.40001
1.83698
1.40001
1.83798
1.0114
1.03844
1.84738
1.84157
1.40001
1.47769
1.65321
1.40001
1.83694
1.01563
1.80992
1.40001
1.40001
1.40001
1.40001
1.84222
1.76825
1.40001
1.83871
1.03058
1.83693
1.40001
1.02683
1.40001
1.02106
1.04614
1.39978
1.40001
1.40001
1.83777
1.40001
1.40001
1.84185
1.40001
1.83873
1.83871
1.02677
1.40001
1.40001
1.03691
1.8419
1.40001
1.40001
1.40001
1.84189
1.40001
1.00234
1.40001
1.40001
1.8417
1.84177
1.84104
1.40001
1.40005
1.40001
1.40001
1.40001
1.84126
1.40001
1.03077
1.86369
1.84188
1.84295
1.40001
1.40001
1.40001
1.00663
1.84218
1.61457
1.40001
1.84329
1.02477
1.00588
1.84335
1.84336
1.40001
1.84144
1.01666
1.79137
1.40001
1.40001
1.40001
1.40001
1.84179
1.40001
1.65836
1.44367
1.40001
1.40001
1.84174
1.03236
1.17652
1.40001
1.84203
1.02093
1.84052
1.40001
1.40001
1.40001
1.40001
1.40001
1.40001
1.40001
1.02083
1.16606
1.00213
1.84153
1.40001
1.40001
1.40001
1.40001
1.79534
1.40001
1.01605
1.40001
1.00548
1.03402
1.84162
1.04273
1.84207
1.40001
1.40001
1.40001
1.39775
1.0275
1.00921
1.4
1.40001
0.998787
1.40001
1.83834
1.04239
1.40001
1.40001
1.83843
1.00706
1.40001
1.83577
1.04137
1.84169
1.40001
1.01402
1.39776
1.40001
1.40001
1.40001
1.02746
1.40001
1.40001
1.4
1.40002
1.40377
1.66925
1.40001
1.07389
1.40001
1.40001
1.40001
1.40001
1.40001
1.40001
1.40001
1.83727
1.40001
1.83865
1.40001
1.40001
1.40001
1.00858
1.40001
1.84263
1.04092
1.40001
1.74385
1.40001
1.40001
1.83977
1.40001
1.40001
1.40001
1.81854
1.40001
1.40001
1.82103
1.83837
1.40001
1.49017
1.40001
1.40001
1.03434
1.40001
1.40001
1.40001
1.03436
1.40001
1.40001
1.40001
1.40001
1.06985
1.40001
1.40001
1.40001
1.40001
1.40001
1.03002
1.40007
1.83943
1.40001
1.39999
1.84303
1.84708
1.40001
1.40001
1.04074
1.21099
1.83855
1.40001
1.40001
1.40001
1.8414
1.03707
1.40001
1.83899
1.40001
1.40001
1.11879
1.10621
1.40001
1.03382
1.01608
1.40001
1.40001
1.40001
1.40001
1.40001
1.40001
1.40001
1.84136
1.5038
1.81441
1.03371
1.30698
1.83753
1.40001
1.84684
1.83573
1.0323
1.18212
1.40001
1.0022
1.40001
1.84865
1.40001
1.40001
1.40001
1.40001
1.84189
1.40001
1.40001
1.40001
1.40001
1.40001
1.40001
1.40001
1.56872
1.83509
1.40001
1.84165
1.40001
1.40001
1.03444
1.40001
1.40001
1.40001
1.40001
1.84186
1.73706
1.40001
1.40001
1.03443
1.84187
1.84165
1.40001
1.84154
1.84192
1.8417
1.40001
1.22521
1.40001
1.84201
1.383
1.84171
1.40001
1.00196
1.39897
1.84337
1.40001
1.40001
1.40001
1.40001
1.01869
1.84168
1.80132
1.40001
1.83997
1.84151
1.84045
1.40001
1.61573
1.84054
1.40001
1.40001
1.70784
1.46539
1.84164
1.33687
1.84168
1.40001
1.84166
1.84146
1.84172
1.84146
1.40001
1.82529
1.30342
1.27443
1.40001
1.4
1.40001
1.40001
1.84591
1.40001
1.40001
1.40001
1.40001
1.40001
1.84193
1.40001
1.40001
1.39603
1.84153
1.8052
1.40001
1.76708
1.40005
1.40001
1.40001
1.84053
1.40001
1.39642
1.4047
1.40001
1.84187
1.40001
1.84213
1.40001
1.40001
1.72661
1.40001
1.8414
1.40003
1.40001
1.84017
1.40001
1.84171
1.40001
1.40001
1.40001
1.84176
1.40001
1.84372
1.40001
1.84186
1.83976
1.84184
1.8347
1.40001
1.83688
1.84483
1.40001
1.02256
1.81438
1.71659
1.40001
1.84183
1.40001
1.03287
1.04271
1.40001
1.40001
1.40001
1.40001
1.40001
1.03216
1.40001
1.84173
1.50606
1.84083
1.40001
1.40001
1.40001
1.40001
1.40001
1.84135
1.40001
1.84843
1.66279
1.17726
1.40001
1.40002
1.52681
1.51254
1.40001
1.40001
1.55777
1.40001
1.02664
1.8417
1.84186
1.40001
1.40001
1.40001
1.83973
1.40001
1.40003
1.84751
1.8418
1.35232
1.40001
1.40001
1.02694
1.80241
1.40001
1.40001
1.40001
1.40001
1.40001
1.84171
1.83744
1.40001
1.84044
1.84283
1.84186
1.40001
1.40001
1.40001
1.40001
1.045
1.83437
1.40001
1.40001
1.80279
1.8408
1.40001
1.81583
1.84311
1.40001
1.40001
1.40001
1.40001
1.40001
1.8419
1.40001
1.40001
1.40001
1.40001
1.84405
1.40001
1.83562
1.00791
1.40001
1.06286
1.40001
1.40001
1.40001
1.39651
1.02523
1.3991
1.40001
1.40001
1.40001
1.46187
1.40001
1.40001
1.27579
1.40001
1.40001
1.40001
1.40001
1.40001
1.40001
1.40001
1.4
1.30971
1.4
1.40001
1.39751
1.40001
1.01981
1.40001
1.40001
1.40001
1.40001
1.72973
1.40001
1.40001
1.40001
1.40001
1.0235
1.40001
1.40001
1.81601
1.83541
1.4
1.40001
1.40001
1.28474
1.40001
1.40001
1.40001
1.40001
1.40001
1.40001
1.34986
1.39551
1.84137
1.40001
1.40001
1.40001
1.84344
1.30005
1.40001
1.40001
1.40001
1.82994
1.843
1.40001
1.40001
1.40001
1.40001
1.40001
1.40001
1.40001
1.40001
1.40001
1.01113
1.40001
1.40001
1.83952
1.00178
1.40001
1.8396
1.40001
1.02744
1.40001
1.40001
1.0142
1.40001
1.40001
1.40001
1.40001
1.40001
1.40001
1.40001
1.83328
1.84113
1.40001
1.40001
1.40001
1.40001
1.8034
1.40001
1.53893
1.02924
1.40001
1.40001
1.40001
1.40001
1.40001
1.40001
1.40001
1.43272
1.40001
1.40001
1.62625
1.40001
1.40001
1.40001
1.76156
1.40001
1.40001
1.40001
1.40001
1.01135
1.40001
1.40001
1.00351
1.00661
1.40001
1.40001
1.8418
1.40001
1.40625
1.40001
1.40001
1.40001
1.71055
1.05006
1.40001
1.04008
1.40001
1.18217
1.40001
1.40001
1.40001
1.84119
1.40001
1.40001
1.8417
1.40001
1.40001
1.40001
1.84149
1.40001
1.40001
1.84204
1.40001
1.40001
1.03055
1.40001
1.5454
1.40001
1.40001
1.83768
1.83783
1.69353
1.79668
1.40001
1.00456
1.40001
1.40001
1.82194
1.40001
1.04229
1.40001
1.40001
1.40001
1.84323
1.40001
1.40001
1.40001
1.40001
1.66573
1.40001
1.83148
1.8414
1.03638
1.40001
1.40001
1.04937
1.04833
1.40001
1.40001
1.40001
1.71391
1.73398
1.40001
1.40001
1.40001
1.40001
1.40001
1.40001
1.40001
1.58565
1.82932
1.40565
1.40001
1.83673
1.04164
1.40001
1.40001
1.40001
1.64401
1.40001
1.48728
1.40001
1.80342
1.83981
1.40001
1.00117
1.40001
1.83547
1.40001
1.40001
1.84202
1.81446
1.40001
1.84125
1.40001
1.04571
1.40001
1.40001
1.40001
1.84862
1.83321
1.78781
1.40001
1.84145
1.84112
1.40001
1.84392
1.40001
1.83991
1.40001
1.01908
1.37347
1.0058
1.40001
1.40001
1.40001
1.40001
1.40001
1.84175
1.40001
1.84171
1.40001
1.40001
1.40001
1.81959
1.40001
1.03471
1.84192
1.40001
1.00194
1.0726
1.04966
1.40001
1.61073
1.43637
1.84322
1.84123
1.40001
1.4
1.40001
1.40001
1.84191
1.40001
1.40001
1.84191
1.84115
1.40001
1.55469
1.40008
1.40001
1.39682
1.84937
1.23922
1.40001
1.212
1.02474
1.02679
1.35257
1.83396
1.83586
1.48941
1.84184
1.84152
1.40001
1.40001
1.84688
1.83856
1.84213
1.83772
1.40001
1.84185
1.02966
1.84671
1.84212
1.84251
1.84319
1.27079
1.29641
1.30695
1.84271
1.34534
1.84149
1.40001
1.40001
1.84352
1.84078
1.40001
1.00067
1.83901
1.84158
1.40001
1.84194
1.84197
1.40001
1.84185
1.00751
1.84354
1.83429
1.8372
1.84173
1.40001
1.40001
1.40001
1.84172
1.68666
1.0716
1.84158
1.0043
1.84197
1.40001
1.40001
1.40001
1.40001
1.8423
1.84187
1.40001
1.40001
1.84206
1.00666
1.84139
1.02222
1.40001
1.83904
1.40001
1.04032
1.84318
1.14327
1.40001
1.84144
1.84402
1.84132
1.40001
1.40001
1.5915
1.84335
1.02701
1.84156
1.40001
1.84209
1.2765
1.84251
1.0226
1.40001
1.84255
1.07582
1.84355
1.02815
1.40001
1.84299
1.40001
1.83813
1.40001
1.6557
1.82507
1.74864
1.05061
1.40001
1.84213
1.40001
1.84156
1.40001
1.84205
1.40001
1.40001
1.84206
1.37559
1.84434
1.0476
1.79286
1.40001
1.71429
1.40001
1.84177
1.84156
1.84122
1.40001
1.79785
1.8411
1.80957
1.67255
1.84539
1.40001
1.69182
1.40001
1.84151
1.40001
1.46265
1.40001
1.81031
1.40001
1.84206
1.82059
1.82032
1.40001
1.83319
1.046
1.40001
1.01307
1.40001
1.40001
1.40001
1.84228
1.40001
1.84205
1.40001
1.40001
1.40001
1.84331
1.83176
1.76249
1.84434
1.84604
1.06424
1.84846
1.83302
1.40001
1.78578
1.8414
1.82097
1.40001
1.8359
1.83651
1.40001
1.84815
1.84218
1.84246
1.84368
1.40001
1.40001
1.40001
1.8414
1.05704
1.40001
1.84161
1.40001
1.40001
1.03731
1.40001
1.40001
1.84183
1.84209
1.40001
1.84199
1.84908
1.84474
1.37559
1.84197
1.40001
1.84199
1.84099
1.75483
1.40001
1.40001
1.40001
1.83791
1.84244
1.84128
1.33282
1.40001
1.8438
1.84231
1.84092
1.40001
1.84237
1.84156
1.84164
1.84715
1.40001
1.84238
1.84704
1.77795
1.84232
1.84675
1.40001
1.84744
1.83702
1.84119
1.84001
1.84177
1.03709
1.84114
1.84303
1.40001
1.84162
1.84151
1.84191
1.84242
1.40001
1.84135
1.84165
1.40001
1.84156
1.77188
1.40001
1.40001
1.40001
1.8418
1.84829
1.40001
1.40001
1.64187
1.40001
1.84151
1.40001
1.40001
1.8417
1.84345
1.84259
1.84129
1.40001
1.40001
1.40001
1.70351
1.40001
1.84219
1.40001
1.40001
1.85286
1.83325
1.40001
1.84135
1.00994
1.84181
1.84307
1.11256
1.40001
1.05124
1.77687
1.84028
1.84316
1.84266
1.03712
1.84138
1.84223
1.04304
1.01187
1.40001
1.84294
1.84159
1.40001
1.40001
1.84171
1.40001
1.84028
1.40001
1.78517
1.40001
1.60484
1.84294
1.84407
1.70331
1.79611
1.84026
1.84221
1.82106
1.40001
1.03691
1.84624
1.84193
1.84578
1.40002
1.40001
1.40001
1.84256
1.40001
1.84212
1.84106
1.1565
1.40001
1.84192
1.39994
1.40001
1.40004
1.40005
1.84163
1.84176
1.39847
1.40001
1.40001
1.84142
1.84339
1.84159
1.8439
1.8455
1.0772
1.77228
1.40001
1.83883
1.84217
1.8418
1.8294
1.40001
1.84197
1.82981
1.84368
1.40001
1.84222
1.84417
1.2751
1.84189
1.8419
1.40001
1.84195
1.25454
1.84126
1.26677
1.84213
1.40001
1.84137
1.8476
1.84145
1.84251
1.8414
1.84506
1.8431
1.84179
1.40001
1.33196
1.84175
1.84124
1.23877
1.84172
1.3717
1.6754
1.842
1.84601
1.84603
1.40001
1.84366
1.68761
1.84381
1.3214
1.84472
1.84861
1.40001
1.25407
1.40001
1.83474
1.40001
1.70346
1.40001
1.83432
1.24593
1.40001
1.83874
1.8481
1.40001
1.84182
1.84346
1.84826
1.83498
1.84587
1.40001
1.83969
1.40001
1.40001
1.40001
1.26951
1.84125
1.84098
1.83844
1.84144
1.84596
1.84129
1.84541
1.84181
1.28525
1.4296
1.40001
1.40001
1.84561
1.84182
1.84159
1.84224
1.40003
1.63473
1.40001
1.84739
1.7919
1.40001
1.40001
1.10336
1.84099
1.40001
1.40001
1.0038
1.84219
1.40001
1.82797
1.84192
1.84079
1.82473
1.84175
1.40001
1.05491
1.50328
1.84207
1.8414
1.40001
1.8421
1.84174
1.61045
1.41102
1.50246
1.40001
1.83607
1.84184
1.40001
1.40001
1.0444
1.40001
1.40001
1.84141
1.84155
1.84256
1.84138
1.84222
1.84357
1.84219
1.84112
1.84146
1.40001
1.3964
1.84069
1.84153
1.39732
1.84135
1.84151
1.05394
1.03586
1.8408
1.83648
1.40001
1.40001
1.40186
1.84205
1.84178
1.84222
1.40001
1.84146
1.40001
1.24392
1.8469
1.83899
1.40001
1.59901
1.84183
1.40001
1.84105
1.40001
1.8425
1.70946
1.84302
1.40001
1.84287
1.8363
1.04604
1.84177
1.40001
1.84285
1.83065
1.40001
1.05567
1.84214
1.77277
1.39759
1.82543
1.84141
1.40001
1.40529
1.84159
1.39781
1.84177
1.40001
1.40001
1.83836
1.40001
1.83817
1.84158
1.39633
1.7537
1.40001
1.84186
1.40001
1.40001
1.40001
1.40001
1.84228
1.40001
1.40001
1.84412
1.40001
1.84131
1.40001
1.68472
1.84668
1.84115
1.40001
1.40001
1.40655
1.40001
1.84196
1.84184
1.84349
1.84184
1.84228
1.84219
1.84189
1.40001
1.84245
1.84141
1.40001
1.84239
1.8423
1.40001
1.84123
1.31879
1.45727
1.84215
1.84176
1.8427
1.40001
1.84183
1.40001
1.84192
1.84198
1.40001
1.84172
1.40001
1.40001
1.40001
1.40001
1.8417
1.04984
1.39787
1.40001
1.84227
1.84626
1.40001
1.84135
1.40001
1.40519
1.05295
1.84137
1.39962
1.40001
1.84075
1.39837
1.84113
1.40001
1.39977
1.40001
1.84037
1.84756
1.84286
1.84301
1.02961
1.8428
1.84362
1.84216
1.50819
1.40001
1.40001
1.58549
1.84231
1.04365
1.02879
1.40001
1.84329
1.84115
1.84433
1.40001
1.40001
1.8424
1.8428
1.39989
1.40001
1.72109
1.01029
1.40001
1.47871
1.84284
1.84237
1.39826
1.84202
1.84447
1.40001
1.39912
1.40001
1.84023
1.84726
1.58023
1.40001
1.81269
1.40001
1.40243
1.84053
1.03677
1.84066
1.84153
1.39693
1.39991
1.78886
1.40001
1.39969
1.40001
1.84285
1.40001
1.40002
1.03606
1.84205
1.40001
1.40001
1.40001
1.40001
1.84863
1.64548
1.40001
1.40001
1.03073
1.84191
1.64859
1.40001
1.40001
1.40001
1.82126
1.83695
1.8418
1.40001
1.40001
1.84401
1.40001
1.84161
1.8422
1.40001
1.40001
1.8435
1.8409
1.81841
1.40001
1.40001
1.84361
1.84405
1.40001
1.40001
1.40001
1.84415
1.40001
1.40001
1.40001
1.84159
1.8423
1.84286
1.40001
1.84937
1.40004
1.06888
1.84094
1.84144
1.40001
1.84227
1.83072
1.84198
1.40001
1.40001
1.84542
1.40001
1.62958
1.84179
1.40001
1.0537
1.40001
1.8436
1.40001
1.40001
1.84653
1.40001
1.40001
1.40001
1.5382
1.84148
1.04933
1.40002
1.84287
1.40001
1.40001
1.84196
1.40001
1.84419
1.40001
1.40001
1.841
1.84188
1.40001
1.40006
1.40001
1.40001
1.40001
1.40001
1.40001
1.40001
1.83947
1.84232
1.40001
1.83007
1.03744
1.83862
1.40001
1.84167
1.84564
1.84159
1.84535
1.83911
1.40001
1.40001
1.84642
1.40001
1.66941
1.84423
1.84131
1.40001
1.84646
1.84638
1.40001
1.79832
1.40001
1.84167
1.68917
1.84639
1.39757
1.83917
1.79943
1.84365
1.8423
1.43611
1.84178
1.84519
1.40001
1.84127
1.40001
1.84207
1.40001
1.40001
1.40001
1.40001
1.39729
1.84229
1.84232
1.75489
1.40001
1.84476
1.40001
1.40001
1.40001
1.0383
1.40001
1.83124
1.40001
1.80209
1.82352
1.40001
1.40001
1.40001
1.8233
1.8515
1.40001
1.40001
1.84316
1.02671
1.46759
1.40001
1.84294
1.84135
1.80251
1.83362
1.84146
1.40001
1.84272
1.40001
1.40001
1.40001
1.40001
1.84062
1.84175
1.40001
1.83006
1.45419
1.84105
1.81222
1.40001
1.40001
1.81312
1.40001
1.40001
1.02953
1.71295
1.40001
1.40001
1.84411
1.40001
1.84608
1.79836
1.40001
1.79601
1.02876
1.84123
1.84258
1.84218
1.40001
1.01927
1.40001
1.40001
1.40001
1.84186
1.7562
1.40001
1.8487
1.84183
1.40001
1.84202
1.40001
1.40001
1.40001
1.40001
1.84167
1.39936
1.40001
1.84362
1.40001
1.40001
1.83753
1.84197
1.40001
1.84645
1.4894
1.40003
1.40001
1.84048
1.40001
1.84038
1.40001
1.4127
1.84198
1.40001
1.84076
1.40001
1.40001
1.53491
1.84079
1.40001
1.40001
1.40001
1.40001
1.40001
1.3958
1.04614
1.05436
1.42036
1.40001
1.43444
1.40001
1.42524
1.40001
1.84199
1.40001
1.66762
1.40001
1.84111
1.40001
1.40001
1.40001
1.84124
1.40001
1.7413
1.84253
1.40001
1.6375
1.84323
1.40001
1.40001
1.84182
1.84272
1.40001
1.40001
1.44659
1.04408
1.40001
1.84241
1.40001
1.40001
1.40001
1.40001
1.47481
1.84221
1.40001
1.40001
1.40001
1.03123
1.40001
1.84098
1.84148
1.83963
1.40001
1.40001
1.40001
1.40001
1.62671
1.83924
1.40001
1.40001
1.40001
1.84544
1.84171
1.44487
1.40001
1.40001
1.40001
1.84097
1.8417
1.40001
1.05422
1.84195
1.84178
1.84091
1.84076
1.84176
1.40001
1.40001
1.84025
1.84394
1.84228
1.032
1.43961
1.84198
1.40001
1.40001
1.40001
1.40001
1.40001
1.84185
1.03091
1.40001
1.40001
1.8424
1.60134
1.40001
1.84307
1.40001
1.40001
1.40001
1.00036
1.40001
1.40001
1.5173
1.84159
1.84199
1.40001
1.84099
1.84141
1.40001
1.46609
1.40001
1.84119
1.40001
1.84382
1.0275
1.40001
1.40001
1.40001
1.40001
1.84228
1.40008
1.40001
1.40001
1.40001
1.83379
1.40001
1.40001
1.40001
1.40001
1.84221
1.00343
1.74522
1.84381
1.40001
1.8414
1.40001
1.40001
1.40001
1.39714
1.40001
1.84551
1.40001
1.2197
1.40001
1.40001
1.40004
1.84181
1.01201
1.40001
1.84401
1.40001
1.84302
1.84156
1.03468
1.40001
1.40001
1.83322
1.40001
1.40001
1.05246
1.40001
1.83911
1.40001
1.82292
1.39934
1.84062
1.40001
1.40001
1.40001
1.40001
1.84022
1.40001
1.40001
1.84207
1.40001
1.40001
1.40001
1.40001
1.40001
1.40001
1.40001
1.40001
1.6882
1.40001
1.54498
1.84084
1.40001
1.40001
1.40001
1.03294
1.40001
1.40001
1.40001
1.40001
1.84278
1.84258
1.45431
1.40001
1.40001
1.84273
1.40001
1.40001
1.84005
1.40001
1.40002
1.40001
1.40001
1.40001
1.40001
1.84244
1.18607
1.84174
1.84354
1.39709
1.40001
1.40001
1.40001
1.66077
1.40001
1.40001
1.84096
1.84147
1.40001
1.40001
1.40001
1.40001
1.03659
1.40001
1.40001
1.40001
1.68438
1.40001
1.84184
1.84422
1.40001
1.84317
1.40001
1.40001
1.40001
1.63617
1.40001
1.83771
1.40001
1.84175
1.40001
1.40001
1.3961
1.8416
1.40001
1.40001
1.40001
1.40001
1.40001
1.83995
1.40003
1.40001
1.02985
1.84496
1.03078
1.40001
1.84527
1.40001
1.39588
1.40001
1.84237
1.84706
1.40001
1.83197
1.28496
1.84193
1.83588
1.40004
1.40001
1.40001
1.03609
1.40001
1.40001
1.40001
1.84147
1.65475
1.847
1.40001
1.40001
1.40001
1.40001
1.39681
1.84052
1.40001
1.03301
1.40001
1.40001
1.40001
1.40001
1.40001
1.40001
1.40001
1.84836
1.84379
1.84868
1.40001
1.40001
1.39689
1.40001
1.37674
1.40001
1.40001
1.40001
1.05559
1.38682
1.40001
1.01848
1.03002
1.40001
1.84196
1.84192
1.40001
1.84215
1.84271
1.03674
1.69938
1.40001
1.40001
1.40001
1.03587
1.84178
1.40001
1.03867
1.40001
1.84249
1.47313
1.40001
1.40001
1.40001
1.40001
1.8418
1.8403
1.40001
1.40001
1.84181
1.40001
1.40001
1.8419
1.84178
1.40001
1.80199
1.84205
1.83654
1.34691
1.84362
1.40886
1.03026
1.74018
1.84115
1.40001
1.40001
1.40001
1.04994
1.40001
1.05073
1.84865
1.34276
1.84215
1.36598
1.40001
1.84067
1.60528
1.40001
1.40001
1.84184
1.40001
1.58091
1.84349
1.40001
1.40001
1.84596
1.84863
1.03882
1.65302
1.3999
1.40001
1.67061
1.40001
1.85007
1.34494
1.85023
1.84143
1.40001
1.40001
1.40001
1.40001
1.82723
1.40001
1.40001
1.8434
1.39965
1.84205
1.76406
1.84259
1.03906
1.40001
1.40001
1.40001
1.40001
1.84205
1.40005
1.84124
1.40001
1.8408
1.84121
1.45635
1.84968
1.53486
1.83988
1.40001
1.70288
1.05381
1.84026
1.84151
1.75756
1.47159
1.83961
1.84189
1.84224
1.8431
1.40001
1.31278
1.47027
1.40001
1.84173
1.60724
1.84182
1.40004
1.40001
1.40001
1.07782
1.84827
1.83817
1.76099
1.40001
1.571
1.40001
1.84049
1.83822
1.40001
1.84094
1.8384
1.40001
1.40001
1.40001
1.84095
1.40001
1.57768
1.8455
1.70678
1.40001
1.84315
1.40001
1.40001
1.40001
1.40001
1.40001
1.40001
1.40001
1.40001
1.40001
1.40001
1.05494
1.40001
1.8177
1.03546
1.65846
1.39859
1.84089
1.40001
1.63556
1.40002
1.6857
1.77385
1.40001
1.40245
1.84633
1.30503
1.40001
1.84122
1.83395
1.34034
1.40001
1.84001
1.842
1.84419
1.40001
1.84199
1.84384
1.8419
1.40001
1.60696
1.40001
1.40006
1.84202
1.40001
1.84157
1.46589
1.83948
1.40001
1.40001
1.84204
1.84309
1.08985
1.40001
1.84063
1.73254
1.84135
1.40001
1.40001
1.83653
1.84536
1.39824
1.40001
1.80538
1.39674
1.84142
1.40005
1.40001
1.40001
1.40001
1.40001
1.60098
1.40001
1.73272
1.84309
1.72932
1.84303
1.40001
1.40442
1.40001
1.40001
1.84013
1.40001
1.84267
1.40001
1.40001
1.40001
1.40001
1.4
1.40001
1.45849
1.62979
1.40001
1.40001
1.02942
1.40001
1.84308
1.05343
1.84658
1.40001
1.61842
1.39976
1.84269
1.68465
1.05298
1.63755
1.40004
1.84191
1.84079
1.40001
1.66783
1.84349
1.8415
1.3984
1.84893
1.8295
1.05555
1.40001
1.40001
1.39792
1.40001
1.83576
1.40001
1.04844
1.84531
1.40001
1.40001
1.78961
1.40001
1.84283
1.40001
1.8416
1.40001
1.07636
1.40001
1.40001
1.84218
1.84267
1.83946
1.40001
1.83926
1.84155
1.84382
1.40001
1.40001
1.84213
1.4
1.11872
1.40001
1.40001
1.40001
1.84003
1.40001
1.84111
1.68814
1.84052
1.40001
1.84179
1.39938
1.40001
1.40001
1.40001
1.40001
1.40001
1.40001
1.11533
1.40001
1.40001
1.84181
1.40001
1.842
1.84783
1.40001
1.05535
1.03931
1.40001
1.84293
1.47482
1.03018
1.01494
1.40001
1.843
1.40001
1.8437
1.03497
1.40103
1.40001
1.40001
1.39951
1.40001
1.40001
1.40001
1.39992
1.58091
1.84148
1.40001
1.40001
1.84327
1.65647
1.40001
1.8171
1.83989
1.84523
1.58312
1.84289
1.40001
1.84132
1.40001
1.82427
1.40001
1.84689
1.84003
1.39668
1.84087
1.84901
1.40001
1.40001
1.40001
1.40001
1.40001
1.3157
1.83699
1.40005
1.40003
1.03372
1.39999
1.05385
1.01738
1.40001
1.84079
1.84177
1.84187
1.40001
1.84225
1.40001
1.03882
1.40001
1.40001
1.84282
1.22883
1.84355
1.40001
1.84357
1.40001
1.36721
1.84028
1.40001
1.40001
1.40001
1.84123
1.40001
1.84089
1.03853
1.40001
1.40001
1.65423
1.40001
1.40001
1.63704
1.40001
1.40001
1.84155
1.40001
1.40001
1.40001
1.40001
1.40001
1.83601
1.84318
1.40001
1.84013
1.84103
1.03655
1.60554
1.83915
1.40001
1.40001
1.79806
1.39906
1.40001
1.40001
1.84192
1.84397
1.70358
1.40001
1.84201
1.05529
1.82483
1.39957
1.40001
1.84443
1.40004
1.8405
1.75674
1.73878
1.40001
1.40001
1.8416
1.07568
1.0336
1.40001
1.84139
1.40001
1.84127
1.40001
1.66263
1.40001
1.40001
1.84146
1.68594
1.04158
1.40001
1.39842
1.40001
1.40001
1.42562
1.57699
1.84125
1.40001
1.83793
1.40001
1.40001
1.40001
1.40001
1.40001
1.40001
1.4661
1.03109
1.40001
1.40001
1.43539
1.40001
1.40001
1.40001
1.40001
1.40001
1.84288
1.40001
1.40001
1.84213
1.84057
1.7301
1.40001
1.40001
1.40001
1.216
1.84446
1.71012
1.40001
1.40001
1.40001
1.40001
1.84058
1.40001
1.40001
1.40001
1.84406
1.40001
1.40001
1.71948
1.85368
1.42721
1.11548
1.84109
1.71372
1.84024
1.40001
1.62265
1.40001
1.40001
1.40001
1.033
1.40244
1.02278
1.40001
1.03495
1.02386
1.40001
1.04151
1.40001
1.40001
1.40001
1.59846
1.40001
1.8438
1.84209
1.40124
1.61488
1.76984
1.03651
1.15716
1.28745
1.40001
1.84151
1.84036
1.84167
1.84151
1.77847
1.28359
1.40001
1.78024
1.40001
1.82135
1.40001
1.40001
1.39649
1.40936
1.40001
1.40001
1.40001
1.83906
1.40001
1.03469
1.40001
1.84329
1.0314
1.40001
1.40001
1.84158
1.40001
1.84194
1.39981
1.40001
1.40001
1.84257
1.80112
1.40001
1.85702
1.40001
1.40001
1.41448
1.40001
1.59033
1.40001
1.40001
1.03651
1.40001
1.40001
1.83957
1.4
1.84298
1.40001
1.40004
1.03862
1.40001
1.40001
1.01655
1.40081
1.40001
1.84025
1.04374
1.84798
1.01897
1.84136
1.40001
1.40001
1.40001
1.40001
1.40001
1.40001
1.40001
1.40001
1.40001
1.40001
1.40001
1.82349
1.40001
1.84348
1.84021
1.03215
1.40001
1.40001
1.40001
1.40001
1.40001
1.40001
1.82989
1.40001
1.40001
1.03877
1.40001
1.40001
1.83951
1.40001
1.40001
1.56526
1.77078
1.00276
1.02926
1.08523
1.11857
1.40001
1.39645
1.01613
1.40031
1.80011
1.39694
1.40001
1.40001
1.83976
1.40001
1.40001
1.40001
1.1764
1.40002
1.56399
1.40001
1.40001
1.58367
1.84207
1.40001
1.03885
1.40001
1.40001
1.40001
1.39676
1.40001
1.84031
1.84234
1.40001
1.0514
1.40001
1.63635
1.04464
1.40001
1.28418
1.40001
1.39619
1.01975
1.40001
1.40001
1.40001
1.39604
1.03611
1.40001
1.03522
1.39838
1.63246
1.79394
1.01408
0.994731
1.40001
1.39077
1.40001
1.39864
1.40001
1.84084
1.84222
1.40001
1.40881
1.8416
1.84145
1.40001
1.40001
1.84257
1.40001
1.40001
1.40005
1.40001
1.8462
1.40001
1.40001
1.41878
1.40001
1.3986
1.06999
1.40001
1.40001
1.40001
1.40001
1.40001
1.8455
1.43429
1.40006
1.40001
1.40001
1.40001
1.40001
1.40001
1.40003
1.40001
1.02896
1.49261
1.39861
1.82245
1.84084
1.40001
1.41514
1.842
1.78934
1.40001
1.40001
1.00974
1.84471
1.40001
1.84077
1.40001
1.84113
1.69517
1.03378
1.40001
1.0393
1.80343
1.39968
1.40001
1.03031
1.01089
1.40001
1.40001
1.77148
1.40001
1.4
1.02766
1.40001
1.40001
1.40001
1.53731
1.40001
1.03439
1.84051
1.40001
1.40001
1.40001
1.40001
1.84239
1.40001
1.40001
1.84716
1.79543
1.40001
1.40001
1.40001
1.84714
1.02101
1.40001
1.83961
1.84114
1.40001
1.75415
1.4
1.40004
1.40001
1.40001
1.82768
1.40832
1.40001
1.03604
1.65071
1.40001
1.40001
1.39699
1.40001
1.40001
1.83974
1.40001
1.40001
1.40003
1.40001
1.83954
1.40001
1.40001
1.40001
1.40001
1.40001
1.40001
1.40002
1.59651
1.40001
1.84175
1.40001
1.40001
1.84332
1.40001
1.40001
1.40001
1.84171
1.84709
1.44545
1.40001
1.39764
1.40001
1.40001
1.40001
1.40001
1.83917
1.40001
1.40001
1.84133
1.04096
1.40001
1.40001
1.40001
1.40001
1.40001
1.40001
1.75897
1.40001
1.40001
1.83987
1.842
1.40001
1.40001
1.40001
1.83932
1.84327
1.40001
1.39962
1.83624
1.40001
1.40001
1.40001
1.40002
1.01744
1.43266
1.39625
1.39596
1.40001
1.40001
1.03517
1.84141
1.40001
1.00531
1.40001
1.83949
1.8245
0.997294
1.39942
1.84142
1.83934
1.84145
1.40001
1.40001
1.33036
1.80609
1.7556
1.0101
1.40001
1.40001
1.40001
1.84326
1.84185
1.03894
1.39739
1.40001
1.84165
1.02437
1.40001
1.83661
1.03847
1.38024
1.40656
1.40001
1.84692
1.40001
1.40001
1.40001
1.40001
1.40001
1.40001
1.40011
1.81132
1.40001
1.40001
1.84624
1.40001
1.40001
1.40001
1.84259
1.40001
1.02811
1.40001
1.40001
1.40001
1.54245
1.40001
1.40001
1.40001
1.40001
1.40001
1.17631
1.40001
1.01833
1.40001
1.84307
1.40009
1.25513
1.26511
1.40002
1.40331
1.63063
1.40001
1.40001
1.05438
1.84301
1.84301
1.84252
1.40001
1.01564
1.0214
1.40001
1.84082
1.40001
1.40001
1.40001
1.40001
1.40001
1.40004
1.40001
1.02204
1.68648
1.40001
1.40001
1.01113
1.3917
1.40001
1.40001
1.40001
1.40001
1.01726
1.40001
1.08676
1.40001
1.40001
1.8454
1.40001
1.40001
1.03318
1.40001
1.84135
1.40001
1.03549
1.40001
1.03261
1.40001
1.40762
1.84253
1.85908
1.40001
1.40001
1.83982
1.40001
1.40001
1.49777
1.39681
1.40001
1.39814
1.40001
1.84302
1.40001
1.03371
1.40002
1.8385
1.39897
1.40001
1.40001
1.20798
1.40001
1.39899
1.01862
1.84311
1.55722
1.40001
1.40001
1.3061
1.40001
1.40001
1.40001
1.20286
1.40001
1.40001
1.40001
1.84125
1.40001
1.03475
1.4
1.40001
1.40001
1.40001
1.03629
1.84162
1.81254
1.02441
1.40001
1.84774
1.40001
1.40001
1.84108
1.84055
1.77191
1.0363
1.39773
1.3993
1.40001
1.84142
1.40001
1.40001
1.40001
1.40001
1.84255
1.40005
1.40001
1.40001
1.84755
1.40001
1.40001
1.84175
1.05897
1.40001
1.40001
1.40001
1.04075
1.40001
1.4
1.4
1.39862
1.40001
1.40001
1.40001
1.40001
1.74027
1.40001
1.83948
1.8426
1.8469
1.8417
1.84177
1.84148
1.40001
1.84057
1.40001
1.84197
1.84174
1.40001
1.39883
1.06125
1.77822
1.3999
1.40001
1.40001
1.40001
1.40001
1.39098
1.40001
1.47008
1.40001
1.40001
1.40001
1.24099
1.8418
1.84226
1.84016
1.78529
1.39988
1.40001
1.4219
1.8421
1.39796
1.46029
1.3972
1.02921
1.40001
1.40003
1.40001
1.40001
1.40001
1.40001
1.40001
1.84119
1.02888
1.84122
1.84238
1.39487
1.04805
1.40001
1.40001
1.40001
1.84249
1.04118
1.79011
1.02158
1.8417
1.83993
1.03511
1.84332
1.42534
1.40001
1.84488
1.19902
1.40001
1.39872
1.03565
1.40001
1.02872
1.40001
1.84153
1.84164
1.11986
1.40001
1.83969
1.02837
1.40001
1.03049
1.40001
1.84176
1.40001
1.40001
1.82864
1.40001
1.24245
1.40001
1.39972
1.02866
1.84188
1.39948
1.40001
1.04416
1.40001
1.40001
1.40001
1.40001
1.64158
1.40001
1.84302
1.40001
1.40001
1.85232
1.40001
1.40001
1.83942
1.40001
1.0313
1.40001
0.996195
1.40002
1.40001
1.40001
1.40001
1.40001
1.82352
1.66938
1.84161
1.40001
1.84162
1.81191
1.01648
1.03475
1.40001
1.40001
1.84344
1.40001
1.03275
1.40001
1.3927
1.40001
1.40001
1.84167
1.40001
1.83868
1.03388
1.84142
1.40001
1.03659
1.40001
1.40001
1.83963
1.84052
1.40001
1.40005
1.40001
1.8485
1.40001
1.40001
1.03929
1.3994
1.03313
1.40001
1.40001
1.40001
1.84344
1.8407
1.83858
1.40001
1.40001
1.01544
1.40001
1.844
1.40001
1.40001
1.40001
1.81623
1.84164
1.84175
1.02819
1.843
1.84198
1.0519
1.83821
1.40005
1.03697
1.41609
1.40001
1.40001
1.84144
1.02727
1.68384
1.03407
1.84186
1.39745
1.02563
1.84454
1.40001
1.40001
1.40001
1.40001
1.84144
1.84055
1.02927
1.40001
1.40003
1.0412
1.40004
1.40001
1.03141
1.02908
1.70962
1.84061
1.3985
1.84162
1.40001
1.84042
1.20046
1.03043
1.8419
1.84834
1.40001
1.84094
1.40001
1.40001
1.84127
1.40001
1.74285
1.83704
1.40001
1.40001
1.40001
1.40001
1.84197
1.83682
1.84017
1.40001
1.40001
1.83973
1.84568
1.84007
1.40001
1.84194
1.40001
1.40001
1.40001
1.40001
1.40001
1.0379
1.24627
1.03228
1.40001
1.40001
1.84225
1.40001
1.40001
1.84045
1.0412
1.40001
1.84173
1.8371
1.82218
1.03808
1.40001
1.02011
1.40001
1.40003
1.83994
1.62292
1.84021
1.80429
1.40001
1.00783
1.40001
1.84423
1.71288
1.02566
1.40001
1.40001
1.40001
1.19755
1.40001
1.40001
1.84906
1.40001
1.00624
1.84219
1.40001
1.40001
1.40001
1.40001
1.40001
1.75702
1.49919
1.40001
1.8432
1.40001
1.84272
1.40001
1.39713
1.40001
1.84142
1.83977
1.84193
1.84485
1.39959
1.84008
1.40001
1.84214
1.84171
1.77263
1.40001
1.40001
1.05137
1.83834
1.40001
1.40001
1.83933
1.84025
1.83911
1.40001
1.84042
1.40001
1.40001
1.40004
1.84072
1.84015
1.52955
1.495
1.84166
1.84212
1.09048
1.40001
1.40001
1.40001
1.40001
1.40003
1.55927
1.40001
1.40001
1.76439
1.02396
1.39997
1.40001
1.84137
1.39991
1.39983
1.46343
1.79957
1.83767
1.308
1.40001
1.03492
1.40001
1.39607
1.84156
1.84302
1.84476
1.39904
1.40001
1.40001
1.04287
1.40001
1.40001
1.84156
1.44877
1.40001
1.40001
1.40001
1.40001
1.40001
1.40001
1.40001
1.39994
1.84076
1.40002
1.40001
1.40001
1.40001
1.40001
1.67413
1.40001
1.60818
1.40001
1.40001
1.84174
1.84651
1.03167
1.39878
1.40001
1.4
1.40001
1.02698
1.84027
1.8412
1.40001
1.40001
1.40001
1.40001
1.40001
1.40001
1.40001
1.40001
1.83996
1.84881
1.04824
1.45192
1.02638
1.40001
1.0283
1.40001
1.84149
1.51817
1.40001
1.40001
1.11873
1.40001
1.8193
1.184
1.39683
1.0363
1.40001
1.40001
1.84085
1.40005
1.39728
1.0051
1.83946
1.84978
1.40001
1.40001
1.40001
1.40001
1.81226
1.40001
1.40001
1.84148
1.39898
1.84059
1.40002
1.40001
1.40001
1.03672
1.40001
1.40001
1.84164
1.03701
1.1501
1.02877
1.84177
1.39928
1.40001
1.84142
1.01591
1.01237
1.40397
1.40001
1.40001
1.83911
1.40005
1.60548
1.40001
1.40001
1.83983
1.03885
1.40001
1.40001
1.40014
1.84069
1.4001
1.83695
1.40001
1.40004
1.40001
1.40001
1.11208
1.40001
1.18196
1.40002
1.40001
1.83974
1.03888
1.40001
1.18683
1.19193
1.40001
1.40001
1.84163
1.40001
1.40001
1.40001
1.8381
1.84113
1.40006
1.83826
1.83874
1.17133
1.84181
1.82872
1.40001
1.40001
1.83302
1.4
1.40001
1.40001
1.40001
1.40001
1.83944
1.84185
1.40001
1.40001
1.40001
1.84138
1.4002
1.40001
1.0363
1.08533