/*--------------------------------*- C++ -*----------------------------------*\
  =========                 |
  \\      /  F ield         | OpenFOAM: The Open Source CFD Toolbox
   \\    /   O peration     | Website:  https://openfoam.org
    \\  /    A nd           | Version:  12
     \\/     M anipulation  |
\*---------------------------------------------------------------------------*/
FoamFile
{
    format      ascii;
    class       volScalarField;
    location    "3.51";
    object      T;
}
// * * * * * * * * * * * * * * * * * * * * * * * * * * * * * * * * * * * * * //

dimensions      [0 0 0 1 0 0 0];

internalField   nonuniform List<scalar> 
22702
(
1
1
0.963686
1
1.01769
1
1.12063
1
1
0.893154
1.12031
1.12053
1
1.11874
0.966948
1
1
1
1.12012
1
1.11872
1
1.11754
0.895644
1.11799
0.892176
1
1.11853
0.900771
0.894223
1
1.12018
1
1
1
1.11063
1.11873
1.11769
1
1
0.89306
1
1.06261
1
1.1179
1
1
1
1
0.897885
1
0.895641
1
1.1205
1
1.12015
1
1
1
1
0.889661
1
1
0.898843
1
0.907326
1
1
1
0.890808
1
1.11918
1.0754
1
1.11964
1.12654
0.905458
1.11997
0.897016
1
1.12098
0.895787
1.11905
1.11843
1
1
1
1
0.981971
0.890723
1.12076
1
1
0.889179
1
1.11856
0.888637
1
1
1
1
1.06245
1.12076
0.891326
1
1
1.03116
1
0.89351
1
1.1202
1.12084
1
1
0.893492
0.895561
0.890575
1
1
1
1
1
0.975425
1
1.10314
1.01106
1.12099
1
1.12178
1.12014
1.1186
1.12093
1
0.891391
1
0.889667
1
1
1
1
1.12072
1
1
1
1
1.11942
1
1.00764
1
1
1
1
0.897898
1
1.00295
1
0.899261
1
1
1
1.12024
1
1.11788
0.880211
0.889547
1.12038
1.11897
1
1.02419
1.07123
1
1.12032
0.895818
1.1108
1
1
1
1
1.11867
1.10081
1
1.12073
0.898715
1.1202
1
0.898647
1
0.895745
0.891777
0.999934
1
1
1.1196
1
1
1.11855
1
1.11978
1.12055
0.896157
1
1
0.899717
1.11861
1
1
1
1.11859
1
0.88101
1
1
1.11851
1.11854
1.11998
1
1.00001
1
1
1
1.11847
1
0.897682
1.12544
1.11856
1.11886
1
1
1
0.890097
1.11869
1.05851
1
1.11892
0.893597
0.885312
1.11895
1.11924
1
1.11884
0.881613
1.1062
1
1
1
1
1.11856
1
1.07236
1.01255
1
1
1.11861
0.888038
0.93491
1
1.11889
0.884518
1.11757
1
1
1
1
1
1
1
0.892947
0.931611
0.882279
1.11847
1
1
1
1
1.10932
1
0.89341
1
0.889682
0.900047
1.11856
0.901704
1.11872
1
1
1
0.999358
0.897912
0.879239
1
1
0.88517
1
1.12018
0.89045
1
1
1.12063
0.878624
1
1.11838
0.89042
1.11859
1
0.894562
0.999361
1
1
1
0.897422
1
1
1
1
1.00345
1.07541
1
0.901395
1
1
1
1
1
1
1
1.1206
1
1.12064
1
1
1
0.879457
1
1.11901
0.901507
1
1.09448
1
1
1.1213
1
1
1
1.11616
1
1
1.11492
1.12091
1
1.02762
1
1
0.889327
1
1
1
0.889745
1
1
1
1
0.899962
1
1
1
1
1
0.88645
1.00002
1.11826
1
0.999995
1.11921
1.12048
1
1
0.901756
0.945802
1.12085
1
1
1
1.11851
0.89002
1
1.11805
1
1
0.916406
0.912432
1
0.899165
0.882325
1
1
1
1
1
1
1
1.11976
1.03136
1.11043
0.887714
0.975164
1.1208
1
1.12011
1.12003
0.889273
0.936721
1
0.878305
1
1.12456
1
1
1
1
1.1186
1
1
1
1
1
1
1
1.04909
1.11912
1
1.1185
1
1
0.900016
1
1
1
1
1.11858
1.09274
1
1
0.900585
1.11855
1.11852
1
1.1185
1.11856
1.11853
1
0.950331
1
1.11862
0.997418
1.11851
1
0.879143
0.999705
1.12166
1
1
1
1
0.891271
1.11855
1.10866
1
1.11799
1.11852
1.1208
1
1.06
1.11831
1
1
1.08536
1.01875
1.11846
0.984033
1.11848
1
1.11847
1.11848
1.1185
1.11845
1
1.11397
0.97407
0.965407
1
1
1
1
1.12033
1
1
1
1
1
1.12135
1
1
0.998859
1.11852
1.10802
1
1.0994
1.00001
1
1
1.11826
1
0.998961
1.00134
1
1.11857
1
1.11875
1
1
1.0901
1
1.11866
1.00001
1
1.11845
1
1.11857
1
1
1
1.11855
1
1.11921
1
1.11858
1.12063
1.11858
1.11834
1
1.12069
1.11977
1
0.894893
1.11192
1.08753
1
1.11857
1
0.888315
0.89081
1
1
1
1
1
0.887925
1
1.11851
1.03211
1.11832
1
1
1
1
1
1.11846
1
1.12027
1.07376
0.935202
1
1
1.03671
1.03178
1
1
1.04599
1
0.901405
1.11853
1.11855
1
1
1
1.12071
1
1.00001
1.11958
1.11863
0.988538
1
1
0.896918
1.10895
1
1
1
1
1
1.11855
1.12103
1
1.1185
1.11864
1.11861
1
1
1
1
0.891366
1.1198
1
1
1.10901
1.11836
1
1.11221
1.12091
1
1
1
1
1
1.11857
1
1
1
1
1.11988
1
1.1182
0.879461
1
0.898868
1
1
1
0.999
0.896121
0.999741
1
1
1
1.01822
1
1
0.965902
1
1
1
1
1
1
1
0.999999
0.976102
1
1
0.999285
1
0.892423
1
1
1
1
1.09093
1
1
1
1
0.897171
1
1
1.11232
1.11973
1
1
1
0.968519
1
1
1
1
1
1
0.987867
1.00117
1.11851
1
1
1
1.11947
0.973033
1
1
1
1.11751
1.12032
1
1
1
1
1
1
1
1
1
0.880485
1
1
1.11992
0.879602
1
1.11956
1
0.899171
1
1
0.881637
1
1
1
1
1
1
1
1.11654
1.11843
1
1
1
1
1.10918
1
1.04111
0.896176
1
1
1
1
1
1
1
1.01167
1
1
1.06587
1
1
1
1.09883
1
1
1
1
0.880851
1
1
0.877702
0.879495
1
1
1.11858
1
1.01185
1
1
1
1.08604
0.893436
1
0.890103
1
0.936949
1
1
1
1.11898
1
1
1.11848
1
1
1
1.11843
1
1
1.11865
1
1
0.889508
1
1.04287
1
1
1.12113
1.12037
1.08166
1.10749
1
0.879272
1
1
1.11373
1
0.891036
1
1
1
1.11887
1
1
1
1
1.07452
1
1.11463
1.11898
0.890379
1
1
0.892832
0.892418
1
1
1
1.08687
1.09195
1
1
1
1
1
1
1
1.05357
1.1182
1.00398
1
1.1174
0.891284
1
1
1
1.06889
1
1.02545
1
1.1092
1.1181
1
0.879543
1
1.12015
1
1
1.11867
1.11186
1
1.12198
1
0.900475
1
1
1
1.11934
1.11651
1.10537
1
1.11967
1.11836
1
1.11902
1
1.1181
1
0.883781
0.994717
0.878467
1
1
1
1
1
1.11862
1
1.11861
1
1
1
1.11317
1
0.899241
1.11854
1
0.886834
0.90112
0.893414
1
1.06014
1.0128
1.11897
1.11837
1
1
1
1
1.11852
1
1
1.11852
1.11838
1
1.0452
1.00001
1
0.99909
1.12273
0.954712
1
0.946185
0.899994
0.901193
0.996121
1.11754
1.1171
1.02755
1.11861
1.11842
1
1
1.12219
1.11994
1.11872
1.12075
1
1.11862
0.895458
1.11989
1.11911
1.11998
1.11926
0.96438
0.972117
0.975352
1.11881
0.986549
1.11867
1
1
1.11905
1.11843
1
0.878116
1.11868
1.11846
1
1.11861
1.11859
1
1.11854
0.889222
1.11896
1.11917
1.12115
1.11825
1
1
1
1.11853
1.07993
0.900586
1.11846
0.878046
1.11859
1
1
1
1
1.11918
1.11852
1
1
1.11857
0.878897
1.1186
0.895078
1
1.11789
1
0.894974
1.11887
0.924445
1
1.11842
1.11906
1.11849
1
1
1.05561
1.11892
0.897812
1.11854
1
1.11869
0.966054
1.11871
0.884609
1
1.11886
0.902322
1.11903
0.897704
1
1.11883
1
1.11898
1
1.0719
1.11455
1.09563
0.893793
1
1.11882
1
1.1185
1
1.11867
1
1
1.11878
0.995304
1.11917
0.900291
1.10573
1
1.08696
1
1.11911
1.11855
1.11889
1
1.10777
1.11853
1.11066
1.07624
1.11976
1
1.08119
1
1.11866
1
1.02016
1
1.11088
1
1.11867
1.11341
1.11337
1
1.11718
0.891762
1
0.881485
1
1
1
1.12103
1
1.11866
1
1
1
1.11886
1.1181
1.10033
1.11924
1.11968
0.899362
1.12027
1.11984
1
1.10521
1.11848
1.11487
1
1.12023
1.12022
1
1.12046
1.11889
1.11906
1.11899
1
1
1
1.11844
0.89557
1
1.1185
1
1
0.889052
1
1
1.11855
1.11852
1
1.11866
1.12116
1.11946
0.995218
1.11858
1
1.1186
1.11845
1.0974
1
1
1
1.11752
1.11872
1.11851
0.982816
1
1.11982
1.11866
1.11846
1
1.11865
1.11866
1.11853
1.12044
1
1.11867
1.12007
1.10416
1.11873
1.12015
1
1.12012
1.11746
1.1185
1.11822
1.11857
0.889231
1.11845
1.11903
1
1.11856
1.1186
1.11862
1.11864
1
1.11844
1.11862
1
1.11851
1.10141
1
1
1
1.11841
1.12002
1
1
1.06831
1
1.11851
1
1
1.11847
1.11895
1.11868
1.11837
1
1
1
1.08649
1
1.11859
1
1
1.1236
1.11908
1
1.11843
0.879574
1.11854
1.11911
0.914275
1
0.893929
1.10465
1.11832
1.11901
1.11881
0.889466
1.11864
1.1187
0.891556
0.880706
1
1.11884
1.11858
1
1
1.11858
1
1.11871
1
1.10469
1
1.0586
1.11884
1.11908
1.08701
1.10792
1.12105
1.11886
1.11215
1
0.889238
1.11986
1.11863
1.11982
1
1
1
1.11917
1
1.11867
1.11845
0.928769
1
1.11863
0.999982
1
1.00001
1.00001
1.11858
1.11867
0.999562
1
1
1.11845
1.11894
1.11847
1.11908
1.11961
0.902542
1.10279
1
1.11785
1.11854
1.11857
1.11563
1
1.11866
1.11565
1.11903
1
1.11894
1.11934
0.965611
1.11864
1.11887
1
1.11863
0.959276
1.11856
0.96321
1.11867
1
1.11848
1.12408
1.11852
1.11878
1.11852
1.12055
1.1189
1.11985
1
0.982556
1.11875
1.1185
0.954364
1.11852
0.994337
1.07838
1.11871
1.11985
1.11972
1
1.119
1.07919
1.11915
0.979443
1.11927
1.12191
1
0.959308
1
1.11612
1
1.08414
1
1.11496
0.956731
1
1.11835
1.11903
1
1.11916
1.11901
1.12058
1.11606
1.12015
1
1.12075
1
1
1
0.96382
1.11844
1.1183
1.11847
1.11847
1.11995
1.11851
1.11971
1.11861
0.968608
1.00858
1
1
1.12408
1.1186
1.11851
1.11868
1.00001
1.06539
1
1.12027
1.10599
1
1
0.911329
1.11846
1
1
0.887567
1.11859
1
1.1184
1.11862
1.12142
1.11438
1.11852
1
0.89526
1.03009
1.11877
1.11847
1
1.11873
1.11852
1.05919
1.00305
1.02902
1
1.11865
1.11857
1
1
0.89192
1
1
1.11849
1.11849
1.1187
1.11842
1.11865
1.12095
1.11869
1.11848
1.11848
1
0.998967
1.11843
1.11849
0.999226
1.11842
1.11853
0.895032
0.89002
1.11831
1.11767
1
1
1.00052
1.1187
1.11832
1.11863
1
1.11844
1
0.956039
1.12014
1.11689
1
1.05645
1.1186
1
1.11977
1
1.11868
1.08535
1.11864
1
1.11875
1.11663
0.892478
1.11859
1
1.11886
1.11822
1
0.895607
1.11856
1.10055
0.999306
1.11532
1.11857
1
1.00386
1.11854
0.999323
1.11856
1
1
1.11764
1
1.11769
1.11848
0.998951
1.0966
1
1.11863
1
1
1
1
1.11871
1
1
1.11919
1
1.11842
1
1.0794
1.11972
1.1183
1
1
1.00421
1
1.11888
1.1186
1.11887
1.11863
1.11886
1.11867
1.11861
1
1.11866
1.11856
1
1.11876
1.1186
1
1.11841
0.978732
1.0166
1.11866
1.11863
1.11885
1
1.11866
1
1.11845
1.11866
1
1.11864
1
1
1
1
1.11849
0.893426
0.99939
1
1.11865
1.11908
1
1.11848
1
1.00148
0.900329
1.11851
0.999891
1
1.11832
0.999533
1.11834
1
0.999934
1
1.1182
1.12029
1.11878
1.11993
0.895048
1.11887
1.11899
1.11884
1.03069
1
1
1.05352
1.11866
0.891382
0.893313
1
1.11913
1.1184
1.11932
1
1
1.11851
1.11875
0.999968
1
1.08799
0.879756
1
1.02287
1.12126
1.11958
0.999501
1.11866
1.12013
1
0.999745
1
1.11841
1.12192
1.05115
1
1.11105
1
1.00064
1.11806
0.891327
1.11838
1.11858
0.999122
0.999973
1.10593
1
0.99991
1
1.11904
1
1
0.888675
1.11872
1
1
1
1
1.12077
1.06924
1
1
0.887077
1.11855
1.07007
1
1
1
1.11362
1.11922
1.11945
1
1
1.11917
1
1.11856
1.1187
1
1
1.11906
1.1185
1.1138
1
1
1.1191
1.11911
1
1
1
1.11912
1
1
1
1.11865
1.11954
1.11881
1
1.12007
1.00001
0.899826
1.11843
1.11853
1
1.12036
1.11437
1.12092
1
1
1.11941
1
1.06468
1.11871
1
0.895009
1
1.11905
1
1
1.11989
1
1
1
1.03914
1.11864
0.893111
1
1.11884
1
1
1.11874
1
1.11912
1
1
1.1184
1.11865
1
1.00001
1
1
1
1
1
1
1.11805
1.11875
1
1.11874
0.89113
1.11702
1
1.1185
1.11986
1.11852
1.12097
1.12233
1
1
1.11942
1
1.07771
1.1192
1.11839
1
1.11975
1.12125
1
1.1077
1
1.11851
1.08047
1.11977
0.999303
1.11651
1.10981
1.11907
1.11867
1.01044
1.11866
1.11941
1
1.11844
1
1.11864
1
1
1
1
0.999196
1.1187
1.11871
1.09715
1
1.11951
1
1
1
0.889041
1
1.11607
1
1.10889
1.1144
1
1
1
1.11475
1.12312
1
1
1.11891
0.888212
1.02144
1
1.11884
1.11851
1.10899
1.11666
1.11854
1
1.11886
1
1
1
1
1.11839
1.11857
1
1.11449
1.01771
1.11843
1.11139
1
1
1.11161
1
1
0.892719
1.08637
1
1
1.11824
1
1.11964
1.10806
1
1.10744
0.889427
1.11851
1.11876
1.11863
1
0.893063
1
1
1
1.11858
1.09691
1
1.11935
1.11855
1
1.1187
1
1
1
1
1.11856
0.999816
1
1.11907
1
1
1.1168
1.11866
1
1.12006
1.02561
1.00001
1
1.11822
1
1.11825
1
1.00357
1.11854
1
1.11839
1
1
1.03995
1.11857
1
1
1
1
1
0.99879
0.894587
0.895101
1.0057
1
1.01222
1
1.00963
1
1.11855
1
1.07556
1
1.1185
1
1
1
1.11861
1
1.09237
1.11868
1
1.0672
1.11895
1
1
1.1207
1.11877
1
1
1.01557
0.891584
1
1.11874
1
1
1
1
1.02177
1.11867
1
1
1
0.892746
1
1.11843
1.11837
1.11998
1
1
1
1
1.06336
1.11947
1
1
1
1.11958
1.11849
1.0151
1
1
1
1.11837
1.11848
1
0.89516
1.11855
1.11852
1.11828
1.11846
1.11847
1
1
1.11823
1.11916
1.11864
0.896744
1.01143
1.1186
1
1
1
1
1
1.11859
0.891602
1
1
1.11868
1.05778
1
1.11818
1
1
1
0.881509
1
1
1.03358
1.11843
1.11868
1
1.11747
1.11885
1
1.02106
1
1.11963
1
1.11921
0.888135
1
1
1
1
1.11882
1.00002
1
1
1
1.11953
1
1
1
1
1.1186
0.88115
1.09565
1.1191
1
1.11845
1
1
1
0.999181
1
1.11958
1
0.948654
1
1
1.00001
1.11863
0.883884
1
1.11927
1
1.11877
1.11856
0.894145
1
1
1.11809
1
1
0.904204
1
1.11858
1
1.11402
0.999811
1.11824
1
1
1
1
1.12032
1
1
1.11863
1
1
1
1
1
1
1
1
1.08033
1
1.04104
1.11849
1
1
1
0.890984
1
1
1
1
1.11902
1.11867
1.01771
1
1
1.11884
1
1
1.1185
1
1
1
1
1
1
1.11859
0.93801
1.11855
1.11905
0.999163
1
1
1
1.07327
1
1
1.1182
1.11853
1
1
1
1
0.89326
1
1
1
1.07904
1
1.11859
1.11917
1
1.11885
1
1
1
1.0668
1
1.12093
1
1.1185
1
1
0.998884
1.11846
1
1
1
1
1
1.11817
1.00001
1
0.894938
1.11977
0.894057
1
1.11906
1
0.998819
1
1.11868
1.11939
1
1.11651
0.968947
1.11861
1.11697
1.00001
1
1
0.891471
1
1
1
1.11845
1.07161
1.11979
1
1
1
1
0.999088
1.11827
1
0.889917
1
1
1
1
1
1
1
1.1205
1.11914
1.12038
1
1
0.999111
1
0.995698
1
1
1
0.896655
0.998583
1
0.8837
0.891176
1
1.11858
1.11858
1
1.11841
1.11871
0.891433
1.08353
1
1
1
0.89049
1.11878
1
0.891006
1
1.1189
1.02297
1
1
1
1
1.11859
1.11993
1
1
1.11862
1
1
1.12052
1.11853
1
1.10659
1.1187
1.11966
0.987008
1.11932
1.00254
0.889812
1.09349
1.1184
1
1
1
0.89468
1
0.897192
1.12057
0.985874
1.11862
0.992584
1
1.11822
1.05878
1
1
1.11854
1
1.05236
1.11899
1
1
1.12057
1.11965
0.892248
1.07146
0.999971
1
1.07486
1
1.12057
0.986376
1.1215
1.11839
1
1
1
1
1.11564
1
1
1.11911
0.999899
1.11876
1.09925
1.11861
0.896452
1
1
1
1
1.11873
1.00001
1.11849
1
1.11845
1.11847
1.01635
1.12043
1.03998
1.11828
1
1.08401
0.895411
1.11785
1.11849
1.0974
1.02259
1.11947
1.11859
1.11873
1.1189
1
0.977542
1.02002
1
1.11854
1.05794
1.11859
1.00001
1
1
0.902961
1.12043
1.11908
1.09864
1
1.04971
1
1.11881
1.11855
1
1.11841
1.11885
1
1
1
1.11819
1
1.0503
1.11997
1.08501
1
1.11893
1
1
1
1
1
1
1
1
1
1
0.895287
1
1.11287
0.888732
1.07265
0.999594
1.11861
1
1.06663
1
1.07965
1.10292
1
1.0006
1.11992
0.975465
1
1.11794
1.11652
0.985023
1
1.11815
1.11879
1.11919
1
1.1187
1.11899
1.11868
1
1.05918
1
1.00002
1.11868
1
1.11864
1.01912
1.118
1
1
1.11884
1.11892
0.906858
1
1.11841
1.09157
1.11846
1
1
1.11936
1.11931
0.999496
1
1.11014
0.999066
1.11854
1
1
1
1
1
1.05765
1
1.09119
1.11892
1.09073
1.11905
1
1.00103
1
1
1.1201
1
1.11862
1
1
1
1
1
1
1.01677
1.0652
1
1
0.889576
1
1.11921
0.89477
1.11987
1
1.0619
0.999929
1.11915
1.0794
0.898904
1.06723
1.00001
1.11857
1.11835
1
1.07502
1.11884
1.11873
0.999542
1.12016
1.11565
0.895293
1
1
0.999341
1
1.1172
1
0.897238
1.11945
1
1
1.10541
1
1.11883
1
1.11876
1
0.902893
1
1
1.11859
1.11798
1.11723
1
1.1179
1.11859
1.11908
1
1
1.11794
1
0.9202
1
1
1
1.11838
1
1.11841
1.08025
1.11822
1
1.11858
0.99982
1
1
1
1
1
1
0.915868
1
1
1.11853
1
1.11905
1.1197
1
0.896291
0.892536
1
1.1189
1.02126
0.891051
0.889413
1
1.11888
1
1.11921
0.888565
1.00034
1
1
0.999858
1
1
1
0.999977
1.05238
1.11856
1
1
1.11891
1.07208
1
1.11278
1.11803
1.11965
1.05294
1.11756
1
1.11846
1
1.1144
1
1.11928
1.1181
0.999048
1.11859
1.11994
1
1
1
1
1
0.977793
1.11959
1.00001
1.00001
0.893933
0.999996
0.896172
0.88176
1
1.11861
1.11882
1.11864
1
1.11866
1
0.8943
1
1
1.1189
0.951501
1.11901
1
1.11889
1
0.992928
1.11838
1
1
1
1.11854
1
1.11854
0.892682
1
1
1.07154
1
1
1.06706
1
1
1.11853
1
1
1
1
1
1.11759
1.11891
1
1.11891
1.1186
0.890116
1.05887
1.11784
1
1
1.1079
0.999732
1
1
1.11863
1.11875
1.08418
1
1.1189
0.896482
1.11337
0.999871
1
1.11926
1.00001
1.1182
1.09816
1.09313
1
1
1.1186
0.902127
0.892202
1
1.11848
1
1.11831
1
1.07376
1
1
1.11849
1.07971
0.892061
1
0.999541
1
1
1.00738
1.05126
1.11855
1
1.11756
1
1
1
1
1
1
1.01914
0.888304
1
1
1.01241
1
1
1
1
1
1.11866
1
1
1.11862
1.11814
1.08951
1
1
1
0.950657
1.11941
1.08588
1
1
1
1
1.11848
1
1
1
1.11933
1
1
1.08835
1.12321
1.01015
0.919082
1.11842
1.08678
1.1188
1
1.06332
1
1
1
0.887311
1.0006
0.893863
1
0.888483
0.885671
1
0.891354
1
1
1
1.05697
1
1.11925
1.11862
1.00034
1.06101
1.09989
0.891219
0.928888
0.969325
1
1.11844
1.11993
1.11848
1.11854
1.10304
0.968704
1
1.10349
1
1.11491
1
1
0.998994
1.00258
1
1
1
1.11888
1
0.890522
1
1.11892
0.896163
1
1
1.11858
1
1.11855
0.999891
1
1
1.11873
1.10921
1
1.12329
1
1
1.00417
1
1.0537
1
1
0.889701
1
1
1.11792
1
1.1189
1
1.00001
0.895582
1
1
0.891584
1.00031
1
1.11947
0.892808
1.11967
0.88281
1.11859
1
1
1
1
1
1
1
1
1
1
1
1.11407
1
1.11901
1.11996
0.888539
1
1
1
1
1
1
1.11572
1
1
0.893377
1
1
1.1197
1
1
1.04754
1.10112
0.87836
0.887294
0.905405
0.917034
1
0.998981
0.89069
1.00014
1.10816
0.999124
1
1
1.11848
1
1
1
0.935049
1
1.0461
1
1
1.05184
1.11858
1
0.88971
1
1
1
0.999069
1
1.11811
1.11882
1
0.893936
1
1.06688
0.892503
1
0.968366
1
0.998824
0.883852
1
1
1
0.998847
0.891884
1
0.888505
0.999537
1.06593
1.10811
0.881601
0.879489
1
0.997277
1
0.999611
1
1.11834
1.11859
1
1.00487
1.11874
1.11855
1
1
1.1189
1
1
1.00001
1
1.11946
1
1
1.00542
1
0.999599
0.900313
1
1
1
1
1
1.1199
1.01213
1.00002
1
1
1
1
1
1.00001
1
0.887877
1.02837
0.999601
1.1156
1.11976
1
1.00433
1.1188
1.10623
1
1
0.879111
1.11939
1
1.11965
1
1.11842
1.081
0.890611
1
0.890765
1.10786
0.999908
1
0.888167
0.879383
1
1
1.1013
1
1
0.887065
1
1
1
1.0387
1
0.889203
1.11842
1
1
1
1
1.11871
1
1
1.11958
1.10724
1
1
1
1.11935
0.884807
1
1.11851
1.11849
1
1.09697
1
1.00001
1
1
1.11627
1.00468
1
0.896611
1.07099
1
1
0.999105
1
1
1.11701
1
1
1.00001
1
1.11886
1
1
1
1
1
1
1
1.05639
1
1.11867
1
1
1.11902
1
1
1
1.1186
1.11966
1.01298
1
0.999326
1
1
1
1
1.12016
1
1
1.11849
0.892839
1
1
1
1
1
1
1.09818
1
1
1.11803
1.11923
1
1
1
1.11858
1.11905
1
0.999898
1.11798
1
1
1
1.00001
0.888397
1.00917
0.998928
0.99884
1
1
0.888487
1.11889
1
0.877244
1
1.1179
1.11439
0.877431
0.999834
1.11856
1.11862
1.11853
1
1
0.982137
1.10755
1.09706
0.878985
1
1
1
1.11879
1.11851
0.890284
0.999254
1
1.11853
0.88839
1
1.11833
0.89166
0.996636
1.00187
1
1.11963
1
1
1
1
1
1
1.00003
1.11112
1
1
1.11989
1
1
1
1.11889
1
0.888
1
1
1
1.04166
1
1
1
1
1
0.935733
1
0.887512
1
1.11899
1.00002
0.959842
0.96276
1
1.00089
1.06544
1
1
0.896873
1.1188
1.11899
1.11886
1
0.881997
0.884152
1
1.11824
1
1
1
1
1
1.00001
1
0.889604
1.07986
1
1
0.881797
0.999931
1
1
1
1
0.882774
1
0.905986
1
1
1.12033
1
1
0.889036
1
1.11843
1
0.890226
1
0.889521
1
1.00219
1.11877
1.12386
1
1
1.12028
1
1
1.02987
0.999088
1
0.999468
1
1.11886
1
0.895521
1
1.12042
0.999722
1
1
0.945025
1
0.999711
0.883097
1.11885
1.04592
1
1
0.974916
1
1
1
0.94348
1
1
1
1.11849
1
0.89182
1
1
1
1
0.892064
1.11852
1.11229
0.885177
1
1.11936
1
1
1.11848
1.11968
1.10141
0.890823
0.999351
0.9998
1
1.11847
1
1
1
1
1.11874
1.00001
1
1
1.12071
1
1
1.11856
0.896616
1
1
1
0.895294
1
1
1
0.999606
1
1
1
1
1.0928
1
1.11979
1.11931
1.12074
1.11855
1.11876
1.11856
1
1.11838
1
1.11862
1.11854
1
0.999666
0.897326
1.10297
0.999969
1
1
1
1
0.999735
1
1.01983
1
1
1
0.957581
1.11857
1.1187
1.11834
1.10677
0.999963
1
1.00633
1.11884
0.999417
1.01941
0.999197
0.887973
1
1.00001
1
1
1
1
1
1.11836
0.889087
1.11836
1.11866
0.998503
0.892299
1
1
1
1.1187
0.890561
1.10594
0.886323
1.11854
1.11789
0.89122
1.1189
1.00724
1
1.11936
0.943114
1
0.999635
0.888626
1
0.888454
1
1.11853
1.11857
0.917729
1
1.11921
0.888027
1
0.888303
1
1.11858
1
1
1.11636
1
0.956102
1
0.999918
0.88949
1.119
0.999851
1
0.89201
1
1
1
1
1.06969
1
1.11881
1
1
1.12345
1
1
1.11834
1
0.892518
1
0.881691
1
1
1
1
1
1.11415
1.07402
1.11847
1
1.11848
1.1113
0.882541
0.888277
1
1
1.11901
1
0.891528
1
1.00026
1
1
1.11871
1
1.1178
0.888126
1.11815
1
0.889061
1
1
1.11815
1.11826
1
1.00001
1
1.11962
1
1
0.889413
0.999827
0.891794
1
1
1
1.11894
1.11826
1.1191
1
1
0.881009
1
1.11882
1
1
1
1.1123
1.1185
1.11858
0.885782
1.11884
1.11858
0.894014
1.11932
1.00001
0.888985
1.00695
1
1
1.11851
0.885338
1.07918
0.887553
1.11853
0.999272
0.885427
1.11926
1
1
1
1
1.11846
1.12001
0.887947
1
1.00001
0.893035
1.00001
1
0.887208
0.892001
1.0857
1.1183
0.999569
1.11849
1
1.11876
0.942929
0.889898
1.11857
1.12102
1
1.11846
1
1
1.11845
1
1.09335
1.11916
1
1
1
1
1.11878
1.11732
1.11847
1
1
1.11824
1.12153
1.11871
1
1.11881
1
1
1
1
1
0.890242
0.957102
0.887571
1
1
1.11893
1
1
1.11854
0.89072
1
1.11855
1.11738
1.11381
0.889387
1
0.88283
1
1.00001
1.11941
1.06308
1.11993
1.10942
1
0.878082
1
1.11905
1.08659
0.890428
1
1
1
0.941729
1
1
1.12171
1
0.885492
1.11869
1
1
1
1
1
1.09767
1.02819
1
1.11927
1
1.11863
1
0.999148
1
1.11855
1.11869
1.11861
1.11933
0.999882
1.11979
1
1.11857
1.11867
1.1016
1
1
0.89511
1.11932
1
1
1.11795
1.11826
1.11793
1
1.1184
1
1
1.00001
1.11853
1.11803
1.03701
1.02741
1.11842
1.11854
0.907211
1
1
1
1
1.00001
1.04504
1
1
1.10063
0.891822
0.999987
1
1.11844
0.999972
0.999949
1.01808
1.10721
1.11978
0.975532
1
0.889627
1
1.0012
1.1185
1.11884
1.11928
0.999725
1
1
0.893274
1
1
1.1185
1.01417
1
1
1
1
1
1
1
0.999982
1.11974
1
1
1
1
1
1.07631
1
1.05878
1
1
1.11853
1.1198
0.89196
0.999652
1
1
1
0.8871
1.11956
1.1185
1
1
1
1
1
1
1
1
1.11854
1.12044
0.896701
1.01499
0.88997
1
0.886252
1
1.11866
1.03561
1
1
0.916221
1
1.11314
0.937289
0.99906
0.889391
1
1
1.11943
1.00001
0.999213
0.880271
1.11973
1.12027
1
1
1
1
1.11137
1
1
1.11844
0.999707
1.1191
1.00001
1
1
0.889028
1
1
1.11863
0.890254
0.926477
0.893638
1.11858
0.999794
1
1.11883
0.882122
0.880599
1.00339
1
1
1.1201
1.00001
1.0586
1
1
1.11985
0.893887
1
1
1.00004
1.11937
1.00003
1.1168
1
1.00001
1
1
0.914051
1
0.938948
1
1
1.11785
0.889757
1
0.938381
0.942595
1
1
1.11857
1
1
1
1.11794
1.11845
1.00001
1.11664
1.12035
0.933383
1.11864
1.11396
1
1
1.11562
1
1
1
1
1
1.11907
1.11866
1
1
1
1.11853
1.00006
1
0.889597
0.905188
1
1.00001
1.04836
1
1
0.971742
0.896321
1
1
1
1.11977
1.10974
1.11851
1
1
1
1
0.889577
1
1.11671
1
1.11715
0.896389
1.1208
1
1
1
0.87891
1
1.1191
1.00001
1
0.888857
1.04645
1
0.9999
1.11833
0.8899
0.887714
1
1.11981
0.879245
0.889291
1
0.88981
1
1
1
1
0.880579
1
1
1
1
1.11929
1
1.09333
0.892071
1
1
1
0.884788
1.11853
1
1
0.998983
1.11815
1
1.11831
1.1191
1
1
0.919691
0.879524
1
1
0.881654
1.04016
1.05897
1
1
1.11927
0.999258
1
0.999344
1.12071
1
1
1
1
1
1
1.11851
1
1.04461
1.03939
0.909507
1.10692
1
1.11843
1.11842
1
1
1
0.972745
0.888328
1
1.06468
0.999908
1.10368
1
1
1
1
1
1.00185
1.05611
1.11879
1.11829
1
1.11841
1
0.905872
1
0.999208
0.999933
1
0.896007
1
0.904069
1.00001
1.11928
1.11991
0.894195
1.11958
0.88077
0.998893
1.09241
0.891996
1.08662
1
1
0.999551
1
1
1
1.00002
1
0.890406
1
1
1
1
0.999881
1.1186
0.940741
1
1
1
1.01045
1
1
1
1.07226
0.921909
1
1
1
1.01599
1.11964
1
0.890982
1
1.11902
0.97137
0.88816
1
0.892328
1
1
1.11283
0.999493
1.11329
1
1.00257
1
1
1.11854
1
1
1
1
1.02601
1
1.11857
1.11898
1.1193
0.891013
1.11836
0.999196
1.09843
1
1
0.892181
1
1
0.895932
1.11857
1
1
0.999987
1
1
1
0.883484
0.888229
1
1.12016
1
1.05839
1.11858
0.891466
1.10277
1
1
0.89373
1
1
1.11846
1.11861
1.04672
1
1
1.00036
1.11971
0.891916
0.906753
1.11979
1.11871
1.08491
1.05135
1
0.972883
1
1
1
1.11368
1.12014
1.11915
1
1
1.11892
0.888393
1.11009
0.884836
1
0.901679
1
0.896247
1.11845
0.881715
1
0.994662
0.89279
1
1
1
0.956999
1.10824
1.11895
1.11913
1.12004
1
1
1.11924
1
1
1.119
1
0.879066
1
0.888459
1
1.11975
1
1
1.00849
1.09273
1
0.999698
0.887219
1.11864
1
0.891896
1.02481
1
1
1.09136
1.1187
1.11853
1
1.11844
1.03694
1
1.00699
1.11866
1
1
1
1
1.11859
1
0.892047
1.11881
0.890228
0.888921
0.943041
1.11839
1.04437
1.11804
1
1.12007
0.999235
1.00001
1.11856
1.11998
1
1.11975
1
1.11877
1
1.11992
1
1.00001
1
1.11866
0.88666
0.898588
0.999385
1
1
1
0.889176
1
1.08186
1
0.886831
1
1.05203
1.11844
1.11879
1
1
1.00001
0.999811
1
1.11978
1.11851
1
1.05234
1.11855
0.954827
1.11828
1.00006
0.886644
1.0275
0.88153
1
1
1.02265
1.12067
1
1
1.01263
0.999582
1
0.894142
1
0.937043
1
1.11871
1
1
0.888703
1.03009
1.02236
0.999573
1.11847
1.11866
0.929876
0.999441
0.896558
0.879651
0.895344
1
1
1
0.999724
0.918827
0.893798
1
1.11863
0.999925
1.11858
1.11865
1.11997
1.11864
1
0.893911
1.11864
0.882297
1
1.11839
1.11965
0.99904
0.941478
1.11875
1.0887
1
0.889661
1
1
1.11868
1
1.00746
1.11845
1
0.889241
0.894327
1
1
0.877722
0.884054
1.1188
1.00001
1
0.886123
0.884849
1.11821
1.11688
1.11189
1.11982
1.03392
0.995884
1.05027
1.12085
1.09417
1
1.06537
1
0.88977
0.964003
1
0.894156
1.11853
1.00673
1.119
1
1.11862
1.11924
1
1.11841
1.1185
0.890396
1.11985
1
1.1213
1
0.922626
0.891881
1.1185
1
1
1
0.891702
1.11876
1.11879
1
0.893564
1
1
0.89444
1.00001
0.878277
1.11991
1
0.953445
0.88319
1
1
1.07082
1
1
1
1.02204
0.891561
1
1
1
1.1174
0.890064
1
1.11846
0.894196
0.884313
1
1
1.12062
1
1.1189
1
1.1186
0.893488
1
1
0.878982
0.944439
0.889039
1
1
1
1
1.11741
0.892492
1
0.891243
1
1.11941
1
1
0.980341
1
1
0.949589
0.99991
1.00001
1
0.889534
0.894909
1
1
1
1
0.940712
1.11821
1.11984
1
0.887394
0.88818
0.977586
0.896047
1
0.940103
1
0.889296
0.996371
1
1
0.893965
1
1.11888
1.1176
0.891361
1
1
1
1.11819
1
1.01353
0.955954
1.04137
0.900846
1.05365
0.889644
1
1
0.919258
0.975979
1
1.01162
1
1
0.883836
1
0.986214
1.01611
0.891559
1
1.10247
0.932557
0.964766
1
1
1
0.89303
1
0.891836
0.882036
1
0.950833
0.889982
1.01641
0.92776
0.884092
1.11865
1
1.11844
1.06689
0.912209
1.11855
0.894623
0.999713
1.11959
1
1
1.11908
1
0.910127
1
1.01854
1
1
1.1185
1
0.924043
0.944984
1.12042
0.985179
1
0.925857
1.11846
1.11942
0.973738
1
1.11847
1.03344
0.950632
1
1.00731
1
0.894034
1.05399
0.929994
0.922654
1
1
0.896459
1.11839
0.992909
0.89359
0.887806
0.966315
1
1.00628
1.11976
1.11842
1
1
1
0.892432
1.06031
1
1.11825
1.11102
0.884921
1
1.02613
0.959305
1.07308
1.10042
1
1.01238
1
1.00002
0.886525
0.95413
1
1
0.948655
0.887482
1.01304
1
1
0.887308
1.05829
1
1.11971
1
1.0154
1.06691
1
1.11985
1
1
1.11913
1
0.887901
1.1195
0.909799
1.03334
1
0.893721
0.999974
1
1.00001
1
0.939487
1.00813
0.892013
1.09427
1.12014
0.882698
1
1
1
1
1
0.991173
0.880792
1.01609
0.892987
0.886597
1.0237
1
0.999942
1.03227
1
1
0.887419
0.994268
1
1
1.0379
1
1.11947
1
1.11938
1.02481
1.00636
0.891598
1
1
0.892198
1
1
1
1
1.11802
1.01237
0.999468
1
0.885136
1.01506
1
1
1.08137
1
0.88743
1.11884
1
1
1
1.11872
0.883183
0.967235
0.886167
1.09224
1.11783
1
1
1.11856
1
0.88314
1
1
1
1
1
0.928563
1
1.11893
1
1
1.04399
1.11943
0.886707
0.960338
1
1.11829
1
1
1
1
1
1.11853
1.11965
0.883581
1.11867
0.884946
1
1
1.11862
1
1.11977
0.999418
1.008
1.02125
1.11857
1.01973
1.08283
0.884619
1
0.889415
0.995568
1
1.11859
1
1
0.889096
1.11927
1
1.11956
1
1
1
1
1
1
0.895602
1.11941
0.955412
1.11848
1
0.8949
0.890805
0.903366
1.11879
1.11827
0.992285
1
0.933427
1
1.05315
1
1.11929
0.885737
0.88935
0.959085
1
1.11856
1
1.02406
0.901865
1
1.11945
1.11152
0.999686
1
1.11864
0.890064
1.11802
1.11868
1.12043
0.890386
1.0272
1
1
0.882381
1
0.935895
0.940556
1
1.00001
1.11877
1
1.1185
1.02545
1
1.01287
1.11944
1
0.889963
1
0.930163
1
1
1.09857
1
0.935262
1
0.89917
1.01082
0.988522
0.884322
1.11907
1.09675
1.11972
0.893848
0.903055
0.998818
1
1
0.894564
1.11263
0.889769
0.999991
1
1.11867
1.11905
0.974447
1
0.890841
0.912186
1.08247
0.994681
0.885369
1
0.886504
1.03435
0.891887
1
1.00002
0.95042
1.11996
1.11837
0.959037
0.999887
1
1
0.915298
1
0.886408
1
0.884202
0.890217
1
1
1.00001
0.894216
1.11874
1
1
1.00002
1.00001
0.890343
1.1185
1.11852
1
0.892058
1.12004
1
1.02807
1
1
1.118
0.886327
1
1
0.89111
0.922038
0.890633
0.888272
1
0.911369
0.999194
1.02691
0.889341
1
1
1.03665
1
1.1065
1
1
1.08697
0.901644
1
0.887909
1.03738
1.11852
1
1
0.895191
0.886845
0.881903
0.923514
0.892327
1.09161
0.999831
1
1
1
1
1.11886
0.894353
1
0.981088
0.999906
0.999521
0.999983
0.93322
1.03714
1
1.1186
1.11858
1
1
1.11464
1.00001
1
1.11854
0.892125
1.11499
1
0.880905
1.1185
1.00002
1
0.948521
1
0.88202
1
1.11965
1
1
1.11894
1
1
1.11859
1
1
1
1.12031
1
0.92576
0.916493
1
0.884267
1.1183
1
1
0.996665
1
1.11949
1.07134
1.0973
1
1
0.895998
1
0.886835
1.11897
1.11974
1.11887
1
1.1199
0.891701
1
0.882297
1.09778
1.10817
1.11922
1.11869
0.931235
0.890659
1
1.08098
1.1193
1.11947
1.11866
0.916833
1.04608
1
1.09249
0.927784
1
1
1
1.00001
0.966282
1
1.11982
1
1
1
1
1
1
1.00002
1.11766
1
1.11977
1.09109
0.896848
1.12019
1.01223
1.06487
1
1.11894
1
0.891259
1
1
1
1
1.10282
1
0.883597
1.11867
0.887046
1.11876
1.09692
1.06548
1
1.0247
1.0601
0.998829
0.888856
0.926122
1.00001
1
0.977351
1
0.893388
1.11905
0.883781
0.983789
0.957078
1
1
1
1.0044
1
1
0.889237
0.998919
1.11992
1
1.1186
1
0.886157
1
1
1.11844
1.11898
0.881456
1
1.11887
1
0.938186
0.884473
1.11934
1.10718
1
1.02175
1.1186
0.999613
1
1.05399
1.10563
1.11879
0.998742
1
0.999999
1.10177
1
1
1
1.11866
0.999573
1
1
1.11889
1
1
0.889889
1
1
1
1.11933
1
1
0.957211
1.04142
1.10828
0.926705
1
1.11878
1
1.04445
1
1.1197
0.99921
1.11837
1
0.891282
1
1.08058
1
1
1.11132
1.00001
1.11861
1
1.11802
0.897497
0.893712
1.1194
1
1.10527
1
1.11921
1
1
1.00001
1.1185
1.11793
1.03692
1.11849
0.998802
0.885814
1.11864
0.96646
1
1.11753
1
1.11832
1
1.11913
1.1192
0.998938
0.885438
1
1.11852
1
1.0119
1
1
0.999408
0.919504
1.10692
1
1.11328
1
0.959951
0.894005
1.11904
1.11878
0.898605
1
1.11901
1.11971
1.11942
0.901893
1.11857
0.900384
1.11928
1.12148
1
1
1.11874
1
1
1
1
0.88834
1
1
1.1195
1.11852
1
1.1186
1
1.12011
1.11954
1
1.10046
1
0.880322
1.11892
1.09011
1.03613
0.881566
1.11847
1
1
0.891495
1
1
1.11858
1
1
0.929112
1
1.1185
1.00003
1.11808
0.894597
1.1201
1
1.11859
1.11466
0.969556
1
1.11882
0.928218
1.11852
1.08832
1.11866
1.11818
0.999148
1.12024
1.11863
1.11836
1.11836
1.0003
1
0.881616
1
1.11984
0.951556
1.10858
1
1.11682
1
1
1
1
1
1.11808
0.89107
0.889619
1.119
1.11858
1
1
1
1
1
1.11774
1.10483
1.11842
1.00904
1
1
1
1.00001
1.11837
1.11859
1
1.11931
1.11958
0.893115
1.08568
1
1.11852
1.11933
1.11788
0.999359
1.1187
1.11868
1
1.10907
1
1
1
1
1
1
1.1184
1.12009
1.11125
1.11856
0.890763
0.902309
1.11858
1.11841
1
0.89193
0.986401
1
1.06031
0.887599
1
0.999844
0.999507
0.89027
1
1.11846
1
1
1
1.11913
0.983942
1
1.11842
1.11861
1
1.11907
1
1
1.11865
1
0.895096
1
1.11864
1
1
0.891641
1
1.11913
1
0.884512
0.88583
1
1.1159
1
0.881863
0.965957
1
1.11847
1
1
1
1.11936
1
0.904865
1.01908
1.11921
1.11898
1.11856
1.01446
1.11896
1.11866
1
1
1
1
1
1.11864
1
0.999807
1.1199
1
0.878071
1
1.11865
1.0605
1.01871
1.05971
1.01924
1.11887
0.908795
1.11849
1
0.890471
0.999186
1.11854
0.986858
1.11852
1.11861
1.11057
1
1.11925
1.11865
1.11854
1
1.00001
1
1
1.11935
1.08634
1
1
0.888391
0.998966
1
1.11865
1
1.11854
1.11861
1.11856
0.972884
1.11867
1.11876
0.999643
1.06086
1.11948
1.11829
1
1.1104
0.948825
1.1162
0.997944
1.11831
1
1.11863
1.11864
1
0.893955
0.985322
0.897044
1
1.0229
0.999125
1.11956
1
1
0.999061
1
1.0643
1.11169
1
1
1.11867
1
1
1.08694
1.11907
1.11453
1.11857
1.11838
1
1.11848
0.90928
1.11957
1
0.994084
0.905518
1
1
0.925668
1
1.0425
1
1.11874
1
1.11675
1.07896
0.890946
1
1
1
1
1
1.11889
1.0035
1
1.11895
1
1.1186
1.11854
1
1
0.993008
0.999953
0.886053
0.884696
0.90828
1.02476
1
0.999557
0.885449
1.00001
1
1.11834
0.981909
1.11147
1.10092
1
1
1
1
1
1.11844
1.11852
1
1.1186
1
1.1196
1.08272
0.998983
1
1
1
1.07041
1
0.987548
1
1.11863
1
1
1.11847
1
1
1
1
1
1.11882
0.885697
0.998785
1.10752
1.11859
1
1.11868
1
1
1
1
0.894673
1
1.11868
1.11861
1.1185
1.12036
0.987702
1
1.10177
1.03114
1.11983
1.11991
1.02424
1.11942
1
1
1