/*--------------------------------*- C++ -*----------------------------------*\
  =========                 |
  \\      /  F ield         | OpenFOAM: The Open Source CFD Toolbox
   \\    /   O peration     | Website:  https://openfoam.org
    \\  /    A nd           | Version:  12
     \\/     M anipulation  |
\*---------------------------------------------------------------------------*/
FoamFile
{
    format      ascii;
    class       volScalarField;
    location    "0.59";
    object      p;
}
// * * * * * * * * * * * * * * * * * * * * * * * * * * * * * * * * * * * * * //

dimensions      [1 -1 -2 0 0 0 0];

internalField   nonuniform List<scalar> 
22702
(
1
1
0.824416
1
1.01154
1
1.47182
1
1
0.583697
1.47183
1.4722
1
1.03246
0.836442
1
1
1
1.47194
1
1.31694
1
1.44295
0.606003
0.999997
0.606548
1
1.4423
0.574611
0.603072
1
1.47208
1
1
1
1.33296
1
1.44244
1
1
0.577037
1
1.19939
1
1.44181
1
1
1
1
0.605759
1
0.600222
1
1.47172
1
1.4716
1
1
1
1
0.603643
1
1
0.579207
1
0.604386
1
1
1
0.591082
1
1.43996
1.24999
1
1.43607
1.45506
0.60424
1.47326
0.612349
1
1.47132
0.617214
1.46974
1.46963
1
1
1
1
0.876112
0.586427
1.44506
1
1
0.580781
1
1.31827
0.577456
1
1
1
1
1.19007
1.47166
0.603634
1
1
1.09811
1
0.617815
1
1.47355
1.47213
1
1
0.603685
0.607903
0.586103
1
1
1
1
1
0.862425
1
1.32958
0.992258
1.45994
1
1.45396
1.47213
1.07791
1.47057
1
0.591827
1
0.590686
1
1
1
1
1.47225
1
1
1
1
1.43238
1
1.02855
1
1
1
1
0.602566
1
1.01118
1
0.612245
1
1
1
1.44381
1
1.44608
0.575782
0.603824
1.43808
1.44166
1
1.0278
1.2349
1
1.46977
0.613901
1.33221
1
1
1
1
1.01624
1.38909
1
1.47238
0.592507
1.47046
1
0.596105
1
0.600671
0.602883
1
1
1
1.47387
1
1
1.42554
1
1.47159
1.47207
0.640783
1
1
0.611133
1.43482
1
1
1
1.43482
1
0.585861
1
1
1.4624
1.45777
1.47259
1
1
1
1
1
1.29613
1
0.609232
1.45176
1.42951
0.999942
1
1
1
0.61131
1.47283
1.22404
1
1.32162
0.598208
0.590606
1.32472
1.47642
1
1.46876
0.601138
1.33055
1
1
1
1
1.42789
1
1.26507
1.04358
1
1
1.40994
0.57866
0.724733
1
1.47264
0.5812
1.46998
1
1
1
1
1
1
1
0.611598
0.71955
0.594332
1.47059
1
1
1
1
1.37999
1
0.614701
1
0.604586
0.615306
1.47154
0.604602
1.30769
1
1
1
0.997615
0.596419
0.592761
0.999999
1
0.603386
1
1.47223
0.598649
1
1
1.47052
0.573692
1
1.46408
0.603379
1.40783
1
0.61211
0.997736
1
1
1
0.601528
1
1
1
1.00001
0.98361
1.25195
1
0.653017
1
1
1
1
1
1
1
1.47054
1
1.47243
1
1
1
0.583806
1
1.43336
0.603654
1
1
1
1
1.47034
1
1
1
1.43196
1
1
1.46676
1.47068
1
1.0758
1
1
0.585254
1
1
1
0.589269
1
1
1
1
0.64155
1
1
1
1
1
0.578096
1.00006
1.44369
1
0.999999
1.4413
1.43885
1
1
0.650897
0.775995
1.47236
1
1
1
1.40623
0.593357
1
1.44673
1
1
0.690049
0.677618
1
0.603828
0.58929
1
1
1
1
1
1
1
1.46658
1.1117
1.4499
0.579122
0.872848
1.47242
1
1.43374
1.47247
0.605322
0.742442
1
0.580642
1
1.48573
1
1
1
1
1.43212
1
1
1
1
1
1
1
1.13898
1.44352
1
1.46941
1
1
0.619803
1
1
1
1
1.43679
1.31437
1
1
0.6046
1.42941
1.45196
1
1.4567
1.4251
1.46419
1
0.79486
1
1.40371
0.96152
1.46695
1
0.59197
0.998865
1.47008
1
1
1
1
0.622042
1.47407
1.33277
1
0.99999
1.40564
1.47234
1
1.20843
0.999963
1
1
1.29145
1.05168
1.46342
0.883742
1.45938
1
1.46032
1.46849
1.4558
1.42932
1
1.4528
0.878303
0.855561
1
0.999999
1
1
1.4687
1
1
1
1
1
1.47045
1
1
0.996015
1.44636
1.41932
1
1.38383
1.00004
1
1
1.43203
1
0.996779
1.00467
1
1.46931
1
1.46986
1
1
1.31083
1
1.47023
1.00002
1
1.46939
1
1.43866
1
1
1
1.42705
1
1.47636
1.00001
1.43034
1.47026
1.41712
1.4683
1
1.47158
1.46582
1
0.601346
1.35833
1.30255
1
1.42908
1
0.579151
0.603197
1
1
1
1
1
0.5745
1
1.47033
1.08692
1.43245
1
1
1
1
1
1.4695
1
1.47012
1.24527
0.747904
1
1.00001
1.13489
1.1193
1
1
1.15575
1
0.621523
1.46766
1.47032
1
1
1
1.46979
1
1.00003
1
1.4739
0.916738
1
1
0.610434
1.35588
1
1
1
1
1
1.44209
1.47194
1
1.46826
1.47604
1.41304
1
1
1
1
0.599965
1.47214
1
1
1.35626
1.36221
1
1.35819
1.44618
1
1
1
1
1
1.46744
1
1
1
1
1.46828
1
1.46853
0.5921
1
0.602354
1
1
1
0.996937
0.600582
0.999082
1
1
1
1.06236
1
1
0.841139
1
1
1
1
1
1
1
0.999997
0.893393
0.999999
1
0.997513
1
0.623696
1
1
1
1
1.31126
1
1
1
1
0.596097
1
1
1.35855
1.47136
1
1
1
0.85914
1
1
1
1
1
1
0.914322
0.984446
1.29688
1
1
1
1.46962
0.848673
1
1
1
1.44265
1.43744
1
1.00001
1
1
1
1
1
1
1
0.591251
1
1
1.47084
0.585226
1
1.47069
1
0.603474
1
1
0.594017
1
1
1
1
1
1
1
1.35644
1.36237
1
1
1
1
1.3542
1
1.11298
0.602772
1
1
1
1
1
1
1
1.00338
1
1
1.24912
1
1
1
1.32574
1
1
1
1
0.585478
1
1
0.582638
0.582901
1
1
1.40429
1
0.998113
1
1
1
1.2925
0.623281
1
0.610723
1
0.756485
1
1
1
1.4731
1
1
1.39384
1
1
1
1.39417
1
1
1.40165
1
1
0.604754
1
1.10901
1
1
1.47233
1.47222
1.27392
1.33886
1
0.589356
1
1
1.35408
1
0.596358
1
1
1
1.38618
1
1
1
1
1.24583
1
1
1.47334
0.587926
1
1
0.602463
0.604849
1
1
1
1.29533
1.314
1
1
1
1
1
1
1
1.16469
1.46838
0.979087
1
1.329
0.598906
1
1
1
1.22378
1
1.07488
1
1.35386
1.3539
1
0.594105
1
1.47096
1
1
1.43618
1.35407
1
1.47331
1
0.592368
1
1
1
1.4674
1.34966
1.3481
1
1.47364
1.39835
1
1.38702
1
1.36017
1
0.582629
0.94251
0.577773
1
1
1
1
1
1.41394
1
1.41086
1
1
1
1.35029
1
0.603361
1.39558
1
0.588161
0.645065
0.622288
1
1.19498
1.00267
1.35352
1.39797
1
0.999999
1
1
1.42127
1
1
1.42208
1.40005
1
1.15721
0.999888
1
0.997312
1.44748
0.819024
1
0.792517
0.62312
0.620485
0.945261
1.44241
1.36033
1.06306
1.33887
1.40375
1
1
1.4634
1.47255
1.35427
1.47102
1
1.35149
0.598401
1.46896
1.472
1.47158
1.47665
0.839722
0.864866
0.890416
1.40253
0.922033
1.47224
1
1
1.35609
1.47049
1
0.582405
1.47165
1.40388
1
1.41982
1.41977
1
1.41955
0.591203
1.47118
1.46669
1.47107
1.47706
1
1
1
1.40332
1.27011
0.652496
1.39294
0.57456
1.40437
1
1
1
1
1.46857
1.39152
1
1
1.38961
0.576133
1.47213
0.619663
1
1.3458
1
0.5828
1.38463
0.716178
1
1.39679
1.38434
1.41242
1
1
1
1.38364
0.60203
1.38134
1
1.33028
0.836099
1.41308
0.596244
1
1.46998
0.651689
1.35795
0.605744
1
1.38491
1
1.44533
1
1.24847
1.36032
1.32577
0.602659
1
1.47084
1
1.33426
1
1.37862
1
1
1.47174
0.931244
1.38091
0.583269
0.999372
1
1.29473
1
1.47329
1.37781
1.47252
1
1.34214
1.47232
1.33939
1.25126
1.46976
1
1.27224
1
1.47115
1
1.03244
1
1.35434
1
1.33048
1.35445
1.34656
1
1.00199
0.604909
1
0.592267
1
1
1
1.47318
1
1.37419
1
1
1
1.38888
1.01542
1.00423
1.46954
1.47035
0.603071
1.47748
1.47074
1
1.00004
1.37713
1.00776
1
1.46992
1.47212
1
1.42127
1.47085
1.47137
1.38532
1
1
1
1.34368
0.635881
1
1.37051
1
1
0.604613
1
1
1.3723
1.47078
1
1.37902
1.0261
1.43419
0.94486
1.42932
1
1.43163
1.36966
1.00881
1
1
1
1.47189
1.47052
1.36125
0.915848
1
1.43342
1.47049
1.41672
1
1.47086
1.47154
1.36782
1.4319
1
1.36263
1.41349
1.37342
1.46998
1.43034
1
1.46565
1.36202
1.36347
1.47138
1.4716
0.600836
1.43567
1.46978
1
1.35404
1.36359
1.3584
1.35907
1
1.3622
1.35675
1
1.4018
1.34135
1
1
1
1.46977
1.47781
1
1
1.22208
1
1.2925
1
1
1.40541
1.32069
1.47105
1.4018
1
1
1
1.29973
1
1.34279
1
1
1.45508
1.46675
1
1.37253
0.578086
1.41746
1.47198
0.683021
1
0.607515
1.37192
1.47601
1.35563
1.35766
0.582846
1.47147
1.40048
0.586455
0.581039
1
1.3222
1.47266
1
1
1.35558
1
1.47681
1
1.3497
1
1.19355
1.47142
1.38522
1.29804
1.11903
1.47249
1.41663
1.10113
1
0.602145
1.30143
1.47168
1.42063
1
1
1
1.47868
1
1.47122
1.41481
0.730942
1
1.3565
0.999942
1
1
1
1.47203
1.41915
1
1
1
1.34091
1.3819
1.34519
1.47551
1.47029
0.656782
1.00022
1
1.34805
1.47098
1.47174
1.47083
1
1.37945
1.34991
1.37985
1
1.47138
1.47096
0.834895
1.3807
1.47122
1
1.35542
0.817634
1.47034
0.830925
1.38084
1
1.34869
1.47634
1.37701
1.37922
1.34979
1.43865
1.37975
1.46959
1
0.903989
1.47049
1.44162
0.813994
1.37713
0.952191
1.28991
1.47061
1.43669
1.46955
1
1.38195
1.29403
1.46859
0.887654
1.38004
1.47723
1
0.831028
1
1.10055
1
1.28569
1
1.02967
0.826313
1
1.35054
1.46636
1
1.47221
1.35454
1.47027
1.38633
1.38886
1
1.47069
1
1
1
0.862449
1.4344
1.47064
1.47518
1.37344
1.47719
1.47376
1.04342
1.37676
0.865406
1.01166
1
1
1.47829
1.37325
1.38487
1.39456
1.00002
1.23916
1
1.42126
1.41402
1
1
0.700814
1.3683
1
1
0.591586
1.39145
1
1.4695
1.36222
1.47238
1.35416
1.34676
1
0.60947
1.11151
1.47239
1.34735
1
1.33048
1.3713
1.14594
1.01061
1.02783
1
1.44506
1.47207
1
1
0.583605
1
1
1.37619
1.37148
1.47304
1.34331
1.39162
1.46934
1.33881
1.33797
1.46813
1
0.998368
1.47031
1.3426
0.998251
1.37088
1.37002
0.608026
0.584134
1.33602
1.41492
1
1
1.00119
1.35254
1.47368
1.3936
1
1.37201
1
0.809262
1.42138
1.42066
1
1.16913
1.4251
1
1.46933
1
1.35835
0.99951
1.47459
1
1.46943
1.4655
0.58695
1.36132
1
1.47016
1.46843
1
0.612705
1.39763
1.00249
0.999996
1.03145
1.36602
1
0.9689
1.46778
0.999981
1.36018
1
1
1.47065
1
1.47121
1.36997
0.996471
1.36881
1
1.36815
1
1
1
1
1.39728
1
1
1.39454
1
1.35427
1
1.28147
1.40281
1.47014
1
1
0.97452
1
1.47067
1.36012
1.47002
1.36026
1.47146
1.35132
1.34989
1
1.35717
1.32571
1
1.3548
1.35805
1
1.47349
0.894784
0.999859
1.3632
1.35604
1.40265
1
1.35923
1
1.40269
1.36193
1
1.32696
1
1
1
1
1.35698
0.625261
0.997897
1
1.39524
1.19771
1
1.38546
1
1.00535
0.593059
1.34953
0.999609
1
1.35605
0.998437
1.34628
1
0.999915
1
1.35417
1.47143
1.35577
1.47215
0.601189
1.47102
1.41207
1.47069
1.10894
1
1
1.16919
1.39357
0.617123
0.599878
1
1.47014
1.40029
1.35546
1
1
1.41648
1.34955
0.999886
1
1.04001
0.572807
1
1.00013
1.4704
1.2313
0.999918
1.3997
1.43439
1
0.999253
1
1.47283
1.44856
1.00379
1
1.4438
1
0.998776
1.47277
0.579346
1.41536
1.38958
0.999751
1.00001
1.40634
1
1.00001
1
1.41807
1
1
0.598421
1.39497
1
1
1
1
1.46911
1.23313
1
1
0.593329
1.34514
1.2314
1
1
1
1.34037
1.45375
1.47602
1
1
1.47886
1
1.40679
1.47049
1
1
1.33962
1.40701
1.40746
1
1
1.33913
1.41171
1
1
1
1.41009
1
1
1
1.47177
1.47713
1.3929
1
1.46928
1.00001
0.671275
1.41586
1.4128
1
1.47105
1.0165
1.47291
1
1
1.41116
1
1.13956
1.4197
1
0.59634
1
1.34815
1
1
1.39941
1
1
1
0.999677
1.41727
0.644163
1
1.34252
1
1
1.47194
1
1.41002
1
1
1.38375
1.41591
1
1.00005
1
1
1
1
1
1
1.39813
1.39327
1
1.46949
0.615797
1.40253
1
1.47364
1.47905
1.38409
1.47057
1.47393
1
1
1.40515
1
1.24807
1.40834
1.40205
1
1.40408
1.46761
1
1.41931
1
1.47356
1.26896
1.40818
0.99902
1.00694
1.38886
1.40486
1.38481
1.00816
1.39448
1.39414
1
1.38493
1
1.47163
1
1
1
1
0.997822
1.39859
1.47143
1.38253
1
1.41957
1
1
1
0.607398
1
1.39435
1
1.3383
1.46241
1
1
1
1.33769
1.45542
1
1
1.47316
0.600896
1.05455
1
1.40992
1.4454
1.3445
1.39383
1.43904
1
1.46857
1
1
1
1
1.46867
1.3999
1
1.46657
1.02893
1.47138
1.33619
1
1
1.3375
1
1
0.589631
1.3239
1
1
1.13012
1
1.3948
1.37429
1
1.3746
0.602743
1.47246
1.37749
1.33624
1
0.594299
1
1
1
1.47202
1.26713
1
1.39172
1.43275
1
1.39134
1
1
1
1
1.43404
0.999375
1
1.34512
1
1
1.47227
1.32909
1
1.42095
1.03588
1.00002
1
1.37742
1
1.37557
1
1.00264
1.4247
1
1.37743
1
1
1.10651
1.47074
1
1
1
1
1
1
0.599237
0.610588
1.02015
1
0.994196
1
0.993903
1
1.4284
1
1.29897
1
1.38698
1
1
1
1.38833
1
1.26505
1.46942
1
1.20965
1.39361
1
1
1.47332
1.37927
1
1
1.0162
0.600626
1
1.40175
1
1
1
1
1.07814
1.47114
1
1
1
0.580748
1
1.38522
1.47107
1.48198
1
1
1
1
1.12622
1.482
1
1
1
1.47508
1.32375
1.02007
1
1
1
1.42881
1.32319
1
0.600893
1.47144
1.33643
1.4707
1.47115
1.47532
1
1
1.46951
1.47681
1.38919
0.581228
1.04089
1.42398
1
1
1
1
1
1.43189
0.602505
1
1
1.38717
1.18164
1
1.46828
1
1
1
0.596996
1
1
1.04541
1.47145
1.32732
1
1.46957
1.47247
1
1.04839
1
1.4719
1
1.43511
0.603051
1
1
1
1
1.38988
1
1
1
1
1.46185
1
1
1
1
1.41256
0.599172
1.35932
1.40019
1
1.32114
1
1
1
1
1
1.47359
1
0.791174
1
1
1.00003
1.32419
0.588929
1
1.38709
1
1.32383
1.30739
0.58043
1
1
1.35902
1
1
0.589238
1
1.46754
1
1.33665
0.999724
1.32605
1
1
1
1
1.46961
1
1
1.30721
1
1
1
1
1
1
1
1
1.27478
1
1.14955
1.41682
1
1
1
0.601772
1
1
1
1
1.35795
1.39118
1.03036
1
1
1.34358
1
1
1.47073
1
1.00001
1
1
1
1.00001
1.46948
0.760979
1.32746
1.34626
0.996667
1
1
1
1.25066
1
1
1.4729
1.39286
1
1
1
1
0.588268
1
1
1
1.29516
1
1.38246
1.39315
1
1.35578
1
1
1
1.22608
1
1.4713
1
1.31698
1
1
0.996158
1.32452
1
1
1
1
1
1.46436
1
1
0.590274
1.46682
0.603452
1
1.47647
1
0.995633
1
1.39262
1.46724
1
1.47814
0.847465
1.3233
1.47919
1.00003
1
1
0.613948
1
1
1
1.3432
1.23378
1.08439
1
1
1
1
0.996721
1.37047
1
0.615225
1
1
1
1
1
1
1
1.42639
1.37047
1.47067
1
1
0.996807
1
0.94407
1
1
1
0.61033
0.944433
1
0.629004
0.603886
1
1.33754
1.38525
1
1.39988
1.39297
0.616821
1.3067
1
1
1
0.615337
1.47076
1
0.610086
1
1.47402
1.05768
1
1
1
1
1.31369
1.47043
1
1
1.33296
1
1
1.47153
1.33955
1
1.44958
1.33169
1.47134
0.936974
1.46941
1.00856
0.608578
1.31705
1.31998
1
1
1
0.594019
1
0.601762
1.42243
0.93435
1.31375
0.92449
1
1.31711
1.18763
1
1
1.4707
1
1.16362
1.36959
1
1
1.43144
1.05321
0.603
0.999572
0.999896
1
0.999303
1
1.47648
0.91923
1.43665
1.10591
1
1
1
1
1.00059
1
1
1.37007
0.999638
1.47081
1.37285
1.04366
0.614498
1
1
1
1
1.47084
1.00005
1.37935
1
1.47043
1.47334
1.05769
1.47008
1.10671
1.4722
1
1.2904
0.658532
1.00075
1.46768
1.36665
1.05638
1.47022
1.3219
1.3775
1.47168
1
0.889751
1.06889
1
1.4659
1.22418
1.47156
1.00003
1
1
0.636331
0.999648
1.4705
1.33857
1
1.14985
1
1.00528
1.01347
1
1.37468
1.47128
1
1
1
1.37515
1
1.179
1.10379
1.28605
1
1.39403
1
1
1
1
1
1
1
1
1
1
0.622069
1
1.45062
0.598961
1.24638
0.998542
1.00057
1
1.20985
1.00001
1.27963
1.40178
1
1.00116
1.47319
0.891756
1
1.01901
1.46235
0.91966
1
1.46942
1.47081
1.39358
1
1.39962
1.47026
1.36392
1
1.17949
1
1.00006
1.4709
1
1.47051
1.06944
1.38225
1
1
1.47543
1.03421
0.649071
1
1.47135
1.30992
1.34094
1
1
1.47089
1.47692
0.998222
1
1.43034
0.996976
1.43256
1.00006
1
1
1
1
1.18428
1
1.36814
1.47008
1.31051
1.37406
1
1.00223
1
1
1.47145
1
1.37445
1
1
1
1
0.999999
1
1.05665
1.21003
1
1
0.598446
1
1.38512
0.640556
1.4737
1
1.23197
0.999752
1.47096
1.2731
0.649838
1.23143
1.00003
1.3972
1.4707
1
1.25468
1.46792
1.37267
0.998389
1.47234
1.32881
0.63962
1
1
0.998029
1
1.47127
1
0.644542
1.38253
1
1
1.41526
1
1.47067
1
1.4711
1
0.660724
1
1
1.47221
1.07865
1.00466
1
1.00278
1.39413
1.47436
1
1
1.46811
0.999999
0.713463
1
1
1
1.47258
1
1.38521
1.27275
1.0218
1
1.3247
0.999388
1
1
1
1
1
1
0.696669
1
1
1.32726
1
1.47631
0.999806
1
0.610133
0.61833
1
1.36429
1.07859
0.605453
0.600732
1
1.37787
1
1.46858
0.574582
1.00133
1
1
0.999515
1
1
1
0.999918
1.16289
1.39494
1
1
1.39417
1.24578
1
1.41947
1.00005
1.46417
1.16275
0.999535
1
1.31464
1
1.47366
1
1.40498
1.38086
0.996828
1.47355
0.999738
1
1
1
1
1
0.88811
1.47052
1.00004
1.00003
0.581128
0.999988
0.613211
0.598908
1
1.47035
1.47031
1.47121
1
1.47179
1
0.618941
1
1
1.38254
0.803099
1.38078
1
1.47181
1
0.955286
1.47155
1
1
1
1.47633
1
1.45503
0.605601
1
1
1.23834
1
1
1.22981
1
1
1.4725
1
1
1
1
1
1.00041
1.37994
1
1.47171
1.3715
0.603588
1.18759
1.00955
1
1
1.35674
0.99901
1
1
1.39008
1.06788
1.29517
1
1.46966
0.621496
0.999601
0.999446
1
1.37696
1.00003
1.01039
1.3825
1.3134
1
1
1.38862
0.67496
0.595756
1
1.46919
1
1.46866
1
1.25278
1
1
1.33895
1.2634
0.617499
1
0.99848
1
1
1.02583
1.16412
1.3874
1
1.47665
1
1
1
1
1
1
1.0677
0.605301
1
1
1.00255
1
1
1
1
1
1.47191
1
1
1.47195
1.38215
1.33286
1
1
1
0.810697
1.47184
1.286
1
1
1
1
1.47089
1
1
1
1.47754
1
1
1.29768
1.49112
1.00257
0.732171
0.999652
1.29519
1.47323
1
1.20898
1
1
1
0.593395
1.00284
0.573999
1
0.587371
0.59013
1
0.603267
1
1
1
1.1696
1
1.46788
1.46967
1.00097
1.21515
1.00122
0.598389
0.755502
0.858686
1
1.31445
1.47109
1.31889
1.37431
1.34483
0.848693
1
1.34756
1
1.45889
1
1
1
1.00961
1
1
1
1.47168
1
0.599887
1
1.38093
0.605443
1
1
1.37317
1
1.31199
0.999557
1
1
1.34052
1.41357
1
1.4424
1
1
1.01524
1
1.20644
1
1
0.60399
1
1
1.00201
0.999999
1.31957
1
1.00003
0.608525
1
1
0.60769
1.00089
1
1.47264
0.603925
1.47452
0.590433
1.47098
1
1
1
1
1
1
1
1
1
1
1
1.34431
1
1.34692
1.47105
0.603625
1
1
1
1
1
1
1.3417
1
1
0.621711
1
1
1.4725
1
1
1.177
1.34282
0.594688
0.595281
0.689569
0.726773
1
1
0.588519
1.00029
1.44063
0.99685
1
1
1.4706
1
1
1
0.764073
1.00001
1.16723
1
1
1.18108
1.41597
1
0.606726
1
1
1
0.996614
1
1.36675
1.37355
1
0.603
1
1.22508
0.603493
1
0.862951
1
0.996195
0.59338
1
1
1
0.996028
0.589781
1
0.586455
0.998404
1.21632
1.43139
0.593399
0.590474
1
0.990569
1
0.998642
1
1.32856
1.32201
1
0.979539
1.47067
1.32419
1
1
1.37238
1
1
1.00001
1
1.47074
1
1
1.01865
1
0.99857
0.669612
1
1
1
1
1
1.35691
1.00922
1.00002
1
1
1
1
1
1.00002
1
0.604248
1.07079
0.998619
1.47633
1.4681
1
1.01554
1.47073
1.17339
1
1
0.589605
1.43575
1
1.47118
1
1.42691
1.3229
0.602584
1
0.599357
0.999774
0.999698
1
0.603117
0.59318
1
1
1.33195
1
0.999998
0.590007
1
1
1
1.14928
1
0.607146
1.46955
1
1
1
1
1.33425
1
1
0.999713
1.35717
1
1
1
1.03149
0.621945
1
1.47152
1.36805
1
1.32949
0.999999
1.00004
1
1
1.44023
0.98652
1
0.609777
1.25665
1
1
0.998461
1
1
1.00404
1
1
1.00003
1
1.4711
1
1
1
1
1
1
1
1.17701
1
1.29435
1
1
1.37165
1
1
1
1.32572
0.999787
1.05117
1
0.997682
1
1
1
1
1.47101
1
1
1.46905
0.61317
1
1
1
1
1
1
1.32994
1
1
1.33818
1.47349
1
1
1
1.47167
1.37128
1
0.999718
1.33583
1
1
1
1.00002
0.600177
1.02977
0.996332
0.995672
1
1
0.627894
1.47351
1
0.588638
1
1.37497
1.36315
0.59289
0.999403
1.39127
1.47172
1.41195
1
1
0.895729
0.999574
1.39227
0.589419
1
1
1
1.05974
1.40531
0.600658
0.997253
1
1.47181
0.600239
1
0.999749
0.60921
0.93572
0.999138
1
0.999811
1
1
1
1
1
1
1.00011
1.33733
1
1
1.36467
1
1
1
1.37217
1
0.600233
1
1
1
1.16117
1
1
1
1
1
0.757846
1
0.60163
1
1.38782
1.00006
0.849416
0.851815
1
1.00399
1.21491
1
1
0.600063
1.38347
1.38917
1.37052
1
0.582057
0.610059
1
1.3805
1
1
1
1
1
1.00003
1
0.619846
1.26387
1
1
0.598098
0.962257
1.00001
1
1
1
0.598465
1
0.684217
1
1
1.47404
1
1
0.603483
1
1.47081
1
0.601852
1
0.607778
1
1.00804
1.32624
1.44293
1
1
1.47215
1
1
1.07634
0.996907
1
0.99827
1
1.40689
1
0.584992
1.00002
1.47058
0.998856
1
1
0.775365
1
0.999051
0.585992
1.38118
1.14093
1
1.00001
0.89235
1
1
1
0.778399
1
1
1
1.35201
1
0.603608
0.999999
1
1
1
0.604564
1.47112
1.45216
0.59304
1
1.29067
1
1
1.32809
1.47201
1.34338
0.601236
0.997789
1
1
1.37125
1
1
1
1
1.47422
1
1
1
1.43194
1
1
1.40455
0.607648
1
1
1
0.613285
1
0.999999
0.999999
0.999707
1
1
1
1
0.999914
1
1.47128
1.47147
1.4372
1.47189
1.47034
1.3696
1
1.37277
1
1.46845
1.31864
1
0.999824
0.607872
1.34736
0.999894
1
1
1
1
0.969715
1
1.07641
1
1
1
0.82965
1.40584
1.47211
1.3421
1.40751
1
1
1
1.47067
1
1.02518
0.997343
0.57726
1
1.00002
1
1
1
1
1
1.40689
0.600061
1.40452
1.37601
0.995237
0.605105
1
1
1
1.4248
0.594329
1.35216
0.599356
1.469
1.33114
0.607156
1.21918
1.02418
1
1.3973
0.771816
1
1
0.60657
1
0.587252
1
1.36802
1.303
0.745619
1
1.47283
0.57817
1
0.619333
1
1.47189
1
1
1.45981
1
0.8136
1
0.999663
0.587693
1.4688
0.999493
1
0.598068
1
1
1
1
1.24482
1
1.35613
1
1
1.48081
1
1
1.47154
1
0.602261
1
0.589373
1.00001
1
1
1
1
1.3633
1.27021
1.38724
1
1.32419
1.36157
0.597157
0.606851
1
1
1.34438
1
0.603312
1
0.95637
1
1
1.47083
1
1.01241
0.610945
1.48013
1
0.60443
1
1
1.34503
1.33322
1
1.00003
1
0.999644
1
1
0.590314
0.999427
0.594518
1
1
1
1.33703
1.47278
1.4713
1
1
0.58506
1
0.999909
1
1
1
0.99982
1.33371
1.47197
0.587151
1.40866
1.39034
0.640408
1.47159
1.00004
0.630792
0.989592
1
1
1.42523
0.590757
1.27448
0.596978
1.38967
0.997254
0.583619
1.39448
1
1
1
1
1.32088
1.47145
0.608145
1
1.00002
0.611968
1.00003
1
0.616491
0.594609
1.30224
1.2931
0.998446
1.47129
1
1.00403
0.793985
0.60621
1.37501
1.48665
1
1.3901
1
1
1.46628
1
1.34754
1.47142
1
1
1
1
1.43271
1.3367
1.1938
1
1
1.25237
1.46304
1.472
1
1.43476
1
1
1
1
1
0.606291
0.816556
0.61031
1
1
1.47084
1
1
1.41576
0.61863
1
1.46596
1.33641
1.38794
0.587766
1
0.578517
1
1
1.47091
0.999973
1.47176
1.35749
1
0.590973
1
0.999799
1.29753
0.587112
1
1
1
0.799845
1
1
1.47859
1
0.585948
1.38002
1
1
1
1
1
1.32933
1.1025
1
1.47118
1
1.03639
1
0.997341
1
1.47128
1.45567
1.32066
1.40679
0.999951
1.47182
1
1.43323
1.47163
1.32829
1
1
0.610388
1.47247
1
1
1.47731
1.38766
1.01512
1
1.47173
1
1
1
1.45707
1.00048
1.12628
1.09963
1.41492
1.31671
0.6842
1
1
1
1
1.00001
1.16331
1
1
1.38414
0.598096
0.999969
1
1.47046
1
0.999994
0.999999
1.43692
1.47177
0.877215
1
0.593612
1
0.972495
1.4031
1.39275
1.19476
1
1
1
0.599429
1
1
1.4013
1.04842
1
1
1
1
1
1
1
0.999942
1.47184
1.00002
1
1
1
1
1.29944
1
1.2238
1
1
1.38844
1.41538
0.603645
0.998793
1
1
1
0.615334
1.47178
1.33254
1
1
1
1
1
1
1
1
1.47183
1.46555
0.60645
1.05032
0.612245
1
0.615495
1
1.47148
1.09607
1
1
0.696936
1
1.38846
0.783075
0.996496
0.598383
1
1
1.4701
1
0.99703
0.5945
1.4737
1.47661
1
1
1
1
1.33445
1
1
1.3178
1
1.47266
1.00006
1
1
0.600851
1
1
1.47045
0.608147
0.765454
0.603996
1.47176
0.999306
1
0.999943
0.591759
0.59458
0.988841
1
1
1.47172
1
1.00679
1
1
1.47089
0.608644
1
1
1.00014
1.47206
1.00013
1.45599
1
1
1
1
0.7111
1
0.774126
1
1
1.46686
0.608767
1
0.745237
0.774903
1
1
1.47122
1
1
1
1.44919
1.3242
1
1.45768
1.47222
0.743885
1.38712
1.44659
1
1
1.4658
0.999999
1
1
1
1
1.47862
1.38684
1
1
1
1.4711
1.0002
1
0.609522
0.702828
1
1.00003
1.174
1
1
0.872117
0.578892
1
1
1
1.41456
1.35783
1.36635
1
1
1
1
0.598978
1
1.46371
1
1.29483
0.606351
1.47751
1
1
1
0.584763
1
1.47304
1
1
0.585667
1.14431
1
0.999674
1.47455
0.607895
0.603518
1
1.47291
0.599012
0.608495
1
0.614789
1
1
1
1
0.58305
1
1
1
1
1.47102
1
1.31655
0.599725
1
1
1
0.598459
1.40592
1
1
0.996762
1.20389
1
1.39936
1.4726
1
1
0.697062
0.594994
1
1
0.589962
1.11922
1.21546
1
1
1.47472
0.997371
1
0.9979
1.47061
1
1
1
1
1
1
1.46987
1
1.16456
1.0115
0.67782
1.3637
1
1.32158
1.47178
1
1
1
0.881776
0.600606
1
1.22348
1
0.999413
1
1
1
0.999999
1
1.00753
1.00076
1.33014
1.42653
1
1.36707
1
0.575528
1
0.998741
0.999772
1
0.602004
1
0.6049
1
1.39138
1.47229
0.601062
1.41924
0.592582
0.995983
1.0234
0.604246
1.33778
1
1
0.998416
1
1
1
1.00006
1
0.604875
1
1
1
1
1
1.41589
0.786755
1
1
1
1.03862
1
1
1
1.27556
0.735999
1
1
1
1.00936
1.47226
1
0.602759
1
1.33778
0.872034
0.579589
1
0.616729
1
1
1.36087
0.998259
1.42958
1
1.00889
1
1
1.47253
1
1
1
1
0.999542
1
1.36502
1.32725
1.47175
0.597387
1.36591
0.997081
1.33964
1
1
0.596305
1
1
0.592543
1.4759
1
1
1
1
1
1
0.607447
0.594907
1
1.46948
1
1.19029
1.43288
0.602714
1.39403
1
1
0.645409
1
1
1.37432
1.32026
1.14158
1
1
1.0017
1.4705
0.595514
0.601211
1.47312
1.39706
1.32557
1.18298
1
0.879078
1
1
1
1.43842
1.4702
1.46857
1
1
1.47331
0.607556
1.4213
0.604056
1
0.605673
1
0.605741
1.47041
0.605153
1
0.953939
0.646605
1
1
1
0.82747
1.09971
1.44001
1.47169
1.47015
1
1
1.47207
1
1
1.47075
1
0.586784
1
0.602254
1
1.47179
1
1
0.983366
1.31696
1
0.999032
0.583345
1.33621
1.00001
0.605497
1.08977
1
1
1.35309
1.4724
1.47265
1
1.32987
1.09759
1
1.00045
1.39143
1
1
1
1
1.43552
1
0.638366
1.4703
0.601654
0.613932
0.795787
1.33442
1.02467
1.28374
1
1.46917
0.997381
1.00003
1.47025
1.47323
1
1.47114
1
1.45518
1
1.47103
1
1.00004
0.999963
1.4722
0.59828
0.601126
0.997934
0.999999
1
1
0.594014
1
1.28062
1
0.615207
1
1.15055
1.40123
1.47698
1
1
1
0.999468
1
1.47143
1.34532
1
1.16308
1.47218
0.830586
1.34281
1.00049
0.582542
1.10046
0.590734
1
1
1.07792
1.47191
1
1
1.00713
1
1
0.600155
1
0.778128
1
1.37507
1
1
0.585597
1.07704
1.03662
0.999799
1.46988
1.38611
0.745666
0.998069
0.603799
0.5787
0.602597
1
1
1
0.999071
0.716082
0.594519
1
1.39022
0.999751
1.38295
1.43424
1.47199
1.31344
1
0.604225
1.4712
0.610093
1
1.40058
1.47312
0.996621
0.793381
1.40428
1.32615
1
0.609168
1
1
1.47816
1
1.0261
1.47237
1
0.615376
0.613336
1
1
0.588943
0.565809
1.44034
1.00003
1
0.606827
0.580655
1.47783
1.45046
1.37332
1.46973
1.09437
0.957695
1.16298
1.46822
1.3724
1
1.22775
1
0.580972
0.841217
1
0.609576
1.35519
1.02287
1.36827
1
1.46658
1.47144
1
1.47245
1.37537
0.597364
1.40421
1
1.47503
1
0.730072
0.596932
1.47148
1
1
1
0.605712
1.47095
1.33293
1
0.601785
1
1
0.609702
1
0.602251
1.47162
1
0.787759
0.560556
1
1
1.2677
1
1
1
1.08006
0.607447
1
1.00001
1
1.4762
0.606358
1
1.47185
0.598
0.59214
1
1
1.4686
1
1.16819
1.00001
1.42633
0.61311
1
1
0.594779
0.775322
0.601261
1
1
1
1
1.46602
0.594934
1
0.60394
1
1.44808
1
1
0.912432
1
1
0.805256
0.999696
1.00005
1
0.60415
0.608343
1
1
1
1
0.767779
1.33564
1.47129
1
0.602622
0.578282
0.874766
0.608642
1
0.781588
1
0.593817
0.95811
1
1
0.601197
1
1.4056
1.46011
0.603112
1
1
1
1.47254
1
1.03989
0.814056
1.14556
0.60639
1.18426
0.604133
1
1
0.693031
0.886698
1
1.00683
1
1
0.579884
1
0.913294
1.00936
0.602948
1
1.37942
0.74455
0.843651
1
1
1
0.600683
1
0.601278
0.593251
1
0.81336
0.596638
1.04305
0.736339
0.597078
1.46737
1
1.38709
1.25294
0.688934
1.38522
0.598249
0.999064
1.47258
0.999999
1
1.40618
1
0.695608
1
1.04414
1
1
1.41218
1
0.728627
0.787865
1.47098
0.910939
1
0.737627
1.47085
1.47138
0.875691
1
1.47028
1.12165
0.805241
1
1.01753
1
0.599023
1.19918
0.741663
0.69149
1
1
0.604256
1.39908
0.931647
0.619563
0.596926
0.83866
1
0.9795
1.4721
1.46416
1
1
0.999999
0.604611
1.18977
0.999998
1.29237
1.42508
0.584805
1.00002
1.0684
0.838018
1.28237
1.41802
1
1.04119
1
1.00005
0.604164
0.809917
1
1
0.788343
0.616837
1.00819
1
1
0.581971
1.18648
1
1.45921
1
1.00407
1.25507
1
1.46084
1
1
1.47074
1
0.592945
1.47217
0.684301
1.12552
1
0.60786
0.999918
1
1
1
0.771762
1.02619
0.59805
1.34306
1.47148
0.597295
1
1
1
1
1
0.932667
0.581314
1.01202
0.610796
0.596377
1.04937
1
0.999806
1.11567
1
1
0.609621
0.967482
1
1
1.11613
1
1.47175
1
1.47257
1.06921
0.989439
0.607488
1
1
0.602553
1
1
1
1
1.27119
1.04426
1
1
0.59795
1
0.999999
1
1.2801
1
0.602983
1.38904
1
1.00001
1
1.46947
0.601371
0.850041
0.605115
1.31538
1.47695
1
1
1.40562
1
0.568741
1
1
1
1
1
0.741705
1
1.4691
1
1
1.12254
1.47178
0.616846
0.846458
1
1.38845
1
1
1
1
1
1.47161
1.47265
0.564306
1.36232
0.593883
1
1
1.38836
1
1.47391
0.974648
1.02694
1.04106
1.43174
0.998805
1.28081
0.602276
1
0.60293
0.957559
1
1.47182
1
1
0.604642
1.47219
1
1.47221
1
1
1
1
1
1.00001
0.595449
1.47088
0.813963
1.4709
1
0.604946
0.614792
0.693898
1.46629
1.37194
0.938591
1
0.747698
1
1.14568
1
1.43641
0.590589
0.607429
0.828371
1
1.47233
1
1.04906
0.654577
1
1.47153
1.40289
0.998851
1
1.47202
0.596292
1.47116
1.36458
1.47633
0.599107
1.06146
1
1
0.606572
1
0.767092
0.78663
1
1
1.45589
1
1.44749
1.06038
1
1.01162
1.47844
1
0.597909
1
0.744888
1
1
1.32809
1
0.755342
1
0.60797
1.0369
0.918103
0.571872
1.38808
1.37953
1.47126
0.603724
0.677193
0.995661
0.999999
1
0.651581
1.36031
0.598938
0.99997
1
1.36823
1.47266
0.867079
1
0.600223
0.695383
1.28092
0.94837
0.598143
0.999999
0.597981
1.08465
0.599975
1
1.00006
0.796572
1.46989
1.47199
0.815787
0.999588
1
1
0.711565
1
0.604593
1
0.561425
0.599752
1
1
1.00001
0.60004
1.37171
1
1
1.00007
1.00004
0.580207
1.47162
1.40099
0.999999
0.600584
1.47141
1
1.06656
1
1
1.47573
0.601987
1
1
0.589554
0.725906
0.599282
0.598813
1
0.683135
0.997088
1.06665
0.609713
1
1
1.12852
1
1.36127
1
1
1.3205
0.649569
1
0.580163
1.10081
1.47153
1
1
0.615185
0.593054
0.600382
0.723583
0.591131
1.31392
0.999406
1
1
1
1
1.47254
0.595815
1
0.904121
1
0.99876
0.99994
0.726976
1.09877
1
1.3884
1.4719
1
1
1.40669
1.00004
0.999999
1.40595
0.606131
1.46189
0.999999
0.588617
1.47182
1.00005
1
0.784601
1
0.604021
1
1.47035
1
1
1.39285
1
1
1.47709
1
1
1
1.4698
1
0.729121
0.67385
1
0.60274
1.37222
1
1
0.938449
1
1.42039
1.23602
1.32404
1
1
0.638811
1
0.592796
1.31644
1.47102
1.47136
1
1.47102
0.600498
1
0.593149
1.32878
1.42615
1.47142
1.47066
0.747924
0.596662
1
1.06868
1.47176
1.4702
1.38624
0.698094
1.14886
1
1.31529
0.718665
1
1
1
1.00002
0.865192
1
1.47434
1
1
1
1
1
1
1.00006
1.39915
1
1.40332
1.3041
0.606271
1.47156
1.00006
1.19876
1
1.37617
1
0.609899
1
1
1
1
1.34634
1
0.601144
1.40241
0.608323
1.47151
1.32755
1.21431
1
1.08792
1.19156
0.995695
0.575025
0.740422
1
0.999999
0.896645
1
0.569403
1.47134
0.597497
0.895577
0.829878
1
1
1
1.01216
1
1
0.58485
0.99642
1.46968
1
1.36829
1
0.6037
1
1
1.34735
1.35818
0.597662
1
1.47243
1
0.781897
0.605834
1.47006
1.35846
1
1.07669
1.47172
0.9999
1
1.16267
1.35429
1.38724
0.996125
1
0.999998
1.34641
1
1
1
1.37094
1
1
1
1.47175
1
1
0.622684
1
1
1
1.47052
1
1
0.82406
1.12022
1.37079
0.729607
1
1.47132
1
1.16435
1
1.46999
0.999253
1.39937
1
0.607695
1
1.31372
1
1
1.36537
1.00001
1.47185
1
1.47632
0.669133
0.614533
1.47063
1
1.39448
1
1.47147
1
1
1.00005
1.47115
1.33622
1.08718
1.47225
1
0.581946
1.47176
0.839422
1
1.25458
1
1.43502
1
1.35938
1.47237
1
0.605752
1
1.4212
1
0.996448
1
1
0.997962
0.719918
1.35843
1
1.41892
1
0.844692
0.621819
1.3614
1.41017
0.674784
1
1.47061
1.46941
1.4701
0.66413
1.41124
0.645107
1.47076
1.47217
1
1
1.44443
1
1
1
1
0.599731
1
1
1.47084
1.42004
1
1.34706
1
1.46968
1.47173
1
1.34377
1
0.601795
1.37496
1.34574
1.1006
0.605393
1.38354
1
1
0.601888
1
1
1.44016
1
1
0.755965
1
1.47183
1.00008
1.30077
0.62291
1.47112
1
1.47212
1.36948
0.873149
1
1.1517
0.732499
1.46902
1.28885
1.45165
1.47507
0.997493
1.47182
1.4724
1.39966
1.46455
0.999698
1
0.578768
1
1.46962
0.803226
1.37116
1
1.36991
1
1
1
1
1
1.3685
0.607184
0.603836
1.47333
1.47071
1
1
1
1
1
1.36412
1.44013
1.39762
0.988027
1
1
1
1.00001
1.36464
1.43618
1
1.4703
1.47178
0.603375
1.2983
1
1.33312
1.41764
1.32948
0.998018
1.36778
1.47102
1
1.43561
1
1
1
1
1
1
1.47214
1.47115
1.366
1.40455
0.611678
0.688876
1.39036
1.39784
1
0.592221
0.918703
1
1.19078
0.595185
1
0.999449
0.998243
0.61134
1
1.47149
1
1
1
1.4714
0.916211
1
1.47122
1.45826
1
1.47009
1
1
1.38391
1
0.607188
1
1.47536
1
1
0.60091
1
1.39885
1
0.604044
0.592245
1
1.25957
1
0.60391
0.851
1
1.40602
1
1
1
1.41586
1
0.599865
1.06722
1.47059
1.32854
1.47229
1.01609
1.36731
1.47152
1
1.00002
1
1
1
1.40161
1
0.999298
1.35603
1
0.600181
1
1.40408
1.19203
1.03833
1.1887
1.03386
1.47977
0.685552
1.40102
1
0.604048
1
1.40332
0.912989
1.40293
1.44779
1.46434
1
1.47151
1.40337
1.40023
1
1.00003
1
1
1.47022
1.29898
1
1
0.598936
1
1
1.47112
1
1.40022
1.47104
1.47505
0.870367
1.47112
1.4625
0.984004
0.999912
1.47122
1.45269
1
1.34232
0.79056
1.44207
0.958015
1.45754
1
1.38387
1.473
1
0.604378
0.905758
0.666544
1
1.04909
1
1.47309
1
1
0.996266
1
1.19713
1.44694
1
1
1.36436
1
1
1.29529
1.30365
1.36913
1.47332
1.47172
1
1.47322
0.694838
1.47139
1
0.969264
0.604642
1
1
0.726739
1
1.11435
1
1.39172
1
1.36842
1.26426
0.609443
1
1
1
1
1
1.47122
1.01142
1
1.47043
1
1.47135
1.38234
0.999999
1
0.935927
1
0.597454
0.600708
0.699014
1.09191
1
0.999969
0.615712
1.00003
1
1.43609
0.910621
1.36147
1.39374
0.999999
1
1
1
1
1.47191
1.39301
1
1.47205
1
1.47209
1.28086
0.995985
0.999999
1
1
1.23531
1
0.947138
1
1.29092
1
1
1.38407
1
1
1
1
1
1.36324
0.59977
0.995782
1.34991
1.39927
1
1.38437
1
1
1
1
0.645526
1
1.47177
1.32313
1.47127
1.47077
0.921698
1
1.33826
1.10858