/*--------------------------------*- C++ -*----------------------------------*\
  =========                 |
  \\      /  F ield         | OpenFOAM: The Open Source CFD Toolbox
   \\    /   O peration     | Website:  https://openfoam.org
    \\  /    A nd           | Version:  12
     \\/     M anipulation  |
\*---------------------------------------------------------------------------*/
FoamFile
{
    format      ascii;
    class       volScalarField;
    location    "7.83";
    object      rho;
}
// * * * * * * * * * * * * * * * * * * * * * * * * * * * * * * * * * * * * * //

dimensions      [1 -3 0 0 0 0 0];

internalField   nonuniform List<scalar> 
22702
(
1.40001
1.40001
1.25341
1.40001
1.44954
1.40001
1.8399
1.40001
1.40001
1.05113
1.83868
1.83889
1.40001
1.84122
1.273
1.40001
1.40001
1.40001
1.83859
1.40001
1.84214
1.40001
1.83832
1.02747
1.84068
1.08329
1.40001
1.83939
1.01166
1.02299
1.40001
1.83768
1.40001
1.40001
1.40001
1.80975
1.84102
1.83841
1.40001
1.40001
1.08395
1.40001
1.62327
1.40001
1.83778
1.40001
1.40001
1.40001
1.40001
1.01922
1.40001
1.02739
1.40001
1.8387
1.40001
1.83658
1.40001
1.40001
1.40001
1.40001
1.03765
1.40001
1.40001
1.01182
1.40001
1.03324
1.40001
1.40001
1.40001
1.05414
1.40001
1.842
1.6714
1.40001
1.84214
1.86375
1.03132
1.84389
1.02249
1.40001
1.8387
1.0347
1.83575
1.83515
1.40001
1.40001
1.40001
1.40001
1.31511
1.06342
1.83881
1.40001
1.40001
0.980516
1.40001
1.84246
0.993012
1.40001
1.40001
1.40001
1.40001
1.62194
1.83867
1.09389
1.40001
1.40001
1.50558
1.40001
1.03361
1.40001
1.84417
1.83887
1.40001
1.40001
1.03227
1.02989
1.06032
1.40001
1.40001
1.40001
1.40001
1.40001
1.30132
1.40001
1.77881
1.44275
1.84395
1.40001
1.84398
1.83863
1.84119
1.83961
1.40001
1.08206
1.40001
0.980587
1.40001
1.40001
1.40001
1.40001
1.83847
1.40001
1.40001
1.40001
1.40001
1.8388
1.40001
1.42579
1.40001
1.40001
1.40001
1.40001
1.01841
1.40001
1.41071
1.40001
1.0244
1.40001
1.40001
1.40001
1.83801
1.40001
1.83944
1.00134
1.04231
1.84314
1.84186
1.40001
1.47515
1.65033
1.40001
1.83673
1.02031
1.81043
1.40001
1.40001
1.40001
1.40001
1.84159
1.77307
1.40001
1.83864
1.01976
1.83666
1.40001
1.01838
1.40001
1.02149
1.05787
1.39979
1.40001
1.40001
1.83986
1.40001
1.40001
1.84096
1.40001
1.83749
1.83894
1.04771
1.40001
1.40001
1.02753
1.84161
1.40001
1.40001
1.40001
1.84184
1.40001
1.01641
1.40001
1.40001
1.84139
1.84204
1.84156
1.40001
1.40005
1.40001
1.40001
1.40001
1.84192
1.40001
1.02735
1.85727
1.84142
1.84094
1.40001
1.40001
1.40001
1.01546
1.84234
1.61184
1.40001
1.84327
1.02957
1.02335
1.84354
1.84499
1.40001
1.84878
1.03885
1.79106
1.40001
1.40001
1.40001
1.40001
1.84135
1.40001
1.66812
1.44203
1.40001
1.40001
1.84062
1.01391
1.17511
1.40001
1.84464
1.03091
1.84091
1.40001
1.40001
1.40001
1.40001
1.40001
1.40001
1.40001
1.02514
1.17977
1.02005
1.84134
1.40001
1.40001
1.40001
1.40001
1.78496
1.40001
1.02216
1.40001
1.01554
1.02408
1.84261
1.04277
1.8421
1.40001
1.40001
1.40001
1.39774
1.02322
1.01826
1.4
1.40001
1.01361
1.40001
1.83871
1.08538
1.40001
1.40001
1.8398
0.993799
1.40001
1.83979
1.03306
1.84102
1.40001
1.01463
1.39775
1.40001
1.40001
1.40001
1.0318
1.40001
1.40001
1.4
1.40002
1.40124
1.67426
1.40001
1.06492
1.40001
1.40001
1.40001
1.40001
1.40001
1.40001
1.40001
1.8399
1.40001
1.83829
1.40001
1.40001
1.40001
1.03776
1.40001
1.83891
1.04035
1.40001
1.75899
1.40001
1.40001
1.83768
1.40001
1.40001
1.40001
1.82679
1.40001
1.40001
1.82601
1.83919
1.40001
1.4963
1.40001
1.40001
0.993308
1.40001
1.40001
1.40001
0.963674
1.40001
1.40001
1.40001
1.40001
1.03901
1.40001
1.40001
1.40001
1.40001
1.40001
1.03414
1.40007
1.84056
1.40001
1.39999
1.84212
1.84311
1.40001
1.40001
1.05519
1.19819
1.83751
1.40001
1.40001
1.40001
1.84139
1.04777
1.40001
1.8397
1.40001
1.40001
1.11337
1.10827
1.40001
1.02545
1.03838
1.40001
1.40001
1.40001
1.40001
1.40001
1.40001
1.40001
1.84241
1.50595
1.81358
1.01776
1.29363
1.83747
1.40001
1.84108
1.83799
1.03245
1.15966
1.40001
1.01948
1.40001
1.84739
1.40001
1.40001
1.40001
1.40001
1.84138
1.40001
1.40001
1.40001
1.40001
1.40001
1.40001
1.40001
1.56468
1.83821
1.40001
1.84159
1.40001
1.40001
1.03136
1.40001
1.40001
1.40001
1.40001
1.84193
1.73701
1.40001
1.40001
1.02614
1.84214
1.84139
1.40001
1.84132
1.84121
1.84192
1.40001
1.22312
1.40001
1.84219
1.38699
1.84171
1.40001
1.01606
1.39887
1.83798
1.40001
1.40001
1.40001
1.40001
1.03234
1.8426
1.80142
1.40001
1.84407
1.84208
1.83795
1.40001
1.60633
1.84176
1.40001
1.40001
1.70898
1.46115
1.84129
1.32273
1.84137
1.40001
1.84155
1.84183
1.84178
1.84273
1.40001
1.83416
1.30123
1.27909
1.40001
1.4
1.40001
1.40001
1.84406
1.40001
1.40001
1.40001
1.40001
1.40001
1.83808
1.40001
1.40001
1.39592
1.84148
1.78961
1.40001
1.76952
1.40005
1.40001
1.40001
1.84321
1.40001
1.3976
1.40504
1.40001
1.84203
1.40001
1.84097
1.40001
1.40001
1.72917
1.40001
1.84097
1.40003
1.40001
1.84097
1.40001
1.84175
1.40001
1.40001
1.40001
1.84111
1.40001
1.84108
1.40001
1.8414
1.83706
1.84112
1.83763
1.40001
1.83888
1.84819
1.40001
1.02191
1.81293
1.71996
1.40001
1.84112
1.40001
1.00617
1.02563
1.40001
1.40001
1.40001
1.40001
1.40001
1.01238
1.40001
1.84142
1.50622
1.84315
1.40001
1.40001
1.40001
1.40001
1.40001
1.84165
1.40001
1.84391
1.66236
1.15828
1.40001
1.40002
1.52881
1.51216
1.40001
1.40001
1.55906
1.40001
1.02058
1.84217
1.84207
1.40001
1.40001
1.40001
1.83701
1.40001
1.40003
1.84243
1.8427
1.35005
1.40001
1.40001
1.0275
1.80146
1.40001
1.40001
1.40001
1.40001
1.40001
1.84176
1.83857
1.40001
1.84219
1.83845
1.84104
1.40001
1.40001
1.40001
1.40001
1.0831
1.83796
1.40001
1.40001
1.8025
1.83975
1.40001
1.81553
1.84007
1.40001
1.40001
1.40001
1.40001
1.40001
1.84215
1.40001
1.40001
1.40001
1.40001
1.84144
1.40001
1.83471
1.02567
1.40001
1.03468
1.40001
1.40001
1.40001
1.39666
1.01817
1.39905
1.40001
1.40001
1.40001
1.46106
1.40001
1.40001
1.26629
1.40001
1.40001
1.40001
1.40001
1.40001
1.40001
1.40001
1.4
1.32361
1.4
1.40001
1.39761
1.40001
1.02786
1.40001
1.40001
1.40001
1.40001
1.73152
1.40001
1.40001
1.40001
1.40001
1.02488
1.40001
1.40001
1.81513
1.83839
1.4
1.40001
1.40001
1.28712
1.40001
1.40001
1.40001
1.40001
1.40001
1.40001
1.34909
1.39892
1.84184
1.40001
1.40001
1.40001
1.83965
1.2771
1.40001
1.40001
1.40001
1.83751
1.84
1.40001
1.40001
1.40001
1.40001
1.40001
1.40001
1.40001
1.40001
1.40001
1.03613
1.40001
1.40001
1.8403
1.01428
1.40001
1.83991
1.40001
1.02055
1.40001
1.40001
1.03515
1.40001
1.40001
1.40001
1.40001
1.40001
1.40001
1.40001
1.8329
1.84018
1.40001
1.40001
1.40001
1.40001
1.80341
1.40001
1.53902
1.02381
1.40001
1.40001
1.40001
1.40001
1.40001
1.40001
1.40001
1.43777
1.40001
1.40001
1.62688
1.40001
1.40001
1.40001
1.76581
1.40001
1.40001
1.40001
1.40001
1.03061
1.40001
1.40001
1.01991
1.02884
1.40001
1.40001
1.84215
1.40001
1.392
1.40001
1.40001
1.40001
1.70988
1.04007
1.40001
1.03513
1.40001
1.18113
1.40001
1.40001
1.40001
1.84155
1.40001
1.40001
1.84225
1.40001
1.40001
1.40001
1.84228
1.40001
1.40001
1.842
1.40001
1.40001
1.03248
1.40001
1.541
1.40001
1.40001
1.83763
1.83793
1.69461
1.79674
1.40001
1.02259
1.40001
1.40001
1.82244
1.40001
1.03627
1.40001
1.40001
1.40001
1.84185
1.40001
1.40001
1.40001
1.40001
1.66251
1.40001
1.82728
1.84557
1.00092
1.40001
1.40001
1.09201
1.0869
1.40001
1.40001
1.40001
1.71647
1.73546
1.40001
1.40001
1.40001
1.40001
1.40001
1.40001
1.40001
1.58094
1.83614
1.40668
1.40001
1.83663
1.06084
1.40001
1.40001
1.40001
1.64451
1.40001
1.48551
1.40001
1.80371
1.8397
1.40001
1.01593
1.40001
1.83609
1.40001
1.40001
1.8412
1.81434
1.40001
1.84043
1.40001
0.981553
1.40001
1.40001
1.40001
1.84886
1.83367
1.78865
1.40001
1.84135
1.84168
1.40001
1.84242
1.40001
1.84004
1.40001
1.04034
1.37276
1.03326
1.40001
1.40001
1.40001
1.40001
1.40001
1.84061
1.40001
1.84053
1.40001
1.40001
1.40001
1.81996
1.40001
1.03738
1.84242
1.40001
1.01508
1.07167
1.04664
1.40001
1.61884
1.42984
1.84362
1.84195
1.40001
1.4
1.40001
1.40001
1.84158
1.40001
1.40001
1.84145
1.8415
1.40001
1.5525
1.4
1.40001
1.39679
1.84103
1.22862
1.40001
1.19775
1.01929
1.02806
1.34405
1.83898
1.83585
1.48098
1.84263
1.84162
1.40001
1.40001
1.84227
1.83979
1.84242
1.83663
1.40001
1.84173
1.02826
1.84034
1.84237
1.83841
1.84411
1.2674
1.29182
1.32309
1.84249
1.35054
1.84175
1.40001
1.40001
1.84369
1.83894
1.40001
1.01435
1.84167
1.84174
1.40001
1.84268
1.84243
1.40001
1.84142
1.01702
1.84396
1.84031
1.83837
1.84741
1.40001
1.40001
1.40001
1.84192
1.68661
1.08038
1.84183
1.02088
1.84217
1.40001
1.40001
1.40001
1.40001
1.84223
1.8416
1.40001
1.40001
1.84146
1.02761
1.84353
1.02257
1.40001
1.83948
1.40001
1.04864
1.84311
1.13242
1.40001
1.84236
1.84435
1.84357
1.40001
1.40001
1.60571
1.84348
1.02007
1.84179
1.40001
1.84151
1.25593
1.84276
1.03998
1.40001
1.84336
1.08061
1.8437
1.0263
1.40001
1.84183
1.40001
1.83967
1.40001
1.65744
1.82395
1.74666
1.02357
1.40001
1.84039
1.40001
1.84163
1.40001
1.84207
1.40001
1.40001
1.84139
1.37294
1.84456
1.01051
1.80413
1.40001
1.71279
1.40001
1.84305
1.84191
1.84135
1.40001
1.79742
1.8428
1.8092
1.66676
1.8428
1.40001
1.69045
1.40001
1.84308
1.40001
1.45895
1.40001
1.80919
1.40001
1.84169
1.82117
1.8211
1.40001
1.8297
1.02075
1.40001
1.02484
1.40001
1.40001
1.40001
1.8415
1.40001
1.8426
1.40001
1.40001
1.40001
1.84235
1.83571
1.75982
1.84385
1.84351
1.0372
1.84206
1.83408
1.40001
1.78395
1.84187
1.81883
1.40001
1.83642
1.83658
1.40001
1.84079
1.84008
1.8404
1.84307
1.40001
1.40001
1.40001
1.84245
1.0552
1.40001
1.84171
1.40001
1.40001
1.02616
1.40001
1.40001
1.84138
1.84191
1.40001
1.8415
1.84854
1.84052
1.37925
1.84152
1.40001
1.8416
1.84149
1.75589
1.40001
1.40001
1.40001
1.84115
1.84134
1.84144
1.34487
1.40001
1.85245
1.84118
1.84256
1.40001
1.84207
1.84296
1.84114
1.85286
1.40001
1.84235
1.84041
1.78741
1.84323
1.85121
1.40001
1.84233
1.83613
1.84139
1.84347
1.84286
1.0409
1.8409
1.84145
1.40001
1.84147
1.84132
1.84185
1.8421
1.40001
1.842
1.84139
1.40001
1.84171
1.77133
1.40001
1.40001
1.40001
1.83997
1.85072
1.40001
1.40001
1.64192
1.40001
1.84173
1.40001
1.40001
1.84183
1.84324
1.8426
1.84156
1.40001
1.40001
1.40001
1.71231
1.40001
1.84197
1.40001
1.40001
1.84252
1.84089
1.40001
1.84216
1.0367
1.84134
1.84409
1.12503
1.40001
1.05297
1.78532
1.84228
1.84304
1.84199
1.0102
1.8432
1.8424
1.0171
1.0184
1.40001
1.84271
1.84264
1.40001
1.40001
1.84198
1.40001
1.84834
1.40001
1.78755
1.40001
1.60674
1.84253
1.84421
1.70388
1.79313
1.83712
1.84614
1.81255
1.40001
1.04666
1.84518
1.84204
1.84894
1.40002
1.40001
1.40001
1.84791
1.40001
1.8416
1.8428
1.14998
1.40001
1.84231
1.39994
1.40001
1.40003
1.40005
1.84245
1.83713
1.39848
1.40001
1.40001
1.84208
1.84355
1.84211
1.84311
1.84215
1.07031
1.7715
1.40001
1.83942
1.84212
1.84127
1.83208
1.40001
1.84164
1.83009
1.84304
1.40001
1.84069
1.84129
1.25818
1.84172
1.8407
1.40001
1.84166
1.24126
1.83915
1.24902
1.84195
1.40001
1.8418
1.84763
1.84208
1.84208
1.84162
1.84154
1.84252
1.83818
1.40001
1.33217
1.83986
1.84144
1.24216
1.8422
1.37622
1.6697
1.8397
1.84241
1.83931
1.40001
1.84414
1.68857
1.84024
1.32293
1.84434
1.84325
1.40001
1.26337
1.40001
1.83583
1.40001
1.70603
1.40001
1.83413
1.25463
1.40001
1.83951
1.83707
1.40001
1.84498
1.84404
1.83712
1.83367
1.83222
1.40001
1.83837
1.40001
1.40001
1.40001
1.27871
1.84151
1.84133
1.84294
1.84227
1.85062
1.84412
1.8474
1.84253
1.28542
1.43039
1.40001
1.40001
1.84365
1.84241
1.84169
1.84115
1.40003
1.62574
1.40001
1.84193
1.8041
1.40001
1.40001
1.12119
1.84145
1.40001
1.40001
1.0183
1.84172
1.40001
1.8339
1.84208
1.83646
1.82495
1.8421
1.40001
1.04355
1.50811
1.84082
1.84196
1.40001
1.8408
1.84118
1.61843
1.40923
1.50132
1.40001
1.83887
1.84183
1.40001
1.40001
1.00361
1.40001
1.40001
1.84213
1.84203
1.84193
1.84211
1.84163
1.84239
1.84307
1.84214
1.8418
1.40001
1.39629
1.84122
1.84234
1.39682
1.84148
1.84116
1.02177
1.00348
1.84044
1.85078
1.40001
1.40001
1.40063
1.84245
1.84461
1.84142
1.40001
1.8416
1.40001
1.26286
1.84857
1.84765
1.40001
1.60375
1.8428
1.40001
1.83907
1.40001
1.84248
1.69762
1.84376
1.40001
1.84204
1.84823
1.01037
1.84175
1.40001
1.84134
1.83585
1.40001
1.03307
1.83858
1.76484
1.39747
1.82539
1.84129
1.40001
1.39602
1.84681
1.39729
1.84165
1.40001
1.40001
1.84125
1.40001
1.84327
1.84115
1.39667
1.75371
1.40001
1.84112
1.40001
1.40001
1.40001
1.40001
1.84106
1.40001
1.40001
1.8351
1.40001
1.8414
1.40001
1.68568
1.84037
1.8408
1.40001
1.40001
1.40385
1.40001
1.83988
1.84168
1.84149
1.84146
1.84085
1.84189
1.84142
1.40001
1.84224
1.8411
1.40001
1.84163
1.84231
1.40001
1.84267
1.31908
1.45722
1.84197
1.84204
1.84236
1.40001
1.8414
1.40001
1.84199
1.84188
1.40001
1.84062
1.40001
1.40001
1.40001
1.40001
1.8425
1.04305
1.39789
1.40001
1.84223
1.838
1.40001
1.8413
1.40001
1.40447
1.03832
1.84158
1.39962
1.40001
1.84138
1.3983
1.84156
1.40001
1.39977
1.40001
1.84103
1.83848
1.84226
1.84095
1.01743
1.84131
1.84042
1.84088
1.51183
1.40001
1.40001
1.58343
1.84131
1.04623
1.02024
1.40001
1.84041
1.84144
1.84327
1.40001
1.40001
1.84021
1.84201
1.3999
1.40001
1.7167
1.03039
1.40001
1.47801
1.83849
1.84077
1.39826
1.84175
1.85266
1.40001
1.39902
1.40001
1.84312
1.84143
1.57776
1.40001
1.82945
1.40001
1.40194
1.84345
1.08888
1.84355
1.84153
1.39693
1.39992
1.77501
1.40001
1.39969
1.40001
1.84199
1.40001
1.40002
1.05163
1.84207
1.40001
1.40001
1.40001
1.40001
1.84935
1.64841
1.40001
1.40001
1.03458
1.84206
1.64894
1.40001
1.40001
1.40001
1.8215
1.82836
1.84007
1.40001
1.40001
1.83997
1.40001
1.84088
1.84023
1.40001
1.40001
1.84294
1.84271
1.8251
1.40001
1.40001
1.8431
1.84248
1.40001
1.40001
1.40001
1.84213
1.40001
1.40001
1.40001
1.84154
1.84713
1.84454
1.40001
1.84781
1.40004
1.09732
1.84343
1.84172
1.40001
1.84202
1.82245
1.84243
1.40001
1.40001
1.84413
1.40001
1.63273
1.83735
1.40001
1.00496
1.40001
1.84412
1.40001
1.40001
1.83851
1.40001
1.40001
1.40001
1.53646
1.83726
1.06921
1.40002
1.84313
1.40001
1.40001
1.84307
1.40001
1.8447
1.40001
1.40001
1.8425
1.84144
1.40001
1.40005
1.40001
1.40001
1.40001
1.40001
1.40001
1.40001
1.8476
1.84206
1.40001
1.83434
1.04547
1.84967
1.40001
1.84183
1.83802
1.84247
1.84861
1.84113
1.40001
1.40001
1.83736
1.40001
1.6601
1.84604
1.84159
1.40001
1.84379
1.84182
1.40001
1.8043
1.40001
1.84209
1.6903
1.83857
1.39762
1.83718
1.79183
1.84284
1.84235
1.43524
1.84148
1.84518
1.40001
1.84191
1.40001
1.84129
1.40001
1.40001
1.40001
1.40001
1.39642
1.8413
1.84215
1.76723
1.40001
1.84228
1.40001
1.40001
1.40001
1.04663
1.40001
1.83057
1.40001
1.80194
1.82401
1.40001
1.40001
1.40001
1.81093
1.84264
1.40001
1.40001
1.84221
1.02081
1.47071
1.40001
1.84562
1.84144
1.80255
1.83018
1.84155
1.40001
1.83994
1.40001
1.40001
1.40001
1.40001
1.84011
1.84191
1.40001
1.81904
1.45567
1.83947
1.81194
1.40001
1.40001
1.8129
1.40001
1.40001
1.01012
1.707
1.40001
1.40001
1.84559
1.40001
1.84531
1.80188
1.40001
1.8012
1.02138
1.84328
1.84183
1.8429
1.40001
1.02576
1.40001
1.40001
1.40001
1.84218
1.76556
1.40001
1.84275
1.84182
1.4
1.84214
1.40001
1.40001
1.40001
1.40001
1.84151
1.39931
1.40001
1.84354
1.40001
1.40001
1.84196
1.8416
1.40001
1.83934
1.48881
1.40003
1.40001
1.8422
1.40001
1.84258
1.40001
1.41446
1.84151
1.40001
1.84208
1.40001
1.40001
1.53047
1.84009
1.40001
1.40001
1.40001
1.40001
1.40001
1.39625
1.0404
1.05333
1.41906
1.40001
1.42355
1.40001
1.41889
1.40001
1.84152
1.40001
1.6714
1.40001
1.8418
1.40001
1.40001
1.40001
1.84187
1.40001
1.76817
1.84107
1.40001
1.63142
1.84203
1.40001
1.40001
1.84223
1.84187
1.40001
1.40001
1.44372
1.01492
1.40001
1.84259
1.40001
1.40001
1.40001
1.40001
1.47538
1.84137
1.40001
1.40001
1.40001
0.994201
1.40001
1.84202
1.84119
1.85105
1.40001
1.40001
1.40001
1.40001
1.62231
1.84465
1.40001
1.40001
1.40001
1.84211
1.84171
1.44338
1.40001
1.40001
1.40001
1.84423
1.84165
1.40001
1.01326
1.84217
1.84167
1.84208
1.84256
1.84589
1.40001
1.40001
1.84278
1.8452
1.84172
1.00537
1.43846
1.84162
1.40001
1.40001
1.40001
1.40001
1.40001
1.8414
1.02111
1.40001
1.40001
1.84149
1.59746
1.40001
1.84066
1.40001
1.40001
1.40001
1.01819
1.40001
1.40001
1.5163
1.84133
1.84202
1.40001
1.84457
1.84166
1.40001
1.4681
1.40001
1.84542
1.40001
1.84003
1.02123
1.40001
1.40001
1.40001
1.40001
1.84187
1.40008
1.40001
1.40001
1.40001
1.8251
1.40001
1.40001
1.40001
1.40001
1.84083
1.02141
1.74253
1.8437
1.40001
1.84231
1.40001
1.40001
1.40001
1.39707
1.40001
1.84279
1.40001
1.20753
1.40001
1.40001
1.40004
1.84221
1.0259
1.40001
1.84413
1.40001
1.84446
1.84179
1.00188
1.40001
1.40001
1.82365
1.40001
1.40001
0.98619
1.40001
1.84198
1.40001
1.82257
1.39928
1.84095
1.40001
1.40001
1.40001
1.40001
1.83907
1.40001
1.40001
1.84186
1.40001
1.40001
1.40001
1.40001
1.40001
1.40001
1.40001
1.40001
1.69044
1.40001
1.54313
1.84131
1.40001
1.40001
1.40001
1.03595
1.40001
1.40001
1.40001
1.40001
1.84146
1.84181
1.45673
1.40001
1.40001
1.84326
1.40001
1.40001
1.83995
1.40001
1.40002
1.40001
1.40001
1.40001
1.40002
1.84228
1.17502
1.84162
1.84364
1.39707
1.40001
1.40001
1.40001
1.66117
1.40001
1.40001
1.84321
1.84215
1.40001
1.40001
1.40001
1.40001
1.05021
1.40001
1.40001
1.40001
1.67232
1.40001
1.84227
1.84519
1.40001
1.84187
1.40001
1.40001
1.40001
1.63935
1.40001
1.83902
1.40001
1.84171
1.40001
1.40001
1.39642
1.84157
1.40001
1.40001
1.40001
1.40001
1.40001
1.84025
1.40003
1.40001
1.01364
1.84129
0.97967
1.40001
1.84142
1.40001
1.39602
1.40001
1.84342
1.84015
1.40001
1.84583
1.27352
1.84156
1.8449
1.40004
1.40001
1.40001
1.04703
1.40001
1.40001
1.40001
1.84194
1.65886
1.84595
1.40001
1.40001
1.40001
1.40001
1.39692
1.84015
1.40001
1.02494
1.40001
1.40001
1.40001
1.40001
1.40001
1.40001
1.40001
1.84676
1.84056
1.8396
1.40001
1.40001
1.3969
1.40001
1.36361
1.40001
1.40001
1.40001
1.05355
1.37596
1.40001
1.05244
1.03333
1.40001
1.84294
1.84177
1.40001
1.83855
1.84115
1.03749
1.69585
1.40001
1.40001
1.40001
1.02525
1.84002
1.40001
1.03217
1.40001
1.84481
1.46654
1.40001
1.40001
1.40001
1.40001
1.84166
1.83779
1.40001
1.40001
1.84183
1.40001
1.40001
1.84033
1.84168
1.40001
1.79758
1.84209
1.839
1.35926
1.84187
1.4085
1.02675
1.73968
1.84231
1.40001
1.40001
1.40001
1.04708
1.40001
1.04232
1.84034
1.34274
1.84202
1.3576
1.40001
1.84105
1.60267
1.40001
1.40001
1.83992
1.40001
1.58413
1.84263
1.40001
1.40001
1.84016
1.84969
1.03825
1.65875
1.3999
1.40001
1.66666
1.40001
1.84797
1.35514
1.84424
1.84677
1.40001
1.40001
1.40001
1.40001
1.83498
1.40001
1.40001
1.84095
1.39965
1.84056
1.77388
1.83971
1.02999
1.40001
1.40001
1.40001
1.40001
1.84116
1.40005
1.84228
1.40001
1.83993
1.842
1.45591
1.84485
1.53564
1.84203
1.40001
1.7046
1.07488
1.84555
1.84205
1.7392
1.47166
1.83846
1.84152
1.84146
1.84181
1.40001
1.30916
1.4653
1.40001
1.84229
1.60787
1.84107
1.40004
1.40001
1.40001
1.04471
1.84371
1.83852
1.76102
1.40001
1.57449
1.40001
1.84003
1.83843
1.40001
1.84118
1.83952
1.40001
1.40001
1.40001
1.84007
1.40001
1.57681
1.84562
1.70793
1.40001
1.84128
1.40001
1.40001
1.40001
1.40001
1.40001
1.40001
1.40001
1.40001
1.40001
1.40001
1.03044
1.40001
1.81536
1.04741
1.6595
1.39857
1.84616
1.40001
1.62862
1.40002
1.68595
1.78164
1.40001
1.40197
1.836
1.31579
1.40001
1.84194
1.83378
1.35248
1.40001
1.84174
1.84048
1.84398
1.40001
1.8408
1.83988
1.84035
1.40001
1.60268
1.40001
1.40006
1.84091
1.40001
1.84079
1.46607
1.84215
1.40001
1.40001
1.84546
1.84063
1.0532
1.40001
1.84319
1.73486
1.84104
1.40001
1.40001
1.83815
1.84202
1.39823
1.40001
1.7968
1.39682
1.8415
1.40006
1.40001
1.40001
1.40001
1.40001
1.60067
1.40001
1.74049
1.83957
1.73215
1.84248
1.40001
1.40432
1.40001
1.40001
1.84019
1.40001
1.83994
1.40001
1.40001
1.40001
1.40001
1.4
1.40001
1.45187
1.62702
1.40001
1.40001
1.08851
1.40001
1.84466
1.05655
1.84069
1.40001
1.61585
1.39977
1.84053
1.68229
1.04021
1.64245
1.40004
1.84205
1.84083
1.40001
1.66846
1.84067
1.84041
1.39837
1.84886
1.82972
1.065
1.40001
1.40001
1.39808
1.40001
1.84049
1.40001
1.05419
1.84176
1.40001
1.40001
1.78511
1.40001
1.84034
1.40001
1.83996
1.40001
1.05049
1.40001
1.40001
1.84402
1.84787
1.84633
1.40001
1.84302
1.84206
1.84
1.40001
1.40001
1.83076
1.4
1.13077
1.40001
1.40001
1.40001
1.84177
1.40001
1.84167
1.68394
1.84099
1.40001
1.84147
1.39937
1.40001
1.40001
1.40001
1.40001
1.40001
1.40001
1.09234
1.40001
1.40001
1.84151
1.40001
1.84172
1.8456
1.40001
1.0303
1.03913
1.40001
1.84308
1.47594
1.02015
1.00231
1.40001
1.84012
1.40001
1.83984
1.01121
1.40103
1.40001
1.40001
1.39954
1.40001
1.40001
1.40001
1.39992
1.58701
1.8422
1.40001
1.40001
1.84334
1.66487
1.40001
1.80498
1.84321
1.8445
1.58437
1.84044
1.40001
1.84185
1.40001
1.84018
1.40001
1.83984
1.84354
1.39707
1.84092
1.84336
1.40001
1.40001
1.40001
1.40001
1.40001
1.32211
1.83752
1.40004
1.40003
1.06696
1.39999
1.05399
1.05409
1.40001
1.8393
1.84182
1.84078
1.40001
1.84292
1.40001
1.03299
1.40001
1.40001
1.83894
1.22346
1.84267
1.40001
1.84436
1.40001
1.37722
1.84303
1.40001
1.40001
1.40001
1.84173
1.40001
1.84053
1.03965
1.40001
1.40001
1.65713
1.40001
1.40001
1.64243
1.40001
1.40001
1.8436
1.40001
1.40001
1.40001
1.40001
1.40001
1.84452
1.84144
1.40001
1.84081
1.83993
1.03897
1.60598
1.84233
1.40001
1.40001
1.79919
1.399
1.40001
1.40001
1.8411
1.84005
1.68958
1.40001
1.84166
1.04798
1.8194
1.39964
1.40001
1.8408
1.40004
1.84162
1.76433
1.73941
1.40001
1.40001
1.84183
1.09742
1.0819
1.40001
1.8413
1.40001
1.84235
1.40001
1.66463
1.40001
1.40001
1.84093
1.68233
1.03723
1.40001
1.39837
1.40001
1.40001
1.4255
1.58427
1.8417
1.40001
1.84067
1.40001
1.40001
1.40001
1.40001
1.40001
1.40001
1.46544
1.02561
1.40001
1.40001
1.42398
1.40001
1.40001
1.40001
1.40001
1.40001
1.84221
1.40001
1.40001
1.84288
1.84274
1.71848
1.40001
1.40001
1.40001
1.23067
1.84203
1.71039
1.40001
1.40001
1.40001
1.40001
1.84176
1.40001
1.40001
1.40001
1.84653
1.40001
1.40001
1.72223
1.85224
1.42911
1.13469
1.84646
1.71013
1.84388
1.40001
1.61738
1.40001
1.40001
1.40001
1.0746
1.40272
1.0664
1.40001
1.05948
1.02203
1.40001
1.0467
1.40001
1.40001
1.40001
1.59022
1.40001
1.8437
1.84165
1.40092
1.61228
1.77517
1.09094
1.16634
1.27906
1.40001
1.84171
1.83955
1.84176
1.84213
1.77823
1.25985
1.40001
1.78099
1.40001
1.83965
1.40001
1.40001
1.39631
1.40914
1.40001
1.40001
1.40001
1.84008
1.40001
1.09444
1.40001
1.84286
1.03161
1.40001
1.40001
1.84242
1.40001
1.84193
1.39978
1.40001
1.40001
1.8424
1.794
1.40001
1.85055
1.40001
1.40001
1.41394
1.40001
1.60004
1.40001
1.40001
1.04416
1.40001
1.40001
1.84428
1.4
1.84266
1.40001
1.40004
1.04908
1.40001
1.40001
1.03549
1.40081
1.40001
1.84168
1.03606
1.84644
1.04097
1.84282
1.40001
1.40001
1.40001
1.40001
1.4
1.40001
1.40001
1.40001
1.40001
1.40001
1.40001
1.82316
1.40001
1.84398
1.84018
1.02712
1.40001
1.40001
1.40001
1.40001
1.40001
1.40001
1.82988
1.40001
1.40001
1.03853
1.40001
1.40001
1.84048
1.40001
1.40001
1.57112
1.76971
1.02376
1.03106
1.11635
1.13424
1.40001
1.39636
1.06145
1.40027
1.82927
1.39689
1.40001
1.40001
1.83858
1.40001
1.40001
1.40001
1.17901
1.40002
1.55943
1.40001
1.40001
1.57695
1.84168
1.40001
1.08986
1.40001
1.40001
1.40001
1.39672
1.40001
1.84284
1.84222
1.40001
1.04539
1.40001
1.64138
1.03479
1.40001
1.26097
1.40001
1.39666
1.03223
1.40001
1.40001
1.40001
1.39605
1.04558
1.40001
1.07148
1.39837
1.63538
1.8084
1.03427
1.01624
1.40001
1.391
1.40001
1.39867
1.40001
1.84173
1.84273
1.40001
1.40986
1.83982
1.84129
1.40001
1.40001
1.84223
1.40001
1.40001
1.40005
1.40001
1.84176
1.40001
1.40001
1.41817
1.40001
1.39857
1.0886
1.40001
1.40001
1.40001
1.40001
1.40001
1.8456
1.42643
1.40005
1.40001
1.40001
1.40001
1.40001
1.40001
1.40004
1.40001
1.02634
1.49428
1.39865
1.82714
1.8397
1.40001
1.41626
1.84018
1.78543
1.40001
1.40001
1.03135
1.84166
1.40001
1.84096
1.40001
1.84291
1.70419
1.0345
1.40001
1.03195
1.80301
1.39969
1.40001
1.02693
1.05996
1.40001
1.40001
1.77232
1.40001
1.4
1.01871
1.40001
1.40001
1.40001
1.53635
1.40001
1.02697
1.84007
1.40001
1.40001
1.40001
1.40001
1.84253
1.40001
1.40001
1.84316
1.79635
1.40001
1.40001
1.40001
1.84243
1.05085
1.40001
1.84124
1.84142
1.40001
1.75271
1.4
1.40004
1.40001
1.40001
1.82077
1.4163
1.40001
1.04076
1.65009
1.40001
1.40001
1.39759
1.40001
1.40001
1.8415
1.40001
1.40001
1.40004
1.40001
1.84018
1.40001
1.40001
1.40001
1.40001
1.40001
1.40001
1.40002
1.59056
1.40001
1.84084
1.40001
1.40001
1.84353
1.40001
1.40001
1.40001
1.84128
1.84318
1.44625
1.40001
1.39767
1.40001
1.40001
1.40001
1.40001
1.83988
1.40001
1.40001
1.84149
1.03503
1.40001
1.40001
1.40001
1.40001
1.40001
1.40001
1.75748
1.40001
1.40001
1.83985
1.84131
1.40001
1.40001
1.40001
1.84102
1.84391
1.40001
1.39966
1.83854
1.40001
1.40001
1.40001
1.40002
1.07058
1.4303
1.39648
1.39583
1.40001
1.40001
1.07558
1.84165
1.40001
1.01882
1.40001
1.8407
1.82354
1.02045
1.39939
1.84218
1.84065
1.84226
1.40001
1.40001
1.32666
1.79662
1.76679
1.04871
1.40001
1.40001
1.40001
1.83979
1.84208
1.0448
1.39729
1.40001
1.84058
1.03861
1.40001
1.84245
1.02719
1.36997
1.40624
1.40001
1.84627
1.40001
1.40001
1.40001
1.40001
1.40001
1.40001
1.40012
1.81128
1.40001
1.40001
1.84826
1.40001
1.40001
1.40001
1.84221
1.40001
1.02373
1.40001
1.40001
1.40001
1.55334
1.40001
1.40001
1.40001
1.40001
1.40001
1.17412
1.40001
1.02685
1.40001
1.84115
1.40009
1.26221
1.25395
1.40002
1.40409
1.63436
1.40001
1.40001
1.04116
1.84205
1.84123
1.8422
1.40001
1.01417
1.05306
1.40001
1.84267
1.40001
1.40001
1.40001
1.40001
1.40001
1.40004
1.40001
1.03464
1.688
1.40001
1.40001
1.02728
1.38747
1.40001
1.40001
1.40001
1.40001
1.03787
1.40001
1.11063
1.40001
1.40001
1.83929
1.40001
1.40001
1.02227
1.40001
1.84246
1.40001
1.09018
1.40001
1.03212
1.40001
1.40779
1.84179
1.85194
1.40001
1.40001
1.83867
1.40001
1.40001
1.49544
1.39675
1.40001
1.3982
1.40001
1.84409
1.40001
1.04117
1.40002
1.83798
1.39892
1.40001
1.40001
1.20226
1.40001
1.39907
1.02037
1.8395
1.56317
1.40001
1.40001
1.29048
1.40001
1.40001
1.40001
1.20596
1.40001
1.40001
1.40001
1.84131
1.40001
1.03264
1.4
1.40001
1.40001
1.40001
1.02387
1.84181
1.81121
1.02753
1.40001
1.84904
1.40001
1.40001
1.84167
1.84017
1.77276
1.02065
1.39776
1.39924
1.40001
1.8412
1.40001
1.40001
1.40001
1.40001
1.84339
1.40004
1.40001
1.40001
1.84167
1.40001
1.40001
1.84224
1.04065
1.40001
1.40001
1.40001
1.0335
1.40001
1.4
1.4
1.39868
1.40001
1.40001
1.40001
1.40001
1.76158
1.40001
1.84136
1.84111
1.84529
1.84169
1.84127
1.84215
1.40001
1.84164
1.40001
1.84138
1.84182
1.40001
1.39889
1.04501
1.78134
1.39989
1.40001
1.40001
1.40001
1.40001
1.39413
1.40001
1.47007
1.40001
1.40001
1.40001
1.23154
1.84208
1.84241
1.84231
1.7936
1.39988
1.40001
1.42275
1.84039
1.39789
1.44766
1.39727
0.992708
1.40001
1.40003
1.40001
1.40001
1.40001
1.40001
1.40001
1.84297
1.02355
1.84279
1.8421
1.39531
1.00246
1.40001
1.40001
1.40001
1.8412
1.02602
1.78972
1.02037
1.84127
1.84404
1.03173
1.84281
1.42366
1.40001
1.8443
1.19981
1.40001
1.39875
1.0677
1.40001
1.00294
1.40001
1.84204
1.8419
1.14024
1.40001
1.84206
0.987928
1.40001
1.04233
1.40001
1.84251
1.40001
1.40001
1.83365
1.40001
1.21696
1.40001
1.39968
1.00428
1.8456
1.3995
1.40001
1.05792
1.40001
1.40001
1.40001
1.40001
1.64315
1.40001
1.84228
1.40001
1.40001
1.85219
1.40001
1.40001
1.84074
1.40001
1.03534
1.40001
1.01527
1.40002
1.40001
1.40001
1.40001
1.40001
1.82305
1.65902
1.84162
1.40001
1.84143
1.8098
1.03394
1.08923
1.40001
1.40001
1.84242
1.40001
1.04042
1.40001
1.38116
1.40001
1.40001
1.8415
1.40001
1.84056
1.05758
1.83696
1.40001
1.06586
1.40001
1.40001
1.84055
1.84019
1.40001
1.40005
1.40001
1.84068
1.40001
1.40001
1.05512
1.39936
1.04982
1.40001
1.40001
1.40001
1.84329
1.84349
1.84103
1.40001
1.40001
1.01944
1.40001
1.84413
1.40001
1.40001
1.40001
1.81918
1.84162
1.8424
1.01113
1.84339
1.84174
1.03513
1.84056
1.40005
1.03751
1.41216
1.40001
1.40001
1.84218
0.996332
1.6815
0.995064
1.8419
1.39732
1.02213
1.84418
1.40001
1.40001
1.40001
1.40001
1.84162
1.8389
1.03845
1.40001
1.40003
1.02898
1.40004
1.40001
1.05481
1.07512
1.70623
1.84198
1.39843
1.84241
1.40001
1.8355
1.20974
1.02672
1.84228
1.8484
1.40001
1.84206
1.40001
1.40001
1.84128
1.40001
1.73396
1.841
1.40001
1.40001
1.40001
1.40001
1.84316
1.83709
1.84135
1.40001
1.40001
1.83997
1.84263
1.84077
1.40001
1.84286
1.40001
1.40001
1.40001
1.40001
1.40001
1.03846
1.22457
1.08214
1.40001
1.40001
1.8404
1.40001
1.40001
1.84607
1.03268
1.40001
1.84132
1.83727
1.82357
1.03432
1.40001
1.01032
1.40001
1.40003
1.83919
1.61338
1.83941
1.80377
1.40001
1.06759
1.40001
1.84057
1.71719
1.02792
1.40001
1.40001
1.40001
1.19084
1.40001
1.40001
1.84398
1.40001
1.02277
1.84185
1.40001
1.40001
1.40001
1.40001
1.40001
1.75633
1.49851
1.40001
1.8417
1.40001
1.84014
1.40001
1.39725
1.40001
1.84313
1.84342
1.84293
1.8458
1.3996
1.84025
1.40001
1.8422
1.84331
1.77488
1.40001
1.40001
1.05197
1.83867
1.40001
1.40001
1.84504
1.84221
1.84088
1.40001
1.84254
1.40001
1.40001
1.40004
1.84607
1.84447
1.5232
1.49643
1.84252
1.84245
1.09522
1.40001
1.40001
1.40001
1.40001
1.40003
1.5618
1.40001
1.40001
1.77293
1.04669
1.39998
1.40001
1.84208
1.3999
1.39982
1.46601
1.79651
1.83765
1.28052
1.40001
1.04857
1.40001
1.39735
1.84214
1.84458
1.84325
1.39897
1.40001
1.40001
1.04133
1.40001
1.40001
1.84196
1.44709
1.40001
1.40001
1.40001
1.40001
1.40001
1.40001
1.40001
1.39994
1.84036
1.40002
1.40001
1.40001
1.40001
1.40001
1.69575
1.40001
1.6091
1.40001
1.40001
1.84171
1.84769
1.03413
1.39879
1.40001
1.4
1.40001
1.04272
1.84115
1.84155
1.40001
1.40001
1.40001
1.40001
1.40001
1.40001
1.40001
1.40001
1.84141
1.83502
1.05679
1.44829
1.03491
1.40001
1.0573
1.40001
1.84366
1.51243
1.40001
1.40001
1.08161
1.40001
1.82343
1.21577
1.39678
1.03787
1.40001
1.40001
1.83792
1.40005
1.39715
1.01011
1.84085
1.84965
1.40001
1.40001
1.40001
1.40001
1.81293
1.40001
1.40001
1.84147
1.39892
1.84128
1.40004
1.40001
1.40001
1.02122
1.40001
1.40001
1.84215
1.04007
1.18181
1.02403
1.84168
1.39933
1.40001
1.84228
1.03763
1.03788
1.41285
1.40001
1.40001
1.83977
1.40004
1.6026
1.40001
1.40001
1.83974
1.0285
1.40001
1.40001
1.40014
1.8414
1.40009
1.82707
1.40001
1.40004
1.40001
1.40001
1.09778
1.40001
1.1745
1.40001
1.40001
1.83946
1.03565
1.40001
1.1583
1.20804
1.40001
1.40001
1.84325
1.40001
1.40001
1.40001
1.83946
1.8413
1.40006
1.83149
1.83961
1.1527
1.84115
1.82939
1.40001
1.40001
1.83013
1.4
1.40001
1.40001
1.40001
1.40001
1.84312
1.84138
1.40001
1.40001
1.40001
1.8435
1.40022
1.40001
1.02681
1.11745