/*--------------------------------*- C++ -*----------------------------------*\
  =========                 |
  \\      /  F ield         | OpenFOAM: The Open Source CFD Toolbox
   \\    /   O peration     | Website:  https://openfoam.org
    \\  /    A nd           | Version:  12
     \\/     M anipulation  |
\*---------------------------------------------------------------------------*/
FoamFile
{
    format      ascii;
    class       volScalarField;
    location    "0.8";
    object      rho;
}
// * * * * * * * * * * * * * * * * * * * * * * * * * * * * * * * * * * * * * //

dimensions      [1 -3 0 0 0 0 0];

internalField   nonuniform List<scalar> 
46253
(
1.40001
1.40001
1.40001
1.40001
1.40001
1.40001
1.40001
1.17836
1.40001
1.40001
1.40001
1.23882
1.40001
1.40001
1.40001
1.40001
1.40001
1.40001
1.40001
1.40001
1.40001
1.40001
1.40001
1.40001
1.40001
1.40001
1.40001
1.40001
1.40001
1.1592
1.4447
1.40001
1.40001
1.40001
1.40001
1.40001
1.40001
1.40001
1.41505
1.40001
1.38175
1.23497
1.40001
1.40001
1.17565
1.40001
1.40001
1.40001
1.40001
1.40001
1.40001
1.40001
1.40001
1.60416
1.40001
1.27452
1.40001
1.40001
1.56141
1.37167
1.40001
1.39256
1.40001
1.40001
1.40001
1.40001
1.40001
1.40001
1.27723
1.1836
1.40001
1.40001
1.40001
1.40477
1.40001
1.40001
1.40001
1.40001
1.40001
1.40001
1.40001
1.40001
1.40001
1.40001
1.39702
1.40001
1.40001
1.40001
1.44123
1.40001
1.40001
1.38147
1.40001
1.40001
1.40001
1.40001
1.40001
1.40001
1.55934
1.40001
1.40001
1.40001
1.40001
1.43975
1.40001
1.39557
1.23553
1.40001
1.40001
1.24674
1.53906
1.40001
1.40001
1.40001
1.40001
1.74328
1.23219
1.3703
1.76527
1.28302
1.40001
1.40001
1.40001
1.40001
1.40001
1.7979
1.40001
1.2633
1.40046
1.40001
1.40001
1.40001
1.40001
1.40001
1.40001
1.40001
1.40001
1.40001
1.2804
1.40001
1.40001
1.40001
1.40001
1.4321
1.40001
1.39997
1.40001
1.40001
1.42996
1.40001
1.24387
1.40001
1.40001
1.40001
1.40079
1.19336
1.25982
1.40001
1.40001
1.40001
1.40001
1.23386
1.27031
1.40001
1.40001
1.40001
1.40001
1.40001
1.95678
1.40001
1.40001
1.40001
1.40001
1.38691
1.40001
1.22172
1.41399
1.40001
1.40419
1.23619
1.40001
1.40017
1.40001
1.40001
1.40001
1.40001
1.40001
1.18066
1.40001
1.40001
1.40001
1.40001
1.36816
1.40001
1.40001
1.40001
1.53129
1.40001
1.40001
1.40001
1.40001
1.40001
1.40001
1.40001
1.40001
1.22072
1.39634
1.40001
1.40001
1.40001
1.40001
1.7635
1.38651
1.40001
1.41037
1.40001
1.42741
1.39913
1.40001
1.40001
1.40001
1.40001
1.21898
1.40001
1.40001
1.3885
1.40001
1.40001
1.40001
1.40001
1.50353
1.40001
1.40001
1.40001
1.40001
1.40001
1.40001
1.40001
1.50143
1.52183
1.40001
1.40001
1.40001
1.40001
1.40001
1.40001
1.40001
1.39679
1.40001
1.40001
1.40001
1.51903
1.40001
1.40001
1.40001
1.40001
1.40001
1.28795
1.3785
1.40001
1.40001
1.36774
1.25073
1.4341
1.40073
1.40001
1.40001
1.40001
1.40001
1.40001
1.40001
1.40001
1.40001
1.40001
1.40001
1.40001
1.39998
1.40001
1.63126
1.30575
1.40001
1.40001
1.40001
1.40001
1.40001
1.35765
1.346
1.28166
1.42116
1.40001
1.55068
1.54916
1.39541
1.40001
1.54103
1.47235
1.40001
1.46948
1.38596
1.40001
1.75005
1.40001
1.27153
1.75943
1.40001
1.40001
1.40001
1.40001
1.43006
1.40001
1.40001
1.40715
1.40001
1.40001
1.40001
1.40001
1.27192
1.53887
1.40001
1.63478
1.26372
1.40001
1.40001
1.40001
1.37596
1.41665
1.40001
1.40001
1.40001
1.40001
1.40001
1.40001
1.40001
1.40001
1.40001
1.39215
1.2837
1.40001
1.40001
1.40001
1.40001
1.40001
1.40001
1.62389
1.40001
1.40001
1.40001
1.40001
1.28428
1.40001
1.56406
1.40001
1.23117
1.40001
1.23673
1.40001
1.40001
1.40001
1.40001
1.40001
1.23763
1.40001
1.40001
1.40001
1.40001
1.40001
1.40001
1.40001
1.40001
1.40001
1.40001
1.40001
1.40001
1.40001
1.40001
1.53105
1.27672
1.40001
1.40001
1.40001
1.39776
1.39968
1.26479
1.40001
1.33505
1.40001
1.40001
1.40001
1.40001
1.85306
1.40001
1.4219
1.40001
1.3406
1.40001
1.31841
1.38572
1.38315
1.40001
1.44423
1.40001
1.40001
1.40001
1.52907
1.40001
1.40001
1.40001
1.40001
1.40001
1.40001
1.40001
1.40001
1.72422
1.40001
1.44957
1.40001
1.38794
1.40001
1.40001
1.29072
1.40001
1.40001
1.40001
1.40001
1.40001
1.40001
1.40001
1.40001
1.40001
1.40001
1.41115
1.40001
1.40001
1.40001
1.40001
1.41545
1.77057
1.40001
1.40001
1.57813
1.26646
1.40001
1.33697
1.40001
1.42034
1.40549
1.40001
1.40001
1.27658
1.40001
1.30853
1.44766
1.40001
1.38984
1.40001
1.40001
1.52544
1.40001
1.40001
1.41133
1.40001
1.40945
1.41046
1.40001
1.40001
1.4106
1.40001
1.40001
1.40001
1.40001
1.40001
1.41542
1.40001
1.51329
1.27102
1.40001
1.29306
1.39276
1.40001
1.40606
1.40001
1.40001
1.40001
1.40001
1.40001
1.40001
1.40073
1.40001
1.31197
1.39651
1.22599
1.31459
1.41525
1.36142
1.42075
1.40001
1.40001
1.40001
1.44616
1.24815
1.40001
1.40001
1.40001
1.40001
1.38162
1.40001
1.40001
1.43823
1.40001
1.40001
1.40001
1.36471
1.40001
1.34361
1.38873
1.40001
1.40001
1.43255
1.40001
1.40001
1.39706
1.19015
1.44627
1.40001
1.40001
1.44761
1.40001
1.44728
1.45718
1.44795
1.40001
1.39528
1.40239
1.40001
1.41112
1.44865
1.40001
1.40001
1.40001
1.40001
1.40001
1.29233
1.40001
1.40001
1.40001
1.40001
1.40001
1.40001
1.40001
1.20635
1.40001
1.40001
1.40001
1.29118
1.40001
1.37277
1.40001
1.40001
1.40001
1.40001
1.40001
1.40001
1.40001
1.41387
1.22422
1.40001
1.40001
1.40001
1.40001
1.40001
1.40001
1.40001
1.42604
1.40001
1.41443
1.40001
1.40001
1.2686
1.40001
1.40001
1.40001
1.40001
1.40001
1.40001
1.40001
1.41065
1.48411
1.40001
1.48649
1.48743
1.48963
1.60547
1.40001
1.40001
1.40001
1.41876
1.24179
1.40001
1.40001
1.40627
1.40001
1.78539
1.40749
1.40001
1.75992
1.40001
1.40001
1.43032
1.43687
1.40001
1.40001
1.07125
1.41541
1.40001
1.40001
1.3747
1.40001
1.40001
1.40001
1.40001
1.40001
1.40001
1.40001
1.40001
1.18925
1.4247
1.40001
1.40059
1.40001
1.40025
1.40001
1.40001
1.40001
1.4003
1.40001
1.39165
1.40001
1.39387
1.40001
1.42948
1.52611
1.40001
1.52605
1.65779
1.40001
1.51574
1.40001
1.5176
1.40001
1.21439
1.40001
1.29478
1.40001
1.40001
1.40001
1.51148
1.51251
1.40001
1.44029
1.50598
1.50625
1.37678
1.40001
1.40001
1.49914
1.40001
1.50054
1.40001
1.40001
1.49555
1.27685
1.49623
1.40001
1.40001
1.40001
1.40001
1.40001
1.49055
1.49095
1.6519
1.40001
1.40001
1.48557
1.31686
1.48691
1.26612
1.40001
1.47919
1.48022
1.40001
1.40001
1.40001
1.39745
1.40001
1.44957
1.43142
1.44715
1.40001
1.47238
1.40001
1.47321
1.40001
1.40001
1.4514
1.45193
1.46775
1.46722
1.41555
1.45537
1.46166
1.45636
1.46279
1.40001
1.38629
1.45511
1.45618
1.40001
1.2838
1.45237
1.45204
1.77586
1.40001
1.40001
1.40001
1.44635
1.42011
1.44608
1.30521
1.38677
1.4101
1.24823
1.44143
1.44258
1.43234
1.43672
1.43732
1.28461
1.28065
1.40001
1.53791
1.81014
1.40001
1.40001
1.25359
1.40001
1.28219
1.27732
1.40001
1.40001
1.40001
1.40001
1.40001
1.40001
1.40001
1.40001
1.40001
1.40001
1.40001
1.40001
1.40001
1.40001
1.29433
1.30438
1.40001
1.38226
1.20776
1.40001
1.40001
1.40001
1.40001
1.40001
1.40001
1.39846
1.40001
1.41905
1.40001
1.48212
1.39822
1.48572
1.28685
1.40001
1.33386
1.38155
1.4904
1.40001
1.40001
1.40001
1.40001
1.40001
1.48873
1.48511
1.39525
1.40001
1.40001
1.40001
1.29858
1.40001
1.40001
1.48858
1.43178
1.40001
1.35852
1.40001
1.40001
1.38317
1.38914
1.40001
1.49099
1.26478
1.40662
1.40001
1.41913
1.40001
1.40001
1.40001
1.41252
1.43204
1.40001
1.40001
1.19155
1.40001
1.40001
1.50479
1.50504
1.42283
1.40001
1.19283
1.19759
1.38345
1.40581
1.40001
1.44614
1.31928
1.26699
1.64707
1.40001
1.40001
1.40001
1.4832
1.48353
1.40001
1.40001
1.40001
1.40001
1.47632
1.40001
1.40001
1.47676
1.40001
1.41605
1.4105
1.40001
1.41608
1.44504
1.25572
1.41694
1.27719
1.46013
1.40001
1.40001
1.45977
1.40001
1.40001
1.42875
1.42022
1.40001
1.40001
1.30754
1.44007
1.27888
1.28092
1.40001
1.29865
1.29577
1.26965
1.26709
1.40001
1.40001
1.57649
1.40001
1.40001
1.41639
1.31799
1.31082
1.40001
1.40001
1.44641
1.40001
1.44803
1.44764
1.40001
1.40001
1.44629
1.40001
1.40001
1.40001
1.40001
1.42556
1.45449
1.33671
1.19844
1.40001
1.40001
1.40001
1.42358
1.42285
1.40001
1.40001
1.41552
1.41028
1.41637
1.40001
1.40001
1.40001
1.40001
1.41186
1.44722
1.40001
1.3725
1.40001
1.29748
1.40001
1.29818
1.40001
1.40001
1.40001
1.40001
1.40001
1.36632
1.70984
1.40001
1.30856
1.47209
1.47657
1.30821
1.40001
1.40001
1.40707
1.39389
1.40001
1.40001
1.45323
1.22648
1.23589
1.40833
1.40001
1.40001
1.40001
1.40001
1.40001
1.40001
1.86228
1.40001
1.40001
1.27724
1.28431
1.34548
1.21691
1.18375
1.20416
1.2864
1.49229
1.40001
1.18927
1.51886
1.47024
1.39952
1.51475
1.5183
1.40001
1.40983
1.47094
1.39996
1.51417
1.41222
1.39885
1.50145
1.50822
1.39995
1.40001
1.4
1.50942
1.4
1.40001
1.50245
1.55839
1.40001
1.40001
1.5035
1.40001
1.40001
1.49732
1.40001
1.40001
1.40001
1.4977
1.40001
1.49259
1.40001
1.40001
1.40001
1.40001
1.49375
1.40001
1.40001
1.40001
1.48894
1.49063
1.40001
1.40001
1.40001
1.48925
1.40001
1.20221
1.48213
1.40001
1.3415
1.48207
1.47491
1.47482
1.27381
1.46872
1.46958
1.46592
1.40001
1.40001
1.46637
1.40001
1.45886
1.40001
1.40001
1.40001
1.45901
1.30348
1.20767
1.45327
1.45282
1.44859
1.40001
1.44963
1.19527
1.44504
1.40001
1.42929
1.40001
1.44511
1.37869
1.36199
1.41968
1.43922
1.42471
1.42456
1.40001
1.43936
1.43352
1.43414
1.40001
1.24573
1.21042
1.40001
1.24815
1.40001
1.25747
1.2186
1.20715
1.40001
1.79893
1.46785
1.40001
1.45302
1.45854
1.419
1.42463
1.40001
1.06136
1.49462
1.49904
1.722
1.2149
1.49168
1.49543
1.49287
1.48307
1.41416
1.2813
1.44617
1.41491
1.40001
1.35932
1.31121
1.28053
1.36477
1.40001
1.52301
1.48352
1.23793
1.40001
1.40001
1.37665
1.3565
1.40001
1.40001
1.40001
1.40001
1.32287
1.3664
1.13177
1.48963
1.37586
1.37934
1.2982
1.40001
1.35773
1.40001
1.4276
1.40005
1.22807
1.30258
1.27777
1.34358
1.49746
1.43142
1.40001
1.49701
1.51783
1.32941
1.36682
1.40001
1.40001
1.40001
1.43712
1.40001
1.40001
1.40001
1.22621
1.36927
1.27533
1.40001
1.39894
1.40001
1.43607
1.32793
1.40001
1.40001
1.20298
1.27653
1.40001
1.27966
1.45722
1.4582
1.40001
1.50002
1.45004
1.40001
1.41978
1.40001
1.37896
1.40001
1.45159
1.31668
1.40001
1.40001
1.3577
1.45429
1.42546
1.41356
1.45402
1.45507
1.40001
1.40001
1.42386
1.41561
1.41708
1.27249
1.38122
1.40001
1.32849
1.30706
1.41739
1.24802
1.419
1.48438
1.40001
1.40001
1.40001
1.31578
1.41494
1.40001
1.41922
1.41526
1.46985
1.26992
1.30569
1.42204
1.36331
1.40001
1.52048
1.40001
1.40001
1.33749
1.53117
1.40001
1.40001
1.40001
1.4089
1.40001
1.40811
1.20814
1.4094
1.43856
1.40001
1.40001
1.4371
1.40001
1.40001
1.42697
1.40058
1.40001
1.40001
1.44176
1.40002
1.42797
1.43514
1.51718
1.40001
1.38453
1.57367
1.53935
1.34259
1.40001
1.51202
1.5788
1.55499
1.40001
1.43988
1.19965
1.40001
1.40001
1.29892
1.55777
1.40001
1.52532
1.41294
1.40001
1.40001
1.39287
1.5412
1.40001
1.48834
1.39668
1.40001
1.26879
1.40001
1.53048
1.54325
1.44884
1.40001
1.40001
1.42594
1.40001
1.43314
1.48995
1.40001
1.52673
1.40001
1.40001
1.40001
1.52461
1.40001
1.40001
1.31419
1.39967
1.40001
1.31504
1.52888
1.45399
1.41814
1.40001
1.41136
1.40001
1.45347
1.40001
1.40001
1.40001
1.40001
1.40001
1.40129
1.40001
1.40001
1.40001
1.40001
1.40001
1.40001
1.39635
1.3416
1.40001
1.36358
1.40001
1.40001
1.40001
1.39944
1.29858
1.24764
1.40001
1.25239
1.41237
1.40001
1.40001
1.40001
1.44873
1.40001
1.48928
1.40001
1.39033
1.29035
1.26855
1.40001
1.40001
1.40001
1.40001
1.40001
1.40001
1.39998
1.4
1.44713
1.5067
1.40001
1.40001
1.40001
1.40001
1.2974
1.40001
1.40001
1.40001
1.48153
1.40001
1.40001
1.40001
1.40008
1.40067
1.30732
1.51271
1.30088
1.39646
1.40001
1.40001
1.41085
1.41069
1.48433
1.491
1.25108
1.49151
1.48355
1.36961
1.48843
1.48961
1.40001
1.50983
1.40001
1.52241
1.40001
1.48593
1.40001
1.40001
1.48797
1.40001
1.49217
1.40001
1.42516
1.49112
1.40001
1.40001
1.30243
1.45685
1.48955
1.40001
1.40001
1.40001
1.30602
1.40001
1.30515
1.40001
1.50344
1.26862
1.40001
1.45369
1.40001
1.49192
1.3601
1.40001
1.47738
1.53617
1.40001
1.40001
1.20334
1.40001
1.40001
1.49292
1.30478
1.40001
1.40001
1.40001
1.40001
1.40001
1.28747
1.48218
1.49004
1.4894
1.48528
1.40001
1.37498
1.51873
1.51263
1.31846
1.51211
1.40001
1.50662
1.40001
1.40001
1.40001
1.31401
1.40001
1.40059
1.40001
1.20318
1.4122
1.40001
1.48692
1.37173
1.4883
1.44869
1.40001
1.48264
1.85595
1.3081
1.52166
1.40001
1.4
1.4
1.40001
1.40001
1.40001
1.40001
1.40001
1.40001
1.40001
1.32887
1.40001
1.40001
1.2019
1.28463
1.53225
1.22646
1.28545
1.40001
1.2644
1.40001
1.22744
1.40001
1.33
1.40001
1.36546
1.48274
1.40001
1.40001
1.40007
1.20477
1.28952
1.28701
1.40922
1.40001
1.40001
1.18435
1.35886
1.41192
1.51512
1.18717
1.40001
1.40001
1.40001
1.40001
1.40001
1.40002
1.40002
1.41029
1.20857
1.39988
1.40002
1.40001
1.46415
1.4
1.40001
1.51958
1.40001
1.39981
1.40001
1.40001
1.4941
1.39976
1.431
1.53998
1.20026
1.55275
1.56292
1.51342
1.40001
1.40001
1.48424
1.46044
1.40001
1.40001
1.40001
1.25423
1.40001
1.40001
1.39941
1.24285
1.40001
1.39945
1.38913
1.3994
1.40001
1.40001
1.40001
1.5202
1.24754
1.28867
1.20494
1.40946
1.39462
1.39974
1.20039
1.44321
1.3676
1.43092
1.40001
1.4001
1.19933
1.23434
1.41278
1.50744
1.46523
1.30598
1.40001
1.40001
1.42916
1.42343
1.40001
1.40001
1.42848
1.40001
1.40892
1.45941
1.41685
1.40537
1.45823
1.40001
1.54506
1.40001
1.19215
1.44866
1.43655
1.45961
1.40371
1.19868
1.30735
1.4875
1.40001
1.30327
1.50042
1.27903
1.57957
1.30657
1.46196
1.46237
1.579
1.20987
1.45436
1.41713
1.40001
1.46139
1.45563
1.51872
1.53385
1.40001
1.43718
1.40001
1.12626
1.30238
1.43423
1.2434
1.23986
1.40001
1.23779
1.27475
1.46254
1.40001
1.20702
1.40754
1.47376
1.40001
1.41317
1.22827
1.32211
1.4217
1.47804
1.40001
1.21877
1.46665
1.4658
1.40001
1.46617
1.40001
1.41401
1.39876
1.46634
1.27843
1.53556
1.39546
1.40001
1.25488
1.40001
1.43658
1.40001
1.33851
1.40001
1.50466
1.47552
1.50804
1.40001
1.46701
1.40001
1.46719
1.40001
1.40001
1.46647
1.40001
1.503
1.40001
1.45078
1.39999
1.40001
1.46603
1.33426
1.40001
1.40001
1.40001
1.27533
1.40001
1.22065
1.43487
1.50568
1.50983
1.22574
1.48399
1.31965
1.40001
1.29933
1.62133
1.40001
1.40001
1.51861
1.62137
1.22531
1.40001
1.46566
1.23389
1.23043
1.48288
1.33269
1.46396
1.46383
1.48413
1.53269
1.49906
1.46253
1.4582
1.40001
1.39378
1.40167
1.35785
1.05679
1.22015
1.40001
1.47484
1.63493
1.46214
1.50976
1.6201
1.29094
1.40001
1.46135
1.4536
1.28805
1.31034
1.40001
1.40001
1.51305
1.51809
1.32676
1.45481
1.40001
1.40001
1.45402
1.44136
1.40001
1.40001
1.40001
1.39369
1.45553
1.45453
1.39999
1.45079
1.29608
1.40523
1.45336
1.40001
1.29937
1.40001
1.30435
1.27801
1.4526
1.48868
1.69852
1.39971
1.41766
1.46836
1.35269
1.46814
1.39959
1.40001
1.37814
1.7165
1.40001
1.40319
1.40001
1.40001
1.34646
1.34508
1.356
1.34409
1.39999
1.439
1.40001
1.40001
1.35584
1.40011
1.26682
1.31112
1.42529
1.25994
1.46839
1.46842
1.40277
1.26521
1.26324
1.45962
1.39966
1.28082
1.40001
1.36218
1.5547
1.26242
1.4284
1.43376
1.41466
1.40001
1.40001
1.41846
1.3704
1.40001
1.40001
1.40001
1.36779
1.40001
1.43897
1.30669
1.27303
1.3114
1.45665
1.44482
1.44115
1.40001
1.27101
1.31776
1.40001
1.27489
1.56647
1.43962
1.42185
1.45069
1.40001
1.40001
1.41463
1.39385
1.52994
1.2831
1.28386
1.63071
1.30838
1.40001
1.40001
1.46397
1.40001
1.40001
1.49018
1.40814
1.41992
1.46449
1.40001
1.5662
1.47793
1.32862
1.40001
1.32848
1.53651
1.40166
1.40001
1.40001
1.40001
1.299
1.39123
1.422
1.32812
1.40001
1.40001
1.55083
1.3246
1.28324
1.30251
1.46681
1.43082
1.34383
1.40001
1.40001
1.40001
1.46642
1.40001
1.40001
1.40001
1.40001
1.40001
1.36256
1.40001
1.40001
1.40001
1.40001
1.40001
1.40001
1.40001
1.40001
1.40001
1.40001
1.40001
1.40001
1.3643
1.40001
1.40001
1.39305
1.40555
1.40001
1.40001
1.40001
1.40001
1.26712
1.33164
1.43569
1.40001
1.40001
1.3912
1.36023
1.51235
1.40001
1.40001
1.40001
1.40001
1.43165
1.46681
1.40001
1.45984
1.43361
1.32988
1.46554
1.40001
1.30367
1.38067
1.40001
1.42587
1.40001
1.42558
1.40001
1.42973
1.40001
1.40001
1.43821
1.48576
1.40001
1.40001
1.4934
1.46229
1.33786
1.38232
1.47216
1.40001
1.40001
1.30916
1.40001
1.4034
1.44847
1.46766
1.46113
1.29699
1.33396
1.41096
1.40001
1.43799
1.40001
1.44062
1.40001
1.46047
1.4411
1.30222
1.40001
1.40013
1.4018
1.40001
1.40001
1.33584
1.40001
1.46335
1.40001
1.62596
1.43073
1.27118
1.52825
1.40001
1.46255
1.49354
1.40001
1.40001
1.36274
1.27029
1.40001
1.38741
1.43443
1.41543
1.4
1.41234
1.46124
1.40001
1.45375
1.45388
1.4
1.39122
1.40001
1.45341
1.42117
1.45325
1.43959
1.40001
1.45482
1.46144
1.40001
1.44501
1.40001
1.45698
1.43554
1.40001
1.40001
1.62096
1.42246
1.51541
1.42719
1.40001
1.40001
1.39998
1.49996
1.43883
1.45638
1.40001
1.51886
1.40001
1.4543
1.59232
1.47349
1.43479
1.42699
1.37782
1.40001
1.40002
1.45321
1.48609
1.35628
1.46016
1.47326
1.41761
1.37188
1.40001
1.40002
1.38651
1.40001
1.40001
1.40002
1.39991
1.40001
1.44403
1.30853
1.38302
1.39624
1.40002
1.42176
1.39959
1.43225
1.39944
1.40001
1.39954
1.39437
1.40054
1.7315
1.4033
1.40001
1.40001
1.40001
1.38158
1.39791
1.39944
1.40981
1.39949
1.36994
1.40001
1.40001
1.6385
1.5022
1.41784
1.3144
1.40001
1.4363
1.40001
1.44839
1.41247
1.44212
1.40284
1.60566
1.43168
1.50861
1.46761
1.40826
1.42689
1.4333
1.40001
1.50775
1.56506
1.41702
1.40001
1.45881
1.50945
1.40001
1.40001
1.43536
1.40001
1.40001
1.35721
1.30036
1.44424
1.44788
1.48687
1.40001
1.40001
1.40001
1.40358
1.40001
1.33319
1.5003
1.31134
1.45102
1.37335
1.2314
1.4595
1.30373
1.40001
1.26592
1.34569
1.47396
1.31562
1.46631
1.40001
1.45798
1.40001
1.47866
1.46525
1.40001
1.40001
1.42594
1.40001
1.43913
1.40001
1.45447
1.4656
1.46629
1.43746
1.42304
1.40001
1.31455
1.40001
1.52173
1.45601
1.48423
1.37637
1.40001
1.40001
1.43576
1.46728
1.40001
1.44242
1.46705
1.39196
1.40963
1.46345
1.40001
1.28716
1.40001
1.49968
1.37331
1.46297
1.46642
1.3848
1.3573
1.46631
1.35099
1.40001
1.40001
1.44253
1.40001
1.34471
1.40435
1.3886
1.40145
1.40001
1.31219
1.42921
1.41554
1.32949
1.40001
1.46656
1.43929
1.35492
1.45337
1.35504
1.40001
1.40001
1.46632
1.46506
1.40001
1.40001
1.40001
1.40001
1.40001
1.52902
1.46352
1.40001
1.34193
1.40001
1.465
1.40001
1.46023
1.42156
1.46356
1.41257
1.42642
1.45056
1.34162
1.40001
1.40001
1.3693
1.48908
1.40001
1.40001
1.42756
1.46924
1.46152
1.40001
1.44324
1.48046
1.40001
1.44857
1.38861
1.44778
1.47602
1.48284
1.44504
1.40001
1.46117
1.33144
1.40001
1.40001
1.36969
1.47856
1.47921
1.47975
1.45957
1.32188
1.4817
1.54198
1.48806
1.4953
1.48484
1.40001
1.39442
1.48008
1.49189
1.4066
1.40001
1.40001
1.3855
1.45509
1.32658
1.23428
1.43146
1.40001
1.40001
1.48192
1.50735
1.32096
1.45509
1.50084
1.50365
1.40859
1.24498
1.40001
1.49738
1.31807
1.4523
1.46043
1.31315
1.39302
1.45366
1.43172
1.45634
1.40001
1.3792
1.46586
1.43722
1.36406
1.46128
1.51394
1.3998
1.29829
1.43954
1.47245
1.44136
1.31273
1.47139
1.32976
1.51211
1.45639
1.43999
1.40001
1.43923
1.47756
1.36886
1.5453
1.51273
1.50924
1.44043
1.39707
1.44019
1.293
1.33164
1.38285
1.33568
1.40001
1.40001
1.44426
1.40001
1.31592
1.40001
1.40001
1.40001
1.31958
1.40001
1.40001
1.41833
1.44216
1.46655
1.41329
1.40001
1.2367
1.40001
1.38596
1.33475
1.40001
1.33343
1.43936
1.40001
1.44056
1.43549
1.44126
1.40001
1.3942
1.40001
1.40001
1.47027
1.40001
1.3657
1.38439
1.51596
1.40001
1.51712
1.40001
1.38091
1.24579
1.40001
1.40001
1.52775
1.45691
1.3553
1.40001
1.37227
1.36311
1.40001
1.38699
1.40001
1.33887
1.62599
1.39257
1.24478
1.40001
1.40001
1.2958
1.38946
1.25322
1.44024
1.40001
1.4687
1.45332
1.40001
1.43557
1.43706
1.40001
1.52872
1.40001
1.40001
1.46547
1.49784
1.52475
1.40001
1.40001
1.40001
1.44519
1.3417
1.53465
1.40001
1.40001
1.53123
1.40001
1.5422
1.42354
1.538
1.40001
1.40001
1.37209
1.40565
1.407
1.40001
1.43842
1.40001
1.40001
1.39164
1.40001
1.52264
1.43815
1.40001
1.40001
1.40001
1.33804
1.40001
1.40001
1.4383
1.40001
1.54527
1.44808
1.43712
1.31748
1.33007
1.40001
1.48103
1.43661
1.46406
1.56874
1.44056
1.4581
1.40001
1.40393
1.4604
1.40429
1.39758
1.48866
1.48597
1.54887
1.43955
1.56366
1.55968
1.40001
1.32904
1.26565
1.40001
1.40001
1.40001
1.44474
1.40001
1.55616
1.3014
1.40001
1.52335
1.40001
1.46343
1.44496
1.44256
1.40001
1.44656
1.39859
1.40001
1.49472
1.41486
1.552
1.40001
1.34249
1.41892
1.44462
1.40001
1.40001
1.40001
1.38667
1.30547
1.43329
1.56711
1.43429
1.44019
1.57114
1.43597
1.40001
1.38254
1.4502
1.46953
1.78187
1.46933
1.39954
1.40001
1.40944
1.50051
1.52104
1.40001
1.40001
1.46631
1.44808
1.40001
1.44808
1.41971
1.4513
1.4056
1.40001
1.42247
1.40001
1.186
1.40001
1.24997
1.45049
1.40001
1.40001
1.35296
1.40001
1.40001
1.57494
1.40001
1.40001
1.40001
1.45462
1.34998
1.43075
1.58392
1.45381
1.4337
1.40001
1.45676
1.48654
1.34559
1.40001
1.435
1.40001
1.33862
1.34932
1.2855
1.45586
1.43974
1.40001
1.45952
1.40001
1.40001
1.3998
1.35076
1.35365
1.40001
1.40001
1.63673
1.35207
1.40001
1.40001
1.40001
1.40006
1.4728
1.42081
1.45998
1.40001
1.40001
1.44688
1.45886
1.40001
1.40001
1.40001
1.40001
1.46156
1.40001
1.40001
1.40001
1.54042
1.52262
1.40001
1.40001
1.46067
1.40001
1.40001
1.40001
1.46331
1.40001
1.40001
1.40001
1.47438
1.46242
1.32844
1.40001
1.40001
1.30287
1.40001
1.40001
1.31354
1.46482
1.40001
1.40001
1.40001
1.40001
1.40001
1.40001
1.40001
1.34912
1.46397
1.40001
1.50616
1.43575
1.40001
1.40001
1.24681
1.40001
1.30441
1.48132
1.40001
1.40001
1.50467
1.51635
1.40001
1.40001
1.40001
1.30445
1.30497
1.34428
1.46669
1.4461
1.48556
1.40001
1.40001
1.31822
1.50334
1.40001
1.30708
1.46604
1.40001
1.35579
1.40001
1.4674
1.40001
1.35486
1.40001
1.27398
1.40001
1.40001
1.40001
1.24093
1.50194
1.40001
1.40001
1.46691
1.40001
1.3687
1.32386
1.46756
1.25277
1.40001
1.18558
1.40001
1.28307
1.31676
1.46984
1.36625
1.40001
1.46303
1.46711
1.36481
1.35609
1.40001
1.40001
1.41945
1.35972
1.40001
1.40001
1.29173
1.30506
1.44611
1.26614
1.46724
1.40001
1.40001
1.40001
1.46767
1.45792
1.31967
1.46729
1.40001
1.49268
1.36883
1.30131
1.32478
1.51904
1.40001
1.44018
1.46803
1.36708
1.43265
1.43094
1.27897
1.41078
1.40001
1.31698
1.28241
1.40001
1.40001
1.40001
1.40001
1.26572
1.47013
1.40001
1.44083
1.40001
1.40001
1.41144
1.47285
1.40001
1.40001
1.40001
1.4524
1.40001
1.40001
1.16008
1.40001
1.47024
1.40001
1.42006
1.28564
1.40001
1.40001
1.3839
1.4622
1.40001
1.24905
1.40001
1.53548
1.37995
1.39998
1.46997
1.37741
1.25403
1.4139
1.40001
1.30706
1.53364
1.40001
1.40001
1.38894
1.47045
1.43869
1.22874
1.40001
1.4792
1.31182
1.40001
1.50952
1.40001
1.62942
1.35119
1.46999
1.39839
1.2486
1.44028
1.43682
1.40001
1.40139
1.48112
1.43328
1.35149
1.31966
1.40001
1.39153
1.35903
1.40001
1.40001
1.40535
1.40001
1.40001
1.40001
1.46997
1.36029
1.46538
1.40001
1.41918
1.40001
1.39882
1.40001
1.46105
1.46452
1.40001
1.40001
1.63435
1.22559
1.39833
1.40001
1.40001
1.45985
1.40001
1.40001
1.32106
1.46917
1.35529
1.40001
1.40001
1.42421
1.42803
1.42245
1.68822
1.40001
1.42965
1.2929
1.40001
1.45481
1.42038
1.45672
1.40001
1.40008
1.40001
1.5366
1.48736
1.31754
1.55002
1.40001
1.40086
1.32945
1.45215
1.46629
1.52275
1.40001
1.40385
1.4138
1.39114
1.41983
1.39992
1.40001
1.40001
1.44982
1.40001
1.41591
1.36347
1.40001
1.56293
1.46465
1.6583
1.40001
1.51329
1.31313
1.46395
1.53819
1.32809
1.40001
1.40001
1.43094
1.52398
1.55244
1.41726
1.39756
1.4985
1.40001
1.43876
1.46958
1.40001
1.40001
1.50542
1.31191
1.40697
1.4
1.56615
1.40641
1.40358
1.39913
1.40001
1.40466
1.40001
1.46818
1.40001
1.40001
1.40004
1.34241
1.40001
1.66579
1.40001
1.40001
1.47231
1.40001
1.40377
1.33667
1.40001
1.40001
1.4
1.40001
1.40001
1.40001
1.47122
1.40001
1.40001
1.4
1.40001
1.40001
1.39769
1.32929
1.40001
1.40001
1.40001
1.40001
1.27081
1.40001
1.40747
1.40001
1.40001
1.40001
1.40001
1.40001
1.40001
1.47678
1.4
1.34228
1.40001
1.47762
1.40001
1.40008
1.30387
1.43245
1.5117
1.40001
1.40001
1.47955
1.46498
1.43414
1.40001
1.47587
1.51334
1.40001
1.40001
1.38114
1.39364
1.38318
1.40001
1.40001
1.40001
1.40013
1.48186
1.3418
1.40001
1.47941
1.44828
1.33009
1.43202
1.47987
1.40001
1.65823
1.40001
1.3513
1.40001
1.40002
1.38231
1.43837
1.35046
1.32042
1.40001
1.40001
1.4
1.46677
1.4787
1.49673
1.40001
1.39149
1.40001
1.44755
1.40001
1.40001
1.40001
1.40001
1.40002
1.40001
1.46625
1.40001
1.26254
1.40001
1.40001
1.39505
1.40001
1.40001
1.40001
1.54305
1.4672
1.40001
1.31683
1.44969
1.40001
1.40001
1.40001
1.40001
1.39936
1.36876
1.45251
1.53304
1.51918
1.4833
1.40001
1.40001
1.46894
1.43351
1.40001
1.40001
1.40001
1.40001
1.40001
1.40001
1.4827
1.4
1.40001
1.40001
1.51323
1.46856
1.40001
1.40187
1.40001
1.40001
1.32366
1.40121
1.40001
1.3419
1.40001
1.40001
1.44174
1.40001
1.40001
1.4505
1.41759
1.46832
1.45731
1.23816
1.40001
1.40001
1.3667
1.39335
1.48554
1.44868
1.40001
1.39227
1.40001
1.46998
1.40001
1.40001
1.48582
1.40001
1.40001
1.40001
1.40001
1.40332
1.40001
1.40001
1.3588
1.40001
1.16821
1.4877
1.46071
1.31897
1.40001
1.44254
1.40001
1.44605
1.48771
1.40001
1.40001
1.40001
1.40001
1.45615
1.48833
1.36241
1.48599
1.40001
1.41384
1.44128
1.73463
1.53258
1.37543
1.40001
1.36464
1.40269
1.40001
1.36379
1.40001
1.40001
1.36545
1.47236
1.40001
1.21186
1.48185
1.48975
1.49302
1.40001
1.23778
1.40001
1.34699
1.38126
1.44231
1.42849
1.43014
1.40001
1.48632
1.44549
1.36311
1.33529
1.40001
1.40001
1.40001
1.37915
1.40001
1.40001
1.32674
1.40001
1.40001
1.46318
1.46281
1.40001
1.42554
1.40001
1.45515
1.36197
1.29959
1.40001
1.40001
1.46229
1.62
1.22273
1.47413
1.45457
1.44728
1.37081
1.46748
1.27991
1.23893
1.23394
1.40001
1.24202
1.40001
1.51146
1.40001
1.4048
1.40001
1.28994
1.32586
1.57499
1.55904
1.40001
1.40005
1.38029
1.3459
1.31449
1.39687
1.44438
1.24472
1.40001
1.40584
1.34091
1.54002
1.48823
1.45816
1.40001
1.40001
1.40001
1.40001
1.43413
1.44258
1.3969
1.28957
1.39888
1.29054
1.40001
1.36995
1.56252
1.46564
1.5777
1.45685
1.3807
1.35633
1.40001
1.40001
1.24207
1.40001
1.46301
1.37057
1.28237
1.44221
1.43614
1.37012
1.42823
1.40001
1.39911
1.40001
1.40001
1.47315
1.40028
1.44322
1.54309
1.36336
1.46157
1.47095
1.64825
1.37048
1.27655
1.39274
1.40001
1.34092
1.39964
1.39117
1.43889
1.44927
1.44057
1.4444
1.44017
1.40001
1.46634
1.43079
1.28463
1.40001
1.47115
1.36712
1.45978
1.34909
1.40001
1.22563
1.45507
1.44687
1.40001
1.36127
1.40001
1.40001
1.39347
1.40001
1.40001
1.46032
1.48883
1.30787
1.36399
1.28221
1.46995
1.44676
1.39998
1.40001
1.40001
1.31217
1.32688
1.44333
1.44252
1.47521
1.40001
1.41996
1.23602
1.44838
1.35716
1.31699
1.23565
1.40001
1.4852
1.46153
1.44054
1.40007
1.43674
1.40001
1.40001
1.39973
1.41806
1.52413
1.43543
1.45937
1.47393
1.4406
1.40015
1.40001
1.45306
1.43086
1.52213
1.40001
1.44693
1.3287
1.23431
1.40001
1.43434
1.44106
1.32875
1.40752
1.27196
1.47423
1.51327
1.40001
1.48627
1.41736
1.40001
1.52312
1.43785
1.33036
1.24669
1.4513
1.47273
1.52264
1.30764
1.45759
1.40001
1.47674
1.40001
1.30088
1.40001
1.40001
1.46109
1.24555
1.40001
1.4357
1.40001
1.45499
1.40001
1.51085
1.39689
1.40001
1.40362
1.30787
1.45641
1.44554
1.47982
1.46636
1.23313
1.4
1.41449
1.42165
1.26218
1.37693
1.40001
1.47854
1.34308
1.35549
1.41953
1.3653
1.40001
1.251
1.47727
1.36174
1.40001
1.41299
1.31898
1.40001
1.35756
1.42944
1.48122
1.44991
1.37476
1.32366
1.37191
1.51286
1.45293
1.40001
1.33037
1.46545
1.38908
1.3579
1.29245
1.40001
1.31778
1.44424
1.40001
1.45294
1.40001
1.31516
1.43271
1.40001
1.48017
1.43232
1.40001
1.44696
1.40001
1.35202
1.50568
1.46472
1.47876
1.40001
1.25012
1.40001
1.46683
1.6816
1.43877
1.40001
1.45358
1.52456
1.45384
1.48444
1.40001
1.31571
1.34102
1.40001
1.40001
1.58586
1.32566
1.40001
1.3341
1.48437
1.40001
1.43907
1.54968
1.233
1.40001
1.36723
1.40001
1.48556
1.52844
1.46678
1.45608
1.35506
1.40001
1.46787
1.40001
1.32238
1.40001
1.40001
1.451
1.32326
1.4
1.44092
1.48378
1.52633
1.40001
1.50582
1.67335
1.40001
1.41157
1.31338
1.46768
1.3306
1.44474
1.56401
1.40001
1.40001
1.40212
1.36854
1.49552
1.4851
1.52256
1.40539
1.33626
1.50787
1.40001
1.40001
1.38026
1.35305
1.5303
1.40001
1.32609
1.31419
1.24072
1.44549
1.46586
1.40001
1.40001
1.35582
1.42752
1.49704
1.38464
1.46929
1.44555
1.46596
1.23095
1.40001
1.50423
1.40001
1.57079
1.40001
1.37534
1.40001
1.37959
1.65089
1.46679
1.40001
1.3791
1.36628
1.23727
1.50842
1.45754
1.4802
1.44453
1.43432
1.39725
1.43743
1.40001
1.33943
1.46908
1.47012
1.48371
1.44901
1.47009
1.40132
1.40001
1.386
1.46977
1.46855
1.40001
1.38858
1.40805
1.44849
1.40001
1.43734
1.40013
1.24804
1.42609
1.44521
1.40001
1.42783
1.39782
1.40001
1.40001
1.43858
1.37624
1.36398
1.43967
1.40001
1.3605
1.37502
1.43688
1.45694
1.37554
1.45288
1.4
1.41754
1.42079
1.40001
1.58808
1.37322
1.46705
1.4334
1.40395
1.43866
1.40001
1.65733
1.40001
1.42819
1.51443
1.46916
1.40001
1.47064
1.46453
1.35651
1.47032
1.40001
1.46969
1.42585
1.43968
1.40001
1.50621
1.40294
1.39958
1.39785
1.45849
1.48215
1.25613
1.44749
1.40001
1.40001
1.40001
1.54474
1.52015
1.39992
1.37373
1.48392
1.371
1.31152
1.42471
1.37005
1.40419
1.32384
1.33871
1.45327
1.45812
1.4001
1.3727
1.36999
1.35942
1.48036
1.39949
1.43428
1.3986
1.4
1.40001
1.35325
1.42826
1.45713
1.40001
1.40001
1.37507
1.46769
1.40305
1.40001
1.40001
1.43621
1.40007
1.40001
1.44933
1.43205
1.37569
1.24843
1.40194
1.40001
1.31126
1.41236
1.48894
1.41199
1.24668
1.44088
1.54825
1.46289
1.40001
1.37416
1.63561
1.4277
1.32136
1.47102
1.31308
1.40001
1.40007
1.40001
1.43577
1.67063
1.43592
1.40001
1.40001
1.37587
1.44985
1.47757
1.40001
1.31597
1.44007
1.47226
1.48284
1.40424
1.3665
1.4797
1.40001
1.46122
1.47138
1.40001
1.37787
1.43649
1.45473
1.60032
1.40001
1.40001
1.42554
1.43537
1.40001
1.5547
1.464
1.40001
1.42758
1.5538
1.40001
1.40001
1.42954
1.32146
1.37376
1.55603
1.35901
1.37139
1.41331
1.40001
1.40001
1.43721
1.48341
1.40001
1.45383
1.35902
1.47439
1.43321
1.40001
1.28289
1.42787
1.35549
1.41771
1.20902
1.49451
1.46306
1.3825
1.44089
1.43082
1.37441
1.31924
1.44076
1.40001
1.39306
1.37872
1.46482
1.40001
1.37835
1.36761
1.32396
1.36725
1.40001
1.40988
1.40001
1.47604
1.51968
1.20005
1.37284
1.37709
1.3679
1.40001
1.35622
1.40001
1.49088
1.28597
1.39334
1.38043
1.50128
1.38051
1.40001
1.442
1.67883
1.40001
1.41763
1.38072
1.29162
1.38247
1.54745
1.53612
1.40001
1.48092
1.38196
1.39996
1.40001
1.34301
1.40001
1.40001
1.35607
1.42675
1.4
1.40001
1.18642
1.36668
1.38212
1.48014
1.40001
1.40001
1.40001
1.41986
1.45249
1.47156
1.48735
1.40001
1.49265
1.54611
1.4711
1.44227
1.23968
1.28995
1.51856
1.40001
1.40001
1.40001
1.32145
1.33029
1.40771