/*--------------------------------*- C++ -*----------------------------------*\
  =========                 |
  \\      /  F ield         | OpenFOAM: The Open Source CFD Toolbox
   \\    /   O peration     | Website:  https://openfoam.org
    \\  /    A nd           | Version:  12
     \\/     M anipulation  |
\*---------------------------------------------------------------------------*/
FoamFile
{
    format      ascii;
    class       volScalarField;
    location    "0.8";
    object      T;
}
// * * * * * * * * * * * * * * * * * * * * * * * * * * * * * * * * * * * * * //

dimensions      [0 0 0 1 0 0 0];

internalField   nonuniform List<scalar> 
46253
(
1
1
1
1
1
1
1
0.919397
1
1
1
0.95366
1
1
1
1
1
1
1
1
1
1
1
1
1
1
1
1
1
0.912512
1.0154
1
1
1
1
1
1
1
1.00437
1
0.994764
0.952686
1
1
0.933509
1
1
1
1
1
1
1
1
1.0471
1
0.96515
1
1
1.04867
0.991854
1
0.997888
1
1
1
1
1
1
0.965861
0.935826
1
1
1
1.0014
1
1
1
1
1
1
1
1
1
1
0.999146
1
1
1
1.0076
1
1
0.994683
1
1
1
1
1
1
1.04746
1
1
1
1
1.0147
1
0.998733
0.952792
1
1
0.95627
1.03653
1
1
1
1
1.07563
0.951103
0.991459
1.10039
0.967927
1
1
1
1
1
1.10663
1
0.961924
1.00013
1
1
1
1
1
1
1
1
1
0.967395
1
1
1
1
1.01216
1
0.999989
1
1
1.00859
1
0.956003
1
1
1
1.00387
0.939126
0.960755
1
1
1
1
0.952729
0.964615
1
1
1
1
1
1.15189
1
1
1
1
0.996246
1
0.947566
1.00405
1
1.00123
0.952063
1
1.0032
1
1
1
1
1
0.935129
1
1
1
1
0.990863
1
1
1
1.03438
1
1
1
1
1
1
1
1
0.947535
1.00247
1
1
1
1
1.10414
0.996136
1
1.00302
1
1.01145
0.999751
1
1
1
1
0.947089
1
1
0.996706
1
1
1
1
1.03324
1
1
1
1
1
1
1
1.0321
1.03819
1
1
1
1
1
1
1
1.00203
1
1
1
1.03686
1
1
1
1
1
0.969277
0.993826
1
1
0.990717
0.956999
1.01318
1.00023
1
1
1
1
1
1
1
1
1
1
1
0.999993
1
1.05374
0.97482
1
1
1
1
1
0.987797
0.984389
0.967948
1.00916
1
1.04582
1.04476
0.998686
1
1.04323
1.02389
1
1.02374
0.995978
1
1.10146
1
0.963236
1.09787
1
1
1
1
1.01391
1
1
1.00208
1
1
1
1
0.966384
1.04205
1
1.05439
0.96058
1
1
1
0.993078
1.00835
1
1
1
1
1
1
1
1
1
0.997774
0.968431
1
1
1
1
1
1
1.06276
1
1
1
1
0.967178
1
1.04224
1
0.950967
1
0.953306
1
1
1
1
1
0.954052
1
1
1
1
1
1
1
1
1
1
1
1
1
1
1.04053
0.967454
1
1
1
0.999359
0.999924
0.961097
1
0.969233
1
1
1
1
1.12587
1
1.00989
1
0.982808
1
0.964129
0.998798
0.999716
1
1.01253
1
1
1
1.03947
1
1
1
1
1
1
1
1
1.08962
1
1.01403
1
0.996547
1
1
0.970535
1
1
1
1
1
1
1
1
1
1
1.00323
1
1
1
1
1.00441
1.08511
1
1
1.04029
0.961116
1
0.981742
1
1.0058
1.00474
1
1
0.967765
1
0.975047
1.01349
1
0.997098
1
1
1.02776
1
1
1.00325
1
1.00271
1.003
1
1
1.00304
1
1
1
1
1
1.00442
1
1.02387
0.962833
1
0.971132
1.00121
1
1.00175
1
1
1
1
1
1
1.0002
1
0.975853
0.999
0.949891
0.976232
1.00435
0.988886
1.00591
1
1
1
1.01307
0.956451
1
1
1
1
0.994726
1
1
1.01377
1
1
1
0.98984
1
0.970993
0.996782
1
1
1.00925
1
1
0.999183
0.93755
1.0131
1
1
1.01348
1
1.01338
1.01615
1.01357
1
0.998743
1.00076
1
1.00319
1.01377
1
1
1
1
1
0.971212
1
1
1
1
1
1
1
0.943145
1
1
1
0.971047
1
0.992174
1
1
1
1
1
1
1
1.00396
0.9492
1
1
1
1
1
1
1
1.01057
1
1.00728
1
1
0.962935
1
1
1
1
1
1
1
1.00669
1.02369
1
1.02436
1.0246
1.02522
1.03971
1
1
1
1.01073
0.936977
1
1
1.00182
1
1.10422
1.00218
1
1.0978
1
1
1.01334
1.01506
1
1
0.875696
1.0044
1
1
0.997843
1
1
1
1
1
1
1
1
0.938126
1.00703
1
1.00019
1
1.00007
1
1
1
1.00009
1
0.99761
1
0.998262
1
1.00838
1.03519
1
1.03512
1.07356
1
1.03242
1
1.0329
1
0.945615
1
0.971585
1
1
1
1.03131
1.03161
1
1.01143
1.0297
1.02982
0.996446
1
1
1.02786
1
1.02822
1
1
1.02686
0.963965
1.02705
1
1
1
1
1
1.02546
1.02558
1.05512
1
1
1.02409
0.976623
1.02445
0.960911
1
1.02232
1.02261
1
1
1
0.999285
1
1.01402
1.00895
1.01652
1
1.02043
1
1.02067
1
1
1.01454
1.01468
1.01913
1.01898
1.00444
1.01565
1.01744
1.01592
1.01776
1
0.999399
1.01561
1.0159
1
0.968229
1.01484
1.01474
1.10622
1
1
1
1.01315
1.00573
1.01308
0.973262
0.981489
1.0029
0.956296
1.01177
1.01209
1.00921
1.01045
1.01061
0.967596
0.966154
1
1.03412
1.11062
1
1
0.959406
1
0.965526
0.948644
1
1
1
1
1
1
1
1
1
1
1
1
1
1
0.971356
0.972359
1
0.998324
0.943978
1
1
1
1
1
1
0.999581
1
1.00543
1
1.02324
0.999515
1.02421
0.966948
1
0.980829
0.994706
1.02542
1
1
1
1
1
1.02496
1.02405
0.998661
1
1
1
0.973092
1
1
1.025
1.00905
1
0.9821
1
1
0.999408
1.0012
1
1.02559
0.963069
1.00191
1
1.00545
1
1
1
1.00358
1.0091
1
1
0.937423
1
1
1.02935
1.02942
1.0065
1
0.937918
0.93952
0.995255
1.00168
1
1.01306
0.963293
0.963193
1.07167
1
1
1
1.02344
1.02353
1
1
1
1
1.02152
1
1
1.02164
1
1.00458
1.003
1
1.00459
1.01276
0.959742
1.00483
0.963949
1.017
1
1
1.0169
1
1
1.00817
1.00576
1
1
0.973147
1.01136
0.968111
0.968564
1
0.970502
0.969895
0.9618
0.96112
1
1
1.03493
1
1
1.00468
0.976209
0.974064
1
1
1.01314
1
1.0136
1.01349
1
1
1.00663
1
1
1
1
1.00728
1.0154
0.966218
0.939879
1
1
1
1.00673
1.00653
1
1
1.00444
1.00296
1.00468
1
1
1
1
1.0034
1.01337
1
0.995598
1
0.970218
1
0.970543
1
1
1
1
1
0.990308
1.08729
1
0.973372
1.02019
1.02141
0.973255
1
1
1.00204
0.999534
1
1
1.01505
0.948974
0.934966
1.00239
1
1
1
1
1
1
1.12267
1
1
0.966183
0.966222
0.966453
0.945573
0.935389
0.941692
0.970716
1.0181
1
0.936667
1.03325
1.01993
0.999861
1.03219
1.03309
1
1.00283
1.02022
0.999986
1.03203
1.00349
0.99967
1.02846
1.03037
0.999984
1
1
1.03075
1
1
1.02873
1.04586
1
1
1.029
1
1
1.02736
1
1
1
1.02746
1
1.02603
1
1
1
1
1.02636
1
1
1
1.02501
1.02549
1
1
1
1.02509
1
0.940936
1.02315
1
0.98411
1.02313
1.02114
1.02111
0.966358
1.0194
1.01964
1.01863
1
1
1.01875
1
1.01665
1
1
1
1.01668
0.972832
0.942505
1.01509
1.01496
1.01378
1
1.01407
0.938903
1.01279
1
1.00835
1
1.0128
0.997369
0.99373
1.00561
1.01115
1.00705
1.00701
1
1.01119
1.00954
1.00971
1
0.954286
0.943253
1
0.955048
1
0.957866
0.945971
0.942416
1
1.10735
1.00635
1
1.015
1.01654
1.01019
1.01176
1
0.870197
1.02655
1.02777
1.06837
0.928863
1.02574
1.02679
1.02607
1.02342
1.00406
0.967186
1.01308
1.00426
1
0.988334
0.974174
0.965026
0.994754
1
1.03439
1.02363
0.95341
1
1
0.993292
0.988571
1
1
1
1
0.978521
0.994789
0.892623
1.02517
0.997571
0.998588
0.970171
1
0.988893
1
1.00787
1.00001
0.952005
0.971826
0.964124
0.984695
1.02733
1.00895
1
1.02722
1.03291
0.980458
0.99159
1
1
1
1.01053
1
1
1
0.948387
0.992232
0.9634
1
0.999695
1
1.01024
0.980016
1
1
0.941792
0.963811
1
0.964844
1.01616
1.01643
1
1.02806
1.01416
1
1.00566
1
0.994987
1
1.0146
0.975807
1
1
0.987865
1.01536
1.00726
1.00387
1.01527
1.01556
1
1
1.00681
1.00446
1.00487
0.962616
0.995638
1
0.980172
0.97292
1.00497
0.957368
1.00543
1.02383
1
1
1
0.975542
1.00428
1
1.00548
1.00437
1.00509
0.946231
0.972506
1.00628
0.990626
1
1.03371
1
1
0.982888
1.03653
1
1
1
1.00256
1
1.00234
0.943512
1.00271
1.01095
1
1
1.01054
1
1
1.00767
1.00017
1
1
1.01201
1
1.00796
1.00999
1.0328
1
0.995563
1.04808
1.03876
0.984391
1
1.03139
1.04955
1.04302
1
1.01131
0.939934
1
1
0.970845
1.04375
1
1.03499
1.00282
1
1
0.997957
1.03933
1
1.01745
0.999001
1
0.96149
1
1.03634
1.03986
1.00245
1
1
1.0085
1
1.01087
1.02528
1
1.03545
1
1
1
1.03481
1
1
0.976023
0.999926
1
0.976101
1.03603
1.01526
1.00517
1
1.00327
1
1.01512
1
1
1
1
1
1.00039
1
1
1
1
1
1
0.998982
0.98416
1
0.992425
1
1
1
0.99994
0.974355
0.954964
1
0.95641
1.00239
1
1
1
1.01445
1
1.02511
1
0.997337
0.968402
0.961379
1
1
1
1
1
1
0.999994
0.999999
1.01334
1.02994
1
1
1
1
0.970466
1
1
1
1.02306
1
1
1
1.00005
1.00022
0.973158
1.03209
0.97106
0.99902
1
1
1.00312
1.00308
1.02384
1.02555
0.958666
1.02571
1.0236
0.995711
1.02489
1.02521
1
1.03078
1
1.03183
1
1.02429
1
1
1.02478
1
1.02587
1
1.00718
1.02558
1
1
0.971696
1.01606
1.02525
1
1
1
0.972571
1
0.975077
1
1.03088
0.961564
1
1.01518
1
1.02583
0.98375
1
1.01247
1.03789
1
1
0.941447
1
1
1.01856
0.972257
1
1
1
1
1
0.96753
1.02402
1.02533
1.02514
1.02403
1
0.987029
1.03514
1.03222
0.976315
1.03556
1
1.02987
1
1
1
0.974998
1
1.00019
1
0.941363
1.00354
1
1.02464
0.987409
1.02506
1.01378
1
1.02333
1.09951
0.973579
1.03403
1
1
1
1
1
1
1
1
1
1
0.979414
1
1
0.940913
0.9666
1.03682
0.948485
0.966882
1
0.960414
1
0.948796
1
0.979726
1
0.989775
1.0244
1
1
1.00002
0.941898
0.971418
0.970296
1.00235
1
1
0.935574
0.991422
1.00342
1.03225
0.936429
1
1
1
1
1
1
1
1.00605
0.942961
0.999963
1
1
1.01775
0.999997
1
1.03522
1
0.999959
1
1
1.02682
0.99993
1.00493
1.03891
0.940369
1.04469
1.04736
1.0318
1
1
1.0237
1.01707
1
1
1
0.956998
1
1
0.999831
0.953454
1
0.999842
0.996902
0.999826
1
1
1
1.03397
0.954837
0.967891
0.942463
1.00273
0.998494
0.999959
0.940386
1.01224
0.99076
1.0088
1
1.00003
0.940012
0.950797
1.00367
1.03015
1.01839
0.973427
1
1
1.0083
1.00669
1
1
1.0081
1
1.00255
1.01677
1.00481
1.00156
1.01644
1
1.04082
1
0.937945
1.01378
1.01038
1.01685
1.00114
0.939925
0.974009
1.02459
1
0.97441
1.02413
0.964519
1.04961
0.972881
1.01749
1.0176
1.04953
0.943201
1.01536
1.00491
1
1.01733
1.01573
1.03324
1.03725
1
1.01056
1
0.891841
0.975233
1.00972
0.956244
0.952477
1
0.951835
0.963211
1.01765
1
0.942386
1.00723
1.02103
1
1.00839
0.948992
0.977425
1.0062
1.0223
1
0.946043
1.01879
1.01856
1
1.01866
1
1.004
0.999643
1.01871
0.964592
1.03772
0.999281
1
0.957069
1
1.0104
1
0.982361
1
1.02931
1.02172
1.02676
1
1.0189
1
1.01894
1
1
1.01874
1
1.02887
1
1.00416
0.999996
1
1.01862
0.981157
1
1
1
0.96338
1
0.946576
1.0099
1.02958
1.03081
0.948176
1.02058
0.976668
1
0.970507
1.06066
1
1
1.03321
1.06064
0.948037
1
1.01852
0.953594
0.952582
1.02406
0.980715
1.01805
1.01802
1.02453
1.03694
1.02936
1.01765
1.01643
1
0.99849
1.0008
0.971321
0.868038
0.946413
1
1.02177
1.06443
1.01754
1.0344
1.06044
0.968257
1
1.01732
1.01517
0.954112
0.973907
1
1
1.03357
1.03469
0.978769
1.01549
1
1
1.01527
1.01248
1
1
1
0.998219
1.0157
1.01542
0.999997
1.01437
0.96961
1.00151
1.0151
1
0.970579
1
0.972119
0.964149
1.01624
1.02494
1.08347
0.999917
1.00504
1.01926
0.986462
1.0192
0.99988
1
0.993749
1.06731
1
1.00095
1
1
0.984652
0.984304
0.987371
0.983998
0.999996
1.01107
1
1
0.98734
1.00003
0.960789
0.974141
1.00721
0.958687
1.01825
1.01962
1.00079
0.960301
0.959759
1.01685
0.999882
0.965366
1
0.993299
1.04175
0.959444
1.00819
1.0096
1.00419
1
1
1.00526
0.991821
1
1
1
0.991005
1
1.01106
0.972814
0.962691
0.974234
1.01602
1.0127
1.01167
1
0.962071
0.976124
1
0.963294
1.04729
1.01125
1.00622
1.01434
1
1
1.00426
0.998272
1.0351
0.965737
0.965979
1.06354
0.973545
1
1
1.01804
1
1
1.02567
1.00234
1.00318
1.01819
1
1.04691
1.02238
0.979319
1
0.979288
1.03797
1.0005
1
1
1
0.970916
0.997521
1.00698
0.979174
1
1
1.04328
0.97815
0.966129
0.971555
1.01884
1.0095
0.983778
1
1
1
1.01873
1
1
1
1
1
0.988943
1
1
1
1
1
1
1
1
1
1
1
1
0.987292
1
1
0.998514
1.00199
1
1
1
1
0.96329
0.980409
1.01134
1
1
0.99799
0.986679
1.03265
1
1
1
1
1.009
1.01884
1
1.01854
1.00955
0.979887
1.01849
1
0.974858
0.994989
1
1.00766
1
1.00728
1
1.00845
1
1
1.01121
1.02411
1
1
1.02567
1.0179
0.982205
0.995416
1.02066
1
1
0.973841
1
1.00142
1.01408
1.01937
1.01725
0.970301
0.981066
1.00313
1
1.01078
1
1.01152
1
1.01707
1.01165
0.971805
1
1.00004
1.00099
1
1
0.98118
1
1.01787
1
1.06192
1.00875
0.962164
1.03759
1
1.01765
1.02657
1
1
0.989333
0.961993
1
0.994958
1.00978
1.0048
1
1.00397
1.0173
1
1.01521
1.01524
1
1.00032
1
1.01511
1.00634
1.01505
1.01123
1
1.01549
1.01735
1
1.01335
1
1.01611
1.01052
1
1
1.06055
1.0067
1.03234
1.008
1
1
0.999993
1.02928
1.01102
1.01635
1
1.03497
1
1.01536
1.05298
1.02152
1.01024
1.00789
0.994134
1
1
1.00432
1.02482
0.987408
1.01699
1.02137
1.00538
0.992351
1
1
0.996577
1
1
1
0.999974
1
1.01248
0.973372
0.995604
0.998949
1
1.00772
1.00038
1.00986
0.999838
1
0.999868
0.998914
1.00018
1.09572
1.00097
1
1
1
0.995263
0.999436
0.99984
1.00284
0.999854
0.990473
1
1
1.06561
1.02868
1.00509
0.976029
1
1.01049
1
1.0138
1.0036
1.01194
1.00081
1.05649
1.00925
1.0302
1.01936
1.00236
1.00766
1.00948
1
1.03169
1.04651
1.0052
1
1.01661
1.0318
1
1
1.01006
1
1
0.990531
0.970936
1.01267
1.01355
1.02855
1
1
1
1.00149
1
0.980861
1.02912
0.976752
1.01444
0.99258
0.94999
1.01681
0.971909
1
0.963216
0.984492
1.02115
0.975474
1.0187
1
1.01653
1
1.02223
1.0184
1
1
1.00766
1
1.01126
1
1.01553
1.0185
1.01869
1.01083
1.00689
1
0.975156
1
1.03404
1.01678
1.0247
0.992275
1
1
1.01171
1.01897
1
1.01216
1.01891
0.998168
1.00318
1.01809
1
0.966976
1
1.02903
0.991131
1.01796
1.01873
0.994815
0.987779
1.0187
0.990599
1
1
1.01205
1
0.984155
1.00171
0.997198
1.00092
1
0.974457
1.00854
1.00484
0.979573
1
1.01902
1.01133
0.987096
1.0152
0.987089
1
1
1.01871
1.01836
1
1
1
1
1
1.03596
1.01792
1
0.98335
1
1.01834
1
1.01716
1.00685
1.01794
1.0056
1.00781
1.01442
0.983307
1
1
0.991338
1.02553
1
1
1.00786
1.01976
1.01737
1
1.01226
1.02268
1
1.01376
0.995878
1.01372
1.02173
1.02375
1.01276
1
1.01728
0.980364
1
1
0.991407
1.02252
1.02346
1.02282
1.01683
0.977616
1.0231
1.03948
1.02481
1.02732
1.02428
1
0.998133
1.02256
1.02629
1.00549
1
1
0.99541
1.01558
0.979038
0.951311
1.00835
1
1
1.0245
1.03072
0.977057
1.01558
1.0289
1.02965
1.00256
0.954659
1
1.02788
0.9762
1.0148
1.01707
0.974741
0.998098
1.01518
1.00918
1.01593
1
0.994586
1.01802
1.01057
0.989668
1.01731
1.03257
0.999938
0.974208
1.01122
1.0212
1.01173
0.974628
1.00579
0.979656
1.03205
1.01594
1.01135
1
1.01113
1.02248
0.990328
1.03883
1.03082
1.03123
1.01147
0.998835
1.0114
0.969009
0.980205
0.994655
0.981391
1
1
1.01254
1
0.978565
1
1
1
0.977406
1
1
1.00525
1.01231
1.01928
1.0038
1
0.95189
1
0.996004
0.981116
1
0.980734
1.01117
1
1.01151
1.01009
1.0117
1
0.99834
1
1
1.02001
1
0.993386
0.995547
1.03293
1
1.03318
1
0.994544
0.95473
1
1
1.03562
1.01608
0.991423
1
0.995047
0.988919
1
0.996301
1
0.982325
1.06189
0.997906
0.954286
1
1
0.969566
0.997012
0.956647
1.01142
1
1.0202
1.01507
1
1.01011
1.01053
1
1.03634
1
1
1.01885
1.02683
1.03532
1
1
1
1.0128
0.983156
1.03791
1
1
1.03704
1
1.03992
1.00703
1.03884
1
1
0.991995
1.0023
1.00204
1
1.01091
1
1
0.997469
1
1.03465
1.01296
1
1
1
0.982081
1
1
1.01088
1
1.04077
1.01368
1.01053
0.975304
0.980246
1
1.02325
1.0104
1.01807
1.04729
1.01151
1.01641
1
1.00115
1.01705
1.00125
0.999346
1.02491
1.02418
1.04168
1.01122
1.04554
1.04455
1
0.980026
0.960381
1
1
1
1.01268
1
1.04358
0.971243
1
1.0339
1
1.01789
1.01274
1.01207
1
1.01319
0.999622
1
1.02825
1.00426
1.04254
1
0.983881
1.00541
1.01264
1
1
1
0.996214
0.972406
1.00946
1.04649
1.01059
1.01343
1.04749
1.01021
1
0.998008
1.01421
1.0202
1.10304
1.01953
0.999866
1
1.00319
1.02898
1.03377
1
1
1.01898
1.01361
1
1.0137
1.00564
1.01451
1.00204
1
1.00642
1
0.935716
1
0.955856
1.01429
1
1
0.986442
1
1
1.04852
1
1
1
1.01544
0.985572
1.00942
1.05075
1.01521
1.00958
1
1.01604
1.02432
0.984302
1
1.00994
1
0.98283
0.985393
0.96647
1.01578
1.01127
1
1.0168
1
1
0.999926
0.985811
0.989891
1
1
1.06503
0.986195
1
1
1
0.999986
1.02221
1.00612
1.01693
1
1
1.01327
1.01662
1
1
1
1
1.01737
1
1
1
1.04095
1.03354
1
1
1.01712
1
1
1
1.01786
1
1
1
1.02095
1.01761
0.979236
1
1
0.97167
1
1
0.975179
1.01828
1
1
1
1
1
1
1
0.985636
1.01804
1
1.02971
1.01015
1
1
0.954691
1
0.972485
1.02291
1
1
1.02929
1.0325
1
1
1
0.972138
0.972295
0.984326
1.0188
1.01322
1.02775
1
1
0.976237
1.02898
1
0.97292
1.01862
1
0.987564
1
1.019
1
0.987362
1
0.963233
1
1
1
0.952908
1.02861
1
1
1.01886
1
0.991026
0.977967
1.01904
0.956683
1
0.935761
1
0.965743
0.976578
1.0219
0.990319
1
1.01764
1.01892
0.9902
0.990688
1
1
1.00556
0.988774
1
1
0.968789
0.972322
1.01281
0.960525
1.01895
1
1
1
1.01907
1.01693
0.976987
1.01896
1
1.02738
0.991445
0.974136
0.978174
1.03322
1
1.01217
1.01917
0.990963
1.00993
1.0093
0.964767
1.00309
1
0.976211
0.965864
1
1
1
1
0.960584
1.01975
1
1.01159
1
1
1.00328
1.0208
1
1
1
1.01481
1
1
0.928076
1
1.01978
1
1.00573
0.966515
1
1
0.995383
1.01756
1
0.955418
1
1.03847
0.99463
0.999995
1.01971
0.99393
0.956947
1.00396
1
0.973185
1.03721
1
1
0.997296
1.01984
1.01099
0.94918
1
1.02236
0.974564
1
1.03072
1
1.06316
0.985932
1.01971
0.999537
0.955269
1.01143
1.01046
1
1.001
1.02283
1.00947
0.98891
0.979267
1
0.998061
0.988206
1
1
1.00153
1
1
1
1.01971
0.988573
1.01847
1
1.00548
1
0.999661
1
1.01723
1.01819
1
1
1.06453
0.948202
0.99952
1
1
1.0169
1
1
0.977662
1.01948
0.987149
1
1
1.00691
1.00799
1.00641
1.08209
1
1.00844
0.968699
1
1.0155
1.0058
1.01681
1
1.00002
1
1.03811
1.02489
0.976664
1.04169
1
1.00003
0.980049
1.01475
1.01869
1.03437
1
1.00104
1.00396
0.997474
1.00679
0.999977
1
1
1.01411
1
1.00456
0.989522
1
1.04513
1.01824
1.07115
1
1.03179
0.974753
1.01804
1.03852
0.97971
1
1
1.0088
1.03471
1.04233
1.00494
0.999301
1.02777
1
1.01176
1.0196
1
1
1.02968
0.974355
1.00216
1
1.04603
1.00247
1.00169
0.99975
1
1.00133
1
1.01921
1
1
1.00001
0.983365
1
1.07314
1
1
1.02036
1
1.0011
0.983348
1
1
0.999999
1
1
1
1.02006
1
1
0.999999
1
1
0.999338
0.979507
1
1
1
1
0.962108
1
1.00277
1
1
1
1
1
1
1.0216
1
0.983753
1
1.02274
1
1.00002
0.971981
1.00923
1.03127
1
1
1.02303
1.01912
1.0097
1
1.02135
1.03173
1
1
0.994606
0.998178
0.995194
1
1
1
1.00004
1.02304
0.983726
1
1.01268
1.002
0.979726
1.00912
1.02245
1
1.07192
1
0.985966
1
1
0.99495
1.01088
0.985722
0.976898
1
1
0.999998
1.01882
1.02213
1.02739
1
0.99758
1
1.01359
1
1
1
1
1
1
1.01868
1
0.959534
1
1
0.998614
1
1
1
1.03987
1.01897
1
0.978826
1.01416
1
1
1
1
0.999855
0.991046
1.01557
1.0371
1.03417
1.0234
1
1
1.01942
1.0098
1
1
1
1
1
1
1.02324
0.999998
1
1
1.03136
1.01932
1
1.00058
1
1
0.977892
1.00038
1
0.983223
1
1
1.01183
1
1
1.01458
1.00637
1.01929
1.01619
0.952914
1
1
0.990457
0.998095
1.02402
1.01378
1
0.997791
1
1.02023
1
1
1.0241
1
1
1
1
1.00097
1
1
0.991058
1
0.930221
1.02462
1.01738
0.976462
1
1.01206
1
1.01349
1.02573
1
1
1
1
1.01587
1.02479
0.98921
1.02416
1
1.0041
1.01266
1.09308
1.03701
0.993362
1
0.989859
1.00113
1
0.98961
1
1
0.990097
1.021
1
0.944004
1.02289
1.02518
1.02654
1
0.95244
1
0.988027
0.995048
1.01199
1.00812
1.00858
1
1.02424
1.01289
0.989418
0.981774
1
1
1
0.994443
1
1
0.978813
1
1
1.01783
1.01719
1
1.00727
1
1.01561
0.989087
0.970698
1
1
1.01758
1.06045
0.948393
1.02089
1.01545
1.01349
0.991647
1.01902
0.964789
0.952599
0.951061
1
0.954004
1
1.03181
1
1.00165
1
0.967855
0.978495
1.04844
1.0441
1
1.00001
0.994584
0.984393
0.975107
0.999104
1.01357
0.954469
1
1.00208
0.982923
1.03901
1.02478
1.01643
1
1
1
1
1.01035
1.01221
0.999111
0.96775
0.999677
0.967989
1
0.991373
1.04504
1.01851
1.0492
1.01606
0.994711
0.987439
1
1
0.953615
1
1.01778
0.991555
0.965577
1.01197
1.01026
0.991503
1.00844
1
0.999081
1
1
1.02133
1.00008
1.01225
1.03984
0.98949
1.01738
1.0208
1.06942
0.991551
0.963817
0.997948
1
0.98293
0.999897
0.997965
1.01104
1.01401
1.01151
1.0129
1.0114
1
1.01818
1.00957
0.966245
1
1.02004
0.990579
1.01689
0.985326
1
0.948185
1.01584
1.01329
1
0.98888
1
1
0.998648
1
1
1.01705
1.02499
0.973162
0.989674
0.965516
1.01971
1.01326
0.999994
1
1
0.97444
0.978815
1.01228
1.01206
1.02117
1
1.00645
0.95167
1.0137
0.987685
0.976205
0.95138
1
1.024
1.01739
1.01172
1.00002
1.01044
1
1
0.999905
1.00585
1.03484
1.01028
1.01691
1.02081
1.01152
1.00004
1
1.015
1.00878
1.03429
1
1.01329
0.979889
0.950931
1
1.00976
1.01258
0.979324
1.00218
0.962591
1.02089
1.03168
1
1.02428
1.00563
1
1.03369
1.01075
0.979789
0.954951
1.01451
1.02048
1.03364
0.97312
1.01627
1
1.02163
1
0.971086
1
1
1.01738
0.954575
1
1.01014
1
1.01556
1
1.03102
0.999143
1
1.00107
0.973188
1.01594
1.01291
1.02244
1.02119
0.950564
1
1.00473
1.00692
0.960023
0.993412
1
1.02209
0.983914
0.987475
1.00558
0.990043
1
0.956181
1.02179
0.988991
1
1.00376
0.976481
1
0.986905
1.00915
1.02283
1.01421
0.992786
0.978466
0.991966
1.03269
1.01517
1
0.980386
1.01845
0.996175
0.988187
0.968996
1
0.976125
1.01253
1
1.01499
1
0.97567
1.0093
1
1.02254
1.00997
1
1.0133
1
0.986552
1.02988
1.01825
1.02226
1
0.95593
1
1.01883
1.07745
1.01101
1
1.01517
1.03474
1.0154
1.02373
1
0.97547
0.983426
1
1
1.05155
0.978453
1
0.980976
1.0237
1
1.01109
1.04165
0.95052
1
0.990611
1
1.02403
1.03583
1.01882
1.01587
0.987439
1
1.01913
1
0.977486
1
1
1.01452
0.977784
0.999998
1.01255
1.02354
1.03525
1
1.02996
1.07497
1
1.00417
0.974799
1.01907
0.979906
1.01287
1.04543
1
1
1.00064
0.991329
1.02718
1.02467
1.03419
1.00157
0.981601
1.03052
1
1
0.994368
0.986467
1.03638
1
0.978576
0.975038
0.952839
1.01311
1.01856
1
1
0.987287
1.00816
1.0276
0.99561
1.02064
1.01383
1.0186
0.949858
1
1.02973
1
1.04725
1
0.992936
1
0.994175
1.06934
1.01882
1
0.994034
0.990706
0.951734
1.03037
1.01729
1.02298
1.01263
1.00975
0.999209
1.01085
1
0.983732
1.01946
1.01975
1.02429
1.01386
1.01974
1.00038
1
0.996021
1.01966
1.01931
1
0.996763
1.00689
1.01374
1
1.0106
1.00004
0.955204
1.00823
1.01282
1
1.00869
0.999375
1
1
1.01095
0.993212
0.989666
1.01131
1
0.988655
0.992857
1.01134
1.01611
0.993369
1.01596
0.999999
1.00567
1.0068
1
1.05186
0.992334
1.02158
1.01019
1.00118
1.01183
1
1.06998
1
1.00841
1.03198
1.01949
1
1.0199
1.01822
0.987504
1.01981
1
1.01963
1.00735
1.01135
1
1.02978
1.00089
0.99988
0.999384
1.01652
1.02352
0.957577
1.0144
1
1
1
1.04034
1.03361
0.999975
0.992486
1.0236
0.991691
0.974233
1.00705
0.991823
1.00124
0.977897
0.982284
1.01513
1.01743
1.00003
0.992182
0.99136
0.988347
1.02372
0.99991
1.00975
0.999599
0.999998
1
0.9909
1.00825
1.01614
1
1
0.992873
1.01908
1.00092
1
1
1.01028
1.00002
1
1.01396
1.00911
0.99305
0.955201
1.0006
1
0.974167
1.00357
1.02496
1.00346
0.954764
1.0116
1.04126
1.01796
1
0.992602
1.06537
1.00789
0.977165
1.02046
0.974687
1
1.00002
1
1.01015
1.07342
1.01021
1
1
0.993093
1.01413
1.02274
1
0.975887
1.01158
1.02084
1.02333
1.00125
0.9904
1.02246
1
1.01835
1.02121
1
0.99368
1.01038
1.01644
1.05512
1
1
1.00728
1.01004
1
1.04294
1.01912
1
1.00786
1.0427
1
1
1.00841
0.977195
0.992481
1.04497
0.988206
0.991792
1.00466
1
1
1.01056
1.02456
1
1.01535
0.98821
1.02207
1.00945
1
0.965746
1.00814
0.987183
1.00506
0.94311
1.02749
1.01877
0.995413
1.01177
1.00894
0.992638
0.976537
1.01137
1
0.998498
0.988292
1.01855
1
0.993778
0.99069
0.977934
0.990592
1
1.00436
1
1.02251
1.0335
0.940359
0.992184
0.993411
0.99077
1
0.987395
1
1.02571
0.96667
0.998148
0.994379
1.029
0.994399
1
1.01192
1.07672
1
1.00503
0.994464
0.96834
0.994969
1.04107
1.03786
1
1.02275
0.994817
0.999987
1
0.98353
1
1
0.98735
1.00776
1
1
0.935918
0.990448
0.994867
1.02253
1
1
1
1.00577
1.01492
1.0205
1.02522
1
1.02601
1.04072
1.02024
1.01218
0.952512
0.967841
1.0331
1
1
1
0.977254
0.979862
1.00223
1
0.996242
1
0.996822
1
1
1.00194
0.994539
0.978666
0.974298
0.937264
1
1
1
1
1
0.9956
0.999999
1.01815
1
0.994552
1.00558
1
1
0.997536
1.02584
0.997205
1.01688
1.01511
0.946385
0.991206
1.0257
0.975582
0.992827
1
1.06473
1
1.01911
1.01814
1.00824
1
1.07826
0.974989
1
1.01994
1
0.999999
1.03369
1.00162
1
1.02121
1
0.988925
1
1
1.01539
1.01134
0.979933
1.02708
1
0.999998
0.975798
1
0.977989
1.02285
1
1
1
1.02252
0.934041
1.00023
1
1.02201
0.992716
1.01652
1
1.04067
0.989368
1
1.01788
0.989344
1
1.00963
0.976138
1.02264
0.999998
1
1.02315
1
0.983476
1.01881
1.01041
1.03016
0.99112
0.98073
1.00678
0.974286
1.00261
0.999999
1
1
1.00017
1.06143
1.01968
1
1.00941
1.00225
1.03273
0.993077
1
1
0.990587
1
0.993249
0.979489
1.02897
1
1.02393
1.02091
1
1.01165
1
1.01073
1
1
0.999997
0.987563
1.02174
0.999295
1
1.02414
0.975639
1.00517
0.988036
0.9727
1.00227
1
1.00831
1.02493
1.02433
1.04197
1
0.999202
1
0.999999
1.02449
1.08011
1
0.963551
1
1.02292
1
0.990838
1.00974
1.02468
0.977147
1
1.02551
0.954817
1.00417
1
1.02398
1.03939
1
0.999997
0.985347
1
1
1.00683
1.02386
1.01827
1.01576
1
1
1.02537
1.00123
1
1.00875
1
1
1
1
0.983212
1.04242
1.03758
1
1
0.990586
1.02186
1
1.02431
1
1
1.02669
1.02698
0.992051
0.983334
1.00971
0.965183
1.02693
0.991667
1
0.999999
1.0052
1
1.00157
1
1.02472
0.998875
0.998103
1
1.00147
1
1.00385
1
0.978397
0.992323
0.937951
1
1.03818
1.04316
0.983563
1
1.00629
1
0.949108
0.990489
1.00395
1.02432
1.025
1.03346
1.00396
0.965072
1.01004
1
1
1
1.00264
0.999982
1
1
1.02579
0.990046
1
1.03994
1
0.990451
1
1.0134
1
0.991762
1.02728
1.02565
1.02074
1.00801
1.0006
1.01958
1
0.971056
0.982453
1
1.03869
1
1.01738
0.991229
1.01566
1
0.982963
1.00001
1.00545
1
1.00593
1.01434
0.984302
0.951315
0.955458
1
1.01284
0.991416
1
1.01028
0.998909
1.07869
1.02179
1
0.993356
1.02627
0.957618
1
1.02283
1.00647
0.99869
0.99091
1.02033
0.980365
0.985652
1.00832
1.04121
1.01789
1.00055
1
0.999987
1.03086
1
1.07925
1
1.01924
1
1
1
1
1
1
1
1.02134
1
1.00701
1.01674
1.01065
1
1
1.01172
1.00852
1.00009
1
0.988935
1.01511
1.00911
1
1
1.00145
1
1
0.999585
1
1
1
1.02335
0.983616
1.02703
0.959734
1
1.03452
1
0.990588
1.00626
1
0.999758
1
0.98979
1.00855
0.999993
0.949427
0.994512
0.982942
0.990426
1
1
1
0.975602
1.00881
1
1
1.02559
1.02573
1.0073
1.0276
0.991042
0.976908
1
0.997668
0.990442
0.990461
1.00315
1.02869
1.02715
1
1
1
1
1.02714
1
1
1.00563
1.00082
0.97067
1
1
1
1.0277
1.0755
1.02671
1
1
1.02609
1.0074
1
1.0032
0.971904
1
1.00485
0.985941
1
1.01394
0.999098
1
1.02805
1
1.05293
0.975078
1.02295
1
0.987197
1
1.0001
1.02959
0.983545
0.989645
1.02767
1
1
1
1.00813
0.977571
1
1.01138
1
0.981576
1
1
1.04174
1.00528
0.964974
1.03014
0.999993
0.986738
0.972099
1.03516
0.979179
1
1
1
1
1.02343
1
1
1
1.0067
0.977195
0.967163
1.04389
1
1
0.984743
1.00371
0.97775
1.03327
1
0.983628
0.998556
1.03195
0.967685
1.00957
1.00531
1
1.02747
0.982308
1.00534
0.980651
1.0105
1.00458
1
1.00427
1.01022
0.976853
0.974981
1.03122
0.970673
1
1
1.02846
1.00799
0.976976
1.00303
1.01466
1.02768
1
0.995441
1.04354
0.987402
1.00559
1.00511
1.03254
1
0.977894
1.02652
1.00909
0.999037
0.978828
1.02864
1
1.05779
1
1
1.0278
1
1
1.00451
1
1.02816
1
0.990286
1
0.98761
1
0.983901
0.963657
1
0.990204
0.980436
1.00513
1.00005
0.992111
1
1.00458
1.03381
0.994559
1
1
1
1.0377
0.981385
1
1.01629
1
1.03898
1
1.00611
1.0053
1.01271
0.989931
0.999236
0.979369
1.00476
0.987045
1.01253
1
1.00359
1
1.00518
0.965946
1
1
1
0.973739
1
1.00407
0.982863
0.999389
1.01289
1.04535
0.988694
0.997967
1
1
1
0.979049
1
1.03593
1
1
1
1
1
1
1.0108
1
1
0.988819
1
0.967841
1
1
0.988977
1.00292
1.03619
1
1
1
1
1
1.02069
1
0.959031
1
1.05726
1.05053
1
0.990875
1.03801
1.00492
1.00979
1
1
0.988206
1.01813
1
0.982256
1
1.01566
1
1
1
1.00017
1.01169
1
1.01135
1.01586
1
1
0.999617
1.01381
1
1
1.01611
1
0.993221
1.04189
1
1.04992
1
1
0.989743
1
0.957149
1.01587
1
1
0.973148
1
0.983241
0.991308
0.987371
0.985165
0.995227
0.989172
1.01169
1.01328
1
1.00629
0.961544
0.994693
0.959081
1.01325
1
1
1
1
1
1
1.00077
1
1
0.984546
1.01392
0.993678
1
1
1.01821
0.999493
0.973077
1.02129
1.04087
1
0.998376
1.00689
0.998111
1
0.998968
0.987579
1.00311
1.00014
1.00028
1
1
1.03513
0.998734
0.988652
1.02124
0.978619
0.972839
0.981655
1
1.02984
0.988764
1.01196
1
0.9805
1.03728
1.08471
1
1.01606
1
1
0.950896
0.990816
0.981601
0.988353
1
1.00062
1
1
1
1.0365
0.999977
1.00043
1.01658
1
1
0.999481
1
1.06538
1.00001
1
1.01885
0.988258
1
1.06374
1.00539
1
0.976961
1
1
1
1.01451
1
1
0.999597
1.0144
1.04459
1.00964
1.00638
0.99999
1.04839
1
1.03143
1.02443
1
1.03323
1
0.987637
1.02729
1
1
1.01953
0.989843
1
0.987087
1.03803
1
1.00643
0.938288
1.04838
1
0.951391
1
1.05401
1
1.01442
1
1.02426
1.018
0.998279
1
0.999995
1.02449
1
1.00039
1
0.940878
1.02832
1
1
0.998868
1
1
1
1
0.987499
1.0086
1
1.0086
1
1
1
1.02619
1
1.06748
1.0014
1.01062
0.999991
1.00571
1
1.00879
1
1
0.999564
1.02543
1
1.01212
1
1
1
1
0.999999
0.972848
1
1
1.0037
1.03057
1.00681
1.03846
1.05395
1.04079
1.00001
1.01253
1.00001
1
1.00996
0.97038
1.00016
0.998224
0.997826
1.00233
1.03582
1.00569
0.988435
1
1.02563
1
1.00598
1.04016
1
1
1
1
1.01135
1.03787
0.992638
1.02146
1.03201
1
1
1.04242
1.04275
1
0.998084
1.00014
1.00227
1
1.02206
0.997931
1
1.01405
0.989763
1
1
0.949044
0.998127
1.01235
1.03036
0.993081
1.00455
1.00001
0.97189
1.0061
1.02161
1
1.03127
0.946312
1
0.992841
1
0.999846
0.997545
1
1.01365
1
1
1.02878
1.0777
1
1
1.03139
1.00199
0.940905
0.998192
1.00915
1
0.984047
1.00935
1
1.00097
1
1.01442
1
1
1
1
1
0.999743
1.03432
1
1
1
1
1
1.00307
1
1
1.03129
1
1
1.03233
0.987848
1
1
0.99991
1
1.01764
1
0.977948
1.01649
1.01025
1
0.999099
1.00686
1
1.01974
1
1.03031
1.00332
1
0.985356
1.02834
0.998988
0.960885
1
1.01634
1.00428
1.01103
1.03675
1
1.04011
1
1
1.01546
1.03573
0.984735
1.00001
1
1
0.9782
1.03159
1
0.999539
0.984364
1.01783
1
0.981346
1.02532
1.02204
1
1.01908
1
1.02478
1.0428
1
1.00012
1
1.00001
0.988478
1.0097
0.999688
0.997179
0.987413
1.0189
1.02674
1.00046
1.01925
0.977071
1
1
1.03859
0.999547
1
1.00001
1
1
0.999712
1.02303
0.944007
1
0.982788
0.978988
1
1.03654
0.999697
1.01964
1
1
0.985625
1.01859
1
0.970662
0.985735
1
1
1
1.00322
1
1.07143
0.985269
1.03308
0.981261
1
0.990237
1.03028
0.999999
1.07855
1.00641
0.990063
1.00926
1.02856
1
1
1
1
1
1.00332
0.983474
1
1
1
1.01803
1
1.00617
1.03879
1.0169
1
1.01437
1.0229
0.999985
0.996825
1
0.999695
1
1
0.988873
1.00984
0.950465
1
1.01764
0.987669
1
1
1
1
1.01718
1.01003
0.959755
1
1
1.04615
1.05683
1
1
1.00191
1.01278
1.02889
1
0.999952
0.990221
1.01854
1.01719
1.01513
1.01911
1
1
1
1.00582
1.02477
1.01916
0.999992
1.07999
1.01662
1.0195
0.999746
1.02535
1
1.01882
1
0.999818
0.988306
1.01375
1
0.987975
0.991836
1
1
0.98884
1.05905
1
1.02985
1.02328
1.04079
1.04139
1.00002
0.973852
0.996426
1
1.01844
1.00227
1.01746
0.999802
1.01358
1
1
1.00097
1
1
1
0.963187
1
1.00646
1.02773
1.01783
1
1
1
1
1.01582
1.0261
1.04514
1.01976
0.999999
1.0294
0.999743
1.01735
1
1.09006
1.00395
1.01305
1
1.01532
0.953283
1.05227
1
1.01276
0.963959
1.02228
0.99196
1
1.00975
1.01353
0.997319
1.0298
1
1.02698
1
1
1
1.01689
1
1.01386
1.03177
1.02801
0.980284
1
1.00911
1
1.01141
1.01629
1
1
0.999872
0.969924
1.03661
0.956896
0.997589
1
1
1.04786
1
0.998922
1.02854
0.999997
1
0.978818
1.00757
0.98706
1
1
1.00004
1.02403
1.01455
0.960748
0.999998
1
1
0.999868
1.01542
1
1
1
1.00146
1
1.04731
1.01428
1
0.959365
0.970132
1
1
1
0.988045
0.988797
1.03881
1.02783
1.04027
0.984933
0.998903
1.02681
1.03972
1.01362
1
1.04388
1
1
1.0001
1
1
1
1
1
1
1.01615
1.07759
1.04649
1.01502
1
0.956888
1
1.00209
0.990826
1
0.983699
0.969825
0.983391
0.999997
1
1
0.971248
0.959378
1
1
0.999755
1.00272
1.00279
1.03356
0.96903
1.00073
0.997894
1.00839
1.02789
1
1.00423
1
1.03201
1
1
1.00658
1
1
1.02866
1.00825
1.05086
0.986312
1.03216
0.999998
1.00367
1
1.01613
1.00004
1.00014
1.01512
1.00363
0.981178
1.01425
1
1.01335
1
1.01423
1
0.9994
1.03061
0.950493
0.958908
1
1
0.98875
0.999415
1.01392
1
1.01581
1.02702
1.00076
1.07425
1
1.01284
0.985744
1.00547
1
1
0.991431
1.00078
1.02442
1.03087
0.986647
0.979708
0.963811
1
1
1
1.01847
0.989613
1.04643
0.999999
1.015
1.03576
0.968255
0.997804
0.945575
0.960378
1
1.01343
0.970343
1.03395
1
1.0251