/*--------------------------------*- C++ -*----------------------------------*\
  =========                 |
  \\      /  F ield         | OpenFOAM: The Open Source CFD Toolbox
   \\    /   O peration     | Website:  https://openfoam.org
    \\  /    A nd           | Version:  12
     \\/     M anipulation  |
\*---------------------------------------------------------------------------*/
FoamFile
{
    format      ascii;
    class       volScalarField;
    location    "3.2";
    object      rho;
}
// * * * * * * * * * * * * * * * * * * * * * * * * * * * * * * * * * * * * * //

dimensions      [1 -3 0 0 0 0 0];

internalField   nonuniform List<scalar> 
45568
(
2.39205
1.47517
2.69289
1.74357
1.12888
1.4615
1.88803
1.40001
0.914235
1.80659
0.792076
2.49134
2.05847
1.40001
0.925438
0.585499
1.40001
1.40001
1.27742
1.77844
1.40001
2.69359
1.82598
1.40001
1.40001
1.45783
1.40001
1.40001
0.579492
1.81628
1.19067
1.40001
1.40025
1.81204
1.1652
1.90228
1.13604
1.40001
1.79549
1.40001
1.40001
0.584856
1.40001
2.5008
1.40001
3.17879
0.585626
2.79724
1.16305
1.40001
2.44999
2.15533
1.40001
1.85028
0.797564
2.69543
2.54249
2.23329
1.89407
1.27988
1.40001
1.89894
1.40001
1.40001
2.25696
1.41686
1.40001
1.28505
1.8821
2.87341
1.0056
0.806422
2.41974
1.80134
2.55694
1.40001
1.40001
1.50893
1.27492
1.40001
1.95342
1.65194
0.815686
2.47315
2.04132
1.40003
2.3127
1.51996
1.88875
0.909488
1.82137
1.40001
2.04809
2.82505
1.40001
1.40001
2.86113
2.00257
1.27983
1.82277
1.06682
2.0945
2.45279
1.40001
1.40001
1.40001
1.40001
2.69822
1.40001
2.82393
1.40001
0.957928
1.19749
1.40001
2.84293
1.40001
1.40001
2.53336
2.26186
1.86317
1.40001
1.8653
2.69233
2.68913
1.40001
1.86581
2.57181
2.11745
2.85011
1.40001
2.43611
2.62805
2.75058
1.40001
0.585878
1.40001
1.40001
1.40001
2.04499
2.11711
1.40001
1.75129
1.82321
1.40001
0.60361
1.40001
1.40001
1.40001
1.40001
1.40001
1.56337
1.40001
0.667945
1.29006
0.654851
1.40001
1.40001
1.27158
0.572561
2.24293
0.567222
1.40001
2.26173
0.584281
0.977236
0.929418
1.89725
1.40001
2.20801
1.40001
0.584978
1.40001
1.56028
1.40001
2.28428
0.575572
0.573239
2.10126
2.34414
2.55694
2.25594
1.85938
0.587303
0.588686
1.51063
1.89348
1.40001
1.39985
1.84727
0.591022
0.593941
1.79968
1.84318
1.50215
1.97468
1.06398
0.589526
1.22312
0.957768
0.591861
1.41877
1.68146
2.69285
3.45853
3.20381
2.17353
1.86636
1.73783
1.21083
2.40937
1.25989
1.40001
2.10669
1.40001
2.69287
0.584669
0.586955
1.40001
1.79174
2.68823
2.06433
1.18915
2.05071
1.57336
2.32537
1.37273
0.582897
0.584148
1.40001
1.8319
0.887381
1.79798
0.698107
2.3936
1.86585
0.800507
0.934034
1.49064
1.40001
0.855792
0.548539
1.4965
2.29278
1.40003
1.49024
1.394
2.68604
1.49699
1.48503
1.40203
1.40001
1.32758
1.49444
2.74353
0.582669
1.31782
0.582215
0.584763
0.585593
1.33524
1.40001
1.32145
1.56336
1.40001
2.38317
1.32407
1.52744
1.73601
2.22003
0.582323
1.4854
0.584648
1.40001
2.3143
3.47262
1.30607
1.40001
1.6421
1.40001
1.40001
1.40001
3.67223
1.40001
0.974053
2.57783
1.79516
1.41952
1.36536
1.89485
1.41758
1.36383
2.56927
2.45987
1.80916
1.40001
1.40001
2.38401
1.82524
1.7949
1.19395
1.55687
1.31589
1.40001
2.68841
1.79385
1.19198
1.42056
2.71907
1.40001
1.75276
2.68071
1.40001
1.9886
0.920434
0.930127
2.03166
1.91569
1.46428
0.740667
2.12388
2.69689
0.84896
2.69501
1.40001
1.40001
1.78779
1.84526
1.89185
1.80544
1.40001
1.40001
2.16031
0.678306
1.651
1.40001
2.83764
3.67127
1.86998
2.33667
2.53198
3.68516
2.12382
2.68961
1.62445
1.40001
1.40001
1.40001
1.08343
1.40001
1.39998
1.32351
1.91914
1.40001
0.846653
1.83987
1.96423
1.40031
1.40001
2.0915
1.95373
3.52581
0.911183
1.72683
1.23698
1.2255
1.36822
1.40001
1.999
1.21859
2.53329
2.4596
2.24904
0.787527
1.40001
1.16199
1.39403
1.40001
2.11929
1.93771
0.976982
1.75062
1.65749
1.40001
2.4134
0.567209
1.40001
1.16941
1.38151
1.40001
1.50416
1.91549
1.40001
1.11867
1.40001
0.586299
1.40001
2.64608
1.40001
1.40001
1.50831
1.40001
1.40001
1.3164
1.40001
1.40001
1.28404
1.40001
1.40001
1.80768
1.40001
1.40001
1.40001
1.32301
1.40001
0.929195
1.76796
1.40001
1.90075
1.82552
2.60914
1.93159
1.40001
1.40001
1.40001
0.92355
1.40001
2.61475
2.55808
0.712112
1.40001
2.52338
1.40001
1.40002
1.40001
1.40001
1.37037
1.26464
1.40001
1.40001
2.27427
0.582629
2.303
1.40001
1.79835
1.4942
1.86882
1.40001
1.40001
2.67788
2.08572
1.36089
1.7314
1.4
0.971232
1.5472
1.40001
1.24243
2.57928
1.83302
1.85793
1.40001
1.40001
1.04242
1.40001
1.40001
0.792059
1.99576
0.830079
0.617349
0.608137
1.26436
1.56467
1.40001
0.900275
1.40001
2.61306
2.17683
2.34119
2.50906
1.87168
2.13912
1.12823
1.41843
1.42213
1.40001
2.14288
2.04047
1.40001
1.56632
2.31484
1.40001
1.40001
1.31635
1.40001
0.570352
1.61564
0.566594
1.40001
1.91232
1.81852
1.40001
1.75468
2.10068
1.40001
1.40001
1.81343
2.11872
2.28385
1.7651
1.40001
1.8802
1.23745
2.0025
1.40001
0.964909
1.40001
1.40001
0.577428
1.40001
1.40001
1.40001
1.40001
2.1186
1.71455
0.837498
1.40001
1.40001
0.977845
1.5305
1.40001
1.40001
2.68334
1.70386
2.71792
1.22267
1.40001
1.62681
0.581323
1.40001
1.51075
1.40001
2.08034
1.40001
1.17959
2.98667
1.40001
1.40001
0.986178
1.46705
1.40001
1.40001
1.40001
0.591506
0.594218
1.40001
3.54305
1.40001
1.40001
1.23903
1.40001
2.06529
0.580333
1.23806
1.69522
1.75054
1.40001
1.40001
1.7842
1.40001
1.40001
1.40001
1.00294
1.19484
1.40001
1.76181
1.23845
0.883273
2.6849
1.40001
0.604961
1.11055
1.91046
0.584533
1.46111
2.12975
1.81304
2.72898
1.44725
0.951633
1.21685
1.26823
1.40001
3.1064
1.36687
1.40001
2.40876
1.20067
2.01177
1.8961
1.07993
0.582989
0.83748
1.40001
1.40001
2.67953
0.583533
0.585092
2.47888
1.80651
2.37516
1.40001
1.68196
1.40001
0.915827
1.85651
1.36504
2.36554
1.36839
1.3089
1.40001
1.80284
1.40001
3.16034
2.20643
1.8813
2.66784
0.586998
1.40001
1.55404
1.183
1.40001
2.01423
1.31627
1.80211
0.920114
2.6946
1.2922
1.83099
1.40001
1.92278
3.71151
1.42752
1.18924
0.588956
1.40001
3.30203
1.40001
2.67158
1.40001
1.40001
1.10633
1.28678
2.46199
1.40001
1.38711
1.33285
3.56685
1.95488
1.60199
1.8025
0.843864
1.26017
1.97506
1.96607
1.20033
3.55001
2.06956
1.31089
1.40003
1.2222
1.40001
1.20517
1.00753
2.38849
1.56935
2.61889
0.962238
1.40001
3.32073
1.40001
1.34337
1.88492
2.04453
1.43634
3.76154
1.50374
1.40001
1.40001
2.84831
1.56766
0.583528
1.87204
0.759501
1.40001
2.37099
0.584864
1.48929
2.10598
1.3099
1.35807
2.46624
1.40001
1.40001
1.40001
1.84586
1.40001
1.8362
1.40001
1.40001
1.40001
1.40002
0.86323
1.61775
1.363
1.40001
1.40001
1.2109
1.61713
3.81644
0.984989
1.98348
1.71008
1.51863
0.842688
1.12181
2.69752
1.93099
1.2677
2.0828
1.40001
1.40001
1.94631
0.726415
1.80615
1.63987
1.43615
2.04402
1.85119
2.33604
1.95741
1.8172
1.45762
2.11443
2.03916
1.32656
1.40001
1.19759
1.49277
2.31264
1.48404
1.40156
2.70947
1.35986
1.94904
1.40001
2.66968
1.909
1.40001
1.27237
1.35716
1.40001
1.88903
1.45098
2.74954
1.47817
1.40001
1.40001
1.52406
0.833708
1.90395
1.31336
1.45426
1.84037
2.14296
2.68641
2.0508
1.03514
0.952691
1.21816
2.11517
1.46069
1.11457
1.55894
1.8375
1.84812
1.92289
1.99883
3.12828
2.81124
1.93079
1.4938
3.06115
1.48439
1.27051
1.99631
2.30301
2.04641
2.02308
1.89287
1.52242
2.70497
2.53766
0.769607
2.23625
0.790101
2.39649
2.20122
1.6987
2.22491
1.18653
0.95947
1.49498
1.71913
1.35477
1.40001
0.971014
1.40001
1.55202
1.77329
2.15179
1.40001
1.52776
1.40001
3.49374
1.83086
2.71196
2.45955
2.76111
1.48506
1.44708
2.97455
1.61452
2.71714
2.54461
1.40001
1.23984
1.40001
2.74894
1.40001
1.40001
1.34254
1.64737
1.82465
2.27759
1.17031
1.9165
1.62505
1.18731
2.19738
2.30357
2.11143
1.40001
1.98839
2.18858
1.47881
1.13285
1.14024
1.40001
0.578912
1.89606
0.58656
2.76677
1.5197
1.40001
1.40366
1.47922
2.20142
2.11978
1.40001
1.39637
1.38774
1.31576
1.58204
2.1458
1.32566
1.18775
2.06144
2.21679
2.14587
2.09564
1.94231
2.07191
1.37857
1.34201
2.316
1.4773
2.06493
2.13844
1.40001
1.40001
3.08304
1.40001
2.04467
2.68641
1.39836
1.32891
0.569077
1.48
1.20243
0.57263
1.69436
1.87839
1.32735
2.72064
3.50802
1.38011
1.32909
1.32532
1.40001
1.15916
1.92645
1.33273
2.142
1.16274
1.16734
1.33048
1.40001
1.3334
1.91286
1.05709
1.94294
1.33767
1.30494
1.14995
1.40001
1.364
1.30678
2.02352
0.996737
1.46963
0.580638
0.579434
1.20048
1.33015
2.1857
1.12568
1.39998
1.30358
1.90725
1.20741
2.58735
1.40001
1.44177
1.14926
0.590617
1.47876
1.38188
1.96654
1.40001
1.40001
1.56882
1.40001
1.9105
1.80767
1.48639
0.592919
0.590297
3.69827
2.7218
1.40001
0.914453
1.98026
1.83093
1.15093
1.4227
1.44037
1.40001
2.05521
1.37991
1.19408
1.29183
1.40001
1.32518
1.38016
0.587428
1.313
1.88055
1.40001
1.55764
1.4
1.40001
1.40001
1.3929
2.81667
1.47601
1.40001
1.40001
1.53574
1.3978
1.38116
2.04356
2.03456
1.78448
1.36929
1.34208
0.5787
1.40001
1.40001
1.34655
1.51695
0.593817
0.591292
1.40109
1.90843
1.3122
1.79354
1.24788
1.40001
1.40001
1.84429
1.40001
0.598833
1.54534
1.40001
1.12742
1.77366
1.40001
1.90092
1.61286
1.64344
1.88229
1.15751
1.40001
3.34751
0.58129
2.01919
1.14428
2.12882
1.40001
1.0577
1.40001
1.40001
1.12327
1.13118
3.03646
2.21055
2.06315
1.40001
1.52317
1.64708
1.63432
1.16047
0.588315
0.5729
1.88956
1.3485
0.58697
2.10987
1.25376
2.08189
0.574363
1.35513
1.50585
1.40001
1.92824
1.93705
1.58847
1.6435
2.00937
1.61835
1.60524
0.586528
2.15443
1.48025
0.999773
1.96782
1.26756
1.57894
1.65411
1.08438
0.585091
1.91313
2.11391
1.40001
1.40001
1.88732
1.84018
2.61571
1.40001
1.2261
1.46549
2.14313
2.33493
1.78571
3.11657
1.40001
1.42008
1.22906
1.22945
1.83628
1.40001
1.27813
1.36219
1.20476
1.89289
1.70011
1.40001
3.02554
1.09295
3.01216
2.71739
1.40753
1.21276
0.80324
1.3682
1.16296
1.40001
1.39999
1.91002
1.62798
1.27976
1.50932
2.41452
1.58119
1.49863
1.82309
2.37421
1.58558
1.40001
1.76281
2.09063
1.1643
1.51015
1.50788
1.26082
1.46068
1.17835
1.40001
2.19865
0.876582
2.16097
1.40001
1.61531
0.583039
3.11819
2.15599
1.79565
1.90599
1.397
1.26316
1.86584
1.39102
1.98811
1.47868
1.61145
1.40001
1.40001
1.3854
2.00717
1.40001
2.41284
2.65295
1.35956
1.24272
1.40001
2.02044
1.36016
1.25027
1.93283
1.57497
1.40001
1.42669
1.40001
2.71333
1.40001
1.15016
1.53616
1.74458
1.85457
1.53897
1.25905
1.40001
1.07441
1.34591
0.582243
2.69061
1.61001
2.02402
3.39481
2.01873
1.40001
2.03984
0.5824
2.05199
1.83327
1.6276
2.68887
2.39297
2.15746
2.16778
0.582054
1.15752
1.40001
1.66595
1.63073
1.34289
1.66002
3.12165
1.34091
1.39992
1.45979
1.56268
1.41439
1.41275
1.60043
1.40001
1.44395
1.47563
1.47342
1.26667
2.86044
1.40001
2.82152
1.40001
1.40001
2.78723
1.89853
1.09348
1.52354
1.52096
1.40001
1.40001
1.78686
1.7738
1.58746
1.4
1.39693
1.31064
1.33315
1.40847
0.893191
2.02328
1.43182
1.38434
1.40001
1.2017
1.85178
2.22466
0.905379
0.584176
2.00307
1.11604
0.584211
1.40001
1.49676
2.03234
1.27569
1.93389
2.06027
1.40001
1.90581
1.40001
1.93847
2.07238
1.58161
1.8584
1.40001
1.25887
1.57654
1.28743
2.68613
1.31868
0.850111
2.01528
2.17292
2.6906
1.40001
1.61695
1.6204
1.64322
1.64134
1.6826
1.67775
1.38964
1.09438
1.40001
1.70893
1.40001
1.70454
1.85726
1.73086
2.07252
1.75413
0.605017
2.1019
1.7243
1.74813
1.74972
1.7394
2.68836
1.18598
1.41629
0.585809
0.592778
1.78579
1.77977
1.84385
1.40001
1.40001
1.69828
1.23579
1.47946
1.44123
1.70197
2.69199
1.83781
1.40001
1.40001
0.834484
1.519
1.40001
1.40001
2.20353
1.40001
1.88648
1.87999
1.91782
1.91771
1.55269
1.51224
1.68123
1.96023
1.60225
1.35076
1.97831
1.96175
2.68602
1.61093
1.33992
0.584352
1.56664
1.45832
1.40001
1.05636
1.50339
0.569262
2.70932
0.732653
0.583087
1.59629
2.68913
1.40001
1.25138
1.40001
1.75812
1.42487
2.71203
1.75296
0.870946
0.787872
1.90392
1.54861
2.69055
2.93436
2.06199
1.55886
2.05806
0.564543
2.69119
1.91448
1.08182
2.70341
2.70752
1.31236
2.6905
1.40055
1.85723
2.68493
1.42856
1.85158
2.69378
1.58484
2.90801
2.24158
2.69316
0.831676
1.68983
2.57934
1.42007
2.67982
1.16992
1.39995
2.67843
1.33202
2.0461
1.40001
1.4606
1.7604
1.38171
3.12371
2.18378
1.43137
2.1006
1.16134
1.40001
2.82994
1.35329
2.57113
2.68384
2.69119
2.69557
2.70184
1.13361
2.90187
2.68702
0.847619
2.07093
1.55191
2.41621
1.7983
1.85712
1.86293
2.37942
1.40001
1.40001
1.44466
1.38238
1.35642
2.3937
1.77129
2.30193
1.38938
3.32208
2.31204
2.18881
2.10261
1.40001
3.97519
2.27117
3.22943
3.40878
1.65428
3.12383
3.1659
3.90755
1.33142
1.62119
4.10242
1.40001
1.40001
1.40005
2.89487
1.40001
1.40001
1.40001
2.92203
1.40001
1.53933
1.26943
2.06573
2.22666
2.05916
0.873805
1.9088
0.589021
1.66957
2.01643
1.25288
1.25267
1.14948
1.70366
2.53962
1.04243
1.87457
1.96794
1.40001
2.14461
0.96677
1.41039
1.61302
1.40001
1.40001
1.40994
1.60642
2.96667
2.00801
3.02002
2.46659
1.73024
1.40001
2.93269
2.49292
1.40001
1.40001
3.01737
1.59402
1.18077
1.16482
1.59488
2.86367
1.42161
1.47879
1.88727
1.40001
1.40001
1.1752
1.80306
0.990846
1.52309
1.40001
1.52624
1.09866
1.57638
3.04916
1.58391
1.59259
2.26444
1.4264
1.85784
1.61293
3.01099
1.82999
1.40001
2.23511
2.68149
1.4
1.40001
1.83811
2.69619
0.586516
2.49649
1.35179
1.33931
1.79538
1.55882
1.45933
1.91759
1.85674
2.04956
1.40213
1.40001
2.00164
1.23448
2.68683
2.69478
2.24395
4.07095
3.52795
1.9711
1.40001
2.69309
1.78513
1.40001
1.60602
0.592879
1.58947
2.17566
1.13256
2.18104
1.38931
2.38852
2.62694
1.13622
1.13651
2.68443
1.67166
1.37318
1.37276
0.630842
1.40001
3.04741
1.57383
0.792159
1.88322
2.80378
0.593078
3.53732
1.42956
2.69982
1.42221
1.81305
1.11602
2.686
1.25056
1.4
2.1266
2.08135
0.841431
2.06171
1.7784
2.13182
1.67385
1.35736
1.40001
1.84825
1.66477
1.88595
3.94594
1.40001
3.92475
1.16731
2.13357
1.87575
1.79036
1.15421
1.53895
1.40001
1.40001
1.93161
2.04996
1.05037
1.82399
1.94244
1.8083
1.79906
3.08412
1.98269
1.40001
1.40001
1.99034
1.40556
2.03016
1.54145
1.24949
2.81942
1.40001
1.50244
2.18636
2.78045
2.7761
1.44585
1.60924
3.3629
1.40001
1.40001
1.02898
1.93941
1.50825
1.40001
1.61519
1.35921
1.40001
1.40001
1.16093
1.00168
1.58512
1.99413
2.74625
1.40001
1.40001
3.68345
1.40001
1.40001
1.64066
1.40001
1.84075
1.51866
1.40001
2.72577
1.38397
1.40001
1.40001
1.40001
1.14732
2.13963
1.8473
2.05944
1.40001
1.97667
2.05746
1.92633
2.71063
1.40002
1.40001
1.2301
1.13231
1.47904
1.82124
3.29308
1.20791
1.36361
1.8278
2.16658
1.39935
1.88339
1.40001
1.83874
2.20051
0.902829
2.18976
2.20555
2.6993
2.47877
1.84496
3.00363
2.07738
1.40001
1.34362
2.09914
2.44339
2.13145
1.21052
1.55256
2.74123
2.14986
0.578418
1.40001
2.12405
1.53727
2.36468
1.44452
1.40001
1.80269
2.65574
2.0426
1.40001
1.42155
1.52504
1.40001
2.40174
1.40005
0.584352
1.30309
2.1036
1.40535
2.0976
2.48862
1.40001
1.63777
2.05553
1.56682
1.12379
1.917
3.10084
1.88987
1.16818
1.99388
2.68573
1.51531
1.39759
1.64854
1.21964
2.68522
1.40001
0.591776
1.44545
1.14796
1.40001
2.46107
2.66615
1.47258
1.47115
1.80824
1.4
1.59227
2.71648
2.40148
2.68962
1.26181
1.6082
1.86588
2.68264
1.17331
1.57228
2.32978
2.27361
2.00327
1.18171
2.69164
2.09459
3.0155
2.7159
1.40001
1.40001
2.6846
1.88032
2.11161
0.799892
0.809641
1.40001
1.89002
1.40001
1.62063
1.40001
1.88864
1.40001
1.86978
1.54256
3.16244
2.23851
1.40001
1.40001
3.77844
1.40001
1.25576
1.65441
2.95702
3.36657
2.03518
1.40001
1.33672
2.71725
1.34451
1.40001
1.59718
1.40001
2.1163
1.40001
1.31358
2.69387
2.68945
1.80864
1.64366
1.4
1.47863
2.00728
1.4
1.40001
1.51257
1.38745
1.40001
1.00504
2.70902
1.25224
1.29013
1.9499
2.70712
2.72624
1.15256
1.40001
1.16723
1.70732
1.40001
1.29669
2.72717
2.70951
1.17508
1.49813
1.21274
2.70699
1.3427
1.61657
1.40571
1.76507
2.79013
2.40059
1.4
1.61823
2.68672
1.40001
1.55717
1.34663
1.5495
1.5716
1.0349
2.53986
2.97913
3.15335
2.18181
1.23629
1.03501
2.50393
1.57456
1.51038
2.99457
3.05211
1.40001
1.40001
2.27778
1.14863
1.40001
1.93957
2.24015
1.36321
2.02579
1.40001
2.03684
1.40001
1.40001
1.40001
1.73829
1.78658
1.40001
1.47257
1.87999
1.89551
0.91816
2.43706
1.90796
2.82508
1.39998
2.40815
1.89361
1.40001
1.17448
1.40001
1.96986
1.90608
1.20621
2.65587
1.81881
1.97779
2.07395
1.76196
1.68519
1.51692
1.77692
1.72802
1.88906
1.73064
1.72114
2.72126
1.72152
2.0469
1.48712
1.40001
2.15897
2.06541
1.38179
1.2696
2.7071
1.56419
1.67694
2.72111
2.21382
1.08744
2.20631
1.40001
1.23206
1.40003
1.48028
2.03098
1.63456
1.64716
0.582445
1.99404
2.30476
2.69043
1.61664
1.40001
1.52851
1.6554
2.70692
2.48711
1.40001
2.33889
2.68905
2.33223
1.45732
3.50273
2.10761
1.40001
2.7085
1.58345
2.07218
2.1305
1.6937
2.71823
1.40001
2.71426
1.40001
1.07282
1.26513
1.40001
1.0822
1.65902
1.40001
2.20473
1.91294
3.24644
2.97006
3.52928
1.40008
1.55246
2.02293
1.4
2.19585
1.10221
2.15319
2.03633
2.71428
3.20551
2.6843
2.08502
2.03498
1.40155
3.78073
1.67887
0.844439
1.80322
1.89349
3.50075
1.90235
0.845804
1.81169
1.88314
1.54602
1.40001
3.34121
3.54214
1.21574
1.35505
1.40012
1.40001
1.89796
0.976482
1.53145
2.42275
2.26163
1.1307
1.40001
1.20424
1.98178
0.579069
3.64838
1.35839
1.38917
1.40053
1.88976
3.17118
2.51032
1.85147
1.10395
1.17142
1.8572
1.86604
3.66618
1.40001
2.68368
1.13608
1.15091
1.61762
2.70961
2.48586
2.55773
1.40001
1.72181
1.40001
1.40001
1.40001
1.7453
1.40001
1.46572
1.73956
1.05983
1.55504
1.15297
1.75263
1.12482
1.56784
1.40001
1.10832
1.25611
1.40001
1.28505
1.88828
1.40001
1.40001
1.40001
2.23482
3.61673
1.51156
3.06578
1.50802
1.95303
4.31475
1.40001
2.34626
1.40001
3.04288
2.70913
1.60271
2.71871
1.95384
2.70327
1.38968
1.60952
2.03274
1.40001
2.70519
1.40001
2.13923
1.40001
1.40001
1.40001
1.10834
2.69175
1.40001
1.40001
2.1272
1.56024
1.10031
1.89977
1.88692
1.88755
2.54763
1.10562
1.40001
2.06379
1.40001
1.36051
2.71057
1.36984
1.86749
2.06045
2.21719
2.00595
2.03274
1.74879
0.580279
2.68749
2.68879
1.7457
2.02864
1.40001
1.74344
2.67941
3.25668
0.971097
2.19239
1.29208
1.40001
1.55054
3.55625
2.23393
2.11005
2.21792
1.75339
1.29886
1.40001
1.57236
1.40001
2.6987
1.40001
1.9402
2.23613
1.40001
2.72191
1.60798
1.42146
2.70862
1.93265
2.68616
1.40001
1.24305
1.27071
1.86806
1.80467
1.31204
1.30853
2.69131
2.69889
1.71056
1.91769
1.49753
1.7142
2.18574
2.68887
1.40001
1.40001
1.72195
1.40001
2.71024
1.92531
1.81406
1.79616
1.40001
1.40001
1.72213
1.08054
1.26175
1.52576
1.5833
1.78372
1.57221
1.64612
2.68671
2.17782
1.40001
1.80371
1.53078
2.59058
1.87343
1.28955
2.69114
1.18347
1.47888
1.88488
2.01289
1.89356
1.09792
2.68826
1.91646
1.96154
1.6172
2.69576
2.69088
1.40001
2.69289
2.02097
1.11273
2.04131
2.06005
1.84863
1.85921
1.93045
1.5573
1.86317
2.70584
2.0283
2.71025
0.58614
2.69192
1.60711
0.832405
1.18822
1.51427
1.18558
2.06371
3.26045
2.19297
1.40001
2.09852
2.08948
2.05303
1.3255
1.25753
1.57855
1.57795
2.70687
1.48806
1.98641
1.99718
1.16746
1.90966
2.68565
1.40001
1.51341
1.14477
1.12638
1.40001
2.18364
1.13405
2.02821
2.03224
2.13403
2.16886
2.09455
1.40041
2.09048
2.07519
2.7247
1.16705
1.79751
1.11499
2.68724
1.90085
2.01687
2.688
1.40997
1.39931
2.01872
1.18865
2.68647
1.46736
1.78108
1.65912
2.68891
1.40001
1.40001
1.39682
1.39661
0.589213
2.68855
0.976157
1.10362
3.1322
1.16986
1.60058
2.12974
1.22489
1.96379
2.6813
1.4559
1.44046
2.07787
1.39285
1.51088
1.76651
1.84609
1.51602
1.58428
2.35153
1.50379
1.40001
1.4
1.40001
1.40001
2.34612
1.48642
1.67746
2.20749
1.40001
1.88293
1.40001
2.70732
1.40001
1.50989
1.50702
1.84856
1.40001
2.71463
3.90317
1.39512
1.83093
1.55604
1.8493
1.8288
1.9677
1.12393
1.60376
1.40001
1.40001
1.11905
1.78943
2.00141
1.40001
1.2376
1.13593
3.00564
1.73278
1.61878
1.85129
1.22652
1.40001
1.14152
1.49845
1.23657
2.90553
2.15123
1.79449
2.18267
1.69499
1.40038
1.60976
1.5851
1.85759
1.16874
1.40001
1.57042
1.40001
1.40001
1.37865
1.16371
3.88836
1.59366
1.40001
1.49683
1.72761
1.53591
1.71274
1.40001
1.40001
1.40001
1.70851
2.54508
2.08014
1.3245
1.40001
0.963177
1.61515
1.41982
1.39054
2.40422
1.68828
1.759
1.64378
1.4391
1.29799
3.64756
1.09968
1.5469
2.07449
1.33872
0.985485
1.40787
2.33913
1.48307
2.71353
1.61088
1.8834
2.01974
1.27522
1.40001
1.6131
2.71339
1.40001
1.98532
1.40001
1.80394
1.797
1.84906
2.66771
1.40001
1.14448
1.68593
1.38093
1.40001
0.970828
1.05749
1.21552
1.08646
1.09375
1.37733
1.40001
1.15668
1.26258
1.12865
1.18085
1.99439
1.62871
1.35649
1.40001
1.40001
3.01081
1.71557
1.63976
1.71177
1.92515
1.92154
2.63681
1.40001
4.02081
1.63107
1.24395
0.888068
1.15728
1.40001
2.40126
1.40002
1.80273
0.969971
1.40001
2.01718
1.63901
2.70597
1.40001
2.71124
2.05276
1.62153
1.65529
2.71077
1.39998
1.62878
2.72492
1.23157
1.65604
1.4
1.81809
1.45114
1.23876
1.78997
2.15345
1.40001
2.05475
1.40001
1.40001
1.40001
2.71236
1.40001
2.10479
2.06494
1.41902
2.9444
2.96735
1.55358
0.773947
1.58709
1.40001
1.85036
2.71407
2.7103
0.931609
1.90629
1.20258
3.75128
1.81813
2.71428
1.54988
1.41508
1.62142
2.70828
1.40923
1.4
1.48688
2.71347
3.04209
1.50714
1.37685
1.49377
1.50538
1.40001
2.1899
3.87193
1.08889
1.07802
1.40001
1.40001
1.89407
1.40001
1.40041
2.01936
1.44667
1.40001
1.40001
1.94821
1.52387
1.0888
1.40001
2.06323
1.40001
1.69377
1.66931
1.40001
1.70076
1.63009
2.50367
1.54732
1.40018
2.93667
2.57321
1.40001
1.40001
1.7232
1.39068
1.58776
1.40001
1.74374
1.7197
1.3812
3.52109
1.35242
1.59668
1.32874
1.65984
1.22013
2.90281
2.21636
1.0512
1.20361
1.52766
2.73231
1.09603
1.73951
1.35651
1.58381
1.33703
1.75115
0.972377
1.47093
3.06876
1.40069
2.71755
1.78088
2.73306
1.37545
1.79656
1.40001
1.93331
1.68008
2.19711
1.40001
2.11212
1.97411
1.39464
2.83697
1.40001
1.66723
1.35609
2.13846
2.16778
2.7564
1.40001
2.51826
1.54871
1.40001
1.63385
1.20789
1.5365
2.59463
1.90521
1.40001
2.08096
1.53529
1.8646
1.9715
1.40002
1.2171
1.20921
2.65126
1.92978
0.591677
2.19931
3.11305
2.14187
2.70685
2.14117
1.40001
1.40003
1.9371
3.15063
2.23187
2.05675
1.26001
1.24607
1.89705
1.90409
2.711
2.70187
2.09028
1.40104
1.5671
1.40018
2.70845
2.50616
1.57337
1.27137
1.84921
2.07725
1.38044
2.11701
2.08231
1.38989
2.75617
1.78867
3.68946
2.00951
2.70769
1.59378
2.23373
2.71513
1.78421
2.44957
1.58883
1.94831
2.52038
1.17901
2.40195
1.66687
1.40386
2.0903
2.71341
1.83438
1.66451
0.821092
1.07353
2.29647
1.17718
1.51398
1.58566
0.929125
1.5303
1.39975
1.71953
1.07227
1.25885
1.72185
0.989762
1.58279
1.40001
1.58346
1.40001
1.68806
1.40001
1.24017
2.35392
1.2227
1.40001
1.01162
1.81089
1.42677
1.79714
0.970571
1.61383
2.34328
1.21536
1.29838
1.71455
1.38868
1.40001
1.40001
2.83827
1.7923
3.62338
1.81153
1.15222
1.40001
1.40001
1.2286
2.12591
1.49324
1.53201
2.6231
1.31448
2.47016
2.12375
1.50009
2.12165
2.70774
1.90818
1.06641
1.27692
2.3365
1.4
2.35472
1.18959
1.40001
1.40001
1.79425
1.40005
1.91146
2.51098
1.42716
1.40001
1.48224
1.40001
1.40001
1.40001
1.4
2.23615
1.40001
1.44506
1.17029
1.58229
1.44832
1.40001
1.0329
2.73138
1.47929
2.59024
1.19678
2.47827
2.71117
3.73452
1.27434
1.40001
1.46132
1.02861
2.34088
1.32147
1.40001
1.40001
2.23864
1.40001
3.43655
3.7568
2.73263
2.71653
1.77357
1.40001
1.40001
1.40001
1.89421
2.42323
3.15946
3.79595
1.40001
1.90684
1.39942
2.17707
2.61049
2.24048
1.23262
1.4
1.43154
1.74139
2.70892
1.13648
1.83871
1.50798
2.07648
1.44774
2.70789
1.40001
1.22795
1.13147
2.71006
1.24391
1.79024
1.21371
1.92236
1.40001
1.24014
1.22512
3.74522
1.95081
1.40001
1.40001
1.35257
1.40001
2.23613
1.40001
1.40001
1.73546
1.38292
1.65775
2.70051
1.6166
3.69536
1.50039
1.92005
1.40001
1.55626
1.40001
1.40001
1.84253
3.80156
1.40001
1.97834
1.31562
1.47184
4.25693
1.39967
1.40001
1.40001
0.589986
2.01703
2.46568
1.40001
2.09598
1.47613
2.11558
1.52719
2.21901
1.40001
2.70733
1.57653
1.40001
1.79143
1.38675
1.93618
1.40001
2.70359
1.61978
1.40001
1.56258
1.40001
2.04684
2.71102
2.02989
0.980055
2.19444
2.71106
1.14103
2.4592
2.15759
1.87444
1.40002
1.91798
1.40001
1.98408
1.18412
1.39556
0.999985
2.59906
1.8134
1.48151
1.40001
2.20729
1.14159
1.40001
1.40006
1.36394
2.99713
1.40008
1.40001
3.03061
1.40001
1.40001
1.40328
1.52198
2.67399
1.35328
1.40001
2.77175
1.40001
1.40012
1.14427
1.44092
3.67339
3.68096
1.40001
1.40001
1.40004
2.3042
1.45771
1.53828
1.7746
2.28609
1.40001
1.79859
1.40001
1.40001
2.13093
1.62093
2.86272
1.40001
2.55221
1.40001
1.15829
1.40047
2.33891
1.40001
2.70392
1.55002
1.60993
1.40001
1.40001
1.40001
1.26053
1.32549
1.40001
2.71114
1.24025
1.19377
1.17836
1.91944
1.40001
1.40001
1.39862
1.18308
1.48592
1.40001
2.71041
1.40001
1.40001
1.40001
2.28822
1.4
1.61019
2.69161
1.61436
1.25131
1.40001
2.89908
1.45251
1.87246
1.49757
1.27011
2.53332
2.89577
1.52324
2.7103
3.2156
2.28933
1.40001
3.29455
0.973031
2.35934
1.47471
1.40001
2.71079
2.29583
1.40001
1.1871
2.31049
1.40001
1.97007
2.02033
1.95753
1.42215
1.40001
1.39851
1.40001
1.40001
1.4001
1.67289
0.985225
2.02468
1.4662
1.63391
2.7514
1.24658
1.55615
0.988795
1.40001
2.44679
1.40001
2.27342
1.38856
2.26944
1.40001
1.40001
1.40001
1.40001
1.3959
2.43612
1.40001
1.38384
1.40001
1.40001
1.40001
3.88903
2.06618
3.91478
0.985521
2.98031
1.40002
3.8834
2.09313
1.52417
2.71445
2.57027
2.46034
1.45423
1.45528
1.40001
2.0866
2.21063
0.969342
0.776747
2.08846
1.40001
3.02839
1.13216
2.21728
1.40019
3.61684
1.44155
2.57724
2.40226
2.71511
0.60235
2.88052
1.40001
0.979018
1.40001
1.40001
1.9371
1.54907
1.61088
1.18619
1.40001
3.01043
3.6174
1.40001
1.40001
1.77675
1.45639
2.50348
1.39964
1.28197
1.76964
2.70655
1.40001
2.54511
1.71907
1.40001
2.79902
1.38539
1.40001
1.19118
0.981943
1.26037
1.5342
1.73226
2.59959
1.40001
1.28634
2.70942
1.43341
1.45297
1.40001
1.78292
2.70641
1.14793
1.40001
2.62439
2.00595
1.50654
3.4908
1.39416
1.40001
0.96421
1.40001
2.71106
1.2561
1.23618
1.23774
2.18219
1.35127
1.36933
1.40001
1.40001
2.5167
1.40001
2.71593
1.39407
1.13392
2.02212
1.40001
0.968828
1.40001
2.06493
1.99946
1.89254
1.59509
0.650822
2.70932
1.70331
1.40001
1.40001
1.65579
1.63999
1.40001
1.87068
3.86678
1.56188
2.10151
1.40001
1.40001
1.40001
1.28252
2.20329
1.79043
1.1897
1.66859
1.41456
1.50085
2.47955
1.40001
1.40001
1.40001
1.02376
1.23547
1.25032
2.70773
1.24768
1.21336
2.45727
1.40001
1.57971
1.35298
1.40001
1.40001
1.40001
3.75462
2.69139
2.41037
1.36546
2.51646
1.50852
1.83888
1.7181
3.65828
1.40001
1.40001
1.40001
2.72043
1.54425
1.40001
2.7908
1.40001
2.38095
2.04159
2.70747
2.71506
2.68217
2.6434
1.40001
2.71488
2.69081
2.53946
1.40001
2.29355
1.4
1.40001
1.85005
2.64485
1.40001
1.40001
1.59501
1.61553
2.53175
1.15361
2.68099
1.89639
1.40001
1.40001
1.40001
2.25994
1.40001
1.04214
2.99046
3.02569
2.39718
1.88392
2.71104
2.08377
2.16921
1.40001
1.40001
1.80205
2.71549
1.40001
1.7091
1.79195
2.12945
2.71942
2.2132
2.28105
1.21466
1.6482
1.83249
1.67296
3.22605
2.68878
1.84137
2.09988
2.70874
2.7114
1.57129
1.93892
1.40001
1.40001
2.71087
2.45874
1.28445
1.19699
2.72601
1.56659
2.40015
1.40003
1.69752
2.78692
2.70757
1.40001
1.47808
1.46615
2.25767
1.63455
2.70822
3.6908
2.71454
3.70119
2.70946
1.38693
0.949184
1.78689
2.71281
1.40001
1.46175
2.38462
2.65661
1.38832
1.40001
2.71158
1.14277
0.618802
0.986397
1.40001
1.1473
1.55399
2.71181
2.27022
1.71335
1.69047
2.70288
1.40001
1.04
0.984656
1.19698
1.87181
1.40001
1.85091
2.14305
1.40001
2.70652
2.53834
3.21336
1.53336
1.51415
1.75535
1.39999
0.883861
1.40001
2.15388
2.7105
1.96349
1.37552
1.32743
2.08155
1.79584
1.61142
1.86221
1.40001
1.32714
1.40001
1.60897
1.80526
1.25226
2.15008
1.3238
1.40001
1.90488
1.50234
1.49029
1.40001
1.40001
1.15198
2.49321
2.67232
1.40001
1.40001
1.76084
1.40001
1.75417
2.59658
1.39168
1.40001
1.63053
1.40001
1.04623
1.319
2.70226
1.40547
1.75132
1.40001
1.76517
2.03714
1.953
1.751
1.40001
1.56571
2.72025
1.40001
1.20434
1.77549
1.2111
1.74183
1.74645
1.95811
2.70882
1.87198
1.40001
1.40001
1.40007
1.74651
1.40001
2.04055
1.84498
1.40001
1.40001
1.40001
1.39992
2.70519
1.46448
0.600371
2.68803
1.19263
3.27379
1.83759
1.15611
1.15913
1.56543
1.96449
1.40001
1.81919
2.698
1.89245
0.980049
2.715
2.23742
1.40001
1.9423
2.74398
2.69353
1.40001
1.49659
1.49475
1.93177
1.77393
1.96256
1.57362
2.82171
2.71072
1.39635
2.52875
2.72979
2.71837
1.84024
2.30283
1.40001
1.21217
1.59743
1.40001
1.40001
1.40001
1.10089
1.40001
1.40001
1.88959
1.40001
1.40001
2.71036
1.40002
1.80626
2.70994
1.40001
1.40001
1.39775
1.40001
2.82261
2.71029
1.90533
1.16955
2.71029
2.16364
1.11064
1.40001
1.40001
1.8299
2.09692
1.40001
1.18406
1.58083
1.8834
1.17138
1.16189
1.52717
1.14836
1.40002
1.48368
2.70834
2.71336
1.15889
1.15264
2.71328
1.40001
1.40001
1.08257
1.40001
1.82724
1.40001
2.71273
1.44133
1.44505
1.40001
1.40001
1.70456
2.68917
1.01527
2.71083
1.4004
2.6504
1.82466
1.40001
1.82182
1.40001
2.69079
1.40001
1.29283
1.14988
1.40001
1.40001
1.40001
2.44564
1.64233
1.40001
1.40001
1.52205
1.39943
2.532
1.5146
1.40001
1.55569
0.858724
1.19493
1.4
1.40001
2.70765
1.8668
1.58739
1.40001
1.72429
1.86669
2.50198
2.71167
1.84135
2.67981
1.40001
1.58082
1.40001
3.58754
2.01167
2.71104
2.41577
2.70874
1.15359
1.40001
1.40001
1.08538
1.4
1.40001
2.71182
1.12966
1.11387
1.66895
1.40001
1.40247
1.40001
2.66702
2.24678
1.40001
1.40001
1.64253
1.40001
1.74853
0.982138
1.78829
1.06915
2.98875
3.49538
1.43914
2.71912
1.51583
1.40001
3.81463
1.40001
1.94838
2.71125
1.10024
1.40001
1.40001
2.71449
1.60419
1.29828
1.40001
0.620708
2.38163
2.04378
1.40515
2.70598
2.37409
1.40001
1.1973
1.67219
1.16345
2.28549
1.77579
1.40001
1.40001
1.40384
1.45891
2.427
2.71126
2.72044
2.07486
1.33507
1.22642
2.71772
1.76497
2.07425
1.68205
1.40001
1.40118
1.40001
1.4
0.977874
0.994684
2.10852
1.4052
1.40001
2.09856
1.61351
1.46371
1.32131
1.46443
1.40001
1.61475
0.985904
1.40001
1.40001
1.47363
2.7112
0.98243
1.40001
1.40001
1.40001
1.40001
1.24841
1.1187
2.67296
2.22518
1.90418
1.40001
1.4
2.71305
2.76562
1.25801
1.52472
2.55043
1.40001
2.81932
1.40001
1.40001
1.40028
1.40001
1.45124
2.10266
1.40001
1.80553
1.40001
2.71927
1.74272
2.62864
1.40208
1.40025
1.40001
0.965086
1.43266
1.40001
2.28774
2.70868
1.40001
2.08321
2.03551
3.02453
1.40001
2.63316
1.40001
1.40013
1.20912
1.22041
1.39142
2.23091
1.40001
1.24733
1.39633
2.71782
1.85421
1.40001
2.71892
1.35404
1.40001
0.602131
2.56255
1.1742
0.927192
2.298
1.40001
2.18402
1.40001
1.40001
1.40001
2.71534
2.33175
1.40001
1.40244
1.49283
2.94223
1.05242
1.40001
0.982829
2.71081
1.40001
1.25736
0.983742
2.37134
1.40001
2.30166
1.27265
1.40001
1.40001
1.40001
1.40001
2.79101
1.36753
0.981335
1.39938
2.32824
1.31949
2.68218
2.9231
1.40001
1.40001
1.40001
1.84079
1.40001
2.17054
2.82397
2.11975
2.16787
0.598802
0.800955