/*--------------------------------*- C++ -*----------------------------------*\
  =========                 |
  \\      /  F ield         | OpenFOAM: The Open Source CFD Toolbox
   \\    /   O peration     | Website:  https://openfoam.org
    \\  /    A nd           | Version:  12
     \\/     M anipulation  |
\*---------------------------------------------------------------------------*/
FoamFile
{
    format      ascii;
    class       volVectorField;
    location    "0.09";
    object      U;
}
// * * * * * * * * * * * * * * * * * * * * * * * * * * * * * * * * * * * * * //

dimensions      [0 1 -1 0 0 0 0];

internalField   nonuniform List<vector> 
23795
(
(1.96433e-14 -1.12418e-13 0)
(2.65603e-14 -3.78824e-14 0)
(-2.33082e-15 7.2654e-14 0)
(-7.92308e-14 -3.59529e-14 0)
(-5.00579e-16 -2.21433e-14 0)
(-4.66719e-06 6.38434e-07 0)
(-1.26897e-05 -1.26438e-05 0)
(5.08535e-14 2.16765e-14 0)
(9.29041e-14 5.96299e-14 0)
(7.0895e-14 -1.13792e-13 0)
(2.10168e-14 4.32021e-15 0)
(0.61584 0.00630813 0)
(-7.29663e-14 -1.32788e-13 0)
(-0.169714 0.00158776 0)
(0.501139 0.139285 0)
(-4.90077e-14 1.07466e-13 0)
(-1.44829e-13 7.31234e-15 0)
(9.51109e-14 -1.53383e-14 0)
(-2.53055e-13 9.51323e-14 0)
(0.503457 0.152419 0)
(6.72782e-14 -9.1458e-15 0)
(-7.52472e-14 -2.51356e-13 0)
(8.4187e-14 1.14949e-13 0)
(2.37059e-14 3.98317e-14 0)
(0.0447347 0.193457 0)
(7.45728e-14 -7.17979e-14 0)
(-6.93928e-14 -4.49365e-14 0)
(-5.24497e-14 7.22099e-14 0)
(1.19075e-14 2.33473e-13 0)
(6.87972e-14 -9.091e-14 0)
(0.508952 0.000659172 0)
(-7.62708e-14 1.19611e-14 0)
(2.70171e-14 -4.06447e-15 0)
(-8.45461e-14 3.50869e-14 0)
(0.525769 0.0265553 0)
(-8.99264e-14 -2.75636e-14 0)
(6.05455e-14 -1.83034e-14 0)
(1.12919e-09 -4.43077e-10 0)
(-5.58362e-14 1.63713e-14 0)
(-6.23276e-14 -5.38161e-14 0)
(9.40335e-14 -4.10101e-14 0)
(-7.0548e-15 3.21893e-14 0)
(1.14249e-13 -4.68141e-14 0)
(-1.27041e-13 -1.19844e-14 0)
(0.505945 -0.0018338 0)
(1.57945e-13 -9.76293e-14 0)
(-0.105414 0.0225204 0)
(0.509444 0.000952501 0)
(2.12637e-13 -6.29516e-14 0)
(-0.197383 -0.0250081 0)
(-0.182111 -0.0120059 0)
(-4.33362e-14 -1.45915e-14 0)
(-8.2212e-14 4.52134e-15 0)
(0.488204 0.10795 0)
(-1.45675e-14 -7.5625e-14 0)
(-7.36354e-14 1.96244e-14 0)
(2.30031e-13 9.50006e-16 0)
(-9.62905e-14 9.15482e-15 0)
(-1.47627e-14 2.01028e-14 0)
(-4.95839e-14 3.84071e-14 0)
(8.82157e-15 -3.73522e-14 0)
(1.74798e-14 -1.43808e-13 0)
(7.7088e-14 -1.78631e-14 0)
(7.08434e-14 -6.38221e-14 0)
(-1.54047e-13 3.66464e-14 0)
(0.163225 -0.0320151 0)
(-7.88249e-15 -2.14002e-14 0)
(-1.19827e-14 -3.65435e-14 0)
(-1.28019e-13 -4.92032e-15 0)
(9.93396e-14 -4.69368e-14 0)
(3.59593e-14 -1.83178e-14 0)
(-1.89965e-14 3.35762e-14 0)
(-5.9989e-14 -2.27729e-14 0)
(-2.57772e-14 4.00052e-14 0)
(4.74375e-14 -2.94954e-14 0)
(-1.08728e-13 -4.38273e-14 0)
(0.492921 0.0012428 0)
(-1.03057e-14 1.46005e-14 0)
(4.72836e-14 1.48431e-13 0)
(0.533559 0.0153118 0)
(-4.5768e-14 1.34226e-13 0)
(2.17997e-15 6.06366e-14 0)
(2.30449e-14 -2.68076e-14 0)
(6.1315e-14 -5.54812e-14 0)
(7.52872e-14 4.63496e-14 0)
(-4.63831e-14 6.91655e-14 0)
(1.71512e-14 3.15561e-15 0)
(2.23626e-14 -4.23835e-14 0)
(6.64996e-14 -9.00754e-15 0)
(4.23044e-14 1.11491e-13 0)
(-1.74836e-13 2.06305e-14 0)
(3.67402e-14 8.52151e-14 0)
(0.511719 -0.00101489 0)
(-4.51001e-14 1.7814e-14 0)
(-8.75635e-14 2.0553e-14 0)
(0.495009 -0.00751282 0)
(-1.09597e-13 4.69244e-14 0)
(-4.13469e-14 5.33611e-14 0)
(1.67825e-14 -7.01687e-14 0)
(0.538273 0.102661 0)
(0.507708 -0.00242672 0)
(-8.77379e-14 -1.00129e-13 0)
(0.482858 0.00033251 0)
(3.16709e-14 -1.73175e-14 0)
(0.525705 -0.0243773 0)
(2.24753e-14 -1.14959e-14 0)
(-4.24244e-14 -1.40596e-14 0)
(-3.91e-14 4.68e-15 0)
(1.69103e-14 -5.52894e-14 0)
(2.28786e-14 1.20665e-14 0)
(7.8151e-14 6.90411e-14 0)
(-2.76186e-14 2.30962e-14 0)
(-8.39601e-15 6.45215e-14 0)
(0.507646 -0.00222515 0)
(-1.56356e-13 4.75595e-14 0)
(-7.99861e-14 -7.29529e-14 0)
(-1.37635e-13 1.70364e-15 0)
(4.21984e-14 -3.62301e-14 0)
(1.92836e-14 -2.19438e-14 0)
(7.9217e-14 5.22837e-14 0)
(-2.1684e-14 -3.75365e-14 0)
(0.509276 -0.00178352 0)
(1.09293e-14 -7.44536e-14 0)
(-6.35391e-16 4.02801e-14 0)
(-8.175e-14 -1.52159e-14 0)
(-1.89911e-13 -4.1397e-14 0)
(8.92006e-14 -1.09179e-13 0)
(1.36155e-14 -6.22185e-14 0)
(-3.46571e-14 4.791e-14 0)
(-1.64945e-14 1.75752e-14 0)
(-4.33317e-14 7.23621e-14 0)
(-2.26291e-14 -5.9757e-14 0)
(-9.63544e-15 8.78938e-14 0)
(6.04656e-15 2.54929e-14 0)
(0.000766042 -0.000645561 0)
(0.322769 0.016593 0)
(0.364162 0.0844207 0)
(8.74514e-14 -1.0135e-13 0)
(-1.40135e-13 1.24449e-14 0)
(6.64564e-14 -2.28362e-14 0)
(-4.4617e-14 4.51101e-14 0)
(6.14088e-17 1.2947e-14 0)
(0.507785 0.00125423 0)
(-8.18925e-14 -1.50586e-13 0)
(-8.21667e-14 6.39514e-14 0)
(-6.36356e-14 -6.61661e-14 0)
(9.45031e-15 -3.66551e-14 0)
(3.37928e-14 -5.62016e-14 0)
(-6.50697e-14 3.1045e-14 0)
(-1.1934e-13 5.98653e-14 0)
(-1.4893e-14 6.7485e-14 0)
(8.21429e-14 6.07987e-14 0)
(1.11475e-14 3.07301e-14 0)
(0.530268 0.0967898 0)
(7.1172e-14 8.94074e-14 0)
(1.00811e-13 -4.81582e-14 0)
(5.35322e-14 -1.26577e-13 0)
(2.22875e-13 9.70448e-14 0)
(1.08053e-13 -2.43725e-14 0)
(6.54367e-14 1.00423e-13 0)
(4.55263e-14 -1.2771e-13 0)
(8.13594e-14 -1.19412e-14 0)
(1.73179e-13 -2.40646e-14 0)
(-0.179186 0.010306 0)
(-9.6449e-14 4.97652e-14 0)
(8.35365e-15 -1.25092e-14 0)
(0.546808 0.00786327 0)
(-2.14869e-14 -9.82729e-14 0)
(-1.11015e-14 3.73416e-14 0)
(0.503298 -0.0162188 0)
(7.9772e-15 8.20053e-14 0)
(0.601097 0.000677907 0)
(-1.46297e-13 -2.78449e-16 0)
(0.509584 0.00640241 0)
(6.44098e-14 -2.08692e-14 0)
(1.28663e-13 -9.3635e-14 0)
(5.60898e-14 -1.04593e-13 0)
(1.37076e-13 -4.1757e-14 0)
(3.75352e-14 5.77701e-14 0)
(-8.39982e-14 1.2813e-15 0)
(0.459453 0.0559934 0)
(-7.87048e-14 1.7637e-14 0)
(1.44838e-14 1.03834e-14 0)
(-5.51572e-14 -4.58402e-14 0)
(8.58772e-14 -5.90431e-15 0)
(-6.85649e-14 -1.1205e-13 0)
(-8.25616e-15 -5.20828e-14 0)
(2.21608e-15 8.30061e-14 0)
(-7.13044e-14 2.01804e-14 0)
(0.511286 0.117677 0)
(2.41087e-14 5.53002e-14 0)
(4.86623e-14 7.65717e-14 0)
(-1.73317e-13 -3.78574e-15 0)
(4.33391e-14 7.53731e-14 0)
(1.65572e-14 -1.21343e-13 0)
(9.36328e-15 6.94569e-14 0)
(-6.96647e-14 -1.23471e-14 0)
(-1.17733e-14 9.30857e-15 0)
(0.541805 -0.000687171 0)
(2.19061e-14 4.55317e-14 0)
(-0.15277 0.242393 0)
(0.507247 0.00152743 0)
(-6.39422e-16 1.03407e-14 0)
(-4.97858e-14 -3.33066e-14 0)
(-6.27398e-14 -4.54546e-14 0)
(1.19524e-14 4.50631e-14 0)
(7.87372e-14 4.35293e-14 0)
(-1.61892e-14 3.98738e-14 0)
(4.51652e-14 -1.07826e-13 0)
(-1.28751e-14 4.99783e-14 0)
(2.33917e-13 -7.19902e-14 0)
(2.48455e-14 -4.6809e-15 0)
(-4.9234e-14 1.64032e-14 0)
(-6.09093e-14 6.37934e-14 0)
(-4.69357e-14 6.19494e-15 0)
(8.18145e-14 -9.22296e-14 0)
(-2.75609e-14 -2.87097e-14 0)
(6.32117e-14 8.43379e-15 0)
(0.137509 0.0145192 0)
(0.110282 -0.0250043 0)
(-8.91528e-14 -2.07387e-13 0)
(-1.62405e-14 -3.49892e-14 0)
(-9.36751e-15 -1.75553e-14 0)
(7.52926e-14 7.81234e-14 0)
(-1.09868e-14 2.48679e-14 0)
(-1.62493e-14 -3.59276e-14 0)
(0.512187 0.032456 0)
(-1.52873e-13 -2.3452e-14 0)
(-1.3662e-15 8.94947e-14 0)
(0.548583 -0.0218193 0)
(-5.55165e-07 1.72091e-07 0)
(-6.88972e-14 7.31009e-15 0)
(-1.56488e-13 -1.28581e-13 0)
(-6.58087e-14 -7.6513e-15 0)
(3.09029e-11 3.18652e-11 0)
(-5.41197e-14 2.56846e-14 0)
(9.33677e-10 -1.87067e-08 0)
(1.20493e-14 2.29209e-14 0)
(-3.81097e-09 -6.55379e-09 0)
(-7.85613e-14 -8.93715e-14 0)
(-1.2606e-13 -2.37306e-14 0)
(3.286e-10 -1.58918e-11 0)
(2.92083e-13 -6.06787e-14 0)
(9.13072e-15 -2.6468e-14 0)
(-1.31504e-15 -6.48609e-14 0)
(4.64505e-14 2.19077e-14 0)
(1.18358e-13 -1.56863e-13 0)
(4.14459e-14 1.26484e-13 0)
(-2.39103e-14 -4.41345e-14 0)
(0.515755 -0.000154592 0)
(1.14089e-13 -1.104e-14 0)
(0.0117642 -0.00384354 0)
(-8.86902e-14 -4.11246e-14 0)
(-4.19937e-14 -7.07444e-14 0)
(0.498651 0.0114894 0)
(-1.21104e-13 -5.50399e-14 0)
(0.628797 -0.0117234 0)
(0.164139 -0.0102178 0)
(2.45931e-14 3.22871e-15 0)
(-1.31069e-13 1.3203e-13 0)
(-4.60397e-15 -3.1072e-14 0)
(-9.17783e-14 6.99487e-14 0)
(-1.12284e-13 -1.93909e-14 0)
(3.73782e-14 1.71107e-14 0)
(-4.14289e-14 7.80654e-14 0)
(0.545263 0.0365032 0)
(0.514713 0.000470798 0)
(-0.515509 0.0872291 0)
(9.54648e-15 -4.00727e-14 0)
(2.44897e-14 4.36499e-14 0)
(0.510356 -0.000683139 0)
(-8.53621e-14 -6.34539e-14 0)
(-2.68845e-14 3.15279e-14 0)
(1.07191e-13 -4.04487e-14 0)
(-3.09406e-14 2.5669e-14 0)
(-5.27829e-14 1.04019e-13 0)
(-1.31623e-13 4.22735e-14 0)
(-1.01296e-14 9.05394e-14 0)
(-9.45258e-14 9.86952e-14 0)
(-6.34857e-14 1.28057e-13 0)
(-7.4156e-14 5.82705e-14 0)
(1.03674e-13 2.15732e-14 0)
(-5.09853e-14 -1.70742e-14 0)
(5.00689e-14 -8.41414e-14 0)
(-8.06732e-15 5.19504e-14 0)
(0.610624 -0.0275955 0)
(-6.66061e-14 3.67151e-14 0)
(0.524775 -0.0138151 0)
(-6.25155e-14 -1.46174e-14 0)
(-2.53845e-14 4.76093e-14 0)
(1.40788e-13 -8.18742e-14 0)
(-3.98717e-15 -5.83876e-14 0)
(0.501748 -0.0192871 0)
(-1.59656e-14 1.3377e-13 0)
(4.69883e-14 -3.26796e-14 0)
(0.506309 -0.00308631 0)
(0.152195 -0.00863584 0)
(-4.67839e-14 1.36601e-13 0)
(0.506239 -0.00098152 0)
(-3.26117e-14 -1.19477e-13 0)
(6.41809e-14 5.59103e-14 0)
(-5.86994e-14 3.18998e-14 0)
(-1.28481e-14 -1.224e-13 0)
(-1.87215e-13 -7.6183e-15 0)
(-4.83177e-14 -5.08389e-14 0)
(-4.88664e-14 7.35752e-14 0)
(5.58382e-14 -3.41803e-14 0)
(-3.90565e-14 1.50635e-13 0)
(8.10767e-14 5.79729e-14 0)
(-3.64361e-15 -1.02903e-13 0)
(-2.26191e-13 -1.04211e-13 0)
(1.19985e-13 -3.2487e-14 0)
(0.50716 0.00649512 0)
(4.78149e-14 1.06009e-13 0)
(0.501181 0.107007 0)
(1.20401e-13 5.74885e-14 0)
(1.33229e-13 -3.11651e-14 0)
(-7.67972e-14 2.81623e-14 0)
(7.9346e-15 -1.46807e-14 0)
(-6.40116e-14 -2.41658e-14 0)
(6.63386e-14 -1.11994e-13 0)
(-2.15499e-13 -4.21614e-14 0)
(-2.81747e-14 -8.52722e-14 0)
(4.1213e-14 -6.78659e-14 0)
(1.89486e-14 3.16462e-14 0)
(0.501416 -0.00863972 0)
(5.73893e-14 1.82785e-13 0)
(0.500247 0.117066 0)
(5.91307e-14 -1.5514e-13 0)
(-7.40767e-15 -8.41101e-14 0)
(-2.29161e-14 -1.46734e-13 0)
(-4.8131e-14 2.62399e-14 0)
(0.180649 0.0145637 0)
(3.07474e-14 -1.36967e-15 0)
(2.95377e-14 8.88389e-14 0)
(7.81091e-14 -9.46055e-14 0)
(2.21494e-14 -3.426e-14 0)
(-1.25841e-13 2.25568e-14 0)
(0.41615 0.0815185 0)
(-6.50632e-14 -2.93702e-14 0)
(7.3634e-14 -1.77134e-15 0)
(4.2848e-14 -1.01714e-14 0)
(-8.61879e-14 -9.04471e-14 0)
(-6.94329e-14 -5.261e-14 0)
(-6.27244e-14 -1.83941e-14 0)
(0.507752 -0.0016375 0)
(4.82107e-14 1.9848e-14 0)
(2.56332e-14 -1.20679e-14 0)
(9.47461e-14 6.45383e-14 0)
(-6.64645e-14 -1.86441e-14 0)
(4.45784e-14 5.12407e-14 0)
(2.56405e-14 -1.03839e-13 0)
(-4.21357e-15 -2.15519e-13 0)
(1.15031e-13 3.9981e-15 0)
(8.5223e-14 -9.92393e-15 0)
(1.72485e-13 -1.29961e-13 0)
(6.59932e-14 -5.52093e-14 0)
(4.35327e-14 1.52089e-14 0)
(1.94358e-14 -2.09484e-13 0)
(5.68531e-14 -6.89579e-14 0)
(1.2147e-14 3.45265e-15 0)
(9.70766e-14 -2.45702e-14 0)
(-4.72457e-14 -4.6963e-14 0)
(-9.46022e-14 9.28156e-14 0)
(-8.553e-14 -9.22564e-14 0)
(0.537323 -0.0177196 0)
(5.03553e-14 -2.87513e-14 0)
(1.85848e-14 1.51242e-14 0)
(2.41247e-14 -6.63744e-14 0)
(3.24121e-14 -9.29372e-14 0)
(2.76191e-14 2.27137e-14 0)
(0.553696 -0.0295976 0)
(-4.16578e-14 6.32569e-14 0)
(-1.36669e-14 -2.81157e-14 0)
(-9.23692e-14 -1.51325e-13 0)
(-1.8454e-14 1.67031e-14 0)
(-7.7693e-14 -1.31328e-15 0)
(-2.23571e-08 2.28217e-08 0)
(-5.59535e-14 -2.43607e-14 0)
(-1.06048e-13 -1.17073e-13 0)
(7.68356e-14 1.092e-13 0)
(5.18743e-14 1.01794e-13 0)
(-1.04615e-13 -1.36051e-14 0)
(3.16436e-14 4.29613e-14 0)
(8.73392e-14 3.82128e-14 0)
(1.64481e-14 -4.15759e-14 0)
(3.19943e-14 7.75388e-14 0)
(-6.04445e-14 -2.44082e-14 0)
(-1.09526e-13 4.75825e-14 0)
(7.74245e-16 -1.80342e-13 0)
(0.507011 -0.00163903 0)
(-1.5998e-13 -1.84164e-14 0)
(0.209217 0.0649189 0)
(-7.48979e-14 3.62465e-14 0)
(-8.47698e-14 -1.17604e-13 0)
(-2.50102e-14 -3.72427e-14 0)
(0.506084 -0.00885054 0)
(1.53734e-13 -4.08369e-14 0)
(1.42298e-15 -1.20565e-14 0)
(0.505236 -0.00929289 0)
(-1.1647e-13 -1.9272e-14 0)
(1.43444e-13 -1.15663e-13 0)
(8.2596e-14 6.05615e-14 0)
(-6.2306e-14 6.99472e-14 0)
(1.14902e-13 -5.93286e-14 0)
(0.0364501 0.159514 0)
(8.30141e-14 7.30675e-14 0)
(-2.15595e-14 1.49754e-15 0)
(0.501786 -0.000173422 0)
(1.00198e-13 2.33612e-14 0)
(-5.12978e-15 -1.0457e-14 0)
(2.08328e-14 -7.32485e-14 0)
(-2.60978e-14 5.29555e-15 0)
(5.16752e-14 2.67066e-14 0)
(1.20889e-13 -7.3519e-14 0)
(1.44421e-13 2.13458e-14 0)
(4.9295e-14 -2.99002e-14 0)
(-8.19612e-14 -2.02502e-14 0)
(0.504025 -0.00141639 0)
(-1.0388e-13 -4.82157e-14 0)
(0.551352 0.00828991 0)
(0.106992 -0.0157283 0)
(8.68677e-14 9.88818e-14 0)
(1.7336e-14 1.84561e-14 0)
(8.75462e-14 -1.46139e-13 0)
(1.76327e-09 -6.19655e-10 0)
(8.05187e-14 3.62183e-14 0)
(-1.16687e-13 3.89266e-14 0)
(1.85645e-14 3.56679e-14 0)
(2.07068e-14 4.94199e-15 0)
(-7.28421e-14 -5.61029e-14 0)
(7.91931e-14 3.07284e-14 0)
(-0.768487 0.450358 0)
(6.83836e-14 3.69209e-14 0)
(4.15859e-14 -6.16406e-14 0)
(0.537185 -0.0158675 0)
(-1.25695e-13 -1.56141e-13 0)
(3.51204e-13 -5.12874e-14 0)
(-5.19565e-14 5.85334e-14 0)
(-3.94222e-14 9.15778e-14 0)
(1.02466e-13 6.09346e-14 0)
(-1.34276e-13 -3.1299e-14 0)
(8.14165e-14 5.85535e-14 0)
(-8.06517e-15 -5.8906e-14 0)
(-2.40755e-14 5.00477e-14 0)
(-5.85328e-14 3.88637e-14 0)
(1.22406e-13 7.181e-14 0)
(-1.53701e-14 -1.80781e-16 0)
(6.7406e-14 2.66752e-14 0)
(2.13236e-14 -3.94412e-14 0)
(-1.16219e-14 -1.30334e-13 0)
(4.40724e-14 -4.48426e-15 0)
(0.505962 0.000351961 0)
(4.27389e-14 -1.41537e-14 0)
(8.00787e-14 -1.83176e-13 0)
(3.48186e-15 1.3028e-13 0)
(1.07306e-13 -2.90998e-14 0)
(-2.6828e-05 8.38124e-05 0)
(-5.718e-14 8.54375e-14 0)
(0.0947827 -0.0687984 0)
(-2.87203e-14 -7.849e-14 0)
(-3.90431e-14 1.80733e-15 0)
(2.76229e-14 9.19055e-14 0)
(9.95275e-14 -3.55443e-14 0)
(-1.14189e-13 -4.22289e-15 0)
(1.40124e-13 1.25224e-13 0)
(-1.58236e-14 -3.22372e-14 0)
(1.25361e-13 5.16988e-14 0)
(1.62685e-13 6.39383e-14 0)
(5.51624e-14 5.35003e-14 0)
(0.498437 -0.0217963 0)
(3.04577e-14 -3.34994e-14 0)
(0.548738 -0.0151109 0)
(-5.19911e-14 -1.00476e-13 0)
(1.22752e-13 -7.50939e-14 0)
(5.24997e-14 -6.53168e-14 0)
(4.62906e-14 -2.59464e-14 0)
(1.10559e-13 -6.31119e-14 0)
(-4.9754e-14 -4.88101e-14 0)
(7.87811e-14 -3.04367e-14 0)
(-6.51861e-14 -9.34906e-14 0)
(1.50064e-14 2.37524e-15 0)
(0.506718 0.00316292 0)
(3.57377e-14 4.73183e-14 0)
(-1.36895e-13 5.39455e-14 0)
(1.14763e-13 -1.15616e-13 0)
(-1.02927e-13 7.9835e-14 0)
(0.130513 0.0668142 0)
(0.464888 0.056351 0)
(4.97667e-15 1.46334e-14 0)
(0.508345 -5.92729e-08 0)
(5.48142e-14 -4.93327e-14 0)
(-9.03742e-15 4.26039e-14 0)
(3.20345e-14 6.29076e-14 0)
(4.70357e-14 -2.43799e-14 0)
(-3.13667e-14 -4.17884e-15 0)
(0.452957 0.0624566 0)
(0.505402 0.0175162 0)
(0.504857 -0.0225577 0)
(-4.01977e-14 2.76126e-14 0)
(-6.21871e-14 4.26699e-14 0)
(4.32026e-14 9.69984e-14 0)
(6.91202e-14 -9.69305e-14 0)
(0.594601 0.00166287 0)
(1.30282e-14 -8.40373e-14 0)
(-2.76793e-14 -6.28619e-14 0)
(-4.61698e-14 6.57519e-14 0)
(-1.77189e-13 -4.86134e-14 0)
(6.67115e-14 -1.41422e-13 0)
(-3.30519e-14 1.90029e-14 0)
(-7.72522e-14 2.54729e-14 0)
(1.80098e-14 -1.81737e-14 0)
(1.61831e-14 -2.41457e-14 0)
(-2.01573e-14 -3.02501e-14 0)
(8.06992e-14 -2.8079e-14 0)
(1.7346e-14 -2.41668e-14 0)
(-9.16084e-14 -8.01974e-14 0)
(2.01256e-10 -6.98678e-11 0)
(-1.19821e-14 -1.09073e-14 0)
(0.508586 7.56966e-06 0)
(0.613837 -0.0160979 0)
(0.5557 0.0169624 0)
(-1.20374e-13 6.84342e-15 0)
(0.496049 -0.0228816 0)
(1.47034e-13 -6.68793e-14 0)
(1.11452e-13 6.05947e-14 0)
(1.44577e-13 1.03281e-15 0)
(1.21566e-13 -1.33636e-14 0)
(6.89764e-15 -1.27716e-14 0)
(2.12272e-14 1.47066e-13 0)
(1.02484e-13 -6.11575e-14 0)
(0.451248 0.0591277 0)
(9.06259e-14 -9.23754e-14 0)
(5.26679e-14 1.43227e-13 0)
(4.96837e-15 9.18748e-14 0)
(3.35189e-14 1.45897e-13 0)
(1.1094e-13 9.4925e-14 0)
(-5.25489e-14 -1.76221e-14 0)
(-4.0805e-15 -1.02507e-13 0)
(-6.00307e-14 3.89218e-14 0)
(-2.82491e-14 1.06787e-13 0)
(-2.59986e-14 4.6407e-14 0)
(0.494433 -0.00559825 0)
(-5.5176e-14 -4.40571e-14 0)
(-6.49583e-14 -3.50702e-14 0)
(-7.53815e-15 -1.31729e-13 0)
(1.06341e-14 -2.22635e-14 0)
(4.51409e-14 1.4149e-13 0)
(-6.1381e-14 -1.36368e-14 0)
(5.66982e-14 -7.21759e-14 0)
(-7.56666e-14 -2.7675e-14 0)
(3.90583e-14 -6.45798e-14 0)
(1.10043e-14 -1.71893e-13 0)
(2.25343e-09 -6.38947e-10 0)
(2.45287e-14 -7.69452e-14 0)
(5.4229e-10 1.22657e-11 0)
(3.22076e-14 8.41446e-14 0)
(1.97528e-14 -7.99842e-14 0)
(3.52721e-14 -4.15472e-14 0)
(8.68715e-14 -4.60076e-14 0)
(5.33421e-14 3.39622e-14 0)
(-3.02885e-14 -5.67068e-14 0)
(-1.16142e-13 -1.21738e-13 0)
(5.90973e-14 -1.15744e-13 0)
(0.510735 0.0811712 0)
(9.5561e-14 4.02742e-14 0)
(-6.65135e-14 6.66955e-15 0)
(-6.09903e-14 -6.45859e-14 0)
(-4.71073e-14 4.26399e-14 0)
(0.506781 -0.058703 0)
(-2.14789e-14 4.46953e-14 0)
(-2.2307e-14 -5.5315e-14 0)
(-6.98796e-14 -5.03076e-14 0)
(-1.78833e-14 3.48362e-14 0)
(0.503517 0.00391048 0)
(2.73308e-14 1.03211e-13 0)
(-8.18034e-14 -6.4688e-14 0)
(3.35583e-14 -6.73162e-15 0)
(0.608465 -0.00760597 0)
(9.21321e-14 -1.18727e-13 0)
(-3.11503e-15 -1.15587e-14 0)
(2.28752e-14 -6.11146e-14 0)
(5.84283e-14 1.98906e-14 0)
(7.24719e-14 -3.46858e-14 0)
(-6.88755e-14 1.31166e-13 0)
(-8.74273e-14 -6.83728e-14 0)
(-5.62646e-14 2.17208e-14 0)
(1.01525e-13 1.11292e-13 0)
(0.495075 -0.0162464 0)
(1.86707e-13 -7.48562e-14 0)
(-9.22362e-15 7.85445e-14 0)
(-1.16633e-14 4.56176e-14 0)
(-3.09642e-14 6.76691e-14 0)
(-3.88085e-15 -4.21161e-14 0)
(0.639205 0.0968031 0)
(-2.25671e-13 3.40355e-15 0)
(9.48727e-14 4.41159e-14 0)
(1.61454e-13 -6.1986e-14 0)
(-1.42032e-13 1.12601e-13 0)
(1.26811e-13 5.65109e-14 0)
(-5.03173e-15 8.0073e-14 0)
(4.80365e-14 2.29565e-14 0)
(5.05815e-14 3.12067e-14 0)
(2.4585e-14 3.90566e-14 0)
(3.42932e-14 8.13788e-14 0)
(-6.70375e-14 1.52303e-13 0)
(3.95822e-14 1.33785e-14 0)
(0.270893 -0.0589501 0)
(-7.26566e-14 -4.48331e-14 0)
(5.6092e-14 7.07729e-14 0)
(2.89016e-14 -8.30442e-14 0)
(-1.15803e-14 1.00298e-14 0)
(-2.94562e-15 -9.6215e-14 0)
(0.491989 -0.00997322 0)
(-7.53149e-14 4.17388e-15 0)
(-1.90646e-13 -5.65265e-14 0)
(-6.24161e-14 -3.63133e-14 0)
(6.31839e-14 -4.70624e-14 0)
(-6.93221e-14 -6.00164e-14 0)
(-5.80495e-14 -6.71345e-14 0)
(-1.64342e-14 4.25054e-14 0)
(-1.56345e-13 1.50252e-14 0)
(1.0873e-13 -7.44931e-14 0)
(0.55884 0.00245262 0)
(-5.37766e-14 -4.27572e-14 0)
(8.20294e-14 1.35642e-14 0)
(-5.5463e-14 -4.70384e-14 0)
(1.91346e-14 2.82524e-14 0)
(-1.13212e-13 -1.0773e-14 0)
(-3.69821e-14 -1.74191e-14 0)
(1.57521e-13 2.81517e-14 0)
(-4.27418e-14 1.13832e-13 0)
(9.95845e-14 1.38681e-14 0)
(-3.53311e-14 1.58273e-14 0)
(5.56466e-14 5.39085e-15 0)
(0.508242 0.000775924 0)
(0.55355 0.202852 0)
(-4.19158e-14 -4.28524e-15 0)
(-1.25618e-14 5.09216e-14 0)
(-2.56595e-14 1.81218e-14 0)
(1.88748e-14 -2.10913e-13 0)
(-1.09587e-14 -5.45487e-16 0)
(6.96504e-14 1.02148e-13 0)
(-1.2044e-13 -9.87922e-14 0)
(2.27239e-13 -2.10246e-14 0)
(0.514943 0.0104788 0)
(-3.71179e-14 -7.2199e-14 0)
(1.78929e-14 6.13978e-14 0)
(-5.82064e-14 -4.34148e-14 0)
(5.82998e-14 -3.96232e-14 0)
(-1.16561e-14 -3.84904e-14 0)
(9.74378e-14 6.61987e-15 0)
(1.40561e-14 -5.80426e-14 0)
(-9.84971e-14 5.41386e-14 0)
(6.40106e-14 -3.3965e-14 0)
(1.06542e-13 -9.69789e-14 0)
(1.83221e-14 -2.92296e-14 0)
(8.50785e-14 -4.16604e-14 0)
(0.624567 -0.071622 0)
(3.54932e-14 -2.3397e-14 0)
(-6.21648e-14 -4.51592e-14 0)
(0.30118 0.0667405 0)
(-5.99111e-14 1.04591e-14 0)
(8.30264e-14 -4.93234e-14 0)
(-3.40236e-14 -9.55749e-14 0)
(-4.98477e-14 2.91006e-14 0)
(-3.08249e-15 3.75016e-14 0)
(-1.78864e-14 -8.26696e-14 0)
(9.97252e-14 6.8904e-14 0)
(1.3247e-14 1.53675e-14 0)
(-1.71156e-13 -2.83229e-14 0)
(3.0719e-14 -7.14011e-14 0)
(6.57178e-14 1.66623e-14 0)
(0.342079 0.366417 0)
(-1.04683e-13 -5.31626e-14 0)
(-1.2147e-13 -4.70741e-14 0)
(-1.2135e-13 -1.97307e-14 0)
(-1.12153e-14 1.07762e-13 0)
(7.1212e-14 -1.6643e-13 0)
(-1.61739e-14 -9.19061e-14 0)
(4.64832e-14 2.41479e-14 0)
(-2.13387e-14 2.884e-14 0)
(-4.24257e-14 5.12473e-14 0)
(3.01198e-14 1.37547e-14 0)
(-1.12438e-13 -9.08079e-14 0)
(-4.47467e-14 1.01621e-13 0)
(0.423166 -0.0113369 0)
(1.02177e-13 -2.25769e-13 0)
(-7.09923e-14 4.88194e-14 0)
(-7.19514e-14 -3.47156e-14 0)
(-1.43936e-14 -1.98505e-14 0)
(-9.17747e-14 -2.93766e-14 0)
(-1.18664e-13 -2.79502e-14 0)
(0.553008 -0.0049575 0)
(-9.44322e-14 3.31373e-14 0)
(0.599223 0.12729 0)
(2.35047e-14 -9.79664e-14 0)
(4.55118e-14 -5.04913e-14 0)
(-2.63086e-14 -1.50138e-13 0)
(0.508258 0.000346103 0)
(-1.36185e-14 8.58816e-14 0)
(-4.67125e-14 2.50467e-14 0)
(-1.41176e-14 -9.4962e-14 0)
(-1.12096e-13 -1.5117e-13 0)
(1.04503e-13 -3.38067e-13 0)
(-5.99015e-14 -2.65663e-14 0)
(5.68337e-17 3.74476e-14 0)
(-2.2172e-13 4.87542e-14 0)
(2.71284e-14 -1.90727e-14 0)
(8.42938e-14 -1.22817e-13 0)
(9.361e-15 3.4292e-14 0)
(-1.01601e-13 8.69787e-14 0)
(6.76788e-15 -2.39593e-14 0)
(0.505206 0.00173086 0)
(-2.28291e-13 2.58104e-14 0)
(-6.77829e-14 1.82885e-13 0)
(1.16431e-13 3.22644e-14 0)
(0.198351 -0.000417218 0)
(0.480815 0.0128047 0)
(5.07724e-14 -7.28444e-14 0)
(-1.50516e-14 1.20062e-14 0)
(7.50406e-15 -1.08079e-14 0)
(6.33105e-15 7.44433e-15 0)
(-3.38138e-14 -1.02364e-14 0)
(0.514095 -0.00570713 0)
(1.05378e-13 -5.70404e-14 0)
(1.57552e-15 4.67162e-14 0)
(1.89819e-13 -5.59921e-14 0)
(7.31043e-14 -2.78027e-15 0)
(1.69546e-14 -4.81664e-14 0)
(-6.50954e-15 8.35979e-14 0)
(-1.04764e-13 4.80455e-14 0)
(0.513585 0.00127202 0)
(0.508872 0.000155565 0)
(7.69013e-15 -1.54272e-14 0)
(1.21913e-13 -1.58586e-14 0)
(4.14869e-14 7.37259e-14 0)
(-7.97888e-14 5.04496e-15 0)
(2.49533e-14 -8.24487e-14 0)
(-3.20854e-15 4.11911e-14 0)
(1.98057e-13 6.68385e-14 0)
(-5.64656e-14 5.72045e-14 0)
(5.50645e-14 -1.83801e-14 0)
(1.21967e-13 -5.3701e-14 0)
(4.94697e-14 -4.36408e-14 0)
(-3.53762e-14 -5.24716e-14 0)
(7.83068e-14 -2.58475e-14 0)
(1.10118e-13 4.67773e-15 0)
(-2.4839e-14 -1.77956e-14 0)
(-1.09567e-13 -4.88191e-14 0)
(1.60558e-13 6.12976e-14 0)
(0.486765 0.000255427 0)
(-1.45432e-14 4.71515e-14 0)
(2.23113e-14 -6.34554e-14 0)
(-9.29953e-14 8.05524e-15 0)
(-1.24108e-13 6.65453e-14 0)
(1.1355e-13 -5.2446e-14 0)
(2.97661e-14 -7.17e-14 0)
(3.03961e-14 3.49918e-14 0)
(0.503171 -0.00247956 0)
(0.496569 0.00726048 0)
(4.91588e-14 5.8487e-14 0)
(-1.31908e-13 -6.86474e-14 0)
(1.64645e-14 1.49697e-15 0)
(1.66176e-13 3.11887e-14 0)
(1.20045e-14 4.9599e-14 0)
(9.27668e-15 7.98311e-14 0)
(-3.57303e-15 -2.1989e-14 0)
(-2.63497e-14 -4.56665e-15 0)
(3.80738e-14 -1.09292e-14 0)
(1.17069e-13 -5.3757e-14 0)
(6.12128e-14 -5.96471e-14 0)
(-6.88809e-14 1.004e-13 0)
(1.17665e-13 -3.29188e-15 0)
(0.450494 -0.0170671 0)
(3.88514e-14 -1.06841e-14 0)
(-2.92954e-14 4.65819e-14 0)
(-1.8824e-14 6.59875e-14 0)
(1.71103e-14 -9.06476e-14 0)
(-1.18426e-13 -4.20372e-14 0)
(1.37257e-13 -2.67646e-14 0)
(0.558809 -0.0159999 0)
(-5.4388e-14 -1.61315e-14 0)
(0.508261 0.00482194 0)
(4.62402e-14 2.246e-14 0)
(-1.25464e-13 1.84863e-14 0)
(9.17846e-14 1.88209e-14 0)
(-6.09919e-14 1.10006e-13 0)
(5.30584e-14 9.98204e-14 0)
(9.52386e-14 -2.51134e-14 0)
(3.27349e-14 -8.51983e-14 0)
(7.45647e-15 -1.2813e-13 0)
(2.6574e-14 8.44741e-14 0)
(8.43545e-14 -1.48615e-14 0)
(2.03675e-14 -1.05725e-13 0)
(7.60932e-14 -1.44824e-13 0)
(1.05264e-13 8.99411e-15 0)
(0.501441 0.0626232 0)
(4.6948e-14 1.8083e-14 0)
(4.79336e-15 1.14139e-13 0)
(-2.98083e-14 6.67627e-14 0)
(3.24623e-14 3.64548e-14 0)
(-2.49696e-14 -3.49513e-14 0)
(2.23028e-14 9.23785e-14 0)
(-1.20061e-14 6.4332e-14 0)
(-2.5169e-14 -2.00151e-14 0)
(1.73202e-13 5.05182e-14 0)
(-7.91772e-15 4.54305e-14 0)
(1.31041e-13 -8.95385e-15 0)
(0.5063 -0.000693817 0)
(1.30113e-13 -1.63796e-14 0)
(2.28635e-13 2.09788e-13 0)
(-1.10627e-13 -1.98077e-13 0)
(9.80876e-14 1.71807e-13 0)
(-3.66324e-14 4.67802e-14 0)
(0.505131 0.0785204 0)
(-7.14891e-14 9.05003e-14 0)
(-9.82895e-14 -4.86946e-14 0)
(3.40822e-14 5.41708e-14 0)
(-8.28645e-14 -3.54242e-14 0)
(-1.80972e-13 1.00742e-13 0)
(5.29226e-14 2.39812e-14 0)
(-2.92232e-14 7.07439e-14 0)
(0.513822 -0.00651066 0)
(1.56701e-13 3.18023e-14 0)
(-1.07667e-13 -1.30362e-13 0)
(-1.89272e-13 1.2101e-13 0)
(5.4498e-14 -1.01806e-13 0)
(-4.3205e-14 5.49176e-14 0)
(1.15941e-13 -1.67529e-14 0)
(-6.09569e-14 6.32825e-14 0)
(-4.77652e-15 5.55158e-15 0)
(-1.0246e-14 8.3857e-14 0)
(2.68813e-14 1.36434e-13 0)
(-7.05982e-14 -1.05527e-13 0)
(-1.15388e-13 1.3758e-13 0)
(-1.60011e-13 1.45509e-13 0)
(0.504203 0.0116034 0)
(4.54339e-14 -1.16713e-13 0)
(0.497634 -0.0197813 0)
(-3.3298e-14 -5.75273e-14 0)
(-1.45425e-13 -9.36466e-14 0)
(4.4548e-14 -4.98401e-14 0)
(-1.45198e-13 1.6317e-15 0)
(0.508958 -0.001107 0)
(7.85314e-09 -4.64131e-10 0)
(8.86268e-15 -1.68039e-13 0)
(-1.6365e-15 -2.0353e-13 0)
(3.84526e-14 -4.89479e-14 0)
(-4.27591e-13 -1.49313e-12 0)
(9.1288e-15 4.89491e-14 0)
(-6.06778e-14 -1.88126e-15 0)
(6.98482e-14 7.29154e-14 0)
(-1.21958e-13 1.3142e-13 0)
(-4.85028e-14 6.12448e-15 0)
(2.157e-14 5.90697e-14 0)
(-1.21489e-13 1.12787e-13 0)
(-2.15886e-14 -1.76948e-16 0)
(2.38498e-14 -1.64398e-15 0)
(-1.65591e-15 -1.00418e-13 0)
(2.16316e-13 1.41579e-14 0)
(-2.56131e-14 -1.32538e-15 0)
(0.0527369 0.0868126 0)
(4.6855e-14 5.75503e-14 0)
(0.516845 0.075431 0)
(-4.07697e-15 -3.13689e-14 0)
(4.52438e-14 5.66897e-14 0)
(-6.49227e-14 -1.01861e-14 0)
(3.76152e-14 3.20381e-14 0)
(4.04605e-14 3.04357e-14 0)
(-1.54694e-14 1.60091e-13 0)
(9.10084e-14 -6.04257e-14 0)
(0.439563 0.131275 0)
(3.52985e-16 -1.16933e-13 0)
(-4.69086e-15 -3.87591e-14 0)
(6.52834e-14 -5.60634e-14 0)
(9.67616e-14 -4.7215e-14 0)
(-1.1634e-13 -1.9167e-15 0)
(1.10254e-14 -1.51171e-14 0)
(-3.42507e-14 1.13575e-13 0)
(1.10848e-14 -4.8791e-14 0)
(-4.91734e-14 2.55336e-14 0)
(7.57368e-16 -7.31701e-14 0)
(0.441965 0.0786932 0)
(1.23325e-13 -9.13659e-14 0)
(6.22948e-15 6.93903e-15 0)
(1.71855e-15 3.32701e-14 0)
(4.68908e-14 -7.30757e-14 0)
(-2.78171e-14 7.75368e-14 0)
(-1.84662e-14 3.62472e-14 0)
(-1.13702e-14 -8.92371e-14 0)
(4.96306e-14 1.9238e-14 0)
(-4.48418e-14 -9.83345e-14 0)
(-1.57802e-14 -4.33025e-14 0)
(-1.47395e-13 -2.10452e-14 0)
(1.24296e-13 6.17825e-14 0)
(-3.56369e-14 1.05829e-14 0)
(-3.33366e-14 7.04546e-14 0)
(-1.67983e-13 2.86389e-14 0)
(-1.06863e-13 -9.65814e-14 0)
(1.9355e-09 -1.80688e-10 0)
(-1.76302e-14 8.32397e-14 0)
(2.71821e-12 2.74428e-12 0)
(-9.78898e-14 -6.47268e-14 0)
(0.523746 0.108729 0)
(8.38323e-14 -1.97557e-14 0)
(-4.67181e-14 -2.05345e-14 0)
(-2.85151e-14 -4.27858e-14 0)
(5.53364e-14 3.88845e-14 0)
(8.56134e-14 1.21439e-13 0)
(-1.08955e-13 1.83087e-13 0)
(5.02577e-16 1.53511e-13 0)
(1.25511e-13 -7.20468e-14 0)
(-3.82534e-15 1.48802e-14 0)
(1.06287e-13 1.05331e-13 0)
(4.5938e-14 -2.70936e-14 0)
(9.23116e-14 3.04647e-14 0)
(-5.97801e-14 -3.43968e-14 0)
(3.01012e-14 -2.33131e-14 0)
(4.94399e-15 -2.44332e-14 0)
(-2.14946e-13 2.41989e-13 0)
(1.77932e-14 -1.72584e-13 0)
(0.507266 0.00332458 0)
(3.95551e-14 -4.80946e-14 0)
(1.49204e-15 -2.18192e-14 0)
(-3.38164e-14 5.11679e-14 0)
(-6.39143e-14 -1.59589e-14 0)
(1.93816e-15 9.30724e-14 0)
(0.50771 -0.000938244 0)
(-8.17666e-14 2.27572e-14 0)
(6.56536e-14 -9.73013e-14 0)
(-6.47477e-14 4.82093e-14 0)
(2.57777e-14 -7.01546e-14 0)
(-3.64448e-15 -5.70488e-14 0)
(-1.60152e-14 7.12946e-16 0)
(2.10101e-14 -9.29627e-14 0)
(-7.13598e-14 -1.11253e-14 0)
(1.15025e-14 -7.1259e-14 0)
(0.50936 0.00861685 0)
(9.61071e-14 -5.53865e-14 0)
(-6.03116e-15 -4.39079e-14 0)
(7.94272e-14 -1.43671e-14 0)
(-3.58982e-14 -5.69947e-14 0)
(7.38561e-14 -7.50411e-15 0)
(-1.55677e-13 5.94346e-14 0)
(-3.2932e-14 3.43909e-14 0)
(5.09723e-15 2.48766e-14 0)
(-1.01785e-13 -1.3951e-14 0)
(1.37813e-13 1.7422e-14 0)
(2.65551e-14 9.22349e-14 0)
(1.3646e-13 -7.75126e-14 0)
(-1.25307e-14 -4.73438e-14 0)
(2.0271e-14 2.41474e-14 0)
(1.97309e-14 3.21294e-14 0)
(4.50334e-15 2.19704e-14 0)
(0.497058 -0.0236937 0)
(7.28278e-14 -5.40836e-14 0)
(0.504684 0.00127353 0)
(8.98688e-17 -5.41061e-14 0)
(-2.32149e-13 1.04167e-13 0)
(0.505083 -0.00150919 0)
(1.18288e-13 -1.63621e-13 0)
(1.71715e-13 1.75175e-13 0)
(0.535474 -0.0244662 0)
(-8.7975e-14 5.68783e-14 0)
(0.408188 0.139978 0)
(0.497593 0.153717 0)
(-1.57116e-14 -9.34392e-15 0)
(-4.42342e-14 3.49202e-14 0)
(9.01006e-14 8.07686e-14 0)
(7.83923e-14 1.26204e-14 0)
(-1.48726e-13 -1.13327e-14 0)
(1.7193e-13 -7.96018e-14 0)
(8.79756e-14 9.59782e-14 0)
(4.3868e-14 -1.07635e-14 0)
(1.55094e-14 9.87096e-14 0)
(6.63262e-14 -7.53022e-14 0)
(9.45958e-14 4.47467e-14 0)
(0.512979 -0.0110249 0)
(1.5049e-14 2.02135e-13 0)
(6.7699e-15 1.42548e-13 0)
(3.0342e-14 3.85863e-14 0)
(7.60895e-14 -5.14701e-14 0)
(0.191263 0.0777445 0)
(2.41545e-13 -2.2756e-14 0)
(2.27312e-13 -5.06424e-14 0)
(1.45713e-13 1.90694e-14 0)
(6.67992e-14 2.363e-14 0)
(8.56505e-14 2.67773e-14 0)
(-8.88726e-14 6.02094e-14 0)
(-1.44862e-13 -7.05253e-14 0)
(0.63654 0.128476 0)
(-1.80092e-13 -2.16149e-14 0)
(2.91804e-14 -5.37368e-14 0)
(1.67178e-14 -1.83325e-13 0)
(5.00085e-14 -6.77837e-14 0)
(-1.19604e-13 2.73443e-14 0)
(4.28652e-14 4.47081e-14 0)
(1.56029e-14 -1.92245e-13 0)
(-1.24303e-13 -1.86797e-14 0)
(5.92395e-14 -1.61264e-13 0)
(9.29521e-14 -5.27826e-14 0)
(3.55494e-14 3.4067e-14 0)
(0.495908 0.00554941 0)
(1.6238e-13 -4.45503e-15 0)
(-6.9568e-14 4.65576e-14 0)
(0.534851 0.170451 0)
(2.89588e-14 1.58866e-13 0)
(0.505325 0.00110573 0)
(0.263981 0.0478799 0)
(-1.14375e-13 6.74269e-14 0)
(5.59082e-15 1.62765e-15 0)
(4.23598e-16 1.35328e-13 0)
(-1.09474e-13 2.41207e-14 0)
(9.61824e-14 -3.60599e-14 0)
(-6.15025e-14 4.21614e-14 0)
(-5.84497e-14 6.32136e-15 0)
(9.35123e-14 7.93341e-14 0)
(-1.00331e-13 9.62078e-14 0)
(-6.50556e-14 9.04963e-14 0)
(-6.99885e-14 1.77312e-13 0)
(0.500445 -0.0531907 0)
(0.509715 -0.000651094 0)
(-9.08909e-14 -3.09736e-14 0)
(8.94479e-15 -4.11003e-14 0)
(-3.64425e-14 3.29496e-15 0)
(4.53435e-14 -2.42474e-14 0)
(2.34272e-14 -7.89855e-15 0)
(3.6627e-14 2.96499e-14 0)
(2.88872e-14 4.16107e-14 0)
(-3.5046e-14 -6.39866e-14 0)
(0.504731 0.0059795 0)
(-8.63499e-14 3.60451e-14 0)
(-4.33455e-14 3.49369e-14 0)
(0.50455 0.00224408 0)
(-1.73025e-14 -3.16729e-15 0)
(6.16905e-14 -5.68955e-14 0)
(1.02942e-13 5.74997e-14 0)
(9.36412e-14 7.34603e-14 0)
(1.78634e-14 6.72155e-14 0)
(-3.79854e-14 -1.86949e-13 0)
(4.20845e-16 -1.17148e-13 0)
(-9.5737e-15 5.20895e-14 0)
(-7.89776e-14 2.44259e-14 0)
(6.2548e-15 -1.89598e-13 0)
(8.51704e-14 -1.70435e-14 0)
(-8.86512e-14 -9.63962e-14 0)