/*--------------------------------*- C++ -*----------------------------------*\
  =========                 |
  \\      /  F ield         | OpenFOAM: The Open Source CFD Toolbox
   \\    /   O peration     | Website:  https://openfoam.org
    \\  /    A nd           | Version:  12
     \\/     M anipulation  |
\*---------------------------------------------------------------------------*/
FoamFile
{
    format      ascii;
    class       volVectorField;
    location    "6.5";
    object      U;
}
// * * * * * * * * * * * * * * * * * * * * * * * * * * * * * * * * * * * * * //

dimensions      [0 1 -1 0 0 0 0];

internalField   nonuniform List<vector> 
46253
(
(0.962767 0.000597828 0)
(0.890415 0.00010736 0)
(0.797498 0.00106703 0)
(0.887918 0.000111015 0)
(0.804153 0.00247869 0)
(0.810003 0.00105499 0)
(1.05676 0.0171139 0)
(1.10717 -0.0109731 0)
(0.893924 -0.000629867 0)
(0.893539 -0.000333717 0)
(0.962601 0.000229384 0)
(1.11643 -0.0722862 0)
(0.909342 0.00021821 0)
(0.908663 -0.000271344 0)
(1.02906 0.0215083 0)
(0.89741 -0.00102603 0)
(0.895145 -0.000512259 0)
(0.903663 -0.00054093 0)
(0.905395 -0.000958984 0)
(0.898298 0.000297365 0)
(0.898011 0.000594292 0)
(0.800238 0.00427841 0)
(1.33968 0.0106609 0)
(0.97764 0.000316897 0)
(0.899564 0.00735251 0)
(0.889606 0.000673554 0)
(0.897045 -0.000137543 0)
(0.895898 0.000329203 0)
(0.89028 0.000220854 0)
(1.11592 -0.0267821 0)
(0.941661 0.0420538 0)
(0.914607 0.000675154 0)
(0.915298 0.000823585 0)
(0.901787 -0.000367463 0)
(0.901547 -7.0437e-05 0)
(0.817548 -0.00904177 0)
(0.905213 0.000557342 0)
(0.905222 0.000553977 0)
(0.990188 -0.00450077 0)
(1.08441 -0.00984531 0)
(0.967757 -0.0193633 0)
(1.11975 -0.072506 0)
(0.915628 -0.000717839 0)
(0.91437 -0.000503067 0)
(1.16366 -0.0995954 0)
(0.905052 4.07997e-05 0)
(0.903597 0.000326524 0)
(1.19866 -0.0182251 0)
(0.918986 0.000252491 0)
(0.919116 0.000136307 0)
(0.920341 -4.85424e-05 0)
(0.92111 0.000120196 0)
(0.82105 0.0016973 0)
(0.939859 -0.00763174 0)
(0.77366 0.0111371 0)
(1.1114 -0.0399824 0)
(0.928817 -0.000652362 0)
(0.928718 -0.000591213 0)
(0.885249 0.0654809 0)
(1.11252 0.00640373 0)
(0.800665 0.00751001 0)
(1.20863 0.00833826 0)
(0.828719 -0.0190923 0)
(1.14336 -0.0051132 0)
(1.03007 -0.0335482 0)
(0.91309 -0.000640053 0)
(0.913025 -0.000546075 0)
(0.806337 0.000557055 0)
(1.09234 -0.0430985 0)
(1.15988 -0.0958372 0)
(1.09618 0.00482872 0)
(0.929466 0.00053891 0)
(0.929201 0.000679559 0)
(0.736344 -0.0430201 0)
(0.813106 0.00333162 0)
(0.966854 -0.000860754 0)
(0.941339 7.23156e-05 0)
(0.942431 1.27223e-05 0)
(1.20316 -0.0349362 0)
(0.916782 0.000527869 0)
(0.917087 0.000623463 0)
(0.931919 0.000290424 0)
(0.814781 0.00333036 0)
(0.933387 0.00012592 0)
(1.06022 0.00581147 0)
(0.824011 0.00231858 0)
(0.954856 -0.000168741 0)
(0.955852 -0.000173843 0)
(1.0833 -0.0047234 0)
(0.814942 -0.00267512 0)
(1.27336 -0.0365711 0)
(0.943241 -0.00987721 0)
(0.831196 0.00117562 0)
(0.924007 -0.000297513 0)
(1.12596 -0.0205067 0)
(0.925376 -4.13673e-05 0)
(0.826765 0.00138831 0)
(1.16906 -0.0234646 0)
(0.885203 0.0647872 0)
(0.815201 0.00505168 0)
(1.14679 -0.0410426 0)
(0.828428 0.00227861 0)
(0.823695 0.00117533 0)
(0.951758 0.0432267 0)
(0.779051 0.00626812 0)
(1.04314 0.0109554 0)
(1.12656 -0.0677007 0)
(0.973254 0.000167623 0)
(0.973996 7.69852e-05 0)
(1.11419 -0.0622381 0)
(1.04734 -0.0237556 0)
(0.929582 0.000460118 0)
(0.929526 0.000349948 0)
(1.15285 0.0303889 0)
(1.18773 0.0198432 0)
(0.901308 -0.0088192 0)
(1.13591 -0.0890431 0)
(1.09252 0.0152116 0)
(0.780985 0.0642555 0)
(1.0821 -0.0300673 0)
(1.27695 0.0490725 0)
(0.809708 0.00181888 0)
(0.935582 -0.000380387 0)
(0.935764 -0.000338604 0)
(0.847062 0.000606366 0)
(0.774395 0.0603424 0)
(0.800695 0.00617174 0)
(1.11149 -0.0486399 0)
(0.77174 0.0102993 0)
(0.944693 -0.000203166 0)
(0.984669 -0.000210388 0)
(0.985439 -0.000298145 0)
(0.805271 0.00419702 0)
(0.868436 0.0101832 0)
(0.945088 4.57091e-05 0)
(1.02082 -0.0232972 0)
(0.948754 -0.000151494 0)
(0.949921 -8.69818e-05 0)
(1.06339 -0.0361144 0)
(0.958833 -0.0174441 0)
(0.939483 -3.64277e-05 0)
(0.992616 -0.000356348 0)
(0.99354 -0.000390487 0)
(0.95748 0.0402169 0)
(0.938736 -3.97977e-05 0)
(0.775721 0.00958448 0)
(0.953613 -0.000153557 0)
(0.953174 -0.000279495 0)
(0.999111 -0.00576292 0)
(0.808932 -0.00438766 0)
(1.11587 -0.0591677 0)
(0.828766 0.000516899 0)
(0.945527 -5.13e-05 0)
(0.946326 0.000260482 0)
(0.97471 0.0306517 0)
(1.15674 -0.0934887 0)
(1.11483 -0.0503347 0)
(0.84255 -0.00554314 0)
(0.961289 -0.000241283 0)
(0.775694 0.0083376 0)
(0.961589 -0.000358885 0)
(1.13091 -0.0669539 0)
(1.11443 -0.0437192 0)
(1.00367 0.0509206 0)
(0.992157 0.00787574 0)
(0.951891 5.88606e-05 0)
(0.874624 0.00351027 0)
(0.952749 0.00011857 0)
(0.705339 0.0391503 0)
(0.814613 0.00199162 0)
(0.965073 -0.000150977 0)
(0.965723 -0.000351549 0)
(0.802041 0.00490599 0)
(0.988302 -0.0126894 0)
(0.784531 0.00395297 0)
(1.14946 -0.0984246 0)
(1.05686 0.034095 0)
(0.805758 0.0037932 0)
(0.926796 -0.0595778 0)
(1.13683 -0.0896746 0)
(0.787146 0.00278989 0)
(0.980291 0.0288483 0)
(0.970727 -0.000208333 0)
(0.971465 -0.000170452 0)
(0.838368 0.00821938 0)
(0.958434 -0.000250369 0)
(0.959733 3.11816e-05 0)
(1.15879 -0.100214 0)
(0.843072 0.00582712 0)
(0.841818 0.0070827 0)
(0.820107 0.00308862 0)
(0.83256 -0.00144141 0)
(1.14325 -0.00833487 0)
(0.837167 -0.000667002 0)
(0.848377 0.00455975 0)
(0.849556 0.00464645 0)
(1.04328 -0.0256857 0)
(0.832483 0.00147305 0)
(1.0353 -0.00121697 0)
(1.03613 -0.00111776 0)
(1.15303 -0.019705 0)
(0.769498 0.00145011 0)
(0.962868 -8.39608e-06 0)
(0.963426 1.53449e-05 0)
(0.787672 -0.00317853 0)
(1.14383 -0.0894957 0)
(0.985494 0.0284162 0)
(0.976821 -0.000199299 0)
(0.977424 -0.000423235 0)
(0.793202 -0.00264296 0)
(1.19117 -0.0333948 0)
(0.780981 0.0695128 0)
(0.98895 -0.0150731 0)
(0.82302 0.00136612 0)
(1.03048 0.0420126 0)
(0.831183 0.00130594 0)
(0.954965 0.0384452 0)
(1.01459 0.00146965 0)
(0.983442 -0.000433183 0)
(0.803657 0.00123295 0)
(0.812459 0.00112511 0)
(0.983782 -0.000612525 0)
(1.14928 -0.103823 0)
(0.967497 -0.000310681 0)
(0.968488 -5.96442e-05 0)
(0.979282 -0.000692039 0)
(0.811739 0.00214895 0)
(0.813318 0.00110865 0)
(1.04803 -0.00150944 0)
(1.04924 -0.00117015 0)
(0.899599 0.0543203 0)
(1.08348 0.0671565 0)
(0.835853 0.0110372 0)
(0.795574 0.00956358 0)
(0.846439 0.000436361 0)
(1.20302 -0.0342965 0)
(0.82492 -0.000975114 0)
(1.18357 -0.0483343 0)
(0.900272 0.0546188 0)
(0.90705 0.0607421 0)
(0.836733 0.00171815 0)
(0.821161 0.00181377 0)
(0.830466 0.00256178 0)
(0.826779 -0.00215913 0)
(1.00422 0.0320168 0)
(0.815697 0.00348108 0)
(0.820766 -0.019037 0)
(0.986031 0.0279261 0)
(0.836118 0.00377583 0)
(0.990186 -0.000389374 0)
(0.990907 -0.000522547 0)
(0.908538 0.0593143 0)
(1.06116 -0.00131765 0)
(0.829221 0.0029313 0)
(1.06211 -0.00118386 0)
(0.974812 -0.00030564 0)
(0.975156 -1.23776e-05 0)
(1.06973 -0.0321633 0)
(1.03353 -0.010004 0)
(0.857768 0.000880445 0)
(0.966716 0.0170988 0)
(0.89448 -0.0215686 0)
(1.10953 -0.063184 0)
(0.96046 0.0407265 0)
(1.23656 0.0147564 0)
(0.84849 -0.000606076 0)
(1.15352 0.0281676 0)
(1.15035 0.0230854 0)
(0.980291 -0.000201819 0)
(0.997961 -0.000341643 0)
(0.981475 -0.000190573 0)
(0.82457 0.00237353 0)
(0.881675 0.00370759 0)
(-0.245774 0.0522168 0)
(0.998601 -0.000482866 0)
(0.83 0.00204624 0)
(0.773652 0.0137189 0)
(0.802953 0.0053383 0)
(0.907062 -0.0271734 0)
(1.04849 -0.0224802 0)
(1.07413 -0.00136269 0)
(1.07435 -0.00139418 0)
(0.82001 0.00176658 0)
(0.828798 0.00168736 0)
(1.18609 -0.0372843 0)
(1.01125 -0.0147139 0)
(0.893136 -0.0129302 0)
(1.10761 -0.0330216 0)
(0.962146 0.0361212 0)
(0.780677 -0.00469958 0)
(0.886698 0.0638022 0)
(0.880591 0.0630567 0)
(1.01415 0.0109149 0)
(0.87018 0.0112442 0)
(0.879372 0.0601806 0)
(0.919572 0.0499125 0)
(0.808272 0.00135435 0)
(0.920689 0.0496929 0)
(0.978352 -0.0108747 0)
(1.00247 -0.000583828 0)
(0.786589 0.0706192 0)
(1.00313 -0.000853799 0)
(1.10416 -0.0494457 0)
(0.778972 0.0535043 0)
(0.84805 -0.00423399 0)
(0.987388 -0.000377285 0)
(0.988422 -0.000194147 0)
(0.799254 -0.000821675 0)
(0.960005 0.0417669 0)
(0.843369 0.00540814 0)
(0.84077 0.00793376 0)
(1.18796 -0.028473 0)
(1.06722 -0.0774686 0)
(1.00815 -0.000725839 0)
(0.830488 0.00279133 0)
(1.00883 -0.000790797 0)
(1.06269 -0.033108 0)
(0.879499 0.0592466 0)
(0.799065 -0.00827948 0)
(0.899547 0.000817923 0)
(1.10308 -0.051863 0)
(0.843171 -0.000177543 0)
(0.944979 0.000424747 0)
(0.893088 0.000378151 0)
(0.984638 -0.0105046 0)
(0.969958 0.0357431 0)
(0.836926 -4.11319e-05 0)
(0.855056 -0.000189183 0)
(1.01263 -0.000658217 0)
(1.01326 -0.000939701 0)
(1.09645 -0.00355106 0)
(1.08089 -0.000816568 0)
(0.846418 -0.00355229 0)
(1.03527 0.00550316 0)
(0.846935 -0.00100308 0)
(1.14789 0.00547558 0)
(1.09666 -0.0287527 0)
(0.995213 -0.000444417 0)
(0.996258 -0.000101925 0)
(0.852107 -0.00568417 0)
(0.825389 0.00112443 0)
(0.826789 0.00103256 0)
(1.24418 0.0262311 0)
(0.764205 0.0407996 0)
(0.82267 0.00113466 0)
(1.01786 -0.000847521 0)
(1.01874 -0.00108722 0)
(1.06919 -0.0740075 0)
(1.06321 -0.0433675 0)
(0.803381 0.00317403 0)
(0.971324 -0.0284844 0)
(0.805718 -0.0044543 0)
(1.13668 -0.0897915 0)
(1.01635 0.0605106 0)
(1.1266 -0.0651417 0)
(0.826969 0.00250094 0)
(1.00011 -0.000520544 0)
(0.813752 -0.00569851 0)
(1.00061 -0.000486393 0)
(0.819671 -0.00411584 0)
(1.1238 -0.0639184 0)
(0.876572 0.000736869 0)
(0.820441 0.0033317 0)
(0.874155 -0.00217355 0)
(0.84398 0.00438758 0)
(0.816778 0.00323494 0)
(0.815251 0.00281208 0)
(0.816044 0.00334064 0)
(1.02343 -0.000811252 0)
(0.821918 0.00206866 0)
(0.837087 0.00332545 0)
(0.83559 0.00312734 0)
(0.837238 0.00338993 0)
(1.02391 -0.00111812 0)
(0.81608 0.0023136 0)
(0.888692 0.0611096 0)
(1.067 -0.0343369 0)
(0.833132 0.00102771 0)
(0.816202 0.00269521 0)
(0.769731 -0.00195926 0)
(1.01421 -0.00394904 0)
(0.739515 0.00298624 0)
(1.11181 -0.051791 0)
(1.0052 -0.000717177 0)
(1.0963 -0.0372357 0)
(1.00612 -0.00062468 0)
(0.818734 0.000201658 0)
(1.35218 0.0528582 0)
(1.02787 -0.000897738 0)
(0.755279 0.0603603 0)
(0.841495 0.00616309 0)
(0.956436 0.0373925 0)
(1.02878 -0.00121241 0)
(0.886682 0.00320687 0)
(0.810711 0.00230444 0)
(1.0974 -0.0183721 0)
(0.986983 0.0234952 0)
(0.986219 0.025974 0)
(0.843649 -0.000613684 0)
(1.03459 -0.010931 0)
(1.14472 0.00819359 0)
(0.953269 -0.000760833 0)
(0.95319 -0.000758686 0)
(0.896721 0.0591842 0)
(0.841348 0.00137767 0)
(0.842637 0.0307987 0)
(0.862879 0.00300805 0)
(0.773477 0.00167066 0)
(1.32125 0.0205511 0)
(0.834853 0.000139451 0)
(0.859561 0.000601338 0)
(0.841057 0.0063604 0)
(0.793175 0.0666925 0)
(0.839044 0.0081251 0)
(1.02192 -0.0108327 0)
(0.838102 0.0269573 0)
(1.12582 0.00649026 0)
(0.839631 0.00199107 0)
(0.86539 0.000899708 0)
(1.0478 -0.0262617 0)
(0.837889 0.0272 0)
(1.23268 0.005452 0)
(1.03381 -0.000968081 0)
(0.878098 9.07731e-05 0)
(1.01088 -0.000456988 0)
(0.871145 0.00044043 0)
(0.80575 0.00891305 0)
(1.03428 -0.00133152 0)
(1.01148 -0.000173762 0)
(0.845876 -0.00305747 0)
(1.13034 0.00305511 0)
(0.810264 0.00247295 0)
(1.13042 -0.0116919 0)
(0.847995 0.00550249 0)
(0.847106 0.00591753 0)
(1.03322 -0.0185992 0)
(0.869192 0.00730866 0)
(0.8405 0.00799316 0)
(0.844384 0.00523661 0)
(0.960095 -0.0349344 0)
(1.10047 -0.0540585 0)
(0.839312 0.0263157 0)
(1.10864 0.028691 0)
(0.848445 -0.000948419 0)
(1.05947 -0.0201834 0)
(0.969397 0.0309948 0)
(0.826665 -0.00148432 0)
(0.836501 0.000710232 0)
(1.1106 -0.0325658 0)
(0.848385 -0.00995437 0)
(1.04936 -0.0190775 0)
(1.02713 -0.00914777 0)
(1.00049 -0.172423 0)
(1.13816 -0.0347415 0)
(0.179676 0.182211 0)
(0.843635 0.0334324 0)
(1.00698 -0.0119288 0)
(0.846565 0.0304283 0)
(1.01504 -0.000981525 0)
(1.0597 -0.0194386 0)
(0.81341 0.00222358 0)
(1.05539 -0.0171141 0)
(1.05655 -0.0199178 0)
(1.01571 -0.000738984 0)
(0.82271 0.00186964 0)
(1.03163 -0.0159515 0)
(0.809876 0.00225462 0)
(0.839347 0.00944181 0)
(0.838779 0.0277791 0)
(0.835503 0.00323892 0)
(0.839101 0.00910549 0)
(1.23539 0.00523871 0)
(1.05624 -0.0561578 0)
(1.00628 -0.0145727 0)
(1.11006 -0.0486588 0)
(1.04159 -0.00106483 0)
(1.07996 -0.0225894 0)
(0.98554 0.0264706 0)
(1.04246 -0.00114773 0)
(1.17005 0.031421 0)
(0.955723 -0.000216851 0)
(0.955825 -0.000259728 0)
(0.806802 0.0134808 0)
(0.818178 0.0034315 0)
(0.81408 0.00143331 0)
(0.816671 0.00316628 0)
(0.770661 0.00765512 0)
(0.819522 -0.00405318 0)
(1.03773 -0.020741 0)
(0.998553 0.00822283 0)
(1.13057 -0.0820216 0)
(1.03738 -0.0188242 0)
(1.00625 -0.0206546 0)
(1.10756 -0.000518097 0)
(1.0665 -0.0162937 0)
(0.32265 -0.0620886 0)
(0.82549 0.00178169 0)
(1.021 -0.000553624 0)
(1.02875 -0.0119586 0)
(1.10797 -0.0635909 0)
(1.02183 -0.000434275 0)
(1.0456 -0.00124094 0)
(1.04621 -0.00158715 0)
(0.958441 0.000836778 0)
(1.03277 0.000455415 0)
(0.819045 0.0031817 0)
(0.957765 0.000772806 0)
(0.956603 0.041506 0)
(0.772902 -0.00407077 0)
(1.38338 -0.0628378 0)
(0.81137 0.00136677 0)
(0.983594 -0.0148374 0)
(0.843208 0.0249771 0)
(1.09443 -0.00397117 0)
(1.19806 -0.0284832 0)
(0.795544 0.00391112 0)
(0.842563 0.00510813 0)
(1.04846 -0.018271 0)
(0.838846 0.0046686 0)
(1.01511 0.0412515 0)
(1.16465 -0.0105977 0)
(0.80882 -0.0561411 0)
(1.02169 -0.0122123 0)
(0.849927 0.00177151 0)
(0.857798 0.000476754 0)
(1.01952 -0.0148522 0)
(0.816586 0.00199116 0)
(1.01244 -0.0136088 0)
(1.02114 -0.00916016 0)
(1.01248 -0.014414 0)
(1.08302 0.0442319 0)
(0.932707 0.0124841 0)
(0.960733 0.0187148 0)
(0.84882 -0.0123069 0)
(1.05772 -0.019876 0)
(1.0315 -0.0119074 0)
(0.834662 0.0037545 0)
(0.801368 0.00398174 0)
(1.02527 -0.00112861 0)
(0.865954 0.0183971 0)
(0.961691 0.00117954 0)
(1.05699 -0.0270615 0)
(0.868668 0.000528307 0)
(0.859475 0.00351717 0)
(1.02589 -0.00086034 0)
(0.789098 0.00399513 0)
(0.796439 -0.014825 0)
(0.850585 0.0188438 0)
(0.850293 0.0181743 0)
(1.14874 -0.0850101 0)
(0.856098 0.0193351 0)
(0.85372 0.0192239 0)
(1.05439 -0.00142875 0)
(1.09761 -0.0232555 0)
(1.05493 -0.00177148 0)
(1.0871 -0.0189951 0)
(0.862855 0.0232826 0)
(0.863459 0.022482 0)
(0.866371 0.0214424 0)
(0.863102 0.022333 0)
(0.838112 0.00084444 0)
(0.835759 0.0288118 0)
(0.780863 -0.00469614 0)
(1.00849 -0.0240072 0)
(1.13908 -0.078827 0)
(0.836441 0.0041315 0)
(0.848095 0.00736646 0)
(0.787836 -0.0149828 0)
(0.84344 0.0248346 0)
(0.848021 0.00837687 0)
(0.848305 0.00635656 0)
(0.940924 0.00532722 0)
(0.953147 0.037915 0)
(0.98943 -0.0356905 0)
(0.972152 0.0348236 0)
(0.844131 0.00905954 0)
(0.845372 0.00328695 0)
(1.10011 -0.050983 0)
(0.847967 -0.000660696 0)
(0.845872 0.00914089 0)
(0.843329 0.0106289 0)
(1.03121 -0.00073515 0)
(0.841081 0.0122515 0)
(0.839728 0.00883858 0)
(1.0321 -0.000586662 0)
(0.974255 0.0336357 0)
(0.940778 0.0232828 0)
(0.818716 0.00321101 0)
(0.933391 0.0224714 0)
(0.932001 0.0235978 0)
(0.922278 0.023181 0)
(0.756245 0.00381847 0)
(0.842773 0.00965038 0)
(1.05855 -0.00134688 0)
(1.05928 -0.00157418 0)
(0.956571 0.038679 0)
(1.09233 -0.0117851 0)
(0.840086 0.0107837 0)
(0.827047 0.000909518 0)
(0.738622 0.00915929 0)
(0.806164 0.000512357 0)
(0.776618 0.0495049 0)
(1.13218 -0.0489232 0)
(0.839674 0.0264569 0)
(0.780096 0.0581574 0)
(0.840852 0.0318392 0)
(0.835643 0.0033477 0)
(0.961384 0.0413191 0)
(0.950719 0.0416295 0)
(0.824068 0.00232956 0)
(0.815224 0.00267723 0)
(0.946927 -0.015561 0)
(1.0594 -0.0189523 0)
(0.817985 0.00229762 0)
(0.814197 0.00275011 0)
(0.996966 0.0220164 0)
(0.868416 0.021921 0)
(0.867939 0.0230986 0)
(0.875658 0.0220617 0)
(0.875135 0.021717 0)
(0.875689 0.0193389 0)
(0.874008 0.0208695 0)
(0.88273 0.0211497 0)
(0.882682 0.020512 0)
(1.1515 -0.102153 0)
(1.01327 -0.0230982 0)
(0.885929 0.0186039 0)
(0.743448 0.0183185 0)
(0.883048 0.0197676 0)
(0.890348 0.0208632 0)
(0.819438 0.00206595 0)
(0.924314 -0.000498854 0)
(0.95746 -0.00482876 0)
(0.891491 0.0204076 0)
(0.816717 0.00283307 0)
(0.898695 0.0185711 0)
(0.845753 0.00439482 0)
(0.894351 0.0192974 0)
(1.06266 0.0708487 0)
(1.03439 -0.0219373 0)
(0.897292 0.0194095 0)
(0.858658 0.00110727 0)
(0.900961 0.0196111 0)
(0.827745 0.0696964 0)
(0.826519 0.00673869 0)
(0.911601 0.0175252 0)
(0.847859 0.00691291 0)
(0.905521 0.0178625 0)
(0.847834 0.00670097 0)
(1.14012 -0.0810549 0)
(0.861907 -0.000930983 0)
(1.09205 -0.020739 0)
(0.961361 -0.00118596 0)
(0.837637 0.00561352 0)
(0.840189 0.00553345 0)
(0.905879 0.0174349 0)
(0.910695 0.0180047 0)
(0.827566 0.00294008 0)
(1.01674 -0.0173304 0)
(0.924075 0.0161842 0)
(0.917603 0.0163243 0)
(0.997728 0.0202899 0)
(0.850307 0.000592204 0)
(0.852269 0.000331697 0)
(0.919303 0.0131457 0)
(1.06656 -0.00175768 0)
(0.916345 0.0144108 0)
(0.818749 0.00611715 0)
(1.03804 -0.00125423 0)
(0.937997 0.0150657 0)
(1.09173 -0.0563471 0)
(0.938727 0.0149423 0)
(1.06712 -0.00204033 0)
(1.03936 -0.000893556 0)
(0.820226 0.00379133 0)
(0.846099 0.00931438 0)
(0.846023 0.00928729 0)
(0.930474 0.0105494 0)
(0.92754 0.0119278 0)
(0.872451 -0.00116361 0)
(0.821628 0.0039094 0)
(0.829883 0.00440863 0)
(0.949207 0.012766 0)
(1.03554 -0.0185687 0)
(0.950138 0.0124738 0)
(1.09272 -0.0552937 0)
(0.81616 0.00314548 0)
(0.959417 0.00886351 0)
(0.952179 0.0084801 0)
(0.840985 0.00913653 0)
(0.841524 0.00934937 0)
(0.837884 0.00952545 0)
(1.153 0.0407997 0)
(0.837804 0.00916877 0)
(1.03003 -0.0133043 0)
(1.01708 -0.0080146 0)
(0.936422 0.042366 0)
(0.825213 0.00235407 0)
(0.952738 0.0031654 0)
(0.853837 0.00210631 0)
(0.947373 0.00549217 0)
(0.852815 0.00201252 0)
(0.830302 0.00180757 0)
(1.02984 -0.0111386 0)
(1.02899 -0.0111631 0)
(0.969311 0.00841614 0)
(0.974188 0.00701035 0)
(1.07214 -0.0192617 0)
(1.02428 -0.00981617 0)
(0.966385 -0.000804806 0)
(1.02044 -0.00972077 0)
(0.959289 0.00176561 0)
(0.816706 0.00145408 0)
(0.98515 0.0250867 0)
(0.970229 0.000143554 0)
(0.973144 0.00187749 0)
(0.838096 0.00814919 0)
(1.10805 -0.031094 0)
(0.988727 -0.00137248 0)
(0.985703 -0.00244775 0)
(0.698664 0.0262414 0)
(0.858281 0.00358996 0)
(0.857342 0.00434698 0)
(0.841353 0.00590919 0)
(0.985634 -0.00250451 0)
(1.0134 -0.0237074 0)
(0.985492 -0.00123049 0)
(0.883239 -0.00330273 0)
(0.748761 0.0105048 0)
(1.04792 -0.0223196 0)
(1.10943 -0.0629341 0)
(0.997493 -0.00495444 0)
(0.997567 -0.00607234 0)
(1.01142 -0.0080646 0)
(0.995472 -0.00728498 0)
(0.991359 -0.00610084 0)
(1.05281 -0.0387592 0)
(1.09194 -0.0383335 0)
(0.858018 0.0199391 0)
(1.06301 -0.0110581 0)
(0.769419 0.0480931 0)
(1.072 -0.00124146 0)
(0.790371 -0.00491355 0)
(1.0957 -0.0551607 0)
(1.07258 -0.00174441 0)
(1.11156 -0.0502306 0)
(0.913909 0.00853829 0)
(0.96894 -0.00386885 0)
(0.870298 0.0230447 0)
(0.855842 0.0204929 0)
(0.868432 0.0226309 0)
(1.04442 -0.00101595 0)
(0.853734 0.00169827 0)
(0.857396 0.0206159 0)
(0.853949 0.00194512 0)
(0.81508 -0.0160109 0)
(0.856604 0.0200222 0)
(1.04459 -0.000865402 0)
(0.879839 -0.0102488 0)
(0.860592 0.0209755 0)
(0.863124 0.0216694 0)
(1.04453 -0.0261367 0)
(1.10117 -0.0380792 0)
(0.816755 0.00256176 0)
(0.992268 0.0222177 0)
(1.14239 -0.100634 0)
(0.958203 -0.000150781 0)
(0.836596 -0.00830343 0)
(0.819238 -0.00735752 0)
(0.814662 0.00229642 0)
(0.836344 0.0286143 0)
(1.08138 0.080419 0)
(0.735054 0.00455581 0)
(0.845851 0.00265172 0)
(1.06109 -0.0167639 0)
(0.842398 0.0256461 0)
(0.920519 0.0177353 0)
(0.895645 -0.0493871 0)
(0.918349 0.0171167 0)
(1.09256 -0.048636 0)
(0.83956 0.00769355 0)
(1.10743 -0.0649197 0)
(0.953828 -0.0118767 0)
(0.928244 0.0217879 0)
(0.836904 0.0282472 0)
(0.842987 0.015633 0)
(0.82478 0.00343119 0)
(1.34695 0.0366272 0)
(0.858733 -0.00380112 0)
(0.920367 0.0166659 0)
(0.921343 0.0184726 0)
(0.724773 0.00463103 0)
(0.997873 0.00487641 0)
(0.994546 0.0051807 0)
(0.836474 0.00355292 0)
(1.07369 -0.0181907 0)
(0.843177 0.00370418 0)
(0.822048 0.00185019 0)
(0.918822 0.017575 0)
(0.991741 -0.0101533 0)
(0.843251 0.0304951 0)
(1.07384 -0.00356151 0)
(0.84356 0.0316633 0)
(0.840911 0.0298593 0)
(0.986335 0.0250339 0)
(0.986274 0.0270722 0)
(0.817991 0.00186181 0)
(0.920911 0.0170406 0)
(1.08672 -0.0479375 0)
(1.0501 -0.0161204 0)
(0.817629 0.00219015 0)
(1.06527 -0.0183196 0)
(1.07888 -0.00187918 0)
(0.826858 0.00168663 0)
(0.837777 0.0290037 0)
(1.03267 -0.019718 0)
(1.0518 -0.0143896 0)
(0.837055 0.0274324 0)
(1.07969 -0.00212021 0)
(0.830028 -0.0281414 0)
(0.838609 0.0266654 0)
(0.984206 0.01092 0)
(0.926824 0.0173415 0)
(0.927257 0.0170131 0)
(1.01293 -0.0214835 0)
(0.863887 0.00187365 0)
(0.834665 -0.0337066 0)
(0.819344 -0.0223132 0)
(0.969636 -0.019299 0)
(0.781786 -0.00610704 0)
(0.843578 0.00551819 0)
(1.01823 -0.0122045 0)
(1.1059 -0.0410441 0)
(1.07823 -0.0455999 0)
(0.829745 0.0690789 0)
(0.859775 0.000276497 0)
(0.852422 0.00242834 0)
(0.86909 -0.00427096 0)
(0.93695 0.0100551 0)
(0.942516 0.0107247 0)
(0.86799 0.0239634 0)
(0.838354 0.0315442 0)
(0.815627 -0.00345134 0)
(1.05163 -0.00130104 0)
(0.96025 0.010525 0)
(1.00366 -0.0787503 0)
(0.83887 0.0318477 0)
(0.962473 0.00972435 0)
(1.05252 -0.00107043 0)
(1.036 -0.0243907 0)
(1.03961 -0.0259966 0)
(0.773516 0.00614196 0)
(1.0651 -0.0201017 0)
(1.03421 -0.00986953 0)
(1.10245 -0.0569658 0)
(1.03108 -0.0241055 0)
(1.11035 -0.0523777 0)
(0.981533 0.0026981 0)
(0.839819 0.00834343 0)
(0.840716 0.00794983 0)
(0.976176 0.00184923 0)
(0.849337 0.00258508 0)
(0.839107 0.00790739 0)
(1.03899 -0.017401 0)
(1.02768 -0.0195206 0)
(0.841739 0.00635865 0)
(1.08422 -0.00149844 0)
(1.07834 -0.042286 0)
(1.01999 -0.0142614 0)
(1.10869 -0.0323173 0)
(1.09444 -0.0328448 0)
(1.08432 -0.00194685 0)
(1.05176 -0.0448498 0)
(1.06862 -0.0430645 0)
(1.09854 -0.054335 0)
(1.09781 -0.0565955 0)
(0.885929 -0.00010601 0)
(0.822176 0.0203926 0)
(1.09963 0.00632517 0)
(0.821602 0.0205359 0)
(0.885146 0.000368741 0)
(1.03269 -0.0147436 0)
(1.0835 -0.0413801 0)
(1.07759 -0.0399204 0)
(0.821944 0.00574848 0)
(0.84343 0.00492577 0)
(1.02645 -0.0104864 0)
(0.840489 5.05904e-05 0)
(1.02023 -0.0118157 0)
(1.03099 -0.0100771 0)
(0.844533 0.0325423 0)
(0.843143 0.0341568 0)
(0.785737 0.00306046 0)
(0.845848 0.0307901 0)
(0.786578 -0.00902059 0)
(0.845518 0.0294858 0)
(0.815804 0.00269027 0)
(1.02178 -0.0209966 0)
(1.02409 -0.00987736 0)
(1.15873 -0.00864527 0)
(0.82632 -0.0285621 0)
(0.827396 0.00198486 0)
(1.05611 -0.00158642 0)
(0.860571 0.00357016 0)
(1.00896 -0.0131259 0)
(0.997911 -0.0154504 0)
(1.05662 -0.00133552 0)
(0.839787 0.0272675 0)
(1.02859 -0.0165609 0)
(1.01226 -0.0171676 0)
(1.04321 -0.0148671 0)
(0.81304 0.000361575 0)
(0.807445 0.000889831 0)
(0.807102 -0.000505374 0)
(0.825905 0.000243692 0)
(1.02578 -0.0151698 0)
(1.01315 -0.0138242 0)
(0.83768 -0.000163323 0)
(1.00043 0.0194177 0)
(0.838742 0.0276845 0)
(1.0557 -0.0460587 0)
(0.847165 -0.00143248 0)
(1.06385 -0.0446569 0)
(0.966044 0.00120113 0)
(0.961752 0.022262 0)
(0.821049 0.00561265 0)
(1.08836 -0.00193557 0)
(1.08943 -0.00233226 0)
(1.09103 0.0135952 0)
(0.803087 0.0685131 0)
(0.869591 0.0239379 0)
(1.08242 -0.0468263 0)
(0.999702 0.00019759 0)
(1.0068 -0.00510106 0)
(1.04894 -0.0393957 0)
(0.861489 0.0225446 0)
(0.861465 0.0226984 0)
(1.05278 -0.0189222 0)
(0.881383 -0.0102342 0)
(0.824467 0.00629144 0)
(0.823001 0.00611382 0)
(1.02697 -0.0104217 0)
(1.14008 -0.0881164 0)
(0.790745 0.00156788 0)
(1.03347 -0.0232589 0)
(0.796515 -0.000910964 0)
(0.855321 0.0207734 0)
(0.840438 0.00120505 0)
(0.855706 0.020871 0)
(0.856901 -0.00108641 0)
(0.851959 0.0189236 0)
(0.755506 0.0518291 0)
(0.850493 0.0189765 0)
(0.95854 -0.00121265 0)
(1.06825 -0.0399419 0)
(1.09265 -0.0554031 0)
(1.08979 -0.0275915 0)
(0.867722 -0.023198 0)
(0.855219 -0.0206705 0)
(0.838829 -0.0159104 0)
(1.04935 -0.0261943 0)
(0.929922 -0.0162886 0)
(0.96171 7.98366e-05 0)
(0.830991 -0.0386958 0)
(0.898235 0.0173768 0)
(0.903489 0.0197085 0)
(0.890204 0.0193668 0)
(0.915505 0.018817 0)
(0.896864 0.0182881 0)
(0.852329 -0.00724341 0)
(1.16538 0.0115976 0)
(0.902151 0.0196794 0)
(0.891204 0.0197015 0)
(0.91505 0.0186674 0)
(1.03689 -0.0211395 0)
(0.889732 0.0200306 0)
(0.920858 0.0152701 0)
(0.908629 0.0152366 0)
(0.889038 0.0194891 0)
(0.841412 0.000997644 0)
(0.880935 0.0202474 0)
(0.90607 0.0164648 0)
(0.881357 0.0207826 0)
(0.844277 0.0105968 0)
(0.915636 0.0153375 0)
(0.881334 0.0611824 0)
(0.881512 0.019625 0)
(0.879072 0.0197449 0)
(0.920553 0.0160125 0)
(0.872881 0.0215347 0)
(0.878377 0.0272641 0)
(0.935607 0.0141954 0)
(0.874237 0.0223124 0)
(0.843949 0.00430877 0)
(0.873843 0.0207273 0)
(0.929173 0.0144009 0)
(0.821558 0.00225404 0)
(0.926809 0.0128702 0)
(0.871232 0.0215729 0)
(1.05723 -0.00984065 0)
(0.83579 0.00382713 0)
(1.09503 -0.00158371 0)
(0.931725 0.0135034 0)
(0.841643 0.0102191 0)
(0.848417 0.00464968 0)
(0.842216 0.00973603 0)
(0.946781 0.011736 0)
(0.920644 0.0235847 0)
(0.840138 0.00784358 0)
(0.841226 0.00954786 0)
(0.848806 0.00501166 0)
(0.940112 0.0117707 0)
(1.09459 -0.00200547 0)
(0.86895 -0.0134997 0)
(0.941316 0.00709494 0)
(0.815417 0.0028567 0)
(1.01257 -0.00182103 0)
(0.937547 0.00876514 0)
(0.945965 0.00667982 0)
(0.951867 0.00806981 0)
(1.0691 -0.0368017 0)
(0.971801 0.00614152 0)
(0.964782 0.0054539 0)
(0.956532 0.00332251 0)
(0.810357 0.00138771 0)
(0.979275 0.000425854 0)
(0.961361 0.0048613 0)
(0.831918 0.00181338 0)
(0.977167 0.00518581 0)
(0.917157 0.0138405 0)
(0.831919 0.00192436 0)
(0.859841 0.0035156 0)
(0.98262 0.00383385 0)
(1.09075 -0.0174331 0)
(0.875898 -0.00841248 0)
(0.980219 -0.00406395 0)
(0.97451 -0.00192687 0)
(0.985141 0.000483392 0)
(1.06406 -0.00165992 0)
(0.987828 -0.000584331 0)
(0.884813 -0.0174611 0)
(0.994952 -0.00581317 0)
(0.814002 0.0011617 0)
(0.992767 -0.0107796 0)
(1.06471 -0.00142204 0)
(0.991744 -0.00422506 0)
(0.996522 0.021021 0)
(1.00785 0.0165295 0)
(1.07333 -0.0170306 0)
(0.990251 -0.00532953 0)
(1.03286 -0.0106337 0)
(1.0216 -0.0105977 0)
(1.02088 0.00568547 0)
(0.993034 -0.00650394 0)
(1.01391 -0.00754441 0)
(1.00831 -0.00585519 0)
(0.9587 -0.000239297 0)
(0.901086 -0.00489255 0)
(0.837672 -0.0538913 0)
(0.817032 0.0023106 0)
(0.906212 -0.0166186 0)
(0.829047 0.00231291 0)
(0.937822 -0.0167468 0)
(0.85028 -0.0129021 0)
(0.867762 -0.0210863 0)
(0.975762 0.00266724 0)
(0.773881 0.0568011 0)
(0.756812 0.00422329 0)
(0.893372 0.0501676 0)
(1.0922 -0.0185466 0)
(1.09988 -0.0179272 0)
(0.95705 0.0376821 0)
(0.957236 0.0396901 0)
(0.817126 0.00221334 0)
(1.1266 0.00316997 0)
(0.937308 0.0160001 0)
(0.92983 0.0134797 0)
(0.85257 0.0134123 0)
(0.783907 -0.00479229 0)
(0.933915 0.0139637 0)
(0.936354 0.0158163 0)
(0.937003 0.0150868 0)
(0.941274 0.0230041 0)
(1.17715 -0.0248784 0)
(1.05663 -0.0385196 0)
(1.03214 -0.0117296 0)
(1.01089 -0.0194571 0)
(0.820955 0.00210391 0)
(1.03969 -0.0113304 0)
(1.04613 -0.0363763 0)
(1.1085 -0.0528107 0)
(1.00431 0.0183355 0)
(0.794957 0.00913528 0)
(0.906544 0.0198325 0)
(0.938224 0.0247519 0)
(1.11658 -0.0709145 0)
(1.27679 -0.00655261 0)
(0.948022 -0.00275403 0)
(1.02587 -0.0334774 0)
(1.00191 0.00746342 0)
(0.949488 -0.00201494 0)
(1.09963 0.0213267 0)
(0.875108 0.0268246 0)
(0.83069 0.00389111 0)
(1.06571 -0.00954282 0)
(1.00495 0.0175127 0)
(1.19341 -0.0074442 0)
(0.934883 0.0124511 0)
(0.997928 0.0209377 0)
(0.994046 0.0219136 0)
(1.16256 -0.0782258 0)
(1.06904 -0.00175064 0)
(0.99865 0.0079426 0)
(1.06994 -0.00123922 0)
(1.00172 -0.0125915 0)
(1.00071 -0.00137879 0)
(1.13332 -0.0687485 0)
(1.08127 -0.0420408 0)
(0.96157 -0.0169668 0)
(1.0297 0.00127471 0)
(0.934732 0.0151119 0)
(0.998759 -0.0113258 0)
(0.825062 0.00231596 0)
(0.933682 0.0145771 0)
(0.891204 0.0235292 0)
(1.05168 -0.00951407 0)
(1.01752 0.0121266 0)
(0.818565 0.000678297 0)
(0.824692 0.00238329 0)
(0.876559 0.00333628 0)
(1.00844 -0.0170716 0)
(0.840306 0.0321006 0)
(0.805133 0.000226616 0)
(0.880918 0.00308399 0)
(0.881257 -0.0245116 0)
(1.00644 0.0124151 0)
(1.10871 -0.0510582 0)
(0.814586 0.00237612 0)
(1.05496 -0.00182108 0)
(0.882271 0.00255447 0)
(1.01451 -0.0148528 0)
(1.02977 -0.0103559 0)
(0.796148 0.00227802 0)
(0.812528 0.00598013 0)
(0.816749 -0.0654649 0)
(1.10443 -0.0521662 0)
(0.881394 0.0267243 0)
(1.09095 -0.0523178 0)
(1.02322 -0.00934643 0)
(1.02299 -0.0092959 0)
(0.780091 0.00699971 0)
(0.924053 0.0147138 0)
(1.02853 -0.0107813 0)
(0.843416 0.0249756 0)
(1.10987 -0.0266802 0)
(0.884177 0.00264219 0)
(0.999869 0.0167573 0)
(0.952438 -0.000802487 0)
(1.09377 -0.0190801 0)
(1.10834 -0.0391379 0)
(0.868604 0.00232087 0)
(0.867659 0.00284111 0)
(1.04204 -0.0119358 0)
(1.09898 -0.0182051 0)
(1.02759 -0.00846092 0)
(1.05862 -0.0162903 0)
(1.02809 -0.0117786 0)
(1.0285 -0.0109926 0)
(0.868723 0.00255301 0)
(0.952447 -0.00117525 0)
(1.03625 -0.00969256 0)
(1.06374 -0.0197038 0)
(1.0739 -0.0186647 0)
(1.10654 -0.0534926 0)
(0.998143 0.01778 0)
(0.843234 0.02558 0)
(1.0403 -0.00700142 0)
(1.05062 -0.0676358 0)
(1.00728 -0.0198887 0)
(1.11865 -0.0571987 0)
(0.998744 -0.0173284 0)
(0.936246 0.0252976 0)
(-0.108951 0.00637222 0)
(0.855584 0.00239997 0)
(0.851463 0.00319501 0)
(1.08178 -0.0338309 0)
(1.04191 -0.0101732 0)
(0.823536 0.000148366 0)
(1.01247 -0.0230346 0)
(1.04702 -0.0129765 0)
(0.709826 0.00570738 0)
(0.915779 -0.0109265 0)
(1.05106 -0.04452 0)
(1.0139 -0.0208373 0)
(0.888917 -0.0119597 0)
(1.01935 0.00835234 0)
(0.908653 0.0206176 0)
(0.864267 0.00429196 0)
(0.864963 0.00356821 0)
(1.05283 -0.00277606 0)
(0.903122 0.0233224 0)
(0.85299 0.00384308 0)
(0.848563 0.00332885 0)
(0.849893 0.0267378 0)
(1.01703 -0.0250741 0)
(0.857211 0.00350291 0)
(1.01299 -0.0210772 0)
(1.14742 -0.0901051 0)
(1.01823 0.00239463 0)
(1.1018 -0.0220532 0)
(0.819738 0.0028832 0)
(0.844305 0.0276324 0)
(1.10218 -0.0218097 0)
(0.85982 0.00779679 0)
(0.858419 0.0319549 0)
(1.0193 -0.0231677 0)
(0.86884 0.0313698 0)
(0.862365 0.0313577 0)
(0.86794 0.00496564 0)
(0.879618 0.00767419 0)
(0.862724 0.0317391 0)
(1.06239 -0.0146575 0)
(1.09968 -0.0228208 0)
(0.914226 0.0211227 0)
(0.837696 0.0110967 0)
(1.00897 -0.00676785 0)
(0.872404 0.0319701 0)
(0.893417 0.0235538 0)
(1.03291 -0.0019821 0)
(1.35898 0.0670632 0)
(0.918823 0.0188667 0)
(0.871318 0.0323339 0)
(0.886748 0.0332831 0)
(0.836587 0.0316018 0)
(1.03978 -0.0124797 0)
(0.844235 -0.048284 0)
(0.835251 0.0320109 0)
(0.829471 0.0265452 0)
(1.08443 -0.039709 0)
(0.886306 0.0333504 0)
(0.8305 0.0266687 0)
(0.90445 0.0216765 0)
(0.955923 0.00427474 0)
(0.868148 -0.0405316 0)