/*--------------------------------*- C++ -*----------------------------------*\
  =========                 |
  \\      /  F ield         | OpenFOAM: The Open Source CFD Toolbox
   \\    /   O peration     | Website:  https://openfoam.org
    \\  /    A nd           | Version:  12
     \\/     M anipulation  |
\*---------------------------------------------------------------------------*/
FoamFile
{
    format      ascii;
    class       volScalarField;
    location    "21.7";
    object      p;
}
// * * * * * * * * * * * * * * * * * * * * * * * * * * * * * * * * * * * * * //

dimensions      [1 -1 -2 0 0 0 0];

internalField   nonuniform List<scalar> 
9801
(
0.602566
0.602458
0.617748
0.655277
0.680386
0.686745
0.688384
0.687593
0.677195
0.653067
0.639931
0.640666
0.644346
0.659373
0.702256
0.731338
0.737618
0.739839
0.738655
0.723158
0.697256
0.689669
0.691636
0.696101
0.706603
0.738656
0.775525
0.788474
0.793081
0.793735
0.784097
0.760509
0.748619
0.750316
0.755263
0.763688
0.777181
0.804048
0.83384
0.847121
0.851987
0.851903
0.842134
0.823148
0.814924
0.818033
0.823871
0.832255
0.844215
0.868456
0.898698
0.912962
0.919922
0.92282
0.91683
0.898189
0.889968
0.892858
0.898616
0.906155
0.920625
0.952117
0.982725
0.996691
1.00356
1.00822
1.00049
0.979691
0.973889
0.979404
0.987934
0.999574
1.02732
1.07063
1.09895
1.11302
1.12236
1.12452
1.10558
1.08342
1.08104
1.09037
1.10611
1.14744
1.21292
1.25315
1.27578
1.29456
1.3075
1.28851
1.25181
1.23998
1.26171
1.31057
1.4293
1.57087
1.68093
3.08872
15.7096
0.631172
0.625436
0.625686
0.633847
0.659179
0.679357
0.685943
0.688021
0.680019
0.670997
0.666748
0.66481
0.667747
0.675258
0.686496
0.711209
0.730671
0.738071
0.739927
0.729693
0.718145
0.712866
0.711283
0.712565
0.718761
0.732306
0.757243
0.779851
0.7894
0.793908
0.790687
0.778328
0.769512
0.767089
0.768286
0.771673
0.778052
0.79538
0.821806
0.84031
0.848364
0.852513
0.850991
0.839915
0.832203
0.832185
0.835084
0.839912
0.846431
0.863965
0.891767
0.910747
0.918601
0.923839
0.922143
0.908011
0.900838
0.903014
0.90818
0.91434
0.924285
0.951181
0.9826
0.999027
1.00698
1.01171
1.00517
0.986436
0.979993
0.984356
0.992275
1.00297
1.03058
1.07163
1.09626
1.10926
1.119
1.12671
1.11276
1.08778
1.08448
1.09609
1.1115
1.14393
1.19991
1.24241
1.26934
1.29206
1.31197
1.3017
1.26555
1.25088
1.2693
1.3095
1.38503
1.4952
1.57712
2.93433
15.9782
0.637193
0.650139
0.653664
0.650734
0.653987
0.663526
0.673162
0.672775
0.667413
0.667574
0.670518
0.676089
0.690933
0.701231
0.702463
0.706664
0.718519
0.726525
0.725332
0.720192
0.719066
0.720772
0.724249
0.731119
0.740727
0.746596
0.754368
0.766651
0.776325
0.780286
0.781388
0.77978
0.780622
0.782806
0.785327
0.788779
0.793504
0.803335
0.816024
0.82718
0.834909
0.841502
0.846276
0.844894
0.844624
0.845913
0.84819
0.852201
0.857114
0.867838
0.885743
0.899694
0.909273
0.916276
0.919898
0.914196
0.910606
0.912258
0.91728
0.923738
0.931516
0.951149
0.975401
0.990437
0.99956
1.00659
1.00792
0.995765
0.988844
0.992151
0.999634
1.00893
1.02774
1.06294
1.08913
1.1049
1.11713
1.12799
1.12233
1.09782
1.09088
1.10011
1.11495
1.13638
1.18588
1.24082
1.27401
1.29671
1.31739
1.31513
1.28588
1.26925
1.2776
1.3099
1.36631
1.46167
1.52416
2.90183
16.0348
0.651949
0.676394
0.682289
0.680442
0.665903
0.651119
0.644216
0.64781
0.658108
0.670082
0.681784
0.698319
0.714311
0.722654
0.725665
0.719145
0.704471
0.700819
0.7062
0.716496
0.726362
0.733242
0.740677
0.74933
0.758256
0.762693
0.758849
0.753849
0.756113
0.766562
0.779255
0.787668
0.792305
0.794787
0.797136
0.800151
0.802649
0.804248
0.808362
0.81397
0.825776
0.838777
0.848354
0.855738
0.857424
0.857092
0.858078
0.858713
0.860008
0.863771
0.875569
0.892529
0.906254
0.916486
0.924558
0.92887
0.923331
0.922162
0.923374
0.925525
0.930034
0.940828
0.965628
0.986488
0.99976
1.00979
1.01835
1.01324
1.00064
0.998644
1.00244
1.00962
1.02034
1.05
1.08507
1.10586
1.1198
1.13213
1.13724
1.11676
1.09831
1.10057
1.11412
1.13153
1.16484
1.22115
1.26309
1.28986
1.31349
1.32567
1.30605
1.28334
1.2789
1.29857
1.33685
1.40768
1.45375
2.92402
16.0928
0.661267
0.689683
0.695925
0.698688
0.683119
0.648404
0.63913
0.641052
0.647484
0.664693
0.691065
0.712365
0.724686
0.729423
0.728336
0.714058
0.700637
0.700095
0.703606
0.71081
0.727142
0.742925
0.75133
0.757404
0.761143
0.759168
0.754642
0.754607
0.760306
0.769206
0.779426
0.790995
0.799409
0.804955
0.805195
0.801249
0.798755
0.800217
0.806752
0.82066
0.834033
0.843793
0.852152
0.85984
0.86591
0.862317
0.85655
0.853387
0.855152
0.86019
0.876645
0.899569
0.914423
0.92429
0.931602
0.937727
0.931887
0.922149
0.918607
0.920941
0.926968
0.937043
0.964659
0.991798
1.00693
1.01701
1.02592
1.02754
1.00936
0.996956
0.997659
1.00514
1.01534
1.03839
1.08028
1.10927
1.12582
1.1388
1.14936
1.13822
1.10874
1.09641
1.10578
1.12281
1.14671
1.19653
1.25126
1.28741
1.31367
1.33615
1.33205
1.3071
1.28962
1.28818
1.30806
1.35887
1.39759
2.92252
16.1406
0.665237
0.696852
0.699928
0.693526
0.673976
0.655557
0.648603
0.650063
0.65564
0.667957
0.691044
0.714285
0.724204
0.725284
0.719333
0.712323
0.710893
0.711466
0.714871
0.722845
0.732136
0.741513
0.749421
0.751691
0.751206
0.753639
0.758059
0.766474
0.775427
0.783152
0.78945
0.794491
0.799788
0.800372
0.795633
0.792415
0.794243
0.799242
0.814024
0.835663
0.849012
0.857076
0.863182
0.867603
0.862241
0.850367
0.846572
0.849484
0.85523
0.863782
0.88585
0.911639
0.925787
0.933679
0.939853
0.943075
0.930237
0.913682
0.912
0.918087
0.926825
0.939618
0.969052
0.99942
1.01486
1.02379
1.03163
1.03472
1.01609
0.995111
0.992481
1.00107
1.01273
1.03242
1.07448
1.11264
1.13234
1.14491
1.15598
1.15301
1.12365
1.10291
1.10138
1.11422
1.13365
1.17001
1.22472
1.26973
1.30105
1.32778
1.34388
1.33245
1.30903
1.29381
1.2934
1.31768
1.34984
2.92231
16.1851
0.657472
0.682023
0.684078
0.680346
0.676724
0.672214
0.668961
0.670631
0.675799
0.680846
0.685438
0.69293
0.703377
0.713195
0.718595
0.722697
0.727685
0.73304
0.736819
0.739507
0.740279
0.735587
0.730775
0.731558
0.737909
0.750508
0.768426
0.785391
0.796413
0.802363
0.806029
0.806821
0.797939
0.783485
0.779872
0.783916
0.790885
0.801731
0.825137
0.851624
0.865002
0.871533
0.875848
0.874064
0.85428
0.838429
0.837904
0.843561
0.852472
0.866653
0.894509
0.922931
0.936147
0.942505
0.947014
0.945656
0.929853
0.912299
0.907857
0.913713
0.923255
0.938868
0.970119
1.00335
1.01987
1.0281
1.03436
1.03644
1.02442
1.0031
0.994555
1.00007
1.01076
1.02716
1.06207
1.10692
1.1334
1.14752
1.15838
1.16367
1.14594
1.11809
1.10736
1.11214
1.12799
1.15063
1.1924
1.24235
1.28119
1.31055
1.33641
1.34526
1.33394
1.31289
1.2911
1.29149
1.29765
2.90229
16.254
0.647673
0.648843
0.659219
0.671684
0.683062
0.692718
0.698643
0.698238
0.694495
0.688997
0.679209
0.672491
0.675453
0.690901
0.714862
0.734832
0.749681
0.757395
0.760334
0.757209
0.744663
0.726486
0.716591
0.717552
0.722699
0.738463
0.773017
0.800426
0.813036
0.819204
0.822948
0.818687
0.793106
0.774254
0.772857
0.776818
0.783808
0.799991
0.833381
0.862081
0.87433
0.879955
0.881738
0.87275
0.854622
0.842291
0.840205
0.844174
0.850406
0.865186
0.897266
0.926764
0.939788
0.945411
0.947294
0.94559
0.937385
0.921606
0.914678
0.917616
0.924994
0.935754
0.960919
0.996415
1.01759
1.02729
1.03351
1.03877
1.03781
1.01894
1.00478
1.00431
1.0132
1.02419
1.0433
1.08475
1.12322
1.14402
1.15712
1.16864
1.17168
1.14866
1.12641
1.12153
1.12728
1.14157
1.16361
1.20496
1.24919
1.28397
1.31272
1.33745
1.34383
1.3357
1.312
1.28647
1.25283
2.859
16.3234
0.638239
0.632777
0.6374
0.656579
0.688397
0.709327
0.716668
0.720294
0.71716
0.698588
0.673157
0.666887
0.668733
0.674734
0.700294
0.742702
0.763607
0.770869
0.775404
0.774197
0.752622
0.72365
0.716896
0.719079
0.723381
0.733194
0.767487
0.807473
0.820896
0.82659
0.827582
0.814159
0.791762
0.779603
0.778656
0.782366
0.788586
0.8013
0.831156
0.861929
0.874288
0.878123
0.87587
0.870608
0.862866
0.851091
0.848456
0.853118
0.861722
0.869872
0.885941
0.914177
0.931464
0.938664
0.943001
0.94837
0.9508
0.940071
0.929847
0.929853
0.934318
0.939379
0.947702
0.974197
1.00659
1.02393
1.03388
1.04309
1.05112
1.04499
1.02374
1.01401
1.01402
1.02063
1.03023
1.05204
1.09686
1.13358
1.15533
1.17066
1.18354
1.18477
1.16056
1.13798
1.13081
1.13538
1.14804
1.17157
1.21375
1.25588
1.28936
1.31703
1.33795
1.33962
1.32888
1.29781
1.23736
2.79496
16.411
0.638688
0.635022
0.639454
0.660578
0.695863
0.714689
0.722104
0.726495
0.719909
0.691667
0.67423
0.67235
0.674057
0.678824
0.702394
0.745359
0.76766
0.775914
0.779669
0.76995
0.743925
0.728101
0.72434
0.726311
0.731613
0.746177
0.77434
0.802608
0.817321
0.821293
0.815951
0.80754
0.79919
0.790839
0.790654
0.796233
0.806111
0.814109
0.824824
0.844788
0.859534
0.865855
0.869659
0.875306
0.877509
0.871346
0.866895
0.868975
0.871794
0.873115
0.876298
0.889883
0.91612
0.93301
0.943859
0.953218
0.961103
0.964049
0.951136
0.939896
0.936457
0.936101
0.939903
0.951207
0.985978
1.01969
1.03823
1.05089
1.0604
1.06604
1.05002
1.02584
1.01615
1.01545
1.02099
1.03154
1.0602
1.11071
1.1493
1.17243
1.189
1.20112
1.19755
1.16862
1.14232
1.13443
1.14089
1.1549
1.18151
1.2262
1.26626
1.29558
1.31859
1.32982
1.32883
1.30899
1.25298
2.73493
16.5081
0.6423
0.643325
0.653127
0.680169
0.702045
0.71484
0.721813
0.721501
0.703757
0.688439
0.682691
0.682057
0.684898
0.695754
0.721449
0.744639
0.759791
0.766456
0.763205
0.75112
0.742988
0.73831
0.738871
0.744256
0.755011
0.765893
0.777716
0.790346
0.799205
0.802276
0.803672
0.807771
0.809623
0.809534
0.81154
0.816723
0.821188
0.820563
0.819134
0.823724
0.839515
0.855214
0.868706
0.88043
0.889393
0.894418
0.889207
0.879791
0.872581
0.866767
0.867434
0.873549
0.896939
0.928662
0.94918
0.962901
0.971565
0.977761
0.972856
0.950614
0.934374
0.929705
0.933739
0.941614
0.963775
1.01014
1.04356
1.05799
1.0675
1.07597
1.0747
1.04766
1.02156
1.01327
1.01572
1.02413
1.03815
1.07642
1.13155
1.16795
1.18727
1.20112
1.20812
1.19878
1.17077
1.14704
1.14129
1.14834
1.16425
1.19629
1.2408
1.27484
1.29745
1.31229
1.31744
1.31128
1.27504
2.7027
16.5991
0.648538
0.66295
0.68733
0.700785
0.707778
0.713643
0.713962
0.697034
0.686161
0.686297
0.689374
0.692582
0.704456
0.725485
0.738713
0.746509
0.750557
0.747686
0.741883
0.740996
0.743479
0.749056
0.758099
0.768706
0.774237
0.776474
0.776195
0.777363
0.781961
0.786536
0.797206
0.809811
0.821378
0.829164
0.832046
0.830019
0.823038
0.813031
0.810176
0.8132
0.825836
0.852157
0.875433
0.891219
0.900057
0.906234
0.90627
0.887035
0.864822
0.859422
0.862831
0.869689
0.887003
0.926486
0.957945
0.971549
0.97881
0.984373
0.984814
0.961304
0.934684
0.928673
0.932276
0.93899
0.951331
0.991339
1.03932
1.06189
1.07203
1.07923
1.08398
1.0731
1.03907
1.01961
1.0189
1.02624
1.0376
1.05374
1.09386
1.14296
1.17266
1.18941
1.20224
1.20886
1.2009
1.17679
1.15655
1.15196
1.15891
1.17436
1.20687
1.24773
1.276
1.29392
1.30318
1.30475
1.29113
2.69949
16.6718
0.653629
0.69196
0.714173
0.719762
0.719798
0.71417
0.693193
0.679091
0.678672
0.682047
0.689583
0.708863
0.728635
0.74047
0.74696
0.747647
0.739269
0.733842
0.736743
0.743138
0.751544
0.76402
0.77507
0.781584
0.780599
0.772057
0.765878
0.766314
0.773519
0.787959
0.805102
0.823317
0.835743
0.842584
0.845298
0.833275
0.811742
0.804269
0.806759
0.812384
0.825583
0.858873
0.888228
0.900564
0.906565
0.911714
0.910527
0.885899
0.863735
0.860424
0.864346
0.870069
0.884971
0.925277
0.961289
0.97554
0.982317
0.984679
0.980837
0.967484
0.944206
0.93405
0.937384
0.946897
0.958335
0.972965
1.01347
1.05066
1.066
1.07312
1.0779
1.08371
1.07418
1.04824
1.03587
1.03636
1.04133
1.04943
1.06226
1.09843
1.14414
1.17345
1.19148
1.20562
1.21331
1.20981
1.18927
1.16698
1.15848
1.1628
1.17629
1.20861
1.2477
1.27362
1.28825
1.29383
1.29963
2.72495
16.7344
0.656002
0.702602
0.719574
0.725392
0.724817
0.704415
0.68614
0.681446
0.682089
0.689462
0.709381
0.725832
0.733188
0.73919
0.740859
0.735826
0.732886
0.734884
0.742706
0.756232
0.770675
0.779396
0.784366
0.782969
0.770277
0.758224
0.756373
0.760267
0.773216
0.800274
0.825573
0.837982
0.844009
0.848997
0.847845
0.823352
0.802652
0.800258
0.804054
0.81132
0.831625
0.87004
0.895396
0.905829
0.911662
0.911472
0.900493
0.884893
0.869715
0.865861
0.870386
0.881033
0.895034
0.916518
0.95001
0.968323
0.974472
0.97473
0.977029
0.979888
0.970425
0.956106
0.953551
0.957469
0.96109
0.965336
0.976054
1.01335
1.04941
1.06707
1.07976
1.09136
1.1
1.09015
1.06332
1.04745
1.04331
1.04445
1.05074
1.06455
1.10188
1.14759
1.17856
1.19961
1.21572
1.22377
1.22001
1.19534
1.16744
1.15625
1.15991
1.17214
1.20653
1.24704
1.27196
1.28183
1.29915
2.77396
16.7986
0.670022
0.698254
0.711804
0.712902
0.703823
0.695853
0.694558
0.694572
0.701816
0.714481
0.723557
0.72828
0.729284
0.721601
0.71734
0.720905
0.730594
0.747203
0.765866
0.779744
0.786808
0.790705
0.789278
0.770286
0.751225
0.747538
0.750717
0.756815
0.777051
0.817979
0.842755
0.851113
0.854501
0.852184
0.83667
0.814597
0.803931
0.803392
0.807112
0.815846
0.838264
0.872935
0.897924
0.907262
0.907134
0.899879
0.896968
0.893426
0.885723
0.88369
0.888611
0.895948
0.899734
0.904175
0.918085
0.946996
0.964238
0.973384
0.982687
0.99251
0.999729
0.989108
0.970773
0.962252
0.957378
0.954878
0.959322
0.974366
1.01879
1.06361
1.0868
1.09909
1.10948
1.11687
1.10383
1.07125
1.04873
1.04269
1.04657
1.05435
1.07058
1.11243
1.16011
1.19039
1.20828
1.22155
1.22613
1.21874
1.19157
1.16245
1.15108
1.15435
1.16817
1.20789
1.24832
1.2678
1.29169
2.83692
16.8776
0.673446
0.679814
0.681245
0.686213
0.693758
0.701048
0.711243
0.723912
0.731778
0.734537
0.733882
0.724775
0.706986
0.699311
0.701411
0.70869
0.730148
0.765936
0.791128
0.799857
0.802849
0.799999
0.782925
0.754372
0.74256
0.74346
0.747298
0.754239
0.781389
0.82561
0.847761
0.85593
0.85881
0.847988
0.83071
0.817861
0.810502
0.81312
0.822844
0.836541
0.845305
0.857719
0.877764
0.889323
0.893302
0.896474
0.902823
0.910147
0.914317
0.907895
0.902159
0.899155
0.894199
0.890605
0.894488
0.915776
0.95312
0.979483
0.997324
1.00964
1.01735
1.01785
0.994791
0.966502
0.951938
0.948932
0.952981
0.960352
0.980823
1.03546
1.08225
1.10279
1.11324
1.12173
1.12449
1.10517
1.07008
1.04995
1.04741
1.05366
1.06376
1.08468
1.1293
1.17064
1.19437
1.20876
1.21964
1.22289
1.21375
1.18734
1.15996
1.14893
1.15068
1.16653
1.20849
1.24144
1.27374
2.91476
16.9713
0.671074
0.654175
0.653284
0.660682
0.682329
0.712152
0.736922
0.75035
0.755157
0.754252
0.740899
0.71147
0.691763
0.689754
0.692985
0.699634
0.723567
0.775706
0.801526
0.809092
0.813158
0.808795
0.778703
0.752703
0.745306
0.746752
0.753407
0.771287
0.795185
0.821177
0.840431
0.846124
0.84096
0.834212
0.834428
0.832881
0.832171
0.835111
0.84048
0.84493
0.843949
0.840471
0.844506
0.8646
0.88685
0.903101
0.918366
0.929968
0.936266
0.933089
0.915029
0.895005
0.881677
0.879068
0.883445
0.892894
0.928752
0.979793
1.00723
1.01863
1.0262
1.03089
1.02175
0.983876
0.95636
0.950975
0.95486
0.962558
0.974285
0.998761
1.05152
1.0909
1.10714
1.11515
1.11883
1.11912
1.10539
1.07875
1.0635
1.06305
1.06978
1.07898
1.09598
1.13621
1.17189
1.19183
1.20459
1.21517
1.22192
1.21657
1.19033
1.1598
1.14599
1.14531
1.16063
1.19906
1.24295
2.99639
17.0634
0.668709
0.646952
0.648133
0.652619
0.667617
0.713378
0.750596
0.761056
0.766161
0.76618
0.744854
0.707297
0.693465
0.692947
0.695828
0.706235
0.738374
0.778695
0.802166
0.809772
0.806887
0.790107
0.775325
0.763385
0.75955
0.764942
0.778821
0.791476
0.79636
0.801089
0.810817
0.823323
0.830421
0.836157
0.843936
0.855282
0.862663
0.862016
0.854527
0.844006
0.830116
0.825092
0.82853
0.842066
0.877758
0.914765
0.936017
0.945681
0.95096
0.950219
0.928468
0.894504
0.879103
0.87874
0.88335
0.890271
0.909682
0.962137
1.00574
1.02082
1.02588
1.02335
1.01894
1.00815
0.982234
0.9675
0.968401
0.976355
0.984908
0.991169
1.00514
1.04625
1.08281
1.10061
1.11108
1.12057
1.12854
1.12225
1.09863
1.07933
1.07164
1.0719
1.07814
1.0963
1.13659
1.17109
1.19254
1.2095
1.22334
1.2303
1.22248
1.19099
1.15438
1.13493
1.13272
1.14748
1.20061
3.06029
17.1321
0.664955
0.651513
0.652047
0.655875
0.676719
0.724482
0.752652
0.762965
0.766783
0.756313
0.729336
0.711073
0.70284
0.703885
0.713161
0.73194
0.750016
0.76836
0.782387
0.785512
0.78008
0.776325
0.779757
0.784809
0.790275
0.793169
0.796193
0.798324
0.7897
0.779658
0.781503
0.798166
0.824607
0.846808
0.865603
0.877034
0.882341
0.882231
0.866249
0.835182
0.818123
0.817176
0.821385
0.829793
0.864127
0.917903
0.942412
0.951107
0.956802
0.956614
0.939705
0.906345
0.88597
0.884429
0.891526
0.906129
0.920233
0.937313
0.97257
0.999112
1.00914
1.0143
1.02042
1.02733
1.02591
1.00616
0.991384
0.987245
0.985211
0.982826
0.985856
0.999569
1.04115
1.08415
1.11001
1.12678
1.13896
1.14629
1.13969
1.10932
1.07944
1.06735
1.0687
1.07497
1.0963
1.14187
1.18156
1.20489
1.21887
1.22851
1.23078
1.21897
1.18552
1.14491
1.12015
1.11348
1.14661
3.0864
17.1835
0.666344
0.660787
0.663058
0.675459
0.70166
0.72809
0.745765
0.752364
0.746853
0.732697
0.725337
0.721114
0.722572
0.730986
0.744782
0.752195
0.754668
0.750603
0.749884
0.75961
0.770209
0.779054
0.792919
0.810252
0.819608
0.821765
0.812715
0.791856
0.771965
0.766555
0.769592
0.77938
0.813069
0.858393
0.88328
0.89219
0.896465
0.893771
0.869624
0.833194
0.819093
0.819452
0.823596
0.833876
0.85927
0.906177
0.939421
0.949976
0.949602
0.940822
0.936677
0.929429
0.914211
0.90812
0.911695
0.917849
0.921693
0.922009
0.92734
0.95604
0.990814
1.01201
1.02758
1.04307
1.0525
1.05078
1.02587
0.998278
0.98182
0.975796
0.977005
0.983219
0.9999
1.04916
1.0996
1.12585
1.13814
1.1471
1.15013
1.13936
1.10491
1.07493
1.06548
1.06808
1.07642
1.10348
1.15358
1.19167
1.21063
1.2206
1.22656
1.22499
1.2115
1.1766
1.13381
1.10309
1.09615
3.05385
17.2268
0.669556
0.673322
0.686797
0.704264
0.716559
0.726558
0.730783
0.727826
0.720402
0.720445
0.725587
0.736247
0.749843
0.758881
0.76283
0.760959
0.743715
0.730483
0.730029
0.73901
0.762944
0.792381
0.816872
0.828557
0.833434
0.83566
0.822986
0.784909
0.765449
0.76484
0.768515
0.775256
0.80525
0.86317
0.888819
0.896752
0.900299
0.891699
0.867352
0.841856
0.828484
0.829301
0.839307
0.856221
0.868263
0.88204
0.908324
0.926424
0.932497
0.936647
0.942548
0.950159
0.954662
0.944347
0.93119
0.922801
0.913368
0.905694
0.907227
0.917523
0.953869
1.00331
1.03653
1.05267
1.0622
1.06845
1.06225
1.02716
0.991072
0.977021
0.977763
0.983833
0.993336
1.01581
1.0683
1.11062
1.12869
1.13795
1.14338
1.14438
1.13389
1.1042
1.08006
1.07344
1.07644
1.0845
1.11041
1.15814
1.19126
1.20626
1.21425
1.21927
1.21757
1.2047
1.16906
1.11912
1.08131
2.95936
17.2663
0.675602
0.694564
0.710586
0.71673
0.71899
0.716219
0.712441
0.71122
0.713737
0.722146
0.739351
0.760098
0.771742
0.776524
0.77227
0.749112
0.726661
0.721518
0.724188
0.731677
0.760075
0.809137
0.832877
0.839913
0.842501
0.836362
0.807632
0.778852
0.768589
0.768778
0.772714
0.786977
0.818716
0.85706
0.882849
0.890848
0.885223
0.873839
0.869026
0.861558
0.854338
0.854841
0.861404
0.867464
0.868733
0.864106
0.866074
0.887932
0.918506
0.940116
0.957886
0.972886
0.980932
0.979427
0.956988
0.926733
0.905631
0.899015
0.901549
0.907188
0.920123
0.971464
1.03034
1.05418
1.06323
1.06754
1.06597
1.05401
1.0209
0.994815
0.989192
0.994763
1.00444
1.01448
1.03175
1.07236
1.10608
1.12227
1.13153
1.13958
1.14625
1.14272
1.11748
1.09149
1.07905
1.07732
1.08216
1.10559
1.15138
1.18402
1.20004
1.2095
1.21577
1.21577
1.20348
1.15759
1.09151
2.843
17.3181
0.693104
0.711667
0.717228
0.716698
0.70553
0.695531
0.695476
0.702416
0.718016
0.742953
0.765415
0.775549
0.779897
0.781249
0.763796
0.733177
0.721074
0.721648
0.724975
0.732001
0.770284
0.819127
0.837397
0.844092
0.845824
0.827302
0.799805
0.782469
0.776292
0.779601
0.793733
0.812505
0.823642
0.836267
0.853061
0.864276
0.868191
0.871829
0.876565
0.885019
0.891854
0.888345
0.879647
0.870212
0.855422
0.84627
0.847557
0.857162
0.890361
0.938314
0.971753
0.987917
0.995491
0.999122
0.988127
0.944518
0.910195
0.901675
0.904164
0.911556
0.926267
0.949329
0.993356
1.03285
1.04871
1.05401
1.05646
1.05871
1.05619
1.03823
1.0192
1.01116
1.00963
1.01005
1.01447
1.02918
1.06884
1.10433
1.12406
1.13852
1.1519
1.16048
1.15796
1.12843
1.09264
1.07399
1.07111
1.07494
1.0975
1.14504
1.18158
1.20094
1.21192
1.21617
1.21506
1.1922
1.13431
2.7549
17.3867
0.71014
0.717047
0.715125
0.69703
0.683707
0.683131
0.68761
0.699549
0.733969
0.772574
0.785952
0.789456
0.786856
0.77279
0.74383
0.723668
0.720561
0.722898
0.727884
0.746781
0.783807
0.81813
0.835029
0.838532
0.826598
0.812741
0.804618
0.796419
0.796888
0.805559
0.816802
0.82222
0.820907
0.813544
0.814486
0.832223
0.857663
0.877679
0.897595
0.912271
0.918452
0.916418
0.897376
0.865529
0.842092
0.836748
0.839732
0.845573
0.862113
0.920733
0.973925
0.991388
0.998003
0.997163
0.985444
0.964825
0.935341
0.919552
0.919836
0.928043
0.93782
0.944237
0.952796
0.981052
1.0184
1.04027
1.05155
1.06125
1.07214
1.07708
1.06335
1.03654
1.01562
1.00588
1.00484
1.00946
1.02632
1.0704
1.11196
1.13647
1.15071
1.1606
1.16682
1.16201
1.12813
1.08729
1.06791
1.06494
1.06959
1.09261
1.14427
1.18489
1.20298
1.2096
1.2115
1.20293
1.18051
2.7275
17.4736
0.723583
0.717358
0.694684
0.676571
0.672776
0.675216
0.680707
0.698436
0.749923
0.785151
0.795978
0.800443
0.797126
0.76747
0.737196
0.725212
0.724045
0.730174
0.74997
0.769693
0.782799
0.798563
0.809936
0.812377
0.812264
0.814886
0.817431
0.823515
0.829748
0.831982
0.830591
0.820859
0.802545
0.794524
0.797021
0.80693
0.838999
0.88541
0.917724
0.931072
0.936551
0.936511
0.916592
0.868647
0.842711
0.838699
0.84187
0.85102
0.870812
0.901298
0.94677
0.975397
0.98347
0.982676
0.980716
0.981091
0.975159
0.959023
0.947262
0.94417
0.943854
0.940019
0.936347
0.941734
0.967809
1.01351
1.04729
1.06688
1.07944
1.08824
1.09243
1.07627
1.0386
1.01046
1.00194
1.00377
1.00974
1.02966
1.08058
1.12472
1.146
1.15636
1.16369
1.16695
1.15903
1.12495
1.08618
1.06757
1.06323
1.06668
1.09135
1.14367
1.1812
1.19594
1.2022
1.19935
1.20646
2.7648
17.5713
0.739437
0.713899
0.682643
0.672416
0.67254
0.675394
0.682773
0.710528
0.753862
0.784692
0.79512
0.793461
0.776278
0.759201
0.745703
0.738999
0.743292
0.757103
0.770126
0.774899
0.774692
0.769237
0.772244
0.788619
0.807963
0.825813
0.844098
0.854862
0.857395
0.85271
0.836437
0.806424
0.787293
0.784584
0.787984
0.794445
0.817664
0.882229
0.922624
0.934809
0.93998
0.935181
0.913231
0.883878
0.85862
0.852287
0.857723
0.87195
0.884565
0.890414
0.900728
0.927931
0.955217
0.97045
0.979986
0.991772
1.00241
1.00459
0.988849
0.967125
0.949144
0.934865
0.927973
0.929538
0.936112
0.964992
1.02264
1.06368
1.08087
1.08959
1.09521
1.09403
1.07283
1.03377
1.01047
1.00618
1.01026
1.01822
1.0398
1.08904
1.12852
1.14554
1.15335
1.15922
1.1634
1.16097
1.13196
1.0914
1.06896
1.0636
1.06463
1.08553
1.13532
1.17087
1.18649
1.18671
1.21654
2.8499
17.6759
0.74818
0.719036
0.684033
0.675967
0.677601
0.68785
0.707898
0.724966
0.741067
0.758442
0.766224
0.765381
0.76441
0.766838
0.768252
0.771528
0.775004
0.777798
0.779172
0.770652
0.752614
0.74637
0.750096
0.76467
0.799845
0.84243
0.868818
0.878193
0.88099
0.870479
0.836992
0.803276
0.787988
0.786742
0.78979
0.799975
0.825657
0.864515
0.906283
0.923681
0.925481
0.916711
0.909878
0.90612
0.896261
0.886293
0.884012
0.88696
0.88987
0.884478
0.876827
0.881538
0.908816
0.950009
0.982384
1.00467
1.01958
1.02759
1.02854
1.00623
0.966687
0.937206
0.927399
0.929355
0.934889
0.945094
0.982652
1.0426
1.0731
1.08378
1.08755
1.08711
1.08568
1.0727
1.04274
1.02192
1.01597
1.01698
1.02172
1.039
1.08496
1.12404
1.14269
1.15349
1.16336
1.1696
1.16871
1.14045
1.09557
1.06625
1.05664
1.05632
1.07402
1.12239
1.16036
1.17313
1.2132
2.95542
17.7797
0.733626
0.720677
0.703189
0.697876
0.702744
0.715148
0.724847
0.728453
0.725337
0.720339
0.728873
0.74838
0.766458
0.784009
0.798752
0.805476
0.804089
0.795763
0.779112
0.752622
0.73752
0.736296
0.739683
0.748104
0.785878
0.848285
0.875364
0.88351
0.887855
0.881376
0.849467
0.810943
0.795259
0.79514
0.804481
0.824114
0.83729
0.84498
0.860735
0.88521
0.901578
0.909047
0.91583
0.926397
0.935087
0.931697
0.915717
0.901002
0.88703
0.870172
0.861664
0.863366
0.870821
0.904672
0.966777
1.00885
1.02467
1.03198
1.03584
1.03031
0.999019
0.95634
0.936996
0.936036
0.94324
0.955947
0.970471
0.999371
1.04204
1.06598
1.07568
1.08174
1.08797
1.09337
1.08675
1.05821
1.03192
1.01916
1.01654
1.02029
1.03346
1.0767
1.1217
1.14631
1.1584
1.16662
1.17352
1.17514
1.14796
1.09633
1.0598
1.04678
1.04536
1.06207
1.11487
1.14987
1.20138
3.06112
17.8734
0.725832
0.73014
0.733023
0.732793
0.731801
0.73221
0.732497
0.720557
0.702856
0.699183
0.702952
0.721182
0.763622
0.802454
0.822697
0.829605
0.829038
0.810702
0.773902
0.745522
0.736427
0.737682
0.741231
0.751941
0.784107
0.836443
0.869928
0.879093
0.874338
0.859542
0.849438
0.836478
0.824135
0.823211
0.830144
0.836796
0.839736
0.833062
0.826602
0.83498
0.867242
0.903053
0.92871
0.949819
0.961779
0.966387
0.956115
0.923531
0.887469
0.866564
0.861278
0.864027
0.869188
0.882501
0.928512
0.992207
1.01995
1.02808
1.02587
1.01735
1.01026
0.994276
0.971338
0.960896
0.960973
0.964031
0.966449
0.971011
0.989807
1.03079
1.0609
1.07625
1.08676
1.09766
1.10716
1.10513
1.07438
1.03832
1.01913
1.01306
1.01345
1.02478
1.06942
1.12062
1.14877
1.16423
1.17364
1.17748
1.17533
1.14465
1.09148
1.05188
1.03702
1.03556
1.05915
1.10796
1.17401
3.15334
17.9457
0.725625
0.747041
0.756821
0.760464
0.757603
0.747432
0.727833
0.704795
0.696065
0.696963
0.700579
0.70798
0.74749
0.808486
0.829489
0.835864
0.838623
0.823754
0.780872
0.749316
0.74143
0.743706
0.756675
0.778765
0.793432
0.807424
0.83077
0.847417
0.852488
0.855357
0.859277
0.864491
0.868165
0.863202
0.854018
0.844226
0.829475
0.813603
0.808727
0.812215
0.825464
0.872509
0.930544
0.960244
0.971618
0.978079
0.979057
0.957445
0.907676
0.875354
0.868016
0.871269
0.883217
0.899548
0.914762
0.943051
0.981369
1.00076
1.00708
1.01161
1.01698
1.02302
1.02174
1.00442
0.984845
0.97123
0.962104
0.955973
0.958476
0.977487
1.02355
1.06237
1.08705
1.10619
1.11635
1.1221
1.11589
1.07643
1.03074
1.00967
1.00704
1.01053
1.0221
1.07301
1.13221
1.15939
1.16767
1.17135
1.17141
1.16618
1.13987
1.0904
1.04962
1.0322
1.03045
1.05137
1.12954
3.21403
17.9988
0.72264
0.761407
0.771563
0.775381
0.773184
0.755024
0.720086
0.700156
0.697709
0.700045
0.704529
0.719862
0.756957
0.801221
0.825149
0.830834
0.822184
0.806366
0.791055
0.771521
0.764745
0.770483
0.784071
0.792455
0.794073
0.785868
0.782846
0.799058
0.831384
0.857232
0.876969
0.8942
0.902494
0.90127
0.882736
0.850076
0.819573
0.805463
0.804771
0.808448
0.814519
0.837957
0.905883
0.95766
0.972831
0.976025
0.96586
0.95106
0.935436
0.911027
0.896864
0.896258
0.902218
0.907651
0.910018
0.909157
0.920763
0.957553
0.991427
1.01192
1.02808
1.04299
1.0511
1.04764
1.02108
0.984832
0.957439
0.946713
0.947178
0.952581
0.977176
1.04059
1.08941
1.10746
1.11555
1.12103
1.12066
1.10794
1.06872
1.02913
1.01389
1.01345
1.02066
1.034
1.07656
1.12692
1.14941
1.15655
1.16035
1.16394
1.16327
1.1431
1.09601
1.05044
1.02626
1.01442
1.07066
3.2235
18.0291
0.715627
0.765382
0.776123
0.780844
0.781195
0.759651
0.722684
0.704717
0.702657
0.706998
0.722545
0.739941
0.75386
0.774927
0.79522
0.803902
0.805412
0.807707
0.807749
0.807331
0.804383
0.801633
0.801019
0.797087
0.778886
0.764311
0.76332
0.769443
0.795099
0.847932
0.89221
0.913824
0.92197
0.924874
0.915309
0.871245
0.824167
0.808404
0.808009
0.813892
0.830524
0.850569
0.874256
0.915227
0.943265
0.950291
0.95091
0.953982
0.956673
0.956424
0.945462
0.930359
0.919255
0.909536
0.897131
0.889358
0.891771
0.906571
0.952277
1.00437
1.03752
1.0526
1.06013
1.06321
1.05417
1.01242
0.966992
0.949225
0.948722
0.955436
0.969632
1.00032
1.05733
1.09276
1.10427
1.10607
1.1045
1.10819
1.1073
1.08266
1.04977
1.03167
1.02469
1.02248
1.02674
1.06136
1.11186
1.13945
1.15169
1.16022
1.16609
1.16576
1.14771
1.09992
1.04852
1.01038
1.01016
3.1726
18.0412
0.712728
0.75935
0.772715
0.775306
0.770068
0.757795
0.735998
0.721445
0.721174
0.729725
0.741885
0.746585
0.748383
0.745991
0.752086
0.775768
0.799535
0.816149
0.83228
0.841976
0.842122
0.831203
0.812916
0.785495
0.761055
0.753749
0.755678
0.760283
0.771526
0.822247
0.892104
0.917511
0.924868
0.923419
0.906566
0.881087
0.851005
0.831058
0.828908
0.837189
0.848611
0.854754
0.858381
0.861878
0.883551
0.918565
0.944182
0.960758
0.975317
0.985914
0.988441
0.974331
0.944983
0.913078
0.891
0.884983
0.887889
0.893196
0.911592
0.975509
1.03217
1.05098
1.05725
1.0559
1.0473
1.03367
1.0043
0.97728
0.969473
0.972817
0.978546
0.983454
0.998551
1.04105
1.07524
1.08967
1.09892
1.11124
1.12163
1.12541
1.10389
1.06098
1.02765
1.01407
1.01238
1.01563
1.0471
1.10313
1.14008
1.15688
1.16434
1.16662
1.16291
1.14367
1.09646
1.03065
0.988212
3.06541
18.0612
0.705361
0.740311
0.758145
0.763391
0.765795
0.765615
0.75887
0.749807
0.744713
0.745214
0.747771
0.745342
0.733441
0.729148
0.732373
0.745701
0.782179
0.825646
0.852548
0.863789
0.867722
0.860656
0.827964
0.784045
0.761483
0.756559
0.758772
0.767617
0.787848
0.814631
0.857426
0.894344
0.905365
0.903429
0.898267
0.894465
0.888328
0.875939
0.864961
0.86073
0.859484
0.8544
0.841556
0.836163
0.841141
0.866122
0.91688
0.962049
0.987102
0.998806
1.00503
1.00481
0.983478
0.933727
0.898698
0.889528
0.891891
0.901521
0.919744
0.946203
0.99206
1.02547
1.03641
1.03838
1.03944
1.0431
1.04472
1.03095
1.00678
0.990588
0.981187
0.973406
0.971428
0.98207
1.02366
1.07142
1.10018
1.11667
1.12969
1.13762
1.13917
1.11368
1.05995
1.02009
1.00572
1.00482
1.00883
1.04288
1.10704
1.14586
1.15832
1.1614
1.16024
1.15374
1.13282
1.07618
1.01056
2.93432
18.1176
0.696634
0.715309
0.741474
0.760795
0.770719
0.777838
0.782256
0.780057
0.76841
0.756097
0.744404
0.730706
0.721792
0.721305
0.724546
0.73095
0.757485
0.819222
0.855986
0.866707
0.870702
0.867416
0.842502
0.801456
0.77652
0.77192
0.777506
0.791769
0.803973
0.808826
0.815248
0.834994
0.865103
0.884581
0.895415
0.906885
0.918632
0.922365
0.911245
0.890896
0.870386
0.848145
0.831724
0.828238
0.831255
0.837728
0.867698
0.940789
0.98654
0.99956
1.00411
1
0.985819
0.963588
0.932693
0.915157
0.913736
0.920031
0.92624
0.930894
0.940345
0.972216
1.00705
1.02615
1.03786
1.05248