/*--------------------------------*- C++ -*----------------------------------*\
  =========                 |
  \\      /  F ield         | OpenFOAM: The Open Source CFD Toolbox
   \\    /   O peration     | Website:  https://openfoam.org
    \\  /    A nd           | Version:  12
     \\/     M anipulation  |
\*---------------------------------------------------------------------------*/
FoamFile
{
    format      ascii;
    class       volScalarField;
    location    "7.6";
    object      p;
}
// * * * * * * * * * * * * * * * * * * * * * * * * * * * * * * * * * * * * * //

dimensions      [1 -1 -2 0 0 0 0];

internalField   nonuniform List<scalar> 
9801
(
0.648012
0.655946
0.659701
0.663177
0.666207
0.668429
0.668313
0.669497
0.672206
0.676542
0.685362
0.694024
0.699637
0.703719
0.707368
0.710493
0.711504
0.711013
0.71278
0.715946
0.721444
0.731495
0.740575
0.746373
0.750603
0.754314
0.757304
0.756375
0.756331
0.758927
0.762826
0.770207
0.781921
0.791016
0.796652
0.801035
0.805074
0.806238
0.80375
0.80517
0.808619
0.813537
0.823747
0.837107
0.845608
0.851371
0.85613
0.859292
0.856187
0.854573
0.857564
0.862366
0.86998
0.885075
0.898771
0.906679
0.912667
0.917298
0.915677
0.909574
0.911137
0.915858
0.923003
0.937784
0.957098
0.969738
0.977695
0.983858
0.986505
0.976498
0.971672
0.976684
0.984304
0.99958
1.026
1.04515
1.05654
1.06535
1.07202
1.06367
1.05029
1.05286
1.06371
1.08442
1.12244
1.15337
1.17235
1.18785
1.20165
1.19521
1.17229
1.17408
1.19784
1.24578
1.32881
1.41084
1.48271
2.22943
7.3353
0.654374
0.663198
0.66668
0.669797
0.672487
0.674133
0.674314
0.675706
0.678279
0.682317
0.691579
0.700769
0.706363
0.7103
0.713618
0.716355
0.71726
0.71714
0.718935
0.721907
0.726891
0.737429
0.746927
0.752642
0.756735
0.760222
0.762764
0.762191
0.762322
0.764824
0.768397
0.775274
0.787572
0.796949
0.802587
0.806876
0.81057
0.811573
0.809512
0.810708
0.813925
0.81835
0.828387
0.842366
0.85121
0.856948
0.8615
0.864501
0.861746
0.860057
0.862691
0.867008
0.873726
0.888946
0.903401
0.911686
0.917633
0.922222
0.921314
0.915463
0.916286
0.920521
0.926614
0.940143
0.96
0.973216
0.981508
0.9879
0.991564
0.983161
0.977551
0.981432
0.98823
1.00119
1.02664
1.0474
1.06
1.06919
1.07662
1.07054
1.05656
1.0575
1.06724
1.08269
1.11644
1.14908
1.16994
1.18668
1.20274
1.20331
1.18242
1.17898
1.20021
1.23532
1.29637
1.36046
1.41164
2.14205
7.42826
0.656817
0.665483
0.668825
0.671853
0.674453
0.67603
0.6766
0.678283
0.680894
0.684809
0.694079
0.703282
0.70867
0.712485
0.71574
0.718492
0.719574
0.719782
0.721661
0.724599
0.729177
0.739571
0.749224
0.754886
0.758968
0.762481
0.765159
0.764914
0.76508
0.767525
0.771005
0.777247
0.789523
0.799139
0.804817
0.809149
0.812924
0.814305
0.812312
0.813255
0.816412
0.820677
0.830048
0.84424
0.8534
0.859184
0.863749
0.867223
0.865178
0.862855
0.865149
0.86936
0.875426
0.889871
0.904963
0.913624
0.919631
0.9245
0.925451
0.919923
0.919243
0.92292
0.928497
0.939185
0.959263
0.974338
0.983282
0.990011
0.995158
0.989284
0.981873
0.984426
0.990807
1.00003
1.02217
1.04685
1.06118
1.07069
1.07888
1.0771
1.06244
1.06002
1.06868
1.08087
1.1072
1.14593
1.17218
1.18987
1.20602
1.21201
1.19386
1.18605
1.20199
1.23237
1.28244
1.34271
1.38168
2.12701
7.41813
0.660128
0.668993
0.67234
0.675392
0.678003
0.679492
0.680047
0.68174
0.684328
0.687983
0.696913
0.706479
0.71206
0.715952
0.719246
0.72205
0.723048
0.72316
0.724975
0.727891
0.732149
0.742271
0.75245
0.758326
0.762484
0.766055
0.768795
0.768512
0.768467
0.770787
0.774214
0.779727
0.791842
0.802281
0.808245
0.812658
0.816502
0.818169
0.815979
0.816501
0.819562
0.823696
0.831772
0.846371
0.856629
0.862684
0.867319
0.871141
0.869813
0.866362
0.868067
0.872186
0.877548
0.890166
0.906838
0.916748
0.923003
0.928068
0.930712
0.924967
0.921852
0.924982
0.930619
0.939071
0.958875
0.977085
0.98691
0.993739
0.999538
0.996391
0.986107
0.986078
0.992239
1.00053
1.01803
1.0459
1.06348
1.07372
1.08231
1.08578
1.0724
1.06347
1.06958
1.08135
1.09888
1.13433
1.1664
1.1869
1.20397
1.21737
1.20796
1.19284
1.19763
1.22253
1.2585
1.31137
1.34219
2.13719
7.42093
0.663299
0.672521
0.675931
0.679076
0.681769
0.683154
0.683286
0.684721
0.687265
0.690812
0.699506
0.709624
0.715502
0.719482
0.722814
0.725633
0.726406
0.726192
0.727928
0.730844
0.734888
0.744672
0.755523
0.76171
0.765898
0.769431
0.772132
0.771757
0.771432
0.773622
0.776979
0.781848
0.793506
0.805063
0.811482
0.815936
0.81972
0.821643
0.819362
0.819242
0.822088
0.826097
0.832849
0.847433
0.859244
0.865779
0.870479
0.874462
0.874245
0.869856
0.870383
0.874183
0.879187
0.889496
0.907392
0.919319
0.926147
0.931416
0.935396
0.931054
0.925095
0.92687
0.932299
0.939392
0.956336
0.97722
0.988789
0.995964
1.00232
1.00346
0.993048
0.988418
0.993064
1.00094
1.01317
1.03998
1.06363
1.07627
1.08553
1.093
1.08558
1.07054
1.06966
1.07988
1.09364
1.12063
1.15723
1.18382
1.20323
1.22083
1.22479
1.20854
1.20163
1.21185
1.23784
1.27992
1.30825
2.14643
7.42662
0.666754
0.676314
0.679674
0.682734
0.685268
0.686327
0.686161
0.687561
0.690184
0.693817
0.702515
0.713181
0.719294
0.723197
0.726411
0.729096
0.729661
0.729228
0.730908
0.733841
0.737817
0.747173
0.758601
0.76519
0.769443
0.772979
0.775827
0.775562
0.774635
0.776495
0.779782
0.784307
0.795218
0.807668
0.814713
0.81935
0.823269
0.825919
0.823696
0.822202
0.824544
0.828489
0.834547
0.848516
0.861717
0.868893
0.873797
0.878096
0.879646
0.874515
0.8727
0.875912
0.880845
0.889725
0.907742
0.921888
0.929345
0.93475
0.939609
0.938309
0.930179
0.928889
0.933544
0.93975
0.952808
0.975921
0.991246
0.99928
1.00579
1.01014
1.00256
0.993097
0.994032
1.00095
1.01008
1.03073
1.06028
1.0785
1.08925
1.09823
1.09877
1.08206
1.07364
1.07918
1.09098
1.10887
1.14195
1.1736
1.19616
1.21511
1.23134
1.22764
1.2117
1.20884
1.2203
1.2488
1.27749
2.15519
7.4389
0.670047
0.679859
0.683175
0.686082
0.688463
0.68944
0.689262
0.690679
0.69332
0.696822
0.705109
0.716185
0.722656
0.726627
0.729796
0.732484
0.733265
0.732454
0.733753
0.736589
0.740318
0.748936
0.760971
0.768202
0.772706
0.776365
0.779537
0.779938
0.777865
0.778903
0.781976
0.78623
0.796333
0.809664
0.81748
0.822404
0.82651
0.829955
0.828935
0.825565
0.826678
0.830319
0.835588
0.848416
0.863335
0.871539
0.876715
0.881213
0.884465
0.880778
0.876494
0.878178
0.882677
0.889309
0.905563
0.922824
0.931814
0.937551
0.942759
0.944475
0.936754
0.932663
0.935584
0.941019
0.949408
0.970642
0.991969
1.00287
1.0098
1.01539
1.01214
0.999875
0.996281
1.0012
1.00906
1.02174
1.05023
1.07657
1.09089
1.10084
1.10841
1.10029
1.08342
1.08073
1.08885
1.10156
1.12568
1.15962
1.18679
1.20762
1.22625
1.23713
1.2289
1.21387
1.21049
1.22343
1.24775
2.15404
7.44949
0.672767
0.682687
0.686095
0.689112
0.691695
0.693161
0.692995
0.694139
0.696658
0.699912
0.707218
0.718443
0.725461
0.729674
0.733011
0.735951
0.737468
0.736326
0.736851
0.739396
0.742843
0.750201
0.762768
0.771128
0.776004
0.779789
0.783142
0.784498
0.781855
0.78169
0.784367
0.788204
0.796678
0.810956
0.820265
0.825635
0.829849
0.833605
0.834215
0.829963
0.829548
0.832608
0.836979
0.846906
0.863628
0.874215
0.880065
0.884712
0.888756
0.887288
0.881415
0.881259
0.884805
0.889804
0.901221
0.921347
0.934048
0.940871
0.946409
0.950458
0.945121
0.937676
0.937921
0.942439
0.948594
0.963003
0.988752
1.00534
1.01384
1.02002
1.02229
1.01068
1.00114
1.00233
1.00906
1.01739
1.03613
1.06761
1.08925
1.10172
1.11167
1.11673
1.10181
1.08701
1.08864
1.09861
1.11347
1.14195
1.17292
1.19646
1.21588
1.23348
1.23931
1.2291
1.21234
1.20638
1.21407
2.1383
7.45705
0.674834
0.685357
0.689082
0.692364
0.695203
0.697222
0.697056
0.697782
0.700024
0.702932
0.70861
0.719882
0.728083
0.732737
0.736305
0.73946
0.741644
0.740494
0.740194
0.742297
0.745474
0.751267
0.763907
0.773892
0.779251
0.783156
0.786567
0.788684
0.786308
0.785115
0.78721
0.790696
0.796885
0.811019
0.82269
0.828796
0.833187
0.837077
0.839026
0.835016
0.833156
0.83532
0.839203
0.845711
0.861781
0.876205
0.883491
0.888399
0.892769
0.893796
0.887384
0.88458
0.886685
0.891147
0.8982
0.916935
0.935503
0.944651
0.950544
0.955415
0.953934
0.94392
0.940793
0.943757
0.949296
0.957647
0.979861
1.00398
1.01618
1.02329
1.02892
1.02589
1.01116
1.00573
1.00897
1.01626
1.02652
1.05231
1.08286
1.10099
1.11228
1.12156
1.12168
1.10382
1.09337
1.09748
1.10813
1.12608
1.15664
1.18427
1.20507
1.22227
1.23674
1.23827
1.22542
1.20518
1.18822
2.11001
7.46435
0.676472
0.688222
0.692431
0.695931
0.698848
0.701179
0.701213
0.701305
0.70308
0.70571
0.709834
0.720479
0.730586
0.736005
0.739769
0.742978
0.745516
0.744782
0.743617
0.745311
0.748287
0.75267
0.764075
0.776052
0.782321
0.786399
0.789867
0.79261
0.791105
0.788836
0.790378
0.793521
0.797851
0.809523
0.824114
0.831876
0.836531
0.840478
0.84346
0.840772
0.837025
0.838251
0.841635
0.846236
0.858183
0.876286
0.886396
0.891909
0.896342
0.899325
0.894228
0.88823
0.889186
0.893092
0.898438
0.91139
0.933941
0.947619
0.954384
0.959283
0.961537
0.952826
0.944854
0.945421
0.950095
0.956351
0.96921
0.996494
1.01648
1.0262
1.03325
1.03824
1.02767
1.01267
1.01098
1.01639
1.02432
1.03769
1.06777
1.09475
1.11005
1.12077
1.12974
1.1273
1.10826
1.10017
1.10585
1.11733
1.13837
1.16865
1.19282
1.21135
1.22726
1.23659
1.23444
1.21479
1.18261
2.06829
7.47213
0.678056
0.691117
0.695981
0.699506
0.702385
0.704878
0.705289
0.704535
0.705811
0.708401
0.711909
0.721049
0.73281
0.739277
0.743151
0.746326
0.749042
0.749064
0.74724
0.748444
0.75129
0.754881
0.763599
0.777235
0.785187
0.789616
0.793184
0.796354
0.796323
0.793083
0.793539
0.796297
0.799901
0.807649
0.82371
0.834494
0.83995
0.843981
0.847536
0.847022
0.841709
0.8412
0.844054
0.848082
0.855305
0.873325
0.888066
0.895087
0.899774
0.903748
0.902116
0.893953
0.892486
0.895758
0.900428
0.907265
0.926814
0.947144
0.956535
0.962136
0.966873
0.965033
0.953074
0.948475
0.950977
0.956609
0.963756
0.983082
1.01146
1.0273
1.03549
1.04178
1.04403
1.02992
1.01779
1.01814
1.02378
1.03198
1.04963
1.08151
1.10544
1.11957
1.13019
1.13751
1.13108
1.11288
1.10697
1.11323
1.1253
1.14939
1.17891
1.20049
1.21637
1.22882
1.23404
1.22516
1.19338
2.03143
7.48096
0.679746
0.693388
0.699229
0.702804
0.705651
0.708215
0.709111
0.707984
0.708954
0.711467
0.714674
0.721869
0.734297
0.74204
0.746223
0.749453
0.752341
0.753444
0.751473
0.751869
0.754371
0.757547
0.763191
0.776726
0.787451
0.792855
0.796654
0.800058
0.801605
0.798058
0.796805
0.798992
0.802367
0.807292
0.821221
0.836006
0.843217
0.847569
0.851345
0.853088
0.847801
0.844649
0.846587
0.850196
0.854853
0.867878
0.88729
0.897531
0.903085
0.907607
0.910017
0.903111
0.897325
0.898188
0.901425
0.906229
0.917248
0.941564
0.958181
0.966092
0.971573
0.975374
0.967136
0.955078
0.953665
0.957286
0.963117
0.971922
0.996939
1.02324
1.03607
1.04396
1.05112
1.05044
1.03255
1.02246
1.0246
1.0314
1.04042
1.06174
1.09291
1.11394
1.12695
1.13751
1.14431
1.136
1.11756
1.11262
1.11903
1.13162
1.15784
1.18614
1.20535
1.21872
1.22736
1.22778
1.21126
2.01195
7.48912
0.681253
0.694483
0.701693
0.705784
0.708893
0.711697
0.713376
0.712326
0.712649
0.714855
0.717684
0.722516
0.734217
0.744004
0.749084
0.752701
0.755883
0.758172
0.75669
0.755642
0.757301
0.760067
0.763871
0.774816
0.78875
0.795975
0.800167
0.803691
0.80639
0.803967
0.800638
0.801839
0.804893
0.808648
0.817854
0.835201
0.845649
0.850983
0.854995
0.858292
0.855561
0.849437
0.849332
0.852246
0.856192
0.863392
0.88265
0.898955
0.906502
0.911414
0.915599
0.91361
0.903579
0.90016
0.902403
0.906628
0.912766
0.93104
0.956057
0.968763
0.975418
0.980971
0.981704
0.968762
0.958831
0.958904
0.962839
0.9689
0.981563
1.0114
1.03499
1.04614
1.05329
1.05881
1.0543
1.0367
1.02902
1.03173
1.03839
1.04853
1.07368
1.10363
1.12258
1.1349
1.14513
1.14985
1.13948
1.12153
1.11681
1.12267
1.13571
1.16351
1.19076
1.20756
1.21819
1.22205
1.22353
2.01296
7.49688
0.682549
0.694582
0.70406
0.709084
0.712528
0.715528
0.717969
0.717569
0.716685
0.717995
0.720264
0.723433
0.732812
0.745489
0.752304
0.756365
0.75973
0.762686
0.762462
0.759448
0.759825
0.762274
0.765599
0.773028
0.788378
0.798484
0.803554
0.807243
0.810525
0.810501
0.805701
0.804988
0.807344
0.810679
0.815943
0.831386
0.84682
0.85409
0.858569
0.862451
0.863519
0.856522
0.852762
0.854435
0.857899
0.862509
0.875336
0.896975
0.909078
0.915203
0.919625
0.922154
0.913973
0.904872
0.904745
0.90846
0.913442
0.922151
0.946061
0.967669
0.977645
0.983869
0.989283
0.986598
0.970429
0.96274
0.964825
0.970041
0.976529
0.992158
1.02299
1.04318
1.05285
1.0604
1.06675
1.05979
1.04102
1.03461
1.03847
1.04596
1.05795
1.08505
1.11246
1.12951
1.14132
1.15121
1.15567
1.14332
1.12443
1.11949
1.12465
1.13749
1.16596
1.19189
1.20706
1.21264
1.22638
2.03522
7.50698
0.684334
0.694552
0.70642
0.712651
0.716315
0.719376
0.722049
0.722564
0.720017
0.719991
0.722209
0.725333
0.732162
0.746167
0.755502
0.760164
0.76354
0.766562
0.767646
0.76379
0.762642
0.764737
0.767863
0.772568
0.785892
0.799869
0.80662
0.810694
0.814214
0.816465
0.812316
0.808577
0.809736
0.812724
0.816564
0.826492
0.845264
0.856423
0.861955
0.866044
0.869434
0.86583
0.857891
0.857087
0.859984
0.863909
0.870149
0.889087
0.90872
0.917502
0.922857
0.92736
0.927271
0.915751
0.909689
0.911134
0.914746
0.91981
0.931801
0.958377
0.976795
0.985151
0.99096
0.995962
0.991265
0.975356
0.969576
0.971413
0.975861
0.982744
1.00297
1.03441
1.0527
1.06187
1.06874
1.07303
1.06454
1.04735
1.04191
1.04541
1.05238
1.06611
1.09543
1.12131
1.137
1.14797
1.15691
1.16011
1.14655
1.12678
1.12089
1.12503
1.13722
1.1658
1.19042
1.20143
1.22097
2.07155
7.5192
0.687054
0.695206
0.708158
0.715886
0.719759
0.722682
0.725248
0.726307
0.723425
0.722894
0.725089
0.728104
0.732935
0.74549
0.757657
0.763487
0.766943
0.769856
0.771917
0.769192
0.766257
0.767559
0.770416
0.7739
0.782571
0.799133
0.809096
0.814059
0.817701
0.82092
0.819791
0.813524
0.812558
0.815095
0.818575
0.823696
0.839524
0.856893
0.864922
0.869554
0.873534
0.874888
0.866676
0.86117
0.862199
0.865235
0.869498
0.879372
0.902691
0.919244
0.926712
0.931718
0.935706
0.930555
0.917502
0.913555
0.915545
0.919323
0.924838
0.941048
0.969429
0.985894
0.993954
1.00029
1.0047
0.995082
0.978071
0.973612
0.977165
0.982948
0.990716
1.01314
1.04309
1.05921
1.06805
1.07586
1.08097
1.07067
1.05209
1.04671
1.05083
1.0586
1.07466
1.10465
1.12861
1.14321
1.15375
1.16224
1.16507
1.14975
1.12811
1.12084
1.12382
1.13536
1.16389
1.18386
1.20908
2.1132
7.53036
0.690227
0.696133
0.708223
0.717806
0.722386
0.725536
0.72826
0.730061
0.728137
0.726835
0.728588
0.731315
0.734603
0.743306
0.757621
0.765608
0.769821
0.773138
0.776034
0.77556
0.771077
0.770706
0.773002
0.77614
0.780958
0.795331
0.8102
0.817081
0.821097
0.824625
0.826612
0.821025
0.816536
0.817696
0.820634
0.824218
0.832732
0.853003
0.866851
0.873177
0.877319
0.880949
0.877977
0.867631
0.864675
0.867006
0.870824
0.875829
0.890922
0.915524
0.928799
0.935256
0.939739
0.942146
0.932755
0.920038
0.917445
0.920184
0.924867
0.931786
0.953657
0.981914
0.99572
1.00221
1.00677
1.01
0.999644
0.98431
0.980958
0.983662
0.988732
0.997478
1.02384
1.0535
1.06849
1.0765
1.08289
1.08606
1.07511
1.05777
1.05269
1.0562
1.06357
1.08138
1.11257
1.13595
1.14964
1.15918
1.16658
1.16851
1.15252
1.12885
1.11935
1.12069
1.1328
1.15783
1.1895
2.15032
7.53627
0.69323
0.697399
0.706441
0.718895
0.72524
0.728876
0.731892
0.734428
0.733906
0.731322
0.731856
0.733957
0.736663
0.741463
0.755358
0.767541
0.773225
0.776746
0.7799
0.781591
0.77725
0.774238
0.775611
0.778447
0.781873
0.790475
0.808365
0.819427
0.824712
0.828372
0.831655
0.829972
0.822287
0.82046
0.822585
0.825971
0.83047
0.844654
0.865575
0.875977
0.8813
0.885109
0.887266
0.878769
0.869865
0.869852
0.873069
0.876939
0.882673
0.902165
0.925728
0.936672
0.942946
0.948075
0.949081
0.935335
0.924002
0.924164
0.928368
0.932969
0.939944
0.963948
0.9897
1.00112
1.00795
1.01442
1.01748
1.0042
0.988559
0.98592
0.990048
0.996144
1.00591
1.0332
1.06022
1.07338
1.08142
1.08885
1.09312
1.08112
1.06267
1.05726
1.06092
1.06861
1.08757
1.11851
1.14093
1.15398
1.16312
1.16995
1.17122
1.15516
1.12917
1.11606
1.11632
1.12646
1.1639
2.17321
7.53672
0.695699
0.699429
0.705088
0.718655
0.727992
0.732492
0.735499
0.738173
0.739325
0.73584
0.734295
0.736034
0.738893
0.742458
0.752216
0.767794
0.776135
0.780361
0.783471
0.78615
0.784471
0.778938
0.778463
0.780795
0.783979
0.788583
0.802877
0.819929
0.827769
0.832006
0.835398
0.837274
0.83059
0.824307
0.825084
0.828308
0.832043
0.838275
0.85741
0.87591
0.88393
0.888773
0.89257
0.892059
0.880732
0.874354
0.875198
0.878054
0.882185
0.890312
0.914018
0.935451
0.944947
0.950407
0.95509
0.955199
0.941378
0.931717
0.931089
0.932942
0.937129
0.946394
0.974107
0.998926
1.00988
1.01607
1.021
1.02287
1.01005
0.99584
0.993331
0.996039
1.00107
1.01215
1.04201
1.06843
1.0813
1.08903
1.09549
1.0988
1.08764
1.0693
1.0629
1.06534
1.07176
1.0905
1.1223
1.14508
1.15779
1.16612
1.17201
1.17273
1.15759
1.12951
1.11168
1.10623
1.13382
2.16692
7.5342
0.698964
0.702506
0.705801
0.716315
0.729206
0.735413
0.738676
0.741394
0.743628
0.741827
0.738373
0.739192
0.741821
0.74487
0.750086
0.764438
0.777382
0.783204
0.786665
0.789723
0.791269
0.785991
0.782242
0.783585
0.786547
0.789974
0.797252
0.815514
0.82904
0.834988
0.838678
0.842071
0.840831
0.831749
0.828852
0.830941
0.834193
0.837875
0.846917
0.869229
0.884961
0.892004
0.896645
0.900176
0.895595
0.882274
0.877893
0.880333
0.884344
0.888705
0.898513
0.924326
0.944042
0.952744
0.958504
0.963589
0.961092
0.943487
0.933156
0.933898
0.938221
0.943612
0.955155
0.983493
1.00567
1.01549
1.02233
1.02863
1.03016
1.01539
1.00001
0.997267
1.00145
1.00776
1.02033
1.04981
1.07427
1.08655
1.09505
1.1027
1.10661
1.09403
1.07312
1.06541
1.06793
1.07464
1.09331
1.12488
1.14768
1.16004
1.16783
1.17283
1.17284
1.15874
1.12967
1.10422
1.10658
2.1322
7.52837
0.702668
0.705391
0.707654
0.713172
0.727189
0.736935
0.741629
0.744936
0.747917
0.749125
0.744988
0.743409
0.745019
0.747509
0.750401
0.758797
0.775659
0.785386
0.79001
0.793309
0.796352
0.794971
0.788271
0.787127
0.789272
0.792195
0.795729
0.806793
0.826656
0.837347
0.84253
0.846122
0.848835
0.843198
0.834524
0.833617
0.836091
0.83949
0.843623
0.856389
0.87984
0.893055
0.899174
0.903635
0.906593
0.899434
0.887263
0.88463
0.886504
0.889759
0.894328
0.907448
0.934951
0.952301
0.959753
0.963827
0.967017
0.964193
0.948334
0.940229
0.941435
0.945412
0.950815
0.963759
0.993264
1.01451
1.02379
1.02914
1.03377
1.03576
1.02255
1.0076
1.0046
1.00735
1.01281
1.02628
1.05792
1.08293
1.09471
1.10174
1.10757
1.11047
1.09878
1.07855
1.07027
1.07179
1.07742
1.09458
1.12588
1.149
1.16105
1.16797
1.17195
1.17108
1.15843
1.12377
1.09878
2.07195
7.52632
0.706025
0.70714
0.709196
0.712515
0.723002
0.737692
0.745033
0.748876
0.751994
0.754702
0.752903
0.747781
0.747266
0.749144
0.751933
0.75625
0.769988
0.785998
0.793268
0.797179
0.800416
0.802607
0.797328
0.791538
0.791673
0.793968
0.797125
0.802108
0.818157
0.837177
0.845734
0.850178
0.853622
0.854542
0.84507
0.838126
0.83866
0.841562
0.844928
0.849552
0.865846
0.889342
0.901084
0.907006
0.911723
0.9139
0.903231
0.890575
0.888882
0.892027
0.895822
0.900278
0.914288
0.941307
0.956768
0.964286
0.970541
0.975556
0.97277
0.955955
0.94728
0.948236
0.951861
0.95696
0.969994
0.998895
1.01883
1.02807
1.03523
1.04139
1.04321
1.02911
1.01297
1.00945
1.01328
1.01955
1.03287
1.06284
1.08606
1.09733
1.10505
1.11239
1.1174
1.10689
1.08494
1.07414
1.07438
1.0792
1.0946
1.12542
1.14863
1.16029
1.16663
1.16958
1.16901
1.15172
1.11811
2.01602
7.53008
0.709506
0.709449
0.711562
0.714435
0.720502
0.735746
0.747346
0.752486
0.755556
0.758316
0.759575
0.754105
0.750458
0.751684
0.754377
0.757478
0.764492
0.782251
0.79525
0.800883
0.804217
0.807333
0.806896
0.798395
0.794834
0.796486
0.799572
0.803005
0.809816
0.829432
0.846188
0.853441
0.85776
0.861156
0.859052
0.847573
0.842584
0.843663
0.846449
0.850142
0.856291
0.876286
0.898629
0.909018
0.914548
0.918714
0.919414
0.907665
0.896768
0.895029
0.896179
0.899379
0.904671
0.922993
0.951797
0.967312
0.974012
0.979304
0.984146
0.978244
0.960323
0.951793
0.952327
0.956091
0.961334
0.9763
1.00761
1.02772
1.03624
1.04164
1.04683
1.04956
1.03715
1.02076
1.01593
1.01733
1.02166
1.0343
1.06567
1.09219
1.10562
1.11328
1.11971
1.12357
1.11377
1.09061
1.07725
1.07613
1.0801
1.09338
1.1235
1.14723
1.15889
1.16426
1.16698
1.1624
1.15133
1.99309
7.5369
0.714341
0.712683
0.714434
0.717128
0.720598
0.731189
0.746822
0.754576
0.758477
0.761552
0.76431
0.762617
0.756132
0.755128
0.757109
0.759894
0.76347
0.774535
0.793375
0.803142
0.807804
0.810996
0.813668
0.808955
0.800643
0.799816
0.802071
0.804984
0.808443
0.817849
0.840052
0.854753
0.861226
0.865366
0.868278
0.862371
0.849652
0.846423
0.849014
0.852769
0.85639
0.863006
0.88509
0.906222
0.91544
0.92106
0.925881
0.926242
0.911946
0.899592
0.898673
0.902249
0.907266
0.913669
0.933041
0.960173
0.9738
0.980564
0.984685
0.987908
0.982934
0.965465
0.956714
0.957969
0.96276
0.968651
0.984037
1.01299
1.03145
1.04077
1.04823
1.05449
1.05689
1.04262
1.02342
1.01732
1.02029
1.02624
1.03996
1.07113
1.09777
1.11095
1.11849
1.12438
1.12762
1.11898
1.09577
1.07995
1.07711
1.08025
1.09181
1.1208
1.14481
1.15612
1.16158
1.15997
1.17107
2.00305
7.54595
0.720364
0.716884
0.717534
0.719773
0.722337
0.727343
0.742394
0.755905
0.761895
0.765334
0.768342
0.770099
0.764449
0.759286
0.759832
0.762134
0.764943
0.769728
0.785419
0.803145
0.810862
0.814993
0.818172
0.81899
0.810197
0.803777
0.804157
0.806676
0.809883
0.814184
0.827305
0.849949
0.862404
0.868267
0.872527
0.874621
0.866071
0.854968
0.85319
0.854799
0.857499
0.861427
0.87039
0.89449
0.913994
0.922389
0.927168
0.931166
0.931785
0.918674
0.90838
0.908153
0.91077
0.913886
0.919051
0.938433
0.964517
0.977396
0.983766
0.989293
0.994599
0.991176
0.974271
0.965416
0.965422
0.968061
0.973053
0.988817
1.01974
1.03963
1.04834
1.05337
1.05809
1.06161
1.05027
1.03208
1.02611
1.02797
1.03249
1.04345
1.07234
1.09942
1.11336
1.12095
1.12686
1.13101
1.12496
1.10184
1.08312
1.07825
1.08008
1.08917
1.11675
1.14043
1.15274
1.15413
1.17648
2.0388
7.55708
0.726216
0.721925
0.720309
0.722162
0.724779
0.727899
0.736952
0.754386
0.764511
0.769059
0.771964
0.774515
0.773121
0.765149
0.762679
0.764423
0.767264
0.770449
0.777674
0.796952
0.812155
0.818485
0.822003
0.82487
0.822438
0.811593
0.807599
0.809273
0.812414
0.815746
0.820422
0.83618
0.858706
0.869934
0.875473
0.879767
0.881088
0.869805
0.858067
0.856797
0.859945
0.863771
0.867674
0.876969
0.901752
0.920382
0.928674
0.934793
0.939522
0.938777
0.924668
0.913013
0.910583
0.912452
0.916107
0.922564
0.944103
0.971391
0.985782
0.992813
0.998779
1.00308
0.99814
0.979805
0.968931
0.969151
0.9736
0.979621
0.994428
1.02279
1.04155
1.05136
1.0599
1.06657
1.07045
1.06017
1.04017
1.03073
1.03105
1.03494
1.04337
1.07059
1.10047
1.1164
1.12462
1.13061
1.13482
1.13119
1.10833
1.08586
1.07801
1.07848
1.08523
1.11095
1.1354
1.14435
1.17347
2.08798
7.56802
0.730965
0.729181
0.72473
0.725696
0.728277
0.731092
0.734982
0.747525
0.763737
0.771085
0.774665
0.777428
0.779524
0.774592
0.767866
0.76788
0.770368
0.773288
0.776636
0.785955
0.806579
0.81967
0.825513
0.829131
0.831544
0.825228
0.814896
0.813046
0.814972
0.817725
0.821124
0.826785
0.845115
0.866606
0.876607
0.881697
0.885508
0.886044
0.874849
0.864977
0.864032
0.865747
0.868635
0.872935
0.884976
0.911721
0.929573
0.936928
0.941137
0.944654
0.944551
0.929584
0.916624
0.914887
0.91834
0.923056
0.930591
0.952876
0.979903
0.993108
0.999302
1.00333
1.00685
1.0042
0.988174
0.977357
0.976095
0.978231
0.982912
0.997057
1.02895
1.05171
1.06156
1.06764
1.07304
1.07688
1.06727
1.04526
1.03346
1.03314
1.03751
1.04611
1.07181
1.10273
1.1203
1.1286
1.13384
1.13707
1.13485
1.11402
1.08816
1.07658
1.07559
1.08085
1.1059
1.12541
1.16138
2.13908
7.57477
0.7352
0.737921
0.732143
0.730259
0.731827
0.734127
0.73645
0.740871
0.756407
0.77138
0.777816
0.781398
0.78435
0.78496
0.777163
0.77268
0.773592
0.775677
0.778185
0.78189
0.793734
0.815454
0.827468
0.832934
0.836387
0.837672
0.828442
0.81855
0.817618
0.820332
0.823665
0.82691
0.832586
0.852401
0.873455
0.882799
0.887986
0.892417
0.892974
0.880301
0.868976
0.868097
0.871466
0.875483
0.879555
0.891119
0.917016
0.932776
0.939564
0.944501
0.949099
0.949953
0.936632
0.925135
0.924319
0.927545
0.931337
0.937135
0.957928
0.983448
0.995753
1.00237
1.00808
1.01327
1.01184
0.995366
0.981942
0.980231
0.98427
0.99031
1.00362
1.03293
1.05481
1.06511
1.0714
1.07637
1.08028
1.07417
1.05373
1.04105
1.03963
1.04281
1.04919
1.07165
1.10258
1.12105
1.12972
1.13482
1.13826
1.13737
1.11946
1.09127
1.07544
1.07199
1.07675
1.09631
1.13951
2.17647
7.57366
0.73933
0.743937
0.741552
0.735398
0.734086
0.735337
0.737656
0.740622
0.747847
0.766466
0.779976
0.785496
0.788622
0.791412
0.788737
0.779152
0.775959
0.777501
0.78036
0.783378
0.787849
0.802259
0.823525
0.834439
0.839804
0.843551
0.843814
0.832972
0.824287
0.823661
0.825291
0.828081
0.831855
0.83939
0.861221
0.881037
0.889741
0.894415
0.89792
0.898315
0.886831
0.876876
0.875626
0.876355
0.878565
0.882891
0.896196
0.922448
0.939198
0.947094
0.953084
0.957898
0.958033
0.945015
0.932308
0.929315
0.930249
0.933498
0.939921
0.961709
0.988853
1.00251
1.00898
1.0135
1.01853
1.01974
1.00543
0.991767
0.988794
0.98965
0.992958
1.00327
1.03135
1.056
1.06792
1.07539
1.08248
1.08775
1.08439
1.06419
1.04795
1.04365
1.04563
1.05004
1.06827
1.10008
1.12072
1.13008
1.13525
1.13889
1.13962
1.12556
1.09609
1.07421
1.06778
1.06698
1.11082
2.18655
7.56677
0.742732
0.747871
0.749359
0.743754
0.737862
0.737889
0.740085
0.742789
0.746157
0.756002
0.775758
0.787176
0.79231
0.795292
0.797527
0.791359
0.782171
0.780968
0.783112
0.785905
0.78867
0.793061
0.809491
0.831242
0.841568
0.846758
0.850558
0.850229
0.837488
0.827888
0.827886
0.831079
0.83462
0.838166
0.84566
0.86801
0.886824
0.894906
0.900168
0.904816
0.905579
0.892351
0.879875
0.878
0.88065
0.88442
0.889363
0.903588
0.930709
0.947872
0.955449
0.960217
0.964407
0.965321
0.950981
0.935238
0.931631
0.934498
0.938961
0.94592
0.967027
0.992736
1.00644
1.01437
1.0215
1.02681
1.02769
1.01182
0.994015
0.988714
0.991044
0.995707
1.00495
1.03187
1.06139
1.0766
1.08369
1.08908
1.09376
1.09158
1.07176
1.05182
1.04497
1.0464
1.05074
1.06626
1.0975
1.12085
1.13163
1.13662
1.1396
1.14012
1.13
1.10098
1.07429
1.05776
1.07956
2.16265
7.55395
0.745271
0.751923
0.754441
0.754029
0.745572
0.741891
0.743011
0.74514
0.747376
0.750882
0.763626
0.784172
0.79464
0.799791
0.803146
0.804053
0.794783
0.786856
0.786121
0.787438
0.789928
0.79335
0.799382
0.818399
0.838752
0.847658
0.852305
0.856146
0.855651
0.843697
0.835749
0.835456
0.836766
0.839064
0.842918
0.852407
0.87601
0.894155
0.901832
0.906049
0.909169
0.910235
0.899192
0.88763
0.885937
0.888459
0.892027
0.896619
0.909498
0.935612
0.951759
0.958772
0.96351
0.967334
0.968896
0.957383
0.943032
0.939608
0.941833
0.945824
0.951958
0.972044
0.999513
1.01472
1.02157
1.02546
1.02892
1.03105
1.01942
1.00187
0.996
0.997931
1.00256
1.01051
1.03484
1.06416
1.07982
1.08731
1.09244
1.09601
1.09547
1.0791
1.05817
1.04944
1.0495
1.05267
1.06535
1.09529
1.11981
1.13131
1.13619
1.13867
1.13899
1.13142
1.1057
1.0694
1.06427
2.10036
7.53824
0.746658
0.756068
0.758695
0.760885
0.756048
0.747003
0.744979
0.746279
0.748755
0.751812
0.756949
0.773685
0.793918
0.803038
0.807458
0.810494
0.809045
0.796829
0.789346
0.789901
0.792781
0.795968
0.799287
0.805889
0.82607
0.845587
0.854202
0.858887
0.863098
0.862145
0.848128
0.83841
0.838373
0.841582
0.845224
0.849267
0.858476
0.88147
0.898729
0.906308
0.912144
0.916874
0.917878
0.906484
0.893958
0.891325
0.892992
0.895409
0.89966
0.912111
0.938183
0.955541
0.963585
0.96982
0.974932
0.977401
0.967642
0.951926
0.946487
0.948466
0.952354
0.957134
0.973437
0.999552
1.015
1.02322
1.03025
1.03609
1.03983
1.03124
1.01282
1.00439
1.00453
1.00723
1.0123
1.03133
1.06121
1.07931
1.08771
1.09396
1.0995
1.10215
1.08974
1.06724
1.05462
1.05265
1.05465
1.06235
1.08973
1.11612
1.12873
1.13382
1.13653
1.13686
1.13242
1.10408
1.07467
2.02767
7.53505
0.743697
0.758801
0.76239
0.764628
0.765057
0.756203
0.748972
0.749326
0.752014
0.755096
0.758435
0.76469
0.783291
0.801354
0.809273
0.813781
0.816529
0.81272
0.80016
0.79521
0.796347
0.798468
0.80108
0.804714
0.812767
0.834254
0.852601
0.86048
0.864594
0.867087
0.86568
0.853307
0.845365
0.845511
0.847623
0.850274
0.854267
0.864435
0.888819
0.906736
0.91438
0.918775
0.92238
0.924381
0.913608
0.899053
0.894703
0.89654
0.900157
0.904804
0.917074
0.944346
0.964026
0.972329
0.977149
0.981502
0.984885
0.975924
0.958932
0.951676
0.951563
0.954212
0.95876
0.973775
1.00325
1.02381
1.03308
1.03879
1.0442
1.04853
1.04119
1.02102
1.00776
1.00554
1.00863
1.01357
1.02857
1.06009
1.08393
1.09486
1.1007
1.10557
1.10851
1.09904
1.07476
1.05723
1.05224
1.05381
1.05935
1.08303
1.11165
1.12665
1.13264
1.1348
1.13564
1.12758
1.11309
1.98591
7.5363
0.734768
0.756734
0.763956
0.768118
0.770796
0.76941
0.759169
0.755023
0.756558
0.759072
0.76171
0.764436
0.77043
0.789696
0.807398
0.815018
0.819363
0.822357
0.818055
0.805107
0.799694
0.801142
0.804435
0.807813
0.811126
0.818056
0.839153
0.8566
0.863894
0.868819
0.873046
0.872803
0.860605
0.850545
0.849778
0.85296
0.856863
0.860722
0.8694
0.892475
0.909613
0.917069
0.92185
0.926027
0.928902
0.921095
0.906781
0.901864
0.903795
0.907807
0.91249
0.922786
0.948223
0.967561
0.976369
0.981784
0.985643
0.988687
0.983381
0.966317
0.956335
0.956053
0.960141
0.965874
0.979027
1.00638
1.02773
1.03839
1.04453
1.04861
1.05203
1.04818
1.02942
1.01423
1.01075
1.01336
1.01816
1.03131
1.06114
1.0863
1.09831
1.10419
1.10822
1.1103
1.10406
1.08149
1.0608
1.05326
1.05323
1.05731
1.078
1.10734
1.12449
1.13071
1.13337
1.12942
1.14194
1.9906
7.5425
0.727709
0.747272
0.76431
0.771535
0.775305
0.777982
0.77393
0.763393
0.760251
0.761221
0.762848
0.765375
0.768929
0.776261
0.796327
0.813572
0.821159
0.825319
0.828171
0.823951
0.8119
0.807366
0.808245
0.809509
0.811638
0.815177
0.823515
0.845606
0.863428
0.871164
0.875332
0.879032
0.879253
0.868532
0.858992
0.857719
0.858585
0.860188
0.863791
0.872864
0.895907
0.914583
0.923415
0.929234
0.934355
0.937342
0.930429
0.915435
0.909317
0.910282
0.912261
0.915728