/*--------------------------------*- C++ -*----------------------------------*\
  =========                 |
  \\      /  F ield         | OpenFOAM: The Open Source CFD Toolbox
   \\    /   O peration     | Website:  https://openfoam.org
    \\  /    A nd           | Version:  12
     \\/     M anipulation  |
\*---------------------------------------------------------------------------*/
FoamFile
{
    format      ascii;
    class       volScalarField;
    location    "3.55";
    object      rho;
}
// * * * * * * * * * * * * * * * * * * * * * * * * * * * * * * * * * * * * * //

dimensions      [1 -3 0 0 0 0 0];

internalField   nonuniform List<scalar> 
22702
(
1.40001
1.40001
1.26134
1.40001
1.44917
1.40001
1.84423
1.40001
1.40001
0.964574
1.83883
1.83991
1.40001
1.84118
1.27554
1.40001
1.40001
1.40001
1.83872
1.40001
1.84187
1.40001
1.84105
1.01166
1.84509
1.04586
1.40001
1.84251
1.02158
1.02766
1.40001
1.83622
1.40001
1.40001
1.40001
1.80918
1.84032
1.84011
1.40001
1.40001
0.961637
1.40001
1.6218
1.40001
1.84134
1.40001
1.40001
1.40001
1.40001
1.02798
1.40001
1.00681
1.40001
1.83877
1.40001
1.83482
1.40001
1.40001
1.40001
1.40001
1.06033
1.40001
1.40001
1.02766
1.40001
1.02055
1.40001
1.40001
1.40001
0.979161
1.40001
1.84268
1.66979
1.40001
1.84019
1.86213
1.02176
1.842
1.02719
1.40001
1.84005
1.02592
1.83661
1.83879
1.40001
1.40001
1.40001
1.40001
1.32876
0.974391
1.83489
1.40001
1.40001
1.02442
1.40001
1.84295
1.02084
1.40001
1.40001
1.40001
1.40001
1.62052
1.84034
1.02231
1.40001
1.40001
1.50503
1.40001
1.02566
1.40001
1.84071
1.8385
1.40001
1.40001
1.04994
1.06202
0.974982
1.40001
1.40001
1.40001
1.40001
1.40001
1.31
1.40001
1.77659
1.43994
1.8407
1.40001
1.83829
1.83871
1.84157
1.83821
1.40001
1.00717
1.40001
1.08314
1.40001
1.40001
1.40001
1.40001
1.8388
1.40001
1.40001
1.40001
1.40001
1.83952
1.40001
1.42672
1.40001
1.40001
1.40001
1.40001
1.03264
1.40001
1.41031
1.40001
1.02093
1.40001
1.40001
1.40001
1.83467
1.40001
1.84432
1.05439
1.04809
1.84149
1.84404
1.40001
1.47768
1.65195
1.40001
1.83639
1.03127
1.80987
1.40001
1.40001
1.40001
1.40001
1.84142
1.75237
1.40001
1.83781
1.02826
1.83545
1.40001
1.02744
1.40001
1.01683
1.03926
1.39979
1.40001
1.40001
1.83885
1.40001
1.40001
1.84171
1.40001
1.83678
1.83776
1.02763
1.40001
1.40001
1.02569
1.84206
1.40001
1.40001
1.40001
1.84203
1.40001
1.03402
1.40001
1.40001
1.84179
1.84183
1.83846
1.40001
1.40004
1.40001
1.40001
1.40001
1.84222
1.40001
1.02869
1.85706
1.84136
1.84073
1.40001
1.40001
1.40001
1.01741
1.84151
1.6289
1.40001
1.84315
1.03464
1.03794
1.84316
1.84131
1.40001
1.84969
0.990598
1.79111
1.40001
1.40001
1.40001
1.40001
1.84192
1.40001
1.66221
1.44081
1.40001
1.40001
1.84157
1.06514
1.17336
1.40001
1.84279
1.02983
1.84739
1.40001
1.40001
1.40001
1.40001
1.40001
1.40001
1.40001
1.02901
1.13828
1.04206
1.84138
1.40001
1.40001
1.40001
1.40001
1.79137
1.40001
1.03048
1.40001
0.993264
1.02932
1.84224
1.02588
1.84184
1.40001
1.40001
1.40001
1.39742
1.02776
0.989115
1.4
1.40001
0.996404
1.40001
1.83887
1.00532
1.40001
1.40001
1.83959
1.01952
1.40001
1.84452
1.06623
1.84159
1.40001
0.998627
1.39765
1.40001
1.40001
1.40001
1.00724
1.40001
1.40001
1.40001
1.40002
1.41197
1.66992
1.40001
1.06826
1.40001
1.40001
1.40001
1.40001
1.40001
1.40001
1.40001
1.83884
1.40001
1.83699
1.40001
1.40001
1.40001
1.0435
1.40001
1.84037
1.02534
1.40001
1.75522
1.40001
1.40001
1.8373
1.40001
1.40001
1.40001
1.82511
1.40001
1.40001
1.8289
1.83852
1.40001
1.4963
1.40001
1.40001
1.0816
1.40001
1.40001
1.40001
1.04092
1.40001
1.40001
1.40001
1.40001
1.07906
1.40001
1.40001
1.40001
1.40001
1.40001
0.99836
1.40007
1.8445
1.40001
1.4
1.84374
1.84215
1.40001
1.40001
1.03078
1.23072
1.83972
1.40001
1.40001
1.40001
1.84116
0.979173
1.40001
1.84412
1.40001
1.40001
1.08565
1.0863
1.40001
1.04812
1.03754
1.40001
1.40001
1.40001
1.40001
1.40001
1.40001
1.40001
1.8427
1.50628
1.81539
1.00898
1.304
1.8388
1.40001
1.83907
1.83859
1.04117
1.19957
1.40001
1.03578
1.40001
1.8452
1.40001
1.40001
1.40001
1.40001
1.84193
1.40001
1.40001
1.40001
1.40001
1.40001
1.40001
1.40001
1.55471
1.83572
1.40001
1.84145
1.40001
1.40001
1.02858
1.40001
1.40001
1.40001
1.40001
1.84217
1.73934
1.40001
1.40001
1.03739
1.84078
1.8422
1.40001
1.842
1.84126
1.84161
1.40001
1.23901
1.40001
1.84208
1.3807
1.84156
1.40001
1.0442
1.39878
1.8391
1.40001
1.40001
1.40001
1.40001
1.02874
1.84235
1.80124
1.40001
1.84469
1.84125
1.84026
1.40001
1.60349
1.84247
1.40001
1.40001
1.70637
1.4598
1.84192
1.33379
1.84198
1.40001
1.84203
1.84178
1.84207
1.84086
1.40001
1.83669
1.30571
1.27925
1.40001
1.4
1.40001
1.40001
1.84367
1.40001
1.40001
1.40001
1.40001
1.40001
1.83914
1.40001
1.40001
1.396
1.84234
1.77919
1.40001
1.76822
1.40005
1.40001
1.40001
1.84193
1.40001
1.39729
1.40459
1.40001
1.84178
1.40001
1.84059
1.40001
1.40001
1.72623
1.40001
1.8408
1.40003
1.40001
1.84216
1.40001
1.84236
1.40001
1.40001
1.40001
1.84193
1.40001
1.83993
1.40001
1.84188
1.83874
1.84143
1.84183
1.40001
1.83839
1.83594
1.40001
1.04986
1.81546
1.71584
1.40001
1.8418
1.40001
1.07371
1.07269
1.40001
1.40001
1.40001
1.40001
1.40001
1.01501
1.40001
1.84137
1.51624
1.84139
1.40001
1.40001
1.40001
1.40001
1.40001
1.84176
1.40001
1.84349
1.6654
1.20417
1.40001
1.40001
1.53027
1.51502
1.40001
1.40001
1.56266
1.40001
1.02532
1.842
1.84198
1.40001
1.40001
1.40001
1.83935
1.40001
1.40003
1.83784
1.84208
1.34254
1.40001
1.40001
1.02122
1.80177
1.40001
1.40001
1.40001
1.40001
1.40001
1.84236
1.83785
1.40001
1.84259
1.8411
1.8415
1.40001
1.40001
1.40001
1.40001
1.00804
1.83776
1.40001
1.40001
1.80379
1.84058
1.40001
1.81649
1.83539
1.40001
1.40001
1.40001
1.40001
1.40001
1.84181
1.40001
1.40001
1.40001
1.40001
1.83957
1.40001
1.84104
1.03913
1.40001
1.03245
1.40001
1.40001
1.40001
1.39698
1.03844
1.39906
1.40001
1.40001
1.40001
1.46608
1.40001
1.40001
1.26702
1.40001
1.40001
1.40001
1.40001
1.40001
1.40001
1.40001
1.4
1.33291
1.4
1.40001
1.39753
1.40001
1.03329
1.40001
1.40001
1.40001
1.40001
1.73053
1.40001
1.40001
1.40001
1.40001
1.02581
1.40001
1.40001
1.81628
1.83774
1.4
1.40001
1.40001
1.28037
1.40001
1.40001
1.40001
1.40001
1.40001
1.40001
1.34824
1.4098
1.84202
1.40001
1.40001
1.40001
1.8418
1.2992
1.40001
1.40001
1.40001
1.84045
1.8409
1.40001
1.40001
1.40001
1.40001
1.40001
1.40001
1.40001
1.40001
1.40001
1.04208
1.40001
1.40001
1.83969
1.03489
1.40001
1.83832
1.40001
1.03052
1.40001
1.40001
1.03985
1.40001
1.40001
1.40001
1.40001
1.40001
1.40001
1.40001
1.83316
1.84083
1.40001
1.40001
1.40001
1.40001
1.80404
1.40001
1.53817
1.05059
1.40001
1.40001
1.40001
1.40001
1.40001
1.40001
1.40001
1.43768
1.40001
1.40001
1.62541
1.40001
1.40001
1.40001
1.76427
1.40001
1.40001
1.40001
1.40001
1.03142
1.40001
1.40001
1.02689
1.03235
1.40001
1.40001
1.84148
1.40001
1.36752
1.40001
1.40001
1.40001
1.70732
1.02116
1.40001
1.01726
1.40001
1.16532
1.40001
1.40001
1.40001
1.84092
1.40001
1.40001
1.8418
1.40001
1.40001
1.40001
1.84159
1.40001
1.40001
1.84238
1.40001
1.40001
1.04384
1.40001
1.53472
1.40001
1.40001
1.83879
1.83867
1.69505
1.79562
1.40001
1.04064
1.40001
1.40001
1.82204
1.40001
1.03508
1.40001
1.40001
1.40001
1.84218
1.40001
1.40001
1.40001
1.40001
1.66646
1.40001
1.80548
1.84542
0.98516
1.40001
1.40001
1.04171
1.05942
1.40001
1.40001
1.40001
1.71355
1.73505
1.40001
1.40001
1.40001
1.40001
1.40001
1.40001
1.40001
1.59054
1.83896
1.4087
1.40001
1.83607
1.0227
1.40001
1.40001
1.40001
1.6379
1.40001
1.48559
1.40001
1.80341
1.84
1.40001
1.04491
1.40001
1.83456
1.40001
1.40001
1.84162
1.81475
1.40001
1.84227
1.40001
1.03832
1.40001
1.40001
1.40001
1.83652
1.83291
1.78714
1.40001
1.84321
1.84098
1.40001
1.84269
1.40001
1.84012
1.40001
1.02839
1.36272
1.04268
1.40001
1.40001
1.40001
1.40001
1.40001
1.84179
1.40001
1.8417
1.40001
1.40001
1.40001
1.82024
1.40001
1.02802
1.84182
1.40001
1.03058
1.04242
1.03155
1.40001
1.61729
1.43779
1.84323
1.84105
1.40001
1.4
1.40001
1.40001
1.84178
1.40001
1.40001
1.84176
1.84098
1.40001
1.55435
1.40005
1.40001
1.39678
1.83567
1.24979
1.40001
1.21825
1.03336
1.01912
1.3257
1.84382
1.8359
1.48065
1.84189
1.84147
1.40001
1.40001
1.8436
1.83889
1.84131
1.84001
1.40001
1.84216
1.02914
1.84002
1.84206
1.83774
1.84937
1.25717
1.29734
1.32644
1.84299
1.35776
1.84209
1.40001
1.40001
1.84374
1.84139
1.40001
1.03775
1.84201
1.84155
1.40001
1.84171
1.84207
1.40001
1.8416
1.02896
1.83785
1.8427
1.8382
1.84103
1.40001
1.40001
1.40001
1.84193
1.68933
1.03772
1.84141
1.03443
1.84214
1.40001
1.40001
1.40001
1.40001
1.84218
1.84166
1.40001
1.40001
1.84157
1.03614
1.84129
1.03327
1.40001
1.83877
1.40001
0.970289
1.84364
1.11671
1.40001
1.84132
1.84435
1.8427
1.40001
1.40001
1.62379
1.84367
1.04348
1.84194
1.40001
1.84137
1.27455
1.84177
1.03449
1.40001
1.84216
1.07184
1.84379
1.02675
1.40001
1.84236
1.40001
1.83703
1.40001
1.65567
1.82577
1.74689
1.02558
1.40001
1.84337
1.40001
1.84227
1.40001
1.84179
1.40001
1.40001
1.84176
1.38199
1.84466
0.975005
1.80531
1.40001
1.71449
1.40001
1.84284
1.84176
1.84068
1.40001
1.79751
1.84275
1.80903
1.66742
1.8484
1.40001
1.69366
1.40001
1.84264
1.40001
1.45902
1.40001
1.80921
1.40001
1.84157
1.8213
1.82114
1.40001
1.83429
1.0696
1.40001
1.03914
1.40001
1.40001
1.40001
1.8395
1.40001
1.84252
1.40001
1.40001
1.40001
1.84248
1.83096
1.7697
1.8424
1.84071
1.03138
1.83967
1.83415
1.40001
1.77817
1.84192
1.82282
1.40001
1.83577
1.8347
1.40001
1.84619
1.84098
1.84091
1.84355
1.40001
1.40001
1.40001
1.84256
1.04499
1.40001
1.84164
1.40001
1.40001
1.07005
1.40001
1.40001
1.84148
1.83958
1.40001
1.84154
1.83819
1.83996
1.36421
1.84169
1.40001
1.84161
1.84212
1.75106
1.40001
1.40001
1.40001
1.8446
1.84002
1.84232
1.34162
1.40001
1.84871
1.83982
1.84125
1.40001
1.84032
1.84227
1.84122
1.85017
1.40001
1.8414
1.83942
1.78255
1.8399
1.84884
1.40001
1.84014
1.83687
1.84235
1.84458
1.83993
1.04933
1.84195
1.84283
1.40001
1.84168
1.84213
1.84138
1.84131
1.40001
1.84235
1.84168
1.40001
1.8416
1.77099
1.40001
1.40001
1.40001
1.83686
1.84336
1.40001
1.40001
1.63694
1.40001
1.84195
1.40001
1.40001
1.84161
1.84321
1.83993
1.84116
1.40001
1.40001
1.40001
1.70597
1.40001
1.84091
1.40001
1.40001
1.8408
1.84314
1.40001
1.84188
1.0285
1.84154
1.84439
1.08093
1.40001
1.02172
1.78146
1.84885
1.84113
1.8415
1.04793
1.84211
1.84238
1.05117
1.02324
1.40001
1.84063
1.84215
1.40001
1.40001
1.84184
1.40001
1.85062
1.40001
1.78469
1.40001
1.60454
1.8426
1.8444
1.70042
1.80073
1.8363
1.84141
1.81037
1.40001
1.01861
1.84015
1.84272
1.84327
1.40002
1.40001
1.40001
1.84594
1.40001
1.84263
1.84162
1.12943
1.40001
1.84146
1.39996
1.40001
1.40004
1.40005
1.8425
1.84032
1.39848
1.40001
1.40001
1.84241
1.8437
1.84181
1.84168
1.8422
1.04327
1.7795
1.40001
1.83854
1.83977
1.84073
1.83529
1.40001
1.84176
1.82958
1.8428
1.40001
1.84183
1.84089
1.2528
1.84184
1.84155
1.40001
1.8417
1.22064
1.84159
1.25427
1.84197
1.40001
1.8419
1.84596
1.8418
1.84177
1.84159
1.84209
1.84212
1.8379
1.40001
1.32806
1.84266
1.84225
1.22827
1.84209
1.37593
1.66624
1.84263
1.84065
1.83856
1.40001
1.84458
1.68395
1.84202
1.31297
1.84387
1.83918
1.40001
1.26622
1.40001
1.84505
1.40001
1.70548
1.40001
1.81566
1.2709
1.40001
1.84707
1.83075
1.40001
1.84424
1.84361
1.84108
1.83624
1.84065
1.40001
1.83767
1.40001
1.40001
1.40001
1.29963
1.84178
1.84238
1.85026
1.84209
1.84893
1.84738
1.83906
1.8424
1.30139
1.43098
1.40001
1.40001
1.84183
1.84211
1.84194
1.84149
1.40003
1.63358
1.40001
1.84517
1.79614
1.40001
1.40001
1.14447
1.84212
1.40001
1.40001
1.03128
1.84198
1.40001
1.83467
1.84136
1.83601
1.82474
1.84176
1.40001
1.03174
1.51133
1.84158
1.84194
1.40001
1.8408
1.84132
1.61867
1.4094
1.50293
1.40001
1.83683
1.84166
1.40001
1.40001
1.04705
1.40001
1.40001
1.84197
1.84185
1.84477
1.84234
1.84188
1.83837
1.84202
1.84494
1.84168
1.40001
1.39626
1.84233
1.84228
1.39717
1.84149
1.84158
1.03819
0.980226
1.84171
1.85128
1.40001
1.40001
1.40096
1.84134
1.84204
1.84176
1.40001
1.84143
1.40001
1.23267
1.84361
1.84899
1.40001
1.6065
1.84105
1.40001
1.83982
1.40001
1.84158
1.68705
1.84184
1.40001
1.84207
1.84912
1.04564
1.84153
1.40001
1.84022
1.83971
1.40001
1.03679
1.83925
1.76118
1.3978
1.83505
1.84198
1.40001
1.39812
1.84527
1.39809
1.84169
1.40001
1.40001
1.84483
1.40001
1.8436
1.84127
1.39654
1.74214
1.40001
1.84119
1.40001
1.40001
1.40001
1.40001
1.84132
1.40001
1.40001
1.83273
1.40001
1.84226
1.40001
1.68542
1.83889
1.84187
1.40001
1.40001
1.39828
1.40001
1.84075
1.84184
1.84061
1.84139
1.84165
1.84098
1.84107
1.40001
1.84134
1.8424
1.40001
1.84072
1.84194
1.40001
1.84302
1.32852
1.45799
1.84124
1.84136
1.84152
1.40001
1.84143
1.40001
1.84183
1.84126
1.40001
1.84122
1.40001
1.40001
1.40001
1.40001
1.84233
1.02743
1.39786
1.40001
1.84195
1.84056
1.40001
1.84169
1.40001
1.40467
1.0252
1.84161
1.39963
1.40001
1.84315
1.39839
1.84239
1.40001
1.39981
1.40001
1.84378
1.84011
1.84057
1.84367
1.04103
1.8399
1.83991
1.8418
1.51436
1.40001
1.40001
1.58982
1.84176
1.02205
1.02468
1.40001
1.84204
1.841
1.83959
1.40001
1.40001
1.84
1.84037
1.3999
1.40001
1.71986
1.0339
1.40001
1.48047
1.83885
1.8312
1.39826
1.84125
1.8493
1.40001
1.39922
1.40001
1.84509
1.83661
1.58097
1.40001
1.83632
1.40001
1.40247
1.84249
0.974308
1.84125
1.84174
1.39699
1.39992
1.78333
1.40001
1.39968
1.40001
1.84138
1.40001
1.40002
1.02065
1.84196
1.40001
1.40001
1.40001
1.40001
1.83711
1.64739
1.40001
1.40001
1.03543
1.84151
1.64769
1.40001
1.40001
1.40001
1.82023
1.8325
1.83898
1.40001
1.40001
1.83931
1.40001
1.84145
1.84051
1.40001
1.40001
1.84369
1.84125
1.82273
1.40001
1.40001
1.84383
1.84477
1.40001
1.40001
1.40001
1.84466
1.40001
1.40001
1.40001
1.8422
1.84646
1.84433
1.40001
1.83949
1.40004
1.09896
1.84164
1.84194
1.40001
1.84104
1.81382
1.84117
1.40001
1.40001
1.84532
1.40001
1.6312
1.84078
1.40001
1.04331
1.40001
1.84323
1.40001
1.40001
1.83825
1.40001
1.40001
1.40001
1.5413
1.83997
1.08296
1.40002
1.84253
1.40001
1.40001
1.84101
1.40001
1.84288
1.40001
1.40001
1.84252
1.84188
1.40001
1.40005
1.40001
1.40001
1.40001
1.40001
1.40001
1.40001
1.84753
1.84163
1.40001
1.83512
1.03595
1.84866
1.40001
1.84195
1.83998
1.84207
1.83682
1.84172
1.40001
1.40001
1.83645
1.40001
1.67232
1.84379
1.84114
1.40001
1.84691
1.8352
1.40001
1.79866
1.40001
1.84222
1.68955
1.83819
1.39741
1.82949
1.79668
1.84332
1.84274
1.43762
1.84169
1.84515
1.40001
1.84201
1.40001
1.8426
1.40001
1.40001
1.40001
1.40001
1.39638
1.8414
1.84279
1.76336
1.40001
1.84298
1.40001
1.40001
1.40001
1.01905
1.40001
1.83398
1.40001
1.80179
1.82329
1.40001
1.40001
1.40001
1.80771
1.84022
1.40001
1.40001
1.84262
1.04259
1.48174
1.40001
1.84162
1.84226
1.80283
1.83406
1.84227
1.40001
1.84106
1.40001
1.40001
1.40001
1.40001
1.84047
1.84155
1.40001
1.83088
1.45226
1.84071
1.81147
1.40001
1.40001
1.81281
1.40001
1.40001
1.04711
1.70821
1.40001
1.40001
1.84871
1.40001
1.84537
1.80295
1.40001
1.79946
1.04533
1.84202
1.8417
1.84246
1.40001
1.02924
1.40001
1.40001
1.40001
1.84028
1.77885
1.40001
1.83068
1.84122
1.40001
1.84188
1.40001
1.40001
1.40001
1.40001
1.84201
1.39941
1.40001
1.84361
1.40001
1.40001
1.84122
1.84122
1.40001
1.8461
1.4873
1.40003
1.40001
1.8437
1.40001
1.84369
1.40001
1.41241
1.84174
1.40001
1.84192
1.40001
1.40001
1.54303
1.842
1.40001
1.40001
1.40001
1.40001
1.40001
1.39658
1.03313
1.03425
1.42052
1.40001
1.41796
1.40001
1.41886
1.40001
1.84167
1.40001
1.67352
1.40001
1.84195
1.40001
1.40001
1.40001
1.84182
1.40001
1.75904
1.84157
1.40001
1.63623
1.84227
1.40001
1.40001
1.8391
1.84238
1.40001
1.40001
1.44203
1.02611
1.40001
1.84279
1.40001
1.40001
1.40001
1.40001
1.47459
1.84124
1.40001
1.40001
1.40001
1.038
1.40001
1.84229
1.84214
1.85262
1.40001
1.40001
1.40001
1.40001
1.61922
1.84303
1.40001
1.40001
1.40001
1.84339
1.84202
1.44418
1.40001
1.40001
1.40001
1.84187
1.84197
1.40001
1.04031
1.84419
1.84136
1.8432
1.84301
1.84313
1.40001
1.40001
1.84627
1.84222
1.84139
1.03184
1.44156
1.8408
1.40001
1.40001
1.40001
1.40001
1.40001
1.84184
1.02673
1.40001
1.40001
1.84146
1.59223
1.40001
1.84587
1.40001
1.40001
1.40001
1.03419
1.40001
1.40001
1.5164
1.84444
1.8416
1.40001
1.8468
1.84341
1.40001
1.4775
1.40001
1.8482
1.40001
1.84029
1.0381
1.40001
1.40001
1.40001
1.40001
1.84153
1.40007
1.40001
1.40001
1.40001
1.82243
1.40001
1.40001
1.40001
1.40001
1.84132
1.03717
1.74296
1.8436
1.40001
1.84225
1.40001
1.40001
1.40001
1.39717
1.40001
1.83948
1.40001
1.19485
1.40001
1.40001
1.40004
1.84238
1.02681
1.40001
1.84103
1.40001
1.84453
1.84218
1.01511
1.40001
1.40001
1.8295
1.40001
1.40001
1.02725
1.40001
1.84483
1.40001
1.82183
1.39943
1.84206
1.40001
1.40001
1.40001
1.40001
1.84049
1.40001
1.40001
1.84176
1.40001
1.40001
1.40001
1.40001
1.40001
1.40001
1.40001
1.40001
1.6878
1.40001
1.53994
1.84037
1.40001
1.40001
1.40001
1.03865
1.40001
1.40001
1.40001
1.40001
1.84137
1.84195
1.44573
1.40001
1.40001
1.84281
1.40001
1.40001
1.84141
1.40001
1.40002
1.40001
1.40001
1.40001
1.40001
1.84262
1.17402
1.84133
1.8436
1.39685
1.40001
1.40001
1.40001
1.65952
1.40001
1.40001
1.84186
1.84231
1.40001
1.40001
1.40001
1.40001
1.00144
1.40001
1.40001
1.40001
1.67538
1.40001
1.84192
1.845
1.40001
1.84317
1.40001
1.40001
1.40001
1.63876
1.40001
1.83814
1.40001
1.84214
1.40001
1.40001
1.39651
1.84189
1.40001
1.40001
1.40001
1.40001
1.40001
1.84396
1.40003
1.40001
1.03962
1.84392
1.08321
1.40001
1.84055
1.40001
1.39602
1.40001
1.84319
1.83893
1.40001
1.83675
1.27842
1.84124
1.84511
1.40004
1.40001
1.40001
1.03319
1.40001
1.40001
1.40001
1.84194
1.65434
1.84071
1.40001
1.40001
1.40001
1.40001
1.39685
1.8428
1.40001
1.04544
1.40001
1.40001
1.40001
1.40001
1.40001
1.40001
1.40001
1.84845
1.83947
1.84222
1.40001
1.40001
1.39697
1.40001
1.37467
1.40001
1.40001
1.40001
1.03639
1.37135
1.40001
1.02309
1.03715
1.40001
1.84254
1.84197
1.40001
1.83818
1.84161
1.04577
1.7008
1.40001
1.40001
1.40001
1.04566
1.84097
1.40001
1.04421
1.40001
1.84634
1.47643
1.40001
1.40001
1.40001
1.40001
1.84187
1.84035
1.40001
1.40001
1.84146
1.40001
1.40001
1.8456
1.84146
1.40001
1.79558
1.84155
1.83416
1.35785
1.83997
1.40821
1.04904
1.7405
1.84242
1.40001
1.40001
1.40001
1.02857
1.40001
1.03297
1.83925
1.35333
1.8419
1.34154
1.40001
1.84174
1.60492
1.40001
1.40001
1.84004
1.40001
1.57661
1.84032
1.40001
1.40001
1.8377
1.8461
1.02345
1.67045
1.39989
1.40001
1.6678
1.40001
1.84523
1.32901
1.84651
1.84843
1.40001
1.40001
1.40001
1.40001
1.84016
1.40001
1.40001
1.83988
1.39963
1.84181
1.7746
1.84071
1.03519
1.40001
1.40001
1.40001
1.40001
1.84144
1.40005
1.84222
1.40001
1.84256
1.84452
1.45567
1.84676
1.53532
1.84205
1.40001
1.70424
1.05274
1.84796
1.84171
1.75678
1.47239
1.83971
1.84124
1.84056
1.84009
1.40001
1.31702
1.46731
1.40001
1.84188
1.6081
1.84132
1.40004
1.40001
1.40001
1.09151
1.84262
1.83622
1.75804
1.40001
1.57598
1.40001
1.84719
1.8464
1.40001
1.84302
1.83695
1.40001
1.40001
1.40001
1.84206
1.40001
1.57264
1.84264
1.70971
1.40001
1.84132
1.40001
1.40001
1.40001
1.40001
1.40001
1.40001
1.40001
1.40001
1.40001
1.40001
1.07501
1.40001
1.81954
1.04379
1.65552
1.39857
1.84431
1.40001
1.63781
1.40002
1.68579
1.7818
1.40001
1.40219
1.83766
1.30499
1.40001
1.84135
1.84023
1.33179
1.40001
1.8417
1.84198
1.84409
1.40001
1.84104
1.84
1.84116
1.40001
1.60175
1.40001
1.40006
1.84112
1.40001
1.84201
1.46357
1.84331
1.40001
1.40001
1.84385
1.84169
1.07963
1.40001
1.84243
1.73411
1.84067
1.40001
1.40001
1.83326
1.8425
1.39824
1.40001
1.78115
1.39684
1.84193
1.40006
1.40001
1.40001
1.40001
1.40001
1.5966
1.40001
1.74141
1.84163
1.73096
1.83986
1.40001
1.40421
1.40001
1.40001
1.84149
1.40001
1.8415
1.40001
1.40001
1.40001
1.40001
1.4
1.40001
1.45373
1.62929
1.40001
1.40001
1.03378
1.40001
1.84066
1.06136
1.83872
1.40001
1.63079
1.39975
1.84126
1.68492
1.041
1.64093
1.40004
1.84159
1.84204
1.40001
1.66772
1.84118
1.84149
1.3984
1.84787
1.8285
1.02893
1.40001
1.40001
1.39758
1.40001
1.83759
1.40001
1.02855
1.8389
1.40001
1.40001
1.78546
1.40001
1.84299
1.40001
1.84076
1.40001
1.08053
1.40001
1.40001
1.84547
1.84888
1.84594
1.40001
1.84448
1.84175
1.84176
1.40001
1.40001
1.82902
1.4
1.10176
1.40001
1.40001
1.40001
1.8406
1.40001
1.84178
1.68379
1.84276
1.40001
1.84125
1.39938
1.40001
1.40001
1.40001
1.40001
1.40001
1.40001
1.13162
1.40001
1.40001
1.84145
1.40001
1.84286
1.84221
1.40001
1.0499
1.03639
1.40001
1.84358
1.47062
1.0431
1.00232
1.40001
1.84075
1.40001
1.84482
1.0414
1.4009
1.40001
1.40001
1.39953
1.40001
1.40001
1.40001
1.39992
1.57658
1.84235
1.40001
1.40001
1.84317
1.66074
1.40001
1.8056
1.84367
1.83979
1.57574
1.83921
1.40001
1.84202
1.40001
1.84289
1.40001
1.83849
1.84323
1.39729
1.84119
1.83965
1.40001
1.40001
1.40001
1.40001
1.40001
1.31256
1.83403
1.40005
1.40003
0.998298
1.39999
1.04575
0.99473
1.40001
1.84304
1.84253
1.84136
1.40001
1.8405
1.40001
1.04105
1.40001
1.40001
1.83926
1.21896
1.84052
1.40001
1.84155
1.40001
1.37799
1.84233
1.40001
1.40001
1.40001
1.84239
1.40001
1.84042
1.02558
1.40001
1.40001
1.65639
1.40001
1.40001
1.64068
1.40001
1.40001
1.84079
1.40001
1.40001
1.40001
1.40001
1.40001
1.84931
1.84068
1.40001
1.83827
1.84175
1.02285
1.6042
1.84499
1.40001
1.40001
1.79822
1.39889
1.40001
1.40001
1.84161
1.84051
1.69211
1.40001
1.8434
1.03496
1.81226
1.3999
1.40001
1.83951
1.40004
1.84283
1.78199
1.73876
1.40001
1.40001
1.8419
1.11436
1.00322
1.40001
1.84189
1.40001
1.84253
1.40001
1.65982
1.40001
1.40001
1.84043
1.6817
1.04689
1.40001
1.39835
1.40001
1.40001
1.42646
1.57494
1.84203
1.40001
1.84235
1.40001
1.40001
1.40001
1.40001
1.40001
1.40001
1.46425
1.05296
1.40001
1.40001
1.43339
1.40001
1.40001
1.40001
1.40001
1.40001
1.84071
1.40001
1.40001
1.84303
1.84351
1.72012
1.40001
1.40001
1.40001
1.23728
1.84164
1.71048
1.40001
1.40001
1.40001
1.40001
1.84158
1.40001
1.40001
1.40001
1.84475
1.40001
1.40001
1.71699
1.85212
1.43641
1.1358
1.84273
1.71583
1.84362
1.40001
1.62537
1.40001
1.40001
1.40001
0.993634
1.40206
0.960801
1.40001
1.02415
1.00038
1.40001
1.03214
1.40001
1.40001
1.40001
1.59385
1.40001
1.8421
1.84073
1.40117
1.61215
1.77317
1.00366
1.16332
1.28455
1.40001
1.84183
1.83924
1.84186
1.84166
1.78001
1.26719
1.40001
1.78174
1.40001
1.83263
1.40001
1.40001
1.39644
1.40905
1.40001
1.40001
1.40001
1.83713
1.40001
1.03649
1.40001
1.84283
1.03567
1.40001
1.40001
1.84156
1.40001
1.84213
1.39975
1.40001
1.40001
1.84199
1.79429
1.40001
1.8521
1.40001
1.40001
1.4145
1.40001
1.59956
1.40001
1.40001
1.02926
1.40001
1.40001
1.84448
1.4
1.83981
1.40001
1.40004
1.03536
1.40001
1.40001
1.06989
1.40082
1.40001
1.84007
1.04989
1.84386
1.0465
1.84189
1.40001
1.40001
1.40001
1.40001
1.40001
1.40001
1.40001
1.40001
1.40001
1.40001
1.40001
1.82365
1.40001
1.84314
1.83915
1.05202
1.40001
1.40001
1.40001
1.40001
1.40001
1.40001
1.82918
1.40001
1.40001
1.03922
1.40001
1.40001
1.8391
1.40001
1.40001
1.56904
1.77026
1.03685
1.04425
1.07372
1.13619
1.40001
1.39654
1.0281
1.40037
1.82502
1.39681
1.40001
1.40001
1.84256
1.40001
1.40001
1.40001
1.15251
1.40002
1.55554
1.40001
1.40001
1.57657
1.84198
1.40001
1.01805
1.40001
1.40001
1.40001
1.39661
1.40001
1.8428
1.84116
1.40001
1.04231
1.40001
1.63901
1.03853
1.40001
1.29379
1.40001
1.39631
1.0005
1.40001
1.40001
1.40001
1.39564
0.999809
1.40001
1.0207
1.39842
1.63187
1.8101
1.04594
1.03146
1.40001
1.38984
1.40001
1.39865
1.40001
1.84247
1.84157
1.40001
1.42003
1.84245
1.84147
1.40001
1.40001
1.8412
1.40001
1.40001
1.40005
1.40001
1.84174
1.40001
1.40001
1.41862
1.40001
1.3986
1.07722
1.40001
1.40001
1.40001
1.40001
1.40001
1.83924
1.42357
1.40005
1.40001
1.40001
1.40001
1.40001
1.40001
1.40004
1.40001
1.02575
1.49659
1.39863
1.83891
1.84291
1.40001
1.41322
1.84235
1.78388
1.40001
1.40001
0.987965
1.84046
1.40001
1.83989
1.40001
1.84293
1.71652
1.01736
1.40001
1.03636
1.81394
1.39968
1.40001
1.05038
0.987511
1.40001
1.40001
1.77168
1.40001
1.4
1.01128
1.40001
1.40001
1.40001
1.54779
1.40001
1.05349
1.84232
1.40001
1.40001
1.40001
1.40001
1.84192
1.40001
1.40001
1.83753
1.79526
1.40001
1.40001
1.40001
1.84111
1.01643
1.40001
1.8387
1.84154
1.40001
1.75349
1.4
1.40004
1.40001
1.40001
1.82034
1.41493
1.40001
1.03196
1.64165
1.40001
1.40001
1.39741
1.40001
1.40001
1.84546
1.40001
1.40001
1.40004
1.40001
1.83962
1.40001
1.40001
1.40001
1.40001
1.40001
1.40001
1.40001
1.59751
1.40001
1.84012
1.40001
1.40001
1.84346
1.40001
1.40001
1.40001
1.84131
1.84065
1.44623
1.40001
1.39757
1.40001
1.40001
1.40001
1.40001
1.83841
1.40001
1.40001
1.84161
1.04081
1.40001
1.40001
1.40001
1.40001
1.40001
1.40001
1.75949
1.40001
1.40001
1.8437
1.84247
1.40001
1.40001
1.40001
1.83822
1.8409
1.40001
1.3997
1.84662
1.40001
1.40001
1.40001
1.40002
1.03538
1.42959
1.39614
1.39604
1.40001
1.40001
1.01442
1.84322
1.40001
1.00341
1.40001
1.84367
1.82395
1.0347
1.39941
1.84217
1.83905
1.84213
1.40001
1.40001
1.31555
1.79342
1.76762
0.993138
1.40001
1.40001
1.40001
1.83981
1.84193
1.03577
1.39731
1.40001
1.84206
1.07521
1.40001
1.83553
1.03981
1.36634
1.40681
1.40001
1.8431
1.40001
1.40001
1.40001
1.40001
1.40001
1.40001
1.40012
1.81133
1.40001
1.40001
1.84277
1.40001
1.40001
1.40001
1.84139
1.40001
1.02543
1.40001
1.40001
1.40001
1.55876
1.40001
1.40001
1.40001
1.40001
1.40001
1.18501
1.40001
1.07207
1.40001
1.84117
1.40008
1.25671
1.26906
1.40002
1.40464
1.62911
1.40001
1.40001
1.02896
1.84181
1.84115
1.84157
1.40001
1.02888
1.01759
1.40001
1.84402
1.40001
1.40001
1.40001
1.40001
1.40001
1.40004
1.40001
1.02767
1.68066
1.40001
1.40001
1.04166
1.37476
1.40001
1.40001
1.40001
1.40001
1.00345
1.40001
1.06554
1.40001
1.40001
1.8405
1.40001
1.40001
1.03513
1.40001
1.84177
1.40001
1.0063
1.40001
1.03955
1.40001
1.40849
1.84004
1.85047
1.40001
1.40001
1.83777
1.40001
1.40001
1.49538
1.3967
1.40001
1.39829
1.40001
1.84193
1.40001
1.00907
1.40002
1.83861
1.39895
1.40001
1.40001
1.18793
1.40001
1.39903
1.03887
1.83908
1.56186
1.40001
1.40001
1.31947
1.40001
1.40001
1.40001
1.18234
1.40001
1.40001
1.40001
1.84173
1.40001
1.01695
1.4
1.40001
1.40001
1.40001
1.03427
1.8409
1.8032
1.03921
1.40001
1.84642
1.40001
1.40001
1.84157
1.83927
1.77138
1.03256
1.39766
1.39927
1.40001
1.84175
1.40001
1.40001
1.40001
1.40001
1.84207
1.40004
1.40001
1.40001
1.83785
1.40001
1.40001
1.84147
1.02871
1.40001
1.40001
1.40001
1.03728
1.40001
1.4
1.4
1.39862
1.40001
1.40001
1.40001
1.40001
1.75525
1.40001
1.84291
1.84146
1.84828
1.8415
1.84283
1.8427
1.40001
1.84282
1.40001
1.84165
1.84163
1.40001
1.39884
1.0332
1.77915
1.3999
1.40001
1.40001
1.40001
1.40001
1.38163
1.40001
1.47286
1.40001
1.40001
1.40001
1.25604
1.84153
1.84278
1.84638
1.78206
1.39988
1.40001
1.4229
1.84191
1.39791
1.46133
1.39743
1.03633
1.40001
1.40003
1.40001
1.40001
1.40001
1.40001
1.40001
1.84239
1.0275
1.84258
1.84199
1.39527
1.07034
1.40001
1.40001
1.40001
1.84074
1.07085
1.78932
1.02893
1.84148
1.84647
1.04059
1.84165
1.4227
1.40001
1.844
1.18319
1.40001
1.39874
1.03997
1.40001
1.05683
1.40001
1.84299
1.84207
1.12079
1.40001
1.83992
1.04075
1.40001
1.02887
1.40001
1.84082
1.40001
1.40001
1.84429
1.40001
1.24497
1.40001
1.39964
1.05511
1.84537
1.39949
1.40001
1.07806
1.40001
1.40001
1.40001
1.40001
1.63404
1.40001
1.84026
1.40001
1.40001
1.84558
1.40001
1.40001
1.83974
1.40001
1.04757
1.40001
1.03022
1.40002
1.40001
1.40001
1.40001
1.40001
1.82349
1.65345
1.8423
1.40001
1.84152
1.81034
1.00609
1.01659
1.40001
1.40001
1.83965
1.40001
1.05171
1.40001
1.37697
1.40001
1.40001
1.84177
1.40001
1.84629
1.03912
1.84763
1.40001
1.02259
1.40001
1.40001
1.84734
1.84034
1.40001
1.40005
1.40001
1.83402
1.40001
1.40001
1.03489
1.39938
1.06949
1.40001
1.40001
1.40001
1.8432
1.84723
1.83956
1.40001
1.40001
0.992796
1.40001
1.84539
1.40001
1.40001
1.40001
1.82278
1.84141
1.84111
1.06419
1.84195
1.84199
1.04644
1.83971
1.40005
1.05837
1.40777
1.40001
1.40001
1.84095
1.06919
1.68493
1.06929
1.84224
1.39745
1.02825
1.84407
1.40001
1.40001
1.40001
1.40001
1.84151
1.83817
1.03229
1.40001
1.40003
1.04267
1.40004
1.40001
1.02601
1.00864
1.70947
1.8429
1.39849
1.84147
1.40001
1.84705
1.1948
1.05032
1.84206
1.85075
1.40001
1.84233
1.40001
1.40001
1.84253
1.40001
1.73328
1.83929
1.40001
1.40001
1.40001
1.40001
1.84153
1.83715
1.8454
1.40001
1.40001
1.84341
1.84314
1.83948
1.40001
1.84177
1.40001
1.40001
1.40001
1.40001
1.40001
1.03905
1.24563
1.0148
1.40001
1.40001
1.84125
1.40001
1.40001
1.83994
1.05031
1.40001
1.84207
1.83737
1.82048
1.01443
1.40001
1.0262
1.40001
1.40003
1.83848
1.60889
1.83915
1.80473
1.40001
1.00022
1.40001
1.84019
1.7164
1.02396
1.40001
1.40001
1.40001
1.18454
1.40001
1.40001
1.84205
1.40001
1.03406
1.84159
1.40001
1.40001
1.40001
1.40001
1.40001
1.75877
1.50218
1.40001
1.84216
1.40001
1.84053
1.40001
1.39778
1.40001
1.84317
1.84234
1.84169
1.84428
1.39958
1.8402
1.40001
1.84177
1.84346
1.77298
1.40001
1.40001
1.04046
1.8385
1.40001
1.40001
1.84746
1.84177
1.84309
1.40001
1.84285
1.40001
1.40001
1.40003
1.84402
1.84498
1.52332
1.49603
1.84199
1.84123
1.08653
1.40001
1.40001
1.40001
1.40001
1.40002
1.55506
1.40001
1.40001
1.78021
1.0638
1.39999
1.40001
1.84129
1.39989
1.39984
1.46762
1.79266
1.83624
1.31287
1.40001
1.08455
1.40001
1.38257
1.84171
1.84431
1.83664
1.39902
1.40001
1.40001
1.02001
1.40001
1.40001
1.84187
1.44856
1.40001
1.40001
1.40001
1.40001
1.40001
1.40001
1.40001
1.39994
1.83982
1.40002
1.40001
1.40001
1.40001
1.40001
1.6992
1.40001
1.60901
1.40001
1.40001
1.84219
1.84889
1.0442
1.39884
1.40001
1.4
1.40001
1.02682
1.84176
1.84155
1.40001
1.40001
1.40001
1.40001
1.40001
1.40001
1.40001
1.40001
1.83934
1.83388
1.02245
1.44906
1.02804
1.40001
1.03237
1.40001
1.84152
1.52108
1.40001
1.40001
1.13448
1.40001
1.82102
1.1809
1.39628
1.04104
1.40001
1.40001
1.83781
1.40005
1.39684
1.02594
1.84092
1.84774
1.40001
1.40001
1.40001
1.40001
1.81231
1.40001
1.40001
1.84159
1.39896
1.84099
1.40004
1.40001
1.40001
1.06151
1.40001
1.40001
1.84106
1.04216
1.14232
1.03156
1.84305
1.39933
1.40001
1.84579
1.04686
1.02819
1.41214
1.40001
1.40001
1.83845
1.40005
1.59663
1.40001
1.40001
1.83858
1.04206
1.40001
1.40001
1.40014
1.84085
1.40011
1.81555
1.40001
1.40004
1.40001
1.40001
1.1379
1.40001
1.19363
1.40002
1.40001
1.84429
1.05917
1.40001
1.17589
1.16785
1.40001
1.40001
1.84153
1.40001
1.40001
1.40001
1.84312
1.84197
1.40006
1.82565
1.83865
1.1843
1.84157
1.81934
1.40001
1.40001
1.83057
1.4
1.40001
1.40001
1.40001
1.40001
1.84652
1.84194
1.40001
1.40001
1.40001
1.84191