/*--------------------------------*- C++ -*----------------------------------*\
  =========                 |
  \\      /  F ield         | OpenFOAM: The Open Source CFD Toolbox
   \\    /   O peration     | Website:  https://openfoam.org
    \\  /    A nd           | Version:  12
     \\/     M anipulation  |
\*---------------------------------------------------------------------------*/
FoamFile
{
    format      ascii;
    class       surfaceScalarField;
    location    "23.7";
    object      phi;
}
// * * * * * * * * * * * * * * * * * * * * * * * * * * * * * * * * * * * * * //

dimensions      [1 0 -1 0 0 0 0];

internalField   nonuniform List<scalar> 
19404
(
-0.000148877
-3.65085e-08
-0.00014879
1.96207e-07
-0.000148546
5.82656e-07
-0.000147291
8.4289e-07
-0.000144522
7.39084e-07
-0.000143648
4.84795e-07
-0.000143543
1.55283e-07
-0.000143543
-2.78226e-07
-0.000143942
-5.40744e-07
-0.000146354
-6.25705e-07
-0.000150768
-3.25534e-07
-0.000152744
2.36669e-07
-0.000153131
4.19954e-07
-0.000153107
6.45601e-07
-0.000152743
1.06464e-06
-0.000150579
1.29453e-06
-0.000146573
8.07947e-07
-0.000145087
5.30336e-07
-0.000145002
1.08688e-07
-0.000145024
-3.68086e-07
-0.000145349
-5.45957e-07
-0.00014648
-5.29287e-07
-0.000150125
-1.63052e-07
-0.000153924
3.1212e-07
-0.000155285
5.78186e-07
-0.000155567
7.41423e-07
-0.000155562
8.50003e-07
-0.000155078
7.87099e-07
-0.000152018
5.24661e-07
-0.000149545
1.522e-07
-0.000149151
-2.71644e-07
-0.000148981
-6.50965e-07
-0.000148846
-4.805e-07
-0.000148812
-3.5471e-07
-0.000149817
-1.9041e-07
-0.000153631
2.29835e-07
-0.000156561
6.19819e-07
-0.000157664
8.22054e-07
-0.000158084
7.13932e-07
-0.000158231
6.04155e-07
-0.000158215
4.48062e-07
-0.000157335
2.73429e-07
-0.000153801
2.79169e-08
-0.000151644
-2.86627e-08
-0.000150874
-1.91376e-08
-0.000150633
7.53131e-08
-0.00015064
1.13299e-07
-0.000152182
1.86049e-07
-0.000157191
3.08847e-07
-0.000160359
3.65166e-07
-0.000161446
3.45303e-07
-0.000161803
2.93733e-07
-0.000161904
2.4206e-07
-0.000161787
1.51703e-07
-0.000158387
1.63773e-07
-0.000153555
2.21142e-07
-0.000152139
2.34433e-07
-0.000151985
1.32236e-07
-0.000152068
1.88e-08
-0.000153909
9.93167e-09
-0.000160107
2.24065e-07
-0.00016421
1.38556e-07
-0.000165592
2.68746e-07
-0.000166045
3.312e-07
-0.000166176
3.12223e-07
-0.000166073
2.19747e-07
-0.000161968
2.09833e-07
-0.000155116
2.43453e-07
-0.000152779
1.1867e-07
-0.000152574
3.61616e-08
-0.000152732
-1.59526e-07
-0.000155783
-2.41689e-07
-0.000163553
-3.22376e-09
-0.000168319
2.53581e-07
-0.000169916
4.2879e-07
-0.000170401
5.43706e-07
-0.000170571
6.04535e-07
-0.000169935
4.59715e-07
-0.000162212
1.24335e-07
-0.000153149
3.34127e-08
-0.000150299
-7.07254e-08
-0.000150346
-3.75651e-07
-0.000151369
-7.33463e-07
-0.000159746
-6.28532e-07
-0.000169072
-2.43298e-07
-0.000172694
2.72432e-07
-0.000173944
7.67575e-07
-0.000174383
9.91732e-07
-0.00017395
7.90318e-07
-0.000165911
7.5211e-07
-0.000150838
3.98919e-07
-0.00014003
-7.47551e-07
-0.000136512
-2.13787e-06
-0.000136916
-2.64846e-06
-0.000149442
-3.51225e-06
-0.000160472
-8.30611e-06
-0.000159939
-1.22319e-05
-8.30859e-05
-4.51698e-05
4.71252e-05
-0.000148909
2.36643e-07
-0.000148616
9.08439e-07
-0.000147951
1.23687e-06
-0.000147213
1.08102e-06
-0.000146325
8.10415e-07
-0.000145697
4.02506e-07
-0.000145349
-8.00252e-08
-0.000145193
-3.17164e-07
-0.000145128
-4.89211e-07
-0.000146766
-7.96892e-07
-0.000150459
-1.78214e-07
-0.000151937
6.94223e-07
-0.000152245
1.26374e-06
-0.000152107
1.61232e-06
-0.000151819
1.59302e-06
-0.000151422
1.409e-06
-0.000149391
1.13103e-06
-0.000147519
4.68129e-07
-0.000146753
-1.9124e-08
-0.000146464
-2.64043e-07
-0.000146332
-5.93045e-07
-0.000146648
-5.85836e-07
-0.00014972
-1.88886e-07
-0.00015348
5.70826e-07
-0.000154925
1.1326e-06
-0.00015544
1.45164e-06
-0.000155584
1.22798e-06
-0.000155514
9.58287e-07
-0.000154661
7.24035e-07
-0.00015211
2.22668e-07
-0.000150391
-3.95658e-07
-0.000149468
-7.88985e-07
-0.000148967
-4.20266e-07
-0.000148814
-1.44016e-07
-0.000149249
5.06854e-09
-0.000152716
4.912e-07
-0.000156205
1.18217e-06
-0.00015788
1.47521e-06
-0.000158615
1.1833e-06
-0.000158836
9.13173e-07
-0.00015883
6.90469e-07
-0.000158259
4.42433e-07
-0.000154685
1.79479e-07
-0.000151926
6.80852e-08
-0.000150903
1.65146e-07
-0.000150573
2.91138e-07
-0.000150547
3.26643e-07
-0.000152068
3.28148e-07
-0.000157436
4.79335e-07
-0.000160806
5.92572e-07
-0.000161892
6.12191e-07
-0.000162226
5.87208e-07
-0.000162312
5.29332e-07
-0.000162148
4.27344e-07
-0.000158693
4.20939e-07
-0.000153821
4.45825e-07
-0.000152249
3.68375e-07
-0.000152021
2.20733e-07
-0.00015208
7.56753e-08
-0.000153709
-5.74078e-08
-0.000159928
1.51671e-07
-0.000164287
4.12719e-07
-0.000165716
6.54551e-07
-0.000166146
7.61457e-07
-0.000166263
7.30298e-07
-0.000166113
6.19948e-07
-0.000162054
5.6482e-07
-0.000155274
4.47184e-07
-0.000152733
1.61207e-07
-0.000152376
-8.62259e-08
-0.00015245
-3.02686e-07
-0.00015436
-5.45241e-07
-0.000161865
-2.93301e-07
-0.000167303
3.96449e-07
-0.000169335
7.58341e-07
-0.000170073
8.69008e-07
-0.000170237
8.45612e-07
-0.000169783
7.3026e-07
-0.000162526
5.8254e-07
-0.000153311
1.52238e-07
-0.000149915
-5.02899e-07
-0.00014946
-1.0565e-06
-0.000149717
-1.45383e-06
-0.000154847
-1.73103e-06
-0.000164507
-7.65297e-07
-0.000169803
4.82509e-07
-0.000171748
9.5911e-07
-0.000172339
9.58102e-07
-0.000172127
8.28662e-07
-0.000165631
7.80638e-07
-0.000152109
-1.36533e-07
-0.000140121
-2.48892e-06
-0.000132527
-5.47868e-06
-0.00013193
-7.08533e-06
-0.000135003
-8.0668e-06
-0.000143029
-1.56871e-05
-0.000143831
-2.10747e-05
-0.000113546
-5.171e-05
5.74793e-05
-0.000147253
9.78311e-07
-0.000147377
1.23528e-06
-0.000147488
1.01308e-06
-0.000147362
7.80056e-07
-0.000147226
4.12577e-07
-0.00014691
-4.61258e-08
-0.000146201
-1.49179e-07
-0.000145674
-2.8676e-07
-0.000145326
-1.12706e-07
-0.000145401
1.32559e-07
-0.000147019
7.06222e-07
-0.000149144
1.59413e-06
-0.000150863
1.52354e-06
-0.00015166
1.60224e-06
-0.000151815
1.37227e-06
-0.000151726
1.13325e-06
-0.000151456
8.35834e-07
-0.000149621
3.78652e-07
-0.000147656
1.28421e-07
-0.00014649
-2.29301e-08
-0.000145928
1.14928e-07
-0.000145814
1.92753e-07
-0.000146874
2.22847e-07
-0.000151005
7.2012e-07
-0.000154016
1.33123e-06
-0.000155187
1.49066e-06
-0.000155533
1.15476e-06
-0.000155539
8.78722e-07
-0.000155442
6.23762e-07
-0.00015404
3.47688e-07
-0.000150362
2.91765e-08
-0.000148199
1.75322e-07
-0.000147443
3.52946e-07
-0.000147209
4.3389e-07
-0.000147319
4.54666e-07
-0.000150236
5.56461e-07
-0.000155232
1.04442e-06
-0.000157578
1.48023e-06
-0.00015831
1.24285e-06
-0.000158453
9.91393e-07
-0.000158438
7.79419e-07
-0.000158049
6.45273e-07
-0.000154174
6.75103e-07
-0.00015041
6.81037e-07
-0.000149419
6.01842e-07
-0.000149233
5.123e-07
-0.000149248
3.77924e-07
-0.000150849
3.05728e-07
-0.000156401
4.37042e-07
-0.000159888
7.39095e-07
-0.000160896
9.01725e-07
-0.000161154
9.41302e-07
-0.000161216
9.26369e-07
-0.000161002
8.05435e-07
-0.000157688
7.25654e-07
-0.000152915
5.3151e-07
-0.000151196
2.77409e-07
-0.000150862
1.02535e-07
-0.0001509
-1.53343e-09
-0.000151779
-1.90253e-07
-0.000157396
2.3805e-08
-0.000162237
7.80469e-07
-0.000163777
1.20686e-06
-0.000164178
1.26787e-06
-0.000164292
1.1997e-06
-0.000164211
1.0593e-06
-0.000160922
8.57773e-07
-0.000154255
3.73709e-07
-0.000151001
-2.311e-07
-0.000150179
-5.46956e-07
-0.000150226
-6.52637e-07
-0.000151011
-8.65501e-07
-0.000157824
-7.35117e-07
-0.000164352
3.67118e-07
-0.000166374
1.07244e-06
-0.000166891
1.34264e-06
-0.000167061
1.43057e-06
-0.000166703
1.33566e-06
-0.000161441
1.05606e-06
-0.000152017
7.55509e-09
-0.000146964
-1.44708e-06
-0.000145767
-2.13972e-06
-0.000145736
-2.41551e-06
-0.000147725
-2.79171e-06
-0.000157524
-2.36377e-06
-0.00016508
-4.79842e-07
-0.000167221
6.67745e-07
-0.00016767
1.05018e-06
-0.000167653
1.07103e-06
-0.000162456
7.10484e-07
-0.000150548
-6.36126e-07
-0.00013994
-3.59604e-06
-0.000132256
-7.00176e-06
-0.000128595
-9.84545e-06
-0.000128689
-1.21208e-05
-0.000133509
-2.0451e-05
-0.000136354
-2.77732e-05
-0.000122735
-5.35123e-05
5.86153e-05
-0.000146226
1.50558e-06
-0.000147072
1.09815e-06
-0.000147607
5.5278e-07
-0.000147555
2.53207e-07
-0.000147386
-5.05349e-08
-0.00014695
-2.93364e-07
-0.000145576
-1.14934e-07
-0.000144046
5.29593e-07
-0.000143318
1.0233e-06
-0.000143126
1.2993e-06
-0.000144215
1.63618e-06
-0.000147362
1.41449e-06
-0.000149988
1.21233e-06
-0.00015153
1.09741e-06
-0.000151826
1.01062e-06
-0.000151727
7.98354e-07
-0.000151579
5.84792e-07
-0.000149883
4.49516e-07
-0.000146702
5.73662e-07
-0.000145017
8.5529e-07
-0.000144509
8.67792e-07
-0.000144372
7.74855e-07
-0.000144629
6.07204e-07
-0.000148568
5.46993e-07
-0.000153408
7.60453e-07
-0.00015512
1.07605e-06
-0.000155309
9.75279e-07
-0.000155225
8.15557e-07
-0.000155074
8.1263e-07
-0.000153194
1.04686e-06
-0.000148231
1.29595e-06
-0.000145916
1.29366e-06
-0.00014557
9.89886e-07
-0.000145504
7.17846e-07
-0.000145662
5.07094e-07
-0.000148273
3.64222e-07
-0.00015431
5.35249e-07
-0.000156986
1.0413e-06
-0.000157292
1.16819e-06
-0.000157264
1.12454e-06
-0.000157164
1.14464e-06
-0.000156225
1.18787e-06
-0.000151853
1.30568e-06
-0.000148212
1.10878e-06
-0.000147494
7.08907e-07
-0.000147479
4.29216e-07
-0.000147533
1.84571e-07
-0.000148944
4.0799e-08
-0.000154121
2.83197e-07
-0.000157624
8.81926e-07
-0.00015863
1.30358e-06
-0.000158911
1.38764e-06
-0.000158951
1.31682e-06
-0.000158823
1.14973e-06
-0.000156178
9.37824e-07
-0.000151498
5.17895e-07
-0.000149305
5.92828e-08
-0.000148618
-1.07069e-07
-0.000148457
-9.9052e-08
-0.00014872
-1.1886e-07
-0.000152767
-3.57353e-08
-0.000158426
7.55228e-07
-0.000160488
1.43488e-06
-0.000161051
1.54459e-06
-0.000161225
1.44925e-06
-0.000161231
1.25048e-06
-0.000159234
9.98056e-07
-0.000152566
3.69271e-07
-0.00014824
-5.15466e-07
-0.000146969
-1.00552e-06
-0.00014674
-1.06362e-06
-0.000146937
-1.05537e-06
-0.000151115
-1.02779e-06
-0.000158401
-5.3557e-08
-0.000161225
1.1525e-06
-0.000162008
1.63142e-06
-0.000162298
1.62306e-06
-0.000162377
1.38816e-06
-0.000159938
1.11259e-06
-0.000150815
7.18077e-08
-0.000143385
-1.59937e-06
-0.000140919
-3.08647e-06
-0.0001407
-3.64313e-06
-0.000141017
-3.99918e-06
-0.000146186
-4.27283e-06
-0.000154678
-2.90933e-06
-0.000158548
-7.45657e-07
-0.000159636
4.13976e-07
-0.000160007
5.52085e-07
-0.000157727
3.248e-07
-0.000148134
-1.0754e-06
-0.000137177
-4.43831e-06
-0.000128857
-8.37248e-06
-0.000123571
-1.26936e-05
-0.000121714
-1.56395e-05
-0.000125009
-2.23391e-05
-0.000129516
-3.08562e-05
-0.000128638
-5.27409e-05
5.63002e-05
-0.000146481
1.53176e-06
-0.000146982
9.54895e-07
-0.00014709
1.84716e-07
-0.000147017
-3.042e-07
-0.000146695
-5.60077e-07
-0.000144408
1.07571e-07
-0.000141958
9.52398e-07
-0.000140968
1.38849e-06
-0.000140748
1.6796e-06
-0.00014101
1.7923e-06
-0.000144095
1.71138e-06
-0.000147423
1.27167e-06
-0.000149177
8.98566e-07
-0.000150248
7.00518e-07
-0.00015061
5.70553e-07
-0.000150543
4.71032e-07
-0.000150133
5.60922e-07
-0.000147134
1.22872e-06
-0.000144004
1.59245e-06
-0.000143183
1.45466e-06
-0.000143024
1.13558e-06
-0.000142948
8.47558e-07
-0.000143359
5.95749e-07
-0.000147138
3.63907e-07
-0.000151611
3.50631e-07
-0.000152922
7.02093e-07
-0.000153035
1.05067e-06
-0.000152848
1.41435e-06
-0.00015234
1.65817e-06
-0.000150298
1.77194e-06
-0.000146195
1.78526e-06
-0.000144275
1.44842e-06
-0.000143984
1.01092e-06
-0.000143949
6.45547e-07
-0.000144087
3.145e-07
-0.000146245
1.33241e-07
-0.000151456
3.12663e-07
-0.000153949
8.8908e-07
-0.000154367
1.34026e-06
-0.000154348
1.52988e-06
-0.00015414
1.60433e-06
-0.000153308
1.55199e-06
-0.000149905
1.39269e-06
-0.000146595
9.10055e-07
-0.000145546
4.818e-07
-0.000145217
1.99083e-07
-0.000145202
1.24623e-07
-0.00014559
8.26862e-10
-0.000149614
1.54667e-07
-0.000153942
9.66486e-07
-0.000155446
1.53845e-06
-0.000155855
1.59579e-06
-0.000155941
1.47287e-06
-0.000155941
1.30905e-06
-0.000154325
1.08188e-06
-0.000149342
6.62198e-07
-0.000146192
6.57074e-08
-0.000145098
-2.13259e-07
-0.000144758
-1.98007e-07
-0.000144792
-1.38143e-07
-0.00014694
-1.47225e-07
-0.000153355
3.65984e-07
-0.00015666
1.21366e-06
-0.000157541
1.53425e-06
-0.000157737
1.52227e-06
-0.000157777
1.40903e-06
-0.000156986
1.2584e-06
-0.000151031
7.95337e-07
-0.000144747
-1.24117e-07
-0.000142618
-1.15807e-06
-0.000142173
-1.43607e-06
-0.000142181
-1.43403e-06
-0.000144013
-1.42308e-06
-0.000151528
-8.2359e-07
-0.000156252
6.64618e-07
-0.000157459
1.50573e-06
-0.000157796
1.62419e-06
-0.000157954
1.41494e-06
-0.000157274
1.13185e-06
-0.000150529
5.72174e-07
-0.00014126
-1.37796e-06
-0.000136345
-2.82521e-06
-0.000135557
-4.44491e-06
-0.000135487
-5.53415e-06
-0.000137039
-5.98131e-06
-0.000144286
-5.71759e-06
-0.00015098
-3.68522e-06
-0.000153434
-1.71256e-06
-0.000154038
-8.13167e-07
-0.000153781
-6.86965e-07
-0.000148307
-1.26382e-06
-0.000138623
-3.89752e-06
-0.000129116
-9.1005e-06
-0.000121842
-1.34235e-05
-0.000118999
-1.6386e-05
-0.000121443
-2.20513e-05
-0.000126542
-3.238e-05
-0.000131814
-5.01486e-05
5.42904e-05
-0.000146896
1.40378e-06
-0.000146998
8.93817e-07
-0.000146862
6.48289e-08
-0.000146333
-3.45353e-07
-0.000142455
2.39169e-07
-0.000139078
1.24423e-06
-0.000138248
1.44013e-06
-0.000138092
1.46453e-06
-0.000138194
1.51964e-06
-0.000139814
1.54203e-06
-0.000144446
1.51294e-06
-0.00014755
1.09399e-06
-0.00014834
7.7773e-07
-0.000148422
5.9784e-07
-0.000148374
5.01712e-07
-0.00014801
7.70389e-07
-0.000146079
1.38861e-06
-0.000143473
1.6308e-06
-0.000142101
1.60633e-06
-0.000141661
1.44329e-06
-0.000141518
1.07478e-06
-0.000141466
7.33056e-07
-0.00014206
4.13227e-07
-0.000145391
2.46957e-07
-0.000148386
4.31547e-07
-0.000149336
9.25848e-07
-0.000149508
1.50062e-06
-0.000149284
1.90623e-06
-0.000148988
2.02781e-06
-0.000147721
1.89222e-06
-0.000144748
1.65058e-06
-0.00014304
1.15632e-06
-0.000142485
7.63126e-07
-0.000142291
4.67598e-07
-0.00014227
3.05727e-07
-0.000143228
1.27368e-07
-0.000147412
3.7232e-07
-0.000150166
1.02218e-06
-0.000151017
1.49842e-06
-0.000151202
1.65164e-06
-0.000151168
1.68392e-06
-0.00015084
1.59084e-06
-0.000148474
1.32186e-06
-0.000145156
8.04571e-07
-0.000143422
1.85964e-07
-0.000142639
5.64643e-08
-0.000142309
1.13425e-07
-0.000142353
1.2198e-07
-0.000144753
1.43991e-07
-0.000150184
7.05481e-07
-0.000152538
1.40671e-06
-0.000153086
1.63223e-06
-0.000153177
1.57916e-06
-0.000153173
1.48055e-06
-0.000152406
1.36009e-06
-0.000147567
1.05678e-06
-0.000143035
4.57804e-07
-0.000141669
-2.71519e-07
-0.000141376
-4.86672e-07
-0.000141372
-4.90728e-07
-0.000142446
-4.8724e-07
-0.000148414
-1.3568e-07
-0.000152971
8.39725e-07
-0.000154181
1.50323e-06
-0.000154471
1.66568e-06
-0.000154569
1.66746e-06
-0.000154425
1.56098e-06
-0.000150794
1.3438e-06
-0.000143132
3.49075e-07
-0.000139013
-7.28747e-07
-0.0001384
-1.61302e-06
-0.000138373
-2.02721e-06
-0.000138929
-2.13454e-06
-0.000144317
-1.9238e-06
-0.000151487
-4.70502e-07
-0.00015407
1.12743e-06
-0.00015454
1.69799e-06
-0.000154655
1.67401e-06
-0.000154491
1.4833e-06
-0.000150445
1.19584e-06
-0.000141793
-3.51859e-07
-0.000135418
-2.73684e-06
-0.000132346
-4.65567e-06
-0.000131804
-6.2943e-06
-0.000131897
-7.30412e-06
-0.000134851
-7.79181e-06
-0.000141924
-7.12892e-06
-0.000146557
-5.09284e-06
-0.000148262
-3.46894e-06
-0.000148627
-2.93126e-06
-0.000147438
-2.71204e-06
-0.000141678
-3.6242e-06
-0.000133516
-7.80692e-06
-0.000124774
-1.32637e-05
-0.000118682
-1.70626e-05
-0.000119557
-2.12093e-05
-0.000125455
-3.40215e-05
-0.000134643
-4.88986e-05
5.24968e-05
-0.000146984
1.17551e-06
-0.00014683
8.22475e-07
-0.000146513
3.29522e-07
-0.000142848
7.5063e-07
-0.000137165
1.79847e-06
-0.000135588
1.74555e-06
-0.000135444
1.41908e-06
-0.000135452
1.12629e-06
-0.000136062
8.69498e-07
-0.000139273
8.10757e-07
-0.00014462
9.31746e-07
-0.000146844
8.68951e-07
-0.000146899
8.13607e-07
-0.000146779
9.58308e-07
-0.000146067
1.38325e-06
-0.000144387
1.80724e-06
-0.000142285
1.84987e-06
-0.000140924
1.39243e-06
-0.000140426
1.08785e-06
-0.000140181
9.0192e-07
-0.000140046
7.3535e-07
-0.000139951
5.21677e-07
-0.000140452
3.66592e-07
-0.000142885
5.50375e-07
-0.000144814
1.06194e-06
-0.000145749
1.65181e-06
-0.000146245
1.87451e-06
-0.000146503
1.82597e-06
-0.000146472
1.7417e-06
-0.00014608
1.57284e-06
-0.000143869
1.24396e-06
-0.000142078
7.99031e-07
-0.000141124
4.35195e-07
-0.000140514
3.58713e-07
-0.000140253
4.27637e-07
-0.000140436
4.42144e-07
-0.000143423
5.68047e-07
-0.00014683
1.15984e-06
-0.000148263
1.54347e-06
-0.000148878
1.58237e-06
-0.000149045
1.51945e-06
-0.000148995
1.44051e-06
-0.000147827
1.28327e-06
-0.000143838
8.82313e-07
-0.000141072
3.87776e-07
-0.000140118
1.26886e-07
-0.000139808
8.40232e-08
-0.000139778
1.09002e-07
-0.000140924
9.35918e-08
-0.00014635
4.01407e-07
-0.000149713
1.1672e-06
-0.000150504
1.6138e-06
-0.000150685
1.72555e-06
-0.000150702
1.72857e-06
-0.000150467
1.68112e-06
-0.000147215
1.51008e-06
-0.000141524
6.0771e-07
-0.000139005
-5.45748e-08
-0.000138719
-6.26643e-07
-0.000138687
-9.06869e-07
-0.000139159
-9.45373e-07
-0.000143598
-6.95113e-07
-0.000149385
4.18898e-07
-0.000151307
1.52598e-06
-0.000151755
1.94962e-06
-0.000151903
1.94648e-06
-0.000151967
1.82409e-06
-0.00015062
1.63128e-06
-0.000143618
1.03201e-06
-0.000137795
-7.15165e-07
-0.00013583
-1.73088e-06
-0.000135709
-2.42641e-06
-0.000135791
-2.80465e-06
-0.000137895
-2.96048e-06
-0.000145577
-2.20476e-06
-0.000151065
-1.15767e-09
-0.000152401
1.46002e-06
-0.000152547
1.88968e-06
-0.000152589
1.95622e-06
-0.000150989
1.79303e-06
-0.000144541
1.02253e-06
-0.000137128
-1.57455e-06
-0.000132189
-4.44937e-06
-0.000129771
-6.35598e-06
-0.000129562
-7.84694e-06
-0.000129928
-9.01252e-06
-0.000133904
-9.50627e-06
-0.000139864
-8.50965e-06
-0.000143495
-6.74887e-06
-0.000145097
-5.74748e-06
-0.000145552
-5.59659e-06
-0.000143556
-5.29558e-06
-0.000138433
-7.91641e-06
-0.000131881
-1.24021e-05
-0.000123408
-1.67464e-05
-0.000117976
-2.00035e-05
-0.00012199
-3.41045e-05
-0.000136826
-4.77998e-05
5.14161e-05
-0.000146713
7.93042e-07
-0.000146436
8.20032e-07
-0.00014404
1.38251e-06
-0.000138747
2.40868e-06
-0.000135421
2.51405e-06
-0.000134571
1.76297e-06
-0.000134375
1.31427e-06
-0.000134257
9.13433e-07
-0.000134684
3.706e-07
-0.000138779
-5.95011e-07
-0.000143843
8.10445e-08
-0.000145095
6.79797e-07
-0.00014516
1.34005e-06
-0.00014464
2.07671e-06
-0.00014375
2.52053e-06
-0.000142858
2.36028e-06
-0.00014125
1.79719e-06
-0.000139595
1.22347e-06
-0.000139076
7.51685e-07
-0.00013884
3.01967e-07
-0.000138575
1.74211e-07
-0.000138295
3.28722e-07
-0.000138418
5.08494e-07
-0.000140287
9.41041e-07
-0.000142072
1.71121e-06
-0.000143232
2.31886e-06
-0.000144294
2.14219e-06
-0.000144868
1.80151e-06
-0.000144963
1.48445e-06
-0.000144866
1.1717e-06
-0.000143442
8.02819e-07
-0.000141224
2.25142e-07
-0.000139746
8.54733e-08
-0.000138757
2.69526e-07
-0.000138338
5.09871e-07
-0.000138322
6.46227e-07
-0.000140339
7.57142e-07
-0.000144527
1.1511e-06
-0.000146421
1.54022e-06
-0.000147142
1.60811e-06
-0.000147444
1.52216e-06
-0.000147478
1.40434e-06
-0.000147129
1.26622e-06
-0.000143303
1.1989e-06
-0.000139199
7.42424e-07
-0.000138101
3.65444e-07
-0.000137907
3.63911e-08
-0.000137901
-9.94229e-08
-0.000138586
-1.35878e-07
-0.000143108
1.1163e-07
-0.000147267
9.70806e-07
-0.000148444
1.69048e-06
-0.000148737
1.96149e-06
-0.00014879
1.98906e-06
-0.000148763
1.96138e-06
-0.000147356
1.78292e-06
-0.000141874
1.17492e-06
-0.000138092
-1.30767e-07
-0.00013697
-8.83754e-07
-0.00013679
-1.12202e-06
-0.000136846
-1.17356e-06
-0.000138974
-1.14657e-06
-0.000145562
-3.00393e-07
-0.000149212
1.29092e-06
-0.000149971
2.08739e-06
-0.000150146
2.21579e-06
-0.000150219
2.06831e-06
-0.000150029
1.78861e-06
-0.00014578
1.4049e-06
-0.000138776
1.53572e-09
-0.000135057
-1.81682e-06
-0.000133919
-2.81271e-06
-0.000133835
-3.29608e-06
-0.000134071
-3.64634e-06
-0.000138079
-3.78846e-06
-0.00014595
-2.35596e-06
-0.000149885
2.48949e-07
-0.000150882
1.67679e-06
-0.000151101
2.09843e-06
-0.000151064
2.12162e-06
-0.000148155
1.72091e-06
-0.000140561
4.7392e-07
-0.000134035
-2.85607e-06
-0.000130394
-5.94876e-06
-0.000128628
-7.955e-06
-0.000128403
-9.69152e-06
-0.000128903
-1.06016e-05
-0.000132827
-1.07497e-05
-0.00013742
-9.70669e-06
-0.000140079
-8.61876e-06
-0.00014171
-8.35145e-06
-0.000142064
-8.7327e-06
-0.000140459
-9.37669e-06
-0.000136774
-1.30097e-05
-0.000131139
-1.67599e-05
-0.00012362
-2.02255e-05
-0.00012069
-3.13589e-05
-0.000137248
-4.88606e-05
5.32067e-05
-0.000144956
7.99775e-07
-0.0001439
1.4258e-06
-0.000140594
2.83515e-06
-0.000137718
3.16976e-06
-0.000135631
2.45547e-06
-0.000134764
1.87605e-06
-0.000134523
1.10998e-06
-0.000134664
2.20348e-07
-0.000135247
-8.14436e-07
-0.00013685
-8.35248e-07
-0.000140366
-5.02232e-07
-0.000142333
1.02925e-06
-0.000142693
2.23995e-06
-0.000142525
3.03257e-06
-0.000142564
2.97464e-06
-0.000142484
2.30531e-06
-0.000141869
2.03926e-06
-0.000140016
1.27277e-06
-0.00013874
3.61903e-07
-0.000137866
-2.65999e-07
-0.000136866
-1.13704e-07
-0.000136092
3.46144e-07
-0.000135905
7.32856e-07
-0.000137156
1.02826e-06
-0.000140683
1.83169e-06
-0.000143023
2.50569e-06
-0.000144182
2.32946e-06
-0.000144631
1.84911e-06
-0.000144662
1.43073e-06
-0.000144577
1.05178e-06
-0.000143488
6.61435e-07
-0.000140039
1.54872e-07
-0.000137761
2.33959e-07
-0.000136926
2.52598e-07
-0.000136686
3.15699e-07
-0.000136705
4.02081e-07
-0.000138396
5.09448e-07
-0.000143329
9.5129e-07
-0.000145769
1.57995e-06
-0.00014625
1.83967e-06
-0.000146281
1.82015e-06
-0.000146242
1.77202e-06
-0.000145941
1.79158e-06
-0.000143181
1.72497e-06
-0.000138806
9.80441e-07
-0.000136927
3.4531e-07
-0.000136666
-7.41765e-08
-0.000136636
-3.44643e-07
-0.000136873
-4.47392e-07
-0.000139987
-2.93023e-07
-0.000144968
6.54078e-07
-0.000146914
1.75495e-06
-0.000147393
2.21044e-06
-0.000147598
2.29018e-06
-0.000147637
2.14835e-06
-0.000147422
1.94095e-06
-0.000143711
1.66284e-06
-0.000138544
3.53614e-07
-0.000136088
-9.01063e-07
-0.000135367
-1.27724e-06
-0.000135284
-1.35572e-06
-0.000135666
-1.41096e-06
-0.000140466
-1.18756e-06
-0.000146724
3.66119e-07
-0.000148885
1.96558e-06
-0.000149263
2.41542e-06
-0.000149329
2.29755e-06
-0.00014938
2.06553e-06
-0.000147902
1.72753e-06
-0.000141448
1.11461e-06
-0.000135778
-1.06353e-06
-0.00013307
-2.8526e-06
-0.000132372
-3.50547e-06
-0.000132378
-4.17984e-06
-0.00013291
-4.62983e-06
-0.00013815
-4.57665e-06
-0.000145465
-2.38873e-06
-0.000148977
3.54103e-07
-0.000149916
1.64397e-06
-0.000150072
2.02396e-06
-0.000149689
2.12029e-06
-0.000145827
1.55184e-06
-0.000138832
-6.02562e-07
-0.000133013
-4.09412e-06
-0.000129301
-7.37942e-06
-0.000127258
-9.62169e-06
-0.000127094
-1.06724e-05
-0.000127799
-1.17884e-05
-0.000131763
-1.19241e-05
-0.000135758
-1.11432e-05
-0.000138054
-1.07416e-05
-0.000139345
-1.11537e-05
-0.000139688
-1.22925e-05
-0.00013841
-1.46656e-05
-0.000135532
-1.75972e-05
-0.000129824
-2.0448e-05
-0.000123546
-2.80796e-05
-0.000135462
-4.97852e-05
5.88606e-05
-0.000141305
1.10793e-06
-0.000140139
2.58898e-06
-0.000138864
3.48344e-06
-0.00013796
3.07647e-06
-0.000136966
2.55943e-06
-0.000136341
1.48178e-06
-0.000136172
4.68112e-07
-0.000136133
-5.43668e-07
-0.000135773
-9.48132e-07
-0.000135036
-4.58252e-07
-0.000135221
1.81061e-07
-0.000138151
1.00767e-06
-0.000140643
2.46478e-06
-0.000142021
3.25733e-06
-0.000142632
2.96619e-06
-0.000142745
2.42314e-06
-0.000142645
1.89793e-06
-0.000141575
1.43258e-06
-0.000139264
5.03649e-07
-0.00013668
-1.95228e-07
-0.000134729
1.75456e-07
-0.000133975
5.27033e-07
-0.000133816
7.1922e-07
-0.000134558
8.61338e-07
-0.000139241
1.30302e-06
-0.000143237
2.21773e-06
-0.000144513
2.21394e-06
-0.000144722
1.96769e-06
-0.000144728
1.55739e-06
-0.000144666
1.08417e-06
-0.00014355
8.55412e-07
-0.000138804
9.37886e-07
-0.000135847
6.31802e-07
-0.000135283
3.7729e-07
-0.00013518
6.78614e-08
-0.000135285
-1.36424e-07
-0.000136851
-9.97147e-08
-0.000141933
4.72022e-07
-0.000145011
1.5236e-06
-0.000145536
2.15762e-06
-0.000145579
2.43561e-06
-0.000145432
2.5329e-06
-0.000145171
2.459e-06
-0.000143526
2.02492e-06
-0.000139365
1.36928e-06
-0.000136872
3.57918e-07
-0.000136024
-3.1879e-07
-0.000135737
-6.49887e-07
-0.000135707
-6.41866e-07
-0.000136817
-6.21159e-07
-0.000142021
4.20418e-08
-0.000145582
1.55034e-06
-0.000146564
2.37637e-06
-0.000146867
2.50329e-06
-0.000146999
2.34009e-06
-0.000147019
2.1111e-06
-0.00014576
1.80825e-06
-0.000139994
1.15958e-06
-0.000135892
-5.29768e-07
-0.000134441
-1.31927e-06
-0.0001341
-1.62252e-06
-0.000134106
-1.68464e-06
-0.000135576
-1.74647e-06
-0.000142332
-1.0438e-06
-0.000147342
1.17403e-06
-0.00014872
2.45377e-06
-0.000148976
2.66168e-06
-0.000149033
2.51749e-06
-0.000148796
2.27832e-06
-0.000145
2.00414e-06
-0.000137908
2.96065e-07
-0.000133785
-2.13967e-06
-0.000131885
-3.62074e-06
-0.000130974
-4.55026e-06
-0.000130946
-4.92153e-06
-0.000131595
-5.39863e-06
-0.000137451
-5.30423e-06
-0.000144632
-3.07992e-06
-0.000147824
-2.30445e-07
-0.00014872
1.19308e-06
-0.000148874
1.5001e-06
-0.00014848
1.52399e-06
-0.000144616
7.01112e-07
-0.00013742
-1.19316e-06
-0.000131297
-4.82704e-06
-0.00012769
-8.54291e-06
-0.000125998
-1.07455e-05
-0.000125935
-1.22423e-05
-0.000126935
-1.32044e-05
-0.000131242
-1.32392e-05
-0.00013513
-1.26552e-05
-0.000137189
-1.2647e-05
-0.000138184
-1.36182e-05
-0.000138266
-1.59716e-05
-0.00013726
-1.86832e-05
-0.00013413
-2.09857e-05
-0.000127778
-2.60541e-05
-0.000132783
-5.06134e-05
6.36905e-05
-0.000138102
1.83405e-06
-0.000138093
2.96655e-06
-0.00013832
3.31878e-06
-0.000138952
2.84848e-06
-0.000139172
1.96491e-06
-0.00013893
1.20091e-06
-0.000138349
3.09935e-07
-0.000137172
-2.52873e-07
-0.000134246
-2.55426e-07
-0.000132557
6.21689e-07
-0.000132326
9.70554e-07
-0.000133661
1.17258e-06
-0.000138922
1.83708e-06
-0.000142329
2.88491e-06
-0.000143384
2.66091e-06
-0.000143515
2.23282e-06
-0.000143453
1.85668e-06
-0.000142938
1.47439e-06
-0.000139317
1.242e-06
-0.000134631
6.11101e-07
-0.000132805
8.34695e-07
-0.000132457
7.87393e-07
-0.000132374
7.21345e-07
-0.000132869
6.17946e-07
-0.000137569
5.65359e-07
-0.000143415
1.35491e-06
-0.000144905
2.05994e-06
-0.000144973
1.88011e-06
-0.000144872
1.74429e-06
-0.00014463
1.64566e-06
-0.000142965
1.81728e-06
-0.000138654
1.5677e-06
-0.000135648
9.0175e-07
-0.000134784
3.48984e-07
-0.000134681
-5.3306e-08
-0.000134634
-4.12104e-07
-0.000135126
-4.24457e-07
-0.000139103
-1.52616e-07
-0.000143317
1.32835e-06
-0.00014447
2.54699e-06
-0.000144694
3.07443e-06
-0.000144843
3.06126e-06
-0.000144867
2.66459e-06
-0.00014456
2.40916e-06
-0.000141443
1.88789e-06
-0.000137692
5.81299e-07
-0.000135826
-5.03983e-07
-0.000134984
-8.73952e-07
-0.000134639
-8.50137e-07
-0.000134732
-7.1768e-07
-0.000137935
-5.11666e-07
-0.000143666
8.00103e-07
-0.000145997
2.32174e-06
-0.000146524
2.71323e-06
-0.000146657
2.58407e-06
-0.000146689
2.30127e-06
-0.000146541
2.02035e-06
-0.000142853
1.68486e-06
-0.000136904
2.41533e-07
-0.000134208
-1.28033e-06
-0.000133262
-1.86604e-06
-0.000132997
-1.92956e-06
-0.000133096
-1.92745e-06
-0.000136196
-1.95872e-06
-0.000143804
-6.24179e-07
-0.000147648
1.79389e-06
-0.000148452
2.78365e-06
-0.000148506
2.79679e-06
-0.000148595
2.61006e-06
-0.00014783
2.37288e-06
-0.00014269
1.90901e-06
-0.000136203
-1.63532e-07
-0.000132419
-2.80656e-06
-0.000130179
-4.36318e-06
-0.00012945
-4.9318e-06
-0.000129465
-5.87056e-06
-0.00013066
-6.72916e-06
-0.000137303
-6.68581e-06
-0.000144541
-3.86409e-06
-0.000147654
-8.15445e-07
-0.000148278
5.85965e-07
-0.000148338
1.11392e-06
-0.000147019
1.18751e-06
-0.000142837
4.03801e-07
-0.000136408
-2.16772e-06
-0.000130552
-6.06347e-06
-0.000126802
-9.92706e-06
-0.000124951
-1.23006e-05
-0.000124954
-1.35668e-05
-0.000126495
-1.46636e-05
-0.000131352
-1.45608e-05
-0.00013509
-1.39813e-05
-0.000136951
-1.43388e-05
-0.000137733
-1.63126e-05
-0.000137694
-1.93005e-05
-0.000136663
-2.14915e-05
-0.00013185
-2.48165e-05
-0.000130077
-5.20137e-05
6.6244e-05
-0.000135439
2.6147e-06
-0.000136841
2.605e-06
-0.000139794
2.60928e-06
-0.000141033
1.91357e-06
-0.000141149
1.46415e-06
-0.00014096
1.06842e-06
-0.000139835
6.4001e-07
-0.000135507
2.65167e-07
-0.000132029
1.19586e-06
-0.000131235
1.33842e-06
-0.000131057
1.35851e-06
-0.000131658
1.37887e-06
-0.000137837
1.50101e-06
-0.000143401
1.78661e-06
-0.000144257
1.99293e-06
-0.000144149
1.87053e-06
-0.000144016
1.83108e-06
-0.000143507
1.6377e-06
-0.000139473
1.99824e-06
-0.000133745
2.20726e-06
-0.000132295
1.4304e-06
-0.000132197
1.03057e-06
-0.000132157
7.30791e-07
-0.00013244
4.36474e-07
-0.000135883
-8.084e-09
-0.000142628
3.54695e-07
-0.000144786
1.55636e-06
-0.000144966
1.94785e-06
-0.000144815
2.20621e-06
-0.000144165
2.69315e-06
-0.000142851
2.66126e-06
-0.000139708
2.17001e-06
-0.000136474
1.26821e-06
-0.000135339
3.03552e-07
-0.000134801
-3.86406e-07
-0.000134298
-4.34084e-07
-0.000134155
-2.95107e-07
-0.000135138
-8.28371e-08
-0.000140097
7.61746e-07
-0.000143321
2.42166e-06
-0.000144437
3.2368e-06
-0.000144896
3.20817e-06
-0.000145068
2.86757e-06
-0.000145044
2.48365e-06
-0.000143932
2.1849e-06
-0.000139318
1.33407e-06
-0.000135891
-1.6312e-07
-0.000134322
-9.00075e-07
-0.000133685
-8.77444e-07
-0.000133567
-7.79594e-07
-0.000134346
-7.3572e-07
-0.000140184
-1.85104e-07
-0.000144976
1.61329e-06
-0.000146231
2.73427e-06
-0.000146443
2.74984e-06
-0.000146529
2.53206e-06
-0.000146538
2.1989e-06
-0.000145441
1.92331e-06
-0.00013952
1.37922e-06
-0.000134783
-4.3298e-07
-0.00013263
-1.77941e-06
-0.000131837
-1.94906e-06
-0.000131791
-2.20186e-06
-0.000132136
-2.40833e-06
-0.000137356
-2.41112e-06
-0.000144772
-4.27909e-07
-0.000147642
2.03262e-06
-0.000148392
2.89119e-06
-0.000148554
2.8143e-06
-0.000148574
2.62354e-06
-0.000146853
2.70969e-06
-0.000139934
2.27627e-06
-0.000133428
-7.46328e-07
-0.000130554
-3.45086e-06
-0.000129441
-4.94708e-06
-0.000128933
-6.30983e-06
-0.000128947
-7.15635e-06
-0.000129858
-7.63432e-06
-0.000136125
-7.37896e-06
-0.000142843
-4.55243e-06
-0.000145497
-1.35226e-06
-0.000146086
1.9101e-07
-0.000146176
5.69223e-07
-0.00014519
5.24656e-07
-0.000141865
-1.20774e-06