/*--------------------------------*- C++ -*----------------------------------*\
  =========                 |
  \\      /  F ield         | OpenFOAM: The Open Source CFD Toolbox
   \\    /   O peration     | Website:  https://openfoam.org
    \\  /    A nd           | Version:  12
     \\/     M anipulation  |
\*---------------------------------------------------------------------------*/
FoamFile
{
    format      ascii;
    class       volScalarField;
    location    "4.32";
    object      p;
}
// * * * * * * * * * * * * * * * * * * * * * * * * * * * * * * * * * * * * * //

dimensions      [1 -1 -2 0 0 0 0];

internalField   nonuniform List<scalar> 
22702
(
1
1
0.870676
1
1.05619
1
1.4724
1
1
0.690884
1.47062
1.4712
1
1.47046
0.884663
1
1
1
1.47113
1
1.47077
1
1.46813
0.643805
1.47441
0.662285
1
1.46968
0.67569
0.657811
1
1.46838
1
1
1
1.43504
1.47509
1.46829
1
1
0.709956
1
1.23181
1
1.46741
1
1
1
1
0.660683
1
0.648836
1
1.47018
1
1.46691
1
1
1
1
0.650995
1
1
0.660263
1
0.64237
1
1
1
0.686003
1
1.47318
1.28187
1
1.47541
1.50248
0.645411
1.46836
0.656598
1
1.47138
0.658758
1.47262
1.47285
1
1
1
1
0.933078
0.683013
1.47239
1
1
0.645943
1
1.47196
0.646218
1
1
1
1
1.22975
1.47154
0.664938
1
1
1.11502
1
0.656246
1
1.46751
1.47218
1
1
0.65034
0.654504
0.685278
1
1
1
1
1
0.911367
1
1.40251
1.04311
1.47205
1
1.47293
1.47142
1.47145
1.47101
1
0.692238
1
0.638397
1
1
1
1
1.47159
1
1
1
1
1.47057
1
1.02711
1
1
1
1
0.667139
1
1.01079
1
0.65824
1
1
1
1.47068
1
1.4703
0.650313
0.655227
1.47814
1.47226
1
1.06966
1.2611
1
1.47314
0.654276
1.43598
1
1
1
1
1.47069
1.39069
1
1.47282
0.641965
1.46936
1
0.673361
1
0.655722
0.659894
0.999784
1
1
1.47332
1
1
1.47187
1
1.47038
1.47271
0.666915
1
1
0.659736
1.47125
1
1
1
1.47066
1
0.667304
1
1
1.4716
1.47207
1.46849
1
1.00004
1
1
1
1.47136
1
0.638341
1.49871
1.47248
1.4723
1
1
1
0.645723
1.47179
1.21763
1
1.47298
0.653389
0.661573
1.47409
1.47272
1
1.46678
0.649264
1.41543
1
1
1
1
1.47043
1
1.2709
1.04392
1
1
1.4722
0.63799
0.766594
1
1.47045
0.672003
1.47018
1
1
1
1
1
1
1
0.655496
0.7555
0.660712
1.47154
1
1
1
1
1.41551
1
0.651942
1
0.637872
0.6588
1.47098
0.63986
1.47083
1
1
1
0.997693
0.670392
0.651312
0.999999
1
0.636124
1
1.47145
0.667816
1
1
1.47114
0.656347
1
1.46849
0.652024
1.47157
1
0.644095
0.997705
1
1
1
0.648616
1
1
1
1.00001
1.00801
1.28793
1
0.675941
1
1
1
1
1
1
1
1.47138
1
1.47426
1
1
1
0.65971
1
1.46896
0.641098
1
1.37648
1
1
1.47082
1
1
1
1.455
1
1
1.4682
1.46976
1
1.09946
1
1
0.639753
1
1
1
0.635155
1
1
1
1
0.669116
1
1
1
1
1
0.664672
1.00007
1.4706
1
0.999995
1.47341
1.4784
1
1
0.669484
0.821581
1.47116
1
1
1
1.4708
0.687311
1
1.4707
1
1
0.706422
0.692216
1
0.665138
0.656581
1
1
1
1
1
1
1
1.47194
1.11278
1.45073
0.665754
0.913538
1.47141
1
1.47662
1.47041
0.647349
0.777214
1
0.670709
1
1.48824
1
1
1
1
1.4711
1
1
1
1
1
1
1
1.16425
1.47015
1
1.47171
1
1
0.660057
1
1
1
1
1.47101
1.3555
1
1
0.663023
1.4731
1.47181
1
1.47151
1.47243
1.47199
1
0.837534
1
1.47085
0.987699
1.47189
1
0.659867
0.998863
1.47415
1
1
1
1
0.654728
1.4711
1.42367
1
1.47174
1.47064
1.47135
1
1.21531
1.47203
1
1
1.32529
1.06694
1.47149
0.937203
1.47197
1
1.47181
1.47145
1.47202
1.47309
1
1.44419
0.915132
0.882236
1
0.999999
1
1
1.47936
1
1
1
1
1
1.47213
1
1
0.996323
1.47179
1.40753
1
1.39173
1.00004
1
1
1.47088
1
0.996569
1.00382
1
1.47165
1
1.4729
1
1
1.3476
1
1.47301
1.00002
1
1.47124
1
1.47158
1
1
1
1.47074
1
1.47682
1.00001
1.47069
1.47582
1.472
1.47212
1
1.46765
1.46611
1
0.667769
1.44054
1.33395
1
1.4717
1
0.637517
0.649297
1
1
1
1
1
0.649188
1
1.47165
1.12336
1.47228
1
1
1
1
1
1.47127
1
1.47281
1.273
0.777367
1
1.00001
1.13121
1.1113
1
1
1.17198
1
0.655295
1.47132
1.47168
1
1
1
1.47116
1
1.00003
1.47074
1.47152
0.946599
1
1
0.649119
1.42639
1
1
1
1
1
1.47182
1.46751
1
1.47045
1.47588
1.47208
1
1
1
1
0.668729
1.46999
1
1
1.42783
1.46967
1
1.44338
1.47218
1
1
1
1
1
1.4717
1
1
1
1
1.47899
1
1.45994
0.667108
1
0.643862
1
1
1
0.996895
0.668773
0.998992
1
1
1
1.05843
1
1
0.868484
1
1
1
1
1
1
1
0.999997
0.927485
0.999999
1
0.997602
1
0.655012
1
1
1
1
1.35024
1
1
1
1
0.656365
1
1
1.44297
1.47044
1
1
1
0.880219
1
1
1
1
1
1
0.951061
1.01096
1.47109
1
1
1
1.47031
0.894868
1
1
1
1.46648
1.47676
1
1.00001
1
1
1
1
1
1
1
0.655922
1
1
1.46976
0.666945
1
1.46907
1
0.66683
1
1
0.649668
1
1
1
1
1
1
1
1.46211
1.46997
1
1
1
1
1.42895
1
1.14952
0.66672
1
1
1
1
1
1
1
1.03618
1
1
1.25303
1
1
1
1.38322
1
1
1
1
0.673296
1
1
0.652028
0.672932
1
1
1.4706
1
1.01336
1
1
1
1.3259
0.654691
1
0.642891
1
0.775147
1
1
1
1.47254
1
1
1.47099
1
1
1
1.47092
1
1
1.47132
1
1
0.647994
1
1.14532
1
1
1.47139
1.47183
1.31382
1.42051
1
0.662857
1
1
1.45048
1
0.671581
1
1
1
1.47161
1
1
1
1
1.2789
1
1.41767
1.46646
0.657937
1
1
0.657388
0.659787
1
1
1
1.33284
1.35291
1
1
1
1
1
1
1
1.19566
1.47315
0.999575
1
1.46549
0.68751
1
1
1
1.25584
1
1.09069
1
1.42833
1.47012
1
0.659959
1
1.46692
1
1
1.47009
1.44152
1
1.47352
1
0.639075
1
1
1
1.47766
1.4619
1.41373
1
1.47425
1.4713
1
1.47241
1
1.47019
1
0.672938
0.969429
0.659311
1
1
1
1
1
1.47262
1
1.47253
1
1
1
1.44811
1
0.643551
1.47117
1
0.676225
0.671253
0.65526
1
1.22988
1.04033
1.47377
1.47125
1
0.999999
1
1
1.47159
1
1
1.47166
1.47116
1
1.15937
0.999793
1
0.996806
1.47535
0.859105
1
0.828832
0.657779
0.656027
0.959932
1.46771
1.46522
1.08735
1.47124
1.47169
1
1
1.47494
1.47274
1.47068
1.47001
1
1.47268
0.663927
1.47201
1.47215
1.47116
1.46881
0.8588
0.898621
0.924564
1.47133
0.957695
1.47165
1
1
1.47453
1.47056
1
0.668233
1.46877
1.47126
1
1.4711
1.47095
1
1.47178
0.669955
1.47425
1.47342
1.47091
1.4728
1
1
1
1.47118
1.29721
0.674797
1.47097
0.656167
1.47116
1
1
1
1
1.46948
1.47129
1
1
1.47126
0.65757
1.47112
0.655865
1
1.46787
1
0.694555
1.47281
0.736704
1
1.47122
1.47451
1.47069
1
1
1.22006
1.47369
0.670004
1.47103
1
1.47053
0.886563
1.47124
0.653998
1
1.47395
0.673564
1.47453
0.661802
1
1.47166
1
1.47105
1
1.266
1.45315
1.36628
0.63719
1
1.46959
1
1.47237
1
1.47195
1
1
1.47322
0.981652
1.47393
0.682026
1.42413
1
1.32791
1
1.47178
1.47183
1.47298
1
1.42288
1.47188
1.43531
1.28117
1.46561
1
1.30962
1
1.47124
1
1.06684
1
1.43566
1
1.47059
1.44983
1.44873
1
1.46083
0.65006
1
0.666672
1
1
1
1.46819
1
1.47281
1
1
1
1.47238
1.45322
1.37729
1.47084
1.47373
0.640188
1.48185
1.4704
1
1.38879
1.47144
1.45166
1
1.47084
1.46693
1
1.47754
1.47407
1.47233
1.47264
1
1
1
1.47068
0.657871
1
1.47151
1
1
0.646376
1
1
1.4713
1.47123
1
1.47103
1.47254
1.47328
0.971315
1.4715
1
1.47151
1.47136
1.38016
1
1
1
1.46547
1.47212
1.47199
0.941817
1
1.4804
1.47186
1.46823
1
1.47331
1.47107
1.47096
1.48784
1
1.47076
1.47575
1.41151
1.47408
1.48665
1
1.47699
1.46559
1.47206
1.47073
1.47345
0.654516
1.46934
1.47224
1
1.47141
1.47157
1.4723
1.47035
1
1.47174
1.47077
1
1.47126
1.39627
1
1
1
1.47379
1.48223
1
1
1.25503
1
1.47108
1
1
1.47178
1.47327
1.47286
1.47127
1
1
1
1.32197
1
1.47272
1
1
1.47668
1.47355
1
1.47162
0.649494
1.47186
1.47205
0.719065
1
0.637108
1.40463
1.46582
1.46914
1.46916
0.660177
1.47132
1.47284
0.657233
0.653868
1
1.47016
1.47274
1
1
1.47159
1
1.46782
1
1.41059
1
1.21451
1.47237
1.47408
1.31175
1.44132
1.4685
1.46849
1.44715
1
0.668359
1.47126
1.47094
1.47161
1.00001
1
1
1.47443
1
1.47019
1.4706
0.740177
1
1.47137
0.999941
1
1.00003
1.00004
1.47235
1.47482
0.99849
1
1
1.47147
1.47363
1.47197
1.47554
1.47242
0.655223
1.40193
1
1.46778
1.47097
1.46984
1.47617
1
1.47092
1.45838
1.47247
1
1.47188
1.47191
0.860349
1.47093
1.47132
1
1.47195
0.842567
1.46955
0.855868
1.47118
1
1.47208
1.4745
1.47188
1.47159
1.47228
1.47771
1.47173
1.47014
1
0.926508
1.46985
1.47138
0.844383
1.47128
0.979788
1.30283
1.46909
1.47638
1.46897
1
1.4742
1.30786
1.46928
0.914177
1.47333
1.47971
1
0.868479
1
1.47654
1
1.32044
1
1.44351
0.867238
1
1.4752
1.47817
1
1.46915
1.47398
1.4709
1.47641
1.47914
1
1.47183
1
1
1
0.89195
1.47188
1.47111
1.46592
1.47147
1.474
1.47401
1.47411
1.47267
0.893885
1.03173
1
1
1.47892
1.47232
1.47137
1.47145
1.00003
1.23905
1
1.47582
1.41479
1
1
0.734591
1.47167
1
1
0.675138
1.47116
1
1.47253
1.47214
1.46886
1.45339
1.47074
1
0.642971
1.10631
1.4728
1.47115
1
1.47061
1.47116
1.23718
1.01012
1.09936
1
1.47027
1.47158
1
1
0.653117
1
1
1.47171
1.47196
1.47096
1.47208
1.47176
1.4714
1.47164
1.47532
1.47157
1
0.995955
1.47057
1.47024
0.996874
1.47127
1.47117
0.652048
0.669014
1.47394
1.4699
1
1
1.00176
1.47056
1.47247
1.47141
1
1.47137
1
0.861573
1.47307
1.47519
1
1.19838
1.47408
1
1.46999
1
1.47009
1.31754
1.47291
1
1.47281
1.47775
0.652519
1.47202
1
1.47401
1.47301
1
0.653149
1.47536
1.39008
0.997573
1.45902
1.47149
1
0.996757
1.46887
0.998093
1.47228
1
1
1.46735
1
1.47021
1.47093
0.996468
1.37315
1
1.47109
1
1
1
1
1.47152
1
1
1.4785
1
1.4717
1
1.29467
1.46983
1.47224
1
1
1.00103
1
1.4736
1.47176
1.47403
1.47127
1.47135
1.47204
1.47169
1
1.47036
1.47365
1
1.47213
1.46993
1
1.47024
0.923
1.05402
1.47155
1.4703
1.47099
1
1.47124
1
1.47172
1.4719
1
1.47214
1
1
1
1
1.47015
0.641414
0.997905
1
1.47194
1.47613
1
1.47118
1
1.00543
0.661373
1.47209
0.999588
1
1.47079
0.998411
1.47103
1
0.999779
1
1.46888
1.47583
1.47323
1.47176
0.671032
1.47286
1.47347
1.47392
1.11101
1
1
1.19898
1.47192
0.638994
0.663641
1
1.47048
1.47127
1.47342
1
1
1.47347
1.47418
0.999872
1
1.34162
0.650011
1
1.08349
1.47436
1.4704
0.998218
1.47175
1.47887
1
0.999093
1
1.46917
1.47348
1.19284
1
1.43623
1
1.00071
1.47295
0.706105
1.46832
1.47154
0.99696
0.999915
1.41781
1
0.999699
1
1.4693
1
1.00001
0.639099
1.4714
1.00001
1
1
1
1.47645
1.26561
1
1
0.677524
1.47091
1.26734
1
1
1
1.44907
1.45643
1.47482
1
1
1.4802
1
1.47104
1.46934
1
1
1.47328
1.47172
1.45652
1
1
1.47448
1.47583
1
1
1
1.47589
1
1
1
1.47124
1.47548
1.47406
1
1.47982
1.00003
0.712525
1.46877
1.47275
1
1.47215
1.44359
1.47048
1
1
1.47728
1
1.26102
1.47657
1
0.651906
1
1.47225
1
1
1.47517
1
1
1
1.14503
1.47052
0.694034
1.00001
1.47202
1
1
1.47129
1
1.47577
1
1
1.47122
1.47239
1
1.00005
1
1
1
1
1
1
1.46669
1.47158
1
1.47297
0.63995
1.47184
1
1.47125
1.4786
1.4713
1.48061
1.47159
1
1
1.47584
1
1.28777
1.47523
1.47113
1
1.47486
1.47725
1
1.41136
1
1.47127
1.29642
1.47603
0.997513
1.45737
1.4156
1.47268
1.47228
1.0364
1.47122
1.47549
1
1.47131
1
1.47084
1
1
1
1
0.996209
1.47161
1.47126
1.38132
1
1.47122
1
1
1
0.648795
1
1.4605
1
1.42613
1.46172
1
1
1
1.43254
1.47552
1
1
1.47029
0.673133
1.08166
1
1.47488
1.47139
1.42732
1.4605
1.47139
1
1.47013
1
1
1
1
1.47275
1.47238
1
1.46676
1.0535
1.47092
1.43765
1
1
1.43899
1
1
0.652702
1.34118
1
1
1.47994
1
1.47629
1.42664
1
1.42431
0.673199
1.47284
1.47081
1.47161
1
0.653789
1
1
1
1.47175
1.38173
1
1.4809
1.4727
1
1.47133
1
1
1
1
1.47167
0.999312
1
1.4726
1
1
1.47149
1.4711
1
1.48162
1.08387
1.00002
1
1.47125
1
1.47147
1
1.0148
1.47158
1
1.47143
1
1
1.14518
1.47142
1
1
1
1
1
0.996402
0.636401
0.650575
1.01913
1
1.02471
1
1.02371
1
1.47167
1
1.2807
1
1.47139
1
1
1
1.47139
1
1.36288
1.47267
1
1.24433
1.47276
1
1
1.46785
1.4709
1
1
1.0518
0.637882
1
1.47247
1
1
1
1
1.07729
1.46976
1
1
1
0.659646
1
1.47134
1.4705
1.47683
1
1
1
1
1.22597
1.47666
1
1
1
1.47228
1.47254
1.04734
1
1
1
1.47323
1.47229
1
0.64999
1.47273
1.47205
1.47159
1.47024
1.47506
1
1
1.47382
1.47129
1.47115
0.662502
1.04054
1.4737
1
1
1
1
1
1.47169
0.667087
1
1
1.47104
1.2031
1
1.47626
1
1
1
0.662411
1
1
1.11474
1.47057
1.47139
1
1.47226
1.47473
1
1.07888
1
1.46974
1
1.47111
0.6724
1
1
1
1
1.47147
1.00005
1
1
1
1.45703
1
1
1
1
1.47188
0.661881
1.36954
1.47518
1
1.47327
1
1
1
0.997193
1
1.47087
1
0.814821
1
1
1.00004
1.47346
0.669558
1
1.46749
1
1.47515
1.47065
0.667563
1
1
1.44875
1
1
0.642583
1
1.47559
1
1.44965
0.999342
1.47161
1
1
1
1
1.47543
1
1
1.47195
1
1
1
1
1
1
1
1
1.30318
1
1.14687
1.46821
1
1
1
0.64439
1
1
1
1
1.47528
1.47127
1.04899
1
1
1.47209
1
1
1.47146
1
1.00002
1
1
1
1.00001
1.47159
0.789191
1.47071
1.47245
0.996967
1
1
1
1.27438
1
1
1.47283
1.47136
1
1
1
1
0.67314
1
1
1
1.29538
1
1.47127
1.47508
1
1.47344
1
1
1
1.25284
1
1.47242
1
1.47215
1
1
0.996043
1.47209
1
1
1
1
1
1.46944
1.00002
1
0.650583
1.46959
0.620559
1
1.47553
1
0.995819
1
1.47269
1.48005
1
1.47522
0.876955
1.47189
1.4787
1.00003
1
1
0.640974
1
1
1
1.47213
1.27015
1.47075
1
1
1
1
0.996717
1.47372
1
0.669032
1
1
1
1
1
1
1
1.4863
1.47336
1.48162
1
1
0.996842
1
0.98047
1
1
1
0.650244
0.980779
1
0.650979
0.646419
1
1.47219
1.47128
1
1.47453
1.47188
0.651611
1.3154
1
1
1
0.670378
1.47288
1
0.663289
1
1.47947
1.08503
1
1
1
1
1.47019
1.47308
1
1
1.47121
1
1
1.47203
1.4717
1
1.43384
1.47075
1.47024
0.960396
1.46819
1.00961
0.668662
1.35978
1.47232
1
1
1
0.664761
1
0.636837
1.47808
0.962517
1.47311
0.952189
1
1.47089
1.20568
1
1
1.47007
1
1.19043
1.47199
1
1
1.47771
1.47584
0.644172
1.28501
0.9999
1
1.2831
1
1.47835
0.94593
1.47335
1.48091
1
1
1
1
1.46969
1
1
1.47277
0.999648
1.47162
1.36678
1.472
0.660062
1
1
1
1
1.47158
1.00004
1.47123
1
1.46965
1.4697
1.05738
1.4769
1.14369
1.47073
1
1.32106
0.675909
1.46975
1.47168
1.3589
1.07979
1.47187
1.47137
1.47178
1.47185
1
0.923883
1.06814
1
1.47162
1.22267
1.47143
1.00003
1
1
0.691456
1.47058
1.47042
1.38186
1
1.17279
1
1.46899
1.46965
1
1.47317
1.47006
1
1
1
1.4737
1
1.1818
1.47189
1.32263
1
1.47239
1
1
1
1
1
1
1
1
1
1
0.689647
1
1.44484
0.659912
1.27386
0.998588
1.47281
1
1.24724
1.00001
1.29794
1.40496
1
1.00222
1.47855
0.923975
1
1.47044
1.45356
0.942903
1
1.47308
1.47151
1.47437
1
1.47172
1.47569
1.47426
1
1.20287
1
1.00006
1.47157
1
1.47031
1.06708
1.47217
1
1
1.4703
1.46913
0.678604
1
1.47207
1.35074
1.47073
1
1
1.47053
1.47443
0.99823
1
1.43967
0.99676
1.47165
1.00004
1
1
1
1
1.20851
1
1.35153
1.47084
1.34869
1.4714
1
1.00191
1
1
1.47096
1
1.47527
1
1
1
1
0.999999
1
1.05904
1.24319
1
1
0.668907
1
1.46789
0.691801
1.47596
1
1.2204
0.999739
1.4724
1.2943
0.671976
1.25696
1.00003
1.47204
1.46906
1
1.27912
1.47027
1.47378
0.998413
1.47615
1.45727
0.648045
1
1
0.997496
1
1.47261
1
0.670649
1.46962
1
1
1.42122
1
1.47075
1
1.47161
1
0.68726
1
1
1.46884
1.48244
1.46873
1
1.47574
1.47122
1.47788
1
1
1.4679
0.999999
0.7388
1
1
1
1.47194
1
1.47115
1.29905
1.47513
1
1.47081
0.999392
1
1
1
1
1
1
0.725045
1
1
1.47127
1
1.47041
1.46796
1
0.673179
0.655808
1
1.47332
1.07986
0.672025
0.631773
1
1.47358
1
1.46759
0.663623
1.00179
1
1
0.999501
1
1
1
0.999913
1.19038
1.47125
1
1
1.47314
1.27404
1
1.4279
1.47352
1.4714
1.19019
1.47911
1
1.47132
1
1.45822
1
1.47269
1.46918
0.996724
1.47171
1.46985
1
1
1
1
1
0.911655
1.47178
1.00004
1.00003
0.695984
0.999987
0.64364
0.650498
1
1.47229
1.47052
1.47152
1
1.47333
1
0.659156
1
1
1.47445
0.83312
1.46924
1
1.4713
1
0.982397
1.47177
1
1
1
1.47046
1
1.47137
0.643076
1
1
1.27205
1
1
1.25597
1
1
1.47235
1
1
1
1
1
1.47345
1.47155
1
1.4702
1.47402
0.655659
1.20817
1.47528
1
1
1.42278
0.999051
1
1
1.47156
1.47142
1.30784
1
1.4718
0.673843
1.43884
0.999593
1
1.4719
1.00003
1.47531
1.38288
1.35652
1
1
1.47152
0.719673
0.67441
1
1.4707
1
1.47116
1
1.27633
1
1
1.47053
1.29476
0.662958
1
0.9983
1
1
1.02539
1.1901
1.47148
1
1.47462
1
1
1
1
1
1
1.06738
0.665013
1
1
1.03463
1
1
1
1
1
1.47249
1
1
1.47374
1.47043
1.33224
1
1
1
0.839012
1.47706
1.32491
1
1
1
1
1.47085
1
1
1
1.46965
1
1
1.33368
1.49249
1.0431
0.757587
1.4718
1.3333
1.47194
1
1.23312
1
1
1
0.659754
1.00284
0.720012
1
0.666401
0.642211
1
0.654131
1
1
1
1.20611
1
1.4713
1.47265
1.00139
1.21691
1.38642
0.674713
0.765577
0.881269
1
1.47098
1.47746
1.47116
1.47159
1.40329
0.877893
1
1.40475
1
1.46634
1
1
0.99642
1.01082
1
1
1
1.46994
1
0.671102
1
1.47242
0.643792
1
1
1.47154
1
1.47293
0.99902
1
1
1.47182
1.41736
1
1.48342
1
1
1.01483
1
1.19609
1
1
0.652837
1
1
1.47492
0.999998
1.47285
1
1.00003
0.647884
1
1
0.615182
1.00089
1
1.4742
0.642086
1.47588
0.663225
1.47169
1
1
1
1
1
1
1
1
1
1
1
1.45258
1
1.47229
1.47312
0.66548
1
1
1
1
1
1
1.45837
1
1
0.655924
1
1
1.47486
1
1
1.17595
1.39235
0.672553
0.650097
0.695798
0.74097
1
0.99665
0.676947
1.00025
1.41393
0.996911
1
1
1.4724
1
1
1
0.772288
1.00001
1.17012
1
1
1.18856
1.47131
1
0.66193
1
1
1
0.996747
1
1.47005
1.47153
1
0.662398
1
1.25325
0.6758
1
0.890673
1
0.995897
0.629354
1
1
1
0.996217
0.671502
1
0.667841
0.998418
1.24587
1.41814
0.655974
0.669432
1
0.990674
1
0.998675
1
1.47249
1.47328
1
1.01685
1.47189
1.47068
1
1
1.47138
1
1
1.00005
1
1.47623
1
1
1.01775
1
0.998595
0.707232
1
1
1
1
1
1.47478
1.03058
1.00005
1
1
1
1
1
1.00003
1
0.664454
1.10549
0.998576
1.46629
1.47071
1
1.01566
1.47191
1.41997
1
1
0.652116
1.47328
1
1.47268
1
1.46929
1.30941
0.655816
1
0.676045
1.44577
0.999677
1
0.666332
0.653983
1
1
1.39283
1
0.999998
0.655947
1
1
1
1.14285
1
0.66332
1.47073
1
1
1
1
1.47183
1
1
1.46995
1.42196
1
1
1
1.47039
0.651207
1
1.47214
1.47205
1
1.37211
0.999999
1.00003
1
1
1.42622
1.01802
1
0.64586
1.24648
1
1
0.997355
1
1
1.47489
1
1
1.00003
1
1.4715
1
1
1
1
1
1
1.00001
1.19922
1
1.47167
1
1
1.47277
1
1
1
1.47075
1.46951
1.0453
1
0.997675
1
1
1
1
1.47304
1
1
1.47075
0.659001
1
1
1
1
1
1
1.37747
1
1
1.47624
1.47048
1
1
1
1.47124
1.46882
1
0.999725
1.47192
1
1
1
1.00002
0.657556
1.03196
0.996255
0.995941
1
1
0.654922
1.47105
1
0.659368
1
1.47072
1.45168
0.670834
0.99941
1.47134
1.47257
1.47205
1
1
0.921596
1.42126
1.38906
0.658486
1
1
1
1.47347
1.47158
0.650766
0.997342
1
1.46982
0.644555
1
1.46912
0.661649
0.972313
1.00667
1
1.46976
1
1
1
1
1
1
1.00011
1.43717
1
1
1.47475
1
1
1
1.47119
1
0.666709
1
1
1
1.16131
1
1
1
1
1
0.78448
1
0.635238
1
1.47189
1.00005
0.866913
0.875091
1.00002
1.00421
1.24704
1
1
0.639954
1.47102
1.47204
1.47109
1
0.661768
0.64463
1
1.4705
1
1
1
1
1
1.00003
1
0.656922
1.30032
1
1
0.662978
0.987779
1.00001
1
1
1
0.629489
1
0.679015
1
1
1.47944
1
1
0.666239
1
1.47165
1
0.67278
1
0.661601
1
1.00773
1.47402
1.4906
1
1
1.47345
1
1
1.1061
0.996949
1
0.998194
1
1.47321
1
0.6744
1.00002
1.4693
0.998769
1
1
0.798886
1
0.999022
0.66335
1.47389
1.17054
1
1.00001
0.903
1
1
1
0.794894
1
1
1
1.47192
1
0.654388
0.999999
1
1
1
0.654814
1.47118
1.44178
0.663727
1
1.4673
1
1
1.47195
1.47078
1.39649
0.658773
0.997861
0.99929
1
1.47112
1
1
1
1
1.47226
1.00004
1
1
1.47861
1
1
1.47144
0.655628
1
1
1
0.661444
1
0.999999
0.999999
0.99868
1
1
1
1
1.35027
1
1.47155
1.47021
1.47022
1.47164
1.47068
1.47108
1
1.47325
1
1.47143
1.47303
1
0.998946
0.660836
1.40073
0.999894
1
1
1
1
0.996994
1
1.07306
1
1
1
0.842531
1.47148
1.47104
1.47
1.40461
0.999875
1
1.02221
1.47116
0.997878
1.05857
0.997101
0.657454
1
1.00002
1
1
1
1
1
1.47092
0.67064
1.47101
1.47151
0.995006
0.649156
1
1
1
1.47194
0.6454
1.41468
0.655479
1.47118
1.46747
0.663235
1.46744
1.02511
1
1.47585
0.813354
1
0.998721
0.647387
1
0.64923
1
1.4713
1.47056
0.737616
1
1.47061
0.656531
1
0.652892
1
1.47199
1
1
1.46385
1
0.843067
1
0.999685
0.650183
1.4693
0.999486
1
0.660432
1
1
1
1
1.25142
1
1.47348
1
1
1.47969
1
1
1.47369
1
0.647776
1
0.671615
1.00001
1
1
1
1
1.45105
1.27646
1.47119
1
1.47214
1.43713
0.638478
0.656749
1
1
1.47373
1
0.648276
1
0.985597
1
1
1.47131
1
1.47559
0.654124
1.4815
1
0.660174
1
1
1.47633
1.47
1
1.00004
1
1.47256
1
1
0.651808
0.999412
0.643466
1
1
1
1.47402
1.47006
1.47076
1
1
0.657477
1
1.47715
1
1
1
1.45817
1.47237
1.47214
0.648853
1.47358
1.47108
0.678961
1.47049
1.00004
0.674955
1.01073
1
1
1.47251
0.647008
1.29115
0.648621
1.47091
0.997444
0.663417
1.47475
1
1
1
1
1.47116
1.47244
0.658106
1
1.00002
0.66143
1.00003
1
0.668831
0.674855
1.32275
1.46768
0.998466
1.47169
1
1.47482
0.821866
0.669137
1.47158
1.48347
1
1.47188
1
1
1.47094
1
1.36266
1.46989
1
1
1
1
1.47177
1.46565
1.47158
1
1
1.47191
1.47359
1.47076
1
1.47145
1
1
1
1
1
0.658577
0.844455
0.664291
1
1
1.47285
1
1
1.46852
0.662558
1
1.47137
1.46557
1.45063
0.650468
1
0.656611
1
1.00003
1.47211
1.21033
1.47175
1.42832
1
0.659504
1
1.46941
1.33417
0.668142
1
1
1
0.805689
1
1
1.47999
1
0.667957
1.47107
1
1
1
1
1
1.37366
1.10058
1
1.47005
1
1.47218
1
0.997567
1
1.46987
1.47546
1.4729
1.47482
0.999606
1.47144
1
1.47069
1.47089
1.39672
1
1
0.648597
1.46838
1
1
1.46613
1.47159
1.47671
1
1.47253
1
1
1.00003
1.4752
1.47405
1.13469
1.09753
1.47172
1.47126
0.685987
1
1
1
1
1.00001
1.16698
1
1
1.38769
0.638071
0.999974
1
1.47164
0.999903
0.999802
1.07159
1.43654
1.46773
0.912048
1
0.644234
1
0.997716
1.47157
1.47427
1.47005
0.99905
1
1
0.645435
1
1
1.4716
1.04852
1
1
1
1
1
1
1
0.99994
1.47038
1.00002
1
1
1
1
1.2955
1
1.22207
1
1
1.47107
1.47727
0.661909
0.998768
1
0.999999
1
0.655844
1.4727
1.47194
1
1
1
1
1
1
1
1
1.47088
1.4751
0.652854
1.05111
0.659834
1
0.64729
1
1.47018
1.11965
1
1
0.728604
1
1.44937
0.804687
0.996778
0.658654
1
1
1.46999
1.00004
0.997216
0.644373
1.47378
1.4728
1
1
1
1
1.43913
1
1
1.47218
0.999015
1.47388
1.00008
1
1
0.648267
1
1
1.47164
0.647534
0.774549
0.662004
1.47054
0.999244
1
1.47546
0.660592
0.6675
1.00873
1
1
1.47199
1.00004
1.19765
1
1
1.47339
0.664261
1
1
1.00013
1.47472
1.00014
1.47746
1
1.00003
1
1
0.734841
1
0.783779
1.00002
1
1.46949
0.651032
1
0.780037
0.786072
1
1
1.47005
1
1
1
1.47072
1.47071
1.00005
1.45306
1.47171
0.784579
1.47145
1.44303
1
1
1.47458
0.999999
1
1
1
1
1.47938
1.47166
1
1
1
1.47014
1.00019
1
0.661356
0.719304
1
1.00003
1.17572
1
1
0.894689
0.671439
1
1
1
1.47776
1.43083
1.47217
1
1
1
1
0.651241
1
1.45811
1
1.4733
0.653197
1.47795
1
1
1
0.660026
1
1.47204
1.00003
1
0.667832
1.17375
1
0.999655
1.48218
0.646691
0.66584
1
1.47447
0.648251
0.662923
1
0.653651
0.999992
1
1
1
0.65169
1
1
1
1
1.46951
1
1.356
0.656829
1
1
1
0.678356
1.47157
1
1
0.996642
1.45893
1
1.47138
1.47173
1
1
0.73863
0.66066
1
1
0.671162
1.14492
1.2218
1
1
1.47544
0.997372
1
0.997577
1.47252
1
1
1
1
1
1
1.46994
1
1.15986
1.15026
0.705394
1.41681
1
1.47101
1.47137
1
1
1
0.915224
0.626802
1
1.22277
0.999673
1.42731
1
1
1
0.999999
1
1.00718
1.21045
1.47302
1.47131
1
1.47216
1
0.698559
1
0.997702
0.999739
1
0.645956
1
0.647333
1.00002
1.47526
1.4712
0.657028
1.47171
0.658349
0.99608
1.34153
0.654883
1.31712
1
1
0.998396
1
1
1
1.00006
1
0.644949
1
1
1
1
0.999588
1.46858
0.809608
1
1
1
1.03877
1
1
1
1.27544
0.756199
1
1
1
1.04952
1.46922
1
0.651854
1
1.47411
0.888362
0.66763
1
0.653666
1
1
1.44417
0.998251
1.45669
1
1.00886
1
1
1.47355
1
1
1
1
1.09367
1
1.47102
1.47275
1.46775
0.632173
1.47264
0.99707
1.38131
1
1
0.647493
1
1
0.663177
1.47423
1
1
0.99992
1
1
1
0.638837
0.64657
1
1.47476
1
1.21057
1.4706
0.660892
1.39727
1
1
0.675495
1
1
1.47175
1.47237
1.17232
1
1
1.00132
1.47343
0.639437
0.650551
1.47185
1.47145
1.32677
1.1879
1
0.896785
1
1
1
1.44865
1.4773
1.47315
1
1
1.47289
0.665844
1.42764
0.634063
1
0.642026
1
0.659213
1.4713
0.640242
1
0.969474
0.695274
1
1
1
0.843263
1.44
1.47212
1.47169
1.47516
1
1
1.46996
1
1
1.47126
1
0.657141
1
0.648989
1
1.46866
1
1
1.02038
1.35791
1
0.998918
0.667799
1.47246
1.00001
0.651497
1.08728
1
1
1.3665
1.47119
1.47171
1
1.47069
1.11621
1
1.02647
1.47133
1
1
1
1
1.47082
1
0.651496
1.4708
0.665409
0.651459
0.828832
1.47037
1.1532
1.47277
1
1.47568
0.997455
1.00003
1.47149
1.47383
1
1.47483
1
1.47138
1
1.47375
1
1.00004
0.999983
1.47315
0.638372
0.650285
0.997831
0.999999
1
1
0.644742
1
1.30711
1
0.646847
1
1.18395
1.47169
1.48054
1
1
1.00003
0.999435
1
1.47155
1.47163
1
1.19062
1.4748
0.843654
1.47082
1.00055
0.651611
1.10013
0.658101
1
1
1.07858
1.47173
1
1
1.03953
0.998537
1
0.652073
1
0.7869
1
1.46923
1
1
0.648948
1.11039
1.0646
0.998508
1.47221
1.4714
0.766489
0.998094
0.652659
0.659401
0.664278
1
1
1
0.999063
0.712554
0.66875
1
1.47119
0.99975
1.47179
1.47248
1.47126
1.47229
1
0.655321
1.47253
0.654725
1
1.47102
1.47775
0.996719
0.816929
1.471
1.34467
1
0.661246
1
1
1.47525
1
1.02636
1.47035
1
0.658713
0.641729
1
1
0.648387
0.657113
1.47159
1.00005
1
0.640483
0.650896
1.47521
1.44514
1.43828
1.47126
1.12061
0.979948
1.18932
1.46853
1.37064
1
1.235
1
0.643264
0.855436
1
0.6476
1.47003
1.02169
1.47251
1
1.47165
1.47081
1
1.47367
1.47162
0.663732
1.47541
1
1.48158
1
0.74392
0.644784
1.47156
1
1
1
0.646976
1.47341
1.47327
1
0.645984
1
1
0.648506
1.00004
0.638773
1.47248
1
0.819453
0.658896
1
1
1.27772
1
1
1
1.07939
0.645912
1
1.00001
1
1.46498
0.661679
1
1.47164
0.653897
0.652187
1
1
1.47512
1
1.47591
1.00001
1.47123
0.660934
1
1
0.661752
0.807525
0.650864
1
1
1
1
1.47568
0.64518
1
0.655438
1
1.46934
1
1
0.922833
1
1
0.817189
0.999681
1.00005
1
0.664289
0.647451
1
1
1
1
0.803289
1.46987
1.47327
1
0.653983
0.663396
0.907594
0.642831
1
0.822999
1
0.651492
0.980696
1
1
0.664475
1
1.47226
1.45244
0.647268
1
1
1
1.48013
1
1.04978
0.841354
1.14715
0.640951
1.18041
0.653803
1
1
0.712932
0.913078
1
1.03974
1
1
0.661182
1
0.93823
1.04356
0.660327
1
1.39025
0.753346
0.880787
1
1
1
0.669841
1
0.64917
0.673519
1
0.845041
0.644105
1.06468
0.734465
0.64335
1.47179
1
1.47093
1.24898
0.739872
1.47155
0.662332
0.998989
1.47317
0.999999
1
1.47203
1
0.72418
1
1.06909
1
1
1.47183
1
0.774018
0.82092
1.47226
0.938335
1
0.757607
1.4716
1.47267
0.911336
1
1.47126
1.11468
0.843954
1
1.01596
1
0.651453
1.20001
0.779958
0.745328
1
1
0.648304
1.47129
0.964339
0.66035
0.644285
0.87111
1
1.01572
1.47421
1.47076
1
1
0.999999
0.646885
1.21319
1
1.47578
1.43232
0.657014
1
1.09576
0.876581
1.2873
1.4009
1
1.04305
1
1.00006
0.641986
0.842249
1
1
0.816517
0.642352
1.03851
1
0.999999
0.643301
1.20572
1
1.46618
1
1.0413
1.24822
1
1.46464
1
1
1.47448
1
0.65653
1.47098
0.711038
1.12102
1
0.64458
0.999912
1
1.00003
1
0.786284
1.0274
0.667563
1.3438
1.47295
0.636893
1
1
1
1
1
0.968913
0.660953
1.05106
0.667716
0.644706
1.08251
1
0.999799
1.11689
1
1
0.675122
0.990357
1
1
1.13084
1
1.47206
1
1.47064
1.08769
1.01729
0.644255
1
1
0.656395
1
1
1
1
1.47372
1.04494
0.998026
1
0.662052
1.05348
0.999999
1
1.30305
1
0.667017
1.46933
1
1.00001
1
1.47081
0.66011
0.891815
0.653614
1.35322
1.46894
1
1
1.47126
1
0.658938
1
1
1
1
1
0.764595
1
1.47344
1
1
1.16298
1.47066
0.664853
0.872808
1
1.47147
1
1
1
1
1
1.47169
1.47139
0.653338
1.47131
0.646075
1
1
1.47152
1
1.47292
1.0071
1.02798
1.06297
1.47235
1.07481
1.31328
0.63523
1
0.64569
0.985644
1
1.47165
1
1
0.648186
1.47323
1
1.47224
1
1
1
1
1
1.00001
0.661616
1.47288
0.84911
1.47162
1
0.664623
0.673628
0.713499
1.47275
1.47097
0.963541
1
0.797256
1
1.18323
1
1.47134
0.655156
0.657039
0.85335
1
1.47341
1
1.08214
0.687722
1
1.47047
1.4084
0.998864
1
1.4697
0.649553
1.47
1.47279
1.47771
0.668984
1.08614
1
1
0.639812
1
0.807712
0.821411
1
1.00002
1.47229
1
1.47089
1.08961
1
1.03914
1.47826
1
0.664225
1
0.753747
1
1
1.3857
1
0.805127
1
0.663729
1.03469
0.94997
0.654605
1.47208
1.36162
1.47063
0.664344
0.707739
0.996015
0.999999
1
0.675382
1.44298
0.661509
0.999971
1
1.47116
1.47256
0.901421
1
0.651678
0.708348
1.30603
0.962053
0.657849
0.999999
0.660476
1.11724
0.662396
1
1.00006
0.821789
1.47103
1.47379
0.842951
0.999587
1
1
0.713073
1
0.654408
1
0.661217
0.65448
1
1
1.00003
0.666694
1.47133
1
1
1.00007
1.00004
0.656873
1.47035
1.47157
0.999999
0.669137
1.46794
1
1.0935
1
1
1.46667
0.651697
1
1
0.646575
0.753661
0.665008
0.650479
1
0.692784
0.997225
1.08788
0.662727
1
1
1.1314
1
1.41484
1
1
1.3164
0.686956
1
0.667639
1.1221
1.47274
1
1
0.646578
0.659115
0.637132
0.731784
0.658863
1.35261
0.999394
1
1
1
1
1.47213
0.652471
1
0.928929
0.999665
0.998643
0.999935
0.756192
1.12221
1
1.47143
1.47119
1
1
1.45989
1.00004
0.999999
1.47101
0.650712
1.46799
0.999999
0.649901
1.47182
1.00005
1
0.821862
1
0.637256
1
1.47266
1
1
1.47528
1
1
1.46546
1
1
1
1.46787
1
0.752373
0.721959
1
0.631193
1.47155
1
1
0.962508
1
1.47517
1.26992
1.37538
1
1
0.669948
1
0.653406
1.47106
1.46814
1.47194
1
1.47339
0.649815
1
0.660827
1.37445
1.43606
1.4727
1.47065
0.751979
0.657405
1
1.30748
1.47315
1.4692
1.47143
0.756511
1.16774
1
1.35568
0.753766
1
1.00002
1
1.00002
0.898673
1
1.48151
1
1
1
1
1
1
1.00006
1.46857
1
1.47575
1.34671
0.655629
1.47265
1.03069
1.23543
1
1.4713
1
0.653456
1
1
1
1
1.39862
1
0.644532
1.47203
0.638235
1.46899
1.37125
1.2432
1
1.08743
1.21774
0.995586
0.663669
0.778216
1.00002
0.999999
0.915182
1
0.653175
1.47295
0.641241
0.920799
0.855399
1
1
1
1.01626
1
1
0.647652
0.996833
1.47337
1
1.47131
1
0.65649
1
1
1.47133
1.47279
0.649005
1
1.47121
1
0.807606
0.660593
1.46913
1.42279
1
1.08006
1.46942
0.998748
1
1.18964
1.41316
1.46867
0.995806
1
0.999998
1.39634
1
1
1
1.47129
0.998484
1
1
1.47146
1
1
0.654994
1
1
1
1.46962
1
1
0.852585
1.14733
1.4271
0.782314
1
1.47195
1
1.17301
1
1.47618
0.997287
1.47163
1
0.653582
1
1.30921
1
1
1.44037
1.00002
1.47364
1
1.47019
0.672023
0.662942
1.47283
1
1.4114
1
1.46863
1
1
1.00005
1.47076
1.47603
1.11298
1.47186
0.995317
0.655017
1.47173
0.868931
1
1.46758
1
1.47074
1
1.47403
1.46828
0.996275
0.645101
1
1.47161
1
1.03014
1
1
0.997895
0.742337
1.42207
1
1.4471
1
0.87419
0.640446
1.47328
1.47446
0.695386
1
1.47261
1.47369
1.47531
0.677688
1.47326
0.679932
1.47036
1.47432
1
1
1.47242
1
1
1
1
0.670307
1
1
1.46977
1.47173
1
1.47119
1
1.47119
1.46793
1
1.39096
1
0.632342
1.47122
1.35241
1.1204
0.637853
1.47144
1
1
0.65547
1
1
1.47159
1
1
0.773774
1
1.47324
1.00008
1.47326
0.645644
1.47356
1
1.47034
1.45295
0.897285
1
1.47662
0.769075
1.47756
1.32796
1.47224
1.47119
0.996674
1.47273
1.47186
1.4713
1.47063
1.00043
1
0.663007
1
1.46968
0.816227
1.42804
1
1.46259
1
1
1
1
1
1.46888
0.645006
0.660109
1.47361
1.47128
1
1
1
1
1
1.46767
1.4153
1.47162
1.01959
1
1
1
1.00003
1.47033
1.47102
1
1.47083
1.47124
0.649623
1.32303
1
1.47317
1.47105
1.46761
0.997856
1.47251
1.47178
1
1.41916
1
1
1
1
1
1
1.47167
1.47329
1.43822
1.47136
0.646797
0.69263
1.47115
1.4713
1
0.646317
0.93188
1
1.22131
0.654692
1
0.999457
0.998262
0.65761
1
1.47218
1
1
1
1.47175
0.95028
1
1.4714
1.4719
1
1.46954
1
1
1.47146
1
0.652755
1
1.46818
1
1
0.659494
1
1.47246
1
0.633131
0.652602
1
1.45647
1
0.63655
0.894907
1
1.47194
1
1
1
1.47379
1
0.65224
1.06477
1.47018
1.47295
1.47135
1.03998
1.47362
1.47159
1
1.00002
1
1
1.00001
1.47177
1
0.999305
1.47394
1
0.640167
1
1.47142
1.21262
1.05838
1.2134
1.05986
1.48032
0.71351
1.47167
1
0.672785
0.997146
1.47129
0.931103
1.47139
1.47283
1.44564
1
1.47132
1.4717
1.47167
1
1.00004
1
1
1.46946
1.33363
1
1
0.66373
0.996724
1
1.47228
1
1.4714
1.47353
1.46716
0.901269
1.47219
1.4711
1.00957
1.22778
1.46933
1.47191
1
1.43389
0.839166
1.44956
0.982246
1.47096
1
1.47124
1.47065
1
0.645622
0.927707
0.694238
1
1.08639
0.997054
1.46998
1
1
0.996259
1
1.23357
1.43894
1
1
1.47314
1
1
1.33155
1.47186
1.45195
1.47441
1.47226
1
1.47092
0.743931
1.47155
1
0.988974
0.648269
1
1
0.734227
1
1.14738
1
1.47331
1
1.46209
1.29008
0.655006
1
1
1
1
1
1.47045
1.01124
1
1.47241
1
1.47155
1.4714
0.999999
1