/*--------------------------------*- C++ -*----------------------------------*\
  =========                 |
  \\      /  F ield         | OpenFOAM: The Open Source CFD Toolbox
   \\    /   O peration     | Website:  https://openfoam.org
    \\  /    A nd           | Version:  12
     \\/     M anipulation  |
\*---------------------------------------------------------------------------*/
FoamFile
{
    format      ascii;
    class       surfaceScalarField;
    location    "4.32";
    object      phi;
}
// * * * * * * * * * * * * * * * * * * * * * * * * * * * * * * * * * * * * * //

dimensions      [1 0 -1 0 0 0 0];

internalField   nonuniform List<scalar> 
33852
(
0.000251329
2.24281e-05
-0.000273757
-0.000246121
1.32441e-05
0.000232877
-0.000175622
-7.22704e-05
0.000248775
0.000304053
-0.000163969
-0.000140085
0.000292116
-4.2629e-05
-0.000248959
2.72441e-05
-0.000260681
0.000233437
0.000315207
1.47478e-05
-0.000330015
0.000304277
-9.59564e-05
-0.000208321
0.000286413
-3.50841e-05
0.000216794
2.05483e-06
-0.000210687
0.000289503
-0.000366284
7.69146e-05
0.000360192
-4.5707e-05
-4.39602e-05
0.000263285
-0.000219325
-4.38989e-05
0.000318047
-0.000274133
6.06768e-05
-0.000236477
0.000252057
1.2236e-05
-0.000264293
0.000264853
-1.2796e-05
-0.000278433
3.23121e-05
0.000340623
-5.10922e-05
0.000158593
0.000112308
-0.000270901
-2.43042e-05
0.000303074
-0.000278642
0.000271377
-0.000276165
4.78802e-06
-1.76768e-05
0.000274245
-0.000256896
-0.000219102
1.39017e-05
0.000203045
-0.000154308
-0.000183715
0.000338287
-0.000147232
-7.01118e-05
0.000213401
3.72401e-05
0.000267037
-6.09129e-05
-0.000262225
0.000325535
-0.000215045
1.97048e-06
0.000215799
-0.000205311
-1.94607e-05
0.000142045
0.000137388
-0.000279433
0.00034055
1.92119e-05
0.000142618
0.000128347
-0.000270965
-0.000101136
0.000259729
-0.000250489
-3.78001e-06
0.000254269
0.000330534
-5.94636e-05
-0.000271208
-0.000357967
0.000204427
-0.000226942
0.000209018
0.000231645
3.32081e-05
-5.65602e-06
0.000237301
-7.82951e-06
0.000225834
-0.000232625
0.000259869
0.000316086
-5.73785e-05
-0.000259525
-0.000309093
5.51042e-05
0.000253989
0.000240477
-0.000299744
0.000273589
-0.000306321
3.27321e-05
-0.000180237
-5.49362e-05
0.000235173
0.000272133
-0.000272133
0.000148429
-0.000297473
0.000149045
-0.000211987
0.00021489
-7.33224e-06
-0.000268241
0.000237301
3.09401e-05
-0.000197317
0.000242902
-4.60362e-05
-9.16164e-05
-0.000217477
-0.000114412
-0.000251765
-0.000280169
0.000266113
1.40561e-05
0.000328912
1.18431e-05
-0.000250433
7.01963e-05
0.000117908
0.000145909
-0.000263817
1.34681e-05
-0.000267457
0.000253989
-0.000134569
0.000282997
-0.000151214
-5.11328e-05
0.000199792
-0.000274681
0.000245113
2.95681e-05
0.000237553
-0.000268437
3.08841e-05
-0.000186177
-2.36306e-05
0.000151665
0.000115565
-0.00026723
-0.000185278
-2.75424e-05
0.000212742
0.000263985
2.24281e-05
0.000275941
-2.35201e-06
0.000265329
-0.000250741
-1.45881e-05
0.000237649
-6.66527e-05
-0.000169649
-1.82001e-06
0.000239373
0.000367743
-0.00031314
-5.39218e-05
-2.80509e-05
0.000303921
-0.000275545
-0.000101584
0.000219493
0.000343466
2.43005e-05
-0.000374296
0.000354105
1.85726e-05
-0.000209288
2.17209e-05
0.000308213
-0.000320774
1.22248e-05
-0.00020753
0.000270578
-6.44157e-05
-4.45202e-06
1.71341e-05
-0.000319127
0.000302144
0.00023294
-0.000198628
-3.51942e-05
0.000269849
-0.000339804
7.00606e-05
0.000333146
-6.34148e-05
-0.000268941
0.000236573
3.23681e-05
-0.000129388
-0.000132609
0.000261997
-1.86761e-05
-0.000249565
-1.022e-05
-0.000258721
2.31901e-05
0.000211343
-0.000234928
3.26824e-05
-0.000229233
0.000202584
-2.51015e-05
0.000326518
-0.000303308
-0.000279329
0.000273701
5.62802e-06
0.000156129
-0.000296857
0.000140729
-5.96603e-05
-0.00014599
0.000211497
0.000143277
0.0001218
-0.000265077
-0.000250048
0.00022578
-0.00020747
0.000155003
-0.000168813
0.000327181
-0.000158369
0.000185389
7.16523e-05
-0.000257041
0.000255193
2.07481e-05
-0.000192277
0.000148317
4.99696e-05
0.00026592
0.000307003
-0.000289865
9.2121e-05
-0.000239991
0.000135241
0.000117096
-0.000281065
-1.1181e-06
0.000244907
-0.000244392
0.000166489
0.000122836
-0.000289325
0.000143244
8.93832e-05
-3.92002e-06
0.000259113
0.000302738
5.44532e-06
-0.000324035
0.000315279
8.92311e-06
-3.99002e-05
0.000236293
-0.000196393
4.08802e-06
-0.000284257
-2.54116e-05
0.000165352
-0.000139877
-0.000158834
0.000133317
0.000224683
-0.000184054
-0.000269921
0.000264965
4.95602e-06
2.64041e-05
0.000174721
-0.000201125
2.87841e-05
-0.000257265
0.000228481
0.000276137
-0.000262669
0.000115108
0.000212073
0.000214392
-0.000191647
-0.000175813
0.000202217
1.3833e-05
0.000282812
-0.000296558
0.000270405
2.18526e-05
0.000271823
-0.000284025
1.23549e-05
3.86402e-06
0.000267513
-1.81435e-05
0.000290046
0.000330724
9.9862e-06
0.000213877
-0.000257679
0.000316268
-0.000316245
-6.63603e-06
-0.000272693
2.88477e-05
0.000206319
0.000187993
3.98722e-05
-0.000227865
-5.37143e-05
0.000211373
-0.000158957
0.000153609
-0.000270285
0.000116676
0.000279441
-0.000329701
5.02602e-05
-6.38122e-05
0.000249201
-0.000166909
0.000315897
-0.000148989
-0.00031401
-9.98304e-06
-0.000214929
0.000175029
2.78601e-05
-0.000278349
0.000276221
-1.88441e-05
-0.000248613
1.69905e-05
-0.000302689
0.000284021
0.000344989
-0.000158593
-0.000186397
-1.67401e-05
-0.000240683
0.000257972
-0.000266617
-3.30401e-06
0.000224001
2.45841e-05
-0.000248585
0.000284509
-0.000128381
0.000140197
0.000138853
-0.000279049
-0.000201967
-1.08947e-05
0.000258169
-0.000115551
0.000225763
-0.000242555
-6.38122e-05
0.000251805
-0.000209031
0.000249481
-5.60002e-07
-0.000248921
0.000255109
-0.000237441
-0.000325111
0.000298546
-3.08841e-05
0.000203169
-0.000172285
0.000291588
1.2568e-06
-0.000292857
7.79296e-05
0.000133055
-0.000209189
4.49827e-05
-0.000199383
-0.000290259
-4.72881e-06
0.000295497
-1.5068e-06
-0.000287417
0.000146973
-0.000273925
0.000126952
-0.00026124
0.000219153
-0.000293178
0.000265632
0.000279441
-0.000312831
-1.24837e-05
0.00032613
0.000110197
0.000160056
-2.13882e-05
0.000351914
0.000140141
0.000139833
-0.000279973
0.000245029
-0.000250349
5.32002e-06
-0.000210953
0.000180069
0.000279133
-5.43202e-06
0.000350704
-3.26653e-05
-0.000303363
0.000306085
-2.25222e-06
0.000270985
-0.000270985
-0.000365175
0.000226197
0.000138938
-0.000199847
1.91857e-05
1.69196e-05
0.000275157
-0.000278461
3.30401e-06
-5.16676e-06
0.000177089
-0.000169274
-0.000197345
0.000254801
-5.74562e-05
-0.000204887
4.33878e-06
-0.00024216
0.00015805
8.01507e-05
-0.000180264
0.000261402
-8.11371e-05
0.000256285
-0.000287113
3.08281e-05
-0.000249229
5.18842e-05
-2.3555e-05
0.000276347
-0.000252571
-0.000253547
1.35801e-06
0.000252189
0.000231281
-7.28003e-06
-0.000294483
7.54634e-06
0.000286548
-0.000266085
0.000266085
-0.000284079
-5.50291e-05
-0.00017098
-0.00019419
-0.000172383
0.000217475
-4.49006e-05
-1.232e-05
-0.000239177
0.000251497
3.10801e-06
0.000210113
-0.000213221
-0.000185965
-2.2789e-05
0.000209775
7.58283e-06
0.000294475
-0.000302138
-0.000236153
-1.34401e-05
0.000249593
1.50361e-05
-0.000251189
-0.000241025
0.000256061
-0.000301225
0.000308756
0.000256117
7.16803e-06
-0.00017276
-3.22094e-05
0.000205342
-0.000145237
-0.000134765
-0.000244329
0.000240549
0.000298669
-4.42335e-07
-0.000298214
-0.000298924
5.92475e-07
0.000298295
1.9147e-05
0.000181217
0.000163773
7.70043e-05
-0.000257268
-0.000159242
0.000310908
0.000250721
-0.000108677
-0.000235145
-1.83681e-05
0.000253513
-0.000204544
-0.000126832
0.000331427
-6.10402e-06
-0.000229125
0.000235229
-2.12946e-05
-0.000178445
-0.000288514
-8.63914e-05
6.33911e-06
-0.000300893
-0.000212618
0.000328225
-0.00011544
0.000281597
0.000288205
-5.16322e-05
0.000271993
-1.57081e-05
-0.000187163
-1.40908e-05
0.000201227
0.000297411
3.10014e-07
-0.000297847
-0.000267804
-3.36224e-05
-0.000218821
0.000247605
-2.52535e-05
0.000310664
-0.00028517
0.000180468
7.43518e-06
-0.000185209
-3.42339e-05
0.00021676
-0.000301366
0.000276254
0.000292136
5.22214e-06
-0.000297644
0.000157445
0.00011886
-0.000276305
0.000287661
5.8515e-06
-0.000293008
-0.000246136
0.00011778
0.000128228
-0.000281699
0.000295495
0.000302513
-0.000156857
-0.000145657
0.000207005
-0.000203897
-0.000232009
-0.000121156
-0.000155009
-3.98551e-06
-0.000293898
0.000297856
-1.0136e-05
0.000276249
0.00029292
-2.14344e-05
-0.000270793
-0.000263065
2.88452e-05
0.00023401
0.000271433
-0.000267569
0.000249621
2.95121e-05
0.00031499
-9.79125e-06
-0.000305331
4.88147e-05
0.000152582
-0.000199747
-9.84144e-05
0.000195271
-9.58252e-05
0.000252617
-2.91201e-05
-0.000223497
3.50588e-07
0.000291554
-0.00018229
-3.19259e-05
0.00021287
-1.94213e-06
0.000290897
-9.33244e-05
0.000246933
-0.000255417
-5.26402e-06
0.000121184
0.000181329
1.34121e-05
0.000241557
-0.000254969
0.000236097
1.34961e-05
-0.000249593
0.000249509
-0.000242929
0.000256425
6.26858e-05
-0.000202061
0.000137785
-0.000212054
0.000113921
-0.000204651
0.000297263
1.45661e-06
-0.000298688
0.000253849
2.22881e-05
0.000268493
-0.000216441
-5.20522e-05
0.000225518
-0.000246849
2.13305e-05
0.000257909
1.40841e-05
5.8895e-05
0.000292719
0.000267186
-3.89594e-05
-0.000228226
0.00017266
1.274e-05
0.000240297
-0.000253037
0.000194354
-0.000114602
-7.90387e-05
-0.000206911
2.1782e-05
-1.36981e-06
-0.000297696
0.000299039
0.000213981
-0.000163401
-5.07675e-05
0.000344533
-4.12725e-05
0.000275969
-0.000135829
2.31561e-05
0.000238337
-0.000261493
-0.000231141
0.000254297
-2.66751e-05
-0.000229744
0.000256413
0.000161644
-0.00016339
-7.80025e-05
-0.000169157
-0.000261723
4.14346e-05
0.000220288
-3.17521e-05
-0.00022997
7.40537e-06
0.000261717
-3.25193e-05
-0.000229198
1.67557e-05
0.000127463
-0.000198319
0.000308785
-0.000171397
0.000262319
-3.57923e-05
-0.000226526
-0.000319047
0.000179905
-0.000102047
-0.000228453
-6.90203e-05
-4.07238e-07
-0.000296996
0.00029891
-2.7692e-05
0.000178931
-0.000153611
0.000308008
6.83e-06
0.000250097
-0.000248249
-1.84801e-06
-0.000175598
6.13511e-05
0.000260264
-3.07306e-05
-0.000229538
0.000197345
-0.000250769
5.34242e-05
0.000254206
-0.000231206
-2.29991e-05
-0.000252337
0.000240017
0.000142845
0.000100314
-0.000101864
-0.000170269
0.000132496
-0.000261885
-0.000290249
0.000242201
4.80482e-05
0.000216809
3.12477e-05
-0.000248056
-0.000237694
-9.62372e-06
0.000246957
0.000327443
-2.30128e-05
0.000263996
-3.42721e-05
-0.000229724
0.000142991
-0.0002333
9.1518e-05
3.63259e-05
-0.000265637
0.000229311
-0.000253905
0.000121296
0.000249817
-5.24722e-05
0.000294673
-0.000154253
-0.000140421
0.000122248
-0.000289157
1.53441e-05
0.000237665
-0.000253009
-0.000262031
3.54705e-05
0.00022656
-2.75046e-06
-3.77917e-05
-0.000224239
0.000249237
-0.000272633
-0.000264649
3.44737e-05
0.000230175
0.000193257
0.000101416
-0.000149941
0.000290137
-0.000171071
-3.78615e-05
0.000209906
-1.81721e-05
0.000263201
-0.000292895
0.000308875
0.000114566
0.000101367
0.000261325
-0.000261325
0.000306949
-2.13437e-05
-0.000291664
5.32002e-07
0.000248949
0.000254857
1.65761e-05
0.000309001
-0.000276099
-3.32443e-05
-2.26336e-05
0.000266577
-0.000243943
3.00077e-05
-0.000260519
0.000230511
-0.000252139
0.000229506
0.000325207
3.11501e-05
-0.000260598
0.000229447
0.000276809
-3.16961e-05
-5.56086e-06
-0.000296013
0.000301697
0.000270328
3.86948e-05
0.000230245
-0.000266617
3.63721e-05
0.000200565
-0.000203331
-0.000258301
0.000238533
1.97681e-05
0.000169762
-0.000257245
8.74835e-05
-0.000200193
0.000163241
-0.000249145
8.59043e-05
-0.000266169
0.000224813
4.13562e-05
0.000253073
-2.78797e-05
-0.000225194
0.000172351
4.16812e-05
-0.000234837
-2.29601e-05
0.000257797
-0.000236377
-2.28761e-05
0.000259253
-1.94265e-05
0.000255969
-0.000236542
-0.000259345
0.000239919
-3.32986e-05
0.00017656
-0.000235929
-2.24001e-05
0.000258329
-0.00025484
0.000229192
2.56481e-05
2.94001e-06
0.000211289
-0.000214229
-0.000267031
3.79849e-05
0.000229046
0.000270677
4.48002e-06
4.19238e-05
0.000163747
-0.000206283
-3.31193e-05
0.00024993
-2.09961e-05
0.000218597
9.73004e-05
0.000248198
-0.000216951
0.00027856
-0.000279083
0.000278973
-0.000283185
-1.84997e-05
0.000258601
-0.000240101
-0.000261644
0.000243145
3.09878e-05
-0.000202838
-3.01086e-05
-0.000206754
0.000235266
0.000314841
-0.000287515
-2.74397e-05
0.000261297
-3.11081e-05
-0.000230189
3.28739e-05
-0.000262362
0.000229488
-0.000229853
0.000259645
-2.97921e-05
0.00032557
-1.76359e-05
0.000154703
-0.000220632
0.000256929
-0.000109956
-0.000286155
0.000287519
0.000241977
-6.41202e-06
-0.000235565
0.000228537
-0.000178366
-3.72207e-05
0.000218762
2.83598e-05
-0.000203976
-0.000239989
0.000260317
-2.03281e-05
-0.000105111
0.000192915
-8.67221e-05
3.08395e-05
-0.000200914
0.000240169
-0.000263424
2.32552e-05
-0.000115584
0.000258861
-0.000243993
0.000265721
-2.17281e-05
-0.000238953
0.000232541
0.000258626
-0.000245105
-1.35213e-05
0.000264349
-2.46681e-05
-0.000246317
-0.000273414
-1.06124e-05
0.00029871
-5.35504e-05
-8.22511e-06
0.00029352
-0.000283577
-0.000167677
0.000208627
0.000231085
1.79985e-05
-0.000249138
0.000328709
-0.000328931
0.000260955
-0.000245018
-1.59377e-05
-0.000302996
-7.66085e-07
0.000304992
9.72072e-06
3.78169e-05
0.00017044
-0.000204382
0.000211893
-3.47329e-05
-0.000177633
0.000278054
-0.000255789
-2.22648e-05
-0.000213354
3.15305e-05
3.15421e-05
-0.000261891
0.000230348
0.000285815
-0.000291834
2.44721e-05
-0.000259617
-0.000257965
1.87881e-05
0.000266057
-1.64361e-05
0.000151173
-0.000267625
0.000116452
0.000298787
-4.44068e-06
0.000238617
-7.53763e-05
2.12521e-05
0.000177045
-0.000198297
-0.000183877
0.000205129
-0.000236275
0.000257219
-2.09441e-05
0.000261462
-3.31689e-05
-0.000228293
-0.000197009
-5.21362e-05
0.000251581
-1.48401e-06
9.03491e-06
-0.000264052
0.000255014
-0.000342419
0.000235657
0.000106128
0.000266371
-0.000236811
-2.95597e-05
0.000306876
-0.000314686
7.84779e-06
-2.57041e-05
-0.000229097
0.000254801
0.000261493
-7.64403e-06
9.77506e-06
-0.00020913
0.000262411
-3.19033e-05
-0.000230508
-6.90483e-05
-0.000260653
-0.000194685
0.000248025
-5.33402e-05
-0.000266533
0.000249985
1.65481e-05
-0.000318026
1.66564e-05
-1.71108e-05
0.000296396
-0.000279155
-0.000276221
1.65481e-05
0.000249537
-0.000168444
6.51465e-05
0.000274131
1.473e-05
-0.000288876
-0.000316139
0.000307973
8.21422e-06
3.46641e-05
-0.000263649
0.000228985
-1.7444e-05
0.000281394
-0.000315316
1.64026e-05
-0.000176541
-7.42283e-05
-0.000234297
0.000203906
-2.16721e-05
-0.000216469
0.000238141
-0.000314602
0.000295786
1.8875e-05
-0.000132848
0.000273872
-0.000141176
-8.40344e-06
3.31521e-05
-0.000263453
0.000230301
-0.000202066
2.48859e-05
0.000180197
0.000221516
0.00028092
-0.000281289
2.19482e-07
-0.000236993
-2.20921e-05
0.000224813
-0.000202721
0.000139273
0.000143753
-0.000278517
0.000199701
-5.66368e-05
0.000308076
-1.07179e-05
0.000208879
-0.000268692
2.92853e-05
0.00022306
-0.000252345
-0.000321809
0.000138526
0.000296392
2.91794e-05
1.94439e-05
-0.000224355
-2.77845e-05
-0.000137492
-0.000132577
-0.000326353
0.000113767
0.000242873
2.56201e-05
0.000218765
-0.000224869
1.11118e-05
-0.000287962
0.00027653
-0.000243058
0.000270356
-2.72836e-05
0.00028146
-0.000281822
0.000287661
-7.74853e-05
-8.84744e-06
0.000290418
-1.87881e-05
0.000247101
-0.000228313
0.00028156
-0.000290343
-5.6076e-06
-0.000283945
0.000289552
0.000282177
-0.000270172
0.000284904
0.000226314
2.67597e-05
-0.000304997
0.000314582
-9.18776e-06
0.000251147
-2.15688e-05
0.000224172
2.42475e-05
-0.000268913
0.000246057
-2.05381e-05
-0.000259401
3.02849e-05
0.000229116
0.000178305
7.64963e-05
1.03212e-05
0.000281913
-0.00029238
-0.000238141
-2.88401e-05
0.000266981
2.51441e-05
-0.000263285
0.000284117
-0.000162317
-0.000232177
0.000261129
-2.89521e-05
-0.000234697
0.000260709
-2.60121e-05
1.38884e-06
0.000278609
2.45001e-05
-0.000259197
2.38001e-05
-0.000255977
0.00027426
-0.000242936
-3.13542e-05
0.000317966
-9.98618e-06
-0.000306163
-5.89881e-07
-0.000255753
1.1816e-05
0.000243937
-1.44399e-05
-0.000261185
0.000228066
-0.000245337
0.000270145
-2.48081e-05
-0.000263229
1.49801e-05
-2.35174e-05
0.00028632
-0.000262327
2.13641e-05
-0.000266701
-0.000241528
-2.1416e-05
3.26935e-05
-9.0432e-05
0.000260194
0.000280857
-0.000286477
5.05122e-05
0.000237693
0.000282428
-0.000282106
-0.000243181
-2.39401e-05
0.000267121
-0.000260894
7.34723e-06
-0.000295628
1.94525e-05
0.000276405
-0.000268717
2.55361e-05
-8.43187e-06
0.000290899
-0.000268326
0.000243549
2.47773e-05
-0.000232513
0.000210841
0.000280067
-0.000288167
-6.16002e-07
0.000260289
-0.000259673
-0.000301985
-1.61328e-05
-0.000264573
2.35481e-05
-0.00024417
-2.41555e-05
-3.43281e-05
-0.000297902
0.000293745
0.000286674
-0.000158327
0.000296493
-0.000291021
2.30152e-05
4.8432e-06
0.000262542
-0.000256039
-7.28103e-06
0.000307686
-2.02379e-05
-0.000287451
5.95701e-05
-0.000246765
-2.19521e-05
-0.000355423
0.00024114
0.000284374
-0.000279559
2.33801e-05
-0.00019201
-1.57077e-05
-0.000306328
2.56198e-05
0.000280507
-0.00019667
0.000310164
-0.000114132
0.000259841
-0.000238533
-2.13081e-05
-0.000291754
2.94001e-05
0.000222097
-0.000251497
-0.000157824
0.000135076
-0.000164202
0.000251441
-0.000238029
-1.34121e-05
-0.000263873
3.40201e-05
-2.23161e-05
-0.000269837
0.000251469
0.000230427
3.12901e-05
-4.62374e-05
0.000203862
0.000232619
-0.000260499
-1.74085e-05
-3.03424e-06
0.000246811
-0.000244645
-0.000293347
-0.000237049
0.000265189
-2.81401e-05
0.000230096
3.22225e-05
-0.000268521
2.55921e-05
-0.000239905
-2.86161e-05
0.000228954
-0.000260706
-0.000282476
4.73202e-05
-0.000242005
0.000292932
-0.000283181
-0.000287952
1.2896e-05
0.000275152
-4.64197e-06
0.000216335
0.000228551
-0.00026107
0.000296885
-0.0001309
-0.000165985
0.000240865
-0.000261862
0.000269876
-0.000226213
-1.76681e-05
-0.000165501
0.000309687
-0.000143145
2.49649e-05
0.000222662
-0.000247627
-0.00019262
0.000192799
-0.000283742
0.000282416
7.00654e-06
-0.000290714
-0.000302485
0.000146693
0.000155793
0.000259995
-0.000239359
-2.06361e-05
-0.000215741
0.000193649
0.000261361
3.57094e-07
0.000257293
0.000232526
2.16796e-05
-0.000294343
-6.22242e-05
1.02546e-05
0.000233083
-0.000250566
1.76971e-05
-0.000230917
-2.37161e-05
0.000254633
-0.000242295
0.000263191
-2.08965e-05
8.12636e-05
0.00013142
2.01858e-05
-0.000305724
0.000285587
0.000256565
-1.80041e-05
-0.000238561
0.000243881
-0.000254017
1.0136e-05
-0.000226745
0.000207957
0.000223131
-0.000258923
-0.000244693
4.76842e-05
1.59378e-05
-0.000137428
-0.000218036
1.57921e-05
0.000245701
0.000280525
0.000294826
0.000305924
1.70033e-06
0.000249817
-0.000220417
2.51749e-05
0.000225009
-0.000250184
-0.000243178
0.000268865
-2.56873e-05
2.28201e-05
-0.000262725
-0.000116653
0.000295765
9.15553e-06
2.08181e-05
0.000261675
-0.000235103
-2.65721e-05
1.30977e-05
-0.000303857
0.00029074
0.000321558
-3.09687e-05
-0.000290586
0.000249733
1.63241e-05
0.000306253
-0.000293209
-0.000230398
-0.000112541
9.63204e-06
0.000250657
-4.9129e-05
-0.00020239
0.000251519
2.20333e-05
0.000246832
-0.000241686
-2.29629e-05
0.000260737
-2.24001e-05
0.000287849
-0.000268023
2.63369e-05
2.68241e-05
-0.000257965
0.000210617
-0.000207677
2.58161e-05
-0.000262865
0.000281748
0.000121744
-0.000256173
0.000134429
1.70882e-05
3.88035e-05
0.000165501
-0.000201549
-0.000239485
-2.85377e-05
3.91416e-05
0.00015794
-0.000198041
-0.000246691
0.000271066
-2.43747e-05
0.000209866
-0.000248826
1.98857e-05
1.73589e-05
-0.000177007
-3.10949e-05
0.000226681
-0.000257413
-2.88401e-05
0.000244245
-0.000215405
-2.16161e-05
0.000242985
-0.000221369
0.000201657
-0.000250786
-0.000273437
-0.000232905
-2.55081e-05
0.000258413
0.000241234
2.98318e-05
-0.000210939
-2.38606e-05
0.000234588
-2.18821e-05
-0.000224967
-0.000239345
6.28042e-05
0.000259004
-0.000229718
4.75106e-05
-0.000249901
-3.43393e-05
0.000257694
-0.000223354
0.000205675
-0.000240014
0.000261689
-1.1956e-05
-6.06764e-05
-0.000229572
-0.000224439
-1.7579e-05
0.000242898
0.000247109
5.3175e-05
0.000212448
-0.000265623
-0.000261094
0.000177353
-0.000231757
5.44042e-05
6.41037e-05
0.000135668
0.000259457
-0.000240915
-2.47224e-05
-0.000265385
0.000227165
3.82201e-05
-2.87813e-05
-0.000222158
0.00025094
-0.000284554
0.000264161
0.000234501
3.61761e-05
2.18821e-05
0.000234087
-0.000307217
0.000151089
0.000156129
0.000172095
-5.19755e-05
0.000254045
-0.000115192
2.56901e-05
0.000217446
-0.000243136
-0.000286291
0.000286764
9.22474e-06
0.000257377
-0.000245953
0.000208937
3.70161e-05
0.000254832
0.000244298
-1.97746e-05
-0.000246815
-2.02161e-05
-0.000263019
2.0724e-05
-0.000269215
2.24001e-05
2.79601e-05
0.000220024
-0.000247984
0.000242481
-0.000274597
1.32721e-05
0.000246781
-1.36409e-05
1.26275e-05
-0.000251224
-0.000328591
0.00012401
-0.000233135
-2.62109e-05
-0.000252113
0.000252113
0.000259782
-0.000144217
-1.82116e-05
-0.000278137
0.00029729
0.000275099
0.000258749
-0.000135913
0.000224113
2.39205e-05
0.00023468
7.78283e-05
-0.000340183
3.8071e-05
0.000258962
1.76364e-05
-0.000248843
-3.00917e-05
0.000207453
-3.01001e-05
0.000259701
2.95429e-05
0.000218353
-0.000247896
-3.05014e-05
-4.09782e-05
-0.000217818
0.000258797
-0.000233423
-2.14173e-05
3.69453e-05
-0.000196512
0.000161776
-3.30877e-05
0.000221671
-0.000255943
-0.000281661
-8.57878e-06
0.000290267
-0.000197189
0.000165278
0.000166349
8.16763e-05
1.28247e-05
-0.000294573
0.000235075
2.59446e-05
-0.000261019
-0.000200596
-1.02778e-06
0.000232743
-0.000264287
3.15449e-05
-8.42803e-06
-0.000217029
0.000225457
-0.000159195
0.000198283
-0.000249985
-3.46025e-05
0.000256274
0.000218076
-0.000252679
-0.000246289
0.000272245
-2.59561e-05
0.000253547
2.78321e-05
-0.000232062
-2.95821e-05
-0.000298192
0.000316481
-1.82348e-05
2.34009e-05
0.000212462
-0.000250254
-0.000267233
2.09441e-05
-2.12801e-05
-0.000245953
-3.61481e-05
0.00024861
-0.000290188
-1.35964e-05
0.00022082
-0.000256968
0.000248548
-0.000251699
1.45567e-06
2.80002e-06
0.000181413
-0.000184213
0.000255294
0.000234529
2.67681e-05
-2.62361e-05
0.000245001
-0.000218765
3.36001e-05
0.000216609
-0.000250209
0.000244861
2.73841e-05
0.000306545
-0.000143949
-0.000162597
1.58021e-05
0.00024019
-0.000255505
0.000271013
-0.000113568
0.000225569
-0.000256677
-0.000241316
0.000104383
-0.000265469
7.16803e-06
-0.000241635
-2.75801e-05
-0.000241361
-2.48081e-05
0.000309853
-2.76131e-05
-7.67483e-05
0.000243097
-1.1452e-05
-0.000215601
0.000224281
-8.68003e-06
0.000255193
-7.68883e-05
3.48086e-05
-0.000200833
0.000166298
-0.000265245
-1.40001e-07
-4.14962e-05
3.99517e-05
0.000159638
-0.000198789
0.000202146
-0.000167077
0.000257041
-7.05603e-06
0.000251151
-0.000218277
-1.81784e-05
-2.1128e-05
0.000277371
-9.52607e-05
-0.000183938
-1.42801e-05
-0.000191913
0.000206193
0.000258665
-1.53553e-05
-0.00024331
1.98101e-05
0.000238855
-0.000279882
-8.0104e-06
3.70012e-05
-0.000195186
0.000158536
1.36921e-05
0.000247997
-0.000159171
0.000197016
-1.95189e-05
0.000248711
3.29786e-05
0.00018773
-0.000218794
-4.17202e-06
-2.49389e-05
0.000265108
-0.000231955
-3.14693e-05
0.000296971
-0.000282013
-1.51589e-05
1.63717e-05
-0.000237659
0.000221288
-0.00010514
0.000226885
1.93019e-05
-0.000305099
0.000285808
2.52001e-05
-2.79441e-05
2.69165e-05
0.000308811
-0.000289505
0.000238891
1.97345e-05
2.15601e-06
0.000231617
-0.000233773
-0.000310306
2.56482e-05
0.00028467
-0.000162177
-0.000144145
0.000209178
-0.000250156
-0.000161173
0.000241924
1.90317e-05
0.00025739
-4.13534e-05
0.000250531
0.000214498
-0.000255851
0.000318611
-0.000318939
-1.08933e-05
0.000287844
-0.000276991
-0.000302913
1.95601e-05
0.000283275
4.20842e-05
-0.000286413
-3.94932e-05
0.000252483
2.62921e-05
-2.21907e-05
0.000307542
-0.000285361
2.43321e-05
4.02835e-05
0.000163149
-0.00020421
0.000249294
-0.000219751
2.83277e-05
-0.000261633
4.36802e-06
-2.00018e-05
0.000306613
-0.000286607
-0.000250987
-0.000266673
3.07441e-05
0.000252141
-0.000236741
-1.54001e-05
1.2264e-05
0.000239877
-0.000275417
-1.31321e-05
0.000255697
-5.84064e-06
0.000311357
-1.2278e-05
0.000297129
-0.000284766
-4.85301e-05
0.000247437
-0.000235621
0.000257601
-1.99361e-05
0.000132193
8.50468e-05
-0.000217735
0.000223045
3.03493e-05
0.000226759
-0.000258662
3.71393e-05
0.000271282
-0.000288879
1.67815e-05
0.000251273
-0.000239093
-1.31321e-05
0.000252225
-2.91201e-05
-0.000257265
2.56481e-05
0.000231617
-0.000228005
-2.92601e-05
0.000259765
-0.000233571
-2.61941e-05
0.000258721
-0.000267457
2.51804e-06
0.00028992
1.334e-06
-0.000291259
0.00024734
-0.000231549
-1.85921e-05
0.000308626
-0.000300638
-8.01584e-06
0.000254331
-0.000104522
-0.000266897
2.56761e-05
0.000241221
-3.48881e-05
-0.000232009
-0.000266393
2.51161e-05
0.000241277
-1.23738e-05
-0.000267642
0.000280543
-3.45241e-05
-0.000231869
-0.0002619
1.86914e-05
-0.000266281
2.43881e-05
0.000241893
-0.000284089
-2.15844e-05
-0.00030641
2.767e-05
0.000278725
-3.34041e-05
-0.000232877
-0.000169705
-0.000258133
2.94001e-05
0.000228733
0.000308589
-0.000308015
-0.000195805
0.000209049
-3.29281e-05
-0.000225205
0.000197185
-0.000278804
8.1547e-05
0.000283908
2.23016e-05
-0.000301953
1.76961e-05
0.000285407
-0.000280502
-4.87993e-06
-0.000257125
0.000231617
2.55081e-05
0.00017362
2.79983e-05
-0.000189302
-0.000266953
2.81681e-05
0.000238785
-0.000227361
-2.97641e-05
-3.67361e-05
-0.000230217
0.000275797
0.000297503
1.9098e-05
-0.000276267
-3.19291e-05
0.000307944
-0.000258679
-1.08213e-05
0.00029808
-0.000287125
1.50625e-05
-0.000301892
0.000286908
-0.000230609
-0.000307376
0.000287364
0.000263005
-2.5561e-05
-0.00028084
1.36081e-05
0.000168617
0.00022969
1.8843e-05
-0.000247818
-0.000199918
0.000162032
0.000236738
1.31517e-05
-0.00024989
-0.00025833
2.66093e-05
0.000231721
-1.09228e-05
0.000247661
5.74002e-06
0.000246877
-3.19817e-05
-0.000226348
0.000299879
-0.000285926
-1.39277e-05
0.000228024
-0.000226666
0.000290007
0.000237685
1.98521e-05
-0.000257537
-1.24236e-05
0.000250108
0.000246636
1.50389e-05
-0.000305648
1.53899e-05
0.00024448
2.18905e-05
3.11637e-05
-0.000196463
-0.000287385
-1.77629e-05
-0.000182869
0.000295177
-0.000155464
0.000189735
-3.39336e-05
3.11856e-05
-0.000197931
0.000170814
-0.000161412
0.000259149
-0.000239236
-1.99137e-05
0.000262224
-0.000274257
-0.000242032
0.000232006
-2.19087e-05
0.000301419
-0.00027937
0.000307952
-0.000292866
0.000242117
1.77241e-05
-0.000224975
0.00024443
-1.94545e-05
1.61001e-05
-0.000241075
-7.00003e-06
0.000260989
-0.000297147
4.87981e-06
0.000292266
-0.000174497
0.000160217
-1.74105e-05
-6.28657e-06
-0.000290896
-1.68433e-05
-0.000285002
4.28402e-06
-0.000300622
0.000135484
-0.000257471
2.37885e-05
0.000233708
0.000238197
1.32441e-05
-3.08134e-05
-0.000226673
-3.32495e-05
-0.000292499
2.05503e-05
-0.000228325
0.000205413
0.000254969
-0.000233465
-2.15041e-05
-0.000198912
0.000218853
-0.000185696
-7.26494e-06
0.00020285
0.000135085
0.000135186
3.87545e-06
0.0002707
0.000280088
-0.000305558
3.11937e-06
0.000243116
-1.9828e-05
0.000298568
-0.000278743
-0.000302279
0.000287404
1.48044e-05
-0.000258301
0.000230077
2.82241e-05
-2.64041e-05
-0.000231897
0.000302637
-0.000302151
0.000267858
-1.99477e-05
0.000304329
-0.000284285
0.000286082
-4.88933e-07
-0.000256873
0.000256873
-0.000268369
0.000295999
-0.000147798
-6.80595e-05
-7.58858e-06
0.000294639
-0.000288175
-0.000298182
0.000291072
0.000291848
-0.000279457
0.000290488
-0.000304509
1.49812e-05
3.42617e-05
-0.000240396
0.000216848
2.26034e-05
-1.44962e-05
-0.000247863
0.000230625
-1.42651e-05
0.0002982
-0.000283822
0.000263481
-1.96001e-05
0.000254224
-0.000235464
-1.87601e-05
-3.10256e-05
-0.000273932
0.000304995
1.44725e-05
-0.000297164
0.000282819
-1.45881e-05
0.000233465
-0.000218877
0.000212417
-0.000295033
0.000283203
-1.92616e-05
0.000304633
-0.00028539
0.00025102
-2.69384e-05
0.000297263
-0.000270441
-0.000295723
0.000268763
1.07156e-05
0.000244749
-0.000255465
0.000305333
-0.000312132
6.81479e-06
1.80854e-05
1.55416e-05
0.000286954
-0.000302583
6.29231e-06
0.000283681
2.27777e-06
-0.000318552
-0.000289798
0.000302917
-0.000242481
0.000243657
8.45603e-06
-0.0002264
0.000242772
-0.000293399
0.000274138
0.000283833
-0.000149053
-8.25816e-05
0.000294319
1.44969e-05
3.16141e-05
-0.000199566
0.000167723
-0.000274505
0.000257293
-0.000219535
0.00024982
0.000243411
1.92865e-05
-0.000262697
0.000236019
2.31309e-05
-0.000300377
0.000282666
0.000312307
-1.79691e-05
0.000237945
-0.000257069
1.91241e-05
-0.000222494
0.000247459
0.000294266
1.80589e-05
-0.000168394
-1.4685e-05
0.000298281
-0.000283598
-0.000142371
-0.000266415
0.000159993
0.000106423
-0.000308981
0.000295363
1.36584e-05
-0.000258699
0.000241826
1.68729e-05
-0.000161314
0.000167213
-0.00030634
0.000288542
1.78465e-05
-0.00021639
0.000181131
-9.69084e-06
0.000253101
2.05235e-05
1.7589e-05
-0.000304367
0.000286821
-0.000300508
-7.25683e-06
0.000307765
-0.000249229
0.000220109
-0.000201153
-8.52603e-05
-0.000274068
0.000249719
0.00030395
-0.000286381
-0.000195483
1.84342e-05
1.50418e-05
0.00028445
-0.000299514
-8.80603e-05
0.000239233
-0.000303339
1.95846e-05
0.000283993
-0.000210202
-2.8635e-06
-0.000297766
-0.000165422
2.05297e-05
0.000303175
-0.000288518
-1.44569e-05
-0.000168369
-0.000299385
-0.000176031
-2.30541e-05
0.000243528
0.000289453
1.71604e-05
0.000252869
5.75519e-05
-0.000285182
-0.000247213
-0.000270321
-2.35253e-05
-0.000274607
0.000300304
-0.000262745
0.000282455
-0.000161603
-4.10625e-05
0.000203389
0.000197569
1.56521e-05
-0.000213221
-1.24923e-05
-0.000285266
0.000298055
1.83597e-05
1.85891e-05
-0.00030541
0.000287142
0.000253345
-1.71361e-05
-0.000236209
1.89618e-05
-0.000304842
0.00028593
2.03561e-05
0.000232989
0.000216385
-2.46121e-05
-0.000191773
1.5786e-05
0.000282805
-0.000298638
-0.000250487
0.000117877
-0.000303742
1.85958e-05
0.000285111
0.000238571
-5.32241e-05
-0.00029428
1.20685e-05
0.00028486
0.000255837
-2.19801e-05
-0.000233857
-0.000303312
0.000106039
0.000234529
1.70521e-05
-0.000251581
0.000279933
1.67247e-05
0.000304258
-0.000285292
1.80147e-05
-0.000300169
0.000233512
1.84916e-05
-0.000252004
-1.90106e-05
-1.42517e-05
0.000298545
-0.000284106
-0.000280416
0.000299933
-0.000277911
0.000291075
-0.000300615
1.22277e-05
0.000249741
-1.62291e-05
1.16488e-05
0.000250041
-1.55121e-05
0.000298537
-0.000282572
3.95922e-05
-0.000238371