/*--------------------------------*- C++ -*----------------------------------*\
  =========                 |
  \\      /  F ield         | OpenFOAM: The Open Source CFD Toolbox
   \\    /   O peration     | Website:  https://openfoam.org
    \\  /    A nd           | Version:  12
     \\/     M anipulation  |
\*---------------------------------------------------------------------------*/
FoamFile
{
    format      ascii;
    class       volScalarField;
    location    "8.95";
    object      p;
}
// * * * * * * * * * * * * * * * * * * * * * * * * * * * * * * * * * * * * * //

dimensions      [1 -1 -2 0 0 0 0];

internalField   nonuniform List<scalar> 
22702
(
1
1
0.879334
1
1.05885
1
1.47124
1
1
0.642757
1.47157
1.46978
1
1.47095
0.898629
1
1
1
1.47199
1
1.47101
1
1.47344
0.651896
1.47086
0.665116
1
1.47022
0.629649
0.652545
1
1.46946
1
1
1
1.43523
1.46772
1.47397
1
1
0.662525
1
1.22924
1
1.46989
1
1
1
1
0.663355
1
0.658031
1
1.47132
1
1.47007
1
1
1
1
0.662873
1
1
0.631736
1
0.665558
1
1
1
0.653081
1
1.47167
1.28379
1
1.47181
1.4954
0.648482
1.46622
0.652374
1
1.47161
0.664583
1.47763
1.47244
1
1
1
1
0.933298
0.64851
1.47816
1
1
0.645312
1
1.47085
0.646186
1
1
1
1
1.23058
1.47155
0.662504
1
1
1.11236
1
0.66334
1
1.46712
1.47139
1
1
0.650736
0.647666
0.644317
1
1
1
1
1
0.918985
1
1.40254
1.03622
1.46785
1
1.47205
1.47194
1.47055
1.4714
1
0.671733
1
0.665204
1
1
1
1
1.47139
1
1
1
1
1.47206
1
1.02631
1
1
1
1
0.655685
1
1.01039
1
0.652942
1
1
1
1.47657
1
1.47129
0.641543
0.66238
1.47065
1.47009
1
1.07863
1.26457
1
1.47273
0.652522
1.43654
1
1
1
1
1.4713
1.36383
1
1.47171
0.651232
1.47208
1
0.663283
1
0.66074
0.664521
0.999789
1
1
1.46929
1
1
1.47086
1
1.47772
1.47256
0.657762
1
1
0.659831
1.47118
1
1
1
1.47136
1
0.646532
1
1
1.4712
1.47159
1.47365
1
1.00004
1
1
1
1.47208
1
0.682017
1.48613
1.47083
1.47054
1
1
1
0.650909
1.47138
1.22884
1
1.47315
0.676436
0.667903
1.47312
1.4724
1
1.48079
0.664415
1.41557
1
1
1
1
1.47106
1
1.2708
1.04243
1
1
1.47062
0.660804
0.787206
1
1.47373
0.638154
1.47728
1
1
1
1
1
1
1
0.66095
0.778008
0.67579
1.4713
1
1
1
1
1.41896
1
0.661119
1
0.640069
0.660616
1.47208
0.661666
1.47151
1
1
1
0.997429
0.666061
0.655469
0.999999
1
0.640128
1
1.4716
0.661225
1
1
1.47164
0.638969
1
1.47036
0.661761
1.47064
1
0.644246
0.997663
1
1
1
0.656024
1
1
1
1.00001
1.00583
1.28627
1
0.678939
1
1
1
1
1
1
1
1.47164
1
1.46938
1
1
1
0.643413
1
1.4718
0.676507
1
1.37954
1
1
1.47325
1
1
1
1.46804
1
1
1.46477
1.47286
1
1.09339
1
1
0.66135
1
1
1
0.647743
1
1
1
1
0.658308
1
1
1
1
1
0.64704
1.00006
1.47105
1
0.999986
1.47057
1.46989
1
1
0.668093
0.811751
1.47214
1
1
1
1.47046
0.652727
1
1.47134
1
1
0.739697
0.719328
1
0.660706
0.6582
1
1
1
1
1
1
1
1.46455
1.1161
1.43703
0.650817
0.886682
1.47094
1
1.47218
1.47256
0.689584
0.781332
1
0.660812
1
1.48229
1
1
1
1
1.47101
1
1
1
1
1
1
1
1.17255
1.47661
1
1.47145
1
1
0.661361
1
1
1
1
1.47141
1.35571
1
1
0.655397
1.47124
1.47145
1
1.47143
1.47099
1.47161
1
0.82116
1
1.47258
0.980069
1.47156
1
0.684192
0.998814
1.46987
1
1
1
1
0.661765
1.47209
1.42513
1
1.47515
1.47139
1.47156
1
1.22141
1.4708
1
1
1.32032
1.06183
1.47125
0.922576
1.4713
1
1.47159
1.47161
1.47156
1.47155
1
1.46653
0.886419
0.874819
1
0.999999
1
1
1.4678
1
1
1
1
1
1.46962
1
1
0.99588
1.47168
1.40939
1
1.389
1.00004
1
1
1.47138
1
0.997224
1.0048
1
1.47154
1
1.47023
1
1
1.34702
1
1.47042
1.00002
1
1.47208
1
1.47141
1
1
1
1.47085
1
1.46931
1.00001
1.47103
1.46388
1.47074
1.46615
1
1.47194
1.46982
1
0.658791
1.44107
1.33448
1
1.4708
1
0.66118
0.66137
1
1
1
1
1
0.652443
1
1.4713
1.10728
1.47162
1
1
1
1
1
1.47166
1
1.47318
1.27724
0.769586
1
1.00001
1.13383
1.11853
1
1
1.16228
1
0.657376
1.47177
1.47156
1
1
1
1.46477
1
1.00003
1.46969
1.4718
0.967753
1
1
0.664699
1.42786
1
1
1
1
1
1.47153
1.47182
1
1.47277
1.46982
1.47076
1
1
1
1
0.663952
1.47232
1
1
1.42717
1.47044
1
1.44189
1.47647
1
1
1
1
1
1.47156
1
1
1
1
1.46722
1
1.46681
0.663239
1
0.660569
1
1
1
0.996919
0.659274
0.999085
1
1
1
1.0658
1
1
0.886651
1
1
1
1
1
1
1
0.999997
0.910148
0.999999
1
0.997428
1
0.658494
1
1
1
1
1.3486
1
1
1
1
0.67799
1
1
1.44263
1.47239
1
1
1
0.896667
1
1
1
1
1
1
0.949986
0.995264
1.47218
1
1
1
1.47094
0.905935
1
1
1
1.47363
1.46697
1
1.00001
1
1
1
1
1
1
1
0.649111
1
1
1.47178
0.649653
1
1.47059
1
0.64916
1
1
0.652055
1
1
1
1
1
1
1
1.46185
1.47089
1
1
1
1
1.42857
1
1.14141
0.660804
1
1
1
1
1
1
1
1.03888
1
1
1.23418
1
1
1
1.38585
1
1
1
1
0.658001
1
1
0.632571
0.664426
1
1
1.47216
1
0.988334
1
1
1
1.32491
0.67805
1
0.666621
1
0.79189
1
1
1
1.47205
1
1
1.47236
1
1
1
1.47224
1
1
1.47232
1
1
0.690742
1
1.13982
1
1
1.47083
1.47193
1.30629
1.41967
1
0.686966
1
1
1.44943
1
0.657903
1
1
1
1.47159
1
1
1
1
1.27914
1
1.44231
1.47491
0.642214
1
1
0.665408
0.665601
1
1
1
1.33084
1.35452
1
1
1
1
1
1
1
1.19443
1.46955
1.01384
1
1.46588
0.665713
1
1
1
1.25341
1
1.08826
1
1.42882
1.46933
1
0.68158
1
1.47085
1
1
1.47105
1.441
1
1.47477
1
0.647594
1
1
1
1.47217
1.46154
1.41274
1
1.4729
1.47032
1
1.47229
1
1.46914
1
0.645735
0.976864
0.636469
1
1
1
1
1
1.47135
1
1.47054
1
1
1
1.44711
1
0.64496
1.47215
1
0.649349
0.693595
0.667985
1
1.21914
1.03319
1.47297
1.4706
1
0.999999
1
1
1.47131
1
1
1.47124
1.4702
1
1.15584
0.999927
1
0.996777
1.47484
0.831344
1
0.803845
0.658641
0.65821
0.957313
1.47079
1.46426
1.09189
1.47202
1.47105
1
1
1.46426
1.47086
1.47212
1.47308
1
1.47161
0.631092
1.47063
1.47262
1.47017
1.47753
0.883332
0.909203
0.90735
1.4733
0.946784
1.47211
1
1
1.47312
1.4711
1
0.652417
1.47169
1.47135
1
1.47115
1.47147
1
1.47096
0.67091
1.47008
1.46466
1.47083
1.47679
1
1
1
1.472
1.29834
0.691793
1.47156
0.631815
1.47256
1
1
1
1
1.47305
1.47152
1
1
1.47111
0.644637
1.47144
0.657297
1
1.46797
1
0.647493
1.47351
0.762462
1
1.47152
1.47439
1.47259
1
1
1.22639
1.47317
0.65624
1.47094
1
1.47075
0.863665
1.47251
0.661204
1
1.47081
0.684429
1.47309
0.649783
1
1.47177
1
1.47572
1
1.26649
1.45252
1.36759
0.66112
1
1.47235
1
1.47263
1
1.47169
1
1
1.47183
0.968937
1.47389
0.644887
1.42013
1
1.32697
1
1.47346
1.47153
1.47172
1
1.42264
1.47196
1.43559
1.28381
1.47093
1
1.30361
1
1.47206
1
1.06344
1
1.43582
1
1.47044
1.44823
1.44764
1
1.46111
0.664114
1
0.66875
1
1
1
1.46934
1
1.47225
1
1
1
1.47214
1.45657
1.39268
1.47213
1.47136
0.657215
1.47514
1.47852
1
1.41137
1.47149
1.4476
1
1.47212
1.4699
1
1.47933
1.47104
1.47075
1.47335
1
1
1
1.47102
0.673208
1
1.47119
1
1
0.661019
1
1
1.47099
1.47112
1
1.47124
1.4773
1.47169
0.994212
1.4716
1
1.47161
1.47123
1.37953
1
1
1
1.47031
1.47149
1.47121
0.939606
1
1.4779
1.47196
1.47113
1
1.47167
1.47187
1.4709
1.47853
1
1.47213
1.46951
1.40703
1.47062
1.47667
1
1.46797
1.4656
1.47137
1.47192
1.47217
0.66878
1.47105
1.47004
1
1.47106
1.47162
1.47111
1.47103
1
1.47198
1.47145
1
1.47116
1.39197
1
1
1
1.46858
1.47849
1
1
1.2522
1
1.47135
1
1
1.4713
1.47318
1.47212
1.47065
1
1
1
1.33102
1
1.4712
1
1
1.46826
1.46475
1
1.47134
0.630393
1.47086
1.47215
0.734154
1
0.646677
1.40864
1.47644
1.46942
1.469
0.649043
1.47189
1.47156
0.651049
0.641934
1
1.4703
1.47158
1
1
1.47139
1
1.47784
1
1.4093
1
1.2081
1.47174
1.47456
1.33104
1.44197
1.47607
1.4727
1.44875
1
0.661782
1.46885
1.47177
1.47757
1.00001
1
1
1.47412
1
1.47146
1.47234
0.768276
1
1.47177
0.999939
1
1.00003
1.00004
1.47104
1.47182
0.99852
1
1
1.47272
1.47325
1.47295
1.47339
1.47255
0.679796
1.4027
1
1.46808
1.4721
1.47204
1.45739
1
1.47121
1.45798
1.47243
1
1.47133
1.47109
0.869673
1.47105
1.47082
1
1.47188
0.857343
1.47218
0.855916
1.47109
1
1.47184
1.48291
1.47148
1.47162
1.47182
1.46813
1.47179
1.47016
1
0.920737
1.47233
1.47194
0.863605
1.47156
0.973062
1.28213
1.47231
1.47154
1.47044
1
1.47395
1.30392
1.47003
0.936312
1.4735
1.47244
1
0.879979
1
1.47544
1
1.3208
1
1.44343
0.869981
1
1.47577
1.46737
1
1.47372
1.47335
1.46715
1.46056
1.46097
1
1.47172
1
1
1
0.884432
1.4711
1.47105
1.47525
1.47152
1.47799
1.47384
1.47285
1.4722
0.880743
1.03175
1
1
1.47959
1.47172
1.47127
1.47135
1.00003
1.24302
1
1.4786
1.42436
1
1
0.724636
1.4713
1
1
0.634983
1.47152
1
1.47693
1.47129
1.4761
1.45223
1.47111
1
0.664364
1.1117
1.47137
1.47109
1
1.4709
1.4709
1.2259
1.00986
1.10411
1
1.47626
1.47139
1
1
0.667089
1
1
1.47151
1.47139
1.47431
1.47289
1.47098
1.47347
1.47246
1.47583
1.4716
1
0.996181
1.47142
1.47118
0.996971
1.47104
1.471
0.669835
0.642866
1.47376
1.48004
1
1
1.00105
1.47229
1.47434
1.47134
1
1.47105
1
0.864781
1.47877
1.47694
1
1.21212
1.47169
1
1.47225
1
1.47211
1.31978
1.47167
1
1.47063
1.4743
0.66362
1.47112
1
1.46948
1.46929
1
0.672087
1.46835
1.38941
0.997599
1.45929
1.47149
1
0.994132
1.47654
0.99776
1.47093
1
1
1.4703
1
1.47106
1.47089
0.996577
1.37234
1
1.47092
1
1
1
1
1.47125
1
1
1.46207
1
1.47122
1
1.29174
1.4705
1.47063
1
1
0.997999
1
1.47082
1.47111
1.46984
1.47108
1.47104
1.4716
1.47081
1
1.47141
1.47401
1
1.47075
1.47183
1
1.4726
0.915426
1.0581
1.47147
1.47207
1.4721
1
1.4709
1
1.47173
1.47155
1
1.47165
1
1
1
1
1.47218
0.66194
0.997909
1
1.47158
1.47328
1
1.47114
1
1.00497
0.63052
1.47193
0.999584
1
1.47286
0.998373
1.47121
1
0.999775
1
1.47074
1.46787
1.47259
1.47481
0.656385
1.47097
1.47017
1.4719
1.11382
1
1
1.19378
1.47089
0.648815
0.654669
1
1.47034
1.4702
1.47364
1
1
1.46944
1.47203
0.999881
1
1.33605
0.636006
1
1.08253
1.47072
1.46919
0.998246
1.47118
1.47935
1
0.999106
1
1.4745
1.4741
1.18924
1
1.4561
1
1.001
1.47264
0.663612
1.47159
1.47116
0.996978
0.999912
1.41507
1
0.999696
1
1.47308
1
1.00001
0.630863
1.47155
1.00001
1
1
1
1.47416
1.26622
1
1
0.655419
1.47159
1.26557
1
1
1
1.44866
1.46626
1.47047
1
1
1.47294
1
1.47208
1.47225
1
1
1.47337
1.471
1.44743
1
1
1.47322
1.47353
1
1
1
1.4731
1
1
1
1.47214
1.47551
1.47531
1
1.47531
1.00003
0.684519
1.47223
1.47216
1
1.47436
1.44558
1.46575
1
1
1.4749
1
1.24383
1.47217
1
0.675053
1
1.47402
1
1
1.46816
1
1
1
1.13992
1.47142
0.672805
1.00001
1.47307
1
1
1.47159
1
1.4747
1
1
1.47205
1.47181
1
1.00005
1
1
1
1
1
1
1.47882
1.47132
1
1.4769
0.663377
1.48082
1
1.47153
1.46846
1.47187
1.46242
1.47656
1
1
1.46683
1
1.28122
1.47636
1.47063
1
1.47493
1.46299
1
1.41874
1
1.47172
1.29945
1.46857
0.997559
1.45477
1.42913
1.47326
1.47231
1.03649
1.47155
1.47485
1
1.47095
1
1.47223
1
1
1
1
0.996351
1.47122
1.47161
1.38099
1
1.47577
1
1
1
0.670465
1
1.45995
1
1.42548
1.44409
1
1
1
1.43552
1.46877
1
1
1.47207
0.64845
1.0751
1
1.47508
1.47174
1.42821
1.46001
1.47171
1
1.47015
1
1
1
1
1.47177
1.47076
1
1.45782
1.05382
1.47019
1.43857
1
1
1.43982
1
1
0.659057
1.32788
1
1
1.47795
1
1.47464
1.42784
1
1.42693
0.651415
1.47155
1.47183
1.47202
1
0.675204
1
1
1
1.47173
1.39492
1
1.46621
1.47089
1
1.47152
1
1
1
1
1.47119
0.999421
1
1.47387
1
1
1.4732
1.47151
1
1.47664
1.09058
1.00002
1
1.47198
1
1.47217
1
1.01411
1.47155
1
1.47156
1
1
1.14247
1.47391
1
1
1
1
1
0.997232
0.676936
0.660243
1.02128
1
1.02177
1
1.02459
1
1.47167
1
1.27373
1
1.47198
1
1
1
1.47181
1
1.38935
1.47006
1
1.24598
1.47075
1
1
1.47004
1.47153
1
1
1.05097
0.661989
1
1.47217
1
1
1
1
1.07602
1.47176
1
1
1
0.63277
1
1.47209
1.47117
1.48345
1
1
1
1
1.22807
1.47182
1
1
1
1.47211
1.47114
1.05071
1
1
1
1.47167
1.47109
1
0.674971
1.47136
1.4717
1.47197
1.47334
1.47527
1
1
1.47422
1.47328
1.47093
0.632815
1.0399
1.47165
1
1
1
1
1
1.47089
0.651659
1
1
1.47086
1.205
1
1.4762
1
1
1
0.675086
1
1
1.12061
1.47161
1.47203
1
1.47961
1.47151
1
1.07484
1
1.47818
1
1.47167
0.647051
1
1
1
1
1.47145
1.00006
1
1
1
1.44629
1
1
1
1
1.47117
0.674224
1.37036
1.47282
1
1.47205
1
1
1
0.997266
1
1.46991
1
0.814932
1
1
1.00003
1.47325
0.631167
1
1.47383
1
1.47454
1.47157
0.629848
1
1
1.45265
1
1
0.649248
1
1.47781
1
1.44997
0.999326
1.47019
1
1
1
1
1.47239
1
1
1.47165
1
1
1
1
1
1
1
1
1.30476
1
1.14304
1.47106
1
1
1
0.67942
1
1
1
1
1.47651
1.47144
1.05307
1
1
1.47302
1
1
1.4747
1
1.00002
1
1
1
1.00001
1.47083
0.783528
1.47153
1.47395
0.996984
1
1
1
1.27046
1
1
1.47248
1.47119
1
1
1
1
0.638286
1
1
1
1.29099
1
1.47159
1.47581
1
1.47323
1
1
1
1.24748
1
1.47116
1
1.47108
1
1
0.99617
1.47109
1
1
1
1
1
1.47302
1.00002
1
0.65108
1.47595
0.648881
1
1.46974
1
0.996162
1
1.47394
1.46805
1
1.47668
0.879396
1.47169
1.478
1.00003
1
1
0.661933
1
1
1
1.4731
1.27437
1.47662
1
1
1
1
0.996904
1.46959
1
0.655309
1
1
1
1
1
1
1
1.47868
1.46928
1.47216
1
1
0.996956
1
0.983435
1
1
1
0.644174
0.980478
1
0.658911
0.681048
1
1.47195
1.47122
1
1.468
1.47106
0.662879
1.31816
1
1
1
0.654103
1.47119
1
0.661647
1
1.47301
1.08076
1
1
1
1
1.47178
1.46821
1
1
1.47183
1
1
1.47407
1.47189
1
1.42288
1.47175
1.47438
0.960318
1.47241
1.00825
0.65756
1.3601
1.47241
1
1
1
0.63366
1
0.674987
1.4693
0.960957
1.47132
0.950279
1
1.46995
1.20556
1
1
1.46962
1
1.18638
1.47181
1
1
1.46735
1.47995
0.676523
1.28553
0.99989
1
1.27679
1
1.47829
0.940603
1.48253
1.47748
1
1
1
1
1.4606
1
1
1.46997
0.999631
1.47107
1.38623
1.47443
0.654494
1
1
1
1
1.4716
1.00004
1.47171
1
1.47145
1.47347
1.05651
1.4735
1.14596
1.47202
1
1.31939
0.688333
1.46911
1.47174
1.36502
1.07798
1.46907
1.47175
1.47107
1.47079
1
0.910689
1.06858
1
1.47178
1.21794
1.47065
1.00003
1
1
0.705867
1.47281
1.47137
1.37999
1
1.17001
1
1.4688
1.46691
1
1.46987
1.47236
1
1
1
1.4695
1
1.17756
1.47576
1.31884
1
1.46915
1
1
1
1
1
1
1
1
1
1
0.675744
1
1.45256
0.667161
1.26667
0.998565
1.4709
1
1.24311
1.00001
1.29265
1.40138
1
1.00166
1.46692
0.904222
1
1.46802
1.46544
0.936632
1
1.47255
1.47221
1.47371
1
1.47144
1.46923
1.46931
1
1.21316
1
1.00006
1.47086
1
1.47155
1.06649
1.47167
1
1
1.47469
1.46986
0.712254
1
1.47233
1.35195
1.47029
1
1
1.47318
1.47156
0.998231
1
1.41231
0.996959
1.47128
1.00005
1
1
1
1
1.20898
1
1.3642
1.4703
1.35152
1.47143
1
1.00377
1
1
1.47467
1
1.4687
1
1
1
1
0.999999
1
1.05458
1.23532
1
1
0.679804
1
1.47444
0.671004
1.4722
1
1.23233
0.999745
1.47086
1.29937
0.66954
1.25435
1.00003
1.47076
1.47001
1
1.2828
1.46955
1.46938
0.998396
1.47974
1.45768
0.656238
1
1
0.997551
1
1.47003
1
0.671477
1.47067
1
1
1.41337
1
1.47099
1
1.47083
1
0.691833
1
1
1.47129
1.47833
1.46835
1
1.47175
1.47129
1.47373
1
1
1.45631
0.999999
0.746154
1
1
1
1.47109
1
1.47089
1.30146
1.47374
1
1.47168
0.999367
1
1
1
1
1
1
0.719997
1
1
1.47158
1
1.47213
1.47299
1
0.670782
0.653755
1
1.47281
1.07753
0.652874
0.634292
1
1.46887
1
1.46969
0.65011
1.00119
1
1
0.999517
1
1
1
0.999914
1.18744
1.47149
1
1
1.47329
1.27397
1
1.42841
1.47139
1.47152
1.19084
1.47337
1
1.47086
1
1.46979
1
1.46975
1.47342
0.997088
1.47102
1.47461
1
1
1
1
1
0.932749
1.47048
1.00004
1.00003
0.670696
0.999984
0.664002
0.670732
1
1.47014
1.47165
1.47051
1
1.47145
1
0.653159
1
1
1.46771
0.820936
1.47185
1
1.47197
1
0.967624
1.47219
1
1
1
1.47191
1
1.47309
0.674985
1
1
1.27199
1
1
1.25205
1
1
1.47066
1
1
1
1
1
1.46661
1.471
1
1.47255
1.46927
0.651539
1.20763
1.47113
1
1
1.42312
0.998991
1
1
1.47131
1.47466
1.29914
1
1.46825
0.680234
1.44971
0.999843
1
1.46941
1.00003
1.47384
1.39887
1.35971
1
1
1.47143
0.705215
0.666156
1
1.47189
1
1.47212
1
1.27269
1
1
1.47033
1.30031
0.664562
1
0.998347
1
1
1.02624
1.18517
1.47168
1
1.47141
1
1
1
1
1
1
1.06585
0.647211
1
1
1.03047
1
1
1
1
1
1.47049
1
1
1.4715
1.47201
1.33405
1
1
1
0.831157
1.47043
1.32361
1
1
1
1
1.47354
1
1
1
1.4756
1
1
1.33914
1.47855
1.02458
0.748634
1.47081
1.32776
1.4732
1
1.23578
1
1
1
0.649985
1.00249
0.665536
1
0.645273
0.641112
1
0.665195
1
1
1
1.21042
1
1.46881
1.47065
1.00064
1.22143
1.39713
0.656182
0.749586
0.888786
1
1.471
1.47268
1.47123
1.47146
1.40124
0.880526
1
1.40382
1
1.4606
1
1
0.996591
1.00903
1
1
1
1.47288
1
0.676195
1
1.47234
0.682026
1
1
1.47157
1
1.47101
0.999503
1
1
1.47181
1.41034
1
1.48793
1
1
1.01435
1
1.20774
1
1
0.650426
1
1
1.47206
0.999998
1.47129
1
1.00003
0.68421
1
1
0.659479
1.00089
1
1.47316
0.672202
1.475
0.641211
1.47248
1
1
1
1
1
1
1
1
1
1
1
1.45145
1
1.47399
1.47246
0.638789
1
1
1
1
1
1
1.45797
1
1
0.654938
1
1
1.47401
1
1
1.17847
1.39049
0.648756
0.657225
0.702131
0.733636
1
0.996552
0.667078
1.00032
1.44453
0.996811
1
1
1.47361
1
1
1
0.767736
1.00001
1.16489
1
1
1.1807
1.47205
1
0.654213
1
1
1
0.996461
1.00001
1.47424
1.47129
1
0.651499
1
1.2489
0.639266
1
0.888206
1
0.996168
0.640319
1
1
1
0.995719
0.635131
1
0.643399
0.998398
1.2415
1.43244
0.652252
0.648556
1
0.990544
1
0.998621
1
1.472
1.47199
1
1.01071
1.47202
1.47033
1
1
1.47132
1
1
1.00005
1
1.46984
1
1
1.0181
1
0.998585
0.687211
1
1
1
1
1
1.47501
1.03361
1.00005
1
1
1
1
1
1.00003
1
0.642897
1.10239
0.998635
1.45663
1.46572
1
1.01422
1.47103
1.41465
1
1
0.659488
1.47178
1
1.4725
1
1.47308
1.33506
0.649608
1
0.639429
1.43171
0.99968
1
0.652218
0.670722
1
1
1.39433
1
0.999998
0.645178
1
1
1
1.15177
1
0.638605
1.47207
1
1
1
1
1.47225
1
1
1.47461
1.42214
1
1
1
1.47198
0.658631
1
1.47197
1.47137
1
1.3749
0.999999
1.00003
1
1
1.44015
1.01079
1
0.685713
1.25312
1
1
0.997783
1
1
1.47003
1
1
1.00003
1
1.47097
1
1
1
1
1
1
1.00001
1.20116
1
1.46869
1
1
1.47317
1
1
1
1.47152
1.47033
1.04731
1
0.997597
1
1
1
1
1.47109
1
1
1.47216
0.651152
1
1
1
1
1
1
1.37954
1
1
1.47719
1.47165
1
1
1
1.47209
1.4744
1
0.999697
1.47529
1
1
1
1.00002
0.676194
1.02955
0.996216
0.995993
1
1
0.65019
1.47212
1
0.654751
1
1.47283
1.45079
0.648973
0.999389
1.47138
1.47168
1.47197
1
1
0.927886
1.42305
1.38228
0.662433
1
1
1
1.47398
1.47201
0.663618
0.997304
1
1.47224
0.679626
1
1.46862
0.66053
0.9657
1.00632
1
1.47761
1
1
1
1
1
1
1.00011
1.43877
1
1
1.47856
1
1
1
1.47142
1
0.643525
1
1
1
1.16215
1
1
1
1
1
0.796748
1
0.675485
1
1.47103
1.00007
0.863167
0.86704
1.00002
1.00433
1.23952
1
1
0.665339
1.47135
1.47102
1.47162
1
0.644792
0.650529
1
1.47203
1
1
1
1
1
1.00003
1
0.6662
1.29576
1
1
0.670048
0.993309
1.00001
1
1
1
0.641846
1
0.703134
1
1
1.46717
1
1
0.646685
1
1.47219
1
0.650911
1
0.663129
1
1.00811
1.47093
1.48451
1
1
1.47062
1
1
1.10403
0.996716
1
0.998249
1
1.47372
1
0.647889
1.00002
1.4726
0.999074
1
1
0.810161
1
0.99908
0.647833
1.46828
1.16913
1
1.00001
0.904636
1
1
1
0.798763
1
1
1
1.4718
1
0.651127
0.999999
1
1
1
0.648344
1.47182
1.42754
0.658212
1
1.4653
1
1
1.47074
1.472
1.39335
0.657865
0.997717
0.999186
1
1.47102
1
1
1
1
1.47219
1.00004
1
1
1.46919
1
1
1.47178
0.681388
1
1
1
0.658284
1
0.999999
0.999999
0.998675
1
1
1
1
1.35858
1
1.47269
1.4726
1.48208
1.47079
1.47177
1.47176
1
1.47016
1
1.47159
1.47118
1
0.998874
0.669823
1.39966
0.999892
1
1
1
1
0.995278
1
1.07228
1
1
1
0.84347
1.47187
1.47254
1.47131
1.42077
0.999867
1
1.02362
1.47147
0.997989
1.0512
0.997417
0.659026
1
1.00002
1
1
1
1
1
1.47194
0.648675
1.47233
1.47154
0.994934
0.661723
1
1
1
1.4711
0.658958
1.41439
0.652511
1.47139
1.46998
0.662
1.47427
1.02316
1
1.47301
0.806339
1
0.99889
0.666157
1
0.6786
1
1.47177
1.47171
0.750303
1
1.47284
0.652386
1
0.660302
1
1.4715
1
1
1.47084
1
0.840769
1
0.999664
0.672854
1.47614
0.999492
1
0.668374
1
1
1
1
1.25261
1
1.47148
1
1
1.47842
1
1
1.47154
1
0.685591
1
0.644032
1.00001
1
1
1
1
1.45014
1.26846
1.47139
1
1.47145
1.43705
0.63997
0.653806
1
1
1.47429
1
0.686301
1
0.989642
1
1
1.47304
1
1.46859
0.66931
1.48034
1
0.666541
1
1
1.47566
1.4703
1
1.00004
1
1.47973
1
1
0.669308
0.999383
0.671124
1
1
1
1.47361
1.47422
1.47262
1
1
0.654576
1
1.47686
1
1
1
1.44322
1.47201
1.47084
0.654646
1.47271
1.47143
0.678999
1.47197
1.00004
0.655594
1.01652
1
1
1.47035
0.652715
1.29989
0.655484
1.47157
0.997356
0.656674
1.47321
1
1
1
1
1.47112
1.47098
0.664663
1
1.00002
0.652217
1.00003
1
0.651588
0.672096
1.32483
1.46943
0.998434
1.47188
1
1.46539
0.828378
0.657077
1.47161
1.48167
1
1.47211
1
1
1.47155
1
1.3565
1.47234
1
1
1
1
1.47145
1.46633
1.47222
1
1
1.46881
1.46453
1.47042
1
1.47176
1
1
1
1
1
0.643555
0.839273
0.6581
1
1
1.47098
1
1
1.47212
0.654105
1
1.4711
1.46656
1.45006
0.629789
1
0.653179
1
1.00003
1.47117
1.23006
1.47297
1.42985
1
0.670732
1
1.46919
1.33222
0.635721
1
1
1
0.821507
1
1
1.47356
1
0.646856
1.47111
1
1
1
1
1
1.37682
1.10255
1
1.47273
1
1.47406
1
0.997275
1
1.47314
1.46988
1.47265
1.47621
0.999581
1.47301
1
1.47153
1.47336
1.39543
1
1
0.648519
1.46939
1
1
1.47761
1.47194
1.4732
1
1.47141
1
1
1.00003
1.46874
1.46935
1.12833
1.09844
1.47125
1.47093
0.707565
1
1
1
1
1.00002
1.16256
1
1
1.39101
0.666349
0.999968
1
1.47212
0.999867
0.999797
1.06828
1.42085
1.46946
0.910461
1
0.673524
1
1.00419
1.47166
1.47537
1.47172
0.999015
1
1
0.671984
1
1
1.47155
1.04984
1
1
1
1
1
1
1
0.999937
1.47137
1.00002
1
1
1
1
1.31266
1
1.21567
1
1
1.47139
1.47702
0.666065
0.998808
1
0.999999
1
0.663492
1.47401
1.4707
1
1
1
1
1
1
1
1
1.4705
1.46435
0.661507
1.051
0.665881
1
0.65824
1
1.47207
1.12321
1
1
0.702491
1
1.45042
0.821
0.996805
0.662502
1
1
1.46981
1.00004
0.997047
0.640518
1.47231
1.47813
1
1
1
1
1.44018
1
1
1.47078
0.999017
1.47059
1.00002
1
1
0.670363
1
1
1.47121
0.669249
0.790983
0.648216
1.47109
0.999368
1
1.47753
0.647653
0.656083
1.01586
1
1
1.4712
1.00004
1.20058
1
1
1.47107
0.657401
1
1
1.00013
1.47141
1.00012
1.45451
1
1.00003
1
1
0.708033
1
0.792185
1.00001
1
1.47175
0.672983
1
0.796916
0.810779
1
1
1.47244
1
1
1
1.47203
1.47058
1.00005
1.45253
1.47144
0.79026
1.47112
1.45305
1
1
1.46382
0.999999
1
1
1
1
1.47113
1.47137
1
1
1
1.47283
1.00019
1
0.646521
0.709072
1
1.00003
1.17203
1
1
0.892959
0.629255
1
1
1
1.47692
1.43115
1.47129
1
1
1
1
0.67878
1
1.47078
1
1.45983
0.682617
1.47743
1
1
1
0.65317
1
1.47208
1.00003
1
0.633924
1.16909
1
0.999659
1.46894
0.649526
0.654688
1
1.47096
0.638456
0.645585
1
0.670042
1.00001
1
1
1
0.651789
1
1
1
1
1.47098
1
1.35971
0.662881
1
1
1
0.643731
1.47247
1
1
0.996786
1.46021
1
1.47189
1.47182
1
1
0.719879
0.653928
1
1
0.633061
1.13981
1.21288
1
1
1.46843
0.997375
1
0.997618
1.47261
1
1
1
1
1
1
1.47224
1
1.15895
1.1493
0.72422
1.41503
1
1.471
1.47213
1
1
1
0.91476
0.664618
1
1.22494
0.999634
1.40806
1
1
1
0.999999
1
1.00823
1.21277
1.47352
1.47097
1
1.47099
1
0.658887
1
0.99763
0.999787
1
0.671593
1
0.673162
1.00002
1.4752
1.47165
0.648759
1.47697
0.677324
0.996116
1.34339
0.679812
1.34752
1
1
0.99843
1
1
1
1.00006
1
0.681679
1
1
1
1
0.999574
1.47187
0.812067
1
1
1
1.0375
1
1
1
1.27367
0.768389
1
1
1
1.03674
1.46956
1
0.65917
1
1.47363
0.886599
0.644546
1
0.657038
1
1
1.44517
0.998218
1.43047
1
1.00894
1
1
1.47138
1
1
1
1
1.09372
1
1.47162
1.47321
1.47003
0.666052
1.47084
0.99709
1.38243
1
1
0.644755
1
1
0.629085
1.47531
1
1
0.999944
1
1
1
0.639379
0.657573
1
1.47356
1
1.21727
1.47139
0.674333
1.37813
1
1
0.665565
1
1
1.47146
1.4722
1.17085
1
1
1.00169
1.47129
0.662147
0.647012
1.47192
1.47156
1.32504
1.1869
1
0.888664
1
1
1
1.44314
1.46952
1.4692
1
1
1.47392
0.650587
1.42107
0.637819
1
0.658268
1
0.671919
1.47141
0.647779
1
0.993146
0.66351
1
1
1
0.847391
1.44702
1.47101
1.46928
1.47069
1
1
1.47276
1
1
1.4725
1
0.651072
1
0.669527
1
1.47995
1
1
1.02277
1.36041
1
0.999022
0.644099
1.47298
1.00001
0.6632
1.08821
1
1
1.35343
1.47214
1.47183
1
1.47023
1.11914
1
1.0238
1.47147
1
1
1
1
1.47152
1
0.66555
1.4715
0.670213
0.672736
0.833967
1.47074
1.15174
1.46887
1
1.47366
0.997524
1.00003
1.47199
1.47214
1
1.46936
1
1.47167
1
1.4716
1
1.00004
0.999994
1.47181
0.664583
0.638109
0.9979
0.999999
1
1
0.664596
1
1.30475
1
0.654721
1
1.186
1.47167
1.47286
1
1
1.00003
0.999416
1
1.47179
1.4719
1
1.18938
1.47015
0.847957
1.47199
1.00035
0.63005
1.09413
0.652818
1
1
1.07882
1.47082
1
1
1.03761
0.998595
1
0.664714
1
0.79738
1
1.47406
1
1
0.656717
1.10352
1.07056
0.998507
1.47085
1.4711
0.771769
0.998053
0.6734
0.655088
0.666264
1
1
1
0.999063
0.738682
0.671818
1
1.47149
0.99974
1.47126
1.47052
1.47198
1.4722
1
0.673233
1.47103
0.642716
1
1.47267
1.47117
0.996624
0.819129
1.47237
1.32828
1
0.650193
1
1
1.47799
1
1.02612
1.47338
1
0.66796
0.662108
1
1
0.631434
0.648187
1.47167
1.00004
1
0.656086
0.634502
1.47848
1.45216
1.43845
1.47233
1.12651
0.981235
1.18017
1.47676
1.35686
1
1.23437
1
0.666604
0.865622
1
0.653743
1.47204
1.02227
1.47313
1
1.47133
1.47097
1
1.46978
1.47151
0.640741
1.4762
1
1.47321
1
0.750812
0.672842
1.47026
1
1
1
0.671903
1.47098
1.47327
1
0.65578
1
1
0.68467
1.00004
0.63861
1.47241
1
0.833656
0.638695
1
1
1.26743
1
1
1
1.07857
0.657462
1
1.00001
1
1.47268
0.663118
1
1.47226
0.665933
0.653568
1
1
1.47798
1
1.47341
1.00001
1.47175
0.664372
1
1
0.657945
0.810899
0.668587
1
1
1
1
1.47427
0.644673
1
0.675954
1
1.47671
1
1
0.914225
1
1
0.828972
0.999688
1.00005
1
0.659726
0.647898
1
1
1
1
0.81512
1.47016
1.47173
1
0.671206
0.652219
0.902905
0.657283
1
0.830495
1
0.671216
0.980552
1
1
0.651283
1
1.46972
1.47086
0.660678
1
1
1
1.47362
1
1.04679
0.832995
1.14443
0.679864
1.18692
0.649546
1
1
0.742098
0.918422
1
1.03613
1
1
0.657164
1
0.945385
1.03984
0.677374
1
1.38841
0.768232
0.861115
1
1
1
0.651526
1
0.674656
0.63073
1
0.840052
0.674756
1.07006
0.762871
0.658268
1.47149
1
1.4717
1.25102
0.712335
1.47126
0.652875
0.999035
1.47011
0.999999
1
1.47041
1
0.726061
1
1.06982
1
1
1.4724
1
0.757883
0.828318
1.47127
0.942818
1
0.753336
1.47218
1.47456
0.903396
1
1.47187
1.12116
0.836373
1
1.01581
1
0.654812
1.19364
0.771542
0.760412
1
1
0.657685
1.47251
0.967007
0.6537
0.653179
0.867498
1
1.01453
1.47066
1.47261
1
1
0.999999
0.654647
1.21106
0.99999
1.46867
1.41881
0.63441
1.00001
1.09343
0.853704
1.27998
1.42246
1
1.041
1
1.00005
0.642542
0.85269
1
1
0.832639
0.648226
1.02903
1
1
0.649737
1.20956
1
1.4664
1
1.03423
1.25597
1
1.46578
1
1
1.46909
1
0.651151
1.47066
0.682114
1.12173
1
0.669714
0.999916
1
1.00003
1
0.772452
1.02659
0.655693
1.34717
1.4712
0.636799
1
1
1
1
1
0.969582
0.665406
1.03744
0.652502
0.678721
1.06251
1
0.999801
1.11381
1
1
0.667558
0.994421
1
1
1.12501
1
1.47448
1
1.47088
1.09682
1.01374
0.663777
1
1
0.663691
1
1
1
1
1.46862
1.04361
0.998141
1
0.639499
1.05039
0.999999
1
1.30425
1
0.647587
1.47197
1
1.00001
1
1.47141
0.658397
0.866118
0.640698
1.35207
1.47294
1
1
1.4724
1
0.636305
1
1
1
1
1
0.773949
1
1.46968
1
1
1.15609
1.47364
0.66753
0.868445
1
1.47183
1
1
1
1
1
1.47185
1.47126
0.654056
1.47178
0.640169
1
1
1.47117
1
1.4721
1.00082
1.02857
1.07328
1.47068
1.0737
1.31841
0.647476
1
0.644192
0.985728
1
1.47188
1
1
0.666344
1.47892
1
1.47279
1
1
1
1
1
1.00001
0.634261
1.47175
0.853395
1.47121
1
0.665717
0.66348
0.700793
1.46461
1.47299
0.972166
1
0.794177
1
1.1835
1
1.47134
0.640993
0.648393
0.853762
1
1.47183
1
1.06569
0.700836
1
1.47266
1.41217
0.998888
1
1.47264
0.670852
1.47071
1.47036
1.4688
0.659725
1.09368
1
1
0.641683
1
0.804203
0.812449
1
1.00002
1.47057
1
1.47824
1.08923
1
1.03373
1.47582
1
0.656932
1
0.751495
1
1
1.38644
1
0.811891
1
0.655816
1.03838
0.943924
0.63459
1.47051
1.37962
1.46999
0.652303
0.701727
0.995852
0.999999
1
0.699967
1.44415
0.63943
0.999966
1
1.47182
1.47218
0.90864
1
0.658409
0.724117
1.31018
0.974023
0.639931
0.999999
0.645893
1.11078
0.660605
1
1.00006
0.828681
1.47248
1.47062
0.843645
0.9996
1
1
0.727266
1
0.659493
1
0.64612
0.650008
1
1
1.00003
0.656175
1.47137
1
1
1.00007
1.00004
0.641089
1.47032
1.4714
0.999999
0.654776
1.46976
1
1.09625
1
1
1.47339
0.662103
1
1
0.656577
0.735356
0.661001
0.671374
1
0.716525
0.997104
1.10351
0.644072
1
1
1.13097
1
1.41294
1
1
1.31747
0.694675
1
0.657644
1.11825
1.47146
1
1
0.655316
0.675799
0.64203
0.740661
0.672531
1.35162
0.999404
1
1
1
1
1.46954
0.664921
1
0.92723
0.999681
0.998681
0.999945
0.776166
1.12624
1
1.47128
1.47209
1
1
1.4499
1.00005
0.999999
1.47228
0.666084
1.47266
0.999999
0.633058
1.47222
1.00005
1
0.836538
1
0.65522
1
1.47038
1
1
1.47574
1
1
1.4789
1
1
1
1.47231
1
0.756549
0.744509
1
0.636344
1.47276
1
1
0.973193
1
1.47565
1.26819
1.37692
1
1
0.654927
1
0.682798
1.47376
1.47812
1.47128
1
1.4714
0.667228
1
0.664672
1.3767
1.42349
1.47087
1.47162
0.771235
0.645951
1
1.32244
1.4726
1.47349
1.47111
0.745421
1.16756
1
1.35944
0.746622
1
1.00002
1
1.00002
0.894719
1
1.47398
1
1
1
1
1
1
1.00006
1.4695
1
1.47656
1.34766
0.647787
1.47089
1.02826
1.22589
1
1.47104
1
0.654247
1
1
1
1
1.39971
1
0.648021
1.47045
0.636546
1.47223
1.37441
1.2393
1
1.08506
1.21217
0.995734
0.657647
0.757553
1.00002
0.999999
0.914612
1
0.64105
1.47306
0.658469
0.927793
0.842541
1
1
1
1.01436
1
1
0.671621
0.996555
1.46671
1
1.47203
1
0.661547
1
1
1.4717
1.47035
0.650025
1
1.47217
1
0.786668
0.662017
1.47059
1.42162
1
1.07362
1.47258
0.998712
1
1.19553
1.41259
1.47327
0.996026
1
0.999998
1.39715
1
1
1
1.47134
0.998488
1
1
1.47227
1
1
0.664461
1
1
1
1.46879
1
1
0.849878
1.13582
1.42956
0.766684
1
1.47211
1
1.16215
1
1.47214
0.997322
1.47102
1
0.66635
1
1.31417
1
1
1.43932
1.00001
1.47109
1
1.47671
0.710217
0.652962
1.47225
1
1.40076
1
1.47033
1
1
1.00005
1.47102
1.47675
1.11483
1.4721
0.995741
0.656776
1.47135
0.873918
1
1.46491
1
1.47159
1
1.47374
1.47181
0.996155
0.661471
1
1.47146
1
1.03161
1
1
0.997936
0.748386
1.41898
1
1.42394
1
0.871031
0.646284
1.46961
1.47126
0.67647
1
1.47133
1.4734
1.47189
0.675944
1.47105
0.651385
1.47012
1.47285
1
1
1.47147
1
1
1
1
0.646391
1
1
1.47009
1.4716
1
1.47105
1
1.47327
1.47002
1
1.39295
1
0.642517
1.47151
1.34543
1.12714
0.642578
1.4715
1
1
0.646311
1
1
1.47133
1
1
0.762093
1
1.47147
1.00009
1.47036
0.654602
1.46789
1
1.47262
1.4531
0.895042
1
1.47333
0.748194
1.47076
1.32744
1.47121
1.4733
0.997364
1.47186
1.4722
1.47077
1.47236
1.00079
1
0.662147
1
1.46791
0.836953
1.43063
1
1.46278
1
1
1
1
1
1.46916
0.640245
0.642406
1.47173
1.47181
1
1
1
1
1
1.46844
1.43929
1.47184
1.02231
1
1
1
1.00003
1.46978
1.47144
1
1.47191
1.47089
0.683322
1.32781
1
1.47279
1.47557
1.46798
0.997958
1.47199
1.47047
1
1.4332
1
1
1
1
1
1
1.47212
1.4711
1.4386
1.47181
0.642849
0.704484
1.47146
1.47159
1
0.67785
0.938063
1
1.21741
0.657135
1
0.999453
0.998258
0.644323
1
1.47194
1
1
1
1.47242
0.945014
1
1.47232
1.47106
1
1.47272
1
1
1.47125
1
0.663037
1
1.47618
1
1
0.672628
1
1.47118
1
0.641387
0.640223
1
1.45067
1
0.63897
0.874155
1
1.47155
1
1
1
1.476
1
0.644188
1.06703
1.47456
1.47308
1.47183
1.03559
1.47316
1.47176
1
1.00002
1
1
1.00001
1.47133
1
0.999276
1.47368
1
0.6404
1
1.47178
1.21199
1.05158
1.21328
1.06076
1.47784
0.703159
1.47166
1
0.654249
0.9972
1.47191
0.934642
1.47156
1.47109
1.4576
1
1.47473
1.47118
1.47157
1
1.00004
1
1
1.47384
1.32834
1
1
0.660625
0.996296
1
1.4718
1
1.4718
1.47156
1.47595
0.895002
1.47121
1.47291
1.0017
1.22802
1.47702
1.4716
1
1.43413
0.831132
1.4507
0.989827
1.47256
1
1.47106
1.47002
1
0.660083
0.932281
0.700688
1
1.07934
0.996405
1.46741
1
1
0.996663
1
1.22476
1.45668
1
1
1.47019
1
1
1.33705
1.47358
1.45211
1.47076
1.47026
1
1.47237
0.717345
1.47295
1
0.992466
0.672687
1
1
0.746403
1
1.1409
1
1.4736
1
1.46235
1.29278
0.649211
1
1
1
1
1
1.47244
1.01188
1
1.47774
1
1.47091
1.4716
0.999999