/*--------------------------------*- C++ -*----------------------------------*\
  =========                 |
  \\      /  F ield         | OpenFOAM: The Open Source CFD Toolbox
   \\    /   O peration     | Website:  https://openfoam.org
    \\  /    A nd           | Version:  12
     \\/     M anipulation  |
\*---------------------------------------------------------------------------*/
FoamFile
{
    format      ascii;
    class       volScalarField;
    location    "3.1";
    object      T;
}
// * * * * * * * * * * * * * * * * * * * * * * * * * * * * * * * * * * * * * //

dimensions      [0 0 0 1 0 0 0];

internalField   nonuniform List<scalar> 
22702
(
1
1
0.962911
1
1.01893
1
1.11924
1
1
0.886016
1.12054
1.11993
1
1.11869
0.969254
1
1
1
1.12009
1
1.1186
1
1.11939
0.897979
1.11812
0.896745
1
1.11946
0.891565
0.896788
1
1.12069
1
1
1
1.11064
1.11863
1.11952
1
1
0.887812
1
1.06266
1
1.11944
1
1
1
1
0.898939
1
0.897918
1
1.12064
1
1.12129
1
1
1
1
0.888551
1
1
0.894272
1
0.895327
1
1
1
0.887809
1
1.11835
1.07578
1
1.11866
1.12561
0.894602
1.11898
0.898886
1
1.1213
0.897775
1.12019
1.12001
1
1
1
1
0.981574
0.887428
1.12097
1
1
0.89086
1
1.11862
0.891615
1
1
1
1
1.06265
1.12109
0.896186
1
1
1.03179
1
0.896476
1
1.11924
1.12051
1
1
0.882453
0.88032
0.887024
1
1
1
1
1
0.978049
1
1.10343
1.0144
1.11945
1
1.1196
1.12021
1.11848
1.1209
1
0.890048
1
0.891205
1
1
1
1
1.1206
1
1
1
1
1.11914
1
1.00671
1
1
1
1
0.89797
1
1.00294
1
0.900303
1
1
1
1.12054
1
1.11848
0.879093
0.888628
1.11873
1.11849
1
1.02309
1.07124
1
1.12124
0.8978
1.11093
1
1
1
1
1.11873
1.10098
1
1.12038
0.898324
1.12128
1
0.901152
1
0.900886
0.893425
0.999937
1
1
1.12013
1
1
1.11844
1
1.12
1.12036
0.896466
1
1
0.897228
1.1185
1
1
1
1.11847
1
0.894022
1
1
1.11844
1.11876
1.11965
1
1.00001
1
1
1
1.11849
1
0.899237
1.1237
1.11858
1.11873
1
1
1
0.893697
1.11834
1.05856
1
1.11894
0.893588
0.894671
1.11901
1.11878
1
1.1175
0.892004
1.10617
1
1
1
1
1.11843
1
1.07211
1.01263
1
1
1.11851
0.892036
0.931409
1
1.11834
0.889743
1.11825
1
1
1
1
1
1
1
0.895724
0.935391
0.893448
1.11853
1
1
1
1
1.10947
1
0.895811
1
0.887954
0.897642
1.1183
0.894919
1.11866
1
1
1
0.999324
0.899352
0.888308
1
1
0.888069
1
1.12017
0.895271
1
1
1.12129
0.878189
1
1.11847
0.887506
1.11849
1
0.891319
0.999357
1
1
1
0.895015
1
1
1
1
1.00261
1.07596
1
0.894543
1
1
1
1
1
1
1
1.12103
1
1.12137
1
1
1
0.890636
1
1.11891
0.898798
1
1.09401
1
1
1.12079
1
1
1
1.11868
1
1
1.11562
1.12056
1
1.02602
1
1
0.891455
1
1
1
0.890279
1
1
1
1
0.882971
1
1
1
1
1
0.884864
1.00002
1.11835
1
0.999999
1.11839
1.1188
1
1
0.899723
0.940142
1.12047
1
1
1
1.11854
0.888701
1
1.11848
1
1
0.91111
0.907118
1
0.894474
0.890344
1
1
1
1
1
1
1
1.11961
1.03412
1.11285
0.884688
0.971512
1.12101
1
1.11912
1.12018
0.889987
0.92682
1
0.890725
1
1.12341
1
1
1
1
1.11851
1
1
1
1
1
1
1
1.04751
1.12018
1
1.11852
1
1
0.89861
1
1
1
1
1.11848
1.09279
1
1
0.895634
1.11859
1.11852
1
1.11848
1.11852
1.11865
1
0.948722
1
1.11841
1
1.11854
1
0.891457
0.99967
1.12075
1
1
1
1
0.893505
1.11816
1.10844
1
1.11825
1.11856
1.12073
1
1.06034
1.11832
1
1
1.08479
1.01879
1.11847
0.980972
1.11853
1
1.1186
1.11857
1.11871
1.11865
1
1.11301
0.971768
0.964703
1
1
1
1
1.12094
1
1
1
1
1
1.12029
1
1
0.998937
1.11853
1.10368
1
1.09929
1.00001
1
1
1.11849
1
0.998985
1.00108
1
1.11854
1
1.11863
1
1
1.09112
1
1.11869
1.00001
1
1.11828
1
1.11848
1
1
1
1.11844
1
1.11987
1
1.11848
1.12073
1.11868
1.11968
1
1.12078
1.11711
1
0.896734
1.11195
1.088
1
1.11855
1
0.892105
0.887317
1
1
1
1
1
0.89266
1
1.11854
1.03359
1.11853
1
1
1
1
1
1.11856
1
1.11921
1.07427
0.927116
1
1
1.03706
1.03162
1
1
1.04687
1
0.899818
1.11836
1.11838
1
1
1
1.12054
1
1.00001
1.11936
1.11833
0.987874
1
1
0.898564
1.1089
1
1
1
1
1
1.11853
1.12101
1
1.11826
1.11962
1.11859
1
1
1
1
0.895449
1.12041
1
1
1.10897
1.11841
1
1.11212
1.12003
1
1
1
1
1
1.11854
1
1
1
1
1.1203
1
1.11794
0.889825
1
0.88928
1
1
1
0.99907
0.89954
0.999715
1
1
1
1.01795
1
1
0.962926
1
1
1
1
1
1
1
0.999999
0.982385
1
1
0.999306
1
0.893247
1
1
1
1
1.09163
1
1
1
1
0.901663
1
1
1.11228
1.12067
1
1
1
0.966233
1
1
1
1
1
1
0.989829
1.00319
1.11864
1
1
1
1.1196
0.972163
1
1
1
1.11975
1.11899
1
1
1
1
1
1
1
1
1
0.892703
1
1
1.11949
0.893158
1
1.11943
1
0.898368
1
1
0.894512
1
1
1
1
1
1
1
1.11651
1.11845
1
1
1
1
1.10924
1
1.04017
0.895548
1
1
1
1
1
1
1
1.01186
1
1
1.06563
1
1
1
1.09852
1
1
1
1
0.88796
1
1
0.887838
0.888615
1
1
1.11854
1
1.00802
1
1
1
1.08507
0.887562
1
0.88128
1
0.935094
1
1
1
1.11896
1
1
1.11833
1
1
1
1.1183
1
1
1.11825
1
1
0.889617
1
1.03849
1
1
1.12103
1.1207
1.08219
1.10751
1
0.890171
1
1
1.11375
1
0.886893
1
1
1
1.11875
1
1
1
1
1.07448
1
1.11535
1.11885
0.887909
1
1
0.895839
0.897102
1
1
1
1.08614
1.09238
1
1
1
1
1
1
1
1.05487
1.1207
1.00292
1
1.11736
0.889898
1
1
1
1.06873
1
1.02552
1
1.10922
1.11805
1
0.89169
1
1.12158
1
1
1.11836
1.11175
1
1.12213
1
0.891595
1
1
1
1.11902
1.11649
1.10582
1
1.11955
1.11855
1
1.1189
1
1.11813
1
0.888288
0.99378
0.889562
1
1
1
1
1
1.11856
1
1.11855
1
1
1
1.11306
1
0.892425
1.11842
1
0.898158
0.896834
0.888126
1
1.06085
1.01153
1.11916
1.11852
1
1
1
1
1.11843
1
1
1.11849
1.11854
1
1.04472
0.999975
1
0.999074
1.12029
0.952237
1
0.942332
0.900074
0.899338
1.00167
1.11893
1.11708
1.02693
1.11867
1.1189
1
1
1.1205
1.12018
1.11867
1.12118
1
1.11855
0.892851
1.11986
1.11881
1.11995
1.11899
0.961894
0.971068
0.98251
1.11828
0.991726
1.11846
1
1
1.11906
1.11876
1
0.891611
1.11859
1.11863
1
1.11868
1.11866
1
1.1186
0.900803
1.1198
1.12062
1.12092
1.11873
1
1
1
1.11843
1.08025
0.903796
1.11829
0.889619
1.11847
1
1
1
1
1.11895
1.11835
1
1
1.11838
0.890413
1.11871
0.89527
1
1.11784
1
0.88607
1.11893
0.923202
1
1.11841
1.11901
1.11837
1
1
1.05661
1.11888
0.897352
1.11852
1
1.11859
0.962331
1.1184
0.889386
1
1.11828
0.897484
1.11901
0.89678
1
1.11883
1
1.11964
1
1.07189
1.11462
1.09556
0.887067
1
1.11843
1
1.11851
1
1.11881
1
1
1.1186
0.995952
1.11926
0.886361
1.10652
1
1.08645
1
1.11886
1.11871
1.11858
1
1.10769
1.11854
1.11054
1.0767
1.11827
1
1.08166
1
1.11846
1
1.02032
1
1.11075
1
1.11854
1.11352
1.1133
1
1.11706
0.88844
1
0.889164
1
1
1
1.12016
1
1.11877
1
1
1
1.11872
1.11626
1.0994
1.11892
1.11949
0.890416
1.11556
1.12082
1
1.1025
1.11854
1.11669
1
1.1215
1.1214
1
1.12099
1.11901
1.11873
1.11906
1
1
1
1.11844
0.892221
1
1.11854
1
1
0.886616
1
1
1.1186
1.11855
1
1.11871
1.11952
1.1188
0.995012
1.11851
1
1.11847
1.11854
1.09652
1
1
1
1.1188
1.11869
1.11844
0.984542
1
1.11966
1.11867
1.118
1
1.11866
1.11838
1.11863
1.12124
1
1.11866
1.12047
1.10434
1.11844
1.12099
1
1.11977
1.11745
1.1185
1.11904
1.11824
0.890948
1.11841
1.11872
1
1.11862
1.11861
1.1186
1.11858
1
1.11841
1.11861
1
1.11837
1.10118
1
1
1
1.11962
1.11616
1
1
1.06685
1
1.11844
1
1
1.11886
1.11891
1.11852
1.11872
1
1
1
1.08642
1
1.11855
1
1
1.12034
1.1207
1
1.11853
0.88299
1.11859
1.119
0.919795
1
0.885988
1.10478
1.11964
1.11839
1.11826
0.887605
1.11856
1.11898
0.888028
0.889184
1
1.11862
1.11834
1
1
1.11842
1
1.11795
1
1.10518
1
1.05766
1.11853
1.11903
1.08702
1.10864
1.12061
1.1183
1.1132
1
0.888727
1.11859
1.11859
1.11918
1
1
1
1.11942
1
1.11865
1.11817
0.92845
1
1.11847
0.999982
1
1.00001
1.00001
1.11843
1.11918
0.999558
1
1
1.1185
1.1189
1.11862
1.11947
1.11846
0.898264
1.10567
1
1.11782
1.1185
1.11877
1.1186
1
1.11869
1.11564
1.11903
1
1.11882
1.1191
0.959893
1.11856
1.11902
1
1.11881
0.954338
1.11875
0.957994
1.11862
1
1.11848
1.12257
1.11867
1.11883
1.11853
1.11899
1.11896
1.11978
1
0.979557
1.11856
1.11847
0.954794
1.11847
0.997428
1.07831
1.11853
1.11863
1.11981
1
1.11906
1.07889
1.11916
0.978225
1.11926
1.1221
1
0.963287
1
1.11732
1
1.08397
1
1.11255
0.961551
1
1.11886
1.11929
1
1.11908
1.11917
1.1184
1.11607
1.11989
1
1.12111
1
1
1
0.96933
1.11859
1.11849
1.12001
1.11852
1.11697
1.11933
1.11816
1.11879
0.970825
1.00837
1
1
1.12248
1.11868
1.11862
1.11855
1.00001
1.06285
1
1.12065
1.10603
1
1
0.915654
1.11853
1
1
0.894423
1.11846
1
1.1208
1.11849
1.12073
1.11444
1.11846
1
0.888617
1.03012
1.11858
1.1185
1
1.11879
1.11862
1.05991
1.00297
1.02904
1
1.1198
1.11852
1
1
0.890347
1
1
1.1186
1.11858
1.1185
1.11859
1.11871
1.1209
1.11873
1.11781
1.11854
1
0.998899
1.11877
1.11847
0.999225
1.11853
1.11862
0.890703
0.888099
1.11886
1.11791
1
1
1.00039
1.11861
1.1183
1.11849
1
1.11854
1
0.962164
1.11973
1.11697
1
1.05684
1.11895
1
1.12015
1
1.11862
1.07989
1.11845
1
1.11876
1.12049
0.889555
1.11843
1
1.11921
1.1205
1
0.89168
1.11856
1.10427
0.999307
1.11301
1.11861
1
1.00098
1.11853
0.999402
1.11851
1
1
1.11861
1
1.11913
1.11861
0.999019
1.09497
1
1.11868
1
1
1
1
1.11857
1
1
1.11638
1
1.11855
1
1.07964
1.12032
1.11857
1
1
1.00122
1
1.119
1.11847
1.11889
1.11867
1.11888
1.11884
1.1187
1
1.11859
1.11858
1
1.11883
1.11855
1
1.11795
0.978924
1.01657
1.11866
1.11864
1.11854
1
1.11868
1
1.11857
1.11864
1
1.11882
1
1
1
1
1.11848
0.891893
0.999403
1
1.11864
1.12047
1
1.11865
1
1.00143
0.891342
1.11846
0.999887
1
1.11868
0.999535
1.11848
1
0.999933
1
1.11818
1.12046
1.11893
1.11924
0.89754
1.11837
1.11892
1.11876
1.0307
1
1
1.05554
1.11871
0.888162
0.898356
1
1.11881
1.11849
1.11936
1
1
1.11893
1.11888
0.999966
1
1.08795
0.883623
1
1.02236
1.12098
1.11919
0.999499
1.11857
1.11991
1
0.999666
1
1.11868
1.12006
1.05045
1
1.11132
1
1.00059
1.11832
0.889234
1.11798
1.11874
0.999161
0.999975
1.10471
1
0.999915
1
1.11854
1
1
0.883649
1.11861
1
1
1
1
1.11921
1.07069
1
1
0.885528
1.11861
1.07102
1
1
1
1.11368
1.11675
1.12005
1
1
1.11941
1
1.11857
1.11866
1
1
1.1188
1.11863
1.11407
1
1
1.11887
1.11898
1
1
1
1.11953
1
1
1
1.11845
1.1195
1.11895
1
1.1196
1.00001
0.903013
1.11812
1.11821
1
1.12081
1.1151
1.12009
1
1
1.12032
1
1.06384
1.11955
1
0.891992
1
1.11906
1
1
1.12
1
1
1
1.04027
1.11854
0.895826
1
1.11888
1
1
1.11874
1
1.12026
1
1
1.11847
1.11867
1
1.00001
1
1
1
1
1
1
1.11938
1.11871
1
1.12082
0.887697
1.11771
1
1.11819
1.12089
1.11847
1.12057
1.12188
1
1
1.11912
1
1.07843
1.11947
1.11857
1
1.11876
1.11991
1
1.10587
1
1.11814
1.07976
1.11927
0.999297
1.11803
1.10977
1.11844
1.1187
1.01013
1.11851
1.11937
1
1.11852
1
1.11873
1
1
1
1
0.99919
1.11857
1.11866
1.10095
1
1.11935
1
1
1
0.892009
1
1.11597
1
1.10882
1.11254
1
1
1
1.11651
1.12025
1
1
1.11805
0.889337
1.02064
1
1.11997
1.11851
1.1091
1.11575
1.11847
1
1.11903
1
1
1
1
1.11911
1.11884
1
1.11778
1.01692
1.1188
1.11127
1
1
1.11157
1
1
0.894468
1.08585
1
1
1.11822
1
1.11959
1.10928
1
1.10897
0.890487
1.1186
1.11886
1.11864
1
0.895924
1
1
1
1.11876
1.09579
1
1.11955
1.1186
1
1.11865
1
1
1
1
1.1186
0.999797
1
1.11895
1
1
1.11758
1.1186
1
1.12101
1.02491
1.00001
1
1.1183
1
1.11836
1
1.00363
1.11851
1
1.11837
1
1
1.03736
1.11869
1
1
1
1
1
0.998886
0.889018
0.88872
1.00538
1
1.00905
1
1.01023
1
1.11852
1
1.07658
1
1.1185
1
1
1
1.11856
1
1.0948
1.11871
1
1.06432
1.11902
1
1
1.11992
1.11877
1
1
1.01561
0.888035
1
1.11867
1
1
1
1
1.0218
1.11867
1
1
1
0.893713
1
1.1185
1.11857
1.11988
1
1
1
1
1.0642
1.12007
1
1
1
1.1192
1.11843
1.01544
1
1
1
1.11882
1.11844
1
0.891816
1.11859
1.11862
1.11856
1.1179
1.11839
1
1
1.11934
1.11814
1.11839
0.89406
1.01159
1.11886
1
1
1
1
1
1.11858
0.896529
1
1
1.11851
1.05707
1
1.11851
1
1
1
0.895918
1
1
1.03457
1.11847
1.11838
1
1.11751
1.11949
1
1.02141
1
1.11868
1
1.11871
0.891282
1
1
1
1
1.11865
1.00002
1
1
1
1.11657
1
1
1
1
1.11844
0.893869
1.09731
1.11944
1
1.11837
1
1
1
0.99917
1
1.12111
1
0.942779
1
1
1.00001
1.11841
0.89365
1
1.11926
1
1.11777
1.11849
0.891703
1
1
1.1159
1
1
0.891812
1
1.11722
1
1.11395
0.999811
1.1187
1
1
1
1
1.12002
1
1
1.11859
1
1
1
1
1
1
1
1
1.08163
1
1.04165
1.11796
1
1
1
0.890484
1
1
1
1
1.11959
1.11853
1.01697
1
1
1.11882
1
1
1.1188
1
1
1
1
1
1
1.11881
0.932832
1.11853
1.11892
0.999179
1
1
1
1.07356
1
1
1.11811
1.11866
1
1
1
1
0.889295
1
1
1
1.07856
1
1.11845
1.11929
1
1.11892
1
1
1
1.06608
1
1.12072
1
1.11843
1
1
0.998859
1.11848
1
1
1
1
1
1.11858
1.00001
1
0.895473
1.11865
0.89784
1
1.11845
1
0.998821
1
1.11865
1.11911
1
1.11484
0.968497
1.11855
1.11987
1.00001
1
1
0.887792
1
1
1
1.11859
1.07265
1.11835
1
1
1
1
0.999065
1.11811
1
0.888986
1
1
1
1
1
1
1
1.12146
1.11884
1.11921
1
1
0.999103
1
0.995804
1
1
1
0.888331
0.996329
1
0.885944
0.892743
1
1.11862
1.11872
1
1.1184
1.11864
0.886658
1.07978
1
1
1
0.889448
1.11869
1
0.885998
1
1.11952
1.0217
1
1
1
1
1.11861
1.12014
1
1
1.11858
1
1
1.11905
1.11863
1
1.10809
1.11834
1.12006
0.990104
1.1188
1.00215
0.886328
1.09318
1.11834
1
1
1
0.888982
1
0.888304
1.12021
0.989615
1.11845
0.988231
1
1.11876
1.05874
1
1
1.11958
1
1.05294
1.11903
1
1
1.119
1.11647
0.888942
1.0717
0.99997
1
1.07436
1
1.11762
0.984044
1.12142
1.11907
1
1
1
1
1.11445
1
1
1.11872
0.999896
1.11875
1.09658
1.11908
0.894817
1
1
1
1
1.11873
1.00001
1.11842
1
1.11888
1.11854
1.01676
1.11905
1.03738
1.11902
1
1.08365
0.900605
1.11869
1.11855
1.10105
1.02233
1.11993
1.11857
1.11856
1.11843
1
0.977753
1.01954
1
1.11862
1.05752
1.11854
1.00001
1
1
0.899727
1.11809
1.11995
1.09762
1
1.04823
1
1.11935
1.11919
1
1.11816
1.11971
1
1
1
1.1181
1
1.04981
1.11802
1.08452
1
1.1188
1
1
1
1
1
1
1
1
1
1
0.893492
1
1.11026
0.890512
1.07362
0.999591
1.11752
1
1.06415
1
1.07954
1.10123
1
1.00058
1.12033
0.976125
1
1.11974
1.11488
0.983331
1
1.11897
1.11872
1.11934
1
1.11857
1.11928
1.11854
1
1.05715
1
1.00002
1.11861
1
1.11872
1.01915
1.11803
1
1
1.11869
1.11975
0.904208
1
1.11852
1.09173
1.1184
1
1
1.1204
1.11844
0.999498
1
1.10817
0.999087
1.11869
1.00001
1
1
1
1
1.05785
1
1.09474
1.11866
1.091
1.119
1
1.00063
1
1
1.11933
1
1.11828
1
1
1
1
1
1
1.01621
1.06516
1
1
0.890734
1
1.11936
0.895423
1.12099
1
1.0638
0.99993
1.1188
1.07941
0.897858
1.06801
1.00001
1.11873
1.119
1
1.07494
1.11996
1.11847
0.999546
1.1184
1.11582
0.891164
1
1
0.999291
1
1.11818
1
0.895246
1.1193
1
1
1.10439
1
1.11844
1
1.11858
1
0.901964
1
1
1.1191
1.11902
1.11875
1
1.11818
1.11849
1.11648
1
1
1.11792
1
0.921478
1
1
1
1.11928
1
1.11862
1.08091
1.11884
1
1.11856
0.999826
1
1
1
1
1
1
0.915861
1
1
1.1185
1
1.11953
1.11838
1
0.888096
0.891632
1
1.11895
1.02029
0.892544
0.883557
1
1.11844
1
1.12002
0.888682
1.00037
1
1
0.999855
1
1
1
0.999974
1.05349
1.1186
1
1
1.11877
1.07461
1
1.10679
1.11795
1.11879
1.05336
1.11804
1
1.11856
1
1.11604
1
1.11998
1.11836
0.999033
1.11901
1.12013
1
1
1
1
1
0.977846
1.12066
1.00001
1.00001
0.894449
0.999996
0.888645
0.894322
1
1.11864
1.11859
1.11862
1
1.11869
1
0.893544
1
1
1.11838
0.947426
1.11913
1
1.11894
1
0.997293
1.11858
1
1
1
1.11826
1
1.11886
0.889219
1
1
1.07285
1
1
1.06689
1
1
1.11869
1
1
1
1
1
1.11901
1.11881
1
1.1191
1.11829
0.895545
1.05908
1.11835
1
1
1.10803
0.999726
1
1
1.1187
1.11937
1.08296
1
1.11861
0.886557
1.11112
0.999824
1
1.11911
1.00001
1.11863
1.09866
1.09248
1
1
1.11867
0.908825
0.889857
1
1.11874
1
1.11827
1
1.07452
1
1
1.1184
1.07934
0.887454
1
0.999513
1
1
1.00721
1.05307
1.11861
1
1.12004
1
1
1
1
1
1
1.01934
0.89102
1
1
1.01331
1
1
1
1
1
1.11839
1
1
1.11864
1.11839
1.08884
1
1
1
0.946993
1.11959
1.08465
1
1
1
1
1.11867
1
1
1
1.11857
1
1
1.08914
1.12356
1.0123
0.923543
1.11788
1.08619
1.11875
1
1.06269
1
1
1
0.888684
1.00075
0.889209
1
0.888054
0.8854
1
0.891365
1
1
1
1.05696
1
1.11863
1.11879
1.00039
1.05918
1.10228
0.887571
0.927962
0.968951
1
1.1185
1.11998
1.11849
1.11847
1.10281
0.969354
1
1.10375
1
1.11442
1
1
0.999014
1.00266
1
1
1
1.11939
1
0.888751
1
1.11889
0.896566
1
1
1.11847
1
1.11843
0.999874
1
1
1.1188
1.11206
1
1.12306
1
1
1.00442
1
1.05418
1
1
0.893946
1
1
1.11792
1
1.11874
1
1.00001
0.893306
1
1
0.904042
1.00031
1
1.11959
0.89084
1.11888
0.890326
1.11862
1
1
1
1
1
1
1
1
1
1
1
1.11407
1
1.11905
1.12045
0.89184
1
1
1
1
1
1
1.11566
1
1
0.891825
1
1
1.11995
1
1
1.04814
1.10108
0.891084
0.889832
0.907539
0.928388
1
0.999062
0.90057
1.00012
1.1107
0.999136
1
1
1.1188
1
1
1
0.931702
1
1.04574
1
1
1.05206
1.11842
1
0.890304
1
1
1
0.999082
1
1.11874
1.11871
1
0.889012
1
1.06707
0.88987
1
0.968695
1
0.998795
0.882361
1
1
1
0.998812
0.888999
1
0.887913
0.99955
1.0655
1.10753
0.889727
0.89563
1
0.997351
1
0.999613
1
1.1184
1.11839
1
1.00614
1.11862
1.11856
1
1
1.1187
1
1
1.00001
1
1.11949
1
1
1.00519
1
0.999593
0.902503
1
1
1
1
1
1.11993
1.01243
1.00002
1
1
1
1
1
1.00001
1
0.895262
1.03088
0.999596
1.11513
1.11963
1
1.00456
1.11866
1.10726
1
1
0.890178
1.11863
1
1.11991
1
1.11809
1.08339
0.896239
1
0.890651
1.11196
0.999905
1
0.891217
0.895476
1
1
1.10114
1
0.999999
0.887523
1
1
1
1.04125
1
0.891556
1.11893
1
1
1
1
1.1186
1
1
1.11982
1.10729
1
1
1
1.12013
0.884191
1
1.11905
1.11856
1
1.09711
1
1.00001
1
1
1.11133
1.00564
1
0.895487
1.06627
1
1
0.999146
1
1
1.11928
1
1
1.00001
1
1.11949
1
1
1
1
1
1
1
1.05681
1
1.11889
1
1
1.1189
1
1
1
1.11859
1.11834
1.01304
1
0.99931
1
1
1
1
1.12022
1
1
1.11883
0.891805
1
1
1
1
1
1
1.09783
1
1
1.11849
1.11916
1
1
1
1.11922
1.11913
1
0.999918
1.11847
1
1
1
1.00001
0.896132
1.00862
0.998898
0.998888
1
1
0.890677
1.11881
1
0.883917
1
1.11812
1.11416
0.892555
0.999831
1.11866
1.11931
1.11811
1
1
0.980814
1.11116
1.10029
0.891924
1
1
1
1.1193
1.11873
0.887062
0.999233
1
1.11879
0.893585
1
1.11499
0.890308
0.994007
1.00176
1
1.11808
1
1
1
1
1
1
1.00003
1.11094
1
1
1.12007
1
1
1
1.11872
1
0.894324
1
1
1
1.04374
1
1
1
1
1
0.941169
1
0.896462
1
1.11879
1.00001
0.962936
0.965388
1
1.00104
1.06463
1
1
0.888416
1.11875
1.11884
1.11875
1
0.884133
0.885017
1
1.1185
1
1
1
1
1
1.00001
1
0.893739
1.08069
1
1
0.890871
0.997665
1
1
1
1
0.882556
1
0.906328
1
1
1.12108
1
1
0.886671
1
1.11859
1
0.887036
1
0.89031
1
1.00223
1.11879
1.12313
1
1
1.12013
1
1
1.03071
0.999104
1
0.99947
1
1.11962
1
0.891312
1
1.12029
0.999656
1
1
0.939236
1
0.999706
0.886386
1.11841
1.04546
1
1
0.970195
1
1
1
0.938052
1
1
1
1.11846
1
0.89648
1
1
1
1
0.890004
1.11865
1.11169
0.889471
1
1.11726
1
1
1.11853
1.11966
1.10155
0.889653
0.999333
0.999784
1
1.11858
1
1
1
1
1.11862
1.00001
1
1
1.11918
1
1
1.11871
0.889907
1
1
1
0.894995
1
1
1
0.999612
1
1
1
1
1.09258
1
1.11996
1.11864
1.12083
1.11855
1.11896
1.11843
1
1.11818
1
1.11868
1.11861
1
0.999673
0.888882
1.10301
0.999974
1
1
1
1
1.00053
1
1.01901
1
1
1
0.953912
1.11857
1.11854
1.11843
1.1025
0.999965
1
1.00641
1.11914
0.999403
1.01828
0.999182
0.893336
1
1.00001
1
1
1
1
1
1.1184
0.89521
1.11842
1.11846
0.998684
0.88379
1
1
1
1.11865
0.887801
1.10594
0.890481
1.1187
1.11769
0.89209
1.11823
1.00683
1
1.11945
0.944989
1
0.999674
0.891097
1
0.89385
1
1.11845
1.1185
0.926232
1
1.11936
0.893945
1
0.88887
1
1.11862
1
1
1.11758
1
0.952878
1
0.999916
0.894059
1.11796
0.999849
1
0.891587
1
1
1
1
1.06892
1
1.11887
1
1
1.12272
1
1
1.11905
1
0.89365
1
0.897084
1
1
1
1
1
1.11397
1.07169
1.1185
1
1.11853
1.11113
0.884001
0.890155
1
1
1.11915
1
0.892566
1
0.997688
1
1
1.11868
1
1.11819
0.889684
1.12006
1
0.890763
1
1
1.11788
1.11821
1
1.00001
1
1.11969
1
1
0.893136
0.999836
0.897701
1
1
1
1.11897
1.11859
1.11962
1
1
0.886421
1
1.11986
1
1
1
1.11587
1.11859
1.1186
0.884401
1.11994
1.11848
0.898553
1.11942
1.00001
0.898897
1.00347
1
1
1.11874
0.881
1.07901
0.880514
1.11847
0.999245
0.886784
1.11919
1
1
1
1
1.11859
1.12001
0.889071
1
1.00001
0.891538
1.00001
1
0.889308
0.891522
1.08559
1.11847
0.999565
1.11856
1
1.12
0.946869
0.885661
1.11844
1.12156
1
1.1184
1
1
1.11878
1
1.09244
1.11961
1
1
1
1
1.11859
1.11733
1.1181
1
1
1.11861
1.12029
1.11919
1
1.11851
1
1
1
1
1
0.891325
0.955049
0.888407
1
1
1.11904
1
1
1.1176
0.885811
1
1.11874
1.11735
1.11371
0.881213
1
0.882916
1
1.00001
1.12003
1.05923
1.11966
1.10952
1
0.894638
1
1.11834
1.08732
0.894825
1
1
1
0.946
1
1
1.12144
1
0.895684
1.11871
1
1
1
1
1
1.09741
1.02876
1
1.11844
1
1.11922
1
0.99922
1
1.11842
1.11953
1.11834
1.11934
0.999884
1.11927
1
1.11845
1.11861
1.10174
1
1
0.887952
1.12
1
1
1.11924
1.11812
1.11893
1
1.11859
1
1
1.00001
1.11994
1.11792
1.03675
1.02727
1.11838
1.11857
0.906221
1
1
1
1
1.00001
1.04498
1
1
1.10495
0.901127
0.999987
1
1.11862
0.999965
0.999947
1.01971
1.1077
1.12073
0.975879
1
0.893959
1
1.00136
1.11879
1.11896
1.12064
0.999744
1
1
0.888723
1
1
1.11856
1.01407
1
1
1
1
1
1
1
0.999982
1.11971
1
1
1
1
1
1.07646
1
1.06053
1
1
1.11854
1.11918
0.891556
0.999644
1
1
1
0.889416
1.11882
1.11857
1
1
1
1
1
1
1
1
1.1191
1.11696
0.890802
1.01448
0.894508
1
0.883897
1
1.11872
1.03606
1
1
0.899348
1
1.11403
0.948844
0.99913
0.885224
1
1
1.11989
1.00001
0.999275
0.886281
1.1196
1.11995
1
1
1
1
1.11128
1
1
1.11856
0.999719
1.11921
1.00003
1
1
0.891222
1
1
1.11851
0.885071
0.937743
0.896157
1.11851
0.999797
1
1.11921
0.888885
0.88898
1.00449
1
1
1.11998
1.00001
1.05894
1
1
1.12016
0.893248
1
1
1.00004
1.11941
1.00003
1.11602
1
1.00001
1
1
0.90505
1
0.94381
1.00001
1
1.11839
0.891304
1
0.933451
0.942306
1
1
1.11847
1
1
1
1.11873
1.11854
1.00001
1.11923
1.12004
0.933599
1.11876
1.11019
1
1
1.11751
1
1
1
1
1
1.12036
1.11867
1
1
1
1.11824
1.00006
1
0.887754
0.912477
1
1.00001
1.04598
1
1
0.968776
0.891275
1
1
1
1.11939
1.1097
1.11855
1
1
1
1
0.890545
1
1.114
1
1.11723
0.890013
1.11719
1
1
1
0.882795
1
1.11913
1.00001
1
0.894036
1.04758
1
0.999903
1.12074
0.884781
0.888603
1
1.11951
0.891874
0.889174
1
0.891399
1
1
1
1
0.878522
1
1
1
1
1.11936
1
1.09352
0.889459
1
1
1
0.892796
1.11857
1
1
0.999038
1.11811
1
1.1185
1.11939
1
1
0.914304
0.889426
1
1
0.892433
1.03929
1.05764
1
1
1.12025
0.999239
1
0.999351
1.12038
1
1
1
1
1
1
1.1189
1
1.04519
1.03967
0.905123
1.1062
1
1.11861
1.11845
1
1
1
0.975666
0.893224
1
1.06372
0.999905
1.1054
1
1
1
1
1
1.00189
1.05571
1.11882
1.11832
1
1.11835
1
0.886641
1
0.999252
0.999934
1
0.886164
1
0.890911
1.00001
1.11906
1.11968
0.887111
1.11893
0.898367
0.99893
1.09054
0.890229
1.08747
1
1
0.999551
1
1
1
1.00002
1
0.889987
1
1
1
1
0.999885
1.11813
0.943125
1
1
1
1.0106
1
1
1
1.07084
0.927663
1
1
1
1.01728
1.12002
1
0.881896
1
1.11895
0.972388
0.890955
1
0.889238
1
1
1.11287
0.999494
1.11421
1
1.00252
1
1
1.11861
1
1
1
1
1.02535
1
1.1187
1.11899
1.12021
0.891217
1.11838
0.999195
1.09823
1
1
0.881633
1
1
0.891083
1.11788
1
1
0.999983
1
1
1
0.887583
0.886708
1
1.12024
1
1.05736
1.11848
0.88904
1.10193
1
1
0.895983
1
1
1.11859
1.11852
1.04689
1
1
1.0005
1.11955
0.890038
0.888954
1.11978
1.11853
1.08253
1.05042
1
0.969337
1
1
1
1.10956
1.12024
1.11929
1
1
1.11837
0.888468
1.10902
0.885214
1
0.891663
1
0.887931
1.11851
0.88601
1
0.993839
0.901721
1
1
1
0.954312
1.1103
1.11855
1.11914
1.11916
1
1
1.11991
1
1
1.11905
1
0.880083
1
0.889571
1
1.12006
1
1
1.00718
1.09213
1
0.999657
0.886953
1.11833
1
0.888391
1.02511
1
1
1.09037
1.11845
1.1184
1
1.1188
1.03666
1
1.00671
1.11855
1
1
1
1
1.11844
1
0.893748
1.11914
0.887752
0.890687
0.953597
1.11872
1.04227
1.11832
1
1.11971
0.999281
1.00001
1.11854
1.11973
1
1.11894
1
1.11838
1
1.11975
1
1.00001
0.999999
1.11892
0.885492
0.889595
0.999347
1
1
1
0.888764
1
1.08143
1
0.883638
1
1.04982
1.1186
1.11821
1
1
1.00001
0.999835
1
1.11957
1.11874
1
1.05494
1.11866
0.955567
1.11852
1.00002
0.883987
1.02867
0.881021
1
1
1.02234
1.12075
1
1
1.01197
0.999587
1
0.894496
1
0.93677
1
1.11889
1
1
0.886673
1.03132
1.01921
0.999569
1.11883
1.11875
0.932261
0.999454
0.887835
0.884584
0.886278
1
1
1
0.999747
0.917901
0.896243
1
1.11856
0.999925
1.11857
1.11871
1.11963
1.11848
1
0.888943
1.11869
0.895845
1
1.11831
1.11995
0.999049
0.943311
1.11838
1.09085
1
0.888875
1
1
1.11803
1
1.00766
1.11825
1
0.89055
0.889202
1
1
0.88622
0.882406
1.11857
1.00001
1
0.88765
0.882127
1.11879
1.11706
1.11189
1.11965
1.03577
0.995821
1.05227
1.12001
1.09803
1
1.06591
1
0.887136
0.960098
1
0.887848
1.11846
1.0065
1.11881
1
1.11867
1.11987
1
1.119
1.11845
0.891704
1.1188
1
1.12294
1
0.924161
0.889813
1.119
1
1
1
0.886712
1.11878
1.1188
1
0.892565
1
1
0.890188
1.00001
0.887648
1.11985
1
0.947391
0.88284
1
1
1.07001
1
1
1
1.02204
0.893066
1
1
1
1.11876
0.88635
1
1.1184
0.893152
0.879547
1
1
1.11963
1
1.11842
1
1.11846
0.895892
1
1
0.889925
0.945384
0.890558
1
1
1
1
1.11845
0.883231
1
0.884771
1
1.11816
1
1
0.980334
1
1
0.9478
0.999912
1.00001
1
0.887937
0.894165
1
1
1
1
0.94105
1.11821
1.11963
1
0.890195
0.888214
0.975489
0.893909
1
0.947393
1
0.888672
0.995544
1
1
0.893159
1
1.11881
1.11636
0.892367
1
1
1
1.11633
1
1.01446
0.953476
1.04147
0.894062
1.04964
0.886975
1
1
0.917279
0.970919
1
1.01226
1
1
0.887126
1
0.981254
1.01446
0.885226
1
1.09771
0.928225
0.96592
1
1
1
0.895871
1
0.886015
0.890404
1
0.955189
0.890026
1.02046
0.924245
0.885294
1.11852
1
1.11842
1.06794
0.914772
1.11855
0.888
0.99971
1.11956
1
1
1.11862
1
0.914976
1
1.01959
1
1
1.11856
1
0.925733
0.944282
1.12091
0.982288
1
0.926378
1.1185
1.11876
0.971281
1
1.11867
1.03381
0.958572
1
1.00619
1
0.897945
1.05439
0.92869
0.91773
1
1
0.891915
1.11835
0.99267
0.891282
0.886867
0.960726
1
1.00822
1.1196
1.11887
1
1
1
0.893167
1.05999
1
1.11874
1.11388
0.886879
0.999999
1.02902
0.96676
1.07316
1.10669
1
1.0133
1
1.00002
0.884873
0.956737
1
1
0.943103
0.886799
1.0133
1
1
0.885244
1.05867
1
1.11591
1
1.01104
1.06792
1
1.11622
1
1
1.11925
1
0.885045
1.11988
0.893129
1.03425
1
0.893257
0.999976
1
1.00001
1
0.935314
1.00812
0.89222
1.08959
1.12024
0.884092
1
1
1
1
1
0.992925
0.894833
1.01712
0.892397
0.889954
1.02211
1
0.999944
1.03327
1
1
0.887995
0.998925
1
1
1.03747
1
1.11916
1
1.1195
1.02791
1.00856
0.888575
1
1
0.891898
1
1
1
1
1.11833
1.01242
0.999444
1
0.888342
1.01514
1
1
1.08108
1
0.887493
1.11889
1
1
1
1.11879
0.889311
0.965306
0.885357
1.09241
1.11875
1
1
1.11851
1
0.881923
1
1
1
1
1
0.926175
1
1.11923
1
1
1.04407
1.11918
0.890851
0.960271
1
1.11849
1
1
1
1
1
1.11859
1.11923
0.883486
1.11863
0.885706
1
1
1.11876
1
1.1198
1.00328
1.00752
1.01833
1.11883
1.01931
1.08349
0.884087
1
0.887779
0.99514
1
1.11842
1
1
0.883671
1.11907
1
1.11878
1
1
1
1
1
1
0.891484
1.11979
0.955665
1.11851
1
0.888973
0.891428
0.914643
1.12035
1.11823
0.991939
1
0.93573
1
1.05142
1
1.11849
0.887043
0.889875
0.953806
1
1.11851
1
1.02273
0.900151
1
1.12039
1.10854
0.999681
1
1.1186
0.890755
1.11956
1.11858
1.12077
0.89352
1.02741
1
1
0.881662
1
0.942283
0.946785
1
1.00001
1.11885
1
1.1181
1.02361
1
1.01405
1.12082
1
0.888674
1
0.930398
1
1
1.09886
1
0.940276
1
0.898191
1.0107
0.986173
0.882684
1.11887
1.0994
1.11951
0.891517
0.905391
0.998853
1
1
0.90169
1.11256
0.891677
0.999991
1
1.11872
1.11915
0.974281
1
0.891195
0.91015
1.08178
0.999686
0.888189
1
0.88927
1.03292
0.895347
1
1.00002
0.946907
1.11958
1.11913
0.953777
0.999886
1
1
0.916245
1
0.888577
1
0.885505
0.894579
1
1
1.00001
0.895443
1.11857
1
1
1.00002
1.00001
0.89416
1.1191
1.11856
1
0.89285
1.11988
1
1.02982
1
1
1.11856
0.886816
1
1
0.88716
0.914631
0.893029
0.888781
1
0.909809
0.999203
1.02611
0.88911
1
1
1.03741
1
1.10651
1
1
1.08678
0.898512
1
0.891744
1.03745
1.11859
1
1
0.889885
0.897333
0.884339
0.921668
0.89566
1.09194
0.99983
1
1
1
1
1.11886
0.893315
1
0.981091
0.999908
0.999637
0.999982
0.928532
1.03744
1
1.11873
1.11853
1
1
1.11557
1.00001
1
1.11844
0.888954
1.1163
1
0.88846
1.1186
1.00001
1
0.94896
1
0.884015
1
1.11946
1
1
1.11904
1
1
1.11777
1
1
1
1.12018
1
0.922007
0.914363
1
0.885459
1.11825
1
1
0.997539
1
1.12005
1.07215
1.09716
1
1
0.892997
1
0.890616
1.11865
1.1199
1.11911
1
1.11988
0.890604
1
0.89027
1.09695
1.10906
1.1193
1.11887
0.929342
0.889689
1
1.08395
1.11927
1.11933
1.11871
0.915624
1.04539
1
1.09053
0.916851
1
1
1
1.00001
0.968988
1
1.11745
1
1
1
1
1
1
1.00002
1.1179
1
1.11904
1.09044
0.888684
1.12037
1.01342
1.06284
1
1.11892
1
0.887853
1
1
1
1
1.10253
1
0.881072
1.11894
0.878799
1.11843
1.09652
1.06442
1
1.02524
1.05996
0.998696
0.893085
0.928819
1.00001
1
0.977617
1
0.883005
1.11914
0.886824
0.980741
0.957825
1
1
1
1.00431
1
1
0.892703
0.999104
1.11964
1
1.11879
1
0.892022
1
1
1.11852
1.11876
0.883267
1
1.11926
1
0.940729
0.88642
1.11914
1.10744
1
1.02257
1.1187
0.999615
1
1.0544
1.10543
1.11873
0.998685
1
0.999999
1.10209
1
1
1
1.11859
0.999569
1
1
1.11852
1
1
0.891411
1
1
1
1.11913
1
1
0.957027
1.03905
1.10801
0.926993
1
1.11847
1
1.04374
1
1.11914
0.999226
1.11854
1
0.890215
1
1.08849
1
1
1.11166
1.00001
1.1187
1
1.11805
0.901264
0.892736
1.11943
1
1.10185
1
1.11924
1
1
1.00001
1.11893
1.11878
1.03556
1.11844
0.998863
0.886341
1.11877
0.961144
1
1.11664
1
1.11838
1
1.11907
1.11934
0.998983
0.885495
1
1.11839
1
1.01238
1
1
0.999419
0.921978
1.10703
1
1.10986
1
0.960355
0.885879
1.11886
1.11923
0.895002
1
1.1191
1.12016
1.11928
0.900195
1.11852
0.884851
1.11913
1.11953
1
1
1.11858
1
1
1
1
0.893146
1
1
1.11941
1.11844
1
1.11883
1
1.12098
1.1196
1
1.09917
1
0.887532
1.119
1.09063
1.04121
0.879349
1.1185
1
1
0.89061
1
1
1.11851
1
1
0.929767
1
1.1186
1.00003
1.1186
0.880751
1.1194
1
1.11873
1.11463
0.970249
1
1.11826
0.928251
1.11993
1.08731
1.11848
1.11841
0.999275
1.1189
1.11849
1.11856
1.11889
1.00032
1
0.891782
1
1.11953
0.951658
1.10917
1
1.11659
1
1
1
1
1
1.11812
0.883952
0.88302
1.11909
1.1187
1
1
1
1
1
1.11772
1.10952
1.11836
1.00457
1
1
1
1.00001
1.11826
1.11841
1
1.1199
1.11955
0.897103
1.08563
1
1.11858
1.11878
1.11778
0.99937
1.11876
1.11895
1
1.10612
1
1
1
1
1
1
1.11858
1.12045
1.11151
1.1187
0.883898
0.905715
1.11859
1.11839
1
0.888677
0.984951
1
1.05975
0.881921
1
0.999842
0.99951
0.889193
1
1.11844
1
1
1
1.11945
0.988796
1
1.11855
1.11859
1
1.11906
1
1
1.11861
1
0.887764
1
1.11873
1
1
0.8946
1
1.11872
1
0.889109
0.885911
1
1.11411
1
0.88406
0.968108
1
1.11879
1
1
1
1.11886
1
0.889434
1.01739
1.11925
1.11898
1.11863
1.01431
1.11902
1.11836
1
1
1
1
1
1.1185
1
0.999798
1.11978
1
0.881771
1
1.11854
1.05986
1.01731
1.05964
1.01927
1.11571
0.907266
1.11845
1
0.893538
0.999175
1.11861
0.982606
1.11868
1.11875
1.11656
1
1.11932
1.11852
1.11852
1
1.00001
1
1
1.11926
1.08646
1
1
0.887021
0.999024
1
1.11848
1
1.11849
1.1187
1.11881
0.967297
1.11856
1.11881
1.00186
1.06091
1.11963
1.1188
1
1.11033
0.94893
1.11784
0.996043
1.11875
1
1.11865
1.1187
1
0.890089
0.982434
0.909014
1
1.02271
0.999002
1.11873
1
1
0.999121
1
1.06289
1.11155
1
1
1.11866
1
1
1.08799
1.11869
1.11431
1.11857
1.11891
1
1.11797
0.91195
1.11846
1
0.999323
0.889309
1
1
0.926062
1
1.03923
1
1.1187
1
1.11654
1.07862
0.890361
1
1
1
1
1
1.11871
1.00318
1
1.1196
1
1.11854
1.11856
1
1
0.993424
0.999956
0.883082
0.882345
0.918851
1.02597
1
0.999547
0.893741
1.00001
1
1.11848
0.982124
1.11137
1.10133
1
1
1
1
1
1.11862
1.11845
1
1.11896
1
1.11977
1.0819
0.998853
1
1
1
1.07191
1
0.989103
1
1.11884
1
1
1.11856
1
1
1
1
1
1.11874
0.890364
0.998867
1.10745
1.11853
1
1.11866
1
1
1
1
0.902718
1
1.1185
1.11854
1.11857
1.11974
0.986261
1
1.10169
1.03097