/*--------------------------------*- C++ -*----------------------------------*\
  =========                 |
  \\      /  F ield         | OpenFOAM: The Open Source CFD Toolbox
   \\    /   O peration     | Website:  https://openfoam.org
    \\  /    A nd           | Version:  12
     \\/     M anipulation  |
\*---------------------------------------------------------------------------*/
FoamFile
{
    format      ascii;
    class       volScalarField;
    location    "16.4";
    object      p;
}
// * * * * * * * * * * * * * * * * * * * * * * * * * * * * * * * * * * * * * //

dimensions      [1 -1 -2 0 0 0 0];

internalField   nonuniform List<scalar> 
9801
(
0.612595
0.619241
0.632095
0.641839
0.646007
0.648412
0.649977
0.650533
0.650812
0.651886
0.653993
0.6567
0.660594
0.669035
0.683011
0.6923
0.696593
0.699331
0.700913
0.700849
0.701019
0.702392
0.704779
0.707908
0.71246
0.723881
0.738783
0.747002
0.751126
0.753857
0.754358
0.753452
0.753927
0.756034
0.759017
0.762837
0.770615
0.787489
0.801279
0.807882
0.811504
0.812824
0.810878
0.810312
0.811713
0.814827
0.81894
0.824562
0.839937
0.860737
0.871739
0.877056
0.879933
0.876994
0.873464
0.873799
0.877145
0.881469
0.88727
0.901334
0.927591
0.944928
0.953403
0.958807
0.956266
0.946423
0.943989
0.947465
0.953863
0.961815
0.978591
1.012
1.03589
1.04822
1.05591
1.05441
1.03877
1.03005
1.03297
1.04256
1.0558
1.09162
1.14014
1.16709
1.18277
1.19505
1.19513
1.17164
1.15392
1.15927
1.18068
1.23166
1.32049
1.3916
1.45185
1.51868
1.52932
2.42404
11.4234
0.618785
0.627021
0.638753
0.646533
0.651354
0.654826
0.657339
0.65691
0.655724
0.65725
0.660007
0.663093
0.666807
0.675839
0.688731
0.696822
0.701771
0.705431
0.707727
0.705663
0.704677
0.706805
0.710047
0.713612
0.71823
0.729983
0.743775
0.751586
0.75638
0.760041
0.760434
0.756348
0.756669
0.759817
0.763724
0.767929
0.775151
0.791469
0.805261
0.812464
0.817029
0.819958
0.815532
0.811738
0.813736
0.818049
0.822872
0.828436
0.84273
0.863258
0.875115
0.881506
0.886126
0.884042
0.875283
0.874537
0.878945
0.884205
0.890187
0.90352
0.929802
0.947341
0.956563
0.962819
0.963135
0.950504
0.944844
0.94871
0.955978
0.964131
0.981261
1.01452
1.03808
1.05025
1.05895
1.0628
1.0466
1.03152
1.03509
1.04546
1.05958
1.09151
1.13476
1.16259
1.1804
1.19671
1.20551
1.18082
1.15775
1.16523
1.18828
1.22531
1.29321
1.35544
1.40946
1.46355
1.45534
2.32047
11.6086
0.621228
0.62974
0.641376
0.648651
0.653238
0.656819
0.659628
0.660002
0.658713
0.659966
0.662654
0.665849
0.669598
0.678536
0.691241
0.698978
0.703789
0.707546
0.710201
0.708674
0.707386
0.709324
0.712557
0.71623
0.720838
0.732353
0.745998
0.753647
0.758474
0.762361
0.763376
0.759563
0.759603
0.762575
0.766465
0.770682
0.777229
0.792875
0.806804
0.814192
0.819105
0.822705
0.81944
0.815257
0.816906
0.820977
0.825687
0.830974
0.843867
0.864045
0.876248
0.883078
0.888244
0.887997
0.879419
0.877282
0.881075
0.886646
0.892941
0.904972
0.929745
0.947622
0.95735
0.964125
0.967068
0.956873
0.94861
0.950687
0.957574
0.965648
0.980512
1.01143
1.03571
1.04962
1.05984
1.06759
1.05646
1.03765
1.03716
1.04724
1.05992
1.08311
1.12691
1.16349
1.18511
1.20166
1.21357
1.19583
1.1682
1.16656
1.18819
1.21868
1.27459
1.34022
1.39329
1.44652
1.44579
2.31886
11.627
0.624567
0.633524
0.644955
0.652053
0.65649
0.660006
0.663078
0.664562
0.662978
0.663531
0.665893
0.669096
0.673175
0.682261
0.694586
0.702215
0.706929
0.710665
0.713794
0.713107
0.710993
0.712318
0.715269
0.719027
0.724048
0.73555
0.749124
0.756915
0.761785
0.765827
0.767883
0.764091
0.762714
0.764857
0.768442
0.772853
0.779562
0.795115
0.809791
0.817554
0.822669
0.826952
0.825314
0.819333
0.819252
0.822525
0.82711
0.832725
0.845206
0.865756
0.87892
0.886154
0.89169
0.8939
0.885587
0.880577
0.883036
0.88802
0.894371
0.905486
0.929517
0.949457
0.960299
0.967532
0.972808
0.966131
0.953056
0.95209
0.958314
0.966469
0.978713
1.00767
1.03609
1.05215
1.06283
1.07197
1.06902
1.04797
1.03928
1.04682
1.05936
1.07659
1.11466
1.15688
1.18223
1.19933
1.21481
1.21264
1.18662
1.17216
1.18259
1.20939
1.24676
1.30398
1.3555
1.40361
1.42065
2.37913
11.6742
0.627316
0.636994
0.648301
0.655167
0.659525
0.663008
0.666111
0.668021
0.666475
0.666514
0.668658
0.671682
0.675816
0.685281
0.697578
0.705131
0.709824
0.71357
0.716856
0.716887
0.71417
0.714968
0.717698
0.721239
0.726191
0.737816
0.751879
0.759948
0.764861
0.768933
0.771704
0.768393
0.765671
0.767412
0.770833
0.775015
0.781343
0.79679
0.812451
0.820642
0.825808
0.830179
0.830162
0.823331
0.82194
0.825062
0.829506
0.834812
0.846123
0.866663
0.880962
0.888684
0.894374
0.89833
0.892377
0.884048
0.884671
0.88926
0.895434
0.90495
0.927492
0.949931
0.962333
0.97012
0.976441
0.975892
0.96119
0.953637
0.957963
0.965995
0.976234
1.0002
1.03287
1.05255
1.064
1.07389
1.07973
1.06341
1.04481
1.04464
1.0564
1.07105
1.09854
1.14366
1.17849
1.2002
1.21779
1.22842
1.2115
1.18893
1.18297
1.19933
1.22824
1.27362
1.32411
1.3646
1.38466
2.4238
11.7153
0.630199
0.640138
0.652044
0.659038
0.663351
0.666803
0.669877
0.671839
0.670223
0.669806
0.67173
0.674588
0.678323
0.687673
0.700924
0.708852
0.713511
0.717186
0.720441
0.721021
0.717957
0.718139
0.720628
0.723944
0.728196
0.73917
0.754589
0.763492
0.768564
0.772603
0.775718
0.773344
0.769221
0.770202
0.773443
0.7775
0.78311
0.797692
0.814459
0.823535
0.829046
0.833547
0.835447
0.829095
0.824729
0.826764
0.831056
0.836314
0.846253
0.866767
0.882823
0.891503
0.897648
0.902805
0.901423
0.890205
0.885748
0.889246
0.895514
0.904229
0.924652
0.950043
0.964656
0.973071
0.979877
0.984483
0.973693
0.959065
0.957781
0.964869
0.974061
0.99153
1.02579
1.05309
1.06727
1.07731
1.086
1.0797
1.05663
1.0474
1.0535
1.0662
1.08408
1.12161
1.16449
1.19336
1.21413
1.23235
1.23476
1.21246
1.19506
1.19512
1.21187
1.24215
1.28784
1.32839
1.3494
2.46584
11.7556
0.632985
0.642426
0.655101
0.6625
0.666788
0.670187
0.673226
0.675221
0.673477
0.672674
0.674507
0.677373
0.68087
0.689341
0.703307
0.711987
0.71682
0.720503
0.72378
0.724984
0.721571
0.72076
0.723009
0.726397
0.730571
0.740431
0.756295
0.766206
0.771697
0.775841
0.77938
0.778866
0.773141
0.77212
0.774987
0.779232
0.785008
0.798746
0.815857
0.825763
0.831771
0.836571
0.840441
0.837248
0.82911
0.828016
0.831698
0.837018
0.84612
0.866245
0.884382
0.893906
0.900253
0.905755
0.90872
0.898971
0.889596
0.890161
0.895884
0.903352
0.919544
0.947264
0.966261
0.975772
0.982701
0.98905
0.985681
0.968219
0.96143
0.965426
0.973516
0.984537
1.01192
1.04776
1.0688
1.08077
1.09066
1.0951
1.07709
1.05732
1.05342
1.0616
1.07493
1.09907
1.14191
1.18077
1.20744
1.22764
1.24372
1.23803
1.21647
1.20256
1.20536
1.22146
1.25324
1.29582
1.32044
2.49467
11.7972
0.635676
0.644761
0.658244
0.666257
0.670527
0.673801
0.676709
0.678688
0.676852
0.675221
0.676782
0.679687
0.683388
0.691539
0.705775
0.715198
0.72022
0.723971
0.727317
0.729402
0.726343
0.723503
0.72494
0.728143
0.732444
0.741912
0.7579
0.768744
0.774691
0.779116
0.783027
0.784892
0.779208
0.775057
0.776614
0.780405
0.785809
0.79873
0.81691
0.828011
0.834336
0.839368
0.843965
0.844757
0.835476
0.830854
0.833115
0.837837
0.844913
0.863049
0.884817
0.896545
0.903129
0.908692
0.913455
0.90895
0.896209
0.893335
0.89739
0.903596
0.913218
0.938552
0.965091
0.978427
0.986059
0.992912
0.996157
0.982246
0.968201
0.966747
0.972856
0.981482
0.997289
1.03349
1.06597
1.08319
1.09457
1.10416
1.10121
1.07513
1.05965
1.06087
1.07121
1.08566
1.11506
1.15772
1.19171
1.21617
1.23657
1.24892
1.24219
1.22163
1.20738
1.2091
1.22298
1.2581
1.29011
2.52633
11.8381
0.638186
0.646115
0.660178
0.669321
0.673963
0.677349
0.680255
0.682572
0.681368
0.67858
0.67924
0.681848
0.685244
0.692437
0.707155
0.717966
0.723554
0.727516
0.730942
0.733759
0.731791
0.727243
0.72735
0.730118
0.733881
0.741901
0.758472
0.771024
0.777602
0.782249
0.786293
0.789517
0.785998
0.779325
0.779097
0.782284
0.78666
0.796522
0.816218
0.830357
0.837528
0.842619
0.847215
0.850042
0.842995
0.835306
0.835632
0.839582
0.844847
0.857274
0.881771
0.898451
0.906623
0.912478
0.917888
0.918594
0.906216
0.898116
0.898853
0.903822
0.910429
0.926482
0.958126
0.979625
0.989988
0.997269
1.00327
0.998084
0.978734
0.969835
0.971941
0.979741
0.989406
1.01317
1.0535
1.08114
1.09576
1.10637
1.11427
1.10379
1.07804
1.06702
1.06997
1.08035
1.09649
1.13012
1.17068
1.20143
1.22422
1.2438
1.25135
1.24356
1.2234
1.20652
1.20492
1.21955
1.25351
2.55004
11.8812
0.641221
0.647397
0.660789
0.671613
0.67698
0.680579
0.683598
0.68626
0.686118
0.682581
0.682429
0.684629
0.687704
0.692974
0.707
0.72018
0.726781
0.730941
0.734435
0.737561
0.737332
0.731771
0.730521
0.732706
0.736153
0.741829
0.75727
0.772771
0.780605
0.785427
0.78948
0.793169
0.792483
0.7847
0.782488
0.78477
0.788702
0.79488
0.812572
0.831346
0.840672
0.846125
0.85072
0.854705
0.851508
0.841347
0.838698
0.841281
0.845917
0.852982
0.873974
0.898026
0.909953
0.916549
0.922109
0.926342
0.918383
0.904138
0.90082
0.904072
0.910126
0.91893
0.944769
0.976348
0.992637
1.00129
1.00805
1.01187
0.997123
0.978279
0.974509
0.978893
0.986892
0.997803
1.02827
1.06864
1.09245
1.10606
1.11716
1.12456
1.10947
1.08283
1.07362
1.07839
1.0897
1.10801
1.14335
1.18034
1.20791
1.22932
1.24713
1.25124
1.24255
1.2204
1.19966
1.19519
1.20829
2.55392
11.9258
0.644347
0.6492
0.660768
0.673331
0.679711
0.683677
0.686901
0.689821
0.690959
0.687273
0.68585
0.687605
0.690469
0.694413
0.70599
0.721471
0.729661
0.734223
0.737807
0.741062
0.742497
0.73732
0.734088
0.735609
0.738743
0.74289
0.754619
0.772944
0.783238
0.788624
0.792788
0.796627
0.798319
0.791477
0.78638
0.787529
0.790866
0.795308
0.807051
0.829322
0.842935
0.849497
0.85431
0.85876
0.859824
0.849609
0.842432
0.843114
0.847055
0.852328
0.864854
0.892631
0.911795
0.920366
0.926083
0.931059
0.930076
0.914525
0.90472
0.90566
0.910971
0.917435
0.930582
0.96359
0.990591
1.00295
1.01067
1.01757
1.01819
0.998122
0.981734
0.979411
0.983753
0.991882
1.00634
1.04386
1.08331
1.10539
1.11819
1.12848
1.13122
1.11292
1.08941
1.08198
1.08705
1.0984
1.11889
1.15548
1.18948
1.21394
1.23252
1.24714
1.249
1.23828
1.21344
1.18828
1.17032
2.52997
11.9748
0.647291
0.651478
0.660557
0.674492
0.682243
0.686615
0.690053
0.693142
0.695371
0.692544
0.689456
0.690588
0.693257
0.696562
0.70481
0.72128
0.731897
0.737171
0.740998
0.744409
0.74706
0.743769
0.738398
0.738719
0.741363
0.744835
0.752021
0.770449
0.784986
0.791726
0.79615
0.800073
0.80327
0.799426
0.791405
0.790321
0.792811
0.796757
0.803493
0.823654
0.843692
0.852784
0.858055
0.862522
0.866051
0.860017
0.848162
0.845836
0.848713
0.853487
0.860171
0.881285
0.90896
0.922504
0.929309
0.934641
0.938906
0.930808
0.914416
0.909634
0.911655
0.916924
0.923986
0.943902
0.980363
1.00309
1.01412
1.02215
1.02921
1.0233
0.997631
0.983841
0.984569
0.991068
0.999981
1.01665
1.05659
1.09316
1.11284
1.12525
1.13591
1.13908
1.12004
1.09624
1.089
1.0944
1.10623
1.12934
1.16632
1.19696
1.21845
1.23536
1.2457
1.24508
1.23115
1.19819
1.15567
2.47633
12.022
0.650145
0.653984
0.660545
0.674984
0.684721
0.689641
0.693226
0.696392
0.699153
0.698
0.693605
0.693683
0.696023
0.699065
0.70433
0.719434
0.733418
0.74004
0.744206
0.747771
0.751
0.750492
0.743896
0.741947
0.743902
0.747109
0.751602
0.765901
0.785033
0.794534
0.799597
0.803611
0.807314
0.8072
0.797998
0.793402
0.795019
0.798599
0.803255
0.816233
0.840677
0.855046
0.861578
0.866169
0.870367
0.870336
0.857943
0.850169
0.851071
0.854931
0.86
0.870163
0.898389
0.922011
0.932255
0.938527
0.943895
0.945564
0.930776
0.915453
0.912749
0.916069
0.922328
0.931285
0.959644
0.996454
1.01517
1.02409
1.03069
1.03643
1.02733
1.00263
0.991611
0.992178
0.997324
1.00601
1.02595
1.06785
1.10284
1.12232
1.13501
1.14455
1.14441
1.1253
1.10268
1.09551
1.10054
1.11241
1.13829
1.17564
1.20389
1.2227
1.23675
1.24239
1.24009
1.21595
1.16456
2.41374
12.0684
0.652998
0.656564
0.661123
0.674523
0.686808
0.692698
0.696476
0.699703
0.702666
0.703333
0.698587
0.696947
0.698692
0.701508
0.705191
0.716483
0.733636
0.742708
0.747465
0.751172
0.754561
0.756387
0.750679
0.745672
0.74653
0.749429
0.753121
0.761752
0.782158
0.796428
0.802795
0.807043
0.81082
0.813366
0.806896
0.798263
0.797836
0.800828
0.804849
0.811304
0.832186
0.85454
0.864345
0.869714
0.87423
0.878047
0.871712
0.857984
0.854128
0.856018
0.860359
0.866076
0.883069
0.914847
0.933784
0.942368
0.948386
0.953804
0.950717
0.930557
0.918351
0.918284
0.922555
0.928658
0.939334
0.972952
1.00723
1.02325
1.0331
1.04168
1.04717
1.0325
1.00601
0.995599
0.997741
1.00463
1.01407
1.03556
1.07716
1.10989
1.12816
1.14077
1.15024
1.1502
1.13074
1.10764
1.09992
1.10441
1.11629
1.14478
1.18234
1.20858
1.22518
1.23509
1.23874
1.22883
1.18942
2.36761
12.1147
0.655881
0.659084
0.662402
0.673044
0.688031
0.695736
0.69983
0.703107
0.706084
0.708054
0.704324
0.700461
0.701304
0.703879
0.707134
0.714172
0.731757
0.744817
0.750706
0.754568
0.757994
0.760945
0.758266
0.750758
0.749583
0.751985
0.755345
0.760059
0.775865
0.796003
0.805427
0.810358
0.814321
0.817989
0.816849
0.806348
0.801671
0.803035
0.80628
0.810639
0.822027
0.848493
0.866044
0.873477
0.878361
0.882774
0.883875
0.870733
0.858839
0.857839
0.861176
0.866199
0.873519
0.897981
0.928826
0.943407
0.950397
0.956032
0.961548
0.955202
0.933646
0.923425
0.92297
0.926503
0.932939
0.947613
0.986843
1.02051
1.03541
1.04345
1.04984
1.05364
1.03795
1.01325
1.0039
1.00525
1.01105
1.02046
1.04496
1.08669
1.11707
1.13433
1.14669
1.15525
1.1545
1.13499
1.1109
1.10229
1.10605
1.11784
1.14898
1.18697
1.21106
1.22469
1.23118
1.23055
1.21426
2.35242
12.1612
0.658765
0.661586
0.664431
0.671486
0.68748
0.698214
0.703125
0.706498
0.709478
0.712096
0.710583
0.704895
0.704217
0.706455
0.709515
0.713723
0.727396
0.745108
0.753503
0.757914
0.761464
0.764772
0.765554
0.758071
0.753492
0.754558
0.75731
0.760905
0.76951
0.791404
0.807014
0.8137
0.818026
0.821922
0.82472
0.817517
0.806932
0.805284
0.807761
0.811706
0.817341
0.836263
0.863051
0.87615
0.882458
0.887016
0.891206
0.887307
0.870513
0.862504
0.863122
0.866504
0.87153
0.881609
0.912324
0.94052
0.953029
0.960364
0.9666
0.970746
0.957909
0.934691
0.926294
0.928227
0.93349
0.940003
0.955584
0.995999
1.02727
1.04105
1.05056
1.05915
1.06306
1.04488
1.01864
1.0089
1.01125
1.01849
1.02884
1.05477
1.09482
1.12287
1.13948
1.15174
1.15992
1.15866
1.13723
1.11192
1.10276
1.10592
1.11749
1.15053
1.18813
1.20996
1.22132
1.22396
1.22917
2.37171
12.2122
0.661852
0.664187
0.666875
0.67111
0.684491
0.699425
0.706193
0.709872
0.712933
0.715801
0.716684
0.711002
0.707797
0.709167
0.711874
0.715102
0.722793
0.742057
0.755459
0.761274
0.765041
0.768455
0.771266
0.767135
0.758661
0.757042
0.759076
0.76242
0.767109
0.78292
0.805665
0.816566
0.821772
0.825672
0.829394
0.828807
0.816296
0.809093
0.810029
0.813338
0.817571
0.82555
0.851075
0.87487
0.884713
0.890372
0.895111
0.898921
0.890087
0.872216
0.865965
0.867085
0.870991
0.876597
0.891571
0.927112
0.952277
0.962489
0.968092
0.973381
0.977382
0.962609
0.940756
0.933762
0.933993
0.937598
0.944257
0.963249
1.00649
1.03835
1.05223
1.06027
1.06682
1.06874
1.05139
1.02705
1.01728
1.01839
1.02429
1.03477
1.06425
1.10406
1.1298
1.14474
1.15591
1.16327
1.16179
1.13926
1.11223
1.10192
1.10418
1.11516
1.14978
1.18667
1.20733
1.21405
1.23218
2.42232
12.2727
0.66555
0.666904
0.669285
0.67228
0.680461
0.697951
0.708464
0.71321
0.716562
0.719594
0.722028
0.71876
0.712476
0.711937
0.714067
0.717101
0.721336
0.735841
0.755225
0.764114
0.768584
0.772055
0.775316
0.775658
0.766385
0.760509
0.761503
0.764483
0.768126
0.775443
0.797935
0.817148
0.824865
0.829238
0.833164
0.836538
0.830309
0.817038
0.81333
0.814759
0.817981
0.822604
0.835329
0.865386
0.885504
0.894028
0.89973
0.9047
0.906408
0.891132
0.87379
0.870015
0.872662
0.877211
0.882831
0.900741
0.937432
0.959718
0.969815
0.977422
0.983913
0.985757
0.966287
0.943346
0.936767
0.939599
0.945331
0.952153
0.97032
1.01265
1.04316
1.05662
1.06567
1.07411
1.07734
1.05924
1.03276
1.02164
1.0232
1.03036
1.04231
1.07343
1.11107
1.13463
1.14921
1.16045
1.16797
1.16567
1.14035
1.11115
1.0994
1.10079
1.11131
1.14728
1.18336
1.20011
1.22576
2.48972
12.3389
0.669958
0.669495
0.671394
0.674162
0.678606
0.693543
0.709583
0.716572
0.720288
0.723349
0.726213
0.7264
0.719033
0.715188
0.716538
0.719387
0.722705
0.7301
0.75038
0.765566
0.771799
0.775559
0.77891
0.781718
0.777066
0.766898
0.764731
0.766732
0.769805
0.773747
0.786268
0.81213
0.826941
0.833275
0.837413
0.841301
0.842553
0.830297
0.818124
0.816503
0.819142
0.82322
0.828656
0.847407
0.878579
0.894838
0.901659
0.906334
0.911213
0.912163
0.894582
0.878854
0.875866
0.8773
0.881301
0.887712
0.910889
0.949743
0.971083
0.979703
0.984741
0.990192
0.992356
0.973189
0.951704
0.945672
0.946198
0.949615
0.956259
0.97672
1.02077
1.05194
1.06565
1.07377
1.08025
1.08194
1.06594
1.04075
1.02886
1.02874
1.0342
1.04615
1.08042
1.11884
1.14192
1.15529
1.1649
1.17111
1.16787
1.14134
1.1097
1.09577
1.09579
1.10629
1.14395
1.17548
1.20977
2.5623
12.4028
0.675193
0.672259
0.673773
0.67649
0.679691
0.688682
0.707563
0.718764
0.72364
0.726869
0.729815
0.732161
0.727855
0.720265
0.719552
0.721836
0.724831
0.728562
0.741673
0.763421
0.774092
0.779008
0.782562
0.785956
0.787088
0.777419
0.769185
0.768951
0.771479
0.774932
0.780287
0.799653
0.824806
0.836207
0.841844
0.845716
0.849306
0.846505
0.830275
0.821424
0.821905
0.824878
0.828829
0.834949
0.858489
0.888803
0.902885
0.90993
0.915589
0.920527
0.917843
0.896484
0.88127
0.879686
0.883378
0.888246
0.894457
0.91825
0.956069
0.975912
0.985823
0.993875
1.00045
1.00071
0.978696
0.955354
0.948327
0.951
0.956868
0.964146
0.983628
1.02574
1.05539
1.06881
1.0781
1.08646
1.08974
1.07309
1.04502
1.03116
1.03105
1.03747
1.0512
1.08678
1.12429
1.14599
1.15877
1.16822
1.17388
1.16972
1.14222
1.10763
1.09081
1.08894
1.10053
1.13695
1.18208
2.62748
12.452
0.681749
0.676362
0.676747
0.679211
0.682044
0.686516
0.701727
0.718867
0.726231
0.730153
0.733315
0.736283
0.736603
0.728344
0.723367
0.724196
0.726713
0.729917
0.735761
0.755417
0.774462
0.782155
0.786267
0.789699
0.792955
0.790092
0.777309
0.7722
0.77376
0.776997
0.780678
0.788147
0.812809
0.83499
0.84377
0.848871
0.852979
0.856751
0.850623
0.833222
0.826151
0.826597
0.829182
0.833404
0.841827
0.870579
0.899716
0.911963
0.917738
0.921791
0.926866
0.923945
0.902079
0.888485
0.886613
0.887946
0.892008
0.899143
0.926615
0.966648
0.987063
0.995351
1.00031
1.00537
1.00659
0.987086
0.964647
0.957622
0.958213
0.961556
0.968132
0.989997
1.03415
1.06377
1.07676
1.08479
1.0914
1.09376
1.07868
1.05118
1.03658
1.03508
1.03976
1.05277
1.08988
1.12846
1.15027
1.1623
1.17061
1.17529
1.17073
1.14317
1.10526
1.08386
1.08083
1.09197
1.14431
2.66843
12.4876
0.688798
0.682896
0.680451
0.68205
0.684521
0.687469
0.695564
0.715209
0.728011
0.733341
0.73671
0.739684
0.742325
0.738628
0.729156
0.727
0.729034
0.73207
0.735439
0.745042
0.768638
0.783601
0.789657
0.793314
0.7968
0.799356
0.791211
0.779222
0.7771
0.778936
0.781709
0.785591
0.79661
0.824768
0.844034
0.852117
0.857447
0.861989
0.864748
0.853306
0.834992
0.829527
0.831531
0.835291
0.839472
0.848712
0.879601
0.906837
0.918163
0.925324
0.931191
0.935926
0.92966
0.905572
0.891173
0.890254
0.894275
0.899502
0.906076
0.931833
0.97022
0.989794
0.999549
1.00773
1.01428
1.01525
0.995658
0.971029
0.961356
0.962682
0.968304
0.975828
0.997408
1.03919
1.06653
1.07941
1.0888
1.09702
1.10087
1.08528
1.05523
1.03836
1.03604
1.04078
1.05384
1.0914
1.1306
1.15241
1.16408
1.17181
1.17567
1.17062
1.14358
1.10316
1.07755
1.06672
1.09716
2.66525
12.5137
0.694347
0.691611
0.684903
0.684878
0.68711
0.689916
0.693867
0.707578
0.726824
0.735593
0.739739
0.742954
0.746076
0.747539
0.73914
0.731684
0.73177
0.734065
0.736984
0.740947
0.756184
0.780632
0.792164
0.797354
0.800923
0.804422
0.804685
0.791788
0.781426
0.780565
0.783089
0.786497
0.790976
0.80658
0.836198
0.852747
0.859435
0.863809
0.868017
0.870643
0.857519
0.840316
0.83595
0.836755
0.839417
0.843936
0.856014
0.890243
0.917102
0.927649
0.932747
0.93684
0.941961
0.936695
0.913078
0.899854
0.898008
0.898929
0.90265
0.909771
0.937886
0.978975
1.00022
1.00879
1.01414
1.0196
1.02243
1.00569
0.980318
0.969814
0.969062
0.971775
0.978454
1.00267
1.04654
1.07466
1.08729
1.09508
1.10201
1.10592
1.09185
1.06075
1.04168
1.03792
1.04137
1.05326
1.09102
1.13145
1.15365
1.16478
1.1717
1.17465
1.16932
1.14294
1.10085
1.06602
1.05667
2.617
12.5353
0.698016
0.699941
0.691841
0.688629
0.690028
0.692525
0.695217
0.700948
0.719804
0.736245
0.742872
0.746561
0.749755
0.752854
0.75096
0.739704
0.734904
0.735969
0.738661
0.741956
0.747873
0.768995
0.791461
0.800682
0.805281
0.808569
0.811887
0.808235
0.792303
0.784751
0.785525
0.788434
0.79182
0.796653
0.815826
0.84553
0.860154
0.86691
0.872161
0.876839
0.877381
0.860292
0.842741
0.839072
0.841803
0.845994
0.850382
0.862369
0.896502
0.921757
0.932487
0.940038
0.946126
0.950724
0.94347
0.918534
0.90291
0.900856
0.904527
0.909952
0.916749
0.942188
0.981582
1.00248
1.01271
1.02093
1.02754
1.03013
1.01301
0.985302
0.971913
0.971606
0.976737
0.984741
1.00934
1.05127
1.07768
1.09059
1.10049
1.10863
1.11278
1.09738
1.06399
1.04289
1.03809
1.04124
1.05218
1.08935
1.13091
1.15351
1.16425
1.17038
1.17242
1.16653
1.14062
1.08955
1.04564
2.52922
12.5637
0.701416
0.705929
0.701575
0.694024
0.692912
0.694402
0.6969
0.700092
0.710212
0.732364
0.745073
0.75028
0.7535
0.756573
0.758897
0.751794
0.740597
0.738678
0.740965
0.744184
0.747581
0.755762
0.78081
0.800298
0.80795
0.812536
0.816064
0.818984
0.811791
0.795584
0.789807
0.790564
0.792897
0.796575
0.802716
0.825973
0.855381
0.868699
0.874513
0.878146
0.882447
0.883399
0.866079
0.849776
0.846419
0.847098
0.849629
0.854289
0.868593
0.90533
0.931922
0.942101
0.947071
0.951181
0.956434
0.95177
0.927636
0.91204
0.909229
0.909833
0.912965
0.919611
0.946248
0.988396
1.01133
1.02034
1.02561
1.0315
1.03626
1.02256
0.994694
0.980547
0.978043
0.980217
0.986612
1.01182
1.05698
1.08631
1.09892
1.1061
1.11239
1.11644
1.10318
1.06958
1.04562
1.03884
1.04088
1.0505
1.0869
1.12942
1.15238
1.16256
1.16791
1.16864
1.16296
1.12892
1.06997
2.43616
12.6082
0.70496
0.709943
0.710157
0.701676
0.695911
0.696552
0.699041
0.701938
0.706257
0.721899
0.743375
0.75272
0.757063
0.760112
0.763177
0.76355
0.752162
0.743789
0.743949
0.746285
0.749084
0.752598
0.764179
0.791444
0.808535
0.815694
0.820458
0.824382
0.826616
0.815074
0.797879
0.793232
0.795407
0.798939
0.802507
0.80878
0.833958
0.862349
0.874566
0.881127
0.886574
0.891185
0.890085
0.870535
0.852823
0.849173
0.851915
0.856292
0.860866
0.873892
0.909285
0.934789
0.945887
0.953848
0.960192
0.96496
0.95958
0.935143
0.916142
0.911344
0.914049
0.919162
0.925959
0.950376
0.990251
1.01221
1.02353
1.03337
1.04042
1.04376
1.02974
0.99986
0.982096
0.979029
0.982995
0.990714
1.0155
1.05923
1.08716
1.10006
1.10975
1.11798
1.1225
1.10934
1.0739
1.04714
1.03867
1.03988
1.04803
1.08321
1.12637
1.14974
1.15973
1.16389
1.16481
1.15242
1.1179
2.38171
12.6664
0.708111
0.713211
0.715261
0.711629
0.701725
0.699507
0.701416
0.704205
0.707146
0.712981
0.733331
0.752738
0.760353
0.764276
0.767268
0.770161
0.766839
0.753178
0.747137
0.747931
0.750669
0.753859
0.758014
0.773291
0.801126
0.816094
0.822221
0.826433
0.830213
0.832293
0.819622
0.803653
0.799977
0.800894
0.803197
0.807016
0.814948
0.842944
0.871419
0.883344
0.888687
0.892025
0.896612
0.89694
0.878088
0.860859
0.856974
0.857324
0.859434
0.864011
0.878455
0.916465
0.944695
0.955548
0.960757
0.964663
0.969943
0.968209
0.945255
0.924972
0.919338
0.919607
0.922486
0.928602
0.954962
0.999033
1.02352
1.03315
1.0392
1.04439
1.04795
1.03614
1.00698
0.988482
0.984468
0.986075
0.991453
1.01418
1.06088
1.09409
1.10847
1.11562
1.12166
1.12503
1.11405
1.079
1.04889
1.03804
1.03817
1.04467
1.07838
1.1222
1.14609
1.15555
1.15994
1.15611
1.15399
2.38517
12.7301
0.710728
0.716508
0.718877
0.720133
0.711961
0.704281
0.70417
0.706267
0.708983
0.712232
0.720847
0.744591
0.76156
0.768101
0.771542
0.774374
0.776783
0.76907
0.75502
0.751256
0.752993
0.755909
0.758953
0.763363
0.781362
0.809294
0.82296
0.829127
0.833943
0.838205
0.838877
0.82308
0.806508
0.803064
0.805633
0.809329
0.813017
0.820536
0.848823
0.876367
0.887913
0.894805
0.90043
0.905086
0.9042
0.884357
0.864755
0.859297
0.861524
0.865957
0.870809
0.883288
0.918828
0.946301
0.958202
0.966405
0.972929
0.977984
0.976244
0.954149
0.930816
0.922445
0.924088
0.929351
0.936143
0.960118
1.0012
1.02441
1.03494
1.04258
1.04935
1.05458
1.04488
1.0142
0.991948
0.985753
0.988203
0.994604
1.01591
1.06092
1.09395
1.10858
1.11736
1.1247
1.12883
1.1192
1.08374
1.05022
1.03661
1.03539
1.04068
1.07301
1.11714
1.1412
1.15162
1.15059
1.17193
2.43084
12.7944
0.71242
0.719932
0.722341
0.72512
0.723896
0.713105
0.70776
0.708691
0.711357
0.714303
0.717711
0.729003
0.754266
0.769104
0.775179
0.778941
0.78206
0.783174
0.771796
0.758916
0.756356
0.757703
0.76021
0.763615
0.769149
0.790239
0.817749
0.830385
0.835912
0.839415
0.843218
0.844489
0.829151
0.813592
0.810317
0.810941
0.813029
0.816892
0.82594
0.856391
0.885147
0.896906
0.902065
0.905331
0.90997
0.91146
0.893548
0.873529
0.867733
0.867643
0.869164
0.873402
0.886253
0.923924
0.955156
0.967658
0.973272
0.977222
0.982654
0.984451
0.965472
0.940597
0.931159
0.929897
0.931243
0.936956
0.960761
1.00448
1.0318
1.04345
1.04994
1.0559
1.06096
1.05418
1.02388
0.998762
0.990993
0.991222
0.995165
1.01266
1.0587
1.09678
1.11416
1.12195
1.12737
1.1306
1.12355
1.08892
1.05122
1.03434
1.03179
1.03594
1.06743
1.11098
1.13617
1.14169
1.17445
2.50513
12.8607
0.711524
0.723354
0.726027
0.729032
0.731754
0.72712
0.715465
0.712383
0.713906
0.716244
0.718874
0.722612
0.737229
0.76329
0.776787
0.782739
0.78657
0.789733
0.789613
0.774914
0.761729
0.759991
0.762725
0.76616
0.769336
0.774759
0.797312
0.824263
0.836075
0.842062
0.847112
0.851475
0.851275
0.833908
0.81678
0.812952
0.815394
0.819227
0.823054
0.831009
0.860343
0.888376
0.900256
0.907623
0.91353
0.918265
0.918948
0.901611
0.878977
0.87011
0.870952
0.87509
0.880205
0.891048
0.925303
0.95574
0.969417
0.978317
0.985377
0.990647
0.991767
0.973156
0.944991
0.931557
0.930817
0.935073
0.941976
0.964695
1.00793
1.03578
1.04806
1.05623
1.06337
1.06818
1.06133
1.03061
1.00238
0.991647
0.992148
0.997334
1.01349
1.05675
1.09555
1.11397
1.1231
1.12925
1.13259
1.12667
1.09268
1.05172
1.03155
1.02746
1.03078
1.0616
1.10502
1.12492
1.16721
2.59063
12.9257
0.705237
0.72549
0.730368
0.733565
0.736551
0.738281
0.729074
0.717878
0.715942
0.717817
0.72062
0.72363
0.728169
0.745593
0.771158
0.78333
0.788806
0.792799
0.796123
0.795351
0.780313
0.768363
0.766792
0.767986
0.770318
0.7738
0.780568
0.805219
0.832297
0.844034
0.84926
0.852365
0.856352
0.857578
0.841568
0.824829
0.820806
0.821029
0.822587
0.826296
0.835188
0.866444
0.896877
0.909485
0.914813
0.91805
0.922686
0.925861
0.911991
0.888526
0.878911
0.878025
0.879038
0.882641
0.892928
0.928397
0.963726
0.978952
0.985185
0.988634
0.993562
0.997466
0.983213
0.954865
0.940815
0.938786
0.941003
0.945812
0.96543
1.00861
1.04043
1.05413
1.0608
1.06556
1.07102
1.06925
1.04084
1.00946
0.996902
0.995411
0.998057
1.00971
1.0523
1.09574
1.1165
1.12498
1.12964
1.13231
1.12791
1.09678
1.0531
1.02845
1.02217
1.02447
1.05693
1.09355
1.1469
2.67422
12.9795
0.694685
0.722698
0.733416
0.738039
0.740815
0.743657
0.743269
0.730458
0.720973
0.720625
0.72292
0.725643
0.728332
0.733069
0.75284
0.778434
0.790013
0.795515
0.799808
0.803527
0.802006
0.78496
0.77166
0.770045
0.772767
0.776155
0.779415
0.78567
0.81068
0.837308
0.848599
0.854911
0.860214
0.864584
0.86488
0.848098
0.828911
0.823016
0.824764
0.828576
0.832781
0.840348
0.86921
0.898724
0.911704
0.919417
0.925791
0.930744
0.93337
0.920943
0.895906
0.882198
0.880631
0.884182
0.889166
0.898242
0.92988
0.963773
0.979179
0.988283
0.996568
1.00249
1.00594
0.993036
0.962983
0.944558
0.940107
0.941927
0.94615
0.96331
1.00685
1.03974
1.0542
1.06446
1.07251
1.07772
1.0754
1.04733
1.01351
0.997397
0.995127
0.998894
1.01026
1.04985
1.09293
1.11428
1.1234
1.12901
1.1324
1.12944
1.10059
1.05431
1.02469
1.01554
1.01875
1.04737
1.11315
2.7377
13.0175
0.68871
0.708913
0.731188
0.740566
0.745102
0.748073
0.750845
0.747616
0.732972
0.725416
0.725166
0.726666
0.729488
0.732938
0.739132
0.761002
0.785613
0.796356
0.801304
0.804826
0.808292
0.807668
0.791471
0.778817
0.776851
0.777709
0.779851
0.783433
0.790888
0.817495
0.84518
0.857025
0.862132
0.86512
0.869123
0.871375
0.857235
0.837756
0.83148
0.831246
0.832163
0.835419
0.843174
0.872885
0.906103
0.920883
0.926894
0.930251
0.934732
0.939267
0.931531
0.906466
0.891475
0.888602
0.888813
0.891487
0.899288
0.931033
0.970227
0.989705
0.997816
1.00331
1.00834
1.01207
1.00101
0.970577
0.948996
0.942838
0.944992
0.950409
0.965601
1.00774
1.0466
1.06354
1.07034
1.07471
1.07982
1.08152
1.05795
1.02164
1.00272
0.998448
0.999585
1.00646
1.04328
1.09008
1.11466
1.1244
1.12888
1.13118
1.12851
1.10337
1.05666
1.02114
1.00837
1.00608
1.06846
2.76447
13.0431
0.689631
0.696769
0.717453
0.738531
0.747552
0.752286
0.755354
0.757831
0.751846
0.735129
0.728017
0.729111
0.732137
0.735378
0.738468
0.744429
0.767514
0.791834
0.802093
0.807373
0.811902
0.815838
0.814148
0.796194
0.781791
0.779634
0.782272
0.785877
0.789373
0.795772
0.821296
0.84865
0.86047
0.867135
0.872677
0.877158
0.879018
0.865501
0.843834
0.833906
0.833872
0.837188
0.841548
0.84819
0.874241
0.906446
0.921961
0.930446
0.937632
0.942891
0.94676
0.940417
0.915586
0.896021
0.890451
0.89273
0.897364
0.904903
0.932378
0.971161
0.991078
0.999776
1.00581
1.01189
1.01747
1.01181
0.982102
0.957363
0.95011
0.950509
0.953824
0.965261
1.00479
1.04346
1.06136
1.07211
1.08123
1.08679
1.0874
1.06392
1.02529
1.00233
0.996225
0.998043
1.00542
1.03998
1.08696
1.11233
1.12223
1.12717
1.12971
1.12715
1.105
1.05842
1.01908
0.994406
1.01772
2.7352
13.0558
0.691874
0.6961
0.702414
0.724293
0.744931
0.753452
0.75807
0.761463
0.763589
0.756077
0.740504
0.734945
0.735528
0.737056
0.739582
0.743057
0.750543
0.775046
0.798989
0.809061
0.813757
0.816561
0.819954
0.819873
0.803715
0.789763
0.78719
0.787804
0.789547
0.792977
0.800067
0.826386
0.855898
0.869016
0.874446
0.877497
0.881298
0.885003
0.875748
0.853537
0.842513
0.840936
0.841338
0.843953
0.850021