/*--------------------------------*- C++ -*----------------------------------*\
  =========                 |
  \\      /  F ield         | OpenFOAM: The Open Source CFD Toolbox
   \\    /   O peration     | Website:  https://openfoam.org
    \\  /    A nd           | Version:  12
     \\/     M anipulation  |
\*---------------------------------------------------------------------------*/
FoamFile
{
    format      ascii;
    class       volScalarField;
    location    "25";
    object      p;
}
// * * * * * * * * * * * * * * * * * * * * * * * * * * * * * * * * * * * * * //

dimensions      [1 -1 -2 0 0 0 0];

internalField   nonuniform List<scalar> 
9801
(
0.600371
0.627207
0.683699
0.703638
0.704829
0.701433
0.691515
0.666751
0.643723
0.641286
0.646841
0.659243
0.678171
0.704635
0.72994
0.740355
0.740906
0.739896
0.732749
0.715313
0.709603
0.713337
0.721604
0.732107
0.741241
0.7492
0.758112
0.769368
0.780352
0.787747
0.792075
0.794966
0.796274
0.791783
0.789587
0.791856
0.795222
0.798988
0.803282
0.811387
0.831029
0.851895
0.862104
0.867258
0.870258
0.866181
0.858043
0.857519
0.860773
0.864978
0.870081
0.87819
0.898357
0.924664
0.939045
0.945902
0.950868
0.949615
0.937354
0.931465
0.933841
0.938922
0.945546
0.955029
0.982341
1.01615
1.03516
1.04511
1.05216
1.05149
1.03705
1.02497
1.02366
1.02952
1.04007
1.06038
1.11085
1.15049
1.17005
1.18262
1.19296
1.19528
1.16871
1.1434
1.14473
1.16046
1.1912
1.26943
1.34519
1.38887
1.4202
1.45004
1.46037
1.43587
1.41455
1.42409
1.47757
3.64278
19.7416
0.614763
0.622056
0.652467
0.685647
0.699302
0.704437
0.7033
0.692302
0.676065
0.662755
0.659437
0.662806
0.6708
0.687405
0.713279
0.733511
0.743217
0.746623
0.745598
0.741981
0.732628
0.726188
0.72762
0.73176
0.737586
0.744128
0.751357
0.764113
0.783084
0.794315
0.799362
0.803122
0.806431
0.804214
0.797781
0.797146
0.799588
0.803087
0.807272
0.813463
0.831839
0.854514
0.866398
0.872646
0.87714
0.877134
0.866377
0.861268
0.863169
0.867112
0.872315
0.879475
0.900392
0.92752
0.942349
0.949891
0.955774
0.957972
0.945895
0.935257
0.936111
0.94147
0.948949
0.959014
0.985665
1.01957
1.03845
1.04863
1.05634
1.0615
1.0468
1.02697
1.02547
1.03402
1.04404
1.06366
1.10747
1.14635
1.16781
1.18304
1.19738
1.20313
1.17523
1.14897
1.15105
1.1679
1.19184
1.247
1.31684
1.3659
1.40371
1.43958
1.45476
1.43267
1.40631
1.40156
1.38671
3.36036
19.9754
0.641578
0.645887
0.649532
0.661463
0.679112
0.687226
0.688753
0.688858
0.687976
0.687685
0.685593
0.684236
0.684629
0.688051
0.695508
0.714168
0.728791
0.735538
0.740448
0.746442
0.75096
0.748578
0.744227
0.744162
0.744841
0.745803
0.748291
0.756449
0.775679
0.791913
0.800475
0.806081
0.811009
0.812872
0.806888
0.803727
0.804697
0.806858
0.809811
0.814337
0.830471
0.854453
0.868033
0.875363
0.880859
0.883888
0.876075
0.868342
0.867877
0.870619
0.874967
0.880511
0.896983
0.924953
0.942188
0.951332
0.958263
0.963297
0.956158
0.943093
0.940456
0.943871
0.950388
0.958912
0.981511
1.01531
1.03686
1.04926
1.05909
1.06719
1.05752
1.03373
1.02722
1.0338
1.04436
1.05914
1.09696
1.14427
1.17197
1.18819
1.20189
1.20849
1.18395
1.15557
1.15225
1.16752
1.1891
1.2265
1.30072
1.3648
1.40606
1.44274
1.46336
1.448
1.4269
1.42169
1.38661
3.17281
19.9981
0.667464
0.670296
0.655789
0.644229
0.646236
0.661589
0.682418
0.697143
0.706168
0.712315
0.715504
0.712984
0.703469
0.688585
0.683403
0.687193
0.705944
0.733277
0.750579
0.758925
0.764669
0.76596
0.761869
0.75386
0.744592
0.741477
0.74271
0.747819
0.769066
0.794457
0.807866
0.81493
0.820558
0.823823
0.814937
0.80449
0.802618
0.805223
0.809741
0.815584
0.832452
0.858007
0.873335
0.881428
0.887329
0.892101
0.886148
0.871292
0.866489
0.868682
0.873667
0.879992
0.894578
0.924897
0.947092
0.958163
0.965481
0.971434
0.96783
0.949261
0.94089
0.943353
0.95012
0.958419
0.976962
1.01361
1.04018
1.05373
1.06352
1.07163
1.06764
1.04256
1.02919
1.03359
1.04431
1.05727
1.08693
1.13752
1.17065
1.18779
1.20146
1.2131
1.20315
1.1709
1.15421
1.16323
1.18508
1.21284
1.26749
1.33483
1.38288
1.42211
1.45509
1.45422
1.43304
1.41543
1.35931
3.05811
20.0615
0.679732
0.680551
0.655357
0.644612
0.644336
0.651731
0.677219
0.705733
0.71758
0.723686
0.726989
0.719866
0.699628
0.686955
0.684769
0.686347
0.701845
0.734591
0.75869
0.76829
0.774525
0.777935
0.766714
0.747646
0.740619
0.741337
0.744432
0.752754
0.777266
0.802041
0.814173
0.820813
0.825749
0.825074
0.811141
0.801
0.801698
0.806034
0.811713
0.819869
0.838564
0.862601
0.876511
0.88385
0.889052
0.89262
0.886809
0.872012
0.867763
0.871285
0.877133
0.883838
0.896926
0.926014
0.949438
0.960729
0.967693
0.972929
0.971873
0.954193
0.942743
0.944728
0.95184
0.960207
0.974622
1.00913
1.03939
1.05433
1.06433
1.0732
1.07655
1.05662
1.0349
1.03376
1.04382
1.05624
1.07688
1.12359
1.1671
1.18975
1.20486
1.21884
1.22122
1.19558
1.1684
1.16068
1.17502
1.20007
1.23931
1.30251
1.36123
1.40583
1.44516
1.46655
1.45486
1.4303
1.3439
2.9937
20.1481
0.680787
0.666049
0.653256
0.652803
0.655392
0.663366
0.683267
0.708014
0.72272
0.729265
0.725442
0.705275
0.691391
0.688928
0.690888
0.699421
0.720527
0.744475
0.760637
0.770841
0.776883
0.772968
0.753454
0.74213
0.742033
0.745186
0.749761
0.764089
0.791379
0.809744
0.818086
0.823054
0.824117
0.817458
0.806448
0.80283
0.805818
0.810665
0.816145
0.824791
0.84404
0.865649
0.87747
0.883888
0.888403
0.891633
0.888449
0.876986
0.873068
0.876639
0.882333
0.888707
0.89967
0.925499
0.948761
0.960707
0.968217
0.974123
0.97705
0.964592
0.948367
0.946285
0.953004
0.961466
0.973288
1.00289
1.03717
1.05525
1.06587
1.07505
1.0827
1.0738
1.04809
1.0368
1.04241
1.05465
1.07014
1.10409
1.15444
1.18837
1.20782
1.22312
1.23367
1.22009
1.1903
1.17408
1.17512
1.19216
1.21793
1.26265
1.32103
1.36993
1.4097
1.44346
1.4533
1.44215
1.36829
2.93142
20.2639
0.662047
0.660099
0.659763
0.663577
0.674488
0.690324
0.702303
0.710023
0.716308
0.715323
0.701071
0.693157
0.693392
0.696383
0.702691
0.721913
0.743887
0.756144
0.763702
0.768976
0.766447
0.75212
0.744979
0.745791
0.749063
0.753382
0.760505
0.779247
0.80164
0.813639
0.818755
0.819795
0.817746
0.814945
0.809583
0.806643
0.809708
0.815364
0.821197
0.828954
0.845435
0.865329
0.876646
0.882778
0.887498
0.892479
0.894311
0.885213
0.877722
0.879729
0.885136
0.891285
0.899845
0.921901
0.946279
0.959713
0.967989
0.974843
0.981271
0.978192
0.959808
0.950828
0.954511
0.962088
0.971143
0.99254
1.02984
1.05516
1.06791
1.07729
1.08621
1.08808
1.06624
1.04634
1.04371
1.05274
1.06515
1.08477
1.12918
1.17743
1.20615
1.22433
1.23978
1.245
1.22349
1.19843
1.18754
1.18988
1.20573
1.2327
1.27992
1.33137
1.37227
1.40521
1.42776
1.43224
1.39293
2.9158
20.4051
0.641847
0.655437
0.672666
0.691799
0.706278
0.713699
0.717423
0.717897
0.704703
0.685808
0.681943
0.68561
0.692447
0.702799
0.723096
0.749161
0.761568
0.766501
0.768897
0.762199
0.746796
0.740204
0.741986
0.74661
0.752636
0.76167
0.776019
0.790995
0.804413
0.811278
0.813838
0.814224
0.817168
0.821189
0.82046
0.815667
0.816428
0.821426
0.826297
0.830698
0.839612
0.859216
0.874262
0.882907
0.890166
0.896874
0.90262
0.899147
0.887368
0.88397
0.886629
0.890941
0.89679
0.913069
0.94153
0.960115
0.970227
0.978018
0.985426
0.990163
0.976659
0.960709
0.957734
0.962503
0.969732
0.981449
1.01402
1.05095
1.07079
1.08183
1.0911
1.09857
1.08883
1.06322
1.05032
1.05029
1.05941
1.07228
1.0979
1.14887
1.19375
1.22044
1.23937
1.25538
1.25677
1.23133
1.20546
1.19553
1.20023
1.21674
1.24539
1.29238
1.33748
1.37082
1.39304
1.40673
1.40023
2.9452
20.5386
0.619695
0.636027
0.682431
0.717286
0.731932
0.736715
0.735676
0.721793
0.688244
0.672955
0.673652
0.677921
0.685514
0.704989
0.740984
0.761504
0.769888
0.77251
0.765192
0.751517
0.745723
0.745706
0.748001
0.753237
0.764434
0.775446
0.781168
0.789237
0.797385
0.803299
0.807828
0.81503
0.824545
0.830918
0.835154
0.832683
0.829456
0.82809
0.827164
0.827633
0.83143
0.847176
0.871646
0.887656
0.897636
0.904913
0.911029
0.913943
0.901814
0.8896
0.885413
0.887402
0.892618
0.903494
0.932829
0.960665
0.975219
0.984263
0.991832
0.998835
0.994363
0.972667
0.961515
0.961222
0.967161
0.975343
0.994833
1.03697
1.07024
1.08694
1.09762
1.10672
1.10928
1.08657
1.06071
1.05176
1.05418
1.06424
1.07878
1.1126
1.16727
1.21013
1.23604
1.25401
1.26659
1.26153
1.23838
1.21513
1.20546
1.20973
1.22591
1.25604
1.30194
1.34087
1.36513
1.3795
1.39069
2.99547
20.6332
0.619798
0.628727
0.680306
0.726409
0.7395
0.744377
0.742745
0.713995
0.685643
0.677571
0.678492
0.683353
0.698377
0.722518
0.745452
0.762306
0.767433
0.762184
0.7515
0.750036
0.753728
0.757172
0.763072
0.771946
0.779298
0.781339
0.777444
0.775186
0.77958
0.792803
0.809066
0.823791
0.835478
0.844206
0.850444
0.851427
0.839864
0.827383
0.820705
0.821599
0.826082
0.837962
0.867737
0.892979
0.906294
0.913739
0.919537
0.92403
0.914876
0.891754
0.882486
0.884077
0.889766
0.898735
0.922809
0.958756
0.980106
0.990382
0.997732
1.0045
1.00593
0.985694
0.96512
0.961078
0.964923
0.972916
0.984096
1.01498
1.06081
1.08822
1.10163
1.11131
1.11911
1.11379
1.08333
1.06121
1.05701
1.06197
1.07278
1.08753
1.12345
1.17772
1.21774
1.2421
1.26028
1.27233
1.26949
1.24888
1.22527
1.21368
1.21668
1.23132
1.2613
1.30564
1.33872
1.35691
1.37515
3.05134
20.6977
0.630384
0.649649
0.6898
0.722652
0.736599
0.737745
0.723091
0.704467
0.694263
0.690432
0.694319
0.707146
0.722522
0.730464
0.736593
0.742383
0.746315
0.748464
0.75105
0.757018
0.767477
0.778694
0.785329
0.788606
0.786682
0.775351
0.764366
0.762926
0.766708
0.781164
0.811303
0.835949
0.848768
0.8554
0.860374
0.86169
0.845187
0.820712
0.815072
0.818094
0.823643
0.83531
0.866205
0.898927
0.913289
0.919947
0.92521
0.927455
0.918067
0.896436
0.885319
0.886498
0.891546
0.898219
0.914769
0.950597
0.980319
0.992865
0.999774
1.00442
1.00729
1.00029
0.977394
0.965221
0.966178
0.972977
0.981071
0.99473
1.03488
1.07813
1.10002
1.11177
1.12149
1.12987
1.12017
1.08897
1.06969
1.06547
1.0681
1.07746
1.09364
1.13296
1.18674
1.22603
1.25072
1.26924
1.27896
1.27639
1.25815
1.23256
1.21719
1.21788
1.22964
1.26028
1.30427
1.33249
1.35649
3.11411
20.7627
0.660152
0.675143
0.686872
0.700224
0.708808
0.710274
0.708634
0.710472
0.711328
0.716314
0.72406
0.730459
0.734522
0.733636
0.721439
0.716631
0.722443
0.73741
0.756775
0.776377
0.791202
0.798296
0.801728
0.799506
0.781812
0.761066
0.755871
0.758404
0.763587
0.778455
0.816763
0.846688
0.85709
0.862821
0.865902
0.860489
0.838243
0.820427
0.817529
0.821022
0.826048
0.836665
0.867997
0.901614
0.916473
0.922812
0.924122
0.921639
0.918071
0.906341
0.893252
0.892114
0.897257
0.904529
0.91135
0.933593
0.969255
0.988919
0.997274
1.00362
1.0111
1.01564
1.00219
0.980835
0.97293
0.972872
0.977697
0.985478
1.00362
1.05092
1.09272
1.11333
1.12622
1.13715
1.14409
1.12709
1.09181
1.07198
1.06885
1.07454
1.08602
1.10264
1.14235
1.1944
1.23198
1.25657
1.27491
1.28323
1.28027
1.26152
1.23309
1.21467
1.21311
1.22263
1.25654
1.29866
1.33154
3.18477
20.8394
0.689056
0.692753
0.685483
0.677046
0.675328
0.682986
0.697651
0.717487
0.736731
0.747801
0.751671
0.750206
0.74026
0.719138
0.706112
0.705623
0.710023
0.726758
0.764841
0.796176
0.807287
0.812649
0.814741
0.802881
0.770581
0.755135
0.755405
0.758939
0.765102
0.787262
0.829513
0.852239
0.861188
0.865682
0.861992
0.848967
0.835855
0.825422
0.823048
0.827367
0.836499
0.849265
0.866729
0.893147
0.908868
0.914228
0.915043
0.918069
0.923876
0.923075
0.911952
0.905752
0.906436
0.908132
0.911348
0.917858
0.94363
0.979057
0.998274
1.00957
1.01824
1.02619
1.02781
1.00516
0.981515
0.973597
0.974409
0.980538
0.989775
1.01517
1.06886
1.11008
1.12918
1.1396
1.1469
1.1501
1.13189
1.10053
1.08321
1.07999
1.08364
1.0941
1.11153
1.15282
1.20284
1.23743
1.25974
1.27646
1.28266
1.27855
1.25967
1.22975
1.2093
1.20539
1.21425
1.25314
1.2981
3.25137
20.9249
0.708229
0.707942
0.682648
0.665869
0.66471
0.669338
0.688816
0.727323
0.753463
0.761772
0.766314
0.762877
0.735737
0.708258
0.703023
0.705378
0.710553
0.730919
0.777548
0.804314
0.812617
0.817423
0.81545
0.791381
0.76702
0.759236
0.759933
0.763894
0.776483
0.805231
0.834639
0.852586
0.85909
0.855879
0.847113
0.84472
0.842353
0.838234
0.839425
0.845417
0.853121
0.856892
0.860005
0.870451
0.892244
0.906191
0.914664
0.923539
0.932254
0.939618
0.937605
0.921978
0.911487
0.907065
0.907158
0.911341
0.922313
0.959055
0.998253
1.0174
1.02786
1.03591
1.04176
1.03241
1.00068
0.980517
0.977668
0.981944
0.988981
0.997969
1.02444
1.07886
1.11711
1.13413
1.14531
1.15589
1.16166
1.14398
1.11205
1.09245
1.08745
1.0916
1.10185
1.12023
1.16282
1.20902
1.23937
1.25961
1.27476
1.27958
1.2754
1.25664
1.22484
1.20149
1.19533
1.20738
1.25686
3.29773
21.0196
0.710033
0.694344
0.67172
0.666032
0.667374
0.674398
0.704929
0.742015
0.757427
0.76443
0.768129
0.753422
0.721616
0.707894
0.707028
0.709208
0.716186
0.747956
0.787955
0.806332
0.813812
0.814606
0.79845
0.779861
0.770923
0.768123
0.772047
0.784288
0.801479
0.8146
0.828386
0.837738
0.839257
0.836577
0.838312
0.846425
0.854673
0.861666
0.862084
0.860497
0.858599
0.853591
0.848983
0.851176
0.867762
0.897966
0.919951
0.935685
0.946109
0.952897
0.956363
0.942304
0.917822
0.90543
0.903635
0.907765
0.914456
0.935373
0.985014
1.02022
1.03349
1.04085
1.04555
1.04663
1.03241
1.00411
0.988863
0.986113
0.987285
0.992785
1.00239
1.03125
1.0863
1.12679
1.14683
1.15822
1.1674
1.17029
1.1535
1.12313
1.10137
1.09456
1.09816
1.1078
1.12756
1.17203
1.21466
1.24158
1.25953
1.27321
1.27736
1.27288
1.25277
1.21769
1.18998
1.18071
1.20726
3.30959
21.1065
0.692958
0.672934
0.669702
0.671966
0.67663
0.699481
0.731539
0.748261
0.757094
0.761975
0.75359
0.727284
0.714516
0.712523
0.714376
0.719985
0.740382
0.770638
0.791304
0.801359
0.802529
0.791339
0.782902
0.781036
0.780931
0.786519
0.798656
0.811132
0.817627
0.816415
0.810252
0.810838
0.821136
0.833493
0.845443
0.858723
0.873385
0.882446
0.885746
0.875699
0.856957
0.841668
0.838555
0.842548
0.852482
0.885608
0.926403
0.947993
0.957436
0.963238
0.966414
0.95791
0.927241
0.90731
0.904717
0.908282
0.913954
0.924426
0.955912
1.00375
1.02958
1.03997
1.04588
1.05084
1.05434
1.03898
1.00878
0.992346
0.989961
0.993689
0.999769
1.00868
1.03413
1.08863
1.13122
1.1518
1.16358
1.17329
1.17757
1.16154
1.13154
1.10842
1.10051
1.1039
1.11382
1.13529
1.17959
1.21948
1.24418
1.25992
1.27147
1.27447
1.26871
1.24586
1.20735
1.17296
1.15913
3.28012
21.1795
0.669106
0.663884
0.667618
0.674771
0.698194
0.735693
0.751896
0.756054
0.757817
0.748727
0.723916
0.711945
0.712296
0.716298
0.726546
0.748075
0.765972
0.777466
0.785663
0.786983
0.779244
0.774411
0.778033
0.78768
0.802364
0.814991
0.821328
0.824037
0.817646
0.799838
0.789783
0.791158
0.803431
0.831813
0.859798
0.879512
0.889296
0.894548
0.897893
0.886229
0.851359
0.834027
0.833892
0.838462
0.846216
0.87463
0.926857
0.952726
0.961817
0.967358
0.966989
0.959283
0.943089
0.919971
0.911512
0.914158
0.921667
0.929581
0.936713
0.962565
1.00532
1.03051
1.04225
1.05007
1.05771
1.06425
1.05096
1.01999
1.003
0.99857
0.99819
1.00264
1.01173
1.03764
1.09287
1.13611
1.15681
1.1684
1.17714
1.18051
1.16878
1.14146
1.11744
1.10785
1.10919
1.11709
1.13893
1.18382
1.22309
1.24568
1.25914
1.26826
1.26948
1.26201
1.23532
1.18695
1.1372
3.2049
21.2428
0.65487
0.653959
0.659952
0.677948
0.721465
0.750792
0.762275
0.766049
0.755699
0.729712
0.717444
0.715699
0.717795
0.731258
0.754725
0.768544
0.773289
0.771964
0.766169
0.764666
0.768792
0.774932
0.786396
0.808329
0.827668
0.836782
0.840277
0.830031
0.800125
0.779981
0.777918
0.782401
0.793171
0.82877
0.874465
0.894923
0.902119
0.905383
0.901445
0.87841
0.850141
0.837171
0.837228
0.841692
0.853348
0.876329
0.912647
0.944664
0.956488
0.959072
0.955874
0.958096
0.96114
0.950731
0.933311
0.927125
0.927627
0.927992
0.92828
0.933911
0.959476
1.00662
1.03689
1.05268
1.06494
1.07377
1.07859
1.06121
1.02595
1.00542
1.00106
1.00462
1.01164
1.02044
1.04192
1.09385
1.13689
1.15843
1.17254
1.18323
1.1865
1.17636
1.14834
1.12145
1.10937
1.10949
1.11641
1.1396
1.18672
1.22472
1.24494
1.25685
1.264
1.26381
1.25434
1.21493
1.14994
3.10657
21.303
0.656723
0.655128
0.670354
0.700889
0.728914
0.749768
0.75673
0.750468
0.73221
0.724557
0.725437
0.728265
0.742143
0.759326
0.769081
0.7733
0.766953
0.749184
0.742216
0.746007
0.760053
0.784234
0.813687
0.833596
0.841805
0.846447
0.847144
0.821136
0.783725
0.772189
0.773842
0.778316
0.789306
0.832303
0.881267
0.899188
0.905958
0.907752
0.894847
0.876318
0.858214
0.848039
0.849638
0.858586
0.872443
0.880418
0.889205
0.912316
0.936446
0.948207
0.955408
0.963636
0.97273
0.979281
0.969997
0.947843
0.933371
0.924441
0.919605
0.921988
0.929513
0.961815
1.01914
1.05522
1.06928
1.07668
1.08209
1.08613
1.07039
1.03609
1.0162
1.01172
1.01242
1.01655
1.02539
1.04955
1.10191
1.14376
1.16565
1.17813
1.18702
1.18874
1.17923
1.15196
1.1236
1.10991
1.10845
1.11491
1.13906
1.18636
1.2242
1.24375
1.25453
1.25927
1.25882
1.23947
1.18753
3.0325
21.3724
0.668744
0.675806
0.698122
0.712184
0.719781
0.726292
0.726388
0.726014
0.728514
0.732344
0.741227
0.759893
0.772969
0.778632
0.779967
0.767782
0.740709
0.728256
0.7294
0.735109
0.753501
0.799845
0.83938
0.852167
0.856248
0.853689
0.836491
0.801868
0.779693
0.774848
0.776875
0.782497
0.803044
0.841156
0.876798
0.894422
0.898686
0.8908
0.883473
0.882319
0.87788
0.872893
0.872206
0.875903
0.879798
0.878615
0.873962
0.877182
0.900818
0.936305
0.959982
0.976089
0.988251
0.996289
0.999619
0.980078
0.945751
0.924941
0.919472
0.921531
0.926792
0.936449
0.974244
1.03331
1.06435
1.07589
1.08308
1.09027
1.09474
1.07869
1.0444
1.02366
1.01859
1.02285
1.03135
1.03946
1.05797
1.10519
1.14415
1.16496
1.17856
1.18875
1.19244
1.18475
1.15635
1.1244
1.10879
1.1059
1.11025
1.13623
1.1864
1.22443
1.24261
1.25067
1.25406
1.24748
1.22705
3.01104
21.4552
0.697369
0.705499
0.712399
0.715518
0.706417
0.693581
0.694286
0.705702
0.726377
0.750803
0.775568
0.789295
0.793497
0.793335
0.782624
0.747322
0.722536
0.719226
0.722368
0.728303
0.75067
0.811866
0.847275
0.857432
0.862224
0.854156
0.821607
0.79698
0.785133
0.783565
0.789903
0.807352
0.826592
0.839035
0.854306
0.869187
0.877304
0.881226
0.886006
0.891506
0.900628
0.906886
0.902929
0.891691
0.879808
0.866011
0.860115
0.8629
0.872615
0.909304
0.958511
0.986573
0.999648
1.00744
1.01121
1.00709
0.9748
0.938122
0.925428
0.926114
0.933345
0.945039
0.956385
0.984438
1.03623
1.06821
1.08123
1.08594
1.09101
1.09866
1.09269
1.06567
1.04535
1.03713
1.03357
1.03327
1.03942
1.05959
1.1069
1.14737
1.17067
1.18567
1.19567
1.19768
1.18663
1.15499
1.12012
1.10265
1.10026
1.10685
1.1344
1.18531
1.22207
1.23758
1.24447
1.24326
1.25112
3.05104
21.5557
0.727094
0.730522
0.722559
0.706041
0.684544
0.677638
0.679956
0.686934
0.714282
0.766634
0.798704
0.807963
0.811448
0.807178
0.775838
0.736533
0.722852
0.72224
0.724928
0.735244
0.770307
0.816328
0.845035
0.853839
0.848484
0.827524
0.812602
0.805341
0.802903
0.808391
0.820312
0.831279
0.836112
0.833006
0.82783
0.832463
0.853234
0.877217
0.896128
0.913194
0.924138
0.929811
0.928813
0.908722
0.875989
0.856518
0.853661
0.857253
0.863253
0.882485
0.940677
0.987691
1.00398
1.01029
1.00949
1.00474
0.998245
0.974018
0.949823
0.943122
0.946476
0.952506
0.955074
0.957783
0.976902
1.02555
1.06032
1.07654
1.09274
1.10694
1.11503
1.11063
1.08213
1.04978
1.032
1.02942
1.03372
1.04079
1.06597
1.11959
1.1588
1.17706
1.18761
1.19424
1.19368
1.18437
1.15379
1.11885
1.10125
1.09849
1.1023
1.12839
1.17943
1.2143
1.23007
1.23182
1.25969
3.14071
21.6788
0.746403
0.753063
0.736469
0.697828
0.676937
0.675824
0.679174
0.685157
0.713386
0.774326
0.802415
0.810546
0.813825
0.798282
0.762501
0.739929
0.730781
0.732199
0.742113
0.765091
0.786582
0.804418
0.819099
0.82222
0.817456
0.814824
0.817908
0.823387
0.835092
0.844868
0.848992
0.847259
0.833725
0.814831
0.808374
0.811868
0.826862
0.866007
0.908449
0.932297
0.942014
0.947082
0.945896
0.923964
0.880331
0.858637
0.856071
0.85957
0.870217
0.889994
0.916199
0.959342
0.989732
1.00038
1.00226
1.00385
1.00927
1.01194
0.994074
0.969644
0.958496
0.954542
0.948606
0.946319
0.951795
0.971492
1.02467
1.07391
1.09744
1.10842
1.11653
1.12137
1.11479
1.08218
1.04927
1.03505
1.03445
1.04054
1.0505
1.07753
1.12413
1.15731
1.17394
1.18398
1.19042
1.19407
1.18972
1.15958
1.12073
1.09746
1.09078
1.09269
1.11811
1.17041
1.20653
1.21746
1.25434
3.25002
21.8171
0.750542
0.757076
0.731077
0.694564
0.681168
0.680334
0.683079
0.695068
0.733732
0.775732
0.798124
0.804303
0.796277
0.775109
0.761309
0.751967
0.751465
0.759624
0.777458
0.790751
0.795137
0.789184
0.780201
0.78379
0.798104
0.814525
0.834038
0.855281
0.868198
0.873304
0.872188
0.855093
0.819362
0.799653
0.797823
0.801442
0.809836
0.849128
0.910278
0.937888
0.946943
0.952039
0.947514
0.926314
0.898434
0.874619
0.868699
0.873757
0.887658
0.89899
0.9046
0.915712
0.947446
0.978718
0.995821
1.00681
1.01829
1.0273
1.0301
1.01015
0.978355
0.958305
0.950055
0.947819
0.95085
0.957898
0.976469
1.03124
1.08036
1.09971
1.1079
1.11268
1.11345
1.11015
1.0898
1.06363
1.04923
1.04612
1.04737
1.05246
1.07552
1.12165
1.15715
1.17583
1.18868
1.19775
1.20173
1.19591
1.16092
1.11493
1.08782
1.08005
1.08159
1.10886
1.16395
1.19413
1.24014
3.36505
21.9574
0.749255
0.746776
0.717115
0.699385
0.692259
0.693268
0.701332
0.722113
0.745423
0.767016
0.778352
0.777436
0.766694
0.761766
0.76505
0.771614
0.782844
0.793299
0.799019
0.801222
0.789051
0.763789
0.754879
0.758071
0.774464
0.815207
0.858737
0.88311
0.891144
0.892729
0.884356
0.849784
0.810735
0.797395
0.797969
0.801704
0.811634
0.840223
0.892429
0.930534
0.942908
0.942593
0.929578
0.923677
0.920801
0.909222
0.898099
0.896468
0.900031
0.903229
0.900155
0.896344
0.902133
0.932915
0.97734
1.00604
1.0214
1.03118
1.03881
1.043
1.02383
0.985314
0.961252
0.954486
0.956431
0.962026
0.968643
0.984597
1.03208
1.07526
1.09407
1.10419
1.1134
1.12116
1.12339
1.10683
1.07565
1.05229
1.04365
1.04447
1.04938
1.074
1.12583
1.16516
1.18356
1.19289
1.19843
1.20123
1.19263
1.15524
1.11143
1.08269
1.07089
1.0707
1.10315
1.15188
1.21136
3.4711
22.0675
0.745078
0.72563
0.708524
0.705012
0.706954
0.714156
0.730766
0.741379
0.746004
0.749643
0.749988
0.752793
0.758432
0.764696
0.776853
0.798721
0.813732
0.819824
0.819429
0.800614
0.764076
0.746415
0.746028
0.750453
0.761507
0.808535
0.87356
0.89525
0.902621
0.904482
0.886533
0.84453
0.814505
0.802757
0.8036
0.812939
0.835341
0.853191
0.86731
0.892147
0.913385
0.921383
0.92461
0.929387
0.935697
0.944142
0.942689
0.927221
0.913359
0.903011
0.89139
0.883647
0.88494
0.893264
0.929479
0.984141
1.01721
1.03323
1.04376
1.04949
1.05131
1.0295
0.989221
0.967729
0.962894
0.964055
0.966509
0.971655
0.985192
1.02741
1.07341
1.10111
1.11567
1.12446
1.13205
1.13466
1.11759
1.08143
1.05372
1.04377
1.04368
1.05028
1.07681
1.12902
1.16737
1.18459
1.19225
1.19635
1.19838
1.18784
1.15693
1.11133
1.0756
1.06048
1.0607
1.09184
1.16606
3.54883
22.1438
0.735581
0.719896
0.713538
0.715147
0.723305
0.737887
0.747557
0.751417
0.74492
0.728096
0.723905
0.730865
0.750338
0.776997
0.805411
0.823262
0.82986
0.832703
0.827229
0.785958
0.749698
0.741958
0.74438
0.748723
0.766104
0.823294
0.874024
0.895467
0.901738
0.891483
0.866021
0.848125
0.832714
0.825442
0.828426
0.839801
0.850462
0.854483
0.851401
0.848256
0.862324
0.895857
0.923316
0.940903
0.958265
0.970532
0.976091
0.965908
0.934715
0.904541
0.885437
0.879729
0.88244
0.888676
0.900187
0.942354
1.00569
1.03616
1.04528
1.04944
1.05175
1.04979
1.03346
1.00357
0.983191
0.973499
0.969991
0.971041
0.975883
0.986282
1.02541
1.07735
1.10787
1.1222
1.13074
1.13821
1.14186
1.12607
1.08602
1.05551
1.04511
1.04499
1.04918
1.0753
1.12941
1.16758
1.18286
1.18931
1.19448
1.19778
1.18567
1.15541
1.10957
1.06935
1.04987
1.04166
1.10584
3.58288
22.198
0.731135
0.726275
0.726172
0.732285
0.741213
0.748551
0.752583
0.749547
0.727269
0.712472
0.712057
0.717215
0.739859
0.791902
0.831002
0.843579
0.8468
0.841062
0.812016
0.770361
0.74978
0.745534
0.747781
0.76026
0.792008
0.82356
0.854506
0.872608
0.874487
0.866019
0.859685
0.860283
0.86262
0.864865
0.864636
0.863105
0.859362
0.846985
0.830076
0.8256
0.830702
0.853752
0.904984
0.949894
0.974893
0.986912
0.992881
0.992365
0.969641
0.920322
0.890915
0.8843
0.887603
0.898908
0.913123
0.927622
0.958711
1.00507
1.02803
1.0357
1.04027
1.04508
1.05258
1.05093
1.02922
1.00334
0.985512
0.976516
0.974047
0.976711
0.985553
1.02571
1.08149
1.11282
1.12792
1.13835
1.14622
1.1453
1.12755
1.08686
1.05385
1.0415
1.04296
1.048
1.07391
1.12794
1.16577
1.18155
1.18764
1.19131
1.19133
1.18043
1.1562
1.10769
1.06344
1.03288
1.03704
3.54195
22.2252
0.733226
0.744048
0.75108
0.753611
0.754688
0.755726
0.751555
0.731071
0.712088
0.707715
0.710092
0.714393
0.732186
0.797392
0.83828
0.848927
0.853169
0.839632
0.800388
0.772936
0.75849
0.758015
0.767084
0.792138
0.809976
0.815688
0.820104
0.827096
0.840903
0.853692
0.864448
0.880866
0.895836
0.902621
0.900376
0.886946
0.862669
0.833448
0.81815
0.816997
0.820635
0.829148
0.867089
0.941187
0.978998
0.990688
0.993102
0.98326
0.967604
0.946732
0.919642
0.907003
0.90897
0.91724
0.924074
0.927064
0.92785
0.942369
0.982837
1.01503
1.03283
1.04878
1.06364
1.07282
1.0727
1.04954
1.01045
0.982702
0.972934
0.972283
0.975335
0.985509
1.03254
1.09306
1.12371
1.13535
1.14139
1.14259
1.14294
1.13008
1.09065
1.05807
1.04571
1.04505
1.04834
1.0699
1.12064
1.15846
1.17484
1.18357
1.19068
1.18509
1.17738
1.15338
1.10245
1.04511
1.00694
3.42958
22.2452
0.729419
0.761853
0.77374
0.77753
0.774456
0.765043
0.742863
0.715045
0.703874
0.704639
0.708109
0.716011
0.748046
0.796999
0.832089
0.842321
0.836856
0.814441
0.798904
0.787291
0.782577
0.78621
0.798104
0.809068
0.813025
0.805714
0.790404
0.789024
0.803317
0.83727
0.875169
0.905307
0.922202
0.929114
0.930507
0.912867
0.870003
0.834093
0.820233
0.818968
0.824143
0.841336
0.866926
0.90504
0.951288
0.971637
0.973136
0.968208
0.968146
0.969335
0.964341
0.951965
0.940633
0.934167
0.929445
0.920527
0.911267
0.912387
0.92731
0.971784
1.0228
1.05523
1.07102
1.07958
1.08476
1.081
1.04917
1.00487
0.978625
0.972149
0.974411
0.979841
0.9954
1.04285
1.09414
1.11981
1.13042
1.13538
1.14092
1.1478
1.13999
1.10273
1.06555
1.0467
1.04139
1.04171
1.06024
1.11293
1.15499
1.17418
1.18334
1.18599
1.17926
1.17019
1.14213
1.08271
1.01561
3.28583
22.297
0.710258
0.76683
0.786681
0.794415
0.796911
0.785199
0.743547
0.712995
0.705723
0.707107
0.716238
0.740447
0.762264
0.781052
0.799775
0.809975
0.810252
0.809969
0.808989
0.809918
0.816164
0.82368
0.826961
0.823945
0.807028
0.782818
0.772511
0.773661
0.779009
0.805236
0.868461
0.914186
0.93099
0.938409
0.941983
0.930845
0.892575
0.850522
0.833176
0.832008
0.844289
0.862129
0.870853
0.876325
0.890021
0.918904
0.943803
0.958019
0.968667
0.983785
0.997661
0.999703
0.984085
0.959364
0.934256
0.912515
0.903411
0.904766
0.910538
0.92599
0.983757
1.04527
1.06974
1.07842
1.08254
1.07841
1.06743
1.04478
1.01112
0.989499
0.984483
0.987072
0.993078
1.00042
1.03227
1.08351
1.11624
1.13262
1.1449
1.15372
1.15891
1.15
1.10702
1.06257
1.03954
1.03437
1.03775
1.05832
1.11167
1.1535
1.17031
1.1751
1.17048
1.16655
1.15955
1.12254
1.06456
3.15175
22.3881
0.692354
0.759085
0.789506
0.796872
0.799403
0.785316
0.749682
0.723524
0.718275
0.723633
0.741525
0.758235
0.764292
0.765883
0.760923
0.765252
0.785598
0.808264
0.82515
0.841331
0.850991
0.853446
0.850184
0.832184
0.795553
0.772244
0.768249
0.770765
0.775385
0.791025
0.842131
0.905653
0.930918
0.938003
0.929575
0.910977
0.899604
0.884673
0.868804
0.864662
0.869364
0.874143
0.874711
0.862011
0.852604
0.861279
0.896207
0.938671
0.972355
1.00031
1.01794
1.02501
1.02276
0.996741
0.950405
0.915905
0.905441
0.907437
0.913603
0.92436
0.949819
1.00725
1.04858
1.0623
1.06661
1.06526
1.06524
1.06749
1.05992
1.03237
1.00713
0.995345
0.989188
0.985332
0.99016
1.02321
1.08461
1.12639
1.14387
1.15176
1.15746
1.16164
1.15129
1.10788
1.06506
1.0444
1.03894
1.04007
1.05822
1.10701
1.14304
1.15805
1.16313
1.16037
1.16009
1.14487
1.12027
3.07806
22.4976
0.689204
0.738579
0.777483
0.788373
0.788323
0.779782
0.764983
0.751067
0.74654
0.750445
0.758614
0.763699
0.762926
0.746449
0.737421
0.740241
0.754811
0.79422
0.839111
0.866384
0.876771
0.879775
0.871931
0.84002
0.796077
0.775146
0.771812
0.775189
0.790251
0.81201
0.830865
0.861799
0.895116
0.907616
0.907544
0.907519
0.910479
0.914711
0.917936
0.910902
0.89709
0.884517
0.867446
0.844745
0.835309
0.837359
0.84884
0.892314
0.959824
1.00455
1.02069
1.02726
1.02862
1.01761
0.982674
0.942826
0.924704
0.924133
0.930575
0.938796
0.94849
0.963349
0.997315
1.03044
1.04906
1.05931
1.06892
1.07801
1.08464
1.079
1.04592
1.00808
0.987338
0.981965
0.983988
0.990876
1.02285
1.08703
1.13106
1.14767
1.15366
1.1579
1.16124
1.1517
1.11786
1.07373
1.04716
1.03866
1.0373
1.04978
1.09309
1.13127
1.15089
1.15586
1.15624
1.14949
1.15634
3.07731
22.6029
0.698472
0.718285
0.74494
0.769065
0.779129
0.782409
0.784884
0.783764
0.779658
0.775941
0.772852
0.765191
0.747537
0.732007
0.728124
0.730652
0.736513
0.768443
0.835466
0.870434
0.88094
0.885463
0.879754
0.849505
0.815746
0.795715
0.791917
0.79785
0.811299
0.820403
0.82453
0.825012
0.833003
0.862157
0.891825
0.910889
0.926539
0.944525
0.954499
0.953719
0.933342
0.898822
0.863876
0.84191
0.836065
0.83858
0.844035
0.858838
0.915415
0.985685
1.01248
1.01855
1.0145
1.00594
0.999749
0.988978
0.970261
0.956148
0.950447
0.948624
0.945948
0.944079
0.949475
0.975534
1.0205
1.05557
1.07371
1.08469
1.09336
1.09767
1.08841
1.04998
1.00907
0.990265
0.986385
0.988229
0.992368
1.02119
1.08692
1.13124
1.14747
1.15407
1.16152
1.16575
1.15656
1.12554
1.07807
1.04463
1.0312
1.02917
1.03871
1.0819
1.12505
1.145
1.15026
1.14551
1.1761
3.12898
22.703
0.708776
0.713752
0.715457
0.731209
0.762315
0.785337
0.800057
0.809285
0.811322
0.804565
0.789055
0.765442
0.741888
0.729513
0.72843
0.730868
0.735184
0.751567
0.802992
0.853816
0.871275
0.874978
0.870141
0.861623
0.84872
0.833821
0.823765
0.820799
0.82184
0.822302
0.813192
0.802438
0.802639
0.814708
0.853377
0.901925
0.939741
0.963334
0.973802
0.97834
0.972761
0.9346
0.877791
0.849722
0.843747
0.848233
0.859798
0.874483
0.893672
0.931426
0.972904
0.992287
0.999068
1.0036
1.01145
1.01966
1.02005
1.00522
0.981854
0.959921
0.942061
0.932918
0.932723
0.937813
0.969228