/*--------------------------------*- C++ -*----------------------------------*\
  =========                 |
  \\      /  F ield         | OpenFOAM: The Open Source CFD Toolbox
   \\    /   O peration     | Website:  https://openfoam.org
    \\  /    A nd           | Version:  12
     \\/     M anipulation  |
\*---------------------------------------------------------------------------*/
FoamFile
{
    format      ascii;
    class       volScalarField;
    location    "25";
    object      rho;
}
// * * * * * * * * * * * * * * * * * * * * * * * * * * * * * * * * * * * * * //

dimensions      [1 -3 0 0 0 0 0];

internalField   nonuniform List<scalar> 
9801
(
1.18876
1.17766
1.18034
1.19913
1.22737
1.24322
1.25149
1.25787
1.26213
1.2514
1.23613
1.23484
1.23831
1.24406
1.25797
1.28459
1.30822
1.32057
1.3273
1.33246
1.3352
1.33111
1.33076
1.33434
1.33846
1.34287
1.34802
1.35735
1.36986
1.37996
1.39088
1.4021
1.41139
1.41889
1.4255
1.43005
1.42142
1.41448
1.41569
1.42019
1.42688
1.44855
1.47891
1.49576
1.50505
1.51247
1.51811
1.50965
1.492
1.49003
1.49607
1.5044
1.51953
1.55328
1.58494
1.60027
1.60922
1.61523
1.61925
1.61157
1.58898
1.58082
1.58697
1.5969
1.60907
1.63944
1.69089
1.72436
1.74112
1.75212
1.76192
1.76969
1.74991
1.71852
1.7134
1.72471
1.74156
1.78232
1.854
1.90667
1.93613
1.95723
1.97717
1.99085
1.96047
1.9157
1.91026
1.93379
1.97312
2.06721
2.18348
2.26011
2.31468
2.37681
2.43494
2.45489
2.40408
4.49382
23.6744
1.18571
1.18693
1.19528
1.21872
1.24019
1.25274
1.25972
1.26497
1.26614
1.25532
1.24413
1.24399
1.24807
1.25339
1.26387
1.28867
1.31365
1.32646
1.33324
1.33821
1.34163
1.33937
1.3368
1.3382
1.34064
1.34424
1.34887
1.35602
1.37363
1.39183
1.40392
1.41353
1.42183
1.42868
1.43476
1.43555
1.42347
1.4177
1.42032
1.42577
1.43521
1.46082
1.48825
1.50301
1.51132
1.51764
1.52187
1.5139
1.49839
1.49693
1.50242
1.5095
1.52121
1.55217
1.58275
1.59788
1.60667
1.61345
1.6205
1.62162
1.60397
1.59286
1.59495
1.60267
1.61227
1.63763
1.68642
1.72107
1.73983
1.75263
1.7638
1.77356
1.75829
1.72496
1.71625
1.72534
1.74018
1.77009
1.83655
1.89304
1.92509
1.94795
1.96927
1.9862
1.96134
1.91365
1.90198
1.9219
1.95459
2.0234
2.12702
2.20537
2.26259
2.32152
2.36641
2.37103
2.27452
4.14645
23.616
1.18151
1.19547
1.21596
1.23091
1.24158
1.24904
1.25454
1.25631
1.25228
1.2478
1.24593
1.24736
1.25144
1.25671
1.26309
1.28222
1.30795
1.32094
1.32733
1.33211
1.33646
1.3393
1.33605
1.33121
1.33193
1.33549
1.34067
1.34852
1.37075
1.39652
1.41014
1.41732
1.42261
1.42766
1.43157
1.4238
1.41194
1.41111
1.4159
1.42232
1.43524
1.46319
1.48415
1.4943
1.50017
1.50504
1.50973
1.50659
1.49419
1.49125
1.49522
1.50134
1.509
1.53043
1.56179
1.58224
1.5953
1.60515
1.61426
1.62067
1.60856
1.59106
1.59001
1.59607
1.60448
1.6206
1.6645
1.70614
1.72816
1.74171
1.75282
1.76191
1.75013
1.71532
1.70125
1.70761
1.72122
1.74206
1.80178
1.86734
1.90103
1.92085
1.93905
1.95269
1.93578
1.89235
1.87173
1.88201
1.91024
1.95426
2.04667
2.14328
2.2085
2.26251
2.30395
2.30738
2.21413
3.97714
23.1258
1.17752
1.20546
1.22484
1.23387
1.23831
1.24156
1.24197
1.24049
1.2414
1.24456
1.24737
1.25047
1.2545
1.25879
1.26348
1.27276
1.29471
1.31012
1.31781
1.3238
1.32912
1.33368
1.33261
1.32408
1.32274
1.32642
1.33178
1.34011
1.36449
1.39233
1.40458
1.41029
1.4145
1.41824
1.41725
1.40527
1.39933
1.40284
1.4087
1.415
1.42763
1.45132
1.46802
1.47687
1.48354
1.48966
1.49573
1.49761
1.48658
1.47961
1.48065
1.48497
1.49113
1.50391
1.53713
1.56685
1.58406
1.59507
1.60395
1.61223
1.60616
1.58168
1.57199
1.57607
1.58465
1.59633
1.63101
1.67759
1.70236
1.71534
1.72528
1.73427
1.73092
1.69924
1.67834
1.68206
1.695
1.7108
1.75022
1.81448
1.8528
1.87244
1.88918
1.9047
1.90224
1.87123
1.84244
1.83666
1.8561
1.88796
1.94497
2.03037
2.0986
2.15197
2.19794
2.218
2.17103
3.92165
22.6689
1.17109
1.20531
1.221
1.22654
1.22811
1.22407
1.22312
1.22699
1.23367
1.24044
1.24711
1.25182
1.25436
1.25622
1.25706
1.25915
1.2697
1.29036
1.30468
1.31308
1.31914
1.32456
1.32771
1.31854
1.31064
1.31118
1.31507
1.3217
1.34367
1.37333
1.38708
1.39355
1.39845
1.4017
1.39792
1.38716
1.38302
1.3859
1.39061
1.3958
1.40411
1.42581
1.4462
1.45762
1.46583
1.47301
1.47936
1.48329
1.47359
1.46282
1.4617
1.46548
1.47165
1.48062
1.50934
1.54553
1.56474
1.57503
1.58315
1.59078
1.59048
1.56511
1.54896
1.55159
1.56
1.57024
1.59367
1.63956
1.66986
1.68438
1.69485
1.70468
1.70935
1.68678
1.65767
1.65205
1.66262
1.67684
1.69916
1.75353
1.80502
1.83153
1.84945
1.86618
1.87363
1.85725
1.8295
1.81081
1.81199
1.83568
1.8738
1.93958
2.01181
2.06797
2.11451
2.1483
2.13196
3.912
22.3559
1.16444
1.19784
1.20931
1.2114
1.20736
1.2065
1.21111
1.22032
1.23024
1.23865
1.24503
1.25024
1.24919
1.24124
1.23823
1.23974
1.24662
1.27334
1.29491
1.30512
1.31146
1.31705
1.3213
1.30997
1.2939
1.29214
1.29573
1.3017
1.31956
1.35043
1.3679
1.37539
1.38036
1.3837
1.38205
1.37342
1.3676
1.36823
1.37114
1.37512
1.38064
1.39745
1.42538
1.44228
1.45184
1.45918
1.46548
1.47078
1.46399
1.44843
1.44452
1.44797
1.45427
1.46257
1.48625
1.52598
1.5476
1.55741
1.56486
1.57133
1.57265
1.55253
1.53095
1.52896
1.53753
1.54784
1.5641
1.60377
1.64097
1.65841
1.66913
1.6791
1.68858
1.68234
1.65269
1.6347
1.6363
1.64803
1.66303
1.69575
1.7541
1.79793
1.82331
1.84269
1.85884
1.85579
1.82914
1.80523
1.79703
1.80574
1.83041
1.87125
1.93392
1.99079
2.02977
2.06515
2.08422
3.96968
22.1952
1.15673
1.17525
1.18659
1.19007
1.19143
1.19652
1.20698
1.21673
1.2253
1.23233
1.238
1.23848
1.22809
1.22062
1.22095
1.22435
1.23728
1.26578
1.28691
1.2975
1.30408
1.30965
1.31083
1.29377
1.27809
1.27715
1.28086
1.28582
1.29772
1.32574
1.34774
1.35765
1.36322
1.36741
1.36982
1.36458
1.35412
1.34919
1.3504
1.35425
1.35971
1.37064
1.40216
1.42976
1.44271
1.45019
1.45618
1.46163
1.45862
1.43933
1.42873
1.43161
1.43892
1.44812
1.46855
1.50806
1.53284
1.54273
1.5491
1.55398
1.55705
1.54824
1.52559
1.51571
1.52087
1.53025
1.54115
1.56788
1.61211
1.63958
1.6531
1.66354
1.67391
1.68009
1.66089
1.63446
1.62316
1.62667
1.63857
1.65544
1.6983
1.75886
1.8012
1.82684
1.847
1.85989
1.8475
1.82202
1.80337
1.79783
1.80704
1.83175
1.874
1.92969
1.97144
2.00106
2.02806
4.03367
22.1211
1.14861
1.14748
1.15372
1.16977
1.18591
1.20031
1.21185
1.21968
1.22473
1.22865
1.22346
1.20822
1.20306
1.20551
1.21022
1.21893
1.24184
1.26754
1.28166
1.29018
1.29615
1.29893
1.29009
1.27507
1.2694
1.27085
1.27471
1.27927
1.28617
1.3068
1.33022
1.34337
1.35118
1.35664
1.36108
1.36189
1.35059
1.33816
1.33517
1.33891
1.34523
1.35427
1.38162
1.41896
1.43682
1.44461
1.45044
1.45558
1.45635
1.43939
1.42239
1.42189
1.42869
1.43673
1.45104
1.48593
1.51714
1.53019
1.5371
1.54345
1.5513
1.55428
1.53418
1.51559
1.51166
1.51659
1.52381
1.5358
1.57382
1.61881
1.64246
1.6558
1.66709
1.67764
1.6741
1.64562
1.625
1.61893
1.62302
1.63458
1.6537
1.70246
1.76323
1.80512
1.83206
1.8538
1.86428
1.85219
1.82561
1.80435
1.7986
1.80938
1.83431
1.87609
1.9234
1.95539
1.9799
4.08791
22.0768
1.13488
1.1285
1.13298
1.1528
1.18783
1.21
1.21914
1.22362
1.22672
1.22222
1.19673
1.18341
1.18516
1.19078
1.20052
1.22065
1.25275
1.27156
1.27945
1.28423
1.28531
1.27757
1.26775
1.26221
1.2621
1.26558
1.27047
1.27559
1.2816
1.29711
1.31874
1.33262
1.34134
1.34783
1.35326
1.35788
1.35336
1.3366
1.32932
1.33169
1.33738
1.3449
1.36534
1.40507
1.42954
1.43942
1.44569
1.45104
1.45507
1.44677
1.42644
1.41861
1.42062
1.42552
1.43229
1.45319
1.49283
1.51734
1.52954
1.5404
1.55088
1.55913
1.55323
1.52567
1.50883
1.50281
1.50566
1.514
1.53433
1.5857
1.62937
1.65143
1.66543
1.6773
1.68535
1.66819
1.63687
1.61976
1.61595
1.62102
1.6336
1.65828
1.71233
1.77207
1.81379
1.84088
1.86186
1.86643
1.85586
1.83282
1.80955
1.80083
1.80769
1.82961
1.86809
1.90878
1.93573
4.14584
22.0491
1.12661
1.12293
1.12692
1.1457
1.18961
1.21429
1.22173
1.2267
1.22654
1.20333
1.18045
1.17702
1.18036
1.18482
1.19445
1.22459
1.25569
1.27094
1.27652
1.27565
1.26668
1.26189
1.26111
1.25935
1.25862
1.2616
1.26688
1.27208
1.27712
1.28837
1.31069
1.32605
1.33483
1.34243
1.34934
1.35505
1.3572
1.34206
1.33011
1.3305
1.33496
1.34087
1.35312
1.38853
1.4205
1.43447
1.4422
1.44849
1.45446
1.45616
1.43773
1.41993
1.41371
1.4135
1.41791
1.42723
1.45986
1.50247
1.52672
1.54182
1.55244
1.56012
1.56374
1.54004
1.50608
1.49191
1.49215
1.50039
1.51252
1.54815
1.6076
1.6458
1.66438
1.67706
1.68835
1.68991
1.65933
1.62806
1.61644
1.61812
1.62644
1.63995
1.66452
1.71777
1.77495
1.81457
1.84177
1.86271
1.86708
1.8596
1.83706
1.80929
1.79412
1.79524
1.81038
1.849
1.88599
4.20981
22.0378
1.12517
1.12539
1.1294
1.15086
1.19419
1.21507
1.22285
1.22611
1.21307
1.19035
1.1805
1.17917
1.18264
1.19129
1.20768
1.22793
1.25034
1.26157
1.26361
1.25796
1.25712
1.26139
1.26436
1.26293
1.26297
1.26538
1.26668
1.26761
1.27031
1.27662
1.29865
1.32131
1.33379
1.34349
1.35131
1.35727
1.36183
1.35378
1.33647
1.33115
1.33253
1.33716
1.34461
1.37032
1.40944
1.43041
1.4401
1.44695
1.45299
1.4577
1.45142
1.42481
1.4094
1.406
1.41
1.41749
1.43539
1.48307
1.52513
1.54353
1.55246
1.5589
1.56298
1.55009
1.51243
1.49141
1.4895
1.49542
1.50484
1.52031
1.56802
1.62599
1.65651
1.6713
1.68283
1.69177
1.68931
1.66128
1.63378
1.62334
1.62316
1.62841
1.64136
1.66874
1.7228
1.77813
1.81658
1.84325
1.86275
1.86383
1.85578
1.83198
1.79882
1.7769
1.77259
1.786
1.82553
4.26415
22.0494
1.12707
1.12972
1.1356
1.1643
1.19786
1.21271
1.21777
1.21276
1.19961
1.19216
1.188
1.19074
1.19925
1.21104
1.21698
1.22124
1.22801
1.23865
1.2446
1.2487
1.25863
1.26715
1.27369
1.27713
1.27399
1.26864
1.26379
1.2601
1.26069
1.26517
1.28326
1.31696
1.33729
1.34814
1.35629
1.36277
1.36828
1.36509
1.34254
1.32847
1.32843
1.33353
1.34038
1.35664
1.39593
1.42632
1.43881
1.44548
1.45043
1.45545
1.45758
1.43893
1.4128
1.40586
1.40914
1.41609
1.42539
1.4575
1.51132
1.53829
1.54712
1.5525
1.55709
1.55646
1.53375
1.50496
1.49604
1.49749
1.50211
1.50968
1.52684
1.57982
1.63396
1.6619
1.6786
1.69271
1.70438
1.6979
1.66408
1.63313
1.62034
1.62188
1.63153
1.64597
1.67714
1.73216
1.78278
1.81615
1.83934
1.85449
1.8526
1.8434
1.81829
1.78201
1.75589
1.74975
1.76042
4.28095
22.095
1.12894
1.13365
1.1478
1.17534
1.19519
1.20405
1.20492
1.19792
1.19859
1.20269
1.20712
1.21199
1.21757
1.22173
1.218
1.2055
1.20372
1.2139
1.23521
1.25399
1.26736
1.27902
1.28662
1.29138
1.28787
1.27144
1.25597
1.24998
1.25192
1.25737
1.2729
1.31253
1.3434
1.35741
1.36436
1.36972
1.37432
1.37034
1.34566
1.32852
1.3284
1.33365
1.3401
1.34968
1.37835
1.41683
1.43533
1.44311
1.44888
1.45533
1.46128
1.4563
1.42725
1.41141
1.41075
1.41457
1.42101
1.43407
1.48041
1.52421
1.54005
1.54738
1.55547
1.56346
1.56009
1.53093
1.5065
1.49877
1.49861
1.50361
1.5121
1.5327
1.58928
1.64589
1.67593
1.69128
1.70312
1.70855
1.69755
1.66562
1.63576
1.62418
1.62641
1.63804
1.65552
1.68996
1.74296
1.78455
1.80997
1.82798
1.8385
1.83713
1.82858
1.8016
1.76565
1.73792
1.70943
4.25518
22.1741
1.13157
1.14095
1.15877
1.1754
1.18687
1.19289
1.19366
1.19634
1.20558
1.21849
1.22694
1.23004
1.22929
1.22134
1.20092
1.19113
1.19263
1.19949
1.22581
1.26158
1.28249
1.2924
1.29811
1.30219
1.29993
1.27346
1.24852
1.24454
1.24809
1.25451
1.26899
1.31059
1.34955
1.36389
1.37102
1.37484
1.37202
1.36537
1.35135
1.33492
1.33181
1.33648
1.34386
1.34996
1.3606
1.39664
1.42908
1.44271
1.45081
1.45802
1.4641
1.46682
1.44543
1.41844
1.41035
1.41101
1.4161
1.4237
1.44633
1.49849
1.5339
1.5497
1.55978
1.56733
1.57306
1.55979
1.52419
1.50326
1.49992
1.50343
1.50901
1.51709
1.53668
1.59453
1.65105
1.6785
1.69352
1.70513
1.70981
1.70023
1.67125
1.64383
1.63262
1.63648
1.64836
1.66477
1.70027
1.74735
1.78053
1.80139
1.81713
1.82429
1.82431
1.81479
1.78528
1.74321
1.68925
4.18288
22.274
1.13697
1.15131
1.16051
1.1685
1.17488
1.18032
1.18698
1.20179
1.22131
1.23326
1.23886
1.24125
1.2327
1.20556
1.18857
1.18757
1.19159
1.19851
1.22137
1.26764
1.29334
1.30231
1.30746
1.31
1.30172
1.27327
1.25051
1.2473
1.25123
1.25969
1.27882
1.31315
1.34933
1.36634
1.3714
1.36805
1.36736
1.37011
1.36584
1.3521
1.34414
1.34481
1.34712
1.34932
1.35421
1.37154
1.41454
1.44267
1.45444
1.46083
1.46554
1.46902
1.45977
1.42764
1.41022
1.40963
1.41449
1.42159
1.43074
1.46121
1.515
1.54648
1.55795
1.56353
1.56985
1.57519
1.56112
1.53037
1.51307
1.50837
1.50831
1.51196
1.51989
1.54274
1.60081
1.65547
1.68402
1.69988
1.70861
1.71012
1.70516
1.68303
1.65651
1.64332
1.64441
1.65488
1.6708
1.70453
1.74677
1.77638
1.7961
1.80938
1.81365
1.81376
1.80029
1.76026
1.69001
4.09007
22.3718
1.14706
1.15797
1.16117
1.15842
1.15983
1.16892
1.18786
1.21321
1.23123
1.24015
1.24527
1.24839
1.23103
1.19863
1.18926
1.19105
1.19488
1.20149
1.23012
1.27375
1.29663
1.30574
1.30922
1.30113
1.28959
1.27851
1.26412
1.26075
1.26768
1.2823
1.29261
1.30319
1.32976
1.35131
1.35879
1.36147
1.36734
1.37672
1.38312
1.38023
1.36275
1.35147
1.3475
1.34729
1.35073
1.35798
1.38892
1.43367
1.4531
1.45964
1.46353
1.46671
1.46717
1.44926
1.42345
1.41648
1.42
1.42502
1.42897
1.43669
1.46881
1.52026
1.54812
1.56262
1.57425
1.5836
1.58899
1.57042
1.53611
1.51638
1.51155
1.51368
1.51964
1.52781
1.54671
1.59939
1.65403
1.68465
1.70161
1.71177
1.7148
1.71195
1.69389
1.66793
1.65241
1.65045
1.65702
1.67135
1.70247
1.74293
1.77213
1.7912
1.79978
1.80237
1.80193
1.77715
1.71315
3.9994
22.4598
1.1593
1.16488
1.15634
1.14952
1.15129
1.15945
1.18739
1.21838
1.2332
1.2395
1.24384
1.24303
1.22408
1.2031
1.19466
1.19628
1.20173
1.21436
1.23851
1.27072
1.29094
1.29821
1.29449
1.2884
1.29011
1.29055
1.28969
1.29004
1.29476
1.30065
1.29915
1.29534
1.29932
1.32351
1.349
1.3632
1.37448
1.38712
1.39767
1.4029
1.39088
1.36374
1.34929
1.34573
1.34755
1.35273
1.36591
1.40833
1.44417
1.45631
1.46138
1.46689
1.47394
1.47549
1.45489
1.434
1.42734
1.425
1.42442
1.42804
1.4365
1.47143
1.52732
1.56223
1.57826
1.58793
1.59681
1.60001
1.58058
1.54714
1.5263
1.52039
1.52052
1.52363
1.53135
1.55266
1.60419
1.65613
1.68576
1.70145
1.71153
1.71645
1.71706
1.70512
1.67879
1.65781
1.65027
1.65287
1.66521
1.69502
1.7368
1.76705
1.7837
1.78837
1.79157
1.78327
1.74796
3.93998
22.5369
1.17337
1.16615
1.14831
1.1434
1.14583
1.15341
1.18491
1.21928
1.23329
1.23956
1.24312
1.23634
1.22169
1.21063
1.20696
1.20923
1.21593
1.22468
1.23528
1.25381
1.26989
1.27717
1.27877
1.28276
1.29191
1.31015
1.32194
1.32202
1.31287
1.30284
1.28945
1.28061
1.28175
1.295
1.33345
1.36672
1.388
1.40206
1.40996
1.41439
1.41062
1.3813
1.35314
1.3451
1.34655
1.35093
1.35713
1.37521
1.4192
1.4499
1.46362
1.47357
1.48149
1.48803
1.48602
1.45985
1.43412
1.42378
1.42246
1.42417
1.42923
1.43901
1.47776
1.53967
1.57547
1.59072
1.60036
1.60908
1.61102
1.5908
1.55599
1.53222
1.52517
1.52804
1.53868
1.54857
1.56112
1.59894
1.64858
1.68096
1.69958
1.71236
1.72266
1.72786
1.71412
1.6829
1.65469
1.64255
1.64326
1.65426
1.68777
1.73403
1.76349
1.774
1.77673
1.7751
1.77391
3.92505
22.6027
1.18243
1.15559
1.13867
1.1383
1.14163
1.15139
1.18481
1.21996
1.23401
1.24057
1.24296
1.23635
1.22704
1.22064
1.21854
1.22004
1.22396
1.22777
1.22832
1.23098
1.24624
1.2658
1.27748
1.29034
1.31219
1.33174
1.34007
1.34251
1.32553
1.29209
1.27071
1.26732
1.27175
1.28095
1.31298
1.3689
1.40167
1.4137
1.41896
1.42107
1.41934
1.39923
1.36348
1.34826
1.34783
1.35112
1.35481
1.36104
1.38159
1.42914
1.46373
1.48006
1.48957
1.49635
1.50097
1.49171
1.45794
1.4334
1.42618
1.42702
1.43221
1.43925
1.44874
1.48578
1.54442
1.58076
1.59732
1.60661
1.6123
1.61768
1.611
1.58149
1.55518
1.54519
1.54264
1.54169
1.54491
1.55665
1.59528
1.64992
1.68601
1.70701
1.72091
1.72998
1.73086
1.71624
1.67894
1.64556
1.63275
1.63415
1.64516
1.68651
1.73432
1.75756
1.7626
1.76031
1.78394
3.95664
22.671
1.17922
1.14228
1.13366
1.13578
1.14012
1.15249
1.18951
1.22338
1.23744
1.24388
1.24394
1.2382
1.23251
1.22735
1.2244
1.22496
1.22632
1.22384
1.2196
1.22135
1.22967
1.2553
1.28658
1.31248
1.32999
1.33877
1.34423
1.3471
1.32901
1.28519
1.26606
1.26594
1.27034
1.27797
1.30383
1.36543
1.40525
1.41721
1.42053
1.41674
1.41088
1.40391
1.38541
1.36357
1.35554
1.35445
1.35426
1.35714
1.36481
1.39019
1.44266
1.47688
1.4894
1.49403
1.49781
1.50358
1.49651
1.4671
1.44625
1.44102
1.44299
1.44488
1.44644
1.45178
1.47612
1.53263
1.57714
1.59978
1.61729
1.63057
1.63829
1.63218
1.59928
1.56251
1.54224
1.53634
1.53775
1.5432
1.55721
1.60457
1.66312
1.69761
1.71549
1.72704
1.73159
1.73063
1.71373
1.67197
1.63891
1.62707
1.62658
1.63997
1.68865
1.73114
1.74561
1.74429
1.7787
4.01945
22.7499
1.16439
1.13684
1.13444
1.13751
1.1449
1.16797
1.20186
1.22558
1.23833
1.24316
1.23871
1.23241
1.22948
1.22891
1.22766
1.22714
1.2269
1.22056
1.21541
1.21856
1.22483
1.24213
1.28822
1.32295
1.33743
1.3434
1.34432
1.33371
1.31004
1.28553
1.27096
1.27016
1.27905
1.29903
1.32012
1.34825
1.38524
1.40217
1.40403
1.39982
1.39971
1.40321
1.40617
1.39314
1.37263
1.36139
1.3587
1.36073
1.36256
1.36727
1.39036
1.44352
1.47655
1.49074
1.50264
1.51395
1.52291
1.51743
1.48691
1.46121
1.4497
1.44261
1.43913
1.44133
1.44751
1.47319
1.54038
1.59791
1.62112
1.6323
1.63969
1.64381
1.63762
1.60121
1.56148
1.54093
1.53617
1.53942
1.54743
1.56674
1.62031
1.67428
1.70158
1.7147
1.72348
1.72731
1.7298
1.71181
1.66907
1.63472
1.62113
1.61971
1.63702
1.68554
1.71902
1.72618
1.7641
4.09713
22.8374
1.15067
1.1391
1.1393
1.14948
1.17251
1.19025
1.20016
1.21356
1.22194
1.22233
1.21902
1.21995
1.22733
1.2347
1.23987
1.24109
1.23529
1.22395
1.21912
1.22124
1.22576
1.23502
1.27514
1.32113
1.33719
1.34196
1.3352
1.3207
1.30867
1.29478
1.28787
1.29219
1.30663
1.31954
1.32525
1.32775
1.33573
1.36178
1.38152
1.39058
1.39834
1.4087
1.41833
1.42298
1.40752
1.3807
1.36602
1.35902
1.35437
1.3547
1.36056
1.38587
1.44284
1.48795
1.51366
1.52816
1.53627
1.54029
1.52711
1.48935
1.45506
1.44076
1.43984
1.44276
1.44868
1.46088
1.48812
1.54914
1.60116
1.62356
1.63356
1.63487
1.63505
1.62905
1.59783
1.56464
1.54733
1.54309
1.54684
1.55272
1.57075
1.62327
1.67097
1.69545
1.71171
1.72195
1.72917
1.7323
1.71192
1.66688
1.62684
1.6116
1.61035
1.62895
1.67628
1.69934
1.74376
4.17884
22.9181
1.15073
1.14794
1.16114
1.18571
1.1991
1.20187
1.19216
1.18029
1.18081
1.19435
1.20814
1.22059
1.23356
1.24895
1.26132
1.26703
1.25733
1.23463
1.22313
1.22179
1.22437
1.22887
1.25062
1.29716
1.31933
1.3234
1.31968
1.31959
1.31969
1.31922
1.31977
1.32039
1.32206
1.32441
1.31805
1.30226
1.29804
1.31161
1.3497
1.38181
1.4025
1.42092
1.43331
1.43954
1.43779
1.41047
1.37432
1.35163
1.34473
1.348
1.35441
1.3624
1.39248
1.46496
1.51355
1.52917
1.53541
1.53714
1.53421
1.525
1.49329
1.46162
1.45077
1.45162
1.45779
1.46836
1.4767
1.49057
1.54058
1.58977
1.61098
1.61887
1.62469
1.62964
1.62692
1.60574
1.57614
1.55416
1.5443
1.54304
1.54789
1.56715
1.61996
1.6688
1.69757
1.71493
1.72409
1.72991
1.72956
1.70753
1.65981
1.61625
1.59965
1.59768
1.62283
1.66061
1.71428
4.24865
22.9612
1.16149
1.18322
1.20265
1.20983
1.21055
1.19398
1.16164
1.14621
1.14776
1.16669
1.20216
1.23354
1.26132
1.27831
1.28603
1.28862
1.27424
1.24082
1.22096
1.21767
1.21988
1.22423
1.2337
1.26399
1.30018
1.31529
1.32103
1.3274
1.33773
1.34848
1.35222
1.34691
1.33538
1.31843
1.29319
1.27921
1.28016
1.28799
1.31154
1.36259
1.41007
1.43499
1.44529
1.44963
1.4518
1.43854
1.39031
1.35464
1.34749
1.35103
1.35868
1.3722
1.39074
1.41808
1.46843
1.50278
1.5161
1.52224
1.52652
1.53065
1.53248
1.51394
1.48382
1.46919
1.46717
1.46912
1.46954
1.47429
1.48767
1.53239
1.58336
1.60852
1.61823
1.62603
1.63223
1.63509
1.61477
1.58187
1.55558
1.5414
1.53793
1.54384
1.56225
1.61424
1.66653
1.69616
1.71079
1.71895
1.7247
1.72139
1.70138
1.65476
1.60943
1.58956
1.58759
1.60965
1.67502
4.29895
22.9736
1.19344
1.22796
1.23512
1.23201
1.20619
1.15807
1.13124
1.12753
1.13122
1.14519
1.19563
1.26382
1.2941
1.30378
1.30633
1.30149
1.28116
1.24117
1.21899
1.21604
1.21944
1.22604
1.23233
1.24214
1.27275
1.30853
1.32901
1.34236
1.3577
1.36618
1.36887
1.36503
1.34732
1.30836
1.27764
1.27003
1.2733
1.27999
1.29116
1.33413
1.40645
1.4383
1.44699
1.44961
1.44283
1.42892
1.41094
1.38344
1.36936
1.37091
1.37874
1.38863
1.39383
1.39656
1.40416
1.43987
1.48569
1.51265
1.52742
1.53981
1.54936
1.55357
1.53568
1.50039
1.47679
1.46882
1.47001
1.47458
1.47972
1.49003
1.52879
1.57805
1.60393
1.61647
1.62573
1.63386
1.63616
1.62234
1.58899
1.5566
1.5408
1.53687
1.54084
1.55624
1.60583
1.65874
1.68903
1.70356
1.71254
1.71738
1.71526
1.69868
1.65469
1.6034
1.57586
1.56851
1.62367
4.3203
22.9716
1.23049
1.25153
1.25141
1.23761
1.17913
1.13272
1.12172
1.12316
1.12857
1.1461
1.21359
1.28195
1.3048
1.31252
1.31214
1.29422
1.26717
1.24312
1.22516
1.22059
1.22478
1.23314
1.23992
1.24461
1.24993
1.27677
1.31984
1.34957
1.36776
1.37558
1.37735
1.37346
1.35273
1.31211
1.28203
1.27422
1.27806
1.28714
1.30237
1.32706
1.37332
1.4161
1.42922
1.42941
1.42239
1.42105
1.42654
1.43034
1.41952
1.40522
1.39897
1.39549
1.38759
1.37839
1.37811
1.38608
1.42648
1.49318
1.533
1.54812
1.55728
1.56295
1.56391
1.54888
1.5124
1.48656
1.4788
1.48004
1.48149
1.48209
1.48945
1.52383
1.57253
1.60047
1.61598
1.6302
1.64107
1.64314
1.62906
1.59074
1.55497
1.53735
1.53244
1.53359
1.54582
1.59372
1.65092
1.68439
1.7011
1.71025
1.71531
1.71158
1.69764
1.65369
1.5981
1.5516
1.56225
4.29931
22.9797
1.2529
1.27056
1.2533
1.20233
1.15246
1.13047
1.12561
1.12769
1.14529
1.19007
1.23823
1.27805
1.30081
1.30581
1.28815
1.26506
1.25666
1.25473
1.24964
1.24511
1.246
1.24861
1.24765
1.24528
1.24595
1.25124
1.28069
1.33235
1.35846
1.36531
1.36664
1.3653
1.35768
1.3337
1.30504
1.29425
1.29713
1.30501
1.31572
1.32503
1.33544
1.35752
1.38636
1.40439
1.41446
1.42844
1.44771
1.46286
1.46739
1.45274
1.42254
1.39438
1.37559
1.36827
1.36956
1.37428
1.38749
1.43884
1.51032
1.5449
1.55793
1.56165
1.56238
1.56597
1.55977
1.52893
1.50244
1.48919
1.48215
1.47773
1.47637
1.4847
1.52223
1.57326
1.60569
1.62549
1.63859
1.64497
1.64511
1.62749
1.5877
1.54991
1.52868
1.52344
1.5256
1.53582
1.58503
1.64749
1.68454
1.70059
1.7085
1.71027
1.7039
1.68948
1.65012
1.58413
1.53407
4.21772
23.0261
1.25598
1.26798
1.22089
1.17299
1.14976
1.13948
1.14004
1.16277
1.2058
1.22965
1.23745
1.24659
1.25327
1.25371
1.25069
1.24984
1.25536
1.27116
1.28671
1.29074
1.27952
1.26267
1.24946
1.23956
1.23679
1.23934
1.24803
1.28853
1.33978
1.35949
1.36583
1.36964
1.36821
1.3583
1.34191
1.32367
1.31547
1.31665
1.32032
1.3195
1.31408
1.316
1.33206
1.36742
1.4092
1.44834
1.47513
1.48606
1.49219
1.48854
1.45378
1.40338
1.37556
1.36939
1.37116
1.3787
1.39662
1.41534
1.44896
1.50503
1.53925
1.55228
1.55865
1.56652
1.57448
1.57413
1.54459
1.50965
1.48785
1.47673
1.47308
1.47482
1.48459
1.52518
1.57971
1.613
1.63042
1.63951
1.64177
1.64029
1.62327
1.58847
1.54865
1.52496
1.51717
1.5176
1.5285
1.58003
1.64615
1.68356
1.69819
1.70349
1.6989
1.69291
1.67892
1.63415
1.56037
4.11232
23.1146
1.24325
1.2222
1.17947
1.16397
1.15996
1.16244
1.18853
1.22263
1.2364
1.23943
1.2279
1.19902
1.19058
1.20485
1.23001
1.25105
1.27436
1.3022
1.31927
1.32417
1.31486
1.2798
1.24389
1.22843
1.22794
1.23275
1.24009
1.25487
1.30608
1.35375
1.36969
1.37414
1.3767
1.37715
1.37167
1.35563
1.338
1.32744
1.31888
1.30826
1.3011
1.30239
1.30783
1.32491
1.38823
1.45632
1.48218
1.49056
1.49585
1.49359
1.47678
1.44076
1.40141
1.38539
1.38521
1.39444
1.40627
1.41114
1.41509
1.43464
1.48883
1.53435
1.55517
1.56385
1.56807
1.57362
1.57597
1.55612
1.51925
1.49029
1.47634
1.47179
1.47408
1.48723
1.53273
1.58806
1.61779
1.63218
1.63839
1.64047
1.63796
1.62544
1.59445
1.5514
1.52321
1.51314
1.51115
1.52234
1.57627
1.6463
1.68226
1.69381
1.69204
1.68585
1.68185
1.66236
1.62799
4.04436
23.2327
1.19446
1.17998
1.17302
1.17247
1.18202
1.21928
1.24963
1.25932
1.25674
1.23304
1.18351
1.1574
1.15521
1.16517
1.20062
1.25939
1.31166
1.33742
1.34507
1.34475
1.33574
1.29743
1.24525
1.2289
1.22978
1.23484
1.24407
1.25775
1.27661
1.31888
1.35651
1.37198
1.37901
1.38092
1.3817
1.38281
1.37302
1.35169
1.32671
1.30845
1.30302
1.30551
1.31125
1.32538
1.36292
1.42692
1.46968
1.48363
1.48558
1.47358
1.46912
1.47151
1.45906
1.43191
1.41672
1.41314
1.41242
1.40838
1.40323
1.40458
1.4186
1.4718
1.52542
1.54911
1.56061
1.57404
1.58549
1.58768
1.56534
1.52087
1.48531
1.47251
1.47393
1.48042
1.4935
1.53681
1.58919
1.62105
1.63668
1.64227
1.64449
1.64078
1.63009
1.60249
1.55404
1.52042
1.50711
1.50608
1.51859
1.57364
1.64565
1.67803
1.68392
1.67699
1.67597
1.66657
1.67236
4.05239
23.3512
1.14882
1.15879
1.17576
1.20353
1.249
1.27176
1.2765
1.27591
1.25606
1.19683
1.15643
1.14764
1.14997
1.15537
1.17752
1.26302
1.33316
1.35071
1.35543
1.34809
1.3222
1.29247
1.26232
1.24255
1.24249
1.25282
1.26859
1.27923
1.28002
1.28149
1.30169
1.33909
1.36433
1.37992
1.39242
1.40037
1.40446
1.39435
1.35604
1.3232
1.31682
1.32197
1.33334
1.35393
1.36769
1.37923
1.40682
1.44044
1.45878
1.46686
1.47599
1.48697
1.49591
1.49332
1.46691
1.43738
1.41831
1.40718
1.39926
1.39335
1.39444
1.40648
1.46119
1.52688
1.56123
1.57663
1.58672
1.59309
1.59065
1.56221
1.5141
1.48585
1.47868
1.48085
1.48596
1.49619
1.5377
1.59243
1.6252
1.63843
1.64287
1.64469
1.64198
1.63554
1.61129
1.5589
1.52129
1.50639
1.50633
1.51655
1.57115
1.64059
1.66865
1.66856
1.66466
1.65554
1.6936
4.11834
23.4611
1.11975
1.13599
1.19123
1.26544
1.29719
1.30255
1.29559
1.26747
1.21444
1.1649
1.14742
1.1471
1.15054
1.16592
1.21565
1.28118
1.3276
1.34631
1.34564
1.31845
1.29671
1.29216
1.29019
1.2846
1.27999
1.28255
1.28753
1.28314
1.26796
1.25603
1.25694
1.27816
1.3318
1.37892
1.40436
1.41688
1.42293
1.42328
1.39898
1.3592
1.34182
1.34198
1.34885
1.3596
1.36388
1.35734
1.3573
1.37611
1.42515
1.46871
1.48934
1.50398
1.51612
1.52431
1.52042
1.486
1.44333
1.41475
1.39919
1.39187
1.39201
1.39646
1.40926
1.46756
1.53743
1.56829
1.57838
1.58087
1.57774
1.57416
1.5585
1.52587
1.50214
1.49175
1.49212
1.49779
1.5056
1.53694
1.58854
1.62271
1.63755
1.64388
1.64785
1.6475
1.64399
1.61927
1.56596
1.52656
1.51046
1.50855
1.51349
1.5656
1.62843
1.65117
1.64882
1.63757
1.68971
4.22593
23.5503
1.10815
1.12801
1.22471
1.29012
1.30795
1.31357
1.30785
1.2549
1.18877
1.15972
1.15046
1.15176
1.17425
1.21949
1.2508
1.27003
1.29059
1.29917
1.29498
1.29074
1.29189
1.29893
1.32031
1.33648
1.3348
1.31796
1.29575
1.26621
1.242
1.23562
1.23874
1.24545
1.28006
1.3665
1.41318
1.42453
1.42886
1.42791
1.41967
1.40081
1.37776
1.36447
1.35903
1.35628
1.35077
1.34092
1.33831
1.34188
1.36477
1.43197
1.48709
1.51037
1.52214
1.52854
1.53145
1.52544
1.48681
1.43783
1.40974
1.39979
1.40039
1.40793
1.41733
1.42722
1.472
1.53116
1.55662
1.56594
1.57524
1.5833
1.58843
1.57962
1.55071
1.52042
1.50257
1.49634
1.49618
1.50045
1.52942
1.58547
1.62481
1.64271
1.65199
1.65572
1.65136
1.64852
1.62379
1.5717
1.53093
1.5121
1.50676
1.50655
1.54961
1.6068
1.62619
1.61729
1.67268
4.3523
23.6195
1.11843
1.17493
1.23858
1.28454
1.30277
1.29927
1.26362
1.22066
1.18946
1.17131
1.17129
1.19651
1.2323
1.24822
1.25207
1.24697
1.23011
1.22878
1.24463
1.26935
1.29735
1.33386
1.36109
1.36986
1.3691
1.34863
1.29586
1.24495
1.22755
1.2285
1.23456
1.2453
1.27634
1.33456
1.3959
1.41913
1.42518
1.4211
1.4121
1.41366
1.4158
1.40568
1.38557
1.36541
1.35172
1.3441
1.34048
1.34213
1.34847
1.37543
1.44607
1.49887
1.51875
1.52461
1.51961
1.51486
1.50827
1.48275
1.45055
1.43109
1.42347
1.42228
1.418
1.41359
1.41895
1.45824
1.51719
1.55304
1.57684
1.59596
1.60716
1.6103
1.59819
1.56101
1.51738
1.49301
1.48824
1.49026
1.4959
1.53046
1.59059
1.6317
1.64744
1.65223
1.64968
1.64872
1.64674
1.62394
1.58074
1.538
1.50789
1.49402
1.49067
1.52479
1.58335
1.5959
1.65224
4.48035
23.6775
1.15831
1.19826
1.22245
1.24385
1.24777
1.23449
1.22015
1.2142
1.21092
1.21486
1.23503
1.25427
1.26146
1.25934
1.23415
1.19697
1.18371
1.18804
1.2037
1.24094
1.31084
1.36928
1.3875
1.39134
1.38783
1.36365
1.29979
1.24565
1.22978
1.23162
1.24281
1.2782
1.3151
1.33116
1.34374
1.36649
1.3857
1.39673
1.40777
1.42379
1.4344
1.44082
1.43303
1.40235
1.37129
1.3555
1.34951
1.34956
1.35632
1.3652
1.38414
1.4409
1.48659
1.50134
1.50273
1.5048
1.50811
1.51002
1.50668
1.48632
1.45963
1.43753
1.41714
1.40235
1.39866
1.40651
1.44521
1.51586
1.57247
1.60197
1.61177
1.61564
1.61603
1.59756
1.55834
1.51634
1.49258
1.48649
1.48908
1.50265
1.53126
1.58277
1.62457
1.64163
1.64493
1.64138
1.643
1.64302
1.62631
1.58805
1.53796
1.49546
1.47321
1.47018
1.509
1.55931
1.62408
4.59549
23.7227
1.18124
1.19193
1.18872
1.17449
1.17632
1.19166
1.2064
1.22549
1.25881
1.28509
1.28907
1.28346
1.27336
1.23903
1.19506
1.17308
1.17075
1.17496
1.18337
1.21793
1.31408
1.37496
1.38993
1.39085
1.36777
1.32904
1.29947
1.27317
1.26118
1.26902
1.29319
1.31938
1.32951
1.32444
1.30447
1.29888
1.31559
1.36194
1.40747
1.43357
1.45084
1.46201
1.46965
1.45756
1.41263
1.37577
1.36029
1.3559
1.35902
1.36589
1.37112
1.38137
1.41793
1.46279
1.48562
1.49615
1.50745
1.52906
1.53887
1.53224
1.50572
1.46179
1.41732
1.39488
1.39284
1.39835
1.40741
1.45066
1.54045
1.59246
1.60834
1.61233
1.60922
1.6018
1.59377
1.56849
1.52705
1.49979
1.49184
1.49459
1.5002
1.51873
1.57201
1.6165
1.63274
1.63221
1.63293
1.63488
1.63806
1.62448
1.5899
1.53174
1.48193
1.45856
1.45574
1.49692
1.58083
4.6758
23.7504
1.19263
1.16695
1.12892
1.1193
1.12566
1.14928
1.19424
1.26066
1.31853
1.33655
1.33591
1.30971
1.25949
1.20806
1.17644
1.16934
1.17198
1.17848
1.2049
1.25432
1.30146
1.34479
1.36016
1.35113
1.33094
1.31838
1.31587
1.3204
1.33241
1.34043
1.34348
1.34312
1.33019
1.29721
1.27204
1.26616
1.2698
1.29787
1.37565
1.43771
1.46359
1.47634
1.48449
1.48136
1.45947
1.41041
1.37588
1.36431
1.36601
1.37225
1.37386
1.36579
1.36496
1.39308
1.44465
1.48424
1.51743
1.54162
1.55179
1.55313
1.54339
1.49944
1.43535
1.40208
1.39664
1.40293
1.41364
1.4372
1.4812
1.53673
1.57401
1.59162
1.59872
1.60326
1.60643
1.60863
1.58714
1.53779
1.50291
1.48873
1.49053
1.49867
1.51299
1.56238
1.60675
1.62085
1.62121
1.62412
1.63017
1.62865
1.61583
1.58712
1.52331
1.4762
1.45222
1.43301
1.52277
4.70419
23.7854
1.1826
1.1264
1.10736
1.10649
1.11111
1.12148
1.1712
1.28492
1.33701
1.34762
1.34953
1.3293
1.26482
1.20454
1.18027
1.17588
1.18347
1.21693
1.25901
1.27797
1.28405
1.28523
1.28604
1.2956
1.30764
1.32108
1.35273
1.38567
1.39889
1.39839
1.38376
1.35127
1.30264
1.26527
1.25252
1.25269
1.25769
1.2736
1.32103
1.40908
1.46035
1.47658
1.478
1.4657
1.45516
1.44643
1.42065
1.39989
1.3923
1.38853
1.37684
1.35426
1.34597
1.3507
1.38091
1.44987
1.51224
1.53931
1.54818
1.54739
1.53105