/*--------------------------------*- C++ -*----------------------------------*\
  =========                 |
  \\      /  F ield         | OpenFOAM: The Open Source CFD Toolbox
   \\    /   O peration     | Website:  https://openfoam.org
    \\  /    A nd           | Version:  12
     \\/     M anipulation  |
\*---------------------------------------------------------------------------*/
FoamFile
{
    format      ascii;
    class       volScalarField;
    location    "25";
    object      rho;
}
// * * * * * * * * * * * * * * * * * * * * * * * * * * * * * * * * * * * * * //

dimensions      [1 -3 0 0 0 0 0];

internalField   nonuniform List<scalar> 
9801
(
1.07311
1.10813
1.17834
1.20304
1.20432
1.19981
1.18696
1.15606
1.12818
1.12556
1.13273
1.14847
1.17203
1.20458
1.23612
1.24928
1.25011
1.24886
1.24008
1.2192
1.21272
1.21745
1.22776
1.24076
1.25203
1.26185
1.27288
1.2867
1.30004
1.30909
1.31454
1.31826
1.32
1.31507
1.31271
1.31562
1.3198
1.32444
1.32972
1.33951
1.36277
1.38727
1.39935
1.4057
1.40951
1.40515
1.39624
1.39585
1.3998
1.40489
1.41106
1.42076
1.44436
1.47476
1.49147
1.49973
1.50598
1.50495
1.49184
1.48566
1.48859
1.49471
1.50266
1.51395
1.54533
1.58366
1.60536
1.61715
1.62589
1.62572
1.6109
1.59836
1.5974
1.60438
1.61665
1.63978
1.69623
1.74056
1.7627
1.77739
1.79007
1.79353
1.76645
1.74122
1.74384
1.76216
1.79662
1.88219
1.96516
2.0133
2.04681
2.07974
2.09366
2.07586
2.06499
2.08199
2.13431
4.4158
18.007
1.08902
1.09926
1.13748
1.17822
1.19486
1.20106
1.19959
1.18565
1.16569
1.14983
1.14619
1.15079
1.16112
1.18187
1.21363
1.2386
1.25062
1.25468
1.25325
1.24884
1.23805
1.23098
1.233
1.23843
1.24576
1.25376
1.26269
1.27826
1.30112
1.31465
1.32082
1.3255
1.3296
1.32718
1.31988
1.31921
1.32224
1.32664
1.33186
1.33944
1.36125
1.3879
1.40192
1.40943
1.4149
1.41502
1.4029
1.39719
1.39955
1.4044
1.41072
1.41932
1.44376
1.4751
1.49229
1.50125
1.50841
1.51118
1.49791
1.48637
1.4876
1.49405
1.50294
1.51474
1.54519
1.58349
1.60485
1.61666
1.62592
1.6321
1.61644
1.59535
1.59415
1.60416
1.61572
1.63788
1.68651
1.72964
1.75363
1.77082
1.78735
1.79435
1.76568
1.73908
1.74219
1.76125
1.78759
1.84736
1.92356
1.97749
2.01777
2.05551
2.07277
2.05446
2.0363
2.03811
2.01797
4.10102
17.9887
1.11719
1.12309
1.12763
1.14152
1.16252
1.17312
1.17574
1.17621
1.17509
1.17505
1.17318
1.17193
1.17242
1.1767
1.18563
1.20788
1.22574
1.23451
1.24107
1.24853
1.25412
1.25179
1.24689
1.24665
1.24765
1.24926
1.25254
1.26241
1.28534
1.30483
1.31519
1.32195
1.32778
1.32982
1.32277
1.31929
1.32069
1.32356
1.32725
1.33278
1.35184
1.37992
1.3958
1.40438
1.41076
1.41414
1.405
1.39638
1.39605
1.39949
1.40472
1.41127
1.4303
1.46238
1.48217
1.49275
1.5008
1.50653
1.4984
1.484
1.48128
1.48532
1.49279
1.50244
1.52782
1.56558
1.58953
1.60335
1.6144
1.6234
1.61281
1.58715
1.5802
1.5876
1.59935
1.61562
1.65674
1.70793
1.73788
1.75532
1.77006
1.77734
1.75196
1.72236
1.71888
1.7351
1.75744
1.79611
1.8741
1.94199
1.98489
2.02094
2.04076
2.02564
2.0088
2.00956
1.9702
3.83741
17.6732
1.14017
1.14284
1.12467
1.11103
1.11351
1.13222
1.15807
1.17732
1.18892
1.19648
1.20005
1.19658
1.1849
1.16744
1.16154
1.1661
1.18854
1.2216
1.24334
1.25386
1.26063
1.26188
1.25668
1.24718
1.23649
1.23319
1.23486
1.2411
1.26628
1.29624
1.31196
1.32021
1.32665
1.33028
1.31987
1.30787
1.30577
1.30887
1.31416
1.32093
1.3404
1.36979
1.38734
1.39659
1.40329
1.40864
1.40182
1.38492
1.37937
1.38182
1.38743
1.3945
1.41081
1.4448
1.46966
1.4821
1.49031
1.49688
1.49288
1.47217
1.46258
1.4651
1.4723
1.48119
1.50128
1.54124
1.5701
1.5847
1.59514
1.60371
1.59937
1.57213
1.55725
1.56168
1.57289
1.58646
1.61775
1.67103
1.70552
1.72303
1.73677
1.74844
1.73803
1.70439
1.68647
1.69516
1.71666
1.74372
1.79821
1.86626
1.91436
1.95207
1.98237
1.98055
1.96152
1.94904
1.89218
3.65249
17.3843
1.14385
1.14463
1.11433
1.10214
1.10251
1.11199
1.1431
1.17758
1.19185
1.19853
1.20157
1.19282
1.16911
1.15455
1.15212
1.15452
1.17357
1.21222
1.24024
1.25142
1.25847
1.26203
1.24873
1.22675
1.21863
1.21947
1.2231
1.23285
1.2616
1.28997
1.30349
1.31075
1.31613
1.31534
1.29948
1.28761
1.28827
1.29309
1.29951
1.30874
1.32988
1.35688
1.37235
1.38045
1.38614
1.39004
1.38363
1.36679
1.36168
1.36532
1.37155
1.37874
1.39297
1.42482
1.45036
1.46262
1.47011
1.47568
1.47451
1.45504
1.4419
1.44373
1.45099
1.45961
1.4747
1.5114
1.54342
1.55903
1.56935
1.57837
1.58168
1.56043
1.53693
1.53525
1.54534
1.55786
1.57888
1.62691
1.67113
1.69379
1.70866
1.72222
1.72428
1.69808
1.6703
1.662
1.67547
1.69933
1.73723
1.79949
1.85774
1.90107
1.93809
1.95836
1.94813
1.92907
1.84659
3.54378
17.2128
1.13634
1.11916
1.10351
1.10276
1.10597
1.11578
1.13994
1.16901
1.18583
1.19273
1.18811
1.16472
1.14828
1.14517
1.14743
1.15754
1.18251
1.21035
1.22838
1.23943
1.24574
1.24118
1.21895
1.20568
1.20552
1.20916
1.21442
1.23086
1.26179
1.28209
1.29098
1.29615
1.29715
1.2895
1.2769
1.27275
1.27608
1.28147
1.2875
1.29706
1.3184
1.34216
1.35498
1.36186
1.36658
1.36991
1.36628
1.35347
1.34887
1.35253
1.3585
1.36517
1.37681
1.40458
1.42944
1.44207
1.4499
1.45598
1.45897
1.44555
1.42799
1.4254
1.43212
1.44073
1.45286
1.4838
1.51941
1.53798
1.54883
1.55809
1.56577
1.55641
1.52961
1.51767
1.52305
1.53519
1.55062
1.58497
1.63613
1.67016
1.68912
1.70399
1.71418
1.70044
1.67065
1.65432
1.6552
1.67157
1.69639
1.7403
1.79838
1.84663
1.88465
1.9174
1.92816
1.9214
1.8538
3.46307
17.1637
1.10435
1.10155
1.10089
1.10491
1.11742
1.13588
1.14981
1.15865
1.16533
1.16401
1.1476
1.13821
1.13843
1.14177
1.14903
1.17115
1.19623
1.20972
1.21747
1.2226
1.21946
1.20285
1.19487
1.19599
1.2
1.20515
1.21333
1.23421
1.2587
1.27165
1.27701
1.278
1.2755
1.27228
1.26643
1.26329
1.26671
1.27281
1.27903
1.28736
1.30535
1.32691
1.33906
1.34557
1.35045
1.35562
1.35752
1.3476
1.33939
1.34141
1.34696
1.35332
1.36229
1.38579
1.41157
1.42563
1.43421
1.44126
1.44788
1.44462
1.42522
1.41556
1.41924
1.42692
1.43611
1.45826
1.49699
1.52294
1.53591
1.54545
1.5544
1.55623
1.53372
1.51327
1.51051
1.51951
1.53189
1.55151
1.59652
1.64529
1.67407
1.69177
1.70686
1.71182
1.69029
1.66539
1.65505
1.65765
1.67319
1.69958
1.74626
1.79712
1.83663
1.86788
1.89152
1.89896
1.8661
3.43529
17.1839
1.06871
1.08484
1.10521
1.12754
1.14438
1.15284
1.15667
1.15678
1.14086
1.11867
1.11417
1.11863
1.12664
1.1388
1.1623
1.19173
1.20504
1.20958
1.21172
1.204
1.18655
1.17939
1.18163
1.18722
1.19422
1.20439
1.22017
1.23633
1.25109
1.2586
1.26127
1.26144
1.26461
1.26908
1.26831
1.26297
1.26375
1.26907
1.2741
1.27872
1.2884
1.30979
1.32597
1.3352
1.34295
1.35007
1.35616
1.3523
1.33949
1.33571
1.3384
1.34286
1.34901
1.36631
1.39647
1.41594
1.42649
1.43463
1.44232
1.44717
1.43276
1.41599
1.41289
1.41779
1.42521
1.43729
1.47116
1.50945
1.52964
1.54075
1.55006
1.55754
1.54751
1.52121
1.50829
1.50839
1.51754
1.53046
1.5562
1.60763
1.65292
1.67962
1.69806
1.71361
1.71483
1.69015
1.66506
1.65567
1.66067
1.67696
1.70519
1.75189
1.79619
1.82764
1.84862
1.86418
1.86396
3.45168
17.221
1.03588
1.0552
1.10973
1.14994
1.16635
1.17129
1.16972
1.1536
1.11512
1.09759
1.09858
1.10367
1.11252
1.13478
1.17528
1.19756
1.20649
1.20932
1.20102
1.1854
1.17911
1.17949
1.18222
1.18801
1.20038
1.21216
1.21801
1.2271
1.23638
1.24296
1.24784
1.2556
1.26602
1.2728
1.27716
1.27424
1.2705
1.26885
1.2678
1.26828
1.27241
1.28963
1.31616
1.33336
1.34405
1.35175
1.35813
1.36109
1.34786
1.33469
1.33023
1.33238
1.33796
1.34953
1.38072
1.41007
1.4252
1.43459
1.44238
1.4495
1.44476
1.42205
1.41051
1.41025
1.41643
1.42498
1.44517
1.48884
1.52312
1.53983
1.55041
1.55954
1.56215
1.53923
1.51296
1.50416
1.50682
1.51709
1.53176
1.5657
1.62023
1.66292
1.6885
1.7064
1.71893
1.71424
1.69219
1.66968
1.6605
1.66497
1.68084
1.71087
1.75653
1.79407
1.81613
1.83004
1.84561
3.48805
17.2434
1.03274
1.04343
1.10339
1.15574
1.17014
1.17543
1.17354
1.14089
1.1085
1.09954
1.10061
1.10598
1.12293
1.1499
1.17503
1.19358
1.19927
1.19364
1.18175
1.17995
1.18408
1.18764
1.19394
1.20355
1.21138
1.21333
1.20906
1.2067
1.21156
1.22615
1.244
1.26029
1.27293
1.2823
1.28889
1.2898
1.27679
1.26313
1.25593
1.25694
1.26186
1.27488
1.30717
1.33418
1.34818
1.35598
1.36201
1.36654
1.35664
1.33224
1.3227
1.32451
1.33065
1.34021
1.36568
1.40375
1.42589
1.43614
1.44362
1.45065
1.45217
1.43125
1.40997
1.40596
1.41013
1.41842
1.43004
1.46181
1.50886
1.53688
1.55038
1.56005
1.56786
1.56256
1.53189
1.5095
1.5055
1.51079
1.52186
1.5366
1.57252
1.62628
1.6658
1.68998
1.70839
1.72037
1.71779
1.69838
1.67546
1.66425
1.66739
1.68167
1.71191
1.75558
1.78648
1.80282
1.82196
3.52957
17.2519
1.04117
1.0638
1.11042
1.14753
1.16306
1.1643
1.14799
1.12672
1.11494
1.11031
1.11453
1.12885
1.14594
1.15434
1.16109
1.16776
1.17213
1.17438
1.17727
1.18428
1.19579
1.20805
1.21514
1.21849
1.21608
1.20348
1.19128
1.18942
1.19352
1.20943
1.24271
1.26971
1.28365
1.29071
1.29577
1.29691
1.27898
1.25254
1.24668
1.25012
1.2563
1.26909
1.30235
1.337
1.352
1.35887
1.36429
1.36666
1.35662
1.33388
1.32245
1.32394
1.32955
1.33677
1.3543
1.3919
1.42302
1.436
1.44295
1.44753
1.45046
1.44314
1.41945
1.40702
1.40819
1.41538
1.42387
1.43791
1.47879
1.52298
1.54553
1.55736
1.56701
1.57518
1.56545
1.53412
1.51476
1.51085
1.51379
1.52322
1.53929
1.5786
1.63176
1.67008
1.69428
1.71301
1.72302
1.72075
1.70347
1.67845
1.66351
1.66444
1.67628
1.70739
1.74967
1.77498
1.79683
3.57818
17.2658
1.07234
1.08945
1.10277
1.11806
1.12763
1.12917
1.12725
1.12947
1.13061
1.13612
1.14477
1.15189
1.15618
1.15496
1.14118
1.13564
1.14213
1.15889
1.18062
1.20244
1.21892
1.22675
1.23035
1.22762
1.20799
1.18495
1.17905
1.18191
1.18778
1.20436
1.24647
1.27886
1.28981
1.29558
1.29871
1.29288
1.26899
1.24991
1.24707
1.25111
1.2567
1.26818
1.30187
1.33784
1.35358
1.36004
1.3612
1.35836
1.35461
1.34204
1.32816
1.32709
1.3328
1.34076
1.3481
1.3714
1.40879
1.42956
1.43817
1.44449
1.45193
1.45646
1.44256
1.42049
1.41246
1.4126
1.41767
1.42554
1.44401
1.4923
1.53482
1.5558
1.56839
1.5789
1.5857
1.56909
1.5342
1.51444
1.51142
1.51734
1.52884
1.54522
1.58483
1.63604
1.6724
1.69649
1.71522
1.72385
1.72128
1.7031
1.67505
1.65749
1.65664
1.66673
1.70039
1.73916
1.76725
3.6342
17.2931
1.103
1.1071
1.09856
1.08892
1.08678
1.0954
1.11199
1.13453
1.15636
1.16887
1.17315
1.17139
1.16005
1.13668
1.12182
1.12126
1.12628
1.14519
1.18775
1.22229
1.2343
1.23984
1.24186
1.2289
1.19343
1.17634
1.17672
1.18088
1.18788
1.21251
1.25861
1.28281
1.29214
1.29679
1.29271
1.27878
1.26458
1.25346
1.25088
1.25557
1.26551
1.27934
1.29815
1.32683
1.34379
1.34941
1.34997
1.35283
1.35889
1.35792
1.34605
1.3394
1.34013
1.34205
1.34561
1.35258
1.37953
1.41638
1.43639
1.44796
1.45671
1.46473
1.46639
1.44329
1.41897
1.41093
1.41189
1.41834
1.42784
1.45376
1.50807
1.54941
1.56846
1.57883
1.58603
1.58923
1.57152
1.54044
1.52306
1.51992
1.52378
1.53417
1.55135
1.59232
1.64124
1.6746
1.69654
1.71388
1.72046
1.71666
1.69795
1.66842
1.64956
1.64688
1.65611
1.69275
1.73109
3.68666
17.3336
1.12279
1.12266
1.09413
1.07481
1.07348
1.07876
1.10092
1.14441
1.17355
1.18252
1.18724
1.18343
1.15328
1.12261
1.11684
1.11962
1.12569
1.14879
1.20064
1.22955
1.23801
1.24293
1.24073
1.2145
1.1876
1.17932
1.18021
1.1847
1.1987
1.23034
1.26236
1.28168
1.28856
1.28516
1.27544
1.27261
1.27014
1.26555
1.26675
1.27307
1.28133
1.28536
1.2889
1.30022
1.32353
1.33832
1.34727
1.35678
1.36585
1.3734
1.3712
1.35469
1.34354
1.33888
1.33906
1.3435
1.35494
1.39328
1.43382
1.45336
1.46375
1.47193
1.4779
1.46848
1.4362
1.41558
1.41285
1.41759
1.42503
1.434
1.46074
1.51553
1.55396
1.5712
1.58221
1.5923
1.59796
1.58083
1.54942
1.52982
1.52481
1.52919
1.53933
1.55742
1.59942
1.64431
1.67368
1.6939
1.70971
1.71491
1.71067
1.69173
1.66087
1.63997
1.63502
1.64613
1.68877
3.72194
17.3893
1.1235
1.10609
1.08057
1.07396
1.07557
1.08366
1.11837
1.15985
1.17651
1.18377
1.18768
1.17128
1.13591
1.12056
1.11986
1.12253
1.13055
1.16628
1.21046
1.23018
1.23793
1.2386
1.22087
1.20017
1.19038
1.18733
1.19173
1.2053
1.22425
1.23847
1.25366
1.26412
1.26582
1.26286
1.26469
1.27326
1.28188
1.28911
1.28945
1.28768
1.28554
1.28016
1.27534
1.27763
1.29522
1.32725
1.35054
1.36709
1.37793
1.38485
1.38833
1.37361
1.34797
1.33513
1.33342
1.33793
1.34505
1.36679
1.41813
1.45426
1.46762
1.47485
1.47935
1.48036
1.4661
1.43744
1.42201
1.41945
1.42091
1.42672
1.43637
1.46549
1.52059
1.56068
1.58059
1.59201
1.60113
1.60406
1.58773
1.55808
1.53642
1.52963
1.53338
1.54279
1.56212
1.60572
1.64703
1.67348
1.69191
1.70608
1.7102
1.70527
1.68492
1.652
1.62718
1.61813
1.63949
3.72865
17.4498
1.10263
1.08007
1.07649
1.07922
1.08456
1.11054
1.14669
1.16504
1.17432
1.17946
1.17001
1.1404
1.12607
1.12409
1.12638
1.13293
1.15595
1.1896
1.21231
1.22335
1.2246
1.21214
1.20239
1.20019
1.20009
1.2061
1.21932
1.23294
1.23995
1.23875
1.23229
1.23305
1.24442
1.25777
1.27071
1.28488
1.30018
1.30948
1.31281
1.30195
1.28181
1.26553
1.26218
1.26648
1.27707
1.3123
1.35539
1.37771
1.38726
1.39302
1.39611
1.38722
1.35532
1.33483
1.33251
1.33665
1.34293
1.35396
1.38654
1.43569
1.462
1.47232
1.47798
1.48261
1.48604
1.47067
1.44034
1.42384
1.42156
1.42563
1.43189
1.44054
1.46591
1.52035
1.56253
1.58309
1.59507
1.60487
1.60921
1.59378
1.56445
1.54139
1.53344
1.53682
1.54645
1.56741
1.61048
1.64929
1.67422
1.69079
1.70236
1.70483
1.69828
1.6758
1.64088
1.60865
1.59242
3.70235
17.509
1.07337
1.06772
1.07212
1.08049
1.10737
1.14962
1.16745
1.17176
1.17351
1.16327
1.13534
1.12189
1.12232
1.12692
1.13854
1.16268
1.18257
1.19532
1.20461
1.20617
1.19766
1.19221
1.19606
1.20647
1.22229
1.23587
1.24264
1.24543
1.23842
1.21935
1.20843
1.20992
1.22326
1.25397
1.28396
1.30479
1.3149
1.32015
1.32345
1.3109
1.27376
1.25565
1.25574
1.26085
1.26932
1.2996
1.35459
1.38131
1.39045
1.39582
1.39522
1.38692
1.37005
1.34612
1.33754
1.34065
1.34891
1.35756
1.36504
1.39156
1.43511
1.46054
1.47231
1.47991
1.4874
1.49402
1.48095
1.45
1.43293
1.42858
1.42833
1.43283
1.44184
1.46767
1.52254
1.5649
1.58542
1.59748
1.60682
1.61031
1.59908
1.57234
1.54824
1.53863
1.54
1.54739
1.56862
1.61224
1.65101
1.67451
1.68865
1.69691
1.69723
1.68879
1.66406
1.62053
1.5709
3.63803
17.5675
1.05563
1.05509
1.06218
1.08297
1.13232
1.16509
1.17782
1.18184
1.17026
1.14111
1.1272
1.12524
1.12764
1.14256
1.16859
1.18384
1.18914
1.18786
1.18175
1.18019
1.1848
1.19146
1.20405
1.22774
1.24834
1.25781
1.26133
1.25011
1.21791
1.19591
1.19364
1.19855
1.21031
1.24893
1.29779
1.31915
1.3264
1.32958
1.32533
1.30093
1.271
1.2575
1.25782
1.2629
1.27562
1.30022
1.33833
1.3717
1.3837
1.3861
1.38252
1.3846
1.38764
1.37679
1.35881
1.35261
1.35331
1.35389
1.3543
1.36004
1.38624
1.43417
1.46453
1.48037
1.49246
1.50137
1.50638
1.48941
1.45435
1.43373
1.42936
1.43314
1.44027
1.44872
1.4697
1.52119
1.56355
1.58504
1.59985
1.61119
1.61458
1.60457
1.577
1.55015
1.53809
1.53817
1.54457
1.56708
1.61327
1.6516
1.67297
1.68467
1.68986
1.68855
1.67885
1.64478
1.58322
3.55445
17.6257
1.05688
1.05553
1.07322
1.10816
1.13965
1.16287
1.17065
1.1637
1.14333
1.13451
1.13539
1.13834
1.1536
1.17259
1.18328
1.18775
1.18086
1.16144
1.15379
1.15805
1.17364
1.20025
1.23216
1.2534
1.26179
1.26633
1.26687
1.23881
1.19829
1.18593
1.18787
1.19297
1.20514
1.25173
1.30397
1.32271
1.32946
1.33106
1.31728
1.29745
1.27826
1.26735
1.26913
1.27892
1.29392
1.30256
1.31206
1.3363
1.36125
1.37315
1.38028
1.38871
1.39797
1.40469
1.39523
1.37257
1.35777
1.34873
1.34374
1.34621
1.35384
1.38676
1.44484
1.48101
1.4951
1.50259
1.50821
1.51244
1.49701
1.46312
1.4432
1.43859
1.43925
1.44324
1.45176
1.4756
1.52744
1.56865
1.59079
1.60409
1.61337
1.61501
1.60551
1.57849
1.55022
1.53674
1.5352
1.54119
1.56479
1.61182
1.65064
1.67078
1.67982
1.68206
1.68068
1.66439
1.61852
3.49202
17.6854
1.06964
1.07784
1.10333
1.11935
1.12809
1.13552
1.13561
1.13522
1.13793
1.14205
1.15175
1.17222
1.18641
1.19246
1.19384
1.18033
1.15058
1.13674
1.13805
1.14449
1.16494
1.21585
1.25839
1.2716
1.27555
1.27254
1.25402
1.21659
1.19261
1.18765
1.19014
1.19658
1.21916
1.26031
1.2983
1.31674
1.32099
1.31237
1.30417
1.30268
1.29775
1.29246
1.29179
1.29589
1.30035
1.29926
1.29448
1.29786
1.3225
1.35927
1.38348
1.39959
1.41188
1.42007
1.42355
1.40366
1.36879
1.34769
1.34231
1.34457
1.34998
1.35971
1.39806
1.45759
1.48866
1.50036
1.50775
1.51519
1.51991
1.50433
1.47042
1.44938
1.44391
1.44794
1.45627
1.46402
1.48207
1.52896
1.56783
1.58905
1.60328
1.61357
1.61674
1.60872
1.5807
1.5492
1.53389
1.53088
1.53483
1.56075
1.61153
1.65053
1.66784
1.67274
1.67388
1.66801
1.65395
3.47478
17.7444
1.10112
1.11034
1.11822
1.1218
1.11175
1.09751
1.09835
1.11122
1.13433
1.16127
1.18836
1.20308
1.20734
1.20698
1.19502
1.15631
1.12898
1.12554
1.12926
1.13612
1.16099
1.22793
1.26595
1.2764
1.28112
1.2722
1.23703
1.21029
1.19752
1.19588
1.2029
1.2221
1.24315
1.25664
1.27309
1.28882
1.29715
1.30095
1.30561
1.31112
1.32045
1.32697
1.32292
1.31139
1.29922
1.28483
1.27856
1.28149
1.29159
1.32982
1.38062
1.40899
1.42175
1.42945
1.43339
1.42952
1.39709
1.3599
1.34715
1.34799
1.35551
1.36751
1.37873
1.40675
1.45863
1.49054
1.50385
1.50909
1.51475
1.52264
1.51694
1.49018
1.46952
1.46074
1.45673
1.45611
1.46191
1.48214
1.52955
1.57004
1.59374
1.60899
1.6185
1.62003
1.60872
1.5776
1.54334
1.52615
1.52375
1.53026
1.55844
1.61048
1.64729
1.6602
1.66321
1.65983
1.67332
3.51015
17.8046
1.13332
1.1372
1.12838
1.10999
1.08596
1.07826
1.08101
1.08903
1.11978
1.17792
1.21254
1.22197
1.22536
1.22057
1.18635
1.14316
1.12829
1.12796
1.13129
1.14305
1.18196
1.23208
1.26276
1.27185
1.26583
1.24307
1.22658
1.21854
1.21575
1.22165
1.23468
1.2468
1.25217
1.2491
1.24366
1.24859
1.27053
1.29558
1.31509
1.33255
1.34365
1.34946
1.34846
1.32775
1.29384
1.27375
1.27092
1.27479
1.28106
1.30104
1.36127
1.40914
1.42512
1.43129
1.43052
1.42609
1.41992
1.39581
1.37136
1.3645
1.3679
1.37388
1.37611
1.37831
1.39733
1.4463
1.48116
1.4978
1.51441
1.52904
1.53737
1.53315
1.50492
1.47241
1.45402
1.4511
1.45522
1.46217
1.48725
1.54097
1.58046
1.59906
1.60951
1.61537
1.6143
1.60476
1.57492
1.54064
1.52338
1.52077
1.52495
1.55241
1.60444
1.63777
1.64929
1.64713
1.67593
3.5859
17.8707
1.15363
1.16084
1.14251
1.09959
1.07643
1.07536
1.07939
1.08634
1.11811
1.18565
1.21587
1.22404
1.22721
1.21008
1.17095
1.14612
1.13621
1.13787
1.14909
1.17475
1.1986
1.21811
1.23387
1.23703
1.23169
1.22857
1.23156
1.2371
1.2494
1.25989
1.26453
1.26288
1.24867
1.2287
1.22177
1.22549
1.24141
1.28286
1.32716
1.35135
1.36089
1.3659
1.36466
1.34212
1.29698
1.27483
1.27248
1.2764
1.28769
1.30833
1.33524
1.3792
1.40981
1.42039
1.42235
1.42407
1.43003
1.43312
1.41546
1.39078
1.37928
1.37497
1.36851
1.36575
1.371
1.39051
1.44407
1.49359
1.5177
1.52933
1.53791
1.54287
1.53639
1.50391
1.47053
1.45571
1.45483
1.46073
1.47065
1.49797
1.545
1.57848
1.59493
1.6041
1.60965
1.61266
1.60829
1.57923
1.54109
1.51819
1.51235
1.515
1.54222
1.59451
1.6267
1.63285
1.66524
3.67661
17.9406
1.15729
1.16431
1.13549
1.09496
1.08033
1.07966
1.08301
1.09673
1.14018
1.18645
1.21054
1.21683
1.20777
1.18425
1.16885
1.1586
1.15807
1.16716
1.18697
1.2018
1.20674
1.20051
1.19083
1.1947
1.21008
1.22745
1.24799
1.27028
1.28375
1.28909
1.28794
1.2699
1.23206
1.21108
1.20928
1.21334
1.22245
1.26427
1.32841
1.35646
1.36528
1.37028
1.36552
1.3437
1.31497
1.29044
1.28458
1.29014
1.30491
1.31663
1.32216
1.33326
1.36557
1.39721
1.4145
1.42586
1.43761
1.44707
1.45021
1.43053
1.39849
1.37788
1.36907
1.36645
1.36919
1.37596
1.39459
1.44989
1.49962
1.5197
1.52853
1.53352
1.5342
1.53059
1.50985
1.48316
1.46827
1.46512
1.46653
1.47181
1.49553
1.54213
1.57749
1.59528
1.60678
1.61492
1.61866
1.61314
1.57935
1.53406
1.50758
1.50132
1.504
1.53273
1.58558
1.61007
1.64697
3.77076
18.0111
1.15507
1.15218
1.11915
1.09949
1.09181
1.09314
1.10256
1.12614
1.15227
1.17609
1.18821
1.18699
1.17488
1.16913
1.17245
1.17941
1.1916
1.20316
1.2097
1.21222
1.19925
1.17204
1.16232
1.16577
1.18348
1.2273
1.27342
1.29872
1.30678
1.30823
1.29932
1.2629
1.22167
1.20769
1.20853
1.21281
1.22366
1.25414
1.30899
1.34819
1.36042
1.35984
1.34627
1.34025
1.33751
1.32582
1.31457
1.31308
1.3169
1.32009
1.31659
1.31223
1.31781
1.34917
1.39436
1.42354
1.43932
1.4496
1.45782
1.4624
1.44346
1.40465
1.37973
1.37236
1.37399
1.37947
1.38599
1.402
1.45017
1.49388
1.51332
1.52386
1.5329
1.54005
1.54178
1.525
1.4937
1.47014
1.46176
1.46286
1.46808
1.49346
1.5457
1.58417
1.60096
1.60906
1.61426
1.61711
1.60906
1.57285
1.5295
1.50188
1.49219
1.49321
1.52564
1.56934
1.61653
3.85659
18.0676
1.14987
1.12802
1.10901
1.1052
1.10751
1.11582
1.13467
1.14674
1.15198
1.15615
1.15646
1.1594
1.16531
1.17182
1.18478
1.2082
1.22424
1.23087
1.23051
1.21043
1.17115
1.15196
1.15159
1.15647
1.16853
1.21934
1.28838
1.31052
1.3177
1.3195
1.3006
1.25646
1.22485
1.2127
1.21376
1.22393
1.24801
1.26694
1.28166
1.30729
1.32893
1.33687
1.34005
1.34501
1.35177
1.3609
1.3597
1.34412
1.32987
1.31908
1.30668
1.29798
1.29902
1.30715
1.34416
1.39997
1.43397
1.45065
1.46174
1.46803
1.47016
1.44844
1.40773
1.38529
1.37975
1.38054
1.38279
1.38791
1.40153
1.44462
1.49137
1.51945
1.53414
1.54257
1.54943
1.5515
1.53423
1.4981
1.47053
1.46113
1.4614
1.46865
1.49601
1.54812
1.5847
1.5999
1.60671
1.61112
1.6135
1.60358
1.57329
1.52834
1.49479
1.48204
1.48277
1.51107
1.57191
3.91831
18.1125
1.13905
1.12139
1.11427
1.11607
1.12519
1.14159
1.15261
1.15701
1.15006
1.13163
1.127
1.13464
1.15586
1.18466
1.21503
1.2338
1.24058
1.24354
1.23766
1.19341
1.15429
1.14618
1.14905
1.15402
1.17312
1.23495
1.28851
1.31021
1.31617
1.30523
1.27842
1.25955
1.24341
1.236
1.23945
1.25185
1.26328
1.26743
1.26393
1.26026
1.27467
1.3094
1.33764
1.35564
1.37356
1.38653
1.39262
1.38247
1.35077
1.31979
1.29974
1.29339
1.29587
1.30189
1.31345
1.35658
1.42116
1.45234
1.46228
1.46716
1.46986
1.46801
1.45149
1.421
1.39966
1.38911
1.3852
1.38623
1.39118
1.40206
1.44213
1.49472
1.52544
1.53958
1.54753
1.55402
1.55696
1.54105
1.50144
1.47134
1.46193
1.46238
1.46722
1.4941
1.54737
1.58298
1.59645
1.60275
1.60856
1.61214
1.60049
1.57052
1.52602
1.4894
1.47146
1.46189
1.51421
3.94416
18.1564
1.13385
1.12812
1.12784
1.13452
1.14445
1.15273
1.15738
1.15419
1.12996
1.11357
1.11308
1.11874
1.14355
1.20017
1.24174
1.25453
1.25763
1.25138
1.22039
1.17558
1.15362
1.14946
1.1522
1.16618
1.20087
1.2347
1.26733
1.2858
1.28733
1.27791
1.27101
1.27163
1.27424
1.27695
1.27697
1.27571
1.272
1.25893
1.24062
1.23552
1.24056
1.26444
1.31768
1.3639
1.38934
1.40174
1.40835
1.40823
1.38562
1.33541
1.30487
1.29767
1.3008
1.31209
1.32645
1.34105
1.37264
1.41992
1.44381
1.45228
1.45736
1.46239
1.46957
1.46757
1.44521
1.4185
1.39988
1.39072
1.38852
1.39142
1.40088
1.44209
1.49836
1.52939
1.54385
1.55343
1.56035
1.5591
1.54134
1.50125
1.46903
1.45788
1.4601
1.46592
1.492
1.54425
1.5792
1.59379
1.6004
1.6049
1.60517
1.59415
1.56989
1.52472
1.48511
1.45247
1.45014
3.91181
18.2014
1.13577
1.14726
1.15469
1.15738
1.1586
1.15978
1.15528
1.13305
1.1122
1.1074
1.11007
1.11485
1.13451
1.20563
1.24909
1.25976
1.26391
1.24923
1.2072
1.17776
1.16252
1.16224
1.17252
1.20012
1.21947
1.22546
1.22991
1.23695
1.25124
1.26439
1.27536
1.29238
1.30813
1.31557
1.31346
1.2998
1.27466
1.244
1.22751
1.226
1.22949
1.23806
1.27746
1.35412
1.39264
1.40479
1.40758
1.39824
1.38298
1.362
1.33415
1.32071
1.32248
1.33051
1.33702
1.33969
1.34017
1.35496
1.39662
1.42988
1.44846
1.46483
1.47964
1.48831
1.48776
1.46407
1.42437
1.39591
1.38626
1.38604
1.38955
1.40037
1.4485
1.50925
1.53903
1.5497
1.55492
1.55555
1.55552
1.54286
1.50431
1.47284
1.46194
1.46206
1.4657
1.48671
1.53502
1.57027
1.58635
1.59599
1.6035
1.598
1.58965
1.56637
1.52152
1.4668
1.42351
3.82086
18.2532
1.13103
1.1664
1.17893
1.1828
1.17936
1.16905
1.14473
1.11421
1.10225
1.10332
1.1074
1.11628
1.15178
1.20504
1.2422
1.25247
1.24625
1.22201
1.20514
1.19277
1.18792
1.19216
1.20549
1.21763
1.22193
1.21409
1.19728
1.1955
1.21046
1.24637
1.28598
1.31703
1.33443
1.3419
1.34354
1.32565
1.28139
1.24393
1.22916
1.22764
1.23279
1.25059
1.2771
1.31629
1.36366
1.38472
1.38661
1.38215
1.38256
1.38418
1.3794
1.36669
1.35468
1.34742
1.34188
1.332
1.32204
1.32312
1.33865
1.3847
1.43714
1.47032
1.48636
1.49465
1.49913
1.49494
1.46257
1.41757
1.39087
1.38486
1.38772
1.39388
1.41039
1.45862
1.50949
1.53389
1.54332
1.54749
1.55259
1.55917
1.55162
1.51562
1.48003
1.46268
1.45795
1.4581
1.47539
1.52536
1.56551
1.58522
1.59526
1.59805
1.59084
1.58117
1.55676
1.50469
1.43582
3.70243
18.3245
1.10911
1.17158
1.19265
1.20049
1.20294
1.19007
1.14469
1.11128
1.10367
1.10548
1.11596
1.14296
1.16686
1.18719
1.20711
1.21753
1.21749
1.21684
1.21554
1.21644
1.22323
1.23171
1.23561
1.23266
1.21481
1.18875
1.17729
1.17834
1.18373
1.21144
1.27819
1.32556
1.34276
1.35061
1.35463
1.34359
1.30434
1.26058
1.24222
1.24086
1.25361
1.27199
1.28062
1.28589
1.29967
1.32952
1.35555
1.3707
1.38218
1.39811
1.41254
1.4146
1.39846
1.37271
1.34618
1.32304
1.31326
1.31463
1.3208
1.33717
1.39671
1.45962
1.48456
1.49302
1.49651
1.49183
1.4802
1.45702
1.42295
1.40139
1.39706
1.40041
1.40723
1.41508
1.44722
1.49774
1.52888
1.54395
1.55541
1.56389
1.56911
1.56068
1.51939
1.47701
1.4553
1.45025
1.453
1.47154
1.52218
1.56329
1.58135
1.58675
1.58183
1.57692
1.57064
1.54163
1.48731
3.59245
18.4152
1.0888
1.16286
1.19543
1.2028
1.20523
1.18983
1.15104
1.12251
1.11689
1.12308
1.14321
1.16182
1.16836
1.17002
1.16441
1.16881
1.19054
1.21458
1.23227
1.24922
1.25953
1.26237
1.25922
1.24049
1.20177
1.17675
1.17235
1.17489
1.17957
1.19591
1.24989
1.31613
1.34206
1.3494
1.34106
1.32242
1.31113
1.29597
1.27946
1.27502
1.27973
1.28418
1.28433
1.27033
1.25994
1.26877
1.30534
1.3498
1.38495
1.41401
1.4322
1.43922
1.43673
1.40996
1.36213
1.32594
1.31471
1.31673
1.3233
1.33484
1.36157
1.42071
1.46281
1.47639
1.48002
1.47807
1.47746
1.47908
1.47119
1.4436
1.41871
1.4076
1.40228
1.39881
1.4039
1.43701
1.49732
1.53716
1.55347
1.56102
1.56687
1.57125
1.56157
1.52023
1.47972
1.4599
1.45369
1.45358
1.46923
1.51631
1.55327
1.56965
1.57444
1.57033
1.56908
1.5592
1.54267
3.53322
18.505
1.08508
1.14007
1.18214
1.19338
1.19307
1.18353
1.16726
1.15223
1.14752
1.15201
1.16131
1.16715
1.16641
1.14839
1.13826
1.14112
1.15678
1.19916
1.24674
1.27501
1.28572
1.28896
1.28097
1.24775
1.20155
1.17934
1.17578
1.17935
1.19538
1.21831
1.23782
1.26981
1.30423
1.31735
1.31745
1.31774
1.32143
1.32648
1.33012
1.32295
1.30843
1.29486
1.27635
1.25169
1.24113
1.24311
1.25512
1.30077
1.37102
1.41737
1.43429
1.44097
1.44217
1.43067
1.39467
1.35323
1.33392
1.33312
1.33983
1.34873
1.35943
1.37536
1.41042
1.44404
1.46235
1.47184
1.48053
1.48876
1.49482
1.4891
1.45643
1.41923
1.39935
1.39474
1.39716
1.40411
1.43555
1.49821
1.54032
1.5561
1.56216
1.5669
1.57049
1.56167
1.53015
1.48847
1.46182
1.45155
1.44855
1.45907
1.50239
1.54248
1.56268
1.56601
1.56464
1.55814
1.57618
3.53526
18.5756
1.0951
1.11715
1.14615
1.17215
1.18266
1.18586
1.18834
1.18711
1.18288
1.17915
1.17612
1.16816
1.14912
1.13207
1.12769
1.13034
1.13652
1.17085
1.24242
1.27878
1.28953
1.29433
1.28854
1.25719
1.22192
1.20089
1.19698
1.2034
1.21769
1.22697
1.23075
1.23066
1.23855
1.2691
1.30025
1.32037
1.33701
1.35622
1.36696
1.36631
1.34533
1.30935
1.27231
1.24838
1.2416
1.24401
1.24962
1.26524
1.32444
1.39734
1.42531
1.43176
1.42771
1.41877
1.41184
1.40004
1.38021
1.36538
1.35952
1.35803
1.356
1.35466
1.36079
1.38788
1.43339
1.46787
1.48496
1.49482
1.50258
1.50661
1.49767
1.46024
1.42028
1.40251
1.39917
1.40111
1.40484
1.43276
1.49689
1.53955
1.55528
1.56204
1.5699
1.57453
1.56658
1.53794
1.49221
1.45789
1.44197
1.43841
1.44718
1.49198
1.53711
1.55605
1.55886
1.55199
1.5904
3.57992
18.6304
1.10624
1.11163
1.11319
1.13027
1.16409
1.18864
1.20413
1.21393
1.21618
1.20914
1.1928
1.16766
1.14238
1.12896
1.12776
1.13038
1.13487
1.15234
1.20742
1.26099
1.27909
1.283
1.27812
1.26952
1.25637
1.24111
1.23075
1.22763
1.22858
1.22884
1.21853
1.20622
1.20602
1.21847
1.25923
1.31022
1.34976
1.37448
1.3857
1.3906
1.38504
1.34584
1.28663
1.25639
1.24943
1.25368
1.26561
1.2811
1.30142
1.341
1.38424
1.40453
1.4116
1.41601
1.42333
1.43064
1.43033
1.41471
1.39086
1.3687
1.35109
1.3427
1.34302
1.34863
1.38076
1.44248
1.48164
1.49653
1.50443
1.50749
1.50757
1.50056
1.46605
1.42734
1.40828
1.40268
1.40427
1.40868
1.42765
1.48374
1.53023
1.55113
1.56181
1.567
1.56829
1.5683
1.54593
1.49417
1.45259
1.43344
1.42885
1.43837
1.48679
1.53169
1.54791
1.54369
1.59182
3.65051
18.6784
1.1126
1.10778
1.10219
1.10557
1.12734
1.1762
1.21277
1.23053
1.23772
1.23888
1.22151
1.17911
1.14423
1.13158
1.13133
1.13559
1.14649
1.15874
1.17331
1.21172
1.25253
1.27069
1.27658
1.28121
1.28578
1.28266
1.26911
1.25195
1.2384
1.22519
1.20869
1.1981
1.19739
1.20102
1.21334
1.27063
1.34479
1.37727
1.38778
1.39073
1.37932
1.35307
1.3197
1.28875
1.27667
1.27853
1.28574
1.29213
1.29608
1.299
1.31593
1.35466
1.39131
1.41652
1.43443
1.44775
1.45433
1.45483
1.43579
1.39244
1.35529
1.34237
1.34238
1.346
1.3561
1.39561
1.45598
1.48984
1.50214
1.50561
1.50558
1.5081
1.50519
1.47701
1.44063
1.41788
1.40756
1.40124
1.399
1.41316
1.47022
1.523
1.5479
1.56207
1.57069
1.5719
1.57249
1.55046
1.49368
1.44482
1.42485
1.42175
1.43332
1.48407
1.52467
1.53178
1.5844
3.7294
18.7275
1.11385
1.10217
1.09854
1.10116
1.10663
1.14161
1.20548
1.23302
1.24148
1.24625
1.24273
1.2029
1.15948
1.14357
1.14284
1.1474
1.15536
1.16218
1.1669
1.17367
1.2001
1.24276
1.27284
1.28854
1.29821
1.30525
1.30597
1.28956
1.26037
1.2324
1.21214
1.20196
1.20094
1.2048
1.21481
1.23866
1.30169
1.35607
1.37401
1.37398
1.36662
1.36119
1.3528
1.33777
1.32229
1.31196
1.30633
1.30068
1.29036
1.28101
1.28177
1.29471
1.33777
1.39715
1.43644
1.45267
1.45963
1.4645
1.46129
1.43208
1.38494
1.35664
1.35007
1.3529
1.36345
1.37657
1.40194
1.45064
1.48195
1.49392
1.49779
1.50129
1.50786
1.51297
1.49429
1.45351
1.42034
1.40031
1.39266
1.39318
1.4057
1.46114
1.52328
1.55465
1.56694
1.57132
1.57253
1.57232
1.54731
1.48796
1.43756
1.41779
1.41592
1.43139
1.48099
1.50612
1.56449
3.8088
18.7754
1.1105
1.09561
1.09531
1.09807
1.10149
1.11434
1.17059
1.22115
1.2356
1.23919
1.23693
1.22541
1.1945
1.1692
1.16043
1.16015
1.16307
1.16778
1.17057
1.16777
1.1684
1.18447
1.23423
1.27875
1.3004
1.31119
1.31781
1.31957
1.30049
1.25964
1.22581
1.21124
1.20943
1.21496
1.22652
1.23871
1.25616
1.2957
1.332
1.34845
1.35582
1.36137
1.36997
1.37708
1.37311
1.35635
1.33476
1.31093
1.28693
1.27426
1.27414
1.27911
1.2903
1.34271
1.41777
1.44987
1.45828
1.45918
1.45309
1.4477