/*--------------------------------*- C++ -*----------------------------------*\
  =========                 |
  \\      /  F ield         | OpenFOAM: The Open Source CFD Toolbox
   \\    /   O peration     | Website:  https://openfoam.org
    \\  /    A nd           | Version:  12
     \\/     M anipulation  |
\*---------------------------------------------------------------------------*/
FoamFile
{
    format      ascii;
    class       volScalarField;
    location    "25";
    object      T;
}
// * * * * * * * * * * * * * * * * * * * * * * * * * * * * * * * * * * * * * //

dimensions      [0 0 0 1 0 0 0];

internalField   nonuniform List<scalar> 
9801
(
0.783262
0.792409
0.812315
0.818843
0.819353
0.818472
0.815637
0.807442
0.798822
0.797653
0.799469
0.803627
0.810086
0.81895
0.826717
0.829676
0.829748
0.829445
0.827246
0.821393
0.819191
0.820299
0.822837
0.826068
0.828847
0.831228
0.833825
0.837121
0.840356
0.842453
0.843574
0.844265
0.844535
0.842921
0.842096
0.842644
0.843549
0.844574
0.84574
0.84803
0.853735
0.859717
0.862507
0.863747
0.864387
0.863009
0.860354
0.860072
0.860897
0.861968
0.863265
0.865359
0.87077
0.877794
0.881459
0.883005
0.883954
0.883393
0.879652
0.87776
0.878268
0.879433
0.88095
0.883151
0.889961
0.898305
0.902744
0.904773
0.905985
0.905501
0.901282
0.897769
0.897168
0.898371
0.900694
0.905333
0.916858
0.925384
0.929302
0.931525
0.933005
0.933018
0.92627
0.919337
0.919024
0.921966
0.928236
0.944225
0.958336
0.965787
0.971409
0.97611
0.97653
0.968386
0.959027
0.957611
0.969215
1.15493
1.53487
0.790319
0.792245
0.803054
0.814711
0.819368
0.821122
0.8208
0.817461
0.811959
0.806953
0.805464
0.806342
0.808809
0.814278
0.822819
0.829098
0.831993
0.833103
0.832906
0.831797
0.828469
0.8259
0.826174
0.827229
0.828913
0.830929
0.833063
0.836889
0.842597
0.845888
0.847285
0.848263
0.849134
0.848344
0.846212
0.845967
0.846617
0.847497
0.848578
0.850242
0.855519
0.861967
0.865216
0.866813
0.867907
0.867824
0.864592
0.863002
0.863449
0.864398
0.865689
0.867504
0.873103
0.880301
0.884074
0.885833
0.887087
0.887494
0.884069
0.880916
0.880992
0.882206
0.883956
0.886372
0.893056
0.901433
0.9059
0.9081
0.909564
0.910545
0.90664
0.901225
0.900585
0.902423
0.904653
0.909181
0.919334
0.927875
0.93232
0.935308
0.937884
0.938714
0.93184
0.924948
0.924968
0.928351
0.933424
0.945026
0.95842
0.967013
0.973948
0.980497
0.982589
0.976292
0.966873
0.962749
0.962062
1.14716
1.55463
0.803994
0.805143
0.806422
0.811248
0.817846
0.820135
0.820131
0.819924
0.819653
0.81934
0.818148
0.817401
0.817524
0.818624
0.821266
0.827763
0.832401
0.83414
0.83527
0.837004
0.838313
0.837214
0.83562
0.835705
0.835796
0.835794
0.836391
0.838898
0.844878
0.849673
0.852098
0.853674
0.855124
0.85577
0.854001
0.852898
0.853022
0.853463
0.854203
0.855415
0.860062
0.866888
0.870649
0.872637
0.874145
0.875055
0.87296
0.870595
0.870336
0.870941
0.872029
0.873484
0.877984
0.885499
0.889959
0.892228
0.893903
0.895181
0.893369
0.889716
0.888853
0.889659
0.891314
0.893532
0.899399
0.907935
0.913226
0.916192
0.918444
0.920331
0.917987
0.911844
0.910087
0.911644
0.914192
0.917788
0.926972
0.937972
0.944121
0.947674
0.95062
0.951929
0.946109
0.939292
0.938488
0.942043
0.947258
0.956017
0.971672
0.9839
0.991741
0.999459
1.0039
1.00078
0.994457
0.990448
0.985313
1.15754
1.58417
0.819577
0.821125
0.816337
0.811788
0.812507
0.818065
0.824986
0.829004
0.831541
0.833481
0.83472
0.834192
0.831175
0.825761
0.823705
0.825035
0.831547
0.840366
0.845156
0.847381
0.849208
0.849805
0.848763
0.846234
0.843059
0.841777
0.842037
0.843565
0.850281
0.858057
0.862079
0.864188
0.865928
0.867002
0.864418
0.861162
0.860538
0.861288
0.862637
0.864407
0.869468
0.876933
0.881307
0.883583
0.88525
0.886631
0.884998
0.880782
0.879452
0.880112
0.881589
0.883469
0.887726
0.896224
0.902201
0.905087
0.906976
0.908566
0.907617
0.902726
0.900635
0.901442
0.903463
0.90589
0.911057
0.920728
0.927496
0.93092
0.933416
0.935511
0.934555
0.928414
0.925264
0.926586
0.929527
0.933009
0.940628
0.953027
0.960952
0.965108
0.968495
0.971346
0.969153
0.961787
0.958159
0.960693
0.966481
0.973773
0.986809
1.00134
1.01132
1.01993
1.02762
1.02795
1.02281
1.01671
1.00574
1.17218
1.6156
0.831953
0.832386
0.823366
0.818827
0.818202
0.820538
0.829418
0.839037
0.842905
0.845336
0.847052
0.8449
0.837804
0.833002
0.832099
0.832285
0.837265
0.848384
0.85642
0.859508
0.861631
0.862985
0.859598
0.853233
0.850847
0.851085
0.852106
0.854814
0.862537
0.870452
0.874459
0.876708
0.878376
0.878182
0.873892
0.87092
0.871229
0.872676
0.874485
0.877042
0.882783
0.890015
0.894172
0.896373
0.897945
0.899019
0.897306
0.893201
0.892187
0.893423
0.895332
0.897467
0.901457
0.909889
0.916474
0.919601
0.921546
0.923038
0.922766
0.918099
0.91535
0.916118
0.918395
0.920994
0.925255
0.934752
0.942811
0.946782
0.949477
0.951924
0.952891
0.947989
0.942699
0.942694
0.945655
0.949211
0.954882
0.966879
0.977751
0.98339
0.987211
0.990808
0.99155
0.985716
0.979325
0.97771
0.98183
0.98869
0.998746
1.01335
1.02583
1.0353
1.04393
1.04841
1.04552
1.03802
1.01889
1.18269
1.63875
0.83875
0.833189
0.828774
0.828763
0.829639
0.832348
0.83915
0.84792
0.85325
0.855997
0.85482
0.847746
0.842957
0.84224
0.842971
0.845925
0.853049
0.861133
0.866913
0.870709
0.873091
0.871879
0.86537
0.861742
0.861741
0.862801
0.864341
0.869094
0.878068
0.884219
0.887173
0.889003
0.889462
0.887513
0.884196
0.883102
0.884077
0.885649
0.887459
0.890253
0.896282
0.902959
0.90663
0.908648
0.910129
0.911221
0.910379
0.907139
0.906163
0.907407
0.909292
0.911385
0.914829
0.922486
0.929222
0.932685
0.934896
0.936671
0.93756
0.9342
0.929779
0.929423
0.931632
0.934286
0.937879
0.946257
0.955666
0.960585
0.963458
0.965973
0.968078
0.965895
0.959284
0.956415
0.958202
0.961788
0.966198
0.975242
0.987835
0.99615
1.00109
1.00492
1.00756
1.00452
0.997474
0.993594
0.993945
0.998477
1.00514
1.01575
1.0284
1.0386
1.04719
1.05396
1.05522
1.05081
1.03335
1.18508
1.65288
0.839291
0.838944
0.839019
0.8408
0.845061
0.850848
0.855121
0.857927
0.860556
0.86035
0.855269
0.852588
0.852715
0.853884
0.856179
0.862982
0.870607
0.875084
0.878206
0.880555
0.879924
0.875396
0.872877
0.873013
0.873913
0.875193
0.877511
0.883926
0.891635
0.895763
0.897615
0.898057
0.897567
0.896758
0.894971
0.893941
0.89491
0.896845
0.898871
0.90149
0.906742
0.912999
0.916546
0.918488
0.920065
0.921699
0.922298
0.91964
0.917445
0.918157
0.919993
0.922031
0.924755
0.931355
0.938526
0.942466
0.944901
0.946942
0.948828
0.947983
0.94283
0.940382
0.941576
0.943944
0.946726
0.95289
0.963121
0.969985
0.973412
0.975906
0.978318
0.978851
0.973282
0.968031
0.967358
0.96995
0.973447
0.978841
0.990188
1.00189
1.00869
1.01318
1.0169
1.01822
1.01337
1.00746
1.00454
1.00494
1.00887
1.01542
1.02613
1.03718
1.04604
1.05322
1.05675
1.05591
1.04502
1.18829
1.66245
0.840819
0.845853
0.85209
0.858967
0.864041
0.866712
0.868348
0.868842
0.864775
0.858286
0.85689
0.858067
0.860464
0.863999
0.870982
0.880093
0.884781
0.887172
0.88837
0.886284
0.881138
0.878666
0.87911
0.880428
0.882328
0.885378
0.890393
0.895714
0.900163
0.902424
0.903357
0.903662
0.904656
0.905904
0.905655
0.904167
0.904452
0.906177
0.90795
0.909491
0.912342
0.9184
0.923073
0.92576
0.927986
0.930044
0.931805
0.930864
0.927459
0.926521
0.927443
0.928854
0.930691
0.935587
0.943915
0.949313
0.952214
0.954412
0.956515
0.957895
0.954332
0.949864
0.948999
0.950428
0.95258
0.955988
0.964975
0.974751
0.980043
0.983003
0.985478
0.987457
0.985045
0.978513
0.974912
0.974819
0.977358
0.980884
0.987709
1.00049
1.01109
1.01727
1.02183
1.02564
1.02604
1.01995
1.01356
1.01092
1.01184
1.0158
1.0225
1.03279
1.04247
1.05007
1.05498
1.05646
1.0517
1.19457
1.66972
0.837525
0.843857
0.860939
0.873264
0.878557
0.880573
0.880508
0.875968
0.864072
0.858369
0.858491
0.859941
0.862653
0.869762
0.882666
0.890232
0.893373
0.894319
0.891973
0.887568
0.885428
0.885121
0.885798
0.887649
0.891559
0.895614
0.897888
0.900448
0.902912
0.90479
0.906337
0.908766
0.911811
0.913963
0.915482
0.914869
0.914003
0.913684
0.913422
0.913593
0.914802
0.919681
0.927173
0.932025
0.935004
0.937218
0.939121
0.940073
0.936702
0.933131
0.931855
0.932445
0.934013
0.93729
0.945858
0.953809
0.957982
0.960538
0.962696
0.96473
0.963559
0.957591
0.954353
0.954243
0.955947
0.958252
0.963745
0.975099
0.98373
0.988238
0.991142
0.993507
0.99414
0.988284
0.981524
0.978933
0.97945
0.982111
0.98599
0.994855
1.00862
1.0188
1.02485
1.02885
1.03159
1.03028
1.02455
1.01887
1.01636
1.01721
1.02108
1.02781
1.03769
1.04636
1.05234
1.05533
1.05492
1.2023
1.67522
0.840211
0.843587
0.863191
0.879935
0.88477
0.886595
0.886079
0.876153
0.865945
0.862726
0.86306
0.865021
0.870694
0.879664
0.888178
0.894142
0.895883
0.893957
0.890296
0.889916
0.891172
0.892561
0.894774
0.897952
0.900642
0.90155
0.900226
0.899369
0.900837
0.905217
0.910527
0.915115
0.918886
0.921699
0.923763
0.924178
0.920915
0.917037
0.914856
0.915114
0.916518
0.920206
0.929364
0.937038
0.941129
0.943407
0.945187
0.946659
0.944122
0.937114
0.93406
0.934468
0.936141
0.93883
0.946003
0.956201
0.962315
0.965461
0.96759
0.969434
0.969799
0.964176
0.958302
0.957011
0.957998
0.960285
0.963428
0.972063
0.98428
0.991303
0.994784
0.997301
0.999302
0.997923
0.990062
0.984236
0.982947
0.9841
0.986882
0.990852
1.0002
1.01385
1.02343
1.02898
1.03279
1.0354
1.03463
1.02947
1.02383
1.02097
1.02157
1.02508
1.03149
1.04119
1.04911
1.05373
1.05668
1.21032
1.67964
0.847647
0.854967
0.869696
0.881645
0.886662
0.887095
0.881832
0.875339
0.871767
0.870579
0.872166
0.877008
0.882716
0.885921
0.888159
0.890031
0.89141
0.892264
0.893148
0.894915
0.898542
0.902428
0.904805
0.906081
0.905666
0.901967
0.898291
0.897998
0.899354
0.904253
0.913991
0.921729
0.925707
0.927836
0.929583
0.930188
0.925164
0.91734
0.915316
0.916184
0.917854
0.921479
0.931156
0.941292
0.945715
0.947796
0.949433
0.950086
0.94743
0.940877
0.937236
0.937432
0.938792
0.940712
0.94564
0.956133
0.964464
0.967981
0.970018
0.971444
0.972254
0.970392
0.964007
0.960408
0.960561
0.962405
0.964627
0.968507
0.979743
0.99108
0.996449
0.999442
1.00197
1.00422
1.00178
0.993771
0.988652
0.987306
0.987816
0.990305
0.994683
1.00478
1.01819
1.02776
1.03349
1.03732
1.03919
1.03848
1.03402
1.02809
1.02438
1.02439
1.02698
1.03339
1.04362
1.05099
1.05691
1.21843
1.68356
0.861871
0.8676
0.872011
0.876804
0.880022
0.880636
0.880102
0.880644
0.880822
0.88269
0.885491
0.8878
0.889427
0.889287
0.885067
0.883454
0.885561
0.890834
0.897401
0.903935
0.908742
0.911038
0.912281
0.911777
0.906084
0.899188
0.897519
0.898354
0.900023
0.904915
0.917366
0.926891
0.930314
0.932363
0.933441
0.931787
0.924786
0.918946
0.917785
0.918731
0.920242
0.923638
0.93343
0.943508
0.947906
0.949929
0.950468
0.949897
0.948837
0.945486
0.941574
0.941132
0.942498
0.944499
0.946438
0.953066
0.963213
0.968473
0.970808
0.972716
0.974936
0.976273
0.972621
0.966691
0.964349
0.964195
0.965515
0.967827
0.973035
0.985927
0.996739
1.00184
1.00531
1.00831
1.01011
1.00563
0.996311
0.990978
0.990061
0.991445
0.994502
0.999021
1.00913
1.02208
1.03132
1.03696
1.04061
1.04216
1.04131
1.03701
1.03062
1.02597
1.02518
1.02697
1.03456
1.04541
1.05484
1.22687
1.68711
0.874597
0.876037
0.873577
0.870469
0.869969
0.872912
0.878352
0.885376
0.891962
0.895673
0.89702
0.89662
0.89338
0.885735
0.88121
0.881043
0.88258
0.888465
0.901524
0.911936
0.915668
0.917628
0.918496
0.91467
0.903962
0.89871
0.898742
0.899771
0.901727
0.909001
0.922706
0.930098
0.933078
0.934583
0.933535
0.929445
0.925366
0.921921
0.921167
0.922543
0.9254
0.929368
0.934734
0.942405
0.946886
0.948504
0.948957
0.950084
0.95183
0.95168
0.948508
0.946733
0.946935
0.947351
0.948189
0.950038
0.957637
0.96774
0.972984
0.976137
0.978603
0.980849
0.981278
0.97502
0.968397
0.96606
0.96621
0.967865
0.970481
0.977629
0.992273
1.00303
1.0079
1.01053
1.01238
1.01316
1.00836
1.00019
0.995689
0.994782
0.995616
0.998419
1.00309
1.01358
1.02604
1.03452
1.03956
1.04269
1.04375
1.04271
1.03863
1.03191
1.02635
1.0247
1.02647
1.03642
1.04983
1.2347
1.69007
0.883091
0.882831
0.873491
0.867333
0.8669
0.868658
0.875942
0.889764
0.898854
0.901874
0.903644
0.902487
0.893134
0.883272
0.881265
0.882023
0.883706
0.890754
0.90666
0.915816
0.918948
0.920722
0.920135
0.912261
0.904206
0.901312
0.901457
0.902722
0.906884
0.916273
0.925648
0.9313
0.933389
0.932363
0.929849
0.929284
0.928478
0.927291
0.92773
0.929712
0.932137
0.933319
0.934139
0.937255
0.943802
0.947956
0.950467
0.95296
0.955569
0.957818
0.957301
0.952816
0.949796
0.948478
0.948444
0.949673
0.952989
0.963688
0.974711
0.98005
0.983097
0.985297
0.986857
0.984266
0.975457
0.969728
0.96878
0.969764
0.971616
0.974314
0.981847
0.996626
1.00644
1.01056
1.01342
1.0163
1.01776
1.01313
1.00481
0.999746
0.99844
0.999378
1.00213
1.00701
1.01784
1.02939
1.03672
1.04106
1.04384
1.04462
1.04378
1.03995
1.03246
1.02569
1.02351
1.02686
1.04195
1.24044
1.69227
0.884776
0.878848
0.870289
0.868233
0.868679
0.871271
0.882445
0.895651
0.901313
0.904065
0.905448
0.900547
0.88939
0.884427
0.883901
0.884518
0.886879
0.897851
0.91134
0.917648
0.92036
0.920761
0.915606
0.909715
0.906686
0.905707
0.906978
0.910984
0.916541
0.920851
0.92509
0.927792
0.928224
0.927425
0.928008
0.93068
0.93343
0.935792
0.935994
0.935556
0.935053
0.933503
0.93197
0.932702
0.937966
0.94719
0.953647
0.958212
0.961268
0.963327
0.964406
0.960411
0.953251
0.949428
0.948759
0.94988
0.951819
0.958105
0.972426
0.982164
0.985878
0.988033
0.989475
0.989814
0.98587
0.97796
0.973562
0.972604
0.972757
0.974193
0.977007
0.985171
1.00016
1.01079
1.0158
1.01853
1.02076
1.02142
1.01711
1.00918
1.00358
1.0018
1.00264
1.00527
1.01054
1.02187
1.03249
1.03868
1.04222
1.0448
1.04567
1.04502
1.04093
1.03194
1.02385
1.02155
1.03091
1.24266
1.69339
0.879847
0.872267
0.870964
0.871703
0.873426
0.881802
0.893141
0.899171
0.902598
0.904459
0.901725
0.892846
0.888336
0.88742
0.887917
0.889717
0.896696
0.90694
0.913815
0.917079
0.917481
0.913987
0.911577
0.911066
0.91102
0.912968
0.917003
0.921044
0.923168
0.922689
0.920526
0.92063
0.923798
0.927749
0.93147
0.935662
0.940442
0.943453
0.944576
0.941654
0.935978
0.931105
0.930124
0.931381
0.934544
0.944795
0.956894
0.963335
0.966232
0.96807
0.969111
0.96674
0.957812
0.951614
0.950541
0.951331
0.952796
0.955863
0.965192
0.978801
0.985921
0.98889
0.9907
0.992288
0.9933
0.989062
0.980531
0.975736
0.974949
0.975831
0.977509
0.980299
0.98764
1.00246
1.01356
1.01859
1.02128
1.02352
1.02448
1.02032
1.0126
1.00675
1.00475
1.00562
1.00835
1.01404
1.02542
1.03516
1.0404
1.04324
1.04564
1.04659
1.04588
1.04083
1.03012
1.02082
1.01907
1.24034
1.6935
0.872724
0.87049
0.871795
0.874307
0.882702
0.895928
0.901676
0.903322
0.904081
0.9011
0.892676
0.888433
0.888536
0.889874
0.893397
0.900768
0.906812
0.910602
0.913102
0.913457
0.910901
0.909387
0.910696
0.914036
0.919022
0.923232
0.925339
0.926313
0.924329
0.918338
0.914992
0.915454
0.919513
0.928682
0.937509
0.943694
0.946853
0.948656
0.949831
0.946465
0.935737
0.92991
0.929697
0.931001
0.93334
0.942199
0.957935
0.965623
0.968426
0.970261
0.970304
0.968335
0.963707
0.9568
0.954078
0.95463
0.956576
0.958648
0.960705
0.968405
0.980727
0.987798
0.991068
0.993372
0.995561
0.99728
0.993524
0.984824
0.97995
0.978594
0.978394
0.979665
0.982379
0.989798
1.00491
1.01639
1.02152
1.02397
1.02563
1.02633
1.02328
1.01635
1.01045
1.00803
1.00836
1.01068
1.01651
1.02799
1.03714
1.04147
1.04391
1.04636
1.04717
1.04621
1.0393
1.02543
1.01348
1.23333
1.6929
0.868511
0.867742
0.869846
0.876413
0.892022
0.902173
0.906071
0.907458
0.904061
0.895266
0.89108
0.890465
0.891172
0.896027
0.904185
0.908879
0.910412
0.909832
0.907669
0.90709
0.908433
0.910574
0.914379
0.921747
0.928224
0.931382
0.932657
0.929558
0.919753
0.91309
0.912407
0.913912
0.917486
0.929021
0.943341
0.949775
0.952179
0.95334
0.952236
0.945306
0.936428
0.932046
0.931869
0.933069
0.93656
0.943582
0.954705
0.964156
0.967756
0.96869
0.967961
0.968759
0.969704
0.966766
0.961609
0.959614
0.959632
0.9596
0.959606
0.961354
0.969
0.982641
0.991207
0.995532
0.998967
1.00127
1.00243
0.997507
0.987612
0.981774
0.980504
0.981393
0.983355
0.986124
0.992506
1.00671
1.01798
1.02319
1.02607
1.02813
1.02881
1.02638
1.01946
1.01282
1.00977
1.00983
1.01191
1.0181
1.02985
1.03816
1.04181
1.04448
1.04718
1.04785
1.046
1.03413
1.01687
1.2236
1.69209
0.869935
0.868935
0.874471
0.885474
0.895437
0.902662
0.904993
0.902857
0.896587
0.894116
0.894506
0.89567
0.900661
0.906592
0.909943
0.911493
0.909283
0.903071
0.900606
0.901874
0.906646
0.914756
0.924524
0.931096
0.934018
0.935797
0.936171
0.927984
0.915657
0.911581
0.912042
0.913392
0.916936
0.930895
0.946167
0.951733
0.95403
0.954772
0.951047
0.945586
0.939954
0.936805
0.937254
0.939876
0.94397
0.94628
0.948806
0.955809
0.963109
0.966749
0.969059
0.971475
0.974149
0.976017
0.973316
0.96679
0.962408
0.959585
0.958111
0.958834
0.961206
0.971004
0.987523
0.997506
1.00127
1.00317
1.00446
1.00539
1.00103
0.991395
0.985784
0.984587
0.984818
0.986104
0.988835
0.995782
1.00998
1.0208
1.02585
1.02823
1.03004
1.03048
1.02829
1.02171
1.01472
1.01115
1.01084
1.01277
1.01911
1.03046
1.03831
1.04218
1.04556
1.04811
1.0486
1.04259
1.0272
1.21578
1.69187
0.875293
0.877805
0.885839
0.890748
0.893281
0.895459
0.895508
0.895355
0.896298
0.897756
0.900996
0.907553
0.912131
0.914154
0.91466
0.910678
0.901281
0.896919
0.897292
0.899226
0.905548
0.920993
0.93384
0.938218
0.939793
0.939197
0.933869
0.922757
0.915285
0.913394
0.913869
0.91553
0.922165
0.93439
0.945482
0.95098
0.952438
0.950282
0.948396
0.948242
0.947051
0.945525
0.945271
0.946273
0.947225
0.946741
0.945205
0.946221
0.953607
0.964363
0.971446
0.97638
0.979943
0.982213
0.983089
0.977524
0.967319
0.960849
0.958995
0.959523
0.961139
0.964202
0.9756
0.992489
1.00096
1.00393
1.00568
1.0074
1.00838
1.00389
0.994391
0.988786
0.987617
0.988982
0.991506
0.99401
0.999389
1.01198
1.02168
1.02637
1.02914
1.03141
1.03259
1.03104
1.02417
1.01612
1.01202
1.01135
1.01272
1.01921
1.03068
1.03858
1.04306
1.04675
1.04887
1.04705
1.03865
1.21316
1.69279
0.886665
0.889552
0.891916
0.892964
0.889582
0.884747
0.884969
0.889104
0.896507
0.905152
0.913699
0.918489
0.920123
0.920212
0.916866
0.904823
0.895991
0.894614
0.895556
0.897467
0.905212
0.925633
0.937
0.940464
0.942239
0.939967
0.929853
0.921912
0.917885
0.917311
0.919335
0.924883
0.930888
0.934759
0.939473
0.944172
0.94687
0.948325
0.950067
0.951944
0.954891
0.956797
0.955544
0.951947
0.948061
0.943642
0.941813
0.942706
0.945862
0.957297
0.971969
0.980281
0.984362
0.986689
0.98766
0.986294
0.976835
0.96579
0.961735
0.961854
0.96398
0.967495
0.971141
0.979716
0.994584
1.00332
1.00657
1.00744
1.00837
1.01017
1.00846
1.00118
0.995901
0.994004
0.993321
0.993458
0.995405
1.00087
1.01316
1.02311
1.02836
1.03167
1.03426
1.03501
1.03267
1.02497
1.01609
1.01151
1.01091
1.01264
1.01908
1.0304
1.03862
1.04362
1.04753
1.04864
1.04676
1.21689
1.69496
0.898189
0.899344
0.896498
0.890517
0.882502
0.879842
0.880605
0.883092
0.893031
0.911177
0.922186
0.925678
0.927101
0.925844
0.915559
0.902019
0.896929
0.896433
0.897124
0.90053
0.91241
0.927588
0.936877
0.939874
0.938424
0.931995
0.927495
0.925276
0.924587
0.926411
0.930151
0.933427
0.934826
0.933642
0.931901
0.933413
0.940184
0.947918
0.953993
0.959422
0.962901
0.96464
0.964318
0.95817
0.947865
0.941414
0.94037
0.941455
0.943402
0.949613
0.967442
0.981292
0.986288
0.988209
0.987957
0.986364
0.984245
0.976945
0.969662
0.967662
0.968693
0.970619
0.97166
0.972855
0.978773
0.992723
1.00222
1.00625
1.01019
1.01353
1.01541
1.01418
1.00669
0.998151
0.993658
0.993172
0.994491
0.996547
1.00344
1.01717
1.02649
1.03054
1.03302
1.03503
1.03522
1.03325
1.02565
1.01672
1.01206
1.01126
1.01198
1.01761
1.02915
1.03801
1.04415
1.04701
1.0523
1.2262
1.69834
0.90581
0.908216
0.902453
0.888476
0.880425
0.879855
0.880915
0.882983
0.893243
0.914318
0.923937
0.927067
0.928415
0.923574
0.911655
0.903838
0.900447
0.900881
0.904159
0.911795
0.918754
0.924538
0.929385
0.930545
0.929166
0.928523
0.929777
0.931815
0.935754
0.938826
0.939946
0.939255
0.934772
0.928436
0.926301
0.927479
0.932499
0.945085
0.958313
0.965867
0.969092
0.970731
0.970397
0.963815
0.950258
0.942945
0.941862
0.942813
0.946118
0.952356
0.960638
0.973812
0.982847
0.986025
0.986513
0.98688
0.988073
0.988549
0.983223
0.976073
0.972899
0.97192
0.970435
0.970052
0.971935
0.978123
0.993403
1.00662
1.01234
1.01469
1.01641
1.01753
1.01583
1.00741
0.998944
0.99544
0.995465
0.997285
1.00004
1.00706
1.01863
1.02646
1.03047
1.03333
1.03538
1.03661
1.03565
1.02798
1.01813
1.01203
1.00975
1.00975
1.015
1.02764
1.0384
1.04384
1.05455
1.23757
1.70251
0.907948
0.910336
0.901381
0.88806
0.882729
0.882193
0.883011
0.887271
0.900934
0.915361
0.923043
0.925377
0.923015
0.916327
0.911871
0.908649
0.908452
0.911164
0.916997
0.921161
0.92248
0.920328
0.917246
0.91848
0.92337
0.92903
0.935627
0.942625
0.946821
0.948443
0.948076
0.942698
0.931048
0.9244
0.923654
0.924741
0.927459
0.940296
0.959337
0.967995
0.971028
0.972695
0.971442
0.965127
0.956533
0.948883
0.946757
0.948162
0.95235
0.955919
0.957863
0.961555
0.971341
0.980678
0.985619
0.988555
0.991658
0.993887
0.994435
0.988593
0.979416
0.973691
0.971521
0.971094
0.972247
0.974637
0.980258
0.995756
1.00859
1.0131
1.01475
1.01581
1.01605
1.01544
1.01052
1.004
1.00045
0.999628
0.999854
1.00111
1.00682
1.01828
1.02695
1.0319
1.03571
1.03835
1.03939
1.0379
1.02909
1.01751
1.0102
1.00716
1.0068
1.01284
1.02773
1.03833
1.05418
1.24937
1.70675
0.908135
0.9074
0.897079
0.890544
0.887666
0.887878
0.890539
0.897724
0.90569
0.913044
0.917095
0.916954
0.913607
0.9122
0.913536
0.915932
0.919761
0.923091
0.924718
0.925341
0.921139
0.91235
0.909248
0.910392
0.91616
0.929926
0.944097
0.951981
0.954718
0.955359
0.952885
0.942038
0.929085
0.924372
0.924394
0.925447
0.928602
0.937945
0.954483
0.966298
0.970346
0.970434
0.966685
0.964862
0.963827
0.960099
0.956464
0.955815
0.956832
0.957911
0.957187
0.9563
0.958405
0.968068
0.981295
0.989409
0.993499
0.995898
0.997617
0.998495
0.993004
0.982057
0.975377
0.973715
0.974538
0.976348
0.97844
0.983193
0.996382
1.00769
1.01215
1.01444
1.01688
1.0192
1.02009
1.01611
1.00817
1.00209
0.999565
0.999586
1.00071
1.0068
1.01971
1.02971
1.03499
1.03791
1.03937
1.03996
1.03767
1.02828
1.01733
1.00925
1.00473
1.00387
1.01231
1.02759
1.04911
1.26007
1.70994
0.907161
0.900591
0.894433
0.893072
0.89366
0.896047
0.901654
0.905116
0.906618
0.90776
0.907929
0.90902
0.911185
0.913603
0.917979
0.925519
0.930564
0.93248
0.932299
0.926008
0.913382
0.907138
0.906962
0.90849
0.912352
0.928333
0.949242
0.956383
0.959002
0.959665
0.954293
0.941014
0.930977
0.926746
0.926911
0.929891
0.937081
0.9428
0.947393
0.95542
0.962237
0.964896
0.965978
0.967391
0.969088
0.97127
0.970634
0.965775
0.961525
0.958411
0.955054
0.953102
0.953735
0.956715
0.968098
0.984166
0.99312
0.99716
0.999681
1.00085
1.00114
0.995074
0.983796
0.978011
0.977032
0.977648
0.978542
0.980123
0.984118
0.995679
1.00766
1.01455
1.01813
1.02053
1.02288
1.02387
1.01982
1.01062
1.00318
1.0001
0.99983
1.00119
1.0077
1.02101
1.03131
1.03659
1.03887
1.03959
1.03982
1.03705
1.0295
1.01801
1.00739
1.00178
1.00149
1.01159
1.03854
1.26799
1.7116
0.904104
0.898758
0.896513
0.897086
0.899963
0.904916
0.908009
0.90923
0.906815
0.900772
0.899269
0.901796
0.908827
0.918237
0.928028
0.934162
0.936506
0.937476
0.935739
0.922019
0.909287
0.906268
0.906956
0.90832
0.914273
0.933331
0.949653
0.95684
0.959172
0.956212
0.948388
0.942701
0.937586
0.934973
0.93574
0.939188
0.942509
0.943861
0.943063
0.942319
0.947111
0.95785
0.966365
0.971693
0.976713
0.979961
0.981265
0.97816
0.968785
0.959518
0.953741
0.952248
0.953354
0.95565
0.959507
0.97252
0.990726
0.998821
1.00076
1.0014
1.00177
1.00116
0.9968
0.988739
0.983437
0.981132
0.980358
0.980687
0.982074
0.984837
0.995454
1.00908
1.01677
1.02046
1.02295
1.0254
1.02675
1.02301
1.01265
1.00433
1.00085
1.00042
1.00111
1.00758
1.02185
1.03263
1.03731
1.03886
1.03961
1.04017
1.03715
1.02997
1.01794
1.00517
0.998886
0.997562
1.02244
1.27177
1.71164
0.902761
0.901316
0.901406
0.903642
0.906723
0.909122
0.910353
0.909181
0.901076
0.895737
0.895606
0.897536
0.905783
0.923758
0.936915
0.941398
0.942668
0.940954
0.931528
0.917425
0.909915
0.908036
0.908607
0.912694
0.923345
0.93382
0.943966
0.950116
0.951024
0.948761
0.946934
0.947134
0.947763
0.948207
0.947942
0.947202
0.945841
0.941899
0.936715
0.935515
0.937469
0.945282
0.961521
0.97504
0.98238
0.98569
0.987001
0.986568
0.979706
0.964842
0.955871
0.954037
0.955295
0.959138
0.963759
0.968405
0.977825
0.990973
0.996846
0.998422
0.999327
1.00049
1.00275
1.00255
0.997025
0.990255
0.9856
0.983039
0.982101
0.98274
0.984939
0.995776
1.0105
1.01867
1.02283
1.02592
1.02843
1.02842
1.02416
1.01356
1.00433
1.00015
1.00004
1.00088
1.00769
1.02259
1.03349
1.03789
1.03893
1.03921
1.03906
1.03666
1.03108
1.01708
1.0025
0.995566
1.00119
1.26763
1.70951
0.903808
0.907967
0.910646
0.911595
0.911939
0.912258
0.910757
0.903313
0.896357
0.894713
0.895561
0.897116
0.903529
0.925952
0.939559
0.943434
0.945038
0.940974
0.92822
0.918789
0.913435
0.913083
0.915911
0.924074
0.929886
0.931866
0.933525
0.936128
0.940881
0.94526
0.948933
0.954223
0.958755
0.960556
0.959705
0.955326
0.947498
0.937964
0.933123
0.932951
0.934449
0.937609
0.950266
0.97308
0.984173
0.987316
0.987756
0.984499
0.979517
0.973149
0.965037
0.96146
0.962257
0.96515
0.967604
0.968805
0.969276
0.973698
0.985217
0.993822
0.998281
1.00236
1.00639
1.00917
1.00943
1.00361
0.993162
0.985588
0.982581
0.982078
0.982671
0.985251
0.997969
1.01395
1.0222
1.02567
1.02768
1.02834
1.02867
1.02545
1.01503
1.00574
1.00141
1.0007
1.00135
1.00751
1.02208
1.03285
1.03684
1.03823
1.03957
1.03826
1.03692
1.03088
1.01441
0.997517
0.990313
1.25664
1.70619
0.902887
0.914433
0.91883
0.920311
0.919348
0.916185
0.90852
0.898451
0.894017
0.894115
0.895211
0.897997
0.90926
0.925947
0.937798
0.941545
0.940101
0.933069
0.928082
0.924076
0.922293
0.923284
0.926883
0.93025
0.931506
0.929097
0.924239
0.923993
0.929105
0.940476
0.95277
0.962346
0.967518
0.969342
0.969611
0.964067
0.950534
0.938743
0.934239
0.933957
0.935928
0.941853
0.950358
0.962602
0.976644
0.982366
0.982534
0.980712
0.980359
0.980417
0.978745
0.975167
0.972104
0.970622
0.969705
0.967526
0.96501
0.965408
0.96981
0.982526
0.996373
1.00477
1.0088
1.01122
1.01303
1.01236
1.00429
0.992417
0.985056
0.982782
0.98304
0.984146
0.988069
1.00094
1.01478
1.02207
1.02545
1.02718
1.02879
1.03063
1.02859
1.01861
1.00794
1.00185
1
1.0002
1.00607
1.02147
1.03288
1.03699
1.0385
1.03901
1.0378
1.03612
1.02712
1.00738
0.990279
1.24247
1.70351
0.896545
0.916338
0.923456
0.926445
0.927458
0.92371
0.909389
0.898239
0.895209
0.8955
0.898543
0.906967
0.914565
0.921064
0.927581
0.93137
0.931719
0.931893
0.931759
0.932138
0.934113
0.93622
0.936988
0.935805
0.930058
0.921932
0.918649
0.919199
0.921342
0.930575
0.95123
0.965527
0.970679
0.972731
0.97354
0.969931
0.958043
0.94459
0.939002
0.938714
0.942883
0.948896
0.952036
0.954098
0.958729
0.967619
0.974752
0.978498
0.981163
0.985119
0.988809
0.989387
0.985171
0.978439
0.971611
0.965599
0.963083
0.963522
0.965143
0.969503
0.986081
1.00258
1.00881
1.01124
1.01273
1.01203
1.0096
1.00389
0.99482
0.988524
0.986556
0.986786
0.987982
0.989756
0.998587
1.01281
1.02215
1.02703
1.03051
1.03282
1.03401
1.03161
1.02004
1.00717
1.00005
0.998532
0.999898
1.00687
1.02244
1.03301
1.0361
1.0368
1.03594
1.03568
1.03357
1.01942
1.00207
1.22826
1.70204
0.890242
0.913891
0.924612
0.927525
0.928592
0.924041
0.911836
0.902383
0.900346
0.902064
0.908094
0.913679
0.915824
0.916425
0.914878
0.916624
0.923817
0.931655
0.937466
0.942886
0.945905
0.946493
0.945239
0.939195
0.926784
0.918759
0.917435
0.918451
0.92029
0.926023
0.94327
0.963368
0.971116
0.973181
0.970433
0.96442
0.960583
0.955687
0.950661
0.949424
0.951069
0.952985
0.953493
0.950004
0.947385
0.950369
0.961201
0.973583
0.982924
0.990402
0.995056
0.997089
0.996623
0.989703
0.976833
0.967065
0.964182
0.964829
0.966559
0.969483
0.976633
0.99257
1.00356
1.00734
1.00894
1.009
1.0094
1.01042
1.00863
1.00119
0.993858
0.989973
0.987584
0.986177
0.987416
0.996863
1.01413
1.02589
1.03087
1.03296
1.0342
1.03504
1.03217
1.02026
1.00769
1.00155
1.00057
1.00174
1.00836
1.0221
1.03026
1.03289
1.03427
1.03451
1.03509
1.02798
1.01667
1.21965
1.70206
0.889234
0.906972
0.920772
0.924874
0.92506
0.922409
0.91752
0.912573
0.9108
0.911994
0.91454
0.916061
0.915712
0.909996
0.906994
0.908182
0.91352
0.927242
0.942263
0.951324
0.954705
0.955571
0.952957
0.94252
0.927565
0.920184
0.918995
0.920228
0.925529
0.93311
0.939725
0.950162
0.960847
0.964561
0.964413
0.964177
0.964618
0.96541
0.966162
0.963961
0.959874
0.956344
0.95149
0.944843
0.942233
0.943043
0.946829
0.960392
0.980116
0.992238
0.996298
0.998054
0.998552
0.995806
0.986434
0.975414
0.970513
0.970497
0.972372
0.974486
0.976799
0.980613
0.989951
0.999016
1.00434
1.00761
1.01078
1.01374
1.01584
1.01445
1.0054
0.994428
0.9878
0.985676
0.985989
0.987978
0.997527
1.01578
1.02802
1.03254
1.03391
1.03457
1.03518
1.03248
1.02278
1.00991
1.00288
1.00178
1.00253
1.00729
1.0186
1.02678
1.03108
1.03333
1.03457
1.03283
1.02709
1.21865
1.70353
0.892945
0.90015
0.909935
0.918565
0.922313
0.923697
0.92469
0.924325
0.922771
0.921275
0.919975
0.917063
0.910742
0.905259
0.903954
0.904965
0.907263
0.918837
0.941433
0.952953
0.956409
0.957757
0.955857
0.946011
0.934634
0.927647
0.926241
0.928195
0.93277
0.936103
0.937923
0.938538
0.941592
0.951086
0.960244
0.965825
0.970191
0.975023
0.977575
0.977237
0.971273
0.961056
0.950576
0.944169
0.942732
0.943732
0.945609
0.950318
0.967645
0.987568
0.994506
0.995959
0.994814
0.992642
0.991366
0.988955
0.984176
0.980393
0.978749
0.977948
0.976647
0.975681
0.976834
0.984055
0.996732
1.00677
1.01228
1.01589
1.01872
1.01999
1.01743
1.00667
0.994666
0.988494
0.986973
0.987448
0.988952
0.997844
1.01657
1.02871
1.03291
1.03435
1.03583
1.03654
1.03359
1.02459
1.01146
1.00315
1.00119
1.0017
1.00485
1.0152
1.0247
1.03018
1.03305
1.03333
1.0353
1.22366
1.70605
0.896994
0.898911
0.899792
0.905707
0.916809
0.924984
0.930201
0.933334
0.933953
0.931563
0.926123
0.917753
0.909196
0.904661
0.904275
0.905198
0.906941
0.9131
0.931073
0.947946
0.95364