/*--------------------------------*- C++ -*----------------------------------*\
  =========                 |
  \\      /  F ield         | OpenFOAM: The Open Source CFD Toolbox
   \\    /   O peration     | Website:  https://openfoam.org
    \\  /    A nd           | Version:  12
     \\/     M anipulation  |
\*---------------------------------------------------------------------------*/
FoamFile
{
    format      ascii;
    class       volScalarField;
    location    "25";
    object      T;
}
// * * * * * * * * * * * * * * * * * * * * * * * * * * * * * * * * * * * * * //

dimensions      [0 0 0 1 0 0 0];

internalField   nonuniform List<scalar> 
9801
(
0.796171
0.793858
0.794523
0.799245
0.806044
0.809587
0.811404
0.812884
0.813997
0.811326
0.807009
0.806485
0.807169
0.808398
0.811648
0.818253
0.824087
0.826952
0.828412
0.829528
0.830118
0.8289
0.828688
0.829513
0.830535
0.831642
0.832884
0.83504
0.837802
0.839761
0.841935
0.844229
0.846085
0.847548
0.848927
0.850015
0.848115
0.846425
0.846656
0.847547
0.84881
0.853523
0.860145
0.863614
0.865289
0.866438
0.867335
0.865138
0.860558
0.859777
0.860855
0.862507
0.865776
0.873435
0.880529
0.883773
0.885344
0.886018
0.886401
0.884163
0.878266
0.875617
0.876436
0.878202
0.88055
0.886982
0.897687
0.904144
0.906993
0.908575
0.909704
0.91066
0.905863
0.898317
0.896749
0.898699
0.901638
0.908989
0.922192
0.93147
0.936377
0.939424
0.941545
0.942845
0.93584
0.925648
0.923589
0.927102
0.93296
0.947457
0.964647
0.976867
0.98749
0.995456
0.996578
0.990135
0.973822
1.11026
1.53193
0.797368
0.798417
0.800013
0.805791
0.811239
0.814448
0.816056
0.817179
0.817372
0.814468
0.811203
0.810957
0.811789
0.812949
0.815479
0.82173
0.827867
0.830855
0.832323
0.833355
0.83408
0.833432
0.832696
0.832957
0.833443
0.834225
0.835263
0.836881
0.841
0.84512
0.847667
0.849689
0.851471
0.852871
0.854063
0.854118
0.851054
0.849547
0.850087
0.85128
0.853414
0.859406
0.865609
0.868514
0.869848
0.870658
0.871225
0.869024
0.865027
0.864459
0.865509
0.866958
0.869471
0.876382
0.883131
0.886319
0.887935
0.888893
0.889805
0.889739
0.885301
0.882226
0.882403
0.883669
0.885357
0.890491
0.900621
0.907515
0.911001
0.913137
0.914717
0.916179
0.912516
0.904811
0.902443
0.903931
0.906507
0.91204
0.924658
0.935028
0.94076
0.944557
0.947418
0.949538
0.943666
0.933134
0.93019
0.933575
0.939129
0.950324
0.966148
0.97823
0.989063
0.998262
1.00056
0.993427
0.97077
1.10331
1.55396
0.802203
0.806125
0.810744
0.814828
0.817988
0.820139
0.821417
0.821663
0.820227
0.818561
0.817903
0.818101
0.81898
0.820292
0.822025
0.826971
0.833362
0.836483
0.837883
0.838856
0.839773
0.840481
0.839632
0.838279
0.838336
0.838994
0.840116
0.841965
0.847464
0.853853
0.857039
0.858579
0.859692
0.860747
0.861539
0.859387
0.856061
0.855685
0.856793
0.858418
0.861745
0.868677
0.873636
0.875649
0.876502
0.876995
0.877603
0.87653
0.873382
0.872627
0.873509
0.874926
0.876673
0.881495
0.888468
0.892891
0.89563
0.897547
0.899155
0.900418
0.897787
0.893751
0.893351
0.894443
0.896026
0.899235
0.908604
0.917506
0.9222
0.924961
0.926992
0.928577
0.925959
0.9183
0.91499
0.916137
0.918834
0.923252
0.935593
0.948704
0.955487
0.959581
0.962979
0.965137
0.960984
0.951653
0.947672
0.950271
0.95672
0.965714
0.982063
0.997886
1.01018
1.0217
1.02729
1.02364
1.00177
1.12537
1.58737
0.810958
0.818476
0.823371
0.826186
0.827587
0.82843
0.828498
0.827941
0.828003
0.828391
0.828863
0.829612
0.830711
0.831994
0.833345
0.835767
0.841362
0.845217
0.847085
0.848503
0.849747
0.85085
0.850574
0.848456
0.848164
0.849108
0.850425
0.852515
0.858702
0.865624
0.868612
0.869875
0.870747
0.871617
0.871384
0.868479
0.866978
0.867815
0.86935
0.871072
0.874373
0.880256
0.884328
0.88647
0.8879
0.889043
0.89015
0.890441
0.887655
0.886109
0.886467
0.887709
0.889422
0.892726
0.900693
0.907564
0.911503
0.914012
0.915953
0.917721
0.916338
0.910809
0.908749
0.909818
0.911997
0.914881
0.922981
0.933665
0.939577
0.942824
0.945197
0.947155
0.946383
0.939456
0.935151
0.936164
0.939316
0.943255
0.952465
0.966627
0.975361
0.980275
0.984294
0.987513
0.986797
0.980012
0.97467
0.974366
0.98007
0.988344
1.00064
1.01678
1.03061
1.04342
1.05239
1.05358
1.03922
1.15796
1.6271
0.821991
0.831687
0.836132
0.837947
0.838426
0.837424
0.837214
0.838277
0.839972
0.841709
0.843412
0.84479
0.845788
0.84631
0.846362
0.846809
0.849711
0.855316
0.859117
0.861376
0.863041
0.864568
0.865496
0.863308
0.861459
0.861665
0.862769
0.864602
0.870393
0.877886
0.88127
0.882895
0.884261
0.885267
0.88446
0.882056
0.881312
0.882348
0.883818
0.885341
0.887589
0.8931
0.89826
0.901121
0.903123
0.90485
0.906413
0.907418
0.9051
0.90285
0.902834
0.904114
0.905992
0.908601
0.916071
0.925083
0.929926
0.932585
0.934658
0.936506
0.936382
0.930493
0.927071
0.928004
0.930455
0.933366
0.939482
0.950728
0.958453
0.962449
0.965255
0.967709
0.968818
0.963714
0.957192
0.956253
0.95931
0.963279
0.969319
0.982383
0.994708
1.00135
1.00568
1.00956
1.01116
1.00746
1.00133
0.998081
0.999356
1.00634
1.01564
1.02938
1.04392
1.05635
1.06596
1.06991
1.06073
1.18392
1.65872
0.834503
0.844288
0.847978
0.848913
0.847966
0.847939
0.849382
0.851961
0.854768
0.857137
0.859013
0.860849
0.860672
0.858233
0.857232
0.857642
0.859796
0.867342
0.873373
0.876322
0.87829
0.880187
0.881654
0.878974
0.874774
0.874365
0.875435
0.877172
0.882101
0.890213
0.894686
0.89671
0.89829
0.899623
0.89941
0.897607
0.896659
0.897135
0.898207
0.899465
0.90107
0.905585
0.912776
0.917036
0.919428
0.921334
0.923127
0.924722
0.923221
0.9198
0.919183
0.920372
0.92236
0.924853
0.931288
0.941632
0.94743
0.95014
0.952142
0.953884
0.954297
0.949486
0.944354
0.944197
0.946729
0.949708
0.954241
0.964421
0.97406
0.978677
0.981504
0.984071
0.986388
0.984953
0.977863
0.973806
0.97452
0.978064
0.982388
0.990878
1.00464
1.01463
1.02093
1.02563
1.02916
1.02841
1.02224
1.01708
1.01558
1.01802
1.02416
1.03279
1.04513
1.05714
1.06603
1.07136
1.06892
1.20559
1.67951
0.84689
0.852677
0.856067
0.857425
0.858082
0.859674
0.862767
0.865701
0.86829
0.870512
0.872577
0.872856
0.869708
0.867588
0.867747
0.868772
0.872384
0.88035
0.886561
0.889924
0.892276
0.89453
0.895222
0.890708
0.886472
0.886274
0.887336
0.888733
0.89206
0.899676
0.905527
0.908319
0.91016
0.911816
0.912842
0.911788
0.90938
0.908379
0.908928
0.910184
0.911819
0.9149
0.923259
0.930413
0.933757
0.935723
0.937448
0.939209
0.938637
0.933922
0.931437
0.932549
0.934804
0.937505
0.943139
0.953677
0.960285
0.962817
0.964464
0.965879
0.966839
0.964822
0.959221
0.956809
0.958375
0.961145
0.964339
0.971346
0.982104
0.988937
0.992588
0.995264
0.997875
0.999426
0.994997
0.988624
0.985911
0.987012
0.990415
0.994992
1.0054
1.01928
1.0288
1.0346
1.03917
1.04185
1.0392
1.03351
1.02924
1.02769
1.02949
1.03464
1.04284
1.05446
1.06405
1.06993
1.07144
1.22178
1.6923
0.857234
0.857353
0.859279
0.864179
0.868987
0.873071
0.876521
0.879003
0.880839
0.882602
0.881573
0.877124
0.875575
0.87633
0.877669
0.880076
0.886346
0.893565
0.897906
0.900934
0.903437
0.904653
0.902422
0.898303
0.896721
0.897061
0.898043
0.89925
0.901123
0.906853
0.913316
0.917043
0.919424
0.921284
0.922901
0.923312
0.920363
0.917164
0.916594
0.917876
0.919772
0.922326
0.929759
0.939668
0.944411
0.946479
0.94809
0.949643
0.950009
0.94573
0.941416
0.94143
0.943485
0.945858
0.94985
0.958891
0.9666
0.97002
0.971911
0.973753
0.975941
0.976809
0.972078
0.967472
0.96657
0.968108
0.970211
0.973455
0.982752
0.9935
0.999243
1.00264
1.0055
1.00818
1.00743
1.00084
0.99587
0.994291
0.995387
0.998413
1.00324
1.01505
1.02864
1.03775
1.04358
1.04828
1.05064
1.04794
1.04177
1.03679
1.03501
1.03659
1.0411
1.04914
1.05982
1.0678
1.07244
1.23385
1.70044
0.862018
0.861135
0.862558
0.868615
0.878862
0.885369
0.888169
0.889856
0.89154
0.890606
0.883362
0.879418
0.879933
0.881499
0.884207
0.889853
0.899182
0.904892
0.907558
0.909381
0.909858
0.907892
0.90521
0.903554
0.903437
0.904322
0.905667
0.907071
0.908708
0.913066
0.919193
0.922996
0.925424
0.927346
0.929014
0.930434
0.92935
0.924931
0.923025
0.923797
0.925546
0.92774
0.933428
0.944133
0.950633
0.953223
0.954898
0.956407
0.957591
0.955565
0.950408
0.948317
0.948955
0.950424
0.952334
0.957758
0.96767
0.973813
0.977024
0.97983
0.982516
0.984788
0.983491
0.976928
0.972747
0.971388
0.97225
0.974511
0.979949
0.992637
1.00266
1.00785
1.01131
1.01425
1.01633
1.01233
1.0049
1.00062
0.999381
1.00047
1.00348
1.00941
1.02231
1.03617
1.04555
1.05147
1.05563
1.05648
1.05395
1.04867
1.04334
1.04026
1.04059
1.0442
1.05237
1.06326
1.07193
1.24461
1.70649
0.865671
0.865747
0.866887
0.872542
0.885678
0.893136
0.895849
0.89798
0.898136
0.891325
0.884435
0.883328
0.884236
0.885555
0.888528
0.897633
0.907099
0.911544
0.913031
0.912787
0.910328
0.908955
0.908756
0.908192
0.908031
0.909039
0.910695
0.912272
0.913729
0.916858
0.922959
0.927106
0.929349
0.931268
0.933207
0.935029
0.935835
0.93208
0.928964
0.929134
0.930512
0.932224
0.935673
0.945248
0.95354
0.957188
0.959268
0.960998
0.962674
0.963232
0.958475
0.953807
0.952177
0.952263
0.953548
0.956115
0.964983
0.975689
0.981715
0.985473
0.988105
0.990203
0.991264
0.985407
0.976684
0.97292
0.973036
0.975374
0.978693
0.98803
1.0026
1.01123
1.01538
1.0185
1.02133
1.02178
1.01442
1.00685
1.00384
1.00406
1.00578
1.0088
1.01471
1.02737
1.04102
1.0502
1.05592
1.05996
1.06081
1.05922
1.05427
1.0476
1.04219
1.0411
1.04387
1.05435
1.06804
1.25517
1.71158
0.869709
0.871072
0.872169
0.87863
0.891747
0.89839
0.900976
0.90198
0.898058
0.891238
0.888118
0.887761
0.889028
0.891902
0.897098
0.903626
0.910128
0.912926
0.913186
0.911415
0.911099
0.912117
0.91303
0.912949
0.913265
0.914289
0.914905
0.915336
0.916114
0.917829
0.923813
0.929929
0.933085
0.935461
0.937565
0.939461
0.94103
0.939064
0.934693
0.933422
0.933895
0.935253
0.937341
0.944439
0.95468
0.960109
0.962626
0.964397
0.966007
0.967333
0.965733
0.958696
0.9545
0.953517
0.954648
0.956783
0.961842
0.974595
0.985136
0.989768
0.992122
0.993806
0.994904
0.991684
0.981985
0.976349
0.975734
0.977246
0.979641
0.983732
0.996159
1.01036
1.01721
1.02044
1.02313
1.02549
1.02503
1.01827
1.01173
1.00904
1.0087
1.00974
1.01276
1.01927
1.03211
1.04542
1.05454
1.06011
1.06378
1.06384
1.06221
1.05709
1.04827
1.04073
1.03884
1.04353
1.05922
1.26415
1.71546
0.873998
0.876127
0.877667
0.886541
0.896849
0.90106
0.902329
0.900587
0.896789
0.894412
0.89323
0.894311
0.897255
0.901236
0.90354
0.90497
0.906742
0.90969
0.911138
0.91193
0.914191
0.916449
0.918534
0.919825
0.919225
0.918076
0.916986
0.916117
0.916375
0.917782
0.923047
0.932258
0.93748
0.94014
0.942207
0.944082
0.945918
0.945276
0.93918
0.935416
0.935505
0.93706
0.939051
0.943753
0.954596
0.962349
0.965421
0.96699
0.968204
0.969493
0.970156
0.965356
0.958389
0.95639
0.957254
0.959194
0.961698
0.970547
0.984577
0.99121
0.993417
0.994865
0.996039
0.995905
0.990271
0.982983
0.980519
0.980747
0.981723
0.983652
0.98836
1.00211
1.01545
1.02172
1.02559
1.02914
1.03216
1.03064
1.02228
1.01474
1.01153
1.01174
1.01373
1.01722
1.02473
1.0378
1.04995
1.05776
1.06253
1.06534
1.06483
1.06299
1.05711
1.04606
1.03802
1.03793
1.04626
1.26795
1.71773
0.87752
0.880278
0.884378
0.893112
0.898958
0.900914
0.900889
0.89871
0.898721
0.899779
0.901234
0.902935
0.904976
0.90684
0.906057
0.902501
0.902206
0.90543
0.911406
0.916175
0.919563
0.92261
0.924748
0.926277
0.925449
0.921096
0.917085
0.915661
0.916352
0.918028
0.92266
0.93403
0.942206
0.945711
0.947438
0.948959
0.950493
0.949424
0.942508
0.937848
0.937921
0.9395
0.94144
0.944194
0.952429
0.962691
0.967172
0.968967
0.970273
0.971868
0.973553
0.972342
0.964846
0.960814
0.960694
0.9617
0.963364
0.966916
0.979539
0.990654
0.994163
0.995893
0.997867
1.00012
0.999432
0.991982
0.985747
0.983724
0.98362
0.984832
0.987115
0.992705
1.00739
1.02162
1.02861
1.03191
1.03465
1.03608
1.03356
1.02586
1.01876
1.01572
1.01601
1.01835
1.02242
1.03068
1.04349
1.05354
1.05934
1.06316
1.06527
1.06489
1.06302
1.05538
1.04345
1.03703
1.03469
1.26663
1.7188
0.880587
0.885113
0.890339
0.895625
0.898687
0.90011
0.900109
0.900666
0.902891
0.906507
0.909036
0.910323
0.910364
0.908644
0.902889
0.900423
0.900963
0.903117
0.911069
0.921257
0.926831
0.929337
0.930776
0.932071
0.931604
0.924226
0.917041
0.916003
0.917095
0.919
0.923256
0.935357
0.946491
0.950447
0.952185
0.952938
0.952017
0.950028
0.946231
0.941912
0.941226
0.942714
0.944928
0.946633
0.949601
0.959718
0.968192
0.971527
0.973382
0.975079
0.976744
0.977592
0.972035
0.965027
0.963051
0.963315
0.96476
0.966801
0.973147
0.986876
0.995491
0.999015
1.00171
1.00382
1.0054
1.00203
0.992893
0.987621
0.98686
0.987731
0.988982
0.991168
0.996644
1.01161
1.02544
1.03167
1.03494
1.03792
1.03953
1.03746
1.03058
1.02393
1.02083
1.02126
1.02343
1.02727
1.03599
1.04766
1.05565
1.06036
1.06393
1.06549
1.0654
1.06263
1.05222
1.03975
1.0299
1.2607
1.71942
0.884494
0.890226
0.893027
0.895556
0.897301
0.898681
0.900372
0.90443
0.909822
0.912949
0.914662
0.915666
0.913746
0.906013
0.901303
0.901214
0.902491
0.90447
0.911422
0.925134
0.932565
0.934989
0.936231
0.936736
0.934185
0.926037
0.919388
0.918484
0.919803
0.922487
0.928173
0.938057
0.948465
0.953014
0.95406
0.952771
0.95226
0.952945
0.95197
0.94843
0.946604
0.947023
0.947947
0.948704
0.950025
0.955006
0.966824
0.973984
0.976923
0.97846
0.979584
0.980574
0.978217
0.969754
0.965322
0.965325
0.966773
0.968684
0.971082
0.979206
0.99322
1.00099
1.00374
1.00507
1.0068
1.00849
1.00512
0.997453
0.993274
0.992006
0.991772
0.992374
0.994267
1.00011
1.01498
1.02892
1.03604
1.03989
1.04218
1.043
1.04207
1.0366
1.02975
1.02577
1.02536
1.02725
1.03126
1.03987
1.0506
1.05777
1.06228
1.06539
1.06618
1.06589
1.06034
1.04611
1.03021
1.25229
1.71983
0.889734
0.893831
0.894972
0.894151
0.894537
0.897179
0.902684
0.909898
0.914832
0.917257
0.918838
0.919945
0.915081
0.905721
0.903168
0.903805
0.905193
0.907342
0.915909
0.928951
0.935355
0.937595
0.938386
0.935723
0.932043
0.928734
0.924912
0.924234
0.926596
0.931241
0.934631
0.937929
0.945233
0.950759
0.95218
0.952569
0.953881
0.956397
0.958387
0.957776
0.953237
0.950582
0.949956
0.950102
0.951263
0.953402
0.962111
0.973922
0.978613
0.980119
0.981018
0.9819
0.982189
0.977654
0.971055
0.969464
0.970619
0.97196
0.972728
0.974717
0.983426
0.996851
1.00337
1.00681
1.01012
1.01294
1.01471
1.01037
1.00185
0.996847
0.995411
0.995639
0.996444
0.998163
1.00322
1.01698
1.03085
1.0387
1.04312
1.04593
1.04692
1.04639
1.04155
1.03439
1.02957
1.02835
1.02973
1.03377
1.04235
1.05279
1.05971
1.06409
1.06606
1.06632
1.06495
1.0536
1.03662
1.24364
1.7204
0.89538
0.897371
0.89492
0.892885
0.89351
0.896088
0.904602
0.913552
0.917629
0.919317
0.920539
0.92032
0.914657
0.908525
0.906354
0.907153
0.909095
0.913178
0.920623
0.930069
0.935339
0.936861
0.935331
0.933573
0.933922
0.933778
0.933694
0.934109
0.935986
0.938366
0.938327
0.937453
0.938693
0.945454
0.952122
0.955518
0.958152
0.961399
0.964334
0.965987
0.962962
0.955862
0.952361
0.95165
0.952339
0.953902
0.957682
0.969308
0.978363
0.980999
0.982233
0.983696
0.985826
0.986473
0.981338
0.976177
0.974699
0.974095
0.973845
0.974692
0.977027
0.986385
1.0006
1.00926
1.01325
1.01611
1.01891
1.02007
1.01548
1.00714
1.00185
0.999858
0.99926
0.999396
1.00099
1.0063
1.01962
1.03325
1.04137
1.04558
1.04823
1.04954
1.04951
1.04582
1.03821
1.03206
1.02981
1.0309
1.03501
1.04354
1.05394
1.06074
1.06466
1.06586
1.06613
1.05927
1.0466
1.23752
1.72148
0.901369
0.899112
0.893896
0.892608
0.893532
0.895996
0.905588
0.91566
0.919488
0.92105
0.922002
0.919934
0.915502
0.912416
0.911649
0.912688
0.915127
0.918176
0.92174
0.927026
0.931349
0.932787
0.932772
0.933451
0.935698
0.940754
0.944411
0.944747
0.942669
0.940528
0.937107
0.934901
0.935459
0.939463
0.950334
0.959325
0.964702
0.968081
0.969995
0.971403
0.970628
0.962902
0.955377
0.953437
0.95402
0.955332
0.957051
0.962087
0.973965
0.981699
0.984898
0.987544
0.989657
0.991794
0.99165
0.98503
0.97857
0.975989
0.975501
0.975677
0.976701
0.979061
0.989537
1.00565
1.01449
1.01841
1.02115
1.02399
1.02486
1.0202
1.01151
1.00521
1.00278
1.00302
1.00484
1.0069
1.01032
1.02051
1.03365
1.04229
1.04726
1.05043
1.05281
1.05359
1.04916
1.04015
1.03252
1.02998
1.03109
1.03518
1.0442
1.05477
1.06127
1.06428
1.06536
1.06225
1.055
1.23555
1.72306
0.905564
0.897124
0.892644
0.89278
0.893934
0.896936
0.907019
0.917358
0.921175
0.92278
0.923383
0.921196
0.918202
0.916678
0.916423
0.91726
0.919029
0.920759
0.921198
0.922098
0.926411
0.931628
0.934422
0.937307
0.942974
0.948406
0.951254
0.95251
0.948301
0.93925
0.933731
0.933033
0.934452
0.937287
0.946721
0.96216
0.97068
0.973432
0.974518
0.975015
0.974574
0.969331
0.959792
0.956142
0.956309
0.957378
0.958295
0.959949
0.96568
0.978331
0.986974
0.991005
0.993733
0.99594
0.997583
0.995461
0.98688
0.980661
0.978649
0.978636
0.979484
0.980807
0.983211
0.993023
1.00837
1.01759
1.02192
1.02472
1.02681
1.02874
1.02739
1.02001
1.01289
1.00952
1.00797
1.0073
1.00816
1.01142
1.0217
1.03591
1.04531
1.05083
1.05424
1.05591
1.05555
1.05055
1.04012
1.03193
1.02993
1.03143
1.03534
1.04503
1.05526
1.06106
1.06333
1.06319
1.0603
1.23837
1.72502
0.905183
0.894513
0.892438
0.893285
0.894768
0.898653
0.910018
0.920082
0.923805
0.925181
0.924868
0.922784
0.921122
0.919874
0.919318
0.919846
0.920909
0.920769
0.919924
0.920704
0.923255
0.93052
0.939041
0.945996
0.950222
0.952494
0.95442
0.95553
0.950823
0.938826
0.933816
0.934036
0.935409
0.937723
0.945283
0.962542
0.972902
0.975455
0.975977
0.974734
0.97304
0.97152
0.96702
0.961618
0.960033
0.959979
0.959889
0.960484
0.962474
0.969172
0.983087
0.991789
0.995144
0.996568
0.99797
1.00003
0.998576
0.991177
0.98589
0.984457
0.98476
0.984642
0.984317
0.985292
0.991838
1.00691
1.01856
1.02455
1.02971
1.03379
1.03613
1.03468
1.02608
1.01575
1.00974
1.00764
1.00778
1.00929
1.01339
1.02596
1.04099
1.04997
1.05465
1.05701
1.05735
1.05601
1.05061
1.03981
1.03253
1.03113
1.03186
1.03526
1.04552
1.05502
1.05969
1.0608
1.06383
1.24474
1.72731
0.900537
0.894129
0.893717
0.894875
0.897448
0.904929
0.915434
0.922208
0.925227
0.926096
0.924171
0.922004
0.921376
0.921387
0.921285
0.921589
0.922007
0.920867
0.919661
0.920821
0.922823
0.927988
0.941198
0.950698
0.954468
0.955828
0.955942
0.952877
0.946406
0.939867
0.936226
0.93637
0.939432
0.945337
0.951171
0.958943
0.968679
0.972421
0.972405
0.971007
0.971075
0.97241
0.97378
0.970858
0.965895
0.963342
0.962782
0.963247
0.963236
0.964194
0.970437
0.984753
0.993071
0.996711
1.00024
1.00378
1.00684
1.00589
0.998286
0.991572
0.988258
0.985723
0.983806
0.983895
0.985197
0.992138
1.01033
1.0256
1.03205
1.03542
1.03759
1.03866
1.037
1.02755
1.01657
1.01043
1.00875
1.00955
1.01193
1.01749
1.03168
1.04566
1.05299
1.05619
1.05732
1.05697
1.05667
1.05147
1.04117
1.03434
1.03201
1.03173
1.03463
1.04497
1.05373
1.05708
1.06503
1.25272
1.73002
0.896724
0.895751
0.896139
0.899936
0.907535
0.913313
0.916521
0.9202
0.921875
0.92139
0.919743
0.919733
0.921587
0.92388
0.926008
0.926837
0.925742
0.922962
0.921869
0.922812
0.924305
0.927126
0.93895
0.951623
0.955596
0.956501
0.954231
0.950224
0.94707
0.943576
0.942272
0.944133
0.948988
0.952996
0.954502
0.954791
0.956473
0.963081
0.967887
0.970013
0.972106
0.975105
0.978502
0.980387
0.976849
0.970151
0.96648
0.964501
0.962702
0.962474
0.963746
0.970423
0.985596
0.997314
1.00422
1.00873
1.01179
1.01347
1.01064
1.0009
0.991501
0.986901
0.985721
0.985763
0.986716
0.989741
0.997321
1.01409
1.02807
1.03443
1.03744
1.03784
1.03776
1.03609
1.02747
1.01805
1.01301
1.01175
1.01284
1.01508
1.02048
1.0345
1.04699
1.05352
1.05708
1.05805
1.05828
1.05829
1.05313
1.04325
1.03523
1.03133
1.03002
1.03296
1.0442
1.05155
1.06395
1.26149
1.73308
0.897913
0.899205
0.90385
0.912075
0.916796
0.917983
0.915191
0.911426
0.911359
0.914926
0.918451
0.921467
0.924597
0.929057
0.933354
0.935703
0.93333
0.927332
0.924629
0.924531
0.925537
0.926954
0.933421
0.94645
0.951622
0.952181
0.950909
0.950853
0.951068
0.951452
0.952376
0.953281
0.954472
0.955535
0.953793
0.948921
0.947332
0.950845
0.961094
0.96954
0.974921
0.980042
0.983924
0.986487
0.986611
0.979856
0.970272
0.963756
0.961297
0.961714
0.962927
0.964643
0.972611
0.992175
1.00518
1.00998
1.01255
1.01376
1.01355
1.01161
1.00319
0.99424
0.990366
0.989974
0.990873
0.993146
0.995336
0.99957
1.01357
1.02735
1.0337
1.03609
1.03723
1.03773
1.0366
1.03027
1.02158
1.01552
1.01349
1.0137
1.01603
1.0219
1.03586
1.04858
1.05585
1.05891
1.05914
1.05906
1.05863
1.05382
1.04432
1.035
1.02941
1.0272
1.03235
1.04308
1.05991
1.26945
1.73541
0.902968
0.910965
0.917216
0.920127
0.920868
0.916399
0.906641
0.901847
0.902297
0.908124
0.918631
0.927156
0.934631
0.939211
0.941759
0.94295
0.939394
0.930141
0.924966
0.924397
0.925307
0.92676
0.929574
0.938458
0.948092
0.951587
0.952841
0.954264
0.957242
0.960852
0.962588
0.961651
0.95906
0.954802
0.947794
0.9436
0.943694
0.945673
0.952015
0.966002
0.978563
0.98532
0.98852
0.990458
0.991582
0.988566
0.975798
0.965796
0.963314
0.963805
0.9653
0.968401
0.97303
0.980468
0.994283
1.00375
1.00803
1.01058
1.01236
1.01389
1.01455
1.00954
1.00089
0.996008
0.994718
0.994723
0.994553
0.99606
1.00058
1.01358
1.02786
1.03508
1.03762
1.0389
1.03934
1.03922
1.03286
1.02366
1.01719
1.0146
1.01462
1.01715
1.02264
1.03627
1.04971
1.0565
1.05811
1.05813
1.05858
1.05784
1.05489
1.04634
1.03526
1.02735
1.02509
1.03108
1.0527
1.276
1.73658
0.915879
0.925142
0.92796
0.927449
0.920396
0.906002
0.898153
0.897238
0.898553
0.902954
0.918374
0.938159
0.946251
0.948505
0.949135
0.94782
0.942188
0.930917
0.92502
0.924619
0.926035
0.928223
0.930112
0.932971
0.941737
0.951443
0.956609
0.960035
0.96426
0.966965
0.968246
0.967627
0.963356
0.952758
0.944075
0.941812
0.942627
0.944224
0.947049
0.959013
0.978689
0.98714
0.989814
0.991036
0.989698
0.986482
0.982127
0.974905
0.970828
0.971023
0.972649
0.974678
0.975538
0.975907
0.977925
0.988042
1.00092
1.00892
1.01372
1.01767
1.0204
1.02137
1.01629
1.00603
0.998659
0.995794
0.995833
0.997116
0.999193
1.00293
1.01439
1.02823
1.03538
1.03826
1.0394
1.03998
1.03984
1.03545
1.02683
1.01944
1.01665
1.01647
1.01819
1.02239
1.03518
1.04836
1.05466
1.05616
1.05677
1.058
1.05871
1.05773
1.04939
1.03468
1.02373
1.02094
1.04095
1.27978
1.73661
0.930168
0.933325
0.933628
0.930005
0.912681
0.898856
0.895953
0.896752
0.898688
0.904365
0.925174
0.94502
0.9507
0.95227
0.951936
0.946518
0.938556
0.931907
0.927421
0.926632
0.928502
0.93147
0.933541
0.934676
0.936105
0.943679
0.955335
0.963294
0.968057
0.970331
0.971184
0.970543
0.965525
0.95456
0.946202
0.944017
0.945098
0.947457
0.951404
0.957938
0.970658
0.981994
0.985613
0.985927
0.984659
0.984851
0.987135
0.988631
0.986008
0.981928
0.979725
0.978148
0.975342
0.972203
0.971936
0.974202
0.985848
1.00458
1.01607
1.0209
1.02389
1.02536
1.02527
1.02054
1.00976
1.00189
0.999387
0.999703
1.00052
1.00147
1.00449
1.01466
1.02805
1.03538
1.03868
1.04087
1.04235
1.04232
1.0385
1.02915
1.02123
1.01779
1.01696
1.01741
1.02021
1.03234
1.04632
1.05304
1.05522
1.0567
1.05964
1.06129
1.06094
1.05109
1.03191
1.01709
1.02342
1.27874
1.73526
0.938933
0.940203
0.935044
0.919778
0.904813
0.898795
0.897833
0.898839
0.904949
0.919129
0.933652
0.944982
0.950686
0.951605
0.945817
0.938526
0.936249
0.93597
0.935151
0.934662
0.935559
0.937011
0.937009
0.936264
0.936209
0.937345
0.945632
0.959893
0.966461
0.968113
0.968662
0.968652
0.967297
0.961323
0.953886
0.951223
0.952267
0.954422
0.957048
0.95915
0.961411
0.96706
0.974745
0.979751
0.982937
0.987487
0.99367
0.998706
1.00043
0.996684
0.988136
0.979627
0.973237
0.970264
0.97028
0.971455
0.975369
0.990365
1.01052
1.02067
1.02498
1.02613
1.02584
1.02613
1.02383
1.01473
1.0068
1.00309
1.0017
1.00136
1.00169
1.00483
1.01553
1.02923
1.03732
1.04132
1.04314
1.04378
1.04355
1.03941
1.03032
1.02203
1.0171
1.01541
1.01561
1.01767
1.03018
1.04524
1.05257
1.05507
1.05783
1.06137
1.06293
1.06184
1.04899
1.02509
1.01298
1.2703
1.73291
0.94024
0.940253
0.925843
0.911237
0.904602
0.902236
0.902999
0.91114
0.925061
0.93254
0.934792
0.937019
0.938127
0.937528
0.935699
0.934981
0.93643
0.941258
0.946606
0.948581
0.946108
0.942008
0.938723
0.935925
0.934829
0.935391
0.937599
0.948971
0.962609
0.96743
0.969243
0.970749
0.970718
0.968835
0.965216
0.96082
0.958824
0.959192
0.95979
0.959152
0.956594
0.956546
0.96056
0.970294
0.982031
0.993426
1.00192
1.00624
1.00892
1.00829
0.998937
0.984276
0.975039
0.971871
0.971762
0.97342
0.978421
0.984125
0.994356
1.01069
1.02079
1.0246
1.02605
1.02756
1.02869
1.02791
1.01929
1.00955
1.00398
1.00189
1.00167
1.00283
1.00623
1.01745
1.03166
1.03961
1.0426
1.04349
1.0436
1.04341
1.03999
1.03261
1.02342
1.01689
1.01386
1.01345
1.01588
1.0291
1.04475
1.05197
1.05519
1.05932
1.06204
1.06327
1.05951
1.03931
1.01723
1.25855
1.73114
0.937007
0.926608
0.913665
0.909204
0.908409
0.909813
0.918904
0.930257
0.935134
0.936398
0.933092
0.923759
0.920448
0.923937
0.930711
0.936372
0.942785
0.950834
0.95658
0.958958
0.957068
0.947984
0.938049
0.93352
0.933284
0.934415
0.936133
0.939825
0.954153
0.96684
0.970901
0.972408
0.973954
0.975025
0.974448
0.97094
0.96647
0.963554
0.960728
0.956769
0.953607
0.953348
0.954297
0.958809
0.976831
0.996034
1.00434
1.00815
1.01083
1.01071
1.0064
0.996078
0.984146
0.978143
0.977157
0.978885
0.981888
0.983579
0.985497
0.99209
1.00808
1.02117
1.02695
1.02862
1.02856
1.02873
1.02874
1.02298
1.01312
1.00601
1.00328
1.00277
1.00395
1.00799
1.02026
1.03446
1.04105
1.04318
1.04382
1.04435
1.04425
1.04248
1.03604
1.02518
1.0166
1.01283
1.01189
1.01486
1.02863
1.04461
1.05181
1.05622
1.05968
1.06213
1.06233
1.05033
1.03391
1.25018
1.73095
0.92093
0.914814
0.912603
0.912361
0.91564
0.92764
0.937805
0.941786
0.941519
0.935122
0.92017
0.911668
0.910633
0.913308
0.923515
0.940331
0.954807
0.962016
0.964846
0.965329
0.963687
0.953898
0.93931
0.934659
0.934893
0.936113
0.938261
0.941478
0.946329
0.957924
0.967978
0.972296
0.974951
0.976658
0.978206
0.979388
0.977427
0.971701
0.96434
0.958028
0.955135
0.955112
0.955966
0.959432
0.970112
0.988543
1.00147
1.00695
1.00857
1.00606
1.00486
1.00524
1.00114
0.992451
0.986815
0.984842
0.984245
0.983402
0.982905
0.984181
0.989377
1.00528
1.02056
1.02647
1.02845
1.03058
1.03228
1.03228
1.02615
1.01467
1.00613
1.00378
1.00471
1.00689
1.01074
1.02231
1.03519
1.04197
1.04448
1.04537
1.04655
1.04667
1.04552
1.03942
1.02632
1.01617
1.0118
1.01134
1.01479
1.02852
1.04432
1.05182
1.05642
1.05948
1.0621
1.05693
1.04639
1.2496
1.73268
0.906196
0.909957
0.914506
0.92267
0.936263
0.943651
0.946112
0.946563
0.94169
0.924455
0.912239
0.909514
0.91007
0.911417
0.917718
0.942849
0.961992
0.966589
0.968194
0.966582
0.960159
0.952691
0.944884
0.939773
0.940001
0.943015
0.94705
0.949075
0.948343
0.948092
0.953234
0.963745
0.971295
0.976607
0.981464
0.985073
0.987021
0.984628
0.973891
0.963588
0.960602
0.961106
0.963283
0.968436
0.972339
0.976078
0.984898
0.995559
1.00194
1.00509
1.00797
1.01056
1.01194
1.01036
1.00175
0.992404
0.986549
0.98356
0.982254
0.981859
0.983096
0.987771
1.00408
1.02198
1.03016
1.03254
1.03353
1.03424
1.0333
1.0261
1.01407
1.00794
1.0071
1.00826
1.00983
1.01239
1.02294
1.03625
1.04302
1.04507
1.04627
1.0481
1.04877
1.04851
1.04281
1.02836
1.01736
1.0128
1.01268
1.01489
1.02779
1.04313
1.0514
1.05577
1.05925
1.05923
1.05568
1.25568
1.7358
0.897663
0.904983
0.920537
0.942264
0.951508
0.953379
0.951794
0.944357
0.929206
0.9148
0.909895
0.909947
0.910928
0.915487
0.930167
0.94875
0.96116
0.966024
0.965852
0.95833
0.953092
0.952917
0.953314
0.952752
0.95182
0.952551
0.953594
0.951695
0.945997
0.941306
0.941105
0.947114
0.96283
0.976784
0.985091
0.989997
0.99276
0.993247
0.986717
0.974934
0.968691
0.967847
0.968712
0.971032
0.972207
0.970692
0.97127
0.977787
0.992845
1.00603
1.01234
1.01634
1.0187
1.01959
1.01757
1.00707
0.994457
0.98628
0.982632
0.981918
0.98298
0.985328
0.989808
1.0066
1.02512
1.03167
1.03236
1.03187
1.03037
1.02958
1.02633
1.019
1.01424
1.0125
1.01279
1.01396
1.01549
1.02309
1.03523
1.04215
1.04509
1.04759
1.05074
1.05237
1.05231
1.04608
1.0313
1.02014
1.01521
1.01384
1.01435
1.02599
1.04075
1.04975
1.05403
1.05603
1.06283
1.26747
1.73975
0.895176
0.904214
0.932117
0.950393
0.955093
0.956998
0.955639
0.940784
0.921329
0.913347
0.911194
0.91187
0.919347
0.93301
0.941744
0.946518
0.951549
0.953466
0.951888
0.950782
0.951548
0.954691
0.962315
0.968142
0.968185
0.963561
0.956908
0.947688
0.939405
0.936422
0.936773
0.938292
0.94844
0.973719
0.98776
0.992279
0.994627
0.994819
0.992829
0.987491
0.980253
0.975317
0.97273
0.971146
0.968889
0.966372
0.966197
0.968009
0.975851
0.996047
1.01206
1.01867
1.02113
1.02141
1.02106
1.01855
1.00726
0.993295
0.986058
0.984555
0.985743
0.988959
0.992338
0.995535
1.00803
1.0232
1.02825
1.02913
1.03057
1.03263
1.0348
1.03365
1.02756
1.02089
1.01672
1.01462
1.01406
1.01442
1.02113
1.03402
1.04252
1.04721
1.05161
1.05488
1.05522
1.05507
1.04829
1.0334
1.02201
1.01651
1.0137
1.01244
1.02155
1.03668
1.0468
1.05099
1.06685
1.28153
1.74424
0.900421
0.919426
0.936858
0.94951
0.954212
0.953117
0.94266
0.930231
0.921673
0.917245
0.917977
0.926717
0.937973
0.942451
0.94315
0.940952
0.934768
0.933707
0.937927
0.94508
0.953516
0.964651
0.973754
0.977768
0.978207
0.973107
0.958023
0.94222
0.935744
0.935238
0.936208
0.938762
0.947644
0.964857
0.983004
0.990746
0.993712
0.993201
0.991164
0.991709
0.992
0.988236
0.9815
0.974831
0.970055
0.967776
0.967195
0.968255
0.971004
0.98
1.00104
1.016
1.02071
1.02134
1.01877
1.01633
1.01368
1.00642
0.997822
0.993377
0.992492
0.993253
0.993072
0.992163
0.993692
1.00425
1.01917
1.02728
1.03225
1.03677
1.04033
1.04217
1.04028
1.0319
1.02116
1.01468
1.01261
1.01253
1.01329
1.02119
1.03506
1.04471
1.05009
1.05407
1.05538
1.0558
1.05519
1.04815
1.03555
1.02421
1.01578
1.00998
1.00741
1.01524
1.03405
1.04457
1.06796
1.29555
1.74876
0.916109
0.926807
0.932771
0.938308
0.938865
0.934029
0.92946
0.928491
0.928386
0.930525
0.937773
0.944388
0.947071
0.946597
0.938867
0.926753
0.921674
0.922493
0.926603
0.937395
0.957715
0.974692
0.981244
0.983858
0.983711
0.977947
0.959932
0.943276
0.937352
0.937234
0.939625
0.949294
0.959676
0.964437
0.968486
0.975819
0.982246
0.986424
0.990428
0.995386
0.997999
0.999145
0.99621
0.986516
0.976782
0.971735
0.970238
0.970578
0.973311
0.97683
0.983399
1.00035
1.01312
1.01632