/*--------------------------------*- C++ -*----------------------------------*\
  =========                 |
  \\      /  F ield         | OpenFOAM: The Open Source CFD Toolbox
   \\    /   O peration     | Website:  https://openfoam.org
    \\  /    A nd           | Version:  12
     \\/     M anipulation  |
\*---------------------------------------------------------------------------*/
FoamFile
{
    format      ascii;
    class       volScalarField;
    location    "23.8";
    object      T;
}
// * * * * * * * * * * * * * * * * * * * * * * * * * * * * * * * * * * * * * //

dimensions      [0 0 0 1 0 0 0];

internalField   nonuniform List<scalar> 
9801
(
0.797483
0.799459
0.804033
0.811934
0.815917
0.817783
0.8189
0.819322
0.817571
0.813722
0.812635
0.813281
0.814579
0.81644
0.819533
0.825478
0.83148
0.834638
0.836328
0.837323
0.837856
0.836903
0.833951
0.832918
0.833406
0.83438
0.835661
0.838143
0.843575
0.848551
0.851162
0.852759
0.853968
0.85508
0.855236
0.852339
0.850792
0.851171
0.8521
0.853503
0.856968
0.863581
0.868106
0.870415
0.871872
0.873129
0.874257
0.872473
0.86859
0.86786
0.868749
0.870186
0.873023
0.880161
0.886506
0.889566
0.891409
0.892688
0.893819
0.892831
0.887594
0.88562
0.886713
0.888527
0.891667
0.900031
0.907929
0.911785
0.9141
0.915769
0.917174
0.915849
0.908426
0.905351
0.906577
0.908972
0.914484
0.925662
0.934416
0.939121
0.942079
0.944168
0.945669
0.940273
0.930592
0.92868
0.932008
0.937875
0.952418
0.968279
0.978037
0.986215
0.99323
0.994974
0.988006
0.978106
0.97164
1.1425
1.54489
0.802367
0.805223
0.810464
0.816418
0.819311
0.820515
0.820956
0.820475
0.819472
0.818414
0.818204
0.818937
0.820166
0.821451
0.82364
0.828783
0.834201
0.837135
0.838709
0.839661
0.840314
0.840616
0.838766
0.83727
0.837391
0.837938
0.838829
0.840593
0.846119
0.851667
0.854578
0.856314
0.857604
0.858723
0.859022
0.856232
0.85427
0.854476
0.855315
0.856571
0.860081
0.867163
0.871924
0.874243
0.875697
0.876888
0.87783
0.8759
0.872051
0.871282
0.872106
0.873433
0.876035
0.883246
0.889935
0.893236
0.895164
0.896517
0.897692
0.896619
0.891455
0.889403
0.890312
0.891991
0.894736
0.902727
0.911301
0.915763
0.918303
0.920075
0.921498
0.920051
0.913083
0.909895
0.911053
0.913373
0.917564
0.928126
0.937906
0.943344
0.946994
0.949785
0.952026
0.947376
0.937452
0.934782
0.937963
0.943209
0.954383
0.969559
0.980051
0.988829
0.997022
1.00052
0.995045
0.982989
0.965652
1.13344
1.56633
0.809759
0.814406
0.818489
0.82093
0.822225
0.822698
0.823101
0.824011
0.824883
0.825524
0.826149
0.826735
0.827613
0.828569
0.829625
0.832411
0.837293
0.840813
0.842954
0.844416
0.845531
0.846633
0.846281
0.843539
0.842345
0.842699
0.84352
0.844989
0.850497
0.857164
0.860642
0.862533
0.863909
0.865073
0.865317
0.862262
0.860052
0.860361
0.861403
0.862847
0.866623
0.873859
0.878588
0.880817
0.882234
0.88341
0.884313
0.882402
0.878771
0.878132
0.879129
0.880614
0.883068
0.889986
0.897037
0.90056
0.902596
0.904118
0.905495
0.904717
0.899929
0.897824
0.898763
0.900544
0.902896
0.910066
0.919747
0.924884
0.92755
0.929459
0.93098
0.930368
0.924516
0.92097
0.921746
0.924366
0.927972
0.937815
0.950044
0.956573
0.960367
0.963519
0.965969
0.963298
0.954558
0.950636
0.953105
0.958918
0.967475
0.983688
0.998498
1.00869
1.01842
1.02491
1.02276
1.01312
0.993989
1.15012
1.59825
0.81906
0.823525
0.825953
0.826953
0.827691
0.829054
0.831014
0.832599
0.834011
0.835309
0.836047
0.836114
0.835843
0.835829
0.836464
0.838479
0.84427
0.84902
0.851775
0.85363
0.854992
0.856075
0.854798
0.850884
0.850128
0.851112
0.852531
0.854673
0.860397
0.867644
0.871259
0.873008
0.874232
0.875116
0.874884
0.871897
0.870231
0.870954
0.87236
0.874024
0.877685
0.884528
0.889253
0.89157
0.893149
0.894524
0.895659
0.894304
0.890948
0.890332
0.891485
0.893157
0.895343
0.901527
0.909361
0.913457
0.915721
0.917507
0.919245
0.919204
0.914981
0.912513
0.913368
0.915345
0.917638
0.923078
0.933233
0.939706
0.943102
0.945619
0.947907
0.948964
0.944193
0.939141
0.93933
0.942263
0.945821
0.952922
0.966041
0.974913
0.979625
0.983417
0.987081
0.987731
0.981129
0.974965
0.974639
0.980139
0.987738
0.999945
1.01606
1.02862
1.0396
1.04929
1.05094
1.04582
1.02822
1.16963
1.63399
0.828554
0.831309
0.832804
0.834931
0.837414
0.840255
0.842617
0.844397
0.845964
0.847524
0.847262
0.845112
0.844361
0.84502
0.846331
0.849843
0.856501
0.860819
0.863079
0.864565
0.865684
0.865966
0.863715
0.861814
0.862169
0.86348
0.865188
0.867705
0.873113
0.879497
0.882896
0.884621
0.885767
0.886755
0.887074
0.885157
0.883814
0.884426
0.885713
0.887202
0.889702
0.896103
0.901934
0.904928
0.906891
0.908584
0.910127
0.909719
0.906362
0.905115
0.905962
0.907556
0.909495
0.91418
0.922901
0.928503
0.931402
0.933571
0.935676
0.936682
0.933197
0.929426
0.929434
0.931277
0.93364
0.937563
0.947385
0.956153
0.960744
0.963859
0.966648
0.968925
0.966317
0.959419
0.956977
0.95934
0.962962
0.968113
0.980107
0.992968
0.999774
1.00392
1.00799
1.01056
1.0072
1.00011
0.996316
0.997586
1.00422
1.01327
1.0275
1.04201
1.05359
1.06378
1.0686
1.06753
1.04985
1.18597
1.66167
0.836325
0.837969
0.84094
0.846817
0.851424
0.854301
0.856242
0.857811
0.859324
0.859592
0.856274
0.854433
0.855083
0.856539
0.858604
0.863804
0.870506
0.873778
0.875355
0.876404
0.877114
0.876812
0.875541
0.875431
0.87633
0.877629
0.879093
0.880799
0.885009
0.890899
0.894587
0.896785
0.89844
0.899925
0.901101
0.900099
0.898307
0.898176
0.899007
0.900288
0.902056
0.907421
0.914963
0.919126
0.921474
0.923366
0.925118
0.925665
0.922219
0.919617
0.919882
0.921398
0.923334
0.92681
0.935586
0.943087
0.946835
0.949291
0.951499
0.953189
0.951107
0.945423
0.943446
0.945047
0.947573
0.950975
0.959487
0.970224
0.975962
0.979135
0.981883
0.984546
0.984707
0.978077
0.972609
0.972329
0.975791
0.980148
0.98828
1.00231
1.01269
1.01888
1.02342
1.02712
1.02663
1.01992
1.01424
1.01272
1.01532
1.02154
1.03043
1.04313
1.05478
1.06432
1.0708
1.07304
1.06403
1.1995
1.67964
0.843744
0.846139
0.849615
0.858421
0.865215
0.868209
0.869888
0.87126
0.871894
0.869158
0.865183
0.86478
0.866017
0.867773
0.870522
0.876259
0.882298
0.885003
0.88634
0.88739
0.888484
0.888947
0.888103
0.888043
0.888903
0.889891
0.890962
0.892335
0.895147
0.901047
0.905483
0.90825
0.910448
0.912265
0.913846
0.913594
0.910626
0.90935
0.909901
0.911214
0.912884
0.916943
0.925349
0.93102
0.933873
0.935873
0.937636
0.938725
0.935766
0.931145
0.930519
0.932039
0.934145
0.937237
0.945088
0.953853
0.958384
0.960977
0.96309
0.964936
0.964875
0.959316
0.955049
0.955208
0.957709
0.960744
0.966864
0.978083
0.985995
0.98977
0.992321
0.994776
0.996406
0.992889
0.985631
0.982762
0.984208
0.987763
0.99242
1.00286
1.01716
1.02648
1.03186
1.03613
1.03883
1.03615
1.02989
1.02569
1.02463
1.02676
1.03209
1.04064
1.05219
1.06213
1.06894
1.07238
1.06935
1.21171
1.691
0.851684
0.854068
0.856697
0.866802
0.875968
0.879214
0.880869
0.881936
0.881185
0.877484
0.874227
0.873814
0.874913
0.876457
0.878817
0.884018
0.890484
0.894083
0.895652
0.896994
0.898383
0.899704
0.899617
0.898469
0.898319
0.898803
0.89965
0.90088
0.902939
0.908886
0.91469
0.917805
0.919925
0.921749
0.923364
0.923731
0.920012
0.917449
0.917918
0.919477
0.921475
0.925114
0.933282
0.939862
0.942956
0.944881
0.946476
0.947683
0.946072
0.940926
0.938691
0.939752
0.941876
0.944646
0.951127
0.960568
0.966082
0.968695
0.970681
0.972582
0.974059
0.971024
0.965157
0.963529
0.965073
0.967425
0.97061
0.979421
0.990469
0.996286
0.999323
1.00188
1.00437
1.00435
0.998183
0.99276
0.991117
0.9924
0.995572
1.0005
1.01265
1.02645
1.03507
1.04052
1.04499
1.04749
1.04434
1.03762
1.03293
1.03169
1.03394
1.03881
1.04718
1.05798
1.06616
1.07074
1.07216
1.22261
1.69839
0.86011
0.862477
0.864495
0.873223
0.882599
0.886256
0.887926
0.888502
0.887741
0.885592
0.883201
0.882367
0.882756
0.883536
0.884642
0.886968
0.893742
0.900439
0.903902
0.905747
0.907165
0.908586
0.90902
0.907138
0.905196
0.904783
0.90547
0.90674
0.908514
0.91405
0.92148
0.925228
0.927106
0.928602
0.929958
0.930394
0.927489
0.924124
0.923903
0.925359
0.927284
0.930687
0.938373
0.945572
0.948869
0.950622
0.952005
0.953208
0.953172
0.949104
0.945773
0.945978
0.947668
0.949674
0.953631
0.962812
0.970076
0.973445
0.975654
0.977832
0.979959
0.980314
0.975076
0.970865
0.969774
0.97077
0.972898
0.977463
0.989353
0.999863
1.00529
1.00865
1.01133
1.01343
1.01027
1.00213
0.997122
0.995787
0.997132
1.0005
1.00677
1.0204
1.03447
1.0434
1.04873
1.0524
1.05319
1.04984
1.04367
1.03861
1.03694
1.03881
1.0433
1.05202
1.06243
1.06921
1.07345
1.23179
1.70407
0.867621
0.869898
0.871601
0.878805
0.886294
0.890045
0.891879
0.892919
0.893564
0.893081
0.890946
0.889431
0.888821
0.888781
0.889481
0.890636
0.89424
0.903265
0.909752
0.912593
0.914211
0.915477
0.916114
0.91394
0.910456
0.908873
0.909373
0.91069
0.912577
0.917486
0.925625
0.930164
0.932128
0.933535
0.93474
0.935554
0.933837
0.930161
0.92933
0.93041
0.93197
0.934086
0.94023
0.948147
0.95227
0.954334
0.955993
0.957644
0.959057
0.957046
0.952802
0.951167
0.951406
0.952703
0.954771
0.961252
0.971293
0.977234
0.980514
0.98302
0.985231
0.986994
0.983895
0.976467
0.972532
0.972178
0.974168
0.977191
0.98556
1.00044
1.00995
1.01416
1.01718
1.01966
1.01971
1.01191
1.00318
0.999994
1.0005
1.00286
1.00648
1.01272
1.02623
1.03979
1.04811
1.05304
1.05645
1.05694
1.05429
1.04869
1.04327
1.04083
1.04176
1.04556
1.05537
1.06549
1.07296
1.24075
1.70903
0.873876
0.875862
0.877428
0.882793
0.888017
0.891645
0.894272
0.89617
0.897583
0.898637
0.897859
0.894719
0.89286
0.892942
0.893938
0.895161
0.897016
0.903916
0.912768
0.916787
0.918568
0.919681
0.920382
0.919704
0.915406
0.912862
0.913018
0.914064
0.915536
0.919231
0.92719
0.93292
0.935476
0.937196
0.938802
0.940241
0.939847
0.93662
0.934735
0.934654
0.935287
0.936538
0.939624
0.947867
0.954404
0.957781
0.960054
0.961958
0.963694
0.96397
0.959174
0.954599
0.953274
0.954182
0.956034
0.959636
0.970021
0.980019
0.98495
0.987789
0.989956
0.991486
0.990537
0.982431
0.975872
0.974686
0.975894
0.978261
0.982766
0.994648
1.00917
1.01651
1.01983
1.02133
1.02246
1.02196
1.01489
1.00827
1.00607
1.00603
1.00759
1.01107
1.01744
1.03076
1.04361
1.05172
1.05647
1.05966
1.05968
1.05767
1.05262
1.04647
1.04257
1.0425
1.04622
1.05776
1.06937
1.2494
1.71312
0.877968
0.880013
0.881883
0.885961
0.890089
0.893633
0.896393
0.898616
0.900251
0.901394
0.901761
0.899179
0.896708
0.896897
0.89796
0.89926
0.900752
0.905589
0.913724
0.918253
0.920416
0.921846
0.923053
0.923713
0.920751
0.916982
0.916613
0.917289
0.918314
0.920196
0.926767
0.934388
0.938388
0.940697
0.942474
0.944067
0.945162
0.942859
0.938668
0.936775
0.936847
0.937991
0.939857
0.946277
0.955811
0.96118
0.963991
0.965911
0.967574
0.968747
0.965485
0.958376
0.955726
0.956161
0.957727
0.960046
0.966937
0.979829
0.987512
0.990524
0.992276
0.993074
0.99325
0.990075
0.982524
0.979372
0.980089
0.982165
0.984126
0.987827
0.999745
1.013
1.01913
1.02242
1.02565
1.02846
1.02794
1.01986
1.0126
1.00966
1.00959
1.01138
1.01495
1.0219
1.03511
1.04693
1.05435
1.05895
1.06186
1.06161
1.0597
1.05465
1.04731
1.04212
1.04139
1.04753
1.06254
1.25674
1.7162
0.88024
0.882283
0.884013
0.888556
0.893337
0.896396
0.898799
0.900691
0.901999
0.903055
0.90401
0.90277
0.900591
0.900834
0.901808
0.902904
0.9043
0.908042
0.914708
0.918939
0.92145
0.923497
0.925229
0.926672
0.92577
0.921511
0.919788
0.920011
0.920856
0.922103
0.926067
0.935027
0.941155
0.944116
0.945975
0.947559
0.948904
0.948329
0.942757
0.938922
0.938562
0.939651
0.941284
0.944879
0.954857
0.963095
0.96654
0.968442
0.969775
0.970724
0.970221
0.964657
0.95992
0.959612
0.961072
0.962934
0.965581
0.974982
0.986077
0.990679
0.992762
0.994543
0.996823
0.997936
0.993162
0.986537
0.984435
0.984511
0.985126
0.98691
0.990674
1.00306
1.01767
1.0254
1.02906
1.03192
1.03408
1.03231
1.02417
1.01664
1.01322
1.01309
1.01522
1.019
1.02723
1.04041
1.05041
1.05626
1.06006
1.06253
1.06231
1.0608
1.05537
1.04644
1.04043
1.0409
1.05316
1.26068
1.71815
0.882191
0.884435
0.88609
0.890189
0.895778
0.899365
0.901136
0.902216
0.90358
0.905341
0.906736
0.906398
0.904731
0.904699
0.905025
0.905644
0.90644
0.90885
0.915424
0.920569
0.923547
0.925776
0.927615
0.929228
0.929574
0.925491
0.922272
0.922191
0.923246
0.924565
0.926883
0.934774
0.942988
0.946654
0.948544
0.949825
0.950725
0.950955
0.947946
0.942742
0.941463
0.942313
0.943738
0.945364
0.951538
0.962088
0.967208
0.969344
0.971116
0.973136
0.974755
0.973277
0.967606
0.964807
0.96472
0.965271
0.966455
0.96907
0.979138
0.989831
0.994971
0.998403
1.00097
1.0032
1.00344
0.996927
0.989801
0.986876
0.986356
0.986735
0.98883
0.99359
1.00771
1.02301
1.03038
1.03362
1.03612
1.03819
1.03605
1.02772
1.02055
1.0176
1.0179
1.02015
1.02411
1.03261
1.04449
1.0527
1.05737
1.06063
1.063
1.06328
1.06205
1.05558
1.04491
1.03868
1.04147
1.2604
1.7192
0.885319
0.888116
0.889462
0.890793
0.895354
0.900002
0.902203
0.903953
0.906192
0.90815
0.909826
0.910849
0.909069
0.907077
0.906476
0.906651
0.907316
0.909122
0.916096
0.923223
0.926528
0.928462
0.930209
0.931685
0.931919
0.928671
0.924947
0.924772
0.926002
0.927622
0.929337
0.933911
0.942543
0.947284
0.949263
0.950727
0.952251
0.95389
0.953856
0.949398
0.946017
0.945593
0.945799
0.946622
0.948683
0.957305
0.967008
0.971389
0.974236
0.976646
0.978822
0.980395
0.977414
0.970845
0.967443
0.966156
0.966266
0.967771
0.97182
0.984438
0.99667
1.00224
1.00528
1.00764
1.0094
1.00825
0.999697
0.99151
0.988156
0.987864
0.989279
0.992161
0.997655
1.01197
1.02698
1.03423
1.03738
1.03933
1.04056
1.0391
1.03317
1.02672
1.0232
1.02262
1.02398
1.02724
1.03583
1.04755
1.05494
1.05874
1.06182
1.06441
1.06499
1.0631
1.05441
1.04183
1.03346
1.25611
1.71942
0.890045
0.891778
0.891042
0.890747
0.892233
0.898295
0.903773
0.907248
0.909922
0.91209
0.913857
0.915236
0.913283
0.908117
0.90623
0.906821
0.908097
0.91
0.916424
0.925257
0.929463
0.931413
0.932719
0.933525
0.933787
0.932479
0.929322
0.928639
0.929549
0.930373
0.931417
0.932874
0.939039
0.946718
0.95028
0.952648
0.954862
0.956812
0.958502
0.956958
0.95105
0.947469
0.946413
0.947082
0.948495
0.952672
0.964176
0.973745
0.978422
0.981342
0.983252
0.985097
0.985201
0.978298
0.970567
0.967399
0.966949
0.967946
0.970115
0.976454
0.991972
1.00356
1.00841
1.011
1.01297
1.01397
1.01092
1.00065
0.993336
0.991695
0.99321
0.99574
0.9976
1.001
1.01265
1.02752
1.03525
1.03907
1.04215
1.04445
1.04421
1.03859
1.03077
1.02558
1.02418
1.02564
1.02896
1.03886
1.05057
1.0571
1.06037
1.06355
1.06586
1.06594
1.06239
1.0491
1.03289
1.24841
1.71922
0.894897
0.89272
0.889988
0.889518
0.890516
0.895292
0.905342
0.911838
0.914879
0.916659
0.918136
0.918912
0.915303
0.908798
0.907501
0.908244
0.909536
0.911301
0.916097
0.925329
0.930833
0.932851
0.934051
0.93526
0.936818
0.93746
0.935466
0.933028
0.932098
0.931853
0.931902
0.932602
0.935398
0.944553
0.952179
0.95586
0.95813
0.960042
0.962022
0.962566
0.956475
0.949609
0.94798
0.948496
0.949664
0.951618
0.959315
0.973334
0.981176
0.984311
0.986677
0.988321
0.988513
0.985844
0.977197
0.970795
0.969174
0.969735
0.971312
0.974293
0.981894
0.997498
1.00785
1.0119
1.01312
1.01373
1.01552
1.01443
1.00584
0.999631
0.998007
0.997592
0.997221
0.998738
1.00261
1.01429
1.02968
1.0391
1.04355
1.04601
1.04702
1.04588
1.04052
1.03211
1.02657
1.02541
1.02692
1.03092
1.04144
1.05251
1.05817
1.06131
1.06487
1.06634
1.06588
1.05722
1.04037
1.2407
1.71916
0.89872
0.890607
0.888188
0.888545
0.889709
0.893407
0.905675
0.915176
0.918529
0.920483
0.921783
0.920735
0.915449
0.91115
0.910095
0.910935
0.912475
0.91459
0.916889
0.922554
0.93015
0.933928
0.935948
0.937843
0.939841
0.941557
0.942126
0.938774
0.934465
0.932129
0.931779
0.932668
0.934406
0.941154
0.952599
0.95847
0.961059
0.962973
0.964246
0.96424
0.961529
0.954622
0.950981
0.951337
0.952758
0.954834
0.957653
0.967257
0.979574
0.985007
0.987473
0.988137
0.988852
0.98995
0.987416
0.979147
0.974206
0.973585
0.974353
0.975577
0.977496
0.983589
0.998462
1.00911
1.01339
1.0168
1.01962
1.02134
1.01975
1.0105
1.00235
0.998773
0.998251
0.999192
1.00154
1.00548
1.01797
1.03335
1.04134
1.04469
1.04679
1.04761
1.04638
1.04127
1.03361
1.02855
1.02724
1.02818
1.03227
1.04219
1.05248
1.05803
1.06183
1.06521
1.06651
1.06298
1.05153
1.23626
1.71981
0.900819
0.890548
0.889178
0.889862
0.891105
0.894643
0.905948
0.916685
0.920567
0.922235
0.92139
0.919045
0.917567
0.915498
0.914648
0.915559
0.917016
0.918238
0.918668
0.919762
0.925497
0.933663
0.938201
0.941023
0.943175
0.944977
0.9465
0.945621
0.938903
0.933946
0.933151
0.933894
0.935238
0.938716
0.949487
0.95873
0.962126
0.963849
0.964688
0.965742
0.966326
0.963361
0.957902
0.956174
0.956685
0.957621
0.958814
0.961028
0.970663
0.981731
0.986746
0.989499
0.991608
0.993325
0.994806
0.990949
0.98188
0.977355
0.976326
0.975952
0.976592
0.978732
0.984898
1.00094
1.01441
1.01993
1.02211
1.02364
1.02491
1.02323
1.01367
1.00463
1.00124
1.00146
1.00366
1.00662
1.01104
1.02269
1.03513
1.04147
1.04469
1.04707
1.04827
1.04789
1.04402
1.03656
1.0306
1.02843
1.0288
1.03182
1.04122
1.05156
1.05773
1.06225
1.066
1.06624
1.06111
1.23712
1.7215
0.899668
0.89309
0.891936
0.892828
0.894877
0.900349
0.908415
0.915819
0.919329
0.919691
0.918632
0.919356
0.921097
0.922558
0.922139
0.920872
0.920308
0.91965
0.919058
0.919253
0.921112
0.929877
0.939281
0.943808
0.946309
0.948093
0.949618
0.950152
0.944459
0.937116
0.93568
0.936382
0.937503
0.938766
0.943797
0.955016
0.961925
0.964719
0.966683
0.96833
0.97005
0.971225
0.96775
0.961881
0.959528
0.95898
0.958817
0.959647
0.962488
0.973207
0.985749
0.992095
0.995215
0.997697
0.999207
0.999627
0.994043
0.984343
0.979347
0.978139
0.978272
0.979194
0.981458
0.987386
1.0038
1.01733
1.02238
1.02434
1.02579
1.02736
1.02546
1.01628
1.00902
1.00713
1.0081
1.00982
1.01153
1.01474
1.02442
1.03541
1.04182
1.0456
1.04874
1.05128
1.05188
1.04787
1.0386
1.03087
1.02762
1.02795
1.03041
1.03994
1.05124
1.0585
1.06386
1.06612
1.06827
1.24373
1.72439
0.899664
0.897559
0.897586
0.899404
0.903055
0.905854
0.907913
0.911231
0.914816
0.916812
0.918376
0.921901
0.926158
0.929063
0.930362
0.928584
0.923913
0.919985
0.918354
0.918849
0.920164
0.925468
0.93816
0.945711
0.948781
0.95091
0.952425
0.952471
0.949423
0.942897
0.939185
0.938927
0.939304
0.940097
0.941625
0.947857
0.959152
0.965998
0.969532
0.972266
0.974118
0.975655
0.97596
0.970262
0.963207
0.959822
0.958598
0.958867
0.960186
0.963816
0.976897
0.990918
0.997212
0.999831
1.00109
1.00219
1.00309
0.997892
0.987842
0.982429
0.980885
0.980517
0.981661
0.984273
0.989946
1.00525
1.01913
1.02467
1.02644
1.02738
1.02895
1.02888
1.02319
1.01714
1.01361
1.01203
1.01166
1.01284
1.0157
1.02513
1.03686
1.04419
1.04843
1.05188
1.05439
1.0543
1.04943
1.03867
1.03003
1.02642
1.02663
1.02871
1.03903
1.05117
1.05966
1.06361
1.07182
1.25419
1.72825
0.902325
0.903903
0.905371
0.907631
0.909302
0.909061
0.905845
0.90518
0.908145
0.914601
0.9211
0.927085
0.931672
0.93407
0.935547
0.935553
0.92823
0.920026
0.918288
0.918979
0.920395
0.923755
0.935378
0.946282
0.950208
0.952186
0.952712
0.952457
0.952377
0.949935
0.944343
0.941149
0.940862
0.941559
0.94267
0.944457
0.951718
0.963997
0.971393
0.975055
0.977428
0.979036
0.980268
0.978564
0.969918
0.962391
0.95982
0.959848
0.960878
0.962578
0.966946
0.98148
0.99486
1.0002
1.00264
1.00477
1.00612
1.00655
1.00053
0.989517
0.983899
0.983039
0.984741
0.986769
0.987455
0.990593
1.00327
1.01765
1.02432
1.02792
1.03163
1.03441
1.03506
1.03061
1.02223
1.01518
1.01215
1.01221
1.01337
1.01661
1.02805
1.04045
1.04726
1.05111
1.0541
1.05511
1.05464
1.04908
1.03825
1.02993
1.02617
1.02507
1.02659
1.03773
1.05114
1.05875
1.07219
1.26636
1.7326
0.906824
0.9119
0.913586
0.914068
0.912671
0.906809
0.902786
0.902787
0.904594
0.911771
0.924548
0.932808
0.936314
0.938014
0.939025
0.938522
0.931054
0.922303
0.920315
0.920862
0.922203
0.925377
0.932719
0.943521
0.949368
0.951387
0.952281
0.953204
0.954582
0.95558
0.952969
0.946991
0.944044
0.943576
0.943752
0.944659
0.946745
0.956029
0.969402
0.976229
0.979609
0.981898
0.983314
0.983553
0.978552
0.968361
0.962604
0.961625
0.96238
0.964207
0.967106
0.971637
0.984569
0.997915
1.00388
1.00595
1.00608
1.00689
1.00827
1.00482
0.995075
0.989754
0.988419
0.987125
0.98611
0.9872
0.99039
1.00252
1.01922
1.02922
1.03319
1.03541
1.03713
1.03722
1.03256
1.02322
1.0159
1.01328
1.01357
1.01494
1.01948
1.03108
1.04242
1.04875
1.05268
1.05455
1.0551
1.05483
1.04944
1.03978
1.03062
1.02447
1.02216
1.02358
1.03667
1.05027
1.06935
1.27826
1.73664
0.914028
0.918775
0.92023
0.919521
0.911989
0.903453
0.901613
0.902437
0.904306
0.910602
0.926295
0.935869
0.939007
0.940832
0.94071
0.93655
0.931588
0.926522
0.924587
0.925291
0.927085
0.929296
0.931325
0.93668
0.945215
0.950398
0.953071
0.955406
0.957723
0.959462
0.96047
0.956531
0.948959
0.945254
0.944639
0.945317
0.946669
0.949929
0.962052
0.975153
0.980721
0.983131
0.984128
0.984106
0.983719
0.978931
0.970033
0.965733
0.965534
0.96736
0.969563
0.971197
0.973886
0.984617
0.998257
1.0041
1.00665
1.0097
1.01202
1.01349
1.00978
0.998978
0.990495
0.987309
0.987081
0.988183
0.990308
0.993507
1.00476
1.0219
1.03068
1.03378
1.03563
1.03652
1.03631
1.03356
1.02652
1.01986
1.0169
1.01665
1.01746
1.02086
1.03125
1.04285
1.04964
1.05331
1.05504
1.05617
1.05599
1.05108
1.04062
1.02933
1.02131
1.01827
1.02148
1.03661
1.06173
1.28836
1.73924
0.91981
0.922401
0.923546
0.921699
0.910488
0.90347
0.902966
0.903654
0.905255
0.913546
0.928097
0.936539
0.939768
0.94028
0.937737
0.936254
0.934931
0.932703
0.930716
0.930618
0.93123
0.931409
0.930958
0.931647
0.936639
0.946896
0.954174
0.958726
0.961711
0.963419
0.964543
0.964262
0.956319
0.948149
0.946305
0.947065
0.948633
0.950687
0.954504
0.966148
0.977477
0.982016
0.983688
0.984328
0.985615
0.987021
0.98406
0.975843
0.971541
0.970947
0.971113
0.970785
0.971523
0.974286
0.98515
1.00095
1.00923
1.01211
1.01375
1.01509
1.01628
1.01256
1.00106
0.992969
0.990878
0.991815
0.993854
0.995823
0.99796
1.00669
1.021
1.02915
1.03278
1.03521
1.03756
1.03954
1.03891
1.03198
1.02352
1.01895
1.01726
1.01726
1.02031
1.03185
1.04468
1.05215
1.05549
1.05674
1.05714
1.05651
1.05075
1.04128
1.02832
1.01809
1.01531
1.01919
1.04849
1.29455
1.74016
0.924337
0.925626
0.924651
0.918699
0.909735
0.905339
0.905104
0.906272
0.910015
0.917352
0.926578
0.933405
0.936106
0.936032
0.936163
0.937938
0.939365
0.940311
0.938891
0.935758
0.93331
0.931036
0.929626
0.930064
0.931978
0.9399
0.953192
0.961097
0.964895
0.966893
0.967961
0.968298
0.96484
0.955754
0.950426
0.949933
0.9507
0.9517
0.952866
0.955696
0.96641
0.978195
0.983863
0.98717
0.990127
0.991481
0.992133
0.988896
0.97994
0.973308
0.971097
0.970911
0.971804
0.973719
0.9767
0.9867
1.0025
1.01054
1.01296
1.01394
1.01486
1.01587
1.01463
1.00696
0.999699
0.996949
0.996463
0.996412
0.996895
0.998636
1.00556
1.01944
1.02979
1.03566
1.03953
1.0427
1.04454
1.04345
1.03518
1.02419
1.01795
1.01651
1.01751
1.02085
1.03261
1.04616
1.05361
1.05594
1.05639
1.05664
1.05558
1.05169
1.04223
1.02628
1.01567
1.01127
1.02768
1.29461
1.73919
0.927795
0.929528
0.926004
0.91781
0.911861
0.909455
0.910165
0.912479
0.915781
0.918166
0.921133
0.925924
0.931259
0.93507
0.938424
0.94158
0.944195
0.945657
0.946191
0.942846
0.935769
0.930359
0.928639
0.929312
0.9307
0.934175
0.947729
0.961419
0.966517
0.968741
0.970119
0.970217
0.969797
0.966269
0.957652
0.952467
0.951177
0.951059
0.951733
0.953344
0.956733
0.968165
0.982624
0.989885
0.992495
0.994058
0.995348
0.996242
0.992691
0.982342
0.97534
0.9736
0.974466
0.976805
0.978437
0.979686
0.985819
1.00045
1.01008
1.01355
1.01582
1.0187
1.02092
1.02051
1.01408
1.00567
1.00009
0.997263
0.996573
0.99695
0.998191
1.00543
1.02162
1.03361
1.03913
1.04217
1.04451
1.04585
1.04475
1.03616
1.02507
1.01905
1.01781
1.01798
1.02036
1.03244
1.04644
1.05327
1.05523
1.05643
1.05735
1.05494
1.05215
1.04116
1.02334
1.01113
1.00959
1.2866
1.73635
0.927755
0.928377
0.924407
0.920358
0.916855
0.91559
0.915833
0.916678
0.917649
0.917634
0.917387
0.919176
0.925339
0.934579
0.941562
0.946077
0.948414
0.949646
0.950572
0.949075
0.939887
0.93171
0.929999
0.930615
0.931863
0.934465
0.94185
0.956365
0.966061
0.969619
0.97118
0.971622
0.971925
0.9722
0.968718
0.959474
0.954011
0.95278
0.95321
0.95463
0.956392
0.959444
0.970222
0.984908
0.992067
0.994881
0.996103
0.996458
0.997616
0.995941
0.987089
0.980391
0.97894
0.979208
0.978617
0.978516
0.979839
0.984925
0.998978
1.01151
1.01748
1.02005
1.022
1.02397
1.02475
1.01974
1.00991
1.00231
0.998672
0.99786
0.998368
0.999774
1.00734
1.02377
1.03533
1.04061
1.04384
1.04556
1.0467
1.04634
1.03837
1.02671
1.01928
1.01663
1.01699
1.01972
1.0323
1.04702
1.05376
1.05565
1.05646
1.05541
1.05432
1.05132
1.03755
1.01747
1.00446
1.27329
1.73319
0.925386
0.926594
0.925962
0.924661
0.92362
0.922532
0.921331
0.919595
0.917297
0.915547
0.915501
0.916706
0.919594
0.929561
0.941885
0.948165
0.951113
0.95293
0.953982
0.953236
0.946052
0.936398
0.933305
0.933801
0.935624
0.938702
0.941645
0.947251
0.95869
0.967017
0.970226
0.971647
0.97235
0.973481
0.974802
0.972275
0.96332
0.957773
0.956562
0.956609
0.957458
0.959078
0.961519
0.970281
0.985401
0.993691
0.996381
0.998524
1.00028
1.00155
1.0002
0.991315
0.983203
0.980051
0.979654
0.98026
0.98136
0.982445
0.985513
0.997789
1.01205
1.01856
1.02162
1.02421
1.02676
1.02785
1.02376
1.01379
1.00524
1.00117
0.999802
0.999623
1.00063
1.00834
1.02497
1.03697
1.04251
1.04535
1.04741
1.04889
1.04856
1.04019
1.02764
1.01946
1.01642
1.01643
1.01996
1.03284
1.04688
1.05281
1.05443
1.05486
1.0537
1.05353
1.04872
1.0305
1.01093
1.25765
1.73103
0.922925
0.926707
0.927572
0.928579
0.928661
0.928404
0.927456
0.92409
0.919529
0.916779
0.916662
0.917557
0.918928
0.922894
0.936619
0.947881
0.951895
0.953701
0.954258
0.954367
0.952477
0.945541
0.939405
0.938164
0.938863
0.940353
0.941968
0.943636
0.94763
0.95845
0.9679
0.972135
0.974465
0.976602
0.977805
0.97848
0.975426
0.965955
0.959323
0.957588
0.957879
0.959049
0.960577
0.962901
0.970637
0.986726
0.996993
1.00025
1.00124
1.00127
1.00198
1.00206
0.996601
0.988839
0.985014
0.983878
0.982953
0.982725
0.983409
0.985679
0.997148
1.01272
1.0209
1.02464
1.02748
1.03013
1.03025
1.0264
1.01711
1.00733
1.00187
1.00004
1.00018
1.0014
1.00861
1.02566
1.03898
1.04526
1.04765
1.04869
1.04984
1.04984
1.04282
1.02987
1.02007
1.01654
1.01639
1.01977
1.03229
1.04552
1.05085
1.05316
1.05341
1.05321
1.05248
1.04137
1.02579
1.24574
1.73047
0.915579
0.924025
0.926814
0.928796
0.930875
0.932728
0.93388
0.933132
0.926896
0.921026
0.919253
0.919283
0.919981
0.92125
0.927302
0.942268
0.950759
0.953679
0.955574
0.956462
0.956183
0.953612
0.947505
0.942485
0.940678
0.940871
0.941882
0.94291
0.944314
0.947705
0.958859
0.97075
0.97645
0.978779
0.980151
0.98125
0.982256
0.979372
0.969302
0.962286
0.960514
0.96083
0.962724
0.96496
0.966721
0.971166
0.98497
0.995583
0.999095
1.0008
1.00329
1.00612
1.00768
1.00401
0.994773
0.987343
0.983924
0.983372
0.983913
0.984872
0.986909
0.99841
1.01514
1.02382
1.02729
1.02973
1.03076
1.03098
1.0294
1.02114
1.01029
1.0038
1.00112
1.00098
1.00197
1.00822
1.02521
1.03973
1.04614
1.04879
1.05098
1.05242
1.05184
1.04382
1.0306
1.01961
1.01599
1.01626
1.02004
1.03126
1.0433
1.04891
1.05139
1.0516
1.05251
1.04712
1.03814
1.24102
1.73144
0.905992
0.91407
0.923585
0.930556
0.935258
0.938703
0.940442
0.941227
0.936266
0.925773
0.920209
0.919167
0.919785
0.921156
0.924198
0.933527
0.947365
0.954447
0.956979
0.957421
0.956211
0.956435
0.956421
0.951645
0.946287
0.943995
0.943598
0.943708
0.943828
0.944894
0.947685
0.958785
0.972403
0.978766
0.981633
0.983626
0.984595
0.985348
0.983274
0.974156
0.966524
0.964684
0.96518
0.965671
0.965551
0.966091
0.969186
0.981648
0.995106
1.00204
1.00547
1.00817
1.01081
1.01238
1.00903
0.998806
0.990223
0.986525
0.986121
0.986967
0.988296
0.990485
0.999735
1.01457
1.02364
1.02771
1.03048
1.03268
1.03347
1.03269
1.02479
1.0123
1.00429
1.00084
1.0004
1.00146
1.00732
1.02518
1.04196
1.04913
1.05122
1.05202
1.0525
1.0515
1.04475
1.03123
1.01995
1.01667
1.01692
1.01974
1.02922
1.04068
1.04672
1.04933
1.05047
1.04963
1.04655
1.2426
1.73343
0.899204
0.903697
0.91713
0.933479
0.942022
0.94543
0.946673
0.946588
0.94207
0.929327
0.921363
0.920456
0.921145
0.922952
0.926548
0.930617
0.937178
0.94708
0.952919
0.955293
0.957106
0.959467
0.96152
0.962303
0.95835
0.951546
0.94725
0.944839
0.943362
0.943589
0.945122
0.948613
0.961132
0.976886
0.984009
0.985999
0.986602
0.987384
0.988426
0.987192
0.978472
0.97001
0.966632
0.965873
0.965481
0.964767
0.965132
0.96754
0.979186
0.995923
1.00527
1.00879
1.01046
1.01211
1.01379
1.01246
1.00468
0.995845
0.991374
0.99018
0.989924
0.990052
0.991296
0.999197
1.01469
1.02534
1.03032
1.03302
1.03433
1.03494
1.03454
1.02696
1.01338
1.00431
1.00114
1.0015
1.0033
1.00859
1.02514
1.04196
1.04895
1.05119
1.05277
1.05296
1.05074
1.04595
1.03223
1.02041
1.01723
1.01746
1.01924
1.02756
1.03885
1.04524
1.0479
1.04805
1.05258
1.24871
1.73578
0.896598
0.900289
0.910768
0.934193
0.945131
0.948147
0.949368
0.948392
0.942693
0.934616
0.926462
0.923904
0.924463
0.927049
0.929944
0.930762
0.930577
0.933331
0.942796
0.952654
0.959229
0.964839
0.967929
0.968995
0.969167
0.96273
0.950897
0.944205
0.943033
0.943868
0.946063
0.949554
0.954132
0.964701
0.978636
0.985156
0.987306
0.987704
0.987961
0.989511
0.990473
0.985215
0.9759
0.969897
0.966966
0.965676
0.965893
0.966868
0.968847
0.978436
0.996015
1.0057
1.0092
1.01226
1.01496
1.01688
1.01625
1.0099
1.00026
0.993811
0.991273
0.991198
0.991611
0.992688
0.998777
1.01397
1.02585
1.0313
1.03412
1.03483
1.03624
1.03688
1.02982
1.01633
1.00737
1.00424
1.00379
1.00423
1.00801
1.02423
1.04202
1.04987
1.05247
1.05344
1.05306
1.05124
1.04652
1.03344
1.02257
1.01881
1.01794
1.01817
1.02541
1.03582
1.04269
1.04482
1.05563
1.25719
1.73831
0.897427
0.902227
0.914836
0.932798
0.944429
0.948312
0.948401
0.943744
0.940543
0.939736
0.936846
0.932001
0.930266
0.930757
0.930982
0.928349
0.92688
0.927953
0.931571
0.944087
0.959992
0.96843
0.971808
0.973035
0.973493
0.971337
0.960996
0.949085
0.945516
0.946081
0.94976
0.953935
0.955826
0.957152
0.962124
0.974842
0.983486
0.986611
0.989754
0.992691
0.994788
0.99576
0.991022
0.979116
0.970183
0.967222
0.967203