/*--------------------------------*- C++ -*----------------------------------*\
  =========                 |
  \\      /  F ield         | OpenFOAM: The Open Source CFD Toolbox
   \\    /   O peration     | Website:  https://openfoam.org
    \\  /    A nd           | Version:  12
     \\/     M anipulation  |
\*---------------------------------------------------------------------------*/
FoamFile
{
    format      ascii;
    class       volScalarField;
    location    "2.6";
    object      T;
}
// * * * * * * * * * * * * * * * * * * * * * * * * * * * * * * * * * * * * * //

dimensions      [0 0 0 1 0 0 0];

internalField   nonuniform List<scalar> 
9801
(
0.909864
0.910392
0.909241
0.90808
0.908202
0.908917
0.910787
0.913565
0.915483
0.916592
0.917488
0.91806
0.91731
0.916516
0.916806
0.917566
0.91947
0.921549
0.922708
0.923451
0.924055
0.923859
0.922967
0.923021
0.923562
0.925044
0.927547
0.929261
0.930339
0.931139
0.931598
0.930919
0.930678
0.931271
0.93232
0.934641
0.937261
0.938886
0.939936
0.940909
0.940979
0.940125
0.940306
0.941113
0.942449
0.945241
0.947638
0.949047
0.950108
0.95078
0.950182
0.949984
0.950677
0.951909
0.954229
0.957153
0.959212
0.960388
0.961271
0.960968
0.960194
0.960569
0.961801
0.963765
0.967138
0.970089
0.971877
0.973021
0.973526
0.971852
0.971423
0.97257
0.974156
0.977689
0.9821
0.984811
0.986511
0.987782
0.986749
0.984512
0.985022
0.986789
0.990395
0.9964
1.00075
1.00355
1.00568
1.00682
1.00388
1.00246
1.00501
1.01004
1.01971
1.02884
1.03682
1.0457
1.04894
1.13027
1.43341
0.911548
0.911888
0.911055
0.910695
0.911078
0.911736
0.913345
0.916047
0.917922
0.91894
0.919579
0.919761
0.919055
0.918733
0.919128
0.919892
0.921862
0.92398
0.925135
0.925825
0.92626
0.925965
0.925366
0.925515
0.926063
0.927531
0.930108
0.931833
0.932835
0.933517
0.933844
0.933317
0.933219
0.933804
0.934729
0.937014
0.93969
0.941293
0.942327
0.943147
0.943185
0.942525
0.942718
0.943437
0.944681
0.947561
0.950036
0.951452
0.952456
0.953045
0.952526
0.952305
0.952906
0.953953
0.956093
0.959228
0.96137
0.962578
0.963471
0.963304
0.962513
0.962781
0.963863
0.965487
0.968775
0.97191
0.973789
0.974982
0.975666
0.974345
0.973772
0.974734
0.976087
0.979194
0.983612
0.986382
0.988153
0.989492
0.98907
0.987046
0.987335
0.988934
0.991735
0.997274
1.00194
1.00496
1.0073
1.00917
1.00723
1.00547
1.00786
1.0121
1.01966
1.02751
1.03487
1.04268
1.04381
1.12545
1.44041
0.912303
0.912541
0.912849
0.913404
0.913864
0.914475
0.915569
0.918078
0.91979
0.920663
0.921065
0.921024
0.920786
0.921005
0.921594
0.922294
0.9242
0.926274
0.927373
0.928025
0.928366
0.928109
0.927824
0.928104
0.928682
0.929992
0.932464
0.93417
0.935168
0.935832
0.936181
0.935835
0.935837
0.936386
0.937208
0.9393
0.942047
0.943684
0.944736
0.945551
0.945637
0.945025
0.945221
0.945933
0.947132
0.950027
0.952584
0.954028
0.955043
0.955704
0.955247
0.954858
0.955386
0.956354
0.958299
0.961573
0.963841
0.965103
0.966106
0.966302
0.965382
0.965437
0.966472
0.967879
0.970902
0.974279
0.976307
0.977599
0.978608
0.977736
0.97681
0.977611
0.978893
0.981184
0.985561
0.988864
0.990845
0.992422
0.992783
0.990894
0.9908
0.992329
0.9944
0.998867
1.00465
1.00841
1.011
1.01327
1.01248
1.01023
1.01217
1.01621
1.02234
1.03063
1.03839
1.04689
1.05
1.13018
1.44691
0.913563
0.91465
0.915561
0.916318
0.916959
0.917644
0.918781
0.920606
0.921747
0.922317
0.922683
0.922961
0.923177
0.923578
0.924223
0.925229
0.927209
0.928934
0.929857
0.930422
0.930722
0.930646
0.930609
0.930993
0.931649
0.932928
0.935254
0.936933
0.937906
0.938566
0.938898
0.938573
0.938567
0.93911
0.939958
0.941938
0.944737
0.946439
0.947511
0.948315
0.948362
0.947714
0.947931
0.948686
0.949875
0.952753
0.955492
0.957006
0.958051
0.9588
0.958353
0.957652
0.958098
0.959082
0.960864
0.964316
0.966862
0.968218
0.969319
0.969853
0.968829
0.968487
0.969433
0.970734
0.973416
0.977257
0.979624
0.981048
0.98226
0.981896
0.980461
0.980854
0.982122
0.984038
0.988308
0.992492
0.994787
0.996453
0.997458
0.995896
0.994738
0.995978
0.998083
1.00138
1.00742
1.01222
1.01522
1.0178
1.0188
1.01653
1.01652
1.02025
1.02509
1.03228
1.03979
1.04738
1.05189
1.13444
1.44941
0.915612
0.917363
0.918259
0.919016
0.91971
0.920498
0.921972
0.922959
0.923566
0.924161
0.924817
0.925436
0.925792
0.926155
0.926823
0.928002
0.929982
0.931427
0.932263
0.932805
0.933235
0.933423
0.933436
0.93383
0.934525
0.935811
0.938107
0.939776
0.940687
0.941293
0.941609
0.941354
0.94136
0.941906
0.942771
0.944655
0.947471
0.949195
0.950211
0.950919
0.950929
0.950404
0.950683
0.951482
0.952655
0.955416
0.958381
0.960002
0.961038
0.961756
0.961282
0.96038
0.960756
0.961752
0.963403
0.966929
0.969895
0.971428
0.972605
0.973386
0.972439
0.97156
0.972291
0.973535
0.975775
0.979914
0.982821
0.984394
0.985714
0.986044
0.984499
0.984195
0.985285
0.986938
0.990277
0.99523
0.998339
1.00017
1.00164
1.00097
0.99902
0.99932
1.00126
1.00384
1.00889
1.01461
1.01844
1.02133
1.02385
1.02288
1.02106
1.02278
1.02695
1.033
1.04006
1.04635
1.05004
1.13704
1.44947
0.918129
0.919931
0.920773
0.921595
0.922095
0.922552
0.923716
0.924861
0.925622
0.926506
0.927346
0.928033
0.92838
0.928615
0.929232
0.930253
0.932182
0.933714
0.934537
0.935209
0.935884
0.936349
0.936262
0.936499
0.937151
0.938292
0.940548
0.942361
0.943287
0.943917
0.944409
0.944385
0.944179
0.944598
0.945399
0.947002
0.949723
0.951537
0.952553
0.953285
0.953635
0.953343
0.953442
0.954211
0.955331
0.95782
0.960893
0.962607
0.963608
0.964296
0.964076
0.963203
0.963391
0.964357
0.965785
0.969103
0.972541
0.974308
0.975533
0.976446
0.975791
0.974443
0.974777
0.975907
0.977602
0.981671
0.985492
0.987402
0.988781
0.989588
0.98829
0.987203
0.987785
0.989241
0.991545
0.996478
1.00078
1.00316
1.00484
1.0053
1.00314
1.00227
1.00355
1.0057
1.00922
1.015
1.01961
1.02285
1.02576
1.02744
1.02541
1.02459
1.02692
1.03121
1.0376
1.04345
1.04688
1.13938
1.44891
0.920735
0.922313
0.923057
0.923634
0.923397
0.923614
0.924645
0.92659
0.927993
0.928963
0.92976
0.930459
0.930809
0.930798
0.931007
0.9315
0.933056
0.935371
0.936812
0.937774
0.938557
0.93912
0.938952
0.938967
0.939396
0.940103
0.941989
0.944361
0.945667
0.946476
0.947159
0.947311
0.946881
0.947004
0.947591
0.948607
0.951032
0.953258
0.954535
0.955472
0.956255
0.956167
0.956034
0.956635
0.957591
0.959401
0.962407
0.964384
0.965473
0.966305
0.966682
0.96596
0.96591
0.966751
0.967933
0.970547
0.974251
0.97639
0.977651
0.978602
0.978417
0.977062
0.977044
0.977981
0.979297
0.982437
0.986981
0.98959
0.991109
0.992143
0.99132
0.989691
0.989749
0.99096
0.992615
0.996218
1.0015
1.00476
1.00674
1.0082
1.00722
1.00501
1.00515
1.0068
1.00922
1.01409
1.01952
1.02332
1.02629
1.02901
1.02934
1.02693
1.02697
1.02943
1.03391
1.03967
1.04374
1.14113
1.44783
0.923324
0.924481
0.925011
0.924342
0.923782
0.924171
0.925337
0.928266
0.930407
0.931368
0.93208
0.932785
0.93307
0.932308
0.93181
0.932137
0.933281
0.936426
0.938987
0.940199
0.941031
0.941707
0.941573
0.941015
0.940942
0.941379
0.942715
0.945676
0.947762
0.948846
0.949583
0.949951
0.949399
0.948996
0.949175
0.949788
0.951628
0.954595
0.956408
0.957532
0.958458
0.958732
0.958326
0.958574
0.959215
0.9602
0.962771
0.965506
0.967023
0.968088
0.968917
0.968451
0.968111
0.968745
0.969748
0.971274
0.974697
0.977533
0.979077
0.980157
0.980566
0.979356
0.978965
0.979749
0.980926
0.982793
0.987137
0.990771
0.992654
0.993876
0.993959
0.992061
0.991389
0.992221
0.993654
0.995757
1.00069
1.00527
1.00778
1.00958
1.0105
1.00826
1.00664
1.00757
1.00949
1.01263
1.01804
1.02264
1.02593
1.02871
1.03101
1.03053
1.02807
1.02854
1.03089
1.03549
1.04022
1.14216
1.44626
0.925951
0.926779
0.925974
0.924286
0.924082
0.924645
0.925913
0.929368
0.932376
0.933655
0.934391
0.935034
0.934701
0.932793
0.932331
0.932859
0.933997
0.93732
0.940699
0.942336
0.943284
0.944015
0.943815
0.942276
0.941859
0.942382
0.943605
0.946755
0.94949
0.950819
0.951647
0.952203
0.951635
0.950432
0.950259
0.950817
0.952309
0.955623
0.958012
0.959268
0.960221
0.960852
0.960333
0.95984
0.960063
0.960785
0.962648
0.96623
0.968529
0.969773
0.970734
0.970901
0.970201
0.970251
0.970789
0.971723
0.9741
0.977909
0.980213
0.981525
0.982478
0.981892
0.980952
0.981275
0.982116
0.983286
0.986145
0.990771
0.993505
0.995004
0.995978
0.995053
0.99324
0.993378
0.994476
0.995955
0.999047
1.00446
1.00809
1.01017
1.01177
1.01182
1.0093
1.00863
1.00992
1.01199
1.0159
1.02121
1.02515
1.02811
1.03078
1.03247
1.03124
1.02894
1.02939
1.03157
1.03634
1.14206
1.44431
0.928105
0.928712
0.926557
0.924995
0.925113
0.925715
0.926885
0.930212
0.933777
0.935365
0.936307
0.936821
0.935306
0.933462
0.933459
0.93408
0.935259
0.938433
0.942067
0.943864
0.944946
0.945701
0.944976
0.94314
0.942959
0.943581
0.944794
0.947841
0.95093
0.952471
0.953351
0.953917
0.953241
0.95157
0.951356
0.951942
0.953202
0.956466
0.959355
0.960782
0.961743
0.962458
0.96192
0.960652
0.960658
0.961392
0.962828
0.966518
0.969726
0.971284
0.972321
0.972984
0.972111
0.971191
0.971345
0.972156
0.973648
0.97761
0.981174
0.982933
0.983999
0.984345
0.983015
0.982354
0.982726
0.983654
0.985216
0.989442
0.993821
0.995974
0.997376
0.998007
0.996031
0.994653
0.995226
0.996464
0.998144
1.00222
1.00734
1.01028
1.01216
1.01377
1.01331
1.0107
1.01056
1.01208
1.01447
1.01894
1.02371
1.02714
1.02995
1.03251
1.03369
1.03197
1.0294
1.02912
1.03224
1.13984
1.44212
0.928674
0.92886
0.927266
0.926414
0.926618
0.927242
0.928239
0.93121
0.934734
0.936389
0.937121
0.936891
0.935583
0.934781
0.934969
0.935662
0.936716
0.939695
0.943133
0.944943
0.945857
0.946118
0.945236
0.944262
0.944307
0.944975
0.946025
0.948854
0.952032
0.953694
0.954572
0.954958
0.954086
0.952791
0.952633
0.953183
0.954214
0.957181
0.960444
0.962064
0.96297
0.963586
0.963073
0.961616
0.961544
0.962283
0.963398
0.966513
0.970482
0.972524
0.973662
0.974487
0.973874
0.97222
0.972089
0.972855
0.973921
0.976873
0.981534
0.984042
0.985325
0.986162
0.985385
0.983578
0.983369
0.984117
0.985313
0.987834
0.993061
0.99663
0.998343
0.999634
0.999469
0.997024
0.996175
0.996958
0.99827
1.00044
1.0054
1.01005
1.01264
1.01445
1.01564
1.01441
1.01227
1.0126
1.01422
1.01688
1.02159
1.02595
1.02909
1.03164
1.03382
1.03444
1.03237
1.02899
1.02887
1.13616
1.43985
0.928449
0.928895
0.928584
0.928298
0.928652
0.929323
0.930165
0.932177
0.934873
0.936284
0.936742
0.936792
0.936681
0.936482
0.936986
0.937798
0.938786
0.940977
0.94372
0.945157
0.945812
0.946115
0.946063
0.945553
0.945865
0.946659
0.947584
0.949766
0.952716
0.954328
0.95516
0.95562
0.955242
0.954185
0.954141
0.954718
0.955503
0.957573
0.961015
0.962961
0.963961
0.964627
0.964313
0.962903
0.962651
0.963349
0.96433
0.966415
0.970609
0.973367
0.974736
0.975597
0.975471
0.973699
0.973074
0.973762
0.97478
0.976324
0.980666
0.984517
0.986301
0.987361
0.987745
0.985809
0.984491
0.984926
0.985983
0.987385
0.991084
0.996176
0.998841
1.00034
1.00155
1.00058
0.998041
0.997796
0.998916
1.00041
1.00326
1.00845
1.01231
1.01451
1.01631
1.01751
1.01595
1.01397
1.01449
1.01617
1.01908
1.02379
1.02774
1.03057
1.03291
1.03452
1.03467
1.03164
1.02808
1.13124
1.43754
0.928247
0.92954
0.930055
0.930322
0.93076
0.931379
0.932041
0.932751
0.93408
0.935591
0.936564
0.937504
0.938086
0.938449
0.939101
0.939908
0.940671
0.941631
0.943477
0.94503
0.945944
0.946766
0.947289
0.947259
0.947609
0.948314
0.949074
0.950227
0.952781
0.954775
0.955782
0.956478
0.956754
0.956068
0.955834
0.956214
0.95682
0.957872
0.960967
0.96361
0.96485
0.965637
0.965952
0.964799
0.964135
0.964594
0.965403
0.966539
0.969831
0.973561
0.975358
0.976433
0.977125
0.976025
0.97469
0.974912
0.975645
0.976545
0.978937
0.983848
0.986821
0.988334
0.989447
0.989105
0.986823
0.986225
0.986902
0.987891
0.989523
0.994115
0.998625
1.00082
1.00225
1.0032
1.00175
0.999775
0.999978
1.00108
1.00259
1.00597
1.01109
1.01452
1.01664
1.01838
1.01913
1.01727
1.01567
1.01627
1.01793
1.02092
1.0255
1.02908
1.0316
1.03356
1.03467
1.03378
1.03046
1.1273
1.43524
0.928634
0.93065
0.931416
0.932164
0.932776
0.933237
0.933176
0.932817
0.933349
0.935349
0.937511
0.938672
0.939575
0.940374
0.94105
0.941509
0.941721
0.941837
0.942864
0.945218
0.946916
0.947895
0.948689
0.949146
0.949182
0.949467
0.949995
0.950622
0.952302
0.955077
0.956693
0.957601
0.958297
0.958114
0.957362
0.957356
0.95782
0.95855
0.960605
0.964045
0.965902
0.966816
0.967462
0.967019
0.965758
0.965659
0.966226
0.967068
0.968843
0.973063
0.976098
0.977568
0.978507
0.978562
0.976759
0.975894
0.976175
0.976981
0.97828
0.982135
0.986931
0.98923
0.990643
0.991577
0.990181
0.98791
0.987663
0.98836
0.989432
0.991705
0.996926
1.00087
1.00284
1.00442
1.00524
1.00321
1.00138
1.00171
1.00285
1.00451
1.00843
1.01338
1.01643
1.01838
1.02009
1.0209
1.01888
1.01725
1.01783
1.01941
1.02235
1.02671
1.02996
1.03211
1.03372
1.03392
1.0332
1.12558
1.43299
0.929628
0.932086
0.932921
0.93374
0.934443
0.934264
0.932923
0.932875
0.933645
0.936104
0.938861
0.940343
0.941301
0.942126
0.942789
0.942457
0.941548
0.941761
0.942818
0.945719
0.948256
0.949462
0.950299
0.951012
0.950877
0.95038
0.950373
0.950839
0.951953
0.955052
0.957707
0.958969
0.959772
0.960138
0.959167
0.958593
0.958859
0.959461
0.960513
0.96376
0.966711
0.968075
0.968864
0.969229
0.967947
0.966897
0.967102
0.967828
0.968811
0.971728
0.976156
0.97846
0.979692
0.980432
0.979249
0.977177
0.977015
0.977816
0.978868
0.980848
0.985708
0.989647
0.991506
0.992717
0.993115
0.990702
0.98877
0.989018
0.990067
0.991365
0.99462
1.00017
1.00352
1.00517
1.00641
1.00664
1.00418
1.00269
1.00332
1.00462
1.00655
1.0109
1.01564
1.0185
1.0204
1.0219
1.02227
1.02018
1.01861
1.01916
1.02061
1.02342
1.02749
1.03038
1.03221
1.03287
1.03448
1.12607
1.43078
0.931102
0.933508
0.934319
0.935108
0.935407
0.933822
0.933015
0.933433
0.934391
0.93725
0.940504
0.942036
0.942927
0.943676
0.943861
0.942311
0.941642
0.94211
0.943183
0.946292
0.949567
0.951118
0.951997
0.952706
0.952538
0.951144
0.950636
0.951082
0.952007
0.954757
0.958413
0.960308
0.961277
0.961956
0.961399
0.960124
0.95992
0.960296
0.960996
0.963033
0.966955
0.969191
0.970312
0.970986
0.9705
0.968661
0.968142
0.968587
0.96939
0.970814
0.974905
0.978705
0.980401
0.981463
0.981747
0.979798
0.97856
0.979054
0.980029
0.981072
0.983528
0.988432
0.99154
0.993024
0.994097
0.994004
0.991409
0.990309
0.991111
0.992357
0.993959
0.997735
1.00259
1.00516
1.00666
1.00788
1.00773
1.00528
1.00433
1.00522
1.00656
1.00876
1.01326
1.01754
1.02007
1.02181
1.02321
1.02349
1.02149
1.01994
1.02035
1.0216
1.02414
1.02775
1.03032
1.03138
1.03423
1.12806
1.42858
0.932629
0.934833
0.935592
0.936121
0.935081
0.933721
0.933742
0.934317
0.935293
0.938353
0.94188
0.943492
0.944299
0.944722
0.943712
0.942379
0.942358
0.942955
0.943925
0.946849
0.950646
0.952524
0.953459
0.954007
0.953546
0.951753
0.951218
0.951753
0.952646
0.954659
0.958687
0.961305
0.962593
0.963355
0.963345
0.961717
0.960859
0.96119
0.961906
0.963031
0.966548
0.970051
0.971525
0.972342
0.972544
0.9709
0.969354
0.969451
0.970199
0.971155
0.973275
0.977792
0.980895
0.982351
0.983367
0.983137
0.981062
0.98037
0.980851
0.981611
0.982731
0.985807
0.9906
0.99327
0.99464
0.995741
0.995322
0.993146
0.992703
0.993488
0.99447
0.995888
0.999804
1.00426
1.00666
1.00812
1.00937
1.00917
1.00711
1.00645
1.00733
1.0086
1.01073
1.01499
1.01892
1.02134
1.023
1.0243
1.02471
1.02303
1.02131
1.02137
1.02231
1.02427
1.02751
1.02934
1.03296
1.13068
1.42628
0.93387
0.936075
0.936624
0.936311
0.935172
0.934547
0.934805
0.935579
0.936663
0.93944
0.942864
0.944584
0.94539
0.945411
0.944231
0.943243
0.943437
0.944212
0.945203
0.947476
0.951242
0.953499
0.954542
0.95502
0.954484
0.952883
0.952307
0.952876
0.953747
0.955115
0.958404
0.961852
0.963506
0.964365
0.964716
0.963707
0.962304
0.962393
0.963131
0.964049
0.965829
0.969704
0.972253
0.97334
0.973875
0.973496
0.971537
0.970784
0.971238
0.972039
0.972982
0.975649
0.980312
0.982976
0.9843
0.985206
0.984375
0.982163
0.981654
0.982342
0.983294
0.984585
0.988109
0.992722
0.99519
0.996531
0.997636
0.997004
0.994807
0.994223
0.994915
0.995994
0.997604
1.00168
1.006
1.00839
1.00988
1.01119
1.01119
1.00912
1.00827
1.009
1.01027
1.01221
1.01613
1.01997
1.02243
1.02409
1.02539
1.02605
1.02473
1.02255
1.02196
1.02245
1.02396
1.0264
1.03069
1.13266
1.42375
0.934135
0.936144
0.936556
0.936758
0.9363
0.935993
0.936586
0.937436
0.938318
0.939891
0.942652
0.944373
0.945083
0.945521
0.945628
0.945052
0.945326
0.946148
0.947022
0.947997
0.950545
0.95317
0.95433
0.954948
0.955552
0.955075
0.954283
0.954628
0.955381
0.956185
0.957592
0.961021
0.963493
0.964669
0.965553
0.965996
0.964809
0.964179
0.964562
0.965153
0.965845
0.967999
0.971921
0.974042
0.975088
0.975683
0.97486
0.972967
0.972482
0.972826
0.973489
0.974569
0.977978
0.982478
0.984722
0.985934
0.986742
0.985733
0.983773
0.983502
0.984111
0.984945
0.986345
0.990357
0.994799
0.997059
0.998353
0.999249
0.99845
0.996332
0.99582
0.996566
0.9977
0.999484
1.00357
1.00779
1.01016
1.01164
1.01278
1.01286
1.01101
1.01
1.01048
1.01164
1.01337
1.01702
1.02101
1.0236
1.02522
1.02643
1.02712
1.02611
1.02352
1.02207
1.02216
1.02287
1.02771
1.13338
1.4209
0.9335
0.936178
0.937126
0.937878
0.938285
0.938143
0.938437
0.938981
0.939496
0.939934
0.941148
0.943815
0.945583
0.94652
0.947274
0.947631
0.947417
0.947651
0.948054
0.948452
0.949183
0.951849
0.954529
0.955913
0.956757
0.95748
0.956985
0.956347
0.956459
0.956811
0.957327
0.959107
0.963021
0.965533
0.966801
0.967679
0.967773
0.966373
0.965724
0.965801
0.966205
0.967074
0.970254
0.974386
0.976293
0.977253
0.977717
0.976214
0.974079
0.973656
0.974113
0.974776
0.976004
0.98011
0.98453
0.986631
0.987972
0.988795
0.987541
0.985365
0.984951
0.985498
0.986377
0.987971
0.992417
0.996604
0.99857
0.999877
1.00094
1.00022
0.99811
0.997636
0.998294
0.999279
1.00095
1.00513
1.00931
1.01153
1.01296
1.01437
1.01482
1.01284
1.01146
1.01179
1.0129
1.01451
1.01798
1.02202
1.02457
1.02609
1.02717
1.02779
1.0271
1.02441
1.0221
1.0209
1.02429
1.13151
1.41764
0.932716
0.9362
0.938356
0.939412
0.940108
0.940501
0.940306
0.940058
0.939688
0.939597
0.940259
0.942872
0.946424
0.948191
0.949096
0.949828
0.949842
0.949038
0.948383
0.948118
0.94857
0.950276
0.95441
0.957227
0.958516
0.959367
0.959759
0.958457
0.957222
0.956865
0.957195
0.958143
0.961607
0.966111
0.968229
0.969276
0.970038
0.969197
0.967116
0.966418
0.966658
0.96728
0.968725
0.973216
0.977009
0.978524
0.979408
0.979549
0.977278
0.975135
0.974708
0.975056
0.975921
0.977889
0.983021
0.987136
0.988856
0.989983
0.990578
0.98857
0.986221
0.98595
0.986692
0.98777
0.98986
0.994762
0.998747
1.0006
1.00181
1.00282
1.00182
0.999382
0.998753
0.999499
1.00063
1.00242
1.00678
1.01106
1.01333
1.01475
1.01595
1.01623
1.01436
1.01294
1.0132
1.01418
1.01555
1.01877
1.02276
1.02523
1.02662
1.02762
1.02814
1.02777
1.02533
1.02169
1.02183
1.12666
1.41413
0.932663
0.935967
0.939353
0.940989
0.941774
0.942446
0.942411
0.940861
0.939573
0.939594
0.940262
0.942231
0.946751
0.94968
0.950866
0.951641
0.952113
0.950683
0.948582
0.94816
0.948719
0.949919
0.953703
0.958104
0.96012
0.961066
0.961727
0.96077
0.958035
0.957079
0.957506
0.958402
0.960509
0.965591
0.96921
0.97073
0.971626
0.971634
0.96916
0.967222
0.96718
0.967844
0.968784
0.971399
0.976578
0.979463
0.980538
0.981286
0.980652
0.977285
0.975548
0.975836
0.976644
0.97778
0.980772
0.986093
0.98919
0.990572
0.991471
0.991623
0.989084
0.987146
0.987426
0.988465
0.989715
0.992254
0.997277
1.00074
1.00234
1.00337
1.00409
1.00267
1.00028
1.00009
1.00115
1.00241
1.00436
1.0087
1.01262
1.01466
1.01603
1.01721
1.01762
1.01605
1.01446
1.01448
1.01537
1.01655
1.01936
1.02318
1.02563
1.02695
1.02781
1.02818
1.02805
1.02545
1.02248
1.12055
1.41067
0.933205
0.935787
0.939839
0.942167
0.943161
0.943757
0.943706
0.941563
0.940025
0.940207
0.940891
0.942377
0.946738
0.950664
0.952271
0.953084
0.953443
0.951698
0.949178
0.948859
0.949457
0.950424
0.953231
0.958357
0.961102
0.962295
0.963078
0.962505
0.959195
0.957885
0.958346
0.959176
0.960578
0.964546
0.969463
0.97165
0.972646
0.973203
0.971794
0.968696
0.968042
0.968717
0.969659
0.971023
0.974753
0.979284
0.981275
0.98203
0.982239
0.980835
0.97807
0.977389
0.978016
0.978913
0.980119
0.983391
0.987989
0.990418
0.991587
0.992535
0.992475
0.990196
0.989073
0.98964
0.990682
0.991882
0.994605
0.999099
1.00188
1.00323
1.00423
1.00488
1.00386
1.0023
1.00237
1.00338
1.00451
1.00623
1.01005
1.01362
1.01571
1.01715
1.01834
1.01874
1.01758
1.01608
1.01587
1.01657
1.01755
1.0198
1.02327
1.02565
1.02696
1.02768
1.02812
1.02767
1.02654
1.11734
1.40745
0.934123
0.936008
0.939708
0.942913
0.944202
0.944846
0.944715
0.942699
0.941212
0.941433
0.942156
0.943341
0.946678
0.951091
0.953113
0.953954
0.954053
0.952693
0.950576
0.950224
0.950926
0.951926
0.953759
0.957722
0.961263
0.96267
0.963046
0.96262
0.961142
0.959691
0.959982
0.960902
0.962029
0.963905
0.967968
0.971265
0.972555
0.973119
0.973323
0.971776
0.970055
0.970284
0.971199
0.972148
0.973359
0.976874
0.980563
0.98213
0.982899
0.983493
0.982221
0.979927
0.979455
0.979933
0.980641
0.981848
0.985256
0.989569
0.991851
0.99298
0.993915
0.993931
0.991864
0.990922
0.991519
0.992551
0.993657
0.995834
0.99985
1.00272
1.00424
1.00544
1.00669
1.00611
1.00453
1.00434
1.00516
1.00619
1.00744
1.01046
1.01404
1.01635
1.01791
1.01924
1.02016
1.0197
1.01817
1.01743
1.01767
1.01834
1.01972
1.02275
1.02534
1.0268
1.02766
1.02767
1.02938
1.11746
1.40439
0.935437
0.936785
0.938929
0.942501
0.944104
0.944714
0.945019
0.944566
0.943359
0.943393
0.944104
0.944941
0.946529
0.950008
0.95252
0.953404
0.953771
0.954104
0.953205
0.952494
0.952968
0.953848
0.954688
0.956108
0.959397
0.961838
0.962844
0.963507
0.963838
0.962735
0.962091
0.962574
0.963332
0.964079
0.96537
0.969009
0.972134
0.973617
0.974574
0.975104
0.973664
0.972417
0.972526
0.972961
0.973454
0.974513
0.978109
0.982009
0.983777
0.984584
0.985082
0.983764
0.981552
0.981026
0.98163
0.982469
0.983757
0.98691
0.990879
0.993126
0.994415
0.995398
0.995471
0.993914
0.992993
0.993224
0.994001
0.995029
0.996933
1.00083
1.00411
1.0059
1.00716
1.00827
1.00806
1.00677
1.00619
1.00655
1.00737
1.00845
1.01084
1.01445
1.0173
1.01924
1.0207
1.02165
1.02176
1.02027
1.01862
1.01813
1.01856
1.01951
1.02206
1.02492
1.02679
1.02735
1.03006
1.11958
1.40134
0.936631
0.937587
0.938306
0.941024
0.943968
0.945249
0.945893
0.946442
0.945984
0.945389
0.94565
0.946174
0.946744
0.947862
0.951006
0.953557
0.954772
0.955437
0.955964
0.955321
0.954823
0.954986
0.955238
0.955504
0.956708
0.960277
0.963439
0.965019
0.965901
0.966191
0.964854
0.964061
0.963999
0.963974
0.964492
0.966054
0.970451
0.974145
0.975759
0.976868
0.977298
0.975634
0.973878
0.973511
0.973941
0.974616
0.975936
0.979948
0.983697
0.985296
0.986151
0.986681
0.985427
0.983485
0.983125
0.98354
0.984067
0.985002
0.987928
0.991971
0.994304
0.99566
0.99706
0.99759
0.995909
0.994581
0.994737
0.995476
0.996395
0.998042
1.0017
1.00505
1.00701
1.0085
1.00992
1.01031
1.00911
1.00794
1.00785
1.00829
1.00919
1.01114
1.01492
1.01838
1.02058
1.022
1.02276
1.02302
1.02186
1.01964
1.01857
1.01862
1.01938
1.02141
1.02465
1.02632
1.02974
1.12254
1.39814
0.937959
0.938252
0.938598
0.939628
0.943016
0.945965
0.947221
0.947889
0.948369
0.947779
0.947072
0.946772
0.946625
0.947102
0.948854
0.953105
0.955919
0.957133
0.957852
0.958224
0.9571
0.955808
0.955135
0.955174
0.955851
0.95796
0.962906
0.96613
0.967559
0.968391
0.968262
0.966205
0.96455
0.964201
0.964716
0.965674
0.968059
0.973197
0.976441
0.977766
0.978809
0.978974
0.976661
0.974757
0.97468
0.975316
0.976076
0.977657
0.98178
0.985254
0.986829
0.987786
0.988471
0.98729
0.98515
0.984402
0.984674
0.985274
0.986252
0.989293
0.993503
0.996036
0.997514
0.998685
0.999128
0.997879
0.996478
0.99634
0.996775
0.997456
0.998801
1.00234
1.00624
1.00871
1.01034
1.01155
1.01214
1.01116
1.00932
1.00868
1.00919
1.01022
1.01208
1.01578
1.01949
1.0217
1.0228
1.02331
1.02354
1.02299
1.02067
1.01903
1.01884
1.01945
1.02132
1.02388
1.02796
1.12471
1.39466
0.939522
0.938919
0.939114
0.939692
0.941659
0.945935
0.948371
0.949379
0.950009
0.950258
0.948869
0.947326
0.946933
0.947367
0.94833
0.951487
0.956288
0.958527
0.959544
0.960155
0.959544
0.956873
0.955393
0.955528
0.95628
0.957403
0.961085
0.966278
0.968537
0.969572
0.970369
0.969165
0.965854
0.964969
0.965552
0.9664
0.967627
0.971019
0.975835
0.978182
0.979332
0.980257
0.980026
0.977606
0.976175
0.976341
0.976933
0.977563
0.979104
0.983344
0.986803
0.988444
0.989476
0.990132
0.989086
0.986821
0.985952
0.986153
0.98668
0.987631
0.99048
0.994584
0.99721
0.998852
1.00033
1.00114
0.999833
0.997676
0.9971
0.997671
0.998642
1.00008
1.00352
1.00774
1.01034
1.01183
1.01276
1.01331
1.01272
1.01072
1.00999
1.01062
1.01174
1.01321
1.0163
1.02006
1.02226
1.02316
1.02356
1.02388
1.02385
1.02202
1.01991
1.01938
1.01991
1.02087
1.02522
1.12423
1.39081
0.941161
0.939771
0.939832
0.940414
0.941458
0.945011
0.948994
0.950549
0.951278
0.951782
0.950744
0.94827
0.947629
0.948132
0.948869
0.950593
0.955455
0.959285
0.960687
0.961471
0.961668
0.958972
0.95647
0.956484
0.957309
0.958345
0.960261
0.964817
0.968558
0.969951
0.970546
0.970364
0.968793
0.966986
0.967078
0.967942
0.968796
0.969941
0.973132
0.977076
0.979039
0.980157
0.981249
0.981357
0.979308
0.977873
0.977903
0.978383
0.978993
0.980514
0.984717
0.988173
0.98989
0.991136
0.991991
0.991023
0.988607
0.987482
0.987488
0.987796
0.988721
0.991604
0.996186
0.999212
1.00083
1.00177
1.00218
1.00112
0.999025
0.998481
0.999137
1.00025
1.00186
1.00503
1.00894
1.01145
1.01277
1.01361
1.01429
1.01416
1.01233
1.01144
1.01203
1.01321
1.01451
1.01694
1.02029
1.02239
1.02333
1.02384
1.02434
1.02457
1.02363
1.0215
1.02018
1.01959
1.0226
1.1213
1.38662
0.942885
0.941108
0.940867
0.94145
0.942125
0.943975
0.948343
0.95114
0.95228
0.952807
0.952493
0.950191
0.948991
0.949457
0.950248
0.951232
0.953896
0.958374
0.960581
0.961399
0.961736
0.961429
0.959324
0.958449
0.959042
0.959914
0.960701
0.962307
0.966203
0.969059
0.970324
0.97133
0.971937
0.970756
0.969424
0.969455
0.96991
0.97033
0.970987
0.973781
0.977851
0.980246
0.981716
0.983045
0.983274
0.981245
0.979657
0.979483
0.979606
0.980062
0.981763
0.986331
0.990026
0.991876
0.992999
0.993707
0.99263
0.989769
0.988326
0.988483
0.989128
0.990416
0.993298
0.997499
1.00031
1.00181
1.0028
1.00342
1.0027
1.00067
1.00011
1.00091
1.00215
1.00347
1.00584
1.00965
1.01233
1.01362
1.01446
1.01524
1.01529
1.01409
1.0135
1.01396
1.01481
1.01567
1.01701
1.01969
1.02201
1.02338
1.02421
1.0249
1.02541
1.02517
1.02356
1.02071
1.02105
1.11566
1.38229
0.94467
0.943187
0.942238
0.942565
0.943099
0.943789
0.946389
0.950593
0.952511
0.953405
0.953949
0.95317
0.951328
0.951049
0.951595
0.952203
0.952949
0.955527
0.959418
0.961412
0.962443
0.963306
0.963083
0.961324
0.96069
0.960967
0.961271
0.961574
0.962723
0.966719
0.970325
0.972232
0.973625
0.974395
0.973263
0.971488
0.970682
0.970553
0.970814
0.971573
0.974815
0.979439
0.982128
0.983687
0.985067
0.985035
0.982398
0.980395
0.980353
0.980791
0.981541
0.983697
0.988196
0.991739
0.993615
0.994595
0.994935
0.993707
0.9911
0.989972
0.990141
0.990798
0.991977
0.994503
0.998752
1.00187
1.00339
1.004
1.0043
1.00397
1.00232
1.00165
1.00237
1.00372
1.00518
1.00721
1.01026
1.01271
1.0141
1.01504
1.01605
1.01689
1.01661
1.01593
1.01556
1.0157
1.01614
1.01689
1.01881
1.02154
1.02362
1.02485
1.02559
1.02611
1.02633
1.02466
1.02226
1.10971
1.37808
0.946221
0.945763
0.94384
0.943444
0.943719
0.944188
0.945177
0.948622
0.95245
0.954158
0.955074
0.955625
0.954597
0.952959
0.952552
0.952703
0.953008
0.953675
0.956541
0.960973
0.963347
0.964613
0.965558
0.965181
0.96332
0.962039
0.961424
0.961407
0.961888
0.963563
0.968594
0.972648
0.974576
0.976024
0.976678
0.974883
0.972131
0.971166
0.971338
0.971856
0.973057
0.977126
0.981714
0.98411
0.985517
0.98641
0.985947
0.983463
0.98195
0.982023
0.982405
0.983154
0.985288
0.989804
0.993332
0.995065
0.995755
0.996024
0.995073
0.992486
0.991115
0.991347
0.99231
0.993902
0.996265
0.999737
1.00252
1.00386
1.00448
1.00504
1.00532
1.00441
1.004
1.0047
1.00584
1.0067
1.0077
1.00993
1.01278
1.01482
1.01617
1.01733
1.01835
1.01875
1.01813
1.01693
1.01629
1.01641
1.01697
1.0183
1.02116
1.02399
1.02553
1.02617
1.0266
1.02648
1.02583
1.10728
1.37399
0.947569
0.948027
0.94625
0.944714
0.944571
0.944917
0.945392
0.946658
0.950692
0.954419
0.956065
0.957058
0.95746
0.956032
0.954116
0.953362
0.95337
0.95377
0.95477
0.958563
0.963283
0.965555
0.966887
0.967766
0.966894
0.963865
0.962006
0.96192
0.962354
0.963161
0.965901
0.971636
0.975009
0.976574
0.977681
0.977887
0.975337
0.972713
0.972409
0.972858
0.973664
0.975458
0.979385
0.983192
0.985298
0.98654
0.987447
0.987249
0.984891
0.983243
0.983256
0.983814
0.984949
0.987341
0.991423
0.994706
0.996356
0.99681
0.996781
0.996141
0.994257
0.9932
0.993474
0.99447
0.995602
0.997086
0.999795
1.00284
1.00459
1.00542
1.00611
1.00704
1.00718
1.00659
1.0064
1.00684
1.00771
1.00861
1.01023
1.01296
1.01537
1.017
1.0183
1.01946
1.02023
1.01991
1.01834
1.01705
1.01684
1.01722
1.01816
1.02089
1.02418
1.02585
1.02651
1.02651
1.02782
1.10711
1.36996
0.9486
0.949533
0.949152
0.946964
0.945748
0.945712
0.946031
0.946611
0.948456
0.953216
0.956615
0.958052
0.958869
0.958926
0.956771
0.954512
0.954099
0.954501
0.955116
0.956609
0.961354
0.965679
0.967586
0.968713
0.969279
0.967347
0.963897
0.963032
0.963449
0.964161
0.965502
0.968933
0.973645
0.97621
0.97749
0.978264
0.978435
0.976351
0.974509
0.974483
0.974972
0.97564
0.977038
0.980593
0.984457
0.986726
0.987943
0.988508
0.988435
0.986633
0.985231
0.985267
0.985948
0.986974
0.988717
0.992139
0.995379
0.996951
0.99751
0.997876
0.997929
0.996551
0.995124
0.994905
0.995745
0.996981
0.998247
1.0002
1.0032
1.00544
1.00658
1.00739
1.00856
1.00947
1.00901
1.00838
1.00848
1.00889
1.00935
1.01016
1.01254
1.01553
1.01765
1.01921
1.02044
1.02133
1.02142
1.01984
1.01797
1.01737
1.01764
1.0183
1.02058
1.02403
1.02598
1.02637
1.02847
1.10843
1.36592
0.949215
0.950665
0.951053
0.950099
0.947669
0.946762
0.947008
0.947533
0.948227
0.950556
0.95544
0.958368
0.9597
0.960391
0.960004
0.957276
0.955531
0.955607
0.956139
0.956827
0.958793
0.963661
0.967143
0.968575
0.96933
0.969643
0.967897
0.965514
0.965172
0.965675
0.966308