/*--------------------------------*- C++ -*----------------------------------*\
  =========                 |
  \\      /  F ield         | OpenFOAM: The Open Source CFD Toolbox
   \\    /   O peration     | Website:  https://openfoam.org
    \\  /    A nd           | Version:  12
     \\/     M anipulation  |
\*---------------------------------------------------------------------------*/
FoamFile
{
    format      ascii;
    class       volScalarField;
    location    "1";
    object      rho;
}
// * * * * * * * * * * * * * * * * * * * * * * * * * * * * * * * * * * * * * //

dimensions      [1 -3 0 0 0 0 0];

internalField   nonuniform List<scalar> 
22702
(
1.40001
1.40001
1.24694
1.40001
1.4346
1.40001
1.83852
1.40001
1.40001
1.00776
1.83817
1.83829
1.40001
1.78993
1.26513
1.40001
1.40001
1.40001
1.83841
1.40001
1.78612
1.40001
1.84081
1.02718
1.79455
1.01883
1.40001
1.83894
1.00585
1.02667
1.40001
1.83848
1.40001
1.40001
1.40001
1.77332
1.79841
1.8405
1.40001
1.40001
1.00771
1.40001
1.59815
1.40001
1.83809
1.40001
1.40001
1.40001
1.40001
1.0252
1.40001
1.02682
1.40001
1.83822
1.40001
1.83854
1.40001
1.40001
1.40001
1.40001
1.01244
1.40001
1.40001
1.00786
1.40001
1.02239
1.40001
1.40001
1.40001
1.01093
1.40001
1.84192
1.6484
1.40001
1.8419
1.86242
1.0225
1.84013
1.02542
1.40001
1.8377
1.02966
1.83965
1.83983
1.40001
1.40001
1.40001
1.40001
1.30783
1.00988
1.83912
1.40001
1.40001
1.01187
1.40001
1.78564
1.0121
1.40001
1.40001
1.40001
1.40001
1.5984
1.83812
1.02018
1.40001
1.40001
1.48404
1.40001
1.02868
1.40001
1.83976
1.83871
1.40001
1.40001
1.00714
1.00753
1.00951
1.40001
1.40001
1.40001
1.40001
1.40001
1.28965
1.40001
1.75098
1.42019
1.83979
1.40001
1.83963
1.83824
1.78946
1.83792
1.40001
1.01054
1.40001
1.01322
1.40001
1.40001
1.40001
1.40001
1.83839
1.40001
1.40001
1.40001
1.40001
1.84196
1.40001
1.42695
1.40001
1.40001
1.40001
1.40001
1.02683
1.40001
1.41003
1.40001
1.02524
1.40001
1.40001
1.40001
1.83824
1.40001
1.84181
1.00846
1.01365
1.84166
1.84157
1.40001
1.45281
1.63081
1.40001
1.83859
1.02497
1.77367
1.40001
1.40001
1.40001
1.40001
1.78895
1.7547
1.40001
1.8383
1.00957
1.83884
1.40001
1.02418
1.40001
1.02533
1.01691
1.39989
1.40001
1.40001
1.83985
1.40001
1.40001
1.84183
1.40001
1.83961
1.83815
1.03425
1.40001
1.40001
1.02633
1.84166
1.40001
1.40001
1.40001
1.84159
1.40001
1.02487
1.40001
1.40001
1.84162
1.84143
1.83986
1.40001
1.40003
1.40001
1.40001
1.40001
1.78619
1.40001
1.01259
1.85476
1.8418
1.79077
1.40001
1.40001
1.40001
1.01372
1.84144
1.6259
1.40001
1.78846
1.02264
1.02276
1.78868
1.84245
1.40001
1.84679
1.01021
1.76076
1.40001
1.40001
1.40001
1.40001
1.84163
1.40001
1.66079
1.44363
1.40001
1.40001
1.84201
1.01471
1.14664
1.40001
1.84318
1.02612
1.84328
1.40001
1.40001
1.40001
1.40001
1.40001
1.40001
1.40001
1.0259
1.14183
1.02504
1.84183
1.40001
1.40001
1.40001
1.40001
1.79182
1.40001
1.02522
1.40001
1.00656
1.02674
1.84211
1.02729
1.785
1.40001
1.40001
1.40001
1.39764
1.02473
1.00844
1.4
1.40001
1.00485
1.40001
1.83843
1.0193
1.40001
1.40001
1.83759
1.00624
1.40001
1.84274
1.01426
1.84206
1.40001
1.01165
1.39773
1.40001
1.40001
1.40001
1.02554
1.40001
1.40001
1.40001
1.40001
1.40652
1.6492
1.40001
1.03546
1.40001
1.40001
1.40001
1.40001
1.40001
1.40001
1.40001
1.83782
1.40001
1.83952
1.40001
1.40001
1.40001
1.03451
1.40001
1.84187
1.02697
1.40001
1.65484
1.40001
1.40001
1.83907
1.40001
1.40001
1.40001
1.8289
1.40001
1.40001
1.83484
1.83812
1.40001
1.46919
1.40001
1.40001
1.01308
1.40001
1.40001
1.40001
1.01196
1.40001
1.40001
1.40001
1.40001
1.02359
1.40001
1.40001
1.40001
1.40001
1.40001
1.02058
1.40007
1.84188
1.40001
1.39999
1.84181
1.84144
1.40001
1.40001
1.03829
1.19578
1.83847
1.40001
1.40001
1.40001
1.84196
1.01122
1.40001
1.84183
1.40001
1.40001
1.09975
1.09245
1.40001
1.02513
1.03575
1.40001
1.40001
1.40001
1.40001
1.40001
1.40001
1.40001
1.83962
1.48674
1.81401
1.02329
1.30702
1.83826
1.40001
1.842
1.83884
1.0284
1.15648
1.40001
1.02677
1.40001
1.84769
1.40001
1.40001
1.40001
1.40001
1.84167
1.40001
1.40001
1.40001
1.40001
1.40001
1.40001
1.40001
1.55605
1.83894
1.40001
1.84177
1.40001
1.40001
1.02821
1.40001
1.40001
1.40001
1.40001
1.84153
1.7321
1.40001
1.40001
1.02463
1.8418
1.84151
1.40001
1.84151
1.84184
1.84156
1.40001
1.21165
1.40001
1.8418
1.36929
1.84158
1.40001
1.02733
1.39888
1.83772
1.40001
1.40001
1.40001
1.40001
1.03115
1.84208
1.76789
1.40001
1.79353
1.84195
1.8384
1.40001
1.60327
1.79143
1.40001
1.40001
1.6972
1.46718
1.84169
1.31178
1.84165
1.40001
1.84152
1.84158
1.84146
1.84171
1.40001
1.81952
1.31129
1.2808
1.40001
1.4
1.40001
1.40001
1.84507
1.40001
1.40001
1.40001
1.40001
1.40001
1.83785
1.40001
1.40001
1.39606
1.8415
1.78758
1.40001
1.77556
1.40005
1.40001
1.40001
1.84159
1.40001
1.39696
1.40495
1.40001
1.84132
1.40001
1.84097
1.40001
1.40001
1.71907
1.40001
1.84115
1.40003
1.40001
1.84238
1.40001
1.84154
1.40001
1.40001
1.40001
1.84168
1.40001
1.84152
1.40001
1.84163
1.83832
1.84202
1.83988
1.40001
1.83774
1.84055
1.40001
1.02538
1.7991
1.69375
1.40001
1.84172
1.40001
1.01371
1.01427
1.40001
1.40001
1.40001
1.40001
1.40001
1.01412
1.40001
1.84172
1.50629
1.84166
1.40001
1.40001
1.40001
1.40001
1.40001
1.84167
1.40001
1.84417
1.65736
1.15785
1.40001
1.40002
1.52585
1.5118
1.40001
1.40001
1.53729
1.40001
1.02252
1.84173
1.84167
1.40001
1.40001
1.40001
1.83839
1.40001
1.40003
1.80071
1.84186
1.34275
1.40001
1.40001
1.025
1.78847
1.40001
1.40001
1.40001
1.40001
1.40001
1.8415
1.83768
1.40001
1.84268
1.84035
1.84205
1.40001
1.40001
1.40001
1.40001
1.01834
1.83856
1.40001
1.40001
1.78227
1.8255
1.40001
1.79498
1.83894
1.40001
1.40001
1.40001
1.40001
1.40001
1.84135
1.40001
1.40001
1.40001
1.40001
1.84505
1.40001
1.83257
1.02808
1.40001
1.02934
1.40001
1.40001
1.40001
1.39692
1.02748
1.39905
1.40001
1.40001
1.40001
1.46307
1.40001
1.40001
1.26112
1.40001
1.40001
1.40001
1.40001
1.40001
1.40001
1.40001
1.4
1.32091
1.4
1.40001
1.39755
1.40001
1.02999
1.40001
1.40001
1.40001
1.40001
1.72135
1.40001
1.40001
1.40001
1.40001
1.02544
1.40001
1.40001
1.80217
1.83871
1.4
1.40001
1.40001
1.28214
1.40001
1.40001
1.40001
1.40001
1.40001
1.40001
1.34281
1.40654
1.78654
1.40001
1.40001
1.40001
1.84245
1.27387
1.40001
1.40001
1.40001
1.83968
1.83773
1.40001
1.40001
1.40001
1.40001
1.40001
1.40001
1.40001
1.40001
1.40001
1.03395
1.40001
1.40001
1.83922
1.02572
1.40001
1.83845
1.40001
1.02649
1.40001
1.40001
1.03403
1.40001
1.40001
1.40001
1.40001
1.40001
1.40001
1.40001
1.81526
1.82407
1.40001
1.40001
1.40001
1.40001
1.78406
1.40001
1.53316
1.02548
1.40001
1.40001
1.40001
1.40001
1.40001
1.40001
1.40001
1.43067
1.40001
1.40001
1.63765
1.40001
1.40001
1.40001
1.73883
1.40001
1.40001
1.40001
1.40001
1.02797
1.40001
1.40001
1.02129
1.02779
1.40001
1.40001
1.84186
1.40001
1.37546
1.40001
1.40001
1.40001
1.70119
1.03107
1.40001
1.02538
1.40001
1.1748
1.40001
1.40001
1.40001
1.8422
1.40001
1.40001
1.84161
1.40001
1.40001
1.40001
1.84161
1.40001
1.40001
1.84172
1.40001
1.40001
1.0284
1.40001
1.53085
1.40001
1.40001
1.83831
1.83813
1.69236
1.77447
1.40001
1.0277
1.40001
1.40001
1.81285
1.40001
1.03206
1.40001
1.40001
1.40001
1.84208
1.40001
1.40001
1.40001
1.40001
1.66041
1.40001
1.75056
1.84044
1.0111
1.40001
1.40001
1.0213
1.01983
1.40001
1.40001
1.40001
1.70977
1.72911
1.40001
1.40001
1.40001
1.40001
1.40001
1.40001
1.40001
1.58128
1.83851
1.40522
1.40001
1.78546
1.0111
1.40001
1.40001
1.40001
1.63947
1.40001
1.49003
1.40001
1.79159
1.81436
1.40001
1.02701
1.40001
1.83823
1.40001
1.40001
1.84176
1.7933
1.40001
1.84078
1.40001
1.00468
1.40001
1.40001
1.40001
1.84692
1.81394
1.77843
1.40001
1.84377
1.84166
1.40001
1.84249
1.40001
1.81549
1.40001
1.02664
1.36819
1.03336
1.40001
1.40001
1.40001
1.40001
1.40001
1.84168
1.40001
1.84179
1.40001
1.40001
1.40001
1.80045
1.40001
1.02653
1.84167
1.40001
1.02442
1.05074
1.03549
1.40001
1.61254
1.42637
1.82179
1.84168
1.40001
1.4
1.40001
1.40001
1.8418
1.40001
1.40001
1.84174
1.84171
1.40001
1.53203
1.4001
1.40001
1.39681
1.83821
1.24147
1.40001
1.21823
1.02499
1.02291
1.32574
1.84105
1.8119
1.48187
1.82699
1.84186
1.40001
1.40001
1.83781
1.83984
1.84191
1.83884
1.40001
1.81625
1.02435
1.84122
1.84098
1.83943
1.84134
1.26071
1.28909
1.32118
1.84191
1.34477
1.84162
1.40001
1.40001
1.81981
1.84169
1.40001
1.02653
1.84131
1.8418
1.40001
1.84168
1.84171
1.40001
1.84198
1.02502
1.8416
1.83835
1.83803
1.84474
1.40001
1.40001
1.40001
1.84178
1.6794
1.03684
1.84156
1.02402
1.84184
1.40001
1.40001
1.40001
1.40001
1.84113
1.84174
1.40001
1.40001
1.84165
1.03198
1.84219
1.02633
1.40001
1.81774
1.40001
1.00636
1.84317
1.12351
1.40001
1.84164
1.84422
1.84277
1.40001
1.40001
1.53775
1.84363
1.02539
1.84169
1.40001
1.83954
1.27226
1.84221
1.03517
1.40001
1.84285
1.07128
1.8194
1.02848
1.40001
1.84209
1.40001
1.84022
1.40001
1.63572
1.80943
1.73699
1.0176
1.40001
1.84167
1.40001
1.8403
1.40001
1.84195
1.40001
1.40001
1.84163
1.3602
1.84433
1.00397
1.7969
1.40001
1.68986
1.40001
1.84185
1.84179
1.84176
1.40001
1.7766
1.84124
1.78699
1.66791
1.84078
1.40001
1.68744
1.40001
1.84167
1.40001
1.45312
1.40001
1.80026
1.40001
1.84003
1.81007
1.80166
1.40001
1.83541
1.01551
1.40001
1.02839
1.40001
1.40001
1.40001
1.83849
1.40001
1.84234
1.40001
1.40001
1.40001
1.84245
1.83316
1.76444
1.84065
1.84264
1.02883
1.84594
1.83803
1.40001
1.77898
1.84179
1.83042
1.40001
1.83822
1.83846
1.40001
1.8472
1.84176
1.8414
1.84307
1.40001
1.40001
1.40001
1.84111
1.01248
1.40001
1.84182
1.40001
1.40001
1.01357
1.40001
1.40001
1.84164
1.84169
1.40001
1.84169
1.8455
1.84185
1.36852
1.84169
1.40001
1.84166
1.84163
1.75655
1.40001
1.40001
1.40001
1.84137
1.84134
1.84178
1.33793
1.40001
1.84744
1.84107
1.84146
1.40001
1.84125
1.84173
1.84178
1.84834
1.40001
1.84184
1.84408
1.78214
1.84256
1.84738
1.40001
1.84263
1.82163
1.84176
1.84089
1.84252
1.02215
1.84173
1.84228
1.40001
1.84128
1.84168
1.84169
1.84205
1.40001
1.8415
1.84126
1.40001
1.84174
1.76072
1.40001
1.40001
1.40001
1.84181
1.84759
1.40001
1.40001
1.6367
1.40001
1.787
1.40001
1.40001
1.84186
1.78761
1.84175
1.84179
1.40001
1.40001
1.40001
1.70824
1.40001
1.84132
1.40001
1.40001
1.83783
1.8382
1.40001
1.84184
1.01644
1.84203
1.841
1.09346
1.40001
1.0187
1.78265
1.84068
1.8407
1.84044
1.0248
1.84114
1.84277
1.02485
1.02147
1.40001
1.84044
1.8418
1.40001
1.40001
1.84171
1.40001
1.8426
1.40001
1.77575
1.40001
1.58446
1.84196
1.84414
1.70496
1.80794
1.83841
1.84281
1.82173
1.40001
1.01235
1.84072
1.84163
1.84707
1.40002
1.40001
1.40001
1.84474
1.40001
1.84192
1.84132
1.14328
1.40001
1.84183
1.39994
1.40001
1.40003
1.40005
1.84166
1.84129
1.39847
1.40001
1.40001
1.84077
1.8437
1.84114
1.84581
1.84053
1.03921
1.77946
1.40001
1.81893
1.84164
1.84179
1.8411
1.40001
1.8417
1.80887
1.84307
1.40001
1.84142
1.84132
1.24837
1.84163
1.84163
1.40001
1.84167
1.22593
1.84164
1.24606
1.8419
1.40001
1.83802
1.84364
1.8418
1.84201
1.83746
1.83917
1.84243
1.83975
1.40001
1.31319
1.84165
1.84169
1.22739
1.84186
1.37253
1.68842
1.84163
1.84188
1.84178
1.40001
1.84428
1.68916
1.84349
1.31662
1.84392
1.84562
1.40001
1.25316
1.40001
1.84093
1.40001
1.68348
1.40001
1.82504
1.25573
1.40001
1.84387
1.84228
1.40001
1.84143
1.82152
1.84817
1.83519
1.84383
1.40001
1.83838
1.40001
1.40001
1.40001
1.28946
1.84169
1.84152
1.84156
1.84185
1.84308
1.84207
1.84201
1.84231
1.28906
1.4316
1.40001
1.40001
1.84303
1.84204
1.84187
1.84191
1.40003
1.62625
1.40001
1.84681
1.78593
1.40001
1.40001
1.12293
1.84165
1.40001
1.40001
1.02343
1.84185
1.40001
1.83808
1.84177
1.83827
1.80204
1.83982
1.40001
1.02333
1.50302
1.84161
1.83959
1.40001
1.83959
1.84165
1.61444
1.41136
1.50322
1.40001
1.84002
1.84141
1.40001
1.40001
1.0269
1.40001
1.40001
1.84178
1.8419
1.84108
1.84153
1.84143
1.83879
1.82667
1.8434
1.84179
1.40001
1.39623
1.84092
1.84095
1.39704
1.8418
1.84161
1.02476
1.0112
1.8424
1.84136
1.40001
1.40001
1.40149
1.84185
1.84102
1.84189
1.40001
1.84179
1.40001
1.23102
1.84765
1.8427
1.40001
1.59438
1.84176
1.40001
1.83838
1.40001
1.8419
1.6892
1.84054
1.40001
1.8423
1.84483
1.02549
1.84174
1.40001
1.84138
1.83905
1.40001
1.02691
1.84233
1.76993
1.39762
1.83235
1.84165
1.40001
1.38509
1.84103
1.39822
1.84164
1.40001
1.40001
1.84118
1.40001
1.84129
1.84175
1.39644
1.75816
1.40001
1.84166
1.40001
1.40001
1.40001
1.40001
1.84196
1.40001
1.40001
1.83752
1.40001
1.84115
1.40001
1.66257
1.84353
1.8416
1.40001
1.40001
1.38641
1.40001
1.84188
1.84198
1.84129
1.8413
1.84134
1.84181
1.84126
1.40001
1.84206
1.84138
1.40001
1.84154
1.84183
1.40001
1.841
1.31199
1.45786
1.84202
1.84155
1.8415
1.40001
1.84125
1.40001
1.84183
1.84164
1.40001
1.8408
1.40001
1.40001
1.40001
1.40001
1.84158
1.01734
1.3979
1.40001
1.84168
1.84135
1.40001
1.84166
1.40001
1.40552
1.02862
1.83496
1.39959
1.40001
1.84204
1.39838
1.8412
1.40001
1.39978
1.40001
1.841
1.84415
1.84233
1.84294
1.02987
1.84256
1.84069
1.84176
1.50989
1.40001
1.40001
1.58465
1.84142
1.01527
1.03161
1.40001
1.84175
1.84166
1.84237
1.40001
1.40001
1.84058
1.84192
1.39988
1.40001
1.72111
1.02017
1.40001
1.47856
1.8382
1.83996
1.39826
1.84204
1.84794
1.40001
1.39924
1.40001
1.84047
1.83867
1.58173
1.40001
1.81357
1.40001
1.40209
1.84109
1.0089
1.8413
1.84213
1.39699
1.39992
1.78331
1.40001
1.3997
1.40001
1.84277
1.40001
1.40002
1.01628
1.84157
1.40001
1.40001
1.40001
1.40001
1.84625
1.63015
1.40001
1.40001
1.03209
1.84068
1.63136
1.40001
1.40001
1.40001
1.78789
1.82396
1.84202
1.40001
1.40001
1.84708
1.40001
1.84167
1.84156
1.40001
1.40001
1.81577
1.8418
1.81993
1.40001
1.40001
1.8175
1.84251
1.40001
1.40001
1.40001
1.84254
1.40001
1.40001
1.40001
1.84192
1.84522
1.84402
1.40001
1.84557
1.40004
1.08128
1.84139
1.84119
1.40001
1.83998
1.82864
1.83836
1.40001
1.40001
1.84453
1.40001
1.63207
1.84114
1.40001
1.02736
1.40001
1.81353
1.40001
1.40001
1.84392
1.40001
1.40001
1.40001
1.54033
1.84121
1.057
1.40002
1.81391
1.40001
1.40001
1.84208
1.40001
1.84496
1.40001
1.40001
1.84173
1.8418
1.40001
1.40006
1.40001
1.40001
1.40001
1.40001
1.40001
1.40001
1.84059
1.84176
1.40001
1.83834
1.03481
1.83976
1.40001
1.84215
1.84822
1.84218
1.84596
1.84155
1.40001
1.40001
1.84325
1.40001
1.67247
1.84594
1.84177
1.40001
1.84425
1.84114
1.40001
1.79354
1.40001
1.8421
1.66738
1.84345
1.39754
1.83397
1.80047
1.8428
1.84254
1.43705
1.84167
1.84477
1.40001
1.84179
1.40001
1.84165
1.40001
1.40001
1.40001
1.40001
1.39658
1.842
1.84192
1.76682
1.40001
1.84447
1.40001
1.40001
1.40001
1.0099
1.40001
1.83138
1.40001
1.77423
1.82938
1.40001
1.40001
1.40001
1.82333
1.83808
1.40001
1.40001
1.84157
1.03465
1.45892
1.40001
1.84537
1.84161
1.77548
1.83073
1.84166
1.40001
1.8434
1.40001
1.40001
1.40001
1.40001
1.84314
1.84215
1.40001
1.82792
1.44113
1.84159
1.78199
1.40001
1.40001
1.78325
1.40001
1.40001
1.01582
1.71277
1.40001
1.40001
1.84284
1.40001
1.84522
1.80276
1.40001
1.80183
1.03353
1.84122
1.84174
1.80808
1.40001
1.02039
1.40001
1.40001
1.40001
1.84173
1.75949
1.40001
1.84479
1.84179
1.40001
1.84201
1.40001
1.40001
1.40001
1.40001
1.84167
1.39936
1.40001
1.81455
1.40001
1.40001
1.84012
1.80909
1.40001
1.84482
1.4907
1.40003
1.40001
1.84134
1.40001
1.84127
1.40001
1.41424
1.84177
1.40001
1.84174
1.40001
1.40001
1.54017
1.84164
1.40001
1.40001
1.40001
1.40001
1.40001
1.3974
1.03395
1.02427
1.42055
1.40001
1.4091
1.40001
1.40903
1.40001
1.84176
1.40001
1.67599
1.40001
1.84221
1.40001
1.40001
1.40001
1.84216
1.40001
1.74699
1.84245
1.40001
1.63427
1.84226
1.40001
1.40001
1.83895
1.84161
1.40001
1.40001
1.43562
1.01552
1.40001
1.84274
1.40001
1.40001
1.40001
1.40001
1.47405
1.84196
1.40001
1.40001
1.40001
1.01475
1.40001
1.84182
1.84161
1.84792
1.40001
1.40001
1.40001
1.40001
1.62512
1.84939
1.40001
1.40001
1.40001
1.84352
1.8101
1.43759
1.40001
1.40001
1.40001
1.84159
1.80784
1.40001
1.02788
1.84181
1.8142
1.84152
1.84295
1.84056
1.40001
1.40001
1.84705
1.84237
1.84161
1.01077
1.44124
1.84176
1.40001
1.40001
1.40001
1.40001
1.40001
1.84166
1.03313
1.40001
1.40001
1.84167
1.59661
1.40001
1.84633
1.40001
1.40001
1.40001
1.03035
1.40001
1.40001
1.51567
1.84183
1.83241
1.40001
1.84007
1.84275
1.40001
1.4603
1.40001
1.84706
1.40001
1.84181
1.03691
1.40001
1.40001
1.40001
1.40001
1.84218
1.40007
1.40001
1.40001
1.40001
1.82206
1.40001
1.40001
1.40001
1.40001
1.84207
1.03178
1.75426
1.84438
1.40001
1.8359
1.40001
1.40001
1.40001
1.39713
1.40001
1.84054
1.40001
1.20022
1.40001
1.40001
1.40004
1.84163
1.0298
1.40001
1.84331
1.40001
1.84311
1.81319
1.01239
1.40001
1.40001
1.83058
1.40001
1.40001
1.00236
1.40001
1.83706
1.40001
1.78904
1.39931
1.8382
1.40001
1.40001
1.40001
1.40001
1.83915
1.40001
1.40001
1.80975
1.40001
1.40001
1.40001
1.40001
1.40001
1.40001
1.40001
1.40001
1.68849
1.40001
1.5462
1.84133
1.40001
1.40001
1.40001
1.03296
1.40001
1.40001
1.40001
1.40001
1.84356
1.84154
1.44049
1.40001
1.40001
1.81515
1.40001
1.40001
1.84158
1.40001
1.40002
1.40001
1.40001
1.40001
1.40002
1.84195
1.1743
1.80769
1.81483
1.39691
1.40001
1.40001
1.40001
1.64222
1.40001
1.40001
1.84105
1.84185
1.40001
1.40001
1.40001
1.40001
1.0123
1.40001
1.40001
1.40001
1.67935
1.40001
1.84213
1.84486
1.40001
1.83309
1.40001
1.40001
1.40001
1.62129
1.40001
1.83845
1.40001
1.80629
1.40001
1.40001
1.39602
1.81132
1.40001
1.40001
1.40001
1.40001
1.40001
1.84024
1.40002
1.40001
1.01418
1.84179
1.0065
1.40001
1.84122
1.40001
1.39606
1.40001
1.84262
1.84389
1.40001
1.83526
1.26938
1.81232
1.84557
1.40004
1.40001
1.40001
1.03302
1.40001
1.40001
1.40001
1.84079
1.65683
1.8406
1.40001
1.40001
1.40001
1.40001
1.39678
1.84066
1.40001
1.03759
1.40001
1.40001
1.40001
1.40001
1.40001
1.40001
1.40001
1.84748
1.84218
1.83979
1.40001
1.40001
1.39692
1.40001
1.36726
1.40001
1.40001
1.40001
1.02436
1.36444
1.40001
1.04436
1.03228
1.40001
1.80927
1.8419
1.40001
1.84233
1.84135
1.03532
1.69174
1.40001
1.40001
1.40001
1.03763
1.84205
1.40001
1.03469
1.40001
1.84304
1.45883
1.40001
1.40001
1.40001
1.40001
1.81185
1.83943
1.40001
1.40001
1.81038
1.40001
1.40001
1.83935
1.8157
1.40001
1.81077
1.83428
1.83955
1.34956
1.8412
1.40889
1.03431
1.74003
1.83743
1.40001
1.40001
1.40001
1.02513
1.40001
1.03336
1.844
1.34696
1.80935
1.33904
1.40001
1.8387
1.58505
1.40001
1.40001
1.84119
1.40001
1.56411
1.84279
1.40001
1.40001
1.83818
1.84557
1.03421
1.65577
1.3999
1.40001
1.67302
1.40001
1.84686
1.32497
1.85004
1.8432
1.40001
1.40001
1.40001
1.40001
1.83471
1.40001
1.40001
1.8423
1.39965
1.84165
1.756
1.82715
1.03265
1.40001
1.40001
1.40001
1.40001
1.84162
1.40005
1.84179
1.40001
1.84118
1.84049
1.45643
1.84326
1.54041
1.8418
1.40001
1.68176
1.06644
1.84246
1.84173
1.75825
1.45872
1.84002
1.8109
1.84217
1.84254
1.40001
1.31342
1.46533
1.40001
1.84141
1.60931
1.84172
1.40004
1.40001
1.40001
1.05607
1.83487
1.8403
1.75838
1.40001
1.56817
1.40001
1.84372
1.84365
1.40001
1.84163
1.84091
1.40001
1.40001
1.40001
1.84052
1.40001
1.57491
1.84086
1.70529
1.40001
1.84132
1.40001
1.40001
1.40001
1.40001
1.40001
1.40001
1.40001
1.40001
1.40001
1.40001
1.04447
1.40001
1.81004
1.02186
1.64131
1.39858
1.83051
1.40001
1.63379
1.40002
1.66357
1.7775
1.40001
1.4025
1.84687
1.31337
1.40001
1.83845
1.84079
1.32516
1.40001
1.84233
1.84168
1.84396
1.40001
1.842
1.84149
1.84047
1.40001
1.59884
1.40001
1.40006
1.8417
1.40001
1.84148
1.46487
1.84037
1.40001
1.40001
1.84038
1.84038
1.05386
1.40001
1.84142
1.73215
1.79924
1.40001
1.40001
1.83966
1.84082
1.39825
1.40001
1.78704
1.3969
1.84155
1.40008
1.40001
1.40001
1.40001
1.40001
1.59866
1.40001
1.74894
1.84203
1.7308
1.84276
1.40001
1.40319
1.40001
1.40001
1.83977
1.40001
1.84044
1.40001
1.40001
1.40001
1.40001
1.4
1.40001
1.45525
1.63005
1.40001
1.40001
1.01307
1.40001
1.84344
1.04785
1.84512
1.40001
1.61769
1.39976
1.84117
1.66569
1.04536
1.62589
1.40004
1.84183
1.84092
1.40001
1.64646
1.8442
1.8413
1.3984
1.84189
1.78288
1.02537
1.40001
1.40001
1.39788
1.40001
1.83583
1.40001
1.05178
1.84317
1.40001
1.40001
1.79833
1.40001
1.84185
1.40001
1.84205
1.40001
1.06671
1.40001
1.40001
1.84208
1.84603
1.84232
1.40001
1.81721
1.8417
1.84343
1.40001
1.40001
1.82847
1.4
1.12844
1.40001
1.40001
1.40001
1.84195
1.40001
1.84168
1.68713
1.81509
1.40001
1.80874
1.39939
1.40001
1.40001
1.40001
1.40001
1.40001
1.40001
1.09691
1.40001
1.40001
1.80826
1.40001
1.84509
1.83577
1.40001
1.03761
1.03391
1.40001
1.84314
1.47772
1.03273
1.00436
1.40001
1.84239
1.40001
1.84433
1.02714
1.40143
1.40001
1.40001
1.39953
1.40001
1.40001
1.40001
1.39992
1.56625
1.84193
1.40001
1.40001
1.84264
1.66187
1.40001
1.81165
1.81233
1.84164
1.56717
1.83888
1.40001
1.80796
1.40001
1.8354
1.40001
1.84311
1.84067
1.39686
1.84237
1.83048
1.40001
1.40001
1.40001
1.40001
1.40001
1.31521
1.83934
1.40005
1.40003
1.00459
1.39999
1.02333
1.01346
1.40001
1.8418
1.84133
1.84174
1.40001
1.84187
1.40001
1.03565
1.40001
1.40001
1.84147
1.22064
1.84222
1.40001
1.84236
1.40001
1.37414
1.84146
1.40001
1.40001
1.40001
1.84387
1.40001
1.84169
1.03399
1.40001
1.40001
1.65812
1.40001
1.40001
1.62473
1.40001
1.40001
1.84118
1.40001
1.40001
1.40001
1.40001
1.40001
1.8452
1.84218
1.40001
1.84141
1.84111
1.03886
1.58655
1.81886
1.40001
1.40001
1.79765
1.39896
1.40001
1.40001
1.84209
1.82781
1.69055
1.40001
1.8418
1.04701
1.81224
1.39962
1.40001
1.84266
1.40004
1.8135
1.76519
1.73869
1.40001
1.40001
1.84154
1.10204
1.01171
1.40001
1.84168
1.40001
1.84148
1.40001
1.64589
1.40001
1.40001
1.80012
1.68283
1.03776
1.40001
1.39807
1.40001
1.40001
1.42642
1.56314
1.84159
1.40001
1.84531
1.40001
1.40001
1.40001
1.40001
1.40001
1.40001
1.46633
1.03491
1.40001
1.40001
1.41918
1.40001
1.40001
1.40001
1.40001
1.40001
1.84081
1.40001
1.40001
1.84185
1.84108
1.7146
1.40001
1.40001
1.40001
1.22733
1.84365
1.70863
1.40001
1.40001
1.40001
1.40001
1.84153
1.40001
1.40001
1.40001
1.84393
1.40001
1.40001
1.71886
1.85377
1.42938
1.13998
1.82848
1.71299
1.84171
1.40001
1.60637
1.40001
1.40001
1.40001
1.01921
1.40278
1.00116
1.40001
1.02674
1.02113
1.40001
1.03883
1.40001
1.40001
1.40001
1.57631
1.40001
1.84178
1.84089
1.40146
1.61414
1.77127
1.015
1.14329
1.2677
1.40001
1.8151
1.83944
1.8136
1.842
1.76601
1.26326
1.40001
1.76834
1.40001
1.82344
1.40001
1.40001
1.39649
1.40924
1.40001
1.40001
1.40001
1.84106
1.40001
1.01459
1.40001
1.84302
1.01426
1.40001
1.40001
1.84196
1.40001
1.80716
1.39952
1.40001
1.40001
1.81386
1.79406
1.40001
1.8545
1.40001
1.40001
1.41476
1.40001
1.59788
1.40001
1.40001
1.03836
1.40001
1.40001
1.81357
1.4
1.84027
1.40001
1.40004
1.01753
1.40001
1.40001
0.999927
1.40082
1.40001
1.84019
1.02265
1.84359
1.03327
1.84148
1.40001
1.40001
1.40001
1.40001
1.40001
1.40001
1.40001
1.40001
1.40001
1.40001
1.40001
1.8003
1.40001
1.81376
1.83922
1.03474
1.40001
1.40001
1.40001
1.40001
1.40001
1.40001
1.7931
1.40001
1.40001
1.03585
1.40001
1.40001
1.83961
1.40001
1.40001
1.57214
1.76818
1.03246
1.02988
1.07386
1.13269
1.40001
1.39674
1.00103
1.40023
1.80589
1.39688
1.40001
1.40001
1.84165
1.40001
1.40001
1.40001
1.14566
1.40002
1.56197
1.40001
1.40001
1.57939
1.8414
1.40001
1.02546
1.40001
1.40001
1.40001
1.39677
1.40001
1.84243
1.84189
1.40001
1.03276
1.40001
1.62209
1.03501
1.40001
1.26885
1.40001
1.39669
1.01951
1.40001
1.40001
1.40001
1.39594
1.01442
1.40001
1.02629
1.39842
1.62342
1.80364
1.02957
1.02919
1.40001
1.3902
1.40001
1.39863
1.40001
1.83805
1.83685
1.40001
1.39378
1.84174
1.83319
1.40001
1.40001
1.84197
1.40001
1.40001
1.40005
1.40001
1.8423
1.40001
1.40001
1.41802
1.40001
1.39857
1.07027
1.40001
1.40001
1.40001
1.40001
1.40001
1.84428
1.41783
1.40006
1.40001
1.40001
1.40001
1.40001
1.40001
1.40004
1.40001
1.03788
1.48198
1.39861
1.8377
1.84083
1.40001
1.41325
1.84172
1.79136
1.40001
1.40001
1.01414
1.84186
1.40001
1.83983
1.40001
1.84146
1.70466
1.03428
1.40001
1.03487
1.80369
1.39968
1.40001
1.03499
1.01632
1.40001
1.40001
1.74743
1.40001
1.4
1.0292
1.40001
1.40001
1.40001
1.54366
1.40001
1.03471
1.84256
1.40001
1.40001
1.40001
1.40001
1.80832
1.40001
1.40001
1.8314
1.7962
1.40001
1.40001
1.40001
1.8434
1.03837
1.40001
1.84168
1.84191
1.40001
1.75312
1.4
1.40003
1.40001
1.40001
1.81969
1.39466
1.40001
1.01547
1.64991
1.40001
1.40001
1.39757
1.40001
1.40001
1.84314
1.40001
1.40001
1.40004
1.40001
1.84112
1.40001
1.40001
1.40001
1.40001
1.40001
1.40001
1.40002
1.59328
1.40001
1.8413
1.40001
1.40001
1.84311
1.40001
1.40001
1.40001
1.80965
1.82567
1.44628
1.40001
1.3976
1.40001
1.40001
1.40001
1.40001
1.8391
1.40001
1.40001
1.84165
1.03508
1.40001
1.40001
1.40001
1.40001
1.40001
1.40001
1.74235
1.40001
1.40001
1.84365
1.84208
1.40001
1.40001
1.40001
1.84155
1.84317
1.40001
1.39972
1.84253
1.40001
1.40001
1.40001
1.40002
1.00794
1.42911
1.39617
1.39584
1.40001
1.40001
1.02078
1.84183
1.40001
1.01767
1.40001
1.84075
1.82266
1.03192
1.39941
1.84186
1.8415
1.84117
1.40001
1.40001
1.30756
1.79482
1.77316
1.01792
1.40001
1.40001
1.40001
1.81992
1.84191
1.03296
1.39731
1.40001
1.84163
1.01252
1.40001
1.83378
1.03793
1.35853
1.40703
1.40001
1.84165
1.40001
1.40001
1.40001
1.40001
1.40001
1.40001
1.40011
1.77823
1.40001
1.40001
1.8462
1.40001
1.40001
1.40001
1.84171
1.40001
1.03725
1.40001
1.40001
1.40001
1.55527
1.40001
1.40001
1.40001
1.40001
1.40001
1.17745
1.40001
1.00967
1.40001
1.84186
1.40007
1.26011
1.26609
1.40002
1.40504
1.62135
1.40001
1.40001
1.03461
1.84174
1.84171
1.84185
1.40001
1.02542
1.02606
1.40001
1.84115
1.40001
1.40001
1.40001
1.40001
1.40001
1.40004
1.40001
1.03331
1.68632
1.40001
1.40001
1.0328
1.37849
1.40001
1.40001
1.40001
1.40001
1.01766
1.40001
1.05519
1.40001
1.40001
1.84099
1.40001
1.40001
1.03334
1.40001
1.84163
1.40001
1.01566
1.40001
1.03763
1.40001
1.40806
1.83975
1.85227
1.40001
1.40001
1.83983
1.40001
1.40001
1.48178
1.3968
1.40001
1.39822
1.40001
1.8441
1.40001
1.00798
1.40002
1.83838
1.39903
1.40001
1.40001
1.18119
1.40001
1.39901
1.03594
1.8414
1.54243
1.40001
1.40001
1.28334
1.40001
1.40001
1.40001
1.17923
1.40001
1.40001
1.40001
1.83413
1.40001
1.03438
1.4
1.40001
1.40001
1.40001
1.02735
1.84167
1.80346
1.03838
1.40001
1.83948
1.40001
1.40001
1.81957
1.84048
1.77093
1.03101
1.3977
1.39921
1.40001
1.84158
1.40001
1.40001
1.40001
1.40001
1.84073
1.40005
1.40001
1.40001
1.83984
1.40001
1.40001
1.84176
1.03054
1.40001
1.40001
1.40001
1.03324
1.40001
1.4
1.4
1.39861
1.40001
1.40001
1.40001
1.40001
1.75722
1.40001
1.83993
1.84138
1.84954
1.84166
1.84184
1.84164
1.40001
1.84148
1.40001
1.84164
1.80536
1.40001
1.39882
1.03177
1.77728
1.39991
1.40001
1.40001
1.40001
1.40001
1.37841
1.40001
1.47264
1.40001
1.40001
1.40001
1.24186
1.84175
1.84079
1.84299
1.78481
1.39988
1.40001
1.42274
1.84217
1.3979
1.44201
1.39726
1.01879
1.40001
1.40003
1.40001
1.40001
1.40001
1.40001
1.40001
1.84261
1.03387
1.84269
1.84181
1.39552
1.0162
1.40001
1.40001
1.40001
1.84149
1.01108
1.7892
1.02644
1.84171
1.84162
1.0374
1.82548
1.42304
1.40001
1.84451
1.18327
1.40001
1.39874
1.02259
1.40001
1.01868
1.40001
1.84168
1.8115
1.13938
1.40001
1.84038
1.01758
1.40001
1.03722
1.40001
1.84162
1.40001
1.40001
1.84112
1.40001
1.22834
1.40001
1.39966
1.01795
1.84585
1.39949
1.40001
1.01075
1.40001
1.40001
1.40001
1.40001
1.6336
1.40001
1.84181
1.40001
1.40001
1.84702
1.40001
1.40001
1.84184
1.40001
1.01789
1.40001
1.02672
1.40002
1.40001
1.40001
1.40001
1.40001
1.82121
1.65775
1.84177
1.40001
1.81042
1.81022
1.01746
1.02299
1.40001
1.40001
1.84232
1.40001
1.01922
1.40001
1.37633
1.40001
1.40001
1.84161
1.40001
1.82791
1.02301
1.8498
1.40001
1.02306
1.40001
1.40001
1.8434
1.79184
1.40001
1.40005
1.40001
1.83403
1.40001
1.40001
1.01356
1.39943
1.00587
1.40001
1.40001
1.40001
1.80087
1.84482
1.84037
1.40001
1.40001
1.01673
1.40001
1.82237
1.40001
1.40001
1.40001
1.81913
1.81491
1.8416
1.01351
1.8438
1.84184
1.03951
1.84021
1.40005
1.03979
1.40509
1.40001
1.40001
1.84254
1.01453
1.66307
1.01521
1.84183
1.39735
1.03139
1.84359
1.40001
1.40001
1.40001
1.40001
1.82243
1.83992
1.03771
1.40001
1.40003
1.03701
1.40004
1.40001
1.03089
1.00895
1.6863
1.82381
1.39847
1.84166
1.40001
1.84549
1.21211
1.03342
1.84177
1.85138
1.40001
1.84194
1.40001
1.40001
1.84173
1.40001
1.74196
1.8401
1.40001
1.40001
1.40001
1.40001
1.84203
1.79177
1.84083
1.40001
1.40001
1.84128
1.8384
1.84076
1.40001
1.84193
1.40001
1.40001
1.40001
1.40001
1.40001
1.03457
1.23006
1.02347
1.40001
1.40001
1.84129
1.40001
1.40001
1.84242
1.02683
1.40001
1.84181
1.79273
1.82246
1.01654
1.40001
1.01414
1.40001
1.40003
1.83957
1.61416
1.83891
1.80106
1.40001
1.01756
1.40001
1.8143
1.70233
1.02068
1.40001
1.40001
1.40001
1.17711
1.40001
1.40001
1.84605
1.40001
1.0212
1.84183
1.40001
1.40001
1.40001
1.40001
1.40001
1.7394
1.49739
1.40001
1.84143
1.40001
1.81851
1.40001
1.39713
1.40001
1.84185
1.8446
1.83907
1.84571
1.39958
1.83907
1.40001
1.8415
1.84081
1.74865
1.40001
1.40001
1.02448
1.83992
1.40001
1.40001
1.84366
1.84165
1.82211
1.40001
1.84159
1.40001
1.40001
1.40004
1.84442
1.82199
1.52634
1.4938
1.84203
1.8388
1.05939
1.40001
1.40001
1.40001
1.40001
1.40001
1.55715
1.40001
1.40001
1.77163
1.00283
1.39998
1.40001
1.84159
1.39989
1.39981
1.46645
1.81607
1.83907
1.29131
1.40001
1.00843
1.40001
1.37848
1.8418
1.84414
1.84295
1.399
1.40001
1.40001
1.03432
1.40001
1.40001
1.84181
1.44844
1.40001
1.40001
1.40001
1.40001
1.40001
1.40001
1.40001
1.39994
1.84086
1.40002
1.40001
1.40001
1.40001
1.40001
1.68488
1.40001
1.6086
1.40001
1.40001
1.84178
1.84634
1.0294
1.39875
1.40001
1.4
1.40001
1.03722
1.83938
1.82132
1.40001
1.40001
1.40001
1.40001
1.40001
1.40001
1.40001
1.40001
1.84085
1.83764
1.02116
1.44991
1.03344
1.40001
1.02439
1.40001
1.84119
1.52439
1.40001
1.40001
1.08428
1.40001
1.823
1.18778
1.39664
1.03314
1.40001
1.40001
1.83834
1.40005
1.39723
1.01664
1.84035
1.8429
1.40001
1.40001
1.40001
1.40001
1.77921
1.40001
1.40001
1.81427
1.39893
1.84143
1.40004
1.40001
1.40001
1.02335
1.40001
1.40001
1.84185
1.034
1.14881
1.02853
1.84189
1.39932
1.40001
1.82139
1.0301
1.02693
1.40485
1.40001
1.40001
1.83932
1.40004
1.59769
1.40001
1.40001
1.83921
1.03652
1.40001
1.40001
1.40015
1.84066
1.40013
1.83946
1.40001
1.40004
1.40001
1.40001
1.09478
1.40001
1.17301
1.40002
1.40001
1.83995
1.02452
1.40001
1.16024
1.18578
1.40001
1.40001
1.84184
1.40001
1.40001
1.40001
1.84174
1.83592
1.40006
1.82883
1.83911
1.16446
1.84204
1.82078
1.40001
1.40001
1.84195
1.4
1.40001
1.40001
1.40001
1.40001
1.84777
1.84113
1.40001
1.40001
1.40001
1.84153
1.40022
1.40001