/*--------------------------------*- C++ -*----------------------------------*\
  =========                 |
  \\      /  F ield         | OpenFOAM: The Open Source CFD Toolbox
   \\    /   O peration     | Website:  https://openfoam.org
    \\  /    A nd           | Version:  12
     \\/     M anipulation  |
\*---------------------------------------------------------------------------*/
FoamFile
{
    format      ascii;
    class       volVectorField;
    location    "1";
    object      U;
}
// * * * * * * * * * * * * * * * * * * * * * * * * * * * * * * * * * * * * * //

dimensions      [0 1 -1 0 0 0 0];

internalField   nonuniform List<vector> 
22702
(
(2 -1.00684e-13 0)
(2 7.22715e-15 0)
(2.05963 -0.0855295 0)
(2 -1.18897e-09 0)
(1.99647 0.0366747 0)
(2 1.45728e-14 0)
(1.82975 0.228738 0)
(2 -1.47462e-13 0)
(2 -1.40378e-13 0)
(2.13779 -0.266579 0)
(1.83 0.22883 0)
(1.82999 0.228734 0)
(2 1.34485e-13 0)
(1.86039 0.215618 0)
(2.05473 -0.0733174 0)
(2 2.39149e-13 0)
(2 1.99452e-13 0)
(2 3.8558e-14 0)
(1.82985 0.228786 0)
(2 7.80912e-14 0)
(1.86354 0.217392 0)
(2 -2.55696e-13 0)
(1.83021 0.228728 0)
(2.10953 -0.264534 0)
(1.85792 0.214071 0)
(2.13309 -0.261366 0)
(2 -1.27247e-13 0)
(1.82973 0.228485 0)
(2.12423 -0.264221 0)
(2.1097 -0.265119 0)
(2 -2.14826e-14 0)
(1.82997 0.228729 0)
(2 -3.83188e-14 0)
(2 -3.34313e-14 0)
(2 -1.32807e-14 0)
(1.86999 0.215134 0)
(1.85675 0.214662 0)
(1.8299 0.228753 0)
(2 1.84985e-13 0)
(2 3.40232e-13 0)
(2.13802 -0.266522 0)
(2 1.10857e-13 0)
(1.93512 0.130813 0)
(2 -1.74537e-13 0)
(1.82957 0.228478 0)
(2 -6.0827e-13 0)
(2 3.94537e-13 0)
(2 -4.54995e-14 0)
(2 -1.17753e-13 0)
(2.10712 -0.261662 0)
(2 -6.22256e-15 0)
(2.11063 -0.263375 0)
(2 -1.68806e-13 0)
(1.82988 0.22877 0)
(2 -8.52419e-14 0)
(1.83008 0.228749 0)
(2 1.03467e-13 0)
(2 1.32934e-09 0)
(2 2.43423e-13 0)
(2 -3.87582e-13 0)
(2.13703 -0.26431 0)
(2 -4.04812e-14 0)
(2 -1.47402e-13 0)
(2.12366 -0.26451 0)
(2 9.28095e-14 0)
(2.11309 -0.263932 0)
(2 -1.42601e-13 0)
(2 -5.63403e-13 0)
(2 2.26292e-14 0)
(2.13763 -0.265022 0)
(2 -4.19309e-13 0)
(1.83155 0.228992 0)
(1.91768 0.155191 0)
(2 7.06667e-10 0)
(1.83155 0.228977 0)
(1.8218 0.237513 0)
(2.11108 -0.263976 0)
(1.82933 0.228818 0)
(2.10423 -0.264133 0)
(2 -2.24406e-13 0)
(1.83029 0.228702 0)
(2.10852 -0.260307 0)
(1.82935 0.228817 0)
(1.82944 0.228785 0)
(2 4.20963e-14 0)
(2 4.49143e-07 0)
(2 -1.20934e-13 0)
(2 5.4596e-14 0)
(2.03899 -0.0403976 0)
(2.1378 -0.265561 0)
(1.8302 0.228594 0)
(2 1.38198e-13 0)
(2 -1.5999e-11 0)
(2.13629 -0.264443 0)
(2 -3.76465e-14 0)
(1.86361 0.217526 0)
(2.13594 -0.264314 0)
(2 2.30698e-08 0)
(2 6.14596e-14 0)
(2 -5.23303e-13 0)
(2 3.00502e-13 0)
(1.93527 0.1307 0)
(1.83006 0.228612 0)
(2.13272 -0.260933 0)
(2 -1.69547e-09 0)
(2 -1.26965e-09 0)
(1.97526 0.0712769 0)
(2 -2.705e-09 0)
(2.10812 -0.262131 0)
(2 -5.03676e-13 0)
(1.82928 0.228827 0)
(1.82988 0.228628 0)
(2 2.42393e-09 0)
(2 -1.26891e-13 0)
(2.13638 -0.268481 0)
(2.13553 -0.265381 0)
(2.13771 -0.265709 0)
(2 1.85602e-13 0)
(2 -8.22782e-08 0)
(2 -1.27724e-15 0)
(2 3.11295e-13 0)
(2 1.03691e-07 0)
(2.04578 -0.0505249 0)
(2 -5.35099e-08 0)
(1.87736 0.20554 0)
(1.9997 0.0322386 0)
(1.82945 0.228691 0)
(2 -4.20002e-13 0)
(1.82948 0.228719 0)
(1.83008 0.228849 0)
(1.86068 0.215784 0)
(1.83027 0.22877 0)
(2 2.45106e-14 0)
(2.1379 -0.265565 0)
(2 4.2993e-14 0)
(2.13583 -0.264921 0)
(2 8.56541e-15 0)
(2 7.79496e-14 0)
(2 -9.81865e-14 0)
(2 -7.60578e-14 0)
(1.8301 0.228752 0)
(2 1.78054e-09 0)
(2 3.07934e-13 0)
(2 -1.94733e-13 0)
(2 2.23214e-13 0)
(1.8313 0.228995 0)
(2 -7.14699e-14 0)
(1.99483 0.0130466 0)
(2 1.37747e-13 0)
(2 -9.48954e-13 0)
(2 -1.74533e-11 0)
(2 -3.53535e-14 0)
(2.10848 -0.262818 0)
(2 -5.40528e-13 0)
(1.99568 0.00908655 0)
(2 1.11486e-13 0)
(2.10269 -0.264063 0)
(2 2.09479e-13 0)
(2 2.98529e-14 0)
(2 -1.18697e-13 0)
(1.82993 0.228945 0)
(2 -7.71349e-14 0)
(1.83146 0.228948 0)
(2.13435 -0.27031 0)
(2.13678 -0.264637 0)
(1.83087 0.228852 0)
(1.83095 0.228886 0)
(2 6.70198e-15 0)
(1.9876 0.0511012 0)
(1.92198 0.150221 0)
(2 -5.9913e-14 0)
(1.83016 0.228749 0)
(2.10416 -0.263617 0)
(1.87005 0.2154 0)
(2 9.44599e-15 0)
(2 -1.29517e-13 0)
(2 4.00919e-14 0)
(2 2.61671e-14 0)
(1.86075 0.215459 0)
(1.85745 0.196981 0)
(2 -7.97572e-14 0)
(1.82962 0.228901 0)
(2.12182 -0.264923 0)
(1.82999 0.228772 0)
(2 -1.05915e-13 0)
(2.10618 -0.26314 0)
(2 2.22616e-14 0)
(2.10883 -0.263096 0)
(2.13383 -0.262022 0)
(2.00004 -7.36126e-05 0)
(2 -2.86169e-13 0)
(2 -1.54913e-13 0)
(1.82999 0.228513 0)
(2 1.21319e-13 0)
(2 -8.50339e-13 0)
(1.83144 0.229054 0)
(2 -2.85705e-13 0)
(1.82934 0.228842 0)
(1.82967 0.228838 0)
(2.10371 -0.284247 0)
(2 8.99923e-14 0)
(2 -3.89769e-13 0)
(2.10854 -0.264261 0)
(1.83178 0.228983 0)
(2 8.27022e-14 0)
(2 1.40622e-13 0)
(2 -5.70166e-15 0)
(1.83183 0.22897 0)
(2 6.04567e-14 0)
(2.12458 -0.263539 0)
(2 -1.47481e-11 0)
(2 -8.71641e-15 0)
(1.83189 0.228988 0)
(1.83146 0.229019 0)
(1.82921 0.228798 0)
(2 -4.28081e-14 0)
(1.99999 1.4502e-05 0)
(2 -1.78377e-14 0)
(2 3.88982e-14 0)
(2 -5.18506e-13 0)
(1.86352 0.216333 0)
(2 -3.24931e-13 0)
(2.12223 -0.26605 0)
(1.82428 0.235139 0)
(1.83144 0.229062 0)
(1.85999 0.214627 0)
(2 1.92356e-07 0)
(2 5.1756e-14 0)
(2 -2.19264e-13 0)
(2.11427 -0.273489 0)
(1.8319 0.22918 0)
(1.92695 0.116204 0)
(2 6.83568e-14 0)
(1.86275 0.219519 0)
(2.11861 -0.264593 0)
(2.12135 -0.26394 0)
(1.86291 0.219981 0)
(1.83166 0.229171 0)
(2 6.22768e-14 0)
(1.83222 0.229159 0)
(2.13719 -0.270735 0)
(1.8739 0.20911 0)
(2 -3.37754e-13 0)
(2 -2.73544e-13 0)
(2 -3.18247e-13 0)
(2 -2.34245e-13 0)
(1.83168 0.229016 0)
(2 -2.98022e-13 0)
(1.90527 0.13911 0)
(1.98414 0.0276079 0)
(2 -4.21784e-13 0)
(2 1.34647e-14 0)
(1.8316 0.229072 0)
(2.13552 -0.264378 0)
(2.08983 -0.153582 0)
(2 2.0716e-13 0)
(1.83194 0.228329 0)
(2.12514 -0.261581 0)
(1.83124 0.22975 0)
(2 1.72539e-14 0)
(2 4.07754e-14 0)
(2 -3.42232e-13 0)
(2 -8.74837e-14 0)
(2 1.74512e-13 0)
(2 -1.03284e-13 0)
(2 1.22706e-13 0)
(2.10919 -0.263445 0)
(2.09512 -0.163647 0)
(2.12345 -0.26384 0)
(1.83145 0.228876 0)
(2 2.72898e-13 0)
(2 -3.63596e-13 0)
(2 -1.86614e-07 0)
(2 -8.2015e-14 0)
(1.84665 0.211843 0)
(2 -1.25592e-07 0)
(2.10636 -0.26293 0)
(2 1.29616e-13 0)
(2.11427 -0.286341 0)
(2.10751 -0.264974 0)
(1.83191 0.22879 0)
(2.10946 -0.263893 0)
(1.86391 0.217244 0)
(2 1.99326e-13 0)
(2 -3.42333e-13 0)
(2 -3.86657e-13 0)
(2.00087 -0.001652 0)
(2.10775 -0.262567 0)
(2.13575 -0.269524 0)
(2 -3.00084e-07 0)
(2 -1.50798e-07 0)
(2.11829 -0.284374 0)
(2 2.40619e-09 0)
(1.82997 0.228781 0)
(2.13312 -0.261603 0)
(2 -1.75243e-14 0)
(2 -3.46635e-11 0)
(1.83031 0.228739 0)
(2.13586 -0.268883 0)
(2 -8.72329e-14 0)
(1.83351 0.226939 0)
(2.13588 -0.263885 0)
(1.83165 0.229077 0)
(2 -5.99651e-13 0)
(2.10761 -0.288255 0)
(2.00088 -0.00149805 0)
(2 1.0765e-14 0)
(2 2.61378e-06 0)
(2 -1.3875e-14 0)
(2.10933 -0.262448 0)
(2 1.81278e-14 0)
(2 -1.02373e-07 0)
(2 -4.80844e-08 0)
(1.99999 9.24722e-06 0)
(1.99897 0.00440566 0)
(1.91662 0.155366 0)
(2 -2.67163e-11 0)
(2.13001 -0.25133 0)
(2 -1.57854e-11 0)
(2 8.5491e-07 0)
(2 -4.12042e-14 0)
(2 -6.94527e-14 0)
(2 -1.42282e-13 0)
(2 1.42772e-13 0)
(2 -7.7582e-13 0)
(1.83019 0.228721 0)
(2 3.92655e-13 0)
(1.82983 0.229033 0)
(2 3.39534e-13 0)
(2 -7.98466e-14 0)
(2 -1.01773e-13 0)
(2.12028 -0.26316 0)
(2 1.03736e-14 0)
(1.83146 0.228923 0)
(2.10907 -0.26446 0)
(2 1.53109e-13 0)
(1.90134 0.152714 0)
(2 5.56152e-15 0)
(2 -3.9346e-13 0)
(1.82969 0.229441 0)
(2 9.93921e-14 0)
(2 -9.57023e-09 0)
(2 -8.50934e-14 0)
(1.8305 0.227559 0)
(2 4.80144e-10 0)
(2 1.65976e-14 0)
(1.83747 0.220864 0)
(1.82977 0.229228 0)
(2 1.12076e-13 0)
(1.98247 0.0615001 0)
(2 -5.06116e-14 0)
(2 -3.39502e-14 0)
(2.13549 -0.264911 0)
(2 4.83056e-14 0)
(2 -5.33848e-14 0)
(2 -2.83891e-14 0)
(2.13692 -0.26529 0)
(2 1.35441e-13 0)
(2 -4.35996e-13 0)
(2 -1.15326e-14 0)
(2 -1.11628e-14 0)
(2.13438 -0.263268 0)
(2 -7.94486e-14 0)
(2 3.58415e-14 0)
(2 1.39177e-13 0)
(2 1.37339e-13 0)
(2 -1.86882e-13 0)
(2.13186 -0.260521 0)
(1.99998 3.54483e-05 0)
(1.83143 0.228964 0)
(2 -8.92242e-14 0)
(2 -2.65211e-05 0)
(1.83121 0.228973 0)
(1.83043 0.228906 0)
(2 4.30186e-14 0)
(2 1.17461e-13 0)
(2.09916 -0.273461 0)
(2.07879 -0.122229 0)
(1.83028 0.228731 0)
(2 6.59572e-14 0)
(2 -2.47797e-13 0)
(2 -1.07216e-13 0)
(1.83167 0.229009 0)
(2.13734 -0.264806 0)
(2 2.04146e-14 0)
(1.83157 0.228955 0)
(2 2.66973e-13 0)
(2 1.49681e-13 0)
(2.09963 -0.215414 0)
(2.10072 -0.220312 0)
(2 -2.63853e-13 0)
(2.10805 -0.262761 0)
(2.11959 -0.26414 0)
(2 -1.89999e-13 0)
(2 -4.2976e-14 0)
(2 -2.81602e-13 0)
(2 2.62964e-13 0)
(2 -9.08247e-11 0)
(2 -1.86019e-14 0)
(2 -4.3659e-14 0)
(1.82948 0.228779 0)
(1.97385 0.0721456 0)
(1.83552 0.225236 0)
(2.13075 -0.259047 0)
(2.03158 -0.0663133 0)
(1.83043 0.228842 0)
(2 -7.64298e-13 0)
(1.83128 0.22896 0)
(1.83016 0.228731 0)
(2.12311 -0.262168 0)
(2.09022 -0.148121 0)
(2 4.1518e-13 0)
(2.12457 -0.261593 0)
(2 1.82121e-13 0)
(1.82315 0.234703 0)
(2 -3.57814e-13 0)
(2 2.01888e-13 0)
(2 -8.9235e-14 0)
(2 9.07368e-14 0)
(1.83173 0.228996 0)
(2 -2.22741e-13 0)
(2 -1.00316e-13 0)
(2 4.62251e-15 0)
(2 1.61048e-09 0)
(2 -1.14757e-13 0)
(2 -1.15038e-13 0)
(2 -6.93463e-13 0)
(1.94251 0.092957 0)
(1.82953 0.228778 0)
(2 3.23571e-14 0)
(1.83145 0.228898 0)
(2 5.50502e-14 0)
(2 3.48536e-13 0)
(2.10664 -0.260138 0)
(2 -6.8426e-14 0)
(2 1.19596e-13 0)
(2 -7.81528e-13 0)
(2 -1.14329e-14 0)
(1.83186 0.228991 0)
(1.87555 0.181823 0)
(2 -3.03695e-13 0)
(2 -3.04127e-13 0)
(2.1072 -0.262598 0)
(1.83136 0.229072 0)
(1.83185 0.22902 0)
(2 1.24445e-13 0)
(1.83185 0.229033 0)
(1.83139 0.229069 0)
(1.8314 0.228929 0)
(2 -1.59014e-14 0)
(2.07202 -0.10877 0)
(2 -5.16816e-13 0)
(1.8317 0.228903 0)
(2.0199 -0.00366121 0)
(1.8315 0.228997 0)
(2 2.20715e-13 0)
(2.12363 -0.262419 0)
(2.00038 -0.000611272 0)
(1.83005 0.228747 0)
(2 3.03696e-14 0)
(2 -1.15268e-13 0)
(2 -1.57546e-11 0)
(2 -8.83986e-12 0)
(2.11056 -0.262787 0)
(1.83189 0.228805 0)
(1.87217 0.212812 0)
(2 8.89562e-14 0)
(1.85768 0.215197 0)
(1.83169 0.228999 0)
(1.83003 0.228617 0)
(2 -8.54021e-14 0)
(1.9202 0.115859 0)
(1.85983 0.214982 0)
(2 -6.43216e-13 0)
(2 -1.36601e-13 0)
(1.88845 0.169601 0)
(1.97899 0.0368531 0)
(1.83188 0.228942 0)
(2.03827 -0.0386383 0)
(1.83185 0.228957 0)
(2 4.86508e-14 0)
(1.83168 0.228993 0)
(1.83129 0.228969 0)
(1.83162 0.229012 0)
(1.83137 0.229053 0)
(2 -2.98996e-13 0)
(1.83547 0.228836 0)
(2.02968 -0.0612876 0)
(2.03945 -0.0747918 0)
(2 -2.02788e-14 0)
(2 -3.73581e-07 0)
(2 -1.12211e-13 0)
(2 -9.13682e-14 0)
(1.83149 0.229001 0)
(2 -2.0982e-14 0)
(2 -1.68137e-15 0)
(2 1.11026e-13 0)
(2 -3.53748e-14 0)
(2 -3.04182e-13 0)
(1.8299 0.228738 0)
(2 -1.52146e-13 0)
(2 -1.75799e-13 0)
(2.00146 -0.002608 0)
(1.83184 0.229028 0)
(1.8489 0.21547 0)
(2 -6.07095e-13 0)
(1.86809 0.184518 0)
(1.99998 2.71388e-05 0)
(2 8.99308e-14 0)
(2 -5.26216e-13 0)
(1.83143 0.229004 0)
(2 1.04467e-13 0)
(2.00179 -0.00215092 0)
(1.99825 0.00448045 0)
(2 1.3904e-13 0)
(1.83123 0.229113 0)
(2 1.54371e-13 0)
(1.83184 0.229378 0)
(2 -7.69166e-14 0)
(2 5.2605e-14 0)
(1.88208 0.178737 0)
(2 -1.14227e-13 0)
(1.83186 0.229273 0)
(1.99999 1.28809e-05 0)
(2 -5.71952e-13 0)
(1.83218 0.228735 0)
(2 -1.11646e-13 0)
(1.83184 0.229004 0)
(2 -2.10774e-14 0)
(2 2.87939e-06 0)
(2 -2.91262e-14 0)
(1.83159 0.229056 0)
(2 2.7839e-13 0)
(1.8307 0.230179 0)
(2 4.56056e-06 0)
(1.83175 0.228987 0)
(1.83013 0.22873 0)
(1.83176 0.229099 0)
(1.82947 0.228778 0)
(2 -1.52268e-13 0)
(1.8301 0.228786 0)
(1.83651 0.224302 0)
(2 4.87647e-14 0)
(2.1083 -0.264408 0)
(1.85094 0.217448 0)
(1.89909 0.179126 0)
(2 -1.54563e-13 0)
(1.83155 0.229069 0)
(2 -5.42657e-14 0)
(2.13519 -0.26411 0)
(2.13549 -0.263438 0)
(2 1.03857e-13 0)
(2 -2.19035e-13 0)
(2 -1.79015e-13 0)
(2 -4.06538e-13 0)
(2 1.98578e-09 0)
(2.13624 -0.264048 0)
(2 -2.13308e-14 0)
(1.83152 0.228923 0)
(1.9597 0.0673712 0)
(1.83136 0.229029 0)
(2 2.40262e-14 0)
(2 7.7219e-11 0)
(2 2.49296e-13 0)
(2 2.69199e-13 0)
(2 -5.40365e-08 0)
(1.83128 0.228921 0)
(2 -8.48831e-13 0)
(1.83126 0.228848 0)
(1.90415 0.146659 0)
(2.08892 -0.148906 0)
(2 1.30392e-09 0)
(2 6.67461e-06 0)
(1.94965 0.0790969 0)
(1.95865 0.0684469 0)
(2 2.50108e-13 0)
(2 5.40006e-14 0)
(1.95701 0.0973095 0)
(2 -9.83652e-14 0)
(2.10384 -0.261548 0)
(1.83156 0.228884 0)
(1.83155 0.228939 0)
(2 -1.90689e-11 0)
(2 6.34066e-14 0)
(2 1.40506e-14 0)
(1.83001 0.228716 0)
(2 -4.75718e-14 0)
(1.99999 1.61952e-05 0)
(1.85476 0.216204 0)
(1.83197 0.228924 0)
(2.01621 -0.0309661 0)
(2 4.15348e-13 0)
(2 1.91106e-10 0)
(2.10659 -0.26167 0)
(1.85555 0.211061 0)
(2 2.57993e-13 0)
(2 7.82631e-14 0)
(2 -5.59782e-14 0)
(2 -2.79947e-11 0)
(2 -1.03912e-13 0)
(1.83185 0.229013 0)
(1.8301 0.228742 0)
(2 3.28929e-13 0)
(1.83202 0.228422 0)
(1.83068 0.230291 0)
(1.83172 0.229103 0)
(2 3.54653e-14 0)
(2 9.1805e-14 0)
(2 -6.14581e-11 0)
(2 2.22255e-13 0)
(2.13371 -0.262022 0)
(1.83041 0.228759 0)
(2 -4.51762e-11 0)
(2 3.2787e-13 0)
(1.85912 0.212368 0)
(1.84065 0.227215 0)
(2 -2.00143e-13 0)
(1.85457 0.217201 0)
(1.82955 0.22876 0)
(2 -6.84487e-15 0)
(2 -2.17258e-07 0)
(2 9.26106e-11 0)
(2 9.64745e-14 0)
(2 -1.5302e-13 0)
(1.83127 0.22907 0)
(2 2.64112e-13 0)
(2 -3.37557e-13 0)
(2 5.96991e-14 0)
(2 3.05622e-13 0)
(1.83231 0.229028 0)
(2 2.27955e-13 0)
(1.83244 0.226353 0)
(2.12432 -0.261765 0)
(2 2.85955e-14 0)
(2.12376 -0.263302 0)
(2 -1.63484e-13 0)
(2 -1.62754e-07 0)
(2 5.11364e-14 0)
(2.00121 -0.00179874 0)
(2.11088 -0.264359 0)
(2.00032 -0.000536854 0)
(2 1.65792e-13 0)
(2 -1.97338e-14 0)
(2 -1.19068e-07 0)
(1.97453 0.0384855 0)
(2 -4.12822e-13 0)
(2 -2.57566e-13 0)
(2.04825 -0.0899519 0)
(2 -2.12162e-07 0)
(2 -1.40133e-13 0)
(2 5.16999e-14 0)
(2 -2.1343e-07 0)
(2 3.9702e-07 0)
(2 -1.5276e-07 0)
(2 -2.03921e-13 0)
(2 -1.66953e-06 0)
(2.02785 -0.0475799 0)
(2 -4.98345e-07 0)
(2 -4.26739e-08 0)
(2.00092 -0.00141607 0)
(2 3.02215e-15 0)
(2.11054 -0.263211 0)
(2 -2.83389e-11 0)
(2 -4.57785e-12 0)
(2 -8.01384e-11 0)
(2 -2.80941e-13 0)
(1.88033 0.178599 0)
(2 1.88296e-13 0)
(2 -1.6775e-13 0)
(2 1.40996e-13 0)
(2 -1.0879e-07 0)
(2.10793 -0.263809 0)
(2 1.06424e-13 0)
(2 1.59163e-09 0)
(1.84945 0.217894 0)
(1.83028 0.228755 0)
(2 -2.96561e-07 0)
(2 4.54385e-14 0)
(2 -1.08966e-07 0)
(2.03486 -0.0686256 0)
(2 1.96006e-13 0)
(2 4.70053e-10 0)
(2 2.04663e-13 0)
(2 1.34859e-13 0)
(2 2.50992e-13 0)
(2 1.16117e-13 0)
(2.01895 -0.0320903 0)
(1.99894 0.00369296 0)
(1.86323 0.216835 0)
(2 -2.01654e-13 0)
(2 -1.08935e-13 0)
(2 1.25885e-13 0)
(1.83105 0.229129 0)
(2.05097 -0.0617552 0)
(2 -3.71768e-09 0)
(2 5.09427e-14 0)
(2 7.71168e-14 0)
(1.8296 0.228696 0)
(1.83024 0.227989 0)
(2 -2.91768e-08 0)
(2 4.98592e-06 0)
(2 3.45192e-09 0)
(2 -5.05469e-14 0)
(2 1.27349e-09 0)
(2 -6.60909e-14 0)
(2 -5.6816e-12 0)
(2 -6.43008e-14 0)
(2 -8.92641e-15 0)
(2.12005 -0.262306 0)
(2 -7.18803e-14 0)
(2 -1.51678e-11 0)
(1.82923 0.228923 0)
(2.12482 -0.263341 0)
(2 -7.28899e-13 0)
(1.82954 0.228685 0)
(2 5.79569e-11 0)
(2.10792 -0.262887 0)
(2 1.19512e-14 0)
(2 1.9637e-13 0)
(2.11992 -0.263134 0)
(2 -2.31912e-13 0)
(2 -1.18559e-11 0)
(2 -5.0997e-12 0)
(2 1.25044e-13 0)
(2 -2.70969e-12 0)
(2 -2.45867e-13 0)
(2 7.59298e-14 0)
(1.84542 0.224131 0)
(1.84153 0.227341 0)
(2 5.49765e-13 0)
(2 7.1653e-14 0)
(2 2.97953e-15 0)
(2 4.32158e-13 0)
(1.85799 0.212785 0)
(2 4.71335e-13 0)
(1.95008 0.0827844 0)
(2.10946 -0.263737 0)
(2 -3.20289e-08 0)
(2 3.88849e-13 0)
(2 6.1392e-14 0)
(2 -4.66475e-13 0)
(2 5.28749e-14 0)
(2 1.69284e-14 0)
(2 7.88732e-14 0)
(1.98715 0.0216379 0)
(2 -5.53038e-14 0)
(2 5.68116e-14 0)
(1.90179 0.131516 0)
(2 -2.81574e-14 0)
(2 7.79002e-14 0)
(2 9.20365e-14 0)
(1.88254 0.19887 0)
(2 -3.60053e-13 0)
(2 1.1051e-13 0)
(2 -2.24501e-13 0)
(2 -4.42249e-14 0)
(2.12508 -0.261899 0)
(2 1.09632e-11 0)
(2 1.77636e-13 0)
(2.12464 -0.273777 0)
(2.12505 -0.26157 0)
(2 -1.1763e-13 0)
(2 -3.17299e-13 0)
(1.83168 0.228923 0)
(2 -3.4603e-13 0)
(1.98412 -0.00496044 0)
(2 -1.76136e-14 0)
(2 -9.18635e-14 0)
(2 6.01337e-14 0)
(1.88693 0.170551 0)
(2.12142 -0.271948 0)
(2 -2.0997e-13 0)
(2.12343 -0.278708 0)
(2 1.47556e-13 0)
(2.07794 -0.1591 0)
(2 -5.53471e-13 0)
(2 8.30084e-14 0)
(2 -2.37164e-13 0)
(1.83073 0.228605 0)
(2 -4.30403e-08 0)
(2 -1.86027e-14 0)
(1.83179 0.228989 0)
(2 -7.00978e-14 0)
(2 -3.47224e-11 0)
(2 1.69991e-09 0)
(1.83165 0.229008 0)
(2 2.35986e-10 0)
(2 6.6828e-14 0)
(1.83169 0.228904 0)
(2 -5.02824e-13 0)
(2 4.53678e-14 0)
(2.12278 -0.262264 0)
(2 -1.70095e-11 0)
(1.94965 0.0847163 0)
(2 6.55128e-14 0)
(2 1.67233e-13 0)
(1.83034 0.228795 0)
(1.83037 0.228923 0)
(1.88806 0.164338 0)
(1.863 0.209787 0)
(2 7.20031e-14 0)
(2.12395 -0.26164 0)
(2 1.26171e-13 0)
(2 3.17675e-14 0)
(1.84444 0.22028 0)
(2 -1.92941e-13 0)
(2.12189 -0.264154 0)
(2 2.65073e-14 0)
(2 -1.57139e-13 0)
(2 -4.42547e-14 0)
(1.83138 0.229068 0)
(2 5.66969e-14 0)
(2 -1.28261e-13 0)
(2 1.4896e-13 0)
(2 1.59438e-13 0)
(1.90176 0.148353 0)
(2 -6.55156e-14 0)
(1.86998 0.18856 0)
(1.83012 0.23002 0)
(2.13741 -0.264897 0)
(2 -4.41892e-13 0)
(2 -1.96832e-13 0)
(2.13235 -0.260162 0)
(2.13296 -0.260493 0)
(2 3.51478e-14 0)
(2 1.3351e-14 0)
(2 -6.63914e-12 0)
(1.88369 0.172722 0)
(1.87749 0.180707 0)
(2 7.71037e-14 0)
(2 1.96161e-13 0)
(2 2.1728e-13 0)
(2 -8.72734e-14 0)
(2 -1.65818e-13 0)
(2 5.41419e-14 0)
(2 1.22705e-13 0)
(1.93153 0.109003 0)
(1.83009 0.228805 0)
(1.99755 0.00152353 0)
(2 9.21929e-14 0)
(1.86538 0.220028 0)
(2.13751 -0.26478 0)
(2 -2.28563e-13 0)
(2 -1.78314e-13 0)
(2 -2.67157e-13 0)
(1.90963 0.135572 0)
(2 -1.53875e-13 0)
(1.96708 0.0535375 0)
(2 1.67578e-14 0)
(1.85345 0.212627 0)
(1.84715 0.225753 0)
(2 -3.56188e-14 0)
(2.12347 -0.26301 0)
(2 -1.75723e-13 0)
(1.83045 0.228747 0)
(2 -3.08682e-14 0)
(2 -2.14488e-13 0)
(1.83144 0.228992 0)
(1.85554 0.216989 0)
(2 8.17104e-14 0)
(1.82648 0.228 0)
(2 3.07194e-13 0)
(2.13294 -0.26665 0)
(2 2.17303e-13 0)
(2 3.46344e-13 0)
(2 -1.16828e-13 0)
(1.83177 0.229372 0)
(1.84635 0.223968 0)
(1.85856 0.205033 0)
(2 -8.91864e-15 0)
(1.83017 0.228576 0)
(1.83181 0.228958 0)
(2 2.47028e-13 0)
(1.83131 0.229283 0)
(2 -1.05503e-08 0)
(1.84648 0.225729 0)
(2 -2.89244e-13 0)
(2.12549 -0.261692 0)
(2.00745 -0.0137915 0)
(2.12105 -0.265843 0)
(2 -3.34647e-11 0)
(2 -2.20514e-11 0)
(2 -3.2757e-11 0)
(2 5.84432e-14 0)
(2 -1.38678e-11 0)
(1.83144 0.228937 0)
(2 1.53221e-13 0)
(1.83148 0.228979 0)
(2 -3.8416e-11 0)
(2 -9.35292e-11 0)
(2 3.21844e-13 0)
(1.85227 0.219021 0)
(2 -5.4373e-14 0)
(2.10805 -0.263847 0)
(1.83179 0.229037 0)
(2 1.35711e-14 0)
(2.10849 -0.263394 0)
(2.11247 -0.246292 0)
(2.12011 -0.26715 0)
(2 2.2165e-13 0)
(1.91812 0.125674 0)
(1.9874 0.0247118 0)
(1.84335 0.227012 0)
(1.83178 0.228996 0)
(2 -2.31219e-13 0)
(2 -3.40648e-07 0)
(2 -1.00746e-07 0)
(2 -3.06922e-13 0)
(1.83162 0.229 0)
(2 6.72955e-14 0)
(2 9.84952e-14 0)
(1.83166 0.229022 0)
(1.83179 0.228942 0)
(2 -4.96419e-13 0)
(1.95937 0.0965454 0)
(1.99994 0.000724561 0)
(2 -9.13757e-14 0)
(2.00116 -0.00200493 0)
(1.82993 0.2288 0)
(2.04931 -0.0995871 0)
(2 -1.1785e-07 0)
(2.06076 -0.123667 0)
(2.10389 -0.261347 0)
(2.10324 -0.262047 0)
(2.00763 -0.0418052 0)
(1.83045 0.228788 0)
(1.84789 0.224582 0)
(1.97036 0.049587 0)
(1.83977 0.227423 0)
(1.83165 0.22902 0)
(2 -3.37174e-14 0)
(2 -3.58398e-14 0)
(1.83028 0.228798 0)
(1.82989 0.228792 0)
(1.83164 0.228825 0)
(1.82901 0.227616 0)
(2 -3.73697e-13 0)
(1.84639 0.226258 0)
(2.11098 -0.264245 0)
(1.83093 0.22999 0)
(1.83125 0.228933 0)
(1.82947 0.228585 0)
(1.83101 0.229756 0)
(2.0462 -0.0899472 0)
(2.03758 -0.0668718 0)
(2.0269 -0.049231 0)
(1.83163 0.228949 0)
(2.01543 -0.0246277 0)
(1.83135 0.229129 0)
(2 1.42143e-14 0)
(2 -2.59705e-13 0)
(1.84454 0.227013 0)
(1.83169 0.229046 0)
(2 4.3435e-14 0)
(2.12453 -0.262159 0)
(1.83057 0.228137 0)
(1.83174 0.228949 0)
(2 8.11033e-14 0)
(1.83166 0.228908 0)
(1.83153 0.228896 0)
(2 1.84862e-13 0)
(1.83176 0.229024 0)
(2.10871 -0.26324 0)
(1.83111 0.230135 0)
(1.83011 0.22885 0)
(1.83037 0.228709 0)
(1.83152 0.229736 0)
(2 -9.69945e-14 0)
(2 -6.85308e-14 0)
(2 -1.0645e-07 0)
(1.83176 0.228889 0)
(1.89383 0.160193 0)
(2.12753 -0.246344 0)
(1.83163 0.228934 0)
(2.12271 -0.270759 0)
(1.83174 0.228907 0)
(2 1.40461e-13 0)
(2 -4.2752e-13 0)
(2 -1.13304e-14 0)
(2 3.16148e-13 0)
(1.83082 0.229289 0)
(1.83161 0.22904 0)
(2 1.11541e-13 0)
(2 -4.45443e-13 0)
(1.83162 0.228963 0)
(2.12241 -0.268108 0)
(1.83196 0.228807 0)
(2.10846 -0.265199 0)
(2 4.43823e-16 0)
(1.84491 0.226011 0)
(2 3.0735e-13 0)
(2.13749 -0.267111 0)
(1.8309 0.229493 0)
(2.09052 -0.189537 0)
(2 4.87201e-14 0)
(1.83178 0.229 0)
(1.83046 0.23006 0)
(1.83212 0.228548 0)
(2 1.42788e-13 0)
(2 1.72864e-13 0)
(1.95214 0.080014 0)
(1.83073 0.229632 0)
(2.10855 -0.264303 0)
(1.83154 0.228937 0)
(2 2.39067e-14 0)
(1.8329 0.228826 0)
(2.03858 -0.0760308 0)
(1.83197 0.228952 0)
(2.11911 -0.262668 0)
(2 1.2249e-13 0)
(1.832 0.228663 0)
(2.10924 -0.238408 0)
(1.84477 0.227162 0)
(2.1092 -0.264486 0)
(2 3.73014e-15 0)
(1.83135 0.22903 0)
(2 3.48105e-14 0)
(1.8297 0.228695 0)
(2 4.51892e-13 0)
(1.9204 0.150673 0)
(1.8474 0.221012 0)
(1.87482 0.187658 0)
(2.12991 -0.271624 0)
(2 -1.5161e-15 0)
(1.83191 0.228907 0)
(2 1.37248e-13 0)
(1.83256 0.228735 0)
(2 -1.16806e-07 0)
(1.83162 0.229096 0)
(2 -2.42112e-07 0)
(2 -2.91556e-15 0)
(1.83155 0.228631 0)
(2.02276 -0.00676664 0)
(1.83038 0.23003 0)
(2.13338 -0.266367 0)
(1.84269 0.212664 0)
(2 -1.41112e-13 0)
(1.902 0.175221 0)
(2 2.78762e-13 0)
(1.83084 0.228696 0)
(1.83171 0.229045 0)
(1.8311 0.228986 0)
(2 -2.3382e-13 0)
(1.86139 0.210576 0)
(1.83148 0.228868 0)
(1.85837 0.21474 0)
(1.89897 0.149872 0)
(1.83673 0.227577 0)
(2 -2.45211e-13 0)
(1.89027 0.162501 0)
(2 9.22016e-14 0)
(1.83166 0.228761 0)
(2 -1.4777e-13 0)
(1.97497 0.0427505 0)
(2 2.30091e-13 0)
(1.84981 0.214613 0)
(2 -4.53276e-13 0)
(1.83256 0.228945 0)
(1.84573 0.220105 0)
(1.85133 0.219152 0)
(2 -5.11723e-14 0)
(1.83558 0.226116 0)
(2.13413 -0.262624 0)
(2 -8.02715e-14 0)
(2.12443 -0.261825 0)
(2 -5.70222e-13 0)
(2 2.04652e-13 0)
(2 -4.74702e-14 0)
(1.82996 0.228806 0)
(2 6.40312e-14 0)
(1.83153 0.229194 0)
(2 1.47043e-14 0)
(2 7.01723e-14 0)
(2 1.28597e-13 0)
(1.83136 0.229314 0)
(1.84109 0.224829 0)
(1.85786 0.203175 0)
(1.83063 0.229727 0)
(1.83052 0.228915 0)
(2.1233 -0.263075 0)
(1.83236 0.229248 0)
(1.83038 0.228805 0)
(2 1.68833e-13 0)
(1.85 0.2141 0)
(1.83178 0.228948 0)
(1.84079 0.216978 0)
(2 8.73592e-14 0)
(1.83039 0.228772 0)
(1.83027 0.22877 0)
(2 -1.21523e-13 0)
(1.82909 0.231259 0)
(1.83132 0.228702 0)
(1.83107 0.228908 0)
(1.83101 0.22946 0)
(2 2.64151e-13 0)
(2 -4.18549e-13 0)
(2 -3.83961e-13 0)
(1.83178 0.228919 0)
(2.13447 -0.260923 0)
(2 -3.35268e-15 0)
(1.83166 0.228974 0)
(2 -5.88365e-14 0)
(2 1.37219e-14 0)
(2.13657 -0.264329 0)
(2 1.18106e-13 0)
(2 1.78766e-13 0)
(1.83143 0.228969 0)
(1.8312 0.228901 0)
(2 1.38233e-13 0)
(1.8317 0.229 0)
(1.83187 0.229379 0)
(1.8316 0.228959 0)
(2.00407 -0.0107648 0)
(1.83135 0.228889 0)
(2 6.17872e-14 0)
(1.83133 0.228887 0)
(1.8315 0.229027 0)
(1.86278 0.196854 0)
(2 2.07489e-13 0)
(2 -3.08829e-14 0)
(2 1.80043e-13 0)
(1.8305 0.229049 0)
(1.83177 0.229159 0)
(1.83164 0.228946 0)
(2.01956 -0.0399451 0)
(2 1.32853e-13 0)
(1.82784 0.231334 0)
(1.83147 0.22918 0)
(1.83166 0.228973 0)
(2 -1.33766e-13 0)
(1.83143 0.229202 0)
(1.83173 0.228938 0)
(1.83151 0.228935 0)
(1.82759 0.231907 0)
(2 3.48092e-13 0)
(1.83157 0.228894 0)
(1.83163 0.228582 0)
(1.85189 0.202394 0)
(1.83202 0.22879 0)
(1.82826 0.231172 0)
(2 -5.29259e-14 0)
(1.83085 0.230208 0)
(1.84223 0.225842 0)
(1.83163 0.228961 0)
(1.83075 0.229549 0)
(1.83198 0.22869 0)
(2.12946 -0.262062 0)
(1.83148 0.228997 0)
(1.83205 0.229038 0)
(2 -1.14497e-13 0)
(1.83155 0.229105 0)
(1.83154 0.228967 0)
(1.83165 0.228953 0)
(1.83167 0.228821 0)
(2 -5.7276e-08 0)
(1.83145 0.229015 0)
(1.83162 0.229158 0)
(2 -9.05205e-08 0)
(1.83173 0.228901 0)
(1.8645 0.199187 0)
(2 -7.24556e-14 0)
(2 -5.63978e-14 0)
(2 6.71212e-10 0)
(1.83145 0.22959 0)
(1.83071 0.229951 0)
(2 4.68345e-14 0)
(2 3.45823e-13 0)
(1.9115 0.135294 0)
(2 -1.77088e-13 0)
(1.86264 0.21633 0)
(2 9.41453e-14 0)
(2 -9.73584e-14 0)
(1.83163 0.229016 0)
(1.86316 0.21936 0)
(1.83136 0.228951 0)
(1.8317 0.228995 0)
(2 3.69847e-14 0)
(2 -6.19767e-14 0)
(2 -5.36336e-14 0)
(1.88104 0.167074 0)
(2 1.09782e-13 0)
(1.83139 0.229108 0)
(2 -4.41183e-13 0)
(2 -2.23996e-13 0)
(1.83024 0.228768 0)
(1.83026 0.228854 0)
(2 -1.33518e-14 0)
(1.83167 0.228912 0)
(2.12702 -0.271087 0)
(1.83177 0.22905 0)
(1.83137 0.229855 0)
(2.11297 -0.19982 0)
(2 -2.30047e-14 0)
(2.12789 -0.270776 0)
(1.84991 0.203471 0)
(1.83103 0.230322 0)
(1.83156 0.229396 0)
(1.83161 0.229559 0)
(2.12598 -0.260841 0)
(1.83131 0.228819 0)
(1.83126 0.229365 0)
(2.12589 -0.261097 0)
(2.12348 -0.272962 0)
(2 -2.63536e-07 0)
(1.83187 0.22919 0)
(1.83177 0.228954 0)
(2 -9.30877e-14 0)
(2 -5.08254e-14 0)
(1.83152 0.228903 0)
(2 -4.99568e-13 0)
(1.83125 0.228769 0)
(2 2.54953e-06 0)
(1.86013 0.205008 0)
(2 2.46478e-13 0)
(1.94036 0.124168 0)
(1.83179 0.228821 0)
(1.83062 0.229886 0)
(1.88133 0.170686 0)
(1.85173 0.203067 0)
(1.83006 0.228833 0)
(1.83136 0.229517 0)
(1.84932 0.213728 0)
(2 1.50928e-13 0)
(2.13714 -0.263946 0)
(1.83042 0.229941 0)
(1.83152 0.228862 0)
(1.82967 0.231221 0)
(2 7.23467e-06 0)
(2 1.32955e-10 0)
(2 1.55389e-09 0)
(1.83045 0.230179 0)
(2 1.78631e-13 0)
(1.83139 0.228749 0)
(1.83143 0.228846 0)
(2.08003 -0.171063 0)
(2 2.14986e-13 0)
(1.83162 0.228905 0)
(2.00002 -3.9842e-05 0)
(2 9.67298e-14 0)
(1.99999 1.90507e-05 0)
(1.99998 2.71349e-05 0)
(1.83163 0.228858 0)
(1.83182 0.228879 0)
(2.00055 -0.000909913 0)
(2 -3.86401e-14 0)
(2 1.46217e-14 0)
(1.83222 0.228686 0)
(1.83063 0.229716 0)
(1.832 0.228628 0)
(1.83071 0.228469 0)
(1.83083 0.229558 0)
(2.1239 -0.2557 0)
(1.84985 0.209088 0)
(2 -1.16377e-13 0)
(1.8442 0.225948 0)
(1.83122 0.228879 0)
(1.83115 0.228792 0)
(1.83557 0.224853 0)
(2 5.97187e-14 0)
(1.83167 0.229 0)
(1.84873 0.222603 0)
(1.83095 0.229459 0)
(2 1.36835e-13 0)
(1.83088 0.228876 0)
(1.8313 0.22921 0)
(2.05222 -0.0920632 0)
(1.83166 0.228984 0)
(1.83082 0.228812 0)
(2 -5.21721e-14 0)
(1.83148 0.228883 0)
(2.06036 -0.107392 0)
(1.83182 0.229017 0)
(2.05112 -0.0928245 0)
(1.83148 0.228965 0)
(2 -1.02242e-07 0)
(1.83341 0.228573 0)
(1.82444 0.234196 0)
(1.83173 0.229008 0)
(1.83155 0.229117 0)
(1.8339 0.228465 0)
(1.83026 0.228251 0)
(1.83133 0.229209 0)
(1.82937 0.227946 0)
(2 -4.59834e-13 0)
(2.02901 -0.039629 0)
(1.83188 0.228993 0)
(1.83176 0.228971 0)
(2.06023 -0.106534 0)
(1.8317 0.228888 0)
(2.00664 -0.0104448 0)
(1.89505 0.153819 0)
(1.83186 0.228934 0)
(1.83139 0.228965 0)
(1.83031 0.229995 0)
(2 4.05812e-14 0)
(1.83039 0.23004 0)
(1.89181 0.157543 0)
(1.83168 0.228157 0)
(2.02726 -0.053801 0)
(1.83057 0.229826 0)
(1.82689 0.230071 0)
(2 1.81492e-13 0)
(2.04677 -0.0807317 0)
(2 -6.05741e-09 0)
(1.83365 0.228145 0)
(2 -7.28223e-14 0)
(1.90107 0.170344 0)
(2 4.37167e-09 0)
(1.84085 0.214118 0)
(2.04485 -0.0771933 0)
(2 -3.77151e-14 0)
(1.83199 0.228769 0)
(1.83413 0.228393 0)
(2 2.56391e-13 0)
(1.83001 0.229423 0)
(1.84348 0.227251 0)
(1.82922 0.229546 0)
(1.83309 0.230176 0)
(1.82868 0.22957 0)
(2 -8.24927e-14 0)
(1.83037 0.228813 0)
(2 2.43738e-13 0)
(2 -2.70339e-13 0)
(2 8.22466e-14 0)
(2.04362 -0.0687616 0)
(1.83142 0.229056 0)
(1.83178 0.229247 0)
(1.82952 0.230244 0)
(1.83169 0.228911 0)
(1.83247 0.230269 0)
(1.83015 0.230172 0)
(1.832 0.228172 0)
(1.83154 0.229213 0)
(2.04361 -0.0668788 0)
(1.98792 0.0234363 0)
(2 3.50345e-09 0)
(2 -4.35571e-13 0)
(1.82506 0.233453 0)
(1.83165 0.229044 0)
(1.83138 0.228866 0)
(1.83185 0.228889 0)
(1.99999 1.62416e-05 0)
(1.91751 0.123685 0)
(2 -1.67018e-07 0)
(1.82937 0.231104 0)
(1.85437 0.20026 0)
(2 -3.28102e-12 0)
(2 -5.54262e-11 0)
(2.09794 -0.188275 0)
(1.83151 0.229003 0)
(2 -3.81236e-13 0)
(2 -9.83968e-14 0)
(2.10886 -0.263402 0)
(1.83175 0.228894 0)
(2 -3.86363e-13 0)
(1.83037 0.228825 0)
(1.83163 0.228928 0)
(1.83022 0.22882 0)
(1.85205 0.22063 0)
(1.83236 0.228739 0)
(2 -1.25721e-10 0)
(2.12628 -0.265306 0)
(1.9568 0.0667098 0)
(1.83149 0.228457 0)
(1.83256 0.228628 0)
(2 9.1636e-14 0)
(1.83291 0.228938 0)
(1.83143 0.228962 0)
(1.91591 0.120802 0)
(1.99958 0.00505506 0)
(1.96673 0.0575293 0)
(2 -6.73022e-14 0)
(1.82957 0.228772 0)
(1.83125 0.22906 0)
(2 -1.19832e-07 0)
(2 -2.10062e-10 0)
(2.12664 -0.261916 0)
(2 -2.41483e-10 0)
(2 8.42396e-14 0)
(1.83175 0.228983 0)
(1.83166 0.228998 0)
(1.83138 0.229531 0)
(1.83181 0.228692 0)
(1.83131 0.229014 0)
(1.82861 0.229708 0)
(1.84018 0.227412 0)
(1.83202 0.228197 0)
(1.83133 0.228838 0)
(2 6.11406e-14 0)
(2.00145 -0.00247351 0)
(1.83148 0.229452 0)
(1.83205 0.228886 0)
(2.00113 -0.00170753 0)
(1.8316 0.228967 0)
(1.83141 0.229023 0)
(2.12512 -0.259737 0)
(2.1371 -0.264997 0)
(1.83211 0.228786 0)
(1.83052 0.229893 0)
(2 -1.30028e-13 0)
(2 -6.55516e-14 0)
(1.99925 0.0023935 0)
(1.83166 0.228867 0)
(1.83153 0.229453 0)
(1.83176 0.228866 0)
(2 1.04359e-09 0)
(1.83156 0.228898 0)
(2 -1.43116e-13 0)
(2.06393 -0.0901012 0)
(1.82922 0.23156 0)
(1.82954 0.22996 0)
(2 -1.87873e-13 0)
(1.92386 0.111198 0)
(1.83148 0.229076 0)
(2 1.11621e-13 0)
(1.82867 0.228538 0)
(2 -1.05134e-10 0)
(1.8316 0.228897 0)
(1.893 0.149217 0)
(1.83114 0.229832 0)
(2 1.36407e-11 0)
(1.83192 0.228647 0)
(1.83132 0.230183 0)
(2.12603 -0.261504 0)
(1.83157 0.228905 0)
(2 -1.31723e-07 0)
(1.83134 0.229046 0)
(1.8297 0.228777 0)
(2 7.36819e-09 0)
(2.12557 -0.259771 0)
(1.83183 0.228613 0)
(1.85296 0.208593 0)
(2.00063 -0.00102852 0)
(1.84318 0.222779 0)
(1.83151 0.22899 0)
(2 -5.24307e-12 0)
(2.00739 -0.00140379 0)
(1.83108 0.230291 0)
(2.00178 -0.00221904 0)
(1.83159 0.228998 0)
(2 -3.17222e-12 0)
(2 -2.91251e-15 0)
(1.83072 0.229253 0)
(2 1.56404e-13 0)
(1.83079 0.22933 0)
(1.83151 0.228952 0)
(2.0013 -0.00228338 0)
(1.87098 0.17877 0)
(2 2.9376e-09 0)
(1.83143 0.228986 0)
(2 3.32799e-10 0)
(2 -7.29369e-13 0)
(2 1.04235e-11 0)
(2 6.61665e-12 0)
(1.83187 0.228854 0)
(2 7.26859e-09 0)
(2 -1.34859e-14 0)
(1.83326 0.229605 0)
(2 1.75373e-13 0)
(1.83127 0.229169 0)
(2 3.25586e-10 0)
(1.90947 0.161465 0)
(1.83167 0.228782 0)
(1.83169 0.22917 0)
(2 9.33355e-10 0)
(2 -3.7092e-13 0)
(2.0052 0.00248651 0)
(2 2.48971e-12 0)