/*--------------------------------*- C++ -*----------------------------------*\
  =========                 |
  \\      /  F ield         | OpenFOAM: The Open Source CFD Toolbox
   \\    /   O peration     | Website:  https://openfoam.org
    \\  /    A nd           | Version:  12
     \\/     M anipulation  |
\*---------------------------------------------------------------------------*/
FoamFile
{
    format      ascii;
    class       volVectorField;
    location    "1";
    object      U;
}
// * * * * * * * * * * * * * * * * * * * * * * * * * * * * * * * * * * * * * //

dimensions      [0 1 -1 0 0 0 0];

internalField   nonuniform List<vector> 
22702
(
(2 -2.14055e-15 0)
(2 9.01669e-16 0)
(2.05848 -0.078019 0)
(2 -1.1278e-09 0)
(1.99254 0.034474 0)
(2 -1.95084e-14 0)
(1.83013 0.228613 0)
(2 -8.5425e-14 0)
(2 2.63713e-14 0)
(2.11096 -0.264775 0)
(1.82928 0.229226 0)
(1.8295 0.228194 0)
(2 -1.03256e-13 0)
(1.86078 0.214429 0)
(2.05629 -0.0703153 0)
(2 2.76051e-13 0)
(2 2.35257e-13 0)
(2 -2.27731e-16 0)
(1.82928 0.229076 0)
(2 1.73014e-14 0)
(1.86303 0.217654 0)
(2 -8.57358e-14 0)
(1.82835 0.228268 0)
(2.105 -0.255693 0)
(1.85715 0.214037 0)
(2.14405 -0.260225 0)
(2 -1.20163e-13 0)
(1.82991 0.229968 0)
(2.11502 -0.261478 0)
(2.1042 -0.263873 0)
(2 4.34669e-14 0)
(1.82845 0.228491 0)
(2 1.52144e-14 0)
(2 4.29477e-14 0)
(2 -1.23236e-13 0)
(1.86885 0.214819 0)
(1.85463 0.214891 0)
(1.82807 0.228516 0)
(2 2.56542e-13 0)
(2 1.89915e-13 0)
(2.1254 -0.265977 0)
(2 2.77242e-14 0)
(1.93425 0.13253 0)
(2 2.15416e-13 0)
(1.82742 0.227504 0)
(2 -2.44794e-13 0)
(2 -4.29764e-14 0)
(2 4.57048e-13 0)
(2 2.90864e-13 0)
(2.10118 -0.263099 0)
(2 -1.87503e-14 0)
(2.10378 -0.261884 0)
(2 1.07824e-13 0)
(1.82893 0.229146 0)
(2 3.38771e-13 0)
(1.82829 0.228878 0)
(2 -5.4378e-15 0)
(2 1.2783e-09 0)
(2 -1.60197e-13 0)
(2 3.49082e-14 0)
(2.13534 -0.263343 0)
(2 -9.92208e-14 0)
(2 5.8858e-14 0)
(2.13018 -0.269919 0)
(2 -2.68488e-14 0)
(2.1034 -0.267398 0)
(2 1.76144e-14 0)
(2 -2.19913e-13 0)
(2 8.84673e-15 0)
(2.12834 -0.26691 0)
(2 4.54174e-14 0)
(1.83238 0.229121 0)
(1.91527 0.158035 0)
(2 7.71063e-10 0)
(1.83295 0.228826 0)
(1.82503 0.23959 0)
(2.10164 -0.267386 0)
(1.82865 0.228054 0)
(2.10106 -0.264012 0)
(2 8.73855e-14 0)
(1.83014 0.22872 0)
(2.10918 -0.263248 0)
(1.83007 0.228858 0)
(1.83006 0.228788 0)
(2 -2.80513e-15 0)
(2 5.01246e-07 0)
(2 -3.52429e-15 0)
(2 -2.69734e-14 0)
(2.04215 -0.0442463 0)
(2.12314 -0.264999 0)
(1.82852 0.228206 0)
(2 -2.28594e-13 0)
(2 -1.49272e-11 0)
(2.13633 -0.265805 0)
(2 5.16801e-14 0)
(1.86312 0.217978 0)
(2.13357 -0.268384 0)
(2 2.14957e-08 0)
(2 1.94341e-15 0)
(2 -1.79263e-13 0)
(2 -9.42406e-14 0)
(1.93165 0.132796 0)
(1.82993 0.228736 0)
(2.1378 -0.257427 0)
(2 8.64606e-10 0)
(2 -1.17285e-09 0)
(1.97698 0.0666977 0)
(2 8.70159e-09 0)
(2.10663 -0.260519 0)
(2 -2.25389e-13 0)
(1.82829 0.228 0)
(1.82945 0.228517 0)
(2 2.31296e-09 0)
(2 4.1031e-13 0)
(2.14291 -0.271192 0)
(2.13858 -0.269228 0)
(2.11787 -0.264384 0)
(2 7.54191e-14 0)
(2 -8.39005e-08 0)
(2 -3.84774e-14 0)
(2 -3.1617e-13 0)
(2 1.34742e-07 0)
(2.04881 -0.0493648 0)
(2 -5.70118e-08 0)
(1.8791 0.204317 0)
(2.00166 0.0283538 0)
(1.83073 0.228498 0)
(2 -8.37104e-14 0)
(1.8312 0.228573 0)
(1.82968 0.22852 0)
(1.86085 0.214984 0)
(1.82974 0.228836 0)
(2 -2.87913e-13 0)
(2.12839 -0.264766 0)
(2 -1.33974e-14 0)
(2.15576 -0.264483 0)
(2 1.12873e-14 0)
(2 1.95335e-14 0)
(2 1.54778e-13 0)
(2 -2.34011e-14 0)
(1.82948 0.228178 0)
(2 1.78601e-09 0)
(2 1.43345e-15 0)
(2 4.56415e-13 0)
(2 -1.62914e-13 0)
(1.82866 0.228288 0)
(2 7.16734e-16 0)
(1.99429 0.0152475 0)
(2 2.36074e-14 0)
(2 -2.38624e-14 0)
(2 -1.61056e-11 0)
(2 -2.90858e-14 0)
(2.10874 -0.264434 0)
(2 2.47558e-14 0)
(1.99549 0.00975947 0)
(2 6.28926e-14 0)
(2.10011 -0.263424 0)
(2 2.42874e-13 0)
(2 -6.99252e-14 0)
(2 -1.30083e-13 0)
(1.82819 0.228797 0)
(2 8.55238e-15 0)
(1.82984 0.228525 0)
(2.14129 -0.269303 0)
(2.14745 -0.264979 0)
(1.83403 0.229833 0)
(1.83218 0.229084 0)
(2 -3.78023e-15 0)
(1.98608 0.0515878 0)
(1.9223 0.146524 0)
(2 3.96353e-15 0)
(1.83162 0.22909 0)
(2.10062 -0.263262 0)
(1.86843 0.214911 0)
(2 -4.49847e-14 0)
(2 2.57477e-14 0)
(2 1.69365e-14 0)
(2 -2.58859e-13 0)
(1.86128 0.214424 0)
(1.85991 0.19609 0)
(2 -4.29235e-13 0)
(1.8307 0.228618 0)
(2.13211 -0.270357 0)
(1.82979 0.228908 0)
(2 -4.44021e-14 0)
(2.12608 -0.26675 0)
(2 2.72753e-13 0)
(2.10577 -0.262544 0)
(2.14726 -0.262637 0)
(2.00005 -7.20077e-05 0)
(2 1.72925e-13 0)
(2 1.76464e-13 0)
(1.82976 0.228774 0)
(2 7.65662e-15 0)
(2 -6.01611e-14 0)
(1.83171 0.228626 0)
(2 3.6506e-13 0)
(1.82961 0.228788 0)
(1.83063 0.228432 0)
(2.10514 -0.267628 0)
(2 2.82998e-14 0)
(2 -1.84301e-13 0)
(2.113 -0.263867 0)
(1.83193 0.229005 0)
(2 6.77571e-14 0)
(2 3.20839e-14 0)
(2 -2.36625e-14 0)
(1.83172 0.228919 0)
(2 -4.50357e-14 0)
(2.12921 -0.262654 0)
(2 -1.24396e-11 0)
(2 -2.97162e-14 0)
(1.83152 0.229066 0)
(1.83123 0.228973 0)
(1.82889 0.228303 0)
(2 1.84268e-14 0)
(1.99999 1.46068e-05 0)
(2 -6.91915e-14 0)
(2 -3.10549e-14 0)
(2 -1.99096e-13 0)
(1.86351 0.216395 0)
(2 -9.63156e-14 0)
(2.12701 -0.269247 0)
(1.82869 0.236967 0)
(1.83229 0.229048 0)
(1.86028 0.214666 0)
(2 1.91513e-07 0)
(2 5.27551e-14 0)
(2 1.45835e-13 0)
(2.11741 -0.271543 0)
(1.83196 0.22907 0)
(1.92667 0.10897 0)
(2 -1.99028e-14 0)
(1.86436 0.219521 0)
(2.11483 -0.264834 0)
(2.12408 -0.261301 0)
(1.86435 0.220047 0)
(1.83135 0.229439 0)
(2 1.50284e-14 0)
(1.83012 0.232418 0)
(2.14474 -0.271008 0)
(1.87383 0.210364 0)
(2 1.70492e-13 0)
(2 -1.78623e-13 0)
(2 9.66223e-14 0)
(2 -5.27966e-14 0)
(1.83147 0.228727 0)
(2 3.77655e-13 0)
(1.90732 0.134681 0)
(1.98192 0.0307938 0)
(2 -1.26775e-13 0)
(2 -2.81594e-13 0)
(1.83191 0.229062 0)
(2.13398 -0.266458 0)
(2.0942 -0.158104 0)
(2 2.39341e-13 0)
(1.83109 0.230728 0)
(2.1335 -0.263369 0)
(1.83043 0.22938 0)
(2 -3.97061e-14 0)
(2 3.03404e-14 0)
(2 1.53614e-13 0)
(2 2.56721e-13 0)
(2 1.68348e-13 0)
(2 2.5816e-13 0)
(2 -1.55706e-14 0)
(2.10699 -0.263306 0)
(2.0928 -0.153349 0)
(2.12525 -0.261681 0)
(1.83135 0.228977 0)
(2 -2.8615e-13 0)
(2 9.77663e-14 0)
(2 -1.5737e-07 0)
(2 3.42366e-13 0)
(1.84445 0.206702 0)
(2 -2.13705e-07 0)
(2.10353 -0.263144 0)
(2 9.80743e-14 0)
(2.11237 -0.284731 0)
(2.11153 -0.260971 0)
(1.83189 0.228947 0)
(2.0989 -0.262239 0)
(1.86334 0.217182 0)
(2 1.58051e-14 0)
(2 1.02614e-13 0)
(2 1.4727e-13 0)
(2.00086 -0.00168182 0)
(2.12167 -0.267013 0)
(2.13495 -0.275189 0)
(2 -3.26646e-07 0)
(2 -1.41967e-07 0)
(2.11606 -0.285365 0)
(2 2.4762e-09 0)
(1.82945 0.228401 0)
(2.12811 -0.262252 0)
(2 -7.66516e-15 0)
(2 -3.45965e-11 0)
(1.83006 0.228859 0)
(2.12906 -0.268977 0)
(2 3.6111e-13 0)
(1.83595 0.22695 0)
(2.15095 -0.264943 0)
(1.83171 0.228968 0)
(2 2.41383e-15 0)
(2.11252 -0.288595 0)
(2.00088 -0.00149888 0)
(2 -5.04821e-14 0)
(2 2.94299e-06 0)
(2 1.03211e-13 0)
(2.10392 -0.262121 0)
(2 3.47099e-13 0)
(2 -9.98745e-08 0)
(2 3.95333e-07 0)
(1.99999 9.912e-06 0)
(1.99132 0.0143928 0)
(1.91604 0.155247 0)
(2 -2.35937e-11 0)
(2.12437 -0.241935 0)
(2 -1.66289e-11 0)
(2 1.02916e-06 0)
(2 -8.79193e-14 0)
(2 9.0983e-14 0)
(2 8.49429e-15 0)
(2 2.46166e-13 0)
(2 -7.15067e-13 0)
(1.82987 0.228801 0)
(2 3.89698e-13 0)
(1.82995 0.229114 0)
(2 7.68985e-14 0)
(2 9.98251e-14 0)
(2 2.34213e-14 0)
(2.12654 -0.261903 0)
(2 1.87138e-14 0)
(1.82846 0.227828 0)
(2.10928 -0.25571 0)
(2 -6.79518e-14 0)
(1.90718 0.143441 0)
(2 2.07755e-13 0)
(2 -2.14367e-13 0)
(1.82873 0.228569 0)
(2 -3.11343e-14 0)
(2 -1.09555e-08 0)
(2 -1.50466e-13 0)
(1.82531 0.227828 0)
(2 5.61918e-10 0)
(2 -1.51112e-13 0)
(1.84062 0.220253 0)
(1.8285 0.229375 0)
(2 1.36523e-14 0)
(1.97754 0.064337 0)
(2 3.1582e-15 0)
(2 -2.19263e-14 0)
(2.14888 -0.263909 0)
(2 1.18544e-13 0)
(2 -5.88442e-14 0)
(2 2.9677e-14 0)
(2.1396 -0.269895 0)
(2 1.74043e-14 0)
(2 1.35625e-13 0)
(2 -1.3742e-13 0)
(2 3.42043e-14 0)
(2.12935 -0.253298 0)
(2 -7.43965e-15 0)
(2 1.82176e-13 0)
(2 3.62262e-13 0)
(2 -2.10159e-13 0)
(2 -1.3996e-14 0)
(2.10761 -0.272198 0)
(1.99998 4.17209e-05 0)
(1.83077 0.229114 0)
(2 -1.84595e-14 0)
(1.99998 -6.55916e-06 0)
(1.83256 0.229263 0)
(1.83391 0.230071 0)
(2 -4.25032e-14 0)
(2 -1.14548e-13 0)
(2.10742 -0.273878 0)
(2.0674 -0.123762 0)
(1.82973 0.228681 0)
(2 1.87347e-13 0)
(2 1.54681e-13 0)
(2 2.38937e-13 0)
(1.83183 0.228908 0)
(2.13129 -0.265377 0)
(2 6.84455e-14 0)
(1.83014 0.228766 0)
(2 3.51991e-14 0)
(2 5.02669e-14 0)
(2.09095 -0.210496 0)
(2.08042 -0.216006 0)
(2 7.85052e-14 0)
(2.11424 -0.264141 0)
(2.12647 -0.261401 0)
(2 1.51289e-13 0)
(2 1.90561e-14 0)
(2 5.90127e-14 0)
(2 7.797e-14 0)
(2 -9.52976e-11 0)
(2 -4.6799e-13 0)
(2 -3.87061e-13 0)
(1.83005 0.228741 0)
(1.97598 0.0712295 0)
(1.84637 0.209122 0)
(2.10803 -0.268402 0)
(2.03334 -0.0477512 0)
(1.83025 0.228638 0)
(2 -1.75791e-13 0)
(1.83247 0.228423 0)
(1.82918 0.228794 0)
(2.12086 -0.263121 0)
(2.0817 -0.155652 0)
(2 8.33397e-13 0)
(2.12412 -0.26399 0)
(2 -2.79469e-14 0)
(1.82035 0.232578 0)
(2 -1.76608e-13 0)
(2 7.96316e-14 0)
(2 -1.94907e-13 0)
(2 3.31747e-14 0)
(1.83193 0.228897 0)
(2 -8.89755e-14 0)
(2 -1.09922e-13 0)
(2 -3.32018e-16 0)
(2 1.49589e-09 0)
(2 2.47203e-14 0)
(2 1.85805e-13 0)
(2 -6.20436e-14 0)
(1.94071 0.0938553 0)
(1.82775 0.22798 0)
(2 -1.37174e-14 0)
(1.83137 0.228942 0)
(2 1.04983e-13 0)
(2 -2.25573e-13 0)
(2.1105 -0.263395 0)
(2 -1.32044e-13 0)
(2 7.32876e-14 0)
(2 -2.11666e-14 0)
(2 1.05196e-13 0)
(1.83168 0.228971 0)
(1.87382 0.183463 0)
(2 3.94998e-13 0)
(2 1.83282e-13 0)
(2.11068 -0.26192 0)
(1.83245 0.229384 0)
(1.83174 0.229095 0)
(2 2.20349e-13 0)
(1.83171 0.229097 0)
(1.83195 0.228996 0)
(1.83131 0.228893 0)
(2 -5.62087e-14 0)
(2.06335 -0.111959 0)
(2 -2.54515e-13 0)
(1.83191 0.228822 0)
(2.01957 -0.00614719 0)
(1.83137 0.229009 0)
(2 7.57856e-14 0)
(2.12124 -0.26105 0)
(2.0004 -0.00062558 0)
(1.83111 0.229217 0)
(2 1.84351e-13 0)
(2 3.44235e-16 0)
(2 -1.39541e-11 0)
(2 -7.18544e-12 0)
(2.1069 -0.260205 0)
(1.83196 0.229004 0)
(1.87109 0.212385 0)
(2 2.01758e-13 0)
(1.85772 0.214384 0)
(1.83183 0.228845 0)
(1.82964 0.228742 0)
(2 -1.82175e-13 0)
(1.91794 0.119777 0)
(1.85951 0.215366 0)
(2 -1.74258e-13 0)
(2 -8.03377e-14 0)
(1.88977 0.166191 0)
(1.97782 0.0431111 0)
(1.83148 0.229078 0)
(2.03783 -0.0382706 0)
(1.8315 0.229109 0)
(2 4.76361e-14 0)
(1.83141 0.229091 0)
(1.8314 0.22905 0)
(1.83134 0.229071 0)
(1.83237 0.229442 0)
(2 7.14704e-14 0)
(1.83185 0.227222 0)
(2.02477 -0.0563355 0)
(2.03152 -0.0920561 0)
(2 8.66929e-14 0)
(2 -3.7637e-07 0)
(2 -7.13353e-15 0)
(2 3.72802e-13 0)
(1.8301 0.228165 0)
(2 1.50955e-14 0)
(2 8.36667e-14 0)
(2 -8.68959e-15 0)
(2 -3.21562e-14 0)
(2 1.75568e-13 0)
(1.82965 0.22894 0)
(2 1.24903e-13 0)
(2 1.61535e-14 0)
(2.00144 -0.00244717 0)
(1.83182 0.229058 0)
(1.84624 0.228454 0)
(2 -6.59599e-14 0)
(1.86237 0.192871 0)
(1.99998 2.80612e-05 0)
(2 -1.33923e-13 0)
(2 -5.87564e-14 0)
(1.83167 0.229382 0)
(2 -2.01687e-13 0)
(2.00253 -0.00307575 0)
(1.99818 0.00437116 0)
(2 -4.20606e-14 0)
(1.8314 0.229082 0)
(2 5.85406e-14 0)
(1.83221 0.228688 0)
(2 1.84064e-14 0)
(2 1.30557e-14 0)
(1.88373 0.178277 0)
(2 -4.54576e-14 0)
(1.83227 0.228447 0)
(1.99999 1.26787e-05 0)
(2 -1.88284e-13 0)
(1.83225 0.22868 0)
(2 1.48224e-13 0)
(1.83179 0.229044 0)
(2 2.49878e-14 0)
(2 3.17849e-06 0)
(2 2.81969e-14 0)
(1.83155 0.228673 0)
(2 1.27074e-13 0)
(1.83182 0.228111 0)
(2 4.51443e-06 0)
(1.83163 0.228777 0)
(1.83149 0.228941 0)
(1.83185 0.228964 0)
(1.82993 0.228698 0)
(2 -1.08555e-13 0)
(1.82871 0.229356 0)
(1.82986 0.235113 0)
(2 -1.32428e-13 0)
(2.10773 -0.266522 0)
(1.85234 0.216087 0)
(1.89811 0.177584 0)
(2 6.51937e-14 0)
(1.83198 0.228817 0)
(2 2.00816e-13 0)
(2.13994 -0.265057 0)
(2.15077 -0.264021 0)
(2 1.7934e-14 0)
(2 1.82615e-13 0)
(2 2.56248e-13 0)
(2 -1.49811e-13 0)
(2 2.26458e-09 0)
(2.13179 -0.26969 0)
(2 -9.20792e-14 0)
(1.83136 0.228986 0)
(1.95653 0.0737882 0)
(1.8321 0.229596 0)
(2 3.68549e-14 0)
(2 6.48419e-11 0)
(2 1.53346e-13 0)
(2 2.3179e-13 0)
(2 -5.40183e-08 0)
(1.83137 0.229047 0)
(2 -1.07969e-13 0)
(1.82897 0.230292 0)
(1.9031 0.147442 0)
(2.07636 -0.158391 0)
(2 1.34026e-09 0)
(2 6.05998e-06 0)
(1.94588 0.0802462 0)
(1.9604 0.0664813 0)
(2 1.20491e-13 0)
(2 -3.69466e-15 0)
(1.95695 0.0997747 0)
(2 -1.51626e-13 0)
(2.10763 -0.263278 0)
(1.83166 0.228898 0)
(1.83164 0.228903 0)
(2 -2.04485e-11 0)
(2 -1.28949e-13 0)
(2 -9.4265e-14 0)
(1.82919 0.228468 0)
(2 2.08112e-13 0)
(1.99999 1.55166e-05 0)
(1.85438 0.216744 0)
(1.83202 0.228961 0)
(2.01798 -0.0309892 0)
(2 -1.22652e-13 0)
(2 1.73223e-10 0)
(2.0996 -0.26311 0)
(1.85511 0.21224 0)
(2 -4.39153e-14 0)
(2 2.26557e-13 0)
(2 -5.05634e-14 0)
(2 -2.80498e-11 0)
(2 9.30777e-14 0)
(1.83176 0.229073 0)
(1.82884 0.228768 0)
(2 -7.41804e-14 0)
(1.83201 0.229361 0)
(1.83122 0.228042 0)
(1.83176 0.22895 0)
(2 1.06101e-13 0)
(2 -9.72044e-15 0)
(2 -6.10646e-11 0)
(2 1.6377e-13 0)
(2.13863 -0.261632 0)
(1.82912 0.228494 0)
(2 -4.94005e-11 0)
(2 5.36456e-14 0)
(1.85997 0.211178 0)
(1.84107 0.226853 0)
(2 -2.02671e-13 0)
(1.85471 0.21752 0)
(1.83007 0.227489 0)
(2 1.38038e-13 0)
(2 -2.18567e-07 0)
(2 8.79833e-11 0)
(2 3.56289e-14 0)
(2 1.03624e-13 0)
(1.8314 0.229011 0)
(2 1.00813e-13 0)
(2 6.5594e-14 0)
(2 4.07303e-13 0)
(2 4.33888e-14 0)
(1.83248 0.229306 0)
(2 2.32704e-13 0)
(1.83376 0.226747 0)
(2.11826 -0.259609 0)
(2 8.53388e-14 0)
(2.12431 -0.265923 0)
(2 1.07897e-13 0)
(2 -1.44805e-07 0)
(2 4.61047e-14 0)
(2.00117 -0.00171466 0)
(2.11455 -0.262553 0)
(2.00035 -0.000610325 0)
(2 4.38079e-14 0)
(2 3.98444e-14 0)
(2 -1.19714e-07 0)
(1.97289 0.0405396 0)
(2 7.67197e-14 0)
(2 1.15262e-13 0)
(2.04626 -0.0803148 0)
(2 -2.1737e-07 0)
(2 -6.98972e-14 0)
(2 7.4573e-14 0)
(2 -2.18627e-07 0)
(2 1.68208e-07 0)
(2 -6.87689e-08 0)
(2 -2.66588e-13 0)
(2 -1.70486e-06 0)
(2.03136 -0.0448717 0)
(2 -4.56954e-07 0)
(2 -3.79047e-08 0)
(2.00089 -0.00137734 0)
(2 1.84589e-14 0)
(2.10908 -0.259856 0)
(2 -2.83885e-11 0)
(2 -4.19496e-12 0)
(2 -4.86146e-11 0)
(2 1.43613e-13 0)
(1.87951 0.180827 0)
(2 -8.90455e-14 0)
(2 -3.44941e-14 0)
(2 -1.55087e-13 0)
(2 -1.07265e-07 0)
(2.12388 -0.258248 0)
(2 6.45854e-14 0)
(2 1.4702e-09 0)
(1.8506 0.216388 0)
(1.82921 0.22861 0)
(2 -2.91759e-07 0)
(2 -9.74707e-14 0)
(2 -1.14413e-07 0)
(2.02738 -0.0876152 0)
(2 -2.09449e-13 0)
(2 4.70279e-10 0)
(2 -1.10838e-13 0)
(2 1.87245e-13 0)
(2 -9.84324e-14 0)
(2 -5.80297e-14 0)
(2.01949 -0.026831 0)
(1.99867 0.010445 0)
(1.86261 0.217171 0)
(2 4.96055e-14 0)
(2 4.27282e-14 0)
(2 8.61117e-15 0)
(1.83159 0.228408 0)
(2.05555 -0.0584084 0)
(2 -4.92682e-09 0)
(2 1.01219e-13 0)
(2 -6.84141e-14 0)
(1.8268 0.228211 0)
(1.83382 0.228767 0)
(2 -2.83948e-08 0)
(2 4.64423e-06 0)
(2 3.67428e-09 0)
(2 -4.88526e-14 0)
(2 1.2326e-09 0)
(2 -8.54127e-14 0)
(2 -2.17702e-11 0)
(2 -4.71365e-14 0)
(2 1.26763e-13 0)
(2.12613 -0.261567 0)
(2 1.6169e-14 0)
(2 -1.44843e-11 0)
(1.82863 0.229048 0)
(2.12815 -0.262979 0)
(2 -1.28977e-13 0)
(1.8288 0.228757 0)
(2 7.8237e-11 0)
(2.11435 -0.267268 0)
(2 3.74748e-14 0)
(2 -2.95362e-13 0)
(2.1246 -0.261415 0)
(2 1.52398e-13 0)
(2 -1.07291e-11 0)
(2 -4.76196e-12 0)
(2 1.4026e-13 0)
(2 -2.52622e-12 0)
(2 7.74342e-14 0)
(2 -1.21841e-13 0)
(1.84655 0.223686 0)
(1.84233 0.226948 0)
(2 3.89668e-13 0)
(2 7.87429e-14 0)
(2 6.2739e-14 0)
(2 3.60831e-13 0)
(1.85915 0.212353 0)
(2 2.35609e-13 0)
(1.94809 0.0762368 0)
(2.1156 -0.266942 0)
(2 -3.17498e-08 0)
(2 3.10058e-13 0)
(2 1.68336e-13 0)
(2 -2.97024e-13 0)
(2 2.16641e-13 0)
(2 1.48807e-13 0)
(2 1.4984e-15 0)
(1.98949 0.0185783 0)
(2 -2.1261e-15 0)
(2 2.62282e-13 0)
(1.90372 0.132449 0)
(2 -1.04826e-14 0)
(2 -1.43803e-13 0)
(2 -4.60576e-14 0)
(1.88149 0.199604 0)
(2 -1.03219e-13 0)
(2 -5.21673e-14 0)
(2 3.22967e-13 0)
(2 3.99783e-13 0)
(2.12106 -0.261163 0)
(2 2.90851e-12 0)
(2 2.09202e-14 0)
(2.13776 -0.273871 0)
(2.12289 -0.265075 0)
(2 6.81361e-14 0)
(2 1.47629e-13 0)
(1.83192 0.228787 0)
(2 7.47286e-14 0)
(1.99147 -0.00214002 0)
(2 -1.65457e-14 0)
(2 -5.21879e-14 0)
(2 -7.17763e-14 0)
(1.88823 0.165827 0)
(2.10625 -0.26684 0)
(2 -2.05125e-13 0)
(2.10804 -0.276763 0)
(2 4.7795e-14 0)
(2.06123 -0.154614 0)
(2 -1.21216e-14 0)
(2 1.39122e-13 0)
(2 1.63454e-13 0)
(1.83053 0.228572 0)
(2 -4.01491e-08 0)
(2 1.74145e-13 0)
(1.83139 0.22873 0)
(2 7.01816e-14 0)
(2 -1.83451e-11 0)
(2 1.70142e-09 0)
(1.83134 0.228812 0)
(2 2.26579e-10 0)
(2 1.11905e-13 0)
(1.83176 0.228957 0)
(2 -2.73206e-13 0)
(2 -6.52127e-14 0)
(2.11892 -0.261481 0)
(2 -1.78211e-11 0)
(1.94978 0.0768809 0)
(2 7.52824e-15 0)
(2 3.40004e-15 0)
(1.82965 0.228477 0)
(1.83036 0.228463 0)
(1.88938 0.162434 0)
(1.86287 0.208631 0)
(2 2.3832e-14 0)
(2.11941 -0.263774 0)
(2 -6.2899e-14 0)
(2 6.92746e-15 0)
(1.84397 0.219509 0)
(2 1.33486e-13 0)
(2.11719 -0.265909 0)
(2 -4.10388e-14 0)
(2 -1.31443e-13 0)
(2 -9.44109e-14 0)
(1.83138 0.229278 0)
(2 1.75921e-14 0)
(2 -4.68119e-14 0)
(2 -1.59077e-13 0)
(2 -1.13393e-13 0)
(1.89934 0.149066 0)
(2 2.50277e-13 0)
(1.87755 0.192132 0)
(1.82842 0.230067 0)
(2.12432 -0.267089 0)
(2 -1.30458e-13 0)
(2 1.13295e-13 0)
(2.14325 -0.254867 0)
(2.14432 -0.257261 0)
(2 -9.09795e-14 0)
(2 -1.3441e-13 0)
(2 -5.47808e-12 0)
(1.88275 0.169704 0)
(1.87757 0.180747 0)
(2 1.29758e-13 0)
(2 3.27515e-13 0)
(2 3.7606e-13 0)
(2 -2.14055e-14 0)
(2 -4.82744e-14 0)
(2 -1.81701e-13 0)
(2 2.32202e-13 0)
(1.92676 0.112617 0)
(1.83032 0.228912 0)
(1.99625 0.00867939 0)
(2 1.19355e-13 0)
(1.86459 0.220001 0)
(2.13147 -0.263937 0)
(2 -3.92612e-14 0)
(2 -2.79001e-14 0)
(2 -2.07986e-13 0)
(1.90899 0.133972 0)
(2 -1.87122e-13 0)
(1.96651 0.0541316 0)
(2 -3.42759e-14 0)
(1.85473 0.21117 0)
(1.84732 0.225819 0)
(2 3.79834e-14 0)
(2.12264 -0.260737 0)
(2 6.03525e-14 0)
(1.82899 0.228869 0)
(2 5.33237e-14 0)
(2 1.20654e-14 0)
(1.83067 0.228736 0)
(1.85564 0.216907 0)
(2 3.73062e-13 0)
(1.82609 0.229758 0)
(2 5.04393e-14 0)
(2.11922 -0.274236 0)
(2 2.54986e-14 0)
(2 1.63673e-13 0)
(2 5.34251e-14 0)
(1.82925 0.231479 0)
(1.84732 0.223795 0)
(1.85779 0.207174 0)
(2 -2.02654e-15 0)
(1.83017 0.228681 0)
(1.83162 0.229005 0)
(2 -1.3908e-13 0)
(1.83123 0.229497 0)
(2 -8.78933e-09 0)
(1.8468 0.225607 0)
(2 1.07888e-13 0)
(2.13354 -0.262176 0)
(2.00265 -0.0274469 0)
(2.12594 -0.263381 0)
(2 -3.45206e-11 0)
(2 -2.14998e-11 0)
(2 -3.32185e-11 0)
(2 2.06184e-13 0)
(2 -1.41755e-11 0)
(1.83216 0.229282 0)
(2 -6.2401e-15 0)
(1.83206 0.229159 0)
(2 -3.80788e-11 0)
(2 -1.00742e-10 0)
(2 1.18285e-13 0)
(1.85289 0.219093 0)
(2 -9.89717e-14 0)
(2.09204 -0.265842 0)
(1.83137 0.228807 0)
(2 1.65956e-14 0)
(2.12836 -0.261306 0)
(2.09901 -0.246907 0)
(2.1017 -0.265508 0)
(2 -1.4601e-13 0)
(1.91859 0.125123 0)
(1.98815 0.0156284 0)
(1.84382 0.226649 0)
(1.83136 0.228916 0)
(2 1.25779e-13 0)
(2 -3.69581e-07 0)
(2 -1.0109e-07 0)
(2 6.29891e-14 0)
(1.83144 0.228866 0)
(2 2.27002e-14 0)
(2 -9.0295e-14 0)
(1.83142 0.228925 0)
(1.8317 0.229209 0)
(2 -9.33663e-14 0)
(1.95543 0.0995797 0)
(1.99963 0.000849894 0)
(2 1.51884e-13 0)
(2.00116 -0.00197783 0)
(1.83118 0.228358 0)
(2.05657 -0.110176 0)
(2 -1.26061e-07 0)
(2.07174 -0.123558 0)
(2.10707 -0.263871 0)
(2.10743 -0.264462 0)
(2.01067 -0.0189614 0)
(1.82885 0.228011 0)
(1.84829 0.224312 0)
(1.96534 0.0562695 0)
(1.84009 0.227304 0)
(1.83151 0.229321 0)
(2 4.48472e-15 0)
(2 1.10917e-13 0)
(1.83113 0.22885 0)
(1.8296 0.228635 0)
(1.83152 0.229317 0)
(1.8289 0.22907 0)
(2 -3.32773e-14 0)
(1.84655 0.22623 0)
(2.10757 -0.260835 0)
(1.83241 0.231582 0)
(1.8318 0.230439 0)
(1.82891 0.228343 0)
(1.83123 0.229306 0)
(2.04122 -0.0904231 0)
(2.04169 -0.068271 0)
(2.03024 -0.0414742 0)
(1.83174 0.228933 0)
(2.0172 -0.0312836 0)
(1.83154 0.228373 0)
(2 2.73647e-13 0)
(2 5.81724e-14 0)
(1.84497 0.22665 0)
(1.83185 0.228724 0)
(2 1.75679e-13 0)
(2.12609 -0.263543 0)
(1.82988 0.227989 0)
(1.83176 0.229183 0)
(2 2.22005e-13 0)
(1.83178 0.229124 0)
(1.83161 0.229242 0)
(2 1.02467e-13 0)
(1.83168 0.228902 0)
(2.12758 -0.261761 0)
(1.83306 0.230172 0)
(1.83033 0.228813 0)
(1.82962 0.228654 0)
(1.83162 0.233467 0)
(2 9.08664e-14 0)
(2 -1.54009e-14 0)
(2 -1.02308e-07 0)
(1.83182 0.229003 0)
(1.89445 0.160409 0)
(2.13789 -0.237411 0)
(1.83141 0.228811 0)
(2.13079 -0.269926 0)
(1.83185 0.228909 0)
(2 4.44069e-14 0)
(2 7.39591e-14 0)
(2 -9.76612e-14 0)
(2 -1.14458e-13 0)
(1.83027 0.229301 0)
(1.83139 0.228993 0)
(2 -3.28474e-15 0)
(2 -1.23418e-13 0)
(1.83149 0.22904 0)
(2.1267 -0.262503 0)
(1.83174 0.2289 0)
(2.108 -0.261037 0)
(2 2.30536e-14 0)
(1.84612 0.225577 0)
(2 -7.57457e-15 0)
(2.10976 -0.26681 0)
(1.83064 0.22951 0)
(2.08617 -0.183036 0)
(2 -2.49608e-14 0)
(1.83132 0.228776 0)
(1.83061 0.230036 0)
(1.83184 0.229308 0)
(2 2.5608e-13 0)
(2 4.77036e-14 0)
(1.94708 0.0897654 0)
(1.83077 0.229865 0)
(2.11663 -0.263552 0)
(1.8319 0.228804 0)
(2 1.66648e-14 0)
(1.83326 0.228501 0)
(2.05306 -0.086304 0)
(1.83206 0.229766 0)
(2.12606 -0.260243 0)
(2 -1.20304e-13 0)
(1.8319 0.229549 0)
(2.08984 -0.241743 0)
(1.84515 0.226818 0)
(2.11821 -0.266016 0)
(2 -1.03921e-13 0)
(1.83134 0.229196 0)
(2 -9.80227e-14 0)
(1.82972 0.228604 0)
(2 -3.87404e-14 0)
(1.92122 0.147695 0)
(1.84831 0.220854 0)
(1.87486 0.188462 0)
(2.15144 -0.266733 0)
(2 -1.98521e-13 0)
(1.83064 0.228117 0)
(2 -5.13051e-14 0)
(1.83244 0.229274 0)
(2 -1.15315e-07 0)
(1.83183 0.229157 0)
(2 -2.42193e-07 0)
(2 3.1269e-13 0)
(1.83132 0.228767 0)
(2.02433 -0.00864308 0)
(1.83046 0.229997 0)
(2.10006 -0.271484 0)
(1.84836 0.211471 0)
(2 -1.66686e-13 0)
(1.89973 0.178296 0)
(2 -3.91547e-14 0)
(1.83014 0.228535 0)
(1.83195 0.229064 0)
(1.83127 0.229709 0)
(2 -2.99315e-14 0)
(1.86153 0.208738 0)
(1.82999 0.229239 0)
(1.85805 0.21514 0)
(1.8971 0.152177 0)
(1.82472 0.228398 0)
(2 -2.27536e-14 0)
(1.88745 0.164945 0)
(2 1.07937e-14 0)
(1.83096 0.228758 0)
(2 4.65402e-13 0)
(1.97713 0.0323857 0)
(2 -1.27002e-13 0)
(1.84817 0.215729 0)
(2 9.16146e-14 0)
(1.83338 0.228495 0)
(1.84622 0.218951 0)
(1.85235 0.219166 0)
(2 -5.65416e-14 0)
(1.83483 0.227746 0)
(2.15067 -0.265264 0)
(2 9.09651e-14 0)
(2.11638 -0.261748 0)
(2 1.59735e-13 0)
(2 -7.41704e-14 0)
(2 -6.19023e-14 0)
(1.82845 0.228042 0)
(2 7.50492e-15 0)
(1.83166 0.229317 0)
(2 -4.92486e-14 0)
(2 2.89634e-13 0)
(2 3.28242e-13 0)
(1.83131 0.229496 0)
(1.83154 0.231024 0)
(1.86717 0.189629 0)
(1.83312 0.22833 0)
(1.83391 0.229766 0)
(2.12355 -0.263855 0)
(1.83378 0.229418 0)
(1.83001 0.228743 0)
(2 -6.19482e-14 0)
(1.85198 0.202044 0)
(1.83187 0.228887 0)
(1.83881 0.210739 0)
(2 -2.96239e-14 0)
(1.83117 0.228882 0)
(1.82836 0.228414 0)
(2 2.47262e-13 0)
(1.82747 0.230803 0)
(1.83104 0.229181 0)
(1.83164 0.228772 0)
(1.8308 0.229479 0)
(2 9.87122e-14 0)
(2 -1.05386e-13 0)
(2 -1.20687e-13 0)
(1.83256 0.228663 0)
(2.13777 -0.263435 0)
(2 -2.4373e-14 0)
(1.83143 0.228865 0)
(2 -8.36887e-14 0)
(2 1.8007e-13 0)
(2.14334 -0.262546 0)
(2 1.01967e-13 0)
(2 1.21197e-13 0)
(1.83144 0.228796 0)
(1.83191 0.22916 0)
(2 8.23315e-14 0)
(1.83197 0.228914 0)
(1.82697 0.230544 0)
(1.83121 0.22874 0)
(2.00529 -0.0219627 0)
(1.83122 0.228879 0)
(2 2.71171e-14 0)
(1.83121 0.228885 0)
(1.83134 0.228887 0)
(1.87257 0.185809 0)
(2 7.43154e-14 0)
(2 2.41735e-13 0)
(2 1.10662e-13 0)
(1.83013 0.228407 0)
(1.83231 0.229017 0)
(1.83248 0.228732 0)
(2.00645 -0.0369201 0)
(2 -3.42189e-14 0)
(1.8309 0.232729 0)
(1.83228 0.22899 0)
(1.83082 0.228282 0)
(2 5.81714e-14 0)
(1.83221 0.229132 0)
(1.83203 0.228497 0)
(1.83129 0.228834 0)
(1.83207 0.23378 0)
(2 -5.97873e-14 0)
(1.83203 0.229398 0)
(1.83264 0.227841 0)
(1.85692 0.203835 0)
(1.8321 0.229471 0)
(1.83273 0.232838 0)
(2 1.29213e-14 0)
(1.82887 0.231263 0)
(1.84282 0.225539 0)
(1.83204 0.228828 0)
(1.82994 0.229113 0)
(1.83217 0.229366 0)
(2.16368 -0.251618 0)
(1.8301 0.228787 0)
(1.83124 0.228501 0)
(2 -3.18531e-14 0)
(1.8311 0.228729 0)
(1.83223 0.228667 0)
(1.83125 0.22909 0)
(1.83153 0.229433 0)
(2 -5.23815e-08 0)
(1.8323 0.22872 0)
(1.8317 0.228885 0)
(2 -8.87613e-08 0)
(1.83178 0.229044 0)
(1.86541 0.197503 0)
(2 2.07263e-13 0)
(2 -3.95913e-14 0)
(2 4.67791e-10 0)
(1.83182 0.228988 0)
(1.8349 0.233433 0)
(2 -4.6805e-14 0)
(2 4.59621e-14 0)
(1.91034 0.131173 0)
(2 1.02956e-13 0)
(1.86262 0.216752 0)
(2 -6.38482e-14 0)
(2 1.34983e-14 0)
(1.83161 0.229351 0)
(1.864 0.219416 0)
(1.832 0.229388 0)
(1.83155 0.229276 0)
(2 8.10289e-14 0)
(2 -3.58303e-14 0)
(2 -8.68005e-14 0)
(1.8794 0.170072 0)
(2 1.36844e-13 0)
(1.83135 0.228422 0)
(2 -2.4846e-14 0)
(2 -4.19795e-14 0)
(1.83217 0.228715 0)
(1.83046 0.228773 0)
(2 -2.35577e-14 0)
(1.83156 0.228762 0)
(2.12352 -0.275363 0)
(1.83166 0.228829 0)
(1.83231 0.22982 0)
(2.11416 -0.193049 0)
(2 -6.89782e-14 0)
(2.14668 -0.26664 0)
(1.84956 0.206054 0)
(1.82911 0.226869 0)
(1.8323 0.22815 0)
(1.83253 0.227947 0)
(2.09637 -0.269996 0)
(1.82956 0.228967 0)
(1.83119 0.229627 0)
(2.10276 -0.267789 0)
(2.13549 -0.272711 0)
(2 -2.54842e-07 0)
(1.83163 0.229069 0)
(1.8317 0.229237 0)
(2 -4.16142e-14 0)
(2 2.59918e-14 0)
(1.83209 0.228828 0)
(2 -1.18091e-13 0)
(1.82896 0.227534 0)
(2 2.38257e-06 0)
(1.86058 0.205225 0)
(2 -7.12089e-14 0)
(1.94088 0.12247 0)
(1.83165 0.229235 0)
(1.83037 0.229775 0)
(1.87218 0.17255 0)
(1.84474 0.223135 0)
(1.82886 0.228401 0)
(1.82943 0.228971 0)
(1.83375 0.232175 0)
(2 -3.95269e-13 0)
(2.14015 -0.262367 0)
(1.83195 0.228923 0)
(1.8316 0.228772 0)
(1.82707 0.23021 0)
(2 7.18003e-06 0)
(2 1.6517e-10 0)
(2 1.48931e-09 0)
(1.82902 0.229329 0)
(2 -7.63309e-14 0)
(1.83141 0.228818 0)
(1.83183 0.229002 0)
(2.07043 -0.17807 0)
(2 1.60295e-13 0)
(1.83167 0.228895 0)
(2.00002 -3.76224e-05 0)
(2 -7.19366e-14 0)
(1.99999 1.89921e-05 0)
(1.99998 2.7552e-05 0)
(1.83171 0.228909 0)
(1.83162 0.228079 0)
(2.0005 -0.000874251 0)
(2 -5.24999e-14 0)
(2 4.37684e-14 0)
(1.8322 0.229439 0)
(1.83084 0.229885 0)
(1.83157 0.229445 0)
(1.8307 0.228978 0)
(1.83378 0.229204 0)
(2.12867 -0.243582 0)
(1.86813 0.191018 0)
(2 1.4334e-13 0)
(1.84536 0.225624 0)
(1.83201 0.229318 0)
(1.83151 0.229155 0)
(1.83463 0.224146 0)
(2 2.74497e-13 0)
(1.83196 0.22891 0)
(1.84974 0.222371 0)
(1.83112 0.229481 0)
(2 2.01131e-13 0)
(1.8317 0.228531 0)
(1.8309 0.229777 0)
(2.04632 -0.0975331 0)
(1.83196 0.228908 0)
(1.8314 0.22839 0)
(2 1.17952e-15 0)
(1.83112 0.229038 0)
(2.05814 -0.102986 0)
(1.8313 0.228129 0)
(2.04955 -0.102552 0)
(1.83179 0.228887 0)
(2 -1.57962e-07 0)
(1.83257 0.228566 0)
(1.82579 0.23348 0)
(1.83193 0.22904 0)
(1.83181 0.229109 0)
(1.83262 0.228555 0)
(1.83388 0.229466 0)
(1.83152 0.229157 0)
(1.82861 0.227985 0)
(2 -1.72508e-13 0)
(2.03 -0.0468352 0)
(1.83075 0.22794 0)
(1.83194 0.229032 0)
(2.06315 -0.102259 0)
(1.83162 0.228929 0)
(2.00914 -0.0123619 0)
(1.89717 0.153108 0)
(1.83094 0.228253 0)
(1.83345 0.229111 0)
(1.83042 0.229641 0)
(2 -1.11768e-13 0)
(1.83058 0.23 0)
(1.8943 0.160385 0)
(1.83116 0.228815 0)
(2.02945 -0.0503071 0)
(1.83061 0.229766 0)
(1.82593 0.228601 0)
(2 -1.28554e-13 0)
(2.05198 -0.0852742 0)
(2 -6.51211e-09 0)
(1.83402 0.225045 0)
(2 -5.58749e-14 0)
(1.90119 0.170762 0)
(2 2.93345e-09 0)
(1.83718 0.227545 0)
(2.05449 -0.0824738 0)
(2 -1.57464e-13 0)
(1.83156 0.229902 0)
(1.83187 0.235169 0)
(2 1.26736e-13 0)
(1.8296 0.229839 0)
(1.84409 0.226861 0)
(1.82656 0.230949 0)
(1.83361 0.226637 0)
(1.83057 0.234268 0)
(2 1.20061e-13 0)
(1.83019 0.229138 0)
(2 6.0487e-14 0)
(2 1.95491e-14 0)
(2 -1.25098e-13 0)
(2.04387 -0.0675116 0)
(1.8323 0.22917 0)
(1.83184 0.228573 0)
(1.83032 0.227719 0)
(1.83162 0.228822 0)
(1.83418 0.228 0)
(1.83124 0.228673 0)
(1.82829 0.232348 0)
(1.83173 0.229323 0)
(2.04111 -0.0652499 0)
(1.98761 0.0206379 0)
(2 3.69384e-09 0)
(2 5.72075e-14 0)
(1.82544 0.22988 0)
(1.83173 0.229071 0)
(1.83149 0.228986 0)
(1.83179 0.229059 0)
(1.99999 1.75078e-05 0)
(1.91815 0.131781 0)
(2 -1.71407e-07 0)
(1.82709 0.230148 0)
(1.85174 0.21336 0)
(2 -3.1734e-12 0)
(2 -6.2174e-11 0)
(2.09226 -0.186896 0)
(1.83146 0.228765 0)
(2 1.62364e-13 0)
(2 -1.19268e-13 0)
(2.12228 -0.260477 0)
(1.83141 0.229034 0)
(2 8.10066e-14 0)
(1.83055 0.228846 0)
(1.83165 0.228896 0)
(1.82884 0.228328 0)
(1.8522 0.220192 0)
(1.83192 0.228467 0)
(2 -8.92723e-11 0)
(2.14979 -0.260947 0)
(1.95919 0.0689178 0)
(1.83155 0.228865 0)
(1.832 0.228528 0)
(2 7.97394e-14 0)
(1.83294 0.227611 0)
(1.83148 0.228784 0)
(1.91296 0.124723 0)
(1.99742 0.00629002 0)
(1.96505 0.0611342 0)
(2 -2.68669e-14 0)
(1.82898 0.228808 0)
(1.83147 0.229063 0)
(2 -1.15996e-07 0)
(2 -2.09636e-10 0)
(2.1146 -0.266039 0)
(2 -2.31515e-10 0)
(2 -2.91955e-14 0)
(1.83189 0.228918 0)
(1.83155 0.228832 0)
(1.83193 0.228578 0)
(1.83154 0.229483 0)
(1.83132 0.228839 0)
(1.82852 0.22811 0)
(1.8407 0.227292 0)
(1.83139 0.22972 0)
(1.83139 0.228864 0)
(2 -7.69447e-14 0)
(2.00165 -0.00270725 0)
(1.83077 0.228618 0)
(1.83258 0.228756 0)
(2.00132 -0.00168726 0)
(1.83143 0.228822 0)
(1.83149 0.228652 0)
(2.14567 -0.255465 0)
(2.12757 -0.268611 0)
(1.83205 0.22863 0)
(1.83243 0.228863 0)
(2 5.91812e-14 0)
(2 3.79425e-13 0)
(1.99944 0.00201602 0)
(1.83157 0.229145 0)
(1.83242 0.228908 0)
(1.83164 0.229017 0)
(2 1.15434e-09 0)
(1.83144 0.228746 0)
(2 2.21597e-14 0)
(2.06734 -0.0887587 0)
(1.82672 0.230409 0)
(1.82996 0.231866 0)
(2 1.13298e-13 0)
(1.92194 0.113062 0)
(1.83286 0.229615 0)
(2 -3.70333e-13 0)
(1.82952 0.228842 0)
(2 -1.06752e-10 0)
(1.83182 0.229401 0)
(1.88546 0.157082 0)
(1.83141 0.229389 0)
(2 1.3522e-11 0)
(1.83194 0.229032 0)
(1.83073 0.228399 0)
(2.11885 -0.264042 0)
(1.83193 0.228862 0)
(2 -1.17554e-07 0)
(1.83135 0.228095 0)
(1.83019 0.228842 0)
(2 7.14397e-09 0)
(2.14426 -0.250607 0)
(1.82952 0.229753 0)
(1.86428 0.189237 0)
(2.00057 -0.00107053 0)
(1.83068 0.230601 0)
(1.83177 0.228509 0)
(2 -5.58854e-12 0)
(2.00288 0.00475035 0)
(1.82969 0.230044 0)
(2.00226 -0.00316087 0)
(1.83144 0.22891 0)
(2 -3.3378e-12 0)
(2 1.08525e-13 0)
(1.83 0.22787 0)
(2 -5.79029e-14 0)
(1.82878 0.227678 0)
(1.8314 0.228789 0)
(2.00124 -0.00237065 0)
(1.87055 0.187593 0)
(2 3.05779e-09 0)
(1.83155 0.228573 0)
(2 -1.47385e-10 0)
(2 -6.64282e-13 0)
(2 1.00023e-11 0)
(2 5.79542e-12 0)
(1.83189 0.229038 0)
(2 7.07246e-09 0)
(2 3.11385e-13 0)
(1.83109 0.22579 0)
(2 -1.28136e-13 0)
(1.83149 0.228522 0)
(2 3.19086e-10 0)
(1.91001 0.161995 0)
(1.83369 0.227652 0)
(1.83185 0.228461 0)
(2 9.61147e-10 0)
(2 5.69988e-14 0)
(2.00647 0.00147178 0)
(2 2.81411e-12 0)
(1.83095 0.22928 0)