/*--------------------------------*- C++ -*----------------------------------*\
  =========                 |
  \\      /  F ield         | OpenFOAM: The Open Source CFD Toolbox
   \\    /   O peration     | Website:  https://openfoam.org
    \\  /    A nd           | Version:  12
     \\/     M anipulation  |
\*---------------------------------------------------------------------------*/
FoamFile
{
    format      ascii;
    class       volVectorField;
    location    "7.45";
    object      U;
}
// * * * * * * * * * * * * * * * * * * * * * * * * * * * * * * * * * * * * * //

dimensions      [0 1 -1 0 0 0 0];

internalField   nonuniform List<vector> 
22702
(
(2 -2.36005e-13 0)
(2 -1.48259e-14 0)
(2.04364 -0.0919598 0)
(2 -1.21175e-09 0)
(1.97743 0.0343617 0)
(2 -6.59233e-14 0)
(1.82888 0.228421 0)
(2 -5.22265e-14 0)
(2 -3.1991e-13 0)
(2.09965 -0.264438 0)
(1.83 0.228766 0)
(1.82916 0.228792 0)
(2 -7.19521e-14 0)
(1.83198 0.22852 0)
(2.0389 -0.0750214 0)
(2 -5.46747e-16 0)
(2 -6.69687e-14 0)
(2 -4.89112e-14 0)
(1.82971 0.228961 0)
(2 -5.1948e-14 0)
(1.83165 0.229339 0)
(2 -4.01475e-13 0)
(1.83095 0.229312 0)
(2.11947 -0.268665 0)
(1.83134 0.230583 0)
(2.11767 -0.264776 0)
(2 -6.81099e-14 0)
(1.83089 0.229147 0)
(2.10819 -0.269922 0)
(2.1174 -0.262915 0)
(2 3.47232e-14 0)
(1.83024 0.229145 0)
(2 4.31466e-14 0)
(2 3.13254e-14 0)
(2 -8.87208e-14 0)
(1.84418 0.214963 0)
(1.83024 0.230429 0)
(1.83055 0.229002 0)
(2 -2.2607e-14 0)
(2 -2.17446e-13 0)
(2.09768 -0.263526 0)
(2 -5.49833e-14 0)
(1.9154 0.12561 0)
(2 -2.12782e-13 0)
(1.83072 0.22882 0)
(2 -2.35616e-13 0)
(2 -9.11743e-14 0)
(2 -2.3546e-13 0)
(2 -1.8792e-13 0)
(2.10985 -0.263483 0)
(2 -2.80244e-14 0)
(2.11812 -0.263493 0)
(2 -2.16073e-13 0)
(1.82995 0.228626 0)
(2 -7.9732e-14 0)
(1.83086 0.22915 0)
(2 -1.67228e-13 0)
(2 1.57131e-09 0)
(2 -4.51969e-15 0)
(2 -3.60288e-13 0)
(2.11295 -0.265165 0)
(2 -5.4867e-14 0)
(2 -1.94583e-13 0)
(2.11237 -0.268147 0)
(2 4.88407e-14 0)
(2.11948 -0.262162 0)
(2 -3.55922e-13 0)
(2 -1.85929e-13 0)
(2 -1.60553e-14 0)
(2.1101 -0.269292 0)
(2 -2.23406e-13 0)
(1.83123 0.228772 0)
(1.8968 0.15075 0)
(2 1.687e-09 0)
(1.83076 0.228587 0)
(1.82221 0.237263 0)
(2.11791 -0.263338 0)
(1.82916 0.22843 0)
(2.10766 -0.264914 0)
(2 -2.31316e-13 0)
(1.82925 0.228626 0)
(2.10706 -0.258045 0)
(1.83056 0.229053 0)
(1.8296 0.228894 0)
(2 8.71048e-14 0)
(2 8.82702e-07 0)
(2 -4.55995e-14 0)
(2 9.51458e-14 0)
(2.02183 -0.0430307 0)
(2.10972 -0.270317 0)
(1.82961 0.228483 0)
(2 -3.52243e-14 0)
(2 -5.30988e-11 0)
(2.11843 -0.262225 0)
(2 -4.88199e-15 0)
(1.8314 0.229475 0)
(2.11738 -0.265232 0)
(2 2.54264e-08 0)
(2 9.35028e-14 0)
(2 -1.65616e-13 0)
(2 -2.33051e-13 0)
(1.91755 0.123892 0)
(1.82922 0.228623 0)
(2.10908 -0.262434 0)
(2 -2.72923e-10 0)
(2 -1.1108e-09 0)
(1.95629 0.0681211 0)
(2 9.24475e-09 0)
(2.10991 -0.259168 0)
(2 -1.74071e-13 0)
(1.8297 0.228941 0)
(1.83004 0.228758 0)
(2 4.25763e-09 0)
(2 -6.29431e-14 0)
(2.11847 -0.27095 0)
(2.11411 -0.269786 0)
(2.10603 -0.267129 0)
(2 1.72048e-14 0)
(2 -1.40317e-07 0)
(2 -3.61481e-15 0)
(2 -1.12507e-13 0)
(2 1.13818e-07 0)
(2.03079 -0.0567024 0)
(2 -1.10557e-07 0)
(1.85526 0.202389 0)
(1.97922 0.0281989 0)
(1.82882 0.228473 0)
(2 -3.33794e-13 0)
(1.82883 0.228423 0)
(1.82983 0.229093 0)
(1.83154 0.228691 0)
(1.83088 0.228786 0)
(2 4.69294e-14 0)
(2.11236 -0.26854 0)
(2 -1.99311e-14 0)
(2.12952 -0.265393 0)
(2 5.23569e-14 0)
(2 1.96548e-15 0)
(2 4.22571e-14 0)
(2 -7.46581e-14 0)
(1.83005 0.22901 0)
(2 2.8968e-09 0)
(2 -6.3808e-14 0)
(2 -2.23606e-13 0)
(2 -2.82957e-14 0)
(1.83049 0.22872 0)
(2 2.03055e-14 0)
(1.99342 0.0129504 0)
(2 3.39668e-14 0)
(2 -3.40586e-13 0)
(2 -6.71148e-11 0)
(2 5.32045e-16 0)
(2.11185 -0.262384 0)
(2 -6.41641e-14 0)
(1.99524 0.00790104 0)
(2 -4.91153e-14 0)
(2.10494 -0.265619 0)
(2 -1.49529e-13 0)
(2 4.6783e-14 0)
(2 -3.84293e-14 0)
(1.8293 0.228709 0)
(2 3.66261e-14 0)
(1.83153 0.228987 0)
(2.11937 -0.270672 0)
(2.11406 -0.265257 0)
(1.83064 0.228955 0)
(1.83142 0.22932 0)
(2 4.37816e-14 0)
(1.96913 0.0398037 0)
(1.90319 0.142402 0)
(2 -1.97699e-13 0)
(1.83063 0.22881 0)
(2.10982 -0.265213 0)
(1.84368 0.215631 0)
(2 2.46242e-14 0)
(2 9.86179e-14 0)
(2 -1.73512e-14 0)
(2 1.44967e-14 0)
(1.83205 0.228631 0)
(1.86675 0.184944 0)
(2 3.74148e-14 0)
(1.82963 0.228156 0)
(2.11461 -0.265403 0)
(1.83072 0.229057 0)
(2 -5.81057e-15 0)
(2.10161 -0.262839 0)
(2 -1.03234e-13 0)
(2.11579 -0.260875 0)
(2.11993 -0.265685 0)
(2.00007 -0.000139399 0)
(2 -2.72364e-13 0)
(2 -1.25956e-13 0)
(1.8286 0.229797 0)
(2 -6.69862e-14 0)
(2 -2.91711e-13 0)
(1.83215 0.229285 0)
(2 -1.55175e-13 0)
(1.83095 0.228995 0)
(1.82933 0.228051 0)
(2.10267 -0.290316 0)
(2 1.7864e-13 0)
(2 -3.35526e-13 0)
(2.10696 -0.266858 0)
(1.83195 0.229018 0)
(2 -7.05162e-14 0)
(2 3.96869e-14 0)
(2 1.21665e-13 0)
(1.83191 0.228753 0)
(2 -7.70373e-14 0)
(2.11 -0.266278 0)
(2 -5.93924e-11 0)
(2 -7.23723e-14 0)
(1.83172 0.229037 0)
(1.83126 0.229097 0)
(1.83069 0.229058 0)
(2 1.5303e-15 0)
(1.99999 2.35693e-05 0)
(2 2.08617e-14 0)
(2 -4.30885e-14 0)
(2 -2.66908e-13 0)
(1.8316 0.22896 0)
(2 -1.15557e-13 0)
(2.11177 -0.262589 0)
(1.825 0.23554 0)
(1.83205 0.229332 0)
(1.83181 0.228576 0)
(2 2.09503e-07 0)
(2 -1.05089e-13 0)
(2 -2.5977e-13 0)
(2.11085 -0.271035 0)
(1.83211 0.229296 0)
(1.91867 0.131718 0)
(2 -3.74421e-15 0)
(1.83115 0.229428 0)
(2.10416 -0.263592 0)
(2.10204 -0.264462 0)
(1.83112 0.229652 0)
(1.83074 0.230178 0)
(2 -7.03701e-14 0)
(1.83099 0.232144 0)
(2.12748 -0.27329 0)
(1.85075 0.206524 0)
(2 -2.2568e-13 0)
(2 -2.04486e-13 0)
(2 -2.82375e-13 0)
(2 -3.43956e-13 0)
(1.83172 0.228911 0)
(2 -1.59211e-13 0)
(1.90738 0.134573 0)
(1.98193 0.0302428 0)
(2 -2.94985e-13 0)
(2 5.76405e-14 0)
(1.83208 0.229397 0)
(2.1282 -0.264082 0)
(2.07696 -0.163212 0)
(2 -2.40783e-13 0)
(1.83076 0.230334 0)
(2.12051 -0.263676 0)
(1.83067 0.229813 0)
(2 1.91664e-14 0)
(2 1.20602e-14 0)
(2 -2.61461e-13 0)
(2 -1.08739e-13 0)
(2 -1.10627e-13 0)
(2 -8.07676e-14 0)
(2 -9.54118e-14 0)
(2.11153 -0.261255 0)
(2.07652 -0.163168 0)
(2.10061 -0.264386 0)
(1.83129 0.22888 0)
(2 -1.15081e-13 0)
(2 1.01904e-14 0)
(2 -1.45939e-07 0)
(2 -3.2567e-13 0)
(1.8451 0.211164 0)
(2 -1.88474e-07 0)
(2.11162 -0.262148 0)
(2 -3.48656e-14 0)
(2.12379 -0.283245 0)
(2.10708 -0.265957 0)
(1.83204 0.229072 0)
(2.12404 -0.263028 0)
(1.83177 0.229224 0)
(2 -7.6714e-15 0)
(2 -1.76952e-13 0)
(2 -2.51654e-13 0)
(2.00089 -0.00164539 0)
(2.10525 -0.267078 0)
(2.1267 -0.272663 0)
(2 -2.96844e-07 0)
(2 -1.46718e-07 0)
(2.11822 -0.280364 0)
(2 2.46937e-09 0)
(1.82963 0.229172 0)
(2.10976 -0.268452 0)
(2 -3.04033e-14 0)
(2 -3.56263e-11 0)
(1.82947 0.228749 0)
(2.12136 -0.270754 0)
(2 -1.41667e-13 0)
(1.8357 0.226862 0)
(2.11556 -0.265168 0)
(1.83201 0.229343 0)
(2 -3.62627e-13 0)
(2.11299 -0.285057 0)
(2.00091 -0.00156616 0)
(2 -1.63276e-13 0)
(2 2.97256e-06 0)
(2 2.29453e-13 0)
(2.11768 -0.265743 0)
(2 -2.20379e-13 0)
(2 -1.65196e-07 0)
(2 2.68875e-07 0)
(1.99999 9.25825e-06 0)
(1.99521 0.0028201 0)
(1.89795 0.148883 0)
(2 -2.33911e-11 0)
(2.11245 -0.251183 0)
(2 -1.61349e-11 0)
(2 1.5785e-06 0)
(2 -1.65987e-13 0)
(2 -1.03111e-13 0)
(2 -4.80661e-14 0)
(2 1.29326e-13 0)
(2 -8.91054e-13 0)
(1.83006 0.228912 0)
(2 -6.97461e-14 0)
(1.82876 0.228424 0)
(2 2.6075e-14 0)
(2 -6.72781e-14 0)
(2 -4.17517e-14 0)
(2.10148 -0.263554 0)
(2 2.2178e-13 0)
(1.83075 0.228732 0)
(2.12387 -0.264805 0)
(2 5.04437e-14 0)
(1.88046 0.168685 0)
(2 -1.7286e-13 0)
(2 -3.04638e-13 0)
(1.83026 0.229136 0)
(2 8.28872e-14 0)
(2 -9.03569e-09 0)
(2 2.53402e-13 0)
(1.8299 0.22765 0)
(2 4.92777e-10 0)
(2 8.1268e-15 0)
(1.83315 0.229515 0)
(1.83025 0.229111 0)
(2 -6.39017e-15 0)
(1.96437 0.0556714 0)
(2 -4.21499e-14 0)
(2 2.46494e-14 0)
(2.12631 -0.259061 0)
(2 -1.31891e-13 0)
(2 -2.40357e-14 0)
(2 -2.11841e-14 0)
(2.12801 -0.268712 0)
(2 -6.20933e-14 0)
(2 4.86868e-14 0)
(2 -1.42317e-13 0)
(2 -8.78733e-14 0)
(2.11477 -0.260192 0)
(2 -9.3544e-14 0)
(2 -8.65373e-14 0)
(2 -1.39114e-13 0)
(2 6.78064e-14 0)
(2 8.54479e-14 0)
(2.10651 -0.272539 0)
(1.99998 4.2194e-05 0)
(1.83163 0.229014 0)
(2 -3.75072e-14 0)
(1.99998 -6.38467e-06 0)
(1.83143 0.228971 0)
(1.83063 0.229339 0)
(2 -1.29638e-14 0)
(2 -9.43596e-15 0)
(2.1045 -0.282036 0)
(2.0639 -0.129109 0)
(1.82932 0.228705 0)
(2 -6.38358e-14 0)
(2 1.75123e-14 0)
(2 -5.0851e-14 0)
(1.83212 0.229248 0)
(2.10853 -0.266168 0)
(2 7.61539e-14 0)
(1.83147 0.228934 0)
(2 -1.39184e-13 0)
(2 -8.64015e-14 0)
(2.11027 -0.213513 0)
(2.10975 -0.210771 0)
(2 -1.74703e-13 0)
(2.09735 -0.263204 0)
(2.10515 -0.262945 0)
(2 6.63596e-14 0)
(2 -5.4944e-14 0)
(2 1.1192e-14 0)
(2 4.29732e-14 0)
(2 -9.7884e-11 0)
(2 6.56576e-14 0)
(2 3.49704e-14 0)
(1.82895 0.228569 0)
(1.95462 0.0680748 0)
(1.84641 0.209155 0)
(2.10999 -0.26805 0)
(2.02642 -0.0616966 0)
(1.83014 0.229125 0)
(2 -6.89888e-13 0)
(1.83042 0.228593 0)
(1.82986 0.228729 0)
(2.11128 -0.266756 0)
(2.07474 -0.154167 0)
(2 7.00741e-13 0)
(2.11198 -0.263949 0)
(2 -2.24927e-14 0)
(1.8215 0.236624 0)
(2 -2.42769e-13 0)
(2 8.02568e-14 0)
(2 -1.29771e-14 0)
(2 -2.21756e-14 0)
(1.83202 0.229041 0)
(2 -1.87731e-13 0)
(2 -2.32064e-14 0)
(2 2.74204e-14 0)
(2 1.49631e-09 0)
(2 -4.3378e-14 0)
(2 -1.52879e-13 0)
(2 -3.61507e-13 0)
(1.9393 0.0908622 0)
(1.82891 0.228559 0)
(2 -3.18632e-14 0)
(1.83123 0.229017 0)
(2 1.12614e-13 0)
(2 -1.14454e-13 0)
(2.10493 -0.258558 0)
(2 -9.4413e-14 0)
(2 3.69397e-14 0)
(2 -2.41221e-13 0)
(2 -1.35016e-13 0)
(1.83188 0.228831 0)
(1.8722 0.180232 0)
(2 -1.42844e-13 0)
(2 -1.49273e-13 0)
(2.09779 -0.264779 0)
(1.83194 0.229328 0)
(1.83172 0.229068 0)
(2 -4.35818e-15 0)
(1.83173 0.229048 0)
(1.83202 0.229294 0)
(1.83122 0.229089 0)
(2 -1.51653e-13 0)
(2.05535 -0.110301 0)
(2 -2.71268e-13 0)
(1.83161 0.22844 0)
(2.00113 -0.00952868 0)
(1.83125 0.229145 0)
(2 -1.6093e-13 0)
(2.10492 -0.262692 0)
(2.00041 -0.00060661 0)
(1.8301 0.228736 0)
(2 1.8212e-13 0)
(2 4.7398e-14 0)
(2 -4.67658e-11 0)
(2 -2.01288e-11 0)
(2.11389 -0.260526 0)
(1.83208 0.229266 0)
(1.84821 0.210996 0)
(2 -9.0289e-14 0)
(1.83029 0.229176 0)
(1.83198 0.228894 0)
(1.82894 0.228671 0)
(2 2.34212e-13 0)
(1.92057 0.126613 0)
(1.83138 0.229991 0)
(2 -2.40325e-13 0)
(2 -5.23802e-14 0)
(1.8815 0.170836 0)
(1.97953 0.0371954 0)
(1.83169 0.229014 0)
(2.0232 -0.0458298 0)
(1.83162 0.229056 0)
(2 -1.87672e-14 0)
(1.83146 0.229101 0)
(1.83137 0.228966 0)
(1.83146 0.229115 0)
(1.83166 0.229147 0)
(2 7.0711e-15 0)
(1.83202 0.229328 0)
(2.02755 -0.0535938 0)
(2.03829 -0.0715859 0)
(2 3.23223e-14 0)
(2 -3.70517e-07 0)
(2 7.25418e-14 0)
(2 -3.39037e-13 0)
(1.82968 0.22837 0)
(2 6.01204e-14 0)
(2 1.38607e-13 0)
(2 8.01945e-14 0)
(2 1.00656e-13 0)
(2 5.14185e-14 0)
(1.82948 0.228633 0)
(2 1.4846e-13 0)
(2 6.45742e-14 0)
(2.00143 -0.00247968 0)
(1.83182 0.229042 0)
(1.84637 0.226932 0)
(2 -3.4423e-13 0)
(1.86313 0.189977 0)
(1.99998 2.83421e-05 0)
(2 6.36803e-14 0)
(2 -3.85278e-13 0)
(1.83119 0.228619 0)
(2 7.8751e-14 0)
(2.00274 -0.00300606 0)
(1.99806 0.00464024 0)
(2 -5.22184e-14 0)
(1.83145 0.228982 0)
(2 3.67314e-14 0)
(1.83241 0.228738 0)
(2 7.09974e-14 0)
(2 2.37201e-14 0)
(1.87554 0.176622 0)
(2 6.43776e-14 0)
(1.83217 0.228476 0)
(1.99999 1.27017e-05 0)
(2 -3.09373e-13 0)
(1.83213 0.228574 0)
(2 -3.59024e-13 0)
(1.83193 0.228906 0)
(2 6.37521e-14 0)
(2 3.1274e-06 0)
(2 -3.59444e-15 0)
(1.83201 0.229114 0)
(2 5.19929e-14 0)
(1.83175 0.228428 0)
(2 4.41631e-06 0)
(1.83187 0.228925 0)
(1.83148 0.229019 0)
(1.83195 0.229472 0)
(1.82888 0.228665 0)
(2 3.26875e-16 0)
(1.83024 0.228364 0)
(1.82918 0.235421 0)
(2 1.07884e-13 0)
(2.10141 -0.25923 0)
(1.84193 0.217406 0)
(1.87978 0.172789 0)
(2 -2.58494e-13 0)
(1.83208 0.229228 0)
(2 -1.06124e-14 0)
(2.12692 -0.261343 0)
(2.11616 -0.265244 0)
(2 -2.14964e-13 0)
(2 -9.21618e-14 0)
(2 -1.25323e-13 0)
(2 -3.34407e-13 0)
(2 1.64304e-09 0)
(2.11703 -0.263977 0)
(2 -2.453e-14 0)
(1.83127 0.229043 0)
(1.95721 0.0653903 0)
(1.83117 0.228909 0)
(2 -6.16841e-14 0)
(2 7.0313e-11 0)
(2 -6.26012e-16 0)
(2 -1.5369e-14 0)
(2 -5.17922e-08 0)
(1.83133 0.228932 0)
(2 -2.33235e-13 0)
(1.82889 0.230244 0)
(1.90006 0.142855 0)
(2.06921 -0.150749 0)
(2 1.30752e-09 0)
(1.99999 6.46258e-06 0)
(1.94694 0.079836 0)
(1.95869 0.0667498 0)
(2 1.89406e-14 0)
(2 -5.86074e-14 0)
(1.93915 0.0913295 0)
(2 1.52029e-13 0)
(2.10164 -0.259299 0)
(1.83195 0.228792 0)
(1.83193 0.228777 0)
(2 -7.64918e-11 0)
(2 1.59297e-14 0)
(2 2.9544e-14 0)
(1.83101 0.228966 0)
(2 -2.79419e-13 0)
(1.99999 1.56075e-05 0)
(1.83124 0.228881 0)
(1.83212 0.229201 0)
(2.0206 -0.0300902 0)
(2 1.23899e-13 0)
(2 1.38877e-10 0)
(2.10924 -0.265048 0)
(1.84738 0.210602 0)
(2 -1.3537e-13 0)
(2 -1.08329e-13 0)
(2 3.26372e-14 0)
(2 -2.75779e-11 0)
(2 -2.34454e-13 0)
(1.83184 0.229026 0)
(1.83061 0.228526 0)
(2 -5.45786e-14 0)
(1.83194 0.228952 0)
(1.83094 0.228379 0)
(1.83201 0.229485 0)
(2 1.02542e-14 0)
(2 2.84093e-14 0)
(2 -6.31001e-11 0)
(2 -1.96583e-14 0)
(2.11378 -0.266866 0)
(1.83029 0.228662 0)
(2 -5.10487e-11 0)
(2 1.00938e-14 0)
(1.84745 0.210807 0)
(1.83173 0.228518 0)
(2 -1.34581e-13 0)
(1.84149 0.218082 0)
(1.82876 0.228306 0)
(2 -2.90846e-13 0)
(2 -2.16899e-07 0)
(2 9.43635e-11 0)
(2 -1.51594e-13 0)
(2 -2.24289e-13 0)
(1.83157 0.22894 0)
(2 -1.77618e-13 0)
(2 -3.30616e-13 0)
(2 -1.17457e-13 0)
(2 -1.5788e-13 0)
(1.83216 0.229303 0)
(2 -1.02868e-13 0)
(1.83328 0.225855 0)
(2.10847 -0.263285 0)
(2 -1.34883e-13 0)
(2.12482 -0.264065 0)
(2 7.16575e-14 0)
(2 -1.30995e-07 0)
(2 5.91127e-14 0)
(2.00111 -0.00174504 0)
(2.1091 -0.262468 0)
(2.00035 -0.000596083 0)
(2 1.50705e-13 0)
(2 -1.61286e-14 0)
(2 -1.19287e-07 0)
(1.97771 0.0345932 0)
(2 -3.84035e-13 0)
(2 3.34178e-14 0)
(2.04345 -0.0859011 0)
(2 -2.12473e-07 0)
(2 -7.41554e-14 0)
(2 -1.25782e-13 0)
(2 -2.16942e-07 0)
(2 2.45304e-07 0)
(2 -1.48395e-07 0)
(2 -9.58549e-14 0)
(2 -1.79461e-06 0)
(2.01897 -0.0508473 0)
(2 -5.0515e-07 0)
(2 -3.7355e-08 0)
(2.00087 -0.00136493 0)
(2 -1.1735e-13 0)
(2.11436 -0.260971 0)
(2 -2.83074e-11 0)
(2 -4.34293e-12 0)
(2 -2.70831e-11 0)
(2 1.01813e-13 0)
(1.87479 0.176687 0)
(2 -2.53661e-14 0)
(2 1.16684e-13 0)
(2 -1.3979e-13 0)
(2 -1.6314e-07 0)
(2.11539 -0.267031 0)
(2 -8.4464e-15 0)
(2 1.49844e-09 0)
(1.84077 0.217881 0)
(1.83027 0.228564 0)
(2 -2.91079e-07 0)
(2 5.14051e-14 0)
(2 -1.1551e-07 0)
(2.04027 -0.0767962 0)
(2 3.41506e-14 0)
(2 4.12463e-10 0)
(2 -7.86149e-15 0)
(2 -1.36383e-13 0)
(2 -5.57244e-14 0)
(2 1.32614e-14 0)
(2.01304 -0.0282037 0)
(1.99542 0.000779315 0)
(1.83155 0.228841 0)
(2 -1.08695e-13 0)
(2 -1.43934e-13 0)
(2 2.88954e-14 0)
(1.83156 0.227568 0)
(2.03407 -0.0679414 0)
(2 -5.03667e-09 0)
(2 1.02255e-13 0)
(2 -9.19826e-14 0)
(1.83057 0.228973 0)
(1.83127 0.228738 0)
(2 -3.16699e-08 0)
(2 4.7562e-06 0)
(2 3.07011e-09 0)
(2 -1.22518e-13 0)
(2 1.30188e-09 0)
(2 4.65902e-14 0)
(2 -1.06661e-12 0)
(2 4.99377e-14 0)
(2 -1.26664e-13 0)
(2.10605 -0.264804 0)
(2 -4.07197e-14 0)
(2 -1.45528e-11 0)
(1.82912 0.229007 0)
(2.11014 -0.262681 0)
(2 -2.40229e-13 0)
(1.82907 0.228359 0)
(2 7.32673e-11 0)
(2.11134 -0.264007 0)
(2 3.45154e-14 0)
(2 -1.50821e-13 0)
(2.10904 -0.265787 0)
(2 -1.2688e-13 0)
(2 -9.52585e-12 0)
(2 -5.55272e-12 0)
(2 -4.74604e-14 0)
(2 -3.12496e-12 0)
(2 -2.4626e-13 0)
(2 -3.07968e-14 0)
(1.83449 0.225065 0)
(1.83167 0.228545 0)
(2 2.81208e-13 0)
(2 -2.51843e-14 0)
(2 -1.49593e-15 0)
(2 2.62461e-13 0)
(1.84662 0.212306 0)
(2 1.72484e-13 0)
(1.94468 0.0856383 0)
(2.09711 -0.260427 0)
(2 -3.16899e-08 0)
(2 2.94636e-13 0)
(2 -1.607e-13 0)
(2 -4.04171e-13 0)
(2 -1.62518e-13 0)
(2 -3.79974e-14 0)
(2 -2.17288e-14 0)
(1.98046 0.0255603 0)
(2 -2.66913e-14 0)
(2 -1.53829e-13 0)
(1.90573 0.121481 0)
(2 -8.09324e-14 0)
(2 -3.84863e-14 0)
(2 7.14594e-15 0)
(1.8596 0.196191 0)
(2 -1.74633e-13 0)
(2 8.45552e-14 0)
(2 -2.60511e-13 0)
(2 -2.71021e-13 0)
(2.11058 -0.263952 0)
(2 3.23086e-12 0)
(2 2.16144e-14 0)
(2.11223 -0.28453 0)
(2.11183 -0.265715 0)
(2 -7.4808e-14 0)
(2 -3.15883e-14 0)
(1.83186 0.228607 0)
(2 8.28931e-14 0)
(1.97146 -0.0108472 0)
(2 3.46195e-15 0)
(2 1.60174e-13 0)
(2 1.36608e-13 0)
(1.88295 0.169366 0)
(2.13442 -0.258954 0)
(2 -8.9507e-14 0)
(2.13642 -0.269791 0)
(2 -1.16403e-13 0)
(2.0804 -0.151298 0)
(2 -4.44932e-13 0)
(2 1.34066e-13 0)
(2 3.92158e-14 0)
(1.8305 0.229904 0)
(2 -4.0505e-08 0)
(2 -2.56783e-13 0)
(1.83117 0.228666 0)
(2 -7.77438e-14 0)
(2 -1.80807e-11 0)
(2 1.6448e-09 0)
(1.83115 0.228701 0)
(2 2.51066e-10 0)
(2 -1.13331e-13 0)
(1.83143 0.228583 0)
(2 -7.54315e-14 0)
(2 6.16248e-14 0)
(2.10929 -0.263919 0)
(2 -1.74326e-11 0)
(1.94273 0.0854488 0)
(2 1.29776e-13 0)
(2 8.33881e-14 0)
(1.83047 0.22889 0)
(1.83003 0.229195 0)
(1.88592 0.165256 0)
(1.84945 0.208321 0)
(2 2.50328e-14 0)
(2.10724 -0.266219 0)
(2 7.35934e-14 0)
(2 8.92583e-14 0)
(1.83886 0.220472 0)
(2 -3.8969e-14 0)
(2.11981 -0.262477 0)
(2 7.34284e-14 0)
(2 -1.49892e-13 0)
(2 1.8014e-14 0)
(1.83133 0.229157 0)
(2 2.60165e-15 0)
(2 -4.97686e-15 0)
(2 -5.28766e-14 0)
(2 -5.6475e-14 0)
(1.89811 0.143968 0)
(2 -4.92922e-14 0)
(1.84953 0.207522 0)
(1.83026 0.229379 0)
(2.11748 -0.267957 0)
(2 -4.21619e-13 0)
(2 -6.91556e-14 0)
(2.11548 -0.258805 0)
(2.11662 -0.259304 0)
(2 -1.23826e-13 0)
(2 1.6398e-14 0)
(2 -6.24674e-12 0)
(1.87951 0.172617 0)
(1.87308 0.178956 0)
(2 -1.9385e-13 0)
(2 -4.37961e-14 0)
(2 1.21889e-14 0)
(2 -6.21745e-14 0)
(2 -3.34357e-14 0)
(2 -7.13845e-14 0)
(2 -1.62308e-13 0)
(1.92897 0.103755 0)
(1.82953 0.229016 0)
(1.99748 -0.00356715 0)
(2 -3.34303e-14 0)
(1.83405 0.226835 0)
(2.11085 -0.265438 0)
(2 8.69999e-14 0)
(2 1.69718e-13 0)
(2 -5.22467e-15 0)
(1.90886 0.136119 0)
(2 3.72874e-14 0)
(1.96474 0.0553281 0)
(2 -4.52885e-14 0)
(1.84602 0.212583 0)
(1.83264 0.228301 0)
(2 -4.64704e-14 0)
(2.10181 -0.26386 0)
(2 1.438e-13 0)
(1.8312 0.228999 0)
(2 7.35147e-14 0)
(2 1.4994e-13 0)
(1.831 0.228696 0)
(1.8426 0.217258 0)
(2 -5.94268e-14 0)
(1.82673 0.229009 0)
(2 -1.09452e-13 0)
(2.12865 -0.261415 0)
(2 2.8753e-14 0)
(2 -1.25557e-13 0)
(2 -1.33798e-14 0)
(1.82855 0.231418 0)
(1.83507 0.225103 0)
(1.85227 0.204313 0)
(2 3.54377e-14 0)
(1.82963 0.230574 0)
(1.83187 0.229069 0)
(2 -5.50006e-15 0)
(1.83122 0.229552 0)
(2 -9.2639e-09 0)
(1.83262 0.228318 0)
(2 -1.24549e-14 0)
(2.12011 -0.26455 0)
(2.00866 -0.0202907 0)
(2.10022 -0.26618 0)
(2 -3.42485e-11 0)
(2 -2.23458e-11 0)
(2 -3.32254e-11 0)
(2 -2.46797e-13 0)
(2 -1.3129e-11 0)
(1.83187 0.229232 0)
(2 3.77034e-14 0)
(1.8321 0.229281 0)
(2 -3.84988e-11 0)
(2 -1.02107e-10 0)
(2 9.34479e-14 0)
(1.84024 0.219854 0)
(2 -3.60382e-14 0)
(2.11435 -0.261042 0)
(1.83119 0.2287 0)
(2 -2.90164e-14 0)
(2.09689 -0.262901 0)
(2.12424 -0.240852 0)
(2.1249 -0.253858 0)
(2 -6.45414e-14 0)
(1.91731 0.124911 0)
(1.98187 0.0263644 0)
(1.83101 0.229609 0)
(1.83169 0.228937 0)
(2 -2.73311e-13 0)
(2 -3.23055e-07 0)
(2 -7.40703e-08 0)
(2 -1.71671e-13 0)
(1.83168 0.228972 0)
(2 2.56236e-14 0)
(2 -4.18199e-14 0)
(1.83166 0.229053 0)
(1.8319 0.229064 0)
(2 -3.6409e-13 0)
(1.94084 0.088178 0)
(2 0.000537008 0)
(2 -1.90985e-13 0)
(2.00129 -0.00201161 0)
(1.82925 0.22844 0)
(2.0503 -0.110506 0)
(2 -1.23187e-07 0)
(2.05464 -0.120684 0)
(2.10319 -0.261145 0)
(2.10206 -0.258774 0)
(1.98804 -0.0705925 0)
(1.83143 0.229438 0)
(1.83445 0.226366 0)
(1.96667 0.0461164 0)
(1.83122 0.228817 0)
(1.83156 0.22918 0)
(2 4.88454e-14 0)
(2 4.52727e-14 0)
(1.83005 0.228708 0)
(1.82893 0.229828 0)
(1.83128 0.229115 0)
(1.82877 0.227582 0)
(2 -1.10995e-13 0)
(1.83179 0.229134 0)
(2.11264 -0.267428 0)
(1.83142 0.228723 0)
(1.8303 0.229016 0)
(1.8298 0.22821 0)
(1.83199 0.229033 0)
(2.05097 -0.0920354 0)
(2.03184 -0.0752856 0)
(2.01899 -0.0514003 0)
(1.83139 0.228518 0)
(2.01343 -0.0265074 0)
(1.83056 0.229243 0)
(2 -1.92589e-13 0)
(2 6.61156e-14 0)
(1.83111 0.2298 0)
(1.83154 0.229223 0)
(2 -4.27941e-13 0)
(2.11088 -0.263692 0)
(1.83058 0.229014 0)
(1.83158 0.228827 0)
(2 -1.26305e-13 0)
(1.83179 0.229246 0)
(1.83163 0.229141 0)
(2 1.35476e-13 0)
(1.83183 0.229305 0)
(2.10054 -0.263869 0)
(1.83185 0.228451 0)
(1.82966 0.228959 0)
(1.83088 0.228665 0)
(1.83082 0.22963 0)
(2 -1.81076e-13 0)
(2 -1.58102e-13 0)
(2 -1.0131e-07 0)
(1.83157 0.228601 0)
(1.88944 0.159457 0)
(2.1145 -0.247798 0)
(1.83122 0.228727 0)
(2.10319 -0.275532 0)
(1.83152 0.228546 0)
(2 -2.1913e-14 0)
(2 1.08681e-13 0)
(2 -4.80784e-14 0)
(2 6.85609e-15 0)
(1.83115 0.228223 0)
(1.83108 0.22896 0)
(2 1.75687e-13 0)
(2 2.57251e-13 0)
(1.83132 0.229106 0)
(2.10246 -0.269909 0)
(1.83113 0.228212 0)
(2.11258 -0.262896 0)
(2 2.64523e-14 0)
(1.83299 0.227761 0)
(2 3.53076e-14 0)
(2.1008 -0.264568 0)
(1.83078 0.229584 0)
(2.09884 -0.189347 0)
(2 -1.30817e-14 0)
(1.83137 0.228702 0)
(1.83061 0.230249 0)
(1.83191 0.229553 0)
(2 -1.30614e-13 0)
(2 1.15133e-14 0)
(1.92179 0.120972 0)
(1.83101 0.230099 0)
(2.10421 -0.262406 0)
(1.83216 0.228914 0)
(2 -3.08305e-16 0)
(1.83202 0.229474 0)
(2.03428 -0.0840039 0)
(1.83212 0.229665 0)
(2.10988 -0.261536 0)
(2 -3.24365e-14 0)
(1.83154 0.229719 0)
(2.1141 -0.232044 0)
(1.83116 0.229838 0)
(2.11173 -0.265567 0)
(2 5.24619e-14 0)
(1.83133 0.229124 0)
(2 2.64164e-14 0)
(1.82914 0.228869 0)
(2 -4.36183e-14 0)
(1.90165 0.141383 0)
(1.83781 0.221721 0)
(1.86736 0.187695 0)
(2.12381 -0.27495 0)
(2 -2.05996e-13 0)
(1.83119 0.228856 0)
(2 -6.38838e-14 0)
(1.83206 0.229043 0)
(2 -1.13538e-07 0)
(1.83177 0.229013 0)
(2 -2.41442e-07 0)
(2 -3.3632e-13 0)
(1.83079 0.228891 0)
(2.00818 -0.0115664 0)
(1.8307 0.230116 0)
(2.10582 -0.266479 0)
(1.86328 0.19837 0)
(2 2.44573e-14 0)
(1.88035 0.172629 0)
(2 -9.90841e-14 0)
(1.83062 0.229962 0)
(1.83188 0.229046 0)
(1.83067 0.230204 0)
(2 -9.26836e-15 0)
(1.84875 0.208616 0)
(1.83051 0.228505 0)
(1.84403 0.21492 0)
(1.89862 0.146959 0)
(1.82546 0.231681 0)
(2 1.46364e-13 0)
(1.88788 0.163746 0)
(2 2.05982e-14 0)
(1.83078 0.229018 0)
(2 -1.90156e-13 0)
(1.97229 0.0446598 0)
(2 1.31631e-13 0)
(1.84421 0.215105 0)
(2 3.54732e-14 0)
(1.83211 0.229424 0)
(1.83898 0.220356 0)
(1.83985 0.220003 0)
(2 6.51234e-14 0)
(1.83121 0.232778 0)
(2.12017 -0.266459 0)
(2 6.47203e-14 0)
(2.10744 -0.264061 0)
(2 -4.57505e-13 0)
(2 4.40284e-15 0)
(2 9.49739e-15 0)
(1.83027 0.228484 0)
(2 5.01189e-14 0)
(1.8317 0.229359 0)
(2 8.81959e-14 0)
(2 -2.07238e-13 0)
(2 3.19957e-14 0)
(1.83125 0.229619 0)
(1.83105 0.226024 0)
(1.87141 0.182979 0)
(1.83087 0.228887 0)
(1.832 0.227759 0)
(2.12866 -0.262868 0)
(1.83282 0.233182 0)
(1.83042 0.228843 0)
(2 -9.40802e-14 0)
(1.85361 0.205428 0)
(1.83184 0.228888 0)
(1.83951 0.229009 0)
(2 -1.51052e-13 0)
(1.83099 0.228999 0)
(1.8308 0.229046 0)
(2 -2.46379e-13 0)
(1.82947 0.231705 0)
(1.83134 0.228544 0)
(1.83069 0.228711 0)
(1.83089 0.229471 0)
(2 -2.17998e-13 0)
(2 6.77564e-14 0)
(2 1.82279e-13 0)
(1.83185 0.228773 0)
(2.11789 -0.263012 0)
(2 3.74444e-15 0)
(1.83158 0.228953 0)
(2 3.73145e-14 0)
(2 1.05751e-13 0)
(2.11474 -0.265606 0)
(2 -6.04765e-14 0)
(2 1.20566e-13 0)
(1.83135 0.228872 0)
(1.83171 0.228983 0)
(2 -7.93442e-14 0)
(1.83183 0.228748 0)
(1.83211 0.232454 0)
(1.83075 0.228611 0)
(2.00913 -0.0167969 0)
(1.83124 0.228926 0)
(2 -1.43401e-14 0)
(1.83122 0.228981 0)
(1.83154 0.228993 0)
(1.87101 0.181198 0)
(2 5.43649e-14 0)
(2 -1.59263e-13 0)
(2 -2.98557e-14 0)
(1.83151 0.227814 0)
(1.83134 0.229234 0)
(1.83186 0.228746 0)
(2.02045 -0.0309168 0)
(2 1.24786e-13 0)
(1.82679 0.231449 0)
(1.8315 0.228957 0)
(1.8321 0.228704 0)
(2 -3.91603e-14 0)
(1.83157 0.228929 0)
(1.83064 0.228941 0)
(1.83145 0.228921 0)
(1.82692 0.231553 0)
(2 1.12732e-13 0)
(1.83153 0.229248 0)
(1.83212 0.227218 0)
(1.85162 0.202343 0)
(1.83146 0.229332 0)
(1.82765 0.231419 0)
(2 -2.82502e-14 0)
(1.83125 0.229334 0)
(1.83334 0.226724 0)
(1.83181 0.228797 0)
(1.83202 0.228605 0)
(1.83161 0.229619 0)
(2.12649 -0.263717 0)
(1.83099 0.228677 0)
(1.83158 0.228923 0)
(2 -2.29521e-14 0)
(1.83142 0.228969 0)
(1.8316 0.228932 0)
(1.83137 0.229201 0)
(1.83197 0.228888 0)
(2 -5.15907e-08 0)
(1.83147 0.229125 0)
(1.8315 0.228887 0)
(2 -1.55917e-07 0)
(1.83153 0.228757 0)
(1.85715 0.199565 0)
(2 -1.3131e-13 0)
(2 4.42236e-14 0)
(2 5.80274e-10 0)
(1.832 0.228823 0)
(1.83208 0.232937 0)
(2 4.21085e-15 0)
(2 1.62323e-14 0)
(1.90532 0.139002 0)
(2 -1.20119e-13 0)
(1.83128 0.228901 0)
(2 -1.13981e-14 0)
(2 1.71726e-14 0)
(1.83143 0.229047 0)
(1.83123 0.229577 0)
(1.8316 0.229007 0)
(1.83169 0.229162 0)
(2 -5.16363e-14 0)
(2 7.08821e-14 0)
(2 1.13145e-13 0)
(1.88311 0.16721 0)
(2 -4.19678e-15 0)
(1.83166 0.229077 0)
(2 -3.58222e-14 0)
(2 -1.03676e-13 0)
(1.82992 0.22871 0)
(1.82984 0.228865 0)
(2 -4.83329e-14 0)
(1.83171 0.228892 0)
(2.11864 -0.275655 0)
(1.83191 0.229312 0)
(1.83184 0.228143 0)
(2.1012 -0.205788 0)
(2 -1.12227e-13 0)
(2.1215 -0.275326 0)
(1.85027 0.203808 0)
(1.83185 0.22817 0)
(1.83215 0.22914 0)
(1.83226 0.228759 0)
(2.11876 -0.266099 0)
(1.83034 0.228604 0)
(1.83132 0.229482 0)
(2.11865 -0.263314 0)
(2.1129 -0.279062 0)
(2 -2.55678e-07 0)
(1.83111 0.229963 0)
(1.83177 0.228957 0)
(2 -2.3556e-14 0)
(2 5.96757e-15 0)
(1.8315 0.229003 0)
(2 -4.22024e-13 0)
(1.82849 0.229682 0)
(2 2.61609e-06 0)
(1.85293 0.204314 0)
(2 9.78937e-14 0)
(1.92257 0.115047 0)
(1.83182 0.229034 0)
(1.83046 0.229869 0)
(1.87887 0.170597 0)
(1.85423 0.20021 0)
(1.83056 0.228841 0)
(1.83112 0.229836 0)
(1.83772 0.232602 0)
(2 -4.66645e-14 0)
(2.1109 -0.264648 0)
(1.82945 0.23111 0)
(1.83196 0.228939 0)
(1.82961 0.231106 0)
(2 7.16263e-06 0)
(2 3.30987e-10 0)
(2 1.40062e-09 0)
(1.82952 0.230177 0)
(2 -1.69997e-14 0)
(1.83183 0.229255 0)
(1.83131 0.228241 0)
(2.09069 -0.171966 0)
(2 1.62926e-13 0)
(1.83141 0.229086 0)
(2.00002 -4.93178e-05 0)
(2 6.14408e-15 0)
(1.99999 1.9095e-05 0)
(1.99998 2.76434e-05 0)
(1.83184 0.228937 0)
(1.83192 0.229004 0)
(2.00055 -0.000894502 0)
(2 -1.65824e-14 0)
(2 5.24246e-14 0)
(1.83198 0.22895 0)
(1.83104 0.230245 0)
(1.83153 0.228862 0)
(1.83136 0.229279 0)
(1.83069 0.229913 0)
(2.10846 -0.255484 0)
(1.85675 0.2041 0)
(2 -7.49103e-14 0)
(1.83258 0.227838 0)
(1.83166 0.228976 0)
(1.83174 0.229443 0)
(1.83674 0.224099 0)
(2 -2.57527e-13 0)
(1.83185 0.22876 0)
(1.83663 0.223878 0)
(1.83124 0.22949 0)
(2 -3.58691e-13 0)
(1.83078 0.22905 0)
(1.8308 0.228979 0)
(2.05252 -0.0969986 0)
(1.83215 0.228948 0)
(1.83105 0.22887 0)
(2 -4.90063e-14 0)
(1.83124 0.229038 0)
(2.05392 -0.115784 0)
(1.83151 0.229065 0)
(2.0542 -0.0936085 0)
(1.83206 0.229001 0)
(2 -1.05431e-07 0)
(1.8313 0.22883 0)
(1.82436 0.233079 0)
(1.83193 0.229056 0)
(1.83165 0.228931 0)
(1.83136 0.228832 0)
(1.83104 0.228964 0)
(1.83151 0.229053 0)
(1.83055 0.228152 0)
(2 -3.80901e-13 0)
(2.02629 -0.0403407 0)
(1.83136 0.228941 0)
(1.83191 0.228972 0)
(2.0491 -0.113016 0)
(1.83162 0.22894 0)
(2.00381 -0.0187549 0)
(1.89511 0.153519 0)
(1.83137 0.229088 0)
(1.83073 0.228677 0)
(1.83172 0.227946 0)
(2 2.00521e-13 0)
(1.83089 0.230233 0)
(1.89365 0.157462 0)
(1.83138 0.228514 0)
(2.02862 -0.053855 0)
(1.8307 0.229719 0)
(1.82575 0.230922 0)
(2 -2.93661e-14 0)
(2.0424 -0.0944728 0)
(2 -1.07789e-09 0)
(1.83893 0.223894 0)
(2 -1.49846e-13 0)
(1.88334 0.167573 0)
(2 4.00264e-09 0)
(1.83269 0.229227 0)
(2.03623 -0.0843245 0)
(2 1.64013e-13 0)
(1.83186 0.228625 0)
(1.83272 0.232451 0)
(2 2.3323e-14 0)
(1.82932 0.228791 0)
(1.831 0.229746 0)
(1.82682 0.23083 0)
(1.83718 0.228505 0)
(1.82775 0.231179 0)
(2 -5.25318e-14 0)
(1.8306 0.228665 0)
(2 1.23985e-13 0)
(2 -1.75502e-13 0)
(2 1.57455e-13 0)
(2.03097 -0.0710039 0)
(1.83189 0.229258 0)
(1.83209 0.228603 0)
(1.83061 0.228317 0)
(1.83175 0.228902 0)
(1.82895 0.229511 0)
(1.83073 0.229487 0)
(1.82931 0.228221 0)
(1.83175 0.229356 0)
(2.03716 -0.0698341 0)
(1.9867 0.023779 0)
(2 3.56969e-09 0)
(2 -8.83195e-14 0)
(1.82319 0.233769 0)
(1.83181 0.229148 0)
(1.83164 0.228928 0)
(1.83163 0.229034 0)
(1.99999 1.63565e-05 0)
(1.91851 0.126428 0)
(2 -1.65555e-07 0)
(1.82959 0.231333 0)
(1.84705 0.218899 0)
(2 -3.06707e-12 0)
(2 -6.26492e-11 0)
(2.09369 -0.18306 0)
(1.8316 0.228934 0)
(2 6.86218e-14 0)
(2 -7.29446e-14 0)
(2.09758 -0.265401 0)
(1.83136 0.229059 0)
(2 1.04851e-13 0)
(1.8299 0.228929 0)
(1.83142 0.229115 0)
(1.83055 0.228834 0)
(1.83847 0.221764 0)
(1.83131 0.22892 0)
(2 -1.54637e-10 0)
(2.12026 -0.267428 0)
(1.95905 0.0662774 0)
(1.83074 0.228533 0)
(1.83128 0.228881 0)
(2 -1.56059e-13 0)
(1.83203 0.22933 0)
(1.83139 0.228886 0)
(1.91678 0.120965 0)
(1.99914 0.00555491 0)
(1.96235 0.0616836 0)
(2 -1.81355e-13 0)
(1.82938 0.228381 0)
(1.83156 0.228878 0)
(2 -1.19489e-07 0)
(2 -2.15577e-10 0)
(2.1213 -0.266155 0)
(2 -2.35853e-10 0)
(2 -2.06805e-13 0)
(1.83191 0.228969 0)
(1.83166 0.228957 0)
(1.83208 0.227954 0)
(1.83169 0.228764 0)
(1.83128 0.228842 0)
(1.82764 0.228243 0)
(1.83115 0.228936 0)
(1.8317 0.227278 0)
(1.83131 0.228922 0)
(2 -3.82075e-14 0)
(2.00169 -0.00254261 0)
(1.83131 0.2289 0)
(1.83195 0.228995 0)
(2.00121 -0.00190603 0)
(1.8315 0.228865 0)
(1.83145 0.228958 0)
(2.11794 -0.260001 0)
(2.11226 -0.269292 0)
(1.83164 0.227992 0)
(1.82786 0.23084 0)
(2 -1.69586e-13 0)
(2 2.58363e-13 0)
(1.99894 0.00244731 0)
(1.83127 0.229147 0)
(1.83225 0.228603 0)
(1.8315 0.22904 0)
(2 9.87171e-10 0)
(1.83148 0.228848 0)
(2 -2.11643e-14 0)
(2.04794 -0.0943025 0)
(1.82925 0.231702 0)
(1.82719 0.23286 0)
(2 -1.84441e-13 0)
(1.92624 0.115298 0)
(1.83154 0.228999 0)
(2 9.60718e-15 0)
(1.82985 0.227336 0)
(2 -1.04384e-10 0)
(1.83154 0.229232 0)
(1.88758 0.152489 0)
(1.83163 0.229879 0)
(2 1.25859e-11 0)
(1.83179 0.228832 0)
(1.83082 0.228669 0)
(2.12305 -0.265041 0)
(1.83156 0.228913 0)
(2 -1.27818e-07 0)
(1.83122 0.227644 0)
(1.82945 0.228945 0)
(2 7.18099e-09 0)
(2.11845 -0.260538 0)
(1.83184 0.228174 0)
(1.85229 0.216336 0)
(2.00074 -0.00078651 0)
(1.84487 0.216979 0)
(1.83157 0.228969 0)
(2 -5.65393e-12 0)
(1.99964 -0.000375466 0)
(1.83201 0.229864 0)
(2.00236 -0.00166002 0)
(1.83156 0.22902 0)
(2 -3.63981e-12 0)
(2 -8.58479e-14 0)
(1.83126 0.22876 0)
(2 -3.87097e-14 0)
(1.83124 0.22808 0)
(1.83144 0.228902 0)
(2.00126 -0.00225686 0)
(1.8769 0.177277 0)
(2 3.2169e-09 0)
(1.83145 0.228933 0)
(2 1.48674e-09 0)
(2 -7.84827e-13 0)
(2 1.01615e-11 0)
(2 5.89088e-12 0)
(1.8318 0.229022 0)
(2 6.92867e-09 0)
(2 -1.3648e-13 0)
(1.8396 0.222833 0)
(2 5.34959e-14 0)
(1.8314 0.228723 0)
(2 3.01789e-10 0)
(1.89274 0.153777 0)
(1.83147 0.22774 0)
(1.83203 0.228486 0)