/*--------------------------------*- C++ -*----------------------------------*\
  =========                 |
  \\      /  F ield         | OpenFOAM: The Open Source CFD Toolbox
   \\    /   O peration     | Website:  https://openfoam.org
    \\  /    A nd           | Version:  12
     \\/     M anipulation  |
\*---------------------------------------------------------------------------*/
FoamFile
{
    format      ascii;
    class       volScalarField;
    location    "19.6";
    object      T;
}
// * * * * * * * * * * * * * * * * * * * * * * * * * * * * * * * * * * * * * //

dimensions      [0 0 0 1 0 0 0];

internalField   nonuniform List<scalar> 
9801
(
0.806969
0.807569
0.809495
0.814832
0.82108
0.823861
0.824781
0.824973
0.824095
0.823047
0.823158
0.823752
0.824659
0.825872
0.828089
0.832585
0.837644
0.84015
0.841116
0.841535
0.840919
0.840273
0.840591
0.84134
0.842285
0.843512
0.8457
0.850474
0.855824
0.858387
0.859425
0.859872
0.858561
0.8575
0.857811
0.858647
0.859776
0.861176
0.863851
0.869824
0.874963
0.877113
0.878038
0.878159
0.876004
0.874855
0.875383
0.876342
0.877656
0.879293
0.882939
0.889717
0.894596
0.896759
0.897839
0.897693
0.894894
0.893298
0.893798
0.894969
0.896532
0.898713
0.904884
0.91246
0.916329
0.91808
0.919449
0.917988
0.913592
0.91203
0.912838
0.914589
0.91703
0.923604
0.933643
0.939517
0.942243
0.943802
0.943427
0.938547
0.933947
0.933821
0.936007
0.939913
0.951244
0.964384
0.970898
0.974511
0.977406
0.977878
0.970888
0.962657
0.961774
0.967333
0.983387
1.01165
1.03023
1.15424
1.54631
0.811771
0.812606
0.8147
0.819156
0.822908
0.825539
0.827168
0.828175
0.828184
0.826977
0.827095
0.827879
0.828883
0.82996
0.831793
0.836007
0.840075
0.842562
0.844078
0.845127
0.845237
0.843815
0.843839
0.844689
0.845757
0.846898
0.848523
0.852849
0.857813
0.860596
0.862183
0.863281
0.862861
0.860712
0.860651
0.861607
0.862839
0.864116
0.866044
0.871247
0.876589
0.879317
0.880796
0.88175
0.880196
0.87796
0.878193
0.879211
0.880426
0.881845
0.884649
0.891392
0.896547
0.898978
0.900399
0.901018
0.898361
0.895752
0.89605
0.897314
0.898951
0.901015
0.907227
0.915023
0.918912
0.92094
0.922234
0.921343
0.916725
0.914736
0.915702
0.917662
0.920161
0.926625
0.936278
0.941761
0.944567
0.946661
0.947943
0.943255
0.937643
0.937713
0.940505
0.944254
0.953326
0.965273
0.972649
0.977285
0.981469
0.983926
0.978684
0.970926
0.969545
0.974313
0.984007
1.00613
1.02534
1.15362
1.56875
0.816687
0.818382
0.820885
0.824618
0.827167
0.828947
0.830389
0.831521
0.832229
0.831956
0.832231
0.833094
0.834136
0.835179
0.836615
0.840336
0.84415
0.846415
0.847997
0.849281
0.850093
0.849431
0.84928
0.849937
0.850842
0.851861
0.853148
0.856862
0.861651
0.864395
0.866103
0.867447
0.867925
0.866661
0.866472
0.867242
0.868231
0.869308
0.870696
0.874811
0.880108
0.88312
0.884897
0.886268
0.88617
0.884467
0.884231
0.88504
0.886186
0.887453
0.889523
0.895363
0.900667
0.903341
0.905015
0.906305
0.905069
0.902423
0.902274
0.90346
0.905178
0.907181
0.912594
0.920086
0.924296
0.926568
0.928351
0.928636
0.924886
0.922431
0.923121
0.925226
0.927651
0.932849
0.942136
0.948877
0.952701
0.955492
0.957675
0.954455
0.948294
0.947579
0.950302
0.954071
0.960725
0.973611
0.984367
0.990308
0.994947
0.998491
0.995453
0.990191
0.988751
0.99186
0.999463
1.01868
1.03732
1.1713
1.59565
0.823482
0.825564
0.827834
0.830673
0.832897
0.834583
0.836064
0.837389
0.83862
0.839427
0.839421
0.839846
0.840569
0.841478
0.842709
0.846253
0.850696
0.853218
0.854845
0.856175
0.857428
0.857513
0.856464
0.856535
0.857218
0.85827
0.859589
0.863172
0.868442
0.871566
0.873411
0.874834
0.876092
0.875559
0.874265
0.874223
0.874795
0.875814
0.87721
0.8811
0.887194
0.890899
0.892981
0.894559
0.895756
0.89423
0.892557
0.892588
0.893463
0.89483
0.896908
0.902662
0.90897
0.9123
0.914308
0.916063
0.916186
0.913028
0.91189
0.912867
0.914583
0.916604
0.921183
0.92919
0.934441
0.937303
0.939467
0.941006
0.938319
0.934445
0.934507
0.936587
0.939195
0.943224
0.952423
0.960874
0.965487
0.968606
0.971371
0.971029
0.965049
0.961735
0.963793
0.967937
0.973273
0.984058
0.996926
1.00509
1.01052
1.01591
1.01651
1.01201
1.00854
1.00957
1.01544
1.0297
1.04281
1.19101
1.62094
0.830729
0.832689
0.834543
0.837718
0.840361
0.842261
0.843846
0.845196
0.846499
0.847462
0.846874
0.846803
0.847511
0.848632
0.850136
0.854175
0.859051
0.861711
0.863351
0.864707
0.865959
0.865727
0.864075
0.864086
0.865021
0.866309
0.867935
0.871916
0.87747
0.880704
0.882551
0.884002
0.885276
0.884776
0.882738
0.882546
0.883475
0.884834
0.886489
0.890557
0.897082
0.901047
0.90316
0.904743
0.906029
0.9047
0.902044
0.901906
0.903124
0.904828
0.907087
0.912806
0.919709
0.92345
0.925631
0.927438
0.928157
0.925052
0.922869
0.923577
0.925349
0.927501
0.931463
0.939617
0.946017
0.949414
0.951843
0.95399
0.953373
0.948572
0.94648
0.948068
0.950767
0.954218
0.961966
0.972344
0.97862
0.982324
0.985537
0.987647
0.983445
0.977127
0.975958
0.979642
0.984635
0.992689
1.00584
1.01687
1.02403
1.02989
1.03401
1.03135
1.02678
1.0242
1.025
1.0338
1.04338
1.2016
1.63658
0.838249
0.840058
0.841798
0.845952
0.849284
0.851239
0.852744
0.854084
0.855436
0.855911
0.854507
0.854309
0.85524
0.856666
0.858752
0.86355
0.868586
0.871112
0.872622
0.873952
0.874994
0.873965
0.872432
0.872695
0.873789
0.875196
0.877023
0.881415
0.887182
0.890396
0.892189
0.893636
0.894849
0.894108
0.892
0.891868
0.892937
0.894445
0.896287
0.90055
0.907075
0.91101
0.913126
0.914756
0.916077
0.915002
0.912006
0.911649
0.912935
0.914753
0.917194
0.922828
0.929892
0.933888
0.9362
0.938099
0.939432
0.937186
0.933278
0.932909
0.934645
0.936973
0.940648
0.948565
0.956303
0.960316
0.962876
0.965151
0.96643
0.962287
0.957622
0.957288
0.959834
0.963097
0.968841
0.979786
0.988574
0.993334
0.996548
0.999381
0.997998
0.99116
0.987294
0.988145
0.99221
0.997716
1.00781
1.01992
1.02867
1.03506
1.04089
1.04306
1.04028
1.03523
1.03132
1.03393
1.03883
1.20623
1.64522
0.844773
0.84639
0.848442
0.85366
0.858176
0.860189
0.861458
0.862716
0.86385
0.863211
0.861279
0.861268
0.862363
0.863928
0.866502
0.871947
0.87724
0.879718
0.881142
0.882355
0.882893
0.881403
0.879797
0.880143
0.88144
0.883083
0.88522
0.889846
0.895758
0.898979
0.900692
0.902082
0.903181
0.902374
0.899748
0.899288
0.900524
0.902276
0.904558
0.909193
0.915709
0.919564
0.921552
0.923092
0.924436
0.923855
0.920526
0.919127
0.920309
0.922231
0.924874
0.930458
0.93789
0.94221
0.944468
0.946256
0.947813
0.947107
0.942771
0.940523
0.941555
0.943816
0.946904
0.953709
0.962762
0.968138
0.970893
0.973071
0.974905
0.972939
0.967053
0.964809
0.966191
0.969135
0.973037
0.981735
0.992864
0.999501
1.0034
1.00646
1.00824
1.00401
0.997703
0.99532
0.996739
1.00075
1.007
1.018
1.02872
1.03653
1.04264
1.0478
1.048
1.04507
1.03845
1.03326
1.03101
1.20658
1.65055
0.850286
0.851613
0.853918
0.859844
0.865398
0.867773
0.869126
0.870288
0.870733
0.86929
0.867411
0.867484
0.868531
0.869851
0.872109
0.877768
0.883622
0.886426
0.887899
0.88895
0.889476
0.888788
0.887112
0.886593
0.887555
0.888997
0.891
0.895578
0.901837
0.905515
0.907358
0.908711
0.909854
0.909767
0.907253
0.905732
0.906375
0.907937
0.909991
0.914521
0.921324
0.925667
0.927774
0.929311
0.9307
0.931098
0.928184
0.925801
0.926151
0.927819
0.9299
0.934311
0.942025
0.947507
0.950211
0.952008
0.953606
0.954302
0.950882
0.947296
0.947155
0.948925
0.951215
0.955425
0.964629
0.972219
0.975982
0.9783
0.980373
0.980837
0.975949
0.971449
0.970876
0.972985
0.975875
0.980688
0.991534
1.00155
1.00699
1.01069
1.01386
1.01451
1.00824
1.00223
1.00099
1.00289
1.00695
1.01394
1.02475
1.03407
1.04102
1.04667
1.05066
1.05024
1.04634
1.03824
1.02678
1.20205
1.65314
0.855274
0.856428
0.858357
0.864014
0.8702
0.873103
0.874643
0.875619
0.875867
0.874844
0.873413
0.873425
0.874366
0.875563
0.877124
0.881367
0.887382
0.890801
0.892621
0.893882
0.894976
0.895384
0.893569
0.892457
0.892909
0.894025
0.895417
0.898531
0.904957
0.909619
0.911882
0.913401
0.914707
0.915592
0.913851
0.911448
0.911479
0.912625
0.914133
0.916889
0.923411
0.929031
0.931862
0.933591
0.935112
0.936391
0.935076
0.93185
0.931072
0.932111
0.93372
0.936026
0.942488
0.94999
0.95392
0.956061
0.957809
0.959394
0.958176
0.953704
0.951947
0.952523
0.954301
0.956605
0.962904
0.972911
0.978907
0.982042
0.984301
0.986184
0.984401
0.978303
0.975155
0.975273
0.977465
0.980427
0.987067
0.999204
1.00825
1.01324
1.01657
1.0193
1.01817
1.01152
1.00643
1.00564
1.00763
1.01183
1.01945
1.02967
1.03763
1.04375
1.04907
1.05143
1.05039
1.04393
1.03005
1.19627
1.65543
0.859987
0.861203
0.862938
0.867791
0.87338
0.876364
0.877938
0.878882
0.879625
0.879732
0.878578
0.878386
0.879238
0.880389
0.88162
0.883964
0.889255
0.893279
0.895511
0.897252
0.898747
0.900024
0.899487
0.897438
0.897284
0.898063
0.899191
0.900845
0.905967
0.911884
0.914932
0.916735
0.918235
0.919616
0.919524
0.916711
0.915728
0.91626
0.91736
0.918831
0.923091
0.930308
0.934722
0.937029
0.938742
0.940312
0.940808
0.937607
0.935204
0.935087
0.93606
0.937626
0.941248
0.949842
0.956319
0.95954
0.961498
0.963197
0.964006
0.960028
0.955809
0.95503
0.956067
0.958022
0.961204
0.970372
0.979979
0.984798
0.987636
0.989801
0.991097
0.986517
0.980028
0.978049
0.978902
0.981287
0.984406
0.992202
1.00464
1.01294
1.01745
1.0208
1.0235
1.02209
1.01518
1.01011
1.00946
1.01168
1.01623
1.02432
1.03366
1.04057
1.04613
1.05028
1.05137
1.04797
1.03693
1.19228
1.65781
0.864043
0.865539
0.867087
0.871238
0.875821
0.878241
0.879703
0.881018
0.882328
0.883503
0.883218
0.882647
0.883134
0.883958
0.884821
0.886056
0.890076
0.895192
0.898183
0.900186
0.901789
0.903178
0.903894
0.901888
0.900533
0.900892
0.901797
0.903005
0.906159
0.9128
0.917262
0.919561
0.921225
0.922661
0.923685
0.921741
0.919114
0.918713
0.919323
0.920514
0.922756
0.929744
0.936568
0.939975
0.941938
0.943514
0.944883
0.943252
0.938824
0.937142
0.937496
0.938916
0.941029
0.947711
0.957118
0.962087
0.964515
0.966254
0.967747
0.966208
0.960332
0.957355
0.957689
0.959399
0.96153
0.9664
0.977536
0.985879
0.989682
0.992079
0.994149
0.994631
0.988702
0.982721
0.981116
0.981772
0.983982
0.987662
0.997075
1.00951
1.01747
1.02193
1.02523
1.02696
1.02481
1.0185
1.01376
1.01309
1.01536
1.02006
1.02852
1.03723
1.04343
1.04823
1.05058
1.05006
1.04327
1.19098
1.66011
0.867552
0.869245
0.870551
0.873105
0.877095
0.879727
0.881646
0.883461
0.884977
0.886284
0.887086
0.886273
0.885819
0.886009
0.886643
0.887681
0.890584
0.89672
0.900808
0.90296
0.90452
0.905878
0.907036
0.90596
0.903392
0.902884
0.903519
0.904653
0.906656
0.912834
0.919096
0.922149
0.923909
0.925341
0.926643
0.926306
0.922549
0.920451
0.920598
0.921775
0.923491
0.92858
0.937314
0.942337
0.944655
0.946208
0.947503
0.947587
0.943055
0.939369
0.939289
0.940526
0.942273
0.94576
0.955139
0.963039
0.966477
0.96848
0.970087
0.971121
0.967102
0.961434
0.959997
0.960753
0.962603
0.96498
0.971737
0.983576
0.9906
0.993997
0.996664
0.99897
0.998088
0.990287
0.984481
0.983575
0.985038
0.987749
0.991788
1.00145
1.01316
1.0205
1.02478
1.02802
1.02975
1.02791
1.02181
1.01693
1.01601
1.01824
1.02289
1.03156
1.03982
1.04559
1.04951
1.05057
1.04799
1.19272
1.66229
0.870785
0.872011
0.872593
0.87366
0.877241
0.881519
0.88414
0.886042
0.887575
0.888905
0.89014
0.889688
0.887651
0.887124
0.887795
0.889015
0.89151
0.897981
0.903138
0.905478
0.906981
0.908277
0.909472
0.909303
0.906082
0.904478
0.904869
0.905994
0.9076
0.912472
0.920194
0.924422
0.926385
0.927791
0.929059
0.929659
0.926173
0.92251
0.922331
0.923423
0.924977
0.928082
0.936442
0.943587
0.946615
0.948239
0.949479
0.950387
0.947927
0.942935
0.941617
0.942558
0.944153
0.945909
0.951303
0.96153
0.967437
0.970085
0.971971
0.973706
0.973807
0.968184
0.963314
0.962402
0.963282
0.965253
0.968105
0.977068
0.989181
0.995362
0.998164
1.00018
1.00207
1.00065
0.993346
0.988451
0.987665
0.98864
0.991015
0.995293
1.00528
1.0164
1.02345
1.0278
1.03103
1.03232
1.03053
1.02444
1.0191
1.01791
1.01994
1.02452
1.03349
1.0417
1.04707
1.04959
1.05135
1.19766
1.66467
0.873096
0.87324
0.873291
0.87413
0.876896
0.883096
0.88708
0.888984
0.890363
0.891601
0.892813
0.892533
0.889266
0.888222
0.888979
0.890257
0.892578
0.898784
0.904947
0.907688
0.909162
0.910435
0.911566
0.911734
0.908709
0.906278
0.906524
0.907647
0.909057
0.912357
0.920217
0.925991
0.928457
0.929871
0.930959
0.931572
0.929664
0.92556
0.924551
0.925555
0.927057
0.928759
0.934103
0.942922
0.947479
0.949533
0.95103
0.952453
0.952789
0.948646
0.945075
0.944759
0.945572
0.947055
0.949312
0.956933
0.966805
0.971641
0.97421
0.976079
0.977786
0.976366
0.969508
0.965451
0.965162
0.966198
0.968053
0.971209
0.98135
0.992875
0.998216
1.00139
1.00435
1.00657
1.00448
0.996386
0.991134
0.990331
0.991728
0.99436
0.998762
1.00875
1.01929
1.02602
1.0303
1.03337
1.03451
1.03244
1.02596
1.02034
1.01897
1.02058
1.02508
1.03455
1.04286
1.04749
1.05255
1.20521
1.66752
0.874545
0.873357
0.873756
0.874864
0.877179
0.884063
0.889669
0.891913
0.893148
0.894289
0.89525
0.894475
0.891028
0.88999
0.890802
0.892032
0.893744
0.898721
0.905897
0.909661
0.911461
0.91265
0.913523
0.913699
0.911403
0.908596
0.908532
0.909669
0.911063
0.912935
0.919002
0.92645
0.929839
0.931477
0.932607
0.933574
0.933422
0.930024
0.927717
0.928058
0.929131
0.930417
0.932438
0.939751
0.947638
0.951117
0.953048
0.954614
0.956089
0.955078
0.949707
0.946778
0.946767
0.947899
0.949572
0.9528
0.962673
0.971874
0.975816
0.977995
0.97985
0.981601
0.979107
0.971765
0.968034
0.967365
0.968043
0.969925
0.973863
0.985603
0.997723
1.00333
1.00594
1.00814
1.00967
1.00701
0.99942
0.994478
0.993548
0.99464
0.997052
1.00195
1.01249
1.02249
1.02865
1.03254
1.0352
1.03605
1.03382
1.02697
1.02097
1.01927
1.02034
1.0251
1.03531
1.04333
1.05179
1.21443
1.67081
0.875683
0.873694
0.874336
0.875609
0.877915
0.884609
0.891542
0.894429
0.895847
0.896831
0.897261
0.89613
0.893436
0.892294
0.893
0.894184
0.895517
0.898455
0.905586
0.910789
0.912937
0.91417
0.91512
0.915874
0.914913
0.911891
0.911052
0.911964
0.913282
0.914609
0.917345
0.924887
0.930404
0.932751
0.934235
0.93563
0.936878
0.935609
0.931727
0.930292
0.930602
0.931491
0.932774
0.936163
0.945481
0.952364
0.955338
0.957107
0.958642
0.959846
0.956607
0.950734
0.948676
0.948887
0.950052
0.951968
0.956844
0.968307
0.976412
0.979971
0.982442
0.984446
0.985514
0.980841
0.972748
0.969457
0.969714
0.971174
0.973272
0.9773
0.989143
1.00065
1.00572
1.00841
1.01099
1.01291
1.01024
1.00224
0.996889
0.995889
0.997312
1.00004
1.00557
1.01626
1.0254
1.03094
1.03445
1.03681
1.03754
1.03477
1.02763
1.02118
1.01881
1.0193
1.025
1.03571
1.04794
1.22394
1.67401
0.877326
0.87535
0.876035
0.877361
0.879292
0.884881
0.892336
0.895947
0.897602
0.898639
0.899231
0.898692
0.896424
0.894997
0.895329
0.896355
0.89756
0.899009
0.903763
0.910704
0.914049
0.915627
0.916774
0.917959
0.918715
0.916558
0.914216
0.914251
0.915076
0.916044
0.91723
0.921378
0.929539
0.934094
0.936342
0.937966
0.939495
0.940538
0.937594
0.933374
0.932144
0.932414
0.933503
0.935232
0.941218
0.951534
0.957002
0.959445
0.961137
0.962592
0.962807
0.957441
0.951733
0.950276
0.950848
0.952304
0.954452
0.961313
0.973847
0.98107
0.983884
0.985334
0.986777
0.98787
0.983193
0.975844
0.973138
0.972975
0.973801
0.97564
0.979974
0.992221
1.00373
1.00919
1.01197
1.01415
1.01518
1.01245
1.00537
1.00026
0.999115
1.00013
1.00272
1.00866
1.01945
1.02807
1.03305
1.03601
1.03794
1.03867
1.03594
1.02844
1.02083
1.01726
1.01763
1.02477
1.04073
1.2318
1.6763
0.879694
0.878002
0.878681
0.879971
0.881607
0.885168
0.89205
0.896638
0.898492
0.899573
0.900403
0.901246
0.90062
0.898327
0.897646
0.898291
0.899347
0.900511
0.902317
0.90847
0.914458
0.917177
0.918804
0.920256
0.921646
0.921965
0.918883
0.916772
0.916461
0.916691
0.917573
0.91946
0.92651
0.934797
0.938659
0.940714
0.942251
0.943793
0.943513
0.938034
0.93399
0.933434
0.934258
0.935722
0.938407
0.947439
0.95724
0.961324
0.963315
0.964891
0.966106
0.964872
0.95802
0.953309
0.952989
0.954299
0.95584
0.957797
0.964892
0.976893
0.983128
0.986079
0.988699
0.990818
0.991593
0.98596
0.978064
0.975005
0.975326
0.976799
0.978813
0.982672
0.994051
1.00543
1.01095
1.0138
1.01616
1.01796
1.01603
1.00883
1.00308
1.00133
1.00212
1.00448
1.01081
1.02184
1.0301
1.03469
1.03753
1.03941
1.03993
1.03698
1.02884
1.01951
1.01492
1.01529
1.0296
1.236
1.67729
0.882585
0.88146
0.882037
0.88323
0.884435
0.885886
0.890134
0.896122
0.899084
0.900586
0.901963
0.903311
0.904394
0.903145
0.900867
0.900555
0.901044
0.901667
0.902569
0.905367
0.913034
0.918583
0.921338
0.923067
0.924508
0.925833
0.92482
0.920156
0.917284
0.916854
0.917747
0.919183
0.923306
0.9336
0.940507
0.943205
0.94498
0.946362
0.946928
0.943151
0.936858
0.935001
0.935773
0.937177
0.938912
0.942881
0.953251
0.961109
0.964039
0.965526
0.96688
0.968585
0.967383
0.960617
0.956762
0.956273
0.956572
0.957658
0.959794
0.967769
0.980536
0.987427
0.990161
0.991814
0.99364
0.994731
0.989502
0.98177
0.978702
0.978303
0.978738
0.980422
0.984659
0.996575
1.00821
1.0141
1.01702
1.01922
1.02032
1.01859
1.01153
1.00491
1.00256
1.0032
1.00551
1.01251
1.02424
1.03255
1.03664
1.03885
1.0404
1.04061
1.03767
1.02847
1.01757
1.01197
1.01518
1.23382
1.67679
0.88596
0.885201
0.885124
0.885754
0.88643
0.887213
0.888427
0.893373
0.899219
0.902239
0.904107
0.905652
0.907055
0.907985
0.905881
0.903255
0.902251
0.902197
0.903017
0.904524
0.910328
0.919298
0.923838
0.925965
0.927283
0.928555
0.928853
0.92372
0.918563
0.918097
0.919078
0.920439
0.922861
0.930709
0.940649
0.944862
0.946491
0.947142
0.947447
0.947241
0.94297
0.938775
0.93849
0.9397
0.94092
0.942178
0.946077
0.956396
0.963568
0.966665
0.969018
0.97081
0.972275
0.970158
0.962872
0.95855
0.957955
0.958649
0.959873
0.962036
0.97023
0.982877
0.98941
0.992653
0.995459
0.997579
0.998153
0.992179
0.983694
0.979947
0.979961
0.98138
0.983591
0.987902
0.999291
1.01041
1.016
1.0189
1.0211
1.02236
1.02027
1.01289
1.00611
1.00366
1.00418
1.00667
1.01422
1.0261
1.03389
1.03742
1.03953
1.04108
1.04108
1.03779
1.02711
1.01386
1.0067
1.22543
1.67502
0.889142
0.889908
0.888569
0.887931
0.88762
0.887502
0.888217
0.890668
0.897925
0.903866
0.906778
0.908478
0.909826
0.911139
0.910867
0.906135
0.902876
0.902756
0.903766
0.905135
0.90872
0.918544
0.925504
0.928034
0.929588
0.93051
0.930018
0.926811
0.921707
0.920468
0.921519
0.923565
0.925843
0.928631
0.936359
0.943371
0.945933
0.947236
0.94869
0.950364
0.950788
0.946149
0.942217
0.941437
0.941508
0.942048
0.943512
0.948432
0.960009
0.96778
0.970818
0.97255
0.97418
0.97577
0.973377
0.965464
0.961028
0.960007
0.960208
0.961557
0.963955
0.973058
0.986694
0.993807
0.99653
0.998036
0.999236
0.999848
0.995029
0.987247
0.983724
0.983406
0.984179
0.985944
0.990412
1.0021
1.01258
1.01768
1.02027
1.02217
1.02359
1.02243
1.01533
1.00806
1.00514
1.00524
1.00736
1.01498
1.02701
1.03447
1.03774
1.03999
1.04154
1.04139
1.03712
1.02254
1.00632
1.21323
1.67335
0.892104
0.893964
0.892821
0.889684
0.887634
0.887586
0.888534
0.890159
0.896039
0.904922
0.909239
0.911166
0.912404
0.91346
0.913575
0.909101
0.904547
0.904358
0.90537
0.906824
0.909551
0.916567
0.925065
0.928581
0.929818
0.92969
0.930058
0.930558
0.92803
0.92537
0.925618
0.926877
0.927555
0.928104
0.930053
0.93782
0.94519
0.948785
0.951388
0.953391
0.955017
0.954652
0.948778
0.943834
0.942417
0.942599
0.943528
0.945263
0.951511
0.963878
0.970991
0.974102
0.976388
0.978135
0.979142
0.975267
0.966475
0.961989
0.96184
0.963258
0.96527
0.967476
0.975233
0.987899
0.994597
0.997455
0.999808
1.00195
1.00299
0.998823
0.990824
0.986213
0.985359
0.986353
0.988362
0.992794
1.00405
1.01388
1.01881
1.02186
1.02454
1.02631
1.02515
1.01741
1.00915
1.00555
1.0055
1.00753
1.01518
1.02725
1.03453
1.03787
1.04046
1.0418
1.04149
1.03314
1.01579
1.20198
1.67258
0.894851
0.896878
0.896392
0.891266
0.888268
0.888602
0.889692
0.891147
0.895247
0.904865
0.910853
0.913029
0.91442
0.914994
0.914269
0.911698
0.907919
0.907247
0.908393
0.91032
0.912028
0.914144
0.92045
0.926493
0.928924
0.930328
0.931942
0.93389
0.935165
0.932797
0.929524
0.928227
0.927158
0.92678
0.927786
0.931276
0.941441
0.950152
0.954088
0.95638
0.95782
0.95897
0.95693
0.94933
0.944415
0.943553
0.944278
0.945653
0.947894
0.955653
0.96837
0.975039
0.977435
0.978284
0.979147
0.980555
0.977792
0.970104
0.966388
0.965986
0.966115
0.966835
0.968784
0.976295
0.989674
0.997683
1.00081
1.00263
1.00453
1.006
1.00287
0.994705
0.989266
0.987644
0.987882
0.989436
0.994219
1.0063
1.01672
1.02183
1.02438
1.02644
1.02811
1.02707
1.01908
1.01001
1.00592
1.00559
1.00748
1.015
1.02693
1.03422
1.03804
1.0408
1.04204
1.03904
1.02879
1.19645
1.67319
0.897308
0.899065
0.897157
0.892752
0.890183
0.890519
0.891616
0.893473
0.896837
0.903677
0.910592
0.913311
0.914228
0.914392
0.915269
0.915619
0.913449
0.911504
0.911803
0.912704
0.91306
0.913128
0.914704
0.921342
0.928523
0.932711
0.935982
0.93823
0.939755
0.939814
0.934916
0.929033
0.926252
0.926068
0.927187
0.928861
0.935088
0.948203
0.955628
0.958144
0.95969
0.960908
0.961177
0.957431
0.949595
0.946035
0.94632
0.94802
0.949767
0.951483
0.957983
0.969468
0.975475
0.978199
0.980663
0.982645
0.984137
0.981692
0.974057
0.968855
0.967377
0.967772
0.968869
0.970764
0.977423
0.990606
0.998857
1.00264
1.00561
1.00782
1.00893
1.00573
0.996915
0.990386
0.988465
0.989226
0.991215
0.996297
1.00836
1.01849
1.02331
1.02612
1.02843
1.02998
1.02868
1.02046
1.01056
1.00597
1.00549
1.00713
1.01431
1.02628
1.03397
1.03821
1.04116
1.04121
1.03794
1.19829
1.67532
0.899027
0.900283
0.898299
0.895386
0.89339
0.89377
0.895189
0.896936
0.898254
0.900561
0.906793
0.912019
0.914199
0.915688
0.917231
0.918867
0.919721
0.917469
0.914759
0.91334
0.912157
0.912204
0.91334
0.916342
0.925688
0.934966
0.939603
0.941929
0.943238
0.943855
0.940501
0.931689
0.927257
0.927226
0.928355
0.930241
0.933556
0.941863
0.953129
0.958063
0.959809
0.960013
0.960821
0.962201
0.95993
0.953451
0.950618
0.950499
0.950443
0.950784
0.952346
0.958619
0.97115
0.979001
0.982131
0.98396
0.985828
0.987685
0.986085
0.977915
0.971532
0.969476
0.969171
0.970031
0.971904
0.979255
0.993823
1.00286
1.00619
1.00793
1.00929
1.01021
1.00761
0.999285
0.992566
0.990426
0.990657
0.992205
0.99736
1.01014
1.0207
1.02571
1.02827
1.03008
1.03132
1.02992
1.02131
1.01099
1.00608
1.00537
1.00672
1.01354
1.02533
1.03342
1.03844
1.0401
1.04391
1.20565
1.67835
0.898517
0.899985
0.900799
0.900253
0.898088
0.897332
0.897918
0.898588
0.89874
0.899216
0.901467
0.908597
0.914937
0.918362
0.92065
0.922231
0.923561
0.923487
0.918836
0.913818
0.911911
0.912234
0.913404
0.914965
0.921097
0.934334
0.941137
0.943414
0.944694
0.944528
0.942784
0.937851
0.931951
0.930741
0.932043
0.934421
0.936177
0.937671
0.94373
0.953203
0.957967
0.960255
0.962651
0.964591
0.966125
0.964201
0.957298
0.952628
0.951225
0.951292
0.951976
0.953585
0.959763
0.972791
0.98108
0.984964
0.987786
0.989663
0.990782
0.988256
0.979258
0.972267
0.970424
0.971231
0.973194
0.975758
0.982426
0.995471
1.00353
1.00678
1.00874
1.01048
1.01184
1.00984
1.00161
0.99434
0.991726
0.992133
0.994085
0.998985
1.01102
1.02147
1.02663
1.02925
1.03091
1.03189
1.0312
1.02316
1.01227
1.00665
1.0054
1.00591
1.01199
1.02385
1.03301
1.0371
1.04624
1.21636
1.68184
0.899071
0.901812
0.903234
0.90456
0.904313
0.901659
0.899772
0.898687
0.898154
0.898661
0.899858
0.903585
0.913209
0.920403
0.923548
0.92519
0.926267
0.926732
0.923271
0.916032
0.913104
0.913514
0.914724
0.916938
0.920843
0.929466
0.938699
0.94202
0.942751
0.942472
0.943614
0.944674
0.942087
0.937655
0.936447
0.936775
0.936623
0.936263
0.937442
0.943527
0.954595
0.961622
0.964834
0.967154
0.968927
0.970317
0.967844
0.959537
0.953825
0.952144
0.952249
0.953417
0.955296
0.962416
0.97694
0.985589
0.988534
0.989596
0.989841
0.99086
0.990102
0.983065
0.976751
0.975007
0.97509
0.975657
0.977273
0.983414
0.996289
1.00472
1.00814
1.00999
1.01177
1.0138
1.01348
1.00574
0.997713
0.994366
0.993734
0.994591
0.998397
1.0102
1.02136
1.02696
1.03007
1.03238
1.03348
1.03284
1.02496
1.01334
1.00651
1.00426
1.00422
1.00985
1.02271
1.03148
1.04576
1.22821
1.68534
0.89965
0.904811
0.906328
0.907672
0.908682
0.907414
0.902666
0.899276
0.898511
0.899173
0.900351
0.902064
0.908868
0.919934
0.925085
0.927068
0.928346
0.928937
0.927498
0.921452
0.916847
0.916727
0.91825
0.9204
0.921842
0.923669
0.930166
0.937847
0.941427
0.943604
0.946213
0.948762
0.950118
0.947656
0.941974
0.937974
0.935728
0.934991
0.93572
0.937442
0.944933
0.958247
0.965861
0.969055
0.971094
0.972514
0.972953
0.969142
0.960115
0.954667
0.953961
0.955281
0.957786
0.960097
0.965453
0.977398
0.984957
0.987936
0.990019
0.992191
0.993933
0.99398
0.988258
0.980841
0.976977
0.976154
0.976851
0.978337
0.983595
0.995817
1.00466
1.00931
1.01328
1.01588
1.01751
1.01665
1.00831
0.998451
0.993801
0.993268
0.994395
0.997945
1.0099
1.02268
1.02947
1.03223
1.03345
1.03402
1.03326
1.02599
1.01414
1.00595
1.00242
1.00182
1.00854
1.02147
1.04103
1.23931
1.68809
0.898389
0.906825
0.908899
0.910117
0.911103
0.911259
0.906881
0.901105
0.899779
0.900513
0.901689
0.903345
0.906527
0.9155
0.923971
0.926844
0.927876
0.928276
0.929337
0.929027
0.924495
0.921377
0.921324
0.922037
0.921758
0.921536
0.923079
0.929978
0.939767
0.946136
0.950045
0.952589
0.954066
0.954575
0.950115
0.941399
0.936282
0.935537
0.936486
0.937883
0.940677
0.949897
0.963268
0.969532
0.971617
0.971758
0.971857
0.973035
0.971545
0.964456
0.95986
0.959254
0.959458
0.959432
0.960543
0.96487
0.976888
0.986817
0.991129
0.993125
0.994981
0.997152
0.99806
0.992859
0.983714
0.97836
0.976682
0.976815
0.978197
0.984063
0.998679
1.00958
1.01387
1.01601
1.01768
1.01886
1.0177
1.00911
0.999063
0.994589
0.994001
0.995142
0.998686
1.0103
1.02326
1.03001
1.0326
1.03355
1.03402
1.0331
1.02691
1.01529
1.00528
1.00009
0.999585
1.0072
1.03164
1.24718
1.68952
0.89543
0.907149
0.910525
0.912134
0.913262
0.91384
0.911811
0.905529
0.902444
0.90286
0.904146
0.905639
0.906953
0.909768
0.918224
0.925305
0.928195
0.929981
0.931618
0.933146
0.933152
0.928813
0.924538
0.922217
0.920762
0.920483
0.921452
0.923659
0.933011
0.945654
0.951755
0.954147
0.955733
0.956826
0.955824
0.949045
0.94075
0.938211
0.938989
0.941203
0.94365
0.945866
0.95257
0.963149
0.96845
0.970668
0.972867
0.974983
0.976568
0.976179
0.97008
0.963669
0.960521
0.959738
0.960009
0.96118
0.964947
0.976931
0.987938
0.993163
0.996456
0.998638
1.00011
1.0001
0.994155
0.984026
0.978375
0.977589
0.978954
0.981467
0.987578
1.00115
1.01081
1.01465
1.01643
1.01761
1.01873
1.01869
1.0118
1.00225
0.997304
0.996064
0.99639
0.9985
1.00915
1.02274
1.02989
1.03222
1.03299
1.03371
1.03344
1.02842
1.01664
1.00427
0.997678
0.996063
1.01744
1.25012
1.68937
0.892927
0.9045
0.910611
0.912454
0.913203
0.913782
0.914652
0.91261
0.907461
0.905736
0.906223
0.90698
0.90748
0.908396
0.911056
0.919815
0.927972
0.931982
0.934335
0.935903
0.93706
0.936581
0.930866
0.924177
0.921287
0.92131
0.922324
0.923806
0.927473
0.939175
0.950268
0.954116
0.955368
0.954818
0.954997
0.955414
0.951445
0.94572
0.943861
0.944306
0.944767
0.944814
0.945997
0.951357
0.96286
0.970853
0.974395
0.976465
0.978569
0.980429
0.98061
0.974364
0.965698
0.961312
0.960293
0.96094
0.962363
0.966124
0.979631
0.992127
0.996835
0.998534
0.998895
0.999544
1.00029
0.996396
0.987691
0.982781
0.98191
0.982169
0.983219
0.987583
1.00004
1.01039
1.01499
1.01747
1.01996
1.0218
1.02221
1.01586
1.00516
0.998224
0.995724
0.995962
0.997554
1.00763
1.02195
1.02962
1.03208
1.03304
1.03401
1.03403
1.02999
1.01733
1.00262
0.99385
0.999895
1.2456
1.68725
0.892613
0.898113
0.907325
0.912098
0.913994
0.915267
0.91644
0.917473
0.915036
0.910003
0.907981
0.907734
0.908
0.908503
0.909618
0.912686
0.922852
0.931977
0.935813
0.937752
0.939168
0.940234
0.938609
0.930513
0.924488
0.923753
0.924961
0.927036
0.929
0.931845
0.940731
0.949486
0.952969
0.954585
0.956665
0.958505
0.959768
0.957207
0.950992
0.946822
0.945014
0.944382
0.944499
0.945763
0.950899
0.963566
0.973046
0.977491
0.98038
0.982224
0.983446
0.982678
0.975739
0.96653
0.962434
0.962382
0.963962
0.966501
0.970226
0.981027
0.991501
0.995827
0.99785
1.00001
1.00194
1.00327
1.00084
0.992463
0.98568
0.982827
0.982415
0.983244
0.986346
0.998141
1.01093
1.01764
1.02058
1.02244
1.02399
1.02447
1.01827
1.00657
0.998438
0.995396
0.995334
0.996918
1.00667
1.02166
1.02966
1.03203
1.03316
1.03416
1.03419
1.03023
1.01627
0.997852
0.990575
1.23403
1.68422
0.89327
0.894954
0.900225
0.909918
0.915119
0.917218
0.918549
0.919711
0.920454
0.917424
0.911928
0.909222
0.90863
0.909153
0.910249
0.911703
0.915864
0.92723
0.935405
0.938185
0.939415
0.939778
0.940405
0.9393
0.93297
0.92861
0.928201
0.92912
0.92973
0.930078
0.931728
0.939344
0.94986
0.955971
0.959031
0.961626
0.963325
0.964389
0.961775
0.953853
0.947382
0.944786
0.94464
0.945702
0.947277
0.952624
0.967003
0.977417
0.980973
0.982195
0.982064
0.982806
0.983435
0.979136
0.971182
0.967356
0.966904
0.966943
0.967435
0.969809
0.979644
0.991768
0.998115
1.00081
1.00272
1.00512
1.00684
1.00511
0.9959
0.986805
0.982639
0.981925
0.982783
0.985798
0.997721
1.01211
1.01952
1.02248
1.02408
1.02522
1.02506
1.01966
1.00809
0.998832
0.995352
0.995104
0.996798
1.00651
1.02152
1.02919
1.0313
1.03271
1.03383
1.03376
1.02887
1.01048
0.992691
1.21909
1.68201
0.893961
0.895099
0.896526
0.90316
0.913354
0.918236
0.920279
0.921568
0.922693
0.923215
0.919019
0.912429
0.910139
0.910675
0.911994
0.91332
0.914571
0.918758
0.929667
0.936685
0.939105
0.940581
0.941997
0.943263
0.9427
0.937205
0.932333
0.930415
0.929718
0.929288
0.929816
0.931525
0.939533
0.952504
0.960016
0.963246
0.965208
0.966643
0.967305
0.963944
0.954567
0.947922
0.946432
0.947319
0.949302
0.951712
0.956261
0.967699
0.976526
0.979863
0.98177
0.983898
0.985517
0.986598
0.984047
0.976454
0.970209
0.967469
0.967215
0.968164
0.970239
0.978845
0.991674
0.999327
1.00353
1.00661
1.00836
1.00942
1.0067
0.996065
0.986311
0.98266
0.982699
0.984056
0.986972
0.998463
1.01325
1.02062
1.02305
1.0242
1.02536
1.02588
1.02141
1.00985
1.00017
0.996251
0.995798
0.99711
1.00587
1.02001
1.0272
1.02967
1.03187
1.03346
1.03335
1.02342
1.00635
1.2067
1.68113
0.895085
0.895962
0.896944
0.898869
0.906539
0.916539
0.920923
0.92287
0.924177
0.925172
0.925415
0.920885
0.914911
0.913362