/*--------------------------------*- C++ -*----------------------------------*\
  =========                 |
  \\      /  F ield         | OpenFOAM: The Open Source CFD Toolbox
   \\    /   O peration     | Website:  https://openfoam.org
    \\  /    A nd           | Version:  12
     \\/     M anipulation  |
\*---------------------------------------------------------------------------*/
FoamFile
{
    format      ascii;
    class       volScalarField;
    location    "22.4";
    object      p;
}
// * * * * * * * * * * * * * * * * * * * * * * * * * * * * * * * * * * * * * //

dimensions      [1 -1 -2 0 0 0 0];

internalField   nonuniform List<scalar> 
9801
(
0.722483
0.733968
0.720583
0.679317
0.653843
0.650136
0.652375
0.663879
0.701861
0.749666
0.772388
0.780011
0.781124
0.761644
0.725471
0.709994
0.7102
0.716778
0.733871
0.764105
0.792672
0.808846
0.815156
0.813123
0.794927
0.781542
0.781652
0.786817
0.800795
0.820896
0.835119
0.842681
0.845607
0.843142
0.837523
0.832144
0.834146
0.844846
0.863814
0.883904
0.898245
0.908272
0.912411
0.903762
0.893413
0.88931
0.889468
0.893458
0.913143
0.9392
0.957373
0.969441
0.978321
0.984562
0.9731
0.959564
0.958117
0.961443
0.966981
0.983331
1.01635
1.04031
1.05518
1.06582
1.0745
1.0738
1.05162
1.04142
1.04564
1.05401
1.07029
1.1076
1.14296
1.16599
1.18158
1.19389
1.20315
1.18277
1.15277
1.15058
1.16286
1.18423
1.23713
1.29659
1.33388
1.35924
1.38026
1.39916
1.3817
1.33486
1.31814
1.34111
1.3864
1.49787
1.64415
1.77822
1.88303
3.43408
20.5742
0.717055
0.717511
0.697744
0.683975
0.673869
0.673947
0.681882
0.695963
0.716376
0.743205
0.760751
0.764295
0.757603
0.749426
0.743834
0.736677
0.739471
0.747799
0.756397
0.764386
0.777756
0.790008
0.795148
0.796276
0.799687
0.804376
0.810369
0.816431
0.822306
0.827629
0.832091
0.831161
0.826306
0.825385
0.828678
0.840422
0.858627
0.875884
0.888668
0.898404
0.905296
0.908167
0.897758
0.885956
0.882354
0.885083
0.891273
0.909606
0.938792
0.959529
0.971556
0.979685
0.985658
0.98148
0.962687
0.953409
0.95557
0.961306
0.971103
0.99899
1.03396
1.05368
1.06559
1.07407
1.08015
1.07208
1.04916
1.04108
1.0464
1.05533
1.07197
1.11272
1.15192
1.17447
1.18873
1.20008
1.20699
1.18649
1.15816
1.15534
1.16728
1.18458
1.22776
1.28898
1.33118
1.35956
1.38348
1.40493
1.39623
1.35323
1.33177
1.34707
1.38846
1.46288
1.57115
1.67587
1.74902
3.24997
20.9442
0.691811
0.693568
0.695311
0.697555
0.701428
0.705306
0.708289
0.711366
0.715606
0.71806
0.724473
0.73661
0.746476
0.755801
0.765831
0.772129
0.770987
0.767695
0.76492
0.756946
0.749589
0.753332
0.76938
0.791636
0.814855
0.833524
0.842009
0.844171
0.839857
0.830181
0.813407
0.802453
0.803397
0.810612
0.825569
0.856951
0.890373
0.90563
0.912386
0.915505
0.912754
0.890445
0.871057
0.870042
0.875427
0.884008
0.899653
0.932778
0.961639
0.975417
0.982868
0.987961
0.983454
0.964027
0.951149
0.95176
0.958197
0.966268
0.982467
1.01564
1.04698
1.06274
1.07099
1.07568
1.07446
1.06094
1.04484
1.04169
1.04936
1.06035
1.07887
1.12261
1.16173
1.1798
1.19018
1.19818
1.20234
1.18684
1.16228
1.15771
1.16895
1.18579
1.21898
1.28562
1.33761
1.36598
1.3879
1.40801
1.40597
1.37296
1.35026
1.35484
1.38733
1.44091
1.5359
1.6371
1.69317
3.26017
21.0371
0.668274
0.67634
0.698777
0.718028
0.729866
0.736356
0.738165
0.730977
0.7094
0.697079
0.697844
0.711249
0.744374
0.774387
0.790534
0.798439
0.802042
0.795201
0.768157
0.739487
0.732396
0.735021
0.749046
0.791929
0.835914
0.855418
0.86337
0.867905
0.862544
0.828217
0.796349
0.790802
0.794111
0.802778
0.828255
0.875093
0.907612
0.920227
0.926912
0.928367
0.90522
0.873529
0.864342
0.867699
0.874925
0.888336
0.912879
0.946674
0.972941
0.983521
0.987453
0.983547
0.972458
0.960085
0.955085
0.959472
0.967621
0.976338
0.991109
1.02183
1.04811
1.05919
1.06468
1.06849
1.07145
1.06597
1.05337
1.051
1.05885
1.06976
1.08249
1.11448
1.15273
1.17266
1.18467
1.19578
1.20678
1.20323
1.1785
1.16442
1.1716
1.18816
1.20976
1.25956
1.31976
1.35703
1.38194
1.4052
1.41688
1.39573
1.36959
1.36218
1.37912
1.4176
1.47858
1.56527
1.61038
3.32858
21.124
0.666877
0.672567
0.697503
0.729147
0.741432
0.747573
0.747708
0.726987
0.701781
0.695038
0.696498
0.706375
0.739579
0.783859
0.802056
0.809368
0.813215
0.79689
0.756563
0.736015
0.734514
0.737312
0.748241
0.791525
0.845978
0.866014
0.874432
0.876565
0.85333
0.814279
0.797066
0.797034
0.801068
0.808117
0.832511
0.884236
0.916832
0.927357
0.928784
0.914448
0.891615
0.876927
0.873813
0.876523
0.882648
0.895033
0.917598
0.949385
0.969471
0.976478
0.977149
0.976648
0.976692
0.973206
0.96747
0.968233
0.974805
0.982164
0.989941
1.00614
1.03425
1.05241
1.06305
1.0719
1.08061
1.08508
1.07204
1.06026
1.06168
1.06839
1.07729
1.09425
1.13474
1.16795
1.18615
1.20017
1.21346
1.22227
1.20399
1.17658
1.16911
1.1808
1.19857
1.22844
1.28936
1.34583
1.38147
1.40805
1.43115
1.42716
1.40068
1.38006
1.37586
1.39543
1.43595
1.50435
1.54477
3.35391
21.1884
0.678309
0.690376
0.715974
0.734165
0.744185
0.746281
0.731034
0.712799
0.705017
0.703851
0.707326
0.723333
0.759195
0.789193
0.805423
0.812405
0.804309
0.77347
0.751612
0.745562
0.746249
0.750581
0.769913
0.811651
0.846338
0.864684
0.869442
0.856154
0.832091
0.816807
0.809945
0.810336
0.815872
0.829329
0.852044
0.882347
0.904944
0.911954
0.907918
0.899501
0.895106
0.892047
0.891066
0.895345
0.903798
0.910099
0.916361
0.931078
0.95123
0.963162
0.971247
0.980913
0.990097
0.995698
0.990182
0.982549
0.980711
0.98075
0.982331
0.988716
1.01168
1.0444
1.06662
1.08154
1.09287
1.10218
1.09801
1.07739
1.06316
1.06137
1.06791
1.07938
1.11129
1.15952
1.19037
1.20861
1.22296
1.2352
1.22917
1.19811
1.17721
1.17371
1.18609
1.20532
1.24679
1.31252
1.36451
1.39975
1.42924
1.44681
1.43364
1.40622
1.38792
1.38728
1.40218
1.45094
1.4928
3.3746
21.2494
0.704888
0.721497
0.727646
0.733421
0.732669
0.716695
0.707267
0.707647
0.711241
0.720113
0.741995
0.763295
0.776348
0.787984
0.795536
0.792607
0.772663
0.761852
0.760415
0.761475
0.765632
0.782185
0.806139
0.824995
0.838283
0.843614
0.838339
0.828654
0.825863
0.827437
0.829151
0.835339
0.846101
0.854694
0.862687
0.872184
0.880206
0.886615
0.891519
0.899105
0.906873
0.913755
0.916672
0.919221
0.920708
0.916641
0.910787
0.911968
0.924569
0.948223
0.97183
0.991025
1.00451
1.01324
1.01381
0.999805
0.983196
0.972546
0.972668
0.97874
0.993957
1.03302
1.06955
1.09059
1.10349
1.11344
1.11826
1.09588
1.06488
1.05419
1.05951
1.07084
1.09333
1.14477
1.19295
1.21867
1.2338
1.24636
1.25104
1.224
1.19012
1.17641
1.17882
1.19324
1.218
1.27209
1.33707
1.38446
1.41736
1.44509
1.45125
1.43548
1.41095
1.39104
1.38549
1.40674
1.44335
3.38383
21.3145
0.735823
0.745638
0.741035
0.726783
0.702188
0.690241
0.691623
0.698747
0.71389
0.745347
0.781738
0.795008
0.796751
0.792789
0.779645
0.756718
0.750066
0.753504
0.76198
0.775111
0.797183
0.818977
0.830478
0.834334
0.82984
0.817657
0.813294
0.816797
0.82268
0.832672
0.850744
0.863832
0.870434
0.869523
0.862803
0.8579
0.859739
0.867453
0.882713
0.903322
0.922596
0.934185
0.940327
0.937836
0.924658
0.907688
0.900916
0.902959
0.910568
0.939031
0.975399
0.999803
1.01354
1.02255
1.02833
1.01282
0.978307
0.965591
0.969145
0.977194
0.992341
1.0312
1.07575
1.09948
1.11126
1.11984
1.12403
1.10517
1.07031
1.05628
1.05862
1.06829
1.08505
1.12639
1.18582
1.22204
1.239
1.25128
1.25939
1.24769
1.2095
1.18611
1.18384
1.19331
1.21117
1.24114
1.29473
1.34772
1.38674
1.41732
1.44336
1.44642
1.43707
1.41457
1.38673
1.37776
1.37931
3.36626
21.4079
0.756541
0.769498
0.760296
0.718204
0.685897
0.681566
0.68436
0.690247
0.710374
0.76294
0.797349
0.809256
0.813183
0.801323
0.764074
0.747356
0.74784
0.751607
0.762452
0.790192
0.814474
0.827048
0.833749
0.830157
0.814832
0.808654
0.811746
0.82024
0.83409
0.852924
0.867304
0.875743
0.876228
0.864554
0.850381
0.84728
0.851225
0.866054
0.893962
0.920922
0.937209
0.946013
0.95149
0.941596
0.912786
0.897762
0.898236
0.903855
0.91401
0.946593
0.99026
1.01098
1.02047
1.0275
1.0292
1.0068
0.976128
0.966833
0.970159
0.977214
0.994766
1.03778
1.08128
1.10351
1.11406
1.11887
1.11712
1.10759
1.08398
1.06581
1.0653
1.07457
1.08813
1.1082
1.15633
1.20589
1.23167
1.24508
1.25478
1.2605
1.24636
1.2182
1.20478
1.20566
1.2139
1.22885
1.25507
1.30254
1.34839
1.38439
1.41428
1.43871
1.44323
1.43657
1.41175
1.37758
1.33056
3.31717
21.4918
0.76194
0.773567
0.749044
0.70797
0.689308
0.686702
0.69046
0.705975
0.736082
0.769409
0.796589
0.805203
0.799658
0.778149
0.761145
0.755065
0.756538
0.768182
0.791543
0.807082
0.81436
0.819999
0.816294
0.810792
0.811528
0.814337
0.820849
0.83767
0.858497
0.87095
0.87749
0.877639
0.862772
0.844817
0.840312
0.843606
0.851535
0.878301
0.918277
0.939278
0.947508
0.953777
0.954327
0.927912
0.898675
0.892214
0.895906
0.903248
0.921544
0.965327
1.002
1.01804
1.02596
1.02688
1.0152
0.997982
0.981168
0.972699
0.976696
0.988689
1.00627
1.03292
1.07156
1.09521
1.10417
1.10603
1.10913
1.115
1.10845
1.09116
1.08435
1.08757
1.09314
1.10081
1.11585
1.16068
1.20724
1.23369
1.25107
1.26687
1.27798
1.26408
1.23623
1.21976
1.21541
1.22027
1.23372
1.26084
1.3072
1.35092
1.38601
1.41572
1.43612
1.43841
1.42749
1.39096
1.32091
3.24182
21.6027
0.751549
0.751684
0.728148
0.711654
0.704506
0.706775
0.721466
0.740935
0.751066
0.758285
0.766462
0.771597
0.773004
0.77392
0.775134
0.777027
0.787341
0.800334
0.808067
0.812363
0.807851
0.792084
0.786607
0.79147
0.805884
0.827834
0.852927
0.871061
0.879478
0.884354
0.884242
0.862756
0.837291
0.830901
0.834162
0.840592
0.855919
0.900279
0.939184
0.952427
0.958638
0.959838
0.941657
0.912751
0.89739
0.894708
0.898998
0.908154
0.9338
0.973545
1.00503
1.01766
1.01908
1.01018
1.00574
1.0037
0.995487
0.992691
0.998325
1.00826
1.01467
1.02079
1.03809
1.07014
1.09137
1.103
1.1136
1.12501
1.1347
1.12513
1.10436
1.09426
1.0903
1.08962
1.09667
1.11538
1.16632
1.22068
1.25403
1.27316
1.28775
1.29421
1.27823
1.24673
1.2231
1.2167
1.22413
1.23827
1.27031
1.32111
1.36395
1.394
1.41664
1.42581
1.42526
1.40164
1.33879
3.17936
21.7215
0.722776
0.723685
0.725132
0.727379
0.733394
0.745611
0.754505
0.75852
0.758182
0.741715
0.730555
0.734639
0.751652
0.774381
0.797713
0.817391
0.825414
0.826103
0.82159
0.806936
0.781595
0.768901
0.769788
0.776084
0.796962
0.844951
0.883325
0.896278
0.900886
0.897619
0.87791
0.842898
0.826563
0.826855
0.831103
0.838028
0.865067
0.914006
0.944445
0.957008
0.960562
0.947297
0.927918
0.914455
0.904532
0.905883
0.91646
0.934819
0.948006
0.961753
0.982335
0.993974
0.996957
0.998803
1.00665
1.01643
1.02498
1.02329
1.01761
1.01416
1.0095
1.00487
1.00869
1.03183
1.07443
1.10494
1.12567
1.14267
1.15392
1.15696
1.13388
1.10377
1.08658
1.08144
1.08579
1.0964
1.12206
1.18267
1.23976
1.2707
1.28848
1.30096
1.30098
1.28062
1.2486
1.22607
1.2217
1.23041
1.24823
1.28758
1.33773
1.37359
1.39637
1.40987
1.41296
1.40348
1.36359
3.1448
21.8267
0.69508
0.70063
0.719503
0.747813
0.770159
0.779029
0.780742
0.773438
0.748046
0.721689
0.716094
0.718757
0.730011
0.769203
0.821579
0.842624
0.849305
0.850901
0.837397
0.795243
0.766361
0.76259
0.765639
0.771863
0.794684
0.854769
0.891249
0.902183
0.907761
0.902623
0.869355
0.841163
0.83103
0.831596
0.838747
0.85897
0.885662
0.912177
0.93427
0.941749
0.936492
0.927323
0.927884
0.929671
0.930971
0.935271
0.942076
0.948458
0.947728
0.94203
0.943601
0.962735
0.986977
1.00448
1.02148
1.03969
1.05168
1.05482
1.03931
1.01546
0.995288
0.988498
0.993323
1.00524
1.04471
1.10204
1.13886
1.1562
1.16655
1.17405
1.16646
1.12464
1.09107
1.08231
1.08609
1.0951
1.10867
1.14067
1.20257
1.25139
1.27584
1.29065
1.29898
1.29769
1.28241
1.25627
1.23797
1.23468
1.24181
1.25896
1.29831
1.3437
1.37274
1.38989
1.39747
1.39722
1.38302
3.14599
21.9156
0.687805
0.696932
0.730774
0.76959
0.784928
0.790746
0.791294
0.770206
0.732172
0.717679
0.718176
0.721383
0.735085
0.785991
0.831742
0.84702
0.853624
0.853485
0.825101
0.785163
0.769174
0.767486
0.770624
0.783741
0.8187
0.859313
0.887473
0.897669
0.894727
0.877051
0.863084
0.852218
0.848268
0.854156
0.86951
0.884383
0.889726
0.893428
0.898924
0.910073
0.918425
0.925264
0.937594
0.956641
0.969041
0.97121
0.963522
0.95006
0.929601
0.919528
0.922444
0.937115
0.975938
1.01791
1.047
1.06261
1.07043
1.07341
1.05762
1.01476
0.987911
0.983592
0.988796
0.996849
1.01884
1.08378
1.14006
1.1614
1.17022
1.17308
1.17033
1.15183
1.11597
1.09789
1.0992
1.10952
1.12238
1.13303
1.15487
1.20319
1.24462
1.2695
1.28634
1.2987
1.30269
1.29628
1.27385
1.24984
1.23977
1.24327
1.2584
1.2962
1.33904
1.36635
1.38107
1.38506
1.39515
3.18668
21.998
0.692387
0.716109
0.757869
0.779473
0.787937
0.792485
0.7804
0.745907
0.726751
0.723117
0.724242
0.730321
0.760946
0.805637
0.831292
0.843419
0.846483
0.829456
0.80318
0.787632
0.780036
0.782186
0.795251
0.817772
0.835758
0.851798
0.863467
0.866291
0.861182
0.859671
0.865083
0.873624
0.883327
0.888508
0.892436
0.894398
0.882072
0.86629
0.865608
0.879013
0.905629
0.934063
0.963804
0.982864
0.991535
0.995249
0.982327
0.940413
0.911402
0.907096
0.911555
0.921612
0.959837
1.02557
1.06144
1.07462
1.08157
1.08136
1.06072
1.02217
0.994231
0.98891
0.995177
1.01159
1.03185
1.056
1.10445
1.14062
1.15429
1.16014
1.16541
1.17178
1.16408
1.14185
1.12843
1.12518
1.12463
1.12633
1.13345
1.15225
1.19853
1.24438
1.27482
1.29634
1.3123
1.31936
1.31062
1.27833
1.24597
1.2335
1.23684
1.25073
1.29014
1.33529
1.36281
1.37268
1.39499
3.25574
22.0867
0.715642
0.75891
0.773759
0.781554
0.786381
0.775142
0.743901
0.730214
0.729432
0.731452
0.737208
0.762361
0.795154
0.81608
0.825878
0.827098
0.813547
0.8
0.795412
0.795784
0.801248
0.815918
0.832135
0.838699
0.839871
0.833079
0.830382
0.838053
0.847849
0.859283
0.880368
0.903588
0.915401
0.919284
0.910735
0.886551
0.859134
0.851523
0.854843
0.865043
0.897917
0.952744
0.985499
0.996705
1.00201
1.00353
0.980983
0.935385
0.91241
0.910084
0.914463
0.925783
0.958688
1.01951
1.06204
1.07612
1.07664
1.06457
1.05479
1.04239
1.02304
1.01546
1.02095
1.03124
1.03834
1.0408
1.04933
1.0863
1.12721
1.15042
1.16705
1.18492
1.19776
1.19519
1.16984
1.14244
1.12453
1.11798
1.12045
1.12927
1.15379
1.20782
1.25735
1.28701
1.30539
1.31794
1.3192
1.30464
1.26919
1.2369
1.22529
1.2287
1.24438
1.28929
1.33472
1.35633
1.38658
3.34077
22.1998
0.748177
0.787162
0.791907
0.790034
0.77497
0.740427
0.723777
0.723958
0.728244
0.741152
0.770366
0.794261
0.806879
0.812692
0.811283
0.798014
0.789215
0.791561
0.798454
0.812386
0.832415
0.845979
0.851814
0.846302
0.822643
0.807993
0.807571
0.81733
0.843081
0.878296
0.90876
0.922963
0.929357
0.932042
0.914214
0.868184
0.848002
0.847817
0.852327
0.861944
0.904553
0.965989
0.991983
1.00139
1.00526
0.990406
0.96413
0.940672
0.923805
0.92257
0.933599
0.955421
0.972883
0.994557
1.02825
1.04737
1.05247
1.05462
1.06031
1.06717
1.0697
1.05767
1.04653
1.04115
1.03311
1.02275
1.02244
1.03538
1.07908
1.13545
1.17465
1.19619
1.20976
1.21858
1.21211
1.1754
1.13549
1.11812
1.11884
1.12661
1.13806
1.17234
1.22977
1.27003
1.2911
1.30489
1.31277
1.31161
1.29466
1.26197
1.23345
1.22193
1.22343
1.2406
1.28795
1.3248
1.36448
3.44093
22.3279
0.760272
0.792467
0.798027
0.790252
0.755669
0.732476
0.726865
0.728192
0.743095
0.773941
0.79229
0.798074
0.799972
0.794133
0.786819
0.786359
0.790073
0.798563
0.819416
0.843143
0.855544
0.860589
0.854523
0.825947
0.803071
0.799535
0.8035
0.813559
0.853016
0.906089
0.927419
0.934413
0.937738
0.928516
0.891121
0.860683
0.851127
0.851847
0.857656
0.879477
0.921336
0.964607
0.9896
0.996994
0.986022
0.969602
0.96306
0.9559
0.951632
0.9549
0.964384
0.97222
0.973748
0.969822
0.974056
1.00196
1.03376
1.05474
1.07545
1.0954
1.10573
1.10096
1.07542
1.04532
1.02101
1.0095
1.01045
1.0177
1.03452
1.09336
1.16337
1.19741
1.21085
1.21972
1.2199
1.2028
1.16508
1.13504
1.12608
1.12999
1.14088
1.1595
1.19204
1.23813
1.26869
1.28491
1.29558
1.3039
1.30684
1.29654
1.26622
1.233
1.21743
1.21555
1.23117
1.2733
1.32485
3.54528
22.4427
0.760193
0.782503
0.778999
0.75994
0.745793
0.74221
0.74372
0.757983
0.77916
0.791655
0.795791
0.788762
0.769499
0.76241
0.766318
0.778943
0.801847
0.833239
0.854749
0.863226
0.867414
0.865271
0.832923
0.799357
0.791221
0.793723
0.799928
0.820343
0.878281
0.920662
0.935169
0.94142
0.937055
0.907421
0.881039
0.865721
0.860463
0.86623
0.886568
0.908344
0.921458
0.940639
0.957806
0.964214
0.964778
0.967909
0.973438
0.983282
0.992736
0.992181
0.985025
0.974717
0.95648
0.945501
0.947568
0.962529
1.00506
1.0576
1.09644
1.11664
1.12587
1.12941
1.11101
1.06067
1.02222
1.01033
1.01224
1.01962
1.03249
1.05986
1.12079
1.17311
1.19456
1.20312
1.20476
1.20267
1.19724
1.1787
1.15832
1.14951
1.14998
1.15395
1.16271
1.19134
1.23507
1.26505
1.28308
1.29745
1.31064
1.31666
1.30294
1.2665
1.22637
1.20297
1.19881
1.21242
1.27215
3.6284
22.5308
0.740282
0.746479
0.746999
0.750513
0.755019
0.764546
0.783661
0.795085
0.798753
0.799859
0.785033
0.756616
0.745654
0.74739
0.754074
0.775308
0.826984
0.867262
0.878925
0.882042
0.876143
0.849633
0.810232
0.793034
0.792087
0.795372
0.805189
0.839943
0.887546
0.921799
0.934206
0.931213
0.909811
0.894993
0.888533
0.883892
0.888392
0.900724
0.912197
0.916374
0.912162
0.904543
0.909821
0.933103
0.957639
0.979402
1.00401
1.01979
1.02503
1.01954
0.997222
0.961736
0.937122
0.931274
0.935367
0.943209
0.970566
1.04603
1.10242
1.1215
1.12938
1.13038
1.11763
1.08522
1.04475
1.02668
1.02815
1.03955
1.05526
1.06613
1.07851
1.11359
1.15383
1.17786
1.19109
1.20197
1.21393
1.2202
1.20837
1.18146
1.15855
1.14828
1.14852
1.15701
1.18852
1.23743
1.27379
1.29572
1.31028
1.31935
1.31789
1.29932
1.25933
1.21339
1.18577
1.17424
1.2098
3.65493
22.5977
0.712846
0.70891
0.722669
0.746689
0.777979
0.806353
0.818037
0.821154
0.817279
0.796573
0.758355
0.737887
0.736374
0.740081
0.747393
0.779198
0.843971
0.875241
0.885114
0.889583
0.875752
0.83549
0.810049
0.799129
0.800292
0.813203
0.840428
0.860208
0.874716
0.891247
0.898786
0.897677
0.896843
0.901414
0.908395
0.92122
0.92985
0.931075
0.925103
0.906894
0.884915
0.87843
0.88358
0.902901
0.949388
1.00189
1.03408
1.04598
1.05016
1.04023
1.00156
0.958107
0.937197
0.933621
0.937563
0.94951
0.974572
1.01682
1.07536
1.10542
1.11276
1.1087
1.10294
1.10238
1.09357
1.07624
1.06627
1.06516
1.06585
1.06181
1.05912
1.06613
1.09551
1.14373
1.18314
1.20907
1.22603
1.2381
1.24315
1.22413
1.1821
1.14998
1.14053
1.14352
1.15437
1.19139
1.24763
1.28683
1.30478
1.31324
1.31591
1.30879
1.2886
1.24714
1.20163
1.16773
1.15433
3.60304
22.6523
0.697654
0.695978
0.704749
0.738692
0.799152
0.825666
0.832756
0.836182
0.829357
0.789897
0.75317
0.741543
0.740677
0.744351
0.761798
0.802062
0.845302
0.87249
0.880035
0.87067
0.848247
0.834637
0.82418
0.823379
0.83289
0.850832
0.861939
0.863851
0.852305
0.844255
0.854544
0.87845
0.901075
0.925995
0.947158
0.95697
0.95871
0.950771
0.92335
0.885077
0.867571
0.866881
0.87177
0.882589
0.931043
1.00854
1.04116
1.05154
1.05492
1.04332
1.01149
0.970855
0.949043
0.947047
0.958503
0.980194
0.99371
0.999491
1.01351
1.04782
1.07616
1.09001
1.09957
1.11629
1.13141
1.13333
1.1159
1.09117
1.06754
1.04998
1.04381
1.04715
1.05655
1.09418
1.16009
1.20689
1.22745
1.23907
1.24457
1.24157
1.21569
1.1699
1.14356
1.13931
1.14576
1.15911
1.20107
1.25672
1.28657
1.29713
1.30117
1.30114
1.29678
1.28125
1.24012
1.18498
1.14038
3.48376
22.7011
0.697975
0.698749
0.708832
0.75475
0.805275
0.826598
0.834049
0.833192
0.808435
0.778328
0.760349
0.752774
0.755312
0.770398
0.793485
0.809814
0.827361
0.84036
0.842995
0.839043
0.838836
0.84381
0.854349
0.866529
0.873156
0.875213
0.870443
0.844964
0.822479
0.819179
0.824757
0.851474
0.908952
0.956077
0.977134
0.984157
0.981689
0.956276
0.910782
0.879147
0.868855
0.869892
0.876032
0.898942
0.937187
0.986518
1.02528
1.03718
1.03067
1.01624
1.01182
1.00609
0.994099
0.989062
0.991797
0.996912
0.997542
0.985443
0.976925
0.986206
1.02288
1.07062
1.11002
1.13734
1.15376
1.16232
1.1602
1.12939
1.08156
1.05068
1.04292
1.04605
1.05275
1.06986
1.1216
1.18427
1.2157
1.22881
1.23177
1.22929
1.22632
1.20778
1.17526
1.1564
1.15281
1.15597
1.16475
1.19782
1.24456
1.27116
1.28465
1.29506
1.29681
1.29428
1.27847
1.22617
1.15062
3.3416
22.7668
0.70499
0.711367
0.737193
0.774646
0.803462
0.817475
0.819337
0.805075
0.789313
0.779235
0.774031
0.776599
0.788862
0.805128
0.811172
0.810934
0.799266
0.79733
0.81102
0.829804
0.848644
0.871814
0.889906
0.897633
0.898814
0.889194
0.854386
0.822937
0.814163
0.816321
0.821101
0.83677
0.902018
0.964666
0.983648
0.990471
0.987277
0.957622
0.914852
0.885942
0.877912
0.883323
0.907568
0.931554
0.939694
0.94701
0.965374
0.990136
1.00394
1.01096
1.0231
1.04046
1.0499
1.04073
1.02225
1.00391
0.9816
0.962346
0.957124
0.961567
0.974829
1.02569
1.10146
1.14279
1.15688
1.16483
1.16567
1.15109
1.11339
1.07173
1.05374
1.05379
1.06408
1.08322
1.10088
1.13505
1.17773
1.20105
1.21056
1.21686
1.22554
1.23402
1.22643
1.19464
1.16557
1.15133
1.14766
1.1528
1.18277
1.23154
1.26476
1.28461
1.29514
1.29448
1.29218
1.26307
1.19605
3.22812
22.8611
0.719389
0.743741
0.761342
0.7756
0.788529
0.793245
0.78956
0.78548
0.788925
0.792752
0.798609
0.808088
0.81749
0.821074
0.815098
0.790245
0.776038
0.7764
0.785968
0.821922
0.871574
0.903907
0.915315
0.91818
0.911451
0.879496
0.836362
0.818199
0.816973
0.820138
0.832292
0.86396
0.905933
0.950301
0.971771
0.972387
0.954002
0.941026
0.932738
0.919328
0.915828
0.924189
0.935114
0.939899
0.934219
0.915866
0.911947
0.931402
0.975424
1.0172
1.05001
1.07457
1.08515
1.08471
1.05999
1.014
0.975449
0.958782
0.957936
0.962839
0.972228
0.998914
1.06337
1.12361
1.14583
1.15187
1.1442
1.13525
1.13149
1.11714
1.09556
1.08469
1.08428
1.08628
1.08829
1.09414
1.12033
1.16512
1.19513
1.21345
1.23297
1.24871
1.2564
1.24329
1.20156
1.15962
1.13811
1.13506
1.14106
1.17268
1.23009
1.26942
1.28648
1.28955
1.2886
1.27539
1.24626
3.17924
22.9688
0.74652
0.764723
0.767594
0.762668
0.757353
0.762599
0.776565
0.789908
0.802638
0.817035
0.826598
0.830457
0.830591
0.820881
0.793919
0.776382
0.773419
0.776015
0.78073
0.81067
0.879837
0.913288
0.923122
0.927469
0.913723
0.871251
0.839032
0.824604
0.824991
0.838946
0.868332
0.884948
0.893533
0.906691
0.92377
0.93519
0.940528
0.946185
0.954965
0.968557
0.972374
0.964549
0.952347
0.932541
0.904959
0.891195
0.891857
0.8993
0.93075
1.0049
1.06333
1.08489
1.09283
1.09751
1.08665
1.04351
0.991528
0.96914
0.968173
0.978075
0.99946
1.01886
1.0337
1.06387
1.09832
1.11683
1.12537
1.13304
1.14287
1.15465
1.1542
1.13131
1.10367
1.08378
1.07339
1.07091
1.07842
1.11302
1.17144
1.21494
1.2386
1.25288
1.26134
1.26353
1.24535
1.19298
1.14826
1.13048
1.12853
1.13544
1.1761
1.23767
1.27009
1.27922
1.27926
1.27294
1.27616
3.20124
23.0944
0.760768
0.766405
0.755288
0.73964
0.73754
0.74454
0.769106
0.804439
0.831061
0.843158
0.847549
0.846221
0.832027
0.801386
0.776575
0.77049
0.772864
0.778003
0.794525
0.829693
0.875375
0.908191
0.917639
0.910302
0.89072
0.875015
0.856611
0.850524
0.857281
0.874822
0.885216
0.886387
0.873484
0.861955
0.86841
0.899638
0.937404
0.968059
0.995783
1.0098
1.01224
0.997817
0.960432
0.9158
0.890399
0.885221
0.888735
0.895543
0.915673
0.972011
1.04772
1.08035
1.08816
1.07863
1.05971
1.04807
1.03265
1.01473
1.0092
1.01356
1.02002
1.02237
1.01645
1.01516
1.03258
1.07432
1.11509
1.14375
1.16464
1.17808
1.18569
1.17563
1.13522
1.09143
1.06718
1.06166
1.06512
1.07535
1.12183
1.194
1.23478
1.25011
1.25722
1.25725
1.24909
1.23235
1.1898
1.15067
1.13667
1.13745
1.1443
1.18126
1.23031
1.25474
1.26218
1.25811
1.28959
3.28298
23.2277
0.769934
0.750121
0.728165
0.722493
0.724661
0.730501
0.755945
0.810198
0.84513
0.858229
0.863219
0.862766
0.837274
0.797715
0.778438
0.774563
0.778865
0.796633
0.816976
0.830383
0.850007
0.871686
0.884087
0.887242
0.890065
0.890895
0.892814
0.894619
0.895114
0.894921
0.888927
0.863774
0.843769
0.840945
0.846061
0.864876
0.922385
0.989399
1.02024
1.03088
1.0341
1.0228
0.977044
0.921495
0.895585
0.891275
0.898637
0.9234
0.949056
0.964968
0.990188
1.02493
1.04304
1.04826
1.05291
1.06103
1.07204
1.07645
1.0662
1.04926
1.03015
1.00836
0.993157
0.991179
0.99675
1.02201
1.08797
1.14661
1.17204
1.18356
1.1885
1.18622
1.16753
1.11772
1.07744
1.06517
1.06897
1.08365
1.10097
1.14132
1.20037
1.22889
1.23591
1.23824
1.24001
1.24667
1.24232
1.20541
1.16456
1.14216
1.13418
1.1343
1.16287
1.20924
1.23797
1.24384
1.28792
3.39722
23.3537
0.77325
0.735395
0.721834
0.722331
0.725055
0.729724
0.747689
0.802166
0.847336
0.860814
0.862975
0.852252
0.833467
0.810319
0.794648
0.794664
0.804707
0.817709
0.822498
0.822928
0.817944
0.8226
0.847692
0.877862
0.900798
0.922283
0.934195
0.935312
0.924504
0.902277
0.866486
0.837597
0.829472
0.831936
0.837709
0.853386
0.907224
0.98533
1.02135
1.03029
1.02254
0.997298
0.975007
0.951258
0.930817
0.928309
0.939543
0.952635
0.958201
0.954777
0.94428
0.949396
0.981955
1.02503
1.06094
1.08867
1.10786
1.11639
1.11384
1.08836
1.04221
1.00379
0.989118
0.989146
0.993918
1.00643
1.0508
1.1239
1.16381
1.17712
1.17732
1.16816
1.16174
1.1502
1.12123
1.09924
1.09323
1.09333
1.09343
1.09674
1.12301
1.17434
1.20597
1.22385
1.2416
1.25408
1.26044
1.25676
1.21911
1.16394
1.12759
1.11667
1.11514
1.14433
1.19872
1.22652
1.28193
3.51435
23.4631
0.775731
0.739704
0.728039
0.728586
0.734031
0.747762
0.762198
0.781665
0.817069
0.838839
0.844082
0.845165
0.844753
0.838539
0.829955
0.824673
0.824766
0.826086
0.817195
0.802673
0.799077
0.802737
0.815882
0.858096
0.913634
0.945722
0.957981
0.962039
0.954414
0.912111
0.861326
0.838728
0.833576
0.837124
0.856126
0.88541
0.908326
0.940227
0.976075
0.989152
0.988016
0.98777
0.98829
0.989844
0.991386
0.985668
0.977555
0.969003
0.950904
0.925297
0.91493
0.917657
0.929798
0.975426
1.05228
1.10151
1.11851
1.12603
1.12858
1.11418
1.07112
1.02132
0.998712
0.996654
1.00667
1.02991
1.04925
1.07582
1.11725
1.14173
1.14974
1.15365
1.16023
1.16918
1.17411
1.15556
1.12411
1.09933
1.083
1.07303
1.07504
1.10224
1.16096
1.21085
1.24117
1.25631
1.26323
1.2657
1.25957
1.21497
1.14996
1.11099
1.1003
1.10052
1.14001
1.19306
1.26174
3.61555
23.5468
0.778564
0.751964
0.745126
0.748612
0.757319
0.765682
0.768829
0.768404
0.77273
0.801071
0.832347
0.850452
0.862978
0.869105
0.866201
0.85219
0.835801
0.816741
0.79956
0.792104
0.79335
0.797219
0.804577
0.835176
0.905149
0.947942
0.959986
0.960384
0.942248
0.912457
0.880344
0.859534
0.858022
0.871218
0.89154
0.900089
0.901389
0.894753
0.898417
0.926993
0.960946
0.987176
1.01332
1.0358
1.04414
1.03771
1.01344
0.974839
0.934409
0.912701
0.909423
0.913512
0.920615
0.944329
1.01203
1.08634
1.11399
1.12123
1.11105
1.09302
1.08213
1.06404
1.04245
1.03425
1.03737
1.04217
1.04359
1.04122
1.05136
1.09096
1.12771
1.14928
1.17027
1.19065
1.20106
1.19917
1.16965
1.12148
1.08122
1.06446
1.06368
1.06961
1.09566
1.16747
1.22853
1.25357
1.26011
1.26103
1.25919
1.24417
1.20123
1.14171
1.10386
1.09102
1.10077
1.14158
1.22246
3.67253
23.5992
0.788438
0.775121
0.76938
0.770635
0.773628
0.77491
0.766379
0.75964
0.761531
0.769424
0.805703
0.851892
0.874175
0.883617
0.88795
0.878869
0.847999
0.818397
0.802344
0.796883
0.79814
0.806424
0.82317
0.839193
0.866728
0.909707
0.930534
0.93399
0.932632
0.928033
0.919123
0.911088
0.906624
0.906259
0.907742
0.900953
0.87643
0.862275
0.863433
0.876439
0.917655
0.983906
1.03664
1.05923
1.06819
1.06912
1.05149
0.998548
0.94271
0.918636
0.915534
0.922842
0.94591
0.970763
0.988826
1.02232
1.06151
1.07946
1.08423
1.08875
1.09488
1.10435
1.1047
1.08705
1.06446
1.04373
1.02537
1.01503
1.01694
1.0355
1.0904
1.14736
1.18225
1.1983
1.20554
1.20833
1.20066
1.16047
1.10331
1.07261
1.06675
1.07165
1.08207
1.11295
1.1828
1.22936
1.24192
1.24253
1.24145
1.24012
1.23501
1.20788
1.15511
1.11237
1.09502
1.09108
1.16696
3.69748
23.6241
0.801102
0.801205
0.790115
0.783214
0.778737
0.770436
0.763526
0.762055
0.764079
0.768115
0.780511
0.827847
0.871243
0.885429
0.89023
0.889816
0.873309
0.83627
0.814742
0.811389
0.817193
0.830541
0.836996
0.839372
0.837044
0.84378
0.877371
0.911176
0.930594
0.948473
0.965072
0.969115
0.956888
0.934387
0.906996
0.874556
0.853506
0.849307
0.852874
0.859494
0.881067
0.952731
1.0323
1.06003
1.06655
1.05732
1.03158
1.00777
0.980943
0.958802
0.954325
0.962081
0.972019
0.977017
0.97435
0.969468
0.983919
1.02721
1.06954
1.09912
1.12232
1.13676
1.14335
1.134
1.09681
1.05024
1.01868
1.00893
1.01057
1.01684
1.04375
1.11814
1.17428
1.193
1.1984
1.19404
1.18416
1.17324
1.152
1.11978
1.09926
1.09195
1.09048
1.09208
1.10747
1.15939
1.20195
1.22202
1.23239
1.23969
1.2462
1.24755
1.22416
1.16689
1.10964
1.06746
1.09133
3.68807
23.6244
0.810603
0.817731
0.810179
0.793319
0.77964
0.77131
0.767067
0.767616
0.770856
0.774441
0.778627
0.795106
0.841809
0.872381
0.881045
0.885245
0.888407
0.877473
0.852579
0.839419
0.83791
0.840743
0.838358
0.825607
0.817837
0.819346
0.83117
0.872044
0.929573
0.97237
0.993372
1.00117
1.00002
0.975303
0.916552
0.87238
0.856478
0.854121
0.859332
0.878902
0.906988
0.933602
0.975239
1.01348
1.02573
1.02555
1.02609
1.02578
1.02733
1.02386
1.01157
0.998592
0.98556
0.96564
0.946312
0.941328
0.945482
0.966781
1.03257
1.10117
1.13327
1.14508
1.15109
1.14998
1.12984
1.07829
1.03338
1.01777
1.01994
1.03523
1.05408
1.07671
1.12354
1.15765
1.16808
1.17103
1.17429
1.18151
1.19112
1.18527
1.15343
1.11784
1.09247
1.07686
1.07219
1.08266
1.13204
1.19411
1.22989
1.24497
1.25371
1.25866
1.25279
1.22463
1.16372
1.08603
1.0471
3.60204
23.6319
0.814811
0.826598
0.827625
0.815347
0.790983
0.776265
0.772618
0.773658
0.774888
0.776024
0.777668
0.781353
0.799188
0.844932
0.876676
0.891144
0.90183
0.907108
0.900044
0.875312
0.852431
0.834837
0.820648
0.81151
0.809967
0.812663
0.817605
0.834513
0.899426
0.970417
0.995744
1.00219
0.995607
0.968753
0.93535
0.899816
0.88198
0.882275
0.894306
0.910839
0.917968
0.919846
0.916408
0.929418
0.967097
1.00313
1.02961
1.05406
1.07027
1.07567
1.06594
1.03546
0.992773
0.956157
0.939734
0.938755
0.943135
0.953303
0.988556
1.06762
1.12277
1.14011
1.1417
1.1283
1.11792
1.10819
1.08406
1.0627
1.05558
1.05587
1.05536
1.0506
1.05554
1.09042
1.13084
1.15516
1.17601
1.20025
1.21342
1.2174
1.20638
1.1617
1.1039
1.06914
1.06019
1.05924
1.06959
1.13218
1.2069
1.24053
1.24937
1.25177
1.24652
1.23528
1.20463
1.13165
1.06045
3.47631
23.7024
0.811986
0.832647
0.837184
0.837884
0.819355
0.792294
0.779635
0.774595
0.772071
0.772802