/*--------------------------------*- C++ -*----------------------------------*\
  =========                 |
  \\      /  F ield         | OpenFOAM: The Open Source CFD Toolbox
   \\    /   O peration     | Website:  https://openfoam.org
    \\  /    A nd           | Version:  12
     \\/     M anipulation  |
\*---------------------------------------------------------------------------*/
FoamFile
{
    format      ascii;
    class       volScalarField;
    location    "27.9";
    object      p;
}
// * * * * * * * * * * * * * * * * * * * * * * * * * * * * * * * * * * * * * //

dimensions      [1 -1 -2 0 0 0 0];

internalField   nonuniform List<scalar> 
9801
(
0.641639
0.657375
0.659664
0.660179
0.660853
0.662817
0.667543
0.684636
0.698665
0.705791
0.711702
0.717998
0.722979
0.720432
0.705018
0.699279
0.700627
0.70354
0.71002
0.737558
0.77314
0.784365
0.786575
0.786188
0.778893
0.76016
0.748046
0.748148
0.751018
0.754773
0.759236
0.766873
0.780435
0.79239
0.800714
0.808047
0.815949
0.824223
0.829244
0.827038
0.822737
0.823854
0.827228
0.832168
0.841348
0.865023
0.888138
0.901365
0.910108
0.916258
0.917413
0.902912
0.894818
0.896491
0.901012
0.90739
0.920359
0.953582
0.989591
1.00686
1.01513
1.02073
1.02223
1.00266
0.976412
0.970001
0.974476
0.982633
0.994323
1.02662
1.08033
1.11534
1.13112
1.14024
1.14456
1.13227
1.09943
1.07927
1.08003
1.09032
1.10808
1.15887
1.22577
1.26628
1.29103
1.31094
1.32884
1.32498
1.2808
1.25181
1.2575
1.28955
1.36437
1.50748
1.63397
1.75641
1.84273
3.46716
24.7832
0.637801
0.651909
0.656934
0.660422
0.663351
0.666263
0.673194
0.691322
0.708261
0.715238
0.719298
0.723068
0.721846
0.712693
0.710924
0.711467
0.712736
0.715221
0.723495
0.742993
0.763734
0.777812
0.784989
0.788035
0.781738
0.76922
0.762651
0.762029
0.763885
0.766729
0.769954
0.775592
0.791093
0.806942
0.814494
0.81889
0.822996
0.826319
0.823748
0.823717
0.825875
0.828097
0.831733
0.836654
0.84971
0.878256
0.895603
0.904151
0.910842
0.916362
0.913673
0.901964
0.897111
0.900202
0.905493
0.91143
0.923301
0.955238
0.99056
1.00876
1.01822
1.02439
1.0262
1.00681
0.980833
0.974123
0.979191
0.986993
0.998149
1.02947
1.08172
1.11293
1.12718
1.13637
1.14499
1.14224
1.10809
1.08396
1.0858
1.09779
1.11325
1.15152
1.21531
1.26167
1.29097
1.31441
1.3358
1.33878
1.29398
1.26069
1.26656
1.29835
1.3494
1.44994
1.55396
1.65399
1.71435
3.27172
25.1796
0.645057
0.650498
0.65589
0.659098
0.66047
0.662535
0.674906
0.697724
0.713652
0.721941
0.726833
0.729239
0.719408
0.709705
0.7107
0.714954
0.719189
0.724615
0.737553
0.753833
0.764384
0.772128
0.777125
0.776836
0.772733
0.76812
0.76666
0.768058
0.770661
0.7733
0.776347
0.781374
0.797344
0.815627
0.824548
0.829391
0.833273
0.834537
0.828534
0.825792
0.828621
0.833048
0.837606
0.843015
0.859354
0.888643
0.905174
0.912004
0.91658
0.919049
0.91134
0.900573
0.900303
0.905295
0.911694
0.918323
0.928483
0.957523
0.988802
1.00428
1.0122
1.0167
1.01974
1.0072
0.98485
0.97825
0.983409
0.991875
1.00231
1.02652
1.07276
1.10598
1.12339
1.13551
1.14595
1.14867
1.12025
1.09341
1.0905
1.10136
1.11629
1.14219
1.2079
1.26828
1.29915
1.32021
1.3402
1.34549
1.31248
1.27971
1.27272
1.29483
1.33716
1.41223
1.52039
1.61613
1.66591
3.30029
25.2597
0.655531
0.643168
0.642474
0.646479
0.652707
0.666645
0.68905
0.706995
0.718372
0.725286
0.729115
0.724243
0.713881
0.711948
0.7147
0.719928
0.727091
0.735339
0.746726
0.756192
0.760967
0.76263
0.763987
0.767904
0.772434
0.77563
0.775336
0.77593
0.777193
0.779207
0.782659
0.787912
0.805213
0.825797
0.834939
0.839928
0.844279
0.844588
0.835022
0.829697
0.831811
0.836853
0.843138
0.85175
0.872031
0.895833
0.907811
0.913885
0.91831
0.921371
0.915668
0.905506
0.90583
0.911418
0.917623
0.923875
0.931074
0.951287
0.980093
0.996738
1.00625
1.01333
1.02014
1.01679
0.995933
0.985561
0.988778
0.996438
1.00585
1.02083
1.06128
1.10011
1.12058
1.13375
1.14453
1.15271
1.13792
1.10637
1.09544
1.10387
1.11941
1.13839
1.185
1.25164
1.2918
1.31587
1.33744
1.3518
1.33383
1.3037
1.28766
1.29304
1.32182
1.36856
1.44947
1.53484
1.57742
3.43859
25.4163
0.653088
0.637164
0.637904
0.642729
0.654997
0.681729
0.704737
0.71575
0.721564
0.725157
0.722137
0.715371
0.714359
0.716955
0.720558
0.724933
0.730556
0.738395
0.745849
0.751198
0.75482
0.758002
0.764007
0.77117
0.776562
0.781057
0.780219
0.776737
0.777729
0.781201
0.785807
0.791989
0.810456
0.832803
0.843087
0.848627
0.85362
0.85605
0.846428
0.837608
0.838532
0.842635
0.847644
0.854525
0.871972
0.894814
0.909066
0.917672
0.924387
0.9304
0.931058
0.91919
0.912349
0.914976
0.919502
0.92389
0.928842
0.939505
0.968173
0.992041
1.00517
1.01422
1.02216
1.02634
1.01062
0.992855
0.991421
0.998217
1.00736
1.01788
1.04663
1.08998
1.11589
1.13111
1.14366
1.15518
1.15349
1.12217
1.10039
1.10206
1.11715
1.13518
1.16442
1.22782
1.28516
1.31741
1.34085
1.36163
1.35758
1.32851
1.30483
1.29581
1.30703
1.34128
1.39526
1.46792
1.50601
3.49294
25.5256
0.648242
0.640394
0.642329
0.648496
0.664816
0.695621
0.714934
0.721633
0.723554
0.715928
0.708517
0.70956
0.714874
0.721612
0.726834
0.73108
0.735193
0.738835
0.741401
0.745048
0.749738
0.758113
0.769718
0.777165
0.781857
0.785923
0.783848
0.778645
0.780099
0.784367
0.789498
0.796101
0.814537
0.839318
0.851763
0.857892
0.86296
0.867109
0.86138
0.847633
0.842028
0.84336
0.847229
0.85258
0.865794
0.894123
0.916587
0.927979
0.935143
0.941293
0.946353
0.939555
0.924353
0.916449
0.91612
0.91887
0.923461
0.930264
0.954035
0.98732
1.00675
1.018
1.02697
1.03481
1.03099
1.00868
0.996232
0.998401
1.00634
1.01592
1.03349
1.07562
1.11108
1.12917
1.14177
1.15367
1.16179
1.14424
1.11567
1.10492
1.11209
1.12853
1.14916
1.19354
1.2579
1.30317
1.33297
1.35863
1.372
1.35579
1.32949
1.31147
1.30892
1.32055
1.35309
1.41549
1.45356
3.50247
25.58
0.647808
0.648113
0.65165
0.661441
0.682565
0.704508
0.716828
0.720206
0.714682
0.704872
0.703844
0.707664
0.715319
0.724704
0.731942
0.737297
0.740406
0.737994
0.73722
0.740184
0.746617
0.758865
0.772366
0.781498
0.787293
0.792127
0.792278
0.785499
0.784107
0.78697
0.791265
0.796997
0.813512
0.841797
0.858164
0.865533
0.870785
0.875465
0.874517
0.857494
0.843462
0.842211
0.846588
0.852581
0.861424
0.886426
0.919188
0.936548
0.944653
0.950547
0.955979
0.955995
0.93859
0.92083
0.912878
0.913722
0.91885
0.925881
0.942938
0.979977
1.00761
1.0214
1.03086
1.03908
1.04402
1.02771
1.00609
0.999297
1.00399
1.01282
1.02493
1.05641
1.10228
1.12967
1.14433
1.15616
1.16711
1.16499
1.13755
1.11696
1.11199
1.12149
1.13864
1.1652
1.21896
1.27641
1.31556
1.3439
1.36903
1.3733
1.35719
1.33779
1.32208
1.31758
1.32658
1.36732
1.40837
3.50363
25.6332
0.655681
0.658608
0.667658
0.682583
0.694329
0.703685
0.708082
0.707497
0.704143
0.7044
0.709593
0.716735
0.722367
0.727386
0.733409
0.738982
0.737639
0.733338
0.7342
0.738795
0.750548
0.765111
0.776063
0.784492
0.791481
0.797476
0.800069
0.79256
0.788626
0.790723
0.794714
0.79962
0.813865
0.843694
0.862687
0.870867
0.876131
0.880152
0.880973
0.867305
0.848922
0.844108
0.847741
0.853817
0.861288
0.877563
0.913132
0.93874
0.948997
0.954957
0.959652
0.962416
0.953215
0.927997
0.913094
0.910577
0.915345
0.922617
0.936032
0.970434
1.00687
1.02495
1.03475
1.04265
1.04942
1.04479
1.01878
1.00407
1.00295
1.01035
1.0209
1.03973
1.08338
1.12573
1.14833
1.16196
1.17316
1.18056
1.16596
1.13835
1.12548
1.12593
1.1356
1.15128
1.17907
1.23116
1.27932
1.3149
1.3445
1.37039
1.37413
1.36858
1.3531
1.33068
1.31597
1.32604
1.35501
3.50121
25.682
0.670948
0.682233
0.690198
0.695094
0.697132
0.691978
0.689335
0.692702
0.699644
0.711362
0.721577
0.72851
0.733494
0.737238
0.738994
0.73339
0.726038
0.725163
0.72834
0.737324
0.757955
0.774763
0.784675
0.791647
0.797411
0.802808
0.804531
0.795743
0.791117
0.7933
0.797652
0.80301
0.81766
0.846577
0.864943
0.872724
0.877232
0.879782
0.881117
0.875493
0.859369
0.8517
0.853453
0.858237
0.863735
0.871984
0.898579
0.930915
0.945894
0.952941
0.957864
0.9617
0.960892
0.940258
0.917287
0.910807
0.913795
0.920463
0.930344
0.957082
1.00031
1.02662
1.0386
1.04664
1.0538
1.0565
1.03786
1.01331
1.00546
1.00935
1.01889
1.03019
1.05522
1.10576
1.14502
1.16517
1.17888
1.19173
1.19784
1.17552
1.14899
1.13671
1.1343
1.14144
1.15696
1.18711
1.23648
1.28157
1.31789
1.34876
1.37453
1.38131
1.38024
1.3626
1.32836
1.30121
1.28695
3.47972
25.7379
0.695632
0.705888
0.705468
0.698839
0.682676
0.674754
0.675383
0.681443
0.698569
0.720966
0.736312
0.743845
0.74854
0.750743
0.741544
0.721127
0.712885
0.714479
0.719588
0.733564
0.763946
0.786922
0.797437
0.80348
0.808171
0.810466
0.806749
0.794693
0.790308
0.79311
0.797961
0.804695
0.820096
0.846731
0.864274
0.871802
0.876017
0.879664
0.884047
0.885837
0.874729
0.862641
0.859911
0.860812
0.863197
0.867384
0.880415
0.915013
0.939088
0.94917
0.955487
0.960823
0.964511
0.954398
0.926741
0.913726
0.91424
0.920038
0.927844
0.943607
0.984696
1.02424
1.0427
1.05237
1.05974
1.06548
1.05971
1.03263
1.01497
1.01163
1.01568
1.02412
1.03606
1.06986
1.12598
1.16344
1.18455
1.20128
1.21422
1.21531
1.18535
1.15388
1.13924
1.13837
1.1466
1.16218
1.19306
1.24161
1.2865
1.32328
1.35369
1.37687
1.38384
1.38017
1.35705
1.31241
1.24691
3.42798
25.8177
0.714766
0.722992
0.716679
0.689361
0.67065
0.668043
0.670304
0.679509
0.706588
0.735577
0.748992
0.755005
0.759684
0.757731
0.732182
0.709473
0.70647
0.709027
0.713852
0.730377
0.769764
0.797779
0.806848
0.81197
0.813912
0.812609
0.805619
0.795677
0.790972
0.792932
0.797705
0.804272
0.816379
0.839139
0.859784
0.869929
0.876191
0.882901
0.888978
0.89434
0.892051
0.874896
0.862304
0.857346
0.857998
0.86176
0.868852
0.896818
0.93211
0.94866
0.956547
0.962187
0.966064
0.964925
0.943751
0.921504
0.917243
0.921147
0.928275
0.937955
0.965309
1.01454
1.04522
1.05833
1.06645
1.07315
1.07698
1.05849
1.02974
1.01655
1.01355
1.01763
1.02791
1.04265
1.08662
1.1488
1.18725
1.206
1.21911
1.22986
1.22325
1.18991
1.15866
1.14465
1.14413
1.15275
1.16822
1.20316
1.25469
1.29824
1.3298
1.35446
1.37204
1.37494
1.36767
1.33061
1.25404
3.36271
25.9535
0.721829
0.726451
0.704148
0.677137
0.669124
0.670218
0.67377
0.68994
0.725242
0.747447
0.755657
0.761108
0.763615
0.747665
0.718543
0.708083
0.709085
0.712181
0.71861
0.743653
0.782287
0.80233
0.810863
0.815031
0.812382
0.807471
0.805504
0.800378
0.79522
0.796387
0.800683
0.805817
0.81028
0.822132
0.849255
0.869996
0.881213
0.888665
0.894507
0.900129
0.90329
0.886847
0.862018
0.853355
0.853958
0.858452
0.864986
0.883438
0.922117
0.947691
0.958193
0.964171
0.96868
0.973166
0.966599
0.939094
0.924621
0.925091
0.930697
0.938623
0.951635
0.991142
1.03761
1.0597
1.06939
1.0755
1.08144
1.0831
1.05731
1.02978
1.02057
1.02206
1.02741
1.03592
1.05185
1.10431
1.16878
1.20187
1.21886
1.23257
1.2394
1.22464
1.19153
1.16295
1.15045
1.15121
1.16038
1.17832
1.21732
1.268
1.30577
1.33106
1.35126
1.36088
1.36168
1.3414
1.28374
3.31673
26.119
0.723128
0.710713
0.682517
0.674393
0.675126
0.677366
0.683812
0.715019
0.74346
0.75411
0.760498
0.763949
0.751333
0.726092
0.714085
0.712503
0.714543
0.720428
0.7383
0.764724
0.786953
0.801771
0.807835
0.806615
0.802822
0.805556
0.810256
0.811462
0.807626
0.806593
0.807028
0.805838
0.806963
0.811127
0.831243
0.866476
0.885693
0.893597
0.899066
0.903757
0.90532
0.894555
0.869361
0.856198
0.855911
0.859624
0.86485
0.874744
0.904751
0.941025
0.958622
0.967133
0.97327
0.978964
0.98266
0.965763
0.939338
0.932707
0.936231
0.942555
0.949949
0.965351
1.01021
1.05125
1.06863
1.07753
1.08501
1.09282
1.08948
1.05849
1.03501
1.02755
1.02678
1.03265
1.04288
1.06428
1.12538
1.18451
1.21239
1.22706
1.23856
1.23792
1.22385
1.19941
1.17502
1.16193
1.16086
1.16736
1.18395
1.2254
1.27465
1.30811
1.33054
1.34541
1.34976
1.34169
1.31
3.29474
26.254
0.712399
0.682863
0.672428
0.673862
0.676958
0.682131
0.706241
0.741356
0.757283
0.762341
0.763987
0.750635
0.728723
0.719243
0.718288
0.720862
0.730622
0.750463
0.765181
0.772134
0.782225
0.790391
0.793259
0.793507
0.799677
0.810099
0.819131
0.826988
0.82974
0.821129
0.809685
0.804162
0.804121
0.807032
0.815358
0.849989
0.883432
0.895382
0.901073
0.90414
0.903532
0.90003
0.885647
0.866772
0.861199
0.862797
0.867085
0.872288
0.885477
0.923526
0.956509
0.970809
0.978678
0.984564
0.990277
0.989082
0.963392
0.944015
0.941134
0.944528
0.950466
0.958593
0.978435
1.02676
1.06375
1.08041
1.09034
1.09814
1.10533
1.09646
1.06233
1.03938
1.03489
1.04138
1.04939
1.05745
1.07674
1.13177
1.18184
1.20833
1.22538
1.23756
1.23841
1.23236
1.21423
1.18803
1.16808
1.1615
1.16606
1.18386
1.22949
1.27906
1.31016
1.32801
1.33535
1.33291
1.32483
3.30388
26.3487
0.695404
0.673396
0.67233
0.675312
0.680911
0.699029
0.727486
0.749345
0.759618
0.761365
0.749628
0.732755
0.726604
0.726669
0.730792
0.745442
0.764163
0.775052
0.777278
0.76994
0.764363
0.767176
0.779806
0.794674
0.807982
0.824125
0.838214
0.846623
0.851503
0.83748
0.81094
0.799429
0.799687
0.803099
0.808703
0.831204
0.872298
0.893238
0.900662
0.903526
0.903718
0.904994
0.902883
0.885697
0.870768
0.867235
0.867972
0.871921
0.877759
0.898384
0.943617
0.972464
0.984393
0.991532
0.996885
1.00129
0.993286
0.965862
0.951641
0.950256
0.953606
0.958562
0.965356
0.985172
1.03606
1.07351
1.0897
1.09889
1.10895
1.11838
1.10971
1.07516
1.05414
1.0493
1.04922
1.05331
1.06195
1.08141
1.12991
1.17896
1.20952
1.2276
1.23984
1.24219
1.24129
1.22551
1.19344
1.1664
1.15769
1.16353
1.18348
1.2297
1.27724
1.30295
1.31531
1.31712
1.32886
3.35372
26.4299
0.6883
0.678611
0.679785
0.687177
0.703181
0.719231
0.732107
0.743275
0.747179
0.742091
0.731779
0.7305
0.734139
0.745508
0.765769
0.778348
0.783867
0.784282
0.769967
0.751227
0.745446
0.748458
0.766737
0.802252
0.831555
0.847611
0.855042
0.860181
0.862596
0.844007
0.807753
0.79619
0.797548
0.801853
0.809772
0.823372
0.85373
0.884495
0.897923
0.903675
0.906435
0.909005
0.912254
0.906912
0.885036
0.871461
0.868995
0.871245
0.876218
0.884199
0.916725
0.96456
0.987777
0.997963
1.00531
1.01142
1.01436
0.997361
0.969892
0.958687
0.956596
0.955249
0.956525
0.963863
0.989521
1.04519
1.083
1.10182
1.11729
1.12799
1.1351
1.12032
1.08199
1.05661
1.05017
1.05348
1.05979
1.0679
1.08457
1.12698
1.17381
1.20646
1.22671
1.24034
1.24567
1.245
1.22798
1.1921
1.16426
1.15695
1.1626
1.18037
1.22489
1.26592
1.28615
1.29112
1.31714
3.44237
26.5262
0.68999
0.693035
0.698845
0.709838
0.718198
0.723045
0.726972
0.72541
0.723664
0.728073
0.733409
0.738978
0.756656
0.783228
0.796953
0.802638
0.80091
0.778022
0.74496
0.733368
0.73447
0.739503
0.75947
0.812627
0.853636
0.865781
0.871032
0.871936
0.860535
0.832604
0.80978
0.800638
0.801651
0.806579
0.815624
0.824785
0.836975
0.864933
0.890229
0.902008
0.908235
0.912529
0.917048
0.921125
0.907564
0.882156
0.872262
0.87213
0.875795
0.881331
0.894775
0.9402
0.985819
1.00511
1.01459
1.01988
1.02372
1.02196
0.99663
0.97045
0.959597
0.955776
0.954163
0.958541
0.967726
0.997523
1.06016
1.10346
1.12078
1.12923
1.136
1.14044
1.12334
1.09009
1.06838
1.06163
1.06219
1.06673
1.07394
1.08703
1.12338
1.17193
1.20664
1.22756
1.24173
1.24758
1.24536
1.22603
1.18965
1.16328
1.15713
1.15984
1.174
1.21418
1.24856
1.26159
1.29514
3.55483
26.646
0.69868
0.707111
0.717494
0.722925
0.726151
0.723696
0.71087
0.703762
0.705852
0.715579
0.736581
0.766033
0.793607
0.805989
0.811228
0.815255
0.808005
0.760813
0.730575
0.727318
0.730094
0.736616
0.764855
0.827344
0.860521
0.871097
0.875862
0.865917
0.844485
0.831524
0.81949
0.811585
0.811966
0.817622
0.825805
0.829705
0.831749
0.839313
0.869256
0.89575
0.908033
0.915399
0.921683
0.927511
0.927101
0.900587
0.878589
0.874955
0.877859
0.883059
0.891347
0.913862
0.967719
1.00511
1.01802
1.02243
1.02503
1.02991
1.02833
1.00107
0.976593
0.966524
0.965654
0.968503
0.970071
0.977043
1.00627
1.07025
1.10872
1.12302
1.13294
1.14161
1.14478
1.13127
1.10557
1.08379
1.07159
1.06831
1.06984
1.07488
1.08748
1.12784
1.17806
1.21024
1.23001
1.24425
1.24896
1.2436
1.22116
1.18588
1.16006
1.15086
1.15052
1.1625
1.20138
1.22889
1.27051
3.67632
26.7835
0.7109
0.719407
0.725166
0.729045
0.731169
0.721154
0.704118
0.700575
0.70332
0.709308
0.738938
0.791216
0.813982
0.820185
0.821846
0.817184
0.786672
0.74974
0.733674
0.731465
0.734483
0.749074
0.787742
0.829968
0.857311
0.866035
0.860409
0.841861
0.835508
0.838642
0.8395
0.833983
0.83021
0.831927
0.833442
0.828817
0.823324
0.82447
0.839066
0.879715
0.90721
0.919486
0.927565
0.934224
0.939345
0.924843
0.894061
0.882869
0.884097
0.891768
0.902237
0.910875
0.931933
0.978903
1.00767
1.01774
1.02384
1.03159
1.0421
1.04408
1.01827
0.990828
0.978103
0.971497
0.96996
0.973976
0.982459
1.01486
1.07643
1.11496
1.13211
1.14206
1.14969
1.1513
1.14561
1.12469
1.09576
1.07542
1.06799
1.06929
1.07451
1.09328
1.14053
1.18817
1.21616
1.23357
1.24349
1.24381
1.23598
1.21384
1.18252
1.15417
1.1384
1.13436
1.14946
1.18739
1.24065
3.79283
26.9223
0.720193
0.724723
0.725818
0.728334
0.727838
0.715236
0.704792
0.704605
0.708669
0.717171
0.750146
0.79544
0.817069
0.823878
0.824852
0.80218
0.771304
0.754065
0.74513
0.747207
0.760058
0.784691
0.800998
0.814007
0.826112
0.832347
0.833383
0.834752
0.839286
0.848063
0.859835
0.865345
0.858563
0.845556
0.832702
0.81856
0.812238
0.813715
0.8204
0.855697
0.904433
0.927411
0.938447
0.945716
0.949671
0.944572
0.919491
0.89849
0.895064
0.899622
0.906795
0.912639
0.9184
0.935221
0.979997
1.0115
1.02662
1.04133
1.05407
1.06224
1.05807
1.02516
0.988991
0.972839
0.972571
0.978631
0.985139
0.991956
1.01568
1.06877
1.11008
1.13293
1.14633
1.15466
1.15812
1.15514
1.13759
1.10428
1.0778
1.06879
1.07085
1.07906
1.10379
1.15486
1.19759
1.21958
1.23114
1.2364
1.23668
1.22778
1.21246
1.1814
1.14437
1.12101
1.11612
1.13526
1.20046
3.8875
27.0254
0.719476
0.726744
0.730485
0.733521
0.730408
0.716063
0.712083
0.715833
0.720707
0.728376
0.752741
0.789922
0.806426
0.80921
0.800784
0.7862
0.775404
0.769332
0.77249
0.782587
0.797368
0.805187
0.805374
0.791455
0.785098
0.79382
0.816098
0.836453
0.854018
0.870588
0.881192
0.887198
0.886768
0.860199
0.824395
0.805992
0.803395
0.806324
0.813801
0.837865
0.897313
0.93606
0.948907
0.955416
0.955501
0.954735
0.945434
0.918652
0.904548
0.903911
0.908779
0.913432
0.91335
0.918117
0.937156
0.98675
1.02728
1.04766
1.05859
1.06582
1.07194
1.06554
1.02423
0.990756
0.981754
0.982034
0.983674
0.987178
0.993465
1.01069
1.05619
1.10423
1.13361
1.148
1.15669
1.16287
1.16453
1.14847
1.10904
1.07951
1.07098
1.0745
1.08595
1.11475
1.1648
1.20062
1.21701
1.22408
1.22986
1.23149
1.22668
1.21227
1.1756
1.13065
1.1044
1.09279
1.14475
3.93282
27.0958
0.720156
0.73352
0.74025
0.746185
0.745682
0.728136
0.720379
0.721338
0.724516
0.728687
0.742111
0.764666
0.780192
0.785117
0.785033
0.786556
0.791527
0.800969
0.810697
0.815428
0.816208
0.810623
0.785395
0.768132
0.76646
0.77207
0.795983
0.840234
0.874202
0.890361
0.896839
0.900462
0.900182
0.873804
0.822355
0.802856
0.802363
0.807498
0.821129
0.847357
0.88631
0.931097
0.95117
0.956534
0.951989
0.94801
0.950007
0.948622
0.930547
0.920183
0.919062
0.919245
0.915578
0.913742
0.918882
0.938699
0.99301
1.03473
1.05136
1.05882
1.06324
1.06586
1.05856
1.02705
0.998839
0.987058
0.985376
0.987661
0.988499
0.991263
1.00111
1.04015
1.09976
1.13758
1.15517
1.16631
1.17193
1.16894
1.14905
1.10773
1.08161
1.07722
1.08668
1.09765
1.12167
1.1671
1.1971
1.21045
1.21754
1.22479
1.2296
1.22433
1.21089
1.16469
1.11664
1.0854
1.08122
3.89683
27.1495
0.728972
0.752699
0.759501
0.76535
0.760278
0.738526
0.725954
0.722732
0.721085
0.720465
0.722478
0.733121
0.756942
0.776349
0.78828
0.802493
0.818588
0.82902
0.834684
0.837022
0.826132
0.789497
0.764068
0.7584
0.760627
0.765574
0.781905
0.837001
0.883311
0.898154
0.904753
0.906074
0.889884
0.860519
0.830551
0.812128
0.810824
0.8238
0.851971
0.868776
0.87592
0.895514
0.924492
0.936731
0.939879
0.942887
0.952919
0.968664
0.974861
0.960673
0.940787
0.926848
0.915819
0.910251
0.911637
0.917591
0.938913
0.994837
1.03623
1.05215
1.06083
1.06828
1.07414
1.06776
1.03768
1.01071
0.996693
0.989964
0.984305
0.982534
0.986367
0.996477
1.04209
1.108
1.14432
1.15961
1.16733
1.16853
1.16674
1.15023
1.11616
1.09622
1.09456
1.09811
1.10388
1.12212
1.15998
1.18932
1.20419
1.21597
1.22811
1.22652
1.22351
1.20085
1.14764
1.09334
1.05218
3.78495
27.1988
0.748323
0.772109
0.775636
0.774401
0.761413
0.738973
0.722816
0.714216
0.710997
0.711384
0.714171
0.719177
0.73501
0.769582
0.803934
0.827515
0.838238
0.842604
0.844719
0.843435
0.814564
0.778344
0.763105
0.761257
0.763734
0.770813
0.792462
0.834634
0.879063
0.897659
0.90144
0.887321
0.870075
0.861802
0.850976
0.842625
0.845277
0.858884
0.870459
0.874385
0.869339
0.862172
0.871615
0.904407
0.930023
0.946483
0.96935
0.991537
1.00144
1.00026
0.971088
0.932229
0.911292
0.906116
0.908434
0.914162
0.921276
0.942646
0.996287
1.03867
1.05786
1.06734
1.07284
1.07481
1.06971
1.04764
1.01919
0.997721
0.986797
0.984569
0.98688
0.992018
1.00324
1.04984
1.11148
1.143
1.15814
1.16657
1.17489
1.17898
1.1638
1.13224
1.10972
1.09955
1.09653
1.09622
1.11279
1.15543
1.18835
1.2089
1.22446
1.229
1.22311
1.21413
1.18053
1.12049
1.05484
3.63224
27.2753
0.761958
0.780857
0.783672
0.774018
0.746379
0.726475
0.717113
0.711934
0.710456
0.711792
0.714421
0.718568
0.726538
0.755483
0.806665
0.833138
0.842764
0.84784
0.847509
0.825924
0.800985
0.782201
0.77005
0.768672
0.775022
0.793413
0.808693
0.821613
0.846086
0.867427
0.873352
0.870861
0.869062
0.871952
0.881306
0.893632
0.894931
0.887582
0.880607
0.86772
0.849485
0.842362
0.846336
0.865767
0.913233
0.961453
0.994233
1.00962
1.0153
1.01872
1.00721
0.957164
0.918083
0.908965
0.911502
0.917332
0.924736
0.934226
0.949304
0.992457
1.03277
1.05169
1.05997
1.06695
1.07492
1.07916
1.06797
1.03929
1.0094
0.994659
0.990146
0.989539
0.993007
1.01031
1.0634
1.12195
1.15357
1.17093
1.18136
1.18773
1.19027
1.17462
1.14018
1.11106
1.09257
1.08399
1.0882
1.11059
1.15958
1.19758
1.21708
1.2252
1.21914
1.21285
1.19846
1.15644
1.09415
3.4751
27.3758
0.766488
0.782381
0.775422
0.751488
0.735643
0.727202
0.719774
0.71553
0.714593
0.716907
0.722887
0.731543
0.739274
0.750489
0.788062
0.826836
0.839531
0.841856
0.830975
0.815653
0.804723
0.794339
0.790155
0.792004
0.800742
0.809812
0.813073
0.810518
0.807774
0.820721
0.849018
0.866915
0.87887
0.901674
0.923629
0.932271
0.930159
0.911552
0.880027
0.849534
0.835558
0.834049
0.838086
0.846009
0.881027
0.959288
1.00195
1.01413
1.01763
1.01117
0.997405
0.977176
0.949128
0.931861
0.929827
0.934911
0.940587
0.940019
0.937649
0.942609
0.971194
1.01449
1.04568
1.06661
1.08237
1.09183
1.09644
1.08419
1.04787
1.00885
0.989952
0.987489
0.992702
1.00536
1.02737
1.07671
1.13045
1.15986
1.17272
1.18077
1.18794
1.19256
1.18046
1.14588
1.11013
1.08629
1.07825
1.08536
1.11217
1.16348
1.19845
1.21278
1.21056
1.20455
1.20156
1.18073
1.15214
3.37035
27.5038
0.753347
0.754347
0.741537
0.732839
0.735043
0.73815
0.739288
0.737196
0.736838
0.738783
0.741713
0.74276
0.74412
0.746589
0.755652
0.790515
0.816786
0.82401
0.824745
0.820232
0.81884
0.820072
0.819226
0.816677
0.815353
0.814339
0.804507
0.792847
0.790538
0.795652
0.818641
0.862959
0.905942
0.93736
0.950912
0.955849
0.951887
0.923883
0.878915
0.849774
0.839281
0.838826
0.847527
0.868282
0.891591
0.926014
0.973828
0.994259
0.995776
0.99141
0.989727
0.992686
0.994869
0.983726
0.966453
0.95588
0.946961
0.934861
0.925695
0.924596
0.929869
0.954841
1.01833
1.0686
1.08612
1.09476
1.09849
1.09315
1.08135
1.05016
1.01469
1.00041
1.00244
1.01438
1.02342
1.03251
1.07025
1.1225
1.15315
1.16795
1.17713
1.18879
1.19689
1.18638
1.15124
1.10501
1.08174
1.07581
1.08031
1.10847
1.15855
1.18915
1.20048
1.19723
1.19646
1.18682
1.1872
3.34575
27.6426
0.722685
0.714254
0.724165
0.734643
0.744344
0.757051
0.767773
0.772633
0.767912
0.756298
0.748947
0.743871
0.73992
0.739211
0.741491
0.753547
0.788639
0.816481
0.827964
0.834783
0.839295
0.841322
0.841378
0.834559
0.82009
0.803623
0.791031
0.784554
0.784363
0.788654
0.800708
0.845004
0.909398
0.94185
0.953734
0.95865
0.953678
0.931589
0.8936
0.863235
0.854244
0.860566
0.879127
0.892503
0.897056
0.896755
0.904751
0.936288
0.964003
0.979372
0.99461
1.0134
1.02574
1.02789
1.01378
0.982667
0.948695
0.927552
0.920457
0.921585
0.925817
0.932721
0.969415
1.03908
1.07735
1.09067
1.09526
1.08913
1.087
1.08768
1.06953
1.04077
1.02592
1.02172
1.01811
1.01524
1.02299
1.0615
1.12162
1.15604
1.17328
1.18952
1.20087
1.20018
1.18676
1.14592
1.0998
1.07872
1.07422
1.0763
1.10254
1.15111
1.18047
1.18688
1.18551
1.17851
1.20056
3.37878
27.7684
0.695167
0.693649
0.711718
0.744229
0.771637
0.786288
0.792998
0.796713
0.792225
0.769233
0.744064
0.734284
0.733208
0.735259
0.740432
0.746616
0.760408
0.795193
0.825807
0.839771
0.846668
0.850685
0.851208
0.844329
0.825698
0.805331
0.79396
0.789444
0.792733
0.805384
0.819371
0.834204
0.875288
0.919588
0.935877
0.935361
0.922764
0.919966
0.919218
0.909387
0.899864
0.897199
0.899106
0.900067
0.887973
0.870001
0.866253
0.878916
0.915913
0.963739
1.00501
1.03005
1.04162
1.04643
1.04566
1.02493
0.972632
0.933829
0.922267
0.92373
0.928875
0.941649
0.964805
0.993511
1.03719
1.06956
1.08291
1.08718
1.09359
1.10256
1.10851
1.09455
1.05777
1.02855
1.01413
1.00865
1.00846
1.01649
1.06325
1.13348
1.17164
1.1867
1.19354
1.19589
1.19243
1.18217
1.13992
1.09754
1.07629
1.06954
1.07081
1.09811
1.14203
1.16563
1.17053
1.16572
1.20369
3.44967
27.8862
0.676681
0.678627
0.69843
0.751557
0.790829
0.805527
0.810848
0.812252
0.804811
0.776758
0.747076
0.736122
0.735787
0.739943
0.748765
0.756246
0.758498
0.764882
0.794755
0.828768
0.844535
0.850518
0.851715
0.853252
0.845413
0.825434
0.812098
0.810052
0.8152
0.82079
0.824467
0.827179
0.829991
0.856594
0.894282
0.910438
0.91582
0.925052
0.945121
0.95989
0.953283
0.931187
0.910061
0.886773
0.862103
0.849713
0.849612
0.855487
0.869891
0.92154
0.997112
1.03327
1.04335
1.04655
1.03866
1.01777
0.994801
0.965891
0.945342
0.941831
0.947271
0.958194
0.967915
0.972886
0.985208
1.02401
1.06554
1.09025
1.10329
1.11447
1.12259
1.12493
1.1035
1.05963
1.02855
1.01352
1.00783
1.01092
1.02367
1.07699
1.14342
1.17364
1.18416
1.19081
1.18848
1.18824
1.17971
1.14102
1.09809
1.07278
1.06489
1.06407
1.08763
1.1273
1.14952
1.15171
1.20147
3.54451
28.0031
0.673756
0.677512
0.697011
0.748738
0.794888
0.810161
0.814271
0.805883
0.790006
0.781274
0.767061
0.755429
0.755271
0.763557
0.771417
0.765759
0.753779
0.748313
0.752576
0.786834
0.826167
0.843794
0.855579
0.866833
0.876864
0.876337
0.85341
0.833818
0.827596
0.82463
0.818331
0.810395
0.808189
0.815041
0.845826
0.889526
0.923673
0.954162
0.979107
0.989678
0.990782
0.968972
0.922773
0.88049
0.85702
0.849782
0.85165
0.857173
0.868244
0.895159
0.95404
1.00519
1.02153
1.02228
1.01309
1.00545
1.008
1.00966
1.00043
0.986238
0.978767
0.975606
0.971301
0.966639
0.966328
0.975644
1.02076
1.07636
1.10724
1.1225
1.12871
1.13073
1.1301
1.10801
1.06924
1.03975
1.02433
1.02023
1.02069
1.0302
1.07634
1.1361
1.16644
1.18077
1.18721
1.18815
1.19103
1.18371
1.14529
1.09562
1.06418
1.0534
1.05052
1.07353
1.11669
1.13405
1.19348
3.64088
28.0691
0.680673
0.700927
0.725278
0.74077
0.76776
0.785678
0.787398
0.780926
0.782884
0.790646
0.799821
0.805532
0.801268
0.793414
0.778852
0.756869
0.737913
0.729807
0.729106
0.741049
0.794092
0.847304
0.879896
0.900399
0.911022
0.913961
0.894915
0.854029
0.824595
0.808936
0.800618
0.798037
0.800893
0.805813
0.814582
0.848918
0.918526
0.96787
0.986288
0.993406
0.996982
0.987453
0.951137
0.897695
0.866768
0.859508
0.86468
0.877264
0.89611
0.909893
0.918624
0.935511
0.961374
0.982633
0.995749
1.00797
1.02618
1.04368
1.05409
1.05096
1.02726
0.998074
0.975115
0.960163
0.956197
0.960081
0.978615
1.0409
1.09895
1.12323
1.13108
1.13418
1.13813
1.13705
1.12039
1.08619
1.05176
1.03069
1.01966
1.01505
1.02193
1.06149
1.12122
1.16086
1.182
1.1888
1.19033
1.19169
1.18137
1.14241
1.09023
1.05329
1.03982
1.03684
1.06877
1.10397
1.17413
3.7281
28.0982
0.710927
0.734796
0.736658
0.729891
0.721506
0.730752
0.7562
0.776232
0.796178
0.822301
0.844734
0.85474
0.850805
0.813087
0.762748
0.730123
0.719494
0.718216
0.720564
0.729581
0.76359
0.849172
0.903565
0.919502
0.92607
0.924252
0.9143
0.883229
0.833646
0.807904
0.801462
0.801571
0.805046
0.812626
0.826446
0.846273
0.887758
0.950062
0.977807
0.982744
0.971955
0.954354
0.941504
0.929818
0.90957
0.897495
0.897116
0.902463
0.908004
0.909099
0.896819
0.886638
0.893016
0.923228
0.973896
1.02121
1.05425
1.07482
1.08618
1.09016
1.07161
1.02322
0.978982
0.959962
0.956104
0.964768
0.983456
1.00585
1.05733
1.10481
1.12484
1.13117
1.13591
1.14097
1.14602
1.13078
1.09552
1.05445
1.02627
1.01204
1.00694
1.01258
1.04699
1.11578
1.16329
1.18132
1.18457
1.18619
1.18457
1.16919
1.1377
1.08492
1.04285
1.02539
1.02895
1.05774
1.14066
3.80683
28.1173
0.744758
0.749403
0.727494
0.699852
0.68953
0.690616
0.715701
0.7815
0.838748
0.868994
0.879153
0.882501
0.874927
0.827998
0.750655
0.718699
0.713641
0.715027
0.724673
0.747149
0.790309
0.849011
0.900667
0.921306
0.924054
0.909048
0.888245
0.871202
0.850909
0.826457
0.816007
0.817625
0.826493
0.839192
0.851291
0.85981
0.868494
0.891658
0.923615
0.938839
0.942493
0.945343
0.951332
0.957245
0.958884
0.949922
0.936123
0.924269
0.910662
0.890578
0.870321
0.861309
0.862376
0.870794
0.921481
1.01076
1.06361
1.08333
1.0936
1.09547
1.08514
1.05781
1.00698
0.974311
0.96736
0.979801
0.992967
0.998896
1.00951
1.04791
1.09329
1.11505
1.12467
1.13401
1.14281
1.1446
1.13383
1.09547
1.04817
1.01686
1.00534
1.00408
1.00904
1.04315
1.11629
1.16227
1.17489
1.17753
1.17858
1.17026
1.15931
1.13757
1.08266
1.03498
1.01506
1.0182
1.09993
3.84477
28.1164
0.761027
0.72603
0.695529
0.682635
0.680937
0.683974
0.699024
0.775675
0.862312
0.885776
0.893509
0.892334
0.861044
0.80092
0.751392
0.724642
0.718361
0.722424
0.751273
0.796579
0.820964
0.835765
0.859207
0.877579
0.879621
0.874229
0.871541
0.871436
0.870307
0.867283
0.860534
0.853503
0.850174
0.852533
0.857395
0.859141
0.855971
0.851984
0.858985
0.88221
0.914649
0.943039
0.963048
0.97921
0.988845
0.98987
0.979631
0.955193
0.917479
0.88261
0.864535
0.859591
0.861036
0.868334
0.897638
0.96102
1.03797
1.07509
1.08671
1.078
1.06164
1.05683
1.04609
1.0182
1.003
1.00065
0.99844
0.992733
0.986389
0.992624
1.034
1.08575
1.11169
1.12686
1.1379
1.1402
1.13786
1.13036
1.08711
1.0417
1.0146