/*--------------------------------*- C++ -*----------------------------------*\
  =========                 |
  \\      /  F ield         | OpenFOAM: The Open Source CFD Toolbox
   \\    /   O peration     | Website:  https://openfoam.org
    \\  /    A nd           | Version:  12
     \\/     M anipulation  |
\*---------------------------------------------------------------------------*/
FoamFile
{
    format      ascii;
    class       surfaceScalarField;
    location    "1.06";
    object      phi;
}
// * * * * * * * * * * * * * * * * * * * * * * * * * * * * * * * * * * * * * //

dimensions      [1 0 -1 0 0 0 0];

internalField   nonuniform List<scalar> 
33852
(
0.000251329
2.24281e-05
-0.000273757
-0.000246121
1.32441e-05
0.000232877
-0.00017392
-7.14936e-05
0.000246411
0.000304053
-0.000163969
-0.000140085
0.000291379
-4.2134e-05
-0.000248983
2.72441e-05
-0.000260681
0.000233437
0.000315269
1.47007e-05
-0.000329889
0.000304277
-9.59564e-05
-0.000208321
0.000286413
-3.50841e-05
0.000195205
1.64903e-06
-0.000196113
0.000289305
-0.000366732
7.71344e-05
0.000361213
-4.5711e-05
-4.39602e-05
0.000263285
-0.000219325
-4.14423e-05
0.000313993
-0.000273011
6.08051e-05
-0.000233999
0.000252057
1.2236e-05
-0.000264293
0.000264853
-1.2796e-05
-0.000278433
3.23121e-05
0.000340532
-5.13011e-05
0.000158593
0.000112308
-0.000270901
-2.189e-05
0.000298338
-0.000276512
0.000271377
-0.000276165
4.78802e-06
-1.75724e-05
0.000273135
-0.000256006
-0.000226101
1.48157e-05
0.000212199
-0.00015369
-0.000180368
0.000334678
-0.000149417
-7.18833e-05
0.000223482
3.72401e-05
0.000267037
-6.07841e-05
-0.000261938
0.00032292
-0.000209301
1.69033e-06
0.000202991
-0.000203791
-1.89174e-05
0.000142045
0.000137388
-0.000279433
0.000342057
1.93484e-05
0.000142618
0.000128347
-0.000270965
-0.000101136
0.000259729
-0.000250489
-3.78001e-06
0.000254269
0.000328956
-5.89785e-05
-0.000269999
-0.000354524
0.000200435
-0.0002265
0.00020849
0.000231645
3.32081e-05
-5.65602e-06
0.000237301
-7.71194e-06
0.000206863
-0.000232625
0.000259869
0.000315339
-5.73723e-05
-0.000257998
-0.000309093
5.51042e-05
0.000253989
0.000239337
-0.000299992
0.000273589
-0.000306321
3.27321e-05
-0.000180237
-5.49362e-05
0.000235173
0.000272133
-0.000272133
0.000148429
-0.000297473
0.000149045
-0.000213761
0.000221436
-7.43976e-06
-0.000268241
0.000237301
3.09401e-05
-0.000201164
0.000248503
-4.74152e-05
-9.16164e-05
-0.000217477
-0.000114652
-0.000252213
-0.000280169
0.000266113
1.40561e-05
0.000330216
1.19309e-05
-0.000250433
7.01963e-05
0.000117908
0.000145909
-0.000263817
1.34681e-05
-0.000267457
0.000253989
-0.000134569
0.000282997
-0.000155207
-5.29118e-05
0.00020852
-0.000274681
0.000245113
2.95681e-05
0.000237553
-0.000268437
3.08841e-05
-0.00019172
-2.40954e-05
0.000151665
0.000115565
-0.00026723
-0.000192613
-2.85227e-05
0.000226299
0.000263985
2.24281e-05
0.000275941
-2.35201e-06
0.000265329
-0.000250741
-1.45881e-05
0.00022939
-6.43234e-05
-0.000160371
-1.82001e-06
0.000239373
0.000366748
-0.00031152
-5.37776e-05
-2.87151e-05
0.000302622
-0.000274337
-0.000101584
0.000219493
0.000343541
2.41683e-05
-0.000372764
0.000355271
1.83793e-05
-0.00020756
2.21744e-05
0.000310331
-0.000320913
1.23102e-05
-0.000211078
0.000277394
-6.50453e-05
-4.45202e-06
1.70378e-05
-0.000319568
0.000302196
0.000236678
-0.00019969
-3.57728e-05
0.000267208
-0.000338585
6.96247e-05
0.000329883
-6.29167e-05
-0.000268941
0.000236573
3.23681e-05
-0.000129388
-0.000132609
0.000261997
-1.86761e-05
-0.000249565
-1.022e-05
-0.000258721
2.26909e-05
0.000209558
-0.000231906
3.12406e-05
-0.000219533
0.000192934
-2.51667e-05
0.000328919
-0.000304864
-0.000279329
0.000273701
5.62802e-06
0.000156129
-0.000296857
0.000140729
-5.83742e-05
-0.000147905
0.0002053
0.000143277
0.0001218
-0.000265077
-0.0002463
0.000224406
-0.000208666
0.000149153
-0.000168813
0.000327181
-0.000158369
0.000185389
7.16523e-05
-0.000257041
0.000255193
2.07481e-05
-0.000192277
0.000148317
5.06201e-05
0.000264286
0.00030695
-0.000290081
9.68618e-05
-0.000236601
0.000135241
0.000117096
-0.000281065
-1.42057e-06
0.000243627
-0.000242858
0.000166489
0.000122836
-0.000289325
0.000146234
9.11799e-05
-3.92002e-06
0.000259113
0.000305434
5.44789e-06
-0.000323934
0.000315104
8.89726e-06
-3.99002e-05
0.000236293
-0.000196393
4.08802e-06
-0.000284257
-2.42293e-05
0.000168901
-0.000143355
-0.000162433
0.000138499
0.00020842
-0.000174295
-0.000269921
0.000264965
4.95602e-06
2.64041e-05
0.000174721
-0.000201125
2.87841e-05
-0.000257265
0.000228481
0.000276137
-0.000262669
0.000115108
0.000212073
0.000213414
-0.000190245
-0.000175813
0.000202217
1.34919e-05
0.000281765
-0.000295335
0.000269919
2.14691e-05
0.000273611
-0.0002857
1.25911e-05
3.86402e-06
0.000267513
-1.83598e-05
0.000291985
0.000330455
1.0086e-05
0.000213071
-0.000254732
0.000316804
-0.000316592
-6.63603e-06
-0.000272693
2.78132e-05
0.00020249
0.000187993
3.98722e-05
-0.000227865
-5.41561e-05
0.000215047
-0.000163748
0.000153609
-0.000270285
0.000116676
0.000279441
-0.000329701
5.02602e-05
-6.38122e-05
0.000249201
-0.000166909
0.000315897
-0.000148989
-0.000313905
-9.98478e-06
-0.000214929
0.000175029
2.78601e-05
-0.000278349
0.000276221
-1.88441e-05
-0.000248613
1.73239e-05
-0.0003036
0.000286101
0.000344989
-0.000158593
-0.000186397
-1.68961e-05
-0.000241208
0.00025813
-0.000266617
-3.30401e-06
0.000224001
2.45841e-05
-0.000248585
0.000284509
-0.000128381
0.000140197
0.000138853
-0.000279049
-0.000200476
-1.07707e-05
0.000258169
-0.000115551
0.00022569
-0.000242542
-6.38122e-05
0.000251805
-0.000208206
0.000249481
-5.60002e-07
-0.000248921
0.000255109
-0.000237441
-0.000326555
0.000300096
-3.08841e-05
0.000203169
-0.000172285
0.000290353
1.19499e-06
-0.000291919
7.79176e-05
0.000133974
-0.000219461
4.77753e-05
-0.000201359
-0.000288633
-4.65752e-06
0.000294787
-1.63249e-06
-0.000285702
0.000146973
-0.000273925
0.000126952
-0.000260302
0.000219269
-0.00029302
0.000264838
0.000279441
-0.000312776
-1.24558e-05
0.000324477
0.000113046
0.000164402
-2.17594e-05
0.00035034
0.000140141
0.000139833
-0.000279973
0.000245029
-0.000250349
5.32002e-06
-0.000210953
0.000180069
0.000279133
-5.43202e-06
0.000347615
-3.42721e-05
-0.000300978
0.000303659
-2.13588e-06
0.000270985
-0.000270985
-0.000364951
0.000226021
0.000138945
-0.000214653
2.08541e-05
1.694e-05
0.000275157
-0.000278461
3.30401e-06
-5.20478e-06
0.000169866
-0.000165409
-0.000197345
0.000254801
-5.74562e-05
-0.000205124
4.52858e-06
-0.000246695
0.000163322
8.4902e-05
-0.000180264
0.000261405
-8.11412e-05
0.000256285
-0.000287113
3.08281e-05
-0.000249229
5.18842e-05
-2.36528e-05
0.0002758
-0.000252283
-0.000253547
1.35801e-06
0.000252189
0.000231281
-7.28003e-06
-0.00029407
7.61464e-06
0.000286629
-0.000266085
0.000266085
-0.000285515
-5.55147e-05
-0.000170805
-0.000194128
-0.000170969
0.000216089
-4.44224e-05
-1.232e-05
-0.000239177
0.000251497
3.10801e-06
0.000210113
-0.000213221
-0.000183108
-2.20443e-05
0.000205105
7.53357e-06
0.000294393
-0.00030184
-0.000236153
-1.34401e-05
0.000249593
1.50361e-05
-0.000251189
-0.000241025
0.000256061
-0.000301293
0.000308995
0.000256117
7.16803e-06
-0.000171866
-3.17312e-05
0.000198309
-0.000145237
-0.000134765
-0.000244329
0.000240549
0.000298592
-4.26847e-07
-0.000298201
-0.000298957
6.23396e-07
0.000298329
1.93586e-05
0.000181217
0.000163773
7.70037e-05
-0.000257268
-0.000159242
0.000310908
0.000250721
-0.000108677
-0.000235145
-1.83681e-05
0.000253513
-0.00020049
-0.000127439
0.000328139
-6.10402e-06
-0.000229125
0.000235229
-2.27245e-05
-0.000190824
-0.000286313
-8.52614e-05
6.24395e-06
-0.000300214
-0.000208937
0.000324711
-0.000116162
0.000281597
0.000288205
-5.16322e-05
0.000271993
-1.57081e-05
-0.000187851
-1.4154e-05
0.000202057
0.000297535
4.13781e-07
-0.000297925
-0.000270183
-3.2058e-05
-0.000218821
0.000247605
-2.28822e-05
0.000305865
-0.000283422
0.000184783
7.59563e-06
-0.000193136
-3.44796e-05
0.000214098
-0.000297657
0.000274226
0.000292653
5.69e-06
-0.00029818
0.000157445
0.00011886
-0.000276305
0.000290066
4.1413e-06
-0.000294544
-0.000232762
0.000115571
0.000124364
-0.000280642
0.000294229
0.000302513
-0.000156857
-0.000145657
0.000207005
-0.000203897
-0.000232009
-0.000121156
-0.000155009
-4.08333e-06
-0.000294085
0.000298169
-1.0136e-05
0.000276249
0.000289024
-1.99549e-05
-0.000269305
-0.000262898
2.92274e-05
0.000233885
0.000271433
-0.000267569
0.000249621
2.95121e-05
0.000314451
-9.67307e-06
-0.000304953
4.88711e-05
0.000152318
-0.00020541
-0.0001008
0.000198287
-9.65733e-05
0.000252617
-2.91201e-05
-0.000223497
6.83515e-07
0.000291948
-0.000173576
-3.09092e-05
0.000202769
-1.91997e-06
0.000290971
-9.33244e-05
0.000246933
-0.000255417
-5.26402e-06
0.000121184
0.000181329
1.34121e-05
0.000241557
-0.000254969
0.000236097
1.34961e-05
-0.000249593
0.000249509
-0.000242929
0.000256425
6.49503e-05
-0.000206091
0.000140291
-0.000213141
0.000114249
-0.000209461
0.000297293
1.37333e-06
-0.00029862
0.000253849
2.22881e-05
0.000268493
-0.000216441
-5.20522e-05
0.000225518
-0.000246849
2.13305e-05
0.000257909
1.40841e-05
5.87991e-05
0.000296331
0.000267186
-3.89594e-05
-0.000228226
0.000175988
1.274e-05
0.000240297
-0.000253037
0.000193887
-0.000114364
-7.9215e-05
-0.000204907
2.09106e-05
-1.28088e-06
-0.000297863
0.000299159
0.000223795
-0.000170737
-5.35448e-05
0.000341082
-4.27401e-05
0.000275969
-0.000135829
2.31561e-05
0.000238337
-0.000261493
-0.000231141
0.000254297
-2.6689e-05
-0.000229701
0.000256406
0.000154413
-0.000160636
-7.21501e-05
-0.000160996
-0.000261723
4.14346e-05
0.000220288
-3.17521e-05
-0.00022997
7.29252e-06
0.000261717
-3.25193e-05
-0.000229198
1.66096e-05
0.000126169
-0.000190186
0.000308785
-0.000171397
0.000262319
-3.57923e-05
-0.000226526
-0.000319609
0.000169186
-9.83306e-05
-0.000228453
-6.90203e-05
-1.06965e-06
-0.000298769
0.000298858
-2.7424e-05
0.000184567
-0.000156986
0.000307657
6.78789e-06
0.000250097
-0.000248249
-1.84801e-06
-0.000175727
6.12183e-05
0.000260255
-3.07174e-05
-0.000229522
0.000197345
-0.000250769
5.34242e-05
0.000254206
-0.000231206
-2.29992e-05
-0.000252337
0.000240017
0.000145245
0.000101903
-0.000101864
-0.000170269
0.000132496
-0.000261885
-0.000290249
0.0002422
4.80482e-05
0.000216808
3.12476e-05
-0.000248056
-0.000236689
-9.75143e-06
0.000247526
0.000325143
-2.27521e-05
0.000263996
-3.42721e-05
-0.000229724
0.000145416
-0.000235904
9.4483e-05
3.63259e-05
-0.000265637
0.000229311
-0.000253905
0.000121296
0.000249817
-5.24722e-05
0.000294673
-0.000154253
-0.000140421
0.000122248
-0.000289157
1.53441e-05
0.000237665
-0.000253009
-0.000262031
3.54705e-05
0.00022656
-2.77095e-06
-3.77917e-05
-0.000224239
0.000248457
-0.000272126
-0.000264649
3.44737e-05
0.000230175
0.000193257
0.000101416
-0.000149941
0.000290137
-0.000167771
-3.81687e-05
0.000204632
-1.81721e-05
0.000263201
-0.00029376
0.000310756
0.000117831
0.000104221
0.000261325
-0.000261325
0.000308344
-2.39786e-05
-0.000287673
5.32002e-07
0.000248949
0.000254857
1.65761e-05
0.000309621
-0.000276263
-3.31783e-05
-2.26336e-05
0.000266577
-0.000243943
3.00077e-05
-0.000260519
0.000230511
-0.000252139
0.000229506
0.000327428
3.11501e-05
-0.000260598
0.000229447
0.000276809
-3.16961e-05
-7.19178e-06
-0.00029322
0.000300148
0.000270772
3.89835e-05
0.000230245
-0.000266617
3.63721e-05
0.000198132
-0.000201601
-0.000258301
0.000238533
1.97681e-05
0.000169762
-0.000257245
8.74835e-05
-0.000205315
0.000163241
-0.000249145
8.59043e-05
-0.000266169
0.000224813
4.13562e-05
0.000253073
-2.78797e-05
-0.000225194
0.000171399
4.22786e-05
-0.000234837
-2.29601e-05
0.000257797
-0.000236377
-2.28761e-05
0.000259253
-1.94265e-05
0.000255969
-0.000236542
-0.000259345
0.000239919
-3.59147e-05
0.000181957
-0.000235929
-2.24001e-05
0.000258329
-0.00025484
0.000229192
2.56481e-05
2.94001e-06
0.000211289
-0.000214229
-0.000267031
3.79849e-05
0.000229046
0.000270677
4.48002e-06
4.02538e-05
0.000150465
-0.000191672
-3.31199e-05
0.000249928
-2.08143e-05
0.000218597
9.73004e-05
0.000248199
-0.000216953
0.0002774
-0.000277427
0.000278044
-0.000281114
-1.84997e-05
0.000258601
-0.000240101
-0.000261644
0.000243145
3.02361e-05
-0.000201024
-2.85727e-05
-0.000207189
0.000235359
0.00031473
-0.000287491
-2.73214e-05
0.000261297
-3.11081e-05
-0.000230189
3.28739e-05
-0.000262362
0.000229488
-0.000229853
0.000259645
-2.97921e-05
0.000325312
-1.75652e-05
0.000149063
-0.000208326
0.000256929
-0.000109956
-0.00028545
0.000286317
0.000241977
-6.41202e-06
-0.000235565
0.000228537
-0.000183038
-3.84258e-05
0.000222659
2.81619e-05
-0.000207977
-0.000239989
0.000260317
-2.03281e-05
-0.000102389
0.00018782
-8.56199e-05
3.07691e-05
-0.000200954
0.000240169
-0.000263424
2.32552e-05
-0.000115584
0.000258861
-0.000243993
0.000265721
-2.17281e-05
-0.000238953
0.000232541
0.000258626
-0.000245105
-1.35213e-05
0.000264349
-2.46681e-05
-0.000246317
-0.000272098
-1.0471e-05
0.000297493
-5.30797e-05
-9.62747e-06
0.000291403
-0.000281138
-0.00015629
0.00019432
0.000228729
1.83874e-05
-0.000244426
0.000328309
-0.000328354
0.000260955
-0.000245018
-1.59377e-05
-0.000302707
-7.50969e-07
0.000304999
9.64284e-06
3.83901e-05
0.00017521
-0.000213392
0.000215955
-3.59396e-05
-0.000180146
0.000278054
-0.000255789
-2.22648e-05
-0.000211014
3.07759e-05
3.15421e-05
-0.000261891
0.000230348
0.000285555
-0.00029261
2.44721e-05
-0.000259617
-0.000257965
1.87881e-05
0.000266057
-1.64361e-05
0.000151173
-0.000267625
0.000116452
0.000298959
-4.37314e-06
0.000238617
-7.53763e-05
2.12521e-05
0.000177045
-0.000198297
-0.000183877
0.000205129
-0.000236275
0.000257219
-2.09441e-05
0.000261462
-3.31689e-05
-0.000228293
-0.000197009
-5.21362e-05
0.000251581
-1.48401e-06
8.77182e-06
-0.000263885
0.000255021
-0.000343401
0.000235741
0.000106166
0.000266371
-0.000236811
-2.95597e-05
0.000306966
-0.00031472
7.82218e-06
-2.57041e-05
-0.000229097
0.000254801
0.000261493
-7.64403e-06
1.06672e-05
-0.00020881
0.000262411
-3.19033e-05
-0.000230508
-6.90483e-05
-0.000260653
-0.000194685
0.000248025
-5.33402e-05
-0.000266533
0.000249985
1.65481e-05
-0.000317837
1.66604e-05
-1.71084e-05
0.000296211
-0.000279527
-0.000276221
1.65481e-05
0.000249537
-0.000166728
6.40609e-05
0.000273483
1.48344e-05
-0.000288309
-0.000316067
0.000307782
8.23505e-06
3.46641e-05
-0.000263649
0.000228985
-1.74897e-05
0.000281185
-0.000315362
1.64054e-05
-0.000176541
-7.42283e-05
-0.000232445
0.000201631
-2.16721e-05
-0.000216469
0.000238141
-0.000314971
0.000296067
1.89415e-05
-0.000132457
0.000273675
-0.000139882
-8.37027e-06
3.31521e-05
-0.000263453
0.000230301
-0.000206854
2.48224e-05
0.000178309
0.000221525
0.000279998
-0.000280343
3.53399e-07
-0.000236993
-2.20921e-05
0.000224813
-0.000202721
0.000139273
0.000143753
-0.000278517
0.000203724
-5.77628e-05
0.000308159
-1.06508e-05
0.000208647
-0.000267571
2.92853e-05
0.00022306
-0.000252345
-0.000319455
0.000138985
0.00029648
2.92004e-05
1.93518e-05
-0.000224355
-2.77845e-05
-0.000136211
-0.000133109
-0.000322817
0.000113903
0.000242873
2.56201e-05
0.000218765
-0.000224869
1.08527e-05
-0.000287883
0.000277138
-0.000242403
0.000270248
-2.71807e-05
0.000281454
-0.000281898
0.00028623
-7.56178e-05
-8.88563e-06
0.000290265
-1.87881e-05
0.000247101
-0.000228313
0.000281567
-0.000290479
-5.62202e-06
-0.00028402
0.00028971
0.000282124
-0.000269553
0.000284393
0.000226314
2.67597e-05
-0.000312719
0.000318233
-6.75444e-06
0.000252294
-2.09679e-05
0.000228495
2.4127e-05
-0.000268913
0.000246057
-2.05381e-05
-0.000259401
3.02849e-05
0.000229116
0.000178305
7.64963e-05
9.61539e-06
0.000280595
-0.000290102
-0.000238141
-2.88401e-05
0.000266981
2.51441e-05
-0.000263285
0.000284117
-0.000162317
-0.000232177
0.000261129
-2.89521e-05
-0.000234697
0.000260709
-2.60121e-05
1.34902e-06
0.000279192
2.45001e-05
-0.000259197
2.38001e-05
-0.000255977
0.000274268
-0.000242912
-3.13823e-05
0.000317704
-1.00009e-05
-0.000306542
-2.81719e-06
-0.000255753
1.1816e-05
0.000243937
-1.73295e-05
-0.000261185
0.000228065
-0.000245337
0.000270145
-2.48081e-05
-0.000263229
1.49801e-05
-2.36066e-05
0.000286014
-0.000262457
2.13641e-05
-0.000266701
-0.000241618
-2.13066e-05
3.2676e-05
-9.0432e-05
0.000260194
0.000280987
-0.000286599
5.05122e-05
0.000237693
0.000282189
-0.000281763
-0.000243181
-2.39401e-05
0.000267121
-0.000260894
7.34723e-06
-0.000295205
1.94488e-05
0.000276001
-0.000268717
2.55361e-05
-8.33281e-06
0.000290509
-0.000268326
0.000243549
2.47772e-05
-0.000232513
0.000210841
0.000280065
-0.000288584
-6.16002e-07
0.000260289
-0.000259673
-0.000301769
-1.60631e-05
-0.000264573
2.35481e-05
-0.00024417
-2.41555e-05
-3.43281e-05
-0.000297992
0.000293966
0.000286674
-0.000158327
0.000295738
-0.000290041
2.30152e-05
4.90927e-06
0.000261902
-0.000254078
-7.07791e-06
0.000307544
-2.02533e-05
-0.000287411
5.90425e-05
-0.000246765
-2.19521e-05
-0.000356835
0.000242206
0.000285387
-0.000279414
2.33801e-05
-0.000186137
-1.57024e-05
-0.000306504
2.56363e-05
0.00028105
-0.000196528
0.000310253
-0.000113383
0.000259841
-0.000238533
-2.13081e-05
-0.000291523
2.94001e-05
0.000222097
-0.000251497
-0.000163818
0.000141692
-0.000169263
0.000251441
-0.000238029
-1.34121e-05
-0.000263873
3.40201e-05
-2.23161e-05
-0.000269837
0.000251469
0.000230427
3.12901e-05
-4.52776e-05
0.000196368
0.000232619
-0.000260499
-1.73537e-05
-3.22358e-06
0.000247068
-0.00024277
-0.000293252
-0.000237049
0.000265189
-2.81401e-05
0.000230096
3.22225e-05
-0.000268521
2.55921e-05
-0.000239905
-2.86161e-05
0.000228954
-0.000260706
-0.000282533
4.73202e-05
-0.000242005
0.000294459
-0.000284035
-0.000288119
1.30209e-05
0.000274655
-3.86501e-06
0.000216814
0.000228551
-0.00026107
0.000296886
-0.0001309
-0.000165985
0.000241267
-0.000261597
0.00027035
-0.000226213
-1.76681e-05
-0.000164455
0.000305141
-0.000142168
2.49649e-05
0.000222662
-0.000247627
-0.000192561
0.000194209
-0.00028373
0.000282437
6.97128e-06
-0.000290746
-0.000302485
0.000146693
0.000155793
0.000259995
-0.000239359
-2.06361e-05
-0.000215741
0.000193649
0.000262556
4.86079e-07
0.000257293
0.000232526
2.16797e-05
-0.000291854
-6.33777e-05
1.03167e-05
0.000233047
-0.000251081
1.73781e-05
-0.000230917
-2.37161e-05
0.000254633
-0.000242295
0.000263191
-2.08965e-05
8.44257e-05
0.000136533
2.02486e-05
-0.000305923
0.000285366
0.000256565
-1.80041e-05
-0.000238561
0.000243881
-0.000254017
1.0136e-05
-0.000226745
0.000207957
0.000223131
-0.000258923
-0.000244693
4.76842e-05
1.59326e-05
-0.000137844
-0.000219002
1.57921e-05
0.000245701
0.000280593
0.000293591
0.000305567
1.76122e-06
0.000249817
-0.000220417
2.51749e-05
0.000225009
-0.000250184
-0.000243178
0.000268865
-2.56873e-05
2.28201e-05
-0.000262725
-0.000114569
0.000295851
9.16264e-06
2.08181e-05
0.000261675
-0.000235103
-2.65721e-05
1.30433e-05
-0.000303343
0.000290271
0.000321758
-3.09839e-05
-0.000290746
0.000249733
1.63241e-05
0.000305678
-0.000292651
-0.000231707
-0.00011294
9.63204e-06
0.000250657
-4.9129e-05
-0.00020239
0.000251519
2.20333e-05
0.000246832
-0.000241686
-2.29629e-05
0.000260737
-2.24001e-05
0.000287924
-0.000268023
2.63369e-05
2.68241e-05
-0.000257965
0.000210617
-0.000207677
2.58161e-05
-0.000262865
0.00027964
0.000121744
-0.000256173
0.000134429
1.90089e-05
3.85156e-05
0.00016105
-0.000201969
-0.000239485
-2.85377e-05
3.97543e-05
0.000164399
-0.000204213
-0.000246691
0.000271066
-2.43747e-05
0.000209866
-0.000248826
1.98857e-05
1.73184e-05
-0.000173009
-3.05868e-05
0.000226704
-0.000257413
-2.88401e-05
0.000244245
-0.000215405
-2.16161e-05
0.000242985
-0.000221369
0.000201657
-0.000250786
-0.000273619
-0.000232905
-2.55081e-05
0.000258413
0.000241234
2.98318e-05
-0.000213163
-2.41494e-05
0.000236426
-2.18821e-05
-0.000224967
-0.000239345
6.28042e-05
0.000259004
-0.000229718
4.75106e-05
-0.000249901
-3.43393e-05
0.000257694
-0.000223354
0.000205675
-0.000240014
0.000261689
-1.1956e-05
-6.06763e-05
-0.000229572
-0.000220452
-1.86411e-05
0.000240198
0.000247109
5.3175e-05
0.000212448
-0.000265623
-0.000261103
0.000177353
-0.000231757
5.44042e-05
6.4302e-05
0.000137366
0.000259457
-0.000240915
-2.47224e-05
-0.000265385
0.000227165
3.82201e-05
-2.87813e-05
-0.000222158
0.00025094
-0.000284371
0.000264161
0.000234501
3.61761e-05
2.18821e-05
0.000234087
-0.000307217
0.000151089
0.000156129
0.000168568
-5.30832e-05
0.000254045
-0.000115192
2.56901e-05
0.000217446
-0.000243136
-0.000286238
0.000286618
9.24117e-06
0.000257377
-0.000245953
0.000208937
3.70161e-05
0.000254832
0.00024744
-1.89898e-05
-0.000246815
-2.02161e-05
-0.000263019
2.0724e-05
-0.000269215
2.24001e-05
2.79601e-05
0.000220024
-0.000247984
0.000242481
-0.000274597
1.32721e-05
0.000244794
-1.36257e-05
1.34806e-05
-0.000249578
-0.000324631
0.000124134
-0.000233135
-2.62109e-05
-0.000252113
0.000252113
0.000259782
-0.000144217
-1.84219e-05
-0.000278723
0.000297284
0.0002747
0.000258749
-0.000135913
0.000224113
2.39205e-05
0.00023468
7.7743e-05
-0.00033973
3.75277e-05
0.000258962
1.76363e-05
-0.000248843
-3.00917e-05
0.000207453
-3.01001e-05
0.000259701
2.95429e-05
0.000218353
-0.000247896
-3.05014e-05
-4.09782e-05
-0.000217818
0.000258797
-0.000233423
-2.14173e-05
3.71196e-05
-0.000196231
0.000157187
-3.30877e-05
0.000221671
-0.000255943
-0.000282089
-8.36209e-06
0.000290379
-0.000195529
0.000159069
0.000166349
8.16763e-05
1.27493e-05
-0.000294806
0.000235075
2.59446e-05
-0.000261019
-0.000195517
-1.1328e-06
0.000232743
-0.000264287
3.15449e-05
-8.42803e-06
-0.000217029
0.000225457
-0.000160441
0.000195624
-0.000249985
-3.46025e-05
0.000256274
0.000218076
-0.000252679
-0.000246289
0.000272245
-2.59561e-05
0.000253547
2.78321e-05
-0.000232062
-2.95821e-05
-0.000298354
0.000316524
-1.82224e-05
2.33952e-05
0.000212462
-0.000250254
-0.000267233
2.09441e-05
-2.12801e-05
-0.000245953
-3.61481e-05
0.00024861
-0.000290053
-1.34995e-05
0.00022082
-0.000256968
0.00024809
-0.000250158
1.74023e-06
2.80002e-06
0.000181413
-0.000184213
0.000255294
0.000234529
2.67681e-05
-2.62361e-05
0.000245001
-0.000218765
3.36001e-05
0.000216609
-0.000250209
0.000244861
2.73841e-05
0.000306545
-0.000143949
-0.000162597
1.58562e-05
0.000238567
-0.000254779
0.000271013
-0.000113568
0.000225569
-0.000256677
-0.00024112
0.000104985
-0.000265469
7.16803e-06
-0.000241635
-2.75801e-05
-0.000241361
-2.48081e-05
0.000309129
-2.75452e-05
-7.67483e-05
0.000243097
-1.1452e-05
-0.000215601
0.000224281
-8.68003e-06
0.000255193
-7.68883e-05
3.44762e-05
-0.000197594
0.00015932
-0.000265245
-1.40001e-07
-4.14962e-05
3.97297e-05
0.000154808
-0.000194873
0.000193502
-0.000165169
0.000257041
-7.05603e-06
0.000251151
-0.000218277
-1.81702e-05
-2.1128e-05
0.000282252
-9.40307e-05
-0.000180957
-1.42801e-05
-0.000191913
0.000206193
0.000258665
-1.53553e-05
-0.00024331
1.98101e-05
0.000238855
-0.000279558
-8.14934e-06
3.73752e-05
-0.000199572
0.000160241
1.36921e-05
0.000247997
-0.000164381
0.000200874
-1.95189e-05
0.000248711
3.31765e-05
0.000190357
-0.000223195
-4.17202e-06
-2.49389e-05
0.000265108
-0.000231955
-3.14693e-05
0.000296858
-0.00028144
-1.54824e-05
1.63717e-05
-0.000237659
0.000221288
-0.00010514
0.000226885
1.92799e-05
-0.00030513
0.000285855
2.52001e-05
-2.79441e-05
2.69165e-05
0.000308832
-0.000289524
0.000238891
1.97345e-05
2.15601e-06
0.000231617
-0.000233773
-0.000310604
2.56838e-05
0.000284902
-0.000162177
-0.000144145
0.000209178
-0.000250156
-0.000168275
0.000241924
1.90317e-05
0.000257657
-4.13534e-05
0.000250531
0.000214498
-0.000255851
0.000318358
-0.000318425
-1.05466e-05
0.000287328
-0.000276678
-0.000301723
1.92707e-05
0.00028251
4.20842e-05
-0.000286413
-3.98493e-05
0.000252483
2.62921e-05
-2.22065e-05
0.000307197
-0.000285034
2.43321e-05
3.95815e-05
0.000162089
-0.000198138
0.000249294
-0.000219751
2.83277e-05
-0.000261633
4.36802e-06
-1.99916e-05
0.000306653
-0.000286646
-0.000250987
-0.000266673
3.07441e-05
0.000252141
-0.000236741
-1.54001e-05
1.2264e-05
0.000239877
-0.000275898
-1.29817e-05
0.000255697
-5.29928e-06
0.000311889
-1.20479e-05
0.000298892
-0.00028713
-4.6805e-05
0.000247437
-0.000235621
0.000257601
-1.99361e-05
0.000137393
9.29724e-05
-0.000224652
0.000235438
3.03493e-05
0.000226759
-0.000258662
3.71393e-05
0.000271964
-0.000288931
1.68849e-05
0.000251273
-0.000239093
-1.31321e-05
0.000252225
-2.91201e-05
-0.000257265
2.56481e-05
0.000231617
-0.000228005
-2.92601e-05
0.000259765
-0.000233571
-2.61941e-05
0.000258721
-0.000267408
2.52813e-06
0.000287883
1.35929e-06
-0.000288896
0.000247613
-0.000233291
-1.85921e-05
0.000306403
-0.000297174
-9.46505e-06
0.000252923
-0.00010242
-0.000266897
2.56761e-05
0.000241221
-3.48881e-05
-0.000232009
-0.000266393
2.51161e-05
0.000241277
-1.20671e-05
-0.000266639
0.000279697
-3.45241e-05
-0.000231869
-0.000261759
1.9207e-05
-0.000266281
2.43881e-05
0.000241893
-0.000284157
-2.166e-05
-0.000305753
2.74007e-05
0.000278167
-3.34041e-05
-0.000232877
-0.000174031
-0.000258133
2.94001e-05
0.000228733
0.000309361
-0.000309525
-0.000195805
0.000209049
-3.29281e-05
-0.000225205
0.000197825
-0.000279797
8.18463e-05
0.000283361
2.21346e-05
-0.000301953
1.76961e-05
0.000285658
-0.000280964
-4.78559e-06
-0.000257125
0.000231617
2.55081e-05
0.000165061
2.82725e-05
-0.000197544
-0.000266953
2.81681e-05
0.000238785
-0.000227361
-2.97641e-05
-3.67361e-05
-0.000230217
0.000277013
0.000297384
1.90963e-05
-0.000276022
-3.15902e-05
0.000307684
-0.000258679
-1.10995e-05
0.000297466
-0.000286802
1.4984e-05
-0.000301838
0.000286847
-0.000230609
-0.000307406
0.000287408
0.000263005
-2.53901e-05
-0.000280485
1.36081e-05
0.000160776
0.000231594
1.86468e-05
-0.000251283
-0.000194576
0.00015621
0.000236738
1.31517e-05
-0.00024989
-0.00025833
2.66093e-05
0.000231721
-1.09228e-05
0.000247661
5.74002e-06
0.000246877
-3.19817e-05
-0.000226348
0.000299524
-0.000285969
-1.39359e-05
0.000228024
-0.000226666
0.000289466
0.000237685
1.98521e-05
-0.000257537
-1.24236e-05
0.000250108
0.000246636
1.50389e-05
-0.000305507
1.52836e-05
0.00024448
2.18905e-05
3.2689e-05
-0.000202114
-0.00028741
-1.77124e-05
-0.000182869
0.000295177
-0.000148864
0.000180561
-3.32079e-05
3.14084e-05
-0.000203616
0.000173552
-0.00016762
0.000259149
-0.000239236
-1.99137e-05
0.000262064
-0.000273872
-0.000241544
0.000232609
-2.18284e-05
0.000301072
-0.000279282
0.000307869
-0.000292848
0.000242117
1.77241e-05
-0.000224975
0.00024443
-1.94545e-05
1.61001e-05
-0.000241075
-7.00003e-06
0.000260989
-0.000297164
4.89201e-06
0.000292275
-0.000174497
0.000160217
-1.74105e-05
-6.27088e-06
-0.000290864
-1.68108e-05
-0.000285087
4.28402e-06
-0.000299432
0.000133843
-0.000257462
2.37318e-05
0.000233698
0.000238197
1.32441e-05
-3.08084e-05
-0.000226639
-3.30969e-05
-0.000293607
2.10147e-05
-0.000224252
0.000205449
0.000254969
-0.000233465
-2.15041e-05
-0.000194386
0.000217352
-0.000184908
-7.29661e-06
0.000205976
0.000139731
0.000141314
3.88836e-06
0.000269397
0.000279578
-0.000305036
2.82301e-06
0.000243745
-1.98455e-05
0.000298635
-0.000278814
-0.000302435
0.000287412
1.48123e-05
-0.000258301
0.000230077
2.82241e-05
-2.64041e-05
-0.000231897
0.000303194
-0.000301574
0.000267363
-2.0033e-05
0.000304466
-0.000284272
0.000286163
-6.17738e-07
-0.000256873
0.000256873
-0.000267952
0.000295168
-0.000141371
-6.55546e-05
-6.56883e-06
0.00029537
-0.000288261
-0.000297245
0.00029027
0.00029177
-0.000278671
0.000291684
-0.000307297
1.49813e-05
3.42685e-05
-0.00024133
0.000215137
2.35451e-05
-1.45387e-05
-0.000246253
0.00022976
-1.43076e-05
0.000298019
-0.000283821
0.000263481
-1.96001e-05
0.000254224
-0.000235464
-1.87601e-05
-3.09104e-05
-0.000273662
0.000304458
1.44037e-05
-0.000297127
0.00028254
-1.45881e-05
0.000233465
-0.000218877
0.0002037
-0.000295348
0.000283028
-1.93001e-05
0.000304815
-0.000285641
0.00025102
-2.69195e-05
0.000297356
-0.00027037
-0.000295825
0.000268929
1.07156e-05
0.000244749
-0.000255465
0.000305286
-0.000312095
6.81251e-06
1.79261e-05
1.47566e-05
0.000285401
-0.000300369
6.34558e-06
0.000283368
2.33061e-06
-0.000318556
-0.000289128
0.000303351
-0.000242481
0.000243657
8.45603e-06
-0.0002264
0.000242772
-0.000293705
0.000274361
0.00028489
-0.000146061
-8.20038e-05
0.000294365
1.44957e-05
3.19956e-05
-0.000194004
0.000161337
-0.000274764
0.000257293
-0.000219535
0.00024982
0.000243411
1.92865e-05
-0.000262697
0.000236019
2.31309e-05
-0.000301821
0.000283395
0.000312363
-1.79718e-05
0.000237945
-0.000257069
1.91241e-05
-0.000222494
0.000247459
0.000294326
1.80582e-05
-0.000164049
-1.44462e-05
0.000298611
-0.000283574
-0.000143052
-0.000266415
0.000159993
0.000106423
-0.000309001
0.000295328
1.36282e-05
-0.000258699
0.000241826
1.68729e-05
-0.000147802
0.000149581
-0.00030654
0.000288685
1.7842e-05
-0.000220513
0.000182328
-9.69084e-06
0.000253101
2.04843e-05
1.75047e-05
-0.000304342
0.000286729
-0.000300904
-7.17407e-06
0.000307926
-0.000249229
0.000220109
-0.000201153
-8.52603e-05
-0.000270781
0.000247687
0.000303819
-0.000286342
-0.000189772
1.80904e-05
1.50435e-05
0.000284457
-0.000299483
-8.80603e-05
0.000239233
-0.000303615
1.9321e-05
0.000283693
-0.00020539
-2.82939e-06
-0.000298069
-0.000168647
2.05297e-05
0.000302482
-0.000288002
-1.46525e-05
-0.000172353
-0.000298976
-0.000171459
-2.22915e-05
0.000243528
0.000289546
1.71548e-05
0.000252869
5.74398e-05
-0.000286105
-0.000247213
-0.000268825
-2.35492e-05
-0.000274662
0.000300478
-0.000263157
0.000282712
-0.000167556
-4.07733e-05
0.000209531
0.000197569
1.56521e-05
-0.000213221
-1.25069e-05
-0.00028612
0.000298392
1.83597e-05
1.85583e-05
-0.000305308
0.000286559
0.000253345
-1.71361e-05
-0.000236209
1.89512e-05
-0.000304806
0.000285844
2.03561e-05
0.000232989
0.000216385
-2.46121e-05
-0.000191773
1.55961e-05
0.000282434
-0.000298229
-0.000249861
0.000116971
-0.000303637
1.86278e-05
0.000285049
0.000213429
-4.97284e-05
-0.000298186
1.24223e-05
0.000284206
0.000255837
-2.19801e-05
-0.000233857
-0.000301353
0.000105294
0.000234529
1.70521e-05
-0.000251581
0.000279752
1.69461e-05
0.00030417
-0.000285231
1.76886e-05
-0.000299149
0.000233512
1.84916e-05
-0.000252004
-1.87676e-05
-1.42549e-05
0.000298167
-0.000284331
-0.00027961
0.000298903
-0.000278033
0.000293101
-0.000305298
1.18611e-05
0.000249741
-1.62291e-05
1.17161e-05
0.000250041
-1.55121e-05
0.000298526
-0.000282813
3.95922e-05
-0.0002374