/*--------------------------------*- C++ -*----------------------------------*\
  =========                 |
  \\      /  F ield         | OpenFOAM: The Open Source CFD Toolbox
   \\    /   O peration     | Website:  https://openfoam.org
    \\  /    A nd           | Version:  12
     \\/     M anipulation  |
\*---------------------------------------------------------------------------*/
FoamFile
{
    format      ascii;
    class       surfaceScalarField;
    location    "5";
    object      phi;
}
// * * * * * * * * * * * * * * * * * * * * * * * * * * * * * * * * * * * * * //

dimensions      [1 0 -1 0 0 0 0];

internalField   nonuniform List<scalar> 
3510
(
0.0135334
4.27609e-16
0.0135334
7.58942e-16
0.0135334
8.60423e-16
0.0135334
3.30465e-16
0.0135334
1.82146e-17
0.0135334
-5.04805e-16
0.0135334
-8.84709e-17
0.0135334
-2.17708e-16
0.0135334
2.74954e-16
0.0135334
9.63639e-16
0.0135334
-4.34548e-16
0.0135334
-7.19043e-16
0.0135334
-1.83447e-15
0.0135334
-7.77156e-16
0.0135334
1.12757e-17
0.0135334
-4.68375e-17
0.0135334
1.59595e-16
0.0135334
5.20417e-18
0.0135334
-8.40482e-14
0.0135334
-1.45508e-11
0.0135334
-2.17717e-09
0.0135336
-2.12748e-07
0.0135404
-6.78246e-06
0.013734
-0.000173711
0.0152698
-0.00140714
0.0202659
-0.00508604
0.0256949
-0.00557599
0.0297889
-0.00422067
0.0308621
-0.0010129
0.0304509
0.000413464
0.0299771
0.000570682
0.0299851
0.000122959
0.030033
-7.69849e-05
0.0299639
6.31189e-06
0.0298326
1.32881e-05
0.0298194
-5.66826e-05
0.0298847
-8.31881e-05
0.030035
-9.44738e-05
0.0301521
-6.54878e-05
0.0301636
-7.538e-06
0.0301543
5.17874e-06
0.0301153
1.01232e-05
0.0301005
-7.57578e-06
0.0301
-2.30991e-05
0.0300992
-2.54345e-05
0.0301039
-1.04193e-05
0.0301462
7.43109e-06
0.0301665
1.46626e-05
0.0301658
1.18765e-05
0.0301478
7.22941e-06
0.0301114
1.70187e-06
0.0300952
-3.36271e-06
0.030095
-7.7995e-06
0.030104
-9.24188e-06
0.0301271
-7.07051e-06
0.0301651
-2.23472e-06
0.0301811
2.57108e-06
0.0301814
2.80238e-06
0.030181
1.05937e-06
-3.55675e-06
0.0135334
3.19189e-16
0.0135334
9.19403e-16
0.0135334
4.72712e-16
0.0135334
-9.36751e-17
0.0135334
-9.54098e-18
0.0135334
-8.4481e-16
0.0135334
-5.76796e-16
0.0135334
-6.47052e-16
0.0135334
-2.34188e-17
0.0135334
3.13118e-16
0.0135334
-1.23165e-16
0.0135334
-4.96131e-16
0.0135334
-1.52569e-15
0.0135334
-1.01221e-15
0.0135334
-1.01481e-16
0.0135334
-8.41341e-17
0.0135334
-1.3765e-15
0.0135334
-1.60947e-13
0.0135334
-3.10693e-11
0.0135334
-2.76175e-09
0.0135335
-1.93173e-07
0.0135405
-8.171e-06
0.013649
-0.000125306
0.0147307
-0.00123508
0.0177408
-0.00426125
0.0202628
-0.00757801
0.0226457
-0.00808778
0.025407
-0.00694318
0.02803
-0.00363813
0.0292402
-0.000995325
0.0297265
0.000296945
0.0302807
-9.73937e-05
0.0303573
-0.000126648
0.0301646
0.00011622
0.030014
4.76675e-05
0.0299366
-3.53639e-05
0.029936
-0.000100673
0.0300235
-0.000128287
0.0301726
-0.000107466
0.0301973
-2.28673e-05
0.0301946
1.04613e-05
0.0301591
1.29852e-05
0.0301196
-1.70459e-05
0.0301148
-4.79048e-05
0.0301146
-4.53478e-05
0.0301186
-1.30889e-05
0.0301555
2.41826e-05
0.0301757
3.03523e-05
0.0301759
2.22629e-05
0.0301627
9.99909e-06
0.0301283
1.0614e-07
0.0301
-4.70836e-06
0.0300983
-1.17733e-05
0.0301066
-1.52671e-05
0.0301304
-1.4306e-05
0.030165
-5.64084e-06
0.0301758
8.41609e-07
0.0301759
2.01496e-06
0.0301745
4.4187e-07
-6.19636e-06
0.0135334
-4.94396e-17
0.0135334
5.60316e-16
0.0135334
2.71484e-16
0.0135334
1.24033e-16
0.0135334
2.96638e-16
0.0135334
-2.6628e-16
0.0135334
-6.29705e-16
0.0135334
-8.27463e-16
0.0135334
-3.23526e-16
0.0135334
-3.90313e-16
0.0135334
1.22298e-16
0.0135334
-4.62304e-16
0.0135334
-6.66134e-16
0.0135334
-3.51282e-16
0.0135334
-3.53884e-16
0.0135334
-1.67054e-15
0.0135334
-1.87603e-13
0.0135334
-2.02353e-11
0.0135334
-2.54079e-09
0.0135335
-1.56788e-07
0.0135392
-6.33038e-06
0.0136534
-0.000135316
0.0144642
-0.00102542
0.017189
-0.00388994
0.0197666
-0.00690629
0.0203387
-0.00818334
0.0206725
-0.00847934
0.0220119
-0.00828591
0.0255861
-0.00720145
0.0290273
-0.00449933
0.0302023
-0.000734485
0.0305784
-0.000297915
0.0304994
5.53002e-05
0.0303241
0.000249667
0.0302167
5.94166e-05
0.0300231
2.55561e-05
0.0300028
-6.77253e-05
0.0300638
-0.000123988
0.030197
-0.00013521
0.030246
-4.46128e-05
0.0302462
9.9772e-06
0.0302182
2.83148e-05
0.0301508
-3.51977e-06
0.0301263
-5.33883e-05
0.0301258
-4.72304e-05
0.030135
-7.90011e-06
0.0301713
3.89167e-05
0.0301883
4.31208e-05
0.0301877
3.2697e-05
0.0301773
1.60633e-05
0.0301429
4.99585e-06
0.0301044
-4.56116e-06
0.0300998
-1.3438e-05
0.0301063
-2.00813e-05
0.0301316
-2.32118e-05
0.0301669
-1.22416e-05
0.0301749
-5.84298e-06
0.0301749
-5.5563e-06
0.0301706
-7.11592e-06
-9.31297e-06
0.0135334
-1.81279e-16
0.0135334
9.19403e-17
0.0135334
1.98626e-16
0.0135334
6.53991e-16
0.0135334
4.18936e-16
0.0135334
1.81279e-16
0.0135334
-5.81132e-16
0.0135334
-6.81746e-16
0.0135334
-5.97612e-16
0.0135334
-3.65159e-16
0.0135334
2.67147e-16
0.0135334
-1.21431e-16
0.0135334
-2.44596e-16
0.0135334
6.50521e-17
0.0135334
-6.78277e-16
0.0135334
-6.44892e-14
0.0135334
-8.32294e-12
0.0135334
-8.0386e-10
0.0135335
-7.50123e-08
0.0135371
-3.48841e-06
0.0136257
-8.98458e-05
0.0144545
-0.00101869
0.0168557
-0.00363401
0.0199523
-0.00661147
0.0204061
-0.00771281
0.0201645
-0.00825977
0.0201699
-0.00850582
0.020522
-0.00848263
0.0217739
-0.00821846
0.0248557
-0.00739089
0.0284869
-0.00451507
0.0299557
-0.00173838
0.0299738
7.06906e-05
0.0302032
-6.20592e-05
0.0302483
-0.000127063
0.0300858
7.81993e-05
0.0300175
-9.43699e-06
0.0300687
-0.000129028
0.0301849
-0.000149961
0.0302538
-7.8418e-05
0.0302523
4.16186e-06
0.0302346
3.0022e-05
0.030165
8.62608e-06
0.0301209
-2.88368e-05
0.0301187
-2.26034e-05
0.030126
6.42894e-06
0.0301621
4.33558e-05
0.0301894
5.05591e-05
0.030192
3.74447e-05
0.0301843
2.20784e-05
0.0301472
9.19328e-06
0.0301029
-4.14282e-06
0.0300975
-1.62674e-05
0.0301033
-2.35565e-05
0.0301285
-2.83423e-05
0.0301591
-1.93425e-05
0.0301626
-1.60321e-05
0.0301614
-1.62554e-05
0.0301544
-1.58723e-05
-1.15771e-05
0.0135334
-2.23779e-16
0.0135334
-9.1073e-17
0.0135334
-4.42354e-17
0.0135334
4.67508e-16
0.0135334
2.42861e-17
0.0135334
-5.16948e-16
0.0135334
-6.34909e-16
0.0135334
-5.58581e-16
0.0135334
-6.05418e-16
0.0135334
-2.94036e-16
0.0135334
2.44596e-16
0.0135334
9.14199e-16
0.0135334
5.82e-16
0.0135334
5.16948e-16
0.0135334
-7.4515e-15
0.0135334
-1.24956e-12
0.0135334
-2.14294e-10
0.0135334
-2.15978e-08
0.0135351
-1.45571e-06
0.0135812
-4.2924e-05
0.0142267
-0.000646896
0.016724
-0.00359336
0.0195627
-0.00656783
0.0205704
-0.00756575
0.0204479
-0.00777658
0.0203196
-0.00809964
0.0204126
-0.00835692
0.020622
-0.00846293
0.0209325
-0.00836378
0.0216989
-0.00812719
0.0244836
-0.00755465
0.0279216
-0.00549455
0.0295986
-0.00172427
0.0302783
-0.000827799
0.0301228
-0.000111723
0.0300202
7.99793e-05
0.0300408
-1.56533e-05
0.0300579
-6.38053e-05
0.0301083
-7.63626e-05
0.0302098
-9.62665e-05
0.0302292
-2.45811e-05
0.0302095
1.50943e-05
0.03012
1.72969e-05
0.0300706
4.12892e-07
0.0300695
1.63068e-06
0.0300864
1.37358e-05
0.0301427
3.37524e-05
0.0301673
3.9694e-05
0.0301673
3.40481e-05
0.0301574
2.46153e-05
0.0301183
1.48376e-05
0.0300764
-5.06811e-07
0.0300713
-1.24213e-05
0.0300738
-1.81598e-05
0.0300991
-2.33067e-05
0.0301294
-2.01047e-05
0.0301332
-1.85072e-05
0.0301331
-1.88725e-05
0.0301262
-1.88594e-05
-1.19152e-05
0.0135334
-1.22298e-16
0.0135334
-7.11237e-17
0.0135334
-7.45931e-17
0.0135334
-1.16226e-16
0.0135334
-2.50668e-16
0.0135334
-6.87818e-16
0.0135334
-7.02563e-16
0.0135334
-4.52763e-16
0.0135334
-4.96131e-16
0.0135334
-1.96024e-16
0.0135334
1.23165e-16
0.0135334
7.71952e-16
0.0135334
1.10589e-15
0.0135334
-1.93769e-15
0.0135334
-1.81361e-13
0.0135334
-4.9538e-11
0.0135334
-8.33512e-09
0.0135341
-6.49036e-07
0.0135597
-2.62692e-05
0.0139073
-0.000349109
0.0161457
-0.00258854
0.0190458
-0.00661752
0.0206358
-0.00804006
0.020893
-0.00782014
0.0208353
-0.0077632
0.0206085
-0.00782377
0.020602
-0.00819931
0.0206871
-0.0083667
0.0207672
-0.00837138
0.020832
-0.00826441
0.021307
-0.00814807
0.02346
-0.00781828
0.0273672
-0.00578427
0.0292773
-0.0027932
0.0293893
-0.00030933
0.0298375
-0.000413084
0.0300188
-0.000129067
0.0299845
9.68354e-05
0.0300223
2.29427e-05
0.0301058
-0.000101123
0.0301334
-7.0358e-05
0.0301237
-2.53151e-05
0.030036
9.49492e-06
0.0299863
1.65545e-05
0.0299855
1.1859e-05
0.0300077
1.00937e-05
0.0300829
2.29507e-05
0.0301081
2.92742e-05
0.0301082
2.69062e-05
0.0300962
2.22847e-05
0.0300501
1.22573e-05
0.0300101
-1.37403e-07
0.0300068
-6.33596e-06
0.0300085
-1.02019e-05
0.0300359
-1.65062e-05
0.0300713
-1.7526e-05
0.0300767
-1.54915e-05
0.0300767
-1.46109e-05
0.0300677
-1.46091e-05
-9.57646e-06
0.0135334
8.67362e-17
0.0135334
-2.27249e-16
0.0135334
-1.17094e-16
0.0135334
-2.75821e-16
0.0135334
8.23994e-17
0.0135334
-3.1225e-16
0.0135334
-9.02056e-17
0.0135334
7.97973e-17
0.0135334
1.37911e-16
0.0135334
-7.02563e-17
0.0135334
-7.97973e-17
0.0135334
-9.20271e-16
0.0135334
-1.28456e-15
0.0135334
-4.38011e-13
0.0135334
-6.0422e-11
0.0135334
-6.37021e-09
0.0135338
-4.89548e-07
0.0135497
-1.78664e-05
0.0138182
-0.000320583
0.0153643
-0.0018319
0.018649
-0.00562576
0.0203308
-0.00835587
0.0208314
-0.00839252
0.0209152
-0.00801667
0.0208407
-0.00779203
0.0206355
-0.00779447
0.0205167
-0.00807046
0.0205866
-0.00826544
0.0206757
-0.00836411
0.0207708
-0.008303
0.0208106
-0.00819514
0.0210967
-0.00814721
0.0231412
-0.00786959
0.0265994
-0.00631156
0.0288596
-0.00260866
0.0298973
-0.00139204
0.0299133
-4.3937e-05
0.0298622
0.000232097
0.0300119
-1.68885e-05
0.0300293
-9.54184e-05
0.030024
-9.40321e-05
0.029997
-6.10138e-05
0.0299231
-3.40724e-06
0.0298875
2.0374e-05
0.0298871
9.28667e-06
0.0299153
-3.94372e-06
0.0299943
1.5079e-05
0.0300223
2.88117e-05
0.0300226
2.46332e-05
0.0300156
1.61416e-05
0.0299661
3.26375e-06
0.0299326
-1.20609e-06
0.0299308
-1.78624e-06
0.0299326
-5.36067e-06
0.0299621
-1.28409e-05
0.0300022
-1.42134e-05
0.0300056
-1.09815e-05
0.0300025
-9.04754e-06
0.0299857
-1.00046e-05
-1.00349e-05
0.0135334
-3.46945e-17
0.0135334
-3.38271e-16
0.0135334
-4.96131e-16
0.0135334
-4.17201e-16
0.0135334
1.64799e-16
0.0135334
6.245e-17
0.0135334
6.32307e-16
0.0135334
8.73433e-16
0.0135334
1.07813e-15
0.0135334
5.01335e-16
0.0135334
-1.95156e-16
0.0135334
-4.67508e-15
0.0135334
-6.97489e-13
0.0135334
-1.09183e-10
0.0135334
-9.51501e-09
0.0135338
-5.27427e-07
0.0135475
-1.71749e-05
0.0137725
-0.000273468
0.0151704
-0.00186098
0.0183829
-0.00500643
0.0198854
-0.00732712
0.0202046
-0.00864232
0.0205598
-0.00862941
0.0207571
-0.00822993
0.0207566
-0.00789887
0.0206542
-0.00782197
0.0205137
-0.00797571
0.0205446
-0.00818046
0.0206402
-0.00832397
0.0207541
-0.00830654
0.0207911
-0.00821724
0.0207781
-0.00817907
0.0210377
-0.00814966
0.0226858
-0.00796669
0.0265272
-0.00643933
0.0287629
-0.00347146
0.0293509
-0.000500292
0.0299432
-0.00026922
0.0300564
-5.45058e-05
0.0300016
-4.08308e-05
0.029928
-9.0524e-05
0.0298724
-9.74584e-05
0.0297978
-2.09695e-07
0.0297837
8.85131e-06
0.029797
-1.66743e-05
0.0298504
-2.58684e-05
0.0299309
1.38385e-05
0.0299516
2.83981e-05
0.0299519
1.92819e-05
0.0299429
1.81981e-06
0.0298925
-1.17222e-05
0.0298722
-4.37789e-06
0.0298714
-6.79892e-07
0.0298743
-3.25826e-06
0.0299131
-8.01017e-06
0.0299455
-7.83571e-06
0.0299461
-5.06729e-06
0.0299407
-3.11987e-06
0.0299172
-9.46635e-06
-1.59568e-05
0.0135334
-7.97973e-17
0.0135334
-4.11129e-16
0.0135334
-5.96745e-16
0.0135334
-3.63425e-16
0.0135334
5.29091e-17
0.0135334
3.65159e-16
0.0135334
1.02262e-15
0.0135334
1.47018e-15
0.0135334
1.76768e-15
0.0135334
7.75421e-16
0.0135334
-1.31232e-15
0.0135334
-3.68682e-13
0.0135334
-5.57832e-11
0.0135334
-6.12981e-09
0.0135338
-3.9037e-07
0.0135463
-1.4277e-05
0.0137536
-0.000241963
0.0151025
-0.00181658
0.0179183
-0.00487705
0.020183
-0.0071982
0.0203413
-0.00774512
0.0204342
-0.00848864
0.0206325
-0.00866572
0.0208254
-0.00842344
0.0207867
-0.00806633
0.0206745
-0.00785955
0.0205628
-0.00793247
0.0205549
-0.00809836
0.0206402
-0.00824881
0.0207235
-0.00829287
0.0207805
-0.00825058
0.0207747
-0.00820484
0.0207533
-0.00818369
0.020915
-0.00816629
0.0224787
-0.0079929
0.0258683
-0.00677479
0.0287894
-0.00335359
0.0299982
-0.00136623
0.0299692
2.72087e-05
0.0299105
-1.47436e-06
0.0298803
-0.000161034
0.0297757
-0.000122523
0.0296955
1.60035e-05
0.0296954
-1.64845e-05
0.0297383
-7.43911e-05
0.0298263
-4.09242e-05
0.0299071
9.40601e-06
0.0299182
2.13568e-05
0.0299183
8.96664e-06
0.0299044
-1.13774e-05
0.0298567
-2.05352e-05
0.0298454
-8.95461e-06
0.0298453
-3.9216e-06
0.0298582
1.2587e-06
0.0299087
-2.36831e-06
0.0299254
7.50017e-07
0.0299223
2.4042e-06
0.0299042
1.37243e-06
0.0298644
-1.74478e-05
-3.14539e-05
0.0135334
9.97466e-17
0.0135334
-2.85362e-16
0.0135334
-3.29597e-17
0.0135334
-2.94903e-17
0.0135334
-2.0383e-16
0.0135334
3.69496e-16
0.0135334
7.95371e-16
0.0135334
1.1614e-15
0.0135334
1.93682e-15
0.0135334
1.25681e-15
0.0135334
-4.5886e-14
0.0135334
-1.15891e-11
0.0135334
-1.56509e-09
0.0135336
-1.38188e-07
0.0135407
-6.21516e-06
0.013693
-0.000151024
0.0149671
-0.00145536
0.0178164
-0.00504568
0.0202478
-0.00720936
0.0209095
-0.0077363
0.0207271
-0.00779544
0.0205493
-0.00837047
0.020593
-0.00860357
0.0207702
-0.00854985
0.0207826
-0.00822652
0.0206887
-0.00798897
0.020638
-0.00797185
0.0205908
-0.00805502
0.0206478
-0.0081853
0.0207002
-0.00826825
0.0207547
-0.00826155
0.0207651
-0.00824108
0.0207377
-0.00820988
0.0207145
-0.00818193
0.0208552
-0.00815902
0.0221204
-0.00804301
0.0256678
-0.00693819
0.02854
-0.00413271
0.0293795
-0.000765334
0.0298478
-0.000493733
0.029922
-0.000351655
0.029675
-2.51936e-05
0.0296246
2.2939e-05
0.0296726
-6.58932e-05
0.0297494
-8.64283e-05
0.0298486
-5.41027e-05
0.0299144
-8.78873e-07
0.0299187
1.32951e-05
0.0299143
8.46036e-06
0.0298919
-1.21055e-05
0.0298431
-2.19237e-05
0.029835
-1.3357e-05
0.0298356
-8.45645e-06
0.0298631
-1.37905e-06
0.0299142
5.45259e-06
0.0299263
1.10683e-05
0.0299216
1.07526e-05
0.0298945
1.87818e-06
0.0298394
-2.05301e-05
-3.52929e-05
0.0135334
3.37404e-16
0.0135334
-7.97973e-17
0.0135334
1.51788e-16
0.0135334
1.31839e-16
0.0135334
-1.82146e-17
0.0135334
2.71484e-16
0.0135334
4.85723e-16
0.0135334
8.63892e-16
0.0135334
1.18915e-15
0.0135334
-1.44763e-15
0.0135334
-9.9874e-13
0.0135334
-2.69575e-10
0.0135334
-3.41792e-08
0.0135362
-2.31087e-06
0.0136093
-6.47493e-05
0.0144663
-0.000835773
0.0175332
-0.00424859
0.0200175
-0.0076843
0.0208367
-0.00792228
0.0208552
-0.00780299
0.0206822
-0.00783996
0.020496
-0.00823229
0.0205608
-0.00854706
0.0206941
-0.00855632
0.0208
-0.00832679
0.0207329
-0.00808187
0.0206961
-0.00800962
0.0206515
-0.00806688
0.0206519
-0.00813195
0.0206685
-0.00823384
0.0206796
-0.0082587
0.0207152
-0.00825518
0.0207225
-0.00823346
0.020701
-0.0081909
0.0206825
-0.00815945
0.0207719
-0.00815043
0.0218694
-0.00806777
0.0249654
-0.00724699
0.0284752
-0.00432804
0.0298311
-0.00191111
0.0298108
-0.000440222
0.0295244
0.000149248
0.0296457
-0.000133126
0.0297373
-0.000123092
0.0297906
-5.36076e-05
0.029888
-4.1348e-05
0.0299338
-2.19911e-06
0.0299345
1.32194e-05
0.0299266
1.29083e-05
0.0298906
-1.94855e-06
0.02985
-1.80472e-05
0.0298464
-1.64607e-05
0.0298542
-1.43819e-05
0.0298925
-1.79906e-06
0.0299351
1.7555e-05
0.0299381
2.09642e-05
0.0299281
1.70997e-05
0.0298953
2.44705e-06
0.0298393
-2.23824e-05
-3.55983e-05
0.0135334
1.69136e-16
0.0135334
2.48933e-16
0.0135334
2.37657e-16
0.0135334
1.96891e-16
0.0135334
1.77809e-16
0.0135334
-3.98986e-17
0.0135334
3.59955e-16
0.0135334
1.04604e-15
0.0135334
-1.42594e-15
0.0135334
-4.96262e-13
0.0135334
-1.00403e-10
0.0135334
-1.45064e-08
0.0135344
-1.00446e-06
0.0135723
-3.80608e-05
0.0140432
-0.000498597
0.016601
-0.00291615
0.0193615
-0.0070055
0.0204611
-0.00858781
0.0209261
-0.00813633
0.0209463
-0.0078388
0.0208011
-0.00776472
0.0206142
-0.0079513
0.0206444
-0.0083657
0.0206528
-0.00844601
0.0207453
-0.00836194
0.0207292
-0.00818257
0.0207232
-0.00805883
0.0207204
-0.00807562
0.0206798
-0.0081195
0.0206452
-0.0081721
0.0206376
-0.00824079
0.0206372
-0.00824012
0.0206731
-0.00823348
0.0206742
-0.00820224
0.0206558
-0.00815516
0.0206477
-0.00814876
0.0207253
-0.00815178
0.0215818
-0.00810436
0.0245998
-0.00741799
0.0277894
-0.0051166
0.0290867
-0.00188815
0.0294671
-0.00032637
0.0298495
-0.000480817
0.0298501
-2.44987e-05
0.0298347
9.80945e-05
0.0299367
-3.18599e-05
0.0299668
-1.67191e-05
0.0299668
1.50193e-06
0.0299505
4.69473e-07
0.0298928
-8.52395e-06
0.0298719
-2.21137e-05
0.0298719
-2.77753e-05
0.0298899
-2.58969e-05
0.0299348
3.27165e-06
0.0299575
3.14687e-05
0.0299577
2.97719e-05
0.0299457
1.9501e-05
0.0299022
1.68229e-06
0.0298556
-2.59079e-05
-3.41654e-05
0.0135334
-1.96891e-16
0.0135334
1.43115e-16
0.0135334
-7.28584e-17
0.0135334
2.88831e-16
0.0135334
8.41341e-17
0.0135334
-7.71952e-17
0.0135334
-2.498e-16
0.0135334
-1.07293e-15
0.0135334
-6.53086e-13
0.0135334
-1.54979e-10
0.0135334
-1.68957e-08
0.0135342
-1.06802e-06
0.0135584
-2.94741e-05
0.0139226
-0.00043527
0.0158068
-0.00236388
0.0189369
-0.00592866
0.02023
-0.00835534
0.020716
-0.00877668
0.0209612
-0.00827043
0.0209448
-0.00788296
0.0208645
-0.0077524
0.0206889
-0.00787003
0.0206252
-0.00821098
0.0206295
-0.00839597
0.0206423
-0.00834865
0.0206741
-0.00826111
0.0207165
-0.00813454
0.0207236
-0.00809527
0.0207151
-0.00811678
0.0206597
-0.00814276
0.0206238
-0.00818257
0.0206184
-0.0082246
0.0206294
-0.00822108
0.0206401
-0.00820967
0.0206406
-0.00816839
0.0206415
-0.00814644
0.0206434
-0.00815301
0.0207016
-0.00817108
0.0213995
-0.00813756
0.0239204
-0.00765582
0.027694
-0.00560934
0.0295991
-0.00225616
0.0298558
-0.000679471
0.0297486
0.000197307
0.0298873
7.18114e-05
0.0300162
-8.18969e-05
0.0300176
-3.91136e-05
0.0300024
-2.0825e-05
0.0299767
-2.90711e-05
0.0299251
-3.31571e-05
0.0299138
-4.13306e-05
0.0299187
-5.43447e-05
0.0299321
-3.74028e-05
0.0299712
1.15218e-05
0.0299838
3.83985e-05
0.0299842
3.30487e-05
0.0299769
1.56858e-05
0.029928
-6.25782e-06
0.0298874
-2.73373e-05
-3.24889e-05
0.0135334
-1.65666e-16
0.0135334
-1.56125e-17
0.0135334
-1.61329e-16
0.0135334
2.48933e-16
0.0135334
2.61076e-16
0.0135334
4.56232e-16
0.0135334
-1.39559e-15
0.0135334
-2.73951e-13
0.0135334
-8.75351e-11
0.0135334
-1.34954e-08
0.0135342
-9.56806e-07
0.0135604
-3.28249e-05
0.0138979
-0.000439763
0.0155472
-0.0023763
0.019002
-0.00555421
0.0200997
-0.0075559
0.0202075
-0.00861029
0.0205163
-0.00880197
0.0208464
-0.0085778
0.0208218
-0.00808895
0.0207883
-0.00783471
0.0207584
-0.00787548
0.02066
-0.00807981
0.0206112
-0.00831278
0.0205946
-0.00834191
0.0205988
-0.00825966
0.0206429
-0.00821055
0.0206828
-0.00811469
0.0206977
-0.00809327
0.0206889
-0.00812537
0.0206413
-0.0081414
0.0206127
-0.00818869
0.0206108
-0.00821138
0.0206167
-0.00821131
0.0206258
-0.00819024
0.0206374
-0.00815496
0.0206509
-0.0081565
0.0206642
-0.00818146
0.0207079
-0.00818915
0.0212166
-0.0081737
0.0234792
-0.0078097
0.0271315
-0.00579999
0.0291003
-0.00258275
0.0295178
-0.00018825
0.030052
-0.000493447
0.0300924
-0.000106035
0.0300406
-1.90274e-05
0.030013
-3.43093e-05
0.0299814
-4.89945e-05
0.0299537
-4.26413e-05
0.0299549
-6.10165e-05
0.0299624
-7.85961e-05
0.0299728
-4.10721e-05
0.0300026
1.58879e-05
0.0300088
3.22248e-05
0.0300106
2.53986e-05
0.0300031
6.85877e-06
0.0299616
-1.19237e-05
0.0299401
-2.89522e-05
-3.21963e-05
0.0135334
-1.18829e-16
0.0135334
-1.13624e-16
0.0135334
-1.58727e-16
0.0135334
2.94903e-17
0.0135334
5.34295e-16
0.0135334
9.75782e-16
0.0135334
-4.17175e-14
0.0135334
-2.08667e-11
0.0135334
-4.39214e-09
0.0135338
-4.14117e-07
0.0135523
-1.84713e-05
0.0138806
-0.000363084
0.0156726
-0.00253189
0.0184779
-0.00570137
0.0206517
-0.00735647
0.0206382
-0.0079199
0.0203182
-0.00849755
0.020322
-0.00876688
0.020671
-0.00862638
0.0207581
-0.00824781
0.0207346
-0.00789042
0.0207623
-0.00787317
0.0207425
-0.00802943
0.020661
-0.00817839
0.0205897
-0.00827624
0.0205593
-0.00825913
0.0205719
-0.00821929
0.0206081
-0.00815435
0.0206447
-0.00809435
0.0206618
-0.00810505
0.0206599
-0.00813697
0.02062
-0.00816082
0.0206057
-0.00820408
0.0206056
-0.00821325
0.0206154
-0.00820795
0.0206419
-0.00819022
0.0206718
-0.00818432
0.0206906
-0.00819857
0.0207095
-0.00820768
0.0207373
-0.00820317
0.02113
-0.00819638
0.0232714
-0.00789553
0.0269691
-0.00625893
0.0295676
-0.00275514
0.0301113
-0.000994789
0.030014
-6.57559e-06
0.0299916
-2.63487e-06
0.0300122
-0.000101072
0.0299717
-6.15722e-05
0.0299526
-4.7589e-05
0.0299719
-8.27201e-05
0.0299807
-8.01041e-05
0.0300053
-2.89058e-05
0.0300317
1.49047e-05
0.0300347
2.09661e-05
0.030032
1.86192e-05
0.0300112
5.62515e-06
0.0299852
-1.39241e-05
0.0299819
-2.26975e-05
-2.50843e-05
0.0135334
-1.04951e-16
0.0135334
-1.32706e-16
0.0135334
-1.45717e-16
0.0135334
4.0766e-17
0.0135334
5.04805e-16
0.0135334
-4.50161e-15
0.0135334
-3.62601e-12
0.0135334
-9.86785e-10
0.0135335
-1.31069e-07
0.0135415
-7.1275e-06
0.0137231
-0.00016878
0.0153979
-0.00183647
0.0185339
-0.00611379
0.0204811
-0.00766265
0.0211182
-0.00784086
0.0210697
-0.0079222
0.0206342
-0.0082297
0.0204531
-0.00857381
0.0205279
-0.00848055
0.0205894
-0.00830007
0.0206402
-0.00798969
0.0207002
-0.00790286
0.0207523
-0.00799216
0.0207154
-0.00812355
0.0206373
-0.008196
0.0205591
-0.0082355
0.0205563
-0.00821965
0.0205758
-0.0081815
0.0206069
-0.0081237
0.0206488
-0.00811453
0.0206604
-0.00814459
0.020641
-0.00816729
0.0206189
-0.00819582
0.0206257
-0.00820955
0.020643
-0.00821393
0.0206702
-0.00821153
0.0206985
-0.00821334
0.020716
-0.00821949
0.0207287
-0.0082179
0.020744
-0.00821582
0.0207632
-0.00821484
0.0210739
-0.00820879
0.0228006
-0.00801079
0.0265045
-0.00651207
0.028986
-0.00343288
0.0294512
-0.000497689
0.0299491
-0.000545391
0.0300329
-0.000274081
0.0299379
-2.798e-05
0.0299378
-6.08824e-05
0.0299652
-9.77218e-05
0.0299893
-5.93577e-05
0.0300393
-5.75153e-06
0.0300648
1.46329e-05
0.030065
2.02823e-05
0.0300477
2.67095e-05
0.0300169
9.43313e-06
0.0300117
-4.03721e-06
0.0300156
-1.33313e-05
-1.08445e-05
0.0135334
7.71952e-17
0.0135334
2.61943e-16
0.0135334
2.25514e-17
0.0135334
-9.1073e-17
0.0135334
-2.79204e-15
0.0135334
-1.18082e-12
0.0135334
-3.37364e-10
0.0135334
-4.61218e-08
0.0135367
-3.08641e-06
0.0136268
-8.85077e-05
0.0145893
-0.000957787
0.0180097
-0.00487381
0.0202404
-0.00847171
0.0210948
-0.00832037
0.0211632
-0.00795095
0.021089
-0.00791019
0.0207769
-0.00811066
0.0204754
-0.00839747
0.0204522
-0.00843333
0.0204817
-0.0082996
0.0205442
-0.00813689
0.0206225
-0.00798983
0.0206993
-0.00800327
0.0206944
-0.00809476
0.0206515
-0.00814494
0.0205819
-0.00819934
0.0205635
-0.00822755
0.0205698
-0.00822307
0.0205956
-0.00818065
0.0206476
-0.00814598
0.0206851
-0.00816554
0.0206876
-0.0081938
0.0206706
-0.00820677
0.0206683
-0.00821319
0.0206759
-0.00821631
0.020697
-0.00822203
0.0207281
-0.00822559
0.0207539
-0.00822611
0.0207589
-0.0082253
0.0207591
-0.00822057
0.0207623
-0.00822131
0.020775
-0.00822851
0.0209739
-0.00822435
0.022491
-0.00807058
0.025956
-0.00694673
0.0290295
-0.00364017
0.0299839
-0.00155344
0.0299137
-0.000286852
0.0298623
-1.89879e-05
0.0299699
-0.000174509
0.0299831
-7.71714e-05
0.0300022
1.21966e-05
0.0300774
4.03984e-06
0.0300976
3.66974e-06
0.0300906
2.63814e-05
0.030051
4.02126e-05
0.0300315
1.03504e-05
0.0300348
-9.11327e-06
0.0300451
-1.787e-05
-1.03598e-06
0.0135334
1.86483e-16
0.0135334
4.996e-16
0.0135334
1.55258e-16
0.0135334
-3.26041e-15
0.0135334
-8.05922e-13
0.0135334
-2.11182e-10
0.0135334
-2.95578e-08
0.0135351
-1.88539e-06
0.0135893
-5.84204e-05
0.0141876
-0.00067825
0.0170886
-0.00341681
0.0197087
-0.00754797
0.0203528
-0.00900758
0.0209347
-0.0087376
0.0210727
-0.00809973
0.0209848
-0.00788746
0.0208201
-0.00798664
0.0206027
-0.00818016
0.0204583
-0.00829841
0.0204538
-0.00829551
0.0205083
-0.00822831
0.0205724
-0.00811079
0.0206544
-0.00804662
0.0206714
-0.0080925
0.0206572
-0.00814254
0.0206025
-0.00817752
0.0205954
-0.00822156
0.0206037
-0.00822936
0.0206276
-0.00820954
0.0206742
-0.00818412
0.0207138
-0.00819183
0.02072
-0.00821161
0.0207191
-0.00821531
0.0207222
-0.00821591
0.0207282
-0.00821772
0.0207392
-0.00822623
0.0207542
-0.00822949
0.0207661
-0.00822848
0.0207674
-0.00822842
0.0207627
-0.00822623
0.0207607
-0.00822663
0.0207605
-0.00822897
0.0207686
-0.00822981
0.0209306
-0.00822784
0.0221093
-0.00812678
0.0255658
-0.00711986
0.0284475
-0.00441213
0.0293525
-0.00122453
0.0299194
-0.000643773
0.0300925
-0.000319676
0.030033
4.72686e-05
0.0300321
8.71583e-05
0.0301155
-3.13613e-05
0.0301289
-2.91689e-05
0.0300984
2.6294e-05
0.0300533
3.23959e-05
0.0300428
-9.14359e-06
0.0300559
-3.80771e-05
0.0300653
-3.31904e-05
-1.1943e-06
0.0135334
2.27249e-16
0.0135334
2.61076e-16
0.0135334
-2.54137e-16
0.0135334
-2.19102e-13
0.0135334
-9.53387e-11
0.0135334
-1.68826e-08
0.0135346
-1.41644e-06
0.0135744
-4.62753e-05
0.0140898
-0.000643646
0.0161778
-0.00279842
0.0196111
-0.00647556
0.0203211
-0.00850023
0.0204906
-0.00899605
0.0208657
-0.00879547
0.0210019
-0.00825859
0.0208661
-0.00791551
0.020851
-0.00789083
0.0207487
-0.00804686
0.0205355
-0.00815407
0.0204977
-0.00825343
0.0205209
-0.00824249
0.0205839
-0.00818637
0.0206227
-0.00811374
0.0206588
-0.00811742
0.0206656
-0.00816103
0.0206378
-0.00818817
0.020626
-0.00821414
0.0206398
-0.00822215
0.0206565
-0.00821809
0.0206969
-0.00820892
0.0207503
-0.00821252
0.0207594
-0.00822189
0.0207591
-0.00822101
0.0207588
-0.00822115
0.0207552
-0.00822264
0.0207547
-0.00822775
0.0207563
-0.0082312
0.0207617
-0.00823199
0.0207656
-0.00823175
0.020766
-0.00822979
0.0207661
-0.00822879
0.0207662
-0.00822907
0.0207691
-0.00822946
0.0207781
-0.00823202
0.020886
-0.00823049
0.0219283
-0.00814838
0.0249276
-0.00739148
0.0285515
-0.00479143
0.0299448
-0.00203166
0.0300174
-0.000351858
0.0299113
0.000236908
0.0300974
-5.49884e-05
0.0301635
-8.22209e-05
0.0301553
-4.66192e-05
0.0301024
-1.67193e-06
0.0300762
-1.74707e-05
0.0300751
-4.26401e-05
0.0300769
-5.81279e-05
0.0300808
-3.99135e-05
-3.1318e-06
0.0135334
2.02963e-16
0.0135334
2.23779e-16
0.0135334
-2.85006e-14
0.0135334
-2.06507e-11
0.0135334
-5.90633e-09
0.013534
-6.15382e-07
0.0135621
-3.01904e-05
0.0140287
-0.000544435
0.0160746
-0.00311933
0.019228
-0.00585175
0.0208354
-0.00788845
0.0206338
-0.00861903
0.0205553
-0.00888187
0.0206582
-0.00871028
0.020772
-0.00830477
0.0206903
-0.00796251
0.0206911
-0.0079282
0.0206563
-0.00801355
0.0205442
-0.00811672
0.0205305
-0.00820132
0.0205304
-0.00822795
0.0205454
-0.00820912
0.0205924
-0.00815983
0.0206651
-0.00814509
0.0207029
-0.00818142
0.0207042
-0.00821473
0.0206948
-0.0082258
0.0207005
-0.00822701
0.0207165
-0.00822742
0.0207467
-0.00822816
0.020768
-0.00822582
0.0207702
-0.00822721
0.0207651
-0.00822767
0.0207621
-0.00822621
0.0207618
-0.00822641
0.0207613
-0.00822851
0.020762
-0.00823102
0.0207654
-0.00823205
0.02077
-0.0082309
0.0207711
-0.00822898
0.0207708
-0.00822765
0.0207708
-0.00822758
0.020771
-0.00822904
0.0207715
-0.00823158
0.0207755
-0.00823388
0.0208629
-0.0082338
0.0216523
-0.00817987
0.0244675
-0.00757468
0.027778
-0.00529095
0.0294047
-0.0019328
0.0299275
-0.000209536
0.0302534
-0.000399467
0.03023
-6.61478e-05
0.0301622
-2.86073e-05
0.0301264
-2.83678e-05
0.0301071
-5.7267e-05
0.0300891
-4.84592e-05
0.0300877
-4.98172e-05
0.0300951
-3.14182e-05
-1.29296e-06
0.0135334
8.06646e-17
0.0135334
-1.31969e-14
0.0135334
-5.59001e-12
0.0135334
-1.63603e-09
0.0135336
-2.38577e-07
0.0135469
-1.29676e-05
0.0138458
-0.000305738
0.0160066
-0.00276794
0.0189423
-0.00667945
0.0208949
-0.00756342
0.0210741
-0.00816871
0.0208028
-0.00848347
0.0205323
-0.00869493
0.0205035
-0.00857052
0.0205132
-0.00819459
0.0205495
-0.0080088
0.0205931
-0.00796751
0.0206211
-0.00801559
0.0205967
-0.00810698
0.0205658
-0.00816497
0.0205756
-0.00820037
0.0205943
-0.00820461
0.0206419
-0.00819167
0.0207087
-0.00818668
0.0207463
-0.00820447
0.0207522
-0.00823185
0.0207533
-0.00823467
0.0207573
-0.00823078
0.0207633
-0.00823118
0.0207672
-0.00823509
0.0207665
-0.00823646
0.0207664
-0.00823423
0.0207678
-0.00823279
0.0207684
-0.00822924
0.0207685
-0.00822705
0.0207693
-0.0082276
0.020771
-0.00822835
0.020773
-0.00822842
0.0207738
-0.00822826
0.0207737
-0.00822853
0.020773
-0.00822783
0.0207719
-0.00822766
0.020769
-0.00822871
0.0207674
-0.00823061
0.0207677
-0.00823256
0.0207725
-0.00823479
0.020831
-0.00823453
0.0214583
-0.00819521
0.0239528
-0.00775029
0.0277335
-0.00572789
0.0299323
-0.00240612
0.0302921
-0.00075625
0.0301235
0.000107435
0.0300972
2.59594e-05
0.0301248
-0.000107875
0.0301182
-0.000100154
0.0300764
-2.72619e-05
0.0300729
-4.82145e-06
0.0301128
7.63892e-06
-6.34033e-06
0.0135334
1.77809e-16
0.0135334
-2.62578e-12
0.0135334
-7.73972e-10
0.0135335
-9.8287e-08
0.01354
-6.6309e-06
0.0136955
-0.000166838
0.0152952
-0.0016939
0.0187764
-0.00643922
0.0203657
-0.00843315
0.021183
-0.00821128
0.0212179
-0.00815163
0.0209901
-0.0082173
0.0206391
-0.00840877
0.0204612
-0.00835543
0.0204494
-0.00814624
0.0204872
-0.00803579
0.0205424
-0.0080063
0.0206367
-0.00803698
0.0206737
-0.00814819
0.0206506
-0.00819639
0.0206433
-0.00821215
0.0206584
-0.00821563
0.0206996
-0.00821883
0.0207428
-0.00822158
0.0207529
-0.00822714
0.0207592
-0.00823418
0.0207657
-0.00823561
0.0207704
-0.00823289
0.0207747
-0.00823243
0.020776
-0.00823615
0.0207742
-0.00823809
0.0207701
-0.00823547
0.0207698
-0.0082321
0.0207707
-0.00822976
0.0207719
-0.00822742
0.0207735
-0.00822697
0.0207758
-0.00822761
0.0207761
-0.00822791
0.0207757
-0.00822841
0.0207743
-0.00822896
0.0207719
-0.00822897
0.0207672
-0.00822941
0.0207642
-0.00822938
0.020764
-0.00822969
0.0207666
-0.0082312
0.0207713
-0.0082336
0.020776
-0.00823424
0.0208161
-0.00823364
0.0212722
-0.00820921
0.0234136
-0.00789088
0.0270259
-0.00608691
0.0292178
-0.00294755
0.0296377
-0.000311948
0.0300153
-0.000329883
0.0300774
-0.000203732
0.0300802
-0.000141845
0.0300443
6.92314e-06
0.0300647
3.9538e-06
0.0301162
4.32158e-06
-2.034e-05
0.0135334
2.498e-16
0.0135334
-2.4058e-10
0.0135334
-5.41558e-08
0.0135367
-3.57017e-06
0.0136385
-0.000111589
0.0146384
-0.00116568
0.0182194
-0.00492816
0.0202284
-0.00863384
0.0208632
-0.00894333
0.0210835
-0.00839868
0.021016
-0.00816263
0.0208135