/*--------------------------------*- C++ -*----------------------------------*\
  =========                 |
  \\      /  F ield         | OpenFOAM: The Open Source CFD Toolbox
   \\    /   O peration     | Website:  https://openfoam.org
    \\  /    A nd           | Version:  12
     \\/     M anipulation  |
\*---------------------------------------------------------------------------*/
FoamFile
{
    format      ascii;
    class       volScalarField;
    location    "5";
    object      T;
}
// * * * * * * * * * * * * * * * * * * * * * * * * * * * * * * * * * * * * * //

dimensions      [0 0 0 1 0 0 0];

internalField   nonuniform List<scalar> 
1800
(
1
1
1
1
1
1
1
1
1
1
1
1
1
1
1
1
1
1
1
1
1
1
1.00013
1.00396
1.03861
1.16881
1.31342
1.44102
1.52486
1.54487
1.53306
1.5229
1.51889
1.51883
1.52031
1.52133
1.5221
1.52175
1.52216
1.52403
1.52526
1.52538
1.52487
1.52392
1.52358
1.52372
1.52464
1.52546
1.52531
1.52459
1.52368
1.52358
1.52367
1.524
1.5245
1.52512
1.52571
1.52598
1.52611
1.52606
1
1
1
1
1
1
1
1
1
1
1
1
1
1
1
1
1
1
1
1
1
1.00013
1.00217
1.02492
1.11322
1.2027
1.27312
1.34736
1.42868
1.48894
1.51455
1.52457
1.52578
1.5227
1.52241
1.52219
1.52194
1.52171
1.52265
1.52464
1.52575
1.52593
1.52537
1.52456
1.52429
1.52434
1.52501
1.52579
1.52571
1.5252
1.52449
1.52419
1.52418
1.5244
1.52486
1.52545
1.52596
1.52617
1.52629
1.52623
1
1
1
1
1
1
1
1
1
1
1
1
1
1
1
1
1
1
1
1
1.0001
1.00227
1.01978
1.08815
1.20719
1.24445
1.25188
1.27299
1.33984
1.44305
1.49824
1.53093
1.5297
1.52582
1.52564
1.52369
1.52276
1.52353
1.52519
1.52671
1.52714
1.52732
1.52709
1.5265
1.52621
1.52603
1.52629
1.52692
1.52696
1.52675
1.52629
1.52576
1.52552
1.52562
1.52595
1.52652
1.52701
1.52714
1.5272
1.52706
1
1
1
1
1
1
1
1
1
1
1
1
1
1
1
1
1
1
1
1.00006
1.00166
1.01977
1.07995
1.18024
1.25159
1.2542
1.25088
1.25076
1.26769
1.33072
1.42863
1.51724
1.52077
1.52648
1.52853
1.52561
1.52457
1.5263
1.52824
1.52913
1.5291
1.52919
1.5292
1.52885
1.52851
1.52803
1.528
1.52844
1.52886
1.5289
1.5287
1.52803
1.52758
1.52757
1.52775
1.52827
1.52868
1.52874
1.52872
1.52843
1
1
1
1
1
1
1
1
1
1
1
1
1
1
1
1
1
1
1.00003
1.00084
1.01354
1.08001
1.16684
1.23548
1.25446
1.25467
1.2566
1.25739
1.25914
1.27038
1.32647
1.43206
1.49818
1.53418
1.52989
1.52592
1.52758
1.52926
1.53008
1.53091
1.53112
1.53095
1.53067
1.53018
1.52994
1.52969
1.52984
1.53035
1.53067
1.53084
1.53073
1.53013
1.52963
1.5295
1.52959
1.53006
1.53047
1.53053
1.53051
1.53013
1
1
1
1
1
1
1
1
1
1
1
1
1
1
1
1
1
1.00001
1.00048
1.007
1.06254
1.16549
1.22252
1.25181
1.26062
1.25962
1.26053
1.26154
1.26077
1.25877
1.2661
1.31015
1.41355
1.50911
1.51481
1.52365
1.53067
1.52997
1.53089
1.53218
1.53244
1.53221
1.53177
1.53101
1.53082
1.5308
1.53121
1.53197
1.53225
1.5324
1.53224
1.53161
1.53121
1.53108
1.53115
1.53159
1.53196
1.53203
1.53201
1.5316
1
1
1
1
1
1
1
1
1
1
1
1
1
1
1
1
1.00001
1.00029
1.00561
1.03978
1.15281
1.22745
1.2451
1.2574
1.25907
1.25884
1.25803
1.26032
1.26028
1.25929
1.25842
1.26358
1.30542
1.40232
1.47959
1.52646
1.52987
1.5282
1.53215
1.53374
1.53351
1.53318
1.53236
1.53137
1.53131
1.53147
1.53218
1.53306
1.53336
1.53351
1.53331
1.5327
1.53247
1.53241
1.53252
1.533
1.53324
1.5332
1.53311
1.53266
1
1
1
1
1
1
1
1
1
1
1
1
1
1
1
1.00001
1.00026
1.00471
1.03618
1.12812
1.23017
1.24663
1.24977
1.25553
1.25631
1.25651
1.25685
1.25928
1.26126
1.26058
1.26004
1.25931
1.26418
1.29684
1.39237
1.48886
1.51122
1.52455
1.53412
1.53456
1.53444
1.53392
1.53222
1.53123
1.53138
1.53188
1.53303
1.53404
1.53432
1.5344
1.53405
1.53353
1.53341
1.5334
1.53363
1.53421
1.53427
1.53415
1.53397
1.53347
1
1
1
1
1
1
1
1
1
1
1
1
1
1
1.00001
1.00023
1.00417
1.03605
1.11136
1.22045
1.25754
1.25669
1.25794
1.2592
1.25816
1.25629
1.25679
1.25849
1.26222
1.26219
1.2619
1.2604
1.2602
1.26372
1.29498
1.38039
1.46938
1.52321
1.53055
1.53262
1.53492
1.53404
1.53133
1.53097
1.53127
1.53215
1.53387
1.53486
1.53516
1.53523
1.53478
1.5343
1.53423
1.53427
1.53474
1.53525
1.53514
1.53485
1.53437
1.53379
1
1
1
1
1
1
1
1
1
1
1
1
1
1
1.00013
1.00287
1.03076
1.114
1.19399
1.25646
1.26522
1.26159
1.2621
1.26154
1.26019
1.2566
1.25693
1.25819
1.26214
1.26351
1.26332
1.26261
1.26108
1.26105
1.26448
1.28926
1.37315
1.47283
1.50753
1.52808
1.53657
1.5333
1.53059
1.53119
1.53202
1.53327
1.53496
1.53571
1.5358
1.53579
1.53525
1.53475
1.53472
1.5349
1.53545
1.53583
1.53567
1.53524
1.53446
1.53387
1
1
1
1
1
1
1
1
1
1
1
1
1
1.00005
1.00135
1.01821
1.10587
1.19244
1.23876
1.25985
1.26155
1.25985
1.26185
1.26205
1.26186
1.2585
1.25772
1.25846
1.26124
1.26408
1.26423
1.26397
1.26323
1.2625
1.26272
1.26538
1.28726
1.35887
1.45617
1.5153
1.53156
1.52802
1.53143
1.53341
1.53321
1.53422
1.53573
1.53606
1.5361
1.53597
1.53535
1.53495
1.53498
1.53523
1.53584
1.53604
1.53584
1.53536
1.53447
1.53392
1
1
1
1
1
1
1
1
1
1
1
1
1.00002
1.00071
1.00986
1.07418
1.19438
1.23042
1.24917
1.26118
1.26113
1.25977
1.2626
1.2634
1.26307
1.26029
1.25871
1.25934
1.26123
1.26397
1.26521
1.26512
1.26498
1.26449
1.26385
1.26415
1.26625
1.28243
1.35042
1.4397
1.49983
1.51932
1.53592
1.53525
1.5333
1.5348
1.53602
1.53604
1.53599
1.53551
1.53481
1.53475
1.53485
1.53517
1.53567
1.53575
1.53561
1.53514
1.53424
1.5338
1
1
1
1
1
1
1
1
1
1
1
1.00001
1.00046
1.00779
1.0509
1.17098
1.24383
1.2519
1.25789
1.26035
1.25975
1.26013
1.26098
1.26377
1.26343
1.2619
1.2602
1.26037
1.2618
1.26415
1.26591
1.26629
1.26618
1.26582
1.26483
1.26461
1.26483
1.26594
1.27865
1.33054
1.42802
1.49938
1.52951
1.52855
1.53077
1.53509
1.53573
1.53548
1.53513
1.53438
1.53392
1.53409
1.53428
1.53454
1.53477
1.53481
1.5348
1.53437
1.53346
1.53316
1
1
1
1
1
1
1
1
1
1
1.00001
1.00049
1.00743
1.04631
1.14377
1.24666
1.25731
1.25886
1.26203
1.2607
1.25749
1.25838
1.26043
1.26431
1.2644
1.26361
1.26227
1.2617
1.26265
1.26484
1.26623
1.26669
1.26662
1.26623
1.26533
1.26444
1.26408
1.26376
1.26408
1.27234
1.31808
1.41092
1.49106
1.5117
1.52872
1.5346
1.53395
1.53335
1.53287
1.53203
1.53215
1.53262
1.53277
1.53286
1.53305
1.53314
1.53317
1.53282
1.53225
1.53215
1
1
1
1
1
1
1
1
1
1.00001
1.00033
1.0066
1.05147
1.12915
1.22551
1.26677
1.26137
1.2609
1.26131
1.26172
1.25756
1.25797
1.2608
1.26493
1.26626
1.26552
1.26441
1.26339
1.26353
1.26497
1.26638
1.26647
1.26636
1.26589
1.2649
1.26366
1.26252
1.26166
1.26141
1.26141
1.2673
1.30829
1.39923
1.48019
1.52333
1.52668
1.52855
1.53052
1.52992
1.52915
1.52965
1.53027
1.53038
1.5307
1.53105
1.53117
1.53109
1.53073
1.53055
1.53063
1
1
1
1
1
1
1
1
1
1.00014
1.00341
1.04133
1.14291
1.20428
1.25437
1.26977
1.26751
1.26284
1.26288
1.26253
1.25837
1.25842
1.26123
1.26566
1.26755
1.26717
1.26627
1.26523
1.26456
1.26489
1.26557
1.26547
1.26481
1.26446
1.26387
1.26244
1.26067
1.25956
1.25925
1.25935
1.2594
1.26411
1.29691
1.38422
1.47874
1.50256
1.52022
1.52848
1.52635
1.52676
1.52785
1.52803
1.52824
1.52906
1.52949
1.52951
1.52926
1.52901
1.52905
1.52921
1
1
1
1
1
1
1
1
1.00006
1.00169
1.02089
1.12823
1.21631
1.24608
1.26252
1.26598
1.26543
1.2643
1.26334
1.26313
1.26131
1.26052
1.26215
1.26546
1.26752
1.26774
1.26705
1.2662
1.26494
1.26421
1.26382
1.26335
1.26261
1.26205
1.26147
1.26032
1.25898
1.25854
1.25855
1.25854
1.2585
1.25862
1.2617
1.28981
1.37089
1.46034
1.51147
1.52139
1.52219
1.52651
1.52717
1.52643
1.52713
1.52825
1.52851
1.52832
1.5279
1.52795
1.52809
1.52833
1
1
1
1
1
1
1
1.00003
1.00103
1.01298
1.08452
1.21802
1.24804
1.2593
1.26528
1.26317
1.26243
1.26414
1.26522
1.26526
1.26503
1.26387
1.26412
1.26586
1.26719
1.26702
1.26665
1.26626
1.26507
1.26312
1.26144
1.26054
1.25997
1.25974
1.25951
1.25903
1.25838
1.25814
1.25814
1.25811
1.25812
1.25812
1.25823
1.26076
1.28196
1.36028
1.45325
1.49374
1.51744
1.52894
1.52697
1.52555
1.52701
1.52815
1.52789
1.52738
1.52722
1.52747
1.52758
1.5279
1
1
1
1
1
1
1.00002
1.00075
1.01153
1.0595
1.18743
1.25591
1.26266
1.26687
1.26904
1.26361
1.26309
1.26575
1.26754
1.26738
1.26727
1.26654
1.26546
1.26538
1.2653
1.26487
1.26402
1.26359
1.26259
1.26071
1.25939
1.25896
1.25872
1.25863
1.25847
1.25824
1.25804
1.25791
1.25792
1.25796
1.25804
1.25817
1.25829
1.25847
1.26018
1.27905
1.34309
1.44022
1.5031
1.52333
1.52152
1.52521
1.52818
1.52821
1.52758
1.52717
1.52721
1.52736
1.52734
1.52773
1
1
1
1
1
1.00001
1.00051
1.00988
1.06192
1.14825
1.2525
1.2707
1.26923
1.26982
1.27077
1.26512
1.26344
1.26461
1.26638
1.2676
1.26764
1.26654
1.26456
1.2633
1.26254
1.26173
1.26089
1.26052
1.25998
1.25914
1.25842
1.25814
1.258
1.25797
1.258
1.25798
1.25799
1.25802
1.25809
1.25818
1.25824
1.25836
1.25844
1.25849
1.25858
1.25994
1.27355
1.33388
1.42495
1.49023
1.51286
1.52927
1.52905
1.52823
1.52757
1.5274
1.52715
1.52715
1.52718
1.52786
1
1
1
1
1
1.00024
1.00581
1.06028
1.15175
1.22765
1.27112
1.27241
1.27094
1.26926
1.26868
1.26591
1.26413
1.26484
1.26607
1.26595
1.26592
1.26534
1.26351
1.26114
1.25965
1.25897
1.25862
1.2586
1.25852
1.25833
1.25799
1.25779
1.2578
1.25786
1.258
1.25816
1.25827
1.25835
1.25841
1.25844
1.25845
1.25849
1.25852
1.2585
1.25849
1.25854
1.25942
1.27015
1.32014
1.41663
1.49124
1.5265
1.52556
1.52654
1.52751
1.52744
1.52696
1.52683
1.52721
1.52838
1
1
1
1
1.00011
1.003
1.03707
1.15964
1.2237
1.26214
1.27501
1.27514
1.27342
1.26982
1.26855
1.26664
1.26402
1.2637
1.26409
1.2634
1.26227
1.26146
1.2603
1.25891
1.25778
1.2573
1.25743
1.25766
1.25787
1.25798
1.25799
1.25795
1.25797
1.25808
1.25826
1.25844
1.25855
1.25858
1.25857
1.25855
1.25854
1.2585
1.25845
1.25844
1.25849
1.25854
1.2586
1.25923
1.26684
1.30991
1.39973
1.48565
1.50685
1.52326
1.52774
1.52739
1.52646
1.52687
1.52768
1.52909
1
1
1
1.00006
1.00194
1.02237
1.1272
1.2318
1.26406
1.27638
1.27505
1.27129
1.27011
1.26863
1.2671
1.26518
1.26256
1.26097
1.26012
1.25937
1.25882
1.25849
1.25804
1.2575
1.25705
1.25709
1.25742
1.2578
1.25801
1.25818
1.2583
1.25831
1.25831
1.25835
1.25845
1.25857
1.25864
1.25863
1.2586
1.25854
1.25848
1.25843
1.25843
1.25844
1.2585
1.25856
1.2586
1.25861
1.25898
1.26421
1.29979
1.38718
1.4733
1.52053
1.52256
1.52686
1.52664
1.52767
1.52869
1.52986
1
1
1.00003
1.0012
1.01748
1.09026
1.23013
1.26617
1.27615
1.27946
1.27574
1.26956
1.26626
1.26409
1.26314
1.26178
1.25973
1.25793
1.2571
1.25673
1.25677
1.25698
1.25714
1.25721
1.25734
1.25757
1.25796
1.25827
1.25846
1.25857
1.25858
1.25854
1.25846
1.25844
1.25846
1.2585
1.25857
1.25858
1.25856
1.25852
1.25845
1.25842
1.25842
1.25844
1.25853
1.2586
1.25861
1.2586
1.25861
1.25881
1.26256
1.28998
1.37428
1.47292
1.49867
1.52286
1.52588
1.52912
1.52951
1.53108
1
1.00001
1.00058
1.01315
1.07617
1.19836
1.27584
1.27923
1.27759
1.27675
1.27353
1.2662
1.26003
1.25823
1.25822
1.25768
1.25667
1.25599
1.2558
1.25606
1.25653
1.25697
1.25736
1.25769
1.25802
1.25826
1.25847
1.25859
1.25868
1.25868
1.25863
1.25856
1.25849
1.25845
1.25845
1.25848
1.25856
1.2586
1.25859
1.25856
1.25849
1.25846
1.25846
1.25848
1.25854
1.25859
1.25861
1.25861
1.2586
1.25861
1.25873
1.26119
1.28553
1.36106
1.45343
1.51519
1.52023
1.52815
1.52885
1.5326
1
1.00029
1.00632
1.06896
1.17354
1.26885
1.28659
1.28492
1.2783
1.27235
1.26684
1.25918
1.25383
1.2538
1.2549
1.25548
1.25563
1.25592
1.25636
1.25704
1.25756
1.25786
1.25817
1.25842
1.25852
1.25856
1.25858
1.25858
1.25859
1.25861
1.2586
1.25853
1.25846
1.25843
1.25844
1.25849
1.25856
1.25862
1.25865
1.25865
1.25859
1.25853
1.2585
1.25849
1.2585
1.25853
1.25858
1.25861
1.25862
1.25861
1.25857
1.25862
1.26061
1.27854
1.35166
1.45054
1.49085
1.52474
1.52577
1.53707
1.00002
1.00412
1.04186
1.16922
1.25734
1.28678
1.28504
1.27868
1.27016
1.26177
1.25676
1.25282
1.2515
1.25218
1.25408
1.25586
1.25661
1.25723
1.25793
1.25849
1.25875
1.25877
1.25875
1.25872
1.25864
1.25856
1.2585
1.25848
1.25851
1.25856
1.25855
1.25854
1.25852
1.25849
1.25849
1.25851
1.25854
1.25861
1.25867
1.25868
1.25867
1.25861
1.25855
1.25849
1.25848
1.25849
1.25853
1.2586
1.25861
1.25861
1.25858
1.2585
1.25852
1.25974
1.27584
1.33674
1.43429
1.51252
1.51667
1.5474
1.00104
1.03259
1.1431
1.25266
1.29048
1.287
1.27742
1.26736
1.25768
1.25144
1.25109
1.25116
1.25215
1.25401
1.25642
1.25783
1.25828
1.25848
1.25882
1.25906
1.25908
1.25904
1.25892
1.2588
1.25866
1.25855
1.25845
1.25843
1.25846
1.25855
1.25859
1.2586
1.25857
1.25849
1.25849
1.25848
1.25849
1.25856
1.25864
1.25868
1.25869
1.25868
1.25863
1.25856
1.25851
1.2585
1.25851
1.25855
1.25857
1.25857
1.25855
1.25851
1.25844
1.25844
1.25943
1.27047
1.32878
1.42965
1.47958
1.55912
1.01543
1.13685
1.25552
1.27457
1.2719
1.26267
1.25733
1.25214
1.24748
1.24871
1.25193
1.25503
1.25687
1.25805
1.25878
1.25877
1.25875
1.25873
1.25887
1.25895
1.25899
1.25896
1.25888
1.25876
1.25864
1.25852
1.25843
1.25842
1.25848
1.25853
1.25858
1.25862
1.2586
1.25853
1.2585
1.25846
1.25845
1.25848
1.25857
1.25864
1.25868
1.25869
1.25867
1.25861
1.25856
1.25855
1.25855
1.25855
1.25854
1.25853
1.25852
1.2585
1.25848
1.25844
1.25842
1.259
1.2687
1.31625
1.42067
1.55634
1.14333
1.2923
1.31998
1.29923
1.27486
1.25856
1.25216
1.24633
1.24752
1.25223
1.25709
1.25858
1.25881
1.2592
1.25923
1.25899
1.25869
1.25857
1.25858
1.25858
1.2586
1.25861
1.2586
1.25859
1.25856
1.25853
1.25851
1.25851
1.25852
1.25853
1.25856
1.25857
1.25855
1.25852
1.25851
1.25851
1.25849
1.25849
1.25853
1.25855
1.25858
1.2586
1.2586
1.25856
1.25854
1.25854
1.25854
1.25853
1.25853
1.25852
1.25851
1.25852
1.25852
1.25851
1.25848
1.25849
1.25882
1.2627
1.29927
1.40501
)
;

boundaryField
{
    top
    {
        type            fixedValue;
        value           uniform 1.25853;
    }
    inlet
    {
        type            fixedValue;
        value           uniform 1;
    }
    outlet
    {
        type            zeroGradient;
    }
    bottom
    {
        type            symmetryPlane;
    }
    frontAndBack
    {
        type            empty;
    }
}


// ************************************************************************* //
