/*--------------------------------*- C++ -*----------------------------------*\
  =========                 |
  \\      /  F ield         | OpenFOAM: The Open Source CFD Toolbox
   \\    /   O peration     | Website:  https://openfoam.org
    \\  /    A nd           | Version:  12
     \\/     M anipulation  |
\*---------------------------------------------------------------------------*/
FoamFile
{
    format      ascii;
    class       volScalarField;
    location    "8.2";
    object      T;
}
// * * * * * * * * * * * * * * * * * * * * * * * * * * * * * * * * * * * * * //

dimensions      [0 0 0 1 0 0 0];

internalField   nonuniform List<scalar> 
22702
(
1
1
0.959695
1
1.01648
1
1.11987
1
1
0.880564
1.12036
1.11895
1
1.11844
0.96449
1
1
1
1.11998
1
1.11852
1
1.11979
0.89639
1.11829
0.89609
1
1.12038
0.89497
0.896494
1
1.11889
1
1
1
1.11015
1.11828
1.11977
1
1
0.891685
1
1.06201
1
1.12063
1
1
1
1
0.899033
1
0.896972
1
1.12056
1
1.12004
1
1
1
1
0.904311
1
1
0.898976
1
0.887677
1
1
1
0.893968
1
1.1185
1.0744
1
1.1184
1.12404
0.886712
1.11785
0.89793
1
1.12088
0.896752
1.12108
1.12121
1
1
1
1
0.980385
0.886669
1.12026
1
1
0.881162
1
1.1186
0.878061
1
1
1
1
1.0617
1.12065
0.896414
1
1
1.03343
1
0.897609
1
1.11782
1.12069
1
1
0.893685
0.894292
0.882587
1
1
1
1
1
0.973811
1
1.10312
1.01305
1.11884
1
1.11867
1.12
1.11834
1.12104
1
0.897392
1
0.888532
1
1
1
1
1.12055
1
1
1
1
1.11944
1
1.00757
1
1
1
1
0.897455
1
1.00293
1
0.8988
1
1
1
1.11977
1
1.1187
0.878436
0.901765
1.11835
1.11902
1
1.02087
1.0713
1
1.12234
0.898367
1.1108
1
1
1
1
1.11857
1.09925
1
1.12072
0.902238
1.12155
1
0.896959
1
0.897432
0.893234
0.999934
1
1
1.11963
1
1
1.11885
1
1.12006
1.12063
0.896259
1
1
0.897967
1.1184
1
1
1
1.11841
1
0.892769
1
1
1.11857
1.11898
1.11871
1
1.00001
1
1
1
1.11862
1
0.898666
1.12252
1.11853
1.11838
1
1
1
0.892817
1.11832
1.05844
1
1.11907
0.894236
0.895389
1.11906
1.11775
1
1.12031
0.888184
1.10604
1
1
1
1
1.11887
1
1.07149
1.0121
1
1
1.11837
0.876183
0.937719
1
1.11829
0.891755
1.12043
1
1
1
1
1
1
1
0.894391
0.934389
0.893628
1.11868
1
1
1
1
1.10905
1
0.89722
1
0.8908
0.898551
1.11877
0.884187
1.11855
1
1
1
0.999289
0.895788
0.878714
1
1
0.888459
1
1.12001
0.891284
1
1
1.12078
0.873102
1
1.1192
0.901829
1.11845
1
0.893853
0.999378
1
1
1
0.897157
1
1
0.999999
1
1.0031
1.07438
1
0.90573
1
1
1
1
1
1
1
1.12081
1
1.12058
1
1
1
0.902024
1
1.11959
0.884549
1
1.09632
1
1
1.12119
1
1
1
1.11859
1
1
1.11591
1.12112
1
1.02911
1
1
0.884531
1
1
1
0.884593
1
1
1
1
0.902062
1
1
1
1
1
0.88023
1.00002
1.11877
1
0.999992
1.11876
1.11846
1
1
0.900821
0.946027
1.12054
1
1
1
1.11841
0.895986
1
1.11858
1
1
0.902745
0.90413
1
0.896679
0.887422
1
1
1
1
1
1
1
1.11988
1.03379
1.11442
0.878685
0.974811
1.12074
1
1.11855
1.12011
0.889674
0.937508
1
0.89236
1
1.12415
1
1
1
1
1.11846
1
1
1
1
1
1
1
1.04798
1.11972
1
1.11841
1
1
0.896893
1
1
1
1
1.11844
1.09247
1
1
0.898975
1.11843
1.11861
1
1.11855
1.11871
1.11868
1
0.952407
1
1.11844
0.996936
1.11843
1
0.89194
0.999665
1.12139
1
1
1
1
0.895961
1.11822
1.10784
1
1.11886
1.1184
1.12055
1
1.05948
1.11857
1
1
1.08574
1.01881
1.11849
0.981817
1.11851
1
1.11851
1.11837
1.1188
1.1184
1
1.11149
0.974716
0.965067
1
1
1
1
1.11755
1
1
1
1
1
1.12107
1
1
0.998801
1.11865
1.10762
1
1.10466
1.00001
1
1
1.11862
1
0.999278
1.00131
1
1.11845
1
1.11874
1
1
1.09004
1
1.11837
1.00001
1
1.1188
1
1.11854
1
1
1
1.11889
1
1.11783
1
1.11868
1.12061
1.1184
1.12081
1
1.12102
1.11922
1
0.896576
1.11209
1.08564
1
1.11862
1
0.878489
0.902032
1
1
1
1
1
0.873593
1
1.1186
1.03263
1.11842
1
1
1
1
1
1.11866
1
1.11887
1.0732
0.933028
1
1
1.03645
1.03225
1
1
1.04672
1
0.899357
1.11894
1.11868
1
1
1
1.12047
1
1.00001
1.11839
1.11819
0.987594
1
1
0.89889
1.10815
1
1
1
1
1
1.11865
1.12125
1
1.11875
1.11827
1.11835
1
1
1
1
0.891095
1.12019
1
1
1.10886
1.11858
1
1.11227
1.11899
1
1
1
1
1
1.11841
1
1
1
1
1.1184
1
1.11254
0.893926
1
0.879303
1
1
1
0.999132
0.896135
0.99975
1
1
1
1.01836
1
1
0.962703
1
1
1
1
1
1
1
0.999999
0.981143
1
1
0.999266
1
0.89604
1
1
1
1
1.09135
1
1
1
1
0.895291
1
1
1.11211
1.1204
1
1
1
0.965994
1
1
1
1
1
1
0.989321
1.00373
1.11858
1
1
1
1.11954
0.96901
1
1
1
1.12039
1.11861
1
1
1
1
1
1
1
1
1
0.899909
1
1
1.12017
0.89204
1
1.11957
1
0.896847
1
1
0.896134
1
1
1
1
1
1
1
1.11679
1.11867
1
1
1
1
1.1091
1
1.04194
0.896224
1
1
1
1
1
1
1
1.01403
1
1
1.0663
1
1
1
1.09782
1
1
1
1
0.893187
1
1
0.879324
0.892617
1
1
1.1184
1
1.00458
1
1
1
1.08579
0.880039
1
0.880059
1
0.931957
1
1
1
1.1189
1
1
1.1188
1
1
1
1.11873
1
1
1.11861
1
1
0.889788
1
1.04185
1
1
1.12113
1.12024
1.08325
1.10771
1
0.892139
1
1
1.11382
1
0.89034
1
1
1
1.11789
1
1
1
1
1.07367
1
1.11297
1.1191
0.884283
1
1
0.897422
0.897844
1
1
1
1.08727
1.09198
1
1
1
1
1
1
1
1.05271
1.12204
1.00247
1
1.1175
0.901834
1
1
1
1.06999
1
1.02557
1
1.10835
1.1182
1
0.892085
1
1.12139
1
1
1.11883
1.11188
1
1.12242
1
0.885472
1
1
1
1.12055
1.11659
1.10553
1
1.11951
1.11839
1
1.11807
1
1.11821
1
0.891842
0.993797
0.901772
1
1
1
1
1
1.11833
1
1.11839
1
1
1
1.11272
1
0.891143
1.11855
1
0.910314
0.892514
0.891914
1
1.06375
1.01238
1.11889
1.11837
1
1
1
1
1.11871
1
1
1.11864
1.11845
1
1.04439
1.00003
1
0.999071
1.11905
0.956252
1
0.949241
0.900303
0.898929
0.996113
1.11981
1.11716
1.02664
1.11874
1.11849
1
1
1.12041
1.11991
1.11864
1.12081
1
1.11864
0.892023
1.1198
1.11887
1.11977
1.11809
0.960379
0.971603
0.981173
1.1186
0.989515
1.11836
1
1
1.11897
1.11883
1
0.892204
1.11864
1.11847
1
1.1184
1.11856
1
1.11858
0.906349
1.11835
1.12153
1.12114
1.11755
1
1
1
1.11845
1.07935
0.906546
1.11899
0.890856
1.11845
1
1
1
1
1.11939
1.11907
1
1
1.11872
0.889227
1.1189
0.897904
1
1.11771
1
0.881561
1.11941
0.914403
1
1.11834
1.11941
1.11843
1
1
1.05642
1.11917
0.896934
1.11899
1
1.11847
0.963919
1.11863
0.884439
1
1.11898
0.90541
1.11901
0.89559
1
1.11793
1
1.11909
1
1.0724
1.1148
1.09436
0.891674
1
1.11881
1
1.11867
1
1.11881
1
1
1.11836
0.994008
1.11928
0.87723
1.10954
1
1.08609
1
1.11899
1.11868
1.11876
1
1.10818
1.11877
1.11071
1.07611
1.11924
1
1.0818
1
1.1186
1
1.02142
1
1.11085
1
1.11852
1.11323
1.11296
1
1.1173
0.899094
1
0.893189
1
1
1
1.11857
1
1.1183
1
1
1
1.11836
1.11757
1.09863
1.11954
1.11985
0.880848
1.11611
1.12142
1
1.10551
1.11855
1.11326
1
1.12244
1.11969
1
1.1206
1.11888
1.11863
1.11896
1
1
1
1.11875
0.899984
1
1.11895
1
1
0.903065
1
1
1.1188
1.11888
1
1.11828
1.12034
1.11888
0.994832
1.11839
1
1.1184
1.11825
1.09715
1
1
1
1.11922
1.11879
1.11853
0.985389
1
1.12034
1.1185
1.11865
1
1.11846
1.11873
1.11801
1.11996
1
1.1187
1.11863
1.1045
1.11909
1.11932
1
1.1201
1.11745
1.11859
1.11977
1.11892
0.898319
1.11899
1.11909
1
1.11863
1.11861
1.11845
1.11856
1
1.11864
1.11871
1
1.11852
1.10151
1
1
1
1.11876
1.11937
1
1
1.06846
1
1.1186
1
1
1.11858
1.11903
1.11877
1.11844
1
1
1
1.0883
1
1.11834
1
1
1.11927
1.12174
1
1.11846
0.88596
1.11845
1.11817
0.912303
1
0.900448
1.10558
1.11826
1.11844
1.11806
0.878971
1.11863
1.11883
0.880509
0.875895
1
1.11866
1.11888
1
1
1.11851
1
1.11873
1
1.10414
1
1.05722
1.11849
1.11971
1.08923
1.1088
1.11973
1.11902
1.11143
1
0.903545
1.11843
1.11895
1.12012
1
1
1
1.11957
1
1.11857
1.11838
0.919354
1
1.11846
0.999983
1
1.00001
1.00001
1.11895
1.11873
0.999562
1
1
1.11871
1.1189
1.11861
1.11941
1.1188
0.907195
1.10279
1
1.11784
1.11869
1.11829
1.11588
1
1.11825
1.11537
1.11877
1
1.11873
1.11915
0.961039
1.11894
1.1189
1
1.11864
0.956056
1.11888
0.957964
1.11862
1
1.11865
1.124
1.1185
1.11872
1.11864
1.11855
1.11861
1.11971
1
0.983426
1.1188
1.11857
0.952759
1.11855
0.997174
1.07715
1.11883
1.11843
1.1197
1
1.11899
1.07818
1.11824
0.978333
1.11922
1.12158
1
0.959101
1
1.11799
1
1.08465
1
1.11278
0.955699
1
1.1202
1.11823
1
1.11939
1.119
1.11947
1.11505
1.11702
1
1.12115
1
1
1
0.96408
1.11832
1.1184
1.11924
1.11836
1.11909
1.11893
1.11891
1.11836
0.967172
1.00889
1
1
1.12392
1.11832
1.11855
1.119
1.00001
1.06383
1
1.12045
1.1084
1
1
0.909506
1.11829
1
1
0.906694
1.11883
1
1.12212
1.11845
1.11978
1.11458
1.11858
1
0.897535
1.03134
1.11839
1.11863
1
1.11825
1.11868
1.06186
1.00321
1.02903
1
1.11937
1.11893
1
1
0.879066
1
1
1.11841
1.11881
1.11898
1.11869
1.11834
1.12087
1.11881
1.11925
1.11828
1
0.998942
1.11883
1.11873
0.99912
1.11893
1.11824
0.889548
0.884829
1.11804
1.11807
1
1
1.00056
1.11856
1.11899
1.11886
1
1.11878
1
0.956982
1.12042
1.11579
1
1.05776
1.11827
1
1.11961
1
1.1187
1.08298
1.1194
1
1.11831
1.11868
0.880453
1.11849
1
1.11887
1.12177
1
0.89371
1.1179
1.0993
0.999281
1.11729
1.1184
1
1.00202
1.11934
0.999242
1.11844
1
1
1.11866
1
1.11989
1.11829
0.998946
1.09427
1
1.11807
1
1
1
1
1.11867
1
1
1.1159
1
1.11866
1
1.07807
1.11806
1.11872
1
1
1.00595
1
1.11904
1.11842
1.11888
1.11867
1.11879
1.11861
1.11858
1
1.11852
1.11875
1
1.11856
1.11876
1
1.11877
0.977174
1.01635
1.11855
1.11875
1.11863
1
1.11866
1
1.11885
1.1185
1
1.11823
1
1
1
1
1.11878
0.899546
0.999386
1
1.11866
1.11749
1
1.11784
1
1.00148
0.891947
1.1187
0.999885
1
1.11896
0.999541
1.11863
1
0.999931
1
1.11888
1.12059
1.11863
1.11952
0.89536
1.11832
1.11782
1.11846
1.03081
1
1
1.05379
1.11853
0.899074
0.894252
1
1.11886
1.1185
1.11843
1
1
1.11848
1.11833
0.999965
1
1.08837
0.88596
1
1.02335
1.12127
1.11648
0.999508
1.11846
1.12089
1
0.999698
1
1.11915
1.119
1.05022
1
1.11157
1
1.0005
1.11917
0.891178
1.11847
1.11835
0.99914
0.999975
1.10416
1
0.999913
1
1.11933
1
1
0.897481
1.11806
1
1
1
1
1.11988
1.07104
1
1
0.892564
1.11853
1.07142
1
1
1
1.11343
1.11997
1.11879
1
1
1.11741
1
1.11861
1.11891
1
1
1.11909
1.11846
1.11342
1
1
1.11901
1.11887
1
1
1
1.11886
1
1
1
1.11841
1.11974
1.11945
1
1.12069
1.00001
0.898748
1.11843
1.1184
1
1.11995
1.11319
1.11855
1
1
1.1193
1
1.06434
1.11864
1
0.88273
1
1.11916
1
1
1.11789
1
1
1
1.03844
1.11895
0.89045
1
1.11897
1
1
1.11899
1
1.11923
1
1
1.11866
1.11835
1
1.00002
1
1
1
1
1
1
1.11928
1.11808
1
1.12203
0.890738
1.11959
1
1.11884
1.1206
1.11861
1.11669
1.12272
1
1
1.11839
1
1.07612
1.11958
1.11844
1
1.11963
1.11517
1
1.10668
1
1.1187
1.07926
1.11893
0.999328
1.11461
1.11166
1.1191
1.11929
1.01069
1.11912
1.11971
1
1.11864
1
1.11818
1
1
1
1
0.998926
1.11845
1.1182
1.10205
1
1.11976
1
1
1
0.89536
1
1.11632
1
1.10909
1.11339
1
1
1
1.11325
1.11916
1
1
1.119
0.888149
1.01665
1
1.11925
1.11859
1.10925
1.11643
1.11851
1
1.11782
1
1
1
1
1.11823
1.11864
1
1.11432
1.01416
1.11879
1.11135
1
1
1.11186
1
1
0.895616
1.08606
1
1
1.11945
1
1.11979
1.10874
1
1.10827
0.890145
1.11884
1.11838
1.11892
1
0.8983
1
1
1
1.11838
1.09988
1
1.11645
1.11831
1
1.11838
1
1
1
1
1.11832
0.999822
1
1.11921
1
1
1.11589
1.1186
1
1.11987
1.02547
1.00001
1
1.11844
1
1.11844
1
1.00363
1.11851
1
1.11862
1
1
1.04337
1.11899
1
1
1
1
1
0.99881
0.879048
0.899843
1.00567
1
1.01419
1
1.01392
1
1.11844
1
1.0755
1
1.11866
1
1
1
1.1187
1
1.09924
1.1184
1
1.06723
1.11894
1
1
1.11847
1.1186
1
1
1.01856
0.890067
1
1.11892
1
1
1
1
1.02126
1.1187
1
1
1
0.892268
1
1.1187
1.11886
1.12064
1
1
1
1
1.06281
1.11971
1
1
1
1.11911
1.11849
1.01327
1
1
1
1.11827
1.11848
1
0.885583
1.11864
1.11847
1.11841
1.11878
1.11937
1
1
1.11745
1.11803
1.11884
0.895997
1.01153
1.11844
1
1
1
1
1
1.1184
0.893008
1
1
1.11803
1.05474
1
1.11792
1
1
1
0.899645
1
1
1.03385
1.11872
1.11876
1
1.11861
1.11804
1
1.01653
1
1.11778
1
1.11917
0.888505
1
1
1
1
1.11858
1.00002
1
1
1
1.11124
1
1
1
1
1.11855
0.89632
1.09505
1.1191
1
1.11872
1
1
1
0.999167
1
1.12017
1
0.947081
1
1
1.00001
1.11893
0.898041
1
1.11912
1
1.11931
1.11871
0.887543
1
1
1.11549
1
1
0.883988
1
1.11878
1
1.11378
0.999791
1.11824
1
1
1
1
1.12165
1
1
1.1186
1
1
1
1
1
1
1
1
1.07957
1
1.04132
1.11874
1
1
1
0.88717
1
1
1
1
1.11857
1.11859
1.01979
1
1
1.11906
1
1
1.11906
1
1
1
1
1
1
1.11841
0.937809
1.11851
1.11917
0.99912
1
1
1
1.07327
1
1
1.11922
1.11829
1
1
1
1
0.886134
1
1
1
1.0796
1
1.1187
1.11961
1
1.11899
1
1
1
1.06843
1
1.1209
1
1.11849
1
1
0.998885
1.11845
1
1
1
1
1
1.1179
1.00001
1
0.897599
1.11813
0.89958
1
1.11949
1
0.998874
1
1.11924
1.11881
1
1.11806
0.964433
1.11848
1.11729
1.00001
1
1
0.890289
1
1
1
1.11857
1.07325
1.1196
1
1
1
1
0.999111
1.11843
1
0.891034
1
1
1
1
1
1
1
1.11993
1.11841
1.11904
1
1
0.999108
1
0.99783
1
1
1
0.888753
1.00121
1
0.886395
0.887833
1
1.11878
1.11782
1
1.11821
1.11863
0.89107
1.08155
1
1
1
0.892336
1.11863
1
0.892076
1
1.11952
1.0259
1
1
1
1
1.11858
1.11956
1
1
1.11858
1
1
1.12073
1.11864
1
1.11148
1.11879
1.12017
0.983081
1.11934
1.00242
0.889696
1.09348
1.11875
1
1
1
0.890137
1
0.880508
1.11873
0.984628
1.11859
0.991957
1
1.11817
1.05873
1
1
1.11914
1
1.05249
1.11871
1
1
1.11779
1.12056
0.882593
1.07542
0.99997
1
1.07393
1
1.11854
0.985721
1.12214
1.11968
1
1
1
1
1.11828
1
1
1.11832
0.9999
1.11896
1.09947
1.11843
0.895717
1
1
1
1
1.11897
1.00001
1.11874
1
1.11901
1.1189
1.01652
1.11918
1.04134
1.1188
1
1.08454
0.896702
1.11943
1.11825
1.09643
1.02615
1.11932
1.11844
1.11848
1.11807
1
0.978228
1.0187
1
1.11831
1.0581
1.119
1.00001
1
1
0.895566
1.11953
1.11917
1.09802
1
1.05062
1
1.11871
1.11845
1
1.11813
1.11906
1
1
1
1.11845
1
1.04904
1.11982
1.08589
1
1.11892
1
1
1
1
1
1
1
1
1
1
0.883787
1
1.11044
0.897054
1.0729
0.999581
1.11935
1
1.06758
1
1.07916
1.10218
1
1.00074
1.12041
0.978195
1
1.11821
1.11567
0.979018
1
1.11821
1.11889
1.11942
1
1.11832
1.11887
1.11846
1
1.05666
1
1.00002
1.11902
1
1.11902
1.0184
1.11876
1
1
1.11961
1.1182
0.90785
1
1.11828
1.09191
1.11823
1
1
1.11951
1.11958
0.99949
1
1.10931
0.99911
1.11833
1
1
1
1
1
1.05685
1
1.0939
1.11953
1.08992
1.11847
1
1.00105
1
1
1.12055
1
1.11823
1
1
1
1
1
1
1.01572
1.065
1
1
0.89429
1
1.11929
0.886959
1.12082
1
1.06537
0.999929
1.11877
1.07867
0.900537
1.06832
1.00001
1.11851
1.11933
1
1.07455
1.11889
1.11827
0.999535
1.11888
1.11633
0.9027
1
1
0.999368
1
1.11874
1
0.90122
1.11849
1
1
1.10464
1
1.11959
1
1.11852
1
0.895818
1
1
1.11908
1.11929
1.11912
1
1.11881
1.11913
1.11729
1
1
1.11893
1
0.92055
1
1
1
1.11887
1
1.11773
1.07898
1.11823
1
1.11848
0.999822
1
1
1
1
1
1
0.911564
1
1
1.11851
1
1.1191
1.12018
1
0.8901
0.889343
1
1.11884
1.02074
0.892143
0.888795
1
1.11801
1
1.1185
0.876539
1.00032
1
1
0.999862
1
1
1
0.999976
1.05405
1.11833
1
1
1.11917
1.0736
1
1.10715
1.11855
1.11842
1.05426
1.11802
1
1.11864
1
1.11534
1
1.11844
1.11901
0.999101
1.11932
1.11873
1
1
1
1
1
0.977229
1.11952
1.00001
1.00001
0.901641
0.999995
0.888739
0.893658
1
1.11931
1.11874
1.11904
1
1.11847
1
0.893684
1
1
1.11801
0.949625
1.11858
1
1.11896
1
0.997037
1.11811
1
1
1
1.11878
1
1.11854
0.883946
1
1
1.07271
1
1
1.06788
1
1
1.11876
1
1
1
1
1
1.11926
1.1186
1
1.11915
1.11823
0.887086
1.05953
1.11872
1
1
1.10732
0.999711
1
1
1.11851
1.11831
1.08153
1
1.11928
0.894107
1.1105
0.999789
1
1.11812
1.00001
1.11825
1.10557
1.09405
1
1
1.1184
0.902819
0.888087
1
1.11831
1
1.1181
1
1.07463
1
1
1.11829
1.07953
0.892993
1
0.999481
1
1
1.00766
1.05262
1.11862
1
1.11988
1
1
1
1
1
1
1.01922
0.893129
1
1
1.01467
1
1
1
1
1
1.11894
1
1
1.11837
1.11885
1.08732
1
1
1
0.951534
1.11989
1.08725
1
1
1
1
1.11884
1
1
1
1.11842
1
1
1.08865
1.12303
1.01432
0.919118
1.11899
1.08655
1.1187
1
1.06179
1
1
1
0.892809
1.00063
0.894598
1
0.884945
0.887776
1
0.886816
1
1
1
1.05672
1
1.11885
1.11881
1.00053
1.06204
1.10138
0.88889
0.926741
0.974969
1
1.11841
1.11982
1.11847
1.11854
1.1035
0.964757
1
1.10378
1
1.11365
1
1
0.998932
1.00348
1
1
1
1.11921
1
0.893046
1
1.11871
0.897601
1
1
1.11859
1
1.11856
0.99989
1
1
1.11878
1.10872
1
1.12332
1
1
1.00453
1
1.05538
1
1
0.886801
1
1
1.11865
1
1.11871
1
1.00001
0.894683
1
1
0.911538
1.00031
1
1.11935
0.887891
1.11891
0.904514
1.11877
1
1
1
1
1
1
1
1
1
1
1
1.11442
1
1.11914
1.1204
0.892602
1
1
1
1
1
1
1.11551
1
1
0.892068
1
1
1.11964
1
1
1.04772
1.10069
0.897874
0.887511
0.908734
0.920153
1
0.998972
0.909909
1.00014
1.10853
0.999128
1
1
1.11936
1
1
1
0.936184
1
1.04561
1
1
1.05304
1.11872
1
0.901477
1
1
1
0.998982
1
1.11941
1.1186
1
0.898463
1
1.06817
0.894518
1
0.974922
1
0.998857
0.882086
1
1
1
0.99883
0.887114
1
0.888493
0.999538
1.06645
1.10708
0.895057
0.90261
1
0.997294
1
0.999622
1
1.11862
1.11872
1
1.00721
1.11899
1.1185
1
1
1.11865
1
1
1.00001
1
1.1208
1
1
1.00507
1
0.999592
0.895681
1
1
1
1
1
1.11926
1.01478
1.00001
1
1
1
1
1
1.00001
1
0.887462
1.02858
0.999596
1.11582
1.12012
1
1.00422
1.11891
1.1046
1
1
0.882932
1.11848
1
1.1199
1
1.11915
1.08642
0.891886
1
0.895579
1.10822
0.999913
1
0.89232
0.89254
1
1
1.10139
1
1
0.889355
1
1
1
1.04026
1
0.893166
1.1183
1
1
1
1
1.11887
1
1
1.11756
1.10647
1
1
1
1.11833
0.888953
1
1.1189
1.1184
1
1.09534
1
1.00001
1
1
1.11038
1.00533
1
0.894236
1.07007
1
1
0.999461
1
1
1.11778
1
1
1.00001
1
1.11893
1
1
1
1
1
1
1
1.05469
1
1.11824
1
1
1.11769
1
1
1
1.11851
1.11891
1.01391
1
0.999338
1
1
1
1
1.12019
1
1
1.11808
0.890285
1
1
1
1
1
1
1.09858
1
1
1.11918
1.11913
1
1
1
1.11883
1.11913
1
0.999905
1.12101
1
1
1
1
0.898877
1.00878
0.998886
0.998803
1
1
0.895473
1.11882
1
0.881123
1
1.11908
1.11423
0.898071
0.999831
1.11834
1.11879
1.11845
1
1
0.985937
1.10624
1.10144
0.884874
1
1
1
1.1182
1.11851
0.885212
0.999241
1
1.11827
0.898658
1
1.12001
0.892111
0.993272
1.00197
1
1.12102
1
1
1
1
1
1
1.00003
1.11092
1
1
1.12046
1
1
1
1.11865
1
0.887359
1
1
1
1.04451
1
1
1
1
1
0.93145
1
0.901208
1
1.11842
1.00002
0.960348
0.963515
1
1.00109
1.06523
1
1
0.878572
1.11858
1.11852
1.11861
1
0.886258
0.889398
1
1.11888
1
1
1
1
1
1.00001
1
0.893429
1.0804
1
1
0.896037
0.998218
1
1
1
1
0.882839
1
0.912855
1
1
1.12027
1
1
0.891858
1
1.11842
1
0.890172
1
0.892057
1
1.00222
1.11854
1.12174
1
1
1.12023
1
1
1.03071
0.999088
1
0.99948
1
1.11897
1
0.88778
1
1.12064
0.999721
1
1
0.949051
1
0.999741
0.896493
1.11815
1.04678
1
1
0.973802
1
1
1
0.947044
1
1
1
1.11872
1
0.892879
1
1
1
1
0.88748
1.11846
1.1076
0.895636
1
1.11924
1
1
1.11852
1.11962
1.10074
0.889083
0.999385
0.999776
1
1.11851
1
1
1
1
1.11949
1.00001
1
1
1.11785
1
1
1.11853
0.87508
1
1
1
0.891883
1
1
1
0.999649
1
1
1
1
1.09662
1
1.11982
1.11921
1.12227
1.11892
1.1188
1.11858
1
1.11818
1
1.11865
1.1186
1
0.999692
0.884886
1.10305
0.999976
1
1
1
1
0.998724
1
1.01925
1
1
1
0.957295
1.11879
1.11882
1.12001
1.10751
0.999965
1
1.00648
1.11891
0.999392
1.01992
0.999172
0.889428
1
1.00001
1
1
1
1
1
1.11859
0.890401
1.1187
1.11858
0.998438
0.893252
1
1
1
1.11879
0.89242
1.10614
0.889235
1.11862
1.11914
0.893491
1.11901
1.00703
1
1.1193
0.939928
1
0.999658
0.90244
1
0.891028
1
1.11849
1.11873
0.920636
1
1.11929
0.889984
1
0.887841
1
1.11834
1
1
1.11805
1
0.951009
1
0.99991
0.892584
1.11857
0.999849
1
0.899052
1
1
1
1
1.06945
1
1.1185
1
1
1.12277
1
1
1.1189
1
0.894982
1
0.906012
1
1
1
1
1
1.11428
1.07019
1.11842
1
1.11838
1.11073
0.886565
0.901782
1
1
1.11808
1
0.893366
1
0.996517
1
1
1.11891
1
1.11868
0.899202
1.11784
1
0.898624
1
1
1.12051
1.11805
1
1.00001
1
1.11775
1
1
0.897052
0.999832
0.902304
1
1
1
1.11885
1.11966
1.11937
1
1
0.882034
1
1.11904
1
1
1
1.11512
1.11854
1.11874
0.886657
1.11889
1.11862
0.887127
1.11925
1.00001
0.892711
1.0048
1
1
1.11891
0.890633
1.07793
0.888285
1.11826
0.999266
0.884547
1.11936
1
1
1
1
1.11853
1.11991
0.890745
1
1.00001
0.892612
1.00001
1
0.884966
0.889731
1.08639
1.11863
0.999559
1.11855
1
1.11771
0.941625
0.889613
1.11856
1.12043
1
1.1186
1
1
1.1185
1
1.0968
1.11932
1
1
1
1
1.1189
1.11713
1.11876
1
1
1.11828
1.12001
1.11861
1
1.11857
1
1
1
1
1
0.88687
0.952287
0.897877
1
1
1.11897
1
1
1.11866
0.884328
1
1.11867
1.11722
1.11381
0.897965
1
0.88372
1
1.00001
1.11974
1.0604
1.11976
1.10973
1
0.885
1
1.11827
1.08836
0.893732
1
1
1
0.939639
1
1
1.12126
1
0.895951
1.11835
1
1
1
1
1
1.09802
1.02963
1
1.11893
1
1.11837
1
0.999263
1
1.11863
1.11854
1.11885
1.11951
0.99988
1.11959
1
1.11843
1.11893
1.10168
1
1
0.88896
1.11845
1
1
1.11806
1.1185
1.1182
1
1.11801
1
1
1.00001
1.11764
1.11888
1.03663
1.02694
1.1188
1.1185
0.913712
1
1
1
1
1
1.04483
1
1
1.09923
0.906039
0.999987
1
1.11849
0.999965
0.999941
1.01871
1.10625
1.11904
0.978054
1
0.897634
1
1.00069
1.11841
1.119
1.11531
0.999711
1
1
0.881061
1
1
1.11836
1.01418
1
1
1
1
1
1
1
0.999981
1.11968
1
1
1
1
1
1.07584
1
1.05951
1
1
1.1181
1.11966
0.893126
0.99966
1
1
1
0.889241
1.11935
1.11851
1
1
1
1
1
1
1
1
1.11857
1.11829
0.891792
1.01376
0.893093
1
0.884728
1
1.11891
1.03781
1
1
0.912306
1
1.11369
0.939713
0.999034
0.886994
1
1
1.11919
1.00001
0.999213
0.884354
1.11974
1.12098
1
1
1
1
1.11131
1
1
1.11835
0.999691
1.11898
1.00001
1
1
0.896866
1
1
1.11906
0.888014
0.930316
0.896329
1.11887
0.99981
1
1.11949
0.8961
0.89582
1.00557
1
1
1.12013
1.00001
1.05691
1
1
1.11996
0.89419
1
1
1.00004
1.1192
1.00004
1.11954
1
1.00001
1
1
0.908307
1
0.936401
1
1
1.1188
0.899268
1
0.939275
0.94808
1
1
1.11888
1
1
1
1.1187
1.11848
1.00001
1.11803
1.12023
0.930241
1.11749
1.1148
1
1
1.1199
1
1
1
1
1
1.11843
1.11836
1
1
1
1.11886
1.00006
1
0.895911
0.904468
1
1.00001
1.04658
1
1
0.970939
0.888939
1
1
1
1.11962
1.11013
1.11853
1
1
1
1
0.894429
1
1.11755
1
1.11747
0.87471
1.11786
1
1
1
0.881324
1
1.11908
1.00001
1
0.892002
1.04593
1
0.999902
1.11915
0.885648
0.894765
1
1.1198
0.88534
0.894803
1
0.903606
1
1
1
1
0.881328
1
1
1
1
1.11927
1
1.09364
0.899804
1
1
1
0.9007
1.11858
1
1
0.999024
1.11479
1
1.11827
1.11925
1
1
0.915485
0.896823
1
1
0.89615
1.03869
1.05849
1
1
1.11832
0.999275
1
0.999384
1.12035
1
1
1
1
1
1
1.11888
1
1.04534
1.04103
0.900384
1.10656
1
1.11852
1.11859
1
1
1
0.971343
0.895268
1
1.06452
0.999895
1.10383
1
1
1
1
1
1.00211
1.05639
1.11897
1.11893
1
1.11841
1
0.873983
1
0.999292
0.999935
1
0.879872
1
0.888691
1.00001
1.1186
1.11978
0.896853
1.11978
0.894043
0.998859
1.09572
0.873468
1.0841
1
1
0.99955
1
1
1
1.00002
1
0.889966
1
1
1
1
0.999886
1.11873
0.949769
1
1
1
1.01032
1
1
1
1.07133
0.923559
1
1
1
1.01613
1.11864
1
0.888967
1
1.11885
0.97658
0.889587
1
0.887908
1
1
1.11309
0.999497
1.11413
1
1.00245
1
1
1.11888
1
1
1
1
1.0264
1
1.11866
1.11876
1.11916
0.892016
1.11839
0.999186
1.09848
1
1
0.892549
1
1
0.889019
1.11727
1
1
0.999991
1
1
1
0.881902
0.89139
1
1.12186
1
1.05906
1.11845
0.889155
1.10105
1
1
0.892734
1
1
1.11824
1.11865
1.04806
1
1
1.00045
1.11959
0.891139
0.887263
1.11984
1.11853
1.08314
1.05008
1
0.970263
1
1
1
1.1124
1.12004
1.11885
1
1
1.11855
0.89547
1.10666
0.882961
1
0.883154
1
0.87654
1.11854
0.887555
1
0.996527
0.902785
1
1
1
0.963611
1.10982
1.11877
1.11897
1.12007
1
1
1.11955
1
1
1.11902
1
0.880552
1
0.895906
1
1.11988
1
1
1.00654
1.09222
1
0.999625
0.879718
1.11879
1
0.89461
1.02467
1
1
1.09474
1.11873
1.11867
1
1.11799
1.03849
1
1.00643
1.11921
1
1
1
1
1.11839
1
0.901595
1.11912
0.89238
0.900885
0.950657
1.11807
1.045
1.1188
1
1.12159
0.999257
1.00001
1.11867
1.11998
1
1.11909
1
1.11828
1
1.11992
1
1.00001
0.999994
1.11804
0.883562
0.890455
0.999423
1
1
1
0.891111
1
1.07962
1
0.882463
1
1.05045
1.1186
1.11777
1
1
1.00001
0.999809
1
1.11952
1.11865
1
1.05098
1.11879
0.96034
1.11873
1.0001
0.901824
1.02552
0.881952
1
1
1.02225
1.12061
1
1
1.01397
0.9996
1
0.897256
1
0.934759
1
1.11903
1
1
0.878489
1.03106
1.02085
0.999585
1.11839
1.11816
0.933879
0.999455
0.881949
0.881108
0.877343
1
1
1
0.999717
0.924695
0.892248
1
1.11888
0.999924
1.11907
1.11873
1.11975
1.11865
1
0.873613
1.11853
0.892891
1
1.11837
1.11849
0.999052
0.946239
1.11865
1.08816
1
0.901294
1
1
1.11842
1
1.00771
1.1184
1
0.90162
0.887497
1
1
0.891606
0.871065
1.11879
1.00001
1
0.897937
0.88168
1.11771
1.11532
1.11218
1.1198
1.03542
0.995865
1.05303
1.12111
1.09244
1
1.06579
1
0.877189
0.966596
1
0.888335
1.11878
1.00647
1.11795
1
1.11869
1.11962
1
1.11895
1.11853
0.888684
1.11974
1
1.12052
1
0.920009
0.879942
1.11897
1
1
1
0.891677
1.11889
1.11885
1
0.892807
1
1
0.892134
1.00001
0.883761
1.1198
1
0.955979
0.870185
1
1
1.07125
1
1
1
1.02081
0.892216
1
1
1
1.11879
0.895527
1
1.11857
0.894072
0.88157
1
1
1.12023
1
1.11902
1
1.11869
0.893718
1
1
0.895775
0.943847
0.897415
1
1
1
1
1.11927
0.893591
1
0.892968
1
1.12003
1
1
0.980066
1
1
0.956255
0.999905
1.00001
1
0.895029
0.893386
1
1
1
1
0.940166
1.11802
1.11968
1
0.892976
0.877981
0.981084
0.891018
1
0.940324
1
0.885953
0.996622
1
1
0.89357
1
1.11815
1.11721
0.891129
1
1
1
1.11802
1
1.01543
0.956892
1.04145
0.881963
1.0513
0.8985
1
1
0.923371
0.974356
1
1.01307
1
1
0.879517
1
0.984849
1.01262
0.89325
1
1.09846
0.935048
0.964272
1
1
1
0.8959
1
0.890744
0.894403
1
0.949265
0.883554
1.01907
0.931481
0.889011
1.11875
1
1.11867
1.06737
0.918109
1.11894
0.890789
0.999716
1.1197
1
1
1.11833
1
0.91387
1
1.01729
1
1
1.11819
1
0.918878
0.947947
1.12043
0.983203
1
0.922197
1.1186
1.11925
0.972846
1
1.11853
1.03462
0.955503
1
1.00648
1
0.894067
1.05546
0.932195
0.919212
1
1
0.894875
1.1183
0.992752
0.891895
0.884239
0.968548
1
1.00586
1.11976
1.11817
1
1
1
0.892305
1.06058
0.999997
1.11815
1.11206
0.902947
1
1.02373
0.963907
1.07552
1.10844
1
1.01334
1
1.00002
0.89396
0.955783
1
1
0.946813
0.896838
1.01204
1
1
0.892581
1.05754
1
1.11936
1
1.0122
1.069
1
1.11897
1
1
1.11862
1
0.887383
1.1198
0.904191
1.03517
1
0.888324
0.999973
1
1.00001
1
0.935951
1.00776
0.892188
1.08863
1.12003
0.880443
1
1
1
1
1
0.99254
0.88328
1.01664
0.892857
0.888675
1.02485
1
0.999943
1.03151
1
1
0.887304
0.998139
1
1
1.03748
1
1.11937
1
1.11954
1.02628
1.00384
0.891332
1
1
0.893692
1
1
1
1
1.1187
1.01247
0.99945
1
0.888435
1.01526
1
1
1.07885
1
0.890011
1.11847
1
1
1
1.11909
0.897944
0.965539
0.889772
1.09128
1.11826
1
1
1.11848
1
0.873254
1
1
1
1
1
0.92772
1
1.11882
1
1
1.04362
1.11934
0.897095
0.962602
1
1.11859
1
1
1
1
1
1.11849
1.11956
0.870605
1.11853
0.881518
1
1
1.11765
1
1.11983
1.00183
1.00792
1.02109
1.1189
1.02051
1.0835
0.880641
1
0.884995
0.990054
1
1.11863
1
1
0.884342
1.11861
1
1.11931
1
1
1
1
1
1
0.890968
1.11963
0.952961
1.11869
1
0.886769
0.896744
0.910965
1.11864
1.11864
0.995797
1
0.930244
1
1.05062
1
1.11879
0.886542
0.895259
0.955866
1
1.11871
1
1.0245
0.889483
1
1.12006
1.10937
0.999671
1
1.11891
0.879781
1.11851
1.11843
1.11885
0.893417
1.02666
1
1
0.885585
1
0.934468
0.940498
1
1.00001
1.11862
1
1.12158
1.02486
1
1.01189
1.11932
1
0.894973
1
0.932279
1
1
1.09802
1
0.93514
1
0.897019
1.01028
0.992736
0.877807
1.11839
1.09858
1.11976
0.89279
0.905938
0.998843
1
1
0.90299
1.11258
0.887892
0.99999
1
1.11842
1.11923
0.975892
1
0.880824
0.919596
1.08184
0.996756
0.883951
1
0.893462
1.03222
0.894075
1
1.00002
0.948313
1.12002
1.11888
0.960942
0.999883
1
1
0.918758
1
0.889654
1
0.871116
0.887806
1
1
1.00001
0.895698
1.11867
1
1
1.00002
1.00001
0.891286
1.11886
1.11835
1
0.891887
1.12006
1
1.02664
1
1
1.11888
0.888689
1
1
0.882659
0.918097
0.890342
0.889783
1
0.918066
0.999192
1.02756
0.885035
1
1
1.03622
1
1.10698
1
1
1.08877
0.903312
1
0.885182
1.03686
1.11816
1
1
0.893152
0.894366
0.880755
0.927497
0.898027
1.09052
0.999829
1
1
1
1
1.11902
0.895027
1
0.977383
0.999909
0.999721
0.999982
0.934628
1.03701
1
1.11772
1.11875
1
1
1.11363
1.00001
1
1.11851
0.891776
1.12086
1
0.887753
1.11844
1.00002
1
0.949838
1
0.882302
1
1.11947
1
1
1.11866
1
1
1.11903
1
1
1
1.11997
1
0.928171
0.916293
1
0.880621
1.11866
1
1
0.99495
1
1.11974
1.07007
1.09759
1
1
0.895595
1
0.872239
1.11855
1.11962
1.11908
1
1.11983
0.888358
1
0.877393
1.09793
1.11234
1.11942
1.11874
0.933153
0.887068
1
1.07992
1.1194
1.11909
1.11851
0.912493
1.04711
1
1.0914
0.926757
1
1
1
1.00001
0.96327
1
1.11809
1
1
1
1
1
1
1.00002
1.11809
1
1.1198
1.09137
0.882535
1.12012
1.0093
1.06472
1
1.11828
1
0.887416
1
1
1
1
1.10345
1
0.885301
1.1181
0.882384
1.11851
1.09723
1.0658
1
1.02452
1.05751
0.998751
0.888059
0.920988
1.00001
1
0.976249
1
0.892134
1.11923
0.89179
0.987486
0.955767
1
1
1
1.00387
1
1
0.888286
0.998976
1.11973
1
1.11845
1
0.890624
1
1
1.11848
1.11837
0.88762
1
1.11911
1
0.937717
0.888288
1.1191
1.10812
1
1.02175
1.11892
0.999641
1
1.0537
1.10473
1.11875
0.998777
1
1
1.10281
1
1
1
1.11864
0.99956
1
1
1.11842
1
1
0.89139
1
1
1
1.11904
1
1
0.95161
1.03884
1.10822
0.924252
1
1.11877
1
1.04492
1
1.1203
0.999275
1.11837
1
0.881087
1
1.08422
1
1
1.11099
1
1.11895
1
1.11809
0.902843
0.893661
1.11937
1
1.10267
1
1.11944
1
1
1.00001
1.11922
1.11891
1.03485
1.1187
0.998671
0.876193
1.11855
0.967085
1
1.1146
1
1.11863
1
1.11913
1.11944
0.998884
0.886004
1
1.11876
1
1.00874
1
1
0.999453
0.923471
1.10706
1
1.11152
1
0.957366
0.882245
1.1184
1.11855
0.895706
1
1.11951
1.12136
1.11998
0.90677
1.11836
0.892796
1.11904
1.12079
1
1
1.11881
1
1
1
1
0.888443
1
1
1.11956
1.11876
1
1.11842
1
1.1219
1.11967
1
1.10013
1
0.882942
1.11834
1.08997
1.03914
0.886035
1.11903
1
1
0.88685
1
1
1.11856
1
1
0.927115
1
1.1186
1.00003
1.1186
0.88635
1.11991
1
1.11831
1.11331
0.967088
1
1.11881
0.930178
1.11945
1.08699
1.11879
1.11797
0.999295
1.11986
1.11862
1.11839
1.11812
1.00015
1
0.88244
1
1.11948
0.946962
1.10864
1
1.11635
1
1
1
1
1
1.11888
0.884333
0.881693
1.11887
1.11847
1
1
1
1
1
1.11799
1.10583
1.11818
1.00491
1
1
1
1.00001
1.11815
1.11836
1
1.12039
1.11972
0.890343
1.08684
1
1.11856
1.11944
1.11782
0.99944
1.11944
1.11912
1
1.1079
1
1
1
1
1
1
1.11865
1.12007
1.11008
1.11843
0.886878
0.908546
1.11917
1.11827
1
0.872473
0.987183
1
1.06047
0.884184
1
0.999846
0.999509
0.893564
1
1.11815
1
1
1
1.11931
0.984913
1
1.11839
1.11867
1
1.11908
1
1
1.11923
1
0.882214
1
1.11741
1
1
0.890932
1
1.11821
1
0.882642
0.892755
1
1.11484
1
0.883856
0.970074
1
1.1187
1
1
1
1.11937
1
0.886692
1.01736
1.11916
1.11876
1.11847
1.01349
1.11895
1.1187
1
1
1
1
1
1.11849
1
0.999805
1.11837
1
0.884751
1
1.11836
1.0586
1.0173
1.06134
1.01852
1.11987
0.907124
1.11856
1
0.892394
0.999177
1.11834
0.983127
1.11836
1.11881
1.11545
1
1.11932
1.11841
1.11858
1
1.00001
1
1
1.1191
1.08665
1
1
0.891755
0.999046
1
1.11865
1
1.11865
1.11847
1.11789
0.97609
1.11893
1.11861
0.995672
1.06217
1.11931
1.11874
1
1.11045
0.943879
1.11666
0.995788
1.11862
1
1.11897
1.11893
1
0.8926
0.983745
0.898594
1
1.02404
0.999048
1.11784
1
1
0.99886
1
1.06345
1.11098
1
1
1.1184
1
1
1.08769
1.11846
1.11369
1.11861
1.11857
1
1.11857
0.905395
1.11939
1
0.995382
0.887853
1
1
0.925158
1
1.04476
1
1.11888
1
1.11735
1.07715
0.886638
1
1
1
1
1
1.11886
1.00314
1
1.1203
1
1.11876
1.11867
1
1
0.997882
0.999959
0.895463
0.881396
0.911981
1.0227
1
0.99955
0.897051
1.00001
1
1.11845
0.97851
1.11062
1.10087
1
1
1
1
1
1.11869
1.11911
1
1.1181
1
1.11987
1.08257
0.999042
1
1
1
1.06971
1
0.988277
1
1.11823
1
1
1.11876
1
1
1
1
1
1.119
0.889368
0.99881
1.10776
1.11857
1
1.11918
1
1
1
1
0.903862
1
1.11852
1.11875
1.11847
1.11991
0.98836
1
1.1024
1.03019
1.11979
1.11895
1.02401
1.11862
1
1
1
1.11874
1
1.11849