/*--------------------------------*- C++ -*----------------------------------*\
  =========                 |
  \\      /  F ield         | OpenFOAM: The Open Source CFD Toolbox
   \\    /   O peration     | Website:  https://openfoam.org
    \\  /    A nd           | Version:  12
     \\/     M anipulation  |
\*---------------------------------------------------------------------------*/
FoamFile
{
    format      ascii;
    class       volScalarField;
    location    "8.2";
    object      T;
}
// * * * * * * * * * * * * * * * * * * * * * * * * * * * * * * * * * * * * * //

dimensions      [0 0 0 1 0 0 0];

internalField   nonuniform List<scalar> 
45568
(
1.40036
1.16051
1.35829
1.30184
1.04034
1.14585
1.24953
1
0.961042
1.30583
1.42232
1.55175
1.40008
1
0.953953
0.780538
1
1
1.09169
1.29792
1
1.36052
1.26293
1
1
1.14916
1
1
0.795781
1.30371
1.06601
1
0.989545
1.31939
1.26394
1.23545
1.04397
1
1.30496
1
1
0.78385
1
1.55289
1
1.56678
0.779865
1.49438
1.26
1
1.48289
1.34785
1
1.3743
1.40834
1.35418
1.43694
1.49573
1.35531
1.15569
1
1.35699
1
1
1.39902
1.28615
1
1.09433
1.22688
1.50809
0.993313
0.882672
1.48092
1.30732
1.44099
1
1
1.17536
1.15406
1
1.34233
1.26639
0.874453
1.48248
1.3829
1.00001
1.52027
1.12975
1.24348
0.958237
1.21956
1
1.31823
1.49995
1
1
1.50574
1.30778
1.09804
1.30533
1.02135
1.38811
1.65639
1
1
1
1
1.35754
1
1.49412
1
0.975961
1.25264
1
1.49833
1
1
1.6561
1.41454
1.39815
1
1.32787
1.35391
1.35789
1
1.3287
1.50557
1.37869
1.51923
1
1.5388
1.45749
1.50743
1
0.786376
1
1
1
1.38396
1.39213
1
1.35182
1.31294
1
0.761485
1
1
1
1
1
1.18027
1
0.818477
1.10184
0.809428
1
1
1.09461
0.774355
1.40218
0.768562
1
1.37223
0.786148
1.57694
0.965219
1.23257
1
1.3928
1
0.781513
1
1.14233
1
1.41064
0.774957
0.769507
1.37788
1.52052
1.55579
1.40271
1.37609
0.783151
0.778929
1.17136
1.23902
1
1.16442
1.21967
0.785333
0.783591
1.29886
1.21891
1.16991
1.42467
1.01915
0.784719
1.28677
1.56558
0.782365
1.28432
1.28394
1.36015
1.62218
1.57297
1.47372
1.22438
1.34861
1.06936
1.40475
1.09209
1
1.36749
1
1.36071
0.782775
0.78002
1
1.29379
1.36486
1.40065
1.27657
1.32294
1.18717
1.43796
1.27108
0.781908
0.779309
1
1.21954
1.03002
1.30309
0.827696
1.52979
1.33847
1.42173
0.966892
1.25182
1
1.40945
0.756174
1.25375
1.42354
1.00001
1.25814
1.18054
1.36113
1.25995
1.22083
1.18062
1
1.15103
1.21959
1.5079
0.781302
1.11845
0.781489
0.779204
0.779079
1.15551
1
1.11823
1.17604
1
1.4754
1.11404
1.18507
1.32371
1.49358
0.782202
1.16329
0.779946
1
1.51833
1.62684
1.25866
1
1.21208
1
1
1
1.65519
1
1.58371
1.44696
1.30449
1.10834
1.27388
1.29501
1.11023
1.27465
1.44539
1.54056
1.30408
1
1
1.40321
1.30394
1.31967
1.25248
1.14149
1.26603
1
1.36299
1.29843
1.06549
1.21184
1.57004
1
1.36322
1.36086
1
1.35383
0.947342
0.970421
1.31607
1.36032
1.15636
0.841152
1.36727
1.35913
1.40983
1.35895
1
1
1.29871
1.22561
1.36283
1.30418
1
1
1.3897
0.852887
1.25881
1
1.51697
1.65758
1.2215
1.51797
1.43728
1.66191
1.38364
1.36101
1.2071
1
1
1
1.0273
1
1.00149
1.27087
1.28843
1
1.18751
1.26685
1.3327
0.920095
1
1.40052
1.34403
1.63956
0.93007
1.29665
1.17257
1.07766
1.2719
1
1.30736
1.07508
1.55889
1.41643
1.36961
1.42738
1
1.23062
1.26974
1
1.33644
1.33146
0.984683
1.24795
1.2457
1
1.48313
0.782315
1
1.22807
1.27938
1
1.17341
1.41093
1
1.28474
1
0.790521
1
1.58576
1
1
1.12757
1
1
1.27411
1
1
1.41342
1
1
1.29843
1
1
1
1.41281
1
0.965237
1.29702
1
1.32533
1.32044
1.45294
1.25093
1
1
1
0.961381
1
1.33758
1.3245
1.42559
1
1.65605
1
1
1
1
1.27805
1.16226
1
1
1.27523
0.782456
1.28025
1
1.30687
1.16616
1.223
1
1
1.46643
1.4067
1.1223
1.3289
0.999997
0.982046
1.14487
1
1.17371
1.50587
1.30604
1.39811
1
1
1.25519
1
1
1.42496
1.35493
1.2366
0.791217
0.78269
1.08735
1.18959
1
1.59953
1
1.54705
1.3525
1.47207
1.43281
1.34171
1.47412
1.28512
1.00245
1.04395
1
1.34407
1.40912
1
1.27435
1.51789
1
1
1.26539
1
0.772325
1.19342
0.767013
1
1.28563
1.31157
1
1.30685
1.36884
1
1
1.29739
1.3363
1.37383
1.31457
1
1.29792
1.17468
1.31571
1
1.5538
1
1
0.795521
1
1
1
1
1.36959
1.33897
1.16757
1
1
0.983973
1.22634
1
1
1.35831
1.23465
1.34827
1.23138
1
1.25547
0.787232
1
1.17209
1
1.37425
1
1.22842
1.40748
1
1
0.938548
1.2402
1
1
1
0.785387
0.784056
1
1.64429
1
1
1.17842
1
1.4499
0.788084
1.17184
1.28598
1.24052
1
1
1.2458
1
1
1
0.990509
0.921163
1
1.2513
1.70307
0.99606
1.57507
1
0.769329
1.03757
1.26381
1.65146
1.20389
1.38386
1.25901
1.47895
1.05445
0.973191
1.28846
1.16557
1
1.42585
1.11048
1
1.48322
1.07033
1.22818
1.23327
1.40789
0.783841
1.17119
1
1
1.50823
0.781625
0.779055
1.48361
1.2244
1.53346
1
1.22051
1
0.948996
1.22127
1.26968
1.39807
1.2724
1.26112
1
1.22442
1
1.56534
1.31679
1.22734
1.58758
0.783581
1
1.14503
1.24724
1
1.31173
1.13062
1.3687
0.962264
1.35865
1.41355
1.30535
1
1.36118
1.66124
1.18571
1.22967
0.781837
1
1.59726
1
1.37389
1
1
1.27908
1.41481
1.48075
1
1.27452
1.11432
1.64764
1.33147
1.1974
1.30911
1.18973
1.08623
1.19131
1.18916
1.22925
1.64759
1.38689
1.2612
1.00445
1.07512
1
1.06719
0.998123
1.47642
1.22037
1.55221
0.978452
1
1.59992
1
1.22305
1.22922
1.29557
1.14971
1.66145
1.16977
1
1
1.37619
1.16637
0.781617
1.32206
1.41493
1
1.3956
0.779329
1.16533
1.37275
1.10843
1.11292
1.55227
1
1
1
1.32067
1
1.30618
1
1
1
1.00001
1.41533
1.26424
1.10658
1
1
0.99135
1.26617
1.67499
0.98539
1.42615
1.34241
1.22978
1.41123
1.40901
1.46989
1.32947
0.999352
1.37573
1
1
1.24152
1.42807
1.30197
1.25986
1.05012
1.32712
1.16
1.45071
1.34885
1.31231
1.15478
1.36784
1.23526
1.26753
1
1.28361
1.26277
1.42954
1.26232
1.60518
1.34999
1.26964
1.34223
1
1.3749
1.33626
1
1.14527
1.27687
1
1.35566
1.25167
1.48359
1.06123
1
1
1.07494
1.32997
1.26776
1.10904
1.24863
1.16018
1.23176
1.35931
1.32038
1.00526
1.53845
0.961577
1.22588
1.24642
1.03986
1.08492
1.22531
1.38646
1.17924
1.24756
1.43002
1.36936
1.41252
1.21296
1.54305
1.16396
1.08952
1.24631
1.37859
1.31273
1.23432
1.24485
1.23407
1.3495
1.43777
0.857166
1.31233
0.870203
1.47669
1.39334
1.23197
1.31662
1.26379
0.921966
1.24668
1.13036
1.26964
1
0.980441
1
1.04377
1.13888
1.2476
1
1.19076
1
1.63079
1.22017
1.35098
1.41753
1.36015
1.26373
1.2524
1.40374
1.25786
1.34801
1.6548
1
1.17437
1
1.36013
1
1
1.39956
1.26424
1.31513
1.34426
1.05876
1.17421
1.27071
1.27267
1.44513
1.34823
1.37062
1
1.30611
1.47221
1.22599
1.25921
1.21831
1
0.77096
1.29158
0.776364
1.36135
1.13062
1
1.18088
1.16359
1.39104
1.36664
1
1.17799
1.27637
1.12251
1.19371
1.23004
1.15199
1.26279
1.36937
1.24953
1.22914
1.21978
1.24939
1.44766
1.27308
1.15342
1.26441
1.23434
1.37003
1.4768
1
1
1.42184
1
1.32932
1.50791
1.45302
1.15786
0.766652
1.26256
1.22786
0.772073
1.22369
1.33031
1.26999
1.50716
1.63513
1.17393
1.26599
1.27927
1
1.4115
1.18242
1.26474
1.32891
1.23691
1.23251
1.26041
1
1.26068
1.33748
1.25791
1.25163
0.980096
1.25953
1.08979
1
1.028
1.25972
1.23311
0.993529
1.05751
0.775209
0.778458
0.928567
1.15759
1.25233
1.28361
0.998462
1.25814
1.27204
0.956904
1.32646
1
1.15048
1.411
0.771321
1.16227
1.1764
1.42515
1
1
1.16424
1
1.23554
1.30093
1.23091
0.780954
0.783999
1.65771
1.35316
1
1.60642
1.29804
1.31589
1.20337
1.22491
1.04802
1
1.29743
0.994505
1.22855
1.00815
1
1.01762
0.994261
0.783972
1.01077
1.33128
1
1.15433
0.999999
1
1
0.997958
1.36997
1.26178
1
1
1.21847
1.03644
1.03258
1.29424
1.28937
1.29357
1.1186
1.11968
0.788928
1
1
1.27238
1.17321
0.783721
0.78533
1.18759
1.26758
1.26291
1.25059
1.24295
1
1
1.38849
1
0.762129
1.23019
1
1.27138
1.25745
1
1.17091
1.20071
1.25823
1.16658
0.996736
1
1.59945
0.784566
1.35046
1.25078
1.4066
1
1.01067
1
1
1.28362
1.29032
1.5391
1.32001
1.21109
1
1.18357
1.1078
1.10303
1.24483
0.781029
0.784461
1.27314
1.11506
0.783527
1.22338
0.995844
1.21821
0.777945
1.10619
1.0673
1
1.24573
1.29269
1.09465
1.10823
1.22997
1.10326
1.09936
0.779327
1.38949
1.23784
0.994347
1.33264
1.15547
1.09109
1.11098
1.26607
0.781968
1.17223
1.30237
1
1
1.16388
1.30637
1.54688
1
1.23112
1.15854
1.33382
1.47338
1.29622
1.4253
1
1.11272
0.985471
1.67965
1.30598
1
1.00211
1.28113
0.978769
1.27933
1.22962
1
1.41315
1.0293
1.41157
1.34624
1.04229
1.23022
1.41309
1.02755
1.25413
1
0.999996
1.33247
1.10403
1.14768
1.07105
1.29323
1.24466
1.06957
1.30278
1.2841
1.09213
1
1.36465
1.36845
1.24487
1.24285
1.23733
1.14968
1.19979
1.25849
1
1.38523
1.19225
1.47095
1
1.10275
0.778776
1.42668
1.41529
1.18266
1.35593
1.03484
1.22199
1.32171
1.03319
1.30567
1.12973
1.10188
1
1
1.27723
1.36171
1
1.53853
1.33965
1.02647
1.17153
1
1.31253
1.02627
1.19668
1.2517
1.22584
1
1.11279
1
1.34558
1
0.979561
1.22861
1.35567
1.30354
1.23046
0.995835
1
1.02311
1.02072
0.781592
1.3597
1.19258
1.35449
1.47634
1.35336
1
1.3612
0.778943
1.36297
1.30477
1.25937
1.36095
1.29691
1.36664
1.36946
0.781351
1.2553
1
1.26641
1.25876
1.37045
1.26999
1.42849
1.36862
0.999976
1.15318
1.13874
1.37154
1.37369
1.21759
1
1.15239
1.35697
1.35645
1.1431
1.37933
1
1.37281
1
1
1.36621
1.16996
1.25675
1.1405
1.13615
1
1
1.29701
1.31489
1.09325
0.977695
1.27085
1.01139
1.01846
1.04086
0.95809
1.31508
1.04675
1.03365
1
0.981942
1.30055
1.31304
0.955822
0.779175
1.22912
1.27983
0.781131
1
1.06489
1.36621
1.14369
1.207
1.29722
1
1.32636
1
1.21143
1.29645
1.14199
1.19919
1
0.997676
1.1385
1.00375
1.36173
1.12622
1.09878
1.19734
1.23561
1.35994
1
1.14419
1.14753
1.15391
1.15073
1.15855
1.1562
1.27881
1.25894
1
1.16495
1
1.16251
1.31635
1.2586
1.21343
1.25803
0.800727
1.37169
1.26331
1.26251
1.17183
1.16894
1.3617
1.2337
1.22137
0.782716
0.809628
1.18004
1.17855
1.19017
1
1
1.2696
1.29005
1.05977
1.10478
1.26381
1.36055
1.18798
1
1
1.16424
1.12281
1
1
1.38434
1
1.20002
1.19874
1.20967
1.20742
1.13324
1.1062
1.2809
1.34948
1.15252
1.17173
1.22654
1.22615
1.3616
1.15408
1.16765
0.778671
1.14416
1.0563
1
1.01712
1.06941
0.780635
1.34587
0.84662
0.781754
1.2257
1.35906
1
0.992654
1
1.30986
1.08955
1.34921
1.36086
0.940015
1.42618
1.41146
1.07939
1.36104
1.39642
1.30756
1.14347
1.30906
0.778314
1.36014
1.17627
1.25722
1.52253
1.4801
1.26114
1.35822
1.00016
1.19677
1.36131
1.10866
1.1961
1.35877
1.18954
1.56795
1.40286
1.36053
1.27584
1.12517
1.55552
1.1846
1.3607
1.23684
0.999983
1.36297
1.11587
1.20714
1
1.14327
1.13256
1.27336
1.46579
1.23766
1.10539
1.37328
1.25027
1
1.47308
1.02344
1.65877
1.3613
1.35993
1.54828
1.55891
1.26084
1.38866
1.36203
1.19637
1.44248
1.13202
1.47821
1.29565
1.1617
1.16407
1.35381
1
1
1.15158
1.27344
1.27553
1.35567
1.24623
1.3491
1.03524
1.46347
1.35107
1.24019
1.22236
1
1.55976
1.25845
1.56039
1.56008
1.27101
1.55678
1.67303
1.6128
1.11506
1.10479
1.63611
1
1
1.00001
1.39048
1
1
1
1.3943
1
1.21864
1.15082
1.31111
1.3146
1.30487
0.943073
1.27522
0.781923
1.53949
1.35013
0.989665
0.98783
1.04973
1.22883
1.31641
1.00965
1.16398
1.21899
1
1.40977
0.980267
1.27926
1.15653
1
1
1.28763
1.15699
1.40222
1.33702
1.40895
1.38773
1.23627
1
1.39671
1.38662
1
1
1.40993
1.19705
0.994956
0.995068
1.09619
1.51859
1.14373
1.06007
1.24868
1
1
1.2356
1.31419
0.987857
1.10724
1
1.10804
1.26366
1.12961
1.41497
1.12691
1.16224
1.506
1.11594
1.31465
1.20885
1.54972
1.22523
1
1.3045
1.36252
1
1
1.2659
1.3598
0.781305
1.55673
1.26857
1.26856
1.29297
1.18804
1.15855
1.33828
1.36747
1.36815
1.13603
1
1.19865
1.26111
1.35926
1.35544
1.25424
1.67527
1.63932
1.31016
1
1.35809
1.18896
1
1.098
0.773409
1.15772
1.23794
1.40745
1.24152
1.28157
1.28934
1.35093
1.27296
1.04903
1.3598
1.283
1.02877
1.03038
1.65989
1
1.55524
1.12445
1.42627
1.23654
1.55013
0.773206
1.64402
1.27888
1.54682
1.28867
1.3094
1.40491
1.55381
0.992908
0.999998
1.22813
1.28932
1.63228
1.27378
1.24981
1.22889
1.11814
1.11835
1
1.16035
1.11032
1.28141
1.56666
1
1.57667
1.05711
1.47196
1.1622
1.3681
1.29129
1.17939
1
1
1.34139
1.32304
1.01456
1.15961
1.21223
1.155
1.29643
1.42076
1.19437
1
1
1.19489
1.28859
1.23647
1.12876
1.17171
1.37115
1
1.11542
1.44339
1.36557
1.36446
1.10968
1.21389
1.47005
1
1
1.0024
1.24037
1.11731
1
1.15094
0.985455
1
1
1.69351
0.995095
1.15187
1.2257
1.37245
1
1
1.66608
1
1
1.22867
1
1.1922
1.10804
1
1.34622
1.27819
1
1
1
1.29721
1.38069
1.19363
1.28655
1
1.22296
1.28893
1.34142
1.36502
0.999985
1
0.987648
1.28731
1.12852
1.15362
1.45933
1.65272
1.28374
1.15784
1.39142
0.999812
1.3268
1
1.33484
1.31881
0.954209
1.3219
1.45421
1.34966
1.30188
1.31852
1.40855
1.28832
1
1.01918
1.3749
1.29718
1.40916
1.0524
1.13778
1.35888
1.41416
0.797227
1
1.30362
1.1952
1.33575
1.0493
1
1.30061
1.58554
1.32204
1
1.11036
1.11712
1
1.28818
1.00001
0.785856
1.39883
1.33909
1.29179
1.34388
1.3039
1
1.10339
1.3175
1.14065
1.27839
1.33969
1.42405
1.26548
0.964761
1.27107
1.36063
1.1199
0.999299
1.10554
1.04965
1.36234
1
1.67999
1.10715
0.960657
1
1.29757
1.34327
1.30075
1.30903
1.18442
1.00004
1.15039
1.34546
1.4776
1.36037
1.13394
1.16031
1.36908
1.36266
1.23967
1.1242
1.4697
1.50816
1.36141
1.06101
1.36166
1.27939
1.41035
1.34813
1
1
1.36373
1.37418
1.29363
1.41665
1.4251
1
1.27996
1
1.16628
1
1.16802
1
1.40047
1.13605
1.43303
1.40617
1
1
1.68868
1
0.99354
1.27014
1.67586
1.60202
1.362
1
1.02054
1.34856
1.02136
1
1.09916
1
1.27911
1
1.01567
1.359
1.36274
1.32594
1.10938
1
1.29603
1.3048
1
1
1.09744
1.27774
1
0.996675
1.34933
1.08945
1.25618
1.31968
1.37531
1.50087
1.05165
1
1.1979
1.12771
1
1.10357
1.36163
1.34344
1.1475
1.06654
1.28866
1.36376
1.26842
1.16749
1.03895
1.24473
1.5122
1.52377
0.999999
1.241
1.35979
1
1.08299
1.26879
1.1307
1.1447
1.24891
1.31794
1.40487
1.44739
1.39071
1.17439
1.2498
1.30997
1.15952
1.03744
1.40861
1.45508
1
1
1.26661
1.27115
1
1.21347
1.4988
1.12572
1.23221
1
1.23413
1
1
1
1.23646
1.18553
1
1.05649
1.23264
1.20291
0.963096
1.41068
1.20448
1.37077
0.999991
1.47962
1.16781
1
1.34826
1
1.30831
1.17323
0.988269
1.46249
1.18734
1.33525
1.23508
1.18611
1.17213
1.07416
1.18866
1.1807
1.17083
1.18323
1.17622
1.3512
1.17722
1.28829
1.06575
1
1.32518
1.44052
1.27472
1.15698
1.34683
1.15706
1.16935
1.35161
1.31638
1.25906
1.31944
1
1.65159
1.00001
1.05903
1.33295
1.16603
1.16767
0.778676
1.34347
1.51505
1.35733
1.10149
1
1.10862
1.2736
1.3499
1.50195
1
1.33567
1.35866
1.33899
1.11017
1.63435
1.22226
1
1.35104
1.0934
1.40887
1.2305
1.12102
1.35147
1
1.35229
1
1.25174
0.997481
1
1.25638
1.11041
1
1.35649
1.27934
1.45053
1.40279
1.64122
0.999998
1.13204
1.20239
0.999999
1.38707
1.26753
1.23176
1.20199
1.3498
1.44232
1.35981
1.21514
1.20377
1.00044
1.69246
1.22473
1.18667
1.30042
1.17724
1.49106
1.24917
1.08955
1.15401
1.16826
1.08
1
1.6902
1.50002
0.984247
1.27258
1.00003
1
1.17426
1.40037
1.12611
1.29631
1.36928
1.04709
1
1.28436
1.37795
0.798905
1.65122
1.27607
1.03322
1.00064
1.17225
1.56598
1.34816
1.16545
1.03419
0.954387
1.16178
1.16655
1.51533
1
1.359
1.4158
1.4147
1.09922
1.3501
1.42653
1.50506
1
1.34797
1
1
1
1.21024
1
1.10932
1.13494
1.01332
1.21988
1.19454
1.13604
1.40152
1.14237
1
1.40773
0.994649
1
1.00301
1.1771
1
1
1
1.31153
1.50948
1.10987
1.4159
1.11222
1.21546
1.69103
1
1.34657
1
1.4132
1.50667
1.0973
1.35123
1.21548
1.35022
1.2842
1.09793
1.32356
1
1.35044
1
1.40018
1
1
1
1.40187
1.35906
1
1
1.3945
1.18337
1.40483
1.39698
1.25761
1.4051
1.39739
1.03272
1
1.32242
1
1.02705
1.34807
1.02769
1.40914
1.36934
1.24835
1.19898
1.36681
1.19065
0.778991
1.36092
1.36172
1.17678
1.20525
1
1.1743
1.36291
1.58159
1.55571
1.3518
1.00627
1
1.18475
1.64241
1.2486
1.31399
1.31572
1.18429
1.00732
1
1.19192
1
1.35728
1
1.26682
1.37979
1
1.34447
1.16576
1.1748
1.34895
1.26863
1.3624
1
0.996265
1.00033
1.2244
1.30164
1.26393
1.26157
1.35895
1.35823
1.17465
1.20422
1.11373
1.1762
1.31952
1.36036
1
1
1.17867
1
1.351
1.20582
1.2403
1.213
1
1
1.18053
1.26537
0.997985
1.12439
1.14778
1.17994
1.1868
1.24325
1.36071
1.32085
1
1.20571
1.12571
1.32642
1.20225
1.69011
1.35981
1.04591
1.17093
1.20391
1.23087
1.32414
0.943993
1.35965
1.26377
1.26725
1.10166
1.35695
1.36012
1
1.36004
1.23259
0.953973
1.28682
1.29953
1.30759
1.3072
1.19122
1.13615
1.30327
1.36677
1.29774
1.34948
0.787482
1.34625
1.24681
1.25592
1.23697
1.08399
0.972114
1.32746
1.45468
1.39033
1
1.37551
1.27368
1.28135
1.25192
1.12975
1.15145
1.15854
1.35898
1.1121
1.34949
1.3507
0.964715
1.18058
1.36291
1
1.08901
0.960441
0.955965
1
1.32183
0.942837
1.35705
1.35523
1.33873
1.32495
1.39995
1.00011
1.36363
1.36261
1.35189
0.967815
1.24512
0.975023
1.36037
1.37218
1.37075
1.36246
1.29189
1.28428
1.23017
0.982812
1.36135
1.15862
1.40965
1.27607
1.36328
1
1
1.3705
1.37387
0.77162
1.3615
1.37067
0.949403
1.55816
1.24101
1.19986
1.22382
1.29251
1.24224
1.3627
1.11245
1.10679
1.37296
0.991284
1.07147
1.24885
1.22121
1.12027
1.09273
1.33472
1.11574
1
0.999998
1
1
1.33724
1.06381
1.09401
1.25402
1
1.25609
1
1.34803
1
1.12376
1.10168
1.31935
1
1.34904
1.61795
1.04022
1.15926
1.08356
1.19422
1.18894
1.21914
0.978746
1.14879
1
1
1.10325
1.14878
1.22605
1
0.988831
1.2888
1.53346
1.1332
1.1636
1.24951
1.07848
1
1.28517
1.21461
0.986089
1.58072
1.4154
1.30685
1.41725
1.12318
1.00011
1.15175
1.15894
1.24912
1.02617
1
1.15145
1
1
1.27971
1.02065
1.68081
1.15472
1
1.1547
1.16219
1.11928
1.26178
1
1
1
1.26752
1.67432
1.34718
1.00621
1
1.26576
1.17071
1.24562
1.32231
1.28704
1.1858
1.21129
1.18078
1.2988
0.999512
1.66347
1.26213
1.15156
1.34491
1.11105
1.2723
1.03921
1.2716
1.0659
1.34748
1.13839
1.27732
1.36416
0.997813
1
1.13802
1.34789
1
1.30771
1
1.18275
1.18148
1.22541
1.34071
1
1.3974
1.22566
1.28696
1
1.59216
1.30087
0.981902
1.13762
1.27477
1.70606
1
0.996946
1.07991
1.40061
0.969832
1.34474
1.26806
1.02445
1
1
1.60804
1.16452
1.26792
1.16347
1.21726
1.21435
1.33424
1
1.6694
1.26368
1.08583
0.961308
1.2892
1
1.47862
1
1.25984
1.55345
1
1.2293
1.26234
1.34694
1
1.35167
1.20657
1.257
1.1667
1.35114
0.999993
1.25717
1.34372
1.04978
1.27376
0.999999
1.19057
1.35848
1.04688
1.20861
1.23661
1.00001
1.23756
1
1
1
1.34913
1
1.24344
1.24205
1.14707
1.55703
1.40164
1.13531
1.41525
1.20661
1
1.25304
1.34744
1.34886
0.917541
1.31638
1.24296
1.66218
1.19273
1.34969
1.13203
1.07746
1.25515
1.34882
1.13877
0.999999
1.11176
1.34672
1.60278
1.07381
1.10566
1.11384
1.19145
1
1.3293
1.54156
1.26493
1.26191
1
1
1.40732
1
1.00009
1.33432
1.08035
1.00016
1
1.33576
1.12478
1.27281
1
1.31462
1
1.17233
1.16961
1
1.17447
1.16736
1.30983
1.09144
1.00005
1.48343
1.3223
1
1
1.17698
1.51031
1.12659
1
1.20154
1.17842
1.11305
1.66556
1.26918
1.14772
1.26768
1.11232
1.28509
1.38762
1.49006
1.24616
1.28343
1.22641
1.34475
1.27961
1.18364
1.27046
1.13897
1.26849
1.18654
1.43985
1.25401
1.42008
1.00021
1.34998
1.18813
1.3598
0.992005
1.19076
1
1.18177
1.18143
1.2404
1
1.2238
1.3349
0.998425
1.5888
1
1.17239
1.2762
1.30737
1.23594
1.36205
1
1.31431
1.13073
1
1.25447
0.980928
1.22799
1.65369
1.2759
1
1.21548
1.22955
1.20242
1.22426
1
0.993629
0.982008
1.49108
1.20514
0.784169
1.41382
1.55298
1.40532
1.48142
1.41512
1
1.00001
1.1842
1.43602
1.25284
1.20947
0.993987
0.990866
1.22963
1.17287
1.34794
1.52425
1.22059
1.00049
1.1422
1.00021
1.34707
1.30813
1.13558
1.00072
1.21337
1.33796
1.27398
1.22455
1.33269
0.996788
1.56564
1.18757
1.66903
1.23131
1.35671
1.17406
1.25375
1.34939
1.14187
1.29504
1.17607
1.18586
1.31033
1.03121
1.4516
1.18796
1.04099
1.21921
1.3474
1.18949
1.18992
1.22227
1.25543
1.44234
0.98756
1.1053
1.08911
1.24509
1.24271
0.99996
1.15956
1.2562
0.995246
1.15851
0.987044
1.12504
1
1.09229
1
1.28211
1
0.991125
1.44344
0.991522
1
1.24718
1.24084
1.04506
1.22525
0.983057
1.10171
1.39285
0.984097
1.22618
1.33345
1.03408
1
1
1.37637
1.23605
1.64823
1.21448
1.29808
1
1
0.990781
1.3864
1.23831
1.07859
1.33322
1.01309
1.44712
1.34427
1.06294
1.34707
1.34872
1.2814
1.26253
1.00136
1.2688
0.999999
1.27696
0.971254
1
1
1.14424
1.00001
1.27547
1.30985
1.34267
1
1.34515
1
1
1
0.999998
1.30746
1
1.29675
0.965288
1.09055
1.29902
1
1.27997
1.34419
1.11182
1.31429
0.982484
1.302
1.34917
1.68113
0.996179
1
1.24287
1.2789
1.27012
1.01394
1
1
1.25574
1
1.48469
1.66822
1.34493
1.34799
1.14214
1
1
1
1.33411
1.29599
1.4337
1.66684
1
1.3174
1.03791
1.23522
1.49664
1.32621
0.980873
1
1.04588
1.13219
1.34945
1.01797
1.30591
1.07294
1.2174
1.11054
1.35604
1
1.06108
0.990422
1.34912
1.0721
1.14637
0.987393
1.28838
1
1.06595
1.05652
1.52274
1.29623
1
1
1.02712
1
1.32921
1
1
1.1343
1.02913
1.11033
1.35133
1.1629
1.51723
1.26956
1.3404
1
1.08279
1
1
1.16122
1.66532
1
1.19064
1.01921
1.05837
1.68415
0.999911
1
1
0.775359
1.19855
1.30686
1
1.28725
1.05938
1.22141
1.17476
1.30788
1
1.35075
1.14587
1
1.14746
1.28118
1.18586
1
1.35007
1.10222
1
1.21243
1
1.31797
1.35026
1.32846
0.985231
1.24554
1.34984
0.960592
1.29963
1.23021
1.16797
1.00001
1.17925
1
1.22198
1.03905
1.28761
1.52521
1.32643
1.30287
1.07844
1
1.38515
0.96113
1
1.00002
1.05985
1.41653
0.981518
1
1.432
1
1
1.48793
1.07402
1.51297
1.05189
1
1.36602
1
1.00003
1.03123
1.24765
1.67077
1.66725
1
1
1.00001
1.26911
1.05567
1.12734
1.26017
1.26458
1
1.14965
1
1
1.4046
1.15791
1.5879
1
1.31648
1
0.996312
1.00023
1.29297
1
1.34755
1.235
1.14858
1
1
1
1.10573
1.09945
1
1.34915
1.25982
1.04909
1.03903
1.20536
1
1
0.999716
1.08019
1.11265
1
1.34889
1
1
1
1.44652
0.999999
1.2541
1.34528
1.24276
1.27282
1
1.55421
1.05191
1.31271
1.07558
1.00263
1.31358
1.38533
1.09125
1.34976
1.44645
1.44978
1
1.46011
0.981197
1.33795
1.21025
1
1.34882
1.45006
1
1.26711
1.45205
1
1.24672
1.2301
1.24635
1.04573
1
0.999618
1
1
1.00003
1.27687
1.55906
1.2327
1.16241
1.27328
1.36149
0.990701
1.13822
1.52555
1
1.45177
1
1.50151
1.14
1.50558
1
1
1
1
0.99543
1.45551
1
1.0343
1
1
1
1.67392
1.21314
1.6349
1.52989
1.44942
0.996404
1.63676
1.37977
1.03837
1.34987
1.37713
1.30059
1.25789
1.05263
1
1.37605
1.29698
1.5638
1.41688
1.42923
0.999985
1.41312
1.2793
1.35903
1.00005
1.65647
1.19145
1.32501
1.40714
1.34997
0.76692
1.38391
1
0.905788
1
1
1.32116
1.08138
1.25643
0.971801
1
1.40859
1.65404
1
1
1.24951
1.22513
1.31043
0.999902
1.06317
1.31744
1.35001
1
1.32002
1.23338
1
1.38294
0.994617
1
1.23204
0.904116
0.996122
1.19493
1.12992
1.49901
1
1.00264
1.35034
1.70319
1.10921
1
1.18236
1.34931
0.962641
1
1.50369
1.27293
1.12528
1.63499
0.998478
1
1.48098
1
1.3501
1.08926
1.08313
0.982321
1.48326
1.02076
1.03026
1
1
1.31673
1
1.34666
1.28335
0.942883
1.19948
1
1.56858
1
1.21273
1.34315
1.16896
1.09448
0.768611
1.3499
1.28806
1
1
1.2673
1.2777
1
1.16197
1.669
1.19473
1.374
1
1
1
0.999586
1.33743
1.18399
1.27495
1.11907
1.24198
1.17244
1.36723
1
1
1
1.2477
0.981846
1.04611
1.34918
1.0498
1.04563
1.36562
1
1.24208
1.12236
1
1
1
1.65799
1.56185
1.29214
1.13532
1.30991
1.1177
1.32968
1.13095
1.66312
1
1
1
1.34762
1.12926
1
1.38824
1
1.28024
1.2988
1.35187
1.34924
1.34857
1.30282
1
1.35094
1.35522
1.31508
1
1.28049
1
1
1.52725
1.33655
1
1
1.09228
1.2669
1.37748
1.02005
1.34368
1.17461
1
1
1
1.26546
1
1.28305
1.53496
1.44538
1.28523
1.27844
1.34981
1.21737
1.2329
1
1
1.1417
1.34417
1
1.19167
1.18703
1.22519
1.34803
1.24671
1.25569
1.05542
1.16952
1.2633
1.22221
1.68354
1.36476
1.21944
1.28595
1.34944
1.34977
1.14346
1.18409
1
1
1.34965
1.29764
1.11189
1.24906
1.35291
1.13844
1.28458
1.00001
1.18333
1.37607
1.34947
1
1.24424
1.24703
1.25272
1.15994
1.34946
1.67043
1.34912
1.67383
1.34997
1.27615
1.26115
1.23474
1.34943
1
1.25572
1.27494
1.36516
1.06703
1
1.34977
1.02131
0.755301
1.56029
1
1.01519
1.12903
1.34963
1.25484
1.12957
1.10973
1.35125
1
1.28165
1.5356
1.12502
1.15485
1
1.16084
1.22866
1
1.34937
1.31593
1.56525
1.23677
1.24518
1.202
0.999996
1.25892
1
1.39286
1.34957
1.24757
1.05872
1.14196
1.23796
1.32151
1.20439
1.31325
1
1.27045
1
1.24195
1.22894
1.01387
1.22983
1.13532
1
1.16619
1.23422
1.24432
1
1
1.01097
1.30503
1.34985
1
1
1.13902
1
1.18263
1.33163
0.997644
1
1.11078
1
1.41467
1.13478
1.35321
1.18104
1.19302
1
1.12132
1.20626
1.17842
1.17833
1
1.08506
1.35137
1
1.28638
1.13919
0.985251
1.172
1.13327
1.17757
1.34968
1.16376
1
1
1.00002
1.16828
1
1.20673
1.16336
1
1
1
1.00006
1.34753
1.06953
0.742454
1.34202
0.9769
1.59117
1.15932
0.951415
1.01953
1.0746
1.18689
1
1.14816
1.34902
1.22533
0.968289
1.34864
1.2652
1
1.29303
1.5096
1.3462
1
1.26696
1.26658
1.18192
1.14312
1.1871
1.13429
1.38729
1.35004
1.17084
1.31636
1.56229
1.35085
1.16277
1.37877
1
1.22761
1.20346
1
1
1
0.935362
1
1
1.16696
1
1
1.34975
1
1.14676
1.35013
1
1
0.998435
1
1.37933
1.34969
1.17453
0.956008
1.3501
1.36332
1.40672
1
1
1.3044
1.33728
1
1.23817
1.08852
1.1672
1.0458
0.957446
1.11029
1.43489
1.00027
1.06322
1.34947
1.35004
1.00978
1.45423
1.34994
1
1
1.26126
1
1.15151
1
1.35008
1.25032
1.2496
1
1
1.12405
1.36457
1.41308
1.34939
1.00034
1.33896
1.18756
1
1.1522
1
1.35668
1
1.00888
1.24064
1
1
1
1.31024
1.21924
1
1
1.10733
1.11895
1.34012
1.11001
1
1.14973
1.00308
0.972845
0.999999
1
1.34876
1.31377
1.25007
1
1.13128
1.31099
1.39272
1.34987
1.20734
1.35376
1
1.02575
1
1.64471
1.20302
1.34996
1.28965
1.34845
0.969539
1
1
0.944532
0.999999
1
1.35069
0.955533
0.951869
1.23884
1
1.00063
1
1.33585
1.38584
1
1
1.20544
1
1.13165
0.907555
1.14321
0.933968
1.43489
1.63274
1.05199
1.34488
1.07214
1
1.66989
1
1.3323
1.34895
0.948113
1
1
1.34635
1.2142
1.00791
1
0.749977
1.28168
1.21181
1.00195
1.34383
1.32045
1
1.28369
1.22182
1.00969
1.50746
1.25978
1
1
1.00131
1.15588
1.39065
1.34929
1.35162
1.33193
1.0229
1.23747
1.35014
1.26413
1.3274
1.24229
1
1.00033
1
0.999998
1.02516
0.909894
1.36678
1.17751
1
1.29944
1.21162
1.23217
1.15357
1.22448
1
1.20723
1.52857
1
1
1.07207
1.3492
1.54981
1
1
1
1
1.67998
1.42097
1.34507
1.4031
1.28665
1
0.999999
1.34916
1.34871
1.69732
1.0746
1.34497
1
1.37363
1
1
1.00008
1
1.05387
1.39305
1
1.18432
1
1.35144
1.21361
1.3392
1.00075
1.00007
1
0.900909
1.05734
1
1.34833
1.34777
1
1.34141
1.20726
1.51588
1
1.33364
1
1.00003
1.2909
1.29364
0.994657
1.24916
1
0.990903
0.999069
1.35133
1.31764
1
1.35135
1.02304
1
0.754131
1.33708
1.0373
0.888938
1.35083
1
1.2432
1
1
1
1.3485
1.44361
1
0.999669
1.06821
1.39341
1.25681
1
0.907756
1.34959
1
0.99465
1.53834
1.26735
1
1.26238
1.69764
1
1
1
1
1.37823
1.1503
0.901195
0.999827
1.44724
1.26192
1.35354
1.49986
1
1
1
1.22093
1
1.41693
1.40279
1.33845
1.23557
0.762988
0.834795
1.10644
0.921317
0.757046
1
1.56671
1.53037
1.31736
1
1
1.37248
1.35074
1.03008
1.32889
1.35041
1.33568
1.34738
1.31029
1.33703
1.03209
1.12886
1
1
1
1.31736
0.995757
1
1.13463
0.988578
1.09199
1.30906
1
1.33077
1.01109
1.50223
1
1
0.850794
1.26902
0.93832
1
1.34962
1.35114
0.921884
1.34906
1.67953
1.31828
1.3554
1.3491
1
1
1
1
0.79463
1
1.19832
1.01087
0.750236
1.34974
0.970598
1.14026
1.30857
1.05989
1.13519
1
1.0209
1
1.01064
1.35011
1.35154
1.50815
0.92003
1
1
1
0.879484
1.3948
1
1
1
1
1.35383
1
1
0.767397
1
1
1
1
0.861004
1
1.43727
1.23833
1.04585
1
1
1
1.11966
1.32205
1
1
1.39967
1.67461
1
0.832944
0.767371
1
1
1
1.2078
1.42328
1.13073
1.00367
1
1
1
1.18489
1.28238
1.17863
1.34951
1.34896
1
1
1.37677
1
1.25588
1.35192
0.989999
1.35066
1.53191
1.25677
1.3525
1.47903
1
0.950748
0.815126
1
1.15614
1
1.44912
1.0625
1
0.8834
0.892405
1
1
1
0.998489
1.00308
1.34764
1
1
1
0.985558
1
1.05728
1
1
0.850667
1
1
1
1.45521
1.35886
1
0.815068
1.17513
0.758033
1
1.35208
1.3086
1.50965
1.023
1.26484
1.17385
1.01654
0.810736
0.996528
0.76809
1.33316
1.44183
1.54332
0.766095
1.35921
1
1
1
1.47936
1.3408
1
1
0.936886
1.26488
1.07674
1.30394
1.17061
1.19313
1.30522
1
0.778286
1.34992
1.07145
1.28566
0.936291
1.52567
0.996833
1.35459
1.4557
1
1.3519
1
1.3491
1.34336
1.13422
1.31684
1.30081
1
1.34884
1
1
1
0.987095
1
1.34959
1
1.01378
1
1.2042
1
0.999987
1
1.33668
1
1
1
1.00005
1.54956
1
1.29045
1.35003
1.35405
1
1.34576
1
1
1.2484
1.3484
1.65039
0.765373
0.745086
1
1.18855
1
1.42547
0.89983
1.34924
0.768785
1.33085
1.2141
1.20221
1.34985
1.29216
1.00025
0.994269
1.20487
1.00276
0.867071
1.02631
1
1
1.45741
0.976006
1
1.32943
0.843829
1
1
1
1.33246
1.58872
1.35035
1.22721
1
1.34833
1.22187
0.997968
1.35171
0.992753
1.07624
1.0257
1.06767
1
1.68961
1.00184
1.14955
0.993124
1
1
1.00004
1.3494
1
1.34947
1.03473
0.950806
0.76846
1.19474
1.02141
0.760589
1.08915
1
1.07142
1.04788
1.46085
1.05776
1
1.34901
1.21038
1.37344
1.19176
1.01778
1.55925
1.35587
1
1
1.0548
1.15421
1.12512
1.65726
1
1
0.99807
0.767007
1.18442
1
1.34878
1.11862
1.34923
1
1.49122
1
1
0.8853
1
1
1.34809
1
1
1
1.12009
1
1.23879
1.28027
1.1669
1.30935
1.14358
1.3029
1.34958
1.35213
1.44158
1.01217
1.16233
1.20745
1.19336
1
1.20738
1.06624
1.34359
1.34945
1.18342
1.05444
1.1472
0.764802
0.973676
1.34968
1
0.755619
1.24147
1.00136
1
1
1
0.750021
1.26759
1.03254
1
1.21932
1.20624
1.32056
1
1.14849
1.26096
1.35009
1.058
1.16217
1.21703
1.21153
1.25334
1.34871
1.34905
1.20691
0.773908
1.21118
1
1
1.34973
1
0.998474
1
1
1.34554
1.34954
1.26429
1
1
1.35901
1.00657
1.30736
1
1.01935
1.29326
1
1.01961
1.01425
1.02856
1.29382
1.39182
1
1
1
1.00997
1.34946
1.38025
1.28392
1.66281
1.41414
1.25457
1.24845
0.880712
1
1.35442
1.14577
1.1189
0.766797
1.48319
1.43541
1
1.15648
1.26031
0.857205
1.34812
0.893567
1.34947
1.15127
0.779197
1
1.34929
0.888738
1.67013
1.3706
1.01625
1
1.50104
1.29109
1.16057
1
1
1.3541
1.01232
1.20928
1.34419
1.38004
1.51326
1.14509
1.17928
1.01445
1.41491
0.999883
1.21113
1.34975
1
1
1.27104
1.24886
1.66991
1
0.733385
1.15307
1.24231
1
1.34849
1.69251
1
1.31938
0.835023
1.68399
0.814484
1.67077
1
1
1
1
1
1.67218
1
1.18828
1
1.21397
0.74557
0.742271
1.54685
1.68096
0.755766
1.23135
1.16465
1.15906
1
1.58357
1.15381
1.01981
1.68245
1
1.34948
1.20414
0.751951
0.795487
1
1
1.01546
1.18424
1.66757
0.778178
1.19953
1.16094
1
1.56105
0.756566
1
1.34963
1.17946
1
1
1.4257
1
1.34776
1
0.768281
1
1
1.15463
0.97356
1
0.995438
1.34853
1
1
1.0311
1
1
1.32473
1.33869
1.31465
1
1.23716
1.00539
1.34951
1.3503
1
1.35403
1.33659
1.15489
1
1
1.20477
1.49655
0.75457
0.995848
1.37118
1.10613
1.34918
0.992253
0.750778
1.20879
1
1
1.10556
1.3176
1.6519
1.09149
0.892574
1.59305
0.761555
0.774404
1
1.53665
0.758058
1.34834
1.38572
1.06358
1
1
1.22722
1
1.32152
0.93757
1
1
0.747341
1.01741
1
1.34797
1
1.145
0.79992
1
1.17856
1
1
1.55577
1.34829
1.54914
1.40333
0.761474
1.34938
1.35848
1.17353
1.14187
1.34934
1
1.33931
1
1.19883
1.02611
1
0.995988
1.18343
0.74602
1.04608
1.35235
1.22135
0.888197
1
0.755022
1.34653
0.771925
1.12491
1.35271
0.989306
1.18422
1.04519
0.986289
0.743803
0.969627
1.35036
1
1.3489
0.743284
1.00001
0.983473
1.37123
1.28689
1.35354
1.12696
1.53368
1.24999
0.893034
1
1
1
0.905875
1.15329
1
0.987616
0.829978
1.15721
0.948848
1.35295
1
1
1
1
0.846344
1.28286
1.34932
1
1.20508
0.744336
1
0.767132
1.34787
1.27588
0.755537
1
0.759478
1.10617
1.33422
1.25042
1.34833