/*--------------------------------*- C++ -*----------------------------------*\
  =========                 |
  \\      /  F ield         | OpenFOAM: The Open Source CFD Toolbox
   \\    /   O peration     | Website:  https://openfoam.org
    \\  /    A nd           | Version:  12
     \\/     M anipulation  |
\*---------------------------------------------------------------------------*/
FoamFile
{
    format      ascii;
    class       volVectorField;
    location    "8.2";
    object      U;
}
// * * * * * * * * * * * * * * * * * * * * * * * * * * * * * * * * * * * * * //

dimensions      [0 1 -1 0 0 0 0];

internalField   nonuniform List<vector> 
22702
(
(2 -1.79363e-13 0)
(2 3.29093e-14 0)
(2.0431 -0.0852948 0)
(2 -9.58412e-10 0)
(1.97823 0.034072 0)
(2 4.02074e-14 0)
(1.82997 0.228673 0)
(2 -4.19541e-13 0)
(2 -5.84725e-13 0)
(2.11842 -0.264355 0)
(1.8299 0.228798 0)
(1.83006 0.228677 0)
(2 -9.98595e-14 0)
(1.83122 0.228929 0)
(2.03826 -0.0759053 0)
(2 7.46241e-13 0)
(2 5.74813e-13 0)
(2 9.54718e-14 0)
(1.82974 0.228664 0)
(2 5.55346e-14 0)
(1.83137 0.229062 0)
(2 -2.83157e-13 0)
(1.83046 0.228704 0)
(2.10825 -0.262487 0)
(1.83191 0.22878 0)
(2.11849 -0.264993 0)
(2 -3.65751e-13 0)
(1.82958 0.228761 0)
(2.10933 -0.263446 0)
(2.10897 -0.263665 0)
(2 5.66479e-15 0)
(1.82988 0.228745 0)
(2 7.06693e-14 0)
(2 6.7911e-14 0)
(2 9.85683e-14 0)
(1.84406 0.214951 0)
(1.83188 0.22824 0)
(1.8301 0.228738 0)
(2 4.84585e-13 0)
(2 4.36598e-13 0)
(2.11823 -0.264387 0)
(2 -1.14475e-13 0)
(1.9152 0.126079 0)
(2 6.60692e-13 0)
(1.82947 0.228642 0)
(2 2.57751e-13 0)
(2 -6.10892e-14 0)
(2 3.43367e-13 0)
(2 -1.46721e-14 0)
(2.10705 -0.263609 0)
(2 -9.74838e-14 0)
(2.10887 -0.262475 0)
(2 5.22842e-13 0)
(1.82988 0.22872 0)
(2 3.69223e-13 0)
(1.82989 0.228835 0)
(2 1.70588e-13 0)
(2 1.46531e-09 0)
(2 -4.30713e-14 0)
(2 1.21679e-13 0)
(2.11866 -0.265256 0)
(2 -1.09423e-13 0)
(2 -2.69802e-13 0)
(2.10954 -0.263184 0)
(2 1.74445e-14 0)
(2.10949 -0.263482 0)
(2 -3.68268e-13 0)
(2 3.40941e-13 0)
(2 -2.03391e-13 0)
(2.11762 -0.264872 0)
(2 -1.33711e-13 0)
(1.83135 0.228896 0)
(1.89639 0.15186 0)
(2 1.2404e-09 0)
(1.83128 0.228879 0)
(1.82162 0.237294 0)
(2.10818 -0.263009 0)
(1.82947 0.228788 0)
(2.10449 -0.263792 0)
(2 -3.6785e-13 0)
(1.83047 0.228782 0)
(2.10969 -0.26124 0)
(1.82944 0.228781 0)
(1.82947 0.228805 0)
(2 -2.9678e-13 0)
(2 8.65607e-07 0)
(2 -1.39504e-13 0)
(2 -3.59933e-13 0)
(2.02277 -0.0439333 0)
(2.11764 -0.264719 0)
(1.83016 0.228683 0)
(2 3.18882e-13 0)
(2 -7.93152e-11 0)
(2.1174 -0.264881 0)
(2 -4.55076e-14 0)
(1.83123 0.2291 0)
(2.11729 -0.264823 0)
(2 2.31444e-08 0)
(2 1.62187e-13 0)
(2 4.61101e-13 0)
(2 -1.79241e-13 0)
(1.91655 0.125542 0)
(1.83017 0.228689 0)
(2.11797 -0.264207 0)
(2 -1.47167e-09 0)
(2 -1.70474e-09 0)
(1.95828 0.063951 0)
(2 -3.27111e-09 0)
(2.10969 -0.261321 0)
(2 5.29505e-13 0)
(1.82945 0.228833 0)
(1.82987 0.228917 0)
(2 4.41037e-09 0)
(2 5.21699e-13 0)
(2.12196 -0.276384 0)
(2.12222 -0.273572 0)
(2.11775 -0.264607 0)
(2 9.6005e-14 0)
(2 -1.55333e-07 0)
(2 -1.36778e-13 0)
(2 -2.62207e-13 0)
(2 1.27146e-07 0)
(2.02858 -0.0568382 0)
(2 -1.00382e-07 0)
(1.85561 0.201707 0)
(1.98226 0.0228552 0)
(1.8296 0.228685 0)
(2 -8.1316e-14 0)
(1.82964 0.228667 0)
(1.8299 0.228793 0)
(1.83134 0.228779 0)
(1.83042 0.22878 0)
(2 3.55667e-13 0)
(2.11748 -0.264784 0)
(2 1.31495e-13 0)
(2.11719 -0.264949 0)
(2 -1.92267e-14 0)
(2 -2.15925e-13 0)
(2 -7.0582e-14 0)
(2 1.24941e-13 0)
(1.82999 0.228907 0)
(2 3.0522e-09 0)
(2 1.78371e-13 0)
(2 3.02671e-13 0)
(2 1.0283e-13 0)
(1.83103 0.228982 0)
(2 1.11038e-14 0)
(1.99453 0.013831 0)
(2 3.52941e-14 0)
(2 2.51546e-13 0)
(2 -6.80538e-11 0)
(2 -1.41075e-14 0)
(2.10682 -0.263201 0)
(2 -3.04559e-14 0)
(1.99541 0.00883321 0)
(2 4.77258e-14 0)
(2.10302 -0.263596 0)
(2 -3.7888e-15 0)
(2 -2.52681e-13 0)
(2 -9.3025e-14 0)
(1.82993 0.229118 0)
(2 -1.09462e-13 0)
(1.83142 0.228922 0)
(2.12146 -0.274043 0)
(2.11869 -0.265267 0)
(1.83058 0.228709 0)
(1.83084 0.22874 0)
(2 1.73478e-13 0)
(1.9705 0.045489 0)
(1.90401 0.140817 0)
(2 -2.08211e-13 0)
(1.82994 0.22877 0)
(2.10426 -0.263664 0)
(1.84362 0.215368 0)
(2 2.48973e-14 0)
(2 -1.09266e-13 0)
(2 -7.42497e-14 0)
(2 4.06757e-13 0)
(1.83124 0.229012 0)
(1.86882 0.190563 0)
(2 1.61768e-13 0)
(1.8299 0.22875 0)
(2.10802 -0.262864 0)
(1.82976 0.228818 0)
(2 -6.5354e-14 0)
(2.1062 -0.2629 0)
(2 -5.74637e-13 0)
(2.10654 -0.261851 0)
(2.11855 -0.265237 0)
(2.00008 -0.000132098 0)
(2 5.91286e-13 0)
(2 -2.92467e-13 0)
(1.82924 0.228643 0)
(2 5.75848e-14 0)
(2 1.8574e-13 0)
(1.83129 0.228938 0)
(2 2.37895e-13 0)
(1.82945 0.22879 0)
(1.82986 0.228754 0)
(2.1032 -0.274954 0)
(2 -8.63959e-13 0)
(2 -1.40976e-13 0)
(2.10842 -0.261956 0)
(1.83164 0.228994 0)
(2 3.31397e-13 0)
(2 6.05319e-14 0)
(2 4.52825e-14 0)
(1.83181 0.229015 0)
(2 5.11071e-14 0)
(2.11771 -0.264724 0)
(2 -6.39027e-11 0)
(2 3.13041e-13 0)
(1.83178 0.229044 0)
(1.83151 0.228967 0)
(1.82944 0.228865 0)
(2 2.32041e-14 0)
(1.99999 2.35379e-05 0)
(2 -3.90498e-13 0)
(2 -9.74371e-14 0)
(2 3.33183e-13 0)
(1.83185 0.228982 0)
(2 3.5099e-13 0)
(2.10834 -0.263739 0)
(1.82406 0.23525 0)
(1.83128 0.228922 0)
(1.83184 0.228721 0)
(2 1.81645e-07 0)
(2 -1.6231e-13 0)
(2 3.74466e-13 0)
(2.1116 -0.272669 0)
(1.83181 0.228838 0)
(1.91933 0.131282 0)
(2 -3.36208e-13 0)
(1.83098 0.229561 0)
(2.11372 -0.264241 0)
(2.11501 -0.265049 0)
(1.83112 0.229572 0)
(1.8321 0.228626 0)
(2 -6.92248e-14 0)
(1.83168 0.229452 0)
(2.12088 -0.272155 0)
(1.85065 0.207169 0)
(2 2.96901e-13 0)
(2 -1.56294e-13 0)
(2 7.30123e-13 0)
(2 -5.67788e-14 0)
(1.83166 0.229032 0)
(2 3.60117e-13 0)
(1.90107 0.149014 0)
(1.98372 0.02798 0)
(2 2.95029e-13 0)
(2 4.17283e-13 0)
(1.83153 0.228965 0)
(2.11713 -0.264935 0)
(2.07742 -0.162884 0)
(2 2.59671e-13 0)
(1.83222 0.228499 0)
(2.11639 -0.264729 0)
(1.83043 0.230626 0)
(2 1.33468e-13 0)
(2 -3.1888e-14 0)
(2 3.0541e-13 0)
(2 -2.00594e-14 0)
(2 4.10033e-13 0)
(2 4.95696e-14 0)
(2 2.89044e-13 0)
(2.11102 -0.264846 0)
(2.07894 -0.165037 0)
(2.11747 -0.264809 0)
(1.83137 0.228876 0)
(2 -2.66057e-13 0)
(2 -3.21826e-13 0)
(2 -1.62297e-07 0)
(2 3.82386e-13 0)
(1.84659 0.211457 0)
(2 -1.35377e-07 0)
(2.10709 -0.26497 0)
(2 -4.9836e-13 0)
(2.11349 -0.282496 0)
(2.10683 -0.26232 0)
(1.83174 0.228844 0)
(2.10979 -0.264359 0)
(1.83142 0.229082 0)
(2 -6.3467e-14 0)
(2 6.14873e-14 0)
(2 4.26143e-14 0)
(2.00079 -0.0016862 0)
(2.10762 -0.263516 0)
(2.12122 -0.27229 0)
(2 -3.08303e-07 0)
(2 -1.50883e-07 0)
(2.11621 -0.283578 0)
(2 2.48437e-09 0)
(1.82983 0.228829 0)
(2.11881 -0.265555 0)
(2 -4.07536e-14 0)
(2 -3.42039e-11 0)
(1.83051 0.228754 0)
(2.1203 -0.273957 0)
(2 -8.57096e-15 0)
(1.82944 0.230238 0)
(2.11822 -0.264774 0)
(1.83158 0.22901 0)
(2 9.77629e-14 0)
(2.10619 -0.287598 0)
(2.00086 -0.00150221 0)
(2 -4.59715e-13 0)
(2 2.68248e-06 0)
(2 -3.90316e-13 0)
(2.10894 -0.262385 0)
(2 4.4726e-13 0)
(2 -1.63604e-07 0)
(2 -8.35599e-07 0)
(1.99999 1.33911e-05 0)
(1.99134 0.00980087 0)
(1.89569 0.151611 0)
(2 -2.70931e-11 0)
(2.11601 -0.255062 0)
(2 -1.56902e-11 0)
(2 1.58977e-06 0)
(2 -3.39967e-13 0)
(2 4.78787e-13 0)
(2 8.97818e-14 0)
(2 8.02123e-14 0)
(2 -7.71725e-13 0)
(1.83034 0.228761 0)
(2 4.86098e-14 0)
(1.82929 0.228445 0)
(2 1.62266e-14 0)
(2 4.24917e-13 0)
(2 -6.35517e-14 0)
(2.11873 -0.263324 0)
(2 -2.55828e-13 0)
(1.8313 0.229006 0)
(2.10989 -0.264425 0)
(2 -2.73511e-13 0)
(1.85973 0.203093 0)
(2 -2.51339e-13 0)
(2 4.50356e-13 0)
(1.82988 0.22897 0)
(2 -7.31875e-15 0)
(2 -9.36804e-09 0)
(2 -1.51875e-13 0)
(1.83043 0.227616 0)
(2 4.77138e-10 0)
(2 3.97365e-14 0)
(1.83144 0.226375 0)
(1.83016 0.228975 0)
(2 1.64599e-13 0)
(1.96525 0.0552666 0)
(2 4.64287e-13 0)
(2 -2.81253e-14 0)
(2.11704 -0.264869 0)
(2 8.29053e-13 0)
(2 2.08064e-13 0)
(2 -1.85826e-13 0)
(2.11757 -0.264901 0)
(2 1.59626e-13 0)
(2 8.6969e-14 0)
(2 6.19184e-14 0)
(2 1.38901e-13 0)
(2.11824 -0.262881 0)
(2 -7.67706e-14 0)
(2 2.86685e-13 0)
(2 2.65627e-13 0)
(2 5.94181e-14 0)
(2 5.3309e-14 0)
(2.11724 -0.266465 0)
(1.99998 4.17894e-05 0)
(1.83134 0.228855 0)
(2 1.47e-13 0)
(2 -2.85105e-05 0)
(1.83102 0.228738 0)
(1.83017 0.228861 0)
(2 4.01221e-13 0)
(2 2.44271e-13 0)
(2.09813 -0.273672 0)
(2.06202 -0.130612 0)
(1.83016 0.228709 0)
(2 -4.23899e-14 0)
(2 4.66533e-13 0)
(2 -9.16398e-14 0)
(1.83155 0.228931 0)
(2.11771 -0.264739 0)
(2 -1.40328e-13 0)
(1.83148 0.228926 0)
(2 6.89367e-14 0)
(2 3.04713e-13 0)
(2.10008 -0.21331 0)
(2.10066 -0.217075 0)
(2 -5.20232e-13 0)
(2.10874 -0.264144 0)
(2.11955 -0.263847 0)
(2 1.01526e-13 0)
(2 1.54326e-13 0)
(2 5.45099e-13 0)
(2 -1.77699e-13 0)
(2 -9.04917e-11 0)
(2 1.71064e-13 0)
(2 2.36645e-13 0)
(1.82952 0.228794 0)
(1.95694 0.0648358 0)
(1.83472 0.226412 0)
(2.1176 -0.264749 0)
(2.0327 -0.0627161 0)
(1.83017 0.228887 0)
(2 -4.9438e-13 0)
(1.83094 0.228842 0)
(1.82999 0.228716 0)
(2.1178 -0.26459 0)
(2.07605 -0.155348 0)
(2 4.02081e-13 0)
(2.11693 -0.264751 0)
(2 -3.68649e-14 0)
(1.82145 0.234748 0)
(2 2.3761e-13 0)
(2 -9.58635e-13 0)
(2 3.23729e-13 0)
(2 -9.0773e-14 0)
(1.8316 0.229012 0)
(2 4.92802e-13 0)
(2 5.37599e-14 0)
(2 1.52682e-13 0)
(2 1.5793e-09 0)
(2 -2.75269e-13 0)
(2 6.41805e-13 0)
(2 5.26543e-14 0)
(1.93841 0.0937345 0)
(1.82965 0.228801 0)
(2 1.96441e-13 0)
(1.83138 0.228965 0)
(2 3.85245e-13 0)
(2 -9.49222e-14 0)
(2.10729 -0.261927 0)
(2 3.3692e-13 0)
(2 -2.1193e-13 0)
(2 -2.52273e-13 0)
(2 2.57057e-13 0)
(1.83181 0.229013 0)
(1.87053 0.1831 0)
(2 3.56812e-13 0)
(2 1.34368e-13 0)
(2.10775 -0.263664 0)
(1.83131 0.228935 0)
(1.8318 0.229036 0)
(2 1.29325e-13 0)
(1.83175 0.229035 0)
(1.83129 0.22895 0)
(1.83141 0.228978 0)
(2 -3.58127e-13 0)
(2.05521 -0.111948 0)
(2 -5.79217e-14 0)
(1.83167 0.228924 0)
(2.00274 -0.0100188 0)
(1.83145 0.228992 0)
(2 -7.23834e-14 0)
(2.11788 -0.26455 0)
(2.00036 -0.000615024 0)
(1.83051 0.228779 0)
(2 -2.51937e-13 0)
(2 9.71936e-14 0)
(2 -4.29607e-11 0)
(2 -2.08219e-11 0)
(2.11263 -0.261292 0)
(1.83174 0.228694 0)
(1.84759 0.211162 0)
(2 5.44231e-13 0)
(1.83156 0.22947 0)
(1.83162 0.228955 0)
(1.83 0.228708 0)
(2 -2.19668e-13 0)
(1.92109 0.123594 0)
(1.83197 0.228899 0)
(2 -4.37834e-13 0)
(2 4.86214e-13 0)
(1.88326 0.167787 0)
(1.97851 0.0393352 0)
(1.83185 0.228968 0)
(2.02228 -0.044383 0)
(1.83181 0.22895 0)
(2 -8.34963e-14 0)
(1.83174 0.228902 0)
(1.83126 0.228814 0)
(1.83172 0.228925 0)
(1.83141 0.228939 0)
(2 -6.65365e-14 0)
(1.83823 0.231359 0)
(2.02847 -0.0558057 0)
(2.03927 -0.0762791 0)
(2 -2.09671e-13 0)
(2 -3.75202e-07 0)
(2 2.0094e-14 0)
(2 -4.49338e-13 0)
(1.83087 0.228929 0)
(2 3.1169e-14 0)
(2 1.14231e-13 0)
(2 -7.994e-15 0)
(2 1.6917e-13 0)
(2 1.65837e-13 0)
(1.83037 0.228782 0)
(2 1.62963e-13 0)
(2 2.10082e-13 0)
(2.00159 -0.00268578 0)
(1.83175 0.229009 0)
(1.85738 0.200542 0)
(2 2.8302e-14 0)
(1.86913 0.185042 0)
(1.99998 2.71811e-05 0)
(2 -4.48486e-13 0)
(2 1.06672e-13 0)
(1.83163 0.22899 0)
(2 -3.3471e-13 0)
(2.00207 -0.00217386 0)
(1.99795 0.00468094 0)
(2 5.76424e-14 0)
(1.83114 0.228982 0)
(2 -1.36612e-14 0)
(1.83165 0.229325 0)
(2 -3.3889e-13 0)
(2 2.41271e-13 0)
(1.87557 0.177484 0)
(2 -2.1676e-13 0)
(1.83178 0.229327 0)
(1.99999 1.27782e-05 0)
(2 -5.53529e-14 0)
(1.83186 0.229282 0)
(2 2.47062e-13 0)
(1.83174 0.228989 0)
(2 1.97127e-13 0)
(2 2.94559e-06 0)
(2 2.00527e-13 0)
(1.83151 0.228998 0)
(2 8.83077e-14 0)
(1.83105 0.229706 0)
(2 4.62038e-06 0)
(1.83171 0.22903 0)
(1.82992 0.228765 0)
(1.83175 0.229006 0)
(1.82946 0.228783 0)
(2 -4.1487e-13 0)
(1.83032 0.228849 0)
(1.83719 0.225183 0)
(2 -4.97309e-13 0)
(2.10795 -0.264442 0)
(1.8417 0.217515 0)
(1.87889 0.172628 0)
(2 1.20118e-13 0)
(1.83141 0.22896 0)
(2 5.31988e-13 0)
(2.11697 -0.264759 0)
(2.11807 -0.264552 0)
(2 3.5418e-13 0)
(2 1.6712e-13 0)
(2 3.38187e-14 0)
(2 4.00831e-13 0)
(2 1.83916e-09 0)
(2.11756 -0.265016 0)
(2 -4.25585e-14 0)
(1.83143 0.228991 0)
(1.95712 0.0630227 0)
(1.83149 0.228959 0)
(2 -2.32586e-13 0)
(2 7.87467e-11 0)
(2 4.72757e-13 0)
(2 6.09771e-13 0)
(2 -5.24331e-08 0)
(1.83128 0.228778 0)
(2 -3.01933e-13 0)
(1.83095 0.228431 0)
(1.89954 0.147102 0)
(2.07347 -0.152287 0)
(2 1.33606e-09 0)
(1.99999 7.10405e-06 0)
(1.95145 0.0765318 0)
(1.95858 0.0673375 0)
(2 -2.96341e-13 0)
(2 -6.62192e-13 0)
(1.93836 0.0926539 0)
(2 -2.3508e-13 0)
(2.10366 -0.262154 0)
(1.83135 0.229059 0)
(1.83131 0.229117 0)
(2 -6.71311e-11 0)
(2 2.18508e-13 0)
(2 7.01512e-14 0)
(1.82985 0.228715 0)
(2 7.79379e-15 0)
(1.99999 1.60687e-05 0)
(1.8316 0.228655 0)
(1.8318 0.228791 0)
(2.01733 -0.0368168 0)
(2 -1.58328e-13 0)
(2 1.87309e-10 0)
(2.1081 -0.265309 0)
(1.84689 0.211832 0)
(2 1.98934e-13 0)
(2 7.55678e-13 0)
(2 -1.32487e-13 0)
(2 -2.81537e-11 0)
(2 5.63912e-13 0)
(1.83179 0.229012 0)
(1.83044 0.228838 0)
(2 4.56459e-14 0)
(1.83188 0.22901 0)
(1.83117 0.23017 0)
(1.83172 0.228989 0)
(2 7.10504e-13 0)
(2 -2.58768e-13 0)
(2 -6.05182e-11 0)
(2 6.15736e-13 0)
(2.11868 -0.265415 0)
(1.83021 0.22869 0)
(2 -4.40452e-11 0)
(2 3.05391e-13 0)
(1.84607 0.212416 0)
(1.8319 0.228263 0)
(2 1.29392e-13 0)
(1.84153 0.217535 0)
(1.82976 0.228785 0)
(2 3.81825e-13 0)
(2 -2.16971e-07 0)
(2 9.7213e-11 0)
(2 -6.45993e-14 0)
(2 -8.22834e-15 0)
(1.83122 0.229005 0)
(2 9.31253e-14 0)
(2 -7.29912e-14 0)
(2 1.82065e-13 0)
(2 -4.12471e-14 0)
(1.83117 0.229559 0)
(2 -3.90448e-13 0)
(1.83023 0.232894 0)
(2.11796 -0.265136 0)
(2 8.01856e-14 0)
(2.11858 -0.264715 0)
(2 1.84452e-13 0)
(2 -1.73846e-07 0)
(2 7.13386e-14 0)
(2.00125 -0.00176265 0)
(2.10763 -0.262679 0)
(2.00032 -0.000531548 0)
(2 4.94964e-15 0)
(2 -3.66375e-14 0)
(2 -1.17572e-07 0)
(1.9762 0.0362525 0)
(2 4.9746e-13 0)
(2 2.32661e-13 0)
(2.04182 -0.0860967 0)
(2 -2.08345e-07 0)
(2 -2.86977e-13 0)
(2 4.96092e-13 0)
(2 -2.14224e-07 0)
(2 2.93814e-07 0)
(2 -1.45354e-07 0)
(2 2.00668e-13 0)
(2 -1.62142e-06 0)
(2.01781 -0.0391092 0)
(2 -5.14927e-07 0)
(2 -4.12684e-08 0)
(2.00091 -0.00140144 0)
(2 -5.59217e-13 0)
(2.11238 -0.261616 0)
(2 -2.84525e-11 0)
(2 -4.65004e-12 0)
(2 -1.07698e-10 0)
(2 -9.11759e-14 0)
(1.87374 0.179669 0)
(2 -1.97818e-13 0)
(2 1.8322e-13 0)
(2 -2.51249e-13 0)
(2 -1.59649e-07 0)
(2.10854 -0.263658 0)
(2 5.59715e-14 0)
(2 1.45941e-09 0)
(1.84134 0.217756 0)
(1.83015 0.228688 0)
(2 -3.00572e-07 0)
(2 6.20662e-14 0)
(2 -1.14921e-07 0)
(2.03744 -0.0770465 0)
(2 -2.08867e-14 0)
(2 4.63542e-10 0)
(2 8.3226e-14 0)
(2 3.60237e-13 0)
(2 4.09087e-14 0)
(2 -2.00787e-13 0)
(2.0159 -0.0351676 0)
(1.99335 0.00601831 0)
(1.83179 0.229132 0)
(2 -1.26346e-13 0)
(2 2.99515e-13 0)
(2 1.61278e-13 0)
(1.83063 0.230083 0)
(2.03579 -0.068852 0)
(2 -3.4347e-09 0)
(2 3.15816e-13 0)
(2 2.99458e-13 0)
(1.82956 0.228906 0)
(1.83007 0.228088 0)
(2 -3.04971e-08 0)
(2 5.00714e-06 0)
(2 3.38519e-09 0)
(2 -5.20911e-13 0)
(2 1.31273e-09 0)
(2 -3.852e-13 0)
(2 -1.05366e-11 0)
(2 -3.54527e-13 0)
(2 2.61809e-13 0)
(2.11953 -0.263961 0)
(2 -1.30768e-13 0)
(2 -1.49262e-11 0)
(1.82936 0.228419 0)
(2.11807 -0.26449 0)
(2 -1.53711e-13 0)
(1.82945 0.227773 0)
(2 6.89525e-11 0)
(2.10525 -0.261961 0)
(2 6.89248e-14 0)
(2 1.2436e-13 0)
(2.11974 -0.26433 0)
(2 1.71225e-13 0)
(2 -1.14057e-11 0)
(2 -4.98942e-12 0)
(2 -2.54166e-13 0)
(2 -3.09283e-12 0)
(2 2.45216e-13 0)
(2 2.69875e-13 0)
(1.83458 0.225289 0)
(1.83177 0.228542 0)
(2 3.44086e-13 0)
(2 -2.09197e-13 0)
(2 -4.4096e-14 0)
(2 4.29635e-13 0)
(1.84599 0.21259 0)
(2 2.07998e-13 0)
(1.94435 0.0834081 0)
(2.10962 -0.265134 0)
(2 -3.00788e-08 0)
(2 1.58721e-13 0)
(2 6.84336e-14 0)
(2 1.42036e-14 0)
(2 3.88468e-13 0)
(2 -1.51447e-13 0)
(2 7.25308e-14 0)
(1.98706 0.0166988 0)
(2 -6.75562e-14 0)
(2 -2.02531e-13 0)
(1.90651 0.121428 0)
(2 3.68466e-13 0)
(2 1.89976e-13 0)
(2 2.89591e-13 0)
(1.85906 0.196746 0)
(2 7.90582e-14 0)
(2 2.89308e-13 0)
(2 -4.09114e-14 0)
(2 -2.62107e-13 0)
(2.11757 -0.264945 0)
(2 1.1923e-11 0)
(2 1.16067e-13 0)
(2.12056 -0.274252 0)
(2.11707 -0.264768 0)
(2 2.83802e-13 0)
(2 3.13396e-13 0)
(1.83159 0.228914 0)
(2 4.02307e-13 0)
(1.99233 -0.033652 0)
(2 -2.3088e-13 0)
(2 1.56351e-13 0)
(2 2.47438e-13 0)
(1.88247 0.168832 0)
(2.11883 -0.26955 0)
(2 -1.49813e-13 0)
(2.12234 -0.275159 0)
(2 2.04886e-13 0)
(2.0746 -0.156993 0)
(2 1.42892e-13 0)
(2 5.91096e-14 0)
(2 -4.93616e-14 0)
(1.83056 0.229241 0)
(2 -4.29911e-08 0)
(2 -3.1246e-13 0)
(1.83173 0.22885 0)
(2 -2.95628e-13 0)
(2 -2.8462e-11 0)
(2 1.70347e-09 0)
(1.83159 0.228893 0)
(2 2.33656e-10 0)
(2 5.34377e-13 0)
(1.83176 0.228976 0)
(2 2.62183e-13 0)
(2 -1.23796e-13 0)
(2.11805 -0.264667 0)
(2 -1.71112e-11 0)
(1.94472 0.083336 0)
(2 -9.81445e-14 0)
(2 -1.90381e-13 0)
(1.83016 0.228918 0)
(1.83015 0.228832 0)
(1.88743 0.161531 0)
(1.8487 0.209608 0)
(2 5.95388e-13 0)
(2.11717 -0.264786 0)
(2 -7.72153e-14 0)
(2 2.42162e-13 0)
(1.83921 0.220198 0)
(2 1.73025e-13 0)
(2.11813 -0.264662 0)
(2 -4.38535e-13 0)
(2 1.57611e-13 0)
(2 5.91023e-15 0)
(1.83124 0.22906 0)
(2 -2.24719e-13 0)
(2 -4.84204e-14 0)
(2 1.16213e-13 0)
(2 7.52765e-15 0)
(1.8981 0.148738 0)
(2 5.53976e-13 0)
(1.83293 0.216954 0)
(1.83109 0.229509 0)
(2.11769 -0.264872 0)
(2 6.84013e-14 0)
(2 4.1205e-13 0)
(2.11724 -0.263675 0)
(2.1178 -0.26419 0)
(2 2.1849e-13 0)
(2 1.87747e-13 0)
(2 -6.16486e-12 0)
(1.88097 0.170481 0)
(1.87226 0.181748 0)
(2 3.73854e-13 0)
(2 4.39306e-13 0)
(2 -3.19702e-14 0)
(2 -1.62923e-13 0)
(2 -2.94879e-13 0)
(2 4.46084e-14 0)
(2 -1.44014e-13 0)
(1.92818 0.106845 0)
(1.83014 0.22872 0)
(1.99203 0.0091553 0)
(2 -9.86645e-14 0)
(1.83379 0.226738 0)
(2.11782 -0.264503 0)
(2 1.42233e-13 0)
(2 1.7751e-13 0)
(2 7.27703e-14 0)
(1.90697 0.137279 0)
(2 -8.13108e-15 0)
(1.96671 0.0535426 0)
(2 -2.9676e-13 0)
(1.8457 0.21263 0)
(1.83251 0.228133 0)
(2 -1.32274e-13 0)
(2.11798 -0.264538 0)
(2 -9.32164e-15 0)
(1.83013 0.228778 0)
(2 -1.62111e-13 0)
(2 3.42103e-14 0)
(1.83163 0.228997 0)
(1.84215 0.216978 0)
(2 7.58928e-13 0)
(1.8263 0.229687 0)
(2 6.78067e-13 0)
(2.11188 -0.263531 0)
(2 -1.70134e-13 0)
(2 4.09775e-13 0)
(2 -4.12794e-14 0)
(1.83145 0.229333 0)
(1.83467 0.225321 0)
(1.85189 0.206011 0)
(2 2.84684e-13 0)
(1.82988 0.230603 0)
(1.83185 0.228883 0)
(2 5.24535e-13 0)
(1.83116 0.229229 0)
(2 -9.16112e-09 0)
(1.83234 0.228133 0)
(2 3.20294e-13 0)
(2.11639 -0.264677 0)
(2.00542 -0.0141345 0)
(2.11925 -0.265114 0)
(2 -3.34084e-11 0)
(2 -2.231e-11 0)
(2 -3.29776e-11 0)
(2 2.1923e-13 0)
(2 -1.3935e-11 0)
(1.83137 0.228949 0)
(2 -1.05168e-13 0)
(1.83141 0.228974 0)
(2 -3.34263e-11 0)
(2 -9.5298e-11 0)
(2 2.58465e-13 0)
(1.83997 0.219265 0)
(2 8.47366e-14 0)
(2.10753 -0.264138 0)
(1.83177 0.228889 0)
(2 -1.10205e-14 0)
(2.10809 -0.263789 0)
(2.11363 -0.251159 0)
(2.11479 -0.263709 0)
(2 1.54259e-13 0)
(1.91715 0.123246 0)
(1.98466 0.0191917 0)
(1.83105 0.229646 0)
(1.83177 0.228889 0)
(2 1.89633e-13 0)
(2 -3.70275e-07 0)
(2 -8.88207e-08 0)
(2 3.94026e-13 0)
(1.83171 0.228989 0)
(2 -1.80514e-13 0)
(2 2.5497e-14 0)
(1.83177 0.229009 0)
(1.83186 0.228913 0)
(2 -3.35008e-14 0)
(1.94126 0.0903496 0)
(1.99981 0.000882378 0)
(2 3.47667e-13 0)
(2.00117 -0.00197639 0)
(1.83 0.228883 0)
(2.0505 -0.106112 0)
(2 -1.19356e-07 0)
(2.0584 -0.116321 0)
(2.10275 -0.261222 0)
(2.10447 -0.262144 0)
(2.00148 -0.0488174 0)
(1.83052 0.228756 0)
(1.83392 0.226452 0)
(1.96759 0.0490161 0)
(1.83147 0.229071 0)
(1.83165 0.228993 0)
(2 1.87376e-13 0)
(2 2.6857e-13 0)
(1.83031 0.228823 0)
(1.82935 0.228933 0)
(1.8317 0.22881 0)
(1.82842 0.227664 0)
(2 2.57958e-13 0)
(1.83165 0.229037 0)
(2.10899 -0.263661 0)
(1.83093 0.228206 0)
(1.83054 0.228553 0)
(1.82965 0.228163 0)
(1.83132 0.230166 0)
(2.04493 -0.0932534 0)
(2.03327 -0.0691183 0)
(2.02467 -0.0468264 0)
(1.83165 0.229059 0)
(2.01422 -0.0316961 0)
(1.83111 0.228904 0)
(2 7.83706e-13 0)
(2 -1.72099e-13 0)
(1.83103 0.229762 0)
(1.8316 0.228868 0)
(2 3.9802e-13 0)
(2.11713 -0.264753 0)
(1.83046 0.229236 0)
(1.83178 0.228978 0)
(2 5.25438e-13 0)
(1.83154 0.228807 0)
(1.83138 0.228829 0)
(2 3.79222e-13 0)
(1.8318 0.229019 0)
(2.1091 -0.263729 0)
(1.83157 0.229785 0)
(1.83022 0.228776 0)
(1.83033 0.228798 0)
(1.83044 0.231256 0)
(2 3.51744e-13 0)
(2 1.93824e-13 0)
(2 -1.05022e-07 0)
(1.83179 0.228959 0)
(1.89065 0.158093 0)
(2.11531 -0.256379 0)
(1.83152 0.228856 0)
(2.11917 -0.270756 0)
(1.83175 0.228995 0)
(2 -1.81281e-13 0)
(2 9.26319e-14 0)
(2 -1.00685e-13 0)
(2 2.38634e-13 0)
(1.83116 0.2285 0)
(1.8315 0.228961 0)
(2 7.78318e-14 0)
(2 -3.92675e-13 0)
(1.83149 0.228883 0)
(2.11955 -0.266763 0)
(1.83175 0.229255 0)
(2.10874 -0.264453 0)
(2 5.56952e-14 0)
(1.83265 0.227715 0)
(2 5.74643e-14 0)
(2.1178 -0.264267 0)
(1.83084 0.22954 0)
(2.0929 -0.192859 0)
(2 -1.48079e-13 0)
(1.83175 0.228873 0)
(1.83052 0.22997 0)
(1.83151 0.229366 0)
(2 2.89246e-13 0)
(2 3.16786e-13 0)
(1.92539 0.111416 0)
(1.83068 0.229743 0)
(2.10697 -0.262718 0)
(1.83158 0.229007 0)
(2 1.07375e-13 0)
(1.83169 0.228967 0)
(2.03651 -0.0781821 0)
(1.83151 0.229348 0)
(2.11976 -0.263707 0)
(2 1.94232e-13 0)
(1.83191 0.228718 0)
(2.10899 -0.237041 0)
(1.83103 0.229803 0)
(2.10662 -0.262182 0)
(2 -4.47234e-13 0)
(1.83124 0.229052 0)
(2 2.29225e-13 0)
(1.82997 0.228659 0)
(2 -2.21115e-13 0)
(1.90217 0.143857 0)
(1.83774 0.221683 0)
(1.86693 0.187988 0)
(2.12344 -0.276212 0)
(2 1.24241e-13 0)
(1.83162 0.229115 0)
(2 2.32235e-13 0)
(1.83163 0.228949 0)
(2 -1.141e-07 0)
(1.83165 0.229091 0)
(2 -2.41019e-07 0)
(2 3.13482e-13 0)
(1.8317 0.228929 0)
(2.00534 -0.0143022 0)
(1.83043 0.230085 0)
(2.11376 -0.263243 0)
(1.85985 0.197316 0)
(2 -2.25966e-14 0)
(1.87999 0.172232 0)
(2 -8.09103e-14 0)
(1.83065 0.229281 0)
(1.83178 0.229044 0)
(1.83079 0.228925 0)
(2 1.33155e-14 0)
(1.84824 0.210184 0)
(1.83178 0.229126 0)
(1.84423 0.214375 0)
(1.89667 0.150635 0)
(1.83177 0.232344 0)
(2 -2.11438e-13 0)
(1.88795 0.161615 0)
(2 -1.35354e-13 0)
(1.83186 0.229061 0)
(2 -2.35403e-13 0)
(1.97329 0.0394811 0)
(2 -7.00643e-14 0)
(1.84384 0.215402 0)
(2 1.51571e-13 0)
(1.83168 0.228993 0)
(1.83954 0.219935 0)
(1.83957 0.219699 0)
(2 6.08839e-13 0)
(1.83136 0.232295 0)
(2.11822 -0.264772 0)
(2 2.72948e-13 0)
(2.11788 -0.264937 0)
(2 3.09909e-13 0)
(2 -1.59177e-14 0)
(2 -2.60374e-13 0)
(1.83012 0.228701 0)
(2 5.57942e-14 0)
(1.83159 0.229194 0)
(2 2.904e-14 0)
(2 6.35529e-13 0)
(2 4.06476e-13 0)
(1.83121 0.229194 0)
(1.82901 0.227232 0)
(1.87006 0.184341 0)
(1.83138 0.228976 0)
(1.83023 0.22945 0)
(2.11844 -0.264499 0)
(1.82739 0.229745 0)
(1.8305 0.228751 0)
(2 2.94471e-13 0)
(1.85248 0.200886 0)
(1.83183 0.228967 0)
(1.83812 0.227485 0)
(2 7.65719e-14 0)
(1.83009 0.228767 0)
(1.83001 0.228812 0)
(2 2.52333e-13 0)
(1.82881 0.231196 0)
(1.8313 0.228926 0)
(1.83098 0.228834 0)
(1.83091 0.229462 0)
(2 3.49762e-13 0)
(2 3.92713e-13 0)
(2 1.47858e-13 0)
(1.83158 0.228998 0)
(2.12122 -0.269137 0)
(2 1.62063e-13 0)
(1.83179 0.228982 0)
(2 2.43356e-14 0)
(2 -2.62331e-13 0)
(2.11873 -0.265188 0)
(2 -3.26873e-13 0)
(2 -3.75176e-13 0)
(1.8316 0.229012 0)
(1.83153 0.228719 0)
(2 -1.88793e-13 0)
(1.83174 0.229016 0)
(1.83188 0.231857 0)
(1.83137 0.228983 0)
(2.0074 -0.0163377 0)
(1.83141 0.228949 0)
(2 -4.76746e-14 0)
(1.83136 0.228947 0)
(1.83141 0.228988 0)
(1.87193 0.179587 0)
(2 5.10065e-13 0)
(2 6.01786e-13 0)
(2 3.79717e-13 0)
(1.83045 0.229754 0)
(1.83153 0.228866 0)
(1.83143 0.228994 0)
(2.01669 -0.0395111 0)
(2 -2.27269e-14 0)
(1.82816 0.231421 0)
(1.83135 0.228948 0)
(1.83166 0.228903 0)
(2 -9.05523e-14 0)
(1.83123 0.229023 0)
(1.83187 0.229045 0)
(1.83157 0.228995 0)
(1.8278 0.23203 0)
(2 1.56623e-13 0)
(1.83175 0.228895 0)
(1.83182 0.228267 0)
(1.85239 0.202242 0)
(1.83185 0.228573 0)
(1.82859 0.231393 0)
(2 7.39672e-15 0)
(1.83174 0.230167 0)
(1.83327 0.226819 0)
(1.83142 0.228971 0)
(1.83127 0.229284 0)
(1.8317 0.22909 0)
(2.11843 -0.264979 0)
(1.83165 0.229023 0)
(1.83196 0.228493 0)
(2 2.85779e-14 0)
(1.83154 0.229009 0)
(1.83138 0.228953 0)
(1.83164 0.228907 0)
(1.83175 0.228895 0)
(2 -4.75474e-08 0)
(1.83168 0.229099 0)
(1.83151 0.229083 0)
(2 -1.59681e-07 0)
(1.83181 0.228976 0)
(1.85878 0.198122 0)
(2 7.15449e-13 0)
(2 1.1657e-13 0)
(2 8.94524e-10 0)
(1.83189 0.228596 0)
(1.83101 0.230831 0)
(2 -3.39022e-13 0)
(2 2.83122e-13 0)
(1.90762 0.135994 0)
(2 4.74118e-13 0)
(1.83198 0.228894 0)
(2 2.41799e-13 0)
(2 -1.12558e-13 0)
(1.83168 0.228994 0)
(1.83095 0.229556 0)
(1.83124 0.229053 0)
(1.83172 0.228946 0)
(2 4.98167e-14 0)
(2 -1.31097e-14 0)
(2 -3.72531e-13 0)
(1.88076 0.167559 0)
(2 1.19199e-13 0)
(1.83145 0.22918 0)
(2 2.20076e-13 0)
(2 3.30489e-13 0)
(1.83027 0.228828 0)
(1.8303 0.228799 0)
(2 -1.86981e-13 0)
(1.83179 0.228949 0)
(2.12238 -0.276322 0)
(1.83178 0.229017 0)
(1.83161 0.229268 0)
(2.0934 -0.199535 0)
(2 -1.98939e-13 0)
(2.1227 -0.276226 0)
(1.85033 0.203655 0)
(1.83078 0.230061 0)
(1.83159 0.229435 0)
(1.8316 0.22955 0)
(2.11683 -0.264088 0)
(1.8317 0.229004 0)
(1.83135 0.22948 0)
(2.11687 -0.264588 0)
(2.12 -0.274049 0)
(2 -2.64042e-07 0)
(1.83177 0.229224 0)
(1.83176 0.229023 0)
(2 -4.15481e-13 0)
(2 9.30375e-14 0)
(1.83167 0.228969 0)
(2 9.98794e-14 0)
(1.83048 0.232947 0)
(2 2.47428e-06 0)
(1.85349 0.203865 0)
(2 6.82876e-14 0)
(1.92148 0.118543 0)
(1.83177 0.229056 0)
(1.83055 0.229992 0)
(1.8808 0.171146 0)
(1.84951 0.205552 0)
(1.83023 0.228721 0)
(1.8313 0.229418 0)
(1.85023 0.211465 0)
(2 -7.4837e-14 0)
(2.11852 -0.264998 0)
(1.83052 0.229914 0)
(1.83172 0.228824 0)
(1.82931 0.231098 0)
(2 7.24734e-06 0)
(2 3.09546e-10 0)
(2 1.52874e-09 0)
(1.8279 0.229698 0)
(2 1.64523e-13 0)
(1.83158 0.228824 0)
(1.83147 0.228956 0)
(2.07874 -0.170067 0)
(2 -6.35335e-13 0)
(1.83167 0.228923 0)
(2.00002 -4.64177e-05 0)
(2 1.062e-14 0)
(1.99999 1.90745e-05 0)
(1.99998 2.79043e-05 0)
(1.83178 0.228828 0)
(1.83178 0.22878 0)
(2.00055 -0.00091463 0)
(2 4.81944e-15 0)
(2 7.86034e-14 0)
(1.83157 0.228918 0)
(1.83067 0.229779 0)
(1.8315 0.228874 0)
(1.82953 0.229946 0)
(1.83158 0.228619 0)
(2.11826 -0.2581 0)
(1.85714 0.199476 0)
(2 -2.54813e-13 0)
(1.83274 0.227473 0)
(1.83125 0.228978 0)
(1.83137 0.229 0)
(1.83178 0.23171 0)
(2 8.91453e-14 0)
(1.8317 0.229034 0)
(1.83603 0.223865 0)
(1.83102 0.229499 0)
(2 1.71396e-13 0)
(1.83105 0.228929 0)
(1.83102 0.228942 0)
(2.04025 -0.0865336 0)
(1.83173 0.228997 0)
(1.83094 0.228969 0)
(2 -3.16742e-13 0)
(1.83151 0.228792 0)
(2.05316 -0.107738 0)
(1.83163 0.229048 0)
(2.04688 -0.0932733 0)
(1.83151 0.229048 0)
(2 -1.36826e-07 0)
(1.83141 0.228941 0)
(1.8249 0.232086 0)
(1.83181 0.228997 0)
(1.8316 0.229114 0)
(1.83146 0.228955 0)
(1.83001 0.228414 0)
(1.83133 0.229231 0)
(1.82992 0.228641 0)
(2 7.6462e-14 0)
(2.02293 -0.0460179 0)
(1.83168 0.229141 0)
(1.83161 0.228956 0)
(2.0543 -0.108549 0)
(1.83178 0.228989 0)
(2.00287 -0.00973505 0)
(1.89346 0.150149 0)
(1.83157 0.228998 0)
(1.83106 0.228825 0)
(1.83119 0.227844 0)
(2 3.52469e-13 0)
(1.83042 0.230071 0)
(1.89331 0.150037 0)
(1.83118 0.229082 0)
(2.02051 -0.0443053 0)
(1.83061 0.229852 0)
(1.82603 0.23174 0)
(2 2.66848e-13 0)
(2.04437 -0.0841665 0)
(2 -3.42689e-09 0)
(1.83603 0.225443 0)
(2 -7.98827e-14 0)
(1.88399 0.16681 0)
(2 4.96047e-09 0)
(1.83672 0.229405 0)
(2.03962 -0.080166 0)
(2 3.63569e-13 0)
(1.83188 0.228847 0)
(1.83013 0.232694 0)
(2 1.05282e-13 0)
(1.83018 0.22889 0)
(1.83104 0.229726 0)
(1.82937 0.230459 0)
(1.83051 0.232524 0)
(1.82918 0.230621 0)
(2 4.28264e-13 0)
(1.83039 0.22879 0)
(2 4.01271e-13 0)
(2 2.23261e-13 0)
(2 -3.98212e-13 0)
(2.03674 -0.0705212 0)
(1.83126 0.228919 0)
(1.83188 0.228634 0)
(1.83108 0.228438 0)
(1.83179 0.228955 0)
(1.8299 0.231831 0)
(1.83125 0.22865 0)
(1.83016 0.228153 0)
(1.83161 0.229188 0)
(2.03433 -0.0665334 0)
(1.98821 0.0227609 0)
(2 3.54603e-09 0)
(2 7.29637e-14 0)
(1.82285 0.232299 0)
(1.83174 0.229063 0)
(1.83133 0.228976 0)
(1.83196 0.228962 0)
(1.99999 1.63586e-05 0)
(1.91518 0.121915 0)
(2 -1.67984e-07 0)
(1.82903 0.2311 0)
(1.84491 0.216267 0)
(2 -2.58542e-12 0)
(2 -5.43033e-11 0)
(2.08869 -0.188329 0)
(1.83139 0.228968 0)
(2 -7.80794e-14 0)
(2 1.07703e-14 0)
(2.10726 -0.263413 0)
(1.83183 0.229039 0)
(2 3.02703e-14 0)
(1.83039 0.228778 0)
(1.83164 0.228916 0)
(1.83041 0.228765 0)
(1.83789 0.22194 0)
(1.83136 0.228991 0)
(2 -1.23697e-10 0)
(2.12049 -0.270126 0)
(1.95641 0.0659899 0)
(1.83161 0.228844 0)
(1.83138 0.22898 0)
(2 8.80738e-14 0)
(1.83184 0.22883 0)
(1.83155 0.228993 0)
(1.91627 0.124176 0)
(1.99869 0.00626795 0)
(1.96683 0.0570606 0)
(2 -3.2268e-13 0)
(1.82979 0.228696 0)
(1.83114 0.229077 0)
(2 -1.2009e-07 0)
(2 -2.09428e-10 0)
(2.11757 -0.264177 0)
(2 -2.37338e-10 0)
(2 -3.77972e-13 0)
(1.83183 0.228977 0)
(1.83177 0.228995 0)
(1.83152 0.229296 0)
(1.83155 0.22888 0)
(1.83151 0.22885 0)
(1.82758 0.229337 0)
(1.83146 0.229154 0)
(1.83163 0.228705 0)
(1.83129 0.228837 0)
(2 3.16526e-15 0)
(2.00143 -0.00246285 0)
(1.8318 0.229034 0)
(1.83162 0.228988 0)
(2.00114 -0.00170154 0)
(1.83173 0.229009 0)
(1.83144 0.228987 0)
(2.11736 -0.262921 0)
(2.11756 -0.264923 0)
(1.8321 0.228353 0)
(1.83065 0.229323 0)
(2 4.12794e-13 0)
(2 -9.06853e-14 0)
(1.9996 0.00158762 0)
(1.83169 0.228833 0)
(1.83169 0.229286 0)
(1.83187 0.229026 0)
(2 1.00556e-09 0)
(1.8317 0.228967 0)
(2 -1.9687e-13 0)
(2.04872 -0.0961964 0)
(1.82893 0.231459 0)
(1.83067 0.231212 0)
(2 5.04315e-13 0)
(1.92323 0.115128 0)
(1.83156 0.228984 0)
(2 3.95347e-13 0)
(1.82915 0.227313 0)
(2 -1.02833e-10 0)
(1.83177 0.228902 0)
(1.88991 0.156601 0)
(1.83114 0.229336 0)
(2 1.30023e-11 0)
(1.83192 0.228778 0)
(1.8333 0.231208 0)
(2.1167 -0.26383 0)
(1.83171 0.228998 0)
(2 -1.22433e-07 0)
(1.83131 0.228626 0)
(1.82977 0.228752 0)
(2 7.12002e-09 0)
(2.11738 -0.263379 0)
(1.83106 0.229644 0)
(1.85603 0.203834 0)
(2.0007 -0.000986634 0)
(1.83246 0.221829 0)
(1.8314 0.228955 0)
(2 -4.89544e-12 0)
(1.99999 -0.00630261 0)
(1.83175 0.229701 0)
(2.0019 -0.00161334 0)
(1.8316 0.229007 0)
(2 -3.21825e-12 0)
(2 5.09468e-14 0)
(1.83087 0.229033 0)
(2 8.37338e-14 0)
(1.83109 0.229864 0)
(1.8316 0.229028 0)
(2.00135 -0.00228345 0)
(1.85825 0.195124 0)
(2 3.03119e-09 0)
(1.83147 0.22898 0)
(2 6.012e-10 0)
(2 -7.67423e-13 0)
(2 1.07516e-11 0)
(2 7.22862e-12 0)
(1.83197 0.228935 0)
(2 6.92514e-09 0)
(2 6.86917e-13 0)
(1.83135 0.232239 0)
(2 3.76868e-13 0)
(1.83134 0.229068 0)
(2 3.08094e-10 0)
(1.8926 0.155899 0)
(1.83218 0.228176 0)
(1.83186 0.228566 0)
(2 9.90165e-10 0)
(2 -3.43274e-13 0)
(1.99732 -0.0029001 0)
(2 2.6106e-12 0)
(1.83103 0.228955 0)
(1.83161 0.228937 0)
(1.83128 0.228582 0)