/*--------------------------------*- C++ -*----------------------------------*\
  =========                 |
  \\      /  F ield         | OpenFOAM: The Open Source CFD Toolbox
   \\    /   O peration     | Website:  https://openfoam.org
    \\  /    A nd           | Version:  12
     \\/     M anipulation  |
\*---------------------------------------------------------------------------*/
FoamFile
{
    format      ascii;
    class       surfaceScalarField;
    location    "2.49";
    object      phi;
}
// * * * * * * * * * * * * * * * * * * * * * * * * * * * * * * * * * * * * * //

dimensions      [1 0 -1 0 0 0 0];

internalField   nonuniform List<scalar> 
33852
(
0.000251329
2.24281e-05
-0.000273757
-0.000246121
1.32441e-05
0.000232877
-0.000176768
-7.30402e-05
0.00024585
0.000304053
-0.000163969
-0.000140085
0.000291687
-4.24832e-05
-0.000248319
2.72441e-05
-0.000260681
0.000233437
0.00031463
1.47312e-05
-0.00032983
0.000304277
-9.59564e-05
-0.000208321
0.000286413
-3.50841e-05
0.000196516
2.50572e-06
-0.000189882
0.000289107
-0.000365887
7.67675e-05
0.000360085
-4.56798e-05
-4.39602e-05
0.000263285
-0.000219325
-4.39544e-05
0.000317987
-0.000274079
6.16463e-05
-0.000240212
0.000252057
1.2236e-05
-0.000264293
0.000264853
-1.2796e-05
-0.000278433
3.23121e-05
0.000340405
-5.1063e-05
0.000158593
0.000112308
-0.000270901
-2.43341e-05
0.000303366
-0.000279176
0.000271377
-0.000276165
4.78802e-06
-1.77691e-05
0.000275472
-0.000257681
-0.000224245
1.48269e-05
0.00021253
-0.000154275
-0.000183331
0.000337714
-0.000147922
-7.06829e-05
0.000219283
3.72401e-05
0.000267037
-6.12942e-05
-0.000263549
0.000324228
-0.000207577
1.74408e-06
0.000202618
-0.000201878
-1.93456e-05
0.000142045
0.000137388
-0.000279433
0.000341154
1.93387e-05
0.000142618
0.000128347
-0.000270965
-0.000101136
0.000259729
-0.000250489
-3.78001e-06
0.000254269
0.000330601
-5.95278e-05
-0.000271004
-0.000356473
0.00020352
-0.000227728
0.000209969
0.000231645
3.32081e-05
-5.65602e-06
0.000237301
-7.88193e-06
0.0002192
-0.000232625
0.000259869
0.000316265
-5.72755e-05
-0.000259552
-0.000309093
5.51042e-05
0.000253989
0.00024017
-0.000301847
0.000273589
-0.000306321
3.27321e-05
-0.000180237
-5.49362e-05
0.000235173
0.000272133
-0.000272133
0.000148429
-0.000297473
0.000149045
-0.000210642
0.00021722
-7.34275e-06
-0.000268241
0.000237301
3.09401e-05
-0.00020032
0.000247035
-4.6682e-05
-9.16164e-05
-0.000217477
-0.000114288
-0.000251615
-0.000280169
0.000266113
1.40561e-05
0.000330595
1.18892e-05
-0.000250433
7.01963e-05
0.000117908
0.000145909
-0.000263817
1.34681e-05
-0.000267457
0.000253989
-0.000134569
0.000282997
-0.000154976
-5.25233e-05
0.000209316
-0.000274681
0.000245113
2.95681e-05
0.000237553
-0.000268437
3.08841e-05
-0.00018708
-2.42788e-05
0.000151665
0.000115565
-0.00026723
-0.00018682
-2.79193e-05
0.000215144
0.000263985
2.24281e-05
0.000275941
-2.35201e-06
0.000265329
-0.000250741
-1.45881e-05
0.00022722
-6.231e-05
-0.000151383
-1.82001e-06
0.000239373
0.000366302
-0.000312524
-5.39204e-05
-2.83335e-05
0.000303561
-0.000275557
-0.000101584
0.000219493
0.000342167
2.42178e-05
-0.000371491
0.000353625
1.81293e-05
-0.00020966
2.20924e-05
0.000307749
-0.000319722
1.2185e-05
-0.000207918
0.000271727
-6.39311e-05
-4.45202e-06
1.71203e-05
-0.000319758
0.000302231
0.000235355
-0.000199545
-3.52847e-05
0.000270447
-0.000341036
7.03362e-05
0.000332874
-6.36095e-05
-0.000268941
0.000236573
3.23681e-05
-0.000129388
-0.000132609
0.000261997
-1.86761e-05
-0.000249565
-1.022e-05
-0.000258721
2.33302e-05
0.000209534
-0.000234454
3.10654e-05
-0.000208961
0.00019177
-2.50912e-05
0.000328425
-0.000303242
-0.000279329
0.000273701
5.62802e-06
0.000156129
-0.000296857
0.000140729
-5.67294e-05
-0.000146657
0.000195845
0.000143277
0.0001218
-0.000265077
-0.00025
0.000225582
-0.000210131
0.000142624
-0.000168813
0.000327181
-0.000158369
0.000185389
7.16523e-05
-0.000257041
0.000255193
2.07481e-05
-0.000192277
0.000148317
5.02148e-05
0.000265767
0.000307184
-0.000290404
9.43129e-05
-0.000239136
0.000135241
0.000117096
-0.000281065
-1.22251e-06
0.000244941
-0.000242766
0.000166489
0.000122836
-0.000289325
0.000145202
9.03697e-05
-3.92002e-06
0.000259113
0.0003036
5.47507e-06
-0.000324113
0.000315193
8.87783e-06
-3.99002e-05
0.000236293
-0.000196393
4.08802e-06
-0.000284257
-2.53839e-05
0.000165219
-0.000146887
-0.000164056
0.000130981
0.000208493
-0.000166142
-0.000269921
0.000264965
4.95602e-06
2.64041e-05
0.000174721
-0.000201125
2.87841e-05
-0.000257265
0.000228481
0.000276137
-0.000262669
0.000115108
0.000212073
0.000216558
-0.000194244
-0.000175813
0.000202217
1.36375e-05
0.00028246
-0.000296736
0.000270615
2.16263e-05
0.000271156
-0.000283335
1.23368e-05
3.86402e-06
0.000267513
-1.8055e-05
0.000289615
0.000330854
9.92542e-06
0.000213388
-0.000257328
0.000316645
-0.000316402
-6.63603e-06
-0.000272693
2.91108e-05
0.000210762
0.000187993
3.98722e-05
-0.000227865
-5.50431e-05
0.000212241
-0.000169942
0.000153609
-0.000270285
0.000116676
0.000279441
-0.000329701
5.02602e-05
-6.38122e-05
0.000249201
-0.000166909
0.000315897
-0.000148989
-0.000314177
-1.0024e-05
-0.000214929
0.000175029
2.78601e-05
-0.000278349
0.000276221
-1.88441e-05
-0.000248613
1.72415e-05
-0.000302369
0.000285728
0.000344989
-0.000158593
-0.000186397
-1.69226e-05
-0.000240455
0.000257027
-0.000266617
-3.30401e-06
0.000224001
2.45841e-05
-0.000248585
0.000284509
-0.000128381
0.000140197
0.000138853
-0.000279049
-0.000199931
-1.08275e-05
0.000258169
-0.000115551
0.00022568
-0.000242528
-6.38122e-05
0.000251805
-0.000208044
0.000249481
-5.60002e-07
-0.000248921
0.000255109
-0.000237441
-0.000324988
0.000299981
-3.08841e-05
0.000203169
-0.000172285
0.000291766
1.26764e-06
-0.000293125
7.35652e-05
0.000129193
-0.00020952
4.73179e-05
-0.000198883
-0.000288801
-4.53354e-06
0.00029319
-1.61636e-06
-0.000287587
0.000146973
-0.000273925
0.000126952
-0.000263779
0.000220898
-0.000293765
0.000266177
0.000279441
-0.000314028
-1.24278e-05
0.000326167
0.000110535
0.000161238
-2.13772e-05
0.00035215
0.000140141
0.000139833
-0.000279973
0.000245029
-0.000250349
5.32002e-06
-0.000210953
0.000180069
0.000279133
-5.43202e-06
0.000350627
-3.25905e-05
-0.000302608
0.000302644
-1.75087e-06
0.000270985
-0.000270985
-0.000365198
0.00022616
0.000139044
-0.000208813
2.03057e-05
1.70089e-05
0.000275157
-0.000278461
3.30401e-06
-5.05416e-06
0.000169877
-0.000167187
-0.000197345
0.000254801
-5.74562e-05
-0.000204293
4.16537e-06
-0.000243884
0.00016122
8.28049e-05
-0.000180265
0.000261403
-8.11386e-05
0.000256285
-0.000287113
3.08281e-05
-0.000249229
5.18842e-05
-2.34496e-05
0.000276172
-0.000252466
-0.000253547
1.35801e-06
0.000252189
0.000231281
-7.28003e-06
-0.000294286
7.53957e-06
0.000286755
-0.000266085
0.000266085
-0.000285428
-5.53727e-05
-0.000170888
-0.000194124
-0.000169078
0.000215512
-4.45533e-05
-1.232e-05
-0.000239177
0.000251497
3.10801e-06
0.000210113
-0.000213221
-0.000185564
-2.28092e-05
0.000208696
7.59041e-06
0.000294466
-0.00030207
-0.000236153
-1.34401e-05
0.000249593
1.50361e-05
-0.000251189
-0.000241025
0.000256061
-0.000301284
0.000308882
0.000256117
7.16803e-06
-0.000172478
-3.22988e-05
0.000204826
-0.000145237
-0.000134765
-0.000244329
0.000240549
0.000298521
-4.36626e-07
-0.000298226
-0.000298821
6.17227e-07
0.000298193
1.93662e-05
0.000181217
0.000163773
7.70042e-05
-0.000257269
-0.000159242
0.000310908
0.000250721
-0.000108677
-0.000235145
-1.83681e-05
0.000253513
-0.000204517
-0.000126778
0.000331288
-6.10402e-06
-0.000229125
0.000235229
-2.21026e-05
-0.000186024
-0.000286129
-8.54209e-05
6.31481e-06
-0.000300616
-0.000212686
0.000328016
-0.000114774
0.000281597
0.000288205
-5.16322e-05
0.000271993
-1.57081e-05
-0.000187491
-1.41782e-05
0.000202566
0.000297281
4.22119e-07
-0.000297699
-0.000269983
-3.27148e-05
-0.000218821
0.000247605
-2.51871e-05
0.000310685
-0.000285339
0.00018109
8.01319e-06
-0.000186128
-3.43748e-05
0.000216733
-0.000301301
0.000276147
0.000291557
5.76534e-06
-0.00029764
0.000157445
0.00011886
-0.000276305
0.000289467
5.60662e-06
-0.00029454
-0.00024807
0.00012349
0.000131981
-0.000281925
0.000295465
0.000302513
-0.000156857
-0.000145657
0.000207005
-0.000203897
-0.000232009
-0.000121156
-0.000155009
-4.06046e-06
-0.000294009
0.000298086
-1.0136e-05
0.000276249
0.000290287
-2.04579e-05
-0.000269931
-0.000262989
2.893e-05
0.000233929
0.000271433
-0.000267569
0.000249621
2.95121e-05
0.000314858
-9.76888e-06
-0.000305227
5.09717e-05
0.000154788
-0.000214941
-0.000102928
0.000200726
-9.81317e-05
0.000252617
-2.91201e-05
-0.000223497
3.62716e-07
0.000291274
-0.000178511
-3.18778e-05
0.000210969
-1.73134e-06
0.00029144
-9.33244e-05
0.000246933
-0.000255417
-5.26402e-06
0.000121184
0.000181329
1.34121e-05
0.000241557
-0.000254969
0.000236097
1.34961e-05
-0.000249593
0.000249509
-0.000242929
0.000256425
6.31682e-05
-0.000201074
0.000137966
-0.000217884
0.000117599
-0.000205704
0.00029727
1.41783e-06
-0.000298664
0.000253849
2.22881e-05
0.000268493
-0.000216441
-5.20522e-05
0.000225518
-0.000246849
2.13305e-05
0.000257909
1.40841e-05
5.85577e-05
0.000295657
0.000267186
-3.89594e-05
-0.000228226
0.000174013
1.274e-05
0.000240297
-0.000253037
0.000193852
-0.000113981
-7.96252e-05
-0.000206666
2.12804e-05
-1.30751e-06
-0.000297672
0.000299004
0.000222697
-0.000169209
-5.3378e-05
0.000344643
-4.14114e-05
0.000275969
-0.000135829
2.31561e-05
0.000238337
-0.000261493
-0.000231141
0.000254297
-2.6665e-05
-0.000229755
0.000256408
0.000154066
-0.000162329
-7.43565e-05
-0.000165128
-0.000261723
4.14346e-05
0.000220288
-3.17521e-05
-0.00022997
7.19182e-06
0.000261717
-3.25193e-05
-0.000229198
1.67224e-05
0.000126548
-0.000193168
0.000308785
-0.000171397
0.000262319
-3.57923e-05
-0.000226526
-0.000319707
0.000170411
-9.74473e-05
-0.000228453
-6.90203e-05
-2.93485e-07
-0.000299962
0.000299708
-2.74714e-05
0.000183021
-0.000154954
0.000307897
6.80262e-06
0.000250097
-0.000248249
-1.84801e-06
-0.000176229
6.17349e-05
0.000260256
-3.07212e-05
-0.00022954
0.000197345
-0.000250769
5.34242e-05
0.000254205
-0.000231206
-2.29991e-05
-0.000252337
0.000240017
0.000145073
0.000102013
-0.000101864
-0.000170269
0.000132496
-0.000261885
-0.000290249
0.000242201
4.80483e-05
0.00021681
3.1247e-05
-0.000248056
-0.00023696
-9.86025e-06
0.00024667
0.000326359
-2.31531e-05
0.000263996
-3.42721e-05
-0.000229724
0.000146458
-0.000242755
9.35982e-05
3.63259e-05
-0.000265637
0.000229311
-0.000253905
0.000121296
0.000249817
-5.24722e-05
0.000294673
-0.000154253
-0.000140421
0.000122248
-0.000289157
1.53441e-05
0.000237665
-0.000253009
-0.000262031
3.54705e-05
0.00022656
-2.75756e-06
-3.77917e-05
-0.000224239
0.000249358
-0.000272766
-0.000264649
3.44737e-05
0.000230175
0.000193257
0.000101416
-0.000149941
0.000290137
-0.000173632
-3.84376e-05
0.000210637
-1.81721e-05
0.000263201
-0.000292936
0.000310505
0.000117515
0.00010439
0.000261325
-0.000261325
0.000309125
-1.92651e-05
-0.000293354
5.32002e-07
0.000248949
0.000254857
1.65761e-05
0.000309032
-0.000276068
-3.3274e-05
-2.26336e-05
0.000266577
-0.000243943
3.00077e-05
-0.000260519
0.000230511
-0.000252139
0.000229506
0.00032832
3.11501e-05
-0.000260598
0.000229447
0.000276809
-3.16961e-05
-6.80433e-06
-0.000292997
0.00030155
0.000270343
3.8599e-05
0.000230245
-0.000266617
3.63721e-05
0.000201855
-0.000202853
-0.000258301
0.000238533
1.97681e-05
0.000169762
-0.000257245
8.74835e-05
-0.000214787
0.000163241
-0.000249145
8.59043e-05
-0.000266169
0.000224813
4.13562e-05
0.000253073
-2.78797e-05
-0.000225194
0.000163044
4.11338e-05
-0.000234837
-2.29601e-05
0.000257797
-0.000236377
-2.28761e-05
0.000259253
-1.94265e-05
0.000255969
-0.000236542
-0.000259345
0.000239919
-3.61837e-05
0.000172471
-0.000235929
-2.24001e-05
0.000258329
-0.00025484
0.000229192
2.56481e-05
2.94001e-06
0.000211289
-0.000214229
-0.000267031
3.79849e-05
0.000229046
0.000270677
4.48002e-06
4.1221e-05
0.000156603
-0.000196157
-3.31194e-05
0.000249927
-2.09715e-05
0.000218597
9.73004e-05
0.000248203
-0.000216952
0.000277142
-0.000279004
0.000276912
-0.000281635
-1.84997e-05
0.000258601
-0.000240101
-0.000261644
0.000243145
2.98073e-05
-0.000200382
-2.99178e-05
-0.000202965
0.000230559
0.000314521
-0.000287273
-2.74095e-05
0.000261297
-3.11081e-05
-0.000230189
3.28739e-05
-0.000262362
0.000229488
-0.000229853
0.000259645
-2.97921e-05
0.000325403
-1.7598e-05
0.000145343
-0.000197416
0.000256929
-0.000109956
-0.000286228
0.000287373
0.000241977
-6.41202e-06
-0.000235565
0.000228537
-0.000181222
-3.72868e-05
0.000219185
2.8677e-05
-0.00021017
-0.000239989
0.000260317
-2.03281e-05
-0.000102717
0.000188331
-8.625e-05
3.09759e-05
-0.000204721
0.000240169
-0.000263424
2.32552e-05
-0.000115584
0.000258861
-0.000243993
0.000265721
-2.17281e-05
-0.000238953
0.000232541
0.000258626
-0.000245105
-1.35213e-05
0.000264349
-2.46681e-05
-0.000246317
-0.000272909
-1.05072e-05
0.00029877
-5.31789e-05
-7.51302e-06
0.0002923
-0.000286946
-0.00015947
0.000201503
0.000227206
1.82633e-05
-0.000246103
0.0003292
-0.000329208
0.000260955
-0.000245018
-1.59377e-05
-0.00030135
-5.87248e-07
0.000304876
9.68242e-06
3.7762e-05
0.000170654
-0.000208256
0.000209069
-3.47122e-05
-0.000179405
0.000278054
-0.000255789
-2.22648e-05
-0.000209811
3.14175e-05
3.15421e-05
-0.000261891
0.000230348
0.000285705
-0.000292069
2.44721e-05
-0.000259617
-0.000257965
1.87881e-05
0.000266057
-1.64361e-05
0.000151173
-0.000267625
0.000116452
0.0002989
-4.4363e-06
0.000238617
-7.53763e-05
2.12521e-05
0.000177045
-0.000198297
-0.000183877
0.000205129
-0.000236275
0.000257219
-2.09441e-05
0.000261462
-3.31689e-05
-0.000228293
-0.000197009
-5.21362e-05
0.000251581
-1.48401e-06
9.02578e-06
-0.000263071
0.00025551
-0.000343181
0.000236672
0.000106604
0.000266371
-0.000236811
-2.95597e-05
0.000306871
-0.000314691
7.82643e-06
-2.57041e-05
-0.000229097
0.000254801
0.000261493
-7.64403e-06
1.0197e-05
-0.000209207
0.000262411
-3.19033e-05
-0.000230508
-6.90483e-05
-0.000260653
-0.000194685
0.000248025
-5.33402e-05
-0.000266533
0.000249985
1.65481e-05
-0.00031796
1.66846e-05
-1.71419e-05
0.000296791
-0.000279045
-0.000276221
1.65481e-05
0.000249537
-0.000168729
6.46133e-05
0.000273744
1.47545e-05
-0.000288462
-0.000315976
0.000307715
8.24688e-06
3.46641e-05
-0.000263649
0.000228985
-1.75138e-05
0.00028134
-0.000315231
1.63826e-05
-0.000176541
-7.42283e-05
-0.000228945
0.000199818
-2.16721e-05
-0.000216469
0.000238141
-0.000314403
0.000295765
1.88523e-05
-0.000132714
0.000273621
-0.000141311
-8.38881e-06
3.31521e-05
-0.000263453
0.000230301
-0.000202532
2.47242e-05
0.00017806
0.000221517
0.000280299
-0.000280894
2.1354e-07
-0.000236993
-2.20921e-05
0.000224813
-0.000202721
0.000139273
0.000143753
-0.000278517
0.000201775
-5.71797e-05
0.000308056
-1.06671e-05
0.000209332
-0.00026882
2.92853e-05
0.00022306
-0.000252345
-0.000321505
0.000137808
0.000296233
2.91467e-05
1.94271e-05
-0.000224355
-2.77845e-05
-0.000137222
-0.000132778
-0.000326394
0.000113721
0.000242873
2.56201e-05
0.000218765
-0.000224869
1.1056e-05
-0.000287953
0.000277065
-0.000243575
0.000270535
-2.72459e-05
0.000281437
-0.000281926
0.000287144
-7.70555e-05
-8.88724e-06
0.00029022
-1.87881e-05
0.000247101
-0.000228313
0.000281439
-0.000290369
-5.60963e-06
-0.000283948
0.000289563
0.00028204
-0.000269624
0.000284408
0.000226314
2.67597e-05
-0.000308508
0.00031838
-7.9145e-06
0.000250692
-2.15555e-05
0.000227151
2.42445e-05
-0.000268913
0.000246057
-2.05381e-05
-0.000259401
3.02849e-05
0.000229116
0.000178305
7.64963e-05
9.90009e-06
0.000281904
-0.000291964
-0.000238141
-2.88401e-05
0.000266981
2.51441e-05
-0.000263285
0.000284117
-0.000162317
-0.000232177
0.000261129
-2.89521e-05
-0.000234697
0.000260709
-2.60121e-05
1.44978e-06
0.000278784
2.45001e-05
-0.000259197
2.38001e-05
-0.000255977
0.000274266
-0.000242898
-3.13494e-05
0.000317746
-1.00294e-05
-0.000306294
-2.80435e-06
-0.000255753
1.1816e-05
0.000243937
-1.59024e-05
-0.000261185
0.000228065
-0.000245337
0.000270145
-2.48081e-05
-0.000263229
1.49801e-05
-2.35436e-05
0.000285996
-0.000262548
2.13641e-05
-0.000266701
-0.000241648
-2.13289e-05
3.26653e-05
-9.0432e-05
0.000260194
0.000280825
-0.000286481
5.05122e-05
0.000237693
0.000282261
-0.00028196
-0.000243181
-2.39401e-05
0.000267121
-0.000260894
7.34723e-06
-0.000295485
1.93875e-05
0.000276284
-0.000268717
2.55361e-05
-8.53497e-06
0.000290691
-0.000268326
0.000243549
2.47773e-05
-0.000232513
0.000210841
0.000280246
-0.000288676
-6.16002e-07
0.000260289
-0.000259673
-0.000301803
-1.61419e-05
-0.000264573
2.35481e-05
-0.00024417
-2.41555e-05
-3.43281e-05
-0.000298017
0.000293961
0.000286674
-0.000158327
0.000295976
-0.000291298
2.30152e-05
4.89872e-06
0.000262329
-0.000255159
-7.1975e-06
0.000307596
-2.02545e-05
-0.000287365
5.93645e-05
-0.000246765
-2.19521e-05
-0.000355472
0.000241018
0.000283324
-0.000277608
2.33801e-05
-0.000186563
-1.5363e-05
-0.000306492
2.57461e-05
0.000280813
-0.000197122
0.000310653
-0.000113794
0.000259841
-0.000238533
-2.13081e-05
-0.000291706
2.94001e-05
0.000222097
-0.000251497
-0.000171682
0.000139616
-0.000167079
0.000251441
-0.000238029
-1.34121e-05
-0.000263873
3.40201e-05
-2.23161e-05
-0.000269837
0.000251469
0.000230427
3.12901e-05
-4.55626e-05
0.000192619
0.000232619
-0.000260499
-1.7404e-05
-3.17012e-06
0.000246098
-0.000244355
-0.000293208
-0.000237049
0.000265189
-2.81401e-05
0.000230096
3.22225e-05
-0.000268521
2.55921e-05
-0.000239905
-2.86161e-05
0.000228954
-0.000260706
-0.000282519
4.73202e-05
-0.000242005
0.00029341
-0.000282882
-0.000287715
1.32191e-05
0.000275155
-5.67605e-06
0.000212545
0.000228551
-0.00026107
0.000296884
-0.0001309
-0.000165985
0.000241366
-0.000261811
0.000270173
-0.000226213
-1.76681e-05
-0.000165228
0.000309386
-0.000143258
2.49649e-05
0.000222662
-0.000247627
-0.000193351
0.000193593
-0.000283783
0.000282469
7.03675e-06
-0.000290828
-0.000302485
0.000146693
0.000155793
0.000259995
-0.000239359
-2.06361e-05
-0.000215741
0.000193649
0.000261878
4.3224e-07
0.000257293
0.000232526
2.168e-05
-0.000295294
-6.08709e-05
1.0378e-05
0.000234756
-0.000252325
1.76862e-05
-0.000230917
-2.37161e-05
0.000254633
-0.000242295
0.000263191
-2.08965e-05
8.23952e-05
0.000134159
2.01554e-05
-0.000305319
0.000285324
0.000256565
-1.80041e-05
-0.000238561
0.000243881
-0.000254017
1.0136e-05
-0.000226745
0.000207957
0.000223131
-0.000258923
-0.000244693
4.76842e-05
1.59565e-05
-0.000137605
-0.000218335
1.57921e-05
0.000245701
0.000280913
0.000293745
0.000305801
1.72671e-06
0.000249817
-0.000220417
2.51749e-05
0.000225009
-0.000250184
-0.000243178
0.000268865
-2.56873e-05
2.28201e-05
-0.000262725
-0.000114808
0.000296176
9.1153e-06
2.08181e-05
0.000261675
-0.000235103
-2.65721e-05
1.31671e-05
-0.00030389
0.000290372
0.000321789
-3.09735e-05
-0.000290707
0.000249733
1.63241e-05
0.000306195
-0.00029305
-0.000230493
-0.000112425
9.63204e-06
0.000250657
-4.9129e-05
-0.00020239
0.000251519
2.20333e-05
0.000246832
-0.000241686
-2.29629e-05
0.000260737
-2.24001e-05
0.000287811
-0.000268023
2.63369e-05
2.68241e-05
-0.000257965
0.000210617
-0.000207677
2.58161e-05
-0.000262865
0.000279953
0.000121744
-0.000256173
0.000134429
1.82496e-05
3.82367e-05
0.000162617
-0.000201312
-0.000239485
-2.85377e-05
4.00131e-05
0.000162616
-0.000200342
-0.000246691
0.000271066
-2.43747e-05
0.000209866
-0.000248826
1.98857e-05
1.73249e-05
-0.000173973
-3.0352e-05
0.000226688
-0.000257416
-2.88401e-05
0.000244245
-0.000215405
-2.16161e-05
0.000242985
-0.000221369
0.000201657
-0.000250786
-0.000273611
-0.000232905
-2.55081e-05
0.000258413
0.000241234
2.98318e-05
-0.000211845
-2.38341e-05
0.0002351
-2.18821e-05
-0.000224967
-0.000239345
6.28042e-05
0.000259004
-0.000229718
4.75106e-05
-0.000249901
-3.43393e-05
0.000257694
-0.000223354
0.000205675
-0.000240014
0.000261689
-1.1956e-05
-6.06764e-05
-0.000229572
-0.000223915
-1.77868e-05
0.000241448
0.000247109
5.3175e-05
0.000212448
-0.000265623
-0.000261089
0.000177353
-0.000231757
5.44042e-05
6.41152e-05
0.00013661
0.000259457
-0.000240915
-2.47224e-05
-0.000265385
0.000227165
3.82201e-05
-2.87813e-05
-0.000222158
0.00025094
-0.000284
0.000264161
0.000234501
3.61761e-05
2.18821e-05
0.000234087
-0.000307217
0.000151089
0.000156129
0.000170107
-5.27496e-05
0.000254045
-0.000115192
2.56901e-05
0.000217446
-0.000243136
-0.000286177
0.000287235
9.23795e-06
0.000257377
-0.000245953
0.000208937
3.70161e-05
0.000254832
0.000247
-1.9587e-05
-0.000246815
-2.02161e-05
-0.000263019
2.0724e-05
-0.000269215
2.24001e-05
2.79601e-05
0.000220024
-0.000247984
0.000242481
-0.000274597
1.32721e-05
0.000247991
-1.36705e-05
1.30109e-05
-0.00025108
-0.000328518
0.00012405
-0.000233135
-2.62109e-05
-0.000252113
0.000252113
0.000259782
-0.000144217
-1.82008e-05
-0.000279449
0.000297546
0.000274092
0.000258749
-0.000135913
0.000224113
2.39205e-05
0.00023468
7.83724e-05
-0.000342006
3.77475e-05
0.000258962
1.76363e-05
-0.000248843
-3.00917e-05
0.000207453
-3.01001e-05
0.000259701
2.95429e-05
0.000218353
-0.000247896
-3.05014e-05
-4.09782e-05
-0.000217818
0.000258797
-0.000233423
-2.14173e-05
3.75582e-05
-0.000200639
0.000162357
-3.30877e-05
0.000221671
-0.000255943
-0.000281796
-8.48431e-06
0.000290102
-0.000195998
0.000164117
0.000166349
8.16763e-05
1.26315e-05
-0.000294721
0.000235075
2.59446e-05
-0.000261019
-0.000198084
-1.2783e-06
0.000232743
-0.000264287
3.15449e-05
-8.42803e-06
-0.000217029
0.000225457
-0.000164091
0.000201275
-0.000249985
-3.46025e-05
0.000256274
0.000218076
-0.000252679
-0.000246289
0.000272245
-2.59561e-05
0.000253547
2.78321e-05
-0.000232062
-2.95821e-05
-0.000298415
0.000316591
-1.82022e-05
2.34345e-05
0.000212462
-0.000250254
-0.000267233
2.09441e-05
-2.12801e-05
-0.000245953
-3.61481e-05
0.00024861
-0.000290157
-1.37012e-05
0.00022082
-0.000256968
0.000247506
-0.000250972
1.32178e-06
2.80002e-06
0.000181413
-0.000184213
0.000255294
0.000234529
2.67681e-05
-2.62361e-05
0.000245001
-0.000218765
3.36001e-05
0.000216609
-0.000250209
0.000244861
2.73841e-05
0.000306545
-0.000143949
-0.000162597
1.59005e-05
0.000240527
-0.000256666
0.000271013
-0.000113568
0.000225569
-0.000256677
-0.000240902
0.000104575
-0.000265469
7.16803e-06
-0.000241635
-2.75801e-05
-0.000241361
-2.48081e-05
0.000310511
-2.74426e-05
-7.67483e-05
0.000243097
-1.1452e-05
-0.000215601
0.000224281
-8.68003e-06
0.000255193
-7.68883e-05
3.42496e-05
-0.000196484
0.000162386
-0.000265245
-1.40001e-07
-4.14962e-05
3.98559e-05
0.000162437
-0.000201714
0.000197813
-0.000163364
0.000257041
-7.05603e-06
0.000251151
-0.000218277
-1.81179e-05
-2.1128e-05
0.000279696
-9.37927e-05
-0.0001826
-1.42801e-05
-0.000191913
0.000206193
0.000258665
-1.53553e-05
-0.00024331
1.98101e-05
0.000238855
-0.000280077
-8.07304e-06
3.73045e-05
-0.00019576
0.000159574
1.36921e-05
0.000247997
-0.000160019
0.000198436
-1.95189e-05
0.000248711
3.2719e-05
0.000187607
-0.000221395
-4.17202e-06
-2.49389e-05
0.000265108
-0.000231955
-3.14693e-05
0.00029722
-0.000281869
-1.52302e-05
1.63717e-05
-0.000237659
0.000221288
-0.00010514
0.000226885
1.92597e-05
-0.000304978
0.00028575
2.52001e-05
-2.79441e-05
2.69165e-05
0.000308813
-0.000289473
0.000238891
1.97345e-05
2.15601e-06
0.000231617
-0.000233773
-0.000310523
2.57084e-05
0.000284888
-0.000162177
-0.000144145
0.000209178
-0.000250156
-0.000164465
0.000241924
1.90317e-05
0.000256792
-4.13534e-05
0.000250531
0.000214498
-0.000255851
0.000318978
-0.000319039
-1.05364e-05
0.000287351
-0.000277044
-0.000302772
1.95542e-05
0.00028298
4.20842e-05
-0.000286413
-3.90948e-05
0.000252483
2.62921e-05
-2.21047e-05
0.000307194
-0.000285301
2.43321e-05
3.90682e-05
0.000158396
-0.000198292
0.000249294
-0.000219751
2.83277e-05
-0.000261633
4.36802e-06
-1.99993e-05
0.000306651
-0.000286613
-0.000250987
-0.000266673
3.07441e-05
0.000252141
-0.000236741
-1.54001e-05
1.2264e-05
0.000239877
-0.000274886
-1.26708e-05
0.000255697
-7.10253e-06
0.000314319
-1.22632e-05
0.000297922
-0.000285615
-4.5277e-05
0.000247437
-0.000235621
0.000257601
-1.99361e-05
0.000134945
8.93221e-05
-0.000223944
0.000229775
3.03493e-05
0.000226759
-0.000258662
3.71393e-05
0.000271759
-0.000288485
1.70057e-05
0.000251273
-0.000239093
-1.31321e-05
0.000252225
-2.91201e-05
-0.000257265
2.56481e-05
0.000231617
-0.000228005
-2.92601e-05
0.000259765
-0.000233571
-2.61941e-05
0.000258721
-0.000266167
2.31107e-06
0.000289318
1.28087e-06
-0.000291591
0.000248186
-0.000232477
-1.85921e-05
0.000308763
-0.000300736
-7.9896e-06
0.000259314
-0.000101982
-0.000266897
2.56761e-05
0.000241221
-3.48881e-05
-0.000232009
-0.000266393
2.51161e-05
0.000241277
-1.20997e-05
-0.000267393
0.000279457
-3.45241e-05
-0.000231869
-0.000261871
1.86067e-05
-0.000266281
2.43881e-05
0.000241893
-0.000283916
-2.14676e-05
-0.000306408
2.7672e-05
0.00027872
-3.34041e-05
-0.000232877
-0.000170103
-0.000258133
2.94001e-05
0.000228733
0.000310332
-0.000309767
-0.000195805
0.000209049
-3.29281e-05
-0.000225205
0.000197423
-0.000279164
8.16833e-05
0.000283946
2.23666e-05
-0.000301953
1.76961e-05
0.000285544
-0.000280753
-4.87467e-06
-0.000257125
0.000231617
2.55081e-05
0.000159251
2.82717e-05
-0.000193862
-0.000266953
2.81681e-05
0.000238785
-0.000227361
-2.97641e-05
-3.67361e-05
-0.000230217
0.000274145
0.000297416
1.91232e-05
-0.000275815
-3.18786e-05
0.000307616
-0.000258679
-1.088e-05
0.000297584
-0.000286664
1.50034e-05
-0.000302097
0.00028696
-0.000230609
-0.000307575
0.000287567
0.000263005
-2.55799e-05
-0.000280833
1.36081e-05
0.00016661
0.000231061
1.83475e-05
-0.000248373
-0.000201841
0.000160938
0.000236738
1.31517e-05
-0.00024989
-0.00025833
2.66093e-05
0.000231721
-1.09228e-05
0.000247661
5.74002e-06
0.000246877
-3.19817e-05
-0.000226348
0.000299699
-0.000285767
-1.3904e-05
0.000228024
-0.000226666
0.000289891
0.000237685
1.98521e-05
-0.000257537
-1.24236e-05
0.000250108
0.000246636
1.50389e-05
-0.000305412
1.53326e-05
0.00024448
2.18905e-05
3.28817e-05
-0.000200702
-0.000287304
-1.76766e-05
-0.000182869
0.000295177
-0.000151917
0.000185623
-3.35892e-05
3.1135e-05
-0.000201449
0.000169883
-0.000163686
0.000259149
-0.000239236
-1.99137e-05
0.000261827
-0.00027436
-0.000241417
0.000231074
-2.18895e-05
0.000301365
-0.000279442
0.000307782
-0.000292941
0.000242117
1.77241e-05
-0.000224975
0.00024443
-1.94545e-05
1.61001e-05
-0.000241075
-7.00003e-06
0.000260989
-0.000297082
4.89756e-06
0.000292198
-0.000174497
0.000160217
-1.74105e-05
-6.26864e-06
-0.000290818
-1.68576e-05
-0.000285236
4.28402e-06
-0.000300507
0.00013508
-0.000257465
2.37376e-05
0.000233784
0.000238197
1.32441e-05
-3.08175e-05
-0.000226656
-3.3095e-05
-0.000291476
2.06885e-05
-0.00022331
0.000205222
0.000254969
-0.000233465
-2.15041e-05
-0.000194083
0.000217298
-0.000185842
-7.35349e-06
0.000204301
0.000137631
0.000138878
4.00536e-06
0.000271172
0.000279995
-0.000305579
3.35796e-06
0.000242441
-1.98203e-05
0.000298612
-0.000278737
-0.000302355
0.000287543
1.47949e-05
-0.000258301
0.000230077
2.82241e-05
-2.64041e-05
-0.000231897
0.000301153
-0.0003011
0.000267726
-1.99762e-05
0.00030442
-0.000284349
0.000286225
-6.53072e-07
-0.000256873
0.000256873
-0.000268309
0.000295949
-0.000145997
-6.61581e-05
-7.2202e-06
0.00029476
-0.00028887
-0.000297714
0.000290361
0.000292613
-0.000280122
0.000291587
-0.000306314
1.52363e-05
3.46117e-05
-0.00024114
0.000217114
2.26794e-05
-1.44924e-05
-0.000247666
0.00022952
-1.42616e-05
0.000298363
-0.000283981
0.000263481
-1.96001e-05
0.000254224
-0.000235464
-1.87601e-05
-3.10299e-05
-0.000273884
0.000304916
1.44038e-05
-0.000297298
0.000282832
-1.45881e-05
0.000233465
-0.000218877
0.000209723
-0.000295214
0.000283593
-1.92901e-05
0.000304829
-0.000285526
0.00025102
-2.69536e-05
0.000297278
-0.000270316
-0.000295776
0.000268948
1.07156e-05
0.000244749
-0.000255465
0.000305266
-0.000312054
6.79873e-06
1.83022e-05
1.46668e-05
0.000287296
-0.000302346
6.29169e-06
0.000282783
2.28599e-06
-0.000318717
-0.000288932
0.000304553
-0.000242481
0.000243657
8.45603e-06
-0.0002264
0.000242772
-0.000293575
0.000274309
0.000284905
-0.000156797
-8.4113e-05
0.000294402
1.45306e-05
3.17434e-05
-0.000201857
0.000168826
-0.000274556
0.000257293
-0.000219535
0.00024982
0.000243411
1.92865e-05
-0.000262697
0.000236019
2.31309e-05
-0.000300788
0.000282209
0.00031249
-1.79976e-05
0.000237945
-0.000257069
1.91241e-05
-0.000222494
0.000247459
0.000294437
1.8102e-05
-0.000171
-1.45212e-05
0.000298232
-0.000283804
-0.0001428
-0.000266415
0.000159993
0.000106423
-0.000309081
0.000295379
1.36649e-05
-0.000258699
0.000241826
1.68729e-05
-0.000143745
0.000151241
-0.000306449
0.000288623
1.77837e-05
-0.000215875
0.000180453
-9.69084e-06
0.000253101
2.04478e-05
1.74778e-05
-0.000304192
0.000286636
-0.000301257
-7.08421e-06
0.000308241
-0.000249229
0.000220109
-0.000201153
-8.52603e-05
-0.000273365
0.00025264
0.000303786
-0.000286355
-0.000191557
1.78091e-05
1.50386e-05
0.000284481
-0.000299524
-8.80603e-05
0.000239233
-0.000303709
1.94456e-05
0.000284282
-0.000204213
-2.84519e-06
-0.000298241
-0.000169852
2.05297e-05
0.000302547
-0.000288231
-1.46441e-05
-0.000173163
-0.000299343
-0.000175308
-2.27637e-05
0.000243528
0.000289585
1.71347e-05
0.000252869
5.77033e-05
-0.000285144
-0.000247213
-0.000269948
-2.34199e-05
-0.000274676
0.000300506
-0.000262824
0.000281713
-0.000164318
-4.11482e-05
0.000201985
0.000197569
1.56521e-05
-0.000213221
-1.25252e-05
-0.000285539
0.000298095
1.83597e-05
1.85179e-05
-0.0003053
0.000286732
0.000253345
-1.71361e-05
-0.000236209
1.89161e-05
-0.000304857
0.00028586
2.03561e-05
0.000232989
0.000216385
-2.46121e-05
-0.000191773
1.58244e-05
0.000282337
-0.000298243
-0.000250146
0.000118139
-0.000303754
1.86488e-05
0.000285224
0.000206968
-4.86898e-05
-0.000296806
1.57629e-05
0.00028104
0.000255837
-2.19801e-05
-0.000233857
-0.000302635
0.000106221
0.000234529
1.70521e-05
-0.000251581
0.000280153
1.70023e-05
0.000304099
-0.000285285
1.7928e-05
-0.000299575
0.000233512
1.84916e-05
-0.000252004
-1.90669e-05
-1.42233e-05
0.000298273
-0.000283972
-0.000280414
0.000299968
-0.000278536
0.0002893
-0.000301481
1.12392e-05
0.000249741
-1.62291e-05
1.14804e-05
0.000250041
-1.55121e-05
0.00029836
-0.000282624
3.95922e-05
-0.000237766
2.21481e-05
-0.000253065