/*--------------------------------*- C++ -*----------------------------------*\
  =========                 |
  \\      /  F ield         | OpenFOAM: The Open Source CFD Toolbox
   \\    /   O peration     | Website:  https://openfoam.org
    \\  /    A nd           | Version:  12
     \\/     M anipulation  |
\*---------------------------------------------------------------------------*/
FoamFile
{
    format      ascii;
    class       volScalarField;
    location    "4.075";
    object      T;
}
// * * * * * * * * * * * * * * * * * * * * * * * * * * * * * * * * * * * * * //

dimensions      [0 0 0 1 0 0 0];

internalField   nonuniform List<scalar> 
46253
(
1.01144
1.01663
1.04483
1.01644
1.04352
1.04243
1.00084
0.980094
1.01531
1.01521
1.01187
0.926526
1.00947
1.00965
1
1.01463
1.01446
1.01156
1.01177
1.0132
1.01311
1.04057
1
1.00582
0.997742
1.01577
1.01388
1.01371
1.01589
0.977896
1.00433
1.0072
1.00703
1.01256
1.01238
0.999992
1.01021
1.0102
0.970253
1
0.99651
0.924458
1.00797
1.0078
1.00598
1.01093
1.01072
1
1.00566
1.00552
1.00493
1.00474
1.03726
0.965434
1.05089
0.953703
1.00306
1.00287
1.02894
1.00079
1.00017
0.981252
0.999993
1
1
1.00884
1.00859
1.03917
0.953825
1.00197
1.00241
1.00246
1.00246
0.972285
1.03569
1.00508
0.997905
0.99747
1
1.00643
1.00621
1.00076
1.03775
1.00035
0.997973
1.03386
0.992179
0.99205
0.963226
1.01058
1
0.995016
1.03351
1.00407
1
1.00373
1.03312
1
1.02854
1.00025
1
1.03276
1.03474
1.00403
1.04863
0.996926
0.926981
0.985852
0.985597
0.935543
0.973517
1.0018
1.00157
1
1
0.965475
0.952227
0.998152
1.05964
0.950721
1
1.04163
0.999668
0.999571
1.03114
1.06059
1.00019
0.949089
1.05724
0.996217
0.981286
0.980541
1.04149
0.99851
0.996069
1
0.994892
0.994674
0.948066
1.00001
0.998574
0.978513
0.978221
1.00206
0.998778
1.05413
0.99268
0.992569
0.970909
1.01035
0.935336
1.03677
0.995718
0.995513
0.993913
1.0029
0.948388
1
0.990327
1.04859
0.989956
0.932358
0.953972
1
0.997302
0.993748
0.998557
0.993356
1.0846
1
0.988249
0.988139
1.03968
0.998068
1.04664
1.01358
0.979505
1.03265
0.982697
0.955022
1.0464
0.994036
0.986686
0.986477
1.03548
0.991364
0.99102
1.01145
1.03539
1.03525
1.03623
1.03313
0.992585
1.03315
1.03737
1.03732
0.97448
1.02974
0.961554
0.961312
1
1.00007
0.989158
0.988926
1.0014
1.00897
0.993314
0.9835
0.983231
0.999996
1
1.06046
0.997453
1.03427
0.977214
1.0295
1.00093
0.996223
0.982295
1.03977
1.03841
0.982134
1.01384
0.987547
0.987367
0.996071
1.03024
1.0317
0.956904
0.956327
1.01803
1
1.02121
1.02083
1.03084
1
1.03692
1
1.01725
1.02163
1.03085
1.03236
1.0286
1.03706
1.00001
1.03521
1
0.992811
1.02838
0.979021
0.979084
1.02098
0.951268
1.02817
0.950796
0.984797
0.984207
0.957268
0.998842
1.02775
1.0014
0.99409
0.935148
1.00273
0.983675
1
1
1
0.98273
0.975962
0.98297
1.03171
1.00007
1
0.975762
1.03055
1.0533
0.999998
0.967771
0.959665
0.945956
0.945585
1.03522
1.03429
1
0.996709
0.991029
0.954412
0.999111
1.00007
1.02688
1.02627
0.994355
1
1.0247
1.01135
1.03199
1.01089
0.996417
0.974388
1.05855
0.974194
0.947917
1.0562
1.03559
0.97969
0.979342
0.999994
1.00299
1.0354
1.03524
0.986741
1
0.97231
1.02664
0.972071
0.945633
1.02406
1.00071
0.969172
0.944199
1.02647
0.99881
0.997947
0.95523
0.998683
1.02629
1.02908
0.970387
0.970153
0.94355
0.93857
1.03571
1
1.0261
0.978037
0.958111
0.977252
0.976621
1
1.03725
1.03623
1
1.05721
1.02536
0.968445
0.968219
1
0.951331
1.03231
0.954718
1.00045
0.98979
1
0.938929
1.02462
0.975167
1
0.975152
1.01163
0.939595
1.03518
1.02737
1.03531
1.03528
1.02684
1.02666
1.02662
0.96639
1.02527
1.0244
1.02458
1.02455
0.966204
1.02677
1.02292
0.94722
1.03142
1.02522
0.999993
0.996342
0.985661
0.946702
0.973401
0.968263
0.973071
1.02553
1
0.964663
1.06562
1.03561
0.999257
0.964475
0.982128
1.02512
0.967003
0.989103
0.988907
1.02755
0.974127
1
1.02393
1.02223
1.02276
1.0314
1.03266
1.03753
1.00865
1
1.02593
1.027
1.03554
1.05265
1.03547
0.972695
1.03283
0.990061
1.02884
1.02575
0.9539
1.03298
1
0.962388
1.02814
0.971364
1.02818
0.999998
0.962182
0.97113
1.03446
0.983282
0.999998
1
1.03749
1.03755
0.96622
0.968193
1.03512
1.03751
0.964839
0.944698
1.0346
0.991845
1.03459
0.967112
0.994403
1.03322
1.02735
0.956916
1
0.960237
0.974852
0.999997
0.989322
1
1.0316
0.962149
1.03186
0.969344
0.969403
1.02699
0.968648
0.968796
0.96914
1.0251
0.968338
1.03266
1.03504
1.0328
1.02473
1.03516
0.98718
1
0.961707
0.948634
0.959475
0.957387
0.991494
0.959257
0.983878
1.01827
1.01884
0.999993
1.03052
1.02997
1.00028
1.05908
1
0.959827
0.995458
0.919964
0.960418
0.967754
0.997077
0.967657
1
1.02479
0.967484
0.972386
0.932449
0.967154
0.957667
0.957493
1.01363
0.998666
1.02715
1.01485
1.00364
1.0162
1
1.02717
0.998446
1.03376
0.968629
0.98398
1.00153
1.03555
0.968216
1.02682
0.999997
0.979602
1.04005
0.973273
1.02795
1.02754
0.973378
1.02596
0.972886
0.974212
0.972967
1
0.97404
0.975208
1
0.969294
0.9712
1.02528
1.00006
0.965476
1
1.00125
0.953988
1.0256
1.03232
0.965354
1.00074
1.00028
1.03181
1.03218
0.915448
1.03102
1.03135
0.954319
0.960619
0.954265
0.999261
1.02807
1.02834
1.02673
1.02697
1.02796
1.03378
1.02136
0.967621
0.91814
1.03464
1.03648
1.00014
1.03301
1.03434
1.03696
1.0009
1.00013
1.00001
0.998149
1.03528
1.03193
0.947185
1
1.03496
1.03442
0.963624
1.03352
1.03585
0.96315
0.997019
1.00659
1.02698
1.00757
1.00764
1.00839
0.994421
1.03559
0.952926
0.952431
0.999213
0.968042
1.03413
1.03336
0.971834
1.02576
1.05586
0.985186
1.03293
1.05737
1.03306
1.02503
1.00232
1.00429
1.02482
1.02673
0.982068
0.969437
1.02518
1.02529
0.98827
1.02458
1.02483
1.02284
1.02317
1.02132
1.02171
1.01977
1.01991
1.01229
0.966304
1.0177
0.9808
1.01815
1.01619
1.02532
1.00043
1.00644
1.01656
1.02688
1.01429
1.02544
1.01438
1
0.967594
1.01219
1.02582
1.0127
1.04264
1.02616
1.01065
1.03787
1.01098
1.03813
0.923982
1.02581
0.962315
1.00607
1.03493
1.03504
1.00848
1.00862
1.02724
0.972287
1.00637
1.00689
0.987139
1.0293
1.02884
1.00348
0.949814
1.00392
1.02582
0.960627
1.00259
0.948092
1.00282
0.949858
0.960299
1.02507
1.03475
1.03466
1.00296
1.00307
0.971879
1.02476
1.02443
1.00237
0.962619
1.00278
0.943518
1.02643
1.00018
1.00066
1.03489
1.03538
1.03495
0.986518
1.03547
0.97114
0.97986
1.00517
1.02999
0.997044
1.03154
0.997586
1.03141
1.02616
0.971986
0.971942
0.995903
0.996107
0.966985
0.973505
0.993211
0.974006
0.993326
1.02927
0.98938
0.990091
0.990433
1.03559
0.957787
0.988842
0.989387
1.07669
1.02702
1.02703
1.03554
0.986797
0.965445
0.98641
1.01323
1.00821
0.969611
0.933827
0.983885
0.98487
0.979536
0.983467
0.983291
0.948763
0.953796
1.02923
0.976433
1.05781
0.947555
1.02064
0.936788
0.947073
0.948764
0.981709
1.00147
1.02597
1.02959
1.02634
0.958485
1.03156
1.03032
1.03141
1
1.03067
0.958337
1
1.02886
1.02861
0.953539
0.953379
1.0261
0.988814
1.01456
1.00943
1
1.00608
1.02592
1.03382
1
0.981292
1.03192
0.967123
1.03341
1.00535
0.979207
1.00577
0.949858
1.03566
0.985185
0.995932
1.008
1.0334
1
1.02722
1
1.03175
1.00621
1.00601
0.981638
1.0035
1.00266
1.02486
0.961589
1.02576
1.02497
1.00629
0.980395
1.03259
0.983044
1.03227
1.03296
0.988901
0.990556
1.02581
1.00675
0.944567
0.96799
1
0.967509
0.94448
1
1.03335
0.968567
0.968234
1.03327
0.944921
1.03728
1.03467
0.999997
1.00547
1.00565
0.966173
1.03248
1.03598
1.03492
0.995974
0.980056
1.03528
0.972411
0.966245
0.942073
1.04117
1.02717
1.02683
1
1.00219
1.00222
1.02516
1.03398
1.00568
0.95538
0.999541
1
1.03396
0.999532
0.954882
0.967356
0.966853
0.99999
0.966885
0.974198
0.941501
0.966224
0.942179
0.993034
1.03523
1.03511
0.993034
1
1.03572
0.967575
0.966471
1.03549
0.944032
0.953018
0.972185
0.954872
0.958169
0.943489
0.948952
0.948686
0.943884
0.942535
1.02046
1.03891
0.977126
1.03909
1.02015
0.969053
0.956704
0.952079
1.02617
1.03541
0.974786
1.02929
0.972676
0.974505
1.0319
1.03172
1.02033
1.03197
1
1.03217
1.02539
0.966904
0.973346
0.967632
1.03397
1.02457
0.953915
1.0275
0.976746
0.976545
0.95392
1.03391
0.972399
0.971008
0.972745
1.02539
1.0254
1.02524
1.02533
0.972239
0.972692
1.04224
0.985631
1.0329
0.948837
1.04453
0.949098
1.00868
0.999811
1.02622
0.939113
0.938824
0.996464
1.0513
1.02549
0.952334
0.978337
0.979413
0.95084
1.02727
1.02766
0.968136
1.01374
1.02621
1.02627
0.972694
0.925712
0.990517
0.969373
1.02263
1.02994
1.02998
1.03009
1.03193
1.03151
1.06691
1.03166
1.01035
0.949698
0.949824
0.970454
1.0217
1.02283
1.0222
0.951924
0.955219
1.00841
1.03561
1.01144
1.01347
1.01496
1.00934
1.01157
1
0.986305
1.01383
1.01706
1.00988
0.967002
1.01545
1.00472
1.00769
1.01721
1.03071
1.01885
1.00802
1.01924
1.03468
1.00466
1.02799
1.02031
1.0207
1.00498
1.02225
1.02235
1.00285
1.02248
1.03516
1.02373
1.00297
1.02906
1.00238
1.02411
0.999998
1.02436
0.943416
1.00284
1.03479
1.03731
1.03525
1.00315
1.00845
1.03582
1.03532
1.03736
1.00354
0.944249
1.01681
1.00149
1.02628
0.974465
1.00184
0.998569
0.998918
0.948523
0.996479
0.99636
0.994183
1.02559
1.00616
0.994997
1.02626
0.991478
1.00035
1.02629
1.02773
0.992239
0.962798
1.01106
0.990089
0.989809
0.986953
0.950169
0.987559
1.0227
0.986153
1.02556
0.979819
0.949997
0.986442
0.987923
0.983745
0.967576
0.983284
0.976221
0.977067
1.00199
0.983086
0.981179
0.982445
1.01009
1.01125
1.0297
1.02567
1.01127
1.02501
1.01268
1.00984
1.0167
0.999999
1.06026
1.00597
1
0.972604
0.980863
0.99929
1.00035
1.02553
0.973862
1.00593
1.00491
0.992085
0.991019
1.0048
1.00645
1.00534
1.00644
0.985189
0.947922
0.973838
0.968478
1.02563
0.972975
0.953848
0.948336
0.983479
1
1.01058
1.00713
0.931235
1
0.933178
0.999157
0.978283
0.943665
1
1.0237
1.02699
0.966157
0.983579
0.970563
1.00455
0.987731
0.989058
1.00541
0.949173
0.979238
0.948929
0.978885
0.996227
0.937636
0.951436
1.00828
0.97493
1.00576
0.979753
1.02675
1.0063
1.0167
0.966175
0.981689
1.0295
1.02672
1.021
0.971578
1.0331
1.02526
1.01983
1.01875
0.983143
0.942287
1
0.997336
1.0192
0.971186
0.969194
1.02246
1
1.03675
0.946721
1.02183
0.948706
0.973865
0.974037
1.05092
1.00514
0.972536
1.03368
0.984685
1.01815
0.984716
1.04861
0.972717
0.95576
1.02407
1.0243
0.97259
0.982854
0.976727
0.969276
0.971212
0.971204
1.02409
1.04128
0.975737
0.966986
0.967146
0.943598
0.986059
1.03309
0.970353
0.99522
0.973399
0.943548
0.974844
1.00725
0.999998
1.03008
1.03026
0.95613
0.973274
1.02247
0.965768
0.973055
1.01712
0.979319
0.950502
0.965646
1.01467
1.00188
1.00955
1.02505
1.02586
0.970457
1.01254
1.02867
1.03063
1.03122
0.969507
1.02931
0.969729
0.91716
0.975226
0.977421
1.02619
1.03182
0.978967
1
1.02662
0.966986
1.02475
1.02725
1.02381
0.991492
1.0253
0.968143
0.974836
1.00831
1.03427
0.998235
1.02161
1.01563
0.971525
1
1.00794
1.02224
1.0183
1.03521
0.972489
1.03054
1.03553
1.0376
0.95319
1.01895
1.03735
1.01138
0.994941
1
1.03925
0.996678
1.01553
1.0327
0.998516
1.01839
0.944968
0.941911
1.02367
1.0143
1.01613
0.974609
1.03623
1.03712
0.995038
0.944483
0.996113
1.00487
1.02114
1.01593
1.02148
1.0356
1.02263
1.01081
1.01992
1.03194
0.961946
0.976531
1.02022
0.964818
1.01643
0.973507
0.969292
1.01873
0.980952
1.03905
0.972733
1.02101
1.01902
1.03251
1.03477
1.03658
0.980806
1.01591
1.01724
1.01755
1.03487
1.03448
1.03202
0.977279
1.01492
1.01982
0.983626
1.03455
1.0163
1.01918
0.972124
0.957703
1.00873
1.01469
1.00966
0.994746
1.01492
1.02508
1.03519
0.993896
1.01299
1.00789
1.01349
1.01723
0.949388
1.00559
1.03552
1.01098
1.01817
0.999993
1.01136
1.03372
1.02121
1.02007
0.972376
1.01693
1.0255
1.03578
1.00918
1.00937
0.952939
1.00777
1.02715
1.00815
1.00522
1.02888
1.00604
1.02709
0.982937
0.982145
0.953857
1.01593
0.951866
0.981692
1.02624
1.00636
0.978558
0.980351
1.00566
1.00618
0.942947
1.00631
1.00578
0.98479
1.00523
1.00537
1.02743
1.00818
1.00352
0.955453
0.99191
1.00608
1.00216
1.00393
1.00608
1.02379
1.00668
0.999994
0.985423
1.00658
1.0025
0.991713
0.950051
0.971152
1.00638
0.99856
0.945073
1.00008
1.00252
1.00037
0.958119
1.02494
1.01111
0.944635
0.94518
0.969341
0.999029
1.00689
0.974768
1.00009
0.938491
1.01379
1.02589
1.02417
1.02953
1.02481
1.02447
0.998051
0.995449
1.02512
0.99586
0.994218
0.996321
1.02479
0.947291
0.995815
1.00587
1.00563
0.993967
0.994412
1.01179
1.00565
1.01704
0.992722
1.01975
0.991976
1.00834
0.992571
0.989743
1.02432
0.992999
1.03175
0.983284
1.02614
1.01946
0.980576
0.990349
1.00846
0.938463
1.00855
0.9719
0.984298
1.00566
0.972221
0.954428
1.01018
1.03105
0.987262
0.987536
1.03124
1.02423
1.02796
1.0264
1.02819
1.0266
1.03173
0.961611
1.0242
1.02471
1.01887
0.948099
1.01316
1.01955
0.946984
0.98417
0.942037
1.02509
1.01967
1.02534
0.994144
1.02991
0.939536
1.00434
1.03025
1.02974
1.01986
1.02292
0.953877
0.953312
0.995229
1.01533
1.03091
1.02585
0.982457
0.969738
1.00786
1.02191
1.03841
1.02172
1.03333
0.991927
1.02371
0.981833
0.982533
0.996136
1.02046
0.977953
0.980344
1.02725
0.973958
0.980398
0.991644
1.00948
1.02232
1.01906
1.03425
1.02258
1.00135
0.978617
0.93577
1.01629
1.01861
1.02658
1.02905
1.00808
1.03139
1.02739
1.00271
0.953233
1.01215
0.940792
1.02358
1.00852
1.01248
1.03249
0.973217
1.01614
1.03257
0.975487
0.980657
0.976236
1.04472
1.02869
0.939444
1.01768
1.01361
0.948824
0.914195
0.980335
0.980762
0.982404
1.01699
0.973467
0.975091
0.985406
1.03309
0.973102
1.01713
1.01204
0.978299
1.00921
0.978872
0.962785
1.03484
1.03506
0.985588
0.985074
1.00155
1.03421
0.969686
1.00649
0.969399
0.974956
0.970211
0.981159
0.974598
1.00536
1.00642
1.00565
1.02081
1.00949
0.969434
0.994919
0.973821
1.0221
0.962392
1.00425
1.03076
0.965363
0.950636
0.94451
1.02779
0.952578
0.966529
0.977758
1.02799
1.01139
0.965177
0.984375
1.02434
0.97745
0.965048
1.00895
1.01347
1.03694
0.974646
1.03385
0.971203
0.957626
0.977458
0.940849
1.01173
1.03393
1.01157
1.00586
0.967913
1.02449
1.01771
0.997235
0.998835
0.997568
0.998549
1.01626
0.957181
0.975893
0.997724
0.997952
1.00948
0.961164
0.966967
1
0.966407
1.03234
0.968055
1.01956
0.962753
0.947252
1.01496
0.984857
1.02462
1.01273
0.991142
0.980231
1.03631
0.990308
0.991387
1.00675
1.0589
0.988058
1.03479
0.959521
1.02274
0.961211
1.02529
0.988171
0.963612
1.03652
1.00668
0.988776
0.9432
1.03251
0.985538
0.957887
0.963907
1
1
0.986448
1.00892
1.0232
1.00739
0.969066
1.00827
1.00886
1.00769
1.01016
0.990472
1.02448
1.00512
1.03037
1.01792
1
1.0089
1.02994
1.00808
1.01949
0.954674
0.940081
0.931671
0.998604
0.963654
0.955251
0.955758
0.999336
1.01493
1.00252
0.956043
0.973285
1.01995
0.984122
0.987446
0.97077
0.973092
1.00771
1.02955
0.999663
1.03043
0.950877
1.01914
1.0301
0.949474
1.03525
0.951483
0.965656
0.989703
0.95212
1.03555
1.03563
1.00308
1.00302
0.99203
0.97129
1.03642
1.03763
0.970556
0.991306
0.939538
1.03724
1.02357
0.977927
0.94559
0.949799
1.02057
0.966849
1.00395
0.980379
0.952609
1.03627
1.00407
0.942309
0.995596
1.00694
0.998521
1.00485
1.04963
0.977017
0.968875
0.980067
0.969069
0.980103
0.977277
1.00147
0.955765
0.990214
1.03728
0.999707
1.02928
0.999994
0.96777
0.967188
0.971597
0.967964
1.02053
0.979081
1.02899
1.0347
0.971469
0.973135
1.00107
0.993231
0.981313
1.00154
0.966714
0.999471
0.973218
0.999943
1.00742
0.97618
1.03071
0.948313
1.03705
0.984014
0.993884
1.00051
1.03018
0.98077
0.968183
1
1.02511
0.967512
0.978391
1.02271
1.0259
1.02622
0.977173
1.02611
0.968296
0.994854
0.998581
0.954814
0.967356
0.969233
1.00585
1.02855
0.999078
0.956195
1.02865
0.943889
1.01246
1.00034
0.966572
0.966826
1.02851
1.03532
0.995201
0.981465
0.984753
0.997715
0.997382
1.02964
0.954648
1.01174
1.03087
0.96361
0.999997
0.999995
0.998526
0.968823
1.00488
0.965205
1.02778
1.01235
0.995754
0.958896
1.00687
0.956179
1.01373
0.983035
1.00984
1.01932
1.01515
0.953088
0.981002
0.996587
0.956836
1.01396
1.0167
1.01549
0.95609
0.948025
0.996622
0.962268
0.984829
0.945631
1.01798
1.0029
1.01432
0.96107
1.00023
1.00864
1.01189
1.00213
1.01697
0.939311
1.01548
1.02215
1.02637
1.01835
1.0205
1.02606
1.01037
1.00725
1.01959
1.00893
1.0045
1.02341
0.981621
1.02324
1.02681
0.985563
0.983842
0.99956
1.02185
1.02079
1.01978
0.941209
0.960161
0.995006
1.00489
1.00309
0.984035
0.959909
1.01084
1.0372
1.02209
1.03241
1.02832
0.97987
0.960361
1.00098
0.995867
0.981053
0.959211
0.960337
1.01887
0.966203
0.980653
0.994854
0.995417
0.999798
0.967359
1.00155
0.968152
1.02969
1.02526
0.989145
1.00361
1.03757
1.0314
0.993385
0.984808
0.963802
0.98218
0.984561
0.996845
1.0299
0.954708
1.03728
0.988678
0.990807
0.987603
0.977103
0.952851
0.963219
0.967317
0.995247
0.971904
0.997141
0.961314
1.03686
0.976677
0.972648
0.953596
0.990907
1.01985
0.987156
1.04306
1.02203
0.981811
0.993317
0.97829
0.984334
1.03154
0.979672
0.941304
1.01383
1.02327
0.978117
1.00164
1.0321
0.993728
0.974351
0.942659
0.99097
0.95789
0.981171
0.990981
0.987729
0.99107
0.987798
1.01515
0.985144
0.969726
0.98765
0.990621
1.01552
0.984622
0.994193
0.973095
0.978134
0.984736
0.973676
0.966069
0.999995
0.990336
1.01379
0.971206
0.996874
1.03688
1.01403
1.03031
0.99102
1.00796
0.996689
1.03486
1.01223
0.979447
1.00266
0.978028
0.994299
1.01257
1.0156
0.999992
0.984862
1.02765
0.997089
0.983814
0.991803
0.978817
1.03567
0.980785
0.942076
0.989673
0.950441
0.990243
0.994056
0.992689
0.978711
1.01077
0.98341
0.982909
0.989906
1.02403
0.981152
0.979873
1.01118
0.979041
0.993616
0.982624
0.991003
0.98384
1.01527
0.986833
0.994901
0.973675
1.00948
0.976811
0.986266
0.992175
1.05603
0.99239
1.03157
1.03769
1.00973
0.979623
0.981045
0.976832
0.986211
0.974343
0.996211
1.00752
1.02548
1.03048
1.00512
0.969016
0.96113
1.00809
0.99701
1.02509
1.00059
0.974481
0.966644
0.971438
1.02883
0.995785
0.986934
0.999182
0.972413
0.968893
0.980594
1.00633
1.01682
1.0083
0.991716
1.00662
0.967413
1.01787
1.02389
1.02736
0.980253
1.02506
1.0252
0.979528
0.949551
0.999954
0.965313
1.01493
1.02368
1.02287
1.02386
0.98669
1.02313
0.963259
1.02105
0.966219
0.966686
0.993446
1.00558
0.966859
0.951693
1.00382
0.942875
0.966272
1.00777
0.991489
0.965149
1.0041
1.00413
1.0237
0.997316
0.964344
1.02958
1.01995
0.995478
1.02754
0.99925
1
1.00327
0.963823
0.96679
0.998124
0.994854
1.0013
0.992805
1.02756
1.01013
0.991769
1.02549
0.987549
1.00151
1.00987
0.995296
0.957692
1.02655
1.0001
0.964462
0.983241
0.990896
1.00496
1.01612
0.979327
0.999434
1.00729
0.999599
1.00475
0.963903
1.00296
0.971346
0.958801
0.979558
1.02496
1
0.978447
0.93476
0.96752
0.989871
0.9825
0.986397
1.01673
0.991895
0.995409
0.990812
0.993173
1
1.00584
0.999759
0.970217
1.00244
0.97161
0.998145
1.0261
0.956774
0.955957
1.02443
1.03674
1.02065
1.02415
0.998322
1.01189
0.952957
1.01101
0.967442
1.02882
0.958895
0.932146
1.00449
0.984519
0.954852
0.995739
0.995193
1.00122
0.964484
1.02557
1.01955
0.976262
1.01124
1
1.02266
0.982051
1.00666
0.954541
0.995711
0.964038
1.00154
1.03037
0.988145
0.991347
0.988043
1.00849
1.00962
0.963867
1.01889
0.951157
0.961444
1.03073
0.99634
0.975345
1.00915
0.998377
1.00928
0.950329
0.962195
0.995071
1.01626
0.997947
1.01311
1.01015
1.01993
0.987779
1.0014
1.01224
0.994924
1.02022
1.02603
0.988084
0.943544
0.960912
0.932826
1.00326
1.01776
0.993918
1.02481
1.01499
0.991017
0.943622
1.01376
1.01409
0.97245
0.932959
0.9945
1.01358
0.991753
0.979364
0.981627
0.992633
1.01768
0.972686
0.990203
0.988583
1.02534
0.978684
0.988986
0.959894
0.955493
0.989572
1.01714
1.03064
0.961639
0.959286
0.992703
0.959349
0.951779
1.01546
0.994047
1.0164
0.991322
0.996272
0.951452
1.00664
0.986366
0.988627
0.99209
0.987798
1.01596
0.996501
0.987618
1.00696
0.948008
0.948336
0.982203
0.94656
0.987794
1.02131
0.959329
1.0228
0.963997
0.988125
1.02046
1.02077
0.961908
1.0098
1.02579
0.984064
0.989417
1.03024
0.968302
1.02502
0.932064
1.00001
0.981932
0.941678
0.985099
0.986913
0.959597
0.985463
0.959721
0.981049
0.978347
1.02777
0.996292
1.03232
0.982547
0.989966
1.01101
0.983911
0.998934
1.01689
0.982941
1.01698
1.02752
1.00081
0.932502
0.981305
1.00544
1.01197
0.972037
0.982143
0.98191
0.984932
0.98672
1.00589
0.982897
1.026
0.941965
1.03105
0.981675
0.930535
1.02584
0.979183
0.986407
0.982878
1.01018
0.978475
0.979438
0.993491
0.970627
1.0327
0.955672
0.955314
1.00297
1.01875
1.03256
0.97739
1.00001
0.999938
1.01818
1.00779
1.0034
0.977766
0.978837
0.943345
1.02047
1.01336
0.999996
1.01949
0.974951
1.02201
0.992043
1.02123
0.975831
1.03606
0.958356
0.992715
0.985837
0.974153
0.9848
1.00662
1.00613
1.01777
0.973778
1.01798
0.995485
1.03619
1.02722
1.0367
0.943014
0.970752
1.01983
0.951703
1.00122
1.02258
0.997948
0.978914
0.981405
0.96458
0.971777
0.998148
0.950657
0.978681
1.00817
0.951282
0.974528
1.02629
0.989668
0.976064
0.98318
0.981359
1.00453
1.00372
1.02306
0.951508
1.0258
1.02506
1.03212
0.963394
1.00647
0.970304
1.03046
1.02648
0.956611
1.0256
1.02437
0.980308
0.970235
0.996334
1.03082
0.978667
0.979132
0.95621
0.994956
0.956238
0.983386
0.96695
1.01027
0.983526
1.02364
1.03674
0.96857
0.984769
0.955107
0.995173
0.967733
1.03687
0.981954
1.00275
0.978461
1.02657
0.983797
0.995871
1.02719
0.977572
1.02379
0.988847
0.958272
0.99609
1.06591
0.982429
1.02992
0.966283
0.989282
1.00705
1.01184
1.03379
1.02465
0.999863
0.958456
0.966116
1.00807
0.976097
0.964126
0.985597
0.991402
0.976533
1.02727
1.03807
1.03442
0.929647
0.963114
0.963271
0.964174
0.947552
1.02303
1.02518
1.02787
0.991562
1.0271
1.02263
0.965233
0.947418
0.986823
1.02742
0.963603
0.961899
0.961211
0.967175
1.00427
0.989339
1.03245
0.962345
0.961632
0.967813
0.990177
1.00876
0.96754
0.978611
1.02398
0.975465
1.03303
1.02133
1.03168
0.991103
0.979019
0.986735
0.958051
1.03029
0.991425
1
1.02365
0.958797
1.03265
1.02467
0.991485
0.970925
1.0347
0.987266
0.963645
0.970073
1.0202
1.03222
1.02559
1.03663
0.970804
1.01937
1.00624
0.957095
1.01642
0.993662
0.95768
1.02532
0.970765
1.0258
1.01593
1.0328
0.97399
0.952126
0.952069
1.01434
0.998999
0.973416
0.987899
1.03662
1.03712
0.984517
1.02317
1.01303
0.957179
0.973775
1.01622
1.01989
1.03538
1.01981
1.03388
0.950365
1.01992
0.97272
0.974137
1.01158
1.00755
0.978797
1.01469
0.951907
0.974232
1.0001
0.953588
1.00197
1.03451
1.01853
1.00757
1.01311
1.03721
1.01004
1.0134
0.985374
0.988384
0.972257
0.974499
0.986084
1.0146
1.0198
1.01189
0.948495
1.00595
1.00869
0.988615
0.975675
1.03712
0.976127
1.02072
0.979373
1.00677
0.975284
1.03732
0.946205
1.01035
1.02551
1.01405
1.00296
1.00574
1.02469
1.03619
0.979796
1.0281
0.987773
0.955084
0.976862
0.929571
1.00907
1.00606
1.03628
0.984335
0.961385
1.02459
0.986113
1.0045
0.992794
0.976449
0.978276
0.979958
1.01348
1.00705
0.978058
0.976844
1.02561
1.02004
0.951296
0.984824
0.982409
1.0068
0.979163
1.00195
1.0049
1.0161
0.978211
1.03101
0.959579
0.980701
1.00057
1.00992
0.980123
0.961886
0.954248
1.01247
1.00239
0.989415
0.980519
0.980015
0.985295
0.981175
0.947928
0.959095
0.998579
0.958144
0.948887
1.03745
0.961953
1.02556
1.02668
1.00409
0.98439
1.00095
0.95713
1.02823
1.0359
0.958863
0.987596
1.02888
0.997139
1.02599
0.984049
0.962393
1.02826
1.04398
1.02559
0.983965
1.02443
0.978312
0.999932
1.03758
0.998905
0.998123
0.983759
1.01998
0.997063
1.02879
1.0044
0.984083
1.05459
0.986501
0.982627
1.00737
0.985783
0.956868
0.954231
1.01364
0.994925
0.997667
0.985569
0.985847
0.984898
1.00651
0.957278
1.00545
0.955711
1.02874
1.0113
1.02758
1.02977
0.990659
0.98838
0.987787
1.00756
0.985849
0.955023
1.04148
0.98934
1.00154
0.985091
0.97962
0.963771
0.994938
0.987052
0.956581
1.02276
0.954848
0.987486
1.02605
1.03704
1.02274
0.988083
0.956606
0.996808
0.953776
0.978041
1.03025
0.989411
0.992849
0.986889
0.990553
0.94944
1.027
1.03001
1.00669
0.988818
0.988274
0.950018
0.986319
1.02512
1.03018
0.964989
0.989897
0.988842
0.991323
0.985858
0.985422
0.985637
0.985248
1.04806
0.988476
0.98554
0.979587
1.02492
0.985774
0.992021
0.992038
1.03413
0.992203
1.037
1.0152
0.989229
0.963409
1.01708
0.983604
0.989138
0.968139
0.982784
0.989237
1.01521
1.03722
0.990806
0.977744
0.998682
0.997949
0.991767
1.02948
0.986214
0.991449
0.982401
0.977286
0.98703
1.02577
1.02034
0.988447
1.04254
1.02596
1.01421
0.954611
0.983153
1.01549
0.965971
0.984389
0.979925
0.961197
1.01566
1.01755
0.978131
0.994136
1.01028
1.02365
0.993191
0.990253
0.982446
0.978326
1.01213
0.989531
1.02355
0.995011
1.02087
0.990023
0.99028
0.995927
1.03329
0.993747
0.980488
0.990219
0.976557
1.02492
0.99452
0.947463
1.02826
1.04386
0.978744
0.973737
0.99119
1.02439
1.02412
0.972179
1.02308
0.976949
0.996877
0.973163
1.02908
1.02485
0.991259
0.974153
1.0235
0.996504
1.02462
0.969936
0.995298
0.954142
1.02348
0.973836
1.02461
0.968963
1.00447
1.02985
0.993412
0.998781
0.970026
0.96597
1.02612
1.02397
1.02359
0.990639
0.998087
0.971034
0.969799
0.991036
0.965276
0.99863
0.981758
0.952701
1.00756
1.03022
1.02075
0.986624
0.992113
0.952594
1.02087
0.990734
1.00773
1.02533
0.966202
0.960001
1.00239
0.960207
1.0003
1.03237
0.961751
0.998089
1.00167
0.96916
0.965942
0.93673
0.976277
0.989275
0.980632
0.992223
1.03366
1.04322
0.999916
0.988826
0.959841
1.01957
0.993436
0.978525
0.987142
0.990746
1.0289
0.961621
1.0004
0.979612
0.991755
1.01051
1.02948
0.992439
0.957707
0.997662
1.00229
0.960532
1.02305
1.03757
0.999882
0.952964
0.98068
1.03766
0.991659
1.03623
1.02004
0.985875
1.0018
1
0.957033
1.0153
0.998071
1.03083
0.964104
0.998166
1.00207
0.953595
1.0231
0.954973
0.978275
0.986043
0.99079
1.01312
1.02156
0.995154
1.02294
1.00375
0.981168
0.99247
1.02204
1.03407
0.949868
1.00136
0.954753
1.01228
0.994345
1.0016
1.0033
1.03266
0.99689
0.98077
1.03418
0.997551
0.949686
0.950437
0.957578
0.976507
1.02321
0.988394
1.02447
1.00394
0.979477
1.01669
1.02234
0.98947
0.99766
0.998161
0.987876
0.936787
1.01697
1.02865
0.986374
0.996388
0.998006
0.966088
1.02317
1.00844
1.00354
0.985466
1.00642
1.02268
0.997163
1.02782
1.00605
1.03697
1.03253
0.987927
1.03319
1.00572
0.981417
1.02262
1.04218
0.999577
0.989706
0.989163
1.02487
0.97962
1.02544
0.990953
1.01305
1.02115
1.00514
1.02753
1.0253
0.986654
0.999267
0.987533
1.00397
1.01927
0.986108
0.991705
1.05494
1.01314
0.98423
1.01957
0.98597
0.986757
1.00887
0.986372
1.02297
1.02573
0.986292
1.00078
1.02672
1.02808
1.00058
1.0019
1.00047
1.00717
0.936095
1.00849
0.979149
0.985043
0.963442
0.949938
0.950122
1.02863
1.00133
0.963758
0.986984
0.96872
1.02888
1.0224
1.00681
0.98451
1.02733
1.0283
0.955764
1.02907
1.01047
0.990186
0.989433
1.02296
1.00341
1.01002
0.992702
0.987736
0.992192
1.0255
1.009
0.989311
1.03135
0.932389
1.0028
0.993603
0.997701
0.984973
0.991998
0.998288
0.925868
0.925322
1.02872
0.932739
1.00851
1.01573
1.02088
0.985389
1.02025
1.00313
0.950203
1.02499
1.02452
1.02011
0.996874
0.990168
0.988471
0.988955
1.00529
1.0034
0.936272
1.02381
0.992176
0.945505
1.02132
1.00448
0.983488
1.0128
1.02371
1.02294
1.02446
0.987344
0.995814
1.00494
1.00335
0.996411
0.985412
1.01244
0.955867
1.02467
0.991699
1.02546
0.982981
0.992204
0.989011
1.02329
1.02551
0.928699
1.02734
0.98687
0.955848
0.999584
0.966962
0.959206
0.975386
0.979065
0.999997
0.98966
1.02041
0.999999
0.997324
1.00719
0.960038
1.02174
0.985713
0.986884
0.999122
1.04131
0.985596
1.00017
0.977253
1.02481
0.981576
1.00668
0.988102
0.959651
0.998202
0.959561
0.987644
0.959666
1.02047
0.990091
0.999357
0.99941
1.01491
0.994279
0.985377
0.952574
0.989784
0.999999
1.02325
0.98912
0.989864
1.01466
0.987777
1.02039
1.02077
0.989157
0.999999
1.02083
0.994946
1.00746
0.941862
0.987367
0.999354
0.993684
0.990748
1.00889
1.01972
1.0204
0.990788
0.960614
0.959072
0.952389
0.995612
1.02331
0.995745
0.928659
0.960345
0.989705
0.958015
0.926273
1.0206
1.00644
0.994976
0.994503
1.00828
0.95225
1.02066
1.02082
1.02998
0.994992
1.01799
0.994208
0.999887
0.99089
0.951663
1.05871
1.02075
0.963128
0.961291
1.01748
1.02079
0.95849
0.964052
1.00539
1.0256
0.966186
1.00232
0.990918
0.979163
0.945815
0.995121
1.0118
1.02125
1.00675
0.994349
1.01419
0.987457
0.955696
0.988419
0.931773
0.964031
0.991527
0.985535
0.996267
0.966907
1.01709
1.00053
1.02183
0.981971
1.02065
1.01381
1.00065
0.930048
1.01678
0.955625
1.01046
0.991331
1.02044
1.01205
0.982849
1.02531
0.981508
0.996791
0.966686
1.00921
0.996436
1.02717
1.00583
1.0101
0.994238
0.996798
0.940661
0.984271
1.01035
0.996711
0.97266
0.974549
0.980351
0.987765
1.0234
0.931758
1.00103
0.952015
1.01569
0.976364
0.993376
1.01146
0.988632
0.992926
0.993127
0.998417
0.984755
0.964715
0.986595
1.01109
0.998192
1.01525
0.968516
0.974569
0.988979
0.976426
0.952074
1.03336
0.993598
0.978763
1.02115
0.991603
1.03324
0.957939
0.951347
1.01915
0.992682
0.999162
1.02199
0.979368
1.02186
0.973148
1.00244
0.974173
1.00475
1.01881
0.931041
1.02709
0.974062
1.04517
0.987039
1.02149
0.991821
1.01135
0.998306
0.996701
0.948718
0.996698
0.971928
0.948313
1
1.02423
0.99353
1.01711
0.960231
0.996139
1.01288
0.987803
1.01803
0.926094
1.013
0.985115
1.01991
0.99591
1.01224
0.974346
0.994512
0.975994
1.01672
0.976912
1.03308
0.993689
1.03368
1.01264
0.998633
0.958137
1.05128
1.00137
0.995676
1.0118
1.02025
1.01397
1.04449
1.01024
0.992315
0.946061
0.977022
0.991377
0.99494
1.0198
1.02118
1.03534
0.983003
0.980053
1.01132
0.996571
1.01178
0.982878
0.960186
1.01447
1.01234
1.01847
0.983366
0.95047
1.01275
1.02081
0.991582
0.946332
0.927876
0.995455
0.981697
1.01788
1.01822
0.987344
0.992422
1.01145
0.987809
1.00882
0.992604
0.98027
0.926374
1.02509
1.00238
1.01148
1.0198
0.997459
0.957385
1.0249
0.983116
1.04153
0.981013
1.01828
0.982656
0.979124
1.01799
1.00782
1.00518
1.00753
0.98837
0.980356
0.993208
0.993913
1.01542
0.972898
0.989239
0.987709
1.00425
0.991206
0.985359
0.993316
1.02558
0.981878
0.983721
0.980465
1.01995
0.98188
0.996377
0.991501
1.01509
0.963297
0.997639
0.928379
0.998127
0.988752
1.01961
0.998712
0.994829
1.02102
0.999504
0.964529
0.984102
0.986609
0.993858
1.01579
0.98707
0.9827
0.999577
0.994767
0.981427
1.00427
1.00131
0.994604
0.994516
1.02096
1.02776
0.982622
1.02802
0.987096
0.979814
1.00008
1.00311
1.03269
1.01622
0.978747
1.0125
0.988651
1.02121
0.987092
0.990917
0.988936
0.984791
1.02252
0.983227
0.992613
0.994402
1.03236
1.00888
0.979616
0.990627
0.994345
0.988744
1.00766
0.928306
1.00388
1.00468
1.03381
1.02081
1.01594
1.01044
0.997187
0.984591
1.0025
0.983358
0.989793
0.981589
0.980272
0.979778
0.95103
0.991993
0.99946
1.00601
0.999072
0.984699
0.999764
0.988318
1.01109
0.979055
0.985141
0.989978
1.00088
1.01979
0.979234
0.992836
0.988412
1.01776
1.00655
0.984316
0.97986
0.979568
1.01746
1.00251
0.970832
0.993257
1.03176
0.982796
0.961055