/*--------------------------------*- C++ -*----------------------------------*\
  =========                 |
  \\      /  F ield         | OpenFOAM: The Open Source CFD Toolbox
   \\    /   O peration     | Website:  https://openfoam.org
    \\  /    A nd           | Version:  12
     \\/     M anipulation  |
\*---------------------------------------------------------------------------*/
FoamFile
{
    format      ascii;
    class       surfaceScalarField;
    location    "3.57";
    object      phi;
}
// * * * * * * * * * * * * * * * * * * * * * * * * * * * * * * * * * * * * * //

dimensions      [1 0 -1 0 0 0 0];

internalField   nonuniform List<scalar> 
33852
(
0.000251329
2.24281e-05
-0.000273757
-0.000246121
1.32441e-05
0.000232877
-0.000179008
-7.41823e-05
0.000248966
0.000304053
-0.000163969
-0.000140085
0.000291953
-4.31248e-05
-0.000247375
2.72441e-05
-0.000260681
0.000233437
0.000314454
1.46087e-05
-0.000329169
0.000304277
-9.59564e-05
-0.000208321
0.000286413
-3.50841e-05
0.000207427
1.81899e-06
-0.000201188
0.000289618
-0.000366633
7.70622e-05
0.000360592
-4.55317e-05
-4.39602e-05
0.000263285
-0.000219325
-4.3908e-05
0.000318326
-0.00027455
6.25641e-05
-0.000242495
0.000252057
1.2236e-05
-0.000264293
0.000264853
-1.2796e-05
-0.000278433
3.23121e-05
0.000340848
-5.12185e-05
0.000158593
0.000112308
-0.000270901
-2.43616e-05
0.000303193
-0.000278838
0.000271377
-0.000276165
4.78802e-06
-1.77172e-05
0.000275124
-0.000257764
-0.000223271
1.50147e-05
0.000215108
-0.000152996
-0.000183579
0.000336863
-0.000147061
-7.10195e-05
0.000217029
3.72401e-05
0.000267037
-6.11909e-05
-0.000263288
0.000323613
-0.000208698
1.91442e-06
0.000206316
-0.000198952
-1.86697e-05
0.000142045
0.000137388
-0.000279433
0.00034259
1.93142e-05
0.000142618
0.000128347
-0.000270965
-0.000101136
0.000259729
-0.000250489
-3.78001e-06
0.000254269
0.000330719
-5.94782e-05
-0.000271252
-0.000356554
0.000203216
-0.000227818
0.000209855
0.000231645
3.32081e-05
-5.65602e-06
0.000237301
-7.75934e-06
0.000217483
-0.000232625
0.000259869
0.000315563
-5.69258e-05
-0.000257968
-0.000309093
5.51042e-05
0.000253989
0.000239774
-0.000302103
0.000273589
-0.000306321
3.27321e-05
-0.000180237
-5.49362e-05
0.000235173
0.000272133
-0.000272133
0.000148429
-0.000297473
0.000149045
-0.000212118
0.000217189
-6.97824e-06
-0.000268241
0.000237301
3.09401e-05
-0.000198031
0.000247881
-4.7319e-05
-9.16164e-05
-0.000217477
-0.000114472
-0.000252082
-0.000280169
0.000266113
1.40561e-05
0.000331049
1.20007e-05
-0.000250433
7.01963e-05
0.000117908
0.000145909
-0.000263817
1.34681e-05
-0.000267457
0.000253989
-0.000134569
0.000282997
-0.000151835
-5.1001e-05
0.00019212
-0.000274681
0.000245113
2.95681e-05
0.000237553
-0.000268437
3.08841e-05
-0.000185963
-2.3763e-05
0.000151665
0.000115565
-0.00026723
-0.00019127
-2.8464e-05
0.00022098
0.000263985
2.24281e-05
0.000275941
-2.35201e-06
0.000265329
-0.000250741
-1.45881e-05
0.000233478
-6.58516e-05
-0.000167921
-1.82001e-06
0.000239373
0.000366637
-0.000312439
-5.3895e-05
-2.83642e-05
0.000303913
-0.0002755
-0.000101584
0.000219493
0.000342963
2.42236e-05
-0.000371673
0.000354118
1.82983e-05
-0.000208891
2.25111e-05
0.00030925
-0.000319711
1.22114e-05
-0.000210711
0.00027672
-6.49075e-05
-4.45202e-06
1.71487e-05
-0.000319184
0.000302144
0.000234199
-0.000195511
-3.50049e-05
0.000269499
-0.000340922
7.02125e-05
0.000332189
-6.33415e-05
-0.000268941
0.000236573
3.23681e-05
-0.000129388
-0.000132609
0.000261997
-1.86761e-05
-0.000249565
-1.022e-05
-0.000258721
2.3167e-05
0.000208701
-0.000238108
3.13169e-05
-0.000225098
0.00019767
-2.50698e-05
0.000328885
-0.000303377
-0.000279329
0.000273701
5.62802e-06
0.000156129
-0.000296857
0.000140729
-5.9886e-05
-0.000147257
0.000211741
0.000143277
0.0001218
-0.000265077
-0.000250003
0.000225714
-0.000209455
0.000155479
-0.000168813
0.000327181
-0.000158369
0.000185389
7.16523e-05
-0.000257041
0.000255193
2.07481e-05
-0.000192277
0.000148317
5.02991e-05
0.00026612
0.000307038
-0.000289862
9.32536e-05
-0.000240129
0.000135241
0.000117096
-0.000281065
-1.3084e-06
0.000245291
-0.000244637
0.000166489
0.000122836
-0.000289325
0.00014602
9.14631e-05
-3.92002e-06
0.000259113
0.000305061
5.43287e-06
-0.00032404
0.000314995
8.94828e-06
-3.99002e-05
0.000236293
-0.000196393
4.08802e-06
-0.000284257
-2.5142e-05
0.00016224
-0.000143019
-0.000159389
0.000127954
0.00021633
-0.000178227
-0.000269921
0.000264965
4.95602e-06
2.64041e-05
0.000174721
-0.000201125
2.87841e-05
-0.000257265
0.000228481
0.000276137
-0.000262669
0.000115108
0.000212073
0.000217253
-0.000197055
-0.000175813
0.000202217
1.35404e-05
0.000283301
-0.000296507
0.000270951
2.21831e-05
0.000271536
-0.000283326
1.23091e-05
3.86402e-06
0.000267513
-1.80438e-05
0.000290152
0.000330884
9.99362e-06
0.000213657
-0.000257591
0.000316043
-0.000316047
-6.63603e-06
-0.000272693
2.80858e-05
0.000202602
0.000187993
3.98722e-05
-0.000227865
-5.4792e-05
0.00021411
-0.000161572
0.000153609
-0.000270285
0.000116676
0.000279441
-0.000329701
5.02602e-05
-6.38122e-05
0.000249201
-0.000166909
0.000315897
-0.000148989
-0.000314156
-1.00092e-05
-0.000214929
0.000175029
2.78601e-05
-0.000278349
0.000276221
-1.88441e-05
-0.000248613
1.72766e-05
-0.000303061
0.000285779
0.000344989
-0.000158593
-0.000186397
-1.69454e-05
-0.000241164
0.000257767
-0.000266617
-3.30401e-06
0.000224001
2.45841e-05
-0.000248585
0.000284509
-0.000128381
0.000140197
0.000138853
-0.000279049
-0.000201054
-1.09999e-05
0.000258169
-0.000115551
0.000225617
-0.000242522
-6.38122e-05
0.000251805
-0.000207174
0.000249481
-5.60002e-07
-0.000248921
0.000255109
-0.000237441
-0.000325255
0.000300466
-3.08841e-05
0.000203169
-0.000172285
0.000291592
1.22101e-06
-0.000292997
7.38717e-05
0.000129325
-0.000205352
4.62476e-05
-0.000207344
-0.000288798
-4.53082e-06
0.000293776
-1.62457e-06
-0.000287177
0.000146973
-0.000273925
0.000126952
-0.000261934
0.000220512
-0.00029429
0.000265472
0.000279441
-0.000313625
-1.25085e-05
0.000324347
0.000112603
0.000164011
-2.13647e-05
0.000352068
0.000140141
0.000139833
-0.000279973
0.000245029
-0.000250349
5.32002e-06
-0.000210953
0.000180069
0.000279133
-5.43202e-06
0.000351019
-3.27778e-05
-0.0003015
0.000301915
-3.20953e-06
0.000270985
-0.000270985
-0.000364676
0.000225952
0.000138785
-0.000207037
1.9763e-05
1.69549e-05
0.000275157
-0.000278461
3.30401e-06
-4.99744e-06
0.000165463
-0.000167296
-0.000197345
0.000254801
-5.74562e-05
-0.000202951
4.63643e-06
-0.000245239
0.000161868
8.16362e-05
-0.000180264
0.000261404
-8.11356e-05
0.000256285
-0.000287113
3.08281e-05
-0.000249229
5.18842e-05
-2.34467e-05
0.000276169
-0.000252739
-0.000253547
1.35801e-06
0.000252189
0.000231281
-7.28003e-06
-0.000294509
7.54059e-06
0.000286948
-0.000266085
0.000266085
-0.000285727
-5.54538e-05
-0.000170663
-0.00019396
-0.000171058
0.000218605
-4.47233e-05
-1.232e-05
-0.000239177
0.000251497
3.10801e-06
0.000210113
-0.000213221
-0.000182621
-2.25059e-05
0.000204776
7.58081e-06
0.000294469
-0.000302044
-0.000236153
-1.34401e-05
0.000249593
1.50361e-05
-0.000251189
-0.000241025
0.000256061
-0.000301312
0.000308906
0.000256117
7.16803e-06
-0.000169861
-3.20619e-05
0.000201564
-0.000145237
-0.000134765
-0.000244329
0.000240549
0.000298554
-4.21018e-07
-0.000298133
-0.000298876
6.0148e-07
0.000298282
1.94597e-05
0.000181217
0.000163773
7.70044e-05
-0.000257269
-0.000159242
0.000310908
0.000250721
-0.000108677
-0.000235145
-1.83681e-05
0.000253513
-0.000204632
-0.000126744
0.000331499
-6.10402e-06
-0.000229125
0.000235229
-2.18082e-05
-0.000185387
-0.000285978
-8.53119e-05
6.33817e-06
-0.000300717
-0.000212555
0.000327815
-0.00011541
0.000281597
0.000288205
-5.16322e-05
0.000271993
-1.57081e-05
-0.000189069
-1.42797e-05
0.000203119
0.000297457
4.41044e-07
-0.000297955
-0.000270684
-3.23626e-05
-0.000218821
0.000247605
-2.52641e-05
0.000310695
-0.000285425
0.000181231
7.85021e-06
-0.000189833
-3.41124e-05
0.000213948
-0.000301336
0.000276074
0.00029163
5.95919e-06
-0.000297521
0.000157445
0.00011886
-0.000276305
0.000289581
5.886e-06
-0.000295097
-0.000253803
0.000123686
0.000132755
-0.000281526
0.000295306
0.000302513
-0.000156857
-0.000145657
0.000207005
-0.000203897
-0.000232009
-0.000121156
-0.000155009
-4.05949e-06
-0.000294037
0.000297989
-1.0136e-05
0.000276249
0.000290595
-2.03955e-05
-0.000270152
-0.000262958
2.8933e-05
0.000233866
0.000271433
-0.000267569
0.000249621
2.95121e-05
0.000314918
-9.73914e-06
-0.000305228
4.87215e-05
0.000152858
-0.000200896
-0.000102553
0.000194489
-9.75393e-05
0.000252617
-2.91201e-05
-0.000223497
5.42267e-07
0.000291518
-0.000176514
-3.20251e-05
0.000210135
-1.69551e-06
0.000291343
-9.33244e-05
0.000246933
-0.000255417
-5.26402e-06
0.000121184
0.000181329
1.34121e-05
0.000241557
-0.000254969
0.000236097
1.34961e-05
-0.000249593
0.000249509
-0.000242929
0.000256425
6.45542e-05
-0.000205429
0.000139585
-0.000220289
0.000117775
-0.000206054
0.000297316
1.37978e-06
-0.000298703
0.000253849
2.22881e-05
0.000268493
-0.000216441
-5.20522e-05
0.000225518
-0.000246849
2.13305e-05
0.000257909
1.40841e-05
5.85587e-05
0.000295928
0.000267186
-3.89594e-05
-0.000228226
0.000174045
1.274e-05
0.000240297
-0.000253037
0.000195524
-0.000114479
-7.9925e-05
-0.000207914
2.13115e-05
-1.27139e-06
-0.000297868
0.000299207
0.000230241
-0.000174304
-5.4531e-05
0.000344474
-4.12988e-05
0.000275969
-0.000135829
2.31561e-05
0.000238337
-0.000261493
-0.000231141
0.000254297
-2.66856e-05
-0.000229758
0.00025642
0.000151211
-0.000163593
-7.66048e-05
-0.000170309
-0.000261723
4.14346e-05
0.000220288
-3.17521e-05
-0.00022997
7.52878e-06
0.000261717
-3.25193e-05
-0.000229198
1.67428e-05
0.000127045
-0.000196656
0.000308785
-0.000171397
0.000262319
-3.57923e-05
-0.000226526
-0.00031888
0.000173933
-9.91468e-05
-0.000228453
-6.90203e-05
3.32855e-07
-0.000300666
0.000300248
-2.78713e-05
0.000180785
-0.000158532
0.00030806
6.89242e-06
0.000250097
-0.000248249
-1.84801e-06
-0.000175302
6.15013e-05
0.000260248
-3.07325e-05
-0.000229524
0.000197345
-0.000250769
5.34242e-05
0.000254206
-0.000231206
-2.29991e-05
-0.000252337
0.000240017
0.00014694
0.000102805
-0.000101864
-0.000170269
0.000132496
-0.000261885
-0.000290249
0.000242201
4.80482e-05
0.00021681
3.12463e-05
-0.000248056
-0.000235852
-1.00016e-05
0.00024622
0.000327065
-2.29498e-05
0.000263996
-3.42721e-05
-0.000229724
0.000140783
-0.000238324
8.95493e-05
3.63259e-05
-0.000265637
0.000229311
-0.000253905
0.000121296
0.000249817
-5.24722e-05
0.000294673
-0.000154253
-0.000140421
0.000122248
-0.000289157
1.53441e-05
0.000237665
-0.000253009
-0.000262031
3.54705e-05
0.00022656
-2.75683e-06
-3.77917e-05
-0.000224239
0.000248629
-0.000272453
-0.000264649
3.44737e-05
0.000230175
0.000193257
0.000101416
-0.000149941
0.000290137
-0.00017104
-3.80763e-05
0.000206697
-1.81721e-05
0.000263201
-0.000293331
0.000310464
0.000122142
0.00010804
0.000261325
-0.000261325
0.000314351
-2.28146e-05
-0.000290594
5.32002e-07
0.000248949
0.000254857
1.65761e-05
0.000309178
-0.000276029
-3.31259e-05
-2.26336e-05
0.000266577
-0.000243943
3.00077e-05
-0.000260519
0.000230511
-0.000252139
0.000229506
0.000328959
3.11501e-05
-0.000260598
0.000229447
0.000276809
-3.16961e-05
-6.21989e-06
-0.000294751
0.000300861
0.000270523
3.88386e-05
0.000230245
-0.000266617
3.63721e-05
0.000200293
-0.000201253
-0.000258301
0.000238533
1.97681e-05
0.000169762
-0.000257245
8.74835e-05
-0.000202388
0.000163241
-0.000249145
8.59043e-05
-0.000266169
0.000224813
4.13562e-05
0.000253073
-2.78797e-05
-0.000225194
0.00017306
4.21864e-05
-0.000234837
-2.29601e-05
0.000257797
-0.000236377
-2.28761e-05
0.000259253
-1.94265e-05
0.000255969
-0.000236542
-0.000259345
0.000239919
-3.39571e-05
0.000167653
-0.000235929
-2.24001e-05
0.000258329
-0.00025484
0.000229192
2.56481e-05
2.94001e-06
0.000211289
-0.000214229
-0.000267031
3.79849e-05
0.000229046
0.000270677
4.48002e-06
4.19872e-05
0.000162028
-0.000202542
-3.31194e-05
0.000249928
-2.09132e-05
0.000218597
9.73004e-05
0.000248201
-0.000216954
0.000277239
-0.000278763
0.000277115
-0.000281475
-1.84997e-05
0.000258601
-0.000240101
-0.000261644
0.000243145
3.04863e-05
-0.000199131
-3.01159e-05
-0.000200531
0.000231265
0.00031518
-0.000287579
-2.75256e-05
0.000261297
-3.11081e-05
-0.000230189
3.28739e-05
-0.000262362
0.000229488
-0.000229853
0.000259645
-2.97921e-05
0.000325821
-1.76599e-05
0.000153655
-0.000219283
0.000256929
-0.000109956
-0.000286202
0.00028734
0.000241977
-6.41202e-06
-0.000235565
0.000228537
-0.000181142
-3.69043e-05
0.000220249
2.84198e-05
-0.000207859
-0.000239989
0.000260317
-2.03281e-05
-0.000104134
0.000186727
-8.67937e-05
3.05088e-05
-0.000203744
0.000240169
-0.000263424
2.32552e-05
-0.000115584
0.000258861
-0.000243993
0.000265721
-2.17281e-05
-0.000238953
0.000232541
0.000258626
-0.000245105
-1.35213e-05
0.000264349
-2.46681e-05
-0.000246317
-0.000272811
-1.0443e-05
0.000297822
-5.40634e-05
-7.27737e-06
0.000291658
-0.000286258
-0.000164773
0.000207616
0.000228288
1.8184e-05
-0.000244294
0.000328883
-0.000329038
0.000260955
-0.000245018
-1.59377e-05
-0.000301953
-7.42995e-07
0.000305506
9.76594e-06
3.81477e-05
0.000171488
-0.000210826
0.000207384
-3.34382e-05
-0.000176265
0.000278054
-0.000255789
-2.22648e-05
-0.000208526
3.14941e-05
3.15421e-05
-0.000261891
0.000230348
0.000285
-0.000291842
2.44721e-05
-0.000259617
-0.000257965
1.87881e-05
0.000266057
-1.64361e-05
0.000151173
-0.000267625
0.000116452
0.00029895
-4.44126e-06
0.000238617
-7.53763e-05
2.12521e-05
0.000177045
-0.000198297
-0.000183877
0.000205129
-0.000236275
0.000257219
-2.09441e-05
0.000261462
-3.31689e-05
-0.000228293
-0.000197009
-5.21362e-05
0.000251581
-1.48401e-06
8.84264e-06
-0.000264961
0.000256481
-0.000343563
0.000236889
0.000106695
0.000266371
-0.000236811
-2.95597e-05
0.000306868
-0.000314703
7.81178e-06
-2.57041e-05
-0.000229097
0.000254801
0.000261493
-7.64403e-06
9.89165e-06
-0.0002055
0.000262411
-3.19033e-05
-0.000230508
-6.90483e-05
-0.000260653
-0.000194685
0.000248025
-5.33402e-05
-0.000266533
0.000249985
1.65481e-05
-0.000317994
1.66859e-05
-1.71342e-05
0.000296848
-0.000279773
-0.000276221
1.65481e-05
0.000249537
-0.000170264
6.4797e-05
0.00027409
1.47623e-05
-0.000288527
-0.000316088
0.000307877
8.24964e-06
3.46641e-05
-0.000263649
0.000228985
-1.74672e-05
0.000281659
-0.000315274
1.63964e-05
-0.000176541
-7.42283e-05
-0.000228302
0.000201445
-2.16721e-05
-0.000216469
0.000238141
-0.000314838
0.000295922
1.89156e-05
-0.00013066
0.000274817
-0.000140865
-8.41556e-06
3.31521e-05
-0.000263453
0.000230301
-0.000203556
2.50074e-05
0.000176037
0.000221506
0.000280084
-0.000280279
1.96483e-07
-0.000236993
-2.20921e-05
0.000224813
-0.000202721
0.000139273
0.000143753
-0.000278517
0.000204483
-5.77006e-05
0.000308167
-1.06455e-05
0.000209073
-0.000268689
2.92853e-05
0.00022306
-0.000252345
-0.000322151
0.00013882
0.000296579
2.92718e-05
1.94988e-05
-0.000224355
-2.77845e-05
-0.000135519
-0.000132989
-0.000326042
0.000113516
0.000242873
2.56201e-05
0.000218765
-0.000224869
1.09937e-05
-0.000288479
0.000276278
-0.000243472
0.000270055
-2.70872e-05
0.000281479
-0.000281897
0.000280715
-7.682e-05
-8.85436e-06
0.000290327
-1.87881e-05
0.000247101
-0.000228313
0.000281547
-0.0002904
-5.62248e-06
-0.000284026
0.000289674
0.000282142
-0.000269687
0.000284897
0.000226314
2.67597e-05
-0.000305887
0.000316719
-8.74819e-06
0.000251377
-2.07229e-05
0.000228426
2.41368e-05
-0.000268913
0.000246057
-2.05381e-05
-0.000259401
3.02849e-05
0.000229116
0.000178305
7.64963e-05
9.89026e-06
0.000281605
-0.000291761
-0.000238141
-2.88401e-05
0.000266981
2.51441e-05
-0.000263285
0.000284117
-0.000162317
-0.000232177
0.000261129
-2.89521e-05
-0.000234697
0.000260709
-2.60121e-05
1.48956e-06
0.000278741
2.45001e-05
-0.000259197
2.38001e-05
-0.000255977
0.000274248
-0.000242918
-3.13396e-05
0.000317901
-1.00035e-05
-0.000305448
-5.0096e-07
-0.000255753
1.1816e-05
0.000243937
-1.47163e-05
-0.000261185
0.000228065
-0.000245337
0.000270145
-2.48081e-05
-0.000263229
1.49801e-05
-2.36452e-05
0.00028594
-0.00026216
2.13641e-05
-0.000266701
-0.000241599
-2.13512e-05
3.2713e-05
-9.0432e-05
0.000260194
0.000280856
-0.000286458
5.05122e-05
0.000237693
0.000282314
-0.000282111
-0.000243181
-2.39401e-05
0.000267121
-0.000260894
7.34723e-06
-0.000295395
1.93624e-05
0.000276148
-0.000268717
2.55361e-05
-8.52564e-06
0.000290684
-0.000268326
0.000243549
2.47773e-05
-0.000232513
0.000210841
0.000280314
-0.000288764
-6.16002e-07
0.000260289
-0.000259673
-0.000301901
-1.61239e-05
-0.000264573
2.35481e-05
-0.00024417
-2.41555e-05
-3.43281e-05
-0.000298149
0.000294035
0.000286674
-0.000158327
0.000295815
-0.000290701
2.30152e-05
4.89701e-06
0.000261743
-0.000254732
-7.10134e-06
0.000307666
-2.02144e-05
-0.00028746
5.92883e-05
-0.000246765
-2.19521e-05
-0.000356096
0.000241603
0.000283324
-0.000277465
2.33801e-05
-0.000183501
-1.56998e-05
-0.000306483
2.56961e-05
0.000280928
-0.000197203
0.000310719
-0.000114024
0.000259841
-0.000238533
-2.13081e-05
-0.000291765
2.94001e-05
0.000222097
-0.000251497
-0.000159764
0.000133466
-0.000168021
0.000251441
-0.000238029
-1.34121e-05
-0.000263873
3.40201e-05
-2.23161e-05
-0.000269837
0.000251469
0.000230427
3.12901e-05
-4.64432e-05
0.000205963
0.000232619
-0.000260499
-1.74219e-05
-3.27063e-06
0.000246792
-0.00024306
-0.000293006
-0.000237049
0.000265189
-2.81401e-05
0.000230096
3.22225e-05
-0.000268521
2.55921e-05
-0.000239905
-2.86161e-05
0.000228954
-0.000260706
-0.00028261
4.73202e-05
-0.000242005
0.000292966
-0.000282802
-0.000288301
1.32956e-05
0.000275836
-5.46462e-06
0.000213196
0.000228551
-0.00026107
0.000296885
-0.0001309
-0.000165985
0.000241611
-0.00026187
0.000270844
-0.000226213
-1.76681e-05
-0.000164891
0.000307245
-0.000142275
2.49649e-05
0.000222662
-0.000247627
-0.000191648
0.000190129
-0.000283808
0.000282563
7.01232e-06
-0.000290801
-0.000302485
0.000146693
0.000155793
0.000259995
-0.000239359
-2.06361e-05
-0.000215741
0.000193649
0.000261505
3.15854e-07
0.000257293
0.000232526
2.16799e-05
-0.000294613
-6.25798e-05
1.03804e-05
0.000234156
-0.000251962
1.70655e-05
-0.000230917
-2.37161e-05
0.000254633
-0.000242295
0.000263191
-2.08965e-05
8.2327e-05
0.000133589
2.01323e-05
-0.000306
0.00028589
0.000256565
-1.80041e-05
-0.000238561
0.000243881
-0.000254017
1.0136e-05
-0.000226745
0.000207957
0.000223131
-0.000258923
-0.000244693
4.76842e-05
1.59659e-05
-0.000137688
-0.000218417
1.57921e-05
0.000245701
0.000280961
0.000293629
0.000305934
1.6973e-06
0.000249817
-0.000220417
2.51749e-05
0.000225009
-0.000250184
-0.000243178
0.000268865
-2.56873e-05
2.28201e-05
-0.000262725
-0.000117004
0.000296471
9.07185e-06
2.08181e-05
0.000261675
-0.000235103
-2.65721e-05
1.31143e-05
-0.000303919
0.000290867
0.000321721
-3.09429e-05
-0.000290809
0.000249733
1.63241e-05
0.000306054
-0.000293007
-0.000230843
-0.000112583
9.63204e-06
0.000250657
-4.9129e-05
-0.00020239
0.000251519
2.20333e-05
0.000246832
-0.000241686
-2.29629e-05
0.000260737
-2.24001e-05
0.000287889
-0.000268023
2.63369e-05
2.68241e-05
-0.000257965
0.000210617
-0.000207677
2.58161e-05
-0.000262865
0.000280998
0.000121744
-0.000256173
0.000134429
1.7622e-05
3.81103e-05
0.000160524
-0.000200218
-0.000239485
-2.85377e-05
3.99181e-05
0.000163529
-0.000202658
-0.000246691
0.000271066
-2.43747e-05
0.000209866
-0.000248826
1.98857e-05
1.73309e-05
-0.000173754
-3.02062e-05
0.000226684
-0.000257413
-2.88401e-05
0.000244245
-0.000215405
-2.16161e-05
0.000242985
-0.000221369
0.000201657
-0.000250786
-0.000273617
-0.000232905
-2.55081e-05
0.000258413
0.000241234
2.98318e-05
-0.00021269
-2.38302e-05
0.000235902
-2.18821e-05
-0.000224967
-0.000239345
6.28042e-05
0.000259004
-0.000229718
4.75106e-05
-0.000249901
-3.43393e-05
0.000257694
-0.000223354
0.000205675
-0.000240014
0.000261689
-1.1956e-05
-6.06764e-05
-0.000229572
-0.000222394
-1.69953e-05
0.000239102
0.000247109
5.3175e-05
0.000212448
-0.000265623
-0.000261095
0.000177353
-0.000231757
5.44042e-05
6.56254e-05
0.000138215
0.000259457
-0.000240915
-2.47224e-05
-0.000265385
0.000227165
3.82201e-05
-2.87813e-05
-0.000222158
0.00025094
-0.000284817
0.000264161
0.000234501
3.61761e-05
2.18821e-05
0.000234087
-0.000307217
0.000151089
0.000156129
0.000170601
-5.4934e-05
0.000254045
-0.000115192
2.56901e-05
0.000217446
-0.000243136
-0.000286337
0.000286977
9.28542e-06
0.000257377
-0.000245953
0.000208937
3.70161e-05
0.000254832
0.000247896
-1.9478e-05
-0.000246815
-2.02161e-05
-0.000263019
2.0724e-05
-0.000269215
2.24001e-05
2.79601e-05
0.000220024
-0.000247984
0.000242481
-0.000274597
1.32721e-05
0.000246849
-1.44811e-05
1.30982e-05
-0.000249356
-0.000328791
0.000124158
-0.000233135
-2.62109e-05
-0.000252113
0.000252113
0.000259782
-0.000144217
-1.87357e-05
-0.00027878
0.000296846
0.000274372
0.000258749
-0.000135913
0.000224113
2.39205e-05
0.00023468
7.83289e-05
-0.000342166
3.76849e-05
0.000258962
1.76363e-05
-0.000248843
-3.00917e-05
0.000207453
-3.01001e-05
0.000259701
2.95429e-05
0.000218353
-0.000247896
-3.05014e-05
-4.09782e-05
-0.000217818
0.000258797
-0.000233423
-2.14173e-05
3.74621e-05
-0.000200597
0.000160587
-3.30877e-05
0.000221671
-0.000255943
-0.000281839
-8.43335e-06
0.000290367
-0.000193819
0.000161499
0.000166349
8.16763e-05
1.2846e-05
-0.000294675
0.000235075
2.59446e-05
-0.000261019
-0.000198729
-1.20323e-06
0.000232743
-0.000264287
3.15449e-05
-8.42803e-06
-0.000217029
0.000225457
-0.00016632
0.000201177
-0.000249985
-3.46025e-05
0.000256274
0.000218076
-0.000252679
-0.000246289
0.000272245
-2.59561e-05
0.000253547
2.78321e-05
-0.000232062
-2.95821e-05
-0.000298298
0.000316416
-1.81898e-05
2.33696e-05
0.000212462
-0.000250254
-0.000267233
2.09441e-05
-2.12801e-05
-0.000245953
-3.61481e-05
0.00024861
-0.000289968
-1.38041e-05
0.00022082
-0.000256968
0.000246057
-0.000249793
1.60678e-06
2.80002e-06
0.000181413
-0.000184213
0.000255294
0.000234529
2.67681e-05
-2.62361e-05
0.000245001
-0.000218765
3.36001e-05
0.000216609
-0.000250209
0.000244861
2.73841e-05
0.000306545
-0.000143949
-0.000162597
1.55736e-05
0.00023834
-0.000252974
0.000271013
-0.000113568
0.000225569
-0.000256677
-0.000241433
0.000104708
-0.000265469
7.16803e-06
-0.000241635
-2.75801e-05
-0.000241361
-2.48081e-05
0.00031048
-2.75218e-05
-7.67483e-05
0.000243097
-1.1452e-05
-0.000215601
0.000224281
-8.68003e-06
0.000255193
-7.68883e-05
3.42507e-05
-0.000195014
0.000160732
-0.000265245
-1.40001e-07
-4.14962e-05
3.93286e-05
0.000156307
-0.000199509
0.000196258
-0.000162097
0.000257041
-7.05603e-06
0.000251151
-0.000218277
-1.82421e-05
-2.1128e-05
0.000274063
-9.30248e-05
-0.000177149
-1.42801e-05
-0.000191913
0.000206193
0.000258665
-1.53553e-05
-0.00024331
1.98101e-05
0.000238855
-0.000280275
-8.25015e-06
3.6992e-05
-0.000198442
0.000162658
1.36921e-05
0.000247997
-0.000163432
0.000201846
-1.95189e-05
0.000248711
3.32156e-05
0.000189615
-0.000222268
-4.17202e-06
-2.49389e-05
0.000265108
-0.000231955
-3.14693e-05
0.00029706
-0.000281777
-1.52339e-05
1.63717e-05
-0.000237659
0.000221288
-0.00010514
0.000226885
1.93098e-05
-0.00030519
0.000285901
2.52001e-05
-2.79441e-05
2.69165e-05
0.000308952
-0.000289627
0.000238891
1.97345e-05
2.15601e-06
0.000231617
-0.000233773
-0.000310431
2.56436e-05
0.000284749
-0.000162177
-0.000144145
0.000209178
-0.000250156
-0.000167305
0.000241924
1.90317e-05
0.00025558
-4.13534e-05
0.000250531
0.000214498
-0.000255851
0.000318591
-0.00031904
-1.06864e-05
0.000287072
-0.000275832
-0.000303003
1.95437e-05
0.000283465
4.20842e-05
-0.000286413
-3.92096e-05
0.000252483
2.62921e-05
-2.20671e-05
0.000307313
-0.00028522
2.43321e-05
3.92341e-05
0.000158288
-0.000197203
0.000249294
-0.000219751
2.83277e-05
-0.000261633
4.36802e-06
-1.99566e-05
0.000306551
-0.00028658
-0.000250987
-0.000266673
3.07441e-05
0.000252141
-0.000236741
-1.54001e-05
1.2264e-05
0.000239877
-0.000275749
-1.26587e-05
0.000255697
-6.26552e-06
0.000317371
-1.19341e-05
0.000298521
-0.00028616
-4.83131e-05
0.000247437
-0.000235621
0.000257601
-1.99361e-05
0.000133544
8.71485e-05
-0.000221734
0.000224185
3.03493e-05
0.000226759
-0.000258662
3.71393e-05
0.000270819
-0.000288577
1.69604e-05
0.000251273
-0.000239093
-1.31321e-05
0.000252225
-2.91201e-05
-0.000257265
2.56481e-05
0.000231617
-0.000228005
-2.92601e-05
0.000259765
-0.000233571
-2.61941e-05
0.000258721
-0.00026685
2.18438e-06
0.000288782
1.25065e-06
-0.000290592
0.000250606
-0.00023439
-1.85921e-05
0.000308872
-0.000300882
-8.00331e-06
0.000245855
-0.000103
-0.000266897
2.56761e-05
0.000241221
-3.48881e-05
-0.000232009
-0.000266393
2.51161e-05
0.000241277
-1.23568e-05
-0.000267617
0.000279203
-3.45241e-05
-0.000231869
-0.00026169
1.856e-05
-0.000266281
2.43881e-05
0.000241893
-0.000284086
-2.17545e-05
-0.000306314
2.76709e-05
0.000278633
-3.34041e-05
-0.000232877
-0.000171295
-0.000258133
2.94001e-05
0.000228733
0.000310131
-0.000310246
-0.000195805
0.000209049
-3.29281e-05
-0.000225205
0.000197332
-0.000279131
8.15728e-05
0.000283802
2.23774e-05
-0.000301953
1.76961e-05
0.00028592
-0.000280777
-4.87237e-06
-0.000257125
0.000231617
2.55081e-05
0.000167536
2.82615e-05
-0.000195927
-0.000266953
2.81681e-05
0.000238785
-0.000227361
-2.97641e-05
-3.67361e-05
-0.000230217
0.00027403
0.000297269
1.90865e-05
-0.000276243
-3.1512e-05
0.000307894
-0.000258679
-1.07385e-05
0.000298012
-0.00028742
1.49752e-05
-0.000301824
0.000286861
-0.000230609
-0.000307294
0.00028731
0.000263005
-2.55823e-05
-0.00028074
1.36081e-05
0.000166532
0.000232416
1.83695e-05
-0.000250969
-0.000197166
0.00015724
0.000236738
1.31517e-05
-0.00024989
-0.00025833
2.66093e-05
0.000231721
-1.09228e-05
0.000247661
5.74002e-06
0.000246877
-3.19817e-05
-0.000226348
0.000299566
-0.000285794
-1.38312e-05
0.000228024
-0.000226666
0.000289729
0.000237685
1.98521e-05
-0.000257537
-1.24236e-05
0.000250108
0.000246636
1.50389e-05
-0.000305277
1.53997e-05
0.00024448
2.18905e-05
3.30797e-05
-0.000199045
-0.000287437
-1.77292e-05
-0.000182869
0.000295177
-0.000147147
0.000178693
-3.25213e-05
3.09806e-05
-0.000202753
0.000173891
-0.000166131
0.000259149
-0.000239236
-1.99137e-05
0.000261626
-0.000273254
-0.000238241
0.000230185
-2.19023e-05
0.000301161
-0.000279265
0.000307885
-0.000292898
0.000242117
1.77241e-05
-0.000224975
0.00024443
-1.94545e-05
1.61001e-05
-0.000241075
-7.00003e-06
0.000260989
-0.000297274
4.92321e-06
0.000292379
-0.000174497
0.000160217
-1.74105e-05
-6.30173e-06
-0.0002909
-1.67815e-05
-0.000285054
4.28402e-06
-0.000299196
0.000135068
-0.000257442
2.3728e-05
0.000233724
0.000238197
1.32441e-05
-3.08172e-05
-0.000226631
-3.30699e-05
-0.000291445
2.00755e-05
-0.000223714
0.000205384
0.000254969
-0.000233465
-2.15041e-05
-0.000194216
0.000217154
-0.000187654
-7.5102e-06
0.000199919
0.000137825
0.000142281
3.92052e-06
0.000270793
0.000279957
-0.000305535
3.61054e-06
0.000242418
-1.98609e-05
0.000298742
-0.000278888
-0.000302215
0.000287418
1.47607e-05
-0.000258301
0.000230077
2.82241e-05
-2.64041e-05
-0.000231897
0.000300708
-0.000300612
0.000267761
-2.00332e-05
0.000304495
-0.000284585
0.00028679
-2.9784e-07
-0.000256873
0.000256873
-0.000268196
0.000295884
-0.000140755
-6.50355e-05
-7.37295e-06
0.000294133
-0.000286739
-0.000297824
0.000290764
0.00029194
-0.000279678
0.000291573
-0.000307272
1.53918e-05
3.45212e-05
-0.000241198
0.000215933
2.26684e-05
-1.45351e-05
-0.000246164
0.000228493
-1.43694e-05
0.000298578
-0.000284215
0.000263481
-1.96001e-05
0.000254224
-0.000235464
-1.87601e-05
-3.10194e-05
-0.000273731
0.00030478
1.44577e-05
-0.000297372
0.000282792
-1.45881e-05
0.000233465
-0.000218877
0.000207263
-0.000295421
0.000283451
-1.92461e-05
0.000304657
-0.00028548
0.00025102
-2.68903e-05
0.000297299
-0.000270384
-0.000295741
0.000268896
1.07156e-05
0.000244749
-0.000255465
0.000305373
-0.000312221
6.84734e-06
1.76411e-05
1.46906e-05
0.000286533
-0.000301343
6.30331e-06
0.00028238
2.35609e-06
-0.000318454
-0.000288875
0.000305458
-0.000242481
0.000243657
8.45603e-06
-0.0002264
0.000242772
-0.000293515
0.000274229
0.000284848
-0.000156293
-8.43628e-05
0.000294435
1.45231e-05
3.15383e-05
-0.000197898
0.000162442
-0.00027461
0.000257293
-0.000219535
0.00024982
0.000243411
1.92865e-05
-0.000262697
0.000236019
2.31309e-05
-0.000300626
0.000281953
0.000312448
-1.80069e-05
0.000237945
-0.000257069
1.91241e-05
-0.000222494
0.000247459
0.000294311
1.8058e-05
-0.000169709
-1.4676e-05
0.000298222
-0.000283467
-0.000145418
-0.000266415
0.000159993
0.000106423
-0.000309021
0.000295373
1.36778e-05
-0.000258699
0.000241826
1.68729e-05
-0.000151902
0.000158606
-0.000306394
0.000288611
1.78291e-05
-0.000218692
0.000182382
-9.69084e-06
0.000253101
2.0473e-05
1.75565e-05
-0.000304346
0.000286796
-0.000300434
-7.1368e-06
0.000307814
-0.000249229
0.000220109
-0.000201153
-8.52603e-05
-0.000272296
0.000251686
0.000303997
-0.000286437
-0.000192675
1.80115e-05
1.50559e-05
0.00028461
-0.000299641
-8.80603e-05
0.000239233
-0.000303402
1.95047e-05
0.000283872
-0.000205562
-2.66383e-06
-0.000297834
-0.000170705
2.05297e-05
0.000302121
-0.000288056
-1.45845e-05
-0.00017196
-0.000299197
-0.000173627
-2.21952e-05
0.000243528
0.000289459
1.71306e-05
0.000252869
5.77738e-05
-0.000285584
-0.000247213
-0.000271238
-2.33464e-05
-0.000274693
0.000300384
-0.000262461
0.000282271
-0.000167085
-4.1417e-05
0.000208606
0.000197569
1.56521e-05
-0.000213221
-1.25853e-05
-0.000285664
0.000297848
1.83597e-05
1.8629e-05
-0.000305425
0.0002869
0.000253345
-1.71361e-05
-0.000236209
1.89258e-05
-0.000304856
0.000285892
2.03561e-05
0.000232989
0.000216385
-2.46121e-05
-0.000191773
1.58155e-05
0.000282666
-0.000298167
-0.000245624
0.000116254
-0.000303843
1.86372e-05
0.000285179
0.000220859
-5.05715e-05
-0.000295709
1.20716e-05
0.000284627
0.000255837
-2.19801e-05
-0.000233857
-0.000303232
0.000105987
0.000234529
1.70521e-05
-0.000251581
0.000280364
1.6889e-05
0.000304166
-0.000285268
1.80183e-05
-0.00029966
0.000233512
1.84916e-05
-0.000252004
-1.9206e-05
-1.43062e-05
0.000298162
-0.000283808
-0.000280249
0.000299818
-0.000278171
0.000289123
-0.000302979
1.09537e-05
0.000249741
-1.62291e-05
1.15448e-05
0.000250041
-1.55121e-05
0.000298758
-0.000282347
3.95922e-05
-0.000237249
2.21481e-05