/*--------------------------------*- C++ -*----------------------------------*\
  =========                 |
  \\      /  F ield         | OpenFOAM: The Open Source CFD Toolbox
   \\    /   O peration     | Website:  https://openfoam.org
    \\  /    A nd           | Version:  12
     \\/     M anipulation  |
\*---------------------------------------------------------------------------*/
FoamFile
{
    format      ascii;
    class       volScalarField;
    location    "3.5";
    object      T;
}
// * * * * * * * * * * * * * * * * * * * * * * * * * * * * * * * * * * * * * //

dimensions      [0 0 0 1 0 0 0];

internalField   nonuniform List<scalar> 
46253
(
0.959546
1
1
1
1
1
0.938967
1.03816
1
1
0.959911
0.940298
1
1
1
1
1
1
1
1
1
1
1
0.949354
0.941673
1
1
1
1
1.03829
1.03641
1
1
1
1
1
1
1
1.03911
1
0.936833
0.940723
1
1
0.92635
1
1
1
1.00003
1.00013
0.998891
0.997278
1
1.03897
1
0.962775
1.114
1.11262
1.07184
0.93395
1
0.92692
1
1
1
1
1
1
0.963561
0.926705
0.938913
1.12306
1.12559
1.00179
1
0.949167
1.09528
1.09465
1
0.999997
0.999994
1.10736
1
1.10768
0.936428
1
1.07927
1.07894
1.0382
1
1
0.937973
1
1.02901
1
1.05711
1
1
1.07096
1
1
1
1
1.03558
0.999998
0.937466
0.94202
1.06629
1.06587
0.94792
1.03983
1.11153
1.10946
1
1
1.03893
0.926596
0.935617
1.12046
0.966858
1
1
1.1038
1.10217
1
1.12106
1
0.956318
0.997589
1.09044
1.05807
1.05761
1
0.940475
1.08951
1
1.08567
1.08509
0.965698
1
1.0978
1.05305
1.05266
1.03282
1.09819
1.00023
1.08136
1.08076
1.03941
1
0.947979
1
1.08784
1.08715
1.0222
0.926608
0.95535
1
1.07538
1
1.07478
0.942202
0.962125
1
0.938799
1.08332
0.940389
1.08285
1.16982
1
1.07187
1.07128
1
0.938123
1
0.91934
1.04113
1
1.00005
0.926826
1
1.02099
1.06825
1.06764
1
1.07725
1.07668
0.924416
1
1
1
1
0.93018
1
1
1
1.04007
1
1.02714
1.02638
1
1
1.0734
1.07317
1
0.926214
1.01988
1.06285
1.06235
1
1
1.12101
0.938081
1
1.04121
1
1.03201
0.937524
1.05976
1
1
1.05926
0.919374
1.06989
1.06954
0.938742
1
1
1.01985
1.01892
1.05591
1
1
1
1
1
1
1
1.05495
1.06095
1
1
1
1
1
1
1
1.01907
1
1.05464
1.05415
1.05967
1.01295
1
1.01181
1.06444
1.06396
0.969576
0.935231
1
0.941269
0.935056
0.947145
1.03393
0.994621
1
1
1
1.06116
1.04994
1.06087
1
1
1
1.04943
1
1.00009
1
1.04019
0.976125
1.00564
1.00486
1
1
1
0.932637
0.932661
0.967527
1.02922
1
1.06926
1.06834
0.936406
1
1.06663
1.04685
1
1.04648
0.938622
1.04681
1.11721
1.04627
0.957801
1.11473
1
1.05628
1.05579
1
1.03469
1
1
1.02525
1
1.04378
1
1.04333
0.964362
1.06557
1
1.04095
0.954692
1
0.939759
0.941659
1.03682
1.02825
1
1
1.04079
1.04019
0.992783
0.992213
1
1
1
0.920169
0.968786
1.05139
1.05097
1
1
1
1
1.12364
1
1.03769
1.03728
1
0.964536
1
1.03796
1
0.926116
1
0.943015
1
1.04821
1
1.04793
1
0.943398
1
1
1
1
1
1
1
1.03484
1
1
1
1
1.03427
1
1.06376
0.965783
1
1
1
0.938409
0.929741
0.955296
1.04496
1.03932
1.04469
1
1
1.0317
1.12848
1
1.03014
1.03117
0.930367
1
1.03769
1.0148
1.01653
1
1.03481
1
0.977993
0.976953
1.06258
1
0.999771
1
1
1
1
1
1
1.10672
1
1.03235
1
0.931842
1
1
0.970719
1
1
1.02883
1
1.04211
1
1
1.02832
1.04181
1
1.04125
1
1
1
1
1.02074
1.03894
1
1
1.03843
0.955139
1
0.932722
1
1.02234
1.02333
1
1
0.967867
1
0.976472
1.03537
1
0.932863
1
1.08807
1.03786
0.999847
1.03886
1.02427
1
1.02382
1.02456
1.0386
1
1.02406
1
1
1
1
1
0.997603
1
1.0377
0.956922
1.02388
0.972903
1.01802
1.02359
0.995974
0.968676
0.967973
1
1
1
1
0.998191
1
0.977403
0.937989
0.933951
0.977799
1.0235
0.935502
1.02278
1
1
1.03623
1.03086
0.947634
1.03595
1.02122
1.02091
0.964223
0.93528
1
0.964349
1.03466
1
1
1
0.933699
1
1.04009
0.928359
1
1
1.02627
1
1
0.92292
0.914745
1.03387
1
1
1.03415
1
1.03257
1.03552
1.03297
1
1.03886
1.03924
1
1.02377
1.03175
1
1
1.03288
1
0.94248
0.972338
1
1
1.03264
1
1
1
1
0.932169
1
1
1.01649
0.973546
1.01625
0.93496
1
1
1
1
1
1
1
1.02306
0.934769
1
1
1
1
1
1
0.941542
1.03095
1
1.02699
1
1
0.957675
1
1
1
1.02992
1
1
1.02969
1.02607
1.04112
1
1.04214
1.04232
1.04312
1.04499
1
1.01428
1.01406
1.03101
1.04543
1
1
1.002
1
1.11433
1.01443
1
1.11461
0.998873
1
1.03413
1.03586
1
1
1.04094
1.02588
1
1
1.01283
0.999998
1
0.997089
0.998921
1.07465
1.07737
1.06916
1.06939
0.921649
1.02288
1.06663
0.924201
1.06719
1.06437
1
0.941793
0.952024
1.065
1
1.06151
1
1.06214
1
1.02505
1.0585
1
1.05911
1.0928
1
1.05619
1
1.05651
1
0.932684
1
0.974335
0.951325
1
1
1.0538
1.05429
1
1.03106
1.05125
1.05165
1.01122
1
1
1.04718
1.00936
1.04754
1
1.02524
1.04438
0.956997
1.04478
1.00908
1.02486
1
1
1
1.04168
1.04209
1.04304
1
1
1.03882
0.979288
1.03947
0.95489
1
1.03464
1.03527
1
1
1
0.931967
1
1.03175
1.00889
1.03756
1
1.03072
1
1.031
1
1
1.0323
1.03231
1.02784
1.0283
1.02166
1.03436
1.02549
1.03529
1.02589
1
1.01567
1.02162
1.02212
1
0.968137
1.0193
1.01955
1.15667
1
1
1
1.01675
1.02109
1.01684
0.930374
1.04644
1.02371
0.948037
1.01399
1.01419
1.00902
1.01166
1.01217
0.96509
0.963755
1
1.03973
1.11893
1.0071
1
0.952117
1.00669
0.958207
1.04596
0.94263
1
1
1
1.02247
1
1
1
1
1
1.02219
1
1
1
0.971641
0.966283
1
1.01384
0.920754
0.957157
1
1
1
1
1
0.922696
1
1.02195
1
1.03936
0.930324
1.03983
0.95957
1
0.930695
0.937761
1.04342
1
1
1
1
1
1.04046
1.04059
0.92828
0.944425
0.943712
1
0.975268
1
1
1.04094
1.00768
0.99996
1.0395
1.00563
1
1.01578
1.01801
1
1.04159
0.958139
1.02232
1
1.02268
1.00242
1
1
1.02458
1.02582
1
1.00209
0.916935
1
1
1.04991
1.05039
1.02249
1
0.917419
0.917454
0.938536
0.984149
1
1.03083
1.03798
0.958743
1.09095
1
1
1
1.03753
1.03788
1
0.998826
1
1.01777
1.03345
1
0.999802
1.03367
1.01737
1.02294
1.02165
1
1.02115
1.03503
0.951472
1.02121
0.955717
1.02398
1
1
1.0243
1
1
1.02471
1.02229
1
0.999952
0.967599
1.03095
0.967682
0.968924
0.999656
0.963258
0.962827
0.955052
0.954487
1
1
1.0456
1
1
1.02531
0.971502
0.966762
1
1
1.03524
1
1.03188
1.0357
1.0319
1.0852
1.03494
0.99967
1
0.999994
1
1.02382
1.03407
1.04549
0.918279
1
1.01531
1
1.00258
1.00103
1.01512
1
1.00904
1.02582
1.03054
1
1
1
1
1.02781
1.03199
1
1.01011
1
0.962685
1
0.963439
0.95571
0.939791
1
0.996903
0.996554
0.93577
1.10485
1
0.965939
1.04077
1.04088
0.965881
1
1
1.02245
0.926585
1
1
1.03297
0.927972
1.0424
1.02373
1
1
1
1
1
1
1.12909
1
0.95789
0.963886
0.958952
1.04327
0.919571
0.912683
0.918637
0.97138
1.04424
0.955932
0.91654
1.05725
1.05996
1.06302
1.05507
1.05775
1
0.997938
1.06067
1.06596
1.05547
1.02211
1.0636
1.04635
1.05252
1.06607
1
1.06805
1.05296
1.06841
1
1.04843
1.06959
1.0689
1.06882
1.04897
1.05427
1.07263
1.04577
1.04019
1
1.00011
1.0463
1
1.04306
1.00002
1
1
0.99433
1.04355
1
1
1
1.04041
1.04347
1
1
1
1.04083
0.994067
0.918189
1.03633
1
0.992791
1.03667
1.03217
1.03251
0.96405
1.02952
1.02977
1.02679
1
0.94983
1.02691
1
1.02308
0.941085
1
1
1.02316
0.975343
0.942855
1.02042
1.02056
1.01774
1.0106
1.01812
0.914529
1.01535
1
1.00625
1.01021
1.01582
1.01224
1.00759
1.02212
1.01316
1.00519
1.00517
0.942264
1.01314
1.0097
1.01008
0.957528
0.947739
0.91512
1
0.948059
1
0.949915
0.94686
0.940988
1
1.11852
1.04576
1
0.994881
0.992034
1.03038
1.03231
1
1.04047
1.04257
1.04519
1.04594
1.04261
1.04132
1.04298
1.04186
1.04096
0.997299
0.964823
1.03487
1.02424
1
0.993372
0.968905
0.957625
1.00917
1
1.05616
1.04116
0.939694
1
0.990369
0.93422
0.998307
0.990053
1
1.07452
1
0.982586
1.00877
1.04206
1.04031
1.01227
1.01398
0.961447
1.00818
0.999637
1.00797
1.00597
0.938682
0.942175
0.965362
0.955895
0.994191
1.04426
1.00817
1
1.04391
1.06399
0.98363
1.00355
1
1
1
1.02937
1.00392
1
1
0.939538
1.00474
0.955036
1
0.936977
1
1.02882
0.986413
1
1
0.913908
0.956473
1.07256
0.957648
1.03487
1.03504
1.00001
1.0456
1.03213
1
0.989353
1
1.00896
0.987538
0.995053
0.97057
1
1
0.992956
0.991792
1.00409
1.02554
1.03016
1.03041
1
0.987032
1.00427
1.0221
1.02163
0.954839
1.01
1
0.987205
0.974854
1.00695
0.948959
1.00061
1.0416
1
1
1
0.970826
1.02901
1
1.02154
1.0302
1.04601
1.04633
0.96505
1.0215
0.932202
0.941712
1.05443
1
1
0.989571
1.05879
1
1
1
1.02455
1
1.02411
0.929421
1.00012
0.994181
1
1
0.993989
1
1.07802
1.0241
1.0766
1.07904
1
0.935193
1.07749
1.02446
0.993108
1.05291
1
0.936934
1.0712
1.06246
0.990654
1
1.05032
1.07214
1.06701
0.999981
1.03184
0.9159
1
1
0.96614
1.06757
1
1.05771
1.04544
1
1
0.938177
1.0621
0.984851
1.04074
1.06683
1.00387
0.952582
1.03247
1.06162
1.0627
1.04525
0.984502
1
1.03374
1.00341
1.01246
1.0408
1
1.05678
1
1
1
1.05692
1
1
0.978744
0.995972
1
0.980702
1.0576
1.03441
1.02548
1
0.998872
1
1.03315
1
1
1
1
1
0.995452
1
1
1
1
1
1
0.92384
0.919425
1
1.00595
1
1
1
1.03834
0.977144
0.955251
1
0.949416
1.0469
1
1
1
1.0086
1
1.04297
1
1.06549
0.962921
0.960192
1
1.01882
1
1
1.00757
1
1.0716
1.0698
1.03124
1.06473
1
1
1.05761
1.05862
0.965732
1.05586
1
1.05626
1.03908
1
1.05381
1
0.983396
0.983873
0.967064
1.05306
0.963231
0.981745
1
1.05409
0.986022
0.986781
1.03975
1.0413
0.949832
1.04166
1.03994
1.01023
1.041
1.04121
0.981608
1.04949
1.0511
1.03797
1.07955
1.04072
1.04878
1.05148
1.04022
0.981296
1.04183
1
0.990722
1.04138
1.04917
1.07671
0.964942
1.03215
1.04104
1.04466
1.00116
1.04719
0.964611
1.04747
0.976815
1
1.01468
0.955503
1.00086
1.02804
1.04513
1.04198
1.03275
1
1.04633
1.06093
1
1
0.917579
1
1
1.04156
0.97671
1
1.08678
1.07899
1.08332
1
0.961527
1.0053
1.04141
1.04122
0.937458
1.07933
1.03146
1.01304
1.05387
0.981125
1.05821
1.07674
1.04793
1.07787
1.07157
1
0.979784
1
0.995514
1
0.917153
1.04256
1.07223
1.04236
1.03845
1.04285
1.03179
1.06165
1.03955
1.04212
0.969116
1.05528
1
1.06676
1.06746
1
1.01122
1
1
1
1
1
0.977161
1
0.979457
0.915805
0.961349
1.05956
0.934467
0.960968
1.06252
0.954345
1
0.929863
0.979039
0.983759
1
1.03504
1.01233
1
1
1.06906
0.917707
0.972541
0.970812
1.04254
1
1
0.912442
1.00505
1.02414
1.05194
0.914263
1
1
1
1.07936
1
1.05843
1.0589
1.02516
0.919371
1.05185
1.05486
1
1.04016
1.05559
1.0765
1.01481
1
1.06771
1
1
1.01804
1.05258
1.04339
1.06322
0.916174
1.06825
1.07112
1.05112
1
1
1.03773
1.00232
1
0.998318
1
0.955888
0.999997
1
1.04391
0.946029
1
1.04753
0.927375
1.04797
1
1
0.997926
1.05516
0.946445
0.962433
0.931423
0.98682
0.98078
0.983556
0.917242
1.03402
0.994343
0.991683
1
1.0445
0.922509
0.94428
0.986291
1.04857
1.04721
0.97585
1
1
0.991503
0.990334
0.939861
1
1.03668
0.949814
1.03968
1.03705
1.04044
0.984513
1.03634
1.05293
0.933956
1.05323
0.915365
0.982208
1.03732
0.98423
1.0394
0.915244
0.976178
1.03968
1
0.979761
1.04393
0.956563
1.07217
0.966899
1.0291
1.04211
1.07226
0.943265
1.03261
0.989951
1
1.04164
1.03306
1.05373
1.06021
1
0.993683
1
1.04147
0.976948
1.00649
0.948074
0.945986
1
0.945573
0.959721
1.02985
1
0.936761
1.027
1.00865
1.04746
1.02842
0.945867
0.972467
0.986513
1.0127
1.04434
0.947247
1.02189
1.02486
1
1.0256
1
1.02333
1.06844
1.02238
0.958684
1.06212
1.00755
1
0.949379
1.07459
1.00968
1
0.946749
1.07534
1.04743
1.12654
1.04085
1
1.01411
1.07229
1.01697
1
1.07003
1.01732
1
1.04679
1.07056
1.04589
1.08638
1.06504
1.01516
0.980619
1
1
1.0657
0.955709
1
0.956356
1.0271
1.04744
1.04949
0.956803
1.03568
0.980635
1
0.96112
1.08215
1
1
1.05376
1.08109
0.956021
0.975099
1.01055
0.943518
0.942307
1.01108
0.979952
1.01085
1.0071
1.0042
1.06227
1.01144
1.00765
1.03403
0.975045
1.0091
1.01078
1.0438
1.04054
0.954996
1
1.01009
1.08305
1.00459
1.05714
1.08185
0.960686
1
1.00523
0.996401
1.04458
0.96768
1
1
1.01179
1.0114
0.984017
1.02976
1
1
1.03069
0.975788
0.995606
1
1
0.918244
0.999498
1.0006
1.0705
1.02644
0.962329
0.986766
0.996881
1
0.961998
0.995243
0.975604
0.958531
1.01124
1.0406
1.10172
1.04988
1.02482
1.05346
0.988046
1.05323
1.05071
0.942121
1.03604
1.04554
1
0.944542
1
1
0.986816
0.984248
0.990819
0.985166
1.07054
1.01647
1
1
0.989817
1.04292
0.970346
0.977743
0.989258
0.969773
1.04098
1.01163
1.04317
0.971812
0.957284
0.988169
1.08318
0.960346
1
1.00691
1.03833
0.971237
1.08336
0.99334
1.02365
1
1
1.02336
0.99872
1.0721
1
1
0.998035
1
1.03515
0.975356
0.972783
0.969508
0.989093
1.03577
0.976863
1
0.972043
0.971151
1
0.955293
0.938565
0.977468
1.02282
1.02592
1
1
1.04174
0.981592
1.0403
0.972781
0.973872
1.08174
0.97042
0.999711
1
1.02785
1
1
0.944801
1.02272
1.03322
1.02827
1
0.939155
0.946485
0.975811
1.05449
0.973321
1.06083
0.983607
1.06128
1
1
0.966387
0.980759
1.03383
0.974126
1
1
0.94196
0.972506
0.960707
0.973807
1.02027
1.00475
0.9911
1
1.0499
1
1.021
1
1.0563
0.999923
0.940184
1
1.03489
1
1
1
1
1
1
1.0624
1.05478
1
1.05649
1.05207
1
1.03428
1.07808
1
1.00863
1.00656
1.04601
1
1
0.971926
0.959468
0.977515
1.03644
1.05237
1.05041
1.00764
1.03736
0.987755
1
1
1
1
1.00857
1.01233
1.048
1.03154
1.00952
0.976044
1.01285
0.971429
0.980352
1.00263
1.08081
0.944403
1.04648
1.02384
1.04819
1.02482
1
0.999321
0.94298
1.0386
1
1
1.04295
0.942318
0.981478
1.00362
0.941895
1.07877
1
0.969857
1
1.01344
0.941475
0.942166
1.04123
0.965583
0.980682
1.02209
1.08408
1.03042
1.05524
1.01648
1
1.04026
1.03226
0.967731
1.07323
1.06904
1.01232
1
1
1.03859
1.07901
1.04347
1.06356
1.08304
1.008
0.953411
1.00871
1
1.04252
1.01462
1
1.07862
0.99419
0.953621
1.07368
1.04081
1.00994
1.01689
1.06861
1.01624
0.991329
1
0.995735
0.994085
1.06913
1.01701
1
0.995734
1.02059
1.03357
1.04176
1.06414
1.03474
0.989811
1
0.957416
1
0.989876
0.944359
1
1
1.08137
0.941384
1.05193
0.944895
1
1
1.05346
1.01064
1.04087
0.944217
1
0.971455
1
0.986564
1.07533
0.938962
1.03882
0.941854
1.00061
1
1.05672
1.04592
1.00885
0.996763
0.985654
1.0085
1.01942
0.999205
1
1.05982
1.00606
1.07362
1
1.0575
1.05395
1
1.04054
0.977018
1.00441
0.936094
1.06053
0.916439
1.01092
1.01097
1.0456
1
1.04858
1.00949
0.93487
1.11116
0.934658
1
1
1
1.00241
0.935515
1.04898
0.959589
1.04656
1.03755
0.997999
1
1.08483
1.04682
1.0382
0.977331
0.998809
1.02594
0.999991
1.03155
0.954242
1.02212
1.04153
1.07812
1.02485
1.04069
1.01286
1.04217
1.03877
1.00813
1.05769
0.958853
0.935662
1.01839
1.0592
1.031
0.977341
1
1
1.00934
1
1
1.00262
0.96338
1.03053
1.03382
1.05161
1.01779
1.07539
1
1.01207
1.04119
0.979591
0.973027
0.981041
1.03436
0.94561
0.931928
1.03172
0.96415
1.05202
0.959483
0.983407
1.04035
0.979149
1.02318
1.05249
1.0352
1.07649
0.936691
1.02653
1
1
1.02171
1
1.02722
1
1.03371
1.02707
1.02385
1.02644
1.02106
1.07727
0.980929
1
1.0552
0.9806
0.986572
1.04144
1.05605
1.05759
1.03013
1.01611
1
1.0295
1.01821
1.00746
1.01581
1.03725
0.969611
0.95668
1.09659
0.965119
1.04744
1.03683
1.01895
1.04388
0.98942
1.0164
1.00418
1
1.09959
1.03955
0.991288
0.986223
1.01445
1.00667
1.0114
0.96938
0.978689
1.02367
1.01722
0.984197
1
1.03824
1.02795
0.988608
1.03288
0.99179
1.09311
1
1.01126
1.0087
1
1
1
1
1.09279
1.05826
1.00609
1.05939
0.985464
1
1.01149
0.991208
1.03599
1.00501
1.00966
1.02426
1.02239
1.03198
0.981898
1
1
0.997687
1.04561
1
1
0.989479
1.03914
1.00644
1.08779
1.01868
1.03605
1
1.03252
1.0374
1.03203
1.04099
1.04358
1.01878
1
1.00348
0.978502
1
1.08893
0.996493
1.04175
1.01425
1.04242
1.00383
0.976529
0.936607
1.06309
0.936948
1.04718
1.04457
1
1.03251
1.03579
1.04623
1.02431
1
1
1.03317
0.998291
0.978816
0.939122
1.0392
1
1.08144
0.990037
1.05183
0.98022
0.997689
1.0496
1.05074
1.03805
0.940339
1.0824
1.04813
0.97938
0.995407
0.990176
0.97988
1.06582
0.992792
0.942976
0.990436
1
1.0014
1.03998
1.0144
1.00453
0.984418
1.05408
1.08245
0.97861
1.01525
1.01093
1.01551
0.967467
1.04584
0.983201
1.05322
0.984764
0.978638
1.00724
0.975816
1.00519
1.03613
1.03695
1.03889
1.05266
0.980121
1.03663
0.976022
0.961457
0.987346
1.03614
0.987469
1.06924
1
1.01603
1
0.981678
1.0701
1
1
0.978901
1.05756
1
0.988923
1.01043
1.08372
1.02397
1.00001
0.939517
1
0.978349
0.988372
1.06418
0.985145
1.01294
1.06489
1.01297
1.00919
1.03894
1
0.938641
1
1.06093
1.00661
1.05934
1.00677
0.971484
1.05403
1.06164
1.0542
1
0.970893
0.93559
1.05742
1.05318
1.05837
1.03278
1.00517
1.05832
1.00939
1.03759
1.05335
0.977233
1
0.988675
1.08298
0.979091
0.93905
1.00003
1.05407
0.958358
0.978421
0.949281
0.993676
1.0548
1.00731
1.02871
1
1.0092
1.00943
1.05105
1.05834
1
1.05127
1.01221
1.03661
1.05728
1
1.05139
1.05186
1.04202
0.989869
1.0601
1
1
1.05917
1.04764
1.06222
0.943977
1.0611
1.04835
1
1.00815
1.01834
0.943447
1.04465
0.989476
0.950291
0.949792
1.06587
1.04543
1.0562
1.01093
1
1
1
0.989389
1.04153
1
1.00053
0.939496
1.06297
1.0276
1.00961
1.03842
0.982666
1.04213
1.01256
0.999898
1.0456
0.936888
1.00512
1.03618
1
0.934736
1.03908
0.983096
0.936586
1.04007
1.03891
1.06382
1.00357
1.06792
1.06686
1
0.981636
0.945824
1.03847
1
1
1.00773
1
1.06575
0.958147
1.03915
1.0381
1
1.04438
1.04142
1.00687
1.08583
1.0121
0.935379
1.03531
1.01266
0.988456
1.06458
1
0.987441
0.990007
1.01118
1.08668
1.03578
1
0.980903
0.96451
1.00789
1.06893
1.03219
1.01094
1.07004
1.00928
1
1.01326
1.01524
0.960075
1.1329
1.05715
1.08145
1.03284
1.01111
0.948571
1.05413
1
1
1.01187
1.01445
1.03355
1.04444
0.986549
1.01897
1.00918
1.07857
0.987413
1
0.916118
1
0.936992
1.01809
1.02938
1.02993
0.995316
1
1
1.07121
1.07586
1
1
1.02221
0.994799
1.03373
1.07319
1.02139
1.01839
1.02584
1.02563
1.03917
0.988851
1
1.0192
1.02658
0.986253
0.989661
0.957437
1.02494
1.03811
1
1.03778
1
1
1.08564
0.989228
1.00169
1.06741
1.02184
1.083
0.989587
1
1
1.02254
1.08677
0.987758
0.94266
1.02968
1
1.06819
1.02194
1.02866
1
1
1
1
1.03252
1
0.989113
1.0182
1.00169
1.03843
1.01939
0.999999
1.03201
1
1
1
1.03584
1.01549
1.016
1
1.03241
1.03465
0.965583
1
1
0.959935
0.988623
1
0.970356
1.03865
1
1
1
1
1
1.01099
1
0.992612
1.03777
1
1.04761
1.03791
1
1.01182
0.930967
1
0.968293
1.03668
1
1
1.0472
1.05238
1
1
1
0.960491
0.960615
0.991227
1.04329
0.944127
1.05077
1
1
0.966734
1.04707
1.00007
0.961151
1.04238
1
0.995368
1
1.05194
1.04433
0.994201
1
0.957098
1
1
0.965174
0.931482
1.04646
0.999699
1
1.05115
1
0.990451
0.971283
1.04789
0.937811
1.00003
0.943537
1
0.956351
0.977858
0.990602
0.988273
1.05315
1.03772
1.04696
0.998497
1.0036
0.964823
1.03253
1.00512
0.997724
1
1
0.963707
0.960282
1.03603
0.945615
1.05257
1.05148
1.05342
1
1.05173
1.08558
0.9756
1.0558
1.10204
0.999937
1.00186
0.978597
0.968896
1.05339
1.05078
0.96875
1.05488
1.00088
1.03693
1.03607
0.95927
1.01058
1.09369
0.97491
0.960892
1
1.02813
1
1
0.95729
1.06079
1.09017
1.01131
1
1
1.01121
1.00466
1
1.09042
1
1.06073
1.02874
1
0.908301
1
1.06017
1
1.00406
0.957074
1
1.09417
0.936746
1.05983
1
0.933584
1
0.937489
1.00564
1.00022
1.06401
1.00416
0.951361
1.06375
1.021
0.969708
1.06044
1.08357
1.09165
1.01029
1.06272
1.06244
0.953717
1.02111
1.03933
0.971338
1
1.04964
1
1.08153
0.990234
1.06775
1.06649
0.950849
0.995549
1.00646
1
1.01586
1.03625
0.992986
1.00099
0.982771
1.08467
1.01152
1.00249
1
1.0142
1.06593
1
1
1
1.06674
1.003
1.02838
1.01483
1.00467
1
1.0708
1.08032
1.05491
1.041
1.00928
1
1.08309
0.95263
1.06979
1.07111
1.00997
1.05359
0.999916
1
0.979712
1.04583
0.988014
1.07737
1.0658
0.991028
0.991911
0.990664
1.09976
1.07189
0.992322
0.957365
1
1.01708
1.0353
1.04377
1
1.07751
1
1.06057
1.03634
0.978459
1.06531
1.06255
1.03246
0.984953
1.04139
1.02312
1.05492
1
1.03463
0.985917
0.96847
1.02526
1.07559
1
1.06649
1.03463
1.05928
0.986186
0.988888
1
1.0696
1.02246
1.09079
1
1.0519
0.969518
1.04973
1.06109
0.983558
1.06325
1.05567
1.01428
1.05571
1.06608
1.00398
1.03757
1.04639
1
1.01126
1.02563
1.06003
1.05258
1.04884
0.960975
1.07454
1.04002
1.07029
1.01121
1.01693
1.03994
1
1.03701
1.05645
1.02479
1.04936
1
1.03941
0.989948
1
1.09267
1.05322
1.04631
1.02791
1
1.07539
0.991267
1
1.05034
1.04225
1.043
1
1
1.02719
1.04688
1
1.04157
1
1.04
1.03928
0.968858
1
1.04374
1
1.0366
0.956542
1.00003
1.01923
1.0439
1.04067
1.03424
1
1
1
1.03161
1.04336
0.98955
1.03742
1.04267
1.03069
1.04301
0.957459
1.00435
1.05035
1
1
1.00545
1.01183
1.00483
1
1.03077
1.05114
1
1.03466
1.01138
0.972864
1.0121
1.04625
1.01681
1.02724
1.04243
1.03643
0.988294
1.03162
1.04704
1.04541
0.965854
1.00822
1.03339
1
1.09175
1.04566
0.990227
1.02355
1.06854
0.935893
1.03813
0.989514
0.980179
1
1.02764
1.04512
1.05046
1.03276
1.04599
1
0.935611
1.02036
1.02677
1.04801
1.02468
1
1
1.04455
1.01661
1.04954
1
0.947113
1
1
0.936657
1.0474
1
1.02069
1.06236
1.03019
1
0.983803
1.0286
1.0474
1.01267
1
1.01705
0.93504
0.988709
0.936303
1.05872
0.988922
1.03688
1
1.05031
1.05601
0.9424
1
1
1.00807
0.94285
1.0133
1.06019
1.03634
1.04674
1.04965
1
1.04084
1.05529
1
0.937028
1.00858
1.00424
0.973164
0.934296
1
0.987357
1
1.04955
1.04299
1
1
1.00965
1.02508
1.03068
1.01872
0.939278
1
1
0.981192
0.936976
1.04062
1.02305
1.07987
0.966196
1.04886
0.937851
1.05308
1
1.04003
1
1.0525
1
1
0.934682
1
1.05182
1.00445
1
0.911161
1.04352
1.00665
0.958945
1.05076
1.04336
1
0.958161
1.04739
1
1.05111
1
1.00386
1.01776
1.04263
0.986252
1.03875
1
0.958388
1.00839
1.11043
1.05836
0.94521
1
0.984776
0.944845
1.05579
0.985391
1
1
0.990367
1.02135
1
0.921426
1.04479
1.04581
1.02211
1.05416
0.939256
1.05544
1.00013
1.00724
1.01963
0.999782
0.999862
0.985704
1.04507
1.0182
0.980439
0.986035
1.01915
1
1.05354
1.00625
1
1
0.971888
1
1.05797
1.02249
1.04007
1
1.0483
1.05731
1.02346
0.980391
0.956069
1
1.0564
1.02186
1.08162
0.932578
1.04757
1.02388
1.02731
0.975138
1.02574
0.954988
0.938205
0.938687
0.985586
0.939853
1.05581
1.05275
1
1.00076
1
0.963121
0.964335
1.07089
1.06746
1
1.04099
0.946444
0.988638
0.940067
1.05053
1.03259
0.939771
1
1.04176
0.990656
1.06116
1.03974
1.04852
1.05211
1
1
1
1.03601
1.0248
1.04982
0.963276
1.04031
0.957725
1.06498
1.00383
1.06825
1.02476
1.07179
1.04774
1.03657
0.986515
1
1
0.936328
1
1.03269
1.00457
0.967233
1.02272
1.01447
0.995552
1.03412
1
1.03942
1
1
0.978803
1.05272
1.01665
1.06209
0.980769
1.03598
0.988526
1.08991
0.982759
0.967193
0.920026
1
0.988815
1.05206
1.01193
1.01448
1.02828
1.01236
0.937401
1.01381
1
1.03606
1.027
0.97091
1
1.02774
0.980394
1.0028
0.988638
1
0.922863
0.936613
1.01966
1.00002
0.989803
1
1
1.0128
1
1
1.02647
1.0427
0.962805
0.980773
0.970382
1.02681
1.01993
1.055
1
1
0.960802
0.976349
1.01488
1.00654
1.03074
1
1.02367
0.939565
1.01305
0.985868
0.974583
0.937523
1
1.04091
1.02688
1.02342
1.05427
0.999521
1
1
1.08178
1.02109
1.05628
1.02153
1.03131
1.02883
1.00598
0.998435
1
1.02015
1.01519
1.05585
1
1.01258
0.981378
0.954199
1
0.998908
1.03148
0.943496
0.98511
0.956422
1.03007
1.05125
1
1.04141
1.02199
1.03656
1.03873
1.00861
0.944315
0.936473
1.01947
1.02838
1.03732
0.975598
1.02674
1
1.03431
1
0.95714
1
1.06848
1.03216
0.938193
1
1.0096
1.05706
0.984175
1
1.05048
0.982488
1
0.98427
0.974941
1.02613
0.982887
1.03308
0.990622
0.953241
1.05634
1.02119
1.02463
0.953867
0.976118
1
1.03199
0.990738
0.993937
0.988224
0.99013
1
0.938313
1.03485
1.00228
1
0.998952
0.977395
1
1.03684
1.01169
1.03486
1.02926
0.975458
0.980306
0.983113
0.987511
1.02836
0.999744
0.985318
1.04034
1.0395
0.997396
0.964218
1
0.976692
1.04139
1
1.02244
1
0.97292
1.00331
1
1.03401
1.02751
1
1.04293
1
0.993122
0.999019
1.03931
1.03797
1
0.937071
1
1.04486
1.09631
1.01588
1
1.02285
1.05576
1.02874
1.03589
1.0023
0.962553
0.989894
1.00239
1
1.07353
0.980451
1
0.97554
1.03826
0.961252
1.016
1.06668
0.937813
1.06114
0.977001
1
1.03665
1.05722
1.04395
1.0248
0.996186
1
1.04966
0.999998
0.979947
1
1.06042
1.0295
0.972993
1.00006
1.03099
1.03738
1.05642
1
1.05045
1.09441
1.05798
1.0188
0.957624
1.04866
0.983931
1.02445
1.06857
1
1
0.982961
1.00022
1.04697
1.01067
1.05473
0.983983
0.974847
1.05104
0.960883
1
0.979886
0.996214
1.05745
1
0.983881
0.95747
0.93607
1.02496
1.05727
1
1
0.988863
0.94451
1.04738
0.928545
1.0417
1.00847
1.04886
0.936827
1.07783
1.00785
1.05972
1.06874
0.937124
1.00776
1
0.978171
1.08913
1.05642
1
0.976461
0.998923
0.922903
1.0487
1.03721
1.04159
1.01834
1.00914
0.964583
1.02208
1.06454
0.991348
1.06962
1.06475
1.01153
1.03422
1.06218
1.03662
1
0.980636
1.05948
1.05461
1
0.981209
1.0263
1.02071
1.06441
1.01995
1.04211
0.937873
1.02584
1.01895
1
1.02621
1.03876
1
1.04416
1.02035
0.977074
0.989926
1.0212
1
0.990811
0.974903
1.02894
1.02564
1.00325
1.03521
1.04618
1.0224
1.02264
1
1.07428
0.974618
0.991687
1.03604
1.00456
1.02984
1.04838
1.08676
1
1.03404
1.05166
1.06802
1
1.06398
1.03406
0.988533
1.06138
1
1.05817
1.03587
1.02206
1
1.04782
1.00427
1.07125
1.03795
1.02063
1.042
0.938647
1.03354
1.05064
1
1
1.06309
1.05572
1.04144
0.97807
1.03749
0.974022
0.961676
1.00855
1.00217
1.00446
0.968585
0.987474
1.02963
1.0379
1.04343
0.973619
0.970703
0.989154
1.04555
1.00355
1.01266
1.07054
1.04546
1
1.00373
1.01983
1.01953
1.02923
1.05308
0.978807
1.05238
1.00365
1.0719
1.04778
1.02853
1.04881
1
1.04613
1.01667
0.980332
0.932616
1.00414
1
0.960662
0.932642
1.03942
0.930441
0.955379
1.01672
1.06485
1.0341
1.05002
0.972561
1.08571
1.01661
0.967111
1.03736
0.948708
1
1.05577
1.05529
1.03965
1.08799
1.01431
1
1
0.971373
1.02138
0.94267
1
0.971737
0.942743
1.03809
1.03728
1.0038
0.981369
1.03588
1.05244
1.03918
1.04238
1
0.980218
1.01501
1.0361
1.07735
1
1
1.00887
1.02762
1
1.06546
1.04032
0.999966
1.01744
1.06536
1
1
0.998086
0.966665
0.970452
0.951313
0.99482
0.969987
1.0196
1.0547
1
1.03756
1.0464
1
0.943227
0.995079
1.04338
1.01198
1
0.959291
0.944038
0.994244
1.01369
0.918979
1.03958
0.997838
1.00783
1.02423
1.01821
0.967939
0.967441
1.03131
1
1.00879
1.03163
1.03498
1.05694
0.965774
0.969749
0.966004
1.00139
1
1.02245
1
1.04418
1.05456
0.9209
0.96815
0.967405
0.970722
1
0.994588
1
0.939363
0.958854
1.00161
0.963258
1.01814
0.965129
1.06608
1.01715
1.09468
1
1.01463
0.962075
0.972774
0.961714
1.06509
1.06294
1
1.03458
0.963015
1.07561
1
0.974859
1
1.05826
0.994276
1.01661
1.00823
1
0.92247
0.989145
0.962247
1.03373
1
1
0.999495
1.01237
1.02978
1.00884
1.00726
1.05845
1.05328
1.06428
1.00366
1.02447
0.930806
0.972086
1.05316
1.05754
0.999814
1
0.971811
0.973639
1.00545
1.06117
0.962113
1
1.00928
1
1.00709
1.00516
1.01169
0.984984
0.962874
0.921278
1.05129
1
1
0.942315
1
0.961849
1.01255
1.02173
1
1.01163
1.01322
1
1
0.964733
1.04269
0.962656
1.05148
1.03131
0.920534
0.97694
1.04158
0.962217
1.00902
1.01727
1.08569
1
1.02413
1.04642
1.01012
1
1.09647
0.947278
1.05079
1.02677
1
1.01122
1.05449
0.997873
1.07178
1.02997
1
0.995659
1
1
1.03161
1.01612
0.975051
1.04673
0.999999
1.01511
0.981411
1
0.968294
1.04013
1
1
1.06231
0.992016
0.922118
1.07245
1
1.03247
0.994294
1.05043
1
1.06313
1.00378
1.05415
1.02137
0.995526
1
1.01303
0.951744
1.03963
1.01474
1
1.03599
1.06177
0.976843
1.02342
1.03433
1.0486
0.992588
0.985169
1.00794
0.955907
1.08289
1.02017
1
1
1.07263
1.08873
1.02612
1
1.01187
1.00803
1.0541
1.00906
1
1.05358
0.968671
1
1.00984
0.985138
1.03657
1
1.03963
1.02924
1
0.942741
1
1.03256
0.981118
1
1.01957
0.990392
1.03201
1.00239
1
1.0372
0.937952
1.01999
0.988232
0.966997
1.00887
1
1.01706
1.04005
1.03816
1.06778
1
0.940655
1
1.02249
1.0419
1.09809
1
0.960567
1
1.03538
1
0.996948
1.03177
1.00913
0.937469
1
1.04742
0.933005
0.989497
1.06593
1.04468
1.06164
1.00006
1.02166
0.97927
1
1
1.00706
1.03887
1.02401
1.01747
1
1.08386
1.03971
1.00583
0.978374
1.01092
1.06481
1
1.02722
1
0.989592
1.06542
1.05928
1.0582
1.07546
0.970886
1.04707
1.09556
1.04106
1.08495
1.05974
1.04853
1.04426
0.995538
0.989605
1.00463
0.959383
1.04885
0.9897
0.999999
1.02621
1.00508
1
1.03487
1.05852
1.04402
1.04944
1.07113
1.02924
1.00601
0.981281
1.00153
1.05731
0.985514
0.995716
0.915388
1.0795
1.06011
1.0663
0.987525
1
0.954884
1.00111
0.921437
1.03495
1.0184
1.00911
1.04631
1.05489
1.00172
0.955641
1.03288
1
1.02855
1.0805
0.998604
1.05168
1
1
1.04218
0.95059
1.05537
1.0624
0.999506
0.950541
1.0333
1.02239
1.061
1.00733
1.04467
1.04515
1.02962
1.04876
0.958872
1.02657
1
0.95913
0.976099
0.978441
0.949513
1.03753
1.02173
0.995352
1.04372
1
0.991994
1.0538
1.01506
1.03228
1.00317
1.0478
0.977609
0.952878
0.954623
1.05737
1.03081
1.00414
1.03534
1.01966
1.05098
1.09713
1.03158
1
1.01028
1.04595
0.935692
1.05282
1.03707
1.00797
0.936539
1.00476
1.02845
0.973756
0.978747
1.01923
0.965795
1.02288
0.934951
1.05396
0.935494
1.05118
1
1.09813
1
1.02603
1
1
1
0.999999
1.07283
1.03468
1.05603
1.03088
1.05493
1.0063
1.02111
1.01992
1
1
1.0367
1.03295
1.05314
1
0.98734
1.01709
1.03274
1.03893
1
0.936604
1
0.959075
0.937099
1.05432
0.983448
1
1.037
0.977428
1.05068
0.949123
1
1.05629
1.05006
0.968266
1.005
1.03797
0.940426
1.05082
0.95652
0.999359
1.05536
0.952091
0.953109
0.976829
0.955947
1.05216
1
1.0418
0.959734
1.01927
1.05972
1
1.04033
1.04071
1.01533
1.04928
0.952298
0.959168
1
1.07176
0.95415
0.951079
0.998675
1.04839
1.04549
1.04773
1
1.05115
1
1.0459
1
1.04113
1.01369
0.940374
0.974374
1
1
1
1.0471
1.09365
1.04353
1
1
1.0431
1.01549
1
1.08871
0.957522
1.01336
1.00211
0.979818
0.982696
1.01585
1.01347
1.04459
1.04842
1
1.08824
0.976477
1.03495
1
0.979319
1
0.95661
1.04955
0.955597
0.993398
1.05131
1.00769
1.0495
1
1.00088
0.978727
1.05896
1.01161
1
0.986293
1.04599
1
1.06577
0.991315
0.969057
1.05027
1.0739
0.978945
0.958397
1.06967
0.982294
1
1.04375
1
1.00116
1.03558
1
1
1
1.03525
0.982353
0.965247
1.06642
1.06386
1.04784
0.989225
0.999749
0.96472
1.05497
1
0.988073
0.964026
1.0531
0.961171
1.0289
0.996323
1.04718
1.04625
0.97533
1.00227
0.96706
1.00735
1.00447
1
1.02069
1.03397
0.964082
0.975696
1.05195
0.973771
1
1
1.05196
1.02651
0.978198
0.953119
1.02936
1.04993
1
1.03572
1.03874
0.987387
0.99525
1.01095
1.05405
1
0.982093
1.04951
1.00462
0.95484
0.973184
1.05259
1.04686
1.07804
0.999999
1
1.04789
1
1
1.03629
1
1.04739
1.04261
1.00055
1
0.986753
1
0.977908
0.9688
1
1.00051
0.986042
0.995234
1.09424
0.993475
1.04352
1.01217
1.05546
1.00858
1.05095
1.04536
1
1.05964
0.974992
1.0886
1.03083
1
1.06141
1.06284
0.988599
1.01113
1.03273
1.00197
0.940929
0.965999
0.995958
0.979141
1.04492
1
1.00063
1
0.993276
0.965354
1
1
1
0.959175
1
0.987209
0.956415
1.00306
0.935885
1.06833
0.989289
1.01948
0.999998
1.04409
1.05033
0.968675
1
1.05784
1.05007
1
1
1
1.00838
1.08951
1.03975
1
1
0.989738
1
0.961132
1.00005
1.06023
0.999745
1.01886
0.96168
1.07055
1.05399
1.0581
1
1
1.01245
1.05678
0.948841
1
1.07803
1.07347
1.05762
0.950775
1.06029
1.01253
1.02962
1
1.04218
0.999199
1.03312
1.00548
0.975376
1.05476
1.03665
1
1
1.05579
0.940738
1.0132
1
1.01419
1.03279
1.07979
1
1.08785
1.02793
1
0.999998
1.0311
1.05287
0.994371
1.06421
1
1.07191
1.05171
1.05332
1.00324
1.07548
0.958128
1.02954
1
1.0671
0.95924
1.07745
0.969177
0.994541
0.997641
0.951676
0.996024
1.00154
1.03312
1.02601
1.05838
1.02206
0.941997
0.995435
0.958886
1.03368
1
1.07484
1.05039
1.049
1
1
0.960295
1.07845
1.07149
0.952065
1.02627
0.953352
1
1
1.03346
0.98769
0.95906
1.04311
1.06398
0.999779
1.00176
1.08522