/*--------------------------------*- C++ -*----------------------------------*\
  =========                 |
  \\      /  F ield         | OpenFOAM: The Open Source CFD Toolbox
   \\    /   O peration     | Website:  https://openfoam.org
    \\  /    A nd           | Version:  12
     \\/     M anipulation  |
\*---------------------------------------------------------------------------*/
FoamFile
{
    format      ascii;
    class       volScalarField;
    location    "2.5";
    object      p;
}
// * * * * * * * * * * * * * * * * * * * * * * * * * * * * * * * * * * * * * //

dimensions      [1 -1 -2 0 0 0 0];

internalField   nonuniform List<scalar> 
9801
(
0.749588
0.755005
0.760215
0.76319
0.764769
0.765496
0.765076
0.765385
0.766635
0.768421
0.7733
0.781187
0.78624
0.788222
0.789275
0.788829
0.788708
0.789588
0.790973
0.79345
0.800031
0.807323
0.810504
0.81167
0.81094
0.810213
0.810427
0.811303
0.813024
0.816714
0.825117
0.830732
0.832519
0.832986
0.832718
0.832852
0.834098
0.836088
0.838742
0.846622
0.855497
0.859431
0.860897
0.861238
0.860868
0.861868
0.863769
0.866135
0.87134
0.881585
0.888448
0.891181
0.891701
0.891957
0.89261
0.89306
0.895998
0.899721
0.908946
0.920157
0.925707
0.927004
0.926307
0.926382
0.92741
0.929295
0.932692
0.939297
0.954493
0.964659
0.968261
0.968116
0.96498
0.965322
0.967741
0.971562
0.977963
0.993134
1.00969
1.01825
1.02237
1.01902
1.01284
1.01343
1.01891
1.02795
1.04665
1.0746
1.09159
1.10265
1.10885
1.10323
1.09732
1.10986
1.13625
1.19374
1.26134
1.78786
4.40282
0.754471
0.761517
0.765978
0.768526
0.770128
0.770087
0.768768
0.769509
0.771309
0.773732
0.779521
0.786275
0.790475
0.792923
0.794382
0.792817
0.792032
0.793347
0.795192
0.798279
0.804881
0.81079
0.814198
0.816164
0.815704
0.813222
0.813404
0.814979
0.817232
0.821593
0.828916
0.834161
0.837015
0.838545
0.836631
0.835776
0.837609
0.840206
0.843492
0.851065
0.858501
0.862932
0.865671
0.865738
0.863145
0.864265
0.867014
0.870097
0.875844
0.885001
0.891451
0.895187
0.896777
0.894566
0.893909
0.895364
0.899236
0.903353
0.911903
0.92223
0.928793
0.931745
0.930698
0.927349
0.928466
0.931593
0.935476
0.941635
0.955823
0.966475
0.971452
0.97377
0.968104
0.965412
0.968581
0.973173
0.979216
0.994376
1.01191
1.02055
1.02607
1.02506
1.01501
1.01472
1.02094
1.02949
1.04785
1.0714
1.08735
1.09963
1.11096
1.10944
1.10023
1.10484
1.12584
1.16385
1.21085
1.713
4.39789
0.755908
0.763474
0.768141
0.770536
0.772169
0.772264
0.770975
0.771659
0.773484
0.776184
0.782157
0.788706
0.792461
0.794812
0.796327
0.795064
0.794197
0.795368
0.797275
0.800468
0.807036
0.812791
0.816132
0.818287
0.818488
0.816315
0.816205
0.817697
0.819971
0.824253
0.831441
0.836418
0.839366
0.841184
0.839917
0.838817
0.840249
0.842639
0.845923
0.853164
0.860286
0.864631
0.867658
0.868317
0.86604
0.866936
0.869453
0.872543
0.877897
0.88688
0.893338
0.897218
0.899254
0.897557
0.896463
0.897806
0.901635
0.905839
0.913931
0.92409
0.930716
0.93408
0.933917
0.93014
0.930218
0.933296
0.9377
0.944259
0.957479
0.967971
0.973366
0.976637
0.972714
0.967971
0.969744
0.974432
0.980522
0.994044
1.01115
1.0212
1.02761
1.02988
1.02108
1.01627
1.02186
1.03033
1.04415
1.06675
1.08669
1.10102
1.1138
1.11641
1.10607
1.11007
1.12855
1.16071
1.19121
1.68877
4.3772
0.757919
0.766014
0.771101
0.773605
0.775396
0.775854
0.774422
0.774675
0.776204
0.778915
0.785049
0.791417
0.79503
0.79732
0.798957
0.798147
0.796891
0.797646
0.799376
0.80279
0.809584
0.8153
0.818615
0.820816
0.821748
0.819842
0.819055
0.820253
0.82258
0.827411
0.83468
0.839517
0.842397
0.84443
0.84395
0.842177
0.842835
0.844899
0.848404
0.855781
0.862862
0.867203
0.870265
0.871633
0.869482
0.86941
0.871308
0.874283
0.87976
0.888976
0.895776
0.899744
0.902311
0.901668
0.899373
0.899789
0.903058
0.907266
0.915674
0.92598
0.932647
0.936296
0.937997
0.934285
0.93234
0.934474
0.938588
0.945225
0.958384
0.969475
0.975367
0.979615
0.978922
0.971831
0.970955
0.975024
0.980983
0.992582
1.01073
1.02289
1.03008
1.0353
1.03019
1.02094
1.0227
1.03063
1.04125
1.06104
1.08252
1.09814
1.11149
1.12167
1.11597
1.10964
1.11852
1.14352
1.16643
1.67926
4.35656
0.759612
0.767948
0.773717
0.776519
0.778546
0.779537
0.778138
0.777612
0.778749
0.781002
0.786762
0.7934
0.797253
0.799692
0.801496
0.801247
0.799507
0.799859
0.801459
0.804762
0.81182
0.817652
0.82101
0.823288
0.824562
0.822922
0.82173
0.822823
0.825078
0.830266
0.837857
0.842679
0.845528
0.847549
0.847382
0.845152
0.845312
0.847177
0.85054
0.858097
0.86552
0.869984
0.87304
0.874746
0.872742
0.871681
0.873271
0.876112
0.881502
0.890875
0.898047
0.902271
0.905188
0.905843
0.902505
0.901839
0.904721
0.908737
0.917095
0.9278
0.934715
0.938684
0.94168
0.939428
0.934976
0.935943
0.939636
0.945541
0.958511
0.971248
0.977869
0.982293
0.984311
0.977869
0.973384
0.976045
0.98133
0.989918
1.00733
1.02296
1.03171
1.03802
1.03931
1.02917
1.02488
1.03023
1.03926
1.05514
1.07718
1.09491
1.10905
1.12244
1.12587
1.117
1.11607
1.12887
1.14487
1.66839
4.33521
0.761751
0.769698
0.776284
0.77948
0.781687
0.783061
0.781939
0.780565
0.781338
0.783207
0.788129
0.795251
0.799538
0.80213
0.80408
0.804389
0.802352
0.802217
0.803693
0.806639
0.813738
0.820004
0.823501
0.825879
0.82743
0.826182
0.824671
0.825618
0.82777
0.832793
0.840812
0.84587
0.848751
0.850783
0.850982
0.84852
0.848109
0.84979
0.852869
0.860147
0.868095
0.872788
0.87588
0.877868
0.87644
0.874154
0.875123
0.877833
0.882775
0.892472
0.900394
0.904943
0.908084
0.909989
0.906638
0.903837
0.905959
0.909503
0.916974
0.929024
0.937132
0.941473
0.944916
0.944966
0.939343
0.937768
0.940721
0.945225
0.955754
0.971226
0.980424
0.985455
0.988987
0.985276
0.977978
0.977571
0.981933
0.98799
1.0015
1.02072
1.03294
1.04035
1.04568
1.04055
1.03022
1.03094
1.03844
1.04948
1.06914
1.08832
1.10335
1.11673
1.12862
1.12749
1.1187
1.11933
1.12513
1.64981
4.31151
0.76466
0.77195
0.778579
0.781981
0.784278
0.785783
0.784795
0.783111
0.78375
0.785495
0.789819
0.797177
0.801864
0.804564
0.806569
0.807202
0.805134
0.804602
0.805962
0.808594
0.815417
0.822176
0.825929
0.828446
0.830275
0.829485
0.827582
0.828262
0.830339
0.834952
0.84324
0.848788
0.851826
0.853987
0.85485
0.852424
0.85102
0.852369
0.85511
0.86171
0.870231
0.875328
0.878507
0.880804
0.880634
0.877629
0.877286
0.879689
0.883875
0.893366
0.902541
0.907507
0.910783
0.913431
0.911382
0.907072
0.907752
0.910868
0.916379
0.928928
0.939589
0.944682
0.948234
0.949901
0.944675
0.940827
0.942191
0.945985
0.952537
0.968134
0.981877
0.988581
0.992954
0.993273
0.98485
0.980617
0.98291
0.988088
0.996248
1.01433
1.03118
1.04079
1.04761
1.05058
1.04111
1.0347
1.03821
1.04635
1.06076
1.08134
1.09779
1.11095
1.12323
1.13069
1.12664
1.11782
1.10994
1.62731
4.2866
0.768
0.775215
0.781242
0.784462
0.786611
0.787938
0.786784
0.785312
0.786038
0.787791
0.791946
0.799355
0.804232
0.806995
0.809007
0.809769
0.807771
0.80698
0.808257
0.810687
0.817157
0.824439
0.8285
0.831149
0.833159
0.832866
0.830641
0.830862
0.832764
0.836689
0.845156
0.851636
0.855017
0.857355
0.85879
0.856723
0.85441
0.85503
0.857226
0.862479
0.871856
0.878035
0.88143
0.883873
0.884755
0.881602
0.880177
0.881823
0.884974
0.892748
0.903841
0.910112
0.913598
0.916485
0.915894
0.911092
0.91052
0.912868
0.916556
0.926336
0.940269
0.947458
0.951373
0.953992
0.95068
0.944902
0.944461
0.947378
0.951797
0.962502
0.980054
0.990518
0.995909
0.999654
0.994715
0.985804
0.98513
0.989067
0.994667
1.00634
1.02582
1.03948
1.04779
1.05432
1.05453
1.0434
1.03994
1.04543
1.05458
1.07168
1.09026
1.10437
1.11652
1.12735
1.13047
1.12267
1.10588
1.60202
4.26166
0.770706
0.778097
0.784163
0.787088
0.78894
0.789997
0.78878
0.787453
0.788183
0.789916
0.793926
0.801562
0.806672
0.809459
0.811433
0.812243
0.810357
0.809365
0.810535
0.812755
0.818658
0.82668
0.831195
0.833911
0.835972
0.836115
0.833765
0.833546
0.835218
0.838272
0.846298
0.854227
0.858243
0.860766
0.862518
0.860994
0.857944
0.857851
0.859577
0.863157
0.872631
0.880663
0.884615
0.887163
0.888673
0.886001
0.883231
0.883963
0.886462
0.891508
0.903502
0.912419
0.916712
0.919851
0.920753
0.916115
0.913806
0.914963
0.917799
0.923361
0.937754
0.94926
0.954484
0.957845
0.957764
0.950896
0.94766
0.949132
0.952765
0.958525
0.974099
0.990035
0.997799
1.00247
1.00417
0.995636
0.989274
0.990613
0.995071
1.00167
1.0174
1.03579
1.04707
1.0546
1.06013
1.05682
1.04675
1.0462
1.05238
1.06276
1.08109
1.09762
1.10987
1.12015
1.12767
1.12633
1.11067
1.58235
4.23693
0.773109
0.779751
0.78631
0.789507
0.791305
0.792377
0.791307
0.789898
0.79055
0.792226
0.79571
0.803476
0.809156
0.811965
0.813818
0.81471
0.813102
0.811956
0.812975
0.814998
0.819835
0.828443
0.833802
0.836674
0.838788
0.839428
0.837056
0.836339
0.837829
0.840308
0.846842
0.856128
0.861216
0.863997
0.866004
0.865323
0.861642
0.860885
0.862346
0.864869
0.872777
0.882776
0.887772
0.890419
0.892265
0.890641
0.886508
0.886212
0.888229
0.891525
0.901418
0.913735
0.919717
0.923149
0.925338
0.922004
0.917269
0.916994
0.919096
0.922604
0.932666
0.948568
0.957079
0.961474
0.963963
0.959415
0.952195
0.951495
0.95397
0.957944
0.966628
0.985055
0.997973
1.00415
1.00877
1.00799
0.997264
0.993291
0.996265
1.00144
1.01003
1.02792
1.04365
1.05316
1.06028
1.0652
1.06022
1.05097
1.05188
1.0584
1.07007
1.08812
1.1026
1.11306
1.12117
1.1245
1.11778
1.57084
4.21157
0.775496
0.780696
0.78758
0.791271
0.793302
0.794732
0.794381
0.79274
0.793174
0.794797
0.797657
0.804801
0.811139
0.814242
0.816173
0.817418
0.81629
0.814804
0.815573
0.817419
0.820948
0.829371
0.836025
0.839363
0.841649
0.842903
0.840815
0.839344
0.840512
0.842692
0.847185
0.856866
0.863577
0.866911
0.869187
0.869575
0.865873
0.864172
0.865376
0.867457
0.872569
0.883566
0.890419
0.893541
0.895603
0.895404
0.890657
0.888863
0.890509
0.8932
0.899172
0.912838
0.922065
0.926304
0.928983
0.928176
0.9219
0.91932
0.920861
0.923833
0.929243
0.944027
0.957952
0.964127
0.967958
0.968443
0.960226
0.954735
0.955678
0.958921
0.963665
0.976587
0.995133
1.00532
1.01073
1.01429
1.00995
1.00025
0.998758
1.0023
1.00765
1.01861
1.03721
1.05093
1.0596
1.06646
1.06958
1.06271
1.05515
1.05702
1.06343
1.0758
1.09301
1.10559
1.11378
1.11853
1.12125
1.57004
4.18525
0.777855
0.781397
0.78819
0.792676
0.795167
0.796993
0.797724
0.796267
0.79617
0.797538
0.799671
0.805325
0.812423
0.816247
0.818563
0.820328
0.820148
0.818146
0.818269
0.819795
0.822261
0.829453
0.837799
0.842081
0.84464
0.846443
0.845214
0.842765
0.84317
0.84496
0.847853
0.856302
0.865142
0.869544
0.87223
0.873813
0.871222
0.868259
0.86857
0.870118
0.872884
0.882325
0.892137
0.896555
0.89906
0.900485
0.896639
0.892796
0.893311
0.895395
0.898502
0.908611
0.92214
0.928539
0.931896
0.933836
0.929346
0.9236
0.923672
0.926105
0.929312
0.937326
0.954489
0.965262
0.97012
0.973706
0.971358
0.961623
0.958654
0.960999
0.96471
0.970548
0.986577
1.00295
1.01092
1.01589
1.01931
1.01278
1.0038
1.00383
1.00811
1.01425
1.02747
1.04504
1.05677
1.06468
1.07126
1.07386
1.0662
1.05929
1.06129
1.06725
1.07968
1.0954
1.10612
1.11139
1.11882
1.5759
4.15769
0.780054
0.782324
0.78873
0.794277
0.797324
0.79946
0.801014
0.800363
0.799351
0.800034
0.801407
0.8051
0.813067
0.818374
0.821231
0.823345
0.824286
0.822039
0.820941
0.821914
0.82391
0.829407
0.839109
0.844846
0.847745
0.849834
0.849854
0.846573
0.845603
0.846849
0.849113
0.855299
0.865981
0.872169
0.875356
0.877633
0.876992
0.872698
0.871228
0.872089
0.874193
0.880351
0.892584
0.899589
0.902909
0.90512
0.903721
0.89801
0.896113
0.897055
0.899319
0.904386
0.918732
0.930195
0.935193
0.938285
0.938184
0.930884
0.927156
0.92795
0.930297
0.934071
0.946366
0.963348
0.971644
0.975934
0.978881
0.973696
0.965173
0.964018
0.966376
0.969991
0.977806
0.995945
1.01013
1.01715
1.02186
1.02321
1.01543
1.00861
1.00974
1.01404
1.02066
1.0354
1.05186
1.06256
1.07002
1.07604
1.07752
1.06952
1.06291
1.06448
1.0697
1.08151
1.0956
1.10348
1.11315
1.58573
4.12911
0.781538
0.78366
0.790088
0.796601
0.80004
0.802394
0.804286
0.804461
0.802171
0.801525
0.802627
0.805502
0.813597
0.820702
0.824187
0.826495
0.828055
0.826084
0.823553
0.824049
0.82592
0.82992
0.839768
0.847294
0.850793
0.852974
0.853976
0.85075
0.848168
0.848939
0.850976
0.854973
0.865638
0.87435
0.878462
0.880909
0.881843
0.877541
0.874022
0.874467
0.876424
0.88
0.891096
0.901979
0.906606
0.909118
0.909894
0.904496
0.899257
0.899012
0.900969
0.903974
0.913301
0.929283
0.937807
0.941785
0.944308
0.940332
0.931925
0.929863
0.931797
0.9347
0.940159
0.956177
0.971192
0.977826
0.981854
0.98387
0.975776
0.968039
0.968176
0.971446
0.97566
0.985718
1.0039
1.0158
1.02186
1.02682
1.02836
1.01935
1.01318
1.01485
1.01947
1.02685
1.04238
1.0576
1.06734
1.0744
1.08004
1.08121
1.07297
1.06576
1.0664
1.07056
1.0816
1.09274
1.1045
1.59602
4.09941
0.783
0.785174
0.791907
0.799594
0.803357
0.805732
0.807594
0.807735
0.804266
0.802977
0.804198
0.806744
0.814326
0.822997
0.827207
0.829595
0.831297
0.829864
0.826545
0.826564
0.828285
0.831141
0.839408
0.848901
0.853453
0.855856
0.857451
0.85546
0.851552
0.851439
0.853263
0.855932
0.863865
0.875115
0.880808
0.883693
0.885598
0.883332
0.878212
0.877503
0.879222
0.881639
0.888003
0.901388
0.909178
0.912595
0.914457
0.912258
0.904765
0.902151
0.903587
0.906195
0.910039
0.923023
0.937418
0.943741
0.947321
0.948635
0.941456
0.934236
0.934056
0.936632
0.939996
0.947887
0.965516
0.978003
0.983717
0.987284
0.987065
0.978119
0.972431
0.973461
0.976721
0.981435
0.993857
1.01194
1.02258
1.02831
1.03228
1.03168
1.02277
1.01798
1.02004
1.02466
1.03253
1.04831
1.06274
1.07183
1.07847
1.08342
1.08434
1.07615
1.06766
1.06672
1.07001
1.07907
1.09343
1.60245
4.06805
0.784809
0.786988
0.793367
0.802302
0.806736
0.808976
0.810589
0.809962
0.806259
0.805169
0.806427
0.80866
0.814848
0.824595
0.829955
0.832479
0.83414
0.833621
0.83028
0.829502
0.830858
0.832941
0.838336
0.849045
0.855506
0.858556
0.860609
0.860516
0.856173
0.854478
0.855652
0.857711
0.861989
0.873606
0.882472
0.886484
0.888963
0.889556
0.884464
0.88128
0.881832
0.883587
0.886381
0.896737
0.909783
0.915534
0.918514
0.919572
0.913874
0.90753
0.906845
0.908259
0.910465
0.915818
0.931496
0.944056
0.94937
0.952958
0.952765
0.943648
0.93839
0.939371
0.942112
0.945474
0.954938
0.972744
0.983305
0.988126
0.992179
0.991214
0.98112
0.976654
0.978692
0.982535
0.987955
1.00164
1.01809
1.02699
1.03221
1.03665
1.03641
1.02753
1.02291
1.02497
1.02947
1.03756
1.0532
1.06691
1.07542
1.08155
1.0859
1.0868
1.07919
1.06877
1.06573
1.06712
1.08057
1.59923
4.03466
0.787163
0.789137
0.794221
0.803976
0.809674
0.812208
0.813334
0.812336
0.809155
0.808059
0.809251
0.811157
0.815114
0.824622
0.831741
0.834953
0.836959
0.83783
0.834977
0.832705
0.833222
0.834868
0.837927
0.847494
0.856998
0.861286
0.863628
0.865034
0.861943
0.858019
0.857906
0.859522
0.862108
0.870405
0.883027
0.889275
0.892347
0.894298
0.891546
0.885463
0.883952
0.885322
0.887571
0.892606
0.90688
0.917954
0.922245
0.924714
0.923652
0.915285
0.910075
0.909982
0.91186
0.914697
0.923305
0.940577
0.950973
0.95536
0.958526
0.956147
0.946572
0.942683
0.943765
0.946411
0.950487
0.962935
0.980506
0.989711
0.99421
0.997121
0.994181
0.985325
0.982456
0.984485
0.987712
0.993152
1.00783
1.02364
1.03236
1.03778
1.04168
1.04059
1.03217
1.02783
1.0297
1.03392
1.04174
1.05688
1.07011
1.0782
1.08373
1.0876
1.08862
1.08191
1.0702
1.06193
1.06801
1.58399
4.00038
0.790301
0.792013
0.794886
0.803383
0.810667
0.813807
0.815481
0.816187
0.813837
0.811744
0.812181
0.813677
0.815832
0.822914
0.832675
0.837536
0.839941
0.841673
0.840372
0.836297
0.835533
0.836964
0.839159
0.845303
0.856903
0.86342
0.866467
0.868475
0.867888
0.862584
0.860547
0.861794
0.864074
0.868335
0.880504
0.89088
0.895247
0.897516
0.897886
0.891812
0.887361
0.887858
0.890094
0.892772
0.900753
0.916186
0.924624
0.928174
0.929982
0.926194
0.916802
0.913431
0.914675
0.917257
0.920583
0.931752
0.948213
0.956375
0.960332
0.963161
0.958823
0.949121
0.946599
0.948821
0.952158
0.956934
0.970822
0.986572
0.994097
0.998358
1.00204
0.998736
0.98922
0.986303
0.988697
0.992578
0.998914
1.01407
1.02881
1.0368
1.04188
1.04599
1.04578
1.0376
1.03262
1.03405
1.03789
1.04493
1.0594
1.07246
1.08024
1.08525
1.08849
1.08935
1.08403
1.06967
1.06105
1.55674
3.96596
0.793935
0.794561
0.796029
0.80088
0.810217
0.815612
0.818137
0.819902
0.819798
0.816222
0.814733
0.815509
0.817207
0.821293
0.831895
0.839535
0.842923
0.844898
0.845488
0.841423
0.838646
0.839298
0.841129
0.844298
0.854352
0.8645
0.868947
0.871345
0.87275
0.868938
0.86451
0.864644
0.866476
0.868825
0.875505
0.889142
0.897001
0.900585
0.902679
0.900584
0.89368
0.891725
0.892968
0.894882
0.897561
0.908323
0.923198
0.929863
0.933204
0.934954
0.929398
0.920986
0.91921
0.920304
0.922138
0.92571
0.939004
0.954041
0.960929
0.964702
0.967129
0.961942
0.954014
0.952841
0.9547
0.957253
0.962296
0.977545
0.992461
0.999697
1.00393
1.00617
1.00212
0.993771
0.99171
0.994264
0.99815
1.00464
1.01937
1.0335
1.0415
1.04667
1.0505
1.05035
1.04275
1.03719
1.03785
1.04133
1.0475
1.06105
1.0739
1.08146
1.08588
1.08847
1.08919
1.08291
1.06839
1.52938
3.93249
0.79825
0.796685
0.797379
0.799549
0.807762
0.816803
0.82103
0.823209
0.824711
0.822338
0.818323
0.817919
0.819257
0.821536
0.829473
0.840146
0.845181
0.847686
0.849453
0.847792
0.842995
0.841986
0.843223
0.845208
0.85084
0.863268
0.870865
0.874264
0.876455
0.876096
0.870489
0.867986
0.868587
0.870168
0.872965
0.883208
0.897157
0.903468
0.906542
0.907971
0.902673
0.896188
0.894952
0.896025
0.898113
0.902446
0.916677
0.930512
0.936118
0.939155
0.940083
0.932175
0.924082
0.922442
0.923621
0.925788
0.930978
0.946374
0.960113
0.966169
0.969981
0.972391
0.965717
0.957442
0.956139
0.958446
0.961692
0.968092
0.984013
0.997354
1.00353
1.00768
1.01135
1.00767
0.999185
0.996979
0.999055
1.00253
1.00862
1.02339
1.03757
1.0454
1.05037
1.05439
1.05516
1.04818
1.0418
1.04144
1.04435
1.04936
1.06163
1.07436
1.08176
1.08559
1.08784
1.08695
1.08332
1.51754
3.89972
0.803542
0.799315
0.799115
0.800429
0.805511
0.816499
0.823076
0.826106
0.828
0.828043
0.823284
0.820819
0.821503
0.823181
0.827533
0.838854
0.846939
0.850455
0.852562
0.853336
0.84881
0.845159
0.84533
0.846905
0.849577
0.859188
0.871599
0.877201
0.879963
0.881695
0.878139
0.871893
0.870479
0.871779
0.873935
0.878414
0.892334
0.904574
0.909575
0.912142
0.911866
0.903963
0.898267
0.898316
0.900378
0.902985
0.909281
0.925373
0.937027
0.941712
0.944258
0.943562
0.934184
0.9271
0.926511
0.928356
0.931019
0.937997
0.954333
0.966327
0.971696
0.974828
0.97573
0.968445
0.961139
0.960837
0.963601
0.967143
0.974081
0.98994
1.00313
1.00955
1.01344
1.01607
1.01214
1.0033
1.00075
1.00328
1.00729
1.01365
1.02771
1.04154
1.04941
1.0544
1.0582
1.05951
1.05378
1.04626
1.04454
1.04674
1.0507
1.06133
1.07388
1.08117
1.08491
1.08523
1.09045
1.51827
3.86703
0.80829
0.802523
0.801439
0.80269
0.805778
0.815286
0.824335
0.82832
0.830516
0.831787
0.828908
0.824486
0.82413
0.825564
0.827888
0.836022
0.847424
0.852766
0.855333
0.857141
0.855174
0.849288
0.847677
0.848852
0.850895
0.855809
0.869191
0.879303
0.883363
0.885521
0.885314
0.878102
0.873456
0.873839
0.875805
0.878257
0.884935
0.900621
0.910585
0.914791
0.91745
0.915308
0.90636
0.902682
0.903631
0.905705
0.908098
0.915591
0.931917
0.941742
0.945757
0.948688
0.947288
0.937575
0.932294
0.932613
0.934444
0.936855
0.94413
0.959733
0.970187
0.974906
0.978714
0.980176
0.97281
0.966519
0.966563
0.968817
0.972027
0.97933
0.99544
1.00749
1.0133
1.01733
1.02
1.01673
1.00922
1.00687
1.00879
1.01212
1.01756
1.03069
1.04467
1.05284
1.0578
1.06155
1.06318
1.05888
1.05094
1.04764
1.04871
1.05156
1.06026
1.07228
1.07992
1.08234
1.09071
1.52821
3.8345
0.811083
0.806602
0.804772
0.805824
0.807572
0.813916
0.824337
0.829882
0.832539
0.834431
0.834251
0.829411
0.827226
0.828026
0.829689
0.833815
0.845513
0.854399
0.858047
0.860043
0.860307
0.854793
0.850814
0.851351
0.853311
0.855931
0.864153
0.878277
0.885554
0.888745
0.890178
0.886481
0.878797
0.876671
0.877769
0.87973
0.88264
0.892451
0.908655
0.916943
0.920438
0.92281
0.918604
0.909447
0.90651
0.907187
0.908982
0.912183
0.922343
0.938899
0.947771
0.951372
0.953887
0.951115
0.94123
0.936758
0.936884
0.938231
0.941032
0.949641
0.965879
0.976198
0.980856
0.984086
0.984956
0.976934
0.970305
0.970567
0.97356
0.977241
0.98423
0.999066
1.011
1.0172
1.02131
1.02505
1.02326
1.01511
1.01131
1.01278
1.01628
1.02133
1.03318
1.04707
1.05552
1.06044
1.06415
1.06661
1.06445
1.05604
1.05037
1.05006
1.052
1.0584
1.07001
1.07642
1.08723
1.54195
3.80053
0.813708
0.811154
0.808483
0.808897
0.810157
0.813067
0.822913
0.831396
0.83501
0.837109
0.838383
0.834955
0.830648
0.830459
0.831954
0.834202
0.841848
0.854031
0.859867
0.862294
0.863877
0.861721
0.855966
0.854832
0.856308
0.858333
0.861288
0.871919
0.884936
0.89055
0.893217
0.893976
0.887983
0.881209
0.880386
0.882208
0.884648
0.888257
0.900496
0.915481
0.922153
0.925415
0.927039
0.921137
0.912044
0.909959
0.91176
0.914391
0.918169
0.929871
0.945255
0.95272
0.956145
0.957947
0.954032
0.944234
0.940285
0.941292
0.943654
0.946919
0.956201
0.971612
0.980698
0.985231
0.988322
0.988565
0.981789
0.976322
0.976337
0.978394
0.981507
0.988078
1.00321
1.01586
1.02233
1.02626
1.02886
1.02778
1.02087
1.01664
1.01739
1.02044
1.02461
1.03448
1.04866
1.05817
1.06345
1.06705
1.06937
1.06872
1.06117
1.05321
1.05088
1.05169
1.05662
1.0658
1.07912
1.55226
3.76457
0.816636
0.815709
0.81177
0.811128
0.812127
0.814081
0.820881
0.83202
0.837583
0.839965
0.841437
0.840253
0.835111
0.833497
0.8346
0.836288
0.839189
0.849461
0.860323
0.864991
0.86722
0.868427
0.863894
0.859377
0.859098
0.860256
0.861893
0.865619
0.878372
0.890552
0.895642
0.89843
0.898484
0.89096
0.885538
0.885641
0.887252
0.889271
0.893174
0.906968
0.92045
0.925944
0.92913
0.930837
0.924564
0.917056
0.916139
0.917716
0.919774
0.92315
0.935223
0.949674
0.956314
0.9596
0.962037
0.95806
0.949558
0.946875
0.947672
0.949242
0.951837
0.960651
0.975371
0.984363
0.988735
0.992719
0.994345
0.987384
0.980509
0.980159
0.98301
0.986789
0.993172
1.00642
1.01851
1.02494
1.02903
1.03298
1.03396
1.02765
1.02189
1.02147
1.02411
1.0279
1.03637
1.05004
1.06
1.06539
1.06886
1.07146
1.07232
1.06656
1.05668
1.05133
1.05103
1.05336
1.06799
1.55291
3.72581
0.819808
0.819991
0.815289
0.813762
0.814744
0.816419
0.819557
0.829627
0.83864
0.842282
0.844202
0.84535
0.841807
0.837758
0.837298
0.838071
0.839361
0.843731
0.857185
0.867149
0.871205
0.873357
0.872871
0.866043
0.862043
0.861992
0.863209
0.864954
0.870054
0.885352
0.896911
0.901439
0.904198
0.902909
0.893905
0.888779
0.888656
0.890179
0.892518
0.89822
0.913756
0.926321
0.931483
0.934492
0.935797
0.928551
0.921001
0.91957
0.920739
0.922982
0.927519
0.941162
0.955334
0.961958
0.965045
0.967283
0.963194
0.954271
0.950581
0.950873
0.952669
0.955781
0.965394
0.980728
0.989922
0.994238
0.997049
0.99803
0.99268
0.986944
0.986507
0.988273
0.990781
0.995773
1.00867
1.02227
1.02983
1.03416
1.03739
1.03871
1.03397
1.02774
1.02627
1.02816
1.03117
1.03688
1.04961
1.06109
1.06735
1.07088
1.07327
1.07464
1.07136
1.06105
1.05274
1.04822
1.05627
1.54009
3.68532
0.823257
0.824783
0.821087
0.817601
0.817472
0.818487
0.819895
0.825031
0.837429
0.844828
0.847881
0.84965
0.849185
0.843122
0.839272
0.839114
0.840544
0.84292
0.851228
0.866494
0.87423
0.877444
0.87912
0.875488
0.867267
0.864074
0.864331
0.866082
0.868809
0.877039
0.89348
0.902918
0.906786
0.908995
0.906223
0.896765
0.892221
0.892676
0.894755
0.897518
0.904569
0.920589
0.931684
0.936357
0.939067
0.939401
0.931593
0.924227
0.923381
0.925492
0.928332
0.933388
0.947146
0.960494
0.966639
0.969591
0.971041
0.967191
0.958491
0.954788
0.955738
0.958217
0.961561
0.96978
0.983695
0.992557
0.997091
1.00105
1.00377
0.999101
0.991398
0.989581
0.992049
0.995565
1.00069
1.01173
1.02484
1.03271
1.03729
1.04093
1.04335
1.04083
1.03371
1.03001
1.03086
1.0337
1.0385
1.04991
1.06191
1.06873
1.07227
1.07453
1.0759
1.07448
1.06597
1.05323
1.05019
1.51304
3.64502
0.82696
0.82934
0.828004
0.822273
0.81928
0.819388
0.82083
0.823491
0.833058
0.84574
0.851114
0.853393
0.854467
0.850046
0.842699
0.841159
0.842527
0.844544
0.848289
0.860704
0.874533
0.88033
0.88305
0.883552
0.876037
0.867761
0.866733
0.868569
0.870886
0.873893
0.88378
0.899642
0.907523
0.911112
0.913747
0.91002
0.9003
0.896875
0.897758
0.899545
0.902211
0.910132
0.925902
0.9355
0.939569
0.942758
0.943253
0.935344
0.929351
0.92925
0.930953
0.933148
0.937864
0.95152
0.964037
0.969622
0.972921
0.975644
0.972345
0.964416
0.961373
0.961571
0.962563
0.965138
0.973093
0.98797
0.997816
1.00247
1.00542
1.00711
1.00417
0.998085
0.996415
0.997917
1.00005
1.00351
1.01263
1.02656
1.0359
1.04101
1.04463
1.047
1.04583
1.03961
1.03505
1.03493
1.03695
1.04004
1.04852
1.06105
1.06914
1.07298
1.07511
1.07636
1.07638
1.06869
1.05593
1.48271
3.60619
0.829397
0.833112
0.833433
0.828763
0.822585
0.821586
0.822908
0.824846
0.829276
0.842061
0.852388
0.856358
0.858048
0.856933
0.849248
0.844895
0.845633
0.847649
0.84992
0.85478
0.868496
0.879875
0.884316
0.886667
0.886085
0.877756
0.872077
0.87199
0.873152
0.874821
0.878339
0.890891
0.906332
0.913232
0.916248
0.91807
0.912673
0.903025
0.900129
0.901202
0.903271
0.906508
0.915909
0.931654
0.940928
0.94493
0.947543
0.947541
0.939306
0.932959
0.932446
0.934421
0.937101
0.942439
0.956492
0.969239
0.975364
0.97835
0.980499
0.977512
0.968741
0.964358
0.965088
0.967391
0.970748
0.977494
0.990492
0.999957
1.00482
1.00855
1.01213
1.01119
1.00416
0.999873
1.00069
1.00372
1.00753
1.01544
1.02854
1.03831
1.04359
1.04705
1.05022
1.05155
1.04675
1.04001
1.03765
1.03896
1.04154
1.04796
1.05992
1.06895
1.07341
1.07542
1.07685
1.07625
1.07283
1.46914
3.56899
0.830069
0.836099
0.837027
0.836004
0.829278
0.82552
0.825971
0.827505
0.829462
0.835607
0.8492
0.857207
0.860211
0.861569
0.858864
0.851829
0.849822
0.850909
0.852525
0.854344
0.859288
0.87369
0.884388
0.888664
0.891162
0.889953
0.880774
0.875079
0.875317
0.877481
0.879991
0.884361
0.897381
0.910671
0.916166
0.918869
0.920427
0.915777
0.907425
0.905069
0.906464
0.908897
0.912334
0.921516
0.936469
0.944958
0.948931
0.951446
0.951114
0.943685
0.937818
0.937454
0.939519
0.942483
0.947904
0.96095
0.973215
0.979264
0.982539
0.98403
0.9819
0.975061
0.971428
0.97139
0.972078
0.974098
0.979776
0.993222
1.00435
1.00987
1.01313
1.01535
1.01544
1.01045
1.00628
1.00649
1.00864
1.01149
1.01686
1.02885
1.04032
1.04692
1.05079
1.05355
1.055
1.05208
1.04532
1.04153
1.04173
1.04357
1.04741
1.05759
1.06785
1.07323
1.07595
1.07604
1.08155
1.46972
3.53237
0.828257
0.838135
0.840171
0.841127
0.83816
0.831454
0.829384
0.829999
0.831188
0.833157
0.840514
0.854462
0.862001
0.865244
0.866792
0.863008
0.856292
0.854218
0.854343
0.855281
0.85739
0.863839
0.879
0.889009
0.893063
0.895266
0.893634
0.884917
0.880646
0.881235
0.882566
0.884073
0.887723
0.90084
0.913978
0.919933
0.923651
0.925998
0.921494
0.913275
0.911186
0.912185
0.913664
0.916391
0.925252
0.939958
0.948376
0.952323
0.955808
0.956513
0.94909
0.943371
0.943275
0.944982
0.947111
0.951562
0.964012
0.976292
0.982258
0.985553
0.988733
0.988172
0.980653
0.974686
0.974172
0.976098
0.979022
0.98426
0.995366
1.00582
1.01162
1.01539
1.01927
1.02173
1.01816
1.01205
1.01017
1.01193
1.01506
1.01969
1.02997
1.04156
1.04859
1.05249
1.05549
1.05825
1.05824
1.05209
1.04576
1.04395
1.04506
1.04745
1.05532
1.06589
1.07252
1.07476
1.08275
1.47958
3.49605
0.82363
0.838145
0.842835
0.844547
0.845237
0.840363
0.834182
0.832608
0.832995
0.833842
0.835865
0.845425
0.860856
0.868233
0.871367
0.872646
0.86707
0.859239
0.856922
0.857511
0.858793
0.860589
0.867459
0.883571
0.893553
0.897884
0.900831
0.899237
0.890059
0.884311
0.883282
0.884176
0.886221
0.891363
0.906751
0.920455
0.926058
0.929024
0.931016
0.92555
0.916392
0.913432
0.914501
0.916668
0.920252
0.930434
0.94548
0.954024
0.957833
0.960342
0.960559
0.953391
0.947144
0.946551
0.948741
0.951512
0.956159
0.968209
0.980882
0.987401
0.990476
0.992198
0.991998
0.986646
0.981624
0.980854
0.981582
0.982869
0.986288
0.996202
1.00864
1.01629
1.0204
1.02348
1.02572
1.02408
1.01849
1.01574
1.01665
1.01889
1.02199
1.02894
1.04101
1.05053
1.05576
1.05895
1.06138
1.06243
1.05823
1.05047
1.04648
1.04641
1.04789
1.0532
1.06392
1.07051
1.08058
1.49169
3.45842
0.819692
0.832724
0.843991
0.84791
0.849674
0.849459
0.842403
0.836206
0.834474
0.834735
0.836314
0.839881
0.85337
0.868384
0.87433
0.877028
0.877394
0.870027
0.862321
0.859962
0.859581
0.86073
0.863592
0.873702
0.891039
0.900034
0.903483
0.905866
0.903185
0.892291
0.886059
0.885936
0.887808
0.890673
0.89784
0.914175
0.92575
0.930476
0.933189
0.93428
0.92816
0.919613
0.917612
0.91939
0.922143
0.926014
0.935037
0.948637
0.956588
0.960564
0.963567
0.964307
0.958729
0.95302
0.952327
0.954287
0.956904
0.961133
0.971295
0.982895
0.989448
0.992998
0.996335
0.998209
0.993975
0.986872
0.983893
0.984883
0.987219
0.990806
0.998497
1.00998
1.01804
1.02283
1.02646
1.03006
1.03093
1.02575
1.0205
1.01952
1.02173
1.02487
1.03059
1.04179
1.0521
1.05781
1.06105
1.06359
1.06538
1.0635
1.05591
1.04924
1.04753
1.0483
1.05272
1.06131
1.0734
1.49912
3.41878
0.820022
0.825824
0.841619
0.850441
0.853377
0.854787
0.852017
0.841846
0.836611
0.836734
0.838268
0.840302
0.845996
0.862116
0.874697
0.879429
0.882015
0.881778
0.871486
0.862688
0.861515
0.862996
0.865064
0.869234
0.882343
0.897771
0.904386
0.907291
0.909125
0.90534
0.894165
0.89014
0.891332
0.893668
0.896915
0.904567
0.919049
0.928811
0.93298
0.935588
0.937579
0.93272
0.92567
0.924258
0.925411
0.926868
0.929692
0.937626
0.95125
0.960245
0.964596
0.967846
0.96997
0.965472
0.959005
0.957692
0.95914
0.961073
0.964246
0.972954
0.986028
0.994429
0.998419
1.00072
1.0022
0.999448
0.993239
0.990513
0.990812
0.991673
0.993688
0.999099
1.0107
1.02131
1.02744
1.03119
1.03403
1.03554
1.03207
1.02652
1.02486
1.02621
1.0284
1.03161
1.04001
1.05157
1.05896
1.06278
1.06533
1.06749
1.0675
1.0617
1.05345
1.04927
1.04938
1.05146
1.064
1.49571
3.37666
0.822753
0.824624
0.834627
0.849078
0.855478
0.857989
0.858777
0.851854
0.841902
0.839657
0.840708
0.84238
0.844916
0.853042
0.870039
0.879941
0.883571
0.885376
0.883088
0.871888
0.866136
0.866694
0.86867
0.871031
0.875878
0.888929
0.901471
0.906765
0.909096
0.910327
0.907309