/*--------------------------------*- C++ -*----------------------------------*\
  =========                 |
  \\      /  F ield         | OpenFOAM: The Open Source CFD Toolbox
   \\    /   O peration     | Website:  https://openfoam.org
    \\  /    A nd           | Version:  12
     \\/     M anipulation  |
\*---------------------------------------------------------------------------*/
FoamFile
{
    format      ascii;
    class       volScalarField;
    location    "2.5";
    object      rho;
}
// * * * * * * * * * * * * * * * * * * * * * * * * * * * * * * * * * * * * * //

dimensions      [1 -3 0 0 0 0 0];

internalField   nonuniform List<scalar> 
9801
(
1.14595
1.15269
1.15699
1.16057
1.1632
1.16344
1.16231
1.16293
1.16533
1.17001
1.17484
1.17864
1.18181
1.18465
1.18602
1.18595
1.18735
1.19026
1.1935
1.19642
1.19944
1.20233
1.20522
1.20737
1.2096
1.2133
1.21897
1.22409
1.22749
1.22988
1.23195
1.23307
1.23453
1.23739
1.2409
1.24675
1.25459
1.26024
1.26377
1.26698
1.26778
1.26601
1.26725
1.27052
1.27451
1.28277
1.2922
1.29827
1.30254
1.30559
1.30477
1.30241
1.30409
1.30805
1.31415
1.32446
1.33416
1.33968
1.34376
1.34594
1.34268
1.34167
1.3456
1.35109
1.36038
1.37302
1.38189
1.38729
1.3919
1.38965
1.38482
1.38754
1.39282
1.40193
1.41774
1.43094
1.43928
1.44553
1.44798
1.44055
1.43845
1.44433
1.45413
1.47421
1.49486
1.50827
1.5182
1.52695
1.52454
1.51496
1.5207
1.53682
1.56981
1.61324
1.65197
1.69772
1.73536
2.16671
4.31192
1.15255
1.15854
1.16187
1.16454
1.16473
1.16406
1.16528
1.16798
1.17325
1.17781
1.18155
1.18447
1.18698
1.18824
1.1876
1.18812
1.19044
1.19545
1.20041
1.20381
1.20659
1.20907
1.21076
1.21142
1.21285
1.21577
1.22204
1.22847
1.23264
1.23573
1.23843
1.23973
1.24
1.24157
1.24411
1.2491
1.25754
1.26385
1.26784
1.27116
1.27307
1.27215
1.27255
1.27487
1.27798
1.28543
1.29531
1.30163
1.30585
1.30897
1.30908
1.30724
1.30868
1.31207
1.31706
1.32735
1.33738
1.34295
1.34702
1.34939
1.34683
1.34581
1.34921
1.35384
1.36221
1.37537
1.38463
1.39014
1.39475
1.39372
1.38924
1.39105
1.39562
1.40319
1.4188
1.43246
1.4409
1.44717
1.45058
1.44472
1.44192
1.44689
1.45493
1.47194
1.49297
1.50728
1.5178
1.52774
1.52915
1.51961
1.52321
1.53833
1.56351
1.59791
1.62814
1.66252
1.68098
2.10018
4.28811
1.15575
1.16038
1.1629
1.16188
1.15998
1.16166
1.16542
1.17287
1.17865
1.18179
1.18434
1.18679
1.18838
1.1854
1.18436
1.1862
1.19096
1.19925
1.20474
1.20767
1.20993
1.21178
1.21187
1.21075
1.21133
1.21401
1.2212
1.22964
1.235
1.23832
1.24111
1.24238
1.24099
1.2413
1.24308
1.24726
1.25612
1.26378
1.26857
1.2723
1.27518
1.27511
1.27357
1.2748
1.27748
1.28407
1.2943
1.30115
1.30554
1.30893
1.31049
1.3088
1.30924
1.31211
1.31636
1.32602
1.33645
1.34223
1.34649
1.34971
1.34827
1.34639
1.34923
1.3535
1.36058
1.37375
1.38364
1.38931
1.39412
1.39496
1.39035
1.39093
1.39505
1.40107
1.41428
1.42968
1.43906
1.44559
1.45038
1.44645
1.44196
1.44558
1.45277
1.46438
1.4861
1.50383
1.51541
1.52554
1.52985
1.52019
1.52046
1.53415
1.55411
1.5847
1.61389
1.64264
1.65743
2.07462
4.24638
1.16057
1.16392
1.16128
1.15716
1.15769
1.16006
1.16632
1.17678
1.18365
1.18664
1.18882
1.19056
1.18735
1.18278
1.18313
1.18542
1.19188
1.2023
1.2089
1.21222
1.2146
1.21623
1.21362
1.20999
1.21061
1.21319
1.22066
1.23117
1.23746
1.24125
1.24426
1.24604
1.24352
1.24129
1.24254
1.24582
1.25466
1.26446
1.26999
1.27366
1.27644
1.27653
1.27435
1.27505
1.27758
1.28297
1.29355
1.30157
1.30621
1.30967
1.31173
1.30963
1.30908
1.31164
1.31546
1.32408
1.33558
1.34218
1.34672
1.35047
1.34985
1.34658
1.34842
1.35239
1.35804
1.37088
1.38236
1.38859
1.39354
1.39606
1.39141
1.38979
1.39317
1.39863
1.40904
1.42628
1.43758
1.44425
1.44954
1.44858
1.44151
1.44246
1.4491
1.45789
1.47585
1.49652
1.50983
1.52018
1.52836
1.52321
1.51638
1.52529
1.54173
1.56547
1.5938
1.61897
1.63365
2.0677
4.20915
1.16476
1.16509
1.1576
1.15684
1.15873
1.1611
1.16638
1.17806
1.1864
1.19023
1.19252
1.19097
1.18492
1.18354
1.18489
1.18706
1.19227
1.20355
1.21129
1.21494
1.21721
1.21729
1.21338
1.2112
1.21225
1.21452
1.22029
1.23159
1.23885
1.24263
1.24537
1.24639
1.24343
1.24184
1.24348
1.24643
1.25394
1.26457
1.27071
1.27433
1.27693
1.27696
1.27483
1.27556
1.27817
1.28274
1.29288
1.30172
1.30661
1.31007
1.31212
1.30985
1.30867
1.31108
1.3148
1.32252
1.33476
1.34224
1.34698
1.35085
1.35112
1.34672
1.34724
1.35088
1.3557
1.36725
1.38058
1.38772
1.39278
1.39646
1.39347
1.3894
1.39139
1.39635
1.4038
1.41989
1.43466
1.44259
1.44841
1.4508
1.44364
1.44052
1.44556
1.45331
1.46614
1.48745
1.50432
1.51611
1.52639
1.52956
1.51961
1.51975
1.5323
1.55151
1.57719
1.60069
1.61428
2.06677
4.17952
1.16454
1.16306
1.15927
1.15947
1.16119
1.16357
1.16801
1.17887
1.18751
1.19098
1.19168
1.18899
1.18675
1.18653
1.18803
1.19021
1.19412
1.20411
1.21275
1.21657
1.21835
1.21792
1.21539
1.21421
1.21527
1.21742
1.22166
1.23177
1.23955
1.24343
1.24591
1.24661
1.24436
1.24354
1.24536
1.24824
1.25456
1.26468
1.27103
1.27477
1.27745
1.27803
1.276
1.27648
1.27912
1.28324
1.29258
1.30174
1.30683
1.31039
1.3129
1.31135
1.30922
1.31111
1.31474
1.32145
1.33378
1.34233
1.34734
1.35133
1.35291
1.34861
1.34705
1.34995
1.35418
1.36331
1.37846
1.3878
1.39327
1.39747
1.39687
1.39121
1.39052
1.39472
1.40049
1.41271
1.43111
1.4424
1.449
1.45376
1.44961
1.44236
1.44394
1.4509
1.45991
1.47777
1.4975
1.51142
1.52264
1.53231
1.53013
1.52155
1.52611
1.5393
1.56026
1.58348
1.59716
2.06904
4.15343
1.16318
1.16404
1.16339
1.16421
1.16608
1.16828
1.17151
1.17888
1.1857
1.18863
1.18952
1.19024
1.1906
1.19086
1.19243
1.19467
1.1976
1.20484
1.21241
1.21627
1.21828
1.21941
1.21894
1.21786
1.21878
1.22084
1.22418
1.23218
1.23947
1.24343
1.24604
1.24757
1.24652
1.2458
1.24743
1.25022
1.25572
1.26504
1.27141
1.27524
1.27826
1.28
1.27839
1.27803
1.28035
1.28393
1.29208
1.30196
1.30753
1.31118
1.31422
1.31423
1.31158
1.31229
1.31545
1.32048
1.33179
1.34242
1.3482
1.3523
1.35486
1.35185
1.34902
1.35057
1.35432
1.36042
1.37488
1.38798
1.39463
1.39913
1.40054
1.39487
1.39185
1.39454
1.39966
1.4074
1.42471
1.44077
1.44938
1.45544
1.45757
1.44921
1.44544
1.44959
1.4572
1.46965
1.48989
1.50652
1.51881
1.52984
1.5369
1.53103
1.52572
1.53246
1.54571
1.5663
1.58099
2.07025
4.12852
1.16286
1.16699
1.16878
1.17011
1.17174
1.17358
1.17555
1.17752
1.18194
1.18629
1.19004
1.19303
1.195
1.19569
1.1971
1.19915
1.20162
1.2055
1.21176
1.21625
1.2193
1.22167
1.2228
1.2219
1.22249
1.22433
1.22689
1.23307
1.24015
1.24428
1.24711
1.24937
1.24961
1.24851
1.24971
1.25215
1.25635
1.26537
1.27265
1.27683
1.28009
1.2826
1.28157
1.28055
1.28216
1.28502
1.29084
1.30174
1.30903
1.31316
1.31652
1.31784
1.31513
1.31484
1.31715
1.32073
1.32869
1.34163
1.34958
1.35413
1.35742
1.35621
1.35232
1.35268
1.35569
1.36002
1.37012
1.38638
1.39615
1.4013
1.40463
1.4012
1.39536
1.39592
1.40006
1.40569
1.41723
1.43621
1.44891
1.45624
1.46195
1.46034
1.45092
1.45048
1.45646
1.4651
1.48129
1.50001
1.51389
1.52542
1.53625
1.54072
1.53286
1.52934
1.53582
1.54864
1.56455
2.06817
4.10223
1.16372
1.17067
1.17326
1.17556
1.17728
1.17774
1.17626
1.17652
1.18014
1.18781
1.19304
1.19622
1.19878
1.20069
1.20153
1.20238
1.20319
1.20555
1.21203
1.21833
1.22216
1.22486
1.22669
1.22642
1.22626
1.22737
1.22926
1.23394
1.24171
1.24662
1.2497
1.25217
1.25313
1.25179
1.25212
1.25402
1.2571
1.2651
1.27438
1.27947
1.28292
1.28572
1.28562
1.28362
1.28422
1.28645
1.29018
1.30034
1.31062
1.31597
1.31956
1.32204
1.32004
1.31789
1.31893
1.32181
1.32655
1.33889
1.35065
1.35652
1.36028
1.36157
1.35748
1.35566
1.35754
1.36116
1.36691
1.38145
1.39604
1.40316
1.40773
1.40915
1.40251
1.39908
1.40143
1.40603
1.41287
1.42878
1.44622
1.4563
1.46298
1.46745
1.46232
1.45516
1.45729
1.46388
1.474
1.49223
1.50908
1.52153
1.53207
1.54138
1.54263
1.53375
1.53018
1.53517
1.5483
2.05844
4.07498
1.16638
1.17464
1.17735
1.1798
1.18108
1.17788
1.17608
1.17754
1.18212
1.19086
1.1968
1.20026
1.20303
1.20541
1.20528
1.20318
1.20373
1.2064
1.21379
1.22153
1.22573
1.22859
1.23095
1.23127
1.22966
1.22976
1.23138
1.23522
1.24369
1.24992
1.25317
1.25563
1.25715
1.2555
1.25443
1.25582
1.25852
1.26484
1.27584
1.28262
1.2863
1.28924
1.29023
1.28724
1.28634
1.28804
1.29102
1.29863
1.31139
1.3188
1.32285
1.32591
1.32539
1.32124
1.32101
1.3235
1.32698
1.3355
1.35027
1.35881
1.36324
1.36626
1.36432
1.35956
1.35962
1.36246
1.36669
1.37557
1.39283
1.40427
1.41007
1.4147
1.41279
1.40479
1.40371
1.40729
1.4125
1.42155
1.43961
1.45429
1.46277
1.46913
1.4729
1.46589
1.46026
1.4638
1.47094
1.483
1.50123
1.51598
1.52733
1.53724
1.54448
1.54356
1.53396
1.52713
1.53341
2.0419
4.04849
1.17019
1.17821
1.18086
1.18306
1.18092
1.17717
1.17769
1.1798
1.18548
1.19512
1.20128
1.20482
1.20757
1.20932
1.20637
1.20381
1.20505
1.20804
1.21632
1.22518
1.22988
1.23291
1.23534
1.23557
1.23269
1.23208
1.23356
1.23684
1.24548
1.25336
1.25715
1.25966
1.26135
1.25955
1.25728
1.25814
1.26044
1.26492
1.27613
1.28524
1.28975
1.29281
1.2946
1.2915
1.28897
1.29023
1.29289
1.29771
1.31026
1.32081
1.3259
1.32922
1.33059
1.32625
1.32389
1.32571
1.32878
1.33338
1.34675
1.35993
1.36612
1.36981
1.37153
1.36609
1.36263
1.36418
1.36781
1.37282
1.38606
1.40289
1.41171
1.41686
1.42033
1.41556
1.40872
1.40935
1.41337
1.41901
1.43098
1.44961
1.46214
1.46979
1.4758
1.47712
1.4692
1.46578
1.47014
1.47754
1.49097
1.50848
1.5218
1.53201
1.54072
1.54551
1.54307
1.53122
1.52334
2.02003
4.0228
1.17444
1.18169
1.18409
1.18357
1.17952
1.17887
1.18039
1.18288
1.18949
1.19973
1.20559
1.20901
1.21161
1.21114
1.20665
1.2059
1.2076
1.21057
1.21877
1.2287
1.23395
1.23706
1.23939
1.23928
1.23573
1.23463
1.23599
1.23868
1.24651
1.25626
1.26126
1.26399
1.26589
1.26446
1.26092
1.26077
1.26263
1.26575
1.27505
1.28677
1.29279
1.29615
1.29857
1.29664
1.29257
1.29276
1.29507
1.29832
1.30748
1.3211
1.3283
1.33228
1.33522
1.33316
1.32834
1.32822
1.33034
1.33346
1.34157
1.35807
1.36825
1.37327
1.37695
1.37543
1.36837
1.36693
1.36934
1.37301
1.37948
1.39616
1.41101
1.4181
1.4232
1.42587
1.41852
1.41294
1.41499
1.41962
1.42602
1.44046
1.45779
1.46836
1.47536
1.48136
1.48205
1.47356
1.47107
1.47577
1.48324
1.4975
1.51389
1.52587
1.5349
1.54195
1.54478
1.53897
1.52561
1.99698
3.99652
1.17811
1.18376
1.18434
1.18196
1.18082
1.18173
1.18379
1.18678
1.1943
1.204
1.20936
1.21195
1.21282
1.2106
1.20846
1.20883
1.21086
1.21371
1.22116
1.23165
1.23763
1.2407
1.24286
1.24255
1.23864
1.23722
1.23863
1.24116
1.24746
1.25846
1.26511
1.26837
1.27047
1.26957
1.26494
1.26347
1.26493
1.26758
1.27393
1.28688
1.29514
1.29931
1.30213
1.30204
1.29709
1.29547
1.2971
1.29994
1.3054
1.3193
1.33032
1.33559
1.33897
1.3398
1.3339
1.33038
1.33151
1.33448
1.33921
1.35279
1.36867
1.37602
1.38072
1.38331
1.3778
1.37109
1.37094
1.37365
1.37783
1.38749
1.40642
1.41894
1.42515
1.42979
1.42995
1.42171
1.41817
1.42074
1.42529
1.43257
1.44916
1.46539
1.47508
1.48193
1.48718
1.48591
1.4776
1.47601
1.48077
1.48807
1.50261
1.51789
1.52845
1.53585
1.54113
1.54085
1.53447
1.98268
3.96938
1.182
1.18531
1.18435
1.18373
1.18384
1.18576
1.18847
1.19195
1.19818
1.2063
1.2109
1.21294
1.21335
1.21261
1.21156
1.21275
1.21521
1.21799
1.22346
1.23353
1.24009
1.24357
1.24548
1.24519
1.24167
1.24024
1.24174
1.24424
1.24911
1.26015
1.26836
1.2723
1.27438
1.27375
1.26913
1.26662
1.26777
1.27025
1.27452
1.2859
1.29676
1.30186
1.30506
1.30637
1.30223
1.29844
1.29939
1.30221
1.30609
1.31635
1.33076
1.33822
1.34223
1.34464
1.34028
1.33366
1.33358
1.33651
1.34034
1.34803
1.36521
1.37752
1.38323
1.38717
1.38727
1.37789
1.37319
1.37529
1.37921
1.38437
1.39807
1.41609
1.42566
1.43103
1.43552
1.43371
1.42441
1.42219
1.42585
1.43105
1.44023
1.45781
1.47221
1.48077
1.48726
1.49219
1.49016
1.48185
1.48056
1.48514
1.49216
1.50634
1.52037
1.5293
1.5351
1.53705
1.54006
1.97785
3.94139
1.18195
1.18576
1.18741
1.18784
1.18884
1.19118
1.19382
1.19639
1.19955
1.20541
1.21052
1.21319
1.21552
1.21704
1.21678
1.21766
1.21975
1.22223
1.22547
1.23335
1.24121
1.2449
1.24674
1.24782
1.24625
1.24463
1.24621
1.24895
1.25253
1.26033
1.26974
1.27438
1.27624
1.27701
1.2747
1.27152
1.27216
1.27457
1.2776
1.28427
1.29623
1.30353
1.30707
1.30932
1.30825
1.30335
1.30304
1.30578
1.30921
1.31421
1.32681
1.3381
1.34313
1.34601
1.3469
1.34096
1.33786
1.34018
1.34393
1.34802
1.35807
1.37415
1.38316
1.38772
1.39051
1.38823
1.38011
1.37868
1.38208
1.38648
1.39313
1.40846
1.42371
1.43167
1.43671
1.43957
1.43582
1.42825
1.42797
1.43219
1.43772
1.4484
1.46567
1.47832
1.48615
1.49234
1.49645
1.49375
1.48613
1.48487
1.48889
1.49533
1.50854
1.52086
1.52846
1.53101
1.53942
1.98092
3.91271
1.18234
1.18923
1.19144
1.19377
1.19506
1.1963
1.19766
1.19874
1.19932
1.2021
1.20944
1.2158
1.21916
1.22168
1.22336
1.22318
1.2239
1.22551
1.22764
1.23107
1.23923
1.24531
1.24877
1.25143
1.2526
1.25119
1.25181
1.25373
1.25571
1.25846
1.26652
1.2742
1.27809
1.2808
1.28197
1.27935
1.27824
1.27939
1.28112
1.28361
1.29176
1.30288
1.30861
1.31201
1.31442
1.31172
1.30872
1.30968
1.31176
1.3143
1.31995
1.33388
1.34401
1.34893
1.35228
1.35165
1.34563
1.34449
1.34658
1.34936
1.35324
1.36456
1.37979
1.38776
1.39231
1.396
1.39276
1.38607
1.38609
1.38929
1.39307
1.39946
1.41484
1.42846
1.43547
1.44042
1.44456
1.44098
1.43437
1.43475
1.43891
1.44434
1.45485
1.471
1.48261
1.49008
1.49607
1.50034
1.49846
1.49107
1.48885
1.49183
1.49697
1.50859
1.51947
1.52429
1.53489
1.98844
3.8835
1.18241
1.19344
1.19698
1.19942
1.20138
1.20161
1.19996
1.1981
1.1982
1.20031
1.20796
1.21873
1.22418
1.22707
1.2295
1.2302
1.22866
1.22789
1.22769
1.22916
1.23533
1.24611
1.25259
1.25595
1.25866
1.25954
1.25773
1.25666
1.2561
1.25703
1.26182
1.27348
1.28159
1.28551
1.28812
1.28862
1.28511
1.28302
1.28281
1.28394
1.2876
1.29959
1.31062
1.31592
1.31903
1.32035
1.31593
1.31268
1.3126
1.31425
1.3175
1.32665
1.34267
1.35173
1.35617
1.35924
1.35664
1.35011
1.3485
1.3501
1.35285
1.35761
1.37164
1.38697
1.39466
1.39909
1.40226
1.39829
1.392
1.39129
1.39347
1.3972
1.40458
1.42108
1.43475
1.4421
1.44708
1.45055
1.44684
1.44066
1.44055
1.44415
1.44924
1.45913
1.47498
1.48676
1.49433
1.50033
1.50453
1.50359
1.49571
1.4916
1.49317
1.49691
1.50704
1.51504
1.5274
1.99602
3.8531
1.18276
1.19643
1.20233
1.20481
1.20684
1.20712
1.20211
1.19806
1.19857
1.2009
1.20747
1.22053
1.22884
1.23237
1.23487
1.23656
1.23364
1.22828
1.22708
1.2288
1.23338
1.2461
1.25661
1.26139
1.26433
1.26657
1.26381
1.25741
1.25515
1.25658
1.26025
1.27194
1.28498
1.29101
1.29391
1.29585
1.29256
1.28616
1.28411
1.28512
1.28766
1.29579
1.3109
1.31931
1.32333
1.32587
1.32399
1.31679
1.31437
1.31588
1.31864
1.32298
1.33617
1.35163
1.35879
1.36287
1.36513
1.36025
1.35321
1.3522
1.3545
1.35781
1.36383
1.37991
1.3944
1.40117
1.40557
1.40828
1.40234
1.3953
1.39517
1.39841
1.40271
1.41131
1.42819
1.44095
1.44791
1.45294
1.45668
1.45303
1.44577
1.44499
1.44867
1.4538
1.46338
1.47905
1.49113
1.49862
1.50424
1.50797
1.50751
1.49945
1.49318
1.49284
1.49576
1.50281
1.51742
1.9998
3.82122
1.18426
1.19823
1.20586
1.20908
1.21086
1.21025
1.20405
1.20025
1.20098
1.20313
1.20845
1.22178
1.2321
1.23659
1.23913
1.24052
1.23649
1.22932
1.22866
1.23068
1.23444
1.24572
1.25948
1.26586
1.26897
1.27075
1.26742
1.25865
1.25662
1.25851
1.26167
1.2707
1.2865
1.2948
1.29871
1.30073
1.29861
1.29044
1.28671
1.28768
1.28994
1.29421
1.30741
1.32066
1.32643
1.32968
1.33082
1.32461
1.31817
1.31822
1.32072
1.32388
1.33003
1.34598
1.35901
1.36484
1.36876
1.37013
1.36342
1.35696
1.35703
1.35974
1.36339
1.37165
1.3892
1.40133
1.40704
1.41086
1.41239
1.40618
1.40043
1.40116
1.40456
1.40892
1.41805
1.43467
1.44679
1.45346
1.45836
1.46138
1.45767
1.45073
1.44998
1.45353
1.45857
1.46785
1.48298
1.49463
1.50173
1.50689
1.51027
1.51037
1.50287
1.49415
1.49171
1.49204
1.50607
1.99434
3.78811
1.18644
1.19804
1.20763
1.21152
1.21347
1.21312
1.2078
1.20433
1.20532
1.20754
1.21135
1.22216
1.23408
1.23947
1.24221
1.24299
1.23832
1.23283
1.23235
1.23442
1.23757
1.24652
1.2609
1.26861
1.27205
1.27351
1.26968
1.26224
1.26036
1.26243
1.2656
1.27188
1.28547
1.29684
1.3016
1.30393
1.30387
1.29717
1.29165
1.29203
1.29424
1.29687
1.30294
1.31743
1.32738
1.33168
1.33464
1.33402
1.32604
1.32204
1.32325
1.32579
1.32904
1.33759
1.3547
1.36546
1.37034
1.37411
1.37454
1.3658
1.36075
1.36228
1.36576
1.36984
1.37936
1.39577
1.40605
1.41122
1.41584
1.41802
1.4113
1.40586
1.40677
1.40982
1.41397
1.42325
1.43985
1.45143
1.45766
1.46256
1.46653
1.46363
1.45664
1.45545
1.45852
1.46289
1.47076
1.48541
1.49725
1.50412
1.50883
1.51177
1.51231
1.506
1.49593
1.48817
1.49584
1.97804
3.75488
1.18951
1.19591
1.20613
1.21117
1.21337
1.21484
1.21373
1.21071
1.21122
1.21332
1.21569
1.22155
1.23273
1.23905
1.24154
1.24249
1.242
1.23883
1.23862
1.24084
1.2436
1.24819
1.25859
1.26714
1.27068
1.27195
1.27232
1.2692
1.26734
1.26915
1.27201
1.27475
1.28107
1.29355
1.30092
1.30417
1.30637
1.30611
1.30038
1.29781
1.29857
1.30028
1.30258
1.31059
1.32507
1.33326
1.33705
1.3397
1.33734
1.3288
1.32611
1.328
1.33105
1.33501
1.34609
1.36232
1.37113
1.37557
1.37865
1.37778
1.37012
1.36694
1.36854
1.37128
1.37521
1.38581
1.40255
1.41258
1.41771
1.42153
1.42264
1.41533
1.40985
1.41107
1.41481
1.41943
1.42923
1.44564
1.45724
1.46371
1.46843
1.47154
1.46911
1.46181
1.45951
1.46227
1.46659
1.47388
1.48772
1.49942
1.50603
1.51009
1.51228
1.51268
1.50856
1.49627
1.4914
1.95186
3.72218
1.19228
1.19477
1.20247
1.21104
1.21507
1.21749
1.21916
1.21771
1.21678
1.2179
1.21948
1.22158
1.22794
1.23712
1.24189
1.24467
1.24679
1.24655
1.24535
1.2464
1.24806
1.24984
1.25268
1.26179
1.26984
1.27392
1.27644
1.27796
1.27581
1.27472
1.27548
1.27687
1.27881
1.28583
1.29878
1.30634
1.31024
1.31282
1.31119
1.30491
1.30271
1.30356
1.30532
1.30778
1.31731
1.3314
1.33853
1.34216
1.34464
1.34123
1.33352
1.33212
1.33415
1.33687
1.34096
1.35283
1.36797
1.37586
1.38036
1.38434
1.38308
1.37493
1.37166
1.37341
1.37673
1.38147
1.39307
1.40833
1.41705
1.42197
1.42588
1.4264
1.41961
1.41544
1.41717
1.42101
1.42581
1.43571
1.45101
1.46175
1.46796
1.47247
1.4748
1.47263
1.46654
1.46437
1.46683
1.47081
1.47709
1.48943
1.50026
1.5064
1.50982
1.51159
1.51226
1.50811
1.5
1.92901
3.69013
1.19516
1.19599
1.19969
1.20983
1.21724
1.2207
1.22308
1.22432
1.22281
1.22203
1.22219
1.22263
1.22473
1.23352
1.2437
1.24869
1.2515
1.25365
1.25292
1.25114
1.24999
1.24914
1.25048
1.25582
1.26878
1.2777
1.28203
1.28477
1.2851
1.2807
1.27767
1.277
1.27815
1.28125
1.29258
1.3072
1.31412
1.31781
1.31988
1.31587
1.30922
1.30732
1.30757
1.30872
1.31188
1.32408
1.33806
1.34455
1.34841
1.35073
1.34532
1.33789
1.33673
1.33839
1.34124
1.34639
1.36033
1.3753
1.38273
1.38664
1.38971
1.38689
1.37885
1.37701
1.3795
1.38283
1.38711
1.39795
1.4125
1.42128
1.42616
1.43027
1.43199
1.42619
1.42228
1.42392
1.4277
1.43192
1.4397
1.45354
1.46411
1.4702
1.47447
1.47789
1.47821
1.4737
1.47084
1.47195
1.47512
1.47918
1.48854
1.49899
1.50534
1.50855
1.51059
1.50992
1.5133
1.92139
3.65736
1.19797
1.19838
1.20049
1.20855
1.21909
1.22429
1.22706
1.22922
1.22925
1.22558
1.22296
1.22305
1.22488
1.23083
1.24425
1.2528
1.25656
1.25907
1.26045
1.25634
1.25079
1.24938
1.25092
1.25427
1.26524
1.27984
1.28667
1.29028
1.29217
1.28847
1.28067
1.27791
1.27918
1.28194
1.28782
1.30356
1.31638
1.32178
1.32529
1.32568
1.31779
1.31044
1.30933
1.3109
1.31309
1.3182
1.33348
1.34594
1.35111
1.35388
1.35487
1.34796
1.34128
1.34145
1.34429
1.34791
1.3541
1.36793
1.38078
1.38716
1.39103
1.39379
1.39101
1.38436
1.38264
1.38459
1.38787
1.39228
1.40248
1.41695
1.42646
1.43188
1.43571
1.43738
1.43307
1.42892
1.42919
1.43225
1.43635
1.44244
1.45486
1.46683
1.47417
1.47887
1.48239
1.48445
1.48188
1.47716
1.47554
1.47709
1.48003
1.48634
1.49638
1.50362
1.50794
1.50861
1.51739
1.92367
3.6238
1.20105
1.20108
1.20287
1.20828
1.22015
1.22759
1.23076
1.23292
1.23389
1.22926
1.22461
1.22475
1.22672
1.23058
1.2429
1.25559
1.26093
1.26366
1.26509
1.26071
1.25283
1.25129
1.253
1.25568
1.26257
1.27889
1.28963
1.29392
1.29667
1.29591
1.28608
1.28101
1.28215
1.28471
1.28846
1.29818
1.31482
1.32406
1.32807
1.33031
1.32825
1.31831
1.31356
1.31465
1.31718
1.32046
1.327
1.34073
1.35039
1.35457
1.35744
1.35829
1.35245
1.34803
1.34894
1.35144
1.35425
1.35934
1.37235
1.38487
1.39134
1.39526
1.39891
1.39715
1.39041
1.38825
1.39008
1.39321
1.39748
1.40666
1.42082
1.43061
1.43609
1.44026
1.443
1.44064
1.43597
1.43454
1.43645
1.44017
1.44562
1.45679
1.46972
1.47791
1.4827
1.48615
1.48889
1.48859
1.4832
1.4788
1.47832
1.48004
1.4839
1.49341
1.50255
1.50598
1.51656
1.93222
3.59061
1.20455
1.20405
1.20576
1.20914
1.21963
1.22972
1.23402
1.23603
1.23701
1.23335
1.22777
1.22766
1.22972
1.23262
1.2409
1.25559
1.26357
1.26706
1.26856
1.26565
1.25781
1.25528
1.25717
1.26003
1.26445
1.27482
1.28799
1.29409
1.29657
1.297
1.29456
1.28847
1.28777
1.29011
1.293
1.29676
1.30681
1.32039
1.32714
1.33035
1.33264
1.33078
1.32349
1.32103
1.32205
1.32349
1.32529
1.33119
1.34498
1.35502
1.35968
1.363
1.36423
1.35873
1.35377
1.35355
1.35578
1.3589
1.36381
1.37655
1.3898
1.39688
1.40085
1.40398
1.40306
1.39713
1.39438
1.39556
1.39805
1.40167
1.40953
1.42396
1.43487
1.44084
1.44504
1.44863
1.44815
1.44265
1.43957
1.44105
1.44454
1.44924
1.45913
1.47218
1.48073
1.48548
1.48911
1.49231
1.49357
1.48851
1.48174
1.47922
1.47996
1.48259
1.49202
1.49926
1.5115
1.94041
3.55761
1.20857
1.20723
1.20866
1.21084
1.21735
1.22936
1.23577
1.23844
1.23996
1.23856
1.23337
1.23246
1.23444
1.23675
1.24003
1.25053
1.26178
1.26642
1.26868
1.2705
1.26767
1.26281
1.26295
1.26506
1.26728
1.27022
1.27943
1.29098
1.29681
1.3001
1.3023
1.29999
1.29538
1.29502
1.29643
1.29815
1.30069
1.30979
1.32357
1.33156
1.33585
1.33889
1.33755
1.33048
1.32663
1.32616
1.32729
1.32919
1.33528
1.35015
1.36095
1.36573
1.36873
1.37019
1.36526
1.3596
1.35878
1.36042
1.36325
1.36801
1.38074
1.39424
1.40128
1.40577
1.40975
1.40976
1.40275
1.39814
1.39897
1.40207
1.40607
1.41365
1.42829
1.43983
1.446
1.45002
1.45324
1.45422
1.449
1.44471
1.44579
1.4493
1.45327
1.46061
1.47333
1.48297
1.48819
1.4919
1.49514
1.49724
1.49343
1.48506
1.48079
1.48068
1.48309
1.48909
1.50268
1.94114
3.52359
1.21337
1.21064
1.21129
1.21287
1.21548
1.22526
1.23626
1.24112
1.24346
1.24479
1.24167
1.23818
1.23831
1.23947
1.24093
1.24439
1.2559
1.26667
1.2717
1.27461
1.27648
1.27306
1.26888
1.26813
1.26829
1.26906
1.27189
1.28293
1.29698
1.30421
1.30812
1.31028
1.30713
1.30132
1.29889
1.29847
1.29947
1.30245
1.31359
1.32995
1.33873
1.34321
1.34612
1.34461
1.33614
1.33061
1.32951
1.33028
1.33285
1.34092
1.35705
1.36697
1.37158
1.37504
1.37636
1.37036
1.36327
1.36209
1.36413
1.3675
1.37309
1.38718
1.40093
1.40743
1.41105
1.4137
1.41344
1.40673
1.40252
1.40393
1.40733
1.41195
1.4198
1.43287
1.44354
1.44974
1.45406
1.4576
1.4592
1.45458
1.4497
1.45021
1.45349
1.45747
1.46395
1.47541
1.48496
1.49064
1.49451
1.49759
1.49926
1.497
1.4896
1.48288
1.48157
1.48191
1.4943
1.93114
3.48696
1.2191
1.21491
1.21363
1.21452
1.21617
1.22065
1.23339
1.24324
1.24741
1.24958
1.25006
1.24542
1.24155
1.24094
1.24198
1.24384
1.24902
1.26331
1.27422
1.27894
1.28156
1.28277
1.2781
1.27211
1.26934
1.26911
1.27091
1.27537
1.29068
1.30589
1.31283
1.31679
1.31817
1.31189
1.30285
1.29932
1.29996
1.30257
1.30743
1.32271
1.33902
1.34608
1.3497
1.3523
1.34802
1.33627
1.33181
1.33287
1.33507
1.33869
1.34941
1.366
1.37421
1.37733
1.37949
1.37995
1.37279
1.36636
1.36678
1.36985
1.37426
1.38108
1.39315
1.40407
1.40992
1.41365
1.41675
1.41766
1.41279
1.40974
1.41135
1.41475
1.41845
1.4237
1.43458
1.44578
1.45275
1.45722
1.46104
1.46333
1.46045
1.45684
1.45703
1.45937
1.46215
1.46579
1.4741
1.48437
1.49136
1.49573
1.49868
1.50076
1.50075
1.49525
1.48724
1.48123
1.48789
1.91018
3.44774
1.22448
1.22076
1.21653
1.21674
1.21829
1.22051
1.22781
1.24205
1.25001
1.25336
1.2552
1.25413
1.24764
1.24382
1.24387
1.24547
1.24808
1.2564
1.27257
1.28171
1.28581
1.28833
1.28755
1.27839
1.27117
1.27058
1.27245
1.27544
1.28355
1.30298
1.31518
1.3198
1.32262
1.32246
1.31151
1.30287
1.30279
1.3053
1.30906
1.31673
1.33403
1.34662
1.35155
1.35356
1.35308
1.3472
1.33899
1.33783
1.34012
1.34316
1.34805
1.35864
1.37107
1.3771
1.37982
1.38133
1.38168
1.37758
1.37386
1.37485
1.37791
1.38112
1.38542
1.39489
1.40608
1.41321
1.41765
1.42091
1.4234
1.42112
1.41738
1.41719
1.41973
1.42321
1.42776
1.43627
1.44738
1.45549
1.46074
1.46477
1.46864
1.46911
1.46538
1.46252
1.46214
1.464
1.46726
1.47304
1.48294
1.49194
1.49755
1.50048
1.50224
1.50321
1.5012
1.49197
1.48737
1.88268
3.40859
1.22843
1.22839
1.22183
1.21994
1.22095
1.2227
1.22561
1.23569
1.24944
1.25579
1.25867
1.26017
1.25705
1.24947
1.24695
1.2481
1.2502
1.25384
1.26598
1.28129
1.28824
1.2916
1.29337
1.28803
1.27683
1.27411
1.27604
1.27912
1.28403
1.29542
1.31142
1.31915
1.32219
1.32306
1.32116
1.31342
1.30964
1.31121
1.31416
1.31774
1.32524
1.33902
1.34813
1.35193
1.35444
1.35634
1.3526
1.34717
1.34667
1.34841
1.35032
1.35289
1.36096
1.37256
1.37924
1.38258
1.38591
1.38842
1.38577
1.3809
1.38017
1.38267
1.386
1.38983
1.3967
1.4075
1.4161
1.42172
1.4258
1.42918
1.42885
1.4254
1.42427
1.42566
1.42748
1.43022
1.43641
1.44838
1.45923
1.46574
1.46982
1.47303
1.47451
1.47239
1.46809
1.46572
1.46622
1.46856
1.4725
1.4812
1.4922
1.49901
1.50209
1.50374
1.50515
1.50334
1.49808
1.86389
3.37145
1.2319
1.23484
1.23023
1.22472
1.22406
1.22516
1.22668
1.23026
1.24306
1.25608
1.26141
1.264
1.26494
1.25913
1.25232
1.2517
1.2534
1.25561
1.26025
1.27412
1.28661
1.29137
1.29354
1.29437
1.28897
1.28214
1.28184
1.2841
1.28666
1.29006
1.30031
1.31397
1.32099
1.32423
1.32706
1.32695
1.32095
1.31778
1.31849
1.32014
1.32227
1.32715
1.33945
1.35055
1.35648
1.35987
1.36271
1.36102
1.3553
1.3523
1.35234
1.35386
1.35649
1.36347
1.37578
1.38447
1.38853
1.3914
1.39416
1.39276
1.3877
1.38623
1.38791
1.39011
1.39284
1.39816
1.40928
1.41966
1.4261
1.43051
1.4347
1.4369
1.43381
1.42946
1.42843
1.43057
1.43417
1.43984
1.4509
1.46225
1.4691
1.47323
1.47633
1.47825
1.47765
1.47372
1.4694
1.46863
1.47026
1.47319
1.48087
1.49324
1.50073
1.50338
1.50482
1.50465
1.50779
1.85699
3.33601
1.2343
1.23906
1.23901
1.23265
1.22783
1.2275
1.22888
1.23082
1.23601
1.25098
1.26239
1.26688
1.26902
1.26879
1.26151
1.25651
1.25669
1.25844
1.26062
1.26554
1.27882
1.29005
1.29513
1.29814
1.29973
1.29509
1.28895
1.28762
1.28848
1.29024
1.29306
1.3022
1.31717
1.3264
1.33067
1.33379
1.33451
1.32912
1.32378
1.32188
1.32241
1.32469
1.32953
1.34273
1.35596
1.36255
1.36619
1.36936
1.36784
1.36057
1.35637
1.35636
1.35809
1.3609
1.36786
1.38054
1.38899
1.39341
1.3964
1.39937
1.39919
1.39363
1.3904
1.39138
1.39395
1.39707
1.40173
1.41201
1.42354
1.43112
1.436
1.43985
1.44255
1.44041
1.43573
1.43441
1.43582
1.43847
1.44251
1.45125
1.4636
1.472
1.47629
1.47887
1.48097
1.48206
1.4794
1.47383
1.4718
1.47333
1.47571
1.48161
1.49347
1.50077
1.5036
1.50384
1.51108
1.85876
3.30194
1.23521
1.24298
1.24466
1.24313
1.23518
1.23125
1.23146
1.23278
1.23484
1.24182
1.25798
1.26784
1.27195
1.27432
1.27318
1.26575
1.26178
1.2616
1.26214
1.26374
1.26853
1.28269
1.29534
1.30123
1.3046
1.30623
1.30171
1.29476
1.29177
1.29117
1.29234
1.29551
1.30645
1.32355
1.33292
1.33728
1.34074
1.34136
1.33381
1.32583
1.32429
1.32605
1.32919
1.33512
1.34994
1.36261
1.3682
1.37133
1.37363
1.37202
1.3644
1.36077
1.36176
1.36405
1.36722
1.37328
1.3842
1.39272
1.39754
1.40069
1.4035
1.40456
1.40038
1.39691
1.39732
1.39909
1.40126
1.40484
1.41375
1.42621
1.43481
1.4401
1.44411
1.44749
1.44739
1.44197
1.4381
1.43886
1.44225
1.44641
1.45387
1.46569
1.47467
1.47914
1.48138
1.4829
1.48477
1.48421
1.47916
1.47597
1.47648
1.47841
1.4823
1.49167
1.49928
1.50181
1.51053
1.86499
3.2678
1.23355
1.24603
1.24873
1.25017
1.24585
1.23717
1.23429
1.23465
1.23593
1.23871
1.2484
1.26538
1.27431
1.27793
1.28008
1.27794
1.26943
1.2644
1.26403
1.26544
1.26774
1.27333
1.289
1.30199
1.30744
1.31065
1.31227
1.30661
1.29671
1.29318
1.29429
1.29671
1.30125
1.31524
1.33193
1.33928
1.34271
1.34526
1.34461
1.33497
1.32888
1.32959
1.33233
1.33652
1.34342
1.35598
1.36601
1.37091
1.3738
1.37581
1.37575
1.3711
1.36842
1.3691
1.37094
1.37282
1.37639
1.38525
1.3946
1.40055
1.40448
1.40816
1.41083
1.408
1.4027
1.40097
1.4024
1.40519
1.40889
1.41623
1.42903
1.43936
1.44506
1.44857
1.4508
1.45098
1.44792
1.44452
1.44476
1.44767
1.45127
1.45633
1.46629
1.47538
1.47981
1.48225
1.4848
1.48755
1.48892
1.48578
1.48145
1.47981
1.4804
1.48234
1.48945
1.49614
1.50688
1.87098
3.23182
1.22855
1.24651
1.2518
1.25409
1.25445
1.24719
1.23891
1.23737
1.23873
1.24064
1.24418
1.2562
1.27245
1.27997
1.28337
1.28501
1.28182
1.27256
1.26786
1.26793
1.26958
1.27225
1.27986
1.29662
1.30772
1.31245
1.31544
1.31663
1.30849
1.29925
1.29829
1.30044
1.30347
1.30943
1.32332
1.33624
1.34188
1.34475
1.34656
1.34625
1.34035
1.33679
1.33774
1.34019
1.34287
1.34688
1.35634
1.36664
1.37315
1.37747
1.38147
1.38324
1.38002
1.37627
1.37503
1.37524
1.37627
1.37877
1.38645
1.39778
1.40572
1.40999
1.41284
1.41492
1.41327
1.4086
1.40637
1.40733
1.41004
1.41371
1.42001
1.43182
1.44197
1.44747
1.45074
1.45337
1.45593
1.45554
1.45155
1.44972
1.45162
1.45501
1.45894
1.46592
1.47459
1.48046
1.48416
1.4874
1.49054
1.49316
1.49245
1.48768
1.48302
1.48161
1.48258
1.48708
1.49919
1.8711
3.19319
1.22379
1.24058
1.25214
1.25635
1.25862
1.25785
1.24903
1.24267
1.24236
1.24366
1.24542
1.24935
1.26294
1.27805
1.28464
1.2881
1.29037
1.28616
1.27553
1.27154
1.2725
1.2746
1.27755
1.2859
1.30214
1.31171
1.31568
1.31819
1.31915
1.31233
1.30596
1.30569
1.30765
1.31009
1.31455
1.32598
1.33789
1.34432
1.34809
1.35157
1.35306
1.34876
1.34411
1.34278
1.34339
1.34515
1.34819
1.35667
1.36977
1.37917
1.38406
1.38754
1.38993
1.38728
1.38156
1.37847
1.37877
1.38052
1.38342
1.39038
1.40119
1.4087
1.41276
1.41551
1.41828
1.4191
1.41577
1.41279
1.41319
1.41591
1.4193
1.42395
1.43334
1.44348
1.4502
1.45448
1.45733
1.46048
1.46195
1.45823
1.45502
1.45579
1.45829
1.46111
1.46605
1.47397
1.48114
1.4864
1.49053
1.49382
1.49645
1.49706
1.49285
1.48592
1.48258
1.48264
1.49202
1.86196
3.15223
1.22352
1.23076
1.24762
1.2574
1.2612
1.26333
1.26151
1.25201
1.24642
1.24613
1.2475
1.24946
1.2544
1.26954
1.2839
1.28994
1.29291
1.29441
1.28957
1.28002
1.2767
1.27733
1.27908
1.28245
1.29167
1.30645
1.31529
1.31949
1.32236
1.32393
1.31886
1.31269
1.31092
1.31188
1.31412
1.31791
1.32757
1.34078
1.34953
1.3541
1.35759
1.3596
1.35562
1.34873
1.34552
1.34626
1.34882
1.35253
1.36104
1.37518
1.38464
1.38944
1.39227