/*--------------------------------*- C++ -*----------------------------------*\
  =========                 |
  \\      /  F ield         | OpenFOAM: The Open Source CFD Toolbox
   \\    /   O peration     | Website:  https://openfoam.org
    \\  /    A nd           | Version:  12
     \\/     M anipulation  |
\*---------------------------------------------------------------------------*/
FoamFile
{
    format      ascii;
    class       volVectorField;
    location    "7.37";
    object      U;
}
// * * * * * * * * * * * * * * * * * * * * * * * * * * * * * * * * * * * * * //

dimensions      [0 1 -1 0 0 0 0];

internalField   nonuniform List<vector> 
22702
(
(2 -1.21148e-13 0)
(2 7.46966e-14 0)
(2.05108 -0.0901762 0)
(2 -1.09787e-09 0)
(1.97752 0.0312902 0)
(2 -1.06152e-14 0)
(1.82986 0.228476 0)
(2 -7.08892e-14 0)
(2 -7.47365e-14 0)
(2.14972 -0.265842 0)
(1.82996 0.228615 0)
(1.82963 0.228326 0)
(2 -2.71381e-14 0)
(1.83176 0.228609 0)
(2.04187 -0.0752775 0)
(2 -1.2685e-13 0)
(2 -5.77147e-14 0)
(2 1.97715e-14 0)
(1.82951 0.228364 0)
(2 4.06229e-14 0)
(1.83131 0.229408 0)
(2 -5.36009e-13 0)
(1.82972 0.228599 0)
(2.1127 -0.268771 0)
(1.83185 0.230398 0)
(2.09763 -0.26973 0)
(2 -1.23636e-13 0)
(1.82858 0.228104 0)
(2.14043 -0.273782 0)
(2.1123 -0.267796 0)
(2 -4.78198e-14 0)
(1.82933 0.228582 0)
(2 -5.99072e-14 0)
(2 4.16461e-14 0)
(2 -2.41978e-13 0)
(1.84475 0.214474 0)
(1.83079 0.230311 0)
(1.82965 0.228687 0)
(2 -1.44282e-13 0)
(2 -1.23047e-13 0)
(2.14745 -0.259424 0)
(2 -6.02635e-14 0)
(1.91698 0.123032 0)
(2 -1.98996e-13 0)
(1.82892 0.228317 0)
(2 -1.4298e-13 0)
(2 2.48634e-13 0)
(2 -3.14104e-13 0)
(2 -2.30203e-13 0)
(2.11568 -0.263811 0)
(2 -1.12888e-13 0)
(2.11683 -0.265743 0)
(2 -1.38353e-13 0)
(1.83003 0.228703 0)
(2 -1.24164e-13 0)
(1.82932 0.228765 0)
(2 6.9625e-14 0)
(2 1.49834e-09 0)
(2 2.27829e-13 0)
(2 -5.82694e-14 0)
(2.10613 -0.271826 0)
(2 -5.90788e-14 0)
(2 -1.10857e-13 0)
(2.12417 -0.262005 0)
(2 -5.28792e-14 0)
(2.09786 -0.260931 0)
(2 -6.80823e-14 0)
(2 -1.43786e-13 0)
(2 -4.05797e-14 0)
(2.15517 -0.257166 0)
(2 -1.62219e-13 0)
(1.83115 0.229321 0)
(1.89805 0.147576 0)
(2 1.47289e-09 0)
(1.83142 0.229581 0)
(1.82157 0.23695 0)
(2.11288 -0.266294 0)
(1.82924 0.228501 0)
(2.11086 -0.263456 0)
(2 -8.94468e-14 0)
(1.8294 0.228626 0)
(2.11221 -0.26357 0)
(1.82914 0.228312 0)
(1.83024 0.228657 0)
(2 1.07538e-13 0)
(2 8.63925e-07 0)
(2 -1.14595e-13 0)
(2 8.03024e-14 0)
(2.02561 -0.0453957 0)
(2.15172 -0.257536 0)
(1.83004 0.22851 0)
(2 -1.22586e-14 0)
(2 -6.57856e-11 0)
(2.11562 -0.267293 0)
(2 -7.19347e-15 0)
(1.8311 0.229578 0)
(2.11527 -0.263053 0)
(2 2.62547e-08 0)
(2 -8.70313e-14 0)
(2 -2.15973e-13 0)
(2 4.1052e-14 0)
(1.91661 0.121234 0)
(1.8292 0.228486 0)
(2.11998 -0.270335 0)
(2 -4.27365e-10 0)
(2 -7.92798e-10 0)
(1.95823 0.0608375 0)
(2 9.4118e-09 0)
(2.11344 -0.264084 0)
(2 -2.63642e-13 0)
(1.82848 0.22817 0)
(1.82971 0.229197 0)
(2 4.18853e-09 0)
(2 -1.80732e-13 0)
(2.10323 -0.277907 0)
(2.09952 -0.275436 0)
(2.15007 -0.261397 0)
(2 5.53744e-14 0)
(2 -1.32883e-07 0)
(2 -1.38545e-14 0)
(2 9.91102e-14 0)
(2 9.48831e-08 0)
(2.03173 -0.0563394 0)
(2 -1.02513e-07 0)
(1.85567 0.200175 0)
(1.98158 0.0217363 0)
(1.83055 0.229122 0)
(2 -3.40788e-13 0)
(1.82978 0.229048 0)
(1.82931 0.22845 0)
(1.83136 0.229273 0)
(1.83082 0.228747 0)
(2 7.36502e-14 0)
(2.14887 -0.257119 0)
(2 -2.55935e-14 0)
(2.09398 -0.264626 0)
(2 5.03227e-14 0)
(2 -2.06383e-13 0)
(2 4.50517e-14 0)
(2 -7.51348e-14 0)
(1.82963 0.229128 0)
(2 3.20478e-09 0)
(2 -2.26899e-13 0)
(2 -2.28627e-13 0)
(2 1.31173e-13 0)
(1.83246 0.229309 0)
(2 -3.45874e-14 0)
(1.99531 0.0121974 0)
(2 3.42146e-14 0)
(2 -4.94986e-13 0)
(2 -7.0594e-11 0)
(2 3.32304e-14 0)
(2.11439 -0.262522 0)
(2 -4.29629e-14 0)
(1.9954 0.00941974 0)
(2 1.27048e-14 0)
(2.112 -0.263068 0)
(2 -1.79893e-13 0)
(2 -7.69291e-14 0)
(2 -8.76619e-14 0)
(1.8299 0.228861 0)
(2 -1.55633e-14 0)
(1.83059 0.228479 0)
(2.10981 -0.281441 0)
(2.11068 -0.271683 0)
(1.82954 0.228345 0)
(1.82982 0.228441 0)
(2 7.59716e-14 0)
(1.96892 0.0472508 0)
(1.90187 0.144847 0)
(2 -1.13587e-13 0)
(1.83061 0.229165 0)
(2.10616 -0.264756 0)
(1.844 0.214977 0)
(2 6.14086e-14 0)
(2 1.88794e-13 0)
(2 -3.74825e-15 0)
(2 -1.51685e-14 0)
(1.83191 0.228823 0)
(1.86157 0.193072 0)
(2 -9.28483e-14 0)
(1.82961 0.228826 0)
(2.09398 -0.253564 0)
(1.82985 0.22909 0)
(2 -1.14606e-13 0)
(2.09728 -0.260185 0)
(2 -1.9368e-13 0)
(2.11165 -0.265005 0)
(2.09779 -0.27346 0)
(2.00008 -0.000139423 0)
(2 -2.07757e-13 0)
(2 -1.55734e-13 0)
(1.82853 0.228474 0)
(2 -2.25026e-14 0)
(2 -4.46868e-13 0)
(1.83208 0.22916 0)
(2 -2.45783e-13 0)
(1.82829 0.228229 0)
(1.82958 0.228829 0)
(2.10316 -0.265804 0)
(2 8.37124e-14 0)
(2 -2.80145e-13 0)
(2.10923 -0.262354 0)
(1.83175 0.229186 0)
(2 -1.29528e-13 0)
(2 -1.9765e-13 0)
(2 -1.10355e-13 0)
(1.83176 0.229203 0)
(2 -2.09518e-14 0)
(2.11847 -0.265527 0)
(2 -6.62065e-11 0)
(2 -9.82537e-14 0)
(1.83137 0.228745 0)
(1.83137 0.228992 0)
(1.82833 0.228167 0)
(2 -3.25863e-14 0)
(1.99999 2.44249e-05 0)
(2 -7.89977e-14 0)
(2 -6.17247e-14 0)
(2 -1.34745e-13 0)
(1.83153 0.229304 0)
(2 -3.3051e-14 0)
(2.08469 -0.253891 0)
(1.82307 0.233909 0)
(1.83195 0.229114 0)
(1.8318 0.229219 0)
(2 1.89546e-07 0)
(2 -2.69187e-14 0)
(2 -2.13646e-13 0)
(2.11234 -0.271163 0)
(1.832 0.22904 0)
(1.9171 0.130252 0)
(2 6.32996e-15 0)
(1.83112 0.229519 0)
(2.09413 -0.258806 0)
(2.10458 -0.263104 0)
(1.83111 0.229631 0)
(1.83119 0.227565 0)
(2 -4.49186e-14 0)
(1.83 0.232516 0)
(2.14272 -0.263137 0)
(1.85046 0.20731 0)
(2 -1.65557e-13 0)
(2 -1.81636e-13 0)
(2 -2.04841e-13 0)
(2 -5.48417e-13 0)
(1.83191 0.22911 0)
(2 -1.55642e-13 0)
(1.90461 0.144933 0)
(1.98412 0.0277053 0)
(2 -2.6796e-13 0)
(2 -6.34005e-14 0)
(1.83187 0.229289 0)
(2.10018 -0.265308 0)
(2.07827 -0.163503 0)
(2 -5.55991e-15 0)
(1.83215 0.228506 0)
(2.12311 -0.264887 0)
(1.8292 0.232865 0)
(2 3.22137e-14 0)
(2 7.08478e-15 0)
(2 -1.96343e-13 0)
(2 -4.68451e-14 0)
(2 -5.47374e-14 0)
(2 -4.8079e-14 0)
(2 -1.70905e-13 0)
(2.10923 -0.267461 0)
(2.08548 -0.168847 0)
(2.10242 -0.262006 0)
(1.83126 0.228924 0)
(2 1.49712e-13 0)
(2 1.07485e-13 0)
(2 -1.53226e-07 0)
(2 -1.61962e-13 0)
(1.8508 0.213765 0)
(2 -1.11548e-07 0)
(2.10513 -0.266524 0)
(2 -3.75273e-14 0)
(2.11777 -0.279259 0)
(2.10702 -0.261353 0)
(1.83199 0.229161 0)
(2.11319 -0.265562 0)
(1.83133 0.229322 0)
(2 -3.86947e-14 0)
(2 -7.85729e-14 0)
(2 -1.40534e-13 0)
(2.00088 -0.00157599 0)
(2.10162 -0.257563 0)
(2.14071 -0.262897 0)
(2 -2.9615e-07 0)
(2 -1.48565e-07 0)
(2.11564 -0.281045 0)
(2 2.32467e-09 0)
(1.8294 0.228843 0)
(2.13175 -0.25916 0)
(2 -2.2528e-14 0)
(2 -3.27436e-11 0)
(1.8298 0.228678 0)
(2.12578 -0.275705 0)
(2 -3.00895e-13 0)
(1.82853 0.231311 0)
(2.10381 -0.269543 0)
(1.83185 0.229269 0)
(2 -1.84926e-13 0)
(2.11536 -0.285796 0)
(2.00089 -0.00149643 0)
(2 -9.29371e-14 0)
(2 2.69175e-06 0)
(2 8.49779e-14 0)
(2.11679 -0.265228 0)
(2 -4.15026e-13 0)
(2 -1.74869e-07 0)
(2 6.22803e-08 0)
(1.99999 1.18417e-05 0)
(1.9961 -6.27316e-05 0)
(1.89547 0.150808 0)
(2 -2.38224e-11 0)
(2.1021 -0.253559 0)
(2 -1.58826e-11 0)
(2 1.60988e-06 0)
(2 -4.07142e-14 0)
(2 -4.4529e-14 0)
(2 -4.16498e-14 0)
(2 7.4865e-14 0)
(2 -5.93983e-13 0)
(1.83039 0.228868 0)
(2 3.69571e-13 0)
(1.82841 0.228334 0)
(2 7.81297e-14 0)
(2 1.51221e-14 0)
(2 1.41732e-13 0)
(2.118 -0.261979 0)
(2 1.48645e-13 0)
(1.83209 0.229551 0)
(2.10001 -0.264749 0)
(2 1.62114e-13 0)
(1.87998 0.166747 0)
(2 -2.37033e-13 0)
(2 -2.79926e-13 0)
(1.83024 0.229077 0)
(2 -1.28904e-13 0)
(2 -1.02293e-08 0)
(2 -8.58126e-14 0)
(1.83075 0.227244 0)
(2 5.39857e-10 0)
(2 -4.03922e-15 0)
(1.83233 0.2315 0)
(1.83033 0.228681 0)
(2 -3.63983e-14 0)
(1.96471 0.0562016 0)
(2 8.39593e-15 0)
(2 6.54954e-14 0)
(2.09639 -0.270573 0)
(2 -2.36649e-13 0)
(2 -6.80568e-14 0)
(2 -9.18131e-14 0)
(2.10736 -0.260738 0)
(2 -1.46183e-13 0)
(2 1.12924e-13 0)
(2 9.29502e-14 0)
(2 9.17529e-14 0)
(2.09595 -0.264433 0)
(2 -1.95444e-13 0)
(2 -7.28991e-14 0)
(2 -8.90233e-14 0)
(2 1.51262e-14 0)
(2 -1.13641e-13 0)
(2.14193 -0.254331 0)
(1.99998 3.73082e-05 0)
(1.83065 0.228537 0)
(2 1.16533e-13 0)
(1.99998 -3.09614e-05 0)
(1.83008 0.228668 0)
(1.8292 0.228053 0)
(2 -8.93596e-15 0)
(2 -4.18526e-14 0)
(2.09862 -0.273943 0)
(2.05095 -0.130325 0)
(1.82933 0.22849 0)
(2 3.07377e-14 0)
(2 -1.01071e-13 0)
(2 -4.30403e-14 0)
(1.83196 0.229222 0)
(2.15668 -0.257411 0)
(2 6.13153e-14 0)
(1.83089 0.228847 0)
(2 -9.73025e-16 0)
(2 -1.48248e-13 0)
(2.0852 -0.211299 0)
(2.09624 -0.205671 0)
(2 2.60364e-14 0)
(2.1058 -0.260938 0)
(2.11428 -0.264829 0)
(2 -1.10916e-13 0)
(2 2.26288e-14 0)
(2 3.91735e-14 0)
(2 -6.20543e-14 0)
(2 -9.45856e-11 0)
(2 -4.94443e-14 0)
(2 -4.45414e-15 0)
(1.83116 0.229061 0)
(1.95707 0.0603414 0)
(1.83335 0.219804 0)
(2.14023 -0.254272 0)
(2.03566 -0.060668 0)
(1.82917 0.229041 0)
(2 -2.87454e-13 0)
(1.83159 0.229399 0)
(1.82919 0.228691 0)
(2.1084 -0.266218 0)
(2.06425 -0.157849 0)
(2 6.79836e-13 0)
(2.11739 -0.264516 0)
(2 7.06064e-14 0)
(1.82344 0.236278 0)
(2 -1.48942e-13 0)
(2 1.41145e-13 0)
(2 -1.57357e-13 0)
(2 1.91896e-14 0)
(1.83192 0.229229 0)
(2 -3.0111e-13 0)
(2 -7.62182e-14 0)
(2 -7.43991e-14 0)
(2 1.53845e-09 0)
(2 5.2727e-14 0)
(2 -3.96151e-13 0)
(2 -2.47009e-13 0)
(1.93935 0.0907755 0)
(1.82968 0.228839 0)
(2 1.47236e-13 0)
(1.83128 0.228903 0)
(2 2.40636e-14 0)
(2 9.45231e-14 0)
(2.10722 -0.261867 0)
(2 -5.39798e-14 0)
(2 -1.58219e-13 0)
(2 -4.40816e-13 0)
(2 -1.59128e-13 0)
(1.83162 0.229217 0)
(1.87223 0.181058 0)
(2 -1.50551e-13 0)
(2 -2.15287e-13 0)
(2.10638 -0.263343 0)
(1.83139 0.22891 0)
(1.83131 0.228915 0)
(2 6.56251e-14 0)
(1.83134 0.228891 0)
(1.83187 0.229104 0)
(1.83136 0.228956 0)
(2 7.71741e-15 0)
(2.05131 -0.120128 0)
(2 -1.18927e-13 0)
(1.83195 0.228903 0)
(2.00072 -0.00546249 0)
(1.83128 0.228931 0)
(2 5.31841e-14 0)
(2.10789 -0.265717 0)
(2.00038 -0.000571522 0)
(1.83068 0.228644 0)
(2 9.38354e-14 0)
(2 -2.0532e-13 0)
(2 -5.13318e-11 0)
(2 -2.15167e-11 0)
(2.11477 -0.263471 0)
(1.83197 0.229262 0)
(1.84696 0.212418 0)
(2 4.87512e-14 0)
(1.83222 0.228054 0)
(1.83198 0.229196 0)
(1.82922 0.228465 0)
(2 -8.94576e-14 0)
(1.9213 0.118901 0)
(1.83128 0.230048 0)
(2 -8.02669e-14 0)
(2 -1.29658e-13 0)
(1.88146 0.170124 0)
(1.97864 0.0369678 0)
(1.83133 0.228719 0)
(2.02276 -0.0434406 0)
(1.83129 0.228869 0)
(2 -9.1162e-14 0)
(1.83129 0.228988 0)
(1.83133 0.228964 0)
(1.83135 0.229059 0)
(1.83104 0.228793 0)
(2 -9.31561e-14 0)
(1.83709 0.234653 0)
(2.03387 -0.0659864 0)
(2.04082 -0.0803386 0)
(2 -2.63761e-14 0)
(2 -3.47142e-07 0)
(2 -3.42508e-15 0)
(2 -1.53763e-13 0)
(1.83146 0.228059 0)
(2 2.02748e-14 0)
(2 -6.3323e-14 0)
(2 -6.94657e-14 0)
(2 1.98973e-14 0)
(2 1.15534e-13 0)
(1.8305 0.228549 0)
(2 1.03299e-13 0)
(2 8.07976e-14 0)
(2.00166 -0.00268469 0)
(1.83132 0.229019 0)
(1.85566 0.201572 0)
(2 -3.36922e-13 0)
(1.8716 0.183703 0)
(1.99998 2.71479e-05 0)
(2 -9.82868e-14 0)
(2 -2.45304e-13 0)
(1.83059 0.228581 0)
(2 -1.48567e-13 0)
(2.00191 -0.00235247 0)
(1.99797 0.00461873 0)
(2 9.6806e-14 0)
(1.83156 0.228964 0)
(2 -6.88726e-14 0)
(1.8323 0.228794 0)
(2 -1.26193e-14 0)
(2 -3.96632e-15 0)
(1.87522 0.177653 0)
(2 1.7416e-14 0)
(1.83214 0.22883 0)
(1.99999 1.2836e-05 0)
(2 -1.87137e-13 0)
(1.83162 0.229348 0)
(2 -1.83185e-13 0)
(1.83149 0.22917 0)
(2 -1.20829e-13 0)
(2 2.96093e-06 0)
(2 -8.49402e-14 0)
(1.83204 0.229097 0)
(2 -4.41157e-14 0)
(1.83097 0.228184 0)
(2 4.43914e-06 0)
(1.83188 0.229151 0)
(1.82983 0.228902 0)
(1.83179 0.229172 0)
(1.83103 0.229136 0)
(2 -1.56631e-14 0)
(1.83091 0.228899 0)
(1.83777 0.224252 0)
(2 -6.11187e-14 0)
(2.10772 -0.262495 0)
(1.84206 0.217627 0)
(1.87954 0.171953 0)
(2 -1.6699e-13 0)
(1.83205 0.229131 0)
(2 -5.34827e-14 0)
(2.0972 -0.269763 0)
(2.09941 -0.270749 0)
(2 -4.64498e-14 0)
(2 -1.29203e-14 0)
(2 -1.39804e-14 0)
(2 -1.56876e-13 0)
(2 2.03752e-09 0)
(2.11298 -0.262118 0)
(2 -5.00261e-14 0)
(1.83124 0.228853 0)
(1.95804 0.0654326 0)
(1.83068 0.228709 0)
(2 1.00477e-13 0)
(2 6.81956e-11 0)
(2 3.15674e-14 0)
(2 3.62714e-14 0)
(2 -5.10043e-08 0)
(1.8312 0.229021 0)
(2 -4.35628e-13 0)
(1.83068 0.22813 0)
(1.90045 0.145074 0)
(2.06618 -0.162385 0)
(2 1.30416e-09 0)
(1.99999 7.49764e-06 0)
(1.95241 0.0744153 0)
(1.95671 0.0686329 0)
(2 -7.58769e-15 0)
(2 1.10267e-14 0)
(1.93959 0.0897108 0)
(2 -8.37108e-14 0)
(2.1012 -0.260967 0)
(1.83186 0.22909 0)
(1.83176 0.229028 0)
(2 -7.54484e-11 0)
(2 -1.49972e-14 0)
(2 -1.69524e-13 0)
(1.8299 0.228883 0)
(2 -1.68715e-13 0)
(1.99999 1.6477e-05 0)
(1.8307 0.228066 0)
(1.832 0.228967 0)
(2.01135 -0.0321913 0)
(2 -7.4466e-14 0)
(2 1.56369e-10 0)
(2.11627 -0.263282 0)
(1.84746 0.210213 0)
(2 -2.38543e-15 0)
(2 2.01984e-14 0)
(2 -2.20789e-14 0)
(2 -2.79151e-11 0)
(2 -3.03506e-13 0)
(1.83137 0.229113 0)
(1.83109 0.229099 0)
(2 7.68174e-14 0)
(1.83197 0.22925 0)
(1.83127 0.22918 0)
(1.83182 0.229227 0)
(2 -9.03893e-14 0)
(2 -1.64196e-13 0)
(2 -6.36957e-11 0)
(2 -1.1035e-14 0)
(2.12108 -0.266052 0)
(1.82947 0.22883 0)
(2 -4.37446e-11 0)
(2 3.62157e-14 0)
(1.8471 0.211311 0)
(1.83216 0.228513 0)
(2 -1.15328e-13 0)
(1.84144 0.217945 0)
(1.82985 0.229068 0)
(2 -2.25536e-13 0)
(2 -2.17917e-07 0)
(2 8.11773e-11 0)
(2 -3.56303e-14 0)
(2 2.02367e-14 0)
(1.83164 0.228926 0)
(2 -2.72564e-14 0)
(2 -6.87447e-14 0)
(2 -1.81986e-13 0)
(2 -1.50339e-14 0)
(1.83126 0.22943 0)
(2 -2.1493e-13 0)
(1.82971 0.234674 0)
(2.11529 -0.263678 0)
(2 -8.8137e-14 0)
(2.11765 -0.264536 0)
(2 -1.53513e-13 0)
(2 -1.53429e-07 0)
(2 -1.26081e-13 0)
(2.00124 -0.0019919 0)
(2.10725 -0.265106 0)
(2.00033 -0.000510965 0)
(2 2.69832e-14 0)
(2 5.488e-14 0)
(2 -1.1804e-07 0)
(1.97517 0.0364546 0)
(2 -9.99104e-16 0)
(2 -1.37838e-13 0)
(2.0324 -0.085513 0)
(2 -2.13254e-07 0)
(2 2.13183e-14 0)
(2 5.2234e-14 0)
(2 -2.16662e-07 0)
(2 8.75047e-08 0)
(2 -1.64033e-07 0)
(2 -2.06265e-13 0)
(2 -1.61526e-06 0)
(2.0252 -0.0488093 0)
(2 -4.64491e-07 0)
(2 -4.05298e-08 0)
(2.00088 -0.00136595 0)
(2 -4.12622e-14 0)
(2.11251 -0.26338 0)
(2 -2.85462e-11 0)
(2 -4.51308e-12 0)
(2 -4.63713e-11 0)
(2 7.1499e-14 0)
(1.8747 0.176754 0)
(2 1.9199e-14 0)
(2 -1.52704e-13 0)
(2 2.54758e-14 0)
(2 -1.62085e-07 0)
(2.09147 -0.261038 0)
(2 -1.20549e-14 0)
(2 1.63049e-09 0)
(1.84078 0.218221 0)
(1.82971 0.229054 0)
(2 -3.05691e-07 0)
(2 1.39526e-13 0)
(2 -1.07924e-07 0)
(2.03354 -0.074646 0)
(2 -4.6971e-15 0)
(2 4.37868e-10 0)
(2 5.52917e-14 0)
(2 -4.23536e-14 0)
(2 1.16761e-13 0)
(2 2.02647e-13 0)
(2.00819 -0.0242422 0)
(1.99675 0.00126378 0)
(1.8315 0.228896 0)
(2 3.45407e-14 0)
(2 -3.07024e-13 0)
(2 -6.83085e-16 0)
(1.83117 0.22907 0)
(2.03743 -0.066018 0)
(2 -4.74275e-09 0)
(2 -4.289e-15 0)
(2 4.91622e-14 0)
(1.82954 0.228478 0)
(1.82895 0.227047 0)
(2 -2.73759e-08 0)
(2 4.89984e-06 0)
(2 3.44158e-09 0)
(2 -7.90697e-15 0)
(2 1.22333e-09 0)
(2 -8.2626e-14 0)
(2 -2.23242e-11 0)
(2 1.67147e-13 0)
(2 -9.19955e-14 0)
(2.116 -0.264209 0)
(2 -1.37939e-13 0)
(2 -1.51887e-11 0)
(1.82947 0.22763 0)
(2.11758 -0.262188 0)
(2 -2.59889e-13 0)
(1.82912 0.226808 0)
(2 6.16745e-11 0)
(2.1107 -0.26121 0)
(2 -2.95257e-14 0)
(2 4.00516e-14 0)
(2.11618 -0.266742 0)
(2 -1.94675e-13 0)
(2 -1.0949e-11 0)
(2 -4.64583e-12 0)
(2 -5.90803e-15 0)
(2 -2.65871e-12 0)
(2 -3.21112e-14 0)
(2 -9.32499e-14 0)
(1.83475 0.225101 0)
(1.83201 0.228695 0)
(2 4.17717e-13 0)
(2 2.18546e-14 0)
(2 2.31908e-15 0)
(2 4.46421e-13 0)
(1.84576 0.212787 0)
(2 2.5685e-13 0)
(1.944 0.0843144 0)
(2.10549 -0.260214 0)
(2 -3.37296e-08 0)
(2 2.82804e-13 0)
(2 6.03412e-14 0)
(2 -1.0809e-13 0)
(2 -1.22667e-13 0)
(2 -2.10242e-14 0)
(2 2.25001e-14 0)
(1.98124 0.0214257 0)
(2 -6.40844e-14 0)
(2 -2.85357e-16 0)
(1.90752 0.121909 0)
(2 -1.75624e-14 0)
(2 -3.12447e-14 0)
(2 -4.27755e-14 0)
(1.86146 0.194827 0)
(2 -3.36795e-13 0)
(2 -1.13883e-14 0)
(2 -2.32288e-13 0)
(2 -1.66242e-13 0)
(2.1159 -0.262584 0)
(2 2.27853e-12 0)
(2 7.21942e-14 0)
(2.12014 -0.278579 0)
(2.11471 -0.263141 0)
(2 -3.77668e-14 0)
(2 -6.88815e-14 0)
(1.83208 0.229132 0)
(2 -1.02834e-13 0)
(1.98245 -0.0125099 0)
(2 4.81561e-14 0)
(2 1.72328e-15 0)
(2 -2.8224e-14 0)
(1.88263 0.169247 0)
(2.10892 -0.26655 0)
(2 -1.36772e-13 0)
(2.11084 -0.273743 0)
(2 1.21142e-14 0)
(2.08083 -0.162832 0)
(2 -2.70811e-13 0)
(2 -1.01225e-13 0)
(2 -9.86295e-14 0)
(1.83041 0.229511 0)
(2 -4.4051e-08 0)
(2 -1.27709e-13 0)
(1.83143 0.228954 0)
(2 7.82632e-14 0)
(2 -1.93139e-11 0)
(2 1.65601e-09 0)
(1.83132 0.228946 0)
(2 2.44515e-10 0)
(2 -3.21925e-13 0)
(1.83171 0.228703 0)
(2 -2.8728e-13 0)
(2 1.40226e-13 0)
(2.10816 -0.266677 0)
(2 -1.76188e-11 0)
(1.94384 0.0858461 0)
(2 3.21101e-13 0)
(2 1.64817e-13 0)
(1.82946 0.229148 0)
(1.82925 0.228905 0)
(1.88751 0.163471 0)
(1.84991 0.207858 0)
(2 -7.10769e-15 0)
(2.10858 -0.265502 0)
(2 7.72997e-14 0)
(2 -1.36473e-13 0)
(1.83866 0.220666 0)
(2 1.07441e-13 0)
(2.12035 -0.262093 0)
(2 -3.53871e-14 0)
(2 -2.33369e-14 0)
(2 -1.06728e-14 0)
(1.83133 0.229347 0)
(2 1.69331e-13 0)
(2 -7.17476e-14 0)
(2 5.15407e-14 0)
(2 -3.27651e-14 0)
(1.8984 0.14879 0)
(2 -1.29209e-13 0)
(1.85039 0.206743 0)
(1.83125 0.22822 0)
(2.14058 -0.261789 0)
(2 -3.75376e-13 0)
(2 5.36789e-14 0)
(2.10032 -0.276312 0)
(2.08936 -0.269337 0)
(2 -4.10155e-14 0)
(2 -7.27036e-14 0)
(2 -6.49287e-12 0)
(1.88094 0.172297 0)
(1.87319 0.17937 0)
(2 -5.34641e-14 0)
(2 -1.10956e-13 0)
(2 1.16606e-13 0)
(2 7.15452e-15 0)
(2 6.01498e-14 0)
(2 -1.03555e-13 0)
(2 9.1612e-15 0)
(1.92876 0.107951 0)
(1.83078 0.22849 0)
(1.9931 -0.00250308 0)
(2 8.17689e-14 0)
(1.83354 0.226366 0)
(2.14498 -0.264598 0)
(2 -2.35303e-15 0)
(2 -5.7402e-16 0)
(2 1.30763e-14 0)
(1.90747 0.135263 0)
(2 1.77825e-14 0)
(1.96488 0.0553452 0)
(2 -5.44545e-14 0)
(1.84637 0.212357 0)
(1.83259 0.228315 0)
(2 -5.89645e-14 0)
(2.10497 -0.264813 0)
(2 5.81764e-14 0)
(1.82984 0.228845 0)
(2 4.69757e-14 0)
(2 1.19273e-13 0)
(1.83159 0.228869 0)
(1.84207 0.217696 0)
(2 -2.49029e-13 0)
(1.82795 0.227971 0)
(2 -7.99152e-14 0)
(2.13266 -0.255149 0)
(2 3.10717e-14 0)
(2 -1.07962e-13 0)
(2 -2.51751e-14 0)
(1.82871 0.230143 0)
(1.83487 0.224952 0)
(1.85231 0.20478 0)
(2 -4.48221e-14 0)
(1.83052 0.230531 0)
(1.8317 0.228813 0)
(2 6.02333e-14 0)
(1.83108 0.229466 0)
(2 -1.03476e-08 0)
(1.8325 0.22836 0)
(2 9.023e-14 0)
(2.12016 -0.263289 0)
(2.00702 -0.021568 0)
(2.12112 -0.262641 0)
(2 -3.43069e-11 0)
(2 -2.19919e-11 0)
(2 -3.23808e-11 0)
(2 -3.64087e-14 0)
(2 -1.51411e-11 0)
(1.83146 0.228861 0)
(2 -1.06954e-14 0)
(1.83176 0.229149 0)
(2 -4.1324e-11 0)
(2 -9.5799e-11 0)
(2 3.65978e-14 0)
(1.83941 0.219836 0)
(2 1.01459e-13 0)
(2.12134 -0.265534 0)
(1.83154 0.229024 0)
(2 4.50619e-14 0)
(2.11089 -0.264237 0)
(2.10978 -0.244771 0)
(2.11916 -0.258504 0)
(2 -1.20635e-13 0)
(1.91572 0.125744 0)
(1.98292 0.0253388 0)
(1.83062 0.229574 0)
(1.83167 0.228886 0)
(2 -1.82417e-13 0)
(2 -3.38778e-07 0)
(2 -1.0244e-07 0)
(2 -1.51496e-13 0)
(1.83144 0.229125 0)
(2 7.36732e-14 0)
(2 1.12874e-13 0)
(1.83144 0.22909 0)
(1.83163 0.228728 0)
(2 -3.25655e-13 0)
(1.94107 0.0863325 0)
(2 0.000981595 0)
(2 9.09152e-16 0)
(2.00117 -0.00191971 0)
(1.82974 0.228857 0)
(2.05423 -0.100196 0)
(2 -1.17718e-07 0)
(2.05931 -0.118844 0)
(2.10041 -0.260622 0)
(2.10482 -0.265064 0)
(2.01712 -0.0334329 0)
(1.82964 0.228537 0)
(1.83429 0.226559 0)
(1.96831 0.0465862 0)
(1.83133 0.228887 0)
(1.83139 0.228743 0)
(2 6.83273e-15 0)
(2 -2.74787e-14 0)
(1.8301 0.228772 0)
(1.82899 0.228585 0)
(1.83133 0.229079 0)
(1.82851 0.22711 0)
(2 2.39808e-14 0)
(1.8316 0.229072 0)
(2.13095 -0.264926 0)
(1.83104 0.227943 0)
(1.83017 0.227507 0)
(1.82831 0.227662 0)
(1.83096 0.22968 0)
(2.0364 -0.0850438 0)
(2.03146 -0.0796169 0)
(2.02218 -0.0446063 0)
(1.83177 0.228945 0)
(2.01257 -0.022956 0)
(1.83048 0.22954 0)
(2 -3.76554e-14 0)
(2 -3.16432e-14 0)
(1.8308 0.229762 0)
(1.83065 0.228778 0)
(2 -2.33615e-13 0)
(2.11795 -0.265247 0)
(1.83067 0.229822 0)
(1.83154 0.228671 0)
(2 -6.63505e-14 0)
(1.83206 0.228921 0)
(1.83182 0.229153 0)
(2 -1.35972e-13 0)
(1.83167 0.22915 0)
(2.09562 -0.260182 0)
(1.83155 0.229821 0)
(1.83079 0.228607 0)
(1.83064 0.228826 0)
(1.83008 0.231782 0)
(2 -2.47216e-13 0)
(2 -2.45639e-13 0)
(2 -1.08742e-07 0)
(1.83164 0.228608 0)
(1.88972 0.159801 0)
(2.11976 -0.248293 0)
(1.8313 0.22891 0)
(2.12451 -0.272865 0)
(1.83167 0.228668 0)
(2 -9.01827e-14 0)
(2 8.84397e-14 0)
(2 -8.22969e-14 0)
(2 -2.42502e-14 0)
(1.83196 0.227442 0)
(1.83123 0.229077 0)
(2 -6.94349e-14 0)
(2 -1.08421e-13 0)
(1.83128 0.22902 0)
(2.11988 -0.270929 0)
(1.83113 0.228497 0)
(2.10779 -0.26186 0)
(2 5.58229e-15 0)
(1.83242 0.227588 0)
(2 -5.57563e-14 0)
(2.15039 -0.270871 0)
(1.83082 0.229551 0)
(2.08756 -0.192899 0)
(2 -2.13288e-14 0)
(1.8316 0.228931 0)
(1.83037 0.229824 0)
(1.83188 0.229316 0)
(2 -4.81972e-14 0)
(2 3.58945e-14 0)
(1.92107 0.118513 0)
(1.83064 0.22954 0)
(2.10171 -0.262085 0)
(1.83167 0.229003 0)
(2 3.89409e-14 0)
(1.83205 0.229504 0)
(2.04597 -0.0826963 0)
(1.83183 0.228637 0)
(2.11456 -0.265182 0)
(2 -1.14609e-13 0)
(1.83238 0.22877 0)
(2.10999 -0.232982 0)
(1.83097 0.229749 0)
(2.10897 -0.261284 0)
(2 -1.13616e-13 0)
(1.83141 0.229305 0)
(2 -1.07204e-13 0)
(1.82964 0.228684 0)
(2 1.52355e-13 0)
(1.90081 0.146294 0)
(1.83788 0.221759 0)
(1.86797 0.187083 0)
(2.10709 -0.280004 0)
(2 -5.02482e-13 0)
(1.83157 0.229186 0)
(2 9.57034e-14 0)
(1.83199 0.229096 0)
(2 -1.21122e-07 0)
(1.83179 0.229196 0)
(2 -2.30758e-07 0)
(2 -2.7962e-13 0)
(1.83102 0.229339 0)
(2.00579 -0.0151448 0)
(1.83059 0.230138 0)
(2.15288 -0.263667 0)
(1.8623 0.200562 0)
(2 4.92152e-14 0)
(1.88226 0.172333 0)
(2 5.61825e-14 0)
(1.8306 0.229455 0)
(1.83188 0.229153 0)
(1.83092 0.228393 0)
(2 6.93166e-15 0)
(1.84898 0.209674 0)
(1.83132 0.22886 0)
(1.84383 0.21526 0)
(1.89602 0.151768 0)
(1.83008 0.233583 0)
(2 1.32349e-13 0)
(1.8877 0.16381 0)
(2 -7.26918e-15 0)
(1.8314 0.22863 0)
(2 -1.79495e-13 0)
(1.97056 0.0450259 0)
(2 -5.30814e-14 0)
(1.84431 0.214622 0)
(2 1.02689e-13 0)
(1.83219 0.229445 0)
(1.83909 0.220663 0)
(1.83951 0.219659 0)
(2 1.29911e-13 0)
(1.83145 0.231488 0)
(2.0932 -0.270517 0)
(2 5.6269e-14 0)
(2.11301 -0.263842 0)
(2 -2.32467e-13 0)
(2 2.15634e-14 0)
(2 1.60368e-14 0)
(1.82895 0.228304 0)
(2 -7.09578e-14 0)
(1.83173 0.22936 0)
(2 5.60636e-14 0)
(2 -6.74524e-14 0)
(2 -2.54352e-13 0)
(1.83096 0.229362 0)
(1.8297 0.228547 0)
(1.87324 0.184161 0)
(1.83137 0.227657 0)
(1.83106 0.228857 0)
(2.12021 -0.264175 0)
(1.82999 0.231848 0)
(1.82979 0.228446 0)
(2 -3.47381e-14 0)
(1.85956 0.199934 0)
(1.83173 0.229078 0)
(1.83803 0.230217 0)
(2 -4.62833e-13 0)
(1.83051 0.228875 0)
(1.82943 0.228535 0)
(2 -6.62458e-14 0)
(1.83055 0.23226 0)
(1.83137 0.229201 0)
(1.83077 0.229233 0)
(1.83094 0.229685 0)
(2 -5.81914e-14 0)
(2 -4.90788e-14 0)
(2 -3.79562e-14 0)
(1.83186 0.228999 0)
(2.11068 -0.266696 0)
(2 1.46225e-14 0)
(1.83151 0.228795 0)
(2 5.11795e-14 0)
(2 3.9181e-14 0)
(2.10024 -0.272003 0)
(2 1.16215e-13 0)
(2 1.05362e-13 0)
(1.83136 0.22878 0)
(1.83198 0.228937 0)
(2 8.77398e-15 0)
(1.83185 0.229012 0)
(1.83144 0.230921 0)
(1.83168 0.229371 0)
(2.00633 -0.0214651 0)
(1.83135 0.228902 0)
(2 -6.1659e-14 0)
(1.83135 0.228893 0)
(1.83158 0.228978 0)
(1.8748 0.17759 0)
(2 -6.46915e-14 0)
(2 -1.52309e-13 0)
(2 -1.1289e-13 0)
(1.8318 0.228205 0)
(1.83141 0.228993 0)
(1.83171 0.228883 0)
(2.01348 -0.0276981 0)
(2 4.53202e-14 0)
(1.82548 0.230528 0)
(1.83172 0.229104 0)
(1.83232 0.228886 0)
(2 -6.64151e-14 0)
(1.83174 0.22918 0)
(1.83119 0.228469 0)
(1.83145 0.228871 0)
(1.82493 0.230711 0)
(2 -1.09257e-13 0)
(1.83191 0.229114 0)
(1.83048 0.228505 0)
(1.84922 0.201485 0)
(1.83197 0.228687 0)
(1.82548 0.229994 0)
(2 -1.26803e-13 0)
(1.83125 0.229306 0)
(1.83355 0.226796 0)
(1.83172 0.22889 0)
(1.83158 0.227044 0)
(1.83187 0.229032 0)
(2.10054 -0.272059 0)
(1.8313 0.229068 0)
(1.83235 0.228326 0)
(2 -1.71218e-13 0)
(1.83143 0.228927 0)
(1.83162 0.228919 0)
(1.83137 0.229084 0)
(1.83159 0.229096 0)
(2 -5.92011e-08 0)
(1.83206 0.228748 0)
(1.83135 0.228914 0)
(2 -1.6275e-07 0)
(1.83163 0.228649 0)
(1.85774 0.199151 0)
(2 4.10448e-14 0)
(2 7.1415e-14 0)
(2 1.07726e-09 0)
(1.83183 0.227948 0)
(1.82985 0.230218 0)
(2 -4.87625e-14 0)
(2 -6.93808e-14 0)
(1.90916 0.134102 0)
(2 -7.24615e-14 0)
(1.83136 0.229331 0)
(2 -1.52276e-14 0)
(2 -1.14338e-13 0)
(1.8314 0.228746 0)
(1.83111 0.229544 0)
(1.83184 0.229219 0)
(1.8315 0.228736 0)
(2 5.79201e-14 0)
(2 -1.42479e-14 0)
(2 -8.85656e-14 0)
(1.88001 0.167335 0)
(2 -6.80844e-14 0)
(1.83154 0.229263 0)
(2 -4.95209e-14 0)
(2 -5.52525e-14 0)
(1.82977 0.228789 0)
(1.83075 0.228826 0)
(2 3.66488e-14 0)
(1.83155 0.228833 0)
(2.12852 -0.279548 0)
(1.83177 0.229108 0)
(1.83167 0.229385 0)
(2.10224 -0.200397 0)
(2 1.44529e-13 0)
(2.10404 -0.27861 0)
(1.84958 0.201805 0)
(1.83013 0.23087 0)
(1.83175 0.229671 0)
(1.83172 0.229793 0)
(2.125 -0.260528 0)
(1.8314 0.229053 0)
(1.83116 0.229259 0)
(2.12272 -0.262036 0)
(2.11873 -0.281118 0)
(2 -2.60814e-07 0)
(1.83123 0.230059 0)
(1.83167 0.229229 0)
(2 -3.14797e-15 0)
(2 4.15789e-14 0)
(1.83164 0.229015 0)
(2 -4.148e-13 0)
(1.8297 0.23055 0)
(2 2.2539e-06 0)
(1.85257 0.205498 0)
(2 2.90818e-14 0)
(1.92276 0.119593 0)
(1.83186 0.228932 0)
(1.83041 0.229839 0)
(1.87945 0.171308 0)
(1.85372 0.202187 0)
(1.829 0.228237 0)
(1.83116 0.229764 0)
(1.85108 0.210484 0)
(2 1.68995e-14 0)
(2.13136 -0.265981 0)
(1.82986 0.230774 0)
(1.83187 0.229172 0)
(1.83069 0.23154 0)
(2 6.76337e-06 0)
(2 3.91689e-10 0)
(2 1.39401e-09 0)
(1.8285 0.228004 0)
(2 -2.94942e-14 0)
(1.83198 0.228882 0)
(1.83132 0.228612 0)
(2.09023 -0.177 0)
(2 8.75654e-14 0)
(1.83134 0.229039 0)
(2.00002 -4.36394e-05 0)
(2 2.99289e-15 0)
(1.99999 1.9608e-05 0)
(1.99998 2.7309e-05 0)
(1.8318 0.229259 0)
(1.8322 0.229406 0)
(2.00052 -0.000903224 0)
(2 7.56536e-15 0)
(2 -3.8681e-14 0)
(1.83184 0.228904 0)
(1.83064 0.229802 0)
(1.83174 0.228832 0)
(1.83095 0.229983 0)
(1.83118 0.228826 0)
(2.09236 -0.254234 0)
(1.8575 0.200018 0)
(2 -8.07533e-14 0)
(1.83262 0.227558 0)
(1.8319 0.229143 0)
(1.83175 0.228798 0)
(1.82652 0.230897 0)
(2 -1.73692e-13 0)
(1.83178 0.229048 0)
(1.83579 0.223558 0)
(1.83122 0.229626 0)
(2 -2.62493e-13 0)
(1.83106 0.229207 0)
(1.83118 0.227487 0)
(2.04474 -0.0947877 0)
(1.83182 0.228982 0)
(1.83084 0.229034 0)
(2 -1.85945e-14 0)
(1.83153 0.228831 0)
(2.04862 -0.110377 0)
(1.83114 0.229071 0)
(2.04603 -0.0960775 0)
(1.8316 0.229103 0)
(2 -1.11805e-07 0)
(1.83143 0.228807 0)
(1.82351 0.23354 0)
(1.83188 0.229082 0)
(1.83173 0.229224 0)
(1.83144 0.228863 0)
(1.82887 0.227639 0)
(1.83149 0.229326 0)
(1.82969 0.228626 0)
(2 -1.47616e-13 0)
(2.02024 -0.047651 0)
(1.83144 0.229236 0)
(1.83144 0.228882 0)
(2.04876 -0.108663 0)
(1.83158 0.229048 0)
(2.00463 -0.0155957 0)
(1.88971 0.150307 0)
(1.83156 0.229165 0)
(1.83069 0.229095 0)
(1.83134 0.228666 0)
(2 -5.65906e-15 0)
(1.83049 0.230108 0)
(1.88806 0.167728 0)
(1.83171 0.227846 0)
(2.02503 -0.0600921 0)
(1.83079 0.230008 0)
(1.82735 0.232851 0)
(2 -1.19262e-13 0)
(2.04222 -0.089916 0)
(2 -5.18068e-09 0)
(1.83741 0.225294 0)
(2 -1.12326e-13 0)
(1.8845 0.166882 0)
(2 3.54508e-09 0)
(1.83712 0.231188 0)
(2.04466 -0.0896588 0)
(2 8.14435e-14 0)
(1.83171 0.228247 0)
(1.83733 0.225944 0)
(2 -7.41694e-14 0)
(1.83089 0.227342 0)
(1.83064 0.22982 0)
(1.83164 0.229831 0)
(1.8413 0.223517 0)
(1.83517 0.228854 0)
(2 -3.77222e-13 0)
(1.83035 0.228789 0)
(2 -6.11684e-14 0)
(2 1.32921e-13 0)
(2 1.03756e-13 0)
(2.0362 -0.0650743 0)
(1.83137 0.228726 0)
(1.83103 0.229343 0)
(1.82917 0.2317 0)
(1.83158 0.228977 0)
(1.82857 0.23323 0)
(1.82957 0.230414 0)
(1.82937 0.22831 0)
(1.83171 0.229402 0)
(2.03927 -0.0695807 0)
(1.98827 0.0202119 0)
(2 3.63026e-09 0)
(2 -5.29105e-14 0)
(1.82458 0.234568 0)
(1.83176 0.229142 0)
(1.83144 0.228986 0)
(1.83166 0.22902 0)
(1.99999 1.63606e-05 0)
(1.91083 0.135144 0)
(2 -1.69405e-07 0)
(1.83089 0.232054 0)
(1.86021 0.204505 0)
(2 -3.44984e-12 0)
(2 -6.03716e-11 0)
(2.10123 -0.183933 0)
(1.83165 0.228958 0)
(2 2.51956e-13 0)
(2 9.83607e-15 0)
(2.12788 -0.266015 0)
(1.83152 0.229094 0)
(2 1.59571e-13 0)
(1.83066 0.228561 0)
(1.83133 0.229012 0)
(1.82914 0.228463 0)
(1.83851 0.221601 0)
(1.83144 0.228969 0)
(2 -1.76423e-10 0)
(2.10314 -0.270168 0)
(1.96083 0.0646609 0)
(1.83106 0.229288 0)
(1.83139 0.228923 0)
(2 -1.04413e-13 0)
(1.83268 0.229006 0)
(1.83141 0.228813 0)
(1.91627 0.123961 0)
(1.99729 0.00626494 0)
(1.96613 0.0570006 0)
(2 -1.89562e-13 0)
(1.82958 0.228867 0)
(1.83148 0.22899 0)
(2 -1.21638e-07 0)
(2 -2.05372e-10 0)
(2.12449 -0.25973 0)
(2 -2.3709e-10 0)
(2 -1.17163e-13 0)
(1.83181 0.229081 0)
(1.83157 0.228858 0)
(1.83134 0.229994 0)
(1.83183 0.22885 0)
(1.83138 0.22889 0)
(1.82912 0.23123 0)
(1.83122 0.229038 0)
(1.83137 0.227909 0)
(1.83133 0.228991 0)
(2 -1.61942e-14 0)
(2.00149 -0.00270812 0)
(1.83126 0.228737 0)
(1.83196 0.229044 0)
(2.00129 -0.00176492 0)
(1.83141 0.228773 0)
(1.83148 0.228943 0)
(2.10941 -0.265076 0)
(2.14424 -0.257959 0)
(1.83222 0.227361 0)
(1.82835 0.231083 0)
(2 9.60253e-14 0)
(2 1.32093e-13 0)
(1.99906 0.00220646 0)
(1.83128 0.229039 0)
(1.8313 0.229919 0)
(1.83155 0.229062 0)
(2 1.16897e-09 0)
(1.83139 0.228746 0)
(2 2.91411e-15 0)
(2.05238 -0.0980146 0)
(1.83066 0.23223 0)
(1.8272 0.231648 0)
(2 -2.57207e-14 0)
(1.92529 0.11001 0)
(1.83068 0.228989 0)
(2 8.71878e-14 0)
(1.82866 0.22796 0)
(2 -1.02794e-10 0)
(1.83172 0.229049 0)
(1.88163 0.160844 0)
(1.83162 0.229197 0)
(2 1.43104e-11 0)
(1.83186 0.228445 0)
(1.83487 0.230546 0)
(2.12077 -0.262148 0)
(1.83186 0.228952 0)
(2 -1.10078e-07 0)
(1.83116 0.228278 0)
(1.8306 0.228736 0)
(2 7.10555e-09 0)
(2.11128 -0.267288 0)
(1.83211 0.227326 0)
(1.85619 0.208046 0)
(2.00094 -0.00108277 0)
(1.83522 0.221763 0)
(1.8316 0.228968 0)
(2 -5.15653e-12 0)
(1.99884 -0.00528092 0)
(1.83137 0.227845 0)
(2.00199 -0.00087892 0)
(1.83149 0.229035 0)
(2 -3.43663e-12 0)
(2 9.91429e-14 0)
(1.83158 0.227936 0)
(2 -5.57579e-14 0)
(1.83172 0.227473 0)
(1.83142 0.228826 0)
(2.00132 -0.00242028 0)
(1.86908 0.182471 0)
(2 3.23006e-09 0)
(1.8315 0.228955 0)
(2 -9.13952e-10 0)
(2 -5.71026e-13 0)
(2 1.02802e-11 0)
(2 6.21704e-12 0)
(1.83169 0.228976 0)
(2 6.85164e-09 0)
(2 -2.00311e-13 0)
(1.83171 0.224848 0)
(2 3.49901e-14 0)
(1.83152 0.228796 0)
(2 3.29153e-10 0)
(1.89279 0.155219 0)
(1.8302 0.231963 0)
(1.83119 0.229161 0)