/*--------------------------------*- C++ -*----------------------------------*\
  =========                 |
  \\      /  F ield         | OpenFOAM: The Open Source CFD Toolbox
   \\    /   O peration     | Website:  https://openfoam.org
    \\  /    A nd           | Version:  12
     \\/     M anipulation  |
\*---------------------------------------------------------------------------*/
FoamFile
{
    format      ascii;
    class       volScalarField;
    location    "0.9";
    object      p;
}
// * * * * * * * * * * * * * * * * * * * * * * * * * * * * * * * * * * * * * //

dimensions      [1 -1 -2 0 0 0 0];

internalField   nonuniform List<scalar> 
9801
(
0.830077
0.830144
0.832333
0.833065
0.834335
0.835668
0.836733
0.839094
0.843287
0.846095
0.848234
0.84961
0.849454
0.849326
0.85108
0.854671
0.85907
0.862243
0.864287
0.865865
0.866235
0.865998
0.867265
0.870052
0.874164
0.877774
0.880598
0.882657
0.884405
0.884744
0.885364
0.887349
0.890414
0.894139
0.896696
0.899003
0.901602
0.903645
0.905214
0.908644
0.910662
0.912326
0.9142
0.916944
0.918117
0.921084
0.924976
0.928787
0.932561
0.934836
0.936206
0.937544
0.937823
0.939838
0.943576
0.947446
0.953911
0.958507
0.961268
0.962098
0.962294
0.962964
0.965602
0.970474
0.977488
0.983463
0.987705
0.990239
0.988988
0.987716
0.990144
0.994636
1.00205
1.01167
1.01884
1.02356
1.02669
1.02393
1.02239
1.02601
1.03169
1.04154
1.05303
1.06144
1.06775
1.07208
1.06863
1.06867
1.07527
1.08649
1.10352
1.11831
1.13112
1.14545
1.15754
1.1679
1.19037
1.49382
2.76773
0.834595
0.835729
0.837422
0.838331
0.839808
0.841015
0.842015
0.84442
0.84896
0.851908
0.853779
0.854686
0.854345
0.854445
0.85597
0.85961
0.864446
0.867549
0.869459
0.870769
0.870917
0.870877
0.872094
0.874677
0.8792
0.883073
0.885745
0.887624
0.888953
0.889217
0.890015
0.892004
0.895419
0.89932
0.901827
0.903996
0.906163
0.907719
0.909352
0.912915
0.915535
0.917541
0.919606
0.921971
0.922832
0.925166
0.928636
0.932776
0.936798
0.939355
0.941093
0.942796
0.943171
0.944752
0.94786
0.951254
0.957587
0.962189
0.964975
0.966242
0.967299
0.96803
0.97014
0.974065
0.980477
0.986495
0.990644
0.993302
0.993841
0.993701
0.995829
0.999377
1.00527
1.01426
1.02118
1.02568
1.02868
1.02733
1.02669
1.03026
1.03526
1.04419
1.05537
1.06354
1.06975
1.07431
1.07215
1.07237
1.07869
1.08787
1.10291
1.11736
1.12955
1.14239
1.15022
1.15366
1.15815
1.4391
2.71788
0.836112
0.837865
0.839452
0.840415
0.842072
0.843113
0.843988
0.846523
0.851184
0.854152
0.855944
0.856648
0.856212
0.856555
0.858135
0.861869
0.866843
0.869886
0.871796
0.87307
0.873
0.873021
0.874304
0.876866
0.881598
0.885554
0.888153
0.889951
0.890829
0.890767
0.891824
0.894157
0.898061
0.901944
0.9044
0.906522
0.908164
0.908955
0.910702
0.914747
0.917852
0.920193
0.922567
0.924802
0.925317
0.926819
0.929611
0.934158
0.938562
0.941441
0.943666
0.945906
0.946613
0.947601
0.949999
0.952476
0.958604
0.963464
0.966542
0.968729
0.970979
0.971441
0.973011
0.975928
0.980896
0.987174
0.99174
0.994999
0.997616
0.998238
0.99956
1.00275
1.00707
1.01465
1.02151
1.02597
1.02946
1.03012
1.02978
1.03323
1.03828
1.04553
1.05644
1.06512
1.07149
1.07665
1.07577
1.07498
1.0808
1.08913
1.10132
1.11665
1.13008
1.14291
1.15295
1.15567
1.15394
1.41753
2.66563
0.838306
0.840516
0.841989
0.843087
0.844857
0.845729
0.846531
0.849184
0.85396
0.856863
0.858537
0.859084
0.858682
0.859194
0.860777
0.864544
0.869575
0.872574
0.874474
0.875655
0.87543
0.875541
0.876886
0.879528
0.884448
0.888401
0.890867
0.892491
0.89293
0.892905
0.894268
0.897013
0.901388
0.905028
0.907287
0.909199
0.910224
0.910683
0.912551
0.917355
0.921199
0.923627
0.926025
0.927996
0.927749
0.928546
0.930763
0.935636
0.941472
0.944684
0.947017
0.949456
0.950267
0.950387
0.951887
0.953713
0.95965
0.965751
0.969513
0.972193
0.975002
0.97525
0.975461
0.977295
0.980781
0.9877
0.994084
0.998139
1.00155
1.00306
1.00337
1.00539
1.00825
1.01342
1.02136
1.02719
1.03152
1.03412
1.03407
1.03669
1.04122
1.04675
1.05608
1.06598
1.07296
1.07865
1.08013
1.07788
1.08188
1.09007
1.10005
1.1138
1.12698
1.13918
1.15078
1.15656
1.15015
1.39544
2.60754
0.840739
0.843313
0.844752
0.845983
0.847709
0.848369
0.849165
0.851917
0.856685
0.859612
0.8613
0.861963
0.86154
0.861939
0.863412
0.867143
0.872285
0.875331
0.877258
0.878431
0.878039
0.878082
0.879475
0.882321
0.887418
0.891271
0.893606
0.895055
0.895185
0.895263
0.896778
0.899772
0.904499
0.907929
0.910045
0.911865
0.912484
0.912664
0.914495
0.919518
0.924391
0.927089
0.929363
0.93095
0.930134
0.930404
0.932231
0.936587
0.943894
0.94806
0.950528
0.952894
0.953559
0.952482
0.953223
0.955003
0.960657
0.968364
0.972957
0.9758
0.97857
0.978584
0.977024
0.978263
0.981395
0.988258
0.996524
1.00143
1.00503
1.00739
1.00659
1.00661
1.00891
1.01312
1.02149
1.02954
1.03459
1.03856
1.03921
1.0397
1.04304
1.04765
1.0543
1.06459
1.07323
1.07981
1.08473
1.084
1.08432
1.09049
1.09953
1.11211
1.12442
1.13544
1.14622
1.15503
1.14915
1.37886
2.54893
0.843447
0.846127
0.847511
0.848874
0.850639
0.851149
0.851908
0.854775
0.859595
0.862511
0.864187
0.864842
0.864195
0.864477
0.865964
0.869785
0.875138
0.878236
0.880133
0.881195
0.880589
0.880575
0.882014
0.885116
0.890417
0.894205
0.896432
0.897709
0.897511
0.897602
0.899187
0.902399
0.907556
0.911027
0.913103
0.914709
0.914648
0.914666
0.916488
0.921223
0.927332
0.930692
0.932983
0.934324
0.932701
0.932416
0.934117
0.937539
0.945579
0.951308
0.954118
0.956465
0.956723
0.954556
0.954806
0.956566
0.961599
0.970519
0.976393
0.979514
0.982104
0.981395
0.978908
0.979847
0.982739
0.988969
0.998387
1.00434
1.00823
1.01089
1.00945
1.00791
1.00975
1.01364
1.0214
1.03142
1.03774
1.04227
1.04467
1.04324
1.04409
1.04771
1.05305
1.06221
1.07292
1.08085
1.08739
1.09124
1.08906
1.09153
1.09859
1.10852
1.12076
1.1317
1.1415
1.15135
1.15006
1.36578
2.49078
0.845976
0.848948
0.850563
0.851907
0.853335
0.853452
0.85442
0.857637
0.86257
0.865424
0.867004
0.86751
0.866738
0.867113
0.86864
0.872518
0.877936
0.881054
0.882897
0.883826
0.88323
0.883295
0.884639
0.887818
0.893269
0.896984
0.899171
0.900461
0.900169
0.900037
0.901471
0.904564
0.910259
0.914089
0.916212
0.917654
0.917162
0.916999
0.918658
0.922485
0.929324
0.933934
0.936347
0.937551
0.935674
0.935076
0.936529
0.939106
0.946314
0.953756
0.957442
0.959717
0.959545
0.95706
0.957134
0.958876
0.96289
0.971751
0.979072
0.982764
0.985343
0.984066
0.98142
0.982328
0.985088
0.990042
0.999682
1.00674
1.01088
1.01357
1.01217
1.01004
1.01144
1.01482
1.02124
1.03253
1.04061
1.0457
1.04904
1.04722
1.04558
1.04812
1.05283
1.06028
1.07167
1.08147
1.08865
1.09454
1.09591
1.09433
1.09843
1.10595
1.11659
1.12815
1.1374
1.14608
1.14891
1.35734
2.43369
0.848601
0.85177
0.853488
0.854842
0.855969
0.856052
0.857081
0.860456
0.865521
0.868276
0.869748
0.870151
0.869498
0.86994
0.871391
0.875227
0.880709
0.883783
0.885604
0.88659
0.886055
0.885971
0.887168
0.890024
0.895699
0.899802
0.902064
0.903415
0.902948
0.902437
0.90374
0.906527
0.91254
0.917138
0.919374
0.920841
0.920126
0.919494
0.920932
0.923849
0.930362
0.936504
0.939611
0.941053
0.939344
0.938016
0.939102
0.941301
0.946828
0.955166
0.95987
0.962542
0.962832
0.959999
0.959754
0.961553
0.964948
0.972517
0.980609
0.984779
0.987403
0.986899
0.984268
0.985036
0.987757
0.991722
1.0003
1.00837
1.01289
1.01585
1.01502
1.01239
1.01374
1.01725
1.02212
1.03241
1.04218
1.04771
1.05175
1.05182
1.04826
1.0495
1.05378
1.05954
1.06974
1.08068
1.08877
1.09556
1.10043
1.09989
1.09951
1.10471
1.11247
1.12311
1.13303
1.14124
1.14578
1.3512
2.37614
0.851203
0.854472
0.856256
0.857724
0.858859
0.85894
0.859811
0.862736
0.86784
0.870886
0.872488
0.87323
0.872604
0.872742
0.874
0.877233
0.882898
0.886423
0.888386
0.889541
0.889112
0.88871
0.889725
0.892247
0.898066
0.902554
0.904864
0.906242
0.905886
0.905232
0.906319
0.908502
0.91403
0.919672
0.922375
0.92405
0.923619
0.922421
0.923463
0.925653
0.930636
0.93797
0.942103
0.944174
0.943549
0.941568
0.942072
0.943993
0.947761
0.955441
0.961418
0.964508
0.965904
0.964094
0.963254
0.964827
0.967633
0.973051
0.981127
0.986067
0.988978
0.989869
0.987918
0.988201
0.990663
0.993906
1.00045
1.00926
1.01454
1.01783
1.01852
1.01606
1.01681
1.02009
1.02414
1.03111
1.04133
1.04818
1.05263
1.05513
1.05331
1.05264
1.05643
1.06153
1.06873
1.07898
1.0879
1.09498
1.1012
1.10446
1.10364
1.10519
1.11081
1.11836
1.12804
1.13643
1.14133
1.34447
2.31754
0.85381
0.857082
0.859065
0.860662
0.861749
0.861724
0.862436
0.864924
0.870194
0.873639
0.875373
0.876352
0.875808
0.875475
0.876505
0.879171
0.885036
0.88915
0.891246
0.892513
0.892264
0.891535
0.892289
0.894287
0.899804
0.905063
0.907667
0.909234
0.909334
0.908375
0.908954
0.910569
0.914802
0.921492
0.925332
0.927267
0.927594
0.926025
0.926308
0.927984
0.931109
0.938256
0.94374
0.94652
0.947564
0.94616
0.945629
0.947069
0.949488
0.955051
0.962039
0.966009
0.968194
0.968516
0.967416
0.968265
0.97056
0.974068
0.981128
0.987022
0.990397
0.992235
0.991697
0.991395
0.993407
0.996378
1.00078
1.00903
1.01571
1.01951
1.02191
1.02088
1.02025
1.02276
1.02635
1.03067
1.03848
1.04703
1.05261
1.05688
1.05935
1.058
1.05902
1.0632
1.06853
1.07638
1.08564
1.09328
1.09992
1.10609
1.109
1.10856
1.11107
1.11666
1.12343
1.13149
1.13659
1.33573
2.25828
0.856476
0.859884
0.861942
0.863469
0.864507
0.864365
0.864999
0.867221
0.872513
0.876363
0.878237
0.879355
0.878983
0.87828
0.879067
0.88117
0.886836
0.891711
0.894077
0.895483
0.895557
0.894519
0.894891
0.89642
0.901147
0.90733
0.910508
0.912253
0.912859
0.911648
0.911585
0.912887
0.915759
0.922357
0.927518
0.930161
0.931419
0.930353
0.929597
0.930689
0.932559
0.937913
0.944598
0.948293
0.950318
0.950912
0.949835
0.950374
0.952149
0.955294
0.961812
0.967059
0.969972
0.971832
0.971855
0.972008
0.973766
0.976162
0.980901
0.987501
0.991738
0.994267
0.995345
0.99512
0.996539
0.999199
1.00241
1.00775
1.01533
1.02051
1.0238
1.0258
1.02546
1.02608
1.02855
1.03177
1.03616
1.04429
1.05265
1.05836
1.06267
1.06456
1.06361
1.06526
1.06939
1.07476
1.08241
1.09109
1.09861
1.10536
1.11115
1.1139
1.11403
1.11648
1.12115
1.127
1.13247
1.32501
2.19899
0.859172
0.862664
0.864704
0.866217
0.867247
0.867008
0.867628
0.869623
0.874794
0.879011
0.881026
0.882276
0.882193
0.881204
0.881716
0.883342
0.888371
0.894084
0.896886
0.898432
0.898887
0.89764
0.897511
0.898763
0.902309
0.909116
0.913272
0.915189
0.916183
0.915263
0.914605
0.915524
0.91735
0.922482
0.928927
0.93253
0.934499
0.934902
0.933597
0.933728
0.934986
0.938158
0.94475
0.949748
0.952473
0.954417
0.954419
0.95398
0.95504
0.956837
0.961282
0.967612
0.971599
0.974253
0.975876
0.976064
0.976986
0.978777
0.981342
0.986879
0.9928
0.996453
0.99896
0.999913
1.00038
1.00198
1.00411
1.00692
1.01275
1.02043
1.02546
1.02928
1.0316
1.0309
1.03112
1.0332
1.0363
1.04128
1.05026
1.05848
1.06396
1.06843
1.07035
1.06927
1.07075
1.07451
1.0798
1.08759
1.09634
1.10395
1.11066
1.11618
1.11898
1.11905
1.12022
1.12408
1.1284
1.31297
2.13992
0.86172
0.865372
0.867512
0.869083
0.870155
0.869855
0.87027
0.871903
0.876648
0.881486
0.883781
0.885167
0.885446
0.88431
0.884482
0.88578
0.88974
0.89606
0.899505
0.901253
0.902123
0.901053
0.900423
0.901403
0.903674
0.909954
0.915546
0.918029
0.919434
0.91928
0.918014
0.918317
0.919664
0.922875
0.929524
0.934368
0.936923
0.938445
0.93801
0.937096
0.937795
0.939641
0.944741
0.950884
0.954448
0.956916
0.958301
0.95784
0.957918
0.95922
0.96172
0.967669
0.973222
0.976564
0.97901
0.980133
0.980077
0.980842
0.982591
0.985971
0.992958
0.998667
1.00224
1.00474
1.00516
1.00476
1.00551
1.0074
1.01084
1.01861
1.02683
1.03156
1.03518
1.03692
1.03522
1.03523
1.03762
1.04107
1.04715
1.05698
1.06474
1.06999
1.07414
1.07519
1.07336
1.07511
1.07945
1.0851
1.09338
1.10201
1.1093
1.1157
1.12049
1.12278
1.12251
1.12306
1.12481
1.29948
2.0812
0.864072
0.867937
0.870411
0.872099
0.873193
0.872815
0.872857
0.874139
0.878128
0.883781
0.886587
0.888107
0.888752
0.88763
0.887296
0.888318
0.891037
0.897616
0.902172
0.904127
0.905316
0.904781
0.903592
0.904083
0.905546
0.909916
0.917093
0.921051
0.922734
0.923315
0.921874
0.921295
0.922291
0.924261
0.929629
0.935772
0.939091
0.941082
0.941919
0.940787
0.94074
0.942168
0.945426
0.951776
0.956333
0.959206
0.961215
0.961593
0.960773
0.961473
0.963375
0.967775
0.974681
0.979102
0.981833
0.983763
0.983502
0.982878
0.984008
0.98632
0.991804
1.00005
1.00514
1.00839
1.0103
1.00888
1.0076
1.00882
1.01127
1.01597
1.02559
1.03297
1.03728
1.04089
1.04099
1.03842
1.03933
1.04242
1.04645
1.05408
1.06382
1.07041
1.07522
1.07825
1.07792
1.07723
1.08035
1.08515
1.09107
1.09949
1.10728
1.11368
1.11942
1.12315
1.12494
1.12524
1.12411
1.28415
2.02309
0.866348
0.870315
0.873205
0.875091
0.876307
0.875884
0.875469
0.876486
0.879482
0.88562
0.889309
0.891036
0.892006
0.891194
0.890262
0.890914
0.892584
0.898235
0.904528
0.907211
0.908574
0.908667
0.90701
0.906821
0.907974
0.910468
0.9172
0.92302
0.925768
0.927042
0.926413
0.924806
0.925121
0.926562
0.930159
0.936634
0.940964
0.943384
0.944936
0.944469
0.943728
0.944817
0.947053
0.952721
0.958292
0.96154
0.96378
0.964947
0.963786
0.963718
0.96541
0.968437
0.975433
0.981473
0.98476
0.98702
0.987338
0.985415
0.985692
0.987695
0.991027
0.999253
1.00697
1.01108
1.014
1.01422
1.01095
1.01065
1.01294
1.01613
1.02296
1.03291
1.03893
1.04255
1.04495
1.04338
1.04205
1.0445
1.04829
1.05301
1.06083
1.06871
1.07431
1.07859
1.08138
1.08201
1.08297
1.08667
1.0916
1.09747
1.10462
1.11106
1.1166
1.12156
1.12499
1.12751
1.12681
1.27052
1.9655
0.8687
0.872309
0.875667
0.87803
0.879371
0.879102
0.878292
0.879037
0.881038
0.886881
0.891785
0.893932
0.895177
0.894972
0.893472
0.893532
0.894695
0.898288
0.905761
0.910289
0.912037
0.91266
0.911083
0.909906
0.910562
0.912078
0.916622
0.923763
0.927858
0.930052
0.930961
0.929288
0.928439
0.929433
0.931622
0.937218
0.942517
0.945455
0.947342
0.947807
0.946746
0.947304
0.94912
0.95363
0.960219
0.964091
0.966452
0.968048
0.967111
0.966177
0.967416
0.969733
0.975112
0.983028
0.987594
0.990121
0.991364
0.989052
0.987885
0.989444
0.992001
0.99731
1.00675
1.01277
1.0162
1.01837
1.01615
1.01381
1.01539
1.01837
1.02231
1.03015
1.03822
1.04305
1.04634
1.04811
1.04735
1.04791
1.05071
1.05427
1.05849
1.06508
1.07223
1.07789
1.08253
1.08614
1.08804
1.08946
1.09263
1.09704
1.10218
1.10779
1.11334
1.11872
1.12372
1.12804
1.13031
1.25981
1.90813
0.871186
0.874237
0.877844
0.880819
0.882327
0.88252
0.881405
0.881688
0.883005
0.887636
0.893779
0.896713
0.898196
0.89865
0.89705
0.896403
0.897273
0.899252
0.905514
0.911929
0.914956
0.916345
0.915875
0.913735
0.913481
0.914569
0.917182
0.923594
0.929065
0.931926
0.933759
0.933913
0.932365
0.932666
0.93414
0.93825
0.943962
0.94739
0.949508
0.9507
0.94982
0.949713
0.951226
0.954348
0.961393
0.966711
0.969347
0.971149
0.970818
0.969
0.969496
0.971429
0.974769
0.982771
0.989495
0.993048
0.995
0.994049
0.99127
0.991735
0.99396
0.996963
1.00412
1.01264
1.01726
1.02013
1.02138
1.0193
1.01901
1.02118
1.02407
1.02779
1.03478
1.04193
1.04661
1.05007
1.05286
1.05333
1.05383
1.0559
1.05888
1.06291
1.06865
1.07606
1.08242
1.08733
1.09133
1.09414
1.09572
1.09786
1.10079
1.10472
1.10976
1.1159
1.12219
1.12786
1.13148
1.25145
1.85099
0.873684
0.876276
0.879943
0.883515
0.885235
0.88589
0.884737
0.8844
0.88538
0.888445
0.895154
0.899318
0.901109
0.902048
0.901016
0.899652
0.900059
0.901306
0.905204
0.912344
0.916707
0.918932
0.920079
0.918726
0.917168
0.91764
0.919021
0.923549
0.929631
0.933282
0.93546
0.936693
0.936149
0.935959
0.937202
0.940091
0.945624
0.94942
0.951759
0.953349
0.952924
0.952208
0.953346
0.955477
0.96115
0.968462
0.972311
0.974251
0.974847
0.972586
0.971892
0.973352
0.975715
0.981026
0.989651
0.994798
0.997816
0.999077
0.996607
0.994885
0.996201
0.998613
1.00229
1.01003
1.01707
1.02115
1.02398
1.02536
1.0244
1.02451
1.02622
1.02868
1.0321
1.03828
1.04572
1.05113
1.05489
1.05799
1.05927
1.05936
1.06041
1.0628
1.06672
1.07256
1.08055
1.08708
1.09205
1.09645
1.09977
1.10075
1.10089
1.10294
1.10712
1.11268
1.1201
1.12715
1.13175
1.24405
1.79459
0.876074
0.87831
0.88209
0.886178
0.888046
0.889006
0.8882
0.887328
0.888018
0.88984
0.895759
0.901394
0.903856
0.905132
0.905044
0.903312
0.903065
0.904029
0.906166
0.912169
0.917747
0.920637
0.922369
0.923048
0.921643
0.92122
0.922176
0.924667
0.930214
0.934498
0.936992
0.938549
0.938977
0.938789
0.939851
0.942308
0.947876
0.95204
0.954384
0.956085
0.956138
0.954934
0.955514
0.957208
0.960426
0.968358
0.974419
0.977368
0.978792
0.977459
0.97515
0.975588
0.977382
0.980184
0.987324
0.995222
0.999383
1.00214
1.0028
1.00031
0.999581
1.00108
1.00332
1.0068
1.01416
1.02111
1.02536
1.02847
1.03047
1.03004
1.02957
1.03047
1.03245
1.0356
1.04194
1.05018
1.05583
1.05987
1.06354
1.06494
1.06358
1.06389
1.06651
1.07053
1.07718
1.08551
1.09172
1.0966
1.10097
1.10351
1.10279
1.10293
1.10628
1.11089
1.11743
1.1255
1.13065
1.23463
1.73895
0.878429
0.88029
0.883853
0.888662
0.890802
0.891991
0.891792
0.890525
0.890757
0.891937
0.89602
0.902756
0.906359
0.907992
0.908722
0.907387
0.906354
0.906945
0.908275
0.912437
0.91843
0.922023
0.924101
0.925457
0.92562
0.925043
0.925677
0.927161
0.931656
0.936154
0.938722
0.940453
0.941315
0.941122
0.941954
0.943932
0.949219
0.954946
0.957602
0.959205
0.959659
0.958083
0.957828
0.95912
0.961113
0.966379
0.974968
0.979739
0.982161
0.982789
0.980024
0.978398
0.979375
0.981363
0.984993
0.993053
1.00001
1.00367
1.00636
1.00696
1.00475
1.0039
1.00511
1.0074
1.01105
1.01841
1.02563
1.03008
1.03335
1.03575
1.03507
1.0332
1.03379
1.03617
1.0397
1.04706
1.05567
1.0611
1.06494
1.06817
1.06848
1.06621
1.06741
1.07085
1.07514
1.08239
1.09028
1.09584
1.10052
1.10388
1.10423
1.1042
1.10716
1.11185
1.11769
1.12431
1.12909
1.2227
1.68446
0.880927
0.882364
0.88512
0.890648
0.893552
0.894965
0.895374
0.893986
0.893574
0.894462
0.896847
0.903314
0.908365
0.910609
0.911806
0.911484
0.909963
0.910023
0.911093
0.913708
0.919263
0.923402
0.925737
0.927304
0.928104
0.92808
0.928816
0.930533
0.934286
0.938252
0.940847
0.942645
0.943629
0.943305
0.94388
0.945499
0.949128
0.956344
0.960867
0.96275
0.963691
0.962151
0.960596
0.961205
0.962846
0.965472
0.972804
0.980648
0.984493
0.986667
0.986431
0.983209
0.982226
0.983433
0.985491
0.989709
0.998048
1.00449
1.00804
1.01072
1.0114
1.00912
1.0081
1.00923
1.01138
1.01509
1.02315
1.03061
1.03488
1.03808
1.04022
1.03813
1.03615
1.03776
1.04073
1.0449
1.05303
1.06071
1.06556
1.06929
1.07133
1.06995
1.06933
1.07218
1.0761
1.08119
1.08794
1.09397
1.09877
1.10264
1.1048
1.10651
1.10891
1.11274
1.11741
1.1228
1.12744
1.20978
1.63113
0.883632
0.88464
0.886445
0.891924
0.896118
0.897889
0.898731
0.897723
0.8966
0.897146
0.898575
0.903479
0.90972
0.912841
0.914429
0.91508
0.91387
0.913275
0.914085
0.915832
0.920536
0.924986
0.927508
0.929216
0.930245
0.930342
0.931023
0.932762
0.937147
0.941552
0.943678
0.945337
0.946244
0.945716
0.945908
0.947215
0.94926
0.955254
0.962655
0.96629
0.967814
0.967498
0.964659
0.963779
0.964814
0.966571
0.970192
0.978814
0.985577
0.988895
0.991017
0.990226
0.986903
0.986137
0.987424
0.989665
0.994311
1.0028
1.00898
1.01244
1.01515
1.01574
1.01284
1.01157
1.01304
1.01558
1.02005
1.02869
1.03545
1.03936
1.04219
1.04314
1.04054
1.04032
1.04288
1.04611
1.05066
1.0583
1.06474
1.06901
1.07201
1.07279
1.07272
1.07449
1.07794
1.08194
1.08641
1.09143
1.096
1.10016
1.10466
1.1082
1.11123
1.11431
1.11746
1.12134
1.12476
1.19831
1.57898
0.886615
0.887144
0.888349
0.892624
0.898044
0.900574
0.901759
0.901593
0.900012
0.899979
0.901017
0.904046
0.910457
0.914671
0.916729
0.917938
0.917674
0.916615
0.917052
0.918447
0.92231
0.926906
0.929605
0.931383
0.93252
0.9325
0.932882
0.93431
0.937931
0.944035
0.94736
0.948762
0.949583
0.948754
0.948183
0.948991
0.950534
0.953466
0.961564
0.96826
0.97133
0.972617
0.970873
0.967634
0.967225
0.968473
0.970469
0.975314
0.984228
0.990143
0.993158
0.995222
0.994049
0.99069
0.990102
0.991481
0.993908
0.999007
1.00757
1.01349
1.01682
1.0194
1.01931
1.01606
1.01561
1.01753
1.02028
1.02538
1.03363
1.03945
1.043
1.04545
1.04569
1.0443
1.04542
1.0482
1.05148
1.05587
1.06197
1.06717
1.07104
1.07405
1.07628
1.07782
1.08005
1.08322
1.08658
1.08976
1.09353
1.09809
1.10318
1.10801
1.11218
1.11551
1.11756
1.12018
1.12263
1.18747
1.52817
0.88978
0.889999
0.890726
0.893362
0.89926
0.902907
0.904495
0.905176
0.903839
0.903004
0.903713
0.905452
0.910909
0.916185
0.918781
0.920301
0.920925
0.919989
0.919877
0.921021
0.924176
0.929359
0.932196
0.933954
0.935107
0.934927
0.934845
0.935945
0.938048
0.944139
0.950185
0.952734
0.953691
0.953016
0.951179
0.95109
0.952277
0.954041
0.958352
0.967378
0.973201
0.975998
0.977076
0.974323
0.971101
0.970976
0.97228
0.974631
0.980432
0.989052
0.994346
0.997244
0.999285
0.997855
0.994483
0.994109
0.995657
0.998287
1.00392
1.0123
1.01769
1.02076
1.02312
1.02232
1.01966
1.02005
1.0222
1.0252
1.03054
1.03769
1.04279
1.04617
1.04847
1.04916
1.04922
1.05083
1.05334
1.05618
1.05948
1.06415
1.06964
1.07436
1.07787
1.08051
1.08276
1.08481
1.08671
1.089
1.09252
1.09667
1.10152
1.10654
1.11122
1.11514
1.11732
1.11995
1.12265
1.17648
1.47872
0.892835
0.893153
0.893258
0.894738
0.89991
0.904885
0.907062
0.908194
0.907753
0.906288
0.906517
0.907685
0.911564
0.917476
0.920736
0.922508
0.92362
0.923311
0.922659
0.923469
0.925551
0.931128
0.935448
0.937109
0.938225
0.937947
0.937183
0.937781
0.939178
0.942437
0.95029
0.955717
0.957887
0.958335
0.956071
0.954077
0.954343
0.955626
0.957655
0.96349
0.972665
0.977725
0.980289
0.981212
0.977971
0.974854
0.974861
0.976232
0.978906
0.985185
0.993529
0.998501
1.00128
1.00325
1.00149
0.998261
0.998234
0.999928
1.00283
1.00891
1.01673
1.02158
1.02446
1.02645
1.02548
1.024
1.02497
1.02715
1.03012
1.03464
1.04072
1.04573
1.04929
1.05187
1.0535
1.0544
1.05561
1.05724
1.05961
1.06281
1.06746
1.07325
1.07779
1.08148
1.08448
1.08649
1.08729
1.08902
1.09225
1.09606
1.10049
1.10507
1.1095
1.11377
1.11644
1.11944
1.12261
1.16607
1.43061
0.895679
0.896308
0.895928
0.896919
0.900473
0.906336
0.909414
0.910858
0.911332
0.909937
0.909451
0.910305
0.91264
0.918544
0.922821
0.924836
0.926176
0.926507
0.925521
0.925775
0.927092
0.931258
0.937639
0.940721
0.941868
0.941904
0.940315
0.939946
0.940891
0.942527
0.947504
0.956134
0.960869
0.962863
0.962568
0.959114
0.95718
0.957682
0.959125
0.961722
0.968811
0.977367
0.98178
0.9842
0.985124
0.981801
0.978754
0.978847
0.980306
0.983287
0.989903
0.997843
1.00248
1.00516
1.00697
1.00494
1.00213
1.0025
1.00435
1.00758
1.01374
1.02067
1.02503
1.02778
1.02963
1.02943
1.02888
1.02978
1.03173
1.03447
1.03817
1.04365
1.04896
1.05275
1.0555
1.05775
1.05881
1.05927
1.06081
1.06349
1.0667
1.07111
1.07672
1.08109
1.08477
1.08715
1.08782
1.0894
1.09238
1.09592
1.09987
1.10403
1.10814
1.11197
1.11479
1.11832
1.12188
1.15637
1.38397
0.898475
0.899474
0.898795
0.899487
0.901509
0.907165
0.911483
0.913378
0.914403
0.913805
0.912553
0.912941
0.914286
0.919082
0.924852
0.927477
0.928885
0.929606
0.928594
0.928134
0.92905
0.931167
0.937698
0.94348
0.945709
0.946402
0.944868
0.942888
0.943001
0.944168
0.946296
0.952966
0.961407
0.965515
0.967473
0.966607
0.962534
0.960783
0.961388
0.962828
0.965959
0.973678
0.981535
0.985594
0.987942
0.988902
0.985677
0.982784
0.982996
0.984537
0.987718
0.994456
1.00197
1.00629
1.00884
1.01048
1.00839
1.00626
1.00701
1.00892
1.01232
1.01802
1.02406
1.02817
1.03095
1.03301
1.03389
1.03381
1.03434
1.03599
1.03848
1.04178
1.04702
1.05242
1.05625
1.05909
1.06126
1.06189
1.06243
1.06464
1.06767
1.07109
1.07512
1.07991
1.08395
1.08685
1.08799
1.08983
1.09264
1.0959
1.09945
1.1033
1.1072
1.11035
1.11292
1.11654
1.12021
1.14701
1.33891
0.901407
0.902695
0.901846
0.902089
0.903277
0.907586
0.913206
0.915835
0.917144
0.91747
0.915975
0.915607
0.916554
0.919351
0.925961
0.930228
0.931836
0.932814
0.932123
0.930842
0.931191
0.93242
0.93597
0.943896
0.948747
0.950522
0.950504
0.947621
0.945894
0.946312
0.947523
0.950308
0.958276
0.966139
0.9698
0.971732
0.970539
0.966273
0.964504
0.965158
0.966783
0.970373
0.978149
0.985415
0.989283
0.991597
0.992613
0.98951
0.986783
0.987163
0.988831
0.992183
0.998947
1.0059
1.0099
1.01236
1.01382
1.01201
1.01059
1.01156
1.01353
1.01694
1.02177
1.02707
1.03118
1.0342
1.03659
1.03825
1.03822
1.03835
1.03999
1.0425
1.04578
1.05083
1.05589
1.05952
1.06228
1.06369
1.06436
1.06618
1.06898
1.07207
1.07542
1.07898
1.08257
1.08536
1.08779
1.09021
1.09289
1.09584
1.09911
1.10266
1.1061
1.10859
1.111
1.11466
1.11828
1.13758
1.29553
0.904402
0.905905
0.905198
0.904771
0.905596
0.90816
0.914293
0.918227
0.919834
0.920707
0.919796
0.918548
0.919026
0.920415
0.925485
0.932062
0.935031
0.93616
0.9362
0.9343
0.933627
0.934401
0.935954
0.941369
0.949578
0.953642
0.955184
0.95423
0.950548
0.949094
0.949714
0.951129
0.954693
0.963294
0.97038
0.973648
0.975595
0.974501
0.97027
0.968536
0.969221
0.970955
0.9747
0.982238
0.989117
0.992887
0.995191
0.996252
0.993331
0.990896
0.991422
0.993179
0.996682
1.00325
1.00956
1.01329
1.01565
1.01704
1.01588
1.01515
1.01621
1.01816
1.02124
1.02507
1.02985
1.03426
1.03764
1.0402
1.042
1.04191
1.04221
1.04408
1.04663
1.04995
1.05461
1.05902
1.06234
1.06463
1.06563
1.06751
1.0702
1.07318
1.07624
1.07929
1.08158
1.08376
1.08686
1.09006
1.09291
1.09586
1.09903
1.10206
1.10418
1.10623
1.10909
1.11294
1.11623
1.12822
1.25419
0.906945
0.90898
0.908896
0.907805
0.908089
0.909421
0.914405
0.920098
0.922547
0.923704
0.923752
0.921988
0.921582
0.922466
0.924865
0.931987
0.93747
0.939584
0.94033
0.938899
0.936759
0.936684
0.937638
0.939825
0.946939
0.954721
0.958224
0.959652
0.957789
0.953763
0.95262
0.953347
0.954966
0.959187
0.9678
0.974187
0.977248
0.979242
0.978459
0.974452
0.972686
0.973356
0.97517
0.978936
0.986123
0.992743
0.996445
0.99871
0.99983
0.997131
0.995032
0.995712
0.99757
1.0012
1.00733
1.01293
1.01643
1.0187
1.02017
1.02
1.01986
1.02079
1.02261
1.0252
1.02827
1.03275
1.03755
1.04102
1.04352
1.04512
1.04523
1.04614
1.04821
1.05077
1.0541
1.0581
1.06177
1.06467
1.06633
1.06834
1.07108
1.07399
1.07695
1.07979
1.08158
1.08302
1.08574
1.08906
1.09242
1.09569
1.09876
1.10092
1.10213
1.10422
1.10715
1.11043
1.11296
1.11933
1.21529
0.908863
0.911719
0.912443
0.911379
0.910725
0.911529
0.914271
0.920923
0.925112
0.926653
0.927418
0.926074
0.924508
0.924835
0.925969
0.93008
0.938087
0.942483
0.944054
0.944111
0.941381
0.939595
0.939873
0.940954
0.943975
0.952321
0.959417
0.962509
0.963828
0.961387
0.957304
0.956312
0.957137
0.959031
0.963647
0.971816
0.977735
0.980755
0.982779
0.982429
0.978732
0.976904
0.977566
0.979412
0.983083
0.989942
0.99629
0.999878
1.00209
1.00324
1.00092
0.999253
1.00007
1.00202
1.00568
1.01112
1.01602
1.01934
1.02162
1.02324
1.02417
1.02466
1.0253
1.02675
1.02891
1.03169
1.03609
1.04081
1.04413
1.04653
1.04787
1.04852
1.05007
1.05227
1.05484
1.05802
1.06127
1.06414
1.06642
1.06887
1.0716
1.07443
1.07731
1.08003
1.08168
1.08307
1.08536
1.0882
1.09139
1.09478
1.09773
1.09937
1.10046
1.10241
1.10473
1.10723
1.10909
1.11039
1.17914
0.910516
0.9142
0.915374
0.915275
0.913763
0.913974
0.915222
0.920262
0.926792
0.929662
0.930726
0.930561
0.928257
0.927475
0.928159
0.929754
0.935738
0.943629
0.947232
0.9485
0.947506
0.944002
0.942647
0.943183
0.944496
0.948427
0.957305
0.963652
0.966455
0.967769
0.965123
0.96114
0.960255
0.961129
0.963198
0.96783
0.975477
0.981145
0.984232
0.986316
0.986394
0.983006
0.981133
0.981767
0.983609
0.98721
0.993739
0.999721
1.00317
1.00534
1.00651
1.00469
1.00351
1.00447
1.00652
1.01009
1.01464
1.01886
1.02203
1.02444
1.02637
1.02824
1.02927
1.02941
1.03052
1.03261
1.03548
1.03965
1.04392
1.04701
1.04924
1.05049
1.05184
1.05387
1.05621
1.05881
1.06155
1.06387
1.06625
1.06898
1.07178
1.07459
1.0774
1.08003
1.08167
1.0831
1.08525
1.08779
1.09061
1.09367
1.09613
1.09737
1.09864
1.10034
1.10214
1.10407
1.10442
1.101
1.14564
0.912083
0.916654
0.918097
0.918887
0.917428
0.916603
0.917324
0.919591
0.926614
0.932003
0.934009
0.934708
0.933088
0.930754
0.930589
0.93143
0.933819
0.941427
0.948679
0.951757
0.95283
0.950736
0.946953
0.94597
0.946623
0.948252
0.952937
0.961732
0.967464
0.970101
0.971511
0.969063
0.965195
0.964291
0.965179
0.967397
0.971824
0.978924
0.984487
0.987686
0.989799
0.990283
0.987243
0.985345
0.985959
0.987803
0.991353
0.997513
1.00304
1.00633
1.00845
1.00966
1.00847
1.00785
1.00895
1.01103
1.01434
1.01793
1.0215
1.02463
1.02738
1.02987
1.03218
1.03316
1.03315
1.03437
1.03644
1.03934
1.04315
1.04688
1.04975
1.05171
1.05314
1.0551
1.05747
1.05997
1.06246
1.06435
1.06621
1.06881
1.07167
1.07459
1.07737
1.07993
1.0814
1.08278
1.0849
1.08731
1.09001
1.09289
1.09491
1.09496
1.09591
1.0978
1.0997
1.10147
1.10104
1.09498
1.11021
0.913299
0.918914
0.920986
0.922161
0.92155
0.91971
0.919722
0.920714
0.92468
0.932639
0.936917
0.938354
0.938321
0.935439
0.933586
0.933817
0.934819
0.938128
0.946689
0.953283
0.956051
0.956976
0.954058
0.950239
0.949453
0.950205
0.952149
0.95733
0.965722
0.971044
0.973598
0.975108
0.973086
0.969404
0.968448
0.969348
0.971571
0.975629
0.982218
0.987778
0.99107
0.993196
0.994035
0.991414
0.989545
0.990146
0.992001
0.995547
1.00123
1.00621
1.00933
1.0114
1.0127
1.01231
1.01227
1.01341
1.01541
1.01828
1.02108
1.02398
1.02737
1.03079
1.03339
1.03547
1.03638
1.0368
1.03824
1.04032
1.04318
1.04653
1.0497
1.0523
1.05397
1.05589
1.05829
1.06089
1.0634
1.06524
1.0665
1.06873
1.0714
1.07441
1.07727
1.07981
1.08133
1.08188
1.08394
1.0864
1.08918
1.09199
1.09411
1.09413
1.09347
1.09462
1.09623
1.0977
1.09717
1.08942
1.07725
0.914198
0.92008
0.923983
0.925376
0.925689
0.923654
0.922445
0.922976
0.924447
0.930307
0.938102
0.941624
0.942748
0.941621
0.938033
0.936667
0.937118
0.938373
0.942556
0.951488
0.957482
0.96005
0.960948
0.957653
0.95382
0.953126
0.953978
0.956227
0.961534
0.969342
0.974383
0.97699
0.978661
0.97719
0.97371
0.972638
0.973515
0.975634
0.979318
0.985461
0.991033
0.994407
0.996535
0.997603
0.995451
0.993744
0.994368
0.996245
0.999786
1.00483
1.00923
1.01217
1.01419
1.0156
1.0161
1.01672
1.01786
1.0196
1.02185
1.024
1.02672
1.03069
1.03408
1.03651
1.03833
1.03927
1.04032
1.04204
1.0442
1.04699
1.04977
1.05228
1.05436
1.05646
1.05888
1.06153
1.06408
1.06623
1.06721
1.0686
1.07106
1.0739
1.077
1.07957
1.08164
1.08186
1.08249
1.08477