/*--------------------------------*- C++ -*----------------------------------*\
  =========                 |
  \\      /  F ield         | OpenFOAM: The Open Source CFD Toolbox
   \\    /   O peration     | Website:  https://openfoam.org
    \\  /    A nd           | Version:  12
     \\/     M anipulation  |
\*---------------------------------------------------------------------------*/
FoamFile
{
    format      ascii;
    class       volVectorField;
    location    "0.9";
    object      U;
}
// * * * * * * * * * * * * * * * * * * * * * * * * * * * * * * * * * * * * * //

dimensions      [0 1 -1 0 0 0 0];

internalField   nonuniform List<vector> 
183995
(
(0.794991 0.0035939 0)
(1.09975 -0.0792598 0)
(0.92 -9.44101e-14 0)
(1.01507 -0.0453415 0)
(0.92 6.08016e-14 0)
(0.92 -1.7938e-13 0)
(0.893625 -0.0208931 0)
(0.92 6.84868e-15 0)
(0.922069 -0.00614439 0)
(0.899049 -0.0182885 0)
(0.988261 -0.0158719 0)
(0.832603 0.0716412 0)
(0.98812 -0.0165041 0)
(0.92 -6.63183e-15 0)
(0.92 2.91546e-14 0)
(0.92 7.23891e-14 0)
(0.92 1.15754e-13 0)
(0.954091 0.0221088 0)
(0.92 -4.83037e-14 0)
(0.92 2.46127e-14 0)
(0.850603 0.000287104 0)
(0.822483 0.001711 0)
(0.797855 0.00270203 0)
(0.92 -1.48329e-14 0)
(0.92 -9.60999e-15 0)
(0.95187 0.0230947 0)
(0.92 7.7922e-14 0)
(0.911648 -0.01345 0)
(0.92 1.73774e-14 0)
(0.92 -9.11235e-14 0)
(0.92 1.98388e-13 0)
(0.92 -9.80256e-14 0)
(0.988255 -0.0146052 0)
(0.92 1.36114e-13 0)
(0.989564 -0.0147458 0)
(0.833492 0.071232 0)
(0.92 -2.16927e-14 0)
(0.92 -1.84709e-13 0)
(0.92 -9.59315e-14 0)
(0.92 -1.21991e-13 0)
(0.736522 0.00634615 0)
(0.92 -5.7454e-14 0)
(0.92 1.35416e-13 0)
(0.92 -5.276e-13 0)
(0.92 9.66055e-15 0)
(0.92 -1.45516e-13 0)
(1.09591 -0.0756552 0)
(1.10306 -0.00100992 0)
(0.92 1.5962e-13 0)
(0.92 -1.17769e-13 0)
(0.92 -1.76898e-13 0)
(0.845327 0.000891464 0)
(0.92 -3.33648e-13 0)
(0.92 -1.05451e-13 0)
(0.92 -8.35112e-14 0)
(0.824413 0.00135599 0)
(0.925958 -0.0104635 0)
(0.990424 -0.0136452 0)
(0.99503 -0.0201722 0)
(0.98983 -0.0137244 0)
(0.92 7.70486e-14 0)
(0.920599 5.52455e-06 0)
(0.910268 -0.0145042 0)
(0.834309 -0.0780085 0)
(0.924778 -0.0182665 0)
(0.801994 0.00425998 0)
(0.92 2.04886e-14 0)
(0.800186 0.000565605 0)
(0.92 -6.02402e-14 0)
(0.92 -4.74755e-14 0)
(0.92 -1.00301e-14 0)
(0.986489 -0.010025 0)
(0.985994 -0.00947085 0)
(0.92 -1.76253e-13 0)
(0.948921 0.0253627 0)
(0.804573 0.00454051 0)
(0.92 -1.19262e-13 0)
(0.92575 -0.00988009 0)
(0.867109 0.0671848 0)
(0.985712 -0.0123901 0)
(0.986288 -0.0122101 0)
(0.92 -2.55477e-13 0)
(0.92 -5.20629e-09 0)
(0.847263 0.000771181 0)
(0.92 -7.89003e-14 0)
(0.92 -2.09856e-13 0)
(0.92 1.65576e-14 0)
(0.906728 -0.0234545 0)
(0.684328 -0.0039473 0)
(0.92 -1.55581e-13 0)
(0.984582 -0.00888012 0)
(0.984882 -0.00829121 0)
(0.9217 -0.00671666 0)
(0.92 -2.58119e-14 0)
(0.92 -6.68421e-14 0)
(0.92 7.06251e-14 0)
(0.826313 0.000310483 0)
(0.92 6.84866e-14 0)
(0.997344 -0.0211543 0)
(1.09675 -0.0737388 0)
(0.826825 0.00202332 0)
(0.865474 0.00166176 0)
(0.980576 -0.0598351 0)
(0.92 -8.77774e-14 0)
(0.735132 -0.008515 0)
(0.92 -2.78638e-14 0)
(0.828671 0.00217126 0)
(0.997523 -0.055715 0)
(0.896148 0.0573276 0)
(0.92 3.84799e-14 0)
(0.92 4.13823e-15 0)
(0.914903 -0.00109295 0)
(0.92 -1.08544e-14 0)
(0.70967 0.00670037 0)
(0.84735 9.18257e-05 0)
(0.92 1.27817e-13 0)
(0.92 8.81554e-14 0)
(0.996821 -0.0221828 0)
(1.29301 -0.025558 0)
(0.92 2.18877e-13 0)
(0.887395 9.61563e-05 0)
(0.92 2.61728e-10 0)
(0.95608 0.0244684 0)
(0.980454 -0.00515416 0)
(0.980546 -0.00483535 0)
(0.744242 0.0567828 0)
(0.92 -1.69048e-13 0)
(0.708704 0.00738722 0)
(0.92 1.10491e-13 0)
(0.92 -8.24906e-14 0)
(0.948144 0.0265959 0)
(0.92 -1.1084e-13 0)
(0.92 9.16842e-14 0)
(0.92604 -0.00587936 0)
(0.92 -9.30029e-14 0)
(0.949831 0.0227096 0)
(0.893825 0.00102254 0)
(0.92 -1.60356e-13 0)
(0.887714 -0.0809826 0)
(0.92 -1.41873e-13 0)
(0.997553 -0.0207596 0)
(0.98096 -0.00177525 0)
(0.978814 -0.000922887 0)
(0.975231 0.00323343 0)
(0.974962 0.00315424 0)
(0.841522 0.0710648 0)
(0.911087 0.00140923 0)
(0.92 2.88399e-14 0)
(0.727057 0.02777 0)
(0.92 -3.07021e-14 0)
(0.92 -4.49734e-14 0)
(0.978983 -0.000435656 0)
(0.97832 -0.00030375 0)
(0.92 -3.86602e-14 0)
(0.92 -5.72627e-11 0)
(1.05597 -0.0820864 0)
(0.842332 0.0704793 0)
(0.92 4.39427e-14 0)
(0.920834 -0.000228885 0)
(0.92 1.73973e-14 0)
(0.92 -3.91512e-14 0)
(0.92 1.13987e-13 0)
(0.92 1.35517e-14 0)
(0.733999 0.0242357 0)
(0.92 6.82425e-14 0)
(0.92 1.55794e-14 0)
(0.92 1.04535e-13 0)
(0.92 6.32523e-14 0)
(0.986799 -0.0129801 0)
(0.987975 -0.0132025 0)
(0.950943 0.0245611 0)
(0.900705 -0.0852342 0)
(0.974075 -0.0741575 0)
(0.972189 0.00609804 0)
(1.01959 -0.0711738 0)
(0.972172 0.00611412 0)
(0.92 1.69169e-13 0)
(0.92 6.43657e-14 0)
(0.92 2.07338e-13 0)
(0.92 7.96522e-14 0)
(0.916235 0.000317801 0)
(0.906605 -0.0204533 0)
(0.92 7.07582e-14 0)
(0.92 -3.80331e-14 0)
(0.92 -1.37483e-15 0)
(0.92 -4.57277e-14 0)
(1.02668 -0.0435649 0)
(0.92 4.81319e-14 0)
(0.92 1.73745e-14 0)
(0.868652 0.0671053 0)
(0.912128 -0.0205893 0)
(0.92 6.55786e-14 0)
(0.92 -7.48766e-14 0)
(0.92 1.17201e-13 0)
(0.92 5.10547e-14 0)
(1.01358 -0.0488739 0)
(0.92 2.92165e-14 0)
(0.92 -6.0726e-14 0)
(0.926187 -0.00615852 0)
(0.92 1.32474e-13 0)
(0.923043 0.0465998 0)
(0.92 -6.69878e-14 0)
(0.92 1.02347e-13 0)
(0.92 7.24804e-14 0)
(0.925099 -0.0188982 0)
(0.969138 0.00922442 0)
(0.837282 0.071481 0)
(0.969728 0.00925951 0)
(0.92 1.76393e-13 0)
(0.955924 0.0224575 0)
(1.03431 -0.0499079 0)
(0.999595 -0.0550421 0)
(0.92 -1.1775e-13 0)
(0.92 9.72382e-14 0)
(0.92 -1.05402e-13 0)
(1.00997 -0.0550643 0)
(0.92 2.38523e-13 0)
(0.94609 0.0275878 0)
(0.92 8.04506e-14 0)
(0.92 -5.24705e-11 0)
(0.910114 -0.0160248 0)
(0.92 -7.40618e-14 0)
(0.969605 0.0107952 0)
(0.96925 0.0103527 0)
(0.92 -1.40625e-13 0)
(0.92 -5.9323e-14 0)
(0.92 6.26126e-14 0)
(0.92 -4.1925e-13 0)
(0.946197 0.026019 0)
(0.92 9.9453e-14 0)
(0.838343 0.0707629 0)
(0.92 1.86162e-13 0)
(0.92 1.57971e-13 0)
(0.92 3.92463e-13 0)
(0.95556 0.0220216 0)
(0.92 1.12842e-13 0)
(0.943406 0.0290847 0)
(0.91194 -0.0127051 0)
(0.909772 -0.0152901 0)
(0.92 4.9792e-14 0)
(0.906761 -0.0199469 0)
(0.993056 -0.0173837 0)
(0.92 -2.52445e-14 0)
(0.92 -2.0546e-13 0)
(0.92 -3.32913e-14 0)
(0.92 5.61414e-14 0)
(0.926377 -0.00693071 0)
(0.950417 0.0229537 0)
(0.92 -1.04243e-13 0)
(0.92 1.26435e-13 0)
(0.92 -3.37398e-14 0)
(0.966796 0.0130494 0)
(0.92 5.06675e-14 0)
(0.966895 0.0129065 0)
(0.926384 -0.00432176 0)
(0.984841 -0.00705044 0)
(0.92 -9.10109e-14 0)
(0.985173 -0.0070154 0)
(0.945047 0.028174 0)
(0.896776 0.0570166 0)
(0.92 -1.23306e-13 0)
(0.92 2.19066e-13 0)
(0.995103 -0.0440655 0)
(0.92 -5.42768e-14 0)
(0.963411 0.015439 0)
(0.92 1.5843e-13 0)
(0.749721 0.0637894 0)
(0.963299 0.0154272 0)
(0.92 1.67533e-13 0)
(0.92 -1.103e-13 0)
(0.92 2.00978e-13 0)
(0.92 3.08907e-14 0)
(0.924488 -0.0195583 0)
(0.92 -9.54626e-15 0)
(0.92 4.78952e-14 0)
(0.986787 -0.0108596 0)
(0.955673 0.0214287 0)
(0.9875 -0.0110404 0)
(0.92 1.64663e-13 0)
(0.92 -2.12194e-14 0)
(0.928444 -0.0296445 0)
(0.92 6.67168e-15 0)
(0.960061 0.0186807 0)
(0.92 1.58399e-13 0)
(0.92 6.16749e-14 0)
(0.92 -2.06527e-13 0)
(0.92 -6.78152e-14 0)
(0.920738 -0.00430875 0)
(0.795591 -0.0713643 0)
(0.960306 0.0182395 0)
(0.92 4.14716e-14 0)
(0.926582 -0.00407081 0)
(0.92 -1.2171e-13 0)
(0.92 -1.12679e-13 0)
(0.92 1.10652e-13 0)
(0.91956 0.0484253 0)
(0.952233 0.0241072 0)
(0.92 -5.68328e-14 0)
(0.92 -2.39104e-13 0)
(0.92 3.09699e-13 0)
(0.918736 -0.0179749 0)
(0.92 3.93189e-17 0)
(0.92 1.767e-13 0)
(0.92 4.06213e-14 0)
(0.92 1.03929e-13 0)
(0.92 -2.51749e-13 0)
(0.960366 0.0199829 0)
(0.942859 0.0298683 0)
(0.92 1.17195e-14 0)
(0.92 -1.15734e-14 0)
(0.954621 0.0270181 0)
(0.92 2.30469e-14 0)
(0.92 -5.40711e-11 0)
(0.906673 -0.0234169 0)
(0.92 -1.13546e-13 0)
(0.92 5.41096e-14 0)
(0.92 -4.83128e-14 0)
(0.981684 -0.00480118 0)
(0.92 8.3828e-14 0)
(0.960559 0.0202578 0)
(0.98286 -0.00496405 0)
(0.951631 0.0221625 0)
(0.92 -5.93134e-15 0)
(0.92 1.90095e-13 0)
(0.87004 0.0663008 0)
(0.92 7.66822e-14 0)
(0.92 -5.71256e-14 0)
(0.926711 -0.0125422 0)
(0.92 2.19284e-13 0)
(1.2919 -0.0544756 0)
(0.92 -8.47493e-15 0)
(0.854345 -0.0708991 0)
(0.920192 0.0484683 0)
(0.92 -3.26821e-14 0)
(0.92 -1.55287e-13 0)
(0.925652 0.0471656 0)
(0.957875 0.0208596 0)
(0.958808 0.0203031 0)
(0.92 2.7045e-13 0)
(0.92 -5.41707e-16 0)
(0.92 -6.95806e-14 0)
(0.950613 0.0248322 0)
(0.92 -2.43215e-14 0)
(0.92 5.98361e-14 0)
(0.92 -3.96866e-14 0)
(0.92 7.7037e-14 0)
(0.960396 0.0196049 0)
(0.92 -1.00913e-14 0)
(0.943309 0.0285432 0)
(0.92 3.50037e-14 0)
(0.92 1.52688e-13 0)
(0.959424 0.0196743 0)
(0.92 -3.36192e-14 0)
(0.92 -1.41412e-13 0)
(0.92 9.32406e-14 0)
(0.925113 0.0458593 0)
(0.92 6.78014e-14 0)
(0.979811 -0.0866656 0)
(0.92 6.96307e-14 0)
(0.984389 -0.00915284 0)
(0.920493 -0.00201241 0)
(0.984354 -0.00912239 0)
(0.797993 -0.0406141 0)
(0.776826 -0.0489777 0)
(0.939973 0.0321092 0)
(0.92 4.12175e-14 0)
(0.92 3.33581e-14 0)
(0.92 2.31978e-13 0)
(0.942522 0.0303409 0)
(1.06857 -0.07879 0)
(0.92 -2.11245e-13 0)
(0.92 -1.14359e-12 0)
(0.92 8.03661e-14 0)
(0.92 -4.44412e-14 0)
(0.92 -1.25633e-13 0)
(0.92 -1.14437e-13 0)
(0.92 -3.20324e-14 0)
(0.947239 0.0256549 0)
(0.885091 -0.0793532 0)
(0.797612 0.00125453 0)
(0.803094 0.00123412 0)
(0.912013 -0.0128848 0)
(0.92 -1.45939e-13 0)
(0.920717 -0.00425233 0)
(0.92 -1.96658e-13 0)
(0.978001 -0.000543307 0)
(0.92 -1.31734e-13 0)
(0.977805 -0.00133486 0)
(0.92 -1.10064e-14 0)
(0.92 -3.50965e-14 0)
(0.92 -5.53064e-16 0)
(0.92 3.59606e-13 0)
(0.92 -3.46169e-14 0)
(0.92 9.38935e-14 0)
(1.19358 0.0197216 0)
(0.92 -6.02211e-15 0)
(0.92706 -0.00380246 0)
(0.92 -2.79135e-13 0)
(0.984529 -0.0874172 0)
(0.92 -4.87943e-14 0)
(0.92 2.72405e-14 0)
(0.92 1.77602e-13 0)
(0.92 -1.50508e-14 0)
(0.986931 -0.0841221 0)
(0.92 -7.31183e-14 0)
(0.964058 0.0165685 0)
(0.993152 -0.0202027 0)
(0.92 1.43616e-14 0)
(0.92 4.52882e-14 0)
(0.686572 0.00761453 0)
(0.695153 -0.00714983 0)
(0.963385 0.0164995 0)
(0.92 1.15655e-13 0)
(0.92 -3.19206e-14 0)
(0.827246 -0.0331651 0)
(0.925628 -0.0136034 0)
(0.951508 0.0272918 0)
(0.92 -1.65671e-14 0)
(0.92 -6.59389e-14 0)
(0.92 -2.84053e-14 0)
(0.951986 -0.0771324 0)
(0.824568 0.000602063 0)
(0.828221 0.000633461 0)
(0.922858 0.0472023 0)
(0.927769 -0.0297912 0)
(0.94712 0.0263894 0)
(0.92 1.43655e-13 0)
(0.92 1.83929e-13 0)
(0.92 -1.10066e-13 0)
(0.92 1.12089e-13 0)
(1.04623 -0.029616 0)
(0.92 -8.15618e-14 0)
(0.92 -1.03583e-13 0)
(0.92 3.87693e-14 0)
(0.92 9.30283e-14 0)
(0.92 -7.79724e-14 0)
(0.977612 0.00131184 0)
(0.921212 -0.00498092 0)
(0.977678 0.00176622 0)
(0.938839 0.0326184 0)
(0.92 -1.07885e-13 0)
(0.92 9.99582e-14 0)
(0.92 1.62994e-13 0)
(0.92 -6.16095e-14 0)
(0.937994 -0.0683805 0)
(0.92 -1.31819e-13 0)
(0.92 -4.09184e-13 0)
(0.910619 -0.0160601 0)
(0.993513 -0.0445944 0)
(0.844948 -0.0724192 0)
(1.03212 -0.0552649 0)
(0.92 -5.12101e-14 0)
(0.92 9.94264e-14 0)
(0.919837 -0.000669677 0)
(0.922269 -0.00545121 0)
(0.92 -7.00605e-14 0)
(0.949871 0.022771 0)
(0.92 4.53599e-15 0)
(0.954676 0.0246893 0)
(0.966142 0.0137452 0)
(0.92 -5.74438e-14 0)
(0.92 -6.56646e-14 0)
(0.976012 -0.00284199 0)
(0.92 1.13282e-13 0)
(1.0145 -0.0452852 0)
(0.920649 -0.0232269 0)
(0.976542 -0.00181247 0)
(0.928814 -0.0294882 0)
(0.96612 0.0136221 0)
(0.92 -1.46889e-13 0)
(0.847277 0.000327218 0)
(0.846849 0.000585141 0)
(0.92 8.40865e-15 0)
(0.92 -3.45884e-14 0)
(0.92416 -0.0179417 0)
(0.92 5.16746e-14 0)
(0.92 8.95286e-14 0)
(0.92 2.5732e-11 0)
(0.92 1.72824e-13 0)
(0.975581 -0.000968562 0)
(0.974651 -0.000863385 0)
(0.92 -2.21072e-13 0)
(0.914975 -0.0751209 0)
(0.962917 0.0176585 0)
(0.92 -6.59658e-14 0)
(0.883669 -0.0368474 0)
(0.92 1.77619e-13 0)
(1.01237 -0.040194 0)
(0.92 1.40922e-13 0)
(0.92 1.50905e-13 0)
(0.975084 0.00438261 0)
(0.975102 0.00404068 0)
(1.07793 -0.0812509 0)
(0.920636 -0.00239037 0)
(0.920165 -0.0233928 0)
(1.01781 -0.0614234 0)
(0.92 1.58514e-13 0)
(0.92 1.77874e-13 0)
(0.864921 -0.0010781 0)
(0.908618 0.000680591 0)
(0.92 -4.26385e-14 0)
(0.940736 0.0310563 0)
(0.92 8.04705e-14 0)
(0.92 1.29101e-14 0)
(0.92672 -0.00371387 0)
(0.92 8.89674e-14 0)
(0.92 5.83162e-14 0)
(0.92 -2.48831e-14 0)
(0.92 -2.54856e-13 0)
(0.92 3.63471e-14 0)
(0.92 5.44261e-14 0)
(0.963147 0.0170554 0)
(0.92 8.11806e-14 0)
(0.925455 -0.0131431 0)
(0.92 6.35906e-14 0)
(0.918988 -0.00568577 0)
(0.92 1.43105e-13 0)
(0.92 -7.8698e-14 0)
(0.92 -4.89965e-14 0)
(0.92 -1.5276e-14 0)
(0.946839 0.0306695 0)
(0.92 -1.54741e-13 0)
(0.929675 0.000117143 0)
(0.92 6.49247e-14 0)
(0.836446 -0.000604308 0)
(0.973404 0.00740688 0)
(0.92 -1.01899e-13 0)
(0.92185 -0.00548149 0)
(0.972545 0.00703927 0)
(0.76266 0.0648794 0)
(0.92 -5.20557e-14 0)
(0.92 9.22168e-14 0)
(0.92 -1.37807e-13 0)
(0.92 -1.65112e-13 0)
(0.92 -4.58981e-13 0)
(0.903519 -0.0262477 0)
(0.92 2.32561e-14 0)
(1.08233 -0.0761616 0)
(0.92 5.38746e-14 0)
(0.92 -1.46209e-13 0)
(0.92 3.69549e-14 0)
(0.997536 -0.0602675 0)
(0.92 8.10985e-15 0)
(0.92 2.08114e-15 0)
(0.92 1.13236e-13 0)
(0.92 1.76863e-13 0)
(0.92 -2.73338e-13 0)
(0.920777 -0.00496283 0)
(0.92 -1.20566e-13 0)
(0.92 -1.44009e-13 0)
(0.92 1.0918e-13 0)
(0.92 -1.20448e-13 0)
(0.98123 -0.00532992 0)
(0.92 -6.79673e-15 0)
(0.92 -1.64704e-14 0)
(0.92 2.45681e-14 0)
(0.92 -1.08504e-13 0)
(0.982674 -0.00577035 0)
(0.938717 0.0328175 0)
(1.00955 -0.0525104 0)
(0.92 -6.02331e-14 0)
(0.92 -2.35343e-14 0)
(0.945997 0.0310109 0)
(0.92 -5.4341e-14 0)
(1.0428 -0.0805213 0)
(0.92 -2.54699e-14 0)
(0.92 -1.94904e-13 0)
(0.92 -2.01221e-13 0)
(0.92 -7.724e-14 0)
(0.92 4.27594e-15 0)
(0.92 8.60678e-14 0)
(0.943229 0.028887 0)
(0.92 -8.87076e-10 0)
(0.92 1.01402e-10 0)
(0.92 1.60426e-13 0)
(0.937532 0.0339973 0)
(0.92 -1.67954e-13 0)
(1.00934 -0.0518194 0)
(0.95177 0.0266223 0)
(0.92 -4.85772e-14 0)
(0.734494 0.0551748 0)
(0.923038 -0.00457654 0)
(0.92 -1.66194e-13 0)
(0.92 -1.18946e-13 0)
(0.996104 -0.0575145 0)
(0.92 1.99275e-13 0)
(0.92 1.18974e-14 0)
(0.92 -1.39977e-13 0)
(0.920397 -0.0202987 0)
(0.955611 0.0268713 0)
(0.973701 0.00217703 0)
(0.92 9.58657e-14 0)
(0.973065 0.00253144 0)
(0.92 6.46902e-14 0)
(0.92 5.77922e-14 0)
(0.92 -1.25193e-13 0)
(0.92 -1.4674e-14 0)
(0.92 -1.78157e-13 0)
(0.92 2.4803e-13 0)
(0.92 2.96539e-14 0)
(0.92 2.31752e-13 0)
(0.92 1.41787e-13 0)
(0.92 -9.84837e-14 0)
(0.92 -7.43473e-14 0)
(0.925964 -0.0713038 0)
(1.05766 -0.0702917 0)
(0.951709 0.0240006 0)
(0.950331 0.0250009 0)
(0.928955 2.30678e-05 0)
(0.951496 0.0222065 0)
(0.947771 0.0271342 0)
(0.92 7.9177e-14 0)
(0.92 2.03214e-13 0)
(0.92 -8.47564e-14 0)
(0.928271 0.0442121 0)
(0.92 1.47417e-13 0)
(0.92 1.08964e-13 0)
(0.932121 -0.0328935 0)
(0.92 -2.43397e-13 0)
(0.92 -1.28837e-13 0)
(0.92 2.18372e-14 0)
(0.92 4.68039e-14 0)
(0.92 1.77497e-13 0)
(0.92 1.45301e-13 0)
(0.92 7.38754e-14 0)
(0.92 1.92194e-13 0)
(0.92 -2.21692e-13 0)
(0.92 6.85169e-14 0)
(0.921341 -0.00556397 0)
(0.992433 -0.0177483 0)
(0.92 1.32138e-14 0)
(0.92 6.54759e-16 0)
(0.92 -4.11894e-14 0)
(0.925981 -0.00714813 0)
(0.92 -2.57599e-13 0)
(0.950305 0.0281007 0)
(0.92 -1.57332e-13 0)
(1.01467 -0.0460715 0)
(0.925516 -0.0129216 0)
(0.923691 0.0469951 0)
(0.92 -6.69218e-15 0)
(0.923451 -0.00676376 0)
(0.900486 0.0561708 0)
(0.992301 -0.020291 0)
(0.92 1.72583e-13 0)
(0.92 -7.87196e-15 0)
(0.92 6.56967e-14 0)
(0.92 -2.81208e-13 0)
(0.92 -1.03671e-13 0)
(0.92 1.11492e-14 0)
(0.92 -1.31398e-13 0)
(0.910204 -0.0161062 0)
(0.92 1.61436e-13 0)
(0.92 9.14736e-14 0)
(0.92 4.73151e-16 0)
(0.865996 0.0675461 0)
(0.92 9.88081e-14 0)
(0.92 -7.07549e-11 0)
(0.92 -1.17763e-13 0)
(0.858384 0.0433497 0)
(0.928363 0.0454263 0)
(0.992711 -0.0448441 0)
(0.92 9.70661e-15 0)
(0.92 1.20783e-13 0)
(0.970315 0.00403389 0)
(0.92 -1.65402e-14 0)
(0.92 2.36634e-14 0)
(0.969942 0.00464608 0)
(0.92 9.2211e-14 0)
(0.92 -2.01124e-13 0)
(0.92 -9.89863e-14 0)
(0.92122 -0.00494297 0)
(0.92 3.68642e-14 0)
(0.92 -1.88094e-13 0)
(0.990791 -0.0185275 0)
(0.92 -5.35352e-14 0)
(0.92 -4.50137e-16 0)
(0.92 7.79678e-14 0)
(0.964574 0.0145455 0)
(0.92 -7.39789e-14 0)
(0.92 -2.69608e-14 0)
(0.92 -1.88956e-14 0)
(0.92 -4.10343e-14 0)
(0.928496 -0.0261211 0)
(0.871705 -0.0743319 0)
(0.92 9.49178e-14 0)
(0.956043 -0.0675027 0)
(0.92 -9.47759e-14 0)
(1.02003 -0.0848853 0)
(0.920623 -0.00382998 0)
(0.946953 0.0256559 0)
(0.946639 0.0261308 0)
(0.965161 0.0142394 0)
(0.92 -1.56619e-13 0)
(0.92 -9.51821e-14 0)
(0.901919 -0.0374734 0)
(0.938034 0.0330635 0)
(0.92 -1.70611e-13 0)
(0.958534 -0.0716844 0)
(0.928118 -0.00141582 0)
(0.951145 0.0257074 0)
(1.00539 -0.0446954 0)
(0.92 -9.09213e-14 0)
(0.92 -2.90044e-14 0)
(0.92 -1.99933e-13 0)
(0.92 -9.67663e-14 0)
(0.92 1.60661e-13 0)
(0.92 -1.39757e-14 0)
(0.92 4.41569e-14 0)
(0.895138 -0.0848568 0)
(0.834751 -0.0402127 0)
(0.80158 0.00312141 0)
(0.92 1.56274e-13 0)
(0.92 -1.00153e-13 0)
(0.983199 -0.00310633 0)
(0.92 2.3993e-14 0)
(0.792898 -0.00469878 0)
(0.935009 0.0356269 0)
(0.92 -5.48668e-14 0)
(0.98279 -0.00383093 0)
(0.951512 0.0256344 0)
(0.872265 0.0660428 0)
(0.92 8.77531e-14 0)
(0.92 8.87412e-14 0)
(0.852871 0.0689175 0)
(0.92 -8.74961e-14 0)
(0.92 8.07282e-14 0)
(0.92 1.9733e-13 0)
(0.909878 -0.0150073 0)
(0.92 -1.47847e-13 0)
(0.92 -8.75596e-14 0)
(0.920038 -2.35478e-05 0)
(0.92 2.12484e-14 0)
(0.92 -1.9029e-13 0)
(0.92 -6.11295e-14 0)
(0.940416 0.0316244 0)
(0.92 7.90292e-14 0)
(0.968054 0.00701961 0)
(0.967585 0.0073397 0)
(0.92 -2.97922e-14 0)
(0.92 1.00569e-13 0)
(0.92 -5.28138e-14 0)
(0.92 -1.44193e-13 0)
(0.92 1.20428e-13 0)
(1.28688 0.0172709 0)
(0.854374 0.0692907 0)
(0.919471 -0.0036944 0)
(0.92 -4.68867e-14 0)
(1.12279 0.0180937 0)
(0.92755 -0.0279314 0)
(0.92 -2.29931e-14 0)
(0.92 -2.67201e-13 0)
(0.92 3.57414e-14 0)
(0.92 -2.62661e-14 0)
(0.92 2.32826e-13 0)
(0.92 5.16892e-14 0)
(0.92 -6.12298e-14 0)
(0.82666 0.00150104 0)
(0.92 1.05935e-13 0)
(0.92 -3.52569e-14 0)
(0.92 1.4284e-14 0)
(0.92 -2.67509e-14 0)
(0.92 -1.53528e-13 0)
(0.92 1.89644e-14 0)
(0.92 7.53678e-14 0)
(0.92 -9.91981e-14 0)
(0.92 -1.85847e-14 0)
(0.92 -1.09352e-14 0)
(0.92 2.61436e-14 0)
(0.947212 0.0271515 0)
(0.92 1.24393e-08 0)
(0.92 1.47536e-13 0)
(0.932994 -0.0292811 0)
(0.900741 0.0557501 0)
(0.92 -9.40488e-14 0)
(0.92 1.72715e-13 0)
(0.920604 -0.00470703 0)
(0.92 3.37583e-14 0)
(0.94365 0.0296221 0)
(0.918887 -0.0186271 0)
(0.92 7.80401e-14 0)
(0.92 -6.46341e-17 0)
(0.92 5.56585e-15 0)
(0.92 3.22598e-14 0)
(0.92 -1.33303e-14 0)
(0.92 -8.07069e-14 0)
(1.22822 0.00900156 0)
(0.934483 0.0349493 0)
(0.994593 -0.0229449 0)
(0.92 -7.90739e-15 0)
(0.92 5.05206e-14 0)
(0.92 -1.48105e-13 0)
(0.92 2.1875e-14 0)
(0.92 9.00635e-14 0)
(0.92 1.59866e-13 0)
(1.00095 -0.0393915 0)
(0.923085 -0.00467148 0)
(0.890335 0.0586986 0)
(0.92 -6.8749e-14 0)
(0.92 -2.20254e-14 0)
(0.920718 -0.00378749 0)
(0.942982 0.028783 0)
(0.92 -9.68721e-14 0)
(0.92 1.46116e-13 0)
(0.92 -2.39962e-13 0)
(0.92 -1.66932e-13 0)
(0.890753 0.0585223 0)
(0.927343 -0.0243602 0)
(0.92 -1.23347e-13 0)
(0.92 1.53887e-13 0)
(0.899312 0.0563773 0)
(0.92 1.77174e-13 0)
(0.92 -2.11601e-13 0)
(0.92 3.10184e-14 0)
(0.918848 -0.00747408 0)
(0.92 4.04726e-14 0)
(0.92 -6.03115e-14 0)
(0.917868 0.00111783 0)
(0.92 -2.06572e-14 0)
(0.92 -2.03602e-13 0)
(0.769841 0.0676731 0)
(0.92 1.50514e-14 0)
(0.926619 0.045459 0)
(0.966013 0.00978172 0)
(0.8493 0.0702726 0)
(0.965602 0.0101441 0)
(0.846605 0.000768437 0)
(0.92 1.00738e-13 0)
(0.914681 -0.0188118 0)
(0.92 6.67059e-08 0)
(0.910915 -0.0153404 0)
(0.92 -1.40936e-14 0)
(0.92 1.06871e-13 0)
(0.92 -1.01307e-13 0)
(0.92 1.01532e-13 0)
(0.924506 0.0463263 0)
(0.92 -5.72942e-14 0)
(0.92 -7.96002e-14 0)
(0.893324 -0.000738706 0)
(0.932223 0.0428628 0)
(0.92 -4.21502e-14 0)
(0.92 2.07888e-13 0)
(0.92 6.41683e-14 0)
(0.978489 -0.000800462 0)
(0.92 -1.86681e-14 0)
(0.984609 -0.0457303 0)
(0.92 -3.13528e-13 0)
(0.92 -3.09818e-15 0)
(0.92 -5.68953e-14 0)
(0.980709 -0.00296325 0)
(0.92779 -0.0286487 0)
(0.924909 0.0475856 0)
(0.925322 0.046534 0)
(0.910342 -0.0146015 0)
(0.977642 -0.000720222 0)
(0.92 9.28765e-14 0)
(0.92 8.37569e-14 0)
(0.92 4.03519e-14 0)
(0.998363 -0.0437644 0)
(0.968325 0.0122473 0)
(0.92 -1.76572e-14 0)
(0.92 -6.82846e-14 0)
(0.92 -1.38936e-13 0)
(0.92 -9.05686e-14 0)
(0.92 8.4991e-14 0)
(1.01087 -0.04229 0)
(0.810177 0.0107377 0)
(0.92 -5.45191e-12 0)
(0.980998 -0.00265649 0)
(0.92 5.97888e-14 0)
(0.968618 0.0116146 0)
(0.882993 -0.0154803 0)
(0.931989 -0.0683261 0)
(0.919227 -0.0239211 0)
(0.92 2.12982e-14 0)
(0.919318 -0.00377507 0)
(0.93175 0.0373032 0)
(0.927559 -0.0292126 0)
(0.850322 0.0700091 0)
(0.92 2.4546e-14 0)
(0.92 -1.20754e-13 0)
(0.923072 0.0145345 0)
(0.92 -5.52985e-14 0)
(0.92 -2.75006e-14 0)
(0.92 1.69849e-14 0)
(0.92 -6.50715e-14 0)
(0.92 -1.3101e-13 0)
(0.968843 0.00954485 0)
(0.92 -1.34885e-13 0)
(0.92 1.4924e-13 0)
(0.92 -4.65305e-14 0)
(0.931615 0.0430496 0)
(0.92 4.99786e-14 0)
(0.92 3.74447e-14 0)
(0.92 1.93255e-13 0)
(0.92 -1.11765e-13 0)
(0.926808 -0.068127 0)
(0.92 4.6539e-15 0)
(0.92 -5.10932e-14 0)
(0.92 1.61349e-14 0)
(0.968473 0.00961719 0)
(0.92 9.06762e-14 0)
(0.901868 0.0554172 0)
(0.731557 -0.0121535 0)
(0.92 -3.9617e-14 0)
(0.92 -3.67706e-14 0)
(0.922628 -0.00489886 0)
(0.92 -1.33122e-13 0)
(0.92 -1.01436e-13 0)
(0.92 -1.53419e-14 0)
(0.975478 0.00276791 0)
(0.92 -1.06017e-13 0)
(0.909741 -0.0356149 0)
(0.92 -1.87119e-14 0)
(0.92 1.01861e-13 0)
(0.92 -1.10628e-13 0)
(0.92 -8.17647e-14 0)
(1.18863 0.041624 0)
(0.92 -3.06566e-14 0)
(0.920023 -0.0180571 0)
(0.92 -8.20877e-14 0)
(0.92 -4.0015e-14 0)
(0.92 -1.05028e-13 0)
(0.92 -2.06435e-13 0)
(0.972133 0.00872485 0)
(0.92 -7.18657e-14 0)
(0.93818 0.0334522 0)
(0.931862 -0.0336281 0)
(0.92 5.6317e-15 0)
(0.92 1.37296e-13 0)
(0.943189 0.0293817 0)
(0.92 -3.02723e-13 0)
(0.92 -1.18981e-13 0)
(0.975709 0.00275095 0)
(0.930076 0.000687533 0)
(0.92 3.01322e-16 0)
(0.92 2.00611e-13 0)
(1.00797 -0.0473032 0)
(0.92 1.41421e-13 0)
(0.92 -4.72682e-13 0)
(0.92 -2.50926e-14 0)
(0.92 1.34982e-13 0)
(0.926913 -0.0553372 0)
(0.933103 0.0363147 0)
(0.92 2.57711e-14 0)
(0.92 1.70717e-13 0)
(0.912031 -0.0124715 0)
(0.931481 0.0436803 0)
(0.907282 0.0532828 0)
(0.845131 0.0708135 0)
(0.92 1.00315e-13 0)
(0.92 2.70145e-13 0)
(0.92 9.3148e-14 0)
(0.92 -2.64258e-14 0)
(0.92 -1.70103e-13 0)
(0.972675 0.00810392 0)
(0.92 -4.0887e-14 0)
(0.92 -1.79465e-13 0)
(0.92 -4.10946e-13 0)
(0.857465 -0.0753239 0)
(0.92 -2.74956e-13 0)
(0.92 -1.2191e-13 0)
(0.92 -3.5869e-13 0)
(0.92 -2.68701e-14 0)
(1.00985 -0.0802393 0)
(0.973248 0.0055413 0)
(0.92 8.07009e-14 0)
(0.916018 0.0510943 0)
(0.92 1.42587e-13 0)
(0.92 -1.11576e-14 0)
(0.990872 -0.0197381 0)
(0.92 1.97982e-13 0)
(0.92 6.55645e-14 0)
(0.983061 -0.0479643 0)
(0.92 2.7801e-14 0)
(0.923729 0.0137611 0)
(0.92 8.86798e-14 0)
(0.86757 -0.0330743 0)
(0.930339 0.0379872 0)
(0.92 -3.63937e-14 0)
(0.956493 0.0238374 0)
(0.939997 0.0318146 0)
(0.948177 0.0295188 0)
(0.973932 0.00510828 0)
(0.926895 -0.00240002 0)
(0.999562 -0.0759666 0)
(0.92 -4.74328e-14 0)
(0.92 -5.95824e-14 0)
(0.92 2.10296e-13 0)
(1.0051 -0.0868058 0)
(0.92 8.45113e-14 0)
(0.92 1.92674e-15 0)
(0.92 -4.21738e-13 0)
(0.92 -7.98745e-14 0)
(0.92 -4.44008e-13 0)
(0.90909 -0.0150457 0)
(0.951219 -0.0684542 0)
(0.92 -7.5009e-14 0)
(0.92 -6.33304e-14 0)
(0.92 -4.74965e-14 0)
(0.92 2.01678e-13 0)
(0.92952 0.0437581 0)
(0.847422 0.00125709 0)
(0.92 -5.15079e-14 0)
(0.920792 -0.00495963 0)
(0.93151 0.0418623 0)
(0.92 -4.54417e-14 0)
(0.92 -3.29067e-14 0)
(0.92 3.47429e-14 0)
(0.92 7.22872e-15 0)
(0.939212 0.0324267 0)
(0.92 9.2112e-14 0)
(0.948087 0.0296447 0)
(0.90252 0.0550069 0)
(0.92 -4.00578e-13 0)
(0.92 -2.91867e-14 0)
(0.92 -1.54281e-14 0)
(0.92 -8.45932e-14 0)
(0.926638 -0.00680537 0)
(0.92 9.46267e-14 0)
(0.92 -9.9715e-14 0)
(0.907884 0.0529318 0)
(0.991743 -0.0190306 0)
(0.917115 0.0505306 0)
(0.898628 0.056835 0)
(0.910963 -0.0162162 0)
(0.92 1.1443e-13 0)
(0.92 -9.06974e-14 0)
(0.846546 0.0702913 0)
(0.995012 -0.018387 0)
(0.92 -5.23526e-14 0)
(0.92 -6.05983e-14 0)
(0.92 4.22157e-14 0)
(0.944299 0.0323499 0)
(0.92 3.46235e-14 0)
(0.92 1.3322e-13 0)
(0.864534 -0.0524521 0)
(0.92 -4.94785e-13 0)
(0.982737 -0.0544521 0)
(1.00455 -0.0472042 0)
(0.92 -6.58984e-14 0)
(0.92 -2.29175e-16 0)
(0.92 1.21645e-13 0)
(0.92 1.05234e-14 0)
(0.92 9.8208e-14 0)
(0.92 1.32791e-14 0)
(0.956819 0.0239594 0)
(0.92 1.13166e-13 0)
(0.92 -7.94255e-14 0)
(0.92 3.2776e-13 0)
(0.92 -7.10298e-14 0)
(0.92 7.94763e-15 0)
(0.92 -1.17793e-13 0)
(0.92 -1.96009e-13 0)
(0.92 4.21111e-15 0)
(0.92 9.48005e-14 0)
(0.927921 0.0446927 0)
(0.931535 -0.0294129 0)
(0.92 4.00589e-14 0)
(0.92 -1.80589e-14 0)
(0.92 4.33044e-14 0)
(0.959046 0.0156311 0)
(0.959413 0.0157232 0)
(0.92 -1.03257e-13 0)
(0.92 1.00885e-13 0)
(0.92 2.25007e-15 0)
(0.92 1.20631e-13 0)
(0.92 -2.02325e-13 0)
(0.936007 0.0345576 0)
(0.92 4.84208e-14 0)
(0.92 8.20887e-14 0)
(0.909906 -0.0134112 0)
(0.92 -2.70643e-15 0)
(0.897399 0.0564159 0)
(0.92 5.7505e-14 0)
(0.92 4.16351e-13 0)
(0.92 -1.07822e-13 0)
(0.955457 0.0214183 0)
(0.92 1.48552e-13 0)
(0.944143 0.0322301 0)
(1.01103 -0.0531337 0)
(0.92 -6.781e-14 0)
(0.955434 -0.0741548 0)
(0.92 1.0772e-13 0)
(0.93908 0.0323761 0)
(0.92 5.92851e-14 0)
(0.92 2.07481e-14 0)
(0.92 -5.32136e-14 0)
(0.92 1.03183e-13 0)
(0.92 6.33533e-14 0)
(0.92 -2.2299e-13 0)
(0.92 1.49438e-13 0)
(1.10148 0.0135144 0)
(0.92 -4.22282e-14 0)
(0.92 -2.55143e-13 0)
(0.92 1.38303e-13 0)
(0.92 -3.71212e-13 0)
(0.993634 -0.0206708 0)
(0.923334 0.0143364 0)
(0.92 1.37656e-13 0)
(0.992086 -0.0367525 0)
(0.92 2.87547e-14 0)
(0.92 -9.56877e-15 0)
(0.930504 0.0382778 0)
(0.92 -1.39851e-14 0)
(0.92 2.05165e-14 0)
(0.910482 -0.0163871 0)
(0.92 -3.57171e-14 0)
(0.92 -2.15316e-14 0)
(0.925537 -0.00987298 0)
(0.92 4.35456e-14 0)
(0.92 -1.803e-14 0)
(0.92 -3.73396e-13 0)
(0.92 -8.49394e-14 0)
(0.937491 0.0334803 0)
(0.931806 -0.0284001 0)
(0.92 9.26934e-14 0)
(0.92 3.53613e-14 0)
(1.00962 -0.0530644 0)
(0.921474 -0.00738087 0)
(0.92 -1.15183e-14 0)
(1.00816 -0.0426842 0)
(0.927539 -0.028405 0)
(0.927129 -0.0279688 0)
(0.919608 -0.00411516 0)
(0.852119 -0.0735364 0)
(0.92 -1.39076e-13 0)
(0.92 2.73823e-14 0)
(0.92 -1.37959e-14 0)
(0.92 1.15781e-13 0)
(1.01049 -0.0792914 0)
(0.92 2.71367e-13 0)
(0.92 -5.39057e-14 0)
(0.92 -5.74946e-14 0)
(0.92 2.06369e-12 0)
(0.97892 -0.0524771 0)
(1.01357 -0.0796699 0)
(0.94936 0.0280263 0)
(0.92 1.29881e-12 0)
(0.95613 0.0191793 0)
(0.92 2.05737e-14 0)
(0.92 -1.11661e-13 0)
(0.955435 0.019203 0)
(0.92 1.24961e-12 0)
(0.92 1.04719e-13 0)
(0.92 1.20908e-14 0)
(0.92 2.42118e-13 0)
(0.92 1.31543e-13 0)
(0.934781 0.0353167 0)
(0.92 -8.63342e-15 0)
(0.92 -7.76927e-14 0)
(0.92 1.23524e-13 0)
(0.92 -4.9385e-14 0)
(1.01967 -0.0877546 0)
(1.29239 -0.0344467 0)
(0.92 1.16853e-13 0)
(0.919381 -0.0040268 0)
(0.92 9.84614e-14 0)
(0.92 8.21626e-14 0)
(0.92 1.46593e-13 0)
(0.927625 0.0397014 0)
(0.92 3.3864e-14 0)
(0.92 -3.20411e-14 0)
(0.92 2.05259e-12 0)
(0.92 8.94573e-14 0)
(0.92 1.97885e-13 0)
(0.92 3.6811e-15 0)
(0.910941 -0.0158568 0)
(0.92 -5.10861e-14 0)
(0.919986 1.45279e-05 0)
(0.92 1.24456e-13 0)
(0.92 2.67657e-13 0)
(0.927219 0.0456217 0)
(0.928621 0.0448348 0)
(0.92 8.14367e-14 0)
(0.922299 0.0457096 0)
(0.922784 0.0152436 0)
(0.92 -8.97358e-14 0)
(0.742964 -0.0529909 0)
(0.92 -6.37692e-14 0)
(0.92 -1.57118e-14 0)
(0.92 5.55828e-13 0)
(0.919796 0.000206373 0)
(0.799359 -0.0221338 0)
(0.764371 0.00186667 0)
(0.92 -1.92157e-14 0)
(0.92 -6.28883e-15 0)
(0.92 2.57068e-13 0)
(0.92 3.45789e-13 0)
(0.980097 -0.086684 0)
(0.92 -4.62e-14 0)
(0.92 -5.3867e-14 0)
(1.00002 -0.00828534 0)
(0.92 -5.46197e-14 0)
(0.951918 0.0258322 0)
(0.92 -6.83595e-14 0)
(0.92 -4.84117e-14 0)
(0.92 2.92296e-13 0)
(0.92 5.42217e-13 0)
(0.92 2.05092e-14 0)
(0.934479 0.0360741 0)
(0.92 -3.91347e-15 0)
(0.92 3.48385e-13 0)
(0.99271 -0.0449665 0)
(0.923518 0.0140189 0)
(0.850727 -0.0397342 0)
(0.92 5.8854e-14 0)
(0.92 5.67594e-14 0)
(0.92 5.80413e-14 0)
(0.993573 -0.0169317 0)
(0.846384 0.00465199 0)
(0.937879 0.0402555 0)
(0.909426 -0.0200976 0)
(0.924302 -0.0265821 0)
(0.925346 0.0442464 0)
(0.92 -4.18047e-14 0)
(0.92 -6.29876e-14 0)
(0.900011 -0.0849429 0)
(0.874348 0.0667664 0)
(0.952293 0.0267597 0)
(0.846763 -0.0717214 0)
(0.910609 -0.0139636 0)
(1.00151 -0.0623997 0)
(0.923185 0.0140949 0)
(1.05125 -0.0622805 0)
(0.900933 -0.0798011 0)
(0.90053 -0.0748797 0)
(0.92 1.52399e-13 0)
(0.92 -6.92678e-14 0)
(0.92 1.23971e-13 0)
(0.92 1.14844e-13 0)
(0.92569 0.0402467 0)
(1.00269 -0.0356133 0)
(0.900542 -0.0717946 0)
(1.00303 -0.0428578 0)
(0.933969 -0.0323624 0)
(0.987903 -0.0473 0)
(0.92 7.09762e-14 0)
(1.07374 -0.0741923 0)
(0.752892 0.01153 0)
(0.774614 0.0672165 0)
(0.92 -9.65897e-14 0)
(0.99929 -0.0751259 0)
(0.615958 0.00302807 0)
(0.92 -7.90277e-14 0)
(1.01421 -0.0694717 0)
(0.92 2.20467e-13 0)
(0.918852 0.0011128 0)
(0.929513 0.0385176 0)
(0.92 -4.81249e-14 0)
(0.92 -6.68394e-15 0)
(0.994114 -0.0584192 0)
(1.00636 -0.0496035 0)
(0.883215 0.060852 0)
(0.981279 -0.0782631 0)
(0.92 -2.78525e-14 0)
(1.01106 -0.0712995 0)
(1.00036 -0.0528649 0)
(1.00249 -0.0736478 0)
(0.92 5.84502e-14 0)
(0.92 -7.19758e-15 0)
(0.930276 0.000882333 0)
(0.97385 -0.0650348 0)
(0.997161 -0.0610118 0)
(0.92 -1.69636e-14 0)
(0.92 3.16573e-13 0)
(0.926135 0.0438768 0)
(0.987968 -0.0840292 0)
(0.92 -1.3072e-13 0)
(1.00293 -0.0707156 0)
(0.872744 -0.0701598 0)
(0.929076 0.0425298 0)
(0.936637 0.0403246 0)
(0.976949 -0.000794509 0)
(0.92 1.3325e-13 0)
(0.92 -9.79404e-14 0)
(0.92 -8.21618e-14 0)
(1.01078 -0.0656731 0)
(0.92305 0.0149154 0)
(0.92 3.05785e-15 0)
(0.92 1.59229e-13 0)
(0.923049 0.0140888 0)
(0.977077 -0.000446976 0)
(0.998971 -0.0538856 0)
(0.935771 0.0412148 0)
(1.13395 -0.0194085 0)
(0.978856 -0.0501588 0)
(0.990332 -0.0469416 0)
(0.92 -9.21318e-14 0)
(0.985195 -0.0432628 0)
(0.988783 -0.0475459 0)
(0.92 1.93119e-14 0)
(0.92 8.11038e-13 0)
(0.92 1.34067e-13 0)
(0.92 1.79627e-13 0)
(0.994905 -0.0443243 0)
(0.92 -3.15842e-14 0)
(0.935492 0.0345869 0)
(0.934405 0.035178 0)
(0.92 -2.0725e-13 0)
(0.932573 0.03679 0)
(0.92 6.87842e-14 0)
(0.92 1.38123e-12 0)
(0.933056 0.0414671 0)
(0.92 1.16487e-13 0)
(0.92 3.18559e-14 0)
(0.92 6.62754e-14 0)
(0.930332 0.0437259 0)
(1.01406 -0.0750094 0)
(0.92 2.61284e-15 0)
(0.919155 0.0494171 0)
(1.1335 -0.00634544 0)