/*--------------------------------*- C++ -*----------------------------------*\
  =========                 |
  \\      /  F ield         | OpenFOAM: The Open Source CFD Toolbox
   \\    /   O peration     | Website:  https://openfoam.org
    \\  /    A nd           | Version:  12
     \\/     M anipulation  |
\*---------------------------------------------------------------------------*/
FoamFile
{
    format      ascii;
    class       volScalarField;
    location    "21.4";
    object      rho;
}
// * * * * * * * * * * * * * * * * * * * * * * * * * * * * * * * * * * * * * //

dimensions      [1 -3 0 0 0 0 0];

internalField   nonuniform List<scalar> 
9801
(
1.11015
1.1129
1.10678
1.09508
1.09443
1.09946
1.11317
1.136
1.15011
1.15637
1.15838
1.15725
1.15163
1.14919
1.1523
1.15751
1.16888
1.18903
1.20898
1.21684
1.21922
1.21551
1.21012
1.20893
1.2099
1.21219
1.21839
1.23444
1.25748
1.27447
1.2834
1.28747
1.2816
1.27171
1.26956
1.27158
1.27503
1.28034
1.29961
1.32563
1.34152
1.35268
1.35992
1.36121
1.34869
1.34196
1.34303
1.3465
1.35187
1.36664
1.39696
1.41724
1.42787
1.43584
1.44126
1.43346
1.42355
1.42318
1.42706
1.43313
1.44521
1.4778
1.50958
1.52469
1.533
1.53953
1.53311
1.51806
1.51386
1.51891
1.52739
1.54036
1.57475
1.61803
1.64301
1.65703
1.6676
1.66936
1.64814
1.62927
1.63149
1.64444
1.66558
1.72244
1.78359
1.81781
1.8406
1.86177
1.8696
1.8424
1.81441
1.81618
1.85065
1.92142
2.05105
2.17999
2.29029
3.70391
13.9936
1.10879
1.12348
1.12345
1.12268
1.11727
1.11066
1.11367
1.12243
1.13867
1.14936
1.15581
1.16125
1.16795
1.17172
1.17442
1.17711
1.17911
1.18399
1.19294
1.20526
1.21192
1.21392
1.21426
1.21556
1.21842
1.22975
1.2444
1.24912
1.25542
1.26458
1.27439
1.27776
1.27549
1.27532
1.27604
1.27852
1.28298
1.2993
1.31847
1.32938
1.33839
1.34628
1.35242
1.34974
1.34482
1.34449
1.347
1.35141
1.35797
1.38035
1.40611
1.4198
1.42822
1.43548
1.43772
1.4266
1.42009
1.42174
1.42741
1.43449
1.44748
1.47999
1.50956
1.52472
1.53377
1.5405
1.5337
1.51417
1.51055
1.51675
1.52585
1.53896
1.57333
1.61684
1.64121
1.65502
1.66701
1.67131
1.64739
1.62786
1.63086
1.64438
1.66337
1.7073
1.76502
1.80329
1.83032
1.8551
1.87105
1.84656
1.8142
1.81405
1.84515
1.8954
1.98555
2.08462
2.15864
3.52343
14.0252
1.09244
1.1084
1.11525
1.12439
1.13186
1.13462
1.1278
1.12598
1.12905
1.13401
1.13945
1.14526
1.15438
1.16881
1.18332
1.19291
1.19734
1.19768
1.19693
1.19492
1.1932
1.19508
1.19951
1.20432
1.21228
1.23473
1.25587
1.26334
1.26557
1.26846
1.2696
1.2619
1.25815
1.26149
1.26674
1.27231
1.28199
1.30694
1.32775
1.33608
1.34101
1.34598
1.34268
1.33121
1.32948
1.33414
1.33994
1.34641
1.35733
1.38444
1.40897
1.42088
1.42784
1.43294
1.42659
1.41081
1.40763
1.41232
1.41988
1.42857
1.44409
1.47735
1.50515
1.51869
1.52702
1.53246
1.5232
1.5029
1.49887
1.50579
1.5158
1.52841
1.55912
1.60188
1.62769
1.64252
1.65449
1.65996
1.63821
1.61576
1.61624
1.6293
1.64624
1.67648
1.73704
1.7865
1.81482
1.83727
1.8532
1.83639
1.80552
1.79649
1.81515
1.85666
1.92507
2.01194
2.06057
3.43329
13.8165
1.06794
1.09308
1.12007
1.1355
1.14363
1.14914
1.1479
1.1303
1.11178
1.10618
1.11068
1.12252
1.14414
1.17372
1.1947
1.20425
1.20936
1.21234
1.20328
1.17679
1.16742
1.1712
1.18147
1.19512
1.21421
1.2406
1.25977
1.26824
1.27312
1.27327
1.25527
1.23842
1.23865
1.24533
1.25623
1.26893
1.28604
1.31021
1.32822
1.33489
1.33803
1.33595
1.32339
1.31316
1.31522
1.32241
1.3319
1.34291
1.35918
1.38363
1.4023
1.41052
1.41489
1.41632
1.40946
1.39695
1.3957
1.40213
1.4105
1.42052
1.43825
1.46757
1.49038
1.50206
1.50944
1.51496
1.51004
1.49122
1.48403
1.49023
1.5002
1.51191
1.53696
1.57795
1.605
1.61952
1.63049
1.63906
1.62915
1.6029
1.5941
1.60472
1.62112
1.64206
1.6883
1.74183
1.77467
1.79753
1.81817
1.81731
1.79049
1.77189
1.77549
1.80282
1.8469
1.91654
1.95347
3.40034
13.6228
1.05645
1.08655
1.12638
1.14001
1.14579
1.15048
1.15076
1.12398
1.097
1.09406
1.09708
1.10468
1.13139
1.17444
1.19669
1.20483
1.20987
1.2098
1.18948
1.16558
1.16056
1.16352
1.16927
1.18244
1.20928
1.24023
1.25661
1.26262
1.2645
1.25808
1.2438
1.2332
1.23237
1.23731
1.24519
1.25867
1.27993
1.30301
1.31589
1.3206
1.322
1.32221
1.3175
1.30818
1.307
1.31311
1.32106
1.33116
1.34622
1.36705
1.38247
1.3903
1.39567
1.40092
1.40222
1.39229
1.38615
1.39041
1.39795
1.40591
1.41732
1.4415
1.46557
1.47939
1.48846
1.49637
1.50092
1.48752
1.47242
1.47282
1.48134
1.49154
1.50725
1.54321
1.57669
1.59483
1.60735
1.61895
1.62242
1.59908
1.5775
1.57733
1.59156
1.60932
1.64026
1.69377
1.73831
1.76728
1.791
1.8059
1.7903
1.76657
1.75408
1.76115
1.78976
1.84249
1.8756
3.36735
13.5054
1.05604
1.08848
1.12487
1.13915
1.1448
1.14671
1.13323
1.10827
1.09583
1.09509
1.0982
1.10406
1.12225
1.1636
1.1903
1.19776
1.19852
1.18977
1.17506
1.16428
1.16162
1.16425
1.16915
1.17596
1.19227
1.22206
1.23953
1.24466
1.24455
1.24242
1.2405
1.23581
1.23226
1.2342
1.23967
1.24608
1.25731
1.27794
1.29496
1.3034
1.30832
1.31353
1.31811
1.31178
1.30495
1.30628
1.3109
1.31544
1.32119
1.3366
1.35984
1.37484
1.38402
1.39151
1.39791
1.39615
1.38364
1.3794
1.38229
1.38699
1.39371
1.41082
1.44177
1.463
1.4751
1.48444
1.49288
1.49124
1.47134
1.46114
1.46394
1.47203
1.48269
1.50844
1.55013
1.57781
1.59326
1.60543
1.61515
1.60359
1.57629
1.564
1.56891
1.58357
1.60356
1.64473
1.69683
1.73522
1.76344
1.78811
1.7947
1.77573
1.75503
1.74784
1.75508
1.78604
1.81756
3.35307
13.4576
1.06322
1.09605
1.11612
1.12764
1.13109
1.1243
1.11021
1.10128
1.09948
1.10047
1.1044
1.1127
1.1269
1.14724
1.1664
1.17511
1.17575
1.17492
1.17394
1.16946
1.16723
1.16965
1.17419
1.17866
1.18253
1.19174
1.21175
1.22471
1.23224
1.23873
1.24444
1.24493
1.23908
1.23734
1.23767
1.23639
1.2367
1.24339
1.26481
1.28801
1.30311
1.31232
1.31901
1.3209
1.31178
1.30411
1.29929
1.29769
1.30036
1.30816
1.33297
1.36206
1.37901
1.38886
1.39623
1.40058
1.38962
1.3746
1.36735
1.36911
1.37523
1.38625
1.41685
1.44956
1.46758
1.47854
1.48739
1.49359
1.47955
1.45819
1.45118
1.456
1.46541
1.48113
1.51993
1.56176
1.58536
1.5998
1.61204
1.61569
1.59131
1.56628
1.55914
1.56573
1.58086
1.60727
1.65568
1.70381
1.73919
1.7665
1.78937
1.78742
1.77015
1.74982
1.73757
1.74889
1.76453
3.33233
13.4617
1.07484
1.09537
1.10344
1.10767
1.10595
1.10339
1.10452
1.10602
1.10749
1.11279
1.11967
1.12491
1.12946
1.13313
1.1364
1.14326
1.15437
1.16661
1.17422
1.17968
1.18179
1.18098
1.17978
1.17669
1.17256
1.1731
1.18045
1.20109
1.22527
1.24022
1.24775
1.25221
1.25055
1.24153
1.23123
1.22303
1.22278
1.22666
1.23944
1.27291
1.30117
1.31412
1.32084
1.32586
1.32088
1.30075
1.28668
1.28467
1.28892
1.29585
1.31423
1.35165
1.37726
1.3886
1.39592
1.40215
1.39745
1.37165
1.3575
1.35776
1.3642
1.37429
1.39888
1.43916
1.46485
1.47724
1.48597
1.49352
1.48859
1.46062
1.44582
1.44572
1.45423
1.46583
1.49182
1.54056
1.57748
1.59674
1.61016
1.62098
1.61343
1.58022
1.55996
1.55966
1.57035
1.58805
1.61996
1.66702
1.70782
1.73871
1.76457
1.78247
1.77951
1.76536
1.74226
1.72564
1.71073
3.30126
13.4894
1.08223
1.09113
1.08997
1.08367
1.08377
1.08876
1.0978
1.11078
1.12232
1.12915
1.1326
1.13271
1.12647
1.12008
1.11974
1.12504
1.14163
1.16069
1.17711
1.18631
1.19142
1.19067
1.18071
1.16828
1.1647
1.16643
1.17131
1.19141
1.21929
1.2389
1.2486
1.25489
1.25704
1.24385
1.22207
1.21626
1.21919
1.22409
1.23626
1.26754
1.29759
1.31169
1.31907
1.32426
1.32164
1.29903
1.28203
1.28163
1.28654
1.29363
1.31032
1.3463
1.375
1.38725
1.39413
1.39795
1.39365
1.37369
1.35735
1.3565
1.36217
1.37034
1.38874
1.42689
1.46074
1.476
1.48459
1.49067
1.49058
1.47141
1.44786
1.44313
1.44876
1.45955
1.47509
1.512
1.55963
1.58871
1.60446
1.61632
1.62276
1.60842
1.57997
1.56674
1.56932
1.58017
1.59826
1.63133
1.67405
1.70899
1.73616
1.75955
1.7722
1.7698
1.75579
1.72886
1.67929
3.25416
13.5404
1.08783
1.08556
1.0735
1.0734
1.07928
1.08833
1.10271
1.11961
1.12892
1.13346
1.13345
1.12563
1.11763
1.11568
1.11775
1.12841
1.14797
1.16844
1.18029
1.18731
1.19226
1.18692
1.1693
1.16112
1.16179
1.16554
1.17628
1.20216
1.22588
1.23778
1.24587
1.25176
1.25086
1.23145
1.21894
1.21918
1.22295
1.22832
1.24497
1.27529
1.29622
1.30712
1.31359
1.31538
1.31012
1.2966
1.28515
1.28469
1.28989
1.29905
1.31595
1.3448
1.37006
1.38217
1.38724
1.38865
1.38969
1.38144
1.36533
1.36153
1.36722
1.37598
1.38399
1.4075
1.44583
1.46808
1.47792
1.48427
1.49066
1.4888
1.46695
1.45259
1.45347
1.46037
1.46929
1.48344
1.52246
1.56583
1.5911
1.60684
1.62014
1.62802
1.61484
1.589
1.57602
1.57737
1.58744
1.60441
1.63678
1.67641
1.70833
1.73342
1.7539
1.76164
1.75863
1.7376
1.68259
3.19519
13.6008
1.08063
1.07252
1.0702
1.07628
1.08648
1.10144
1.11582
1.12473
1.12981
1.13007
1.11927
1.11028
1.10955
1.11302
1.12401
1.1448
1.16443
1.17527
1.18154
1.18628
1.18307
1.16592
1.15816
1.15947
1.16352
1.16952
1.19114
1.21949
1.23294
1.24012
1.24519
1.2446
1.23206
1.2199
1.21668
1.22003
1.22593
1.23841
1.25854
1.28094
1.29588
1.30242
1.30351
1.30294
1.30393
1.29989
1.29285
1.2944
1.30143
1.30836
1.3143
1.3332
1.35681
1.36985
1.37663
1.38396
1.39175
1.3952
1.38456
1.37511
1.37476
1.37652
1.38066
1.38811
1.41497
1.45149
1.47199
1.48408
1.49425
1.50293
1.49728
1.47242
1.45873
1.45644
1.46016
1.46873
1.48537
1.52818
1.57248
1.60002
1.61772
1.63135
1.63633
1.62344
1.5983
1.58204
1.58073
1.58954
1.60619
1.64087
1.68109
1.71146
1.73315
1.74682
1.75118
1.74214
1.69971
3.15038
13.6569
1.06356
1.06656
1.07622
1.09143
1.10824
1.11881
1.12466
1.12838
1.12271
1.10676
1.09926
1.10082
1.10518
1.11409
1.14062
1.16961
1.18016
1.18435
1.18624
1.18136
1.16111
1.14908
1.15015
1.15533
1.16283
1.17994
1.20977
1.23025
1.23936
1.2428
1.23904
1.23078
1.22538
1.22071
1.22133
1.22766
1.23909
1.24886
1.25975
1.27727
1.28818
1.29225
1.29437
1.30155
1.30831
1.31238
1.30926
1.30748
1.30831
1.30764
1.30865
1.31343
1.33377
1.36005
1.37659
1.38884
1.39897
1.407
1.40683
1.39035
1.37751
1.37142
1.37068
1.37577
1.38867
1.42683
1.46602
1.48767
1.50109
1.51106
1.51721
1.50187
1.47115
1.45586
1.45483
1.45959
1.46883
1.48885
1.53574
1.58166
1.6093
1.62716
1.64036
1.64394
1.62907
1.60091
1.5823
1.58093
1.59054
1.60942
1.64842
1.68876
1.71523
1.73078
1.73743
1.73733
1.7154
3.12866
13.7004
1.04881
1.06179
1.09041
1.11845
1.13043
1.13476
1.13534
1.12588
1.10245
1.08661
1.08606
1.0906
1.09943
1.11898
1.15947
1.18324
1.19145
1.19536
1.1932
1.17213
1.15371
1.149
1.15139
1.15736
1.17203
1.19231
1.2119
1.22896
1.23521
1.23291
1.2278
1.22981
1.23228
1.23195
1.23548
1.24225
1.2484
1.24832
1.24907
1.25475
1.27045
1.28542
1.29745
1.30831
1.31956
1.32779
1.32942
1.31908
1.30759
1.29811
1.29598
1.30022
1.3132
1.34801
1.38065
1.39913
1.40983
1.41662
1.4206
1.40641
1.37892
1.36417
1.36241
1.36803
1.37673
1.39958
1.45001
1.48828
1.50426
1.51337
1.52153
1.52394
1.49875
1.46662
1.45471
1.45624
1.46348
1.47413
1.49963
1.5498
1.59309
1.61722
1.6324
1.64286
1.64294
1.62746
1.60105
1.58458
1.58353
1.59235
1.61413
1.65588
1.69249
1.71216
1.72105
1.72336
1.72362
3.13711
13.7369
1.0364
1.05165
1.10071
1.13426
1.14403
1.14862
1.14873
1.126
1.09313
1.08473
1.08663
1.09062
1.10205
1.13134
1.16406
1.18523
1.19252
1.19005
1.17696
1.16739
1.16068
1.15869
1.16463
1.1769
1.18742
1.19199
1.19703
1.20646
1.21742
1.224
1.22982
1.23703
1.24722
1.25528
1.25688
1.25283
1.24574
1.23652
1.23211
1.2356
1.25114
1.28159
1.30719
1.32465
1.33404
1.33968
1.34195
1.32807
1.30057
1.28705
1.28712
1.29248
1.30158
1.33217
1.37998
1.40517
1.41503
1.42188
1.42643
1.41971
1.38879
1.36601
1.36299
1.3675
1.37496
1.38692
1.4194
1.47074
1.49941
1.51137
1.5184
1.52287
1.52159
1.49566
1.469
1.46209
1.4673
1.47762
1.48859
1.51126
1.55712
1.59382
1.61454
1.62865
1.63915
1.641
1.62945
1.60567
1.58861
1.58629
1.593
1.61406
1.65481
1.6866
1.70177
1.70665
1.72262
3.17436
13.7731
1.03824
1.06051
1.10898
1.13669
1.14674
1.14947
1.13695
1.11266
1.09704
1.09138
1.09469
1.10687
1.12492
1.13878
1.15274
1.16555
1.17013
1.16871
1.16892
1.17397
1.18041
1.18606
1.18802
1.19047
1.191
1.18326
1.17559
1.1782
1.19513
1.21943
1.23926
1.25626
1.26689
1.27273
1.27391
1.25972
1.23448
1.22039
1.21996
1.22435
1.23493
1.27125
1.31502
1.33458
1.34285
1.34769
1.34803
1.33074
1.30103
1.28795
1.28859
1.29389
1.30305
1.32188
1.36476
1.40154
1.41483
1.41893
1.41692
1.41584
1.40797
1.3855
1.37466
1.3774
1.38558
1.39307
1.40052
1.42711
1.47151
1.49711
1.50914
1.51786
1.52675
1.52954
1.50826
1.48529
1.47704
1.47744
1.48218
1.49085
1.51276
1.55678
1.59239
1.6137
1.62882
1.64139
1.64673
1.63579
1.60786
1.5863
1.5816
1.58658
1.60747
1.64848
1.6783
1.69012
1.71058
3.23146
13.8135
1.05353
1.08071
1.10519
1.12443
1.13105
1.12676
1.11716
1.11431
1.11231
1.11492
1.12285
1.13218
1.13767
1.13876
1.13156
1.13099
1.1427
1.15906
1.17478
1.19167
1.20521
1.21112
1.21007
1.19948
1.18123
1.16465
1.16141
1.16489
1.17533
1.21002
1.25134
1.27223
1.28051
1.28487
1.28425
1.26465
1.2305
1.21898
1.22092
1.22563
1.23463
1.26416
1.31311
1.3369
1.34466
1.34519
1.33805
1.32996
1.3138
1.29877
1.29871
1.30712
1.31898
1.32575
1.33849
1.37114
1.39579
1.4057
1.41194
1.41909
1.42669
1.42325
1.40237
1.3911
1.38923
1.38849
1.38904
1.39567
1.42301
1.47002
1.50026
1.51748
1.53207
1.54244
1.54516
1.52298
1.49372
1.47859
1.47619
1.48018
1.48954
1.51595
1.56193
1.5974
1.62028
1.63704
1.64792
1.64973
1.63428
1.60224
1.57806
1.57248
1.5775
1.60104
1.64441
1.6702
1.69596
3.29641
13.8619
1.07924
1.08875
1.09334
1.09627
1.09995
1.10401
1.10841
1.11853
1.13624
1.14745
1.15079
1.14939
1.14087
1.12117
1.11135
1.1128
1.12107
1.1488
1.18737
1.21197
1.22174
1.22686
1.22763
1.21032
1.17263
1.15832
1.1595
1.16397
1.17212
1.20365
1.25557
1.27719
1.28456
1.28796
1.27914
1.25666
1.23658
1.2262
1.2278
1.23646
1.2521
1.26932
1.29507
1.31966
1.32839
1.32864
1.32883
1.33464
1.33732
1.32867
1.32082
1.3212
1.32263
1.32113
1.32034
1.32952
1.36363
1.39573
1.4142
1.42972
1.44165
1.44874
1.43931
1.41118
1.39012
1.38021
1.37809
1.38261
1.39154
1.42475
1.48125
1.51835
1.53432
1.54422
1.5518
1.55094
1.52564
1.49267
1.47674
1.47711
1.48433
1.49583
1.52819
1.57512
1.60787
1.62561
1.63788
1.64615
1.64586
1.62832
1.59444
1.5699
1.56387
1.56918
1.59916
1.63841
1.6723
3.36083
13.9136
1.09674
1.09368
1.07622
1.07116
1.07635
1.08986
1.10967
1.13775
1.15717
1.16503
1.16895
1.16207
1.13094
1.10805
1.10593
1.10944
1.11653
1.1441
1.19469
1.21779
1.22549
1.22999
1.22599
1.19924
1.17263
1.16296
1.1637
1.16867
1.1846
1.21692
1.25189
1.27299
1.27957
1.27401
1.26411
1.25927
1.25142
1.24701
1.24986
1.2581
1.26516
1.26773
1.26893
1.28197
1.30658
1.32195
1.3332
1.34482
1.35641
1.36149
1.35046
1.33219
1.31755
1.30668
1.30534
1.31071
1.32803
1.37442
1.41769
1.43969
1.45098
1.4583
1.46103
1.44037
1.40111
1.38031
1.3778
1.38246
1.38988
1.40214
1.43996
1.49674
1.52709
1.53978
1.54774
1.55123
1.54697
1.52274
1.49512
1.48455
1.4871
1.49588
1.5082
1.54032
1.58239
1.60817
1.62274
1.63366
1.64167
1.64115
1.6236
1.58981
1.56479
1.55778
1.56287
1.59273
1.63656
3.40961
13.9556
1.1024
1.07813
1.0638
1.0636
1.06827
1.08764
1.12816
1.15572
1.1653
1.17012
1.17108
1.15183
1.12058
1.10951
1.10948
1.11242
1.12273
1.16133
1.2004
1.21782
1.22504
1.22434
1.20708
1.19035
1.1792
1.17472
1.17848
1.19138
1.20682
1.21722
1.23304
1.24752
1.25362
1.25477
1.2582
1.2657
1.27446
1.27802
1.27381
1.27025
1.26475
1.25379
1.24939
1.2545
1.27952
1.31779
1.3447
1.36289
1.37271
1.37822
1.37372
1.34409
1.31222
1.30027
1.30145
1.30674
1.31452
1.34406
1.40592
1.44106
1.4529
1.4581
1.45811
1.45279
1.42942
1.3986
1.38767
1.39092
1.40031
1.41155
1.4218
1.44969
1.49425
1.52058
1.53263
1.54082
1.54758
1.54898
1.53442
1.51119
1.49753
1.49481
1.49876
1.50912
1.54011
1.58044
1.60554
1.62042
1.63201
1.64083
1.64222
1.62419
1.58799
1.55845
1.54785
1.54906
1.58857
3.43705
13.992
1.08873
1.06485
1.06277
1.06584
1.0722
1.10358
1.14573
1.16128
1.16744
1.17093
1.15705
1.12849
1.11519
1.11371
1.11613
1.12382
1.14647
1.17642
1.19954
1.2105
1.21115
1.19864
1.19081
1.19144
1.19247
1.19638
1.20485
1.21372
1.21779
1.21374
1.20808
1.21275
1.23127
1.25025
1.26679
1.28306
1.29509
1.30097
1.29698
1.27758
1.25254
1.23866
1.23842
1.2433
1.25664
1.30278
1.35175
1.37194
1.38064
1.38567
1.38381
1.35971
1.32068
1.30402
1.3044
1.31163
1.32607
1.34348
1.37185
1.41402
1.43622
1.44394
1.44732
1.45109
1.45427
1.44223
1.42091
1.41112
1.41058
1.41182
1.41285
1.41848
1.44185
1.48654
1.51709
1.53389
1.54772
1.55925
1.5645
1.54998
1.51906
1.49707
1.49093
1.49354
1.50355
1.53735
1.57969
1.60726
1.62555
1.63893
1.64557
1.64344
1.62219
1.58256
1.54866
1.52682
1.52987
3.42881
14.0292
1.07249
1.06201
1.06412
1.06802
1.08564
1.1301
1.15779
1.16721
1.17082
1.1602
1.13431
1.12061
1.11774
1.12025
1.13188
1.15266
1.16666
1.17535
1.18489
1.18869
1.18676
1.18626
1.1912
1.20104
1.21502
1.22461
1.22765
1.22482
1.2124
1.19559
1.19009
1.1939
1.21097
1.24843
1.28257
1.30163
1.30961
1.31348
1.30991
1.28083
1.24533
1.23554
1.23808
1.24326
1.25346
1.28754
1.34481
1.37255
1.38078
1.37872
1.36909
1.36104
1.34583
1.32786
1.32409
1.3298
1.33769
1.34307
1.34653
1.36009
1.3971
1.42649
1.44165
1.45374
1.46663
1.4746
1.46655
1.44086
1.41957
1.40735
1.4023
1.40404
1.4117
1.43923
1.48997
1.52823
1.54841
1.55976
1.56788
1.56966
1.55094
1.51443
1.49026
1.48533
1.49012
1.50169
1.53865
1.5858
1.61566
1.631
1.63942
1.64204
1.63618
1.61298
1.57226
1.52858
1.49474
3.37883
14.0716
1.06147
1.05967
1.06341
1.07701
1.10905
1.14048
1.15882
1.16384
1.15657
1.13838
1.12967
1.12675
1.12927
1.14183
1.15924
1.16855
1.17075
1.16314
1.15546
1.1584
1.17105
1.18744
1.20668
1.22633
1.23774
1.24298
1.24201
1.22425
1.1932
1.18022
1.18113
1.18607
1.19881
1.24337
1.29207
1.3103
1.3175
1.32095
1.31197
1.28001
1.25056
1.24047
1.24288
1.25412
1.2732
1.291
1.31629
1.34616
1.35881
1.36132
1.36364
1.36843
1.37328
1.36969
1.35531
1.34622
1.34217
1.33557
1.32926
1.33203
1.34828
1.39272
1.43622
1.4618
1.47607
1.4852
1.49027
1.47778
1.4417
1.4111
1.40082
1.40255
1.40859
1.41808
1.45154
1.50675
1.53951
1.55367
1.56235
1.56752
1.56633
1.54538
1.51059
1.49079
1.48718
1.49105
1.50438
1.54335
1.58953
1.61564
1.62726
1.63224
1.63223
1.62508
1.60393
1.55703
1.49941
3.28926
14.127
1.06308
1.06275
1.07992
1.10334
1.11906
1.13216
1.14064
1.13986
1.13488
1.13477
1.13801
1.14572
1.15966
1.16946
1.17409
1.17329
1.15625
1.13825
1.13519
1.14081
1.15933
1.19674
1.23282
1.24907
1.2547
1.25576
1.24613
1.21039
1.18192
1.1768
1.17991
1.1849
1.19894
1.24146
1.29081
1.31145
1.31721
1.31045
1.29652
1.28602
1.27095
1.26253
1.2657
1.27561
1.28354
1.28694
1.28756
1.29615
1.32382
1.34878
1.36564
1.38243
1.39576
1.40194
1.39352
1.3684
1.34375
1.32725
1.32112
1.32348
1.32954
1.35015
1.40814
1.45788
1.47702
1.48532
1.49046
1.48976
1.47209
1.43568
1.41254
1.40884
1.4146
1.42485
1.43761
1.46724
1.5113
1.53621
1.54707
1.55417
1.56044
1.56329
1.55026
1.52035
1.49893
1.49264
1.49413
1.50273
1.53798
1.58213
1.60702
1.6182
1.62392
1.62517
1.62057
1.59346
1.53482
3.20272
14.1935
1.07683
1.08747
1.10602
1.11452
1.11604
1.10841
1.10326
1.10997
1.12428
1.14163
1.16264
1.17891
1.18608
1.18795
1.18307
1.15953
1.13083
1.12223
1.12444
1.12982
1.14856
1.20403
1.24611
1.25912
1.2647
1.26493
1.2425
1.20536
1.18477
1.18034
1.18439
1.20003
1.22208
1.24127
1.26759
1.28898
1.29463
1.29285
1.29323
1.29694
1.30118
1.30035
1.29423
1.29008
1.28505
1.27314
1.26502
1.26769
1.28362
1.32434
1.36796
1.39576
1.41043
1.41776
1.42013
1.40053
1.35818
1.32912
1.32189
1.32463
1.33116
1.34341
1.37113
1.42517
1.46152
1.47436
1.47865
1.47912
1.47977
1.47304
1.4508
1.4328
1.42718
1.42759
1.43017
1.43716
1.46327
1.5054
1.53142
1.54535
1.55696
1.56814
1.5746
1.56317
1.52806
1.49888
1.48708
1.48621
1.49213
1.52666
1.57435
1.60325
1.61625
1.62067
1.62165
1.61235
1.58327
3.15625
14.2608
1.10694
1.1159
1.11875
1.11682
1.09634
1.08151
1.08176
1.089
1.11284
1.15622
1.19038
1.20327
1.20694
1.20303
1.18158
1.14142
1.1215
1.12051
1.12406
1.13025
1.154
1.20675
1.24659
1.2603
1.26207
1.24693
1.22807
1.21416
1.2017
1.20083
1.21017
1.22407
1.23153
1.2343
1.23406
1.24287
1.26524
1.28403
1.29958
1.31732
1.32975
1.33348
1.32416
1.30318
1.2777
1.25776
1.25204
1.25493
1.26142
1.28799
1.35268
1.39845
1.41363
1.4204
1.42266
1.41539
1.38701
1.35014
1.33466
1.33564
1.34439
1.355
1.36277
1.37771
1.41621
1.44918
1.46474
1.47303
1.48188
1.4911
1.49194
1.47182
1.44553
1.42894
1.42273
1.4226
1.42938
1.45824
1.50568
1.53867
1.55767
1.56999
1.57861
1.58267
1.56766
1.52673
1.49152
1.47784
1.47801
1.48425
1.52008
1.57292
1.60356
1.61362
1.61582
1.61087
1.61508
3.16531
14.3201
1.13476
1.13843
1.12695
1.09914
1.07484
1.07024
1.07304
1.07876
1.10005
1.16186
1.20042
1.21049
1.21521
1.21111
1.17574
1.13965
1.12565
1.12498
1.13201
1.15335
1.1772
1.19834
1.22303
1.23504
1.23338
1.22748
1.22848
1.23189
1.23644
1.23808
1.23771
1.23748
1.23157
1.21584
1.20747
1.21103
1.23053
1.27051
1.31128
1.33849
1.35073
1.35608
1.35207
1.32139
1.27842
1.25595
1.25215
1.25537
1.26238
1.27971
1.32019
1.37657
1.40354
1.41098
1.40865
1.40397
1.402
1.39122
1.3713
1.36061
1.35918
1.35991
1.35746
1.35739
1.36739
1.40398
1.44605
1.47196
1.48715
1.49816
1.5059
1.50646
1.48161
1.44457
1.42249
1.41746
1.42045
1.42802
1.45955
1.5137
1.55024
1.56665
1.57488
1.58064
1.58189
1.56493
1.52271
1.48825
1.47464
1.47286
1.47957
1.51871
1.57167
1.59817
1.6061
1.60203
1.6273
3.21598
14.3784
1.15053
1.15498
1.12934
1.08871
1.07325
1.0728
1.07549
1.0844
1.1169
1.16553
1.19797
1.20894
1.20738
1.18732
1.16761
1.15197
1.14446
1.1487
1.16372
1.17886
1.18427
1.18496
1.18169
1.19044
1.20883
1.22393
1.24062
1.25946
1.27096
1.27263
1.26343
1.24443
1.2167
1.19654
1.1923
1.1956
1.20387
1.24247
1.30979
1.34486
1.35586
1.36156
1.36229
1.34248
1.29705
1.26621
1.2602
1.26553
1.28153
1.29741
1.30737
1.326
1.35998
1.38354
1.39416
1.40071
1.40944
1.41874
1.41873
1.40081
1.37965
1.36327
1.35172
1.34711
1.34991
1.36037
1.40189
1.45538
1.48595
1.49919
1.50692
1.51176
1.50891
1.47955
1.44009
1.42133
1.41885
1.42286
1.43258
1.46826
1.5218
1.55308
1.56484
1.5708
1.57498
1.57616
1.56354
1.52574
1.48988
1.47396
1.47163
1.4765
1.51464
1.5626
1.58626
1.58779
1.62221
3.29759
14.4338
1.15401
1.15388
1.11366
1.08971
1.08033
1.08116
1.09038
1.1125
1.13296
1.15371
1.1727
1.17891
1.17388
1.16826
1.17137
1.17577
1.18123
1.18486
1.18775
1.1896
1.18006
1.15864
1.15162
1.15713
1.18135
1.22325
1.26303
1.28671
1.29544
1.29768
1.28555
1.24744
1.20912
1.19235
1.19141
1.19524
1.20373
1.2289
1.2871
1.33709
1.35293
1.35485
1.34241
1.3308
1.32107
1.30291
1.29214
1.29319
1.29924
1.30383
1.30161
1.29544
1.30237
1.33596
1.37576
1.40239
1.42067
1.43473
1.4426
1.44156
1.41653
1.37852
1.35222
1.34453
1.3474
1.35321
1.36671
1.4179
1.47201
1.49415
1.50272
1.50627
1.50615
1.50185
1.47813
1.44508
1.42896
1.42731
1.43142
1.43833
1.46771
1.51726
1.54749
1.55976
1.56675
1.57361
1.57857
1.57092
1.53352
1.49163
1.46965
1.46511
1.46804
1.50289
1.54887
1.56697
1.60686
3.38786
14.4805
1.14752
1.13417
1.11284
1.09934
1.09766
1.10517
1.12397
1.13593
1.13952
1.1362
1.13233
1.14163
1.15756
1.17077
1.18734
1.20604
1.21606
1.21673
1.20783
1.18803
1.15704
1.1409
1.14009
1.14423
1.15698
1.21098
1.27301
1.29612
1.3037
1.30778
1.29935
1.2612
1.2152
1.19717
1.19672
1.20574
1.22887
1.24917
1.26486
1.29246
1.31715
1.32596
1.32887
1.33369
1.34025
1.34752
1.34296
1.3284
1.31519
1.30232
1.28514
1.27543
1.27712
1.28749
1.32992
1.3903
1.42673
1.4416
1.4492
1.4526
1.44545
1.40971
1.36676
1.35008
1.35029
1.35735
1.3702
1.38932
1.43125
1.4714
1.489
1.49598
1.50085
1.506
1.50754
1.49032
1.45996
1.43989
1.43167
1.43056
1.43503
1.4578
1.50623
1.5414
1.55919
1.56994
1.5781
1.58372
1.57833
1.53904
1.48846
1.46013
1.45417
1.45662
1.493
1.53316
1.58281
3.47265
14.5189
1.12406
1.12001
1.12155
1.12242
1.12678
1.13476
1.14109
1.14304
1.12964
1.10998
1.10596
1.11205
1.13817
1.1806
1.2157
1.23314
1.2385
1.2373
1.2186
1.17571
1.14467
1.1375
1.13991
1.14466
1.15903
1.20303
1.26575
1.29517
1.30232
1.29419
1.27359
1.25777
1.23962
1.22511
1.22594
1.23803
1.24933
1.25348
1.24962
1.2439
1.2559
1.28957
1.32112
1.34416
1.36534
1.37847
1.38263
1.3705
1.33761
1.30059
1.27709
1.27111
1.27423
1.27999
1.29673
1.35597
1.41841
1.43984
1.44655
1.44426
1.43499
1.4239
1.40236
1.37849
1.36996
1.37201
1.37689
1.38175
1.38986
1.42144
1.46098
1.48296
1.49445
1.50386
1.5145
1.52185
1.50966
1.47369
1.4426
1.42752
1.4234
1.42572
1.44625
1.49852
1.54182
1.56364
1.5759
1.58274
1.58502
1.57587
1.53489
1.48201
1.45137
1.44351
1.44893
1.48327
1.54716
3.53641
14.5502
1.11614
1.12774
1.13869
1.15068
1.15672
1.15665
1.15027
1.12957
1.10554
1.09783
1.09961
1.10423
1.12002
1.181
1.23093
1.245
1.25038
1.24967
1.22386
1.17581
1.14781
1.14163
1.14516
1.16363
1.19104
1.21049
1.23274
1.25759
1.26664
1.26475
1.2649
1.26722
1.27043
1.27453
1.27238
1.26733
1.2605
1.2447
1.22425
1.2178
1.22194
1.24141
1.29396
1.35029
1.3802
1.39233
1.39824
1.39724
1.3723
1.31767
1.28292
1.27548
1.27886
1.29172
1.31283
1.33686
1.37546
1.40937
1.42137
1.42348
1.42574
1.43048
1.43474
1.42873
1.40912
1.39218
1.3824
1.37575
1.37135
1.37644
1.40625
1.45246
1.48409
1.50629
1.52352
1.53205
1.5357
1.51938
1.47262
1.43244
1.41791
1.418
1.42262
1.44388
1.50311
1.5504
1.56861
1.5751
1.57802
1.57688
1.56665
1.53095
1.48019
1.44727
1.43701
1.43672
1.50007
3.56173
14.5801
1.10815
1.14596
1.16486
1.17322
1.17514
1.17007
1.14637
1.10945
1.09299
1.09259
1.09617
1.10338
1.13199
1.1866
1.22912
1.2443
1.24577
1.22937
1.20718
1.18803
1.16988
1.16683
1.17748
1.19558
1.20463
1.20629
1.19897
1.19705
1.21547
1.24303
1.26522
1.28771
1.30824
1.31692
1.31403
1.2956
1.26309
1.22774
1.21021
1.20888
1.21287
1.22082
1.25318
1.33238
1.38065
1.3933
1.3954
1.38378
1.36379
1.34268
1.31646
1.30392
1.30635
1.31566
1.3228
1.32697
1.32974
1.34827
1.38315
1.40801
1.42331
1.43988
1.45545
1.46247
1.45434
1.42441
1.39133
1.36749
1.35868
1.36011
1.36801
1.40539
1.4687
1.50851
1.52328
1.53044
1.53509
1.53245
1.51102
1.46565
1.43226
1.42263
1.42445
1.43214
1.45199
1.50229
1.54199
1.55762
1.56438
1.56894
1.57111
1.56417
1.53239
1.48373
1.44779
1.42216
1.44201
3.53751
14.6146
1.09687
1.15774
1.18051
1.18784
1.19045
1.1832
1.14444
1.10863
1.09594
1.09594
1.10347
1.12602
1.14883
1.17182
1.19936
1.21418
1.21513
1.21166
1.21044
1.20924
1.21111
1.21213
1.21195
1.21238
1.20764
1.18454
1.16788
1.16754
1.17716
1.20924
1.26435
1.31149
1.3338
1.34125
1.34228
1.3282
1.27791
1.22813
1.21178
1.21125
1.21784
1.23745
1.26479
1.29785
1.34201
1.36468
1.3675
1.36411
1.36424
1.36539
1.36477
1.35568
1.34347
1.33435
1.32516
1.3111
1.30343
1.30738
1.33013
1.37879
1.42396
1.45297
1.46702
1.47407
1.476
1.46098
1.41332
1.37288
1.35964
1.36072
1.36806
1.38233
1.42344
1.48211
1.51068
1.51914
1.51931
1.51826
1.52038
1.51249
1.48107
1.45091
1.43656
1.43165
1.43067
1.44107
1.48529
1.52886
1.55067
1.56165
1.56825
1.57007
1.56446
1.53547
1.48701
1.43368
1.40592
3.46678
14.6545
1.08991
1.15505
1.18168
1.18839
1.18674
1.1712
1.14827
1.12348
1.11375
1.11725
1.13184
1.14546
1.14979
1.15157
1.15156
1.16484
1.18823
1.20607
1.22268
1.24252
1.25278
1.25199
1.24095
1.22125
1.18855
1.16074
1.15319
1.15548
1.1612
1.17886
1.24601
1.31492
1.33715
1.34408
1.34038
1.31645
1.2844
1.25232
1.23369
1.23332
1.24542
1.26111
1.26855
1.27275
1.27904
1.30375
1.33358
1.35308
1.36822
1.38734
1.39954
1.40137
1.38619
1.35689
1.32409
1.30116
1.29491
1.29764
1.30419
1.33404
1.40526
1.45065
1.46526
1.471
1.4698
1.46108
1.44323
1.40819
1.38378
1.3788
1.38341
1.38998
1.39583
1.41958
1.465
1.49262
1.50389
1.51316
1.52459
1.53299
1.53099
1.50016
1.45748
1.4296
1.42044
1.4193
1.42726
1.47075
1.52225
1.55143
1.56507
1.56971
1.56786
1.55871
1.53143
1.47302
1.40834
3.36228
14.7057
1.09111
1.13051
1.16103
1.17101
1.17192
1.16897
1.16328
1.15585
1.14935
1.14702
1.14874
1.15098
1.14251
1.12789
1.1256
1.13211
1.15485
1.19773
1.24172
1.26808
1.27771
1.28033
1.26931
1.23056
1.18328
1.16078
1.1561
1.15895
1.17129
1.1988
1.23404
1.28206
1.31409
1.32128
1.31482
1.30453
1.29859
1.29212
1.28294
1.27567
1.27363
1.27369
1.26766
1.25107
1.24485
1.25194
1.28224
1.33216
1.37664
1.40305
1.41515
1.42084
1.41865
1.39157
1.33901
1.30565
1.29766
1.3004
1.31055
1.33158
1.36749
1.41761
1.44449
1.45202
1.45174
1.45187
1.45615
1.45514
1.43556
1.41174
1.39799
1.38982
1.38263
1.38268
1.39956
1.44691
1.48964
1.51431
1.52976
1.54124
1.54718
1.54359
1.50646
1.45209
1.42
1.41097
1.41123
1.41911
1.46823
1.52861
1.55716
1.56386
1.5636
1.55822
1.54772
1.51354
1.4569
3.26784
14.778
1.08942
1.09856
1.12049
1.1496
1.16618
1.17513
1.18472
1.18948
1.18553
1.17301
1.15861
1.14129
1.12383
1.11488
1.11563
1.11966
1.12907
1.17211
1.24065
1.27104
1.28043
1.28336
1.27386
1.24053
1.2007
1.17803
1.1748
1.18315
1.20154
1.21468
1.22022
1.22865
1.25016
1.27695
1.29304
1.30156
1.31477
1.32893
1.33387
1.32394
1.30417
1.28175
1.25591
1.23709
1.2328
1.23595
1.2449
1.28643
1.36346
1.40416
1.41592
1.42041
1.41561
1.39816
1.36831
1.33468
1.31965
1.32068
1.32903
1.33613
1.34146
1.35872
1.39694
1.42619
1.44033
1.4505
1.46651
1.47858
1.48072
1.46004
1.42354
1.39157
1.37351
1.36901
1.37126
1.38731
1.44248
1.50023
1.53039
1.54211
1.54675
1.5475
1.53744
1.49549
1.44197
1.41518
1.40907
1.41158
1.42447
1.47382
1.52734
1.54887
1.55172
1.54831
1.5439
1.53111
1.51615
3.22673
14.8556
1.08582
1.08631
1.09108
1.11479
1.15458
1.18378
1.19966
1.20847
1.21092
1.20074
1.17348
1.14347
1.12502
1.11826
1.11898
1.12371
1.13662
1.15976
1.20579
1.24953
1.26437
1.26574
1.25956
1.25209
1.23838
1.22258
1.21422
1.2136
1.21664
1.21914
1.2113
1.19825
1.19938
1.22106
1.26392
1.30441
1.33402
1.35442
1.36325
1.36475
1.34586
1.30158
1.25858
1.23831
1.23522
1.23864
1.24956
1.2748
1.32358
1.377
1.39914
1.40292
1.39806
1.39427
1.39332
1.3838
1.3652
1.35096
1.34352
1.33689
1.32844
1.32623
1.3379
1.37854
1.42413
1.45565
1.47585
1.48836
1.49489
1.49475
1.46636
1.4134
1.37707
1.36694
1.36854
1.37432
1.39469
1.45896
1.51397
1.53267
1.53697
1.53301
1.52838
1.52239
1.49536
1.45468
1.42954
1.42018
1.41759
1.42101
1.46262
1.5122
1.53378
1.53795
1.53874
1.53092
1.55462
3.2447
14.9192
1.08469
1.08405
1.08665
1.09237
1.12042
1.17253
1.20195
1.21191
1.21656
1.21759
1.20297
1.16421
1.13582
1.12861
1.13142
1.14052
1.14987
1.1549
1.16321
1.19305
1.23081
1.25002
1.25685
1.26403
1.2714
1.27073
1.25739
1.24034
1.22557
1.2097
1.19132
1.18017
1.18021
1.18573
1.21171
1.27917
1.33731
1.35938
1.36693
1.37092
1.36542
1.33336
1.28286
1.25511
1.25009
1.25692
1.27179
1.28291
1.29061
1.3138
1.35124
1.37536
1.38625
1.39375
1.40698
1.41755
1.41596