/*--------------------------------*- C++ -*----------------------------------*\
  =========                 |
  \\      /  F ield         | OpenFOAM: The Open Source CFD Toolbox
   \\    /   O peration     | Website:  https://openfoam.org
    \\  /    A nd           | Version:  12
     \\/     M anipulation  |
\*---------------------------------------------------------------------------*/
FoamFile
{
    format      ascii;
    class       volScalarField;
    location    "5.92";
    object      rho;
}
// * * * * * * * * * * * * * * * * * * * * * * * * * * * * * * * * * * * * * //

dimensions      [1 -3 0 0 0 0 0];

internalField   nonuniform List<scalar> 
22702
(
1.40001
1.40001
1.26218
1.40001
1.45628
1.40001
1.83998
1.40001
1.40001
1.02974
1.83884
1.8386
1.40001
1.84115
1.28151
1.40001
1.40001
1.40001
1.83829
1.40001
1.84232
1.40001
1.83812
1.02824
1.84453
1.06413
1.40001
1.83815
0.976671
1.04298
1.40001
1.8376
1.40001
1.40001
1.40001
1.80909
1.84316
1.83817
1.40001
1.40001
1.09744
1.40001
1.62215
1.40001
1.83632
1.40001
1.40001
1.40001
1.40001
1.03275
1.40001
1.02602
1.40001
1.83858
1.40001
1.83682
1.40001
1.40001
1.40001
1.40001
1.06483
1.40001
1.40001
0.962422
1.40001
1.03936
1.40001
1.40001
1.40001
1.07394
1.40001
1.84124
1.67159
1.40001
1.84191
1.86426
1.04335
1.84224
1.02149
1.40001
1.83687
1.03009
1.83647
1.83579
1.40001
1.40001
1.40001
1.40001
1.3209
1.05765
1.83838
1.40001
1.40001
0.966872
1.40001
1.84237
0.968912
1.40001
1.40001
1.40001
1.40001
1.62054
1.83729
1.06529
1.40001
1.40001
1.50884
1.40001
1.02829
1.40001
1.84267
1.8407
1.40001
1.40001
1.023
1.02493
1.03605
1.40001
1.40001
1.40001
1.40001
1.40001
1.29975
1.40001
1.77879
1.44306
1.84395
1.40001
1.8445
1.83796
1.842
1.83767
1.40001
1.09888
1.40001
0.984766
1.40001
1.40001
1.40001
1.40001
1.83962
1.40001
1.40001
1.40001
1.40001
1.83999
1.40001
1.426
1.40001
1.40001
1.40001
1.40001
1.03254
1.40001
1.41078
1.40001
1.02286
1.40001
1.40001
1.40001
1.83781
1.40001
1.83959
1.01995
1.06542
1.84315
1.84079
1.40001
1.4685
1.6513
1.40001
1.8364
1.02249
1.80986
1.40001
1.40001
1.40001
1.40001
1.84123
1.74563
1.40001
1.83832
0.972356
1.83696
1.40001
1.00875
1.40001
1.02989
1.06513
1.3998
1.40001
1.40001
1.83779
1.40001
1.40001
1.84122
1.40001
1.83857
1.83899
1.0343
1.40001
1.40001
1.03119
1.84109
1.40001
1.40001
1.40001
1.84154
1.40001
0.997263
1.40001
1.40001
1.84178
1.84161
1.84152
1.40001
1.40005
1.40001
1.40001
1.40001
1.84172
1.40001
1.03207
1.859
1.84119
1.84179
1.40001
1.40001
1.40001
1.01863
1.84197
1.61505
1.40001
1.84343
1.00994
0.99947
1.84357
1.84315
1.40001
1.84957
1.02638
1.79089
1.40001
1.40001
1.40001
1.40001
1.8417
1.40001
1.65872
1.44213
1.40001
1.40001
1.84083
0.979824
1.16314
1.40001
1.84342
1.04812
1.84471
1.40001
1.40001
1.40001
1.40001
1.40001
1.40001
1.40001
1.02912
1.14275
0.995635
1.84147
1.40001
1.40001
1.40001
1.40001
1.78925
1.40001
1.02981
1.40001
1.00821
1.0279
1.84223
1.01184
1.84218
1.40001
1.40001
1.40001
1.39744
1.00771
1.02354
1.4
1.40001
1.01038
1.40001
1.83869
1.05903
1.40001
1.40001
1.8361
1.02227
1.40001
1.84023
1.0567
1.84125
1.40001
1.01065
1.39767
1.40001
1.40001
1.40001
1.01843
1.40001
1.40001
1.4
1.40002
1.40434
1.67232
1.40001
1.05391
1.40001
1.40001
1.40001
1.40001
1.40001
1.40001
1.40001
1.83654
1.40001
1.83569
1.40001
1.40001
1.40001
1.01571
1.40001
1.84
1.00529
1.40001
1.74985
1.40001
1.40001
1.83868
1.40001
1.40001
1.40001
1.82494
1.40001
1.40001
1.82775
1.83878
1.40001
1.49371
1.40001
1.40001
0.971823
1.40001
1.40001
1.40001
0.971821
1.40001
1.40001
1.40001
1.40001
1.04674
1.40001
1.40001
1.40001
1.40001
1.40001
1.04413
1.40007
1.83981
1.40001
1.39999
1.84113
1.84343
1.40001
1.40001
1.03912
1.21061
1.84013
1.40001
1.40001
1.40001
1.84126
1.07418
1.40001
1.83984
1.40001
1.40001
1.10292
1.09748
1.40001
1.03104
1.0175
1.40001
1.40001
1.40001
1.40001
1.40001
1.40001
1.40001
1.8414
1.5081
1.81012
1.03599
1.30938
1.838
1.40001
1.84216
1.84035
1.01235
1.17261
1.40001
1.01
1.40001
1.84761
1.40001
1.40001
1.40001
1.40001
1.84109
1.40001
1.40001
1.40001
1.40001
1.40001
1.40001
1.40001
1.56218
1.83823
1.40001
1.84162
1.40001
1.40001
1.02901
1.40001
1.40001
1.40001
1.40001
1.84148
1.73775
1.40001
1.40001
1.01795
1.84176
1.84135
1.40001
1.84152
1.84138
1.8417
1.40001
1.23289
1.40001
1.84218
1.39213
1.84175
1.40001
0.994062
1.39883
1.83785
1.40001
1.40001
1.40001
1.40001
1.02794
1.84237
1.801
1.40001
1.84237
1.84192
1.83919
1.40001
1.61427
1.84304
1.40001
1.40001
1.70429
1.46202
1.84183
1.32648
1.84157
1.40001
1.84175
1.84187
1.8416
1.8422
1.40001
1.83813
1.31055
1.28021
1.40001
1.4
1.40001
1.40001
1.83914
1.40001
1.40001
1.40001
1.40001
1.40001
1.83854
1.40001
1.40001
1.39586
1.84118
1.78702
1.40001
1.76685
1.40005
1.40001
1.40001
1.84232
1.40001
1.3972
1.40483
1.40001
1.84201
1.40001
1.84075
1.40001
1.40001
1.7296
1.40001
1.84105
1.40003
1.40001
1.84156
1.40001
1.84116
1.40001
1.40001
1.40001
1.8413
1.40001
1.84
1.40001
1.84149
1.83627
1.84164
1.83707
1.40001
1.83887
1.84318
1.40001
1.04482
1.81416
1.71837
1.40001
1.84106
1.40001
0.972495
1.05116
1.40001
1.40001
1.40001
1.40001
1.40001
0.981066
1.40001
1.84153
1.51248
1.8424
1.40001
1.40001
1.40001
1.40001
1.40001
1.84174
1.40001
1.84469
1.66645
1.1751
1.40001
1.40001
1.52983
1.51611
1.40001
1.40001
1.56367
1.40001
1.02497
1.84204
1.84203
1.40001
1.40001
1.40001
1.83647
1.40001
1.40003
1.84105
1.84223
1.35033
1.40001
1.40001
1.02958
1.80228
1.40001
1.40001
1.40001
1.40001
1.40001
1.8412
1.83834
1.40001
1.84209
1.8398
1.84153
1.40001
1.40001
1.40001
1.40001
1.06699
1.83911
1.40001
1.40001
1.80249
1.84023
1.40001
1.81548
1.84106
1.40001
1.40001
1.40001
1.40001
1.40001
1.84203
1.40001
1.40001
1.40001
1.40001
1.83831
1.40001
1.84028
1.01703
1.40001
1.01994
1.40001
1.40001
1.40001
1.39689
1.03474
1.39909
1.40001
1.40001
1.40001
1.46334
1.40001
1.40001
1.26822
1.40001
1.40001
1.40001
1.40001
1.40001
1.40001
1.40001
1.4
1.31603
1.4
1.40001
1.3974
1.40001
1.02926
1.40001
1.40001
1.40001
1.40001
1.73125
1.40001
1.40001
1.40001
1.40001
1.00058
1.40001
1.40001
1.8155
1.83802
1.4
1.40001
1.40001
1.28137
1.40001
1.40001
1.40001
1.40001
1.40001
1.40001
1.35295
1.40476
1.84125
1.40001
1.40001
1.40001
1.83976
1.29149
1.40001
1.40001
1.40001
1.83659
1.84071
1.40001
1.40001
1.40001
1.40001
1.40001
1.40001
1.40001
1.40001
1.40001
1.01116
1.40001
1.40001
1.83866
0.997559
1.40001
1.83792
1.40001
1.02559
1.40001
1.40001
1.01106
1.40001
1.40001
1.40001
1.40001
1.40001
1.40001
1.40001
1.83318
1.84078
1.40001
1.40001
1.40001
1.40001
1.80361
1.40001
1.53063
1.03878
1.40001
1.40001
1.40001
1.40001
1.40001
1.40001
1.40001
1.43393
1.40001
1.40001
1.62057
1.40001
1.40001
1.40001
1.76638
1.40001
1.40001
1.40001
1.40001
1.03439
1.40001
1.40001
1.0066
1.02173
1.40001
1.40001
1.84207
1.40001
1.4115
1.40001
1.40001
1.40001
1.70578
1.03528
1.40001
1.02783
1.40001
1.1779
1.40001
1.40001
1.40001
1.84138
1.40001
1.40001
1.84171
1.40001
1.40001
1.40001
1.84172
1.40001
1.40001
1.84301
1.40001
1.40001
1.0122
1.40001
1.53043
1.40001
1.40001
1.83959
1.83737
1.69646
1.79615
1.40001
1.00237
1.40001
1.40001
1.82199
1.40001
1.06641
1.40001
1.40001
1.40001
1.84168
1.40001
1.40001
1.40001
1.40001
1.66655
1.40001
1.80371
1.84368
1.00556
1.40001
1.40001
1.06301
1.05519
1.40001
1.40001
1.40001
1.7113
1.73679
1.40001
1.40001
1.40001
1.40001
1.40001
1.40001
1.40001
1.59145
1.83542
1.40812
1.40001
1.83695
1.09248
1.40001
1.40001
1.40001
1.64153
1.40001
1.48617
1.40001
1.80337
1.83971
1.40001
0.994945
1.40001
1.83539
1.40001
1.40001
1.84186
1.8142
1.40001
1.84384
1.40001
0.928685
1.40001
1.40001
1.40001
1.84239
1.83355
1.78926
1.40001
1.844
1.84106
1.40001
1.84228
1.40001
1.83993
1.40001
1.05449
1.36998
1.01503
1.40001
1.40001
1.40001
1.40001
1.40001
1.84085
1.40001
1.84064
1.40001
1.40001
1.40001
1.81931
1.40001
1.03673
1.84133
1.40001
1.03455
1.06769
1.04982
1.40001
1.61654
1.42893
1.84372
1.84111
1.40001
1.4
1.40001
1.40001
1.84211
1.40001
1.40001
1.84202
1.84143
1.40001
1.55174
1.40003
1.40001
1.39674
1.84206
1.25114
1.40001
1.22286
1.02478
1.02699
1.35465
1.83817
1.83574
1.48655
1.84207
1.84163
1.40001
1.40001
1.84167
1.83732
1.84197
1.84153
1.40001
1.84177
1.04531
1.84097
1.84291
1.83776
1.84493
1.26347
1.2943
1.31987
1.84286
1.34843
1.84301
1.40001
1.40001
1.84372
1.84052
1.40001
1.00091
1.84151
1.84203
1.40001
1.84166
1.84174
1.40001
1.8419
1.01522
1.8403
1.83861
1.83943
1.84599
1.40001
1.40001
1.40001
1.84212
1.68857
1.04926
1.84192
1.00713
1.84207
1.40001
1.40001
1.40001
1.40001
1.84078
1.84271
1.40001
1.40001
1.84257
1.01013
1.84179
1.02668
1.40001
1.83908
1.40001
1.03919
1.84267
1.12972
1.40001
1.84116
1.84481
1.84257
1.40001
1.40001
1.62554
1.84421
1.03167
1.84168
1.40001
1.84204
1.28098
1.84244
1.02019
1.40001
1.84131
1.08173
1.84363
1.02094
1.40001
1.84157
1.40001
1.84059
1.40001
1.65959
1.82522
1.74823
1.0313
1.40001
1.84172
1.40001
1.84175
1.40001
1.84163
1.40001
1.40001
1.84218
1.38235
1.84478
0.971969
1.79949
1.40001
1.71377
1.40001
1.84252
1.84145
1.84218
1.40001
1.7972
1.8422
1.80903
1.67385
1.84092
1.40001
1.69392
1.40001
1.8424
1.40001
1.45266
1.40001
1.80935
1.40001
1.84214
1.82053
1.8206
1.40001
1.83032
1.05989
1.40001
1.0105
1.40001
1.40001
1.40001
1.84166
1.40001
1.84178
1.40001
1.40001
1.40001
1.84299
1.83311
1.76098
1.8409
1.83967
1.03258
1.84854
1.8364
1.40001
1.78675
1.84158
1.81892
1.40001
1.83562
1.83605
1.40001
1.83781
1.84094
1.84152
1.84237
1.40001
1.40001
1.40001
1.84245
1.03121
1.40001
1.84144
1.40001
1.40001
1.04883
1.40001
1.40001
1.84137
1.84222
1.40001
1.84164
1.84854
1.84131
1.37103
1.84205
1.40001
1.84192
1.84123
1.75732
1.40001
1.40001
1.40001
1.84
1.84094
1.84136
1.34164
1.40001
1.85359
1.84168
1.84174
1.40001
1.84157
1.842
1.84122
1.85512
1.40001
1.84224
1.84108
1.7888
1.84061
1.85348
1.40001
1.8382
1.83652
1.84134
1.84062
1.84228
1.05105
1.84164
1.84002
1.40001
1.84132
1.84135
1.8416
1.84205
1.40001
1.84145
1.84138
1.40001
1.84255
1.77027
1.40001
1.40001
1.40001
1.83975
1.84891
1.40001
1.40001
1.63531
1.40001
1.84184
1.40001
1.40001
1.84183
1.84339
1.84223
1.84139
1.40001
1.40001
1.40001
1.71067
1.40001
1.84257
1.40001
1.40001
1.84296
1.83864
1.40001
1.84152
1.02186
1.84182
1.84044
1.09821
1.40001
1.06597
1.78419
1.84554
1.84342
1.84272
0.995623
1.84238
1.84309
1.00043
1.00696
1.40001
1.84275
1.84252
1.40001
1.40001
1.84169
1.40001
1.84836
1.40001
1.78702
1.40001
1.6069
1.84259
1.84425
1.70173
1.79429
1.8397
1.84316
1.8139
1.40001
1.07213
1.84572
1.8418
1.84519
1.40002
1.40001
1.40001
1.84405
1.40001
1.84174
1.84271
1.14995
1.40001
1.84213
1.39995
1.40001
1.40003
1.40005
1.84174
1.83901
1.39848
1.40001
1.40001
1.84195
1.84451
1.842
1.84306
1.84245
1.08915
1.77282
1.40001
1.83917
1.84234
1.84227
1.83211
1.40001
1.84181
1.82988
1.84369
1.40001
1.8406
1.84107
1.26915
1.84174
1.84039
1.40001
1.84156
1.24861
1.84057
1.26195
1.842
1.40001
1.84176
1.84629
1.84133
1.84189
1.8417
1.84212
1.84282
1.83842
1.40001
1.34287
1.84105
1.84101
1.23407
1.84186
1.38125
1.66785
1.84127
1.84223
1.8397
1.40001
1.84492
1.68844
1.84001
1.31742
1.84458
1.83908
1.40001
1.2481
1.40001
1.83554
1.40001
1.70621
1.40001
1.83434
1.24541
1.40001
1.8392
1.83935
1.40001
1.84233
1.84383
1.84062
1.83396
1.83597
1.40001
1.83733
1.40001
1.40001
1.40001
1.27412
1.84119
1.84211
1.84377
1.84171
1.84685
1.84171
1.8464
1.84175
1.2942
1.43022
1.40001
1.40001
1.84325
1.84156
1.84135
1.84171
1.40003
1.63241
1.40001
1.83899
1.79811
1.40001
1.40001
1.10347
1.84124
1.40001
1.40001
1.04249
1.84176
1.40001
1.83498
1.84218
1.83979
1.82466
1.84218
1.40001
1.05712
1.50847
1.84237
1.84189
1.40001
1.84161
1.84124
1.61744
1.41084
1.50052
1.40001
1.83941
1.84184
1.40001
1.40001
0.994288
1.40001
1.40001
1.84149
1.84151
1.84228
1.8419
1.84144
1.83756
1.84234
1.84109
1.84175
1.40001
1.39613
1.84105
1.84246
1.39686
1.84139
1.84114
1.02504
1.00997
1.84013
1.85019
1.40001
1.40001
1.40132
1.84208
1.84393
1.84171
1.40001
1.84136
1.40001
1.25313
1.84526
1.84468
1.40001
1.60073
1.84301
1.40001
1.8402
1.40001
1.84219
1.70385
1.8433
1.40001
1.8414
1.84305
0.99682
1.84155
1.40001
1.83982
1.83553
1.40001
1.0427
1.83842
1.76811
1.39746
1.8265
1.8413
1.40001
1.40654
1.8453
1.39727
1.84145
1.40001
1.40001
1.84068
1.40001
1.84016
1.84125
1.39649
1.75413
1.40001
1.84119
1.40001
1.40001
1.40001
1.40001
1.84162
1.40001
1.40001
1.83429
1.40001
1.84151
1.40001
1.6853
1.84286
1.84138
1.40001
1.40001
1.40723
1.40001
1.84085
1.84148
1.84025
1.84135
1.84146
1.84205
1.84155
1.40001
1.84204
1.84109
1.40001
1.84188
1.84216
1.40001
1.84329
1.33266
1.45728
1.84184
1.84185
1.84228
1.40001
1.84145
1.40001
1.84178
1.84169
1.40001
1.84102
1.40001
1.40001
1.40001
1.40001
1.84201
1.05886
1.39787
1.40001
1.84138
1.84338
1.40001
1.84166
1.40001
1.40495
1.05458
1.84166
1.39962
1.40001
1.84084
1.39835
1.84173
1.40001
1.39977
1.40001
1.84063
1.83743
1.84235
1.84469
1.03671
1.84134
1.84058
1.84153
1.50904
1.40001
1.40001
1.59327
1.84138
1.05985
1.03789
1.40001
1.84046
1.84202
1.84402
1.40001
1.40001
1.83985
1.84262
1.3999
1.40001
1.71967
1.01053
1.40001
1.47845
1.83757
1.8417
1.39826
1.84142
1.85339
1.40001
1.39896
1.40001
1.8442
1.8423
1.57876
1.40001
1.82964
1.40001
1.402
1.84236
1.08693
1.84269
1.84171
1.39693
1.39991
1.79062
1.40001
1.39969
1.40001
1.83989
1.40001
1.40002
1.0587
1.84165
1.40001
1.40001
1.40001
1.40001
1.84508
1.65101
1.40001
1.40001
1.0594
1.8422
1.65321
1.40001
1.40001
1.40001
1.82111
1.84048
1.83885
1.40001
1.40001
1.8446
1.40001
1.84218
1.84089
1.40001
1.40001
1.84306
1.8412
1.82778
1.40001
1.40001
1.84328
1.84384
1.40001
1.40001
1.40001
1.84208
1.40001
1.40001
1.40001
1.84345
1.84581
1.84466
1.40001
1.84538
1.40004
1.07278
1.84286
1.84257
1.40001
1.84034
1.82726
1.84151
1.40001
1.40001
1.84333
1.40001
1.63067
1.83861
1.40001
1.00154
1.40001
1.84368
1.40001
1.40001
1.83993
1.40001
1.40001
1.40001
1.53576
1.83794
1.04615
1.40002
1.84294
1.40001
1.40001
1.84134
1.40001
1.84307
1.40001
1.40001
1.84239
1.84164
1.40001
1.40006
1.40001
1.40001
1.40001
1.40001
1.40001
1.40001
1.8485
1.84148
1.40001
1.83529
1.03501
1.84917
1.40001
1.84192
1.83846
1.8424
1.83335
1.84149
1.40001
1.40001
1.83814
1.40001
1.66767
1.84413
1.8417
1.40001
1.8447
1.83571
1.40001
1.79601
1.40001
1.84214
1.68912
1.83946
1.39755
1.83907
1.79343
1.84227
1.84224
1.43487
1.84184
1.84357
1.40001
1.84129
1.40001
1.84201
1.40001
1.40001
1.40001
1.40001
1.39649
1.84153
1.84207
1.76161
1.40001
1.8397
1.40001
1.40001
1.40001
1.02317
1.40001
1.83241
1.40001
1.80235
1.81936
1.40001
1.40001
1.40001
1.81866
1.84309
1.40001
1.40001
1.84314
1.0392
1.46969
1.40001
1.84262
1.84112
1.80277
1.83219
1.84102
1.40001
1.83989
1.40001
1.40001
1.40001
1.40001
1.84023
1.84198
1.40001
1.82911
1.45043
1.84066
1.81234
1.40001
1.40001
1.81341
1.40001
1.40001
0.975259
1.70698
1.40001
1.40001
1.84561
1.40001
1.84403
1.80269
1.40001
1.80119
1.03871
1.84192
1.84179
1.84291
1.40001
1.00409
1.40001
1.40001
1.40001
1.8423
1.7598
1.40001
1.84588
1.84128
1.40001
1.8416
1.40001
1.40001
1.40001
1.40001
1.841
1.39943
1.40001
1.84333
1.40001
1.40001
1.84084
1.84176
1.40001
1.83846
1.48837
1.40003
1.40001
1.84154
1.40001
1.84118
1.40001
1.41459
1.84212
1.40001
1.84214
1.40001
1.40001
1.53138
1.84063
1.40001
1.40001
1.40001
1.40001
1.40001
1.39665
1.03036
1.06775
1.42063
1.40001
1.42181
1.40001
1.41284
1.40001
1.84208
1.40001
1.66682
1.40001
1.84217
1.40001
1.40001
1.40001
1.84194
1.40001
1.76433
1.84158
1.40001
1.62929
1.84123
1.40001
1.40001
1.84191
1.84191
1.40001
1.40001
1.43422
1.01922
1.40001
1.84404
1.40001
1.40001
1.40001
1.40001
1.4746
1.84178
1.40001
1.40001
1.40001
0.96744
1.40001
1.84228
1.84189
1.85318
1.40001
1.40001
1.40001
1.40001
1.6232
1.84182
1.40001
1.40001
1.40001
1.84261
1.84147
1.44149
1.40001
1.40001
1.40001
1.84329
1.84139
1.40001
1.01202
1.84153
1.84157
1.84227
1.84297
1.84589
1.40001
1.40001
1.84372
1.84411
1.84178
0.966844
1.43883
1.84216
1.40001
1.40001
1.40001
1.40001
1.40001
1.84103
1.03772
1.40001
1.40001
1.84137
1.60172
1.40001
1.84152
1.40001
1.40001
1.40001
1.01056
1.40001
1.40001
1.51645
1.84189
1.84208
1.40001
1.84596
1.84156
1.40001
1.47242
1.40001
1.84651
1.40001
1.84077
1.03994
1.40001
1.40001
1.40001
1.40001
1.84156
1.40008
1.40001
1.40001
1.40001
1.82143
1.40001
1.40001
1.40001
1.40001
1.84194
1.00908
1.75301
1.84374
1.40001
1.8417
1.40001
1.40001
1.40001
1.39708
1.40001
1.8387
1.40001
1.22125
1.40001
1.40001
1.40004
1.84206
1.04285
1.40001
1.84476
1.40001
1.84371
1.84158
0.999004
1.40001
1.40001
1.82252
1.40001
1.40001
0.931533
1.40001
1.85047
1.40001
1.82209
1.39929
1.84089
1.40001
1.40001
1.40001
1.40001
1.83817
1.40001
1.40001
1.84177
1.40001
1.40001
1.40001
1.40001
1.40001
1.40001
1.40001
1.40001
1.69194
1.40001
1.54087
1.84037
1.40001
1.40001
1.40001
1.01237
1.40001
1.40001
1.40001
1.40001
1.84152
1.84175
1.44692
1.40001
1.40001
1.843
1.40001
1.40001
1.84047
1.40001
1.40002
1.40001
1.40001
1.40001
1.40002
1.84074
1.18943
1.84156
1.84323
1.39701
1.40001
1.40001
1.40001
1.66293
1.40001
1.40001
1.84275
1.84157
1.40001
1.40001
1.40001
1.40001
1.07286
1.40001
1.40001
1.40001
1.68407
1.40001
1.8423
1.84442
1.40001
1.84252
1.40001
1.40001
1.40001
1.63582
1.40001
1.84
1.40001
1.84143
1.40001
1.40001
1.39623
1.8414
1.40001
1.40001
1.40001
1.40001
1.40001
1.84303
1.40003
1.40001
0.972652
1.84638
0.923962
1.40001
1.84053
1.40001
1.39615
1.40001
1.84306
1.83825
1.40001
1.84284
1.27689
1.84173
1.84791
1.40004
1.40001
1.40001
1.03316
1.40001
1.40001
1.40001
1.84201
1.65429
1.84651
1.40001
1.40001
1.40001
1.40001
1.39699
1.84044
1.40001
1.03857
1.40001
1.40001
1.40001
1.40001
1.40001
1.40001
1.40001
1.84888
1.84255
1.83687
1.40001
1.40001
1.39694
1.40001
1.3579
1.40001
1.40001
1.40001
1.06997
1.3692
1.40001
1.05443
1.01053
1.40001
1.84265
1.84132
1.40001
1.83863
1.84159
1.03548
1.70112
1.40001
1.40001
1.40001
1.04019
1.84169
1.40001
1.04068
1.40001
1.83891
1.46787
1.40001
1.40001
1.40001
1.40001
1.84158
1.83775
1.40001
1.40001
1.84187
1.40001
1.40001
1.84065
1.84171
1.40001
1.79528
1.84214
1.83964
1.3628
1.84059
1.40826
1.03729
1.73811
1.8416
1.40001
1.40001
1.40001
1.06928
1.40001
1.0302
1.83992
1.3413
1.8418
1.36821
1.40001
1.84084
1.60328
1.40001
1.40001
1.8404
1.40001
1.58583
1.84251
1.40001
1.40001
1.8414
1.84952
1.02839
1.65565
1.3999
1.40001
1.66888
1.40001
1.85042
1.35325
1.84441
1.84524
1.40001
1.40001
1.40001
1.40001
1.83156
1.40001
1.40001
1.84252
1.39963
1.84139
1.76123
1.84009
1.036
1.40001
1.40001
1.40001
1.40001
1.84177
1.40005
1.8423
1.40001
1.84085
1.84298
1.45712
1.84847
1.53283
1.84165
1.40001
1.70462
1.07545
1.84176
1.84189
1.75282
1.47343
1.83812
1.84165
1.84193
1.84175
1.40001
1.31312
1.46701
1.40001
1.84205
1.61252
1.84169
1.40004
1.40001
1.40001
1.04618
1.84701
1.83855
1.76089
1.40001
1.57502
1.40001
1.84046
1.83784
1.40001
1.84007
1.83912
1.40001
1.40001
1.40001
1.84011
1.40001
1.57309
1.84557
1.70807
1.40001
1.84049
1.40001
1.40001
1.40001
1.40001
1.40001
1.40001
1.40001
1.40001
1.40001
1.40001
1.02809
1.40001
1.82417
1.05705
1.66274
1.39858
1.84672
1.40001
1.62813
1.40002
1.68561
1.78323
1.40001
1.40182
1.83872
1.30945
1.40001
1.84214
1.84113
1.35327
1.40001
1.84093
1.84119
1.84282
1.40001
1.8417
1.83967
1.84083
1.40001
1.60127
1.40001
1.40006
1.84172
1.40001
1.84104
1.46593
1.84136
1.40001
1.40001
1.84571
1.84218
1.06861
1.40001
1.84241
1.73231
1.84101
1.40001
1.40001
1.83868
1.84188
1.39823
1.40001
1.78962
1.39686
1.84129
1.40006
1.40001
1.40001
1.40001
1.40001
1.60413
1.40001
1.74479
1.83953
1.72673
1.84223
1.40001
1.40546
1.40001
1.40001
1.84067
1.40001
1.83965
1.40001
1.40001
1.40001
1.40001
1.4
1.40001
1.45282
1.62494
1.40001
1.40001
1.11303
1.40001
1.84543
1.05608
1.84218
1.40001
1.61929
1.39975
1.8404
1.68356
1.04189
1.64188
1.40004
1.84133
1.8394
1.40001
1.66548
1.841
1.8401
1.39839
1.8477
1.82972
1.07814
1.40001
1.40001
1.39741
1.40001
1.842
1.40001
1.05591
1.84317
1.40001
1.40001
1.78629
1.40001
1.8402
1.40001
1.8425
1.40001
1.05845
1.40001
1.40001
1.84022
1.84549
1.84404
1.40001
1.84151
1.84171
1.84294
1.40001
1.40001
1.82807
1.4
1.13251
1.40001
1.40001
1.40001
1.84125
1.40001
1.84132
1.68979
1.83954
1.40001
1.84156
1.39937
1.40001
1.40001
1.40001
1.40001
1.40001
1.40001
1.0892
1.40001
1.40001
1.84155
1.40001
1.84181
1.84577
1.40001
1.03019
1.04142
1.40001
1.84347
1.47372
1.03673
1.00249
1.40001
1.84009
1.40001
1.84039
1.01103
1.40076
1.40001
1.40001
1.39953
1.40001
1.40001
1.40001
1.39992
1.58486
1.84169
1.40001
1.40001
1.84247
1.66387
1.40001
1.81412
1.84319
1.84397
1.5857
1.84087
1.40001
1.84164
1.40001
1.84184
1.40001
1.84294
1.84308
1.3972
1.84041
1.84257
1.40001
1.40001
1.40001
1.40001
1.40001
1.31151
1.83745
1.40005
1.40003
1.11252
1.39999
1.04576
1.0335
1.40001
1.83966
1.84226
1.84156
1.40001
1.8422
1.40001
1.041
1.40001
1.40001
1.83959
1.22836
1.84343
1.40001
1.84143
1.40001
1.37818
1.84247
1.40001
1.40001
1.40001
1.84158
1.40001
1.84129
1.02978
1.40001
1.40001
1.65664
1.40001
1.40001
1.63848
1.40001
1.40001
1.84187
1.40001
1.40001
1.40001
1.40001
1.40001
1.8394
1.84195
1.40001
1.84057
1.8397
1.0331
1.60298
1.84082
1.40001
1.40001
1.79701
1.39891
1.40001
1.40001
1.84178
1.84013
1.69002
1.40001
1.84104
1.05163
1.82366
1.39994
1.40001
1.84158
1.40004
1.84005
1.77653
1.73466
1.40001
1.40001
1.84167
1.07868
1.11255
1.40001
1.84219
1.40001
1.8424
1.40001
1.66665
1.40001
1.40001
1.84103
1.68618
1.04073
1.40001
1.39833
1.40001
1.40001
1.42444
1.58491
1.8419
1.40001
1.84213
1.40001
1.40001
1.40001
1.40001
1.40001
1.40001
1.46487
1.04203
1.40001
1.40001
1.42363
1.40001
1.40001
1.40001
1.40001
1.40001
1.84149
1.40001
1.40001
1.84221
1.84203
1.71553
1.40001
1.40001
1.40001
1.23386
1.84027
1.71
1.40001
1.40001
1.40001
1.40001
1.84176
1.40001
1.40001
1.40001
1.84563
1.40001
1.40001
1.72092
1.85242
1.43323
1.15036
1.84657
1.71167
1.84317
1.40001
1.61654
1.40001
1.40001
1.40001
1.05958
1.40186
1.12506
1.40001
1.0579
1.02155
1.40001
1.03041
1.40001
1.40001
1.40001
1.59473
1.40001
1.84289
1.84118
1.40084
1.61113
1.77185
1.09367
1.16738
1.27263
1.40001
1.84158
1.83948
1.84166
1.842
1.7795
1.27298
1.40001
1.78331
1.40001
1.8336
1.40001
1.40001
1.39645
1.40941
1.40001
1.40001
1.40001
1.84008
1.40001
1.09943
1.40001
1.84362
1.0177
1.40001
1.40001
1.84206
1.40001
1.84159
1.39961
1.40001
1.40001
1.84239
1.78817
1.40001
1.85114
1.40001
1.40001
1.41394
1.40001
1.59893
1.40001
1.40001
1.02966
1.40001
1.40001
1.84333
1.4
1.84291
1.40001
1.40004
1.06579
1.40001
1.40001
1.06169
1.40081
1.40001
1.84087
1.0047
1.84588
1.03057
1.84228
1.40001
1.40001
1.40001
1.40001
1.40001
1.40001
1.40001
1.40001
1.40001
1.40001
1.40001
1.82292
1.40001
1.84351
1.83886
1.04192
1.40001
1.40001
1.40001
1.40001
1.40001
1.40001
1.82985
1.40001
1.40001
1.04262
1.40001
1.40001
1.84011
1.40001
1.40001
1.57076
1.77021
1.01801
0.99327
1.11698
1.14101
1.40001
1.39635
1.11826
1.4004
1.82152
1.39682
1.40001
1.40001
1.83942
1.40001
1.40001
1.40001
1.18775
1.40002
1.55796
1.40001
1.40001
1.57575
1.84232
1.40001
1.07673
1.40001
1.40001
1.40001
1.39658
1.40001
1.84148
1.84159
1.40001
1.0638
1.40001
1.63866
1.04928
1.40001
1.25957
1.40001
1.39589
1.0192
1.40001
1.40001
1.40001
1.39613
1.05637
1.40001
1.06851
1.39839
1.62983
1.80949
1.00535
1.0234
1.40001
1.39069
1.40001
1.39868
1.40001
1.84125
1.84254
1.40001
1.40894
1.84029
1.84127
1.40001
1.40001
1.84155
1.40001
1.40001
1.40005
1.40001
1.84197
1.40001
1.40001
1.41803
1.40001
1.39859
1.08934
1.40001
1.40001
1.40001
1.40001
1.40001
1.84656
1.42382
1.40006
1.40001
1.40001
1.40001
1.40001
1.40001
1.40004
1.40001
1.03722
1.50147
1.39867
1.83352
1.8387
1.40001
1.41461
1.84067
1.78804
1.40001
1.40001
1.03651
1.8417
1.40001
1.84002
1.40001
1.84301
1.70894
1.03417
1.40001
1.04433
1.80178
1.3997
1.40001
1.03795
1.03918
1.40001
1.40001
1.7727
1.40001
1.4
1.02901
1.40001
1.40001
1.40001
1.54258
1.40001
1.04336
1.8406
1.40001
1.40001
1.40001
1.40001
1.84264
1.40001
1.40001
1.84536
1.79443
1.40001
1.40001
1.40001
1.84544
1.05363
1.40001
1.84005
1.84138
1.40001
1.75331
1.4
1.40004
1.40001
1.40001
1.82563
1.41875
1.40001
1.0663
1.64377
1.40001
1.40001
1.39749
1.40001
1.40001
1.84011
1.40001
1.40001
1.40004
1.40001
1.83917
1.40001
1.40001
1.40001
1.40001
1.40001
1.40001
1.40002
1.59917
1.40001
1.84143
1.40001
1.40001
1.84346
1.40001
1.40001
1.40001
1.84144
1.84545
1.44645
1.40001
1.39764
1.40001
1.40001
1.40001
1.40001
1.83943
1.40001
1.40001
1.84211
1.0381
1.40001
1.40001
1.40001
1.40001
1.40001
1.40001
1.75678
1.40001
1.40001
1.84002
1.84129
1.40001
1.40001
1.40001
1.84008
1.84381
1.40001
1.39964
1.83794
1.40001
1.40001
1.40001
1.40002
1.10121
1.43025
1.39635
1.39611
1.40001
1.40001
1.06778
1.8421
1.40001
1.03482
1.40001
1.83897
1.82432
1.01815
1.3994
1.84163
1.83974
1.84355
1.40001
1.40001
1.32078
1.79846
1.77046
1.03919
1.40001
1.40001
1.40001
1.83965
1.84208
1.02573
1.39731
1.40001
1.84204
1.04866
1.40001
1.8402
1.02453
1.3832
1.4061
1.40001
1.8464
1.40001
1.40001
1.40001
1.40001
1.40001
1.40001
1.40013
1.8119
1.40001
1.40001
1.84795
1.40001
1.40001
1.40001
1.84151
1.40001
1.038
1.40001
1.40001
1.40001
1.55376
1.40001
1.40001
1.40001
1.40001
1.40001
1.18287
1.40001
1.01971
1.40001
1.84134
1.40009
1.25609
1.26161
1.40002
1.4044
1.62595
1.40001
1.40001
1.04778
1.84191
1.84122
1.84161
1.40001
1.03414
1.03346
1.40001
1.84194
1.40001
1.40001
1.40001
1.40001
1.40001
1.40004
1.40001
1.02658
1.68645
1.40001
1.40001
1.00834
1.39086
1.40001
1.40001
1.40001
1.40001
1.01782
1.40001
1.10565
1.40001
1.40001
1.84032
1.40001
1.40001
1.0395
1.40001
1.84214
1.40001
1.07922
1.40001
1.02484
1.40001
1.40805
1.84218
1.85324
1.40001
1.40001
1.8376
1.40001
1.40001
1.49708
1.39671
1.40001
1.39823
1.40001
1.8424
1.40001
1.08346
1.40002
1.83865
1.39897
1.40001
1.40001
1.20459
1.40001
1.39908
1.03907
1.84006
1.55837
1.40001
1.40001
1.30446
1.40001
1.40001
1.40001
1.21479
1.40001
1.40001
1.40001
1.84151
1.40001
1.03496
1.4
1.40001
1.40001
1.40001
1.02884
1.84223
1.80476
1.04569
1.40001
1.84899
1.40001
1.40001
1.84131
1.83925
1.77311
1.01594
1.39772
1.39926
1.40001
1.84121
1.40001
1.40001
1.40001
1.40001
1.84306
1.40004
1.40001
1.40001
1.84286
1.40001
1.40001
1.84145
1.06582
1.40001
1.40001
1.40001
1.03205
1.40001
1.4
1.4
1.39866
1.40001
1.40001
1.40001
1.40001
1.75339
1.40001
1.8413
1.84151
1.84421
1.84172
1.84083
1.84171
1.40001
1.84017
1.40001
1.84208
1.84163
1.40001
1.3989
1.07576
1.77885
1.39991
1.40001
1.40001
1.40001
1.40001
1.40038
1.40001
1.4728
1.40001
1.40001
1.40001
1.24082
1.84144
1.84254
1.84112
1.77862
1.39987
1.40001
1.42315
1.84064
1.39794
1.44865
1.39738
0.993489
1.40001
1.40003
1.40001
1.40001
1.40001
1.40001
1.40001
1.84219
1.03874
1.84274
1.84233
1.39528
1.04274
1.40001
1.40001
1.40001
1.84159
1.03171
1.78925
1.02
1.84212
1.84289
1.02522
1.84294
1.42288
1.40001
1.84373
1.18653
1.40001
1.39874
1.04936
1.40001
0.990649
1.40001
1.8417
1.84175
1.14395
1.40001
1.84149
0.988533
1.40001
1.04467
1.40001
1.84202
1.40001
1.40001
1.84101
1.40001
1.22574
1.40001
1.39964
0.983303
1.84505
1.39951
1.40001
1.08263
1.40001
1.40001
1.40001
1.40001
1.63347
1.40001
1.84259
1.40001
1.40001
1.84287
1.40001
1.40001
1.83969
1.40001
1.01421
1.40001
1.02823
1.40002
1.40001
1.40001
1.40001
1.40001
1.82341
1.65776
1.84198
1.40001
1.84142
1.81184
1.01813
1.07576
1.40001
1.40001
1.84315
1.40001
1.01915
1.40001
1.38424
1.40001
1.40001
1.84181
1.40001
1.83959
1.05623
1.84205
1.40001
1.07179
1.40001
1.40001
1.84022
1.84023
1.40001
1.40005
1.40001
1.84243
1.40001
1.40001
1.03063
1.39937
1.08438
1.40001
1.40001
1.40001
1.84321
1.8477
1.8405
1.40001
1.40001
1.0386
1.40001
1.83805
1.40001
1.40001
1.40001
1.81946
1.84162
1.84173
1.01758
1.84211
1.84177
1.04538
1.84085
1.40005
1.03819
1.41543
1.40001
1.40001
1.84086
1.01975
1.68283
1.02703
1.8419
1.39733
1.02763
1.84271
1.40001
1.40001
1.40001
1.40001
1.84164
1.83817
1.03685
1.40001
1.40003
1.03429
1.40004
1.40001
1.05486
1.12043
1.70654
1.84165
1.39845
1.84211
1.40001
1.83698
1.22194
1.03593
1.84241
1.85161
1.40001
1.84218
1.40001
1.40001
1.84216
1.40001
1.73757
1.84078
1.40001
1.40001
1.40001
1.40001
1.84151
1.83696
1.84066
1.40001
1.40001
1.8398
1.84223
1.84136
1.40001
1.84168
1.40001
1.40001
1.40001
1.40001
1.40001
1.03439
1.22922
1.07514
1.40001
1.40001
1.84073
1.40001
1.40001
1.84817
1.03551
1.40001
1.84208
1.83712
1.82279
1.0401
1.40001
1.01951
1.40001
1.40003
1.8387
1.61468
1.83875
1.80526
1.40001
1.03757
1.40001
1.84326
1.7167
1.03087
1.40001
1.40001
1.40001
1.20219
1.40001
1.40001
1.84302
1.40001
1.00123
1.842
1.40001
1.40001
1.40001
1.40001
1.40001
1.75543
1.50244
1.40001
1.84217
1.40001
1.83985
1.40001
1.39668
1.40001
1.84339
1.84022
1.8424
1.84413
1.3996
1.83975
1.40001
1.84221
1.84325
1.77384
1.40001
1.40001
1.06706
1.83878
1.40001
1.40001
1.84821
1.84195
1.83959
1.40001
1.8425
1.40001
1.40001
1.40004
1.83922
1.84305
1.52799
1.49694
1.8418
1.84231
1.0827
1.40001
1.40001
1.40001
1.40001
1.40003
1.56075
1.40001
1.40001
1.78038
1.08176
1.39999
1.40001
1.84213
1.3999
1.39982
1.46397
1.78853
1.83754
1.28321
1.40001
1.0693
1.40001
1.40226
1.84157
1.84545
1.84224
1.39899
1.40001
1.40001
1.02912
1.40001
1.40001
1.84183
1.44785
1.40001
1.40001
1.40001
1.40001
1.40001
1.40001
1.40001
1.39994
1.8397
1.40002
1.40001
1.40001
1.40001
1.40001
1.68897
1.40001
1.60776
1.40001
1.40001
1.84189
1.85094
1.03061
1.3988
1.40001
1.4
1.40001
1.04576
1.84164
1.84124
1.40001
1.40001
1.40001
1.40001
1.40001
1.40001
1.40001
1.40001
1.84187
1.83686
1.08027
1.45138
1.02866
1.40001
1.02658
1.40001
1.84196
1.52027
1.40001
1.40001
1.11095
1.40001
1.82333
1.20675
1.39681
1.04145
1.40001
1.40001
1.83967
1.40005
1.39725
1.00915
1.8412
1.84602
1.40001
1.40001
1.40001
1.40001
1.81238
1.40001
1.40001
1.84144
1.39895
1.84092
1.40004
1.40001
1.40001
1.01196
1.40001
1.40001
1.84176
1.03887
1.1738
1.03734
1.84152
1.39936
1.40001
1.83983
1.01169
1.06242
1.41417
1.40001
1.40001
1.84091
1.40004
1.60307
1.40001
1.40001
1.8385
1.02279
1.40001
1.40001
1.40014
1.84054
1.40012
1.82981
1.40001
1.40004
1.40001
1.40001
1.11532
1.40001
1.1847
1.40002
1.40001
1.84134
1.02302
1.40001
1.1554
1.18536
1.40001
1.40001
1.84305
1.40001
1.40001
1.40001
1.83985
1.84107
1.40006
1.81748
1.84114
1.14808
1.84184
1.82465
1.40001
1.40001
1.83338
1.4
1.40001
1.40001
1.40001
1.40001
1.84683
1.84166
1.40001
1.40001
1.40001
1.84323
1.40023