/*--------------------------------*- C++ -*----------------------------------*\
  =========                 |
  \\      /  F ield         | OpenFOAM: The Open Source CFD Toolbox
   \\    /   O peration     | Website:  https://openfoam.org
    \\  /    A nd           | Version:  12
     \\/     M anipulation  |
\*---------------------------------------------------------------------------*/
FoamFile
{
    format      ascii;
    class       volScalarField;
    location    "0.14";
    object      rho;
}
// * * * * * * * * * * * * * * * * * * * * * * * * * * * * * * * * * * * * * //

dimensions      [1 -3 0 0 0 0 0];

internalField   nonuniform List<scalar> 
22702
(
1.40001
1.40001
1.40001
1.40001
1.40001
1.40001
1.78026
1.40001
1.40001
1.08171
1.74378
1.78225
1.40001
1.40001
1.40001
1.40001
1.40001
1.40001
1.74311
1.40001
1.40001
1.40001
1.76762
1.15517
1.40001
1.10564
1.40001
1.75842
1.08064
1.15597
1.40001
1.78041
1.40001
1.40001
1.40001
1.40001
1.40001
1.76914
1.40001
1.40001
1.05731
1.40001
1.40001
1.40001
1.75634
1.40001
1.40001
1.40001
1.40001
1.13835
1.40001
1.15087
1.40001
1.7454
1.40001
1.77915
1.40001
1.40001
1.40001
1.40001
1.05842
1.40001
1.40001
1.06853
1.40001
1.20288
1.40001
1.40001
1.40001
1.06715
1.40001
1.78697
1.40001
1.40001
1.79659
1.83238
1.17666
1.78152
1.09572
1.40001
1.73313
0.968507
1.77678
1.76823
1.40001
1.40001
1.40001
1.40001
1.40001
1.07142
1.80209
1.40001
1.40001
1.1021
1.40001
1.40001
1.10032
1.40001
1.40001
1.40001
1.40001
1.40001
1.73339
1.14494
1.40001
1.40001
1.40001
1.40001
0.969277
1.40001
1.78741
1.74205
1.40001
1.40001
1.40001
1.40001
1.07827
1.40001
1.40001
1.40001
1.40001
1.40001
1.40001
1.40001
1.40001
1.40001
1.79031
1.40001
1.79416
1.74225
1.40001
1.7364
1.40001
1.05172
1.40001
1.09074
1.40001
1.40001
1.40001
1.40001
1.74243
1.40001
1.40001
1.40001
1.40001
1.79805
1.40001
1.42594
1.40001
1.40001
1.40001
1.40001
1.13891
1.40001
1.40985
1.40001
1.09468
1.40001
1.40001
1.40001
1.79537
1.40001
1.76802
1.40002
1.04623
1.78134
1.77023
1.40001
1.40001
1.40001
1.40001
1.77705
1.1006
1.40001
1.40001
1.40001
1.40001
1.40001
1.40001
1.76256
1.40001
1.75141
1.06427
1.77797
1.40001
1.15401
1.40001
1.1499
1.06526
1.40001
1.40001
1.40001
1.80712
1.40001
1.40001
1.78989
1.40001
1.78624
1.75383
0.993266
1.40001
1.40001
0.972385
1.40193
1.40001
1.40001
1.40001
1.40004
1.40001
1.05613
1.40001
1.40001
1.4
1.40001
1.7877
1.40001
1.40001
1.40001
1.40001
1.40001
1.40001
1.40001
1.07759
1.7962
1.76658
1.40001
1.40001
1.40001
1.40001
0.938989
1.40001
1.62164
1.40001
1.40001
1.10671
1.06216
1.40001
1.40001
1.40001
1.40001
1.39999
1.40001
1.40001
1.40001
1.40001
1.40001
1.4105
1.40001
1.40001
1.40001
1.40001
1.40001
1.41674
1.09452
1.40001
1.40001
1.40001
1.08484
1.40001
1.40001
1.40001
1.40001
1.40001
1.40001
1.40001
1.40001
1.10952
1.40001
1.05788
1.40001
1.40001
1.40001
1.40001
1.40001
1.78959
1.40001
1.10301
1.40001
0.934081
0.955793
1.40001
1.1596
1.40001
1.40001
1.40001
1.40001
1.40001
1.1559
1.40001
1.40001
1.40001
0.930387
1.40001
1.74198
1.10695
1.40001
1.40001
1.73422
1.40001
1.40001
1.40001
1.0427
1.40308
1.40001
0.939902
1.40001
1.40001
1.40001
1.40001
1.14175
1.40001
1.40001
1.4
1.40001
1.40001
1.40001
1.40001
1.40001
1.40001
1.40001
1.40001
1.40001
1.40001
1.40001
1.40001
1.73493
1.40001
1.80828
1.40001
1.40001
1.40001
1.15858
1.40001
1.79581
1.17611
1.40001
1.40001
1.40001
1.40001
1.78096
1.40001
1.40001
1.40001
1.77689
1.40001
1.40001
1.84134
1.77645
1.40001
1.40001
1.40001
1.40001
1.08929
1.40001
1.40001
1.40001
1.10377
1.40001
1.40001
1.40001
1.40001
1.40001
1.40001
1.40001
1.40001
1.40001
1.40001
1.30168
1.40001
1.7721
1.40001
1.40001
1.77613
1.77547
1.40001
1.40001
0.970972
1.40001
1.73326
1.40001
1.40001
1.40001
1.42825
1.06928
1.40001
1.76526
1.40001
1.40001
1.30229
1.30739
1.40001
1.13419
1.18318
1.40001
1.40001
1.40001
1.40001
1.40001
1.40001
1.40001
1.77538
1.40001
1.40001
1.25307
1.39088
1.74169
1.40001
1.79948
1.73577
1.11049
1.40001
1.40001
1.04815
1.40001
1.85493
1.40001
1.40001
1.40001
1.40001
1.4105
1.40001
1.40001
1.40001
1.40001
1.40001
1.40001
1.40001
1.40001
1.78492
1.40001
1.40001
1.40001
1.40001
0.961003
1.40001
1.40001
1.40001
1.40001
1.39999
1.40001
1.40001
1.40001
1.13168
1.83657
1.40001
1.40001
1.40001
1.83944
1.40001
1.40001
1.40001
1.40001
1.4093
1.40001
1.40001
1.40001
1.05611
1.40001
1.73299
1.40001
1.40001
1.40001
1.40001
0.969221
1.40001
1.40001
1.40001
1.40001
1.40925
1.73222
1.40001
1.61063
1.40001
1.40001
1.40001
1.40001
1.40001
1.4
1.40001
1.4
1.40001
1.40001
1.40001
1.40001
1.82507
1.40001
1.40001
1.39318
1.38791
1.40001
1.40001
1.40001
1.40001
1.40001
1.40001
1.40001
1.40001
1.40001
1.40001
1.72926
1.40001
1.40001
1.40001
1.40001
1.40001
1.40001
1.40001
1.40001
1.40001
1.40001
1.74984
1.40001
1.40001
1.40001
1.40001
1.40001
1.40001
1.40001
1.40001
1.40001
1.40001
1.40001
1.40001
1.40001
1.40001
1.40001
1.40001
1.40005
1.40001
1.40001
1.40001
1.46629
1.40001
1.40001
1.40001
1.40073
1.72823
1.39995
1.76764
1.40001
1.74489
1.40001
1.40001
1.15468
1.40001
1.40001
1.40001
1.55853
1.40001
1.089
1.04657
1.40001
1.40001
1.40001
1.40001
1.40001
1.10216
1.40001
1.40001
1.40001
1.76953
1.40001
1.40001
1.40001
1.40001
1.40001
1.40001
1.40001
1.40001
1.40001
1.40001
1.40001
1.40001
1.40001
1.40001
1.40001
1.40001
1.40001
1.40001
0.955705
1.40001
1.40001
1.40001
1.40001
1.40001
1.74042
1.40001
1.40001
1.40001
1.40001
1.40001
1.40001
1.40001
1.12692
1.40001
1.40001
1.40001
1.40001
1.40001
1.40001
1.4
1.74856
1.40001
1.40001
1.40001
1.39998
1.40001
1.40001
1.40001
1.40001
1.07349
1.73868
1.40001
1.40001
1.40001
1.40001
1.40001
1.40001
1.7941
1.40001
1.40001
1.40001
1.40001
1.40001
1.40001
1.40001
1.40001
1.40001
1.40001
1.40001
1.40001
1.40001
1.03591
1.40001
1.19202
1.40001
1.40001
1.40001
1.40001
1.14841
1.40001
1.40001
1.40001
1.40001
1.46072
1.40001
1.40001
1.3985
1.40001
1.40001
1.40001
1.40001
1.40001
1.40001
1.40001
1.4
1.40001
1.40001
1.40001
1.40001
1.40001
0.959861
1.40001
1.40001
1.40001
1.40001
1.40001
1.40001
1.40001
1.40001
1.40001
1.17412
1.40001
1.40001
1.40001
1.74024
1.40001
1.40001
1.40001
1.39355
1.40001
1.40001
1.40001
1.40001
1.40001
1.40001
1.40001
1.4
1.40001
1.40001
1.40001
1.40001
1.74427
1.40001
1.40001
1.40001
1.40001
1.76626
1.76009
1.40001
1.40001
1.40001
1.40001
1.40001
1.40001
1.40001
1.40001
1.40001
1.17834
1.40001
1.40001
1.79612
1.05562
1.40001
1.81137
1.40001
1.13415
1.40001
1.40001
1.18403
1.40001
1.40001
1.40001
1.40001
1.40001
1.40001
1.40001
1.40001
1.40001
1.40001
1.40001
1.40001
1.40001
1.40001
1.40001
1.40001
1.1482
1.40001
1.40001
1.40001
1.40001
1.40001
1.40001
1.40001
1.4
1.40001
1.40001
1.6267
1.40001
1.40001
1.40001
1.40001
1.40001
1.40001
1.40001
1.40001
1.04695
1.40001
1.40001
1.17462
1.04599
1.40001
1.40001
1.43988
1.40001
1.42452
1.40001
1.40001
1.40001
1.40001
1.2198
1.40001
1.20874
1.40001
1.34361
1.40001
1.40001
1.40001
1.75512
1.40001
1.40001
1.4
1.40001
1.40001
1.40001
1.40001
1.40001
1.40001
1.40781
1.40001
1.40001
1.11924
1.40001
1.40001
1.40001
1.40001
1.74091
1.74109
1.40001
1.40001
1.40001
1.04724
1.40001
1.40001
1.40001
1.40001
1.15315
1.40001
1.40001
1.40001
1.40001
1.40001
1.40001
1.40001
1.40001
1.40001
1.40001
1.40001
1.78242
1.09638
1.40001
1.40001
1.18903
1.16135
1.40001
1.40001
1.40001
1.40001
1.40001
1.40001
1.40001
1.40001
1.40001
1.40001
1.40001
1.40001
1.40001
1.76824
1.4
1.40001
1.40001
1.05697
1.40001
1.40001
1.40001
1.40001
1.40001
1.40001
1.40001
1.40001
1.40001
1.40001
1.05617
1.40001
1.77699
1.40001
1.40001
1.75812
1.40001
1.40001
1.83948
1.40001
1.09428
1.40001
1.40001
1.40001
1.40001
1.40001
1.40001
1.40001
1.80857
1.39999
1.40001
1.40001
1.40001
1.40001
1.40001
1.08461
1.4
1.14764
1.40001
1.40001
1.40001
1.40001
1.40001
1.60505
1.40001
1.49542
1.40001
1.40001
1.40001
1.40001
1.40001
1.13204
1.4
1.40001
1.09467
1.25367
1.24222
1.40001
1.40001
1.40001
1.40001
1.4
1.40001
1.40001
1.40001
1.40001
1.40001
1.40001
1.40001
1.40001
1.39999
1.40001
1.40001
1.40001
1.40001
1.40001
1.79511
1.377
1.40001
1.3746
0.960243
0.957836
1.39689
1.76467
1.40001
1.40001
1.40001
1.4
1.40001
1.40001
1.77344
1.79515
1.40001
1.83673
1.40001
1.40001
1.10194
1.76366
1.76244
1.81747
1.4
1.39165
1.39998
1.40001
1.43625
1.40001
1.73386
1.40001
1.40001
1.40001
1.75472
1.40001
1.05317
1.77918
1.39999
1.40001
1.40001
1.40001
1.40001
1.4
1.13685
1.40103
1.76907
1.73725
1.40003
1.40001
1.40001
1.40001
1.39999
1.40001
1.40001
1.40001
1.15981
1.40028
1.40001
1.40001
1.40001
1.40001
1.74847
1.40001
1.40001
1.40001
1.40001
1.17484
1.72541
0.950532
1.40001
1.40001
1.40001
1.07996
1.40001
1.31181
1.40001
1.4
1.40001
1.40001
1.40001
1.40001
1.40001
1.40001
1.14449
1.40001
1.40001
1.40001
1.38597
1.40001
1.18136
1.40001
1.41455
1.28443
1.40001
1.12067
1.40001
1.40001
1.40001
1.78478
1.40001
1.40001
1.40001
1.40001
1.25419
1.40001
1.75738
1.40001
1.40001
1.40001
1.40001
1.40001
1.40001
1.73333
1.40001
1.40001
1.09535
1.40001
1.40001
1.40001
1.40001
1.75102
1.40001
1.75686
1.40001
1.40001
1.74559
1.40001
1.40001
1.4
1.40001
1.40001
1.40001
1.73215
1.40001
1.40001
1.40001
1.40001
1.40001
1.40001
1.40001
1.40001
1.40001
1.40001
1.05227
1.40001
1.04013
1.40001
1.40001
1.40001
1.78729
1.40001
1.40001
1.40001
1.40001
1.40001
1.4
1.40001
1.40001
1.71797
1.70669
1.20063
1.62539
1.78023
1.40001
1.40001
1.40001
1.40001
1.40001
1.77581
1.77866
1.40001
1.82253
1.73337
1.73548
1.40001
1.40001
1.40001
1.40001
1.40001
1.40001
1.40001
1.40001
1.40001
1.40001
1.05203
1.40001
1.40001
1.40001
1.7597
1.40001
1.40001
1.40001
1.79659
1.4
1.40001
1.40001
1.40001
1.40001
1.40001
1.40001
1.40001
1.40001
1.70548
1.73185
1.40001
1.39965
1.40001
1.74047
1.7391
1.75062
1.40001
1.74063
1.72762
1.40001
1.75327
1.40001
1.40001
1.40001
1.71522
1.40228
1.75822
1.40001
1.70601
1.40001
1.40001
1.70415
1.41744
1.06551
1.7477
1.40223
1.40001
1.40001
1.40001
1.40001
1.40001
1.40001
1.40001
1.40001
1.40001
1.40032
1.40001
1.40001
1.40001
1.40001
1.40965
1.4
1.40001
1.40001
1.40001
1.40001
1.40001
1.40001
1.40001
1.4
1.40001
1.74669
1.4
1.40001
1.40001
1.40001
1.65309
1.40001
1.40001
1.40001
1.40001
1.78597
1.76918
1.40001
1.40001
1.15292
1.39998
1.40004
1.40001
1.40001
1.23009
1.7016
1.40004
1.40001
1.40001
1.05125
1.74611
1.41188
1.05591
1.17739
1.40001
1.40001
1.40059
1.40001
1.40001
1.40001
1.40001
1.75407
1.40001
1.40001
1.40001
1.40001
1.4
1.40001
1.67317
1.40001
1.78755
1.74445
1.40001
1.40001
1.0572
1.40001
1.42645
1.76808
1.40001
1.40001
1.40001
1.83135
1.40001
1.51156
1.80251
1.33123
1.40001
1.40001
1.39994
1.40001
1.40001
1.40001
1.40824
1.83018
1.40001
1.40001
1.40001
1.40001
1.40001
1.40001
1.69484
1.71099
1.37987
1.40001
1.40001
1.40001
1.76873
1.79656
1.67453
1.40001
1.40001
1.40001
1.40001
1.40001
1.73455
1.73264
1.40001
1.40001
1.73353
1.40001
1.40001
1.40001
1.75289
1.40001
1.40001
1.40001
1.40001
1.84595
1.40001
1.40001
1.40001
1.76317
1.40001
1.80604
1.40001
1.40001
1.75265
1.41009
1.40001
1.40001
1.4
1.40001
1.75896
1.79267
1.75848
1.40001
1.40001
1.40001
1.40001
1.39999
1.40001
1.84854
1.40001
1.40001
1.40001
1.40001
1.40001
1.40001
1.40001
1.40001
1.40001
1.40001
1.40001
1.40001
1.40001
1.77465
1.40001
1.40001
1.40001
1.40001
1.40001
1.74051
1.40001
1.40001
1.40001
1.40001
1.71946
1.4
1.40001
1.40001
1.40002
1.40001
1.40001
1.40001
1.40001
1.40001
1.40001
1.40001
1.84749
1.40001
1.40001
1.40001
1.40001
1.45188
1.40001
1.82162
1.7814
1.40001
1.40001
1.39987
1.40001
1.40001
1.40001
1.08284
1.40001
1.40001
1.77239
1.40001
1.788
1.40001
1.40001
1.40001
1.18985
1.41595
1.73158
1.40001
1.40001
1.40001
1.40001
1.40001
1.39984
1.40001
1.40001
1.77988
1.40001
1.40001
1.40001
1.07434
1.40001
1.40001
1.40001
1.40001
1.4
1.40001
1.40001
1.84071
1.40001
1.40001
1.40001
1.40001
1.40001
1.73672
1.40001
1.40001
1.40001
1.40001
1.15056
1.09461
1.40001
1.40001
1.40001
1.40001
1.39943
1.40001
1.4
1.40001
1.40001
1.40001
1.40001
1.40001
1.78725
1.40001
1.40001
1.40001
1.8058
1.40001
1.83393
1.40001
1.40001
1.40001
1.40001
1.40001
1.4
1.40001
1.07557
1.40001
1.40001
1.73627
1.76704
1.40001
1.12576
1.40001
1.40001
1.40001
1.40001
1.40001
1.40001
1.40001
1.7153
1.40001
1.40001
1.40001
1.40001
1.71925
1.40001
1.7159
1.40001
1.39931
1.52941
1.40001
1.40001
1.40001
1.40001
1.40001
1.40001
1.40001
1.40001
1.40001
1.40001
1.40001
1.40001
1.40001
1.40001
1.40001
1.4
1.40001
1.40001
1.40001
1.40001
1.7287
1.40001
1.74067
1.40001
1.73456
1.40001
1.40001
1.40001
1.40001
1.40001
1.40001
1.40001
1.40001
1.40001
1.40001
1.40001
1.40001
1.40001
1.40001
1.40001
1.40001
1.40001
1.40001
1.40001
1.40001
1.40001
1.40001
1.40001
1.40001
1.40001
1.40001
1.40001
1.34097
1.39965
1.40001
1.39999
1.40001
1.40001
1.40001
1.40001
1.40521
1.148
1.40001
1.3999
1.40001
1.40001
1.39832
1.40001
1.40001
1.40001
1.40001
1.40001
1.77565
1.40001
1.79471
1.14079
1.40001
1.40001
1.73221
1.51116
1.40001
1.40001
1.40001
1.40001
1.31233
1.15183
1.40001
1.72639
1.39998
1.40001
1.40001
1.40001
1.40001
1.40001
1.39998
1.40001
1.40001
1.11042
1.40001
1.40001
1.73861
1.40001
1.40001
1.40001
1.74309
1.40001
1.40001
1.40001
1.40001
1.79295
1.40001
1.40001
1.58896
1.40001
1.40001
1.4
1.05674
1.75598
1.40001
1.40001
1.40001
1.77978
1.40001
1.40001
1.40001
1.78708
1.40001
1.40001
1.21022
1.40001
1.40001
1.40001
1.40001
1.40001
1.40001
1.40001
1.40001
1.40001
1.14365
1.40001
1.40001
1.40001
1.40001
1.40001
1.40001
1.82272
1.83011
1.40001
1.40001
1.65878
1.40001
1.40001
1.741
1.40001
1.40001
1.40001
1.40001
1.73131
1.40001
1.40001
1.40001
1.82233
1.40001
1.40001
1.40001
1.81918
1.40001
1.40001
1.40001
1.73155
1.8245
1.39998
1.40001
1.40001
1.40001
1.39641
1.75396
1.83156
1.40001
1.83884
1.40001
1.78316
1.40001
1.40001
1.80234
1.40001
1.40001
1.81879
1.40001
1.11125
1.40001
1.40001
1.40001
1.40001
1.40001
1.40001
1.40001
1.40001
1.40001
1.82312
1.38475
1.40001
1.40001
1.40001
1.40001
1.71546
1.40001
1.77056
1.40001
1.40001
1.40001
1.52546
1.40001
1.40001
1.40001
1.40001
1.40001
1.40001
1.40001
1.40001
1.40001
1.40001
1.40001
1.77328
1.14871
1.40001
1.40001
1.40001
1.78995
1.40001
1.40001
1.8374
1.40001
1.40001
1.40001
1.40001
1.70405
1.77532
1.39999
1.40001
1.81507
1.40001
1.40001
1.75909
1.40001
1.40001
1.40001
1.40001
1.40001
1.40001
1.78854
1.80187
1.40001
1.40001
1.40001
1.40112
1.40001
1.40001
1.40001
1.72635
1.40001
1.40001
1.40001
1.40001
1.40001
1.40001
1.59149
1.50558
1.40001
1.8046
1.40001
1.40001
1.40001
1.39999
1.40001
1.78141
1.40001
1.40001
1.63357
1.40001
1.40001
1.40001
1.40001
1.79091
1.40001
1.40001
1.40001
1.14665
1.40001
1.40001
1.76234
1.4007
1.40001
1.80312
1.40193
1.40001
1.40001
1.40001
1.40001
1.40001
1.40001
1.40001
1.40081
1.40001
1.40001
1.40001
1.74735
1.40001
1.40001
1.40001
1.40001
1.40001
1.40001
1.06969
1.69657
1.40001
1.40001
1.40001
1.40001
1.41602
1.74644
1.40001
1.75756
1.13821
1.7439
1.40001
1.40001
1.40001
1.09539
1.40001
1.40001
1.40001
1.80753
1.40001
1.40001
1.40001
1.78348
1.40001
1.40001
1.40001
1.40001
1.40001
1.40001
1.57702
1.40001
1.40001
1.40001
1.40001
1.40001
1.80336
1.40001
1.40001
1.82372
1.40001
1.40001
1.40001
1.40001
1.40001
1.40001
1.40001
1.40001
1.4
1.40001
1.40001
1.40001
1.40001
1.40003
1.78195
1.40001
1.40001
1.40001
1.40001
1.40001
1.40001
1.1914
1.14745
1.42034
1.40001
1.40001
1.40001
1.40001
1.40001
1.40001
1.40001
1.66718
1.40001
1.40001
1.40001
1.40001
1.40001
1.40001
1.40001
1.40001
1.4
1.40001
1.39998
1.59444
1.40001
1.40001
1.78767
1.40001
1.40001
1.40001
1.40001
1.28668
1.40001
1.43768
1.40001
1.40001
1.40001
1.40001
1.40001
1.61454
1.40001
1.40001
1.40001
1.07778
1.40001
1.40001
1.75565
1.8391
1.40001
1.40001
1.40001
1.40001
1.40001
1.84218
1.40001
1.40001
1.40001
1.40001
1.40001
1.40001
1.40001
1.40001
1.40001
1.76141
1.40001
1.40001
1.10357
1.77288
1.40001
1.40001
1.40001
1.40001
1.40001
1.40001
1.40001
1.40001
1.40001
1.07224
1.44148
1.83247
1.40001
1.40001
1.40001
1.40001
1.40001
1.48804
1.14435
1.40001
1.40001
1.40001
1.39999
1.40001
1.40001
1.40001
1.40001
1.40001
1.11591
1.40001
1.40001
1.40001
1.79041
1.40001
1.40001
1.40001
1.40001
1.40001
1.40001
1.40001
1.40001
1.40001
1.79862
1.15334
1.40001
1.40001
1.40001
1.40001
1.40001
1.40001
1.40001
1.40001
1.40001
1.40001
1.40001
1.40001
1.40001
1.40001
1.40001
1.11956
1.40001
1.45923
1.40001
1.40001
1.40001
1.40001
1.40001
1.40001
1.40001
1.79678
1.40001
1.40001
1.40001
1.40001
1.40001
1.40001
1.07452
1.40001
1.40001
1.40001
1.40001
1.40001
1.08889
1.40001
1.40001
1.40001
1.40001
1.40001
1.09262
1.40001
1.83426
1.40001
1.40001
1.40001
1.40001
1.40001
1.40001
1.40001
1.40001
1.77481
1.40001
1.40001
1.40001
1.40001
1.40001
1.40001
1.40001
1.40001
1.40001
1.40001
1.40001
1.40001
1.40001
1.54688
1.75694
1.40001
1.40001
1.40001
1.19005
1.40001
1.40001
1.40001
1.40001
1.40001
1.40001
1.40001
1.40001
1.40001
1.40001
1.40001
1.40001
1.78223
1.40001
1.40001
1.40001
1.40001
1.40001
1.40001
1.4
1.39961
1.40001
1.40001
1.39726
1.40001
1.40001
1.40001
1.40001
1.40001
1.40001
1.4
1.40001
1.40001
1.40001
1.40001
1.40001
1.09188
1.40001
1.40001
1.40001
1.67368
1.40001
1.40001
1.39995
1.40001
1.40001
1.40001
1.40001
1.40001
1.40001
1.40001
1.73953
1.40001
1.40001
1.40001
1.40001
1.39642
1.40001
1.40001
1.40001
1.40001
1.40001
1.40001
1.40001
1.40001
1.40001
1.06862
1.40001
1.08991
1.40001
1.40001
1.40001
1.40001
1.40001
1.39998
1.40001
1.40001
1.40001
1.28969
1.40001
1.66812
1.40001
1.40001
1.40001
1.14336
1.40001
1.40001
1.40001
1.40001
1.40001
1.40001
1.40001
1.40001
1.40001
1.40001
1.40001
1.40001
1.40001
1.15599
1.40001
1.40001
1.40001
1.40001
1.40001
1.40001
1.40001
1.80515
1.40001
1.4439
1.40001
1.40001
1.40001
1.40001
1.40001
1.40001
1.40001
1.40001
1.11128
1.40001
1.40001
1.04428
1.18733
1.40001
1.40001
1.40001
1.40001
1.40001
1.40001
1.15058
1.69437
1.40001
1.40001
1.40001
1.16096
1.72449
1.40001
1.16356
1.40001
1.40001
1.40001
1.40001
1.40001
1.40001
1.40001
1.40001
1.77898
1.40001
1.40001
1.40001
1.40001
1.40001
1.76426
1.40001
1.40001
1.40001
1.40001
1.71224
1.40001
1.75458
1.40001
1.14554
1.40001
1.40001
1.40001
1.40001
1.40001
1.11177
1.40001
1.19448
1.40001
1.40001
1.40001
1.40001
1.40001
1.40001
1.40001
1.40001
1.40001
1.40186
1.40001
1.40001
1.40001
1.40001
1.40001
1.78145
1.40001
1.16931
1.40001
1.40001
1.40001
1.40001
1.40001
1.61647
1.40001
1.82138
1.40001
1.40001
1.40001
1.40001
1.40001
1.40001
1.40001
1.40001
1.40001
1.40001
1.78092
1.5586
1.40001
0.999503
1.40001
1.40001
1.40001
1.40001
1.77281
1.40001
1.40001
1.40001
1.71915
1.40001
1.45746
1.54668
1.40322
1.73295
1.40001
1.40001
1.07698
1.40001
1.40001
1.40001
1.40001
1.77733
1.40001
1.40001
1.40001
1.40001
1.34258
1.42899
1.40001
1.40001
1.4886
1.80861
1.40001
1.40001
1.40001
1.39988
1.40001
1.75948
1.78239
1.40001
1.39998
1.40001
1.40001
1.40001
1.40001
1.40001
1.75474
1.40001
1.40001
1.40001
1.40001
1.40001
1.40001
1.40001
1.40001
1.40001
1.70196
1.40001
1.40001
1.40001
1.40001
1.40001
1.40001
1.40001
1.40001
1.40001
1.40001
1.39978
1.40001
1.64065
1.07652
1.40001
1.40001
1.40001
1.40001
1.39998
1.40001
1.40001
1.40001
1.40001
1.40001
1.70564
1.32252
1.40001
1.40001
1.4
1.40001
1.40001
1.40001
1.78066
1.4574
1.40001
1.40001
1.74227
1.40001
1.40001
1.39998
1.40001
1.40001
1.77497
1.40001
1.71406
1.40001
1.40001
1.40001
1.40001
1.40001
1.40001
1.39798
1.40001
1.77665
1.40001
1.40001
1.40001
1.40001
1.72926
1.40001
1.40001
1.40001
1.40001
1.40001
1.40001
1.40006
1.40001
1.40001
1.40001
1.40001
1.39998
1.40001
1.5801
1.40008
1.40001
1.40001
1.40001
1.40349
1.40001
1.40001
1.72495
1.40001
1.40001
1.40001
1.40001
1.40001
1.40001
1.40001
1.40001
1.44151
1.4
1.40001
1.40001
1.08216
1.40001
1.40001
1.4
1.70199
1.40001
1.40001
1.40001
1.73739
1.40001
1.00375
1.40001
1.40002
1.39999
1.69662
1.40001
1.40001
1.40001
1.40001
1.40001
1.40001
1.40001
1.35821
1.40001
1.40001
1.39775
1.40001
1.40001
1.40001
1.03379
1.40001
1.40001
1.40001
1.40001
1.40001
1.4
1.40001
1.72755
1.40001
1.101
1.40001
1.40001
1.70228
1.40001
1.40001
1.40001
1.40001
1.40001
1.63729
1.40001
1.40001
1.40001
1.40001
1.13421
1.40001
1.40001
1.40001
1.73599
1.40001
1.40001
1.40001
1.40001
1.40001
1.40001
1.40001
1.40001
1.40001
1.40001
1.40001
1.40001
1.40001
1.15479
1.40001
1.40001
1.40001
1.40001
1.75083
1.40001
1.40001
1.03237
0.959282
1.40001
1.40001
1.40001
1.13574
0.952581
1.40001
1.40001
1.40001
1.40001
1.06856
1.40153
1.40001
1.40001
1.40001
1.40001
1.40001
1.40001
1.40001
1.40001
1.40001
1.40001
1.40001
1.39997
1.4
1.40001
1.39998
1.40001
1.78831
1.40001
1.40001
1.40001
1.40001
1.40001
1.78574
1.40001
1.40001
1.40001
1.39697
1.40001
1.40001
1.40001
1.40001
1.40001
1.40001
1.40001
1.39935
1.77042
1.40001
1.40001
1.06102
1.39999
1.08707
1.4003
1.40001
1.77798
1.74104
1.79387
1.40001
1.7495
1.40001
0.987955
1.40001
1.40001
1.40001
1.40001
1.40001
1.40001
1.70146
1.40001
1.4
1.77908
1.40001
1.40001
1.40001
1.40001
1.40001
1.77641
1.16987
1.40001
1.40001
1.40001
1.40001
1.40001
1.40001
1.40001
1.40001
1.7391
1.40001
1.40001
1.40001
1.40001
1.40001
1.40001
1.40001
1.40001
1.72599
1.40001
1.16136
1.40001
1.40001
1.40001
1.40001
1.40001
1.39895
1.40001
1.40001
1.40001
1.40001
1.39999
1.40001
1.77753
1.05167
1.40001
1.39988
1.40001
1.40001
1.40001
1.40001
1.40001
1.40001
1.40001
1.40001
1.40001
1.39868
1.08831
1.40001
1.80493
1.40001
1.40001
1.40001
1.40001
1.40001
1.40001
1.40001
1.40001
1.16091
1.40001
1.39899
1.40001
1.40001
1.40001
1.40001
1.40001
1.40001
1.68875
1.40001
1.40001
1.40001
1.40001
1.40001
1.40001
1.45977
1.14729
1.40001
1.40001
1.40001
1.40001
1.40001
1.40001
1.40001
1.40001
1.40001
1.40001
1.40001
1.77056
1.40001
1.40001
1.40001
1.40001
1.40001
1.21513
1.69807
1.40001
1.40001
1.40001
1.40001
1.40001
1.77987
1.40001
1.40001
1.40001
1.40001
1.40001
1.40001
1.46312
1.85513
1.4
1.14827
1.40001
1.40001
1.76762
1.40001
1.40001
1.40001
1.40001
1.40001
1.32287
1.40241
1.05909
1.40001
1.08228
1.0988
1.40001
1.15658
1.40001
1.40001
1.40001
1.40001
1.40001
1.78423
1.40001
1.40001
1.50764
1.40001
1.08822
1.40001
1.40001
1.40001
1.40001
1.73686
1.40001
1.40001
1.40001
1.28967
1.40001
1.40001
1.40001
1.40001
1.40001
1.40001
1.40001
1.40001
1.40001
1.40001
1.40001
1.72468
1.40001
1.08089
1.40001
1.40001
1.07424
1.40001
1.40001
1.40001
1.40001
1.40001
1.40185
1.40001
1.40001
1.40001
1.8072
1.40001
1.82963
1.40001
1.40001
1.40001
1.40001
1.53845
1.40001
1.40001
1.16461
1.40001
1.40001
1.40001
1.4
1.40001
1.40001
1.40001
1.09333
1.40001
1.40001
1.07393
1.40083
1.40001
1.74836
1.06977
1.40001
1.14345
1.77264
1.40001
1.40001
1.40001
1.40001
1.40001
1.40001
1.40001
1.40001
1.40001
1.40001
1.40001
1.40001
1.40001
1.40001
1.74003
1.14947
1.40001
1.40001
1.40001
1.40001
1.40001
1.40001
1.40001
1.40001
1.40001
0.964369
1.40001
1.40001
1.74854
1.40001
1.40001
1.56684
1.40001
1.07292
1.07238
1.40001
1.16998
1.40001
1.40001
1.05939
1.40027
1.77161
1.39833
1.40001
1.40001
1.78022
1.40001
1.40001
1.40001
1.40001
1.40001
1.55325
1.40001
1.40001
1.40001
1.40001
1.40001
1.16072
1.40001
1.40001
1.40001
1.40001
1.40001
1.40001
1.40001
1.40001
1.13201
1.40001
1.40001
1.12985
1.40001
1.40001
1.40001
1.39588
1.09723
1.40001
1.40001
1.40001
1.40001
1.09358
1.40001
1.11219
1.40001
1.40001
1.40001
1.02551
1.07313
1.40001
1.3909
1.40001
1.40001
1.40001
1.40001
1.40001
1.40001
1.40001
1.78042
1.40001
1.40001
1.40001
1.40001
1.40001
1.40001
1.40001
1.40001
1.40001
1.40001
1.40001
1.41207
1.40001
1.39866
1.40001
1.40001
1.40001
1.40001
1.40001
1.40001
1.40001
1.40001
1.40001
1.40001
1.40001
1.40001
1.40001
1.40001
1.40001
1.40001
1.16147
1.40001
1.39889
1.8212
1.40001
1.40001
1.41647
1.77944
1.40001
1.40001
1.40001
1.40044
1.80249
1.40001
1.73956
1.40001
1.40001
1.40001
1.15773
1.40001
1.12849
1.40001
1.40001
1.40001
1.1404
1.38954
1.40001
1.40001
1.40001
1.40001
1.4
1.11627
1.40001
1.40001
1.40001
1.39999
1.40001
1.15494
1.40001
1.40001
1.40001
1.40001
1.40001
1.40001
1.40001
1.40001
1.40001
1.40001
1.40001
1.40001
1.40001
1.40001
1.03695
1.40001
1.74359
1.40001
1.40001
1.40001
1.40001
1.40001
1.40001
1.40001
1.40001
1.40001
1.40001
1.09928
1.40001
1.40001
1.40001
1.40001
1.40001
1.40001
1.40001
1.40001
1.40001
1.40001
1.40001
1.77064
1.40001
1.40001
1.40001
1.40001
1.40001
1.40001
1.40001
1.40001
1.40001
1.40001
1.40001
1.40001
1.40001
1.40001
1.40001
1.40001
1.40001
1.40001
1.40001
1.40001
1.40001
1.40001
1.40001
1.40001
1.40001
1.73962
1.40001
1.40001
1.80595
0.960778
1.40001
1.40001
1.40001
1.40001
1.40001
1.40001
1.40001
1.40001
1.40001
1.40001
1.7465
1.40001
1.40001
1.40001
1.74926
1.40001
1.40001
1.39961
1.40001
1.40001
1.40001
1.40001
1.40001
1.08568
1.39999
1.40001
1.39622
1.40001
1.40001
1.39635
1.74239
1.40001
1.27068
1.40001
1.40001
1.40001
1.06939
1.40001
1.40001
1.76596
1.81257
1.40001
1.40001
1.40001
1.40001
1.43281
1.33981
1.40001
1.40001
1.40001
1.40001
1.39999
1.15346
1.39749
1.40001
1.79303
1.08191
1.40001
1.40001
1.02041
1.40001
1.40001
1.40001
1.40001
1.40001
1.40001
1.40001
1.40001
1.40001
1.40001
1.40011
1.40001
1.40001
1.40001
1.40001
1.40001
1.40001
1.40001
1.40001
1.40001
1.15606
1.40001
1.40001
1.40001
1.39998
1.40001
1.40001
1.40001
1.40001
1.40001
1.22074
1.40001
1.08466
1.40001
1.40001
1.40008
1.30461
1.32409
1.40001
1.40363
1.40001
1.40001
1.40001
1.16441
1.40001
1.40001
1.40001
1.40001
1.17547
1.09304
1.40001
1.40001
1.40001
1.40001
1.40001
1.40001
1.40001
1.40001
1.40001
0.968249
1.57942
1.40001
1.40001
1.12672
1.40001
1.40001
1.40001
1.40001
1.40001
1.09115
1.40001
1.40001
1.40001
1.40001
1.40001
1.40001
1.40001
1.16474
1.40001
1.69255
1.40001
1.08863
1.40001
1.06771
1.40001
1.4083
1.40001
1.82138
1.40001
1.40001
1.75289
1.40001
1.40001
1.40001
1.39812
1.40001
1.39818
1.40001
1.76679
1.40001
1.0896
1.40001
1.83766
1.39884
1.40001
1.40001
1.40001
1.40001
1.40001
1.16852
1.40001
1.40001
1.40001
1.40001
1.40001
1.40001
1.40001
1.40001
1.40001
1.40001
1.40001
1.40001
1.40001
1.40001
1.15741
1.4
1.40001
1.40001
1.40001
0.940906
1.78412
1.40001
1.16277
1.40001
1.40001
1.40001
1.40001
1.40001
1.74969
1.40001
0.995688
1.40001
1.40001
1.40001
1.40001
1.40001
1.40001
1.40001
1.40001
1.40001
1.40001
1.40001
1.40001
1.78873
1.40001
1.40001
1.40001
1.12559
1.40001
1.40001
1.40001
0.958259
1.40001
1.40001
1.40001
1.40001
1.40001
1.40001
1.40001
1.40001
1.40001
1.40001
1.7711
1.72209
1.80332
1.81467
1.72199
1.40001
1.40001
1.40001
1.40001
1.51542
1.40001
1.40001
1.40001
1.13723
1.40001
1.39985
1.40001
1.40001
1.40001
1.40001
1.40001
1.40001
1.46846
1.40001
1.40001
1.40001
1.21291
1.40001
1.40001
1.40001
1.77945
1.40001
1.40001
1.40001
1.7179
1.40001
1.40001
1.39721
1.08222
1.40001
1.40001
1.40001
1.40001
1.40001
1.40001
1.40001
1.40001
1.14479
1.40001
1.40001
1.39572
1.08916
1.40001
1.40001
1.40001
1.40001
1.09959
1.40001
0.941775
1.68604
1.40001
1.09487
1.40001
1.42445
1.40001
1.41915
1.20537
1.40001
1.40001
1.22733
1.40001
1.06847
1.40001
1.40001
1.40001
1.12431
1.40001
1.75028
1.08251
1.40001
1.13769
1.40001
1.78722
1.40001
1.40001
1.40001
1.40001
1.28987
1.40001
1.39967
1.06921
1.40001
1.39958
1.40001
1.07432
1.40001
1.40001
1.40001
1.40001
1.64631
1.40001
1.40001
1.40001
1.40001
1.85767
1.40001
1.40001
1.76024
1.40001
1.07235
1.40001
1.0794
1.40001
1.40001
1.40001
1.40001
1.40001
1.40001
1.40487
1.40001
1.40001
1.40001
1.40001
1.08753
1.21044
1.40001
1.40001
1.40001
1.40001
1.07093
1.40001
1.40001
1.40001
1.40001
1.77822
1.40001
1.40001
1.10036
1.86166
1.40001
1.08245
1.40001
1.40001
1.40001
1.40001
1.40001
1.40001
1.40001
1.40001
1.40001
1.40001
1.40026
1.39939
1.07299
1.40001
1.40001
1.40001
1.40001
1.4
1.74014
1.40001
1.40001
1.37164
1.40001
1.40001
1.40001
1.40001
1.40001
1.40001
1.40001
1.78883
1.10044
1.76825
1.40001
1.24236
1.73515
1.40001
1.24524
1.40001
1.40001
1.40001
1.40001
1.12305
1.40001
1.12237
1.40001
1.39753
1.17029
1.39997
1.40001
1.40001
1.40001
1.40001
1.40001
1.75048
1.08709
1.40001
1.40001
0.998155
1.40004
1.40001
1.39868
1.0887
1.40001
1.40001
1.40001
1.79452
1.40001
1.40001
1.24246
1.13741
1.40001
1.85035
1.40001
1.40001
1.40001
1.40001
1.80527
1.40001
1.40001
1.73847
1.40001
1.40001
1.40001
1.40001
1.40001
1.40001
1.40001
1.40001
1.40001
1.40001
1.77769
1.79284
1.40001
1.40001
1.40001
1.40001
1.40001
1.40001
1.40001
1.15675
1.29807
1.09543
1.40001
1.40001
1.73841
1.40001
1.40001
1.75764
1.15564
1.40001
1.75332
1.40001
1.81825
1.15023
1.40001
1.13453
1.40001
1.40001
1.73801
1.40001
1.74229
1.40001
1.40001
1.26069
1.40001
1.40001
1.40001
1.08552
1.40001
1.40001
1.40001
1.40001
1.40001
1.40001
1.84968
1.40001
1.05919
1.40001
1.40001
1.40001
1.40001
1.40001
1.40001
1.40001
1.4007
1.40001
1.72428
1.40001
1.40001
1.40001
1.39999
1.40001
1.73004
1.40001
1.40001
1.77977
1.40001
1.74124
1.40001
1.40001
1.40001
1.40001
1.40001
1.40001
1.11103
1.78173
1.40001
1.40001
1.4
1.40001
1.40001
1.40001
1.78448
1.40001
1.40001
1.40001
1.40001
1.40001
1.52833
1.43147
1.40001
1.40001
1.40001
1.40001
1.40001
1.40001
1.40001
1.40002
1.40001
1.40001
1.40001
1.76895
1.07113
1.39998
1.40001
1.61552
1.40001
1.40001
1.40001
1.8181
1.7803
1.40001
1.40001
1.0822
1.40001
1.40001
1.40001
1.39999
1.40001
1.40001
1.40001
1.40001
1.1646
1.40001
1.40001
1.40001
1.44935
1.40001
1.40001
1.40001
1.40001
1.40001
1.40001
1.40001
1.39993
1.75269
1.40001
1.40001
1.40001
1.40001
1.40001
1.69011
1.40001
1.40001
1.40001
1.40001
1.40001
1.78142
1.13758
1.39876
1.40001
1.40001
1.40001
1.12814
1.74371
1.40001
1.40001
1.40001
1.40001
1.40001
1.40001
1.40001
1.40001
1.40001
1.79713
1.49244
1.11336
1.39996
0.968176
1.40001
1.09884
1.40001
1.72879
1.5418
1.40001
1.40001
1.40001
1.40001
1.7792
1.40001
1.39644
1.15254
1.40001
1.40001
1.83007
1.40001
1.39721
0.937428
1.7589
1.83702
1.40001
1.40001
1.40001
1.40001
1.40001
1.40001
1.40001
1.40001
1.40001
1.73658
1.40008
1.40001
1.40001
1.19684
1.40001
1.40001
1.72124
1.16168
1.40001
1.15855
1.81736
1.40001
1.40001
1.40001
1.01735
1.05652
1.40001
1.40001
1.40001
1.73962
1.40001
1.40001
1.40001
1.40001
1.739
1.06723
1.40001
1.40001
1.40015
1.73638
1.40012
1.4
1.40001
1.40001
1.40001
1.40001
1.40001
1.40001
1.16796
1.40001
1.40001
1.40001
1.16936
1.40001
1.40001
1.16266
1.40001
1.40001
1.72942
1.40001
1.40001
1.40001
1.76817
1.40001
1.40001
1.83753
1.73933
1.40001
1.40001
1.40001
1.40001
1.40001
1.40001
1.40001
1.40001
1.40001
1.40001
1.40001
1.83911
1.40001
1.40001