/*--------------------------------*- C++ -*----------------------------------*\
  =========                 |
  \\      /  F ield         | OpenFOAM: The Open Source CFD Toolbox
   \\    /   O peration     | Website:  https://openfoam.org
    \\  /    A nd           | Version:  12
     \\/     M anipulation  |
\*---------------------------------------------------------------------------*/
FoamFile
{
    format      ascii;
    class       volScalarField;
    location    "10.3";
    object      T;
}
// * * * * * * * * * * * * * * * * * * * * * * * * * * * * * * * * * * * * * //

dimensions      [0 0 0 1 0 0 0];

internalField   nonuniform List<scalar> 
9801
(
0.843675
0.844131
0.844101
0.844935
0.846124
0.848685
0.852346
0.854926
0.856623
0.857953
0.859199
0.860231
0.860226
0.860092
0.860851
0.861994
0.864136
0.867968
0.871008
0.87288
0.874315
0.875523
0.876542
0.876325
0.876015
0.876765
0.877985
0.879988
0.883945
0.887499
0.889614
0.891132
0.892387
0.893369
0.8926
0.892075
0.892871
0.894117
0.896077
0.900325
0.904381
0.90674
0.908347
0.909728
0.910452
0.909131
0.908545
0.909405
0.910813
0.913057
0.917798
0.922309
0.92484
0.926546
0.927918
0.928079
0.925873
0.925337
0.926481
0.928212
0.931524
0.937314
0.942044
0.944626
0.946294
0.947643
0.946801
0.943397
0.943245
0.944772
0.947048
0.952608
0.959924
0.964396
0.966977
0.968901
0.970286
0.966859
0.962885
0.963616
0.966247
0.971444
0.98124
0.988876
0.993155
0.996186
0.998701
0.997172
0.989773
0.988104
0.991884
0.998867
1.01426
1.0296
1.04185
1.05289
1.05197
1.14438
1.54468
0.847221
0.847786
0.847872
0.848653
0.849734
0.85224
0.856199
0.858884
0.860531
0.86179
0.862873
0.863687
0.86367
0.863647
0.864355
0.865401
0.867397
0.871429
0.874643
0.876527
0.87789
0.879016
0.87988
0.87967
0.879427
0.880115
0.881205
0.882992
0.887049
0.890799
0.892952
0.894423
0.895613
0.896473
0.89582
0.895333
0.89604
0.897164
0.898902
0.903128
0.907382
0.909812
0.911414
0.912715
0.913447
0.912265
0.911638
0.912401
0.913646
0.915581
0.92027
0.924955
0.927574
0.9293
0.930666
0.931001
0.929006
0.928393
0.929359
0.930882
0.933647
0.939437
0.944302
0.947017
0.948804
0.950304
0.949899
0.94678
0.946335
0.947671
0.949586
0.954433
0.961786
0.966734
0.969598
0.97163
0.973214
0.970469
0.966481
0.966932
0.969282
0.973122
0.98198
0.990296
0.995188
0.998698
1.00184
1.00205
0.995863
0.993228
0.996683
1.00253
1.01431
1.02725
1.03871
1.04937
1.04819
1.14424
1.56365
0.850928
0.851569
0.851765
0.852596
0.853673
0.85614
0.860223
0.862911
0.864499
0.865715
0.866745
0.867489
0.867495
0.867574
0.868318
0.869362
0.871224
0.875291
0.878624
0.880513
0.881861
0.882985
0.883857
0.88368
0.883447
0.884126
0.8852
0.886836
0.890795
0.894684
0.89688
0.898356
0.899567
0.90051
0.9
0.899475
0.900141
0.901269
0.902871
0.906868
0.91126
0.913768
0.915395
0.916724
0.917651
0.916728
0.915941
0.916625
0.917857
0.919587
0.92394
0.928802
0.931569
0.933364
0.934832
0.935656
0.93407
0.933094
0.933886
0.935336
0.937552
0.942897
0.948318
0.951329
0.95329
0.955028
0.955386
0.952643
0.95175
0.952901
0.954722
0.95812
0.965492
0.971553
0.974796
0.977045
0.979012
0.977626
0.973628
0.97331
0.975528
0.978597
0.98583
0.996158
1.00266
1.00665
1.01008
1.01168
1.00677
1.00325
1.00606
1.01187
1.02107
1.03443
1.04682
1.0591
1.06244
1.15907
1.58202
0.855701
0.856411
0.856673
0.857541
0.858607
0.860946
0.865066
0.867824
0.869436
0.870672
0.871728
0.872478
0.872465
0.872601
0.873367
0.874431
0.87618
0.88021
0.883713
0.885655
0.887027
0.888194
0.889107
0.888923
0.888674
0.889349
0.890442
0.891969
0.895749
0.899905
0.90224
0.903764
0.905036
0.90606
0.905667
0.905045
0.905661
0.906816
0.908317
0.911947
0.916689
0.919462
0.921168
0.922562
0.923682
0.922991
0.921908
0.922465
0.923732
0.925339
0.929191
0.934631
0.937846
0.939758
0.941311
0.942488
0.941116
0.939456
0.940114
0.941715
0.943749
0.948605
0.954962
0.958462
0.960553
0.962405
0.963371
0.960815
0.958991
0.959973
0.962011
0.964838
0.971591
0.979064
0.983086
0.985644
0.987967
0.988226
0.984025
0.982027
0.98404
0.98723
0.992238
1.00236
1.011
1.01607
1.01995
1.02314
1.02108
1.01643
1.01656
1.02202
1.02899
1.0401
1.05203
1.06342
1.0694
1.17691
1.59837
0.860901
0.861658
0.861916
0.862803
0.863876
0.866092
0.870261
0.873163
0.874816
0.876074
0.877158
0.877934
0.877898
0.878034
0.878811
0.879893
0.881524
0.885467
0.889257
0.891314
0.89272
0.893916
0.89486
0.894711
0.894431
0.895071
0.896155
0.897554
0.901004
0.905562
0.908175
0.909773
0.911085
0.912168
0.911946
0.91122
0.91172
0.912843
0.914254
0.917347
0.922496
0.925761
0.927613
0.92907
0.930305
0.929907
0.928534
0.928843
0.930084
0.931679
0.934949
0.940822
0.944697
0.946823
0.948466
0.94982
0.948961
0.946757
0.947012
0.948579
0.950539
0.954496
0.961367
0.965769
0.968164
0.970159
0.971804
0.97034
0.967339
0.967397
0.96935
0.971923
0.97713
0.985672
0.991193
0.994187
0.996718
0.998407
0.995347
0.991374
0.991651
0.99479
0.998746
1.00674
1.01717
1.02414
1.02875
1.03277
1.03398
1.02959
1.02677
1.0288
1.0348
1.04335
1.05451
1.06424
1.06946
1.18776
1.60746
0.866273
0.867006
0.867199
0.868088
0.869179
0.871244
0.87543
0.87855
0.880293
0.881587
0.882705
0.883559
0.883533
0.883584
0.88434
0.885431
0.886928
0.890648
0.894745
0.896997
0.89847
0.899699
0.900725
0.900693
0.900271
0.90083
0.901899
0.90323
0.906235
0.911051
0.914036
0.915781
0.917162
0.918364
0.918424
0.917393
0.917633
0.918716
0.920118
0.922777
0.928034
0.931824
0.933912
0.93549
0.936891
0.937072
0.9352
0.934872
0.936011
0.937638
0.940527
0.946416
0.950986
0.953389
0.95515
0.956737
0.956887
0.954276
0.95329
0.954503
0.956384
0.959511
0.96638
0.972158
0.975044
0.977117
0.979049
0.979078
0.975523
0.973847
0.97521
0.977634
0.981294
0.989383
0.99692
1.00103
1.00369
1.00599
1.00493
1.0001
0.998343
1.00027
1.00365
1.0088
1.01844
1.02721
1.03284
1.03731
1.04117
1.04025
1.03559
1.03403
1.03664
1.04222
1.05161
1.06146
1.06671
1.19536
1.61262
0.871312
0.872019
0.872081
0.872932
0.874035
0.875981
0.880121
0.883458
0.88528
0.886595
0.887739
0.888695
0.888731
0.888576
0.889246
0.89035
0.89182
0.895293
0.899583
0.902038
0.903583
0.904847
0.905965
0.906154
0.905409
0.905707
0.906765
0.908149
0.910928
0.915783
0.919074
0.920942
0.922385
0.923681
0.924218
0.922953
0.92252
0.923446
0.924868
0.927322
0.932517
0.936826
0.939095
0.9407
0.94215
0.942993
0.94139
0.940058
0.940769
0.942281
0.944601
0.950089
0.955645
0.958507
0.96031
0.961928
0.962945
0.960936
0.958831
0.95921
0.96087
0.963163
0.96879
0.975995
0.980062
0.982307
0.984215
0.985192
0.982301
0.979347
0.979574
0.981635
0.984247
0.98991
0.998956
1.00483
1.00815
1.01073
1.01213
1.00854
1.00436
1.00396
1.00638
1.00989
1.01679
1.02669
1.03417
1.03936
1.04359
1.04607
1.04363
1.03932
1.03836
1.04088
1.04657
1.05617
1.06298
1.20052
1.61606
0.875787
0.876513
0.876397
0.877159
0.878223
0.879962
0.883988
0.887609
0.889598
0.890988
0.892163
0.893217
0.893402
0.892932
0.893365
0.894386
0.895747
0.898968
0.9035
0.906214
0.907857
0.90917
0.910361
0.910949
0.910004
0.909776
0.910651
0.911934
0.914396
0.919357
0.923117
0.925144
0.926627
0.927951
0.928936
0.927899
0.926743
0.92726
0.928529
0.930467
0.935315
0.940466
0.943153
0.944827
0.946268
0.947458
0.946489
0.944554
0.944596
0.945833
0.947553
0.95169
0.958222
0.962214
0.9643
0.965933
0.967331
0.966289
0.9634
0.962907
0.964135
0.966014
0.969519
0.977081
0.982967
0.98593
0.987906
0.989468
0.988184
0.984278
0.98301
0.984178
0.986381
0.989558
0.997484
1.00596
1.01062
1.01367
1.0162
1.01613
1.01056
1.00734
1.00812
1.01089
1.01493
1.02316
1.0323
1.03865
1.04331
1.0473
1.04881
1.04588
1.04141
1.04027
1.04246
1.04918
1.05791
1.20516
1.61848
0.879607
0.880421
0.8801
0.880743
0.881745
0.883227
0.886971
0.890985
0.893178
0.89463
0.895843
0.896931
0.897349
0.896692
0.896852
0.897746
0.898959
0.901605
0.906373
0.909553
0.911311
0.912652
0.913854
0.914702
0.913899
0.913256
0.913867
0.915018
0.916847
0.921489
0.926069
0.928423
0.929955
0.931279
0.932416
0.931874
0.930283
0.930396
0.931449
0.932918
0.936521
0.94246
0.946106
0.94801
0.949481
0.950799
0.950621
0.948256
0.947601
0.948446
0.949934
0.952428
0.95877
0.964405
0.967194
0.968938
0.970442
0.970536
0.967472
0.965871
0.966507
0.968098
0.97021
0.975807
0.983722
0.988115
0.990521
0.992378
0.993178
0.989685
0.986163
0.985948
0.987541
0.989878
0.994481
1.00407
1.01148
1.01535
1.018
1.02003
1.01805
1.01241
1.01038
1.01163
1.0145
1.01939
1.02823
1.03631
1.04196
1.04624
1.04989
1.05043
1.0472
1.04218
1.04045
1.04272
1.051
1.20809
1.6201
0.882679
0.883615
0.88312
0.88363
0.884583
0.885852
0.889085
0.893556
0.896067
0.897548
0.898749
0.899831
0.900459
0.899809
0.899696
0.900471
0.901587
0.903524
0.908171
0.912064
0.914046
0.915415
0.916602
0.917579
0.917112
0.916075
0.916468
0.917508
0.918873
0.922446
0.927831
0.930885
0.93253
0.933845
0.935026
0.93506
0.93326
0.93288
0.933716
0.935013
0.937225
0.942932
0.947938
0.950387
0.951912
0.953236
0.953801
0.951602
0.949994
0.950499
0.951789
0.95348
0.957997
0.965065
0.969062
0.971136
0.972685
0.973788
0.971763
0.968696
0.968294
0.969347
0.97112
0.974164
0.982147
0.989184
0.992589
0.994787
0.996574
0.995526
0.990264
0.987928
0.988652
0.990675
0.993173
0.999327
1.00922
1.01538
1.01868
1.02136
1.02333
1.02029
1.01449
1.01308
1.01474
1.01792
1.0237
1.03243
1.03942
1.04447
1.0486
1.05167
1.05161
1.04773
1.04184
1.0391
1.04213
1.20734
1.62092
0.885164
0.886252
0.88559
0.885939
0.886822
0.887947
0.890446
0.895174
0.898235
0.899854
0.901081
0.902171
0.902989
0.902474
0.901981
0.902579
0.903609
0.905024
0.908952
0.913684
0.916124
0.917572
0.918781
0.919861
0.919892
0.918541
0.918503
0.919387
0.920592
0.922883
0.928352
0.932525
0.934535
0.935894
0.937109
0.937739
0.936118
0.934947
0.9355
0.936665
0.938176
0.942338
0.948621
0.952057
0.953842
0.955215
0.95631
0.955104
0.952507
0.952273
0.953307
0.954767
0.957188
0.963964
0.970039
0.972857
0.974597
0.97608
0.976001
0.972139
0.969901
0.970373
0.971955
0.973917
0.978889
0.988015
0.993613
0.996239
0.998091
0.999467
0.996941
0.991821
0.990397
0.991288
0.99324
0.99621
1.00406
1.01366
1.01917
1.02234
1.02491
1.02588
1.02179
1.01673
1.01589
1.01773
1.02119
1.02796
1.03642
1.04251
1.04687
1.05065
1.0528
1.05212
1.04729
1.04
1.03547
1.203
1.62126
0.887242
0.888512
0.887794
0.887898
0.888667
0.889698
0.891468
0.895995
0.899862
0.901768
0.903049
0.904154
0.905099
0.904906
0.904013
0.90432
0.905238
0.906412
0.909201
0.914486
0.917777
0.919429
0.920667
0.921786
0.922323
0.920978
0.920304
0.920963
0.922074
0.923571
0.927952
0.933428
0.93619
0.937709
0.938956
0.939989
0.939113
0.937126
0.937094
0.938063
0.939368
0.941703
0.947974
0.953119
0.955502
0.95699
0.9583
0.958521
0.955696
0.954087
0.954568
0.955811
0.957428
0.961718
0.969552
0.974172
0.976447
0.978057
0.979269
0.976963
0.972775
0.971985
0.973035
0.974667
0.976913
0.98377
0.992597
0.996992
0.999466
1.00158
1.00265
0.998314
0.993277
0.992538
0.993929
0.996163
0.999731
1.00845
1.01727
1.02204
1.02496
1.02755
1.02847
1.02402
1.01912
1.01851
1.0205
1.0243
1.03179
1.03969
1.04498
1.04894
1.05236
1.05357
1.05202
1.04444
1.03439
1.19561
1.62133
0.889117
0.890567
0.889962
0.889684
0.890277
0.891232
0.892539
0.896311
0.901019
0.903424
0.904813
0.905949
0.906967
0.907208
0.90604
0.905902
0.906677
0.90777
0.909597
0.914558
0.918979
0.921081
0.922412
0.923567
0.924479
0.923617
0.922197
0.922453
0.923412
0.924636
0.927339
0.933388
0.93745
0.939382
0.940718
0.941926
0.942153
0.939869
0.938782
0.939375
0.940512
0.941994
0.94638
0.953205
0.956801
0.958638
0.960036
0.961183
0.959627
0.956401
0.955895
0.956874
0.958324
0.960447
0.966994
0.974286
0.977601
0.97948
0.981064
0.981791
0.978084
0.974522
0.974212
0.975136
0.976847
0.979986
0.988681
0.99688
1.00061
1.00273
1.00452
1.00494
1.00009
0.995776
0.995391
0.996593
0.998763
1.00315
1.01261
1.02069
1.02518
1.02812
1.03052
1.03066
1.02596
1.02135
1.02076
1.02277
1.02682
1.03489
1.04239
1.04712
1.05071
1.05323
1.05393
1.04974
1.03869
1.18845
1.62158
0.890898
0.892455
0.89216
0.891432
0.891786
0.892676
0.8938
0.896552
0.901713
0.904885
0.906464
0.907633
0.908681
0.909319
0.908246
0.907528
0.908104
0.909127
0.910443
0.914177
0.919671
0.92258
0.924097
0.925295
0.926373
0.926336
0.924446
0.923974
0.924701
0.925824
0.927433
0.932437
0.938189
0.940937
0.942449
0.943703
0.94468
0.943231
0.940827
0.940711
0.941646
0.942954
0.945261
0.951795
0.957592
0.960229
0.961812
0.963157
0.963443
0.960148
0.957885
0.958112
0.959181
0.960711
0.964036
0.972236
0.978326
0.981125
0.983033
0.984617
0.983993
0.978789
0.975938
0.976271
0.977626
0.979489
0.983504
0.993071
1.00023
1.00342
1.00584
1.00799
1.00768
1.00175
0.997629
0.997596
0.999246
1.00173
1.00683
1.01632
1.02362
1.02772
1.03059
1.03293
1.03287
1.02776
1.02301
1.02239
1.02439
1.02873
1.03708
1.0442
1.04862
1.05191
1.05366
1.05269
1.04586
1.18438
1.62228
0.8926
0.894204
0.894311
0.893326
0.893369
0.894177
0.895234
0.897076
0.901883
0.906021
0.907982
0.90925
0.910344
0.911262
0.910727
0.909402
0.909605
0.910506
0.91164
0.913941
0.919609
0.923763
0.9257
0.92698
0.928119
0.928815
0.927209
0.925698
0.926045
0.927054
0.928324
0.931364
0.937933
0.942123
0.944071
0.945387
0.946583
0.946625
0.943728
0.942354
0.94295
0.944096
0.945502
0.949476
0.956982
0.961319
0.963386
0.964838
0.966155
0.965085
0.960998
0.959514
0.960089
0.96139
0.963175
0.968366
0.977229
0.982122
0.984285
0.985777
0.987202
0.985785
0.98054
0.978347
0.978618
0.979826
0.981826
0.987163
0.997537
1.00415
1.007
1.0089
1.01048
1.00948
1.00373
1.00025
1.00034
1.00183
1.00433
1.01038
1.0199
1.02645
1.0302
1.03294
1.03498
1.03454
1.02928
1.02443
1.02367
1.02547
1.02995
1.03845
1.04534
1.0495
1.05249
1.05311
1.05148
1.18467
1.62356
0.894224
0.895849
0.896351
0.895514
0.895127
0.895773
0.89675
0.897999
0.901641
0.906766
0.909448
0.910878
0.912026
0.913058
0.913226
0.911618
0.911192
0.911914
0.912997
0.914449
0.918855
0.924451
0.927192
0.928643
0.929806
0.93083
0.930264
0.927932
0.92754
0.92838
0.929555
0.931172
0.936415
0.942614
0.945497
0.94704
0.948278
0.949267
0.947615
0.944724
0.944355
0.945145
0.946378
0.948276
0.954416
0.961533
0.964863
0.96678
0.968202
0.969011
0.965874
0.96199
0.961506
0.962477
0.963851
0.965863
0.972607
0.981126
0.985131
0.987382
0.989241
0.990552
0.98741
0.981712
0.980076
0.980999
0.982607
0.984684
0.990705
1.00084
1.00643
1.00902
1.01133
1.01336
1.012
1.00576
1.00233
1.00261
1.0044
1.00721
1.01378
1.02279
1.02869
1.03228
1.03499
1.03699
1.03647
1.03063
1.02549
1.02462
1.02616
1.03053
1.03902
1.04577
1.05
1.05177
1.05474
1.18918
1.62548
0.895856
0.897515
0.898332
0.897988
0.897065
0.897368
0.8982
0.899243
0.90149
0.906897
0.910714
0.912494
0.913686
0.914744
0.915474
0.914259
0.913016
0.91343
0.914419
0.915578
0.918071
0.9241
0.928286
0.930198
0.931448
0.932579
0.933108
0.930975
0.929378
0.929786
0.930816
0.932033
0.934772
0.941678
0.946497
0.948623
0.949955
0.95119
0.951448
0.948216
0.946012
0.946311
0.947401
0.948755
0.951723
0.959536
0.96547
0.967964
0.969549
0.970964
0.9713
0.967196
0.963936
0.963712
0.964483
0.965907
0.968686
0.977103
0.985167
0.988593
0.990363
0.991756
0.99279
0.989294
0.984167
0.982884
0.983383
0.984647
0.986857
0.994033
1.00429
1.00972
1.01225
1.01421
1.01563
1.01398
1.0082
1.00495
1.00498
1.00649
1.00928
1.01665
1.02565
1.03127
1.03463
1.03709
1.03875
1.038
1.03191
1.02639
1.02525
1.02643
1.03051
1.03894
1.04591
1.0494
1.05542
1.19683
1.62789
0.897573
0.899263
0.900193
0.900429
0.899117
0.898882
0.899606
0.900644
0.902074
0.906346
0.911506
0.913993
0.915317
0.916416
0.917413
0.917163
0.915316
0.915047
0.915793
0.916833
0.918196
0.922681
0.928721
0.931619
0.93311
0.934263
0.935295
0.934534
0.93184
0.931279
0.932026
0.933157
0.934586
0.939247
0.946384
0.949955
0.951729
0.952943
0.954053
0.952715
0.948903
0.947873
0.94857
0.949707
0.951143
0.955514
0.963976
0.968827
0.971129
0.972824
0.974242
0.973249
0.967908
0.965244
0.965694
0.966991
0.968443
0.971605
0.980671
0.987868
0.990898
0.993116
0.995031
0.995688
0.991026
0.985651
0.984485
0.985554
0.987249
0.989747
0.997254
1.00687
1.01172
1.01422
1.0165
1.01825
1.01645
1.01015
1.00654
1.00662
1.00839
1.01155
1.01935
1.02804
1.03332
1.03658
1.03894
1.04049
1.03951
1.03306
1.02702
1.02538
1.02609
1.02994
1.03873
1.04513
1.05397
1.20549
1.63037
0.899268
0.900986
0.901898
0.902556
0.901472
0.900609
0.901129
0.902083
0.903161
0.905605
0.911326
0.915152
0.916925
0.918124
0.91921
0.919856
0.918221
0.916775
0.917093
0.918021
0.919167
0.921484
0.92778
0.932588
0.934669
0.935896
0.937027
0.937647
0.9353
0.933142
0.933332
0.934326
0.935495
0.937461
0.943983
0.950346
0.953041
0.954594
0.955835
0.956585
0.953698
0.950224
0.949786
0.950554
0.951759
0.953593
0.959752
0.968121
0.972086
0.973923
0.975244
0.976555
0.974988
0.969785
0.967739
0.967946
0.968847
0.97043
0.97461
0.984541
0.991413
0.994165
0.99575
0.99714
0.997723
0.993286
0.988329
0.987284
0.9879
0.989276
0.991917
1.00031
1.00994
1.01465
1.01695
1.01876
1.02012
1.01841
1.01242
1.00876
1.00854
1.00995
1.01307
1.02136
1.03025
1.03554
1.03853
1.04047
1.04177
1.04068
1.03416
1.02739
1.02493
1.02512
1.0294
1.03792
1.04954
1.21359
1.6323
0.900693
0.902616
0.903544
0.904459
0.904158
0.9027
0.902646
0.903357
0.904355
0.905727
0.910168
0.915809
0.918478
0.919843
0.920913
0.921882
0.921397
0.919026
0.918534
0.919291
0.920377
0.921638
0.925589
0.932348
0.935848
0.93753
0.938708
0.939829
0.939346
0.93609
0.934891
0.935417
0.936406
0.937637
0.940817
0.948597
0.953873
0.956182
0.957628
0.958863
0.958678
0.954301
0.951529
0.95175
0.952875
0.954114
0.95617
0.963524
0.971358
0.974742
0.976738
0.978402
0.979553
0.976495
0.9708
0.969115
0.969984
0.971415
0.973005
0.97744
0.987272
0.99335
0.996013
0.998216
1.00006
1.00036
0.995331
0.990051
0.9889
0.989968
0.991743
0.994643
1.003
1.01191
1.01617
1.01862
1.02085
1.02251
1.02076
1.01422
1.01012
1.00984
1.01132
1.01456
1.02294
1.03182
1.037
1.0398
1.04159
1.04274
1.04171
1.03529
1.02755
1.02394
1.02391
1.0283
1.04238
1.21912
1.63337
0.901752
0.904223
0.905217
0.906233
0.906723
0.905198
0.904155
0.904641
0.905616
0.90673
0.909122
0.915171
0.919455
0.921319
0.922469
0.923529
0.92418
0.922273
0.920418
0.920636
0.921509
0.92257
0.924282
0.930192
0.936348
0.938985
0.940412
0.941557
0.942396
0.940275
0.937019
0.936592
0.937449
0.9386
0.939987
0.944649
0.95276
0.957006
0.958964
0.960344
0.961529
0.960443
0.955765
0.953716
0.953954
0.954798
0.956126
0.959002
0.967519
0.974834
0.977823
0.979371
0.980562
0.981574
0.978404
0.973267
0.971886
0.972209
0.973153
0.974847
0.980322
0.990658
0.996642
0.999022
1.00052
1.00196
1.00244
0.9978
0.992686
0.991489
0.992032
0.993396
0.996436
1.00574
1.01481
1.01903
1.02115
1.02294
1.02431
1.02265
1.01632
1.01197
1.01135
1.01248
1.01529
1.02377
1.03306
1.03825
1.04079
1.04241
1.04348
1.04262
1.03645
1.02752
1.02249
1.02138
1.03275
1.21987
1.63343
0.902328
0.90586
0.906869
0.907869
0.90871
0.908119
0.906215
0.906096
0.906889
0.907917
0.909168
0.913283
0.919511
0.922556
0.924067
0.925172
0.92619
0.925891
0.923058
0.922023
0.922582
0.923599
0.924784
0.927693
0.934935
0.939887
0.941974
0.943172
0.944293
0.944457
0.940912
0.938463
0.938657
0.939604
0.940707
0.942381
0.94856
0.956386
0.95997
0.961865
0.963333
0.9644
0.96188
0.956647
0.955131
0.955961
0.957242
0.958545
0.961685
0.970622
0.97722
0.979941
0.981918
0.983596
0.984329
0.980149
0.974618
0.973236
0.974185
0.97567
0.977433
0.982992
0.992795
0.998139
1.00066
1.00282
1.00463
1.00489
0.999831
0.994303
0.992882
0.993879
0.995687
0.999114
1.00822
1.01654
1.02043
1.02275
1.02486
1.0265
1.02486
1.01799
1.01309
1.01219
1.01332
1.01616
1.02455
1.03395
1.03908
1.04144
1.04301
1.04401
1.04326
1.03728
1.02722
1.02008
1.02237
1.21506
1.6323
0.901889
0.906834
0.908234
0.909379
0.910388
0.910958
0.909189
0.907807
0.90814
0.908986
0.910032
0.911976
0.917952
0.923301
0.925546
0.926745
0.92778
0.928568
0.926712
0.924003
0.923869
0.92476
0.925862
0.927159
0.931477
0.939023
0.942928
0.944769
0.945952
0.947037
0.945977
0.941762
0.940095
0.940511
0.941517
0.942749
0.945096
0.952581
0.959728
0.962709
0.964296
0.965524
0.966411
0.963496
0.958845
0.957715
0.958103
0.959016
0.96047
0.964575
0.974086
0.980433
0.982918
0.984277
0.98547
0.986306
0.982503
0.977382
0.976082
0.976401
0.97733
0.979113
0.985451
0.995711
1.00117
1.0034
1.00483
1.00633
1.00698
1.00249
0.997006
0.995475
0.995879
0.997176
1.00052
1.01014
1.0189
1.023
1.02504
1.02669
1.02812
1.02686
1.02029
1.01494
1.01357
1.01433
1.01675
1.02488
1.0344
1.03947
1.04171
1.04332
1.04426
1.04353
1.0375
1.02485
1.01779
1.20449
1.63078
0.900563
0.90735
0.909643
0.910955
0.911992
0.912962
0.91253
0.910056
0.909473
0.910178
0.911213
0.912373
0.915618
0.922433
0.926438
0.928195
0.929294
0.930354
0.930478
0.927398
0.925635
0.925984
0.926839
0.927894
0.929571
0.935479
0.942734
0.945949
0.947615
0.948731
0.949579
0.94697
0.942626
0.941763
0.94266
0.94387
0.945067
0.9478
0.956016
0.962497
0.965144
0.966873
0.968374
0.969006
0.964868
0.959936
0.95909
0.960114
0.961448
0.962875
0.967116
0.976513
0.982212
0.984668
0.986656
0.988311
0.988895
0.984598
0.978967
0.977336
0.978158
0.979629
0.981587
0.987816
0.997348
1.00236
1.00494
1.00716
1.00894
1.0094
1.00474
0.998712
0.996643
0.997275
0.998952
1.00246
1.01167
1.02007
1.02404
1.02645
1.02866
1.03036
1.02929
1.02244
1.01623
1.01433
1.01493
1.01699
1.02482
1.0344
1.0394
1.04166
1.04343
1.04421
1.04347
1.03495
1.02183
1.1928
1.62995
0.899432
0.906534
0.910587
0.912418
0.913472
0.914488
0.915188
0.913386
0.911375
0.911534
0.912375
0.913362
0.914725
0.919579
0.926338
0.929419
0.930916
0.931989
0.932945
0.93173
0.928155
0.927188
0.927874
0.928967
0.930118
0.932385
0.939465
0.945892
0.948557
0.950156
0.951331
0.95178
0.94826
0.944588
0.944165
0.94478
0.945786
0.947132
0.950805
0.959528
0.965425
0.967806
0.969148
0.970253
0.97078
0.966871
0.962572
0.96181
0.962221
0.963129
0.964675
0.969742
0.979556
0.985254
0.987459
0.988725
0.989941
0.990835
0.987196
0.981756
0.980094
0.980354
0.981256
0.983044
0.98977
1.00003
1.00539
1.00761
1.009
1.01051
1.01146
1.00744
1.0012
0.998776
0.998873
1.00004
1.00308
1.01253
1.02201
1.02663
1.02873
1.03041
1.03182
1.03085
1.02424
1.01734
1.01485
1.01526
1.01723
1.02457
1.03403
1.03906
1.04153
1.04329
1.04415
1.04142
1.03304
1.18558
1.63002
0.899531
0.904375
0.91051
0.913536
0.914981
0.916028
0.917019
0.916938
0.914195
0.912999
0.913442
0.914337
0.915385
0.917468
0.923887
0.929847
0.932298
0.933555
0.934566
0.935209
0.932522
0.929394
0.929227
0.930082
0.931135
0.932242
0.935106
0.942977
0.948797
0.951236
0.952822
0.954073
0.954038
0.949439
0.945865
0.94581
0.946931
0.948158
0.94942
0.953382
0.96222
0.967542
0.969786
0.971552
0.973067
0.973325
0.968714
0.963979
0.963132
0.964131
0.965496
0.967046
0.972035
0.981387
0.986566
0.988922
0.990924
0.99257
0.993294
0.989569
0.983644
0.981383
0.981947
0.983375
0.985445
0.991883
1.00134
1.00637
1.00901
1.01124
1.013
1.01375
1.00954
1.00274
0.999764
1.00003
1.00156
1.00469
1.01349
1.02277
1.02734
1.02968
1.03156
1.03311
1.03245
1.02608
1.01865
1.01566
1.01571
1.01736
1.02409
1.03319
1.03843
1.04118
1.04317
1.04312
1.04195
1.18569
1.63126
0.900444
0.90302
0.908636
0.914154
0.916384
0.917548
0.918525
0.919365
0.917916
0.915088
0.914749
0.915529
0.916554
0.917637
0.920476
0.927774
0.93285
0.934989
0.936249
0.937303
0.937202
0.933407
0.931013
0.931131
0.931926
0.933002
0.934334
0.938119
0.946329
0.951458
0.953589
0.955
0.956165
0.955871
0.951394
0.94845
0.948335
0.948888
0.949858
0.951344
0.956208
0.965239
0.970376
0.972459
0.973661
0.97484
0.975407
0.971336
0.966808
0.96587
0.966188
0.967016
0.968587
0.974148
0.983986
0.989437
0.991585
0.992827
0.994141
0.995361
0.992452
0.98646
0.984062
0.984114
0.984887
0.986604
0.993125
1.00352
1.00923
1.01155
1.01293
1.01439
1.01562
1.01231
1.00545
1.00213
1.00185
1.00275
1.005
1.0133
1.02343
1.02879
1.03126
1.03295
1.03432
1.03427
1.02828
1.02004
1.0163
1.01605
1.01719
1.02288
1.03188
1.03753
1.04104
1.04204
1.04706
1.19119
1.63337
0.90162
0.90355
0.906167
0.912935
0.917181
0.918967
0.919994
0.920999
0.921401
0.918699
0.916655
0.916846
0.917591
0.918496
0.919743
0.923625
0.931414
0.935858
0.93777
0.938921
0.939907
0.938817
0.934391
0.932565
0.933068
0.934152
0.935232
0.936462
0.940808
0.949228
0.953896
0.955961
0.957507
0.958806
0.958083
0.952885
0.949693
0.949808
0.950933
0.952147
0.953527
0.95843
0.967317
0.972064
0.974252
0.976087
0.977583
0.977896
0.973507
0.968351
0.96702
0.967847
0.969194
0.970873
0.976117
0.985336
0.990493
0.992974
0.995073
0.996729
0.997732
0.994765
0.988364
0.985252
0.985409
0.986767
0.988747
0.994715
1.00434
1.00983
1.01268
1.0151
1.01696
1.01802
1.0147
1.00731
1.00309
1.00262
1.00388
1.00625
1.01367
1.02374
1.02969
1.03259
1.03429
1.03541
1.03541
1.03008
1.02127
1.01658
1.01582
1.01655
1.02149
1.0304
1.03703
1.03979
1.04876
1.20038
1.63591
0.902917
0.904661
0.905572
0.909586
0.916573
0.920044
0.921605
0.922623
0.923598
0.92297
0.919464
0.918101
0.918597
0.919592
0.92062
0.922059
0.92693
0.934583
0.938442
0.940298
0.94157
0.942462
0.940424
0.936092
0.934825
0.935193
0.935912
0.936998
0.938588
0.943903
0.952207
0.956473
0.958344
0.959563
0.960649
0.960031
0.955268
0.952408
0.952275
0.95272
0.953675
0.955269
0.96091
0.970099
0.974907
0.976836
0.977945
0.979167
0.980002
0.976348
0.971187
0.969725
0.969934
0.970662
0.972169
0.977668
0.987631
0.993347
0.995597
0.996845
0.998115
0.999516
0.99753
0.991211
0.987883
0.987543
0.988094
0.989546
0.995121
1.00586
1.01262
1.01539
1.01693
1.01826
1.01952
1.01734
1.01021
1.00545
1.00447
1.00502
1.00655
1.013
1.02367
1.03036
1.03344
1.03512
1.03609
1.03614
1.03159
1.02268
1.01698
1.01539
1.01558
1.01985
1.02929
1.03529
1.04781
1.21048
1.6384
0.904058
0.905516
0.906257
0.907825
0.913332
0.92001
0.922886
0.924204
0.925146
0.92597
0.924066
0.920623
0.920048
0.920743
0.921682
0.922607
0.92412
0.929883
0.937554
0.941161
0.942924
0.944177
0.944898
0.941994
0.937309
0.936163
0.936974
0.938153
0.939256
0.940712
0.946392
0.954604
0.958503
0.960411
0.962022
0.963312
0.962377
0.956978
0.95358
0.95356
0.954647
0.955916
0.957415
0.962889
0.971704
0.976189
0.978375
0.980246
0.98174
0.98239
0.978678
0.972951
0.970836
0.971386
0.972675
0.974385
0.979468
0.988692
0.994105
0.996754
0.998948
1.00068
1.0019
0.999902
0.993303
0.989067
0.988564
0.989732
0.991517
0.996478
1.00635
1.01293
1.01607
1.01848
1.02044
1.02172
1.01978
1.01231
1.00655
1.00503
1.00579
1.00745
1.01321
1.02357
1.03074
1.03402
1.03556
1.03643
1.03679
1.03318
1.02421
1.01723
1.01457
1.01413
1.01864
1.02721
1.04298
1.21967
1.64014
0.905461
0.906517
0.907321
0.908287
0.910306
0.916847
0.92297
0.92555
0.926911
0.927929
0.928349
0.925141
0.92207
0.921768
0.922368
0.923319
0.924476
0.926501
0.933059
0.940284
0.943466
0.945115
0.946353
0.946919
0.943808
0.939645
0.938756
0.939127
0.939824
0.940939
0.942801
0.949283
0.957373
0.961135
0.962792
0.963816
0.964903
0.964491
0.959622
0.956358
0.956046
0.956449
0.957358
0.958977
0.964967
0.974245
0.979003
0.980907
0.982007
0.983175
0.984307
0.981562
0.975828
0.97355
0.973553
0.974161
0.975545
0.980512
0.990581
0.996955
0.999497
1.00086
1.00205
1.00352
1.00261
0.996412
0.99185
0.990883
0.991104
0.992197
0.996264
1.00673
1.01511
1.0187
1.02043
1.02164
1.02288
1.02211
1.01555
1.00919
1.00699
1.00702
1.00796
1.01238
1.02283
1.03095
1.03465
1.03606
1.03673
1.03706
1.03454
1.02612
1.01758
1.01328
1.0126
1.01638
1.03473
1.22567
1.64103
0.907716
0.907636
0.908244
0.909121
0.910152
0.912815
0.920332
0.926094
0.928409
0.929664
0.930619
0.930242
0.926004
0.923365
0.923527
0.924503
0.92558
0.92664
0.928648
0.935729
0.942773
0.945778
0.947418
0.948769
0.949352
0.945773
0.941039
0.940003
0.940849
0.942046
0.943203
0.944897
0.951401
0.95925
0.962723
0.964585
0.966207
0.967495
0.966884
0.961674
0.957676
0.957233
0.958246
0.959571
0.961263
0.966807
0.975465
0.980001
0.982237
0.984154
0.985691
0.986663
0.984012
0.977854
0.974732
0.974845
0.976065
0.977779
0.982283
0.99141
0.997513
1.00043
1.00275
1.00461
1.00599
1.00508
0.998771
0.99311
0.991577
0.992377
0.993944
0.997564
1.00691
1.01515
1.01905
1.02152
1.02363
1.02497
1.02441
1.01788
1.01044
1.00729
1.00721
1.0082
1.01201
1.02218
1.03089
1.03473
1.03611
1.03686
1.03732
1.03567
1.02803
1.01787
1.01173
1.00905
1.0238
1.22552
1.64054
0.910749
0.908789
0.90912
0.910092
0.911082
0.912324
0.915913
0.923819
0.92881
0.930917
0.932179
0.93309
0.931894
0.927436
0.925545
0.925772
0.926359
0.927271
0.928504
0.931146
0.938704
0.945293
0.948047
0.949496
0.950554
0.951059
0.947946
0.943723
0.942743
0.943073
0.943689
0.944775
0.9468
0.953833
0.961802
0.965325
0.966875
0.967801
0.969003
0.969169
0.96467
0.960642
0.95996
0.960291
0.961059
0.962579
0.968145
0.97747
0.982658
0.984729
0.985887
0.987047
0.988405
0.986924
0.980991
0.977653
0.977309
0.977744
0.978911
0.982679
0.992304
0.999887
1.00314
1.0047
1.0058
1.00728
1.00753
1.00219
0.996159
0.994167
0.994109
0.994893
0.997323
1.00621
1.01635
1.02142
1.02345
1.0246
1.02554
1.02558
1.02035
1.0127
1.00872
1.00805
1.00865
1.01158
1.0213
1.03066
1.03478
1.03606
1.03681
1.0373
1.03633
1.02956
1.01807
1.00897
1.01323
1.21872
1.63851
0.914687
0.911237
0.910507
0.911295
0.912303
0.913327
0.914606
0.918685
0.926638
0.931268
0.933309
0.934604
0.935442
0.933701
0.928859
0.926902
0.927411
0.928507
0.929613
0.93072
0.933279
0.941006
0.947307
0.949858
0.95145
0.952866
0.953583
0.950282
0.945346
0.943908
0.94461
0.94578
0.946948
0.948752
0.955533
0.963195
0.966575
0.968492
0.970163
0.971504
0.971589
0.967119
0.962257
0.961032
0.961815
0.963061
0.964674
0.969554
0.978283
0.983375
0.985865
0.987975
0.989601
0.990811
0.989413
0.983295
0.978975
0.97835
0.979341
0.98084
0.983981
0.992452
0.999889
1.00355
1.00619
1.00832
1.00981
1.01002
1.00491
0.997966
0.994981
0.995116
0.996407
0.998585
1.00581
1.01569
1.02096
1.02346
1.02545
1.02703
1.02765
1.02327
1.01496
1.00983
1.0085
1.0089
1.01115
1.02022
1.02989
1.03412
1.03548
1.03653
1.03731
1.03677
1.03051
1.01596
1.00942
1.20564
1.63633
0.918136
0.916045
0.912865
0.912707
0.913418
0.914295
0.915227
0.916636
0.921124
0.929021
0.933429
0.93535
0.936699
0.937559
0.93564
0.931129
0.929595
0.92988
0.9304
0.931255
0.932501
0.935575
0.943536
0.949666
0.95218
0.953497
0.954433
0.955275
0.952851
0.948188
0.94667
0.946838
0.94732
0.948357
0.950363