/*--------------------------------*- C++ -*----------------------------------*\
  =========                 |
  \\      /  F ield         | OpenFOAM: The Open Source CFD Toolbox
   \\    /   O peration     | Website:  https://openfoam.org
    \\  /    A nd           | Version:  12
     \\/     M anipulation  |
\*---------------------------------------------------------------------------*/
FoamFile
{
    format      ascii;
    class       volScalarField;
    location    "3.62";
    object      p;
}
// * * * * * * * * * * * * * * * * * * * * * * * * * * * * * * * * * * * * * //

dimensions      [1 -1 -2 0 0 0 0];

internalField   nonuniform List<scalar> 
22702
(
1
1
0.874985
1
1.05429
1
1.47217
1
1
0.579646
1.47243
1.4742
1
1.47213
0.892405
1
1
1
1.47157
1
1.47147
1
1.47151
0.688384
1.46926
0.676905
1
1.46915
0.622076
0.684569
1
1.47456
1
1
1
1.43512
1.47052
1.4716
1
1
0.61635
1
1.23167
1
1.46895
1
1
1
1
0.655072
1
0.674234
1
1.47188
1
1.47374
1
1
1
1
0.674014
1
1
0.643275
1
0.657348
1
1
1
0.621419
1
1.46831
1.28356
1
1.46854
1.49966
0.658272
1.47304
0.654322
1
1.47056
0.664515
1.46952
1.46734
1
1
1
1
0.938284
0.599305
1.47446
1
1
0.636881
1
1.47168
0.634646
1
1
1
1
1.23042
1.47073
0.6586
1
1
1.11264
1
0.662031
1
1.47552
1.47267
1
1
0.664019
0.662797
0.586096
1
1
1
1
1
0.920619
1
1.40322
1.03814
1.47353
1
1.47508
1.47116
1.47102
1.4722
1
0.645502
1
0.694252
1
1
1
1
1.47156
1
1
1
1
1.47484
1
1.02833
1
1
1
1
0.655329
1
1.01141
1
0.660346
1
1
1
1.47332
1
1.47251
0.6449
0.667995
1.46839
1.46647
1
1.07544
1.26319
1
1.46749
0.651848
1.43604
1
1
1
1
1.47227
1.38764
1
1.47203
0.676911
1.47033
1
0.631526
1
0.663079
0.677342
0.999766
1
1
1.47298
1
1
1.46807
1
1.47366
1.4722
0.659539
1
1
0.661557
1.47297
1
1
1
1.47226
1
0.64792
1
1
1.47267
1.47098
1.47518
1
1.00004
1
1
1
1.47111
1
0.681631
1.49011
1.46943
1.47198
1
1
1
0.647474
1.46915
1.2249
1
1.47342
0.663959
0.663247
1.47341
1.47397
1
1.47281
0.649177
1.41515
1
1
1
1
1.46841
1
1.27035
1.04211
1
1
1.47132
0.667348
0.783256
1
1.4723
0.638602
1.47274
1
1
1
1
1
1
1
0.653303
0.770388
0.665658
1.47258
1
1
1
1
1.42395
1
0.652345
1
0.641637
0.655818
1.47306
0.650811
1.47162
1
1
1
0.997423
0.631369
0.635349
0.999999
1
0.638714
1
1.47105
0.648752
1
1
1.47057
0.632338
1
1.47598
0.675356
1.47225
1
0.644111
0.997637
1
1
1
0.672431
1
1
1
1.00001
1.00436
1.28463
1
0.682362
1
1
1
1
1
1
1
1.47118
1
1.47082
1
1
1
0.64488
1
1.47384
0.646698
1
1.37077
1
1
1.46978
1
1
1
1.46257
1
1
1.46599
1.47068
1
1.10029
1
1
0.686144
1
1
1
0.63082
1
1
1
1
0.668296
1
1
1
1
1
0.642058
1.00006
1.4697
1
0.99999
1.46679
1.46903
1
1
0.667507
0.814034
1.47205
1
1
1
1.47194
0.622305
1
1.47264
1
1
0.736884
0.728015
1
0.627849
0.659337
1
1
1
1
1
1
1
1.46919
1.11235
1.45886
0.644706
0.905951
1.47046
1
1.47279
1.4727
0.672123
0.791066
1
0.636548
1
1.48571
1
1
1
1
1.47051
1
1
1
1
1
1
1
1.17125
1.47354
1
1.4719
1
1
0.663868
1
1
1
1
1.47276
1.35608
1
1
0.632949
1.47082
1.46918
1
1.47092
1.46855
1.47096
1
0.827494
1
1.47046
0.977314
1.47115
1
0.655502
0.998783
1.47041
1
1
1
1
0.657981
1.46938
1.42546
1
1.47124
1.47114
1.47121
1
1.20991
1.47049
1
1
1.32518
1.06699
1.47234
0.935296
1.47035
1
1.4704
1.4712
1.47031
1.47148
1
1.45736
0.91248
0.88878
1
0.999999
1
1
1.47519
1
1
1
1
1
1.47121
1
1
0.99613
1.46858
1.40728
1
1.38887
1.00004
1
1
1.47343
1
0.997214
1.00406
1
1.47031
1
1.46912
1
1
1.34613
1
1.47131
1.00002
1
1.4737
1
1.47209
1
1
1
1.46817
1
1.47447
1.00001
1.46873
1.47026
1.47007
1.46728
1
1.47277
1.45703
1
0.662727
1.4408
1.33416
1
1.46859
1
0.670027
0.68003
1
1
1
1
1
0.636259
1
1.47263
1.11059
1.47394
1
1
1
1
1
1.47239
1
1.47184
1.27489
0.791158
1
1.00001
1.13299
1.11706
1
1
1.16753
1
0.656056
1.4721
1.47033
1
1
1
1.46951
1
1.00003
1.47404
1.47161
0.95069
1
1
0.657415
1.42614
1
1
1
1
1
1.46991
1.47125
1
1.47355
1.47281
1.47037
1
1
1
1
0.657308
1.47259
1
1
1.42824
1.47024
1
1.44257
1.4746
1
1
1
1
1
1.47027
1
1
1
1
1.47434
1
1.46741
0.637417
1
0.67699
1
1
1
0.99716
0.650971
0.999048
1
1
1
1.0617
1
1
0.877132
1
1
1
1
1
1
1
0.999997
0.917783
0.999999
1
0.997526
1
0.655513
1
1
1
1
1.34948
1
1
1
1
0.644964
1
1
1.44224
1.47177
0.999999
1
1
0.891384
1
1
1
1
1
1
0.955569
1.00805
1.47187
1
1
1
1.46951
0.905391
1
1
1
1.4698
1.46902
1
1.00001
1
1
1
1
1
1
1
0.652361
1
1
1.47073
0.644379
1
1.46878
1
0.657964
1
1
0.659217
1
1
1
1
1
1
1
1.46156
1.47025
1
1
1
1
1.42864
1
1.14453
0.631099
1
1
1
1
1
1
1
1.032
1
1
1.24771
1
1
1
1.38145
1
1
1
1
0.63537
1
1
0.630545
0.636131
1
1
1.46996
1
0.977422
1
1
1
1.32576
0.675956
1
0.664794
1
0.786325
1
1
1
1.4717
1
1
1.47168
1
1
1
1.47172
1
1
1.47346
1
1
0.672952
1
1.14502
1
1
1.47133
1.47102
1.30831
1.42077
1
0.646955
1
1
1.44998
1
0.64723
1
1
1
1.47157
1
1
1
1
1.27603
1
1.45808
1.47395
0.600654
1
1
0.67604
0.682141
1
1
1
1.33332
1.35381
1
1
1
1
1
1
1
1.1924
1.46773
1.00899
1
1.46577
0.656312
1
1
1
1.25318
1
1.09043
1
1.4287
1.46965
1
0.662302
1
1.47161
1
1
1.47061
1.44105
1
1.47366
1
0.605926
1
1
1
1.46497
1.46162
1.41344
1
1.47371
1.47101
1
1.47256
1
1.46975
1
0.641142
0.979095
0.635331
1
1
1
1
1
1.47044
1
1.47133
1
1
1
1.44669
1
0.666958
1.47136
1
0.662455
0.69142
0.671499
1
1.21975
1.03129
1.47346
1.47093
1
0.999999
1
1
1.47067
1
1
1.47218
1.47189
1
1.1591
1.00005
1
0.996682
1.4736
0.858294
1
0.825496
0.65414
0.661319
0.947653
1.46772
1.46511
1.09047
1.47161
1.47205
1
1
1.4703
1.47232
1.47164
1.47141
1
1.47178
0.661862
1.4687
1.47223
1.46849
1.4739
0.869888
0.898504
0.924004
1.47254
0.952575
1.47247
1
1
1.47355
1.47085
1
0.639512
1.47384
1.47233
1
1.47149
1.47173
1
1.47029
0.655406
1.47854
1.4682
1.47272
1.47492
1
1
1
1.47225
1.30105
0.689722
1.47168
0.625945
1.47116
1
1
1
1
1.46861
1.47183
1
1
1.47151
0.638636
1.47137
0.652442
1
1.46824
1
0.58523
1.47218
0.754017
1
1.47092
1.47314
1.47163
1
1
1.20432
1.47298
0.650775
1.47187
1
1.47062
0.872868
1.47052
0.664889
1
1.46817
0.695877
1.47354
0.661732
1
1.47122
1
1.47519
1
1.26687
1.45246
1.36611
0.669303
1
1.47078
1
1.47104
1
1.47201
1
1
1.47204
0.969453
1.47483
0.574086
1.41879
1
1.32757
1
1.47197
1.47185
1.47193
1
1.42213
1.47197
1.43527
1.281
1.4662
1
1.30443
1
1.47144
1
1.06646
1
1.43599
1
1.47091
1.44877
1.44771
1
1.4643
0.684991
1
0.638553
1
1
1
1.47604
1
1.47187
1
1
1
1.47258
1.45684
1.38907
1.46884
1.46947
0.678249
1.48072
1.47337
1
1.40386
1.47158
1.46225
1
1.4678
1.47471
1
1.47783
1.4714
1.47097
1.47213
1
1
1
1.47069
0.66471
1
1.47165
1
1
0.677626
1
1
1.47164
1.47197
1
1.47201
1.46528
1.47136
0.978962
1.47214
1
1.47229
1.47126
1.37799
1
1
1
1.46992
1.47096
1.47086
0.945082
1
1.47201
1.47076
1.47166
1
1.47082
1.47127
1.47134
1.48144
1
1.47176
1.47765
1.40394
1.47014
1.48007
1
1.46569
1.46571
1.47088
1.47046
1.47071
0.677305
1.47296
1.46927
1
1.47136
1.47098
1.47187
1.47242
1
1.47028
1.47129
1
1.47308
1.39504
1
1
1
1.47684
1.4676
1
1
1.25281
1
1.47083
1
1
1.4719
1.47336
1.47111
1.47199
1
1
1
1.32047
1
1.47164
1
1
1.47224
1.46846
1
1.47148
0.623213
1.4701
1.4738
0.713314
1
0.676874
1.40161
1.47529
1.47054
1.47003
0.64533
1.47187
1.47361
0.649495
0.634106
1
1.46982
1.47356
1
1
1.47113
1
1.47678
1
1.41011
1
1.21284
1.47203
1.47298
1.31971
1.43142
1.47619
1.47006
1.45197
1
0.650277
1.46871
1.47172
1.47077
1.00001
1
1
1.47706
1
1.47114
1.47084
0.764869
1
1.47223
0.999946
1
1.00003
1.00004
1.47303
1.47319
0.998428
1
1
1.47118
1.47368
1.47205
1.47217
1.47281
0.704979
1.42031
1
1.46773
1.47037
1.471
1.4687
1
1.47206
1.45797
1.47365
1
1.47112
1.47075
0.867982
1.47179
1.47117
1
1.47108
0.856487
1.4702
0.85487
1.47225
1
1.4711
1.47732
1.47164
1.47222
1.47138
1.46913
1.47295
1.46938
1
0.931318
1.47044
1.46871
0.857883
1.4715
0.98468
1.27836
1.47046
1.4681
1.46972
1
1.47466
1.29344
1.46909
0.91741
1.4745
1.47686
1
0.876158
1
1.47179
1
1.32066
1
1.43839
0.862081
1
1.47
1.48338
1
1.47139
1.47364
1.4865
1.46099
1.47362
1
1.47048
1
1
1
0.877729
1.47422
1.47181
1.46848
1.47152
1.46801
1.46803
1.46628
1.47208
0.878486
1.03041
1
1
1.47788
1.47169
1.47087
1.47141
1.00003
1.24237
1
1.47682
1.4163
1
1
0.71549
1.47105
1
1
0.663641
1.47128
1
1.46897
1.47238
1.47675
1.45269
1.47113
1
0.678404
1.1117
1.47164
1.47098
1
1.47235
1.47159
1.22252
1.01044
1.10491
1
1.4743
1.47172
1
1
0.6496
1
1
1.47166
1.47163
1.47181
1.47158
1.47142
1.46993
1.47204
1.46965
1.47094
1
0.996323
1.4697
1.47073
0.997168
1.47164
1.47132
0.671912
0.6129
1.47451
1.47558
1
1
1.00134
1.47218
1.47168
1.47134
1
1.47157
1
0.86335
1.46963
1.46172
1
1.20669
1.47043
1
1.46958
1
1.47192
1.29782
1.46844
1
1.47106
1.4813
0.65779
1.47068
1
1.47022
1.46753
1
0.675697
1.46803
1.39307
0.997759
1.44844
1.47108
1
0.998543
1.46879
0.998164
1.47157
1
1
1.47002
1
1.46903
1.47147
0.996453
1.3699
1
1.47128
1
1
1
1
1.47142
1
1
1.46701
1
1.47023
1
1.30031
1.4785
1.47235
1
1
1.00721
1
1.47151
1.47123
1.47033
1.47135
1.4706
1.47155
1.47124
1
1.47208
1.47198
1
1.47141
1.47256
1
1.47077
0.9119
1.05901
1.47194
1.472
1.47083
1
1.47125
1
1.47181
1.47201
1
1.47312
1
1
1
1
1.47101
0.690117
0.99787
1
1.4713
1.47973
1
1.47085
1
1.00521
0.655714
1.47144
0.99962
1
1.4705
0.998393
1.47029
1
0.999777
1
1.46907
1.46831
1.47288
1.47454
0.653409
1.47357
1.46974
1.47246
1.11362
1
1
1.19452
1.47143
0.68147
0.665506
1
1.47034
1.47248
1.47509
1
1
1.47195
1.47298
0.999891
1
1.33874
0.622622
1
1.07814
1.47028
1.4753
0.998233
1.47156
1.4733
1
0.999011
1
1.47655
1.47392
1.18692
1
1.447
1
1.0021
1.47081
0.620306
1.47088
1.47145
0.997017
0.999916
1.41807
1
0.999704
1
1.47299
1
1.00001
0.658939
1.47141
1.00001
1
1
1
1.46785
1.25943
1
1
0.640748
1.47169
1.25971
1
1
1
1.44935
1.45403
1.47154
1
1
1.47864
1
1.47136
1.47016
1
1
1.47323
1.47172
1.44797
1
1
1.47334
1.47581
1
1
1
1.47662
1
1
1
1.47301
1.47653
1.4742
1
1.4661
1.00003
0.674103
1.47175
1.47102
1
1.47141
1.44695
1.47422
1
1
1.4784
1
1.23808
1.47531
1
0.658662
1
1.47382
1
1
1.47546
1
1
1
1.14846
1.47308
0.65732
1.00001
1.47304
1
1
1.47116
1
1.4746
1
1
1.47166
1.47064
1
1.00005
1
1
1
1
1
1
1.47571
1.47143
1
1.46946
0.643841
1.46852
1
1.47058
1.47595
1.47145
1.47426
1.47387
1
1
1.47242
1
1.29354
1.47213
1.47233
1
1.47522
1.46588
1
1.42128
1
1.46994
1.30418
1.47018
0.997583
1.46526
1.42715
1.47099
1.47156
1.03677
1.47147
1.47529
1
1.47086
1
1.47165
1
1
1
1
0.996908
1.47151
1.47184
1.38037
1
1.47434
1
1
1
0.663378
1
1.46161
1
1.42692
1.45938
1
1
1
1.45726
1.47296
1
1
1.47189
0.667548
1.06973
1
1.47146
1.46856
1.42863
1.46146
1.47131
1
1.46732
1
1
1
1
1.47709
1.47211
1
1.463
1.05642
1.47152
1.43823
1
1
1.43928
1
1
0.674816
1.32529
1
1
1.47834
1
1.47571
1.4275
1
1.42455
0.662093
1.47162
1.47233
1.47235
1
0.659218
1
1
1
1.4717
1.37481
1
1.47868
1.4735
1
1.47146
1
1
1
1
1.47398
0.999418
1
1.47346
1
1
1.47485
1.47157
1
1.48402
1.09012
1.00002
1
1.47057
1
1.47011
1
1.01309
1.47211
1
1.47141
1
1
1.13173
1.47091
1
1
1
1
1
0.995669
0.668412
0.677979
1.02095
1
1.03786
1
1.03464
1
1.47219
1
1.29349
1
1.47137
1
1
1
1.47143
1
1.36741
1.47239
1
1.24202
1.47255
1
1
1.47611
1.47228
1
1
1.05322
0.665696
1
1.47481
1
1
1
1
1.077
1.47091
1
1
1
0.628094
1
1.47155
1.47081
1.48328
1
1
1
1
1.23529
1.48026
1
1
1
1.47364
1.47117
1.04882
1
1
1
1.47161
1.47119
1
0.665996
1.47085
1.47212
1.46681
1.47256
1.47647
1
1
1.4701
1.47427
1.47122
0.63269
1.04148
1.46999
1
1
1
1
1
1.47171
0.669635
1
1
1.47099
1.2162
1
1.46891
1
1
1
0.653221
1
1
1.11974
1.47056
1.47072
1
1.4599
1.47899
1
1.0694
1
1.47623
1
1.47092
0.671617
1
1
1
1
1.47135
1.00006
1
1
1
1.44487
1
1
1
1
1.47137
0.652764
1.35904
1.47419
1
1.47175
1
1
1
0.997068
1
1.47251
1
0.816538
1
1
1.00003
1.46998
0.652341
1
1.47474
1
1.46728
1.47148
0.607371
1
1
1.45753
1
1
0.615351
1
1.47408
1
1.45023
0.999349
1.47259
1
1
1
1
1.467
1
1
1.4711
1
1
1
1
1
1
1
1
1.30547
1
1.14454
1.47126
1
1
1
0.658529
1
1
1
1
1.47531
1.47098
1.06274
1
1
1.47288
1
1
1.4716
1
1.00002
1
1
1
1.00001
1.46964
0.785822
1.47124
1.47352
0.996806
1
1
1
1.27528
1
1
1.47178
1.47179
1
1
1
1
0.609841
1
1
1
1.28895
1
1.47143
1.47508
1
1.47314
1
1
1
1.24803
1
1.47292
1
1.47127
1
1
0.996371
1.4713
1
1
1
1
1
1.4743
1.00002
1
0.672999
1.47204
0.676906
1
1.46605
1
0.996188
1
1.47335
1.47474
1
1.46583
0.886854
1.4712
1.47976
1.00003
1
1
0.646276
1
1
1
1.47224
1.26435
1.47001
1
1
1
1
0.996935
1.46939
1
0.653753
1
1
1
1
1
1
1
1.48609
1.47329
1.47086
1
1
0.997015
1
0.978776
1
1
1
0.671274
0.990231
1
0.667197
0.656881
1
1.47229
1.47088
1
1.4691
1.47101
0.641016
1.30904
1
1
1
0.659338
1.4731
1
0.647007
1
1.4724
1.07918
1
1
1
1
1.47124
1.46957
1
1
1.4715
1
1
1.47076
1.47202
1
1.43501
1.47052
1.47087
0.942588
1.46948
1.00834
0.647686
1.35787
1.47201
1
1
1
0.653055
1
0.66618
1.47446
0.942026
1.47102
0.964993
1
1.47282
1.20933
1
1
1.47641
1
1.1899
1.47398
1
1
1.47183
1.46444
0.648728
1.27045
0.999893
1
1.27766
1
1.47692
0.953876
1.48391
1.47754
1
1
1
1
1.4595
1
1
1.47335
0.999639
1.46961
1.37085
1.47306
0.662723
1
1
1
1
1.46899
1.00005
1.47147
1
1.46983
1.46732
1.05647
1.47507
1.13062
1.47224
1
1.31955
0.687791
1.47489
1.47091
1.38128
1.08179
1.46936
1.47135
1.47166
1.46944
1
0.911669
1.06876
1
1.4708
1.22408
1.46865
1.00003
1
1
0.68354
1.46971
1.46963
1.38082
1
1.17092
1
1.47646
1.47637
1
1.4695
1.4699
1
1
1
1.46909
1
1.18464
1.46814
1.32244
1
1.47163
1
1
1
1
1
1
1
1
1
1
0.653623
1
1.45686
0.676317
1.27172
0.998552
1.46856
1
1.24183
1.00001
1.30072
1.38946
1
1.00186
1.47198
0.906765
1
1.4755
1.45954
0.936894
1
1.47154
1.47019
1.47422
1
1.47126
1.47089
1.47067
1
1.21236
1
1.00006
1.46864
1
1.4707
1.06514
1.46918
1
1
1.48049
1.47548
0.711865
1
1.47203
1.35156
1.4709
1
1
1.47043
1.46417
0.998253
1
1.38571
0.996983
1.47158
1.00002
1
1
1
1
1.21148
1
1.36185
1.47231
1.34932
1.47406
1
1.0039
1
1
1.47081
1
1.4698
1
1
1
1
0.999999
1
1.05652
1.24438
1
1
0.717273
1
1.47544
0.658343
1.47265
1
1.2365
0.999765
1.47036
1.2981
0.651561
1.25336
1.00003
1.47118
1.47006
1
1.28149
1.47574
1.47131
0.998408
1.47441
1.45822
0.689363
1
1
0.99795
1
1.44911
1
0.65158
1.47492
1
1
1.39708
1
1.47134
1
1.4729
1
0.68208
1
1
1.47086
1.47552
1.47668
1
1.47167
1.47163
1.4755
1
1
1.47165
0.999999
0.72786
1
1
1
1.47211
1
1.47078
1.30446
1.47315
1
1.47139
0.999378
1
1
1
1
1
1
0.719208
1
1
1.47109
1
1.47489
1.46842
1
0.658552
0.659046
1
1.47301
1.07811
0.658447
0.630449
1
1.4716
1
1.46963
0.640927
1.00081
1
1
0.999532
1
1
1
0.999916
1.19214
1.4717
1
1
1.47293
1.27016
1
1.42974
1.46894
1.4721
1.19269
1.47338
1
1.47147
1
1.47193
1
1.47827
1.47064
0.996991
1.47608
1.47386
1
1
1
1
1
0.916064
1.46994
1.00004
1.00003
0.676483
0.999991
0.678655
0.650873
1
1.47186
1.47091
1.46877
1
1.47185
1
0.661689
1
1
1.47099
0.821791
1.47443
1
1.47182
1
0.983701
1.47147
1
1
1
1.47531
1
1.4723
0.648461
1
1
1.26581
1
1
1.253
1
1
1.47184
1
1
1
1
1
1.47791
1.47212
1
1.47081
1.4706
0.667106
1.21309
1.47249
1
1
1.42267
0.998966
1
1
1.47133
1.47301
1.30647
1
1.47135
0.670263
1.43257
0.999518
1
1.47409
1.00003
1.47255
1.39125
1.35497
1
1
1.47167
0.69443
0.660377
1
1.47057
1
1.46793
1
1.27683
1
1
1.47094
1.29771
0.645715
1
0.998558
1
1
1.02702
1.19442
1.47159
1
1.47308
1
1
1
1
1
1
1.0671
0.663354
1
1
1.03444
1
1
1
1
1
1.46807
1
1
1.47167
1.47156
1.34464
1
1
1
0.837534
1.47115
1.32429
1
1
1
1
1.4702
1
1
1
1.47747
1
1
1.33519
1.4895
1.03404
0.747587
1.46895
1.3292
1.47283
1
1.2286
1
1
1
0.646825
1.00211
0.613637
1
0.652598
0.655525
1
0.641608
1
1
1
1.19851
1
1.47159
1.47205
1.00086
1.21701
1.39328
0.655987
0.750019
0.903434
1
1.47151
1.47159
1.47137
1.47128
1.4025
0.877642
1
1.40414
1
1.43407
1
1
0.996525
1.00914
1
1
1
1.47055
1
0.712115
1
1.47333
0.688061
1
1
1.4713
1
1.47112
0.999792
1
1
1.47267
1.40778
1
1.49012
1
1
1.01479
1
1.20579
1
1
0.659798
1
1
1.469
0.999999
1.46991
1
1.00003
0.683901
1
1
0.716947
1.00089
1
1.4719
0.672865
1.47171
0.641932
1.47015
1
1
1
1
1
1
1
1
1
1
1
1.45122
1
1.47385
1.47173
0.668127
1
1
1
1
1
1
1.45835
1
1
0.661803
1
1
1.47206
1
1
1.17883
1.39275
0.643348
0.651938
0.708215
0.751157
1
0.996778
0.701612
1.00041
1.4409
0.996856
1
1
1.47176
1
1
1
0.777225
1.00001
1.16809
1
1
1.19245
1.47151
1
0.668811
1
1
1
0.996366
1.00001
1.47211
1.47132
1
0.653213
1
1.24922
0.659587
1
0.885063
1
0.996271
0.649794
1
1
1
0.995396
0.612097
1
0.657196
0.998432
1.24668
1.43004
0.639948
0.653633
1
0.990248
1
0.99866
1
1.47196
1.47038
1
0.998994
1.47215
1.47208
1
1
1.47171
1
1
1.00004
1
1.47937
1
1
1.01849
1
0.998571
0.677777
1
1
1
1
1
1.47621
1.04131
1.00005
1
1
1
1
1
1.00003
1
0.678514
1.09302
0.998624
1.47476
1.4789
1
1.01444
1.4721
1.4155
1
1
0.640658
1.4691
1
1.47223
1
1.47286
1.32921
0.674365
1
0.662051
1.45043
0.99969
1
0.661658
0.642592
1
1
1.39326
1
0.999998
0.658547
1
1
1
1.14984
1
0.664666
1.47664
1
1
1
1
1.47189
1
1
1.47487
1.42032
1
1
1
1.4755
0.668198
1
1.47026
1.47146
1
1.37576
0.999999
1.00003
1
1
1.43177
1.0057
1
0.680224
1.2451
1
1
0.99692
1
1
1.47822
1
1
1.00004
1
1.47002
1
1
1
1
1
1
1.00001
1.20571
1
1.47187
1
1
1.47371
1
1
1
1.47157
1.46881
1.04443
1
0.997589
1
1
1
1
1.47274
1
1
1.47071
0.656074
1
1
1
1
1
1
1.37998
1
1
1.47332
1.47199
1
1
1
1.4707
1.47447
1
0.99969
1.46686
1
1
1
1.00002
0.716192
1.03129
0.996044
0.995756
1
1
0.670512
1.47366
1
0.641924
1
1.46921
1.45072
0.647072
0.999392
1.4717
1.47071
1.47114
1
1
0.94591
1.42515
1.395
0.639796
1
1
1
1.47373
1.47176
0.633541
0.997249
1
1.47105
0.729345
1
1.45849
0.657974
0.969549
1.00631
1
1.4704
1
1
1
1
1
1
1.00011
1.43674
1
1
1.47707
1
1
1
1.47152
1
0.678292
1
1
1
1.15419
1
1
1
1
1
0.787019
1
0.729419
1
1.47146
1.00005
0.868456
0.883482
1.00002
1.00369
1.2449
1
1
0.670573
1.47181
1.47138
1.47191
1
0.639413
0.661952
1
1.47139
1
1
1
1
1
1.00003
1
0.657427
1.29779
1
1
0.647251
0.989454
1.00001
1
1
1
0.643282
1
0.715845
1
1
1.48578
1
1
0.663601
1
1.47379
1
0.651733
1
0.66223
1
1.0083
1.47036
1.49021
1
1
1.47036
1
1
1.09907
0.996823
1
0.998272
1
1.47106
1
0.61604
1.00002
1.47151
0.998804
1
1
0.824411
1
0.999039
0.651276
1.47136
1.1696
1
1.00001
0.903201
1
1
1
0.811329
1
1
1
1.47103
1
0.672276
0.999999
1
1
1
0.658661
1.47266
1.4132
0.65653
1
1.46751
1
1
1.47135
1.47024
1.39449
0.647779
0.997698
0.999216
1
1.47155
1
1
1
1
1.47324
1.00004
1
1
1.47346
1
1
1.47116
0.680748
1
1
1
0.663791
1
0.999999
0.999999
0.998651
1
1
1
1
1.35861
1
1.47209
1.47101
1.48033
1.47162
1.47112
1.4713
1
1.46934
1
1.47042
1.47153
1
0.99884
0.67187
1.40254
0.999895
1
1
1
1
0.995197
1
1.07626
1
1
1
0.846494
1.47114
1.4706
1.46854
1.40855
0.999877
1
1.02178
1.47118
0.99789
1.05214
0.997304
0.63755
1
1.00003
1
1
1
1
1
1.47173
0.674006
1.47124
1.47129
0.995074
0.686907
1
1
1
1.47089
0.678302
1.4136
0.654268
1.4705
1.46618
0.662982
1.46993
1.02399
1
1.47411
0.799856
1
0.998864
0.665797
1
0.675985
1
1.47131
1.47142
0.75547
1
1.47174
0.639047
1
0.661064
1
1.47434
1
1
1.47794
1
0.838282
1
0.999647
0.678085
1.46034
0.999497
1
0.688354
1
1
1
1
1.24642
1
1.47261
1
1
1.48043
1
1
1.47014
1
0.69349
1
0.658389
1.00001
1
1
1
1
1.45004
1.26928
1.47163
1
1.47136
1.43561
0.653022
0.667319
1
1
1.47519
1
0.692008
1
0.982016
1
1
1.46977
1
1.47298
0.672756
1.48006
1
0.671182
1
1
1.46866
1.46971
1
1.00004
1
1.47561
1
1
0.659281
0.999393
0.716786
1
1
1
1.4732
1.46963
1.47243
1
1
0.642988
1
1.47609
1
1
1
1.45647
1.47131
1.47402
0.671692
1.47282
1.4714
0.67786
1.4718
1.00004
0.662797
1.01046
1
1
1.47263
0.677351
1.29842
0.682028
1.47145
0.997279
0.645821
1.47383
1
1
1
1
1.47138
1.46983
0.662253
1
1.00003
0.657122
1.00004
1
0.651675
0.666205
1.32459
1.47132
0.998456
1.47408
1
1.48024
0.816703
0.64718
1.47128
1.48516
1
1.47058
1
1
1.47025
1
1.35163
1.47246
1
1
1
1
1.47087
1.46573
1.47312
1
1
1.47444
1.47105
1.4723
1
1.47098
1
1
1
1
1
0.661326
0.83717
0.665981
1
1
1.47054
1
1
1.46838
0.639251
1
1.47032
1.46587
1.44871
0.637665
1
0.648821
1
1.00003
1.47125
1.21328
1.47049
1.4293
1
0.640845
1
1.46955
1.33051
0.640136
1
1
1
0.810462
1
1
1.47853
1
0.652783
1.47227
1
1
1
1
1
1.37859
1.10304
1
1.47087
1
1.47391
1
0.99699
1
1.47244
1.47707
1.47055
1.47228
0.999593
1.47109
1
1.47026
1.47363
1.39608
1
1
0.675331
1.47333
1
1
1.47519
1.47032
1.47349
1
1.47285
1
1
1.00003
1.47663
1.46878
1.12728
1.10113
1.47202
1.4708
0.716518
1
1
1
1
1.00001
1.15427
1
1
1.39358
0.712711
0.999975
1
1.47375
0.999887
0.999831
1.07011
1.4317
1.47367
0.893746
1
0.708661
1
0.998613
1.47145
1.47401
1.47847
0.999039
1
1
0.656128
1
1
1.47155
1.04847
1
1
1
1
1
1
1
0.99994
1.47032
1.00002
1
1
1
1
1.3032
1
1.20857
1
1
1.47154
1.48117
0.636316
0.998797
1
1
1
0.662687
1.47284
1.47148
1
1
1
1
1
1
1
1
1.47246
1.47008
0.656715
1.05168
0.660194
1
0.648811
1
1.46999
1.12272
1
1
0.727358
1
1.449
0.80696
0.996448
0.632266
1
1
1.46943
1.00004
0.996973
0.645861
1.47333
1.47662
1
1
1
1
1.43818
1
1
1.47157
0.998986
1.47126
1.00006
1
1
0.665457
1
1
1.47006
0.639854
0.778227
0.676974
1.47062
0.999337
1
1.476
0.6373
0.644033
1.01689
1
1
1.47323
1.00004
1.21062
1
1
1.47153
0.661065
1
1
1.00014
1.47163
1.00014
1.45592
1
1.00003
1
1
0.722776
1
0.790157
1.00002
1
1.47562
0.672084
1
0.797288
0.791973
1
1
1.47089
1
1
1
1.47293
1.47261
1.00005
1.45065
1.47317
0.771338
1.47133
1.43012
1
1
1.47252
0.999999
1
1
1
1
1.48246
1.47175
1
1
1
1.47089
1.00021
1
0.666459
0.709993
1
1.00003
1.16911
1
1
0.892652
0.608883
1
1
1
1.48033
1.43052
1.4711
1
1
1
1
0.725894
1
1.45974
1
1.4648
0.681718
1.47952
1
1
1
0.642699
1
1.47165
1.00003
1
0.637125
1.17063
1
0.999666
1.4758
0.65299
0.657563
1
1.47271
0.636579
0.661135
1
0.67392
1
1
1
1
0.661881
1
1
1
1
1.46941
1
1.35665
0.681638
1
1
1
0.653365
1.47135
1
1
0.996848
1.47042
1
1.47213
1.47248
1
1
0.720423
0.64012
1
1
0.647748
1.1395
1.20889
1
1
1.47462
0.997359
1
0.997768
1.47074
1
1
1
1
1
1
1.47032
1
1.16184
1.14197
0.72121
1.41612
1
1.47144
1.47009
1
1
1
0.890953
0.699588
1
1.22229
0.999648
1.42508
1
1
1
0.999999
1
1.00694
1.20489
1.47254
1.47323
1
1.47134
1
0.583599
1
0.997219
0.999778
1
0.675431
1
0.663484
1.00002
1.47544
1.47252
0.656663
1.47024
0.644413
0.996025
1.34555
0.677578
1.34637
1
1
0.998401
1
1
1
1.00007
1
0.683481
1
1
1
1
0.999597
1.47078
0.810159
1
1
1
1.03749
1
1
1
1.2771
0.754866
1
1
1
1.05259
1.47345
1
0.687693
1
1.47347
0.884547
0.626852
1
0.656214
1
1
1.44491
0.998235
1.43321
1
1.00938
1
1
1.47236
1
1
1
1
1.0885
1
1.47202
1.47307
1.47333
0.690486
1.47097
0.997032
1.38119
1
1
0.662111
1
1
0.654305
1.47418
1
1
0.999951
1
1
1
0.652853
0.67573
1
1.46762
1
1.21854
1.47028
0.640468
1.3913
1
1
0.671029
1
1
1.4716
1.47095
1.16945
1
1
1.00182
1.47175
0.686407
0.662504
1.47306
1.47133
1.3118
1.18501
1
0.892852
1
1
1
1.44035
1.4689
1.46876
1
1
1.4744
0.666289
1.43043
0.639107
1
0.659134
1
0.675243
1.47161
0.639772
1
0.981846
0.671602
1
1
1
0.861197
1.42986
1.47053
1.47114
1.46753
1
1
1.47277
1
1
1.47108
1
0.648959
1
0.672444
1
1.47233
1
1
1.01878
1.35319
1
0.999147
0.64535
1.47094
1.00001
0.686276
1.08906
1
1
1.37104
1.47255
1.47051
1
1.47359
1.13189
1
1.02461
1.47128
1
1
1
1
1.47162
1
0.679256
1.47075
0.655509
0.675013
0.821322
1.47344
1.15207
1.47108
1
1.46725
0.997335
1.00003
1.47162
1.47322
1
1.46866
1
1.47164
1
1.47203
1
1.00004
0.999965
1.4734
0.654073
0.668192
0.997943
0.999999
1
1
0.67031
1
1.30918
1
0.634521
1
1.18153
1.47162
1.4759
1
1
1.00003
0.999448
1
1.47117
1.47172
1
1.185
1.47211
0.845029
1.47057
1.00041
0.633799
1.09467
0.661046
1
1
1.0784
1.471
1
1
1.04798
0.998571
1
0.673589
1
0.789452
1
1.47345
1
1
0.669301
1.11127
1.06574
0.998506
1.4716
1.47148
0.783058
0.998047
0.675945
0.641327
0.667129
1
1
1
0.999078
0.75169
0.634085
1
1.47132
0.999745
1.47157
1.4712
1.47137
1.47077
1
0.675824
1.4721
0.64186
1
1.47114
1.46976
0.996622
0.804838
1.47032
1.32718
1
0.662235
1
1
1.48261
1
1.02548
1.47242
1
0.674171
0.67386
1
1
0.62518
0.622457
1.46978
1.00004
1
0.664259
0.651945
1.4783
1.46444
1.43971
1.47144
1.12384
0.983446
1.18583
1.46679
1.36862
1
1.22826
1
0.642517
0.882085
1
0.677166
1.47189
1.02288
1.47315
1
1.47067
1.47238
1
1.4719
1.47132
0.671224
1.4767
1
1.47496
1
0.748053
0.660002
1.47092
1
1
1
0.64068
1.47198
1.47256
1
0.669326
1
1
0.684418
1.00004
0.642178
1.47023
1
0.849049
0.627651
1
1
1.25659
1
1
1
1.08069
0.65997
1
1.00001
1
1.47566
0.664331
1
1.47359
0.68651
0.673131
1
1
1.47445
1
1.47023
1.00001
1.47137
0.663325
1
1
0.640386
0.805401
0.673122
1
1
1
1
1.46565
0.658119
1
0.643267
1
1.47848
1
1
0.918515
1
1
0.843982
0.999705
1.00005
1
0.669668
0.679174
1
1
1
1
0.814169
1.4697
1.47066
1
0.647216
0.643842
0.925592
0.662033
1
0.820389
1
0.668213
0.982897
1
1
0.656872
1
1.47193
1.46252
0.654434
1
1
1
1.47254
1
1.04275
0.839412
1.1421
0.653721
1.19018
0.666165
1
1
0.75154
0.905036
1
1.04715
1
1
0.647074
1
0.947081
1.04328
0.647992
1
1.37966
0.782155
0.86669
1
1
1
0.66033
1
0.640691
0.642518
1
0.831021
0.653608
1.06618
0.771085
0.645373
1.47119
1
1.47158
1.25142
0.716225
1.47162
0.6727
0.999041
1.47246
0.999999
1
1.4702
1
0.727597
1
1.06045
1
1
1.47211
1
0.740766
0.822812
1.47097
0.936123
1
0.760426
1.47337
1.47162
0.892334
1
1.47212
1.11929
0.842669
1
1.01608
1
0.672739
1.20259
0.760763
0.741329
1
1
0.658946
1.47144
0.974487
0.653737
0.641557
0.886141
1
1.01802
1.4713
1.47007
1
1
0.999999
0.665969
1.21991
0.999986
1.47294
1.42116
0.636771
1.00001
1.08317
0.867985
1.28788
1.40093
1
1.04462
1
1.00006
0.664452
0.850224
1
1
0.820344
0.667436
1.03798
1
1.00002
0.670157
1.21157
1
1.46399
1
1.03249
1.25131
1
1.45768
1
1
1.4709
1
0.645581
1.47318
0.707588
1.12859
1
0.645256
0.999921
1
1.00003
1
0.796866
1.02608
0.662716
1.3524
1.47083
0.647133
1
1
1
1
1
0.975584
0.64137
1.04966
0.658009
0.657937
1.07746
1
0.999799
1.11887
1
1
0.653312
0.991597
1
1
1.12518
1
1.47014
1
1.47324
1.09145
1.00749
0.64989
1
1
0.68557
1
1
1
1
1.47159
1.04484
0.99804
1
0.647888
1.05224
0.999999
1
1.30663
1
0.657239
1.47257
1
1.00001
1
1.46946
0.655366
0.870824
0.658947
1.35415
1.48039
1
1
1.47107
1
0.628973
1
1
1
1
1
0.764158
1
1.46921
1
1
1.16172
1.46989
0.679168
0.853192
1
1.47163
1
1
1
1
1
1.47429
1.47333
0.624424
1.47232
0.638145
1
1
1.47145
1
1.4734
0.987655
1.0283
1.07281
1.47139
1.07022
1.31271
0.643103
1
0.651859
0.972334
1
1.47358
1
1
0.632551
1.47303
1
1.47311
1
1
1
1
1
1.00001
0.636782
1.47072
0.843847
1.47248
1
0.662796
0.669173
0.709563
1.47591
1.46962
0.980884
1
0.772275
1
1.18639
1
1.46879
0.646688
0.672267
0.846557
1
1.4735
1
1.0773
0.695397
1
1.47234
1.4073
0.998845
1
1.47139
0.657031
1.48051
1.4726
1.47752
0.646773
1.08751
1
1
0.635376
1
0.78662
0.806051
1
1.00002
1.47164
1
1.47716
1.08704
1
1.04443
1.47992
1
0.661498
1
0.78137
1
1
1.38191
1
0.802513
1
0.662392
1.04033
0.951787
0.649757
1.47074
1.39426
1.47191
0.656506
0.709371
0.995682
0.999999
1
0.707263
1.44358
0.670128
0.999966
1
1.47232
1.47214
0.920094
1
0.660712
0.730256
1.31228
0.966755
0.639916
0.999999
0.664075
1.10773
0.66296
1
1.00006
0.82961
1.47162
1.47099
0.860257
0.999588
1
1
0.737988
1
0.648988
1
0.633104
0.672344
1
1
1.00003
0.658453
1.47169
1
1
1.00006
1.00004
0.634918
1.47164
1.47138
0.999999
0.663886
1.47201
1
1.09002
1
1
1.47341
0.650532
1
1
0.677685
0.752203
0.668078
0.670814
1
0.732658
0.997198
1.08906
0.640441
1
1
1.12931
1
1.4173
1
1
1.3177
0.686083
1
0.642133
1.12637
1.47298
1
1
0.656057
0.653128
0.638654
0.756929
0.661205
1.35249
0.999414
1
1
1
1
1.47228
0.683277
1
0.92117
0.99968
0.998575
0.999942
0.783035
1.12314
1
1.47154
1.47247
1
1
1.45642
1.00004
0.999999
1.4713
0.640909
1.46635
0.999999
0.659928
1.4726
1.00005
1
0.833889
1
0.651767
1
1.4714
1
1
1.47443
1
1
1.47708
1
1
1
1.46952
1
0.757242
0.734519
1
0.637477
1.46951
1
1
0.969696
1
1.4792
1.26501
1.37509
1
1
0.672899
1
0.667959
1.47166
1.47057
1.47103
1
1.47054
0.652173
1
0.653576
1.37555
1.44491
1.47069
1.47105
0.78205
0.643026
1
1.31494
1.47123
1.47041
1.47158
0.722015
1.16624
1
1.35132
0.762767
1
1.00002
1
1.00002
0.881843
1
1.47135
1
1
1
1
1
1
1.00006
1.47024
1
1.47778
1.34818
0.670377
1.46996
1.02862
1.23423
1
1.47229
1
0.653129
1
1
1
1
1.4013
1
0.642415
1.47238
0.634153
1.46966
1.37296
1.24404
1
1.08675
1.21771
0.995697
0.643551
0.753468
1.00002
0.999999
0.91851
1
0.658761
1.47092
0.647813
0.940814
0.839742
1
1
1
1.01412
1
1
0.659581
0.996552
1.47041
1
1.47219
1
0.653649
1
1
1.47119
1.4728
0.638337
1
1.47244
1
0.784118
0.649308
1.47026
1.42162
1
1.07438
1.47148
0.99866
1
1.18546
1.41199
1.47282
0.996024
1
0.999998
1.3974
1
1
1
1.472
0.998507
1
1
1.47383
1
1
0.656382
1
1
1
1.47087
1
1
0.849634
1.14553
1.4253
0.753545
1
1.47072
1
1.16016
1
1.46875
0.997277
1.47118
1
0.654378
1
1.32488
1
1
1.43864
1.00001
1.47064
1
1.47618
0.705358
0.660282
1.4718
1
1.40959
1
1.47147
1
1
1.00005
1.47332
1.47375
1.12167
1.47073
0.995979
0.657801
1.47272
0.88349
1
1.46957
1
1.47432
1
1.47357
1.47183
0.996352
0.657827
1
1.47044
1
1.03351
1
1
0.997975
0.757159
1.41953
1
1.42052
1
0.85641
0.656387
1.47309
1.47505
0.687768
1
1.47096
1.4688
1.47049
0.705751
1.47217
0.665827
1.4714
1.46348
1
1
1.47296
1
1
1
1
0.675954
1
1
1.47152
1.47041
1
1.47141
1
1.46911
1.47227
1
1.39187
1
0.637025
1.47235
1.35316
1.12643
0.631031
1.47159
1
1
0.648019
1
1
1.47222
1
1
0.758923
1
1.47282
1.00009
1.47215
0.6438
1.47109
1
1.4717
1.45269
0.8931
1
1.46989
0.75783
1.47834
1.33115
1.47401
1.47542
0.997221
1.47122
1.47372
1.47135
1.47002
1.00107
1
0.640853
1
1.47001
0.8353
1.42615
1
1.46318
1
1
1
1
1
1.46927
0.652397
0.649271
1.47141
1.47303
1
1
1
1
1
1.46812
1.45277
1.47124
1.01676
1
1
1
1.00003
1.4699
1.47126
1
1.4715
1.47211
0.653393
1.32472
1
1.47207
1.47177
1.4682
0.998068
1.47209
1.47024
1
1.42883
1
1
1
1
1
1
1.47058
1.47099
1.43737
1.47111
0.645484
0.707827
1.4715
1.47113
1
0.672452
0.95189
1
1.22121
0.634534
1
0.99946
0.998253
0.664529
1
1.47326
1
1
1
1.4721
0.951791
1
1.47193
1.47339
1
1.47028
1
1
1.47148
1
0.668912
1
1.47303
1
1
0.642039
1
1.47148
1
0.641822
0.664025
1
1.45284
1
0.637379
0.873449
1
1.47175
1
1
1
1.47442
1
0.665714
1.06927
1.47074
1.47307
1.47264
1.04876
1.47347
1.47288
1
1.00002
1
1
1.00001
1.47138
1
0.999298
1.47791
1
0.634812
1
1.47116
1.21887
1.04305
1.21683
1.06257
1.47805
0.720813
1.47185
1
0.667301
0.997141
1.47128
0.952899
1.47123
1.4744
1.45219
1
1.4722
1.47143
1.47176
1
1.00004
1
1
1.47037
1.32954
1
1
0.650152
0.996671
1
1.47249
1
1.47162
1.47113
1.47308
0.906163
1.46991
1.47064
0.983912
1.22558
1.47094
1.47306
1
1.4337
0.818394
1.44085
0.991677
1.47097
1
1.47145
1.47297
1
0.65635
0.945137
0.69283
1
1.07185
0.996477
1.47145
1
1
0.996413
1
1.2332
1.46165
1
1
1.47232
1
1
1.33462
1.47184
1.45246
1.47285
1.47198
1
1.47052
0.703509
1.47112
1
0.978446
0.667521
1
1
0.75669
1
1.14967
1
1.47323
1
1.46279
1.28981
0.657891
1
1
1
1
1
1.47035
1.01156
1
1.47115
1
1.46836
1.47153
0.999999
1