/*--------------------------------*- C++ -*----------------------------------*\
  =========                 |
  \\      /  F ield         | OpenFOAM: The Open Source CFD Toolbox
   \\    /   O peration     | Website:  https://openfoam.org
    \\  /    A nd           | Version:  12
     \\/     M anipulation  |
\*---------------------------------------------------------------------------*/
FoamFile
{
    format      ascii;
    class       surfaceScalarField;
    location    "3.62";
    object      phi;
}
// * * * * * * * * * * * * * * * * * * * * * * * * * * * * * * * * * * * * * //

dimensions      [1 0 -1 0 0 0 0];

internalField   nonuniform List<scalar> 
33852
(
0.000251329
2.24281e-05
-0.000273757
-0.000246121
1.32441e-05
0.000232877
-0.000176454
-7.25508e-05
0.000249189
0.000304053
-0.000163969
-0.000140085
0.000291188
-4.2546e-05
-0.000249041
2.72441e-05
-0.000260681
0.000233437
0.000315687
1.47751e-05
-0.000330079
0.000304277
-9.59564e-05
-0.000208321
0.000286413
-3.50841e-05
0.000182949
2.899e-06
-0.000177609
0.000289674
-0.000366779
7.71207e-05
0.000361708
-4.5841e-05
-4.39602e-05
0.000263285
-0.000219325
-4.38701e-05
0.000318301
-0.000274452
6.19161e-05
-0.000237899
0.000252057
1.2236e-05
-0.000264293
0.000264853
-1.2796e-05
-0.000278433
3.23121e-05
0.000340734
-5.11698e-05
0.000158593
0.000112308
-0.000270901
-2.43719e-05
0.00030323
-0.000278882
0.000271377
-0.000276165
4.78802e-06
-1.78013e-05
0.000274363
-0.000257523
-0.000233221
1.54559e-05
0.000216132
-0.00015346
-0.000183454
0.000336971
-0.000148101
-7.03549e-05
0.000223964
3.72401e-05
0.000267037
-6.10983e-05
-0.000262668
0.000323909
-0.000199542
1.60856e-06
0.000195167
-0.000211891
-2.00096e-05
0.000142045
0.000137388
-0.000279433
0.000342268
1.93167e-05
0.000142618
0.000128347
-0.000270965
-0.000101136
0.000259729
-0.000250489
-3.78001e-06
0.000254269
0.000330721
-5.95531e-05
-0.000271153
-0.000357034
0.00020331
-0.000227621
0.000209274
0.000231645
3.32081e-05
-5.65602e-06
0.000237301
-7.58348e-06
0.000216429
-0.000232625
0.000259869
0.000316355
-5.73909e-05
-0.00025943
-0.000309093
5.51042e-05
0.000253989
0.000239981
-0.000301029
0.000273589
-0.000306321
3.27321e-05
-0.000180237
-5.49362e-05
0.000235173
0.000272133
-0.000272133
0.000148429
-0.000297473
0.000149045
-0.000209215
0.000217325
-7.31293e-06
-0.000268241
0.000237301
3.09401e-05
-0.000204151
0.000253366
-4.778e-05
-9.16164e-05
-0.000217477
-0.000114723
-0.000251927
-0.000280169
0.000266113
1.40561e-05
0.00032939
1.19141e-05
-0.000250433
7.01963e-05
0.000117908
0.000145909
-0.000263817
1.34681e-05
-0.000267457
0.000253989
-0.000134569
0.000282997
-0.000155457
-5.21092e-05
0.000209942
-0.000274681
0.000245113
2.95681e-05
0.000237553
-0.000268437
3.08841e-05
-0.000185583
-2.25651e-05
0.000151665
0.000115565
-0.00026723
-0.00018942
-2.86065e-05
0.000218077
0.000263985
2.24281e-05
0.000275941
-2.35201e-06
0.000265329
-0.000250741
-1.45881e-05
0.000221491
-6.26075e-05
-0.000150196
-1.82001e-06
0.000239373
0.000365814
-0.000312162
-5.37563e-05
-2.83476e-05
0.000303706
-0.00027557
-0.000101584
0.000219493
0.000342261
2.41013e-05
-0.000372862
0.000354697
1.84602e-05
-0.000212632
2.23543e-05
0.000309979
-0.000321664
1.24213e-05
-0.00020721
0.000269802
-6.38255e-05
-4.45202e-06
1.7072e-05
-0.000319052
0.000301976
0.000235334
-0.000200203
-3.53154e-05
0.000268644
-0.000339248
6.9974e-05
0.000331856
-6.32893e-05
-0.000268941
0.000236573
3.23681e-05
-0.000129388
-0.000132609
0.000261997
-1.86761e-05
-0.000249565
-1.022e-05
-0.000258721
2.30694e-05
0.000212101
-0.000236203
2.89944e-05
-0.000203036
0.000181866
-2.5065e-05
0.000328155
-0.000303284
-0.000279329
0.000273701
5.62802e-06
0.000156129
-0.000296857
0.000140729
-5.80657e-05
-0.000149243
0.000197105
0.000143277
0.0001218
-0.000265077
-0.000250016
0.000225653
-0.000209367
0.000143505
-0.000168813
0.000327181
-0.000158369
0.000185389
7.16523e-05
-0.000257041
0.000255193
2.07481e-05
-0.000192277
0.000148317
5.01386e-05
0.000265869
0.000306903
-0.00028981
9.46493e-05
-0.000234508
0.000135241
0.000117096
-0.000281065
-1.30884e-06
0.000245334
-0.000242982
0.000166489
0.000122836
-0.000289325
0.000144201
8.99703e-05
-3.92002e-06
0.000259113
0.000304725
5.3859e-06
-0.000324132
0.000315374
8.98543e-06
-3.99002e-05
0.000236293
-0.000196393
4.08802e-06
-0.000284257
-2.50205e-05
0.000168139
-0.000143545
-0.000160285
0.000134608
0.000193875
-0.000156219
-0.000269921
0.000264965
4.95602e-06
2.64041e-05
0.000174721
-0.000201125
2.87841e-05
-0.000257265
0.000228481
0.000276137
-0.000262669
0.000115108
0.000212073
0.000215785
-0.000193167
-0.000175813
0.000202217
1.37818e-05
0.000282534
-0.000296891
0.000269072
2.21416e-05
0.000272319
-0.000284209
1.24289e-05
3.86402e-06
0.000267513
-1.81745e-05
0.000290545
0.000330588
9.99196e-06
0.000213645
-0.000257559
0.000316401
-0.000316637
-6.63603e-06
-0.000272693
2.73393e-05
0.000204953
0.000187993
3.98722e-05
-0.000227865
-5.7116e-05
0.000217499
-0.000175959
0.000153609
-0.000270285
0.000116676
0.000279441
-0.000329701
5.02602e-05
-6.38122e-05
0.000249201
-0.000166909
0.000315897
-0.000148989
-0.000313932
-1.00208e-05
-0.000214929
0.000175029
2.78601e-05
-0.000278349
0.000276221
-1.88441e-05
-0.000248613
1.71851e-05
-0.00030314
0.000286024
0.000344989
-0.000158593
-0.000186397
-1.66807e-05
-0.00024118
0.000257949
-0.000266617
-3.30401e-06
0.000224001
2.45841e-05
-0.000248585
0.000284509
-0.000128381
0.000140197
0.000138853
-0.000279049
-0.000198479
-1.08888e-05
0.000258169
-0.000115551
0.000225745
-0.000242576
-6.38122e-05
0.000251805
-0.000209557
0.000249481
-5.60002e-07
-0.000248921
0.000255109
-0.000237441
-0.000325188
0.00029998
-3.08841e-05
0.000203169
-0.000172285
0.000291686
1.22422e-06
-0.000293285
7.42262e-05
0.000131065
-0.000210035
4.81096e-05
-0.000200565
-0.000288155
-4.68665e-06
0.000293877
-1.50095e-06
-0.00028658
0.000146973
-0.000273925
0.000126952
-0.00026362
0.000219943
-0.000293688
0.000265908
0.000279441
-0.000311842
-1.24046e-05
0.000323949
0.000109841
0.000159882
-2.14023e-05
0.000352091
0.000140141
0.000139833
-0.000279973
0.000245029
-0.000250349
5.32002e-06
-0.000210953
0.000180069
0.000279133
-5.43202e-06
0.000351048
-3.27347e-05
-0.000303259
0.000305895
-3.58926e-06
0.000270985
-0.000270985
-0.000364769
0.000225949
0.000138698
-0.000213307
2.00242e-05
1.68093e-05
0.000275157
-0.000278461
3.30401e-06
-4.59229e-06
0.00016953
-0.000159374
-0.000197345
0.000254801
-5.74562e-05
-0.00020399
4.37794e-06
-0.000246527
0.000164782
8.55859e-05
-0.000180264
0.000261398
-8.11306e-05
0.000256285
-0.000287113
3.08281e-05
-0.000249229
5.18842e-05
-2.33548e-05
0.000276152
-0.000252988
-0.000253547
1.35801e-06
0.000252189
0.000231281
-7.28003e-06
-0.000293623
7.64375e-06
0.000285942
-0.000266085
0.000266085
-0.000285057
-5.52888e-05
-0.000170819
-0.000194072
-0.000171164
0.000218637
-4.50188e-05
-1.232e-05
-0.000239177
0.000251497
3.10801e-06
0.000210113
-0.000213221
-0.000186257
-2.27096e-05
0.000209935
7.60335e-06
0.000294602
-0.000302544
-0.000236153
-1.34401e-05
0.000249593
1.50361e-05
-0.000251189
-0.000241025
0.000256061
-0.000301641
0.000308756
0.000256117
7.16803e-06
-0.000169308
-3.16601e-05
0.000196045
-0.000145237
-0.000134765
-0.000244329
0.000240549
0.000298698
-4.18456e-07
-0.000298554
-0.000298783
6.81256e-07
0.000298245
1.93171e-05
0.000181217
0.000163773
7.70045e-05
-0.000257269
-0.000159242
0.000310908
0.000250721
-0.000108677
-0.000235145
-1.83681e-05
0.000253513
-0.000204651
-0.000126738
0.000331414
-6.10402e-06
-0.000229125
0.000235229
-2.22658e-05
-0.000190582
-0.000286763
-8.55715e-05
6.19845e-06
-0.000300403
-0.000212621
0.000327965
-0.000115667
0.000281597
0.000288205
-5.16322e-05
0.000271993
-1.57081e-05
-0.000187812
-1.41527e-05
0.000201653
0.00029695
3.63993e-07
-0.000297329
-0.000267651
-3.34814e-05
-0.000218821
0.000247605
-2.52452e-05
0.000310618
-0.00028539
0.000181395
7.84701e-06
-0.000189481
-3.39276e-05
0.000212603
-0.000301288
0.000276021
0.000292525
5.82962e-06
-0.000298551
0.000157445
0.00011886
-0.000276305
0.000288413
5.41589e-06
-0.000294146
-0.000245389
0.000120682
0.0001292
-0.000281789
0.000295341
0.000302513
-0.000156857
-0.000145657
0.000207005
-0.000203897
-0.000232009
-0.000121156
-0.000155009
-3.96059e-06
-0.000293455
0.00029777
-1.0136e-05
0.000276249
0.000289747
-2.05852e-05
-0.000268543
-0.000262927
2.88205e-05
0.000234111
0.000271433
-0.000267569
0.000249621
2.95121e-05
0.000315035
-9.70112e-06
-0.000305045
4.97963e-05
0.000152183
-0.000212055
-0.000100898
0.000199155
-9.7512e-05
0.000252617
-2.91201e-05
-0.000223497
4.6621e-07
0.000291513
-0.000171588
-3.1764e-05
0.00020648
-1.54334e-06
0.000290879
-9.33244e-05
0.000246933
-0.000255417
-5.26402e-06
0.000121184
0.000181329
1.34121e-05
0.000241557
-0.000254969
0.000236097
1.34961e-05
-0.000249593
0.000249509
-0.000242929
0.000256425
6.30768e-05
-0.000201086
0.00013814
-0.000215497
0.000115877
-0.000207019
0.00029753
1.35965e-06
-0.000298891
0.000253849
2.22881e-05
0.000268493
-0.000216441
-5.20522e-05
0.000225518
-0.000246849
2.13305e-05
0.000257909
1.40841e-05
5.87311e-05
0.00029536
0.000267186
-3.89594e-05
-0.000228226
0.000173085
1.274e-05
0.000240297
-0.000253037
0.000195346
-0.000114944
-8.0012e-05
-0.000205622
2.15834e-05
-1.31712e-06
-0.000298105
0.000299489
0.000216673
-0.000166897
-5.22942e-05
0.000344543
-4.13538e-05
0.000275969
-0.000135829
2.31561e-05
0.000238337
-0.000261493
-0.000231141
0.000254297
-2.6697e-05
-0.00022971
0.000256414
0.000153786
-0.000154837
-7.4717e-05
-0.00016623
-0.000261723
4.14346e-05
0.000220288
-3.17521e-05
-0.00022997
7.04161e-06
0.000261717
-3.25193e-05
-0.000229198
1.66681e-05
0.000125593
-0.000188841
0.000308785
-0.000171397
0.000262319
-3.57923e-05
-0.000226526
-0.000319055
0.000173056
-9.91959e-05
-0.000228453
-6.90203e-05
1.63773e-07
-0.000300456
0.000300006
-2.74432e-05
0.00018633
-0.000157548
0.000308253
6.8316e-06
0.000250097
-0.000248249
-1.84801e-06
-0.000175708
6.14306e-05
0.000260277
-3.07289e-05
-0.000229519
0.000197345
-0.000250769
5.34242e-05
0.000254206
-0.000231206
-2.29991e-05
-0.000252337
0.000240017
0.000147401
0.000103307
-0.000101864
-0.000170269
0.000132496
-0.000261885
-0.000290249
0.000242201
4.80482e-05
0.000216809
3.12469e-05
-0.000248056
-0.000236834
-9.34551e-06
0.000246156
0.00032641
-2.31203e-05
0.000263996
-3.42721e-05
-0.000229724
0.000142117
-0.000237468
9.10046e-05
3.63259e-05
-0.000265637
0.000229311
-0.000253905
0.000121296
0.000249817
-5.24722e-05
0.000294673
-0.000154253
-0.000140421
0.000122248
-0.000289157
1.53441e-05
0.000237665
-0.000253009
-0.000262031
3.54705e-05
0.00022656
-2.77002e-06
-3.77917e-05
-0.000224239
0.000248293
-0.00027225
-0.000264649
3.44737e-05
0.000230175
0.000193257
0.000101416
-0.000149941
0.000290137
-0.000168074
-3.79047e-05
0.000204139
-1.81721e-05
0.000263201
-0.000293376
0.000310582
0.000114746
0.000101911
0.000261325
-0.000261325
0.000315971
-2.3483e-05
-0.000290146
5.32002e-07
0.000248949
0.000254857
1.65761e-05
0.000309018
-0.000275779
-3.30831e-05
-2.26336e-05
0.000266577
-0.000243943
3.00077e-05
-0.000260519
0.000230511
-0.000252139
0.000229506
0.000327851
3.11501e-05
-0.000260598
0.000229447
0.000276809
-3.16961e-05
-5.46709e-06
-0.000295813
0.000300518
0.000270538
3.88669e-05
0.000230245
-0.000266617
3.63721e-05
0.000201878
-0.000202245
-0.000258301
0.000238533
1.97681e-05
0.000169762
-0.000257245
8.74835e-05
-0.000217959
0.000163241
-0.000249145
8.59043e-05
-0.000266169
0.000224813
4.13562e-05
0.000253073
-2.78797e-05
-0.000225194
0.000160005
4.04698e-05
-0.000234837
-2.29601e-05
0.000257797
-0.000236377
-2.28761e-05
0.000259253
-1.94265e-05
0.000255969
-0.000236542
-0.000259345
0.000239919
-3.48654e-05
0.00017467
-0.000235929
-2.24001e-05
0.000258329
-0.00025484
0.000229192
2.56481e-05
2.94001e-06
0.000211289
-0.000214229
-0.000267031
3.79849e-05
0.000229046
0.000270677
4.48002e-06
4.19865e-05
0.000158882
-0.000199968
-3.31198e-05
0.000249928
-2.09801e-05
0.000218597
9.73004e-05
0.000248198
-0.000216955
0.000276736
-0.000278146
0.000277655
-0.000281162
-1.84997e-05
0.000258601
-0.000240101
-0.000261644
0.000243145
3.08107e-05
-0.000201828
-2.95463e-05
-0.000205479
0.000235249
0.000315126
-0.000287576
-2.74576e-05
0.000261297
-3.11081e-05
-0.000230189
3.28739e-05
-0.000262362
0.000229488
-0.000229853
0.000259645
-2.97921e-05
0.000325707
-1.76291e-05
0.000143448
-0.000198482
0.000256929
-0.000109956
-0.000286584
0.000287679
0.000241977
-6.41202e-06
-0.000235565
0.000228537
-0.000186057
-3.77678e-05
0.000224407
2.8467e-05
-0.000212676
-0.000239989
0.000260317
-2.03281e-05
-9.83972e-05
0.000181015
-8.31728e-05
3.03138e-05
-0.000202594
0.000240169
-0.000263424
2.32552e-05
-0.000115584
0.000258861
-0.000243993
0.000265721
-2.17281e-05
-0.000238953
0.000232541
0.000258626
-0.000245105
-1.35213e-05
0.000264349
-2.46681e-05
-0.000246317
-0.000272769
-1.04491e-05
0.000298959
-5.30799e-05
-6.98715e-06
0.000292853
-0.0002869
-0.000161688
0.000203197
0.000230597
1.73805e-05
-0.000245922
0.000328558
-0.00032854
0.000260955
-0.000245018
-1.59377e-05
-0.000301641
-6.59495e-07
0.000305462
9.68429e-06
3.76853e-05
0.000169659
-0.000213989
0.000215278
-3.50376e-05
-0.000180374
0.000278054
-0.000255789
-2.22648e-05
-0.000203337
3.11664e-05
3.15421e-05
-0.000261891
0.000230348
0.000285527
-0.000291713
2.44721e-05
-0.000259617
-0.000257965
1.87881e-05
0.000266057
-1.64361e-05
0.000151173
-0.000267625
0.000116452
0.000298347
-4.39005e-06
0.000238617
-7.53763e-05
2.12521e-05
0.000177045
-0.000198297
-0.000183877
0.000205129
-0.000236275
0.000257219
-2.09441e-05
0.000261462
-3.31689e-05
-0.000228293
-0.000197009
-5.21362e-05
0.000251581
-1.48401e-06
8.91597e-06
-0.000265023
0.000255999
-0.00034344
0.000236406
0.000106573
0.000266371
-0.000236811
-2.95597e-05
0.000306902
-0.000314791
7.70227e-06
-2.57041e-05
-0.000229097
0.000254801
0.000261493
-7.64403e-06
1.02152e-05
-0.000209737
0.000262411
-3.19033e-05
-0.000230508
-6.90483e-05
-0.000260653
-0.000194685
0.000248025
-5.33402e-05
-0.000266533
0.000249985
1.65481e-05
-0.000318343
1.67164e-05
-1.73026e-05
0.000296927
-0.000279218
-0.000276221
1.65481e-05
0.000249537
-0.000162772
6.29315e-05
0.000273204
1.48182e-05
-0.00028878
-0.000315603
0.000307251
8.20193e-06
3.46641e-05
-0.000263649
0.000228985
-1.7499e-05
0.000280788
-0.00031505
1.62729e-05
-0.000176541
-7.42283e-05
-0.000232148
0.000201425
-2.16721e-05
-0.000216469
0.000238141
-0.000314388
0.000295868
1.88576e-05
-0.000130298
0.000272344
-0.000140952
-8.27044e-06
3.31521e-05
-0.000263453
0.000230301
-0.000203417
2.44781e-05
0.000172577
0.000221508
0.000280414
-0.000280526
2.51098e-07
-0.000236993
-2.20921e-05
0.000224813
-0.000202721
0.000139273
0.000143753
-0.000278517
0.00019987
-5.65997e-05
0.000307931
-1.0562e-05
0.000209311
-0.00026872
2.92853e-05
0.00022306
-0.000252345
-0.00032136
0.000138682
0.000296283
2.91845e-05
1.94091e-05
-0.000224355
-2.77845e-05
-0.00013619
-0.000132715
-0.000326118
0.000113498
0.000242873
2.56201e-05
0.000218765
-0.000224869
1.11292e-05
-0.000287933
0.000276922
-0.000243358
0.000270371
-2.71822e-05
0.000281303
-0.000282135
0.000286627
-7.72181e-05
-8.89709e-06
0.000289868
-1.87881e-05
0.000247101
-0.000228313
0.000281172
-0.000290258
-5.69861e-06
-0.000284024
0.00028953
0.000281883
-0.000270046
0.000284304
0.000226314
2.67597e-05
-0.000308167
0.000317957
-8.27942e-06
0.000251967
-2.09398e-05
0.000227271
2.44762e-05
-0.000268913
0.000246057
-2.05381e-05
-0.000259401
3.02849e-05
0.000229116
0.000178305
7.64963e-05
9.90685e-06
0.000281211
-0.00029168
-0.000238141
-2.88401e-05
0.000266981
2.51441e-05
-0.000263285
0.000284117
-0.000162317
-0.000232177
0.000261129
-2.89521e-05
-0.000234697
0.000260709
-2.60121e-05
1.43806e-06
0.000279136
2.45001e-05
-0.000259197
2.38001e-05
-0.000255977
0.000274242
-0.000242977
-3.13537e-05
0.000317327
-9.9476e-06
-0.000307041
-1.37306e-06
-0.000255753
1.1816e-05
0.000243937
-1.54357e-05
-0.000261185
0.000228065
-0.000245337
0.000270145
-2.48081e-05
-0.000263229
1.49801e-05
-2.36487e-05
0.0002863
-0.000263033
2.13641e-05
-0.000266701
-0.000241521
-2.1365e-05
3.27787e-05
-9.0432e-05
0.000260194
0.000280519
-0.000286333
5.05122e-05
0.000237693
0.000281907
-0.000281361
-0.000243181
-2.39401e-05
0.000267121
-0.000260894
7.34723e-06
-0.000295826
1.93916e-05
0.000276369
-0.000268717
2.55361e-05
-8.33001e-06
0.000290636
-0.000268326
0.000243549
2.47773e-05
-0.000232513
0.000210841
0.000280616
-0.000288859
-6.16002e-07
0.000260289
-0.000259673
-0.000301846
-1.61525e-05
-0.000264573
2.35481e-05
-0.00024417
-2.41555e-05
-3.43281e-05
-0.000297247
0.000293406
0.000286674
-0.000158327
0.000295842
-0.00029119
2.30152e-05
4.83098e-06
0.000261972
-0.000254998
-7.17507e-06
0.000307277
-2.02464e-05
-0.000287016
5.92701e-05
-0.000246765
-2.19521e-05
-0.000356633
0.000242168
0.000282101
-0.000276142
2.33801e-05
-0.000184857
-1.54079e-05
-0.000306252
2.56103e-05
0.000280791
-0.000197147
0.000310784
-0.000113845
0.000259841
-0.000238533
-2.13081e-05
-0.000291346
2.94001e-05
0.000222097
-0.000251497
-0.00016907
0.000143631
-0.000170754
0.000251441
-0.000238029
-1.34121e-05
-0.000263873
3.40201e-05
-2.23161e-05
-0.000269837
0.000251469
0.000230427
3.12901e-05
-4.56289e-05
0.000191788
0.000232619
-0.000260499
-1.73481e-05
-3.17635e-06
0.00024654
-0.000242861
-0.000293986
-0.000237049
0.000265189
-2.81401e-05
0.000230096
3.22225e-05
-0.000268521
2.55921e-05
-0.000239905
-2.86161e-05
0.000228954
-0.000260706
-0.000282758
4.73202e-05
-0.000242005
0.000293451
-0.000282915
-0.000288576
1.33845e-05
0.000275626
-4.27587e-06
0.000219252
0.000228551
-0.00026107
0.000296885
-0.0001309
-0.000165985
0.000241683
-0.000261419
0.000271243
-0.000226213
-1.76681e-05
-0.000164809
0.000308944
-0.000142913
2.49649e-05
0.000222662
-0.000247627
-0.000192274
0.000193891
-0.000283687
0.000282655
7.08754e-06
-0.000290479
-0.000302485
0.000146693
0.000155793
0.000259995
-0.000239359
-2.06361e-05
-0.000215741
0.000193649
0.000261509
4.13216e-07
0.000257293
0.000232526
2.16799e-05
-0.00029519
-6.26647e-05
1.04601e-05
0.000234161
-0.000252131
1.75968e-05
-0.000230917
-2.37161e-05
0.000254633
-0.000242295
0.000263191
-2.08965e-05
8.34248e-05
0.000134691
2.01876e-05
-0.00030564
0.000285228
0.000256565
-1.80041e-05
-0.000238561
0.000243881
-0.000254017
1.0136e-05
-0.000226745
0.000207957
0.000223131
-0.000258923
-0.000244693
4.76842e-05
1.59418e-05
-0.000137589
-0.000218641
1.57921e-05
0.000245701
0.000280941
0.0002939
0.00030578
1.76248e-06
0.000249817
-0.000220417
2.51749e-05
0.000225009
-0.000250184
-0.000243178
0.000268865
-2.56873e-05
2.28201e-05
-0.000262725
-0.000113086
0.00029619
9.13868e-06
2.08181e-05
0.000261675
-0.000235103
-2.65721e-05
1.31968e-05
-0.000303816
0.00029067
0.000321646
-3.09117e-05
-0.000290817
0.000249733
1.63241e-05
0.000306206
-0.000292937
-0.000230937
-0.000112645
9.63204e-06
0.000250657
-4.9129e-05
-0.00020239
0.000251519
2.20333e-05
0.000246832
-0.000241686
-2.29629e-05
0.000260737
-2.24001e-05
0.000287697
-0.000268023
2.63369e-05
2.68241e-05
-0.000257965
0.000210617
-0.000207677
2.58161e-05
-0.000262865
0.000280102
0.000121744
-0.000256173
0.000134429
1.77801e-05
3.78358e-05
0.00015634
-0.000195032
-0.000239485
-2.85377e-05
3.99841e-05
0.000165288
-0.000206764
-0.000246691
0.000271066
-2.43747e-05
0.000209866
-0.000248826
1.98857e-05
1.72697e-05
-0.000171191
-3.05723e-05
0.0002267
-0.000257411
-2.88401e-05
0.000244245
-0.000215405
-2.16161e-05
0.000242985
-0.000221369
0.000201657
-0.000250786
-0.000273496
-0.000232905
-2.55081e-05
0.000258413
0.000241234
2.98318e-05
-0.000213061
-2.38204e-05
0.000237249
-2.18821e-05
-0.000224967
-0.000239345
6.28042e-05
0.000259004
-0.000229718
4.75106e-05
-0.000249901
-3.43393e-05
0.000257694
-0.000223354
0.000205675
-0.000240014
0.000261689
-1.1956e-05
-6.06764e-05
-0.000229572
-0.000222798
-1.73772e-05
0.000238672
0.000247109
5.3175e-05
0.000212448
-0.000265623
-0.000261108
0.000177353
-0.000231757
5.44042e-05
6.40482e-05
0.000135948
0.000259457
-0.000240915
-2.47224e-05
-0.000265385
0.000227165
3.82201e-05
-2.87813e-05
-0.000222158
0.00025094
-0.000284343
0.000264161
0.000234501
3.61761e-05
2.18821e-05
0.000234087
-0.000307217
0.000151089
0.000156129
0.000167991
-5.14291e-05
0.000254045
-0.000115192
2.56901e-05
0.000217446
-0.000243136
-0.000286087
0.000286691
9.20241e-06
0.000257377
-0.000245953
0.000208937
3.70161e-05
0.000254832
0.000247014
-1.94376e-05
-0.000246815
-2.02161e-05
-0.000263019
2.0724e-05
-0.000269215
2.24001e-05
2.79601e-05
0.000220024
-0.000247984
0.000242481
-0.000274597
1.32721e-05
0.000247232
-1.35579e-05
1.2827e-05
-0.000250257
-0.00032878
0.000124149
-0.000233135
-2.62109e-05
-0.000252113
0.000252113
0.000259782
-0.000144217
-1.85727e-05
-0.000278162
0.000296649
0.000275939
0.000258749
-0.000135913
0.000224113
2.39205e-05
0.00023468
7.81036e-05
-0.000340989
3.775e-05
0.000258962
1.76363e-05
-0.000248843
-3.00917e-05
0.000207453
-3.01001e-05
0.000259701
2.95429e-05
0.000218353
-0.000247896
-3.05014e-05
-4.09782e-05
-0.000217818
0.000258797
-0.000233423
-2.14173e-05
3.71832e-05
-0.000197505
0.000157021
-3.30877e-05
0.000221671
-0.000255943
-0.000281754
-8.32317e-06
0.000290226
-0.000192391
0.000157018
0.000166349
8.16763e-05
1.2859e-05
-0.000294513
0.000235075
2.59446e-05
-0.000261019
-0.0001985
-1.25068e-06
0.000232743
-0.000264287
3.15449e-05
-8.42803e-06
-0.000217029
0.000225457
-0.000163847
0.000196407
-0.000249985
-3.46025e-05
0.000256274
0.000218076
-0.000252679
-0.000246289
0.000272245
-2.59561e-05
0.000253547
2.78321e-05
-0.000232062
-2.95821e-05
-0.000298241
0.000316437
-1.82002e-05
2.33478e-05
0.000212462
-0.000250254
-0.000267233
2.09441e-05
-2.12801e-05
-0.000245953
-3.61481e-05
0.00024861
-0.000290136
-1.36044e-05
0.00022082
-0.000256968
0.000248109
-0.0002517
2.02834e-06
2.80002e-06
0.000181413
-0.000184213
0.000255294
0.000234529
2.67681e-05
-2.62361e-05
0.000245001
-0.000218765
3.36001e-05
0.000216609
-0.000250209
0.000244861
2.73841e-05
0.000306545
-0.000143949
-0.000162597
1.5486e-05
0.000239283
-0.000254152
0.000271013
-0.000113568
0.000225569
-0.000256677
-0.000241447
0.000104571
-0.000265469
7.16803e-06
-0.000241635
-2.75801e-05
-0.000241361
-2.48081e-05
0.000310074
-2.73263e-05
-7.67483e-05
0.000243097
-1.1452e-05
-0.000215601
0.000224281
-8.68003e-06
0.000255193
-7.68883e-05
3.39984e-05
-0.000190389
0.000157727
-0.000265245
-1.40001e-07
-4.14962e-05
3.94628e-05
0.000152355
-0.000195693
0.000192088
-0.000157485
0.000257041
-7.05603e-06
0.000251151
-0.000218277
-1.81437e-05
-2.1128e-05
0.000271568
-9.49904e-05
-0.000175776
-1.42801e-05
-0.000191913
0.000206193
0.000258665
-1.53553e-05
-0.00024331
1.98101e-05
0.000238855
-0.000280108
-7.93201e-06
3.76034e-05
-0.000200764
0.000164128
1.36921e-05
0.000247997
-0.00016474
0.000204539
-1.95189e-05
0.000248711
3.27925e-05
0.000189192
-0.000221306
-4.17202e-06
-2.49389e-05
0.000265108
-0.000231955
-3.14693e-05
0.000296835
-0.000281761
-1.52355e-05
1.63717e-05
-0.000237659
0.000221288
-0.00010514
0.000226885
1.92938e-05
-0.000305217
0.00028596
2.52001e-05
-2.79441e-05
2.69165e-05
0.000308983
-0.000289665
0.000238891
1.97345e-05
2.15601e-06
0.000231617
-0.000233773
-0.000310772
2.57185e-05
0.000285093
-0.000162177
-0.000144145
0.000209178
-0.000250156
-0.000169989
0.000241924
1.90317e-05
0.000255181
-4.13534e-05
0.000250531
0.000214498
-0.000255851
0.000318879
-0.000318836
-1.04862e-05
0.000286533
-0.000276331
-0.000302955
1.96669e-05
0.000283075
4.20842e-05
-0.000286413
-3.87435e-05
0.000252483
2.62921e-05
-2.21701e-05
0.00030739
-0.000285245
2.43321e-05
3.91179e-05
0.000162081
-0.000196117
0.000249294
-0.000219751
2.83277e-05
-0.000261633
4.36802e-06
-2.00102e-05
0.000306572
-0.000286613
-0.000250987
-0.000266673
3.07441e-05
0.000252141
-0.000236741
-1.54001e-05
1.2264e-05
0.000239877
-0.000274708
-1.29737e-05
0.000255697
-5.4118e-06
0.00032027
-1.19883e-05
0.000298565
-0.000286353
-4.48518e-05
0.000247437
-0.000235621
0.000257601
-1.99361e-05
0.000135848
9.06351e-05
-0.000222247
0.0002329
3.03493e-05
0.000226759
-0.000258662
3.71393e-05
0.000271744
-0.00028881
1.68912e-05
0.000251273
-0.000239093
-1.31321e-05
0.000252225
-2.91201e-05
-0.000257265
2.56481e-05
0.000231617
-0.000228005
-2.92601e-05
0.000259765
-0.000233571
-2.61941e-05
0.000258721
-0.000266994
2.56224e-06
0.000288862
1.2151e-06
-0.000290097
0.00024904
-0.000233239
-1.85921e-05
0.000308815
-0.000300844
-8.00847e-06
0.000258496
-0.000100422
-0.000266897
2.56761e-05
0.000241221
-3.48881e-05
-0.000232009
-0.000266393
2.51161e-05
0.000241277
-1.20061e-05
-0.000267567
0.000279892
-3.45241e-05
-0.000231869
-0.00026179
1.84319e-05
-0.000266281
2.43881e-05
0.000241893
-0.000284166
-2.16172e-05
-0.000306321
2.76643e-05
0.000278663
-3.34041e-05
-0.000232877
-0.000172731
-0.000258133
2.94001e-05
0.000228733
0.000308187
-0.00030918
-0.000195805
0.000209049
-3.29281e-05
-0.000225205
0.00019751
-0.000278615
8.16171e-05
0.000283911
2.2321e-05
-0.000301953
1.76961e-05
0.000285364
-0.000280688
-4.56247e-06
-0.000257125
0.000231617
2.55081e-05
0.000148189
2.6564e-05
-0.000186763
-0.000266953
2.81681e-05
0.000238785
-0.000227361
-2.97641e-05
-3.67361e-05
-0.000230217
0.000274174
0.000297314
1.90958e-05
-0.000276133
-3.19275e-05
0.000308121
-0.000258679
-1.07589e-05
0.000298048
-0.000287122
1.49607e-05
-0.000301825
0.000286804
-0.000230609
-0.000307451
0.000287441
0.000263005
-2.55774e-05
-0.000280742
1.36081e-05
0.000165516
0.000231747
1.85185e-05
-0.000250902
-0.00019362
0.000155446
0.000236738
1.31517e-05
-0.00024989
-0.00025833
2.66093e-05
0.000231721
-1.09228e-05
0.000247661
5.74002e-06
0.000246877
-3.19817e-05
-0.000226348
0.000299417
-0.00028549
-1.3832e-05
0.000228024
-0.000226666
0.000289975
0.000237685
1.98521e-05
-0.000257537
-1.24236e-05
0.000250108
0.000246636
1.50389e-05
-0.000305466
1.53906e-05
0.00024448
2.18905e-05
3.28238e-05
-0.000205986
-0.000287401
-1.77129e-05
-0.000182869
0.000295177
-0.000152069
0.000186087
-3.36378e-05
3.03095e-05
-0.000204182
0.000174665
-0.000166728
0.000259149
-0.000239236
-1.99137e-05
0.00026033
-0.00027231
-0.000240313
0.000230555
-2.18941e-05
0.00030124
-0.000279379
0.000307814
-0.000292869
0.000242117
1.77241e-05
-0.000224975
0.00024443
-1.94545e-05
1.61001e-05
-0.000241075
-7.00003e-06
0.000260989
-0.000297027
4.86562e-06
0.000292013
-0.000174497
0.000160217
-1.74105e-05
-6.31081e-06
-0.000291086
-1.67999e-05
-0.00028526
4.28402e-06
-0.000300672
0.000135138
-0.000257452
2.3731e-05
0.00023372
0.000238197
1.32441e-05
-3.08212e-05
-0.000226628
-3.31057e-05
-0.000292104
2.03302e-05
-0.000227063
0.000207207
0.000254969
-0.000233465
-2.15041e-05
-0.000197042
0.000218408
-0.000184461
-7.41953e-06
0.000205477
0.000135123
0.000141182
3.99337e-06
0.000270122
0.000279967
-0.00030555
3.37265e-06
0.000243449
-1.98423e-05
0.000298692
-0.00027882
-0.000302345
0.000287551
1.47954e-05
-0.000258301
0.000230077
2.82241e-05
-2.64041e-05
-0.000231897
0.000301839
-0.000301342
0.000267595
-1.99725e-05
0.000304524
-0.000284491
0.000286257
-5.01776e-07
-0.000256873
0.000256873
-0.000268179
0.000295834
-0.000146399
-6.71242e-05
-7.21967e-06
0.00029439
-0.000286946
-0.00029789
0.000290924
0.00029161
-0.000278755
0.000291433
-0.000305932
1.47588e-05
3.4702e-05
-0.000240548
0.000216968
2.21088e-05
-1.45541e-05
-0.000247212
0.000228777
-1.43292e-05
0.000298479
-0.000284089
0.000263481
-1.96001e-05
0.000254224
-0.000235464
-1.87601e-05
-3.10206e-05
-0.000273765
0.000304753
1.4367e-05
-0.000297147
0.00028273
-1.45881e-05
0.000233465
-0.000218877
0.000202506
-0.000295961
0.000283817
-1.92799e-05
0.000304899
-0.000285545
0.00025102
-2.69129e-05
0.000297361
-0.000270438
-0.00029583
0.000268962
1.07156e-05
0.000244749
-0.000255465
0.000304981
-0.000311805
6.77392e-06
1.83954e-05
1.50855e-05
0.000287644
-0.000302428
6.38968e-06
0.000283001
2.36617e-06
-0.000319051
-0.000288322
0.000304629
-0.000242481
0.000243657
8.45603e-06
-0.0002264
0.000242772
-0.000293572
0.000274452
0.000284433
-0.000152512
-8.48584e-05
0.000294465
1.44982e-05
3.1604e-05
-0.000191575
0.000159325
-0.000274432
0.000257293
-0.000219535
0.00024982
0.000243411
1.92865e-05
-0.000262697
0.000236019
2.31309e-05
-0.000300541
0.000282002
0.000312381
-1.79717e-05
0.000237945
-0.000257069
1.91241e-05
-0.000222494
0.000247459
0.000294301
1.8048e-05
-0.000165018
-1.45939e-05
0.00029824
-0.000283727
-0.000141139
-0.000266415
0.000159993
0.000106423
-0.000309071
0.000295442
1.36665e-05
-0.000258699
0.000241826
1.68729e-05
-0.000133304
0.000143001
-0.000306239
0.000288406
1.77982e-05
-0.000220749
0.000183454
-9.69084e-06
0.000253101
2.045e-05
1.75494e-05
-0.000304071
0.000286584
-0.000300605
-7.13568e-06
0.00030785
-0.000249229
0.000220109
-0.000201153
-8.52603e-05
-0.000272273
0.000251479
0.000303913
-0.00028627
-0.00019013
1.79938e-05
1.50818e-05
0.00028462
-0.000299672
-8.80603e-05
0.000239233
-0.000303376
1.94595e-05
0.000283789
-0.000205901
-2.62496e-06
-0.000297865
-0.000170306
2.05297e-05
0.000302196
-0.000287512
-1.4559e-05
-0.000172708
-0.000299203
-0.000176322
-2.2887e-05
0.000243528
0.000289398
1.71303e-05
0.000252869
5.7744e-05
-0.000285888
-0.000247213
-0.00027014
-2.3479e-05
-0.000274519
0.000300096
-0.000263001
0.000281934
-0.000172951
-4.10984e-05
0.000206619
0.000197569
1.56521e-05
-0.000213221
-1.25067e-05
-0.00028552
0.000298232
1.83597e-05
1.86976e-05
-0.000305366
0.000286821
0.000253345
-1.71361e-05
-0.000236209
1.88991e-05
-0.000304832
0.000285873
2.03561e-05
0.000232989
0.000216385
-2.46121e-05
-0.000191773
1.57055e-05
0.000282508
-0.000298212
-0.00024857
0.000116645
-0.000303913
1.86798e-05
0.00028523
0.00019269
-4.60278e-05
-0.000295639
1.18894e-05
0.000285369
0.000255837
-2.19801e-05
-0.000233857
-0.000302379
0.000106012
0.000234529
1.70521e-05
-0.000251581
0.000280186
1.67607e-05
0.000304157
-0.000285295
1.79168e-05
-0.000299727
0.000233512
1.84916e-05
-0.000252004
-1.89544e-05
-1.43904e-05
0.000298388
-0.000284058
-0.000280303
0.00029987
-0.000278126
0.000289363
-0.00030188
1.15838e-05
0.000249741
-1.62291e-05
1.15023e-05
0.000250041
-1.55121e-05
0.000298506
-0.000282602
3.95922e-05
-0.000237824
2.21481e-05