/*--------------------------------*- C++ -*----------------------------------*\
  =========                 |
  \\      /  F ield         | OpenFOAM: The Open Source CFD Toolbox
   \\    /   O peration     | Website:  https://openfoam.org
    \\  /    A nd           | Version:  12
     \\/     M anipulation  |
\*---------------------------------------------------------------------------*/
FoamFile
{
    format      ascii;
    class       volScalarField;
    location    "8.9";
    object      rho;
}
// * * * * * * * * * * * * * * * * * * * * * * * * * * * * * * * * * * * * * //

dimensions      [1 -3 0 0 0 0 0];

internalField   nonuniform List<scalar> 
9801
(
1.06594
1.06619
1.06769
1.07118
1.07688
1.08787
1.09768
1.10398
1.10878
1.11279
1.11663
1.1181
1.11741
1.11925
1.12286
1.12867
1.14005
1.15101
1.15784
1.16288
1.16729
1.171
1.17145
1.17054
1.17286
1.17684
1.18338
1.19581
1.20771
1.21498
1.22024
1.22491
1.22836
1.22669
1.22589
1.22896
1.23364
1.24113
1.25512
1.26803
1.27564
1.28113
1.28611
1.28838
1.28417
1.2847
1.28888
1.29433
1.30433
1.32124
1.3345
1.34251
1.34841
1.35353
1.3513
1.34566
1.34814
1.35351
1.36076
1.37608
1.39661
1.40943
1.41772
1.42445
1.42784
1.41943
1.41481
1.4194
1.42737
1.43995
1.46493
1.48696
1.49965
1.50919
1.51727
1.51443
1.4998
1.4985
1.50714
1.52139
1.55248
1.58641
1.60746
1.62192
1.63469
1.63968
1.61962
1.60761
1.6194
1.64197
1.69137
1.75254
1.79746
1.83671
1.88215
1.91201
1.90592
2.72022
7.3334
1.07088
1.07192
1.07366
1.07692
1.0823
1.09403
1.10433
1.1105
1.11494
1.11864
1.12183
1.12293
1.12277
1.12476
1.12814
1.13351
1.14553
1.157
1.16381
1.16864
1.17267
1.17596
1.17634
1.1757
1.17791
1.1816
1.18746
1.20039
1.21292
1.22029
1.22546
1.22985
1.23301
1.23159
1.2308
1.23354
1.23772
1.24439
1.25895
1.27252
1.2803
1.28584
1.29068
1.29283
1.28914
1.28923
1.29281
1.29764
1.30652
1.32402
1.33809
1.34631
1.35229
1.35735
1.35596
1.35048
1.35198
1.35661
1.36283
1.37699
1.39826
1.41192
1.42061
1.42741
1.43165
1.42465
1.41907
1.42247
1.42957
1.44019
1.4644
1.48781
1.50114
1.51067
1.51885
1.51778
1.50372
1.50093
1.50875
1.5201
1.54568
1.58059
1.60372
1.61944
1.63344
1.64307
1.6269
1.61186
1.61971
1.63961
1.67747
1.73193
1.77345
1.80943
1.84755
1.86536
1.83081
2.61224
7.35168
1.0696
1.0712
1.07325
1.07656
1.08189
1.0938
1.10382
1.10957
1.11376
1.11731
1.12031
1.12136
1.12179
1.12408
1.12748
1.13259
1.14456
1.1561
1.16273
1.16741
1.17136
1.17466
1.17515
1.17464
1.17684
1.18047
1.18586
1.19854
1.21146
1.2189
1.22407
1.22845
1.23186
1.23076
1.22956
1.23203
1.23608
1.24215
1.2564
1.27058
1.27859
1.28422
1.28912
1.29201
1.28868
1.28764
1.29069
1.2953
1.30311
1.32026
1.33529
1.34388
1.35002
1.35542
1.35616
1.35028
1.34972
1.35361
1.35935
1.37117
1.39296
1.40846
1.41772
1.42464
1.42995
1.42543
1.41782
1.41955
1.42593
1.43401
1.4537
1.48006
1.49545
1.50536
1.51375
1.51607
1.50309
1.49698
1.5027
1.51288
1.53041
1.56708
1.59665
1.61373
1.62724
1.63836
1.62739
1.60714
1.60979
1.62797
1.65502
1.70478
1.75151
1.78738
1.82221
1.84142
1.80164
2.55277
7.27442
1.06945
1.07125
1.07336
1.07666
1.0817
1.09333
1.10352
1.10931
1.11348
1.11701
1.11988
1.12076
1.12135
1.12371
1.12707
1.13178
1.14321
1.15509
1.16188
1.16657
1.17052
1.17383
1.17419
1.17361
1.17575
1.17933
1.18421
1.19606
1.20968
1.2175
1.22271
1.22708
1.23056
1.22957
1.22788
1.2301
1.23407
1.23946
1.25263
1.26797
1.27662
1.28233
1.28717
1.29041
1.28712
1.28482
1.28751
1.2921
1.29862
1.31456
1.33157
1.34102
1.34728
1.35268
1.35461
1.34769
1.3452
1.34886
1.35468
1.3642
1.38564
1.40387
1.41376
1.42054
1.42611
1.42401
1.41392
1.41296
1.41877
1.42624
1.4413
1.4697
1.48859
1.49898
1.50727
1.51278
1.50273
1.49026
1.49262
1.5025
1.51526
1.54466
1.57954
1.5999
1.61358
1.62615
1.62587
1.60507
1.59753
1.61075
1.63193
1.66651
1.71094
1.74763
1.78031
1.80512
1.78682
2.52456
7.22608
1.06916
1.07089
1.07281
1.07606
1.08071
1.09193
1.1026
1.10855
1.1127
1.11619
1.11908
1.12
1.12032
1.12247
1.12573
1.13003
1.14059
1.1532
1.1604
1.16511
1.16901
1.17223
1.17257
1.17182
1.1738
1.17724
1.18161
1.19213
1.20655
1.21505
1.22032
1.22459
1.22801
1.2274
1.22537
1.22725
1.231
1.23577
1.24709
1.26342
1.27311
1.27898
1.28368
1.28712
1.28469
1.28149
1.28355
1.2879
1.2935
1.30719
1.32563
1.33622
1.34268
1.34795
1.35096
1.34524
1.341
1.34376
1.34925
1.35679
1.37512
1.39556
1.40673
1.41375
1.41977
1.42162
1.41171
1.40665
1.41095
1.41806
1.42891
1.45472
1.47843
1.49074
1.49931
1.50682
1.50336
1.48749
1.48327
1.49103
1.50213
1.52179
1.55818
1.5864
1.60316
1.61686
1.62576
1.61188
1.5946
1.59645
1.61365
1.63916
1.6795
1.71682
1.74505
1.77178
1.77103
2.52116
7.20155
1.06892
1.0705
1.07224
1.07535
1.0797
1.09034
1.10152
1.10777
1.112
1.11555
1.1186
1.11972
1.11954
1.12126
1.12437
1.12839
1.13796
1.15116
1.15896
1.16377
1.16768
1.17102
1.1717
1.17056
1.17208
1.17535
1.17945
1.18855
1.2033
1.21265
1.21817
1.22248
1.22622
1.22644
1.22361
1.22466
1.22814
1.23272
1.24249
1.25902
1.26979
1.27602
1.28083
1.28497
1.28418
1.27907
1.27965
1.28361
1.28901
1.30093
1.31995
1.33191
1.33879
1.34429
1.34891
1.34621
1.33882
1.33885
1.34351
1.34991
1.36448
1.38736
1.4014
1.4091
1.41549
1.42053
1.41384
1.40388
1.40455
1.41082
1.41922
1.43911
1.46815
1.48564
1.49537
1.50339
1.50586
1.49105
1.48049
1.48358
1.49323
1.50608
1.53459
1.56967
1.59244
1.60827
1.62225
1.62397
1.60392
1.5936
1.60132
1.61997
1.65008
1.6879
1.71634
1.73933
1.75219
2.53484
7.19454
1.06916
1.07052
1.07187
1.07483
1.07874
1.08853
1.10034
1.10715
1.11162
1.1153
1.11857
1.12006
1.11918
1.12032
1.1232
1.12701
1.13565
1.14923
1.15771
1.16277
1.16681
1.17034
1.17171
1.16986
1.17054
1.17355
1.17758
1.18585
1.20065
1.21077
1.21651
1.22101
1.22503
1.22655
1.22301
1.22241
1.22553
1.22997
1.23876
1.25541
1.26732
1.27383
1.27887
1.28344
1.28495
1.27928
1.27715
1.28042
1.28537
1.29495
1.31424
1.32874
1.3364
1.34215
1.34745
1.34834
1.33974
1.33621
1.3396
1.34528
1.35551
1.37866
1.39796
1.40733
1.41387
1.41978
1.41744
1.40521
1.40202
1.40658
1.41377
1.4258
1.45401
1.47995
1.49325
1.50207
1.50911
1.5027
1.48551
1.48085
1.48695
1.49738
1.51527
1.54964
1.58052
1.60079
1.61635
1.62883
1.62256
1.60322
1.59849
1.60899
1.62886
1.66211
1.69419
1.71596
1.73071
2.55158
7.19698
1.07006
1.07126
1.07205
1.07484
1.07841
1.08703
1.09963
1.10735
1.11208
1.11585
1.11918
1.12108
1.11974
1.12011
1.12276
1.12638
1.13383
1.14765
1.15729
1.16282
1.16703
1.1707
1.17294
1.17084
1.17013
1.17268
1.17654
1.18356
1.19834
1.20993
1.21626
1.22096
1.22511
1.22786
1.22461
1.2222
1.22443
1.22861
1.23546
1.25157
1.26602
1.27358
1.27886
1.28353
1.28648
1.28163
1.27745
1.27926
1.28382
1.29039
1.30742
1.32649
1.3364
1.34252
1.34781
1.35075
1.34335
1.33666
1.33815
1.34344
1.35038
1.36848
1.39392
1.40768
1.41495
1.42103
1.42285
1.41166
1.40313
1.40421
1.41045
1.41867
1.43776
1.46991
1.49095
1.5022
1.5109
1.51512
1.49943
1.48405
1.4846
1.49336
1.50499
1.52892
1.56352
1.58954
1.60795
1.62386
1.63353
1.62397
1.6058
1.60351
1.61475
1.63609
1.66898
1.69471
1.71114
2.57271
7.20128
1.07169
1.07274
1.07292
1.07543
1.07877
1.08626
1.09958
1.10836
1.11336
1.11721
1.12057
1.12282
1.12154
1.12107
1.12331
1.12671
1.13269
1.14629
1.15764
1.16373
1.16812
1.17194
1.1749
1.17338
1.1714
1.17318
1.17672
1.18206
1.19562
1.20968
1.2171
1.22199
1.22625
1.22981
1.22794
1.22394
1.22505
1.22873
1.23379
1.2468
1.26479
1.27467
1.28028
1.28494
1.2888
1.28603
1.27967
1.27978
1.28362
1.28892
1.30047
1.3226
1.3369
1.34395
1.34928
1.35348
1.34927
1.3399
1.33896
1.34323
1.34914
1.35956
1.3851
1.4065
1.41638
1.4229
1.42796
1.42259
1.40828
1.40424
1.40851
1.4161
1.42669
1.45403
1.48464
1.50126
1.51104
1.51902
1.51761
1.49853
1.48816
1.49148
1.50086
1.51454
1.54342
1.5756
1.59836
1.61555
1.63095
1.63635
1.6242
1.60747
1.60615
1.61656
1.63974
1.66965
1.69037
2.59498
7.20608
1.07396
1.07492
1.07459
1.07692
1.08009
1.08629
1.09978
1.10995
1.1153
1.11919
1.12256
1.1252
1.12443
1.12325
1.12499
1.12808
1.13262
1.14485
1.15831
1.16551
1.17014
1.17403
1.17742
1.17708
1.17398
1.1749
1.17796
1.18211
1.1926
1.20916
1.21878
1.22412
1.22842
1.23232
1.23236
1.22734
1.22697
1.22985
1.23409
1.24254
1.26163
1.27576
1.28256
1.28731
1.29154
1.29164
1.28422
1.28181
1.28451
1.28922
1.2962
1.31536
1.3359
1.34562
1.35143
1.35641
1.35701
1.34721
1.342
1.34373
1.34878
1.35545
1.37272
1.40084
1.41726
1.42555
1.43194
1.43449
1.42108
1.40903
1.4093
1.41512
1.42277
1.43684
1.46893
1.49536
1.50923
1.5186
1.52661
1.52165
1.501
1.4935
1.49872
1.50882
1.52524
1.55611
1.58477
1.60517
1.62162
1.63567
1.63821
1.62363
1.60696
1.60468
1.61366
1.63735
1.66442
2.61603
7.21116
1.07673
1.07776
1.07701
1.07925
1.08235
1.08731
1.09986
1.11154
1.11759
1.12166
1.12513
1.12816
1.12828
1.12627
1.12737
1.13021
1.13391
1.14352
1.15876
1.16767
1.1727
1.17672
1.18032
1.18144
1.17777
1.17729
1.17988
1.18355
1.19043
1.20719
1.22034
1.2268
1.23127
1.2353
1.23725
1.23234
1.2296
1.23171
1.23546
1.24079
1.25609
1.27519
1.28466
1.29009
1.29457
1.29733
1.29139
1.28538
1.28643
1.29025
1.29539
1.30722
1.33127
1.34679
1.3541
1.35944
1.36354
1.35769
1.3466
1.34489
1.34854
1.35443
1.36356
1.38862
1.41444
1.4268
1.43399
1.44006
1.43868
1.42216
1.41321
1.4146
1.42028
1.42835
1.44821
1.48274
1.50614
1.51879
1.52805
1.53393
1.52398
1.50487
1.49989
1.50578
1.51606
1.5358
1.56745
1.59322
1.61165
1.62655
1.63803
1.63795
1.62174
1.60342
1.5992
1.60648
1.63361
2.62817
7.21681
1.07982
1.08133
1.08023
1.08222
1.08518
1.08909
1.09957
1.11278
1.12002
1.12447
1.12812
1.13142
1.13263
1.13002
1.13012
1.13268
1.13613
1.143
1.15849
1.16978
1.17555
1.17968
1.18336
1.18572
1.18251
1.18022
1.18216
1.18561
1.1903
1.20385
1.22088
1.22945
1.23437
1.23848
1.24172
1.23868
1.23333
1.23392
1.2372
1.24148
1.25089
1.27172
1.28609
1.2929
1.29767
1.30187
1.30023
1.29122
1.28878
1.29137
1.29589
1.30259
1.32217
1.34542
1.35661
1.36291
1.36799
1.3687
1.35649
1.34858
1.34972
1.35443
1.36065
1.37373
1.40366
1.42555
1.43577
1.44291
1.44896
1.44162
1.42252
1.41624
1.4199
1.42702
1.43627
1.46093
1.49457
1.51459
1.52605
1.53526
1.54062
1.52796
1.50877
1.50528
1.51209
1.52327
1.54618
1.57693
1.60003
1.61683
1.63051
1.63911
1.63649
1.6185
1.59824
1.58818
1.59914
2.61758
7.22411
1.08321
1.08581
1.08409
1.08545
1.08808
1.09133
1.09909
1.11347
1.12256
1.12751
1.13133
1.13471
1.13678
1.13428
1.13322
1.13543
1.13878
1.14369
1.15715
1.17123
1.17826
1.18266
1.18644
1.18963
1.18805
1.18394
1.18473
1.18785
1.19178
1.20062
1.21921
1.23136
1.2373
1.24161
1.24548
1.24564
1.23878
1.23665
1.23913
1.24304
1.2486
1.26525
1.28554
1.29516
1.30064
1.30521
1.30772
1.29973
1.29219
1.293
1.29688
1.30195
1.31262
1.33816
1.35676
1.3648
1.37053
1.37556
1.372
1.35764
1.35242
1.35439
1.35937
1.36632
1.38617
1.41761
1.43552
1.44416
1.45042
1.45471
1.44412
1.42664
1.42277
1.42667
1.43375
1.4447
1.47339
1.50488
1.52278
1.53365
1.5424
1.54499
1.53035
1.51327
1.51103
1.5177
1.52969
1.55535
1.58525
1.60632
1.62117
1.6328
1.63858
1.6337
1.61445
1.58868
1.5735
2.58764
7.23481
1.08669
1.09051
1.08825
1.0885
1.09072
1.09384
1.09939
1.1134
1.12489
1.1306
1.13445
1.13781
1.14048
1.13902
1.13688
1.13849
1.14159
1.14536
1.15493
1.17122
1.18063
1.18565
1.18959
1.19316
1.19374
1.18871
1.18762
1.19014
1.19379
1.19917
1.21491
1.232
1.24002
1.24474
1.24877
1.25151
1.24624
1.2404
1.24122
1.24461
1.24899
1.25858
1.28081
1.29648
1.30354
1.30827
1.31247
1.31023
1.29927
1.29576
1.29802
1.30231
1.30818
1.3252
1.35221
1.36672
1.374
1.37985
1.38353
1.37259
1.35805
1.35589
1.35972
1.36549
1.37335
1.39792
1.42818
1.44326
1.45151
1.45887
1.46224
1.44718
1.43026
1.428
1.43296
1.44041
1.45264
1.48315
1.51218
1.52825
1.53891
1.54788
1.5507
1.5347
1.51747
1.51543
1.52179
1.53444
1.56201
1.59104
1.61054
1.62397
1.63354
1.63643
1.62995
1.60386
1.56908
2.54132
7.247
1.09007
1.09465
1.09254
1.09166
1.09367
1.09676
1.10092
1.11231
1.1262
1.13325
1.13739
1.14089
1.14407
1.1444
1.14134
1.14169
1.14423
1.14751
1.1533
1.16901
1.18239
1.18868
1.1928
1.19648
1.19889
1.19476
1.19105
1.19252
1.19585
1.19991
1.20979
1.22968
1.24189
1.24768
1.25191
1.25573
1.25476
1.24627
1.2439
1.24646
1.25036
1.25559
1.27167
1.29439
1.30543
1.31121
1.31585
1.31901
1.31102
1.30046
1.29948
1.30274
1.30759
1.31571
1.33991
1.36458
1.37547
1.38137
1.38631
1.38816
1.3746
1.36236
1.36139
1.36456
1.37015
1.3809
1.41129
1.43979
1.45287
1.46011
1.46605
1.46696
1.4505
1.43544
1.43372
1.43811
1.44508
1.46025
1.49357
1.52091
1.53603
1.5463
1.55428
1.55483
1.53787
1.52082
1.51846
1.52428
1.5373
1.56661
1.59564
1.6138
1.62513
1.6314
1.63288
1.62048
1.58567
2.49947
7.25942
1.09324
1.09831
1.09746
1.09567
1.09703
1.09979
1.10302
1.1103
1.12556
1.13548
1.1405
1.14429
1.14773
1.14979
1.14651
1.14467
1.14645
1.14962
1.15367
1.16517
1.1825
1.19142
1.19606
1.19976
1.20306
1.20179
1.19581
1.19521
1.19791
1.2016
1.2069
1.22328
1.24197
1.25047
1.25521
1.25919
1.26177
1.25521
1.2481
1.2485
1.25169
1.25591
1.26382
1.28614
1.30569
1.31435
1.31963
1.32404
1.32355
1.31031
1.303
1.30445
1.30847
1.31359
1.32422
1.35234
1.37386
1.38332
1.38968
1.39542
1.39361
1.37537
1.36483
1.36604
1.37121
1.3774
1.38961
1.42162
1.44703
1.45834
1.46582
1.47281
1.47291
1.45402
1.43911
1.43836
1.44429
1.45257
1.47053
1.50347
1.5277
1.54142
1.55144
1.5592
1.55911
1.54085
1.52329
1.52049
1.52576
1.53893
1.56921
1.59775
1.61435
1.62331
1.6276
1.6252
1.61027
2.48048
7.27161
1.09643
1.10199
1.10291
1.10046
1.10032
1.10228
1.10511
1.10948
1.12284
1.13719
1.14395
1.14791
1.15139
1.15428
1.15236
1.14824
1.14902
1.15191
1.1554
1.16182
1.17906
1.19294
1.19917
1.20314
1.20681
1.20867
1.20284
1.19865
1.20002
1.20322
1.20716
1.21624
1.23761
1.25197
1.25829
1.26253
1.26644
1.26566
1.25551
1.25139
1.25344
1.25717
1.26173
1.27413
1.2997
1.31518
1.32207
1.32707
1.33131
1.32686
1.31265
1.30778
1.30933
1.31312
1.31864
1.33449
1.36515
1.38363
1.39162
1.39671
1.4014
1.39782
1.38006
1.37172
1.37257
1.37621
1.38219
1.39794
1.43189
1.4553
1.46603
1.47294
1.4789
1.47825
1.46026
1.44676
1.44613
1.45086
1.45854
1.47902
1.51193
1.5342
1.54682
1.55618
1.56335
1.56291
1.54458
1.52609
1.52211
1.52636
1.53881
1.56961
1.59763
1.61233
1.61953
1.61993
1.62499
2.4865
7.28236
1.09975
1.10572
1.1078
1.10561
1.1031
1.10443
1.1073
1.11081
1.1198
1.13685
1.14677
1.15151
1.15494
1.15805
1.15856
1.15353
1.15209
1.15419
1.15735
1.16128
1.17304
1.19211
1.20188
1.20678
1.21048
1.21375
1.2115
1.20377
1.20245
1.205
1.20866
1.21343
1.22849
1.2503
1.26085
1.26618
1.2702
1.27338
1.26711
1.25704
1.25576
1.25833
1.26206
1.26759
1.28595
1.31159
1.32414
1.33064
1.33574
1.33881
1.32821
1.31358
1.31124
1.31467
1.31935
1.32511
1.34403
1.37448
1.3905
1.39834
1.40492
1.41002
1.4023
1.38257
1.37483
1.37712
1.38248
1.3891
1.40599
1.43922
1.46091
1.47176
1.48013
1.48688
1.48528
1.46559
1.45077
1.44974
1.45522
1.46377
1.48634
1.51846
1.53926
1.55155
1.56113
1.5688
1.56864
1.54813
1.5274
1.52205
1.52561
1.53722
1.56835
1.59528
1.60886
1.61145
1.62783
2.51384
7.29283
1.10291
1.10919
1.11163
1.11118
1.10714
1.10731
1.10987
1.11307
1.11822
1.13324
1.14788
1.15443
1.15829
1.16167
1.16422
1.16086
1.15599
1.15655
1.15933
1.16282
1.16893
1.18687
1.203
1.2099
1.21388
1.21742
1.21924
1.21218
1.20627
1.20726
1.21049
1.21425
1.22105
1.24201
1.26113
1.26914
1.27382
1.27776
1.27851
1.26731
1.25909
1.25959
1.26305
1.26739
1.27517
1.29905
1.32223
1.33215
1.3376
1.34202
1.34377
1.33129
1.31892
1.31741
1.31964
1.32401
1.33114
1.35531
1.38544
1.39965
1.40634
1.41102
1.41502
1.40711
1.38871
1.38188
1.38326
1.38747
1.39402
1.41502
1.45052
1.47108
1.48017
1.48664
1.49206
1.48926
1.46959
1.45531
1.45425
1.4591
1.46762
1.49207
1.52574
1.54672
1.55811
1.56648
1.57265
1.57146
1.55083
1.52826
1.52123
1.52379
1.53519
1.56593
1.5914
1.60061
1.62211
2.55359
7.30337
1.10541
1.1125
1.11527
1.11693
1.11311
1.11103
1.11269
1.1155
1.11895
1.12846
1.14653
1.15683
1.16175
1.16522
1.16838
1.16859
1.16199
1.15961
1.16168
1.16498
1.16881
1.17935
1.20002
1.21176
1.21718
1.22093
1.22445
1.22284
1.21328
1.21034
1.21235
1.21574
1.21991
1.23097
1.25532
1.27059
1.27728
1.28151
1.28518
1.2813
1.26752
1.26292
1.26533
1.26932
1.27368
1.28326
1.30997
1.33066
1.33951
1.34536
1.35055
1.34999
1.33304
1.32111
1.32145
1.32589
1.33101
1.33848
1.36403
1.39214
1.40468
1.41199
1.41853
1.42271
1.41231
1.39265
1.38599
1.38907
1.39515
1.40219
1.42365
1.45652
1.47438
1.48354
1.49081
1.49716
1.49461
1.47454
1.45989
1.45871
1.46366
1.47297
1.49825
1.5307
1.55024
1.56107
1.56926
1.57564
1.57489
1.55394
1.52904
1.51989
1.52123
1.53187
1.56222
1.58196
1.60871
2.59628
7.31126
1.10771
1.1161
1.11904
1.12179
1.12007
1.11536
1.11551
1.11799
1.12114
1.1263
1.14168
1.15747
1.16441
1.16835
1.17176
1.17452
1.17076
1.16441
1.1645
1.16712
1.17045
1.17541
1.19182
1.21144
1.22002
1.22454
1.22823
1.23083
1.22402
1.21507
1.21467
1.21771
1.22153
1.22635
1.24228
1.26671
1.27862
1.28453
1.28882
1.29194
1.28439
1.2717
1.26907
1.27102
1.27435
1.27911
1.29237
1.32117
1.33955
1.34733
1.35199
1.35611
1.35457
1.33818
1.32846
1.32847
1.33105
1.3357
1.34511
1.37425
1.40144
1.4132
1.41928
1.42404
1.42803
1.41858
1.4003
1.39408
1.3951
1.39863
1.40546
1.42946
1.46286
1.48111
1.49044
1.49748
1.50346
1.50155
1.4819
1.46644
1.46404
1.46752
1.47475
1.49965
1.5331
1.5534
1.56448
1.57257
1.57857
1.57827
1.55734
1.52914
1.51706
1.51684
1.52782
1.55347
1.58733
2.63236
7.31466
1.10942
1.11971
1.12254
1.12538
1.12631
1.12136
1.1191
1.12087
1.12376
1.12708
1.13591
1.15466
1.16628
1.17161
1.17519
1.1785
1.17935
1.1719
1.16785
1.16939
1.17255
1.1762
1.18419
1.20517
1.22109
1.22777
1.23167
1.23531
1.23543
1.22475
1.21882
1.22012
1.22322
1.22688
1.233
1.25387
1.2768
1.2869
1.29243
1.29677
1.2984
1.28629
1.27387
1.27286
1.27633
1.28041
1.28526
1.30073
1.32992
1.34623
1.35361
1.35953
1.36445
1.3603
1.34135
1.3315
1.3328
1.33743
1.34274
1.35224
1.38107
1.40635
1.41769
1.42527
1.43173
1.43543
1.42428
1.40418
1.39624
1.39819
1.40364
1.41196
1.43743
1.4702
1.48807
1.49759
1.50519
1.51118
1.50844
1.48707
1.4688
1.46489
1.46896
1.47701
1.50149
1.53533
1.55654
1.56785
1.5754
1.58035
1.57966
1.5598
1.52906
1.51276
1.51163
1.5197
1.5596
2.65326
7.31705
1.10953
1.12207
1.12537
1.12858
1.13133
1.12935
1.12412
1.12405
1.12629
1.12927
1.1337
1.14796
1.16612
1.17434
1.17851
1.18186
1.18488
1.18178
1.17358
1.17251
1.17502
1.17835
1.18228
1.19418
1.21705
1.22966
1.2354
1.23921
1.2425
1.23822
1.22617
1.2227
1.22474
1.22834
1.2325
1.24115
1.2655
1.28581
1.29436
1.29946
1.30335
1.30312
1.28952
1.27953
1.27918
1.28138
1.28518
1.29094
1.31074
1.34003
1.35477
1.36126
1.36541
1.36934
1.36561
1.34825
1.3396
1.33972
1.34223
1.34691
1.35842
1.3902
1.4155
1.42604
1.43165
1.43622
1.44022
1.4312
1.41153
1.40373
1.40515
1.40989
1.41858
1.44471
1.47667
1.49406
1.50295
1.50922
1.51432
1.51305
1.493
1.47406
1.46948
1.47234
1.47949
1.50257
1.53639
1.55805
1.56914
1.57609
1.58038
1.57947
1.56181
1.53013
1.50941
1.50004
1.52708
2.6438
7.31937
1.10766
1.12432
1.12871
1.13215
1.13526
1.13668
1.13104
1.1276
1.12904
1.13194
1.13513
1.14204
1.16071
1.1754
1.18167
1.18536
1.18876
1.19057
1.18319
1.17703
1.17765
1.18023
1.18355
1.18869
1.20565
1.22802
1.23819
1.24312
1.24661
1.24874
1.23953
1.22843
1.2276
1.23076
1.23463
1.23865
1.24884
1.2751
1.29349
1.30132
1.30671
1.31122
1.30912
1.29246
1.28262
1.28344
1.28747
1.29188
1.29766
1.31873
1.3467
1.35982
1.36671
1.37268
1.37722
1.3718
1.3527
1.34273
1.34369
1.34833
1.35388
1.36561
1.39587
1.41904
1.42954
1.43716
1.44368
1.44772
1.43802
1.41756
1.40862
1.40984
1.41426
1.42176
1.44738
1.47926
1.49615
1.50529
1.5134
1.52002
1.52032
1.50041
1.47953
1.47315
1.47521
1.48094
1.50152
1.53528
1.55766
1.56903
1.57568
1.57947
1.5788
1.56334
1.532
1.50226
1.50066
2.60605
7.32437
1.10391
1.12485
1.13197
1.13569
1.1388
1.14164
1.13976
1.1332
1.13246
1.13467
1.13759
1.14098
1.15152
1.17251
1.18407
1.18919
1.19261
1.19587
1.19419
1.18407
1.18061
1.18263
1.18603
1.18966
1.19622
1.21688
1.23711
1.24567
1.2505
1.2542
1.25422
1.24192
1.23356
1.23375
1.23609
1.23952
1.24415
1.25783
1.28509
1.30158
1.3086
1.3131
1.3168
1.31424
1.29863
1.29031
1.29045
1.29257
1.29654
1.30363
1.32796
1.35566
1.36818
1.37395
1.37779
1.38183
1.3782
1.36051
1.35091
1.35067
1.35309
1.35777
1.37073
1.40332
1.42771
1.4381
1.44387
1.44871
1.45317
1.44543
1.42402
1.41276
1.41261
1.41707
1.42489
1.44995
1.48452
1.50427
1.51356
1.52014
1.52594
1.52655
1.50792
1.48457
1.47539
1.47632
1.48126
1.4992
1.53298
1.55717
1.56917
1.57513
1.57775
1.57621
1.56348
1.52734
1.49763
2.54469
7.33374
1.10067
1.12028
1.13354
1.13913
1.1425
1.14565
1.14768
1.14202
1.13661
1.13705
1.13947
1.14259
1.14735
1.16308
1.18322
1.19212
1.19639
1.1996
1.20224
1.19603
1.18668
1.18594
1.18845
1.19157
1.19512
1.20356
1.22734
1.24574
1.25345
1.25807
1.26156
1.25908
1.24451
1.23694
1.23821
1.24196
1.24584
1.25038
1.26585
1.29334
1.30834
1.31505
1.32023
1.32468
1.32043
1.30255
1.29339
1.29458
1.29877
1.30336
1.31028
1.3342
1.36038
1.37218
1.37904
1.38496
1.38947
1.38504
1.3662
1.35451
1.35437
1.35892
1.3647
1.37737
1.40789
1.43108
1.44172
1.44919
1.45565
1.46025
1.45233
1.43006
1.41804
1.41787
1.42215
1.42988
1.45346
1.48754
1.50777
1.51793
1.52511
1.53073
1.53104
1.51369
1.48913
1.47773
1.47725
1.48128
1.49715
1.53053
1.55599
1.56795
1.57306
1.57446
1.57326
1.55706
1.52461
2.49207
7.34715
1.10033
1.11177
1.13193
1.14206
1.14658
1.1498
1.15286
1.15197
1.14323
1.14018
1.14199
1.14499
1.14817
1.15443
1.17423
1.19235
1.19987
1.20401
1.20738
1.20806
1.19759
1.19001
1.19029
1.19307
1.19657
1.20081
1.21204
1.23697
1.25323
1.2602
1.26492
1.26837
1.26402
1.24966
1.24395
1.24494
1.24733
1.25084
1.25609
1.27448
1.30184
1.31555
1.32166
1.3254
1.32929
1.32644
1.31032
1.30185
1.30172
1.30357
1.30758
1.31547
1.34178
1.36857
1.38025
1.38572
1.38957
1.39449
1.39282
1.375
1.36301
1.36175
1.36376
1.3682
1.38064
1.41312
1.4387
1.45
1.45615
1.46124
1.46594
1.46029
1.43882
1.42507
1.42337
1.42635
1.43199
1.45289
1.48886
1.51148
1.52173
1.52799
1.53315
1.53505
1.52088
1.49535
1.48088
1.47861
1.48114
1.49395
1.5268
1.55335
1.56536
1.56925
1.57089
1.56588
1.56075
2.47514
7.36045
1.10196
1.10747
1.1245
1.1427
1.15015
1.15389
1.15694
1.15931
1.1539
1.14575
1.14512
1.14714
1.14989
1.15339
1.16249
1.18552
1.20154
1.20806
1.21173
1.21484
1.21201
1.19918
1.19408
1.19572
1.199
1.2024
1.20641
1.21945
1.24555
1.26093
1.26765
1.27241
1.27588
1.26968
1.25364
1.24743
1.24924
1.2529
1.25646
1.26141
1.28055
1.30745
1.32036
1.32722
1.33284
1.3373
1.33311
1.31471
1.30454
1.30528
1.30933
1.31414
1.3219
1.34693
1.37213
1.38371
1.39108
1.39729
1.4021
1.3997
1.3809
1.3665
1.36469
1.36871
1.3743
1.38602
1.41615
1.44143
1.45342
1.46113
1.46787
1.47325
1.46843
1.44596
1.42933
1.42608
1.42964
1.43577
1.45427
1.48863
1.51264
1.52426
1.53132
1.53714
1.54034
1.5287
1.50111
1.48254
1.4781
1.47988
1.49004
1.52171
1.54934
1.56133
1.56586
1.56264
1.57951
2.49031
7.37002
1.10437
1.1083
1.11645
1.1373
1.15183
1.15772
1.161
1.16399
1.16438
1.15489
1.14863
1.14944
1.15234
1.15557
1.15964
1.17191
1.19586
1.20947
1.21551
1.21935
1.22204
1.21546
1.20292
1.1997
1.20109
1.20368
1.20735
1.21246
1.22858
1.25455
1.26839
1.2747
1.27906
1.28176
1.27466
1.25968
1.25414
1.25449
1.25628
1.26009
1.2667
1.29039
1.31755
1.32933
1.33467
1.33814
1.34132
1.33834
1.32217
1.31283
1.31247
1.31437
1.31811
1.32626
1.35341
1.38046
1.39223
1.39786
1.40172
1.40609
1.4059
1.38915
1.37446
1.37159
1.37315
1.37712
1.38764
1.41901
1.44778
1.46104
1.46775
1.47284
1.47731
1.47538
1.45573
1.43724
1.43201
1.43322
1.43726
1.4517
1.48693
1.51554
1.52882
1.53525
1.5399
1.5423
1.53387
1.50691
1.48442
1.47716
1.47786
1.48583
1.51633
1.54432
1.55739
1.55729
1.58294
2.52938
7.38005
1.10782
1.11111
1.11475
1.12653
1.14823
1.15978
1.16478
1.16777
1.17058
1.16753
1.15649
1.15328
1.15517
1.15809
1.16119
1.16568
1.18089
1.20498
1.21736
1.2231
1.22693
1.22865
1.21873
1.20567
1.2035
1.20645
1.21024
1.21392
1.21873
1.23614
1.2618
1.27448
1.28049
1.28528
1.28871
1.28066
1.26318
1.25687
1.25891
1.26312
1.26823
1.27569
1.29885
1.32282
1.33328
1.33906
1.34439
1.34879
1.3457
1.32859
1.31673
1.31596
1.31971
1.32462
1.3331
1.35826
1.38321
1.39484
1.40216
1.40837
1.41351
1.41332
1.39625
1.37902
1.37463
1.37783
1.38325
1.39323
1.4213
1.44943
1.46336
1.47134
1.47838
1.48395
1.48323
1.46311
1.44112
1.43341
1.43518
1.44028
1.45386
1.48691
1.51587
1.52939
1.53604
1.54127
1.54481
1.53903
1.51249
1.48622
1.47591
1.47525
1.4819
1.51069
1.53843
1.54727
1.57842
2.5796
7.38917
1.11218
1.11427
1.11698
1.12125
1.13604
1.15719
1.16705
1.17173
1.17488
1.17704
1.16972
1.15949
1.15809
1.16023
1.16323
1.16653
1.17204
1.18988
1.21308
1.22414
1.22957
1.23351
1.23436
1.22299
1.21204
1.21098
1.21281
1.21526
1.21891
1.22481
1.24441
1.26914
1.28092
1.28633
1.2899
1.29313
1.28689
1.27184
1.26679
1.26796
1.27011
1.27351
1.28037
1.30376
1.32882
1.34037
1.34581
1.3494
1.35376
1.35356
1.33807
1.32565
1.32383
1.32534
1.32872
1.33638
1.36192
1.38947
1.40258
1.40883
1.41302
1.41828
1.42121
1.4074
1.38913
1.38318
1.38338
1.38625
1.39371
1.42042
1.453
1.46989
1.47735
1.48197
1.48654
1.48867
1.47322
1.45074
1.44128
1.44096
1.44402
1.45252
1.48267
1.51508
1.53124
1.53837
1.54291
1.546
1.54313
1.51889
1.48851
1.47426
1.47241
1.47731
1.50487
1.52626
1.56383
2.62943
7.39386
1.1177
1.11743
1.1194
1.12201
1.12736
1.14516
1.16569
1.17468
1.17892
1.18187
1.18269
1.17229
1.16371
1.16364
1.16631
1.16944
1.17267
1.17802
1.19709
1.22022
1.23091
1.23622
1.24022
1.24077
1.22827
1.21618
1.21479
1.21791
1.22173
1.22533
1.2305
1.25013
1.27461
1.28607
1.2923
1.29761
1.30099
1.29416
1.27798
1.26969
1.27021
1.27383
1.27796
1.28472
1.30757
1.33238
1.34416
1.35113
1.35696
1.36151
1.36099
1.34506
1.32993
1.32687
1.33006
1.33486
1.34227
1.36431
1.3906
1.4048
1.41417
1.42193
1.42734
1.42944
1.4151
1.39335
1.38479
1.38634
1.39117
1.39851
1.42086
1.45202
1.46955
1.47921
1.48801
1.49429
1.49701
1.4838
1.45837
1.44382
1.44165
1.44507
1.45273
1.48003
1.51302
1.53073
1.53883
1.54412
1.54741
1.54615
1.52496
1.49139
1.47222
1.46821
1.473
1.49375
1.53959
2.66526
7.39442
1.12468
1.12043
1.12208
1.12488
1.12785
1.13385
1.15341
1.17318
1.18185
1.18647
1.18982
1.18862
1.17629
1.16942
1.1697
1.17145
1.17414
1.17782
1.18446
1.20489
1.22703
1.23705
1.24213
1.24595
1.24653
1.23491
1.22411
1.22268
1.22397
1.22616
1.22979
1.23622
1.25803
1.28285
1.29432
1.29965
1.30322
1.30653
1.30127
1.28395
1.27542
1.2758
1.27893
1.28303
1.28979
1.31288
1.33967
1.35223
1.35777
1.36109
1.36517
1.3673
1.35455
1.33901
1.33487
1.33575
1.33866
1.34451
1.36622
1.39781
1.41486
1.42233
1.42666
1.43037
1.43355
1.42344
1.40286
1.39342
1.39251
1.39443
1.39945
1.41853
1.45489
1.47853
1.48831
1.49405
1.49884
1.50152
1.49052
1.46483
1.44828
1.44486
1.44712
1.45218
1.47501
1.51035
1.53136
1.54037
1.545
1.54771
1.54699
1.52969
1.49532
1.47063
1.46381
1.46262
1.50911
2.67451
7.394
1.13401
1.12504
1.12509
1.12734
1.12968
1.1327
1.13969
1.16182
1.18174
1.19001
1.1943
1.1973
1.19387
1.17987
1.17314
1.17418
1.17733
1.18055
1.18377
1.18971
1.21098
1.23335
1.24333
1.24865
1.25314
1.25418
1.24187
1.22835
1.22575
1.22853
1.23235
1.23598
1.24145
1.26269
1.28671
1.29731
1.30302
1.30786
1.31194
1.30862
1.29237
1.2823
1.28209
1.28543
1.2895
1.29531
1.31587
1.34179
1.35439
1.36162
1.36774
1.37259
1.37462
1.36231
1.34443
1.33811
1.34016
1.34481
1.35089
1.36902
1.3983
1.4152
1.42403
1.43118
1.43722
1.4412
1.4329
1.41067
1.39711
1.39568
1.39968
1.40584
1.42169
1.45465
1.47836
1.48916
1.4954
1.50012
1.50347
1.4969
1.4727
1.45301
1.44703
1.44849
1.45338
1.47323
1.50741
1.52964
1.53945
1.54416
1.54665
1.54622
1.53319
1.50019
1.47187
1.45417
1.47661
2.65002
7.39201
1.14384
1.13262
1.12758
1.12889
1.13157
1.13463
1.13834
1.14745
1.17104
1.18926
1.19689
1.20126
1.20419
1.19902
1.18521
1.18002
1.18063
1.18202
1.1847
1.18859
1.19637
1.21929
1.24097
1.25037
1.25515
1.2586
1.25951
1.24879
1.23624
1.23341
1.23402
1.23558
1.23912
1.2458
1.26844
1.29302
1.30483
1.3107
1.31598
1.32008
1.3165
1.30017
1.28941
1.28812
1.28952
1.29257
1.29851
1.32036
1.34889
1.36282
1.36884
1.37244
1.37645
1.38032
1.37205
1.35441
1.34692
1.34621
1.34722
1.35171
1.36781
1.40014
1.42244
1.43204
1.43731
1.44128
1.44603
1.44299
1.42316
1.40805
1.40422
1.40395
1.40638
1.41732
1.44899
1.47773
1.49127
1.49806
1.50402
1.50873
1.50622
1.48415
1.46114
1.45199
1.45135
1.4534
1.46687
1.50071
1.52622
1.53761
1.5427
1.54508
1.54503
1.53553
1.50645
1.46758
1.4618
2.59029
7.39339
1.14976
1.14652
1.13446
1.13251
1.13484
1.13799
1.14096
1.14449
1.15398
1.17871
1.19639
1.20367
1.20799
1.21096
1.20491
1.18935
1.1829
1.18448
1.18779
1.19129
1.19499
1.20252
1.22558
1.24632
1.2551
1.26034
1.26492
1.26715
1.25595
1.24006
1.23575
1.23794
1.24155
1.24599
1.25314
1.27508
1.29981
1.31198
1.31782
1.32185
1.32538
1.32386
1.30742
1.29372
1.29165
1.29481
1.29964
1.30644
1.32534
1.35101
1.36469
1.37227
1.37919
1.38459
1.3882
1.38038
1.35991
1.34851
1.34826
1.35207
1.35775
1.37182
1.40135
1.42354
1.43424
1.44242
1.44959
1.45448
1.4524
1.43138
1.41004
1.40271
1.40397
1.40824
1.41767
1.44651
1.47939
1.49722
1.50516
1.5104
1.51477
1.5134
1.49249
1.46508
1.45124
1.44933
1.45188
1.4627
1.4947
1.52355
1.5372
1.54218
1.54366
1.54255
1.5361
1.50502
1.47341
2.52107
7.40425
1.15448
1.1596
1.1504
1.14048
1.13949
1.14097
1.14288
1.14572
1.14997
1.16159
1.18642
1.2026
1.2093
1.21344
1.2161
1.20985
1.19565
1.19078
1.19188
1.19371
1.19619
1.20004
1.20866
1.23239
1.25289
1.26174
1.26626
1.26897
1.271
1.26287
1.24885
1.2448
1.24646
1.24946
1.25287
1.25829
1.27779
1.30254
1.31449
1.32034
1.32499
1.32952
1.33093
1.31761
1.30431
1.30166
1.30281
1.30492
1.30946
1.326
1.35454
1.37239
1.38022
1.38451
1.38818
1.39275
1.38954
1.37101
1.35911
1.35725
1.35854
1.36202
1.37169
1.40023
1.42867
1.44243
1.4487
1.45233
1.45581
1.457
1.44143
1.41958
1.41078
1.41082
1.41418
1.42097
1.44549
1.47965
1.49954
1.50801
1.51251
1.51514
1.51446
1.49852
1.47094
1.45462
1.45061
1.45166
1.45954
1.48965
1.52053
1.53552
1.5402
1.54054
1.53997
1.52998
1.51436
2.47967
7.41757
1.15759
1.16728
1.16775
1.15533
1.14472
1.14387
1.14646
1.14944
1.15223
1.15575
1.16689
1.19186
1.20779
1.21441
1.21876
1.22228
1.21718
1.20193
1.19491
1.19605
1.19942
1.20301
1.20659
1.21372
1.23617
1.25663
1.26557
1.27132
1.27636
1.27907
1.2711
1.2561
1.24982
1.25013
1.25202
1.25503
1.26051
1.27924
1.3055
1.32
1.32747
1.33353
1.3382
1.33929
1.32639
1.30961
1.30333
1.30523
1.30939
1.31464
1.32813
1.35458
1.37305