/*--------------------------------*- C++ -*----------------------------------*\
  =========                 |
  \\      /  F ield         | OpenFOAM: The Open Source CFD Toolbox
   \\    /   O peration     | Website:  https://openfoam.org
    \\  /    A nd           | Version:  12
     \\/     M anipulation  |
\*---------------------------------------------------------------------------*/
FoamFile
{
    format      ascii;
    class       volScalarField;
    location    "25.1";
    object      T;
}
// * * * * * * * * * * * * * * * * * * * * * * * * * * * * * * * * * * * * * //

dimensions      [0 0 0 1 0 0 0];

internalField   nonuniform List<scalar> 
9801
(
0.810168
0.809352
0.802342
0.793115
0.789396
0.789577
0.790806
0.797535
0.814355
0.823549
0.824724
0.825003
0.82428
0.819116
0.811063
0.80847
0.808752
0.809972
0.81255
0.818559
0.829903
0.836713
0.838392
0.838796
0.837775
0.833713
0.828813
0.82791
0.828749
0.830385
0.832914
0.836045
0.841267
0.848234
0.852027
0.853284
0.853816
0.853181
0.850026
0.847774
0.848071
0.848949
0.850189
0.852058
0.855378
0.862278
0.868182
0.870788
0.872027
0.872727
0.871062
0.867263
0.866215
0.866947
0.868067
0.869408
0.872074
0.879191
0.886507
0.890042
0.891734
0.892931
0.892513
0.88778
0.884557
0.884822
0.886028
0.887617
0.891535
0.901291
0.909744
0.913574
0.915204
0.916157
0.914849
0.909403
0.905001
0.904955
0.906765
0.909798
0.919769
0.932534
0.939429
0.942856
0.944834
0.946478
0.943244
0.934312
0.929588
0.931332
0.936041
0.949609
0.970815
0.987555
1.00108
1.00969
0.999987
1.08842
1.52485
0.809671
0.811166
0.806839
0.803339
0.80142
0.800531
0.801606
0.804367
0.808812
0.817719
0.823681
0.825633
0.825983
0.822704
0.819374
0.817453
0.816882
0.817109
0.817988
0.820919
0.827818
0.834724
0.838425
0.840049
0.840303
0.838207
0.835384
0.834444
0.834639
0.835254
0.836494
0.83822
0.842209
0.848729
0.853061
0.855235
0.856427
0.856877
0.854683
0.852239
0.852279
0.853005
0.853933
0.85518
0.857378
0.863882
0.8701
0.873063
0.874627
0.875657
0.874949
0.870988
0.869093
0.869631
0.870807
0.872201
0.874715
0.881911
0.889319
0.892897
0.894855
0.896046
0.896072
0.891524
0.887817
0.887937
0.889369
0.891286
0.894973
0.904429
0.912263
0.91598
0.918009
0.919637
0.92021
0.914466
0.909184
0.909224
0.911519
0.914476
0.921955
0.93402
0.94219
0.946933
0.950212
0.952982
0.950704
0.940971
0.936588
0.939197
0.94441
0.953336
0.96956
0.985212
0.998988
1.00786
0.998339
1.08879
1.54703
0.808784
0.809729
0.806987
0.807057
0.808085
0.810255
0.815011
0.817735
0.817765
0.819524
0.823446
0.825946
0.825578
0.823869
0.823872
0.824667
0.825763
0.827175
0.829004
0.831626
0.834363
0.837135
0.839401
0.840512
0.841358
0.841884
0.841561
0.842119
0.842967
0.843852
0.844746
0.845579
0.84741
0.85193
0.855719
0.858307
0.859993
0.861195
0.861092
0.85975
0.859513
0.860249
0.861161
0.862052
0.86334
0.868268
0.874458
0.877799
0.879652
0.881041
0.881566
0.878936
0.876707
0.876893
0.877895
0.87933
0.881483
0.887713
0.895279
0.899322
0.901521
0.903107
0.90406
0.900725
0.896778
0.89641
0.897873
0.899835
0.902932
0.91099
0.919783
0.924819
0.927841
0.930165
0.931764
0.927327
0.921164
0.920312
0.922488
0.92563
0.930914
0.943881
0.955581
0.961586
0.965412
0.968618
0.967899
0.959621
0.954278
0.955592
0.96158
0.969339
0.983799
1.00186
1.01754
1.02967
1.02509
1.11723
1.57902
0.806367
0.807314
0.811906
0.815564
0.819102
0.824445
0.829259
0.831882
0.832578
0.828507
0.823954
0.823801
0.826163
0.829827
0.832791
0.835
0.837089
0.838982
0.840516
0.841431
0.841633
0.841589
0.842364
0.845727
0.848651
0.850719
0.852309
0.853108
0.853897
0.854118
0.853447
0.853149
0.853703
0.857167
0.86294
0.866759
0.869189
0.871089
0.87277
0.871843
0.870133
0.869585
0.869824
0.870725
0.872117
0.87691
0.88421
0.888483
0.890863
0.892634
0.89416
0.892286
0.888766
0.888197
0.889269
0.890959
0.893109
0.898603
0.90715
0.912218
0.914807
0.916635
0.918219
0.916079
0.911103
0.909966
0.911488
0.913806
0.916626
0.923543
0.933925
0.940241
0.9437
0.946362
0.948571
0.946505
0.939637
0.937082
0.939191
0.942833
0.947395
0.958023
0.971947
0.980234
0.985127
0.989216
0.991175
0.98618
0.980091
0.978354
0.982697
0.990417
1.00059
1.01659
1.03213
1.04505
1.04724
1.15888
1.6159
0.810368
0.809291
0.813438
0.82244
0.830799
0.836542
0.840357
0.841756
0.839347
0.833852
0.831747
0.832048
0.833771
0.83744
0.842926
0.84655
0.849267
0.850579
0.849264
0.84768
0.847702
0.849312
0.853662
0.85765
0.860616
0.862942
0.865157
0.866721
0.865208
0.862539
0.861487
0.862065
0.863533
0.868684
0.875834
0.880066
0.882595
0.884638
0.886437
0.885132
0.881141
0.880239
0.881247
0.88293
0.885069
0.890581
0.89841
0.902906
0.905258
0.907035
0.908389
0.90653
0.902492
0.901902
0.903351
0.905359
0.90761
0.912226
0.920827
0.926651
0.929623
0.931648
0.933457
0.932988
0.928054
0.925654
0.926917
0.929415
0.932308
0.937628
0.948295
0.956302
0.960435
0.963462
0.96628
0.966625
0.96013
0.95488
0.955482
0.959457
0.964064
0.971693
0.9859
0.997702
1.00419
1.00873
1.01235
1.01086
1.0047
1.00036
1.00018
1.00558
1.01364
1.02578
1.04009
1.05155
1.05524
1.18583
1.64309
0.82076
0.819824
0.822819
0.830593
0.840262
0.846167
0.848025
0.846575
0.843805
0.843318
0.844607
0.846791
0.849315
0.851876
0.854301
0.857375
0.858706
0.856319
0.854377
0.85477
0.856788
0.862472
0.868814
0.872798
0.875197
0.877362
0.879217
0.877646
0.872599
0.871108
0.872037
0.873656
0.876486
0.883678
0.891214
0.895033
0.897244
0.899119
0.899409
0.895608
0.892393
0.892681
0.894267
0.896264
0.899039
0.905059
0.91264
0.916751
0.91882
0.920415
0.921519
0.920219
0.916562
0.915483
0.916805
0.918769
0.920973
0.924672
0.932715
0.939388
0.942952
0.945397
0.947583
0.94893
0.945322
0.940582
0.940103
0.942356
0.945234
0.949242
0.958687
0.96888
0.974188
0.977331
0.98012
0.982061
0.978477
0.97154
0.969113
0.971407
0.975632
0.980911
0.991672
1.00519
1.01418
1.02029
1.02522
1.02741
1.02342
1.01754
1.01442
1.01497
1.01927
1.02699
1.03942
1.05069
1.05562
1.20233
1.65923
0.836085
0.83726
0.840722
0.843142
0.845714
0.847886
0.849329
0.851276
0.853509
0.856453
0.860428
0.863997
0.866095
0.867625
0.868798
0.86659
0.86179
0.860252
0.861253
0.863216
0.867767
0.877083
0.884511
0.887681
0.889784
0.891664
0.89054
0.883701
0.879704
0.880046
0.881651
0.884214
0.888976
0.89777
0.905058
0.908134
0.909898
0.910536
0.908941
0.905151
0.902514
0.902842
0.904632
0.906889
0.910115
0.916106
0.923328
0.927184
0.929077
0.930577
0.931963
0.932242
0.92956
0.92676
0.926703
0.92834
0.930407
0.933344
0.940698
0.948899
0.953353
0.955998
0.95826
0.96031
0.959295
0.953358
0.950516
0.951414
0.953946
0.957057
0.963744
0.975197
0.983111
0.987225
0.990044
0.992585
0.992321
0.986027
0.980721
0.979486
0.981862
0.985999
0.992449
1.00481
1.0174
1.02566
1.0311
1.03556
1.03592
1.03146
1.02656
1.02355
1.02383
1.02703
1.03526
1.04733
1.05454
1.2122
1.66796
0.853467
0.855413
0.854827
0.853381
0.848911
0.847173
0.848763
0.853817
0.862328
0.870588
0.876295
0.878923
0.880559
0.881517
0.878842
0.869527
0.864918
0.865132
0.866606
0.869146
0.876234
0.889086
0.896018
0.899083
0.901083
0.900635
0.895075
0.889062
0.887395
0.888084
0.889422
0.891718
0.898125
0.907913
0.913941
0.916381
0.917256
0.916695
0.916177
0.914976
0.912505
0.911762
0.912951
0.91494
0.917303
0.921762
0.928353
0.93314
0.93585
0.937997
0.940006
0.941699
0.940598
0.936201
0.934168
0.934737
0.936485
0.93883
0.944695
0.954483
0.960866
0.963903
0.966027
0.967999
0.968784
0.96404
0.958755
0.957703
0.959544
0.962367
0.966456
0.976143
0.987256
0.993468
0.997125
0.999789
1.00157
0.998059
0.990603
0.986756
0.986694
0.989315
0.993355
1.00076
1.01365
1.02486
1.03232
1.03747
1.04146
1.04154
1.03796
1.03282
1.02871
1.02806
1.03069
1.04085
1.05126
1.21993
1.6736
0.867439
0.870404
0.867874
0.858528
0.8506
0.849534
0.850382
0.853214
0.864371
0.879692
0.886209
0.888938
0.890762
0.889646
0.880427
0.872227
0.870697
0.871499
0.87291
0.876094
0.885935
0.897461
0.903177
0.905366
0.905523
0.902021
0.898108
0.895709
0.894799
0.895648
0.897471
0.900966
0.905407
0.91165
0.916493
0.918866
0.920052
0.921312
0.922844
0.923283
0.921375
0.9201
0.920375
0.921076
0.921987
0.923522
0.928612
0.936158
0.940955
0.943765
0.945869
0.94772
0.948758
0.944812
0.940228
0.939231
0.940481
0.942479
0.94634
0.955982
0.964928
0.969232
0.971601
0.973473
0.974823
0.972641
0.966304
0.963159
0.963645
0.966016
0.968766
0.974122
0.98608
0.996185
1.00126
1.00435
1.0068
1.00772
1.00211
0.995195
0.992234
0.992312
0.9948
0.998929
1.00723
1.01996
1.03064
1.03773
1.0426
1.04577
1.04533
1.04265
1.03706
1.03117
1.02907
1.03301
1.04451
1.22595
1.67775
0.874345
0.877586
0.871852
0.860159
0.854982
0.85471
0.855443
0.858388
0.871305
0.885815
0.891842
0.894487
0.895181
0.888553
0.879449
0.876469
0.876733
0.877751
0.879821
0.88605
0.895395
0.902224
0.905294
0.90609
0.904147
0.902495
0.902121
0.902005
0.902691
0.904326
0.906959
0.908835
0.909714
0.911015
0.915205
0.918949
0.92176
0.925011
0.927546
0.929491
0.930109
0.927756
0.925469
0.923995
0.923685
0.9247
0.927894
0.937082
0.944967
0.94872
0.950912
0.952678
0.954251
0.952233
0.945903
0.943353
0.943855
0.945583
0.947915
0.954454
0.965451
0.972173
0.975407
0.977543
0.979352
0.979944
0.975225
0.969451
0.967604
0.968073
0.970279
0.973217
0.980509
0.993863
1.00292
1.00742
1.01066
1.01337
1.01348
1.00626
0.999213
0.996769
0.997297
0.999884
1.00412
1.01245
1.02449
1.03426
1.04086
1.04553
1.04843
1.04827
1.04606
1.03936
1.03112
1.02896
1.03294
1.22873
1.68047
0.877733
0.878537
0.868357
0.862083
0.860904
0.861175
0.862497
0.869251
0.881454
0.889671
0.893518
0.894657
0.890593
0.884468
0.881629
0.881186
0.882282
0.885023
0.890424
0.895861
0.900128
0.902965
0.904107
0.903765
0.903758
0.905195
0.907069
0.909287
0.910842
0.912172
0.91339
0.911851
0.909642
0.909804
0.91276
0.919527
0.925508
0.929825
0.932994
0.93513
0.936704
0.934992
0.928609
0.924765
0.924675
0.926135
0.928717
0.937018
0.947751
0.953147
0.955543
0.957271
0.958645
0.958117
0.951863
0.947251
0.946927
0.94823
0.950159
0.95313
0.962345
0.972879
0.978136
0.981102
0.983213
0.984865
0.983623
0.976617
0.971379
0.970089
0.970988
0.973379
0.976768
0.986269
1.00048
1.00923
1.01352
1.01631
1.01853
1.01749
1.01063
1.00435
1.00169
1.00174
1.00395
1.0082
1.01697
1.02856
1.03735
1.04324
1.04785
1.0505
1.05045
1.04781
1.03932
1.02974
1.02332
1.22748
1.68226
0.876644
0.871812
0.867561
0.866597
0.866947
0.868309
0.873889
0.882227
0.888212
0.891346
0.892088
0.889089
0.885165
0.884126
0.884947
0.886657
0.890525
0.895754
0.898944
0.900306
0.900317
0.900249
0.901652
0.902969
0.905307
0.909792
0.91427
0.91701
0.918457
0.918195
0.915171
0.91039
0.908891
0.909722
0.912033
0.92001
0.930193
0.935749
0.938216
0.939814
0.941298
0.939886
0.931691
0.926762
0.92686
0.928145
0.930218
0.937203
0.948878
0.955718
0.958637
0.960409
0.96119
0.961148
0.957999
0.952136
0.949948
0.950515
0.952227
0.954289
0.958638
0.969869
0.979247
0.983527
0.985992
0.987764
0.989222
0.986188
0.978219
0.973938
0.973469
0.974581
0.976835
0.980453
0.990903
1.00538
1.01357
1.01757
1.0208
1.02358
1.0226
1.01526
1.00816
1.005
1.00518
1.00762
1.0122
1.02166
1.03276
1.04037
1.04548
1.04983
1.05174
1.05138
1.04704
1.0353
1.02098
1.22232
1.6838
0.871969
0.867365
0.86775
0.868972
0.871717
0.879074
0.885801
0.889458
0.890957
0.89059
0.887145
0.884567
0.885022
0.886723
0.890091
0.895224
0.899484
0.902035
0.902847
0.899806
0.896458
0.896357
0.89915
0.904566
0.910754
0.917006
0.920797
0.922817
0.924227
0.922273
0.91352
0.90897
0.909019
0.910382
0.913005
0.92139
0.934002
0.939971
0.942296
0.943864
0.944095
0.940483
0.934278
0.930304
0.930143
0.931476
0.934019
0.937955
0.94691
0.955519
0.959363
0.961214
0.96222
0.963354
0.963773
0.959549
0.954625
0.953581
0.954394
0.955805
0.957701
0.963257
0.975898
0.984002
0.987539
0.989993
0.992301
0.993951
0.989427
0.981141
0.977278
0.976301
0.977033
0.979389
0.983716
0.995819
1.01068
1.01908
1.02299
1.02567
1.02701
1.02499
1.01872
1.01214
1.00878
1.00872
1.01112
1.01622
1.02636
1.03669
1.04299
1.04736
1.05116
1.05205
1.05089
1.04196
1.02618
1.21578
1.68522
0.869273
0.86773
0.868564
0.872267
0.881141
0.887134
0.889849
0.891072
0.88987
0.885947
0.883953
0.88436
0.887393
0.893457
0.900022
0.903703
0.905507
0.906097
0.901758
0.895283
0.89362
0.894696
0.898088
0.907764
0.918497
0.923842
0.926049
0.927557
0.927864
0.92149
0.912605
0.910104
0.910699
0.911893
0.914937
0.925746
0.936963
0.942088
0.944468
0.945252
0.943423
0.941409
0.938305
0.935347
0.935158
0.936565
0.938303
0.939657
0.942685
0.951585
0.958743
0.961981
0.964264
0.966306
0.968174
0.968011
0.962151
0.957501
0.95605
0.95585
0.957222
0.959775
0.968339
0.981882
0.989377
0.993154
0.996004
0.998074
0.998371
0.99091
0.982041
0.978921
0.979377
0.981271
0.984106
0.988412
1.00008
1.01401
1.02142
1.02494
1.02752
1.02924
1.02814
1.02282
1.01637
1.01262
1.01223
1.01438
1.01963
1.03001
1.03924
1.04463
1.04881
1.05153
1.05195
1.04696
1.03451
1.21104
1.68652
0.870292
0.869624
0.873777
0.882607
0.888172
0.890679
0.890749
0.886614
0.882656
0.882198
0.883843
0.887518
0.895261
0.903935
0.908139
0.909989
0.910745
0.906574
0.896634
0.892632
0.892953
0.894319
0.897801
0.910232
0.923514
0.928131
0.93019
0.93113
0.927439
0.919329
0.914209
0.912616
0.913372
0.915404
0.920769
0.929038
0.93756
0.942078
0.943634
0.942864
0.942633
0.943764
0.944045
0.941953
0.940158
0.939914
0.939897
0.93996
0.941001
0.945265
0.956038
0.963735
0.967597
0.970248
0.972227
0.973731
0.970808
0.962352
0.957241
0.956248
0.957119
0.959092
0.962836
0.974706
0.988857
0.99555
0.998184
0.999252
1.00032
1.00035
0.993497
0.986355
0.984268
0.9844
0.985413
0.987778
0.991864
1.00297
1.01605
1.02364
1.02769
1.03062
1.03222
1.03178
1.0271
1.01999
1.01538
1.0146
1.01657
1.02189
1.03204
1.04042
1.04559
1.04964
1.05148
1.04979
1.04252
1.20944
1.68787
0.875011
0.878728
0.885628
0.889761
0.89165
0.89184
0.885487
0.878891
0.877891
0.879454
0.884129
0.895164
0.907173
0.912218
0.914075
0.915121
0.913256
0.902533
0.894441
0.893291
0.894134
0.895429
0.900417
0.914989
0.925619
0.92994
0.931751
0.929649
0.924396
0.920572
0.917708
0.917644
0.919477
0.923422
0.926861
0.929005
0.932965
0.937962
0.940926
0.942609
0.94447
0.946722
0.948925
0.949764
0.946638
0.94268
0.940232
0.939477
0.94059
0.942884
0.950664
0.963521
0.970603
0.973869
0.976114
0.977548
0.977355
0.970406
0.961694
0.958723
0.959188
0.961177
0.963813
0.967995
0.980282
0.992642
0.997752
1.00035
1.00303
1.00518
1.00516
0.99811
0.990876
0.988028
0.987936
0.988978
0.991037
0.994634
1.00494
1.01801
1.02607
1.03049
1.03371
1.03506
1.03446
1.02958
1.02183
1.01685
1.01602
1.01792
1.02299
1.03261
1.04077
1.04615
1.05008
1.05085
1.04876
1.21244
1.68979
0.884847
0.892375
0.894068
0.895092
0.89454
0.886445
0.877936
0.875996
0.876989
0.878853
0.885145
0.903067
0.91423
0.917452
0.919099
0.918641
0.910063
0.900166
0.896168
0.895585
0.896588
0.899708
0.908015
0.918061
0.925325
0.928101
0.927447
0.924524
0.923656
0.924194
0.924644
0.925698
0.927386
0.929138
0.929819
0.928196
0.927615
0.930464
0.937901
0.944241
0.948479
0.951706
0.953963
0.955538
0.954279
0.947312
0.94177
0.940137
0.940913
0.942639
0.946687
0.959327
0.971414
0.97623
0.978225
0.97861
0.978868
0.978274
0.971624
0.965193
0.963708
0.964278
0.965452
0.967568
0.971122
0.982767
0.996098
1.00269
1.00541
1.00718
1.00919
1.00987
1.00336
0.995599
0.991858
0.990763
0.991135
0.993205
0.997228
1.00864
1.02131
1.02846
1.03235
1.0353
1.0363
1.03569
1.03097
1.02321
1.01803
1.01698
1.01834
1.02276
1.03235
1.04093
1.04695
1.04963
1.05366
1.22008
1.69252
0.894706
0.901758
0.90212
0.900438
0.892316
0.879845
0.87517
0.875432
0.876655
0.879539
0.891817
0.908704
0.916219
0.919284
0.920039
0.914457
0.90636
0.901844
0.899855
0.900638
0.903809
0.909507
0.913762
0.917038
0.920407
0.922431
0.923226
0.924259
0.926202
0.929741
0.933606
0.935502
0.935278
0.933001
0.928936
0.924904
0.924245
0.925843
0.932777
0.944816
0.952835
0.956942
0.959075
0.960544
0.960218
0.953209
0.944726
0.942213
0.942755
0.944102
0.946642
0.953112
0.966218
0.975237
0.978533
0.980376
0.98176
0.982938
0.982291
0.975505
0.969489
0.967569
0.967468
0.967548
0.96881
0.972464
0.984704
0.998726
1.00532
1.00863
1.01158
1.0137
1.01364
1.00621
0.997458
0.99332
0.993113
0.994852
0.997358
1.00171
1.01206
1.02287
1.0293
1.03329
1.03633
1.03756
1.03719
1.0325
1.02443
1.01857
1.01681
1.01747
1.02155
1.03195
1.04161
1.04695
1.05548
1.23018
1.69605
0.899583
0.906248
0.907242
0.903427
0.888666
0.878976
0.877108
0.877364
0.879026
0.886845
0.90016
0.909972
0.915222
0.916364
0.912766
0.908312
0.906757
0.906272
0.907273
0.910114
0.913819
0.916229
0.916579
0.913724
0.912518
0.915037
0.920784
0.926628
0.932658
0.938216
0.941354
0.942957
0.942638
0.935743
0.925957
0.922405
0.922807
0.924414
0.929276
0.943584
0.956042
0.960916
0.963365
0.964348
0.963988
0.959116
0.949716
0.945315
0.945412
0.947137
0.949402
0.951586
0.957115
0.969421
0.97845
0.982356
0.984411
0.98601
0.987666
0.987288
0.979926
0.972688
0.969363
0.968117
0.968469
0.970554
0.974452
0.986952
1.00245
1.01005
1.01258
1.01397
1.01496
1.01484
1.00967
1.00258
0.998986
0.998347
0.998985
1.00043
1.00399
1.01387
1.02434
1.03073
1.03489
1.038
1.03942
1.03911
1.0339
1.02496
1.01821
1.01541
1.01542
1.01987
1.03199
1.0418
1.05491
1.24144
1.70008
0.901072
0.907447
0.906655
0.896801
0.886391
0.881779
0.880981
0.882795
0.889451
0.897535
0.903031
0.907098
0.908717
0.907631
0.906615
0.907445
0.909421
0.913725
0.91805
0.920123
0.920741
0.919595
0.913776
0.908931
0.908512
0.910579
0.917866
0.930584
0.940718
0.945406
0.947279
0.948165
0.946729
0.936147
0.925328
0.922857
0.923533
0.925116
0.928991
0.940958
0.956238
0.962669
0.964874
0.964743
0.962774
0.961133
0.957079
0.951082
0.949067
0.949678
0.95096
0.952186
0.954182
0.959502
0.972272
0.981679
0.986124
0.989158
0.991452
0.992918
0.9915
0.98238
0.973954
0.970815
0.971012
0.972784
0.974446
0.977372
0.988222
1.0028
1.00972
1.01275
1.01551
1.01794
1.01883
1.01478
1.0074
1.0021
1.00008
1.00042
1.0018
1.0057
1.016
1.02637
1.03287
1.03704
1.0397
1.04095
1.04044
1.03467
1.02512
1.01715
1.01287
1.01234
1.01881
1.03233
1.05059
1.25234
1.70375
0.899907
0.903014
0.897949
0.891985
0.88907
0.88798
0.889739
0.895429
0.900799
0.903109
0.903509
0.900136
0.898487
0.90042
0.904522
0.909771
0.916795
0.923229
0.926463
0.927948
0.927001
0.918648
0.908802
0.906176
0.906934
0.908802
0.915415
0.933093
0.945723
0.949706
0.951452
0.951275
0.944698
0.934562
0.927625
0.925146
0.925778
0.92875
0.934749
0.941411
0.950754
0.95897
0.961891
0.962205
0.961911
0.962793
0.963914
0.961486
0.956087
0.953854
0.953634
0.953779
0.953803
0.955369
0.960482
0.974425
0.985785
0.990572
0.992548
0.993846
0.995489
0.994719
0.985629
0.977439
0.975034
0.974748
0.975132
0.976717
0.979451
0.989382
1.00413
1.01308
1.01668
1.01878
1.02063
1.02115
1.0185
1.01147
1.00505
1.00208
1.00198
1.00332
1.00726
1.0177
1.02857
1.03527
1.03914
1.04138
1.04233
1.04105
1.0348
1.02456
1.01481
1.0096
1.00958
1.01852
1.04152
1.26066
1.70599
0.894785
0.89388
0.890833
0.890941
0.892544
0.896789
0.902584
0.905428
0.906373
0.905436
0.897995
0.893235
0.893512
0.89645
0.904449
0.916552
0.925928
0.929773
0.931263
0.932145
0.928908
0.915918
0.907647
0.906605
0.907537
0.909378
0.916975
0.934791
0.946722
0.950907
0.951899
0.947398
0.941838
0.93755
0.932945
0.931288
0.932523
0.936264
0.939675
0.941268
0.942705
0.947862
0.956129
0.961076
0.963828
0.966489
0.969524
0.971352
0.968808
0.962007
0.957512
0.954809
0.953083
0.95342
0.955346
0.961825
0.977703
0.988739
0.992957
0.995852
0.997579
0.998923
0.997087
0.987237
0.979183
0.9767
0.977242
0.979107
0.981004
0.983043
0.990174
1.00408
1.0132
1.01739
1.02018
1.02282
1.02454
1.02288
1.01539
1.00749
1.00366
1.00299
1.00384
1.00832
1.02016
1.0318
1.03812
1.0409
1.04225
1.04261
1.04056
1.0343
1.02373
1.01248
1.00698
1.00641
1.02742
1.2644
1.70654
0.889493
0.888144
0.889573
0.892235
0.89906
0.907463
0.91143
0.912934
0.91187
0.902408
0.892285
0.890187
0.891152
0.893709
0.904607
0.922941
0.932064
0.934874
0.935958
0.933568
0.923902
0.91406
0.909393
0.908611
0.909679
0.914746
0.923947
0.933339
0.942157
0.945884
0.94509
0.941712
0.941408
0.942352
0.942333
0.941026
0.940437
0.94106
0.9415
0.939154
0.936975
0.938249
0.946331
0.958564
0.966673
0.972627
0.976288
0.978048
0.978513
0.972421
0.960941
0.953891
0.952381
0.953414
0.955475
0.958363
0.966046
0.982903
0.993813
0.99714
0.998092
0.997963
0.998671
0.998426
0.992579
0.986182
0.983655
0.982775
0.982124
0.982356
0.983839
0.989914
1.0041
1.01522
1.02076
1.02414
1.02672
1.02728
1.02486
1.01669
1.00791
1.00366
1.00351
1.00497
1.01
1.02251
1.03362
1.0388
1.04066
1.04155
1.04197
1.04035
1.03529
1.02288
1.0099
1.00422
1.00789
1.26102
1.70517
0.884405
0.885271
0.890016
0.899615
0.909054
0.913384
0.914946
0.915894
0.911578
0.898894
0.892315
0.891658
0.892451
0.89458
0.906595
0.925982
0.933967
0.9366
0.937243
0.930765
0.921641
0.915936
0.913154
0.913722
0.917611
0.924531
0.928094
0.929694
0.931744
0.936193
0.940499
0.942669
0.944199
0.947361
0.951496
0.953196
0.950999
0.946002
0.940341
0.935081
0.933608
0.934728
0.937976
0.950912
0.96808
0.976883
0.980311
0.981744
0.98197
0.979539
0.969221
0.957829
0.954713
0.95561
0.95905
0.963162
0.966097
0.970894
0.982982
0.991893
0.995182
0.997432
1.00084
1.00368
1.0047
0.999888
0.991329
0.985042
0.982362
0.982148
0.98295
0.984434
0.992097
1.00786
1.0186
1.02317
1.02562
1.02672
1.02727
1.02596
1.01864
1.01031
1.00611
1.00553
1.00613
1.01041
1.0226
1.03332
1.03821
1.04042
1.04258
1.04251
1.04128
1.03545
1.02026
1.00496
0.996888
1.25187
1.70251
0.881896
0.884429
0.894691
0.90926
0.915583
0.917312
0.917902
0.914883
0.904617
0.896331
0.893893
0.894121
0.895367
0.901055
0.913237
0.925768
0.932696
0.934359
0.930995
0.925806
0.923151
0.920851
0.920903
0.922989
0.926554
0.928844
0.929003
0.924816
0.922534
0.924807
0.934083
0.9437
0.950352
0.956295
0.959828
0.961185
0.960144
0.951
0.93916
0.933741
0.933422
0.934844
0.93735
0.944432
0.962799
0.97718
0.981529
0.982212
0.979488
0.976675
0.974344
0.968936
0.963944
0.963284
0.964905
0.966595
0.966508
0.966389
0.969137
0.979711
0.992093
0.999743
1.00343
1.00596
1.00816
1.00882
1.00324
0.992925
0.98605
0.983851
0.984317
0.985918
0.98858
0.995493
1.00868
1.01807
1.0225
1.02501
1.02714
1.02971
1.02991
1.02274
1.01273
1.0066
1.00472
1.0051
1.00941
1.02267
1.03417
1.03938
1.04189
1.04333
1.04251
1.04091
1.03249
1.01351
0.995851
1.23886
1.70013
0.880984
0.884987
0.900474
0.915672
0.920547
0.922118
0.921974
0.912709
0.901109
0.896738
0.896206
0.89766
0.903634
0.91039
0.914827
0.919932
0.924372
0.926069
0.926169
0.926883
0.927349
0.929094
0.93183
0.933623
0.934039
0.931594
0.924436
0.919003
0.918418
0.920114
0.925878
0.941557
0.956545
0.963973
0.966438
0.96745
0.9662
0.956864
0.941722
0.9355
0.935102
0.937335
0.943458
0.949635
0.956304
0.967674
0.975299
0.976823
0.976585
0.977066
0.978213
0.979914
0.978496
0.973615
0.970168
0.967946
0.965547
0.964362
0.965287
0.968122
0.97927
0.995009
1.00339
1.00661
1.00851
1.00928
1.00878
1.0049
0.996954
0.990784
0.988326
0.987976
0.987985
0.98905
0.99496
1.00842
1.01903
1.02487
1.02926
1.03212
1.03367
1.03295
1.02423
1.0124
1.00513
1.00326
1.00435
1.01
1.0241
1.03549
1.0399
1.0417
1.04158
1.04132
1.03905
1.02514
1.00585
1.2253
1.69882
0.879033
0.884129
0.903022
0.916946
0.921756
0.922973
0.919133
0.910157
0.90322
0.900614
0.901875
0.906535
0.912126
0.91463
0.915038
0.912715
0.912454
0.917123
0.924226
0.930148
0.935766
0.939601
0.941213
0.941562
0.939497
0.930879
0.91987
0.91612
0.916505
0.91802
0.921607
0.937043
0.958391
0.966186
0.968496
0.968774
0.964048
0.95679
0.948921
0.942821
0.94201
0.945166
0.949417
0.95178
0.953072
0.954031
0.960176
0.969375
0.975319
0.979041
0.983243
0.987106
0.988884
0.986539
0.97914
0.971163
0.966258
0.965318
0.966394
0.968067
0.970776
0.980965
0.99576
1.00325
1.00607
1.00805
1.00993
1.01119
1.00948
1.00197
0.993479
0.98877
0.987375
0.987593
0.988774
0.995671
1.01103
1.02311
1.02872
1.03144
1.03341
1.03482
1.03372
1.02467
1.01261
1.0057
1.0041
1.00493
1.01091
1.02488
1.03455
1.03829
1.04035
1.04068
1.04076
1.03324
1.02032
1.21683
1.69896
0.880428
0.889155
0.902578
0.913422
0.91789
0.91795
0.915155
0.91266
0.91035
0.90997
0.911203
0.913285
0.914773
0.915187
0.910709
0.906158
0.90608
0.909199
0.919696
0.934248
0.944055
0.947982
0.949204
0.948627
0.942072
0.929284
0.919807
0.917094
0.917395
0.919419
0.926347
0.93797
0.952541
0.963023
0.966121
0.964241
0.960061
0.958801
0.958107
0.955661
0.95322
0.952642
0.952863
0.952305
0.948814
0.946984
0.948836
0.956704
0.969548
0.980384
0.987602
0.991654
0.993684
0.994496
0.990863
0.979568
0.970979
0.968551
0.969095
0.97019
0.971224
0.972981
0.980873
0.994369
1.00341
1.00803
1.01067
1.01278
1.014
1.01273
1.00543
0.995843
0.990077
0.988165
0.988563
0.990346
0.996943
1.01274
1.02475
1.02996
1.03253
1.03424
1.03554
1.0347
1.02665
1.01379
1.0058
1.00432
1.0054
1.01075
1.02339
1.03262
1.0372
1.03922
1.0401
1.03745
1.03051
1.21538
1.70053
0.886221
0.893081
0.898275
0.904079
0.910405
0.91448
0.91626
0.917957
0.919465
0.920135
0.920022
0.918805
0.916201
0.910987
0.90533
0.903444
0.904309
0.90591
0.913258
0.934017
0.947648
0.951868
0.953666
0.953665
0.94625
0.931078
0.921813
0.919602
0.920528
0.926121
0.933975
0.938429
0.942664
0.950237
0.956685
0.95921
0.960307
0.962148
0.965662
0.967965
0.966105
0.960912
0.955877
0.950225
0.94539
0.944199
0.945328
0.947643
0.957123
0.976488
0.98896
0.992782
0.994249
0.994027
0.99206
0.988497
0.981557
0.975457
0.972648
0.971943
0.972227
0.972983
0.974401
0.980113
0.993507
1.00412
1.00943
1.01244
1.01474
1.01666
1.01692
1.00997
0.998796
0.991882
0.989332
0.988766
0.990067
0.997126
1.01404
1.02689
1.03226
1.03474
1.03676
1.03758
1.0357
1.0272
1.01397
1.0059
1.00438
1.00547
1.00985
1.02151
1.03098
1.03586
1.03804
1.03795
1.03751
1.22001
1.7031
0.892388
0.895607
0.896251
0.896171
0.899246
0.908641
0.917646
0.92292
0.926553
0.927838
0.927776
0.925135
0.91784
0.908208
0.903328
0.903078
0.904299
0.905987
0.911762
0.930206
0.947567
0.952897
0.954183
0.950049
0.941878
0.935131
0.929327
0.927338
0.929053
0.933701
0.937224
0.938789
0.937606
0.936614
0.941525
0.952293
0.961073
0.967082
0.97289
0.975729
0.97648
0.972281
0.96204
0.951588
0.946377
0.945666
0.947153
0.950077
0.954542
0.964917
0.980846
0.988499
0.990341
0.99094
0.991818
0.993076
0.992752
0.98844
0.982238
0.977895
0.975578
0.974644
0.974495
0.97516
0.97951
0.993147
1.00547
1.01203
1.01657
1.01967
1.02081
1.01974
1.01181
0.998557
0.99021
0.988076
0.988986
0.991049
0.998571
1.01606
1.02896
1.03439
1.03627
1.03676
1.03569
1.03476
1.02858
1.01539
1.00712
1.00517
1.00524
1.00846
1.01936
1.02887
1.03433
1.03573
1.04209
1.22868
1.70617
0.897849
0.898349
0.895069
0.893505
0.894465
0.898715
0.912024
0.924446
0.930185
0.932589
0.933558
0.932209
0.92183
0.90896
0.904466
0.904389
0.905899
0.911085
0.91875
0.927262
0.939081
0.946364
0.947167
0.944595
0.942374
0.941061
0.940279
0.939838
0.939963
0.940163
0.939676
0.93639
0.93156
0.930497
0.93248
0.939937
0.955807
0.969535
0.976071
0.978557
0.979856
0.980008
0.972978
0.95911
0.951616
0.950574
0.952693
0.955552
0.95752
0.958887
0.963715
0.974999
0.983767
0.988472
0.991657
0.994723
0.997869
0.999762
0.997078
0.989065
0.981332
0.976752
0.974151
0.973667
0.974594
0.980499
0.997565
1.01143
1.01723
1.01988
1.02067
1.02066
1.0192
1.0108
0.998633
0.992425
0.991546
0.992839
0.995251
1.00062
1.01521
1.02785
1.03315
1.03558
1.03672
1.03642
1.03635
1.03071
1.01712
1.00777
1.00489
1.00414
1.00601
1.01703
1.02766
1.032
1.04419
1.23815
1.70915
0.903304
0.89893
0.894554
0.893252
0.894048
0.895603
0.902877
0.921093
0.930905
0.933742
0.934992
0.934091
0.925751
0.914555
0.909557
0.909586
0.912413
0.91841
0.922609
0.924617
0.926913
0.931817
0.937864
0.941803
0.944341
0.948088
0.951597
0.952835
0.951021
0.947097
0.94104
0.932814
0.928711
0.928744
0.930246
0.932792
0.943644
0.965477
0.976638
0.979321
0.979494
0.977273
0.97517
0.971608
0.964758
0.96029
0.959207
0.959365
0.958926
0.956676
0.955763
0.958609
0.969308
0.982185
0.991195
0.997621
1.00206
1.00476
1.00574
1.00172
0.990471
0.979608
0.97492
0.974331
0.975135
0.978045
0.98658
1.00264
1.01388
1.01837
1.01925
1.0184
1.01898
1.0194
1.01364
1.00388
0.997398
0.994692
0.993897
0.993994
0.998177
1.01227
1.02617
1.03359
1.03711
1.0379
1.03731
1.03681
1.03044
1.01748
1.00795
1.00358
1.00184
1.00396
1.0159
1.02489
1.04242
1.2473
1.71149
0.907518
0.89931
0.894787
0.893725
0.894481
0.895811
0.899312
0.913025
0.92806
0.932697
0.93366
0.933284
0.930066
0.92385
0.918902
0.917644
0.918975
0.921852
0.923819
0.922934
0.91855
0.918394
0.924389
0.936128
0.946947
0.95552
0.96079
0.962337
0.96168
0.955381
0.943612
0.933683
0.930148
0.930251
0.93243
0.93712
0.9427
0.952734
0.967129
0.973919
0.9754
0.976003
0.977557
0.979847
0.979453
0.97385
0.967435
0.962796
0.958371
0.954398
0.952923
0.953629
0.956133
0.968373
0.987861
0.998836
1.00276
1.00524
1.00631
1.00501
1.00044
0.99013
0.980942
0.977773
0.978232
0.981218
0.984308
0.989401
1.00218
1.01215
1.01617
1.01783
1.01984
1.02208
1.02307
1.01808
1.00746
0.998336
0.993315
0.992054
0.99286
0.99656
1.01042
1.02671
1.03514
1.03726
1.03664
1.03606
1.03532
1.03024
1.01993
1.0096
1.00258
0.999085
1.00193
1.01293
1.03635
1.25587
1.71294
0.911034
0.900183
0.895328
0.894911
0.895714
0.897303
0.900362
0.906525
0.919618
0.929876
0.93318
0.933841
0.934139
0.933594
0.930596
0.927323
0.925673
0.925102
0.923572
0.917562
0.91346
0.913738
0.916011
0.924664
0.943778
0.958239
0.96355
0.965479
0.966604
0.964179
0.951905
0.939399
0.935169
0.935563
0.938819
0.941877
0.943553
0.944752
0.949251
0.961045
0.97098
0.976697
0.980532
0.983856
0.986269
0.986202
0.980682
0.970508
0.960811
0.955382
0.954118
0.954717
0.955976
0.959919
0.974944
0.992548
1.00037
1.0034
1.00364
1.00212
1.00226
1.00163
0.994885
0.987228
0.984132
0.983938
0.984193
0.984666
0.987392
0.998245
1.01095
1.01784
1.02081
1.02295
1.02469
1.0251
1.02019
1.00887
0.998114
0.993146
0.992271
0.993511
0.996858
1.01005
1.02589
1.03325
1.03509
1.035
1.03525
1.03529
1.03289
1.02403
1.01075
0.999751
0.995215
0.997503
1.02666
1.26235
1.71338
0.915057
0.902271
0.897126
0.896979
0.897944
0.900348
0.903204
0.905187
0.908994
0.92018
0.930175
0.934892
0.938048
0.940426
0.940976
0.938312
0.933339
0.927677
0.920561
0.914354
0.912327