/*--------------------------------*- C++ -*----------------------------------*\
  =========                 |
  \\      /  F ield         | OpenFOAM: The Open Source CFD Toolbox
   \\    /   O peration     | Website:  https://openfoam.org
    \\  /    A nd           | Version:  12
     \\/     M anipulation  |
\*---------------------------------------------------------------------------*/
FoamFile
{
    format      ascii;
    class       surfaceScalarField;
    location    "27.6";
    object      phi;
}
// * * * * * * * * * * * * * * * * * * * * * * * * * * * * * * * * * * * * * //

dimensions      [1 0 -1 0 0 0 0];

internalField   nonuniform List<scalar> 
19404
(
-0.000132439
-8.32639e-08
-0.000135346
-1.04122e-06
-0.000136109
-7.17631e-07
-0.000136116
-3.83798e-07
-0.000135802
8.7783e-08
-0.000134247
1.08507e-06
-0.000131906
1.8222e-06
-0.000130792
1.52036e-06
-0.000130612
1.12619e-06
-0.000130535
7.77622e-07
-0.000130853
2.32595e-07
-0.000131636
-2.81302e-07
-0.000132716
-8.08186e-07
-0.000135372
-1.44998e-06
-0.000141622
-1.3357e-06
-0.000145115
-2.99339e-07
-0.000145097
8.92098e-07
-0.000144362
1.66551e-06
-0.000143655
1.61216e-06
-0.000142671
1.16748e-06
-0.000139644
9.67025e-07
-0.000136844
8.6813e-07
-0.000136572
3.9966e-07
-0.000136523
-3.54161e-08
-0.000136777
-3.62847e-07
-0.000137442
-5.84977e-07
-0.000139193
-6.22652e-07
-0.000145261
-3.6599e-07
-0.000151587
-1.7699e-08
-0.000153169
4.1214e-07
-0.000153275
7.27283e-07
-0.000152998
8.23477e-07
-0.00015052
8.50303e-07
-0.000143801
8.6869e-07
-0.000140024
6.43636e-07
-0.000139634
3.61548e-07
-0.000139595
-1.22871e-08
-0.000139737
-2.74919e-07
-0.000140457
-4.05184e-07
-0.000143107
-2.75104e-07
-0.000148036
6.22348e-07
-0.000151231
1.15301e-06
-0.00015203
1.32039e-06
-0.000152135
1.21018e-06
-0.000151544
9.78156e-07
-0.000149246
5.19936e-07
-0.000147282
1.40006e-07
-0.000146181
1.92577e-07
-0.000145373
2.75872e-07
-0.000144855
5.17391e-07
-0.000144641
7.44741e-07
-0.000144649
7.06642e-07
-0.000146
6.37287e-07
-0.000150519
7.27717e-07
-0.000153092
4.87398e-07
-0.000154003
1.62949e-07
-0.000154318
-6.59283e-08
-0.000154149
-3.36067e-07
-0.000152388
-6.2583e-07
-0.000149159
-5.08416e-07
-0.000146734
8.84133e-07
-0.000145933
3.05112e-07
-0.00014587
2.38646e-07
-0.000145984
2.22523e-09
-0.000148376
-1.64078e-07
-0.000155638
-6.07173e-08
-0.00015992
1.10535e-07
-0.000161141
2.15721e-07
-0.000161427
3.23506e-07
-0.000161171
1.27638e-09
-0.000158069
-2.17013e-07
-0.000150846
-4.41891e-07
-0.000145938
-3.21948e-07
-0.0001448
-5.39704e-08
-0.000144743
-2.52399e-07
-0.000144985
-6.24024e-07
-0.000150264
3.14881e-08
-0.000161149
-2.6949e-07
-0.000165718
-3.03018e-07
-0.000166722
9.7679e-08
-0.000166799
4.52473e-07
-0.000166497
5.44839e-07
-0.000163238
6.27961e-07
-0.000152032
-1.77158e-07
-0.000142564
-3.03625e-07
-0.000139419
-8.47877e-07
-0.000139394
-4.5923e-07
-0.000141145
-1.15864e-06
-0.000153992
-1.65331e-06
-0.000165683
-1.322e-06
-0.00016938
-2.6026e-08
-0.00017016
1.1173e-06
-0.000170306
9.03609e-07
-0.000165216
3.26123e-07
-0.000151001
-2.86456e-07
-0.000134826
6.52365e-08
-0.00011624
-6.91263e-06
-0.000119115
-4.32538e-05
2.33132e-05
-0.000143524
5.45325e-07
-0.000145361
-3.72108e-07
-0.000145753
-2.55597e-07
-0.000145736
1.83993e-07
-0.000144667
1.13961e-06
-0.000141342
1.76517e-06
-0.0001402
1.73144e-06
-0.000140069
1.55066e-06
-0.000139993
1.21561e-06
-0.000140107
7.60281e-07
-0.000140224
1.86909e-07
-0.000140299
-3.98498e-07
-0.000141162
-8.12276e-07
-0.000143477
-1.29262e-06
-0.000145588
-1.37649e-06
-0.000147618
-9.16195e-07
-0.000148974
5.13778e-07
-0.000149289
1.61354e-06
-0.000149213
1.87763e-06
-0.000148724
1.70919e-06
-0.000145747
1.59515e-06
-0.000143436
1.21454e-06
-0.000142454
6.02065e-07
-0.000142026
2.36298e-07
-0.000141901
-2.33614e-07
-0.000141851
-6.21905e-07
-0.000142434
-8.65006e-07
-0.000147334
-8.37682e-07
-0.000152702
-5.82679e-07
-0.000154688
-8.0588e-09
-0.000155114
6.88205e-07
-0.000155081
1.11268e-06
-0.0001536
1.54622e-06
-0.000148601
1.90723e-06
-0.000145223
1.62132e-06
-0.000144138
9.65694e-07
-0.00014376
4.05841e-07
-0.000143638
7.61105e-08
-0.00014359
-1.03417e-07
-0.000144088
-2.59547e-07
-0.000148225
1.90422e-07
-0.000152136
1.2616e-06
-0.000153466
1.67699e-06
-0.000153679
1.67205e-06
-0.000153661
1.53996e-06
-0.00015287
1.2847e-06
-0.000149912
9.00196e-07
-0.000147458
2.95157e-07
-0.000146095
2.98209e-07
-0.000145339
6.09376e-07
-0.000145027
9.77605e-07
-0.000145017
1.11509e-06
-0.000146432
1.14947e-06
-0.000152034
1.22298e-06
-0.000155512
1.04255e-06
-0.000156392
7.91173e-07
-0.000156497
4.99276e-07
-0.000156498
1.45556e-07
-0.000154451
-1.31643e-07
-0.000149344
-3.70983e-07
-0.000147128
-2.25213e-07
-0.000146532
-2.44003e-08
-0.000146443
2.10625e-08
-0.000146523
-1.28233e-07
-0.000148705
-3.70162e-07
-0.00015591
-2.40227e-07
-0.000160193
1.8068e-07
-0.00016125
5.97146e-07
-0.000161421
6.27994e-07
-0.000161432
5.17959e-07
-0.000159294
3.59077e-07
-0.000151367
1.45183e-07
-0.000146394
-2.71582e-07
-0.000145103
-4.82398e-07
-0.00014499
-7.71602e-07
-0.000145234
-1.16346e-06
-0.000149573
-1.25003e-06
-0.000158837
-8.87596e-07
-0.000163887
-2.20661e-07
-0.000165316
3.45145e-07
-0.00016564
6.37376e-07
-0.000165782
7.02484e-07
-0.000163327
8.50716e-07
-0.000152308
4.81727e-07
-0.000143202
-1.28036e-07
-0.000139777
-9.06183e-07
-0.000139286
-1.58203e-06
-0.000139765
-2.2481e-06
-0.000146564
-3.21216e-06
-0.000157375
-2.56402e-06
-0.000162489
-9.04736e-07
-0.000163705
-6.29515e-08
-0.000163903
-3.5261e-07
-0.000158623
-1.47826e-06
-0.000144914
-3.34844e-06
-0.000127455
-4.1457e-06
-0.000107596
-1.47581e-05
-0.000130162
-6.34159e-05
3.37577e-05
-0.000143021
8.98017e-07
-0.00014358
9.14446e-07
-0.000143541
1.3241e-06
-0.000142826
2.1568e-06
-0.000141673
2.56965e-06
-0.000140645
2.24455e-06
-0.000140116
1.44461e-06
-0.000139995
8.88652e-07
-0.000139973
3.64978e-07
-0.00014016
-2.9036e-07
-0.000140226
-6.12248e-07
-0.000140346
-7.23218e-07
-0.00014108
-8.18308e-07
-0.000142268
-6.38345e-07
-0.000143233
-1.87241e-07
-0.000144726
4.22219e-07
-0.000146929
7.80774e-07
-0.000148145
9.66512e-07
-0.000148275
1.26692e-06
-0.000147954
1.39253e-06
-0.000146076
1.45604e-06
-0.00014391
5.98371e-07
-0.000142656
3.34268e-07
-0.000142029
1.46622e-07
-0.000141831
-1.7157e-07
-0.000141747
-4.7329e-07
-0.000142193
-7.06225e-07
-0.000146371
-7.1152e-07
-0.000150852
-4.72246e-07
-0.000152734
6.41228e-08
-0.000153277
7.79914e-07
-0.000153139
1.55044e-06
-0.000152059
2.07403e-06
-0.000148693
2.26833e-06
-0.000145488
1.86824e-06
-0.000143899
1.26417e-06
-0.000142909
9.90431e-07
-0.000142252
8.79015e-07
-0.000142081
8.02619e-07
-0.000142248
6.43204e-07
-0.000145565
6.12804e-07
-0.000150372
1.06219e-06
-0.000152353
1.40475e-06
-0.000152793
1.52512e-06
-0.000152808
1.52598e-06
-0.000152553
1.42537e-06
-0.000149819
1.21078e-06
-0.00014632
6.5425e-07
-0.000144567
6.77906e-07
-0.000143877
8.067e-07
-0.0001437
9.48447e-07
-0.000143769
1.05701e-06
-0.00014585
1.13324e-06
-0.000151798
1.17187e-06
-0.000155002
1.08937e-06
-0.000155666
1.07158e-06
-0.000155684
9.57798e-07
-0.000155632
7.41353e-07
-0.000153105
5.29521e-07
-0.000147975
1.82146e-07
-0.000145898
-2.80884e-07
-0.000145396
-5.43465e-07
-0.000145276
-6.09393e-07
-0.000145316
-7.00049e-07
-0.000147095
-8.14149e-07
-0.000153918
-5.55452e-07
-0.000158196
1.7295e-07
-0.000159241
8.17761e-07
-0.0001594
1.11104e-06
-0.00015942
1.19687e-06
-0.000157524
1.2155e-06
-0.000150366
8.61566e-07
-0.000145116
-1.45566e-07
-0.000143451
-1.09497e-06
-0.000143183
-1.6069e-06
-0.000143265
-1.85117e-06
-0.000145301
-2.17073e-06
-0.000153568
-1.69798e-06
-0.000159979
-2.89092e-07
-0.000161833
6.60914e-07
-0.00016217
1.06921e-06
-0.000162227
1.27248e-06
-0.000160219
1.38471e-06
-0.000151466
1.15979e-06
-0.000141883
-2.29816e-07
-0.00013674
-2.03642e-06
-0.000135269
-3.20507e-06
-0.000135189
-3.95115e-06
-0.00013739
-4.81301e-06
-0.000147583
-5.04529e-06
-0.000155
-3.49739e-06
-0.000156778
-2.3549e-06
-0.000157117
-2.45224e-06
-0.00015311
-3.6573e-06
-0.000141733
-6.25323e-06
-0.000126276
-8.86997e-06
-0.000107147
-2.34349e-05
-0.000134254
-6.79792e-05
3.5909e-05
-0.000140839
1.08247e-06
-0.000140989
2.06794e-06
-0.000140494
3.20944e-06
-0.000140459
3.98872e-06
-0.000140986
2.93506e-06
-0.000140862
2.27365e-06
-0.000140302
1.28165e-06
-0.000140061
3.76726e-08
-0.000140244
-1.19792e-06
-0.0001401
-1.23028e-06
-0.000139913
-1.16721e-06
-0.000139596
-8.84944e-07
-0.000139459
-3.49232e-07
-0.000139871
3.48588e-07
-0.000140548
1.14867e-06
-0.000141826
1.55012e-06
-0.000144082
1.09609e-06
-0.000146001
6.13567e-07
-0.000146721
3.66886e-07
-0.000146791
2.81823e-07
-0.00014633
3.24968e-07
-0.000143923
3.02214e-07
-0.000142469
1.86645e-07
-0.00014164
1.33145e-07
-0.000141102
5.35945e-08
-0.000140944
-9.66584e-09
-0.000141082
-1.70322e-07
-0.000143684
-2.90705e-07
-0.000146994
-1.07815e-07
-0.000148847
4.084e-07
-0.000149753
1.01445e-06
-0.000150001
1.64965e-06
-0.000149921
2.06585e-06
-0.000148772
2.31353e-06
-0.000145544
2.08829e-06
-0.000142803
1.72801e-06
-0.000141099
1.61383e-06
-0.00014035
1.48996e-06
-0.0001402
1.32971e-06
-0.000140245
1.11268e-06
-0.000142734
9.12e-07
-0.000147989
8.71876e-07
-0.000150597
1.06696e-06
-0.000151346
1.23595e-06
-0.000151465
1.33067e-06
-0.000151392
1.35634e-06
-0.000148799
1.36724e-06
-0.000143666
1.19817e-06
-0.000141839
9.17697e-07
-0.00014162
7.36118e-07
-0.000141644
5.9696e-07
-0.000142024
5.1017e-07
-0.000145042
6.4578e-07
-0.000150906
9.49921e-07
-0.00015341
1.20416e-06
-0.000153837
1.39685e-06
-0.000153875
1.43991e-06
-0.00015373
1.34086e-06
-0.000151513
1.06397e-06
-0.000146159
5.09803e-07
-0.000143333
-4.90138e-07
-0.000142657
-1.10099e-06
-0.000142498
-1.25e-06
-0.000142525
-1.23362e-06
-0.000143537
-1.20573e-06
-0.000149124
-7.32815e-07
-0.000153688
4.01729e-07
-0.00015505
1.29103e-06
-0.000155397
1.73077e-06
-0.000155394
1.82361e-06
-0.000154716
1.74874e-06
-0.000149767
1.31125e-06
-0.000143316
-6.23938e-08
-0.00014052
-1.62567e-06
-0.000139915
-2.30779e-06
-0.000139806
-2.52122e-06
-0.00014015
-2.56748e-06
-0.000145041
-2.5316e-06
-0.000152247
-1.05256e-06
-0.000155022
6.50964e-07
-0.000155663
1.47502e-06
-0.00015585
1.62027e-06
-0.000155389
1.48706e-06
-0.000150303
1.19952e-06
-0.000140796
-2.72217e-07
-0.000133415
-2.40113e-06
-0.000129959
-4.57928e-06
-0.000129388
-5.89797e-06
-0.000129605
-6.79539e-06
-0.000134147
-7.68101e-06
-0.00014094
-7.27442e-06
-0.000143449
-5.96019e-06
-0.000143852
-5.94371e-06
-0.000142328
-6.95869e-06
-0.000135013
-9.35905e-06
-0.000124918
-1.10022e-05
-0.000113521
-2.36125e-05
-0.000128521
-6.54744e-05
4.11193e-05
-0.000137299
1.71528e-06
-0.000137583
2.97756e-06
-0.000138819
3.91022e-06
-0.000140472
4.30535e-06
-0.000141566
3.33436e-06
-0.000142057
1.96561e-06
-0.000141819
8.91001e-07
-0.000140551
-3.51995e-07
-0.000139568
-1.54469e-06
-0.000138424
-1.7863e-06
-0.000136719
-9.46039e-07
-0.000135589
-7.69426e-08
-0.000135299
4.32569e-07
-0.000135998
8.55956e-07
-0.000139135
1.38368e-06
-0.000142034
1.61861e-06
-0.000143534
1.12376e-06
-0.000144396
4.83033e-07
-0.000144853
-8.57687e-08
-0.000144772
-4.8387e-07
-0.000144216
-4.9349e-07
-0.000141578
3.06748e-07
-0.000140025
5.09708e-07
-0.00013938
4.16185e-07
-0.000139125
3.36289e-07
-0.000139045
2.29419e-07
-0.000139368
3.11588e-08
-0.000141506
-7.40596e-08
-0.000143731
1.21294e-07
-0.000145048
6.07284e-07
-0.000145862
1.20253e-06
-0.000146263
1.74114e-06
-0.000146351
2.09033e-06
-0.000146109
2.25882e-06
-0.000143602
2.32262e-06
-0.000140588
2.08753e-06
-0.000139177
1.75926e-06
-0.000138668
1.47573e-06
-0.000138588
1.29704e-06
-0.000138661
1.10669e-06
-0.000141163
9.79487e-07
-0.000145779
9.91667e-07
-0.000147775
1.14291e-06
-0.000148347
1.34656e-06
-0.000148482
1.54658e-06
-0.000148397
1.55182e-06
-0.000146317
1.47343e-06
-0.000141425
1.20685e-06
-0.000139457
6.31182e-07
-0.000139118
3.08751e-07
-0.000139068
1.89107e-07
-0.000139135
1.03837e-07
-0.000141301
1.32233e-07
-0.000146952
7.76762e-07
-0.000149934
1.49033e-06
-0.000150757
1.78272e-06
-0.000150967
1.70419e-06
-0.000150977
1.48715e-06
-0.000150267
1.2435e-06
-0.000145619
6.64583e-07
-0.000141102
-6.3114e-07
-0.000139504
-1.58065e-06
-0.000138816
-1.70937e-06
-0.000138481
-1.45501e-06
-0.000138603
-1.16023e-06
-0.000141834
-7.97966e-07
-0.00014738
4.49944e-07
-0.000149903
1.63675e-06
-0.000150812
2.07612e-06
-0.000151172
2.00661e-06
-0.000151226
1.72273e-06
-0.000149389
1.45432e-06
-0.000142536
2.97557e-07
-0.000137528
-1.65296e-06
-0.000135892
-2.687e-06
-0.00013532
-3.0248e-06
-0.000135252
-2.93271e-06
-0.00013643
-2.86349e-06
-0.000143302
-2.13329e-06
-0.00014861
-1.83047e-07
-0.000149977
1.20819e-06
-0.000150238
1.64056e-06
-0.000150385
1.59037e-06
-0.000148248
1.26237e-06
-0.000140632
2.87273e-07
-0.000131982
-2.27493e-06
-0.000126205
-4.65519e-06
-0.000124327
-6.51607e-06
-0.000124287
-8.64047e-06
-0.0001257
-9.99543e-06
-0.000131064
-1.06513e-05
-0.00013519
-1.00216e-05
-0.000136571
-9.70724e-06
-0.000136654
-1.08402e-05
-0.000134192
-1.25052e-05
-0.000127898
-1.42546e-05
-0.000118891
-2.14139e-05
-0.000122492
-6.39887e-05
5.0472e-05
-0.000132289
1.98586e-06
-0.000133188
2.64039e-06
-0.000137622
3.59673e-06
-0.000141679
3.9344e-06
-0.00014351
2.70401e-06
-0.000143875
1.65853e-06
-0.000143703
7.69255e-07
-0.000142115
-2.14122e-08
-0.000137902
-1.24991e-06
-0.000133484
-6.7345e-07
-0.000131622
1.6832e-07
-0.00013124
3.2054e-07
-0.000131295
4.28531e-07
-0.000132673
4.96506e-07
-0.000137999
6.73724e-07
-0.000142228
1.04211e-06
-0.000143442
7.90733e-07
-0.000143623
2.71938e-07
-0.00014352
-2.04574e-07
-0.000142688
-2.93948e-07
-0.000139463
2.26866e-07
-0.000137344
6.67834e-07
-0.000136839
4.96835e-07
-0.000136734
3.08199e-07
-0.000136777
1.80475e-07
-0.000136904
8.89958e-08
-0.000137462
1.59329e-10
-0.000139012
6.41766e-08
-0.000140416
5.16836e-07
-0.000141301
1.11393e-06
-0.000141956
1.58657e-06
-0.000142457
1.91115e-06
-0.000142677
2.0928e-06
-0.0001426
2.07581e-06
-0.000141035
2.01076e-06
-0.000138556
1.8313e-06
-0.000137457
1.50652e-06
-0.000136987
1.26205e-06
-0.000136832
1.18787e-06
-0.00013688
1.12974e-06
-0.000139156
1.15521e-06
-0.000143077
1.40863e-06
-0.000144707
1.66944e-06
-0.000145309
1.77531e-06
-0.000145495
1.77653e-06
-0.000145492
1.66178e-06
-0.000144157
1.42615e-06
-0.000139833
9.34874e-07
-0.000137378
1.99941e-07
-0.000136554
-8.53644e-08
-0.000136166
-1.3004e-07
-0.000136118
-5.23353e-08
-0.000136989
-5.85443e-08
-0.00014218
3.98725e-07
-0.000146393
1.34556e-06
-0.000147873
1.83827e-06
-0.000148405
1.77101e-06
-0.000148556
1.50971e-06
-0.000148525
1.23064e-06
-0.000146141
9.09582e-07
-0.00014012
-9.47172e-08
-0.000136127
-1.06332e-06
-0.000134555
-1.521e-06
-0.000133947
-1.4365e-06
-0.000133844
-1.18327e-06
-0.000135166
-9.18851e-07
-0.000141226
-1.26566e-07
-0.000145599
1.31106e-06
-0.000147199
2.05877e-06
-0.000147878
2.06707e-06
-0.000148118
1.71387e-06
-0.000147898
1.36112e-06
-0.000143332
7.82758e-07
-0.000136385
-9.94665e-07
-0.000132269
-2.38042e-06
-0.000130926
-3.20483e-06
-0.000130602
-3.45431e-06
-0.000130727
-3.45732e-06
-0.000134275
-3.30194e-06
-0.000141664
-1.9312e-06
-0.000145527
2.24302e-07
-0.000146619
1.27727e-06
-0.000146795
1.48273e-06
-0.000146377
1.37399e-06
-0.000141297
9.41757e-07
-0.000132843
-1.21986e-06
-0.000126225
-4.06061e-06
-0.000122174
-6.69401e-06
-0.00012108
-9.189e-06
-0.000121181
-1.17536e-05
-0.000123441
-1.30159e-05
-0.000127757
-1.32687e-05
-0.000130133
-1.28372e-05
-0.000131241
-1.35382e-05
-0.000131581
-1.58904e-05
-0.000129863
-1.76584e-05
-0.00012549
-2.08023e-05
-0.000119378
-6.18055e-05
6.19945e-05
-0.000127911
1.73338e-06
-0.000129116
1.82384e-06
-0.000137523
2.17704e-06
-0.000143811
2.50307e-06
-0.000144884
1.76755e-06
-0.000144866
1.32875e-06
-0.00014458
7.03806e-07
-0.000142615
1.33457e-07
-0.000134439
7.77104e-07
-0.000129079
1.45496e-06
-0.000128323
1.04625e-06
-0.000128236
7.30281e-07
-0.000128318
3.65357e-07
-0.00013002
-1.8003e-07
-0.000136852
-6.51952e-07
-0.000142183
-1.59193e-07
-0.000142909
1.99866e-07
-0.000142793
1.68315e-07
-0.000142112
3.23763e-07
-0.000139288
1.0451e-06
-0.00013595
1.54167e-06
-0.000134447
1.10719e-06
-0.000134238
6.21705e-07
-0.000134218
8.25073e-08
-0.000134437
-1.98225e-07
-0.000134664
-2.71409e-07
-0.000134973
-1.65032e-07
-0.000135935
2.061e-07
-0.000137199
9.63042e-07
-0.000138023
1.7107e-06
-0.000138775
2.09943e-06
-0.000139567
2.1577e-06
-0.00013988
2.01107e-06
-0.000139831
1.8073e-06
-0.00013858
1.53599e-06
-0.000136432
1.16599e-06
-0.000135454
8.98842e-07
-0.000134953
8.78463e-07
-0.000134678
9.56994e-07
-0.000134685
1.06824e-06
-0.000136739
1.25084e-06
-0.000140814
1.71517e-06
-0.000142636
2.08281e-06
-0.000143266
2.11878e-06
-0.000143451
1.93762e-06
-0.000143436
1.72339e-06
-0.000142877
1.46035e-06
-0.000139011
1.0285e-06
-0.00013508
3.49601e-07
-0.000133628
-4.4738e-08
-0.000133197
-2.61582e-07
-0.000133096
-2.9918e-07
-0.000133401
-2.88811e-07
-0.000137485
-1.28727e-07
-0.000143231
6.49544e-07
-0.000145679
1.45422e-06
-0.000146413
1.68173e-06
-0.000146553
1.59565e-06
-0.00014658
1.43061e-06
-0.000145903
1.30325e-06
-0.000140191
9.56834e-07
-0.000133587
-3.0004e-07
-0.000130801
-7.85653e-07
-0.00013023
-1.34996e-06
-0.000130154
-1.54429e-06
-0.00013068
-1.48479e-06
-0.000135408
-1.07225e-06
-0.000141967
3.79603e-07
-0.000144839
1.79745e-06
-0.000145765
2.18878e-06
-0.000146072
2.00503e-06
-0.000146136
1.66518e-06
-0.000144437
1.29608e-06
-0.000137191
3.42018e-07
-0.000130784
-2.05242e-06
-0.000127625
-3.21915e-06
-0.000127112
-3.77587e-06
-0.000127094
-4.24236e-06
-0.000127999
-4.36233e-06
-0.00013403
-3.87729e-06
-0.000141159
-1.75739e-06
-0.000144136
2.52222e-07
-0.000144792
1.03788e-06
-0.000144971
1.16802e-06
-0.000143081
1.12523e-06
-0.000136405
2.39996e-09
-0.000129061
-2.98632e-06
-0.000123616
-6.40389e-06
-0.000120047
-9.52858e-06
-0.00011912
-1.19827e-05
-0.000119426
-1.45035e-05
-0.000121958
-1.54091e-05
-0.000125337
-1.51558e-05
-0.000127544
-1.50738e-05
-0.000128607
-1.71623e-05
-0.000128523
-1.99425e-05
-0.000127948
-2.11428e-05
-0.000118563
-5.98843e-05
7.01547e-05
-0.000125219
1.69935e-06
-0.000126723
1.25403e-06
-0.00013766
7.73878e-07
-0.000144314
2.05943e-07
-0.000144931
7.89346e-07
-0.00014481
7.25093e-07
-0.000144105
7.51168e-07
-0.000138939
1.79047e-06
-0.000131236
2.92178e-06
-0.000128185
2.50985e-06
-0.000127791
1.63475e-06
-0.00012774
9.95479e-07
-0.000128
2.46027e-07
-0.000129442
-7.37061e-07
-0.000134415
-1.69011e-06
-0.000139424
-1.26174e-06
-0.000140382
-1.4617e-07
-0.000140242
7.34209e-07
-0.000138697
1.72683e-06
-0.000136857
2.47675e-06
-0.000135526
2.35763e-06
-0.000134301
1.43618e-06
-0.000133265
6.03927e-07
-0.000132738
7.2034e-09
-0.0001326
-2.89571e-07
-0.000132427
-4.89095e-07
-0.000132223
-1.59518e-07
-0.000132399
3.82506e-07
-0.000134125
1.14364e-06
-0.000135835
2.16019e-06
-0.000136867
2.62134e-06
-0.00013764
2.48913e-06
-0.000137965
2.06344e-06
-0.000137906
1.65513e-06
-0.00013696
1.30464e-06
-0.00013426
7.63865e-07
-0.000132982
2.90796e-07
-0.000132436
2.41713e-07
-0.000132249
4.62934e-07
-0.000132309
6.67e-07
-0.000134278
9.40056e-07
-0.000138868
1.5435e-06
-0.000141352
2.08586e-06
-0.000142066
2.21836e-06
-0.000142211
2.1005e-06
-0.000142219
1.92839e-06
-0.000142015
1.78461e-06
-0.000139004
1.76243e-06
-0.000133819
1.08246e-06
-0.000131294
3.74912e-07
-0.0001309
-2.70173e-07
-0.000130863
-6.89846e-07
-0.000131083
-8.61207e-07
-0.000133832
-1.01439e-06
-0.000140485
-4.38955e-07
-0.000144031
9.0365e-07
-0.000144779
1.66096e-06
-0.000144867
1.9007e-06
-0.000144833
2.07154e-06
-0.000144412
2.20539e-06
-0.000140564
2.13237e-06
-0.000133407
8.53281e-07
-0.00012921
-6.84997e-07
-0.000128045
-1.34331e-06
-0.000128058
-1.9399e-06
-0.000128181
-2.16155e-06
-0.000130526
-2.07448e-06
-0.000137831
-9.22717e-07
-0.000142937
1.20611e-06
-0.000144405
2.31601e-06
-0.000144704
2.45813e-06
-0.000144803
2.23073e-06
-0.000144419
1.86961e-06
-0.000139197
1.25932e-06
-0.000131612
-8.03864e-07
-0.000127228
-2.94523e-06
-0.000125117
-3.88812e-06
-0.000124532
-4.6323e-06
-0.000124588
-4.81149e-06
-0.000126552
-5.05472e-06
-0.000133889
-4.38859e-06
-0.000139931
-2.16571e-06
-0.000142239
-3.95858e-07
-0.000142851
2.13656e-07
-0.000142872
3.23744e-07
-0.000140245
2.06465e-07
-0.000133752
-1.6655e-06
-0.000126933
-4.70822e-06
-0.000121798
-8.57196e-06
-0.000118561
-1.19742e-05
-0.000117793
-1.45524e-05
-0.00011809
-1.67207e-05
-0.000120894
-1.70843e-05
-0.000124414
-1.64432e-05
-0.00012704
-1.75124e-05
-0.000128129
-2.0645e-05
-0.000128931
-2.21715e-05
-0.000119413
-5.97309e-05
7.20264e-05
-0.000124899
1.58121e-06
-0.000129003
3.54817e-07
-0.000137264
-1.0061e-06
-0.000141838
-1.0117e-06
-0.000142764
-2.98067e-07
-0.000142545
5.53357e-07
-0.000139635
2.24134e-06
-0.000134872
3.59182e-06
-0.000131351
3.86666e-06
-0.000129127
3.14923e-06
-0.000128636
2.16981e-06
-0.000128687
9.23048e-07
-0.000129776
-5.30839e-07
-0.000130684
-1.49714e-06
-0.000132061
-1.7577e-06
-0.000134368
-1.16451e-06
-0.000135806
2.67137e-07
-0.000136105
1.7172e-06
-0.00013586
2.87552e-06
-0.000135887
2.84282e-06
-0.000135836
2.4719e-06
-0.000135134
2.06677e-06
-0.000133634
1.08457e-06
-0.000132591
5.45457e-08
-0.000131528
-3.78712e-07
-0.000130158
-3.98624e-07
-0.000129272
2.32574e-07
-0.000129109
8.42682e-07
-0.00013067
1.36205e-06
-0.000134235
2.30912e-06
-0.000136179
2.84455e-06
-0.000136954
2.61745e-06
-0.000137182
2.12576e-06
-0.000137156
1.6615e-06
-0.000136735
1.2802e-06
-0.000133596
7.02507e-07
-0.000130929
1.1051e-07
-0.000130113
-1.18321e-07
-0.000129884
-5.58761e-08
-0.000129963
2.56591e-08
-0.000131648
1.78981e-07
-0.000136836
7.82264e-07
-0.00014028
1.65785e-06
-0.000141103
2.11549e-06
-0.000141144
2.19992e-06
-0.000141049
2.28246e-06
-0.00014071
2.51322e-06
-0.000138917
2.55684e-06
-0.000134006
1.8664e-06
-0.000130681
4.26127e-07
-0.000129803
-4.01884e-07
-0.000129816
-9.93567e-07
-0.000129909
-1.72009e-06
-0.000131279
-1.92421e-06
-0.000137003
-1.48948e-06
-0.000141744
3.69122e-07
-0.000142846
1.86665e-06
-0.000143005
2.57413e-06
-0.000142877
2.9452e-06
-0.000142731
2.83578e-06
-0.000141328
2.52754e-06
-0.000135
1.6529e-06
-0.000129703
-3.60147e-07
-0.000127632
-1.7016e-06
-0.000127002
-2.55273e-06
-0.000126924
-2.4875e-06
-0.000127207
-2.40291e-06
-0.000132016
-2.03161e-06
-0.00013968
-7.47745e-08
-0.000142913
2.09651e-06
-0.000143607
2.7451e-06
-0.000143867
2.65745e-06
-0.000143928
2.26865e-06
-0.000142079
1.82119e-06
-0.000134915
7.01131e-07
-0.000128565
-1.72323e-06
-0.000124855
-3.70751e-06
-0.000122972
-4.448e-06
-0.000122705
-4.81867e-06
-0.000122891
-5.61059e-06
-0.000126374
-6.05839e-06
-0.000134064
-5.2415e-06
-0.000139319
-3.0999e-06
-0.000141386
-1.68652e-06
-0.000141779
-1.16193e-06
-0.000141227
-7.93066e-07
-0.000137768
-1.37447e-06
-0.000132093
-3.29165e-06
-0.000125658
-6.4394e-06
-0.000120292
-1.04067e-05
-0.000116993
-1.42814e-05
-0.000116317
-1.67627e-05
-0.000116791
-1.86789e-05
-0.000120563
-1.85661e-05
-0.000124979
-1.84289e-05
-0.000127468
-2.11806e-05
-0.000129305
-2.29549e-05
-0.000119729
-5.9177e-05
7.19608e-05
-0.000127467
9.10424e-07
-0.000133502
-7.8038e-07
-0.000136865
-6.84101e-07
-0.000138207
-9.53956e-07
-0.000138368
-1.65957e-07
-0.000136715
1.94292e-06
-0.000133845
3.47974e-06
-0.000132545
3.70715e-06
-0.000131889
3.62246e-06
-0.000131432
3.12433e-06
-0.000131394
1.65638e-06
-0.000131893
1.7274e-07
-0.000131643
-7.58551e-07
-0.000131239
-1.32364e-06
-0.000130296
-5.68961e-07
-0.000130004
2.44168e-07
-0.000130854
1.19231e-06
-0.000132218
2.63835e-06
-0.000134296
2.96008e-06
-0.000135843
2.68938e-06
-0.000136178
2.42565e-06
-0.000136092
1.96531e-06
-0.00013526
1.45765e-06
-0.000133051
4.50215e-07
-0.000130118
-3.33026e-07
-0.000127602
2.13224e-07
-0.000126651
9.46402e-07
-0.000126479
1.35238e-06
-0.00012757
1.68434e-06
-0.000132692
2.23015e-06
-0.000136101
2.57652e-06
-0.000137023
2.56995e-06
-0.000137169
2.09102e-06
-0.000137172
1.69269e-06
-0.000136893
1.2878e-06
-0.000133942
7.94288e-07
-0.000129732
6.47399e-08
-0.000128289
1.58884e-08
-0.000128137
-2.14553e-07
-0.000128125
-4.53432e-07
-0.00012927
-6.27777e-07
-0.000134449
-3.51487e-07
-0.00013877
7.82722e-07
-0.000139717
1.77415e-06
-0.00013976
2.29957e-06
-0.000139329
2.75495e-06
-0.000139117
2.85482e-06
-0.000138791
2.59119e-06
-0.000135837
2.21306e-06
-0.000131834
6.38042e-07
-0.000130374
-9.24459e-07
-0.00012991
-2.03158e-06
-0.000129671
-2.25825e-06
-0.000129704
-2.18371e-06
-0.000131913
-1.96812e-06
-0.000137905
-3.67459e-07
-0.000140633
1.91432e-06
-0.000141167
3.02347e-06
-0.000141353
3.37029e-06
-0.000141658
2.96484e-06
-0.000141591
2.45056e-06
-0.000138509
1.98923e-06
-0.00013209
4.5447e-07
-0.000128326
-1.5552e-06
-0.000126342
-2.50986e-06
-0.000125507
-2.44455e-06
-0.000125456
-2.38721e-06
-0.000126635
-2.42e-06
-0.000133896
-1.7538e-06
-0.000140454
6.66345e-07
-0.000142694
2.47694e-06
-0.000143278
2.8487e-06
-0.000143371
2.60843e-06
-0.000143178
2.36874e-06
-0.000138983
2.01089e-06
-0.000130738
6.73338e-07
-0.000125375
-2.26149e-06
-0.000123003
-3.96161e-06
-0.000121981
-4.88078e-06
-0.000121809
-5.83974e-06
-0.000122147
-6.59285e-06
-0.000126294
-7.04782e-06
-0.000133415
-6.41378e-06
-0.000137692
-4.66045e-06
-0.000139393
-3.36589e-06
-0.000139617
-2.79183e-06
-0.000138766
-2.11689e-06
-0.000135679
-2.99342e-06
-0.000130871
-4.72371e-06
-0.000124634
-7.85319e-06
-0.000118825
-1.23742e-05
-0.000115205
-1.67485e-05
-0.000114726
-1.89412e-05
-0.000115735
-2.08415e-05
-0.000121263
-2.08242e-05
-0.000125764
-2.26992e-05
-0.000128733
-2.42712e-05
-0.000120351
-5.63443e-05
7.18769e-05
-0.000131228
-8.37574e-07
-0.000135433
-6.97679e-07
-0.000136191
-4.00946e-07
-0.000135955
3.15009e-07
-0.000133506
2.15308e-06
-0.000131632
3.51969e-06
-0.0001315
3.82694e-06
-0.000131652
3.41088e-06
-0.000132592
2.84043e-06
-0.000134137
1.72382e-06
-0.000134755
5.37497e-07
-0.000134515
-3.55678e-07
-0.000132666
-4.42469e-07
-0.00012919
1.62105e-07
-0.000127357
1.02685e-06
-0.000126982
1.66605e-06
-0.000127597
2.30504e-06
-0.000130847
2.88214e-06
-0.000134177
2.8262e-06
-0.000136029
2.56919e-06
-0.000136758
2.05585e-06
-0.000136897
1.60758e-06
-0.000136661
1.1478e-06
-0.000133419
7.90513e-07
-0.000127482
8.65893e-07
-0.00012504
1.49606e-06
-0.00012461
1.57935e-06
-0.000124596
1.57275e-06
-0.000125803
1.62849e-06
-0.000131549
1.82326e-06
-0.000136206
2.23504e-06
-0.000137353
1.95987e-06
-0.000137433
1.75083e-06
-0.000137374
1.47963e-06
-0.000137162
1.26472e-06
-0.000134422
1.08703e-06
-0.000129373
1.03615e-06
-0.000127631
3.35445e-07
-0.000127422
-1.77694e-07
-0.000127404
-5.61888e-07
-0.000127715
-1.07156e-06
-0.000130943
-1.32218e-06
-0.000135842
-3.24284e-07
-0.000137688
1.30105e-06
-0.000138006
2.35545e-06
-0.000138053
2.97801e-06
-0.000138444
2.72914e-06
-0.000138716
2.35892e-06
-0.000138299
1.79617e-06
-0.00013492
8.86675e-07
-0.000131778
-9.65375e-07
-0.000129936
-2.26346e-06
-0.000128417
-2.49127e-06
-0.000127437
-2.09815e-06
-0.000127664
-1.69115e-06
-0.000131875
-1.15711e-06
-0.00013778
8.52126e-07
-0.000140158
2.74539e-06
-0.000141072
3.34146e-06
-0.000141508
3.0135e-06
-0.000141578
2.6057e-06
-0.000140785
2.19701e-06
-0.000135031
1.87741e-06
-0.000128887
-1.0217e-07
-0.000125765
-1.84058e-06
-0.000124584
-2.18251e-06
-0.000124414
-2.58155e-06
-0.00012448
-2.7387e-06
-0.000127334
-3.00435e-06
-0.000135666
-1.91505e-06
-0.000140936
1.05385e-06
-0.000142177
2.63725e-06
-0.000142267
2.96493e-06
-0.000142254
3.08067e-06
-0.000141244
2.92298e-06
-0.000136128
2.30645e-06
-0.000128887
1.04275e-07
-0.000124462
-2.7066e-06
-0.000122233
-4.59974e-06
-0.000121016
-5.75246e-06
-0.000120919
-6.43555e-06
-0.000121596
-7.65621e-06
-0.000126275
-8.59088e-06
-0.000132619
-8.07104e-06
-0.000136126
-6.34161e-06
-0.000137394
-5.02607e-06
-0.000137568
-4.2388e-06
-0.000136478
-3.57437e-06
-0.000133937
-4.37702e-06
-0.000130001
-6.26089e-06
-0.000123826
-9.78796e-06
-0.000117477
-1.50227e-05
-0.000113563
-1.93582e-05
-0.000113544
-2.13098e-05
-0.000115971
-2.33775e-05
-0.000122465
-2.50844e-05
-0.000126734
-2.68252e-05
-0.000121636
-5.17069e-05
7.13155e-05
-0.000131169
-1.52077e-06
-0.000132969
-9.95352e-07
-0.000133199
6.63708e-07
-0.00013162
2.51521e-06
-0.000130073
4.21517e-06
-0.000130217
4.41121e-06
-0.000131297
3.6147e-06
-0.000133545
2.90729e-06
-0.000135521
1.58433e-06
-0.000136204
5.23835e-07
-0.000136034
-4.07447e-07
-0.000134579
-3.51541e-07
-0.000129969
4.67022e-07
-0.000126108
1.65628e-06
-0.000125016
2.31128e-06
-0.00012489
2.57828e-06
-0.000126445
2.90846e-06
-0.000131476
2.71273e-06
-0.000135302
2.42835e-06
-0.000136915
1.95994e-06
-0.000137388
1.6637e-06
-0.00013731
1.2644e-06
-0.000136913
1.07645e-06
-0.000131562
1.56881e-06
-0.000124942
2.5381e-06
-0.000123415
2.35627e-06
-0.000123353
1.9934e-06
-0.000123365
1.70449e-06
-0.000124936
1.38814e-06
-0.000131621
1.25667e-06
-0.000136767
8.10953e-07
-0.000137717
1.27625e-06
-0.000137665
1.3439e-06
-0.00013753
1.42037e-06
-0.000136921
1.64343e-06
-0.000134007
2.29638e-06
-0.000129581
1.66947e-06
-0.000127774
8.70105e-07
-0.000127503
-1.26128e-08
-0.000127607
-7.50562e-07
-0.000127632
-1.36865e-06
-0.000127868
-1.56268e-06
-0.00013118
-1.3188e-06
-0.000135084
3.56072e-07
-0.000136713
2.08262e-06
-0.000137661
2.77738e-06
-0.000138819
2.65995e-06
-0.000139544
2.10298e-06
-0.000139589
1.53499e-06
-0.000138215
1.06466e-06
-0.000133456
-1.1514e-07
-0.000129299
-1.79442e-06
-0.000126597
-1.97237e-06
-0.000125545
-1.90684e-06
-0.000125397
-1.7956e-06
-0.000126633
-1.70834e-06
-0.000133681
-9.12365e-07
-0.000139356
1.5576e-06
-0.000141079
3.09169e-06
-0.000141276
3.19636e-06
-0.000141303
3.16064e-06
-0.000141093
3.15081e-06
-0.000137672
3.03289e-06
-0.000130032
1.9904e-06
-0.000125954
-6.83404e-07
-0.000124515
-2.11461e-06
-0.000124034
-2.85512e-06
-0.000124012
-3.47908e-06
-0.000124145
-3.73756e-06
-0.000127537
-3.77238e-06
-0.000135153
-1.96013e-06
-0.000139392
1.31199e-06
-0.00014084
2.91921e-06
-0.000141252
3.20943e-06
-0.000141371
3.02207e-06
-0.000140457
2.65053e-06
-0.000134604
2.08639e-06
-0.000127377
-1.90538e-07
-0.000123045
-3.18552e-06
-0.000121164
-5.1712e-06
-0.000120461
-6.41184e-06
-0.00012049
-7.7366e-06