/*--------------------------------*- C++ -*----------------------------------*\
  =========                 |
  \\      /  F ield         | OpenFOAM: The Open Source CFD Toolbox
   \\    /   O peration     | Website:  https://openfoam.org
    \\  /    A nd           | Version:  12
     \\/     M anipulation  |
\*---------------------------------------------------------------------------*/
FoamFile
{
    format      ascii;
    class       surfaceScalarField;
    location    "4.2";
    object      phi;
}
// * * * * * * * * * * * * * * * * * * * * * * * * * * * * * * * * * * * * * //

dimensions      [1 0 -1 0 0 0 0];

internalField   nonuniform List<scalar> 
69079
(
-0.000198966
0.00011463
8.32318e-05
0.000166001
5.71375e-17
-0.000166001
-0.000179374
0.000179374
0.000167917
-1.91521e-06
-0.000176703
-2.67121e-06
-0.000176703
9.46514e-05
-0.000176738
8.5997e-05
1.09074e-06
0.000147526
-0.000147946
0.000169597
-0.000169597
3.77031e-17
0.00016874
8.56803e-07
-0.000124962
-7.5322e-05
-0.000146454
0.000156995
-1.03969e-05
-0.000166388
0.000162809
3.57841e-06
-0.000165548
-8.40003e-07
4.5797e-06
-0.000146503
0.000141924
0.000168773
-3.36001e-08
0.000167933
8.40003e-07
-0.000168572
0.000166354
2.21761e-06
-0.000166724
-1.84801e-06
0.000168454
-0.000167513
-9.40804e-07
0.000167144
1.31041e-06
0.000170117
-0.00017257
2.45281e-06
-0.00018139
1.74049e-05
0.000163985
0.000184695
-0.0001215
-6.29123e-05
0.000155121
-2.30374e-05
-0.000131037
-0.000167933
-1.66321e-06
0.0001679
3.36001e-08
3.86402e-07
-1.68001e-08
0.000151495
-0.000149687
0.00015767
-0.000164621
6.97397e-06
0.000159419
-0.000172757
1.33402e-05
0.000186008
-2.65884e-05
0.000166203
9.40804e-07
-5.20802e-07
-0.000167833
3.10801e-05
0.000136753
0.000165934
-0.000165934
-1.76061e-14
3.86402e-07
-1.17409e-05
0.000160373
-0.000147249
-1.48681e-05
-0.000166522
0.00014129
2.79068e-05
-0.000165868
-0.000166787
2.04501e-05
0.000164775
-0.000164775
-2.6644e-10
-7.98234e-06
-0.000135065
0.000163888
-2.89875e-05
0.000164506
1.84801e-06
-1.42801e-06
-9.71884e-05
0.000185607
-8.84187e-05
0.000157338
-0.000162671
4.31374e-06
0.000185353
-2.88061e-05
0.000160993
2.4426e-05
0.000186698
-2.55207e-05
0.000159634
-4.73762e-06
-0.000154897
-0.000142016
0.00017021
-2.84288e-05
-0.000175847
0.000180133
-4.28634e-06
-0.00016426
7.05258e-05
9.37956e-05
0.00016231
-0.000163316
1.04549e-06
0.000187567
-2.51267e-05
0.000160763
-1.80363e-07
-0.000160589
-7.64048e-05
-5.71832e-05
0.000136951
9.95068e-05
6.67467e-05
-0.000166253
0.000166732
-9.82708e-05
-7.00494e-05
-1.87657e-05
-0.000149067
6.53019e-05
-0.00016249
-0.000139852
0.000144432
0.000161969
8.40002e-07
-2.80561e-06
0.00019604
-0.00019604
-1.89217e-05
-0.000145177
-0.000147846
1.24218e-05
-6.58611e-05
0.000163656
0.00015883
2.87663e-05
0.00018652
-2.77452e-05
0.000169786
-2.55328e-05
-0.000144469
0.000169966
-0.000166472
-3.49441e-06
0.000118607
6.70817e-05
0.000153344
-0.000157623
4.24115e-06
-3.64837e-06
0.000156962
-0.000160659
1.47841e-05
0.000145875
0.000160307
2.57435e-05
-2.22536e-06
0.000157147
-0.000186056
2.88979e-05
0.00013603
2.36041e-05
0.000174616
-1.74589e-05
-9.61818e-05
-6.66714e-05
0.000157709
-0.000156056
0.000158055
-1.99921e-06
0.000156539
-0.000177222
2.06844e-05
0.000157822
-1.31576e-06
-0.00011592
-5.62446e-05
-8.26563e-06
-0.000133477
0.000141742
-9.2182e-05
0.000181222
-8.90403e-05
0.000191117
-4.94789e-05
-0.000168958
1.29025e-05
0.000157757
2.88428e-05
9.04684e-05
6.85947e-05
-0.000159063
-5.6087e-06
-0.000154426
-1.45321e-05
4.08242e-07
-0.000138258
0.00013785
0.000165189
-4.41079e-06
8.85531e-05
7.81707e-05
-0.000166724
7.07787e-05
-0.000162961
-0.000155787
1.36081e-06
0.000167866
-0.000167866
0.000169159
-1.15955e-05
2.64272e-05
-0.00018218
0.000155753
5.83772e-05
-0.000155493
-0.000154316
-1.24917e-05
0.000153504
-0.000179174
2.56451e-05
0.000157069
-3.606e-06
8.73348e-06
0.00013481
-0.000143642
-5.89878e-06
0.000146355
-0.000139025
0.000157165
2.92515e-05
-2.89711e-05
-0.000136892
0.0001373
9.79444e-06
-0.00015782
0.000148025
-0.000161206
4.60503e-05
-9.62671e-06
0.000145113
-0.000135336
5.79002e-05
-0.000134323
-0.000149103
-5.47764e-06
0.000154579
0.000149579
-0.000153707
3.94651e-06
-0.000161197
0.000138987
2.22097e-05
-5.77922e-06
-0.000170924
0.000151895
2.27658e-05
-7.62004e-06
0.000159575
-0.00017336
0.00017336
-0.000154938
5.83165e-06
-4.70906e-05
0.000146597
0.000183223
-0.000109417
-7.39585e-05
-0.000180601
7.39866e-05
0.000106615
0.000165163
-1.11813e-06
-0.000164013
0.0001507
-0.00017604
2.53476e-05
0.000155897
-5.13625e-06
0.000164338
-4.76489e-06
0.000135509
-0.000130807
0.00015559
9.62806e-06
0.000101708
-0.000161381
5.96738e-05
0.00015155
-0.000183267
3.16964e-05
0.000181908
-3.03768e-05
-2.15735e-06
0.000151509
-0.000101019
0.000190664
-8.96451e-05
-0.000129551
-2.80782e-05
0.000146465
-0.00017426
2.7733e-05
0.000152375
-6.04035e-06
0.000155037
-0.000166211
1.12379e-05
-0.000163289
3.37598e-05
-4.3904e-05
-0.000136697
0.000150122
-0.00018124
3.11284e-05
-2.70824e-05
-0.000155883
0.000145736
0.000111334
-0.0001196
-0.000129568
0.000138103
0.000178383
-0.000178383
0.00015564
7.33001e-09
-2.76158e-05
0.000155869
-0.000165296
9.49214e-06
-0.000152453
4.5553e-06
8.79421e-05
9.53387e-05
-0.000168236
2.66953e-05
0.000141541
0.000147749
-0.000179545
3.17875e-05
-0.00014942
0.000178808
-3.10573e-05
-0.00015214
-2.45165e-06
0.000129969
-5.95305e-05
-5.31722e-05
0.00015488
-1.9449e-05
0.000175138
0.000150422
3.14679e-05
-0.000133281
0.000128481
-3.08316e-05
0.000158017
-0.000158013
9.09052e-05
-0.000158441
6.75363e-05
0.000146065
-0.00017811
3.20739e-05
0.000177617
-3.15246e-05
-2.51161e-05
-0.000147454
0.000152966
5.58566e-06
-0.000147117
-2.84929e-05
-0.000153687
1.7902e-05
-0.00013347
0.000115374
-0.000109826
0.000169668
-5.95635e-05
-0.000150797
5.44322e-06
0.000145354
1.21689e-05
0.000156419
-0.00013857
0.000129007
0.000150881
0.000159968
-4.19756e-06
0.000144327
-0.000176808
3.24549e-05
-3.48968e-05
9.24004e-07
-0.0001469
0.000145976
0.000148935
8.85736e-06
-3.06262e-05
5.93172e-05
0.000104614
0.000144346
6.38402e-07
-0.000144985
1.49521e-06
0.000142851
1.13904e-05
0.000158576
-6.18746e-05
-7.89099e-05
0.000140785
-0.00017919
9.91725e-05
8.04343e-05
9.65164e-05
-0.000158391
4.87202e-07
0.000146732
-0.000147219
-0.000146782
0.000147269
0.000138905
-0.000143512
-0.000155216
0.000161415
-6.19922e-06
0.000135573
-0.000162853
2.74241e-05
0.000147069
-1.13697e-05
-1.3304e-05
-0.000129135
0.000142439
8.74107e-05
6.22946e-05
-0.000149705
0.000145869
3.29746e-05
-3.21989e-05
2.20249e-05
-0.000153855
0.00013183
-0.000144884
-7.34376e-06
0.000155327
4.50508e-06
0.00014159
-0.000175252
3.37087e-05
0.000174155
-3.25224e-05
9.81628e-05
-0.000156951
5.87885e-05
0.000148378
-0.000138584
0.000159551
-0.000165031
0.000147846
1.05293e-05
-5.20802e-07
0.000158576
4.12723e-05
-0.000150209
-0.00015283
-2.38561e-06
0.000160627
-5.60192e-06
-9.70554e-05
-5.13289e-05
0.000141571
0.000139745
-0.000173217
3.3452e-05
0.000170924
-2.23945e-05
-0.000173645
-3.62973e-05
0.000121481
-0.000103858
0.000144209
3.34028e-05
-3.26219e-05
-9.92567e-05
-7.45608e-05
0.000167993
0.000167127
-0.000164859
-2.26801e-06
-1.94713e-05
0.00016753
-0.000148059
0.000132325
-0.000159384
2.71804e-05
0.000145214
-1.2818e-05
0.000140011
-0.000140516
4.79752e-07
-6.09842e-06
-0.000155098
-0.000172217
2.64097e-05
0.000145808
-3.08953e-05
-0.000141322
-2.16385e-05
-0.000151721
-6.18242e-05
0.000152293
-0.00019058
0.000102245
8.83347e-05
-0.000159315
0.000137895
2.14201e-05
0.000139128
9.07076e-07
0.000152532
-0.000144662
-7.88049e-06
-0.000180836
0.000159197
-0.000155686
-1.008e-07
-0.0001532
0.000155703
-2.50321e-06
-9.32572e-05
-9.73228e-05
9.10228e-05
-0.000162893
7.18707e-05
-8.73603e-07
-0.000165598
-5.51042e-06
-0.000162725
0.000155881
-5.36087e-07
-0.000160189
6.98883e-06
0.000137033
-0.000172129
3.50768e-05
-3.72495e-05
0.000147869
4.68321e-06
0.000129225
-0.000156019
2.67598e-05
-0.000163616
3.42721e-06
0.000143192
-1.39782e-05
0.000144831
1.2275e-05
-3.03847e-05
0.000158513
-0.000152416
-6.1361e-06
-1.20865e-05
0.00014268
-0.000125024
0.00016333
-0.00016333
-0.000190061
9.05267e-05
0.000101289
-8.32354e-05
0.000159489
-7.38963e-05
-0.000138582
-4.64802e-06
0.000143312
-0.000162492
-3.66933e-06
-0.000103936
-5.43774e-05
0.000159348
8.98972e-05
5.56418e-05
-0.000145539
0.000110003
-0.000123307
5.19122e-06
0.000156005
-0.000161197
0.000139611
3.45366e-05
0.000134249
-0.000169909
3.57525e-05
-3.36536e-05
-0.000172822
0.000153351
-0.000155031
0.000155031
0.000105656
6.2345e-05
0.000168415
-3.40825e-05
-2.73673e-05
-0.000153469
0.000136229
9.6634e-05
-0.000158712
6.20779e-05
-5.47462e-06
-0.000156501
0.000161837
-1.30481e-06
0.000148355
-0.000147102
0.0001256
-0.000152746
2.72338e-05
0.000141402
-1.56614e-05
0.000166993
-0.000168387
-0.000140482
0.000145673
-0.000101928
-7.66282e-05
-7.97587e-05
0.00014798
-6.55554e-05
-0.000156947
3.35284e-06
0.000157427
-0.000163077
5.72879e-06
-8.42523e-05
0.000171663
0.000163633
1.55728e-06
0.000162681
9.34444e-07
-0.000189207
8.48708e-05
9.59979e-05
4.73426e-05
0.000138265
0.000162383
2.88932e-07
9.56983e-05
-0.000140083
4.43708e-05
0.000161869
5.66162e-06
0.000143498
-4.78081e-05
4.96371e-05
0.000132497
-0.000167651
3.51354e-05
0.00015955
0.00016695
-3.45825e-05
0.000162464
-2.71885e-05
-0.000135505
-0.000147421
-3.70406e-06
0.000151122
-0.000183054
0.000106428
7.66251e-05
0.000141902
1.40398e-05
-3.01829e-05
-5.61122e-05
0.000154275
0.000169536
-0.000169554
-0.000140062
0.000140701
0.000146833
-0.000145337
-9.32766e-05
0.000163702
-7.17167e-05
-2.73841e-06
-0.000157921
0.000130431
-0.000165787
3.54173e-05
-0.000150848
0.000154594
-3.74641e-06
0.000165333
-3.48057e-05
-0.000158019
0.000158016
0.00015764
4.76679e-06
3.72961e-06
-0.000149487
0.000145757
-0.000148552
0.000142974
-0.000127325
-1.06167e-05
0.000138111
-0.000157181
6.33362e-06
-0.000128751
-4.61504e-05
0.000121294
-0.000143885
0.000176645
-1.57589e-05
0.000158192
-6.83886e-07
-0.000154325
-2.85601e-06
0.000158895
-0.000158895
0.000128739
-0.000164549
3.58396e-05
0.00016406
-3.5296e-05
0.000119382
-0.000145493
2.62395e-05
0.000136537
-1.69995e-05
-9.19636e-05
-9.109e-05
-0.000162356
6.1337e-05
-0.000152259
-2.06641e-06
8.90962e-05
7.4826e-05
0.000152107
6.51737e-06
0.00013984
1.25045e-05
-3.0012e-05
-0.000152746
0.000140113
1.26336e-05
0.000173645
-0.000166993
-0.000134216
0.000149
0.00014373
-0.00015642
1.26889e-05
0.000147286
-6.08162e-06
-0.000141205
0.000126695
-0.000163089
3.62275e-05
0.000162224
-3.56632e-05
-5.49362e-06
-0.000153821
-0.000148862
0.00015461
-5.62036e-06
9.40804e-07
-0.000151738
0.000181578
-3.4639e-05
-7.20891e-05
0.000160642
4.49318e-07
-0.000175166
2.86626e-05
-0.000136954
-1.53003e-05
0.000149117
-6.82083e-06
-0.000142297
0.000132257
3.62066e-05
0.000156005
-6.51003e-05
-3.53405e-05
-0.00015787
0.000143338
1.45321e-05
7.02489e-06
-0.000143851
-0.000201937
0.00011792
8.40171e-05
-0.000149437
4.95602e-06
0.000144481
-9.15268e-05
-0.00011041
5.56082e-06
0.000141793
-0.000147353
-0.00015026
6.95523e-06
0.000143305
-1.04328e-05
-0.000139827
-0.000156308
0.000145875
0.000124876
-0.000161342
3.65934e-05
-0.000150663
3.86402e-06
0.000146799
0.00015026
-6.43443e-06
-0.000143825
-5.12402e-06
0.000149504
-0.00014438
0.000145136
0.000160978
-3.59854e-05
0.000151889
-6.58563e-06
-0.000145304
0.000158779
-1.13594e-06
-0.000160339
-1.69009e-05
-0.000155921
-6.70323e-06
0.000151553
-0.00014485
8.76627e-05
5.83298e-05
-0.000145993
-0.000155219
5.74475e-05
-8.12379e-05
-7.15116e-05
-0.000165951
3.86874e-05
0.000130167
3.66481e-05
6.37214e-06
-0.000148308
-3.56933e-05
7.39203e-06
0.000139894
-0.00014144
1.05e-05
0.00013094
0.000123157
-0.000160274
3.70589e-05
-7.01754e-06
0.000165032
0.000150411
-5.94722e-06
-0.000144464
-0.000155049
-8.08668e-06
0.000159373
-3.64678e-05
-9.65637e-05
0.000142906
-4.8297e-05
0.000167009
-1.49521e-05
-0.000152057
0.000179375
-3.15172e-05
-0.000156789
0.000152665
3.97178e-06
0.000156951
-0.0001569
-0.000162272
9.60964e-06
0.000152662
-6.39409e-06
0.00015139
-0.000145259
-8.56635e-05
0.000154258
0.000111566
-0.000137353
2.58827e-05
-2.00335e-05
0.000131833
1.40953e-05
0.000156459
-5.71764e-06
0.000149616
-0.000143898
-1.45489e-05
0.000129529
-0.00011498
0.000176871
-0.00010458
-7.22907e-05
3.30961e-06
-0.000149974
0.000146665
3.20881e-06
-0.000155468
0.000154342
-0.000154342
-0.000145371
0.000147219
-1.84801e-06
0.000150833
-0.000156238
5.40135e-06
-0.000134333
0.000135257
1.13009e-06
0.000150006
-0.000151186
2.40241e-06
-0.000149873
0.000147471
8.20187e-05
7.81895e-05
-0.000159895
-1.66321e-06
0.000157366
-0.000152175
-1.94881e-06
0.000154124
-0.000152413
-2.30504e-07
0.000149017
-0.000146614
0.000137441
4.3781e-05
0.000121021
-0.000158275
3.73316e-05
-6.60579e-05
-7.39035e-05
0.000139961
0.000128314
3.70827e-05
-0.00017551
0.000109452
0.000150021
-5.33872e-05
-4.16805e-05
-3.61713e-05
-0.000184885
0.000105504
7.93803e-05
-9.4359e-05
0.000169875
-7.56397e-05
8.46505e-05
8.13661e-05
-0.000166017
-9.28036e-05
0.000158105
-0.00015278
0.00014527
7.50963e-06
-0.00015404
1.26e-06
-0.000148546
-2.96517e-06
0.000151396
5.1663e-06
0.000164719
-0.000142145
-4.03202e-06
0.000146177
-0.000132586
0.000118037
0.000109073
-0.000137611
0.000136885
-0.000147379
5.20802e-07
0.000145405
-0.000145925
6.30308e-05
-0.000141489
-9.75748e-05
-8.73099e-05
5.39935e-06
0.00014642
-0.000151685
-0.000157239
-7.95044e-06
-0.00018806
0.00010915
-3.81361e-06
-0.000158458
0.000156955
-0.00015685
-0.00013094
0.000157635
-0.000145372
0.000144028
3.77577e-07
0.000150618
-0.000151448
-3.20377e-05
-0.000122993
8.08399e-05
-0.000179097
-4.50074e-05
0.000150663
-0.000145873
-8.42363e-06
0.000154287
5.54692e-07
0.000119527
-0.000119763
6.75245e-06
-0.000151135
0.000144382
0.000126657
3.7449e-05
0.000145925
4.52149e-06
-0.000150852
0.000149605
-8.06403e-07
-0.000148798
-4.76625e-06
0.000150437
0.000145013
-0.000150095
-3.65264e-05
-0.000147219
-3.44401e-06
-5.4024e-06
0.000150388
-0.000161768
0.000167211
-0.000147118
0.00014821
-1.092e-06
5.56084e-06
0.000143456
0.000143691
5.81282e-06
-0.000147572
4.53602e-07
-8.70822e-05
-5.97386e-05
0.000146978
-0.000176471
3.82134e-05
0.000119511
-0.000118827
-3.72252e-06
0.000117158
-0.000157937
4.04301e-05
0.000157885
-0.000152155
-5.56812e-06
-2.69147e-06
0.00015865
0.000154704
-3.77527e-05
5.3212e-05
-0.000155122
0.000112935
-0.00013314
2.04149e-05
-2.18071e-05
0.000134551
-0.000153149
0.00014107
1.20792e-05
0.00013976
-1.2348e-05
-0.000152511
0.000158257
-8.00859e-05
-5.31903e-05
0.000127178
-0.000152477
0.000146967
-3.93576e-06
-0.000141313
-9.73403e-05
-9.47687e-05
-0.000118899
1.35949e-06
0.000117461
-0.000143431
0.000139664
6.59394e-06
0.000146533
-0.00015295
-1.43194e-05
-0.000121989
0.000136459
6.12024e-06
0.000146834
-0.000152927
0.000178467
-8.72427e-05
-9.12244e-05
7.62723e-06
0.00014149
0.000124431
3.78093e-05
-0.0001546
3.15142e-06
0.000150824
-0.00014472
6.00342e-06
-3.68477e-05
0.000116072
-0.000154091
3.81436e-05
-4.32153e-05
0.000109785
-0.000129813
2.01306e-05
-0.000131878
0.000126097
-0.000142767
-6.66963e-06
-2.2512e-05
0.000132512
6.62626e-06
6.71835e-05
0.000109688
0.000159903
-0.000156593
0.000151033
-1.42801e-06
-0.000143943
6.73743e-05
0.000149319
-5.02322e-06
-0.000144296
-0.000150131
0.000162103
0.000138869
-0.000116844
1.41121e-06
-0.000141473
5.70865e-06
-0.000151054
0.000145546
-4.04882e-06
0.000158643
8.61507e-05
8.06235e-05
-0.000166774
0.000104093
6.90657e-05
-0.000173969
-0.000125533
-9.84039e-06
0.00013524
-3.39266e-06
-0.000147949
0.000151603
9.76084e-06
0.000153569
-0.000153721
0.000148438
-0.000151566
0.000151873
-0.000153956
2.08321e-06
-3.6615e-06
0.000152652
1.84866e-06
0.000149776
-0.000151379
0.000150366
-0.000153416
-0.000160558
-9.61011e-05
0.000167782
-7.03801e-05
-8.95911e-05
0.000170933
-8.02695e-05
-0.000180382
4.94426e-05
0.000151068
-0.000147011
-2.11004e-06
-0.000148639
0.000150752
-1.68841e-05
0.000162406
-0.000145522
0.000166069
-0.000103774
0.000122868
3.81989e-05
-0.000144397
4.48562e-06
0.000139911
9.88999e-05
-0.000165076
6.63197e-05
0.000150643
7.37209e-06
-0.000152175
-0.00017929
0.000104211
7.50795e-05
-3.73374e-05
0.000144061
-0.000140331
-0.000152158
-1.69681e-06
-0.000143034
0.000147594
-4.55954e-06
3.56497e-06
-0.000146599
-0.000138809
0.000125231
1.38286e-05
-0.000152019
0.000152173
-1.54561e-07
-0.000149843
-2.17561e-06
0.000113813
-0.000154633
4.07622e-05
-0.000151797
-2.82453e-07
0.000151906
-3.80722e-05
-0.000148368
9.21848e-05
-0.000154191
0.000149603
4.5881e-06
-0.000154796
6.04802e-07
-0.000149798
0.00014988
-8.23203e-08
-0.000150193
3.94802e-07
-0.000153855
-0.000152225
0.000147303
4.92245e-06
-0.000152897
1.1508e-05
0.000141389
0.000153564
-0.000146723
-0.00011886
-9.91145e-09
-0.000152696
5.79602e-06
0.0001469
-0.000143573
-3.91442e-06
0.000147488
0.000118575
3.29281e-06
0.000141994
-0.000145287
-0.000147353
-3.19201e-06
0.000150545
-0.000149403
3.14161e-06
0.000146261
-8.30771e-05
-0.000106667
5.46897e-06
0.000156291
-6.52683e-05
0.000151989
6.18598e-06
0.000143657
2.23441e-06
-0.000145892
1.176e-06
0.000147404
-0.00014858
-0.000136839
0.000154342
-6.44451e-05
0.000151906
-7.19043e-06
-0.000144716
-0.000150865
2.21761e-06
0.000148647
0.000120632
3.85583e-05
-0.000148699
7.39203e-07
0.00014796
0.000141994
2.45281e-06
-0.000144447
-3.76557e-05
0.000154493
-2.59491e-06
-0.000147149
-3.72008e-06
0.000150872
9.12244e-06
5.25397e-06
-0.000152556
-0.000145325
0.000150432
5.42871e-06
-0.000150802
-0.00015798
0.000158124
0.000150562
-4.92242e-06
-0.00014564
0.000112608
-0.000151396
3.88663e-05
-4.33929e-05
0.000160242
-0.000160286
-0.00015803
0.000155328
2.84327e-06
-0.000148781
2.83921e-06
0.000145942
-8.88555e-05
-9.92044e-05
-0.000151112
0.000125653
0.000149621
-0.000148697
-9.24004e-07
-0.00015507
7.64609e-06
-0.000159475
6.58711e-05
-0.000144783
-5.09042e-06
-0.000150833
0.000147127
3.61149e-06
0.000141749
-0.00014539
-0.000151133
5.59442e-06
0.000145539
0.000165892
-0.00018119
0.000157954
-0.000150327
0.000145421
-0.000152007
-0.000155387
0.000156218
-4.39764e-07
0.000148699
1.46728e-06
-0.000150508
0.000147437
-0.000154141
0.000150125
0.000152972
-0.000152953
-0.000151422
0.00015204
-6.17617e-07
-0.000149877
-1.54578e-06
-0.000156658
0.000152485
4.10022e-06
-0.00015298
-3.7208e-06
-0.000165879
0.0001524
1.34783e-05
-0.00015312
-1.27568e-05
-0.000165895
0.000152368
1.35257e-05
-0.000153271
-1.26249e-05
0.000171306
-0.000111941
1.9806e-06
-0.000148447
0.000146424
-0.000165736
0.00015246
1.32725e-05
-0.000152126
7.44465e-05
7.75418e-05
-0.000153296
-1.24461e-05
-0.000165563
0.000152543
1.3021e-05
0.000151301
0.000149751
-0.000130591
-1.97618e-05
0.000112669
1.70764e-05
-0.000131117
-0.000153405
-1.21559e-05
0.000152377
-0.000165364
0.000152611
1.27554e-05
0.000155686
6.72003e-06
-0.000153483
-1.18748e-05
-0.000177286
4.03941e-05
-0.000149056
5.07507e-06
0.000144264
-0.000165176
0.000152602
1.25801e-05
-8.85363e-05
-6.84267e-05
0.000156963
-0.000153466
-1.17013e-05
0.000134496
-0.000138413
3.9134e-06
5.61122e-06
-0.000144598
0.000138987
-0.000164935
0.000152684
1.22719e-05
-0.00014648
-7.56003e-06
-0.000153484
-1.14509e-05
1.37761e-06
-0.000147857
-0.000127398
-1.12079e-05
6.97539e-05
-0.00015829
-0.000145446
-6.42408e-06
0.000126402
-1.42719e-05
-0.000144766
0.000151453
-6.68643e-06
-0.000147757
2.99041e-06
-0.000164619
0.000152698
1.19412e-05
-0.00015357
-1.10819e-05
-6.23282e-06
0.000146614
-0.000140381
4.34144e-06
0.000145911
-0.00014984
-0.0001635
0.000151902
1.15926e-05
-0.00015365
-9.92904e-06
0.00014949
-0.000153112
3.6618e-06
-3.42721e-06
0.000162322
-0.000160558
-0.000163853
0.000152802
1.10996e-05
0.000113137
-0.000153199
4.00796e-05
-0.000153552
-1.0286e-05
4.09922e-06
-0.000144447
0.000140348
0.000128811
1.82877e-05
-0.000163466
0.000152645
1.08501e-05
0.000144458
-9.41201e-06
-0.000134886
-0.000153543
-9.93987e-06
0.000150345
-3.72666e-05
-2.92523e-05
3.49441e-06
-0.000144413
0.000140919
0.000146799
-0.000150797
3.99842e-06
-1.68001e-08
0.000146816
-0.000163207
0.000152628
1.05284e-05
-0.000153516
-9.74763e-06
-0.000157795
0.000134939
2.27655e-05
4.97282e-06
-0.000144665
0.000139693
5.99762e-06
-0.000145808
0.00013981
-0.000162077
0.000151851
1.01528e-05
2.67257e-06
-0.000142496
0.00013989
-0.000153573
-8.53957e-06
-8.73186e-06
0.000145777
-0.000151721
-4.58642e-06
-0.000161333
0.000151843
9.52758e-06
-0.000153545
-7.86647e-06
-0.000148781
0.000149655
-8.73603e-07
-0.000148496
0.000151301
-2.80561e-06
-5.71202e-07
7.71288e-05
-0.000147886
-4.20002e-07
-0.000148076
-0.00014876
0.000146658
0.0001522
-0.000157091
4.92004e-06
-8.19161e-05
-8.26523e-05
0.000149067
-0.000161434
0.00015266
8.8624e-06
9.24004e-07
0.000145489
-0.000146413
-0.000153385
-8.00328e-06
-4.87202e-07
-0.000145892
0.000146379
-5.77922e-06
0.000144917
-0.000139138
-9.22383e-07
-0.000148077
-0.000149766
0.000148688
-0.000160936
0.000152439
8.45922e-06
-0.000153447
-7.64414e-06
-0.000148151
-3.72903e-06
0.000151684
-0.00014944
7.59408e-07
0.000148685
-0.000159966
0.000151721
8.12341e-06
-0.000147408
-0.000153443
-6.53811e-06
-0.000154107
0.00015661
-2.50321e-06
-1.86297e-06
-0.000154904
-0.000159837
0.000152265
7.49386e-06
-0.000153311
-6.68126e-06
-0.00014984
2.94001e-06
-4.64993e-06
-0.000159614
0.000152343
7.19449e-06
-0.000153193
-6.34716e-06
-6.6585e-05
-9.14276e-05
8.40003e-08
0.000146278
-0.000146362
-0.000147471
0.000147555
0.000146009
-0.000144598
-0.000158924
0.000152223
6.79557e-06
-0.000147488
-3.75122e-06
0.000151028
-0.0001529
-5.91741e-06
2.06503e-05
0.000125944
-0.000146649
-0.000161722
0.000162098
-0.000150087
-2.29004e-06
0.000152106
-1.01955e-05
-0.000158213
0.000152007
6.30754e-06
-0.000152791
-5.4346e-06
0.000153465
-8.37576e-07
-0.000157754
0.000152467
4.89052e-06
-0.000152701
-5.20504e-06
3.99452e-07
-0.000149296
0.000135913
-0.00015238
0.000154739
-2.35873e-06
-0.000107899
-5.59886e-05
0.000165171
-1.13413e-05
0.000109917
-0.000149322
3.94958e-05
7.57683e-06
-0.000160474
0.000129373
-2.76998e-06
-0.000126746
-4.27053e-05
-0.000142054
7.56322e-06
0.000134653
-7.62815e-06
-0.000149786
-8.27015e-05
-7.70221e-05
0.000159604
-0.000151127
0.000151995
-8.68564e-07
-0.000153223
8.43363e-07
-1.24657e-06
0.000114879
3.98673e-05
0.00014648
-0.000145556
-0.000152308
0.000153195
-8.87043e-07
0.000145993
0.000123296
4.01522e-06
-0.000127311
-1.34401e-07
-3.91074e-05
0.000133544
-1.0248e-05
0.000153879
8.60163e-07
-9.17284e-07
-1.87473e-06
0.00014292
-5.2098e-06
-0.000137398
0.000153939
-2.06641e-06
-2.04615e-06
0.000154613
7.8336e-05
9.30651e-05
-0.000167176
9.84276e-05
6.883e-05
-0.000111536
-6.88467e-05
-1.90009e-05
0.00015283
-6.19922e-06
-0.000146026
-0.000156308
-0.000155736
7.43093e-05
-0.00014354
0.000144716
0.000149579
-0.00014417
4.53602e-06
-0.000145286
-4.70909e-06
0.000150013
0.000158318
-5.48978e-05
-0.0001456
-3.82306e-06
0.000149436
7.72044e-06
-0.000143608
0.00013601
-0.000146967
1.59601e-06
-0.000148023
4.98136e-05
0.000157542
-0.000128689
-7.44435e-06
0.000150301
-0.000142965
-1.03656e-05
-0.000142011
0.000152377
9.45172e-05
-0.000161348
6.68307e-05
0.000141641
-0.000147874
0.000151251
-0.000133846
-0.000197149
0.000116542
8.06067e-05
-0.000146141
-4.32872e-06
0.000150516
3.84272e-06
-0.000149264
-0.000157276
8.55108e-05
0.000121009
7.90114e-06
-0.000130816
0.000131669
-1.14538e-05
-7.44243e-06
2.71773e-06
-0.000157417
1.07352e-05
5.68599e-06
-0.000151414
0.000153644
-0.000150734
-3.1697e-06
0.000142177
-0.000147892
4.75928e-05
-0.000155381
0.000148158
1.42895e-06
-0.000155098
0.000151366
3.73206e-06
0.000155101
-0.000159564
-0.000152528
-1.42801e-06
4.34073e-06
-0.000150567
-8.18932e-05
0.00012552
-4.37143e-05
-4.55073e-06
-0.000146861
0.000151366
0.000120708
1.71865e-05
-0.000137895
0.000150931
-0.000144814
0.00010698
-0.000148837
4.16442e-05
0.00013519
-1.44817e-05
-7.79504e-06
-0.000148161
0.000142734
-0.000143175
0.00013892
-0.000149285
0.000145262
-3.85819e-05
-1.88826e-05
-0.000126646
0.000146121
-0.000146396
0.000146917
-8.73603e-05
0.000170521
-8.31603e-05
-0.000162646
0.000153896
8.78106e-06
-1.07084e-05
0.000147584
-0.000145669
-8.95275e-05
-8.97627e-05
0.00012798
-0.000146171
-1.97695e-05
0.000148286
0.000156952
-0.000107024
-9.6516e-05
0.000166819
-6.92971e-05
0.000146261
-0.000159646
4.95553e-06
0.000162156
-1.04279e-05
-0.000124969
4.31435e-05
-2.02707e-06
0.00013652
6.21602e-07
0.000153721
-0.000158391
7.40883e-06
0.000149302
-0.000156711
-0.000161027
0.000153759
7.32779e-06
-9.15898e-06
-0.000148504
-1.37255e-06
2.56817e-06
0.000138602
-0.000141185
-0.000152477
0.00012574
1.93426e-05
-0.000160465
0.000153773
6.70878e-06
-0.000176933
3.70811e-05
0.000144801
-0.000142264
-8.54216e-06
-2.90718e-05
0.000152852
-6.23629e-06
-5.39378e-06
-0.000146497
0.000151949
0.000153166
-6.55035e-05
-0.00015366
5.00037e-06
-0.000146994
0.000140326
0.000132334
-2.93217e-06
0.000146564
7.39764e-06
-0.00014298
0.000135363
-0.000158759
0.000153493
5.32938e-06
-0.00014312
9.74404e-07
0.000142801
-7.05877e-06
0.000163582
-0.00010794
-0.00014312
-6.72003e-06
0.000148558
-0.000143122
0.00015189
-5.44382e-06
0.0001532
-2.78881e-06
0.000103461
-0.000143044
3.97389e-05
6.12568e-06
0.000137034
-0.000143011
-0.000146002
0.000150676
0.000160408
-0.000150273
0.000143308
-3.96826e-05
4.65902e-06
-0.00014383
0.000138861
-6.29838e-06
0.000143988
-0.000137719
9.26521e-06
0.000133522
-0.000142881
-0.000134844
0.00014396
0.000183625
-0.000145371
-3.82537e-05
1.06008e-05
-0.000145337
0.000134737
-0.000158988
0.000159094
-6.22843e-07
0.000145069
-0.000134468
6.57723e-05
0.000117852
0.000153502
-4.84121e-06
4.57944e-06
-0.000144054
0.000139762
5.51866e-06
-0.000143948
0.000138201
1.22808e-05
0.000136131
-0.000148412
1.34401e-06
0.000145875
-0.000147109
-0.000156257
0.000142966
-0.000141893
0.000155088
-4.83661e-06
2.25503e-06
0.000144818
-0.00015325
0.000155386
-0.000155929
0.000148922
-0.000154393
1.91521e-06
2.31459e-07
0.000151906
-3.52801e-07
-2.60727e-06
-0.000145691
0.0001464
-0.000145661
-3.8329e-06
0.000127272
-0.000146239
-0.000145976
0.000139155
0.000112124
3.98097e-05
-0.00014989
0.000148899
9.91204e-07
0.000153938
-0.000157342
3.122e-06
0.000157208
-3.69367e-06
-3.92194e-05
0.00014821
-2.80561e-06
0.000153465
-0.000156828
3.77917e-06
-0.000152464
0.000156838
-4.36897e-06
0.000157834
-4.21378e-06
1.33225e-05
0.000140566
-0.000153889
-0.00012842
0.000141742
1.54897e-05
-0.000143909
-0.000141809
0.000135728
-0.000156649
3.86098e-06
-9.1152e-06
0.000116156
-0.000134081
1.79257e-05
-5.25328e-07
0.000149928
0.000144481
-0.000138728
0.000143118
0.000122758
-6.60243e-06
-0.000145048
-0.00010055
0.000129039
-2.79165e-05
0.000145941
-7.69877e-06
0.000145976
-0.000133695
0.000101909
-0.000141964
3.99912e-05
0.000141818
-4.01936e-05
0.000102605
-0.000117203
0.000159883
-9.0527e-06
3.49105e-06
-0.000137079
0.000142557
-9.94194e-06
-0.000145575
0.000140096
-0.000149836
5.33848e-06
-0.000142484
-0.000148471
-1.72201e-06
1.13232e-06
0.000146419
-0.000127357
0.000148065
6.40082e-06
0.000136635
-0.000143036
0.000142532
-8.45836e-07
-0.00014919
-0.000130295
-8.57584e-06
-4.64982e-06
-0.000150161
-0.000157562
7.4961e-06
9.24004e-07
0.000144632
-0.000145556
-0.000148094
-5.12906e-06
0.000156123
-0.000156123
5.1005e-06
-9.01828e-05
-0.000106966
-0.00014843
-1.41289e-06
-0.000161958
-8.36643e-07
-7.14013e-05
-9.56999e-05
6.87851e-06
-0.000151942
-0.000134113
-0.000155411
-2.89923e-06
0.000127002
-0.000147529
2.08283e-05
-0.000126567
-1.99233e-05
0.000145823
0.000128271
1.88814e-05
-0.000147148
-0.000150713
0.000150707
-0.00015156
0.000153131
-8.51939e-07
1.70138e-05
-0.000117532
-0.000147603
2.09236e-05
-0.000160614
7.11003e-06
-0.000160729
7.26335e-06
-0.000160821
7.32993e-06
-0.00016042
6.81577e-06
-8.02426e-06
-0.000154544
1.79761e-06
-0.00016147
7.40894e-05
-8.1248e-06
-0.000160904
7.49542e-06
-7.7315e-06
0.000148244
-8.28633e-06
0.000147317
-0.000156842
9.56578e-06
-0.000160135
6.46609e-06
-8.44706e-06
-0.000182331
0.000102128
8.02035e-05
-0.000160954
7.65344e-06
-7.40381e-06
-8.58828e-06
-0.000146497
0.000150579
-4.08242e-06
-0.000159638
6.01694e-06
0.000151901
-0.000163724
1.18265e-05
-0.000160916
7.64357e-06
-8.52162e-06
-5.7795e-06
-0.00016155
8.40387e-06
0.000159115
-0.000149895
-9.22693e-06
-0.000159333
5.75503e-06
-9.09597e-06
-5.96402e-06
-0.000148947
-4.0312e-06
-6.50411e-06
-0.000152998
-1.1088e-06
-0.000159015
5.50906e-06
3.09404e-06
-0.000164792
7.74315e-05
0.000137441
-0.000143876
9.78125e-05
-0.000139495
4.17404e-05
-6.33368e-06
3.15841e-06
0.000149605
-2.87281e-06
-0.000147101
-4.70402e-07
-0.000158656
5.10605e-06
0.000149099
-0.000143723
3.84721e-06
-0.000146967
4.20002e-06
-1.51201e-06
-6.00932e-06
-4.76055e-05
1.92946e-05
0.000127851
-0.000147492
-0.000158123
4.51578e-06
2.21761e-06
-0.000138596
-1.59584e-06
0.00014038
-4.3399e-06
-0.000157367
3.89488e-06
-3.69853e-06
0.00016499
-0.000157025
3.53553e-06
-4.31213e-06
-0.000156478
3.11466e-06
1.73041e-06
-0.000150428
1.21909e-05
-0.000133631
-3.94845e-06
7.15683e-06
-0.000144716
0.000137559
-0.000155909
2.58978e-06
0.000148905
8.45087e-07
-0.000137391
0.000144548
-0.000148748
-1.1424e-06
-2.3435e-06
-1.74862e-06
-0.000141043
0.000142576
-0.000128373
-1.82581e-05
0.000147036
-0.000155267
2.19563e-06
-2.92145e-06
-0.00015472
1.84083e-06
0.000124204
1.9011e-05
-2.55998e-06
-0.00012627
-1.96828e-05
0.000146112
-0.000154337
1.41476e-06
0.000147958
0.000151135
2.04555e-06
-2.89462e-05
-2.159e-06
-1.58967e-06
-0.000151406
-0.000148417
0.000148472
-6.84702e-06
-0.000153829
1.17694e-06
-0.000152464
0.000157907
-5.14897e-06
-0.00015691
4.48006e-06
1.98128e-05
-0.000134099
0.000114117
-1.71791e-06
-0.000152314
-5.4043e-06
-1.95635e-07
-6.91167e-05
-9.50183e-05
0.000164149
-1.82292e-05
-0.000128462
0.000146769
0.000130258
-0.000142505
1.14904e-05
-0.000152864
3.36001e-07
0.000128183
-0.000146229
-6.55203e-06
0.000145808
-0.000139256
1.77618e-05
-0.000146519
-1.80452e-05
0.000146937
1.77061e-05
0.000129893
-0.000147518
-9.2014e-05
0.000178165
-0.000145005
-0.000154934
0.000157301
-2.94403e-06
5.44322e-06
0.000142935
4.08561e-06
0.000143998
-0.00014879
3.48019e-06
0.000144563
-0.000147947
0.000152141
-0.000165901