/*--------------------------------*- C++ -*----------------------------------*\
  =========                 |
  \\      /  F ield         | OpenFOAM: The Open Source CFD Toolbox
   \\    /   O peration     | Website:  https://openfoam.org
    \\  /    A nd           | Version:  12
     \\/     M anipulation  |
\*---------------------------------------------------------------------------*/
FoamFile
{
    format      ascii;
    class       volScalarField;
    location    "4.2";
    object      T;
}
// * * * * * * * * * * * * * * * * * * * * * * * * * * * * * * * * * * * * * //

dimensions      [0 0 0 1 0 0 0];

internalField   nonuniform List<scalar> 
46253
(
0.958761
1
1
1
1
1
0.935616
1.02438
1
1
0.960949
0.942799
1
1
1
1
1
1
1
1
1
1
1
0.947349
0.938369
1
1
1
1
1.02452
1.03827
1.00008
1.00029
1
1
1
1
1
1.02095
1
0.946396
0.942954
0.999999
0.999995
0.925791
1
1
1
1.09901
1.12972
1.13877
1.14283
1
1.02603
1.00001
0.964859
1.12134
1.11912
1.07291
0.918085
1
0.929312
1
1
1
1
1
1
0.965668
0.926789
0.940576
1.1137
1.11291
1.01834
1
0.947535
1.09661
1.09615
1
0.997157
0.991309
1.1058
1
1.10522
0.942174
1
1.08181
1.08154
1.03161
1
1
0.949349
1
1.12187
1
1.12057
1
1
1.0719
1
1
1
1
1.03743
0.999997
0.945133
0.943899
1.0684
1.06813
0.950947
1.02191
1.10995
1.10888
1
1
1.03102
0.929586
0.920005
1.1211
0.969155
1
1
1.10263
1.10164
1
1.1223
1
0.958089
0.996751
1.0926
1.05983
1.05967
1
0.930101
1.0919
1
1.08827
1.08756
0.967815
1
1.09853
1.05509
1.05477
1.03449
1.09871
1.00029
1.08416
1.08343
1.02102
1
0.950475
1
1.0903
1.08968
1.02413
0.927947
0.957512
1
1.07798
1
1.07728
0.944481
0.96417
1
0.939733
1.08579
0.930129
1.08554
1.16733
1
1.07432
1.07372
1
0.933594
1
0.923899
1.01927
1
1.01732
0.929873
0.999999
1.02322
1.07042
1.06983
1
1.07974
1.07913
0.925144
1
1
1
1
0.933264
1
1
1
1.02176
1
1.02848
1.02858
1
1
1.07586
1.07576
1
0.928536
1.02204
1.06515
1.06458
1
1
1.12159
0.946666
1
1.01831
1
1.03374
0.946133
1.0617
1
1
1.06114
0.923646
1.07215
1.07179
0.950331
1
1
1.02117
1.021
1.05738
1
1
1
1
1
1
1
1.05626
1.06268
1
1
1
1
1
1
1
1.02092
1
1.05691
1.0563
1.06147
1.01385
1
1.01346
1.06673
1.06629
0.972113
0.924747
1
0.93696
0.945486
0.948253
1.03528
1.01521
1
1
1
1.06324
1.05218
1.06296
1
1
1
1.05167
1
1.00014
1
1.02622
0.979402
1.00618
1.00587
1
1
1
0.933369
0.930142
0.969909
1.03064
1
1.06994
1.06905
0.938869
1
1.06742
1.04829
1
1.04791
0.950572
1.04902
1.11781
1.04826
0.959647
1.11618
1
1.05835
1.05802
1
1.03618
1
1
1.01839
1
1.0452
1
1.04476
0.96636
1.06664
1
1.02627
0.957394
1
0.931941
0.937497
1.02235
1.02985
1
1
1.04295
1.04237
0.993488
0.993223
1
1
1
0.923097
0.971295
1.05339
1.05303
1
1
1
1
1.12475
1
1.03948
1.03874
1
0.96666
1
1.02391
1
0.92902
1
0.945972
1
1.05031
1
1.05026
1
0.946293
1
1
1
1
1
1
1
1.03637
1
1
1
1
1.03604
1
1.06513
0.967871
1
1
1
0.947942
0.92329
0.957687
1.0466
1.02565
1.04618
1
1
1.03374
1.12888
1
1.03171
1.03293
0.925471
1
1.02517
1.01713
1.01867
1
1.03489
1
0.977268
0.976896
1.06416
1
0.999494
1
1
1
1
1
1
1.10774
1
1.03487
1
0.931936
1
1
0.973273
1
1
1.02964
1
1.04368
1
1
1.02928
1.04365
1
1.01888
1
1
1
1
1.02259
1.02627
1
1
1.02614
0.957968
1
0.928041
1
1.02419
1.02501
1
1
0.970286
1
0.979645
1.037
1
0.931197
1
1.09277
1.02404
0.999329
1.04104
1.026
1
1.02488
1.0254
1.04083
1
1.02459
1
1
1
1
1
1.01483
1
1.02428
0.958891
1.02614
0.975658
1.01989
1.02527
1.01469
0.969055
0.968946
1
1
1
1
0.996914
1
0.980541
0.946933
0.936861
0.980641
1.02537
0.922433
1.02497
1
1
1.0373
1.03313
0.948833
1.03711
1.02257
1.02214
0.963242
0.925884
1
0.962633
1.03618
1
1
1
0.935163
1
1.02568
0.931593
1
1
1.02678
1
1
0.922901
0.922753
1.03415
1
1
1.03442
1
1.03457
1.03622
1.03476
1
1.01967
1.02056
1
1.02538
1.03174
1
1
1.03492
1
0.938847
0.975032
1
1
1.03478
1
1
1
1
0.933382
1
1
1.01825
0.976377
1.01779
0.920379
1
1
1
1
1
1
1
1.02508
0.93769
1
1
1
1
1
1
0.936399
1.0327
1
1.02893
1
1
0.959408
1
1
1
1.03103
1
1
1.03055
1.02796
1.0426
1
1.0438
1.04414
1.04536
1.02646
1
1.01551
1.01502
1.03254
1.02877
1
1
1.018
1
1.11557
1.01883
1
1.11615
1.0097
1
1.03551
1.03759
1
1
1.02734
1.0268
1
1
1.01456
0.999999
0.999998
1.02004
1.00991
1.07361
1.07415
1.07088
1.07163
0.924399
1.02405
1.06842
0.919057
1.06867
1.066
1
0.936086
0.951863
1.06645
1
1.06342
1
1.06395
1
1.02601
1.06038
1
1.06083
1.09378
1
1.05799
1
1.05819
1
0.933815
1
0.977263
0.950009
1
1
1.05542
1.05581
1
1.03284
1.05289
1.0533
1.01353
1
1
1.04861
1.01119
1.04898
1
1.02776
1.04547
0.960195
1.04597
1.01081
1.02762
1
1
1
1.04291
1.04327
1.02713
1
1
1.04063
0.981863
1.04105
0.957916
1
1.03655
1.03692
1
1
1
0.928393
1
1.03196
1.04141
1.03921
1
1.03259
1
1.03284
1
1
1.03308
1.03312
1.02971
1.03023
1.02358
1.0355
1.02754
1.03623
1.02799
1
1.01808
1.02346
1.02403
1
0.970641
1.02116
1.02151
1.15675
1
1
1
1.01832
1.02177
1.01853
0.937131
1.02784
1.02591
0.950264
1.01552
1.01572
1.04241
1.01541
1.01287
0.967201
0.965924
1
1.02221
1.11978
1.00774
1
0.953526
1.0073
0.961408
1.02851
0.939084
1
1
1
1.02373
1
1
1
1
1
1.02344
1
1
1
0.974271
0.968993
1
1.01585
0.924521
0.955925
1
1
1
1
1
0.919416
1
1.02392
1
1.0405
0.93448
1.04162
0.962957
1
0.928985
0.95043
1.04531
1
1
1
1
1
1.0431
1.04162
0.925986
0.944201
0.941165
1
0.978389
1
1
1.04277
1.03943
0.99956
1.02191
1.02279
1.00002
1.0181
1.02005
1
1.04406
0.959615
1.02348
1
1.02482
1.00398
1
0.999999
1.02503
1.02658
1
1.00342
0.941395
1
1
1.05158
1.05193
1.02358
1
0.942058
0.943791
0.951691
1.01254
1
1.0341
1.0255
0.960303
1.09189
1
1
1
1.0393
1.03961
1
1.00083
1
1.0199
1.03545
1
1.00813
1.03569
1.0195
1.02513
1.024
1
1.02334
1.03501
0.952832
1.02296
0.957552
1.02614
1
1
1.02649
1
1
1.02577
1.02372
1
1.00045
0.970052
1.03263
0.970037
0.971503
1.00013
0.966735
0.966027
0.957286
0.956552
1
1
1.02792
1
1
1.02605
0.972967
0.968833
1
1
1.03663
1
1.03475
1.03585
1.05203
1.09064
1.02972
1.00139
1
0.99997
1
1.025
1.03548
1.02881
0.943532
1
1.0167
1
1.03462
1.03381
1.01646
1
1.03158
1.02759
1.03154
1
1
1
1
1.02825
1.03503
1
1.01246
1
0.966118
1
0.966688
0.954357
0.929634
1
0.998354
0.99778
0.921272
1.10581
1
0.968168
1.01997
1.02005
0.968701
1
1
1.02389
0.936113
1
1
1.03445
0.930982
1.02659
1.02637
1
1
1
1
1
1
1.12955
1
0.956129
0.965888
0.962264
1.02692
0.944319
0.938567
0.945548
0.974047
1.02925
0.954838
0.939028
1.05905
1.06179
1.06487
1.05682
1.0595
1
1.01523
1.06242
1.06732
1.05719
1.02435
1.0652
1.04826
1.05432
1.06769
1
1.06923
1.05456
1.06957
1
1.05005
1.07069
1.07184
1.07247
1.05055
1.077
1.07459
1.04709
1.0786
1
0.999707
1.04762
1
1.0442
1.00005
1
1
0.994822
1.04453
1
1
1
1.04194
1.04575
1
1
1
1.04205
0.994353
0.947384
1.03807
1
0.995473
1.03841
1.0339
1.03442
0.965997
1.03134
1.0317
1.02876
1
0.947782
1.0289
1
1.02506
0.934146
1
1
1.02534
0.978311
0.945216
1.0223
1.02248
1.01938
1.01235
1.01995
0.941133
1.01688
1
1.03763
1.01216
1.01742
1.01405
1.00976
1.02436
1.01386
1.03673
1.03678
0.943561
1.01452
1.04124
1.02054
0.95628
0.948346
0.935006
1
0.949128
1
0.948622
0.949499
0.948001
1
1.1201
1.02883
1
0.993968
0.99129
1.03188
1.03385
1
1.02759
1.04489
1.04704
1.02695
1.02667
1.04341
1.04537
1.04414
1.04234
1.01508
0.966887
1.03453
1.02505
1
0.995304
0.971244
0.960684
1.01124
1
1.05825
1.04292
0.942303
1
0.990967
0.932715
1.00037
0.990422
1
1.08057
1
0.985479
1.01075
1.02791
1.0425
1.01413
1.01594
0.963082
1.00951
1.00123
1.00892
1.03775
0.948569
0.94485
0.96834
0.954913
0.996301
1.04622
1.04137
1
1.04615
1.0661
0.986155
1.00549
1
1
1
1.03174
1.02275
1
1
0.946278
1.00658
0.956705
1
0.942479
1
1.03071
0.988944
1
1
0.916355
0.959341
1.07397
0.960782
1.03586
1.03602
1.00001
1.04764
1.03402
1
0.987501
1
1.01076
0.987779
0.994017
0.97214
1
1
0.994801
0.991079
1.03574
1.02639
1.03104
1.0311
1
0.987195
1.03605
1.02424
1.02386
0.956644
1.01213
1
0.990065
0.977268
1.03213
0.951797
1.0324
1.04317
1
1
1
0.972387
1.02981
1
1.02263
1.03057
1.02808
1.0287
0.967869
1.02223
0.935372
0.943154
1.05615
1
1
0.991677
1.06053
1
1
1
1.02716
1
1.02687
0.93201
1.01693
0.991026
1
1
0.991049
1
1.07881
1.02527
1.07658
1.08001
1
0.934934
1.07738
1.02565
0.993745
1.05483
1
0.929629
1.07259
1.06434
0.993336
1
1.0521
1.0736
1.06752
0.999982
1.03271
0.939266
1.00002
1
0.969264
1.06847
1
1.05982
1.03968
1
1
0.945791
1.06343
0.984504
1.02923
1.06926
1.00498
0.954571
1.06191
1.06363
1.06415
1.02999
0.984155
1
1.03971
1.00494
1.03971
1.04301
1
1.05867
1
1
1
1.05895
1
1
0.981498
1.01743
1
0.983009
1.05929
1.03599
1.02647
1
1.01689
1
1.03442
1
1
1
1
1
1.01682
1
1
1
1
1
1
0.923023
0.939149
1
1.00865
1
1
1
1.01889
0.980366
0.955238
1
0.95142
1.03966
1
1
1
1.03635
1.00003
1.04501
1
1.0675
0.966025
0.96388
1
1.06523
1
1
1.06732
1
1.07266
1.07127
1.03333
1.06673
1
1
1.0596
1.05983
0.968739
1.05759
1
1.05799
1.04034
1
1.05571
1
0.985992
0.986549
0.969643
1.05464
0.965957
0.981141
1
1.05618
0.987374
0.986102
1.04115
1.04329
0.951916
1.04352
1.04122
1.01248
1.04292
1.04332
0.98268
1.05113
1.05255
1.02343
1.0804
1.04185
1.05345
1.05304
1.0427
0.982345
1.04378
1
0.987797
1.04359
1.05128
1.078
0.968093
1.03388
1.04322
1.08891
1.00185
1.0958
0.967417
1.08955
0.980007
1
1.04521
0.958552
1.00133
1.029
1.08912
1.04429
1.03241
1
1.03033
1.06294
1
1
0.944528
1
1
1.02934
0.978614
1
1.08471
1.08175
1.08496
1
0.964551
1.04119
1.04344
1.04313
0.935218
1.08251
1.03177
1.04089
1.05594
0.982402
1.06002
1.07837
1.04984
1.07905
1.0731
1
0.981295
1
1.0126
1
0.945025
1.01877
1.07364
1.04457
1.03249
1.0449
1.03242
1.06253
1.04106
1.02787
0.972243
1.05732
1
1.06779
1.06838
1
1.04163
1
1
1
1
1
0.978099
1
0.978636
0.944694
0.964052
1.06138
0.94564
0.963807
1.06332
0.956908
1
0.94464
0.978096
0.985595
1
1.02374
1.04249
1
1
1.07101
0.945
0.97527
0.973396
1.03958
1
1
0.939783
1.00756
1.0264
1.05386
0.940763
1
1
1
1.08018
1
1.05924
1.05979
1.02683
0.944932
1.05292
1.05629
1
1.02103
1.05701
1.07782
1.04402
1
1.07019
1
1
1.04207
1.05348
1.03134
1.06535
0.945344
1.0693
1.07206
1.05265
1
1
1.03936
1.00353
0.998974
0.999081
1
0.955758
0.999538
1
1.04532
0.946605
1
1.0482
0.93297
1.04901
1
1
0.999043
1.05716
0.9458
0.965469
0.933204
0.985789
0.979025
0.98614
0.946745
1.03385
0.997593
0.987925
1
1.04575
0.946561
0.945267
0.988024
1.04995
1.0474
0.978823
1
1
0.987829
0.987748
0.936144
1
1.03749
0.947772
1.04011
1.03832
1.04083
0.987412
1.03723
1.05472
0.934623
1.05516
0.941624
0.980758
1.03778
0.98501
1.01889
0.942887
0.979201
1.04119
1
0.982386
1.0307
0.958997
1.07379
0.969656
1.03048
1.0427
1.07372
0.945619
1.03232
0.98828
1
1.04193
1.03298
1.05534
1.0619
1
0.993797
1
1.02732
0.980146
1.03958
0.950984
0.946485
1
0.945943
0.963346
1.03052
1
0.946986
1.02876
1.03713
1.08854
1.03006
0.947765
0.973829
0.988842
1.03988
1.08838
0.950348
1.02307
1.02516
1
1.02567
1
1.02478
1.07028
1.0234
0.961183
1.06385
1.0313
1
0.947905
1.07631
1.04131
1
0.945601
1.07716
1.04976
1.1306
1.03091
1
1.01631
1.07477
1.01777
1
1.07133
1.01837
1
1.04915
1.07203
1.03045
1.08559
1.06614
1.01678
0.983339
1
1
1.06675
0.954603
1
0.958814
1.02751
1.04957
1.0508
0.960023
1.03261
0.983208
1
0.963947
1.08345
1
1
1.05558
1.08261
0.959646
0.975979
1.01089
0.946407
0.944428
1.04116
0.981647
1.01077
1.00856
1.04118
1.06409
1.04004
1.00991
1.03549
0.975592
1.03154
1.03145
1.02715
1.02783
0.958586
1
1.03891
1.08422
1.0045
1.05885
1.08354
0.964017
1
1.00497
0.997681
1.02762
0.970536
1
1
1.03936
1.03918
0.984724
1.03023
1
1
1.03186
1.01902
0.996138
1
1
0.918108
0.998843
1.00005
1.0719
1.02817
0.965987
1.00974
0.996856
1
0.965389
0.995785
0.978182
0.961922
1.03807
1.04266
1.10267
1.05163
1.02604
1.05538
0.990397
1.05517
1.05207
0.937711
1.02201
1.02685
1
0.97047
1
1
0.989509
0.986469
0.994001
0.988225
1.07186
1.04165
1
1
0.993294
1.04387
0.968941
0.979891
0.988043
0.968452
1.03247
1.03673
1.0445
0.970875
0.9568
0.986851
1.08457
0.962942
1
1.00945
1.03853
0.97047
1.08512
0.990869
1.02521
1
1
1.02532
1.00141
1.07463
1
1.00001
0.999845
1
1.03621
0.978013
0.973315
0.97128
0.98853
1.0367
0.977542
1
0.972852
0.972634
1
0.957443
0.941263
0.977167
1.02417
1.02786
1
1
1.03968
0.981289
1.0339
0.975202
0.975677
1.0837
0.973188
1.03413
1
1.02904
1
1
0.977503
1.02429
1.03414
1.02974
1
0.939622
0.972612
0.97745
1.05678
0.976353
1.06268
0.986074
1.05999
1
1
0.969528
0.979023
1.03983
0.976837
1
1
0.945615
0.974559
0.963385
0.977019
1.02149
1.032
0.99298
1
1.05164
1
1.02229
1
1.05889
1.01827
0.937207
1
1.02355
1
1
1
1
1
1
1.06026
1.05722
1
1.0593
1.05365
1
1.03434
1.07545
1
1.01174
1.03276
1.09072
1
1
0.971344
0.961102
0.980239
1.03869
1.05415
1.05196
1.01004
1.03335
1.04687
1
1
1
1
1.03981
1.0139
1.08127
1.03751
1.04133
0.97949
1.01519
0.97093
0.983368
1.00455
1.0837
0.944693
1.09323
1.02505
1.06062
1.02592
1
1.0206
0.943665
1.04033
1
1
1.03819
0.942729
0.984757
1.00623
0.942086
1.08629
1
0.972869
1
1.01666
0.94027
0.942123
1.04159
0.968678
0.98394
1.02417
1.08383
1.03214
1.08728
1.01711
1
1.04118
1.03291
0.970966
1.0745
1.07085
1.01532
1
1
1.03381
1.08006
1.04464
1.06443
1.08388
1.03956
0.955327
1.04279
1
1.04345
1.0418
1
1.08062
0.996646
0.955019
1.07513
1.03229
1.04148
1.01911
1.06947
1.01798
0.99101
1
0.997165
0.992632
1.07011
1.01915
1
0.997577
1.02245
1.03531
1.04163
1.0651
1.03594
0.990115
1
0.991424
1
0.990552
0.943817
1
1
1.08275
0.940408
1.05357
0.944844
1
1
1.05444
1.04064
1.04133
0.943601
1
1.01788
1
0.985232
1.07649
0.948539
1.03487
0.941761
1.00258
1
1.05794
1.03084
1.03651
0.998619
0.984556
1.03786
1.02178
1.00193
1
1.06073
1.00764
1.07515
1
1.05843
1.05519
1
1.04281
0.979196
1.00692
0.93231
1.06138
0.939007
1.01304
1.03562
1.04661
0.999864
1.05012
1.01228
0.93279
1.11186
0.932457
1
1
1.00003
1.00362
0.934826
1.05077
0.995906
1.04719
1.04062
1.06105
0.99946
1.08536
1.04888
1.03858
0.980285
1.06187
1.02717
0.999388
1.033
0.98492
1.0233
1.04194
1.07905
1.02643
1.03785
1.03821
1.04278
1.03914
1.03995
1.05668
1.00715
0.935708
1.02137
1.05679
1.03104
1.02743
1
1
1.04115
1
1
1.00501
0.966415
1.03212
1.03423
1.05279
1.05469
1.07487
1
1.01438
1.07002
0.981015
1.02162
0.984256
1.03517
0.944711
0.935722
1.03141
0.966682
1.10995
0.961046
0.985718
1.04195
0.981139
1.02395
1.09837
1.03701
1.08232
0.941609
1.02661
1
1
1.02402
1
1.02935
1
1.03607
1.02759
1.02443
1.02788
1.02279
1.10288
0.981683
1
1.05715
1.02748
1.03715
1.03657
1.10314
1.05883
1.03869
1.01717
1
1.03162
1.01941
1.009
1.01768
1.03929
0.969988
0.955986
1.09707
0.988724
1.04233
1.03841
1.02032
1.04318
0.992791
1.01699
1.00632
1
1.09784
1.04175
0.99222
0.98953
1.01709
1.00793
1.01333
0.969851
0.980314
1.02602
1.0201
0.985339
1
1.04057
1.03053
0.991125
1.03522
0.993935
1.09306
1
1.01163
1.01086
1
1
1
1
1.09394
1.06006
1.00593
1.06036
0.988769
1
1.01239
0.991898
1.03743
1.03225
1.01098
1.02588
1.02501
1.03371
0.98479
1
1
0.999169
1.04717
1
1
0.988188
1.04118
1.0068
1.08827
1.02049
1.03783
1
1.03613
1.03844
1.0357
1.0424
1.04558
1.02073
1
1.00478
0.980217
1
1.08928
0.998302
1.04354
1.04136
1.04449
1.00435
0.979262
0.933354
1.06519
0.93526
1.04948
1.04629
1
1.03585
1.0375
1.04804
1.02581
1
1
1.03597
0.997752
0.98092
0.941266
1.04313
1
1.08225
1.04113
1.05358
0.982603
0.997347
1.05162
1.05242
1.01891
0.943293
1.08314
1.05053
0.981887
0.99583
0.991135
0.981657
1.06838
0.991508
0.943191
0.990814
1
1.00272
1.03362
1.01467
1.00608
0.983884
1.05625
1.08452
0.981484
1.01578
1.0369
1.01593
0.970187
1.02802
0.985269
1.05524
0.983735
0.977516
1.00703
0.976543
1.03436
1.0342
1.04027
1.035
1.05466
0.977923
1.03191
0.976939
0.964712
0.987328
1.03201
0.98794
1.07047
1
1.01626
1
0.984773
1.07108
1
1
0.981493
1.05881
1
0.987456
1.03233
1.0852
1.02457
1.00004
0.941835
1
0.979247
0.988874
1.06512
0.986481
1.0134
1.06604
1.01341
1.04203
1.0415
1
0.949
1
1.06181
1.03262
1.06044
1.0093
0.969264
1.05581
1.0625
1.0559
1
0.968214
0.939374
1.05853
1.05786
1.06029
1.03451
1.00764
1.0594
1.01149
1.03574
1.05662
0.977755
1
0.989458
1.08367
0.97728
0.941735
0.999875
1.05481
0.958055
0.977141
0.950745
0.99632
1.05553
1.03797
1.02944
1
1.00929
1.00927
1.10592
1.05951
1
1.05211
1.03764
1.04104
1.05862
1
1.10775
1.05263
1.04322
0.991175
1.06158
1
1
1.06043
1.04846
1.06327
0.94319
1.06242
1.04922
1
1.01023
1.02101
0.964817
1.04564
0.989018
0.949037
0.947292
1.06839
1.0463
1.05801
1.03782
1
1
1
0.990597
1.04265
1
1.0013
0.935217
1.06401
1.02972
1.04108
1.03422
0.984162
1.04335
1.03926
1.00072
1.04607
0.93641
1.00415
1.03676
1
0.934049
1.04067
0.983841
0.936918
1.04184
1.04044
1.06513
1.00312
1.0693
1.06816
1
0.983325
0.946635
1.03981
1
1
1.0083
0.999998
1.06711
0.957984
1.04029
1.04029
1
1.04535
1.04315
1.00763
1.08626
1.0121
0.93564
1.037
1.04357
0.986862
1.06609
1
0.989365
0.988272
1.01084
1.08709
1.03784
1
0.980912
0.966819
1.03951
1.07051
1.03096
1.03731
1.07164
1.04024
1
1.01499
1.01604
1.00059
1.13319
1.05863
1.08496
1.03339
1.03348
0.962003
1.05643
1
1
1.03732
1.01479
1.034
1.04484
0.988933
1.01859
1.03488
1.07955
0.988954
0.999999
0.936696
1
0.939083
1.01801
1.0314
1.03198
0.997141
1
1
1.0727
1.07729
1
1
1.02369
0.996699
1.03341
1.07488
1.02319
1.01857
1.02607
1.02645
1.0414
0.989851
1
1.01888
1.0266
0.988306
0.990519
0.957141
1.02502
1.04059
1
1.03948
1
1
1.08468
0.990222
1.00421
1.06891
1.02282
1.08446
0.990653
1
1
1.02386
1.08645
1.0409
0.942838
1.03066
1
1.06966
1.02268
1.02992
1
1
1
1
1.03439
1
0.989199
1.0188
1.0337
1.0356
1.01949
1.00002
1.03302
1
1
1
1.03734
1.01529
1.01586
1
1.03469
1.03679
0.965629
1
1
0.95955
0.989083
1
0.973555
1.0404
1
1
1
1
1
1.01101
1
0.994832
1.0391
1
1.04995
1.03938
1
1.01193
0.933868
1
0.971453
1.03843
1
1
1.04947
1.05426
1
0.999995
1
0.960261
0.960175
0.993776
1.04434
0.94381
1.05187
1
1
0.989443
1.04935
1.01639
0.960842
1.04339
1
0.998397
1
1.05254
1.0582
0.997596
1
0.959711
0.999993
1
0.964274
0.932881
1.04876
0.999825
1
1.05155
1
0.990778
0.97386
1.04935
0.939877
1.00656
0.946165
1
0.95586
0.98071
1.04496
0.988416
1.08478
1.03648
1.04862
1.00189
1.00564
0.963906
1.0592
1.00741
1.00067
1
1
0.966764
0.959896
1.03479
0.946078
1.05398
1.10414
1.06402
1
1.05312
1.08566
0.977781
1.0573
1.0997
1.03405
1.00452
0.981354
0.994596
1.05562
1.1042
1.01168
1.05657
1.00326
1.03169
1.02981
0.961735
1.01159
1.09515
0.977205
0.963582
1
1.02901
1
1
0.958603
1.06218
1.10097
1.0112
1
1
1.01187
1.03336
1
1.09066
1
1.06264
1.03022
1
0.925673
1
1.06137
1
1.03005
0.956619
1
1.09571
0.939993
1.06166
1
0.945541
1
0.935528
1.0074
1.0003
1.06577
1.00678
0.951375
1.06501
1.02124
0.97275
1.06242
1.0843
1.09173
1.01171
1.06506
1.06406
0.954851
1.02179
1.04116
0.97397
1
1.05137
1
1.08385
0.991888
1.06881
1.06866
0.950915
0.995059
1.00689
1
1.0175
1.03766
0.988762
1.00337
0.98548
1.08516
1.01272
1.00447
1
1.01436
1.06781
1
1
1
1.06741
1.005
1.03089
1.01473
1.00726
1
1.07156
1.0811
1.05409
1.07051
1.00954
1
1.08468
0.954527
1.07049
1.07207
1.01014
1.05353
0.999355
1
0.981777
1.07011
0.989426
1.07848
1.06708
0.988598
0.988654
0.98859
1.10063
1.07295
0.988702
0.956717
1
1.05025
1.07428
1.03495
1
1.07656
1
1.06189
1.03514
0.980214
1.06604
1.06341
1.02644
0.986459
1.04834
1.05872
1.05668
1
1.02862
0.988747
0.970447
1.02775
1.0756
1
1.06796
1.07331
1.06038
0.988712
0.988973
1
1.07094
1.05792
1.09228
1
1.05357
0.971865
1.05101
1.06263
0.98478
1.06418
1.0565
1.01568
1.05771
1.06676
1.02207
1.07771
1.04839
1
1.03434
1.06018
1.06102
1.05332
1.05103
0.960567
1.07553
1.0803
1.07183
1.03355
1.01856
1.04866
1
1.07669
1.05741
1.05866
1.05031
1
1.07974
0.991949
1
1.09403
1.05395
1.0471
1.06331
1
1.07607
0.993823
1
1.0512
1.08586
1.04418
1
1
1.06342
1.04768
1
1.08389
1
1.041
1.0543
0.986094
1
1.04486
1
1.03866
0.958267
1.00005
1.02152
1.04868
1.04178
1.03481
1
1
1
1.03364
1.05219
0.99195
1.03917
1.03487
1.03258
1.04545
0.957791
1.00434
1.05244
1
1
1.03398
1.03706
1.00458
1
1.03286
1.05328
1
1.03582
1.01229
0.968447
1.0127
1.04828
1.03819
1.02728
1.04472
1.03801
0.99028
1.03286
1.03078
1.03028
0.965718
1.04077
1.03594
1
1.09286
1.04776
0.991499
1.02496
1.07098
0.934114
1.04045
0.990563
0.983041
1
1.02799
1.04765
1.05107
1.03505
1.04784
1
0.933838
1.02023
1.02883
1.05012
1.02545
1
1
1.04703
1.01675
1.05067
1
0.946568
1
1
0.938105
1.04958
1
1.02058
1.06378
1.03242
1
0.986137
1.03079
1.04985
1.01297
1
1.01758
0.933284
0.988861
0.942419
1.06065
1.04288
1.03923
1
1.05236
1.05696
0.941692
1
1
1.00815
0.939232
1.01364
1.06224
1.03849
1.04922
1.05186
1
1.0406
1.05657
1
0.936639
1.00876
1.00521
0.974357
0.932164
1
0.98789
1
1.05176
1.0424
1
1
1.0316
1.0274
1.03288
1.05569
0.942268
1
1
0.979812
0.94455
1.04239
1.023
1.08095
0.962433
1.05112
0.935555
1.05544
1
1.04177
1
1.05486
1
1
0.933382
1
1.05385
1.00651
1
0.932284
1.04476
1.0321
0.958509
1.08367
1.04267
1
1.00169
1.04863
1
1.05324
1
1.03529
1.05513
1.04409
0.986031
1.04086
1
0.998684
1.03533
1.11128
1.06059
0.945165
1
0.984199
0.944551
1.05813
0.984646
1
1
0.99078
1.03766
1
0.945919
1.04294
1.0474
1.03797
1.05598
0.942075
1.05751
1.00225
1.00929
1.02151
0.999957
1.00006
0.985862
1.0466
1.01927
0.980812
0.988023
1.04182
1
1.05531
1.00783
1
1
0.974455
1
1.0599
1.02474
1.03336
1
1.05001
1.05945
1.02591
0.979849
0.956034
1
1.05783
1.02405
1.08288
0.934282
1.04921
1.02611
1.02973
0.978298
1.02706
0.955308
0.940507
0.940461
0.985327
0.942871
1.0573
1.05446
1
1.03514
1
0.965262
0.992257
1.07197
1.06858
1
1.04341
0.945268
0.989525
0.939913
1.0524
1.0351
0.943033
1
1.03554
0.992595
1.063
1.0418
1.05055
1.06517
1
1
1
1.03303
1.0258
1.05173
0.964558
1.04329
0.957231
1.06081
1.00522
1.06926
1.02621
1.07308
1.04976
1.03712
0.988124
1
1
0.93968
1
1.05448
1.00547
0.967901
1.02453
1.01536
0.998317
1.02897
1
1.03327
1
1
1.02225
1.05472
1.01686
1.06392
0.981724
1.05379
1.02853
1.09105
0.980319
0.967018
0.921014
1
0.990038
1.05416
1.01363
1.01487
1.03008
1.01266
0.936147
1.01419
1
1.03281
1.02928
0.970495
1.00003
1.02948
0.979498
1.00422
0.989878
1
0.948705
0.933113
1.02188
0.999008
0.990548
1
1
1.01526
1
1
1.02874
1.04453
0.989574
0.979475
0.970037
1.02889
1.02205
1.05671
1
1
0.960271
0.977299
1.01536
1.0061
1.03195
1
1.02615
0.941229
1.01328
0.9865
0.976986
0.938922
1
1.04299
1.02907
1.02553
1.05614
0.999269
1
1
1.08461
1.02355
1.05804
1.02369
1.03275
1.03909
1.00517
0.997896
1
1.02035
1.01669
1.05702
1
1.01264
0.983268
0.955809
1
0.997999
1.03352
0.941465
0.987818
0.959282
1.03129
1.05346
1
1.04361
1.024
1.06906
1.03556
1.00879
0.946595
0.940091
1.01915
1.04426
1.03573
0.975353
1.02883
1
1.03626
1
0.956982
1
1.06426
1.03331
0.941164
1
1.00959
1.05887
0.984643
1
1.05269
0.983971
1
0.987231
0.975041
1.02768
0.982739
1.03464
1.044
0.955382
1.0583
1.0227
1.02651
0.956231
0.979627
1
1.03391
0.993497
0.997123
0.987776
0.990489
1
0.941523
1.03675
1.00323
0.999575
1.02005
0.979176
1
1.03394
1.03537
1.037
1.0307
0.977593
0.982403
0.980541
1.04632
1.02946
1.01582
0.987102
1.04243
1.03344
0.999791
0.967168
1
0.97877
1.04269
1
1.02465
1
0.975776
1.00335
1
1.03648
1.03015
1
1.04414
1
0.995681
1.03804
1.04145
1.03963
1
0.940089
1
1.04652
1.09775
1.01783
1
1.02513
1.05776
1.03016
1.03796
1.00338
0.961929
0.992551
1.00325
1
1.07497
0.98158
1
0.976901
1.04018
0.962711
1.01814
1.06829
0.939543
1.06233
0.978688
1
1.03853
1.05924
1.04519
1.02701
0.998694
0.999998
1.05094
0.999967
0.981093
1
1.06154
1.03114
0.974184
1.00006
1.03257
1.03969
1.05844
1
1.05199
1.09591
1.05947
1.02011
0.985251
1.0499
0.984461
1.02678
1.07016
1
1
0.983972
1.0029
1.04847
1.04036
1.05684
0.986386
0.977151
1.05265
0.962426
1
0.976384
0.998305
1.05967
1
0.983585
0.98589
0.937213
1.02751
1.05844
1
1
0.989959
0.943446
1.04941
0.93384
1.04297
1.03552
1.05016
0.938584
1.0776
1.04092
1.06109
1.07023
0.941496
1.00838
1
0.976261
1.09052
1.05757
1
0.976986
1.00223
0.951005
1.05063
1.03897
1.04295
1.02041
1.04064
0.962347
1.02446
1.06645
0.994172
1.07018
1.06668
1.04186
1.07253
1.06426
1.07499
1
0.978768
1.06105
1.0564
1
0.981105
1.02807
1.02283
1.0654
1.02022
1.0443
0.93977
1.02723
1.02102
1
1.0278
1.07639
1
1.04667
1.02112
0.98108
0.990554
1.0239
1
0.991583
0.977263
1.03113
1.02765
1.00654
1.03694
1.04878
1.02498
1.02428
1
1.07562
0.977167
1.04685
1.03327
1.00607
1.03156
1.05077
1.08826
1
1.02913
1.05361
1.06942
1
1.06591
1.07119
0.989772
1.06296
1
1.06024
1.0741
1.02415
1
1.04953
1.0058
1.07314
1.07684
1.04748
1.04394
0.958488
1.03594
1.0529
1
1
1.06465
1.05741
1.04366
0.976663
1.03911
0.975976
0.961116
1.01113
1.0054
1.00641
0.996016
0.988758
1.03174
1.04012
1.04599
0.973471
0.970635
0.989641
1.04708
1.0046
1.01488
1.07234
1.04805
1
1.00579
1.02105
1.04978
1.06891
1.05483
0.976987
1.0537
1.00646
1.07141
1.05019
1.02955
1.07787
1
1.04654
1.0175
0.976529
0.935058
1.00564
1
0.960429
0.936344
1.04108
0.929824
0.957001
1.01885
1.06631
1.03662
1.05221
0.969961
1.08713
1.01972
0.995932
1.03958
0.949342
1
1.07708
1.05711
1.0401
1.08944
1.01601
1
1
0.967619
1.02335
0.969084
1
0.974896
0.9428
1.04044
1.03888
1.00704
0.979915
1.03779
1.05419
1.04138
1.04374
1
0.976817
1.0167
1.0376
1.07807
1
1
1.01114
1.02818
1.00003
1.06695
1.04205
0.99973
1.02
1.06699
1
0.999999
0.999149
0.980522
0.966744
0.961009
0.995828
0.968793
1.02171
1.05648
1
1.03947
1.04756
1
0.943135
0.99624
1.04524
1.01412
1
0.961017
0.943644
0.995502
1.01429
0.94616
1.03608
1.03834
1.01011
1.02534
1.02133
0.963462
0.993023
1.02757
1
1.03132
1.03151
1.0369
1.05817
0.962627
0.9732
0.995748
1.00254
1
1.02429
1
1.04613
1.05655
0.92205
0.9657
0.963393
0.975796
1
0.996072
1
0.954342
0.960606
1.00277
0.962542
1.0441
0.962845
1.06369
1.01918
1.0958
1
1.01534
0.962833
0.971897
0.96243
1.06704
1.06477
1
1.03588
0.962949
1.07764
1
1.00243
1
1.0598
0.995539
1.01937
1.00807
1
0.920469
0.989338
0.963008
1.03518
1
1
1.03645
1.01528
1.03123
1.03363
1.03632
1.06001
1.05451
1.0663
1.03293
1.0258
0.93243
0.971579
1.05528
1.05916
0.998792
1
0.973852
0.975817
1.00799
1.06326
0.961638
0.999999
1.01131
1
1.00727
1.0075
1.01233
0.98719
0.990619
0.923206
1.05326
1
1
0.939458
1
0.962348
1.01321
1.05671
1
1.01275
1.01555
1
1
0.96145
1.03478
0.961764
1.0527
1.03314
0.949068
0.979345
1.04361
0.989979
1.00979
1.07138
1.08712
1
1.05868
1.04656
1.01185
1
1.09749
0.94687
1.05278
1.0642
1
1.01248
1.05609
1.02859
1.07284
1.03224
1
0.997724
1
1
1.03351
1.01687
0.97615
1.04869
0.999826
1.01476
0.983989
1
0.992306
1.04173
1
1
1.06371
1.04335
0.919328
1.07473
1
1.03456
0.994721
1.05132
1
1.06415
1.00562
1.05631
1.05507
0.997037
1
1.01509
0.952422
1.04142
1.01406
1
1.0379
1.06303
0.979192
1.05826
1.03174
1.05043
0.992629
0.985986
1.00984
0.986489
1.09319
1.02022
1
1
1.07462
1.08993
1.06303
1
1.01363
1.0109
1.05522
1.00948
1
1.05588
0.963304
1
1.01087
0.98511
1.03531
1
1.04121
1.03204
1
0.941607
1
1.03087
0.979551
1
1.02009
0.991323
1.03405
1.00451
1
1.03905
0.937572
1.02204
0.989504
0.969823
1.01119
1
1.02025
1.0423
1.03981
1.06936
1
0.938104
0.999998
1.02269
1.04347
1.09957
1
0.962333
1
1.0373
1
0.998317
1.03219
1.03832
0.937886
1
1.04876
0.939972
0.993665
1.0667
1.04588
1.06303
1.01833
1.02154
0.980666
1
1
1.00849
1.04054
1.02586
1.05193
1
1.08443
1.0416
1.00712
0.979195
1.01233
1.06694
1
1.02724
1
0.991918
1.06679
1.06079
1.06103
1.07772
0.974948
1.04863
1.09694
1.04281
1.08552
1.06245
1.04985
1.04612
0.996186
0.991068
1.0043
0.962014
1.05019
0.990045
1.00002
1.02678
1.00652
1
1.03937
1.06042
1.04525
1.05122
1.07234
1.03075
1.00748
0.979528
1.03207
1.06007
0.988076
0.996504
0.929115
1.08046
1.06179
1.06769
0.988429
1
0.948156
1.06535
0.95163
1.03859
1.01946
1.03814
1.04801
1.05594
1.03183
0.955541
1.03107
1
1.02929
1.08128
1.02978
1.05366
1
1
1.04403
0.946489
1.0582
1.06377
1.05559
0.950014
1.03385
1.0223
1.06074
1.00964
1.04657
1.04677
1.0308
1.05063
0.955902
1.0285
1
0.985557
0.977319
0.978568
0.959083
1.06728
1.02438
0.995879
1.03528
1
0.994349
1.05584
1.01663
1.03337
1.03623
1.04738
1.00454
0.953489
0.956518
1.05911
1.02519
1.0061
1.03648
1.02221
1.05301
1.09807
1.03326
1
1.01137
1.04728
0.952016
1.05525
1.03491
1.01043
0.937574
1.00517
1.02992
0.975361
1.00595
1.02093
0.983751
1.02534
0.946803
1.05622
0.936985
1.05303
1
1.09914
1
1.02773
1
1
0.999999
1
1.07415
1.03531
1.05787
1.03243
1.05758
1.0079
1.02543
1.02303
1
1
1.03146
1.02944
1.05521
1
0.987609
1.05051
1.0291
1.0403
1
0.936701
1.00002
0.957407
0.937697
1.05657
0.983319
1
1.03865
0.979019
1.0522
0.948727
1
1.05758
1.05205
0.966719
1.00714
1.03963
0.940417
1.05311
0.951182
0.999585
1.05721
0.95318
0.951489
0.978609
0.952208
1.05454
1
1.04254
0.959015
1.02151
1.06092
1
1.04236
1.04293
1.01782
1.0511
0.954111
0.958947
1
1.07407
0.953623
0.953145
1.03051
1.04982
1.04728
1.04963
1
1.0535
1
1.04785
1
1.04163
1.01688
0.939444
0.973485
1
1
1
1.04907
1.09477
1.04536
1
1
1.04476
1.01874
1
1.08896
0.957927
1.04732
1.033
0.980745
0.983306
1.03853
1.01603
1.04624
1.05024
1
1.0895
0.9774
1.03659
1
0.979405
1
0.955434
1.0509
0.960474
0.99463
1.05251
1.00739
1.05134
1
1.00093
0.980463
1.06024
1.0117
1
0.987401
1.06221
1
1.06764
0.992013
0.969179
1.05204
1.07547
0.979274
0.958556
1.07094
0.982931
1
1.04544
1
1.00076
1.03744
1
1
1
1.0311
0.985153
0.966701
1.06789
1.06493
1.04867
0.990241
1.03129
0.964733
1.05606
1
0.988558
0.962225
1.05436
0.963469
1.03051
0.997062
1.0491
1.04829
0.977894
1.03571
0.967258
1.00785
1.00546
1
1.0223
1.03163
0.9642
0.97702
1.05365
0.97322
1
1
1.05329
1.02892
0.98011
0.949408
1.03088
1.05154
1
1.03292
1.03696
0.98879
0.997805
1.0133
1.05508
1
0.982202
1.0507
1.00476
0.955104
0.975109
1.05376
1.04786
1.07978
1.00001
1
1.04974
1
1
1.04005
1
1.04907
1.08504
1.00134
1
0.988407
1
0.980742
0.968483
1
1.00099
0.986623
0.993161
1.0917
0.99358
1.0881
1.01483
1.05683
1.01062
1.05269
1.07309
1
1.06145
0.977315
1.08896
1.03341
1
1.06223
1.06429
0.987907
1.01429
1.03467
1.00335
0.941799
0.966132
0.994862
0.981606
1.04358
1
1.03086
1
0.99184
0.965846
1
1
1
0.985568
1
0.986864
0.960551
1.00415
0.935067
1.06971
0.990191
1.02149
0.999898
1.08878
1.05169
0.969
1
1.05919
1.08312
1
1
1
1.06514
1.08996
1.04106
1
1
0.990407
0.999998
0.962918
1.00537
1.06053
1.00037
1.02144
0.981704
1.06933
1.05512
1.06358
1
1
1.0378
1.05892
0.948126
1
1.07945
1.07414
1.06048
0.949285
1.06128
1.01571
1.03129
1
1.08425
1.00008
1.0343
1.00569
0.978252
1.05718
1.03895
1
1
1.0585
0.941682
1.03817
1
1.03853
1.02829
1.07923
1
1.08814
1.03061
1
0.999999
1.02609
1.05448
0.994993
1.06598
1
1.07283
1.0541
1.05566
1.0038
1.07633
0.957862
1.03142
1
1.06631
0.959288
1.0784
0.969155
0.995583
0.998969
0.957307
0.996778
1.00289
1.03114
1.0273
1.0818
1.0242
0.943999
0.997165
0.958756
1.03529
1
1.07618
1.05248
1.05078
1
1
0.956618
1.07941
1.07264
0.956373