/*--------------------------------*- C++ -*----------------------------------*\
  =========                 |
  \\      /  F ield         | OpenFOAM: The Open Source CFD Toolbox
   \\    /   O peration     | Website:  https://openfoam.org
    \\  /    A nd           | Version:  12
     \\/     M anipulation  |
\*---------------------------------------------------------------------------*/
FoamFile
{
    format      ascii;
    class       volScalarField;
    location    "7";
    object      T;
}
// * * * * * * * * * * * * * * * * * * * * * * * * * * * * * * * * * * * * * //

dimensions      [0 0 0 1 0 0 0];

internalField   nonuniform List<scalar> 
1800
(
1
1
1
1
1
1
1
1
1
1
1
1
1
1
1
1
1
1
1
1
1
1.00001
1.00023
1.0055
1.04148
1.15421
1.30489
1.44782
1.52169
1.54302
1.53277
1.52396
1.51985
1.51654
1.51603
1.51742
1.522
1.52612
1.52662
1.52656
1.52588
1.52483
1.52397
1.52384
1.5243
1.52525
1.52656
1.52708
1.52688
1.52641
1.52547
1.52454
1.5243
1.52424
1.52437
1.52508
1.52595
1.52617
1.52625
1.52625
1
1
1
1
1
1
1
1
1
1
1
1
1
1
1
1
1
1
1
1
1
1.00016
1.00297
1.03372
1.1221
1.19448
1.26813
1.35359
1.42705
1.49063
1.51651
1.52751
1.52587
1.52094
1.51986
1.52033
1.52308
1.52596
1.52645
1.5264
1.52588
1.52485
1.52436
1.52434
1.52474
1.52554
1.52663
1.52701
1.5269
1.52657
1.52569
1.5249
1.52476
1.52475
1.52492
1.52554
1.5262
1.52643
1.52649
1.52643
1
1
1
1
1
1
1
1
1
1
1
1
1
1
1
1
1
1
1
1
1.00007
1.00176
1.01989
1.10826
1.19598
1.2369
1.25474
1.28326
1.35158
1.446
1.50641
1.53294
1.52977
1.52526
1.52482
1.52427
1.52479
1.52622
1.52733
1.52759
1.52748
1.52659
1.52581
1.5256
1.52585
1.52685
1.52776
1.52787
1.52773
1.5274
1.52655
1.52592
1.52583
1.52581
1.52603
1.52663
1.52712
1.52733
1.52739
1.52722
1
1
1
1
1
1
1
1
1
1
1
1
1
1
1
1
1
1
1
1.00004
1.00101
1.01238
1.07453
1.19148
1.23601
1.25662
1.26028
1.26153
1.2763
1.32953
1.42818
1.51503
1.51698
1.5263
1.53028
1.52858
1.5264
1.52695
1.52801
1.52908
1.5295
1.52894
1.52795
1.52753
1.52786
1.52897
1.52946
1.52944
1.52914
1.5286
1.52806
1.52771
1.52766
1.52765
1.5279
1.5283
1.52858
1.52884
1.52885
1.52856
1
1
1
1
1
1
1
1
1
1
1
1
1
1
1
1
1
1
1.00002
1.00072
1.01023
1.05443
1.16815
1.23802
1.24754
1.2541
1.2592
1.25853
1.25828
1.26672
1.32171
1.42807
1.48876
1.53185
1.53134
1.52903
1.52942
1.52906
1.52895
1.52984
1.5305
1.5307
1.53024
1.52963
1.53001
1.53067
1.53112
1.53113
1.53073
1.53009
1.52969
1.52955
1.52958
1.52956
1.52976
1.53014
1.53036
1.53048
1.53038
1.53008
1
1
1
1
1
1
1
1
1
1
1
1
1
1
1
1
1
1.00001
1.0005
1.00864
1.0555
1.14055
1.23499
1.24642
1.25141
1.25816
1.26125
1.25942
1.25867
1.25928
1.26813
1.31149
1.40955
1.50255
1.51563
1.52924
1.53259
1.53092
1.52989
1.53032
1.53062
1.53141
1.53136
1.53128
1.53163
1.5319
1.5322
1.5323
1.53184
1.53124
1.53106
1.5312
1.5314
1.53148
1.53167
1.5318
1.53189
1.5319
1.53162
1.53142
1
1
1
1
1
1
1
1
1
1
1
1
1
1
1
1
1.00001
1.00044
1.00689
1.05378
1.13775
1.22328
1.26116
1.25802
1.25657
1.25767
1.26031
1.2594
1.25873
1.25893
1.26042
1.2658
1.30596
1.40026
1.48054
1.53225
1.53123
1.52972
1.53068
1.53054
1.53071
1.53178
1.53189
1.53223
1.5326
1.53268
1.53282
1.53284
1.53236
1.532
1.53199
1.53229
1.53273
1.53307
1.53317
1.53313
1.53306
1.53283
1.53246
1.53238
1
1
1
1
1
1
1
1
1
1
1
1
1
1
1
1.00001
1.00033
1.0058
1.04554
1.14471
1.21045
1.26027
1.26522
1.25973
1.25651
1.25624
1.25792
1.25744
1.2581
1.25968
1.2613
1.26103
1.26513
1.29751
1.39591
1.49434
1.51187
1.52547
1.53226
1.53044
1.5305
1.53211
1.53243
1.53296
1.53352
1.53343
1.53328
1.533
1.53268
1.53257
1.53258
1.53303
1.53389
1.53434
1.53435
1.53421
1.53395
1.53344
1.53314
1.53314
1
1
1
1
1
1
1
1
1
1
1
1
1
1
1
1.00018
1.00387
1.03349
1.14024
1.21119
1.24354
1.26344
1.26366
1.26042
1.25852
1.2572
1.25776
1.25752
1.25835
1.2601
1.2624
1.26214
1.26146
1.26458
1.2967
1.38128
1.46938
1.52377
1.52826
1.52822
1.53122
1.53285
1.53293
1.53373
1.53462
1.53433
1.53371
1.53302
1.53294
1.53297
1.53305
1.53396
1.53498
1.53533
1.5353
1.53508
1.53454
1.5338
1.53351
1.53354
1
1
1
1
1
1
1
1
1
1
1
1
1
1
1.00008
1.00191
1.02326
1.10613
1.21773
1.23804
1.25376
1.26457
1.2646
1.26281
1.26191
1.26034
1.25862
1.25751
1.25818
1.2596
1.26288
1.2633
1.26306
1.26238
1.26533
1.2884
1.37334
1.47277
1.50293
1.52304
1.53342
1.53221
1.53301
1.53481
1.53544
1.53505
1.53422
1.53309
1.53311
1.53341
1.534
1.535
1.53586
1.5361
1.53605
1.5357
1.5349
1.53412
1.53394
1.53404
1
1
1
1
1
1
1
1
1
1
1
1
1
1.00004
1.00099
1.01522
1.07977
1.20326
1.24589
1.25092
1.25681
1.26067
1.26187
1.26284
1.26324
1.26215
1.26023
1.25769
1.2579
1.25905
1.2627
1.26507
1.26525
1.26417
1.26343
1.26525
1.28661
1.35605
1.4508
1.51362
1.53025
1.52985
1.53376
1.53609
1.53559
1.53484
1.53382
1.53351
1.53354
1.53391
1.53499
1.53629
1.53663
1.53658
1.53637
1.53578
1.53478
1.53418
1.53405
1.53429
1
1
1
1
1
1
1
1
1
1
1
1
1.00003
1.00079
1.01065
1.06718
1.17851
1.25549
1.25139
1.25112
1.25465
1.25622
1.25882
1.26244
1.26473
1.26373
1.26156
1.25831
1.25802
1.25914
1.26279
1.26624
1.26699
1.26632
1.26472
1.26383
1.26513
1.28006
1.34691
1.4415
1.49979
1.5233
1.53777
1.53676
1.5351
1.53476
1.53383
1.53328
1.53328
1.53362
1.53517
1.53679
1.53687
1.53677
1.53612
1.53493
1.5341
1.53393
1.53398
1.53434
1
1
1
1
1
1
1
1
1
1
1
1.00003
1.00078
1.01058
1.06013
1.15452
1.25324
1.26204
1.25979
1.25832
1.25672
1.25613
1.25819
1.26265
1.26567
1.2649
1.26245
1.26038
1.25959
1.26116
1.2642
1.26682
1.26756
1.26701
1.26561
1.26443
1.26374
1.26447
1.27783
1.33282
1.4355
1.50434
1.53224
1.53075
1.53247
1.53334
1.53223
1.53127
1.53156
1.53264
1.53486
1.53614
1.53616
1.53601
1.53467
1.53331
1.53295
1.53294
1.53313
1.53374
1
1
1
1
1
1
1
1
1
1
1.00001
1.00056
1.00938
1.06416
1.14547
1.22928
1.27123
1.26847
1.26271
1.26163
1.25889
1.2569
1.25859
1.26231
1.26584
1.26571
1.26388
1.26277
1.26203
1.26273
1.26505
1.26692
1.26716
1.26686
1.26589
1.26481
1.26365
1.26275
1.26318
1.27276
1.32473
1.41511
1.49244
1.51396
1.52856
1.5312
1.5286
1.52869
1.52986
1.53165
1.53406
1.53485
1.53473
1.53407
1.53222
1.53143
1.53127
1.53122
1.5317
1.53262
1
1
1
1
1
1
1
1
1
1.00001
1.00024
1.00527
1.05245
1.15806
1.21404
1.25603
1.26815
1.26664
1.26206
1.25987
1.2594
1.25846
1.25945
1.26178
1.26528
1.26637
1.26579
1.26527
1.26481
1.26456
1.26519
1.26611
1.26634
1.26589
1.26547
1.26482
1.26339
1.26154
1.26089
1.26105
1.26798
1.30926
1.39789
1.48036
1.5216
1.52328
1.52434
1.52772
1.52919
1.53096
1.53275
1.53266
1.53215
1.53112
1.52961
1.5292
1.52921
1.52932
1.53037
1.53131
1
1
1
1
1
1
1
1
1
1.0001
1.00252
1.02916
1.14728
1.22142
1.24277
1.26059
1.26517
1.26438
1.26355
1.26166
1.26178
1.26069
1.25997
1.26178
1.26482
1.26692
1.26714
1.26677
1.2664
1.26572
1.26485
1.26485
1.26472
1.26406
1.2634
1.26283
1.2617
1.26007
1.25918
1.25922
1.25931
1.26386
1.29538
1.38121
1.47646
1.50078
1.52146
1.52661
1.5285
1.52993
1.53083
1.5302
1.52932
1.52838
1.52737
1.52731
1.52732
1.52805
1.52967
1.5303
1
1
1
1
1
1
1
1
1.00006
1.00154
1.0179
1.10187
1.22595
1.25191
1.25804
1.26389
1.26285
1.26361
1.26554
1.26516
1.2645
1.26432
1.26316
1.26316
1.26516
1.26679
1.26744
1.26721
1.26653
1.2653
1.26412
1.26309
1.26246
1.2617
1.26097
1.26048
1.25975
1.25885
1.25853
1.25849
1.25824
1.25837
1.2613
1.28874
1.3694
1.45921
1.51074
1.52057
1.52538
1.52889
1.52961
1.52827
1.52758
1.52665
1.52592
1.5259
1.52622
1.52753
1.52942
1.52978
1
1
1
1
1
1
1
1.00004
1.00128
1.0155
1.07254
1.20595
1.25864
1.26126
1.26524
1.26669
1.26159
1.26134
1.26337
1.26621
1.26643
1.26627
1.26527
1.26499
1.26575
1.26659
1.26642
1.26567
1.26532
1.26447
1.26265
1.26089
1.25984
1.25927
1.25892
1.25879
1.25859
1.25846
1.25843
1.25827
1.25801
1.25786
1.25792
1.26041
1.28185
1.36016
1.45175
1.49446
1.51944
1.53055
1.52838
1.52713
1.527
1.5258
1.52521
1.5253
1.52595
1.52803
1.5296
1.52961
1
1
1
1
1
1
1.00002
1.00091
1.0153
1.07385
1.16445
1.25931
1.26613
1.26516
1.26646
1.26785
1.26306
1.26256
1.26466
1.26788
1.26766
1.26732
1.26661
1.26583
1.26506
1.26455
1.26384
1.26272
1.26219
1.26154
1.26034
1.25914
1.2584
1.25824
1.25827
1.25839
1.25845
1.25843
1.25834
1.25822
1.258
1.2579
1.25795
1.25811
1.25995
1.27948
1.34399
1.44553
1.50681
1.52484
1.52286
1.52594
1.52672
1.52467
1.5243
1.5251
1.527
1.52942
1.52972
1.52943
1
1
1
1
1
1.00001
1.00046
1.00938
1.07892
1.16228
1.23464
1.27132
1.27259
1.26985
1.26764
1.26763
1.26444
1.26399
1.26516
1.26692
1.26672
1.26703
1.26651
1.26467
1.26272
1.26131
1.26033
1.25978
1.25966
1.25948
1.25903
1.25832
1.25788
1.25784
1.25791
1.25813
1.25832
1.25835
1.25834
1.25825
1.25816
1.25814
1.25821
1.25835
1.25852
1.26003
1.27371
1.33951
1.4289
1.49277
1.51385
1.52857
1.52615
1.52313
1.52371
1.52596
1.52903
1.53013
1.52977
1.5292
1
1
1
1
1
1.00022
1.00497
1.05189
1.17558
1.23103
1.26321
1.27279
1.27226
1.27044
1.26821
1.26708
1.26551
1.26421
1.26475
1.26533
1.26481
1.26436
1.26385
1.26248
1.26031
1.25873
1.25817
1.25822
1.25831
1.25833
1.25824
1.25792
1.25773
1.25774
1.25787
1.25813
1.25834
1.25839
1.25838
1.25837
1.25839
1.25846
1.25858
1.25862
1.25862
1.25867
1.25952
1.27112
1.3211
1.41426
1.49108
1.52351
1.5199
1.52228
1.52529
1.52817
1.53011
1.5302
1.52983
1.52924
1
1
1
1
1.00012
1.00312
1.0311
1.15155
1.23781
1.26166
1.27325
1.27156
1.26905
1.26924
1.26831
1.26742
1.26594
1.26364
1.26272
1.26264
1.26195
1.26088
1.2602
1.25944
1.25848
1.25766
1.25733
1.25743
1.25766
1.25784
1.25793
1.25799
1.25804
1.25809
1.25821
1.25831
1.25842
1.25849
1.25852
1.25856
1.25861
1.25864
1.25865
1.25866
1.25865
1.2586
1.25859
1.25919
1.26665
1.30762
1.39613
1.48058
1.50444
1.52535
1.52867
1.52945
1.52943
1.52994
1.5299
1.52927
1
1
1
1.00007
1.00209
1.0238
1.10986
1.23972
1.26592
1.27378
1.27723
1.27324
1.2682
1.26656
1.26609
1.26602
1.26508
1.26271
1.26016
1.25869
1.25831
1.25806
1.25803
1.25794
1.25768
1.25729
1.25722
1.25736
1.25771
1.25797
1.25817
1.25833
1.25844
1.25847
1.25847
1.25848
1.25852
1.25858
1.25865
1.25867
1.25867
1.25866
1.25864
1.25862
1.25861
1.2586
1.25859
1.2586
1.25895
1.26393
1.29836
1.38547
1.47298
1.5209
1.52525
1.52759
1.52819
1.52952
1.52951
1.52897
1
1
1.00003
1.00118
1.01992
1.08923
1.21466
1.27565
1.27825
1.27836
1.27846
1.27344
1.26656
1.26248
1.26172
1.26143
1.26035
1.25877
1.25746
1.25678
1.25671
1.25682
1.25702
1.2573
1.25747
1.2576
1.25775
1.25795
1.25823
1.25844
1.25858
1.25866
1.25866
1.2586
1.25852
1.25852
1.25853
1.25859
1.25868
1.2587
1.25868
1.25865
1.2586
1.25858
1.25858
1.25858
1.25858
1.2586
1.25864
1.25887
1.26279
1.2913
1.3773
1.471
1.50214
1.52376
1.5274
1.52987
1.52928
1.52951
1
1.00001
1.00052
1.01186
1.08623
1.18646
1.27242
1.28321
1.28114
1.27622
1.27211
1.26791
1.26191
1.25692
1.25653
1.25712
1.25708
1.25671
1.2564
1.25634
1.25646
1.25684
1.25724
1.25762
1.25797
1.25822
1.2584
1.25852
1.25863
1.25872
1.25875
1.25874
1.25868
1.25857
1.2585
1.25849
1.2585
1.25857
1.25868
1.25872
1.25871
1.25869
1.25864
1.25858
1.25856
1.25856
1.25858
1.25862
1.25866
1.25866
1.25882
1.26159
1.2871
1.36406
1.45776
1.51743
1.52048
1.52806
1.5285
1.53125
1
1.00033
1.00562
1.0658
1.18443
1.25925
1.28615
1.28551
1.2808
1.27198
1.26475
1.26037
1.25638
1.25374
1.25402
1.25518
1.25593
1.25623
1.25654
1.25697
1.25751
1.25799
1.25822
1.25841
1.25862
1.25869
1.25867
1.25871
1.25872
1.25871
1.25869
1.25866
1.25861
1.25853
1.25846
1.25846
1.25848
1.25855
1.25866
1.25873
1.25873
1.25873
1.25869
1.2586
1.25853
1.25851
1.25852
1.25855
1.25863
1.25865
1.25863
1.25871
1.26074
1.27941
1.35244
1.4514
1.48969
1.52352
1.52447
1.53503
1.00002
1.00463
1.03888
1.17405
1.25644
1.28306
1.28324
1.27916
1.27069
1.26112
1.25568
1.25388
1.2529
1.25275
1.25349
1.2551
1.25667
1.25729
1.25771
1.25813
1.25855
1.25883
1.25889
1.25887
1.25886
1.25879
1.25863
1.25854
1.25849
1.25849
1.25854
1.25858
1.25857
1.25853
1.25851
1.2585
1.2585
1.25853
1.2586
1.2587
1.25874
1.25873
1.25869
1.25859
1.25851
1.25848
1.25848
1.25849
1.25855
1.2586
1.2586
1.25859
1.25863
1.25987
1.2754
1.33541
1.43171
1.51115
1.51342
1.54531
1.00091
1.03402
1.14242
1.25851
1.28986
1.28612
1.27783
1.26674
1.25661
1.25026
1.25075
1.25159
1.25293
1.2543
1.25609
1.25753
1.25832
1.25849
1.25858
1.25876
1.25894
1.259
1.259
1.25894
1.25886
1.25873
1.25856
1.25843
1.25839
1.2584
1.25848
1.25857
1.25862
1.25863
1.2586
1.25854
1.25851
1.25849
1.25851
1.25858
1.25865
1.25867
1.25866
1.25862
1.25854
1.25848
1.25846
1.25847
1.2585
1.25854
1.25856
1.25857
1.25859
1.25862
1.25958
1.27022
1.3277
1.42823
1.47595
1.55668
1.01565
1.13331
1.261
1.27582
1.27224
1.26419
1.25639
1.25202
1.24655
1.24608
1.25013
1.25474
1.25686
1.2579
1.25878
1.25906
1.25895
1.25883
1.25877
1.2588
1.25877
1.25877
1.25878
1.25874
1.25869
1.2586
1.25848
1.25838
1.25836
1.25839
1.25848
1.25857
1.25864
1.25869
1.25867
1.2586
1.25854
1.25847
1.25845
1.25848
1.25854
1.25856
1.25858
1.25859
1.25856
1.25852
1.25849
1.25849
1.25849
1.25851
1.25853
1.25855
1.25857
1.25858
1.25861
1.25919
1.26889
1.31499
1.41873
1.55692
1.14468
1.28771
1.31901
1.30049
1.27564
1.25911
1.25131
1.24763
1.24938
1.25278
1.25676
1.2587
1.259
1.25914
1.25936
1.25929
1.25895
1.25863
1.25858
1.25858
1.25855
1.25854
1.25856
1.25855
1.25855
1.25854
1.25851
1.25849
1.25848
1.25849
1.25852
1.25855
1.2586
1.2586
1.25858
1.25855
1.25853
1.25851
1.25848
1.25848
1.25852
1.25853
1.25853
1.25854
1.25855
1.25853
1.25853
1.25852
1.25852
1.25852
1.25852
1.25853
1.25854
1.25854
1.25854
1.25854
1.25888
1.26265
1.2997
1.40771
)
;

boundaryField
{
    top
    {
        type            fixedValue;
        value           uniform 1.25853;
    }
    inlet
    {
        type            fixedValue;
        value           uniform 1;
    }
    outlet
    {
        type            zeroGradient;
    }
    bottom
    {
        type            symmetryPlane;
    }
    frontAndBack
    {
        type            empty;
    }
}


// ************************************************************************* //
