/*--------------------------------*- C++ -*----------------------------------*\
  =========                 |
  \\      /  F ield         | OpenFOAM: The Open Source CFD Toolbox
   \\    /   O peration     | Website:  https://openfoam.org
    \\  /    A nd           | Version:  12
     \\/     M anipulation  |
\*---------------------------------------------------------------------------*/
FoamFile
{
    format      ascii;
    class       volVectorField;
    location    "7";
    object      U;
}
// * * * * * * * * * * * * * * * * * * * * * * * * * * * * * * * * * * * * * //

dimensions      [0 1 -1 0 0 0 0];

internalField   nonuniform List<vector> 
1800
(
(2.9 1.77003e-14 0)
(2.9 6.8854e-14 0)
(2.9 4.58183e-14 0)
(2.9 4.21001e-14 0)
(2.9 -2.46497e-14 0)
(2.9 -1.48667e-13 0)
(2.9 -1.26132e-13 0)
(2.9 -3.69439e-14 0)
(2.9 -1.79036e-14 0)
(2.9 4.77611e-15 0)
(2.9 -5.82072e-15 0)
(2.9 1.88388e-14 0)
(2.9 -6.61272e-15 0)
(2.9 -1.45149e-14 0)
(2.9 -2.92807e-15 0)
(2.9 -4.41986e-14 0)
(2.9 1.57168e-14 0)
(2.9 -3.74057e-17 0)
(2.9 -6.94458e-12 0)
(2.9 -1.43943e-09 0)
(2.9 -1.64797e-07 0)
(2.89999 -1.20514e-05 0)
(2.89972 -0.000342859 0)
(2.89336 -0.00743341 0)
(2.85769 -0.0548581 0)
(2.74704 -0.174336 0)
(2.61671 -0.173373 0)
(2.48006 -0.225899 0)
(2.42079 -0.142115 0)
(2.38586 -0.0432092 0)
(2.39099 0.001032 0)
(2.39299 0.0116899 0)
(2.37689 0.00608756 0)
(2.38041 0.000964026 0)
(2.38371 -0.00141369 0)
(2.3902 -0.00302532 0)
(2.39552 -0.000787675 0)
(2.39627 0.000256946 0)
(2.39595 -0.000222949 0)
(2.39616 -0.000885684 0)
(2.39665 -0.00155045 0)
(2.39713 -0.00153352 0)
(2.39616 -0.000719215 0)
(2.39527 -0.000227402 0)
(2.39485 -0.000173283 0)
(2.39555 -0.000281342 0)
(2.39878 -0.000144607 0)
(2.40077 6.14169e-05 0)
(2.40126 0.000205978 0)
(2.40108 0.000301538 0)
(2.39964 -4.07074e-05 0)
(2.39894 -0.00033397 0)
(2.39947 -0.000327551 0)
(2.39977 -0.000251342 0)
(2.40008 -0.000156812 0)
(2.40089 -0.000141834 0)
(2.40188 -0.000267183 0)
(2.40192 -0.000277494 0)
(2.40153 -0.00029449 0)
(2.40042 -0.000304371 0)
(2.9 4.07776e-14 0)
(2.9 6.49116e-14 0)
(2.9 6.73085e-14 0)
(2.9 3.41698e-14 0)
(2.9 -1.19982e-13 0)
(2.9 -1.42409e-13 0)
(2.9 -7.36637e-14 0)
(2.9 2.0116e-14 0)
(2.9 4.07734e-14 0)
(2.9 -1.10046e-14 0)
(2.9 -5.83943e-14 0)
(2.9 1.60512e-14 0)
(2.9 6.79529e-14 0)
(2.9 1.11729e-13 0)
(2.9 7.83962e-14 0)
(2.9 -2.45918e-14 0)
(2.9 1.56201e-15 0)
(2.9 -7.63434e-12 0)
(2.9 -1.03915e-09 0)
(2.9 -1.31315e-07 0)
(2.9 -9.19293e-06 0)
(2.89984 -0.000365755 0)
(2.89725 -0.00652201 0)
(2.865 -0.0782727 0)
(2.82015 -0.213143 0)
(2.72714 -0.439332 0)
(2.6543 -0.442147 0)
(2.56269 -0.283483 0)
(2.45505 -0.053702 0)
(2.40362 0.00555269 0)
(2.40263 0.0370766 0)
(2.40018 0.0214878 0)
(2.39742 0.0139411 0)
(2.39647 0.000860433 0)
(2.39724 -0.00743815 0)
(2.40051 -0.00826225 0)
(2.40225 -0.00178863 0)
(2.40281 0.00234927 0)
(2.40143 0.00172014 0)
(2.40104 0.000589237 0)
(2.40051 -0.000726087 0)
(2.39963 -0.00153511 0)
(2.39869 -0.00117423 0)
(2.39811 -0.00055901 0)
(2.39779 -0.000271832 0)
(2.3982 9.49539e-05 0)
(2.40065 0.000757351 0)
(2.40211 0.00110839 0)
(2.40228 0.00121569 0)
(2.40199 0.00121987 0)
(2.4007 0.00020829 0)
(2.40001 -0.000784106 0)
(2.40043 -0.000901955 0)
(2.40071 -0.000841826 0)
(2.40122 -0.000722065 0)
(2.40201 -0.000501035 0)
(2.40255 -0.000560397 0)
(2.40243 -0.000697302 0)
(2.40206 -0.000734989 0)
(2.40093 -0.000599565 0)
(2.9 8.25348e-16 0)
(2.9 -1.13456e-14 0)
(2.9 -4.81511e-15 0)
(2.9 -1.65551e-14 0)
(2.9 -7.14126e-14 0)
(2.9 -4.11453e-14 0)
(2.9 -1.83521e-14 0)
(2.9 2.07756e-14 0)
(2.9 8.66955e-14 0)
(2.9 -1.88025e-15 0)
(2.9 -3.93695e-14 0)
(2.9 -6.55697e-15 0)
(2.9 5.65505e-15 0)
(2.9 1.26861e-13 0)
(2.9 5.44873e-14 0)
(2.9 -9.40612e-14 0)
(2.9 -3.93129e-12 0)
(2.9 -4.53962e-10 0)
(2.9 -4.94629e-08 0)
(2.9 -3.96631e-06 0)
(2.89992 -0.000160781 0)
(2.89801 -0.00423993 0)
(2.88085 -0.0403583 0)
(2.79722 -0.201454 0)
(2.68913 -0.447982 0)
(2.66883 -0.491639 0)
(2.65171 -0.486957 0)
(2.62512 -0.443412 0)
(2.58095 -0.332076 0)
(2.548 -0.21232 0)
(2.47923 -0.0594202 0)
(2.42403 -0.0010087 0)
(2.42317 0.00680841 0)
(2.41783 0.00380166 0)
(2.41165 -0.00778031 0)
(2.41152 -0.00727971 0)
(2.41144 -0.00222227 0)
(2.41249 0.00192445 0)
(2.4104 0.00118646 0)
(2.40868 -0.000184053 0)
(2.40698 -0.00196035 0)
(2.40481 -0.00274284 0)
(2.40385 -0.00159378 0)
(2.40345 -0.000700297 0)
(2.40321 -0.000249138 0)
(2.40326 0.000291835 0)
(2.40463 0.000996305 0)
(2.40524 0.00146033 0)
(2.40526 0.00182192 0)
(2.40485 0.00167874 0)
(2.40342 0.000665528 0)
(2.40247 -0.000525946 0)
(2.40268 -0.000799509 0)
(2.40296 -0.000841965 0)
(2.40352 -0.000505485 0)
(2.40398 -0.000124407 0)
(2.40402 -0.000543392 0)
(2.4036 -0.000991472 0)
(2.40321 -0.00114014 0)
(2.40222 -0.000850391 0)
(2.9 -1.92083e-14 0)
(2.9 -6.64961e-15 0)
(2.9 -1.70392e-14 0)
(2.9 -2.24001e-14 0)
(2.9 -1.15938e-14 0)
(2.9 -9.51658e-15 0)
(2.9 -7.6387e-14 0)
(2.9 -8.48741e-14 0)
(2.9 -5.58783e-14 0)
(2.9 2.81139e-15 0)
(2.9 4.18845e-14 0)
(2.9 1.13164e-14 0)
(2.9 -8.33512e-15 0)
(2.9 -4.02413e-16 0)
(2.9 4.34101e-14 0)
(2.9 -6.74643e-13 0)
(2.9 -1.06144e-10 0)
(2.9 -1.83581e-08 0)
(2.9 -1.46484e-06 0)
(2.89996 -9.43693e-05 0)
(2.89899 -0.00224236 0)
(2.88699 -0.0263682 0)
(2.82968 -0.148275 0)
(2.69167 -0.390461 0)
(2.65337 -0.49991 0)
(2.63446 -0.489235 0)
(2.63 -0.481914 0)
(2.62881 -0.481832 0)
(2.61798 -0.463154 0)
(2.58985 -0.369863 0)
(2.49252 -0.142486 0)
(2.44537 -0.0485996 0)
(2.43881 0.0244181 0)
(2.41891 0.00770227 0)
(2.41206 -0.00526035 0)
(2.4139 -0.0033304 0)
(2.41522 0.000268808 0)
(2.41574 0.000936768 0)
(2.41604 0.000312169 0)
(2.41429 -0.00102272 0)
(2.41191 -0.00298685 0)
(2.40853 -0.00426465 0)
(2.40703 -0.00316044 0)
(2.40692 -0.00161507 0)
(2.40729 0.00024313 0)
(2.40773 0.00126574 0)
(2.40799 0.00115262 0)
(2.40803 0.00134465 0)
(2.40803 0.00189288 0)
(2.40764 0.00204967 0)
(2.40634 0.000911264 0)
(2.40522 -0.000310074 0)
(2.40509 -0.00058552 0)
(2.4052 -0.000508578 0)
(2.40562 -2.10666e-05 0)
(2.40598 0.000229404 0)
(2.40577 -0.000291301 0)
(2.40518 -0.00105339 0)
(2.40469 -0.00140734 0)
(2.40397 -0.000941504 0)
(2.9 2.61285e-14 0)
(2.9 4.99634e-14 0)
(2.9 8.47082e-14 0)
(2.9 5.97168e-14 0)
(2.9 4.28631e-14 0)
(2.9 1.27472e-14 0)
(2.9 -5.66585e-14 0)
(2.9 -1.8847e-13 0)
(2.9 -1.81399e-13 0)
(2.9 2.1693e-14 0)
(2.9 1.00995e-13 0)
(2.9 9.42774e-14 0)
(2.9 1.3944e-13 0)
(2.9 5.50567e-14 0)
(2.9 -1.23677e-13 0)
(2.9 -2.3986e-11 0)
(2.9 -4.64269e-09 0)
(2.9 -7.19063e-07 0)
(2.89998 -4.8744e-05 0)
(2.89932 -0.0016253 0)
(2.89102 -0.0214528 0)
(2.83922 -0.129509 0)
(2.763 -0.262241 0)
(2.64939 -0.483322 0)
(2.61146 -0.54024 0)
(2.60295 -0.515534 0)
(2.61742 -0.488978 0)
(2.62363 -0.488228 0)
(2.62428 -0.50011 0)
(2.61752 -0.496393 0)
(2.5716 -0.404292 0)
(2.50637 -0.214171 0)
(2.44756 -0.0227525 0)
(2.41739 -0.0254276 0)
(2.41865 -0.0119581 0)
(2.41453 0.00396952 0)
(2.4114 0.00266661 0)
(2.41291 -0.00023538 0)
(2.41497 -0.0004659 0)
(2.41424 -0.00102395 0)
(2.41087 -0.003351 0)
(2.40829 -0.00493242 0)
(2.40685 -0.00448081 0)
(2.40714 -0.00216823 0)
(2.40856 0.000910486 0)
(2.40911 0.00188654 0)
(2.40868 0.00146894 0)
(2.4083 0.00102023 0)
(2.40835 0.00129598 0)
(2.40813 0.00147318 0)
(2.40709 0.000734574 0)
(2.406 -0.000157861 0)
(2.40576 -0.000278117 0)
(2.40577 -3.59293e-05 0)
(2.40629 0.000434269 0)
(2.40673 0.000245645 0)
(2.40632 -0.00031698 0)
(2.4058 -0.000869051 0)
(2.40514 -0.00132159 0)
(2.40484 -0.000981785 0)
(2.9 4.22953e-14 0)
(2.9 5.20529e-14 0)
(2.9 1.1257e-13 0)
(2.9 1.04417e-13 0)
(2.9 5.1416e-14 0)
(2.9 -4.65398e-16 0)
(2.9 -9.98441e-14 0)
(2.9 -1.16494e-13 0)
(2.9 -2.00222e-13 0)
(2.9 -1.28951e-13 0)
(2.9 -1.55119e-14 0)
(2.9 1.9351e-13 0)
(2.9 3.0138e-13 0)
(2.9 -3.50853e-15 0)
(2.9 -2.63963e-11 0)
(2.9 -4.26944e-09 0)
(2.9 -4.76233e-07 0)
(2.89999 -3.38469e-05 0)
(2.89953 -0.00113683 0)
(2.89232 -0.0198228 0)
(2.85081 -0.112969 0)
(2.76454 -0.282565 0)
(2.66284 -0.422275 0)
(2.62485 -0.540501 0)
(2.60789 -0.538358 0)
(2.60774 -0.515427 0)
(2.61377 -0.492195 0)
(2.61861 -0.48709 0)
(2.62223 -0.496236 0)
(2.62169 -0.510505 0)
(2.6125 -0.497709 0)
(2.57964 -0.409245 0)
(2.49559 -0.206308 0)
(2.43823 -0.0965723 0)
(2.42995 0.0116052 0)
(2.40549 0.00355517 0)
(2.4036 -0.000266096 0)
(2.40595 -0.00107498 0)
(2.40862 -0.000679648 0)
(2.4082 -0.00195603 0)
(2.40488 -0.00376094 0)
(2.40336 -0.00457291 0)
(2.40314 -0.00495866 0)
(2.40525 -0.00220676 0)
(2.4069 0.00138496 0)
(2.40663 0.00233968 0)
(2.40587 0.00208613 0)
(2.40519 0.00109598 0)
(2.40499 0.000719622 0)
(2.40493 0.000608382 0)
(2.40432 0.000107242 0)
(2.40385 -0.00029565 0)
(2.40366 -0.000369478 0)
(2.40396 -6.59217e-05 0)
(2.40471 0.000387981 0)
(2.4048 0.00029068 0)
(2.40436 -0.000121357 0)
(2.40381 -0.000752204 0)
(2.40325 -0.00128378 0)
(2.40352 -0.00119629 0)
(2.9 -2.6288e-14 0)
(2.9 2.62567e-15 0)
(2.9 1.97169e-14 0)
(2.9 -4.10167e-16 0)
(2.9 -3.38492e-14 0)
(2.9 -2.26494e-14 0)
(2.9 3.25681e-16 0)
(2.9 -1.91105e-14 0)
(2.9 -6.71691e-14 0)
(2.9 -1.03887e-13 0)
(2.9 -8.98575e-14 0)
(2.9 1.74582e-13 0)
(2.9 -2.26099e-14 0)
(2.9 -4.79566e-11 0)
(2.9 -6.50125e-09 0)
(2.9 -5.95534e-07 0)
(2.89999 -3.07105e-05 0)
(2.89962 -0.000996627 0)
(2.89371 -0.0163861 0)
(2.86212 -0.0956471 0)
(2.74818 -0.330767 0)
(2.681 -0.414398 0)
(2.64474 -0.456091 0)
(2.62443 -0.514177 0)
(2.61505 -0.525563 0)
(2.61187 -0.517141 0)
(2.61379 -0.497378 0)
(2.61421 -0.488458 0)
(2.61818 -0.497567 0)
(2.61697 -0.508803 0)
(2.61743 -0.513968 0)
(2.61249 -0.497153 0)
(2.58119 -0.418054 0)
(2.51522 -0.243548 0)
(2.43242 -0.0325984 0)
(2.40561 -0.0396838 0)
(2.40865 -0.0106466 0)
(2.3992 0.00113688 0)
(2.39994 -0.000559153 0)
(2.40076 -0.000746552 0)
(2.39892 -0.00240114 0)
(2.39718 -0.00419011 0)
(2.39729 -0.00491844 0)
(2.40048 -0.00182013 0)
(2.40223 0.00198881 0)
(2.40158 0.00337139 0)
(2.40056 0.00307313 0)
(2.39959 0.00140565 0)
(2.39918 1.22939e-05 0)
(2.3994 -3.55463e-05 0)
(2.39936 0.000123335 0)
(2.39924 -0.000127281 0)
(2.39955 -0.000343781 0)
(2.40032 9.14784e-05 0)
(2.40064 0.000487376 0)
(2.40051 0.00052925 0)
(2.40024 0.0003303 0)
(2.39974 -0.000470059 0)
(2.39969 -0.00128179 0)
(2.40013 -0.00119334 0)
(2.9 -1.4051e-14 0)
(2.9 8.41607e-16 0)
(2.9 -2.5187e-14 0)
(2.9 -1.89363e-14 0)
(2.9 -2.9112e-14 0)
(2.9 -2.26935e-14 0)
(2.9 4.82064e-14 0)
(2.9 3.46465e-14 0)
(2.9 -2.28933e-14 0)
(2.9 -4.47357e-14 0)
(2.9 -3.68768e-14 0)
(2.9 -1.29535e-13 0)
(2.9 -3.34894e-11 0)
(2.9 -4.17331e-09 0)
(2.9 -4.38156e-07 0)
(2.89999 -2.40183e-05 0)
(2.89969 -0.000801163 0)
(2.89486 -0.0125827 0)
(2.86544 -0.0973051 0)
(2.77058 -0.293127 0)
(2.68203 -0.444781 0)
(2.64422 -0.451491 0)
(2.62508 -0.479259 0)
(2.62145 -0.51764 0)
(2.62032 -0.527349 0)
(2.61585 -0.520642 0)
(2.61633 -0.502439 0)
(2.61425 -0.493218 0)
(2.61551 -0.498804 0)
(2.61433 -0.508514 0)
(2.61478 -0.513133 0)
(2.61539 -0.508612 0)
(2.61442 -0.493927 0)
(2.59418 -0.430816 0)
(2.51358 -0.248235 0)
(2.45462 -0.120084 0)
(2.4235 0.00916641 0)
(2.39673 0.00268772 0)
(2.39204 -0.00546804 0)
(2.39633 -0.00309285 0)
(2.39498 -0.00220496 0)
(2.39299 -0.00436887 0)
(2.39287 -0.0048691 0)
(2.39528 -0.00235495 0)
(2.39733 0.00174772 0)
(2.39692 0.00350114 0)
(2.39558 0.00384021 0)
(2.39412 0.00158911 0)
(2.39393 -0.000526335 0)
(2.3943 -0.00059813 0)
(2.39459 -0.000477078 0)
(2.39486 -0.000565347 0)
(2.39553 -0.00023563 0)
(2.39619 0.000198186 0)
(2.39624 0.000351206 0)
(2.39621 0.000569199 0)
(2.39601 0.000507405 0)
(2.39568 -0.000364327 0)
(2.39611 -0.00103576 0)
(2.39649 -0.000982299 0)
(2.9 -1.64663e-14 0)
(2.9 -7.26555e-15 0)
(2.9 -3.50005e-14 0)
(2.9 2.75952e-15 0)
(2.9 2.37722e-14 0)
(2.9 7.78458e-16 0)
(2.9 -1.60535e-14 0)
(2.9 1.15176e-14 0)
(2.9 -4.03626e-15 0)
(2.9 9.32e-15 0)
(2.9 -1.58786e-14 0)
(2.9 -9.05421e-12 0)
(2.9 -1.12022e-09 0)
(2.9 -1.63736e-07 0)
(2.9 -9.71302e-06 0)
(2.8998 -0.000455978 0)
(2.89658 -0.00761599 0)
(2.86394 -0.0832548 0)
(2.80992 -0.231785 0)
(2.67832 -0.479344 0)
(2.62981 -0.500478 0)
(2.61786 -0.480754 0)
(2.61632 -0.489373 0)
(2.61807 -0.514431 0)
(2.62172 -0.524387 0)
(2.61903 -0.517623 0)
(2.62022 -0.501717 0)
(2.61832 -0.493485 0)
(2.61702 -0.499 0)
(2.61376 -0.508751 0)
(2.61209 -0.511988 0)
(2.61281 -0.509823 0)
(2.61717 -0.505049 0)
(2.61838 -0.496362 0)
(2.59539 -0.436923 0)
(2.53538 -0.275763 0)
(2.4431 -0.0739148 0)
(2.42986 -0.0496275 0)
(2.40355 -0.0227832 0)
(2.39693 -0.00109116 0)
(2.39355 -0.00123979 0)
(2.39105 -0.00335974 0)
(2.39212 -0.00294248 0)
(2.39367 -0.00271988 0)
(2.39476 0.000351455 0)
(2.39471 0.00314985 0)
(2.39323 0.00405081 0)
(2.39118 0.00135596 0)
(2.3909 -0.000885878 0)
(2.39149 -0.00149839 0)
(2.39221 -0.0010031 0)
(2.39303 -0.000221102 0)
(2.3938 2.10531e-05 0)
(2.39396 9.78299e-05 0)
(2.39399 0.000174115 0)
(2.39384 0.000599453 0)
(2.39359 0.000564338 0)
(2.39343 -0.000700874 0)
(2.39391 -0.0014749 0)
(2.39443 -0.00135564 0)
(2.9 -2.19685e-14 0)
(2.9 -7.21086e-14 0)
(2.9 -5.70133e-14 0)
(2.9 -3.0307e-14 0)
(2.9 4.94661e-14 0)
(2.9 6.1233e-14 0)
(2.9 -1.98812e-14 0)
(2.9 -1.19501e-14 0)
(2.9 3.47919e-14 0)
(2.9 4.18127e-14 0)
(2.9 -8.08396e-13 0)
(2.9 -1.40787e-10 0)
(2.9 -3.66545e-08 0)
(2.9 -2.98054e-06 0)
(2.89991 -0.000180574 0)
(2.89804 -0.00415015 0)
(2.87475 -0.049915 0)
(2.79875 -0.202684 0)
(2.69977 -0.425608 0)
(2.64849 -0.533094 0)
(2.61851 -0.496048 0)
(2.61632 -0.479637 0)
(2.61623 -0.486725 0)
(2.6156 -0.509357 0)
(2.61916 -0.520136 0)
(2.61933 -0.514441 0)
(2.62143 -0.501019 0)
(2.62047 -0.493308 0)
(2.62086 -0.49832 0)
(2.61503 -0.508024 0)
(2.61206 -0.5113 0)
(2.61026 -0.510102 0)
(2.61579 -0.507683 0)
(2.61905 -0.50523 0)
(2.61877 -0.498215 0)
(2.60327 -0.455612 0)
(2.52867 -0.298172 0)
(2.48663 -0.151742 0)
(2.41742 -0.00497924 0)
(2.39425 -0.0069678 0)
(2.39264 -0.0039837 0)
(2.39443 0.000887718 0)
(2.39414 0.000185938 0)
(2.39418 -0.00242456 0)
(2.39483 -0.000982903 0)
(2.39525 0.00218949 0)
(2.39341 0.00314617 0)
(2.39098 0.000103942 0)
(2.39052 -0.00218649 0)
(2.39083 -0.00259453 0)
(2.39183 -0.0011345 0)
(2.39314 0.000461973 0)
(2.39359 0.000447068 0)
(2.39341 4.82287e-05 0)
(2.39345 0.000254811 0)
(2.39338 0.00104558 0)
(2.39308 0.000727303 0)
(2.39304 -0.000581945 0)
(2.39323 -0.000891024 0)
(2.39395 -0.000843831 0)
(2.9 9.56368e-15 0)
(2.9 -2.16508e-15 0)
(2.9 1.06866e-14 0)
(2.9 1.55465e-15 0)
(2.9 9.46869e-14 0)
(2.9 8.47553e-14 0)
(2.9 1.03931e-13 0)
(2.9 5.33665e-14 0)
(2.9 1.05383e-13 0)
(2.9 -1.13931e-13 0)
(2.9 -3.46569e-11 0)
(2.9 -1.05081e-08 0)
(2.9 -1.04538e-06 0)
(2.89996 -7.9574e-05 0)
(2.89894 -0.00244136 0)
(2.88671 -0.0271887 0)
(2.80318 -0.185269 0)
(2.69849 -0.343443 0)
(2.65901 -0.506071 0)
(2.62704 -0.512013 0)
(2.62279 -0.497763 0)
(2.61753 -0.481172 0)
(2.62088 -0.48611 0)
(2.61656 -0.507306 0)
(2.61495 -0.519294 0)
(2.61197 -0.514963 0)
(2.61694 -0.503528 0)
(2.62054 -0.497092 0)
(2.62357 -0.499793 0)
(2.61841 -0.505618 0)
(2.61387 -0.508477 0)
(2.61066 -0.509281 0)
(2.61361 -0.507403 0)
(2.6162 -0.506999 0)
(2.61868 -0.505719 0)
(2.61762 -0.500929 0)
(2.60082 -0.462227 0)
(2.54952 -0.321506 0)
(2.46577 -0.14538 0)
(2.44622 -0.0879848 0)
(2.41206 -0.0169321 0)
(2.40429 0.0107055 0)
(2.39672 0.00416215 0)
(2.39584 -0.00320305 0)
(2.39701 -0.0017084 0)
(2.39687 0.000941696 0)
(2.39429 0.000397848 0)
(2.39213 -0.00150457 0)
(2.39149 -0.00316545 0)
(2.39183 -0.00333671 0)
(2.3934 -0.00184541 0)
(2.39495 0.000248269 0)
(2.39453 0.00046732 0)
(2.39405 9.25762e-05 0)
(2.3941 0.000267292 0)
(2.39412 0.000843573 0)
(2.39361 0.000332167 0)
(2.39333 -0.000403497 0)
(2.39352 -0.000475821 0)
(2.39437 -0.000612073 0)
(2.9 6.86186e-15 0)
(2.9 2.96684e-14 0)
(2.9 7.99408e-14 0)
(2.9 4.29275e-14 0)
(2.9 2.7868e-14 0)
(2.9 2.56843e-14 0)
(2.9 2.24635e-13 0)
(2.9 2.20448e-13 0)
(2.9 2.61731e-14 0)
(2.9 -5.5601e-11 0)
(2.9 -1.1021e-08 0)
(2.9 -1.15868e-06 0)
(2.89998 -5.86983e-05 0)
(2.89927 -0.00188201 0)
(2.89125 -0.0218288 0)
(2.8286 -0.148441 0)
(2.72394 -0.306826 0)
(2.6228 -0.459869 0)
(2.6183 -0.546385 0)
(2.61204 -0.530242 0)
(2.61716 -0.501341 0)
(2.61876 -0.484346 0)
(2.62571 -0.486881 0)
(2.62326 -0.500922 0)
(2.61227 -0.515614 0)
(2.60739 -0.514652 0)
(2.61013 -0.50998 0)
(2.61601 -0.502283 0)
(2.62214 -0.50204 0)
(2.62163 -0.504171 0)
(2.61873 -0.505348 0)
(2.61489 -0.506306 0)
(2.61367 -0.507393 0)
(2.61404 -0.507339 0)
(2.61562 -0.507303 0)
(2.61659 -0.505995 0)
(2.61553 -0.502179 0)
(2.60486 -0.475141 0)
(2.54933 -0.353688 0)
(2.49121 -0.180572 0)
(2.42311 -0.0108939 0)
(2.40914 0.012493 0)
(2.39984 -0.00291135 0)
(2.40015 -0.00422568 0)
(2.40273 -0.00150582 0)
(2.39839 -0.000929223 0)
(2.39543 -0.000929029 0)
(2.39433 -0.00231689 0)
(2.39412 -0.00331125 0)
(2.3947 -0.00317308 0)
(2.39684 -0.00115495 0)
(2.39795 0.000225876 0)
(2.39692 0.000151178 0)
(2.39651 7.86477e-06 0)
(2.39596 0.000487079 0)
(2.39532 0.000564287 0)
(2.3946 0.0001675 0)
(2.39444 -0.000305943 0)
(2.39462 -0.000792462 0)
(2.39586 -0.000972271 0)
(2.9 -2.43654e-14 0)
(2.9 -2.23891e-14 0)
(2.9 3.76003e-14 0)
(2.9 7.04974e-15 0)
(2.9 1.65456e-14 0)
(2.9 4.60306e-14 0)
(2.9 1.55141e-13 0)
(2.9 5.26279e-14 0)
(2.9 -3.43465e-11 0)
(2.9 -8.97586e-09 0)
(2.9 -1.04228e-06 0)
(2.89998 -6.54712e-05 0)
(2.89938 -0.00173675 0)
(2.89114 -0.0251168 0)
(2.85406 -0.112883 0)
(2.73969 -0.340442 0)
(2.64182 -0.43215 0)
(2.60193 -0.516335 0)
(2.60856 -0.540468 0)
(2.61108 -0.527601 0)
(2.61383 -0.504941 0)
(2.62348 -0.4841 0)
(2.63009 -0.485039 0)
(2.62998 -0.495207 0)
(2.61744 -0.511377 0)
(2.60779 -0.514222 0)
(2.6065 -0.512784 0)
(2.61135 -0.508173 0)
(2.61847 -0.502861 0)
(2.62193 -0.502203 0)
(2.62086 -0.502469 0)
(2.61886 -0.503655 0)
(2.6163 -0.505792 0)
(2.61338 -0.507695 0)
(2.61328 -0.508509 0)
(2.61453 -0.507578 0)
(2.61563 -0.505321 0)
(2.61532 -0.503277 0)
(2.60538 -0.478159 0)
(2.56442 -0.372705 0)
(2.49001 -0.190035 0)
(2.45716 -0.0830492 0)
(2.42135 -0.0221113 0)
(2.41412 -0.00237798 0)
(2.40408 -0.00171003 0)
(2.39853 -0.00269161 0)
(2.39759 -0.00103321 0)
(2.39745 -0.00158483 0)
(2.39694 -0.00310797 0)
(2.39758 -0.00319979 0)
(2.40013 -0.000297176 0)
(2.40076 0.00102107 0)
(2.39997 0.000929037 0)
(2.39912 0.000725692 0)
(2.39749 0.000115892 0)
(2.39644 -0.000207889 0)
(2.39645 -6.56238e-05 0)
(2.3965 -0.000178 0)
(2.39662 -0.000520592 0)
(2.39785 -0.000341629 0)
(2.9 4.07967e-16 0)
(2.9 1.28924e-14 0)
(2.9 -3.61343e-14 0)
(2.9 -2.06383e-14 0)
(2.9 1.90222e-14 0)
(2.9 8.21386e-14 0)
(2.9 -3.21777e-14 0)
(2.9 -8.11103e-12 0)
(2.9 -2.88358e-09 0)
(2.9 -4.39764e-07 0)
(2.89998 -3.59747e-05 0)
(2.89949 -0.00119037 0)
(2.89128 -0.0226868 0)
(2.85584 -0.117602 0)
(2.75083 -0.347359 0)
(2.68446 -0.425351 0)
(2.62661 -0.470829 0)
(2.61131 -0.507013 0)
(2.60226 -0.537107 0)
(2.59858 -0.533116 0)
(2.60309 -0.512397 0)
(2.62315 -0.486806 0)
(2.63151 -0.484371 0)
(2.63223 -0.491159 0)
(2.62443 -0.505531 0)
(2.61134 -0.514055 0)
(2.60706 -0.513927 0)
(2.60837 -0.511493 0)
(2.61355 -0.504131 0)
(2.6198 -0.500406 0)
(2.62071 -0.500641 0)
(2.62034 -0.501644 0)
(2.61766 -0.504274 0)
(2.61387 -0.507809 0)
(2.61288 -0.508769 0)
(2.61297 -0.508368 0)
(2.61359 -0.50656 0)
(2.61513 -0.504938 0)
(2.61573 -0.503515 0)
(2.60858 -0.48335 0)
(2.57467 -0.394982 0)
(2.49529 -0.181484 0)
(2.44715 -0.0656067 0)
(2.42859 0.00916168 0)
(2.3956 -0.00446391 0)
(2.39614 -0.00468033 0)
(2.4011 -0.000583902 0)
(2.40072 -0.00100496 0)
(2.39883 -0.00369301 0)
(2.39891 -0.00310346 0)
(2.40151 0.000202503 0)
(2.40224 0.00189364 0)
(2.40194 0.00212147 0)
(2.4006 0.00134296 0)
(2.39797 -0.000497324 0)
(2.39729 -0.00122466 0)
(2.3979 -0.000618243 0)
(2.3981 -0.000205755 0)
(2.39818 -0.000293086 0)
(2.39917 7.87413e-05 0)
(2.9 1.48379e-14 0)
(2.9 1.77137e-14 0)
(2.9 -5.75864e-14 0)
(2.9 1.5379e-15 0)
(2.9 7.19195e-14 0)
(2.9 1.06706e-13 0)
(2.9 -8.42461e-13 0)
(2.9 -5.19963e-10 0)
(2.9 -1.12105e-07 0)
(2.89999 -1.2852e-05 0)
(2.89976 -0.00049757 0)
(2.89415 -0.0122014 0)
(2.85468 -0.101881 0)
(2.75175 -0.332185 0)
(2.69734 -0.450118 0)
(2.64354 -0.472437 0)
(2.6319 -0.484159 0)
(2.62133 -0.509815 0)
(2.6015 -0.535455 0)
(2.59642 -0.534149 0)
(2.597 -0.51846 0)
(2.61686 -0.493176 0)
(2.63257 -0.487624 0)
(2.63324 -0.491916 0)
(2.62876 -0.502179 0)
(2.61725 -0.51118 0)
(2.60881 -0.512619 0)
(2.60814 -0.511391 0)
(2.60999 -0.506855 0)
(2.61543 -0.50068 0)
(2.61837 -0.499993 0)
(2.61888 -0.50207 0)
(2.61787 -0.50332 0)
(2.61499 -0.5064 0)
(2.61385 -0.508573 0)
(2.61258 -0.508482 0)
(2.61238 -0.507137 0)
(2.6138 -0.505692 0)
(2.61545 -0.505241 0)
(2.61619 -0.503646 0)
(2.61115 -0.48756 0)
(2.58454 -0.417717 0)
(2.51255 -0.238991 0)
(2.46088 -0.104904 0)
(2.41973 -0.0342571 0)
(2.40824 -0.0126763 0)
(2.40599 -0.00210948 0)
(2.40161 -0.00367742 0)
(2.39982 -0.00484453 0)
(2.39957 -0.00279802 0)
(2.40131 0.000345732 0)
(2.40224 0.00154834 0)
(2.40248 0.00292544 0)
(2.40058 0.00199334 0)
(2.39734 -0.00114596 0)
(2.39677 -0.00220866 0)
(2.39735 -0.00196223 0)
(2.39801 -0.00101569 0)
(2.39886 -1.81102e-05 0)
(2.39943 0.000631072 0)
(2.9 3.18668e-14 0)
(2.9 1.31324e-14 0)
(2.9 4.36404e-15 0)
(2.9 2.32648e-14 0)
(2.9 2.38983e-14 0)
(2.9 -9.26869e-14 0)
(2.9 -1.18137e-10 0)
(2.9 -3.11474e-08 0)
(2.9 -3.89238e-06 0)
(2.89989 -0.000232733 0)
(2.89737 -0.00540246 0)
(2.86771 -0.0638927 0)
(2.77098 -0.240724 0)
(2.64651 -0.511185 0)
(2.63501 -0.513826 0)
(2.63352 -0.481289 0)
(2.63476 -0.480389 0)
(2.63834 -0.497403 0)
(2.61795 -0.522832 0)
(2.59919 -0.525484 0)
(2.59788 -0.51851 0)
(2.6072 -0.500001 0)
(2.62292 -0.489986 0)
(2.62957 -0.493785 0)
(2.62696 -0.500387 0)
(2.62153 -0.507717 0)
(2.61294 -0.510312 0)
(2.60979 -0.509739 0)
(2.61009 -0.507995 0)
(2.61228 -0.503749 0)
(2.61595 -0.501264 0)
(2.61768 -0.502325 0)
(2.61778 -0.503508 0)
(2.6168 -0.504857 0)
(2.61504 -0.506371 0)
(2.61366 -0.506433 0)
(2.61283 -0.506214 0)
(2.61348 -0.505979 0)
(2.61528 -0.505438 0)
(2.61653 -0.505167 0)
(2.61692 -0.504114 0)
(2.61354 -0.493805 0)
(2.59253 -0.440043 0)
(2.50982 -0.251287 0)
(2.4648 -0.117639 0)
(2.42574 0.00444874 0)
(2.39414 -0.0122487 0)
(2.39772 -0.00702869 0)
(2.39971 0.00037087 0)
(2.39865 -0.000143218 0)
(2.39952 -0.000943561 0)
(2.40126 0.00054342 0)
(2.40202 0.00342539 0)
(2.39896 0.0021127 0)
(2.39542 -0.00159461 0)
(2.39523 -0.0029992 0)
(2.39579 -0.00315259 0)
(2.39723 -0.00213924 0)
(2.39905 0.000291782 0)
(2.39919 0.00117717 0)
(2.9 2.44808e-14 0)
(2.9 -6.78712e-15 0)
(2.9 1.94498e-14 0)
(2.9 -1.42147e-14 0)
(2.9 -2.2722e-13 0)
(2.9 -7.00026e-11 0)
(2.9 -1.85688e-08 0)
(2.9 -1.9986e-06 0)
(2.89994 -0.000135149 0)
(2.89856 -0.0033168 0)
(2.88139 -0.0394996 0)
(2.80712 -0.184804 0)
(2.6482 -0.431295 0)
(2.60391 -0.546535 0)
(2.60756 -0.517946 0)
(2.62925 -0.484489 0)
(2.63588 -0.478805 0)
(2.64544 -0.489779 0)
(2.63292 -0.51278 0)
(2.60918 -0.519566 0)
(2.60248 -0.51633 0)
(2.60447 -0.510097 0)
(2.6135 -0.49919 0)
(2.62232 -0.497078 0)
(2.62313 -0.500896 0)
(2.62105 -0.503573 0)
(2.61656 -0.507298 0)
(2.61182 -0.50875 0)
(2.61105 -0.508518 0)
(2.6115 -0.506255 0)
(2.61361 -0.50395 0)
(2.61591 -0.503236 0)
(2.6172 -0.504124 0)
(2.61718 -0.504598 0)
(2.616 -0.505648 0)
(2.61513 -0.505955 0)
(2.61436 -0.506274 0)
(2.6145 -0.506303 0)
(2.61581 -0.505601 0)
(2.61706 -0.505016 0)
(2.61754 -0.505389 0)
(2.61762 -0.505299 0)
(2.61529 -0.499013 0)
(2.59485 -0.452435 0)
(2.53215 -0.288641 0)
(2.46164 -0.11652 0)
(2.44193 -0.0682215 0)
(2.41674 -0.0116332 0)
(2.40401 0.00823348 0)
(2.39359 0.00127282 0)
(2.39666 -0.00232305 0)
(2.40008 0.000140805 0)
(2.40038 0.00270954 0)
(2.39691 0.000754072 0)
(2.39423 -0.0021824 0)
(2.39411 -0.00338421 0)
(2.39498 -0.00359844 0)
(2.39734 -0.00177764 0)
(2.39964 0.00117014 0)
(2.39961 0.00182346 0)
(2.9 -2.26961e-14 0)
(2.9 -3.15687e-14 0)
(2.9 1.95765e-15 0)
(2.9 -1.51159e-13 0)
(2.9 -3.16632e-11 0)
(2.9 -9.91807e-09 0)
(2.9 -1.52115e-06 0)
(2.89996 -9.77468e-05 0)
(2.8989 -0.00296106 0)
(2.88684 -0.0319835 0)
(2.82322 -0.168795 0)
(2.72804 -0.322064 0)
(2.60528 -0.512525 0)
(2.58525 -0.559065 0)
(2.5862 -0.538571 0)
(2.61468 -0.499114 0)
(2.62628 -0.483576 0)
(2.64347 -0.489029 0)
(2.63788 -0.50253 0)
(2.61998 -0.512847 0)
(2.60575 -0.514528 0)
(2.6045 -0.512275 0)
(2.60847 -0.505364 0)
(2.61679 -0.49978 0)
(2.62025 -0.500675 0)
(2.61927 -0.502632 0)
(2.61769 -0.50362 0)
(2.61459 -0.507511 0)
(2.61302 -0.508855 0)
(2.61136 -0.507901 0)
(2.61223 -0.505344 0)
(2.61479 -0.504147 0)
(2.61622 -0.50515 0)
(2.61643 -0.505666 0)
(2.61633 -0.506227 0)
(2.61607 -0.506343 0)
(2.6159 -0.506086 0)
(2.61619 -0.50559 0)
(2.61687 -0.505313 0)
(2.61726 -0.505389 0)
(2.61783 -0.50576 0)
(2.61813 -0.506494 0)
(2.61805 -0.506523 0)
(2.61613 -0.501316 0)
(2.60136 -0.463865 0)
(2.53091 -0.303749 0)
(2.49077 -0.156127 0)
(2.42926 0.00634066 0)
(2.40653 0.00891437 0)
(2.39594 -0.00414144 0)
(2.39937 -0.00357863 0)
(2.40148 -0.000987207 0)
(2.39903 -0.000933018 0)
(2.39603 -0.00128225 0)
(2.39496 -0.00240782 0)
(2.39484 -0.00339246 0)
(2.39604 -0.00322992 0)
(2.3992 6.14698e-05 0)
(2.40134 0.00285716 0)
(2.40099 0.00274288 0)
(2.9 -7.29883e-15 0)
(2.9 -7.79824e-15 0)
(2.9 2.97772e-14 0)
(2.9 -5.99213e-12 0)
(2.9 -3.21053e-09 0)
(2.9 -6.05896e-07 0)
(2.89998 -5.66699e-05 0)
(2.89914 -0.00211633 0)
(2.88807 -0.032245 0)
(2.83193 -0.162506 0)
(2.74736 -0.322557 0)
(2.64614 -0.44939 0)
(2.61129 -0.537168 0)
(2.5901 -0.55442 0)
(2.58658 -0.543282 0)
(2.6025 -0.512667 0)
(2.61751 -0.491051 0)
(2.63578 -0.490544 0)
(2.63536 -0.497165 0)
(2.62528 -0.504915 0)
(2.61156 -0.511054 0)
(2.60808 -0.5113 0)
(2.60871 -0.50793 0)
(2.6132 -0.502973 0)
(2.61734 -0.500783 0)
(2.61824 -0.502542 0)
(2.6183 -0.504024 0)
(2.61659 -0.505363 0)
(2.61478 -0.505922 0)
(2.61287 -0.505911 0)
(2.61276 -0.505494 0)
(2.61487 -0.505041 0)
(2.61619 -0.505191 0)
(2.61651 -0.505132 0)
(2.6167 -0.504989 0)
(2.61692 -0.504883 0)
(2.61714 -0.505084 0)
(2.61741 -0.505347 0)
(2.61765 -0.505593 0)
(2.61792 -0.505835 0)
(2.61824 -0.506157 0)
(2.61843 -0.506767 0)
(2.61859 -0.506857 0)
(2.61858 -0.506696 0)
(2.6174 -0.502914 0)
(2.60302 -0.468121 0)
(2.55549 -0.338653 0)
(2.47822 -0.153078 0)
(2.46195 -0.070611 0)
(2.42194 -0.012062 0)
(2.41162 0.000996874 0)
(2.40144 -0.00265068 0)
(2.39772 -0.00452232 0)
(2.39768 -0.00198453 0)
(2.39804 -0.00217975 0)
(2.39799 -0.00389303 0)
(2.39945 -0.0029847 0)
(2.4025 0.00168064 0)
(2.40326 0.0036559 0)
(2.4027 0.00316315 0)
(2.9 2.5622e-14 0)
(2.9 1.98564e-14 0)
(2.9 -1.30462e-12 0)
(2.9 -7.08897e-10 0)
(2.9 -1.95376e-07 0)
(2.89999 -2.20071e-05 0)
(2.89953 -0.00100525 0)
(2.89076 -0.0220003 0)
(2.83977 -0.140745 0)
(2.72292 -0.389214 0)
(2.67188 -0.431612 0)
(2.63911 -0.483066 0)
(2.62656 -0.513979 0)
(2.60138 -0.537886 0)
(2.59475 -0.531469 0)
(2.59627 -0.513283 0)
(2.61051 -0.493863 0)
(2.62586 -0.491443 0)
(2.62885 -0.495694 0)
(2.62358 -0.500813 0)
(2.61532 -0.507129 0)
(2.61194 -0.509341 0)
(2.60957 -0.508205 0)
(2.61114 -0.504384 0)
(2.61402 -0.502462 0)
(2.61612 -0.503354 0)
(2.6168 -0.505799 0)
(2.61671 -0.506868 0)
(2.61595 -0.506565 0)
(2.61513 -0.505585 0)
(2.61521 -0.504893 0)
(2.61605 -0.505404 0)
(2.61645 -0.505848 0)
(2.61686 -0.505921 0)
(2.61708 -0.505782 0)
(2.6176 -0.505498 0)
(2.61807 -0.505458 0)
(2.61826 -0.505622 0)
(2.61849 -0.505903 0)
(2.61862 -0.506222 0)
(2.61863 -0.506526 0)
(2.61883 -0.506525 0)
(2.61896 -0.506451 0)
(2.61909 -0.50637 0)
(2.61921 -0.506256 0)
(2.61824 -0.50318 0)
(2.60813 -0.477103 0)
(2.5568 -0.357668 0)
(2.49869 -0.165205 0)
(2.45199 -0.0342266 0)
(2.42352 0.00721971 0)
(2.39634 -0.00839405 0)
(2.39754 -0.00715365 0)
(2.40296 0.000296663 0)
(2.40222 0.000277742 0)
(2.40126 -0.00292482 0)
(2.40266 -0.0010347 0)
(2.40479 0.00173562 0)
(2.40521 0.00342952 0)
(2.40462 0.00258442 0)
(2.9 3.27399e-14 0)
(2.9 -4.64857e-13 0)
(2.9 -2.96202e-10 0)
(2.9 -6.4771e-08 0)
(2.9 -9.49904e-06 0)
(2.8998 -0.000472024 0)
(2.89466 -0.0115282 0)
(2.85851 -0.0960929 0)
(2.71861 -0.364168 0)
(2.64532 -0.486949 0)
(2.63611 -0.47454 0)
(2.6403 -0.491804 0)
(2.63438 -0.509162 0)
(2.61726 -0.528171 0)
(2.60219 -0.525952 0)
(2.60068 -0.511081 0)
(2.60885 -0.499027 0)
(2.61717 -0.495317 0)
(2.62358 -0.49794 0)
(2.62132 -0.502241 0)
(2.61796 -0.504024 0)
(2.61468 -0.506138 0)
(2.61129 -0.507193 0)
(2.61027 -0.506487 0)
(2.61204 -0.504955 0)
(2.61484 -0.504299 0)
(2.61628 -0.504955 0)
(2.61671 -0.50531 0)
(2.61655 -0.505223 0)
(2.61655 -0.505391 0)
(2.61669 -0.505785 0)
(2.61683 -0.506274 0)
(2.61721 -0.506506 0)
(2.61752 -0.506414 0)
(2.61791 -0.505963 0)
(2.61842 -0.505752 0)
(2.61873 -0.505848 0)
(2.61893 -0.506037 0)
(2.61896 -0.506296 0)
(2.61896 -0.506363 0)
(2.61902 -0.506336 0)
(2.6191 -0.506198 0)
(2.61924 -0.506023 0)
(2.61931 -0.506003 0)
(2.61941 -0.506091 0)
(2.61941 -0.506175 0)
(2.61874 -0.504544 0)
(2.60963 -0.481708 0)
(2.57503 -0.387843 0)
(2.50732 -0.207095 0)
(2.46692 -0.102392 0)
(2.42252 -0.0329437 0)
(2.41186 -0.0039269 0)
(2.40554 0.000191436 0)
(2.40327 -0.00129674 0)
(2.40354 -0.00112841 0)
(2.40445 -0.000195556 0)
(2.40539 0.000521505 0)
(2.40659 0.00214972 0)
(2.40594 0.00114346 0)
(2.9 2.56064e-14 0)
(2.9 -8.52063e-11 0)
(2.9 -3.63589e-08 0)
(2.9 -4.4127e-06 0)
(2.89989 -0.000278363 0)
(2.89711 -0.00658149 0)
(2.86822 -0.0735478 0)
(2.7864 -0.23935 0)
(2.62407 -0.524162 0)
(2.58874 -0.538005 0)
(2.6173 -0.50331 0)
(2.62819 -0.493771 0)
(2.63744 -0.497543 0)
(2.63371 -0.513751 0)
(2.61389 -0.516436 0)
(2.60598 -0.508131 0)
(2.60841 -0.502059 0)
(2.61345 -0.498762 0)
(2.61791 -0.498891 0)
(2.61876 -0.502838 0)
(2.6173 -0.505324 0)
(2.61568 -0.50564 0)
(2.61388 -0.505364 0)
(2.61265 -0.504961 0)
(2.61373 -0.504181 0)
(2.61563 -0.505047 0)
(2.61633 -0.505868 0)
(2.61686 -0.506038 0)
(2.61714 -0.505981 0)
(2.61756 -0.506068 0)
(2.61786 -0.506372 0)
(2.61804 -0.506686 0)
(2.61823 -0.50676 0)
(2.61838 -0.506563 0)
(2.6186 -0.506173 0)
(2.61892 -0.506036 0)
(2.61918 -0.506129 0)
(2.61922 -0.506275 0)
(2.61922 -0.506343 0)
(2.61922 -0.506313 0)
(2.61927 -0.506145 0)
(2.61929 -0.506011 0)
(2.6193 -0.505969 0)
(2.61933 -0.50597 0)
(2.61937 -0.506047 0)
(2.61936 -0.506307 0)
(2.61935 -0.506464 0)
(2.61886 -0.505311 0)
(2.61304 -0.490005 0)
(2.58557 -0.41809 0)
(2.50652 -0.220284 0)
(2.45487 -0.084878 0)
(2.42086 0.0129695 0)
(2.40138 -0.00798523 0)
(2.40603 -0.00288482 0)