/*--------------------------------*- C++ -*----------------------------------*\
  =========                 |
  \\      /  F ield         | OpenFOAM: The Open Source CFD Toolbox
   \\    /   O peration     | Website:  https://openfoam.org
    \\  /    A nd           | Version:  12
     \\/     M anipulation  |
\*---------------------------------------------------------------------------*/
FoamFile
{
    format      ascii;
    class       volScalarField;
    location    "25.8";
    object      p;
}
// * * * * * * * * * * * * * * * * * * * * * * * * * * * * * * * * * * * * * //

dimensions      [1 -1 -2 0 0 0 0];

internalField   nonuniform List<scalar> 
9801
(
0.663423
0.66436
0.654862
0.642437
0.63782
0.639828
0.647859
0.670032
0.698412
0.71
0.712922
0.713325
0.7015
0.684131
0.680522
0.682324
0.685305
0.691078
0.716994
0.752801
0.763521
0.765003
0.762977
0.753603
0.740747
0.737119
0.738972
0.74258
0.748968
0.760168
0.780252
0.800845
0.812007
0.817026
0.819545
0.814911
0.805458
0.803557
0.805743
0.809223
0.813155
0.818785
0.829225
0.851011
0.872848
0.884082
0.889956
0.893971
0.893125
0.88456
0.879415
0.879981
0.883052
0.88757
0.894183
0.914167
0.947013
0.966257
0.97547
0.981665
0.986231
0.975704
0.958685
0.955068
0.958724
0.965524
0.975778
1.00444
1.04589
1.07082
1.08298
1.09131
1.09548
1.08386
1.05825
1.04958
1.05543
1.06674
1.09058
1.14806
1.19605
1.22124
1.23793
1.25184
1.25857
1.23267
1.19701
1.19287
1.21159
1.24783
1.33962
1.44
1.50593
1.56188
1.62089
1.65563
1.60546
3.07504
21.0893
0.654962
0.664499
0.664298
0.66254
0.660878
0.664026
0.668558
0.671191
0.68083
0.699246
0.709686
0.711998
0.706204
0.698393
0.695008
0.695759
0.698418
0.707517
0.721587
0.740446
0.756406
0.764525
0.768651
0.764946
0.751946
0.748187
0.749688
0.75276
0.756671
0.761945
0.777231
0.802107
0.81654
0.82305
0.827098
0.828007
0.818074
0.810365
0.811415
0.815065
0.818897
0.823397
0.831025
0.853102
0.876298
0.888183
0.894658
0.899511
0.901599
0.89053
0.880799
0.881279
0.885623
0.891266
0.897903
0.917387
0.949975
0.969396
0.978943
0.985605
0.990054
0.979524
0.961236
0.957389
0.961922
0.968873
0.978866
1.0073
1.04913
1.0727
1.08451
1.09345
1.10103
1.08938
1.06269
1.05425
1.06107
1.07235
1.09201
1.14057
1.18966
1.21829
1.23822
1.256
1.26821
1.24077
1.20469
1.20035
1.22001
1.24947
1.31098
1.39708
1.46362
1.52126
1.5747
1.59613
1.52102
2.85747
21.3343
0.643471
0.648968
0.65315
0.656751
0.66568
0.681445
0.689999
0.692173
0.692265
0.696771
0.701693
0.699134
0.695453
0.696565
0.699045
0.702441
0.710594
0.724302
0.734577
0.741788
0.751388
0.759276
0.763682
0.762406
0.7565
0.755768
0.758535
0.761982
0.76551
0.769198
0.779314
0.80057
0.815114
0.822441
0.827452
0.831361
0.828233
0.820959
0.819168
0.821495
0.824839
0.828694
0.83397
0.85251
0.875889
0.88867
0.895747
0.901211
0.904706
0.895277
0.884017
0.883615
0.888038
0.894165
0.901272
0.920523
0.952109
0.970594
0.979941
0.986762
0.991428
0.981374
0.963932
0.960304
0.965451
0.973302
0.982785
1.00708
1.0459
1.06981
1.08268
1.0926
1.10095
1.09413
1.06873
1.05801
1.06377
1.07559
1.09031
1.12942
1.18773
1.22311
1.2427
1.25922
1.27043
1.25055
1.2149
1.20316
1.21742
1.24512
1.28739
1.37059
1.45024
1.51028
1.56575
1.59012
1.52037
2.79929
21.3303
0.627219
0.627456
0.640227
0.658973
0.681037
0.701138
0.71016
0.714666
0.715295
0.701587
0.684879
0.682909
0.687799
0.696971
0.706256
0.714294
0.725337
0.736933
0.742475
0.74468
0.745968
0.750536
0.757816
0.7634
0.767035
0.767097
0.768876
0.770324
0.770778
0.772651
0.777129
0.794007
0.814626
0.826472
0.833562
0.839082
0.841898
0.833393
0.825154
0.823185
0.824877
0.828977
0.83449
0.850966
0.877185
0.892605
0.900516
0.906361
0.910638
0.902226
0.888081
0.886278
0.890652
0.89694
0.905008
0.924032
0.953672
0.971901
0.981376
0.988424
0.99404
0.987893
0.971128
0.966035
0.970319
0.977714
0.986411
1.00409
1.04131
1.06915
1.08379
1.09434
1.10352
1.10491
1.08264
1.06479
1.06674
1.07811
1.09202
1.11789
1.17322
1.21663
1.23913
1.25631
1.27221
1.26903
1.23769
1.21382
1.21358
1.23757
1.27121
1.32803
1.40251
1.46439
1.51964
1.55533
1.529
2.90479
21.4304
0.626828
0.624428
0.630824
0.654964
0.690986
0.711679
0.720145
0.724139
0.719456
0.698226
0.685056
0.685064
0.688637
0.696946
0.710464
0.724527
0.735101
0.741199
0.743984
0.74503
0.747743
0.753768
0.760666
0.76714
0.773234
0.778077
0.77643
0.771692
0.770285
0.772699
0.777212
0.792997
0.81802
0.832022
0.839083
0.8442
0.847893
0.83993
0.825401
0.822146
0.825216
0.830361
0.836875
0.852732
0.880206
0.897
0.904774
0.910214
0.913802
0.906743
0.892218
0.889506
0.893929
0.899963
0.90673
0.921587
0.949877
0.970664
0.981867
0.9899
0.996908
0.998094
0.983044
0.971008
0.972083
0.978635
0.986991
0.998897
1.03118
1.06564
1.0842
1.09619
1.10687
1.11524
1.10143
1.07455
1.06681
1.07622
1.09013
1.1083
1.15157
1.20701
1.24008
1.2602
1.27836
1.28695
1.26705
1.2381
1.22297
1.22952
1.25717
1.29748
1.36163
1.42599
1.4758
1.51678
1.51856
2.99262
21.5515
0.636256
0.635344
0.639514
0.652067
0.686821
0.713269
0.720403
0.719761
0.711567
0.702397
0.696495
0.695987
0.699084
0.704204
0.71218
0.723942
0.733865
0.739654
0.743779
0.748841
0.756024
0.763134
0.768823
0.773656
0.778161
0.777477
0.772708
0.770225
0.771664
0.775399
0.78066
0.797695
0.821184
0.834115
0.840792
0.845203
0.847937
0.84129
0.827581
0.8249
0.828724
0.833984
0.840462
0.85534
0.882078
0.899738
0.907922
0.913241
0.917127
0.914373
0.900524
0.893433
0.896164
0.901691
0.907905
0.917889
0.944058
0.97051
0.985163
0.994601
1.00229
1.00844
1.00089
0.980824
0.972215
0.976233
0.98446
0.994725
1.01986
1.06117
1.08704
1.10045
1.11085
1.12085
1.11873
1.09136
1.07286
1.07239
1.08462
1.10025
1.12833
1.18346
1.23134
1.26013
1.28123
1.29824
1.29409
1.26523
1.24164
1.23476
1.24608
1.27374
1.31733
1.37773
1.42542
1.46144
1.4821
3.0922
21.6725
0.65068
0.651885
0.657223
0.663526
0.675396
0.695439
0.707507
0.710282
0.711194
0.713785
0.714926
0.713122
0.713986
0.71591
0.717204
0.717696
0.720925
0.730346
0.745239
0.758635
0.767912
0.774314
0.779235
0.783365
0.782564
0.771514
0.766753
0.769041
0.77373
0.779026
0.787336
0.80578
0.823734
0.833567
0.839453
0.843545
0.84638
0.842264
0.832641
0.830464
0.833859
0.838845
0.844311
0.855953
0.879942
0.898485
0.908061
0.914372
0.919632
0.922453
0.913313
0.900855
0.897756
0.90148
0.907385
0.914912
0.935002
0.96692
0.987185
0.998192
1.00617
1.01318
1.01439
0.993938
0.976639
0.974302
0.98171
0.991556
1.00921
1.04965
1.0864
1.10463
1.11551
1.12543
1.13074
1.11203
1.08494
1.07463
1.07903
1.09217
1.11082
1.15081
1.20836
1.25092
1.27696
1.29747
1.31012
1.29617
1.26983
1.25208
1.2488
1.26009
1.28664
1.33202
1.38305
1.41888
1.44123
3.16212
21.7566
0.669952
0.674183
0.674204
0.674576
0.670536
0.670767
0.682183
0.701241
0.7165
0.726056
0.732108
0.733621
0.729624
0.723982
0.715284
0.710383
0.71212
0.719519
0.741518
0.766077
0.779192
0.785639
0.789757
0.792032
0.784488
0.768842
0.764453
0.767758
0.773301
0.781297
0.793787
0.812101
0.825715
0.832838
0.837705
0.842228
0.846714
0.84685
0.838614
0.835236
0.83798
0.842464
0.84744
0.854918
0.875077
0.89577
0.90776
0.915947
0.922606
0.928324
0.927224
0.911673
0.902197
0.90214
0.907114
0.913909
0.927414
0.959893
0.987522
1.00067
1.00864
1.01548
1.02101
1.00948
0.985362
0.977827
0.982514
0.991266
1.0025
1.03116
1.07609
1.1044
1.11849
1.12871
1.13767
1.13328
1.1056
1.08621
1.08288
1.08975
1.10249
1.12168
1.16628
1.22062
1.25899
1.28509
1.30652
1.31652
1.30487
1.28093
1.2619
1.25781
1.26801
1.29326
1.33783
1.3809
1.40759
3.21976
21.8072
0.683847
0.691366
0.687919
0.67413
0.663952
0.66346
0.667681
0.690335
0.72235
0.737979
0.744094
0.747956
0.745407
0.727978
0.71084
0.708
0.710499
0.714973
0.73352
0.768011
0.785857
0.792036
0.79613
0.797002
0.787587
0.773863
0.768928
0.770547
0.774695
0.780535
0.7924
0.811306
0.82655
0.834571
0.840282
0.846003
0.851005
0.854631
0.84854
0.841255
0.840699
0.843357
0.847297
0.852562
0.868014
0.893108
0.908977
0.918085
0.925122
0.931286
0.935866
0.925751
0.909097
0.905038
0.908211
0.914162
0.92261
0.94814
0.982941
1.00106
1.00998
1.01714
1.02442
1.02418
1.00256
0.987015
0.985458
0.991248
0.999414
1.01263
1.05088
1.09458
1.118
1.13131
1.1424
1.15135
1.13875
1.11019
1.09461
1.09143
1.09601
1.10801
1.13096
1.17881
1.23098
1.26875
1.29561
1.31712
1.32272
1.31323
1.29113
1.26904
1.26062
1.26719
1.28951
1.33499
1.37162
3.27928
21.8642
0.689114
0.695543
0.683897
0.668762
0.664753
0.665902
0.671389
0.696037
0.728313
0.743291
0.749964
0.75473
0.75001
0.72619
0.711886
0.711822
0.71474
0.719083
0.732632
0.765324
0.787209
0.79461
0.798269
0.798463
0.792072
0.781058
0.775113
0.775737
0.778693
0.782417
0.787437
0.801921
0.824384
0.839203
0.847365
0.852836
0.857621
0.861905
0.859502
0.848231
0.841929
0.841698
0.84493
0.849939
0.860993
0.888562
0.910795
0.92163
0.928598
0.934641
0.94022
0.938829
0.920432
0.909623
0.909222
0.913606
0.920061
0.934616
0.970994
0.999588
1.01285
1.02139
1.02907
1.03526
1.02417
0.99996
0.989307
0.988404
0.994322
1.00345
1.02436
1.07228
1.11305
1.13416
1.14808
1.15997
1.16562
1.14312
1.11104
1.09622
1.0961
1.1039
1.11729
1.14122
1.18842
1.23823
1.27487
1.30138
1.32173
1.32573
1.3179
1.29603
1.26944
1.25523
1.25597
1.27889
1.32434
3.33558
21.9268
0.688425
0.68322
0.669703
0.665397
0.667041
0.670912
0.686229
0.715579
0.734653
0.744967
0.75173
0.7542
0.741334
0.723431
0.717519
0.718061
0.721101
0.725872
0.738322
0.764158
0.784602
0.793101
0.796658
0.797678
0.797064
0.792002
0.784945
0.782033
0.781753
0.783459
0.786965
0.793419
0.815404
0.840758
0.853566
0.859749
0.864051
0.868294
0.869256
0.856418
0.843934
0.840254
0.842255
0.847118
0.855311
0.880026
0.910302
0.925588
0.933362
0.939314
0.944867
0.948156
0.934105
0.91491
0.909426
0.911897
0.918167
0.927082
0.954567
0.994526
1.01673
1.02736
1.03455
1.04098
1.04057
1.0165
0.993932
0.988012
0.991412
1.00001
1.0111
1.04015
1.09294
1.1308
1.1495
1.16125
1.1705
1.17218
1.14937
1.12035
1.10696
1.10587
1.11188
1.12488
1.1509
1.1986
1.24602
1.28021
1.3044
1.32239
1.32449
1.31753
1.29424
1.26168
1.24065
1.24153
1.26449
3.368
21.9941
0.678117
0.663912
0.66309
0.665799
0.66973
0.680827
0.711584
0.733034
0.741645
0.747461
0.750138
0.740995
0.728626
0.723651
0.723536
0.726088
0.731197
0.738804
0.747321
0.761782
0.778346
0.78811
0.793439
0.797525
0.801527
0.803658
0.796526
0.787543
0.784463
0.785373
0.788112
0.792204
0.803856
0.834466
0.85583
0.864234
0.869139
0.873235
0.875762
0.867666
0.849348
0.841281
0.84159
0.845929
0.85202
0.869357
0.905033
0.928533
0.938203
0.944016
0.948603
0.951523
0.944774
0.922576
0.911447
0.912321
0.918028
0.92602
0.941113
0.979778
1.01511
1.03025
1.03738
1.04289
1.04847
1.04131
1.01355
0.998131
0.997239
1.00142
1.00783
1.01771
1.04982
1.10417
1.13939
1.15738
1.17127
1.1836
1.18583
1.16041
1.12908
1.11312
1.11169
1.11943
1.13384
1.16175
1.20899
1.25224
1.2825
1.30422
1.31925
1.3204
1.3119
1.28548
1.2489
1.22379
1.20657
3.36041
22.0886
0.666271
0.654485
0.656686
0.662542
0.672258
0.700904
0.730771
0.743211
0.748087
0.748363
0.737497
0.727856
0.726114
0.727331
0.730651
0.737217
0.744927
0.749148
0.751511
0.75536
0.768594
0.782614
0.792041
0.800196
0.806167
0.810736
0.811144
0.799284
0.790083
0.787994
0.789029
0.792185
0.798096
0.822597
0.853517
0.866797
0.872962
0.87758
0.881368
0.87973
0.859479
0.844723
0.8442
0.848372
0.853842
0.863365
0.893526
0.926671
0.940801
0.946854
0.950128
0.953173
0.953787
0.938893
0.92151
0.919186
0.923882
0.928983
0.935506
0.953597
0.997042
1.02596
1.03811
1.04673
1.05542
1.06255
1.04909
1.02075
1.00655
1.00187
1.00229
1.00879
1.02064
1.0585
1.11728
1.15641
1.1754
1.18786
1.19604
1.19275
1.16871
1.13844
1.12203
1.12063
1.1281
1.14285
1.17256
1.21917
1.258
1.28397
1.30263
1.31267
1.31242
1.30232
1.27093
1.22817
1.17827
3.30651
22.2003
0.664086
0.656401
0.658335
0.666138
0.687426
0.715841
0.734656
0.744262
0.745475
0.73555
0.728577
0.729499
0.731257
0.735117
0.742659
0.750205
0.754758
0.751992
0.748025
0.748955
0.757015
0.777555
0.794776
0.804816
0.811415
0.816545
0.820951
0.815818
0.797863
0.788695
0.78843
0.79184
0.796985
0.813723
0.848054
0.868397
0.8762
0.880754
0.88375
0.883944
0.87272
0.853885
0.849887
0.854211
0.861071
0.867624
0.880066
0.913178
0.936988
0.945655
0.950578
0.956685
0.962908
0.962048
0.942613
0.929325
0.926335
0.926738
0.930306
0.937606
0.965415
1.01209
1.03925
1.05326
1.0638
1.07216
1.07577
1.0532
1.02014
1.00458
1.00288
1.00658
1.01418
1.02691
1.06797
1.12809
1.16482
1.18288
1.1952
1.2021
1.19884
1.17731
1.14842
1.13162
1.12984
1.13673
1.15088
1.18132
1.22691
1.26185
1.28427
1.29969
1.3046
1.30391
1.28862
1.24563
1.17982
3.21989
22.3186
0.667838
0.662944
0.669114
0.687191
0.704349
0.717038
0.727573
0.731294
0.727873
0.725103
0.728768
0.736516
0.744832
0.751798
0.756249
0.758464
0.755085
0.74659
0.742052
0.743694
0.749474
0.771545
0.797645
0.810655
0.817376
0.822202
0.826759
0.826177
0.805806
0.790496
0.790473
0.794388
0.799655
0.811047
0.841115
0.867173
0.877298
0.881628
0.883461
0.886112
0.886172
0.872624
0.862853
0.864106
0.867992
0.870011
0.874186
0.888821
0.922715
0.94421
0.95516
0.963644
0.971041
0.976765
0.96876
0.943597
0.928637
0.924427
0.92565
0.931376
0.942069
0.98026
1.03037
1.05665
1.06781
1.07511
1.08246
1.08301
1.05428
1.02272
1.01073
1.00987
1.01313
1.02046
1.03517
1.07634
1.1319
1.16734
1.18597
1.19805
1.20472
1.20394
1.18831
1.16142
1.14156
1.13631
1.14163
1.15491
1.18691
1.23181
1.26394
1.28362
1.29422
1.29633
1.29361
1.26447
1.2018
3.13095
22.4213
0.678742
0.682762
0.695377
0.706425
0.711297
0.712103
0.707424
0.708479
0.7167
0.727167
0.738369
0.751368
0.761535
0.767077
0.769439
0.763326
0.746822
0.737536
0.737918
0.74185
0.748682
0.770109
0.800427
0.816055
0.822645
0.827091
0.829432
0.824895
0.809707
0.796891
0.795725
0.799714
0.806781
0.814798
0.831349
0.858377
0.873624
0.879728
0.884243
0.891033
0.896686
0.896634
0.882234
0.873207
0.870132
0.868193
0.869244
0.874928
0.899238
0.938314
0.960457
0.971857
0.979436
0.985444
0.987591
0.966377
0.937077
0.925952
0.926526
0.931187
0.938261
0.951415
0.995183
1.04316
1.06456
1.07501
1.0834
1.09122
1.08869
1.05936
1.03065
1.0191
1.0185
1.02261
1.02897
1.03941
1.07457
1.12927
1.16685
1.18764
1.20175
1.21093
1.21319
1.19868
1.16855
1.1454
1.13875
1.14362
1.15696
1.19025
1.23456
1.26409
1.28066
1.28605
1.28762
1.27441
1.23356
3.07036
22.5115
0.695456
0.70953
0.714156
0.716781
0.711644
0.6951
0.689283
0.692264
0.706139
0.732616
0.755414
0.768836
0.775052
0.778584
0.779177
0.76276
0.739274
0.734108
0.736543
0.740876
0.749789
0.776061
0.805135
0.819333
0.825839
0.827716
0.825079
0.823621
0.818278
0.809247
0.807432
0.81121
0.815786
0.817898
0.821937
0.839318
0.865609
0.880251
0.890466
0.899706
0.90731
0.912168
0.905545
0.88427
0.869398
0.863526
0.864839
0.870328
0.882426
0.921073
0.960702
0.977559
0.98519
0.990624
0.995273
0.990342
0.958469
0.935698
0.931591
0.934433
0.93889
0.945318
0.959835
1.00567
1.05136
1.07298
1.08375
1.09222
1.10062
1.10037
1.07559
1.04567
1.03033
1.02527
1.02469
1.03003
1.04274
1.08048
1.13603
1.17502
1.19561
1.20839
1.21549
1.21608
1.20184
1.17261
1.14886
1.14105
1.14464
1.15738
1.19162
1.23456
1.26115
1.27307
1.27635
1.27231
1.25932
3.05748
22.599
0.71678
0.729502
0.729615
0.72101
0.698002
0.683808
0.68325
0.686945
0.698815
0.73516
0.769102
0.781227
0.786215
0.78842
0.782003
0.756889
0.740433
0.737493
0.739865
0.745043
0.757179
0.779599
0.805118
0.818531
0.822983
0.821683
0.823075
0.827719
0.830826
0.82619
0.819799
0.818189
0.816939
0.815441
0.817181
0.824335
0.851616
0.882803
0.899868
0.909998
0.915801
0.920477
0.920594
0.897634
0.871218
0.86324
0.864773
0.869802
0.876985
0.898391
0.946054
0.976429
0.986217
0.990921
0.994554
0.996667
0.988518
0.962621
0.945817
0.942055
0.943906
0.947111
0.951869
0.963687
1.00634
1.05409
1.07977
1.09485
1.10709
1.11603
1.11334
1.08612
1.05105
1.0315
1.02759
1.03195
1.0413
1.05436
1.08932
1.14142
1.17639
1.19457
1.20612
1.21444
1.21875
1.20645
1.17661
1.15017
1.14105
1.14355
1.15473
1.19006
1.23177
1.25516
1.26393
1.26319
1.27279
3.09221
22.6919
0.73157
0.742209
0.739915
0.714903
0.686513
0.680263
0.682258
0.686065
0.698734
0.741796
0.775458
0.786037
0.790927
0.791241
0.77573
0.757951
0.747062
0.745377
0.749545
0.758695
0.766753
0.773985
0.790622
0.807976
0.816366
0.820936
0.826902
0.834864
0.841426
0.843434
0.833335
0.821067
0.813266
0.811379
0.814618
0.820186
0.837376
0.877862
0.905421
0.91573
0.92128
0.924798
0.923983
0.909785
0.881404
0.869027
0.870631
0.877524
0.884898
0.89174
0.914464
0.95745
0.980648
0.988928
0.99407
1.00032
1.00676
1.00053
0.974566
0.956038
0.949379
0.947634
0.949542
0.954702
0.967346
1.01036
1.06386
1.09347
1.10643
1.11385
1.11779
1.11823
1.09823
1.06434
1.04491
1.04067
1.04299
1.04872
1.06023
1.09319
1.14233
1.17569
1.19456
1.20877
1.21937
1.22237
1.20997
1.17724
1.14835
1.13778
1.13871
1.14874
1.18726
1.22881
1.24896
1.25131
1.27579
3.16071
22.7999
0.740625
0.749562
0.737548
0.703644
0.685273
0.683139
0.685144
0.689974
0.709821
0.748543
0.775773
0.786315
0.788562
0.779474
0.772219
0.766706
0.761433
0.760771
0.764595
0.769843
0.772351
0.77072
0.773168
0.788072
0.810732
0.825551
0.836282
0.844324
0.849854
0.853753
0.847834
0.826514
0.813634
0.811896
0.815362
0.820908
0.831022
0.862529
0.900588
0.915232
0.919686
0.919474
0.920013
0.919535
0.906206
0.888664
0.883924
0.885687
0.88765
0.890109
0.894901
0.917722
0.959009
0.983762
0.996692
1.00656
1.01463
1.02057
1.01233
0.98321
0.960294
0.952222
0.953129
0.956652
0.961503
0.970454
1.00867
1.06319
1.09334
1.10707
1.11776
1.12654
1.12857
1.11122
1.07649
1.05253
1.0444
1.04542
1.05163
1.06323
1.09828
1.14833
1.1816
1.20109
1.21425
1.22139
1.22326
1.21139
1.17678
1.14475
1.13155
1.13061
1.14187
1.18505
1.22427
1.23682
1.26945
3.24859
22.9238
0.74561
0.749693
0.721711
0.697736
0.689682
0.688994
0.692992
0.706027
0.724935
0.746221
0.764881
0.772759
0.771929
0.769338
0.77258
0.777538
0.781758
0.780278
0.776775
0.774325
0.769578
0.765227
0.766262
0.773198
0.798802
0.828818
0.844268
0.851657
0.855546
0.858427
0.856211
0.837104
0.81955
0.817549
0.82235
0.828708
0.833476
0.843678
0.876648
0.90337
0.912316
0.916619
0.921664
0.928236
0.932019
0.919124
0.900526
0.891901
0.888185
0.886196
0.887643
0.892948
0.916671
0.962956
0.995043
1.00971
1.01766
1.02498
1.0316
1.02427
0.993579
0.969384
0.960943
0.958737
0.959428
0.964241
0.974639
1.01215
1.06914
1.10464
1.11948
1.12623
1.13172
1.13437
1.11884
1.0856
1.06071
1.0506
1.04997
1.05607
1.06814
1.10379
1.15348
1.18514
1.20293
1.21429
1.22135
1.22576
1.21358
1.17551
1.13894
1.12263
1.12056
1.13426
1.18034
1.21106
1.2533
3.34469
23.0469
0.745537
0.733544
0.709634
0.700919
0.698303
0.701507
0.713265
0.726011
0.732012
0.736411
0.743665
0.755402
0.764582
0.771261
0.779493
0.789372
0.796506
0.798918
0.791162
0.776404
0.764439
0.760253
0.762307
0.766915
0.782928
0.821988
0.847204
0.856124
0.861043
0.864354
0.864703
0.855153
0.836658
0.828591
0.829284
0.831579
0.833224
0.835697
0.846486
0.880479
0.907534
0.920386
0.929873
0.93831
0.944538
0.945309
0.927257
0.903681
0.890186
0.885093
0.884453
0.887349
0.893278
0.918895
0.970991
1.00464
1.01918
1.02886
1.03688
1.04094
1.03009
0.998849
0.972272
0.962799
0.963653
0.96895
0.977429
0.985533
1.01347
1.06707
1.1025
1.1175
1.12633
1.13378
1.13819
1.12938
1.0985
1.07051
1.05697
1.05326
1.05562
1.06724
1.10639
1.15632
1.18837
1.20731
1.21761
1.22446
1.2276
1.2125
1.17135
1.13011
1.11113
1.10787
1.12616
1.16949
1.22484
3.43498
23.1427
0.731801
0.715059
0.709705
0.709242
0.712827
0.722692
0.732874
0.737995
0.736664
0.726667
0.724378
0.733146
0.755462
0.775429
0.790206
0.800326
0.80618
0.809679
0.806025
0.783382
0.763683
0.759516
0.762052
0.766123
0.77339
0.804166
0.841694
0.856623
0.862201
0.866119
0.870481
0.873106
0.861692
0.842683
0.833805
0.830886
0.82947
0.830504
0.834826
0.850044
0.889047
0.920691
0.936754
0.946187
0.95278
0.95779
0.954258
0.926722
0.899296
0.886978
0.88524
0.88804
0.892878
0.900481
0.928866
0.981688
1.0156
1.02888
1.03479
1.0366
1.04112
1.03985
1.0151
0.988321
0.978267
0.977385
0.978672
0.980994
0.986542
1.00951
1.06268
1.10358
1.1222
1.13305
1.14306
1.1486
1.13899
1.10489
1.07144
1.05385
1.04974
1.05439
1.06709
1.10904
1.16255
1.19553
1.21134
1.21824
1.22362
1.22477
1.20864
1.16634
1.12112
1.09796
1.09436
1.11602
1.18482
3.49897
23.195
0.7141
0.711475
0.715562
0.724836
0.736888
0.744141
0.747344
0.745875
0.731418
0.716469
0.714387
0.718892
0.740468
0.776728
0.799672
0.810197
0.815258
0.818342
0.814146
0.79091
0.76815
0.762808
0.765002
0.769264
0.77575
0.788621
0.823669
0.852967
0.864655
0.870419
0.875339
0.879568
0.880418
0.865236
0.844092
0.832934
0.829404
0.82995
0.833482
0.838851
0.857135
0.902113
0.934846
0.947383
0.952176
0.955342
0.958816
0.955862
0.92853
0.902533
0.893917
0.895641
0.900142
0.904582
0.909542
0.929328
0.976244
1.0108
1.02644
1.03799
1.04794
1.05488
1.05365
1.03057
0.999199
0.981555
0.976038
0.976798
0.980652
0.98779
1.01295
1.0693
1.11158
1.13042
1.13969
1.14683
1.14983
1.13857
1.10702
1.07433
1.05745
1.05417
1.05894
1.07008
1.11048
1.16285
1.19326
1.20704
1.2146
1.2205
1.22106
1.20685
1.16417
1.11251
1.08319
1.07747
1.13421
3.52285
23.2223
0.706128
0.716035
0.733429
0.74939
0.75841
0.761892
0.759973
0.744547
0.719919
0.710247
0.711248
0.715111
0.728851
0.772253
0.805638
0.817137
0.822621
0.825912
0.822153
0.800568
0.777074
0.769293
0.770901
0.776106
0.782406
0.788688
0.801457
0.834896
0.860839
0.87101
0.874793
0.876653
0.880841
0.88377
0.870036
0.846209
0.835399
0.834692
0.836741
0.839245
0.843629
0.862739
0.909205
0.938884
0.949701
0.956354
0.962115
0.967837
0.964622
0.939799
0.91511
0.906063
0.904457
0.903746
0.905413
0.910277
0.926914
0.974825
1.02062
1.04194
1.05126
1.05662
1.06202
1.06433
1.04355
1.00858
0.987881
0.982226
0.985043
0.992969
1.00041
1.01924
1.0705
1.11089
1.12698
1.13518
1.14352
1.14954
1.14575
1.1171
1.08264
1.06323
1.05629
1.05643
1.06456
1.10385
1.15865
1.19173
1.20605
1.21415
1.22008
1.21897
1.20526
1.16105
1.10383
1.0617
1.07632
3.48931
23.2324
0.700991
0.734679
0.758191
0.769396
0.77361
0.774397
0.765627
0.734503
0.712317
0.708714
0.711136
0.715036
0.725163
0.764489
0.806226
0.820023
0.824665
0.821672
0.815122
0.808286
0.794413
0.783337
0.782152
0.786321
0.791959
0.794955
0.796813
0.805002
0.835583
0.860965
0.871495
0.879362
0.886473
0.892635
0.895213
0.877622
0.851826
0.840696
0.837359
0.837712
0.841255
0.846634
0.868478
0.916736
0.948129
0.960474
0.966815
0.972454
0.976835
0.973366
0.949851
0.922518
0.908978
0.906789
0.90839
0.91107
0.91542
0.927471
0.971675
1.02001
1.04282
1.05372
1.06126
1.06748
1.07323
1.06097
1.02753
1.00438
0.997279
0.995667
0.994034
0.998444
1.0189
1.07106
1.10956
1.1283
1.14366
1.15387
1.15806
1.15314
1.12239
1.08278
1.05795
1.04947
1.05074
1.0577
1.10014
1.1607
1.19402
1.2064
1.21291
1.21683
1.21353
1.19912
1.15452
1.088
1.04732
3.39013
23.2545
0.695154
0.75
0.77707
0.78558
0.788871
0.784151
0.758789
0.726715
0.712969
0.711324
0.713914
0.721646
0.737028
0.761187
0.793249
0.811292
0.814941
0.812348
0.812843
0.816772
0.818614
0.809901
0.799919
0.797315
0.797202
0.794434
0.790932
0.792469
0.804201
0.840256
0.870528
0.885495
0.895073
0.900653
0.905369
0.903628
0.874507
0.845221
0.836955
0.838903
0.843199
0.848471
0.857378
0.88098
0.925129
0.954729
0.966627
0.971741
0.973846
0.979528
0.983466
0.968328
0.939203
0.922385
0.916613
0.914247
0.913697
0.916475
0.925609
0.966285
1.02082
1.05078
1.06471
1.07621
1.08302
1.08666
1.0761
1.03909
1.00725
0.993321
0.991192
0.993265
0.999819
1.02465
1.08103
1.12279
1.14212
1.15183
1.1568
1.15904
1.15123
1.12065
1.08165
1.056
1.04732
1.04727
1.0563
1.09996
1.1583
1.19056
1.20285
1.20905
1.20871
1.20581
1.19143
1.13803
1.06551
3.26425
23.3199
0.688663
0.75304
0.782482
0.790369
0.794343
0.785681
0.754917
0.730346
0.719398
0.719335
0.726429
0.739035
0.747096
0.752552
0.765189
0.788444
0.80421
0.811736
0.818601
0.827459
0.835839
0.838
0.826052
0.809368
0.796723
0.787381
0.784995
0.787837
0.792646
0.812041
0.858651
0.888687
0.898574
0.903511
0.905549
0.903512
0.896857
0.870497
0.850652
0.848734
0.853882
0.861953
0.867127
0.870025
0.880158
0.915029
0.94712
0.963344
0.976744
0.988303
0.99649
1.0014
0.984886
0.947597
0.922379
0.913014
0.911523
0.913252
0.917566
0.928294
0.970125
1.03183
1.06553
1.07716
1.08232
1.08747
1.09026
1.07814
1.04165
1.01177
1
0.999789
1.00613
1.01403
1.03561
1.08762
1.12452
1.13944
1.14709
1.15223
1.15661
1.15158
1.12637
1.0866
1.059
1.04875
1.04643
1.05227
1.09386
1.1531
1.18588
1.19848
1.20278
1.20249
1.20075
1.17582
1.12256
3.18151
23.4231
0.697274
0.747988
0.776648
0.784484
0.780891
0.767966
0.756642
0.744127
0.73705
0.737364
0.742935
0.748385
0.751151
0.747621
0.746506
0.75678
0.785906
0.811139
0.827667
0.841619
0.849582
0.853672
0.84975
0.826029
0.798917
0.78736
0.786819
0.790047
0.795794
0.805104
0.830293
0.872152
0.891319
0.896266
0.89579
0.897642
0.903882
0.90642
0.891962
0.876086
0.871679
0.870962
0.867106
0.862517
0.862962
0.871762
0.908754
0.957103
0.984285
0.996151
1.00438
1.01049
1.00978
0.990605
0.953107
0.926752
0.917912
0.918028
0.925431
0.935879
0.944253
0.97379
1.0296
1.06203
1.07319
1.07688
1.08001
1.0856
1.08338
1.0586
1.02891
1.014
1.00978
1.00908
1.01287
1.03388
1.08315
1.11936
1.138
1.14872
1.15668
1.1611
1.15619
1.13209
1.09009
1.05675
1.04243
1.04048
1.04728
1.08697
1.14825
1.18278
1.19467
1.19562
1.19684
1.1871
1.17571
3.17224
23.5511
0.700805
0.728324
0.752209
0.762884
0.764555
0.764772
0.765355
0.764415
0.761587
0.758387
0.756485
0.754377
0.748
0.740348
0.739688
0.743445
0.758741
0.798437
0.833083
0.849628
0.857698
0.862177
0.863284
0.848641
0.814764
0.795762
0.794543
0.799703
0.806724
0.811374
0.814953
0.830937
0.864433
0.88384
0.892655
0.903597
0.915948
0.925828
0.929259
0.916078
0.892534
0.87345
0.86134
0.856454
0.857564
0.86096
0.871717
0.918467
0.973017
0.997068
1.00631
1.00846
1.00672
1.00915
1.0023
0.97205
0.945848
0.936539
0.936636
0.938794
0.93976
0.942991
0.963169
1.0169
1.05323
1.06706
1.07835
1.09132
1.0992
1.09746
1.07155
1.0349
1.01201
1.0045
1.0054
1.01005
1.03055
1.0826
1.12641
1.14645
1.15386
1.15967
1.16018
1.15609
1.1367
1.09218
1.0547
1.03815
1.03636
1.04167
1.07941
1.14086
1.17534
1.18548
1.18815
1.18355
1.20462
3.23681
23.6953
0.703416
0.709512
0.721521
0.740459
0.757459
0.767971
0.776775
0.782971
0.7844
0.778951
0.769698
0.757808
0.744824
0.73845
0.73908
0.742246
0.747675
0.773804
0.825605
0.851382
0.858817
0.86033
0.857845
0.855504
0.844599
0.821301
0.809792
0.809642
0.811487
0.81022
0.808496
0.810587
0.824144
0.858955
0.891782
0.913626
0.929964
0.940353
0.946003
0.947042
0.926013
0.887202
0.863176
0.857654
0.859399
0.86346
0.873288
0.889928
0.925513
0.969321
0.992487
1.00182
1.00886
1.01636
1.02161
1.01939
0.993904
0.961586
0.943784
0.937003
0.933488
0.930078
0.933645
0.955036
1.01251
1.05974
1.08239
1.09315
1.10071
1.10542
1.10209
1.07425
1.03514
1.01125
1.00447
1.00699
1.01337
1.03456
1.08544
1.12667
1.14435
1.15246
1.15694
1.15738
1.15724
1.14208
1.09618
1.05525
1.03592
1.03189
1.03365
1.06862
1.12997
1.1649
1.17586
1.17348
1.21495
3.34489
23.8402
0.705275
0.705103
0.705259
0.715041
0.742225
0.769332
0.785308
0.794248
0.798237
0.797206
0.786228
0.766197
0.748265
0.742023
0.743575
0.747827
0.753539
0.763799
0.797107
0.836471
0.850876
0.854592
0.857546
0.861207
0.862885
0.852887
0.83206
0.818595
0.812334
0.808622
0.805631
0.805394
0.808959
0.821999
0.864333
0.911172
0.934896
0.944585
0.950252
0.954511
0.948403
0.919788
0.885783
0.870682
0.869221
0.872892
0.879708
0.885246
0.891301
0.914544
0.961508
0.99815
1.01402
1.02104
1.02692
1.0331
1.03448
1.00995
0.970831
0.946033
0.934166
0.92993
0.931329
0.937471
0.958633
1.01859
1.06764
1.08672
1.09359
1.09659
1.09874
1.1008
1.08134
1.04504
1.02232
1.01549
1.01528
1.01838
1.03375
1.07865
1.12059
1.14097
1.15034
1.15733
1.15958
1.16142
1.14827
1.10151
1.05507
1.03063
1.02394
1.02358
1.05673
1.11954
1.15602
1.16105
1.21214
3.46535
23.9838
0.710053
0.704832
0.70137
0.704412
0.718343
0.756568
0.787558
0.80106
0.807528
0.810613
0.806995
0.785288
0.759392
0.749741
0.750772
0.754547
0.758994
0.764025
0.772643
0.801099
0.834448
0.851587
0.859714
0.863789
0.866885
0.870651
0.865842
0.845758
0.82619
0.814199
0.808036
0.807584
0.810403
0.814224
0.82702
0.87869
0.926145
0.942377
0.947824
0.946041
0.940872
0.939421
0.928818
0.90508
0.888866
0.88391
0.883848
0.884349
0.885734
0.889761
0.907313
0.95702
1.00017
1.01916
1.02853
1.03451
1.03912
1.04109
1.01844
0.976396
0.947156
0.9371
0.938235
0.944571
0.951514
0.969124
1.02095
1.06472
1.08264
1.09232
1.1013
1.10853
1.11264
1.09798
1.06238
1.03252
1.01787
1.01344
1.01324
1.02448
1.07072
1.12079
1.14619
1.15742
1.16293
1.16412
1.16486
1.15021
1.10207
1.05298
1.02505
1.01402
1.01311
1.0485
1.11268
1.13929
1.20022
3.59064
24.1227
0.715839
0.703293
0.699423
0.70152
0.706318
0.730199
0.778276
0.803311
0.811285
0.816023
0.819152
0.81056
0.781299
0.762112
0.758549
0.760924
0.764559
0.767283
0.768348
0.771586
0.792592
0.829097
0.85191
0.863221
0.873163
0.881632
0.887168
0.883343
0.858257
0.828029
0.812762
0.810163
0.812284
0.815813
0.82127
0.838499
0.881093
0.918524
0.934323
0.939743
0.943679
0.949027
0.953984
0.950561
0.928916
0.906399
0.893817
0.887985
0.88634
0.887694
0.890969
0.904107
0.952412
1.00296
1.02556
1.03365
1.038
1.0419
1.04377
1.02341
0.983494
0.959852
0.952201
0.950897
0.950333
0.953108
0.965732
1.01142
1.06044
1.08836
1.10373
1.11413
1.12356
1.12816
1.11233
1.06794
1.02824
1.01014
1.00663
1.00886
1.0226
1.07161
1.12508
1.15057
1.15953
1.1602
1.16125
1.1615
1.14419
1.10114
1.05299
1.01851
1.00468
1.00347
1.0443
1.09686
1.17194
3.70763
24.2341
0.718323
0.70043
0.699545
0.70179
0.705436
0.714174
0.754093
0.798011
0.812214
0.816852
0.818546
0.818372
0.810682
0.789201
0.77493
0.771132
0.770871
0.768745
0.763546
0.763031
0.767165
0.786866
0.828838
0.86262
0.881218
0.891972
0.89739
0.900442
0.893698
0.858405
0.824857
0.813358
0.814109
0.818016
0.824856
0.830965
0.83945
0.864894
0.903936
0.932175
0.946769
0.955275
0.964539
0.971829
0.973049
0.950378
0.918196
0.89775
0.888455
0.885302
0.887664
0.893123
0.906957
0.954539
1.00545
1.02769
1.03469
1.03548
1.03767
1.0399
1.03122
1.00468
0.978035
0.961474
0.951282
0.946569
0.947735
0.957723
1.00144
1.06075
1.09796
1.11627
1.12553
1.13226
1.13156
1.11043