/*--------------------------------*- C++ -*----------------------------------*\
  =========                 |
  \\      /  F ield         | OpenFOAM: The Open Source CFD Toolbox
   \\    /   O peration     | Website:  https://openfoam.org
    \\  /    A nd           | Version:  12
     \\/     M anipulation  |
\*---------------------------------------------------------------------------*/
FoamFile
{
    format      ascii;
    class       volScalarField;
    location    "28.9";
    object      T;
}
// * * * * * * * * * * * * * * * * * * * * * * * * * * * * * * * * * * * * * //

dimensions      [0 0 0 1 0 0 0];

internalField   nonuniform List<scalar> 
9801
(
0.774593
0.770678
0.771506
0.777074
0.788538
0.798908
0.802504
0.803355
0.803252
0.798936
0.794265
0.792558
0.792615
0.793001
0.793915
0.799303
0.809104
0.815211
0.818907
0.821023
0.821839
0.82038
0.815854
0.812373
0.811346
0.811641
0.812316
0.813372
0.816306
0.822416
0.829179
0.832701
0.833325
0.833182
0.831231
0.828028
0.826733
0.827003
0.827797
0.828962
0.83039
0.834727
0.841566
0.845178
0.846305
0.846807
0.845799
0.845599
0.846521
0.847924
0.849695
0.853233
0.859219
0.865082
0.868167
0.869542
0.870301
0.869651
0.865736
0.862867
0.862303
0.862501
0.863344
0.864749
0.867507
0.875941
0.886254
0.891501
0.894034
0.895266
0.895778
0.890341
0.879843
0.876038
0.876998
0.878805
0.881821
0.892192
0.908334
0.917873
0.922574
0.925362
0.927232
0.926208
0.915813
0.906585
0.905502
0.908707
0.91373
0.927909
0.946169
0.958648
0.969042
0.976756
0.978125
0.97061
0.950637
1.0842
1.50021
0.784743
0.783523
0.785862
0.787234
0.788298
0.792471
0.798629
0.801695
0.801006
0.799537
0.798714
0.798368
0.798376
0.799204
0.805116
0.809536
0.81215
0.815436
0.818392
0.820848
0.821795
0.820885
0.819557
0.81818
0.817577
0.818008
0.818969
0.822326
0.82623
0.82811
0.829867
0.831954
0.833756
0.835117
0.835272
0.833363
0.831573
0.831663
0.832727
0.834075
0.837524
0.842423
0.845191
0.847134
0.848299
0.848943
0.848975
0.848839
0.849277
0.850255
0.851686
0.8542
0.860758
0.867318
0.87088
0.872589
0.873608
0.874081
0.871371
0.86619
0.864431
0.865013
0.866372
0.867955
0.87066
0.879532
0.889983
0.89556
0.898234
0.899504
0.899508
0.89584
0.887503
0.881781
0.881859
0.884062
0.887025
0.896034
0.910618
0.919839
0.924722
0.928144
0.930873
0.93077
0.921722
0.913062
0.911367
0.914628
0.91961
0.929808
0.945454
0.958066
0.969361
0.978814
0.981145
0.973279
0.949662
1.07956
1.51965
0.787144
0.793563
0.800334
0.802761
0.802745
0.802301
0.802871
0.801339
0.799783
0.800136
0.801548
0.802528
0.803652
0.807633
0.815873
0.821376
0.823168
0.824201
0.825131
0.824826
0.822446
0.820973
0.821172
0.821904
0.823025
0.82454
0.827211
0.832413
0.835881
0.836337
0.836255
0.836853
0.838259
0.83925
0.839278
0.838781
0.838164
0.838638
0.839841
0.841399
0.845466
0.850748
0.853376
0.854807
0.855926
0.856943
0.857258
0.857131
0.85753
0.858225
0.859307
0.860789
0.865427
0.873075
0.877576
0.879894
0.881365
0.882445
0.88182
0.877058
0.873672
0.873904
0.875358
0.877303
0.879991
0.888046
0.898248
0.903847
0.906795
0.90855
0.909827
0.908673
0.901515
0.895803
0.895522
0.89772
0.90077
0.907838
0.921944
0.932629
0.938371
0.942574
0.945801
0.945975
0.939213
0.931156
0.928646
0.931529
0.937518
0.945836
0.961542
0.977602
0.990386
1.00243
1.00754
1.0036
0.982373
1.09771
1.55241
0.798559
0.81149
0.81688
0.819742
0.821545
0.820135
0.81138
0.8026
0.80073
0.801716
0.804335
0.808945
0.81391
0.819535
0.827458
0.832797
0.834466
0.834473
0.832012
0.828387
0.826632
0.827333
0.829027
0.831675
0.83451
0.836691
0.839313
0.843532
0.845982
0.846808
0.847165
0.847596
0.848012
0.847776
0.848155
0.849129
0.85009
0.850733
0.851784
0.85335
0.857324
0.86274
0.866147
0.868173
0.869585
0.870845
0.870601
0.86872
0.868374
0.868899
0.869997
0.871625
0.874952
0.883606
0.890556
0.893817
0.895687
0.897055
0.897666
0.893576
0.889044
0.888934
0.890742
0.893108
0.895801
0.901856
0.912072
0.919189
0.92332
0.92623
0.928336
0.928708
0.923016
0.917364
0.916829
0.919099
0.922419
0.927484
0.938886
0.950839
0.957876
0.962754
0.966735
0.968953
0.966434
0.959844
0.955431
0.955671
0.961339
0.969443
0.981634
0.99776
1.01204
1.02582
1.03365
1.03449
1.01992
1.13376
1.5927
0.810012
0.82675
0.831337
0.833955
0.833793
0.82765
0.819398
0.814392
0.812943
0.813342
0.81453
0.817466
0.823601
0.831838
0.838803
0.84218
0.842703
0.841436
0.840723
0.840216
0.839259
0.839828
0.842043
0.844387
0.846748
0.848707
0.850965
0.854736
0.857854
0.859734
0.861243
0.862684
0.863741
0.86245
0.860631
0.860739
0.862069
0.86361
0.865142
0.867117
0.872563
0.87942
0.883179
0.885208
0.886762
0.887976
0.88675
0.883437
0.882438
0.883258
0.884866
0.88684
0.889451
0.896911
0.905867
0.910387
0.912763
0.914403
0.91572
0.914619
0.909919
0.908069
0.909607
0.911996
0.914658
0.91829
0.926962
0.936031
0.941349
0.944832
0.947494
0.949598
0.947499
0.941496
0.939242
0.940786
0.943974
0.948005
0.955559
0.968458
0.978364
0.984039
0.98831
0.991586
0.991973
0.98724
0.981577
0.978993
0.981393
0.988607
0.998177
1.01248
1.02765
1.0407
1.04918
1.05228
1.04264
1.16203
1.62667
0.823448
0.838733
0.842147
0.841297
0.836492
0.833087
0.832311
0.831737
0.831263
0.832012
0.833612
0.835579
0.837191
0.839297
0.84381
0.848244
0.85109
0.853497
0.855641
0.857533
0.857774
0.856895
0.857051
0.85768
0.857768
0.858368
0.860284
0.865966
0.872283
0.875724
0.877536
0.879071
0.880468
0.879563
0.875406
0.873563
0.874656
0.87675
0.879149
0.882241
0.889459
0.897683
0.901368
0.902936
0.904333
0.905321
0.904269
0.900309
0.897479
0.897641
0.899442
0.901735
0.904245
0.909675
0.919334
0.925601
0.928893
0.931269
0.933259
0.934794
0.931789
0.927186
0.926171
0.927786
0.930106
0.932942
0.938852
0.94971
0.957124
0.960993
0.963857
0.966431
0.967623
0.962775
0.957805
0.956946
0.959461
0.963408
0.968259
0.978239
0.990577
0.998777
1.00428
1.0082
1.01045
1.00778
1.00168
0.997671
0.997018
1.00059
1.00778
1.01778
1.03108
1.04301
1.05102
1.05555
1.05194
1.18628
1.65041
0.835912
0.842386
0.844015
0.843615
0.843884
0.845543
0.847944
0.850378
0.851795
0.85245
0.852904
0.852194
0.848308
0.846413
0.847082
0.851169
0.859259
0.866628
0.870717
0.873148
0.874944
0.874674
0.872715
0.869045
0.867001
0.867247
0.868598
0.873487
0.883778
0.88993
0.892306
0.893832
0.895173
0.89526
0.891713
0.887589
0.886833
0.888334
0.89052
0.893714
0.901318
0.911231
0.915967
0.917849
0.919271
0.920565
0.920857
0.917355
0.912198
0.910111
0.911087
0.913404
0.916195
0.920639
0.930044
0.93796
0.941846
0.944412
0.946683
0.94881
0.949055
0.943407
0.939394
0.938593
0.940077
0.942677
0.946726
0.957058
0.967561
0.972968
0.975989
0.978551
0.980774
0.979261
0.973476
0.969747
0.969259
0.971957
0.975883
0.981454
0.992797
1.00491
1.01242
1.01728
1.02101
1.02245
1.01825
1.01276
1.00954
1.00949
1.01308
1.02005
1.02983
1.04134
1.04958
1.05445
1.05456
1.20406
1.66575
0.845307
0.842113
0.842831
0.845687
0.851058
0.857365
0.863023
0.866174
0.868277
0.869267
0.866647
0.858883
0.854209
0.85347
0.853951
0.857527
0.865863
0.874363
0.880441
0.884029
0.886808
0.887768
0.882475
0.876595
0.875279
0.876003
0.877317
0.881052
0.890734
0.899028
0.902917
0.905048
0.906622
0.907825
0.906303
0.900881
0.898524
0.899098
0.90082
0.902983
0.908532
0.919356
0.926176
0.928747
0.930206
0.931524
0.932849
0.931849
0.92552
0.921187
0.920383
0.921838
0.924258
0.927791
0.936246
0.946601
0.952397
0.955169
0.957335
0.959412
0.960885
0.956807
0.949218
0.945456
0.945519
0.947774
0.950973
0.958745
0.971794
0.980203
0.984568
0.987499
0.990149
0.990917
0.986379
0.981319
0.978948
0.978503
0.980272
0.983364
0.989
1.00146
1.01351
1.02111
1.0264
1.03071
1.03196
1.02725
1.02149
1.01852
1.0189
1.02189
1.0278
1.03684
1.0457
1.0516
1.05483
1.21612
1.67467
0.847866
0.844204
0.845091
0.849548
0.858481
0.867905
0.87326
0.876279
0.878417
0.876825
0.868462
0.862296
0.860842
0.86118
0.863022
0.868694
0.877506
0.884176
0.888364
0.891742
0.8936
0.891077
0.884888
0.882745
0.883374
0.884593
0.886466
0.891323
0.899472
0.906087
0.910059
0.912497
0.914233
0.915705
0.915985
0.911416
0.907936
0.90789
0.909236
0.9109
0.913946
0.923566
0.932802
0.936677
0.938582
0.940065
0.941611
0.942084
0.937036
0.930361
0.927947
0.928175
0.929865
0.932184
0.937975
0.949965
0.958953
0.963413
0.965704
0.967506
0.969091
0.966828
0.957726
0.951295
0.949473
0.950605
0.953017
0.95751
0.969885
0.982925
0.989537
0.993306
0.996345
0.998879
0.997494
0.992149
0.987793
0.985005
0.983422
0.984425
0.987397
0.994485
1.00895
1.022
1.03033
1.03588
1.03964
1.03929
1.03488
1.02952
1.02599
1.02547
1.02712
1.03136
1.03917
1.04662
1.05365
1.22619
1.68059
0.850338
0.848957
0.851381
0.859513
0.870439
0.877103
0.880475
0.882798
0.881585
0.873231
0.867859
0.867101
0.867913
0.869327
0.874876
0.884504
0.890395
0.893562
0.896042
0.897289
0.894129
0.888116
0.886123
0.88686
0.888233
0.890295
0.894346
0.901911
0.909246
0.913779
0.916424
0.918175
0.919316
0.920365
0.921332
0.918753
0.914594
0.913823
0.914851
0.91638
0.918459
0.92579
0.936977
0.94291
0.945364
0.946965
0.948312
0.94916
0.946291
0.938312
0.933859
0.933052
0.933705
0.935275
0.938202
0.948329
0.961243
0.967792
0.970784
0.97277
0.974564
0.974639
0.966824
0.95743
0.953957
0.954126
0.955724
0.95788
0.964746
0.980062
0.991398
0.996854
1.00079
1.00428
1.00661
1.00388
0.996803
0.99083
0.987747
0.987426
0.988911
0.992051
1.00054
1.0162
1.02946
1.03782
1.04372
1.04703
1.04615
1.04174
1.03607
1.03113
1.02765
1.02765
1.0301
1.03887
1.05087
1.23709
1.68536
0.853998
0.855158
0.862318
0.874806
0.881434
0.884462
0.886615
0.885441
0.876242
0.870332
0.869753
0.870722
0.872404
0.878361
0.890611
0.897236
0.899573
0.901079
0.90102
0.895873
0.889951
0.887484
0.887867
0.889143
0.891263
0.895612
0.902151
0.908372
0.914343
0.918472
0.920536
0.921505
0.92214
0.923503
0.925172
0.924238
0.919631
0.917776
0.918571
0.920144
0.922042
0.926891
0.938522
0.946441
0.949619
0.951212
0.952358
0.953384
0.95289
0.946386
0.939214
0.936679
0.936525
0.937678
0.939576
0.944907
0.959139
0.969964
0.974315
0.976727
0.978599
0.979825
0.975783
0.965347
0.959578
0.9589
0.960035
0.961677
0.963971
0.973027
0.988561
0.99911
1.00498
1.0091
1.01224
1.01387
1.00978
1.00113
0.994631
0.991629
0.991188
0.99288
0.99718
1.00853
1.02492
1.03774
1.04525
1.04989
1.05126
1.04981
1.04652
1.04064
1.03226
1.02502
1.02327
1.02823
1.04349
1.24766
1.68927
0.858255
0.863396
0.878084
0.8862
0.888904
0.890436
0.889289
0.879726
0.87212
0.87088
0.87176
0.87327
0.878446
0.890971
0.900872
0.905017
0.906404
0.905943
0.898938
0.892775
0.890824
0.890538
0.891252
0.89419
0.900227
0.904982
0.906993
0.90927
0.914782
0.919565
0.921721
0.922902
0.92483
0.927203
0.929221
0.929928
0.925537
0.921792
0.921485
0.922648
0.924261
0.926843
0.936295
0.947185
0.951529
0.953255
0.954332
0.955241
0.955848
0.953749
0.945926
0.94063
0.939722
0.940415
0.942005
0.94449
0.953599
0.968872
0.97686
0.979902
0.981805
0.983326
0.98292
0.975005
0.966528
0.963802
0.964199
0.965663
0.967456
0.970345
0.981222
0.997695
1.00792
1.01298
1.01668
1.01973
1.02049
1.01402
1.00342
0.996404
0.994568
0.995804
0.998604
1.00483
1.0173
1.03268
1.04338
1.04888
1.05186
1.05235
1.05125
1.04915
1.04207
1.02988
1.0215
1.02109
1.02917
1.25365
1.6916
0.861106
0.876303
0.889416
0.893749
0.895217
0.894744
0.885598
0.876316
0.8738
0.873859
0.8756
0.882321
0.891322
0.898606
0.904117
0.90675
0.906008
0.900142
0.895517
0.894764
0.895198
0.896749
0.900802
0.905364
0.90864
0.909822
0.908214
0.907507
0.909628
0.916818
0.923126
0.926803
0.929546
0.932258
0.934589
0.936154
0.932669
0.92594
0.923605
0.923844
0.925192
0.927048
0.932083
0.944063
0.951929
0.954297
0.955242
0.95601
0.957437
0.958865
0.955262
0.947345
0.944151
0.944398
0.945773
0.947402
0.950376
0.962375
0.976155
0.981598
0.983818
0.985541
0.987062
0.984688
0.976155
0.970306
0.968906
0.969671
0.971548
0.973874
0.978043
0.989805
1.00569
1.01497
1.01918
1.02159
1.02262
1.02266
1.01702
1.00753
1.00195
1.00101
1.00276
1.00604
1.01223
1.02411
1.03743
1.04535
1.04918
1.05152
1.05237
1.05229
1.05001
1.04026
1.02705
1.02067
1.01654
1.25305
1.69249
0.869313
0.884255
0.892439
0.895537
0.895288
0.888569
0.881445
0.878597
0.878126
0.880912
0.888465
0.895429
0.898773
0.900085
0.900125
0.899202
0.898509
0.897124
0.897338
0.899553
0.904958
0.910726
0.913995
0.914688
0.913543
0.909762
0.905535
0.904628
0.905983
0.911973
0.92415
0.932151
0.936604
0.938993
0.940698
0.94197
0.939004
0.929425
0.924472
0.924659
0.926145
0.928269
0.930475
0.936715
0.948162
0.954209
0.9561
0.957299
0.959158
0.961544
0.96273
0.957292
0.950425
0.948626
0.948779
0.949662
0.951046
0.955318
0.96966
0.981018
0.985166
0.987662
0.989856
0.9914
0.987688
0.980104
0.97637
0.97628
0.978066
0.979849
0.980848
0.983427
0.99335
1.00867
1.01723
1.02106
1.02413
1.02672
1.02687
1.02158
1.01342
1.00871
1.00806
1.01041
1.01354
1.01819
1.02831
1.03854
1.04454
1.0482
1.05142
1.05317
1.05267
1.0484
1.03603
1.02344
1.01388
1.24787
1.69329
0.878024
0.885527
0.889848
0.890639
0.887742
0.88401
0.883811
0.884858
0.889421
0.895391
0.899346
0.90163
0.901944
0.896392
0.891158
0.891238
0.895187
0.899316
0.903668
0.91132
0.918722
0.922392
0.923938
0.922912
0.915409
0.905823
0.902876
0.903387
0.905148
0.90989
0.923871
0.938495
0.943325
0.944942
0.945598
0.944897
0.939568
0.931322
0.927164
0.927191
0.928935
0.930941
0.932396
0.933819
0.939374
0.950513
0.95661
0.959482
0.962141
0.964836
0.967113
0.966416
0.958386
0.952424
0.950713
0.950634
0.95183
0.953759
0.960923
0.976471
0.986033
0.989888
0.992684
0.995163
0.996171
0.992453
0.986861
0.983903
0.983106
0.982695
0.982274
0.983002
0.985246
0.995429
1.01177
1.02162
1.02644
1.02968
1.03091
1.03011
1.02607
1.01982
1.01573
1.01513
1.01594
1.01778
1.02103
1.0291
1.03842
1.04467
1.04954
1.05299
1.05361
1.05187
1.04392
1.02957
1.01537
1.2399
1.69459
0.882655
0.882751
0.880838
0.88172
0.884136
0.886096
0.889487
0.898248
0.903904
0.905921
0.905974
0.904747
0.897094
0.888719
0.886354
0.887215
0.891111
0.902457
0.916512
0.925822
0.929107
0.930491
0.930904
0.927754
0.914672
0.905435
0.904082
0.905076
0.907106
0.912839
0.927808
0.940895
0.94576
0.947307
0.946147
0.941799
0.938406
0.934883
0.932056
0.931734
0.933465
0.935436
0.93497
0.93396
0.935187
0.942451
0.954808
0.961861
0.965636
0.968229
0.970313
0.971447
0.966079
0.956161
0.951736
0.951556
0.953053
0.954928
0.957738
0.968335
0.983448
0.991106
0.994575
0.997359
1.00034
1.00175
0.998593
0.992738
0.98787
0.984757
0.983172
0.982648
0.983598
0.986505
0.999144
1.01549
1.02478
1.02976
1.03279
1.03346
1.03269
1.03002
1.0254
1.02141
1.01824
1.01697
1.01776
1.02113
1.0301
1.03995
1.04698
1.05181
1.05294
1.05271
1.04862
1.0366
1.0229
1.2319
1.69647
0.883205
0.876071
0.874811
0.876739
0.881985
0.890695
0.903109
0.90977
0.912109
0.913213
0.911606
0.901731
0.890768
0.887093
0.887384
0.888488
0.891381
0.905304
0.924723
0.931702
0.933633
0.934407
0.932057
0.922725
0.913627
0.908398
0.907102
0.908721
0.914359
0.921879
0.929609
0.938552
0.943007
0.943159
0.939648
0.938315
0.939239
0.940429
0.939442
0.938187
0.93828
0.937829
0.93586
0.934525
0.935139
0.937796
0.948709
0.961779
0.967746
0.970134
0.971568
0.972362
0.970553
0.961712
0.954982
0.954324
0.95604
0.958354
0.960836
0.96432
0.974641
0.987179
0.994181
0.998202
1.00123
1.00417
1.00655
1.00511
0.997674
0.989429
0.984443
0.982829
0.983153
0.984652
0.989994
1.00308
1.01703
1.02558
1.03013
1.03249
1.03438
1.03477
1.03384
1.03008
1.0237
1.01776
1.01528
1.01653
1.02137
1.03161
1.04191
1.0484
1.05098
1.05101
1.0503
1.04229
1.03313
1.22577
1.6986
0.879199
0.873266
0.873593
0.875415
0.881873
0.900259
0.911525
0.914297
0.915552
0.915977
0.909593
0.89708
0.890616
0.889529
0.890224
0.893981
0.903009
0.91496
0.926134
0.932712
0.934606
0.931801
0.924609
0.919746
0.91635
0.91395
0.914569
0.919377
0.924894
0.927134
0.928036
0.929113
0.933381
0.936689
0.937727
0.938958
0.942315
0.946249
0.948159
0.946119
0.942108
0.938416
0.935654
0.93473
0.935429
0.937162
0.94234
0.957098
0.967478
0.970334
0.97163
0.972977
0.974065
0.970161
0.962833
0.9605
0.961781
0.963721
0.965237
0.965992
0.96796
0.975667
0.987892
0.996566
1.0019
1.00643
1.00986
1.01204
1.00921
0.998802
0.989175
0.98503
0.984807
0.986628
0.989921
0.993924
1.00336
1.01524
1.02355
1.02903
1.03315
1.03605
1.03822
1.0373
1.03207
1.0226
1.01507
1.01333
1.01597
1.02185
1.03303
1.04248
1.04745
1.04851
1.04931
1.04592
1.04011
1.22296
1.7004
0.87693
0.874682
0.875502
0.877973
0.89038
0.90587
0.912976
0.915566
0.916123
0.911229
0.903311
0.897206
0.893646
0.893833
0.898338
0.906802
0.912949
0.917203
0.922665
0.925551
0.924652
0.92078
0.919281
0.920413
0.921824
0.923672
0.925662
0.927845
0.929243
0.927358
0.921651
0.91923
0.922016
0.930901
0.938425
0.943662
0.949092
0.952735
0.954552
0.953882
0.947633
0.940316
0.936306
0.93511
0.9357
0.937305
0.939779
0.948965
0.964212
0.971466
0.97404
0.976037
0.977465
0.977708
0.973563
0.968501
0.966978
0.967087
0.967083
0.966641
0.966785
0.968585
0.975261
0.990271
1.00293
1.00852
1.01127
1.01356
1.01478
1.01184
1.00163
0.992775
0.989561
0.98954
0.990608
0.992356
0.99532
1.00218
1.01392
1.02426
1.03145
1.03642
1.03921
1.04037
1.0382
1.03125
1.01923
1.01319
1.01331
1.01691
1.02309
1.0343
1.04236
1.04606
1.04725
1.047
1.04379
1.22337
1.70146
0.877388
0.877963
0.880649
0.887567
0.89871
0.907469
0.911307
0.912182
0.908419
0.904462
0.902533
0.900847
0.901406
0.905104
0.911001
0.914388
0.915231
0.913766
0.911674
0.913386
0.917345
0.919239
0.920993
0.925212
0.932176
0.936173
0.936363
0.933729
0.928545
0.919778
0.915324
0.915418
0.917725
0.924761
0.938773
0.951147
0.957175
0.959095
0.959924
0.959183
0.95362
0.943757
0.937643
0.936288
0.937133
0.938818
0.940946
0.944721
0.956544
0.970423
0.976509
0.978768
0.980416
0.982363
0.983318
0.98025
0.975232
0.971788
0.969788
0.968667
0.967642
0.967568
0.969071
0.975832
0.993403
1.00617
1.01124
1.01435
1.01736
1.01791
1.01454
1.00464
0.995258
0.991417
0.991394
0.992598
0.993719
0.996023
1.00246
1.01611
1.02799
1.03513
1.03894
1.04055
1.0409
1.03849
1.02841
1.01773
1.01476
1.01569
1.01832
1.0253
1.03559
1.04146
1.04384
1.04416
1.04578
1.22594
1.70199
0.880456
0.88318
0.886858
0.892495
0.900061
0.905097
0.906443
0.904665
0.902149
0.902608
0.904286
0.908796
0.913477
0.916186
0.917539
0.917053
0.910397
0.902463
0.900412
0.902969
0.911732
0.920577
0.928905
0.937355
0.941497
0.943231
0.94316
0.937203
0.922313
0.913652
0.912304
0.913708
0.916079
0.920999
0.937756
0.955785
0.961295
0.962859
0.963589
0.963021
0.959692
0.950534
0.942109
0.939771
0.941126
0.944042
0.946792
0.948127
0.950042
0.960522
0.972704
0.978136
0.98161
0.985351
0.988901
0.991011
0.988521
0.981033
0.974697
0.971247
0.969034
0.968421
0.969104
0.970842
0.978821
0.997002
1.01023
1.0155
1.01811
1.01881
1.01842
1.01501
1.00572
0.99823
0.995071
0.994649
0.994662
0.995376
0.997657
1.0049
1.02037
1.03172
1.03758
1.04055
1.04132
1.04086
1.0372
1.0272
1.01986
1.01787
1.01821
1.01953
1.027
1.03483
1.03839
1.0391
1.04501
1.23097
1.70287
0.884765
0.887037
0.889253
0.892397
0.895936
0.899472
0.901626
0.902818
0.90391
0.906605
0.91325
0.919141
0.922301
0.922618
0.92024
0.910437
0.90002
0.896602
0.897179
0.899586
0.907163
0.924788
0.941941
0.947729
0.94923
0.948813
0.944567
0.931848
0.919171
0.914257
0.913945
0.915365
0.919354
0.92792
0.940799
0.954931
0.962122
0.963756
0.961697
0.959561
0.959537
0.959251
0.954135
0.949457
0.949005
0.950286
0.950482
0.949633
0.94952
0.951068
0.960827
0.974226
0.983125
0.989381
0.99317
0.995946
0.996933
0.991745
0.98074
0.973795
0.97127
0.970723
0.97094
0.972168
0.975022
0.982454
0.998229
1.01002
1.01514
1.01716
1.01741
1.01772
1.01595
1.00968
1.00384
1.00001
0.997243
0.995723
0.995475
0.998307
1.00937
1.02547
1.0355
1.04057
1.04279
1.04287
1.04213
1.03739
1.02952
1.02344
1.01996
1.01888
1.01955
1.02581
1.03206
1.03482
1.04459
1.23879
1.70578
0.888744
0.889263
0.889099
0.888807
0.88978
0.893679
0.89928
0.904714
0.912601
0.919703
0.922911
0.924622
0.926022
0.924609
0.91323
0.900539
0.895467
0.895391
0.896837
0.899151
0.908323
0.932648
0.947279
0.951126
0.952393
0.950718
0.940792
0.929891
0.922143
0.918315
0.918772
0.923764
0.932142
0.938159
0.941524
0.946258
0.953125
0.956927
0.958305
0.959894
0.962985
0.966429
0.968096
0.963533
0.957244
0.953677
0.950742
0.948506
0.948691
0.949597
0.951833
0.96567
0.984048
0.991729
0.994771
0.997374
0.997393
0.994729
0.989963
0.982073
0.976597
0.97428
0.974051
0.974532
0.976139
0.978067
0.982324
0.994916
1.00706
1.01378
1.01708
1.01948
1.02088
1.02027
1.01549
1.00782
0.999855
0.995045
0.994266
0.996391
1.0014
1.01526
1.03055
1.03963
1.04396
1.04462
1.04442
1.0434
1.03949
1.03332
1.02661
1.02112
1.01803
1.01727
1.02351
1.03081
1.04499
1.24789
1.70908
0.889062
0.885812
0.885599
0.886472
0.888556
0.891355
0.897242
0.911784
0.923801
0.927899
0.929178
0.928857
0.923926
0.914276
0.904266
0.897833
0.896264
0.896802
0.899107
0.906985
0.920292
0.935167
0.946698
0.950704
0.949552
0.941535
0.934987
0.931714
0.929248
0.928568
0.931607
0.936723
0.940101
0.941786
0.940489
0.937778
0.939321
0.947426
0.956418
0.962844
0.968817
0.973349
0.976161
0.975596
0.967484
0.956156
0.950006
0.949015
0.949797
0.950877
0.95347
0.960836
0.975455
0.987151
0.991834
0.993856
0.993685
0.993593
0.995001
0.994041
0.988013
0.98189
0.978501
0.977137
0.976812
0.976524
0.976755
0.980695
0.993388
1.0076
1.01649
1.0211
1.02361
1.02399
1.02381
1.01699
1.00754
0.99967
0.996751
0.997444
1.00089
1.00663
1.0201
1.03426
1.0422
1.04501
1.04479
1.04424
1.04417
1.04215
1.03768
1.02965
1.0214
1.01535
1.01418
1.0226
1.04375
1.25772
1.71137
0.886477
0.885117
0.886142
0.888092
0.890952
0.89631
0.906164
0.917823
0.92588
0.929615
0.930444
0.925801
0.91609
0.908034
0.902897
0.899778
0.898909
0.901885
0.912065
0.921853
0.926964
0.931078
0.936319
0.938536
0.937881
0.936135
0.935891
0.935947
0.938115
0.943258
0.947128
0.947798
0.946423
0.941826
0.935465
0.933407
0.934622
0.938629
0.950114
0.964664
0.973547
0.977862
0.980222
0.981174
0.976683
0.963369
0.95396
0.952591
0.954262
0.957992
0.962915
0.965477
0.966817
0.971539
0.979632
0.986819
0.991958
0.996291
0.999934
1.00292
1.00336
0.997427
0.988779
0.981985
0.977182
0.974969
0.9755
0.978191
0.983056
0.996276
1.01124
1.01972
1.02272
1.02317
1.02233
1.02121
1.01883
1.01175
1.00472
1.00267
1.00339
1.00593
1.01009
1.02059
1.03352
1.04109
1.04332
1.0436
1.044
1.04507
1.04527
1.04188
1.03204
1.01963
1.01124
1.00978
1.03488
1.26695
1.71317
0.887593
0.887176
0.889552
0.894747
0.902087
0.909002
0.913883
0.917776
0.922024
0.923309
0.920289
0.914997
0.911102
0.909149
0.906513
0.905524
0.908686
0.91716
0.924787
0.928147
0.9291
0.925399
0.921574
0.923607
0.929975
0.935387
0.939143
0.94494
0.951024
0.954561
0.955566
0.955086
0.950862
0.940517
0.933735
0.932517
0.933513
0.935939
0.943093
0.9611
0.974669
0.978676
0.979512
0.977515
0.97552
0.972856
0.967492
0.964824
0.965458
0.966802
0.967586
0.966104
0.961101
0.959088
0.961841
0.973423
0.989647
1.0005
1.00672
1.01062
1.01251
1.01119
1.00284
0.989522
0.980506
0.97762
0.978522
0.982212
0.986399
0.990133
0.997828
1.01041
1.01785
1.02
1.02123
1.02386
1.02574
1.02493
1.0179
1.01028
1.00688
1.00603
1.00684
1.00904
1.01706
1.03008
1.03849
1.04126
1.04241
1.04437
1.04762
1.04863
1.04533
1.03119
1.01428
1.00465
1.01743
1.26954
1.71296
0.893024
0.895646
0.902304
0.90844
0.912269
0.914577
0.915415
0.912273
0.907277
0.906981
0.91071
0.913353
0.914254
0.913989
0.914793
0.918805
0.924969
0.929143
0.930897
0.930717
0.924786
0.916988
0.914389
0.915805
0.921422
0.932114
0.943932
0.954786
0.961068
0.962673
0.961316
0.95829
0.952332
0.942999
0.936603
0.936099
0.938184
0.940634
0.942591
0.949602
0.963215
0.970605
0.972862
0.97449
0.977864
0.981958
0.984151
0.981743
0.977285
0.973042
0.968018
0.960511
0.954927
0.952995
0.953529
0.958482
0.978668
0.999954
1.00937
1.01328
1.01438
1.01312
1.01042
1.00264
0.991461
0.986099
0.986243
0.988475
0.989547
0.988774
0.988947
0.995105
1.00774
1.01628
1.02172
1.02697
1.03014
1.03137
1.02913
1.02018
1.01185
1.00755
1.00591
1.00599
1.00632
1.01368
1.02764
1.0366
1.04019
1.04245
1.04675
1.05036
1.05106
1.04543
1.02592
1.00618
1.00413
1.26363
1.71068
0.902404
0.911687
0.916241
0.918423
0.918192
0.916422
0.908258
0.89889
0.89598
0.897657
0.904622
0.91374
0.918706
0.923285
0.928714
0.933485
0.935842
0.935822
0.934177
0.927573
0.918844
0.914373
0.913504
0.91455
0.917014
0.924812
0.943295
0.958294
0.964232
0.966447
0.966832
0.964527
0.957623
0.948645
0.943808
0.943644
0.944184
0.943663
0.942976
0.942693
0.945574
0.955426
0.966491
0.976752
0.986001
0.99153
0.994398
0.994468
0.988847
0.97695
0.964595
0.956181
0.952108
0.95168
0.952965
0.958131
0.969129
0.988686
1.00517
1.01187
1.01329
1.00992
1.00799
1.00875
1.00643
1.00033
0.996405
0.993609
0.990196
0.986641
0.985273
0.987304
0.996094
1.01115
1.02347
1.02981
1.03255
1.03321
1.03215
1.02741
1.01968
1.01265
1.00727
1.00426
1.00345
1.00352
1.01153
1.0267
1.03669
1.04075
1.04457
1.04961
1.05118
1.0507
1.03997
1.01523
0.997784
1.2536
1.708
0.914034
0.921891
0.92347
0.924295
0.922087
0.911886
0.898154
0.890972
0.889719
0.891056
0.896286
0.908676
0.922179
0.933811
0.941725
0.94435
0.943549
0.940319
0.934528
0.925461
0.917635
0.914833
0.916246
0.91932
0.922361
0.925581
0.936289
0.954372
0.962154
0.963807
0.965097
0.967513
0.966922
0.95984
0.952556
0.948508
0.945482
0.941754
0.939322
0.939216
0.939973
0.942984
0.955751
0.977323
0.988869
0.993293
0.99609
0.997928
0.995231
0.984433
0.968133
0.957318
0.953414
0.953291
0.957375
0.967186
0.973305
0.976745
0.987471
0.999517
1.00482
1.00625
1.00795
1.01079
1.01429
1.01433
1.00819
0.999704
0.991127
0.985763
0.984554
0.985496
0.988995
1.00329
1.02237
1.03111
1.03391
1.03388
1.0319
1.02889
1.02552
1.02106
1.01408
1.00697
1.00242
1.00034
1.00105
1.01092
1.02825
1.03801
1.04227
1.04722
1.04929
1.05019
1.04695
1.02832
1.01013
1.24176
1.70646
0.922557
0.926827
0.925912
0.92557
0.921439
0.909508
0.898122
0.892156
0.890596
0.891432
0.893006
0.898469
0.918217
0.938691
0.948565
0.951942
0.952649
0.948537
0.938727
0.927936
0.920905
0.919545
0.921379
0.922573
0.923044
0.924048
0.92714
0.939853
0.954176
0.961243
0.96641
0.970306
0.972461
0.970285
0.960545
0.9491
0.941291
0.938059
0.937896
0.938763
0.940042
0.944192
0.954884
0.969726
0.984513
0.99171
0.994523
0.992999
0.986999
0.982187
0.976624
0.967841
0.962848
0.963274
0.968333
0.972959
0.974314
0.973587
0.9729
0.978429
0.992568
1.0039
1.00997
1.01411
1.01797
1.01974
1.01756
1.00867
0.996327
0.987953
0.986359
0.988879
0.992935
1.00045
1.01628
1.02817
1.03121
1.0316
1.03026
1.0282
1.02711
1.0266
1.0245
1.0169
1.00694
1.00096
0.998461
1.00002
1.01079
1.0281
1.03798
1.04326
1.04551
1.04675
1.04758
1.03704
1.02699
1.23617
1.70706
0.925875
0.930833
0.929754
0.925003
0.918372
0.909176
0.900148
0.895487
0.894818
0.895799
0.896951
0.898496
0.909382
0.936499
0.949631
0.952946
0.954855
0.955372
0.949295
0.938015
0.929454
0.925822
0.924577
0.923141
0.921754
0.921821
0.922774
0.927514
0.943937
0.961148
0.968441
0.971575
0.97362
0.972899
0.965943
0.952799
0.942814
0.939639
0.939954
0.941084
0.945238
0.954515
0.960926
0.963346
0.96779
0.975524
0.981024
0.983461
0.985008
0.985285
0.985233
0.984734
0.982316
0.980199
0.978962
0.976882
0.97306
0.968099
0.965327
0.966799
0.974589
0.992086
1.00731
1.01588
1.01926
1.01955
1.01958
1.01608
1.00755
0.997539
0.993954
0.995622
0.998811
1.0018
1.00728
1.01768
1.02451
1.02774
1.02884
1.02859
1.02855
1.02891
1.03032
1.02992
1.01998
1.00732
0.999895
0.997253
0.998595
1.009
1.02612
1.03614
1.04139
1.04313
1.04555
1.04211
1.03536
1.23986
1.70971
0.923168
0.927572
0.928029
0.927111
0.921039
0.911066
0.902948
0.899313
0.898225
0.898463
0.899114
0.899968
0.903732
0.925439
0.946013
0.952502
0.956014
0.95883
0.959365
0.950842
0.937649
0.929033
0.922699
0.919168
0.918784
0.919741
0.921652
0.925334
0.935389
0.954435
0.96617
0.969739
0.969642
0.96535
0.960508
0.957107
0.952179
0.949027
0.949667
0.952191
0.957114
0.961391
0.962414
0.95957
0.953783
0.953787
0.961434
0.974983
0.984945
0.989798
0.994836
1.00019
1.00232
0.999004
0.990107
0.980655
0.971658
0.965107
0.963173
0.964091
0.967045
0.974795
0.995159
1.01253
1.01868
1.01934
1.01923
1.01956
1.01803
1.01217
1.00545
1.00302
1.00255
1.00241
1.00298
1.00568
1.0117
1.01951
1.02546
1.02747
1.02824
1.02999
1.03355
1.03559
1.03361
1.02074
1.00533
0.997528
0.99672
0.998999
1.00708
1.0232
1.03399
1.03818
1.04138
1.04203
1.04411
1.24933
1.71343
0.919364
0.927438
0.929549
0.931364
0.929223
0.91741
0.906555
0.901114
0.899107
0.898549
0.898887
0.899861
0.902496
0.916629
0.942641
0.956948
0.960802
0.963285
0.962799
0.957746
0.945587
0.930139
0.921727
0.919613
0.91974
0.920807
0.923962
0.931743
0.940269
0.947071
0.95407
0.958712
0.96026
0.961146
0.962276
0.963049
0.964488
0.965325
0.965397
0.965361
0.965294
0.96519
0.959286
0.949516
0.944263
0.94413
0.947395
0.95924
0.979013
0.995684
1.00749
1.01311
1.01465
1.01337
1.00366
0.987973
0.973828
0.966442
0.964895
0.966395
0.970368
0.974573
0.980653
0.99742
1.01255
1.01756
1.01917
1.02109
1.02313
1.02358
1.01936
1.01264
1.00691
1.00329
1.00187
1.0017
1.00231
1.00673
1.01653
1.02382
1.02753
1.03078
1.03536
1.03728
1.0373
1.03328
1.01802
1.00387
0.998531
0.998861
0.998388
1.00446
1.01915
1.02989
1.0343
1.03693
1.04979
1.26222
1.71769
0.917407
0.931774
0.934635
0.936645
0.935167
0.924127
0.906609
0.898082
0.896454
0.896855
0.898371
0.901097
0.908482
0.924523
0.943108
0.956994
0.962536
0.964114
0.961128
0.952343
0.941929
0.93287
0.925427
0.922849
0.923524
0.927366
0.935268
0.942483
0.945491
0.94452
0.939959
0.940272
0.947262
0.957401
0.964225
0.969422
0.975412
0.979138
0.980105
0.978243
0.972357
0.962676
0.951837
0.943276
0.940218
0.94049
0.94283
0.94806
0.965677
0.995268
1.01126
1.01616
1.017
1.01509
1.00878
0.995819
0.981636
0.973353
0.971384
0.972839
0.975492
0.976229
0.97661
0.980896
0.995426
1.01006
1.01754
1.02196
1.02497
1.02771
1.02845
1.02378
1.01429
1.00654
1.00279
1.00164
1.00111
1.00098
1.00539
1.01628
1.02523
1.0301
1.03467
1.0366
1.03663
1.03616
1.03001
1.01655
1.00681
1.00183
0.997381
0.994539
0.998052
1.01252
1.0248
1.03048
1.05168
1.27626
1.7224
0.915458
0.934135
0.936955
0.937549
0.935099
0.924479
0.908301
0.899056
0.897673
0.898551
0.901853
0.912075
0.927102
0.93776
0.944278
0.950141
0.954439
0.952643
0.946838
0.943081
0.940436
0.937042