/*--------------------------------*- C++ -*----------------------------------*\
  =========                 |
  \\      /  F ield         | OpenFOAM: The Open Source CFD Toolbox
   \\    /   O peration     | Website:  https://openfoam.org
    \\  /    A nd           | Version:  12
     \\/     M anipulation  |
\*---------------------------------------------------------------------------*/
FoamFile
{
    format      ascii;
    class       volScalarField;
    location    "28.9";
    object      T;
}
// * * * * * * * * * * * * * * * * * * * * * * * * * * * * * * * * * * * * * //

dimensions      [0 0 0 1 0 0 0];

internalField   nonuniform List<scalar> 
9801
(
0.754041
0.757943
0.761816
0.765513
0.769542
0.777945
0.805467
0.830654
0.839336
0.841892
0.841573
0.831227
0.805127
0.782607
0.772618
0.771119
0.771793
0.774211
0.779086
0.792563
0.821134
0.842049
0.848828
0.85065
0.848754
0.836945
0.819705
0.807876
0.803301
0.803147
0.80404
0.804331
0.804421
0.804858
0.805809
0.81596
0.842406
0.859416
0.864656
0.867325
0.868639
0.861074
0.844482
0.834609
0.830717
0.829957
0.83009
0.830477
0.831995
0.841826
0.856675
0.86566
0.870132
0.873332
0.876403
0.878652
0.874307
0.866817
0.863117
0.86165
0.86146
0.861398
0.861471
0.863923
0.869252
0.874936
0.880221
0.884452
0.888368
0.888959
0.886276
0.886357
0.888014
0.890786
0.893216
0.893423
0.893258
0.893323
0.893484
0.89338
0.88868
0.887898
0.891202
0.895941
0.903829
0.917887
0.929658
0.934694
0.936973
0.939611
0.942366
0.940807
0.931152
0.920564
0.917766
0.927349
0.968723
1.1457
1.49261
0.764773
0.76673
0.767271
0.769156
0.772206
0.782546
0.80581
0.827585
0.836577
0.838213
0.836372
0.830198
0.814801
0.794424
0.783487
0.780765
0.780858
0.781497
0.782988
0.791095
0.81671
0.837643
0.845072
0.846515
0.846187
0.844189
0.834433
0.821762
0.81463
0.8109
0.808036
0.806056
0.805407
0.805513
0.807167
0.821991
0.850431
0.864618
0.86984
0.872861
0.873134
0.865559
0.84926
0.836703
0.831065
0.82951
0.829709
0.830496
0.833552
0.846822
0.864998
0.873825
0.877323
0.87973
0.882097
0.882042
0.875809
0.867196
0.862366
0.860295
0.859889
0.859912
0.860666
0.869141
0.88004
0.887086
0.891343
0.894324
0.895493
0.891957
0.888425
0.887921
0.889009
0.89194
0.897222
0.899864
0.900932
0.901861
0.902988
0.904446
0.902553
0.900716
0.901485
0.904801
0.909809
0.91936
0.931529
0.939255
0.944234
0.949147
0.954373
0.954331
0.945798
0.935752
0.931224
0.937197
0.955038
1.13584
1.51517
0.775068
0.774952
0.77535
0.776719
0.781488
0.791627
0.805406
0.821655
0.833148
0.837907
0.8383
0.836099
0.829905
0.815084
0.799253
0.791562
0.78994
0.790364
0.792263
0.798217
0.812338
0.832456
0.845897
0.852255
0.854962
0.856404
0.85464
0.843973
0.828403
0.817363
0.810438
0.808082
0.80803
0.810112
0.819149
0.840101
0.859678
0.871795
0.877499
0.879383
0.876782
0.867413
0.850021
0.836815
0.833594
0.83417
0.835746
0.837761
0.844401
0.863397
0.878486
0.885472
0.888948
0.891256
0.890669
0.885357
0.875372
0.866686
0.863225
0.863204
0.863801
0.865025
0.870703
0.886827
0.89944
0.904967
0.909215
0.912575
0.910541
0.900824
0.894727
0.894235
0.896195
0.901527
0.910706
0.915721
0.917959
0.920718
0.924756
0.929289
0.929939
0.925833
0.923765
0.924768
0.92851
0.93507
0.949446
0.96344
0.970447
0.975245
0.981482
0.984325
0.979676
0.97289
0.968927
0.973387
0.977419
1.15388
1.55298
0.792319
0.787837
0.787836
0.78939
0.796175
0.804362
0.811762
0.820485
0.83067
0.838625
0.842299
0.843088
0.84194
0.836165
0.821733
0.809616
0.805606
0.805949
0.808855
0.812762
0.817413
0.828507
0.846827
0.859965
0.865892
0.868123
0.867394
0.861504
0.847436
0.828316
0.820277
0.819111
0.820463
0.829561
0.846232
0.859099
0.870124
0.878225
0.882242
0.881543
0.876925
0.8691
0.859629
0.851209
0.84812
0.848745
0.850505
0.856577
0.870813
0.884376
0.89408
0.89915
0.900897
0.899205
0.895063
0.889429
0.88334
0.878801
0.877345
0.877984
0.879191
0.882136
0.896326
0.914624
0.92369
0.929407
0.934071
0.933241
0.922422
0.911568
0.908531
0.910202
0.913363
0.919632
0.931151
0.940667
0.946985
0.953155
0.959719
0.965706
0.967155
0.960564
0.953713
0.952436
0.955858
0.961366
0.97136
0.98767
0.999924
1.00765
1.01543
1.02269
1.0216
1.01651
1.00915
1.00781
1.00476
1.17801
1.59754
0.811182
0.803078
0.802884
0.806896
0.814866
0.82104
0.825849
0.826886
0.827175
0.833469
0.844275
0.85003
0.850958
0.849575
0.843526
0.83509
0.829994
0.829149
0.830181
0.831957
0.834182
0.838124
0.847342
0.860464
0.869515
0.872993
0.872934
0.86941
0.858598
0.845337
0.838675
0.838776
0.847364
0.862876
0.872605
0.877915
0.880841
0.881478
0.881863
0.882227
0.88227
0.881397
0.879502
0.876093
0.873341
0.873463
0.877816
0.888863
0.898678
0.905352
0.909003
0.910398
0.909652
0.908705
0.907445
0.904419
0.901144
0.899643
0.899733
0.900777
0.902392
0.910652
0.931293
0.944054
0.949973
0.953561
0.953298
0.945353
0.934978
0.928686
0.92756
0.930279
0.933979
0.939363
0.951434
0.967217
0.979213
0.987252
0.993334
0.99878
0.999871
0.992658
0.983375
0.978438
0.97835
0.982722
0.989317
1.00301
1.02113
1.03482
1.04484
1.05397
1.05737
1.05321
1.04457
1.03518
1.01848
1.1979
1.63409
0.822847
0.821346
0.823306
0.830626
0.837667
0.841675
0.840538
0.834213
0.831497
0.832382
0.840273
0.853173
0.860477
0.861789
0.861702
0.861599
0.860472
0.858441
0.856806
0.856309
0.857126
0.859022
0.858387
0.858351
0.863785
0.871756
0.876401
0.877795
0.876114
0.870569
0.869788
0.875785
0.884517
0.890891
0.895739
0.894629
0.887908
0.883167
0.882486
0.885159
0.889782
0.894824
0.898734
0.900822
0.901726
0.905307
0.912191
0.918711
0.922721
0.923418
0.921814
0.919177
0.918687
0.919794
0.920741
0.91959
0.918206
0.918378
0.92004
0.922256
0.926735
0.945433
0.962284
0.968525
0.970563
0.969797
0.963586
0.956277
0.949941
0.945297
0.943687
0.945815
0.949972
0.955371
0.967366
0.987524
1.00316
1.01099
1.01548
1.01946
1.02033
1.01569
1.00678
0.999605
0.996267
0.996522
1.00071
1.00866
1.02459
1.04183
1.05427
1.06366
1.07056
1.07097
1.0657
1.05539
1.03074
1.20372
1.65873
0.837978
0.841227
0.848746
0.855935
0.860094
0.858594
0.848104
0.841213
0.83932
0.838983
0.840414
0.848299
0.863013
0.875629
0.88152
0.88449
0.886255
0.886459
0.884767
0.882867
0.880936
0.874246
0.866445
0.862652
0.862696
0.867158
0.876518
0.884703
0.889914
0.896804
0.907008
0.911774
0.913991
0.915106
0.91107
0.901032
0.893873
0.890813
0.890341
0.891452
0.894645
0.899537
0.905775
0.915231
0.925519
0.932099
0.936899
0.93923
0.93793
0.934402
0.931093
0.930224
0.930677
0.931823
0.932134
0.929516
0.928253
0.930101
0.93344
0.938119
0.9517
0.970702
0.980614
0.982556
0.982306
0.977657
0.972802
0.969378
0.965087
0.960037
0.957578
0.958138
0.961061
0.965301
0.975133
0.995124
1.01249
1.0206
1.02481
1.02806
1.03052
1.02934
1.02251
1.01386
1.00843
1.00714
1.00891
1.01377
1.02458
1.04124
1.05457
1.06365
1.07119
1.07478
1.07373
1.06585
1.04553
1.20529
1.67306
0.853852
0.866698
0.873119
0.876261
0.87454
0.8621
0.851304
0.848137
0.847841
0.848163
0.84917
0.854283
0.864877
0.880912
0.89536
0.901136
0.904012
0.904719
0.90313
0.898499
0.88874
0.879101
0.873279
0.870883
0.870849
0.872108
0.875372
0.882876
0.901119
0.922678
0.929741
0.932407
0.933241
0.92739
0.914255
0.906566
0.904137
0.903637
0.903904
0.905075
0.908002
0.913189
0.92049
0.928601
0.936909
0.943909
0.947244
0.947061
0.944653
0.941851
0.941915
0.943316
0.944785
0.946144
0.945988
0.941693
0.938945
0.940221
0.943687
0.951648
0.965839
0.97954
0.986172
0.987779
0.986226
0.983672
0.982975
0.982204
0.979133
0.973882
0.969821
0.969039
0.971098
0.97548
0.98212
0.99188
1.00808
1.02177
1.02909
1.03381
1.03783
1.03932
1.03445
1.02477
1.01764
1.01515
1.01659
1.02079
1.02725
1.03925
1.05244
1.06088
1.06747
1.07215
1.0737
1.06959
1.05646
1.21042
1.6829
0.876275
0.887363
0.890431
0.889227
0.875123
0.859064
0.853302
0.852778
0.85421
0.856825
0.861131
0.869278
0.883631
0.897729
0.90598
0.910718
0.913609
0.913824
0.908859
0.899323
0.890194
0.884662
0.882486
0.882233
0.88278
0.883697
0.88573
0.89787
0.921213
0.934256
0.939696
0.942682
0.939685
0.924997
0.915119
0.912539
0.912938
0.914515
0.91829
0.923578
0.928487
0.932103
0.93485
0.938124
0.941808
0.944819
0.94648
0.947632
0.949267
0.951236
0.953663
0.956172
0.958415
0.960357
0.959757
0.955649
0.952925
0.953613
0.956308
0.962325
0.970044
0.977873
0.984649
0.989175
0.992096
0.994349
0.99506
0.993714
0.991191
0.986966
0.982603
0.980635
0.981384
0.984034
0.98749
0.991676
0.999277
1.01568
1.03111
1.03881
1.04231
1.04379
1.04158
1.03406
1.02609
1.0228
1.02385
1.02819
1.03445
1.04117
1.05023
1.05898
1.06574
1.07092
1.07303
1.07159
1.06308
1.21821
1.69088
0.895756
0.900273
0.900762
0.891096
0.867912
0.856
0.854252
0.855494
0.857907
0.862724
0.874411
0.893305
0.906297
0.911034
0.913573
0.915614
0.915513
0.910477
0.904544
0.899176
0.894721
0.892853
0.892982
0.894342
0.895706
0.897363
0.906867
0.924265
0.934695
0.940262
0.943403
0.943348
0.932361
0.922784
0.919851
0.920095
0.921196
0.924565
0.933187
0.940373
0.943742
0.945895
0.946708
0.944809
0.942515
0.943017
0.945652
0.949316
0.953805
0.959574
0.965164
0.968634
0.971098
0.971856
0.969377
0.965751
0.963907
0.96434
0.966776
0.97001
0.972358
0.975151
0.979541
0.987931
0.996894
1.00201
1.00435
1.00515
1.00318
0.999048
0.994748
0.991772
0.991048
0.991973
0.992916
0.993129
0.996054
1.00317
1.01989
1.03443
1.04141
1.04415
1.04487
1.04251
1.03691
1.03338
1.03365
1.03628
1.03984
1.04409
1.04895
1.05662
1.06487
1.0712
1.07414
1.07352
1.0673
1.22833
1.698
0.910141
0.911847
0.907517
0.883157
0.859849
0.853054
0.852971
0.854487
0.857358
0.864621
0.888405
0.913714
0.921804
0.923617
0.922524
0.918852
0.910948
0.903309
0.898816
0.896543
0.896069
0.897226
0.899177
0.901067
0.903309
0.912796
0.930813
0.94047
0.943131
0.944899
0.94561
0.936739
0.926866
0.924335
0.924797
0.926146
0.92978
0.938985
0.946877
0.951521
0.954291
0.955264
0.9521
0.946532
0.945107
0.945926
0.947518
0.950346
0.956401
0.966183
0.97231
0.975144
0.975533
0.973388
0.972318
0.973505
0.975228
0.976586
0.978025
0.978976
0.977311
0.975643
0.97661
0.980949
0.992273
1.00286
1.00846
1.0108
1.01106
1.00948
1.00684
1.00457
1.00342
1.00271
1.0011
0.998741
0.997552
0.999617
1.0048
1.01852
1.03331
1.0414
1.0447
1.04634
1.04672
1.04639
1.04602
1.04568
1.04504
1.04508
1.0484
1.05303
1.0606
1.06946
1.07469
1.07488
1.07181
1.23896
1.70486
0.918386
0.91922
0.904825
0.874449
0.857824
0.854339
0.854498
0.855631
0.858361
0.870112
0.901592
0.92179
0.927948
0.930153
0.929943
0.920179
0.907194
0.901351
0.898229
0.89539
0.894909
0.896769
0.899526
0.903001
0.90954
0.926155
0.942976
0.949381
0.950964
0.950884
0.944272
0.932503
0.926753
0.926851
0.929125
0.933035
0.940599
0.949301
0.954611
0.956957
0.956917
0.954282
0.951893
0.951167
0.950765
0.95159
0.95427
0.960135
0.96514
0.967075
0.969465
0.971315
0.971144
0.971161
0.97299
0.980094
0.987476
0.991892
0.993251
0.990967
0.984857
0.979206
0.97669
0.976983
0.980732
0.992241
1.00427
1.0111
1.01454
1.01716
1.01922
1.02046
1.01963
1.01554
1.00978
1.0047
1.00075
0.998697
1.00008
1.0049
1.01655
1.03102
1.04092
1.0469
1.0517
1.05579
1.05778
1.05689
1.05335
1.04924
1.0479
1.04997
1.05296
1.0594
1.06878
1.07319
1.07464
1.25047
1.71152
0.922967
0.917574
0.89124
0.871021
0.861776
0.858376
0.858491
0.859666
0.86635
0.886529
0.909163
0.92372
0.929057
0.929589
0.924007
0.915482
0.909874
0.905138
0.901483
0.900088
0.90113
0.903146
0.905077
0.907446
0.912813
0.929065
0.94495
0.950503
0.951569
0.95105
0.944712
0.935958
0.933349
0.934761
0.936779
0.939323
0.945666
0.952981
0.955994
0.956012
0.953386
0.95328
0.955178
0.957741
0.961045
0.96469
0.968484
0.971186
0.969024
0.962007
0.957135
0.957537
0.96242
0.969327
0.979296
0.991455
1.00119
1.00558
1.00689
1.00158
0.99114
0.982682
0.976943
0.973869
0.973716
0.977252
0.988838
1.00432
1.01621
1.02544
1.0323
1.03517
1.03494
1.02872
1.01877
1.00981
1.00395
1.00143
1.00098
1.00281
1.00677
1.01577
1.03007
1.04354
1.05329
1.05917
1.06249
1.06383
1.06171
1.0563
1.05068
1.04766
1.04697
1.04726
1.05475
1.06404
1.07255
1.25964
1.7165
0.925257
0.904315
0.881087
0.871098
0.86708
0.865642
0.866492
0.872785
0.887391
0.899479
0.909062
0.916674
0.920573
0.920615
0.918896
0.918375
0.918057
0.917338
0.915179
0.912004
0.908933
0.907808
0.908819
0.910563
0.914731
0.928997
0.943091
0.949649
0.952166
0.953224
0.949889
0.944358
0.941958
0.941434
0.941554
0.942657
0.945866
0.949963
0.951343
0.950433
0.950607
0.954582
0.961501
0.970062
0.97569
0.978161
0.979134
0.975439
0.962618
0.948814
0.944108
0.94493
0.950718
0.966956
0.990295
1.00712
1.01336
1.01517
1.01367
1.00593
0.992825
0.981201
0.974368
0.97081
0.96999
0.971461
0.975923
0.989932
1.01319
1.03139
1.03944
1.04333
1.04409
1.04049
1.03087
1.01866
1.00996
1.00632
1.00559
1.006
1.0076
1.01067
1.01891
1.03562
1.05132
1.0602
1.06456
1.06655
1.06565
1.06218
1.05621
1.04839
1.04181
1.03908
1.04124
1.05054
1.06398
1.2657
1.71884
0.916927
0.892952
0.879735
0.87414
0.873436
0.874996
0.881959
0.894404
0.902102
0.905478
0.906959
0.907586
0.909512
0.913607
0.918672
0.923349
0.928016
0.930308
0.930714
0.92489
0.915977
0.912397
0.91208
0.913013
0.916108
0.928665
0.941588
0.949053
0.953327
0.955758
0.956201
0.950658
0.945788
0.943793
0.942491
0.940603
0.939697
0.941685
0.945577
0.948752
0.954085
0.964144
0.97583
0.981918
0.984437
0.985914
0.984073
0.969207
0.948428
0.938581
0.937539
0.939465
0.943695
0.961702
0.998182
1.01471
1.01869
1.0199
1.01579
1.00242
0.988937
0.979964
0.973809
0.97085
0.970542
0.972552
0.976647
0.983974
1.00164
1.02733
1.04061
1.04479
1.04549
1.04428
1.04146
1.03206
1.02177
1.0155
1.01292
1.01257
1.01316
1.01451
1.01772
1.02869
1.04744
1.06015
1.06603
1.06875
1.06843
1.06473
1.05981
1.05261
1.04268
1.03394
1.03144
1.0383
1.05541
1.2667
1.71859
0.907991
0.892475
0.884534
0.882846
0.884542
0.890495
0.900045
0.90588
0.908634
0.908421
0.903639
0.90188
0.902692
0.907131
0.917607
0.930368
0.935819
0.938054
0.939268
0.934149
0.922157
0.914349
0.913151
0.913909
0.918154
0.931904
0.944415
0.950381
0.953867
0.956509
0.957528
0.952824
0.946091
0.940423
0.935658
0.933355
0.933696
0.9361
0.941549
0.950776
0.96707
0.982029
0.98775
0.989359
0.989625
0.988903
0.977538
0.957154
0.942244
0.936226
0.935905
0.937401
0.9429
0.968931
0.999871
1.01429
1.01883
1.01895
1.00911
0.997788
0.989822
0.981422
0.975336
0.973277
0.973853
0.978141
0.985858
0.992412
0.997993
1.01151
1.03007
1.03874
1.04111
1.04149
1.04197
1.04181
1.03719
1.03045
1.02474
1.02103
1.01992
1.02088
1.02311
1.02813
1.04343
1.05938
1.0669
1.06965
1.07016
1.06635
1.06082
1.05597
1.04838
1.03797
1.03119
1.03308
1.051
1.26595
1.71791
0.905709
0.900072
0.896634
0.896738
0.899676
0.905221
0.908987
0.910623
0.90912
0.903574
0.901638
0.902106
0.904334
0.911004
0.923751
0.933305
0.938172
0.940479
0.941338
0.934438
0.921214
0.916223
0.916129
0.917272
0.924823
0.941857
0.951304
0.954545
0.956407
0.957313
0.95438
0.946725
0.939198
0.933886
0.93039
0.929571
0.930626
0.932526
0.937244
0.955052
0.978303
0.988248
0.991883
0.99344
0.991977
0.980927
0.964864
0.951029
0.942174
0.93811
0.938011
0.941368
0.958829
0.979333
0.993755
1.00471
1.00881
1.00635
0.99939
0.995305
0.994609
0.991036
0.984849
0.982277
0.983745
0.988447
0.993503
0.997584
0.999971
1.00242
1.01201
1.02785
1.03704
1.04108
1.04393
1.04641
1.04713
1.04472
1.03982
1.03343
1.0286
1.02731
1.02909
1.03212
1.04113
1.05672
1.06677
1.06964
1.07026
1.06718
1.06138
1.05752
1.05471
1.04832
1.04071
1.03563
1.04611
1.26472
1.71757
0.906296
0.909611
0.911493
0.91159
0.911876
0.912459
0.913151
0.909553
0.90306
0.900826
0.901447
0.903247
0.909616
0.922243
0.930786
0.935223
0.938037
0.939435
0.935551
0.925698
0.920266
0.919554
0.92042
0.924127
0.939643
0.952294
0.956777
0.958758
0.9584
0.951941
0.943383
0.937944
0.934778
0.932171
0.930551
0.930534
0.931759
0.93688
0.949624
0.964379
0.977714
0.987624
0.990584
0.989172
0.982099
0.972186
0.962837
0.953534
0.945555
0.944581
0.948107
0.96263
0.978913
0.985098
0.987012
0.987892
0.990039
0.994737
0.998716
1.00068
1.00177
1.00286
1.00126
0.997674
0.996334
0.99653
0.997876
0.998139
0.997855
0.999379
1.00316
1.01393
1.02956
1.03989
1.0453
1.04864
1.0507
1.05139
1.04964
1.04597
1.03998
1.03553
1.03476
1.0369
1.04046
1.05005
1.06206
1.06697
1.06764
1.06628
1.06136
1.05957
1.05923
1.05784
1.05574
1.04777
1.04031
1.26447
1.7191
0.904451
0.916454
0.9216
0.92392
0.924045
0.919772
0.912049
0.904151
0.900531
0.900886
0.902571
0.907854
0.920716
0.930455
0.934693
0.936761
0.937086
0.931718
0.923545
0.92034
0.92092
0.921788
0.92623
0.940818
0.953481
0.957955
0.959509
0.958074
0.949672
0.941301
0.937707
0.936832
0.93604
0.934123
0.93378
0.935964
0.944087
0.956439
0.964172
0.966429
0.968101
0.971133
0.974902
0.975733
0.974433
0.970335
0.966345
0.961504
0.96011
0.962897
0.971779
0.981929
0.986687
0.987876
0.981516
0.973267
0.972957
0.981189
0.996734
1.00575
1.00967
1.01416
1.01804
1.01783
1.01029
1.00221
0.997836
0.996489
0.997099
0.999811
1.00348
1.00761
1.01674
1.03018
1.04019
1.04591
1.04883
1.05008
1.05061
1.05186
1.05128
1.04668
1.04198
1.04016
1.04073
1.04313
1.04989
1.05638
1.05915
1.06024
1.06058
1.06136
1.0656
1.06829
1.06873
1.06257
1.04687
1.26406
1.72102
0.898857
0.916522
0.92438
0.926498
0.927284
0.924904
0.913904
0.904754
0.902828
0.903547
0.908872
0.921106
0.930501
0.934606
0.936404
0.934842
0.927248
0.919837
0.917549
0.918718
0.92164
0.930733
0.945244
0.954632
0.957886
0.959078
0.954677
0.9456
0.939195
0.936381
0.936475
0.937802
0.939021
0.940379
0.945455
0.955335
0.963573
0.967841
0.968888
0.963768
0.954785
0.952049
0.956782
0.967335
0.973191
0.974693
0.974361
0.976132
0.981724
0.988896
0.993199
0.994275
0.992691
0.984717
0.973476
0.967952
0.968429
0.972262
0.985267
1.00449
1.01759
1.02644
1.03107
1.03283
1.02673
1.01293
1.0032
1.00013
1.00099
1.00354
1.0064
1.00945
1.01192
1.01561
1.02336
1.03221
1.03907
1.04444
1.04957
1.05392
1.05744
1.0567
1.04939
1.04191
1.03845
1.03767
1.03825
1.04096
1.04468
1.04959
1.0559
1.06269
1.07067
1.07798
1.08028
1.07609
1.06035
1.26179
1.72344
0.896619
0.908929
0.918741
0.921474
0.92079
0.916744
0.91297
0.911405
0.912467
0.918222
0.926625
0.931879
0.934394
0.935083
0.930728
0.923002
0.917261
0.91565
0.917173
0.922789
0.93605
0.950903
0.958567
0.960857
0.957162
0.946825
0.938503
0.935562
0.935992
0.937893
0.939136
0.940257
0.943941
0.954521
0.966696
0.973235
0.976228
0.976146
0.967233
0.951537
0.942781
0.941562
0.943525
0.952882
0.969106
0.979908
0.988531
0.997164
1.00213
1.00382
1.00419
1.00179
0.991956
0.979018
0.970353
0.967434
0.96794
0.970718
0.976342
0.995518
1.01949
1.03036
1.0341
1.035
1.03221
1.02434
1.01567
1.01127
1.01075
1.01157
1.01215
1.01235
1.00972
1.00654
1.00703
1.01242
1.0232
1.03713
1.04981
1.05665
1.05937
1.05989
1.05452
1.04416
1.036
1.03135
1.02876
1.02849
1.03077
1.0362
1.04847
1.06135
1.07282
1.08151
1.08523
1.08214
1.07233
1.25989
1.72548
0.897221
0.900396
0.905228
0.910131
0.913098
0.915334
0.917974
0.924973
0.932188
0.935998
0.937829
0.937644
0.932876
0.923614
0.917016
0.913805
0.913084
0.914949
0.924452
0.943259
0.956134
0.960501
0.962197
0.95924
0.94545
0.932382
0.928874
0.9301
0.933628
0.939223
0.944145
0.949326
0.959779
0.972255
0.978571
0.98098
0.982338
0.976746
0.958116
0.945192
0.941437
0.941385
0.942538
0.945225
0.95731
0.984022
1.00481
1.01278
1.01598
1.01519
1.00876
0.998635
0.988534
0.979428
0.972908
0.970109
0.970514
0.97322
0.977388
0.983541
1.00403
1.02401
1.0317
1.03267
1.03173
1.03159
1.02981
1.02678
1.02372
1.02047
1.0171
1.01204
1.004
0.998855
0.999115
1.0027
1.01143
1.03226
1.05077
1.05714
1.05852
1.05866
1.05438
1.04678
1.03728
1.02894
1.02346
1.02085
1.02134
1.02532
1.03741
1.0561
1.06938
1.08037
1.08628
1.08491
1.07757
1.25871
1.72684
0.894233
0.89426
0.894955
0.898397
0.905432
0.91728
0.933078
0.941783
0.945244
0.947055
0.945313
0.935231
0.920024
0.911222
0.908995
0.90942
0.911399
0.922249
0.946759
0.963405
0.968474
0.969916
0.964933
0.947491
0.929935
0.922859
0.922383
0.924544
0.928562
0.935461
0.9461
0.962668
0.978891
0.985047
0.986326
0.986597
0.982662
0.966616
0.949952
0.942286
0.940851
0.941759
0.943264
0.947418
0.963662
0.989632
1.00737
1.01494
1.01807
1.01702
1.00978
0.999508
0.990476
0.983356
0.978254
0.975763
0.975969
0.978729
0.98148
0.983317
0.98796
1.00578
1.02252
1.03049
1.03465
1.03774
1.03802
1.03785
1.0357
1.03043
1.02273
1.01212
1.00146
0.996365
0.996282
0.999282
1.00666
1.02958
1.04931
1.05541
1.05666
1.05537
1.04863
1.044
1.04142
1.03453
1.02522
1.01871
1.01701
1.01933
1.02529
1.0434
1.06113
1.07339
1.08166
1.08301
1.07833
1.259
1.72721
0.891045
0.892903
0.894131
0.898313
0.909774
0.929434
0.941365
0.945547
0.947901
0.948898
0.942357
0.922447
0.907974
0.904058
0.904269
0.906372
0.917262
0.945273
0.966113
0.971722
0.97327
0.972645
0.959605
0.937661
0.924996
0.920737
0.920274
0.921527
0.923423
0.927707
0.943894
0.972436
0.989575
0.994873
0.99628
0.99521
0.982378
0.961779
0.948909
0.943763
0.942804
0.94371
0.946927
0.961428
0.977585
0.987119
0.998559
1.00756
1.00956
1.00544
1.00167
1.0009
0.998676
0.99231
0.986459
0.983301
0.982529
0.983477
0.984864
0.986397
0.988542
0.993221
1.00622
1.02213
1.03235
1.03825
1.04156
1.04117
1.03938
1.03618
1.03033
1.01876
1.00517
0.999508
1.00102
1.00583
1.01659
1.03267
1.04433
1.05006
1.0514
1.05026
1.04538
1.04411
1.04526
1.04499
1.03706
1.02677
1.01973
1.01681
1.01847
1.02652
1.04635
1.06334
1.07353
1.0774
1.07826
1.26193
1.72879
0.889538
0.892483
0.894939
0.907125
0.926485
0.936932
0.941676
0.945294
0.947543
0.94514
0.926594
0.90927
0.90428
0.904329
0.905579
0.90942
0.935907
0.969391
0.978043
0.978965
0.976941
0.966164
0.946356
0.931249
0.924468
0.922028
0.921783
0.922863
0.924268
0.927107
0.942203
0.972828
0.990947
0.996164
0.99706
0.991928
0.979504
0.96512
0.953305
0.948457
0.94839
0.950653
0.961975
0.978608
0.985171
0.986318
0.986867
0.986568
0.988686
0.994343
1.00004
1.00424
1.00723
1.00584
0.999211
0.993991
0.991133
0.989886
0.990734
0.993352
0.995997
0.998655
1.00246
1.00702
1.01444
1.02451
1.03283
1.03551
1.03568
1.03522
1.03487
1.03171
1.02335
1.01901
1.01889
1.02194
1.0272
1.03399
1.03766
1.04018
1.04354
1.04543
1.04556
1.04568
1.0484
1.05098
1.05021
1.04263
1.03015
1.01983
1.01721
1.01926
1.03013
1.0503
1.06391
1.06798
1.07424
1.2669
1.73198
0.889933
0.893467
0.901743
0.923389
0.93767
0.942085
0.943698
0.944976
0.942881
0.927388
0.909464
0.901498
0.900772
0.902742
0.90571
0.918103
0.960346
0.983938
0.987799
0.988488
0.983171
0.959357
0.938576
0.930034
0.926019
0.924206
0.924487
0.92584
0.927889
0.935125
0.948348
0.963926
0.980886
0.98947
0.992002
0.991442
0.984418
0.972311
0.963861
0.960152
0.960657
0.965734
0.978297
0.986279
0.987655
0.985958
0.974867
0.96693
0.967948
0.979982
0.996968
1.00605
1.00995
1.01309
1.01373
1.01073
1.00541
1.00163
1.00127
1.00245
1.00345
1.00392
1.00107
0.996749
0.99546
0.999344
1.01045
1.02403
1.0321
1.03719
1.04197
1.04582
1.04598
1.04069
1.03619
1.03491
1.03511
1.03543
1.03397
1.03237
1.03356
1.03973
1.04652
1.05142
1.05623
1.05901
1.05847
1.05366
1.04361
1.02955
1.02043
1.01906
1.02336
1.03548
1.04917
1.05473
1.06436
1.27368
1.73613
0.891894
0.900651
0.916666
0.932179
0.940802
0.944001
0.944714
0.941811
0.929592
0.913707
0.903449
0.899205
0.898955
0.900595
0.905947
0.93699
0.973158
0.986099
0.989791
0.988617
0.972485
0.950599
0.938669
0.932561
0.92971
0.929176
0.930108
0.931971
0.936503
0.946759
0.953994
0.958115
0.966227
0.97905
0.98698
0.98957
0.987927
0.983274
0.978748
0.977172
0.978637
0.983733
0.988733
0.989779
0.987993
0.97686
0.963227
0.958913
0.9604
0.965874
0.981468
1.00005
1.01152
1.01877
1.02403
1.02597
1.02324
1.01768
1.01373
1.01174
1.01025
1.00691
0.997643
0.98802
0.983873
0.984504
0.98896
1.0052
1.02926
1.04543
1.05282
1.05626
1.05603
1.05096
1.04695
1.04379
1.03954
1.03494
1.03171
1.02971
1.02935
1.0335
1.04554
1.05391
1.05952
1.06114
1.06116
1.05825
1.05019
1.03977
1.03068
1.02458
1.02257
1.02778
1.03469
1.03878
1.04782
1.27953
1.73952
0.902428
0.914888
0.925384
0.934256
0.93809
0.938749
0.937125
0.932243
0.922717
0.91162
0.903902
0.901857
0.903606
0.907855
0.927443
0.954866
0.971374
0.980088
0.981097
0.973115
0.960141
0.950626
0.943582
0.939095
0.936364
0.935634
0.936967
0.940169
0.947995
0.955515
0.958429
0.958722
0.959182
0.961297
0.969294
0.979593
0.986247
0.989204
0.993626
0.997275
0.998996
0.99874
0.996255
0.990846
0.979913
0.965853
0.957486
0.955816
0.957551
0.960766
0.966239
0.983835
1.00864
1.02319
1.02925
1.032
1.0337
1.03264
1.0281
1.02276
1.01718
1.0071
0.992497
0.981588
0.978092
0.979151
0.982117
0.994215
1.02629
1.04867
1.05542
1.05848
1.05712
1.05303
1.0497
1.04625
1.04247
1.03807
1.0336
1.03087
1.03169
1.03522
1.03929
1.04754
1.05398
1.05579
1.05615
1.0559
1.0524
1.04718
1.04342
1.03706
1.0312
1.02795
1.02865
1.02637
1.03168
1.28707
1.73999
0.916419
0.92183
0.926438
0.930567
0.932101
0.931447
0.930229
0.928339
0.922428
0.912879
0.908807
0.910255
0.913796
0.928335
0.950432
0.960736
0.964538
0.965852
0.961177
0.954356
0.95242
0.952826
0.952752
0.949706
0.94663
0.946355
0.948562
0.953367
0.958522
0.960881
0.961647
0.960204
0.954657
0.950941
0.952271
0.961252
0.979494
0.995376
1.00566
1.01264
1.01454
1.01211
1.0034
0.990655
0.974668
0.96227
0.957597
0.956957
0.958723
0.963772
0.970266
0.977685
0.992492
1.01437
1.02709
1.03153
1.03332
1.03517
1.03652
1.03486
1.02832
1.01168
0.991942
0.980431
0.9774
0.978585
0.982313
0.999958
1.02869
1.04482
1.05262
1.05658
1.05324
1.04679
1.04373
1.04458
1.04582
1.04631
1.04425
1.03979
1.03565
1.03252
1.03085
1.03132
1.03732
1.04545
1.05112
1.05329
1.05512
1.05687
1.05472
1.04993
1.0453
1.03888
1.02993
1.01662
1.00997
1.2973
1.73911
0.926732
0.926992
0.924593
0.923078
0.924117
0.927055
0.928861
0.92991
0.926264
0.919694
0.919415
0.922022
0.929573
0.945687
0.956318
0.96007
0.959575
0.948768
0.938856
0.938219
0.942777
0.950917
0.955552
0.959015
0.961813
0.963829
0.964864
0.964975
0.964424
0.962642
0.959806
0.956554
0.95181
0.947767
0.947291
0.950165
0.962609
0.987967
1.00706
1.01548
1.01741
1.01711
1.01284
0.99621
0.975777
0.96481
0.961213
0.962077
0.96774
0.973485
0.977224
0.980369
0.984709
0.993262
1.00825
1.01985
1.02589
1.03029
1.03308
1.03284
1.03014
1.01914
0.997739
0.984183
0.98169
0.983612
0.993912
1.01465
1.02824
1.03496
1.03955
1.04016
1.03849
1.03803
1.03987
1.04528
1.05271
1.05733
1.05816
1.05272
1.04107
1.02806
1.01905
1.01761
1.02219
1.03345
1.04784
1.05923
1.06454
1.06479
1.0611
1.05782
1.05606
1.05233
1.03613
1.01228
0.992957
1.3016
1.73634
0.93115
0.926728
0.919337
0.917738
0.919447
0.926497
0.931977
0.933689
0.934191
0.931295
0.931
0.933632
0.941942
0.951957
0.955722
0.955758
0.948413
0.933691
0.926753
0.926695
0.929982
0.941892
0.95795
0.969353
0.976616
0.9797
0.979374
0.974364
0.966264
0.959201
0.954536
0.951746
0.950373
0.949921
0.952203
0.9616
0.968449
0.97182
0.984467
1.00154
1.00844
1.00889
1.00567
0.999348
0.987735
0.977052
0.973563
0.974261
0.977525
0.980547
0.982402
0.983881
0.985121
0.985199
0.987938
0.999828
1.01626
1.0272
1.03202
1.03364
1.03298
1.02558
1.00914
0.99798
0.995764
0.99879
1.00989
1.02059
1.026
1.02581
1.02164
1.02084
1.02366
1.02938
1.03789
1.05054
1.06156
1.0661
1.06705
1.06355
1.04704
1.02358
1.0126
1.01114
1.01356
1.01996
1.04147
1.06288
1.06756
1.06673
1.06562
1.0638
1.06367
1.06193
1.04584
1.01597
0.985201
1.29778
1.73377
0.930205
0.920576
0.914418
0.91427
0.916086
0.923972
0.934794
0.940513
0.94386
0.944654
0.942429
0.942498
0.945474
0.950147
0.951577
0.9484
0.939132
0.930721
0.926278
0.925097
0.92601
0.932269
0.952931
0.973265
0.980817
0.983471
0.984745
0.983044
0.972777
0.958518
0.952588
0.951725
0.953007
0.959324
0.967989
0.970937
0.968526
0.962377
0.960144
0.969487
0.991419
1.00269
1.00478
1.00551
1.0053
0.998384
0.990159
0.986161
0.985347
0.985735
0.985957
0.985422
0.982608
0.980733
0.981256
0.984568
0.996819
1.01657
1.02803
1.03159
1.03186
1.02742
1.02101
1.01623
1.01554
1.0174
1.02172
1.02404
1.02204
1.01441
1.00734
1.00614
1.00864
1.01637
1.03519
1.05433
1.06544
1.0695
1.07134
1.06797
1.04641
1.02489
1.01577
1.01442
1.01689
1.02471
1.04192
1.05645
1.06184
1.06212
1.06247
1.06378
1.06544
1.06641
1.05332
1.02584
1.0016
1.2877
1.73172
0.924566
0.91585
0.913572
0.914015
0.915558
0.919985
0.934415
0.945914
0.950786
0.953307
0.953738
0.950568
0.947436
0.945481
0.943877
0.939646
0.933527
0.929295
0.927774
0.928467
0.934011
0.943392
0.951517
0.964458
0.976641
0.981328
0.981495
0.9758
0.967715
0.961628
0.957508
0.957971
0.966995
0.976868
0.979251
0.974546
0.961359
0.950512
0.947442
0.949299
0.963839
0.99093
1.00662
1.01319
1.01746
1.01826
1.00916
0.997894
0.992226
0.989304
0.987178
0.98593
0.984721
0.98257
0.981804
0.983247
0.986704
0.995904
1.01336
1.02412
1.02738
1.02862
1.03066
1.03251
1.03254
1.032
1.03035
1.02623
1.01855
1.00939
1.00172
0.997927
0.997942
1.00148
1.02258
1.05028
1.06323
1.06827
1.06848
1.05913
1.04425
1.0314
1.02436
1.02459
1.02893
1.03225
1.03689
1.04418
1.04911
1.05121
1.05352
1.06042
1.06374
1.06563
1.06005
1.03822
1.02252
1.27374
1.73135
0.917792
0.913274
0.913382
0.914423
0.915695
0.919012
0.931843
0.946534
0.953244
0.955748
0.956605
0.955631
0.950783
0.944533
0.940913
0.938
0.933556
0.931164
0.932452
0.938108
0.945513
0.948101
0.949263
0.950359
0.954856
0.964229
0.969599
0.970553
0.969913
0.969448
0.972282
0.981134
0.986764
0.986939
0.98169
0.964951
0.949833
0.943896
0.943218
0.944776
0.948932
0.967993
1.00276
1.01853
1.02321
1.02318
1.01759
1.01011
1.00199
0.996001
0.993495
0.992785
0.990972
0.988136
0.986819
0.986351
0.985651
0.986333
0.992128
1.00676
1.02144
1.03309
1.04066
1.04325
1.04391
1.04225
1.03555
1.02745
1.02049
1.01152
1.00223
0.99706
0.996136
0.997702
1.00783
1.0352
1.05454
1.06062
1.05921
1.05231
1.04434
1.03841
1.03643
1.03901
1.03912
1.03598
1.03032
1.0267
1.03186
1.04023
1.04865
1.05923
1.06337
1.06334
1.06221
1.0504
1.04349
1.26713
1.7341
0.912988
0.909767
0.910897
0.913052
0.919143
0.928896
0.934421
0.937999
0.942767
0.945938
0.948222
0.949924
0.950501
0.950567
0.947206
0.942933
0.941284
0.942111
0.945144
0.949321
0.950671
0.949857
0.944795
0.938324
0.936557
0.941396
0.955612
0.966727
0.972921
0.984469
0.998082
1.0025
1.00171
0.992463
0.973295
0.953904
0.943981
0.942457
0.9436
0.946766
0.953697
0.96879
0.990127
1.01264
1.02092
1.01986
1.01195
1.0055
1.00247
1.00241
1.00597
1.0072
1.00527
0.998815
0.992181
0.986736
0.983645