/*--------------------------------*- C++ -*----------------------------------*\
  =========                 |
  \\      /  F ield         | OpenFOAM: The Open Source CFD Toolbox
   \\    /   O peration     | Website:  https://openfoam.org
    \\  /    A nd           | Version:  12
     \\/     M anipulation  |
\*---------------------------------------------------------------------------*/
FoamFile
{
    format      ascii;
    class       volScalarField;
    location    "3.35";
    object      p;
}
// * * * * * * * * * * * * * * * * * * * * * * * * * * * * * * * * * * * * * //

dimensions      [1 -1 -2 0 0 0 0];

internalField   nonuniform List<scalar> 
22702
(
1
1
0.870917
1
1.05141
1
1.47089
1
1
0.655091
1.46978
1.47044
1
1.47187
0.887582
1
1
1
1.47
1
1.47131
1
1.47475
0.66019
1.47206
0.656032
1
1.47214
0.653338
0.648003
1
1.47114
1
1
1
1.43482
1.47571
1.47478
1
1
0.656229
1
1.23031
1
1.47216
1
1
1
1
0.658402
1
0.652733
1
1.47004
1
1.474
1
1
1
1
0.660258
1
1
0.653107
1
0.651074
1
1
1
0.661177
1
1.47101
1.28557
1
1.47135
1.49633
0.638229
1.46501
0.663917
1
1.46979
0.662215
1.47989
1.47574
1
1
1
1
0.929734
0.658835
1.47609
1
1
0.656101
1
1.47116
0.656208
1
1
1
1
1.2325
1.47125
0.658879
1
1
1.10951
1
0.663133
1
1.46759
1.47392
1
1
0.640543
0.635142
0.657348
1
1
1
1
1
0.917152
1
1.40142
1.03846
1.46556
1
1.4677
1.47237
1.47194
1.46773
1
0.66369
1
0.657439
1
1
1
1
1.47605
1
1
1
1
1.4723
1
1.02814
1
1
1
1
0.662982
1
1.01147
1
0.661246
1
1
1
1.47463
1
1.47157
0.639656
0.659635
1.47051
1.47057
1
1.08017
1.26528
1
1.47494
0.664756
1.4359
1
1
1
1
1.47134
1.38895
1
1.47214
0.659189
1.47505
1
0.652046
1
0.65359
0.65533
0.999789
1
1
1.47244
1
1
1.4717
1
1.47966
1.47173
0.661737
1
1
0.65242
1.47104
1
1
1
1.47104
1
0.657294
1
1
1.47161
1.4714
1.47554
1
1.00004
1
1
1
1.47078
1
0.662553
1.48799
1.47173
1.4725
1
1
1
0.645958
1.47165
1.22283
1
1.47307
0.669376
0.667492
1.47309
1.46855
1
1.47882
0.671885
1.41441
1
1
1
1
1.47122
1
1.26312
1.04355
1
1
1.47122
0.657646
0.776148
1
1.46893
0.658024
1.47825
1
1
1
1
1
1
1
0.654934
0.777348
0.667975
1.47129
1
1
1
1
1.42028
1
0.65967
1
0.635804
0.654103
1.47191
0.669502
1.47171
1
1
1
0.997589
0.654574
0.666362
0.999999
1
0.633013
1
1.47527
0.657675
1
1
1.46768
0.639355
1
1.46799
0.658023
1.47099
1
0.642914
0.997628
1
1
1
0.656505
1
1
0.999999
1.00001
1.00429
1.28668
1
0.666776
1
1
1
1
1
1
1
1.46753
1
1.4718
1
1
1
0.654142
1
1.47204
0.673744
1
1.35989
1
1
1.47195
1
1
1
1.46629
1
1
1.46235
1.47112
1
1.09826
1
1
0.657174
1
1
1
0.655545
1
1
1
1
0.645417
1
1
1
1
1
0.659351
1.00006
1.47098
1
1
1.47059
1.47052
1
1
0.672124
0.807633
1.47225
1
1
1
1.47049
0.661946
1
1.47129
1
1
0.720782
0.694089
1
0.661039
0.682049
1
1
1
1
1
1
1
1.46445
1.11141
1.43988
0.659977
0.895412
1.47724
1
1.47191
1.47249
0.665007
0.772858
1
0.659507
1
1.48192
1
1
1
1
1.47104
1
1
1
1
1
1
1
1.17424
1.47524
1
1.47113
1
1
0.65823
1
1
1
1
1.471
1.35644
1
1
0.66218
1.47191
1.47196
1
1.47191
1.4719
1.47122
1
0.827146
1
1.47184
0.991546
1.47113
1
0.665754
0.998828
1.47
1
1
1
1
0.66082
1.4717
1.42476
1
1.46964
1.47104
1.47206
1
1.2127
1.47148
1
1
1.3224
1.06754
1.47174
0.929376
1.47193
1
1.47184
1.4713
1.47181
1.47203
1
1.45013
0.889532
0.868953
1
0.999999
1
1
1.47207
1
1
1
1
1
1.47055
1
1
0.99649
1.47193
1.42803
1
1.39212
1.00004
1
1
1.47126
1
0.996393
1.00349
1
1.471
1
1.47194
1
1
1.34607
1
1.47215
1.00002
1
1.47239
1
1.47116
1
1
1
1.47133
1
1.47273
1.00001
1.47113
1.47302
1.47163
1.46753
1
1.47196
1.45897
1
0.6461
1.44111
1.33801
1
1.47137
1
0.657554
0.656988
1
1
1
1
1
0.656264
1
1.47107
1.10834
1.47189
1
1
1
1
1
1.47135
1
1.4766
1.27725
0.770278
1
1.00001
1.13321
1.11579
1
1
1.16023
1
0.654353
1.4717
1.4714
1
1
1
1.47501
1
1.00003
1.4761
1.47174
0.961525
1
1
0.652922
1.4273
1
1
1
1
1
1.47155
1.47414
1
1.47226
1.47249
1.47155
1
1
1
1
0.656792
1.4724
1
1
1.42726
1.47003
1
1.44269
1.47401
1
1
1
1
1
1.4712
1
1
1
1
1.4737
1
1.46933
0.659461
1
0.669011
1
1
1
0.996915
0.657946
0.998972
1
1
1
1.05905
1
1
0.893499
1
1
1
1
1
1
1
0.999997
0.910662
0.999999
1
0.997674
1
0.659484
1
1
1
1
1.3481
1
1
1
1
0.678127
1
1
1.44295
1.47229
1
1
1
0.893409
1
1
1
1
1
1
0.952944
1.00002
1.47083
1
1
1
1.47487
0.90097
1
1
1
1.47483
1.46878
1
1.00001
1
1
1
1
1
1
1
0.669646
1
1
1.47065
0.657325
1
1.46967
1
0.664023
1
1
0.679797
1
1
1
1
1
1
1
1.46166
1.47004
1
1
1
1
1.42883
1
1.1453
0.652717
1
1
1
1
1
1
1
1.03895
1
1
1.24965
1
1
1
1.38709
1
1
1
1
0.656407
1
1
0.660978
0.656856
1
1
1.47162
1
0.980231
1
1
1
1.32583
0.664811
1
0.645622
1
0.785149
1
1
1
1.47309
1
1
1.4711
1
1
1
1.47123
1
1
1.47227
1
1
0.666452
1
1.14665
1
1
1.47717
1.47285
1.30718
1.42043
1
0.662333
1
1
1.44917
1
0.633677
1
1
1
1.47247
1
1
1
1
1.27947
1
1.43307
1.47259
0.65635
1
1
0.658999
0.657211
1
1
1
1.33106
1.35455
1
1
1
1
1
1
1
1.19382
1.47318
1.01214
1
1.46593
0.664479
1
1
1
1.25435
1
1.09154
1
1.42867
1.47067
1
0.667196
1
1.47581
1
1
1.47076
1.44113
1
1.47581
1
0.661864
1
1
1
1.45999
1.4619
1.41194
1
1.47308
1.47053
1
1.47311
1
1.47066
1
0.656984
0.972943
0.641567
1
1
1
1
1
1.47167
1
1.47125
1
1
1
1.44685
1
0.655956
1.47071
1
0.666782
0.670067
0.650456
1
1.2212
1.03584
1.47424
1.47073
1
0.999999
1
1
1.47194
1
1
1.4719
1.47126
1
1.16489
0.999944
1
0.996729
1.47101
0.834897
1
0.811276
0.656937
0.65558
0.959166
1.47263
1.46573
1.09071
1.47178
1.47144
1
1
1.46411
1.47206
1.47075
1.47201
1
1.47294
0.636087
1.47043
1.47077
1.47055
1.47682
0.886135
0.916488
0.911886
1.4722
0.944971
1.47278
1
1
1.47477
1.47248
1
0.660487
1.47313
1.47188
1
1.47053
1.47197
1
1.47176
0.675167
1.47565
1.46618
1.47116
1.47885
1
1
1
1.47186
1.29741
0.686548
1.4721
0.649034
1.47187
1
1
1
1
1.46992
1.47298
1
1
1.47318
0.665299
1.47263
0.659907
1
1.46801
1
0.65574
1.47179
0.754306
1
1.47066
1.47357
1.47064
1
1
1.229
1.4737
0.662033
1.47161
1
1.47085
0.880417
1.47171
0.684689
1
1.46952
0.670547
1.47475
0.660508
1
1.47137
1
1.47505
1
1.27062
1.45292
1.36622
0.664575
1
1.47149
1
1.47219
1
1.47176
1
1
1.47145
0.984831
1.47488
0.663014
1.42216
1
1.32885
1
1.47199
1.4714
1.47207
1
1.42258
1.47099
1.43454
1.28323
1.46147
1
1.30389
1
1.47154
1
1.06408
1
1.43523
1
1.47103
1.44818
1.44772
1
1.45874
0.655222
1
0.658425
1
1
1
1.46931
1
1.47236
1
1
1
1.47403
1.46105
1.38776
1.47001
1.47468
0.670202
1.47401
1.48134
1
1.41028
1.47091
1.44811
1
1.47545
1.47416
1
1.47895
1.47115
1.47227
1.4718
1
1
1
1.4716
0.662338
1
1.47249
1
1
0.658615
1
1
1.4714
1.47096
1
1.47147
1.47868
1.47163
0.986293
1.47182
1
1.47157
1.47152
1.37393
1
1
1
1.47207
1.47177
1.47089
0.936947
1
1.47704
1.47135
1.47036
1
1.47188
1.47198
1.47202
1.4787
1
1.4708
1.47755
1.40368
1.46984
1.47742
1
1.46803
1.46609
1.4704
1.46938
1.4703
0.664137
1.47081
1.47035
1
1.47182
1.4701
1.47257
1.47144
1
1.47106
1.47193
1
1.47213
1.39155
1
1
1
1.47111
1.47593
1
1
1.25324
1
1.47086
1
1
1.47164
1.47314
1.47145
1.47123
1
1
1
1.32634
1
1.47122
1
1
1.4654
1.46633
1
1.47087
0.638978
1.47171
1.47494
0.729963
1
0.662692
1.40512
1.47662
1.4717
1.47242
0.647929
1.47064
1.47328
0.653133
0.669742
1
1.47065
1.4715
1
1
1.47108
1
1.47654
1
1.40994
1
1.21703
1.4707
1.47284
1.32822
1.42746
1.47755
1.47074
1.43656
1
0.661029
1.46977
1.4718
1.47462
1.00001
1
1
1.47557
1
1.47105
1.47117
0.750309
1
1.47101
0.999944
1
1.00003
1.00004
1.47187
1.47248
0.998531
1
1
1.47205
1.47431
1.47156
1.47788
1.46988
0.689709
1.39832
1
1.46766
1.47106
1.47117
1.4736
1
1.47159
1.45845
1.4735
1
1.47223
1.47001
0.865599
1.47155
1.47082
1
1.47094
0.850537
1.47233
0.851405
1.47202
1
1.4717
1.48102
1.47132
1.47195
1.47145
1.46962
1.47261
1.4696
1
0.923886
1.47192
1.47177
0.854312
1.47097
0.979003
1.28941
1.47141
1.47094
1.47213
1
1.47493
1.30127
1.46978
0.933411
1.47413
1.47204
1
0.876543
1
1.47467
1
1.31714
1
1.44445
0.872389
1
1.47663
1.46493
1
1.47297
1.47452
1.47449
1.46629
1.47876
1
1.47093
1
1
1
0.892867
1.47175
1.47267
1.47826
1.4709
1.4737
1.47911
1.47732
1.47213
0.889475
1.03198
1
1
1.478
1.47171
1.47145
1.4722
1.00003
1.23534
1
1.47827
1.42103
1
1
0.727687
1.47115
1
1
0.643513
1.47211
1
1.48043
1.47207
1.47858
1.45367
1.47157
1
0.67013
1.11076
1.47173
1.47178
1
1.47005
1.47204
1.22545
1.00973
1.10126
1
1.4756
1.47091
1
1
0.655182
1
1
1.47104
1.47163
1.47411
1.47176
1.47229
1.46988
1.47194
1.47498
1.47137
1
0.996266
1.47054
1.47178
0.996709
1.47209
1.47192
0.673869
0.656858
1.47052
1.46581
1
1
1.00094
1.47079
1.4728
1.47204
1
1.47131
1
0.864577
1.47644
1.46915
1
1.20167
1.47262
1
1.47245
1
1.47105
1.31673
1.47019
1
1.47068
1.46446
0.657332
1.4713
1
1.47181
1.47263
1
0.673861
1.47421
1.38577
0.997641
1.46218
1.47036
1
0.993463
1.46789
0.997739
1.47283
1
1
1.47082
1
1.47053
1.47245
0.996523
1.36758
1
1.47161
1
1
1
1
1.47211
1
1
1.47893
1
1.47157
1
1.30064
1.47638
1.47288
1
1
0.996666
1
1.47114
1.47153
1.47078
1.47212
1.47045
1.47075
1.47138
1
1.47157
1.47312
1
1.4714
1.47084
1
1.472
0.91456
1.05734
1.47098
1.47134
1.47097
1
1.47202
1
1.47185
1.4722
1
1.47093
1
1
1
1
1.47087
0.673777
0.997931
1
1.47062
1.46979
1
1.47126
1
1.0056
0.640961
1.47143
0.999584
1
1.47148
0.998361
1.47151
1
0.999766
1
1.47261
1.47791
1.47046
1.47329
0.657843
1.47029
1.474
1.47126
1.10902
1
1
1.19351
1.47228
0.665595
0.654103
1
1.47195
1.47175
1.4701
1
1
1.47426
1.47065
0.999879
1
1.33901
0.641499
1
1.08235
1.47027
1.46323
0.998258
1.47112
1.47822
1
0.99906
1
1.47341
1.47046
1.18931
1
1.44262
1
1.00169
1.47355
0.658468
1.47014
1.47131
0.996963
0.999912
1.40087
1
0.999687
1
1.4721
1
1.00001
0.648479
1.47163
1.00001
1
1
1
1.47205
1.25794
1
1
0.628665
1.47148
1.25996
1
1
1
1.44937
1.45807
1.47301
1
1
1.47893
1
1.47224
1.47175
1
1
1.4737
1.47073
1.44727
1
1
1.47437
1.47455
1
1
1
1.47419
1
1
1
1.47232
1.4747
1.47489
1
1.47288
1.00003
0.692059
1.47082
1.47175
1
1.47309
1.44394
1.4627
1
1
1.47515
1
1.25864
1.47279
1
0.668783
1
1.47339
1
1
1.47747
1
1
1
1.1392
1.47183
0.675252
1.00001
1.47292
1
1
1.47312
1
1.47399
1
1
1.47147
1.47187
1
1.00005
1
1
1
1
1
1
1.46758
1.47183
1
1.48015
0.66027
1.4653
1
1.47135
1.48329
1.47161
1.46958
1.47583
1
1
1.47441
1
1.27985
1.4738
1.47164
1
1.4752
1.46942
1
1.41584
1
1.47137
1.30203
1.47468
0.997619
1.45709
1.42798
1.47145
1.47194
1.03912
1.47136
1.47356
1
1.47129
1
1.47111
1
1
1
1
0.995628
1.47163
1.47101
1.38254
1
1.47481
1
1
1
0.667408
1
1.46216
1
1.42557
1.46003
1
1
1
1.44186
1.46564
1
1
1.4707
0.656563
1.07305
1
1.47326
1.47186
1.42785
1.46151
1.4715
1
1.47041
1
1
1
1
1.47239
1.47176
1
1.4566
1.05701
1.47239
1.4381
1
1
1.43984
1
1
0.654352
1.32557
1
1
1.47614
1
1.47405
1.43133
1
1.4291
0.657373
1.47096
1.47171
1.47221
1
0.671322
1
1
1
1.47137
1.37524
1
1.48051
1.47185
1
1.47141
1
1
1
1
1.47147
0.99934
1
1.47344
1
1
1.46571
1.47133
1
1.47769
1.08838
1.00002
1
1.47031
1
1.47063
1
1.0121
1.47203
1
1.47183
1
1
1.14431
1.47387
1
1
1
1
1
0.99654
0.682581
0.670815
1.02001
1
1.02137
1
1.01768
1
1.47198
1
1.29419
1
1.4714
1
1
1
1.4714
1
1.36247
1.47066
1
1.24628
1.47061
1
1
1.47135
1.47102
1
1
1.05249
0.665618
1
1.47364
1
1
1
1
1.07514
1.47098
1
1
1
0.648207
1
1.47146
1.47112
1.48239
1
1
1
1
1.23116
1.48184
1
1
1
1.47057
1.47139
1.05475
1
1
1
1.47201
1.47136
1
0.668121
1.47124
1.47207
1.47225
1.4717
1.47322
1
1
1.47717
1.46919
1.47266
0.649543
1.04129
1.47252
1
1
1
1
1
1.47126
0.654581
1
1
1.47247
1.20112
1
1.47789
1
1
1
0.662868
1
1
1.11584
1.47109
1.47172
1
1.47304
1.48025
1
1.07297
1
1.4821
1
1.47152
0.656906
1
1
1
1
1.47149
1.00006
1
1
1
1.45122
1
1
1
1
1.47306
0.659079
1.37597
1.47416
1
1.47301
1
1
1
0.997285
1
1.4735
1
0.810083
1
1
1.00004
1.4733
0.64227
1
1.46882
1
1.47488
1.47108
0.647546
1
1
1.46107
1
1
0.664003
1
1.46941
1
1.44992
0.999298
1.47018
1
1
1
1
1.46923
1
1
1.47189
1
1
1
1
1
1
1
1
1.30161
1
1.15479
1.47001
1
1
1
0.670381
1
1
1
1
1.47106
1.47216
1.05809
1
1
1.47266
1
1
1.47473
1
1.00002
1
1
1
1.00001
1.47219
0.7744
1.47147
1.47347
0.996934
1
1
1
1.27627
1
1
1.47328
1.4715
1
1
1
1
0.653701
1
1
1
1.29472
1
1.47179
1.47498
1
1.47281
1
1
1
1.25384
1
1.47085
1
1.47141
1
1
0.996245
1.47132
1
1
1
1
1
1.47326
1.00002
1
0.654161
1.4767
0.660118
1
1.47
1
0.995907
1
1.47259
1.47411
1
1.47534
0.88576
1.47235
1.47987
1.00003
1
1
0.659892
1
1
1
1.47175
1.26875
1.47689
1
1
1
1
0.996727
1.47257
1
0.660779
1
1
1
1
1
1
1
1.47956
1.47338
1.47378
1
1
0.996898
1
0.982021
1
1
1
0.659812
0.98368
1
0.65524
0.670641
1
1.47213
1.47159
1
1.47199
1.47218
0.660262
1.30419
1
1
1
0.661909
1.47188
1
0.659879
1
1.48148
1.07712
1
1
1
1
1.47099
1.47382
1
1
1.47162
1
1
1.47147
1.47205
1
1.4355
1.47181
1.47098
0.958208
1.47118
1.00848
0.658915
1.3596
1.47282
1
1
1
0.658456
1
0.67922
1.47951
0.957276
1.47203
0.957406
1
1.46989
1.21324
1
1
1.47241
1
1.19009
1.47037
1
1
1.46857
1.4784
0.684393
1.28653
0.999893
1
1.27765
1
1.47639
0.949288
1.4825
1.47924
1
1
1
1
1.45804
1
1
1.47264
0.999642
1.47088
1.37117
1.4729
0.65987
1
1
1
1
1.47168
1.00005
1.47175
1
1.47239
1.47278
1.05996
1.46546
1.14364
1.47089
1
1.31668
0.685286
1.46891
1.47137
1.36718
1.07668
1.4735
1.47205
1.47225
1.46973
1
0.923195
1.06941
1
1.47132
1.22267
1.47082
1.00003
1
1
0.688448
1.47896
1.47164
1.37762
1
1.17466
1
1.46966
1.46733
1
1.47145
1.47178
1
1
1
1.4727
1
1.17731
1.47632
1.32102
1
1.46954
1
1
1
1
1
1
1
1
1
1
0.660449
1
1.44313
0.662858
1.27327
0.998526
1.4705
1
1.24838
1.00001
1.30259
1.3974
1
1.00209
1.47897
0.913358
1
1.46831
1.45502
0.941429
1
1.47372
1.47207
1.47291
1
1.47185
1.47044
1.47529
1
1.20294
1
1.00006
1.47115
1
1.47256
1.06567
1.47117
1
1
1.47109
1.47035
0.708071
1
1.47266
1.35044
1.47055
1
1
1.47092
1.4696
0.998246
1
1.40965
0.997033
1.47271
1.00006
1
1
1
1
1.20823
1
1.3617
1.47144
1.34977
1.47096
1
1.00328
1
1
1.47125
1
1.47551
1
1
1
1
0.999999
1
1.05718
1.24192
1
1
0.664093
1
1.4701
0.663981
1.47813
1
1.24034
0.999754
1.47202
1.29735
0.680602
1.25506
1.00003
1.47068
1.47049
1
1.28366
1.46914
1.47279
0.998395
1.4732
1.45785
0.670756
1
1
0.997634
1
1.46304
1
0.683319
1.4723
1
1
1.41869
1
1.47195
1
1.47217
1
0.703106
1
1
1.4745
1.48096
1.46719
1
1.46898
1.47101
1.47387
1
1
1.45424
0.999999
0.747148
1
1
1
1.47176
1
1.47102
1.2992
1.47111
1
1.47166
0.999384
1
1
1
1
1
1
0.738972
1
1
1.47148
1
1.4783
1.4777
1
0.660161
0.65533
1
1.4731
1.07504
0.657222
0.637573
1
1.47266
1
1.47063
0.642131
1.00123
1
1
0.999516
1
1
1
0.99991
1.19388
1.47108
1
1
1.47173
1.27514
1
1.41513
1.46929
1.4694
1.1924
1.47376
1
1.47097
1
1.47247
1
1.47469
1.47001
0.996829
1.47225
1.47882
1
1
1
1
1
0.928051
1.47187
1.00004
1.00003
0.651987
0.999984
0.658709
0.678623
1
1.47067
1.47127
1.47062
1
1.47124
1
0.663721
1
1
1.47472
0.815123
1.47199
1
1.47358
1
0.9705
1.47238
1
1
1
1.47398
1
1.47276
0.684056
1
1
1.27143
1
1
1.25452
1
1
1.47095
1
1
1
1
1
1.46753
1.47217
1
1.47168
1.47317
0.660705
1.21486
1.46877
1
1
1.42194
0.998925
1
1
1.47139
1.4745
1.29467
1
1.46826
0.648681
1.45237
0.999526
1
1.47329
1.00003
1.47071
1.40562
1.35684
1
1
1.47182
0.71069
0.662717
1
1.47244
1
1.47134
1
1.27945
1
1
1.47083
1.2934
0.662148
1
0.998314
1
1
1.02664
1.19412
1.47164
1
1.47749
1
1
1
1
1
1
1.0688
0.642815
1
1
1.04392
1
1
1
1
1
1.47034
1
1
1.47129
1.47025
1.33554
1
1
1
0.829968
1.47184
1.32516
1
1
1
1
1.47359
1
1
1
1.47364
1
1
1.33233
1.49359
1.03248
0.739119
1.47027
1.3309
1.47187
1
1.22709
1
1
1
0.662094
1.00261
0.656414
1
0.642293
0.641945
1
0.659007
1
1
1
1.20249
1
1.46825
1.4706
1.00116
1.21114
1.39967
0.658546
0.760354
0.893608
1
1.47158
1.47034
1.47146
1.47117
1.40047
0.876328
1
1.40387
1
1.44727
1
1
0.996576
1.00992
1
1
1
1.47107
1
0.662059
1
1.47359
0.66392
1
1
1.4709
1
1.47192
0.99938
1
1
1.47237
1.42628
1
1.4882
1
1
1.01469
1
1.20181
1
1
0.66249
1
1
1.46911
0.999998
1.47237
1
1.00003
0.664522
1
1
0.637484
1.00089
1
1.47049
0.654487
1.47194
0.637181
1.47275
1
1
1
1
1
1
1
1
1
1
1
1.45234
1
1.47335
1.47196
0.640911
1
1
1
1
1
1
1.45802
1
1
0.659489
1
1
1.47065
1
1
1.17438
1.39002
0.646715
0.664541
0.701856
0.755635
1
0.996551
0.641477
1.00031
1.43747
0.9969
1
1
1.47397
1
1
1
0.776816
1.00001
1.16797
1
1
1.18908
1.47101
1
0.657905
1
1
1
0.996269
1.00001
1.4693
1.47137
1
0.636995
1
1.25187
0.63564
1
0.894383
1
0.996235
0.644178
1
1
1
0.995348
0.654369
1
0.644027
0.99843
1.24387
1.42707
0.66142
0.650281
1
0.990465
1
0.9986
1
1.47209
1.47279
1
1.01325
1.47215
1.47057
1
1
1.47107
1
1
1.00005
1
1.47337
1
1
1.01916
1
0.99856
0.685979
1
1
1
1
1
1.47257
1.04034
1.00005
1
1
1
1
1
1.00003
1
0.660861
1.10469
0.998622
1.47726
1.46963
1
1.01377
1.47108
1.40929
1
1
0.676106
1.47135
1
1.47242
1
1.46949
1.32257
0.65779
1
0.637306
1.42918
0.999675
1
0.64023
0.682086
1
1
1.39652
1
0.999998
0.648302
1
1
1
1.14969
1
0.645705
1.47299
1
1
1
1
1.47236
1
1
1.47714
1.42015
1
1
1
1.47033
0.641947
1
1.47225
1.47093
1
1.37269
0.999999
1.00003
1
1
1.43139
1.00808
1
0.664054
1.2511
1
1
0.997803
1
1
1.47044
1
1
1.00004
1
1.4729
1
1
1
1
1
1
1.00001
1.1984
1
1.46977
1
1
1.47142
1
1
1
1.47162
1.47592
1.04469
1
0.997555
1
1
1
1
1.46928
1
1
1.4725
0.66231
1
1
1
1
1
1
1.3801
1
1
1.47441
1.47237
1
1
1
1.47204
1.46928
1
0.99971
1.46889
1
1
1
1.00002
0.664534
1.02978
0.995995
0.995751
1
1
0.659642
1.47195
1
0.670324
1
1.47111
1.44967
0.648118
0.999392
1.47161
1.47246
1.47162
1
1
0.926689
1.42877
1.38822
0.679814
1
1
1
1.47337
1.47181
0.653581
0.997238
1
1.47132
0.663921
1
1.47041
0.662594
0.973223
1.00713
1
1.47743
1
1
1
1
1
1
1.00011
1.43898
1
1
1.46922
1
1
1
1.47123
1
0.657014
1
1
1
1.16161
1
1
1
1
1
0.793948
1
0.66439
1
1.47233
1.00007
0.865109
0.873794
1.00002
1.00429
1.24264
1
1
0.682071
1.47188
1.47236
1.4712
1
0.644767
0.659134
1
1.46989
1
1
1
1
1
1.00003
1
0.659833
1.29713
1
1
0.65413
0.988393
1.00001
1
1
1
0.648023
1
0.704342
1
1
1.47769
1
1
0.661028
1
1.47229
1
0.65949
1
0.660382
1
1.00821
1.47186
1.48537
1
1
1.47194
1
1
1.10526
0.996786
1
0.998192
1
1.47258
1
0.654692
1.00002
1.46952
0.998877
1
1
0.811257
1
0.999078
0.648984
1.47431
1.16981
1
1.00001
0.900278
1
1
1
0.80639
1
1
1
1.47148
1
0.656058
0.999999
1
1
1
0.661082
1.47237
1.42674
0.658505
1
1.47855
1
1
1.47133
1.47099
1.39202
0.654916
0.997728
0.999288
1
1.47188
1
1
1
1
1.47009
1.00004
1
1
1.46965
1
1
1.47027
0.664847
1
1
1
0.665427
1
0.999999
0.999999
0.998691
1
1
1
1
1.36016
1
1.47155
1.47169
1.48157
1.47072
1.47101
1.47104
1
1.4722
1
1.47224
1.47181
1
0.998853
0.64844
1.39908
0.999902
1
1
1
1
0.992574
1
1.07359
1
1
1
0.85428
1.47031
1.47117
1.47694
1.40455
0.999874
1
1.02265
1.4715
0.997974
1.06028
0.997296
0.654002
1
1.00002
1
1
1
1
1
1.47015
0.656338
1.46988
1.47132
0.995254
0.651201
1
1
1
1.47287
0.654369
1.41399
0.662814
1.47219
1.47824
0.659437
1.47168
1.02334
1
1.47364
0.791253
1
0.99873
0.663685
1
0.657493
1
1.47111
1.47149
0.766207
1
1.47036
0.655531
1
0.656946
1
1.47137
1
1
1.47462
1
0.835435
1
0.999649
0.658434
1.47371
0.999486
1
0.65996
1
1
1
1
1.2506
1
1.4706
1
1
1.48511
1
1
1.47266
1
0.664116
1
0.655852
1.00001
1
1
1
1
1.44909
1.26944
1.47141
1
1.47143
1.43523
0.64624
0.661325
1
1
1.47042
1
0.66218
1
0.985586
1
1
1.47305
1
1.46889
0.666454
1.47344
1
0.662544
1
1
1.47744
1.47023
1
1.00004
1
1.47965
1
1
0.660288
0.999399
0.652545
1
1
1
1.47344
1.46847
1.47285
1
1
0.666866
1
1.47425
1
1
1
1.44553
1.4721
1.47054
0.655746
1.47211
1.47199
0.699295
1.47226
1.00004
0.692335
1.00754
1
1
1.47208
0.652047
1.29586
0.651784
1.4716
0.997284
0.661667
1.47233
1
1
1
1
1.4706
1.47108
0.650993
1
1.00002
0.665597
1.00003
1
0.644047
0.66296
1.32221
1.4686
0.998441
1.47175
1
1.46406
0.810306
0.659447
1.47136
1.48217
1
1.46987
1
1
1.47223
1
1.35557
1.47259
1
1
1
1
1.47087
1.46645
1.47226
1
1
1.46999
1.46437
1.47122
1
1.47023
1
1
1
1
1
0.651778
0.839697
0.656854
1
1
1.47022
1
1
1.46958
0.659547
1
1.472
1.46647
1.44954
0.625698
1
0.657164
1
1.00003
1.47055
1.23115
1.47053
1.43001
1
0.680566
1
1.47386
1.33601
0.652887
1
1
1
0.814782
1
1
1.47293
1
0.659139
1.47193
1
1
1
1
1
1.37795
1.10262
1
1.47161
1
1.47288
1
0.997552
1
1.4709
1.47076
1.47342
1.47438
0.99957
1.4726
1
1.47131
1.47121
1.3972
1
1
0.660576
1.47072
1
1
1.47729
1.47018
1.46934
1
1.47096
1
1
1.00003
1.47217
1.46891
1.12963
1.1017
1.47083
1.47122
0.706611
1
1
1
1
1.00001
1.15884
1
1
1.4021
0.64546
0.999966
1
1.47241
0.99989
0.999806
1.06676
1.43242
1.47149
0.902535
1
0.655391
1
0.996022
1.47096
1.47531
1.46662
0.999071
1
1
0.684372
1
1
1.47194
1.04947
1
1
1
1
1
1
1
0.999941
1.47201
1.00002
1
1
1
1
1.29255
1
1.21397
1
1
1.47158
1.47869
0.658812
0.998743
1
0.999999
1
0.647671
1.47238
1.47139
1
1
1
1
1
1
1
1
1.4718
1.46626
0.659329
1.05076
0.664659
1
0.664826
1
1.47098
1.12318
1
1
0.702968
1
1.45129
0.817417
0.996532
0.645966
1
1
1.47204
1.00004
0.997135
0.656657
1.47227
1.4706
1
1
1
1
1.43946
1
1
1.47171
0.998999
1.47214
1.00005
1
1
0.664127
1
1
1.4718
0.654886
0.794782
0.650853
1.47175
0.999366
1
1.47221
0.658671
0.659418
1.00778
1
1
1.47023
1.00004
1.20199
1
1
1.46975
0.665571
1
1
1.00014
1.47118
1.00015
1.45589
1
1.00003
1
1
0.714447
1
0.787689
1.00002
1
1.47376
0.665225
1
0.790629
0.810551
1
1
1.47097
1
1
1
1.47269
1.47091
1.00005
1.45619
1.47275
0.773271
1.47196
1.44419
1
1
1.47131
0.999999
1
1
1
1
1.47854
1.47214
1
1
1
1.47146
1.00024
1
0.650855
0.723145
1
1.00003
1.17211
1
1
0.890101
0.64804
1
1
1
1.47874
1.4309
1.4707
1
1
1
1
0.661661
1
1.45302
1
1.46607
0.665427
1.47617
1
1
1
0.660527
1
1.47035
1.00003
1
0.652212
1.16796
1
0.999665
1.47782
0.63685
0.653049
1
1.47074
0.654079
0.649454
1
0.664637
0.999999
1
1
1
0.651431
1
1
1
1
1.4709
1
1.36129
0.659907
1
1
1
0.626825
1.47174
1
1
0.99673
1.45991
1
1.47106
1.47313
1
1
0.742752
0.660285
1
1
0.642813
1.14545
1.2125
1
1
1.47313
0.997337
1
0.997872
1.47262
1
1
1
1
1
1
1.46908
1
1.16533
1.15081
0.727284
1.4137
1
1.47046
1.47203
1
1
1
0.903392
0.66154
1
1.22551
0.99968
1.41027
1
1
1
0.999999
1
1.00676
1.21308
1.47309
1.47053
1
1.47155
1
0.675852
1
0.997599
0.999788
1
0.657718
1
0.661596
1.00002
1.47597
1.47518
0.636461
1.47404
0.684616
0.996044
1.35736
0.667072
1.33094
1
1
0.998419
1
1
1
1.00006
1
0.65649
1
1
1
1
0.999587
1.47021
0.804168
1
1
1
1.03853
1
1
1
1.26991
0.767458
1
1
1
1.06001
1.47066
1
0.649914
1
1.47409
0.889177
0.656378
1
0.645441
1
1
1.44522
0.998233
1.43553
1
1.00887
1
1
1.47161
1
1
1
1
1.09508
1
1.47118
1.47328
1.47184
0.649694
1.47181
0.997129
1.38153
1
1
0.641319
1
1
0.643332
1.47421
1
1
0.999952
1
1
1
0.646078
0.657511
1
1.47254
1
1.21132
1.47122
0.656221
1.38151
1
1
0.662314
1
1
1.47102
1.47199
1.16648
1
1
1.00167
1.47144
0.652184
0.650357
1.47154
1.47189
1.32511
1.185
1
0.89064
1
1
1
1.42799
1.47482
1.46937
1
1
1.46966
0.648366
1.43049
0.643268
1
0.673374
1
0.657052
1.47162
0.637647
1
0.966664
0.700794
1
1
1
0.857563
1.44163
1.47072
1.47311
1.46748
1
1
1.47249
1
1
1.47161
1
0.654399
1
0.667341
1
1.4689
1
1
1.01807
1.35749
1
0.998679
0.640711
1.47272
1.00001
0.650619
1.09029
1
1
1.35538
1.47056
1.47129
1
1.46922
1.1284
1
1.02513
1.4721
1
1
1
1
1.47113
1
0.676586
1.47101
0.654807
0.666241
0.824139
1.46948
1.16293
1.46995
1
1.47149
0.9975
1.00003
1.47229
1.4727
1
1.46712
1
1.47009
1
1.47169
1
1.00004
0.999966
1.47402
0.650688
0.663479
0.997919
0.999999
1
1
0.665523
1
1.30765
1
0.660642
1
1.17204
1.47121
1.47529
1
1
1.00003
0.999472
1
1.47184
1.47084
1
1.19001
1.47399
0.825773
1.47124
1.00026
0.627887
1.09813
0.651975
1
1
1.07874
1.4709
1
1
1.04623
0.998513
1
0.660267
1
0.793289
1
1.46919
1
1
0.654584
1.10936
1.06895
0.998516
1.47144
1.47203
0.773283
0.998064
0.654724
0.664492
0.646791
1
1
1
0.999086
0.736064
0.650718
1
1.47191
0.999744
1.47197
1.46958
1.475
1.47222
1
0.665455
1.4702
0.655739
1
1.47018
1.4715
0.99661
0.796092
1.47037
1.33455
1
0.633173
1
1
1.47251
1
1.02671
1.47271
1
0.661368
0.660366
1
1
0.630432
0.630106
1.47058
1.00005
1
0.658216
0.637038
1.47508
1.45461
1.44068
1.47043
1.12801
0.981252
1.18622
1.47036
1.37106
1
1.234
1
0.657813
0.874677
1
0.660917
1.47081
1.02226
1.47151
1
1.47169
1.47037
1
1.47259
1.47136
0.643998
1.47617
1
1.47498
1
0.747929
0.680692
1.47216
1
1
1
0.665222
1.47027
1.47336
1
0.658154
1
1
0.662168
1.00004
0.656365
1.47011
1
0.835303
0.630786
1
1
1.26672
1
1
1
1.08119
0.663205
1
1.00001
1
1.47584
0.654861
1
1.47225
0.653145
0.650654
1
1
1.46979
1
1.47497
1.00001
1.47186
0.666393
1
1
0.661961
0.802462
0.666254
1
1
1
1
1.47795
0.639058
1
0.66091
1
1.46695
1
1
0.924537
1
1
0.824071
0.999697
1.00005
1
0.654192
0.667462
1
1
1
1
0.811357
1.47036
1.47177
1
0.660928
0.642805
0.911044
0.675781
1
0.831379
1
0.664533
0.987256
1
1
0.664341
1
1.47345
1.45731
0.663898
1
1
1
1.46906
1
1.04439
0.840785
1.14458
0.675499
1.18037
0.633239
1
1
0.740002
0.910586
1
1.04935
1
1
0.66138
1
0.941473
1.0479
0.657518
1
1.38012
0.770035
0.857696
1
1
1
0.64618
1
0.662852
0.644409
1
0.840356
0.681243
1.07391
0.755738
0.651512
1.47132
1
1.47103
1.25522
0.706412
1.47169
0.658429
0.999016
1.46984
0.999999
1
1.47208
1
0.750137
1
1.07158
1
1
1.47162
1
0.75017
0.839148
1.46975
0.94018
1
0.760657
1.4724
1.46985
0.898965
1
1.47233
1.11946
0.836138
1
1.02044
1
0.65344
1.19693
0.780599
0.744459
1
1
0.662084
1.47033
0.968747
0.669789
0.653945
0.873104
1
1.02133
1.47169
1.47234
1
1
0.999999
0.659897
1.21538
0.999987
1.4702
1.43868
0.632071
1.00001
1.08839
0.855638
1.27797
1.42731
1
1.0421
1
1.00005
0.65386
0.861967
1
1
0.837434
0.66138
1.03364
1
1.00001
0.642592
1.2135
1
1.45378
1
1.03764
1.25933
1
1.46144
1
1
1.47103
1
0.643277
1.47116
0.686312
1.12081
1
0.675103
0.999919
1
1.00003
1
0.796325
1.02693
0.654839
1.34592
1.47171
0.641204
1
1
1
1
1
0.97471
0.674015
1.05763
0.66754
0.667394
1.07063
1
0.999795
1.11694
1
1
0.661997
0.992949
1
1
1.12688
1
1.46971
1
1.47327
1.09156
1.00901
0.665074
1
1
0.653161
1
1
1
1
1.46951
1.04388
0.998099
1
0.644288
1.05266
0.999999
1
1.30547
1
0.645001
1.4708
1
1.00001
1
1.47111
0.660723
0.884641
0.649147
1.35348
1.47413
1
1
1.47176
1
0.629211
1
1
1
1
1
0.753879
1
1.4714
1
1
1.15949
1.4703
0.655751
0.878758
1
1.47078
1
1
1
1
1
1.47225
1.47457
0.635966
1.47187
0.649458
1
1
1.47175
1
1.4725
0.993574
1.02817
1.07161
1.46964
1.07382
1.31715
0.64723
1
0.641293
0.979126
1
1.47179
1
1
0.644742
1.46931
1
1.47429
1
1
1
1
1
1.00001
0.652791
1.47116
0.839847
1.47136
1
0.643808
0.654226
0.721355
1.47194
1.47131
0.97035
1
0.791188
1
1.17312
1
1.47104
0.640921
0.656327
0.832997
1
1.47133
1
1.08112
0.699218
1
1.47238
1.4023
0.998861
1
1.47199
0.676661
1.46844
1.47223
1.4705
0.644956
1.08997
1
1
0.632847
1
0.78826
0.820733
1
1.00002
1.47062
1
1.46916
1.08495
1
1.03933
1.4808
1
0.659723
1
0.771907
1
1
1.38621
1
0.813345
1
0.657128
1.03738
0.956273
0.63392
1.47205
1.37325
1.47132
0.665382
0.730671
0.995783
0.999999
1
0.677277
1.44408
0.644702
0.999968
1
1.4712
1.47298
0.903802
1
0.665634
0.718999
1.30961
0.972483
0.657781
0.999999
0.646704
1.11138
0.653038
1
1.00006
0.823729
1.47115
1.47268
0.852051
0.999584
1
1
0.728877
1
0.651602
1
0.636015
0.657716
1
1
1.00004
0.660014
1.47087
1
1
1.00007
1.00004
0.652398
1.47212
1.47102
0.999999
0.654862
1.47141
1
1.08899
1
1
1.47536
0.646543
1
1
0.652698
0.737281
0.649436
0.666307
1
0.720842
0.997047
1.08491
0.650347
1
1
1.13252
1
1.4164
1
1
1.31893
0.694342
1
0.647235
1.12898
1.47036
1
1
0.659711
0.678881
0.651487
0.746191
0.668221
1.35125
0.999412
1
1
1
1
1.47041
0.653833
1
0.932345
0.999665
0.998815
0.99994
0.772661
1.12772
1
1.47129
1.47126
1
1
1.45111
1.00004
0.999999
1.47145
0.664529
1.47254
0.999999
0.642653
1.47137
1.00005
1
0.823415
1
0.638256
1
1.4704
1
1
1.47595
1
1
1.47379
1
1
1
1.4749
1
0.757234
0.735583
1
0.647144
1.47163
1
1
0.977088
1
1.47586
1.26822
1.37534
1
1
0.666508
1
0.665324
1.47359
1.47134
1.47233
1
1.47157
0.65912
1
0.665192
1.37596
1.42448
1.47317
1.4713
0.772845
0.652156
1
1.29449
1.47233
1.47315
1.4719
0.732868
1.16897
1
1.35447
0.743402
1
1.00002
1
1.00002
0.889083
1
1.47191
1
1
1
1
1
1
1.00006
1.47094
1
1.47697
1.34697
0.666941
1.47052
1.03193
1.22869
1
1.47267
1
0.663995
1
1
1
1
1.39876
1
0.633101
1.47325
0.628562
1.47138
1.373
1.23971
1
1.08599
1.21482
0.995788
0.651873
0.762224
1.00002
0.999999
0.91208
1
0.625666
1.47168
0.652984
0.926191
0.844186
1
1
1
1.01273
1
1
0.65247
0.996653
1.47379
1
1.47115
1
0.662903
1
1
1.47136
1.47113
0.643595
1
1.47346
1
0.796984
0.654331
1.4733
1.42156
1
1.07571
1.4722
0.998685
1
1.19193
1.41325
1.46954
0.99574
1
0.999998
1.396
1
1
1
1.47101
0.998483
1
1
1.47043
1
1
0.65426
1
1
1
1.47368
1
1
0.850221
1.14462
1.42722
0.780384
1
1.47125
1
1.16559
1
1.47013
0.997333
1.47104
1
0.667114
1
1.32558
1
1
1.43828
1.00001
1.47188
1
1.47093
0.689547
0.666797
1.47288
1
1.39379
1
1.47039
1
1
1.00005
1.47333
1.4744
1.1165
1.47188
0.995954
0.657825
1.47149
0.872783
1
1.47203
1
1.47148
1
1.47252
1.47058
0.996364
0.642081
1
1.47213
1
1.03591
1
1
0.997972
0.765103
1.41945
1
1.41267
1
0.877754
0.641055
1.47178
1.47205
0.684354
1
1.47167
1.47346
1.47138
0.686669
1.47169
0.655832
1.46953
1.46509
1
1
1.47059
1
1
1
1
0.656184
1
1
1.47067
1.47212
1
1.47182
1
1.47437
1.47146
1
1.38966
1
0.635254
1.47263
1.34695
1.13013
0.62908
1.47153
1
1
0.652366
1
1
1.47103
1
1
0.773454
1
1.47167
1.00009
1.47052
0.633639
1.47323
1
1.47217
1.45161
0.89065
1
1.47537
0.771038
1.47415
1.32848
1.47057
1.47417
0.997068
1.47107
1.47083
1.47101
1.4725
1.00061
1
0.670439
1
1.47473
0.820776
1.42847
1
1.46205
1
1
1
1
1
1.46923
0.645511
0.648261
1.47143
1.47161
1
1
1
1
1
1.46738
1.43683
1.47159
1.00761
1
1
1
1.00004
1.46917
1.47117
1
1.47269
1.46946
0.67358
1.32604
1
1.47224
1.47315
1.46851
0.99795
1.47343
1.47181
1
1.42395
1
1
1
1
1
1
1.47221
1.47101
1.4369
1.47028
0.640989
0.685224
1.47102
1.47103
1
0.662375
0.943002
1
1.21954
0.637167
1
0.999445
0.998283
0.652591
1
1.47192
1
1
1
1.47349
0.949128
1
1.47222
1.4708
1
1.47134
1
1
1.47168
1
0.65086
1
1.47271
1
1
0.656932
1
1.47255
1
0.645372
0.648867
1
1.46667
1
0.632252
0.881247
1
1.47154
1
1
1
1.47492
1
0.652355
1.06473
1.46989
1.47318
1.47134
1.04574
1.47513
1.47186
1
1.00002
1
1
1.00001
1.47161
1
0.999283
1.47191
1
0.652136
1
1.47218
1.21319
1.04906
1.21593
1.06118
1.47458
0.712211
1.47031
1
0.659709
0.997114
1.47071
0.954713
1.47038
1.47115
1.46873
1
1.4691
1.47161
1.4705
1
1.00003
1
1
1.47217
1.33054
1
1
0.647571
0.996443
1
1.47247
1
1.47056
1.47219
1.47515
0.895599
1.47206
1.47219
0.995902
1.22853
1.47077
1.47199
1
1.43457
0.819192
1.45152
0.982238
1.4721
1
1.47187
1.4702
1
0.663394
0.93965
0.711266
1
1.07148
0.996808
1.4665
1
1
0.996347
1
1.22959
1.4468
1
1
1.47219
1
1
1.32934
1.47331
1.45112
1.47391
1.47222
1
1.47124
0.714134
1.47166
1
0.992046
0.664725
1
1
0.739738
1
1.14336
1
1.4745
1
1.46256
1.29146
0.656112
1
1
1
1
1
1.47191
1.01128
1
1.47914
1