/*--------------------------------*- C++ -*----------------------------------*\
  =========                 |
  \\      /  F ield         | OpenFOAM: The Open Source CFD Toolbox
   \\    /   O peration     | Website:  https://openfoam.org
    \\  /    A nd           | Version:  12
     \\/     M anipulation  |
\*---------------------------------------------------------------------------*/
FoamFile
{
    format      ascii;
    class       volScalarField;
    location    "9.2";
    object      rho;
}
// * * * * * * * * * * * * * * * * * * * * * * * * * * * * * * * * * * * * * //

dimensions      [1 -3 0 0 0 0 0];

internalField   nonuniform List<scalar> 
45568
(
2.3615
1.46392
2.69021
1.69498
1.13379
1.47502
1.84972
1.40001
0.918203
1.80778
2.26844
2.08894
1.85589
1.40001
0.884245
0.587435
1.40001
1.40001
1.27186
1.7856
1.40001
2.69513
1.82173
1.40001
1.40001
1.47401
1.40001
1.40001
0.577758
1.8132
1.19017
1.40001
1.36005
1.72116
1.70279
1.9038
1.13665
1.40001
1.79949
1.40001
1.40001
0.583542
1.40001
2.08708
1.40001
3.12468
0.585057
2.75782
1.70762
1.40001
2.31112
2.13531
1.40001
1.64382
2.21993
2.69061
2.51127
1.8974
1.86751
1.15915
1.40001
1.86793
1.40001
1.40001
2.12852
2.112
1.40001
1.27915
1.89052
2.83338
1.00623
0.806954
2.3032
1.81964
2.52688
1.40001
1.40001
1.5018
1.14538
1.40001
1.95172
1.63503
0.807434
2.29752
1.97789
1.40003
1.95606
1.53953
1.86207
0.910904
1.82816
1.40001
1.94657
2.78274
1.40001
1.40001
2.81879
1.97778
1.27909
1.81999
1.06741
1.99149
2.03899
1.40001
1.40001
1.40001
1.40001
2.70121
1.40001
2.77555
1.40001
0.949102
1.74798
1.40001
2.79258
1.40001
1.40001
2.04376
2.19448
1.677
1.40001
1.8809
2.68839
2.68871
1.40001
1.8828
2.36601
2.08653
2.41645
1.40001
2.04009
2.59745
2.3227
1.40001
0.587966
1.40001
1.40001
1.40001
1.98454
1.98643
1.40001
1.56597
1.81147
1.40001
0.510308
1.40001
1.40001
1.40001
1.40001
1.40001
1.58595
1.40001
0.671031
1.28987
0.657077
1.40001
1.40001
1.27156
0.574475
2.13
0.569
1.40001
2.23275
2.1112
2.53827
0.936594
1.90345
1.40001
2.15439
1.40001
0.586
1.40001
1.56907
1.40001
2.20805
0.574602
0.573182
2.08246
1.98976
2.16749
2.19865
1.65161
0.588352
0.589107
1.50573
1.87255
1.40001
1.79734
1.86764
0.590773
0.594163
1.79265
1.86267
1.49937
1.73155
1.05962
0.588871
1.6302
2.45243
0.591919
2.10887
1.6577
2.69241
3.39455
3.15056
1.84548
1.89559
1.56555
1.20973
2.37773
1.26353
1.40001
2.05057
1.40001
2.69567
0.585773
0.587234
1.40001
1.80451
2.6914
1.87143
1.67409
1.94061
1.58255
2.21855
2.07412
0.583276
0.584504
1.40001
1.84028
1.14087
1.79655
0.720725
2.01966
1.69652
2.27495
0.937482
1.31847
1.40001
2.20216
2.09348
1.32363
2.2011
1.40003
1.31507
1.34001
2.68318
1.32079
1.34321
1.34379
1.40001
1.34897
1.3519
2.30264
0.582489
1.34514
0.582607
0.584383
0.584732
1.34241
1.40001
1.35517
1.58861
1.40001
2.30141
1.36018
1.54154
1.5842
1.88697
0.583572
1.47408
0.58419
1.40001
1.95031
3.41218
1.95174
1.40001
1.63769
1.40001
1.40001
1.40001
3.6496
1.40001
2.51146
2.55032
1.79968
1.43477
2.00618
1.80315
1.43599
2.00481
2.54049
2.05139
1.80424
1.40001
1.40001
2.35343
1.82765
1.72261
1.74081
1.56487
1.96753
1.40001
2.68455
1.7913
1.18927
2.03797
2.1809
1.40001
1.55776
2.67623
1.40001
1.97798
0.842023
0.944012
2.02352
1.87796
1.45094
0.752809
2.06834
2.69355
2.22336
2.69307
1.40001
1.40001
1.79293
1.86367
1.74242
1.80803
1.40001
1.40001
2.10603
0.673717
1.63978
1.40001
2.41865
3.64481
1.89531
1.97681
2.50306
3.59433
2.08284
2.68721
1.62271
1.40001
1.40001
1.40001
1.08083
1.40001
1.40581
2.06484
1.90624
1.40001
1.43679
1.83505
1.93941
1.17142
1.40001
1.91026
1.95453
3.45373
0.904637
1.69773
1.1086
1.22325
2.0697
1.40001
1.97886
1.21691
2.11907
2.42775
2.21889
2.26167
1.40001
1.76447
2.0676
1.40001
2.10531
1.92312
0.973851
2.00776
1.98856
1.40001
2.30081
0.571467
1.40001
1.83729
2.11192
1.40001
1.49499
1.69393
1.40001
2.10215
1.40001
0.58728
1.40001
2.0742
1.40001
1.40001
1.53361
1.40001
1.40001
2.06052
1.40001
1.40001
2.17842
1.40001
1.40001
1.78968
1.40001
1.40001
1.40001
2.18686
1.40001
0.939856
1.78249
1.40001
1.90044
1.8089
2.57668
1.94097
1.40001
1.40001
1.40001
0.927492
1.40001
2.61633
2.55978
2.24339
1.40001
2.05272
1.40001
1.40002
1.40001
1.40001
2.10427
1.14418
1.40001
1.40001
2.27367
0.584033
2.30146
1.40001
1.81631
1.49126
1.87781
1.40001
1.40001
2.64005
1.89542
1.3785
1.58319
1.4
0.968414
1.54156
1.40001
1.11562
2.37573
1.82093
1.66278
1.40001
1.40001
1.99548
1.40001
1.40001
2.26298
1.98046
1.75248
0.615751
0.606804
1.26043
1.5784
1.40001
2.24566
1.40001
2.24599
2.15554
2.24331
2.48186
1.69839
1.8758
2.12174
1.41525
1.4226
1.40001
2.11873
1.81964
1.40001
2.06831
1.96045
1.40001
1.40001
1.95764
1.40001
0.571921
1.61627
0.566506
1.40001
1.89519
1.84105
1.40001
1.69853
2.04727
1.40001
1.40001
1.78738
2.10385
2.25488
1.7397
1.40001
1.79112
1.10922
1.91883
1.40001
2.47209
1.40001
1.40001
0.577126
1.40001
1.40001
1.40001
1.40001
2.07139
1.55951
1.43022
1.40001
1.40001
0.966366
1.42883
1.40001
1.40001
2.67781
1.70393
2.71831
1.82575
1.40001
1.49386
0.583399
1.40001
1.50612
1.40001
2.06013
1.40001
1.83426
2.98316
1.40001
1.40001
0.970801
1.31387
1.40001
1.40001
1.40001
0.591833
0.594112
1.40001
3.48268
1.40001
1.40001
1.10796
1.40001
1.83323
0.581993
1.11519
1.66759
1.746
1.40001
1.40001
1.81842
1.40001
1.40001
1.40001
1.00358
2.41908
1.40001
1.79722
2.02514
1.08722
2.1379
1.40001
1.20312
1.10791
1.9116
2.06818
1.34862
2.08565
1.80617
2.68685
1.44393
0.9433
1.6432
1.13644
1.40001
3.07872
1.39261
1.40001
2.2992
1.19947
1.93514
1.8809
2.2148
0.587324
1.42242
1.40001
1.40001
3.54696
0.583332
0.585103
2.29527
1.83734
2.00381
1.40001
1.67515
1.40001
0.836327
1.87444
2.00411
2.33296
2.00532
1.95492
1.40001
1.84165
1.40001
3.10667
2.14134
1.88613
2.07955
0.589043
1.40001
1.55885
1.97359
1.40001
2.00626
1.34707
1.59632
0.92911
2.69497
2.16106
1.82143
1.40001
1.88312
3.6092
1.34351
1.79806
0.584017
1.40001
3.23684
1.40001
2.6696
1.40001
1.40001
2.09082
2.16157
2.2866
1.40001
2.07323
1.37395
3.51
1.93421
1.59766
1.82341
1.42617
1.25272
1.97504
1.97037
1.81366
3.53024
1.99473
1.94523
1.44082
1.22039
1.40001
1.20301
1.00665
2.29322
1.55711
2.22142
0.956935
1.40001
3.2504
1.40001
1.83589
1.89723
1.98827
1.43586
3.68524
1.49781
1.40001
1.40001
2.82975
1.59143
0.583391
1.88042
2.23332
1.40001
2.34132
0.582901
1.48596
2.05863
1.31041
1.38835
2.06223
1.40001
1.40001
1.40001
1.72586
1.40001
1.81975
1.40001
1.40001
1.40001
1.40002
2.22897
1.59818
1.39288
1.40001
1.40001
1.21423
1.58434
3.68341
0.976421
1.74106
1.54676
1.37999
2.20818
2.19469
2.65687
1.92035
1.2642
2.06236
1.40001
1.40001
1.95467
2.24612
1.80658
1.48641
1.43354
1.94398
1.83842
2.21878
1.9502
1.83921
1.4485
2.05787
1.94628
1.98051
1.40001
1.67407
1.3149
2.21192
1.30604
3.45472
2.71144
2.0019
1.94865
1.40001
2.67394
1.90892
1.40001
1.17301
2.00534
1.40001
1.74025
1.29862
2.70703
1.46626
1.40001
1.40001
1.5126
2.06775
1.907
1.31222
1.30665
1.83989
2.15217
2.68688
2.03913
1.0283
2.4681
1.77829
2.11506
1.31989
1.11898
1.56595
1.86059
1.63312
1.92429
1.96891
3.11134
2.78692
1.70354
1.36193
3.00634
1.48045
1.26312
1.96531
2.27467
1.95353
1.94947
1.86036
1.37581
2.69151
2.5088
0.775332
2.15418
0.793631
2.30252
2.16093
1.69682
2.16036
1.70688
0.946121
1.3296
1.72524
2.07325
1.40001
0.954658
1.40001
1.54463
1.75711
2.01533
1.40001
1.5407
1.40001
3.43817
1.82743
2.6991
2.42822
2.7461
1.30547
1.29098
2.94753
1.6006
2.71713
2.05246
1.40001
1.11545
1.40001
2.73627
1.40001
1.40001
2.18324
1.48779
1.84414
2.21041
1.17224
1.88883
1.58487
1.68286
1.97564
2.21414
2.07705
1.40001
1.98751
1.84181
1.33761
2.06438
1.97785
1.40001
0.577261
1.80214
0.585387
2.7501
1.53945
1.40001
1.3395
1.47925
2.14866
2.06156
1.40001
1.34668
2.07388
1.34251
1.57582
2.11946
1.35111
1.7095
2.04907
2.20663
2.13543
2.10067
1.90684
1.85191
2.07597
1.34493
2.29108
1.32804
2.05286
1.85664
1.40001
1.40001
3.06073
1.40001
1.93931
3.55527
2.81166
1.34533
0.567575
1.3052
1.81812
0.570993
1.68681
1.88781
1.95717
2.35677
3.44886
1.34527
1.93546
1.97627
1.40001
2.51156
1.92977
1.94521
2.11145
1.7513
1.76707
1.94418
1.40001
1.94818
1.91527
1.9864
1.90906
1.33767
1.94564
1.50074
1.40001
1.35725
1.94701
1.94318
0.996053
1.47149
0.582674
0.581082
2.21471
1.3438
2.19766
2.09355
1.39726
1.94859
1.90967
1.93548
2.57301
1.40001
1.4358
2.50336
0.592255
1.47395
1.34178
1.7271
1.40001
1.40001
1.5884
1.40001
1.90723
1.80566
1.33644
0.591935
0.589894
3.67465
2.72377
1.40001
2.28636
2.03292
1.84806
2.07995
2.04092
1.43219
1.40001
2.03907
1.3799
1.80394
1.29673
1.40001
1.3265
1.38025
2.02044
1.31816
1.88771
1.40001
1.55813
1.4
1.40001
1.40001
1.39293
2.8055
1.30131
1.40001
1.40001
1.5366
1.3901
1.3902
2.03218
2.02263
1.79972
1.3849
1.37653
0.57986
1.40001
1.40001
2.07033
1.5129
0.593242
0.591211
1.84528
1.91292
1.95258
1.81984
1.51747
1.40001
1.40001
1.63611
1.40001
0.592535
1.42908
1.40001
2.12367
1.79565
1.40001
1.87874
1.60845
1.49517
1.85911
1.13412
1.40001
3.2735
1.5598
2.00332
2.13023
2.02154
1.40001
1.04939
1.40001
1.40001
2.11125
2.11873
2.98309
2.14808
2.05258
1.40001
1.53601
1.63241
1.61117
1.73479
0.589659
0.573793
1.82033
1.34034
0.587796
2.11009
1.24457
2.08344
0.574379
1.38923
1.51388
1.40001
1.9457
1.93401
1.57733
1.63199
1.94116
1.60824
1.59509
0.58562
2.10072
1.3257
0.998601
1.94153
1.14841
1.56762
1.64724
2.01867
0.584198
1.89137
2.02228
1.40001
1.40001
1.86764
1.82567
2.39933
1.40001
1.82979
1.46543
2.124
2.24089
1.79981
3.09123
1.40001
1.43728
1.23048
2.02256
1.82499
1.40001
1.27647
2.00927
1.20503
1.81499
1.6935
1.40001
3.01458
1.08581
3.00691
2.71717
1.41537
1.8248
2.2749
1.36543
1.72147
1.40001
1.39999
1.74882
1.62583
1.17924
1.50731
2.39861
1.5702
1.49544
1.82387
2.3535
1.58543
1.40001
1.56617
2.04177
1.74099
1.34798
1.35731
1.22396
1.35325
2.55088
1.40001
2.11214
1.53164
1.83704
1.40001
1.6086
0.582345
3.09978
2.05232
1.77126
1.87573
1.4079
1.82946
1.87777
1.39804
1.98528
1.48011
1.60945
1.40001
1.40001
2.07097
2.00438
1.40001
2.02069
2.64455
1.36034
1.11695
1.40001
1.99459
1.35674
1.4129
1.93217
1.55636
1.40001
1.55254
1.40001
2.71349
1.40001
1.14236
1.42019
1.55438
2.02337
1.41364
1.24997
1.40001
1.07711
1.3222
0.582354
2.68625
1.61087
1.98534
3.35752
1.98007
1.40001
2.00583
0.58386
2.01133
1.83443
1.5365
2.68594
2.40171
2.04091
2.04652
0.582188
2.11654
1.40001
1.64587
1.53294
2.07577
1.63572
3.10381
2.06772
1.39992
1.48211
1.57349
2.10908
2.11112
1.61815
1.40001
1.44446
2.16676
2.17694
1.19361
2.83346
1.40001
2.80583
1.40001
1.40001
2.77414
1.87299
2.05628
1.45979
1.44547
1.40001
1.40001
1.79872
1.74331
1.58364
1.34986
2.06986
1.31187
1.33414
1.40866
0.95774
1.92688
1.42988
1.38212
1.40001
1.20324
1.8068
2.17467
0.902506
0.58417
1.94271
2.08983
0.582766
1.40001
1.50533
2.02697
1.18353
1.88188
1.95569
1.40001
1.90464
1.40001
1.89277
1.96123
1.55402
1.82628
1.40001
1.25069
1.55176
1.28444
2.68533
1.35042
1.30338
2.00386
2.15893
2.69249
1.40001
1.58348
1.5873
1.61881
1.61725
1.65055
1.64618
2.0997
2.06116
1.40001
1.68288
1.40001
1.67984
1.8633
1.74071
2.07341
1.77322
0.617382
2.05094
1.73046
1.76209
1.7059
1.70153
2.69113
1.7918
1.93271
0.587608
2.01426
1.75589
1.74859
1.79547
1.40001
1.40001
1.67295
1.63754
1.48269
1.45559
1.68536
2.69207
1.78907
1.40001
1.40001
1.41338
1.50547
1.40001
1.40001
2.10684
1.40001
1.83482
1.83156
1.86053
1.85707
1.554
1.49994
2.06502
1.95638
1.59951
1.33733
1.92146
1.90814
2.68373
1.60573
1.33557
0.484213
1.57206
1.453
1.40001
1.05436
1.4939
0.584373
2.69132
0.711207
0.592008
1.61116
2.68629
1.40001
1.24203
1.40001
1.7384
1.37196
2.70897
1.55546
0.864157
2.26291
1.69232
1.54985
2.6912
2.90241
2.06007
1.56802
2.05548
0.566326
2.69344
1.91029
2.04878
3.63746
3.40853
1.94528
2.68684
1.40055
1.82307
2.6807
1.45871
1.81846
2.69675
1.58909
2.34894
2.13728
2.69431
1.88629
1.70492
2.1727
1.34326
2.68465
1.76769
1.39995
2.68439
1.32848
2.04614
1.40001
1.46553
1.73962
2.07567
3.30714
2.17009
1.46904
2.07987
1.72351
1.40001
3.35062
1.33828
2.05103
2.6886
2.6865
2.27681
3.8211
2.11394
2.86416
2.68695
1.4555
1.86059
1.54814
2.26934
1.80859
1.84457
1.85212
2.28063
1.40001
1.40001
1.44206
2.07945
2.07942
2.26984
1.74944
2.32146
1.38501
3.29103
2.31965
2.16687
2.09281
1.40001
3.85219
2.26445
3.83723
3.86672
1.58636
3.05815
3.65151
3.77608
1.32723
1.6136
3.69716
1.40001
1.40001
1.40005
2.87491
1.40001
1.40001
1.40001
2.90652
1.40001
1.53978
1.14517
1.94037
2.16945
1.94581
0.879096
1.83628
0.585155
2.43572
1.99796
1.24491
1.2304
1.14567
1.6925
2.52482
1.03564
1.85769
1.92218
1.40001
2.02828
0.950679
2.09029
1.61317
1.40001
1.40001
2.10899
1.61225
2.93541
1.94264
3.00173
2.39539
2.16776
1.40001
2.90494
2.39245
1.40001
1.40001
2.99312
1.58793
1.15752
1.15425
1.59225
2.42387
1.74058
1.48397
1.85376
1.40001
1.40001
1.7787
1.71455
0.984308
1.5018
1.40001
1.514
2.08661
1.55202
3.02879
1.56394
1.60559
1.91618
1.4395
1.85887
1.62963
2.38202
1.85706
1.40001
2.15134
2.68068
1.40001
1.40001
1.82073
2.68382
0.583905
2.07516
1.99835
1.98772
1.8063
1.55359
1.47982
1.76075
1.66432
2.01858
1.39922
1.40001
2.00179
1.60963
2.67832
2.68674
2.22259
3.62024
3.4839
1.88598
1.40001
2.69544
1.742
1.40001
1.601
0.593206
1.59921
2.18301
2.48744
2.18658
2.10096
2.38253
2.62292
2.12507
1.13761
2.68531
1.64838
1.37005
1.36646
2.07867
1.40001
2.3853
1.54625
2.26437
1.86579
3.79385
0.594415
3.48865
2.06015
3.77546
2.11494
1.80009
2.48631
3.81166
1.25427
1.4
2.12038
2.40386
2.16765
1.99976
1.76172
2.13014
1.68505
1.34908
1.40001
1.84344
1.65665
2.37271
3.84773
1.40001
3.85388
1.16517
1.87531
1.85673
1.58822
2.1434
1.5358
1.40001
1.40001
1.93739
1.93833
1.0474
1.83301
1.90609
1.79868
1.80503
3.07014
1.97584
1.40001
1.40001
1.97934
2.11744
1.94919
1.53733
1.12375
2.79252
1.40001
1.49035
1.97294
2.76885
2.76193
1.45857
1.62715
3.33499
1.40001
1.40001
1.02078
1.95252
1.49685
1.40001
1.60054
1.3595
1.40001
1.40001
3.70243
0.999553
1.58555
1.93542
2.74629
1.40001
1.40001
3.63169
1.40001
1.40001
2.13571
1.40001
1.8142
1.50871
1.40001
2.72349
2.07603
1.40001
1.40001
1.40001
2.16604
2.09014
1.81773
2.03101
1.40001
1.92112
2.03145
1.93351
2.71349
1.39997
1.40001
1.2258
2.15713
1.47162
1.81221
3.25531
2.02499
2.01732
1.82797
2.10838
1.39934
1.88289
1.40001
1.82536
2.14623
0.902844
2.14337
1.97399
2.69845
2.46306
1.85163
2.97812
1.98031
1.40001
1.33992
2.07806
2.43159
2.0648
1.16767
1.55724
2.73158
2.07499
0.577892
1.40001
2.02277
1.54952
2.26349
1.43821
1.40001
1.80229
2.07644
1.94829
1.40001
1.43428
1.47197
1.40001
2.39924
1.40005
0.580002
2.17723
1.97724
2.11754
1.97442
2.47256
1.40001
1.62893
1.93774
1.57658
2.05925
1.92335
3.08191
1.82478
1.16975
1.96477
2.68707
1.49938
1.39757
1.64325
1.17344
2.68764
1.40001
2.0896
1.46102
1.09491
1.40001
2.4475
2.66055
2.20903
2.21698
1.78263
1.40018
1.59388
2.71717
2.25764
2.68595
1.18795
1.61989
1.71692
2.68255
1.76333
1.5439
2.22735
1.91629
2.00917
1.18062
2.68847
2.02313
2.9901
2.71551
1.40001
1.40001
2.68184
2.37179
2.03147
2.27845
2.2931
1.40001
1.87488
1.40001
1.63424
1.40001
1.8699
1.40001
1.68944
1.55278
3.12463
2.14038
1.40001
1.40001
3.66942
1.40001
1.25716
1.63683
3.60087
3.29108
2.02422
1.40001
1.33655
2.71869
1.34511
1.40001
1.59742
1.40001
2.04628
1.40001
1.31596
2.68119
2.67932
1.75373
1.63579
1.4
2.04049
2.01988
1.40001
1.40001
1.47221
2.08923
1.4
1.0017
2.70956
1.25384
1.99251
1.87075
2.84894
3.50221
1.1487
1.40001
2.12992
1.70914
1.40001
1.29674
2.72055
2.676
2.03391
1.5019
1.70484
2.69673
1.99928
1.63155
1.40443
1.76021
2.3343
2.03793
1.4
1.61738
2.68989
1.40001
1.54462
1.9867
1.54288
1.58701
1.98424
2.53559
2.97619
3.20861
2.12489
1.1063
1.99572
2.50083
1.59454
1.50744
2.99603
3.24997
1.40001
1.40001
2.2843
2.12377
1.40001
1.89929
1.89824
1.36002
1.95394
1.40001
1.96845
1.40001
1.40001
1.40001
1.73124
1.75792
1.40001
1.45869
1.86433
1.85253
0.921704
2.40594
1.86133
2.8086
1.39998
2.30437
1.86715
1.40001
2.53237
1.40001
1.89167
1.90391
1.15883
2.62419
1.79112
1.9483
1.96275
1.75623
1.66615
1.52771
1.76309
1.72473
1.89786
1.73142
1.68299
2.71917
1.70013
1.99618
1.49686
1.40001
2.11363
1.84503
2.09605
1.15295
2.70721
1.57348
1.65784
2.71981
2.16498
2.077
2.16283
1.40001
2.02152
1.40003
1.47155
1.9382
1.64079
1.64496
0.581612
1.97348
1.94337
2.6871
1.62788
1.40001
1.48142
1.59224
2.70627
2.31546
1.40001
2.25033
2.69081
2.24996
1.47387
3.43168
2.1039
1.40001
2.70826
1.59401
1.86651
2.13627
1.69602
2.71884
1.40001
2.71456
1.40001
1.99606
1.26518
1.40001
2.06186
1.65585
1.40001
2.18085
1.92529
3.19951
2.93789
3.48508
1.40005
1.55084
2.01456
1.4
2.11727
2.09668
2.15084
2.02328
2.71418
3.16103
2.68478
2.08191
2.02353
1.40156
3.67525
1.67377
1.42646
1.80015
1.91542
3.42895
1.98031
1.29691
1.82343
1.88684
1.53875
1.40001
3.67396
3.4687
1.22505
2.07099
1.40013
1.40001
1.90458
2.41543
1.53302
2.41709
2.23601
1.13243
1.40001
1.65429
1.92952
0.578639
3.60649
2.09062
1.39611
1.40177
1.88139
3.10881
2.34437
1.85531
1.09997
1.56618
1.85902
1.8598
3.59108
1.40001
2.68516
2.48616
2.50847
1.62003
2.70911
2.45679
2.35644
1.40001
1.55586
1.40001
1.40001
1.40001
1.74119
1.40001
1.47232
1.73519
1.05816
1.55162
2.51787
1.74057
2.44955
1.57315
1.40001
2.4458
1.25742
1.40001
1.28268
1.92099
1.40001
1.40001
1.40001
2.15818
3.54353
1.51295
3.04238
1.5131
1.91492
3.66296
1.40001
2.23571
1.40001
3.02658
2.30743
1.59282
2.71829
1.91669
2.70379
2.09366
1.59935
1.93781
1.40001
2.70569
1.40001
2.09206
1.40001
1.40001
1.40001
2.48089
2.69128
1.40001
1.40001
1.99045
1.58016
2.48139
2.41067
1.83652
1.70395
2.39693
1.09731
1.40001
1.94082
1.40001
1.35538
2.7105
1.36215
2.15271
2.0249
2.20047
2.00899
2.01981
1.70327
0.576312
2.69527
2.68778
1.6989
2.03065
1.40001
1.69994
2.68316
3.18136
2.47501
2.70585
1.28771
1.40001
1.54405
3.50419
2.20597
2.10245
2.14391
1.71322
1.29353
1.40001
1.56885
1.40001
2.68991
1.40001
1.93985
2.85078
1.40001
2.72194
1.6233
1.79192
2.70922
1.93406
2.6924
1.40001
1.23768
1.26828
1.86375
1.80246
1.96609
1.96312
2.69039
2.69746
1.67266
1.86597
1.48734
1.6794
2.13911
2.68509
1.40001
1.40001
1.72162
1.40001
2.71035
1.87248
1.97237
1.74486
1.40001
1.40001
1.72525
2.00383
1.26766
1.52369
1.59179
1.76287
1.95871
1.9792
2.68474
2.13828
1.40001
1.75946
1.53336
2.58703
1.83703
2.02136
2.69497
1.14173
1.89255
1.84759
1.95083
1.89475
1.10061
2.68571
1.91682
1.95379
1.61394
2.69374
2.68904
1.40001
2.69
1.95761
1.13054
2.02268
2.0343
1.82048
1.81889
1.91624
1.56629
1.81277
2.70707
2.02614
2.70828
0.585724
2.68961
1.59033
1.74206
1.79104
1.49015
1.19555
1.9456
3.22037
2.1303
1.40001
2.06239
2.01255
1.98368
1.7513
1.28163
1.58228
1.59735
2.70547
1.47493
1.96173
1.96624
1.16146
1.91299
2.67917
1.40001
1.47789
1.16871
1.14153
1.40001
2.12681
2.18756
1.99489
1.98995
2.11867
2.12611
2.04824
1.40042
2.0213
2.01452
2.72203
1.1874
1.82049
2.70813
2.68706
2.05459
2.05063
2.6862
2.11809
2.11234
1.92982
1.19513
2.68897
1.46176
2.15512
1.59696
2.68788
1.40001
1.40001
2.086
2.09372
1.96784
2.68532
2.57997
1.11838
3.06712
1.75612
1.60667
2.12035
1.69401
1.95796
2.68116
1.46345
1.45481
2.05316
1.36954
1.5132
1.80657
1.83507
1.50238
1.59046
2.25682
1.49101
1.40001
1.4
1.40001
1.40001
2.25593
1.49
1.6784
2.1823
1.40001
1.87444
1.40001
2.7076
1.40001
1.59077
1.61952
1.85213
1.40001
2.71489
3.65424
1.53281
1.84329
1.55948
1.82288
1.80139
1.92006
0.963175
1.59788
1.40001
1.40001
1.53793
1.80287
1.93415
1.40001
1.2253
2.16123
2.94729
1.74458
1.58578
1.84711
1.22216
1.40001
2.153
2.07561
1.23728
2.32103
2.06001
1.80955
2.05549
1.70634
1.40038
1.59998
1.56759
1.98176
1.12925
1.40001
1.53001
1.40001
1.40001
2.11174
1.12399
3.67862
1.59827
1.40001
1.88918
1.67922
1.5169
1.70188
1.40001
1.40001
1.40001
1.69239
3.64677
1.98774
1.30026
1.40001
1.76148
1.59244
1.71876
2.05169
2.40963
1.66113
1.71114
1.65262
2.1574
1.27578
3.62935
2.07448
1.57423
1.98136
1.38173
1.77227
1.40384
2.33579
1.48325
2.71433
1.59901
1.86512
2.02689
1.26848
1.40001
1.5982
2.71399
1.40001
2.49627
1.40001
1.76948
1.7655
1.86742
2.66909
1.40001
2.45286
1.68006
2.06163
1.40001
2.51076
1.88087
1.22369
1.67825
2.08448
3.74335
1.40001
1.1453
1.22849
2.45503
1.18915
1.97645
1.56709
1.34587
1.40001
1.40001
2.23912
1.68185
1.5606
1.67981
1.87459
1.87134
2.63579
1.40001
3.66332
1.55288
1.24197
0.951313
2.14211
1.40001
2.29863
1.40002
1.81288
2.51728
1.40001
1.93944
1.54763
2.70529
1.40001
2.71077
2.03531
1.52282
1.64673
2.71079
1.39998
1.52144
2.72647
1.18929
1.49625
1.4
1.7819
2.15239
1.1908
1.71147
2.14295
1.40005
1.95894
1.40001
1.40001
1.40001
2.71253
1.40001
1.99287
1.98191
1.73447
2.39394
2.93634
1.56118
2.24426
2.04067
1.40001
2.24147
2.70676
2.71054
0.917413
1.88168
1.92953
3.63398
1.77926
2.71426
1.52521
1.36954
1.50106
2.70806
1.40736
1.4
1.4826
2.71301
2.24412
1.50535
1.39306
1.48715
1.97808
1.40001
2.60206
3.7211
2.06975
2.05862
1.40001
1.40001
1.71153
1.40001
1.4004
1.94128
1.39999
1.39982
1.40001
1.94315
1.51747
2.09102
1.40001
2.52905
1.40001
1.66806
1.65461
1.40001
1.67397
1.63903
2.50617
1.57876
1.40018
3.40688
2.56609
1.40001
1.40001
1.70854
2.98981
1.5677
1.40001
1.65524
1.71931
1.39174
3.64996
2.00292
1.51877
1.98862
1.64943
1.69358
2.86414
1.88172
1.95843
1.69213
1.43393
2.72973
2.09161
1.73863
1.99918
1.5094
1.97803
1.74988
2.53318
1.98951
3.05099
1.40069
2.71781
1.7645
2.72812
1.37407
1.76755
1.40001
1.94448
1.60233
2.17963
1.40001
2.0941
1.94601
1.39466
2.21734
1.40001
1.5947
2.0148
2.49655
2.16181
2.75008
1.40001
2.52027
1.54236
1.40001
1.62744
1.18471
1.40992
3.6158
1.82772
1.40001
2.06756
1.40137
1.83283
1.92553
1.40001
1.2268
1.17882
3.45119
1.87488
0.588605
2.14003
3.05948
2.08208
3.39795
2.05515
1.40001
1.40003
1.93797
3.14385
2.22836
2.057
1.24796
1.23688
1.88684
1.88356
2.71087
3.64862
2.09173
1.40105
1.5419
1.40054
2.7086
2.50939
1.55391
1.26443
1.76427
1.97483
2.08367
2.12555
1.97587
1.38962
2.30266
1.74003
3.61685
1.95111
2.75883
1.58699
2.23982
2.71688
1.76438
2.44869
1.58587
1.94412
2.50326
1.13188
2.30435
1.65565
1.41122
2.07979
2.71378
1.79924
1.65519
1.81553
1.99315
2.22981
1.06223
1.49875
1.58584
1.97309
1.37215
1.39975
1.66236
2.00912
1.27363
1.66075
0.982608
1.56019
1.40001
1.57267
1.40001
1.59621
1.40001
1.25076
2.27194
1.21969
1.40001
1.98447
1.72797
1.42407
1.73187
0.96585
1.60129
2.31158
1.23025
1.84161
1.56044
1.37611
1.40001
1.40001
2.82072
1.73878
3.59623
1.7498
2.17724
1.40001
1.40001
1.2263
2.0745
1.33769
1.52985
2.61077
1.31001
2.35935
1.99562
1.47838
2.00045
2.70747
1.91927
2.00829
1.27236
2.30625
1.4
2.32923
1.1985
1.40001
1.40001
1.77589
1.40005
1.91949
2.49659
2.03819
1.40001
2.04061
1.40001
1.40002
1.40001
1.4
2.15772
1.40001
2.16801
1.12208
1.58466
2.16792
1.40001
1.85075
2.73112
1.47882
2.58333
1.17449
2.46465
2.71077
3.61802
1.26927
1.40001
1.31089
1.85882
2.31172
1.32162
1.40001
1.40001
2.24081
1.40001
3.39151
3.62059
2.73106
2.71651
1.78014
1.40001
1.40001
1.40002
1.89499
2.4187
3.13344
3.60118
1.40001
2.54365
1.40367
2.14195
2.37552
2.18569
1.20791
1.4
1.42484
1.73358
2.70868
1.07641
2.49177
1.49873
2.0769
1.47315
2.70403
1.40001
1.20468
1.01128
2.70972
1.21641
1.77181
1.23081
1.91846
1.40001
1.21154
1.19707
3.64096
1.94963
1.40001
1.40001
1.34821
1.40001
2.18546
1.40001
1.40001
1.74868
1.38494
1.65432
2.70229
1.6268
3.60193
1.31562
1.92566
1.40001
1.55708
1.40001
1.40001
1.85485
3.57241
1.40001
1.97304
1.31075
1.46525
3.62258
1.39969
1.40001
1.40001
1.99231
2.00616
2.49138
1.40001
2.00044
1.47347
2.10291
1.52301
2.49046
1.40001
2.7078
1.5823
1.40001
1.80514
2.08941
1.92853
1.40001
2.70585
1.62649
1.40001
2.0643
1.40001
1.93774
2.71071
1.93745
0.973955
2.17681
2.71152
1.14795
2.45942
2.14586
1.88312
1.40003
1.91609
1.40001
1.92984
1.13567
2.10353
2.42553
2.59749
1.8051
1.45208
1.40001
2.10373
1.15191
1.40001
1.40006
1.31669
2.95184
1.35513
1.40001
2.95664
1.40001
1.40001
2.80645
1.52826
2.40627
1.30756
1.40001
2.74125
1.40001
1.40012
1.3495
1.2697
3.64355
3.57671
1.40001
1.40001
1.40004
2.31018
1.46382
1.4778
2.27723
2.292
1.40001
1.80908
1.40001
1.40001
2.0666
1.54949
2.24744
1.40001
2.54842
1.40001
1.11353
1.40046
2.28651
1.40001
2.70404
1.45461
1.53878
1.40001
1.40001
1.40001
1.62498
1.30983
1.40001
2.71133
1.59901
1.14535
1.13704
1.86904
1.40001
1.40001
1.39867
1.54329
1.47343
1.40001
2.71021
1.40001
1.40001
1.40001
2.21241
1.4
1.58742
2.69186
1.60519
1.66501
1.40001
2.37813
1.44696
1.86509
1.4781
1.28502
2.52542
2.88504
1.4889
2.7108
3.17445
2.20417
1.40001
3.26177
0.959499
2.26169
1.34822
1.40001
2.71058
2.21246
1.40001
1.69911
2.20567
1.40001
1.93522
1.93633
1.93121
1.43648
1.40001
1.39864
1.40001
1.40001
1.40016
1.59007
2.44866
1.93249
1.8614
1.59639
2.72168
1.25133
1.55587
2.45021
1.40001
2.33192
1.40001
1.93265
1.76906
1.92498
1.40001
1.40001
1.40001
1.40001
1.39852
2.31616
1.40001
1.39709
1.40001
1.40001
1.40001
3.60125
2.06839
3.63689
2.45307
2.86068
1.38474
3.60469
2.08023
1.52659
2.71436
2.36902
2.46683
1.29314
1.44241
1.40001
2.07013
2.44269
2.51194
2.25047
1.88971
1.39996
2.98781
2.0631
2.19315
1.40019
3.51439
1.34768
2.57877
2.37215
2.71502
1.91506
2.86871
1.40001
0.988033
1.40001
1.40001
1.87424
1.55399
1.46803
1.19276
1.40001
2.98013
3.5142
1.40001
1.40001
2.24336
1.32993
2.50707
1.39964
1.51417
1.71921
2.70736
1.40001
2.55281
2.16876
1.40001
2.79888
1.3853
1.40001
1.80019
0.989589
1.24915
1.54536
1.74423
2.37063
1.40001
1.29099
2.7112
3.79603
1.47721
1.40001
1.76877
2.70647
1.02159
1.40001
2.37004
1.97625
1.52863
3.41151
1.39468
1.40001
2.53987
1.40001
2.71061
1.25367
1.23277
1.2446
1.84681
1.32372
1.37593
1.40001
1.40001
2.54213
1.40001
2.71567
2.10556
1.75749
2.0032
1.40001
2.51784
1.40001
2.06381
1.97636
1.89244
1.59531
0.65331
2.71044
1.59801
1.40001
1.40001
1.49757
1.48021
1.40001
1.86025
3.58599
1.99408
2.07267
1.40001
1.40001
1.40001
1.28614
2.18211
1.7751
1.68728
1.6642
1.95062
1.90475
2.33666
1.40001
1.40001
1.40001
1.91886
1.23784
1.20011
2.70821
1.19892
1.16017
2.33332
1.40001
1.56238
1.34942
1.40001
1.40001
1.40001
3.66456
2.32128
2.40766
1.74677
2.51858
1.49383
1.8255
1.72188
3.54724
1.40001
1.40001
1.40001
2.71977
1.53686
1.40001
2.72084
1.40001
2.38325
1.97546
2.70763
2.71505
2.67876
2.65777
1.40001
2.71475
2.69284
2.54225
1.40001
2.23457
1.4
1.40001
2.42962
2.64512
1.40001
1.40001
1.5981
1.46094
2.34749
1.11191
2.68138
1.89799
1.40001
1.40001
1.40001
2.21751
1.40001
1.85213
2.42938
2.92408
2.40081
2.37072
2.70953
2.06826
2.15383
1.40001
1.40001
1.78972
2.7161
1.40001
1.62779
1.7657
2.11077
2.71843
2.19223
2.2777
1.18183
1.5784
2.306
2.11129
3.61615
2.68576
1.85394
2.04982
2.70789
2.71233
1.58417
1.95068
1.40001
1.40001
2.71071
2.46103
1.65953
1.76227
2.73114
1.49457
2.40118
1.40003
1.61811
2.86027
2.70817
1.40001
1.3408
1.32743
2.2549
1.57031
2.70906
3.59412
2.71483
3.63592
2.70958
2.08955
1.75564
1.72339
2.71219
1.40001
1.30457
2.38178
2.58325
1.34604
1.40001
2.71149
1.09433
0.622327
2.48985
1.40001
1.07729
1.48892
2.71124
2.26692
1.7159
1.65937
2.70401
1.40001
1.86435
2.4711
1.89126
1.86089
1.40001
1.86497
2.13898
1.40001
2.70656
2.50938
3.14178
1.38363
1.35334
1.69953
1.39999
1.759
1.40001
2.13028
2.71022
1.97527
1.33512
1.35625
1.97314
1.74734
2.03267
1.86009
1.40001
2.06643
1.40001
1.61266
1.74016
1.33127
2.14425
1.35875
1.40001
1.88312
1.35353
1.32529
1.40001
1.40001
1.093
2.46874
2.67743
1.40001
1.40001
1.77336
1.40001
1.70853
2.58862
1.39171
1.40001
1.64235
1.40001
2.20481
1.35371
2.7031
1.33915
1.70985
1.40001
1.7698
2.04106
1.96025
1.7098
1.40001
1.55761
2.72145
1.40001
1.68292
1.79321
1.16177
1.69628
1.74551
1.96554
2.71074
1.82052
1.40001
1.40001
1.40007
1.70194
1.40001
2.04188
1.86028
1.40001
1.40001
1.40001
1.39992
2.70548
1.44086
0.598176
2.67092
1.20784
3.20834
1.84381
1.14515
1.10038
1.58303
1.96331
1.40001
1.7991
2.69708
1.89284
2.60397
2.71558
2.20542
1.40001
2.43553
2.35141
2.69252
1.40001
1.31325
1.31291
1.94092
1.7833
1.96369
1.55149
2.77063
2.71032
1.39578
2.53618
2.22004
2.7187
1.86028
2.27382
1.40001
1.82795
1.60063
1.40001
1.40001
1.40001
1.08821
1.40001
1.40001
1.88759
1.40001
1.40001
2.70996
1.40002
1.79723
2.70912
1.40001
1.40001
1.39782
1.40001
2.789
2.71059
1.91314
1.18208
2.71123
2.76722
2.46325
1.40001
1.40001
1.8152
2.63848
1.40001
2.0257
1.59618
1.8883
2.61235
1.17103
1.5218
2.53851
1.40196
1.48877
2.70753
2.71274
1.10613
2.55507
2.71305
1.40001
1.40001
2.08608
1.40001
1.82448
1.40001
2.71277
1.27298
1.28113
1.40001
1.40001
1.71419
2.63602
2.46226
2.71121
1.4004
2.63743
1.79614
1.40001
1.82229
1.40001
2.65409
1.40001
1.29425
2.10039
1.40001
1.40001
1.40001
2.44977
1.66012
1.40001
1.40001
1.50667
1.68116
2.46228
1.51265
1.40001
1.55314
1.11967
1.19225
1.4
1.40001
2.70825
1.86452
1.56724
1.40001
1.72331
1.86228
2.40077
2.71224
1.81583
2.68227
1.40001
1.43545
1.40001
3.57477
2.03556
2.70973
2.40605
2.70847
1.16454
1.40001
1.40001
1.10541
1.4
1.40001
2.71185
1.15828
1.12946
1.67951
1.40001
1.4025
1.40001
2.66817
2.88572
1.40001
1.40001
1.6561
1.40001
1.75326
1.00168
1.78325
1.07739
2.89697
3.41612
1.45002
2.71888
1.51436
1.40001
3.65266
1.40001
1.92917
2.71106
1.10783
1.40001
1.40001
2.71433
1.61219
1.2998
1.40001
0.621512
2.36301
2.05416
1.4051
2.70676
2.28787
1.40001
1.65855
1.68766
1.1235
1.91858
1.79113
1.40001
1.40001
1.40382
1.45571
2.39288
2.71178
2.72009
1.96287
1.33589
1.89267
2.7177
1.77919
1.95722
1.68567
1.40001
1.40118
1.40001
1.4
1.36114
1.0129
2.79571
1.36302
1.40001
2.07862
1.62744
1.32406
1.34383
1.33579
1.40001
1.62755
2.44206
1.40001
1.40001
1.5306
2.71184
2.45799
1.40001
1.40001
1.40001
1.40001
3.73602
2.46917
2.65546
2.97457
1.81129
1.40001
1.4
2.71287
2.77654
2.01315
1.51445
2.67428
1.40001
2.79506
1.40001
1.40001
1.40028
1.40001
1.46563
2.06331
1.40001
1.77989
1.40001
2.71873
1.74327
2.64687
1.40208
1.40025
1.40001
0.984096
1.43487
1.40001
2.33955
2.70863
1.40001
2.66724
2.03671
2.90778
1.40001
2.61904
1.40001
1.40013
1.65316
1.6428
1.38488
2.23621
1.40001
1.25133
1.39634
2.71777
1.86401
1.40001
2.71848
1.34677
1.40001
0.60545
2.50947
1.1345
0.933284
2.32963
1.40001
2.19638
1.40001
1.40001
1.40001
2.71514
2.25768
1.40001
1.40243
1.46786
2.92343
2.02264
1.40001
0.9854
2.71108
1.40001
1.27423
2.44312
2.36933
1.40001
2.29537
2.02397
1.40001
1.40001
1.40001
1.40001
2.74239
1.35416
1.23273
1.39938
2.25619
1.94378
2.67454
2.83282
1.40001
1.40001
1.40001
1.84543
1.40001
2.07442
2.96976
2.09649
2.15536
0.602456
0.800773
1.72353
1.01548
0.60593
1.40001
3.13473
2.93479
2.37386
1.40001
1.40001
2.82052