/*--------------------------------*- C++ -*----------------------------------*\
  =========                 |
  \\      /  F ield         | OpenFOAM: The Open Source CFD Toolbox
   \\    /   O peration     | Website:  https://openfoam.org
    \\  /    A nd           | Version:  12
     \\/     M anipulation  |
\*---------------------------------------------------------------------------*/
FoamFile
{
    format      ascii;
    class       volVectorField;
    location    "9.2";
    object      U;
}
// * * * * * * * * * * * * * * * * * * * * * * * * * * * * * * * * * * * * * //

dimensions      [0 1 -1 0 0 0 0];

internalField   nonuniform List<vector> 
22702
(
(2 -1.37254e-13 0)
(2 -6.4328e-14 0)
(2.04108 -0.0887579 0)
(2 -1.13912e-09 0)
(1.97694 0.0339541 0)
(2 -7.22396e-15 0)
(1.82909 0.228235 0)
(2 -2.40596e-14 0)
(2 -2.37706e-14 0)
(2.04654 -0.273572 0)
(1.82966 0.228407 0)
(1.82997 0.228617 0)
(2 -2.37655e-13 0)
(1.83167 0.228661 0)
(2.03533 -0.0720959 0)
(2 -3.36453e-13 0)
(2 -3.53799e-13 0)
(2 1.15267e-14 0)
(1.82953 0.228448 0)
(2 -1.54214e-14 0)
(1.83148 0.229586 0)
(2 -2.30896e-13 0)
(1.82833 0.22824 0)
(2.12674 -0.268775 0)
(1.83162 0.229051 0)
(2.16699 -0.259108 0)
(2 -6.8447e-14 0)
(1.83068 0.228861 0)
(2.07344 -0.25436 0)
(2.11849 -0.265959 0)
(2 -3.5186e-14 0)
(1.83043 0.228542 0)
(2 7.87853e-14 0)
(2 7.16642e-14 0)
(2 -2.49805e-14 0)
(1.84471 0.214296 0)
(1.82987 0.231102 0)
(1.82798 0.22803 0)
(2 -2.93917e-13 0)
(2 -2.62924e-13 0)
(2.09542 -0.276694 0)
(2 -5.69696e-14 0)
(1.91409 0.125617 0)
(2 -1.87972e-13 0)
(1.83026 0.228405 0)
(2 -6.85607e-14 0)
(2 -1.00787e-13 0)
(2 -9.48528e-14 0)
(2 -1.92263e-13 0)
(2.1115 -0.267555 0)
(2 -6.0768e-15 0)
(2.12399 -0.267865 0)
(2 -2.01022e-13 0)
(1.82965 0.2284 0)
(2 -1.57408e-13 0)
(1.83001 0.228666 0)
(2 2.66503e-14 0)
(2 1.54905e-09 0)
(2 -3.7443e-14 0)
(2 -1.42227e-13 0)
(2.16745 -0.25455 0)
(2 -7.59141e-14 0)
(2 -5.93641e-14 0)
(2.08056 -0.258562 0)
(2 1.16167e-13 0)
(2.12085 -0.266278 0)
(2 -1.0466e-13 0)
(2 -1.1676e-13 0)
(2 7.53558e-14 0)
(2.08733 -0.267427 0)
(2 -7.36297e-14 0)
(1.83156 0.228845 0)
(1.89763 0.148488 0)
(2 1.64554e-09 0)
(1.83134 0.228695 0)
(1.8224 0.238087 0)
(2.11501 -0.262032 0)
(1.83344 0.229394 0)
(2.10837 -0.263875 0)
(2 3.66244e-14 0)
(1.83049 0.228663 0)
(2.10343 -0.26028 0)
(1.825 0.227744 0)
(1.82922 0.227651 0)
(2 1.78959e-14 0)
(2 9.97268e-07 0)
(2 -9.82626e-15 0)
(2 9.96427e-15 0)
(2.02479 -0.0494204 0)
(2.06709 -0.272809 0)
(1.82627 0.228017 0)
(2 9.97796e-14 0)
(2 -6.16658e-11 0)
(2.06938 -0.272785 0)
(2 3.17136e-14 0)
(1.83131 0.229545 0)
(2.07603 -0.276203 0)
(2 2.48917e-08 0)
(2 -2.31173e-14 0)
(2 -6.07805e-14 0)
(2 -1.92186e-13 0)
(1.91614 0.122882 0)
(1.83003 0.228247 0)
(2.14248 -0.252012 0)
(2 -1.00523e-10 0)
(2 -8.90996e-10 0)
(1.95724 0.0663233 0)
(2 9.67053e-09 0)
(2.10547 -0.261601 0)
(2 -4.67061e-14 0)
(1.83291 0.228607 0)
(1.82961 0.228872 0)
(2 4.0567e-09 0)
(2 -1.26081e-13 0)
(2.15632 -0.268658 0)
(2.15871 -0.259785 0)
(2.06052 -0.270667 0)
(2 2.07981e-13 0)
(2 -1.45307e-07 0)
(2 4.50806e-14 0)
(2 -3.07148e-15 0)
(2 1.16636e-07 0)
(2.03036 -0.0540804 0)
(2 -1.06067e-07 0)
(1.85599 0.199709 0)
(1.98023 0.0258918 0)
(1.83287 0.228874 0)
(2 -2.17801e-13 0)
(1.82972 0.228019 0)
(1.82967 0.228676 0)
(1.83129 0.229152 0)
(1.83092 0.228825 0)
(2 9.05219e-14 0)
(2.14367 -0.255649 0)
(2 -2.69535e-14 0)
(2.13452 -0.266669 0)
(2 7.0753e-14 0)
(2 5.5309e-14 0)
(2 -5.10357e-14 0)
(2 -5.65661e-14 0)
(1.8297 0.228899 0)
(2 3.0578e-09 0)
(2 -2.59967e-14 0)
(2 -1.6656e-13 0)
(2 -1.23099e-13 0)
(1.83023 0.228686 0)
(2 5.22204e-14 0)
(1.99547 0.0131526 0)
(2 5.55115e-14 0)
(2 -1.42173e-13 0)
(2 -6.76886e-11 0)
(2 6.96055e-15 0)
(2.10943 -0.265229 0)
(2 -7.08057e-14 0)
(1.99538 0.0092007 0)
(2 -2.02417e-14 0)
(2.10718 -0.263968 0)
(2 -1.67595e-13 0)
(2 4.53787e-14 0)
(2 -1.08277e-13 0)
(1.8264 0.228446 0)
(2 -5.71776e-14 0)
(1.83108 0.228881 0)
(2.14698 -0.270317 0)
(2.15943 -0.250208 0)
(1.83147 0.229164 0)
(1.83166 0.22917 0)
(2 6.76121e-14 0)
(1.97097 0.0452045 0)
(1.90275 0.144667 0)
(2 -1.58257e-13 0)
(1.82774 0.228802 0)
(2.10873 -0.263177 0)
(1.84394 0.214735 0)
(2 5.53312e-15 0)
(2 -9.47424e-15 0)
(2 2.78213e-14 0)
(2 2.41801e-14 0)
(1.83181 0.228611 0)
(1.87076 0.191586 0)
(2 -1.02819e-13 0)
(1.8298 0.22831 0)
(2.10725 -0.267317 0)
(1.82844 0.228865 0)
(2 -6.67265e-14 0)
(2.09799 -0.261941 0)
(2 1.11069e-13 0)
(2.11014 -0.260902 0)
(2.16787 -0.245654 0)
(2.00007 -0.00013728 0)
(2 -2.02725e-13 0)
(2 8.89508e-14 0)
(1.82864 0.229628 0)
(2 6.19857e-15 0)
(2 -1.01189e-14 0)
(1.83162 0.22905 0)
(2 -1.2913e-13 0)
(1.82464 0.227801 0)
(1.82972 0.228338 0)
(2.10526 -0.282553 0)
(2 2.29508e-14 0)
(2 -1.1445e-13 0)
(2.10855 -0.264813 0)
(1.83199 0.229129 0)
(2 -1.19819e-13 0)
(2 -1.70258e-13 0)
(2 -3.07983e-14 0)
(1.83214 0.229133 0)
(2 -2.00338e-13 0)
(2.09377 -0.260475 0)
(2 -6.26316e-11 0)
(2 3.63579e-14 0)
(1.83184 0.229132 0)
(1.83127 0.228928 0)
(1.82778 0.228021 0)
(2 4.91918e-14 0)
(1.99999 2.4014e-05 0)
(2 1.52835e-14 0)
(2 3.98292e-14 0)
(2 -2.41133e-14 0)
(1.83161 0.229016 0)
(2 -9.05909e-14 0)
(2.13791 -0.268695 0)
(1.82544 0.235783 0)
(1.83149 0.228918 0)
(1.83159 0.229887 0)
(2 1.83443e-07 0)
(2 -1.96136e-14 0)
(2 -1.79539e-13 0)
(2.11264 -0.267505 0)
(1.83227 0.228533 0)
(1.91856 0.132278 0)
(2 1.16478e-14 0)
(1.83071 0.229524 0)
(2.12411 -0.265027 0)
(2.10831 -0.257068 0)
(1.83086 0.229626 0)
(1.83176 0.22817 0)
(2 9.56083e-15 0)
(1.83122 0.22886 0)
(2.09746 -0.278307 0)
(1.85019 0.207459 0)
(2 -8.59533e-14 0)
(2 -1.31218e-13 0)
(2 -1.93027e-13 0)
(2 -1.84382e-13 0)
(1.8321 0.229054 0)
(2 -1.71273e-13 0)
(1.89789 0.153994 0)
(1.98493 0.0276141 0)
(2 -9.33402e-14 0)
(2 -1.36069e-13 0)
(1.83206 0.229083 0)
(2.10822 -0.275347 0)
(2.09114 -0.154853 0)
(2 -3.02353e-13 0)
(1.8316 0.22764 0)
(2.09741 -0.26579 0)
(1.83028 0.230449 0)
(2 8.61553e-14 0)
(2 -3.67902e-14 0)
(2 -9.24734e-14 0)
(2 5.86538e-14 0)
(2 -1.39066e-13 0)
(2 -7.80866e-15 0)
(2 -2.11618e-13 0)
(2.11244 -0.263917 0)
(2.08055 -0.158023 0)
(2.11933 -0.261621 0)
(1.8311 0.229227 0)
(2 -5.06661e-14 0)
(2 1.29385e-13 0)
(2 -1.74326e-07 0)
(2 -2.17893e-13 0)
(1.84668 0.209651 0)
(2 -9.63129e-08 0)
(2.11017 -0.264693 0)
(2 -1.90829e-14 0)
(2.11807 -0.282233 0)
(2.10953 -0.2655 0)
(1.83189 0.228687 0)
(2.1142 -0.265258 0)
(1.83152 0.229521 0)
(2 4.3136e-14 0)
(2 -9.71206e-14 0)
(2 -1.09181e-13 0)
(2.00078 -0.0015552 0)
(2.09921 -0.260323 0)
(2.0826 -0.285055 0)
(2 -3.12826e-07 0)
(2 -1.3946e-07 0)
(2.12006 -0.277283 0)
(2 2.41827e-09 0)
(1.82943 0.228787 0)
(2.11827 -0.262533 0)
(2 -8.90818e-14 0)
(2 -3.2887e-11 0)
(1.83096 0.22886 0)
(2.10097 -0.274988 0)
(2 -2.45077e-13 0)
(1.83179 0.23407 0)
(2.15452 -0.258015 0)
(1.83209 0.229093 0)
(2 -1.96239e-13 0)
(2.11143 -0.286874 0)
(2.00086 -0.001386 0)
(2 -3.10644e-15 0)
(2 2.61656e-06 0)
(2 3.84019e-14 0)
(2.12641 -0.271227 0)
(2 -6.58171e-14 0)
(2 -1.6928e-07 0)
(2 5.48219e-08 0)
(1.99999 1.3437e-05 0)
(1.99495 0.00943547 0)
(1.89646 0.148625 0)
(2 -2.60845e-11 0)
(2.13951 -0.242962 0)
(2 -1.53535e-11 0)
(2 1.65262e-06 0)
(2 -1.29363e-14 0)
(2 -1.02505e-13 0)
(2 -6.24227e-14 0)
(2 -5.00072e-14 0)
(2 -1.13749e-12 0)
(1.83084 0.228772 0)
(2 1.50468e-13 0)
(1.82899 0.229364 0)
(2 2.42145e-14 0)
(2 -1.06454e-13 0)
(2 7.52312e-14 0)
(2.11047 -0.26209 0)
(2 2.94498e-14 0)
(1.83045 0.228803 0)
(2.11331 -0.262911 0)
(2 -5.32014e-14 0)
(1.87531 0.174808 0)
(2 -1.23914e-13 0)
(2 -9.60689e-14 0)
(1.82953 0.228545 0)
(2 1.03475e-13 0)
(2 -9.61355e-09 0)
(2 1.45007e-13 0)
(1.82632 0.227806 0)
(2 4.76411e-10 0)
(2 -6.7898e-16 0)
(1.83147 0.226016 0)
(1.8297 0.22888 0)
(2 8.69229e-14 0)
(1.9644 0.05067 0)
(2 4.11171e-14 0)
(2 -5.96911e-15 0)
(2.13168 -0.269321 0)
(2 -1.4711e-13 0)
(2 -1.17803e-13 0)
(2 5.19557e-14 0)
(2.07127 -0.273029 0)
(2 -8.92827e-15 0)
(2 2.79852e-14 0)
(2 8.14212e-14 0)
(2 -7.8143e-15 0)
(2.15318 -0.255343 0)
(2 1.13597e-14 0)
(2 1.02354e-13 0)
(2 -2.12733e-13 0)
(2 5.02301e-14 0)
(2 -6.44268e-14 0)
(2.06085 -0.284188 0)
(1.99998 3.73052e-05 0)
(1.83155 0.229047 0)
(2 -1.10747e-14 0)
(2.00001 -4.24938e-05 0)
(1.83174 0.229062 0)
(1.83129 0.229331 0)
(2 -1.55329e-13 0)
(2 -1.84229e-13 0)
(2.10119 -0.271833 0)
(2.06474 -0.128974 0)
(1.82925 0.228288 0)
(2 -5.38615e-14 0)
(2 1.7007e-13 0)
(2 -2.4362e-15 0)
(1.83223 0.229023 0)
(2.09131 -0.266513 0)
(2 6.16594e-14 0)
(1.83108 0.228937 0)
(2 6.88575e-14 0)
(2 3.03362e-14 0)
(2.09041 -0.215136 0)
(2.09965 -0.20759 0)
(2 -2.27251e-13 0)
(2.09238 -0.260682 0)
(2.11326 -0.259534 0)
(2 -1.17756e-14 0)
(2 1.19061e-13 0)
(2 -1.06499e-13 0)
(2 4.09866e-14 0)
(2 -9.73698e-11 0)
(2 -7.39401e-15 0)
(2 -1.04488e-13 0)
(1.83561 0.229641 0)
(1.95514 0.0676069 0)
(1.83622 0.232397 0)
(2.06281 -0.277707 0)
(2.0362 -0.0690576 0)
(1.82992 0.228975 0)
(2 -5.10527e-13 0)
(1.83061 0.228649 0)
(1.82913 0.22844 0)
(2.12865 -0.26405 0)
(2.08795 -0.145564 0)
(2 6.02644e-13 0)
(2.10509 -0.268283 0)
(2 -6.59807e-14 0)
(1.82317 0.233655 0)
(2 2.48934e-14 0)
(2 9.52973e-15 0)
(2 -1.22137e-13 0)
(2 -6.01182e-14 0)
(1.83203 0.229158 0)
(2 -9.86409e-14 0)
(2 -9.72039e-14 0)
(2 -1.39892e-14 0)
(2 1.49804e-09 0)
(2 -1.34878e-13 0)
(2 -2.31282e-13 0)
(2 -1.23808e-13 0)
(1.93712 0.0937374 0)
(1.82621 0.228176 0)
(2 9.65314e-15 0)
(1.83134 0.229107 0)
(2 1.48964e-14 0)
(2 -1.05879e-13 0)
(2.10406 -0.259872 0)
(2 -3.3773e-13 0)
(2 7.4072e-14 0)
(2 -3.35882e-13 0)
(2 -2.29022e-13 0)
(1.83208 0.229088 0)
(1.87027 0.183316 0)
(2 -6.35782e-14 0)
(2 -1.9658e-13 0)
(2.09679 -0.26644 0)
(1.83125 0.228712 0)
(1.8316 0.229011 0)
(2 1.22139e-13 0)
(1.83173 0.229048 0)
(1.83155 0.228767 0)
(1.83133 0.229039 0)
(2 1.13386e-14 0)
(2.05189 -0.118892 0)
(2 6.82429e-14 0)
(1.83181 0.228715 0)
(2.00492 -0.0101066 0)
(1.83153 0.228987 0)
(2 4.12937e-14 0)
(2.12787 -0.268212 0)
(2.00034 -0.00063828 0)
(1.83053 0.228705 0)
(2 -3.26476e-14 0)
(2 5.43337e-17 0)
(2 -5.09734e-11 0)
(2 -2.16692e-11 0)
(2.11279 -0.261893 0)
(1.83214 0.228552 0)
(1.84693 0.212468 0)
(2 -8.33759e-14 0)
(1.83314 0.227333 0)
(1.83217 0.229006 0)
(1.82952 0.228195 0)
(2 1.41965e-13 0)
(1.9164 0.125308 0)
(1.83078 0.229677 0)
(2 -1.21145e-13 0)
(2 -1.04851e-13 0)
(1.88378 0.165128 0)
(1.97684 0.0386944 0)
(1.83189 0.229146 0)
(2.02281 -0.0480679 0)
(1.83159 0.229094 0)
(2 -3.20534e-15 0)
(1.83167 0.228936 0)
(1.83113 0.228966 0)
(1.83137 0.228998 0)
(1.8314 0.228567 0)
(2 -3.49284e-14 0)
(1.84422 0.213315 0)
(2.03116 -0.0659724 0)
(2.03658 -0.0751478 0)
(2 9.54167e-14 0)
(2 -3.80219e-07 0)
(2 -7.71894e-14 0)
(2 5.48733e-14 0)
(1.82868 0.231956 0)
(2 -1.90211e-14 0)
(2 -6.78812e-16 0)
(2 -8.49002e-14 0)
(2 -9.84494e-14 0)
(2 -2.79258e-14 0)
(1.83018 0.22858 0)
(2 -3.8979e-14 0)
(2 -2.93671e-14 0)
(2.00161 -0.00291769 0)
(1.83164 0.228879 0)
(1.86777 0.190143 0)
(2 -1.24774e-13 0)
(1.85732 0.195526 0)
(1.99998 2.48172e-05 0)
(2 -3.34777e-14 0)
(2 -8.65262e-14 0)
(1.8317 0.229021 0)
(2 -6.76282e-14 0)
(2.00147 -0.00147989 0)
(1.99854 0.00353157 0)
(2 5.7126e-14 0)
(1.83124 0.228892 0)
(2 2.71248e-15 0)
(1.83212 0.229228 0)
(2 -4.15671e-15 0)
(2 -9.83686e-15 0)
(1.8764 0.178128 0)
(2 6.80919e-14 0)
(1.83187 0.229533 0)
(1.99999 1.31441e-05 0)
(2 1.51676e-14 0)
(1.83149 0.229469 0)
(2 -1.64207e-13 0)
(1.83195 0.229004 0)
(2 8.37334e-14 0)
(2 2.86139e-06 0)
(2 -2.56801e-14 0)
(1.83206 0.229081 0)
(2 1.15237e-13 0)
(1.8298 0.230192 0)
(2 4.56601e-06 0)
(1.83206 0.229165 0)
(1.83009 0.229026 0)
(1.83164 0.228889 0)
(1.83439 0.229779 0)
(2 -1.29358e-15 0)
(1.83032 0.228418 0)
(1.83891 0.222906 0)
(2 -4.28034e-14 0)
(2.09452 -0.254031 0)
(1.84219 0.217171 0)
(1.87901 0.171965 0)
(2 -6.24568e-15 0)
(1.83195 0.229008 0)
(2 7.57655e-14 0)
(2.12069 -0.267449 0)
(2.15895 -0.249653 0)
(2 8.623e-14 0)
(2 3.48376e-14 0)
(2 9.84533e-14 0)
(2 -8.44079e-14 0)
(2 1.66862e-09 0)
(2.07489 -0.280907 0)
(2 2.72551e-14 0)
(1.83127 0.229197 0)
(1.95541 0.0738172 0)
(1.8314 0.228771 0)
(2 -1.9914e-13 0)
(2 8.80671e-11 0)
(2 -1.66079e-13 0)
(2 -1.91568e-13 0)
(2 -5.39842e-08 0)
(1.8311 0.228992 0)
(2 -2.43167e-13 0)
(1.83109 0.228776 0)
(1.89924 0.148042 0)
(2.07948 -0.14673 0)
(2 1.32402e-09 0)
(1.99999 8.40176e-06 0)
(1.95345 0.0743802 0)
(1.96178 0.0634068 0)
(2 -9.97285e-14 0)
(2 -1.27223e-14 0)
(1.93807 0.0894965 0)
(2 5.29339e-14 0)
(2.10256 -0.261126 0)
(1.83159 0.229017 0)
(1.83149 0.229128 0)
(2 -6.29863e-11 0)
(2 -6.9042e-14 0)
(2 -1.34024e-13 0)
(1.83011 0.22913 0)
(2 -2.50448e-13 0)
(1.99999 1.60955e-05 0)
(1.83 0.23045 0)
(1.83197 0.228618 0)
(2.01126 -0.0283279 0)
(2 6.65937e-15 0)
(2 1.37271e-10 0)
(2.11373 -0.267767 0)
(1.8463 0.212032 0)
(2 -9.8808e-14 0)
(2 -7.18752e-14 0)
(2 -2.48738e-14 0)
(2 -2.86085e-11 0)
(2 -2.65819e-13 0)
(1.83181 0.228943 0)
(1.83067 0.228654 0)
(2 -1.8196e-13 0)
(1.83119 0.229014 0)
(1.83037 0.230544 0)
(1.8318 0.229032 0)
(2 3.00784e-14 0)
(2 -7.81159e-14 0)
(2 -6.18645e-11 0)
(2 -9.56807e-14 0)
(2.14487 -0.249015 0)
(1.82944 0.22861 0)
(2 -4.5597e-11 0)
(2 1.8357e-13 0)
(1.84584 0.212678 0)
(1.83227 0.228545 0)
(2 -2.45019e-13 0)
(1.84147 0.217408 0)
(1.82642 0.228093 0)
(2 -1.80133e-13 0)
(2 -2.18852e-07 0)
(2 8.06067e-11 0)
(2 -3.75993e-16 0)
(2 -9.13991e-14 0)
(1.83135 0.228946 0)
(2 -1.9217e-14 0)
(2 -8.13678e-14 0)
(2 -1.95191e-13 0)
(2 -9.90346e-14 0)
(1.83008 0.232813 0)
(2 -1.34886e-13 0)
(1.83462 0.232149 0)
(2.10052 -0.272192 0)
(2 -1.78663e-13 0)
(2.13016 -0.260772 0)
(2 2.68165e-14 0)
(2 -1.71012e-07 0)
(2 1.6268e-14 0)
(2.00126 -0.00191722 0)
(2.09444 -0.25991 0)
(2.00029 -0.000496906 0)
(2 -2.09819e-13 0)
(2 -8.81388e-14 0)
(2 -1.21293e-07 0)
(1.9765 0.0362966 0)
(2 5.34139e-14 0)
(2 2.30559e-13 0)
(2.04848 -0.0868614 0)
(2 -2.11781e-07 0)
(2 -6.3023e-14 0)
(2 1.32463e-14 0)
(2 -2.11266e-07 0)
(2 3.54781e-07 0)
(2 -1.26646e-07 0)
(2 -2.57209e-13 0)
(2 -1.57992e-06 0)
(2.02787 -0.0518791 0)
(2 -4.72948e-07 0)
(2 -4.57381e-08 0)
(2.00096 -0.00143243 0)
(2 -2.29799e-14 0)
(2.11525 -0.261646 0)
(2 -2.85268e-11 0)
(2 -3.8904e-12 0)
(2 -3.25415e-11 0)
(2 -4.0033e-14 0)
(1.87346 0.18006 0)
(2 -8.26316e-14 0)
(2 -1.12376e-13 0)
(2 8.19104e-14 0)
(2 -1.6852e-07 0)
(2.11204 -0.263275 0)
(2 7.15381e-15 0)
(2 1.49265e-09 0)
(1.84152 0.217316 0)
(1.82995 0.228772 0)
(2 -3.08894e-07 0)
(2 -1.03328e-13 0)
(2 -1.07524e-07 0)
(2.02628 -0.0713454 0)
(2 -9.06815e-14 0)
(2 4.25911e-10 0)
(2 -5.24794e-14 0)
(2 2.97216e-15 0)
(2 -2.7309e-14 0)
(2 -1.12373e-13 0)
(2.01296 -0.0285057 0)
(1.99389 0.0097938 0)
(1.83185 0.228726 0)
(2 -8.86647e-15 0)
(2 -5.15877e-14 0)
(2 -2.56006e-15 0)
(1.83154 0.228255 0)
(2.03242 -0.0653401 0)
(2 -4.6903e-09 0)
(2 5.11576e-14 0)
(2 -1.70777e-13 0)
(1.82827 0.228027 0)
(1.83137 0.228555 0)
(2 -2.87089e-08 0)
(2 5.35096e-06 0)
(2 3.55976e-09 0)
(2 -1.8064e-15 0)
(2 1.31242e-09 0)
(2 1.07925e-13 0)
(2 -2.39415e-11 0)
(2 -2.18834e-14 0)
(2 -2.11235e-14 0)
(2.1143 -0.264077 0)
(2 -2.80679e-14 0)
(2 -1.46631e-11 0)
(1.82905 0.228361 0)
(2.0974 -0.26416 0)
(2 -3.68694e-13 0)
(1.82881 0.227829 0)
(2 5.47055e-11 0)
(2.10694 -0.262915 0)
(2 -6.99415e-15 0)
(2 -4.33476e-13 0)
(2.11771 -0.264632 0)
(2 -1.90678e-13 0)
(2 -1.21423e-11 0)
(2 -4.9641e-12 0)
(2 7.45296e-14 0)
(2 -2.26975e-12 0)
(2 -2.6506e-14 0)
(2 -2.18023e-13 0)
(1.83496 0.225323 0)
(1.83224 0.228722 0)
(2 2.21262e-13 0)
(2 1.35105e-13 0)
(2 8.61717e-14 0)
(2 2.36542e-13 0)
(1.84575 0.212687 0)
(2 2.16795e-13 0)
(1.94805 0.0761892 0)
(2.08887 -0.253382 0)
(2 -3.08569e-08 0)
(2 2.27262e-13 0)
(2 -8.11251e-15 0)
(2 -3.67629e-14 0)
(2 4.21402e-14 0)
(2 5.70284e-14 0)
(2 -2.9742e-15 0)
(1.98629 0.0209581 0)
(2 -3.99809e-14 0)
(2 6.28338e-15 0)
(1.90896 0.119605 0)
(2 7.0355e-14 0)
(2 7.58318e-14 0)
(2 -1.84451e-13 0)
(1.86123 0.19354 0)
(2 -3.84936e-13 0)
(2 -1.29076e-13 0)
(2 -3.61815e-14 0)
(2 1.8708e-13 0)
(2.09861 -0.269726 0)
(2 3.66143e-12 0)
(2 -7.02389e-15 0)
(2.12027 -0.274927 0)
(2.10117 -0.269392 0)
(2 -2.22374e-13 0)
(2 1.01358e-13 0)
(1.83222 0.228905 0)
(2 2.41623e-13 0)
(1.97572 -0.0324491 0)
(2 4.39927e-14 0)
(2 7.03921e-14 0)
(2 2.78753e-14 0)
(1.88277 0.16574 0)
(2.11537 -0.269628 0)
(2 -2.94351e-13 0)
(2.12161 -0.274338 0)
(2 2.70348e-14 0)
(2.07408 -0.154766 0)
(2 -1.8339e-13 0)
(2 -1.79701e-14 0)
(2 4.52962e-14 0)
(1.83049 0.2292 0)
(2 -4.42447e-08 0)
(2 -1.15919e-13 0)
(1.83112 0.228696 0)
(2 -1.81783e-13 0)
(2 -2.50225e-11 0)
(2 1.68037e-09 0)
(1.83109 0.228728 0)
(2 2.22743e-10 0)
(2 -1.74983e-13 0)
(1.83139 0.228643 0)
(2 -6.81573e-14 0)
(2 -6.74479e-14 0)
(2.13408 -0.266038 0)
(2 -1.69982e-11 0)
(1.94809 0.076284 0)
(2 -6.89339e-14 0)
(2 -7.74749e-14 0)
(1.82985 0.228929 0)
(1.82995 0.228775 0)
(1.88859 0.162955 0)
(1.84961 0.20955 0)
(2 1.56775e-14 0)
(2.11971 -0.26557 0)
(2 -5.31176e-14 0)
(2 -7.46444e-14 0)
(1.83852 0.220066 0)
(2 -5.72465e-14 0)
(2.11644 -0.268673 0)
(2 1.07707e-14 0)
(2 2.72605e-14 0)
(2 5.93381e-14 0)
(1.83163 0.229551 0)
(2 -8.06567e-14 0)
(2 8.78477e-14 0)
(2 -1.98348e-14 0)
(2 -1.83131e-14 0)
(1.89693 0.149205 0)
(2 5.32657e-14 0)
(1.8446 0.23002 0)
(1.83166 0.228278 0)
(2.05134 -0.275348 0)
(2 -3.917e-14 0)
(2 -1.19163e-13 0)
(2.16876 -0.242689 0)
(2.17542 -0.254466 0)
(2 -2.73529e-13 0)
(2 -1.8346e-13 0)
(2 -6.59433e-12 0)
(1.88126 0.168641 0)
(1.87284 0.181485 0)
(2 1.11274e-13 0)
(2 -2.94647e-14 0)
(2 3.57827e-14 0)
(2 -2.19661e-14 0)
(2 -3.60784e-14 0)
(2 -4.08794e-14 0)
(2 -2.03409e-14 0)
(1.9249 0.11241 0)
(1.8317 0.228924 0)
(1.99969 -0.000102398 0)
(2 8.02033e-14 0)
(1.83374 0.226484 0)
(2.15488 -0.254466 0)
(2 2.3377e-14 0)
(2 1.3234e-14 0)
(2 5.76848e-14 0)
(1.90913 0.13421 0)
(2 -1.74489e-14 0)
(1.96753 0.0531168 0)
(2 -2.4066e-14 0)
(1.84602 0.212553 0)
(1.83224 0.228054 0)
(2 -2.0561e-14 0)
(2.12735 -0.26293 0)
(2 8.88958e-14 0)
(1.82904 0.228642 0)
(2 -7.89227e-16 0)
(2 5.74173e-14 0)
(1.83148 0.229424 0)
(1.84202 0.217433 0)
(2 -6.29869e-14 0)
(1.82583 0.229985 0)
(2 -1.232e-13 0)
(2.06174 -0.269945 0)
(2 1.3821e-13 0)
(2 -1.22236e-13 0)
(2 1.31494e-13 0)
(1.83539 0.228829 0)
(1.83497 0.225361 0)
(1.851 0.206603 0)
(2 -9.55922e-14 0)
(1.83046 0.230398 0)
(1.83176 0.229037 0)
(2 4.47716e-14 0)
(1.83158 0.229703 0)
(2 -9.76075e-09 0)
(1.83209 0.228113 0)
(2 -5.69866e-14 0)
(2.09679 -0.268724 0)
(2.00652 -0.0234521 0)
(2.11114 -0.264741 0)
(2 -3.38566e-11 0)
(2 -2.38387e-11 0)
(2 -3.60269e-11 0)
(2 -2.14946e-13 0)
(2 -1.46334e-11 0)
(1.83169 0.228862 0)
(2 5.23125e-14 0)
(1.83206 0.229005 0)
(2 -3.82398e-11 0)
(2 -9.295e-11 0)
(2 1.01959e-13 0)
(1.84007 0.219238 0)
(2 -3.82524e-14 0)
(2.11273 -0.267767 0)
(1.83135 0.228783 0)
(2 -2.92391e-14 0)
(2.11008 -0.261727 0)
(2.10729 -0.246611 0)
(2.11868 -0.257972 0)
(2 7.43649e-14 0)
(1.91743 0.126285 0)
(1.98907 0.018203 0)
(1.83073 0.229429 0)
(1.8317 0.229015 0)
(2 -4.271e-14 0)
(2 -3.83106e-07 0)
(2 -8.05139e-08 0)
(2 -2.05147e-13 0)
(1.83125 0.228756 0)
(2 4.38321e-17 0)
(2 -3.82979e-14 0)
(1.83133 0.228769 0)
(1.83157 0.229007 0)
(2 -1.86161e-13 0)
(1.94058 0.0857784 0)
(1.99971 0.000742894 0)
(2 4.94663e-14 0)
(2.00108 -0.00190614 0)
(1.82736 0.228073 0)
(2.05298 -0.0984379 0)
(2 -1.19866e-07 0)
(2.06127 -0.124646 0)
(2.10718 -0.262372 0)
(2.10153 -0.261386 0)
(1.992 -0.0308088 0)
(1.83055 0.228825 0)
(1.83369 0.226511 0)
(1.9635 0.0556993 0)
(1.8313 0.228862 0)
(1.83123 0.228932 0)
(2 1.87773e-13 0)
(2 1.24619e-13 0)
(1.83747 0.229175 0)
(1.82883 0.229344 0)
(1.83175 0.229002 0)
(1.82766 0.228365 0)
(2 -1.75716e-14 0)
(1.83129 0.228954 0)
(2.10556 -0.26452 0)
(1.83101 0.228113 0)
(1.83054 0.228162 0)
(1.82932 0.2283 0)
(1.82988 0.229992 0)
(2.04017 -0.0857843 0)
(2.03934 -0.0713987 0)
(2.02543 -0.0500514 0)
(1.83143 0.228711 0)
(2.01347 -0.0277242 0)
(1.83042 0.228627 0)
(2 1.75189e-14 0)
(2 8.00895e-14 0)
(1.8307 0.229625 0)
(1.83112 0.22905 0)
(2 -1.49957e-13 0)
(2.10328 -0.264058 0)
(1.83083 0.229109 0)
(1.83139 0.228754 0)
(2 -4.33902e-14 0)
(1.83177 0.228993 0)
(1.8316 0.229037 0)
(2 -5.08416e-15 0)
(1.83142 0.22885 0)
(2.11205 -0.262819 0)
(1.83125 0.23051 0)
(1.83617 0.229745 0)
(1.83062 0.228707 0)
(1.83247 0.230145 0)
(2 -8.86743e-14 0)
(2 -1.05964e-13 0)
(2 -1.14655e-07 0)
(1.83145 0.228693 0)
(1.89207 0.157662 0)
(2.11589 -0.242939 0)
(1.83111 0.228763 0)
(2.11662 -0.269688 0)
(1.83159 0.228659 0)
(2 7.94196e-15 0)
(2 -2.71494e-14 0)
(2 4.1925e-14 0)
(2 4.28154e-14 0)
(1.83177 0.227152 0)
(1.83089 0.228956 0)
(2 9.74706e-14 0)
(2 -1.32061e-14 0)
(1.83126 0.229061 0)
(2.11398 -0.265598 0)
(1.83116 0.228739 0)
(2.11316 -0.266024 0)
(2 5.01585e-15 0)
(1.83299 0.227766 0)
(2 -9.9147e-14 0)
(2.04599 -0.263776 0)
(1.83102 0.229333 0)
(2.08722 -0.204268 0)
(2 3.11091e-14 0)
(1.83161 0.228861 0)
(1.83048 0.229773 0)
(1.83194 0.228711 0)
(2 -2.78723e-13 0)
(2 2.41376e-14 0)
(1.91258 0.124916 0)
(1.83089 0.229539 0)
(2.09293 -0.258798 0)
(1.83199 0.228954 0)
(2 -1.01813e-13 0)
(1.83215 0.228908 0)
(2.0423 -0.0763115 0)
(1.83213 0.228646 0)
(2.11583 -0.257665 0)
(2 3.13718e-14 0)
(1.83238 0.228455 0)
(2.10904 -0.227025 0)
(1.83077 0.229643 0)
(2.10723 -0.261996 0)
(2 1.04667e-13 0)
(1.83158 0.229242 0)
(2 5.05776e-14 0)
(1.8269 0.228292 0)
(2 -1.67586e-13 0)
(1.90101 0.142587 0)
(1.8378 0.222151 0)
(1.86789 0.188273 0)
(2.13871 -0.273513 0)
(2 -2.01118e-13 0)
(1.83159 0.228925 0)
(2 5.06761e-14 0)
(1.83174 0.229056 0)
(2 -1.23937e-07 0)
(1.83183 0.228981 0)
(2 -2.29775e-07 0)
(2 -1.97612e-13 0)
(1.83118 0.229525 0)
(2.0027 -0.00855635 0)
(1.83049 0.230268 0)
(2.03544 -0.271807 0)
(1.8439 0.230512 0)
(2 6.03052e-14 0)
(1.88107 0.17146 0)
(2 -4.49994e-14 0)
(1.83068 0.229207 0)
(1.83186 0.228949 0)
(1.83063 0.228736 0)
(2 -8.46354e-15 0)
(1.84807 0.210072 0)
(1.83085 0.228816 0)
(1.84446 0.215148 0)
(1.89664 0.15242 0)
(1.8339 0.229604 0)
(2 -2.00744e-14 0)
(1.88712 0.1649 0)
(2 1.05899e-14 0)
(1.83109 0.228999 0)
(2 3.90145e-14 0)
(1.97757 0.0324528 0)
(2 8.73638e-14 0)
(1.84308 0.215531 0)
(2 -1.35109e-14 0)
(1.83205 0.22885 0)
(1.8396 0.219488 0)
(1.83974 0.219571 0)
(2 1.00958e-13 0)
(1.84238 0.223857 0)
(2.16785 -0.258448 0)
(2 1.71829e-13 0)
(2.10602 -0.269233 0)
(2 -2.01407e-13 0)
(2 7.81185e-14 0)
(2 -3.34557e-14 0)
(1.83087 0.228946 0)
(2 6.49513e-14 0)
(1.83171 0.229133 0)
(2 -9.00586e-15 0)
(2 -1.9031e-14 0)
(2 -1.65069e-13 0)
(1.83114 0.229739 0)
(1.84097 0.225396 0)
(1.85466 0.206719 0)
(1.83123 0.228552 0)
(1.83163 0.228617 0)
(2.12799 -0.259524 0)
(1.82696 0.231982 0)
(1.82185 0.22822 0)
(2 -1.40581e-13 0)
(1.863 0.193276 0)
(1.83176 0.228896 0)
(1.83292 0.219709 0)
(2 -1.90224e-13 0)
(1.82791 0.228595 0)
(1.83015 0.228964 0)
(2 -8.25592e-14 0)
(1.82784 0.230548 0)
(1.8315 0.22957 0)
(1.83062 0.228214 0)
(1.83106 0.229405 0)
(2 -2.61055e-13 0)
(2 -3.67895e-14 0)
(2 -2.96253e-14 0)
(1.83189 0.229026 0)
(2.14719 -0.258621 0)
(2 -1.28106e-14 0)
(1.83153 0.228884 0)
(2 -2.0448e-15 0)
(2 -9.77372e-15 0)
(2.1612 -0.255715 0)
(2 -1.22324e-13 0)
(2 -8.55792e-16 0)
(1.83135 0.228809 0)
(1.83208 0.22888 0)
(2 -6.44628e-14 0)
(1.83201 0.228939 0)
(1.8297 0.229889 0)
(1.83094 0.228724 0)
(2.00137 -0.0151777 0)
(1.83121 0.22893 0)
(2 -4.75004e-14 0)
(1.83125 0.228954 0)
(1.83154 0.229001 0)
(1.85758 0.196615 0)
(2 2.82943e-14 0)
(2 -1.2715e-13 0)
(2 1.88416e-14 0)
(1.83164 0.228199 0)
(1.83194 0.228898 0)
(1.83174 0.228965 0)
(2.01165 -0.0344857 0)
(2 -7.89397e-14 0)
(1.82874 0.23189 0)
(1.8321 0.22906 0)
(1.83139 0.229065 0)
(2 1.4608e-13 0)
(1.83216 0.229074 0)
(1.83092 0.228786 0)
(1.83143 0.228826 0)
(1.82846 0.232429 0)
(2 -4.57104e-14 0)
(1.83208 0.228783 0)
(1.82967 0.23167 0)
(1.85408 0.201817 0)
(1.83198 0.228628 0)
(1.8293 0.231514 0)
(2 -2.48179e-14 0)
(1.8305 0.229006 0)
(1.83357 0.227057 0)
(1.83164 0.228972 0)
(1.8321 0.227038 0)
(1.83197 0.228421 0)
(2.14698 -0.252683 0)
(1.83149 0.229169 0)
(1.83191 0.228652 0)
(2 -1.45234e-14 0)
(1.83131 0.229053 0)
(1.83165 0.228861 0)
(1.83131 0.228906 0)
(1.83197 0.229009 0)
(2 -5.68765e-08 0)
(1.83212 0.228938 0)
(1.8314 0.229028 0)
(2 -1.68551e-07 0)
(1.83135 0.228746 0)
(1.85919 0.196604 0)
(2 -1.08011e-13 0)
(2 -2.73471e-14 0)
(2 1.81022e-09 0)
(1.83136 0.229956 0)
(1.83166 0.229296 0)
(2 1.55208e-14 0)
(2 1.78368e-13 0)
(1.9096 0.131228 0)
(2 -2.17645e-13 0)
(1.83115 0.229235 0)
(2 -1.62817e-13 0)
(2 -1.00899e-13 0)
(1.83123 0.228911 0)
(1.83074 0.229532 0)
(1.83237 0.229092 0)
(1.83141 0.228944 0)
(2 -1.98038e-15 0)
(2 -6.12007e-14 0)
(2 2.75792e-14 0)
(1.88032 0.169399 0)
(2 5.96968e-14 0)
(1.83168 0.228953 0)
(2 -7.38997e-14 0)
(2 -3.78714e-14 0)
(1.8331 0.229082 0)
(1.83711 0.229434 0)
(2 -3.68419e-14 0)
(1.83152 0.228833 0)
(2.11282 -0.279704 0)
(1.83149 0.228888 0)
(1.83055 0.230845 0)
(2.08275 -0.209773 0)
(2 2.118e-14 0)
(2.13064 -0.273619 0)
(1.85062 0.203845 0)
(1.8294 0.231101 0)
(1.83245 0.228756 0)
(1.83258 0.229343 0)
(2.12276 -0.263157 0)
(1.83077 0.228964 0)
(1.83109 0.229486 0)
(2.12967 -0.256351 0)
(2.11845 -0.27228 0)
(2 -2.50748e-07 0)
(1.83186 0.228196 0)
(1.83165 0.229537 0)
(2 1.59081e-16 0)
(2 -4.9616e-14 0)
(1.83181 0.229029 0)
(2 5.57658e-14 0)
(1.82734 0.230549 0)
(2 2.54244e-06 0)
(1.85345 0.20481 0)
(2 -8.39574e-14 0)
(1.92094 0.114312 0)
(1.83206 0.228692 0)
(1.83052 0.229725 0)
(1.87953 0.172015 0)
(1.83886 0.216304 0)
(1.82469 0.227838 0)
(1.83045 0.229371 0)
(1.8474 0.210013 0)
(2 -2.42594e-13 0)
(2.14802 -0.245685 0)
(1.83209 0.227071 0)
(1.8315 0.229298 0)
(1.82863 0.230676 0)
(2 7.04271e-06 0)
(2 4.38297e-10 0)
(2 1.42837e-09 0)
(1.82949 0.229195 0)
(2 4.18622e-14 0)
(1.83167 0.228852 0)
(1.83148 0.228893 0)
(2.08272 -0.182753 0)
(2 5.83134e-15 0)
(1.83175 0.228945 0)
(2.00003 -4.92158e-05 0)
(2 1.80653e-13 0)
(1.99999 1.80705e-05 0)
(1.99998 2.70864e-05 0)
(1.83133 0.2295 0)
(1.83029 0.228486 0)
(2.00055 -0.000891466 0)
(2 -9.33874e-14 0)
(2 -3.48385e-14 0)
(1.83167 0.229048 0)
(1.83071 0.229811 0)
(1.83154 0.228962 0)
(1.831 0.229399 0)
(1.83136 0.229304 0)
(2.12376 -0.246422 0)
(1.85423 0.204013 0)
(2 -2.98709e-14 0)
(1.83305 0.227637 0)
(1.83222 0.228927 0)
(1.83164 0.228952 0)
(1.82954 0.227375 0)
(2 -2.02986e-13 0)
(1.83206 0.228962 0)
(1.83606 0.223904 0)
(1.83139 0.229594 0)
(2 -1.82857e-13 0)
(1.83099 0.228856 0)
(1.83135 0.228038 0)
(2.04992 -0.098731 0)
(1.83208 0.228956 0)
(1.83113 0.228805 0)
(2 -2.46713e-14 0)
(1.83156 0.228879 0)
(2.05662 -0.113508 0)
(1.83132 0.229031 0)
(2.04799 -0.0958248 0)
(1.83192 0.229041 0)
(2 -1.21401e-07 0)
(1.83128 0.228813 0)
(1.82631 0.231478 0)
(1.83186 0.228885 0)
(1.83183 0.229038 0)
(1.83133 0.228828 0)
(1.83129 0.228901 0)
(1.83164 0.229309 0)
(1.83009 0.228441 0)
(2 -2.41451e-14 0)
(2.02442 -0.0469404 0)
(1.83132 0.229029 0)
(1.8317 0.229155 0)
(2.05561 -0.111619 0)
(1.83164 0.228853 0)
(2.00805 -0.0162022 0)
(1.8966 0.154497 0)
(1.83176 0.228913 0)
(1.83151 0.228855 0)
(1.83098 0.22762 0)
(2 1.06701e-13 0)
(1.83043 0.230225 0)
(1.89515 0.155341 0)
(1.83217 0.22871 0)
(2.02539 -0.0629339 0)
(1.83083 0.230006 0)
(1.82685 0.232876 0)
(2 -1.00896e-13 0)
(2.03957 -0.0863808 0)
(2 -5.63465e-09 0)
(1.82844 0.234268 0)
(2 -4.50714e-14 0)
(1.88453 0.165477 0)
(2 4.28978e-09 0)
(1.84606 0.207835 0)
(2.03954 -0.0825563 0)
(2 9.1671e-14 0)
(1.82994 0.230454 0)
(1.82845 0.231258 0)
(2 -9.44475e-14 0)
(1.83093 0.227693 0)
(1.83073 0.229594 0)
(1.82998 0.232592 0)
(1.82939 0.227471 0)
(1.83343 0.232392 0)
(2 -2.4162e-13 0)
(1.83035 0.22887 0)
(2 4.71795e-14 0)
(2 1.75497e-13 0)
(2 3.1738e-14 0)
(2.03671 -0.0681756 0)
(1.83175 0.228751 0)
(1.83196 0.228167 0)
(1.83006 0.228607 0)
(1.83158 0.228869 0)
(1.83051 0.230825 0)
(1.83229 0.229027 0)
(1.83514 0.22835 0)
(1.83172 0.229143 0)
(2.03293 -0.0627703 0)
(1.98975 0.0208404 0)
(2 3.57077e-09 0)
(2 2.91887e-14 0)
(1.82488 0.23135 0)
(1.83168 0.229012 0)
(1.83144 0.22891 0)
(1.83163 0.228952 0)
(1.99999 1.66295e-05 0)
(1.91589 0.132132 0)
(2 -1.69741e-07 0)
(1.82778 0.230443 0)
(1.84854 0.215754 0)
(2 -3.141e-12 0)
(2 -5.56798e-11 0)
(2.08281 -0.194009 0)
(1.83157 0.228998 0)
(2 -3.47348e-14 0)
(2 -9.31213e-14 0)
(2.10625 -0.26404 0)
(1.83146 0.228917 0)
(2 -1.09399e-13 0)
(1.82467 0.228261 0)
(1.83149 0.228866 0)
(1.82363 0.228437 0)
(1.83798 0.221818 0)
(1.83138 0.22882 0)
(2 9.48306e-12 0)
(2.1337 -0.265175 0)
(1.96096 0.0659406 0)
(1.83123 0.22936 0)
(1.83133 0.228871 0)
(2 -6.69444e-14 0)
(1.8322 0.228973 0)
(1.83136 0.228822 0)
(1.91204 0.123135 0)
(1.99683 0.00766745 0)
(1.96914 0.0547073 0)
(2 1.01884e-13 0)
(1.82684 0.227779 0)
(1.83119 0.229117 0)
(2 -1.19414e-07 0)
(2 -1.99821e-10 0)
(2.13972 -0.257974 0)
(2 -2.34837e-10 0)
(2 1.46414e-13 0)
(1.83178 0.228924 0)
(1.83154 0.228922 0)
(1.83084 0.230999 0)
(1.83164 0.229045 0)
(1.83119 0.229096 0)
(1.82889 0.230511 0)
(1.83141 0.229026 0)
(1.83084 0.230072 0)
(1.83117 0.229151 0)
(2 1.74953e-13 0)
(2.00161 -0.00228828 0)
(1.83159 0.228914 0)
(1.83188 0.22892 0)
(2.00108 -0.0016638 0)
(1.83143 0.228827 0)
(1.83145 0.228935 0)
(2.13839 -0.258557 0)
(2.05386 -0.275283 0)
(1.83147 0.229438 0)
(1.82879 0.229926 0)
(2 -6.22463e-14 0)
(2 1.50192e-13 0)
(1.99952 0.00177933 0)
(1.83169 0.228926 0)
(1.83064 0.230906 0)
(1.83146 0.228999 0)
(2 9.59947e-10 0)
(1.8314 0.228803 0)
(2 -1.39117e-14 0)
(2.04343 -0.0972916 0)
(1.82795 0.230711 0)
(1.83235 0.229736 0)
(2 2.69674e-14 0)
(1.92442 0.110977 0)
(1.83133 0.2285 0)
(2 2.77915e-14 0)
(1.82871 0.227065 0)
(2 -1.05677e-10 0)
(1.83211 0.228881 0)
(1.88473 0.167743 0)
(1.8314 0.228562 0)
(2 1.33965e-11 0)
(1.83229 0.227665 0)
(1.83023 0.231821 0)
(2.14115 -0.254101 0)
(1.83176 0.229132 0)
(2 -1.20008e-07 0)
(1.83124 0.2276 0)
(1.83195 0.229877 0)
(2 7.19928e-09 0)
(2.13866 -0.257276 0)
(1.83158 0.229856 0)
(1.87297 0.185554 0)
(2.00083 -0.00104982 0)
(1.83754 0.233384 0)
(1.83157 0.228944 0)
(2 -4.21872e-12 0)
(1.99764 0.00240935 0)
(1.83147 0.228041 0)
(2.00194 -0.00195985 0)
(1.83128 0.229 0)
(2 -3.19567e-12 0)
(2 1.43288e-14 0)
(1.83151 0.228237 0)
(2 8.44871e-14 0)
(1.83181 0.227444 0)
(1.83138 0.228836 0)
(2.00135 -0.00247213 0)
(1.87138 0.177521 0)
(2 2.94289e-09 0)
(1.83147 0.228912 0)
(2 4.06898e-10 0)
(2 -6.32545e-13 0)
(2 9.7655e-12 0)
(2 6.82506e-12 0)
(1.83167 0.228991 0)
(2 7.28156e-09 0)
(2 -1.5314e-14 0)
(1.82631 0.233953 0)
(2 1.36703e-13 0)
(1.83142 0.229209 0)
(2 2.97051e-10 0)
(1.89068 0.157831 0)
(1.82919 0.230911 0)
(1.8316 0.228049 0)