/*--------------------------------*- C++ -*----------------------------------*\
  =========                 |
  \\      /  F ield         | OpenFOAM: The Open Source CFD Toolbox
   \\    /   O peration     | Website:  https://openfoam.org
    \\  /    A nd           | Version:  12
     \\/     M anipulation  |
\*---------------------------------------------------------------------------*/
FoamFile
{
    format      ascii;
    class       volScalarField;
    location    "2";
    object      p;
}
// * * * * * * * * * * * * * * * * * * * * * * * * * * * * * * * * * * * * * //

dimensions      [1 -1 -2 0 0 0 0];

internalField   nonuniform List<scalar> 
45568
(
2.49902
1.24448
2.60999
1.59489
0.851337
1.21912
0.83098
1
0.635406
1.70923
0.5123
2.74217
1.9334
1
0.637676
0.327566
1
1
1.00611
1.65891
1
2.61843
1.69974
1
1
1.22118
1
1
0.331013
1.71161
0.912824
1
1
1.6604
0.918066
0.888377
0.853644
1
1.68291
1
1
0.328884
1
2.75997
1
3.77847
0.3282
3.14489
0.912346
1
2.72357
2.15551
1
1.70991
0.476951
2.60205
2.73693
2.34513
1.88358
0.940516
1
1.89476
1
1
0.434038
1.11152
1
1.01623
0.857425
3.26692
0.718523
0.517095
2.73889
1.71579
2.76408
1
1
1.28717
0.935145
1
1.8971
1.52203
0.503923
2.73471
2.01526
1.00003
2.5514
1.25038
0.839664
0.629996
0.872059
1
0.954495
3.1876
1
1
3.25218
1.92923
1.02026
1.72176
0.781474
2.04869
1.00513
1
1
1
1
2.61965
1
3.17109
1
0.662916
0.909382
1
3.19922
1
1
1.00426
2.40729
1.7611
1
1.78102
2.5999
2.60705
1
1.791
2.95786
0.403573
1.75648
1
2.64698
2.87966
2.96877
1
0.328718
1
1
1
2.02293
2.06559
1
1.58454
1.75553
1
0.321997
1
1
1
1
1
1.34125
1
0.3916
1.03398
0.380915
1
1
1.01286
0.315086
0.435545
0.310993
1
2.29853
0.328629
0.343574
0.64151
0.88204
1
0.434467
1
0.327213
1
1.29963
1
2.42627
0.318869
0.316058
0.400528
2.55376
2.79686
2.41302
1.71763
0.328544
0.327869
1.28337
0.860145
1
1
0.883479
0.331815
0.332993
1.68996
0.878051
1.27679
1.905
0.77776
0.329628
0.917594
0.325597
0.330169
1.10993
1.54627
2.61594
4.2928
3.83017
2.22271
0.882487
1.57214
0.936821
2.52542
1.00335
1
0.494954
1
2.62118
0.327579
0.327542
1
1.68863
2.62394
1.93903
0.91762
0.946504
1.36252
2.54008
1.0653
0.325471
0.324803
1
0.881887
0.596028
1.67731
0.405518
2.61504
1.65324
0.517505
0.649713
1.21796
1
0.468701
0.29599
1.23462
2.44156
1.00003
1.24751
1.13437
2.60925
1.25608
1.17163
1.13791
1
1.10508
1.17527
2.95236
0.325392
1.07358
0.324811
0.325678
0.325214
1.1143
1
1.07878
1.3339
1
2.78765
1.07663
1.32594
1.52268
2.34776
0.325721
1.25709
0.325767
1
2.53499
4.32428
0.997579
1
1.46175
1
1
1
0.976336
1
0.344738
2.80417
1.6853
1.137
1.05778
0.823148
1.13941
1.05735
2.7943
2.66166
1.70677
1
1
2.48658
1.73143
1.6678
0.908604
1.29973
1.02971
1
2.61389
1.6837
0.912223
1.13219
2.92947
1
1.61048
2.60129
1
1.93449
0.633777
0.645729
1.99409
1.91369
1.23197
0.434433
0.381033
2.61469
0.479061
2.61358
1
1
1.67259
0.886112
1.70207
1.70773
1
1
0.412151
0.414438
1.50968
1
1.75178
1.48339
0.87639
2.54541
2.73315
4.94533
0.400792
2.61155
1.44357
1
1
1
0.802175
1
1
1.02758
1.82126
1
0.567951
1.71797
1.89557
1
1
1.97069
1.93114
4.4118
0.596174
1.58603
0.943586
0.950558
1.05533
1
1.92808
0.944378
2.81234
2.60252
2.28015
0.512569
1
0.896483
1.10651
1
2.11058
1.90331
0.688691
0.665262
0.66617
1
2.70757
0.322892
1
0.916659
1.08135
1
1.26904
1.83681
1
0.767778
1
0.325512
1
2.93088
1
1
1.24147
1
1
1.02131
1
1
0.46671
1
1
1.68848
1
1
1
0.466468
1
0.63615
1.65201
1
1.84987
1.76216
2.8467
0.904946
1
1
1
0.633533
1
2.50013
2.42308
0.49274
1
1.01467
1
1.00001
1
1
1.07344
0.927001
1
1
2.07186
0.327944
2.10507
1
1.71247
1.26712
0.868673
1
1
2.94976
1.96427
1.0976
1.52995
0.99999
0.683549
1.29931
1
0.956372
2.98582
1.69357
1.75265
1
1
0.694792
1
1
0.510139
1.74932
0.553068
0.350866
0.34201
0.993504
1.35712
1
0.307397
1
2.79195
2.18508
2.56335
2.6959
1.66634
2.16472
0.779842
1.01366
1.06319
1
2.1367
1.92674
1
1.00589
2.54532
1
1
1.02736
1
0.31524
1.41219
0.310544
1
1.81157
1.74201
1
1.61011
0.697968
1
1
1.67995
2.11002
2.34279
1.68694
1
0.816119
0.955967
0.918769
1
0.324464
1
1
0.333392
1
1
1
1
0.38679
1.53701
0.554837
1
1
0.683378
1.26795
1
1
2.59902
1.55076
2.61742
0.917157
1
1.355
0.326216
1
1.29147
1
0.355877
1
0.911999
2.0537
1
1
0.658394
1.17907
1
1
1
0.332115
0.332679
1
4.44481
1
1
0.955329
1
2.04375
0.329018
0.956387
1.55009
1.59993
1
1
1.65687
1
1
1
0.716221
0.835162
1
1.64965
1.00443
0.586556
2.91497
1
0.322734
0.831192
1.81007
0.306204
1.15146
0.405875
1.68098
3.04915
1.10495
0.657678
0.92288
0.931303
1
2.15756
1.10149
1
2.71654
0.926347
0.612088
0.858614
0.475071
0.32455
0.5591
1
1
2.58817
0.325095
0.325439
2.72798
0.884014
2.60011
1
1.50643
1
0.62625
0.864753
1.04935
2.45619
1.05565
1.00412
1
0.887517
1
3.74789
2.21659
0.854537
2.95112
0.327693
1
1.30356
0.675291
1
1.96735
1.07937
1.63995
0.631293
2.61553
0.462881
1.68183
1
1.91724
4.47983
1.13801
0.901037
0.329984
1
3.99819
1
2.61852
1
1
0.748717
0.46288
2.73609
1
1.0642
1.08251
4.50027
1.90596
1.4025
1.71406
0.565721
0.987793
1.70584
1.70569
0.919602
4.51569
2.04786
1.01382
1
0.948207
1
0.928248
0.720699
2.76762
1.39769
2.80663
0.669453
1
4.04921
1
0.902949
0.859786
0.975784
1.20572
1.00051
1.28293
1
1
2.83261
1.32679
0.32568
1.83096
0.494289
1
2.46523
0.325306
1.26287
0.396408
1.05831
1.09459
2.72984
1
1
1
1.65974
1
1.68744
1
1
1
1.00002
0.48881
1.46327
1.09699
1
1
0.861218
1.4557
1.00041
0.688828
1.91186
1.54043
1.21282
0.471363
0.469562
2.9842
1.8871
0.897492
0.354187
1
1
0.943615
0.49283
1.6929
1.35463
1.08761
0.955035
1.56363
2.57532
2.0018
1.73942
1.22611
0.366604
0.64605
1.03415
1
0.925326
1.25938
2.50243
1.25879
1
2.6143
1.04875
1.88717
1
2.62597
1.84305
1
0.947184
1.06709
1
1.68492
1.18673
3.09313
1.1308
1
1
1.18141
0.550399
1.81674
1.06064
1.18305
1.5476
1.89339
2.6079
2.01696
0.745564
0.324078
0.856915
1.84177
1.1839
0.841987
1.24101
0.878947
1.7126
1.64788
0.954824
2.1962
2.78105
1.85707
1.17645
3.59015
1.25867
0.997388
0.955275
2.36813
0.956616
0.641549
0.848504
1.21513
2.58192
2.73933
0.469688
2.25218
0.485435
2.77884
0.437691
1.54229
2.23013
0.922276
0.61717
1.20795
1.39635
1.03863
1
0.67288
1
1.15195
1.47782
0.657341
1
1.32826
1
4.3751
0.884909
2.63581
2.60576
2.70855
1.25997
1.18492
3.04829
1.46164
2.61622
1.02073
1
0.947575
1
2.73277
1
1
0.453439
1.35844
1.74602
2.4339
0.896431
1.63196
1.45827
0.922296
2.15724
2.40858
0.393957
1
1.93603
2.21727
1.17242
0.782335
0.795609
1
0.315777
0.824535
0.323426
2.71586
1.25041
1
1.13462
1.25918
0.432186
0.371651
1
1.13972
1.0663
1.07438
1.38456
1.91377
1.10389
0.916451
0.36141
2.03227
1.90942
1.85261
0.893594
2.03247
1.06971
1.11457
2.13216
1.17604
0.359376
2.17346
1
1
2.12701
1
0.946293
2.58701
1
1.11348
0.311412
1.25481
0.923226
0.315464
1.52237
1.81416
1.04398
2.97536
4.39761
1.13911
1.0399
1.04582
1
0.799831
1.66209
1.03793
2.15708
0.909241
0.900662
1.03379
1
1.03295
1.86257
0.708946
0.894172
0.936575
1.00296
0.803559
1
1.01579
1.00233
0.643071
0.719595
1.11856
0.321702
0.323681
0.843339
1.11394
1.95788
0.772805
1
0.996722
1.82329
0.847524
2.49099
1
1.20895
0.78224
0.329753
1.25412
1.13752
1.8942
1
1
1.32223
1
0.893996
1.69163
1.17605
0.331517
0.330996
0.99708
2.6324
1
0.306304
1.00859
1.75066
0.783686
1.13005
1.08248
1
0.997994
0.98027
0.905649
0.955988
1
0.986029
0.979862
0.318714
0.972066
1.81651
1
1.31227
0.999997
1
1
0.992817
2.62916
1.25345
1
1
1.36006
1.04737
1.04905
1.99946
1.97265
1.67885
1.10125
1.09051
0.326165
1
1
1.02578
1.30307
0.331671
0.331212
1.11171
1.81823
1.01432
1.66641
0.937957
1
1
1.72316
1
0.323217
1.27406
1
0.760467
1.65845
1
1.61702
1.41783
1.35595
1.58608
0.804513
1
4.06095
0.326171
0.907913
0.777057
2.12466
1
0.761557
1
1
0.764012
0.783043
3.54202
2.22626
1.82689
1
1.3252
1.33256
1.31201
0.910905
0.328862
0.317431
0.818371
1.08868
0.32867
1.85293
0.89024
1.80489
0.316098
1.09026
1.15795
1
0.911278
1.85685
1.25599
1.31635
0.599956
1.29337
1.27848
0.326071
0.414247
1.17953
0.720397
1.87603
0.939707
1.24254
1.33424
0.725148
0.32664
1.6296
0.983496
1
1
1.59414
1.702
1.55989
1
0.923507
1.24072
2.1732
2.57727
1.68227
2.18953
1
1.1532
0.864481
1.00076
1.70483
1
0.939753
1.07625
0.843596
0.818327
1.53494
1
2.09305
0.802467
2.05482
2.61308
1.0638
0.907445
0.51981
1.03268
0.915385
1
0.999985
1.68914
1.29967
0.949848
1.17069
2.27935
1.42466
1.15306
1.72455
2.226
1.25307
1
1.61768
0.87288
0.914829
1.21268
1.20597
0.951029
1.15113
0.82076
1
0.414553
0.597139
2.21002
1
1.29469
0.324462
3.25816
2.21166
1.6386
1.9013
1.04878
0.8982
1.83816
1.04242
1.93493
1.21061
1.27466
1
1
1.06498
0.951237
1
2.64469
2.52779
0.997944
0.940623
1
1.95147
0.996172
0.946633
0.901199
1.40519
1
1.15331
1
2.60777
1
0.801579
1.26442
1.58938
1.01623
1.26026
0.900875
1
0.799066
0.983975
0.325185
2.62198
1.40444
0.967757
3.71728
0.963241
1
1.00228
0.32409
1.00747
1.75677
1.41675
2.62011
2.21713
1.04768
1.05187
0.324725
0.791978
1
1.5176
1.40815
1.09155
1.50905
2.21486
1.08404
0.999914
1.22805
1.30506
1.14186
1.1462
1.42956
1
1.21489
1.20792
1.20442
0.952426
2.87972
1
2.83339
1
1
2.78324
1.60883
0.730461
1.24444
1.24129
1
1
1.67926
1.69472
1.24886
1
1.01486
0.947777
0.973363
1.05178
0.602747
0.922827
1.07545
1.02265
1
0.849194
1.68038
2.10154
0.623371
0.324837
0.585726
0.759996
0.325287
1
1.14666
0.872008
0.951416
0.606067
0.971325
1
1.84918
1
0.714494
0.975542
1.32357
1.6335
1
0.888036
1.31951
0.921421
2.61435
1.07975
0.570981
1.74015
1.94753
2.60916
1
1.35764
1.35826
1.38539
1.38195
1.43355
1.42046
1.08133
0.732906
1
1.49681
1
1.48829
1.77923
1.59123
1.80823
1.64126
0.346622
0.710127
1.58108
1.63523
1.5169
1.50263
2.60782
0.903253
1.12863
0.327017
0.324649
1.64861
1.60385
1.45074
1
1
1.5382
0.919818
1.12777
1.15862
1.54142
2.60863
1.53919
1
1
0.557845
1.23221
1
1
0.411521
1
0.946654
1.35581
0.622678
1.02151
1.28566
1.23711
1.00492
1.93098
1.36264
1.13287
0.584033
0.581874
2.617
1.38336
1.12807
0.326134
1.30753
1.11167
1
0.768988
1.15635
0.326693
2.61166
0.438994
0.325763
1.44123
2.61691
1
0.892367
1
1.67861
1.14763
2.61479
1.60645
0.580186
0.505466
1.8351
1.22453
2.61298
2.98975
2.07854
1.30363
2.06191
0.319175
2.61416
1.64106
0.7214
2.60434
2.60737
1.01151
2.60647
1.00054
1.63487
2.6087
1.15196
1.62137
2.61617
1.37687
3.02289
0.438359
2.61863
0.548034
1.36592
2.80072
1.13741
2.60349
0.906867
0.99994
2.60307
1.08083
1.77161
1
1.21312
1.45407
1.06582
2.42188
1.96525
1.15538
0.399553
0.91155
1
2.46143
1.00089
1.00689
2.6141
2.61516
2.86876
2.60568
0.766396
2.92892
2.61422
0.564827
2.00693
1.28262
2.64423
1.69895
1.55646
1.56757
0.583466
1
1
1.21414
1.06895
1.05798
1.04266
1.6191
0.685398
1.04273
3.59067
0.674483
1.97935
1.88043
1
2.61792
2.09071
2.60481
2.61239
1.46621
3.69009
1.00007
2.59934
1.08107
1.3017
2.61334
1
1
1.00004
2.61997
1
1
1
2.31719
1
1.36489
0.939094
0.959796
2.10654
0.960663
0.581431
0.840528
0.330823
1.17942
0.898228
0.891834
0.887479
0.860835
1.53621
2.42621
0.751711
1.58443
0.59899
1
2.13856
0.674249
1.13181
1.38424
1
1
1.12537
1.37433
3.043
0.948383
2.10862
0.686003
1.30121
1
2.99051
0.677897
1
1
3.10038
1.40136
0.812523
0.806104
1.26946
1.76499
1.14203
1.1305
0.831349
1
1
0.907155
1.64457
0.69708
1.2256
1
1.22545
0.740813
1.31434
3.1509
1.32283
1.3574
2.38263
1.16057
1.76105
1.42412
1.7704
0.885083
1
1.35586
2.60467
0.999998
1
1.69942
2.62131
0.328684
2.78756
1.04205
1.04043
1.68399
1.35445
1.23112
1.6927
1.70819
0.955296
1.16843
1
1.70193
0.959925
2.61838
2.61553
2.04086
2.62305
4.44835
0.896062
1
2.61517
1.58333
1
1.26093
0.325857
1.34811
1.9213
0.76834
1.92003
1.08952
2.2065
2.54934
0.766731
0.868014
2.60892
1.54184
1.02735
1.02305
0.308371
1
1.76458
1.31094
0.517894
0.843411
2.61682
0.329418
4.45215
1.02745
2.61726
1.11825
1.74376
0.753289
2.6097
0.893494
0.999992
1.88992
1.52536
0.29311
0.997131
1.62883
1.9022
1.36243
1.09968
1
1.54767
1.35214
1.48719
2.62314
1
2.61249
0.887754
2.15958
1.57115
1.62845
0.793893
1.31916
1
1
1.88813
0.93855
0.760434
1.53908
0.527298
1.51096
1.69668
3.20801
1.7132
1
1
1.72387
1.12434
0.643715
1.27094
0.94232
2.80115
1
1.22014
2.13978
2.77089
2.75244
1.17215
1.42828
3.66777
1
1
0.743401
0.937193
1.23037
1
1.38301
0.956652
1
1
1.00002
0.722434
1.32984
0.592755
2.69212
1
1
0.868091
1
1
1.27441
1
1.31767
1.23362
1
2.61881
1.07123
1
1
1
0.794035
0.403563
1.60121
1.96399
1
0.615632
1.9725
1.87695
2.63979
1.00002
1
0.872344
0.778798
1.21076
1.52786
3.54034
0.969035
1.08455
1.53757
0.41261
0.99936
1.6917
1
1.80274
2.15528
0.618487
2.16335
2.17546
2.60153
2.34794
1.75927
3.09901
0.985251
1
0.546787
0.398074
2.30126
2.21901
0.888363
1.28515
2.72151
2.233
0.325652
1
0.986814
1.33576
0.690161
1.09534
1
1.68611
2.93511
0.958586
1
1.15079
1.18541
1
2.20933
1.00004
0.328755
0.449727
0.993664
1.12674
0.989796
2.3546
1
1.30648
0.949521
1.30879
0.76759
1.88205
2.16616
0.821156
0.805078
1.90341
2.61373
1.22827
0.997629
1.32024
0.893005
2.6143
1
0.316316
1.16226
0.785076
1
2.30822
2.5913
1.19209
1.18689
1.65224
1
1.35166
2.61135
2.59906
2.60893
0.932936
1.37795
1.70405
2.60686
0.912344
1.31272
2.59185
2.39783
0.975572
0.904424
2.61536
0.997575
3.10459
2.61493
1
1
2.61402
0.722003
0.98639
0.51782
0.52644
1
1.78226
1
1.39569
1
1.60033
1
1.77329
1.27536
2.23629
0.439194
1
1
1.0002
1
0.896868
1.52773
0.999868
4.10248
0.974669
1
0.981462
2.61659
0.989343
1
1.25467
1
0.998604
1
0.540807
2.61967
2.61829
1.7149
1.32639
0.999999
1.02669
1.00992
0.999994
1
1.163
1.07527
1
0.726072
2.61135
0.993508
0.996956
0.873885
2.60929
2.572
0.864291
1
0.80916
1.40093
1
1.04079
2.64215
2.61248
0.814054
1.15524
0.946085
2.62888
1.03254
1.39075
1.04619
1.62163
2.99803
2.60202
0.999998
1.46452
2.6121
1
1.2196
1.04877
1.28236
1.33588
0.699528
2.3953
2.50778
2.31961
0.423776
0.9473
0.702505
2.35038
1.34861
1.12478
2.14202
2.36274
1
1
2.05109
0.780099
1
0.787259
2.35606
1.11669
0.626379
1
0.630091
1
1
1
1.58054
1.57201
1
1.12534
0.841954
1.71169
0.6393
2.56579
1.6942
2.8001
0.99997
2.74275
1.60132
1
0.81756
1
0.904688
1.62533
0.843443
2.92055
1.63334
1.8863
0.651655
1.53689
1.44807
1.16709
1.56641
1.50479
1.6111
1.5103
1.47465
2.62686
1.48375
0.976351
1.13636
1
2.15217
2.00212
1.06513
0.948973
2.60448
1.31492
1.42444
2.62643
2.16064
0.721451
2.17205
1
0.995375
1.00002
1.13165
0.942574
1.39868
1.40122
0.324686
1.71904
2.50393
2.6046
1.26795
1
1.17909
1.47361
2.6094
2.86863
1
1.18304
2.61084
2.28145
1.17607
4.39873
1.83318
1
2.61309
1.22759
1.95597
1.87363
1.35461
2.62464
1
2.62206
1
0.678668
0.904804
1
0.71885
1.30967
1
2.23185
1.83554
3.4546
3.04729
4.43628
1.00007
1.287
1.7713
0.999998
0.417098
0.744131
1.9348
1.78051
2.61677
3.38474
2.60726
1.82142
1.77902
1.00155
1.00217
1.50901
0.56426
1.69285
1.00131
3.9408
0.959794
0.568813
1.50599
1.40927
1.19348
1
0.999949
4.06093
0.85373
1.04837
1.00012
1
1.61535
0.732001
1.26328
2.24505
2.31218
0.862605
1
0.914482
1.96813
0.326452
4.64132
1.0614
1.04311
1.00045
1.60919
3.78542
0.720041
1.56553
0.82006
0.808855
1.57259
1.57338
2.58802
1
2.60357
0.775501
0.784879
1.2858
2.61258
2.65068
2.89701
1
1.5605
1
1
1
1.56346
1
1.17585
1.43259
0.766236
1.38761
0.787572
1.44068
0.768142
1.30929
1
0.751087
0.887255
1
0.919455
1.04904
1
1
1
2.19794
2.59728
1.2366
2.14771
1.23424
0.546559
2.6569
1
0.585214
1
2.12118
2.93417
1.27193
2.62423
0.602743
2.60714
1.09698
1.27751
0.945757
1
2.60958
1
2.26837
1
1
1
0.751906
2.61174
1
1
2.07172
1.34479
0.736865
0.717813
0.822323
1.78803
0.707237
0.811826
1
0.946104
1
1.0057
2.61017
1.01555
0.448828
0.950438
1.99629
1.71014
0.973692
0.500835
0.320895
2.61024
2.61244
1.39414
1.75066
1
1.5281
2.60013
3.9006
0.580444
1.84332
0.932508
1
1.34064
4.48676
2.01725
2.07474
2.24231
0.600344
0.942784
1
1.37433
1
2.62845
1
1.82056
1.99009
1
2.61433
1.3756
1.14345
2.61003
1.81909
2.61434
1
0.879289
0.910148
0.846834
1.70032
1.02135
1.00854
2.61231
2.61665
1.47134
1.44639
1.21201
1.47873
2.15376
2.6147
1
1
1.4999
1
2.61546
1.25016
0.664522
0.570389
1
1
1.50316
0.721799
0.900841
1.2491
1.35345
1.6241
1.09734
0.674989
2.61317
2.13136
1
0.565377
1.25747
2.45595
1.67149
1.03249
2.60587
0.853231
1.03933
1.70029
0.621295
1.83465
0.731915
2.61406
1.81105
1.83618
1.29005
2.61038
2.61954
1
2.6135
0.622445
0.747744
1.96135
1.99526
1.68377
1.70568
1.65099
1.29886
1.65497
2.63617
2.00072
2.61184
0.325288
2.59068
1.44182
0.632615
0.907679
1.16262
0.824815
0.94791
3.44592
0.426073
1
0.452165
1.00188
0.989247
0.626141
0.937039
1.32689
1.34794
2.63678
1.20861
0.938706
0.944812
0.804589
1.63655
2.61946
1
1.15883
0.786871
0.754613
1
2.15506
0.771708
0.97937
0.975182
2.17948
2.15921
2.17827
1.00039
1.023
1.0201
2.63085
0.49245
1.6679
0.756558
2.61334
1.06292
1.05949
2.61295
1.13415
1.10899
0.646364
0.444447
2.60818
1.23889
0.451079
1.46727
2.62202
1
1
1.10692
1.11683
0.3254
2.62324
0.673569
0.745117
3.71473
0.914085
1.39967
1.9024
0.953767
0.947184
2.61426
1.17856
1.16163
0.35576
0.993002
1.16389
1.65049
0.894574
1.23219
1.2295
0.673424
1.22512
1
0.999993
1
1
0.585306
1.13441
1.30814
2.00732
1
1.73914
1
2.60703
1
1.22914
1.22601
1.75869
1
2.61608
2.6196
0.994357
1.44396
1.19407
1.60135
1.49405
0.609424
0.772393
1.36783
1
1
0.765151
1.40482
0.62046
1
0.878286
0.784096
3.48944
1.39588
1.37513
1.72026
0.952026
1
0.781548
1.19707
0.880778
3.01451
2.20814
1.69928
2.21022
1.35578
1.00037
1.38175
1.32417
0.961774
0.825442
1
1.32155
1
1
1.05381
0.817326
1.00063
1.34249
1
1.20288
1.47726
1.22079
1.55653
1
1
1
1.55484
1.22839
0.998485
0.943848
1
0.666034
1.38212
0.620622
1.07353
2.20403
1.45695
0.562534
1.42297
1.14791
0.928877
1.02913
0.743512
1.32725
1.00506
1.08244
0.673502
1.04741
2.12147
0.635984
2.61255
1.36745
1.76962
0.786256
0.920469
1
1.36373
2.61305
1
1.66806
1
1.66712
1.63975
0.879169
2.55429
1
0.785413
1.51553
1.10117
1
0.582882
0.726699
0.480319
0.763274
0.744655
0.999996
1
0.805602
0.96132
0.768966
0.454761
1.00769
1.45157
1.02172
1
1
2.03354
1.4794
1.45037
1.47331
0.558846
0.776915
2.51361
1
1.87396
1.43893
0.982175
0.590798
0.801697
1
2.7578
1.00001
1.67859
0.380407
1
0.629137
1.4344
2.60289
1
2.61677
1.79476
1.39442
1.40229
2.61619
0.999974
1.38488
2.61732
0.900952
1.3731
0.999996
1.5987
1.17458
0.892428
1.51494
1.90156
1
0.648204
1
1
1
2.61359
1
0.651263
0.647659
1.13781
1.76403
3.04228
1.29482
0.497192
1.17999
1
1.37143
2.61492
2.61118
0.614613
1.87733
0.662441
2.40524
1.59483
2.61678
1.27517
1.07092
1.36191
2.6091
1.1779
0.999997
1.19339
2.6101
1.75468
0.684457
1.11033
1.2052
1.12373
1
1.71269
2.61405
0.715789
0.711201
1
1
1.80033
1
1.0003
0.948392
1.09583
1
1
1.92612
1.24117
0.737935
1.00001
1.63691
1
1.45631
1.41556
1
1.4728
1.4021
1.56072
0.765439
1.00017
2.51077
1.62032
1.00001
1
1.49019
0.991828
1.33389
1
1.46024
1.49746
1.11131
1.04843
1.03724
1.27152
1.02992
1.33819
0.957822
2.9249
2.33573
0.673298
0.934477
1.26909
2.62233
0.746177
1.51273
1.05062
1.25475
1.04295
1.5269
0.613866
0.992613
2.33948
1.00072
2.62083
1.57672
2.69455
0.970938
1.5975
1
1.66571
1.38893
2.00582
1
1.88647
1.85898
0.99447
3.017
1
1.36411
1.06752
1.61292
1.95519
2.72093
1
1.56018
1.27393
1
1.48952
0.840425
1.24623
0.999645
0.834859
1
1.82286
1.23572
1.6664
1.44499
1.00001
0.882355
0.837596
2.54119
0.530455
0.32471
2.32488
3.68641
2.25624
2.60696
2.21257
1
1.00002
1.65084
2.25789
1.9515
1.7794
0.875043
0.870501
0.870115
1.61246
2.61012
2.59916
1.81647
1.00124
1.32151
1.00015
2.60623
2.34046
1.32612
0.917435
1.5683
0.989742
1.06479
1.86935
0.978976
0.990925
1.77269
1.57482
2.59181
0.586545
2.60968
1.37111
1.81093
2.61621
1.47514
2.26613
1.36757
1.65802
2.41049
0.834549
2.69431
1.45993
1.06522
1.83241
2.61196
1.62949
1.46326
0.545102
0.710666
2.50008
0.808851
1.23133
1.24654
0.684658
1.24157
0.999776
1.43017
0.712704
0.511791
1.42458
0.696989
1.32417
1
1.24956
1
1.48005
1
0.877799
2.57429
0.859073
1
0.691123
0.611763
1.06892
0.584784
0.68294
1.28797
2.42287
0.480933
0.908665
1.52681
1.03755
1
1
2.45884
0.605958
4.44571
0.578534
0.798875
1
1.00001
0.865307
2.22625
1.19673
1.20902
2.5321
0.959495
2.7716
1.00568
1.13655
1.01206
2.60943
1.83336
0.724244
0.916078
2.16506
0.999998
2.20697
0.831026
1
1
1.49079
1.00004
1.83105
2.36781
1.06046
1
1.0641
1
1.00001
1
0.999994
1.90078
1
1.14444
0.812419
1.24971
1.16131
1
0.702744
2.6227
1.18619
2.36454
0.81998
2.33166
2.61026
0.989531
0.915304
1
1.18045
0.696063
2.17307
0.967808
1
1
2.06773
1
3.7935
1.88033
2.62394
2.61562
1.44904
1
1
1
1.84582
2.27301
3.31924
2.65361
1
1.66837
1.04944
1.94417
1.86744
2.26757
0.861163
0.999999
1.07334
1.42522
2.61316
0.786546
1.61071
1.16236
1.86189
1.17335
2.6358
1
0.923474
0.775965
2.61025
0.941761
1.49944
0.879279
1.83427
1
0.932007
0.91428
2.62803
1.87932
1
1
0.988752
1
2.25067
1
1
1.40537
0.574427
1.31017
2.63193
1.39129
2.62628
1.26294
1.88943
1
1.19746
1
1.00001
0.97481
2.62507
1
1.7154
0.959192
1.12071
2.32707
0.999682
1
1
0.32579
1.7626
1.56304
1
0.989754
1.1261
1.89098
1.30117
1.60158
1
2.62226
1.3179
1
0.929114
1.0867
1.67754
1
2.6184
1.27181
1
1.20675
1
0.948125
2.61682
0.946022
0.686956
1.99486
2.61449
0.775997
1.55975
1.9349
1.10825
1.00002
1.65033
1
0.592581
0.842783
1.10783
0.671489
2.46187
1.70889
1.12977
1
0.409995
0.784228
1
1.00006
1.00234
3.09075
1
1
3.14073
1
1
1
1.16681
1.17597
0.992601
1
2.75533
1
1.00011
0.799733
1.179
1.01276
4.89244
1
1
1.00004
1.8207
1.1035
1.20496
1.39677
1.20952
1
1.4556
1
1
2.23705
1.29668
2.99176
1
2.40045
1
0.807084
1.00075
2.16784
1
2.60249
1.29085
1.28264
1
1
1
0.882408
1.05717
1
2.6127
0.956928
0.862393
0.843512
1.63033
1
1
0.998999
0.833467
1.20905
1
2.61131
1
1
1
2.46906
0.999996
1.445
2.58591
1.45639
0.929972
1
1.7729
1.09833
1.7955
1.14788
0.51014
1.61487
2.96252
1.16856
2.60932
3.38423
2.45698
1
3.51128
0.678538
0.681102
1.15986
1
2.61153
2.47644
1
0.925068
2.47063
1
1.85594
0.643236
1.837
0.603843
1
0.998541
1
1
1.0001
1.46495
0.676663
0.64692
1.06939
1.46635
2.73254
0.881739
1.28875
0.658594
1
2.74603
1
2.37997
1.01557
2.39243
1
1
1
1
0.999247
2.70834
1
0.577186
1
1
1
2.60689
1.83341
2.61215
0.65369
3.08439
1
2.617
0.398035
1.13201
2.61721
0.710228
2.34869
1.20532
1.10758
1
0.390057
1.55914
0.647396
0.498252
1.99064
1
3.13723
0.770974
2.24781
1.00018
4.52536
1.14209
1.64955
2.51619
2.618
0.325788
2.93461
1
0.541193
1
1
0.873774
1.21666
1.34288
0.822464
1
3.1069
4.5436
1
1
1.41822
1.16915
1.49287
0.999657
0.92044
1.65789
2.61517
1
1.53626
1.35542
1
2.76501
0.984242
1
0.908815
0.668496
0.915266
1.33326
1.35513
2.53357
1
0.939712
2.6188
1.00002
1.17209
1
1.60004
2.61126
0.784862
1
2.96017
1.90958
1.23588
4.36142
0.995117
1
0.323271
1
2.61545
0.995238
0.973231
0.863525
2.26315
1.00229
1.03993
1
1
1.62145
1
2.61207
1.1031
0.769518
1.74705
1
0.33531
1
1.83649
1.90686
1.61218
1.26016
0.356976
2.61072
1.48731
1
1
1.36624
1.37035
1
1.58526
2.61082
1.18281
0.392299
1
1
1
0.903105
2.23036
1.62013
0.927721
1.33875
0.663816
1.12164
0.704037
1
1
1
0.669617
0.849905
0.894269
2.60967
0.897489
0.880746
0.698579
1
1.41923
1.1048
1
1
1
1.00748
1.76082
2.21504
0.990423
2.35696
1.22159
1.79528
1.39075
4.67721
1
1
1
2.61769
1.27521
1
2.80173
1
2.18815
0.971743
2.61413
2.61659
2.61683
2.45427
1.00001
2.61961
2.60515
2.38664
1
2.10393
0.999999
1
0.587761
2.52571
1
1
1.25662
1.34903
0.676295
0.808769
2.57293
1.61203
1
1
1
2.07264
1
0.713507
1.01557
3.13678
2.19706
1.54784
2.61493
1.85543
1.95922
1
1
1.47242
2.60809
1
1.42826
1.59362
1.90206
2.61748
2.02439
2.05588
0.89989
1.333
1.48157
1.30976
1.68272
2.61746
0.882191
0.992692
2.61034
2.61026
1.32223
1.67817
1
1
2.61316
2.28082
0.921695
0.909534
2.64046
1.24171
2.20834
1.00002
1.4114
2.72478
2.60748
1
1.19397
1.18879
2.01728
1.31208
2.60779
4.17712
2.61622
0.825006
2.61382
1.07345
0.652334
0.600907
2.61162
1
1.21579
2.16788
2.62496
1.03063
1
2.61407
0.807518
0.335923
0.650699
1
0.796235
1.21992
2.61325
2.03772
1.40787
1.3456
2.61957
1
0.706338
0.643542
0.834544
1.52659
1
0.865739
1.87353
1
2.60953
2.43154
3.75089
1.23052
1.22776
0.556359
0.999985
0.644488
1
2.27928
2.61244
0.954237
1.01212
1.10077
0.656123
1.70784
1.23622
1.76787
1
1.03022
1
1.45736
0.594688
0.895999
1.88502
1.09309
1
1.58148
1.19947
1.20132
1
1
0.804612
2.38037
2.54736
1
1
1.42535
1
0.515222
2.54404
0.991865
1
1.27233
1
0.470756
1.08597
2.62805
1.13457
0.502702
1
1.38481
1.76018
1.6611
1.22086
1
1.22501
2.62568
1
0.926393
1.05386
0.847519
1.52045
1.41995
1.63544
2.60983
1.5768
1
1
1.00006
1.52562
1
1.76611
0.945374
1
1
1
1.00001
2.60397
1.10957
0.318229
2.58736
0.835499
3.95919
1.37467
0.775219
0.809352
1.18693
1.66788
1
1.48472
2.59875
0.867275
0.667864
2.61497
2.05181
1
1.60545
2.99289
2.58889
1
1.26418
1.25829
1.6584
1.46097
1.66787
1.31349
2.84803
2.61594
1.15277
1.59512
2.9168
2.62485
0.998149
2.3669
1
0.929695
1.40127
1
1
1
0.739927
1
1
1.57659
1
1
2.61496
1.00002
1.47821
2.61617
1
1
0.996889
1
2.84857
2.61293
1.62323
0.796477
2.6127
1.90886
0.734597
1
1
1.67737
1.76699
1
0.823997
1.23264
1.56972
0.810446
0.782329
1.22267
0.789252
1
1.1323
2.61008
2.6159
0.806605
0.794481
2.61596
1
1
0.730564
1
1.50186
1
2.61582
1.18232
1.18148
1
1
1.36562
2.66907
0.721242
2.60895
1.00062
1.61918
1.64339
1
1.49467
1
2.66571
1
0.941333
0.7836
1
1
1
2.32776
1.47769
1
1
1.22627
1
2.43827
1.2338
1
1.31125
0.57474
0.84459
0.999997
1
2.60935
1.79386
1.42956
1
1.38437
1.77709
0.704077
2.61222
1.62595
2.59242
1
1.21797
1
4.57444
0.98636
2.61591
2.26447
2.60883
0.421371
1
1
0.722135
0.999997
1
2.61628
0.429131
0.767028
1.49809
1
1.00241
1
2.54635
2.01457
1
1
1.46952
1
1.41891
0.337593
1.46962
0.710264
3.08783
4.36382
0.602071
2.61182
1.16533
1
0.998519
1
1.91514
2.61107
0.725434
1
1
2.61026
1.42326
0.947569
1
0.330036
2.22643
1.03772
1.0056
2.59821
2.22327
1
0.917467
1.49511
0.809148
2.40412
1.66096
1
1
1.00404
1.23089
0.690269
2.61276
2.62692
0.965372
0.985867
0.927588
2.62091
1.65817
0.957901
1.50953
1
1.00118
1
0.999991
0.616413
0.357112
1.92435
1.14539
1
2.06629
1.43507
1.17616
1.09665
1.16804
1
1.42845
0.658389
1
1
0.723404
2.61256
0.65518
1
1
1
1
0.967589
0.760318
2.63659
2.10624
0.83192
1
0.999998
2.61443
2.65547
1.01198
1.1784
1.79215
1
2.81279
1
1
1.00028
1
0.648303
2.18925
1
1.64683
1
2.62574
1.56121
1.73139
1.00224
1.00025
1
0.342504
1.10269
1
0.699071
2.6076
1
1.81472
1.78796
3.34174
1
2.56352
1
1.00012
0.938031
0.932991
0.991291
1.99717
1
0.882352
0.996759
2.62413
1.78623
1
2.6249
0.997959
1
0.330444
2.48482
0.846084
0.588771
0.689647
1
1.79568
1
1
1
2.61532
2.58891
1
1.00141
1.16549
3.0136
0.713182
1
0.330828
2.61719
1
0.901101
0.657488
2.10802
1
2.07639
1.02484
1
1
1
1
2.80098
1.11918
0.667766
0.999369
2.60174
1.02236
2.59592
3.20493
1
1
1
0.893461
1
2.22914
2.09243
2.10355
1.94766
0.328517
0.47731
1.37559
0.681741
0.329628
1
3.7428
3.46862
2.32296
1
1
1.94122
2.62244
1.01992
2.48236
0.679744
2.50352
0.922401
1.77019
1.79671
0.810087
1.39814
1
1
1
1.75691
0.985308
1
1.42233
0.964785
0.852262
2.32375
1
2.62751
0.810499
3.62687
1
1
0.473127
0.921973
0.701471
1
2.61245
2.15359
0.687185
2.61071
1.84325
2.26779
2.62376
2.61297
1
1
1
1
0.399784
1
1.48864
0.951062
0.323542
2.6168
0.650802
1.30524
2.26923
1.14218
1.41233
1
1.06923
1
0.584669
2.61354
2.67371
3.72097
0.663535
1
1
1
0.678003
2.98405
1
1
1
1
0.615782
1
1
0.326974
1
1
1
1
0.525227
1
3.31607
1.97396
1.08644
1
1
1
0.891836
1.67101
1
1
3.0406
1.44111
1
0.34873
0.331069
1
1
1
0.575533
3.20754
1.20905
0.923962
1
1
1
1.13761
0.834373
1.13342
2.61582
2.60963
1
1
2.85805
1
0.972586
2.6138
0.880208
2.59116
2.6227
0.973014
2.62093
3.51473
1
0.751599
0.436107
1
0.845549
1
2.05396
1.119
1
0.647686
0.332566
1
1
1
0.909457
0.927512
2.61346
1
1
1
0.874302
1
1.10618
1
1
0.32652
1
1
1
2.56398
1.87346
1
0.320267
1.14912
0.343374
1
2.60433
1.77468
3.75871
1.00485
2.07962
1.16154
0.965869
0.645758
0.988746
0.329465
1.73697
3.36168
2.61554
0.349619
0.972287
1
1
1
2.68526
2.63979
1
1
0.751173
2.07096
1.03917
1.45261
1.14744
1.44198
2.35018
1
0.369678
2.58948
1.17239
1.32106
0.740414
2.62702
0.90504
2.59324
2.37557
1
2.61247
1
2.61162
2.17039
1.40982
1.0385
1.69947
1
2.61041
1
1
1
0.870572
1
2.61276
1
0.574939
1
0.522431
1
0.550167
1
1.69685
1
1
1
1.00013
3.63907
1
1.02665
2.61448
2.59423
1
1.94713
1
1
1.98559
2.60745
4.48422
0.348604
0.321088
1
1.68566
1
3.24383
0.466105
2.61225
0.359097
1.57482
1.45311
1.54625
2.61442
1.40537
1.00085
0.894363
1.41777
0.929086
0.326988
0.813115
1
1
3.41894
0.857065
1
2.43885
0.328884
1
1
1
1.83782
4.00691
2.61612
0.90506
1
2.61514
1.89374
0.992794
2.59969
0.977283
0.948336
0.523003
1.05119
1
1.70506
0.902899
1.41256
0.976606
1
1
1.00015
2.61088
1
2.61345
0.581569
0.781119
0.32787
1.48849
0.973906
0.329945
0.906363
1
1.0843
1.1007
3.45006
1.08706
1
2.61435
1.50546
2.00708
1.73548
0.971208
0.65235
2.59874
1
1
1.11362
1.33486
1.19342
4.55542
1
1
0.993396
0.33021
1.6806
1
2.61786
1.19805
2.6117
1
3.84737
1
1
0.343103
1
1
2.61267
1
1
1
1.36477
1
0.932007
2.12534
1.5487
2.22557
1.47352
2.4584
2.61281
2.61081
3.38307
0.958894
1.19197
1.48316
1.39307
1
1.45694
1.01611
2.6062
2.61636
0.923109
1.08512
1.5451
0.326229
0.850054
2.61823
1
0.33012
0.910522
0.894601
1
1
1
0.331627
1.61124
0.822886
1
1.83571
1.40799
2.44728
1
1.49234
1.88512
2.6166
1.11719
1.53279
1.82744
1.41931
1.58169
2.60959
2.43188
1.77371
0.330858
1.41521
1
1
2.61399
1
0.802048
1
1
2.61127
2.61242
0.65923
1
1
1.93039
0.919052
0.755116
1
0.974036
1.52583
1
0.983287
0.940991
0.816236
2.29054
2.04971
1
1
1
0.956832
2.61114
2.34619
0.718377
2.51263
2.15041
1.98989
0.780364
0.333651
1
0.812101
1.3477
0.806538
0.330191
3.76928
2.26315
1
1.10468
1.67317
0.523078
2.61331
0.603881
2.61187
1.09743
0.321234
1
2.61543
0.347159
2.06075
2.6905
0.539064
1
3.90032
1.01858
1.30247
1
1
2.61149
0.965359
0.580063
2.61096
1.98712
3.32707
1.4681
1.32424
0.963236
2.19751
1
0.584655
2.61569
1
1
0.667064
1.99126
2.60142
1
0.321955
1.30287
0.614331
1
2.6355
0.999929
1
1.82506
0.474206
1.03421
0.436764
2.25404
1
1
1
1
1
3.65431
1
0.962744
1
1.47606
0.318704
0.320237
2.84541
1.01639
0.330565
1.49371
1.23532
1.29245
1
0.999997
1.29204
0.982569
2.072
1
2.61009
0.523801
0.327229
0.399812
1
1
0.967445
1.34324
2.45761
0.372072
0.568073
1.28429
1
2.61408
0.335547
1
2.61339
1.70838
1
0.999999
2.21356
1
2.59996
1
0.329751
1
1
1.33692
0.871873
1
0.991706
2.60717
1
1
1.03102
1
1
2.04566
0.820496
2.38399
1
0.926381
0.932051
2.61086
2.61831
1
2.60541
2.54189
1.11987
1
1
0.554603
3.19915
0.327595
0.987291
0.385706
1.11444
2.61066
0.978204
0.329541
0.841738
1
1
1.10897
2.25406
4.49457
1.09441
0.58694
4.05734
0.330043
0.326843