/*--------------------------------*- C++ -*----------------------------------*\
  =========                 |
  \\      /  F ield         | OpenFOAM: The Open Source CFD Toolbox
   \\    /   O peration     | Website:  https://openfoam.org
    \\  /    A nd           | Version:  12
     \\/     M anipulation  |
\*---------------------------------------------------------------------------*/
FoamFile
{
    format      ascii;
    class       volScalarField;
    location    "2";
    object      T;
}
// * * * * * * * * * * * * * * * * * * * * * * * * * * * * * * * * * * * * * //

dimensions      [0 0 0 1 0 0 0];

internalField   nonuniform List<scalar> 
22702
(
1
1
0.961896
1
1.01704
1
1.12053
1
1
0.890617
1.12062
1.12069
1
1.11851
0.967273
1
1
1
1.12038
1
1.11867
1
1.11909
0.897819
1.11877
0.889077
1
1.11989
0.897269
0.897462
1
1.12061
1
1
1
1.11067
1.11842
1.11927
1
1
0.890477
1
1.06269
1
1.11986
1
1
1
1
0.897621
1
0.89685
1
1.12061
1
1.12076
1
1
1
1
0.888794
1
1
0.896852
1
0.896886
1
1
1
0.889338
1
1.11872
1.07601
1
1.1187
1.1253
0.897743
1.11957
0.898678
1
1.12078
0.897427
1.11976
1.11966
1
1
1
1
0.981479
0.889669
1.12095
1
1
0.889339
1
1.11866
0.889218
1
1
1
1
1.06246
1.12064
0.889301
1
1
1.0322
1
0.897466
1
1.11971
1.12055
1
1
0.885273
0.886015
0.889843
1
1
1
1
1
0.975879
1
1.10353
1.01277
1.11955
1
1.11969
1.12049
1.11842
1.12085
1
0.889383
1
0.889516
1
1
1
1
1.12061
1
1
1
1
1.11871
1
1.00764
1
1
1
1
0.897685
1
1.00306
1
0.899271
1
1
1
1.12063
1
1.11874
0.884825
0.888832
1.1189
1.11886
1
1.0231
1.07183
1
1.12072
0.898921
1.11085
1
1
1
1
1.11855
1.0955
1
1.12058
0.89741
1.12068
1
0.898614
1
0.897954
0.888773
0.999939
1
1
1.12017
1
1
1.11856
1
1.11968
1.12054
0.89789
1
1
0.897043
1.11855
1
1
1
1.11853
1
0.891072
1
1
1.11854
1.11855
1.11955
1
1.00001
1
1
1
1.11849
1
0.896808
1.12369
1.11855
1.11841
1
1
1
0.892787
1.11848
1.05977
1
1.11891
0.894756
0.893669
1.11892
1.11857
1
1.1185
0.884965
1.10621
1
1
1
1
1.11855
1
1.07373
1.01231
1
1
1.11855
0.889016
0.930929
1
1.11841
0.889828
1.11901
1
1
1
1
1
1
1
0.895317
0.928516
0.891807
1.11852
1
1
1
1
1.10881
1
0.897427
1
0.889576
0.898317
1.11844
0.896558
1.11866
1
1
1
0.999316
0.897613
0.884841
1
1
0.887667
1
1.12042
0.888898
1
1
1.12082
0.885128
1
1.119
0.88906
1.11853
1
0.893138
0.999342
1
1
1
0.896684
1
1
1
1
1.00369
1.07617
1
0.892394
1
1
1
1
1
1
1
1.12084
1
1.12065
1
1
1
0.889678
1
1.11868
0.896541
1
1.09713
1
1
1.12089
1
1
1
1.11846
1
1
1.11715
1.12097
1
1.02789
1
1
0.8894
1
1
1
0.889614
1
1
1
1
0.888916
1
1
1
1
1
0.888847
1.00002
1.11874
1
0.999997
1.11877
1.11906
1
1
0.900279
0.946577
1.1207
1
1
1
1.11849
0.889226
1
1.11874
1
1
0.906915
0.906242
1
0.897304
0.889665
1
1
1
1
1
1
1
1.11969
1.03326
1.11569
0.888922
0.974778
1.1208
1
1.11873
1.12061
0.890033
0.933555
1
0.889988
1
1.12368
1
1
1
1
1.11856
1
1
1
1
1
1
1
1.04729
1.12011
1
1.11857
1
1
0.898289
1
1
1
1
1.11853
1.09277
1
1
0.897727
1.1186
1.11853
1
1.11854
1.11858
1.11857
1
0.951711
1
1.11849
0.996647
1.11858
1
0.890096
0.99967
1.12061
1
1
1
1
0.895983
1.11841
1.10847
1
1.11876
1.11848
1.12053
1
1.05988
1.1186
1
1
1.08489
1.01777
1.11851
0.981784
1.11849
1
1.11851
1.1185
1.1185
1.11864
1
1.11572
0.975464
0.968183
1
1
1
1
1.11919
1
1
1
1
1
1.12049
1
1
0.998883
1.11853
1.10276
1
1.09991
1.00001
1
1
1.11869
1
0.999198
1.00135
1
1.11857
1
1.11871
1
1
1.0908
1
1.11869
1.00001
1
1.11857
1
1.11853
1
1
1
1.11854
1
1.11923
1
1.11855
1.12063
1.11857
1.11958
1
1.12079
1.11671
1
0.898105
1.11197
1.08816
1
1.11856
1
0.88916
0.889064
1
1
1
1
1
0.888945
1
1.11858
1.03403
1.11867
1
1
1
1
1
1.11849
1
1.11848
1.07414
0.934305
1
1
1.03751
1.03265
1
1
1.04701
1
0.899565
1.11853
1.11856
1
1
1
1.12053
1
1.00001
1.11823
1.11844
0.987135
1
1
0.897205
1.10881
1
1
1
1
1
1.11853
1.12078
1
1.11853
1.11917
1.11857
1
1
1
1
0.888829
1.12068
1
1
1.10906
1.11827
1
1.11232
1.12007
1
1
1
1
1
1.11857
1
1
1
1
1.1188
1
1.11797
0.889253
1
0.889478
1
1
1
0.999135
0.897384
0.999725
1
1
1
1.01887
1
1
0.960712
1
1
1
1
1
1
1
0.999999
0.981187
1
1
0.9993
1
0.896129
1
1
1
1
1.09114
1
1
1
1
0.897385
1
1
1.11235
1.12059
1
1
1
0.969167
1
1
1
1
1
1
0.987887
1.00375
1.11858
1
1
1
1.11838
0.971079
1
1
1
1.1198
1.11926
1
1
1
1
1
1
1
1
1
0.889599
1
1
1.11981
0.890268
1
1.11947
1
0.898575
1
1
0.888815
1
1
1
1
1
1
1
1.1165
1.11833
1
1
1
1
1.10932
1
1.04158
0.897026
1
1
1
1
1
1
1
1.01261
1
1
1.06533
1
1
1
1.10007
1
1
1
1
0.889493
1
1
0.884816
0.889792
1
1
1.11847
1
1.00382
1
1
1
1.08567
0.884652
1
0.88427
1
0.934038
1
1
1
1.11875
1
1
1.11858
1
1
1
1.11859
1
1
1.11855
1
1
0.890125
1
1.0412
1
1
1.12081
1.1207
1.08193
1.10747
1
0.890027
1
1
1.11383
1
0.888861
1
1
1
1.11866
1
1
1
1
1.0745
1
1.11101
1.11943
0.889541
1
1
0.889485
0.889426
1
1
1
1.0868
1.09241
1
1
1
1
1
1
1
1.05378
1.12051
1.00258
1
1.11729
0.88918
1
1
1
1.06884
1
1.025
1
1.10927
1.11806
1
0.890246
1
1.12089
1
1
1.1187
1.11195
1
1.12188
1
0.895119
1
1
1
1.119
1.11647
1.10558
1
1.11902
1.11858
1
1.11879
1
1.11808
1
0.889775
0.995092
0.88824
1
1
1
1
1
1.11857
1
1.11855
1
1
1
1.11331
1
0.897535
1.11859
1
0.897422
0.895078
0.887314
1
1.06196
1.01272
1.11897
1.1186
1
1
1
1
1.11856
1
1
1.11855
1.11858
1
1.04455
1.00001
1
0.999073
1.12053
0.956917
1
0.947365
0.899838
0.899698
0.988814
1.11905
1.11707
1.02585
1.11865
1.11865
1
1
1.12074
1.12004
1.11851
1.12113
1
1.11857
0.897241
1.11867
1.11891
1.11916
1.11914
0.960625
0.971075
0.980807
1.11856
0.989624
1.11858
1
1
1.11899
1.11865
1
0.889958
1.11908
1.11859
1
1.11855
1.11856
1
1.11857
0.897014
1.11926
1.12063
1.12077
1.11952
1
1
1
1.11856
1.07977
0.894102
1.11859
0.886003
1.11852
1
1
1
1
1.1186
1.11863
1
1
1.11861
0.887112
1.11884
0.897766
1
1.1178
1
0.891493
1.11889
0.91933
1
1.11859
1.11915
1.1187
1
1
1.06194
1.11896
0.898347
1.11852
1
1.11859
0.966336
1.11866
0.889788
1
1.11821
0.899658
1.11899
0.897711
1
1.11864
1
1.11931
1
1.07257
1.11459
1.0954
0.884357
1
1.11862
1
1.11858
1
1.11861
1
1
1.11866
0.996469
1.11916
0.894171
1.1068
1
1.08675
1
1.11877
1.11859
1.11877
1
1.1078
1.11865
1.11069
1.07599
1.11656
1
1.08124
1
1.11884
1
1.0202
1
1.11072
1
1.11861
1.11358
1.1135
1
1.11735
0.888813
1
0.889378
1
1
1
1.1205
1
1.1187
1
1
1
1.11879
1.11566
1.09854
1.11881
1.11894
0.889505
1.11969
1.12078
1
1.10212
1.1186
1.1178
1
1.12083
1.12091
1
1.12012
1.11854
1.11863
1.11887
1
1
1
1.11862
0.886358
1
1.11858
1
1
0.888935
1
1
1.11858
1.11845
1
1.11856
1.11951
1.11867
0.995405
1.11854
1
1.11855
1.1186
1.09644
1
1
1
1.11888
1.11862
1.1186
0.984827
1
1.12052
1.1186
1.11853
1
1.11857
1.11884
1.11856
1.12074
1
1.11854
1.11833
1.10519
1.11829
1.12039
1
1.11959
1.11733
1.11861
1.11907
1.1184
0.888338
1.1187
1.11827
1
1.11862
1.11862
1.11853
1.11851
1
1.11862
1.11863
1
1.11857
1.10114
1
1
1
1.11873
1.11883
1
1
1.06812
1
1.11846
1
1
1.11863
1.11892
1.11842
1.11863
1
1
1
1.08713
1
1.11861
1
1
1.1207
1.12077
1
1.1186
0.884572
1.11858
1.11886
0.915169
1
0.884539
1.10554
1.11924
1.11877
1.1188
0.889206
1.11866
1.11884
0.889111
0.885114
1
1.11873
1.11867
1
1
1.11857
1
1.11891
1
1.10522
1
1.05897
1.1186
1.11912
1.08749
1.10751
1.12062
1.11888
1.11195
1
0.888834
1.11928
1.11858
1.11985
1
1
1
1.12007
1
1.11853
1.11853
0.926197
1
1.11854
0.999983
1
1.00001
1.00001
1.11861
1.11861
0.999558
1
1
1.11858
1.11899
1.11855
1.11862
1.11885
0.889813
1.10472
1
1.11778
1.11844
1.11859
1.11779
1
1.11856
1.11561
1.11882
1
1.11865
1.11848
0.95963
1.11851
1.11868
1
1.11848
0.95348
1.11867
0.959636
1.11857
1
1.1186
1.1235
1.11859
1.11861
1.11859
1.1193
1.11867
1.11901
1
0.979292
1.11865
1.11853
0.955196
1.11862
0.996421
1.07869
1.1186
1.11871
1.1187
1
1.11915
1.07963
1.11838
0.978204
1.11905
1.12011
1
0.962118
1
1.11704
1
1.08442
1
1.11465
0.963457
1
1.11869
1.11823
1
1.11912
1.119
1.11922
1.11817
1.11943
1
1.12068
1
1
1
0.970564
1.11858
1.11861
1.11904
1.11861
1.11826
1.11889
1.11782
1.1187
0.971158
1.00892
1
1
1.12323
1.11865
1.11855
1.11852
1.00001
1.06391
1
1.11999
1.1082
1
1
0.918695
1.11861
1
1
0.897912
1.11854
1
1.12074
1.11854
1.1208
1.11444
1.11862
1
0.887294
1.03182
1.11861
1.11862
1
1.11848
1.11857
1.06399
1.00266
1.02823
1
1.11952
1.11859
1
1
0.888809
1
1
1.1186
1.11861
1.11893
1.11854
1.11849
1.11999
1.11867
1.11836
1.1185
1
0.998932
1.11873
1.11862
0.999138
1.11858
1.11859
0.889334
0.889421
1.11816
1.11928
1
1
1.00044
1.11852
1.11893
1.11855
1
1.11859
1
0.95728
1.12006
1.11936
1
1.05856
1.11869
1
1.12006
1
1.11853
1.08169
1.11876
1
1.11846
1.11994
0.888964
1.11857
1
1.11833
1.12017
1
0.889179
1.11849
1.10313
0.999336
1.11503
1.11861
1
0.999644
1.11931
0.999489
1.11857
1
1
1.11883
1
1.1188
1.11856
0.998978
1.09543
1
1.11857
1
1
1
1
1.11851
1
1
1.11738
1
1.11861
1
1.07877
1.11811
1.11855
1
1
0.99998
1
1.11854
1.11854
1.11846
1.11861
1.11856
1.11847
1.11862
1
1.11851
1.11842
1
1.11856
1.11856
1
1.11889
0.97913
1.0164
1.11853
1.11857
1.11857
1
1.11863
1
1.11849
1.11854
1
1.11841
1
1
1
1
1.11861
0.886795
0.999388
1
1.11858
1.1189
1
1.11851
1
1.00137
0.892445
1.11861
0.999883
1
1.11841
0.999529
1.11861
1
0.999935
1
1.11864
1.11862
1.11837
1.11922
0.895385
1.11864
1.11825
1.1186
1.03168
1
1
1.05436
1.11849
0.885144
0.894164
1
1.11861
1.11857
1.11835
1
1
1.11818
1.11848
0.999964
1
1.08727
0.884847
1
1.02332
1.12054
1.11793
0.999505
1.11857
1.12085
1
0.999658
1
1.1185
1.12024
1.05078
1
1.11218
1
1.00047
1.11877
0.889989
1.11853
1.11856
0.999139
0.999975
1.10393
1
0.999912
1
1.1189
1
1
0.884341
1.11859
1
1
1
1
1.11876
1.07097
1
1
0.888986
1.11859
1.07112
1
1
1
1.11362
1.11737
1.11923
1
1
1.11916
1
1.11854
1.1186
1
1
1.119
1.11858
1.11426
1
1
1.11904
1.11887
1
1
1
1.11888
1
1
1
1.11858
1.11994
1.11916
1
1.11826
1.00001
0.906632
1.11854
1.11853
1
1.12021
1.11651
1.12062
1
1
1.1194
1
1.06788
1.11861
1
0.888796
1
1.11906
1
1
1.11807
1
1
1
1.03998
1.11854
0.900576
1
1.11889
1
1
1.11876
1
1.11946
1
1
1.11861
1.11859
1
1.00002
1
1
1
1
1
1
1.11945
1.11859
1
1.12061
0.890259
1.11997
1
1.11848
1.11833
1.1186
1.1196
1.12229
1
1
1.11807
1
1.07892
1.1196
1.1186
1
1.11912
1.11762
1
1.10759
1
1.11846
1.07971
1.11818
0.99929
1.11634
1.11019
1.11882
1.11872
1.01069
1.11852
1.11929
1
1.11854
1
1.1186
1
1
1
1
0.998933
1.11856
1.11855
1.10137
1
1.11933
1
1
1
0.885047
1
1.11599
1
1.10856
1.11659
1
1
1
1.11025
1.1206
1
1
1.11889
0.890008
1.02218
1
1.11956
1.11852
1.10904
1.1159
1.11853
1
1.11834
1
1
1
1
1.11827
1.11869
1
1.11607
1.01794
1.11867
1.11148
1
1
1.11167
1
1
0.892453
1.08666
1
1
1.11827
1
1.11941
1.10906
1
1.10879
0.890468
1.11871
1.1185
1.1187
1
0.896036
1
1
1
1.1186
1.10113
1
1.11832
1.11857
1
1.11863
1
1
1
1
1.11858
0.999816
1
1.11903
1
1
1.11887
1.11859
1
1.11971
1.02393
1.00001
1
1.11866
1
1.1187
1
1.00371
1.11855
1
1.11855
1
1
1.04025
1.11875
1
1
1
1
1
0.998963
0.889856
0.889263
1.00544
1
1.00891
1
1.00919
1
1.11855
1
1.07503
1
1.11862
1
1
1
1.11863
1
1.09707
1.11844
1
1.06605
1.11866
1
1
1.1202
1.11847
1
1
1.01689
0.884715
1
1.11882
1
1
1
1
1.0221
1.11852
1
1
1
0.89171
1
1.11861
1.11848
1.12191
1
1
1
1
1.06194
1.11971
1
1
1
1.11924
1.11863
1.01686
1
1
1
1.11871
1.11863
1
0.888586
1.1185
1.11859
1.11826
1.11838
1.11918
1
1
1.11842
1.11841
1.11859
0.895166
1.01162
1.11865
1
1
1
1
1
1.11857
0.892296
1
1
1.11857
1.05707
1
1.11836
1
1
1
0.89262
1
1
1.0338
1.11849
1.11861
1
1.11819
1.11936
1
1.02214
1
1.11856
1
1.11868
0.890315
1
1
1
1
1.11862
1.00002
1
1
1
1.11396
1
1
1
1
1.11845
0.891221
1.0953
1.11921
1
1.11838
1
1
1
0.999179
1
1.11815
1
0.942476
1
1
1.00001
1.11859
0.892054
1
1.11831
1
1.1188
1.11864
0.892088
1
1
1.11383
1
1
0.896757
1
1.12059
1
1.11385
0.999804
1.11864
1
1
1
1
1.12036
1
1
1.11851
1
1
1
1
1
1
1
1
1.08099
1
1.04029
1.11852
1
1
1
0.890189
1
1
1
1
1.11823
1.11852
1.01782
1
1
1.11888
1
1
1.11872
1
1
1
1
1
1
1.11847
0.934903
1.11849
1.11905
0.999102
1
1
1
1.07304
1
1
1.11881
1.11858
1
1
1
1
0.891185
1
1
1
1.07628
1
1.11856
1.11933
1
1.11885
1
1
1
1.06726
1
1.12064
1
1.11863
1
1
0.998969
1.11863
1
1
1
1
1
1.11903
1.00001
1
0.894145
1.11848
0.894527
1
1.11902
1
0.998853
1
1.11882
1.1181
1
1.11873
0.966613
1.11851
1.11843
1.00001
1
1
0.890299
1
1
1
1.11855
1.07245
1.1182
1
1
1
1
0.999089
1.11889
1
0.89069
1
1
1
1
1
1
1
1.12034
1.11849
1.11916
1
1
0.999113
1
0.995779
1
1
1
0.889481
0.995862
1
0.889068
0.890957
1
1.1187
1.11857
1
1.11854
1.11849
0.890342
1.0829
1
1
1
0.890725
1.11855
1
0.889862
1
1.11876
1.02287
1
1
1
1
1.11852
1.11997
1
1
1.1186
1
1
1.12012
1.1186
1
1.10837
1.11861
1.12011
0.992221
1.11866
1.00249
0.890218
1.09347
1.11836
1
1
1
0.889671
1
0.890021
1.11866
0.990879
1.11855
0.987804
1
1.11866
1.05775
1
1
1.11865
1
1.05261
1.11826
1
1
1.11872
1.11874
0.889852
1.07266
0.99997
1
1.0758
1
1.11819
0.984504
1.12117
1.11821
1
1
1
1
1.11728
1
1
1.11848
0.999897
1.11872
1.0978
1.11858
0.894548
1
1
1
1
1.1187
1.00001
1.11858
1
1.11871
1.11858
1.01647
1.11839
1.04034
1.11868
1
1.08386
0.89714
1.11924
1.1185
1.09489
1.02285
1.11965
1.11852
1.11847
1.11872
1
0.978373
1.01899
1
1.11852
1.05972
1.11858
1.00001
1
1
0.902528
1.11898
1.1195
1.09826
1
1.04884
1
1.11903
1.11909
1
1.11869
1.11923
1
1
1
1.11892
1
1.05037
1.11836
1.08483
1
1.11845
1
1
1
1
1
1
1
1
1
1
0.898267
1
1.11424
0.888546
1.07264
0.999591
1.11847
1
1.06551
1
1.07897
1.10211
1
1.00057
1.11953
0.977101
1
1.11831
1.11516
0.984996
1
1.11834
1.11873
1.11909
1
1.1185
1.11847
1.11913
1
1.05767
1
1.00002
1.11866
1
1.11875
1.01918
1.11889
1
1
1.11909
1.11841
0.899929
1
1.11869
1.09164
1.11837
1
1
1.11995
1.11919
0.999497
1
1.11038
0.999107
1.11857
1.00001
1
1
1
1
1.05748
1
1.09202
1.11845
1.09112
1.11828
1
1.00087
1
1
1.11996
1
1.11923
1
1
1
1
1
1
1.01583
1.06516
1
1
0.890699
1
1.11823
0.899603
1.11886
1
1.06389
0.999928
1.1187
1.07922
0.895456
1.06854
1.00001
1.11861
1.11897
1
1.07539
1.11853
1.11872
0.999544
1.11925
1.11554
0.886938
1
1
0.999262
1
1.11834
1
0.89679
1.11829
1
1
1.10594
1
1.1185
1
1.11854
1
0.899581
1
1
1.11862
1.11778
1.11903
1
1.11834
1.11855
1.11809
1
1
1.11734
1
0.920919
1
1
1
1.11869
1
1.11852
1.08049
1.11865
1
1.11848
0.999822
1
1
1
1
1
1
0.910096
1
1
1.11856
1
1.11861
1.11906
1
0.890129
0.889753
1
1.11894
1.02141
0.891792
0.88607
1
1.11851
1
1.11838
0.888872
1.00032
1
1
0.999859
1
1
1
0.999975
1.05265
1.11863
1
1
1.11881
1.07362
1
1.10721
1.11832
1.11875
1.05269
1.11809
1
1.11858
1
1.11692
1
1.11808
1.11878
0.999203
1.11867
1.11912
1
1
1
1
1
0.978148
1.12009
1.00001
1.00001
0.892443
0.999995
0.889481
0.886436
1
1.11877
1.11859
1.11862
1
1.11854
1
0.892992
1
1
1.11867
0.950551
1.11838
1
1.1187
1
0.9965
1.11863
1
1
1
1.11836
1
1.11871
0.890098
1
1
1.07268
1
1
1.06809
1
1
1.11873
1
1
1
1
1
1.11966
1.11845
1
1.11885
1.1188
0.890087
1.05805
1.11837
1
1
1.1079
0.99969
1
1
1.11852
1.11845
1.08205
1
1.1188
0.891279
1.11038
0.999813
1
1.11833
1.00001
1.11876
1.10037
1.09299
1
1
1.11853
0.90998
0.891385
1
1.11861
1
1.11838
1
1.07359
1
1
1.11834
1.07942
0.890758
1
0.999565
1
1
1.00736
1.05239
1.11856
1
1.11855
1
1
1
1
1
1
1.01896
0.889995
1
1
1.01236
1
1
1
1
1
1.11877
1
1
1.11855
1.11851
1.08925
1
1
1
0.953228
1.11927
1.08529
1
1
1
1
1.11872
1
1
1
1.11833
1
1
1.08825
1.12231
1.01301
0.925647
1.11838
1.08652
1.11906
1
1.06356
1
1
1
0.888577
1.00068
0.895584
1
0.888943
0.884123
1
0.889408
1
1
1
1.05693
1
1.11877
1.11875
1.00037
1.06072
1.1002
0.889997
0.93039
0.967228
1
1.11856
1.11988
1.11858
1.11862
1.10358
0.963817
1
1.10396
1
1.11639
1
1
0.998958
1.00296
1
1
1
1.11906
1
0.890044
1
1.11879
0.895172
1
1
1.1186
1
1.11862
0.999978
1
1
1.11878
1.10562
1
1.12275
1
1
1.00432
1
1.0566
1
1
0.889808
1
1
1.11836
1
1.11853
1
1.00001
0.89263
1
1
0.896888
1.00031
1
1.11953
0.889409
1.11897
0.88971
1.11871
1
1
1
1
1
1
1
1
1
1
1
1.11413
1
1.11905
1.12008
0.889877
1
1
1
1
1
1
1.11559
1
1
0.89213
1
1
1.11979
1
1
1.04908
1.10101
0.890169
0.8891
0.907154
0.919854
1
0.999019
0.895619
1.00013
1.11201
0.999119
1
1
1.11876
1
1
1
0.930858
1
1.046
1
1
1.05222
1.11862
1
0.889049
1
1
1
0.999059
1
1.11834
1.11858
1
0.889818
1
1.06757
0.889632
1
0.968347
1
0.998913
0.884036
1
1
1
0.998876
0.890301
1
0.889105
0.999545
1.06622
1.10834
0.888933
0.893185
1
0.99721
1
0.999612
1
1.11835
1.11858
1
1.00479
1.11875
1.11853
1
1
1.11857
1
1
1.00001
1
1.11924
1
1
1.00539
1
0.999589
0.906566
1
1
1
1
1
1.11856
1.01182
1.00001
1
1
1
1
1
1.00001
1
0.890266
1.02971
0.999596
1.11682
1.11892
1
1.00412
1.11874
1.10368
1
1
0.887604
1.11871
1
1.11975
1
1.11885
1.08157
0.890275
1
0.889717
1.10963
0.999908
1
0.890205
0.888524
1
1
1.10187
1
1
0.887097
1
1
1
1.04152
1
0.889731
1.11827
1
1
1
1
1.11865
1
1
1.119
1.10741
1
1
1
1.1187
0.888245
1
1.1187
1.1186
1
1.09693
1
1.00001
1
1
1.1111
1.00489
1
0.894273
1.06659
1
1
0.999226
1
1
1.11899
1
1
1.00001
1
1.11913
1
1
1
1
1
1
1
1.05576
1
1.11885
1
1
1.11888
1
1
1
1.11851
1.11849
1.01318
1
0.999326
1
1
1
1
1.12024
1
1
1.11862
0.889949
1
1
1
1
1
1
1.09803
1
1
1.11825
1.11885
1
1
1
1.11883
1.11828
1
0.999916
1.11794
1
1
1
1.00001
0.89357
1.00859
0.998921
0.998804
1
1
0.888618
1.11894
1
0.889216
1
1.11875
1.11415
0.890714
0.999832
1.11859
1.11895
1.11852
1
1
0.978539
1.10656
1.10034
0.889022
1
1
1
1.11871
1.11861
0.887701
0.999217
1
1.11862
0.890908
1
1.11746
0.891386
0.993969
1.00192
1
1.1197
1
1
1
1
1
1
1.00003
1.11132
1
1
1.1183
1
1
1
1.11855
1
0.890171
1
1
1
1.04374
1
1
1
1
1
0.937655
1
0.892357
1
1.11852
1.00002
0.9598
0.9608
1
1.00093
1.06604
1
1
0.889757
1.11845
1.11854
1.11857
1
0.886731
0.886337
1
1.11856
1
1
1
1
1
1.00001
1
0.89284
1.07942
1
1
0.890073
0.997685
1
1
1
1
0.883662
1
0.901738
1
1
1.11989
1
1
0.889591
1
1.11853
1
0.88978
1
0.891574
1
1.00237
1.11852
1.1225
1
1
1.12005
1
1
1.02925
0.999065
1
0.999495
1
1.11911
1
0.894432
1
1.12085
0.999733
1
1
0.940051
1
0.999721
0.888437
1.11869
1.04711
1
1
0.97315
1
1
1
0.939241
1
1
1
1.11861
1
0.891435
1
1
1
1
0.890259
1.11857
1.11143
0.889332
1
1.11979
1
1
1.11846
1.11962
1.10147
0.887567
0.99936
0.999782
1
1.11858
1
1
1
1
1.11881
1.00001
1
1
1.1188
1
1
1.11859
0.889791
1
1
1
0.893546
1
1
1
0.999616
1
1
1
1
1.09477
1
1.12026
1.11871
1.12112
1.11857
1.11877
1.11859
1
1.11869
1
1.11855
1.11855
1
0.99967
0.889825
1.10299
0.999973
1
1
1
1
1.0003
1
1.0201
1
1
1
0.957755
1.1186
1.1186
1.11934
1.10798
0.999965
1
1.00627
1.11875
0.999399
1.01874
0.9992
0.889817
1
1.00001
1
1
1
1
1
1.11863
0.890187
1.11861
1.11862
0.99855
0.888714
1
1
1
1.11841
0.888787
1.10599
0.888638
1.11855
1.11937
0.89227
1.11884
1.00666
1
1.11926
0.938039
1
0.999641
0.888713
1
0.890057
1
1.11861
1.11865
0.92494
1
1.11938
0.889946
1
0.89135
1
1.11859
1
1
1.11714
1
0.951951
1
0.999898
0.890534
1.11766
0.999849
1
0.889216
1
1
1
1
1.06917
1
1.11849
1
1
1.12186
1
1
1.11867
1
0.891885
1
0.895039
1
1
1
1
1
1.11397
1.07335
1.11855
1
1.11861
1.11108
0.883399
0.888928
1
1
1.11833
1
0.8909
1
0.997551
1
1
1.11873
1
1.1183
0.888822
1.12005
1
0.888646
1
1
1.11869
1.1182
1
1.00001
1
1.11925
1
1
0.886971
0.99982
0.891262
1
1
1
1.11898
1.11815
1.11965
1
1
0.888828
1
1.11933
1
1
1
1.11442
1.1186
1.11859
0.889036
1.11908
1.11853
0.893207
1.11959
1.00001
0.894343
1.00457
1
1
1.11849
0.888737
1.07919
0.888684
1.11854
0.999221
0.888058
1.11903
1
1
1
1
1.11858
1.11986
0.891342
1
1.00001
0.891387
1.00001
1
0.888902
0.893098
1.08588
1.11861
0.999563
1.11854
1
1.11937
0.947428
0.890301
1.11861
1.12203
1
1.11859
1
1
1.11861
1
1.09322
1.1198
1
1
1
1
1.11857
1.11737
1.11868
1
1
1.11896
1.12052
1.1188
1
1.11855
1
1
1
1
1
0.889547
0.952822
0.889036
1
1
1.11855
1
1
1.11877
0.885402
1
1.11858
1.11741
1.1139
0.885311
1
0.888852
1
1.00001
1.11966
1.06228
1.12001
1.10942
1
0.889199
1
1.11832
1.08756
0.892893
1
1
1
0.941338
1
1
1.12058
1
0.894083
1.11855
1
1
1
1
1
1.0973
1.02914
1
1.11862
1
1.11871
1
0.999286
1
1.11865
1.11883
1.1183
1.11948
0.999879
1.11996
1
1.11854
1.11853
1.1023
1
1
0.889436
1.11971
1
1
1.11939
1.11854
1.1185
1
1.1186
1
1
1.00001
1.1189
1.11828
1.03562
1.02805
1.11863
1.1187
0.902722
1
1
1
1
1.00001
1.04512
1
1
1.1019
0.893926
0.999987
1
1.11853
0.999972
0.999945
1.01791
1.10752
1.12024
0.975855
1
0.889865
1
1.00062
1.11861
1.11922
1.11741
0.999724
1
1
0.88983
1
1
1.11859
1.01421
1
1
1
1
1
1
1
0.999981
1.11957
1
1
1
1
1
1.08262
1
1.05947
1
1
1.11854
1.1198
0.892639
0.999656
1
1
1
0.891302
1.11975
1.11847
1
1
1
1
1
1
1
1
1.11873
1.11787
0.890985
1.01447
0.89227
1
0.886192
1
1.11874
1.03689
1
1
0.911544
1
1.11402
0.943858
0.998943
0.887632
1
1
1.11941
1.00001
0.999139
0.884566
1.11993
1.12078
1
1
1
1
1.11162
1
1
1.11862
0.9997
1.11917
1.00001
1
1
0.888681
1
1
1.11866
0.888841
0.931966
0.89532
1.11855
0.999802
1
1.11931
0.88878
0.889088
1.00405
1
1
1.12011
1.00001
1.05779
1
1
1.12002
0.892856
1
1
1.00004
1.11941
1.00004
1.11567
1
1.00001
1
1
0.91461
1
0.936379
1
1
1.11913
0.888626
1
0.93402
0.940303
1
1
1.11868
1
1
1
1.11874
1.11838
1.00002
1.11522
1.12029
0.934505
1.11852
1.1127
1
1
1.11838
1
1
1
1
1
1.11989
1.11849
1
1
1
1.11866
1.00006
1
0.889812
0.912902
1
1.00001
1.04645
1
1
0.972124
0.894104
1
1
1
1.11973
1.10968
1.11858
1
1
1
1
0.889832
1
1.11989
1
1.11745
0.889623
1.11834
1
1
1
0.889291
1
1.11916
1.00001
1
0.891312
1.04727
1
0.999907
1.11892
0.886325
0.888992
1
1.11976
0.884661
0.889673
1
0.888704
1
1
1
1
0.888717
1
1
1
1
1.11966
1
1.09308
0.888992
1
1
1
0.889872
1.11858
1
1
0.999055
1.11709
1
1.11853
1.11935
1
1
0.914382
0.889064
1
1
0.890854
1.0411
1.05802
1
1
1.11907
0.999233
1
0.999315
1.12026
1
1
1
1
1
1
1.11861
1
1.04391
1.04092
0.901645
1.10626
1
1.11858
1.11862
1
1
1
0.975958
0.890517
1
1.06489
0.999906
1.10536
1
1
1
1
1
1.00184
1.05609
1.11879
1.1187
1
1.11857
1
0.897211
1
0.999284
0.999935
1
0.887317
1
0.893912
1.00001
1.11935
1.12011
0.889211
1.11986
0.889181
0.998903
1.09484
0.889642
1.08728
1
1
0.999545
1
1
1
1.00002
1
0.889695
1
1
1
1
0.999885
1.11867
0.940759
1
1
1
1.01063
1
1
1
1.0702
0.924745
1
1
1
1.01508
1.12002
1
0.889042
1
1.11898
0.972844
0.889762
1
0.888738
1
1
1.1128
0.999495
1.11161
1
1.00254
1
1
1.11866
1
1
1
1
1.02647
1
1.11863
1.11891
1.11961
0.889216
1.11859
0.999178
1.09888
1
1
0.886009
1
1
0.890436
1.11908
1
1
0.999988
1
1
1
0.884149
0.888836
1
1.12018
1
1.05929
1.11853
0.889622
1.09895
1
1
0.892849
1
1
1.1186
1.11853
1.0472
1
1
1.00037
1.11934
0.889156
0.891545
1.12012
1.1185
1.08366
1.05089
1
0.971546
1
1
1
1.11245
1.11865
1.1185
1
1
1.11892
0.888873
1.10893
0.884386
1
0.89441
1
0.889259
1.11846
0.886434
1
0.995272
0.900568
1
1
1
0.956157
1.10894
1.11865
1.11903
1.1196
1
1
1.12014
1
1
1.11855
1
0.889006
1
0.888792
1
1.11997
1
1
1.00856
1.09316
1
0.999657
0.889324
1.11858
1
0.888858
1.02541
1
1
1.09318
1.1185
1.11866
1
1.11858
1.03574
1
1.00676
1.11852
1
1
1
1
1.11855
1
0.888353
1.11871
0.889948
0.888625
0.94852
1.11857
1.04523
1.11835
1
1.11981
0.999291
1.00001
1.11858
1.11999
1
1.11928
1
1.11851
1
1.11958
1
1.00001
0.999998
1.11881
0.887975
0.893711
0.999411
1
1
1
0.888382
1
1.08137
1
0.885398
1
1.04955
1.1185
1.11863
1
1
1.00001
0.999839
1
1.1197
1.11847
1
1.05327
1.11873
0.952958
1.11852
1.00012
0.886758
1.02844
0.889285
1
1
1.02249
1.12053
1
1
1.01382
0.999583
1
0.889083
1
0.934511
1
1.11826
1
1
0.888814
1.03127
1.02021
0.999574
1.11839
1.11852
0.931273
0.999452
0.889426
0.888716
0.889007
1
1
1
0.999731
0.912995
0.894829
1
1.11852
0.999922
1.11856
1.1187
1.12017
1.11852
1
0.889267
1.11863
0.888662
1
1.11864
1.1194
0.99905
0.944882
1.1186
1.08708
1
0.889107
1
1
1.1209
1
1.00776
1.11864
1
0.888685
0.889304
1
1
0.884485
0.884845
1.11862
1.00001
1
0.885025
0.88515
1.11966
1.11509
1.11153
1.12007
1.03696
0.996849
1.05171
1.11961
1.09507
1
1.06351
1
0.884726
0.960244
1
0.889085
1.11861
1.00658
1.11886
1
1.11855
1.11956
1
1.11865
1.11861
0.889962
1.11931
1
1.12011
1
0.921005
0.889606
1.11874
1
1
1
0.889721
1.11866
1.11878
1
0.893395
1
1
0.890556
1.00001
0.883172
1.11993
1
0.947516
0.885963
1
1
1.07143
1
1
1
1.02188
0.890226
1
1
1
1.11878
0.889905
1
1.11858
0.889318
0.888833
1
1
1.12018
1
1.11862
1
1.11854
0.894299
1
1
0.889207
0.942506
0.888476
1
1
1
1
1.11884
0.886497
1
0.889533
1
1.11953
1
1
0.9807
1
1
0.947779
0.99991
1.00001
1
0.890086
0.894107
1
1
1
1
0.938398
1.1182
1.11949
1
0.889755
0.889081
0.973364
0.894501
1
0.948038
1
0.888619
0.996919
1
1
0.893517
1
1.11825
1.11476
0.889879
1
1
1
1.11817
1
1.01328
0.951914
1.0406
0.893272
1.05011
0.887963
1
1
0.911897
0.97425
1
1.01448
1
1
0.889028
1
0.982995
1.01557
0.889691
1
1.09741
0.925681
0.965124
1
1
1
0.89426
1
0.889581
0.890046
1
0.958175
0.88947
1.02093
0.920718
0.884697
1.11859
1
1.11857
1.06857
0.916736
1.11856
0.888864
0.999726
1.11958
1
1
1.11841
1
0.911735
1
1.02083
1
1
1.11861
1
0.929482
0.946632
1.12056
0.982339
1
0.92653
1.11857
1.11957
0.973696
1
1.11855
1.03497
0.956987
1
1.00645
1
0.894754
1.05484
0.929295
0.921388
1
1
0.895111
1.11864
0.991497
0.890608
0.886942
0.961462
1
1.00631
1.1196
1.11868
1
1
1
0.891651
1.05951
0.999999
1.11889
1.10857
0.888145
1
1.02711
0.964171
1.07244
1.10416
1
1.01329
1
1.00002
0.884847
0.955463
1
1
0.94545
0.885651
1.01322
1
1.00001
0.885505
1.05755
1
1.11838
1
1.01316
1.06886
1
1.11637
1
1
1.11842
1
0.885928
1.11979
0.903819
1.03509
1
0.892946
0.999975
1
1.00001
1
0.938551
1.00767
0.891031
1.09048
1.12
0.883496
1
1
1
1
1
0.99249
0.888847
1.01486
0.890565
0.889892
1.02318
1
0.999947
1.03289
1
1
0.888794
0.998557
1
1
1.03726
1
1.11964
1
1.11967
1.02627
1.00652
0.891029
1
1
0.889414
1
1
1
1
1.11838
1.01244
0.999448
1
0.883923
1.01472
1
1
1.08075
1
0.889126
1.11843
1
1
1
1.11867
0.888985
0.967291
0.886384
1.09196
1.119
1
1
1.11853
1
0.885008
1
1
1
1
1
0.933074
1
1.11864
1
1
1.04492
1.11948
0.890915
0.962176
1
1.11855
1
1
1
1
1
1.11857
1.11985
0.884757
1.11853
0.88303
1
1
1.11856
1
1.12011
1.0012
1.0079
1.02008
1.11871
1.02005
1.08371
0.884754
1
0.885354
0.997427
1
1.11858
1
1
0.886573
1.11931
1
1.11967
1
1
1
1
1
1
0.890735
1.11945
0.954952
1.11851
1
0.889506
0.891
0.913755
1.12017
1.11872
0.992746
1
0.938945
1
1.04953
1
1.11871
0.88443
0.890156
0.95416
1
1.11861
1
1.02336
0.89685
1
1.12029
1.10537
0.999676
1
1.11863
0.889211
1.11957
1.11848
1.11952
0.891905
1.02572
1
1
0.885011
1
0.94243
0.948634
1
1.00001
1.11861
1
1.11967
1.02537
1
1.01394
1.12071
1
0.888952
1
0.930244
1
1
1.09955
1
0.93853
1
0.89662
1.01085
0.987725
0.885794
1.11838
1.0985
1.11958
0.891577
0.903599
0.998722
1
1
0.899901
1.11255
0.889814
0.999991
1
1.11861
1.11924
0.972858
1
0.889408
0.908907
1.08194
0.994739
0.884558
1
0.889188
1.03358
0.893796
1
1.00002
0.944336
1.12008
1.11872
0.951706
0.999883
1
1
0.912745
1
0.888459
1
0.88835
0.889886
1
1
1.00001
0.895093
1.11859
1
1
1.00002
1.00001
0.890699
1.11876
1.11857
1
0.890742
1.12006
1
1.02714
1
1
1.1184
0.886369
1
1
0.888868
0.92105
0.890573
0.888619
1
0.904705
0.999197
1.02838
0.884715
1
1
1.03652
1
1.10629
1
1
1.08409
0.8973
1
0.889099
1.03605
1.11861
1
1
0.894411
0.889214
0.883342
0.917499
0.889181
1.09184
0.999831
1
1
1
1
1.11884
0.889106
1
0.981219
0.999909
0.999654
0.999982
0.927669
1.03609
1
1.11858
1.11859
1
1
1.11468
1.00001
1
1.1185
0.892254
1.11766
1
0.884366
1.11867
1.00002
1
0.949061
1
0.885363
1
1.11921
1
1
1.11936
1
1
1.11928
1
1
1
1.12016
1
0.920376
0.91187
1
0.882994
1.11872
1
1
0.994873
1
1.11929
1.0721
1.09717
1
1
0.892356
1
0.889301
1.11872
1.11974
1.1187
1
1.11961
0.889588
1
0.889668
1.09757
1.1091
1.11891
1.11884
0.928249
0.885925
1
1.07941
1.11928
1.11936
1.11856
0.92134
1.04697
1
1.09234
0.923888
1
1
1
1.00001
0.970315
1
1.11898
1
1
1
1
1
1
1.00002
1.11802
1
1.11947
1.09042
0.889634
1.12009
1.00921
1.06298
1
1.11845
1
0.890773
1
1
1
1
1.10298
1
0.8847
1.11832
0.882853
1.11855
1.09711
1.06551
1
1.02522
1.05933
0.998741
0.889502
0.931128
1.00001
1
0.977315
1
0.886532
1.11914
0.884563
0.979611
0.959119
1
1
1
1.00365
1
1
0.889537
0.998928
1.11982
1
1.11862
1
0.88963
1
1
1.11853
1.11842
0.885442
1
1.11928
1
0.942554
0.887653
1.11899
1.10753
1
1.02235
1.11862
0.99962
1
1.05301
1.10544
1.11848
0.998853
1
0.999999
1.10248
1
1
1
1.11859
0.999568
1
1
1.11865
1
1
0.891923
1
1
1
1.11912
1
1
0.958732
1.04109
1.10885
0.930706
1
1.11854
1
1.04444
1
1.11921
0.999218
1.11864
1
0.889412
1
1.08772
1
1
1.11146
1
1.11868
1
1.11896
0.903182
0.89276
1.11927
1
1.10292
1
1.11927
1
1
1.00001
1.11869
1.11833
1.03462
1.11861
0.998829
0.888967
1.11864
0.961982
1
1.11848
1
1.11866
1
1.11907
1.11944
0.998916
0.889047
1
1.11856
1
1.01022
1
1
0.999421
0.921524
1.10702
1
1.10899
1
0.963169
0.885292
1.11847
1.11866
0.902874
1
1.11878
1.11961
1.11899
0.900112
1.1185
0.89476
1.11899
1.11802
1
1
1.11861
1
1
1
1
0.889956
1
1
1.11933
1.11858
1
1.11865
1
1.12034
1.11976
1
1.10066
1
0.883328
1.11844
1.09023
1.03716
0.882776
1.11858
1
1
0.887156
1
1
1.11852
1
1
0.935764
1
1.11864
1.00002
1.11838
0.886081
1.11993
1
1.11865
1.11448
0.970394
1
1.11855
0.927668
1.1185
1.08624
1.11857
1.11875
0.999217
1.11997
1.1186
1.11863
1.11866
1.00015
1
0.88885
1
1.11968
0.949001
1.1092
1
1.11661
1
1
1
1
1
1.11794
0.88739
0.889241
1.11908
1.1185
1
1
1
1
1
1.1178
1.11067
1.11863
1.00504
1
1
1
1.00001
1.11826
1.11854
1
1.11927
1.11983
0.893717
1.08601
1
1.11856
1.11956
1.1178
0.999403
1.11861
1.11871
1
1.10874
1
1
1
1
1
1
1.11859
1.1202
1.11122
1.11858
0.88856
0.903657
1.11858
1.11864
1
0.886462
0.983675
1
1.06062
0.885673
1
0.999845
0.999514
0.889848
1
1.11865
1
1
1
1.11939
0.986127
1
1.11853
1.11853
1
1.11871
1
1
1.11857
1
0.887644
1
1.11905
1
1
0.893251
1
1.11853
1
0.884397
0.886979
1
1.1176
1
0.884155
0.96855
1
1.11863
1
1
1
1.11959
1
0.890507
1.01847
1.11903
1.1189
1.1186
1.01489
1.11892
1.11857
1
1
1
1
1
1.11855
1
0.999801
1.11853
1
0.883555
1
1.1185
1.05907
1.01905
1.05885
1.01906
1.11975
0.907438
1.11861
1
0.89032
0.999183
1.11855
0.983866
1.11857
1.11867
1.11603
1
1.11917
1.11854
1.11861
1
1.00001
1
1
1.11913
1.08738
1
1
0.889089
0.999064
1
1.11868
1
1.1186
1.11859
1.11915
0.973565
1.11865
1.11869
1.00134
1.06104
1.1195
1.11872
1
1.11045
0.949941
1.11623
0.997401
1.11873
1
1.1185
1.11869
1
0.893389
0.982144
0.905843
1
1.02325
0.999082
1.11911
1
1
0.999016
1
1.06255
1.11244
1
1
1.11849
1
1
1.08724
1.11873
1.1143
1.11878
1.11871
1
1.11885
0.915553
1.11872
1
0.998478
0.892129
1
1
0.921433
1
1.04131
1
1.11898
1
1.11655
1.07802
0.889558
1
1
1
1
1
1.11864
1.00335
1
1.11918
1
1.11858
1.11861
1
1
0.993788
0.999957
0.884513
0.885639
0.915126
1.02602
1
0.999552
0.887328
1.00001
1
1.11859
0.981913
1.11135
1.10163
1
1
1
1
1
1.1185
1.11869
1
1.1189
1
1.11986
1.0823
0.998904
1
1
1
1.07183
1
0.989089
1
1.11867
1
1
1.1185
1
1
1
1
1
1.11881
0.884392
0.998861
1.10749
1.11858
1
1.11855
1
1
1
1
0.903109
1
1.11864
1.11862
1.11853
1.12011
0.987703
1