/*--------------------------------*- C++ -*----------------------------------*\
  =========                 |
  \\      /  F ield         | OpenFOAM: The Open Source CFD Toolbox
   \\    /   O peration     | Website:  https://openfoam.org
    \\  /    A nd           | Version:  12
     \\/     M anipulation  |
\*---------------------------------------------------------------------------*/
FoamFile
{
    format      ascii;
    class       volScalarField;
    location    "7.42";
    object      rho;
}
// * * * * * * * * * * * * * * * * * * * * * * * * * * * * * * * * * * * * * //

dimensions      [1 -3 0 0 0 0 0];

internalField   nonuniform List<scalar> 
22702
(
1.40001
1.40001
1.25309
1.40001
1.44961
1.40001
1.83803
1.40001
1.40001
1.03287
1.83791
1.83738
1.40001
1.84262
1.27319
1.40001
1.40001
1.40001
1.83854
1.40001
1.84252
1.40001
1.83932
1.02086
1.83825
1.02418
1.40001
1.83763
1.01854
1.02817
1.40001
1.8377
1.40001
1.40001
1.40001
1.80942
1.84225
1.839
1.40001
1.40001
1.05165
1.40001
1.61557
1.40001
1.83668
1.40001
1.40001
1.40001
1.40001
1.03125
1.40001
1.02913
1.40001
1.83814
1.40001
1.83807
1.40001
1.40001
1.40001
1.40001
1.03982
1.40001
1.40001
1.02004
1.40001
1.04134
1.40001
1.40001
1.40001
1.04063
1.40001
1.84066
1.6703
1.40001
1.8406
1.86244
1.0446
1.83943
1.02675
1.40001
1.83946
1.03133
1.83813
1.83851
1.40001
1.40001
1.40001
1.40001
1.31993
1.03617
1.8399
1.40001
1.40001
1.02772
1.40001
1.84188
1.02712
1.40001
1.40001
1.40001
1.40001
1.61574
1.83955
1.02835
1.40001
1.40001
1.50231
1.40001
1.02908
1.40001
1.83891
1.83806
1.40001
1.40001
1.01342
1.01443
1.03146
1.40001
1.40001
1.40001
1.40001
1.40001
1.30359
1.40001
1.77856
1.43947
1.84282
1.40001
1.84278
1.83831
1.84262
1.83918
1.40001
1.04671
1.40001
1.03629
1.40001
1.40001
1.40001
1.40001
1.83773
1.40001
1.40001
1.40001
1.40001
1.84145
1.40001
1.4262
1.40001
1.40001
1.40001
1.40001
1.03521
1.40001
1.40996
1.40001
1.02848
1.40001
1.40001
1.40001
1.83841
1.40001
1.84077
1.01872
1.04007
1.84093
1.84089
1.40001
1.47554
1.65473
1.40001
1.83996
1.02202
1.81009
1.40001
1.40001
1.40001
1.40001
1.84228
1.74931
1.40001
1.83885
1.02301
1.83987
1.40001
1.02608
1.40001
1.03511
1.03132
1.39977
1.40001
1.40001
1.83755
1.40001
1.40001
1.84107
1.40001
1.83814
1.83916
1.02726
1.40001
1.40001
1.02669
1.84215
1.40001
1.40001
1.40001
1.84243
1.40001
1.02525
1.40001
1.40001
1.84159
1.84168
1.83875
1.40001
1.40005
1.40001
1.40001
1.40001
1.84113
1.40001
1.03683
1.85489
1.84058
1.84313
1.40001
1.40001
1.40001
1.01047
1.84171
1.61989
1.40001
1.84341
1.02551
1.02148
1.84302
1.84274
1.40001
1.83838
1.03186
1.79138
1.40001
1.40001
1.40001
1.40001
1.84208
1.40001
1.65847
1.44386
1.40001
1.40001
1.84166
1.02865
1.14871
1.40001
1.8409
1.02934
1.84081
1.40001
1.40001
1.40001
1.40001
1.40001
1.40001
1.40001
1.02757
1.15655
1.02423
1.84196
1.40001
1.40001
1.40001
1.40001
1.79459
1.40001
1.02052
1.40001
0.999666
1.02285
1.84186
1.02851
1.84244
1.40001
1.40001
1.40001
1.39771
1.03056
1.04013
1.4
1.40001
1.00111
1.40001
1.83834
1.03193
1.40001
1.40001
1.83985
1.03596
1.40001
1.83643
1.0378
1.84202
1.40001
1.00863
1.39776
1.40001
1.40001
1.40001
1.02082
1.40001
1.40001
1.4
1.40001
1.41369
1.67159
1.40001
1.03209
1.40001
1.40001
1.40001
1.40001
1.40001
1.40001
1.40001
1.83982
1.40001
1.83729
1.40001
1.40001
1.40001
1.0393
1.40001
1.84187
1.02536
1.40001
1.74508
1.40001
1.40001
1.83864
1.40001
1.40001
1.40001
1.82846
1.40001
1.40001
1.82827
1.83889
1.40001
1.49311
1.40001
1.40001
1.03293
1.40001
1.40001
1.40001
1.02939
1.40001
1.40001
1.40001
1.40001
1.02041
1.40001
1.40001
1.40001
1.40001
1.40001
1.05444
1.40007
1.8408
1.40001
1.4
1.84088
1.84089
1.40001
1.40001
1.03365
1.21155
1.83674
1.40001
1.40001
1.40001
1.84188
1.03996
1.40001
1.84051
1.40001
1.40001
1.10364
1.09375
1.40001
1.0275
1.03055
1.40001
1.40001
1.40001
1.40001
1.40001
1.40001
1.40001
1.84235
1.50337
1.82254
1.05863
1.30712
1.83683
1.40001
1.84079
1.83676
1.02609
1.16424
1.40001
1.02503
1.40001
1.84714
1.40001
1.40001
1.40001
1.40001
1.84212
1.40001
1.40001
1.40001
1.40001
1.40001
1.40001
1.40001
1.56112
1.83758
1.40001
1.84182
1.40001
1.40001
1.03039
1.40001
1.40001
1.40001
1.40001
1.84238
1.73748
1.40001
1.40001
1.01811
1.8402
1.84147
1.40001
1.84142
1.84066
1.84167
1.40001
1.23839
1.40001
1.84141
1.38301
1.84163
1.40001
1.02116
1.39893
1.84009
1.40001
1.40001
1.40001
1.40001
1.03028
1.84151
1.80109
1.40001
1.83841
1.84178
1.83834
1.40001
1.61479
1.84072
1.40001
1.40001
1.70401
1.466
1.84146
1.32807
1.84143
1.40001
1.8414
1.84183
1.84151
1.84029
1.40001
1.81686
1.30871
1.27545
1.40001
1.4
1.40001
1.40001
1.84785
1.40001
1.40001
1.40001
1.40001
1.40001
1.84024
1.40001
1.40001
1.39632
1.84138
1.79762
1.40001
1.7753
1.40005
1.40001
1.40001
1.84133
1.40001
1.39621
1.40414
1.40001
1.84211
1.40001
1.84225
1.40001
1.40001
1.72927
1.40001
1.84178
1.40003
1.40001
1.84005
1.40001
1.84192
1.40001
1.40001
1.40001
1.84183
1.40001
1.84543
1.40001
1.84221
1.83876
1.84166
1.84046
1.40001
1.83884
1.83941
1.40001
1.03622
1.8152
1.71529
1.40001
1.84131
1.40001
1.02888
1.0365
1.40001
1.40001
1.40001
1.40001
1.40001
1.02851
1.40001
1.84192
1.51294
1.84064
1.40001
1.40001
1.40001
1.40001
1.40001
1.84177
1.40001
1.84782
1.6644
1.1779
1.40001
1.40002
1.5258
1.50995
1.40001
1.40001
1.55386
1.40001
1.02783
1.84208
1.84217
1.40001
1.40001
1.40001
1.83962
1.40001
1.40003
1.84627
1.84182
1.34404
1.40001
1.40001
1.02762
1.80285
1.40001
1.40001
1.40001
1.40001
1.40001
1.84166
1.83869
1.40001
1.84009
1.84522
1.84197
1.40001
1.40001
1.40001
1.40001
1.03168
1.83668
1.40001
1.40001
1.80302
1.8406
1.40001
1.81612
1.83931
1.40001
1.40001
1.40001
1.40001
1.40001
1.84221
1.40001
1.40001
1.40001
1.40001
1.84672
1.40001
1.83133
1.02796
1.40001
1.03308
1.40001
1.40001
1.40001
1.39665
1.03492
1.39903
1.40001
1.40001
1.40001
1.46466
1.40001
1.40001
1.26267
1.40001
1.40001
1.40001
1.40001
1.40001
1.40001
1.40001
1.4
1.32845
1.4
1.40001
1.39757
1.40001
1.02662
1.40001
1.40001
1.40001
1.40001
1.731
1.40001
1.40001
1.40001
1.40001
1.01702
1.40001
1.40001
1.8167
1.83804
1.4
1.40001
1.40001
1.27484
1.40001
1.40001
1.40001
1.40001
1.40001
1.40001
1.34924
1.41318
1.84133
1.40001
1.40001
1.40001
1.84273
1.28958
1.40001
1.40001
1.40001
1.83767
1.83719
1.40001
1.40001
1.40001
1.40001
1.40001
1.40001
1.40001
1.40001
1.40001
1.03406
1.40001
1.40001
1.83947
1.02367
1.40001
1.83953
1.40001
1.03407
1.40001
1.40001
1.03145
1.40001
1.40001
1.40001
1.40001
1.40001
1.40001
1.40001
1.83287
1.84058
1.40001
1.40001
1.40001
1.40001
1.80353
1.40001
1.53299
1.03531
1.40001
1.40001
1.40001
1.40001
1.40001
1.40001
1.40001
1.43152
1.40001
1.40001
1.62494
1.40001
1.40001
1.40001
1.76285
1.40001
1.40001
1.40001
1.40001
1.03837
1.40001
1.40001
1.02008
1.03496
1.40001
1.40001
1.8416
1.40001
1.38321
1.40001
1.40001
1.40001
1.70784
1.03408
1.40001
1.02916
1.40001
1.17133
1.40001
1.40001
1.40001
1.83959
1.40001
1.40001
1.84099
1.40001
1.40001
1.40001
1.84096
1.40001
1.40001
1.84192
1.40001
1.40001
1.02378
1.40001
1.52869
1.40001
1.40001
1.83683
1.83752
1.6939
1.79591
1.40001
1.02514
1.40001
1.40001
1.82186
1.40001
1.04314
1.40001
1.40001
1.40001
1.8427
1.40001
1.40001
1.40001
1.40001
1.66648
1.40001
1.8319
1.84497
1.02952
1.40001
1.40001
1.02305
1.01948
1.40001
1.40001
1.40001
1.71168
1.73657
1.40001
1.40001
1.40001
1.40001
1.40001
1.40001
1.40001
1.58782
1.83749
1.40535
1.40001
1.83659
1.0444
1.40001
1.40001
1.40001
1.64502
1.40001
1.48936
1.40001
1.80338
1.84014
1.40001
1.02116
1.40001
1.83813
1.40001
1.40001
1.8426
1.81484
1.40001
1.84075
1.40001
1.00312
1.40001
1.40001
1.40001
1.8504
1.83264
1.78881
1.40001
1.8401
1.84218
1.40001
1.84332
1.40001
1.84018
1.40001
1.03517
1.36909
1.03542
1.40001
1.40001
1.40001
1.40001
1.40001
1.84065
1.40001
1.84102
1.40001
1.40001
1.40001
1.81943
1.40001
1.03063
1.84135
1.40001
1.01318
1.05478
1.03536
1.40001
1.61478
1.43198
1.84294
1.84216
1.40001
1.4
1.40001
1.40001
1.84208
1.40001
1.40001
1.84179
1.84217
1.40001
1.56007
1.39964
1.40001
1.39683
1.84096
1.24746
1.40001
1.22005
1.02641
1.02931
1.34344
1.83994
1.83595
1.48945
1.84182
1.84217
1.40001
1.40001
1.84107
1.83842
1.84137
1.83757
1.40001
1.84222
1.04054
1.84467
1.84074
1.83929
1.84007
1.25364
1.2906
1.32801
1.84176
1.35516
1.83951
1.40001
1.40001
1.84356
1.84143
1.40001
1.02232
1.84109
1.8418
1.40001
1.84188
1.84165
1.40001
1.84211
1.01628
1.84461
1.83935
1.83762
1.84037
1.40001
1.40001
1.40001
1.84156
1.68497
1.03981
1.84091
1.02041
1.84134
1.40001
1.40001
1.40001
1.40001
1.84475
1.84128
1.40001
1.40001
1.84164
1.02326
1.84225
1.02192
1.40001
1.83815
1.40001
1.03551
1.84278
1.12877
1.40001
1.84159
1.84373
1.84146
1.40001
1.40001
1.59425
1.84332
1.028
1.84127
1.40001
1.84133
1.27947
1.84198
1.03244
1.40001
1.84219
1.06034
1.84367
1.0319
1.40001
1.84229
1.40001
1.83921
1.40001
1.65772
1.82522
1.74794
1.03154
1.40001
1.84189
1.40001
1.84139
1.40001
1.8421
1.40001
1.40001
1.84174
1.38268
1.84493
1.01335
1.80796
1.40001
1.71698
1.40001
1.83985
1.8418
1.84149
1.40001
1.79816
1.84259
1.80934
1.67272
1.83855
1.40001
1.69249
1.40001
1.84294
1.40001
1.45688
1.40001
1.80973
1.40001
1.84126
1.82105
1.82027
1.40001
1.83699
1.03351
1.40001
1.03081
1.40001
1.40001
1.40001
1.83762
1.40001
1.84262
1.40001
1.40001
1.40001
1.84302
1.82875
1.76489
1.84493
1.84328
1.03343
1.84241
1.8361
1.40001
1.77676
1.84138
1.82922
1.40001
1.83927
1.83727
1.40001
1.84686
1.84243
1.83999
1.84278
1.40001
1.40001
1.40001
1.84151
1.01843
1.40001
1.84208
1.40001
1.40001
1.03821
1.40001
1.40001
1.84134
1.84188
1.40001
1.84157
1.83466
1.84124
1.36653
1.84182
1.40001
1.8417
1.84154
1.75902
1.40001
1.40001
1.40001
1.84379
1.84166
1.84186
1.33365
1.40001
1.84728
1.84189
1.84239
1.40001
1.84131
1.84257
1.84169
1.84751
1.40001
1.8415
1.84316
1.78037
1.84276
1.84639
1.40001
1.84921
1.8369
1.84175
1.84706
1.84133
1.03111
1.84255
1.84321
1.40001
1.84197
1.84164
1.8416
1.84099
1.40001
1.84218
1.84196
1.40001
1.842
1.77056
1.40001
1.40001
1.40001
1.84524
1.84189
1.40001
1.40001
1.64121
1.40001
1.84158
1.40001
1.40001
1.8418
1.84362
1.84126
1.84227
1.40001
1.40001
1.40001
1.70557
1.40001
1.84129
1.40001
1.40001
1.84167
1.83873
1.40001
1.8417
1.02897
1.8423
1.84235
1.12011
1.40001
1.036
1.78122
1.84046
1.83993
1.83979
1.03732
1.84281
1.84376
1.03804
1.01773
1.40001
1.84007
1.84184
1.40001
1.40001
1.84166
1.40001
1.84156
1.40001
1.7855
1.40001
1.60698
1.8424
1.84352
1.70687
1.81253
1.83724
1.84398
1.82092
1.40001
1.04104
1.83943
1.84196
1.84729
1.40002
1.40001
1.40001
1.84507
1.40001
1.84207
1.8412
1.14518
1.40001
1.84112
1.39995
1.40001
1.40004
1.40005
1.84183
1.84064
1.39844
1.40001
1.40001
1.84152
1.8439
1.84196
1.84228
1.84276
1.06246
1.79484
1.40001
1.83804
1.84133
1.84181
1.83578
1.40001
1.84149
1.82913
1.84378
1.40001
1.84167
1.84373
1.25774
1.84129
1.84222
1.40001
1.84216
1.22879
1.84179
1.25484
1.84177
1.40001
1.8416
1.84767
1.84195
1.84211
1.84163
1.83872
1.8429
1.83875
1.40001
1.3224
1.84203
1.84131
1.23222
1.84137
1.38212
1.68369
1.84193
1.84072
1.84522
1.40001
1.8447
1.6882
1.84422
1.30835
1.84458
1.84618
1.40001
1.26766
1.40001
1.84349
1.40001
1.70281
1.40001
1.81125
1.2685
1.40001
1.8453
1.8474
1.40001
1.84438
1.84321
1.8492
1.8458
1.84634
1.40001
1.8393
1.40001
1.40001
1.40001
1.29285
1.84055
1.84097
1.83999
1.84156
1.8387
1.84213
1.83621
1.84251
1.29582
1.43144
1.40001
1.40001
1.84381
1.84228
1.8417
1.84199
1.40003
1.62495
1.40001
1.84634
1.80299
1.40001
1.40001
1.13168
1.84164
1.40001
1.40001
1.02507
1.8418
1.40001
1.83594
1.84116
1.83733
1.82478
1.84159
1.40001
1.03532
1.50681
1.84146
1.8417
1.40001
1.84246
1.84142
1.62989
1.41032
1.49812
1.40001
1.83854
1.84202
1.40001
1.40001
1.03744
1.40001
1.40001
1.84171
1.84207
1.84102
1.84198
1.84193
1.84403
1.84197
1.84122
1.84181
1.40001
1.3957
1.84238
1.84131
1.39674
1.84182
1.84148
1.03417
1.03006
1.84418
1.83989
1.40001
1.40001
1.40179
1.84119
1.84113
1.84187
1.40001
1.84153
1.40001
1.24937
1.84791
1.84596
1.40001
1.59258
1.84083
1.40001
1.84039
1.40001
1.84118
1.69608
1.84077
1.40001
1.84308
1.84376
1.03661
1.84206
1.40001
1.84274
1.83793
1.40001
1.03665
1.84435
1.77335
1.39767
1.82348
1.84159
1.40001
1.39624
1.84783
1.3981
1.84136
1.40001
1.40001
1.84381
1.40001
1.84657
1.84166
1.39644
1.74906
1.40001
1.84156
1.40001
1.40001
1.40001
1.40001
1.84206
1.40001
1.40001
1.84442
1.40001
1.84204
1.40001
1.68488
1.83873
1.84146
1.40001
1.40001
1.39585
1.40001
1.84227
1.84146
1.84372
1.84199
1.84261
1.84161
1.84162
1.40001
1.84103
1.84197
1.40001
1.84147
1.84106
1.40001
1.8403
1.31867
1.45682
1.84133
1.84166
1.84158
1.40001
1.84184
1.40001
1.84206
1.84164
1.40001
1.84266
1.40001
1.40001
1.40001
1.40001
1.84176
1.02746
1.39788
1.40001
1.84232
1.84981
1.40001
1.84128
1.40001
1.40469
1.03715
1.84157
1.3996
1.40001
1.84245
1.39832
1.84172
1.40001
1.39978
1.40001
1.84194
1.84441
1.84179
1.84115
1.03287
1.84312
1.84357
1.84185
1.51498
1.40001
1.40001
1.59335
1.84198
1.02554
1.0354
1.40001
1.84266
1.84214
1.84105
1.40001
1.40001
1.84253
1.84139
1.39988
1.40001
1.72659
1.03034
1.40001
1.47799
1.84021
1.83912
1.39824
1.84204
1.84782
1.40001
1.39891
1.40001
1.83979
1.84092
1.57846
1.40001
1.81784
1.40001
1.40178
1.8408
1.04413
1.84225
1.84178
1.39697
1.39992
1.78529
1.40001
1.3997
1.40001
1.84321
1.40001
1.40002
1.03335
1.84186
1.40001
1.40001
1.40001
1.40001
1.84669
1.64575
1.40001
1.40001
1.04402
1.84179
1.64738
1.40001
1.40001
1.40001
1.8204
1.83862
1.83932
1.40001
1.40001
1.83939
1.40001
1.84159
1.84174
1.40001
1.40001
1.84368
1.84197
1.81898
1.40001
1.40001
1.84381
1.84196
1.40001
1.40001
1.40001
1.8418
1.40001
1.40001
1.40001
1.83963
1.84523
1.8433
1.40001
1.85021
1.40004
1.08647
1.8421
1.84068
1.40001
1.84122
1.82004
1.83803
1.40001
1.40001
1.84478
1.40001
1.64205
1.84049
1.40001
1.03636
1.40001
1.84364
1.40001
1.40001
1.84118
1.40001
1.40001
1.40001
1.53951
1.84103
1.06957
1.40002
1.84315
1.40001
1.40001
1.84172
1.40001
1.84618
1.40001
1.40001
1.84183
1.84082
1.40001
1.40006
1.40001
1.40001
1.40001
1.40001
1.40001
1.40001
1.83825
1.84205
1.40001
1.83654
1.02717
1.84722
1.40001
1.84166
1.84057
1.84211
1.84729
1.84014
1.40001
1.40001
1.8453
1.40001
1.67126
1.84758
1.84215
1.40001
1.84286
1.84571
1.40001
1.80864
1.40001
1.84181
1.68963
1.84575
1.39738
1.83576
1.80447
1.84336
1.84225
1.43577
1.84182
1.84515
1.40001
1.84151
1.40001
1.84157
1.40001
1.40001
1.40001
1.40001
1.39611
1.84202
1.84167
1.78565
1.40001
1.84453
1.40001
1.40001
1.40001
1.01195
1.40001
1.829
1.40001
1.80194
1.82365
1.40001
1.40001
1.40001
1.8047
1.84185
1.40001
1.40001
1.84203
1.04026
1.46963
1.40001
1.84759
1.84135
1.8034
1.82873
1.84143
1.40001
1.84327
1.40001
1.40001
1.40001
1.40001
1.84249
1.84296
1.40001
1.83518
1.44987
1.841
1.81205
1.40001
1.40001
1.81342
1.40001
1.40001
1.02886
1.70804
1.40001
1.40001
1.84694
1.40001
1.8459
1.80103
1.40001
1.79991
1.0389
1.84183
1.84108
1.84288
1.40001
1.01778
1.40001
1.40001
1.40001
1.84173
1.7717
1.40001
1.84285
1.84032
1.4
1.84186
1.40001
1.40001
1.40001
1.40001
1.84072
1.39932
1.40001
1.84366
1.40001
1.40001
1.83919
1.84167
1.40001
1.84353
1.48254
1.40003
1.40001
1.84189
1.40001
1.84219
1.40001
1.4148
1.84185
1.40001
1.84178
1.40001
1.40001
1.52989
1.84066
1.40001
1.40001
1.40001
1.40001
1.40001
1.39586
1.0316
1.0378
1.41951
1.40001
1.41352
1.40001
1.41357
1.40001
1.84178
1.40001
1.65846
1.40001
1.84197
1.40001
1.40001
1.40001
1.84185
1.40001
1.74882
1.84298
1.40001
1.63073
1.84273
1.40001
1.40001
1.83785
1.84103
1.40001
1.40001
1.4522
1.02587
1.40001
1.84338
1.40001
1.40001
1.40001
1.40001
1.47499
1.8422
1.40001
1.40001
1.40001
1.02782
1.40001
1.84188
1.84186
1.85044
1.40001
1.40001
1.40001
1.40001
1.61952
1.84426
1.40001
1.40001
1.40001
1.84647
1.84205
1.45606
1.40001
1.40001
1.40001
1.84103
1.84174
1.40001
1.03706
1.84182
1.84199
1.84046
1.84019
1.84003
1.40001
1.40001
1.84605
1.84198
1.84167
1.02635
1.43996
1.84055
1.40001
1.40001
1.40001
1.40001
1.40001
1.84118
1.03611
1.40001
1.40001
1.84199
1.60328
1.40001
1.84649
1.40001
1.40001
1.40001
1.02959
1.40001
1.40001
1.51583
1.84166
1.84039
1.40001
1.84138
1.84265
1.40001
1.47249
1.40001
1.83935
1.40001
1.8421
1.03903
1.40001
1.40001
1.40001
1.40001
1.84197
1.40007
1.40001
1.40001
1.40001
1.82831
1.40001
1.40001
1.40001
1.40001
1.84236
1.0321
1.74316
1.84549
1.40001
1.84147
1.40001
1.40001
1.40001
1.39714
1.40001
1.84264
1.40001
1.20161
1.40001
1.40001
1.40004
1.84005
1.0349
1.40001
1.8407
1.40001
1.83827
1.84328
1.03136
1.40001
1.40001
1.82026
1.40001
1.40001
0.995703
1.40001
1.84026
1.40001
1.82205
1.39938
1.84263
1.40001
1.40001
1.40001
1.40001
1.84075
1.40001
1.40001
1.84142
1.40001
1.40001
1.40001
1.40001
1.40001
1.40001
1.40001
1.40001
1.6904
1.40001
1.54689
1.84209
1.40001
1.40001
1.40001
1.03212
1.40001
1.40001
1.40001
1.40001
1.84346
1.84191
1.45722
1.40001
1.40001
1.84285
1.40001
1.40001
1.84062
1.40001
1.40002
1.40001
1.40001
1.40001
1.40002
1.84263
1.1799
1.84238
1.84364
1.39725
1.40001
1.40001
1.40001
1.66027
1.40001
1.40001
1.84106
1.84158
1.40001
1.40001
1.40001
1.40001
1.03771
1.40001
1.40001
1.40001
1.67955
1.40001
1.84197
1.84437
1.40001
1.84317
1.40001
1.40001
1.40001
1.63828
1.40001
1.83804
1.40001
1.84171
1.40001
1.40001
1.39637
1.84222
1.40001
1.40001
1.40001
1.40001
1.40001
1.83918
1.40003
1.40001
1.02981
1.84054
1.00651
1.40001
1.84387
1.40001
1.39587
1.40001
1.84232
1.84655
1.40001
1.83596
1.27834
1.84135
1.83407
1.40004
1.40001
1.40001
1.02838
1.40001
1.40001
1.40001
1.84184
1.65167
1.84147
1.40001
1.40001
1.40001
1.40001
1.39681
1.84288
1.40001
1.03571
1.40001
1.40001
1.40001
1.40001
1.40001
1.40001
1.40001
1.84605
1.83979
1.84898
1.40001
1.40001
1.39685
1.40001
1.3833
1.40001
1.40001
1.40001
1.03582
1.37982
1.40001
1.01635
1.03223
1.40001
1.84277
1.84192
1.40001
1.8447
1.84202
1.02916
1.71155
1.40001
1.40001
1.40001
1.04014
1.84077
1.40001
1.03703
1.40001
1.84568
1.4759
1.40001
1.40001
1.40001
1.40001
1.84201
1.84167
1.40001
1.40001
1.84152
1.40001
1.40001
1.83809
1.84178
1.40001
1.81259
1.84032
1.83786
1.3619
1.84521
1.4086
1.036
1.73856
1.84164
1.40001
1.40001
1.40001
1.03389
1.40001
1.03194
1.84686
1.36094
1.84155
1.35207
1.40001
1.84273
1.60576
1.40001
1.40001
1.84426
1.40001
1.57985
1.83998
1.40001
1.40001
1.83821
1.83582
1.03552
1.65833
1.3999
1.40001
1.66405
1.40001
1.84392
1.33648
1.84976
1.84641
1.40001
1.40001
1.40001
1.40001
1.84186
1.40001
1.40001
1.83993
1.39965
1.84151
1.76332
1.83942
1.03167
1.40001
1.40001
1.40001
1.40001
1.84137
1.40005
1.84178
1.40001
1.84163
1.84031
1.45827
1.84839
1.53007
1.84167
1.40001
1.7015
1.04932
1.84808
1.84177
1.76204
1.4766
1.84188
1.84153
1.84179
1.84312
1.40001
1.32892
1.46273
1.40001
1.8419
1.61291
1.84251
1.40004
1.40001
1.40001
1.08906
1.84727
1.84099
1.76305
1.40001
1.57304
1.40001
1.84842
1.84727
1.40001
1.8435
1.84068
1.40001
1.40001
1.40001
1.84332
1.40001
1.57518
1.84095
1.70734
1.40001
1.84253
1.40001
1.40001
1.40001
1.40001
1.40001
1.40001
1.40001
1.40001
1.40001
1.40001
1.06995
1.40001
1.80228
1.03315
1.65601
1.39861
1.84409
1.40001
1.63068
1.40002
1.68661
1.77878
1.40001
1.4024
1.84574
1.315
1.40001
1.84021
1.82839
1.33433
1.40001
1.84034
1.84096
1.84414
1.40001
1.84198
1.84321
1.84124
1.40001
1.60544
1.40001
1.40007
1.84211
1.40001
1.84181
1.46511
1.84311
1.40001
1.40001
1.84078
1.84079
1.08586
1.40001
1.84119
1.73198
1.84113
1.40001
1.40001
1.83839
1.8445
1.39822
1.40001
1.79756
1.39671
1.84187
1.40005
1.40001
1.40001
1.40001
1.40001
1.60504
1.40001
1.74177
1.84321
1.73118
1.83974
1.40001
1.40518
1.40001
1.40001
1.83801
1.40001
1.84228
1.40001
1.40001
1.40001
1.40001
1.4
1.40001
1.45448
1.62796
1.40001
1.40001
1.04375
1.40001
1.8401
1.06982
1.84491
1.40001
1.61815
1.39974
1.84126
1.6851
1.05891
1.63855
1.40004
1.84266
1.8445
1.40001
1.66898
1.84563
1.84134
1.39842
1.84405
1.82941
1.03533
1.40001
1.40001
1.39718
1.40001
1.83998
1.40001
1.05928
1.83915
1.40001
1.40001
1.79166
1.40001
1.84306
1.40001
1.83968
1.40001
1.06759
1.40001
1.40001
1.8407
1.84482
1.84769
1.40001
1.84074
1.8418
1.83483
1.40001
1.40001
1.84213
1.4
1.12122
1.40001
1.40001
1.40001
1.84145
1.40001
1.84133
1.68931
1.84102
1.40001
1.84233
1.39938
1.40001
1.40001
1.40001
1.40001
1.40001
1.40001
1.11896
1.40001
1.40001
1.8418
1.40001
1.8407
1.84744
1.40001
1.04538
1.03759
1.40001
1.84342
1.4767
1.03557
1.01592
1.40001
1.8434
1.40001
1.84516
1.03995
1.40074
1.40001
1.40001
1.3995
1.40001
1.40001
1.40001
1.39992
1.58046
1.8415
1.40001
1.40001
1.84284
1.65731
1.40001
1.79168
1.84067
1.84336
1.58411
1.84512
1.40001
1.84171
1.40001
1.82444
1.40001
1.84187
1.84153
1.39719
1.84148
1.84637
1.40001
1.40001
1.40001
1.40001
1.40001
1.3036
1.84016
1.40005
1.40003
1.06057
1.39999
1.03854
1.02973
1.40001
1.84057
1.84292
1.8425
1.40001
1.84183
1.40001
1.03565
1.40001
1.40001
1.84331
1.22199
1.84023
1.40001
1.84089
1.40001
1.38345
1.84143
1.40001
1.40001
1.40001
1.8407
1.40001
1.84236
1.03823
1.40001
1.40001
1.65435
1.40001
1.40001
1.63836
1.40001
1.40001
1.84127
1.40001
1.40001
1.40001
1.40001
1.40001
1.84941
1.84162
1.40001
1.84016
1.84189
1.03339
1.60604
1.84043
1.40001
1.40001
1.79761
1.39899
1.40001
1.40001
1.84172
1.83946
1.7062
1.40001
1.84171
1.02591
1.80312
1.39938
1.40001
1.84109
1.40004
1.8412
1.76265
1.73744
1.40001
1.40001
1.8418
1.1019
1.04072
1.40001
1.84096
1.40001
1.84063
1.40001
1.66198
1.40001
1.40001
1.84082
1.68387
1.03748
1.40001
1.39809
1.40001
1.40001
1.42566
1.57525
1.84184
1.40001
1.84152
1.40001
1.40001
1.40001
1.40001
1.40001
1.40001
1.46716
1.04749
1.40001
1.40001
1.42713
1.40001
1.40001
1.40001
1.40001
1.40001
1.84164
1.40001
1.40001
1.8416
1.8411
1.72417
1.40001
1.40001
1.40001
1.22631
1.84499
1.71027
1.40001
1.40001
1.40001
1.40001
1.84095
1.40001
1.40001
1.40001
1.84003
1.40001
1.40001
1.71854
1.85035
1.43316
1.12948
1.84246
1.71378
1.84037
1.40001
1.62398
1.40001
1.40001
1.40001
1.05244
1.40191
1.06951
1.40001
1.04094
1.02587
1.40001
1.02834
1.40001
1.40001
1.40001
1.59695
1.40001
1.84294
1.84182
1.40152
1.62105
1.77042
1.04189
1.15547
1.27476
1.40001
1.84251
1.83925
1.84233
1.84172
1.7785
1.27565
1.40001
1.78141
1.40001
1.82369
1.40001
1.40001
1.39644
1.41004
1.40001
1.40001
1.40001
1.84006
1.40001
1.04367
1.40001
1.84361
1.03349
1.40001
1.40001
1.84152
1.40001
1.84179
1.39916
1.40001
1.40001
1.84275
1.78864
1.40001
1.85457
1.40001
1.40001
1.41484
1.40001
1.60572
1.40001
1.40001
1.0311
1.40001
1.40001
1.8418
1.4
1.83997
1.40001
1.40004
1.03312
1.40001
1.40001
1.03486
1.40081
1.40001
1.84044
1.03708
1.84612
1.04528
1.84106
1.40001
1.40001
1.40001
1.40001
1.4
1.40001
1.40001
1.40001
1.40001
1.40001
1.40001
1.82387
1.40001
1.84365
1.8396
1.04632
1.40001
1.40001
1.40001
1.40001
1.40001
1.40001
1.82939
1.40001
1.40001
1.03684
1.40001
1.40001
1.83942
1.40001
1.40001
1.55997
1.77002
1.03377
1.03097
1.09463
1.1344
1.40001
1.39645
1.06535
1.40039
1.81138
1.39698
1.40001
1.40001
1.8403
1.40001
1.40001
1.40001
1.1628
1.40002
1.55946
1.40001
1.40001
1.58161
1.84171
1.40001
1.03684
1.40001
1.40001
1.40001
1.3969
1.40001
1.84261
1.8418
1.40001
1.0489
1.40001
1.63797
1.03714
1.40001
1.28218
1.40001
1.39627
1.01266
1.40001
1.40001
1.40001
1.39617
1.03355
1.40001
1.03867
1.3984
1.63303
1.79154
1.03046
1.02963
1.40001
1.39041
1.40001
1.39866
1.40001
1.84258
1.84019
1.40001
1.41208
1.84066
1.84178
1.40001
1.40001
1.84163
1.40001
1.40001
1.40005
1.40001
1.84614
1.40001
1.40001
1.41833
1.40001
1.3986
1.09522
1.40001
1.40001
1.40001
1.40001
1.40001
1.83971
1.43039
1.40006
1.40001
1.40001
1.40001
1.40001
1.40001
1.40004
1.40001
1.0391
1.49218
1.39863
1.82611
1.83866
1.40001
1.41402
1.84101
1.77959
1.40001
1.40001
1.04562
1.8413
1.40001
1.84014
1.40001
1.83998
1.69926
1.03434
1.40001
1.03243
1.80555
1.39969
1.40001
1.04654
1.04757
1.40001
1.40001
1.77328
1.40001
1.4
1.03358
1.40001
1.40001
1.40001
1.53984
1.40001
1.04638
1.84168
1.40001
1.40001
1.40001
1.40001
1.84208
1.40001
1.40001
1.84484
1.79633
1.40001
1.40001
1.40001
1.84493
1.01232
1.40001
1.84105
1.84171
1.40001
1.75341
1.4
1.40004
1.40001
1.40001
1.81061
1.41248
1.40001
1.03585
1.64441
1.40001
1.40001
1.39736
1.40001
1.40001
1.8476
1.40001
1.40001
1.40003
1.40001
1.84131
1.40001
1.40001
1.40001
1.40001
1.40001
1.40001
1.40001
1.59525
1.40001
1.84102
1.40001
1.40001
1.84326
1.40001
1.40001
1.40001
1.84203
1.84636
1.44629
1.40001
1.39762
1.40001
1.40001
1.40001
1.40001
1.83964
1.40001
1.40001
1.84097
1.03724
1.40001
1.40001
1.40001
1.40001
1.40001
1.40001
1.7587
1.40001
1.40001
1.84509
1.83985
1.40001
1.40001
1.40001
1.84064
1.84045
1.40001
1.39967
1.84593
1.40001
1.40001
1.40001
1.40002
1.03994
1.43033
1.39623
1.39626
1.40001
1.40001
1.03005
1.83993
1.40001
1.05542
1.40001
1.84441
1.82345
1.03471
1.39942
1.84169
1.84069
1.84096
1.40001
1.40001
1.31445
1.79118
1.76957
1.05545
1.40001
1.40001
1.40001
1.84094
1.84161
1.02483
1.39737
1.40001
1.84167
1.03814
1.40001
1.83427
1.03859
1.37741
1.40606
1.40001
1.84736
1.40001
1.40001
1.40001
1.40001
1.40001
1.40001
1.40011
1.81117
1.40001
1.40001
1.84177
1.40001
1.40001
1.40001
1.84152
1.40001
1.03909
1.40001
1.40001
1.40001
1.55092
1.40001
1.40001
1.40001
1.40001
1.40001
1.17579
1.40001
1.03268
1.40001
1.84223
1.40009
1.25845
1.27374
1.40002
1.40425
1.63173
1.40001
1.40001
1.03146
1.84167
1.84221
1.84143
1.40001
1.03124
1.03183
1.40001
1.84117
1.40001
1.40001
1.40001
1.40001
1.40001
1.40004
1.40001
1.03124
1.6871
1.40001
1.40001
1.03079
1.38339
1.40001
1.40001
1.40001
1.40001
1.00998
1.40001
1.07139
1.40001
1.40001
1.847
1.40001
1.40001
1.04028
1.40001
1.84137
1.40001
1.03889
1.40001
1.03829
1.40001
1.40784
1.84034
1.85245
1.40001
1.40001
1.83878
1.40001
1.40001
1.49242
1.39681
1.40001
1.3982
1.40001
1.84549
1.40001
1.03445
1.40002
1.83836
1.39904
1.40001
1.40001
1.19705
1.40001
1.39897
1.03178
1.84217
1.56124
1.40001
1.40001
1.29731
1.40001
1.40001
1.40001
1.19427
1.40001
1.40001
1.40001
1.84178
1.40001
1.03256
1.4
1.40001
1.40001
1.40001
1.02679
1.84126
1.81717
1.03327
1.40001
1.83841
1.40001
1.40001
1.84215
1.84085
1.77166
1.03395
1.39771
1.39935
1.40001
1.84137
1.40001
1.40001
1.40001
1.40001
1.84211
1.40005
1.40001
1.40001
1.83963
1.40001
1.40001
1.84207
1.03575
1.40001
1.40001
1.40001
1.03283
1.40001
1.4
1.4
1.39861
1.40001
1.40001
1.40001
1.40001
1.74728
1.40001
1.84134
1.84019
1.8494
1.84243
1.84384
1.84162
1.40001
1.84338
1.40001
1.84201
1.84015
1.40001
1.39887
1.04672
1.7766
1.39992
1.40001
1.40001
1.40001
1.40001
1.39697
1.40001
1.46777
1.40001
1.40001
1.40001
1.23539
1.84216
1.84089
1.84418
1.79816
1.39987
1.40001
1.42116
1.84366
1.39795
1.45791
1.39712
1.03034
1.40001
1.40003
1.40001
1.40001
1.40001
1.40001
1.40001
1.84126
1.04003
1.84126
1.84152
1.39465
1.03133
1.40001
1.40001
1.40001
1.84213
1.03214
1.79092
1.01912
1.84157
1.84441
1.03812
1.84473
1.42325
1.40001
1.84562
1.18696
1.40001
1.39872
1.02369
1.40001
1.02728
1.40001
1.84173
1.84385
1.15236
1.40001
1.84081
1.02625
1.40001
1.03112
1.40001
1.84215
1.40001
1.40001
1.82901
1.40001
1.23495
1.40001
1.39969
1.027
1.83829
1.39949
1.40001
1.04278
1.40001
1.40001
1.40001
1.40001
1.63955
1.40001
1.84129
1.40001
1.40001
1.84964
1.40001
1.40001
1.84102
1.40001
1.03029
1.40001
1.02371
1.40002
1.40001
1.40001
1.40001
1.40001
1.82242
1.66147
1.84175
1.40001
1.8418
1.81089
1.02235
1.03044
1.40001
1.40001
1.84225
1.40001
1.0322
1.40001
1.38461
1.40001
1.40001
1.84089
1.40001
1.83976
1.02682
1.84405
1.40001
1.02834
1.40001
1.40001
1.84363
1.84009
1.40001
1.40004
1.40001
1.84318
1.40001
1.40001
1.01345
1.39938
1.04653
1.40001
1.40001
1.40001
1.84347
1.84353
1.83971
1.40001
1.40001
1.05008
1.40001
1.84134
1.40001
1.40001
1.40001
1.82302
1.84152
1.84248
1.03568
1.84535
1.84178
1.0437
1.83938
1.40005
1.04448
1.40989
1.40001
1.40001
1.84219
1.04071
1.68472
1.04032
1.84169
1.39756
1.03178
1.84458
1.40001
1.40001
1.40001
1.40001
1.84228
1.83951
1.03658
1.40001
1.40003
1.03776
1.40004
1.40001
1.03333
1.04029
1.71069
1.84227
1.39849
1.842
1.40001
1.84844
1.20142
1.03737
1.84146
1.84484
1.40001
1.84197
1.40001
1.40001
1.84106
1.40001
1.74924
1.83911
1.40001
1.40001
1.40001
1.40001
1.84241
1.83666
1.84458
1.40001
1.40001
1.84456
1.84165
1.84107
1.40001
1.84192
1.40001
1.40001
1.40001
1.40001
1.40001
1.03508
1.23774
1.03078
1.40001
1.40001
1.84323
1.40001
1.40001
1.84227
1.03276
1.40001
1.84194
1.83716
1.82354
1.03333
1.40001
1.03979
1.40001
1.40003
1.84124
1.61663
1.83964
1.80399
1.40001
1.05096
1.40001
1.84408
1.71493
1.02617
1.40001
1.40001
1.40001
1.18303
1.40001
1.40001
1.84503
1.40001
1.01911
1.84196
1.40001
1.40001
1.40001
1.40001
1.40001
1.75753
1.50419
1.40001
1.84131
1.40001
1.84166
1.40001
1.3975
1.40001
1.84176
1.84174
1.84103
1.84666
1.39961
1.83983
1.40001
1.84231
1.84082
1.77447
1.40001
1.40001
1.03313
1.83965
1.40001
1.40001
1.84101
1.84202
1.839
1.40001
1.84165
1.40001
1.40001
1.40004
1.84387
1.84113
1.53225
1.49582
1.84183
1.84054
1.06745
1.40001
1.40001
1.40001
1.40001
1.40003
1.55927
1.40001
1.40001
1.76278
1.04564
1.39999
1.40001
1.84116
1.3999
1.39983
1.46044
1.79718
1.83893
1.30286
1.40001
1.03674
1.40001
1.39776
1.84187
1.84329
1.84491
1.39906
1.40001
1.40001
1.02454
1.40001
1.40001
1.84156
1.44956
1.40001
1.40001
1.40001
1.40001
1.40001
1.40001
1.40001
1.39994
1.84067
1.40002
1.40001
1.40001
1.40001
1.40001
1.68429
1.40001
1.61013
1.40001
1.40001
1.84176
1.8449
1.03569
1.39879
1.40001
1.4
1.40001
1.03455
1.84007
1.84232
1.40001
1.40001
1.40001
1.40001
1.40001
1.40001
1.40001
1.40001
1.8411
1.84576
1.03847
1.4489
1.03097
1.40001
1.02666
1.40001
1.8421
1.51801
1.40001
1.40001
1.09647
1.40001
1.82309
1.2051
1.39676
1.03524
1.40001
1.40001
1.83958
1.40005
1.39731
1.01026
1.83984
1.85036
1.40001
1.40001
1.40001
1.40001
1.81253
1.40001
1.40001
1.84193
1.399
1.84087
1.40001
1.40001
1.40001
1.02297
1.40001
1.40001
1.84308
1.02538
1.17338
1.0263
1.84176
1.39928
1.40001
1.83945
1.03451
1.03104
1.40857
1.40001
1.40001
1.83925
1.40005
1.59796
1.40001
1.40001
1.84077
1.03648
1.40001
1.40001
1.40013
1.84072
1.40015
1.84524
1.40001
1.40004
1.40001
1.40001
1.12341
1.40001
1.17375
1.40001
1.40001
1.84015
1.02673
1.40001
1.17852
1.17548
1.40001
1.40001
1.84284
1.40001
1.40001
1.40001
1.84139
1.84233
1.40006
1.83125
1.83889
1.1833
1.84168
1.82482
1.40001
1.40001
1.84362
1.4
1.40001
1.40001
1.40001
1.40001
1.8383
1.84158
1.40001
1.40001
1.40001
1.84291