/*--------------------------------*- C++ -*----------------------------------*\
  =========                 |
  \\      /  F ield         | OpenFOAM: The Open Source CFD Toolbox
   \\    /   O peration     | Website:  https://openfoam.org
    \\  /    A nd           | Version:  12
     \\/     M anipulation  |
\*---------------------------------------------------------------------------*/
FoamFile
{
    format      ascii;
    class       volScalarField;
    location    "4.24";
    object      rho;
}
// * * * * * * * * * * * * * * * * * * * * * * * * * * * * * * * * * * * * * //

dimensions      [1 -3 0 0 0 0 0];

internalField   nonuniform List<scalar> 
22702
(
1.40001
1.40001
1.25904
1.40001
1.45017
1.40001
1.83952
1.40001
1.40001
1.02434
1.83849
1.83986
1.40001
1.84383
1.284
1.40001
1.40001
1.40001
1.84024
1.40001
1.84205
1.40001
1.83886
1.01346
1.83387
1.02942
1.40001
1.83551
1.02053
1.00994
1.40001
1.84025
1.40001
1.40001
1.40001
1.80917
1.8368
1.83868
1.40001
1.40001
0.996916
1.40001
1.622
1.40001
1.83405
1.40001
1.40001
1.40001
1.40001
1.02282
1.40001
1.01759
1.40001
1.83803
1.40001
1.83875
1.40001
1.40001
1.40001
1.40001
1.05059
1.40001
1.40001
1.07402
1.40001
1.03729
1.40001
1.40001
1.40001
1.01426
1.40001
1.84196
1.67096
1.40001
1.84185
1.86643
1.02053
1.84197
1.02292
1.40001
1.83899
1.02934
1.83711
1.8376
1.40001
1.40001
1.40001
1.40001
1.32282
1.02558
1.84213
1.40001
1.40001
1.05464
1.40001
1.84227
1.05503
1.40001
1.40001
1.40001
1.40001
1.62252
1.83949
1.01273
1.40001
1.40001
1.50588
1.40001
1.02712
1.40001
1.84145
1.8381
1.40001
1.40001
1.02932
1.0386
1.03395
1.40001
1.40001
1.40001
1.40001
1.40001
1.30964
1.40001
1.77796
1.43657
1.84197
1.40001
1.84221
1.84037
1.84367
1.83757
1.40001
1.01623
1.40001
1.06102
1.40001
1.40001
1.40001
1.40001
1.8384
1.40001
1.40001
1.40001
1.40001
1.84282
1.40001
1.42709
1.40001
1.40001
1.40001
1.40001
1.02315
1.40001
1.41056
1.40001
1.02325
1.40001
1.40001
1.40001
1.84011
1.40001
1.84213
1.04346
1.03425
1.84177
1.84084
1.40001
1.47494
1.65379
1.40001
1.83579
1.02251
1.81005
1.40001
1.40001
1.40001
1.40001
1.84519
1.76756
1.40001
1.83778
1.08594
1.83706
1.40001
1.03197
1.40001
1.01741
1.03226
1.39978
1.40001
1.40001
1.83766
1.40001
1.40001
1.84258
1.40001
1.83747
1.83719
1.03287
1.40001
1.40001
1.02933
1.84168
1.40001
1.40001
1.40001
1.84188
1.40001
1.05589
1.40001
1.40001
1.84192
1.84207
1.83928
1.40001
1.40005
1.40001
1.40001
1.40001
1.8423
1.40001
1.05941
1.8574
1.84175
1.84486
1.40001
1.40001
1.40001
1.0175
1.84225
1.61416
1.40001
1.84299
1.0514
1.05579
1.84313
1.84388
1.40001
1.84425
1.00963
1.79073
1.40001
1.40001
1.40001
1.40001
1.84219
1.40001
1.65766
1.44308
1.40001
1.40001
1.84144
1.07003
1.1725
1.40001
1.8426
1.02922
1.84025
1.40001
1.40001
1.40001
1.40001
1.40001
1.40001
1.40001
1.0209
1.15336
1.05768
1.84139
1.40001
1.40001
1.40001
1.40001
1.80285
1.40001
1.02223
1.40001
1.00548
1.02854
1.84177
1.03282
1.84222
1.40001
1.40001
1.40001
1.39759
1.03453
1.00999
1.4
1.40001
1.00482
1.40001
1.83999
1.01706
1.40001
1.40001
1.8393
1.03116
1.40001
1.8367
1.03928
1.84177
1.40001
1.01106
1.39774
1.40001
1.40001
1.40001
1.02597
1.40001
1.40001
1.4
1.40001
1.40805
1.67132
1.40001
1.05882
1.40001
1.40001
1.40001
1.40001
1.40001
1.40001
1.40001
1.83922
1.40001
1.83955
1.40001
1.40001
1.40001
1.0348
1.40001
1.84244
1.03642
1.40001
1.75451
1.40001
1.40001
1.84011
1.40001
1.40001
1.40001
1.82777
1.40001
1.40001
1.83447
1.83923
1.40001
1.49717
1.40001
1.40001
1.06199
1.40001
1.40001
1.40001
1.06749
1.40001
1.40001
1.40001
1.40001
1.04897
1.40001
1.40001
1.40001
1.40001
1.40001
1.01583
1.40007
1.8421
1.40001
1.39999
1.84169
1.84095
1.40001
1.40001
1.03865
1.21432
1.83713
1.40001
1.40001
1.40001
1.84169
1.01165
1.40001
1.84214
1.40001
1.40001
1.1058
1.10441
1.40001
1.04139
1.03634
1.40001
1.40001
1.40001
1.40001
1.40001
1.40001
1.40001
1.84195
1.50332
1.81248
1.0263
1.30365
1.83915
1.40001
1.84254
1.83741
1.04832
1.1785
1.40001
1.04527
1.40001
1.85255
1.40001
1.40001
1.40001
1.40001
1.84193
1.40001
1.40001
1.40001
1.40001
1.40001
1.40001
1.40001
1.55805
1.83854
1.40001
1.84166
1.40001
1.40001
1.03004
1.40001
1.40001
1.40001
1.40001
1.84191
1.73535
1.40001
1.40001
1.04052
1.84106
1.84198
1.40001
1.84179
1.84197
1.84183
1.40001
1.2245
1.40001
1.84278
1.37917
1.8418
1.40001
1.05422
1.39895
1.83879
1.40001
1.40001
1.40001
1.40001
1.02786
1.84182
1.80065
1.40001
1.84259
1.8423
1.83866
1.40001
1.60413
1.84703
1.40001
1.40001
1.70921
1.46736
1.84189
1.32456
1.8421
1.40001
1.84197
1.84158
1.84207
1.84086
1.40001
1.82274
1.30661
1.28506
1.40001
1.4
1.40001
1.40001
1.8447
1.40001
1.40001
1.40001
1.40001
1.40001
1.84028
1.40001
1.40001
1.39597
1.84192
1.8063
1.40001
1.77289
1.40005
1.40001
1.40001
1.84099
1.40001
1.3966
1.4049
1.40001
1.84193
1.40001
1.84187
1.40001
1.40001
1.72867
1.40001
1.84113
1.40003
1.40001
1.84067
1.40001
1.84184
1.40001
1.40001
1.40001
1.84227
1.40001
1.84197
1.40001
1.84206
1.84334
1.84162
1.8402
1.40001
1.83627
1.84654
1.40001
1.01219
1.81542
1.72023
1.40001
1.84211
1.40001
1.06882
1.04574
1.40001
1.40001
1.40001
1.40001
1.40001
1.05629
1.40001
1.84165
1.51881
1.84112
1.40001
1.40001
1.40001
1.40001
1.40001
1.84144
1.40001
1.84847
1.66031
1.17739
1.40001
1.40002
1.52636
1.51289
1.40001
1.40001
1.56003
1.40001
1.02239
1.84157
1.84172
1.40001
1.40001
1.40001
1.84441
1.40001
1.40003
1.84828
1.84195
1.34787
1.40001
1.40001
1.02561
1.801
1.40001
1.40001
1.40001
1.40001
1.40001
1.84205
1.83655
1.40001
1.84103
1.84056
1.8418
1.40001
1.40001
1.40001
1.40001
1.02208
1.83741
1.40001
1.40001
1.8011
1.84155
1.40001
1.81574
1.84059
1.40001
1.40001
1.40001
1.40001
1.40001
1.84182
1.40001
1.40001
1.40001
1.40001
1.84344
1.40001
1.83587
1.02902
1.40001
1.05077
1.40001
1.40001
1.40001
1.39656
1.02064
1.39909
1.40001
1.40001
1.40001
1.46034
1.40001
1.40001
1.26782
1.40001
1.40001
1.40001
1.40001
1.40001
1.40001
1.40001
1.4
1.32191
1.4
1.40001
1.39746
1.40001
1.03058
1.40001
1.40001
1.40001
1.40001
1.73022
1.40001
1.40001
1.40001
1.40001
1.03737
1.40001
1.40001
1.81693
1.83828
1.4
1.40001
1.40001
1.28386
1.40001
1.40001
1.40001
1.40001
1.40001
1.40001
1.3497
1.40675
1.84179
1.40001
1.40001
1.40001
1.84408
1.29411
1.40001
1.40001
1.40001
1.83704
1.83666
1.40001
1.40001
1.40001
1.40001
1.40001
1.40001
1.40001
1.40001
1.40001
1.03886
1.40001
1.40001
1.83914
1.05447
1.40001
1.83822
1.40001
1.02422
1.40001
1.40001
1.03967
1.40001
1.40001
1.40001
1.40001
1.40001
1.40001
1.40001
1.83397
1.84178
1.40001
1.40001
1.40001
1.40001
1.80209
1.40001
1.54214
1.03056
1.40001
1.40001
1.40001
1.40001
1.40001
1.40001
1.40001
1.43488
1.40001
1.40001
1.62399
1.40001
1.40001
1.40001
1.76465
1.40001
1.40001
1.40001
1.40001
1.03287
1.40001
1.40001
1.01802
1.04002
1.40001
1.40001
1.84267
1.40001
1.3923
1.40001
1.40001
1.40001
1.71025
1.03771
1.40001
1.03171
1.40001
1.1783
1.40001
1.40001
1.40001
1.84027
1.40001
1.40001
1.84244
1.40001
1.40001
1.40001
1.8424
1.40001
1.40001
1.84209
1.40001
1.40001
1.04856
1.40001
1.54145
1.40001
1.40001
1.83755
1.84031
1.69732
1.79579
1.40001
1.04876
1.40001
1.40001
1.82219
1.40001
1.02411
1.40001
1.40001
1.40001
1.84182
1.40001
1.40001
1.40001
1.40001
1.66346
1.40001
1.83959
1.8454
1.04373
1.40001
1.40001
1.01879
1.03965
1.40001
1.40001
1.40001
1.71622
1.73414
1.40001
1.40001
1.40001
1.40001
1.40001
1.40001
1.40001
1.58794
1.83646
1.40211
1.40001
1.83604
1.01676
1.40001
1.40001
1.40001
1.64181
1.40001
1.48832
1.40001
1.80284
1.84015
1.40001
1.05766
1.40001
1.83616
1.40001
1.40001
1.84234
1.8141
1.40001
1.84066
1.40001
1.08373
1.40001
1.40001
1.40001
1.84909
1.83362
1.7889
1.40001
1.83918
1.84096
1.40001
1.84218
1.40001
1.8402
1.40001
1.03054
1.37207
1.02429
1.40001
1.40001
1.40001
1.40001
1.40001
1.84135
1.40001
1.84128
1.40001
1.40001
1.40001
1.81972
1.40001
1.02437
1.84235
1.40001
1.0171
1.06676
1.04251
1.40001
1.62054
1.43715
1.84304
1.84163
1.40001
1.4
1.40001
1.40001
1.84166
1.40001
1.40001
1.84158
1.8406
1.40001
1.55021
1.39983
1.40001
1.39685
1.84302
1.24359
1.40001
1.21712
1.02289
1.02356
1.3696
1.83918
1.83613
1.488
1.84168
1.84134
1.40001
1.40001
1.84217
1.83927
1.84312
1.83764
1.40001
1.84197
1.00915
1.84391
1.83931
1.84044
1.84108
1.26312
1.28839
1.31951
1.8434
1.35753
1.84225
1.40001
1.40001
1.8433
1.84254
1.40001
1.04946
1.8401
1.84125
1.40001
1.84213
1.84197
1.40001
1.84156
1.02868
1.84076
1.83914
1.83671
1.84675
1.40001
1.40001
1.40001
1.84196
1.68803
1.05471
1.84209
1.01479
1.84271
1.40001
1.40001
1.40001
1.40001
1.84585
1.84199
1.40001
1.40001
1.84149
1.02058
1.84204
1.0294
1.40001
1.83883
1.40001
1.01874
1.84363
1.1236
1.40001
1.84222
1.84461
1.8414
1.40001
1.40001
1.61297
1.84354
1.02513
1.84109
1.40001
1.84269
1.27305
1.84246
1.03945
1.40001
1.84255
1.07795
1.84343
1.03049
1.40001
1.84198
1.40001
1.83875
1.40001
1.65785
1.82612
1.74607
1.03981
1.40001
1.84234
1.40001
1.84261
1.40001
1.84195
1.40001
1.40001
1.84266
1.37838
1.8444
1.04589
1.7989
1.40001
1.71265
1.40001
1.84067
1.84148
1.84036
1.40001
1.79687
1.84007
1.80911
1.66697
1.83832
1.40001
1.69632
1.40001
1.84276
1.40001
1.4597
1.40001
1.80828
1.40001
1.84218
1.8219
1.82053
1.40001
1.83388
1.03967
1.40001
1.03535
1.40001
1.40001
1.40001
1.84045
1.40001
1.84218
1.40001
1.40001
1.40001
1.84215
1.82515
1.77167
1.84113
1.83804
1.04848
1.83745
1.83499
1.40001
1.79284
1.84115
1.81791
1.40001
1.83548
1.8384
1.40001
1.84657
1.84201
1.84226
1.84331
1.40001
1.40001
1.40001
1.84297
1.03157
1.40001
1.84195
1.40001
1.40001
1.0595
1.40001
1.40001
1.84156
1.84219
1.40001
1.84147
1.83578
1.84191
1.37192
1.84213
1.40001
1.84205
1.84203
1.76491
1.40001
1.40001
1.40001
1.84112
1.84222
1.84295
1.34456
1.40001
1.84485
1.84222
1.84185
1.40001
1.8422
1.84218
1.84185
1.8469
1.40001
1.84131
1.84057
1.77882
1.84222
1.84612
1.40001
1.84533
1.83775
1.84275
1.8407
1.84301
1.03221
1.84258
1.84124
1.40001
1.84249
1.84196
1.84224
1.84245
1.40001
1.84216
1.84098
1.40001
1.84102
1.77348
1.40001
1.40001
1.40001
1.84293
1.84904
1.40001
1.40001
1.64118
1.40001
1.84167
1.40001
1.40001
1.84146
1.84318
1.84256
1.84101
1.40001
1.40001
1.40001
1.70204
1.40001
1.84118
1.40001
1.40001
1.84365
1.83833
1.40001
1.84142
1.00849
1.84187
1.83946
1.09309
1.40001
1.01639
1.77741
1.84155
1.83799
1.83902
1.04077
1.84031
1.84139
1.04023
1.01377
1.40001
1.84366
1.84216
1.40001
1.40001
1.84321
1.40001
1.84025
1.40001
1.78681
1.40001
1.60606
1.84228
1.84451
1.7045
1.80622
1.83821
1.84265
1.81538
1.40001
1.01777
1.84098
1.84147
1.8448
1.40002
1.40001
1.40001
1.84696
1.40001
1.84194
1.84188
1.14084
1.40001
1.8422
1.39994
1.40001
1.40003
1.40005
1.84151
1.84037
1.39849
1.40001
1.40001
1.84269
1.84372
1.84275
1.8434
1.84119
1.04372
1.78642
1.40001
1.83882
1.84253
1.84236
1.84207
1.40001
1.84144
1.82981
1.84302
1.40001
1.84267
1.84219
1.24909
1.84125
1.84279
1.40001
1.84281
1.23268
1.8424
1.2528
1.84138
1.40001
1.84204
1.84713
1.84146
1.84197
1.84204
1.83796
1.84239
1.8398
1.40001
1.32714
1.84237
1.84129
1.23887
1.84125
1.37347
1.67132
1.84232
1.84174
1.84536
1.40001
1.84425
1.69125
1.84191
1.30788
1.84417
1.84857
1.40001
1.26302
1.40001
1.84194
1.40001
1.70273
1.40001
1.81127
1.26434
1.40001
1.84739
1.8467
1.40001
1.84418
1.84328
1.84532
1.84478
1.84899
1.40001
1.83862
1.40001
1.40001
1.40001
1.29213
1.84097
1.84093
1.8382
1.84131
1.83912
1.83979
1.83493
1.84204
1.2957
1.43207
1.40001
1.40001
1.8469
1.84169
1.84195
1.84168
1.40003
1.6258
1.40001
1.84578
1.78794
1.40001
1.40001
1.13098
1.84234
1.40001
1.40001
1.01096
1.8419
1.40001
1.83452
1.84165
1.83805
1.82515
1.84146
1.40001
1.04367
1.50602
1.84252
1.84207
1.40001
1.84098
1.84157
1.62526
1.41174
1.50121
1.40001
1.83857
1.84186
1.40001
1.40001
1.05947
1.40001
1.40001
1.84119
1.84177
1.84112
1.84354
1.84186
1.84489
1.8419
1.83885
1.84156
1.40001
1.39616
1.84293
1.84267
1.39686
1.84181
1.8417
1.06099
1.02855
1.83808
1.84192
1.40001
1.40001
1.40159
1.84288
1.84202
1.84167
1.40001
1.84159
1.40001
1.253
1.84553
1.84737
1.40001
1.59671
1.84061
1.40001
1.83975
1.40001
1.84126
1.69479
1.84393
1.40001
1.84138
1.83273
1.05365
1.8433
1.40001
1.84286
1.83709
1.40001
1.05823
1.84509
1.77498
1.3975
1.8289
1.84199
1.40001
1.39647
1.84722
1.39812
1.84136
1.40001
1.40001
1.84204
1.40001
1.84321
1.84176
1.39644
1.7476
1.40001
1.84174
1.40001
1.40001
1.40001
1.40001
1.84166
1.40001
1.40001
1.84176
1.40001
1.84197
1.40001
1.68474
1.83842
1.8408
1.40001
1.40001
1.3978
1.40001
1.84174
1.84303
1.84368
1.8423
1.84199
1.84287
1.84219
1.40001
1.84234
1.84011
1.40001
1.84211
1.84072
1.40001
1.84285
1.31965
1.45825
1.84241
1.84212
1.8422
1.40001
1.84137
1.40001
1.84155
1.84241
1.40001
1.84003
1.40001
1.40001
1.40001
1.40001
1.84121
1.02958
1.39787
1.40001
1.84221
1.84656
1.40001
1.8417
1.40001
1.40511
1.01501
1.84191
1.39961
1.40001
1.84434
1.3983
1.84207
1.40001
1.39977
1.40001
1.84227
1.8451
1.84401
1.84001
1.02421
1.84265
1.84273
1.84259
1.51457
1.40001
1.40001
1.59061
1.84183
1.0195
1.01798
1.40001
1.84252
1.84049
1.84007
1.40001
1.40001
1.84185
1.84225
1.39989
1.40001
1.72003
1.00955
1.40001
1.47813
1.83891
1.83458
1.39828
1.84119
1.84532
1.40001
1.39887
1.40001
1.84116
1.84187
1.57719
1.40001
1.83786
1.40001
1.40259
1.84075
1.0106
1.84184
1.84152
1.39706
1.39992
1.77873
1.40001
1.39969
1.40001
1.84228
1.40001
1.40002
1.00657
1.84195
1.40001
1.40001
1.40001
1.40001
1.84981
1.65093
1.40001
1.40001
1.02426
1.84165
1.653
1.40001
1.40001
1.40001
1.82063
1.83024
1.84101
1.40001
1.40001
1.84274
1.40001
1.84187
1.84238
1.40001
1.40001
1.84302
1.84138
1.81858
1.40001
1.40001
1.84324
1.84422
1.40001
1.40001
1.40001
1.84234
1.40001
1.40001
1.40001
1.84203
1.84331
1.84481
1.40001
1.84915
1.40004
1.08906
1.84207
1.84203
1.40001
1.84333
1.82216
1.8409
1.40001
1.40001
1.84278
1.40001
1.6411
1.84049
1.40001
1.06569
1.40001
1.84297
1.40001
1.40001
1.84101
1.40001
1.40001
1.40001
1.53707
1.84056
1.06976
1.40002
1.84386
1.40001
1.40001
1.84077
1.40001
1.84232
1.40001
1.40001
1.84165
1.84156
1.40001
1.40006
1.40001
1.40001
1.40001
1.40001
1.40001
1.40001
1.84093
1.84187
1.40001
1.83519
1.04229
1.84808
1.40001
1.84159
1.84413
1.84198
1.84454
1.83855
1.40001
1.40001
1.84404
1.40001
1.68115
1.84583
1.84081
1.40001
1.84673
1.84343
1.40001
1.81105
1.40001
1.84159
1.68425
1.84197
1.3975
1.83527
1.80625
1.84431
1.84278
1.43701
1.84134
1.84479
1.40001
1.84176
1.40001
1.8421
1.40001
1.40001
1.40001
1.40001
1.39651
1.84149
1.84205
1.77078
1.40001
1.84365
1.40001
1.40001
1.40001
1.01355
1.40001
1.83205
1.40001
1.80097
1.81633
1.40001
1.40001
1.40001
1.80899
1.84277
1.40001
1.40001
1.84375
1.0332
1.47542
1.40001
1.84263
1.84141
1.80249
1.83272
1.84139
1.40001
1.84138
1.40001
1.40001
1.40001
1.40001
1.84036
1.841
1.40001
1.8252
1.45403
1.84239
1.81124
1.40001
1.40001
1.8132
1.40001
1.40001
1.08303
1.70633
1.40001
1.40001
1.84778
1.40001
1.84484
1.80318
1.40001
1.80178
1.03398
1.84016
1.84089
1.8427
1.40001
1.05071
1.40001
1.40001
1.40001
1.84239
1.76518
1.40001
1.85048
1.84092
1.40001
1.84191
1.40001
1.40001
1.40001
1.40001
1.84108
1.39937
1.40001
1.84308
1.40001
1.40001
1.84102
1.84115
1.40001
1.84502
1.4848
1.40003
1.40001
1.84186
1.40001
1.84237
1.40001
1.415
1.84184
1.40001
1.84207
1.40001
1.40001
1.53501
1.84084
1.40001
1.40001
1.40001
1.40001
1.40001
1.39608
1.04768
1.0396
1.42082
1.40001
1.42068
1.40001
1.42018
1.40001
1.84196
1.40001
1.66151
1.40001
1.84191
1.40001
1.40001
1.40001
1.84192
1.40001
1.7533
1.8417
1.40001
1.63734
1.84184
1.40001
1.40001
1.84013
1.84082
1.40001
1.40001
1.44926
1.03832
1.40001
1.84179
1.40001
1.40001
1.40001
1.40001
1.4753
1.84218
1.40001
1.40001
1.40001
1.0847
1.40001
1.84166
1.84201
1.84542
1.40001
1.40001
1.40001
1.40001
1.62152
1.84145
1.40001
1.40001
1.40001
1.84275
1.84013
1.4536
1.40001
1.40001
1.40001
1.84062
1.84048
1.40001
1.06328
1.84239
1.84131
1.84106
1.8421
1.84584
1.40001
1.40001
1.83888
1.84526
1.84147
1.07531
1.4406
1.84093
1.40001
1.40001
1.40001
1.40001
1.40001
1.8416
1.02165
1.40001
1.40001
1.8414
1.60315
1.40001
1.83824
1.40001
1.40001
1.40001
1.03029
1.40001
1.40001
1.51328
1.84243
1.84239
1.40001
1.84082
1.8412
1.40001
1.47587
1.40001
1.84336
1.40001
1.84191
1.03367
1.40001
1.40001
1.40001
1.40001
1.84207
1.40008
1.40001
1.40001
1.40001
1.83384
1.40001
1.40001
1.40001
1.40001
1.8421
1.03346
1.7488
1.84245
1.40001
1.84231
1.40001
1.40001
1.40001
1.39704
1.40001
1.84761
1.40001
1.20688
1.40001
1.40001
1.40004
1.84121
1.01306
1.40001
1.84097
1.40001
1.84029
1.84135
1.03851
1.40001
1.40001
1.81763
1.40001
1.40001
1.07894
1.40001
1.83256
1.40001
1.82161
1.39933
1.84125
1.40001
1.40001
1.40001
1.40001
1.83703
1.40001
1.40001
1.8428
1.40001
1.40001
1.40001
1.40001
1.40001
1.40001
1.40001
1.40001
1.68926
1.40001
1.54757
1.84138
1.40001
1.40001
1.40001
1.04772
1.40001
1.40001
1.40001
1.40001
1.84529
1.84222
1.45556
1.40001
1.40001
1.84371
1.40001
1.40001
1.84034
1.40001
1.40002
1.40001
1.40001
1.40001
1.40002
1.84018
1.18238
1.84196
1.84313
1.39723
1.40001
1.40001
1.40001
1.6614
1.40001
1.40001
1.84152
1.84151
1.40001
1.40001
1.40001
1.40001
0.986039
1.40001
1.40001
1.40001
1.6752
1.40001
1.84194
1.84528
1.40001
1.84403
1.40001
1.40001
1.40001
1.63387
1.40001
1.83766
1.40001
1.84071
1.40001
1.40001
1.39627
1.84001
1.40001
1.40001
1.40001
1.40001
1.40001
1.83984
1.40003
1.40001
1.08706
1.8453
1.08875
1.40001
1.84369
1.40001
1.39592
1.40001
1.84346
1.83972
1.40001
1.83896
1.26021
1.8421
1.85366
1.40004
1.40001
1.40001
1.04131
1.40001
1.40001
1.40001
1.84218
1.65271
1.84562
1.40001
1.40001
1.40001
1.40001
1.39688
1.84284
1.40001
1.04683
1.40001
1.40001
1.40001
1.40001
1.40001
1.40001
1.40001
1.84703
1.84392
1.84132
1.40001
1.40001
1.39689
1.40001
1.37837
1.40001
1.40001
1.40001
1.0108
1.37734
1.40001
1.02974
1.04516
1.40001
1.84278
1.84202
1.40001
1.84506
1.84222
1.04698
1.69827
1.40001
1.40001
1.40001
1.04447
1.84189
1.40001
1.04248
1.40001
1.83605
1.47684
1.40001
1.40001
1.40001
1.40001
1.84311
1.84061
1.40001
1.40001
1.8411
1.40001
1.40001
1.8392
1.84117
1.40001
1.80165
1.84354
1.84033
1.35448
1.8452
1.40868
1.04543
1.73808
1.84317
1.40001
1.40001
1.40001
1.01341
1.40001
1.04738
1.84382
1.35522
1.84095
1.35171
1.40001
1.84242
1.60096
1.40001
1.40001
1.8419
1.40001
1.5741
1.84378
1.40001
1.40001
1.84038
1.83959
1.05038
1.65669
1.3999
1.40001
1.67126
1.40001
1.84713
1.33539
1.85206
1.84646
1.40001
1.40001
1.40001
1.40001
1.82801
1.40001
1.40001
1.84397
1.39965
1.84175
1.76001
1.84134
1.03831
1.40001
1.40001
1.40001
1.40001
1.84119
1.40005
1.84178
1.40001
1.84113
1.84157
1.45786
1.8499
1.53323
1.84192
1.40001
1.69997
1.0599
1.84795
1.84162
1.74989
1.47696
1.84084
1.84192
1.84205
1.84331
1.40001
1.32703
1.46701
1.40001
1.8418
1.61106
1.84152
1.40004
1.40001
1.40001
1.0971
1.84265
1.84129
1.75943
1.40001
1.56682
1.40001
1.84482
1.84745
1.40001
1.84433
1.84132
1.40001
1.40001
1.40001
1.8436
1.40001
1.5772
1.84642
1.70887
1.40001
1.83975
1.40001
1.40001
1.40001
1.40001
1.40001
1.40001
1.40001
1.40001
1.40001
1.40001
1.08269
1.40001
1.80251
1.02579
1.66374
1.39859
1.84368
1.40001
1.63482
1.40002
1.68409
1.77331
1.40001
1.40221
1.83717
1.31315
1.40001
1.84719
1.84501
1.33399
1.40001
1.84042
1.84148
1.84413
1.40001
1.84148
1.84308
1.84008
1.40001
1.60347
1.40001
1.40006
1.84122
1.40001
1.84071
1.46579
1.84188
1.40001
1.40001
1.84544
1.84489
1.08661
1.40001
1.84209
1.72964
1.84094
1.40001
1.40001
1.84092
1.84399
1.39823
1.40001
1.80125
1.39694
1.84145
1.4001
1.40001
1.40001
1.40001
1.40001
1.60174
1.40001
1.75691
1.84149
1.72697
1.84386
1.40001
1.40308
1.40001
1.40001
1.83974
1.40001
1.83977
1.40001
1.40001
1.40001
1.40001
1.4
1.40001
1.45632
1.63081
1.40001
1.40001
0.986743
1.40001
1.84055
1.06429
1.8485
1.40001
1.61575
1.39975
1.84248
1.68285
1.04495
1.64089
1.40004
1.84155
1.83908
1.40001
1.6663
1.84377
1.84117
1.39842
1.84984
1.82949
1.02796
1.40001
1.40001
1.39776
1.40001
1.83604
1.40001
1.03827
1.84411
1.40001
1.40001
1.78653
1.40001
1.84118
1.40001
1.84186
1.40001
1.06954
1.40001
1.40001
1.83988
1.84247
1.84502
1.40001
1.84215
1.841
1.83307
1.40001
1.40001
1.83661
1.4
1.11133
1.40001
1.40001
1.40001
1.84066
1.40001
1.84168
1.68799
1.84103
1.40001
1.84206
1.39937
1.40001
1.40001
1.40001
1.40001
1.40001
1.40001
1.10714
1.40001
1.40001
1.84157
1.40001
1.84409
1.84003
1.40001
1.03628
1.03958
1.40001
1.84362
1.47793
1.03052
1.00163
1.40001
1.84373
1.40001
1.84011
1.03149
1.40171
1.40001
1.40001
1.39953
1.40001
1.40001
1.40001
1.39992
1.57561
1.84154
1.40001
1.40001
1.84334
1.65644
1.40001
1.8053
1.83977
1.84134
1.57569
1.82977
1.40001
1.84241
1.40001
1.82352
1.40001
1.83857
1.83956
1.39672
1.84049
1.84013
1.40001
1.40001
1.40001
1.40001
1.40001
1.31028
1.84072
1.40005
1.40003
0.990269
1.39999
1.01206
1.01113
1.40001
1.84288
1.84149
1.84157
1.40001
1.84241
1.40001
1.04083
1.40001
1.40001
1.84486
1.22598
1.83899
1.40001
1.83985
1.40001
1.37663
1.84266
1.40001
1.40001
1.40001
1.8411
1.40001
1.84098
1.04988
1.40001
1.40001
1.65258
1.40001
1.40001
1.63988
1.40001
1.40001
1.84022
1.40001
1.40001
1.40001
1.40001
1.40001
1.84703
1.84147
1.40001
1.84145
1.84215
1.02925
1.60316
1.84311
1.40001
1.40001
1.79676
1.39905
1.40001
1.40001
1.84175
1.84063
1.68085
1.40001
1.84352
1.03523
1.80548
1.39974
1.40001
1.84097
1.40004
1.83973
1.75891
1.7368
1.40001
1.40001
1.84169
1.1088
0.974177
1.40001
1.84196
1.40001
1.84225
1.40001
1.66023
1.40001
1.40001
1.84066
1.68745
1.04563
1.40001
1.39829
1.40001
1.40001
1.42538
1.57426
1.8417
1.40001
1.84829
1.40001
1.40001
1.40001
1.40001
1.40001
1.40001
1.4672
1.03998
1.40001
1.40001
1.42853
1.40001
1.40001
1.40001
1.40001
1.40001
1.84286
1.40001
1.40001
1.84245
1.84101
1.72616
1.40001
1.40001
1.40001
1.22988
1.83813
1.71232
1.40001
1.40001
1.40001
1.40001
1.84088
1.40001
1.40001
1.40001
1.84604
1.40001
1.40001
1.72035
1.85489
1.43534
1.12201
1.84136
1.71422
1.8391
1.40001
1.62475
1.40001
1.40001
1.40001
1.00031
1.40189
0.979109
1.40001
1.00516
1.01332
1.40001
1.04119
1.40001
1.40001
1.40001
1.59503
1.40001
1.84304
1.84202
1.4009
1.60909
1.78943
0.978437
1.14979
1.28125
1.40001
1.84056
1.83726
1.84028
1.8418
1.78058
1.26843
1.40001
1.78255
1.40001
1.8291
1.40001
1.40001
1.39657
1.4095
1.40001
1.40001
1.40001
1.84126
1.40001
0.98514
1.40001
1.84279
1.06445
1.40001
1.40001
1.84172
1.40001
1.84048
1.39918
1.40001
1.40001
1.84354
1.79702
1.40001
1.85815
1.40001
1.40001
1.414
1.40001
1.60366
1.40001
1.40001
1.03288
1.40001
1.40001
1.83834
1.4
1.84152
1.40001
1.40004
1.00962
1.40001
1.40001
1.00687
1.40082
1.40001
1.83773
1.03637
1.84787
1.03524
1.84134
1.40001
1.40001
1.40001
1.40001
1.4
1.40001
1.40001
1.40001
1.40001
1.40001
1.40001
1.82432
1.40001
1.84353
1.8393
1.02069
1.40001
1.40001
1.40001
1.40001
1.40001
1.40001
1.82921
1.40001
1.40001
1.04096
1.40001
1.40001
1.83681
1.40001
1.40001
1.56365
1.77249
1.02098
1.04618
1.0672
1.13811
1.40001
1.39676
0.984099
1.40032
1.81255
1.39689
1.40001
1.40001
1.84124
1.40001
1.40001
1.40001
1.1482
1.40002
1.56285
1.40001
1.40001
1.58064
1.84209
1.40001
0.99878
1.40001
1.40001
1.40001
1.39667
1.40001
1.84319
1.8416
1.40001
1.03813
1.40001
1.63735
1.02114
1.40001
1.29119
1.40001
1.39522
1.01381
1.40001
1.40001
1.40001
1.3962
0.99767
1.40001
1.00065
1.39836
1.63533
1.79772
1.02857
1.01734
1.40001
1.39189
1.40001
1.39869
1.40001
1.84424
1.84025
1.40001
1.41513
1.84191
1.8432
1.40001
1.40001
1.84147
1.40001
1.40001
1.40005
1.40001
1.84319
1.40001
1.40001
1.41929
1.40001
1.3986
1.07312
1.40001
1.40001
1.40001
1.40001
1.40001
1.84519
1.42855
1.40006
1.40001
1.40001
1.40001
1.40001
1.40001
1.40004
1.40001
1.02805
1.49355
1.3986
1.82465
1.841
1.40001
1.41826
1.84224
1.78211
1.40001
1.40001
1.01362
1.84182
1.40001
1.83958
1.40001
1.84208
1.69535
1.02004
1.40001
1.02188
1.82631
1.39968
1.40001
1.04177
1.01736
1.40001
1.40001
1.77394
1.40001
1.4
1.01923
1.40001
1.40001
1.40001
1.54926
1.40001
1.02134
1.84022
1.40001
1.40001
1.40001
1.40001
1.84213
1.40001
1.40001
1.84023
1.79535
1.40001
1.40001
1.40001
1.84736
1.0257
1.40001
1.84215
1.8423
1.40001
1.7513
1.4
1.40004
1.40001
1.40001
1.82322
1.41392
1.40001
1.01321
1.65034
1.40001
1.40001
1.39682
1.40001
1.40001
1.84412
1.40001
1.40001
1.40003
1.40001
1.84105
1.40001
1.40001
1.40001
1.40001
1.40001
1.40001
1.40002
1.59536
1.40001
1.83952
1.40001
1.40001
1.84356
1.40001
1.40001
1.40001
1.8417
1.84089
1.44532
1.40001
1.3977
1.40001
1.40001
1.40001
1.40001
1.83929
1.40001
1.40001
1.84161
1.03994
1.40001
1.40001
1.40001
1.40001
1.40001
1.40001
1.7587
1.40001
1.40001
1.84615
1.84048
1.40001
1.40001
1.40001
1.8418
1.84384
1.40001
1.3997
1.84455
1.40001
1.40001
1.40001
1.40002
1.00015
1.42885
1.39642
1.39594
1.40001
1.40001
1.00976
1.8405
1.40001
1.01816
1.40001
1.84034
1.82472
1.01875
1.39941
1.84164
1.8414
1.84244
1.40001
1.40001
1.31865
1.79563
1.78358
1.02098
1.40001
1.40001
1.40001
1.84141
1.842
1.03885
1.39733
1.40001
1.84219
1.04051
1.40001
1.83106
1.03392
1.36901
1.40649
1.40001
1.843
1.40001
1.40001
1.40001
1.40001
1.40001
1.40001
1.40011
1.81265
1.40001
1.40001
1.84695
1.40001
1.40001
1.40001
1.84123
1.40001
1.02499
1.40001
1.40001
1.40001
1.55563
1.40001
1.40001
1.40001
1.40001
1.40001
1.17841
1.40001
1.05128
1.40001
1.84196
1.40007
1.26545
1.26311
1.40002
1.40416
1.6343
1.40001
1.40001
1.03817
1.84114
1.84202
1.8409
1.40001
1.02776
1.0297
1.40001
1.84095
1.40001
1.40001
1.40001
1.40001
1.40001
1.40004
1.40001
1.02806
1.68068
1.40001
1.40001
1.03853
1.38544
1.40001
1.40001
1.40001
1.40001
1.01609
1.40001
1.05625
1.40001
1.40001
1.84203
1.40001
1.40001
1.0353
1.40001
1.84141
1.40001
0.985029
1.40001
1.03196
1.40001
1.4083
1.84325
1.85768
1.40001
1.40001
1.83831
1.40001
1.40001
1.49231
1.39673
1.40001
1.39811
1.40001
1.84272
1.40001
0.978596
1.40002
1.83829
1.3989
1.40001
1.40001
1.18762
1.40001
1.39905
1.03357
1.84511
1.5595
1.40001
1.40001
1.30197
1.40001
1.40001
1.40001
1.17442
1.40001
1.40001
1.40001
1.84202
1.40001
1.01908
1.4
1.40001
1.40001
1.40001
1.0297
1.84169
1.82017
1.04173
1.40001
1.83764
1.40001
1.40001
1.84274
1.84123
1.77314
1.02389
1.39777
1.39926
1.40001
1.84155
1.40001
1.40001
1.40001
1.40001
1.84336
1.40005
1.40001
1.40001
1.84209
1.40001
1.40001
1.84193
1.04916
1.40001
1.40001
1.40001
1.03419
1.40001
1.4
1.4
1.39868
1.40001
1.40001
1.40001
1.40001
1.74653
1.40001
1.84087
1.84094
1.85061
1.84155
1.84216
1.84178
1.40001
1.84481
1.40001
1.84198
1.84098
1.40001
1.3989
1.04064
1.77887
1.39989
1.40001
1.40001
1.40001
1.40001
1.3949
1.40001
1.46872
1.40001
1.40001
1.40001
1.2632
1.8416
1.84256
1.84472
1.78864
1.39988
1.40001
1.42292
1.84144
1.39792
1.45861
1.39704
1.07501
1.40001
1.40002
1.40001
1.40001
1.40001
1.40001
1.40001
1.84124
1.02313
1.84147
1.84163
1.39483
1.05344
1.40001
1.40001
1.40001
1.84246
1.05708
1.79118
1.02379
1.84201
1.84496
1.0313
1.83987
1.42464
1.40001
1.84287
1.16366
1.40001
1.39866
1.02733
1.40001
1.07198
1.40001
1.84141
1.84197
1.14178
1.40001
1.83861
1.08109
1.40001
1.04237
1.40001
1.84135
1.40001
1.40001
1.82946
1.40001
1.22623
1.40001
1.39971
1.07799
1.84412
1.3995
1.40001
1.04873
1.40001
1.40001
1.40001
1.40001
1.6408
1.40001
1.84248
1.40001
1.40001
1.85741
1.40001
1.40001
1.84232
1.40001
1.05806
1.40001
1.01702
1.40002
1.40001
1.40001
1.40001
1.40001
1.82428
1.65473
1.84156
1.40001
1.84059
1.81073
1.01505
0.994674
1.40001
1.40001
1.83961
1.40001
1.04185
1.40001
1.38653
1.40001
1.40001
1.84106
1.40001
1.8449
1.04431
1.8583
1.40001
1.0324
1.40001
1.40001
1.84731
1.84053
1.40001
1.40005
1.40001
1.84408
1.40001
1.40001
1.02308
1.39936
1.01093
1.40001
1.40001
1.40001
1.84344
1.84851
1.84011
1.40001
1.40001
1.02511
1.40001
1.84042
1.40001
1.40001
1.40001
1.82991
1.84099
1.84146
1.06524
1.84171
1.84175
1.03995
1.84125
1.40005
1.03507
1.40831
1.40001
1.40001
1.84121
1.06106
1.68265
1.05301
1.84171
1.39745
1.03375
1.84361
1.40001
1.40001
1.40001
1.40001
1.84183
1.83963
1.03253
1.40001
1.40003
1.03991
1.40004
1.40001
1.02708
0.971982
1.70914
1.84353
1.39848
1.84142
1.40001
1.84771
1.20594
1.0439
1.84163
1.84664
1.40001
1.84264
1.40001
1.40001
1.84213
1.40001
1.73502
1.84057
1.40001
1.40001
1.40001
1.40001
1.84199
1.83704
1.84179
1.40001
1.40001
1.83977
1.8415
1.8421
1.40001
1.84209
1.40001
1.40001
1.40001
1.40001
1.40001
1.01856
1.23116
1.01781
1.40001
1.40001
1.84181
1.40001
1.40001
1.84352
1.04475
1.40001
1.8421
1.83712
1.82159
1.02637
1.40001
1.05438
1.40001
1.40003
1.8395
1.60872
1.84095
1.80295
1.40001
1.01059
1.40001
1.84122
1.71703
1.0146
1.40001
1.40001
1.40001
1.19645
1.40001
1.40001
1.8503
1.40001
1.04115
1.8415
1.40001
1.40001
1.40001
1.40001
1.40001
1.75511
1.5056
1.40001
1.84106
1.40001
1.84198
1.40001
1.39723
1.40001
1.8419
1.83967
1.84401
1.84604
1.3996
1.84093
1.40001
1.84204
1.84236
1.77483
1.40001
1.40001
1.01731
1.84228
1.40001
1.40001
1.84777
1.84249
1.84218
1.40001
1.84323
1.40001
1.40001
1.40003
1.83953
1.84258
1.53072
1.49455
1.84137
1.84084
1.07731
1.40001
1.40001
1.40001
1.40001
1.40003
1.55866
1.40001
1.40001
1.75907
1.00594
1.39999
1.40001
1.84166
1.39989
1.39982
1.46976
1.80268
1.84109
1.31132
1.40001
1.0305
1.40001
1.39884
1.84201
1.84486
1.83581
1.39895
1.40001
1.40001
1.03887
1.40001
1.40001
1.84216
1.44913
1.40001
1.40001
1.40001
1.40001
1.40001
1.40001
1.40001
1.39995
1.84175
1.40002
1.40001
1.40001
1.40001
1.40001
1.68449
1.40001
1.60919
1.40001
1.40001
1.84153
1.84964
1.04705
1.39879
1.40001
1.4
1.40001
1.03926
1.84035
1.84257
1.40001
1.40001
1.40001
1.40001
1.40001
1.40001
1.40001
1.40001
1.84209
1.83315
0.990592
1.4497
1.0284
1.40001
1.03948
1.40001
1.84236
1.52072
1.40001
1.40001
1.11607
1.40001
1.82205
1.2067
1.39675
1.03847
1.40001
1.40001
1.83706
1.40005
1.39722
1.01409
1.83871
1.85418
1.40001
1.40001
1.40001
1.40001
1.81367
1.40001
1.40001
1.84037
1.39895
1.84013
1.40008
1.40001
1.40001
1.06768
1.40001
1.40001
1.84184
1.04055
1.16584
1.0127
1.84156
1.39932
1.40001
1.84898
1.02401
1.02554
1.40781
1.40001
1.40001
1.83905
1.40005
1.60419
1.40001
1.40001
1.83976
1.03608
1.40001
1.40001
1.40014
1.83938
1.40012
1.83776
1.40001
1.40004
1.40001
1.40001
1.12248
1.40001
1.18174
1.40003
1.40001
1.83945
1.06786
1.40001
1.17971
1.1911
1.40001
1.40001
1.84215
1.40001
1.40001
1.40001
1.84178
1.84413
1.40006
1.84449
1.83886
1.1868
1.84168
1.82878
1.40001
1.40001
1.84508
1.4
1.40001
1.40001
1.40001
1.40001
1.84061
1.84135
1.40001
1.40001
1.40001
1.84221
1.40022