/*--------------------------------*- C++ -*----------------------------------*\
  =========                 |
  \\      /  F ield         | OpenFOAM: The Open Source CFD Toolbox
   \\    /   O peration     | Website:  https://openfoam.org
    \\  /    A nd           | Version:  12
     \\/     M anipulation  |
\*---------------------------------------------------------------------------*/
FoamFile
{
    format      ascii;
    class       volVectorField;
    location    "4.24";
    object      U;
}
// * * * * * * * * * * * * * * * * * * * * * * * * * * * * * * * * * * * * * //

dimensions      [0 1 -1 0 0 0 0];

internalField   nonuniform List<vector> 
22702
(
(2 1.48658e-14 0)
(2 5.99897e-15 0)
(2.04474 -0.0899137 0)
(2 -1.17813e-09 0)
(1.97541 0.0387422 0)
(2 -7.82077e-14 0)
(1.83012 0.228602 0)
(2 1.72302e-14 0)
(2 1.88825e-14 0)
(2.10375 -0.266717 0)
(1.8303 0.22887 0)
(1.83066 0.22874 0)
(2 2.26067e-13 0)
(1.83279 0.229269 0)
(2.03848 -0.0744991 0)
(2 2.86388e-14 0)
(2 6.65587e-16 0)
(2 -2.15833e-16 0)
(1.83077 0.228995 0)
(2 -7.91221e-14 0)
(1.83129 0.229168 0)
(2 -1.01744e-13 0)
(1.82904 0.228186 0)
(2.09866 -0.260303 0)
(1.82879 0.227515 0)
(2.11235 -0.267602 0)
(2 -1.46452e-13 0)
(1.8273 0.228621 0)
(2.10607 -0.265266 0)
(2.09654 -0.259511 0)
(2 3.79684e-14 0)
(1.83058 0.228634 0)
(2 3.92532e-14 0)
(2 -9.69581e-15 0)
(2 6.87921e-14 0)
(1.84422 0.214952 0)
(1.82931 0.227711 0)
(1.82893 0.228534 0)
(2 4.90997e-14 0)
(2 3.04119e-15 0)
(2.08185 -0.263792 0)
(2 -8.01169e-14 0)
(1.91675 0.12404 0)
(2 8.26762e-14 0)
(1.82698 0.228164 0)
(2 -1.579e-13 0)
(2 1.75769e-13 0)
(2 -1.53167e-13 0)
(2 -3.019e-13 0)
(2.10581 -0.258504 0)
(2 8.81895e-15 0)
(2.10055 -0.259726 0)
(2 1.81232e-13 0)
(1.82947 0.228215 0)
(2 -8.20106e-14 0)
(1.82987 0.228571 0)
(2 5.92979e-14 0)
(2 1.25557e-09 0)
(2 -9.70616e-14 0)
(2 -3.50244e-13 0)
(2.12962 -0.261041 0)
(2 4.1637e-14 0)
(2 1.76432e-13 0)
(2.14815 -0.27535 0)
(2 -9.5718e-15 0)
(2.1197 -0.26308 0)
(2 1.50578e-13 0)
(2 -2.09531e-13 0)
(2 -1.21295e-13 0)
(2.09839 -0.270558 0)
(2 1.10533e-13 0)
(1.83126 0.229183 0)
(1.89801 0.148359 0)
(2 9.66326e-10 0)
(1.83128 0.229214 0)
(1.82405 0.239379 0)
(2.10792 -0.265667 0)
(1.83108 0.229132 0)
(2.10358 -0.261889 0)
(2 1.37939e-13 0)
(1.83121 0.229041 0)
(2.1091 -0.260882 0)
(1.82839 0.228151 0)
(1.82895 0.228111 0)
(2 -4.39048e-14 0)
(2 9.02712e-07 0)
(2 -2.70927e-14 0)
(2 -4.78658e-14 0)
(2.02361 -0.0443844 0)
(2.10653 -0.274055 0)
(1.83162 0.228336 0)
(2 1.68052e-14 0)
(2 -5.76761e-11 0)
(2.13355 -0.25671 0)
(2 2.18041e-14 0)
(1.83128 0.229281 0)
(2.13527 -0.263615 0)
(2 2.49773e-08 0)
(2 2.93612e-14 0)
(2 -2.13538e-13 0)
(2 7.75361e-14 0)
(1.91737 0.121746 0)
(1.83091 0.228645 0)
(2.09685 -0.266361 0)
(2 -4.37298e-10 0)
(2 -9.97232e-10 0)
(1.95697 0.0628382 0)
(2 9.53341e-09 0)
(2.10834 -0.262633 0)
(2 -1.52584e-13 0)
(1.83105 0.22889 0)
(1.82914 0.228339 0)
(2 4.0963e-09 0)
(2 -1.19338e-13 0)
(2.12488 -0.277489 0)
(2.1265 -0.271213 0)
(2.11287 -0.27327 0)
(2 8.01469e-14 0)
(2 -1.33534e-07 0)
(2 3.32428e-14 0)
(2 -8.10323e-14 0)
(2 1.16517e-07 0)
(2.0325 -0.0572601 0)
(2 -1.08863e-07 0)
(1.85543 0.201267 0)
(1.9805 0.0275524 0)
(1.83106 0.229328 0)
(2 -1.21713e-13 0)
(1.83119 0.22913 0)
(1.83107 0.229021 0)
(1.83278 0.229052 0)
(1.82993 0.228623 0)
(2 4.99035e-14 0)
(2.09974 -0.272773 0)
(2 2.76745e-14 0)
(2.14105 -0.258213 0)
(2 -5.75634e-15 0)
(2 -6.21926e-14 0)
(2 5.77139e-14 0)
(2 7.75771e-14 0)
(1.82962 0.228458 0)
(2 3.29377e-09 0)
(2 7.51316e-15 0)
(2 -2.67409e-13 0)
(2 -1.13101e-13 0)
(1.83154 0.229221 0)
(2 -8.50621e-14 0)
(1.99449 0.0147567 0)
(2 6.43607e-14 0)
(2 -1.66808e-13 0)
(2 -6.42998e-11 0)
(2 -5.80842e-14 0)
(2.10652 -0.258896 0)
(2 7.3383e-14 0)
(1.99535 0.00917402 0)
(2 -9.46086e-15 0)
(2.10295 -0.26206 0)
(2 -3.65478e-14 0)
(2 -1.14121e-13 0)
(2 6.32664e-14 0)
(1.83079 0.228478 0)
(2 -5.58863e-15 0)
(1.83129 0.229171 0)
(2.13662 -0.265037 0)
(2.11473 -0.266925 0)
(1.83074 0.229515 0)
(1.83045 0.229231 0)
(2 2.24467e-14 0)
(1.97227 0.0455176 0)
(1.90333 0.144822 0)
(2 3.35018e-14 0)
(1.8281 0.228963 0)
(2.10402 -0.263765 0)
(1.84361 0.21509 0)
(2 8.44432e-14 0)
(2 -9.90769e-14 0)
(2 3.59564e-15 0)
(2 8.10712e-15 0)
(1.83363 0.229508 0)
(1.86214 0.188876 0)
(2 7.2718e-14 0)
(1.82949 0.22804 0)
(2.15932 -0.275442 0)
(1.82849 0.228887 0)
(2 1.72146e-13 0)
(2.11295 -0.264612 0)
(2 -8.47228e-14 0)
(2.10066 -0.260893 0)
(2.11442 -0.26127 0)
(2.00008 -0.000140633 0)
(2 -1.37208e-13 0)
(2 -2.41449e-14 0)
(1.82898 0.229918 0)
(2 6.12439e-14 0)
(2 -1.86335e-13 0)
(1.83211 0.229245 0)
(2 -1.91965e-13 0)
(1.82872 0.228116 0)
(1.82918 0.228778 0)
(2.09992 -0.276433 0)
(2 -7.48484e-14 0)
(2 1.55325e-13 0)
(2.11224 -0.26205 0)
(1.8317 0.229345 0)
(2 -3.11464e-13 0)
(2 -2.48211e-13 0)
(2 -1.21753e-13 0)
(1.8317 0.229355 0)
(2 2.40481e-13 0)
(2.13533 -0.263274 0)
(2 -5.92723e-11 0)
(2 -2.80907e-14 0)
(1.83166 0.228784 0)
(1.83141 0.228954 0)
(1.82971 0.228449 0)
(2 -4.11732e-14 0)
(1.99999 2.37272e-05 0)
(2 -2.45552e-15 0)
(2 -7.70639e-15 0)
(2 1.51475e-13 0)
(1.83195 0.229001 0)
(2 8.33952e-14 0)
(2.14005 -0.270575 0)
(1.8256 0.23517 0)
(1.83172 0.229129 0)
(1.83343 0.229416 0)
(2 1.77031e-07 0)
(2 -1.69395e-13 0)
(2 -4.3696e-14 0)
(2.11595 -0.27437 0)
(1.83236 0.228916 0)
(1.9268 0.121798 0)
(2 -2.45998e-14 0)
(1.83102 0.229299 0)
(2.1314 -0.267026 0)
(2.13602 -0.267501 0)
(1.83101 0.229321 0)
(1.8316 0.227706 0)
(2 -4.29288e-14 0)
(1.83131 0.230058 0)
(2.10742 -0.280351 0)
(1.8508 0.206614 0)
(2 1.67895e-13 0)
(2 1.29778e-13 0)
(2 -1.06506e-13 0)
(2 -1.898e-13 0)
(1.83199 0.229464 0)
(2 -1.2399e-13 0)
(1.90082 0.151564 0)
(1.98505 0.0264443 0)
(2 -5.66382e-14 0)
(2 1.60441e-14 0)
(1.83155 0.228818 0)
(2.14704 -0.262248 0)
(2.08497 -0.155941 0)
(2 -1.87193e-13 0)
(1.8319 0.227948 0)
(2.11498 -0.267234 0)
(1.83022 0.232189 0)
(2 1.621e-14 0)
(2 -3.28792e-14 0)
(2 1.24784e-13 0)
(2 -6.35854e-14 0)
(2 -5.30597e-14 0)
(2 -3.42591e-14 0)
(2 1.21141e-14 0)
(2.10731 -0.263971 0)
(2.07725 -0.161107 0)
(2.13653 -0.265448 0)
(1.83114 0.229144 0)
(2 -3.95881e-14 0)
(2 2.53618e-13 0)
(2 -1.57964e-07 0)
(2 -2.29001e-14 0)
(1.84982 0.213293 0)
(2 -1.4228e-07 0)
(2.10789 -0.263964 0)
(2 -2.39034e-13 0)
(2.1134 -0.283926 0)
(2.11161 -0.262768 0)
(1.8321 0.229034 0)
(2.11362 -0.265751 0)
(1.83145 0.229129 0)
(2 -9.48162e-14 0)
(2 -6.79983e-14 0)
(2 -1.97161e-15 0)
(2.00085 -0.00151444 0)
(2.1147 -0.266453 0)
(2.10859 -0.279731 0)
(2 -3.04079e-07 0)
(2 -1.51186e-07 0)
(2.11834 -0.284893 0)
(2 2.37939e-09 0)
(1.83036 0.229046 0)
(2.10318 -0.275473 0)
(2 -6.59676e-14 0)
(2 -3.59146e-11 0)
(1.83133 0.228974 0)
(2.1252 -0.270249 0)
(2 -3.86891e-13 0)
(1.8298 0.233965 0)
(2.11945 -0.267567 0)
(1.83159 0.228998 0)
(2 -8.32272e-14 0)
(2.10826 -0.287476 0)
(2.00088 -0.00141716 0)
(2 3.83189e-14 0)
(2 2.64495e-06 0)
(2 -6.50402e-14 0)
(2.10793 -0.263048 0)
(2 -1.2706e-13 0)
(2 -1.59393e-07 0)
(2 -1.37406e-06 0)
(1.99999 1.38964e-05 0)
(1.99239 0.0101008 0)
(1.89667 0.148984 0)
(2 -2.60647e-11 0)
(2.11521 -0.246224 0)
(2 -1.56113e-11 0)
(2 1.68594e-06 0)
(2 -1.3676e-13 0)
(2 2.81537e-13 0)
(2 2.62911e-14 0)
(2 3.23712e-14 0)
(2 -9.46792e-13 0)
(1.8308 0.228709 0)
(2 2.89755e-13 0)
(1.83001 0.228761 0)
(2 8.25127e-14 0)
(2 2.92357e-13 0)
(2 8.05306e-14 0)
(2.11464 -0.266445 0)
(2 -7.52702e-14 0)
(1.83146 0.229031 0)
(2.11559 -0.266016 0)
(2 -1.55995e-13 0)
(1.87598 0.19007 0)
(2 5.00779e-14 0)
(2 -1.04906e-14 0)
(1.82997 0.229077 0)
(2 -2.1877e-15 0)
(2 -8.45967e-09 0)
(2 5.50737e-15 0)
(1.82985 0.226678 0)
(2 4.32262e-10 0)
(2 -6.69654e-14 0)
(1.83439 0.22298 0)
(1.82993 0.229302 0)
(2 -3.14655e-14 0)
(1.96509 0.0529716 0)
(2 9.76787e-16 0)
(2 5.84315e-14 0)
(2.14201 -0.252335 0)
(2 1.68378e-13 0)
(2 -1.55422e-13 0)
(2 2.36524e-13 0)
(2.14555 -0.260412 0)
(2 1.23159e-13 0)
(2 1.32533e-13 0)
(2 3.14509e-14 0)
(2 -2.16835e-14 0)
(2.12129 -0.257416 0)
(2 5.23653e-14 0)
(2 9.12982e-14 0)
(2 9.49421e-14 0)
(2 -8.84077e-14 0)
(2 1.8449e-13 0)
(2.10431 -0.276015 0)
(1.99998 3.78074e-05 0)
(1.83124 0.22921 0)
(2 7.91449e-14 0)
(1.99999 -4.09414e-05 0)
(1.83095 0.229402 0)
(1.83019 0.229274 0)
(2 3.04825e-13 0)
(2 1.30528e-13 0)
(2.10279 -0.277666 0)
(2.06538 -0.125896 0)
(1.82958 0.228538 0)
(2 2.03134e-13 0)
(2 -4.62969e-14 0)
(2 -5.5549e-14 0)
(1.83173 0.228997 0)
(2.09428 -0.268628 0)
(2 -4.28434e-14 0)
(1.83134 0.229052 0)
(2 -4.99952e-14 0)
(2 -1.01352e-13 0)
(2.10235 -0.218217 0)
(2.10433 -0.221817 0)
(2 -4.61806e-14 0)
(2.1221 -0.269773 0)
(2.11663 -0.264187 0)
(2 4.54222e-14 0)
(2 -4.93073e-14 0)
(2 -3.05235e-13 0)
(2 3.03883e-14 0)
(2 -9.5868e-11 0)
(2 4.08523e-14 0)
(2 1.06859e-13 0)
(1.83107 0.229444 0)
(1.95347 0.0614596 0)
(1.8327 0.229348 0)
(2.10824 -0.267626 0)
(2.02752 -0.0579234 0)
(1.83116 0.228867 0)
(2 -9.01019e-13 0)
(1.83137 0.229391 0)
(1.82924 0.228552 0)
(2.13071 -0.26135 0)
(2.07801 -0.150514 0)
(2 5.97695e-13 0)
(2.12881 -0.26598 0)
(2 1.0622e-13 0)
(1.82049 0.233675 0)
(2 1.071e-13 0)
(2 -5.57019e-14 0)
(2 1.14908e-14 0)
(2 -1.30174e-14 0)
(1.83189 0.22944 0)
(2 2.23789e-13 0)
(2 -2.29789e-14 0)
(2 3.83758e-14 0)
(2 1.53693e-09 0)
(2 1.91588e-14 0)
(2 1.40996e-13 0)
(2 -3.35979e-14 0)
(1.93535 0.0968202 0)
(1.82879 0.227487 0)
(2 -4.33986e-15 0)
(1.83125 0.22908 0)
(2 9.39785e-14 0)
(2 -3.03335e-14 0)
(2.10973 -0.260929 0)
(2 1.34421e-13 0)
(2 -7.3914e-14 0)
(2 -1.86671e-13 0)
(2 -1.49348e-13 0)
(1.83162 0.229242 0)
(1.87053 0.183512 0)
(2 -1.37622e-13 0)
(2 -1.68355e-13 0)
(2.12049 -0.264164 0)
(1.83134 0.22855 0)
(1.83164 0.228929 0)
(2 1.22395e-13 0)
(1.83167 0.228774 0)
(1.83182 0.22895 0)
(1.8313 0.229013 0)
(2 -5.4075e-14 0)
(2.05243 -0.115763 0)
(2 1.88071e-13 0)
(1.83244 0.229218 0)
(2.00213 -0.0123233 0)
(1.83129 0.229002 0)
(2 6.73176e-14 0)
(2.1346 -0.264343 0)
(2.00035 -0.000582214 0)
(1.83075 0.228618 0)
(2 -1.27615e-13 0)
(2 -2.31356e-13 0)
(2 -5.05401e-11 0)
(2 -1.89763e-11 0)
(2.10813 -0.263321 0)
(1.83216 0.22902 0)
(1.84728 0.2121 0)
(2 8.51488e-14 0)
(1.83316 0.229029 0)
(1.832 0.229191 0)
(1.83034 0.228597 0)
(2 -3.47232e-14 0)
(1.91569 0.130395 0)
(1.83464 0.230227 0)
(2 -2.46447e-14 0)
(2 7.52498e-14 0)
(1.88373 0.166207 0)
(1.98014 0.036893 0)
(1.83153 0.228932 0)
(2.02015 -0.0428775 0)
(1.83159 0.228997 0)
(2 -5.24075e-14 0)
(1.83145 0.229029 0)
(1.83122 0.229048 0)
(1.83145 0.228994 0)
(1.83125 0.228525 0)
(2 2.30427e-13 0)
(1.83958 0.224878 0)
(2.02966 -0.0585153 0)
(2.04449 -0.0853634 0)
(2 -6.52585e-14 0)
(2 -3.55875e-07 0)
(2 1.24336e-13 0)
(2 -9.06536e-14 0)
(1.83027 0.229282 0)
(2 3.07623e-14 0)
(2 1.29038e-13 0)
(2 -1.24426e-13 0)
(2 2.34655e-13 0)
(2 1.36558e-13 0)
(1.83113 0.228719 0)
(2 6.63227e-14 0)
(2 2.80785e-13 0)
(2.00164 -0.00293515 0)
(1.83167 0.228978 0)
(1.86537 0.192727 0)
(2 6.88778e-14 0)
(1.86798 0.187884 0)
(1.99998 2.58662e-05 0)
(2 -1.40661e-14 0)
(2 -6.15192e-14 0)
(1.83116 0.228636 0)
(2 2.12661e-14 0)
(2.00156 -0.00158793 0)
(1.99823 0.00432036 0)
(2 2.21989e-14 0)
(1.83152 0.22893 0)
(2 -1.65246e-13 0)
(1.83226 0.229148 0)
(2 -4.75058e-14 0)
(2 4.76509e-14 0)
(1.87611 0.176214 0)
(2 -4.20463e-14 0)
(1.83188 0.229255 0)
(1.99999 1.27822e-05 0)
(2 1.35171e-13 0)
(1.83149 0.229374 0)
(2 5.09848e-14 0)
(1.83165 0.229162 0)
(2 -4.03435e-14 0)
(2 2.99311e-06 0)
(2 -8.32918e-14 0)
(1.83202 0.229391 0)
(2 2.06149e-14 0)
(1.83089 0.229049 0)
(2 4.71678e-06 0)
(1.83192 0.229422 0)
(1.83296 0.229788 0)
(1.8316 0.228761 0)
(1.83005 0.228982 0)
(2 1.27003e-14 0)
(1.82937 0.228725 0)
(1.84145 0.223101 0)
(2 6.95933e-15 0)
(2.0987 -0.261037 0)
(1.84165 0.217714 0)
(1.87962 0.171859 0)
(2 -6.02454e-14 0)
(1.83194 0.229416 0)
(2 1.04439e-13 0)
(2.14524 -0.258814 0)
(2.12351 -0.261778 0)
(2 1.8006e-14 0)
(2 -5.02655e-14 0)
(2 -6.13109e-14 0)
(2 7.15302e-14 0)
(2 1.22246e-09 0)
(2.13482 -0.262425 0)
(2 1.3221e-13 0)
(1.83122 0.229061 0)
(1.95538 0.066167 0)
(1.8312 0.228417 0)
(2 -5.65255e-14 0)
(2 8.95952e-11 0)
(2 -9.30026e-14 0)
(2 -1.15953e-13 0)
(2 -5.16164e-08 0)
(1.83119 0.229132 0)
(2 -2.84661e-13 0)
(1.83093 0.226854 0)
(1.89922 0.14853 0)
(2.07591 -0.15901 0)
(2 1.31366e-09 0)
(1.99999 8.04161e-06 0)
(1.95402 0.0737042 0)
(1.95912 0.0675943 0)
(2 -1.2561e-14 0)
(2 -1.9636e-13 0)
(1.93881 0.0902175 0)
(2 1.33228e-13 0)
(2.1049 -0.260897 0)
(1.83183 0.229177 0)
(1.83173 0.22912 0)
(2 -6.5571e-11 0)
(2 1.88472e-13 0)
(2 -1.77976e-13 0)
(1.83305 0.229921 0)
(2 -5.77625e-15 0)
(1.99999 1.64347e-05 0)
(1.83401 0.230898 0)
(1.83212 0.228866 0)
(2.0171 -0.0391765 0)
(2 8.80163e-15 0)
(2 1.75765e-10 0)
(2.10669 -0.261953 0)
(1.84614 0.212205 0)
(2 -1.05397e-13 0)
(2 2.56405e-13 0)
(2 -4.66777e-14 0)
(2 -2.82242e-11 0)
(2 8.50471e-14 0)
(1.83163 0.229051 0)
(1.82958 0.228279 0)
(2 -5.51962e-14 0)
(1.83164 0.229119 0)
(1.83119 0.230082 0)
(1.83163 0.228857 0)
(2 -4.19615e-14 0)
(2 -7.0263e-14 0)
(2 -5.69015e-11 0)
(2 -4.01526e-14 0)
(2.10524 -0.272869 0)
(1.82923 0.228558 0)
(2 -4.50058e-11 0)
(2 -2.07796e-14 0)
(1.84668 0.212255 0)
(1.83224 0.228408 0)
(2 -8.36112e-14 0)
(1.8416 0.217933 0)
(1.83084 0.228464 0)
(2 2.62016e-14 0)
(2 -2.18546e-07 0)
(2 8.74028e-11 0)
(2 -2.61799e-14 0)
(2 -9.23422e-14 0)
(1.83157 0.228975 0)
(2 -7.95744e-16 0)
(2 5.40475e-14 0)
(2 3.7094e-15 0)
(2 -8.45533e-14 0)
(1.83055 0.231455 0)
(2 -5.09792e-14 0)
(1.83321 0.234025 0)
(2.11357 -0.26782 0)
(2 -4.23868e-14 0)
(2.12871 -0.264608 0)
(2 8.82309e-15 0)
(2 -1.75246e-07 0)
(2 6.03864e-15 0)
(2.00124 -0.00206842 0)
(2.10478 -0.260585 0)
(2.00031 -0.000491821 0)
(2 -1.17109e-13 0)
(2 -8.10694e-14 0)
(2 -1.19489e-07 0)
(1.9753 0.0398835 0)
(2 -1.07895e-13 0)
(2 2.76013e-14 0)
(2.04106 -0.0881675 0)
(2 -2.08476e-07 0)
(2 -6.21464e-14 0)
(2 6.87516e-14 0)
(2 -2.12491e-07 0)
(2 2.52243e-07 0)
(2 -1.06505e-07 0)
(2 -1.17026e-13 0)
(2 -1.54002e-06 0)
(2.01817 -0.0392694 0)
(2 -5.25656e-07 0)
(2 -4.39008e-08 0)
(2.00092 -0.00139744 0)
(2 5.55386e-14 0)
(2.111 -0.264722 0)
(2 -2.85071e-11 0)
(2 -4.24604e-12 0)
(2 -4.23729e-11 0)
(2 2.56891e-13 0)
(1.87391 0.179519 0)
(2 1.47803e-13 0)
(2 1.59049e-13 0)
(2 2.46934e-14 0)
(2 -1.58404e-07 0)
(2.11526 -0.267796 0)
(2 -3.40458e-14 0)
(2 1.22188e-09 0)
(1.8414 0.217414 0)
(1.82942 0.228609 0)
(2 -3.10276e-07 0)
(2 1.28647e-13 0)
(2 -1.07304e-07 0)
(2.04372 -0.0852887 0)
(2 -1.38891e-13 0)
(2 4.25379e-10 0)
(2 6.82202e-14 0)
(2 -1.5215e-14 0)
(2 -1.57848e-13 0)
(2 -1.80061e-13 0)
(2.01327 -0.0346703 0)
(1.99164 0.00787037 0)
(1.83158 0.228949 0)
(2 1.09411e-14 0)
(2 6.18563e-15 0)
(2 -1.24757e-14 0)
(1.82991 0.22889 0)
(2.03726 -0.0677452 0)
(2 -4.78215e-09 0)
(2 3.10076e-14 0)
(2 1.8084e-13 0)
(1.82796 0.228171 0)
(1.82941 0.227368 0)
(2 -3.23433e-08 0)
(2 5.19181e-06 0)
(2 3.04968e-09 0)
(2 -1.4978e-13 0)
(2 1.32778e-09 0)
(2 1.21715e-14 0)
(2 -8.51225e-12 0)
(2 1.48487e-13 0)
(2 4.1861e-14 0)
(2.11726 -0.265093 0)
(2 1.94792e-13 0)
(2 -1.65526e-11 0)
(1.82907 0.229218 0)
(2.13564 -0.267879 0)
(2 -2.18609e-13 0)
(1.82877 0.228532 0)
(2 7.06391e-11 0)
(2.10758 -0.2612 0)
(2 -1.83768e-15 0)
(2 7.65067e-14 0)
(2.11922 -0.264479 0)
(2 -1.77647e-13 0)
(2 -1.29533e-11 0)
(2 -5.04507e-12 0)
(2 9.75429e-14 0)
(2 -2.11099e-12 0)
(2 -1.03176e-13 0)
(2 1.18814e-13 0)
(1.83534 0.22518 0)
(1.83248 0.228621 0)
(2 4.45828e-13 0)
(2 4.79849e-14 0)
(2 5.42785e-14 0)
(2 4.15094e-13 0)
(1.84596 0.212771 0)
(2 3.15523e-13 0)
(1.94601 0.0814931 0)
(2.11376 -0.267548 0)
(2 -3.38054e-08 0)
(2 2.66732e-13 0)
(2 1.2273e-13 0)
(2 -9.53922e-14 0)
(2 1.30647e-13 0)
(2 1.49761e-13 0)
(2 -8.26784e-15 0)
(1.98469 0.0149445 0)
(2 -1.52618e-14 0)
(2 2.21892e-13 0)
(1.90597 0.122534 0)
(2 2.86876e-14 0)
(2 7.9262e-14 0)
(2 -9.51145e-14 0)
(1.86132 0.193156 0)
(2 -2.47115e-13 0)
(2 1.40359e-13 0)
(2 8.73248e-14 0)
(2 -7.74393e-14 0)
(2.11644 -0.269695 0)
(2 4.36338e-12 0)
(2 7.92994e-14 0)
(2.1163 -0.276696 0)
(2.1222 -0.269389 0)
(2 -1.6749e-13 0)
(2 -3.30404e-14 0)
(1.83235 0.229291 0)
(2 -1.33118e-14 0)
(1.96957 -0.026952 0)
(2 1.62457e-14 0)
(2 -1.37224e-13 0)
(2 -1.15568e-13 0)
(1.88314 0.166346 0)
(2.12532 -0.264079 0)
(2 -2.10458e-13 0)
(2.12647 -0.273048 0)
(2 1.80392e-13 0)
(2.07606 -0.151905 0)
(2 1.0692e-13 0)
(2 5.51023e-14 0)
(2 -1.4335e-14 0)
(1.8304 0.230316 0)
(2 -4.42246e-08 0)
(2 -4.47251e-14 0)
(1.83186 0.228963 0)
(2 -2.99659e-14 0)
(2 -3.19049e-11 0)
(2 1.66789e-09 0)
(1.83182 0.228897 0)
(2 2.28205e-10 0)
(2 2.00318e-14 0)
(1.832 0.228949 0)
(2 -1.42528e-13 0)
(2 1.30963e-13 0)
(2.13044 -0.263201 0)
(2 -1.68996e-11 0)
(1.94818 0.0767987 0)
(2 1.04983e-13 0)
(2 6.05779e-14 0)
(1.82967 0.228819 0)
(1.83168 0.228594 0)
(1.88794 0.160525 0)
(1.84973 0.208301 0)
(2 2.23649e-14 0)
(2.13057 -0.263558 0)
(2 -7.40745e-14 0)
(2 1.74399e-13 0)
(1.83886 0.220061 0)
(2 1.02418e-13 0)
(2.10693 -0.263644 0)
(2 5.63986e-14 0)
(2 -1.02795e-14 0)
(2 7.78788e-14 0)
(1.83116 0.229013 0)
(2 6.32684e-14 0)
(2 5.36528e-14 0)
(2 1.63937e-13 0)
(2 1.98254e-14 0)
(1.89779 0.149944 0)
(2 1.5203e-13 0)
(1.85224 0.216996 0)
(1.83174 0.229129 0)
(2.12379 -0.260815 0)
(2 -6.18077e-14 0)
(2 -2.2051e-13 0)
(2.10278 -0.259932 0)
(2.12239 -0.262378 0)
(2 1.27103e-13 0)
(2 7.72143e-14 0)
(2 -6.27013e-12 0)
(1.88148 0.169215 0)
(1.8733 0.180854 0)
(2 3.64077e-14 0)
(2 1.27502e-13 0)
(2 1.56215e-13 0)
(2 -6.80173e-14 0)
(2 -1.04614e-13 0)
(2 -1.2942e-13 0)
(2 7.29571e-14 0)
(1.92716 0.112572 0)
(1.82862 0.228566 0)
(1.99021 0.00978923 0)
(2 -8.61071e-15 0)
(1.83329 0.226664 0)
(2.09902 -0.266809 0)
(2 -8.46438e-15 0)
(2 6.3078e-14 0)
(2 4.98949e-14 0)
(1.90687 0.137076 0)
(2 1.0795e-13 0)
(1.96518 0.0555691 0)
(2 -3.08364e-14 0)
(1.84507 0.212559 0)
(1.83253 0.22798 0)
(2 -2.26263e-14 0)
(2.13735 -0.265881 0)
(2 -9.7113e-14 0)
(1.82907 0.228771 0)
(2 1.77077e-14 0)
(2 -2.97702e-14 0)
(1.83168 0.228764 0)
(1.84213 0.217591 0)
(2 3.31738e-14 0)
(1.82453 0.229384 0)
(2 7.56062e-15 0)
(2.15609 -0.263109 0)
(2 1.76359e-14 0)
(2 -3.7059e-14 0)
(2 -3.36729e-15 0)
(1.8327 0.229018 0)
(1.83547 0.225014 0)
(1.85146 0.206067 0)
(2 6.43295e-14 0)
(1.83023 0.230141 0)
(1.83142 0.228432 0)
(2 -9.6522e-15 0)
(1.83085 0.229218 0)
(2 -8.6876e-09 0)
(1.83245 0.228033 0)
(2 -2.21377e-13 0)
(2.11413 -0.272376 0)
(2.00488 -0.0128389 0)
(2.10932 -0.269804 0)
(2 -3.3745e-11 0)
(2 -2.53647e-11 0)
(2 -3.54806e-11 0)
(2 -2.03845e-13 0)
(2 -1.42625e-11 0)
(1.83167 0.22864 0)
(2 2.15317e-14 0)
(1.83163 0.228676 0)
(2 -3.88112e-11 0)
(2 -9.97832e-11 0)
(2 -5.54624e-15 0)
(1.84018 0.219688 0)
(2 6.64426e-14 0)
(2.10721 -0.264033 0)
(1.83185 0.229034 0)
(2 -6.64983e-14 0)
(2.10035 -0.260971 0)
(2.11898 -0.246563 0)
(2.11981 -0.257437 0)
(2 6.86483e-16 0)
(1.91706 0.119703 0)
(1.98583 0.0187841 0)
(1.83085 0.229496 0)
(1.83152 0.228709 0)
(2 -1.14119e-13 0)
(2 -3.67694e-07 0)
(2 -9.58316e-08 0)
(2 1.60029e-13 0)
(1.83127 0.228881 0)
(2 6.43898e-14 0)
(2 1.00489e-13 0)
(1.83131 0.228843 0)
(1.8313 0.228308 0)
(2 -9.15801e-14 0)
(1.94036 0.0864523 0)
(2.00003 0.000467245 0)
(2 -9.40623e-14 0)
(2.00115 -0.00196644 0)
(1.83229 0.229011 0)
(2.04631 -0.0958474 0)
(2 -1.17102e-07 0)
(2.06612 -0.123668 0)
(2.10286 -0.260412 0)
(2.1056 -0.261724 0)
(2.01183 -0.0131853 0)
(1.82942 0.228495 0)
(1.83429 0.226317 0)
(1.96659 0.0562902 0)
(1.83137 0.229082 0)
(1.83119 0.228673 0)
(2 -2.98729e-14 0)
(2 -1.39931e-14 0)
(1.83213 0.229035 0)
(1.82921 0.229523 0)
(1.83179 0.228451 0)
(1.82771 0.227905 0)
(2 1.04064e-13 0)
(1.83156 0.228771 0)
(2.096 -0.266168 0)
(1.83195 0.226587 0)
(1.83045 0.228201 0)
(1.82972 0.229346 0)
(1.83056 0.22974 0)
(2.05044 -0.0965975 0)
(2.03289 -0.074493 0)
(2.02013 -0.0440771 0)
(1.83256 0.229387 0)
(2.01405 -0.030867 0)
(1.8314 0.228871 0)
(2 2.2452e-13 0)
(2 7.93152e-14 0)
(1.83085 0.229649 0)
(1.83185 0.229358 0)
(2 1.11252e-13 0)
(2.13086 -0.265051 0)
(1.83036 0.229569 0)
(1.8316 0.228457 0)
(2 -1.2923e-14 0)
(1.83195 0.228938 0)
(1.83169 0.22889 0)
(2 4.02065e-14 0)
(1.83135 0.228849 0)
(2.10833 -0.266431 0)
(1.83076 0.229595 0)
(1.83022 0.229325 0)
(1.8292 0.228416 0)
(1.83153 0.228976 0)
(2 7.10673e-14 0)
(2 -1.21691e-13 0)
(2 -1.11073e-07 0)
(1.83207 0.22869 0)
(1.89162 0.158221 0)
(2.10908 -0.251073 0)
(1.83168 0.228807 0)
(2.11202 -0.271525 0)
(1.83235 0.229009 0)
(2 -9.77738e-14 0)
(2 1.82224e-13 0)
(2 -1.23627e-14 0)
(2 -3.56753e-14 0)
(1.83142 0.228193 0)
(1.83145 0.228908 0)
(2 1.05038e-14 0)
(2 5.2748e-14 0)
(1.83128 0.228795 0)
(2.11163 -0.268999 0)
(1.8317 0.229385 0)
(2.11112 -0.263921 0)
(2 -3.79535e-15 0)
(1.83326 0.227595 0)
(2 7.93876e-14 0)
(2.10072 -0.262066 0)
(1.831 0.230035 0)
(2.08925 -0.190547 0)
(2 -2.47195e-14 0)
(1.83176 0.2289 0)
(1.83059 0.230284 0)
(1.83182 0.229133 0)
(2 -1.67917e-13 0)
(2 8.06543e-14 0)
(1.92445 0.12626 0)
(1.83077 0.22985 0)
(2.10905 -0.26324 0)
(1.83184 0.228939 0)
(2 -1.02925e-14 0)
(1.83176 0.228763 0)
(2.03805 -0.0862629 0)
(1.83185 0.228555 0)
(2.11701 -0.263438 0)
(2 -6.59373e-14 0)
(1.83203 0.228527 0)
(2.11066 -0.244796 0)
(1.83093 0.229567 0)
(2.11238 -0.266118 0)
(2 -4.25288e-14 0)
(1.83125 0.229167 0)
(2 1.82333e-14 0)
(1.82922 0.22814 0)
(2 3.50035e-14 0)
(1.90122 0.144393 0)
(1.83809 0.221239 0)
(1.86646 0.187957 0)
(2.13448 -0.273925 0)
(2 -3.03239e-13 0)
(1.83186 0.22916 0)
(2 1.15259e-13 0)
(1.83179 0.228367 0)
(2 -1.21273e-07 0)
(1.83177 0.229046 0)
(2 -2.29025e-07 0)
(2 8.05908e-14 0)
(1.83186 0.228973 0)
(2.00688 -0.0147346 0)
(1.83037 0.230019 0)
(2.12312 -0.266979 0)
(1.8406 0.225965 0)
(2 1.45221e-13 0)
(1.88127 0.169827 0)
(2 1.8041e-13 0)
(1.83041 0.230012 0)
(1.83179 0.228985 0)
(1.83119 0.229534 0)
(2 5.88296e-15 0)
(1.84892 0.209365 0)
(1.83072 0.228731 0)
(1.84359 0.215445 0)
(1.89458 0.153219 0)
(1.83652 0.227293 0)
(2 1.24883e-14 0)
(1.88829 0.162398 0)
(2 2.31899e-13 0)
(1.83202 0.229229 0)
(2 1.29494e-14 0)
(1.97503 0.0355066 0)
(2 5.65303e-14 0)
(1.84303 0.215534 0)
(2 1.88718e-13 0)
(1.83143 0.228482 0)
(1.83928 0.219933 0)
(1.83995 0.219394 0)
(2 5.97295e-14 0)
(1.83575 0.230574 0)
(2.12024 -0.261347 0)
(2 6.52543e-15 0)
(2.1189 -0.264699 0)
(2 -2.52554e-13 0)
(2 -5.24359e-14 0)
(2 -7.85342e-14 0)
(1.83111 0.228978 0)
(2 4.30282e-14 0)
(1.83164 0.229053 0)
(2 4.45604e-14 0)
(2 1.21197e-13 0)
(2 1.05038e-13 0)
(1.83091 0.229071 0)
(1.8318 0.231516 0)
(1.8741 0.186961 0)
(1.83012 0.229829 0)
(1.82847 0.229372 0)
(2.12575 -0.262724 0)
(1.8241 0.230122 0)
(1.82839 0.228562 0)
(2 -2.05288e-13 0)
(1.86018 0.196201 0)
(1.83164 0.228912 0)
(1.83646 0.222466 0)
(2 -2.02709e-13 0)
(1.82823 0.228825 0)
(1.83019 0.228987 0)
(2 1.82919e-13 0)
(1.82843 0.231134 0)
(1.83137 0.228496 0)
(1.83134 0.22882 0)
(1.83084 0.229839 0)
(2 -1.89058e-13 0)
(2 7.80721e-14 0)
(2 -1.86326e-14 0)
(1.83154 0.228642 0)
(2.11477 -0.271466 0)
(2 1.68302e-14 0)
(1.83148 0.228968 0)
(2 1.60732e-13 0)
(2 4.69117e-14 0)
(2.13747 -0.259805 0)
(2 -1.07344e-13 0)
(2 6.75348e-14 0)
(1.83126 0.22892 0)
(1.83183 0.228889 0)
(2 -3.28108e-14 0)
(1.83189 0.22896 0)
(1.82832 0.229953 0)
(1.83142 0.229032 0)
(2.0076 -0.0186507 0)
(1.8314 0.228817 0)
(2 3.0797e-14 0)
(1.83135 0.228834 0)
(1.83164 0.228832 0)
(1.87341 0.179356 0)
(2 -1.19324e-13 0)
(2 6.0735e-14 0)
(2 1.41982e-14 0)
(1.83052 0.229547 0)
(1.83162 0.229113 0)
(1.8323 0.228682 0)
(2.01862 -0.0387335 0)
(2 -8.58849e-14 0)
(1.82655 0.230992 0)
(1.83164 0.228989 0)
(1.83193 0.229167 0)
(2 7.03187e-14 0)
(1.83164 0.228895 0)
(1.83169 0.229449 0)
(1.8314 0.228992 0)
(1.82698 0.231549 0)
(2 2.84299e-15 0)
(1.83169 0.229465 0)
(1.8298 0.22957 0)
(1.85138 0.200705 0)
(1.83197 0.228815 0)
(1.828 0.231356 0)
(2 -1.17255e-13 0)
(1.83162 0.231727 0)
(1.83391 0.226703 0)
(1.83215 0.228592 0)
(1.83075 0.229761 0)
(1.83198 0.228426 0)
(2.1151 -0.268856 0)
(1.83168 0.228749 0)
(1.83206 0.229151 0)
(2 -1.28765e-13 0)
(1.83162 0.229009 0)
(1.83172 0.228883 0)
(1.83156 0.228991 0)
(1.8321 0.22885 0)
(2 -5.27696e-08 0)
(1.83183 0.22911 0)
(1.8313 0.22917 0)
(2 -1.559e-07 0)
(1.83163 0.228435 0)
(1.8585 0.198507 0)
(2 2.10852e-13 0)
(2 7.54001e-14 0)
(2 1.91865e-09 0)
(1.8319 0.229696 0)
(1.82697 0.228647 0)
(2 2.4535e-14 0)
(2 -2.95736e-14 0)
(1.90939 0.133416 0)
(2 1.58111e-13 0)
(1.83179 0.229086 0)
(2 3.1174e-13 0)
(2 7.09996e-14 0)
(1.83131 0.22866 0)
(1.83113 0.229381 0)
(1.83186 0.228734 0)
(1.83117 0.228529 0)
(2 5.9955e-14 0)
(2 5.64721e-14 0)
(2 2.21579e-14 0)
(1.87983 0.166095 0)
(2 -6.16448e-15 0)
(1.83098 0.230064 0)
(2 9.33222e-14 0)
(2 1.13719e-13 0)
(1.83313 0.228944 0)
(1.82985 0.228988 0)
(2 1.41652e-14 0)
(1.8314 0.228906 0)
(2.1073 -0.277844 0)
(1.83156 0.22893 0)
(1.83121 0.230244 0)
(2.0775 -0.210648 0)
(2 1.73386e-14 0)
(2.1132 -0.27481 0)
(1.84817 0.202265 0)
(1.83178 0.231185 0)
(1.83062 0.230569 0)
(1.83084 0.229974 0)
(2.12345 -0.260822 0)
(1.83089 0.228641 0)
(1.83081 0.228927 0)
(2.12086 -0.257243 0)
(2.11305 -0.273489 0)
(2 -2.49872e-07 0)
(1.83243 0.228505 0)
(1.83196 0.228736 0)
(2 -1.88227e-13 0)
(2 1.46444e-14 0)
(1.83199 0.228814 0)
(2 -2.56652e-14 0)
(1.82787 0.232892 0)
(2 2.29058e-06 0)
(1.85345 0.202872 0)
(2 -7.17401e-14 0)
(1.92178 0.117327 0)
(1.83183 0.228634 0)
(1.83068 0.230334 0)
(1.88178 0.167874 0)
(1.85634 0.196099 0)
(1.82997 0.228404 0)
(1.83039 0.229758 0)
(1.84565 0.217134 0)
(2 5.82161e-14 0)
(2.1037 -0.268446 0)
(1.8318 0.22917 0)
(1.83171 0.229101 0)
(1.82819 0.230682 0)
(2 7.03964e-06 0)
(2 2.96314e-10 0)
(2 1.45981e-09 0)
(1.8301 0.230288 0)
(2 -1.18979e-13 0)
(1.83185 0.228923 0)
(1.83206 0.229071 0)
(2.08612 -0.173659 0)
(2 3.23195e-14 0)
(1.83146 0.228732 0)
(2.00003 -5.02551e-05 0)
(2 -6.51158e-14 0)
(1.99999 1.92641e-05 0)
(1.99998 2.79479e-05 0)
(1.83176 0.229053 0)
(1.83105 0.228784 0)
(2.00052 -0.000868361 0)
(2 1.56059e-13 0)
(2 7.01865e-14 0)
(1.83169 0.228294 0)
(1.8307 0.229696 0)
(1.83166 0.228819 0)
(1.82952 0.230811 0)
(1.83019 0.228229 0)
(2.10407 -0.253519 0)
(1.86055 0.195551 0)
(2 8.34513e-14 0)
(1.83335 0.227476 0)
(1.83187 0.228709 0)
(1.8318 0.228828 0)
(1.83391 0.234533 0)
(2 3.08997e-15 0)
(1.8319 0.22897 0)
(1.83655 0.223702 0)
(1.83103 0.229336 0)
(2 8.36161e-15 0)
(1.83154 0.229004 0)
(1.83103 0.228776 0)
(2.04145 -0.0890003 0)
(1.83199 0.228863 0)
(1.83144 0.228957 0)
(2 -1.48335e-13 0)
(1.83158 0.228939 0)
(2.05549 -0.114351 0)
(1.83185 0.229423 0)
(2.04923 -0.0893558 0)
(1.83167 0.229033 0)
(2 -1.15467e-07 0)
(1.83146 0.228809 0)
(1.82567 0.233246 0)
(1.83176 0.228934 0)
(1.8317 0.22911 0)
(1.8315 0.228921 0)
(1.82945 0.228687 0)
(1.83132 0.229236 0)
(1.82987 0.229519 0)
(2 -3.04044e-14 0)
(2.02401 -0.0499727 0)
(1.83189 0.22935 0)
(1.83161 0.228999 0)
(2.05413 -0.111182 0)
(1.83152 0.228888 0)
(2.00122 -0.0140875 0)
(1.89245 0.151516 0)
(1.8318 0.229165 0)
(1.83112 0.229366 0)
(1.8323 0.228664 0)
(2 1.2543e-13 0)
(1.83039 0.230012 0)
(1.88699 0.162238 0)
(1.83102 0.228858 0)
(2.01891 -0.0450249 0)
(1.83071 0.229685 0)
(1.82675 0.233113 0)
(2 -4.50198e-14 0)
(2.04489 -0.0866757 0)
(2 -8.05826e-09 0)
(1.83414 0.22703 0)
(2 2.28724e-14 0)
(1.88359 0.167472 0)
(2 3.56046e-09 0)
(1.8387 0.230175 0)
(2.04377 -0.086624 0)
(2 1.20723e-13 0)
(1.83258 0.22738 0)
(1.83492 0.226135 0)
(2 4.52414e-14 0)
(1.82995 0.228022 0)
(1.83086 0.229703 0)
(1.83504 0.230557 0)
(1.83724 0.224182 0)
(1.83325 0.226434 0)
(2 4.82393e-14 0)
(1.82998 0.228499 0)
(2 4.2972e-14 0)
(2 -1.54671e-13 0)
(2 -2.40836e-14 0)
(2.03385 -0.0676444 0)
(1.83144 0.228856 0)
(1.83118 0.22942 0)
(1.82901 0.231954 0)
(1.8315 0.228915 0)
(1.8301 0.23087 0)
(1.82856 0.230865 0)
(1.82971 0.231735 0)
(1.83165 0.229115 0)
(2.03342 -0.0673021 0)
(1.98758 0.0230567 0)
(2 3.7182e-09 0)
(2 1.50725e-14 0)
(1.82409 0.232654 0)
(1.83157 0.229043 0)
(1.83168 0.229227 0)
(1.83195 0.229047 0)
(1.99999 1.61118e-05 0)
(1.91216 0.12146 0)
(2 -1.69354e-07 0)
(1.82849 0.230702 0)
(1.84591 0.219943 0)
(2 -3.23121e-12 0)
(2 -5.92522e-11 0)
(2.0897 -0.185494 0)
(1.83181 0.228759 0)
(2 1.51071e-13 0)
(2 7.48858e-14 0)
(2.09572 -0.261764 0)
(1.83166 0.229062 0)
(2 1.72574e-13 0)
(1.82797 0.228627 0)
(1.83122 0.228949 0)
(1.83015 0.228841 0)
(1.83837 0.221432 0)
(1.83109 0.229131 0)
(2 -5.5731e-11 0)
(2.13072 -0.267017 0)
(1.95491 0.0651367 0)
(1.83163 0.228962 0)
(1.8313 0.228948 0)
(2 -7.84017e-14 0)
(1.83091 0.229119 0)
(1.83129 0.228931 0)
(1.91991 0.121517 0)
(1.9991 0.00542979 0)
(1.96656 0.0573076 0)
(2 2.45396e-14 0)
(1.82938 0.22836 0)
(1.83162 0.228958 0)
(2 -1.21118e-07 0)
(2 -1.81516e-10 0)
(2.13879 -0.259658 0)
(2 -2.448e-10 0)
(2 8.26187e-14 0)
(1.83163 0.228947 0)
(1.83148 0.229046 0)
(1.83169 0.229598 0)
(1.83185 0.228706 0)
(1.83136 0.22912 0)
(1.82839 0.229511 0)
(1.83132 0.229241 0)
(1.83061 0.22943 0)
(1.83124 0.229087 0)
(2 -7.31918e-14 0)
(2.00147 -0.00254853 0)
(1.83176 0.229009 0)
(1.83158 0.228521 0)
(2.00098 -0.00172793 0)
(1.8314 0.228985 0)
(1.83144 0.228976 0)
(2.13887 -0.261088 0)
(2.11145 -0.267908 0)
(1.83013 0.229652 0)
(1.82932 0.230147 0)
(2 7.31844e-14 0)
(2 2.14317e-13 0)
(1.99936 0.00196068 0)
(1.83179 0.228453 0)
(1.83165 0.229235 0)
(1.83174 0.229103 0)
(2 9.35997e-10 0)
(1.8313 0.22889 0)
(2 -3.8703e-15 0)
(2.05008 -0.0960654 0)
(1.82806 0.230985 0)
(1.8285 0.230166 0)
(2 3.60549e-14 0)
(1.92582 0.10765 0)
(1.83084 0.228722 0)
(2 1.02723e-13 0)
(1.82787 0.225868 0)
(2 -1.09035e-10 0)
(1.83166 0.229511 0)
(1.89173 0.152998 0)
(1.83219 0.228217 0)
(2 1.27315e-11 0)
(1.83145 0.229086 0)
(1.83077 0.232381 0)
(2.1334 -0.25829 0)
(1.83201 0.228656 0)
(2 -1.1923e-07 0)
(1.83169 0.22779 0)
(1.82863 0.229039 0)
(2 7.31798e-09 0)
(2.13497 -0.260065 0)
(1.83268 0.227717 0)
(1.86317 0.192147 0)
(2.00074 -0.00101827 0)
(1.82993 0.226725 0)
(1.83172 0.228917 0)
(2 -4.84002e-12 0)
(2.0013 -0.00439386 0)
(1.83218 0.232052 0)
(2.00228 -0.0024285 0)
(1.83111 0.229266 0)
(2 -3.30604e-12 0)
(2 1.51049e-14 0)
(1.83105 0.229637 0)
(2 -2.2298e-14 0)
(1.83186 0.231814 0)
(1.83133 0.228971 0)
(2.0014 -0.00222532 0)
(1.85372 0.201718 0)
(2 3.02113e-09 0)
(1.83145 0.229056 0)
(2 1.74397e-09 0)
(2 -8.72459e-13 0)
(2 9.17032e-12 0)
(2 8.34038e-12 0)
(1.83199 0.229034 0)
(2 7.35453e-09 0)
(2 6.30928e-14 0)
(1.83253 0.22931 0)
(2 1.10926e-14 0)
(1.83134 0.229456 0)
(2 3.30515e-10 0)
(1.89376 0.153949 0)
(1.82941 0.231717 0)
(1.83131 0.22973 0)
(2 4.93915e-10 0)
(2 -5.60922e-14 0)
(1.99953 -0.00550446 0)
(2 2.61803e-12 0)
(1.83114 0.228367 0)