/*--------------------------------*- C++ -*----------------------------------*\
  =========                 |
  \\      /  F ield         | OpenFOAM: The Open Source CFD Toolbox
   \\    /   O peration     | Website:  https://openfoam.org
    \\  /    A nd           | Version:  12
     \\/     M anipulation  |
\*---------------------------------------------------------------------------*/
FoamFile
{
    format      ascii;
    class       volScalarField;
    location    "28.3";
    object      p;
}
// * * * * * * * * * * * * * * * * * * * * * * * * * * * * * * * * * * * * * //

dimensions      [1 -1 -2 0 0 0 0];

internalField   nonuniform List<scalar> 
9801
(
0.645873
0.63536
0.636132
0.638803
0.652497
0.687814
0.716703
0.724187
0.726228
0.725594
0.716385
0.696566
0.688055
0.689681
0.693271
0.698141
0.70915
0.734177
0.752796
0.75674
0.755896
0.750018
0.737851
0.731088
0.732673
0.736979
0.743532
0.751492
0.761457
0.775428
0.788321
0.794229
0.796855
0.796413
0.798009
0.80312
0.810847
0.815915
0.817155
0.819855
0.823228
0.82931
0.847459
0.873968
0.891813
0.900158
0.90476
0.908206
0.90282
0.886727
0.880002
0.881192
0.884585
0.889928
0.897634
0.918588
0.955745
0.979879
0.991269
0.99869
1.00495
1.00635
0.990031
0.974603
0.972464
0.976746
0.983568
0.997919
1.03642
1.07092
1.08862
1.10001
1.10992
1.11761
1.10215
1.07846
1.07558
1.08459
1.09887
1.14016
1.20026
1.23631
1.25677
1.27308
1.28893
1.28967
1.25563
1.22728
1.22964
1.25362
1.30115
1.4166
1.52934
1.60655
1.68196
1.75948
1.7401
3.21073
25.8006
0.654528
0.652441
0.65352
0.66654
0.677764
0.683786
0.699106
0.715026
0.721677
0.72145
0.715366
0.709243
0.704862
0.704474
0.706196
0.710345
0.722167
0.736003
0.747451
0.755366
0.759626
0.761075
0.755178
0.744303
0.741441
0.744113
0.747925
0.751849
0.756727
0.766788
0.787592
0.803175
0.809996
0.8139
0.81572
0.811779
0.80636
0.80909
0.814458
0.819243
0.823186
0.828304
0.843654
0.87473
0.895312
0.905224
0.911114
0.915623
0.913791
0.896828
0.885053
0.884814
0.888953
0.89463
0.901754
0.922505
0.959293
0.983418
0.995708
1.00345
1.00998
1.01154
0.994842
0.97795
0.975654
0.980115
0.987487
1.00051
1.03687
1.07374
1.09372
1.10618
1.11624
1.12404
1.10784
1.08338
1.08032
1.08906
1.1019
1.13048
1.18556
1.22754
1.25327
1.2735
1.29221
1.29873
1.26377
1.23527
1.23803
1.26289
1.29922
1.37592
1.47047
1.54548
1.61626
1.67608
1.63803
3.00645
26.1177
0.644916
0.650528
0.663141
0.687278
0.701965
0.70615
0.708059
0.711667
0.711371
0.705971
0.70303
0.704687
0.707475
0.710476
0.714623
0.720267
0.729218
0.736516
0.741483
0.747789
0.754306
0.758906
0.761166
0.758365
0.755349
0.753775
0.753095
0.753595
0.755759
0.761807
0.782074
0.804877
0.818025
0.825981
0.831696
0.833371
0.821573
0.813423
0.814435
0.819252
0.824981
0.830416
0.8415
0.873347
0.898414
0.909852
0.916376
0.921257
0.922141
0.908268
0.894781
0.893196
0.897148
0.90303
0.910106
0.929345
0.963696
0.986001
0.997164
1.0048
1.01104
1.0117
0.995228
0.977399
0.974031
0.979114
0.987341
0.999748
1.03571
1.07783
1.10006
1.11219
1.12171
1.12732
1.11201
1.08599
1.07864
1.08595
1.09859
1.11914
1.1739
1.22995
1.25926
1.27785
1.29521
1.30325
1.27769
1.24768
1.24161
1.25866
1.29033
1.34037
1.43416
1.52195
1.59326
1.65443
1.63123
3.01948
26.1182
0.630915
0.657277
0.683075
0.70326
0.71407
0.71921
0.713939
0.697196
0.690001
0.692318
0.698233
0.706589
0.714843
0.720308
0.724704
0.727744
0.729615
0.733093
0.737542
0.745812
0.75503
0.762272
0.767974
0.771067
0.766355
0.760291
0.756977
0.757203
0.7597
0.764211
0.784325
0.816404
0.833492
0.841024
0.846731
0.850553
0.840328
0.82038
0.81521
0.818466
0.824793
0.832192
0.843521
0.872533
0.902187
0.916685
0.924334
0.92984
0.933371
0.921784
0.904144
0.901312
0.906109
0.912709
0.919833
0.935098
0.965999
0.988373
0.999506
1.00708
1.01309
1.01384
0.998806
0.981784
0.978947
0.984832
0.993592
1.00498
1.03648
1.0784
1.10106
1.11321
1.12263
1.13054
1.12228
1.0931
1.07968
1.08589
1.09961
1.11629
1.15429
1.21326
1.2507
1.27176
1.29026
1.30687
1.3014
1.27323
1.25368
1.25381
1.2768
1.31378
1.37501
1.45599
1.52555
1.58626
1.60178
3.2342
26.2402
0.631607
0.660343
0.694475
0.711787
0.718073
0.715347
0.699472
0.689125
0.689114
0.693763
0.702172
0.71174
0.720168
0.726016
0.727064
0.724193
0.724697
0.73098
0.742069
0.752037
0.761159
0.76854
0.774533
0.778528
0.771082
0.76389
0.76307
0.765593
0.769426
0.775212
0.798043
0.830537
0.847445
0.854768
0.859644
0.860673
0.846929
0.827243
0.822684
0.826566
0.832549
0.84007
0.850476
0.873077
0.901603
0.917093
0.924662
0.929893
0.934202
0.928246
0.91174
0.907739
0.91182
0.917575
0.923817
0.933895
0.96017
0.984221
0.996453
1.00433
1.01044
1.01384
1.00384
0.985712
0.980627
0.985614
0.994207
1.00467
1.02992
1.07276
1.10002
1.11444
1.1255
1.13581
1.137
1.10941
1.08432
1.08321
1.09552
1.11165
1.13514
1.1881
1.24298
1.27466
1.29607
1.31607
1.32606
1.30663
1.27859
1.26286
1.26633
1.2946
1.33638
1.40407
1.47126
1.52676
1.55323
3.37569
26.4148
0.650706
0.670847
0.688989
0.699041
0.699444
0.693601
0.690811
0.693594
0.699442
0.705247
0.710829
0.716948
0.72301
0.723207
0.717439
0.716839
0.720317
0.733308
0.751338
0.764485
0.772919
0.779186
0.784431
0.783962
0.773977
0.769703
0.771387
0.775382
0.780141
0.789838
0.815685
0.841181
0.853302
0.859351
0.862705
0.86218
0.852107
0.838136
0.833771
0.836988
0.842405
0.847481
0.852402
0.86537
0.89246
0.911768
0.921936
0.929171
0.935398
0.93637
0.922046
0.913006
0.91324
0.916874
0.922056
0.929231
0.949947
0.978379
0.99467
1.00417
1.01135
1.01722
1.01451
0.993193
0.979639
0.982752
0.991926
1.00281
1.02347
1.06705
1.10217
1.11908
1.12999
1.14005
1.14717
1.13097
1.09841
1.08299
1.08709
1.10179
1.11998
1.15518
1.21758
1.26814
1.29957
1.3228
1.34185
1.33742
1.30498
1.27855
1.27058
1.28039
1.30858
1.35541
1.41904
1.46961
1.49813
3.46913
26.5474
0.673377
0.679952
0.676351
0.672018
0.673192
0.678638
0.689603
0.703678
0.713284
0.719485
0.723365
0.726489
0.722092
0.709881
0.705032
0.706671
0.71247
0.734491
0.763429
0.779452
0.787766
0.793437
0.79638
0.786051
0.770981
0.76892
0.772805
0.77929
0.788313
0.804287
0.828999
0.846301
0.853801
0.858016
0.86067
0.862607
0.860507
0.851981
0.845673
0.844868
0.846575
0.847689
0.850112
0.856477
0.88052
0.90825
0.922846
0.931038
0.937608
0.941976
0.930384
0.912332
0.906043
0.908442
0.914032
0.921137
0.938057
0.969978
0.992612
1.00469
1.01303
1.01981
1.02373
1.00805
0.986032
0.980722
0.988172
0.998845
1.01512
1.05458
1.1012
1.12606
1.13849
1.14816
1.15568
1.14958
1.11809
1.09279
1.08482
1.09209
1.10755
1.12916
1.17819
1.24672
1.29507
1.32326
1.34484
1.35592
1.33666
1.30597
1.28523
1.28057
1.29193
1.3198
1.37211
1.42522
1.45472
3.51637
26.5992
0.689836
0.673729
0.65765
0.65458
0.657726
0.670132
0.693745
0.715875
0.72753
0.73331
0.736689
0.731036
0.709401
0.696339
0.69553
0.698788
0.706743
0.737949
0.779269
0.79684
0.803513
0.807796
0.805483
0.786037
0.769611
0.767926
0.771275
0.778169
0.79212
0.812166
0.833146
0.84731
0.854006
0.857329
0.860532
0.865165
0.869568
0.865631
0.85588
0.848402
0.84323
0.841762
0.844313
0.849489
0.869883
0.904874
0.924969
0.934208
0.940674
0.944999
0.93619
0.912848
0.901401
0.902443
0.908569
0.916277
0.93036
0.96111
0.989821
1.00491
1.01419
1.02179
1.02902
1.02552
1.0008
0.986858
0.988869
0.998424
1.01077
1.03804
1.08966
1.12746
1.14458
1.15469
1.16211
1.16343
1.14195
1.11102
1.09627
1.09467
1.10393
1.1193
1.1433
1.20115
1.26597
1.30713
1.33347
1.3557
1.35992
1.34023
1.31202
1.29202
1.28843
1.29872
1.32743
1.37997
1.41498
3.54976
26.6566
0.685935
0.657244
0.648528
0.649323
0.654767
0.67762
0.710287
0.72871
0.736364
0.741505
0.741703
0.718211
0.693815
0.689207
0.691764
0.696853
0.710557
0.752285
0.791548
0.806273
0.812555
0.814445
0.80296
0.785661
0.775982
0.77473
0.777936
0.78439
0.79456
0.805865
0.819431
0.835797
0.850122
0.859392
0.866273
0.872214
0.877443
0.87962
0.866498
0.847667
0.837142
0.836888
0.840914
0.847158
0.866181
0.901061
0.923592
0.933983
0.940427
0.942833
0.937123
0.919827
0.905985
0.904057
0.908004
0.914954
0.925496
0.949727
0.983679
1.00479
1.01585
1.02423
1.0324
1.03807
1.02248
1.0008
0.996005
1.001
1.01035
1.02324
1.05997
1.11139
1.14041
1.1538
1.16306
1.17119
1.16927
1.14424
1.11951
1.10914
1.10788
1.11514
1.13002
1.15958
1.22126
1.27896
1.31601
1.34263
1.36364
1.35862
1.3429
1.31901
1.2972
1.28884
1.29404
1.32712
1.37063
3.57436
26.7347
0.66635
0.649068
0.649761
0.652973
0.665136
0.698383
0.725508
0.736066
0.74202
0.745235
0.728284
0.696888
0.686154
0.687435
0.690904
0.698826
0.729504
0.769864
0.794039
0.805764
0.809754
0.80349
0.79473
0.791055
0.787216
0.786708
0.791055
0.798108
0.801651
0.799453
0.800367
0.810694
0.836514
0.859118
0.871475
0.878336
0.883519
0.887475
0.877214
0.847903
0.835338
0.836257
0.840539
0.847263
0.866536
0.897792
0.918586
0.928734
0.934433
0.935757
0.935687
0.930316
0.915936
0.909501
0.912129
0.918221
0.925295
0.938216
0.970899
1.00241
1.01918
1.02986
1.03926
1.04735
1.04467
1.02075
1.00575
1.00412
1.00752
1.01522
1.02976
1.07273
1.12191
1.14927
1.16487
1.17758
1.18852
1.1834
1.1532
1.12804
1.11755
1.11832
1.12684
1.14212
1.17561
1.23459
1.28375
1.31729
1.34368
1.36061
1.35479
1.34513
1.32436
1.29773
1.27899
1.28375
1.31691
3.58035
26.7992
0.650908
0.645572
0.648525
0.657599
0.688359
0.723316
0.737086
0.743012
0.746264
0.733403
0.703354
0.6884
0.687254
0.690033
0.697743
0.722259
0.751882
0.772522
0.786713
0.792753
0.792126
0.790549
0.795037
0.80055
0.807579
0.811455
0.811665
0.808942
0.800655
0.791646
0.790048
0.794054
0.815656
0.853853
0.874516
0.882235
0.887231
0.890554
0.880242
0.853278
0.840401
0.841096
0.845347
0.852312
0.869132
0.895196
0.913322
0.922587
0.927769
0.931463
0.936799
0.941815
0.933937
0.921613
0.919223
0.921755
0.926539
0.933633
0.953481
0.993685
1.02227
1.03703
1.04674
1.05486
1.0596
1.04241
1.01569
1.00422
1.00359
1.00885
1.01859
1.03711
1.08514
1.13632
1.16608
1.18238
1.1942
1.20259
1.19515
1.16727
1.14221
1.12991
1.12869
1.13656
1.15196
1.18699
1.24039
1.28372
1.3143
1.33864
1.35248
1.3512
1.34782
1.3286
1.29315
1.2624
1.25686
3.56069
26.8669
0.648769
0.649047
0.652348
0.672253
0.712799
0.7356
0.743603
0.745952
0.733908
0.709013
0.695122
0.691899
0.694022
0.704944
0.730483
0.749784
0.757622
0.764788
0.768772
0.770316
0.772569
0.780598
0.799159
0.818512
0.829664
0.835431
0.832452
0.813851
0.792423
0.783495
0.783756
0.787446
0.803602
0.845001
0.872418
0.882591
0.888247
0.891007
0.880494
0.860118
0.849378
0.849571
0.854038
0.860083
0.869881
0.887551
0.905449
0.916854
0.924865
0.933925
0.942878
0.950304
0.954387
0.941079
0.92691
0.922666
0.925202
0.931449
0.941699
0.976056
1.02058
1.04347
1.05457
1.06272
1.06851
1.06267
1.03286
1.01105
1.0063
1.00941
1.01582
1.02705
1.04715
1.09673
1.14726
1.17594
1.19289
1.20765
1.21946
1.21403
1.18389
1.15416
1.13868
1.13708
1.1446
1.15856
1.1916
1.24078
1.28133
1.31014
1.33219
1.34718
1.35253
1.34909
1.32645
1.28011
1.22314
3.5068
26.9596
0.651774
0.655527
0.670699
0.702123
0.726876
0.738471
0.740732
0.731467
0.713038
0.703594
0.702079
0.705533
0.719916
0.742773
0.756387
0.759887
0.753344
0.743762
0.742606
0.750527
0.766855
0.789912
0.816686
0.834316
0.842669
0.847748
0.840057
0.806943
0.782397
0.77792
0.780566
0.786365
0.806625
0.844598
0.870556
0.881872
0.888165
0.889192
0.880264
0.86828
0.860573
0.8591
0.861013
0.863772
0.867497
0.874359
0.893613
0.915204
0.929981
0.941631
0.953845
0.963804
0.970972
0.966498
0.940625
0.925359
0.923758
0.929354
0.936951
0.956713
1.00639
1.04468
1.05973
1.06759
1.07152
1.07344
1.06
1.03147
1.01727
1.01616
1.01972
1.02532
1.03544
1.05239
1.10014
1.15468
1.18881
1.20875
1.22291
1.23283
1.22535
1.19543
1.163
1.14524
1.14304
1.1505
1.16299
1.19571
1.24376
1.28298
1.31052
1.33103
1.34539
1.3491
1.34257
1.30507
1.23016
3.43335
27.0779
0.658712
0.677852
0.700995
0.716365
0.726676
0.729779
0.723958
0.712004
0.709581
0.712834
0.721174
0.740484
0.756594
0.7648
0.76703
0.753328
0.731177
0.723614
0.725461
0.736059
0.77054
0.813003
0.834788
0.842604
0.847752
0.850386
0.831934
0.793153
0.776538
0.776396
0.779653
0.788049
0.81481
0.851502
0.871879
0.881691
0.886958
0.885578
0.881082
0.8763
0.869689
0.865138
0.861915
0.861197
0.863927
0.869014
0.881913
0.911702
0.938261
0.956624
0.968731
0.977176
0.983725
0.984349
0.959043
0.932049
0.925567
0.928355
0.934639
0.946438
0.983685
1.03581
1.06237
1.07204
1.07646
1.08053
1.08382
1.06954
1.04555
1.03364
1.03097
1.03038
1.02917
1.03356
1.04955
1.10102
1.162
1.1974
1.21776
1.23261
1.23854
1.2256
1.19649
1.16666
1.15015
1.14805
1.15522
1.16885
1.20139
1.24809
1.28627
1.31163
1.32989
1.34015
1.34001
1.31896
1.26092
3.37875
27.1934
0.683579
0.704941
0.71072
0.713466
0.711427
0.708982
0.709173
0.711587
0.718181
0.738386
0.763328
0.776197
0.781553
0.780602
0.760216
0.727856
0.715584
0.715913
0.719738
0.731879
0.779349
0.829229
0.845319
0.851928
0.854175
0.839804
0.806795
0.783835
0.777681
0.779206
0.783409
0.796118
0.825227
0.854265
0.871328
0.879011
0.881081
0.879829
0.879854
0.880444
0.877576
0.870053
0.864577
0.861764
0.86316
0.868606
0.876912
0.903258
0.944101
0.968691
0.982294
0.989777
0.995113
0.995353
0.977294
0.946143
0.933104
0.93458
0.942687
0.953589
0.966573
1.004
1.04836
1.06994
1.07854
1.08472
1.09406
1.1036
1.0924
1.06425
1.04528
1.03318
1.02473
1.02571
1.03405
1.05384
1.11235
1.17448
1.20618
1.22232
1.23285
1.23024
1.2172
1.1969
1.17393
1.15826
1.1541
1.1575
1.16843
1.20044
1.24989
1.28711
1.30986
1.3248
1.32896
1.31989
1.29193
3.35837
27.2884
0.706626
0.71526
0.710788
0.693217
0.686436
0.689928
0.700977
0.719241
0.750958
0.778494
0.789982
0.794574
0.796803
0.782119
0.737143
0.713604
0.711729
0.714828
0.721479
0.745158
0.798154
0.834526
0.84942
0.854949
0.845184
0.816592
0.795851
0.78638
0.783486
0.787487
0.799332
0.816535
0.829962
0.844835
0.859137
0.867268
0.871332
0.874197
0.879444
0.885878
0.890008
0.884545
0.873781
0.867678
0.867805
0.872277
0.878235
0.89321
0.93656
0.973953
0.989234
0.997753
1.00344
1.00527
0.9981
0.973077
0.951895
0.947792
0.951341
0.957186
0.962979
0.971862
1.00691
1.05218
1.07712
1.09283
1.10925
1.11876
1.12399
1.10476
1.06663
1.03868
1.02795
1.02865
1.03576
1.04529
1.06845
1.12406
1.17201
1.19721
1.21317
1.22265
1.22148
1.21883
1.20779
1.185
1.16238
1.15032
1.14881
1.15908
1.1975
1.25017
1.28531
1.3042
1.3143
1.31221
1.31124
3.37817
27.3813
0.718622
0.714525
0.690047
0.677617
0.677454
0.681739
0.696388
0.742756
0.788135
0.80294
0.807307
0.807358
0.796234
0.758453
0.728133
0.717161
0.716572
0.720618
0.738075
0.773502
0.806456
0.83006
0.83824
0.833018
0.815883
0.805869
0.802098
0.799433
0.803315
0.812539
0.82355
0.830134
0.829776
0.827283
0.830882
0.84713
0.864226
0.87581
0.885101
0.894244
0.902616
0.907736
0.897918
0.88133
0.874572
0.874653
0.878595
0.885181
0.912219
0.962426
0.991221
1.00283
1.00842
1.0112
1.01426
1.00517
0.977962
0.960671
0.957024
0.957991
0.958063
0.961871
0.973031
1.01103
1.06427
1.09765
1.11305
1.12105
1.12637
1.12938
1.10906
1.06977
1.04652
1.04148
1.04511
1.05228
1.06109
1.08028
1.12065
1.16064
1.18936
1.20793
1.22033
1.22552
1.22771
1.21854
1.18754
1.15271
1.13609
1.13768
1.1528
1.19616
1.25024
1.28128
1.29621
1.29878
1.31775
3.43739
27.4868
0.727427
0.697809
0.676278
0.673572
0.675966
0.680481
0.705068
0.764579
0.797848
0.808783
0.813445
0.806771
0.772571
0.745351
0.733338
0.728747
0.732777
0.75072
0.77607
0.789233
0.797851
0.803594
0.80369
0.801588
0.801393
0.806923
0.817164
0.82966
0.838585
0.841752
0.840057
0.831535
0.816075
0.806232
0.806866
0.820374
0.852995
0.880151
0.899577
0.912743
0.921039
0.926588
0.921202
0.895778
0.8779
0.874327
0.876911
0.882244
0.894197
0.935125
0.982382
1.00385
1.01217
1.0174
1.02162
1.02427
1.01085
0.982434
0.966656
0.962163
0.962461
0.963579
0.965269
0.97459
1.00922
1.06554
1.09875
1.1139
1.12388
1.13221
1.13689
1.11653
1.082
1.06145
1.0551
1.05551
1.05906
1.06558
1.07895
1.11206
1.15491
1.1878
1.20775
1.22088
1.22947
1.23258
1.2188
1.17701
1.14066
1.12957
1.13559
1.15135
1.19846
1.2479
1.27266
1.27811
1.30878
3.52766
27.6221
0.723361
0.694605
0.681229
0.679655
0.683541
0.699408
0.732082
0.769679
0.797028
0.804741
0.79845
0.774836
0.759392
0.751611
0.74899
0.75624
0.773783
0.790803
0.797529
0.79432
0.775315
0.76463
0.768571
0.784302
0.802952
0.822453
0.845418
0.86107
0.86886
0.869573
0.850845
0.817695
0.79615
0.791904
0.794996
0.80435
0.840509
0.890484
0.91742
0.928803
0.934535
0.935583
0.931667
0.909549
0.882731
0.875647
0.87819
0.886179
0.899235
0.912345
0.947982
0.989665
1.00949
1.01744
1.0182
1.02176
1.02666
1.01822
0.992298
0.974777
0.967818
0.962332
0.958857
0.961143
0.969427
1.00165
1.06142
1.10119
1.11951
1.13074
1.13942
1.14314
1.12623
1.09666
1.07381
1.06245
1.06047
1.06368
1.06919
1.07967
1.11204
1.15802
1.19133
1.21109
1.22464
1.23195
1.23116
1.21074
1.1686
1.13947
1.13346
1.13709
1.15127
1.19732
1.23634
1.24897
1.28609
3.64413
27.7929
0.714227
0.696565
0.694014
0.698736
0.711204
0.728219
0.74201
0.757615
0.767942
0.767973
0.759386
0.753532
0.757484
0.766215
0.784157
0.801507
0.809681
0.811344
0.801427
0.76917
0.746611
0.742082
0.745875
0.767483
0.813256
0.853807
0.873485
0.881476
0.885653
0.882623
0.849708
0.803601
0.78715
0.786884
0.790632
0.801614
0.835636
0.8923
0.921967
0.932264
0.936252
0.932336
0.924864
0.917098
0.898852
0.88595
0.886705
0.896213
0.903859
0.907682
0.913523
0.941054
0.981238
1.00227
1.01352
1.02407
1.03322
1.03979
1.03046
0.997517
0.971905
0.960575
0.956804
0.955362
0.95696
0.964529
0.994152
1.05595
1.10108
1.12231
1.13483
1.14264
1.14282
1.1319
1.11065
1.08762
1.07348
1.06962
1.07056
1.07505
1.08635
1.12293
1.17127
1.20113
1.21857
1.22956
1.23377
1.22889
1.2053
1.16934
1.14404
1.13441
1.13387
1.14388
1.18479
1.21158
1.25731
3.77665
27.9858
0.717194
0.711011
0.715674
0.72729
0.736761
0.740671
0.7403
0.73019
0.725743
0.734742
0.748026
0.758789
0.773934
0.80065
0.821324
0.830498
0.83373
0.819929
0.774506
0.740698
0.732258
0.733807
0.739195
0.76331
0.828619
0.874223
0.887601
0.89403
0.893186
0.870387
0.829561
0.800885
0.790236
0.789917
0.796258
0.819392
0.848984
0.87906
0.9088
0.922202
0.924012
0.918027
0.92023
0.925726
0.92806
0.916746
0.906562
0.90521
0.904904
0.899331
0.895218
0.900684
0.932293
0.981456
1.01076
1.0251
1.03475
1.04171
1.04744
1.03634
0.998341
0.96962
0.957129
0.952828
0.953805
0.958525
0.966452
0.992146
1.05125
1.09686
1.11857
1.13145
1.14144
1.1483
1.1465
1.12961
1.10267
1.0833
1.07589
1.07546
1.07879
1.09562
1.14125
1.18662
1.2116
1.2254
1.23166
1.23407
1.22748
1.20565
1.17419
1.14345
1.12466
1.11761
1.12763
1.16279
1.22037
3.90226
28.1516
0.735087
0.735153
0.737957
0.741108
0.742657
0.735093
0.712709
0.698715
0.697803
0.705384
0.734924
0.777979
0.815202
0.83328
0.839067
0.841799
0.837299
0.797083
0.748686
0.729979
0.728675
0.731358
0.740746
0.782812
0.848635
0.879151
0.89009
0.894341
0.878304
0.844883
0.821816
0.807197
0.800521
0.803627
0.823728
0.847134
0.854835
0.859052
0.869006
0.891944
0.907791
0.916292
0.924827
0.939123
0.953098
0.956204
0.935875
0.911595
0.895885
0.88534
0.882832
0.886938
0.897209
0.936343
0.991822
1.02327
1.03678
1.04441
1.04976
1.05248
1.03765
1.00241
0.97414
0.96071
0.958759
0.961937
0.965184
0.970244
0.988083
1.03914
1.09123
1.12463
1.14362
1.15558
1.16252
1.15998
1.14313
1.11202
1.08611
1.07566
1.07643
1.08446
1.10734
1.15541
1.19654
1.21792
1.22738
1.23369
1.23574
1.22665
1.20846
1.17604
1.13714
1.10827
1.09534
1.10285
1.1722
3.99425
28.2437
0.758357
0.758574
0.751118
0.744518
0.725915
0.703209
0.691358
0.690311
0.693219
0.697972
0.723392
0.795463
0.837118
0.847693
0.852095
0.846078
0.809824
0.764178
0.739097
0.731947
0.732084
0.736505
0.761783
0.811664
0.852531
0.87543
0.882273
0.871323
0.842961
0.827922
0.825318
0.823613
0.826096
0.83754
0.851506
0.857179
0.852856
0.839912
0.838721
0.854768
0.892981
0.922193
0.943932
0.963304
0.973824
0.978292
0.964958
0.92344
0.891449
0.881062
0.881911
0.88803
0.896613
0.910176
0.949183
1.00198
1.02985
1.04001
1.04337
1.04649
1.05229
1.04989
1.02132
0.989485
0.973249
0.965728
0.962615
0.965012
0.97093
0.986494
1.03835
1.10086
1.13592
1.15085
1.1596
1.16205
1.16178
1.15174
1.11965
1.09032
1.0793
1.08203
1.09005
1.1138
1.16214
1.20269
1.22216
1.22887
1.23314
1.23313
1.22575
1.20932
1.17396
1.12378
1.09041
1.06744
1.10493
4.01927
28.2751
0.771748
0.774659
0.75805
0.728847
0.700827
0.685746
0.683414
0.685983
0.690303
0.703123
0.749131
0.806589
0.83747
0.848119
0.849113
0.82196
0.780154
0.754881
0.742597
0.739754
0.745294
0.770781
0.804526
0.824457
0.838854
0.848284
0.845342
0.835162
0.827456
0.82919
0.834383
0.850911
0.869898
0.877973
0.875093
0.859195
0.836964
0.82695
0.828233
0.835121
0.866111
0.924067
0.963689
0.98056
0.987355
0.988768
0.979522
0.946063
0.904415
0.888694
0.889172
0.899756
0.91311
0.921701
0.926713
0.946459
0.990236
1.02065
1.03584
1.04994
1.06156
1.06838
1.06519
1.03395
0.993766
0.970131
0.964276
0.967422
0.973103
0.980649
0.999298
1.04367
1.0985
1.13243
1.14819
1.15709
1.16232
1.16936
1.16372
1.1281
1.09524
1.08322
1.08648
1.0936
1.11554
1.16471
1.20394
1.22003
1.22537
1.2292
1.23044
1.22072
1.20838
1.16523
1.11008
1.06651
1.042
3.95649
28.2835
0.771658
0.765628
0.738655
0.715768
0.697576
0.687711
0.686215
0.688888
0.701152
0.733376
0.767965
0.799602
0.819877
0.823476
0.809861
0.785444
0.767836
0.759317
0.758826
0.76719
0.79087
0.816268
0.827372
0.828194
0.816395
0.803654
0.804994
0.817835
0.829654
0.843346
0.869163
0.895577
0.908612
0.911745
0.894013
0.854054
0.828563
0.823555
0.825766
0.831531
0.85357
0.914236
0.966905
0.984971
0.988005
0.975366
0.962965
0.955255
0.939029
0.922254
0.918833
0.922846
0.925928
0.922258
0.917345
0.9178
0.93274
0.977903
1.02494
1.05088
1.06162
1.06755
1.07352
1.07148
1.04299
1.00577
0.985252
0.981075
0.983517
0.988118
0.995061
1.00417
1.03711
1.09705
1.1357
1.15389
1.16606
1.17336
1.17872
1.16963
1.13021
1.09588
1.08686
1.09172
1.09727
1.11545
1.16192
1.1982
1.21269
1.21918
1.22673
1.22082
1.2169
1.19934
1.14781
1.08302
1.02515
3.81687
28.2934
0.751196
0.739006
0.728723
0.718388
0.703303
0.697243
0.700316
0.712626
0.738608
0.757442
0.76572
0.772796
0.776344
0.778701
0.779986
0.778661
0.776347
0.78009
0.795956
0.817238
0.829821
0.834514
0.834044
0.813118
0.782313
0.771249
0.774435
0.794419
0.833931
0.878213
0.915832
0.931168
0.936466
0.931548
0.900198
0.857391
0.835277
0.830053
0.834155
0.853182
0.872704
0.89347
0.932118
0.958955
0.965139
0.962804
0.96412
0.967183
0.97436
0.976587
0.962805
0.946038
0.932384
0.919152
0.908502
0.905064
0.909078
0.923878
0.972762
1.02608
1.05274
1.06719
1.07625
1.08138
1.07508
1.05253
1.0228
1.00203
0.993682
0.991683
0.991448
0.993932
1.00377
1.04636
1.1116
1.14942
1.16518
1.17169
1.17731
1.18138
1.16684
1.12817
1.10249
1.0935
1.09255
1.09517
1.10981
1.15543
1.18971
1.20554
1.21576
1.21673
1.21171
1.20712
1.17952
1.11943
1.04269
3.64778
28.3518
0.727085
0.72845
0.730028
0.730245
0.729041
0.729149
0.733873
0.744042
0.754414
0.759114
0.753735
0.73708
0.732605
0.742697
0.764111
0.78079
0.798569
0.823469
0.843419
0.853093
0.856864
0.850174
0.821054
0.780344
0.760835
0.7591
0.763041
0.774293
0.825738
0.909518
0.944326
0.955231
0.957219
0.94509
0.910149
0.870747
0.850135
0.846494
0.857309
0.872739
0.878063
0.879366
0.879165
0.900769
0.934485
0.955876
0.96947
0.989083
1.00714
1.01389
1.0062
0.978911
0.944637
0.914946
0.899484
0.898258
0.904032
0.911598
0.927267
0.985824
1.04762
1.07149
1.07949
1.08291
1.08052
1.07603
1.06632
1.04309
1.01731
1.00159
0.996132
0.998017
1.0049
1.01652
1.05965
1.12093
1.15288
1.16559
1.16948
1.17467
1.17828
1.16477
1.13763
1.11109
1.09371
1.08556
1.08521
1.10214
1.14598
1.18033
1.19892
1.20856
1.20381
1.20151
1.19342
1.15542
1.09581
3.50147
28.4653
0.717486
0.735245
0.743025
0.750225
0.757942
0.76353
0.765138
0.763056
0.759403
0.743768
0.723776
0.71558
0.716671
0.722929
0.746224
0.789816
0.83307
0.857802
0.866502
0.869382
0.870168
0.85368
0.798751
0.76298
0.754601
0.756071
0.761316
0.785973
0.850968
0.914459
0.947508
0.958731
0.953272
0.929247
0.912094
0.896592
0.880506
0.873817
0.876361
0.880078
0.874737
0.859247
0.854044
0.861034
0.890829
0.938059
0.9806
1.01018
1.02584
1.03222
1.03306
1.0166
0.967008
0.920122
0.903583
0.903356
0.909123
0.918575
0.934816
0.961054
1.00584
1.04642
1.06472
1.07228
1.07688
1.07966
1.08527
1.08885
1.07478
1.04525
1.02305
1.0122
1.00785
1.00852
1.0182
1.06298
1.12082
1.15117
1.16259
1.17023
1.17805
1.18441
1.17174
1.14754
1.11428
1.08645
1.07356
1.07168
1.09043
1.13439
1.17237
1.19398
1.19796
1.19319
1.19273
1.17524
1.15338
3.4245
28.6137
0.704775
0.745295
0.762256
0.77145
0.776599
0.780206
0.78212
0.777524
0.754693
0.727391
0.713421
0.711122
0.713512
0.718218
0.735403
0.791654
0.846118
0.86819
0.87668
0.880769
0.869481
0.826154
0.785549
0.764282
0.758297
0.76069
0.785002
0.827194
0.85739
0.890023
0.919307
0.929598
0.924067
0.916828
0.917643
0.919658
0.916574
0.904258
0.88775
0.869843
0.854938
0.846001
0.845174
0.849019
0.858684
0.897808
0.967671
1.01141
1.02545
1.02847
1.01888
1.00041
0.978124
0.950382
0.930687
0.929379
0.937473
0.950209
0.961973
0.965317
0.969333
0.985079
1.01804
1.04978
1.0711
1.0885
1.10448
1.11722
1.12305
1.1049
1.06347
1.02775
1.00932
1.00381
1.00594
1.01717
1.06351
1.12478
1.15888
1.172
1.1787
1.18671
1.18968
1.17776
1.15277
1.10613
1.07196
1.05938
1.06033
1.079
1.12624
1.16821
1.18733
1.18558
1.18574
1.17759
1.18599
3.4212
28.7724
0.69466
0.744721
0.771711
0.782285
0.787686
0.788277
0.782966
0.773614
0.755364
0.732525
0.719196
0.7171
0.722445
0.736006
0.754565
0.787199
0.839187
0.867332
0.875531
0.871617
0.847257
0.816799
0.791824
0.775994
0.774929
0.793078
0.831966
0.850879
0.854838
0.854613
0.855411
0.873623
0.896546
0.912529
0.926512
0.937117
0.942046
0.932814
0.901445
0.871853
0.855655
0.849251
0.850123
0.858211
0.870935
0.885778
0.91615
0.964524
0.989311
0.993963
0.993439
0.991285
0.990977
0.994255
0.991344
0.982081
0.97626
0.973609
0.968151
0.958153
0.949006
0.94949
0.961107
1.00793
1.06968
1.10704
1.12596
1.13798
1.14052
1.13528
1.11032
1.05965
1.02097
1.00541
1.00441
1.0082
1.02001
1.06393
1.12598
1.16267
1.1783
1.1878
1.19507
1.18716
1.17858
1.14961
1.09438
1.06147
1.05155
1.05447
1.0725
1.12338
1.16319
1.17442
1.17482
1.16828
1.19869
3.46634
28.9085
0.701849
0.730037
0.766092
0.783735
0.789383
0.788966
0.787473
0.780116
0.765427
0.749021
0.741326
0.74239
0.74812
0.753861
0.759925
0.77325
0.80506
0.837353
0.848082
0.846028
0.83246
0.822997
0.813123
0.809591
0.81852
0.84093
0.854522
0.856452
0.843964
0.816608
0.806244
0.814329
0.852898
0.899305
0.927075
0.938922
0.942818
0.942047
0.929271
0.898903
0.873679
0.864388
0.865876
0.87226
0.877918
0.879964
0.878709
0.887607
0.919752
0.953139
0.974446
0.99176
1.0144
1.03441
1.04326
1.03869
1.01976
0.990766
0.961571
0.943534
0.935492
0.935787
0.94012
0.964612
1.03931
1.1037
1.12788
1.13709
1.13688
1.13364
1.12829
1.09943
1.05099
1.02159
1.01357
1.01368
1.01291
1.02096
1.05818
1.12478
1.16635
1.18264
1.18836
1.18889
1.18449
1.18082
1.14127
1.0845
1.05588
1.04899
1.05088
1.0715
1.12238
1.15154
1.15792
1.15241
1.19575
3.53765
29.0198
0.70652
0.710245
0.731489
0.764196
0.779036
0.789454
0.796052
0.800662
0.798277
0.787557
0.777806
0.769008
0.762354
0.760251
0.758849
0.759482
0.766233
0.794574
0.824691
0.836277
0.83841
0.839159
0.844029
0.859001
0.875774
0.879587
0.871387
0.84746
0.811037
0.789447
0.784999
0.788624
0.805828
0.858239
0.911118
0.932729
0.94097
0.94683
0.952947
0.947521
0.920209
0.895566
0.883892
0.880258
0.875858
0.863408
0.853134
0.852342
0.862459
0.893406
0.942056
0.995493
1.03771
1.06018
1.06901
1.07236
1.06076
1.01847
0.970062
0.943402
0.935721
0.936463
0.944783
0.972079
1.00631
1.05983
1.10541
1.12344
1.12532
1.11744
1.11554
1.11353
1.09017
1.0579
1.03603
1.02221
1.01427
1.01066
1.01415
1.05081
1.11964
1.16217
1.18091
1.19116
1.19048
1.18768
1.17303
1.12769
1.0801
1.05248
1.04488
1.04689
1.07308
1.11287
1.132
1.13287
1.18614
3.62061
29.1282
0.697516
0.691879
0.696138
0.735544
0.778305
0.803436
0.820445
0.831968
0.838203
0.829237
0.801866
0.780294
0.764644
0.753543
0.748776
0.747455
0.748844
0.756687
0.788038
0.824537
0.845858
0.862912
0.890278
0.911466
0.916899
0.908594
0.874654
0.819921
0.783456
0.77255
0.773054
0.777192
0.786117
0.810194
0.86998
0.922161
0.945249
0.958461
0.967809
0.971634
0.965424
0.938459
0.906875
0.883861
0.866855
0.853878
0.844137
0.842067
0.845678
0.853533
0.888231
0.975464
1.04043
1.06187
1.07002
1.07353
1.06486
1.04194
1.00373
0.965749
0.949778
0.949585
0.964012
0.983066
0.990459
1.00176
1.0438
1.08176
1.09706
1.10153
1.10502
1.10988
1.11044
1.09904
1.07291
1.04253
1.02109
1.00766
1.00221
1.00633
1.04622
1.11863
1.16414
1.18247
1.18714
1.1833
1.17814
1.15871
1.12516
1.08293
1.05305
1.04353
1.04435
1.06602
1.09704
1.10932
1.17422
3.70933
29.2315
0.681616
0.677963
0.6803
0.707443
0.779744
0.831022
0.850985
0.859282
0.86331
0.850687
0.810518
0.773492
0.75666
0.749369
0.745634
0.743403
0.741917
0.7428
0.749062
0.781846
0.839494
0.896831
0.937286
0.951216
0.953985
0.935792
0.873908
0.805717
0.775387
0.76837
0.769611
0.777159
0.78669
0.799553
0.826875
0.892467
0.94763
0.965423
0.969614
0.972015
0.971815
0.96675
0.946846
0.912051
0.880577
0.859083
0.847905
0.847831
0.853881
0.862369
0.881763
0.929546
0.998349
1.03745
1.04943
1.05091
1.04204
1.037
1.03257
1.01608
0.993161
0.982767
0.983791
0.98544
0.977686
0.974302
0.982092
1.02433
1.07125
1.09286
1.10123
1.10892
1.11874
1.12188
1.10686
1.07627
1.03837
1.00952
0.99734
0.996733
1.0054
1.04716
1.11761
1.15943
1.17548
1.1774
1.17564
1.17132
1.15778
1.13131
1.09103
1.05464
1.03938
1.0371
1.05668
1.08343
1.16233
3.7913
29.2874
0.671689
0.670756
0.677899
0.700649
0.774749
0.841401
0.86065
0.86806
0.870984
0.857086
0.818376
0.779786
0.760844
0.753891
0.749904
0.745403
0.740674
0.739661
0.741923
0.752892
0.815148
0.915482
0.95164
0.961419
0.956358
0.912136
0.853525
0.810623
0.784796
0.775742
0.776802
0.786361
0.804228
0.826727
0.849833
0.875203
0.910231
0.942319
0.954621
0.95684
0.956121
0.95384
0.954109
0.951392
0.928711
0.896549
0.877386
0.87383
0.877742
0.884285
0.894878
0.904833
0.925
0.969024
1.00989
1.02925
1.0375
1.04353
1.04986
1.05787
1.05469
1.03063
1.00137
0.977555
0.961321
0.952795
0.953778
0.971036
1.0256
1.07573
1.10076
1.11382
1.12284
1.12979
1.12467
1.1056
1.07043
1.031
1.00771
1.00018
1.00199
1.00891