/*--------------------------------*- C++ -*----------------------------------*\
  =========                 |
  \\      /  F ield         | OpenFOAM: The Open Source CFD Toolbox
   \\    /   O peration     | Website:  https://openfoam.org
    \\  /    A nd           | Version:  12
     \\/     M anipulation  |
\*---------------------------------------------------------------------------*/
FoamFile
{
    format      ascii;
    class       volScalarField;
    location    "28.3";
    object      rho;
}
// * * * * * * * * * * * * * * * * * * * * * * * * * * * * * * * * * * * * * //

dimensions      [1 -3 0 0 0 0 0];

internalField   nonuniform List<scalar> 
9801
(
1.26924
1.27929
1.28187
1.29226
1.30787
1.32477
1.33597
1.34131
1.33403
1.29542
1.24973
1.22904
1.227
1.2297
1.2451
1.28423
1.34761
1.40984
1.44564
1.46155
1.46773
1.45952
1.42453
1.37127
1.3361
1.32529
1.32906
1.34203
1.36662
1.39776
1.42858
1.46532
1.51137
1.54388
1.55424
1.55266
1.54117
1.51408
1.48447
1.46391
1.45756
1.46268
1.47314
1.48305
1.49296
1.50463
1.5211
1.56425
1.63202
1.66951
1.68308
1.68879
1.68446
1.65137
1.60434
1.57492
1.56684
1.56966
1.57665
1.5856
1.60588
1.65705
1.71087
1.7404
1.75644
1.769
1.77962
1.78341
1.76008
1.72739
1.71727
1.72083
1.72977
1.7518
1.80074
1.84949
1.88839
1.92016
1.94684
1.97054
1.96582
1.94839
1.96167
1.98783
2.0299
2.11009
2.1815
2.22865
2.26592
2.29914
2.31581
2.30648
2.28508
2.27506
2.28729
2.36202
2.58632
6.19432
33.1991
1.25942
1.28856
1.30526
1.31818
1.32753
1.33504
1.33998
1.32539
1.29096
1.2684
1.25648
1.24612
1.24566
1.26217
1.29607
1.32247
1.34559
1.38345
1.41678
1.42911
1.42626
1.41516
1.40593
1.39596
1.37366
1.36189
1.36423
1.3717
1.38015
1.38748
1.39997
1.42333
1.46379
1.50184
1.52302
1.53467
1.54238
1.54403
1.52725
1.50745
1.49103
1.47787
1.47422
1.47761
1.48263
1.48952
1.49987
1.53521
1.60101
1.64283
1.66159
1.67299
1.68007
1.67235
1.63586
1.59766
1.57907
1.57623
1.5805
1.58757
1.60442
1.65607
1.71255
1.74408
1.76204
1.77496
1.78569
1.79048
1.76751
1.73344
1.72297
1.72795
1.73848
1.76081
1.81367
1.86985
1.90756
1.93522
1.95824
1.97852
1.97071
1.94325
1.94128
1.9602
1.98789
2.0457
2.1185
2.17452
2.21842
2.25854
2.29299
2.29861
2.28391
2.27745
2.2869
2.33227
2.37234
5.62452
33.0248
1.24902
1.30465
1.32279
1.33058
1.33642
1.33345
1.29958
1.26183
1.24796
1.24966
1.25409
1.25921
1.27711
1.30999
1.32797
1.335
1.3402
1.34249
1.34429
1.35876
1.37797
1.39039
1.40176
1.41375
1.41932
1.40348
1.38392
1.37714
1.37423
1.36823
1.36148
1.36405
1.38697
1.44483
1.49554
1.52408
1.54255
1.55537
1.56071
1.55027
1.51274
1.47922
1.46428
1.45715
1.4548
1.45675
1.4617
1.4798
1.54372
1.60923
1.64275
1.66103
1.67367
1.68113
1.65659
1.60394
1.57285
1.56764
1.57254
1.58
1.59321
1.64156
1.70394
1.73858
1.75657
1.76792
1.77739
1.78259
1.75801
1.72135
1.71057
1.71878
1.73201
1.75272
1.8035
1.86395
1.9035
1.93045
1.95199
1.96982
1.95871
1.9089
1.88193
1.88946
1.91238
1.95259
2.03298
2.1078
2.15779
2.19839
2.23916
2.25881
2.24684
2.24034
2.24505
2.27647
2.25578
5.19889
32.3309
1.23649
1.30724
1.32233
1.32934
1.32093
1.28657
1.25042
1.23455
1.23428
1.23846
1.24618
1.27259
1.31555
1.336
1.34116
1.34165
1.32378
1.28982
1.2784
1.28707
1.32348
1.36882
1.4037
1.42872
1.44135
1.44303
1.41824
1.38433
1.3536
1.32962
1.3228
1.32569
1.33651
1.37907
1.45735
1.51645
1.54467
1.55679
1.56381
1.56172
1.53653
1.48588
1.44078
1.41908
1.41567
1.42012
1.42749
1.44128
1.49214
1.57568
1.6256
1.64761
1.6601
1.66855
1.64883
1.58645
1.54783
1.54055
1.54544
1.55426
1.5716
1.62095
1.68505
1.72194
1.74126
1.75423
1.76486
1.77011
1.74266
1.70326
1.68803
1.69191
1.70329
1.71783
1.76105
1.83277
1.88107
1.90773
1.92539
1.93755
1.91646
1.85328
1.81339
1.81126
1.83077
1.85776
1.91359
1.99591
2.06193
2.1125
2.15844
2.197
2.19497
2.17184
2.15551
2.17701
2.13613
4.90393
31.5532
1.21466
1.26882
1.28572
1.28271
1.26469
1.24286
1.23273
1.23204
1.23263
1.23641
1.2526
1.29482
1.32405
1.33237
1.33656
1.31904
1.27229
1.24591
1.24408
1.2508
1.28091
1.34988
1.40807
1.43374
1.44308
1.44626
1.4308
1.36912
1.31684
1.30247
1.30338
1.30955
1.32094
1.34312
1.40933
1.48827
1.52509
1.53879
1.54226
1.5346
1.51047
1.4615
1.41418
1.39534
1.3949
1.40176
1.41313
1.4291
1.46858
1.53955
1.58998
1.61269
1.62231
1.61972
1.59137
1.54496
1.5185
1.51547
1.52338
1.53861
1.56467
1.61255
1.66791
1.70191
1.71959
1.731
1.73941
1.73822
1.7062
1.66486
1.64828
1.65214
1.66343
1.67763
1.72345
1.80693
1.85907
1.88016
1.89252
1.89405
1.86094
1.80469
1.76588
1.75142
1.75916
1.78051
1.81369
1.88662
1.97689
2.04787
2.10161
2.14784
2.16519
2.14174
2.11477
2.10877
2.03975
4.72488
30.9169
1.19915
1.19475
1.18964
1.20398
1.22332
1.23121
1.23635
1.23668
1.2392
1.25072
1.2782
1.30423
1.31431
1.31844
1.30411
1.2607
1.22711
1.21975
1.22286
1.22939
1.25849
1.34158
1.40461
1.42564
1.43385
1.43208
1.39474
1.33785
1.30738
1.29919
1.30136
1.31194
1.33119
1.35024
1.37382
1.42634
1.46919
1.48549
1.48602
1.4778
1.46536
1.44259
1.41231
1.39485
1.39473
1.40298
1.41525
1.43175
1.46301
1.50815
1.54184
1.55871
1.5636
1.55432
1.53271
1.51118
1.50252
1.50761
1.52051
1.54117
1.57181
1.61007
1.64712
1.67126
1.68419
1.69142
1.6964
1.69416
1.66786
1.63039
1.61542
1.62118
1.6335
1.65259
1.71441
1.8012
1.84059
1.85501
1.86154
1.85145
1.82174
1.78579
1.75588
1.73786
1.73338
1.74368
1.76415
1.80701
1.89178
1.97914
2.04242
2.0913
2.12535
2.12122
2.10063
2.07811
1.97737
4.5919
30.6041
1.17284
1.11826
1.10953
1.12005
1.16639
1.21133
1.23345
1.24982
1.26849
1.28602
1.29593
1.30034
1.30016
1.28271
1.24675
1.21973
1.21157
1.21258
1.21648
1.2233
1.25192
1.32869
1.38671
1.40378
1.40486
1.38422
1.35018
1.32478
1.3112
1.30722
1.31436
1.3369
1.35136
1.35651
1.35869
1.36192
1.38795
1.41189
1.4212
1.42452
1.42904
1.43569
1.43009
1.41332
1.4112
1.41924
1.42953
1.43812
1.45261
1.47185
1.48804
1.49878
1.50221
1.49901
1.49399
1.49378
1.49964
1.50996
1.53239
1.56154
1.58211
1.60007
1.61679
1.62869
1.63653
1.64251
1.64781
1.65026
1.63564
1.60922
1.59389
1.59609
1.60957
1.64528
1.71145
1.77637
1.81174
1.82541
1.82704
1.81779
1.80412
1.78648
1.76386
1.74463
1.73629
1.74006
1.7542
1.77828
1.83216
1.91552
1.98378
2.03039
2.07074
2.08427
2.07476
2.05931
1.96892
4.4932
30.4843
1.13269
1.07518
1.07525
1.0811
1.10183
1.15759
1.22382
1.27938
1.31623
1.3259
1.31964
1.30076
1.27693
1.23522
1.20066
1.19204
1.19618
1.20502
1.21816
1.23748
1.26783
1.31732
1.3546
1.3647
1.3566
1.3419
1.33504
1.32742
1.32385
1.33159
1.35034
1.36179
1.36284
1.34937
1.32726
1.31525
1.31932
1.34351
1.36645
1.38416
1.40796
1.43008
1.44842
1.45388
1.44557
1.43999
1.43968
1.43774
1.43248
1.43253
1.44101
1.45083
1.45793
1.46584
1.47669
1.49086
1.5133
1.54068
1.56237
1.57495
1.57879
1.5776
1.57501
1.57955
1.58902
1.59636
1.6035
1.61139
1.61045
1.59679
1.59359
1.6038
1.6268
1.65534
1.68412
1.72201
1.75465
1.77483
1.7865
1.79487
1.80014
1.79933
1.78808
1.77052
1.75917
1.75753
1.76384
1.77748
1.80085
1.85566
1.92058
1.966
2.00133
2.02224
2.02897
2.02745
1.98287
4.45277
30.4861
1.10062
1.05555
1.05676
1.0632
1.07261
1.09995
1.19506
1.29794
1.33668
1.34788
1.35008
1.32998
1.2694
1.21699
1.19152
1.18535
1.1885
1.19848
1.22055
1.24185
1.26251
1.28978
1.31027
1.31831
1.31784
1.32399
1.33757
1.35083
1.36155
1.36702
1.37053
1.36822
1.34679
1.31153
1.28708
1.27912
1.2828
1.30545
1.33922
1.37202
1.40997
1.45012
1.47278
1.48361
1.47465
1.45167
1.4312
1.41588
1.40758
1.40575
1.4116
1.42314
1.43205
1.44284
1.46672
1.51118
1.54732
1.56425
1.57073
1.56814
1.55416
1.533
1.52593
1.53266
1.55048
1.5652
1.57588
1.5865
1.59777
1.60311
1.60406
1.61589
1.63218
1.64428
1.65578
1.66249
1.67903
1.7105
1.74343
1.77143
1.79341
1.81049
1.81621
1.81249
1.80254
1.79108
1.78162
1.77902
1.78864
1.81465
1.86503
1.91139
1.9419
1.96047
1.97037
1.97963
1.98151
4.50082
30.5117
1.09062
1.05477
1.05589
1.06437
1.08151
1.11567
1.17083
1.27166
1.33248
1.34371
1.33671
1.31143
1.27301
1.22735
1.19948
1.19522
1.20367
1.21961
1.22717
1.23094
1.23115
1.23132
1.25206
1.28593
1.31156
1.3357
1.36498
1.38893
1.39736
1.39054
1.37244
1.34125
1.30206
1.27086
1.25769
1.25676
1.26149
1.28004
1.32943
1.39044
1.44216
1.46994
1.48302
1.4895
1.4747
1.43823
1.40722
1.39208
1.38854
1.39182
1.39987
1.41219
1.4249
1.44357
1.48974
1.53811
1.56046
1.56785
1.5642
1.54219
1.50484
1.48446
1.48341
1.49313
1.51881
1.54783
1.56699
1.5841
1.60223
1.61977
1.62895
1.63055
1.63376
1.6336
1.62313
1.61836
1.62732
1.64953
1.6894
1.73536
1.77576
1.80736
1.83327
1.8529
1.85808
1.84307
1.81628
1.79507
1.7897
1.79888
1.8234
1.85871
1.89092
1.90882
1.91859
1.92465
1.95044
4.6123
30.5123
1.09635
1.06334
1.0673
1.08876
1.12076
1.14287
1.15491
1.18718
1.26052
1.29757
1.30266
1.3023
1.29599
1.27029
1.24027
1.22628
1.2247
1.22623
1.22328
1.2049
1.18593
1.18349
1.19785
1.25027
1.3202
1.37936
1.41243
1.42356
1.42371
1.4034
1.35595
1.29917
1.25789
1.24227
1.24163
1.24691
1.25428
1.2717
1.33724
1.43126
1.47252
1.48506
1.48946
1.48131
1.45029
1.40739
1.38448
1.37857
1.38011
1.38584
1.39548
1.40916
1.43058
1.47586
1.52499
1.54875
1.55745
1.5619
1.55154
1.50349
1.4633
1.4508
1.45429
1.46635
1.49244
1.53453
1.56938
1.59822
1.62271
1.64005
1.64837
1.64348
1.62989
1.613
1.60036
1.59385
1.59591
1.60891
1.63329
1.67951
1.74215
1.79843
1.83463
1.8598
1.88053
1.88574
1.86446
1.83111
1.80651
1.7996
1.80414
1.82045
1.83952
1.8618
1.87616
1.88197
1.9037
4.72655
30.4641
1.11936
1.09902
1.11129
1.13271
1.14798
1.15181
1.14686
1.13917
1.15883
1.23417
1.28441
1.3024
1.31362
1.31879
1.30111
1.26576
1.24092
1.22145
1.19434
1.17153
1.16387
1.16594
1.17206
1.20425
1.31968
1.41251
1.43807
1.44633
1.44448
1.4222
1.35186
1.27631
1.23971
1.22997
1.2323
1.23861
1.24899
1.27902
1.38308
1.46743
1.48899
1.49605
1.49148
1.46156
1.41406
1.38123
1.3679
1.36719
1.37251
1.38056
1.3921
1.41031
1.4552
1.51928
1.55023
1.55729
1.55734
1.5532
1.52873
1.48248
1.44507
1.43193
1.4365
1.44674
1.46484
1.51027
1.57088
1.61618
1.64485
1.65787
1.66297
1.65536
1.63389
1.61496
1.60145
1.59173
1.58716
1.59071
1.60269
1.62275
1.67322
1.7525
1.81428
1.85057
1.87621
1.89193
1.88878
1.86846
1.83785
1.81246
1.79944
1.79359
1.79716
1.80967
1.83555
1.85322
1.87665
4.83712
30.4088
1.16649
1.15431
1.16037
1.16469
1.16538
1.15093
1.1225
1.11058
1.11196
1.14552
1.24396
1.30966
1.33621
1.34889
1.35187
1.32406
1.26471
1.20791
1.17027
1.15821
1.15884
1.16453
1.17942
1.22881
1.32817
1.41184
1.4409
1.44495
1.4282
1.38913
1.33675
1.28233
1.2447
1.23342
1.23561
1.24192
1.25713
1.32221
1.42363
1.47402
1.49156
1.49695
1.48034
1.43498
1.39803
1.37711
1.36388
1.35902
1.36217
1.36949
1.38037
1.40661
1.47611
1.537
1.55794
1.56348
1.56254
1.54733
1.52353
1.48767
1.45156
1.43521
1.43306
1.43738
1.44651
1.47426
1.55038
1.6221
1.65432
1.66953
1.68054
1.68033
1.66277
1.63601
1.61361
1.59806
1.58849
1.58516
1.58716
1.59517
1.61441
1.68303
1.77144
1.82414
1.85425
1.87857
1.88429
1.87396
1.85713
1.8305
1.79838
1.77213
1.75842
1.76383
1.78874
1.82845
1.86461
4.9265
30.3968
1.22221
1.22188
1.20223
1.18571
1.16043
1.12725
1.10786
1.10307
1.10481
1.11549
1.18868
1.30658
1.3483
1.36026
1.36399
1.34923
1.29392
1.21022
1.1696
1.16201
1.16388
1.18459
1.23584
1.27846
1.31337
1.36084
1.39059
1.39189
1.37931
1.36336
1.34212
1.30347
1.26619
1.25263
1.25548
1.26712
1.30554
1.37087
1.42592
1.46078
1.47519
1.47058
1.44246
1.41665
1.39824
1.38314
1.37284
1.37061
1.37556
1.38522
1.40068
1.42787
1.47986
1.53346
1.55718
1.56185
1.5576
1.55166
1.53681
1.5071
1.47133
1.44739
1.43724
1.43705
1.44356
1.45617
1.51426
1.61
1.65555
1.67225
1.68409
1.69553
1.69689
1.67688
1.64838
1.62183
1.59842
1.58081
1.57357
1.57794
1.59224
1.6351
1.714
1.78038
1.81679
1.84242
1.85673
1.8553
1.84913
1.83436
1.80219
1.75912
1.7369
1.73587
1.75134
1.80294
1.8593
4.97326
30.4678
1.27041
1.27877
1.23771
1.18322
1.13403
1.10643
1.10023
1.10143
1.10765
1.12581
1.19946
1.29592
1.34124
1.35582
1.35737
1.32761
1.26957
1.21993
1.19076
1.18464
1.20245
1.25278
1.28536
1.29477
1.29735
1.28962
1.29751
1.32795
1.34902
1.35617
1.35724
1.33897
1.30051
1.28122
1.28379
1.30872
1.35239
1.38762
1.41342
1.43222
1.43781
1.42537
1.41466
1.4117
1.40726
1.39638
1.38516
1.38093
1.38541
1.39919
1.41919
1.43945
1.46645
1.50814
1.53903
1.55051
1.55493
1.55944
1.56032
1.53437
1.48931
1.45118
1.43364
1.43517
1.4437
1.4601
1.50406
1.58013
1.64758
1.6784
1.69283
1.70214
1.70616
1.70361
1.68804
1.65162
1.6075
1.57968
1.57229
1.5758
1.59101
1.62867
1.67672
1.72937
1.76848
1.7918
1.80343
1.80914
1.8105
1.8059
1.79128
1.76611
1.73766
1.73245
1.74538
1.77705
1.84294
4.97149
30.5637
1.29032
1.30716
1.27395
1.19652
1.12498
1.10375
1.10195
1.1059
1.12148
1.16721
1.2289
1.27816
1.30981
1.3212
1.3055
1.27174
1.25114
1.23879
1.23183
1.24018
1.27437
1.2979
1.30411
1.29967
1.26208
1.2361
1.23593
1.26182
1.31196
1.34375
1.35541
1.35555
1.33811
1.32497
1.33092
1.35406
1.37403
1.38682
1.39832
1.40288
1.39493
1.39057
1.39379
1.40007
1.40552
1.40492
1.39836
1.3958
1.40442
1.42163
1.43748
1.44903
1.45563
1.46971
1.50836
1.54092
1.55496
1.56054
1.56193
1.55251
1.50532
1.45569
1.44241
1.44642
1.46061
1.4971
1.53778
1.56896
1.60164
1.64097
1.6719
1.69153
1.70159
1.70625
1.69871
1.67462
1.63727
1.60114
1.58593
1.5875
1.60736
1.64169
1.66413
1.68377
1.71749
1.74263
1.75203
1.75702
1.76549
1.77362
1.779
1.77946
1.75583
1.73642
1.7361
1.74997
1.8085
4.95894
30.6915
1.28928
1.30114
1.25063
1.18134
1.13508
1.11586
1.11481
1.1311
1.17358
1.21171
1.23922
1.25997
1.26899
1.2632
1.24571
1.23925
1.2432
1.24939
1.26955
1.3066
1.32249
1.32367
1.3149
1.27678
1.23252
1.21878
1.22045
1.23133
1.26703
1.31085
1.33805
1.354
1.36589
1.37982
1.38778
1.3891
1.39042
1.39109
1.38306
1.36773
1.36131
1.36462
1.37173
1.37875
1.38503
1.3919
1.4109
1.43024
1.44368
1.45102
1.45568
1.4517
1.44371
1.44399
1.46246
1.50764
1.53699
1.54604
1.54816
1.54283
1.51605
1.48221
1.47134
1.48155
1.50992
1.54204
1.56046
1.5673
1.56338
1.57168
1.60386
1.65032
1.67869
1.6895
1.69046
1.67875
1.66507
1.64994
1.63709
1.63417
1.64113
1.64981
1.65439
1.65887
1.67237
1.69437
1.71216
1.72387
1.73452
1.74766
1.77121
1.78369
1.77458
1.7483
1.73025
1.72049
1.74424
4.94453
30.8363
1.26095
1.25006
1.21269
1.18075
1.15522
1.14825
1.16045
1.196
1.21736
1.22283
1.22713
1.22799
1.22419
1.21927
1.21742
1.22267
1.23373
1.26254
1.311
1.33775
1.34458
1.34091
1.31481
1.25611
1.22389
1.21912
1.22273
1.23147
1.25368
1.28616
1.31736
1.34985
1.38694
1.40961
1.41848
1.41747
1.41093
1.40007
1.36954
1.34427
1.33733
1.3407
1.34919
1.35752
1.36485
1.39074
1.43637
1.47117
1.48449
1.48512
1.47092
1.44306
1.4213
1.41691
1.42387
1.45312
1.50115
1.52768
1.53687
1.53942
1.5325
1.52459
1.52741
1.54414
1.56238
1.57392
1.57711
1.56031
1.53432
1.52426
1.52863
1.55816
1.61476
1.65895
1.681
1.69364
1.70124
1.70987
1.70921
1.69626
1.6791
1.66224
1.65157
1.65116
1.64856
1.6509
1.67292
1.69712
1.71445
1.73844
1.76799
1.78232
1.78097
1.76198
1.73416
1.70599
1.68516
4.88432
30.9553
1.20763
1.20018
1.20192
1.19622
1.19408
1.20461
1.22611
1.2389
1.23813
1.2203
1.19261
1.18167
1.18932
1.20722
1.21805
1.22377
1.24197
1.29025
1.33165
1.34645
1.35001
1.34309
1.2998
1.25059
1.22875
1.22402
1.22658
1.2326
1.25005
1.28393
1.32347
1.36548
1.3996
1.41834
1.42666
1.4275
1.41888
1.38736
1.34835
1.32579
1.3194
1.32212
1.33161
1.3439
1.36416
1.41499
1.4763
1.50354
1.51114
1.50957
1.47779
1.42148
1.39779
1.39697
1.40471
1.42028
1.4571
1.50252
1.5268
1.5369
1.55089
1.57109
1.58999
1.59948
1.60097
1.59696
1.57995
1.54295
1.50718
1.48807
1.48497
1.48953
1.52686
1.60482
1.66816
1.70838
1.73353
1.74853
1.74831
1.7382
1.71409
1.68467
1.66113
1.64836
1.63407
1.62701
1.63824
1.67007
1.70368
1.73923
1.76697
1.78127
1.77775
1.76756
1.74624
1.70719
1.65168
4.77615
31.0364
1.17298
1.18963
1.2111
1.23875
1.26274
1.27162
1.26894
1.25658
1.22819
1.18569
1.15796
1.15114
1.15824
1.18605
1.21356
1.23507
1.27102
1.31814
1.34262
1.35152
1.35527
1.33969
1.28644
1.24776
1.23355
1.23043
1.23095
1.23431
1.24883
1.2906
1.345
1.39073
1.41483
1.42509
1.42901
1.42472
1.39862
1.35552
1.32283
1.30959
1.30814
1.31334
1.32476
1.34361
1.39621
1.47199
1.50729
1.51823
1.52235
1.50741
1.44791
1.40261
1.38984
1.39253
1.40051
1.41076
1.42602
1.46497
1.50822
1.53964
1.57005
1.60439
1.63025
1.63961
1.63664
1.61936
1.57879
1.5264
1.48312
1.46229
1.45911
1.46391
1.4915
1.54975
1.63724
1.70034
1.73032
1.74201
1.74248
1.74306
1.73792
1.71085
1.68364
1.65875
1.6347
1.62326
1.63035
1.64819
1.68821
1.73612
1.76703
1.77963
1.77464
1.76621
1.75682
1.73051
1.67923
4.61066
31.1266
1.15111
1.21161
1.26049
1.29911
1.31571
1.31682
1.29057
1.24192
1.19052
1.15417
1.13869
1.13575
1.13863
1.15302
1.19015
1.24807
1.31568
1.35763
1.37189
1.37584
1.36937
1.3287
1.26961
1.23682
1.22617
1.22467
1.22741
1.23363
1.25132
1.3071
1.38628
1.42557
1.4364
1.43837
1.42831
1.39889
1.35576
1.32222
1.30599
1.30207
1.30439
1.3111
1.32598
1.37556
1.46016
1.51238
1.52678
1.52953
1.51579
1.46832
1.42107
1.3989
1.39378
1.39702
1.40431
1.41733
1.43256
1.44429
1.46641
1.51343
1.56726
1.6115
1.63713
1.64907
1.65577
1.6486
1.59929
1.52243
1.47107
1.4524
1.45114
1.46568
1.51444
1.56783
1.60074
1.64614
1.69131
1.71376
1.7209
1.72271
1.72594
1.72545
1.715
1.69654
1.66767
1.6488
1.64283
1.64449
1.65869
1.70816
1.75761
1.77709
1.77659
1.76701
1.76036
1.74836
1.72191
4.48658
31.2321
1.13796
1.27265
1.32789
1.34469
1.3469
1.32958
1.27776
1.20426
1.15334
1.13188
1.12636
1.1271
1.13016
1.13664
1.16421
1.25913
1.36676
1.40303
1.41254
1.412
1.38321
1.31693
1.25165
1.21912
1.21108
1.21226
1.21759
1.22805
1.25447
1.34463
1.43033
1.45568
1.46261
1.45692
1.41703
1.36072
1.32326
1.30402
1.29598
1.29647
1.30578
1.33315
1.37767
1.42924
1.48021
1.51626
1.52685
1.51936
1.48208
1.44144
1.42016
1.40893
1.40885
1.41901
1.43417
1.4473
1.45468
1.45015
1.44979
1.46206
1.51145
1.58877
1.63124
1.64364
1.64569
1.61991
1.57203
1.52814
1.48861
1.46721
1.46561
1.49618
1.54954
1.57207
1.58063
1.58759
1.60395
1.6437
1.67533
1.69164
1.70254
1.72277
1.73832
1.73669
1.70991
1.66842
1.64135
1.63231
1.63604
1.66182
1.72833
1.76977
1.77754
1.76581
1.75748
1.74947
1.73871
4.44585
31.3347
1.15553
1.32352
1.36208
1.3732
1.36947
1.32715
1.24029
1.16544
1.1279
1.11549
1.11442
1.11653
1.1211
1.13004
1.16379
1.29189
1.39241
1.41895
1.42777
1.42523
1.38921
1.3052
1.23607
1.20868
1.20428
1.20666
1.21424
1.23179
1.28996
1.38491
1.44146
1.46199
1.46625
1.43519
1.38223
1.34364
1.32035
1.30669
1.30279
1.31468
1.34817
1.3828
1.40462
1.42463
1.46033
1.48608
1.48889
1.47643
1.45843
1.44181
1.43492
1.43957
1.45027
1.458
1.46245
1.46056
1.45262
1.44555
1.43968
1.43974
1.45394
1.52284
1.59231
1.61706
1.61757
1.59428
1.56622
1.54466
1.52539
1.51033
1.51442
1.54808
1.57219
1.57469
1.55535
1.53669
1.53607
1.57085
1.63039
1.66828
1.69569
1.72572
1.74458
1.74762
1.73203
1.68651
1.64367
1.63292
1.63719
1.64977
1.6968
1.75235
1.76798
1.75673
1.74542
1.73578
1.74696
4.47466
31.4216
1.20106
1.33542
1.36412
1.37378
1.36278
1.28972
1.20211
1.14734
1.12082
1.11095
1.1101
1.11308
1.12067
1.14377
1.22305
1.32538
1.38652
1.41406
1.42383
1.41135
1.35072
1.27917
1.23256
1.21211
1.20775
1.21109
1.23247
1.28635
1.33779
1.38304
1.4263
1.44215
1.42406
1.38541
1.35928
1.34586
1.33645
1.33483
1.34955
1.37396
1.39364
1.40104
1.39752
1.39497
1.39614
1.40896
1.42775
1.44222
1.45009
1.46088
1.47604
1.48646
1.48949
1.48782
1.47954
1.46376
1.44822
1.4398
1.43725
1.44088
1.454
1.47547
1.51123
1.54839
1.56428
1.56439
1.55661
1.55398
1.56002
1.56817
1.58551
1.59508
1.58654
1.56117
1.52986
1.50749
1.50542
1.5243
1.58093
1.64819
1.69826
1.72698
1.74071
1.73702
1.71421
1.68195
1.65725
1.64861
1.65126
1.65974
1.68191
1.71137
1.72966
1.72949
1.72554
1.71636
1.753
4.56573
31.5165
1.23394
1.32198
1.34445
1.34225
1.29319
1.22855
1.18152
1.14729
1.12504
1.11543
1.11426
1.11855
1.14776
1.21888
1.28529
1.32827
1.36203
1.3802
1.37603
1.33936
1.29619
1.26155
1.23888
1.22527
1.2232
1.24383
1.3005
1.3385
1.35284
1.36216
1.3702
1.36361
1.35562
1.35599
1.35986
1.36406
1.37928
1.4031
1.41392
1.41274
1.40596
1.39075
1.36976
1.3487
1.33945
1.34406
1.36466
1.40022
1.44134
1.48155
1.5097
1.52197
1.52339
1.51762
1.50148
1.47379
1.45033
1.44157
1.44286
1.45033
1.46245
1.46629
1.45997
1.45639
1.48045
1.51991
1.54746
1.56409
1.58528
1.62365
1.64225
1.63388
1.60498
1.56353
1.52002
1.49668
1.49581
1.50453
1.53993
1.61957
1.68717
1.71305
1.71842
1.69598
1.67296
1.66804
1.67569
1.68306
1.68227
1.67019
1.6542
1.64889
1.65918
1.67795
1.7023
1.70753
1.7583
4.68675
31.4868
1.24223
1.28319
1.28609
1.25207
1.21424
1.19356
1.18157
1.16518
1.14388
1.13308
1.13524
1.16813
1.23259
1.27232
1.29289
1.31395
1.32618
1.32109
1.29845
1.28247
1.27346
1.2623
1.25092
1.24861
1.26562
1.31255
1.34033
1.34856
1.35227
1.33895
1.2973
1.2825
1.29624
1.3272
1.36032
1.40458
1.44939
1.46653
1.46014
1.4346
1.39755
1.35574
1.32716
1.31422
1.31188
1.31545
1.323
1.34376
1.40468
1.48065
1.51585
1.52714
1.53197
1.53404
1.52586
1.50424
1.48132
1.47045
1.47029
1.47328
1.47242
1.45215
1.42165
1.41147
1.42093
1.4611
1.52087
1.57179
1.6227
1.66261
1.67647
1.67364
1.63514
1.5817
1.53334
1.50458
1.49839
1.50441
1.51856
1.57186
1.64129
1.66803
1.67276
1.66051
1.65123
1.66506
1.6944
1.70792
1.70867
1.68382
1.62677
1.59371
1.59235
1.61205
1.66762
1.70108
1.75296
4.82019
31.4357
1.23307
1.23437
1.19658
1.16981
1.16585
1.16982
1.17506
1.1762
1.17031
1.17157
1.20213
1.25466
1.28447
1.29377
1.29478
1.29169
1.27293
1.24908
1.24113
1.24444
1.2552
1.26588
1.2717
1.291
1.33112
1.35319
1.35746
1.35545
1.33657
1.28341
1.24528
1.23832
1.24581
1.27745
1.35797
1.45307
1.50132
1.51189
1.50219
1.44991
1.37725
1.32692
1.30437
1.29991
1.30319
1.30932
1.31786
1.33478
1.37168
1.43674
1.48904
1.50866
1.51425
1.51645
1.52766
1.53976
1.54607
1.5381
1.52188
1.4988
1.4671
1.431
1.4038
1.39543
1.3986
1.4138
1.46686
1.56062
1.64409
1.6816
1.69458
1.68773
1.66085
1.61433
1.56334
1.52706
1.51365
1.51574
1.52389
1.53997
1.57824
1.60862
1.62116
1.629
1.64303
1.67495
1.70118
1.71332
1.71778
1.70005
1.62816
1.57469
1.56039
1.56334
1.61049
1.66073
1.71372
4.95214
31.4162
1.20954
1.1583
1.12827
1.12633
1.13757
1.15426
1.16823
1.17926
1.20567
1.25409
1.28743
1.29841
1.30114
1.3026
1.29674
1.26194
1.23003
1.22149
1.22529
1.23261
1.24259
1.26326
1.3048
1.34081
1.35608
1.36168
1.36201
1.3432
1.29643
1.25336
1.23431
1.2306
1.235
1.25026
1.33905
1.46889
1.50896
1.51746
1.51218
1.46559
1.3783
1.32242
1.30478
1.30379
1.30955
1.32497
1.35034
1.37227
1.38092
1.38366
1.40235
1.4442
1.48156
1.51461
1.55352
1.58409
1.60007
1.60416
1.57719
1.52505
1.46981
1.42622
1.40128
1.39351
1.39945
1.41254
1.43966
1.53077
1.64282
1.6864
1.69472
1.68734
1.66898
1.63741
1.59336
1.55124
1.5282
1.52394
1.52807
1.53285
1.53959
1.55636
1.57415
1.5952
1.63452
1.67507
1.69726
1.70509
1.70887
1.69238
1.64019
1.58132
1.5511
1.5482
1.57991
1.61607
1.66328
5.02467
31.5867
1.17081
1.11055
1.09906
1.10091
1.11381
1.14079
1.17502
1.22333
1.27649
1.30901
1.31922
1.32086
1.3127
1.28754
1.25505
1.22611
1.21072
1.20969
1.21672
1.23839
1.27056
1.31043
1.34237
1.35665
1.36119
1.35339
1.32983
1.30092
1.27418
1.25173
1.24037
1.2442
1.26034
1.30267
1.37404
1.44642
1.48548
1.4896
1.46562
1.42143
1.38074
1.34973
1.33433
1.33653
1.34945
1.3683
1.38369
1.38994
1.37512
1.35034
1.34654
1.36246
1.42569
1.52474
1.59243
1.62188
1.63551
1.63221
1.60612
1.55942
1.49277
1.43835
1.41159
1.40425
1.4169
1.45118
1.48764
1.53034
1.60013
1.65182
1.66602
1.66386
1.65978
1.63667
1.60004
1.5664
1.54791
1.54388
1.5457
1.54653
1.54657
1.54653
1.5477
1.55818
1.6043
1.6532
1.67293
1.67919
1.68445
1.67769
1.65198
1.61127
1.56831
1.54861
1.55551
1.58389
1.63653
5.01296
31.7864
1.1454
1.10554
1.10219
1.10521
1.11896
1.15155
1.20282
1.25542
1.29158
1.3093
1.31614
1.3122
1.29099
1.26605
1.24495
1.22722
1.2158
1.21739
1.23031
1.25534
1.2933
1.32761
1.35181
1.36092
1.3568
1.33038
1.29875
1.28162
1.27115
1.26332
1.2678
1.28665
1.32159
1.35516
1.37764
1.39862
1.41242
1.41472
1.41256
1.41316
1.4067
1.39539
1.39111
1.39495
1.40218
1.40842
1.41082
1.39197
1.35181
1.32808
1.32488
1.32943
1.36388
1.49392
1.6003
1.62905
1.63868
1.62219
1.57148
1.52669
1.49685
1.46416
1.43897
1.43851
1.46952
1.50284
1.52187
1.53253
1.54968
1.58065
1.60502
1.61509
1.61748
1.60535
1.57949
1.56984
1.57749
1.59072
1.59503
1.59278
1.57692
1.55043
1.53368
1.5314
1.55013
1.60942
1.65037
1.66652
1.67511
1.67625
1.66184
1.63827
1.60617
1.57429
1.56184
1.56436
1.62938
4.93647
31.9627
1.14376
1.11989
1.12482
1.146
1.16999
1.1864
1.21144
1.25801
1.28949
1.2966
1.29203
1.27535
1.26109
1.25123
1.24188
1.23676
1.24099
1.25579
1.2711
1.28007
1.28841
1.31359
1.3333
1.33471
1.32043
1.30398
1.29591
1.29012
1.28708
1.29718
1.31827
1.34147
1.35687
1.36333
1.36656
1.35078
1.33606
1.34096
1.36459
1.39719
1.41984
1.43928
1.45591
1.46138
1.45935
1.45352
1.43123
1.37893
1.33681
1.32391
1.32497
1.33479
1.38984
1.47694
1.55591
1.5996
1.60652
1.56447
1.51448
1.49282
1.48616
1.48245
1.48375
1.51213
1.53688
1.53915
1.53652
1.52902
1.50727
1.50389
1.52866
1.55338
1.56419
1.56951
1.56876
1.58487
1.61839
1.63549
1.64105
1.63804
1.60406
1.5532
1.51997
1.50646
1.50588
1.54765
1.62632
1.67104
1.68727
1.69067
1.67246
1.64823
1.62906
1.6006
1.57438
1.56266
1.64589
4.84869
32.0192
1.15428
1.14966
1.17054
1.19004
1.19386
1.19358
1.2026
1.23977
1.26776
1.27149
1.26461
1.26104
1.25762
1.25281
1.2508
1.25889
1.27529
1.28341
1.28559
1.28345
1.27611
1.26798
1.27275
1.28962
1.30105
1.30591
1.312
1.32456
1.34158
1.35411
1.36269
1.36844
1.36902
1.35583
1.32689
1.30552
1.29938
1.3048
1.31922
1.35825
1.42046
1.47172
1.50037
1.50963
1.50998
1.49821
1.45304
1.38301
1.34295
1.33375
1.33836
1.37993
1.44074
1.46721
1.4859
1.50908
1.50917
1.48943
1.47678
1.47666
1.4829
1.49857
1.55309
1.58994
1.58862
1.56858
1.54038
1.49653
1.46014
1.45303
1.46854
1.49839
1.52244
1.54083
1.57543
1.6209
1.64248
1.65181
1.65864
1.66009
1.62338
1.55458
1.51439
1.49938
1.49339
1.50887
1.57561
1.65102
1.68765
1.69397
1.67445
1.64665
1.62641
1.61246
1.60134
1.58654
1.63502
4.82175
32.0258
1.18306
1.19289
1.20475
1.2008
1.18864
1.17763
1.17196
1.18647
1.22876
1.24981
1.26169
1.27276
1.28071
1.28584
1.29029
1.29615
1.29708
1.29302
1.28448
1.26298
1.23582
1.22209
1.22449
1.24573
1.28191
1.31619
1.35796
1.38706
1.39499
1.39084
1.38535
1.37842
1.35259
1.32267
1.3022
1.28953
1.28661
1.29072
1.29875
1.32509
1.39898
1.47375
1.50516
1.51546
1.5173
1.50339
1.46434
1.41675
1.38234
1.37442
1.39008
1.43572
1.46239
1.46684
1.45098
1.40885
1.39257
1.41005
1.43992
1.46246
1.48621
1.56077
1.61888
1.62732
1.61155
1.58715
1.5365
1.47059
1.43867
1.43106
1.43604
1.45311
1.48341
1.52764
1.59234
1.63471
1.65422
1.66128
1.66398
1.65574
1.62415
1.57509
1.52888
1.50914
1.51038
1.54356
1.57094
1.5969
1.64564
1.66601
1.65536
1.63358
1.6261
1.62413
1.62883
1.62241
1.61904
4.82259
32.043
1.23109
1.23304
1.21862
1.18901
1.15446
1.13633
1.13399
1.14359
1.18834
1.24533
1.28551
1.31848
1.33745
1.33745
1.32146
1.3062
1.29295
1.27807
1.25285
1.22452
1.20806
1.20543
1.2097
1.21995
1.255
1.33789
1.40563
1.43036
1.43535
1.43011
1.40532
1.35888
1.32835
1.31279
1.30255
1.29364
1.29272
1.30169
1.32401
1.34386
1.36094
1.41162
1.46391
1.48743
1.49539
1.49709
1.48324
1.46361
1.4525
1.45024
1.45989
1.47106
1.46963
1.44928
1.39249
1.34134
1.32928
1.3422
1.38107
1.43726
1.53488
1.62713
1.65208
1.65072
1.62546
1.56523
1.50479
1.46601
1.44313
1.43363
1.43557
1.44572
1.46385
1.5126
1.58199
1.62709
1.64283
1.64388
1.64201
1.63566
1.6251
1.60401
1.5745
1.55402
1.55471
1.56709
1.56662
1.55902
1.55871
1.5891
1.6153
1.62652
1.64015
1.65312
1.65543
1.64165
1.6303
4.84255
32.0313
1.27229
1.24296
1.19671
1.15046
1.12111
1.11253
1.11382
1.12015
1.14766
1.2393
1.33662
1.37789
1.38954
1.38442
1.34766
1.30154
1.26943
1.23887
1.21329
1.19827
1.19413
1.19667
1.20346
1.22092
1.26722
1.34818
1.41228
1.43411
1.43742
1.4194
1.38557
1.35726
1.33619
1.32286
1.3181
1.32161
1.33222
1.34723
1.35035
1.34084
1.33607
1.33865
1.37291
1.43562
1.47609
1.49256
1.5037
1.5139
1.51978
1.52154
1.51351
1.4962
1.47031
1.41756
1.35192
1.31475
1.30466
1.30761
1.32455
1.41306
1.56689
1.6347
1.64994
1.64265
1.59405
1.54233
1.50713
1.48253
1.46507
1.45951
1.46744
1.48275
1.50316
1.52002
1.54222
1.57672
1.60086
1.61281
1.61879
1.6245
1.62503
1.62871
1.6255
1.61098
1.59645
1.58024
1.55229
1.51561
1.49649
1.50941
1.57818
1.64836
1.68423
1.69265
1.68526
1.66284
1.66781
4.85283
32.0727
1.29272
1.21846
1.15028
1.12025
1.11055
1.10948
1.11105
1.11723
1.14668
1.24891
1.35853
1.39341
1.40262
1.40348
1.38054
1.32156
1.25732
1.22033
1.2025
1.1956
1.19664
1.20458
1.23527
1.2747
1.29931
1.32084
1.36217
1.38762
1.3904
1.38486
1.37879
1.3711
1.36736
1.36819
1.37407
1.38206
1.38681
1.37443
1.34831
1.322
1.30721
1.30437
1.30885
1.34752
1.42898
1.4951
1.53119
1.54999
1.55929
1.55832
1.55298
1.52721
1.46561
1.39734
1.34823
1.32096
1.31347
1.32527
1.37478
1.45992
1.54556
1.60235
1.61465
1.58669
1.55156
1.53101
1.52354
1.52165
1.51824
1.51406
1.51587
1.52011
1.51664
1.50686
1.503
1.51088
1.54673
1.58865
1.6135
1.62801
1.63766
1.64556
1.64839
1.64295
1.62242
1.58509
1.53856
1.49499
1.46904
1.46587
1.52579
1.63768
1.69068
1.7024
1.69273
1.66781
1.71501
4.8832
32.1646
1.30039
1.184
1.12022
1.10696
1.10538
1.10829
1.11982
1.15841
1.2207
1.27676
1.33874
1.38157
1.39171
1.37273
1.33331
1.29649
1.26487
1.23248
1.21197
1.20872
1.22138
1.2579
1.29204
1.30335
1.30321
1.29344
1.28187
1.2903
1.32073
1.3515
1.37592
1.40239
1.42795
1.44505
1.44911
1.44045
1.41325
1.36922
1.32291
1.29666
1.28753
1.28694
1.29388
1.31362
1.36002
1.45141
1.52363
1.55052
1.55468
1.54843
1.53326
1.50694
1.46308
1.40968
1.36571
1.34619
1.35201
1.39102
1.43937
1.4739
1.50485
1.52719
1.52932
1.52826
1.53187
1.53778
1.54996
1.56294
1.57353
1.577
1.57095
1.55129
1.51641
1.48307
1.46945
1.4712
1.49145
1.55427
1.60872
1.63232
1.6446
1.65359
1.65461
1.64781
1.63174
1.60262
1.55677
1.49536
1.45453
1.44627
1.47026
1.57239
1.66023
1.68271
1.68135
1.67334
1.74344
4.92266
32.3153
1.27648
1.16409
1.11923
1.10884
1.10765
1.1178
1.17285
1.24346
1.27473
1.28671
1.29769
1.30909
1.30982
1.30499
1.3036
1.30302
1.29152
1.27285
1.26056
1.26657
1.28801
1.30858
1.31525
1.30747
1.283
1.24725
1.22428
1.22072
1.23277
1.27836
1.35425
1.43228
1.48962
1.51145
1.51786
1.50114
1.43452
1.35632
1.31056
1.2904
1.28439
1.28553
1.30553
1.34842
1.38339
1.40904
1.45145
1.49063
1.50413
1.50325
1.50051
1.49234
1.47057
1.43523