/*--------------------------------*- C++ -*----------------------------------*\
  =========                 |
  \\      /  F ield         | OpenFOAM: The Open Source CFD Toolbox
   \\    /   O peration     | Website:  https://openfoam.org
    \\  /    A nd           | Version:  12
     \\/     M anipulation  |
\*---------------------------------------------------------------------------*/
FoamFile
{
    format      ascii;
    class       volScalarField;
    location    "0.95";
    object      rho;
}
// * * * * * * * * * * * * * * * * * * * * * * * * * * * * * * * * * * * * * //

dimensions      [1 -3 0 0 0 0 0];

internalField   nonuniform List<scalar> 
46253
(
1.39999
1.40001
1.5573
1.40001
1.55173
1.5467
1.37004
1.42699
1.40001
1.40001
1.4
1.26544
1.40001
1.40001
1.40001
1.40001
1.40001
1.40001
1.40001
1.40001
1.40001
1.5369
1.40001
1.4
1.37186
1.40001
1.40001
1.40001
1.40001
1.42558
1.4035
1.40001
1.40001
1.40001
1.40001
1.40001
1.40001
1.40001
1.40078
1.40001
1.40108
1.26367
1.40001
1.40001
1.23466
1.40001
1.40001
1.40001
1.40001
1.40001
1.40001
1.40001
1.51283
1.40757
1.5716
1.28672
1.40001
1.40001
1.46909
1.39608
1.40001
1.40315
1.40001
1.40001
1.40001
1.40001
1.40001
1.52865
1.30175
1.23918
1.37089
1.40001
1.40001
1.4065
1.49927
1.40001
1.40001
1.40001
1.40001
1.40001
1.40001
1.40001
1.51626
1.40001
1.3669
1.40105
1.40001
1.40001
1.38958
1.40001
1.40001
1.40008
1.39998
1.40001
1.40001
1.40001
1.39997
1.40001
1.4675
1.40001
1.40001
1.39998
1.43355
1.40061
1.56831
1.36981
1.26424
1.40001
1.40001
1.2753
1.42138
1.40001
1.40001
1.40001
1.40001
1.39009
1.24828
1.39506
1.58301
1.28957
1.40001
1.54168
1.40001
1.40001
1.40001
1.59044
1.40001
1.267
1.59341
1.40001
1.39996
1.39998
1.54132
1.38402
1.40001
1.40001
1.40001
1.40001
1.2939
1.40001
1.40001
1.39994
1.39995
1.39653
1.40001
1.58365
1.40001
1.40001
1.4023
1.40001
1.27448
1.5117
1.40001
1.40001
1.37815
1.24219
1.26516
1.40001
1.40001
1.5664
1.40001
1.26069
1.27495
1.40001
1.37069
1.40001
1.38743
1.40001
1.69111
1.40001
1.40001
1.40001
1.53199
1.40774
1.56231
1.45362
1.40392
1.39998
1.40952
1.25027
1.56259
1.37692
1.40001
1.40001
1.40001
1.40001
1.40001
1.22927
1.40001
1.40001
1.511
1.40001
1.40003
1.40001
1.40001
1.40001
1.41733
1.40001
1.4465
1.44499
1.40001
1.40001
1.40001
1.40001
1.40001
1.24703
1.37311
1.40001
1.4
1.40001
1.40001
1.58223
1.40852
1.40867
1.40385
1.40001
1.39365
1.39517
1.4
1.53199
1.52297
1.39998
1.45249
1.40001
1.40001
1.40393
1.40001
1.40001
1.45115
1.45157
1.43641
1.40001
1.40001
1.40001
1.40001
1.40001
1.40001
1.40001
1.43557
1.44815
1.40001
1.4
1.40001
1.40001
1.40001
1.47171
1.40001
1.37179
1.40001
1.39997
1.39994
1.44683
1.45262
1.40001
1.45368
1.4
1.40001
1.30645
1.39377
1.40001
1.39043
1.39742
1.27373
1.39716
1.398
1.40001
1.40001
1.40001
1.39999
1.39996
1.4
1.40001
1.40001
1.40001
1.4001
1.40001
1.57854
1.40001
1.40626
1.31311
1.45448
1.45563
1.47132
1.40879
1.40001
1.40065
1.3983
1.2883
1.38915
1.40001
1.46292
1.463
1.39603
1.40001
1.45853
1.42047
1.4
1.4177
1.40837
1.40001
1.57273
1.40185
1.28372
1.57264
1.40001
1.39995
1.39997
1.40001
1.39542
1.40001
1.40001
1.40694
1.40001
1.4007
1.40001
1.40719
1.30384
1.45677
1.40001
1.40553
1.28185
1.40001
1.37265
1.37435
1.39363
1.38753
1.40001
1.40001
1.40431
1.41635
1.45842
1.45957
1.40001
1.40001
1.40001
1.40302
1.29954
1.39997
1.39996
1.40001
1.51272
1.51059
1.40001
1.58418
1.40001
1.41287
1.42742
1.40001
1.30693
1.4
1.38679
1.40001
1.24741
1.40001
1.26231
1.40001
1.40036
1.40001
1.39999
1.40001
1.2626
1.40001
1.40001
1.40001
1.40001
1.40001
1.40001
1.40001
1.42332
1.40001
1.40001
1.40001
1.40001
1.43773
1.40001
1.45165
1.29315
1.40001
1.40001
1.40001
1.39301
1.39915
1.27174
1.40342
1.41998
1.40071
1.40001
1.40001
1.43223
1.60947
1.40001
1.38915
1.44484
1.40064
1.40001
1.42734
1.36858
1.36777
1.40001
1.39869
1.40001
1.43935
1.42703
1.45063
1.40001
1.49419
1.40001
1.40001
1.40001
1.40001
1.40001
1.40001
1.55376
1.40001
1.40303
1.48705
1.4018
1.40001
1.40001
1.30747
1.48795
1.40001
1.43909
1.40001
1.41083
1.40001
1.40001
1.44903
1.40469
1.40001
1.40566
1.40001
1.40001
1.40001
1.40001
1.38014
1.3942
1.40001
1.40001
1.41024
1.28112
1.49278
1.39917
1.40001
1.38331
1.38035
1.40001
1.40001
1.28584
1.40001
1.31385
1.40167
1.40001
1.40269
1.40001
1.49174
1.41983
1.4907
1.41998
1.37421
1.40001
1.37384
1.37484
1.4122
1.40001
1.37598
1.39998
1.40001
1.48858
1.40001
1.40001
1.40575
1.40001
1.41854
1.27375
1.44519
1.30221
1.37011
1.44984
1.40352
1.41838
1.40992
1.40001
1.40001
1.40001
1.40001
1.59844
1.40001
1.315
1.39614
1.25406
1.3145
1.37964
1.39686
1.38007
1.40001
1.40001
1.42836
1.40074
1.27486
1.42099
1.4466
1.45107
1.40435
1.39079
1.40001
1.40063
1.39928
1.40001
1.40001
1.40001
1.40112
1.48787
1.41878
1.4026
1.40001
1.40001
1.38979
1.40001
1.40001
1.4035
1.5439
1.40132
1.40001
1.40001
1.40164
1.40001
1.40071
1.41112
1.40167
1.40001
1.40281
1.40266
1.40001
1.37363
1.40215
1.40001
1.40001
1.43529
1.40001
1.4
1.30265
1.40001
1.40001
1.43
1.40001
1.40001
1.40047
1.40021
1.24907
1.42246
1.4162
1.44923
1.30166
1.45086
1.39769
1.46595
1.46554
1.46689
1.4673
1.40001
1.49308
1.40001
1.37818
1.2562
1.40001
1.40001
1.40001
1.48466
1.40001
1.40001
1.39027
1.39192
1.40001
1.38632
1.40001
1.40001
1.28645
1.40001
1.40001
1.40001
1.44126
1.40001
1.40001
1.43682
1.38296
1.42483
1.40001
1.42588
1.42662
1.42804
1.39017
1.40001
1.451
1.45305
1.38799
1.46091
1.40001
1.40001
1.40561
1.40001
1.57408
1.40696
1.48671
1.57469
1.49623
1.40001
1.39558
1.39892
1.40001
1.40001
1.39751
1.37877
1.40001
1.40001
1.35839
1.46727
1.46732
1.46602
1.46711
1.46545
1.46604
1.46386
1.46381
1.22871
1.38397
1.46102
1.39906
1.46158
1.45881
1.40001
1.38059
1.39981
1.45956
1.40001
1.45668
1.40001
1.45716
1.40001
1.38774
1.45346
1.40001
1.45381
1.51926
1.40001
1.45057
1.40001
1.45102
1.40001
1.2505
1.40001
1.30613
1.39999
1.40001
1.40001
1.44758
1.44815
1.40001
1.39839
1.44434
1.44485
1.3624
1.40001
1.40001
1.43934
1.45157
1.44006
1.40001
1.44711
1.43648
1.29643
1.43679
1.4524
1.44473
1.40001
1.40001
1.40001
1.43277
1.43293
1.40555
1.40001
1.40001
1.42927
1.31629
1.43008
1.29279
1.40001
1.42468
1.42535
1.40001
1.40001
1.40001
1.4015
1.40001
1.40256
1.39023
1.40487
1.40001
1.41919
1.40001
1.42
1.40001
1.40001
1.40472
1.40535
1.41648
1.41656
1.37707
1.40949
1.41224
1.41073
1.41228
1.40001
1.36999
1.4069
1.40716
1.40001
1.29428
1.4046
1.40537
1.66126
1.40001
1.40001
1.40001
1.40138
1.38053
1.40123
1.47455
1.29939
1.37521
1.27708
1.3972
1.39732
1.39019
1.3957
1.39564
1.30326
1.30248
1.46414
1.44763
1.58316
1.45338
1.40001
1.28102
1.45459
1.29756
1.36392
1.40001
1.46787
1.46397
1.46768
1.45025
1.40001
1.4507
1.40001
1.40001
1.4467
1.45137
1.40001
1.464
1.46356
1.3072
1.3146
1.40001
1.3641
1.2527
1.39988
1.40001
1.40001
1.40001
1.49273
1.40001
1.3998
1.40001
1.3823
1.488
1.42502
1.40475
1.42654
1.30002
1.40001
1.4005
1.40762
1.42934
1.49117
1.40001
1.40001
1.40001
1.40001
1.428
1.42626
1.40227
1.40001
1.40001
1.40001
1.30938
1.40001
1.40001
1.42834
1.39065
1.49312
1.44571
1.49322
1.49264
1.36833
1.36887
1.40001
1.42975
1.30138
1.37066
1.40001
1.37929
1.45336
1.40001
1.49254
1.37741
1.38968
1.49008
1.45386
1.50849
1.49364
1.40001
1.44276
1.44316
1.38289
1.40001
1.5011
1.49902
1.40825
1.40428
1.40001
1.39995
1.42415
1.30329
1.51389
1.40001
1.40001
1.40001
1.4273
1.42766
1.46716
1.49818
1.40001
1.45179
1.42248
1.40001
1.49858
1.42279
1.45098
1.37948
1.37563
1.40001
1.37982
1.39996
1.27081
1.38101
1.28572
1.41191
1.40001
1.40001
1.41148
1.40001
1.40001
1.38757
1.38262
1.40001
1.45473
1.30777
1.39766
1.28561
1.29816
1.45568
1.29871
1.29629
1.29052
1.28971
1.40001
1.48945
1.49761
1.49041
1.40001
1.37965
1.3163
1.31053
1.40001
1.40001
1.40082
1.40001
1.40212
1.40206
1.49153
1.49195
1.30608
1.49128
1.40001
1.49096
1.40001
1.38517
1.40908
1.50143
1.4927
1.40001
1.45242
1.40001
1.38415
1.38326
1.45533
1.49242
1.37945
1.37569
1.38078
1.40001
1.40001
1.40001
1.40001
1.37672
1.40127
1.40001
1.35998
1.48932
1.2975
1.40001
1.29712
1.39991
1.38137
1.40001
1.45473
1.45623
1.39601
1.54782
1.4682
1.30979
1.4162
1.4195
1.30946
1.46725
1.46774
1.37151
1.4758
1.40001
1.40001
1.40712
1.25068
1.38562
1.37518
1.40001
1.46268
1.40001
1.46365
1.40001
1.4045
1.61381
1.40243
1.39996
1.30501
1.29909
1.41783
1.45386
1.50157
1.49219
1.305
1.38775
1.39984
1.5143
1.45213
1.45489
1.45776
1.44929
1.45266
1.40001
1.40892
1.45565
1.46043
1.44969
1.37707
1.45795
1.43808
1.44594
1.46063
1.40001
1.46259
1.44641
1.46345
1.40001
1.44138
1.46636
1.46396
1.46472
1.44174
1.46609
1.4685
1.43777
1.46598
1.40001
1.46765
1.438
1.40001
1.4343
1.46792
1.40001
1.40001
1.45513
1.43502
1.40001
1.40001
1.40001
1.43158
1.42862
1.40001
1.40001
1.40001
1.43182
1.45746
1.47864
1.42667
1.40001
1.33908
1.42631
1.4215
1.42141
1.3067
1.41764
1.41763
1.41382
1.40001
1.40001
1.41475
1.40001
1.40918
1.37894
1.40001
1.40001
1.41027
1.31412
1.46586
1.40672
1.40591
1.40223
1.45354
1.40247
1.47226
1.39896
1.40001
1.38935
1.45383
1.39968
1.36107
1.3517
1.38029
1.3969
1.3855
1.38581
1.40001
1.39603
1.39186
1.39333
1.39998
1.45007
1.51599
1.40001
1.45004
1.40001
1.44094
1.45093
1.45166
1.40001
1.58744
1.38063
1.40001
1.3963
1.39884
1.38794
1.39173
1.40001
1.41874
1.43298
1.43619
1.43593
1.38564
1.43106
1.43357
1.43179
1.42384
1.40843
1.30461
1.4014
1.37841
1.40001
1.34753
1.31128
1.29653
1.35388
1.40001
1.44945
1.42378
1.26346
1.40001
1.45669
1.39285
1.34713
1.45921
1.40001
1.46979
1.40001
1.32474
1.3541
1.42385
1.42962
1.35964
1.36198
1.41734
1.45402
1.34758
1.45734
1.38832
1.39559
1.25689
1.30443
1.43717
1.33901
1.43505
1.38964
1.40001
1.43471
1.45953
1.32461
1.35447
1.40001
1.40001
1.40001
1.39524
1.49704
1.40001
1.40001
1.44486
1.35593
1.2838
1.40001
1.36545
1.40001
1.3931
1.32806
1.40001
1.40001
1.53729
1.29384
1.4672
1.29633
1.41038
1.41101
1.57597
1.43693
1.40369
1.48684
1.3751
1.40001
1.36156
1.45655
1.39508
1.3179
1.40001
1.40001
1.34601
1.39699
1.38558
1.37747
1.4079
1.40878
1.40001
1.46016
1.38456
1.37776
1.37791
1.28489
1.36317
1.48566
1.33144
1.29915
1.38062
1.26759
1.38101
1.42432
1.40001
1.40001
1.40001
1.31503
1.37926
1.40001
1.38062
1.37975
1.30312
1.36441
1.30817
1.3818
1.48025
1.40001
1.44741
1.40001
1.40001
1.33118
1.45292
1.40001
1.40001
1.48449
1.37578
1.40001
1.37451
1.24898
1.40032
1.38757
1.40001
1.48564
1.38612
1.40001
1.47865
1.38591
1.47593
1.47967
1.40001
1.40133
1.47747
1.38797
1.38462
1.4459
1.40001
1.3934
1.47026
1.45795
1.33347
1.40001
1.44279
1.47168
1.46398
1.49878
1.39441
1.51365
1.50084
1.50272
1.30971
1.46513
1.50118
1.45146
1.25848
1.40001
1.4002
1.38247
1.45712
1.45385
1.31295
1.46263
1.45497
1.27978
1.4691
1.45676
1.45797
1.51456
1.46008
1.40001
1.29081
1.45565
1.38809
1.4299
1.40001
1.45002
1.40001
1.40001
1.40001
1.45015
1.40001
1.40001
1.31553
1.39736
1.40001
1.31989
1.45067
1.40729
1.38018
1.40001
1.40075
1.40099
1.40761
1.40001
1.40001
1.40001
1.40001
1.40001
1.39835
1.40001
1.40001
1.40001
1.40001
1.40001
1.4
1.40034
1.46163
1.40001
1.35292
1.40001
1.40001
1.40001
1.40437
1.3093
1.42988
1.40001
1.44272
1.25349
1.40001
1.40001
1.40001
1.37645
1.4
1.4284
1.4
1.46169
1.30703
1.40277
1.40001
1.4
1.40001
1.40001
1.4
1.40001
1.46694
1.46626
1.40202
1.46057
1.40001
1.40001
1.40017
1.4004
1.29609
1.41357
1.40001
1.4146
1.42441
1.40001
1.43816
1.40001
1.36546
1.36532
1.31434
1.44119
1.30667
1.36024
1.40001
1.43834
1.36884
1.37061
1.42627
1.42966
1.26614
1.43035
1.4245
1.35787
1.42904
1.42969
1.44439
1.44177
1.44418
1.38452
1.40969
1.42701
1.44394
1.44377
1.42757
1.45449
1.43004
1.40001
1.38083
1.42935
1.4439
1.40561
1.30083
1.40987
1.42875
1.44516
1.45646
1.44455
1.40597
1.44498
1.31257
1.40001
1.48338
1.29188
1.45959
1.40628
1.44537
1.43008
1.41964
1.40001
1.49711
1.45551
1.40001
1.40001
1.49585
1.40001
1.40001
1.31161
1.30329
1.40001
1.44463
1.4443
1.44487
1.40001
1.29605
1.42029
1.42991
1.42947
1.42617
1.44437
1.3415
1.43021
1.44225
1.30807
1.44272
1.44345
1.4394
1.4434
1.44199
1.40001
1.31061
1.40001
1.40006
1.40001
1.49184
1.40473
1.44192
1.42793
1.48493
1.42859
1.40301
1.43816
1.42355
1.39632
1.30292
1.44867
1.40001
1.44036
1.4404
1.40001
1.46916
1.40001
1.40001
1.40001
1.40001
1.46863
1.32222
1.40001
1.43001
1.4818
1.29972
1.45358
1.44754
1.29333
1.43831
1.29277
1.40001
1.44629
1.4427
1.31832
1.47289
1.38372
1.42062
1.40001
1.40001
1.46532
1.49538
1.30211
1.30741
1.28168
1.40001
1.47049
1.50495
1.34987
1.3758
1.44469
1.49914
1.52215
1.40001
1.46939
1.42082
1.40001
1.4368
1.43673
1.38173
1.4637
1.43337
1.43512
1.40001
1.40433
1.43494
1.41499
1.47082
1.40001
1.46312
1.45247
1.40001
1.48741
1.4336
1.48699
1.45873
1.47969
1.46351
1.46901
1.44321
1.46999
1.40001
1.42662
1.40323
1.4
1.45685
1.40001
1.43195
1.4
1.40001
1.4294
1.43859
1.40001
1.43083
1.40129
1.4309
1.40001
1.47392
1.45926
1.44457
1.43959
1.30474
1.24975
1.37058
1.35682
1.36328
1.48111
1.39831
1.34922
1.3817
1.47205
1.42979
1.47222
1.45349
1.36885
1.44014
1.42016
1.31654
1.43532
1.41467
1.38146
1.37967
1.3832
1.46872
1.4255
1.40001
1.42665
1.41305
1.42708
1.36697
1.41215
1.44292
1.42132
1.44306
1.48891
1.38871
1.42553
1.39125
1.40323
1.47074
1.31451
1.42911
1.4731
1.31331
1.46594
1.29055
1.47381
1.30739
1.42113
1.41663
1.47358
1.46584
1.42263
1.37313
1.40001
1.41568
1.42286
1.44672
1.45421
1.40015
1.38585
1.40001
1.42416
1.31214
1.39271
1.27002
1.4533
1.40001
1.45104
1.40713
1.42089
1.40001
1.45393
1.38225
1.39175
1.44484
1.38597
1.43915
1.31988
1.37714
1.46649
1.44496
1.44858
1.41633
1.41825
1.40001
1.41831
1.40001
1.37763
1.4642
1.41568
1.28414
1.4575
1.39517
1.40001
1.43901
1.44298
1.39366
1.40078
1.40841
1.44309
1.43932
1.59015
1.42517
1.40001
1.41115
1.46965
1.41366
1.40001
1.44138
1.41327
1.40001
1.43857
1.44155
1.54234
1.49498
1.43945
1.41055
1.33425
1.40001
1.40001
1.43962
1.43668
1.40001
1.41701
1.39135
1.43868
1.44128
1.41117
1.37986
1.31355
1.40001
1.41461
1.49259
1.40001
1.40001
1.4469
1.49067
1.41338
1.41428
1.40875
1.26036
1.25911
1.45238
1.32642
1.40809
1.40619
1.44645
1.45765
1.39507
1.40583
1.41073
1.42373
1.40565
1.41698
1.4176
1.42047
1.4188
1.47406
1.45228
1.49413
1.40422
1.44029
1.49229
1.29776
1.40001
1.40468
1.39681
1.35941
1.31091
1.40001
1.40001
1.39912
1.39971
1.31378
1.40778
1.40001
1.40001
1.40782
1.42173
1.45749
1.40001
1.40001
1.40354
1.39925
1.39886
1.46692
1.40421
1.40588
1.40003
1.3975
1.41842
1.40957
1.45987
1.30128
1.41558
1.51612
1.42922
1.5408
1.433
1.37994
1.42409
1.33827
1.42377
1.43269
1.39885
1.39732
1.43983
1.40001
1.40318
1.47501
1.40001
1.33953
1.33014
1.3464
1.33579
1.46705
1.39546
1.47385
1.40001
1.34316
1.42836
1.30546
1.30573
1.37965
1.31001
1.49262
1.41847
1.42824
1.29163
1.43317
1.39506
1.4928
1.30293
1.40001
1.35207
1.35889
1.2899
1.49212
1.38414
1.37829
1.40001
1.40001
1.38033
1.35428
1.46927
1.40001
1.47176
1.35194
1.40001
1.42387
1.30035
1.29174
1.31164
1.39583
1.42408
1.38163
1.40001
1.28984
1.31774
1.40001
1.28667
1.42783
1.38203
1.38317
1.40427
1.40001
1.40001
1.28108
1.35849
1.46701
1.29317
1.29576
1.49007
1.3033
1.4
1.40001
1.41948
1.40001
1.40001
1.42799
1.37235
1.36799
1.41992
1.47346
1.42742
1.43521
1.32003
1.42781
1.32646
1.45545
1.36574
1.39999
1.40001
1.40001
1.2969
1.35502
1.38236
1.32353
1.40001
1.40001
1.45573
1.3237
1.29767
1.29743
1.41506
1.39651
1.32798
1.40001
1.44375
1.40001
1.41546
1.40001
1.40346
1.4
1.37909
1.40001
1.38578
1.40001
1.40001
1.40001
1.40001
1.40001
1.40001
1.40003
1.42855
1.40001
1.40417
1.44358
1.40001
1.37776
1.47027
1.40001
1.36683
1.40022
1.44516
1.40001
1.40001
1.41281
1.30444
1.32302
1.27799
1.44376
1.44408
1.36525
1.41343
1.46645
1.40001
1.40001
1.40001
1.40001
1.39094
1.41071
1.44462
1.33634
1.39245
1.3283
1.4107
1.41913
1.31479
1.35769
1.44442
1.41622
1.44499
1.38607
1.44483
1.38878
1.40001
1.47251
1.41698
1.4276
1.40001
1.40001
1.25704
1.41312
1.33488
1.36021
1.40914
1.44501
1.40001
1.30396
1.40001
1.37489
1.40812
1.40785
1.41498
1.30912
1.33539
1.37565
1.44442
1.3946
1.44495
1.3941
1.40001
1.41376
1.39655
1.3013
1.4423
1.46555
1.37511
1.40001
1.40001
1.57111
1.44382
1.41693
1.43896
1.49343
1.39021
1.28149
1.43656
1.40001
1.4164
1.4835
1.40001
1.44397
1.34772
1.27988
1.44243
1.48013
1.39308
1.38429
1.4408
1.38129
1.39895
1.40001
1.39647
1.39649
1.44078
1.3718
1.40001
1.39599
1.38529
1.40695
1.39643
1.43879
1.40894
1.39674
1.40001
1.4297
1.40001
1.3959
1.41218
1.40001
1.40001
1.49123
1.41048
1.44435
1.41507
1.40001
1.40001
1.43458
1.39732
1.39569
1.40613
1.40001
1.47879
1.40001
1.39299
1.47928
1.40076
1.60361
1.40964
1.35982
1.40593
1.43574
1.55
1.4557
1.33485
1.39272
1.39561
1.38347
1.35671
1.40001
1.43719
1.36741
1.43433
1.40001
1.43602
1.43466
1.40001
1.40072
1.30369
1.3631
1.40191
1.43722
1.46248
1.37281
1.3794
1.43063
1.40001
1.43208
1.36818
1.39814
1.56255
1.39751
1.40001
1.40001
1.40001
1.35872
1.40459
1.43232
1.41055
1.43035
1.6165
1.40001
1.47257
1.49429
1.43866
1.42605
1.31604
1.40001
1.39475
1.47069
1.40294
1.41078
1.39714
1.42816
1.4846
1.39394
1.23145
1.45619
1.42802
1.4256
1.39174
1.40001
1.46624
1.41726
1.38451
1.40001
1.42128
1.46845
1.40001
1.40001
1.39256
1.40001
1.40001
1.34912
1.30459
1.40199
1.4237
1.42813
1.4691
1.46979
1.40001
1.37681
1.4689
1.3224
1.46179
1.31868
1.42311
1.40672
1.25458
1.42117
1.30744
1.40001
1.28581
1.3297
1.41918
1.30676
1.41642
1.40001
1.41036
1.4696
1.4028
1.41888
1.47471
1.40001
1.39018
1.4741
1.39752
1.40001
1.40836
1.41834
1.41664
1.39519
1.38676
1.40001
1.30683
1.40001
1.4482
1.39367
1.47603
1.21055
1.4
1.44957
1.28363
1.41184
1.47102
1.40154
1.41358
1.36767
1.37841
1.41268
1.41003
1.4079
1.39999
1.44466
1.3082
1.41152
1.41346
1.45866
1.3404
1.41239
1.34568
1.40001
1.39999
1.39932
1.45817
1.34147
1.37522
1.3678
1.37494
1.41778
1.3049
1.39378
1.3845
1.31546
1.40001
1.41558
1.39912
1.3375
1.40658
1.3461
1.39995
1.40001
1.40881
1.40734
1.40001
1.40001
1.40001
1.40001
1.39994
1.45227
1.40613
1.44874
1.33909
1.40001
1.40905
1.45695
1.4103
1.39603
1.40775
1.38233
1.39173
1.4037
1.32972
1.4
1.40001
1.3525
1.42784
1.40001
1.40001
1.37953
1.41721
1.40588
1.39991
1.39698
1.42429
1.47202
1.63725
1.6857
1.63624
1.41985
1.42476
1.39829
1.40001
1.40392
1.31894
1.47152
1.40012
1.35223
1.42144
1.36143
1.42267
1.40309
1.32914
1.42934
1.45863
1.4129
1.4321
1.4259
1.40001
1.57183
1.4238
1.42942
1.37975
1.40001
1.47087
1.57744
1.39906
1.31828
1.25933
1.56956
1.40001
1.41103
1.47581
1.43795
1.31046
1.3992
1.43452
1.43557
1.40549
1.27008
1.414
1.43323
1.31054
1.39562
1.3965
1.31082
1.46247
1.39563
1.41074
1.39696
1.40001
1.35957
1.24922
1.3921
1.34616
1.39205
1.44248
1.49247
1.30919
1.39477
1.44648
1.39553
1.31205
1.30805
1.31697
1.44091
1.39205
1.3838
1.42704
1.38165
1.42132
1.35992
1.62494
1.35038
1.43986
1.38542
1.35416
1.38052
1.29408
1.31934
1.44231
1.32055
1.44225
1.40001
1.39697
1.40001
1.31908
1.44211
1.40001
1.40001
1.31608
1.4497
1.40001
1.37313
1.42196
1.4927
1.37781
1.46955
1.26026
1.40001
1.35244
1.32214
1.4441
1.31894
1.39258
1.4442
1.39361
1.39347
1.39836
1.40001
1.3998
1.4
1.44438
1.41925
1.44937
1.35422
1.35019
1.44274
1.44438
1.44331
1.40001
1.34871
1.26729
1.44454
1.40001
1.45244
1.40943
1.34798
1.44422
1.35861
1.33378
1.40001
1.35023
1.40001
1.3231
1.49348
1.35577
1.27306
1.47252
1.44399
1.40513
1.35596
1.44507
1.3884
1.44385
1.39121
1.40619
1.47146
1.39012
1.39204
1.40001
1.44989
1.47095
1.44358
1.40179
1.55601
1.44741
1.40001
1.40001
1.44357
1.40182
1.32553
1.45247
1.40001
1.40001
1.45122
1.44328
1.4562
1.40945
1.45362
1.44317
1.42268
1.34973
1.37882
1.40998
1.44251
1.38667
1.40001
1.40001
1.46259
1.44209
1.44581
1.31476
1.40338
1.47044
1.40001
1.32477
1.44133
1.40001
1.38964
1.37454
1.45829
1.40324
1.39471
1.42006
1.32362
1.44138
1.46371
1.38807
1.41836
1.41724
1.39165
1.41199
1.40001
1.39737
1.41387
1.36322
1.40756
1.42943
1.42834
1.46049
1.3909
1.46656
1.46403
1.46829
1.32207
1.42839
1.44078
1.47276
1.40001
1.39466
1.4705
1.46269
1.4023
1.4409
1.47744
1.4725
1.41709
1.40176
1.39326
1.40057
1.39669
1.40242
1.44013
1.47388
1.37183
1.46161
1.40053
1.3314
1.37339
1.39607
1.40171
1.43966
1.40003
1.35384
1.40799
1.39247
1.46896
1.51599
1.31588
1.47099
1.39369
1.40001
1.36275
1.40042
1.43641
1.61206
1.42761
1.49
1.43879
1.42323
1.44798
1.44713
1.46826
1.40001
1.41027
1.39952
1.43807
1.41755
1.37623
1.40279
1.40394
1.40682
1.37803
1.47444
1.52471
1.43959
1.26148
1.40246
1.43736
1.43739
1.33243
1.40001
1.40001
1.47249
1.40314
1.40001
1.40001
1.40576
1.33146
1.38983
1.47483
1.405
1.3888
1.43557
1.40817
1.42776
1.32788
1.47007
1.38921
1.43548
1.33126
1.32972
1.40656
1.40763
1.39634
1.40001
1.41308
1.40001
1.40001
1.49345
1.3313
1.34614
1.44383
1.43482
1.49371
1.33268
1.40001
1.40001
1.43489
1.49554
1.48981
1.41076
1.41108
1.43383
1.44322
1.39955
1.4108
1.40001
1.46906
1.40001
1.40001
1.41398
1.40001
1.4582
1.43258
1.46275
1.39256
1.43275
1.47061
1.41287
1.40001
1.40001
1.47191
1.41608
1.43194
1.4319
1.40001
1.42086
1.41457
1.38894
1.40026
1.40001
1.40005
1.45946
1.40001
1.32304
1.41766
1.40001
1.40001
1.40737
1.40001
1.4699
1.42954
1.40001
1.3389
1.41681
1.40001
1.43921
1.39291
1.40001
1.42979
1.26247
1.40001
1.29709
1.42539
1.44885
1.40001
1.4388
1.44314
1.40001
1.40001
1.40001
1.399
1.39756
1.33841
1.42093
1.40995
1.42647
1.40001
1.40001
1.31735
1.43883
1.40001
1.39595
1.41969
1.40001
1.34701
1.40001
1.42191
1.40001
1.345
1.40001
1.27938
1.40001
1.40001
1.40063
1.25875
1.43811
1.46933
1.43151
1.42115
1.40001
1.3414
1.31854
1.42432
1.26295
1.40001
1.45311
1.40569
1.40971
1.31602
1.48932
1.34297
1.40001
1.33009
1.42297
1.35002
1.34874
1.40636
1.40001
1.3837
1.3459
1.40001
1.40001
1.30988
1.39998
1.57387
1.4245
1.42715
1.40001
1.40001
1.40001
1.42603
1.49414
1.31409
1.42904
1.4
1.47089
1.35343
1.31074
1.32055
1.44514
1.40001
1.40102
1.42794
1.35391
1.3701
1.41883
1.29276
1.37169
1.39997
1.30859
1.30194
1.40001
1.43731
1.46706
1.40001
1.41568
1.4285
1.4
1.39348
1.474
1.43676
1.37282
1.41786
1.40001
1.39992
1.46619
1.4322
1.43637
1.40001
1.54306
1.46661
1.42745
1.4
1.382
1.40854
1.40001
1.39996
1.40163
1.4311
1.40001
1.25982
1.40001
1.41034
1.362
1.58687
1.43091
1.35875
1.42335
1.43373
1.43386
1.30197
1.45468
1.40393
1.39995
1.36559
1.43039
1.43285
1.4166
1.43341
1.42166
1.30796
1.40001
1.43966
1.47473
1.49094
1.33472
1.43359
1.43553
1.42308
1.38978
1.39011
1.4998
1.37467
1.42403
1.38355
1.34394
1.32028
1.40631
1.36852
1.34299
1.40001
1.43036
1.43505
1.47053
1.40001
1.40001
1.43278
1.34365
1.41493
1.43032
1.38369
1.40001
1.43752
1.42335
1.41396
1.43518
1.42865
1.40001
1.49215
1.41936
1.43694
1.43871
1.428
1.41301
1.47134
1.40001
1.32733
1.43417
1.33801
1.4182
1.44433
1.37912
1.38216
1.37637
1.53436
1.43961
1.38248
1.4056
1.40347
1.40721
1.43669
1.23933
1.40001
1.43993
1.40001
1.45366
1.56162
1.32156
1.4603
1.44448
1.42093
1.33017
1.40568
1.41887
1.44671
1.40001
1.40733
1.36886
1.35379
1.38669
1.43943
1.40001
1.44412
1.43606
1.44437
1.37071
1.33813
1.40001
1.46674
1.41746
1.51656
1.46557
1.44317
1.31306
1.41616
1.45536
1.32485
1.44417
1.44428
1.38782
1.44825
1.46211
1.38044
1.439
1.43402
1.40001
1.43569
1.42041
1.44418
1.44404
1.43733
1.39799
1.47291
1.44228
1.46839
1.41399
1.37637
1.44111
1.40001
1.4385
1.44432
1.4194
1.44336
1.40001
1.44198
1.33089
1.46995
1.52076
1.44383
1.4426
1.42316
1.40001
1.4743
1.33491
1.40001
1.44304
1.44383
1.44214
1.40001
1.40001
1.42238
1.44267
1.40001
1.44332
1.40001
1.44148
1.44033
1.31876
1.40001
1.4422
1.40001
1.43991
1.42051
1.48372
1.38061
1.4448
1.44095
1.43911
1.40001
1.40001
1.40001
1.42773
1.44425
1.33548
1.43975
1.38769
1.43859
1.44321
1.40145
1.38789
1.44331
1.48374
1.40001
1.43345
1.44855
1.3884
1.40001
1.42686
1.4442
1.40001
1.43921
1.35534
1.35804
1.35562
1.4458
1.49402
1.43685
1.44258
1.42467
1.33171
1.43844
1.50208
1.51425
1.38933
1.39136
1.43018
1.40001
1.51799
1.44557
1.3344
1.43583
1.46396
1.40171
1.39552
1.33334
1.31307
1.40001
1.43677
1.44485
1.42109
1.42898
1.43181
1.40001
1.39997
1.43405
1.40304
1.44685
1.43491
1.40001
1.40001
1.44442
1.4324
1.42005
1.40001
1.40552
1.40001
1.40001
1.4043
1.44666
1.40001
1.43363
1.45713
1.41617
1.40001
1.31873
1.40389
1.44639
1.43078
1.40001
1.43144
1.40755
1.34141
1.39807
1.45318
1.47534
1.43363
1.40001
1.44723
1.42604
1.40856
1.40001
1.4896
1.4283
1.39996
1.42974
1.44695
1.43261
1.44599
1.44722
1.40001
1.38163
1.42548
1.491
1.40371
1.42824
1.42364
1.32008
1.40835
1.40001
1.32795
1.40001
1.44733
1.39726
1.40001
1.40001
1.42119
1.38556
1.41666
1.40845
1.2626
1.40001
1.40001
1.33954
1.3779
1.43784
1.40184
1.46955
1.35373
1.44693
1.41666
1.44784
1.40001
1.43693
1.47043
1.4478
1.40001
1.48391
1.3981
1.40001
1.44848
1.34993
1.40001
1.53214
1.43978
1.41678
1.39907
1.47214
1.39786
1.40001
1.40637
1.42716
1.40001
1.44824
1.47118
1.47294
1.40735
1.43897
1.33781
1.42722
1.40001
1.40447
1.38668
1.56198
1.45328
1.407
1.40001
1.33807
1.40553
1.44691
1.33702
1.40001
1.40001
1.33818
1.55425
1.40001
1.46732
1.34709
1.4421
1.52054
1.44935
1.26111
1.44767
1.34096
1.36312
1.39677
1.38325
1.38477
1.45777
1.44127
1.39851
1.34021
1.33386
1.48353
1.40001
1.4493
1.36233
1.40001
1.47051
1.32019
1.40001
1.44596
1.41392
1.25177
1.40001
1.44477
1.44622
1.40796
1.33742
1.403
1.465
1.44973
1.41311
1.4923
1.25098
1.44405
1.40843
1.40235
1.34189
1.4172
1.40768
1.26738
1.26205
1.4575
1.26767
1.4497
1.44033
1.40001
1.4112
1.40001
1.41232
1.31553
1.47122
1.46552
1.40001
1.44174
1.40934
1.3309
1.39663
1.44667
1.4021
1.2673
1.40001
1.206
1.32745
1.45578
1.42891
1.41104
1.44462
1.40001
1.40001
1.40006
1.35666
1.39946
1.44618
1.41508
1.44127
1.40696
1.44623
1.34477
1.46556
1.41593
1.47358
1.41046
1.24836
1.33312
1.40001
1.40001
1.26736
1.40001
1.41421
1.34623
1.39994
1.39663
1.3918
1.35234
1.45238
1.40001
1.25249
1.40001
1.40001
1.4075
1.44852
1.39716
1.45584
1.34169
1.41359
1.43337
1.51484
1.34412
1.40049
1.40245
1.40001
1.32734
1.44793
1.36926
1.39346
1.404
1.3943
1.41857
1.39297
1.40001
1.38411
1.3924
1.36155
1.40671
1.41938
1.34248
1.40336
1.3323
1.40001
1.45315
1.43019
1.40274
1.41977
1.34226
1.40001
1.40001
1.37075
1.40001
1.40001
1.41015
1.42903
1.31127
1.33714
1.36897
1.41801
1.40178
1.45072
1.40001
1.40001
1.39569
1.31811
1.39523
1.39378
1.4226
1.40001
1.38856
1.26037
1.39849
1.33912
1.31081
1.25807
1.40001
1.42571
1.41071
1.39646
1.45005
1.38822
1.40001
1.40001
1.49067
1.38655
1.44676
1.39553
1.40946
1.42405
1.39212
1.59753
1.40001
1.40399
1.38666
1.44672
1.40001
1.39681
1.32623
1.41288
1.40015
1.38669
1.40064
1.39835
1.36819
1.28486
1.42187
1.44268
1.40001
1.42719
1.38372
1.44748
1.35269
1.39253
1.398
1.26925
1.40247
1.42322
1.51282
1.30251
1.40878
1.39999
1.42182
1.40001
1.40217
1.40001
1.44741
1.41005
1.27145
1.39999
1.38908
1.45221
1.39106
1.40001
1.44166
1.36242
1.41131
1.36741
1.30289
1.40765
1.3888
1.426
1.50384
1.41568
1.45187
1.3825
1.38997
1.29306
1.34651
1.40001
1.42485
1.33984
1.34302
1.3759
1.34067
1.40001
1.27369
1.4219
1.34468
1.44623
1.4079
1.30847
1.40001
1.34636
1.43108
1.43115
1.40451
1.34698
1.32698
1.34338
1.46097
1.40583
1.44784
1.33219
1.4194
1.24405
1.34533
1.30412
1.49016
1.30747
1.40127
1.40001
1.40445
1.48903
1.31748
1.38563
1.40001
1.43046
1.39403
1.40001
1.40332
1.40001
1.33936
1.40244
1.41806
1.42168
1.4
1.26783
1.40001
1.42243
1.52968
1.39651
1.40001
1.4059
1.44902
1.40699
1.42913
1.42284
1.39586
1.33765
1.42454
1.40001
1.4763
1.31426
1.42191
1.32438
1.43494
1.4
1.39601
1.46233
1.26247
1.45431
1.34107
1.40001
1.43019
1.4502
1.42142
1.40934
1.34511
1.43651
1.42524
1.49373
1.31261
1.49214
1.45402
1.40494
1.31932
1.5772
1.40139
1.43414
1.44911
1.40001
1.43757
1.52535
1.44952
1.38095
1.30526
1.4245
1.31945
1.40119
1.46609
1.40001
1.40001
1.36355
1.35516
1.43036
1.48313
1.4481
1.36496
1.32608
1.43733
1.40027
1.40045
1.34599
1.33397
1.4513
1.40001
1.31746
1.30599
1.26949
1.40065
1.43025
1.40001
1.40463
1.33463
1.40841
1.43217
1.40111
1.41635
1.3843
1.41982
1.26676
1.47517
1.39994
1.44779
1.46601
1.3666
1.35022
1.40832
1.34466
1.51461
1.42952
1.40001
1.3458
1.35274
1.44178
1.44091
1.4111
1.42192
1.40068
1.39307
1.35646
1.39466
1.45616
1.33613
1.434
1.43243
1.42564
1.43602
1.43012
1.43803
1.4
1.35177
1.42737
1.42519
1.39998
1.35487
1.38135
1.40242
1.45604
1.39145
1.4423
1.25971
1.3914
1.40166
1.39998
1.39052
1.43994
1.40001
1.44405
1.39329
1.3454
1.33759
1.39546
1.4
1.33791
1.34628
1.39813
1.40899
1.35608
1.40676
1.44572
1.38486
1.38736
1.40001
1.47673
1.34641
1.50179
1.35916
1.37406
1.39974
1.44686
1.5005
1.4
1.45402
1.44231
1.43332
1.4
1.43131
1.4354
1.3396
1.4292
1.40001
1.42682
1.43714
1.39691
1.40001
1.43915
1.37324
1.4381
1.43925
1.41071
1.42383
1.2759
1.40336
1.44789
1.40001
1.4
1.4579
1.44965
1.44171
1.34763
1.4259
1.34406
1.39772
1.38641
1.35324
1.37362
1.32009
1.32496
1.40627
1.41173
1.44364
1.3429
1.35262
1.33945
1.42382
1.37166
1.39224
1.43744
1.44525
1.40001
1.34715
1.39291
1.40923
1.45647
1.44898
1.34863
1.42248
1.37318
1.45671
1.44645
1.39248
1.44066
1.40001
1.40356
1.38715
1.34687
1.26561
1.37317
1.40001
1.39809
1.40098
1.43313
1.40646
1.41166
1.39718
1.46048
1.41142
1.44755
1.3415
1.50586
1.38888
1.31806
1.41891
1.40061
1.40001
1.43994
1.44962
1.3941
1.50292
1.3945
1.47319
1.40001
1.34269
1.40268
1.40434
1.40001
1.32478
1.40952
1.41944
1.42656
1.37425
1.33832
1.42377
1.44886
1.41317
1.41789
1.40001
1.34706
1.39535
1.40875
1.48361
1.41197
1.40001
1.38817
1.39186
1.45663
1.46205
1.41411
1.45696
1.39072
1.46136
1.40001
1.49145
1.38317
1.31645
1.34387
1.45894
1.33794
1.3457
1.38306
1.44955
1.40001
1.39368
1.42411
1.40001
1.40883
1.33945
1.42114
1.39115
1.40001
1.42068
1.41064
1.33916
1.37684
1.47373
1.46819
1.39281
1.3625
1.39761
1.38969
1.36406
1.31816
1.42524
1.40001
1.39896
1.34239
1.4115
1.44978
1.36184
1.34667
1.31791
1.34241
1.45438
1.38247
1.45562
1.42259
1.4481
1.46522
1.36223
1.35766
1.34583
1.40001
1.33952
1.47364
1.42151
1.42396
1.36842
1.35965
1.43618
1.35722
1.44712
1.39796
1.52579
1.40001
1.37872
1.3547
1.31727
1.35057
1.46135
1.45839
1.40001
1.42707
1.35546
1.47371
1.40001
1.32879
1.40001
1.45308
1.33745
1.38808
1.41851
1.40001
1.45564
1.33905
1.3505
1.42623
1.40001
1.40001
1.44768
1.38293
1.40635
1.42375
1.44294
1.44957
1.4482
1.46051
1.4142
1.39795
1.25872
1.32508
1.44511
1.45263
1.46906
1.40001
1.31811
1.32278
1.37658
1.44779
1.35063
1.50157
1.3642
1.40001
1.41745
1.37555
1.35379
1.32082
1.31111
1.46458
1.44736
1.43846
1.51162
1.3998
1.45405
1.34947
1.42089
1.41614
1.40001