/*--------------------------------*- C++ -*----------------------------------*\
  =========                 |
  \\      /  F ield         | OpenFOAM: The Open Source CFD Toolbox
   \\    /   O peration     | Website:  https://openfoam.org
    \\  /    A nd           | Version:  12
     \\/     M anipulation  |
\*---------------------------------------------------------------------------*/
FoamFile
{
    format      ascii;
    class       volScalarField;
    location    "3";
    object      rho;
}
// * * * * * * * * * * * * * * * * * * * * * * * * * * * * * * * * * * * * * //

dimensions      [1 -3 0 0 0 0 0];

internalField   nonuniform List<scalar> 
46253
(
1.26994
1.40001
1.40001
1.40001
1.40001
1.40001
1.20648
1.54445
1.40001
1.40001
1.27086
1.18226
1.40001
1.40001
1.40001
1.40001
1.40001
1.40001
1.40001
1.40001
1.40001
1.40001
1.40001
1.23438
1.20549
1.40001
1.40001
1.40001
1.40001
1.54553
1.51037
1.40001
1.40001
1.40001
1.40001
1.40001
1.40001
1.40001
1.54089
1.40001
1.19963
1.1828
1.40001
1.40001
1.13385
1.40001
1.40001
1.40001
1.40001
1.40001
1.39995
1.39994
1.40001
1.54944
1.4
1.25222
1.40004
1.40988
1.64213
1.18392
1.40001
1.10062
1.40001
1.40001
1.40001
1.40001
1.40001
1.40001
1.25442
1.13639
1.20888
1.53736
1.52968
1.45935
1.40001
1.23253
1.75098
1.74579
1.40001
1.40001
1.40001
1.79695
1.40001
1.85075
1.20118
1.40001
1.68453
1.6827
1.53619
1.40001
1.40001
1.18913
1.40001
1.40029
1.40001
1.40063
1.40001
1.40001
1.63962
1.40001
1.40001
1.40001
1.40001
1.50673
1.4
1.20272
1.18861
1.63558
1.63362
1.20867
1.55238
1.58809
1.62238
1.40001
1.40001
1.5325
1.14611
1.20331
1.83613
1.26593
1.40001
1.40001
1.80771
1.79556
1.40001
1.83603
1.40001
1.23229
1.39476
1.72994
1.60363
1.60166
1.40001
1.21311
1.72581
1.40001
1.70991
1.70763
1.26062
1.40001
1.76369
1.58545
1.58343
1.49612
1.76577
1.40049
1.6923
1.6903
1.54196
1.40001
1.20583
1.40001
1.71996
1.71697
1.45327
1.13616
1.22941
1.40001
1.66903
1.40001
1.66745
1.18835
1.24857
1.40001
1.20361
1.70072
1.21465
1.69885
2.04821
1.40001
1.65543
1.65352
1.40001
1.20977
1.40001
1.12543
1.46245
1.40001
1.46919
1.14921
1.4
1.4524
1.64194
1.64011
1.40001
1.67699
1.67416
1.13216
1.40001
1.40001
1.40001
1.40001
1.17595
1.40001
1.40001
1.40001
1.55184
1.40001
1.49316
1.49182
1.40001
1.40001
1.66232
1.66107
1.40001
1.13941
1.44703
1.62193
1.62031
1.40001
1.40001
1.8352
1.20977
1.40001
1.47065
1.40001
1.4917
1.19504
1.60943
1.40001
1.40001
1.60783
1.12267
1.64836
1.6468
1.19039
1.40001
1.40001
1.46756
1.46654
1.58185
1.40001
1.40001
1.40001
1.40001
1.40001
1.40001
1.40001
1.57946
1.59955
1.40001
1.40001
1.40001
1.40001
1.40001
1.40001
1.40001
1.44452
1.40001
1.59078
1.58921
1.59709
1.44321
1.40001
1.44101
1.62882
1.62661
1.27439
1.20182
1.40001
1.21385
1.17848
1.20339
1.49883
1.43995
1.40001
1.40001
1.40001
1.61552
1.57281
1.61412
1.40001
1.40001
1.40001
1.57147
1.40001
1.4002
1.40001
1.54656
1.29751
1.41769
1.41593
1.40001
1.40001
1.40001
1.15069
1.17427
1.26616
1.4816
1.40001
1.6299
1.62758
1.19132
1.40001
1.61885
1.54593
1.40001
1.54187
1.20166
1.56202
1.81842
1.56076
1.23946
1.81739
1.40001
1.59723
1.59521
1.40001
1.49694
1.40001
1.40001
1.46653
1.40001
1.55141
1.40001
1.5502
1.25021
1.61687
1.40001
1.54572
1.23213
1.40001
1.20706
1.20546
1.52958
1.4765
1.40001
1.40001
1.54065
1.53932
1.37719
1.37638
1.40001
1.40001
1.40001
1.26807
1.26991
1.57928
1.57722
1.40001
1.40001
1.40001
1.40001
1.85118
1.40001
1.53047
1.5292
1.40001
1.26063
1.40001
1.55023
1.40001
1.14103
1.40001
1.19213
1.40001
1.5672
1.40001
1.5658
1.40001
1.19109
1.40001
1.40001
1.40001
1.40001
1.40001
1.40001
1.40001
1.51956
1.40001
1.40001
1.40001
1.40001
1.51785
1.40001
1.60894
1.25715
1.40001
1.40001
1.40001
1.20132
1.47687
1.23415
1.5567
1.54965
1.55527
1.40001
1.40001
1.50941
1.86868
1.40001
1.48499
1.50818
1.21652
1.40001
1.54953
1.43102
1.42944
1.40001
1.51598
1.40001
1.32682
1.32624
1.60659
1.40001
1.39995
1.40001
1.40001
1.40001
1.40001
1.40001
1.40001
1.77987
1.40001
1.51009
1.40001
1.13143
1.40001
1.40001
1.27649
1.40001
1.40001
1.49856
1.40001
1.54585
1.40001
1.40001
1.49689
1.54414
1.40001
1.46523
1.40001
1.40001
1.40001
1.40001
1.46827
1.54672
1.40001
1.40001
1.55022
1.23544
1.40001
1.19419
1.40001
1.47846
1.45813
1.40001
1.40001
1.26101
1.40001
1.30074
1.51963
1.40001
1.10854
1.40001
1.6438
1.55079
1.40005
1.53535
1.36949
1.40001
1.42177
1.45395
1.53412
1.40001
1.47423
1.40001
1.40001
1.40001
1.40001
1.40001
1.4779
1.40001
1.55155
1.23938
1.4832
1.28492
1.43872
1.48172
1.44633
1.29501
1.29418
1.40001
1.40001
1.40001
1.40001
1.39662
1.40001
1.30406
1.19529
1.1613
1.30662
1.47437
1.20704
1.48055
1.40001
1.40001
1.52482
1.50836
1.20471
1.52324
1.47197
1.47087
1.28404
1.20292
1.40001
1.2816
1.50413
1.40001
1.40001
1.40001
1.18014
1.40001
1.54967
1.13212
1.40001
1.40001
1.48428
1.40001
1.40001
1.35825
1.10839
1.51013
1.40001
1.40001
1.51167
1.40001
1.51
1.52098
1.51192
1.40001
1.46064
1.45834
1.40001
1.36796
1.50777
1.40001
1.40001
1.51382
1.40001
1.21908
1.28124
1.40001
1.40001
1.51292
1.40001
1.40001
1.40001
1.40001
1.15521
1.40001
1.40001
1.45706
1.28569
1.45523
1.19643
1.40001
1.40001
1.40001
1.40001
1.40001
1.40001
1.40001
1.47428
1.16434
1.40001
1.40001
1.40001
1.40001
1.40001
1.40001
1.21723
1.49002
1.40001
1.47388
1.40001
1.40001
1.23682
1.40001
1.40001
1.40001
1.50395
1.40001
1.40001
1.50218
1.46919
1.53672
1.40001
1.53989
1.54107
1.54514
1.54857
1.40001
1.4471
1.44611
1.48298
1.56222
1.40001
1.40001
1.46058
1.40001
1.81548
1.46513
1.40001
1.82192
1.3965
1.40001
1.49616
1.50383
1.40001
1.40001
1.54838
1.48517
1.40001
1.40001
1.41626
1.40001
1.40001
1.40031
1.40023
1.66324
1.67056
1.64788
1.64931
1.12572
1.47145
1.63789
1.28473
1.63993
1.62792
1.40001
1.21945
1.24831
1.63017
1.40001
1.61569
1.40001
1.61821
1.40001
1.47813
1.60586
1.40001
1.60724
1.72376
1.40001
1.59714
1.40001
1.59864
1.40001
1.16095
1.40001
1.29107
1.25318
1.40001
1.40001
1.58699
1.58865
1.40001
1.5025
1.57669
1.57859
1.41812
1.40001
1.40001
1.56114
1.4321
1.56273
1.40001
1.48867
1.55126
1.24312
1.5533
1.43098
1.48784
1.40001
1.40001
1.40001
1.54209
1.54343
1.54294
1.40001
1.40001
1.53182
1.31325
1.53284
1.23393
1.40001
1.51687
1.51794
1.40001
1.40001
1.40001
1.10069
1.40001
1.50873
1.42329
1.51283
1.40001
1.50131
1.40001
1.50287
1.40001
1.40001
1.51206
1.51218
1.49091
1.49226
1.47052
1.51689
1.48188
1.52016
1.48233
1.40001
1.43255
1.46766
1.46822
1.40001
1.26972
1.45783
1.45919
1.98715
1.40001
1.40001
1.40001
1.45013
1.46913
1.45086
1.10741
1.55995
1.3813
1.20906
1.43996
1.4419
1.4209
1.43323
1.43304
1.26208
1.25723
1.40001
1.5538
1.83627
1.42211
1.40001
1.21566
1.42131
1.24674
1.56051
1.21943
1.40001
1.40001
1.40001
1.47709
1.40001
1.40001
1.40001
1.40001
1.40001
1.47523
1.40001
1.40001
1.40001
1.2811
1.2736
1.40001
1.42586
1.12461
1.26607
1.40001
1.40001
1.40001
1.40001
1.40001
1.38738
1.40001
1.4771
1.40001
1.53167
1.51298
1.53376
1.25379
1.40001
1.21387
1.19625
1.54565
1.40001
1.40001
1.40001
1.40001
1.40001
1.53667
1.53458
1.49909
1.2249
1.22191
1.40001
1.29319
1.40001
1.40001
1.53704
1.41771
1.40018
1.54749
1.39657
1.4
1.4297
1.43596
1.40001
1.54003
1.23374
1.36451
1.40001
1.47794
1.40817
1.40001
1.40001
1.47898
1.48451
1.40001
1.40709
1.11687
1.40001
1.40001
1.5713
1.57282
1.47121
1.40001
1.11944
1.11892
1.19783
1.51217
1.40001
1.50834
1.55096
1.23634
1.71436
1.40001
1.40001
1.40001
1.52722
1.52875
1.40001
1.39863
1.40001
1.46356
1.51116
1.40001
1.39773
1.51309
1.46211
1.47476
1.47125
1.40001
1.47283
1.51546
1.21463
1.47002
1.23777
1.47739
1.40001
1.40001
1.47891
1.40001
1.40001
1.478
1.47299
1.40001
1.39859
1.27804
1.50224
1.26243
1.26687
1.39722
1.26952
1.26517
1.2338
1.23128
1.40001
1.40001
1.56156
1.40001
1.40001
1.48109
1.29046
1.27715
1.40001
1.40001
1.51919
1.40001
1.50981
1.51785
1.43303
1.6539
1.57849
1.39977
1.40001
1.4
1.40001
1.47406
1.51565
1.56304
1.12175
1.40001
1.45104
1.40001
1.39956
1.39918
1.45035
1.40001
1.39626
1.38042
1.3958
1.40001
1.40001
1.40001
1.40001
1.38134
1.51041
1.40001
1.41348
1.40001
1.26733
1.40001
1.26757
1.25662
1.21212
1.40001
1.39056
1.38828
1.20647
1.76992
1.40001
1.27498
1.55146
1.55098
1.27753
1.40001
1.40001
1.36644
1.10342
1.40001
1.40001
1.51346
1.15229
1.54746
1.38145
1.40001
1.40001
1.40001
1.40001
1.40001
1.40001
1.87474
1.40001
1.26596
1.25417
1.25136
1.54922
1.12787
1.10748
1.12293
1.27253
1.57231
1.26221
1.11688
1.60185
1.61036
1.62156
1.59218
1.60292
1.40001
1.47501
1.61235
1.63345
1.59383
1.47177
1.62422
1.55885
1.58206
1.63527
1.40001
1.64481
1.58344
1.64693
1.40001
1.56653
1.63777
1.65418
1.65554
1.56808
1.44977
1.65741
1.55661
1.42641
1.40001
1.39999
1.55796
1.40001
1.54639
1.39999
1.40001
1.40001
1.37996
1.54764
1.40001
1.40001
1.40001
1.53632
1.54646
1.40001
1.40001
1.40001
1.53837
1.37938
1.13189
1.52125
1.40001
1.35951
1.52294
1.50624
1.50724
1.2508
1.49559
1.49683
1.4853
1.40001
1.24112
1.48683
1.40001
1.47115
1.21835
1.40001
1.40001
1.47285
1.30139
1.13201
1.46362
1.46473
1.45422
1.43715
1.45474
1.12049
1.44571
1.40001
1.41621
1.43561
1.44675
1.41898
1.39755
1.47953
1.43574
1.41083
1.41281
1.20933
1.43652
1.42854
1.43003
1.26841
1.14679
1.11732
1.40001
1.1476
1.40001
1.14827
1.14235
1.13654
1.40001
1.83629
1.57025
1.40001
1.37952
1.37684
1.48227
1.48937
1.40001
1.55041
1.54492
1.55375
1.5561
1.54643
1.53936
1.54716
1.54129
1.53586
1.47396
1.25839
1.51276
1.47469
1.40001
1.36381
1.28416
1.24446
1.40431
1.40001
1.59529
1.5365
1.18059
1.40001
1.36506
1.19147
1.37775
1.36401
1.40001
1.5869
1.40001
1.32464
1.40388
1.55159
1.5365
1.41622
1.42304
1.17856
1.42752
1.38221
1.42576
1.41617
1.20011
1.18246
1.27106
1.17373
1.36328
1.55119
1.41787
1.40001
1.55004
1.6283
1.32794
1.39558
1.40001
1.40001
1.40001
1.49737
1.39725
1.40001
1.40001
1.13228
1.40164
1.23537
1.40001
1.2026
1.40001
1.4986
1.33762
1.40001
1.40001
1.1071
1.24019
1.65544
1.24579
1.51946
1.52052
1.40002
1.55543
1.51043
1.40001
1.36419
1.40001
1.41425
1.35912
1.37906
1.28771
1.40001
1.40001
1.36215
1.37558
1.40275
1.48398
1.50236
1.50291
1.40001
1.35841
1.40514
1.47225
1.47333
1.23373
1.4202
1.40001
1.34106
1.27144
1.39896
1.20876
1.39777
1.53749
1.40001
1.40001
1.40001
1.28847
1.38616
1.40001
1.46901
1.39016
1.56334
1.55973
1.27521
1.47048
1.10512
1.20862
1.58832
1.40001
1.40001
1.348
1.60624
1.40001
1.40001
1.40001
1.38318
1.40001
1.37974
1.15126
1.44062
1.37519
1.40001
1.40001
1.37504
1.40001
1.68942
1.47433
1.67302
1.69643
1.40001
1.18371
1.6781
1.48609
1.37572
1.58266
1.40001
1.20693
1.65543
1.62256
1.3535
1.40001
1.57318
1.65741
1.63794
1.40002
1.50725
1.11868
1.40001
1.40001
1.27624
1.6406
1.40001
1.60155
1.34895
1.40001
1.40001
1.20238
1.61623
1.34862
1.57377
1.63642
1.41284
1.22768
1.40074
1.61886
1.61986
1.57294
1.34757
1.40001
1.44313
1.41198
1.44524
1.53696
1.40001
1.59649
1.40001
1.40001
1.40001
1.59822
1.40001
1.40001
1.31057
1.44393
1.40001
1.31873
1.59903
1.51607
1.48159
1.40001
1.4566
1.40001
1.51426
1.40001
1.40001
1.40001
1.40001
1.40001
1.45191
1.40001
1.40001
1.40001
1.40001
1.40001
1.40001
1.2307
1.1081
1.40001
1.39966
1.40001
1.40001
1.40001
1.47406
1.29434
1.15454
1.40001
1.15127
1.34893
1.40001
1.40001
1.40001
1.42709
1.40001
1.54408
1.40001
1.63357
1.2615
1.22095
1.40001
1.40056
1.40001
1.40001
1.40033
1.40001
1.65413
1.64903
1.50862
1.63035
1.40001
1.40001
1.59771
1.5861
1.27425
1.59082
1.40001
1.59197
1.53062
1.40001
1.58617
1.40001
1.35157
1.34969
1.27608
1.58125
1.26683
1.34637
1.40001
1.58753
1.35585
1.35552
1.53328
1.53949
1.20927
1.54092
1.53228
1.41011
1.5371
1.53814
1.34144
1.57006
1.57594
1.54784
1.68918
1.53543
1.56907
1.57738
1.53564
1.34072
1.54116
1.40001
1.36751
1.53959
1.57042
1.67804
1.27219
1.51457
1.53783
1.55424
1.4036
1.56171
1.25294
1.56306
1.29781
1.40001
1.35215
1.23694
1.40184
1.50058
1.55584
1.54134
1.59423
1.40001
1.57236
1.61582
1.40001
1.40001
1.12032
1.40001
1.40001
1.57262
1.3082
1.40001
1.5432
1.53776
1.54421
1.40001
1.25731
1.41846
1.53966
1.53855
1.19681
1.53654
1.58851
1.3394
1.58392
1.32799
1.59088
1.69172
1.56533
1.65275
1.65624
1.40001
1.3252
1.40001
1.4309
1.40001
1.12297
1.46679
1.65521
1.54289
1.59226
1.54543
1.50893
1.61878
1.53099
1.53474
1.28445
1.59188
1.40001
1.63654
1.63848
1.40001
1.39749
1.40001
1.40001
1.40001
1.40001
1.40001
1.30823
1.40001
1.33117
1.12659
1.25504
1.60956
1.13135
1.25545
1.62143
1.23079
1.40001
1.12632
1.32973
1.33773
1.40001
1.53488
1.42223
1.40001
1.40001
1.64396
1.12121
1.27804
1.27338
1.42936
1.40001
1.40001
1.10693
1.3952
1.38074
1.57943
1.11246
1.40001
1.40001
1.40001
1.68818
1.40001
1.60683
1.60901
1.46633
1.12992
1.58268
1.59291
1.40001
1.54592
1.59541
1.6778
1.34361
1.40001
1.63888
1.40001
1.40001
1.34588
1.58459
1.58543
1.62588
1.12852
1.63093
1.64317
1.57606
1.40001
1.40001
1.52564
1.40646
1.40001
1.39391
1.40001
1.15685
1.40001
1.40001
1.55429
1.13372
1.40001
1.56389
1.18574
1.56664
1.40001
1.40001
1.39363
1.59166
1.13426
1.25939
1.15379
1.35443
1.34257
1.34652
1.12861
1.51163
1.37031
1.36931
1.40001
1.55555
1.13268
1.13241
1.3583
1.56705
1.5638
1.30432
1.40001
1.40001
1.369
1.36654
1.21161
1.40001
1.52712
1.24867
1.53688
1.53355
1.53902
1.35498
1.52919
1.58314
1.10523
1.58439
1.11884
1.33991
1.52915
1.34422
1.47365
1.12491
1.30284
1.53401
1.40001
1.3093
1.57721
1.24042
1.65564
1.27584
1.50121
1.5491
1.65473
1.13493
1.51176
1.36298
1.40001
1.54347
1.51415
1.58534
1.61228
1.40001
1.37693
1.40001
1.55198
1.29495
1.42067
1.20528
1.14196
1.40001
1.13845
1.20306
1.50345
1.40001
1.13499
1.46816
1.42535
1.55052
1.47471
1.13635
1.29412
1.35946
1.44569
1.55175
1.14329
1.4761
1.48679
1.40001
1.48803
1.40001
1.47543
1.64132
1.47951
1.24747
1.62092
1.43435
1.40001
1.1454
1.67266
1.42265
1.40001
1.222
1.68367
1.56261
1.84226
1.56625
1.40001
1.44883
1.66005
1.46354
1.40001
1.65144
1.46447
1.40001
1.56089
1.65335
1.57472
1.71233
1.63178
1.45184
1.32425
1.40001
1.40001
1.63343
1.16363
1.40001
1.16871
1.49276
1.56329
1.56986
1.18328
1.56578
1.32989
1.40001
1.18156
1.69752
1.40001
1.40001
1.5855
1.69478
1.17583
1.31673
1.43715
1.188
1.18413
1.43608
1.31995
1.43988
1.42488
1.40616
1.62161
1.37678
1.42607
1.52005
1.31582
1.433
1.44164
1.54965
1.5506
1.16551
1.40001
1.42758
1.70126
1.41745
1.58815
1.69815
1.26064
1.40001
1.42179
1.39012
1.56371
1.28272
1.40001
1.40001
1.33979
1.34215
1.33863
1.50321
1.40001
1.40001
1.50446
1.29535
1.38359
1.40001
1.40001
1.43431
1.39868
1.40239
1.65154
1.48815
1.2383
1.46409
1.39089
1.40001
1.21774
1.38227
1.30094
1.17719
1.44214
1.53602
1.75989
1.5767
1.48012
1.58932
1.34613
1.58811
1.57907
1.21711
1.5179
1.55653
1.40001
1.30677
1.40001
1.40001
1.34227
1.33463
1.35707
1.33914
1.65184
1.42671
1.40001
1.40001
1.35505
1.54956
1.25124
1.3134
1.3657
1.22932
1.52344
1.43695
1.55151
1.27015
1.17529
1.35775
1.70529
1.25049
1.40001
1.39775
1.36301
1.24741
1.70374
1.37363
1.47722
1.40001
1.40001
1.47693
1.38575
1.65852
1.40001
1.40001
1.38197
1.40001
1.52194
1.29066
1.28272
1.28419
1.35818
1.52366
1.32322
1.40001
1.26323
1.28979
1.40001
1.23579
1.11234
1.32448
1.47324
1.48662
1.40001
1.40001
1.43674
1.34595
1.53128
1.27748
1.29362
1.69849
1.28891
1.39998
1.40001
1.49593
1.40001
1.40001
1.20579
1.37412
1.56217
1.49816
1.40001
1.11333
1.21467
1.30441
1.59071
1.30181
1.61535
1.35257
1.40057
1.40001
1.40001
1.2768
1.34245
1.44271
1.30273
1.40001
1.40001
1.12169
1.29716
1.25291
1.27042
1.46912
1.42769
1.36673
1.40001
1.57259
1.40001
1.47179
1.40001
1.60298
1.4
1.21111
1.40001
1.53295
1.40001
1.40001
1.40001
1.40001
1.40001
1.40001
1.39851
1.59166
1.40001
1.60536
1.57979
1.40001
1.5554
1.69468
1.40001
1.42028
1.42649
1.5582
1.40001
1.40001
1.31158
1.23823
1.31211
1.43666
1.58119
1.574
1.41624
1.53877
1.34655
1.40001
1.40001
1.40001
1.40001
1.42295
1.44492
1.56542
1.43437
1.42434
1.31005
1.44586
1.31127
1.31108
1.39908
1.53917
1.21201
1.55942
1.47818
1.56689
1.4853
1.40001
1.39885
1.2102
1.529
1.40001
1.40001
1.36142
1.21173
1.32651
1.40275
1.21216
1.54656
1.40001
1.28682
1.40001
1.43717
1.20555
1.21135
1.54023
1.274
1.32502
1.4728
1.54086
1.50084
1.54798
1.45554
1.40001
1.53722
1.5069
1.28171
1.65903
1.64409
1.43362
1.40001
1.40001
1.52048
1.62008
1.55451
1.62565
1.69737
1.42149
1.23082
1.34084
1.40001
1.55177
1.34675
1.40001
1.54741
1.36961
1.22971
1.66594
1.52436
1.42611
1.44924
1.64267
1.44379
1.37618
1.40001
1.38698
1.37746
1.64677
1.43723
1.40001
1.3883
1.4589
1.5127
1.42521
1.62816
1.51735
1.36052
1.40001
1.24114
1.40001
1.36303
1.2121
1.40001
1.40001
1.69467
1.20406
1.57925
1.21309
1.40001
1.40001
1.58774
1.39405
1.42412
1.21577
1.40001
1.29106
1.40001
1.35774
1.66764
1.19286
1.51835
1.21228
1.38878
1.40001
1.59965
1.57492
1.43877
1.38425
1.35771
1.42908
1.45506
1.38633
1.40001
1.61284
1.40537
1.66563
1.40001
1.60297
1.58948
1.40001
1.43099
1.30933
1.40306
1.2034
1.61484
1.10702
1.42381
1.43242
1.55835
1.40001
1.57033
1.42105
1.18371
1.79244
1.17849
1.40001
1.40001
1.40001
1.39578
1.1685
1.573
1.33982
1.56059
1.42453
1.39995
1.40003
1.70512
1.56117
1.53189
1.30644
1.39996
1.47877
1.40003
1.49895
1.32515
1.47979
1.54273
1.6807
1.4742
1.53865
1.44518
1.54584
1.53381
1.41912
1.43163
1.25771
1.10764
1.45382
1.41362
1.50643
1.32017
1.40001
1.40001
1.4212
1.40001
1.40001
1.38621
1.26998
1.49341
1.51728
1.56418
1.39616
1.68066
1.40001
1.43078
1.41429
1.31647
1.2929
1.31506
1.51913
1.2238
1.16845
1.50837
1.2693
1.57863
1.23832
1.3311
1.53356
1.31934
1.48296
1.57993
1.51331
1.53195
1.19247
1.49071
1.40001
1.40001
1.46737
1.40001
1.48714
1.40001
1.50989
1.49278
1.48442
1.48316
1.46258
1.57101
1.3263
1.40001
1.59159
1.31817
1.33264
1.537
1.57262
1.60051
1.43708
1.45694
1.40001
1.49143
1.46563
1.4127
1.44122
1.52421
1.29828
1.25189
1.56247
1.18339
1.35025
1.52074
1.46627
1.35084
1.35394
1.46046
1.38601
1.40001
1.5641
1.42635
1.3726
1.34168
1.43802
1.40687
1.4254
1.29692
1.317
1.47205
1.45119
1.33878
1.40001
1.52814
1.48876
1.34937
1.5078
1.35798
1.74131
1.40001
1.44285
1.42927
1.40001
1.40001
1.40001
1.40001
1.63857
1.60385
1.42466
1.60673
1.34005
1.40001
1.44357
1.36996
1.51534
1.4272
1.43214
1.46647
1.46946
1.50327
1.327
1.40001
1.40001
1.37874
1.55407
1.40001
1.40001
1.36602
1.53004
1.42424
1.71879
1.46509
1.52093
1.40001
1.4531
1.50132
1.453
1.53638
1.54881
1.46612
1.40001
1.40914
1.31264
1.40001
1.73132
1.3738
1.54176
1.39483
1.54528
1.41179
1.30938
1.19234
1.62522
1.19662
1.5618
1.55061
1.40001
1.44727
1.51988
1.55691
1.46049
1.40001
1.40001
1.4446
1.39504
1.31428
1.18623
1.35318
1.40001
1.6968
1.34061
1.57551
1.32493
1.39304
1.56786
1.57052
1.47249
1.18723
1.70173
1.56439
1.32224
1.38261
1.36856
1.3276
1.63599
1.37508
1.20978
1.37321
1.40001
1.39027
1.44602
1.4486
1.31066
1.35139
1.5851
1.70466
1.30081
1.45197
1.44629
1.45274
1.28203
1.56425
1.33591
1.58209
1.35526
1.32986
1.4244
1.32591
1.42968
1.43334
1.50504
1.49871
1.57937
1.33438
1.52193
1.32219
1.26255
1.35194
1.5166
1.35295
1.64744
1.40001
1.45392
1.40001
1.31556
1.65107
1.40001
1.40001
1.31198
1.60012
1.40001
1.36276
1.44209
1.70413
1.47263
1.4
1.18847
1.40001
1.31407
1.35669
1.62804
1.34208
1.44286
1.63081
1.44321
1.42217
1.42516
1.40001
1.19765
1.40001
1.61511
1.43235
1.60673
1.40037
1.3318
1.58618
1.61773
1.58752
1.40001
1.32225
1.17695
1.60402
1.59297
1.60425
1.51728
1.39206
1.60675
1.41196
1.54516
1.5959
1.31495
1.40001
1.35831
1.69732
1.33077
1.186
1.40001
1.59175
1.25804
1.32341
1.14965
1.3833
1.59415
1.42376
1.5022
1.40001
1.4296
1.42974
1.57792
1.60053
1.40001
1.58122
1.4389
1.35236
1.59569
1.40001
1.57929
1.58357
1.4289
1.36303
1.60885
1.40001
1.40001
1.60476
1.56869
1.61674
1.21586
1.61267
1.57121
1.40001
1.32737
1.45344
1.27221
1.55911
1.36716
1.25409
1.23943
1.63656
1.56168
1.5939
1.44242
1.40001
1.40001
1.40001
1.36083
1.54636
1.40001
1.40822
1.20943
1.62082
1.4885
1.42563
1.53084
1.32589
1.5486
1.44538
1.40475
1.55732
1.11052
1.41265
1.52504
1.40001
1.16641
1.53653
1.35031
1.18938
1.5362
1.53015
1.625
1.40959
1.64031
1.63599
1.40001
1.32255
1.21073
1.53629
1.40001
1.40001
1.42822
1.40001
1.63204
1.25639
1.53824
1.35183
1.40001
1.55497
1.43199
1.42764
1.71213
1.4402
1.16767
1.52334
1.34414
1.35973
1.62822
1.40001
1.34223
1.3641
1.43548
1.7138
1.52597
1.40001
1.34252
1.23489
1.42312
1.64348
1.45168
1.44164
1.64741
1.42168
1.40001
1.42341
1.45325
1.24923
1.8939
1.59785
1.70078
1.51482
1.44053
1.13882
1.58962
1.40001
1.40001
1.43867
1.45009
1.5159
1.35183
1.35963
1.46175
1.42567
1.68576
1.3625
1.40001
1.11381
1.40001
1.18284
1.45954
1.50132
1.5047
1.38071
1.40001
1.40001
1.65063
1.67439
1.40001
1.40001
1.47887
1.37832
1.44732
1.65985
1.47598
1.45957
1.48918
1.48755
1.53242
1.35987
1.40001
1.46112
1.49152
1.3387
1.36173
1.25856
1.48428
1.42188
1.40001
1.53524
1.40001
1.40001
1.70614
1.35816
1.38201
1.64033
1.47634
1.7017
1.35901
1.40001
1.40001
1.47829
1.71267
1.34051
1.21134
1.5065
1.40001
1.64337
1.47205
1.50348
1.40001
1.40001
1.40001
1.40001
1.51256
1.40001
1.36145
1.46217
1.30696
1.54708
1.4653
1.40001
1.50826
1.40001
1.40001
1.40001
1.52613
1.45171
1.45382
1.40001
1.50854
1.52446
1.28446
1.40001
1.40001
1.26886
1.36168
1.40001
1.28942
1.53766
1.40001
1.40001
1.40001
1.40001
1.40001
1.43727
1.40001
1.35888
1.53226
1.40001
1.56386
1.41736
1.40001
1.44102
1.16756
1.40001
1.28256
1.52362
1.40001
1.40001
1.56181
1.5818
1.40001
1.40001
1.40001
1.27012
1.26563
1.35462
1.55122
1.21301
1.56109
1.40001
1.40001
1.27427
1.56189
1.40001
1.26664
1.54725
1.40001
1.36943
1.40001
1.58005
1.40061
1.36648
1.40001
1.24383
1.40001
1.40001
1.29247
1.16897
1.56016
1.40006
1.40001
1.5749
1.40001
1.37157
1.29326
1.56803
1.18454
1.40001
1.2013
1.40001
1.25503
1.30895
1.34253
1.35447
1.58707
1.5519
1.56507
1.38165
1.38778
1.28895
1.40023
1.40946
1.37812
1.40001
1.40001
1.26518
1.27057
1.52959
1.19857
1.58494
1.57425
1.58952
1.40001
1.58271
1.70333
1.30436
1.59972
1.56649
1.2962
1.3942
1.30352
1.28331
1.5864
1.57496
1.27479
1.59556
1.38925
1.43736
1.44356
1.24771
1.43259
1.59293
1.30199
1.25319
1.40001
1.49579
1.40001
1.40001
1.25742
1.60086
1.56856
1.43918
1.40001
1.40001
1.43724
1.42964
1.40001
1.73961
1.40001
1.6177
1.49784
1.40001
1.08514
1.40001
1.6031
1.40001
1.40643
1.25852
1.40001
1.56302
1.20722
1.6119
1.40001
1.17651
1.40001
1.18386
1.40466
1.40059
1.49588
1.40073
1.22776
1.6223
1.47305
1.2871
1.61334
1.70744
1.73816
1.41994
1.49421
1.61922
1.23777
1.47458
1.53116
1.29117
1.40001
1.57052
1.40001
1.699
1.36123
1.50387
1.64944
1.22166
1.38719
1.42267
1.40001
1.4402
1.5204
1.37208
1.38136
1.31953
1.70858
1.4243
1.30532
1.40001
1.44847
1.64365
1.40001
1.40001
1.40001
1.50065
1.30561
1.49379
1.44941
1.40817
1.40001
1.51189
1.69148
1.46345
1.51224
1.43283
1.40001
1.70348
1.23303
1.51155
1.65498
1.43434
1.46093
1.40005
1.40001
1.31828
1.51057
1.35643
1.68153
1.63404
1.36764
1.36964
1.36654
1.7499
1.65822
1.37061
1.25287
1.40001
1.4522
1.52086
1.4356
1.40001
1.52397
1.40001
1.6094
1.44961
1.31278
1.63087
1.62154
1.45219
1.33412
1.44485
1.47627
1.59065
1.40001
1.44528
1.35882
1.31301
1.47602
1.522
1.40001
1.63674
1.51763
1.60995
1.35904
1.36487
1.40001
1.64983
1.47344
1.72756
1.40001
1.58008
1.28622
1.56995
1.61251
1.32855
1.62466
1.5976
1.45028
1.59305
1.63421
1.40474
1.52868
1.55766
1.40001
1.44578
1.48331
1.61206
1.58637
1.56997
1.26798
1.66411
1.53533
1.65245
1.44072
1.44551
1.536
1.40001
1.5262
1.60064
1.47992
1.5745
1.40001
1.53327
1.36163
1.40001
1.73478
1.58872
1.56442
1.49185
1.40001
1.66749
1.35266
1.40001
1.57775
1.5432
1.55217
1.40001
1.40001
1.49021
1.566
1.40001
1.541
1.40001
1.54091
1.53447
1.28677
1.40001
1.55555
1.40001
1.52977
1.25431
1.4
1.4547
1.54961
1.54334
1.51803
1.40001
1.40001
1.40001
1.50475
1.54756
1.34963
1.53313
1.43818
1.50892
1.54895
1.25806
1.41871
1.57345
1.4
1.40001
1.42932
1.44646
1.41971
1.40001
1.50279
1.57682
1.40001
1.5202
1.3377
1.29589
1.33773
1.55826
1.40707
1.49355
1.54696
1.52144
1.34481
1.51199
1.57235
1.57349
1.28486
1.42148
1.51339
1.40001
1.72614
1.55612
1.36263
1.48155
1.64127
1.19754
1.4208
1.36109
1.32749
1.40001
1.49347
1.55534
1.57358
1.51044
1.55611
1.40001
1.1908
1.46818
1.48671
1.56599
1.48483
1.40001
1.40001
1.55366
1.45661
1.57093
1.40001
1.22824
1.40001
1.40001
1.18505
1.56342
1.40001
1.47052
1.62072
1.49766
1.40001
1.32163
1.49131
1.56463
1.44455
1.40001
1.45894
1.16172
1.36211
1.18341
1.60762
1.354
1.52564
1.40001
1.57367
1.59391
1.21436
1.40001
1.40001
1.42936
1.22034
1.44667
1.62751
1.52324
1.56202
1.57156
1.40001
1.35116
1.59262
1.40001
1.22972
1.43085
1.41509
1.29589
1.15878
1.40001
1.35545
1.40001
1.57115
1.42941
1.40001
1.40001
1.44087
1.47387
1.50028
1.45988
1.18224
1.40001
1.40001
1.32604
1.2008
1.53913
1.47819
1.56627
1.27303
1.56905
1.199
1.58547
1.40001
1.53666
1.40001
1.58345
1.40001
1.40001
1.16509
1.40001
1.58017
1.39321
1.40001
1.09542
1.54805
1.43625
1.26212
1.46413
1.43062
1.40001
1.25553
1.55894
1.40001
1.57768
1.40001
1.39833
1.45634
1.54523
1.35543
1.53038
1.40001
1.24631
1.42026
1.79138
1.60648
1.22041
1.40001
1.3549
1.22055
1.5971
1.35593
1.40001
1.40001
1.36377
1.41448
1.40001
1.13347
1.35077
1.55721
1.37648
1.58889
1.1853
1.59458
1.37692
1.41363
1.46627
1.40341
1.40426
1.35467
1.55422
1.46375
1.34133
1.3383
1.40433
1.40001
1.58666
1.40853
1.40001
1.40001
1.29537
1.40001
1.60237
1.47284
1.43822
1.40001
1.56595
1.6028
1.47497
1.33513
1.25359
1.40001
1.59688
1.46974
1.69413
1.16206
1.5631
1.47755
1.48826
1.3282
1.4815
1.25222
1.18241
1.18485
1.35186
1.18412
1.59443
1.58
1.40001
1.39982
1.40001
1.26852
1.27632
1.65232
1.63656
1.40001
1.5403
1.21954
1.35739
1.19637
1.57409
1.50533
1.18671
1.40001
1.43723
1.36402
1.61349
1.53498
1.4524
1.3958
1.40001
1.40001
1.40001
1.43819
1.47541
1.57132
1.26613
1.53749
1.25768
1.51154
1.40749
1.64031
1.47857
1.6561
1.44987
1.44183
1.3501
1.40001
1.40001
1.17739
1.40001
1.46586
1.40971
1.27881
1.48053
1.44977
1.37255
1.45444
1.40001
1.43207
1.40001
1.40001
1.30215
1.58241
1.45464
1.61611
1.34325
1.46378
1.33109
1.71827
1.33061
1.27701
1.29111
1.40001
1.36068
1.58
1.42775
1.4493
1.48996
1.44126
1.18754
1.44656
1.40001
1.5379
1.48522
1.29399
1.40001
1.49103
1.32973
1.40678
1.35666
1.40001
1.14031
1.1877
1.46096
1.40001
1.36147
1.40001
1.40001
1.43312
1.40001
1.40001
1.48448
1.54399
1.26045
1.3284
1.29261
1.48835
1.46213
1.59044
1.40001
1.40001
1.26469
1.30465
1.451
1.421
1.50007
1.40001
1.47218
1.18869
1.44491
1.34342
1.30134
1.18188
1.40001
1.53796
1.48609
1.47283
1.58802
1.39498
1.40001
1.40001
1.70141
1.46424
1.59698
1.46841
1.50101
1.49562
1.41549
1.39586
1.40001
1.46684
1.45476
1.59407
1.40001
1.44247
1.32245
1.24384
1.40001
1.39323
1.5018
1.22921
1.35406
1.24177
1.49672
1.57814
1.40001
1.54048
1.46641
1.39803
1.51866
1.42667
1.20043
1.17971
1.46353
1.49289
1.53139
1.30951
1.49141
1.40001
1.51262
1.40001
1.25415
1.40001
1.46006
1.50334
1.18297
1.40001
1.4337
1.59928
1.34695
1.40001
1.57509
1.34893
1.40001
1.35313
1.30722
1.48887
1.34059
1.50833
1.34421
1.23913
1.59671
1.46075
1.47328
1.22801
1.33002
1.40001
1.50558
1.35361
1.36555
1.36352
1.36977
1.40001
1.18467
1.51432
1.39897
1.40001
1.4187
1.31612
1.40001
1.43327
1.44533
1.51694
1.49146
1.32735
1.31975
1.33137
1.34955
1.48996
1.4
1.33561
1.54416
1.4434
1.37592
1.26837
1.40001
1.31403
1.42889
1.40001
1.47087
1.40001
1.2972
1.40675
1.40001
1.51502
1.48684
1.40001
1.43297
1.40001
1.36145
1.37466
1.54119
1.52657
1.40001
1.18231
1.40001
1.55978
1.74746
1.44576
1.40001
1.47213
1.59459
1.49309
1.51931
1.411
1.27006
1.35096
1.41186
1.40001
1.66397
1.324
1.40001
1.3027
1.52887
1.27546
1.44705
1.63549
1.18092
1.61366
1.32983
1.40001
1.52223
1.60043
1.55553
1.48089
1.3711
1.40001
1.57491
1.39999
1.32255
1.40001
1.61177
1.49302
1.29469
1.40011
1.49887
1.52694
1.59675
1.40001
1.57217
1.74255
1.60399
1.45384
1.25193
1.57055
1.33751
1.47912
1.64444
1.40001
1.40001
1.35056
1.38619
1.55889
1.43896
1.59145
1.35386
1.30304
1.57576
1.27457
1.40001
1.3308
1.38135
1.60304
1.40001
1.33641
1.25354
1.17488
1.48059
1.60197
1.40001
1.40001
1.35945
1.21902
1.56115
1.16668
1.53459
1.42507
1.5705
1.17616
1.68719
1.40562
1.60738
1.64474
1.20262
1.41252
1.40001
1.32715
1.72039
1.60102
1.40001
1.32026
1.38275
1.14693
1.56805
1.51961
1.53817
1.45753
1.42581
1.27724
1.46997
1.62625
1.35457
1.50927
1.49941
1.42199
1.51568
1.50106
1.52467
1.40001
1.34041
1.61684
1.59259
1.40001
1.34388
1.46711
1.46558
1.62562
1.46473
1.54524
1.18502
1.47751
1.45863
1.40001
1.48062
1.53346
1.40001
1.55238
1.46985
1.33128
1.36277
1.46479
1.40001
1.36543
1.31181
1.49009
1.48214
1.39933
1.50981
1.55945
1.46885
1.46543
1.40001
1.66331
1.30688
1.3427
1.4388
1.40632
1.49302
1.56775
1.7152
1.40001
1.45565
1.57932
1.50651
1.40001
1.49741
1.51324
1.35882
1.5068
1.40001
1.61432
1.52259
1.46649
1.40001
1.56496
1.40332
1.51752
1.53088
1.46422
1.54162
1.18505
1.50596
1.57563
1.40001
1.40001
1.62323
1.59326
1.54268
1.32672
1.52442
1.30299
1.27208
1.422
1.39614
1.40429
1.27968
1.35589
1.49614
1.52311
1.55047
1.30663
1.28591
1.36444
1.55178
1.40037
1.43735
1.5142
1.55696
1.40001
1.3852
1.45792
1.46175
1.3972
1.5848
1.32853
1.58402
1.40242
1.48187
1.56582
1.49976
1.52781
1.40001
1.43957
1.45738
1.32945
1.17032
1.40517
1.40001
1.26565
1.21434
1.53072
1.2056
1.25094
1.45137
1.62752
1.51186
1.57304
1.31592
1.70644
1.44765
1.2758
1.52528
1.22855
1.40001
1.52529
1.59279
1.41838
1.72212
1.44334
1.40001
1.40001
1.32449
1.46782
1.19169
1.40001
1.29433
1.20921
1.52727
1.52518
1.40406
1.32823
1.5199
1.58213
1.52739
1.53926
1.40001
1.33179
1.4438
1.51271
1.67631
1.40001
1.40001
1.42464
1.49716
1.40001
1.63173
1.52984
1.40001
1.449
1.63107
1.40001
1.40001
1.39445
1.27808
1.32332
1.14311
1.3782
1.31209
1.45894
1.59055
1.40001
1.41849
1.55404
1.40001
1.21211
1.37859
1.54527
1.43263
1.40001
1.26309
1.2125
1.37522
1.44411
1.13251
1.43674
1.38268
1.41556
1.47253
1.45542
1.2854
1.27562
1.46082
1.40001
1.43479
1.58815
1.51344
1.59839
1.28611
1.29224
1.27607
1.39802
1.40001
1.46206
1.40001
1.54834
1.58878
1.12921
1.27926
1.28512
1.28066
1.40001
1.37597
1.40001
1.19951
1.25996
1.39264
1.28477
1.34581
1.2859
1.52338
1.45418
1.74422
1.40001
1.44663
1.28371
1.30033
1.28089
1.62869
1.62457
1.40001
1.51389
1.2856
1.66864
1.40001
1.3034
1.40001
1.60387
1.37494
1.45187
1.42732
1.40001
1.13002
1.36659
1.28517
1.51065
1.40001
1.40001
1.40002
1.43232
1.4946
1.43784
1.43815
1.60577
1.58557
1.62539
1.42809
1.47424
1.16648
1.29872
1.58546
1.60144
1.40009
1.40001
1.29264
1.29889
1.40881
1.63764