/*--------------------------------*- C++ -*----------------------------------*\
  =========                 |
  \\      /  F ield         | OpenFOAM: The Open Source CFD Toolbox
   \\    /   O peration     | Website:  https://openfoam.org
    \\  /    A nd           | Version:  12
     \\/     M anipulation  |
\*---------------------------------------------------------------------------*/
FoamFile
{
    format      ascii;
    class       volScalarField;
    location    "3.1";
    object      p;
}
// * * * * * * * * * * * * * * * * * * * * * * * * * * * * * * * * * * * * * //

dimensions      [1 -1 -2 0 0 0 0];

internalField   nonuniform List<scalar> 
46253
(
0.867712
1
1
1
1
1
0.81684
1.14892
1
1
0.868727
0.794783
1
1
1
1
1
1
1
1
1
1
1
0.83872
0.817542
1
1
1
1
1.14943
1.11996
1
1
1
1
1
1
1
1.14387
1
0.800261
0.794454
1
1
0.748776
1
1
1
1
0.999998
1.00008
1.00016
1
1.14951
1
0.861776
1.0268
1.09208
1.25638
0.816584
1
0.771293
1
1
1
1
1
1
0.863899
0.751526
0.809314
1.18056
1.20257
1.04121
1
0.837841
1.36673
1.3619
1
1
1
1.46354
1
1.4752
0.822165
1
1.29895
1.29655
1.13082
1
1
0.786041
1
0.998086
1
0.995551
1
1
1.25303
1
1
1
1
1.11506
0.999996
0.820309
0.797443
1.24427
1.24195
0.81905
1.14881
1.355
1.36013
1
1
1.13986
0.757778
0.819815
1.47161
0.874467
1
1
1.40883
1.40041
1
1.4713
1
0.840632
0.994035
1.34758
1.20997
1.20775
1
0.818938
1.3433
1
1.32479
1.32472
0.869476
1
1.38115
1.19139
1.18949
1.1043
1.38442
1.00057
1.30706
1.30523
1.14461
1
0.816526
1
1.337
1.33289
1.05983
0.751442
0.838451
1
1.28161
1
1.2796
0.79831
0.858597
1
0.819906
1.31628
0.818175
1.31412
1.71177
1
1.26606
1.26385
1
0.811087
1
0.741266
1.05413
1
1.03367
0.760388
0.999999
1.05897
1.25106
1.24908
1
1.29023
1.28721
0.745947
1
1
1
1
0.793117
1
1
1
1.14991
1
1.09429
1.09212
1
1
1.27392
1.27216
1
0.753226
1.05479
1.22923
1.22747
1
1
1.47085
0.807156
1
1.05521
1
1.09987
0.809726
1.2159
1
1
1.21433
0.739115
1.25818
1.25635
0.796319
1
1
1.06774
1.06612
1.19389
1
1
1
1
1
1
1
1.19031
1.21331
1
1
1
1
1
1
1
1.05169
1
1.19648
1.19517
1.20996
1.04258
1
1.04142
1.23664
1.2342
0.882555
0.819393
1
0.815336
0.782042
0.812625
1.10711
1.02838
1
1
1
1.22263
1.17855
1.22096
1
1
1
1.17716
1
1.00023
1
1.15336
0.90393
1.01922
1.01727
1
1
1
0.785234
0.759666
0.875873
1.08669
1
1.24331
1.24048
0.802708
1
1.2323
1.15416
1
1.15098
0.798235
1.16746
1.4518
1.16611
0.847934
1.44612
1
1.20318
1.201
1
1.10707
1
1
1.05155
1
1.15621
1
1.15474
0.861563
1.23008
1
1.15653
0.840715
1
0.821764
0.819537
1.13945
1.08213
1
1
1.14514
1.14367
0.978202
0.974203
1
1
1
0.790709
0.879363
1.18497
1.18282
1
1
1
1
1.4859
1
1.1337
1.13224
1
0.868429
1
1.14728
1
0.753864
1
0.803469
1
1.17306
1
1.17174
1
0.803883
1
1
1
1
1
1
1
1.12226
1
1
1
1
1.12075
1
1.22277
0.867383
1
1
1
0.809953
0.944736
0.84149
1.16155
1.15045
1.16016
1
1
1.11098
1.50649
1
1.09028
1.10952
0.775632
1
1.14234
1.03843
1.03834
1
1.11989
1
0.924678
0.923338
1.21986
1
0.999843
1
1
1
1
1
1
1.40731
1
1.11277
1
0.78255
1
1
0.884543
1
1
1.09977
1
1.15043
1
1
1.09857
1.14912
1
1.05363
1
1
1
1
1.06888
1.14846
1
1
1.14674
0.842999
1
0.797346
1
1.07698
1.0639
1
1
0.872632
1
0.906326
1.12369
1
0.777306
1
1.28414
1.14248
0.999964
1.13884
1.07495
1
1.08321
1.08466
1.13745
1
1.08082
1
1
1
1
1
1.02825
1
1.1418
0.846191
1.08354
0.893021
1.04629
1.08259
1.01322
0.900025
0.898891
1
1
1
1
0.996196
1
0.908981
0.801905
0.776297
0.911226
1.07719
0.823355
1.08009
1
1
1.12779
1.11076
0.813264
1.12633
1.07328
1.07166
0.88284
0.81925
1
0.883001
1.11139
1
1
1
0.797758
1
1.15293
0.78463
1
1
1.09055
1
1
0.880982
0.725024
1.12086
1
1
1.12181
1
1.11722
1.12192
1.11843
1
1.08623
1.051
1
1.0482
1.11004
1
1
1.11571
1
0.821053
0.889982
1
1
1.11447
1
1
1
1
0.767414
1
1
1.05773
0.894129
1.05702
0.814778
1
1
1
1
1
1
1
1.07655
0.779007
1
1
1
1
1
1
0.818522
1.09568
1
1.07974
1
1
0.846045
1
1
1
1.10544
1
1
1.10404
1.07471
1.14291
1
1.14597
1.14696
1.15069
1.17051
1
1.04709
1.04553
1.09143
1.16087
1
1
1.04026
1
1.44421
1.04454
1
1.44944
0.995879
1
1.1059
1.11385
1
1
1.14569
1.08777
1
1
1.02536
1
1
0.998655
0.999924
1.28127
1.29219
1.25893
1.26074
0.740877
1.07355
1.24672
0.785231
1.24934
1.23468
1
0.819213
0.84881
1.23737
1
1.22522
1
1.22637
1
1.08342
1.21524
1
1.21729
1.34527
1
1.20532
1
1.20671
1
0.769694
1
0.898623
0.849015
1
1
1.1937
1.19565
1
1.11206
1.18289
1.18488
1.02452
1
1
1.16691
1.03263
1.16874
1
1.08869
1.15652
0.85047
1.15848
1.03143
1.08736
1
1
1
1.14619
1.14781
1.16508
1
1
1.13469
0.91773
1.13593
0.842938
1
1.11858
1.11969
1
1
1
0.76682
1
1.11034
1.02384
1.12341
1
1.10355
1
1.1047
1
1
1.11348
1.11382
1.09408
1.09472
1.07558
1.11804
1.08431
1.12134
1.08529
1
1.03946
1.07041
1.07118
1
0.87887
1.06117
1.06248
1.64107
1
1
1
1.05298
1.06827
1.0545
0.720258
1.17197
0.96956
0.817762
1.04309
1.04375
1.02362
1.03409
1.03554
0.869638
0.865868
1
1.14483
1.46734
1.02293
1
0.825745
1.02178
0.853972
1.1638
0.820714
1
1
1
1.07889
1
1
1
1
1
1.07728
1
1
1
0.888562
0.878429
1
1.03398
0.740375
0.864384
1
1
1
1
1
0.833404
1
1.0756
1
1.13429
1.01522
1.13829
0.858427
1
0.800859
0.792106
1.15017
1
1
1
1
1
1.14228
1.13744
0.948166
0.82389
0.821517
1
0.900727
1
1
1.14149
1.02109
1.00021
1.14634
0.996839
0.999996
1.03771
1.04458
1
1.14561
0.844375
1.03009
1
1.07955
1.00831
1
1
1.08034
1.08965
1
1.00697
0.729395
1
1
1.17792
1.17938
1.07253
1
0.732181
0.73074
0.795768
1.05726
1
1.11034
1.14482
0.846907
1.33568
1
1
1
1.12946
1.13131
1
0.998305
1
1.06308
1.11264
1
0.997659
1.11481
1.0619
1.07872
1.07626
1
1.07329
1.12178
0.824003
1.07026
0.843178
1.08082
1
1
1.08148
1
1
1.08261
1.07342
1
1.00003
0.883083
1.11131
0.873459
0.877546
0.998745
0.870718
0.868611
0.842023
0.839608
1
1
1.17004
1
1
1.08451
0.894454
0.880738
1
1
1.12268
1
1.11252
1.12473
1.05025
1.28494
1.19293
0.999472
1
0.999987
1
1.07684
1.11729
1.16239
0.733244
1
1.05261
1
1.00423
1.00237
1.05068
1
0.996455
0.98688
0.995742
1
1
1
1
0.985846
1.11441
1
1.02052
1
0.868631
1
0.870741
0.85898
0.818054
1
0.988894
0.9881
0.820511
1.39718
1
0.878127
1.15425
1.15448
0.879057
1
1
1.05849
0.716478
1
1
1.11483
0.765865
1.1557
0.978779
1
1
1
1
1
1
1.51216
1
0.86373
0.863837
0.856421
1.16267
0.739571
0.721758
0.734904
0.88326
1.18031
0.862354
0.730879
1.21043
1.22069
1.22952
1.1997
1.21181
1
1.03071
1.22203
1.24116
1.20153
1.07644
1.23129
1.16533
1.18861
1.24375
1
1.25488
1.19018
1.25737
1
1.17261
1.24998
1.26389
1.26347
1.17445
1.0869
1.26786
1.1622
1.04787
1
0.999993
1.16364
1
1.15133
0.999993
1
1
0.982429
1.15282
1
1
1
1.13948
1.15166
1
1
1
1.1419
0.981406
0.743986
1.1232
1
0.963041
1.12483
1.10771
1.1086
0.861829
1.09783
1.09943
1.08917
1
0.840674
1.09083
1
1.07501
0.816616
1
1
1.0771
0.905863
0.741425
1.06662
1.06758
1.05767
1.03854
1.05814
0.733979
1.04705
1
1.01745
1.03699
1.04843
1.02634
1.00677
1.0787
1.03909
1.01009
1.01086
0.813263
1.0397
1.0273
1.02928
0.866932
0.75501
0.732677
1
0.760075
1
0.754678
0.779219
0.746616
1
1.46738
1.18066
1
0.980358
0.97713
1.08917
1.09842
1
1.14145
1.15036
1.16043
1.17471
1.15573
1.14468
1.15307
1.14663
1.14192
1.02763
0.867263
1.1227
1.07836
1
0.966136
0.887965
0.852151
1.01376
1
1.20092
1.14243
0.793698
1
0.965398
0.815253
0.981205
0.964913
1
1.21198
1
0.929151
1.01287
1.14813
1.14165
1.02436
1.0315
0.828835
1.02682
0.984398
1.02592
1.01454
0.805279
0.796015
0.876213
0.840332
0.966091
1.15751
1.0218
1
1.15639
1.23931
0.932376
1.00069
1
1
1
1.10275
0.998642
1
1
0.743259
1.00486
0.840817
1
0.820288
1
1.09962
0.942551
1
1
0.724652
0.848379
1.26706
0.852271
1.12012
1.12107
1.00002
1.16235
1.11253
1
0.964165
1
1.01966
0.958989
0.979921
0.891399
1
1
0.964555
0.97608
1.00782
1.08612
1.10347
1.10396
1
0.957633
1.008
1.07723
1.07597
0.840642
1.0249
1
0.946293
0.90607
0.99923
0.820178
0.999047
1.1436
1
1
1
0.892375
0.989377
1
1.06956
0.991685
1.18015
1.16305
0.875728
1.06967
0.718602
0.810694
1.19377
1
1
0.951433
1.2135
1
1
1
0.982358
1
0.984707
0.766615
1.06495
0.974252
1
1
0.974362
1
1.30137
1.07787
1.28454
1.30793
1
0.789686
1.28887
1.08666
0.976544
1.1904
1
0.818236
1.26714
1.23291
0.957132
1
1.18159
1.26985
1.24596
1.00003
1.11182
0.733344
1.00001
1
0.878039
1.24982
1
1.20716
1.01392
1
1
0.815752
1.22285
0.949151
1.18675
1.24755
1.01399
0.834237
1.01625
1.22785
1.22672
1.17786
0.947261
1
1.03844
1.01191
1.04573
1.14221
1
1.20593
1
1
1
1.20369
1
1
0.915053
1.06913
1
0.923733
1.20751
1.11887
1.08608
1
1.04631
1
1.11556
1
1
1
1
1
1.04655
1
1
1
1
1
1
0.776294
0.721445
1
1.00619
1
1
1
1.10201
0.902292
0.784973
1
0.816979
0.9955
1
1
1
1.03657
1
1.14912
1
1.24533
0.867569
0.87012
1
0.999957
1
1
0.999502
1
1.26554
1.25909
1.11075
1.24202
1
1
1.21998
1.22601
0.876542
1.2002
1
1.20124
1.13336
1
1.19348
1
0.945923
0.945063
0.880923
1.18887
0.869231
0.944172
1
1.19496
0.953438
0.956552
1.137
1.1446
0.820184
1.14597
1.13537
1.01869
1.1422
1.14327
0.939616
1.17833
1.18267
1.1474
1.29938
1.13861
1.17529
1.18385
1.14105
0.938869
1.14634
1
0.966385
1.14491
1.17682
1.28916
0.875488
1.11603
1.14287
1.15884
1.00297
1.16719
0.87901
1.16834
0.904511
1
0.937785
0.844898
1.00281
1.10095
1.16054
1.14698
1.19521
1
1.17591
1.22439
1
1
0.73195
1
1
1.18757
0.916304
1
1.14839
1.22289
1.15002
1
0.863298
1.00876
1.14506
1.14376
0.803736
1.15344
1.19627
0.975166
1.19119
0.927909
1.20383
1.29258
1.17338
1.30165
1.27047
1
0.929966
1
1.0224
1
0.735524
1.05238
1.27259
1.14984
1.19038
1.15222
1.11116
1.22764
1.1346
1.16281
0.888573
1.19759
1
1.25008
1.25132
1
0.998173
1
1
1
1
1
0.911424
1
0.931744
0.739161
0.861984
1.21717
0.742235
0.861291
1.22926
0.840191
1
0.739095
0.929454
0.940094
1
1.13939
1.03396
1
1
1.25512
0.733303
0.888071
0.882862
1.0367
1
1
0.72093
1.00184
0.971948
1.18721
0.726198
1
1
1
1.29864
1
1.21371
1.21722
1.07147
0.741332
1.1878
1.2029
1
1.14785
1.20465
1.28828
0.97068
1
1.25006
1
1
0.954405
1.19026
1.17805
1.23656
0.740426
1.2429
1.25585
1.18337
1
1
1.12938
1.00796
1
0.994838
1
0.803043
1
1
1.16074
0.747776
1
1.1706
0.794265
1.17328
1
1
0.992216
1.20014
0.749347
0.865817
0.768133
0.956011
0.940708
0.94468
0.741
1.11836
0.975051
0.966457
1
1.16284
0.743604
0.746523
0.953794
1.17419
1.16716
0.908304
1
1
0.966849
0.965939
0.811895
1
1.13232
0.842989
1.14283
1.13614
1.14465
0.94752
1.1306
1.19013
0.731514
1.19173
0.732491
0.941382
1.13412
0.943228
1.05371
0.737463
0.907668
1.13804
1
0.915293
1.16679
0.847519
1.26807
0.8812
1.10433
1.1504
1.26727
0.74209
1.11472
0.965941
1
1.14513
1.11651
1.19141
1.2203
1
0.977104
1
1.14868
0.902805
1.01912
0.817247
0.749093
1
0.748255
0.864148
1.10676
1
0.744628
1.0741
1.03359
1.15528
1.08073
0.748222
0.897764
0.956234
1.03935
1.15652
0.797799
1.07545
1.08856
1
1.08934
1
1.07545
1.25282
1.07867
0.853863
1.23045
1.04205
1
0.753391
1.27874
1.02727
1
0.82725
1.28549
1.17118
1.48048
1.1555
1
1.04834
1.26871
1.06327
1
1.26135
1.06545
1
1.16869
1.26568
1.17539
1.32582
1.24244
1.05033
0.927621
1
1
1.24575
0.829662
1
0.833672
1.09564
1.17139
1.17727
0.849637
1.14927
0.935149
1
0.847534
1.31364
1
1
1.19231
1.31041
0.836757
0.918249
1.03473
0.801547
0.795949
1.03067
0.922813
1.03782
1.02683
1.00228
1.23093
1.03558
1.02828
1.12073
0.918499
1.0385
1.03744
1.16465
1.13993
0.818082
1
1.02767
1.31724
1.01583
1.20025
1.31352
0.861694
1
1.01771
0.990494
1.16673
0.885505
1
1
1.01021
1.02683
0.939119
1.10263
1
1
1.1061
0.898805
0.985161
1
1
0.862301
0.99738
0.999887
1.26359
1.0921
0.875707
1.05721
0.99206
1
0.870058
0.984868
0.912979
0.834622
1.0488
1.14093
1.38514
1.18384
1.0811
1.19544
0.948892
1.19421
1.18488
0.820493
1.13779
1.17283
1
0.898164
1
1
0.945992
0.936406
0.96118
0.942184
1.26383
1.02547
1
1
0.958654
1.15398
0.887092
0.91852
0.962836
0.882291
1.14543
1.04177
1.15692
0.895743
0.83645
0.961936
1.32088
0.858336
1
1.00594
1.03796
0.892177
1.31987
0.974021
1.07658
1
1
1.0791
0.987957
1.2677
1
1
0.983072
1
1.12672
0.910216
0.903068
0.888098
0.961215
1.12911
0.923797
1
0.900125
0.893293
1
0.843006
0.725942
0.925488
1.07455
1.08747
1
1
1.03723
0.942847
1.13999
0.906433
0.909037
1.31269
0.892096
0.99997
1
1.09807
1
1
0.811714
0.966773
1.14356
1.10069
1
0.725902
0.816587
0.908071
1.19866
0.905582
1.22396
0.947427
1.06625
1
1
0.878877
0.939739
1.04476
0.906444
1
1
0.736098
0.900565
0.860069
0.905425
1.06975
1.04148
0.968793
1
1.17933
1
1.07187
1
1.20505
0.999994
0.811268
1
1.13873
1
1
1
1
1
1
1.03239
1.20019
1
1.20795
1.1863
1
1.1425
1.30577
1
1.0229
1.03625
1.1633
1
1
0.909506
0.849045
0.914909
1.03561
1.18773
1.18048
1.0195
1.14476
0.949639
1
1
1
1
1.02059
1.04688
1.17104
1.03572
1.02503
0.913184
1.04625
0.906436
0.91683
1.00183
1.14658
0.817883
1.16467
1.08034
1.17273
1.08718
1
0.998153
0.818516
1.13277
1
1
1.0339
0.818797
0.929671
1.00526
0.817118
1.1522
1
0.89085
1
1.0407
0.808196
0.813614
1.14252
0.875938
0.928531
1.07337
1.14624
1.10852
1.15323
1.05744
1
1.13963
1.11356
0.883668
1.27531
1.25547
1.037
1
1
1.14548
1.31
1.15797
1.23348
1.3134
1.01896
0.836584
0.947422
1
1.15448
0.953071
1
1.26067
0.971084
0.835545
1.27423
1.14672
1.02647
1.05352
1.25462
1.04706
0.973272
1
0.985195
0.979216
1.2564
1.04353
1
0.987916
1.06343
1.11526
1.02543
1.23664
1.11937
0.961788
1
0.843203
1
0.962806
0.816321
1
1
1.31039
0.808064
1.18624
0.817542
1
1
1.19488
1.03368
1.02398
0.817867
1
0.899554
1
0.96009
1.28011
0.800421
1.13818
0.814767
0.993107
1
1.20735
1.17397
1.02782
0.98732
0.957449
1.02933
1.06042
0.990061
1
1.22203
1.00819
1.27555
1
1.20944
1.19875
1
1.0329
0.915978
1.00559
0.814951
1.22465
0.719727
1.02605
1.04223
1.16561
1
1.17789
1.02321
0.795727
1.42244
0.79527
1
1
1
0.99895
0.795403
1.18056
0.936966
1.16724
1.0339
1.00007
1.00002
1.32193
1.16797
1.13741
0.910928
1.00002
1.08174
1.00006
1.10128
0.903414
1.07957
1.14802
1.2931
1.07898
1.13661
1.04377
1.15013
1.13953
1.02272
1.11445
0.864907
0.719854
1.06001
1.06988
1.10991
0.92735
1
1
1.02567
1
1
0.993688
0.870292
1.09857
1.12011
1.17376
1.0002
1.29126
1
1.03389
1.04161
0.918994
0.899634
0.920302
1.12289
0.826347
0.776534
1.11188
0.872073
1.18682
0.848929
0.933087
1.13994
0.922428
1.0829
1.18786
1.11882
1.16506
0.797237
1.09208
1
1
1.07066
1
1.08901
1
1.11415
1.0942
1.0854
1.08384
1.06531
1.17695
0.926839
1
1.19719
0.916761
0.938085
1.14357
1.17847
1.20725
1.0356
1.05431
1
1.09673
1.06775
1.01628
1.04463
1.12719
0.900467
0.851336
1.18352
0.793074
0.955512
1.12461
1.06711
0.962974
0.956698
1.05831
0.994164
1
1.1715
1.03001
0.97013
0.945969
1.0413
1.01025
1.02787
0.900524
0.921054
1.07783
1.05663
0.940135
1
1.13277
1.09294
0.951183
1.10947
0.961507
1.373
1
1.04233
1.03022
1
1
1
1
1.35465
1.2102
1.02097
1.21498
0.943931
1
1.04457
0.96815
1.12108
1.04116
1.03153
1.07121
1.07411
1.10409
0.929508
1
1
0.980911
1.16135
1
1
0.963041
1.13585
1.02371
1.3347
1.06494
1.12476
1
1.03492
1.13134
1.03575
1.14267
1.15547
1.06558
1
1.01274
0.9152
1
1.33773
0.97797
1.1474
1.03146
1.15121
1.01354
0.913051
0.798107
1.236
0.802995
1.16988
1.15768
1
1.03616
1.12378
1.1648
1.066
1
1
1.04474
0.994664
0.917577
0.794657
0.954239
1
1.30733
0.947906
1.18366
0.926895
0.993865
1.17631
1.17889
1.14838
0.798937
1.31191
1.17286
0.926349
0.981976
0.965293
0.932337
1.24771
0.977503
0.813258
0.968452
1
0.994686
1.13735
1.0468
1.00289
0.947722
1.19265
1.32037
0.907681
1.05027
1.02767
1.05105
0.884814
1.1788
0.938579
1.19016
0.951892
0.929549
1.02567
0.923868
1.03514
1.0998
1.12969
1.13631
1.18707
0.934823
1.14233
0.922783
0.864167
0.954671
1.14001
0.95484
1.25749
1
1.05231
1
0.92064
1.26089
1
1
0.915882
1.2073
1
0.963783
1.03035
1.32047
1.07745
0.999999
0.797224
1
0.921281
0.959996
1.23806
0.943682
1.0459
1.24044
1.04608
1.02579
1.03012
1
0.800347
1
1.22363
1.02612
1.21517
1.00774
0.914221
1.19424
1.22699
1.19533
1
0.908342
0.789955
1.2109
1.20765
1.21047
1.11842
0.999792
1.21392
1.01908
1.14104
1.21408
0.922037
1
0.961252
1.31365
0.93175
0.795489
1
1.19938
0.858384
0.926229
0.799171
0.982128
1.20175
1.02589
1.10158
1
1.03124
1.03225
1.1842
1.2085
1
1.186
1.04275
0.957363
1.20378
1
1.1855
1.18909
1.04343
0.965756
1.21682
1
1
1.21216
1.17378
1.22535
0.819029
1.22087
1.17623
1
0.931528
1.05623
0.871764
1.16056
0.96703
0.848007
0.840155
1.24816
1.16389
1.20297
1.03885
1
1
1
0.96411
1.15004
1
1.00289
0.813945
1.22985
1.09082
1.02386
1.14594
0.92978
1.15227
1.03824
1.00172
1.16159
0.723159
1.01712
1.12585
1
0.789534
1.13996
0.949345
0.799332
1.14082
1.13379
1.23479
1.01213
1.25142
1.24704
1
0.926018
0.825368
1.13738
1
1
1.03028
1
1.24301
0.857411
1.13938
0.955264
1
1.15947
1.03357
1.02479
1.32914
1.03675
0.794466
1.12734
0.929885
0.962401
1.2388
1
0.946325
0.96684
1.03491
1.33017
1.13008
1
0.93768
0.874284
1.02029
1.25546
1.04707
1.03962
1.25986
1.02074
1
1.03141
1.05412
0.850791
1.53304
1.21302
1.31348
1.11604
1.03877
0.760532
1.19747
1
1
1.0434
1.05298
1.11772
0.957529
0.955093
1.06344
1.03521
1.29583
0.958875
1
0.728185
1
0.792639
1.05939
1.10533
1.10846
0.984245
1
1
1.26326
1.2852
1
1
1.07849
0.982552
1.03829
1.27216
1.07448
1.0592
1.09096
1.0886
1.13695
0.960934
1
1.06105
1.0937
0.943063
0.96253
0.861182
1.0873
1.02676
1
1.13847
1
1
1.32287
0.959911
0.989527
1.25002
1.07841
1.31713
0.961688
1
1
1.08058
1.32647
0.944731
0.815273
1.10687
1
1.25329
1.0755
1.10433
1
1
1
1
1.11443
1
0.961954
1.06336
0.902139
1.13573
1.06625
0.999999
1.11057
1
1
1
1.12724
1.0532
1.05591
1
1.112
1.12532
0.886599
1
1
0.870708
0.961705
1
0.8931
1.13792
1
1
1
1
1
1.03853
1
0.962922
1.13253
1
1.17224
1.02315
1
1.04192
0.776999
1
0.885656
1.12708
1
1
1.17017
1.19018
1
1
1
0.871907
0.867916
0.959386
1.15455
0.816464
1.17066
1
1
0.877859
1.16971
1
0.868684
1.15081
1
0.975201
1
1.18768
0.996702
0.972514
1
0.849141
1
1
0.885676
0.77804
1.16698
1.0001
1
1.18302
1
0.965888
0.897548
1.17224
0.794886
1
0.808488
1
0.853823
0.912848
0.948792
0.956494
1.1884
1.13612
1.16954
0.98725
0.995191
0.884806
0.997897
1.01102
0.982085
1
1
0.869794
0.872748
1.13395
0.822929
1.19058
1.17993
1.18907
1
1.18849
1.32067
0.908342
1.20608
1.17247
0.896308
0.9967
0.910015
0.885894
1.1944
1.18132
0.87777
1.20133
0.993324
1.04008
1.04204
0.855129
1.03336
1.33044
0.905583
0.8603
1
1.09967
1
1
0.861546
1.22962
1.17443
1.03646
1
1
1.0351
1.02834
1
1.34553
1
1.22302
1.10202
1
0.702365
1
1.22463
1
1.00805
0.859535
1
1.21786
0.81552
1.21709
1
0.787451
1
0.79799
1.00833
1.00062
1.11745
1.0043
0.835267
1.23384
1.07519
0.890282
1.22125
1.31794
1.36167
1.02206
1.12607
1.23171
0.839297
1.07608
1.13783
0.895159
1
1.17575
1
1.31312
0.967591
1.1074
1.25111
0.83256
0.986758
1.02251
1
1.04221
1.12421
0.970566
0.987243
0.924145
1.32344
1.02744
0.961259
1
1.04875
1.24527
1
1
1
1.10588
0.986198
1.09802
1.05054
1.0105
1
1.17757
1.30218
1.06304
1.11468
1.03293
1
1.31861
0.836745
1.20176
1.26512
1.03507
1.06089
1.00003
1
0.92275
1.11165
0.960361
1.29137
1.24358
0.968683
0.970677
0.968243
1.3748
1.26846
0.970701
0.853116
1
1.05392
1.12383
1.04492
1
1.12726
1
1.21655
1.0449
0.917779
1.23848
1.23153
1.04827
0.938795
1.0502
1.07617
1.19993
1
1.0426
0.952222
0.908673
1.08239
1.12494
1
1.24623
1.12181
1.21746
0.952799
0.958429
1
1.26063
1.07397
1.34545
1
1.18788
0.890224
1.18005
1.21888
0.933024
1.23455
1.2049
1.05262
1.20265
1.24191
1.00616
1.13085
1.16409
1
1.03324
1.08562
1.22009
1.19293
1.17691
0.870998
1.27665
1.1404
1.26356
1.04
1.04902
1.14141
1
1.12835
1.20751
1.08309
1.17936
1
1.13823
0.959106
1
1.35341
1.19602
1.16799
1.09553
1
1.27908
0.956453
1
1.18228
1.14772
1.15498
1
1
1.0929
1.17068
1
1.14508
1
1.14279
1.13832
0.891053
1
1.15722
1
1.13299
0.860127
1.00001
1.05666
1.1558
1.14641
1.12061
1
1
1
1.10905
1.1539
0.954153
1.13475
1.04591
1.11166
1.15261
0.860048
1.01439
1.18254
1
1
1.03511
1.02776
1.0151
1
1.10613
1.18541
1
1.12351
0.938815
0.897793
0.948623
1.16356
1.01237
1.09617
1.15025
1.12516
0.948761
1.114
1.17543
1.17856
0.887551
1.02169
1.11631
1
1.34518
1.16086
0.96343
1.0838
1.2525
0.801085
1.02709
0.957904
0.932347
1
1.09728
1.16217
1.18071
1.11407
1.16183
1
0.798372
1.07006
1.08877
1.17108
1.08707
1
1
1.15959
1.05875
1.17771
1
0.833149
1
1
0.799416
1.16894
1
1.07277
1.22939
1.10196
1
0.925905
1.09483
1.16967
1.04461
1
1.06078
0.7933
0.959427
0.790878
1.21611
0.955074
1.13097
1
1.17855
1.20116
0.816004
1
1
1.02894
0.820591
1.04648
1.23293
1.12873
1.16749
1.17621
1
0.948963
1.19746
1
0.801215
1.0305
1.01455
0.899744
0.789963
1
0.953258
1
1.17719
1.02844
1
1
1.03105
1.08
1.10393
1.06337
0.795227
1
1
0.93613
0.818161
1.14332
1.08061
1.21261
0.880766
1.1748
0.80668
1.1912
1
1.14042
1
1.18936
1
1
0.790786
1
1.1861
0.999491
1
0.710696
1.15321
1.03065
0.866412
1.08757
1.02978
1
0.854833
1.16627
1
1.18385
1
0.997624
1.06067
1.15091
0.949936
1.13444
1
0.848769
1.03073
1.42105
1.21508
0.82577
1
0.944322
0.823337
1.20399
0.946948
1
1
0.963702
1.04719
1
0.74534
0.950702
1.16257
1.03912
1.19442
0.79646
1.20175
0.982647
1.01555
1.06643
0.997564
0.998252
0.954108
1.15926
1.06391
0.929498
0.94284
1.01437
1
1.19209
1.01154
1
1
0.899594
1
1.2081
1.07518
1.13454
1
1.17285
1.20939
1.07824
0.927982
0.856064
1
1.20338
1.07301
1.3094
0.771372
1.17024
1.08078
1.0914
0.923603
1.08519
0.854421
0.791222
0.791246
0.952704
0.796919
1.20064
1.1878
1
1.00348
1
0.873989
0.879549
1.26318
1.24576
1
1.14543
0.824608
0.958063
0.800397
1.18166
1.11106
0.799012
1
1.04107
0.966399
1.2242
1.13966
1.05613
1.01074
1
1
1
1.03875
1.07784
1.17849
0.871408
1.14307
0.85717
1.1813
1.01154
1.25001
1.08278
1.26716
1.05219
1.03953
0.95485
1
1
0.789642
1
1.06874
1.01365
0.881117
1.07977
1.04721
0.977697
1.04367
1
1.11027
1
1
0.908454
1.19135
1.05475
1.2269
0.931238
1.06477
0.939587
1.3367
0.939536
0.87941
0.775003
1
0.960867
1.1889
1.03083
1.04762
1.09211
1.04381
0.792817
1.04693
1
1.13603
1.08979
0.894405
1
1.09439
0.934603
1.01048
0.958548
1
0.751135
0.792611
1.0624
0.999998
0.963412
1
1
1.03451
1
1
1.08748
1.14817
0.866889
0.932273
0.893082
1.09026
1.0652
1.19904
1
1
0.866987
0.907915
1.04981
1.01976
1.10277
1
1.07848
0.794747
1.0422
0.949141
0.904549
0.788586
1
1.14196
1.08955
1.07575
1.19667
0.994217
1
1
1.31532
1.0678
1.20484
1.07052
1.10487
1.09809
1.01902
0.995602
1
1.06979
1.05459
1.2013
1
1.03862
0.925899
0.844692
1
0.991628
1.10542
0.817089
0.949643
0.847331
1.10002
1.18468
1
1.14479
1.0705
0.995684
1.13523
1.03145
0.827184
0.792108
1.06686
1.09589
1.13423
0.914817
1.09279
1
1.11642
1
0.855378
1
1.1121
1.10653
0.793997
1
1.03008
1.20877
0.944541
1
1.1814
0.944876
1
0.946898
0.912684
1.08934
0.941237
1.11335
0.949395
0.842803
1.20631
1.06335
1.0793
0.837678
0.92707
1
1.11063
0.958778
0.970988
0.960382
0.96355
1
0.796022
1.11828
0.999446
1
1.01333
0.920211
1
1.11951
1.03286
1.12082
1.09444
0.924975
0.923824
0.939531
0.949237
1.0902
1.00005
0.940305
1.14563
1.13487
0.979384
0.871112
1
0.917584
1.03231
1
1.07206
1
0.899749
1.01002
1
1.11767
1.09383
1
1.04667
1
0.965825
0.979061
1.14189
1.13085
1
0.793661
1
1.16314
1.36777
1.04712
1
1.07383
1.20306
1.09258
1.12452
1.00882
0.874436
0.955858
1.00881
1
1.27638
0.926843
1
0.906963
1.13385
0.878996
1.05026
1.24527
0.787736
1.22116
0.927719
1
1.12767
1.2097
1.15845
1.08388
0.975864
1
1.17909
0.999983
0.925631
1
1.21896
1.09626
0.898834
1.00013
1.10295
1.1318
1.20632
1
1.17784
1.36161
1.21031
1.05539
0.854112
1.17476
0.937309
1.07961
1.25398
1
1
0.949085
0.992307
1.16368
1.03393
1.1997
0.949917
0.907414
1.18127
0.875596
1
0.93006
0.984666
1.21187
1
0.937239
0.855883
0.785954
1.0822
1.20932
1
1
0.956402
0.821722
1.16704
0.796345
1.14098
1.03499
1.17594
0.785468
1.30153
1.02333
1.21401
1.2543
0.818977
1.0158
1
0.922621
1.33797
1.208
1
0.918282
0.989114
0.756676
1.17622
1.12344
1.14249
1.05651
1.02426
0.882796
1.07289
1.23234
0.958337
1.11025
1.10406
1.03314
1.1203
1.22904
1.12688
1
0.937486
1.21511
1.19733
1
0.939829
1.07269
1.06859
1.23313
1.06595
1.1489
0.793351
1.08213
1.05781
1
1.084
1.13569
1
1.15734
1.07158
0.928966
0.961921
1.06851
1
0.962566
0.914764
1.09815
1.0848
1.00295
1.11868
1.16584
1.07435
1.06851
1
1.27579
0.91556
0.949974
1.03895
1.00696
1.09984
1.1732
1.32968
1
1.04258
1.18706
1.10807
1
1.10237
1.11742
0.96016
1.22797
1
1.21349
1.1247
1.06905
1
1.17257
1.00468
1.11942
1.13264
1.06697
1.14581
0.795667
1.11477
1.18172
1
1
1.23283
1.20058
1.14681
0.928381
1.12816
0.917352
0.874767
1.02227
0.998727
1.00621
0.884079
0.957041
1.09898
1.12596
1.15444
0.917717
0.902472
0.959508
1.15754
1.00105
1.03715
1.12014
1.1637
1
0.993511
1.06018
1.06421
0.996255
1.19024
0.930701
1.19086
1.00546
1.12643
1.17111
1.0992
1.13147
1
1.0419
1.05652
0.931428
0.781462
1.00596
1
0.868642
0.79978
1.13709
0.790873
0.852595
1.05382
1.23803
1.11738
1.17939
0.91434
1.32316
1.05273
0.881522
1.13111
0.830562
1
1.12862
1.19868
1.02282
1.33797
1.04154
1
1
0.90955
1.06942
0.801091
1
0.897062
0.812336
1.13285
1.12891
1.0075
0.934518
1.12328
1.1879
1.13219
1.14351
1
0.932461
1.04301
1.1199
1.28838
1
1
1.02431
1.09732
1
1.24172
1.13605
1.00003
1.05327
1.24098
1
1
0.996338
0.880291
0.902554
0.756482
0.978224
0.900487
1.06188
1.19634
1
1.02318
1.16153
1
0.815063
0.97937
1.14804
1.03392
1
0.867827
0.816254
0.972997
1.04433
0.745521
1.04389
0.980414
1.01667
1.07575
1.05902
0.890266
0.879769
1.04261
1
1.04115
1.19562
1.11917
1.20545
0.892306
0.897768
0.882536
0.997521
1
1.06595
1
1.15172
1.19545
0.743646
0.885791
0.892158
0.900625
1
0.974111
1
0.804686
0.865852
0.99427
0.888493
0.950254
0.892816
1.17568
1.05422
1.36358
1
1.04925
0.878972
0.902855
0.874227
1.23872
1.23418
1
1.11864
0.887502
1.28287
1
0.907079
1
1.21245
0.972289
1.05347
1.0285
1
0.743411
0.960481
0.87776
1.1151
1
1
1.00009
1.03718
1.09665
1.02745
1.0279
1.2128
1.18978
1.23538
1.02752
1.07703
0.774819
0.901343
1.19382
1.21049
1.00009
1
0.897137
0.903364
1.01155
1.24583
0.874045
1
1.01981
1
1.02658
1.00989
1.02012
0.931061
0.867182
0.736707
1.18385
1
1
0.817955
1
0.874994
1.04432
1.0733
1
0.936044
1.03751
1
1
0.87879
1.04596
0.875415
1.06057
1.10297
0.751167
0.927375
1.14703
0.867743
1.02596
0.996957
1.32331
1
1.08133
1.16351
1.0283
1
1.37209
0.841417
1.18097
1.09084
1
1.04097
1.19569
0.987166
1.26728
1.10358
1
0.979765
1
1
1.10533
1.05532
0.905048
1.16549
1
1.05433
0.925723
1
0.884488
1.13935
1
1
1.22567
0.953628
0.73878
1.27475
1
1.11292
0.975273
1.05832
1
1.23105
0.985746
1.19591
1.0708
0.977477
1
1.03873
0.839029
1.13893
1.05188
1
1.12705
1.22254
0.912954
1.07781
1.03292
1.17181
0.96881
0.944666
1.01889
0.85534
1.28155
1.06901
1
1
1.27543
1.33921
1.0871
1
1.03296
1.02197
1.19437
1.0257
1
1.19323
0.887885
1
1.02635
0.944059
1.13163
1
1.13824
1.09989
1
0.81158
1
1.04049
0.936969
1
1.06634
0.961353
1.11046
1.00201
1
1.1302
0.794246
1.06309
0.962099
0.882169
1.02227
1
1.05593
1.14029
1.13318
1.25102
1
0.821494
1
1.08031
1.14912
1.37792
1
0.852929
1
1.12373
1
0.984478
1.0446
1.03643
0.793655
1
1.1649
0.78423
0.968796
1.25449
1.15707
1.22797
0.999997
1.07674
0.930527
1
1
1.0169
1.13556
1.08061
1.05887
1
1.3193
1.139
1.00944
0.929704
1.03006
1.23452
1
1.09369
1
0.957939
1.23715
1.21695
1.22259
1.28162
0.902418
1.16811
1.3745
1.14583
1.3242
1.04577
1.16941
1.15573
0.982211
0.96021
1.0153
0.85619
1.17059
0.964077
1
1.09077
1.00986
1
1.04029
1.20866
1.15445
1.17657
1.26366
1.1062
1.01181
0.937362
0.998098
1.21386
0.933114
0.984107
0.72863
1.30107
1.21986
1.24104
0.95441
1
0.8381
1.00005
0.75631
1.03729
1.05093
1.03845
1.16499
1.19696
0.999891
0.856238
1.0391
1
1.10367
1.30529
0.988928
1.18695
1
1
1.14854
0.854193
1.20388
1.23009
1.00026
0.857081
1.1158
1.07803
1.22167
0.928701
1.15786
1.15585
1.09902
1.17416
0.860211
1.08823
1
0.855287
0.910527
0.929229
0.755717
0.996948
1.07207
0.98395
1.0433
1
0.957354
1.19505
1.04281
1.11214
1.00677
1.04458
0.921551
0.836351
0.85129
1.20596
1.05063
1.01028
1.12698
1.06389
1.18409
1.3643
1.10869
1
1.01864
1.15881
0.793257
1.19098
1.04537
1.01958
0.798566
1.01259
1.09644
0.903203
0.923617
1.05833
0.804072
1.07677
0.840104
1.19474
0.791581
1.18092
1
1.38038
1
1.08561
1
1
1
1
1.27232
1.12534
1.20422
1.10502
1.19996
1.01581
1.06922
1.0658
1
1
1.0466
1.04319
1.19294
1
0.953275
1.05558
1.04499
1.13929
1
0.799941
1
0.865835
0.800621
1.19621
0.943092
1
1.12783
0.917383
1.17969
0.831545
1
1.2017
1.17888
0.88306
1.01265
1.13462
0.805308
1.18388
0.84502
0.999022
1.20127
0.83329
0.852887
0.916067
0.845244
1.18876
1
1.14984
0.864841
1.05978
1.21714
1
1.14218
1.14437
1.04847
1.17545
0.851497
0.868022
1
1.27118
0.845701
0.855151
0.98893
1.1703
1.16056
1.17078
1
1.1856
1
1.16263
1
1.14765
1.04334
0.822853
0.909714
1
1
1
1.16736
1.3583
1.15278
1
1
1.15088
1.05014
1
1.34209
0.862353
0.998044
1.00252
0.932585
0.942309
1.04917
1.03582
1.16215
1.17232
1
1.33821
0.918289
1.12063
1
0.924589
1
0.856688
1.17378
0.846464
0.978603
1.18165
1.02726
1.17583
1
0.999299
0.922724
1.21443
1.03909
1
0.951881
1.16391
1
1.24178
0.974689
0.886695
1.17613
1.27958
0.924093
0.859826
1.2574
0.931563
1
1.15818
1
1.00731
1.12315
1
1
1
1.03391
0.929109
0.876583
1.24568
1.23075
1.17284
0.960066
0.992
0.885052
1.19421
1
0.954072
0.880074
1.18733
0.871799
1.09207
0.982016
1.16905
1.16384
0.909492
1.00383
0.890048
1.02771
1.00714
1
1.06045
1.03348
0.884694
0.915571
1.18358
0.907742
1
1
1.18499
1.08709
0.921098
0.844416
1.09543
1.17713
1
1.13778
1.13109
0.953667
0.984714
1.0331
1.18992
1
0.931032
1.16362
1.01503
0.855062
0.901367
1.18712
1.16987
1.29363
0.999999
1
1.16999
1
1
1.04323
1
1.16814
1.15229
0.996083
1
0.957479
1
0.921923
0.885391
1
0.996937
0.950324
0.978883
1.36662
0.973459
1.15477
1.03798
1.19767
1.01477
1.18563
1.16107
1
1.21981
0.910727
1.33948
1.10527
1
1.2239
1.22807
0.961042
1.03467
1.10767
0.998442
0.821433
0.886437
0.979614
0.921675
1.03338
1
0.99385
1
0.977131
0.87457
1
1
1
0.856937
1
0.958086
0.84625
0.999865
0.78942
1.2526
0.963165
0.964289
1
1.15621
1.18225
0.89079
1
1.20921
1.14416
1
1
1
0.999927
1.34497
1.0248
1
1
0.962323
1
0.869361
0.99999
1.22036
0.99297
1.05838
0.782902
1.19616
1.19773
1.01423
1
1
1.04116
1.20564
0.829098
1
1.2933
1.27293
1.21731
0.856724
1.21983
1.0404
1.09419
1
1.15032
0.988626
1.1099
1.01869
0.911886
1.19808
1.1225
1
1
1.20606
0.812985
1.03467
1
1.03424
1.03618
1.13609
1
1.34035
1.09403
1
1
1.04284
1.19372
0.977335
1.23679
1
1.2648
1.18743
1.19261
1.00595
1.28358
0.851294
1.09799
1
1.26588
0.866936
1.29163
0.898723
0.984519
0.983173
0.866408
0.984073
0.996808
1.14199
1.08353
1.14173
1.06913
0.809557
0.980102
0.853611
1.10954
1
1.21452
1.18108
1.17411
1
1
0.866001
1.29607
1.26773
0.86807
1.08567
0.85933
1
1
1.1129
0.959718
0.86446
1.14814
1.23646
1.00007
0.996677
1.32071
0.883364
1.17186
0.858301