/*--------------------------------*- C++ -*----------------------------------*\
  =========                 |
  \\      /  F ield         | OpenFOAM: The Open Source CFD Toolbox
   \\    /   O peration     | Website:  https://openfoam.org
    \\  /    A nd           | Version:  12
     \\/     M anipulation  |
\*---------------------------------------------------------------------------*/
FoamFile
{
    format      ascii;
    class       surfaceScalarField;
    location    "3.1";
    object      phi;
}
// * * * * * * * * * * * * * * * * * * * * * * * * * * * * * * * * * * * * * //

dimensions      [1 0 -1 0 0 0 0];

internalField   nonuniform List<scalar> 
69079
(
-0.000199427
0.000115678
8.392e-05
0.000166001
-4.75965e-17
-0.000166001
-0.000179374
0.000179374
0.000167917
-1.91521e-06
-0.000176703
-2.67121e-06
-0.000176703
9.50206e-05
-0.000183517
8.71294e-05
1.03289e-06
0.000147056
-0.000149453
0.000169597
-0.000169597
-1.73879e-17
0.00016874
8.56803e-07
-0.000124554
-7.48207e-05
-0.000146078
0.000156623
-1.03715e-05
-0.000166388
0.000162809
3.57841e-06
-0.000165548
-8.40003e-07
4.5797e-06
-0.000146503
0.000141924
0.000168773
-3.36001e-08
0.000167933
8.40003e-07
-0.000168572
0.000166354
2.21761e-06
-0.000166724
-1.84801e-06
0.000168454
-0.000167513
-9.40804e-07
0.000167144
1.31041e-06
0.000170117
-0.00017257
2.45281e-06
-0.00018139
1.74049e-05
0.000163985
0.000186974
-0.000123067
-6.37535e-05
0.000157031
-2.39993e-05
-0.000131976
-0.000167933
-1.66321e-06
0.0001679
3.36001e-08
3.86402e-07
-1.68001e-08
0.000151195
-0.000151237
0.000157481
-0.000164566
6.97412e-06
0.000159416
-0.000172755
1.33393e-05
0.000186061
-2.66449e-05
0.000166203
9.40804e-07
-5.20802e-07
-0.000167833
3.10801e-05
0.000136753
0.000165934
-0.000165934
-2.71051e-19
3.86402e-07
-1.21211e-05
0.000160478
-0.000149398
-1.48681e-05
-0.000166522
0.000131899
2.49931e-05
-0.000159931
-0.000166326
2.03981e-05
0.000164775
-0.000164775
-6.78047e-14
-7.98003e-06
-0.000135286
0.000164055
-2.89538e-05
0.000164506
1.84801e-06
-1.42801e-06
-9.71884e-05
0.000185607
-8.84187e-05
0.000161432
-0.000161432
-5.34226e-12
0.00018512
-2.36882e-05
0.000156884
2.82345e-05
0.00018412
-2.72386e-05
0.000159634
-4.73762e-06
-0.000154897
-0.000143071
0.000171921
-2.86156e-05
-0.000175847
0.000180131
-4.2847e-06
-0.000163963
7.04603e-05
9.36059e-05
0.000159037
-0.000160128
7.65315e-07
0.000188313
-2.98274e-05
0.000160807
-2.10515e-07
-0.000160594
-8.55004e-05
-6.29518e-05
0.000144841
9.95068e-05
6.67467e-05
-0.000166253
0.000169148
-9.9449e-05
-6.85716e-05
-1.87657e-05
-0.000149067
6.53019e-05
-0.00016249
-0.000139852
0.000144432
0.000161969
8.40003e-07
-2.80561e-06
0.00019604
-0.00019604
-1.89846e-05
-0.000144789
-0.000147547
1.23692e-05
-6.65135e-05
0.000159722
0.000168289
1.98014e-05
0.000187995
-2.01637e-05
0.000161058
-1.99167e-05
-0.000142335
0.000169966
-0.000166472
-3.49441e-06
0.00011948
6.77802e-05
0.00015478
-0.000159066
4.28767e-06
-3.79253e-06
0.000158595
-0.000160659
1.47841e-05
0.000145875
0.000159416
2.66449e-05
-2.01599e-06
0.00015821
-0.00018685
2.86624e-05
0.00013603
2.36041e-05
0.000175863
-1.75483e-05
-9.53219e-05
-6.67408e-05
0.00016221
-0.000156056
0.000158055
-1.99921e-06
0.000157852
-0.000178553
2.07042e-05
0.000158947
-1.09449e-06
-0.000114776
-5.59308e-05
-8.26563e-06
-0.000133477
0.000141742
-9.2182e-05
0.000181222
-8.90403e-05
0.000175404
-4.48149e-05
-0.000168958
1.29025e-05
0.000156968
2.71743e-05
9.04684e-05
6.85947e-05
-0.000159063
-3.11311e-06
-0.000154426
-1.45321e-05
4.08242e-07
-0.000138258
0.00013785
0.000165159
-4.37207e-06
8.85531e-05
7.81707e-05
-0.000166724
7.07787e-05
-0.000162961
-0.000155787
1.36081e-06
0.000167866
-0.000167866
0.000168993
-1.16045e-05
2.64267e-05
-0.00018218
0.000155753
5.80911e-05
-0.000152855
-0.000153834
-1.24309e-05
0.000154726
-0.000180464
2.5745e-05
0.000158253
-3.523e-06
8.6634e-06
0.00013444
-0.000143195
-5.58006e-06
0.000146954
-0.000141422
0.000154298
3.27887e-05
-3.30307e-05
-0.000136892
0.0001373
9.79444e-06
-0.00015782
0.000148025
-0.000163436
4.57888e-05
-9.63592e-06
0.000144625
-0.000135367
6.30971e-05
-0.000148663
-0.000149369
-5.41759e-06
0.000154776
0.000149297
-0.000153324
3.79129e-06
-0.000161197
0.000138987
2.22097e-05
-5.77922e-06
-0.000170924
0.000152946
2.29689e-05
-7.93655e-06
0.000160848
-0.00017336
0.00017336
-0.000155164
5.78049e-06
-4.70906e-05
0.000146597
0.000182793
-0.00010922
-7.38609e-05
-0.000180611
7.38493e-05
0.000106764
0.000166338
-1.08213e-06
-0.000165267
0.000151959
-0.000177337
2.5364e-05
0.000156961
-5.02382e-06
0.000164338
-5.03843e-06
0.000143158
-0.000137958
0.000156735
9.5951e-06
0.000101708
-0.000161381
5.96738e-05
0.000152743
-0.000184612
3.18387e-05
0.000183201
-3.04584e-05
-2.06585e-06
0.00015111
-0.000101019
0.000190664
-8.96451e-05
-0.000130693
-2.83661e-05
0.000147537
-0.000175398
2.78511e-05
0.00015357
-6.0442e-06
0.000154864
-0.000166156
1.13212e-05
-0.000164704
3.40041e-05
-4.39125e-05
-0.000136699
0.000151152
-0.000182662
3.1534e-05
-2.73924e-05
-0.000158576
0.000145386
0.000111334
-0.0001196
-0.000129199
0.000137718
0.000178383
-0.000178383
0.000156633
8.28821e-08
-2.80172e-05
0.000155481
-0.000164887
9.53454e-06
-0.000151773
4.58771e-06
8.77525e-05
9.50766e-05
-0.000168236
2.66953e-05
0.000141541
0.000148752
-0.000180983
3.22242e-05
-0.00014942
0.000180216
-3.14697e-05
-0.000151596
-2.451e-06
0.000129782
-5.9387e-05
-5.31722e-05
0.00015488
-1.94164e-05
0.000176847
0.000151557
3.16532e-05
-0.000140385
0.000135295
-3.10776e-05
0.000157924
-0.000157923
9.09052e-05
-0.000158441
6.75363e-05
0.00014709
-0.000179507
3.24089e-05
0.000178864
-3.178e-05
-2.51161e-05
-0.000147454
0.000149634
4.82766e-06
-0.000155483
-2.84929e-05
-0.000153687
1.77497e-05
-0.00013286
0.000115373
-0.000102692
0.000166265
-6.31389e-05
-0.000150797
5.44322e-06
0.000145354
7.883e-06
0.000152773
-0.000138734
0.000128617
0.000150881
0.00015992
-4.32947e-06
0.000145317
-0.000178116
3.27995e-05
-3.5139e-05
9.24004e-07
-0.0001469
0.000145976
0.000150252
8.69953e-06
-3.07335e-05
5.92471e-05
0.000104437
0.000144346
6.38402e-07
-0.000144985
1.49521e-06
0.000142851
1.13904e-05
0.000158576
-6.18746e-05
-7.89099e-05
0.000140785
-0.000178573
0.000100169
8.07215e-05
9.65164e-05
-0.000158391
4.87202e-07
0.000146732
-0.000147219
-0.000146782
0.000147269
0.000140184
-0.000145942
-0.000155216
0.000161415
-6.19922e-06
0.000136117
-0.000163814
2.7653e-05
0.000147641
-1.14983e-05
-1.3304e-05
-0.000129135
0.000142439
8.74107e-05
6.22946e-05
-0.000149705
0.000147156
3.30507e-05
-3.23685e-05
2.20249e-05
-0.000153855
0.00013183
-0.000144245
-7.30758e-06
0.000155336
4.55885e-06
0.000142545
-0.00017661
3.40521e-05
0.000175352
-3.28212e-05
9.81628e-05
-0.000156951
5.87885e-05
0.000148378
-0.000138584
0.000159845
-0.000165272
0.000138029
1.05387e-05
-5.20802e-07
0.000158576
4.43099e-05
-0.000147253
-0.00015283
-2.38561e-06
0.00016048
-5.6662e-06
-9.35722e-05
-4.84433e-05
0.000142355
0.000140664
-0.000174564
3.38845e-05
0.000170924
-2.23945e-05
-0.000173645
-3.66859e-05
0.000121392
-0.000103535
0.000145275
3.35856e-05
-3.28386e-05
-9.08559e-05
-7.06523e-05
0.000161409
0.000167127
-0.000164859
-2.26801e-06
-1.94713e-05
0.00016753
-0.000148059
0.000132988
-0.000160239
2.72769e-05
0.000145942
-1.28899e-05
0.000140011
-0.000140485
4.9042e-07
-6.09842e-06
-0.000155098
-0.000172217
2.64097e-05
0.000145808
-3.08953e-05
-0.000141322
-2.16385e-05
-0.000151721
-6.18242e-05
0.000152293
-0.00019058
0.000102245
8.83347e-05
-0.000159315
0.000137895
2.14201e-05
0.000139099
9.05039e-07
0.000152477
-0.000144644
-7.82235e-06
-0.000180836
0.000159197
-0.000155686
-1.008e-07
-0.0001532
0.000155703
-2.50321e-06
-9.32572e-05
-9.73228e-05
9.10228e-05
-0.000162893
7.18707e-05
-8.73603e-07
-0.000165598
-5.51042e-06
-0.000162725
0.000155691
-6.33427e-07
-0.000160189
6.98883e-06
0.000137935
-0.000173303
3.535e-05
-3.7479e-05
0.00014785
4.6046e-06
0.000130194
-0.000156957
2.68884e-05
-0.000163616
3.42721e-06
0.000144246
-1.39513e-05
0.000146031
1.22243e-05
-3.05821e-05
0.000158156
-0.000151898
-6.23638e-06
-1.21419e-05
0.000149657
-0.000137507
0.00016333
-0.00016333
-0.000194527
9.20249e-05
0.000102047
-7.81943e-05
0.000147302
-7.05933e-05
-0.000138336
-4.61262e-06
0.000143067
-0.000162379
-3.67858e-06
-9.4804e-05
-5.66807e-05
0.000157629
8.98972e-05
5.56418e-05
-0.000145539
0.000110003
-0.000123307
5.19122e-06
0.000156005
-0.000161197
0.00014073
3.46125e-05
0.000135224
-0.000171289
3.60702e-05
-3.38403e-05
-0.000172822
0.000153351
-0.000155031
0.000155031
0.000105656
6.2345e-05
0.000169604
-3.43742e-05
-2.73673e-05
-0.000153469
0.000136219
9.6634e-05
-0.000158712
6.20779e-05
-5.71514e-06
-0.000158323
0.0001638
-1.35177e-06
0.000147893
-0.000146416
0.000126581
-0.000153859
2.73247e-05
0.000142207
-1.56708e-05
0.000166993
-0.000168387
-0.000140482
0.000145673
-0.000101373
-7.4787e-05
-7.95069e-05
0.000139183
-6.45944e-05
-0.000156663
3.41362e-06
0.000157092
-0.00016286
5.86483e-06
-8.42523e-05
0.000171663
0.00016362
1.51727e-06
0.000162634
9.87451e-07
-0.000183601
8.6625e-05
9.75035e-05
4.73426e-05
0.000138265
0.000162349
2.8923e-07
9.55735e-05
-0.000139872
4.43071e-05
0.000161869
5.66162e-06
0.000143353
-4.77763e-05
4.6721e-05
0.000133418
-0.000168768
3.53511e-05
0.000159847
0.000168154
-3.47371e-05
0.000162328
-2.72199e-05
-0.000135233
-0.00014747
-3.65976e-06
0.00015112
-0.000183054
0.000106428
7.66251e-05
0.000142955
1.39875e-05
-3.03627e-05
-5.61122e-05
0.000154275
0.000169443
-0.000169428
-0.000140062
0.000140701
0.000146833
-0.000145337
-9.5299e-05
0.000163724
-6.51893e-05
-2.73841e-06
-0.000157921
0.000131553
-0.000167236
3.56958e-05
-0.000150848
0.000154594
-3.74641e-06
0.000166639
-3.50608e-05
-0.000157662
0.000157631
0.00015758
4.74291e-06
3.72961e-06
-0.000149487
0.000145757
-0.000151303
0.000145677
-0.000127056
-1.05216e-05
0.000137683
-0.000157181
6.33362e-06
-0.000135405
-4.81542e-05
0.000123877
-0.000146965
0.000175941
-1.55764e-05
0.000157966
-7.46385e-07
-0.000154325
-2.85601e-06
0.000158895
-0.000158895
0.000129701
-0.000165749
3.60547e-05
0.000165096
-3.54249e-05
0.000120377
-0.000146913
2.63342e-05
0.00013706
-1.70549e-05
-9.19636e-05
-9.109e-05
-0.000162356
6.1337e-05
-0.000152259
-2.06641e-06
9.16904e-05
7.70827e-05
0.000151687
6.57214e-06
0.000141026
1.2549e-05
-3.02608e-05
-0.000152746
0.000140113
1.26336e-05
0.000173645
-0.000166993
-0.000134216
0.000149
0.00014378
-0.000156797
1.30073e-05
0.000147286
-6.08162e-06
-0.000141205
0.000127768
-0.000164134
3.641e-05
0.000163542
-3.57322e-05
-5.49362e-06
-0.000153821
-0.000148392
0.000154253
-5.74665e-06
9.40804e-07
-0.000151738
0.000182061
-3.50365e-05
-7.20891e-05
0.000160642
3.81889e-07
-0.000175166
2.86626e-05
-0.000136574
-1.5265e-05
0.000149117
-6.82083e-06
-0.000142297
0.000133151
3.64642e-05
0.000156005
-6.51003e-05
-3.56182e-05
-0.00015787
0.000143338
1.45321e-05
6.99261e-06
-0.000143529
-0.000201937
0.00011792
8.40171e-05
-0.000149437
4.95602e-06
0.000144481
-9.15268e-05
-0.00011041
5.56082e-06
0.000141793
-0.000147353
-0.00015026
6.95523e-06
0.000143305
-1.04328e-05
-0.000139827
-0.000156308
0.000145875
0.000125797
-0.00016253
3.67437e-05
-0.000150663
3.86402e-06
0.000146799
0.00015026
-6.43443e-06
-0.000143825
-5.12402e-06
0.000149504
-0.00014438
0.000145136
0.000161839
-3.60965e-05
0.000151889
-6.58563e-06
-0.000145304
0.000158695
-1.13964e-06
-0.000159955
-1.69009e-05
-0.000155921
-6.70323e-06
0.000151553
-0.00014485
8.76627e-05
5.83298e-05
-0.000145993
-0.000148363
5.55539e-05
-7.96433e-05
-8.50687e-05
-0.000165611
3.85317e-05
0.000131204
3.69362e-05
6.05806e-06
-0.000149
-3.6038e-05
7.39203e-06
0.000139894
-0.00014144
1.05e-05
0.00013094
0.000123806
-0.000160944
3.71719e-05
-7.35206e-06
0.000165278
0.000150411
-5.94722e-06
-0.000144464
-0.00015475
-8.15773e-06
0.000160372
-3.64951e-05
-9.84425e-05
0.000141538
-4.95547e-05
0.000167009
-1.49521e-05
-0.000152057
0.000178176
-3.13232e-05
-0.000156465
0.000152686
3.87346e-06
0.000156619
-0.000156574
-0.000162272
9.60964e-06
0.000152662
-6.38195e-06
0.000152581
-0.000145789
-8.56635e-05
0.000154258
0.000112195
-0.000138203
2.59717e-05
-2.01374e-05
0.000132394
1.40545e-05
0.000156459
-5.64409e-06
0.000149543
-0.000143898
-1.45489e-05
0.000129529
-0.00011498
0.000176871
-0.00010458
-7.22907e-05
3.30961e-06
-0.000149974
0.000146665
3.20881e-06
-0.000155468
0.000154342
-0.000154342
-0.000145371
0.000147219
-1.84801e-06
0.00015089
-0.000156345
5.46476e-06
-0.000134333
0.000135257
1.01713e-06
0.000149943
-0.00015088
2.40241e-06
-0.000149873
0.000147471
8.22451e-05
7.72741e-05
-0.000157663
-1.66321e-06
0.000157366
-0.000152175
-1.94881e-06
0.000154124
-0.000151894
-1.74753e-07
0.000149017
-0.000146614
0.000137441
4.3781e-05
0.000121934
-0.000159454
3.74836e-05
-6.60579e-05
-7.39035e-05
0.000139961
0.000129278
3.73747e-05
-0.00017551
0.000109452
0.000150021
-5.33872e-05
-4.19455e-05
-3.64641e-05
-0.000184885
0.000105504
7.93803e-05
-8.72336e-05
0.000168135
-7.87263e-05
8.46505e-05
8.13661e-05
-0.000166017
-9.28036e-05
0.000158105
-0.00015278
0.00014527
7.50963e-06
-0.00015404
1.26e-06
-0.000148686
-3.06168e-06
0.000151381
5.44042e-06
0.000166524
-0.000142145
-4.03202e-06
0.000146177
-0.000132586
0.000118037
0.000109433
-0.000137669
0.000136544
-0.000146984
5.20802e-07
0.000145405
-0.000145925
6.32311e-05
-0.000149581
-9.75748e-05
-8.73099e-05
5.52481e-06
0.000146222
-0.000152129
-0.000156821
-7.96989e-06
-0.00018806
0.00010915
-3.81361e-06
-0.000158458
0.000156547
-0.000156456
-0.00013094
0.000157635
-0.000144732
0.000143534
3.62768e-07
0.000151316
-0.00015125
-3.20377e-05
-0.000122993
7.98199e-05
-0.000176739
-4.50074e-05
0.000150663
-0.000147699
-6.59115e-06
0.000154162
2.34659e-07
0.00011971
-0.000119503
6.66255e-06
-0.000151134
0.000144472
0.000127242
3.78153e-05
0.000146696
3.47895e-06
-0.000150203
0.000149605
-8.06403e-07
-0.000148798
-4.63805e-06
0.000151435
0.000146194
-0.000150813
-3.68856e-05
-0.000147219
-3.44401e-06
-5.38677e-06
0.000151069
-0.000161768
0.000167211
-0.000147118
0.00014821
-1.092e-06
5.56082e-06
0.000143456
0.000143691
5.81282e-06
-0.000147572
4.53602e-07
-7.98717e-05
-6.19379e-05
0.000145333
-0.000176471
3.82134e-05
0.000119313
-0.000118448
-3.63257e-06
0.000117988
-0.000158688
4.07362e-05
0.000157371
-0.000151641
-5.64843e-06
-2.67378e-06
0.000158215
0.000156035
-3.80052e-05
5.35656e-05
-0.000146862
0.000113452
-0.000133775
2.05769e-05
-2.1889e-05
0.000135301
-0.000153149
0.00014107
1.20792e-05
0.00013976
-1.2348e-05
-0.000152511
0.000158257
-8.00859e-05
-5.3217e-05
0.000127068
-0.000152477
0.000146967
-3.9066e-06
-0.000140617
-9.34301e-05
-8.97197e-05
-0.000118636
1.34991e-06
0.000117346
-0.000142887
0.000139145
6.58806e-06
0.000146762
-0.000152961
-1.50647e-05
-0.000134209
0.000149617
6.13783e-06
0.000147614
-0.000153581
0.000178467
-8.72427e-05
-9.12244e-05
7.62723e-06
0.00014149
0.000125306
3.82193e-05
-0.000154436
3.21192e-06
0.000151782
-0.000144332
5.97765e-06
-3.72492e-05
0.000116811
-0.000155246
3.83942e-05
-4.34988e-05
0.00011068
-0.000130772
2.02073e-05
-0.000142896
0.000130414
-0.000142767
-6.66963e-06
-2.27546e-05
0.000133961
6.66947e-06
6.71835e-05
0.000109688
0.000159903
-0.000156593
0.000151033
-1.42801e-06
-0.000147796
6.63489e-05
0.000149319
-5.02322e-06
-0.000144296
-0.000151691
0.000163354
0.000138869
-0.000116844
1.41121e-06
-0.000141473
5.64765e-06
-0.000152102
0.000146061
-4.04882e-06
0.000158643
8.61507e-05
8.06235e-05
-0.000166774
0.000101953
8.04455e-05
-0.00018145
-0.000125731
-7.92698e-06
0.000133559
-3.38088e-06
-0.000149553
0.000152602
9.76084e-06
0.000153569
-0.000153721
0.000149434
-0.000153185
0.000151873
-0.000153956
2.08321e-06
-3.5967e-06
0.000152516
2.04431e-06
0.00014952
-0.00015157
0.000150351
-0.000154538
-0.000160558
-9.31407e-05
0.000165523
-7.35638e-05
-9.25293e-05
0.000166368
-7.39317e-05
-0.000180382
4.94426e-05
0.000150025
-0.000146587
-2.02509e-06
-0.000149986
0.000151959
-1.68841e-05
0.000162406
-0.000145522
0.000166069
-0.000103774
0.000123284
3.8556e-05
-0.000144397
4.48562e-06
0.000139911
0.000100938
-0.000168481
6.80681e-05
0.000150043
7.38413e-06
-0.000152175
-0.00017929
0.000104211
7.50795e-05
-3.7612e-05
0.000144061
-0.000140331
-0.000152158
-1.69681e-06
-0.000143034
0.000147594
-4.55954e-06
3.56497e-06
-0.000146599
-0.000138128
0.000124643
1.37041e-05
-0.000152019
0.000152173
-1.54561e-07
-0.000149843
-2.17561e-06
0.000114702
-0.000155836
4.1107e-05
-0.0001514
-2.57839e-07
0.00015311
-3.84416e-05
-0.000163583
9.99395e-05
-0.000154191
0.000149603
4.5881e-06
-0.000154796
6.04802e-07
-0.000149798
0.00014988
-8.23203e-08
-0.000150193
3.94802e-07
-0.000153855
-0.000152225
0.000147303
4.92242e-06
-0.000152897
1.1508e-05
0.000141389
0.00015388
-0.000146747
-0.000118459
-3.0598e-08
-0.000152696
5.79602e-06
0.0001469
-0.000143573
-3.91442e-06
0.000147488
0.000118575
3.29281e-06
0.000141994
-0.000145287
-0.000147353
-3.19201e-06
0.000150545
-0.000149403
3.14161e-06
0.000146261
-8.47386e-05
-0.000110129
5.60277e-06
0.000156291
-6.52683e-05
0.000151753
6.25304e-06
0.000143657
2.23441e-06
-0.000145892
1.176e-06
0.000147404
-0.00014858
-0.000136553
0.000154342
-6.44451e-05
0.000151906
-7.19043e-06
-0.000144716
-0.000150865
2.21761e-06
0.000148647
0.000121539
3.88806e-05
-0.000148699
7.39203e-07
0.00014796
0.000141994
2.45281e-06
-0.000144447
-3.79582e-05
0.000154309
-2.6369e-06
-0.000147159
-3.78725e-06
0.000151057
9.12244e-06
5.2292e-06
-0.000152346
-0.000145197
0.000150497
5.35777e-06
-0.000150614
-0.000162294
0.00016046
0.000150562
-4.92242e-06
-0.00014564
0.000113208
-0.000152299
3.91192e-05
-4.36667e-05
0.000160056
-0.000160116
-0.000157976
0.000155057
2.93214e-06
-0.000148781
2.83921e-06
0.000145942
-8.88555e-05
-9.92044e-05
-0.000144709
0.000124344
0.000149621
-0.000148697
-9.24004e-07
-0.000155146
7.66825e-06
-0.000155084
6.06663e-05
-0.000144783
-5.09042e-06
-0.000150806
0.000147145
5.53379e-06
0.000139851
-0.000145383
-0.000151133
5.59442e-06
0.000145539
0.000165799
-0.000181047
0.000157954
-0.000150327
0.000145421
-0.000152007
-0.000154803
0.000154592
-3.92207e-07
0.000149558
1.41039e-06
-0.000151451
0.000147437
-0.000154141
0.000150125
0.000152757
-0.000152892
-0.000151422
0.000152039
-6.16559e-07
-0.000149877
-1.54561e-06
-0.000154245
0.000152221
2.03439e-06
-0.000152847
-1.39614e-06
-0.000166701
0.000152394
1.42897e-05
-0.000153439
-1.32967e-05
-0.000165916
0.000152581
1.33289e-05
-0.000153453
-1.24759e-05
0.000170892
-0.000111774
2.35786e-06
-0.000148217
0.000145985
-0.000165828
0.000152608
1.32216e-05
-0.000157225
7.64498e-05
7.81935e-05
-0.000153507
-1.23194e-05
-0.000165726
0.000152566
1.31696e-05
0.000151301
0.000154357
-0.00013473
-1.98511e-05
0.000113984
1.74989e-05
-0.000131157
-0.000153474
-1.22438e-05
0.000152377
-0.000165546
0.00015265
1.28726e-05
0.000155686
6.72003e-06
-0.000153478
-1.20893e-05
-0.000177286
4.03941e-05
-0.000149572
5.16883e-06
0.000144226
-0.000165308
0.000152721
1.25822e-05
-8.85363e-05
-6.84267e-05
0.000156963
-0.0001536
-1.17303e-05
0.00013454
-0.000138481
3.93552e-06
5.61122e-06
-0.000144598
0.000138987
-0.000165083
0.000152841
1.22253e-05
-0.00014648
-7.56003e-06
-0.000153674
-1.1423e-05
1.37761e-06
-0.000147857
-0.00012694
-1.11822e-05
6.97539e-05
-0.00015829
-0.000145114
-6.45701e-06
0.000128512
-1.44603e-05
-0.000144766
0.000151453
-6.68643e-06
-0.000147757
2.99041e-06
-0.000164751
0.000152835
1.1928e-05
-0.000153726
-1.10403e-05
-6.23282e-06
0.000146614
-0.000140381
4.3646e-06
0.000145994
-0.000150847
-0.000163685
0.000152058
1.16099e-05
-0.000153783
-9.93858e-06
0.000149204
-0.000152742
3.64933e-06
-3.42721e-06
0.000162322
-0.000160558
-0.000164017
0.000152873
1.11661e-05
0.000113838
-0.000154157
4.0247e-05
-0.000153723
-1.03481e-05
4.09922e-06
-0.000144447
0.000140348
0.000129234
1.84756e-05
-0.000163677
0.000152819
1.08588e-05
0.000144111
-9.37646e-06
-0.000134527
-0.000153724
-9.99878e-06
0.000151123
-3.7464e-05
-2.9381e-05
3.49441e-06
-0.000144413
0.000140919
0.000146799
-0.000150797
3.99842e-06
-1.68001e-08
0.000146816
-0.000163473
0.000152852
1.05809e-05
-0.000153693
-9.73567e-06
-0.00016238
0.000138998
2.34841e-05
4.97282e-06
-0.000144665
0.000139693
5.99762e-06
-0.000145808
0.00013981
-0.000162109
0.000151945
1.02696e-05
2.69725e-06
-0.000142316
0.000139426
-0.000153492
-8.53737e-06
-8.6282e-06
0.00014539
-0.000151721
-4.58642e-06
-0.000161496
0.000151865
9.67775e-06
-0.00015344
-7.98032e-06
-0.000148781
0.000149655
-8.73603e-07
-0.000148496
0.000151301
-2.80561e-06
-5.71202e-07
7.78039e-05
-0.000144985
-4.20002e-07
-0.000148076
-0.000149904
0.000147829
0.000152778
-0.000151428
-1.23786e-06
-8.18661e-05
-8.27108e-05
0.000149067
-0.000161598
0.000152523
9.00992e-06
9.24004e-07
0.000145489
-0.000146413
-0.000153377
-8.18536e-06
-4.87202e-07
-0.000145892
0.000146379
-5.77922e-06
0.000144917
-0.000139138
-8.67826e-07
-0.000148812
-0.000150462
0.000149817
-0.000161063
0.000152521
8.59025e-06
-0.000153211
-7.78457e-06
-0.000149054
-3.75198e-06
0.000152606
-0.000149358
8.82361e-07
0.000148712
-0.000159752
0.000151625
8.19711e-06
-0.000147323
-0.00015319
-6.59071e-06
-0.000154107
0.00015661
-2.50321e-06
-1.80662e-06
-0.000154531
-0.000159829
0.0001523
7.61676e-06
-0.000153022
-6.78721e-06
-0.00014984
2.94001e-06
-4.78837e-06
-0.00015925
0.000152178
7.10623e-06
-0.000153061
-6.30362e-06
-6.76334e-05
-9.02954e-05
8.40003e-08
0.000146278
-0.000146362
-0.000147471
0.000147555
0.000146009
-0.000144598
-0.000159056
0.00015212
6.74509e-06
-0.000147219
-4.15623e-06
0.000151538
-0.000153101
-5.98272e-06
1.4108e-05
0.000125072
-0.000139025
-0.000164652
0.000162972
-0.000150063
5.07131e-06
0.000144759
-1.01312e-05
-0.000158359
0.000152094
6.34924e-06
-0.000152796
-5.49863e-06
0.000147053
5.99813e-06
-0.000157944
0.000151919
5.83374e-06
-0.000152907
-5.05375e-06
5.28523e-07
-0.000148981
0.000135531
-0.00015238
0.000154739
-2.35873e-06
-0.000109149
-5.63999e-05
0.000165536
-1.13684e-05
0.000110664
-0.000150467
3.98806e-05
7.57683e-06
-0.000160474
0.000129135
-2.76978e-06
-0.000126532
-4.30907e-05
-0.000141611
7.57566e-06
0.000134248
-7.69025e-06
-0.000150812
-8.39682e-05
-7.84005e-05
0.000163537
-0.000151127
0.000151995
-8.68563e-07
-0.000153223
8.43363e-07
-1.24656e-06
0.000115883
4.01631e-05
0.00014648
-0.000145556
-0.000152308
0.000153195
-8.87043e-07
0.000145993
0.000123296
4.01522e-06
-0.000127311
-1.34401e-07
-3.937e-05
0.000133544
-1.0248e-05
0.000153879
8.60163e-07
-9.17284e-07
-1.98449e-06
0.000142599
-5.20453e-06
-0.000137078
0.000153939
-2.06641e-06
-2.02122e-06
0.000154646
7.80631e-05
9.28325e-05
-0.000169407
9.97443e-05
7.00756e-05
-0.000111536
-6.88467e-05
-1.90009e-05
0.00015283
-6.19922e-06
-0.000146026
-0.000156308
-0.000161091
7.94124e-05
-0.00014354
0.000144716
0.000149627
-0.000144516
4.53602e-06
-0.000145329
-4.7965e-06
0.000150209
0.000169456
-6.91939e-05
-0.0001456
-3.85131e-06
0.00014951
7.75217e-06
-0.000143143
0.000135542
-0.000146967
1.59601e-06
-0.000154207
5.14543e-05
0.000143107
-0.000119441
-7.43722e-06
0.000150449
-0.000142943
-1.03656e-05
-0.000142011
0.000152377
9.45172e-05
-0.000161348
6.68307e-05
0.000141641
-0.000147874
0.000151251
-0.000133846
-0.000197149
0.000116542
8.06067e-05
-0.000146158
-4.32065e-06
0.000150553
3.8459e-06
-0.000149163
-0.000170069
8.27136e-05
0.000122006
8.11099e-06
-0.000130159
0.000133552
-1.15343e-05
-7.44243e-06
2.74808e-06
-0.000157417
1.07352e-05
5.65143e-06
-0.00015124
0.000147632
-0.000151049
3.42464e-06
0.000142247
-0.000147891
4.7872e-05
-0.000157204
0.000144173
5.36222e-06
-0.000155098
0.000151369
3.72929e-06
0.000154877
-0.00015927
-0.000152528
-1.42801e-06
4.31455e-06
-0.000150486
-8.17287e-05
0.000125342
-4.36448e-05
-3.00561e-06
-0.000147243
0.00014973
0.000120708
1.71865e-05
-0.000137895
0.000151716
-0.000145455
0.000107569
-0.000149229
4.16548e-05
0.00013519
-1.44817e-05
-7.79525e-06
-0.000149078
0.000143087
-0.000144302
0.00013892
-0.000149285
0.000146006
-3.85102e-05
-1.26066e-05
-0.000126136
0.000138201
-0.000146396
0.000146917
-8.73603e-05
0.000170521
-8.31603e-05
-0.000162779
0.000154036
8.75708e-06
-1.07159e-05
0.000147613
-0.000145172
-8.95275e-05
-8.97627e-05
0.000126722
-0.000139827
-1.32744e-05
0.000139653
0.000144379
-9.81924e-05
-9.4561e-05
0.000165691
-7.32882e-05
0.000146261
-0.00015924
4.98561e-06
0.000161636
-1.05369e-05
-0.000124698
4.30435e-05
-2.0565e-06
0.000136578
6.21602e-07
0.000153721
-0.000158391
7.40883e-06
0.000149302
-0.000156711
-0.000161245
0.000153706
7.44457e-06
-9.26101e-06
-0.000148504
-1.37257e-06
2.85732e-06
0.00013833
-0.000141185
-0.000152477
0.000126599
1.9396e-05
-0.000160421
0.000153501
6.80255e-06
-0.000176933
3.70811e-05
0.000145285
-0.000142426
-8.65683e-06
-2.92185e-05
0.000153648
-6.24084e-06
-5.50394e-06
-0.00014673
0.000152743
0.000153166
-6.55035e-05
-0.000154274
5.02238e-06
-0.000147733
0.000141717
0.000131983
-2.90066e-06
0.000146336
7.34412e-06
-0.000142662
0.000135054
-0.000158919
0.000153515
5.42381e-06
-0.00014312
9.74404e-07
0.000142801
-7.18961e-06
0.000163582
-0.00010794
-0.00014312
-6.72003e-06
0.000148494
-0.000143615
0.00015176
-5.70416e-06
0.0001532
-2.78881e-06
0.000104117
-0.000144202
4.02001e-05
6.07545e-06
0.000136773
-0.000142756
-0.00014696
0.000150923
0.00016005
-0.000149821
0.00014421
-4.00985e-05
4.71475e-06
-0.000143435
0.000138369
-6.3287e-06
0.000143636
-0.000137379
9.15219e-06
0.000133397
-0.000142544
-0.000134605
0.000143721
0.000183625
-0.000145371
-3.82537e-05
1.06008e-05
-0.000145337
0.000134737
-0.000160714
0.000162567
-4.60702e-07
0.000145069
-0.000134468
6.57723e-05
0.000117852
0.000153972
-4.9575e-06
4.52814e-06
-0.000143882
0.000139559
5.50712e-06
-0.000143754
0.000138016
1.22808e-05
0.000136131
-0.000148412
1.34401e-06
0.000145875
-0.000147043
-0.000156257
0.000142773
-0.000141636
0.000156612
-4.91412e-06
-3.59952e-06
0.000145011
-0.000151696
0.00015852
-0.000158523
0.00014891
-0.000154393
1.91521e-06
2.3488e-07
0.000151906
-3.52801e-07
-2.85042e-06
-0.000145392
0.000146456
-0.000145407
-3.94606e-06
0.000125342
-0.000139121
-0.000145976
0.000139155
0.000112856
4.00908e-05
-0.00014989
0.000148899
9.91204e-07
0.000154423
-0.000151143
-3.49827e-06
0.000151401
2.91747e-06
-3.95147e-05
0.00014821
-2.80561e-06
0.00015416
-0.000151014
-3.08487e-06
-0.000153156
0.000151231
2.16223e-06
0.000151532
2.51588e-06
1.33225e-05
0.000140566
-0.000153889
-0.00012842
0.000141742
1.54897e-05
-0.000143909
-0.000141809
0.000135728
-0.000150486
-2.65815e-06
-9.02389e-06
0.000116156
-0.000134081
1.79257e-05
-5.04818e-07
0.000149837
0.000144481
-0.000138277
0.00014266
0.000122758
-6.60243e-06
-0.000144712
-0.000102002
0.000129521
-2.8055e-05
0.00015093
-8.11295e-06
0.000145976
-0.000133695
0.000102195
-0.000142241
4.01241e-05
0.000142576
-4.02381e-05
0.000113792
-0.000128769
0.000159972
-9.07561e-06
3.49105e-06
-0.000136836
0.000142331
-1.07418e-05
-0.000148806
0.000142398
-0.000153679
5.3489e-06
-0.000142164
-0.000148471
-1.72201e-06
1.13232e-06
0.000147133
-0.000125944
0.000140232
6.40082e-06
0.000136635
-0.000143036
0.000142532
-8.15417e-07
-0.000149118
-0.000130395
-8.57141e-06
-4.62903e-06
-0.000152402
-0.000151173
1.05686e-06
9.24004e-07
0.000144632
-0.000145556
-0.000148094
-5.12906e-06
0.000156123
-0.000156123
5.1005e-06
-9.01828e-05
-0.000106966
-0.00014843
-1.41289e-06
-0.000162517
-8.36643e-07
-7.22379e-05
-9.68137e-05
6.9471e-06
-0.000151636
-0.000133687
-0.000157431
-3.01848e-06
0.00012597
-0.000140443
1.44388e-05
-0.000125051
-1.34751e-05
0.00013889
0.000126158
1.23915e-05
-0.000138486
-0.000150191
0.000150166
-0.000153857
0.000154168
-7.90097e-07
1.70975e-05
-0.000119372
-0.000142107
1.55881e-05
-0.000160743
7.07186e-06
-0.000160889
7.26929e-06
-0.000161024
7.53312e-06
-0.000160506
6.74914e-06
-8.017e-06
-0.000154544
1.79761e-06
-0.000155142
7.56032e-05
-8.25668e-06
-0.000161049
7.57869e-06
-7.68008e-06
0.000149026
-8.45651e-06
0.000147288
-0.000156973
9.67146e-06
-0.00016025
6.47416e-06
-8.44201e-06
-0.000182331
0.000102128
8.02035e-05
-0.000161099
7.59373e-06
-7.39244e-06
-8.51849e-06
-0.000146497
0.000150579
-4.08242e-06
-0.000159821
6.04073e-06
0.000151721
-0.000163673
1.18939e-05
-0.000161029
7.57328e-06
-8.62969e-06
-5.78354e-06
-0.000152396
-1.20256e-06
0.000158996
-0.00014978
-9.22556e-06
-0.000159502
5.78569e-06
-2.74936e-07
-5.96402e-06
-0.000148911
-3.93638e-06
-6.59554e-06
-0.000152998
-1.1088e-06
-0.000159174
5.53102e-06
3.12821e-06
-0.000164792
7.74315e-05
0.000137441
-0.000143876
9.88415e-05
-0.000140893
4.21686e-05
-6.31532e-06
3.15841e-06
0.000149605
-2.87281e-06
-0.000147101
-4.70402e-07
-0.000158683
5.16516e-06
0.00014898
-0.000143653
3.84721e-06
-0.000146967
4.20002e-06
-1.51201e-06
-5.97058e-06
-4.805e-05
1.27414e-05
0.000126736
-0.000139392
-0.000158018
4.61642e-06
2.21761e-06
-0.000138174
-1.69134e-06
0.000140074
-4.35581e-06
-0.000157312
4.01645e-06
-3.78839e-06
0.000164669
-0.000156837
3.63842e-06
-4.44957e-06
-0.000156534
3.20677e-06
1.73041e-06
-0.000150428
1.23963e-05
-0.000135459
-4.07019e-06
7.15683e-06
-0.000144716
0.000137559
-0.000155822
2.65576e-06
0.000153534
4.69349e-07
-0.000137391
0.000144548
-0.000148748
-1.1424e-06
-2.44366e-06
-1.87807e-06
-0.000140672
0.000142323
-0.000127719
-1.19176e-05
0.000138958
-0.000155405
2.2605e-06
-3.06758e-06
-0.000154864
1.8415e-06
0.000125145
1.91022e-05
-2.5749e-06
-0.000126069
-1.32533e-05
0.000139528
-0.000154156
1.39607e-06
0.000147958
0.000151749
-4.4005e-06
-2.91002e-05
-2.12852e-06
-1.57855e-06
-0.000151219
-0.000148272
0.000148193
-6.89689e-06
-0.000153848
9.87419e-07
-0.000153146
0.000151762
1.56739e-06
-0.000150971
-2.15034e-06
1.9527e-05
-0.00013278
0.000112298
-1.67259e-06
-0.000152825
1.35805e-06
-1.14053e-06
-7.01557e-05
-9.64822e-05
0.00016695
-1.18105e-05
-0.000128879
0.000140086
0.000129614
-0.000137593
8.33099e-06
-0.000152864
3.36001e-07
0.000128029
-0.000140599
-6.55203e-06
0.000145808
-0.000139256
1.11038e-05
-0.000139849
-1.465e-05
0.000141507
1.12038e-05
0.000128335
-0.00013939
-9.2014e-05
0.000178165
-0.000145036
-0.000157113
0.000160217
-2.85781e-06
5.44322e-06
0.000142935
4.32379e-06
0.00014506
-0.000149268
3.52396e-06
0.000146069
-0.000149767
0.000151902
-0.000165812