/*--------------------------------*- C++ -*----------------------------------*\
  =========                 |
  \\      /  F ield         | OpenFOAM: The Open Source CFD Toolbox
   \\    /   O peration     | Website:  https://openfoam.org
    \\  /    A nd           | Version:  12
     \\/     M anipulation  |
\*---------------------------------------------------------------------------*/
FoamFile
{
    format      ascii;
    class       volScalarField;
    location    "6.74";
    object      T;
}
// * * * * * * * * * * * * * * * * * * * * * * * * * * * * * * * * * * * * * //

dimensions      [0 0 0 1 0 0 0];

internalField   nonuniform List<scalar> 
22702
(
1
1
0.961619
1
1.01739
1
1.12063
1
1
0.886533
1.12067
1.12156
1
1.11841
0.969737
1
1
1
1.1207
1
1.11871
1
1.11806
0.893936
1.1189
0.893892
1
1.12062
0.88962
0.896093
1
1.12157
1
1
1
1.1106
1.11887
1.11832
1
1
0.88585
1
1.06248
1
1.12032
1
1
1
1
0.89708
1
0.894061
1
1.12044
1
1.12158
1
1
1
1
0.885787
1
1
0.900961
1
0.896982
1
1
1
0.887217
1
1.11928
1.07602
1
1.11923
1.12588
0.896717
1.12021
0.898485
1
1.12086
0.898124
1.11934
1.11908
1
1
1
1
0.978588
0.887628
1.11984
1
1
0.891205
1
1.11873
0.890208
1
1
1
1
1.06226
1.12058
0.893295
1
1
1.03322
1
0.899025
1
1.12055
1.12047
1
1
0.889603
0.889637
0.887051
1
1
1
1
1
0.975065
1
1.10271
1.01382
1.12047
1
1.12043
1.12105
1.11849
1.12068
1
0.887263
1
0.895331
1
1
1
1
1.12089
1
1
1
1
1.11861
1
1.00744
1
1
1
1
0.897303
1
1.00318
1
0.899678
1
1
1
1.11957
1
1.11855
0.884788
0.886297
1.1201
1.11989
1
1.0213
1.0717
1
1.11967
0.899004
1.11088
1
1
1
1
1.11844
1.0999
1
1.12028
0.907295
1.1203
1
0.901366
1
0.897417
0.89218
0.999934
1
1
1.12071
1
1
1.11851
1
1.11979
1.12024
0.899121
1
1
0.896907
1.11868
1
1
1
1.11855
1
0.893982
1
1
1.11863
1.1184
1.12015
1
1.00001
1
1
1
1.11862
1
0.902381
1.1248
1.11855
1.11844
1
1
1
0.89486
1.11846
1.05734
1
1.11891
0.896054
0.895967
1.11892
1.11852
1
1.11786
0.885894
1.10601
1
1
1
1
1.11841
1
1.06932
1.01267
1
1
1.11837
0.89324
0.933881
1
1.11814
0.889165
1.11858
1
1
1
1
1
1
1
0.894048
0.933782
0.895027
1.11848
1
1
1
1
1.10819
1
0.897135
1
0.889855
0.897022
1.11818
0.896898
1.11869
1
1
1
0.999298
0.900135
0.880213
1
1
0.890684
1
1.12087
0.89156
1
1
1.12089
0.879337
1
1.11689
0.886299
1.11832
1
0.891347
0.999338
1
1
1
0.892964
1
1
1
1
1.00252
1.07604
1
0.900942
1
1
1
1
1
1
1
1.1207
1
1.12134
1
1
1
0.89033
1
1.1185
0.8992
1
1.09936
1
1
1.12052
1
1
1
1.11702
1
1
1.11769
1.12047
1
1.0292
1
1
0.89387
1
1
1
0.894343
1
1
1
1
0.895347
1
1
1
1
1
0.881439
1.00002
1.11918
1
0.999992
1.11971
1.12028
1
1
0.899276
0.940881
1.1207
1
1
1
1.11825
0.887002
1
1.11877
1
1
0.913859
0.906784
1
0.89966
0.892987
1
1
1
1
1
1
1
1.12044
1.03313
1.11506
0.883732
0.974375
1.1215
1
1.11915
1.12058
0.894168
0.930834
1
0.891675
1
1.12483
1
1
1
1
1.11847
1
1
1
1
1
1
1
1.04568
1.11887
1
1.11857
1
1
0.896439
1
1
1
1
1.11866
1.09246
1
1
0.89873
1.11864
1.11856
1
1.11858
1.11859
1.1185
1
0.947338
1
1.11873
0.997625
1.11858
1
0.893777
0.999674
1.12058
1
1
1
1
0.896825
1.11818
1.10873
1
1.11833
1.1183
1.12047
1
1.05941
1.11885
1
1
1.0854
1.01892
1.11859
0.979327
1.11854
1
1.11852
1.11866
1.11839
1.11863
1
1.11427
0.974053
0.964397
1
1
1
1
1.12034
1
1
1
1
1
1.12043
1
1
0.998891
1.1186
1.10846
1
1.09946
1.00001
1
1
1.11839
1
0.999036
1.00123
1
1.11884
1
1.11901
1
1
1.08981
1
1.11913
1.00001
1
1.11877
1
1.11874
1
1
1
1.1184
1
1.11979
1
1.11842
1.12083
1.1187
1.11939
1
1.1205
1.11722
1
0.901042
1.1122
1.08783
1
1.11844
1
0.893202
0.886256
1
1
1
1
1
0.889251
1
1.11859
1.03524
1.11858
1
1
1
1
1
1.11854
1
1.1186
1.07293
0.929227
1
1
1.03645
1.03252
1
1
1.04798
1
0.89793
1.11846
1.11865
1
1
1
1.12072
1
1.00001
1.11864
1.11824
0.988275
1
1
0.895791
1.10857
1
1
1
1
1
1.11865
1.12047
1
1.11865
1.11938
1.11858
1
1
1
1
0.892357
1.12076
1
1
1.10867
1.11842
1
1.11217
1.11922
1
1
1
1
1
1.11883
1
1
1
1
1.11996
1
1.11698
0.888694
1
0.891955
1
1
1
0.999133
0.898705
0.999735
1
1
1
1.01691
1
1
0.964889
1
1
1
1
1
1
1
0.999999
0.978562
1
1
0.999265
1
0.895551
1
1
1
1
1.09053
1
1
1
1
0.900854
1
1
1.11239
1.12072
1
1
1
0.96737
1
1
1
1
1
1
0.991755
1.00603
1.11858
1
1
1
1.11942
0.969245
1
1
1
1.11884
1.12047
1
1
1
1
1
1
1
1
1
0.894325
1
1
1.12002
0.892869
1
1.11977
1
0.89763
1
1
0.894343
1
1
1
1
1
1
1
1.11646
1.11843
1
1
1
1
1.10908
1
1.04135
0.90011
1
1
1
1
1
1
1
1.01359
1
1
1.06803
1
1
1
1.09974
1
1
1
1
0.888744
1
1
0.88778
0.890564
1
1
1.11849
1
1.00463
1
1
1
1.08595
0.888724
1
0.883455
1
0.93537
1
1
1
1.11924
1
1
1.11872
1
1
1
1.1188
1
1
1.11885
1
1
0.894014
1
1.04065
1
1
1.12126
1.12144
1.08244
1.10701
1
0.893861
1
1
1.11383
1
0.883867
1
1
1
1.11835
1
1
1
1
1.07391
1
1.10913
1.11849
0.889763
1
1
0.895898
0.895567
1
1
1
1.08734
1.09209
1
1
1
1
1
1
1
1.05323
1.11968
1.00498
1
1.11729
0.887177
1
1
1
1.06823
1
1.02635
1
1.10909
1.11816
1
0.893627
1
1.12135
1
1
1.11835
1.11209
1
1.12099
1
0.895554
1
1
1
1.1194
1.11641
1.10551
1
1.12011
1.11818
1
1.11864
1
1.11805
1
0.889314
0.991438
0.885673
1
1
1
1
1
1.11851
1
1.11834
1
1
1
1.11302
1
0.894267
1.1184
1
0.894752
0.895701
0.887578
1
1.06255
1.01051
1.11883
1.1182
1
1
1
1
1.11867
1
1
1.11851
1.11835
1
1.04475
1.00002
1
0.999087
1.12033
0.953273
1
0.945409
0.899158
0.89816
0.997338
1.11913
1.11699
1.0251
1.11865
1.11876
1
1
1.122
1.12074
1.11865
1.12086
1
1.11867
0.894104
1.11898
1.1186
1.12044
1.11941
0.961144
0.975096
0.983037
1.11888
0.987487
1.11877
1
1
1.11884
1.11856
1
0.891894
1.11888
1.11877
1
1.11863
1.11852
1
1.11868
0.897795
1.11983
1.12088
1.12065
1.12022
1
1
1
1.11875
1.08026
0.903007
1.11885
0.884949
1.11872
1
1
1
1
1.11842
1.11892
1
1
1.11869
0.887987
1.11876
0.896447
1
1.11772
1
0.886764
1.11897
0.922859
1
1.11821
1.11917
1.11845
1
1
1.05992
1.11912
0.89894
1.11869
1
1.11841
0.965153
1.11852
0.894566
1
1.11834
0.89605
1.11886
0.896841
1
1.11838
1
1.11827
1
1.07194
1.11471
1.095
0.892939
1
1.11858
1
1.11828
1
1.11866
1
1
1.11847
0.995305
1.11926
0.88672
1.10498
1
1.08696
1
1.11885
1.11865
1.11875
1
1.10769
1.11846
1.11077
1.07464
1.11509
1
1.08223
1
1.11839
1
1.01833
1
1.11077
1
1.11837
1.11368
1.11325
1
1.11718
0.890384
1
0.890008
1
1
1
1.12097
1
1.11884
1
1
1
1.11879
1.11732
1.10009
1.11808
1.11916
0.891585
1.11855
1.12016
1
1.10206
1.1185
1.117
1
1.12025
1.12191
1
1.12041
1.11893
1.11881
1.11878
1
1
1
1.11841
0.89523
1
1.1186
1
1
0.884336
1
1
1.11844
1.11847
1
1.11851
1.12046
1.1187
0.993991
1.11837
1
1.11842
1.1182
1.0966
1
1
1
1.11884
1.11858
1.11832
0.983064
1
1.12008
1.11858
1.11851
1
1.11861
1.11849
1.1187
1.12071
1
1.11875
1.11921
1.10484
1.11847
1.12045
1
1.11967
1.11745
1.11826
1.11835
1.11846
0.889185
1.11821
1.11853
1
1.11865
1.11828
1.11867
1.11874
1
1.1184
1.11845
1
1.11876
1.10149
1
1
1
1.11874
1.11931
1
1
1.06794
1
1.11862
1
1
1.11874
1.11891
1.1185
1.1186
1
1
1
1.08611
1
1.11841
1
1
1.12201
1.12109
1
1.11854
0.878409
1.11867
1.11938
0.915091
1
0.8897
1.10498
1.1194
1.11829
1.11826
0.885875
1.11839
1.11882
0.888239
0.888808
1
1.11861
1.1192
1
1
1.11844
1
1.11867
1
1.10492
1
1.05758
1.11884
1.11913
1.08609
1.10835
1.12082
1.11867
1.11255
1
0.886511
1.11954
1.11899
1.11963
1
1
1
1.12105
1
1.11864
1.11854
0.924983
1
1.11853
0.999983
1
1.00001
1.00001
1.11915
1.11876
0.999562
1
1
1.11832
1.11913
1.11857
1.11957
1.11805
0.898371
1.10448
1
1.11778
1.11848
1.11852
1.12099
1
1.11854
1.11549
1.11884
1
1.11884
1.11851
0.95527
1.11872
1.11897
1
1.11868
0.952606
1.11861
0.953571
1.1186
1
1.11861
1.12202
1.11869
1.11859
1.11863
1.12057
1.11866
1.1203
1
0.975472
1.11859
1.11879
0.957315
1.11849
0.99938
1.07626
1.11859
1.11956
1.11919
1
1.11927
1.07812
1.11787
0.979628
1.11911
1.12206
1
0.966872
1
1.11601
1
1.08429
1
1.11328
0.968794
1
1.1185
1.11816
1
1.11874
1.11882
1.11869
1.11734
1.1198
1
1.12084
1
1
1
0.975395
1.11877
1.11871
1.1193
1.11853
1.1182
1.11947
1.11872
1.11885
0.973617
1.00879
1
1
1.12326
1.11873
1.11851
1.1185
1.00001
1.06331
1
1.1201
1.10638
1
1
0.916492
1.11818
1
1
0.89446
1.1185
1
1.11972
1.11856
1.1209
1.11452
1.11859
1
0.893951
1.03058
1.11854
1.11862
1
1.11868
1.11843
1.06011
1.00253
1.02922
1
1.11835
1.11884
1
1
0.888956
1
1
1.11862
1.11861
1.11901
1.11851
1.11867
1.12053
1.11866
1.11777
1.11855
1
0.998936
1.11845
1.11838
0.999198
1.11856
1.11827
0.896436
0.888539
1.11867
1.11868
1
1
1.00021
1.11862
1.11935
1.11847
1
1.1185
1
0.961747
1.12003
1.11924
1
1.05464
1.1188
1
1.11894
1
1.11876
1.08328
1.11952
1
1.11821
1.11928
0.889374
1.11844
1
1.1187
1.11941
1
0.896404
1.11941
1.10419
0.99925
1.11431
1.11826
1
0.998104
1.11815
0.99937
1.11855
1
1
1.11843
1
1.11852
1.11863
0.999052
1.0946
1
1.11848
1
1
1
1
1.11851
1
1
1.11615
1
1.11839
1
1.0779
1.11984
1.11855
1
1
0.998503
1
1.11909
1.11847
1.11859
1.11863
1.11851
1.11876
1.11863
1
1.11874
1.11839
1
1.1187
1.11871
1
1.11918
0.97843
1.01661
1.11865
1.1186
1.11882
1
1.11852
1
1.11847
1.1187
1
1.11866
1
1
1
1
1.1186
0.897114
0.99941
1
1.11841
1.12015
1
1.11852
1
1.00158
0.889779
1.11857
0.999878
1
1.1185
0.999537
1.11835
1
0.999938
1
1.11821
1.11978
1.1188
1.11897
0.897851
1.11861
1.11894
1.11859
1.03023
1
1
1.05465
1.11862
0.893042
0.896002
1
1.11846
1.11848
1.11926
1
1
1.11844
1.11862
0.999964
1
1.08765
0.879283
1
1.0223
1.12058
1.1191
0.9995
1.11866
1.12041
1
0.999676
1
1.11884
1.12022
1.0507
1
1.11188
1
1.00063
1.11899
0.886473
1.11845
1.1183
0.999152
0.999974
1.10191
1
0.999912
1
1.11877
1
1
0.882293
1.11874
1
1
1
1
1.11967
1.07106
1
1
0.884177
1.11864
1.07141
1
1
1
1.11357
1.11446
1.12027
1
1
1.12086
1
1.11855
1.11859
1
1
1.11923
1.11852
1.11433
1
1
1.11922
1.11922
1
1
1
1.11928
1
1
1
1.11881
1.12051
1.11923
1
1.11981
1.00001
0.902373
1.11855
1.11856
1
1.12004
1.11537
1.12089
1
1
1.11961
1
1.06459
1.11866
1
0.894677
1
1.11892
1
1
1.12009
1
1
1
1.03978
1.11853
0.895127
1
1.11856
1
1
1.1189
1
1.11942
1
1
1.11862
1.11868
1
1.00001
1
1
1
1
1
1
1.11864
1.11874
1
1.11966
0.890128
1.11871
1
1.11846
1.12069
1.11871
1.1205
1.121
1
1
1.11966
1
1.07827
1.11925
1.11863
1
1.11882
1.1198
1
1.10665
1
1.11845
1.07919
1.11973
0.999309
1.11717
1.10896
1.11828
1.11883
1.01027
1.11863
1.11915
1
1.11849
1
1.11865
1
1
1
1
0.999117
1.11855
1.11861
1.09869
1
1.11926
1
1
1
0.891903
1
1.11654
1
1.10896
1.11381
1
1
1
1.11577
1.12171
1
1
1.11892
0.891251
1.02367
1
1.11935
1.11857
1.10924
1.11605
1.11883
1
1.11789
1
1
1
1
1.11828
1.11847
1
1.11849
1.01681
1.11863
1.11145
1
1
1.11176
1
1
0.897816
1.08578
1
1
1.11754
1
1.11919
1.10994
1
1.10984
0.891658
1.11863
1.11842
1.11857
1
0.89695
1
1
1
1.11853
1.09704
1
1.11803
1.11869
1
1.11864
1
1
1
1
1.1188
0.999829
1
1.11918
1
1
1.11936
1.11839
1
1.12004
1.02548
1.00001
1
1.11824
1
1.11825
1
1.0038
1.11839
1
1.11858
1
1
1.04085
1.11865
1
1
1
1
1
0.998927
0.892981
0.894452
1.0059
1
1.0075
1
1.00818
1
1.11837
1
1.07748
1
1.11849
1
1
1
1.11847
1
1.09479
1.11829
1
1.06613
1.11836
1
1
1.12084
1.11825
1
1
1.0163
0.89425
1
1.11907
1
1
1
1
1.02161
1.11856
1
1
1
0.893713
1
1.11852
1.11851
1.12106
1
1
1
1
1.06419
1.12225
1
1
1
1.11853
1.11849
1.01756
1
1
1
1.1187
1.11854
1
0.893998
1.11853
1.11843
1.11857
1.11798
1.12007
1
1
1.11701
1.11816
1.11846
0.897836
1.01194
1.1187
1
1
1
1
1
1.11856
0.894273
1
1
1.11819
1.05557
1
1.11742
1
1
1
0.895851
1
1
1.03432
1.1185
1.11871
1
1.11838
1.11994
1
1.0237
1
1.11851
1
1.11841
0.891133
1
1
1
1
1.11857
1.00002
1
1
1
1.11681
1
1
1
1
1.11845
0.895434
1.09714
1.11899
1
1.11842
1
1
1
0.999162
1
1.12024
1
0.938667
1
1
1.00001
1.11835
0.890194
1
1.11959
1
1.11793
1.11851
0.88642
1
1
1.11587
1
1
0.896891
1
1.11613
1
1.11386
0.999814
1.11849
1
1
1
1
1.11918
1
1
1.11856
1
1
1
1
1
1
1
1
1.08037
1
1.04167
1.1184
1
1
1
0.895068
1
1
1
1
1.11935
1.11861
1.01753
1
1
1.11862
1
1
1.11868
1
1
1
1
1
1
1.11816
0.928598
1.11856
1.11913
0.999095
1
1
1
1.07294
1
1
1.119
1.11855
1
1
1
1
0.881942
1
1
1
1.07798
1
1.1187
1.11924
1
1.11897
1
1
1
1.06849
1
1.12038
1
1.11851
1
1
0.998856
1.11846
1
1
1
1
1
1.11851
1.00001
1
0.901051
1.11818
0.905606
1
1.11932
1
0.998868
1
1.11899
1.11866
1
1.12027
0.968676
1.11834
1.12078
1.00001
1
1
0.889249
1
1
1
1.11849
1.07132
1.11853
1
1
1
1
0.999057
1.11807
1
0.891223
1
1
1
1
1
1
1
1.12054
1.11839
1.11897
1
1
0.999098
1
0.997599
1
1
1
0.888547
0.994314
1
0.888018
0.894881
1
1.11869
1.11828
1
1.11929
1.1186
0.890657
1.07877
1
1
1
0.890309
1.11905
1
0.889213
1
1.12007
1.02434
1
1
1
1
1.11857
1.12054
1
1
1.11842
1
1
1.11911
1.11839
1
1.10862
1.11867
1.11917
0.991577
1.11871
1.00229
0.890968
1.09341
1.11843
1
1
1
0.88812
1
0.892051
1.11993
0.992102
1.11851
0.983298
1
1.11855
1.05809
1
1
1.1187
1
1.05099
1.11911
1
1
1.11976
1.11777
0.889975
1.07174
0.999972
1
1.07472
1
1.11802
0.979477
1.12069
1.11793
1
1
1
1
1.11374
1
1
1.11844
0.999902
1.11869
1.09712
1.11881
0.894231
1
1
1
1
1.11866
1.00001
1.1186
1
1.11885
1.11867
1.01663
1.11644
1.04052
1.11898
1
1.08418
0.896941
1.11887
1.11847
1.09576
1.02447
1.12014
1.11839
1.11867
1.11862
1
0.972135
1.01913
1
1.11867
1.05911
1.11868
1.00001
1
1
0.90908
1.11923
1.11956
1.09754
1
1.05002
1
1.11924
1.11979
1
1.11834
1.11918
1
1
1
1.11828
1
1.04989
1.11879
1.08594
1
1.11819
1
1
1
1
1
1
1
1
1
1
0.89359
1
1.1108
0.887
1.07253
0.999588
1.11813
1
1.06567
1
1.07872
1.10235
1
1.00062
1.12003
0.973161
1
1.11907
1.11474
0.981109
1
1.11864
1.11869
1.11888
1
1.11872
1.11879
1.11816
1
1.05642
1
1.00002
1.11871
1
1.11883
1.01879
1.11835
1
1
1.1199
1.119
0.91026
1
1.11863
1.09143
1.11841
1
1
1.11953
1.11888
0.999498
1
1.10925
0.999114
1.11854
1.00001
1
1
1
1
1.05572
1
1.09339
1.11853
1.09105
1.11906
1
1.00057
1
1
1.11891
1
1.11807
1
1
1
1
1
1
1.01609
1.06528
1
1
0.892793
1
1.11965
0.888719
1.12035
1
1.06578
0.999929
1.11881
1.07922
0.893111
1.06789
1.00001
1.11827
1.11855
1
1.07433
1.11808
1.11846
0.999544
1.12062
1.11568
0.891956
1
1
0.9993
1
1.11767
1
0.894749
1.11929
1
1
1.1035
1
1.11852
1
1.11906
1
0.905505
1
1
1.11913
1.11675
1.11807
1
1.11791
1.11864
1.11813
1
1
1.11992
1
0.924279
1
1
1
1.1191
1
1.11835
1.07987
1.11788
1
1.11848
0.999827
1
1
1
1
1
1
0.915972
1
1
1.11856
1
1.12004
1.12032
1
0.892976
0.887919
1
1.11891
1.02153
0.893845
0.882518
1
1.1189
1
1.11786
0.881939
1.00043
1
1
0.999861
1
1
1
0.999976
1.05114
1.11855
1
1
1.11882
1.07348
1
1.105
1.1188
1.11929
1.0515
1.11689
1
1.11849
1
1.11672
1
1.11916
1.11856
0.999077
1.11876
1.11996
1
1
1
1
1
0.977448
1.1204
1.00001
1.00001
0.889576
0.999994
0.889431
0.891293
1
1.11887
1.11837
1.11871
1
1.11852
1
0.893729
1
1
1.11876
0.944693
1.11926
1
1.11896
1
0.998047
1.11865
1
1
1
1.11805
1
1.11799
0.888994
1
1
1.07274
1
1
1.06805
1
1
1.11866
1
1
1
1
1
1.11854
1.11861
1
1.11872
1.11826
0.890175
1.0583
1.11829
1
1
1.10773
0.999714
1
1
1.11827
1.119
1.07949
1
1.11926
0.89115
1.11457
0.999892
1
1.1193
1.00001
1.11804
1.09836
1.09268
1
1
1.11856
0.911135
0.8838
1
1.11874
1
1.1184
1
1.07319
1
1
1.11834
1.07867
0.889607
1
0.999522
1
1
1.00748
1.05108
1.11847
1
1.11991
1
1
1
1
1
1
1.01931
0.891518
1
1
1.0116
1
1
1
1
1
1.1191
1
1
1.11857
1.11822
1.08867
1
1
1
0.953594
1.1197
1.0859
1
1
1
1
1.11865
1
1
1
1.11851
1
1
1.08813
1.12223
1.01455
0.925264
1.11846
1.08742
1.11871
1
1.06307
1
1
1
0.88506
1.00066
0.885909
1
0.88184
0.882716
1
0.890781
1
1
1
1.05652
1
1.11928
1.11925
1.00032
1.05814
1.10111
0.882708
0.9233
0.965347
1
1.11839
1.11993
1.11842
1.1186
1.1034
0.966034
1
1.10406
1
1.1119
1
1
0.999006
1.00298
1
1
1
1.11885
1
0.890129
1
1.11885
0.89986
1
1
1.11859
1
1.11847
0.999889
1
1
1.11853
1.11093
1
1.1225
1
1
1.00431
1
1.05468
1
1
0.889332
1
1
1.11835
1
1.11865
1
1.00001
0.891959
1
1
0.902185
1.00031
1
1.11935
0.890784
1.11981
0.888761
1.11865
1
1
1
1
1
1
1
1
1
1
1
1.11434
1
1.11878
1.12017
0.890795
1
1
1
1
1
1
1.11561
1
1
0.891328
1
1
1.11965
1
1
1.04846
1.10138
0.890612
0.891598
0.897064
0.920488
1
0.998961
0.89468
1.00012
1.11103
0.999133
1
1
1.11869
1
1
1
0.925547
1
1.04594
1
1
1.0526
1.11863
1
0.889723
1
1
1
0.998992
1
1.11896
1.11858
1
0.887432
1
1.06802
0.886782
1
0.97199
1
0.998812
0.881521
1
1
1
0.998791
0.882609
1
0.881321
0.999556
1.06669
1.10705
0.890326
0.893924
1
0.997302
1
0.999633
1
1.11824
1.1185
1
1.00713
1.11872
1.11873
1
1
1.11863
1
1
1.00001
1
1.12061
1
1
1.00519
1
0.999584
0.894751
1
1
1
1
1
1.11959
1.01061
1.00001
1
1
1
1
1
1.00001
1
0.890079
1.02845
0.999595
1.1184
1.11999
1
1.00429
1.11877
1.10641
1
1
0.882382
1.11862
1
1.11985
1
1.11887
1.0846
0.890189
1
0.887711
1.1115
0.99991
1
0.893044
0.888483
1
1
1.10185
1
1
0.885792
1
1
1
1.04186
1
0.889429
1.11812
1
1
1
1
1.11846
1
1
1.11971
1.10724
1
1
1
1.11955
0.886755
1
1.11862
1.11825
1
1.09662
1
1.00001
1
1
1.10937
1.00712
1
0.892829
1.06515
1
1
0.999108
1
1
1.11833
1
1
1.00001
1
1.1193
1
1
1
1
1
1
1
1.05639
1
1.11872
1
1
1.11898
1
1
1
1.11834
1.11995
1.01244
1
0.999345
1
1
1
1
1.1199
1
1
1.1184
0.889358
1
1
1
1
1
1
1.09806
1
1
1.11876
1.11928
1
1
1
1.11874
1.11899
1
0.999927
1.11811
1
1
1
1.00001
0.897017
1.00842
0.998935
0.998794
1
1
0.88041
1.11926
1
0.87757
1
1.11845
1.11418
0.891793
0.999831
1.11859
1.11891
1.1186
1
1
0.976322
1.10827
1.10003
0.8816
1
1
1
1.11885
1.11874
0.888728
0.999209
1
1.11861
0.899895
1
1.11737
0.892697
0.992696
1.00175
1
1.12044
1
1
1
1
1
1
1.00003
1.11132
1
1
1.11997
1
1
1
1.11844
1
0.890705
1
1
1
1.0444
1
1
1
1
1
0.938799
1
0.902431
1
1.11858
1.00001
0.959066
0.960675
1
1.00125
1.0663
1
1
0.887698
1.11855
1.11859
1.11854
1
0.889547
0.883519
1
1.1181
1
1
1
1
1
1.00001
1
0.895137
1.07966
1
1
0.894574
0.996214
1
1
1
1
0.881306
1
0.899735
1
1
1.121
1
1
0.888069
1
1.1184
1
0.883346
1
0.892547
1
1.00225
1.11881
1.12281
1
1
1.12011
1
1
1.02817
0.999137
1
0.999485
1
1.119
1
0.881893
1
1.12066
0.999651
1
1
0.940021
1
0.999736
0.890885
1.1187
1.04744
1
1
0.969074
1
1
1
0.934117
1
1
1
1.11859
1
0.891717
1
1
1
1
0.886708
1.11871
1.11048
0.892185
1
1.11743
1
1
1.11852
1.11943
1.10162
0.888423
0.999385
0.999796
1
1.11832
1
1
1
1
1.11945
1.00001
1
1
1.11985
1
1
1.11883
0.889646
1
1
1
0.891902
1
1
1
0.999609
1
1
1
1
1.09344
1
1.11973
1.11866
1.12052
1.11865
1.11835
1.11827
1
1.11841
1
1.11869
1.11859
1
0.999665
0.887532
1.10335
0.999972
1
1
1
1
0.998328
1
1.01918
1
1
1
0.952831
1.11876
1.11905
1.1185
1.10444
0.999962
1
1.00673
1.1186
0.999419
1.01884
0.999169
0.89166
1
1.00001
1
1
1
1
1
1.11835
0.891531
1.11833
1.11853
0.998639
0.887821
1
1
1
1.1186
0.886651
1.10584
0.89081
1.11878
1.11759
0.8936
1.11858
1.00684
1
1.11898
0.93822
1
0.999628
0.896542
1
0.893989
1
1.11831
1.11847
0.934299
1
1.11913
0.892555
1
0.891165
1
1.11862
1
1
1.11706
1
0.954642
1
0.999908
0.894711
1.11735
0.99985
1
0.889977
1
1
1
1
1.07071
1
1.11866
1
1
1.12166
1
1
1.11868
1
0.895417
1
0.893831
1
1
1
1
1
1.11407
1.07188
1.11843
1
1.11852
1.11077
0.88123
0.892263
1
1
1.11912
1
0.89347
1
0.993683
1
1
1.11866
1
1.11829
0.892585
1.12119
1
0.890515
1
1
1.11786
1.1182
1
1.00001
1
1.12088
1
1
0.895661
0.999838
0.89387
1
1
1
1.11909
1.1184
1.11965
1
1
0.880442
1
1.11844
1
1
1
1.11481
1.11846
1.11864
0.882398
1.11895
1.11853
0.900338
1.11926
1.00001
0.897297
1.00438
1
1
1.11858
0.880736
1.07858
0.881709
1.11851
0.999218
0.891617
1.11891
1
1
1
1
1.11854
1.1198
0.891672
1
1.00001
0.892895
1.00001
1
0.879634
0.884947
1.0861
1.11845
0.999556
1.11847
1
1.11922
0.944061
0.890291
1.11854
1.12177
1
1.1186
1
1
1.11881
1
1.09324
1.11955
1
1
1
1
1.11895
1.1173
1.11812
1
1
1.11821
1.12151
1.11952
1
1.11878
1
1
1
1
1
0.888955
0.956353
0.889962
1
1
1.11866
1
1
1.11856
0.887939
1
1.1188
1.1174
1.11413
0.880088
1
0.881398
1
1.00001
1.11975
1.06208
1.12009
1.10915
1
0.887936
1
1.11936
1.08776
0.893644
1
1
1
0.946512
1
1
1.12125
1
0.895992
1.11852
1
1
1
1
1
1.09777
1.02817
1
1.11864
1
1.11856
1
0.999319
1
1.11838
1.11904
1.11824
1.11918
0.999882
1.12004
1
1.11854
1.11918
1.10227
1
1
0.889593
1.12074
1
1
1.11964
1.11861
1.11841
1
1.11865
1
1
1.00001
1.11931
1.119
1.03541
1.02806
1.11848
1.11867
0.910759
1
1
1
1
1
1.04515
1
1
1.1033
0.897416
0.99999
1
1.11851
0.999974
0.999949
1.01828
1.11069
1.12122
0.980461
1
0.889951
1
0.995993
1.11865
1.11925
1.12045
0.999715
1
1
0.889488
1
1
1.11843
1.01388
1
1
1
1
1
1
1
0.999983
1.11941
1
1
1
1
1
1.07923
1
1.06027
1
1
1.11852
1.12
0.894865
0.999646
1
1
1
0.890793
1.11967
1.11848
1
1
1
1
1
1
1
1
1.1193
1.11767
0.889703
1.01434
0.89588
1
0.884861
1
1.11852
1.03826
1
1
0.904496
1
1.11459
0.94705
0.999051
0.889067
1
1
1.11917
1.00001
0.999204
0.887543
1.11997
1.11987
1
1
1
1
1.11167
1
1
1.11838
0.999704
1.1193
1.00002
1
1
0.896444
1
1
1.11843
0.889196
0.940082
0.895282
1.11886
0.9998
1
1.11874
0.8889
0.887435
1.00589
1
1
1.11984
1.00001
1.05937
1
1
1.11983
0.893959
1
1
1.00004
1.11938
1.00004
1.11562
1
1.00001
1
1
0.907022
1
0.933319
1
1
1.11857
0.895547
1
0.939868
0.943173
1
1
1.11845
1
1
1
1.11798
1.11869
1.00001
1.11994
1.12002
0.94115
1.11847
1.11189
1
1
1.11969
1
1
1
1
1
1.12073
1.11835
1
1
1
1.1183
1.00006
1
0.890436
0.909358
1
1.00001
1.04663
1
1
0.972168
0.885482
1
1
1
1.12003
1.10954
1.11826
1
1
1
1
0.896511
1
1.11317
1
1.11731
0.890937
1.11907
1
1
1
0.878707
1
1.11899
1.00001
1
0.892995
1.04621
1
0.999907
1.12306
0.882237
0.888646
1
1.11975
0.886394
0.890379
1
0.894782
1
1
1
1
0.87831
1
1
1
1
1.1194
1
1.09243
0.889375
1
1
1
0.891031
1.11859
1
1
0.9991
1.11818
1
1.11837
1.11918
1
1
0.917405
0.889301
1
1
0.888873
1.04211
1.0573
1
1
1.12004
0.999241
1
0.999383
1.12043
1
1
1
1
1
1
1.11855
1
1.04552
1.03909
0.912296
1.10584
1
1.11857
1.11872
1
1
1
0.980986
0.899883
1
1.06592
0.999902
1.10481
1
1
1
1
1
1.00189
1.05596
1.11898
1.11852
1
1.11838
1
0.885819
1
0.999186
0.999932
1
0.889144
1
0.894186
1.00001
1.11944
1.12002
0.886432
1.11962
0.895979
0.998886
1.09062
0.890295
1.08651
1
1
0.999551
1
1
1
1.00002
1
0.891627
1
1
1
1
0.999877
1.11853
0.94892
1
1
1
1.01095
1
1
1
1.07197
0.929702
1
1
1
1.01579
1.12104
1
0.885632
1
1.11905
0.972115
0.887841
1
0.885426
1
1
1.11282
0.999491
1.11104
1
1.00248
1
1
1.11869
1
1
1
1
1.02517
1
1.11864
1.11898
1.12029
0.890853
1.11842
0.999179
1.0994
1
1
0.883957
1
1
0.886841
1.11908
1
1
0.999991
1
1
1
0.884616
0.884598
1
1.11898
1
1.0585
1.11848
0.891835
1.10061
1
1
0.883807
1
1
1.11862
1.11857
1.04654
1
1
1.00051
1.11965
0.890969
0.889488
1.11967
1.1187
1.0831
1.05033
1
0.968841
1
1
1
1.11029
1.12007
1.11904
1
1
1.11835
0.88591
1.10848
0.884692
1
0.892256
1
0.88614
1.11841
0.889052
1
0.992006
0.901628
1
1
1
0.956635
1.1099
1.11858
1.11931
1.11882
1
1
1.11996
1
1
1.11837
1
0.87809
1
0.892223
1
1.11948
1
1
1.00799
1.0933
1
0.999683
0.882448
1.11849
1
0.890485
1.02495
1
1
1.09236
1.11838
1.11883
1
1.1189
1.0339
1
1.00684
1.11852
1
1
1
1
1.11857
1
0.89401
1.1186
0.89146
0.893964
0.951105
1.11885
1.04282
1.11853
1
1.11871
0.999319
1.00001
1.11869
1.1201
1
1.11889
1
1.11846
1
1.11971
1
1.00001
0.999995
1.11942
0.888308
0.88966
0.999386
1
1
1
0.889845
1
1.08154
1
0.88442
1
1.05028
1.11836
1.11984
1
1
1.00001
0.999856
1
1.11931
1.11873
1
1.05308
1.11904
0.955114
1.11846
1.00004
0.881579
1.0286
0.879432
1
1
1.02197
1.12042
1
1
1.0153
0.999586
1
0.896139
1
0.939828
1
1.119
1
1
0.887865
1.03126
1.01893
0.999569
1.11826
1.11865
0.928266
0.99945
0.889818
0.881279
0.884976
1
1
1
0.999745
0.914348
0.897971
1
1.11856
0.999927
1.11853
1.11906
1.12033
1.11856
1
0.889376
1.11849
0.88747
1
1.11841
1.11984
0.999062
0.940266
1.11868
1.09013
1
0.884915
1
1
1.11745
1
1.00727
1.11831
1
0.892766
0.891576
1
1
0.881953
0.877644
1.11843
1.00001
1
0.893029
0.873249
1.11874
1.11447
1.11177
1.11951
1.03806
0.992549
1.05242
1.11884
1.09717
1
1.06524
1
0.891635
0.955955
1
0.891794
1.11865
1.00613
1.1189
1
1.11865
1.11966
1
1.11879
1.11857
0.891587
1.11922
1
1.12246
1
0.927135
0.889737
1.11895
1
1
1
0.888343
1.11847
1.11898
1
0.890516
1
1
0.890238
1.00001
0.888633
1.11991
1
0.949481
0.874329
1
1
1.07107
1
1
1
1.02222
0.887608
1
1
1
1.11941
0.89168
1
1.11857
0.896061
0.879604
1
1
1.11845
1
1.11829
1
1.11851
0.896067
1
1
0.888675
0.945098
0.891013
1
1
1
1
1.11881
0.883989
1
0.890818
1
1.11952
1
1
0.979463
1
1
0.947101
0.99991
1.00002
1
0.891338
0.890749
1
1
1
1
0.942234
1.11814
1.1193
1
0.89167
0.883031
0.970644
0.890879
1
0.953093
1
0.893054
0.995139
1
1
0.896844
1
1.11854
1.11425
0.888187
1
1
1
1.11664
1
1.01541
0.945123
1.04095
0.895118
1.04943
0.883652
1
1
0.918486
0.970188
1
1.01623
1
1
0.885679
1
0.98126
1.01518
0.891772
1
1.0985
0.925022
0.964571
1
1
1
0.898208
1
0.889879
0.885173
1
0.959086
0.891217
1.02174
0.923922
0.894991
1.11869
1
1.11834
1.06786
0.917107
1.11846
0.888897
0.999726
1.1195
1
1
1.11888
1
0.916581
1
1.02126
1
1
1.11851
1
0.9298
0.950917
1.12031
0.978558
1
0.916113
1.11859
1.1194
0.969632
1
1.11877
1.03301
0.957141
1
1.00657
1
0.894088
1.05505
0.938303
0.92819
1
1
0.892
1.11853
0.991912
0.891442
0.886183
0.959385
1
1.00711
1.11977
1.11822
1
1
1
0.890126
1.06068
0.999999
1.11878
1.11278
0.884136
1
1.02602
0.965885
1.07421
1.10854
1
1.01354
1
1.00002
0.883282
0.958309
1
1
0.949192
0.88649
1.01339
1
1
0.892995
1.05739
1
1.11517
1
1.0111
1.06942
1
1.1156
1
1
1.11924
1
0.887556
1.11975
0.898763
1.03531
1
0.891546
0.999976
1
1.00001
1
0.939146
1.00761
0.893889
1.08915
1.11978
0.880817
1
1
1
1
1
0.994714
0.891421
1.01712
0.891493
0.895839
1.02002
1
0.999946
1.03231
1
1
0.900563
1.00128
1
1
1.0368
1
1.11949
1
1.11967
1.02577
1.00697
0.888111
1
1
0.892595
1
1
1
1
1.1185
1.0123
0.99946
1
0.885009
1.01476
1
1
1.08157
1
0.885084
1.11834
1
1
1
1.1183
0.889194
0.964798
0.876978
1.09105
1.11911
1
1
1.11856
1
0.873057
1
1
1
1
1
0.927275
1
1.11906
1
1
1.04444
1.11931
0.889719
0.969225
1
1.1183
1
1
1
1
1
1.11857
1.11973
0.880011
1.11866
0.886343
1
1
1.11836
1
1.11996
1.00414
1.0077
1.02044
1.11901
1.01906
1.08445
0.887057
1
0.882615
0.996647
1
1.11866
1
1
0.888465
1.11846
1
1.11952
1
1
1
1
1
1
0.890162
1.11956
0.960947
1.11843
1
0.885531
0.889408
0.920403
1.12039
1.11822
0.987832
1
0.942461
1
1.04959
1
1.11828
0.886368
0.889488
0.956564
1
1.11863
1
1.01971
0.90267
1
1.12032
1.10279
0.999684
1
1.11902
0.889503
1.11882
1.11878
1.12033
0.896294
1.02358
1
1
0.885163
1
0.947146
0.952042
1
1.00001
1.11853
1
1.11739
1.02549
1
1.01274
1.12083
1
0.888119
1
0.928178
1
1
1.09956
1
0.945027
1
0.895151
1.01066
0.989709
0.873918
1.11901
1.09806
1.1196
0.895124
0.913183
0.998863
1
1
0.900472
1.11266
0.89017
0.99999
1
1.11861
1.11907
0.966798
1
0.889041
0.918783
1.0826
0.997121
0.889315
1
0.887937
1.03317
0.893798
1
1.00002
0.944061
1.11981
1.11878
0.950003
0.999884
1
1
0.904911
1
0.889129
1
0.877958
0.890394
1
1
1.00001
0.89677
1.11866
1
1
1.00002
1.00001
0.89322
1.11913
1.11866
1
0.892009
1.12
1
1.02437
1
1
1.11916
0.887263
1
1
0.890268
0.916643
0.890842
0.893087
1
0.910717
0.99917
1.02639
0.886938
1
1
1.03667
1
1.10658
1
1
1.08416
0.91049
1
0.884003
1.03616
1.11853
1
1
0.892096
0.899986
0.885972
0.916052
0.899295
1.09141
0.999826
1
1
1
1
1.11898
0.895609
1
0.986691
0.999906
0.999664
0.999981
0.931248
1.03705
1
1.11847
1.11844
1
1
1.11504
1.00001
1
1.11836
0.890694
1.11764
1
0.883906
1.11864
1.00001
1
0.952919
1
0.884924
1
1.11935
1
1
1.11935
1
1
1.11813
1
1
1
1.12019
1
0.930614
0.921565
1
0.883257
1.11837
1
1
0.993028
1
1.11931
1.071
1.09744
1
1
0.895185
1
0.890551
1.11865
1.11947
1.11907
1
1.11951
0.890104
1
0.889875
1.09711
1.10881
1.11919
1.11842
0.9211
0.884086
1
1.08375
1.11921
1.11928
1.11857
0.924445
1.04714
1
1.09289
0.92088
1
1
1
1.00001
0.97202
1
1.11874
1
1
1
1
1
1
1.00002
1.11859
1
1.11974
1.08936
0.885578
1.12006
1.01168
1.06167
1
1.11894
1
0.891711
1
1
1
1
1.10294
1
0.88181
1.11833
0.879181
1.11856
1.09676
1.06585
1
1.02495
1.0598
0.998896
0.888091
0.923878
1.00001
1
0.970905
1
0.889951
1.11921
0.894223
0.98207
0.953575
1
1
1
1.0038
1
1
0.890939
0.999076
1.12025
1
1.11865
1
0.892657
1
1
1.11859
1.11863
0.887162
1
1.11938
1
0.93869
0.897914
1.11912
1.10792
1
1.02192
1.11883
0.999611
1
1.052
1.10568
1.11819
0.998839
1
0.999999
1.10271
1
1
1
1.11877
0.99957
1
1
1.11839
1
1
0.890804
1
1
1
1.11935
1
1
0.955509
1.04175
1.10903
0.93756
1
1.11855
1
1.04513
1
1.11848
0.999202
1.1184
1
0.889448
1
1.08794
1
1
1.11185
1
1.11867
1
1.1187
0.899759
0.894188
1.11965
1
1.10173
1
1.11914
1
1
1.00001
1.11899
1.11873
1.03429
1.1186
0.998713
0.885973
1.1191
0.964694
1
1.11711
1
1.11855
1
1.1191
1.11922
0.998908
0.888803
1
1.11867
1
1.01171
1
1
0.999434
0.922564
1.10761
1
1.10682
1
0.967746
0.883078
1.11879
1.11884
0.896146
1
1.11853
1.11872
1.11839
0.897965
1.11857
0.889205
1.11893
1.11674
1
1
1.11842
1
1
1
1
0.891175
1
1
1.11932
1.1187
1
1.11862
1
1.11945
1.11974
1
1.10059
1
0.886489
1.11899
1.08937
1.03828
0.880976
1.11843
1
1
0.883858
1
1
1.11858
1
1
0.93312
1
1.11862
1.00002
1.1185
0.880903
1.12033
1
1.11865
1.11462
0.96517
1
1.11876
0.929006
1.1187
1.0862
1.11846
1.11896
0.999299
1.1197
1.11848
1.11837
1.11838
1.00024
1
0.888688
1
1.11997
0.948137
1.10917
1
1.11667
1
1
1
1
1
1.11785
0.882091
0.884796
1.11908
1.11846
1
1
1
1
1
1.1177
1.1125
1.11827
1.007
1
1
1
1.00001
1.11832
1.11855
1
1.11884
1.11938
0.897201
1.08626
1
1.11831
1.11925
1.11782
0.999403
1.11856
1.11872
1
1.10652
1
1
1
1
1
1
1.11868
1.11995
1.11135
1.11885
0.884225
0.897119
1.11847
1.1183
1
0.890029
0.982387
1
1.06109
0.888278
1
0.999844
0.999509
0.889352
1
1.11859
1
1
1
1.11963
0.988788
1
1.11837
1.11844
1
1.11872
1
1
1.11861
1
0.884567
1
1.11816
1
1
0.895174
1
1.11887
1
0.885952
0.882051
1
1.11407
1
0.88683
0.967194
1
1.11858
1
1
1
1.11958
1
0.888359
1.01899
1.11888
1.11898
1.1187
1.01454
1.11897
1.11871
1
1
1
1
1
1.11855
1
0.999792
1.1196
1
0.888781
1
1.1185
1.0597
1.01904
1.05905
1.0186
1.12093
0.909632
1.11861
1
0.889422
0.999173
1.11883
0.987308
1.11886
1.11873
1.11925
1
1.11906
1.11851
1.11867
1
1.00001
1
1
1.11903
1.08712
1
1
0.889895
0.998917
1
1.11867
1
1.11865
1.11864
1.11882
0.978372
1.11871
1.11818
1.00421
1.06044
1.11923
1.11878
1
1.11039
0.953111
1.11548
0.994813
1.11828
1
1.11873
1.11873
1
0.890351
0.982739
0.906154
1
1.0248
0.999098
1.11955
1
1
0.999025
1
1.06141
1.1116
1
1
1.11878
1
1
1.08663
1.11868
1.11437
1.1192
1.11899
1
1.11913
0.910146
1.1188
1
1.00109
0.892428
1
1
0.917577
1
1.04186
1
1.11924
1
1.1165
1.07768
0.888897
1
1
1
1
1
1.11859
1.00329
1
1.11907
1
1.11863
1.1186
1
1
0.991028
0.999954
0.881712
0.884983
0.919466
1.02654
1
0.99955
0.885378
1.00001
1
1.11872
0.982331
1.11124
1.1021
1
1
1
1
1
1.11864
1.11899
1
1.11924
1
1.11948
1.08277
0.998698
1
1
1
1.07087
1
0.988854
1
1.11893
1
1
1.11868
1
1
1
1
1
1.1188
0.884941
0.998819
1.10726
1.11861
1
1.11863
1
1
1
1
0.895534
1
1.11887
1.11861
1.11835
1.12071
0.991974
1
1.10213
1.03034
1.11973
1.12013
1.02523
1.12025
1
1
1