/*--------------------------------*- C++ -*----------------------------------*\
  =========                 |
  \\      /  F ield         | OpenFOAM: The Open Source CFD Toolbox
   \\    /   O peration     | Website:  https://openfoam.org
    \\  /    A nd           | Version:  12
     \\/     M anipulation  |
\*---------------------------------------------------------------------------*/
FoamFile
{
    format      ascii;
    class       volScalarField;
    location    "2.83";
    object      rho;
}
// * * * * * * * * * * * * * * * * * * * * * * * * * * * * * * * * * * * * * //

dimensions      [1 -3 0 0 0 0 0];

internalField   nonuniform List<scalar> 
22702
(
1.40001
1.40001
1.26911
1.40001
1.45401
1.40001
1.83933
1.40001
1.40001
1.03788
1.83951
1.83909
1.40001
1.8423
1.29521
1.40001
1.40001
1.40001
1.83972
1.40001
1.84206
1.40001
1.83694
1.03873
1.83939
0.99125
1.40001
1.83908
1.01272
1.03272
1.40001
1.83917
1.40001
1.40001
1.40001
1.80931
1.84223
1.83654
1.40001
1.40001
1.03768
1.40001
1.61876
1.40001
1.83809
1.40001
1.40001
1.40001
1.40001
1.03007
1.40001
1.03607
1.40001
1.83952
1.40001
1.83836
1.40001
1.40001
1.40001
1.40001
1.02422
1.40001
1.40001
1.03788
1.40001
1.0385
1.40001
1.40001
1.40001
1.02232
1.40001
1.84216
1.67083
1.40001
1.84333
1.86481
1.03955
1.84145
1.02539
1.40001
1.83623
1.02982
1.83813
1.83824
1.40001
1.40001
1.40001
1.40001
1.33329
1.02878
1.83417
1.40001
1.40001
1.03576
1.40001
1.8417
1.03945
1.40001
1.40001
1.40001
1.40001
1.61542
1.83731
0.996254
1.40001
1.40001
1.50982
1.40001
1.0296
1.40001
1.84118
1.83918
1.40001
1.40001
0.991553
0.991526
1.03347
1.40001
1.40001
1.40001
1.40001
1.40001
1.31905
1.40001
1.77607
1.4409
1.84308
1.40001
1.84251
1.83802
1.84164
1.84006
1.40001
1.02077
1.40001
1.03929
1.40001
1.40001
1.40001
1.40001
1.83766
1.40001
1.40001
1.40001
1.40001
1.84425
1.40001
1.42583
1.40001
1.40001
1.40001
1.40001
1.03145
1.40001
1.41005
1.40001
1.02297
1.40001
1.40001
1.40001
1.83391
1.40001
1.84025
1.02266
1.02143
1.84387
1.84127
1.40001
1.46799
1.65715
1.40001
1.83775
1.0258
1.80996
1.40001
1.40001
1.40001
1.40001
1.84219
1.76617
1.40001
1.8374
1.04883
1.83818
1.40001
1.01212
1.40001
1.03314
1.00156
1.39977
1.40001
1.40001
1.83759
1.40001
1.40001
1.84242
1.40001
1.8385
1.83761
1.03322
1.40001
1.40001
1.02539
1.84219
1.40001
1.40001
1.40001
1.84228
1.40001
1.01752
1.40001
1.40001
1.84165
1.84208
1.84028
1.40001
1.40005
1.40001
1.40001
1.40001
1.84154
1.40001
1.04216
1.85872
1.84233
1.84278
1.40001
1.40001
1.40001
1.01291
1.84195
1.61268
1.40001
1.84252
1.02987
1.02489
1.84258
1.8393
1.40001
1.84736
1.04119
1.79128
1.40001
1.40001
1.40001
1.40001
1.84149
1.40001
1.66002
1.44362
1.40001
1.40001
1.84216
1.04701
1.15054
1.40001
1.84077
1.00269
1.84529
1.40001
1.40001
1.40001
1.40001
1.40001
1.40001
1.40001
1.03045
1.17427
1.02766
1.84189
1.40001
1.40001
1.40001
1.40001
1.79068
1.40001
1.02597
1.40001
1.00503
1.02647
1.8408
1.04113
1.84244
1.40001
1.40001
1.40001
1.39763
1.01414
1.06221
1.4
1.40001
1.00514
1.40001
1.83788
0.998718
1.40001
1.40001
1.83712
1.06061
1.40001
1.83616
1.02315
1.84205
1.40001
1.01048
1.39778
1.40001
1.40001
1.40001
1.03499
1.40001
1.40001
1.4
1.40001
1.41239
1.6715
1.40001
1.01779
1.40001
1.40001
1.40001
1.40001
1.40001
1.40001
1.40001
1.83981
1.40001
1.83961
1.40001
1.40001
1.40001
1.01803
1.40001
1.8438
1.03556
1.40001
1.74663
1.40001
1.40001
1.83994
1.40001
1.40001
1.40001
1.82322
1.40001
1.40001
1.82333
1.83905
1.40001
1.49325
1.40001
1.40001
1.04258
1.40001
1.40001
1.40001
1.03536
1.40001
1.40001
1.40001
1.40001
1.00041
1.40001
1.40001
1.40001
1.40001
1.40001
1.04552
1.40007
1.84082
1.40001
1.39997
1.84203
1.84395
1.40001
1.40001
1.03309
1.1918
1.83709
1.40001
1.40001
1.40001
1.84196
1.02067
1.40001
1.8407
1.40001
1.40001
1.11672
1.11722
1.40001
1.01522
1.03042
1.40001
1.40001
1.40001
1.40001
1.40001
1.40001
1.40001
1.84285
1.51138
1.81405
1.05452
1.29838
1.83607
1.40001
1.84461
1.83761
1.05228
1.14739
1.40001
1.00574
1.40001
1.8481
1.40001
1.40001
1.40001
1.40001
1.84221
1.40001
1.40001
1.40001
1.40001
1.40001
1.40001
1.40001
1.56466
1.83529
1.40001
1.84177
1.40001
1.40001
1.02847
1.40001
1.40001
1.40001
1.40001
1.84229
1.73724
1.40001
1.40001
1.01662
1.84159
1.84233
1.40001
1.84185
1.84244
1.84186
1.40001
1.21549
1.40001
1.84178
1.38253
1.84188
1.40001
1.0288
1.39891
1.84047
1.40001
1.40001
1.40001
1.40001
1.03496
1.84122
1.80205
1.40001
1.83957
1.84192
1.83711
1.40001
1.61609
1.84078
1.40001
1.40001
1.7051
1.46588
1.8418
1.32174
1.84213
1.40001
1.84214
1.84181
1.84221
1.84075
1.40001
1.8201
1.30617
1.27897
1.40001
1.4
1.40001
1.40001
1.8461
1.40001
1.40001
1.40001
1.40001
1.40001
1.84058
1.40001
1.40001
1.39602
1.84242
1.79982
1.40001
1.77326
1.40005
1.40001
1.40001
1.83963
1.40001
1.39674
1.4045
1.40001
1.84202
1.40001
1.84349
1.40001
1.40001
1.72727
1.40001
1.84398
1.40003
1.40001
1.84288
1.40001
1.84236
1.40001
1.40001
1.40001
1.84207
1.40001
1.84117
1.40001
1.84194
1.84147
1.84208
1.84018
1.40001
1.83771
1.84287
1.40001
1.02206
1.81487
1.71737
1.40001
1.84235
1.40001
1.04632
1.02358
1.40001
1.40001
1.40001
1.40001
1.40001
1.04235
1.40001
1.84186
1.50807
1.83951
1.40001
1.40001
1.40001
1.40001
1.40001
1.84198
1.40001
1.84908
1.66391
1.14842
1.40001
1.40001
1.52933
1.51275
1.40001
1.40001
1.55721
1.40001
1.02055
1.84154
1.84169
1.40001
1.40001
1.40001
1.84061
1.40001
1.40003
1.84674
1.84083
1.34288
1.40001
1.40001
1.0288
1.80271
1.40001
1.40001
1.40001
1.40001
1.40001
1.8424
1.83678
1.40001
1.8445
1.8409
1.8422
1.40001
1.40001
1.40001
1.40001
0.999679
1.83764
1.40001
1.40001
1.80286
1.84054
1.40001
1.81669
1.8361
1.40001
1.40001
1.40001
1.40001
1.40001
1.84191
1.40001
1.40001
1.40001
1.40001
1.84393
1.40001
1.83654
1.01266
1.40001
1.04563
1.40001
1.40001
1.40001
1.39695
1.02519
1.39909
1.40001
1.40001
1.40001
1.46111
1.40001
1.40001
1.25733
1.40001
1.40001
1.40001
1.40001
1.40001
1.40001
1.40001
1.4
1.32881
1.4
1.40001
1.39747
1.40001
1.03292
1.40001
1.40001
1.40001
1.40001
1.7308
1.40001
1.40001
1.40001
1.40001
1.01727
1.40001
1.40001
1.81681
1.83811
1.4
1.40001
1.40001
1.27783
1.40001
1.40001
1.40001
1.40001
1.40001
1.40001
1.3421
1.40796
1.84186
1.40001
1.40001
1.40001
1.84352
1.29588
1.40001
1.40001
1.40001
1.83477
1.84156
1.40001
1.40001
1.40001
1.40001
1.40001
1.40001
1.40001
1.40001
1.40001
1.02581
1.40001
1.40001
1.83941
1.01394
1.40001
1.83884
1.40001
1.03216
1.40001
1.40001
1.02349
1.40001
1.40001
1.40001
1.40001
1.40001
1.40001
1.40001
1.8323
1.84028
1.40001
1.40001
1.40001
1.40001
1.80376
1.40001
1.53995
1.01637
1.40001
1.40001
1.40001
1.40001
1.40001
1.40001
1.40001
1.4279
1.40001
1.40001
1.62618
1.40001
1.40001
1.40001
1.76568
1.40001
1.40001
1.40001
1.40001
1.01052
1.40001
1.40001
1.01199
1.01505
1.40001
1.40001
1.8419
1.40001
1.39122
1.40001
1.40001
1.40001
1.70866
1.04312
1.40001
1.0363
1.40001
1.18129
1.40001
1.40001
1.40001
1.8407
1.40001
1.40001
1.84138
1.40001
1.40001
1.40001
1.84178
1.40001
1.40001
1.84189
1.40001
1.40001
1.05096
1.40001
1.53905
1.40001
1.40001
1.83686
1.83666
1.69357
1.79628
1.40001
1.02989
1.40001
1.40001
1.82145
1.40001
1.04209
1.40001
1.40001
1.40001
1.84196
1.40001
1.40001
1.40001
1.40001
1.66655
1.40001
1.83243
1.83659
1.02952
1.40001
1.40001
0.99302
0.989481
1.40001
1.40001
1.40001
1.7151
1.73565
1.40001
1.40001
1.40001
1.40001
1.40001
1.40001
1.40001
1.58579
1.83918
1.40345
1.40001
1.83592
1.01651
1.40001
1.40001
1.40001
1.64464
1.40001
1.48902
1.40001
1.80372
1.84112
1.40001
1.02785
1.40001
1.83719
1.40001
1.40001
1.8409
1.81529
1.40001
1.84217
1.40001
1.03616
1.40001
1.40001
1.40001
1.84745
1.83235
1.78915
1.40001
1.84088
1.8411
1.40001
1.84241
1.40001
1.84111
1.40001
1.00752
1.37359
1.01104
1.40001
1.40001
1.40001
1.40001
1.40001
1.84196
1.40001
1.84204
1.40001
1.40001
1.40001
1.81971
1.40001
1.0389
1.84116
1.40001
1.0074
1.08011
1.05557
1.40001
1.61415
1.43567
1.84404
1.84148
1.40001
1.4
1.40001
1.40001
1.84199
1.40001
1.40001
1.84197
1.84177
1.40001
1.55049
1.39978
1.40001
1.39683
1.83677
1.25118
1.40001
1.21816
1.02335
1.02069
1.32587
1.83777
1.83653
1.49144
1.842
1.84209
1.40001
1.40001
1.8432
1.83914
1.84113
1.83888
1.40001
1.84315
1.03418
1.84555
1.83828
1.84175
1.84053
1.25562
1.28712
1.32086
1.842
1.35838
1.84074
1.40001
1.40001
1.84461
1.84256
1.40001
1.00777
1.83769
1.84193
1.40001
1.84195
1.84232
1.40001
1.84208
1.01236
1.84523
1.8424
1.83979
1.83841
1.40001
1.40001
1.40001
1.84183
1.68449
1.03916
1.8422
1.00555
1.8418
1.40001
1.40001
1.40001
1.40001
1.83949
1.84245
1.40001
1.40001
1.84233
1.01054
1.84252
1.02904
1.40001
1.83831
1.40001
1.0385
1.84245
1.12883
1.40001
1.84125
1.84368
1.84059
1.40001
1.40001
1.59213
1.84319
1.01831
1.84126
1.40001
1.84119
1.26941
1.84143
1.03962
1.40001
1.8425
1.09118
1.84465
1.02814
1.40001
1.84138
1.40001
1.83702
1.40001
1.65965
1.82541
1.74748
1.05302
1.40001
1.84176
1.40001
1.84244
1.40001
1.84178
1.40001
1.40001
1.84026
1.37117
1.84488
1.03441
1.80067
1.40001
1.71734
1.40001
1.84105
1.84165
1.83864
1.40001
1.7978
1.84096
1.81013
1.67271
1.84113
1.40001
1.69035
1.40001
1.84079
1.40001
1.46503
1.40001
1.80946
1.40001
1.84122
1.82097
1.82031
1.40001
1.83356
1.00692
1.40001
1.0187
1.40001
1.40001
1.40001
1.83881
1.40001
1.84231
1.40001
1.40001
1.40001
1.84281
1.82846
1.76502
1.84175
1.845
1.04407
1.83907
1.83667
1.40001
1.78929
1.84149
1.81978
1.40001
1.83732
1.83791
1.40001
1.84825
1.84175
1.84197
1.8423
1.40001
1.40001
1.40001
1.84183
0.999761
1.40001
1.84175
1.40001
1.40001
1.03188
1.40001
1.40001
1.84138
1.84237
1.40001
1.8413
1.84682
1.84363
1.37651
1.84233
1.40001
1.84285
1.84158
1.75486
1.40001
1.40001
1.40001
1.84401
1.84201
1.84132
1.33965
1.40001
1.84429
1.8419
1.84107
1.40001
1.84181
1.84103
1.84204
1.84847
1.40001
1.84074
1.84396
1.78137
1.84338
1.84781
1.40001
1.85208
1.83688
1.84107
1.84608
1.84146
1.03945
1.84075
1.84344
1.40001
1.84207
1.84115
1.84171
1.84091
1.40001
1.84199
1.84209
1.40001
1.84196
1.77053
1.40001
1.40001
1.40001
1.84516
1.83809
1.40001
1.40001
1.64317
1.40001
1.84151
1.40001
1.40001
1.8416
1.84282
1.84165
1.84206
1.40001
1.40001
1.40001
1.70376
1.40001
1.841
1.40001
1.40001
1.84165
1.84255
1.40001
1.84156
1.00328
1.84205
1.84383
1.14363
1.40001
1.04963
1.77906
1.8414
1.84084
1.84095
1.05424
1.84098
1.84304
1.05842
1.0122
1.40001
1.84052
1.84101
1.40001
1.40001
1.84154
1.40001
1.83981
1.40001
1.78601
1.40001
1.60459
1.84113
1.84344
1.70143
1.80278
1.83754
1.8419
1.81233
1.40001
1.0198
1.83874
1.8419
1.84588
1.40002
1.40001
1.40001
1.83895
1.40001
1.84207
1.84076
1.15522
1.40001
1.84107
1.39994
1.40001
1.40004
1.40005
1.84171
1.84256
1.39852
1.40001
1.40001
1.84222
1.84377
1.84159
1.8428
1.84043
1.06297
1.77805
1.40001
1.83799
1.84175
1.84158
1.84569
1.40001
1.84129
1.82993
1.84319
1.40001
1.84125
1.84315
1.26359
1.84132
1.84187
1.40001
1.84192
1.23819
1.84214
1.2601
1.84162
1.40001
1.84167
1.84439
1.84168
1.84172
1.84156
1.84263
1.84226
1.84234
1.40001
1.32556
1.84206
1.84195
1.22645
1.8416
1.376
1.68537
1.84175
1.84365
1.84391
1.40001
1.84489
1.68727
1.84319
1.31807
1.84414
1.84873
1.40001
1.24714
1.40001
1.84631
1.40001
1.70492
1.40001
1.81453
1.26017
1.40001
1.84692
1.84268
1.40001
1.83777
1.8442
1.84951
1.84404
1.84708
1.40001
1.83858
1.40001
1.40001
1.40001
1.29011
1.84137
1.84225
1.84621
1.84166
1.84041
1.84493
1.84355
1.84229
1.29563
1.43187
1.40001
1.40001
1.84427
1.84194
1.84129
1.84201
1.40003
1.62873
1.40001
1.84734
1.78419
1.40001
1.40001
1.12613
1.84159
1.40001
1.40001
1.01506
1.84184
1.40001
1.83675
1.84109
1.83744
1.826
1.84137
1.40001
1.05969
1.50467
1.84066
1.84166
1.40001
1.84064
1.8415
1.62884
1.40971
1.49789
1.40001
1.83574
1.84218
1.40001
1.40001
1.07524
1.40001
1.40001
1.84168
1.84168
1.84136
1.84217
1.8419
1.8437
1.84196
1.84458
1.84164
1.40001
1.39583
1.84156
1.84168
1.39655
1.84166
1.84171
1.06213
1.0276
1.84129
1.83894
1.40001
1.40001
1.40162
1.84104
1.84166
1.84197
1.40001
1.84144
1.40001
1.26521
1.84718
1.84442
1.40001
1.59213
1.84167
1.40001
1.84129
1.40001
1.84079
1.70033
1.84094
1.40001
1.84272
1.83551
1.07181
1.84194
1.40001
1.84194
1.8387
1.40001
1.06518
1.84503
1.76468
1.39773
1.83532
1.84139
1.40001
1.39407
1.84736
1.39804
1.842
1.40001
1.40001
1.84253
1.40001
1.84583
1.84198
1.39648
1.75233
1.40001
1.84188
1.40001
1.40001
1.40001
1.40001
1.84199
1.40001
1.40001
1.84587
1.40001
1.84224
1.40001
1.68019
1.83944
1.84272
1.40001
1.40001
1.39637
1.40001
1.84187
1.84109
1.84193
1.84204
1.84173
1.84115
1.84174
1.40001
1.84087
1.84309
1.40001
1.84132
1.84097
1.40001
1.84016
1.3236
1.45613
1.84074
1.84144
1.84183
1.40001
1.84197
1.40001
1.84211
1.84168
1.40001
1.84122
1.40001
1.40001
1.40001
1.40001
1.84135
1.04616
1.39789
1.40001
1.84121
1.8436
1.40001
1.84108
1.40001
1.4053
1.03486
1.84155
1.39959
1.40001
1.84287
1.39831
1.84206
1.40001
1.39976
1.40001
1.84319
1.84508
1.8411
1.84252
1.03022
1.84236
1.84354
1.84038
1.51
1.40001
1.40001
1.58688
1.84201
1.04063
1.03345
1.40001
1.84241
1.84161
1.84019
1.40001
1.40001
1.84257
1.84074
1.39988
1.40001
1.72388
1.00346
1.40001
1.48085
1.84031
1.83346
1.39827
1.84188
1.84538
1.40001
1.3991
1.40001
1.84027
1.83841
1.58388
1.40001
1.80554
1.40001
1.40167
1.8419
1.03401
1.84057
1.84201
1.39701
1.39992
1.78217
1.40001
1.39968
1.40001
1.84216
1.40001
1.40002
1.02166
1.84192
1.40001
1.40001
1.40001
1.40001
1.84787
1.65308
1.40001
1.40001
1.03799
1.84133
1.65425
1.40001
1.40001
1.40001
1.82081
1.83278
1.84096
1.40001
1.40001
1.84478
1.40001
1.84167
1.84187
1.40001
1.40001
1.84374
1.84217
1.81979
1.40001
1.40001
1.84449
1.84298
1.40001
1.40001
1.40001
1.84358
1.40001
1.40001
1.40001
1.84085
1.84006
1.84507
1.40001
1.84818
1.40004
1.08754
1.84078
1.84089
1.40001
1.84459
1.81971
1.83924
1.40001
1.40001
1.84634
1.40001
1.64471
1.84228
1.40001
1.0749
1.40001
1.84299
1.40001
1.40001
1.84329
1.40001
1.40001
1.40001
1.53572
1.84195
1.05804
1.40002
1.84265
1.40001
1.40001
1.84267
1.40001
1.84652
1.40001
1.40001
1.84156
1.84187
1.40001
1.40006
1.40001
1.40001
1.40001
1.40001
1.40001
1.40001
1.83636
1.84206
1.40001
1.83695
1.03016
1.84368
1.40001
1.84172
1.8476
1.84179
1.84457
1.83884
1.40001
1.40001
1.8454
1.40001
1.67485
1.84691
1.84199
1.40001
1.84295
1.8407
1.40001
1.79325
1.40001
1.84153
1.68447
1.846
1.39741
1.82808
1.7972
1.84267
1.84185
1.43673
1.84153
1.84474
1.40001
1.84133
1.40001
1.84168
1.40001
1.40001
1.40001
1.40001
1.39577
1.84197
1.84189
1.77591
1.40001
1.84413
1.40001
1.40001
1.40001
0.994584
1.40001
1.83082
1.40001
1.80145
1.82357
1.40001
1.40001
1.40001
1.806
1.84183
1.40001
1.40001
1.84028
1.03969
1.4634
1.40001
1.84704
1.84203
1.8024
1.82906
1.84226
1.40001
1.84287
1.40001
1.40001
1.40001
1.40001
1.84322
1.84208
1.40001
1.82537
1.45263
1.84243
1.81184
1.40001
1.40001
1.81271
1.40001
1.40001
1.04399
1.72148
1.40001
1.40001
1.84744
1.40001
1.84489
1.80353
1.40001
1.80343
1.03773
1.84112
1.8414
1.84218
1.40001
1.02237
1.40001
1.40001
1.40001
1.84154
1.76516
1.40001
1.84594
1.84183
1.40001
1.84159
1.40001
1.40001
1.40001
1.40001
1.84211
1.39937
1.40001
1.84323
1.40001
1.40001
1.84361
1.84103
1.40001
1.84656
1.48265
1.40002
1.40001
1.84189
1.40001
1.84236
1.40001
1.41424
1.84133
1.40001
1.84173
1.40001
1.40001
1.53084
1.84161
1.40001
1.40001
1.40001
1.40001
1.40001
1.39556
1.03718
1.05594
1.41982
1.40001
1.42401
1.40001
1.42553
1.40001
1.84145
1.40001
1.66868
1.40001
1.84174
1.40001
1.40001
1.40001
1.84162
1.40001
1.74615
1.84283
1.40001
1.62992
1.84075
1.40001
1.40001
1.83965
1.84124
1.40001
1.40001
1.44573
1.04871
1.40001
1.84313
1.40001
1.40001
1.40001
1.40001
1.47281
1.84215
1.40001
1.40001
1.40001
1.03422
1.40001
1.84168
1.84254
1.84175
1.40001
1.40001
1.40001
1.40001
1.61895
1.83797
1.40001
1.40001
1.40001
1.84542
1.84168
1.44581
1.40001
1.40001
1.40001
1.83996
1.84163
1.40001
1.07575
1.84239
1.84219
1.84148
1.83952
1.84036
1.40001
1.40001
1.84734
1.83868
1.84231
1.03537
1.44131
1.8425
1.40001
1.40001
1.40001
1.40001
1.40001
1.8422
1.0348
1.40001
1.40001
1.84212
1.59523
1.40001
1.84655
1.40001
1.40001
1.40001
1.02069
1.40001
1.40001
1.51474
1.84214
1.84175
1.40001
1.84103
1.84523
1.40001
1.46149
1.40001
1.84606
1.40001
1.84339
1.04118
1.40001
1.40001
1.40001
1.40001
1.84177
1.40007
1.40001
1.40001
1.40001
1.82179
1.40001
1.40001
1.40001
1.40001
1.84252
1.02179
1.7487
1.84447
1.40001
1.84286
1.40001
1.40001
1.40001
1.39727
1.40001
1.84598
1.40001
1.21827
1.40001
1.40001
1.40004
1.84313
1.02837
1.40001
1.83866
1.40001
1.84412
1.84191
1.02481
1.40001
1.40001
1.82117
1.40001
1.40001
1.03071
1.40001
1.84312
1.40001
1.82173
1.39933
1.84075
1.40001
1.40001
1.40001
1.40001
1.83876
1.40001
1.40001
1.84174
1.40001
1.40001
1.40001
1.40001
1.40001
1.40001
1.40001
1.40001
1.68787
1.40001
1.54459
1.84074
1.40001
1.40001
1.40001
1.0253
1.40001
1.40001
1.40001
1.40001
1.84175
1.84185
1.45176
1.40001
1.40001
1.84256
1.40001
1.40001
1.84117
1.40001
1.40002
1.40001
1.40001
1.40001
1.40002
1.8431
1.19169
1.84195
1.84317
1.39705
1.40001
1.40001
1.40001
1.66358
1.40001
1.40001
1.84126
1.84145
1.40001
1.40001
1.40001
1.40001
1.02251
1.40001
1.40001
1.40001
1.68194
1.40001
1.84171
1.84519
1.40001
1.84358
1.40001
1.40001
1.40001
1.64182
1.40001
1.84002
1.40001
1.84173
1.40001
1.40001
1.39638
1.84157
1.40001
1.40001
1.40001
1.40001
1.40001
1.83943
1.40003
1.40001
1.04549
1.84516
1.03959
1.40001
1.84258
1.40001
1.39605
1.40001
1.84324
1.84887
1.40001
1.83326
1.28292
1.84193
1.84107
1.40004
1.40001
1.40001
1.02957
1.40001
1.40001
1.40001
1.84168
1.65904
1.84618
1.40001
1.40001
1.40001
1.40001
1.39672
1.84307
1.40001
1.03973
1.40001
1.40001
1.40001
1.40001
1.40001
1.40001
1.40001
1.84874
1.84068
1.84791
1.40001
1.40001
1.39687
1.40001
1.37547
1.40001
1.40001
1.40001
1.04922
1.37596
1.40001
1.01651
1.02513
1.40001
1.84217
1.84168
1.40001
1.8446
1.84222
1.03533
1.69032
1.40001
1.40001
1.40001
1.03847
1.84097
1.40001
1.03153
1.40001
1.8494
1.46854
1.40001
1.40001
1.40001
1.40001
1.84146
1.83996
1.40001
1.40001
1.84107
1.40001
1.40001
1.83874
1.84202
1.40001
1.81957
1.84192
1.83841
1.35084
1.83882
1.40777
1.03819
1.74026
1.84261
1.40001
1.40001
1.40001
1.01393
1.40001
1.03613
1.84783
1.35355
1.84216
1.35455
1.40001
1.8404
1.60094
1.40001
1.40001
1.84458
1.40001
1.58325
1.84039
1.40001
1.40001
1.8423
1.84966
1.03684
1.67452
1.39989
1.40001
1.66774
1.40001
1.83961
1.34335
1.84885
1.84809
1.40001
1.40001
1.40001
1.40001
1.83578
1.40001
1.40001
1.84037
1.39964
1.84269
1.75021
1.84276
1.03056
1.40001
1.40001
1.40001
1.40001
1.8423
1.40005
1.84156
1.40001
1.84252
1.8405
1.45453
1.84556
1.52913
1.84198
1.40001
1.70462
1.04426
1.83901
1.84151
1.76549
1.4723
1.84044
1.84188
1.84192
1.84198
1.40001
1.31253
1.46368
1.40001
1.84159
1.61517
1.84258
1.40004
1.40001
1.40001
1.08488
1.8473
1.83957
1.76093
1.40001
1.5678
1.40001
1.83901
1.83728
1.40001
1.84365
1.83998
1.40001
1.40001
1.40001
1.84346
1.40001
1.57442
1.84566
1.7032
1.40001
1.84041
1.40001
1.40001
1.40001
1.40001
1.40001
1.40001
1.40001
1.40001
1.40001
1.40001
1.07122
1.40001
1.80518
1.03469
1.66144
1.39859
1.84038
1.40001
1.62904
1.40002
1.68322
1.77645
1.40001
1.40332
1.84925
1.31051
1.40001
1.8386
1.82605
1.33729
1.40001
1.84242
1.84236
1.84326
1.40001
1.84192
1.8432
1.84406
1.40001
1.59628
1.40001
1.40007
1.84259
1.40001
1.84241
1.46333
1.84318
1.40001
1.40001
1.84081
1.84
1.08137
1.40001
1.84052
1.73193
1.84082
1.40001
1.40001
1.83883
1.84241
1.39824
1.40001
1.79695
1.39684
1.8407
1.40008
1.40001
1.40001
1.40001
1.40001
1.59526
1.40001
1.73619
1.84364
1.73113
1.83994
1.40001
1.40366
1.40001
1.40001
1.83856
1.40001
1.84447
1.40001
1.40001
1.40001
1.40001
1.4
1.40001
1.45628
1.63131
1.40001
1.40001
1.02819
1.40001
1.83945
1.0661
1.84606
1.40001
1.62337
1.39976
1.84164
1.67976
1.04656
1.64319
1.40004
1.84123
1.84484
1.40001
1.66621
1.84617
1.8421
1.39841
1.83974
1.82917
1.04627
1.40001
1.40001
1.39845
1.40001
1.84091
1.40001
1.05959
1.83848
1.40001
1.40001
1.79096
1.40001
1.84369
1.40001
1.84137
1.40001
1.07373
1.40001
1.40001
1.84268
1.84932
1.83783
1.40001
1.83877
1.84131
1.83777
1.40001
1.40001
1.84047
1.4
1.12595
1.40001
1.40001
1.40001
1.8423
1.40001
1.84118
1.6871
1.84106
1.40001
1.84188
1.39939
1.40001
1.40001
1.40001
1.40001
1.40001
1.40001
1.12001
1.40001
1.40001
1.84187
1.40001
1.84452
1.84737
1.40001
1.06542
1.02895
1.40001
1.84336
1.47397
1.03594
1.00566
1.40001
1.8438
1.40001
1.84545
1.03717
1.40135
1.40001
1.40001
1.39951
1.40001
1.40001
1.40001
1.39992
1.58638
1.84139
1.40001
1.40001
1.84247
1.6625
1.40001
1.79479
1.8398
1.84208
1.58659
1.84476
1.40001
1.84095
1.40001
1.82364
1.40001
1.84255
1.84118
1.39697
1.84236
1.84869
1.40001
1.40001
1.40001
1.40001
1.40001
1.31579
1.83932
1.40005
1.40003
1.03529
1.39999
1.06789
1.03526
1.40001
1.8422
1.84118
1.84261
1.40001
1.842
1.40001
1.03161
1.40001
1.40001
1.84358
1.23322
1.84028
1.40001
1.84248
1.40001
1.37877
1.84073
1.40001
1.40001
1.40001
1.84019
1.40001
1.84079
1.03758
1.40001
1.40001
1.66045
1.40001
1.40001
1.64513
1.40001
1.40001
1.84126
1.40001
1.40001
1.40001
1.40001
1.40001
1.83903
1.84174
1.40001
1.84059
1.8425
1.04402
1.60247
1.83875
1.40001
1.40001
1.79798
1.39901
1.40001
1.40001
1.84167
1.84382
1.70608
1.40001
1.84223
1.05353
1.8208
1.39945
1.40001
1.84193
1.40004
1.84104
1.76312
1.73913
1.40001
1.40001
1.84164
1.08998
1.02259
1.40001
1.84102
1.40001
1.84111
1.40001
1.6644
1.40001
1.40001
1.84057
1.68259
1.03292
1.40001
1.39836
1.40001
1.40001
1.42592
1.58274
1.84165
1.40001
1.84529
1.40001
1.40001
1.40001
1.40001
1.40001
1.40001
1.46459
1.03199
1.40001
1.40001
1.43337
1.40001
1.40001
1.40001
1.40001
1.40001
1.84188
1.40001
1.40001
1.8419
1.84105
1.71738
1.40001
1.40001
1.40001
1.22161
1.84805
1.70871
1.40001
1.40001
1.40001
1.40001
1.841
1.40001
1.40001
1.40001
1.83874
1.40001
1.40001
1.71962
1.85494
1.42695
1.14457
1.84152
1.71267
1.8373
1.40001
1.61585
1.40001
1.40001
1.40001
1.0051
1.40211
1.02855
1.40001
1.00167
1.01959
1.40001
1.03767
1.40001
1.40001
1.40001
1.59607
1.40001
1.84224
1.84254
1.4017
1.62113
1.77481
1.0293
1.16815
1.26965
1.40001
1.8416
1.84103
1.84169
1.84233
1.77758
1.2706
1.40001
1.78166
1.40001
1.82437
1.40001
1.40001
1.39655
1.41033
1.40001
1.40001
1.40001
1.83971
1.40001
1.03275
1.40001
1.84321
1.04273
1.40001
1.40001
1.84219
1.40001
1.8421
1.40018
1.40001
1.40001
1.84234
1.805
1.40001
1.85461
1.40001
1.40001
1.41425
1.40001
1.59632
1.40001
1.40001
1.04244
1.40001
1.40001
1.83963
1.4
1.84235
1.40001
1.40004
1.0425
1.40001
1.40001
1.03272
1.40082
1.40001
1.83977
1.06756
1.84314
1.0216
1.8407
1.40001
1.40001
1.40001
1.40001
1.40001
1.40001
1.40001
1.40001
1.40001
1.40001
1.40001
1.82493
1.40001
1.84298
1.83982
1.03816
1.40001
1.40001
1.40001
1.40001
1.40001
1.40001
1.82934
1.40001
1.40001
1.03189
1.40001
1.40001
1.83886
1.40001
1.40001
1.57081
1.76856
1.02165
1.02505
1.07088
1.12594
1.40001
1.39655
1.03029
1.40032
1.79961
1.39691
1.40001
1.40001
1.84144
1.40001
1.40001
1.40001
1.16753
1.40002
1.56498
1.40001
1.40001
1.58461
1.84167
1.40001
0.993613
1.40001
1.40001
1.40001
1.39683
1.40001
1.84206
1.84225
1.40001
1.04821
1.40001
1.64141
1.04045
1.40001
1.27273
1.40001
1.39611
1.01827
1.40001
1.40001
1.40001
1.39595
1.0224
1.40001
0.99733
1.39844
1.63228
1.7918
1.01949
1.02017
1.40001
1.39084
1.40001
1.39863
1.40001
1.84293
1.84272
1.40001
1.41325
1.84259
1.8409
1.40001
1.40001
1.84205
1.40001
1.40001
1.40005
1.40001
1.84843
1.40001
1.40001
1.41829
1.40001
1.39858
1.07714
1.40001
1.40001
1.40001
1.40001
1.40001
1.83937
1.43443
1.40006
1.40001
1.40001
1.40001
1.40001
1.40001
1.40004
1.40001
1.04387
1.50518
1.39861
1.82153
1.84218
1.40001
1.41554
1.84286
1.7837
1.40001
1.40001
1.07722
1.84285
1.40001
1.84029
1.40001
1.83968
1.70719
1.03481
1.40001
1.04046
1.80262
1.39969
1.40001
1.03347
1.07447
1.40001
1.40001
1.77273
1.40001
1.4
1.03066
1.40001
1.40001
1.40001
1.54016
1.40001
1.03882
1.84232
1.40001
1.40001
1.40001
1.40001
1.84204
1.40001
1.40001
1.84796
1.79699
1.40001
1.40001
1.40001
1.8411
1.01748
1.40001
1.84156
1.84147
1.40001
1.75285
1.4
1.40004
1.40001
1.40001
1.80456
1.42085
1.40001
1.03732
1.6511
1.40001
1.40001
1.39756
1.40001
1.40001
1.84171
1.40001
1.40001
1.40004
1.40001
1.84081
1.40001
1.40001
1.40001
1.40001
1.40001
1.40001
1.40002
1.59207
1.40001
1.83987
1.40001
1.40001
1.8432
1.40001
1.40001
1.40001
1.84115
1.84524
1.4433
1.40001
1.39756
1.40001
1.40001
1.40001
1.40001
1.84063
1.40001
1.40001
1.84056
1.03044
1.40001
1.40001
1.40001
1.40001
1.40001
1.40001
1.7573
1.40001
1.40001
1.84516
1.84217
1.40001
1.40001
1.40001
1.84083
1.83962
1.40001
1.39962
1.84457
1.40001
1.40001
1.40001
1.40002
1.02195
1.43091
1.39605
1.39591
1.40001
1.40001
1.01568
1.84155
1.40001
1.09838
1.40001
1.84409
1.82315
1.02272
1.39941
1.84148
1.84072
1.84082
1.40001
1.40001
1.32135
1.79733
1.76992
1.09537
1.40001
1.40001
1.40001
1.84375
1.84191
1.0289
1.39725
1.40001
1.84161
1.0297
1.40001
1.84073
1.03858
1.36938
1.40638
1.40001
1.84566
1.40001
1.40001
1.40001
1.40001
1.40001
1.40001
1.40012
1.81191
1.40001
1.40001
1.83998
1.40001
1.40001
1.40001
1.8419
1.40001
1.04264
1.40001
1.40001
1.40001
1.55244
1.40001
1.40001
1.40001
1.40001
1.40001
1.1811
1.40001
1.027
1.40001
1.84247
1.40008
1.25424
1.2642
1.40002
1.40478
1.6305
1.40001
1.40001
1.04882
1.8417
1.84257
1.84179
1.40001
1.01737
1.01849
1.40001
1.84109
1.40001
1.40001
1.40001
1.40001
1.40001
1.40004
1.40001
1.04005
1.68218
1.40001
1.40001
1.02104
1.38913
1.40001
1.40001
1.40001
1.40001
1.01524
1.40001
1.05637
1.40001
1.40001
1.84852
1.40001
1.40001
1.03519
1.40001
1.84128
1.40001
1.02756
1.40001
1.03865
1.40001
1.40813
1.84179
1.85516
1.40001
1.40001
1.83983
1.40001
1.40001
1.50068
1.39683
1.40001
1.39815
1.40001
1.84531
1.40001
1.01179
1.40002
1.83713
1.39894
1.40001
1.40001
1.19012
1.40001
1.39895
1.02488
1.84262
1.56335
1.40001
1.40001
1.28547
1.40001
1.40001
1.40001
1.189
1.40001
1.40001
1.40001
1.84164
1.40001
1.03383
1.4
1.40001
1.40001
1.40001
1.02069
1.8408
1.80741
1.03113
1.40001
1.84552
1.40001
1.40001
1.84224
1.83998
1.77091
1.03579
1.39768
1.3993
1.40001
1.84147
1.40001
1.40001
1.40001
1.40001
1.84159
1.40004
1.40001
1.40001
1.84358
1.40001
1.40001
1.84168
1.0664
1.40001
1.40001
1.40001
1.03342
1.40001
1.4
1.4
1.39865
1.40001
1.40001
1.40001
1.40001
1.73961
1.40001
1.84029
1.84141
1.847
1.8421
1.84201
1.84189
1.40001
1.84361
1.40001
1.84243
1.84211
1.40001
1.39891
1.0635
1.7771
1.39991
1.40001
1.40001
1.40001
1.40001
1.40363
1.40001
1.47097
1.40001
1.40001
1.40001
1.22063
1.84187
1.84077
1.84513
1.77389
1.39988
1.40001
1.42255
1.84286
1.39796
1.45386
1.39723
1.02461
1.40001
1.40003
1.40001
1.40001
1.40001
1.40001
1.40001
1.84088
1.03739
1.84103
1.84188
1.3956
1.01648
1.40001
1.40001
1.40001
1.84231
1.0405
1.79021
1.0268
1.84241
1.84587
1.03813
1.84276
1.4247
1.40001
1.84447
1.19324
1.40001
1.39876
1.02446
1.40001
1.04792
1.40001
1.84193
1.84171
1.1539
1.40001
1.83874
1.02575
1.40001
1.02541
1.40001
1.84064
1.40001
1.40001
1.82959
1.40001
1.23776
1.40001
1.39969
1.04447
1.84244
1.39949
1.40001
1.02685
1.40001
1.40001
1.40001
1.40001
1.63951
1.40001
1.84069
1.40001
1.40001
1.85137
1.40001
1.40001
1.84189
1.40001
1.04686
1.40001
1.01536
1.40002
1.40001
1.40001
1.40001
1.40001
1.82204
1.66154
1.84178
1.40001
1.84153
1.81058
1.01506
0.991892
1.40001
1.40001
1.84027
1.40001
1.05222
1.40001
1.38761
1.40001
1.40001
1.84127
1.40001
1.83835
1.02613
1.84971
1.40001
1.01353
1.40001
1.40001
1.84725
1.84051
1.40001
1.40004
1.40001
1.84761
1.40001
1.40001
0.991252
1.39935
1.02992
1.40001
1.40001
1.40001
1.84353
1.84288
1.83991
1.40001
1.40001
1.08984
1.40001
1.8443
1.40001
1.40001
1.40001
1.81593
1.84244
1.84136
1.06169
1.84526
1.84176
1.03229
1.83965
1.40005
1.02864
1.4138
1.40001
1.40001
1.84164
1.06715
1.67921
1.05458
1.84165
1.39747
1.02393
1.8434
1.40001
1.40001
1.40001
1.40001
1.8409
1.84037
1.03405
1.40001
1.40003
1.03711
1.40004
1.40001
1.02768
1.01653
1.70982
1.83969
1.3985
1.84112
1.40001
1.83799
1.20118
1.03781
1.84204
1.85056
1.40001
1.84238
1.40001
1.40001
1.84191
1.40001
1.74531
1.83935
1.40001
1.40001
1.40001
1.40001
1.84241
1.83682
1.84185
1.40001
1.40001
1.84066
1.84343
1.8414
1.40001
1.84247
1.40001
1.40001
1.40001
1.40001
1.40001
1.04596
1.24921
0.994299
1.40001
1.40001
1.84196
1.40001
1.40001
1.84094
1.02921
1.40001
1.84239
1.83709
1.8244
1.0308
1.40001
1.06966
1.40001
1.40003
1.84077
1.62298
1.84062
1.80391
1.40001
1.06823
1.40001
1.84382
1.71597
1.02148
1.40001
1.40001
1.40001
1.21139
1.40001
1.40001
1.84957
1.40001
1.02202
1.84159
1.40001
1.40001
1.40001
1.40001
1.40001
1.75561
1.50011
1.40001
1.84176
1.40001
1.84289
1.40001
1.39725
1.40001
1.84131
1.84024
1.84361
1.84627
1.3996
1.84034
1.40001
1.84177
1.84062
1.77481
1.40001
1.40001
1.04862
1.84174
1.40001
1.40001
1.83988
1.84209
1.84105
1.40001
1.84139
1.40001
1.40001
1.40004
1.84266
1.83916
1.53064
1.49627
1.84121
1.84109
1.0669
1.40001
1.40001
1.40001
1.40001
1.40003
1.55366
1.40001
1.40001
1.78455
1.02955
1.39998
1.40001
1.8416
1.3999
1.39981
1.4665
1.80469
1.83994
1.30197
1.40001
1.03793
1.40001
1.39913
1.84188
1.84508
1.83805
1.39908
1.40001
1.40001
1.04301
1.40001
1.40001
1.84226
1.44893
1.40001
1.40001
1.40001
1.40001
1.40001
1.40001
1.40001
1.39995
1.84046
1.40002
1.40001
1.40001
1.40001
1.40001
1.67911
1.40001
1.61217
1.40001
1.40001
1.84174
1.84513
1.02688
1.39877
1.40001
1.4
1.40001
1.02657
1.84007
1.84196
1.40001
1.40001
1.40001
1.40001
1.40001
1.40001
1.40001
1.40001
1.84086
1.84049
1.03855
1.44884
1.03947
1.40001
1.0193
1.40001
1.84154
1.51129
1.40001
1.40001
1.06637
1.40001
1.82463
1.22168
1.39642
1.02387
1.40001
1.40001
1.83859
1.40005
1.39711
1.01476
1.83865
1.84367
1.40001
1.40001
1.40001
1.40001
1.81346
1.40001
1.40001
1.84133
1.39903
1.84181
1.40006
1.40001
1.40001
1.06599
1.40001
1.40001
1.84306
1.02911
1.18789
1.02949
1.84111
1.39929
1.40001
1.84216
1.0093
1.00827
1.41019
1.40001
1.40001
1.84076
1.40004
1.5945
1.40001
1.40001
1.84069
1.03769
1.40001
1.40001
1.40014
1.84162
1.4001
1.84043
1.40001
1.40004
1.40001
1.40001
1.09827
1.40001
1.15849
1.40003
1.40001
1.84069
1.0553
1.40001
1.17697
1.18286
1.40001
1.40001
1.84208
1.40001
1.40001
1.40001
1.84019
1.84125
1.40005
1.83974
1.84009
1.18439
1.84183
1.82844
1.40001
1.40001
1.844
1.4
1.40001
1.40001
1.40001
1.40001
1.84541
1.84226
1.40001
1.40001
1.40001