/*--------------------------------*- C++ -*----------------------------------*\
  =========                 |
  \\      /  F ield         | OpenFOAM: The Open Source CFD Toolbox
   \\    /   O peration     | Website:  https://openfoam.org
    \\  /    A nd           | Version:  12
     \\/     M anipulation  |
\*---------------------------------------------------------------------------*/
FoamFile
{
    format      ascii;
    class       surfaceScalarField;
    location    "8.8";
    object      phi;
}
// * * * * * * * * * * * * * * * * * * * * * * * * * * * * * * * * * * * * * //

dimensions      [1 0 -1 0 0 0 0];

internalField   nonuniform List<scalar> 
19404
(
-0.00013135
1.03053e-07
-0.000131192
1.16012e-07
-0.000131347
2.71072e-08
-0.00013273
1.09359e-07
-0.000134082
1.8849e-07
-0.000134643
2.12633e-07
-0.000134842
2.00052e-07
-0.000134854
1.62479e-07
-0.000134757
1.33507e-07
-0.000134328
1.25414e-07
-0.000133357
1.84172e-07
-0.000132927
1.82404e-07
-0.000132789
1.25018e-07
-0.000132899
4.20156e-08
-0.000134273
9.86641e-08
-0.000135833
1.89595e-07
-0.000136501
2.16936e-07
-0.000136729
1.99132e-07
-0.000136758
1.71656e-07
-0.00013666
1.27758e-07
-0.000136029
1.45185e-07
-0.00013489
1.80359e-07
-0.000134483
1.71761e-07
-0.000134371
1.18183e-07
-0.000134517
4.30973e-08
-0.000135981
8.84324e-08
-0.000137707
2.13628e-07
-0.000138434
2.30538e-07
-0.000138671
2.20268e-07
-0.000138702
1.89149e-07
-0.00013859
1.47726e-07
-0.000137486
1.44483e-07
-0.000136321
1.89324e-07
-0.000135995
1.49238e-07
-0.000135919
8.87623e-08
-0.000136162
1.44488e-08
-0.000137934
1.03052e-07
-0.000139774
2.23878e-07
-0.000140488
2.23481e-07
-0.000140725
2.36556e-07
-0.000140751
1.83189e-07
-0.000140473
1.45566e-07
-0.000138728
1.37125e-07
-0.000137691
1.70348e-07
-0.000137435
1.17529e-07
-0.000137405
7.51379e-08
-0.000137919
3.81725e-08
-0.000140206
1.44035e-07
-0.000142055
2.27649e-07
-0.000142712
2.4323e-07
-0.000142901
2.31978e-07
-0.000142903
1.73834e-07
-0.000141851
1.29091e-07
-0.000139576
1.44776e-07
-0.000138793
1.21841e-07
-0.00013867
6.19515e-08
-0.000138754
2.80845e-08
-0.000140019
5.26471e-09
-0.00014294
1.74191e-07
-0.000144532
2.56351e-07
-0.000145059
3.04146e-07
-0.000145175
2.57829e-07
-0.000145
2.09657e-07
-0.000142398
1.64213e-07
-0.00013992
1.28054e-07
-0.000139388
3.53627e-08
-0.000139438
-3.50072e-08
-0.000139934
-1.31316e-07
-0.000143061
6.70507e-08
-0.000146168
2.10346e-07
-0.000147333
1.80389e-07
-0.000147685
2.66176e-07
-0.000147756
2.5811e-07
-0.000146466
2.24012e-07
-0.000141778
1.54933e-07
-0.000139486
6.43732e-08
-0.0001393
-3.65757e-08
-0.000139543
-2.02139e-07
-0.000142525
-2.025e-07
-0.000147241
3.18837e-08
-0.000149334
1.72383e-07
-0.000149952
3.18418e-07
-0.000150151
3.95005e-07
-0.000149464
3.46104e-07
-0.000143632
3.56015e-08
-0.000137965
-2.30643e-07
-0.000136755
-4.04943e-07
-0.000136885
-6.59625e-07
-0.000140359
-8.77891e-07
-0.000147296
-6.41033e-07
-0.000150611
-4.42059e-07
-0.000151511
2.25526e-08
-0.00015175
6.86873e-08
-0.00014967
-7.18158e-08
-0.000141795
-2.53828e-08
-0.000133776
-7.77352e-08
-0.000127117
-4.09484e-06
-0.000121031
-2.146e-05
1.53951e-05
-0.000132067
2.01212e-07
-0.000131897
2.60396e-07
-0.000131981
1.26868e-07
-0.00013347
1.89693e-07
-0.000134911
3.34951e-07
-0.000135426
3.9271e-07
-0.00013555
3.71531e-07
-0.000135532
3.51391e-07
-0.000135398
3.0698e-07
-0.000134924
2.65933e-07
-0.000134045
3.28251e-07
-0.000133578
3.12604e-07
-0.000133404
2.48906e-07
-0.000133464
1.59303e-07
-0.000134914
1.87174e-07
-0.000136567
3.2788e-07
-0.000137196
3.93784e-07
-0.000137368
3.81652e-07
-0.000137353
3.49454e-07
-0.000137243
3.18555e-07
-0.000136584
2.79933e-07
-0.000135502
3.06105e-07
-0.000135049
3.09144e-07
-0.000134906
2.4966e-07
-0.000134967
1.40316e-07
-0.000136504
1.91227e-07
-0.000138324
3.53555e-07
-0.000139031
4.14235e-07
-0.000139238
4.23227e-07
-0.000139246
3.84785e-07
-0.000139104
3.26603e-07
-0.000138057
2.83474e-07
-0.000136866
3.09203e-07
-0.000136463
2.72667e-07
-0.000136354
2.11772e-07
-0.000136517
1.1502e-07
-0.000138351
1.97931e-07
-0.000140282
3.65203e-07
-0.000141013
4.26669e-07
-0.000141215
4.41899e-07
-0.000141227
3.78905e-07
-0.000140931
3.19002e-07
-0.000139284
2.85353e-07
-0.000138135
2.88781e-07
-0.000137799
2.35097e-07
-0.000137738
1.91737e-07
-0.000138118
1.21379e-07
-0.000140487
2.23019e-07
-0.000142461
3.87961e-07
-0.000143132
4.43689e-07
-0.000143306
4.36949e-07
-0.000143319
3.82661e-07
-0.000142391
3.00453e-07
-0.000140111
3.0167e-07
-0.000139119
2.00723e-07
-0.00013888
1.51777e-07
-0.000138893
1.25989e-07
-0.000139975
7.9464e-08
-0.000143033
2.89498e-07
-0.000144795
4.50164e-07
-0.000145354
5.2234e-07
-0.000145507
4.81072e-07
-0.000145386
3.92136e-07
-0.00014308
3.1153e-07
-0.00014037
1.87537e-07
-0.000139588
6.44511e-08
-0.000139577
9.71477e-09
-0.000139875
-9.42215e-08
-0.000142705
-9.51386e-09
-0.000145998
3.0039e-07
-0.000147313
4.65121e-07
-0.00014772
5.72199e-07
-0.000147813
5.29676e-07
-0.000146778
4.13422e-07
-0.000142346
2.79161e-07
-0.000139716
2.54518e-08
-0.000139312
-1.47093e-07
-0.00013941
-2.93762e-07
-0.000141283
-4.9914e-07
-0.000145967
-1.56196e-07
-0.000148627
3.68967e-07
-0.000149487
5.49002e-07
-0.000149709
5.51185e-07
-0.000149479
4.28416e-07
-0.000144613
1.89583e-07
-0.000138385
-4.10971e-07
-0.000136519
-7.62207e-07
-0.000136565
-1.14124e-06
-0.000138153
-1.66868e-06
-0.0001437
-1.65322e-06
-0.000147189
-9.7891e-07
-0.000148279
-4.66297e-07
-0.000148569
-6.02121e-07
-0.000146594
-9.83477e-07
-0.000138507
-1.66335e-06
-0.000129093
-2.26547e-06
-0.000122083
-7.93238e-06
-0.000132184
-2.38669e-05
2.05998e-05
-0.000131965
3.16859e-07
-0.000131775
4.02133e-07
-0.000131831
2.65982e-07
-0.000133353
3.16217e-07
-0.000134808
4.91999e-07
-0.000135271
5.65643e-07
-0.000135374
5.4021e-07
-0.000135326
5.12571e-07
-0.000135174
4.5529e-07
-0.000134734
4.252e-07
-0.000133906
4.42359e-07
-0.000133474
4.45832e-07
-0.000133293
3.74779e-07
-0.000133308
3.01343e-07
-0.000134687
2.8865e-07
-0.000136401
4.82353e-07
-0.000137015
5.76514e-07
-0.000137185
5.75766e-07
-0.000137175
5.29064e-07
-0.000137041
4.64509e-07
-0.000136454
4.09865e-07
-0.000135416
4.26373e-07
-0.000134908
4.13584e-07
-0.000134728
3.64492e-07
-0.00013476
2.86183e-07
-0.000136153
2.76545e-07
-0.000138076
4.96529e-07
-0.00013884
6.27126e-07
-0.000139034
6.01427e-07
-0.000139043
5.6056e-07
-0.000138926
4.80379e-07
-0.000138006
4.22238e-07
-0.000136734
4.08635e-07
-0.000136243
3.7104e-07
-0.000136108
3.33078e-07
-0.000136206
2.47182e-07
-0.000137887
2.74239e-07
-0.000139952
5.09979e-07
-0.000140736
6.39593e-07
-0.000140947
6.43323e-07
-0.000140964
5.61654e-07
-0.000140753
4.81504e-07
-0.000139187
4.27281e-07
-0.000137832
3.79348e-07
-0.00013742
3.27511e-07
-0.000137352
2.98844e-07
-0.000137608
1.94875e-07
-0.000139879
2.79301e-07
-0.00014203
5.44989e-07
-0.00014277
6.59874e-07
-0.000142962
6.46647e-07
-0.000142978
5.76652e-07
-0.000142376
4.91404e-07
-0.000139975
3.97997e-07
-0.000138643
3.02094e-07
-0.000138314
2.42785e-07
-0.000138292
1.90594e-07
-0.000139015
9.29401e-08
-0.0001421
2.70209e-07
-0.000144212
5.95355e-07
-0.000144865
7.16508e-07
-0.000145033
6.77079e-07
-0.00014501
5.80562e-07
-0.000143258
4.92406e-07
-0.00014018
2.94621e-07
-0.000139027
9.83701e-08
-0.000138801
1.90858e-08
-0.000138897
-5.58061e-08
-0.000140703
-1.11484e-07
-0.000144489
2.66307e-07
-0.00014628
7.14243e-07
-0.000146745
7.77488e-07
-0.000146832
7.24982e-07
-0.000146334
5.92073e-07
-0.000142406
3.87089e-07
-0.000139105
-1.08687e-07
-0.000138165
-4.19599e-07
-0.000138153
-5.2254e-07
-0.000138765
-6.74197e-07
-0.000143194
-5.603e-07
-0.000146911
2.34965e-07
-0.000147986
6.67695e-07
-0.0001482
7.44868e-07
-0.000148162
6.33897e-07
-0.00014464
4.69509e-07
-0.000137906
-2.54224e-07
-0.000134908
-1.24779e-06
-0.000134614
-1.86323e-06
-0.000135019
-2.26062e-06
-0.000139032
-2.60404e-06
-0.000143582
-1.96003e-06
-0.000145459
-1.33152e-06
-0.00014574
-1.4655e-06
-0.000144839
-2.04724e-06
-0.000138082
-2.93816e-06
-0.000128937
-4.61195e-06
-0.000121739
-1.17071e-05
-0.000133578
-2.23949e-05
2.38474e-05
-0.000131672
4.25107e-07
-0.000131488
5.37336e-07
-0.00013152
4.07469e-07
-0.000132981
4.34875e-07
-0.00013452
6.20182e-07
-0.00013501
7.16102e-07
-0.000135123
7.1029e-07
-0.000135067
6.64015e-07
-0.000134921
6.11111e-07
-0.000134414
5.59321e-07
-0.000133608
5.81091e-07
-0.000133141
5.42962e-07
-0.000132958
5.0358e-07
-0.000132916
4.29124e-07
-0.000134164
4.281e-07
-0.000135979
6.00877e-07
-0.000136664
7.44618e-07
-0.000136826
7.3075e-07
-0.000136805
6.73926e-07
-0.000136693
6.08358e-07
-0.000136136
5.5742e-07
-0.000135055
5.507e-07
-0.000134507
5.22455e-07
-0.000134313
4.85765e-07
-0.00013427
4.0808e-07
-0.000135463
3.98135e-07
-0.000137538
6.01032e-07
-0.000138356
7.68344e-07
-0.000138572
7.64015e-07
-0.000138584
7.1358e-07
-0.00013847
6.10064e-07
-0.000137631
5.77347e-07
-0.000136291
5.50537e-07
-0.000135741
4.82672e-07
-0.000135555
4.21223e-07
-0.000135563
3.60099e-07
-0.000136936
3.50487e-07
-0.000139236
6.09543e-07
-0.000140131
7.95794e-07
-0.000140335
7.99777e-07
-0.000140372
7.45495e-07
-0.000140222
6.50162e-07
-0.00013878
6.03405e-07
-0.000137241
5.16412e-07
-0.00013674
3.89875e-07
-0.00013662
3.45851e-07
-0.000136731
2.66128e-07
-0.000138618
2.91474e-07
-0.000141075
5.98937e-07
-0.000141946
8.20056e-07
-0.000142168
8.49987e-07
-0.000142209
7.85591e-07
-0.000141808
6.84406e-07
-0.000139435
5.98232e-07
-0.000137778
4.02284e-07
-0.000137356
2.04899e-07
-0.000137314
1.46848e-07
-0.000137655
7.06631e-08
-0.000140454
1.72085e-07
-0.000143015
6.24751e-07
-0.000143753
8.76796e-07
-0.000143919
8.98238e-07
-0.000143941
8.46836e-07
-0.000142759
7.20972e-07
-0.000139414
5.16918e-07
-0.000137748
1.20712e-07
-0.000137372
-1.09155e-07
-0.000137388
-1.56101e-07
-0.00013833
-2.13903e-07
-0.000142266
1.78578e-08
-0.00014459
6.36825e-07
-0.000145141
9.15462e-07
-0.000145268
9.34152e-07
-0.000145126
7.82793e-07
-0.000142173
5.81443e-07
-0.000137802
-4.20252e-09
-0.0001363
-5.92016e-07
-0.000136161
-8.58673e-07
-0.000136321
-9.71672e-07
-0.000139063
-1.03598e-06
-0.000143629
-3.65968e-07
-0.000145358
5.04242e-07
-0.000145704
8.43958e-07
-0.000145833
8.31857e-07
-0.000144236
6.29198e-07
-0.000137887
-3.44992e-08
-0.0001333
-1.36819e-06
-0.000132307
-2.59523e-06
-0.000132287
-3.1594e-06
-0.000133755
-3.5167e-06
-0.000137649
-3.38728e-06
-0.000139861
-2.76518e-06
-0.000140595
-2.88358e-06
-0.000140574
-3.58982e-06
-0.000136807
-4.09514e-06
-0.000130093
-5.72825e-06
-0.000124313
-1.18521e-05
-0.000133109
-2.08288e-05
2.66829e-05
-0.000131199
5.3823e-07
-0.000130996
6.34108e-07
-0.000130982
5.09071e-07
-0.000132381
5.41391e-07
-0.00013403
7.46451e-07
-0.000134554
8.6754e-07
-0.000134649
8.66381e-07
-0.000134587
8.12918e-07
-0.000134435
7.65942e-07
-0.000133924
7.03106e-07
-0.000133047
6.8505e-07
-0.000132564
6.47521e-07
-0.000132349
5.99326e-07
-0.00013229
5.50388e-07
-0.000133322
5.21481e-07
-0.000135333
7.15722e-07
-0.00013609
8.61464e-07
-0.000136264
8.85668e-07
-0.000136245
8.2968e-07
-0.000136126
7.6713e-07
-0.000135521
6.93677e-07
-0.000134365
6.79619e-07
-0.00013378
6.31446e-07
-0.000133562
5.91349e-07
-0.000133502
5.22121e-07
-0.000134408
4.89768e-07
-0.00013665
6.64305e-07
-0.000137625
8.64978e-07
-0.000137847
9.00065e-07
-0.000137835
8.506e-07
-0.000137742
7.88474e-07
-0.00013694
7.26753e-07
-0.000135508
6.6742e-07
-0.000134864
5.59418e-07
-0.000134645
4.95096e-07
-0.000134602
4.54264e-07
-0.000135579
4.30709e-07
-0.000138059
6.37587e-07
-0.000139174
8.92815e-07
-0.000139429
9.43604e-07
-0.00013945
9.22334e-07
-0.000139343
8.62151e-07
-0.000138079
7.65365e-07
-0.0001363
6.0817e-07
-0.000135671
4.58438e-07
-0.000135464
3.43412e-07
-0.000135481
3.19889e-07
-0.000136821
3.06843e-07
-0.000139578
5.85021e-07
-0.000140706
9.1353e-07
-0.000140976
1.01209e-06
-0.000141013
9.81788e-07
-0.000140806
8.88319e-07
-0.000138811
7.73956e-07
-0.000136707
4.53248e-07
-0.000136095
2.20034e-07
-0.000135952
1.0178e-07
-0.000136039
6.30965e-08
-0.000138043
1.15858e-07
-0.000141044
5.64998e-07
-0.000142099
9.82056e-07
-0.000142366
1.09687e-06
-0.00014241
1.03782e-06
-0.000141933
8.99778e-07
-0.000138805
6.52154e-07
-0.000136305
1.54223e-07
-0.00013573
-1.74302e-07
-0.000135686
-3.31033e-07
-0.000135989
-3.96493e-07
-0.00013914
-2.68983e-07
-0.000142374
4.22969e-07
-0.000143278
1.00546e-06
-0.000143436
1.13474e-06
-0.000143476
1.01309e-06
-0.000141918
8.19557e-07
-0.00013719
1.55444e-07
-0.000134488
-6.22948e-07
-0.000134096
-1.09506e-06
-0.000134162
-1.35301e-06
-0.00013514
-1.49186e-06
-0.000139607
-1.17449e-06
-0.000142768
-9.39514e-08
-0.0001436
6.4792e-07
-0.000143723
8.27673e-07
-0.00014342
7.50655e-07
-0.000139125
3.99674e-07
-0.000132983
-1.12708e-06
-0.000130239
-2.73768e-06
-0.000130075
-3.78682e-06
-0.00013045
-4.39433e-06
-0.000133407
-4.6509e-06
-0.000136418
-4.29324e-06
-0.000137813
-4.24892e-06
-0.000138155
-5.04371e-06
-0.000137411
-5.79044e-06
-0.00013308
-6.82154e-06
-0.000127196
-1.12034e-05
-0.000132387
-1.95226e-05
2.91294e-05
-0.000130595
6.27508e-07
-0.000130385
7.19345e-07
-0.000130347
5.97772e-07
-0.000131642
6.23549e-07
-0.000133405
8.50899e-07
-0.000133979
1.01579e-06
-0.000134072
1.02604e-06
-0.000134006
9.64559e-07
-0.000133841
9.07013e-07
-0.000133332
8.35918e-07
-0.000132372
7.88209e-07
-0.000131828
7.4293e-07
-0.000131612
6.97951e-07
-0.000131521
6.31581e-07
-0.00013238
5.97949e-07
-0.000134479
7.7596e-07
-0.00013538
9.77212e-07
-0.000135563
1.02966e-06
-0.000135538
9.91304e-07
-0.000135422
9.40181e-07
-0.000134863
8.47499e-07
-0.000133607
8.01645e-07
-0.000132943
7.26541e-07
-0.000132693
6.62575e-07
-0.000132615
6.07244e-07
-0.000133273
5.63162e-07
-0.000135553
7.12806e-07
-0.000136704
9.32695e-07
-0.000136985
1.03331e-06
-0.000137007
1.01073e-06
-0.000136917
9.50677e-07
-0.000136264
8.65313e-07
-0.000134681
7.60749e-07
-0.000133883
6.26428e-07
-0.000133639
5.7162e-07
-0.000133577
5.1576e-07
-0.000134244
4.87541e-07
-0.000136704
6.53544e-07
-0.000138048
9.68062e-07
-0.000138395
1.08817e-06
-0.000138452
1.09873e-06
-0.00013839
1.03153e-06
-0.00013753
9.12497e-07
-0.00013542
7.01737e-07
-0.000134469
4.8068e-07
-0.000134239
3.82119e-07
-0.00013421
3.14344e-07
-0.000135117
2.85421e-07
-0.000137959
5.56277e-07
-0.000139411
9.67166e-07
-0.000139771
1.14713e-06
-0.000139864
1.17362e-06
-0.000139835
1.06194e-06
-0.000138571
9.08857e-07
-0.000135869
5.57719e-07
-0.00013471
2.90997e-07
-0.000134458
1.34779e-07
-0.000134474
4.48747e-08
-0.000135678
3.63669e-08
-0.000139047
3.91827e-07
-0.000140657
9.59304e-07
-0.000141037
1.22103e-06
-0.000141129
1.204e-06
-0.000141053
1.02825e-06
-0.000138875
7.91448e-07
-0.000135447
2.54618e-07
-0.000134206
-1.44655e-07
-0.000134084
-3.9794e-07
-0.000134165
-5.42944e-07
-0.00013593
-5.68596e-07
-0.000140024
-4.36273e-09
-0.000141868
9.16628e-07
-0.000142182
1.2668e-06
-0.000142258
1.2721e-06
-0.000141684
1.08416e-06
-0.000137723
6.64451e-07
-0.000133903
-4.70044e-07
-0.00013261
-1.1829e-06
-0.000132498
-1.66522e-06
-0.000132678
-1.83127e-06
-0.000135241
-1.8553e-06
-0.000139652
-1.09943e-06
-0.000141612
1.74874e-08
-0.000142102
5.3718e-07
-0.00014224
6.08186e-07
-0.000140793
6.88945e-07
-0.000134798
-3.22984e-07
-0.000130045
-2.32485e-06
-0.000128607
-3.89211e-06
-0.000128641
-5.01716e-06
-0.00012989
-5.59364e-06
-0.000133014
-5.66248e-06
-0.000134972
-5.51397e-06
-0.000135946
-6.14948e-06
-0.00013623
-7.40307e-06
-0.000134897
-8.30557e-06
-0.00013112
-1.06143e-05
-0.000131705
-1.79376e-05
3.14146e-05
-0.000130041
7.11523e-07
-0.000129802
8.01381e-07
-0.000129721
7.02208e-07
-0.000130749
6.86509e-07
-0.000132671
9.21458e-07
-0.000133357
1.12253e-06
-0.000133484
1.15719e-06
-0.000133455
1.125e-06
-0.000133309
1.03729e-06
-0.000132873
9.64266e-07
-0.000131797
8.97576e-07
-0.000131146
8.35338e-07
-0.000130886
7.73366e-07
-0.000130791
7.20169e-07
-0.000131473
6.71906e-07
-0.000133601
8.30233e-07
-0.000134631
1.08066e-06
-0.00013485
1.16017e-06
-0.000134842
1.13651e-06
-0.000134724
1.08082e-06
-0.000134291
1.01246e-06
-0.000132948
9.01029e-07
-0.000132156
8.21159e-07
-0.000131888
7.34762e-07
-0.000131802
6.72654e-07
-0.000132319
6.17442e-07
-0.000134504
7.49455e-07
-0.000135812
1.0322e-06
-0.000136135
1.16183e-06
-0.000136175
1.14401e-06
-0.000136111
1.08944e-06
-0.000135712
1.00143e-06
-0.000134101
8.6536e-07
-0.000133005
7.42431e-07
-0.000132671
6.20312e-07
-0.000132593
5.65073e-07
-0.000133069
5.0751e-07
-0.000135457
6.74115e-07
-0.000137027
1.03496e-06
-0.000137451
1.24583e-06
-0.000137532
1.23028e-06
-0.000137508
1.16044e-06
-0.000137114
1.04134e-06
-0.000135104
8.69782e-07
-0.000133568
5.69642e-07
-0.000133189
4.2425e-07
-0.00013313
3.53172e-07
-0.000133606
2.71413e-07
-0.000136288
4.44919e-07
-0.000138267
9.68899e-07
-0.000138806
1.28801e-06
-0.000138921
1.32622e-06
-0.000138942
1.22019e-06
-0.00013843
1.0625e-06
-0.000135762
8.21665e-07
-0.00013377
2.97117e-07
-0.000133309
1.78159e-07
-0.000133291
6.09064e-08
-0.000133758
-4.65386e-08
-0.000136885
1.09671e-07
-0.000139538
8.20386e-07
-0.000140188
1.28601e-06
-0.000140279
1.35828e-06
-0.000140292
1.21802e-06
-0.00013908
1.00743e-06
-0.000135514
5.65024e-07
-0.000133478
-1.31171e-07
-0.000132981
-5.10007e-07
-0.000132984
-6.21007e-07
-0.000133427
-7.29402e-07
-0.000136981
-5.36549e-07
-0.000140409
4.59467e-07
-0.000141382
1.24262e-06
-0.000141512
1.42304e-06
-0.000141493
1.31296e-06
-0.000139366
1.12004e-06
-0.000134664
1.71342e-07
-0.000131982
-1.19416e-06
-0.000131332
-1.74027e-06
-0.000131385
-2.06337e-06
-0.000132084
-2.29723e-06
-0.000135977
-2.1187e-06
-0.000139563
-1.01808e-06
-0.000140929
-6.54172e-08
-0.000141293
2.86861e-07
-0.000141256
3.30419e-07
-0.000138329
1.01566e-07
-0.000132264
-1.27337e-06
-0.000128706
-3.57562e-06
-0.000127921
-5.08008e-06
-0.000128092
-6.09246e-06
-0.000130273
-6.69132e-06
-0.000133243
-6.64637e-06
-0.000134746
-6.93882e-06
-0.000135271
-8.24971e-06
-0.000135154
-9.60003e-06
-0.000133265
-1.07667e-05
-0.000131248
-1.61817e-05
3.38247e-05
-0.000129638
8.12061e-07
-0.000129356
8.92401e-07
-0.000129227
8.01027e-07
-0.000129932
7.66867e-07
-0.000131944
9.69149e-07
-0.000132869
1.21385e-06
-0.000133066
1.26395e-06
-0.000133039
1.24241e-06
-0.000132927
1.17351e-06
-0.000132582
1.08706e-06
-0.000131468
1.01558e-06
-0.000130684
9.41286e-07
-0.000130383
8.44646e-07
-0.00013027
8.01002e-07
-0.000130694
7.19065e-07
-0.000132753
8.71239e-07
-0.000133958
1.1675e-06
-0.000134275
1.30331e-06
-0.000134317
1.28482e-06
-0.00013424
1.22999e-06
-0.000133962
1.14859e-06
-0.000132723
1.05178e-06
-0.000131652
8.86049e-07
-0.000131309
8.02355e-07
-0.000131189
7.08734e-07
-0.000131477
6.38515e-07
-0.00013353
7.4902e-07
-0.000135066
1.11013e-06
-0.000135505
1.31188e-06
-0.000135606
1.3023e-06
-0.000135571
1.2424e-06
-0.000135394
1.15038e-06
-0.000134059
1.04775e-06
-0.000132518
7.92961e-07
-0.000132021
6.93991e-07
-0.000131911
6.0821e-07
-0.00013209
5.36039e-07
-0.000134165
6.16518e-07
-0.000136219
1.03779e-06
-0.000136834
1.36583e-06
-0.000136987
1.37828e-06
-0.000137003
1.31898e-06
-0.00013685
1.19605e-06
-0.000135201
1.0576e-06
-0.000133231
6.97163e-07
-0.000132514
5.21256e-07
-0.00013238
3.82967e-07
-0.000132476
3.07515e-07
-0.000134461
3.34887e-07
-0.000137294
8.22907e-07
-0.000138248
1.34963e-06
-0.000138426
1.45327e-06
-0.000138461
1.40184e-06
-0.000138255
1.24802e-06
-0.000136039
1.07e-06
-0.000133568
5.77511e-07
-0.000132685
1.85109e-07
-0.000132545
2.31042e-08
-0.000132637
-5.91e-08
-0.000134473
-1.11985e-07
-0.000138187
4.36044e-07
-0.000139646
1.2543e-06
-0.000139858
1.51651e-06
-0.000139903
1.47896e-06
-0.000139468
1.30736e-06
-0.000136432
9.99747e-07
-0.000133468
1.382e-07
-0.000132303
-5.04724e-07
-0.000132075
-7.52304e-07
-0.000132159
-8.43808e-07
-0.000133734
-9.62957e-07
-0.000138173
-4.14516e-07
-0.000140563
8.21383e-07
-0.000141145
1.42124e-06
-0.000141249
1.47062e-06
-0.000140803
1.29242e-06
-0.000136713
1.0672e-06
-0.000132413
-3.69735e-07
-0.000130817
-1.71066e-06
-0.000130631
-2.18532e-06
-0.000130721
-2.53588e-06
-0.00013239
-2.76018e-06
-0.000136549
-2.24723e-06
-0.000139123
-1.07538e-06
-0.000140113
-3.50537e-07
-0.000140374
-1.62982e-07
-0.000140121
4.05433e-08
-0.000136418
-8.24484e-07
-0.000130784
-2.32136e-06
-0.000127891
-4.7563e-06
-0.000127493
-6.18663e-06
-0.000127941
-7.40691e-06
-0.000130759
-7.82877e-06
-0.000133377
-7.83806e-06
-0.000134645
-8.71406e-06
-0.000134824
-1.02174e-05
-0.000134604
-1.09904e-05
-0.000131163
-1.42155e-05
3.60603e-05
-0.000129382
9.29076e-07
-0.00012906
1.00816e-06
-0.000128925
9.23371e-07
-0.000129345
8.33107e-07
-0.000131388
9.95898e-07
-0.000132537
1.27748e-06
-0.000132807
1.37015e-06
-0.000132808
1.35296e-06
-0.000132713
1.30559e-06
-0.000132465
1.22049e-06
-0.000131427
1.14498e-06
-0.000130453
1.0242e-06
-0.000130088
9.44444e-07
-0.000129933
8.71511e-07
-0.000130099
7.78089e-07
-0.000131981
8.87897e-07
-0.00013354
1.24142e-06
-0.00013396
1.43686e-06
-0.000134027
1.42776e-06
-0.000133975
1.37003e-06
-0.000133826
1.28818e-06
-0.00013279
1.18028e-06
-0.000131491
9.88024e-07
-0.000130979
8.67629e-07
-0.000130831
7.73343e-07
-0.000130868
6.7719e-07
-0.000132516
7.1461e-07
-0.000134542
1.11299e-06
-0.000135185
1.43494e-06
-0.00013532
1.46894e-06
-0.000135328
1.42079e-06
-0.000135231
1.30147e-06
-0.000134233
1.21176e-06
-0.000132459
9.73228e-07
-0.000131697
7.54794e-07
-0.000131489
6.59963e-07
-0.000131473
5.6307e-07
-0.000132759
5.29428e-07
-0.000135462
9.02572e-07
-0.00013655
1.44851e-06
-0.000136758
1.54847e-06
-0.000136776
1.50005e-06
-0.000136719
1.38222e-06
-0.000135582
1.2651e-06
-0.00013328
9.60749e-07
-0.000132196
5.44873e-07
-0.000131915
4.15804e-07
-0.000131886
3.07673e-07
-0.000132729
2.44038e-07
-0.000136013
5.35278e-07
-0.000137811
1.27663e-06
-0.000138177
1.59202e-06
-0.000138222
1.59045e-06
-0.00013819
1.48365e-06
-0.000136769
1.33819e-06
-0.000133845
8.8345e-07
-0.000132498
2.82385e-07
-0.000132123
-4.29107e-08
-0.000132098
-1.08697e-07
-0.000132526
-2.08799e-07
-0.000135977
-1.58553e-08
-0.000138929
9.48141e-07
-0.000139637
1.62574e-06
-0.000139686
1.65101e-06
-0.000139652
1.5692e-06
-0.000138013
1.45271e-06
-0.000134113
7.23204e-07
-0.000132057
-3.23357e-07
-0.000131535
-7.90662e-07
-0.000131552
-1.06887e-06
-0.000131813
-1.21971e-06
-0.000134991
-1.18044e-06
-0.000139182
-5.04292e-08
-0.000140664
1.13672e-06
-0.000140907
1.51786e-06
-0.000140962
1.551e-06
-0.000139592
1.47573e-06
-0.000134686
7.59515e-07
-0.000131317
-1.03804e-06
-0.000130187
-2.25635e-06
-0.000130132
-2.73936e-06
-0.000130394
-3.00691e-06
-0.00013308
-3.17638e-06
-0.000136907
-2.36877e-06
-0.00013887
-1.27681e-06
-0.000139671
-7.9286e-07
-0.000139843
-7.18681e-07
-0.000139087
-6.63307e-07
-0.000134822
-1.6741e-06
-0.000129749
-3.59287e-06
-0.000127247
-6.10279e-06
-0.000127181
-7.48815e-06
-0.000128025
-8.88328e-06
-0.000131382
-9.04539e-06
-0.000133805
-9.39141e-06
-0.00013483
-1.05845e-05
-0.000135334
-1.13191e-05
-0.000131314
-1.21316e-05
3.80682e-05
-0.000129275
1.04699e-06
-0.00012891
1.11272e-06
-0.000128749
1.02221e-06
-0.000128956
9.15287e-07
-0.000130912
1.00024e-06
-0.000132332
1.30509e-06
-0.000132691
1.4921e-06
-0.000132715
1.47655e-06
-0.000132614
1.42886e-06
-0.000132422
1.35495e-06
-0.000131538
1.2699e-06
-0.000130428
1.14369e-06
-0.000129935
1.02755e-06
-0.000129745
9.6978e-07
-0.000129722
8.71876e-07
-0.000131163
8.77169e-07
-0.000133169
1.21389e-06
-0.000133813
1.5269e-06
-0.000133936
1.57437e-06
-0.000133886
1.50272e-06
-0.00013377
1.42781e-06
-0.000133015
1.31483e-06
-0.000131533
1.14321e-06
-0.000130837
9.32882e-07
-0.000130567
8.37124e-07
-0.000130493
7.62068e-07
-0.000131391
7.06672e-07
-0.000133932
1.00392e-06
-0.000135038
1.50518e-06
-0.000135249
1.63577e-06
-0.000135257
1.5993e-06
-0.000135203
1.48796e-06
-0.000134559
1.36459e-06
-0.000132634
1.19169e-06
-0.000131566
8.36239e-07
-0.000131215
7.29389e-07
-0.000131135
6.09924e-07
-0.000131572
5.0777e-07
-0.000134362
7.07796e-07
-0.000136237
1.36405e-06
-0.000136645
1.67365e-06
-0.000136688
1.70793e-06
-0.000136665
1.60128e-06
-0.000136058
1.46502e-06
-0.000133654
1.22715e-06
-0.000132174
7.30685e-07
-0.000131674
4.31172e-07
-0.00013158
3.13258e-07
-0.000131716
2.18408e-07
-0.000134142
2.9465e-07
-0.000137151
9.81856e-07
-0.000138015
1.6575e-06
-0.000138142
1.77968e-06
-0.000138143
1.70683e-06
-0.000137614
1.57434e-06
-0.000134814
1.27875e-06
-0.000132617
5.15181e-07
-0.000131821
1.58502e-08
-0.000131607
-1.87792e-07
-0.000131678
-2.64512e-07
-0.000133303
-3.14356e-07
-0.000137425
2.47809e-07
-0.000139341
1.41521e-06
-0.000139739
1.83091e-06
-0.000139796
1.85165e-06
-0.000139377
1.7476e-06
-0.000136015
1.51737e-06
-0.00013261
2.57586e-07
-0.000131388
-7.90624e-07
-0.000131092
-1.26636e-06
-0.000131118
-1.37152e-06
-0.000131888
-1.46997e-06
-0.000136136
-1.14261e-06
-0.000139413
3.09542e-07
-0.000140392
1.35089e-06
-0.000140584
1.61166e-06
-0.000140592
1.50003e-06
-0.000138398
1.20275e-06
-0.000133195
3.1694e-07
-0.000130469
-1.62355e-06
-0.000129741
-2.74263e-06
-0.000129774
-3.28591e-06
-0.000130365
-3.53053e-06
-0.000133627
-3.47834e-06
-0.000136766
-2.50413e-06
-0.000138264
-1.65523e-06
-0.000138913
-1.3605e-06
-0.000139043
-1.42021e-06
-0.000137989
-1.52782e-06
-0.000133531
-2.74874e-06
-0.000128856
-4.91901e-06
-0.000126632
-7.52375e-06
-0.000126704
-8.93087e-06
-0.00012825
-1.0311e-05
-0.000131915
-1.04885e-05
-0.000134109
-1.13131e-05
-0.000135468
-1.19234e-05
-0.000131746
-9.59427e-06
3.96676e-05
-0.000129298
1.1509e-06
-0.000128886
1.18672e-06
-0.000128708
1.08922e-06
-0.000128732
9.84647e-07
-0.000130369
1.00662e-06
-0.00013218
1.34004e-06
-0.000132661
1.58908e-06
-0.000132713
1.61294e-06
-0.000132639
1.57527e-06
-0.000132486
1.49347e-06
-0.000131813
1.40403e-06
-0.000130522
1.26973e-06
-0.000129877
1.1008e-06
-0.000129613
1.03978e-06
-0.000129516
9.66176e-07
-0.000130319
8.95719e-07
-0.000132725
1.15418e-06
-0.00013373
1.54576e-06
-0.000133919
1.70536e-06
-0.000133916
1.66849e-06
-0.00013381
1.57064e-06
-0.000133371
1.48104e-06
-0.000131773
1.31567e-06
-0.000130778
1.04863e-06
-0.000130406
9.12595e-07
-0.000130286
8.40337e-07
-0.000130523
7.45741e-07
-0.000132967
8.87378e-07
-0.000134839
1.43388e-06
-0.000135261
1.71879e-06
-0.000135281
1.76832e-06
-0.000135238
1.68915e-06
-0.000134927
1.5594e-06
-0.000133092
1.40213e-06
-0.000131608
1.01913e-06
-0.00013107
7.34487e-07
-0.000130911
6.6293e-07
-0.000130934
5.58391e-07
-0.000132748
5.57195e-07
-0.000135651
1.11103e-06
-0.000136578
1.72962e-06
-0.00013671
1.86536e-06
-0.000136695
1.80551e-06
-0.000136499
1.67836e-06
-0.00013459
1.51029e-06
-0.000132388
9.7017e-07
-0.000131577
4.86278e-07
-0.000131306
3.41508e-07
-0.000131271
2.54272e-07
-0.000132171
1.86236e-07
-0.000135804
5.52148e-07
-0.000137749
1.49814e-06
-0.000138104
1.89826e-06
-0.000138148
1.93788e-06
-0.000138077
1.80109e-06
-0.000136307
1.68158e-06
-0.000133078
9.97343e-07
-0.000131692
1.40426e-07
-0.000131326
-1.87323e-07
-0.000131287
-3.97173e-07
-0.000131559
-4.67307e-07
-0.000134823
-3.79138e-07
-0.000138452
7.5534e-07
-0.000139532
1.81541e-06
-0.000139658
2.00557e-06
-0.000139693
2.04013e-06
-0.0001386
1.90048e-06
-0.000134485
1.23833e-06
-0.000131756
-2.04029e-07
-0.000130725
-1.18097e-06
-0.000130513
-1.36796e-06
-0.000130595
-1.57536e-06
-0.000132385
-1.72325e-06
-0.000137142
-1.0389e-06
-0.000139738
5.65185e-07
-0.000140378
1.35276e-06
-0.00014048
1.47098e-06
-0.000140194
1.35836e-06
-0.000137039
1.08935e-06
-0.000132188
-2.95312e-07
-0.000129888
-2.24694e-06
-0.000129343
-3.255e-06
-0.000129375
-3.64766e-06
-0.000130439
-3.97795e-06
-0.000133973
-3.75935e-06
-0.000136634
-2.77701e-06
-0.000137867
-2.14901e-06
-0.00013839
-2.09267e-06
-0.000138432
-2.21357e-06
-0.000137044
-2.55507e-06
-0.000132561
-3.90227e-06
-0.000128037
-6.38984e-06
-0.000126042
-9.05893e-06
-0.000126247
-1.03486e-05
-0.000128863
-1.18087e-05
-0.000132427
-1.23328e-05
-0.000134698
-1.28923e-05
-0.000132259
-7.1645e-06
4.0466e-05
-0.000129441
1.23916e-06
-0.000128952
1.2312e-06
-0.00012875
1.15358e-06
-0.000128651
1.05202e-06
-0.000129742
1.03171e-06
-0.000131909
1.33557e-06
-0.000132654
1.63598e-06
-0.000132774
1.75455e-06
-0.000132719
1.72126e-06
-0.000132575
1.62567e-06
-0.000132106
1.54279e-06
-0.000130716
1.41374e-06
-0.000129893
1.21024e-06
-0.000129581
1.11036e-06
-0.00012944
1.02175e-06
-0.000129711
9.42203e-07
-0.000132004
1.06864e-06
-0.000133634
1.54668e-06
-0.000133981
1.79934e-06
-0.000133982
1.81493e-06
-0.000133914
1.74879e-06
-0.000133651
1.62587e-06
-0.000132227
1.51163e-06
-0.000130808
1.20626e-06
-0.000130303
9.82713e-07
-0.000130119
9.02198e-07
-0.00013011
8.33576e-07
-0.000131657
8.01112e-07
-0.000134378
1.24586e-06
-0.000135265
1.77478e-06
-0.000135374
1.90591e-06
-0.000135336
1.87526e-06
-0.000135202
1.76227e-06
-0.000133862
1.62301e-06
-0.000131837
1.24917e-06
-0.000131047
8.41727e-07
-0.000130736
6.85292e-07
-0.000130673
6.26991e-07
-0.000131266
5.30548e-07
-0.000134444
8.015e-07
-0.000136353
1.60273e-06
-0.000136728
1.94059e-06
-0.000136764
1.99912e-06
-0.000136727
1.88205e-06
-0.000135762
1.76244e-06
-0.000133042
1.35383e-06
-0.00013161
6.83419e-07
-0.000131099
3.5363e-07
-0.000130986
2.64826e-07
-0.000131101
1.5401e-07
-0.000133575
2.18153e-07
-0.00013702
1.01663e-06
-0.000138115
1.91235e-06
-0.000138281
2.0533e-06
-0.0001383
2.07625e-06
-0.00013771
1.96723e-06
-0.000134504
1.60955e-06
-0.000132057
5.29341e-07
-0.00013122
-1.88995e-07
-0.00013092
-4.8648e-07
-0.00013092
-5.4267e-07
-0.000131863
-6.18262e-07
-0.000136202
-1.88655e-07
-0.000138895
1.2241e-06
-0.000139579
2.05009e-06
-0.000139713
2.13887e-06
-0.000139675
1.98972e-06
-0.000137475
1.96822e-06
-0.000132929
1.00549e-06
-0.000130792
-6.60449e-07
-0.000130267
-1.3663e-06
-0.000130206
-1.73699e-06
-0.00013037
-1.87123e-06
-0.000133068
-1.92956e-06
-0.000137586
-9.19324e-07
-0.000139496
6.20252e-07
-0.000139933
1.25894e-06
-0.000140062
1.32684e-06
-0.000139685
1.16321e-06
-0.000135957
7.31707e-07
-0.000131221
-7.56586e-07
-0.000129245
-2.76271e-06
-0.000128906
-3.64807e-06
-0.000129005
-4.21287e-06
-0.000130706
-4.49178e-06
-0.000134171
-4.05975e-06
-0.000136353
-3.13078e-06
-0.000137433
-2.73747e-06
-0.000137869
-2.86265e-06