/*--------------------------------*- C++ -*----------------------------------*\
  =========                 |
  \\      /  F ield         | OpenFOAM: The Open Source CFD Toolbox
   \\    /   O peration     | Website:  https://openfoam.org
    \\  /    A nd           | Version:  12
     \\/     M anipulation  |
\*---------------------------------------------------------------------------*/
FoamFile
{
    format      ascii;
    class       surfaceScalarField;
    location    "0.7";
    object      phi;
}
// * * * * * * * * * * * * * * * * * * * * * * * * * * * * * * * * * * * * * //

dimensions      [1 0 -1 0 0 0 0];

internalField   nonuniform List<scalar> 
69079
(
-0.000205532
0.00011876
8.67723e-05
0.000166001
3.07642e-17
-0.000166001
-0.000179374
0.000179374
0.000167917
-1.91521e-06
-0.000176703
-2.67121e-06
-0.000176703
0.000103304
-0.00019142
8.81163e-05
6.36844e-06
0.000200181
-0.000203331
0.000169597
-0.000169597
-9.94755e-18
0.00016874
8.56803e-07
-0.000127916
-7.76163e-05
-0.000149673
0.0001608
-1.05399e-05
-0.000166388
0.000162809
3.57841e-06
-0.000165548
-8.40003e-07
4.5797e-06
-0.000146503
0.000141924
0.000168773
-3.36001e-08
0.000167933
8.40003e-07
-0.000168572
0.000166354
2.21761e-06
-0.000166724
-1.84801e-06
0.000168454
-0.000167513
-9.40804e-07
0.000167144
1.31041e-06
0.000170117
-0.00017257
2.45281e-06
-0.00018139
1.74049e-05
0.000163985
0.000194679
-0.000127731
-6.69483e-05
0.000160726
-2.02777e-05
-0.000140449
-0.000167933
-1.66321e-06
0.0001679
3.36001e-08
3.86402e-07
-1.68001e-08
0.00021522
-0.00020766
0.00015778
-0.000164838
6.98912e-06
0.000159416
-0.000172755
1.33393e-05
0.000186061
-2.66449e-05
0.000166203
9.40804e-07
-5.20802e-07
-0.000167833
3.10801e-05
0.000136753
0.000165934
-0.000165934
-3.11573e-17
3.86402e-07
-5.03172e-06
0.000135807
-0.000129531
-1.48681e-05
-0.000166522
0.000133813
3.4541e-05
-0.000168354
-0.000170038
2.07894e-05
0.000164775
-0.000164775
-2.72406e-18
-7.98003e-06
-0.000138503
0.000168334
-2.97766e-05
0.000164506
1.84801e-06
-1.42801e-06
-9.71884e-05
0.000185607
-8.84187e-05
0.000161432
-0.000161432
5.25296e-17
0.00018512
-2.36881e-05
0.000156879
2.82409e-05
0.000184129
-2.72497e-05
0.000159634
-4.73762e-06
-0.000154897
-0.000140305
0.00011182
-2.42499e-05
-0.000175846
0.00018013
-4.28398e-06
-0.00016778
7.20862e-05
9.58891e-05
0.000160222
-0.000160222
-2.99104e-17
0.000183541
-2.33185e-05
0.000161548
-2.10401e-07
-0.000161404
-9.02161e-05
-5.75437e-05
0.000147534
9.95068e-05
6.67467e-05
-0.000166253
0.000176883
-9.45465e-05
-8.37333e-05
-1.87657e-05
-0.000149067
6.53019e-05
-0.00016249
-0.000139852
0.000144432
0.000161969
8.40003e-07
-2.80561e-06
0.00019604
-0.00019604
-1.93517e-05
-0.000147843
-0.000151347
1.28549e-05
-6.63267e-05
0.00016963
0.000154342
2.91985e-05
0.000182247
-2.79049e-05
0.00016349
-1.97189e-05
-0.000143634
0.000169966
-0.000166472
-3.49441e-06
0.0001239
7.07787e-05
0.000148949
-0.0001532
4.25042e-06
-3.59521e-06
0.000152545
-0.000160659
1.47841e-05
0.000145875
0.000159416
2.66449e-05
-2.01601e-06
0.000152645
-0.000181592
2.89465e-05
0.00013603
2.36041e-05
0.000170252
-1.76065e-05
-0.000103152
-6.37058e-05
0.000166858
-0.000156056
0.000158055
-1.99921e-06
0.000151385
-0.000171461
2.00761e-05
0.000152629
-1.2432e-06
-6.36768e-05
-3.16249e-05
-8.26563e-06
-0.000133477
0.000141742
-9.2182e-05
0.000181222
-8.90403e-05
0.000190362
-5.6549e-05
-0.000168958
1.29025e-05
0.000156879
2.72497e-05
9.04684e-05
6.85947e-05
-0.000159063
-3.34321e-06
-0.000154426
-1.45321e-05
4.08242e-07
-0.000138258
0.00013785
0.000165906
-4.38328e-06
8.85531e-05
7.81707e-05
-0.000166724
7.07787e-05
-0.000162961
-0.000155787
1.36081e-06
0.000167866
-0.000167866
0.000169461
-1.16078e-05
2.64265e-05
-0.00018218
0.000155753
5.60954e-05
-0.000159248
-0.000157287
-1.26107e-05
0.000148563
-0.000173225
2.46625e-05
0.000151906
-3.34321e-06
9.00394e-06
0.000136019
-0.000145951
-1.04711e-05
0.000115114
-0.000123158
0.000154342
2.79049e-05
-2.72497e-05
-0.000136892
0.0001373
9.79444e-06
-0.00015782
0.000148025
-9.06238e-05
2.93533e-05
-9.901e-06
0.000149478
-0.000139477
5.89632e-05
-0.000149751
-0.000151584
-5.1977e-06
0.000156828
0.000150973
-0.000155121
3.83551e-06
-0.000161197
0.000138987
2.22097e-05
-5.77922e-06
-0.000170924
0.000148378
2.18737e-05
-6.88803e-06
0.000155266
-0.00017336
0.00017336
-0.00015816
6.5985e-06
-4.70906e-05
0.000146597
0.000189474
-0.000112613
-7.63681e-05
-0.000180636
7.36208e-05
0.000107014
0.000160037
-7.72803e-07
-0.000159265
0.000146043
-0.00017042
2.43769e-05
0.000150881
-4.83842e-06
0.000164338
-2.21761e-06
0.000147589
-0.000145371
0.000150932
9.10564e-06
0.000101708
-0.000161381
5.96738e-05
0.000147135
-0.000177577
3.04417e-05
0.000176165
-2.90305e-05
-2.20001e-06
0.000153184
-0.000101019
0.000190664
-8.96451e-05
-0.000125849
-2.73505e-05
0.000141994
-0.000168723
2.67289e-05
0.00014774
-5.74562e-06
0.000155055
-0.000166471
1.12696e-05
-0.000158777
3.29281e-05
-4.39332e-05
-0.000136702
0.000145421
-0.000175477
3.00553e-05
-2.60401e-05
-0.000130252
0.000124687
0.000111334
-0.0001196
-0.000131587
0.000139589
0.000178383
-0.000178383
0.000150529
4.03202e-07
-2.70481e-05
0.000156189
-0.000165674
9.56113e-06
-0.000156088
4.50491e-06
9.09963e-05
9.84083e-05
-0.000168236
2.66953e-05
0.000141541
0.000142868
-0.000173713
3.08449e-05
-0.00014942
0.000172957
-3.00889e-05
-0.000155006
-2.53881e-06
0.000132993
-6.08795e-05
-5.31722e-05
0.00015488
-2.43265e-05
0.000185053
0.000145421
3.07441e-05
-0.000145556
0.000143338
-3.00553e-05
0.000159352
-0.000159363
9.09052e-05
-0.000158441
6.75363e-05
0.000141171
-0.000172251
3.10801e-05
0.000171663
-3.04921e-05
-2.51161e-05
-0.000147454
0.000151957
1.27177e-05
-0.000164674
-2.84929e-05
-0.000153687
1.83321e-05
-0.000139209
0.000120787
-0.000106868
0.000167736
-6.28423e-05
-0.000150797
5.44322e-06
0.000145354
7.81082e-06
0.000155731
-0.00014292
0.00013312
0.000150881
0.000160288
-4.28536e-06
0.000139457
-0.000170957
3.15001e-05
-3.37681e-05
9.24004e-07
-0.0001469
0.000145976
0.000144111
8.51763e-06
-2.96017e-05
6.09963e-05
0.00010765
0.000144346
6.38402e-07
-0.000144985
1.49521e-06
0.000142851
1.13904e-05
0.000158576
-6.18746e-05
-7.89099e-05
0.000140785
-0.00018166
0.000104786
7.71082e-05
9.65164e-05
-0.000158391
4.87202e-07
0.000146732
-0.000147219
-0.000146782
0.000147269
0.000101961
-0.000124588
-0.000155216
0.000161415
-6.19922e-06
0.000132603
-0.000159181
2.65777e-05
0.000143523
-1.092e-05
-1.3304e-05
-0.000129135
0.000142439
8.74107e-05
6.22946e-05
-0.000149705
0.000141171
3.17857e-05
-3.10801e-05
2.20249e-05
-0.000153855
0.00013183
-0.000148951
-7.45362e-06
0.000155472
4.54754e-06
0.000136904
-0.000169597
3.26929e-05
0.000168437
-3.15337e-05
9.81628e-05
-0.000156951
5.87885e-05
0.000148378
-0.000138584
0.000160999
-0.00016594
0.000146984
4.97281e-06
-5.20802e-07
0.000158576
4.41863e-05
-0.000151152
-0.00015283
-2.38561e-06
0.000160629
-5.62401e-06
-9.22492e-05
-5.70866e-05
0.000149336
0.00013519
-0.000167715
3.25249e-05
0.000170924
-2.23945e-05
-0.000173645
-3.52297e-05
0.000126752
-0.000108218
0.000139457
3.22057e-05
-3.15001e-05
-0.000103791
-6.77715e-05
0.000171562
0.000167127
-0.000164859
-2.26801e-06
-1.94713e-05
0.00016753
-0.000148059
0.000129982
-0.000156291
2.63089e-05
0.000142297
-1.23144e-05
0.000140359
-0.000140818
4.8305e-07
-6.09842e-06
-0.000155098
-0.000172217
2.64097e-05
0.000145808
-3.08953e-05
-0.000141322
-2.16385e-05
-0.000151721
-6.18242e-05
0.000152293
-0.00019058
0.000102245
8.83347e-05
-0.000159315
0.000137895
2.14201e-05
0.000139409
9.06755e-07
0.000152981
-0.000145085
-7.90403e-06
-0.000180836
0.000159197
-0.000155686
-1.008e-07
-0.0001532
0.000155703
-2.50321e-06
-9.32572e-05
-9.73228e-05
9.10228e-05
-0.000162893
7.18707e-05
-8.73603e-07
-0.000165598
-5.51042e-06
-0.000162725
0.000155982
-6.13897e-07
-0.000160189
6.98883e-06
0.000132637
-0.000166657
3.40201e-05
-3.60865e-05
0.000148205
4.72586e-06
0.000127748
-0.000153737
2.59897e-05
-0.000163616
3.42721e-06
0.000141171
-1.34233e-05
0.000140247
1.16592e-05
-2.93497e-05
0.000161259
-0.000154411
-6.38566e-06
-4.28844e-06
0.000149065
-0.00014406
0.00016333
-0.00016333
-0.000204054
9.59284e-05
0.000108125
-8.70426e-05
0.000156425
-6.87305e-05
-0.000141079
-4.56722e-06
0.000147098
-0.000162857
-3.65916e-06
-9.61381e-05
-5.95624e-05
0.000155532
8.98972e-05
5.56418e-05
-0.000145539
0.000110003
-0.000123307
5.19122e-06
0.000156005
-0.000161197
0.00013519
3.32473e-05
0.000130083
-0.000164893
3.48097e-05
-3.25249e-05
-0.000172822
0.000153351
-0.000155031
0.000155031
0.000105656
6.2345e-05
0.000163313
-3.32305e-05
-2.73673e-05
-0.000153469
0.000136197
9.6634e-05
-0.000158712
6.20779e-05
-1.06206e-06
-0.000144564
9.87192e-05
-1.32512e-06
0.000149689
-0.000148018
0.000124875
-0.000151402
2.65273e-05
0.000139995
-1.51201e-05
0.000166993
-0.000168387
-0.000140482
0.000145673
-0.000100659
-8.11202e-05
-8.90124e-05
0.000152553
-6.29229e-05
-0.000159324
3.43644e-06
0.000157707
-0.000163376
5.72973e-06
-8.42523e-05
0.000171663
0.000164394
1.53048e-06
0.000163398
1.00683e-06
-0.000193839
9.613e-05
9.77092e-05
4.73426e-05
0.000138265
0.000163119
2.39814e-07
9.58309e-05
-0.000140206
4.43904e-05
0.000161869
5.66162e-06
0.000143651
-4.78104e-05
4.3193e-05
0.000128369
-0.000162557
3.41881e-05
0.000160992
0.000162037
-3.36673e-05
0.000167305
-2.78417e-05
-0.000137807
-0.00014873
-4.50535e-06
0.000153211
-0.000183054
0.000106428
7.66251e-05
0.000137475
1.34065e-05
-2.91817e-05
-5.61122e-05
0.000154275
0.000169669
-0.000169663
-0.000140062
0.000140701
0.000146833
-0.000145337
-9.53536e-05
0.00016147
-6.60772e-05
-2.73841e-06
-0.000157921
0.000126672
-0.000161264
3.45913e-05
-0.000150848
0.000154594
-3.74641e-06
0.000160743
-3.40705e-05
-0.000159445
0.000159981
0.000158147
4.9097e-06
3.72961e-06
-0.000149487
0.000145757
-0.000132108
8.71979e-05
-0.000130631
-1.07497e-05
0.000139625
-0.000157181
6.33362e-06
-0.000138315
-5.3105e-05
0.000131427
-0.000151705
0.000163372
-1.72693e-05
0.000158341
-6.76784e-07
-0.000154325
-2.85601e-06
0.000158895
-0.000158895
0.000124959
-0.00015997
3.50113e-05
0.000159466
-3.45073e-05
0.000119835
-0.000145724
2.58889e-05
0.000136568
-1.67329e-05
-9.19636e-05
-9.109e-05
-0.000162356
6.1337e-05
-0.000152259
-2.06641e-06
8.73002e-05
8.8335e-05
0.000154684
6.74121e-06
0.000135829
1.19112e-05
-2.90641e-05
-0.000152746
0.000140113
1.26336e-05
0.000173645
-0.000166993
-0.000134216
0.000149
0.000145237
-0.000153237
7.86549e-06
0.000147286
-6.08162e-06
-0.000141205
0.000123262
-0.000158693
3.54313e-05
0.000158173
-3.49105e-05
-5.49362e-06
-0.000153821
-0.000150698
0.000157111
-5.67302e-06
9.40804e-07
-0.000151738
0.000133279
-2.22462e-05
-7.20891e-05
0.000160642
4.33594e-07
-0.000175166
2.86626e-05
-0.000140318
-1.55895e-05
0.000149117
-6.82083e-06
-0.000142297
0.000128369
3.49441e-05
0.000156005
-6.51003e-05
-3.41881e-05
-0.00015787
0.000143338
1.45321e-05
7.24035e-06
-0.000147762
-0.000201937
0.00011792
8.40171e-05
-0.000149437
4.95602e-06
0.000144481
-9.15268e-05
-0.00011041
5.56082e-06
0.000141793
-0.000147353
-0.00015026
6.95523e-06
0.000143305
-1.04328e-05
-0.000139827
-0.000156308
0.000145875
0.000121548
-0.000157383
3.58345e-05
-0.000150663
3.86402e-06
0.000146799
0.00015026
-6.43443e-06
-0.000143825
-5.12402e-06
0.000149504
-0.00014438
0.000145136
0.000156879
-3.53305e-05
0.000151889
-6.58563e-06
-0.000145304
0.000159302
-1.1915e-06
-0.000161652
-1.69009e-05
-0.000155921
-6.70323e-06
0.000151553
-0.00014485
8.76627e-05
5.83298e-05
-0.000145993
-0.000154678
6.2429e-05
-7.99925e-05
-8.58269e-05
-0.000171409
3.98226e-05
0.000126672
3.53641e-05
1.41778e-05
-0.000220361
-3.45913e-05
7.39203e-06
0.000139894
-0.00014144
1.05e-05
0.00013094
0.000119852
-0.000156106
3.62545e-05
-6.83397e-06
0.000166037
0.000150411
-5.94722e-06
-0.000144464
-0.000155224
-8.07129e-06
0.000155569
-3.57169e-05
-9.65033e-05
0.000151942
-5.55691e-05
0.000167009
-1.49521e-05
-0.000152057
0.000205096
-4.72591e-05
-0.000157213
0.000153517
3.88136e-06
0.000157165
-0.000156953
-0.000162272
9.60964e-06
0.000152662
3.48532e-06
0.000146923
-0.00015031
-8.56635e-05
0.000154258
0.000113854
-0.000139558
2.57041e-05
-1.98577e-05
0.000133712
1.42102e-05
0.000156459
-5.64482e-06
0.000149537
-0.000143893
-1.45489e-05
0.000129529
-0.00011498
0.000176871
-0.00010458
-7.22907e-05
3.30961e-06
-0.000149974
0.000146665
3.20881e-06
-0.000155468
0.000154342
-0.000154342
-0.000145371
0.000147219
-1.84801e-06
0.000152613
-0.000158367
5.72313e-06
-0.000134333
0.000135257
-9.28841e-06
0.000156474
-0.000147127
2.40241e-06
-0.000149873
0.000147471
7.9013e-05
8.31557e-05
-0.000162995
-1.66321e-06
0.000157366
-0.000152175
-1.94881e-06
0.000154124
-0.000153911
-1.71313e-07
0.000149017
-0.000146614
0.000137441
4.3781e-05
0.000118138
-0.000154796
3.66577e-05
-6.60579e-05
-7.39035e-05
0.000139961
0.000124959
3.57841e-05
-0.00017551
0.000109452
0.000150021
-5.33872e-05
-4.10426e-05
-3.50113e-05
-0.000184885
0.000105504
7.93803e-05
-8.88576e-05
0.000166238
-7.80792e-05
8.46505e-05
8.13661e-05
-0.000166017
-9.28036e-05
0.000158105
-0.00015278
0.00014527
7.50963e-06
-0.00015404
1.26e-06
-0.00015331
6.5537e-06
0.000147042
3.86849e-06
0.000102054
-0.000142145
-4.03202e-06
0.000146177
-0.000132586
0.000118037
7.49947e-05
-0.000151677
0.000138876
-0.000151484
5.20802e-07
0.000145405
-0.000145925
6.14374e-05
-0.000150111
-9.75748e-05
-8.73099e-05
-4.09033e-06
0.000151421
-0.000147076
-0.000157472
-8.03317e-06
-0.00018806
0.00010915
-3.81361e-06
-0.000158458
0.000159278
-0.000159452
-0.00013094
0.000157635
-0.000146147
0.000145097
-9.57128e-06
0.000156623
-0.000146912
-3.20377e-05
-0.000122993
8.8305e-05
-0.000184134
-4.50074e-05
0.000150663
-0.000148849
4.68721e-06
0.000144161
2.30693e-06
9.96141e-05
-0.000145798
6.66963e-06
-0.000151133
0.000144464
0.000123262
3.62041e-05
0.00015008
-4.29869e-06
-0.00014539
0.000149605
-8.06403e-07
-0.000148798
4.23065e-06
0.000146026
0.00014972
-0.000145364
-3.54313e-05
-0.000147219
-3.44401e-06
3.76145e-06
0.000145896
-0.000161768
0.000167211
-0.000147118
0.00014821
-1.092e-06
5.56082e-06
0.000143456
0.000143691
5.81282e-06
-0.000147572
4.53602e-07
-8.17625e-05
-6.39007e-05
0.000145284
-0.000176471
3.82134e-05
0.000103356
-0.00014311
-3.75516e-06
0.000114543
-0.000154342
3.97994e-05
0.000159297
-0.000153979
-5.68852e-06
-2.68527e-06
0.000158713
0.000151805
-3.72625e-05
5.60316e-05
-0.000152097
0.000115332
-0.000135661
2.03281e-05
-2.18569e-05
0.000137189
-0.000153149
0.00014107
1.20792e-05
0.00013976
-1.2348e-05
-0.000152511
0.000158257
-8.00859e-05
-5.34194e-05
0.00012704
-0.000152477
0.000146967
-3.91673e-06
-0.000142206
-9.39628e-05
-9.98764e-05
-0.000121605
1.44346e-06
0.000120365
-0.000144531
0.00014059
-2.45797e-06
0.000151389
-0.000148529
-8.97661e-06
-0.000137063
0.000145658
-3.53681e-06
0.00015167
-0.00014847
0.000178467
-8.72427e-05
-9.12244e-05
7.62723e-06
0.00014149
0.000121548
3.66241e-05
-0.000160657
1.36818e-05
0.00014699
-0.000146401
6.01991e-06
-3.58345e-05
0.000113518
-0.000151201
3.76825e-05
-4.2773e-05
0.000113854
-0.000133964
2.01097e-05
-0.000143564
0.000139638
-0.000142767
-6.66963e-06
-2.27305e-05
0.000136585
6.66203e-06
6.71835e-05
0.000109688
0.000159903
-0.000156593
0.000151033
-1.42801e-06
-0.000151564
6.49139e-05
0.000149319
-5.02322e-06
-0.000144296
-0.000214322
0.000166523
0.000138869
-0.000116844
1.41121e-06
-0.000141473
-4.24536e-06
-0.000146699
0.000151151
-4.04882e-06
0.000158643
8.61507e-05
8.06235e-05
-0.000166774
0.00010244
8.55797e-05
-0.000188783
-0.000135056
-8.30901e-06
0.000144316
6.71847e-06
-0.000154423
0.000147692
9.76084e-06
0.000153569
-0.000153721
0.000154549
-0.000147818
0.000151873
-0.000153956
2.08321e-06
6.5227e-06
0.000148122
-8.70234e-06
0.000156511
-0.000147784
0.000156472
-0.000149842
-0.000160558
-9.15255e-05
0.000171159
-7.25792e-05
-9.34188e-05
0.000173032
-7.90276e-05
-0.000180382
4.94426e-05
0.000146353
-0.000150236
8.68362e-06
-0.00015576
0.0001472
-1.68841e-05
0.000162406
-0.000145522
0.000166069
-0.000103774
0.000119852
3.70273e-05
-0.000144397
4.48562e-06
0.000139911
0.000104748
-0.000176367
7.16187e-05
0.000151777
7.4006e-06
-0.000152175
-0.00017929
0.000104211
7.50795e-05
-3.62545e-05
0.000144061
-0.000140331
-0.000152158
-1.69681e-06
-0.000143034
0.000147594
-4.55954e-06
3.56497e-06
-0.000146599
-0.000142309
0.000128157
1.4004e-05
-0.000152019
0.000152173
-1.54561e-07
-0.000149843
-2.17561e-06
0.000111687
-0.000152057
4.03706e-05
-0.00015386
-2.79389e-07
0.000149554
-3.78673e-05
-0.000162083
0.000104248
-0.000154191
0.000149603
4.5881e-06
-0.000154796
6.04802e-07
-0.000149798
0.00014988
-8.23203e-08
-0.000150193
3.94802e-07
-0.000153855
-0.000152225
0.000147303
4.92242e-06
-0.000152897
1.1508e-05
0.000141389
0.000148946
-0.000151036
-0.000121436
4.91367e-08
-0.000152696
5.79602e-06
0.0001469
-0.000143573
-3.91442e-06
0.000147488
0.000118575
3.29281e-06
0.000141994
-0.000145287
-0.000147353
-3.19201e-06
0.000150545
-0.000149403
3.14161e-06
0.000146261
-8.78979e-05
-0.000116156
5.48865e-06
0.000156291
-6.52683e-05
0.000151959
6.19922e-06
0.000143657
2.23441e-06
-0.000145892
1.176e-06
0.000147404
-0.00014858
-0.000138864
0.000154342
-6.44451e-05
0.000151906
-7.19043e-06
-0.000144716
-0.000150865
2.21761e-06
0.000148647
0.000118138
3.74305e-05
-0.000148699
7.39203e-07
0.00014796
0.000141994
2.45281e-06
-0.000144447
-3.66577e-05
0.000154512
-2.60611e-06
-0.000148317
-3.50034e-06
0.000151816
9.12244e-06
4.98842e-06
-0.000153329
-0.000146332
0.000151308
5.08575e-06
-0.000151501
-9.31307e-05
0.0001131
0.000150562
-4.92242e-06
-0.00014564
0.000110511
-0.000149117
3.86066e-05
-4.32266e-05
0.000160348
-0.000160297
-0.00020597
0.000137482
1.57984e-06
-0.000148781
2.83921e-06
0.000145942
-8.88555e-05
-9.92044e-05
-0.000145851
0.000126207
0.000149621
-0.000148697
-9.24004e-07
-0.000158071
9.31642e-06
-0.000156651
6.13181e-05
-0.000144783
-5.09042e-06
-0.000153656
0.000149127
5.32562e-06
0.000140062
-0.000145388
-0.000151133
5.59442e-06
0.000145539
0.000165982
-0.000181252
0.000157954
-0.000150327
0.000145421
-0.000152007
-0.000161929
0.000229519
-2.10565e-06
0.000153723
-7.79074e-06
-0.0001459
0.000147437
-0.000154141
0.000150125
0.000153336
-0.000153699
-0.000151422
0.000152039
-6.16562e-07
-0.000149877
-1.54561e-06
-0.000154243
0.000152059
2.18401e-06
-0.000152847
-1.39609e-06
-0.000154215
0.000152069
2.14537e-06
-0.00015286
-1.35409e-06
-0.000154186
0.000152084
2.10169e-06
-0.000152869
-1.31713e-06
0.000176921
-0.000115274
-7.88141e-06
-0.000143671
0.000151488
-0.000154161
0.000152103
2.05797e-06
-0.000162816
8.61556e-05
7.68958e-05
-0.000152882
-1.27846e-06
-0.00015412
0.000152118
2.0027e-06
0.000151301
0.000161213
-0.000141725
-1.94881e-05
0.000118306
1.72705e-05
-0.000135577
-0.000152901
-1.21887e-06
0.000152377
-0.000154122
0.000152127
1.98766e-06
0.000155686
6.72003e-06
-0.000152917
-1.20311e-06
-0.000177286
4.03941e-05
-0.000144822
-4.82651e-06
0.000149817
-0.00015373
0.000152291
1.45063e-06
-8.85363e-05
-6.84267e-05
0.000156963
-0.000152873
-1.02597e-06
0.000135674
-0.000139673
3.94102e-06
5.61122e-06
-0.000144598
0.000138987
-0.000163363
0.00015387
9.12831e-06
-0.00014648
-7.56003e-06
-0.000154188
-9.00601e-06
1.37761e-06
-0.000147857
-0.000131148
-1.14229e-05
6.97539e-05
-0.00015829
-0.000147212
-6.54459e-06
0.000132821
-1.45153e-05
-0.000144766
0.000151453
-6.68643e-06
-0.000147757
2.99041e-06
-0.00016309
0.000153644
9.62e-06
-0.000154439
-8.7369e-06
-6.23282e-06
0.000146614
-0.000140381
-5.65907e-06
0.000150529
-0.000144845
-0.000163066
0.000153009
9.75617e-06
-0.000154947
-8.13149e-06
0.000149535
-0.000153116
3.64775e-06
-3.42721e-06
0.000162322
-0.000160558
-0.000164011
0.000154164
9.72781e-06
0.000111368
-0.000151201
3.9833e-05
-0.000154939
-9.05627e-06
4.09922e-06
-0.000144447
0.000140348
0.000125916
1.76065e-05
-0.000163587
0.000153996
9.71116e-06
0.000145951
-9.48311e-06
-0.000136511
-0.000154654
-8.92979e-06
0.00014858
-3.72121e-05
-2.84257e-05
3.49441e-06
-0.000144413
0.000140919
0.000146799
-0.000150797
3.99842e-06
-1.68001e-08
0.000146816
-0.000163708
0.000153987
9.58823e-06
-0.00015494
-8.90972e-06
-0.000126882
7.91107e-05
1.28798e-05
4.97282e-06
-0.000144665
0.000139693
5.99762e-06
-0.000145808
0.00013981
-0.000162868
0.000153316
9.54245e-06
2.64654e-06
-0.000144196
0.00014112
-0.000154885
-7.94547e-06
-8.78563e-06
0.000146498
-0.000151721
-4.58642e-06
-0.000162676
0.000153356
9.30822e-06
-0.000154968
-7.68308e-06
-0.000148781
0.000149655
-8.73603e-07
-0.000148496
0.000151301
-2.80561e-06
-5.71202e-07
7.47223e-05
-0.000158551
-4.20002e-07
-0.000148076
-0.000144497
0.00015336
0.000156207
-0.000153834
-2.43472e-06
-8.20503e-05
-8.28762e-05
0.000149067
-0.000163103
0.000154138
8.95558e-06
9.24004e-07
0.000145489
-0.000146413
-0.000154911
-8.15292e-06
-4.87202e-07
-0.000145892
0.000146379
-5.77922e-06
0.000144917
-0.000139138
1.02124e-05
-0.000154665
-0.000145383
0.0001557
-0.000162688
0.000154006
8.72891e-06
-0.000154818
-7.87602e-06
-0.000153002
5.63582e-06
0.000147058
-0.000145269
-1.02531e-05
0.00015562
-0.00016177
0.000153187
8.4631e-06
-0.000153898
-0.000154955
-6.85989e-06
-0.000154107
0.00015661
-2.50321e-06
-1.75218e-06
-0.000155167
-0.000162208
0.000154037
8.07246e-06
-0.000154929
-7.22967e-06
-0.00014984
2.94001e-06
-4.84609e-06
-0.000161688
0.000154059
7.81773e-06
-0.000154677
-6.87578e-06
-6.71196e-05
-9.23319e-05
8.40003e-08
0.000146278
-0.000146362
-0.000147471
0.000147555
0.000146009
-0.000144598
-0.000161344
0.000153895
7.45922e-06
-0.000152825
5.71832e-06
0.000147032
-0.00015485
-6.59143e-06
-1.41014e-06
0.000145416
-0.000140433
-0.000192279
0.000221883
-0.000153404
6.20925e-06
0.000147292
-1.03516e-05
-0.00016134
0.000154053
7.27095e-06
-0.000154871
-6.38776e-06
0.000148772
7.27384e-06
-0.000160676
0.000153969
6.93643e-06
-0.000154624
-5.98882e-06
4.29051e-07
-0.000150841
0.000138632
-0.00015238
0.000154739
-2.35873e-06
-0.000132064
-6.85186e-05
0.000132384
-1.28804e-05
0.000108528
-0.000148042
3.95138e-05
7.57683e-06
-0.000160474
0.000131838
-2.79474e-06
-0.000127174
-4.28738e-05
-0.000143746
7.51785e-06
0.00013632
-1.00673e-05
-0.000202881
-8.77803e-05
-8.29419e-05
0.000170722
-0.000151127
0.000151995
-8.68563e-07
-0.000153223
8.43363e-07
-1.24656e-06
0.000113064
3.8741e-05
0.00014648
-0.000145556
-0.000152308
0.000153195
-8.87043e-07
0.000145993
0.000123296
4.01522e-06
-0.000127311
-1.34401e-07
-3.81361e-05
0.000133544
-1.0248e-05
0.000153879
8.60163e-07
-9.17284e-07
-1.99579e-06
0.000144623
-5.26491e-06
-0.000138737
0.000153939
-2.06641e-06
-2.0601e-06
0.000155506
8.12354e-05
9.65133e-05
-0.000174217
0.000102027
7.21899e-05
-0.000111536
-6.88467e-05
-1.90009e-05
0.00015283
-6.19922e-06
-0.000146026
-0.000156308
-0.000168001
8.80701e-05
-0.00014354
0.000144716
0.000144649
-0.000148627
4.53602e-06
-0.000146711
-4.42036e-06
0.000151131
0.000167524
-6.57637e-05
-0.000146928
-3.47337e-06
0.00015049
7.8096e-06
-0.000145823
0.000137688
-0.000146967
1.59601e-06
-0.000152805
5.61385e-05
0.000158173
-0.000123632
-7.17124e-06
0.000151161
-0.000144027
-1.03656e-05
-0.000142011
0.000152377
9.45172e-05
-0.000161348
6.68307e-05
0.000141641
-0.000147874
0.000151251
-0.000133846
-0.000197149
0.000116542
8.06067e-05
-0.000147528
-3.95045e-06
0.000151537
3.44456e-06
-0.000150095
-0.000171468
8.52385e-05
0.000128554
8.04723e-06
-0.000136601
0.000140482
-1.1928e-05
-7.44243e-06
2.83202e-06
-0.000157417
1.07352e-05
5.28624e-06
-0.000152183
0.000149237
-0.000153775
4.62018e-06
0.000142246
-0.000147891
6.06862e-05
-0.000210741
0.000144296
5.24162e-06
-0.000155098
0.000151369
3.72961e-06
0.000155642
-0.000159585
-0.000152528
-1.42801e-06
3.85214e-06
-0.000151396
-8.25487e-05
0.00012873
-4.3898e-05
4.45702e-06
-0.000151202
0.000147129
0.000120708
1.71865e-05
-0.000137895
0.000146185
-0.000150016
0.000105773
-0.000147353
4.15802e-05
0.00013519
-1.44817e-05
-7.79523e-06
-0.000143857
0.000147459
-0.000148817
0.00013892
-0.000149285
0.000144397
-3.86234e-05
-1.3384e-05
-0.000134497
0.000140789
-0.000146396
0.000146917
-8.73603e-05
0.000170521
-8.31603e-05
-0.000161858
0.000154774
7.04755e-06
-9.08581e-06
0.000142882
-0.000150727
-8.95275e-05
-8.97627e-05
0.000129586
-0.000148804
-1.32389e-05
0.000138069
0.000151318
-0.000108125
-8.84639e-05
0.000162922
-7.39783e-05
0.000146261
-0.000155775
-4.81963e-06
0.0001723
-9.45937e-06
-0.000125615
4.36229e-05
-1.99777e-06
0.000137625
6.21602e-07
0.000153721
-0.000158391
7.40883e-06
0.000149302
-0.000156711
-0.000161969
0.000155103
6.79172e-06
-8.71598e-06
-0.000148504
-1.37257e-06
2.75521e-06
0.000138433
-0.000141188
-0.000152477
0.000123716
1.85809e-05
-0.000161698
0.000155083
6.52327e-06
-0.000176933
3.70811e-05
0.000145186
-0.000142431
-8.42343e-06
-2.83417e-05
0.000148386
3.14812e-06
3.87467e-06
-0.000150579
0.000147076
0.000153166
-6.55035e-05
-0.000149043
-4.21766e-06
-0.000142626
0.000146187
0.000136884
-2.99542e-06
0.000151605
7.44877e-06
-0.000145646
0.000138284
-0.000160588
0.000154969
5.66624e-06
-0.00014312
9.74404e-07
0.000142801
-7.43382e-06
0.000163582
-0.00010794
-0.00014312
-6.72003e-06
0.000143983
-0.000148585
0.000147506
4.27687e-06
0.0001532
-2.78881e-06
0.000102615
-0.000142549
3.99338e-05
6.00446e-06
0.000139687
-0.000145075
-0.000151501
0.000145837
0.000161943
-0.000152517
0.000142683
-4.00682e-05
4.64284e-06
-0.000146562
0.000141547
-6.40505e-06
0.000147088
-0.000140448
9.24961e-06
0.000135291
-0.000143773
-0.000135445
0.000145942
0.000183625
-0.000145371
-3.82537e-05
1.06008e-05
-0.000145337
0.000134737
-9.78392e-05
9.40517e-05
-9.61231e-07
0.000145069
-0.000134468
6.57723e-05
0.000117852
0.00014934
4.15822e-06
4.35991e-06
-0.000146464
0.000141947
5.54772e-06
-0.000146037
0.00014088
1.22808e-05
0.000136131
-0.000148412
1.34401e-06
0.000145875
-0.000152047
-0.000156257
0.000138158
-0.000147382
0.000151955
4.74028e-06
-4.55282e-06
0.000147337
-0.000142649
0.000175189
-0.000151992
0.000148916
-0.000154393
1.91521e-06
2.35201e-07
0.000151906
-3.52801e-07
7.30836e-06
-0.000150848
0.000141956
-0.00015212
-2.98809e-06
0.000124814
-0.000143058
-0.000145976
0.000139155
0.000110796
3.87578e-05
-0.00014989
0.000148899
9.91204e-07
0.000158046
-0.000153038
-4.81926e-06
0.000153847
4.43593e-06
-3.83209e-05
0.00014821
-2.80561e-06
0.000157561
-0.000153144
-4.53004e-06
-0.000157586
0.000153739
3.78229e-06
0.000153546
4.06621e-06
1.33225e-05
0.000140566
-0.000153889
-0.00012842
0.000141742
1.54897e-05
-0.000143909
-0.000141809
0.000135728
-0.000153228
-4.29087e-06
8.25159e-07
0.000116156
-0.000134081
1.79257e-05
-5.50762e-07
0.000150322
0.000144481
-0.000141546
0.00014586
0.000122758
-6.60243e-06
-0.000147665
-0.00010532
0.000133964
-2.86441e-05
0.000158744
-1.11552e-05
0.000145976
-0.000133695
0.000101103
-0.000141238
4.01354e-05
0.000141524
-4.0421e-05
0.000117387
-0.000126909
0.000161633
-9.04735e-06
3.49105e-06
-0.000139093
0.000144841
-3.5477e-06
-0.000130544
0.000119465
-0.000129983
5.37363e-06
-0.000144533
-0.000148471
-1.72201e-06
1.13232e-06
0.000150992
-0.00014374
0.000146141
6.40082e-06
0.000136635
-0.000143036
0.000142532
9.59679e-06
-0.000154952
-0.000133813
-8.79565e-06
-3.56201e-06
-0.000107423
-0.000153098
-3.40575e-07
9.24004e-07
0.000144632
-0.000145556
-0.000148094
-5.12906e-06
0.000156123
-0.000156123
5.1005e-06
-9.01828e-05
-0.000106966
-0.00014843
-1.41289e-06
-0.000165001
-8.36643e-07
-7.39875e-05
-0.000100229
6.94606e-06
-0.000153971
-0.000136207
-0.000228866
-3.81823e-06
0.000133473
-0.00014928
1.6167e-05
-0.000123776
-1.41995e-05
0.000143829
0.000126855
1.18796e-05
-0.000138451
-0.000151966
0.00015211
-0.00017623
0.000169696
-9.50566e-07
1.70857e-05
-0.000122405
-0.00015309
1.674e-05
-0.000153863
-1.18718e-06
-0.000149021
-3.83291e-06
-0.000149218
-3.70202e-06
-0.000158748
4.01223e-06
-2.68751e-06
-0.000154544
1.79761e-06
-0.000158735
7.68044e-05
3.17024e-06
-0.000149143
-3.7579e-06
-5.15339e-06
0.000153115
2.89669e-06
0.000148741
-0.000157399
8.63218e-06
-0.00015911
4.35743e-06
2.95982e-06
-0.000182331
0.000102128
8.02035e-05
-0.00014907
-3.81193e-06
-5.10519e-06
3.01393e-06
-0.000146497
0.000150579
-4.08242e-06
-0.00015913
4.38653e-06
0.000152634
-0.000164609
1.19829e-05
-0.000149013
-3.85562e-06
3.05593e-06
-4.24947e-06
-0.000148963
-3.89762e-06
0.000149174
-0.000151611
2.43603e-06
-0.00015919
4.45519e-06
3.09625e-06
-5.96402e-06
-0.000148911
-3.93626e-06
-5.37292e-06
-0.000152998
-1.1088e-06
-0.000159389
4.42815e-06
3.12817e-06
-0.000164792
7.74315e-05
0.000137441
-0.000143876
9.76588e-05
-0.000139693
4.20338e-05
-5.32929e-06
3.15841e-06
0.000149605
-2.87281e-06
-0.000147101
-4.70402e-07
-0.000159156
4.29068e-06
0.000149764
-0.000144721
3.84721e-06
-0.000146967
4.20002e-06
-1.51201e-06
-5.18261e-06
-4.8065e-05
1.24772e-05
0.000128166
-0.000140003
-0.000159031
4.10234e-06
2.21761e-06
-0.00013958
-1.57502e-06
0.000141316
-3.93045e-06
-0.000158706
3.84199e-06
-3.62759e-06
0.000168241
-0.000158511
3.6171e-06
-4.45892e-06
-0.000158324
3.41231e-06
1.73041e-06
-0.000150428
1.31713e-05
-0.000140902
-4.2228e-06
7.15683e-06
-0.000144716
0.000137559
-0.000157836
3.03544e-06
0.000162053
-8.40003e-07
-0.000137391
0.000144548
-0.000148748
-1.1424e-06
-2.72684e-06
-2.00735e-06
-0.000142513
0.000144703
-0.00012867
-1.15265e-05
0.000141026
-0.000157366
2.69532e-06
-3.47821e-06
-0.000157336
2.48302e-06
0.000122859
1.83121e-05
-3.19765e-06
-0.000132936
-1.49662e-05
0.000149764
-0.000156894
2.22526e-06
0.000147958
0.00015514
-5.63792e-06
-2.83417e-05
-2.84447e-06
-1.611e-06
-0.000151782
-0.000149403
0.000149244
2.46517e-06
-0.000156529
1.83969e-06
-0.000156967
0.000153949
2.8434e-06
-0.000153449
-3.48906e-06
2.02945e-05
-0.000138937
0.000118642
-2.62047e-06
-0.000156422
2.62133e-06
-2.28146e-06
-7.23747e-05
-9.86836e-05
0.000171058
-1.18479e-05
-0.000128372
0.000139431
0.000139406
-0.000143871
8.67469e-06
-0.000152864
3.36001e-07
0.000126763
-0.00013936
-6.55203e-06
0.000145808
-0.000139256
1.14893e-05
-0.00014545
-1.19165e-05
0.000140731
1.15841e-05
0.000137207
-0.000143823
-9.2014e-05
0.000178165
-0.000147052
-0.000110298
0.000134259
-2.2282e-06
5.44322e-06
0.000142935
2.68801e-07
0.000146161
-0.000146429
-3.36001e-07
0.000146967
-0.000146631