/*--------------------------------*- C++ -*----------------------------------*\
  =========                 |
  \\      /  F ield         | OpenFOAM: The Open Source CFD Toolbox
   \\    /   O peration     | Website:  https://openfoam.org
    \\  /    A nd           | Version:  12
     \\/     M anipulation  |
\*---------------------------------------------------------------------------*/
FoamFile
{
    format      ascii;
    class       volScalarField;
    location    "8.8";
    object      rho;
}
// * * * * * * * * * * * * * * * * * * * * * * * * * * * * * * * * * * * * * //

dimensions      [1 -3 0 0 0 0 0];

internalField   nonuniform List<scalar> 
45568
(
2.36126
1.46521
2.69183
1.68634
1.12204
1.47686
1.8484
1.40001
0.916041
1.80914
2.29198
2.10766
1.83543
1.40001
0.890695
0.592974
1.40001
1.40001
1.27014
1.78873
1.40001
2.69446
1.82275
1.40001
1.40001
1.47612
1.40001
1.40001
0.57311
1.80726
1.18975
1.40001
1.36
1.73374
1.71806
1.91407
1.13113
1.40001
1.79834
1.40001
1.40001
0.583699
1.40001
2.1207
1.40001
3.12435
0.584667
2.75898
1.72312
1.40001
2.28844
2.13509
1.40001
1.66042
2.23731
2.69117
2.51142
1.94504
1.8896
1.15939
1.40001
1.89274
1.40001
1.40001
2.144
2.1199
1.40001
1.27825
1.87956
2.83418
1.00972
0.810799
2.28601
1.82179
2.52694
1.40001
1.40001
1.51231
1.1513
1.40001
1.94622
1.63337
0.81284
2.26759
1.95589
1.40003
2.00136
1.5245
1.86017
0.909235
1.83338
1.40001
1.95309
2.78484
1.40001
1.40001
2.82075
1.97874
1.28024
1.81653
1.06757
1.96452
2.2529
1.40001
1.40001
1.40001
1.40001
2.70013
1.40001
2.77585
1.40001
0.950706
1.75074
1.40001
2.79295
1.40001
1.40001
2.24697
2.22297
1.67164
1.40001
1.8781
2.6898
2.68725
1.40001
1.87917
2.34889
2.0951
2.43449
1.40001
2.07679
2.59881
2.38445
1.40001
0.580746
1.40001
1.40001
1.40001
1.96462
1.97032
1.40001
1.56206
1.79549
1.40001
0.599382
1.40001
1.40001
1.40001
1.40001
1.40001
1.58096
1.40001
0.67156
1.29102
0.659134
1.40001
1.40001
1.2721
0.573231
2.14328
0.567589
1.40001
2.23281
0.590829
2.66079
0.940291
1.91049
1.40001
2.15801
1.40001
0.594488
1.40001
1.5454
1.40001
2.24949
0.576208
0.574423
2.08694
2.0122
2.15591
2.22849
1.66733
0.587514
0.58865
1.50987
1.87652
1.40001
1.76313
1.86229
0.591689
0.594811
1.79347
1.85524
1.49386
1.76149
1.06053
0.589007
1.65322
2.64463
0.592191
2.11718
1.64435
2.69207
3.39508
3.14976
1.9017
1.88916
1.55862
1.20126
2.3775
1.26437
1.40001
2.06301
1.40001
2.69638
0.58542
0.586453
1.40001
1.80117
2.69018
1.8424
1.65501
1.94613
1.59202
2.25465
2.0753
0.582872
0.583299
1.40001
1.84299
1.12643
1.79468
0.692473
2.03907
1.68449
2.30235
0.942926
1.34837
1.40001
2.19808
0.524297
1.35371
2.25
1.40003
1.3449
1.34286
2.68512
1.3511
1.33062
1.34472
1.40001
1.35586
1.33179
2.37772
0.58294
1.35445
0.582902
0.585044
0.58391
1.35462
1.40001
1.3674
1.57142
1.40001
2.27538
1.36881
1.50804
1.55976
1.92822
0.583221
1.47585
0.583605
1.40001
2.00434
3.41279
1.9706
1.40001
1.63613
1.40001
1.40001
1.40001
3.64895
1.40001
2.66083
2.55231
1.79869
1.43758
2.00779
1.80772
1.44023
2.01513
2.54295
2.08628
1.80452
1.40001
1.40001
2.35574
1.83213
1.74093
1.73947
1.54186
1.98322
1.40001
2.68552
1.79288
1.18785
1.99248
2.25227
1.40001
1.57446
2.67635
1.40001
1.98043
0.863024
0.94531
2.02352
1.908
1.45154
0.734835
2.07716
2.69364
2.24053
2.69223
1.40001
1.40001
1.79387
1.83827
1.66231
1.80971
1.40001
1.40001
2.1117
0.674941
1.64507
1.40001
2.43122
3.64393
1.88931
2.00674
2.50511
3.59495
2.09233
2.68635
1.62061
1.40001
1.40001
1.40001
1.08853
1.40001
1.40579
2.06073
1.90743
1.40001
1.45682
1.83676
1.94227
1.16239
1.40001
1.87647
1.95146
3.4551
0.887424
1.68971
1.12596
1.22238
2.07479
1.40001
1.97907
1.21233
2.13749
2.42812
2.21958
2.26687
1.40001
1.76898
2.03149
1.40001
2.10552
1.92409
0.975565
2.01577
1.99701
1.40001
2.30467
0.573269
1.40001
1.8452
2.10305
1.40001
1.50439
1.72138
1.40001
2.13753
1.40001
0.583368
1.40001
2.17674
1.40001
1.40001
1.51737
1.40001
1.40001
2.0601
1.40001
1.40001
2.18554
1.40001
1.40001
1.79347
1.40001
1.40001
1.40001
2.18987
1.40001
0.940876
1.78487
1.40001
1.90378
1.8
2.57806
1.93387
1.40001
1.40001
1.40001
0.926575
1.40001
2.61614
2.56052
2.23109
1.40001
2.24555
1.40001
1.40002
1.40001
1.40001
2.10256
1.1299
1.40001
1.40001
2.27483
0.585523
2.30272
1.40001
1.81798
1.48829
1.8707
1.40001
1.40001
2.64046
1.86318
1.37481
1.55963
1.4
0.971005
1.5431
1.40001
1.14692
2.34823
1.81995
1.67256
1.40001
1.40001
2.02589
1.40001
1.40001
2.27856
1.98308
1.73051
0.62007
0.609932
1.2587
1.5882
1.40001
2.52395
1.40001
2.21898
2.15442
2.21797
2.48358
1.68738
1.89003
2.15726
1.41593
1.39184
1.40001
2.11976
1.81905
1.40001
2.05877
1.99956
1.40001
1.40001
1.98152
1.40001
0.570498
1.59757
0.566657
1.40001
1.89648
1.83908
1.40001
1.69076
2.0599
1.40001
1.40001
1.79252
2.10376
2.25513
1.74538
1.40001
1.79815
1.13415
1.92016
1.40001
2.65779
1.40001
1.40001
0.573819
1.40001
1.40001
1.40001
1.40001
2.07992
1.54857
1.41047
1.40001
1.40001
0.96582
1.44475
1.40001
1.40001
2.68035
1.70367
2.71811
1.82952
1.40001
1.52508
0.588619
1.40001
1.50694
1.40001
2.06058
1.40001
1.83588
2.98267
1.40001
1.40001
0.972394
1.29371
1.40001
1.40001
1.40001
0.591913
0.594458
1.40001
3.48397
1.40001
1.40001
1.13515
1.40001
1.82901
0.582575
1.14118
1.65023
1.74657
1.40001
1.40001
1.80439
1.40001
1.40001
1.40001
0.998275
1.2488
1.40001
1.77431
2.17793
1.06945
2.22686
1.40001
0.614363
1.10924
1.91759
2.29969
1.34785
2.09822
1.80646
2.68694
1.43282
0.944775
1.66002
1.13201
1.40001
3.07727
1.37515
1.40001
2.30903
1.19902
1.9407
1.88162
2.23053
0.583534
1.4244
1.40001
1.40001
3.54589
0.582564
0.585138
2.28159
1.82232
2.03213
1.40001
1.67416
1.40001
0.84547
1.86909
1.99021
2.3353
1.99512
1.97736
1.40001
1.82624
1.40001
3.10715
2.15055
1.87856
2.18498
0.584306
1.40001
1.54347
1.98694
1.40001
2.00507
1.34155
1.59962
0.925716
2.6964
2.16957
1.8179
1.40001
1.91746
3.60932
1.34441
1.78717
0.582567
1.40001
3.23841
1.40001
2.6687
1.40001
1.40001
2.15514
2.17142
2.25771
1.40001
2.07102
1.37322
3.5102
1.93574
1.59974
1.8246
1.45572
1.25853
1.95892
1.95779
1.80059
3.52893
1.9703
1.95937
1.42413
1.21253
1.40001
1.20064
1.0172
2.2668
1.56443
2.20811
0.955413
1.40001
3.25201
1.40001
1.83844
1.88296
1.99263
1.43547
3.68364
1.49851
1.40001
1.40001
2.82939
1.56076
0.582316
1.88219
2.25223
1.40001
2.34117
0.583192
1.48405
2.06521
1.3102
1.37386
2.09286
1.40001
1.40001
1.40001
1.73697
1.40001
1.81952
1.40001
1.40001
1.40001
1.40002
2.24482
1.58404
1.3801
1.40001
1.40001
1.22249
1.58452
3.6832
0.973909
1.76914
1.54366
1.38997
2.20446
2.19295
2.65736
1.92134
1.27468
2.06429
1.40001
1.40001
1.96592
2.23386
1.80601
1.50364
1.41282
1.95292
1.84221
2.25337
1.95248
1.8381
1.44877
2.06777
1.96134
1.98511
1.40001
1.654
1.34429
2.2563
1.33478
3.43946
2.71068
1.98457
1.94353
1.40001
2.67077
1.91444
1.40001
1.17564
2.02579
1.40001
1.67092
1.29898
2.70764
1.47278
1.40001
1.40001
1.52516
2.07805
1.90876
1.31073
1.29429
1.84023
2.15756
2.68453
2.03982
1.02903
2.66128
1.16142
2.10837
1.30158
1.11628
1.55404
1.8391
1.64916
1.92587
1.97387
3.10904
2.78865
1.73011
1.34039
3.00692
1.48055
1.26845
1.97385
2.27523
1.95821
1.97321
1.86503
1.38757
2.68921
2.51101
0.770472
2.16394
0.787624
2.28785
2.16534
1.69678
2.17826
1.7106
0.940066
1.35784
1.70111
2.07208
1.40001
0.949028
1.40001
1.54659
1.78104
2.01439
1.40001
1.50712
1.40001
3.43856
1.83961
2.69078
2.42871
2.74131
1.33417
1.29691
2.95134
1.57886
2.71706
2.24212
1.40001
1.12572
1.40001
2.72097
1.40001
1.40001
2.18593
1.49436
1.84283
2.24366
1.17701
1.89115
1.59368
1.66538
1.94439
2.24182
2.08649
1.40001
1.98602
1.91293
1.3233
2.09098
2.02783
1.40001
0.578839
1.8087
0.586543
2.74339
1.52412
1.40001
1.34339
1.47776
2.15346
2.07142
1.40001
1.34696
2.07467
1.34302
1.57605
2.13227
1.35168
1.7163
2.05306
2.20285
2.14215
2.1013
1.91633
1.84255
2.08156
1.35531
2.2834
1.30702
2.05496
1.88285
1.40001
1.40001
3.0602
1.40001
1.94639
3.55378
2.80034
1.34605
0.568803
1.33251
1.81062
0.571827
1.68554
1.88578
1.9597
2.38663
3.44932
1.34787
1.94257
1.98373
1.40001
2.50043
1.92813
1.94802
2.1125
1.76712
1.7756
1.95418
1.40001
1.96035
1.91823
2.01194
1.9164
1.33737
1.96235
1.52881
1.40001
1.37206
1.96881
1.96288
0.998612
1.47393
0.581588
0.580834
1.11192
1.34898
2.18012
2.13905
1.39738
1.96527
1.90484
1.22409
2.57772
1.40001
1.43562
2.50533
0.592357
1.47414
1.34498
1.74901
1.40001
1.40001
1.55322
1.40001
1.91902
1.80763
1.31558
0.593645
0.590386
3.67365
2.72304
1.40001
2.54524
2.03269
1.84649
1.98121
1.97863
1.41093
1.40001
2.02309
1.37985
1.79472
1.30151
1.40001
1.31278
1.38006
2.1082
1.30258
1.88788
1.40001
1.54297
1.4
1.40001
1.40001
1.39295
2.80433
1.33
1.40001
1.40001
1.5512
1.39808
1.37939
2.0228
2.02596
1.79673
1.37303
1.37858
0.577037
1.40001
1.40001
2.06742
1.51538
0.593331
0.59126
1.78264
1.91975
1.97801
1.80336
1.53784
1.40001
1.40001
1.64927
1.40001
0.597553
1.44855
1.40001
2.12425
1.76593
1.40001
1.87894
1.61018
1.51976
1.85975
1.13024
1.40001
3.27421
0.580135
2.01111
2.15401
2.01164
1.40001
1.04389
1.40001
1.40001
2.15496
2.16844
2.98374
2.1648
2.04821
1.40001
1.50691
1.64894
1.63218
1.75686
0.589704
0.573719
1.8184
1.34426
0.587879
2.12221
1.23839
2.07479
0.574296
1.37283
1.50974
1.40001
1.94042
1.93319
1.57451
1.63583
1.93594
1.60703
1.59471
0.584662
2.10797
1.3016
1.00143
1.94474
1.16383
1.56258
1.64878
2.00065
0.583464
1.90192
2.00253
1.40001
1.40001
1.86883
1.82349
2.52879
1.40001
1.84065
1.46328
2.1206
2.20723
1.79841
3.08874
1.40001
1.45259
1.22723
2.17808
1.82304
1.40001
1.28962
2.02818
1.20887
1.81655
1.69483
1.40001
3.01672
1.09535
3.00574
2.71711
1.38214
1.81619
2.27529
1.36602
1.73884
1.40001
1.39999
1.75036
1.62302
1.17897
1.50347
2.40061
1.55958
1.4906
1.83024
2.36547
1.5844
1.40001
1.58412
2.05613
1.75748
1.36997
1.37624
1.23503
1.34892
2.35421
1.40001
2.12183
1.53708
1.89329
1.40001
1.60532
0.585
3.08048
2.05539
1.76275
1.90374
1.39825
1.83214
1.87996
1.39022
1.98373
1.47084
1.61689
1.40001
1.40001
2.07083
2.0104
1.40001
2.06159
2.63949
1.36312
1.12396
1.40001
1.9954
1.36232
1.43892
1.92711
1.5613
1.40001
1.52189
1.40001
2.71362
1.40001
1.14179
1.4304
1.55855
2.04428
1.41923
1.24453
1.40001
1.07905
1.3558
0.583845
2.68959
1.59545
1.98552
3.34078
1.97968
1.40001
2.01512
0.584826
2.01875
1.83754
1.55473
2.68838
2.38985
2.03658
2.04588
0.583011
2.18975
1.40001
1.62705
1.55078
2.07564
1.62381
3.10268
2.07114
1.39992
1.48323
1.56348
2.11333
2.11909
1.59009
1.40001
1.44364
2.17947
2.18596
1.19332
2.83602
1.40001
2.79772
1.40001
1.40001
2.75595
1.87921
2.04944
1.45853
1.45656
1.40001
1.40001
1.79782
1.75237
1.57173
1.35472
2.0673
1.31547
1.33895
1.41056
0.946969
1.92681
1.43137
1.38623
1.40001
1.21029
1.79891
2.16961
0.90255
0.584778
1.947
2.14899
0.582647
1.40001
1.50076
2.03113
1.17941
1.88411
1.96742
1.40001
1.9065
1.40001
1.89101
1.97514
1.56098
1.82243
1.40001
1.26255
1.5625
1.28996
2.68573
1.35348
1.29939
1.98735
2.16711
2.68924
1.40001
1.5825
1.58433
1.6214
1.61541
1.65133
1.6495
2.10965
2.0619
1.40001
1.67822
1.40001
1.67321
1.86698
1.70458
2.0745
1.7407
0.602085
2.06099
1.69609
1.72666
1.72134
1.7157
2.68955
1.77684
1.90006
0.582983
2.16243
1.74776
1.74501
1.80559
1.40001
1.40001
1.64574
1.66057
1.48305
1.44967
1.64966
2.69102
1.80139
1.40001
1.40001
1.41471
1.51271
1.40001
1.40001
2.11807
1.40001
1.83094
1.82675
1.86663
1.85584
1.55432
1.49631
2.05019
1.95509
1.60312
1.34412
1.91831
1.91116
2.68526
1.61235
1.34442
0.58556
1.55598
1.45242
1.40001
1.05503
1.51075
0.588563
2.69121
0.735238
0.583123
1.58922
2.69082
1.40001
1.23582
1.40001
1.7367
1.38822
2.70925
1.57043
0.86527
2.26029
1.7146
1.53567
2.68784
2.91959
2.06995
1.54343
2.06222
0.560729
2.68961
1.90927
2.03808
3.63696
3.39101
1.96628
2.68673
1.40055
1.81997
2.68608
1.45984
1.81622
2.68507
1.59567
2.38984
2.14511
2.68099
1.86694
1.68198
2.16837
1.34393
2.69491
1.77714
1.39995
2.6896
1.32889
2.05828
1.40001
1.47274
1.75054
2.07157
3.30766
2.17991
1.45948
2.08896
1.74443
1.40001
3.35099
1.36396
2.25085
2.68688
2.69185
2.28021
3.82041
2.11531
2.88013
2.68564
1.46919
1.84668
1.55089
2.22825
1.80729
1.84681
1.85512
2.28255
1.40001
1.40001
1.44115
2.07944
2.08936
2.27592
1.75093
2.32271
1.39292
3.27892
2.31325
2.17382
2.0991
1.40001
3.81618
2.24482
3.82623
3.83507
1.56998
3.05903
3.64958
3.81153
1.32742
1.61034
3.72365
1.40001
1.40001
1.40004
2.87718
1.40001
1.40001
1.40001
2.91495
1.40001
1.55933
1.15328
1.95318
2.17401
1.95753
0.880159
1.8355
0.582679
2.54139
2.00556
1.26034
1.24231
1.14478
1.69373
2.53054
1.03588
1.86174
1.92066
1.40001
2.02348
0.949827
2.10889
1.61492
1.40001
1.40001
2.11815
1.61165
2.94952
1.94749
3.00481
2.42657
2.16779
1.40001
2.91797
2.4055
1.40001
1.40001
2.98133
1.58727
1.15068
1.14823
1.58888
2.43784
1.70222
1.48226
1.84686
1.40001
1.40001
1.78303
1.70218
0.981991
1.50895
1.40001
1.51976
2.08352
1.55711
3.01463
1.56871
1.60087
1.97012
1.45633
1.86353
1.60348
2.45436
1.83343
1.40001
2.14701
2.69901
1.40001
1.40001
1.82198
2.69715
0.584931
2.11558
1.98649
1.98378
1.80329
1.55509
1.48102
1.73559
1.67057
2.02348
1.39602
1.40001
1.99421
1.57523
2.68582
2.68677
2.2226
3.64314
3.4844
1.88234
1.40001
2.69587
1.76672
1.40001
1.59378
0.604981
1.59615
2.17649
2.54067
2.1796
2.10863
2.39549
2.62194
2.1567
1.13887
2.68757
1.63777
1.37983
1.37839
2.33515
1.40001
2.45897
1.56419
2.2867
1.86917
3.79163
0.604832
3.48868
2.06216
3.77651
2.12058
1.78875
2.52391
3.80867
1.24206
1.4
2.11437
2.40314
2.4509
2.00729
1.76372
2.1269
1.67859
1.35249
1.40001
1.82194
1.66368
2.37331
3.82421
1.40001
3.85722
1.17305
1.88218
1.84448
1.5951
2.18541
1.53413
1.40001
1.40001
1.93641
1.94268
1.04743
1.81821
1.91029
1.81072
1.80523
3.04659
1.97083
1.40001
1.40001
1.97681
2.12222
1.96739
1.53838
1.12692
2.79453
1.40001
1.49808
1.93534
2.75529
2.75265
1.45316
1.60267
3.31031
1.40001
1.40001
1.02144
1.95836
1.51239
1.40001
1.61353
1.35952
1.40001
1.40001
3.70157
0.998661
1.58333
1.93745
2.74644
1.40001
1.40001
3.63516
1.40001
1.40001
2.13542
1.40001
1.80432
1.50345
1.40001
2.72454
2.08136
1.40001
1.40001
1.40001
2.22802
2.09908
1.81103
2.04146
1.40001
1.92574
2.03684
1.93457
2.71709
1.39996
1.40001
1.23192
2.21405
1.46659
1.81426
3.258
2.19848
2.03255
1.82337
2.11463
1.39932
1.88505
1.40001
1.83045
2.13889
0.903179
2.13974
1.93915
2.69871
2.4509
1.85172
2.98844
1.99262
1.40001
1.34235
2.08366
2.42296
2.07353
1.1765
1.54009
2.71645
2.08125
0.575499
1.40001
2.00661
1.53063
2.28022
1.43615
1.40001
1.8014
2.18915
1.9569
1.40001
1.45437
1.46361
1.40001
2.39152
1.40005
0.579944
2.1794
1.98072
2.13671
1.97665
2.47251
1.40001
1.63953
1.94967
1.56877
2.06927
1.92576
3.08141
1.82717
1.17429
1.95695
2.68556
1.50998
1.3976
1.64861
1.17496
2.68493
1.40001
2.31999
1.45121
1.15746
1.40001
2.44477
2.65961
2.20756
2.21523
1.7737
1.40017
1.59597
2.71707
2.21725
2.69907
1.15308
1.61101
1.64749
2.69686
1.77423
1.55687
2.21447
1.97755
2.01454
1.18355
2.69685
2.02323
2.98819
2.71626
1.40001
1.40001
2.69157
2.39904
2.01275
2.30051
2.30348
1.40001
1.8762
1.40001
1.61488
1.40001
1.86899
1.40001
1.68031
1.53203
3.12358
2.14627
1.40001
1.40001
3.66867
1.40001
1.25566
1.63269
3.59856
3.2915
2.03211
1.40001
1.32559
2.71868
1.33493
1.40001
1.59918
1.40001
2.03691
1.40001
1.31964
2.68643
2.69106
1.77833
1.63426
1.4
2.06606
2.02815
1.40001
1.40001
1.46547
2.10173
1.4
0.999334
2.70942
1.25514
2.00142
1.87717
2.83524
3.50194
1.15168
1.40001
2.00099
1.70371
1.40001
1.29713
2.70105
2.67758
1.79431
1.49863
1.66979
2.69304
1.99312
1.61243
1.40078
1.75981
2.40217
2.04445
1.4
1.62573
2.68817
1.40001
1.54743
1.97619
1.54464
1.58569
1.98708
2.53229
2.98095
3.20941
2.12958
1.12599
1.99605
2.50445
1.58616
1.50838
2.99536
3.24982
1.40001
1.40001
2.27789
2.18913
1.40001
1.90372
1.94974
1.36114
1.97199
1.40001
1.98086
1.40001
1.40001
1.40001
1.73389
1.75841
1.40001
1.47268
1.87096
1.84284
0.922239
2.40598
1.84731
2.81091
1.39998
2.29173
1.87045
1.40001
2.45949
1.40001
1.8883
1.90768
1.18729
2.6244
1.78331
1.95396
1.96602
1.75408
1.66306
1.52683
1.76215
1.71926
1.89771
1.73003
1.68691
2.71969
1.69354
1.9988
1.49454
1.40001
2.11596
1.83715
2.10613
1.1683
2.70733
1.5434
1.65197
2.72295
2.15033
2.06542
2.15048
1.40001
2.2327
1.40003
1.48361
1.94408
1.62046
1.62545
0.578454
1.97507
1.99344
2.68778
1.62106
1.40001
1.47055
1.58241
2.70615
2.34024
1.40001
2.24423
2.68934
2.24733
1.4585
3.4328
2.09974
1.40001
2.70782
1.58573
1.84409
2.14051
1.70026
2.71851
1.40001
2.71429
1.40001
2.02084
1.27347
1.40001
2.05818
1.66819
1.40001
2.18056
1.90845
3.22237
2.95829
3.48551
1.40005
1.55205
2.01619
1.4
2.1248
2.09277
2.15845
2.01509
2.71426
3.18017
2.68636
2.08665
2.02814
1.40155
3.67422
1.67385
1.45273
1.79883
1.9058
3.45278
1.97569
1.29413
1.82844
1.90094
1.53949
1.40001
3.67112
3.49574
1.20372
2.08135
1.40013
1.40001
1.90363
2.46281
1.53035
2.4152
2.23559
1.13368
1.40001
1.67014
1.94765
0.576679
3.60648
2.09555
1.3936
1.40216
1.89819
3.10955
2.37579
1.85003
1.10165
1.59944
1.85993
1.85727
3.56124
1.40001
2.69354
2.5488
2.52456
1.61828
2.70918
2.45767
2.34446
1.40001
1.55277
1.40001
1.40001
1.40001
1.73842
1.40001
1.46936
1.73063
1.05065
1.56457
2.51598
1.74131
2.4975
1.57083
1.40001
2.49427
1.26407
1.40001
1.28855
1.91949
1.40001
1.40001
1.40001
2.16397
3.5321
1.49922
3.04165
1.50452
1.91704
3.67671
1.40001
2.25893
1.40001
3.02925
2.37115
1.59449
2.72278
1.91681
2.70321
2.09803
1.60709
1.94673
1.40001
2.70533
1.40001
2.10454
1.40001
1.40001
1.40001
2.51387
2.69215
1.40001
1.40001
1.98081
1.5771
2.48305
2.47303
1.83118
1.68722
2.4793
1.10521
1.40001
1.95271
1.40001
1.35257
2.71064
1.368
2.15402
2.02665
2.19822
2.01143
2.02528
1.70822
0.578796
2.69048
2.69031
1.71018
2.02551
1.40001
1.70556
2.69578
3.18196
2.55084
2.7079
1.29309
1.40001
1.54555
3.5045
2.21157
2.09272
2.15486
1.71972
1.29858
1.40001
1.56917
1.40001
2.68661
1.40001
1.94756
2.84937
1.40001
2.72237
1.60855
1.75521
2.71064
1.9419
2.68402
1.40001
1.23229
1.2708
1.87221
1.80099
1.98725
1.98218
2.69135
2.68754
1.67506
1.84847
1.49018
1.68161
2.1396
2.68879
1.40001
1.40001
1.71011
1.40001
2.71028
1.85895
1.96527
1.74334
1.40001
1.40001
1.7151
1.98803
1.26736
1.51921
1.59661
1.75844
1.95751
1.97513
2.68846
2.12776
1.40001
1.75528
1.52561
2.59136
1.83492
2.20247
2.69211
1.14697
1.89441
1.84194
1.96095
1.89792
1.11252
2.6925
1.92227
1.95815
1.6113
2.69477
2.68701
1.40001
2.68482
1.96934
1.1218
2.03142
2.0561
1.82465
1.82472
1.92024
1.5602
1.81089
2.71638
2.01542
2.70947
0.583539
2.69009
1.57161
1.74455
1.77701
1.48476
1.18653
1.95492
3.22812
2.13442
1.40001
2.06634
2.01818
1.99423
1.75907
1.1957
1.57792
1.58654
2.71041
1.48512
1.96302
1.96888
1.17244
1.92361
2.68508
1.40001
1.47103
1.16526
1.14583
1.40001
2.12917
1.03298
1.99777
1.9913
2.11402
2.12665
2.08241
1.40039
2.0232
2.01911
2.72092
1.17684
1.81233
1.57524
2.68707
2.06188
2.05533
2.68554
2.13364
2.11851
1.94187
1.21765
2.68978
1.46204
2.16087
1.61487
2.69983
1.40001
1.40001
2.07819
2.08668
0.564271
2.68506
2.63798
1.12177
3.06777
1.76805
1.58593
2.12208
1.65883
1.96921
2.68374
1.46259
1.44683
2.05573
1.368
1.51605
1.78698
1.84594
1.5139
1.58552
2.25986
1.50118
1.40001
1.4
1.40001
1.40001
2.25886
1.49068
1.67945
2.184
1.40001
1.87618
1.40001
2.70768
1.40001
1.5531
1.52594
1.85313
1.40001
2.71489
3.6407
1.52747
1.83518
1.55972
1.81253
1.79205
1.91802
0.961925
1.60722
1.40001
1.40001
1.53456
1.79026
1.93812
1.40001
1.22958
2.22833
2.94778
1.73533
1.58034
1.85041
1.22723
1.40001
2.18948
2.04638
1.23122
2.36648
2.06337
1.81079
2.05655
1.70375
1.40038
1.61028
1.56769
1.97794
1.11117
1.40001
1.53619
1.40001
1.40001
2.11397
1.10364
3.67726
1.59722
1.40001
1.82322
1.68167
1.50143
1.66515
1.40001
1.40001
1.40001
1.65875
3.6509
2.00328
1.30746
1.40001
1.76602
1.61985
1.72561
2.05974
2.40811
1.67668
1.71176
1.63068
2.16803
1.28506
3.63152
2.07743
1.57062
1.98756
1.37176
1.78108
1.4046
2.33661
1.49479
2.71431
1.60637
1.86609
2.03187
1.27103
1.40001
1.6043
2.71421
1.40001
2.49819
1.40001
1.76529
1.75818
1.84769
2.66924
1.40001
2.49835
1.68074
2.03504
1.40001
2.58214
1.88144
1.22486
1.61046
2.13226
3.74458
1.40001
1.1513
1.23918
2.50269
1.18805
1.97842
1.58193
1.34725
1.40001
1.40001
2.35027
1.68237
1.5777
1.68067
1.89015
1.88122
2.63605
1.40001
3.66309
1.56812
1.2439
0.94304
2.1837
1.40001
2.26917
1.40001
1.79055
2.61439
1.40001
1.95249
1.56249
2.70541
1.40001
2.71038
2.02313
1.54713
1.63091
2.71075
1.39998
1.54365
2.72704
1.1783
1.48988
1.4
1.76525
2.14432
1.17989
1.70952
2.14847
1.40006
1.96976
1.40001
1.40001
1.40001
2.71244
1.40001
1.98965
1.98255
1.6744
2.47901
2.95463
1.55687
2.26161
2.04287
1.40001
2.24165
2.7069
2.71044
0.921363
1.90488
1.94795
3.62982
1.76732
2.7144
1.52709
1.35653
1.53408
2.70809
1.40299
1.4
1.48344
2.71349
2.36526
1.51222
1.39228
1.49187
1.97694
1.40001
2.60287
3.73496
2.07579
2.07204
1.40001
1.40001
1.69873
1.40001
1.4003
1.94791
1.40206
1.39985
1.40001
1.92815
1.51563
2.11956
1.40001
2.52792
1.40001
1.66572
1.64338
1.40001
1.67273
1.61917
2.5049
1.58191
1.40018
3.4069
2.56685
1.40001
1.40001
1.69936
2.98951
1.5822
1.40001
1.65441
1.70524
1.3789
3.65266
1.99095
1.52186
1.9916
1.64721
1.65411
2.87928
1.93337
1.96189
1.66545
1.45132
2.73078
2.1517
1.73788
1.97856
1.51153
1.97969
1.74943
2.60599
1.9922
3.0474
1.40074
2.71764
1.76458
2.72596
1.37086
1.77135
1.40001
1.92671
1.59848
2.1817
1.40001
2.09425
1.95021
1.39453
2.30285
1.40001
1.58931
2.03245
2.49815
2.16888
2.75101
1.40001
2.51671
1.54555
1.40001
1.59511
1.19758
1.40993
3.61899
1.83098
1.40001
2.07152
1.40133
1.82956
1.92621
1.40002
1.22389
1.18686
3.45148
1.8676
0.593152
2.1373
3.06019
2.09634
3.38287
2.06016
1.40001
1.40003
1.93536
3.14582
2.23176
2.06598
1.22853
1.22569
1.88971
1.88388
2.71099
3.64786
2.08198
1.40104
1.53359
1.40059
2.70872
2.50745
1.54454
1.28735
1.76119
1.97538
2.095
2.134
1.9732
1.39136
2.50973
1.76196
3.61633
1.95586
2.74707
1.61579
2.25128
2.7168
1.77128
2.44459
1.61071
1.93843
2.50125
1.12576
2.3124
1.67523
1.38717
2.07958
2.71387
1.79571
1.67162
1.77127
1.98761
2.21962
1.09592
1.50374
1.58946
1.9772
1.38661
1.39975
1.68525
1.99747
1.26685
1.68436
0.98029
1.57232
1.40001
1.56785
1.40001
1.58865
1.40001
1.24404
2.26779
1.22389
1.40001
1.98999
1.72813
1.42351
1.73094
0.966328
1.61998
2.31319
1.22967
1.84198
1.5465
1.38719
1.40001
1.40001
2.81884
1.73911
3.59568
1.74359
2.23305
1.40001
1.40001
1.22434
2.06698
1.36466
1.53607
2.61077
1.30806
2.35032
1.99832
1.49138
2.00313
2.70987
1.89052
2.02584
1.27965
2.31597
1.4
2.34555
1.17709
1.40001
1.40001
1.78183
1.40005
1.91344
2.49796
2.04267
1.40001
2.04906
1.40001
1.40002
1.40001
1.4
2.15301
1.40001
2.16768
1.09573
1.56898
2.17454
1.40001
1.84378
2.73202
1.48135
2.52091
1.17143
2.46252
2.71076
3.61723
1.28462
1.40001
1.29092
1.84144
2.31796
1.31444
1.40001
1.40001
2.22396
1.40001
3.38098
3.62072
2.73228
2.71648
1.78681
1.40001
1.40001
1.40002
1.89866
2.45441
3.12095
3.59629
1.40001
2.54586
1.39603
2.15741
2.4108
2.20412
1.21634
1.4
1.42909
1.71695
2.7128
1.09295
2.49131
1.49586
2.07342
1.45538
2.72794
1.40001
1.19195
1.01991
2.71058
1.20992
1.80328
1.22198
1.91886
1.40001
1.19942
1.18555
3.61752
1.94852
1.40001
1.40001
1.3416
1.40001
2.20321
1.40001
1.40001
1.74218
1.39195
1.66516
2.7284
1.61416
3.57478
1.33874
1.92816
1.40001
1.5584
1.40001
1.40001
1.85455
3.56881
1.40001
1.97295
1.33551
1.47279
3.63376
1.39968
1.40001
1.40001
0.657942
2.00724
2.49011
1.40001
2.00622
1.47495
2.10342
1.52672
2.48978
1.40001
2.71687
1.58066
1.40001
1.80196
2.09505
1.93925
1.40001
2.7151
1.6271
1.40001
2.0693
1.40001
1.94791
2.71054
1.94633
0.973044
2.17866
2.71172
1.1586
2.4566
2.15003
1.88432
1.40003
1.91523
1.40001
1.93045
1.14042
2.11319
2.4999
2.59776
1.80029
1.4533
1.40001
2.11472
1.1649
1.40001
1.40006
1.33001
2.95679
1.35784
1.40001
2.95395
1.40001
1.40001
2.79524
1.52934
2.44957
1.32115
1.40001
2.74532
1.40001
1.40011
1.35942
1.29025
3.64619
3.57687
1.40001
1.40001
1.40004
2.30896
1.45949
1.46968
2.27512
2.29453
1.40001
1.80302
1.40001
1.40001
2.07929
1.55096
2.3168
1.40001
2.54903
1.40001
1.11762
1.40078
2.28476
1.40001
2.70395
1.47191
1.54197
1.40001
1.40001
1.40001
1.62835
1.32471
1.40001
2.71127
1.58515
1.16444
1.13124
1.86168
1.40001
1.40001
1.39903
1.54761
1.48378
1.40001
2.71033
1.40001
1.40001
1.40001
2.20817
1.4
1.57423
2.6916
1.57401
1.6411
1.40001
2.48214
1.45187
1.87505
1.47219
1.27685
2.52587
2.88271
1.47964
2.70845
3.18946
2.19751
1.40001
3.25142
0.956658
2.27765
1.34289
1.40001
2.71056
2.20544
1.40001
1.68844
2.19486
1.40001
1.93653
1.9501
1.92194
1.44271
1.40001
1.39849
1.40001
1.40001
1.4002
1.60992
2.5528
1.95117
1.8592
1.60358
2.72643
1.24607
1.54948
2.49705
1.40001
2.32937
1.40001
1.96561
1.77339
1.96458
1.40001
1.40001
1.40001
1.40001
1.40306
2.31839
1.40001
1.40824
1.40001
1.40001
1.40001
3.61274
2.0665
3.64183
2.4847
2.86625
1.38818
3.59076
2.08329
1.52763
2.71449
2.3976
2.46503
1.31812
1.45106
1.40001
2.07159
2.44
2.57535
2.26889
1.86668
1.39996
2.99475
2.05781
2.19242
1.40018
3.51552
1.34693
2.58278
2.3743
2.71523
0.49101
2.86631
1.40001
0.990414
1.40001
1.40001
1.88005
1.54701
1.4712
1.18605
1.40001
2.98447
3.51521
1.40001
1.40001
2.23854
1.3196
2.50377
1.39966
1.50086
1.72932
2.71098
1.40001
2.55446
2.16203
1.40001
2.79909
1.38532
1.40001
1.78437
0.990423
1.27558
1.51551
1.74071
2.39311
1.40001
1.28275
2.71267
3.79421
1.46194
1.40001
1.76441
2.70787
1.16744
1.40001
2.38919
1.95751
1.51371
3.41269
1.39487
1.40001
2.60859
1.40001
2.71154
1.25497
1.23398
1.23345
1.90113
1.34654
1.36173
1.40001
1.40001
2.54248
1.40001
2.71551
2.11415
1.07981
1.99191
1.40001
2.72155
1.40001
2.04899
1.9777
1.89182
1.59444
0.65186
2.70991
1.60204
1.40001
1.40001
1.50085
1.47134
1.40001
1.866
3.58055
1.99249
2.07617
1.40001
1.40001
1.40001
1.29093
2.23092
1.76778
1.6682
1.67752
1.96116
1.90457
2.3652
1.40001
1.40001
1.40001
1.92876
1.23334
1.18888
2.70809
1.18707
1.17054
2.35225
1.40001
1.55652
1.35029
1.40001
1.40001
1.40001
3.66418
2.50586
2.40419
1.74956
2.51434
1.50504
1.81923
1.72885
3.54761
1.40001
1.40001
1.40001
2.71984
1.53926
1.40001
2.71442
1.40001
2.37958
1.98037
2.70746
2.71528
2.67551
2.65794
1.40001
2.71483
2.69261
2.53937
1.40001
2.23674
1.4
1.40001
2.49693
2.64496
1.40001
1.40001
1.59906
1.45899
2.37812
1.10216
2.68091
1.89015
1.40001
1.40001
1.40001
2.21425
1.40001
1.84911
2.49531
2.92469
2.39883
2.36786
2.70787
2.06886
2.15423
1.40001
1.40001
1.78785
2.71662
1.40001
1.6251
1.76725
2.11152
2.71857
2.19502
2.29089
1.18091
1.57454
2.30354
2.1137
3.62401
2.68545
1.85386
2.03017
2.70887
2.71013
1.58028
1.92769
1.40001
1.40001
2.71355
2.45999
1.65544
1.75778
2.74188
1.49301
2.39805
1.40003
1.61437
2.83446
2.70727
1.40001
1.3309
1.31673
2.25767
1.56724
2.70749
3.59367
2.71481
3.63557
2.71021
2.10394
1.75152
1.72538
2.70849
1.40001
1.33044
2.37984
2.58529
1.34697
1.40001
2.71057
1.09651
0.619853
2.47999
1.40001
1.08606
1.48408
2.70859
2.26832
1.70883
1.69618
2.71733
1.40001
1.86465
2.4987
2.08538
1.87504
1.40001
1.85127
2.14299
1.40001
2.70646
2.51076
3.13489
1.39201
1.37435
1.70186
1.39999
1.75798
1.40001
2.13261
2.70851
1.97985
1.34238
1.36417
1.97138
1.7697
2.03688
1.86668
1.40001
2.06503
1.40001
1.60932
1.73532
1.335
2.14867
1.36542
1.40001
1.90351
1.3739
1.35591
1.40001
1.40001
1.09887
2.47222
2.68639
1.40001
1.40001
1.77484
1.40001
1.71696
2.5883
1.39198
1.40001
1.65234
1.40001
2.20185
1.35164
2.72102
1.33567
1.71259
1.40001
1.72945
2.04975
1.94367
1.72205
1.40001
1.563
2.72091
1.40001
1.66045
1.78237
1.19375
1.69318
1.74476
1.94534
2.7094
1.84084
1.40001
1.40001
1.40007
1.69635
1.40001
2.04786
1.86618
1.40001
1.40001
1.40001
1.39992
2.70549
1.44497
0.598337
2.67207
1.18627
3.20998
1.84982
1.13452
1.09744
1.54966
1.95702
1.40001
1.80126
2.69723
1.89239
1.99307
2.71555
2.20215
1.40001
2.43287
2.39364
2.69351
1.40001
1.33997
1.33584
1.93293
1.79162
1.96078
1.54543
2.76926
2.71244
1.3779
2.53825
2.27393
2.71988
1.86154
2.27434
1.40001
1.82732
1.58422
1.40001
1.40001
1.40001
1.10403
1.40001
1.40001
1.88792
1.40001
1.40001
2.71338
1.40002
1.806
2.70946
1.40001
1.40001
1.39781
1.40001
2.7882
2.71049
1.90663
1.16503
2.71004
2.76979
2.47496
1.40001
1.40001
1.80919
2.64001
1.40001
2.1846
1.5851
1.88082
1.81746
1.14003
1.51518
2.55316
1.40266
1.48799
2.70765
2.70922
1.11378
2.58121
2.71314
1.40001
1.40001
2.08348
1.40001
1.82461
1.40001
2.71283
1.29862
1.28962
1.40001
1.40001
1.72229
2.63648
2.45595
2.70839
1.4004
2.64478
1.78635
1.40001
1.82122
1.40001
2.65466
1.40001
1.28716
2.16488
1.40001
1.40001
1.40001
2.46268
1.64514
1.40001
1.40001
1.51523
1.66423
2.4595
1.50265
1.40001
1.54647
1.10225
1.2035
1.4
1.40001
2.70934
1.87273
1.55855
1.40001
1.72367
1.8726
2.46642
2.7105
1.79621
2.68212
1.40001
1.41037
1.40001
3.57385
2.03342
2.70887
2.40893
2.70867
1.18033
1.40001
1.40001
1.09546
1.4
1.40001
2.71152
1.14345
1.13321
1.6408
1.40001
1.40247
1.40001
2.66755
2.8856
1.40001
1.40001
1.66331
1.40001
1.74783
0.995038
1.78225
1.08327
2.89955
3.41654
1.44589
2.71896
1.51753
1.40001
3.6547
1.40001
1.93037
2.70993
1.11891
1.40001
1.40001
2.71448
1.58859
1.29136
1.40001
0.624566
2.36506
2.05493
1.40512
2.70605
2.28978
1.40001
1.67546
1.67038
1.12752
1.99137
1.77429
1.40001
1.40001
1.40382
1.45452
2.45405
2.7123
2.72079
1.96356
1.32815
1.88075
2.71764
1.76347
1.96169
1.64642
1.40001
1.40118
1.40001
1.4
1.36159
1.01475
2.79074
1.35237
1.40001
2.06595
1.62287
1.3079
1.33225
1.32739
1.40001
1.63157
2.49595
1.40001
1.40001
1.51488
2.71233
2.48857
1.40001
1.40001
1.40001
1.40001
3.74259
2.56264
2.65386
2.97162
1.81698
1.40001
1.4
2.71309
2.77636
2.19536
1.51799
2.67872
1.40001
2.79827
1.40001
1.40001
1.40028
1.40001
1.45239
2.0867
1.40001
1.77295
1.40001
2.71992
1.73018
2.64626
1.40208
1.40026
1.40001
0.979361
1.46011
1.40001
2.35028
2.70868
1.40001
2.66261
2.03381
2.90479
1.40001
2.61839
1.40001
1.40012
1.67271
1.66146
1.38184
2.23778
1.40001
1.24767
1.39668
2.71999
1.86631
1.40001
2.71988
1.35463
1.40001
0.614762
2.51055
1.13624
0.930251
2.34622
1.40001
2.19109
1.40001
1.40001
1.40001
2.71518
2.24259
1.40001
1.40238
1.52555
2.91962
2.04935
1.40001
0.991351
2.71298
1.40001
1.25395
2.47931
2.3601
1.40001
2.30352
2.17854
1.40001
1.40001
1.40001
1.40001
2.74055
1.35493
0.975806
1.39937
2.23499
1.96134
2.67499
2.83483
1.40001
1.40001
1.40001
1.85224
1.40001
2.07424
2.9713
2.09782
2.15424
0.604637
0.801858
1.75656
1.03261
0.60351
1.40001
3.1348
2.93528
2.3784