/*--------------------------------*- C++ -*----------------------------------*\
  =========                 |
  \\      /  F ield         | OpenFOAM: The Open Source CFD Toolbox
   \\    /   O peration     | Website:  https://openfoam.org
    \\  /    A nd           | Version:  12
     \\/     M anipulation  |
\*---------------------------------------------------------------------------*/
FoamFile
{
    format      ascii;
    class       volScalarField;
    location    "9.7";
    object      p;
}
// * * * * * * * * * * * * * * * * * * * * * * * * * * * * * * * * * * * * * //

dimensions      [1 -1 -2 0 0 0 0];

internalField   nonuniform List<scalar> 
9801
(
0.618891
0.626035
0.627931
0.629699
0.630601
0.631511
0.632953
0.635088
0.637951
0.642702
0.653036
0.663148
0.668286
0.670962
0.673026
0.674155
0.674988
0.676491
0.678667
0.68154
0.686313
0.696542
0.70767
0.713669
0.716868
0.719132
0.720289
0.721029
0.722592
0.724934
0.728
0.733142
0.744603
0.75655
0.762697
0.766217
0.768471
0.768893
0.769337
0.771268
0.773992
0.777533
0.78374
0.798227
0.811056
0.817256
0.820731
0.82189
0.821633
0.822016
0.824013
0.827333
0.831574
0.839885
0.85841
0.872636
0.879253
0.882624
0.881217
0.878886
0.880008
0.882872
0.887432
0.893544
0.907578
0.930319
0.944775
0.951723
0.955686
0.949474
0.943486
0.945327
0.950492
0.957812
0.9696
0.99691
1.02252
1.0361
1.04406
1.04449
1.03164
1.02459
1.02893
1.03927
1.05559
1.0962
1.13709
1.15989
1.17595
1.1873
1.17832
1.15766
1.15751
1.1841
1.23935
1.34075
1.43377
2.32342
7.88633
0.623972
0.63133
0.634188
0.636516
0.636462
0.636539
0.638387
0.641076
0.644103
0.649606
0.659978
0.668089
0.673153
0.676734
0.679511
0.679667
0.679251
0.681159
0.684095
0.687391
0.692388
0.7029
0.712561
0.718335
0.722291
0.725329
0.725084
0.724184
0.726289
0.729575
0.733241
0.738409
0.749875
0.761089
0.767332
0.77159
0.77457
0.772656
0.771459
0.774087
0.777855
0.782022
0.788009
0.801747
0.814859
0.821929
0.826417
0.828694
0.824562
0.822926
0.825908
0.830439
0.835258
0.843105
0.860563
0.875283
0.88302
0.887883
0.888267
0.881323
0.880537
0.884357
0.889823
0.895868
0.908954
0.932146
0.946902
0.954631
0.960358
0.956001
0.945568
0.945972
0.951977
0.959764
0.971832
0.998942
1.02451
1.03796
1.0467
1.0518
1.03857
1.02582
1.03053
1.04152
1.0578
1.09289
1.12935
1.15282
1.17126
1.18869
1.1867
1.16559
1.16044
1.18129
1.21953
1.29207
1.36106
2.21185
7.99073
0.626118
0.63337
0.636383
0.638894
0.639278
0.639199
0.640879
0.643582
0.646713
0.652273
0.662647
0.670509
0.675331
0.678998
0.68196
0.682539
0.681959
0.683599
0.686503
0.68991
0.694889
0.70541
0.714941
0.720526
0.724572
0.727852
0.728006
0.726937
0.728776
0.732008
0.735765
0.740768
0.752003
0.763215
0.769488
0.773912
0.777179
0.775744
0.774385
0.776727
0.780369
0.784549
0.790056
0.803131
0.816585
0.823977
0.828848
0.831713
0.828032
0.825854
0.828588
0.833068
0.838049
0.845194
0.861519
0.876456
0.884585
0.889886
0.891933
0.885806
0.883293
0.886381
0.892022
0.898264
0.910029
0.932099
0.947382
0.955676
0.96221
0.961574
0.951009
0.948436
0.953392
0.961065
0.971765
0.996291
1.02199
1.03713
1.0475
1.05588
1.04789
1.03107
1.03171
1.04278
1.05661
1.08358
1.12329
1.15383
1.17428
1.19262
1.19635
1.17812
1.17176
1.18593
1.21784
1.27649
1.32605
2.17728
7.98539
0.629307
0.636512
0.639391
0.642101
0.643232
0.642901
0.644194
0.646687
0.649869
0.655792
0.666115
0.673836
0.678509
0.682078
0.685157
0.686408
0.685495
0.68659
0.689236
0.692696
0.698103
0.708786
0.718222
0.72371
0.727698
0.73112
0.73193
0.730293
0.731401
0.734272
0.738054
0.743426
0.754842
0.766306
0.772746
0.777208
0.780799
0.780183
0.777808
0.77915
0.782306
0.786496
0.792233
0.80526
0.819301
0.82705
0.832051
0.835673
0.833071
0.829298
0.830843
0.834642
0.839513
0.846639
0.862663
0.878542
0.887238
0.892849
0.896841
0.892233
0.886361
0.88774
0.89279
0.899013
0.910033
0.932003
0.949203
0.958561
0.965596
0.968921
0.958572
0.950803
0.954054
0.961653
0.971273
0.992328
1.02094
1.03888
1.04992
1.05922
1.0588
1.04105
1.03373
1.04193
1.05525
1.07476
1.11089
1.1453
1.16846
1.18789
1.20186
1.19104
1.1767
1.1793
1.20268
1.24691
1.28256
2.17201
7.9988
0.632291
0.639474
0.64226
0.644963
0.64657
0.646271
0.647196
0.649487
0.652494
0.658517
0.669152
0.676919
0.681559
0.68508
0.688132
0.689794
0.68881
0.689461
0.691879
0.695089
0.700406
0.71147
0.721223
0.726777
0.73073
0.734124
0.73556
0.733688
0.734211
0.736862
0.740377
0.745406
0.756833
0.76895
0.775788
0.780289
0.783978
0.784494
0.78131
0.781768
0.784812
0.788852
0.794312
0.806753
0.821078
0.829311
0.834451
0.838553
0.838151
0.833061
0.833039
0.836555
0.841321
0.84811
0.863455
0.880059
0.889484
0.895439
0.90038
0.899007
0.890419
0.889134
0.893741
0.899956
0.909803
0.930937
0.950173
0.960546
0.967846
0.973534
0.968382
0.956421
0.955062
0.96168
0.970408
0.985853
1.01511
1.03822
1.05109
1.06121
1.06832
1.05654
1.04048
1.04049
1.052
1.06768
1.09671
1.13442
1.16326
1.18501
1.20477
1.20787
1.19202
1.18467
1.19038
1.21766
1.24634
2.16632
8.01601
0.635441
0.642815
0.645666
0.64845
0.650339
0.649962
0.650422
0.652537
0.655391
0.660997
0.67197
0.680131
0.684838
0.68837
0.691439
0.693466
0.692566
0.692683
0.694862
0.69788
0.702544
0.713541
0.724076
0.72996
0.733996
0.737421
0.739505
0.737623
0.737179
0.739475
0.742859
0.74744
0.758333
0.771207
0.778689
0.783436
0.787304
0.789376
0.78592
0.784315
0.78667
0.79058
0.79578
0.807571
0.822531
0.831653
0.837358
0.841978
0.844579
0.839372
0.835353
0.837528
0.842145
0.848635
0.863166
0.88113
0.89162
0.897993
0.903457
0.906122
0.897968
0.891842
0.894527
0.90024
0.908216
0.927048
0.949889
0.962825
0.970687
0.977279
0.97861
0.965773
0.958231
0.961459
0.969365
0.980265
1.00504
1.03504
1.05323
1.06463
1.07416
1.07278
1.05315
1.0443
1.05023
1.06315
1.083
1.11725
1.1502
1.17485
1.1958
1.21327
1.20993
1.19477
1.18652
1.1968
1.2124
2.15415
8.03922
0.638343
0.645896
0.648797
0.651678
0.653725
0.653225
0.653333
0.655327
0.658141
0.663329
0.674384
0.683165
0.688011
0.691546
0.694618
0.696886
0.696072
0.69547
0.697353
0.700345
0.704809
0.715455
0.726686
0.732948
0.737103
0.740612
0.74329
0.741843
0.739828
0.741472
0.74475
0.749367
0.759907
0.773267
0.781305
0.786306
0.790382
0.793659
0.79172
0.787574
0.788391
0.791928
0.796928
0.808167
0.824121
0.834123
0.839983
0.844739
0.84881
0.846489
0.839503
0.839172
0.843245
0.848852
0.861287
0.881165
0.893948
0.900757
0.906329
0.91088
0.906421
0.897204
0.896564
0.901087
0.907345
0.920568
0.945898
0.964344
0.973967
0.980834
0.985551
0.97726
0.964091
0.962608
0.968965
0.977587
0.993507
1.02482
1.05094
1.06566
1.07633
1.08405
1.07387
1.05526
1.05189
1.06014
1.07389
1.09912
1.13387
1.16252
1.18494
1.20508
1.21629
1.21026
1.19417
1.18296
1.17927
2.13338
8.06138
0.641433
0.649239
0.65211
0.654939
0.656985
0.656466
0.656267
0.658141
0.660908
0.665529
0.676275
0.685833
0.69112
0.694838
0.697972
0.700595
0.700162
0.698511
0.699788
0.702624
0.706656
0.716689
0.728899
0.735866
0.740276
0.743892
0.74705
0.746815
0.743451
0.743821
0.746736
0.750784
0.760218
0.774628
0.783763
0.789126
0.793377
0.797173
0.797561
0.792082
0.790934
0.793792
0.798075
0.806948
0.82408
0.836436
0.842952
0.84776
0.852065
0.85236
0.844917
0.842442
0.845247
0.850045
0.858064
0.877573
0.895223
0.904118
0.91002
0.915147
0.914676
0.90428
0.899756
0.902229
0.907832
0.915955
0.937185
0.962761
0.976652
0.984492
0.990755
0.990115
0.974961
0.966933
0.969249
0.976838
0.986311
1.00857
1.04133
1.0632
1.07643
1.08723
1.09219
1.07588
1.05921
1.05976
1.0698
1.08547
1.11431
1.14609
1.17102
1.19188
1.21005
1.21551
1.20673
1.18761
1.15979
2.09634
8.08183
0.644383
0.652502
0.655383
0.658159
0.660273
0.65997
0.659458
0.661109
0.663768
0.6677
0.677665
0.68822
0.694047
0.697911
0.701151
0.704012
0.70435
0.702007
0.702627
0.705209
0.708723
0.717186
0.730463
0.738669
0.743364
0.747057
0.750373
0.751467
0.747752
0.746904
0.749216
0.752782
0.759803
0.774726
0.786115
0.792143
0.796489
0.800389
0.802444
0.797536
0.794499
0.796328
0.800154
0.806061
0.821607
0.837686
0.845915
0.851062
0.855557
0.858134
0.851941
0.846504
0.847595
0.85168
0.857114
0.871088
0.893629
0.906853
0.913713
0.919013
0.921885
0.913555
0.904254
0.904132
0.908821
0.915145
0.927455
0.95476
0.976336
0.986917
0.99404
0.999453
0.99223
0.976216
0.971963
0.975857
0.983639
0.99563
1.02459
1.05582
1.0747
1.08693
1.09696
1.09685
1.07804
1.06555
1.0686
1.07927
1.09718
1.128
1.15661
1.17811
1.19607
1.2098
1.21068
1.19569
1.15929
2.05596
8.10256
0.647094
0.655616
0.65853
0.661322
0.663616
0.663696
0.662872
0.664195
0.666679
0.669976
0.678619
0.690332
0.697027
0.701083
0.704363
0.707294
0.708377
0.705886
0.705807
0.708075
0.711229
0.717571
0.731071
0.741097
0.74639
0.750231
0.753629
0.755766
0.752621
0.750322
0.752004
0.755218
0.760079
0.773265
0.787672
0.795128
0.799731
0.803661
0.806682
0.803548
0.798585
0.799249
0.802401
0.806775
0.817477
0.836621
0.848375
0.854365
0.858957
0.862842
0.859896
0.851645
0.850255
0.853179
0.857963
0.865897
0.887199
0.907267
0.916828
0.922576
0.92727
0.925098
0.912841
0.907904
0.910064
0.915437
0.922405
0.941193
0.970485
0.987828
0.996931
1.0043
1.00784
0.993186
0.978169
0.977246
0.983183
0.991657
1.00695
1.03908
1.0669
1.08329
1.09504
1.10457
1.10236
1.08264
1.07208
1.07639
1.08782
1.10843
1.13923
1.1645
1.18328
1.19817
1.20602
1.20125
1.17184
2.02546
8.12247
0.649315
0.658554
0.661651
0.664567
0.667075
0.667707
0.666414
0.667237
0.669516
0.672452
0.679237
0.6917
0.69974
0.704161
0.707553
0.710554
0.712375
0.710144
0.709134
0.711043
0.71396
0.718335
0.730329
0.742779
0.749175
0.753288
0.756805
0.759701
0.758023
0.754186
0.754919
0.757779
0.761531
0.770881
0.787495
0.797597
0.802863
0.8069
0.810492
0.809985
0.803695
0.802205
0.804604
0.808421
0.814712
0.832306
0.849415
0.857471
0.862473
0.866839
0.867789
0.858914
0.853577
0.85515
0.859275
0.864579
0.878043
0.903039
0.918443
0.925789
0.931202
0.934812
0.926624
0.91407
0.91181
0.915152
0.921152
0.930606
0.956687
0.984398
0.99837
1.00639
1.01294
1.01294
0.995688
0.983794
0.984431
0.990279
0.999018
1.01854
1.05189
1.07706
1.09243
1.10414
1.11193
1.10619
1.08707
1.07837
1.0832
1.09475
1.1179
1.14849
1.17102
1.18653
1.19691
1.19986
1.18597
2.01219
8.14121
0.651068
0.661389
0.664779
0.667842
0.670483
0.671776
0.67013
0.670215
0.672269
0.675087
0.680091
0.692213
0.70217
0.707212
0.710704
0.713761
0.716198
0.714865
0.712735
0.713963
0.716634
0.720009
0.728868
0.743364
0.751795
0.756384
0.759991
0.763224
0.763499
0.758831
0.757951
0.760344
0.763757
0.769441
0.784951
0.799119
0.805883
0.810168
0.813965
0.815938
0.810187
0.805685
0.806988
0.810343
0.814707
0.826124
0.847196
0.859812
0.866003
0.870498
0.874024
0.868975
0.859351
0.857837
0.860654
0.86527
0.872156
0.892887
0.916883
0.928577
0.93518
0.940665
0.940856
0.926015
0.915942
0.916616
0.921512
0.927891
0.94051
0.970778
0.995181
1.00685
1.01484
1.02214
1.01873
0.998323
0.988155
0.990478
0.997607
1.00739
1.03039
1.06284
1.08523
1.09951
1.11104
1.11795
1.11058
1.09101
1.08283
1.08752
1.09914
1.12454
1.1545
1.17437
1.18666
1.19238
1.19479
2.01809
8.15833
0.652374
0.664156
0.667902
0.671074
0.67376
0.675587
0.674061
0.673342
0.675121
0.677827
0.681528
0.691668
0.703776
0.710085
0.713884
0.717062
0.719903
0.71996
0.716751
0.716839
0.719139
0.722241
0.728
0.742333
0.753761
0.759354
0.763177
0.766569
0.7686
0.764573
0.761461
0.762943
0.76603
0.769956
0.780852
0.798582
0.808302
0.813386
0.817385
0.820815
0.818215
0.810729
0.809688
0.812339
0.816164
0.822165
0.840392
0.859828
0.868699
0.873934
0.878359
0.879501
0.869199
0.861664
0.862327
0.866021
0.871134
0.8821
0.90842
0.928353
0.937025
0.942609
0.947575
0.94444
0.928366
0.921077
0.922366
0.927081
0.933909
0.951438
0.984465
1.00637
1.01678
1.02399
1.02911
1.02198
1.00266
0.994793
0.997667
1.00489
1.01597
1.04226
1.07306
1.09319
1.10658
1.11759
1.12267
1.11342
1.09375
1.08562
1.0897
1.10102
1.1283
1.15721
1.17476
1.18233
1.19529
2.0433
8.17814
0.653263
0.666552
0.670931
0.674173
0.6769
0.679187
0.678503
0.676911
0.678113
0.680542
0.683496
0.690544
0.704138
0.712701
0.717099
0.720413
0.723403
0.724842
0.721443
0.719906
0.721707
0.724629
0.728517
0.739809
0.754616
0.762169
0.7664
0.769896
0.772923
0.771216
0.765926
0.765673
0.768185
0.771625
0.777699
0.794742
0.809827
0.816711
0.820943
0.824725
0.825988
0.81837
0.813335
0.814416
0.817568
0.821833
0.832073
0.85488
0.870437
0.877704
0.882618
0.886626
0.882325
0.869501
0.865435
0.867547
0.871836
0.87746
0.893408
0.921513
0.937784
0.945716
0.951941
0.956624
0.947319
0.929863
0.925042
0.928231
0.934092
0.941344
0.96212
0.994893
1.01361
1.02305
1.03099
1.0371
1.02767
1.00747
1.00076
1.00456
1.01226
1.02495
1.05294
1.08132
1.09954
1.11227
1.12272
1.12734
1.11629
1.09528
1.08654
1.08982
1.10063
1.12879
1.15646
1.17039
1.18883
2.08262
8.20209
0.65366
0.668094
0.673741
0.677296
0.680175
0.682824
0.683447
0.681028
0.681075
0.683029
0.685733
0.690229
0.702854
0.714609
0.720217
0.723733
0.726793
0.729214
0.727108
0.72366
0.724456
0.727015
0.730203
0.737144
0.753155
0.764303
0.769615
0.773342
0.776734
0.777866
0.772053
0.768903
0.770428
0.773461
0.777388
0.788663
0.808346
0.819146
0.824422
0.82839
0.831851
0.828459
0.819056
0.816924
0.819264
0.823026
0.828198
0.844556
0.867971
0.879578
0.885399
0.890007
0.893113
0.88444
0.872226
0.870009
0.872385
0.876969
0.884269
0.906705
0.934233
0.947623
0.954305
0.959089
0.962173
0.950804
0.935196
0.931837
0.934366
0.939459
0.947764
0.973173
1.00571
1.02335
1.03245
1.0396
1.04297
1.03153
1.01317
1.0073
1.01082
1.01816
1.03269
1.06297
1.08977
1.10641
1.11807
1.12743
1.13103
1.11853
1.09594
1.08587
1.08804
1.09839
1.12769
1.15135
1.17573
2.12743
8.22601
0.653788
0.668417
0.676429
0.680591
0.683653
0.686429
0.688193
0.685711
0.684055
0.685516
0.688116
0.691402
0.700562
0.715065
0.722927
0.727002
0.730183
0.733053
0.73317
0.728502
0.727386
0.729319
0.732265
0.736401
0.749223
0.765104
0.772715
0.776891
0.780333
0.783155
0.779787
0.773306
0.772893
0.775406
0.778839
0.784502
0.802009
0.819825
0.827816
0.832324
0.836116
0.837634
0.82876
0.821311
0.821534
0.824376
0.828411
0.83572
0.857898
0.878934
0.888296
0.89404
0.898851
0.899077
0.884692
0.874377
0.874668
0.878685
0.88364
0.891885
0.917796
0.94309
0.954419
0.961511
0.967905
0.96984
0.954226
0.938725
0.936516
0.940768
0.946924
0.956055
0.983074
1.01351
1.0291
1.03796
1.04571
1.05003
1.03746
1.01804
1.01218
1.01612
1.02421
1.04116
1.07197
1.09679
1.11214
1.12315
1.13174
1.13463
1.1204
1.09579
1.08379
1.08434
1.09544
1.123
1.15457
2.16789
8.2439
0.654494
0.667344
0.678573
0.683908
0.687101
0.689888
0.692257
0.691064
0.687768
0.688324
0.690648
0.69351
0.698895
0.713178
0.724747
0.730091
0.733507
0.736545
0.738559
0.734723
0.73085
0.7318
0.734507
0.737805
0.745179
0.762661
0.774765
0.780204
0.78379
0.7871
0.787622
0.780117
0.776181
0.777656
0.780707
0.784402
0.793809
0.815343
0.82939
0.835601
0.83971
0.843422
0.841333
0.829642
0.824645
0.826088
0.829447
0.833928
0.845425
0.871294
0.888707
0.896012
0.900726
0.90501
0.903069
0.888064
0.880147
0.880488
0.883467
0.888479
0.900066
0.929854
0.953423
0.963615
0.969471
0.974311
0.975212
0.959671
0.945742
0.943899
0.94679
0.952091
0.96289
0.992851
1.02209
1.03704
1.04572
1.05266
1.05502
1.04237
1.02413
1.01822
1.02121
1.02861
1.04728
1.07924
1.10332
1.11766
1.12761
1.13511
1.13694
1.12202
1.09515
1.07976
1.07929
1.0895
1.12696
2.19387
8.25534
0.656228
0.665547
0.679246
0.686638
0.690338
0.69323
0.695852
0.696569
0.69273
0.691523
0.693242
0.695889
0.699309
0.709557
0.724889
0.732733
0.736768
0.739878
0.742672
0.741749
0.735869
0.734778
0.736951
0.740021
0.743959
0.75659
0.774328
0.782865
0.787244
0.790713
0.793599
0.789601
0.781494
0.780323
0.782578
0.785838
0.790347
0.80528
0.827206
0.838116
0.843713
0.847671
0.850495
0.84281
0.830936
0.82892
0.831661
0.835478
0.840194
0.855384
0.882062
0.896725
0.903682
0.909109
0.913541
0.906888
0.889443
0.883142
0.885486
0.890067
0.895318
0.908082
0.938513
0.959794
0.969343
0.976555
0.982771
0.982249
0.963934
0.949434
0.948063
0.952747
0.959299
0.971468
1.00168
1.02856
1.04225
1.05091
1.05858
1.06203
1.04834
1.02817
1.02149
1.02459
1.03237
1.0524
1.08467
1.10799
1.12153
1.13088
1.13749
1.13815
1.12309
1.09439
1.0749
1.06904
1.09357
2.18962
8.2626
0.658564
0.664376
0.67778
0.688455
0.693345
0.696509
0.699278
0.701416
0.698938
0.695339
0.696009
0.698358
0.701215
0.706763
0.721881
0.734166
0.739652
0.743098
0.746223
0.748151
0.74325
0.738748
0.739571
0.742116
0.745224
0.751347
0.769213
0.784151
0.790558
0.794327
0.797726
0.798718
0.790219
0.784032
0.784756
0.787752
0.791291
0.797508
0.817558
0.837347
0.845798
0.850739
0.854724
0.856065
0.845165
0.83528
0.834548
0.836815
0.840541
0.846502
0.866713
0.892919
0.905455
0.911345
0.915403
0.918842
0.911007
0.8952
0.890336
0.891507
0.894834
0.900289
0.916634
0.949083
0.969403
0.977971
0.983375
0.988191
0.987431
0.970127
0.956823
0.955486
0.958788
0.964591
0.978476
1.01073
1.03673
1.04956
1.05749
1.06393
1.06624
1.05311
1.03324
1.02584
1.02788
1.03484
1.05518
1.08817
1.11151
1.12444
1.13286
1.13825
1.13812
1.12332
1.09334
1.0671
1.06389
2.15488
8.26862
0.660948
0.665116
0.674844
0.688984
0.696079
0.69974
0.702604
0.705236
0.705383
0.700544
0.699143
0.700832
0.703425
0.70668
0.716727
0.733445
0.742209
0.746545
0.749768
0.752696
0.75163
0.744444
0.742375
0.744211
0.747187
0.750766
0.76118
0.781317
0.792731
0.797972
0.801407
0.80461
0.801764
0.791277
0.788045
0.789917
0.79304
0.796692
0.805735
0.829156
0.846177
0.853632
0.858601
0.862688
0.861063
0.846397
0.838083
0.839097
0.842724
0.846748
0.853308
0.876264
0.900872
0.911721
0.91813
0.923718
0.926912
0.915118
0.898112
0.893794
0.89685
0.901783
0.907418
0.924321
0.955745
0.973951
0.982635
0.989781
0.995823
0.994173
0.975465
0.961343
0.959877
0.964382
0.971111
0.986249
1.01784
1.04153
1.05345
1.06179
1.0695
1.07326
1.05912
1.03709
1.02841
1.03007
1.0367
1.05677
1.08998
1.11334
1.12581
1.1335
1.13788
1.1367
1.12212
1.08581
1.0553
2.09302
8.27736
0.663645
0.667207
0.672604
0.686866
0.697764
0.702684
0.705806
0.708608
0.71071
0.707371
0.702943
0.70336
0.705634
0.708504
0.713617
0.728971
0.743425
0.74967
0.753122
0.756164
0.758232
0.752806
0.746571
0.746827
0.749413
0.752524
0.756899
0.77215
0.791681
0.800536
0.805171
0.80862
0.81087
0.803407
0.79362
0.792352
0.794667
0.798015
0.802254
0.815341
0.840087
0.854324
0.860481
0.864819
0.868524
0.865039
0.850621
0.844287
0.84492
0.847436
0.851648
0.860557
0.886954
0.910389
0.920346
0.925517
0.929411
0.932013
0.920736
0.905363
0.901439
0.902752
0.906116
0.912056
0.932471
0.965134
0.982981
0.990799
0.996211
1.00112
0.999871
0.98233
0.968312
0.966235
0.969184
0.974842
0.991301
1.02494
1.0493
1.06128
1.06882
1.07532
1.07803
1.06447
1.04185
1.03152
1.03203
1.03774
1.05701
1.09056
1.11421
1.12614
1.13291
1.13584
1.13443
1.11408
1.07363
2.03264
8.29293
0.666656
0.66971
0.672669
0.682637
0.697722
0.705272
0.709045
0.711883
0.714501
0.714348
0.708401
0.70645
0.708197
0.71094
0.71409
0.722734
0.740735
0.751514
0.75636
0.759589
0.762652
0.762244
0.753907
0.750354
0.751683
0.754297
0.757508
0.763975
0.783687
0.801015
0.808335
0.812519
0.81588
0.81591
0.804391
0.796566
0.797106
0.800246
0.803706
0.808229
0.824513
0.849158
0.861551
0.867647
0.87255
0.876324
0.868958
0.852603
0.84733
0.849729
0.853845
0.858187
0.867497
0.89455
0.916177
0.925408
0.931858
0.937519
0.939725
0.926124
0.909111
0.904707
0.90776
0.91282
0.919353
0.939972
0.970572
0.986941
0.995364
1.00242
1.00836
1.00669
0.98798
0.972413
0.969703
0.97379
0.980641
0.998092
1.03074
1.05377
1.06533
1.0735
1.08093
1.0846
1.0704
1.04553
1.0335
1.03336
1.03842
1.05652
1.0898
1.11343
1.1249
1.13054
1.13318
1.12752
1.10813
2.00252
8.31403
0.669847
0.672177
0.674597
0.679716
0.694291
0.706589
0.711855
0.714939
0.717729
0.719896
0.71616
0.710891
0.711106
0.713289
0.716001
0.719888
0.733272
0.751094
0.759209
0.763248
0.766354
0.768911
0.764208
0.755506
0.754177
0.756433
0.759583
0.763108
0.772491
0.79454
0.809039
0.815285
0.819468
0.822797
0.820034
0.807407
0.801859
0.802776
0.805214
0.80869
0.814541
0.834628
0.858312
0.869157
0.874457
0.878199
0.881249
0.873415
0.858801
0.854616
0.855627
0.858308
0.862829
0.874604
0.903764
0.924913
0.93366
0.938459
0.94247
0.945043
0.933233
0.917025
0.912578
0.913816
0.917308
0.923831
0.946835
0.978803
0.99537
1.00281
1.00795
1.01319
1.01326
0.995956
0.979712
0.976129
0.978364
0.983651
1.00073
1.03504
1.06002
1.07224
1.07952
1.08551
1.08808
1.07556
1.05041
1.03603
1.03435
1.03818
1.05445
1.08737
1.11122
1.12214
1.12779
1.12674
1.13141
2.00924
8.33634
0.673601
0.674857
0.677114
0.679934
0.688597
0.70497
0.714016
0.718222
0.721139
0.72389
0.72418
0.717516
0.714276
0.715535
0.718118
0.721078
0.727121
0.744796
0.76008
0.766443
0.769905
0.772977
0.773999
0.765307
0.758629
0.759123
0.761711
0.764768
0.768555
0.78131
0.804197
0.816769
0.822638
0.826793
0.829822
0.823639
0.809653
0.805353
0.807555
0.811088
0.814586
0.820905
0.84311
0.865535
0.875222
0.880952
0.886006
0.888884
0.877848
0.861808
0.857769
0.860534
0.864837
0.869391
0.881015
0.909583
0.929345
0.938028
0.944618
0.950123
0.952303
0.939359
0.921454
0.915872
0.918505
0.92363
0.930843
0.953058
0.982815
0.998499
1.00728
1.01475
1.02063
1.02027
1.00191
0.983524
0.978579
0.981658
0.987938
1.00469
1.03771
1.06232
1.07447
1.08247
1.08947
1.09338
1.08165
1.0544
1.03726
1.03418
1.03715
1.05165
1.08402
1.10775
1.11954
1.12092
1.13996
2.0443
8.36147
0.678357
0.677689
0.679364
0.681779
0.685655
0.698937
0.714439
0.72118
0.724563
0.727355
0.729802
0.726581
0.719423
0.71854
0.720619
0.723396
0.726458
0.735084
0.755185
0.767993
0.773548
0.77692
0.779935
0.777789
0.766948
0.76253
0.76375
0.766434
0.769685
0.774449
0.790725
0.813036
0.823785
0.829029
0.833039
0.835531
0.827631
0.814981
0.811896
0.813133
0.815614
0.819393
0.827888
0.852739
0.873993
0.882955
0.887685
0.891153
0.893722
0.883726
0.869245
0.8655
0.86641
0.868957
0.873579
0.88759
0.918228
0.937954
0.945874
0.950399
0.954502
0.957593
0.946623
0.929149
0.923504
0.924455
0.927868
0.934433
0.958306
0.9906
1.00718
1.01456
1.01967
1.0249
1.02619
1.00964
0.990317
0.984274
0.985499
0.989911
1.00425
1.03857
1.06674
1.08051
1.08775
1.09312
1.09585
1.08625
1.05909
1.03876
1.03352
1.03524
1.04802
1.07949
1.10381
1.11224
1.13864
2.0963
8.3865
0.68422
0.680699
0.681657
0.684032
0.68666
0.692936
0.70998
0.722621
0.727958
0.731014
0.73389
0.735227
0.728374
0.722952
0.723352
0.725345
0.727954
0.731734
0.744181
0.765151
0.775888
0.780819
0.783886
0.786408
0.780537
0.76936
0.766819
0.768884
0.771977
0.775107
0.78029
0.799298
0.820932
0.830701
0.835938
0.840244
0.842163
0.831209
0.817592
0.815171
0.818015
0.821702
0.825432
0.834212
0.859665
0.879454
0.887844
0.893741
0.898894
0.901227
0.88926
0.872967
0.86843
0.870997
0.875296
0.880146
0.894029
0.923125
0.941252
0.94956
0.956167
0.961766
0.964478
0.953018
0.93421
0.926917
0.928826
0.933716
0.941055
0.96371
0.993569
1.00932
1.01823
1.02585
1.03188
1.03307
1.01579
0.994278
0.98644
0.988246
0.993705
1.00772
1.0403
1.06818
1.08198
1.0896
1.09553
1.09914
1.09148
1.0636
1.03957
1.03174
1.03238
1.04378
1.07502
1.09488
1.12837
2.15269
8.40807
0.691051
0.685277
0.684358
0.686223
0.688668
0.691794
0.701873
0.720553
0.730514
0.734949
0.737883
0.740644
0.738921
0.729591
0.726081
0.727534
0.730288
0.733205
0.737884
0.753781
0.773806
0.782913
0.787727
0.791119
0.792611
0.783453
0.773495
0.772183
0.773846
0.776522
0.780041
0.787087
0.808623
0.828784
0.837485
0.842168
0.84572
0.846865
0.836018
0.824245
0.822187
0.823376
0.825901
0.82996
0.841008
0.868116
0.887597
0.895697
0.900083
0.903499
0.906133
0.896282
0.880894
0.87627
0.87695
0.879343
0.884013
0.899722
0.930661
0.9495
0.957248
0.961704
0.966118
0.970063
0.960992
0.942239
0.93446
0.934558
0.937367
0.943388
0.966329
0.999615
1.01774
1.02565
1.03074
1.03583
1.03865
1.02461
1.00276
0.993483
0.993305
0.996572
1.0067
1.03825
1.06922
1.08517
1.09279
1.09763
1.10051
1.09505
1.06855
1.04058
1.02934
1.02821
1.03933
1.06582
1.10735
2.20242
8.42086
0.697384
0.692413
0.687686
0.688579
0.69087
0.693515
0.697939
0.712541
0.730198
0.73793
0.741626
0.744346
0.746463
0.740657
0.731751
0.730669
0.732696
0.735348
0.73822
0.743937
0.762978
0.78203
0.790258
0.794814
0.798081
0.798068
0.786061
0.776426
0.776128
0.779147
0.782565
0.785887
0.793401
0.816341
0.835318
0.843239
0.848241
0.852664
0.853735
0.840715
0.827377
0.82532
0.828258
0.832205
0.836284
0.846954
0.873331
0.891782
0.8999
0.905907
0.910988
0.913516
0.902885
0.885482
0.879138
0.881047
0.885357
0.890752
0.905787
0.934313
0.952146
0.960899
0.967986
0.973679
0.977155
0.967906
0.947572
0.937309
0.937744
0.942433
0.949369
0.970343
1.00127
1.01897
1.02854
1.03697
1.04339
1.04632
1.03245
1.00774
0.994893
0.993891
0.997889
1.00759
1.03724
1.06857
1.08511
1.09321
1.09856
1.10162
1.09778
1.07341
1.04173
1.02529
1.02314
1.03121
1.07854
2.23074
8.42874
0.701706
0.701314
0.693378
0.691908
0.693776
0.696371
0.699038
0.70477
0.722405
0.738135
0.744711
0.74825
0.751044
0.751569
0.742207
0.735002
0.734932
0.737073
0.739881
0.743259
0.75101
0.772038
0.789196
0.796407
0.800824
0.804169
0.802853
0.790332
0.782617
0.782601
0.784301
0.787027
0.790781
0.800471
0.824778
0.842583
0.849987
0.854094
0.857133
0.858324
0.847216
0.835192
0.832956
0.834058
0.836429
0.840559
0.852634
0.880525
0.899683
0.907482
0.9116
0.915041
0.918601
0.910956
0.893977
0.887326
0.887655
0.889885
0.894389
0.90947
0.940323
0.960385
0.968737
0.973281
0.977626
0.982362
0.97657
0.956535
0.945343
0.944078
0.946147
0.951138
0.97
1.00462
1.02702
1.0366
1.0422
1.04667
1.04996
1.03973
1.01534
1.00041
0.997612
1.00013
1.00705
1.03382
1.0676
1.08632
1.09454
1.09907
1.1017
1.09912
1.07794
1.04397
1.02294
1.01216
1.04388
2.21969
8.42862
0.705026
0.708769
0.703073
0.697089
0.697126
0.698911
0.70115
0.704014
0.711768
0.731687
0.745895
0.751707
0.754908
0.757532
0.755551
0.744066
0.738752
0.739826
0.742585
0.745547
0.748816
0.757371
0.779641
0.795976
0.802907
0.807244
0.810687
0.808286
0.794128
0.785821
0.786365
0.789575
0.79299
0.796471
0.806309
0.831002
0.847732
0.854689
0.859825
0.864304
0.865535
0.853237
0.839236
0.836012
0.838585
0.842493
0.846766
0.857851
0.884512
0.902826
0.911073
0.917315
0.922436
0.925764
0.917972
0.89967
0.890672
0.891349
0.895396
0.900625
0.914155
0.94252
0.961938
0.971653
0.979452
0.985531
0.98983
0.984169
0.963068
0.948657
0.946629
0.950487
0.956369
0.972673
1.0048
1.02695
1.03747
1.04523
1.05195
1.05636
1.04827
1.02234
1.00384
0.999245
1.00146
1.00783
1.03229
1.06576
1.08546
1.09413
1.09867
1.10109
1.0994
1.08143
1.04699
1.01589
1.01719
2.17044
8.42487
0.70871
0.713537
0.71338
0.705033
0.700428
0.701259
0.703703
0.706375
0.709595
0.719172
0.73988
0.752655
0.758242
0.76168
0.764149
0.759054
0.747429
0.744039
0.745261
0.747331
0.750178
0.754029
0.764451
0.787214
0.802348
0.808781
0.812853
0.815915
0.813156
0.799871
0.79287
0.7929
0.794366
0.79708
0.801071
0.813152
0.838808
0.855123
0.861725
0.865425
0.868542
0.870694
0.860932
0.847307
0.84366
0.84431
0.846312
0.85034
0.862468
0.891065
0.910847
0.918774
0.922993
0.926407
0.930573
0.925828
0.908181
0.8986
0.897711
0.89926
0.903184
0.915868
0.946924
0.970375
0.980235
0.985425
0.989425
0.994226
0.992008
0.972607
0.957051
0.953316
0.954055
0.957568
0.970356
1.0039
1.03248
1.04556
1.0519
1.05696
1.06054
1.05479
1.03117
1.0101
1.00294
1.00328
1.00684
1.02707
1.06212
1.08407
1.09333
1.09764
1.09973
1.09799
1.08358
1.04316
1.01395
2.09271
8.42848
0.711727
0.717548
0.719775
0.716482
0.707256
0.704967
0.706555
0.708846
0.711027
0.714079
0.725532
0.747472
0.759625
0.765014
0.768342
0.770217
0.762762
0.750864
0.747981
0.750067
0.753118
0.755942
0.759146
0.769967
0.793549
0.80813
0.814428
0.8189
0.822663
0.819682
0.804553
0.795932
0.796384
0.799562
0.803067
0.80678
0.818317
0.843422
0.858887
0.86579
0.87128
0.875928
0.878171
0.867749
0.851919
0.846379
0.848159
0.851942
0.856519
0.867807
0.894385
0.913143
0.92184
0.928304
0.933768
0.937838
0.933207
0.914407
0.901845
0.900526
0.904145
0.909267
0.920904
0.948948
0.971323
0.982226
0.990065
0.996616
1.00155
0.999656
0.979954
0.9607
0.954712
0.956986
0.962027
0.973461
1.0038
1.03286
1.04712
1.05457
1.06055
1.06524
1.06157
1.03767
1.01262
1.00227
1.00198
1.00581
1.02406
1.05856
1.08179
1.09151
1.09588
1.09752
1.09657
1.07796
1.04274
2.02669
8.44297
0.713213
0.721812
0.724224
0.725994
0.719115
0.710455
0.708841
0.709865
0.711996
0.714777
0.719012
0.733075
0.754734
0.765813
0.771
0.774769
0.776364
0.767553
0.756604
0.754378
0.755215
0.7568
0.759729
0.763961
0.777198
0.800941
0.814696
0.820592
0.824279
0.827159
0.824911
0.811527
0.803582
0.803091
0.80415
0.806672
0.810792
0.823907
0.85003
0.866339
0.873065
0.876835
0.88014
0.88359
0.876111
0.860287
0.854201
0.854331
0.855995
0.859769
0.870921
0.898867
0.920432
0.929584
0.934258
0.937903
0.942528
0.941353
0.923997
0.910537
0.907918
0.908938
0.912153
0.921407
0.949625
0.977252
0.990209
0.99626
1.00008
1.00486
1.00671
0.990814
0.970362
0.96264
0.962088
0.964381
0.971674
0.999672
1.0334
1.05113
1.05874
1.06344
1.06639
1.06504
1.04591
1.01897
1.00561
1.00336
1.00546
1.01995
1.05389
1.07902
1.08969
1.09345
1.09556
1.09037
1.08322
2.00512
8.46376
0.711466
0.72538
0.728421
0.731038
0.730874
0.720383
0.712389
0.712062
0.714247
0.716948
0.719716
0.72418
0.739991
0.761925
0.772629
0.777586
0.781255
0.782429
0.771826
0.759271
0.756821
0.759122
0.762212
0.765312
0.769283
0.783073
0.806814
0.819715
0.825454
0.830172
0.834032
0.831854
0.816635
0.80636
0.805881
0.80883
0.812562
0.816749
0.82882
0.853808
0.869701
0.876998
0.882792
0.887506
0.89054
0.883107
0.865676
0.857023
0.857547
0.861179
0.865814
0.875816
0.901135
0.922201
0.93234
0.939783
0.945731
0.950173
0.948793
0.931256
0.914588
0.91027
0.912866
0.917521
0.925901
0.95
0.976593
0.990588
0.99962
1.00746
1.01284
1.01451
0.999381
0.975573
0.963946
0.963351
0.967131
0.97437
0.998339
1.03137
1.04991
1.05838
1.06516
1.07026
1.07102
1.05402
1.02416
1.00669
1.00278
1.00413
1.01552
1.04848
1.07501
1.0863
1.09135
1.08887
1.10619
2.02419
8.48581
0.703312
0.725183
0.731393
0.734953
0.73714
0.734062
0.721938
0.716478
0.717141
0.719054
0.721479
0.724532
0.730141
0.74791
0.768784
0.778265
0.782789
0.786104
0.786598
0.776077
0.765165
0.763418
0.764791
0.766723
0.769747
0.774424