/*--------------------------------*- C++ -*----------------------------------*\
  =========                 |
  \\      /  F ield         | OpenFOAM: The Open Source CFD Toolbox
   \\    /   O peration     | Website:  https://openfoam.org
    \\  /    A nd           | Version:  12
     \\/     M anipulation  |
\*---------------------------------------------------------------------------*/
FoamFile
{
    format      ascii;
    class       volScalarField;
    location    "9.7";
    object      rho;
}
// * * * * * * * * * * * * * * * * * * * * * * * * * * * * * * * * * * * * * //

dimensions      [1 -3 0 0 0 0 0];

internalField   nonuniform List<scalar> 
9801
(
1.03576
1.04425
1.0465
1.04868
1.04981
1.0509
1.05261
1.05517
1.05862
1.06431
1.0766
1.08848
1.09445
1.0976
1.1001
1.10149
1.10247
1.1042
1.10676
1.11015
1.11577
1.12771
1.14058
1.14747
1.15119
1.1539
1.15532
1.15616
1.15792
1.16062
1.16419
1.17015
1.18327
1.19686
1.20383
1.20787
1.21057
1.21116
1.21168
1.21383
1.21695
1.22101
1.22805
1.24427
1.25855
1.26552
1.26963
1.27116
1.271
1.27143
1.27362
1.27737
1.28218
1.29147
1.31181
1.32734
1.33474
1.33867
1.33746
1.33519
1.33647
1.33967
1.34474
1.35151
1.36677
1.39126
1.40687
1.41461
1.41913
1.41298
1.40697
1.40914
1.41489
1.42291
1.43567
1.46466
1.49169
1.50631
1.51519
1.51604
1.50346
1.49659
1.50147
1.51262
1.52999
1.57234
1.61484
1.63859
1.65552
1.66777
1.65953
1.64086
1.64234
1.67105
1.72745
1.82897
1.92531
2.80934
7.26716
1.04017
1.04898
1.0524
1.05521
1.05519
1.05531
1.05753
1.06075
1.06436
1.07088
1.08309
1.09264
1.0986
1.10283
1.10613
1.10635
1.1059
1.10816
1.11162
1.11547
1.1213
1.13348
1.14464
1.15132
1.15592
1.15947
1.15925
1.15827
1.16073
1.16452
1.16873
1.17467
1.18775
1.2005
1.20759
1.21246
1.21588
1.21382
1.21256
1.2156
1.21989
1.22461
1.23137
1.24674
1.26136
1.26928
1.27438
1.27701
1.27259
1.27089
1.27428
1.27936
1.28475
1.29347
1.31268
1.3288
1.33735
1.34281
1.34334
1.33605
1.33534
1.33963
1.34569
1.35235
1.36658
1.39157
1.40747
1.41594
1.42224
1.41781
1.40707
1.40767
1.41429
1.42278
1.4358
1.46453
1.49148
1.50579
1.51529
1.52085
1.50744
1.49467
1.49988
1.51165
1.52885
1.56522
1.60298
1.62751
1.64677
1.66474
1.66299
1.64299
1.63901
1.66151
1.70117
1.7719
1.83731
2.6825
7.27781
1.03925
1.04799
1.05161
1.0546
1.05507
1.05503
1.05706
1.06029
1.064
1.07051
1.08263
1.09188
1.09762
1.10197
1.10544
1.10613
1.10552
1.1075
1.11093
1.11489
1.12064
1.13273
1.14372
1.15022
1.15491
1.15868
1.15889
1.15777
1.15997
1.16372
1.16801
1.1737
1.18643
1.19914
1.20627
1.21128
1.21493
1.21338
1.21201
1.21477
1.21893
1.22363
1.22979
1.24437
1.25935
1.26757
1.27295
1.27608
1.2721
1.26992
1.27308
1.2781
1.2836
1.29147
1.30937
1.32573
1.33462
1.34036
1.34251
1.33595
1.33344
1.3369
1.34311
1.34991
1.36263
1.38631
1.40267
1.41156
1.41848
1.41773
1.40663
1.40403
1.40939
1.41762
1.429
1.45484
1.48175
1.4975
1.50827
1.51686
1.50848
1.4914
1.49213
1.5037
1.51799
1.54546
1.58579
1.61701
1.63793
1.65605
1.65933
1.64075
1.63451
1.64935
1.68228
1.7369
1.7785
2.61708
7.19557
1.03919
1.04777
1.0512
1.05442
1.05576
1.05538
1.05693
1.0599
1.06364
1.07057
1.0826
1.09157
1.09703
1.10121
1.10481
1.10627
1.10524
1.10653
1.10962
1.11363
1.11985
1.13207
1.14285
1.14914
1.15372
1.15763
1.15856
1.15673
1.15802
1.16132
1.16564
1.17172
1.18455
1.19741
1.20465
1.20967
1.21366
1.21297
1.21035
1.21188
1.21546
1.22016
1.22652
1.24089
1.25635
1.2649
1.27039
1.27432
1.27145
1.26732
1.26904
1.27325
1.27861
1.28636
1.3037
1.32087
1.33027
1.33629
1.3405
1.3355
1.32913
1.33058
1.336
1.34265
1.35437
1.37765
1.39579
1.4056
1.4129
1.4163
1.40535
1.39714
1.40042
1.40829
1.41823
1.44004
1.46955
1.48784
1.49894
1.50824
1.50768
1.48938
1.48187
1.49004
1.50339
1.52274
1.55856
1.59256
1.6156
1.63465
1.64763
1.63591
1.62139
1.62406
1.64708
1.68838
1.71875
2.58743
7.14432
1.03844
1.04688
1.05014
1.05331
1.05518
1.05483
1.05592
1.0586
1.0621
1.0691
1.08143
1.09038
1.0957
1.09973
1.10323
1.10514
1.10403
1.10476
1.10752
1.11118
1.11725
1.12983
1.14087
1.14714
1.1516
1.15541
1.15702
1.15489
1.15547
1.15843
1.16237
1.16799
1.18073
1.1942
1.20178
1.20676
1.21082
1.21138
1.20782
1.20828
1.21161
1.21603
1.22201
1.2356
1.25122
1.26015
1.26571
1.2701
1.26963
1.26404
1.26397
1.26771
1.27282
1.2801
1.29653
1.31424
1.32423
1.3305
1.33564
1.33414
1.3249
1.32345
1.32821
1.3347
1.34501
1.36713
1.38708
1.39775
1.40521
1.41102
1.4056
1.39307
1.39156
1.39821
1.40702
1.42272
1.45253
1.47578
1.48866
1.49867
1.50566
1.49346
1.47714
1.47713
1.48841
1.50373
1.53217
1.56934
1.59782
1.61907
1.63775
1.64002
1.6239
1.61675
1.62251
1.64834
1.67384
2.56986
7.12618
1.03766
1.04625
1.04954
1.05276
1.05492
1.05448
1.055
1.05743
1.06071
1.06714
1.07975
1.08909
1.09444
1.09843
1.10188
1.10417
1.10315
1.10326
1.10571
1.10909
1.11433
1.12672
1.13856
1.14514
1.14961
1.1534
1.1557
1.1536
1.15308
1.15558
1.15929
1.16433
1.17635
1.19055
1.19876
1.20393
1.20811
1.21035
1.20655
1.20477
1.20726
1.21147
1.21706
1.22983
1.24599
1.25578
1.26184
1.26671
1.26947
1.26387
1.25953
1.26178
1.26663
1.2735
1.28893
1.30788
1.31885
1.32547
1.33113
1.33389
1.32528
1.3188
1.32153
1.32739
1.33562
1.35518
1.37874
1.39195
1.39998
1.40664
1.40794
1.39459
1.38684
1.39009
1.39799
1.40895
1.43408
1.46457
1.48274
1.49393
1.50326
1.5017
1.48171
1.47285
1.47881
1.49147
1.51094
1.5448
1.57743
1.60177
1.62218
1.63871
1.63482
1.62003
1.61281
1.6231
1.63677
2.55293
7.12921
1.03686
1.0456
1.04894
1.05224
1.05456
1.05397
1.05408
1.05634
1.05953
1.06542
1.07802
1.088
1.09348
1.09747
1.10093
1.10345
1.10249
1.10179
1.10388
1.10719
1.11215
1.12407
1.13661
1.14355
1.14815
1.15201
1.15495
1.1533
1.15104
1.15283
1.15638
1.16141
1.17298
1.18762
1.19637
1.20178
1.20618
1.20971
1.20755
1.20302
1.20389
1.20767
1.213
1.22511
1.24225
1.2529
1.25911
1.26417
1.26849
1.26598
1.25849
1.25813
1.26241
1.26829
1.2814
1.30233
1.31564
1.32276
1.32859
1.33332
1.32856
1.31884
1.31818
1.32282
1.32925
1.34292
1.36921
1.38819
1.3979
1.40486
1.40962
1.40099
1.3874
1.38594
1.39243
1.4011
1.4172
1.44905
1.47545
1.49015
1.50064
1.50822
1.49787
1.47902
1.47576
1.48414
1.49772
1.52252
1.55674
1.58506
1.60708
1.62677
1.63766
1.63174
1.61698
1.60717
1.60273
2.53196
7.13989
1.03689
1.04587
1.04915
1.05238
1.05468
1.05406
1.05382
1.05594
1.05908
1.06432
1.07651
1.08731
1.09328
1.09747
1.10098
1.10387
1.10333
1.10144
1.10287
1.10604
1.11053
1.1217
1.13526
1.14295
1.14782
1.1518
1.15524
1.15491
1.15115
1.15156
1.15478
1.15921
1.16952
1.18525
1.19515
1.20096
1.20556
1.20964
1.21
1.20399
1.20276
1.20586
1.21049
1.22001
1.23838
1.25149
1.25844
1.26358
1.26815
1.26842
1.26041
1.2578
1.2608
1.26586
1.27428
1.29489
1.31345
1.32265
1.32883
1.33414
1.33358
1.3226
1.31788
1.3205
1.3263
1.33468
1.3567
1.38321
1.39743
1.40531
1.41163
1.41094
1.3953
1.38705
1.38951
1.39728
1.40688
1.4293
1.46246
1.48463
1.49793
1.5086
1.5134
1.4971
1.48047
1.48118
1.49137
1.50688
1.53529
1.56655
1.5911
1.6115
1.62931
1.63465
1.62656
1.60949
1.58245
2.4987
7.15362
1.03749
1.04679
1.05007
1.05323
1.05561
1.05524
1.05464
1.05651
1.05953
1.064
1.0753
1.08722
1.09376
1.09808
1.10169
1.10487
1.10522
1.10256
1.10325
1.10615
1.11009
1.11952
1.13424
1.14328
1.14844
1.15248
1.15611
1.1573
1.15316
1.15222
1.15479
1.15873
1.16643
1.18271
1.19503
1.20157
1.20627
1.21047
1.21267
1.20732
1.20399
1.20599
1.21016
1.21653
1.23322
1.25045
1.25915
1.2646
1.26935
1.27206
1.26545
1.25962
1.2608
1.26517
1.27094
1.28567
1.30949
1.32331
1.33035
1.33584
1.33882
1.33012
1.32036
1.32025
1.32517
1.33176
1.34447
1.37263
1.39497
1.40577
1.41297
1.41845
1.41108
1.39465
1.3903
1.39441
1.40241
1.41458
1.44374
1.4751
1.49414
1.50645
1.51646
1.51634
1.49774
1.48536
1.4886
1.49931
1.51701
1.54741
1.57569
1.59683
1.61403
1.62721
1.62819
1.6148
1.58039
2.46267
7.16817
1.03859
1.04835
1.05168
1.05485
1.05745
1.05753
1.05658
1.05807
1.06088
1.06461
1.07442
1.08764
1.09515
1.09968
1.10334
1.10661
1.10782
1.10503
1.10493
1.10745
1.11096
1.11806
1.13305
1.14409
1.14991
1.15414
1.15787
1.16022
1.15676
1.15423
1.15606
1.15959
1.16495
1.17938
1.19506
1.2031
1.20807
1.21231
1.21557
1.21219
1.2068
1.2075
1.21089
1.21564
1.22716
1.24774
1.26024
1.26655
1.27139
1.27549
1.27237
1.2636
1.26211
1.26522
1.27032
1.27872
1.3011
1.32226
1.33214
1.33807
1.34294
1.3407
1.32795
1.32277
1.32505
1.33071
1.33796
1.35726
1.38738
1.40529
1.41449
1.42193
1.42557
1.41076
1.39545
1.39454
1.4007
1.40938
1.42484
1.45714
1.48493
1.50142
1.51331
1.52271
1.52047
1.50111
1.49072
1.49521
1.50645
1.52675
1.55716
1.58215
1.60031
1.61422
1.62176
1.61795
1.59072
2.43535
7.18156
1.03981
1.05039
1.05392
1.05723
1.06008
1.0608
1.05934
1.06027
1.06286
1.06618
1.07386
1.08791
1.09692
1.10187
1.10567
1.10903
1.11107
1.10859
1.10747
1.1096
1.11284
1.1177
1.13102
1.14478
1.15182
1.15634
1.16021
1.16339
1.16156
1.15737
1.15817
1.1613
1.1654
1.17564
1.19378
1.20468
1.21036
1.2147
1.21858
1.21804
1.21128
1.20967
1.21225
1.21635
1.22314
1.24194
1.26025
1.26874
1.27403
1.27865
1.27966
1.27029
1.26465
1.2663
1.27068
1.27635
1.29046
1.31664
1.33277
1.34031
1.34594
1.34969
1.34126
1.32825
1.32591
1.32943
1.33572
1.34549
1.37223
1.40056
1.41489
1.42305
1.42969
1.42968
1.41225
1.40017
1.40088
1.40696
1.41581
1.43552
1.46897
1.49402
1.50933
1.52103
1.52872
1.52305
1.50434
1.49583
1.5007
1.51187
1.53468
1.56494
1.58709
1.60169
1.61124
1.61444
1.60238
2.42319
7.19292
1.04097
1.05276
1.05662
1.0601
1.06311
1.06459
1.06273
1.06284
1.06518
1.06838
1.07402
1.08767
1.09881
1.10447
1.10838
1.1118
1.11453
1.11306
1.1107
1.11208
1.11506
1.1188
1.12862
1.14466
1.1539
1.15894
1.1629
1.16645
1.16677
1.16168
1.16073
1.16336
1.16709
1.17329
1.19016
1.20554
1.21279
1.21741
1.2215
1.22363
1.21748
1.21266
1.21407
1.21768
1.22237
1.23454
1.25701
1.27042
1.27691
1.28166
1.28538
1.28009
1.26996
1.26837
1.27136
1.27626
1.28352
1.30514
1.33021
1.34236
1.34911
1.3548
1.35503
1.33978
1.32937
1.33009
1.33524
1.34186
1.35473
1.38569
1.41068
1.42265
1.43057
1.43783
1.43445
1.41397
1.40371
1.40613
1.41343
1.42323
1.4464
1.47885
1.50101
1.51518
1.5267
1.53347
1.5262
1.50704
1.49905
1.50363
1.51486
1.54001
1.56972
1.58898
1.6001
1.60519
1.60877
2.42773
7.20179
1.04188
1.05531
1.05957
1.06317
1.06623
1.06831
1.0666
1.0658
1.06783
1.07089
1.07507
1.08647
1.10004
1.10708
1.11133
1.11487
1.11805
1.11812
1.11457
1.11468
1.11724
1.12069
1.12706
1.14289
1.15544
1.16155
1.16574
1.16946
1.17169
1.16731
1.16394
1.16557
1.16894
1.17322
1.18504
1.20427
1.21471
1.22017
1.22448
1.22816
1.2254
1.2174
1.2163
1.21915
1.22326
1.22969
1.24904
1.26971
1.27902
1.28452
1.28918
1.29039
1.2796
1.27169
1.27239
1.27629
1.2817
1.29313
1.32054
1.34128
1.35023
1.35597
1.36108
1.35789
1.34139
1.33387
1.33522
1.34015
1.34719
1.36515
1.3988
1.42104
1.43163
1.43889
1.444
1.43687
1.41744
1.40946
1.41244
1.41978
1.43084
1.45723
1.48793
1.5078
1.521
1.53198
1.53697
1.52789
1.5086
1.50062
1.50454
1.51562
1.54284
1.57138
1.58785
1.59427
1.6067
2.44879
7.21134
1.04242
1.05753
1.06251
1.06619
1.06929
1.07189
1.07112
1.06934
1.07071
1.07345
1.07679
1.08471
1.09995
1.10947
1.11437
1.11806
1.12138
1.12298
1.11923
1.11754
1.11954
1.12278
1.12708
1.13952
1.15581
1.16404
1.16866
1.17248
1.17579
1.17394
1.1682
1.16794
1.17068
1.17443
1.18103
1.19944
1.21573
1.22307
1.22761
1.23167
1.23303
1.22492
1.21954
1.22071
1.22409
1.22867
1.23952
1.26369
1.28016
1.28774
1.29289
1.29709
1.29261
1.27918
1.2749
1.27712
1.28164
1.28755
1.30408
1.33329
1.35025
1.35835
1.36469
1.36952
1.36003
1.34211
1.33712
1.34043
1.34658
1.35397
1.37509
1.40842
1.42755
1.43718
1.44498
1.45097
1.44157
1.42132
1.41453
1.41844
1.42619
1.43888
1.46691
1.49508
1.51299
1.52554
1.53599
1.54056
1.52972
1.50904
1.50043
1.50361
1.51442
1.54264
1.56944
1.58186
1.59812
2.48181
7.22271
1.04243
1.05883
1.06522
1.06925
1.07251
1.0755
1.07621
1.0735
1.07356
1.07576
1.07881
1.08386
1.09798
1.11108
1.11729
1.12119
1.12459
1.12727
1.12495
1.12115
1.12203
1.12487
1.12839
1.13605
1.15362
1.1658
1.17157
1.17563
1.17932
1.18055
1.17425
1.17084
1.1725
1.1758
1.18009
1.19225
1.21349
1.22506
1.23067
1.23492
1.23861
1.235
1.22498
1.22271
1.22521
1.22923
1.23475
1.25204
1.27682
1.28902
1.29505
1.29988
1.30311
1.29408
1.28128
1.27895
1.28146
1.28628
1.29389
1.31721
1.34568
1.35953
1.3664
1.37127
1.37438
1.36276
1.34673
1.34326
1.34592
1.35122
1.35972
1.38562
1.41856
1.43638
1.44557
1.45267
1.45602
1.44462
1.42617
1.42021
1.42385
1.43118
1.44575
1.47602
1.50252
1.51881
1.53032
1.53974
1.54329
1.53096
1.50865
1.49877
1.501
1.51165
1.54072
1.56278
1.58385
2.5192
7.23378
1.04213
1.05875
1.06777
1.07248
1.07593
1.07906
1.08104
1.07826
1.07641
1.07805
1.08097
1.08466
1.0949
1.11107
1.11975
1.12426
1.12778
1.13095
1.13108
1.12594
1.12471
1.12685
1.1301
1.13467
1.14871
1.16611
1.17434
1.17887
1.1826
1.18566
1.18201
1.175
1.17456
1.17729
1.18102
1.18716
1.20599
1.22515
1.23365
1.23844
1.24247
1.24408
1.23465
1.22671
1.22695
1.22998
1.23432
1.24207
1.26543
1.28763
1.29743
1.30335
1.30835
1.30858
1.2936
1.2828
1.2831
1.28732
1.29259
1.30111
1.32789
1.35409
1.36583
1.37294
1.37935
1.38133
1.36545
1.3496
1.34732
1.35175
1.35817
1.36741
1.39485
1.42557
1.44137
1.45035
1.45799
1.46221
1.44968
1.43021
1.42433
1.42836
1.43648
1.45351
1.48418
1.50858
1.52358
1.53451
1.54316
1.546
1.53184
1.5075
1.49594
1.4968
1.5082
1.53473
1.56246
2.55253
7.24191
1.04246
1.05705
1.06972
1.07571
1.0793
1.08243
1.08509
1.08375
1.08007
1.08069
1.0833
1.0865
1.09252
1.10842
1.12125
1.12712
1.13089
1.13424
1.13646
1.13224
1.12798
1.12903
1.13201
1.13563
1.14374
1.16284
1.17601
1.18186
1.18574
1.18932
1.18988
1.18177
1.17752
1.17912
1.18243
1.18646
1.19657
1.21967
1.23472
1.24127
1.24563
1.24956
1.24734
1.23494
1.22963
1.23117
1.23474
1.23953
1.25162
1.27885
1.29716
1.30477
1.30963
1.31405
1.31204
1.29644
1.28816
1.28853
1.29169
1.29693
1.30894
1.33971
1.3639
1.37433
1.3803
1.38519
1.38611
1.37033
1.35609
1.3542
1.35724
1.36272
1.37371
1.40407
1.43346
1.44845
1.45717
1.46408
1.46643
1.45385
1.43559
1.42973
1.43282
1.44022
1.45894
1.49062
1.51418
1.52822
1.53819
1.54572
1.54742
1.53245
1.50601
1.49142
1.49146
1.50144
1.53527
2.57348
7.24784
1.04396
1.05454
1.07001
1.07828
1.08243
1.08567
1.08861
1.08941
1.08512
1.08377
1.08569
1.08865
1.09247
1.10386
1.12089
1.12951
1.13394
1.13737
1.14044
1.13942
1.13297
1.13177
1.13416
1.13753
1.14187
1.15562
1.17498
1.1842
1.1889
1.19264
1.19574
1.19144
1.1827
1.18144
1.18389
1.18742
1.1923
1.20828
1.23176
1.24338
1.24925
1.25344
1.25642
1.2483
1.23571
1.23357
1.23646
1.24052
1.24556
1.26149
1.28949
1.3049
1.31208
1.31765
1.32225
1.31538
1.29728
1.29071
1.29315
1.29798
1.30347
1.31657
1.34785
1.36977
1.3796
1.38682
1.39306
1.39256
1.37405
1.35928
1.35788
1.36276
1.36947
1.38176
1.41232
1.43923
1.45294
1.46171
1.46935
1.47273
1.45908
1.43896
1.43237
1.43557
1.44339
1.4634
1.49522
1.51798
1.53136
1.54078
1.54729
1.54773
1.53256
1.50467
1.48636
1.48084
1.5029
2.56894
7.25405
1.04616
1.05275
1.06787
1.07987
1.08532
1.08886
1.09195
1.09433
1.09157
1.08755
1.0883
1.09092
1.0941
1.10028
1.11702
1.13061
1.13661
1.14039
1.14382
1.14593
1.14056
1.13563
1.13653
1.13932
1.14272
1.14942
1.16884
1.18507
1.19194
1.19599
1.19965
1.20072
1.19158
1.18492
1.18571
1.18894
1.19278
1.19946
1.22087
1.24199
1.25094
1.25611
1.26032
1.26173
1.25023
1.23976
1.23898
1.24139
1.24536
1.25164
1.27282
1.30024
1.31332
1.31945
1.32364
1.32718
1.3191
1.30272
1.29764
1.29887
1.30236
1.30798
1.32483
1.35813
1.37888
1.38765
1.39316
1.39804
1.39731
1.37982
1.36627
1.3649
1.36834
1.37426
1.38831
1.42081
1.44678
1.45959
1.46757
1.47399
1.47626
1.46321
1.44343
1.43619
1.43834
1.44529
1.4655
1.49792
1.52076
1.53367
1.54212
1.54722
1.54678
1.53195
1.50347
1.47847
1.47444
2.53951
7.26343
1.04842
1.05315
1.06411
1.08002
1.08793
1.09201
1.0952
1.09813
1.09829
1.09291
1.09135
1.09323
1.09611
1.09974
1.11086
1.12934
1.13896
1.1437
1.14722
1.15042
1.14926
1.1414
1.13913
1.14114
1.1444
1.14833
1.15964
1.18148
1.19382
1.19941
1.20311
1.20655
1.2035
1.19224
1.18877
1.19079
1.19415
1.19812
1.20777
1.2327
1.25083
1.25868
1.26387
1.26816
1.26645
1.25101
1.24221
1.24327
1.24709
1.2514
1.2583
1.28226
1.308
1.31936
1.32592
1.33164
1.33495
1.32281
1.30521
1.3007
1.30385
1.30902
1.31484
1.33216
1.36434
1.38306
1.39199
1.39915
1.40519
1.40356
1.38471
1.37034
1.36883
1.37349
1.38028
1.39559
1.42736
1.45095
1.46285
1.47129
1.47896
1.48263
1.46857
1.44671
1.43825
1.44
1.4466
1.46641
1.49898
1.52201
1.53458
1.54214
1.54598
1.54446
1.53028
1.4964
1.46656
2.48718
7.27605
1.05107
1.05511
1.06119
1.07721
1.08941
1.09487
1.09834
1.10145
1.10379
1.10008
1.09516
1.09563
1.09816
1.10134
1.10702
1.12396
1.13987
1.14668
1.15045
1.15376
1.15601
1.1501
1.14329
1.14357
1.14639
1.14979
1.15458
1.17108
1.19223
1.20175
1.20668
1.21039
1.21279
1.20481
1.19432
1.19296
1.19545
1.19906
1.20362
1.21754
1.24383
1.25894
1.2654
1.26992
1.27378
1.27012
1.25497
1.24827
1.24895
1.25162
1.2561
1.26542
1.29301
1.31737
1.32771
1.33307
1.33705
1.3397
1.32809
1.31218
1.30808
1.30946
1.31299
1.31913
1.34014
1.37352
1.39169
1.39968
1.40516
1.41009
1.40882
1.39112
1.37687
1.37475
1.37781
1.38353
1.4001
1.43388
1.45817
1.47014
1.47771
1.48413
1.48675
1.47329
1.45097
1.44089
1.44146
1.44706
1.46596
1.49893
1.5225
1.53452
1.54083
1.54308
1.54141
1.52273
1.48475
2.43581
7.29227
1.0541
1.05756
1.0609
1.07208
1.08898
1.09737
1.10154
1.1047
1.1076
1.10743
1.10084
1.09868
1.10062
1.10366
1.10716
1.11669
1.1365
1.14831
1.15356
1.15708
1.16041
1.15996
1.15089
1.14702
1.14847
1.15132
1.15484
1.16186
1.18316
1.20186
1.20968
1.21413
1.21771
1.21774
1.20544
1.19706
1.19764
1.20101
1.20474
1.20959
1.22686
1.25298
1.26609
1.27244
1.27753
1.28147
1.27376
1.2566
1.25105
1.25357
1.25792
1.26257
1.27227
1.30042
1.32294
1.33255
1.3391
1.34482
1.34706
1.33311
1.31558
1.31102
1.31422
1.31954
1.32626
1.34736
1.37857
1.3953
1.40391
1.41092
1.41684
1.41517
1.39631
1.38051
1.37778
1.38197
1.38889
1.40651
1.43923
1.46214
1.47367
1.48187
1.4892
1.49275
1.47867
1.4542
1.4424
1.44226
1.44713
1.46481
1.49778
1.52153
1.53285
1.53762
1.53959
1.53434
1.51771
2.41041
7.30943
1.05736
1.05999
1.06271
1.06847
1.08476
1.09848
1.1043
1.10772
1.11081
1.1132
1.10908
1.10325
1.10349
1.10591
1.10891
1.11321
1.12791
1.14747
1.15631
1.16067
1.16405
1.16682
1.16172
1.15227
1.15082
1.15328
1.15671
1.16057
1.1707
1.19446
1.21005
1.21669
1.22113
1.22467
1.22174
1.20828
1.20235
1.20333
1.20595
1.20969
1.21591
1.23717
1.26218
1.27359
1.27913
1.28301
1.28618
1.27801
1.26271
1.25832
1.2594
1.26225
1.26701
1.2793
1.30962
1.33146
1.34047
1.34539
1.34945
1.35208
1.33999
1.32335
1.31877
1.3201
1.32376
1.33049
1.35403
1.38652
1.40328
1.41082
1.416
1.4212
1.42121
1.40379
1.38742
1.38388
1.38623
1.39153
1.40868
1.44305
1.46792
1.48006
1.4873
1.49316
1.49563
1.48331
1.45865
1.44445
1.44269
1.44627
1.46225
1.49519
1.5192
1.52956
1.53401
1.53213
1.53876
2.41667
7.32323
1.06126
1.06269
1.06522
1.06839
1.07807
1.09633
1.10638
1.11101
1.11424
1.11728
1.1176
1.11025
1.10667
1.10806
1.11091
1.11419
1.12083
1.14019
1.15691
1.1638
1.16755
1.17087
1.17198
1.16257
1.15532
1.15586
1.15867
1.162
1.16612
1.17984
1.20444
1.21791
1.22414
1.22854
1.23176
1.2252
1.21032
1.20572
1.20806
1.21183
1.21559
1.22229
1.2457
1.26936
1.27956
1.28549
1.29074
1.29375
1.28227
1.26552
1.26128
1.26418
1.26873
1.27353
1.28556
1.31514
1.33561
1.34461
1.35128
1.35685
1.35909
1.3459
1.32758
1.32184
1.32459
1.32993
1.33728
1.35989
1.39011
1.40602
1.41488
1.4223
1.42815
1.4278
1.4094
1.39091
1.38597
1.38911
1.39543
1.41228
1.44532
1.46977
1.48177
1.48965
1.49656
1.50041
1.48895
1.46224
1.44517
1.44194
1.44468
1.45915
1.49185
1.51544
1.52604
1.52611
1.54485
2.44686
7.33612
1.0663
1.06557
1.06744
1.07015
1.0745
1.08929
1.10654
1.11398
1.1177
1.12078
1.12347
1.11992
1.11204
1.11106
1.11335
1.11641
1.1198
1.12924
1.15121
1.16516
1.17116
1.17481
1.17807
1.17575
1.16403
1.15924
1.16056
1.16347
1.167
1.17214
1.18961
1.21354
1.22502
1.23057
1.23482
1.23745
1.22909
1.21564
1.21233
1.21365
1.21629
1.22033
1.2293
1.2555
1.27782
1.28722
1.29218
1.29579
1.29846
1.28807
1.27296
1.26903
1.26999
1.27268
1.27748
1.29204
1.32373
1.34402
1.35218
1.35683
1.36102
1.36418
1.35299
1.33512
1.32932
1.33032
1.33386
1.34058
1.36489
1.39758
1.41426
1.42169
1.42685
1.43206
1.43332
1.41675
1.39739
1.3914
1.39266
1.39705
1.41138
1.44577
1.47378
1.4873
1.49435
1.4997
1.50244
1.49317
1.4665
1.44615
1.44072
1.44237
1.45546
1.48728
1.51076
1.51766
1.54158
2.49098
7.34765
1.07259
1.06866
1.06973
1.07239
1.07535
1.08235
1.10127
1.11528
1.12114
1.1245
1.12766
1.12912
1.12159
1.11562
1.11606
1.11826
1.12113
1.12529
1.13888
1.16175
1.1734
1.17871
1.18202
1.18472
1.1784
1.16632
1.16356
1.16579
1.16913
1.17254
1.17813
1.19848
1.22163
1.23204
1.23757
1.2421
1.24412
1.23253
1.21807
1.21547
1.21848
1.2224
1.22641
1.23568
1.26244
1.28326
1.29208
1.29817
1.30347
1.30588
1.29347
1.27651
1.27174
1.27442
1.27895
1.28402
1.29836
1.3284
1.34712
1.35571
1.36241
1.36805
1.3708
1.35916
1.33997
1.33246
1.33445
1.33951
1.34695
1.36998
1.40019
1.41608
1.42503
1.43264
1.43866
1.43986
1.42263
1.40107
1.39319
1.395
1.40048
1.41458
1.4472
1.47482
1.48826
1.49568
1.5017
1.50542
1.49803
1.47051
1.44635
1.43849
1.43928
1.45126
1.48246
1.50077
1.53017
2.53829
7.35672
1.07995
1.07352
1.0725
1.07458
1.07732
1.08083
1.09201
1.11271
1.12369
1.12853
1.13174
1.13476
1.13287
1.12264
1.11879
1.12039
1.12341
1.12663
1.13176
1.14908
1.17086
1.18069
1.18584
1.18949
1.19108
1.18123
1.17048
1.16906
1.17086
1.17376
1.17758
1.18514
1.20817
1.22967
1.23891
1.24384
1.24756
1.24874
1.23728
1.2248
1.22261
1.22389
1.2266
1.23093
1.24259
1.27109
1.29144
1.29989
1.30444
1.30794
1.31064
1.30042
1.28442
1.27958
1.28031
1.28285
1.28772
1.304
1.33591
1.35522
1.36316
1.3677
1.37217
1.37615
1.36689
1.3478
1.33983
1.33995
1.34287
1.34902
1.37232
1.40595
1.42416
1.43209
1.4372
1.44227
1.44503
1.43104
1.4092
1.39994
1.39979
1.40305
1.41321
1.44484
1.47548
1.49098
1.49845
1.50349
1.50652
1.50122
1.47484
1.44672
1.43577
1.43511
1.44678
1.47242
1.50929
2.57947
7.36143
1.08676
1.08124
1.07597
1.07697
1.07953
1.08248
1.08742
1.10357
1.12307
1.13155
1.13557
1.13854
1.14085
1.1345
1.12476
1.12358
1.12581
1.12872
1.13189
1.13812
1.15881
1.17945
1.1883
1.19316
1.19665
1.19663
1.18374
1.17337
1.17305
1.17631
1.18
1.18361
1.19166
1.21611
1.2363
1.24469
1.24991
1.25452
1.25564
1.24193
1.22786
1.22569
1.22882
1.23305
1.23741
1.24862
1.27624
1.29553
1.304
1.31013
1.3153
1.3179
1.30691
1.28889
1.2823
1.2843
1.28886
1.29448
1.30999
1.33933
1.35765
1.36662
1.37374
1.37945
1.38295
1.37359
1.35294
1.34245
1.34292
1.34775
1.3548
1.3761
1.40734
1.42509
1.43463
1.44302
1.44942
1.45236
1.43857
1.41391
1.401
1.4
1.40407
1.41387
1.44358
1.47445
1.49049
1.49856
1.5042
1.50736
1.5035
1.47897
1.44735
1.43168
1.43022
1.43828
1.48141
2.60239
7.3652
1.09133
1.09091
1.08209
1.08045
1.08253
1.08542
1.08839
1.09475
1.11419
1.13152
1.1387
1.14254
1.1456
1.14618
1.13597
1.1281
1.12803
1.13038
1.13345
1.13716
1.14557
1.16835
1.18688
1.19461
1.19931
1.20289
1.20148
1.18808
1.1798
1.17979
1.18163
1.18457
1.18861
1.19894
1.22481
1.24366
1.25147
1.25578
1.25896
1.26021
1.24856
1.23592
1.23358
1.23477
1.23731
1.24166
1.25433
1.28348
1.30337
1.31143
1.31567
1.31919
1.32286
1.31498
1.29746
1.29057
1.29094
1.29331
1.29798
1.31354
1.34523
1.36568
1.37416
1.37875
1.38318
1.38795
1.38206
1.36176
1.35037
1.34911
1.35128
1.35638
1.3755
1.4104
1.43278
1.4423
1.44792
1.45242
1.45568
1.44554
1.42119
1.40625
1.40351
1.40612
1.4131
1.43983
1.47305
1.49133
1.4997
1.50453
1.50711
1.50429
1.4828
1.44936
1.4296
1.41933
1.44831
2.59254
7.3682
1.09479
1.09896
1.09265
1.086
1.08604
1.08802
1.0905
1.09368
1.10224
1.12416
1.13975
1.1461
1.14958
1.15245
1.15029
1.13779
1.13199
1.13316
1.13616
1.13939
1.14297
1.15222
1.17628
1.19388
1.20131
1.20593
1.20961
1.20706
1.19194
1.18303
1.18361
1.18705
1.19071
1.19445
1.20491
1.2311
1.24883
1.25619
1.26155
1.26624
1.26756
1.2547
1.24
1.2366
1.2393
1.24344
1.24794
1.25949
1.28727
1.30633
1.3149
1.32129
1.32653
1.32995
1.32196
1.30313
1.29381
1.29452
1.29877
1.30417
1.31807
1.34714
1.36698
1.37687
1.38472
1.39082
1.39516
1.38947
1.36815
1.3535
1.35146
1.35543
1.36141
1.37794
1.41032
1.43241
1.44286
1.45062
1.45735
1.46176
1.4537
1.42788
1.40938
1.40491
1.40723
1.41367
1.43797
1.47079
1.49022
1.49924
1.50398
1.50605
1.50393
1.48567
1.45268
1.42285
1.42326
2.55143
7.37388
1.09866
1.10402
1.10385
1.09461
1.0895
1.09041
1.09311
1.09607
1.09965
1.11018
1.13293
1.14692
1.153
1.15673
1.15942
1.15389
1.14125
1.13754
1.13887
1.14111
1.1442
1.14839
1.15965
1.18421
1.20048
1.20737
1.21171
1.21497
1.21204
1.19787
1.19036
1.19038
1.19195
1.19486
1.19911
1.21196
1.23914
1.25635
1.26332
1.26724
1.27051
1.27277
1.26256
1.24826
1.2444
1.24507
1.24718
1.25139
1.26405
1.29384
1.31433
1.32253
1.32689
1.33041
1.33468
1.3298
1.31166
1.30176
1.30085
1.30249
1.30656
1.3196
1.35141
1.37525
1.38522
1.39046
1.39454
1.39937
1.39711
1.37754
1.36177
1.35802
1.35882
1.36241
1.37533
1.40912
1.43764
1.45065
1.45703
1.46209
1.46563
1.45986
1.43632
1.4154
1.40846
1.40889
1.41242
1.43234
1.46683
1.48878
1.49849
1.50268
1.50411
1.50179
1.48752
1.44972
1.42126
2.48616
7.38495
1.10179
1.10825
1.1107
1.10706
1.09686
1.09432
1.09607
1.0986
1.10102
1.10441
1.11699
1.14104
1.15431
1.16016
1.16375
1.16578
1.15769
1.14476
1.14161
1.14387
1.14717
1.15025
1.15375
1.16542
1.19081
1.20647
1.21321
1.21793
1.22191
1.21874
1.20263
1.1934
1.19387
1.19726
1.20102
1.20501
1.21724
1.2438
1.26016
1.26745
1.27316
1.27797
1.28031
1.26942
1.25284
1.24699
1.24884
1.25285
1.25766
1.26941
1.29704
1.31651
1.32553
1.33215
1.3377
1.34184
1.3371
1.31784
1.30488
1.30352
1.30731
1.3126
1.32454
1.35321
1.37599
1.38704
1.39494
1.40152
1.40649
1.40458
1.38475
1.36525
1.3592
1.36155
1.36668
1.37829
1.40881
1.43778
1.45199
1.45945
1.46542
1.46997
1.46627
1.44256
1.41775
1.4076
1.40735
1.41107
1.42893
1.46307
1.48661
1.49667
1.50046
1.50113
1.49968
1.48265
1.45029
2.43047
7.40134
1.10324
1.11275
1.1154
1.11734
1.10976
1.10021
1.09843
1.09956
1.10192
1.10501
1.10968
1.1251
1.14879
1.16084
1.16643
1.17048
1.17219
1.16266
1.15079
1.14836
1.14928
1.151
1.15419
1.15879
1.17306
1.19856
1.21327
1.21954
1.22343
1.22646
1.22406
1.20983
1.20136
1.20084
1.20198
1.2047
1.2091
1.22302
1.25063
1.26775
1.2748
1.27872
1.28213
1.2857
1.27789
1.26136
1.25497
1.25511
1.2569
1.26086
1.2725
1.30154
1.3238
1.3332
1.33798
1.34171
1.34643
1.3452
1.32743
1.3136
1.31092
1.31202
1.31537
1.32487
1.35371
1.38173
1.39478
1.40088
1.40478
1.40958
1.41139
1.39539
1.37479
1.36706
1.36658
1.36892
1.37625
1.40437
1.43806
1.45571
1.46332
1.46799
1.47081
1.46941
1.4505
1.42398
1.41078
1.40847
1.41033
1.42444
1.45836
1.48402
1.49465
1.49735
1.49842
1.49309
1.48937
2.413
7.41781
1.1011
1.1165
1.11982
1.12269
1.12251
1.11098
1.10218
1.10183
1.10425
1.10723
1.1103
1.11521
1.1325
1.15639
1.168
1.17334
1.17726
1.17852
1.16709
1.15352
1.15086
1.15336
1.15671
1.16009
1.16439
1.1792
1.20462
1.2184
1.22448
1.22944
1.2335
1.2312
1.21508
1.20416
1.20366
1.20681
1.21083
1.21529
1.22804
1.25435
1.27106
1.27871
1.28468
1.28953
1.29267
1.28495
1.26681
1.25776
1.25832
1.26216
1.26703
1.27742
1.30365
1.3254
1.33583
1.34342
1.34944
1.35395
1.35254
1.33466
1.31759
1.31316
1.31588
1.32069
1.32926
1.35383
1.3808
1.39492
1.40401
1.41189
1.41729
1.41897
1.40382
1.3799
1.36819
1.36762
1.37145
1.37874
1.40282
1.43582
1.45429
1.46273
1.4694
1.47434
1.47508
1.45838
1.42907
1.41165
1.4075
1.40858
1.41973
1.45312
1.48018
1.49092
1.49457
1.49082
1.50959
2.42991
7.43012
1.0919
1.11611
1.12292
1.12682
1.12921
1.12585
1.11256
1.10656
1.1073
1.10941
1.11207
1.11543
1.12157
1.14094
1.16363
1.17389
1.17876
1.18232
1.18286
1.17154
1.15976
1.15787
1.15936
1.16145
1.16472
1.16974
1.18657
1.21218
1.22544
1.23103
1.23424
1.2369
1.23603
1.22275
1.21248
1.21126
1.21268
1.2152
1.21933
1.23244
1.2605
1.27866
1.28599
1.2899
1.29293
1.29692
1.29298
1.27599
1.26631
1.26545
1.26705
1.27066
1.27944
1.30697
1.33288
1.34427
1.34956
1.35286
1.35714
1.35886
1.34472
1.32709
1.32121
1.32118
1.32363
1.32945
1.35212
1.38517
1.40365
1.41141
1.41584
1.41977
1.42297
1.41313
1.38995
1.37606
1.373
1.37408
1.37808
1.39735
1.43392
1.45843
1.46803
1.47253
1.4759
1.47668
1.46396
1.43432
1.41263
1.40592
1.40635
1.41507
1.4472
1.47498
1.48729
1.48651
1.51386
2.4718
7.44251
1.08054
1.10512
1.12165
1.12865
1.13245
1.13501
1.13018
1.11657
1.11122
1.11255
1.11557
1.11867
1.12182
1.1274
1.14731
1.16941
1.17917
1.18406
1.18807
1.18946
1.17797
1.16433
1.16143
1.164
1.16764
1.1712
1.17562
1.19186
1.21661
1.22898
1.23477
1.23977
1.24398
1.24372
1.22999
1.21704
1.21449
1.2172
1.22112
1.22538
1.23669
1.26291
1.28062
1.2887
1.29486
1.30001
1.30397
1.30061
1.28322
1.27054
1.26886
1.27214
1.27679
1.28434
1.30814
1.333
1.34512
1.35276
1.35948
1.36456
1.36652
1.35362
1.33336
1.32407
1.32454
1.32885
1.33487
1.35279
1.38337
1.40233
1.41194
1.41996
1.42615
1.42995
1.42209
1.39719
1.37858
1.37358
1.3758
1.38072
1.39773
1.43229
1.45676
1.46692
1.47219
1.47627
1.47832
1.46912
1.43995
1.41394
1.40433
1.40373
1.41111
1.44137
1.46932
1.47774
1.51024
2.52455
7.45361
1.07695
1.08714
1.11092
1.12783
1.13489
1.1394
1.14229
1.13614
1.12263
1.11839
1.11937
1.12081
1.12317
1.12668
1.13358
1.15429
1.17543
1.18501
1.18975
1.19298
1.1941
1.18446
1.17223
1.16951
1.17068
1.17236
1.17543
1.18039
1.19753
1.22256
1.23572
1.24144
1.24476
1.24799
1.24988
1.23915
1.2258
1.2223
1.22284
1.22463
1.22849
1.23991
1.26729
1.28759
1.29623
1.30078
1.30413
1.30849
1.30852
1.29342
1.27968
1.27628
1.27628
1.27871
1.28503
1.30824
1.33776
1.35317
1.35993
1.36397
1.36809
1.37205
1.36445
1.34461
1.33342
1.33088
1.33087
1.33447
1.34876
1.38234
1.40854
1.41978
1.42524
1.42901
1.43258
1.4296
1.40817
1.38755
1.38027
1.37988
1.38193
1.39281
1.42615
1.45519
1.46784
1.47331
1.47728
1.48008
1.47462
1.44655
1.41614
1.40292
1.40111
1.4068
1.43606
1.45763
1.4965
2.57653
7.46004
1.07746
1.08213
1.09396
1.11903
1.13546
1.14206
1.14608
1.14868
1.14182
1.1273
1.1221
1.12362
1.12658
1.12952
1.13262
1.13853
1.15879
1.17996
1.1894
1.19442
1.19878
1.20119
1.19227
1.17773
1.1729
1.17472
1.1781
1.18159
1.1858
1.2008
1.22529
1.23872
1.24549
1.25108
1.25555
1.2575
1.24676
1.23039
1.22471
1.22647
1.23027
1.23482
1.24452
1.26886
1.28885
1.29865
1.30586
1.31186
1.31629
1.31625
1.30042
1.28267
1.27758
1.27993
1.28441
1.29108