/*--------------------------------*- C++ -*----------------------------------*\
  =========                 |
  \\      /  F ield         | OpenFOAM: The Open Source CFD Toolbox
   \\    /   O peration     | Website:  https://openfoam.org
    \\  /    A nd           | Version:  12
     \\/     M anipulation  |
\*---------------------------------------------------------------------------*/
FoamFile
{
    format      ascii;
    class       volScalarField;
    location    "0.74";
    object      p;
}
// * * * * * * * * * * * * * * * * * * * * * * * * * * * * * * * * * * * * * //

dimensions      [1 -1 -2 0 0 0 0];

internalField   nonuniform List<scalar> 
22702
(
1
1
0.837661
1
1.03195
1
1.47334
1
1
0.599837
1.47325
1.47326
1
1.33506
0.864086
1
1
1
1.47292
1
1.3464
1
1.47357
0.6164
1.26271
0.614823
1
1.47433
0.609816
0.616507
1
1.47196
1
1
1
1.34994
1.18009
1.47317
1
1
0.597208
1
1.20469
1
1.47413
1
1
1
1
0.62886
1
0.622151
1
1.47311
1
1.46957
1
1
1
1
0.609317
1
1
0.611292
1
0.61022
1
1
1
0.602215
1
1.47084
1.25671
1
1.46942
1.49113
0.610785
1.47601
0.639326
1
1.47344
0.649955
1.46774
1.46814
1
1
1
1
0.903776
0.59969
1.4718
1
1
0.606715
1
1.34646
0.607557
1
1
1
1
1.20407
1.47343
0.617914
1
1
1.08681
1
0.648695
1
1.47563
1.47022
1
1
0.599917
0.60297
0.599553
1
1
1
1
1
0.884269
1
1.35206
1.00718
1.47221
1
1.47157
1.47238
1.33339
1.46947
1
0.600968
1
0.604887
1
1
1
1
1.47088
1
1
1
1
1.47038
1
1.02746
1
1
1
1
0.62644
1
1.01045
1
0.638737
1
1
1
1.47091
1
1.47237
0.594022
0.6118
1.46842
1.47148
1
1.05037
1.23949
1
1.46806
0.641023
1.34835
1
1
1
1
1.33851
1.36774
1
1.4718
0.609565
1.46837
1
0.616787
1
0.623308
0.609374
1
1
1
1.47402
1
1
1.47038
1
1.46792
1.47171
0.666709
1
1
0.637821
1.47091
1
1
1
1.47129
1
0.617935
1
1
1.47137
1.47151
1.47073
1
1
1
1
1
1.3339
1
0.603051
1.48446
1.47042
1.32959
1
1
1
0.64742
1.47255
1.23015
1
1.34743
0.610887
0.614468
1.3487
1.47637
1
1.46921
0.60564
1.3556
1
1
1
1
1.47124
1
1.26805
1.0411
1
1
1.47114
0.604597
0.74583
1
1.47502
0.614104
1.46628
1
1
1
1
1
1
1
0.636879
0.743973
0.614726
1.47113
1
1
1
1
1.41685
1
0.640354
1
0.639362
0.638294
1.47245
0.615084
1.34231
1
1
1
0.997509
0.617298
0.600953
1
1
0.638026
1
1.47134
0.612285
1
1
1.47187
0.594471
1
1.47409
0.612156
1.47067
1
0.64575
0.997624
1
1
1
0.622024
1
1
0.999999
1.00001
0.990081
1.25771
1
0.63242
1
1
1
1
1
1
1
1.47038
1
1.4727
1
1
1
0.613659
1
1.47089
0.614955
1
0.999649
1
1
1.47016
1
1
1
1.46356
1
1
1.46038
1.47078
1
1.06327
1
1
0.607148
1
1
1
0.602431
1
1
1
1
0.616668
1
1
1
1
1
0.604614
1.00006
1.4723
1
0.999988
1.471
1.46885
1
1
0.673552
0.788962
1.47376
1
1
1
1.46944
0.60483
1
1.47197
1
1
0.690735
0.686075
1
0.627566
0.614037
1
1
1
1
1
1
1
1.47223
1.0931
1.44726
0.603684
0.887571
1.47259
1
1.46828
1.472
0.617937
0.748943
1
0.62534
1
1.48211
1
1
1
1
1.47068
1
1
1
1
1
1
1
1.14494
1.47191
1
1.47125
1
1
0.648633
1
1
1
1
1.47151
1.32063
1
1
0.626133
1.47159
1.47165
1
1.47163
1.47072
1.4714
1
0.806596
1
1.46152
0.959055
1.47133
1
0.621821
0.998866
1.47181
1
1
1
1
0.646245
1.47269
1.35046
1
1.29317
1.46869
1.4739
1
1.21978
1.3378
1
1
1.2947
1.06892
1.47119
0.904851
1.4713
1
1.47135
1.47172
1.47147
1.47231
1
1.45877
0.891699
0.863259
1
0.999999
1
1
1.46819
1
1
1
1
1
1.47226
1
1
0.996443
1.47164
1.41617
1
1.38718
1.00004
1
1
1.47279
1
0.996916
1.00385
1
1.47175
1
1.47061
1
1
1.31471
1
1.46985
1.00002
1
1.46909
1
1.47136
1
1
1
1.47069
1
1.47285
1.00001
1.47109
1.47287
1.47154
1.47091
1
1.47164
1.47405
1
0.621519
1.37944
1.30329
1
1.4703
1
0.607439
0.611922
1
1
1
1
1
0.607184
1
1.47115
1.08631
1.47267
1
1
1
1
1
1.4716
1
1.46687
1.24738
0.750598
1
1.00001
1.1363
1.11976
1
1
1.14337
1
0.64831
1.47133
1.47123
1
1
1
1.47056
1
1.00003
1.13042
1.47295
0.917408
1
1
0.63194
1.3737
1
1
1
1
1
1.47145
1.47148
1
1.46997
1.4713
1.47137
1
1
1
1
0.610247
1.46916
1
1
1.36829
1.38595
1
1.37291
1.47076
1
1
1
1
1
1.47157
1
1
1
1
1.47045
1
1.47612
0.63186
1
0.59833
1
1
1
0.997155
0.624086
0.999031
1
1
1
1.06636
1
1
0.839742
1
1
1
1
1
1
1
0.999997
0.905614
0.999999
1
0.997488
1
0.642596
1
1
1
1
1.31806
1
1
1
1
0.61538
1
1
1.37969
1.46847
1
1
1
0.861497
1
1
1
1
1
1
0.922357
0.988641
1.33627
1
1
1
1.46874
0.870208
1
1
1
1.47422
1.46776
1
1.00001
1
1
1
1
1
1
1
0.61978
1
1
1.47109
0.619663
1
1.46973
1
0.624144
1
1
0.624402
1
1
1
1
1
1
1
1.38451
1.38624
1
1
1
1
1.36911
1
1.12036
0.627236
1
1
1
1
1
1
1
1.01267
1
1
1.23264
1
1
1
1.34223
1
1
1
1
0.628285
1
1
0.610077
0.626663
1
1
1.46512
1
0.968579
1
1
1
1.29691
0.619246
1
0.608205
1
0.758649
1
1
1
1.4718
1
1
1.4407
1
1
1
1.44121
1
1
1.45391
1
1
0.617289
1
1.1235
1
1
1.47131
1.47343
1.28072
1.36715
1
0.626122
1
1
1.38654
1
0.623261
1
1
1
1.43325
1
1
1
1
1.24772
1
0.999871
1.47494
0.601221
1
1
0.618745
0.618417
1
1
1
1.30084
1.32014
1
1
1
1
1
1
1
1.16473
1.47006
0.988005
1
1.34792
0.604087
1
1
1
1.22909
1
1.09342
1
1.37528
1.37894
1
0.61912
1
1.46854
1
1
1.47135
1.37348
1
1.47423
1
0.609661
1
1
1
1.47976
1.38443
1.36796
1
1.47359
1.44553
1
1.43333
1
1.37886
1
0.612175
0.950622
0.612006
1
1
1
1
1
1.47206
1
1.47156
1
1
1
1.37816
1
0.616662
1.44166
1
0.616475
0.654479
0.639912
1
1.20265
1.01222
1.3778
1.44676
1
0.999999
1
1
1.4713
1
1
1.47134
1.44949
1
1.13591
1.00007
1
0.996792
1.46983
0.825659
1
0.800594
0.652486
0.6472
0.929436
1.47376
1.37776
1.0627
1.38122
1.46185
1
1
1.4712
1.47277
1.40633
1.47422
1
1.37899
0.611274
1.46991
1.473
1.46891
1.47302
0.835281
0.867613
0.902106
1.45692
0.926647
1.47216
1
1
1.3785
1.47061
1
0.622077
1.47181
1.45969
1
1.47154
1.46996
1
1.47142
0.616842
1.47124
1.47146
1.46941
1.4776
1
1
1
1.45893
1.27317
0.645912
1.43941
0.616238
1.46333
1
1
1
1
1.46965
1.43716
1
1
1.43517
0.617873
1.47104
0.639625
1
1.38348
1
0.599746
1.42919
0.716795
1
1.44387
1.42651
1.47008
1
1
0.999809
1.42581
0.624936
1.42578
1
1.38257
0.855644
1.46944
0.614691
1
1.47174
0.666423
1.37925
0.62621
1
1.43176
1
1.47219
1
1.24394
1.38284
1.33301
0.595031
1
1.47127
1
1.38593
1
1.41787
1
1
1.4727
0.947896
1.41978
0.600058
1.26111
1
1.29947
1
1.47359
1.41731
1.47172
1
1.36664
1.47233
1.37232
1.25387
1.47059
1
1.27882
1
1.47255
1
1.036
1
1.38202
1
1.38606
1.38582
1.3804
1
1.35846
0.610748
1
0.632029
1
1
1
1.47375
1
1.413
1
1
1
1.43474
1.35887
1.27078
1.47194
1.47036
0.598515
1.48128
1.46887
1
1.25457
1.41787
1.33211
1
1.46824
1.4705
1
1.47732
1.46974
1.4714
1.43086
1
1
1
1.38951
0.624505
1
1.41309
1
1
0.612112
1
1
1.41445
1.47131
1
1.42311
1.37465
1.4694
0.942411
1.47167
1
1.47161
1.41089
1.2967
1
1
1
1.46996
1.47103
1.40686
0.91598
1
1.47999
1.4709
1.46965
1
1.47114
1.47217
1.40923
1.47949
1
1.40858
1.47037
1.40776
1.47105
1.47749
1
1.4667
1.38556
1.40853
1.47086
1.47256
0.606889
1.47229
1.46986
1
1.40034
1.40859
1.39997
1.40273
1
1.40821
1.40672
1
1.45402
1.35554
1
1
1
1.47083
1.48058
1
1
1.22518
1
1.33341
1
1
1.46588
1.3462
1.47132
1.4557
1
1
1
1.33282
1
1.40462
1
1
1.4696
1.47167
1
1.41328
0.610808
1.47133
1.46981
0.692415
1
0.592593
1.40908
1.47329
1.41515
1.41857
0.61178
1.47209
1.44566
0.60889
0.615597
1
1.38696
1.47199
1
1
1.40649
1
1.4763
1
1.3658
1
1.19109
1.47124
1.42824
1.33294
1.38593
1.46988
1.47148
1.40772
1
0.608728
1.40345
1.47154
1.47626
1.00001
1
1
1.47907
1
1.47172
1.47201
0.740623
1
1.40442
0.999939
1
1.00003
1.00002
1.47177
1.47018
0.999567
1
1
1.38724
1.42387
1.3876
1.47204
1.47419
0.622268
1.28813
1
1.38505
1.47153
1.4718
1.46337
1
1.42404
1.37896
1.42229
1
1.47173
1.47029
0.829607
1.42614
1.47157
1
1.40578
0.811945
1.47042
0.831782
1.42437
1
1.38442
1.4777
1.41426
1.42117
1.38452
1.46829
1.42243
1.46891
1
0.904074
1.4706
1.47199
0.816147
1.41867
0.957198
1.28105
1.47104
1.46883
1.46982
1
1.42164
1.3075
1.46944
0.892572
1.42057
1.47493
1
0.835628
1
1.39677
1
1.2895
1
1.34859
0.839858
1
1.42101
1.46682
1
1.47354
1.37842
1.46546
1.46036
1.466
1
1.46843
1
1
1
0.867024
1.47131
1.47096
1.47428
1.41359
1.47678
1.47319
1.36583
1.4135
0.871285
1.03135
1
1
1.47735
1.41277
1.42987
1.44994
1.00003
1.24151
1
1.47693
1.41416
1
1
0.725782
1.41031
1
1
0.614038
1.44768
1
1.469
1.40326
1.47031
1.37565
1.38525
1
0.598366
1.11195
1.47272
1.38494
1
1.38305
1.41371
1.22997
1.00989
1.10093
1
1.47227
1.4713
1
1
0.609436
1
1
1.41415
1.41327
1.47212
1.3895
1.45331
1.46918
1.38177
1.39872
1.47147
1
0.996188
1.47053
1.38888
0.996845
1.41332
1.41159
0.607127
0.603134
1.39733
1.46564
1
1
1.00131
1.40572
1.47336
1.45125
1
1.41416
1
0.832959
1.4774
1.46797
1
1.2024
1.47227
1
1.46969
1
1.40621
1.13502
1.47407
1
1.47012
1.47196
0.606733
1.4078
1
1.46972
1.46943
1
0.609876
1.47134
1.29438
0.998077
1.3886
1.40954
1
0.969914
1.47435
0.997732
1.40026
1
1
1.47069
1
1.46976
1.41168
0.996352
1.37407
1
1.40969
1
1
1
1
1.45363
1
1
1.46089
1
1.40693
1
1.27125
1.47742
1.47025
1
1
0.969611
1
1.46916
1.40641
1.46987
1.40263
1.47184
1.40341
1.40107
1
1.40412
1.38579
1
1.40333
1.40392
1
1.4731
0.898721
1.01137
1.40837
1.40557
1.47015
1
1.40515
1
1.46869
1.4017
1
1.38594
1
1
1
1
1.40642
0.599499
0.997823
1
1.44132
1.41301
1
1.4331
1
1.00519
0.610367
1.38376
0.999633
1
1.40962
0.998425
1.40452
1
0.999742
1
1.41273
1.4677
1.41144
1.47415
0.62532
1.4709
1.47066
1.47163
1.1153
1
1
1.16575
1.45696
0.594947
0.623778
1
1.4704
1.4489
1.41833
1
1
1.471
1.4074
0.999893
1
1.29999
0.609289
1
1.06884
1.46993
1.44072
0.998432
1.46233
1.48147
1
0.999096
1
1.47404
1.47061
1.16258
1
1.45321
1
1.00107
1.47282
0.597127
1.47037
1.43954
0.997376
0.99991
1.41941
1
0.999698
1
1.47158
1
1.00001
0.596277
1.46054
1.00001
1
1
1
1.47504
1.23073
1
1
0.6228
1.38659
1.2308
1
1
1
1.36219
1.45313
1.47452
1
1
1.47664
1
1.47016
1.4709
1
1
1.37663
1.47076
1.44847
1
1
1.37672
1.4741
1
1
1
1.47356
1
1
1
1.47214
1.47653
1.44116
1
1.47559
1.00002
0.688869
1.47164
1.47197
1
1.47063
1.36451
1.476
1
1
1.4743
1
1.25332
1.4705
1
0.611248
1
1.37261
1
1
1.47429
1
1
1
1.03465
1.46955
0.672829
1.00001
1.37202
1
1
1.47082
1
1.47061
1
1
1.43975
1.47217
1
1.00005
1
1
1
1
1
1
1.47569
1.45762
1
1.46856
0.63192
1.47066
1
1.47118
1.47025
1.44053
1.47802
1.47576
1
1
1.47586
1
1.27665
1.46072
1.45534
1
1.4515
1.47759
1
1.42268
1
1.4714
1.27069
1.47251
0.997556
1.35638
1.4296
1.45256
1.42861
1.03595
1.44721
1.44218
1
1.42961
1
1.47195
1
1
1
1
0.996495
1.45888
1.47206
1.38042
1
1.47419
1
1
1
0.609278
1
1.43661
1
1.36096
1.4548
1
1
1
1.45114
1.47023
1
1
1.47257
0.629241
1.05104
1
1.46569
1.47178
1.36169
1.43614
1.4717
1
1.46948
1
1
1
1
1.47012
1.44536
1
1.46401
1.03242
1.47171
1.3628
1
1
1.36318
1
1
0.60718
1.32907
1
1
1.40172
1
1.4425
1.40654
1
1.40438
0.627352
1.47257
1.43528
1.3628
1
0.613446
1
1
1
1.47189
1.39415
1
1.46894
1.47087
1
1.45259
1
1
1
1
1.47077
0.999408
1
1.37414
1
1
1.47556
1.36046
1
1.47445
1.08832
1.00002
1
1.43374
1
1.43238
1
1.01546
1.47144
1
1.43205
1
1
1.12064
1.47004
1
1
1
1
1
1
0.613311
0.604048
1.02139
1
0.995009
1
0.99017
1
1.47175
1
1.29377
1
1.4434
1
1
1
1.44479
1
1.38327
1.46976
1
1.22231
1.43886
1
1
1.47347
1.43806
1
1
1.0219
0.594627
1
1.45073
1
1
1
1
1.07709
1.47148
1
1
1
0.612454
1
1.44103
1.47119
1.48214
1
1
1
1
1.2333
1.4781
1
1
1
1.47191
1.36311
1.02978
1
1
1
1.47291
1.35967
1
0.608618
1.4716
1.37133
1.47224
1.47177
1.47605
1
1
1.47421
1.47595
1.43535
0.610596
1.04156
1.47168
1
1
1
1
1
1.47042
0.624449
1
1
1.43426
1.18272
1
1.47322
1
1
1
0.619327
1
1
1.12209
1.47174
1.37748
1
1.4771
1.46965
1
1.05169
1
1.47132
1
1.47002
0.63119
1
1
1
1
1.44889
1.00002
1
1
1
1.46319
1
1
1
1
1.46993
0.620331
1.36923
1.44458
1
1.37785
1
1
1
0.998953
1
1.47163
1
0.786211
1
1
1.00003
1.38706
0.615175
1
1.45994
1
1.40059
1.35282
0.611876
1
1
1.45018
1
1
0.610395
1
1.47384
1
1.36272
0.999222
1.37935
1
1
1
1
1.47094
1
1
1.35252
1
1
1
1
1
1
1
1
1.27529
1
1.14339
1.46961
1
1
1
0.618982
1
1
1
1
1.4237
1.44916
1.03417
1
1
1.37254
1
1
1.46975
1
1.00002
1
1
1
1.00001
1.47032
0.761931
1.365
1.37363
0.996861
1
1
1
1.24508
1
1
1.47266
1.45496
1
1
1
1
0.609633
1
1
1
1.28894
1
1.43931
1.44158
1
1.38434
1
1
1
1.21515
1
1.46995
1
1.35427
1
1
0.996248
1.3643
1
1
1
1
1
1.472
1
1
0.607289
1.46758
0.612227
1
1.47092
1
0.995732
1
1.44063
1.46841
1
1.47807
0.861146
1.35863
1.47711
1.00003
1
1
0.630664
1
1
1
1.38665
1.24206
1.39244
1
1
1
1
0.996828
1.44164
1
0.633858
1
1
1
1
1
1
1
1.47719
1.4423
1.46881
1
1
0.99688
1
0.951954
1
1
1
0.598546
0.948141
1
0.649191
0.618608
1
1.36359
1.43169
1
1.47394
1.4552
0.63136
1.31258
1
1
1
0.63441
1.4703
1
0.630166
1
1.47259
1.05262
1
1
1
1
1.35736
1.47102
1
1
1.36113
1
1
1.47288
1.37104
1
1.42964
1.37572
1.47068
0.935999
1.47
1.00846
0.630144
1.32702
1.37513
1
1
1
0.603005
1
0.613934
1.4712
0.932795
1.35591
0.927833
1
1.37741
1.19294
1
1
1.47027
1
1.16804
1.43347
1
1
1.46455
1.40434
0.618533
1.15517
0.999896
1
1.14663
1
1.47954
0.920567
1.48164
1.3901
1
1
1
1
1.31599
1
1
1.44096
0.999638
1.47041
1.3781
1.36263
0.640358
1
1
1
1
1.47065
1.00004
1.43573
1
1.47065
1.4729
1.05643
1.47743
1.12011
1.47234
1
1.28797
0.668409
1.36359
1.47167
1.36625
1.05301
1.47073
1.36019
1.43392
1.47131
1
0.902395
1.06784
1
1.47195
1.22462
1.47106
1.00003
1
1
0.67518
1.33248
1.47045
1.35832
1
1.14651
1
1.36552
1.35435
1
1.43248
1.47056
1
1
1
1.44232
1
1.18294
1.38587
1.29442
1
1.43842
1
1
1
1
1
1
1
1
1
1
0.658112
1
1.45491
0.609246
1.24273
0.998548
1.33674
1
1.22014
1.00001
1.27086
1.40007
1
1.00207
1.46798
0.901639
1
1.37977
1.47171
0.921541
1
1.47186
1.47044
1.44039
1
1.46145
1.46931
1.44376
1
1.18557
1
1.00006
1.47055
1
1.47092
1.06722
1.44801
1
1
1.47573
1.38078
0.657274
1
1.47252
1.31993
1.36102
1
1
1.47033
1.47162
0.998231
1
1.41997
0.997026
1.47114
1.00006
1
1
1
1
1.18415
1
1.35832
1.47032
1.31786
1.43586
1
1.00319
1
1
1.47181
1
1.44515
1
1
1
1
0.999999
1
1.05474
1.21613
1
1
0.604917
1
1.46247
0.653231
1.47039
1
1.23049
0.999752
1.47153
1.27437
0.668329
1.23075
1.00003
1.44294
1.47049
1
1.24978
1.46986
1.4366
0.998382
1.47974
1.35
0.607997
1
1
0.997808
1
1.47168
1
0.693137
1.45076
1
1
1.41114
1
1.47102
1
1.47058
1
0.671784
1
1
1.47052
1.39244
1.37121
1
1.34461
1.44523
1.47471
1
1
1.45939
0.999999
0.749218
1
1
1
1.47108
1
1.43194
1.2717
1.33932
1
1.36424
0.99938
1
1
1
1
1
1
0.699761
1
1
1.365
1
1.47131
1.34242
1
0.641219
0.635856
1
1.39949
1.07668
0.627184
0.641155
1
1.43449
1
1.4698
0.614742
1.0012
1
1
0.999516
1
1
1
0.999915
1.15993
1.46009
1
1
1.44131
1.24492
1
1.43835
1.35075
1.47238
1.16146
1.33401
1
1.35631
1
1.46986
1
1.4767
1.44549
0.996988
1.47
1.34422
1
1
1
1
1
0.892827
1.47031
1.00004
1.00003
0.595498
0.999987
0.601007
0.609375
1
1.46988
1.47063
1.47062
1
1.47192
1
0.641385
1
1
1.44768
0.807157
1.44444
1
1.47191
1
0.953054
1.47274
1
1
1
1.47101
1
1.47208
0.619953
1
1
1.24213
1
1
1.22292
1
1
1.47273
1
1
1
1
1
1.34944
1.43785
1
1.47085
1.43802
0.625571
1.18932
1.35607
1
1
1.37646
0.998958
1
1
1.43965
1.36946
1.30186
1
1.47157
0.643964
1.21053
0.999474
1
1.43904
1.00003
1.34172
1.38041
1.32617
1
1
1.44518
0.700877
0.605915
1
1.47135
1
1.47235
1
1.25565
1
1
1.3625
1.26823
0.634709
1
0.998474
1
1
1.02519
1.16099
1.44304
1
1.47065
1
1
1
1
1
1
1.06613
0.633414
1
1
1.00324
1
1
1
1
1
1.47195
1
1
1.47208
1.44168
1.34183
1
1
1
0.823801
1.47018
1.29665
1
1
1
1
1.47113
1
1
1
1.47668
1
1
1.312
1.48406
1.01143
0.755617
1.34875
1.30144
1.47382
1
1.21026
1
1
1
0.609008
1.00299
0.58986
1
0.615287
0.62081
1
0.622373
1
1
1
1.17217
1
1.47231
1.47105
1.00084
1.21976
1.26245
0.609945
0.742903
0.857758
1
1.35719
1.47303
1.36123
1.42542
1.35875
0.858546
1
1.35965
1
1.46285
1
1
0.999499
1.00953
1
1
1
1.47081
1
0.605397
1
1.42346
0.601795
1
1
1.4224
1
1.3528
0.999742
1
1
1.37172
1.40661
1
1.48616
1
1
1.01483
1
1.20767
1
1
0.624921
1
1
1.34727
0.999999
1.38164
1
1.00003
0.602611
1
1
0.612896
1.00089
1
1.47283
0.610075
1.47662
0.616103
1.47177
1
1
1
1
1
1
1
1
1
1
1
1.37633
1
1.37254
1.4698
0.63035
1
1
1
1
1
1
1.36164
1
1
0.640401
1
1
1.47213
1
1
1.18036
1.35521
0.622463
0.606127
0.673626
0.738949
1
0.999387
0.595916
1.00027
1.44525
0.996861
1
1
1.46893
1
1
1
0.733036
1.00001
1.16709
1
1
1.18539
1.47175
1
0.61391
1
1
1
0.996567
1.00001
1.43808
1.42287
1
0.616773
1
1.21558
0.614458
1
0.859006
1
0.996477
0.621432
1
1
1
0.996133
0.612721
1
0.614354
0.998381
1.21583
1.4239
0.615876
0.619232
1
0.990432
1
0.998677
1
1.38037
1.37795
1
0.987423
1.46998
1.37775
1
1
1.42081
1
1
1.00004
1
1.46906
1
1
1.01814
1
0.998591
0.680628
1
1
1
1
1
1.44252
1.00555
1.00005
1
1
1
1
1
1.00003
1
0.629759
1.06763
0.998655
1.46698
1.46076
1
1.01491
1.47038
1.38932
1
1
0.601735
1.46992
1
1.47095
1
1.47406
1.3155
0.61944
1
0.614883
1.16664
0.999675
1
0.632992
0.613099
1
1
1.3462
1
0.999998
0.627265
1
1
1
1.14728
1
0.63086
1.47006
1
1
1
1
1.36167
1
1
1.33602
1.37565
1
1
1
1.3905
0.643418
1
1.47017
1.41004
1
1.33923
0.999999
1.00003
1
1
1.4419
0.986482
1
0.601209
1.24474
1
1
0.998193
1
1
1.36049
1
1
1.00003
1
1.47106
1
1
1
1
1
1
1.00002
1.1733
1
1.37802
1
1
1.40754
1
1
1
1.36017
1.34914
1.047
1
0.997645
1
1
1
1
1.47089
1
1
1.47168
0.637837
1
1
1
1
1
1
1.34156
1
1
1.41733
1.47293
1
1
1
1.47064
1.44583
1
0.999682
1.45091
1
1
1
1.00002
0.606387
1.02995
0.996361
0.995847
1
1
0.627346
1.47334
1
0.603759
1
1.44354
1.39241
0.620098
0.999395
1.45113
1.4711
1.47207
1
1
0.90233
1.21438
1.39047
0.609975
1
1
1
1.35925
1.46519
0.617554
0.997298
1
1.47175
0.605889
1
1.29248
0.643295
0.945047
1.00708
1
1.32606
1
1
1
1
1
1
1.00011
1.35502
1
1
1.44664
1
1
1
1.4215
1
0.627231
1
1
1
1.15978
1
1
1
1
1
0.778907
1
0.608495
1
1.44657
1.00007
0.848383
0.854515
1.00001
1.0034
1.21468
1
1
0.609035
1.44195
1.44983
1.41964
1
0.610699
0.631099
1
1.44071
1
1
1
1
1
1.00003
1
0.647033
1.27283
1
1
0.623413
0.957398
1.00001
1
1
1
0.621768
1
0.655259
1
1
1.46896
1
1
0.628566
1
1.47151
1
0.610919
1
0.643224
1
1.00838
1.38074
1.48048
1
1
1.47101
1
1
1.06904
0.996737
1
0.998284
1
1.46456
1
0.606715
1.00002
1.47361
0.999032
1
1
0.756246
1
0.999074
0.618982
1.44588
1.13693
1
1.00001
0.877983
1
1
1
0.754293
1
1
1
1.38287
1
0.620716
0.999999
1
1
1
0.641494
1.47134
1.45209
0.620929
1
1.43018
1
1
1.36859
1.47099
1.35599
0.633936
0.997734
1.00001
1
1.4132
1
1
1
1
1.47337
1
1
1
1.46545
1
1
1.46877
0.615809
1
1
1
0.649137
1
0.999999
0.999999
0.998678
1
1
1
1
1.06697
1
1.47296
1.47135
1.48328
1.47144
1.47049
1.42033
1
1.4322
1
1.47068
1.35668
1
0.998797
0.617478
1.36217
0.999891
1
1
1
1
0.966075
1
1.07369
1
1
1
0.826064
1.47014
1.47291
1.42382
1.4155
1.00001
1
0.999005
1.46984
0.999821
1.0347
0.997401
0.613184
1
1.00002
1
1
1
1
1
1.47168
0.62282
1.47151
1.41945
0.995316
0.607747
1
1
1
1.47253
0.602526
1.37117
0.645834
1.47059
1.42461
0.642652
1.36616
1.02308
1
1.44321
0.8044
1
0.999998
0.609637
1
0.611268
1
1.41847
1.34952
0.758308
1
1.47194
0.6147
1
0.636915
1
1.47161
1
1
1.45727
1
0.815052
1
0.999646
0.6102
1.4734
0.999499
1
0.603874
1
1
1
1
1.2463
1
1.40983
1
1
1.47773
1
1
1.47019
1
0.602494
1
0.618978
1.00001
1
1
1
1
1.3927
1.26902
1.4387
1
1.36423
1.38613
0.620696
0.611439
1
1
1.41672
1
0.601784
1
0.96062
1
1
1.47089
1
1.35668
0.61063
1.47821
1
0.612275
1
1
1.41834
1.35331
1
1.00004
1
1.28717
1
1
0.608974
0.999401
0.606132
1
1
1
1.35896
1.47566
1.47076
1
1
0.60209
1
1.29726
1
1
1
1.14663
1.37114
1.47165
0.603819
1.46874
1.44378
0.634622
1.47202
1.00004
0.637253
0.990021
1
1
1.47116
0.605531
1.27152
0.604568
1.44141
0.997358
0.615978
1.44206
1
1
1
1
1.36821
1.47097
0.642377
1
1.00002
0.64314
1.00004
1
0.634967
0.605224
1.29738
1.36544
0.998439
1.47141
1
1.37834
0.802598
0.629287
1.41982
1.48734
1
1.45786
1
1
1.47108
1
1.35757
1.4711
1
1
1
1
1.47133
1.3548
1.38001
1
1
1.38386
1.47162
1.47164
1
1.47181
1
1
1
1
1
0.619843
0.821902
0.613456
1
1
1.47029
1
1
1.47136
0.631881
1
1.47065
1.35887
1.42229
0.607109
1
0.6029
1
1.00001
1.47148
1.02273
1.47228
1.37937
1
0.609892
1
1.34738
1.30238
0.617249
1
1
1
0.774279
1
1
1.47921
1
0.617261
1.42367
1
1
1
1
1
1.34067
1.10169
1
1.47118
1
1.35778
1
0.9968
1
1.47177
1.47053
1.37979
1.46103
0.999559
1.47211
1
1.47204
1.47365
1.34733
1
1
0.596566
1.47227
1
1
1.47784
1.45342
1.35575
1
1.47272
1
1
1.00002
1.46922
1.35967
1.12468
1.10211
1.47002
1.37595
0.658086
1
1
1
1
1.00001
1.16327
1
1
1.39064
0.605086
0.99997
1
1.4711
1
0.999788
0.998957
1.43315
1.47078
0.877126
1
0.613539
1
0.96963
1.46492
1.43979
1.43082
1.00001
1
1
0.612326
1
1
1.46137
1.04865
1
1
1
1
1
1
1
0.999936
1.47118
1.00002
1
1
1
1
1.31272
1
1.22044
1
1
1.43931
1.47614
0.629901
0.998802
1
1
1
0.64126
1.47301
1.36735
1
1
1
1
1
1
1
1
1.4717
1.47165
0.605515
1.05108
0.649931
1
0.636696
1
1.47075
1.11203
1
1
0.675898
1
1.42449
0.7852
0.996601
0.619926
1
1
1.46985
1.00003
0.99694
0.640111
1.47327
1.48003
1
1
1
1
1.35812
1
1
1.3574
0.999996
1.47308
1.00002
1
1
0.609458
1
1
1.47089
0.628284
0.754967
0.615065
1.47117
0.999335
1
1.29983
0.619414
0.627683
0.987172
1
1
1.47049
1
1.17542
1
1
1.47158
0.641783
1
1
1.00014
1.47333
1.0001
1.46126
1
1
1
1
0.69238
1
0.795789
1.00001
1
1.47009
0.611714
1
0.750474
0.794839
1
1
1.47118
1
1
1
1.47235
1.37558
1.00001
1.45399
1.47018
0.762144
1.43632
1.45722
1
1
1.47128
0.999999
1
1
1
1
1.47979
1.44734
1
1
1
1.47156
1.00021
1
0.632509
0.702778
1
1.00003
1.17268
1
1
0.883867
0.610152
1
1
1
1.4765
1.3812
1.40935
1
1
1
1
0.604233
1
1.471
1
1.45363
0.612249
1.47928
1
1
1
0.600968
1
1.4726
1.00001
1
0.617944
1.13957
1
0.999657
1.46638
0.624442
0.615194
1
1.47234
0.617178
0.633529
1
0.614105
1
1
1
1
0.601729
1
1
1
1
1.47055
1
1.32487
0.604643
1
1
1
0.622287
1.46799
1
1
0.996796
1.43137
1
1.47025
1.4723
1
1
0.699935
0.62234
1
1
0.614995
1.12099
1.21607
1
1
1.47553
0.997384
1
0.997642
1.47108
1
1
1
1
1
1
1.47277
1
1.16121
1.14324
0.669244
1.38993
1
1.3655
1.47174
1
1
1
0.871117
0.605336
1
1.22331
1
1.25103
1
1
1
0.999999
1
1.00589
1.16103
1.35573
1.47095
1
1.41866
1
0.598813
1
0.997725
0.99977
1
0.607086
1
0.607187
1.00001
1.43544
1.47057
0.610237
1.47608
0.613858
0.996193
1.30529
0.615937
1.34398
1
1
0.998432
1
1
1
1.00005
1
0.603716
1
1
1
1
1
1.47068
0.774383
1
1
1
1.0361
1
1
1
1.26916
0.733036
1
1
1
1.01967
1.47255
1
0.604226
1
1.36115
0.906424
0.612026
1
0.632678
1
1
1.38638
0.998257
1.43071
1
1.00904
1
1
1.47254
1
1
1
1
1.07047
1
1.39984
1.35196
1.47047
0.60635
1.41669
0.997075
1.36112
1
1
0.604891
1
1
0.606546
1.4762
1
1
1.00001
1
1
1
0.639568
0.603794
1
1.46868
1
1.19648
1.47163
0.62522
1.39582
1
1
0.641498
1
1
1.41308
1.37059
1.13882
1
1
1.00186
1.4707
0.604984
0.606666
1.47392
1.45239
1.3217
1.18535
1
0.868581
1
1
1
1.44009
1.46955
1.47008
1
1
1.47438
0.614575
1.41607
0.638511
1
0.614414
1
0.618686
1.47119
0.641502
1
0.971568
0.657589
1
1
1
0.819972
1.38501
1.47039
1.47227
1.47218
1
1
1.47061
1
1
1.47122
1
0.601012
1
0.606355
1
1.47028
1
1
1.0031
1.33202
1
0.99919
0.613905
1.37611
1.00001
0.610076
1.09032
1
1
1.35557
1.47177
1.47179
1
1.38737
1.09993
1
1.02459
1.44544
1
1
1
1
1.47201
1
0.627613
1.46975
0.631705
0.610092
0.817704
1.38605
1.16025
1.35677
1
1.46891
0.997225
1.00003
1.47123
1.47232
1
1.47323
1
1.47246
1
1.47154
1
1.00004
0.999965
1.47098
0.628776
0.61528
0.997949
0.999999
1
1
0.603349
1
1.27841
1
0.634726
1
1.16367
1.47078
1.47326
1
1
1.00003
0.999407
1
1.47279
1.40078
1
1.16183
1.47072
0.839588
1.39987
1.00032
0.609189
1.09983
0.601354
1
1
1.07814
1.47273
1
1
1.01555
1
1
0.615193
1
0.757278
1
1.44053
1
1
0.59945
1.07339
1.03852
0.998526
1.47055
1.43458
0.750203
0.998057
0.6104
0.601469
0.61772
1
1
1
0.999024
0.68638
0.619791
1
1.44287
0.999739
1.43508
1.47385
1.47095
1.36595
1
0.614907
1.47182
0.635037
1
1.47025
1.47336
0.996604
0.79956
1.47038
1.32623
1
0.622293
1
1
1.48203
1
1.02679
1.47254
1
0.613667
0.60097
1
1
0.615981
0.612969
1.47097
1.00004
1
0.598551
0.601371
1.47833
1.45225
1.40301
1.47085
1.10872
0.953899
1.16914
1.46609
1.35467
1
1.23043
1
0.606073
0.838141
1
0.593141
1.40548
1.02275
1.40657
1
1.4707
1.47133
1
1.47197
1.42518
0.618066
1.45311
1
1.4748
1
0.75148
0.611701
1.47122
1
1
1
0.616445
1.47143
1.35781
1
0.61996
1
1
0.600588
1.00002
0.639977
1.47215
1
0.788568
0.606754
1
1
1.26617
1
1
1
1.08113
0.616915
1
1.00001
1
1.47187
0.631308
1
1.47186
0.613263
0.60146
1
1
1.47548
1
1.37914
1.00001
1.47114
0.650971
1
1
0.628514
0.791927
0.60617
1
1
1
1
1.46978
0.606028
1
0.623989
1
1.47307
1
1
0.895912
1
1
0.800367
0.999697
1.00005
1
0.63347
0.612866
1
1
1
1
0.772046
1.3535
1.47257
1
0.625901
0.612934
0.875768
0.614156
1
0.800568
1
0.60685
0.956395
1
1
0.629375
1
1.47023
1.46442
0.616642
1
1
1
1.4719
1
1.01732
0.810279
1.14167
0.615096
1.18733
0.620632
1
1
0.682358
0.89075
1
1.01465
1
1
0.600606
1
0.916361
1.01984
0.625248
1
1.37697
0.713318
0.857799
1
1
1
0.622242
1
0.617172
0.61396
1
0.831701
0.618624
1.04354
0.70537
0.600038
1.47115
1
1.4391
1.2567
0.729169
1.43687
0.596007
0.999021
1.47205
0.999999
1
1.47007
1
0.687569
1
1.04208
1
1
1.47142
1
0.750106
0.782666
1.47249
0.9122
1
0.743547
1.47152
1.47305
0.887563
1
1.47091
1.12346
0.827727
1
0.991122
1
0.621642
1.20333
0.730699
0.724572
1
1
0.623291
1.47032
0.935234
0.629981
0.615548
0.834128
1
0.990719
1.47149
1.47199
1
1
0.999999
0.619444
1.1936
1
1.37046
1.41936
0.609482
1.00003
1.06034
0.854211
1.29007
1.40282
1
1.016
1
1.00006
0.598468
0.819767
1
1
0.789408
0.603743
1.00958
1
0.999992
0.59576
1.18412
1
1.46682
1
1.01437
1.2541
1
1.45991
1
1
1.46995
1
0.617369
1.47096
0.659584
1.12546
1
0.620034
0.999918
1
1.00001
1
0.770207
1.02701
0.632664
1.35052
1.47296
0.630582
1
1
1
1
1
0.936614
0.604442
1.02035
0.632488
0.621798
1.05532
1
0.999791
1.11597
1
1
0.624245
0.961128
1
1
1.10146
1
1.47207
1
1.47135
1.06213
0.9881
0.620995
1
1
0.611161
1
1
1
1
1.3506
1.04442
0.999918
1
0.618752
0.999358
1
1
1.27297
1
0.613822
1.46029
1
1.00001
1
1.47136
0.618029
0.869942
0.617412
1.32084
1.47678
1
1
1.4676
1
0.612706
1
1
1
1
1
0.754926
1
1.47062
1
1
1.13276
1.47095
0.633802
0.841426
1
1.45288
1
1
1
1
1
1.47147
1.47168
0.610766
1.40353
0.616785
1
1
1.43824
1
1.47378
0.974869
1.02887
1.04346
1.47435
1.04898
1.29462
0.619063
1
0.624502
0.96348
1
1.47165
1
1
0.625038
1.47608
1
1.47274
1
1
1
1
1
1.00001
0.612399
1.47176
0.826181
1.47103
1
0.621912
0.636248
0.721544
1.46986
1.43047
0.93927
1
0.763935
1
1.1586
1
1.46978
0.613523
0.633608
0.835092
1
1.47231
1
1.05377
0.652731
1
1.46923
1.40912
0.998881
1
1.47148
0.611525
1.47715
1.4165
1.47531
0.629761
1.06083
1
1
0.633493
1
0.78514
0.811667
1
1.00001
1.47444
1
1.46895
1.05935
1
1.00612
1.47699
1
0.615841
1
0.751798
1
1
1.33716
1
0.778902
1
0.636015
1.03732
0.92434
0.599986
1.45709
1.38102
1.47155
0.630548
0.666303
0.99577
0.999999
1
0.669347
1.38504
0.618854
0.999968
1
1.41612
1.47334
0.869067
1
0.612401
0.669957
1.27665
0.967863
0.618297
0.999999
0.629717
1.08755
0.631843
1
1.00006
0.787424
1.47087
1.47105
0.807608
0.999607
1
1
0.69741
1
0.640194
1
0.608185
0.619211
1
1
1.00003
0.630128
1.41792
1
1
1.00006
1.00004
0.614071
1.47142
1.46345
1
0.634025
1.47143
1
1.06132
1
1
1.47162
0.636827
1
1
0.601407
0.713413
0.633829
0.606006
1
0.660049
0.997136
1.07644
0.621038
1
1
1.12716
1
1.38351
1
1
1.31643
0.645307
1
0.618229
1.09937
1.47239
1
1
0.632249
0.612969
0.616706
0.690575
0.612746
1.31671
0.999428
1
1
1
1
1.47271
0.613284
1
0.902191
1
0.998377
0.999937
0.725151
1.10245
1
1.43808
1.47155
1
1
1.44915
1.00004
0.999999
1.46923
0.627994
1.46635
0.999999
0.614008
1.47189
1.00005
1
0.800877
1
0.626675
1
1.47095
1
1
1.43857
1
1
1.47716
1
1
1
1.46944
1
0.705115
0.701178
1
0.637861
1.43182
1
1
0.959623
1
1.47392
1.2364
1.33395
1
1
0.653338
1
0.614808
1.35729
1.46956
1.46985
1
1.47216
0.617404
1
0.618517
1.34603
1.42861
1.47104
1.47111
0.737967
0.627058
1
1.2934
1.47329
1.46986
1.43487
0.732938
1.14089
1
1.32835
0.714957
1
1
1
1.00002
0.858985
1
1.4768
1
1
1
1
1
1
1.00006
1.44474
1
1.45215
1.32139
0.608665
1.4718
1.01201
1.21107
1
1.43207
1
0.629939
1
1
1
1
1.3666
1
0.624175
1.4678
0.627003
1.47191
1.34441
1.21675
1
1.08925
1.19187
0.995944
0.616091
0.757003
1
0.999999
0.88888
1
0.59409
1.47312
0.598247
0.906165
0.834646
1
1
1
1.01417
1
1
0.614332
0.996955
1.47234
1
1.41428
1
0.64694
1
1
1.39584
1.42842
0.634456
1
1.47054
1
0.795932
0.611762
1.47003
1.38065
1
1.08074
1.47133
0.998643
1
1.16582
1.37283
1.45997
0.99605
1
0.999998
1.36309
1
1
1
1.41617
1
1
1
1.47198
1
1
0.640428
1
1
1
1.47132
1
1
0.825769
1.12114
1.39726
0.742733
1
1.47177
1
1.16333
1
1.47045
0.997388
1.45301
1
0.613055
1
1.31041
1
1
1.39126
1.00001
1.4722
1
1.47714
0.670482
0.642957
1.47017
1
1.40056
1
1.47135
1
1
1.00005
1.47024
1.41639
1.09507
1.47232
0.998869
0.598754
1.47195
0.839838
1
1.44796
1
1.47215
1
1.39849
1.47122
0.999675
0.635406
1
1.47136
1
1.01164
1
1
0.997948
0.73188
1.37879
1
1.42118
1
0.842347
0.638038
1.4309
1.47249
0.669804
1
1.47056
1.46853
1.47006
0.674438
1.47179
0.631354
1.47244
1.47584
1
1
1.47086
1
1
1
1
0.623616
1
1
1.47144
1.47138
1
1.37835
1
1.46832
1.47116
1
1.36284
1
0.641761
1.43104
1.34905
1.11584
0.630267
1.43558
1
1
0.627885
1
1
1.47157
1
1
0.769525
1
1.47207
1.00009
1.35809
0.632641
1.47268
1
1.47163
1.39942
0.867446
1
1.37741
0.741987
1.47046
1.30602
1.47108
1.47492
0.997293
1.47332
1.47225
1.45175
1.47165
1.00046
1
0.602701
1
1.4707
0.80983
1.39924
1
1.40342
1
1
1
1
1
1.40432
0.632934
0.620277
1.47281
1.47106
1
1
1
1
1
1.39492
1.4349
1.45067
0.997506
1
1
1
1.00003
1.39822
1.47201
1
1.46971
1.47244
0.617193
1.29752
1
1.38309
1.4745
1.35437
0.997991
1.40163
1.47093
1
1.44129
1
1
1
1
1
1
1.47182
1.47252
1.39103
1.46979
0.63513
0.685682
1.44086
1.44959
1
0.609699
0.917792
1
1.19668
0.617093
1
0.999454
0.998267
0.629579
1
1.4725
1
1
1
1.47036
0.94024
1
1.47184
1.47082
1
1.46964
1
1
1.43335
1
0.621585
1
1.4757
1
1
0.622064
1
1.46981
1
0.644559
0.600545
1
1.44412
1
0.634666
0.880523
1
1.46886
1
1
1
1.47554
1
0.604336
1.06545
1.46994
1.35101
1.47157
1.01593
1.39994
1.47139
1
1.00002
1
1
1
1.46722
1
0.999327
1.4407
1
0.639927
1
1.46846
1.1955
1.05052
1.18929
1.03238
1.47909
0.689302
1.4675
1
0.632966
0.999995
1.46843
0.937639
1.46805
1.47067
1.44873
1
1.47078
1.46809
1.46578
1
1.00004
1
1
1.46975
1.3016
1
1
0.62989
0.999533
1
1.47193
1
1.46718
1.47113
1.47368
0.912148
1.47094
1.47207
0.979874
1.1661
1.46967
1.47093
1
1.36048
0.803153
1.44253
0.966021
1.47185
1
1.4313
1.47312
1
0.622748
0.930199
0.685803
1
1.05334
0.999725
1.47481
1
1
0.996498
1
1.20647
1.44429
1
1
1.41538
1
1
1.31039
1.34821
1.39909
1.47081
1.47155
1
1.47287
0.722019
1.472
1
0.962244
0.606185
1
1
0.727866
1
1.12028
1
1.43784
1
1.40271
1.26613
0.619703
1
1
1
1
1
1.47038
1.01146
1
1.46754
1
1.47099
1.43317
0.999999
1
0.939508
1.00001
0.613566
0.626134
0.711204
1.09382
1
0.998574
0.643461
1.00003
1
1.47185
0.905569
1.38565