/*--------------------------------*- C++ -*----------------------------------*\
  =========                 |
  \\      /  F ield         | OpenFOAM: The Open Source CFD Toolbox
   \\    /   O peration     | Website:  https://openfoam.org
    \\  /    A nd           | Version:  12
     \\/     M anipulation  |
\*---------------------------------------------------------------------------*/
FoamFile
{
    format      ascii;
    class       volVectorField;
    location    "29.6";
    object      U;
}
// * * * * * * * * * * * * * * * * * * * * * * * * * * * * * * * * * * * * * //

dimensions      [0 1 -1 0 0 0 0];

internalField   nonuniform List<vector> 
9801
(
(1.22952 -0.130581 0)
(1.23912 -0.128116 0)
(1.23602 -0.119702 0)
(1.23088 -0.108945 0)
(1.21662 -0.0925871 0)
(1.18731 -0.0767385 0)
(1.15079 -0.0706233 0)
(1.13234 -0.0689782 0)
(1.12866 -0.0701439 0)
(1.12877 -0.0770214 0)
(1.13882 -0.0964361 0)
(1.1622 -0.117844 0)
(1.1971 -0.126129 0)
(1.22256 -0.120339 0)
(1.22556 -0.109063 0)
(1.2218 -0.0959505 0)
(1.2145 -0.0763664 0)
(1.19963 -0.0540488 0)
(1.16869 -0.0377581 0)
(1.12284 -0.0300703 0)
(1.08717 -0.0279371 0)
(1.07191 -0.0289049 0)
(1.06845 -0.0324946 0)
(1.06699 -0.0397781 0)
(1.07125 -0.0542352 0)
(1.08977 -0.0741338 0)
(1.13077 -0.0854531 0)
(1.1708 -0.0822795 0)
(1.18151 -0.0723298 0)
(1.17834 -0.0603241 0)
(1.17029 -0.0399091 0)
(1.15213 -0.0164529 0)
(1.11932 -0.00228564 0)
(1.08221 0.00267209 0)
(1.05369 0.00207808 0)
(1.03831 -0.00279467 0)
(1.03196 -0.0112228 0)
(1.02741 -0.0231661 0)
(1.02408 -0.0344976 0)
(1.02431 -0.0426354 0)
(1.04308 -0.0474241 0)
(1.09308 -0.0450245 0)
(1.13152 -0.0371192 0)
(1.1371 -0.0267979 0)
(1.13394 -0.0147167 0)
(1.12351 0.00210119 0)
(1.09491 0.0163763 0)
(1.05673 0.0225781 0)
(1.02712 0.0219414 0)
(1.01065 0.0163921 0)
(1.00315 0.00786118 0)
(0.997016 -0.00180074 0)
(0.992009 -0.00681999 0)
(0.989148 -0.00818374 0)
(0.988839 -0.00762605 0)
(1.0038 -0.0050658 0)
(1.04607 0.00134495 0)
(1.07103 0.00982202 0)
(1.07191 0.0193526 0)
(1.06804 0.0300151 0)
(1.05552 0.0413582 0)
(1.02314 0.046807 0)
(0.981661 0.0459479 0)
(0.953779 0.0401319 0)
(0.941213 0.0310946 0)
(0.931799 0.0234124 0)
(0.924079 0.0201677 0)
(0.921816 0.0187915 0)
(0.932874 0.0199357 0)
(0.960291 0.0239037 0)
(0.975316 0.0297993 0)
(0.973652 0.0361051 0)
(0.967612 0.0437307 0)
(0.954032 0.0543575 0)
(0.93358 0.0607815 0)
(0.910067 0.0622508 0)
(0.888063 0.0587728 0)
(0.873174 0.0522156 0)
(0.861221 0.0464083 0)
(0.850452 0.04635 0)
(0.842051 0.0475073 0)
(0.847424 0.0515612 0)
(0.869125 0.0579417 0)
(0.879201 0.0651008 0)
(0.875526 0.0707302 0)
(0.8669 0.0755108 0)
(0.855407 0.0789435 0)
(0.837809 0.081234 0)
(0.798143 0.0798084 0)
(0.747143 0.0745819 0)
(0.708503 0.0650223 0)
(0.683323 0.0564885 0)
(0.666929 0.0468234 0)
(0.67623 0.0337817 0)
(0.684639 0.0192084 0)
(0.650067 -0.00177721 0)
(0.609125 -0.0130168 0)
(-0.204405 -0.1741 0)
(-1.6429 -0.144759 0)
(1.21132 -0.149985 0)
(1.21995 -0.129653 0)
(1.21962 -0.0998136 0)
(1.21192 -0.0731839 0)
(1.20048 -0.0531523 0)
(1.18594 -0.0421401 0)
(1.1711 -0.0483559 0)
(1.15783 -0.0702524 0)
(1.15165 -0.100807 0)
(1.15532 -0.138229 0)
(1.16146 -0.165657 0)
(1.16637 -0.177619 0)
(1.17142 -0.172426 0)
(1.18307 -0.1388 0)
(1.19392 -0.0873007 0)
(1.19873 -0.0396484 0)
(1.19805 -0.00696006 0)
(1.19146 0.0120603 0)
(1.17677 0.0219066 0)
(1.15222 0.0128428 0)
(1.12082 -0.0165813 0)
(1.09836 -0.046559 0)
(1.08728 -0.0687528 0)
(1.08308 -0.0893869 0)
(1.0883 -0.110336 0)
(1.09912 -0.12394 0)
(1.11284 -0.12389 0)
(1.13347 -0.0975954 0)
(1.15001 -0.0505915 0)
(1.15631 -0.00348108 0)
(1.15636 0.0282834 0)
(1.15078 0.0433604 0)
(1.13819 0.0467758 0)
(1.11516 0.0282585 0)
(1.08485 -0.00621164 0)
(1.05944 -0.0380741 0)
(1.04284 -0.0583162 0)
(1.03314 -0.0691779 0)
(1.02811 -0.0770443 0)
(1.02785 -0.0834733 0)
(1.0339 -0.0835977 0)
(1.06266 -0.0649325 0)
(1.10013 -0.0249118 0)
(1.11763 0.0103918 0)
(1.12158 0.0310837 0)
(1.11912 0.0427956 0)
(1.10617 0.048455 0)
(1.0822 0.0368882 0)
(1.05228 0.0104207 0)
(1.02648 -0.0154683 0)
(1.00719 -0.0294029 0)
(0.994483 -0.0319516 0)
(0.987571 -0.0323824 0)
(0.983191 -0.0310506 0)
(0.979379 -0.0265758 0)
(0.985739 -0.0155414 0)
(1.01752 0.00932507 0)
(1.0494 0.0381691 0)
(1.06211 0.0556967 0)
(1.06195 0.0634112 0)
(1.05567 0.0646522 0)
(1.04197 0.0583012 0)
(1.00576 0.0371847 0)
(0.969681 0.0130244 0)
(0.945962 3.65473e-05 0)
(0.93103 -0.00221575 0)
(0.922225 -0.00209853 0)
(0.91655 0.000188339 0)
(0.917749 0.00801876 0)
(0.937968 0.0253267 0)
(0.955117 0.0456865 0)
(0.959547 0.0593037 0)
(0.957744 0.0682434 0)
(0.951661 0.0705706 0)
(0.942703 0.0660157 0)
(0.925932 0.0526526 0)
(0.902593 0.0329394 0)
(0.87897 0.0196587 0)
(0.860194 0.0206217 0)
(0.847478 0.0271736 0)
(0.839027 0.0318511 0)
(0.837149 0.038211 0)
(0.850521 0.0532091 0)
(0.861262 0.0738963 0)
(0.86236 0.0920164 0)
(0.857708 0.100689 0)
(0.849296 0.100351 0)
(0.836162 0.0971639 0)
(0.804911 0.0866388 0)
(0.752715 0.0686296 0)
(0.707646 0.0509323 0)
(0.672741 0.0350872 0)
(0.646658 0.0303786 0)
(0.634745 0.0438334 0)
(0.636323 0.0544612 0)
(0.614959 0.0417865 0)
(0.589415 0.0351517 0)
(-0.22045 -0.168714 0)
(-1.65477 -0.149299 0)
(1.19142 -0.150257 0)
(1.19064 -0.106903 0)
(1.19225 -0.0701055 0)
(1.19094 -0.0434506 0)
(1.18898 -0.0309749 0)
(1.18521 -0.0318803 0)
(1.18618 -0.0467094 0)
(1.19097 -0.0831821 0)
(1.19172 -0.124059 0)
(1.18911 -0.157219 0)
(1.18547 -0.174513 0)
(1.17801 -0.177002 0)
(1.16002 -0.159982 0)
(1.144 -0.124803 0)
(1.14097 -0.0843198 0)
(1.15061 -0.0365657 0)
(1.16361 0.00523117 0)
(1.16816 0.0287627 0)
(1.16403 0.033736 0)
(1.15837 0.0292426 0)
(1.14594 0.0111347 0)
(1.1284 -0.0243015 0)
(1.11748 -0.061696 0)
(1.11354 -0.095347 0)
(1.11441 -0.120954 0)
(1.11404 -0.127234 0)
(1.11031 -0.119845 0)
(1.10172 -0.0950666 0)
(1.09824 -0.0564964 0)
(1.10883 -0.00711056 0)
(1.12566 0.034258 0)
(1.13316 0.0510827 0)
(1.13173 0.0497421 0)
(1.1275 0.0412974 0)
(1.11455 0.0205451 0)
(1.08712 -0.0159553 0)
(1.06324 -0.0480455 0)
(1.04965 -0.0674475 0)
(1.04281 -0.0788327 0)
(1.03934 -0.0831759 0)
(1.03692 -0.081764 0)
(1.0397 -0.0727985 0)
(1.05812 -0.0455445 0)
(1.0855 -0.00499596 0)
(1.10187 0.0242709 0)
(1.10439 0.0359122 0)
(1.09928 0.0374509 0)
(1.09087 0.033805 0)
(1.07351 0.020854 0)
(1.045 0.00101319 0)
(1.016 -0.0167759 0)
(0.995848 -0.0263309 0)
(0.984488 -0.0287309 0)
(0.978405 -0.0272349 0)
(0.975429 -0.0252259 0)
(0.974108 -0.0209776 0)
(0.985068 -0.00618914 0)
(1.01949 0.0188866 0)
(1.04649 0.0395287 0)
(1.0551 0.046527 0)
(1.05151 0.0475801 0)
(1.04304 0.0474033 0)
(1.02222 0.0395075 0)
(0.985833 0.0222531 0)
(0.951811 0.00821716 0)
(0.928856 0.00439429 0)
(0.915118 0.0079401 0)
(0.908378 0.0120657 0)
(0.904748 0.0148953 0)
(0.907699 0.0255458 0)
(0.92622 0.0475605 0)
(0.942725 0.0610471 0)
(0.949914 0.0599154 0)
(0.951167 0.05336 0)
(0.944699 0.04826 0)
(0.934675 0.0427939 0)
(0.915896 0.0312355 0)
(0.883396 0.0189059 0)
(0.855016 0.0147293 0)
(0.835651 0.0207575 0)
(0.822136 0.0327677 0)
(0.81308 0.0442669 0)
(0.814828 0.0639976 0)
(0.830953 0.0881693 0)
(0.841739 0.0998784 0)
(0.8442 0.101532 0)
(0.83924 0.0971483 0)
(0.827902 0.0921033 0)
(0.803797 0.0815317 0)
(0.75553 0.0601005 0)
(0.706255 0.0357436 0)
(0.663319 0.0148837 0)
(0.630165 0.00659194 0)
(0.60797 0.00795745 0)
(0.601776 0.00139447 0)
(0.59479 -0.0183931 0)
(0.589466 -0.0249699 0)
(-0.223799 -0.200426 0)
(-1.68207 -0.140477 0)
(1.1726 -0.126984 0)
(1.1615 -0.104629 0)
(1.16478 -0.0793671 0)
(1.16991 -0.0599295 0)
(1.17836 -0.0474572 0)
(1.19773 -0.0540406 0)
(1.21613 -0.0806361 0)
(1.22014 -0.0992745 0)
(1.21707 -0.112674 0)
(1.20893 -0.127432 0)
(1.19183 -0.14036 0)
(1.15841 -0.134776 0)
(1.12728 -0.111574 0)
(1.11396 -0.0917054 0)
(1.11089 -0.0789559 0)
(1.11389 -0.0624293 0)
(1.12911 -0.0337091 0)
(1.14971 -0.00168759 0)
(1.16075 0.0167759 0)
(1.16232 0.019653 0)
(1.16263 0.0104478 0)
(1.16024 -0.0064817 0)
(1.15386 -0.0319658 0)
(1.14292 -0.0629099 0)
(1.13076 -0.0891319 0)
(1.11099 -0.103062 0)
(1.08536 -0.100326 0)
(1.06733 -0.0809411 0)
(1.06165 -0.0657589 0)
(1.06384 -0.0473612 0)
(1.0883 -0.0127311 0)
(1.12321 0.0222349 0)
(1.13861 0.0324634 0)
(1.13585 0.0285252 0)
(1.12944 0.0217706 0)
(1.11699 0.00751624 0)
(1.08935 -0.0190476 0)
(1.065 -0.0451759 0)
(1.04809 -0.059648 0)
(1.03637 -0.0635779 0)
(1.03155 -0.0628622 0)
(1.03029 -0.0621353 0)
(1.03229 -0.0592841 0)
(1.04957 -0.0464299 0)
(1.07959 -0.0196914 0)
(1.09768 0.00257426 0)
(1.09784 0.0123353 0)
(1.08959 0.0164173 0)
(1.07873 0.0160762 0)
(1.05578 0.0118592 0)
(1.02375 0.00556186 0)
(0.995936 0.00202744 0)
(0.97938 0.00111248 0)
(0.972787 -0.00070949 0)
(0.970876 -0.003454 0)
(0.970638 -0.00718308 0)
(0.977209 -0.0138571 0)
(1.0008 -0.0162627 0)
(1.03215 -0.00570166 0)
(1.04725 0.0100616 0)
(1.04583 0.022061 0)
(1.03733 0.028873 0)
(1.02478 0.0319596 0)
(0.99006 0.0317058 0)
(0.946166 0.0316252 0)
(0.918005 0.0340961 0)
(0.905144 0.0382472 0)
(0.899618 0.0410281 0)
(0.896439 0.0407383 0)
(0.895778 0.0376723 0)
(0.910618 0.0316831 0)
(0.938573 0.0280233 0)
(0.954097 0.0273958 0)
(0.954225 0.0268789 0)
(0.946654 0.0262928 0)
(0.936576 0.025575 0)
(0.919176 0.0223397 0)
(0.879431 0.0197361 0)
(0.835398 0.0279637 0)
(0.808978 0.0417833 0)
(0.795083 0.0546983 0)
(0.78604 0.0639279 0)
(0.783123 0.0735427 0)
(0.804032 0.0871342 0)
(0.828179 0.0871975 0)
(0.837157 0.0753635 0)
(0.833595 0.0662823 0)
(0.822371 0.0613868 0)
(0.796929 0.057679 0)
(0.747646 0.049645 0)
(0.694952 0.0338539 0)
(0.648991 0.0157208 0)
(0.610826 0.00574173 0)
(0.583361 0.00642343 0)
(0.571628 0.0017917 0)
(0.577217 -0.025503 0)
(0.590288 -0.0432118 0)
(-0.219113 -0.21593 0)
(-1.7122 -0.142018 0)
(1.15897 -0.100628 0)
(1.15133 -0.0916564 0)
(1.15104 -0.0797268 0)
(1.15873 -0.0733076 0)
(1.18851 -0.0812226 0)
(1.22118 -0.100771 0)
(1.22969 -0.112206 0)
(1.22812 -0.119243 0)
(1.22365 -0.121543 0)
(1.21282 -0.118226 0)
(1.17859 -0.0981273 0)
(1.13768 -0.070744 0)
(1.11689 -0.0556077 0)
(1.11062 -0.0522215 0)
(1.10887 -0.05212 0)
(1.10753 -0.051652 0)
(1.11001 -0.0494985 0)
(1.12295 -0.0410638 0)
(1.14605 -0.025212 0)
(1.16658 -0.014071 0)
(1.17383 -0.0146121 0)
(1.17243 -0.0200569 0)
(1.1693 -0.0276835 0)
(1.16461 -0.0364986 0)
(1.15039 -0.0477362 0)
(1.1129 -0.0551848 0)
(1.06975 -0.0532921 0)
(1.05214 -0.0513728 0)
(1.04889 -0.0505112 0)
(1.04803 -0.0493742 0)
(1.05447 -0.0449755 0)
(1.09231 -0.0262734 0)
(1.13428 -0.00274496 0)
(1.14083 0.00321253 0)
(1.13399 0.0030721 0)
(1.12526 0.00303248 0)
(1.10891 -0.000160019 0)
(1.08039 -0.00736149 0)
(1.05103 -0.0165526 0)
(1.033 -0.0264221 0)
(1.02748 -0.0346003 0)
(1.02627 -0.0420378 0)
(1.02898 -0.0513278 0)
(1.03572 -0.059479 0)
(1.05147 -0.0596561 0)
(1.07314 -0.0409543 0)
(1.08185 -0.0168146 0)
(1.0776 0.00289656 0)
(1.06912 0.0211213 0)
(1.05087 0.0368834 0)
(1.02042 0.0433091 0)
(0.990974 0.0400226 0)
(0.976359 0.0323292 0)
(0.970628 0.0231841 0)
(0.968839 0.0147412 0)
(0.972934 0.00300649 0)
(0.987782 -0.0160292 0)
(1.00551 -0.0349831 0)
(1.01729 -0.0407736 0)
(1.02707 -0.0296107 0)
(1.02876 -0.0105682 0)
(1.02178 0.00901127 0)
(1.00567 0.0370322 0)
(0.976349 0.067041 0)
(0.942683 0.0784594 0)
(0.915518 0.0721935 0)
(0.899689 0.0610387 0)
(0.892923 0.0524914 0)
(0.88955 0.0454488 0)
(0.893535 0.0347837 0)
(0.916744 0.0179514 0)
(0.939293 0.00439731 0)
(0.946841 0.00285175 0)
(0.945561 0.00905011 0)
(0.937853 0.0144683 0)
(0.92692 0.0200725 0)
(0.904785 0.0343161 0)
(0.858158 0.0541749 0)
(0.811988 0.0667955 0)
(0.786384 0.0709001 0)
(0.772927 0.0712942 0)
(0.764267 0.0719221 0)
(0.764438 0.0710948 0)
(0.797958 0.0601195 0)
(0.83307 0.0537097 0)
(0.836602 0.0483529 0)
(0.828414 0.0425507 0)
(0.81335 0.0376502 0)
(0.78193 0.0375788 0)
(0.736545 0.0368048 0)
(0.68971 0.0262561 0)
(0.645971 0.0128287 0)
(0.608103 0.00441742 0)
(0.582051 0.00489706 0)
(0.57089 0.00339946 0)
(0.579473 -0.0357052 0)
(0.606507 -0.0641245 0)
(-0.214089 -0.218853 0)
(-1.73563 -0.141606 0)
(1.15446 -0.0830166 0)
(1.14814 -0.0815222 0)
(1.14867 -0.079092 0)
(1.17413 -0.0956239 0)
(1.20888 -0.12213 0)
(1.22564 -0.131603 0)
(1.22926 -0.131133 0)
(1.22598 -0.127554 0)
(1.21742 -0.117647 0)
(1.1893 -0.0887665 0)
(1.15106 -0.0567124 0)
(1.12295 -0.0414817 0)
(1.11049 -0.0403877 0)
(1.10666 -0.0422345 0)
(1.10423 -0.0444693 0)
(1.10459 -0.0481603 0)
(1.11094 -0.0558329 0)
(1.1189 -0.0654791 0)
(1.13003 -0.0699149 0)
(1.1528 -0.0594549 0)
(1.17211 -0.0417127 0)
(1.17407 -0.0314521 0)
(1.16968 -0.0267696 0)
(1.16297 -0.0202961 0)
(1.14458 -0.011443 0)
(1.10973 -0.00508799 0)
(1.07685 -0.00860046 0)
(1.05922 -0.0214969 0)
(1.0533 -0.0320919 0)
(1.05202 -0.0422212 0)
(1.05838 -0.0567986 0)
(1.07667 -0.0692818 0)
(1.10778 -0.0583885 0)
(1.12699 -0.029069 0)
(1.12584 -0.00704463 0)
(1.11966 0.00778816 0)
(1.10503 0.0196421 0)
(1.08071 0.0235394 0)
(1.05855 0.0168929 0)
(1.04433 0.0026127 0)
(1.03713 -0.0145049 0)
(1.03523 -0.0315812 0)
(1.0383 -0.0502886 0)
(1.04344 -0.0659556 0)
(1.04647 -0.0740468 0)
(1.04906 -0.0727872 0)
(1.05255 -0.0520162 0)
(1.05112 -0.0153715 0)
(1.04428 0.0237033 0)
(1.03393 0.0542298 0)
(1.01929 0.0687838 0)
(1.002 0.0660824 0)
(0.988421 0.0536997 0)
(0.980887 0.0413008 0)
(0.979445 0.025709 0)
(0.991118 -0.00183281 0)
(1.00654 -0.0289067 0)
(1.01286 -0.0434899 0)
(1.01252 -0.0473044 0)
(1.00892 -0.0446554 0)
(1.00345 -0.0288055 0)
(0.989087 0.00407942 0)
(0.967809 0.0432746 0)
(0.949372 0.0739619 0)
(0.932963 0.0895703 0)
(0.916718 0.0894521 0)
(0.904354 0.0788075 0)
(0.896359 0.0665706 0)
(0.894385 0.0503876 0)
(0.907751 0.0236335 0)
(0.927731 -0.000950448 0)
(0.938398 -0.0071405 0)
(0.938241 -0.00331795 0)
(0.931712 0.00410173 0)
(0.920797 0.0173355 0)
(0.903647 0.0369292 0)
(0.874095 0.0611485 0)
(0.8322 0.0805084 0)
(0.795477 0.0857915 0)
(0.774087 0.0825477 0)
(0.762444 0.0779165 0)
(0.757123 0.0673853 0)
(0.772312 0.0411059 0)
(0.806174 0.0198769 0)
(0.826747 0.0175651 0)
(0.82309 0.0274539 0)
(0.810297 0.0333345 0)
(0.789173 0.0391821 0)
(0.757194 0.0447238 0)
(0.721674 0.0446961 0)
(0.686782 0.035214 0)
(0.651548 0.0187597 0)
(0.617979 0.00295413 0)
(0.593302 -0.00538501 0)
(0.582297 -0.0110425 0)
(0.58842 -0.0495076 0)
(0.621428 -0.102537 0)
(-0.213106 -0.213752 0)
(-1.75095 -0.145058 0)
(1.15078 -0.08061 0)
(1.14474 -0.0835455 0)
(1.16032 -0.100437 0)
(1.19495 -0.126076 0)
(1.21674 -0.136847 0)
(1.22146 -0.134409 0)
(1.22026 -0.130357 0)
(1.21371 -0.115275 0)
(1.18938 -0.0828108 0)
(1.15851 -0.0473187 0)
(1.13597 -0.0279524 0)
(1.12149 -0.0256099 0)
(1.11307 -0.0305542 0)
(1.10823 -0.0364218 0)
(1.10543 -0.0431295 0)
(1.10862 -0.0542903 0)
(1.11825 -0.0677869 0)
(1.12593 -0.0777103 0)
(1.13027 -0.0825588 0)
(1.13708 -0.0809377 0)
(1.1502 -0.0646964 0)
(1.15911 -0.0393613 0)
(1.15881 -0.0188599 0)
(1.15341 -0.00194023 0)
(1.13734 0.0138892 0)
(1.11491 0.01698 0)
(1.09359 0.00489096 0)
(1.07835 -0.0139226 0)
(1.06965 -0.0354747 0)
(1.06737 -0.0599107 0)
(1.06939 -0.0809852 0)
(1.07202 -0.0885832 0)
(1.07699 -0.0836694 0)
(1.08814 -0.058568 0)
(1.09652 -0.020334 0)
(1.09698 0.0145034 0)
(1.09141 0.0361279 0)
(1.08418 0.0370702 0)
(1.07312 0.0260095 0)
(1.0637 0.00770706 0)
(1.05792 -0.0162844 0)
(1.05447 -0.0411042 0)
(1.0518 -0.0607841 0)
(1.04927 -0.0696834 0)
(1.04451 -0.0691393 0)
(1.03294 -0.0564721 0)
(1.01929 -0.0329844 0)
(1.01297 -0.00759272 0)
(1.01135 0.0188178 0)
(1.01057 0.0441194 0)
(1.00721 0.0622644 0)
(1.00022 0.0664868 0)
(0.994684 0.0591975 0)
(0.994768 0.0377368 0)
(1.00299 0.00635254 0)
(1.01034 -0.0161968 0)
(1.01343 -0.0250821 0)
(1.0111 -0.0272921 0)
(1.0067 -0.0264433 0)
(0.995711 -0.0155697 0)
(0.977762 0.0048386 0)
(0.956983 0.0273855 0)
(0.938121 0.0447552 0)
(0.925924 0.0560875 0)
(0.918031 0.0662206 0)
(0.912227 0.073731 0)
(0.905786 0.0729065 0)
(0.907569 0.0555067 0)
(0.917046 0.024652 0)
(0.923492 0.00454644 0)
(0.928502 0.000503346 0)
(0.929014 0.00388382 0)
(0.92541 0.0131923 0)
(0.91548 0.0315521 0)
(0.898965 0.0538833 0)
(0.878281 0.0741749 0)
(0.851297 0.0886694 0)
(0.819808 0.0936433 0)
(0.792256 0.0873752 0)
(0.77368 0.0766946 0)
(0.766426 0.0624981 0)
(0.778605 0.0310242 0)
(0.795932 0.00273315 0)
(0.803801 -0.00956799 0)
(0.805332 -0.00442796 0)
(0.800507 0.00750777 0)
(0.788109 0.0184381 0)
(0.764807 0.031312 0)
(0.735818 0.0407192 0)
(0.710237 0.0434647 0)
(0.68836 0.039312 0)
(0.667971 0.0251102 0)
(0.648265 0.00255967 0)
(0.628625 -0.0202121 0)
(0.610902 -0.0363874 0)
(0.594037 -0.0627185 0)
(0.624924 -0.153607 0)
(-0.219975 -0.197456 0)
(-1.76078 -0.147874 0)
(1.14742 -0.0906746 0)
(1.14586 -0.102195 0)
(1.17619 -0.110246 0)
(1.20697 -0.113635 0)
(1.21435 -0.114931 0)
(1.21614 -0.113411 0)
(1.21105 -0.106784 0)
(1.18999 -0.0926535 0)
(1.15654 -0.0737973 0)
(1.13296 -0.0599553 0)
(1.12415 -0.0518591 0)
(1.11962 -0.0453612 0)
(1.11584 -0.042296 0)
(1.11453 -0.0450289 0)
(1.11427 -0.0531642 0)
(1.11685 -0.0623581 0)
(1.12401 -0.0681519 0)
(1.13003 -0.0712085 0)
(1.13078 -0.0725842 0)
(1.13096 -0.0712898 0)
(1.13276 -0.065074 0)
(1.13669 -0.0523942 0)
(1.13865 -0.0359135 0)
(1.13438 -0.0162463 0)
(1.1233 0.000777998 0)
(1.11412 0.00530676 0)
(1.10409 -8.90957e-05 0)
(1.09373 -0.015486 0)
(1.08681 -0.0355239 0)
(1.08245 -0.0527348 0)
(1.07768 -0.0643534 0)
(1.06919 -0.070501 0)
(1.06063 -0.0684052 0)
(1.05596 -0.0594605 0)
(1.05686 -0.0438631 0)
(1.06471 -0.0211455 0)
(1.07655 0.00186039 0)
(1.08558 0.0146668 0)
(1.08647 0.0118259 0)
(1.0836 -0.00262922 0)
(1.07751 -0.0177276 0)
(1.06933 -0.0308312 0)
(1.05987 -0.040078 0)
(1.04778 -0.0426711 0)
(1.02884 -0.0334752 0)
(1.0091 -0.0158925 0)
(0.996443 -0.00089371 0)
(0.990214 0.0077816 0)
(0.986939 0.0133072 0)
(0.985758 0.0210705 0)
(0.989037 0.0309584 0)
(0.997521 0.0371786 0)
(1.01176 0.025566 0)
(1.01978 0.00383108 0)
(1.01875 -0.00848699 0)
(1.0139 -0.0147052 0)
(1.00873 -0.014975 0)
(1.0017 -0.00648698 0)
(0.988993 0.0102705 0)
(0.972807 0.0269181 0)
(0.954559 0.0387364 0)
(0.937015 0.0446837 0)
(0.923645 0.0482871 0)
(0.913512 0.0503464 0)
(0.906312 0.0518051 0)
(0.903992 0.0507682 0)
(0.91847 0.0353981 0)
(0.932974 0.0120627 0)
(0.931753 0.000556527 0)
(0.924156 -0.00340016 0)
(0.918131 -0.000184743 0)
(0.910956 0.0155312 0)
(0.897791 0.0406986 0)
(0.882825 0.0646378 0)
(0.86899 0.0816792 0)
(0.855935 0.0913628 0)
(0.838484 0.0966844 0)
(0.816809 0.0965094 0)
(0.798942 0.0888536 0)
(0.789835 0.0696935 0)
(0.796806 0.0283836 0)
(0.804513 -0.00795629 0)
(0.80158 -0.0231912 0)
(0.7941 -0.0249032 0)
(0.785833 -0.0215527 0)
(0.775433 -0.0117533 0)
(0.759101 0.0038705 0)
(0.737344 0.021591 0)
(0.716736 0.0341448 0)
(0.702853 0.0379736 0)
(0.694757 0.0321877 0)
(0.692598 0.0123676 0)
(0.69007 -0.0141612 0)
(0.67912 -0.0410202 0)
(0.653851 -0.0692902 0)
(0.609749 -0.0877105 0)
(0.619665 -0.195818 0)
(-0.231746 -0.180423 0)
(-1.76635 -0.147855 0)
(1.14515 -0.120865 0)
(1.1446 -0.124527 0)
(1.17057 -0.117689 0)
(1.19716 -0.10345 0)
(1.20737 -0.0895841 0)
(1.2116 -0.0746845 0)
(1.21207 -0.0610572 0)
(1.18981 -0.0538896 0)
(1.15458 -0.0535246 0)
(1.12804 -0.0548731 0)
(1.11672 -0.0570076 0)
(1.11171 -0.0593524 0)
(1.1111 -0.0664948 0)
(1.11354 -0.0747568 0)
(1.11419 -0.0775768 0)
(1.11421 -0.0761502 0)
(1.11989 -0.069211 0)
(1.12818 -0.0580339 0)
(1.13117 -0.0502373 0)
(1.13223 -0.0451877 0)
(1.1329 -0.0428761 0)
(1.13308 -0.0412805 0)
(1.12865 -0.0389445 0)
(1.11888 -0.0366057 0)
(1.11198 -0.0355005 0)
(1.10643 -0.0349254 0)
(1.10653 -0.0345951 0)
(1.10062 -0.0364065 0)
(1.09306 -0.039155 0)
(1.08783 -0.039808 0)
(1.08242 -0.0380195 0)
(1.07058 -0.0338438 0)
(1.05494 -0.0310503 0)
(1.04843 -0.0291293 0)
(1.04812 -0.0281753 0)
(1.0498 -0.026015 0)
(1.05825 -0.0244523 0)
(1.07943 -0.0259453 0)
(1.09277 -0.0276671 0)
(1.08886 -0.0283525 0)
(1.08134 -0.0292443 0)
(1.07161 -0.0296082 0)
(1.05548 -0.0246811 0)
(1.03124 -0.0105722 0)
(1.00685 0.00651386 0)
(0.989763 0.0166223 0)
(0.98083 0.0222001 0)
(0.977379 0.0261781 0)
(0.975783 0.028177 0)
(0.97643 0.0287751 0)
(0.9874 0.0218761 0)
(1.01258 9.40685e-05 0)
(1.02902 -0.0176749 0)
(1.02714 -0.0233454 0)
(1.02004 -0.0247464 0)
(1.01046 -0.0196496 0)
(0.992479 -0.00248383 0)
(0.974445 0.0229278 0)
(0.963026 0.0457276 0)
(0.953686 0.0602236 0)
(0.943228 0.0659766 0)
(0.931713 0.0647574 0)
(0.920551 0.0574744 0)
(0.913242 0.050729 0)
(0.911605 0.0382903 0)
(0.925066 0.0111804 0)
(0.937731 -0.0141636 0)
(0.936052 -0.0234101 0)
(0.928015 -0.0240004 0)
(0.915246 -0.0157256 0)
(0.892448 0.00690166 0)
(0.875254 0.0411996 0)
(0.866994 0.0760709 0)
(0.863671 0.101557 0)
(0.860558 0.111414 0)
(0.854314 0.112298 0)
(0.838961 0.110133 0)
(0.825435 0.102896 0)
(0.820511 0.079345 0)
(0.827479 0.0376013 0)
(0.827975 0.00435431 0)
(0.817997 -0.0156957 0)
(0.80204 -0.0260631 0)
(0.785488 -0.028116 0)
(0.768727 -0.0250253 0)
(0.750771 -0.0179926 0)
(0.733202 -0.0083802 0)
(0.718965 -0.00035566 0)
(0.708681 0.00495397 0)
(0.70474 0.00719421 0)
(0.711708 0.000632348 0)
(0.717618 -0.0157236 0)
(0.714384 -0.034447 0)
(0.702508 -0.0522539 0)
(0.676972 -0.0734494 0)
(0.634016 -0.0971426 0)
(0.621981 -0.204068 0)
(-0.242081 -0.175579 0)
(-1.77003 -0.146317 0)
(1.14247 -0.146603 0)
(1.12992 -0.138606 0)
(1.13846 -0.108115 0)
(1.17504 -0.0610337 0)
(1.19939 -0.0343612 0)
(1.20365 -0.029272 0)
(1.20284 -0.0269866 0)
(1.19083 -0.0271813 0)
(1.16243 -0.0406574 0)
(1.13997 -0.0570384 0)
(1.12883 -0.0700856 0)
(1.12314 -0.0846001 0)
(1.11986 -0.0970353 0)
(1.11406 -0.100371 0)
(1.10758 -0.0972345 0)
(1.10175 -0.0847731 0)
(1.10223 -0.0635669 0)
(1.11541 -0.0362136 0)
(1.12681 -0.0207337 0)
(1.13063 -0.018676 0)
(1.13327 -0.0225377 0)
(1.13454 -0.0312262 0)
(1.13205 -0.0433923 0)
(1.12239 -0.0588501 0)
(1.11403 -0.0666031 0)
(1.10852 -0.0703681 0)
(1.10263 -0.0695911 0)
(1.09704 -0.0626286 0)
(1.09023 -0.0523007 0)
(1.08078 -0.037698 0)
(1.07026 -0.0199342 0)
(1.06067 -0.00599334 0)
(1.05506 -0.00171451 0)
(1.05224 -0.00787807 0)
(1.05121 -0.0180798 0)
(1.05723 -0.0336817 0)
(1.0696 -0.0522554 0)
(1.07817 -0.0618162 0)
(1.08272 -0.0597298 0)
(1.08137 -0.0507556 0)
(1.07506 -0.0426308 0)
(1.06068 -0.0279585 0)
(1.03368 -0.00326173 0)
(1.00914 0.021523 0)
(0.995099 0.0367307 0)
(0.986817 0.044278 0)
(0.980591 0.0444326 0)
(0.97784 0.0426142 0)
(0.977089 0.0398346 0)
(0.988324 0.026205 0)
(1.01264 -0.00411594 0)
(1.0255 -0.0290134 0)
(1.02495 -0.0382442 0)
(1.02002 -0.0377696 0)
(1.01039 -0.0311584 0)
(0.984944 -0.00701085 0)
(0.962253 0.0242943 0)
(0.949803 0.0481898 0)
(0.943476 0.0663869 0)
(0.941196 0.078398 0)
(0.937495 0.0789885 0)
(0.932974 0.0730842 0)
(0.926621 0.0600452 0)
(0.924371 0.037807 0)
(0.934153 0.00626678 0)
(0.942586 -0.0183652 0)
(0.941374 -0.0296805 0)
(0.935357 -0.0317479 0)
(0.920821 -0.0276055 0)
(0.889872 -0.0101052 0)
(0.860493 0.015226 0)
(0.843527 0.0370189 0)
(0.836117 0.0586973 0)
(0.841285 0.085416 0)
(0.848737 0.106171 0)
(0.846879 0.115601 0)
(0.843771 0.111279 0)
(0.847609 0.0844828 0)
(0.852096 0.0458204 0)
(0.849716 0.0146295 0)
(0.840217 -0.00301548 0)
(0.820752 -0.0124613 0)
(0.796955 -0.0183851 0)
(0.774489 -0.0212857 0)
(0.753212 -0.0198438 0)
(0.734162 -0.0156438 0)
(0.719893 -0.0117073 0)
(0.710908 -0.0092886 0)
(0.706666 -0.00793559 0)
(0.713617 -0.0126162 0)
(0.725344 -0.0250454 0)
(0.728078 -0.0386255 0)
(0.721295 -0.0516382 0)
(0.706186 -0.066375 0)
(0.680143 -0.0827007 0)
(0.649067 -0.1047 0)
(0.637032 -0.178651 0)
(-0.249906 -0.181994 0)
(-1.77458 -0.147561 0)
(1.13109 -0.144207 0)
(1.10524 -0.123279 0)
(1.10541 -0.104874 0)
(1.12968 -0.0712074 0)
(1.17774 -0.0237469 0)
(1.19861 -0.00305972 0)
(1.20159 -0.00398267 0)
(1.20029 -0.0117343 0)
(1.18639 -0.0355143 0)
(1.16172 -0.071817 0)
(1.14234 -0.09864 0)
(1.12904 -0.110941 0)
(1.1202 -0.113848 0)
(1.10927 -0.109181 0)
(1.09399 -0.0945903 0)
(1.08365 -0.0767326 0)
(1.07953 -0.0616397 0)
(1.08811 -0.0387836 0)
(1.11091 -0.0149115 0)
(1.12884 -0.00800343 0)
(1.13972 -0.017965 0)
(1.14321 -0.0340996 0)
(1.14087 -0.0505334 0)
(1.13001 -0.0695922 0)
(1.11354 -0.0837388 0)
(1.10138 -0.0858181 0)
(1.09067 -0.081452 0)
(1.07843 -0.0692481 0)
(1.06688 -0.0472853 0)
(1.05951 -0.0223641 0)
(1.05536 -0.00166896 0)
(1.05349 0.00792221 0)
(1.05532 0.00732606 0)
(1.06053 -0.00134576 0)
(1.06707 -0.0207731 0)
(1.07298 -0.0454225 0)
(1.07701 -0.0619114 0)
(1.07617 -0.0650913 0)
(1.07294 -0.0631202 0)
(1.06813 -0.0565958 0)
(1.05385 -0.0380591 0)
(1.03089 -0.00836262 0)
(1.00875 0.0199977 0)
(0.992046 0.0392789 0)
(0.98217 0.0504388 0)
(0.977289 0.0557127 0)
(0.973913 0.0560701 0)
(0.973294 0.0516333 0)
(0.985637 0.0343903 0)
(1.01146 0.00304449 0)
(1.0287 -0.0202407 0)
(1.03164 -0.0291704 0)
(1.02802 -0.0318026 0)
(1.01736 -0.0321047 0)
(0.985992 -0.0165957 0)
(0.954358 0.00850648 0)
(0.936653 0.0267372 0)
(0.927353 0.0410979 0)
(0.923729 0.0554066 0)
(0.926612 0.0679875 0)
(0.928891 0.0742315 0)
(0.929851 0.0726571 0)
(0.937148 0.0571931 0)
(0.949063 0.0274656 0)
(0.954435 -0.000949484 0)
(0.953209 -0.016987 0)
(0.947842 -0.0224818 0)
(0.93461 -0.0215947 0)
(0.906783 -0.0119775 0)
(0.869825 0.000743638 0)
(0.838994 0.0106556 0)
(0.821366 0.0203396 0)
(0.811703 0.0309327 0)
(0.810485 0.0485745 0)
(0.822133 0.0760424 0)
(0.84077 0.094118 0)
(0.862938 0.0876194 0)
(0.87356 0.0684068 0)
(0.871621 0.0529935 0)
(0.860401 0.0351485 0)
(0.837783 0.0152708 0)
(0.811847 0.00122316 0)
(0.786133 -0.00620294 0)
(0.762162 -0.00948528 0)
(0.741374 -0.0107643 0)
(0.725509 -0.0104205 0)
(0.715209 -0.00924408 0)
(0.709006 -0.00872046 0)
(0.711078 -0.0114179 0)
(0.723274 -0.0194875 0)
(0.733054 -0.0323113 0)
(0.733391 -0.0466111 0)
(0.724718 -0.0609021 0)
(0.708418 -0.0749101 0)
(0.687104 -0.0851731 0)
(0.667711 -0.099187 0)
(0.645576 -0.136974 0)
(-0.253662 -0.187743 0)
(-1.77762 -0.143073 0)
(1.11529 -0.118453 0)
(1.09158 -0.0975649 0)
(1.09094 -0.0831513 0)
(1.09145 -0.075363 0)
(1.12886 -0.0452826 0)
(1.18198 -0.00646186 0)
(1.20428 0.0015534 0)
(1.20913 -0.00817061 0)
(1.20658 -0.0207721 0)
(1.19217 -0.0466928 0)
(1.16472 -0.0819915 0)
(1.14051 -0.104504 0)
(1.11805 -0.11065 0)
(1.09384 -0.102358 0)
(1.07585 -0.0892623 0)
(1.06674 -0.0805667 0)
(1.06185 -0.0748751 0)
(1.062 -0.0657385 0)
(1.08663 -0.0426682 0)
(1.12783 -0.0199579 0)
(1.15028 -0.0193264 0)
(1.15368 -0.0294284 0)
(1.15013 -0.0388034 0)
(1.13949 -0.0522958 0)
(1.11783 -0.0702586 0)
(1.09736 -0.0804142 0)
(1.07618 -0.0808168 0)
(1.0555 -0.0719439 0)
(1.04294 -0.060006 0)
(1.03636 -0.0479179 0)
(1.03706 -0.0303893 0)
(1.04579 -0.0113988 0)
(1.05551 0.000319547 0)
(1.0704 0.00165534 0)
(1.08173 -0.00979337 0)
(1.0845 -0.0228563 0)
(1.08137 -0.0358091 0)
(1.07436 -0.0455064 0)
(1.06685 -0.049762 0)
(1.05343 -0.047795 0)
(1.02868 -0.0375286 0)
(1.0026 -0.0222035 0)
(0.985094 -0.00353709 0)
(0.975371 0.0161104 0)
(0.968945 0.0331035 0)
(0.964308 0.0455256 0)
(0.961621 0.0537808 0)
(0.973236 0.0508755 0)
(1.00334 0.0295564 0)
(1.02635 0.0046658 0)
(1.03479 -0.0088637 0)
(1.03501 -0.014409 0)
(1.03195 -0.0145111 0)
(1.00871 -0.00477747 0)
(0.967039 0.00581253 0)
(0.936895 0.0102751 0)
(0.92184 0.0146199 0)
(0.913651 0.0182248 0)
(0.908322 0.0238213 0)
(0.909174 0.0338386 0)
(0.915151 0.0467302 0)
(0.927917 0.0541794 0)
(0.949223 0.051283 0)
(0.962158 0.0379628 0)
(0.961822 0.0272462 0)
(0.9557 0.0145327 0)
(0.941708 0.00293627 0)
(0.919868 -0.00172062 0)
(0.890894 0.000353852 0)
(0.858381 0.00446702 0)
(0.829879 0.0070886 0)
(0.811348 0.00804344 0)
(0.803175 0.00859102 0)
(0.798578 0.00852206 0)
(0.802697 0.0122046 0)
(0.836115 0.02497 0)
(0.873526 0.0349137 0)
(0.881018 0.0379504 0)
(0.875785 0.0384257 0)
(0.864716 0.0375057 0)
(0.843088 0.0331499 0)
(0.813019 0.0260383 0)
(0.785401 0.0195203 0)
(0.763046 0.0141004 0)
(0.744138 0.00950703 0)
(0.729602 0.00510358 0)
(0.719437 0.000805573 0)
(0.713224 -0.00512963 0)
(0.714446 -0.0158236 0)
(0.724106 -0.0265103 0)
(0.732572 -0.0347725 0)
(0.731677 -0.0449548 0)
(0.722287 -0.0577452 0)
(0.707882 -0.0694742 0)
(0.694367 -0.0760688 0)
(0.683676 -0.082823 0)
(0.671512 -0.114727 0)
(-0.253866 -0.195445 0)
(-1.78071 -0.139446 0)
(1.09119 -0.105207 0)
(1.07724 -0.0959322 0)
(1.07639 -0.0850586 0)
(1.07605 -0.0800567 0)
(1.08601 -0.0730306 0)
(1.14242 -0.0453124 0)
(1.20354 -0.0169256 0)
(1.22086 -0.0177409 0)
(1.21804 -0.0251909 0)
(1.21098 -0.0326892 0)
(1.19114 -0.0491834 0)
(1.15106 -0.0755431 0)
(1.10654 -0.0882684 0)
(1.07674 -0.0844744 0)
(1.06387 -0.0781855 0)
(1.05899 -0.0740113 0)
(1.05494 -0.0710038 0)
(1.0523 -0.0683504 0)
(1.06226 -0.0624251 0)
(1.11412 -0.0450453 0)
(1.15289 -0.0346031 0)
(1.1572 -0.03406 0)
(1.15279 -0.0351616 0)
(1.14748 -0.0368924 0)
(1.13151 -0.0452493 0)
(1.10031 -0.0619205 0)
(1.06887 -0.0690479 0)
(1.04479 -0.0667437 0)
(1.03146 -0.0612749 0)
(1.02496 -0.056003 0)
(1.02035 -0.049566 0)
(1.02332 -0.0354646 0)
(1.04453 -0.0127027 0)
(1.07366 -0.00134857 0)
(1.08959 0.000547189 0)
(1.09063 -0.00125669 0)
(1.08793 -0.00452069 0)
(1.08101 -0.0119952 0)
(1.06818 -0.0205825 0)
(1.04854 -0.0255269 0)
(1.02026 -0.0276715 0)
(0.988106 -0.025676 0)
(0.968713 -0.0195661 0)
(0.957492 -0.0101075 0)
(0.950346 0.00462851 0)
(0.947428 0.0206633 0)
(0.952491 0.0331407 0)
(0.979569 0.0415415 0)
(1.01767 0.0393582 0)
(1.03213 0.0316547 0)
(1.035 0.023239 0)
(1.03394 0.0160755 0)
(1.01905 0.0146013 0)
(0.991768 0.017339 0)
(0.9612 0.0188747 0)
(0.933749 0.0149396 0)
(0.917572 0.00858198 0)
(0.90831 0.00279693 0)
(0.901093 -0.00282305 0)
(0.895729 -0.00500268 0)
(0.897734 0.00089091 0)
(0.91782 0.0159235 0)
(0.947832 0.025015 0)
(0.961233 0.0290259 0)
(0.960386 0.0298497 0)
(0.956287 0.0312824 0)
(0.944549 0.0324014 0)
(0.921017 0.0292967 0)
(0.891154 0.0241752 0)
(0.860534 0.0180709 0)
(0.836081 0.010232 0)
(0.822142 -7.65559e-05 0)
(0.81361 -0.0115149 0)
(0.809161 -0.0223601 0)
(0.81051 -0.0320798 0)
(0.826349 -0.0340565 0)
(0.855651 -0.0132122 0)
(0.868393 0.0106627 0)
(0.864433 0.0251786 0)
(0.852318 0.0394751 0)
(0.832144 0.0506821 0)
(0.811486 0.0512769 0)
(0.792843 0.0416681 0)
(0.77597 0.0273969 0)
(0.760741 0.0141213 0)
(0.747233 0.0030564 0)
(0.73522 -0.0064521 0)
(0.72558 -0.0151441 0)
(0.718382 -0.0247914 0)
(0.715484 -0.0329034 0)
(0.720835 -0.0333529 0)
(0.723407 -0.0306833 0)
(0.719531 -0.0348908 0)