/*--------------------------------*- C++ -*----------------------------------*\
  =========                 |
  \\      /  F ield         | OpenFOAM: The Open Source CFD Toolbox
   \\    /   O peration     | Website:  https://openfoam.org
    \\  /    A nd           | Version:  12
     \\/     M anipulation  |
\*---------------------------------------------------------------------------*/
FoamFile
{
    format      ascii;
    class       surfaceScalarField;
    location    "5.55";
    object      phi;
}
// * * * * * * * * * * * * * * * * * * * * * * * * * * * * * * * * * * * * * //

dimensions      [1 0 -1 0 0 0 0];

internalField   nonuniform List<scalar> 
33852
(
0.000251329
2.24281e-05
-0.000273757
-0.000246121
1.32441e-05
0.000232877
-0.00017454
-7.06711e-05
0.000248558
0.000304053
-0.000163969
-0.000140085
0.000292344
-4.24265e-05
-0.000248138
2.72441e-05
-0.000260681
0.000233437
0.000315506
1.4845e-05
-0.0003308
0.000304277
-9.59564e-05
-0.000208321
0.000286413
-3.50841e-05
0.000201966
1.28741e-06
-0.00020381
0.000289727
-0.000366667
7.70555e-05
0.000360542
-4.57964e-05
-4.39602e-05
0.000263285
-0.000219325
-4.39343e-05
0.000317961
-0.000274597
6.00931e-05
-0.000233281
0.000252057
1.2236e-05
-0.000264293
0.000264853
-1.2796e-05
-0.000278433
3.23121e-05
0.000340906
-5.11875e-05
0.000158593
0.000112308
-0.000270901
-2.43133e-05
0.000303308
-0.000279041
0.000271377
-0.000276165
4.78802e-06
-1.77083e-05
0.000275087
-0.000257366
-0.000231018
1.55106e-05
0.000213494
-0.000153235
-0.000183612
0.000338046
-0.000145014
-6.83107e-05
0.000213294
3.72401e-05
0.000267037
-6.12561e-05
-0.000263134
0.000324116
-0.000209979
1.8704e-06
0.000208989
-0.000210223
-2.00637e-05
0.000142045
0.000137388
-0.000279433
0.000341177
1.91954e-05
0.000142618
0.000128347
-0.000270965
-0.000101136
0.000259729
-0.000250489
-3.78001e-06
0.000254269
0.000330927
-5.96654e-05
-0.000271225
-0.000355705
0.000203062
-0.0002274
0.000209721
0.000231645
3.32081e-05
-5.65602e-06
0.000237301
-7.9211e-06
0.000206229
-0.000232625
0.000259869
0.000316134
-5.72647e-05
-0.000259511
-0.000309093
5.51042e-05
0.000253989
0.000240005
-0.000301454
0.000273589
-0.000306321
3.27321e-05
-0.000180237
-5.49362e-05
0.000235173
0.000272133
-0.000272133
0.000148429
-0.000297473
0.000149045
-0.00021251
0.000219929
-7.43156e-06
-0.000268241
0.000237301
3.09401e-05
-0.000202617
0.000246324
-4.81035e-05
-9.16164e-05
-0.000217477
-0.000114463
-0.000251944
-0.000280169
0.000266113
1.40561e-05
0.000329178
1.19821e-05
-0.000250433
7.01963e-05
0.000117908
0.000145909
-0.000263817
1.34681e-05
-0.000267457
0.000253989
-0.000134569
0.000282997
-0.000151763
-5.00864e-05
0.00020588
-0.000274681
0.000245113
2.95681e-05
0.000237553
-0.000268437
3.08841e-05
-0.000185597
-2.37734e-05
0.000151665
0.000115565
-0.00026723
-0.000192191
-2.89995e-05
0.000219365
0.000263985
2.24281e-05
0.000275941
-2.35201e-06
0.000265329
-0.000250741
-1.45881e-05
0.000222322
-6.40993e-05
-0.000163718
-1.82001e-06
0.000239373
0.000366812
-0.00031294
-5.39156e-05
-2.83219e-05
0.000303509
-0.000275534
-0.000101584
0.000219493
0.00034259
2.4181e-05
-0.00037169
0.000353497
1.82306e-05
-0.000215807
2.28768e-05
0.000308907
-0.000321656
1.22921e-05
-0.000208657
0.000274338
-6.47982e-05
-4.45202e-06
1.70962e-05
-0.000319211
0.000302349
0.000235386
-0.000199431
-3.55387e-05
0.000269641
-0.000339104
7.00507e-05
0.000333552
-6.35008e-05
-0.000268941
0.000236573
3.23681e-05
-0.000129388
-0.000132609
0.000261997
-1.86761e-05
-0.000249565
-1.022e-05
-0.000258721
2.31831e-05
0.000211867
-0.000233022
3.12074e-05
-0.000224096
0.000188271
-2.49547e-05
0.000327615
-0.000302612
-0.000279329
0.000273701
5.62802e-06
0.000156129
-0.000296857
0.000140729
-6.04989e-05
-0.000152196
0.000213623
0.000143277
0.0001218
-0.000265077
-0.000250096
0.00022555
-0.000215477
0.000155935
-0.000168813
0.000327181
-0.000158369
0.000185389
7.16523e-05
-0.000257041
0.000255193
2.07481e-05
-0.000192277
0.000148317
5.01257e-05
0.000265758
0.000307193
-0.000290034
9.11008e-05
-0.000236293
0.000135241
0.000117096
-0.000281065
-1.0881e-06
0.000244941
-0.000242842
0.000166489
0.000122836
-0.000289325
0.00014481
9.0071e-05
-3.92002e-06
0.000259113
0.000303166
5.41218e-06
-0.000324115
0.000315164
8.88623e-06
-3.99002e-05
0.000236293
-0.000196393
4.08802e-06
-0.000284257
-2.51419e-05
0.000168373
-0.0001395
-0.000160483
0.000137758
0.000209013
-0.000180346
-0.000269921
0.000264965
4.95602e-06
2.64041e-05
0.000174721
-0.000201125
2.87841e-05
-0.000257265
0.000228481
0.000276137
-0.000262669
0.000115108
0.000212073
0.00021438
-0.000188925
-0.000175813
0.000202217
1.36358e-05
0.000282924
-0.000296537
0.000271262
2.17534e-05
0.000271553
-0.000284183
1.24093e-05
3.86402e-06
0.000267513
-1.81077e-05
0.000289663
0.000330854
9.97685e-06
0.000213521
-0.000257677
0.000316155
-0.000316202
-6.63603e-06
-0.000272693
2.75973e-05
0.00019291
0.000187993
3.98722e-05
-0.000227865
-5.50341e-05
0.000218954
-0.000161799
0.000153609
-0.000270285
0.000116676
0.000279441
-0.000329701
5.02602e-05
-6.38122e-05
0.000249201
-0.000166909
0.000315897
-0.000148989
-0.000314157
-9.97645e-06
-0.000214929
0.000175029
2.78601e-05
-0.000278349
0.000276221
-1.88441e-05
-0.000248613
1.72012e-05
-0.000302472
0.000285277
0.000344989
-0.000158593
-0.000186397
-1.67044e-05
-0.000240739
0.000257835
-0.000266617
-3.30401e-06
0.000224001
2.45841e-05
-0.000248585
0.000284509
-0.000128381
0.000140197
0.000138853
-0.000279049
-0.000200562
-1.0693e-05
0.000258169
-0.000115551
0.00022583
-0.000242568
-6.38122e-05
0.000251805
-0.000207763
0.000249481
-5.60002e-07
-0.000248921
0.000255109
-0.000237441
-0.000324574
0.000299633
-3.08841e-05
0.000203169
-0.000172285
0.000291945
1.29338e-06
-0.00029315
7.88889e-05
0.000135466
-0.000213169
4.52554e-05
-0.000195556
-0.000288991
-4.58768e-06
0.000293559
-1.58139e-06
-0.000287555
0.000146973
-0.000273925
0.000126952
-0.000264086
0.000220886
-0.000293613
0.000265924
0.000279441
-0.000312542
-1.23544e-05
0.000325118
0.000111659
0.000162795
-2.13566e-05
0.000352226
0.000140141
0.000139833
-0.000279973
0.000245029
-0.000250349
5.32002e-06
-0.000210953
0.000180069
0.000279133
-5.43202e-06
0.000350467
-3.27037e-05
-0.000302667
0.000306761
-2.61319e-06
0.000270985
-0.000270985
-0.000364531
0.000225782
0.000138725
-0.000205334
1.95262e-05
1.68e-05
0.000275157
-0.000278461
3.30401e-06
-4.92734e-06
0.000165355
-0.000158978
-0.000197345
0.000254801
-5.74562e-05
-0.000207538
4.72024e-06
-0.00023809
0.000157558
8.03417e-05
-0.000180264
0.000261404
-8.11369e-05
0.000256285
-0.000287113
3.08281e-05
-0.000249229
5.18842e-05
-2.33727e-05
0.000276131
-0.000252832
-0.000253547
1.35801e-06
0.000252189
0.000231281
-7.28003e-06
-0.000294155
7.61038e-06
0.000286484
-0.000266085
0.000266085
-0.000283974
-5.49896e-05
-0.000170654
-0.000193983
-0.000173215
0.000214892
-4.36312e-05
-1.232e-05
-0.000239177
0.000251497
3.10801e-06
0.000210113
-0.000213221
-0.000184869
-2.24836e-05
0.000206983
7.57257e-06
0.000294427
-0.000301967
-0.000236153
-1.34401e-05
0.000249593
1.50361e-05
-0.000251189
-0.000241025
0.000256061
-0.00030124
0.000308837
0.000256117
7.16803e-06
-0.000167008
-3.18842e-05
0.000200151
-0.000145237
-0.000134765
-0.000244329
0.000240549
0.000298629
-3.91573e-07
-0.000298099
-0.000298822
6.07233e-07
0.000298245
1.91492e-05
0.000181217
0.000163773
7.70044e-05
-0.000257269
-0.000159242
0.000310908
0.000250721
-0.000108677
-0.000235145
-1.83681e-05
0.000253513
-0.000204474
-0.000126619
0.000331138
-6.10402e-06
-0.000229125
0.000235229
-2.17831e-05
-0.000184259
-0.000286214
-8.54821e-05
6.22049e-06
-0.000300512
-0.000212435
0.000327637
-0.000115161
0.000281597
0.000288205
-5.16322e-05
0.000271993
-1.57081e-05
-0.000188372
-1.39801e-05
0.000201588
0.000297468
4.5226e-07
-0.000297866
-0.000267681
-3.36083e-05
-0.000218821
0.000247605
-2.52389e-05
0.000310497
-0.000285354
0.000177596
7.68426e-06
-0.000188091
-3.3721e-05
0.000210676
-0.000301385
0.000276068
0.000292677
5.97821e-06
-0.00029814
0.000157445
0.00011886
-0.000276305
0.000290389
4.66704e-06
-0.00029489
-0.00023806
0.000113121
0.000124975
-0.000281638
0.000295393
0.000302513
-0.000156857
-0.000145657
0.000207005
-0.000203897
-0.000232009
-0.000121156
-0.000155009
-4.00643e-06
-0.000294078
0.000298277
-1.0136e-05
0.000276249
0.000289237
-2.00107e-05
-0.000269669
-0.000262926
2.91826e-05
0.000233852
0.000271433
-0.000267569
0.000249621
2.95121e-05
0.000314624
-9.71198e-06
-0.000304921
4.98482e-05
0.000157232
-0.000204348
-9.63818e-05
0.000194593
-9.51536e-05
0.000252617
-2.91201e-05
-0.000223497
7.42557e-07
0.000292006
-0.000178995
-3.17604e-05
0.000213269
-1.9412e-06
0.0002916
-9.33244e-05
0.000246933
-0.000255417
-5.26402e-06
0.000121184
0.000181329
1.34121e-05
0.000241557
-0.000254969
0.000236097
1.34961e-05
-0.000249593
0.000249509
-0.000242929
0.000256425
6.44159e-05
-0.000204316
0.000139881
-0.000208962
0.000112816
-0.000201606
0.000297282
1.39508e-06
-0.000298718
0.000253849
2.22881e-05
0.000268493
-0.000216441
-5.20522e-05
0.000225518
-0.000246849
2.13305e-05
0.000257909
1.40841e-05
5.87821e-05
0.000294673
0.000267186
-3.89594e-05
-0.000228226
0.000175098
1.274e-05
0.000240297
-0.000253037
0.00019533
-0.000114646
-8.05137e-05
-0.000207078
2.13531e-05
-1.24418e-06
-0.000297898
0.000299237
0.000218575
-0.000171723
-5.44459e-05
0.000344604
-4.1357e-05
0.000275969
-0.000135829
2.31561e-05
0.000238337
-0.000261493
-0.000231141
0.000254297
-2.6689e-05
-0.00022971
0.000256412
0.000151332
-0.000154673
-7.61521e-05
-0.000165475
-0.000261723
4.14346e-05
0.000220288
-3.17521e-05
-0.00022997
6.67313e-06
0.000261717
-3.25193e-05
-0.000229198
1.6714e-05
0.000126017
-0.000195026
0.000308785
-0.000171397
0.000262319
-3.57923e-05
-0.000226526
-0.000319012
0.000177849
-0.000103713
-0.000228453
-6.90203e-05
-1.07769e-06
-0.000298599
0.000299227
-2.77371e-05
0.000181463
-0.000150765
0.000307815
6.84144e-06
0.000250097
-0.000248249
-1.84801e-06
-0.000176398
6.18242e-05
0.000260254
-3.0715e-05
-0.000229525
0.000197345
-0.000250769
5.34242e-05
0.000254206
-0.000231206
-2.29992e-05
-0.000252337
0.000240017
0.000142326
9.94013e-05
-0.000101864
-0.000170269
0.000132496
-0.000261885
-0.000290249
0.0002422
4.80483e-05
0.000216808
3.12478e-05
-0.000248056
-0.000238463
-9.46967e-06
0.000248615
0.000326139
-2.30854e-05
0.000263996
-3.42721e-05
-0.000229724
0.000143679
-0.000226257
9.13105e-05
3.63259e-05
-0.000265637
0.000229311
-0.000253905
0.000121296
0.000249817
-5.24722e-05
0.000294673
-0.000154253
-0.000140421
0.000122248
-0.000289157
1.53441e-05
0.000237665
-0.000253009
-0.000262031
3.54705e-05
0.00022656
-2.82113e-06
-3.77917e-05
-0.000224239
0.00024862
-0.000272417
-0.000264649
3.44737e-05
0.000230175
0.000193257
0.000101416
-0.000149941
0.000290137
-0.000165801
-3.79964e-05
0.000203902
-1.81721e-05
0.000263201
-0.000292933
0.000310128
0.000113558
0.000101021
0.000261325
-0.000261325
0.000308523
-2.01035e-05
-0.000289051
5.32002e-07
0.000248949
0.000254857
1.65761e-05
0.000309168
-0.000276021
-3.31204e-05
-2.26336e-05
0.000266577
-0.000243943
3.00077e-05
-0.000260519
0.000230511
-0.000252139
0.000229506
0.000327717
3.11501e-05
-0.000260598
0.000229447
0.000276809
-3.16961e-05
-5.7283e-06
-0.000296211
0.000300313
0.00027054
3.8755e-05
0.000230245
-0.000266617
3.63721e-05
0.000201962
-0.000202831
-0.000258301
0.000238533
1.97681e-05
0.000169762
-0.000257245
8.74835e-05
-0.000204407
0.000163241
-0.000249145
8.59043e-05
-0.000266169
0.000224813
4.13562e-05
0.000253073
-2.78797e-05
-0.000225194
0.000177232
4.31444e-05
-0.000234837
-2.29601e-05
0.000257797
-0.000236377
-2.28761e-05
0.000259253
-1.94265e-05
0.000255969
-0.000236542
-0.000259345
0.000239919
-3.36588e-05
0.000181969
-0.000235929
-2.24001e-05
0.000258329
-0.00025484
0.000229192
2.56481e-05
2.94001e-06
0.000211289
-0.000214229
-0.000267031
3.79849e-05
0.000229046
0.000270677
4.48002e-06
4.18036e-05
0.000161289
-0.00020375
-3.31199e-05
0.000249928
-2.09866e-05
0.000218597
9.73004e-05
0.000248198
-0.000216953
0.00027748
-0.00027912
0.000277113
-0.000281769
-1.84997e-05
0.000258601
-0.000240101
-0.000261644
0.000243145
3.08326e-05
-0.000204404
-2.98572e-05
-0.000209426
0.000239707
0.000315026
-0.00028777
-2.74609e-05
0.000261297
-3.11081e-05
-0.000230189
3.28739e-05
-0.000262362
0.000229488
-0.000229853
0.000259645
-2.97921e-05
0.000325543
-1.76315e-05
0.000144482
-0.000213699
0.000256929
-0.000109956
-0.000286386
0.000287687
0.000241977
-6.41202e-06
-0.000235565
0.000228537
-0.000183849
-3.73133e-05
0.000219279
2.79294e-05
-0.00021156
-0.000239989
0.000260317
-2.03281e-05
-0.000101371
0.00018971
-8.4327e-05
3.07912e-05
-0.000199792
0.000240169
-0.000263424
2.32552e-05
-0.000115584
0.000258861
-0.000243993
0.000265721
-2.17281e-05
-0.000238953
0.000232541
0.000258626
-0.000245105
-1.35213e-05
0.000264349
-2.46681e-05
-0.000246317
-0.000273909
-1.05862e-05
0.000298716
-5.31688e-05
-9.57951e-06
0.000290582
-0.000281212
-0.000165708
0.000207294
0.000228789
1.8708e-05
-0.000244855
0.000329102
-0.00032918
0.000260955
-0.000245018
-1.59377e-05
-0.000301718
-6.81612e-07
0.000305107
9.65508e-06
3.75498e-05
0.000166925
-0.000206386
0.000215999
-3.49492e-05
-0.00017926
0.000278054
-0.000255789
-2.22648e-05
-0.000206593
3.13575e-05
3.15421e-05
-0.000261891
0.000230348
0.000284706
-0.000291191
2.44721e-05
-0.000259617
-0.000257965
1.87881e-05
0.000266057
-1.64361e-05
0.000151173
-0.000267625
0.000116452
0.00029882
-4.37022e-06
0.000238617
-7.53763e-05
2.12521e-05
0.000177045
-0.000198297
-0.000183877
0.000205129
-0.000236275
0.000257219
-2.09441e-05
0.000261462
-3.31689e-05
-0.000228293
-0.000197009
-5.21362e-05
0.000251581
-1.48401e-06
8.74494e-06
-0.000265568
0.000256423
-0.000342817
0.000236378
0.000106495
0.000266371
-0.000236811
-2.95597e-05
0.000306816
-0.000314652
7.82455e-06
-2.57041e-05
-0.000229097
0.000254801
0.000261493
-7.64403e-06
1.02864e-05
-0.000209054
0.000262411
-3.19033e-05
-0.000230508
-6.90483e-05
-0.000260653
-0.000194685
0.000248025
-5.33402e-05
-0.000266533
0.000249985
1.65481e-05
-0.000317943
1.66949e-05
-1.70613e-05
0.000296883
-0.000279739
-0.000276221
1.65481e-05
0.000249537
-0.000163338
6.33617e-05
0.000273659
1.47969e-05
-0.000288641
-0.00031616
0.000307939
8.23156e-06
3.46641e-05
-0.000263649
0.000228985
-1.74699e-05
0.000281123
-0.000315211
1.64011e-05
-0.000176541
-7.42283e-05
-0.000236977
0.000206995
-2.16721e-05
-0.000216469
0.000238141
-0.000314915
0.000295982
1.89793e-05
-0.000132311
0.000273237
-0.000140799
-8.39465e-06
3.31521e-05
-0.000263453
0.000230301
-0.000198936
2.47582e-05
0.000173856
0.000221527
0.000280573
-0.000280747
2.08168e-07
-0.000236993
-2.20921e-05
0.000224813
-0.000202721
0.000139273
0.000143753
-0.000278517
0.000201005
-5.72787e-05
0.000308118
-1.06073e-05
0.000208845
-0.000268809
2.92853e-05
0.00022306
-0.000252345
-0.000322414
0.000138913
0.00029649
2.929e-05
1.94241e-05
-0.000224355
-2.77845e-05
-0.000137472
-0.000132621
-0.000325945
0.000113576
0.000242873
2.56201e-05
0.000218765
-0.000224869
1.07561e-05
-0.00028754
0.000276496
-0.00024245
0.000270068
-2.71743e-05
0.000281368
-0.000281747
0.000289947
-7.70537e-05
-8.84176e-06
0.000290233
-1.87881e-05
0.000247101
-0.000228313
0.000281461
-0.000290325
-5.64016e-06
-0.00028401
0.000289594
0.000282062
-0.000269917
0.00028458
0.000226314
2.67597e-05
-0.000312311
0.000318329
-6.37134e-06
0.000251978
-2.08408e-05
0.000228739
2.41831e-05
-0.000268913
0.000246057
-2.05381e-05
-0.000259401
3.02849e-05
0.000229116
0.000178305
7.64963e-05
9.77595e-06
0.000280799
-0.000290321
-0.000238141
-2.88401e-05
0.000266981
2.51441e-05
-0.000263285
0.000284117
-0.000162317
-0.000232177
0.000261129
-2.89521e-05
-0.000234697
0.000260709
-2.60121e-05
1.49201e-06
0.00027902
2.45001e-05
-0.000259197
2.38001e-05
-0.000255977
0.00027426
-0.000242902
-3.13859e-05
0.000317892
-9.98798e-06
-0.000305715
-3.55466e-06
-0.000255753
1.1816e-05
0.000243937
-1.7332e-05
-0.000261185
0.000228065
-0.000245337
0.000270145
-2.48081e-05
-0.000263229
1.49801e-05
-2.35882e-05
0.000286313
-0.000262764
2.13641e-05
-0.000266701
-0.000241635
-2.13057e-05
3.26703e-05
-9.0432e-05
0.000260194
0.000280838
-0.000286463
5.05122e-05
0.000237693
0.000282065
-0.000281627
-0.000243181
-2.39401e-05
0.000267121
-0.000260894
7.34723e-06
-0.00029565
1.95563e-05
0.000275931
-0.000268717
2.55361e-05
-8.30765e-06
0.000290291
-0.000268326
0.000243549
2.47772e-05
-0.000232513
0.000210841
0.000280125
-0.000288782
-6.16002e-07
0.000260289
-0.000259673
-0.00030189
-1.61051e-05
-0.000264573
2.35481e-05
-0.00024417
-2.41556e-05
-3.43281e-05
-0.000297841
0.000293905
0.000286674
-0.000158327
0.000295798
-0.000289611
2.30152e-05
4.89305e-06
0.000262023
-0.000255586
-7.1935e-06
0.000307414
-2.02826e-05
-0.000287222
5.96721e-05
-0.000246765
-2.19521e-05
-0.000356111
0.000241677
0.000285279
-0.000279717
2.33801e-05
-0.00019191
-1.61141e-05
-0.000306363
2.57206e-05
0.000280815
-0.000196436
0.000310954
-0.000113934
0.000259841
-0.000238533
-2.13081e-05
-0.000291644
2.94001e-05
0.000222097
-0.000251497
-0.000162332
0.000138348
-0.000163016
0.000251441
-0.000238029
-1.34121e-05
-0.000263873
3.40201e-05
-2.23161e-05
-0.000269837
0.000251469
0.000230427
3.12901e-05
-4.66323e-05
0.000204509
0.000232619
-0.000260499
-1.74015e-05
-2.77853e-06
0.000246953
-0.000242541
-0.000293521
-0.000237049
0.000265189
-2.81401e-05
0.000230096
3.22225e-05
-0.000268521
2.55921e-05
-0.000239905
-2.86161e-05
0.000228954
-0.000260706
-0.000282629
4.73202e-05
-0.000242005
0.000294291
-0.000283724
-0.000288769
1.31773e-05
0.000275865
-4.66757e-06
0.000220193
0.000228551
-0.00026107
0.000296885
-0.0001309
-0.000165985
0.000241493
-0.000261612
0.000270369
-0.000226213
-1.76681e-05
-0.000165058
0.000309319
-0.000143215
2.49649e-05
0.000222662
-0.000247627
-0.000193229
0.00019308
-0.000283724
0.00028252
6.99174e-06
-0.000290706
-0.000302485
0.000146693
0.000155793
0.000259995
-0.000239359
-2.06361e-05
-0.000215741
0.000193649
0.000260857
3.58061e-07
0.000257293
0.000232526
2.16797e-05
-0.000294363
-6.1482e-05
1.03902e-05
0.000231837
-0.00025061
1.71431e-05
-0.000230917
-2.37161e-05
0.000254633
-0.000242295
0.000263191
-2.08965e-05
8.33387e-05
0.000135159
2.00778e-05
-0.000305723
0.000285848
0.000256565
-1.80041e-05
-0.000238561
0.000243881
-0.000254017
1.0136e-05
-0.000226745
0.000207957
0.000223131
-0.000258923
-0.000244693
4.76842e-05
1.59464e-05
-0.000137635
-0.000218465
1.57921e-05
0.000245701
0.000280618
0.000293373
0.000305627
1.75347e-06
0.000249817
-0.000220417
2.51749e-05
0.000225009
-0.000250184
-0.000243178
0.000268865
-2.56873e-05
2.28201e-05
-0.000262725
-0.000113304
0.000295836
9.16309e-06
2.08181e-05
0.000261675
-0.000235103
-2.65721e-05
1.31899e-05
-0.000303598
0.000290627
0.000321796
-3.09599e-05
-0.000290828
0.000249733
1.63241e-05
0.00030618
-0.000292904
-0.000230409
-0.000112338
9.63204e-06
0.000250657
-4.9129e-05
-0.00020239
0.000251519
2.20333e-05
0.000246832
-0.000241686
-2.29629e-05
0.000260737
-2.24001e-05
0.000287861
-0.000268023
2.63369e-05
2.68241e-05
-0.000257965
0.000210617
-0.000207677
2.58161e-05
-0.000262865
0.000279783
0.000121744
-0.000256173
0.000134429
1.91264e-05
3.84838e-05
0.000162751
-0.000195333
-0.000239485
-2.85377e-05
3.94829e-05
0.000158105
-0.000204841
-0.000246691
0.000271066
-2.43747e-05
0.000209866
-0.000248826
1.98857e-05
1.73187e-05
-0.000174803
-3.09263e-05
0.000226704
-0.000257413
-2.88401e-05
0.000244245
-0.000215405
-2.16161e-05
0.000242985
-0.000221369
0.000201657
-0.000250786
-0.000273497
-0.000232905
-2.55081e-05
0.000258413
0.000241234
2.98318e-05
-0.000211692
-2.38435e-05
0.000234143
-2.18821e-05
-0.000224967
-0.000239345
6.28042e-05
0.000259004
-0.000229718
4.75106e-05
-0.000249901
-3.43393e-05
0.000257694
-0.000223354
0.000205675
-0.000240014
0.000261689
-1.1956e-05
-6.06764e-05
-0.000229572
-0.000224433
-1.73903e-05
0.000243356
0.000247109
5.3175e-05
0.000212448
-0.000265623
-0.000261102
0.000177353
-0.000231757
5.44042e-05
6.40495e-05
0.000136566
0.000259457
-0.000240915
-2.47224e-05
-0.000265385
0.000227165
3.82201e-05
-2.87813e-05
-0.000222158
0.00025094
-0.0002848
0.000264161
0.000234501
3.61761e-05
2.18821e-05
0.000234087
-0.000307217
0.000151089
0.000156129
0.000164477
-5.13136e-05
0.000254045
-0.000115192
2.56901e-05
0.000217446
-0.000243136
-0.000286162
0.000286662
9.18394e-06
0.000257377
-0.000245953
0.000208937
3.70161e-05
0.000254832
0.000247467
-1.9551e-05
-0.000246815
-2.02161e-05
-0.000263019
2.0724e-05
-0.000269215
2.24001e-05
2.79601e-05
0.000220024
-0.000247984
0.000242481
-0.000274597
1.32721e-05
0.000246146
-1.39399e-05
1.25979e-05
-0.000249986
-0.0003284
0.000123973
-0.000233135
-2.62109e-05
-0.000252113
0.000252113
0.000259782
-0.000144217
-1.86023e-05
-0.000278081
0.000296775
0.000276827
0.000258749
-0.000135913
0.000224113
2.39205e-05
0.00023468
7.82951e-05
-0.000341581
3.78108e-05
0.000258962
1.76363e-05
-0.000248843
-3.00917e-05
0.000207453
-3.01001e-05
0.000259701
2.95429e-05
0.000218353
-0.000247896
-3.05014e-05
-4.09782e-05
-0.000217818
0.000258797
-0.000233423
-2.14173e-05
3.67263e-05
-0.000192285
0.000154811
-3.30877e-05
0.000221671
-0.000255943
-0.000281474
-8.3583e-06
0.00029003
-0.000191634
0.000161255
0.000166349
8.16763e-05
1.27843e-05
-0.000294361
0.000235075
2.59446e-05
-0.000261019
-0.000196711
-1.41532e-06
0.000232743
-0.000264287
3.15449e-05
-8.42803e-06
-0.000217029
0.000225457
-0.000157176
0.000192484
-0.000249985
-3.46025e-05
0.000256274
0.000218076
-0.000252679
-0.000246289
0.000272245
-2.59561e-05
0.000253547
2.78321e-05
-0.000232062
-2.95821e-05
-0.000298334
0.000316518
-1.82251e-05
2.34133e-05
0.000212462
-0.000250254
-0.000267233
2.09441e-05
-2.12801e-05
-0.000245953
-3.61481e-05
0.00024861
-0.000289861
-1.35542e-05
0.00022082
-0.000256968
0.000247832
-0.000250685
1.80314e-06
2.80002e-06
0.000181413
-0.000184213
0.000255294
0.000234529
2.67681e-05
-2.62361e-05
0.000245001
-0.000218765
3.36001e-05
0.000216609
-0.000250209
0.000244861
2.73841e-05
0.000306545
-0.000143949
-0.000162597
1.5483e-05
0.000237984
-0.000253786
0.000271013
-0.000113568
0.000225569
-0.000256677
-0.000241628
0.000104296
-0.000265469
7.16803e-06
-0.000241635
-2.75801e-05
-0.000241361
-2.48081e-05
0.000309504
-2.73136e-05
-7.67483e-05
0.000243097
-1.1452e-05
-0.000215601
0.000224281
-8.68003e-06
0.000255193
-7.68883e-05
3.46792e-05
-0.000195797
0.000165697
-0.000265245
-1.40001e-07
-4.14962e-05
3.91874e-05
0.000153771
-0.000193317
0.000199804
-0.000160849
0.000257041
-7.05603e-06
0.000251151
-0.000218277
-1.82181e-05
-2.1128e-05
0.000277654
-9.37491e-05
-0.000181553
-1.42801e-05
-0.000191913
0.000206193
0.000258665
-1.53553e-05
-0.00024331
1.98101e-05
0.000238855
-0.00027997
-8.1841e-06
3.81439e-05
-0.000202225
0.000162086
1.36921e-05
0.000247997
-0.000166612
0.000203113
-1.95189e-05
0.000248711
3.28778e-05
0.000188878
-0.000221374
-4.17202e-06
-2.49389e-05
0.000265108
-0.000231955
-3.14693e-05
0.000296889
-0.000281832
-1.52429e-05
1.63717e-05
-0.000237659
0.000221288
-0.00010514
0.000226885
1.92964e-05
-0.000305153
0.000285843
2.52001e-05
-2.79441e-05
2.69165e-05
0.00030885
-0.000289615
0.000238891
1.97345e-05
2.15601e-06
0.000231617
-0.000233773
-0.000310603
2.57147e-05
0.000284886
-0.000162177
-0.000144145
0.000209178
-0.000250156
-0.000164132
0.000241924
1.90317e-05
0.00025497
-4.13534e-05
0.000250531
0.000214498
-0.000255851
0.000319057
-0.00031922
-1.05518e-05
0.000286749
-0.000275787
-0.000302838
1.96582e-05
0.000283422
4.20842e-05
-0.000286413
-3.8943e-05
0.000252483
2.62921e-05
-2.20357e-05
0.000307202
-0.000285181
2.43321e-05
3.98967e-05
0.000166397
-0.000201631
0.000249294
-0.000219751
2.83277e-05
-0.000261633
4.36802e-06
-1.99992e-05
0.000306714
-0.000286637
-0.000250987
-0.000266673
3.07441e-05
0.000252141
-0.000236741
-1.54001e-05
1.2264e-05
0.000239877
-0.000275773
-1.29407e-05
0.000255697
-7.26128e-06
0.000315669
-1.19746e-05
0.000298752
-0.00028639
-4.81701e-05
0.000247437
-0.000235621
0.000257601
-1.99361e-05
0.000131505
8.59529e-05
-0.000216973
0.000223539
3.03493e-05
0.000226759
-0.000258662
3.71393e-05
0.000271004
-0.000288807
1.71376e-05
0.000251273
-0.000239093
-1.31321e-05
0.000252225
-2.91201e-05
-0.000257265
2.56481e-05
0.000231617
-0.000228005
-2.92601e-05
0.000259765
-0.000233571
-2.61941e-05
0.000258721
-0.000267264
2.52288e-06
0.000290188
1.21807e-06
-0.000291357
0.000246938
-0.000231569
-1.85921e-05
0.000308824
-0.000300863
-7.97541e-06
0.000242884
-0.000100114
-0.000266897
2.56761e-05
0.000241221
-3.48881e-05
-0.000232009
-0.000266393
2.51161e-05
0.000241277
-1.20367e-05
-0.000267847
0.000279947
-3.45241e-05
-0.000231869
-0.000261648
1.92381e-05
-0.000266281
2.43881e-05
0.000241893
-0.00028394
-2.18031e-05
-0.000306241
2.76674e-05
0.000278696
-3.34041e-05
-0.000232877
-0.00016751
-0.000258133
2.94001e-05
0.000228733
0.000308602
-0.000308642
-0.000195805
0.000209049
-3.29281e-05
-0.000225205
0.000197504
-0.000279087
8.16772e-05
0.000283731
2.24264e-05
-0.000301953
1.76961e-05
0.000285462
-0.000280736
-4.66482e-06
-0.000257125
0.000231617
2.55081e-05
0.00017057
2.82184e-05
-0.000197261
-0.000266953
2.81681e-05
0.000238785
-0.000227361
-2.97641e-05
-3.67361e-05
-0.000230217
0.000276698
0.00029742
1.90941e-05
-0.000276244
-3.16229e-05
0.000308001
-0.000258679
-1.07279e-05
0.000298201
-0.000287156
1.49686e-05
-0.000301737
0.000286773
-0.000230609
-0.000307392
0.00028747
0.000263005
-2.55383e-05
-0.000280612
1.36081e-05
0.00016919
0.000232867
1.88044e-05
-0.000251999
-0.000194507
0.000158248
0.000236738
1.31517e-05
-0.00024989
-0.00025833
2.66093e-05
0.000231721
-1.09228e-05
0.000247661
5.74002e-06
0.000246877
-3.19817e-05
-0.000226348
0.000299357
-0.000285704
-1.38735e-05
0.000228024
-0.000226666
0.000289571
0.000237685
1.98521e-05
-0.000257537
-1.24236e-05
0.000250108
0.000246636
1.50389e-05
-0.000305495
1.53815e-05
0.00024448
2.18905e-05
3.38502e-05
-0.000208359
-0.00028742
-1.77299e-05
-0.000182869
0.000295177
-0.000147511
0.000185111
-3.27027e-05
3.1059e-05
-0.000203959
0.000173233
-0.000170151
0.000259149
-0.000239236
-1.99137e-05
0.000260543
-0.000272342
-0.000240946
0.000231346
-2.18813e-05
0.000301139
-0.000279269
0.000307875
-0.000292867
0.000242117
1.77241e-05
-0.000224975
0.00024443
-1.94545e-05
1.61001e-05
-0.000241075
-7.00003e-06
0.000260989
-0.000297147
4.82785e-06
0.000292317
-0.000174497
0.000160217
-1.74105e-05
-6.22741e-06
-0.000290928
-1.67789e-05
-0.000284962
4.28402e-06
-0.000300212
0.000135087
-0.000257451
2.37073e-05
0.000233669
0.000238197
1.32441e-05
-3.08084e-05
-0.000226632
-3.30748e-05
-0.000291491
2.10634e-05
-0.000227153
0.00020762
0.000254969
-0.000233465
-2.15041e-05
-0.000195435
0.000218025
-0.000185958
-7.60548e-06
0.000203418
0.000139248
0.000139246
3.94714e-06
0.000271016
0.000279881
-0.000305343
3.13915e-06
0.000244019
-1.98376e-05
0.000298725
-0.000278925
-0.00030211
0.000287343
1.47554e-05
-0.000258301
0.000230077
2.82241e-05
-2.64041e-05
-0.000231897
0.000301576
-0.000302092
0.000267786
-2.00006e-05
0.000304593
-0.000284611
0.000286281
-5.6142e-07
-0.000256873
0.000256873
-0.000268153
0.000295924
-0.000147244
-6.78366e-05
-7.30768e-06
0.000294431
-0.000287029
-0.000298127
0.000290969
0.00029152
-0.000279227
0.000290696
-0.000305927
1.47741e-05
3.40516e-05
-0.000239031
0.000214755
2.29524e-05
-1.45877e-05
-0.000247559
0.000231351
-1.4348e-05
0.000298617
-0.000284285
0.000263481
-1.96001e-05
0.000254224
-0.000235464
-1.87601e-05
-3.09993e-05
-0.000273688
0.000304746
1.43244e-05
-0.000296935
0.000282643
-1.45881e-05
0.000233465
-0.000218877
0.000208363
-0.000295845
0.000283651
-1.92996e-05
0.000304537
-0.000285437
0.00025102
-2.68972e-05
0.00029732
-0.000270375
-0.000295775
0.000268863
1.07156e-05
0.000244749
-0.000255465
0.000305242
-0.000312025
6.74896e-06
1.82867e-05
1.48995e-05
0.000286203
-0.000301174
6.35214e-06
0.00028364
2.26753e-06
-0.000318688
-0.00029016
0.000304845
-0.000242481
0.000243657
8.45603e-06
-0.0002264
0.000242772
-0.000293639
0.000274245
0.000284906
-0.000142178
-8.00249e-05
0.000294316
1.44976e-05
3.19429e-05
-0.000192723
0.000160995
-0.000274648
0.000257293
-0.000219535
0.00024982
0.000243411
1.92865e-05
-0.000262697
0.000236019
2.31309e-05
-0.000300501
0.000282388
0.00031227
-1.7959e-05
0.000237945
-0.000257069
1.91241e-05
-0.000222494
0.000247459
0.00029425
1.80572e-05
-0.000163353
-1.463e-05
0.000298143
-0.000283555
-0.000143283
-0.000266415
0.000159993
0.000106423
-0.00030908
0.000295364
1.36616e-05
-0.000258699
0.000241826
1.68729e-05
-0.000154867
0.000155806
-0.00030649
0.000288623
1.78485e-05
-0.000221552
0.00018183
-9.69084e-06
0.000253101
2.04728e-05
1.75548e-05
-0.000304316
0.000286763
-0.000300919
-7.16932e-06
0.000307969
-0.000249229
0.000220109
-0.000201153
-8.52603e-05
-0.000272137
0.000253294
0.000303908
-0.000286359
-0.000189997
1.81223e-05
1.50553e-05
0.000284474
-0.000299559
-8.80603e-05
0.000239233
-0.000303321
1.94466e-05
0.000283807
-0.00020586
-2.81083e-06
-0.000298116
-0.000166758
2.05297e-05
0.000302733
-0.000287967
-1.44558e-05
-0.000174753
-0.000299079
-0.000173436
-2.21536e-05
0.000243528
0.000289582
1.71726e-05
0.000252869
5.76124e-05
-0.000284911
-0.000247213
-0.000269854
-2.34314e-05
-0.000274646
0.0003004
-0.000262717
0.000282334
-0.000166185
-4.11909e-05
0.000203773
0.000197569
1.56521e-05
-0.000213221
-1.25242e-05
-0.000285743
0.000298314
1.83597e-05
1.86418e-05
-0.000305354
0.000286788
0.000253345
-1.71361e-05
-0.000236209
1.89385e-05
-0.000304838
0.000285871
2.03561e-05
0.000232989
0.000216385
-2.46121e-05
-0.000191773
1.57196e-05
0.000282644
-0.000298296
-0.00025117
0.000118734
-0.00030391
1.86606e-05
0.000285254
0.000222801
-5.14347e-05
-0.000295564
1.15875e-05
0.000286813
0.000255837
-2.19801e-05
-0.000233857
-0.000301992
0.000105788
0.000234529
1.70521e-05
-0.000251581
0.000280224
1.67674e-05
0.00030409
-0.000285207
1.78305e-05
-0.000299723
0.000233512
1.84916e-05
-0.000252004
-1.88632e-05
-1.42909e-05
0.000298407
-0.000284093
-0.000280521
0.000300278
-0.000277994
0.000292345
-0.000304337
1.16067e-05
0.000249741
-1.62291e-05
1.1727e-05
0.000250041
-1.55121e-05
0.000298535
-0.000282568
3.95922e-05
-0.000238387