/*--------------------------------*- C++ -*----------------------------------*\
  =========                 |
  \\      /  F ield         | OpenFOAM: The Open Source CFD Toolbox
   \\    /   O peration     | Website:  https://openfoam.org
    \\  /    A nd           | Version:  12
     \\/     M anipulation  |
\*---------------------------------------------------------------------------*/
FoamFile
{
    format      ascii;
    class       volScalarField;
    location    "0.6";
    object      T;
}
// * * * * * * * * * * * * * * * * * * * * * * * * * * * * * * * * * * * * * //

dimensions      [0 0 0 1 0 0 0];

internalField   nonuniform List<scalar> 
22702
(
1
1
0.952865
1
1.01091
1
1.12046
1
1
0.864385
1.1207
1.12056
1
1.02379
0.95716
1
1
1
1.12051
1
1.08189
1
1.11465
0.876341
0.999994
0.864021
1
1.11409
0.871898
0.875618
1
1.12043
1
1
1
1.08669
1
1.11472
1
1
0.864174
1
1.05698
1
1.11409
1
1
1
1
0.879364
1
0.876336
1
1.12061
1
1.12057
1
1
1
1
0.863121
1
1
0.871654
1
0.873396
1
1
1
0.863588
1
1.11315
1.06982
1
1.11234
1.11753
0.874013
1.11966
0.881824
1
1.12073
0.882933
1.11955
1.11943
1
1
1
1
0.97236
0.863698
1.11727
1
1
0.86372
1
1.08259
0.863528
1
1
1
1
1.05693
1.12062
0.863953
1
1
1.02554
1
0.882613
1
1.11979
1.12044
1
1
0.861875
0.86574
0.863705
1
1
1
1
1
0.967585
1
1.08673
1.00506
1.11788
1
1.11743
1.12062
1.04131
1.12089
1
0.863545
1
0.863934
1
1
1
1
1.12058
1
1
1
1
1.11114
1
1.00696
1
1
1
1
0.879157
1
1.00294
1
0.882931
1
1
1
1.11676
1
1.11473
0.859714
0.863261
1.11246
1.11303
1
1.01585
1.06559
1
1.12058
0.881668
1.08668
1
1
1
1
1.01545
1.09936
1
1.12048
0.872907
1.12047
1
0.8762
1
0.877542
0.86335
1
1
1
1.12027
1
1
1.10961
1
1.11968
1.12049
0.890288
1
1
0.879959
1.11156
1
1
1
1.11159
1
0.866863
1
1
1.11704
1.11636
1.11959
1
1
1
1
1
1.08028
1
0.872761
1.11652
1.11017
1.00008
1
1
1
0.880289
1.11857
1.05926
1
1.08446
0.870833
0.8695
1.08467
1.119
1
1.11837
0.857191
1.08691
1
1
1
1
1.10979
1
1.0744
1.0123
1
1
1.10616
0.863449
0.9202
1
1.1189
0.865589
1.11831
1
1
1
1
1
1
1
0.878501
0.919425
0.867612
1.11853
1
1
1
1
1.10133
1
0.879683
1
0.877592
0.881759
1.11839
0.873938
1.08148
1
1
1
0.999351
0.875316
0.857204
1
1
0.87513
1
1.12041
0.863882
1
1
1.12081
0.860949
1
1.11797
0.863241
1.10583
1
0.881676
0.999353
1
1
1
0.876279
1
1
1
1
0.997103
1.07023
1
0.877828
1
1
1
1
1
1
1
1.12086
1
1.12115
1
1
1
0.866594
1
1.11108
0.873923
1
1
1
1
1.12092
1
1
1
1.11427
1
1
1.11867
1.1209
1
1.02049
1
1
0.863861
1
1
1
0.863881
1
1
1
1
0.871131
1
1
1
1
1
0.861095
1.00002
1.11389
1
0.999994
1.11305
1.11253
1
1
0.892465
0.935208
1.12059
1
1
1
1.1054
0.863409
1
1.11481
1
1
0.897383
0.895931
1
0.876126
0.866645
1
1
1
1
1
1
1
1.11887
1.02596
1.11529
0.8627
0.965622
1.12087
1
1.1118
1.12051
0.865698
0.92282
1
0.86561
1
1.12492
1
1
1
1
1.11085
1
1
1
1
1
1
1
1.03998
1.11593
1
1.11819
1
1
0.884171
1
1
1
1
1.11226
1.08307
1
1
0.876932
1.11011
1.11545
1
1.11623
1.10959
1.11717
1
0.94062
1
1.1043
0.989207
1.11767
1
0.865784
0.999683
1.12073
1
1
1
1
0.880491
1.11866
1.08679
1
0.999988
1.10508
1.12045
1
1.06066
1.00029
1
1
1.07674
1.0151
1.11723
0.972512
1.11663
1
1.11676
1.11836
1.1161
1.11003
1
1.11631
0.966876
0.957405
1
1
1
1
1.11833
1
1
1
1
1
1.1206
1
1
0.998877
1.11455
1.10391
1
1.09997
1.00001
1
1
1.11055
1
0.999187
1.00135
1
1.1183
1
1.11838
1
1
1.08142
1
1.11831
1.00001
1
1.11849
1
1.11297
1
1
1
1.10969
1
1.11843
1
1.11035
1.12079
1.1071
1.11909
1
1.12088
1.11807
1
0.876504
1.0922
1.08043
1
1.11016
1
0.863527
0.863071
1
1
1
1
1
0.863396
1
1.11838
1.02566
1.11058
1
1
1
1
1
1.11843
1
1.11783
1.06636
0.923512
1
1
1.03788
1.03253
1
1
1.04024
1
0.88564
1.1182
1.11837
1
1
1
1.12072
1
1.00001
1
1.11857
0.978142
1
1
0.878639
1.09178
1
1
1
1
1
1.11374
1.12086
1
1.11848
1.11868
1.10664
1
1
1
1
0.86359
1.12061
1
1
1.09076
1.09251
1
1.09104
1.11684
1
1
1
1
1
1.11823
1
1
1
1
1.1177
1
1.11759
0.865278
1
0.865109
1
1
1
0.999133
0.877004
0.99973
1
1
1
1.01748
1
1
0.952818
1
1
1
1
1
1
1
0.999999
0.97286
1
1
0.999299
1
0.879873
1
1
1
1
1.08172
1
1
1
1
0.87439
1
1
1.09231
1.12056
1
1
1
0.957749
1
1
1
1
1
1
0.978648
0.99704
1.08062
1
1
1
1.11902
0.961953
1
1
1
1.11469
1.11272
1
1
1
1
1
1
1
1
1
0.866821
1
1
1.11973
0.866124
1
1.1196
1
0.879904
1
1
0.8667
1
1
1
1
1
1
1
1.09217
1.09233
1
1
1
1
1.09074
1
1.03329
0.875334
1
1
1
1
1
1
1
1.00349
1
1
1.06583
1
1
1
1.08599
1
1
1
1
0.865457
1
1
0.86236
0.865607
1
1
1.10462
1
1.00296
1
1
1
1.07711
0.868259
1
0.864466
1
0.924329
1
1
1
1.11891
1
1
1.10202
1
1
1
1.10207
1
1
1.10348
1
1
0.865856
1
1.03312
1
1
1.12086
1.12085
1.07388
1.08998
1
0.865714
1
1
1.09295
1
0.866097
1
1
1
1.10051
1
1
1
1
1.06679
1
1
1.11848
0.863762
1
1
0.863368
0.863909
1
1
1
1.07842
1.08279
1
1
1
1
1
1
1
1.04652
1.12002
0.996077
1
1.08634
0.863236
1
1
1
1.06119
1
1.02192
1
1.09182
1.09097
1
0.866067
1
1.12076
1
1
1.11178
1.09095
1
1.1217
1
0.869309
1
1
1
1.11934
1.09199
1.09074
1
1.11912
1.10287
1
1.10052
1
1.0912
1
0.865576
0.985129
0.864751
1
1
1
1
1
1.10649
1
1.1061
1
1
1
1.09143
1
0.874898
1.10231
1
0.873758
0.880083
0.872355
1
1.05439
1.00402
1.09004
1.10296
1
1
1
1
1.10836
1
1
1.10877
1.10322
1
1.03859
1.00001
1
0.999198
1.11762
0.946663
1
0.939013
0.886238
0.884809
0.983088
1.11383
1.09129
1.01874
1.08993
1.10411
1
1
1.11939
1.12019
1.09353
1.12095
1
1.09071
0.873186
1.11913
1.11862
1.11984
1.11935
0.952364
0.961168
0.97207
1.10393
0.980219
1.11855
1
1
1.09033
1.11866
1
0.865667
1.11869
1.10405
1
1.10802
1.10794
1
1.10776
0.873708
1.11908
1.11976
1.12083
1.1192
1
1
1
1.10399
1.07196
0.880737
1.10173
0.862533
1.10436
1
1
1
1
1.11879
1.10146
1
1
1.10112
0.863421
1.11883
0.88097
1
1.09179
1
0.865134
1.09994
0.907581
1
1.10266
1.09983
1.10629
1
1
1
1.09964
0.878185
1.09932
1
1.0876
0.954973
1.10712
0.866847
1
1.11822
0.888127
1.09061
0.878921
1
1.10015
1
1.11586
1
1.06666
1.09234
1.08494
0.86118
1
1.11864
1
1.08806
1
1.09818
1
1
1.11871
0.988236
1.09933
0.868078
0.999844
1
1.07934
1
1.11876
1.0982
1.11868
1
1.09014
1.11868
1.09024
1.06808
1.11716
1
1.07335
1
1.11884
1
1.01145
1
1.09258
1
1.088
1.09286
1.09157
1
1.00186
0.863073
1
0.865435
1
1
1
1.1205
1
1.09739
1
1
1
1.10095
1.00873
1.00251
1.11904
1.11907
0.865281
1.11858
1.12056
1
1.00036
1.09809
1.00457
1
1.12072
1.1208
1
1.10903
1.11871
1.11865
1.10011
1
1
1
1.08876
0.86847
1
1.09662
1
1
0.863186
1
1
1.09672
1.11842
1
1.09856
1.01371
1.11157
0.985157
1.11013
1
1.11073
1.09578
1.00471
1
1
1
1.11904
1.1186
1.09461
0.976087
1
1.11106
1.11862
1.10747
1
1.11861
1.11884
1.09584
1.11071
1
1.09453
1.10689
1.09738
1.11827
1.11031
1
1.11955
1.09267
1.09487
1.11907
1.11835
0.864302
1.11149
1.11834
1
1.09171
1.09506
1.09224
1.09375
1
1.09421
1.09278
1
1.10354
1.08892
1
1
1
1.11851
1.11901
1
1
1.06057
1
1.07989
1
1
1.10445
1.08431
1.11849
1.10371
1
1
1
1.08044
1
1.09059
1
1
1.11865
1.11984
1
1.09717
0.861873
1.10723
1.119
0.901031
1
0.860998
1.09771
1.11934
1.09037
1.09093
0.864313
1.1187
1.10305
0.86435
0.861671
1
1.08619
1.11863
1
1
1.09372
1
1.11865
1
1.09069
1
1.05341
1.11862
1.10001
1.0808
1.04147
1.12054
1.10736
1.03723
1
0.863104
1.08334
1.11855
1.1084
1
1
1
1.11937
1
1.11851
1.1067
0.916563
1
1.09316
0.999982
1
1
1
1.11855
1.10837
1
1
1
1.08831
1.09944
1.08873
1.11875
1.11886
0.877715
1.00062
1
1.09191
1.11848
1.11859
1.11768
1
1.09874
1.09157
1.09894
1
1.11871
1.11881
0.950804
1.09931
1.11881
1
1.09159
0.943294
1.1187
0.950216
1.09906
1
1.0897
1.12205
1.09798
1.09842
1.08977
1.11279
1.0987
1.11959
1
0.971756
1.11868
1.11359
0.943896
1.09797
0.987678
1.0796
1.11862
1.1123
1.11901
1
1.09956
1.07924
1.11875
0.969848
1.09898
1.12197
1
0.95295
1
1.03785
1
1.07689
1
1.01391
0.952869
1
1.0907
1.11856
1
1.11869
1.0903
1.11927
1.1032
1.10444
1
1.12072
1
1
1
0.9623
1.11122
1.11836
1.1185
1.09749
1.11866
1.11871
1.01951
1.09779
0.962984
1.00362
1
1
1.12303
1.09737
1.0999
1.10212
1.00001
1.06398
1
1.10893
1.10454
1
1
0.910148
1.09546
1
1
0.873983
1.1017
1
1.12042
1.09289
1.12063
1.09102
1.08947
1
0.861427
1.03156
1.11867
1.08977
1
1.08746
1.09639
1.04348
1.00258
1.01035
1
1.11581
1.11844
1
1
0.864634
1
1
1.0979
1.09695
1.11903
1.08882
1.10179
1.12077
1.08998
1.08656
1.11821
1
0.999496
1.11881
1.08846
0.999464
1.09652
1.09595
0.864167
0.863713
1.08742
1.10767
1
1
1.0004
1.09325
1.11893
1.10206
1
1.09678
1
0.94987
1.1086
1.10859
1
1.04819
1.10951
1
1.12
1
1.09429
0.999841
1.11837
1
1.11837
1.11925
0.864385
1.09394
1
1.11862
1.11973
1
0.8655
1.10309
1.0018
0.999995
1.01418
1.09535
1
0.993401
1.11919
0.999983
1.0926
1
1
1.11898
1
1.11911
1.09612
0.998998
1.09506
1
1.09577
1
1
1
1
1.10252
1
1
1.10074
1
1.09121
1
1.07244
1.10447
1.11837
1
1
0.993328
1
1.11868
1.09441
1.11862
1.09212
1.11871
1.09168
1.09172
1
1.09406
1.08682
1
1.09197
1.09375
1
1.11874
0.970905
0.999939
1.0946
1.09283
1.10468
1
1.09243
1
1.10442
1.09227
1
1.08747
1
1
1
1
1.09416
0.86529
0.999391
1
1.10225
1.06296
1
1.10031
1
1.00151
0.868735
1.08987
0.999884
1
1.09126
0.999516
1.09081
1
0.999975
1
1.0912
1.11988
1.09165
1.11914
0.874956
1.11879
1.10735
1.11872
1.03123
1
1
1.04688
1.10216
0.86289
0.87369
1
1.11875
1.10309
1.09033
1
1
1.10806
1.09092
0.999965
1
1.01634
0.860959
1
1.00039
1.12066
1.06936
0.999963
1.10338
1.11133
1
0.999765
1
1.11825
1.11739
1.00203
1
1.11225
1
0.99967
1.11855
0.863718
1.10707
1.10117
0.999892
1
1.10467
1
1
1
1.10772
1
1
0.860991
1.10237
1
1
1
1
1.11869
1.0641
1
1
0.86595
1.08921
1.06437
1
1
1
1.08849
1.11764
1.11981
1
1
1.11802
1
1.10513
1.11861
1
1
1.08981
1.1052
1.10519
1
1
1.0897
1.10622
1
1
1
1.10591
1
1
1
1.11856
1.11911
1.10192
1
1.1184
1
0.895066
1.1071
1.10626
1
1.12059
1.00854
1.12064
1
1
1.10603
1
1.04174
1.10835
1
0.865335
1
1.0891
1
1
1.10362
1
1
1
0.999877
1.10771
0.888355
1
1.0884
1
1
1.11878
1
1.10575
1
1
1.09944
1.10698
1
1.00001
1
1
1
1
1
1
1.10401
1.10197
1
1.12036
0.870823
1.10473
1
1.11868
1.11985
1.09938
1.11936
1.12104
1
1
1.10463
1
1.0729
1.10528
1.10368
1
1.10455
1.11814
1
1.10705
1
1.11866
1.0731
1.10524
0.9997
1.00458
1.10245
1.10463
1.09981
1.0032
1.10211
1.10242
1
1.09991
1
1.11861
1
1
1
1
0.999363
1.10294
1.11854
1.10239
1
1.10826
1
1
1
0.857835
1
1.10236
1
1.08861
1.11538
1
1
1
1.09284
1.1185
1
1
1.11889
0.870192
1.01461
1
1.10559
1.11445
1.08865
1.10239
1.11293
1
1.11867
1
1
1
1
1.11835
1.10289
1
1.11639
1.00938
1.11863
1.08865
1
1
1.08869
1
1
0.867494
1.0852
1
1
1.04595
1
1.10257
1.09737
1
1.09722
0.870366
1.11867
1.09821
1.08684
1
0.872293
1
1
1
1.1186
1.07204
1
1.10168
1.1107
1
1.10148
1
1
1
1
1.11128
0.999814
1
1.08964
1
1
1.11842
1.08624
1
1.10901
1.01142
1.00001
1
1.09814
1
1.09772
1
1.00075
1.10938
1
1.09828
1
1
1.03316
1.11858
1
1
1
1
1
1
0.867031
0.862976
1.00591
1
0.9994
1
0.99939
1
1.10998
1
1.0754
1
1.10024
1
1
1
1.10062
1
1.07423
1.11836
1
1.05882
1.10214
1
1
1.12025
1.09851
1
1
1.00809
0.863081
1
1.10339
1
1
1
1
1.02184
1.11852
1
1
1
0.866465
1
1.09991
1.11844
1.12077
1
1
1
1
1.03986
1.11972
1
1
1
1.11941
1.08351
1.00835
1
1
1
1.10999
1.08368
1
0.865468
1.11846
1.08762
1.11829
1.11888
1.11842
1
1
1.1195
1.11902
1.10109
0.870002
1.01158
1.10953
1
1
1
1
1
1.11074
0.871639
1
1
1.10076
1.04961
1
1.1193
1
1
1
0.869256
1
1
1.01585
1.11845
1.08659
1
1.11757
1.11807
1
1.01492
1
1.11835
1
1.11164
0.870521
1
1
1
1
1.10103
1
1
1
1
1.11581
1
1
1
1
1.10624
0.867763
1.09549
1.10316
1
1.08561
1
1
1
1
1
1.11944
1
0.934357
1
1
1.00001
1.0865
0.868327
1
1.09966
1
1.0862
1.08122
0.866584
1
1
1.09782
1
1
0.870985
1
1.11834
1
1.08865
0.999919
1.08415
1
1
1
1
1.12028
1
1
1.08267
1
1
1
1
1
1
1
1
1.07259
1
1.04158
1.10737
1
1
1
0.86701
1
1
1
1
1.09128
1.10174
1.00948
1
1
1.0885
1
1
1.11862
1
1
1
1
1
1
1.11834
0.926019
1.0852
1.08935
0.999194
1
1
1
1.06635
1
1
1.11858
1.10179
1
1
1
1
0.865799
1
1
1
1.07859
1
1.09896
1.10216
1
1.09151
1
1
1
1.06086
1
1.12063
1
1.08362
1
1
0.998913
1.08388
1
1
1
1
1
1.11741
1
1
0.869501
1.11744
0.868964
1
1.11873
1
0.998845
1
1.10185
1.11812
1
1.11903
0.958131
1.08513
1.1174
1.00001
1
1
0.870629
1
1
1
1.08854
1.06467
1.03536
1
1
1
1
0.999088
1.0971
1
0.870846
1
1
1
1
1
1
1
1.10994
1.09737
1.11922
1
1
0.999117
1
0.987762
1
1
1
0.865415
0.986701
1
0.874024
0.867883
1
1.0869
1.10016
1
1.10354
1.1022
0.870669
1.08314
1
1
1
0.870574
1.11862
1
0.869222
1
1.11891
1.0151
1
1
1
1
1.08224
1.11989
1
1
1.08638
1
1
1.12015
1.08796
1
1.1109
1.08668
1.1201
0.98076
1.11886
1.00259
0.870366
1.08373
1.08588
1
1
1
0.865522
1
0.86718
1.10997
0.980327
1.08302
0.978292
1
1.08431
1.05077
1
1
1.11857
1
1.04574
1.09517
1
1
1.1117
1.02256
0.868195
1.00001
0.99997
1
0.999767
1
1.11911
0.976608
1.11294
1.04109
1
1
1
1
1.00078
1
1
1.09669
0.999898
1.11862
1.09921
1.02322
0.877244
1
1
1
1
1.11862
1.00001
1.09862
1
1.11885
1.11828
1.01667
1.1199
1.03322
1.11874
1
1.07674
0.88746
1.00124
1.11798
1.09453
1.01513
1.11957
1.08503
1.09833
1.11885
1
0.96934
1.01855
1
1.11796
1.0598
1.11861
1.00001
1
1
0.887718
0.999912
1.11941
1.08848
1
1.04112
1
1.00433
1.00823
1
1.09768
1.11914
1
1
1
1.09756
1
1.04988
1.04034
1.07675
1
1.10224
1
1
1
1
1
1
1
1
1
1
0.884095
1
1.11144
0.864193
1.0662
0.999593
1.00109
1
1.05855
1
1.07259
1.10501
1
1.00055
1.11954
0.968133
1
1.01157
1.11529
0.976521
1
1.11821
1.11859
1.10221
1
1.10336
1.1186
1.09585
1
1.05015
1
1.00002
1.11862
1
1.11885
1.01921
1.0985
1
1
1.11847
1.0175
0.886816
1
1.11866
1.0822
1.0881
1
1
1.11987
1.11884
0.999499
1
1.10694
0.999114
1.11099
1.00001
1
1
1
1
1.04986
1
1.09196
1.11843
1.08188
1.09574
1
1.00067
1
1
1.11998
1
1.09627
1
1
1
1
1
1
1.01565
1.05786
1
1
0.865284
1
1.10016
0.886288
1.11901
1
1.06286
0.999928
1.11876
1.07168
0.886872
1.06153
1.00001
1.10253
1.11909
1
1.06853
1.11823
1.09569
0.999546
1.11794
1.08634
0.86961
1
1
0.999225
1
1.1167
1
0.886877
1.09871
1
1
1.10854
1
1.11853
1
1.11857
1
0.887816
1
1
1.11894
1.03287
1.00349
1
1.00375
1.10202
1.11774
1
1
1.11553
1
0.915427
1
1
1
1.11881
1
1.10019
1.0722
1.01488
1
1.0854
0.999825
1
1
1
1
1
1
0.903027
1
1
1.08454
1
1.11911
1.00023
1
0.875395
0.873453
1
1.09437
1.02184
0.871358
0.873189
1
1.09824
1
1.11821
0.865109
1.00045
1
1
0.999859
1
1
1
0.999975
1.04579
1.10216
1
1
1.10216
1.06572
1
1.10746
1.00078
1.11771
1.04591
1.00001
1
1.08191
1
1.11592
1
1.10478
1.09823
0.999066
1.11863
0.999912
1
1
1
1
1
0.969002
1.12004
1.00001
1.00001
0.866111
0.999994
0.865284
0.857186
1
1.11854
1.11873
1.11863
1
1.11853
1
0.875745
1
1
1.09869
0.939082
1.09848
1
1.11884
1
0.987302
1.11867
1
1
1
1.11896
1
1.11646
0.868341
1
1
1.0649
1
1
1.06133
1
1
1.11867
1
1
1
1
1
1.00101
1.09862
1
1.11884
1.09621
0.869941
1.05094
1.00757
1
1
1.09303
0.999727
1
1
1.10119
1.03005
1.08198
1
1.11845
0.878607
0.999867
0.99986
1
1.09814
1.00001
1.00915
1.09965
1.08348
1
1
1.1011
0.898737
0.865973
1
1.11807
1
1.11839
1
1.06699
1
1
1.08827
1.07124
0.870428
1
0.999475
1
1
1.00753
1.04549
1.10071
1
1.11866
1
1
1
1
1
1
1.01912
0.86847
1
1
1.00308
1
1
1
1
1
1.11826
1
1
1.11853
1.09915
1.08608
1
1
1
0.946195
1.11913
1.07717
1
1
1
1
1.11861
1
1
1
1.11909
1
1
1.07927
1.12318
1.00358
0.919162
1.00018
1.07832
1.11868
1
1.05604
1
1
1
0.86076
1.00066
0.869272
1
0.865305
0.864712
1
0.868475
1
1
1
1.0498
1
1.11818
1.11829
1.00043
1.06147
1.00114
0.864696
0.919567
0.957974
1
1.08427
1.11983
1.08404
1.09765
1.08974
0.955168
1
1.08986
1
1.11698
1
1
1
1.00301
1
1
1
1.11903
1
0.864601
1
1.09919
0.871082
1
1
1.09729
1
1.08314
0.999675
1
1
1.08801
1.10924
1
1.11444
1
1
1.00434
1
1.05694
1
1
0.86866
1
1
1.00249
1
1.083
1
1.00001
0.868764
1
1
0.870397
1.00031
1
1.11946
0.865002
1.11901
0.866651
1.11864
1
1
1
1
1
1
1
1
1
1
1
1.09075
1
1.08889
1.12013
0.868439
1
1
1
1
1
1
1.08841
1
1
0.875161
1
1
1.11966
1
1
1.04791
1.0893
0.866653
0.865125
0.894452
0.911604
1
1
0.869179
1.00012
1.11026
0.999113
1
1
1.11859
1
1
1
0.921309
1
1.04483
1
1
1.05042
1.10733
1
0.864718
1
1
1
0.999065
1
1.09557
1.09725
1
0.866318
1
1.06099
0.867414
1
0.95925
1
0.998822
0.864341
1
1
1
0.998866
0.865127
1
0.864958
0.999546
1.05873
1.11096
0.865061
0.869514
1
0.997361
1
0.999612
1
1.08331
1.0853
1
0.997432
1.11856
1.08606
1
1
1.09697
1
1
1
1
1.11865
1
1
1.00529
1
0.999598
0.891996
1
1
1
1
1
1.09511
1.0026
1.00001
1
1
1
1
1
1
1
0.87021
1.02221
0.999604
1.11554
1.11867
1
1.00451
1.11859
1.05359
1
1
0.857569
1.11225
1
1.11978
1
1.11093
1.08457
0.869767
1
0.867498
0.999913
0.999908
1
0.868622
0.858981
1
1
1.08689
1
1
0.866837
1
1
1
1.04135
1
0.868352
1.11836
1
1
1
1
1.08654
1
1
0.999951
1.09287
1
1
1
1.01557
0.873521
1
1.11866
1.09526
1
1.08628
1
1.00001
1
1
1.11156
0.99799
1
0.870412
1.06697
1
1
0.999481
1
1
1.00303
1
1
1.00001
1
1.11901
1
1
1
1
1
1
1
1.04824
1
1.08322
1
1
1.09663
1
1
1
1.08602
1.00015
1.01355
1
0.999329
1
1
1
1
1.12016
1
1
1.11802
0.872735
1
1
1
1
1
1
1.08665
1
1
1.09021
1.11898
1
1
1
1.11874
1.09719
1
0.999923
1.08977
1
1
1
1
0.867912
1.00857
0.998908
0.998888
1
1
0.868654
1.11877
1
0.862363
1
1.09625
1.0946
0.867125
0.999832
1.10141
1.11879
1.10619
1
1
0.971716
0.999896
1.09972
0.861152
1
1
1
1.02831
1.10446
0.866081
0.999233
1
1.11863
0.865431
1
1.00013
0.873289
0.98482
0.999841
1
1.0002
1
1
1
1
1
1
1.00003
1.08749
1
1
1.09438
1
1
1
1.09683
1
0.870299
1
1
1
1.04376
1
1
1
1
1
0.926657
1
0.866718
1
1.10069
1.00001
0.952148
0.954482
1
1.00108
1.05837
1
1
0.867215
1.09922
1.10111
1.09654
1
0.863147
0.871198
1
1.09874
1
1
1
1
1
1.00001
1
0.878215
1.07133
1
1
0.866659
0.989009
1
1
1
1
0.864675
1
0.890009
1
1
1.11824
1
1
0.86867
1
1.11849
1
0.864404
1
0.874098
1
1.00215
1.08286
1.11466
1
1
1.11997
1
1
1.02193
0.999081
1
0.999461
1
1.1051
1
0.868743
1
1.12028
0.999672
1
1
0.928759
1
0.999719
0.865426
1.09814
1.04001
1
1
0.964301
1
1
1
0.927347
1
1
1
1.09027
1
0.870667
1
1
1
1
0.873879
1.11836
1.11183
0.867411
1
1.08278
1
1
1.08622
1.1197
1.08946
0.870852
0.999355
1
1
1.09625
1
1
1
1
1.11842
1
1
1
1.11181
1
1
1.10464
0.866086
1
1
1
0.879226
1
1
1
0.9999
1
1
1
1
0.999947
1
1.1197
1.11879
1.11241
1.11862
1.11886
1.09638
1
1.09718
1
1.11813
1.0823
1
0.999934
0.866277
1.09079
0.999969
1
1
1
1
0.993115
1
1.02005
1
1
1
0.947931
1.105
1.1183
1.08966
1.10242
1
1
0.999999
1.11882
1
1.01054
0.99913
0.86471
1
1.00001
1
1
1
1
1
1.10491
0.869953
1.10435
1.09764
0.998526
0.863555
1
1
1
1.10931
0.862726
1.09181
0.872057
1.11809
1.08791
0.875011
1.06619
1.00721
1
1.10291
0.93362
1
1
0.862025
1
0.865178
1
1.09601
1.08133
0.918625
1
1.11939
0.864922
1
0.873056
1
1.11854
1
1
1.11724
1
0.942709
1
0.999915
0.865507
1.11892
0.999854
1
0.863008
1
1
1
1
1.06938
1
1.09142
1
1
1.12204
1
1
1.1186
1
0.867429
1
0.871386
1
1
1
1
1
1.09453
1.07348
1.10053
1
1.08424
1.09406
0.864876
0.862616
1
1
1.08998
1
0.866066
1
0.988407
1
1
1.11861
1
1.00866
0.864377
1.1226
1
0.864655
1
1
1.0907
1.0868
1
1.00001
1
0.999883
1
1
0.857607
0.999821
0.864705
1
1
1
1.08683
1.1184
1.11961
1
1
0.86018
1
0.999952
1
1
1
0.999922
1.08745
1.11861
0.86262
1.10538
1.10142
0.876667
1.11955
1.00001
0.878882
0.997714
1
1
1.10949
0.862578
1.07142
0.862962
1.10111
0.999274
0.864208
1.10236
1
1
1
1
1.08548
1.11989
0.87363
1
1.00001
0.873555
1.00001
1
0.871415
0.86742
1.07854
1.07868
0.999562
1.11854
1
1.00321
0.938912
0.870253
1.09751
1.12222
1
1.10098
1
1
1.11763
1
1.09351
1.11972
1
1
1
1
1.11172
1.08704
1.06362
1
1
1.07487
1.11911
1.11876
1
1.11235
1
1
1
1
1
0.868344
0.943136
0.864482
1
1
1.11875
1
1
1.10692
0.867897
1
1.11765
1.08718
1.10044
0.861469
1
0.862211
1
1
1.11983
0.999979
1.12015
1.09305
1
0.862215
1
1.00008
1.07885
0.868684
1
1
1
0.93189
1
1
1.12181
1
0.869798
1.09876
1
1
1
1
1
1.08646
1.0292
1
1.11871
1
1.02103
1
0.999261
1
1.11862
1.11534
1.08329
1.10514
0.99998
1.11991
1
1.1111
1.11832
1.08698
1
1
0.865358
1.11964
1
1
1.11935
1.10042
1.01091
1
1.11867
1
1
1
1.11586
1.00118
1.03717
1.02858
1.10703
1.08511
0.891231
1
1
1
1
1.00001
1.04482
1
1
1.10239
0.867414
0.999988
1
1.11845
1
0.999995
0.999997
1.10734
1.12008
0.965345
1
0.862979
1
0.993179
1.10428
1.10164
1.06182
1
1
1
0.868481
1
1
1.10391
1.01394
1
1
1
1
1
1
1
0.999983
1.11963
1
1
1
1
1
1.07697
1
1.05916
1
1
1.10087
1.1071
0.870916
0.999651
1
1
1
0.873392
1.11961
1.0865
1
1
1
1
1
1
1
1
1.1186
1.11824
0.866878
1.01448
0.87838
1
0.872602
1
1.1187
1.02813
1
1
0.89982
1
1.10052
0.933764
0.999096
0.865412
1
1
1.11948
1
0.999217
0.868412
1.11972
1.12035
1
1
1
1
1.08771
1
1
1.08445
1
1.11915
1.00003
1
1
0.863062
1
1
1.1188
0.868443
0.921048
0.87324
1.11853
0.999801
1
0.99996
0.865357
0.865144
0.997674
1
1
1.11994
1
1.00352
1
1
1.12007
0.875483
1
1
1.00004
1.11933
1.00005
1.11579
1
1
1
1
0.903993
1
0.93022
1
1
1.11777
0.864033
1
0.92456
0.936151
1
1
1.11868
1
1
1
1.11558
1.08604
1
1.11783
1.12001
0.925585
1.10068
1.11592
1
1
1.11772
1
1
1
1
1
1.12028
1.10059
1
1
1
1.1187
1.00006
1
0.868942
0.901568
1
1.00001
1.04633
1
1
0.963445
0.868563
1
1
1
1.10707
1.09314
1.09497
1
1
1
1
0.864275
1
1.11528
1
1.08216
0.86468
1.11832
1
1
1
0.861995
1
1.1192
1
1
0.867222
1.03958
1
0.9999
1.12139
0.868561
0.864653
1
1.1195
0.866483
0.868332
1
0.864612
1
1
1
1
0.863025
1
1
1
1
1.1195
1
1.08357
0.862663
1
1
1
0.867687
1.1048
1
1
0.999044
1.06402
1
1.10327
1.1193
1
1
0.903836
0.865074
1
1
0.86723
1.03348
1.05835
1
1
1.11995
0.999254
1
0.999299
1.12026
1
1
1
1
1
1
1.1188
1
1.04478
1.00516
0.891409
1.09469
1
1.08573
1.1185
1
1
1
0.965612
0.86482
1
1.06451
1
1.00007
1
1
1
1
1
1.00167
1.00111
1.08607
1.11027
1
1.09587
1
0.871197
1
0.999589
0.999936
1
0.861676
1
0.870092
1
1.10133
1.1198
0.864683
1.10795
0.861009
0.998891
1.01096
0.86598
1.08715
1
1
0.999545
1
1
1
1.00002
1
0.865133
1
1
1
1
1
1.10712
0.931678
1
1
1
1.0107
1
1
1
1.06954
0.913819
1
1
1
1.00722
1.11994
1
0.863833
1
1.08695
0.964289
0.864527
1
0.872323
1
1
1.09373
0.999494
1.11159
1
1.00254
1
1
1.11859
1
1
1
1
1.00009
1
1.09394
1.08544
1.11949
0.862847
1.09547
0.999158
1.0889
1
1
0.861233
1
1
0.866816
1.11906
1
1
1
1
1
1
0.871031
0.862835
1
1.12004
1
1.05146
1.11101
0.869099
1.10274
1
1
0.881222
1
1
1.09762
1.08356
1.0392
1
1
1.00049
1.11941
0.862606
0.867818
1.11965
1.10253
1.08342
1.04944
1
0.962216
1
1
1
1.11372
1.11973
1.11889
1
1
1.11849
0.865047
1.10941
0.873501
1
0.871942
1
0.866211
1.11856
0.870032
1
0.986866
0.887584
1
1
1
0.944138
1.03461
1.11378
1.11902
1.11962
1
1
1.12004
1
1
1.11867
1
0.862969
1
0.864124
1
1.12008
1
1
0.999049
1.08369
1
0.999703
0.864439
1.08734
1
0.863869
1.02527
1
1
1.09315
1.11845
1.11863
1
1.08573
1.02835
1
1.00035
1.10178
1
1
1
1
1.11181
1
0.871062
1.11882
0.869159
0.86446
0.942784
1.08493
1.00957
1.07743
1
1.11975
0.999277
1.00001
1.11838
1.11989
1
1.11936
1
1.1161
1
1.11967
1
1.00001
1
1.11888
0.867412
0.871296
0.999391
1
1
1
0.863908
1
1.07336
1
0.868508
1
1.04274
1.10374
1.11862
1
1
1
0.999822
1
1.11969
1.09141
1
1.04598
1.11876
0.945158
1.09092
1.00006
0.862495
1.02783
0.86302
1
1
1.02181
1.12044
1
1
1.00457
1
1
0.862539
1
0.924346
1
1.09657
1
1
0.862434
1.02357
1.01156
0.999916
1.11843
1.10038
0.923714
0.999452
0.863723
0.862404
0.865901
1
1
1
0.999732
0.901618
0.872998
1
1.10146
0.999927
1.09986
1.11223
1.12
1.08397
1
0.866016
1.11863
0.874473
1
1.10338
1.11859
0.999059
0.936631
1.10468
1.0876
1
0.867188
1
1
1.11878
1
1.00795
1.11858
1
0.86489
0.865098
1
1
0.863602
0.861627
1.11381
1.00001
1
0.859836
0.860872
1.11834
1.1151
1.09729
1.11958
1.0283
0.987077
1.04533
1.11962
1.09218
1
1.06446
1
0.859966
0.951304
1
0.865137
1.09392
1.00637
1.09586
1
1.1178
1.11961
1
1.11856
1.09775
0.868705
1.10457
1
1.12317
1
0.915006
0.86839
1.11852
1
1
1
0.868835
1.11861
1.08612
1
0.87251
1
1
0.866178
1
0.869411
1.12006
1
0.9371
0.859596
1
1
1.07122
1
1
1
1.02195
0.869336
1
1
1
1.11861
0.869273
1
1.11856
0.862826
0.863405
1
1
1.11945
1
1.05665
1
1.10935
0.880294
1
1
0.865094
0.93508
0.864303
1
1
1
1
1.11844
0.861461
1
0.868881
1
1.1166
1
1
0.971436
1
1
0.937583
0.999909
1.00001
1
0.86914
0.872292
1
1
1
1
0.929709
1.08685
1.11963
1
0.867772
0.86465
0.965816
0.872787
1
0.938837
1
0.863785
0.9868
1
1
0.874458
1
1.10551
1.115
0.869227
1
1
1
1.11789
1
1.00702
0.942756
1.04142
0.870714
1.05
0.866014
1
1
0.90185
0.964402
1
1.00496
1
1
0.86218
1
0.974811
1.00581
0.869294
1
1.09781
0.915654
0.956659
1
1
1
0.872041
1
0.869124
0.866453
1
0.947108
0.86801
1.01293
0.911127
0.861807
1.11789
1
1.10046
1.06838
0.905837
1.10021
0.865085
0.999715
1.11947
1
1
1.10551
1
0.903617
1
1.01354
1
1
1.10646
1
0.919371
0.93372
1.12058
0.973816
1
0.913599
1.11845
1.11955
0.964265
1
1.11833
1.03475
0.948374
1
0.998796
1
0.874226
1.0547
0.921516
0.90973
1
1
0.874465
1.10294
0.982462
0.872895
0.864889
0.951414
1
0.996501
1.11954
1.11745
1
1
1
0.870609
1.05251
0.999998
1.08085
1.11091
0.863881
1
1.0198
0.956558
1.07196
1.10311
1
1.00593
1
1.00002
0.861168
0.946137
1
1
0.933055
0.864597
1.00464
1
1
0.85894
1.05052
1
1.1187
1
1.00405
1.06729
1
1.1178
1
1
1.11882
1
0.864975
1.11965
0.891676
1.03495
1
0.871231
0.999976
1
1
1
0.92743
1.00771
0.872009
1.09056
1.12008
0.867528
1
1
1
1
1
0.982695
0.861985
1.00875
0.872649
0.866707
1.01531
1
0.999943
1.03348
1
1
0.874755
0.990893
1
1
1.03107
1
1.11973
1
1.11941
1.01937
0.998662
0.869802
1
1
0.863962
1
1
1
1
1.07661
1.01258
1
1
0.869736
1
1
1
1.07311
1
0.864586
1.10114
1
1
1
1.11885
0.865096
0.955417
0.865747
1.08249
1.11846
1
1
1.1048
1
0.861563
1
1
1
1
1
0.920294
1
1.11885
1
1
1.03908
1.1196
0.877619
0.953243
1
1.10099
1
1
1
1
1
1.1185
1.1195
0.859687
1.09262
0.865125
1
1
1.1009
1
1.11988
0.994805
1.00795
1.01205
1.11157
0.999657
1.07526
0.865206
1
0.867942
0.989664
1
1.1186
1
1
0.865703
1.11872
1
1.1194
1
1
1
1
1
1
0.866626
1.11973
0.946822
1.11858
1
0.866566
0.876178
0.902559
1.11963
1.09648
0.983356
1
0.927072
1
1.04286
1
1.11212
0.864485
0.869147
0.949036
1
1.11855
1
1.01567
0.881679
1
1.12025
1.10904
0.999679
1
1.11863
0.868009
1.11911
1.09543
1.11841
0.870012
1.01903
1
1
0.868801
1
0.931624
0.940893
1
1
1.11577
1
1.11615
1.01778
1
1.00492
1.12068
1
0.865042
1
0.920135
1
1
1.08584
1
0.929645
1
0.879325
1.01073
0.977776
0.859685
1.10059
1.09887
1.11971
0.873031
0.894883
0.998822
1
1
0.889194
1.09358
0.86861
0.99999
1
1.09585
1.11918
0.962487
1
0.868339
0.898353
1.0748
0.985379
0.86952
1
0.866217
1.02534
0.874772
1
1.00002
0.93633
1.11971
1.1186
0.944621
0.999884
1
1
0.901743
1
0.87284
1
0.860037
0.869857
1
1
1
0.875924
1.09677
1
1
1.00002
1.00001
0.86554
1.11855
1.10393
1
0.872018
1.12012
1
1.01964
1
1
1.1185
0.869454
1
1
0.862446
0.910292
0.87166
0.86397
1
0.893011
0.999193
1.02029
0.865625
1
1
1.0354
1
1.09424
1
1
1.08849
0.885963
1
0.864351
1.02877
1.11865
1
1
0.874744
0.861824
0.865133
0.904354
0.860536
1.08276
0.999829
1
1
1
1
1.11873
0.862359
1
0.973432
1
0.999662
0.999982
0.916051
1.02877
1
1.10089
1.11864
1
1
1.10532
1.00001
1
1.10513
0.87092
1.11881
1
0.864352
1.11863
1.00002
1
0.936567
1
0.866004
1
1.11931
1
1
1.1016
1
1
1.11923
1
1
1
1.12034
1
0.911908
0.903787
1
0.871065
1.09687
1
1
0.984988
1
1.10864
1.06441
1.0851
1
1
0.876937
1
0.863968
1.08
1.11987
1.11868
1
1.11983
0.869636
1
0.865862
1.08691
1.1093
1.11894
1.11888
0.915504
0.869159
1
1.02567
1.11937
1.11933
1.1003
0.911432
1.04014
1
1.08334
0.912589
1
1
1
1.00001
0.961114
1
1.11907
1
1
1
1
1
1
1.00002
1.10332
1
1.10432
1.0815
0.867242
1.12015
1.0021
1.05563
1
1.09796
1
0.870232
1
1
1
1
1.09088
1
0.867356
1.10497
0.867615
1.11865
1.08669
1.05795
1
1.02464
1.05215
0.998771
0.864602
0.919435
1
1
0.967505
1
0.858088
1.11929
0.859191
0.972089
0.948163
1
1
1
1.00371
1
1
0.864851
0.998988
1.11995
1
1.0955
1
0.874506
1
1
1.09218
1.09445
0.868475
1
1.11917
1
0.933519
0.866899
1.11902
1.0937
1
1.02263
1.11864
0.999948
1
1.04584
1.09233
1.10065
0.998829
1
0.999999
1.09072
1
1
1
1.09648
1
1
1
1.11856
1
1
0.87618
1
1
1
1.11911
1
1
0.947896
1.03341
1.09627
0.922321
1
1.11863
1
1.04448
1
1.11919
0.999756
1.1034
1
0.868512
1
1.08747
1
1
1.09527
1
1.11861
1
1.11878
0.892187
0.875507
1.11924
1
1.10235
1
1.11938
1
1
1.00001
1.11863
1.08959
1.02671
1.1185
1
0.862519
1.11859
0.951903
1
1.07597
1
1.11123
1
1.09431
1.11949
1
0.868663
1
1.10843
1
1.00259
1
1
0.999421
0.910752
1.0936
1
1.10782
1
0.954274
0.874917
1.09492
1.10569
0.889859
1
1.11862
1.11952
1.11886
0.888627
1.10585
0.879494
1.11904
1.11854
1
1
1.11466
1
1
1
1
0.869966
1
1
1.11947
1.10798
1
1.08941
1
1.12014
1.11982
1
1.08986
1
0.868869
1.09758
1.09034
1.02901
0.868431
1.09979
1
1
0.86997
1
1
1.1133
1
1
0.924158
1
1.11858
1.00003
1.07942
0.874313
1.11994
1
1.11868
1.09597
0.962089
1
1.05344
0.918848
1.11828
1.07765
1.1157
1.11866
0.999217
1.11999
1.11854
1.10336
1.11746
0.999955
1
0.861871
1
1.11981
0.941268
1.0964
1
1.09623
1
1
1
1
1
1.09622
0.870562
0.872778
1.11908
1.11849
1
1
1
1
1
1.09457
1.11083
1.10317
0.997729
1
1
1
1
1.0952
1.11202
1
1.11913
1.11946
0.870751
1.07861
1
1.08816
1.10757
1.08563
0.999414
1.09595
1.11853
1
1.11186
1
1
1
1
1
1
1.11859
1.12025
1.09522
1.1047
0.871993
0.895344
1.10146
1.10306
1
0.861233
0.975169
1
1.05314
0.863891
1
0.999846
0.999506
0.868961
1
1.11866
1
1
1
1.11935
0.980641
1
1.11851
1.1166
1
1.1188
1
1
1.09986
1
0.865607
1
1.11907
1
1
0.871402
1
1.10322
1
0.871119
0.860014
1
1.07642
1
0.872256
0.959518
1
1.10483
1
1
1
1.10724
1
0.866904
1.01875
1.11902
1.08553
1.11856
1.00583
1.09553
1.11857
1
1
1
1
1
1.10408
1
0.999801
1.09535
1
0.867723
1
1.10439
1.05198
1.0127
1.05182
1.01151
1.1198
0.895133
1.10413
1
0.872512
1
1.10437
0.976405
1.10433
1.11524
1.11511
1
1.11914
1.10439
1.10381
1
1.00001
1
1
1.11912
1.07856
1
1
0.866919
1
1
1.11865
1
1.10391
1.11862
1.11917
0.96786
1.11862
1.11728
0.994511
1.00039
1.11953
1.11596
1
1.08828
0.941547
1.11795
0.990266
1.11668
1
1.10002
1.11857
1
0.872394
0.976024
0.893668
1
1.01597
1
1.11924
1
1
0.999036
1
1.05526
1.11556
1
1
1.09495
1
1
1.07888
1.07932
1.09594
1.11866
1.11851
1
1.11873
0.907494
1.11886
1
0.991966
0.868234
1
1
0.91174
1
1.03357
1
1.10143
1
1.09617
1.07051
0.868544
1
1
1
1
1
1.11867
1.00333
1
1.11909
1
1.11858
1.09936
1
1
0.983094
1
0.863617
0.864927
0.903411
1.02604
1
0.999984
0.877093
1.00001
1
1.11175
0.973535
1.09412
1.10053
1
1
1
1
1
1.11857
1.10182
1
1.11878
1
1.11996
1.075
0.99888
1
1
1
1.06419
1
0.980725
1
1.0807
1
1
1.09999
1
1
1
1
1
1.0949
0.865946
0.998819
1.09098
1.10352
1
1.09993
1
1
1
1
0.888548
1
1.11858
1.08505
1.11853
1.12009
0.9786
1
1.08876
1.03119
1.11963
1.11824
1.01769
1.1195
1
1
1
1.08344
1
1.10417
1.00374
1.06961
1.09512
0.867691
1.00001
1.11905
1
1
1.00104
1.00001
1.12041
1.11861
1
1.1186
1
1
1.0995
1
1.00001
1.11858
1.01027
1
0.999754
1.09453
1
1.11914
1.1036
1
1
1
0.963594
1.08516
1
1.096
1
1
1
1
1.09894
1
1
1
1
1.10119
1
1.09006
1.11861
0.977357
1
0.866402
1
1.10058
1.0688
1
1
1
1
1