/*--------------------------------*- C++ -*----------------------------------*\
  =========                 |
  \\      /  F ield         | OpenFOAM: The Open Source CFD Toolbox
   \\    /   O peration     | Website:  https://openfoam.org
    \\  /    A nd           | Version:  12
     \\/     M anipulation  |
\*---------------------------------------------------------------------------*/
FoamFile
{
    format      ascii;
    class       volScalarField;
    location    "5.27";
    object      rho;
}
// * * * * * * * * * * * * * * * * * * * * * * * * * * * * * * * * * * * * * //

dimensions      [1 -3 0 0 0 0 0];

internalField   nonuniform List<scalar> 
22702
(
1.40001
1.40001
1.27718
1.40001
1.44688
1.40001
1.83936
1.40001
1.40001
1.02667
1.83692
1.83875
1.40001
1.84103
1.29718
1.40001
1.40001
1.40001
1.83696
1.40001
1.84099
1.40001
1.84212
1.01092
1.84601
1.06474
1.40001
1.83887
1.03639
1.01263
1.40001
1.8378
1.40001
1.40001
1.40001
1.80963
1.8466
1.84196
1.40001
1.40001
1.02736
1.40001
1.62445
1.40001
1.83804
1.40001
1.40001
1.40001
1.40001
1.0187
1.40001
1.01886
1.40001
1.83883
1.40001
1.83734
1.40001
1.40001
1.40001
1.40001
1.01459
1.40001
1.40001
1.03519
1.40001
1.01912
1.40001
1.40001
1.40001
1.03323
1.40001
1.84011
1.67144
1.40001
1.84153
1.86259
1.00736
1.83726
1.01612
1.40001
1.84008
1.02304
1.84212
1.84207
1.40001
1.40001
1.40001
1.40001
1.33496
1.03038
1.83991
1.40001
1.40001
1.04013
1.40001
1.84143
1.04382
1.40001
1.40001
1.40001
1.40001
1.62371
1.84026
1.05881
1.40001
1.40001
1.50452
1.40001
1.02167
1.40001
1.83591
1.83843
1.40001
1.40001
1.03615
1.03395
1.02961
1.40001
1.40001
1.40001
1.40001
1.40001
1.32105
1.40001
1.77922
1.43801
1.83899
1.40001
1.83953
1.83682
1.84208
1.83846
1.40001
1.03385
1.40001
1.03821
1.40001
1.40001
1.40001
1.40001
1.8381
1.40001
1.40001
1.40001
1.40001
1.84259
1.40001
1.42272
1.40001
1.40001
1.40001
1.40001
1.02511
1.40001
1.40983
1.40001
1.01635
1.40001
1.40001
1.40001
1.83902
1.40001
1.83984
1.00987
1.03332
1.84005
1.8399
1.40001
1.47385
1.64924
1.40001
1.84116
1.0156
1.81008
1.40001
1.40001
1.40001
1.40001
1.84105
1.76566
1.40001
1.83867
1.03558
1.83915
1.40001
1.04974
1.40001
1.01796
1.06037
1.39979
1.40001
1.40001
1.8395
1.40001
1.40001
1.84137
1.40001
1.84097
1.83822
1.02334
1.40001
1.40001
1.03405
1.84129
1.40001
1.40001
1.40001
1.84153
1.40001
1.03546
1.40001
1.40001
1.84134
1.84195
1.83778
1.40001
1.40004
1.40001
1.40001
1.40001
1.84226
1.40001
1.03139
1.85509
1.84144
1.84231
1.40001
1.40001
1.40001
1.00983
1.84108
1.61166
1.40001
1.84358
1.03989
1.04158
1.84372
1.83979
1.40001
1.84835
1.0462
1.79206
1.40001
1.40001
1.40001
1.40001
1.84132
1.40001
1.66633
1.44216
1.40001
1.40001
1.84175
1.03987
1.18984
1.40001
1.84037
1.03212
1.84781
1.40001
1.40001
1.40001
1.40001
1.40001
1.40001
1.40001
1.02385
1.17457
1.04462
1.84168
1.40001
1.40001
1.40001
1.40001
1.79444
1.40001
1.01905
1.40001
1.00361
1.03281
1.84144
1.01652
1.84114
1.40001
1.40001
1.40001
1.39772
1.04903
1.0174
1.4
1.40001
1.00076
1.40001
1.83758
1.05919
1.40001
1.40001
1.83984
0.994726
1.40001
1.84563
1.02688
1.8417
1.40001
1.01364
1.39767
1.40001
1.40001
1.40001
1.02511
1.40001
1.40001
1.4
1.40002
1.41018
1.67406
1.40001
1.08221
1.40001
1.40001
1.40001
1.40001
1.40001
1.40001
1.40001
1.83906
1.40001
1.84028
1.40001
1.40001
1.40001
1.05781
1.40001
1.84256
1.04145
1.40001
1.74802
1.40001
1.40001
1.84028
1.40001
1.40001
1.40001
1.8296
1.40001
1.40001
1.82796
1.83994
1.40001
1.4949
1.40001
1.40001
1.03832
1.40001
1.40001
1.40001
1.03462
1.40001
1.40001
1.40001
1.40001
1.05375
1.40001
1.40001
1.40001
1.40001
1.40001
1.01559
1.40007
1.83969
1.40001
1.4
1.83979
1.84011
1.40001
1.40001
1.03115
1.19668
1.83759
1.40001
1.40001
1.40001
1.8415
1.0381
1.40001
1.83983
1.40001
1.40001
1.06849
1.06154
1.40001
1.03639
1.05993
1.40001
1.40001
1.40001
1.40001
1.40001
1.40001
1.40001
1.83837
1.50553
1.82421
1.01932
1.32863
1.83774
1.40001
1.842
1.83721
1.04518
1.17525
1.40001
1.04446
1.40001
1.84729
1.40001
1.40001
1.40001
1.40001
1.84126
1.40001
1.40001
1.40001
1.40001
1.40001
1.40001
1.40001
1.55346
1.84053
1.40001
1.84167
1.40001
1.40001
1.0272
1.40001
1.40001
1.40001
1.40001
1.84161
1.73646
1.40001
1.40001
1.03523
1.84141
1.84138
1.40001
1.84124
1.84139
1.8419
1.40001
1.20741
1.40001
1.84148
1.38335
1.84175
1.40001
1.04969
1.39888
1.83985
1.40001
1.40001
1.40001
1.40001
1.02591
1.84126
1.80184
1.40001
1.84294
1.84152
1.83947
1.40001
1.61701
1.84312
1.40001
1.40001
1.70656
1.46736
1.84158
1.32382
1.84178
1.40001
1.84194
1.84158
1.84204
1.84134
1.40001
1.83087
1.30745
1.25004
1.40001
1.4
1.40001
1.40001
1.84512
1.40001
1.40001
1.40001
1.40001
1.40001
1.83906
1.40001
1.40001
1.39603
1.8413
1.77827
1.40001
1.76819
1.40005
1.40001
1.40001
1.84114
1.40001
1.39718
1.40483
1.40001
1.84157
1.40001
1.84191
1.40001
1.40001
1.73072
1.40001
1.84245
1.40003
1.40001
1.8432
1.40001
1.84144
1.40001
1.40001
1.40001
1.84136
1.40001
1.84398
1.40001
1.84134
1.83819
1.84205
1.84024
1.40001
1.83972
1.83341
1.40001
1.0152
1.81492
1.72283
1.40001
1.84138
1.40001
1.04183
1.02088
1.40001
1.40001
1.40001
1.40001
1.40001
1.05047
1.40001
1.84153
1.51961
1.84129
1.40001
1.40001
1.40001
1.40001
1.40001
1.84164
1.40001
1.84177
1.65935
1.15618
1.40001
1.40001
1.53
1.51414
1.40001
1.40001
1.55899
1.40001
1.02493
1.84214
1.84204
1.40001
1.40001
1.40001
1.84079
1.40001
1.40003
1.84193
1.84096
1.35453
1.40001
1.40001
1.01879
1.80224
1.40001
1.40001
1.40001
1.40001
1.40001
1.8415
1.84029
1.40001
1.8431
1.84436
1.84205
1.40001
1.40001
1.40001
1.40001
1.06532
1.83704
1.40001
1.40001
1.80281
1.84066
1.40001
1.81613
1.84028
1.40001
1.40001
1.40001
1.40001
1.40001
1.8418
1.40001
1.40001
1.40001
1.40001
1.84296
1.40001
1.84025
1.05007
1.40001
1.02492
1.40001
1.40001
1.40001
1.39687
1.02501
1.39905
1.40001
1.40001
1.40001
1.46101
1.40001
1.40001
1.27706
1.40001
1.40001
1.40001
1.40001
1.40001
1.40001
1.40001
1.4
1.32346
1.4
1.40001
1.39759
1.40001
1.03264
1.40001
1.40001
1.40001
1.40001
1.73199
1.40001
1.40001
1.40001
1.40001
1.0562
1.40001
1.40001
1.81599
1.8387
1.4
1.40001
1.40001
1.25169
1.40001
1.40001
1.40001
1.40001
1.40001
1.40001
1.3636
1.4137
1.84225
1.40001
1.40001
1.40001
1.84665
1.30236
1.40001
1.40001
1.40001
1.84051
1.83774
1.40001
1.40001
1.40001
1.40001
1.40001
1.40001
1.40001
1.40001
1.40001
1.05782
1.40001
1.40001
1.83947
1.04053
1.40001
1.83957
1.40001
1.02925
1.40001
1.40001
1.05833
1.40001
1.40001
1.40001
1.40001
1.40001
1.40001
1.40001
1.83344
1.84099
1.40001
1.40001
1.40001
1.40001
1.80367
1.40001
1.53958
1.02738
1.40001
1.40001
1.40001
1.40001
1.40001
1.40001
1.40001
1.44396
1.40001
1.40001
1.62514
1.40001
1.40001
1.40001
1.76618
1.40001
1.40001
1.40001
1.40001
1.0388
1.40001
1.40001
1.05044
1.03983
1.40001
1.40001
1.84146
1.40001
1.35515
1.40001
1.40001
1.40001
1.70729
1.00269
1.40001
0.993356
1.40001
1.14112
1.40001
1.40001
1.40001
1.84184
1.40001
1.40001
1.8414
1.40001
1.40001
1.40001
1.8414
1.40001
1.40001
1.8418
1.40001
1.40001
1.04778
1.40001
1.53651
1.40001
1.40001
1.83838
1.83627
1.69527
1.79598
1.40001
1.0483
1.40001
1.40001
1.82198
1.40001
1.02887
1.40001
1.40001
1.40001
1.84212
1.40001
1.40001
1.40001
1.40001
1.66317
1.40001
1.80361
1.84037
1.03096
1.40001
1.40001
1.06329
1.06327
1.40001
1.40001
1.40001
1.71389
1.73461
1.40001
1.40001
1.40001
1.40001
1.40001
1.40001
1.40001
1.58894
1.83969
1.4169
1.40001
1.83643
1.03343
1.40001
1.40001
1.40001
1.64052
1.40001
1.48772
1.40001
1.80335
1.84011
1.40001
1.04914
1.40001
1.83836
1.40001
1.40001
1.84209
1.81457
1.40001
1.84218
1.40001
1.03527
1.40001
1.40001
1.40001
1.83375
1.83339
1.78889
1.40001
1.83928
1.8419
1.40001
1.84288
1.40001
1.84015
1.40001
1.02898
1.34758
1.05298
1.40001
1.40001
1.40001
1.40001
1.40001
1.84178
1.40001
1.84164
1.40001
1.40001
1.40001
1.8199
1.40001
0.999717
1.84144
1.40001
1.04534
1.02457
1.00943
1.40001
1.62224
1.43538
1.84357
1.84158
1.40001
1.4
1.40001
1.40001
1.84183
1.40001
1.40001
1.84182
1.84204
1.40001
1.5562
1.39981
1.40001
1.39687
1.83836
1.26165
1.40001
1.24017
1.02784
1.02319
1.3236
1.8408
1.83598
1.48521
1.84159
1.8421
1.40001
1.40001
1.83578
1.83922
1.84118
1.83768
1.40001
1.84223
1.0059
1.84336
1.83943
1.84147
1.84338
1.24424
1.31166
1.33683
1.84176
1.35442
1.84117
1.40001
1.40001
1.84388
1.84272
1.40001
1.04447
1.83906
1.84204
1.40001
1.84136
1.84184
1.40001
1.84209
1.05616
1.84688
1.83683
1.83835
1.84419
1.40001
1.40001
1.40001
1.84178
1.68649
1.0913
1.84144
1.05257
1.84166
1.40001
1.40001
1.40001
1.40001
1.84331
1.84181
1.40001
1.40001
1.84176
1.05471
1.84222
1.03011
1.40001
1.83889
1.40001
1.02642
1.84308
1.09823
1.40001
1.84139
1.84425
1.84427
1.40001
1.40001
1.61794
1.84373
1.0324
1.84158
1.40001
1.8437
1.29667
1.84349
1.05443
1.40001
1.841
1.04637
1.84379
1.03431
1.40001
1.84197
1.40001
1.8422
1.40001
1.65653
1.82575
1.7482
1.03471
1.40001
1.84144
1.40001
1.84287
1.40001
1.84199
1.40001
1.40001
1.84198
1.37094
1.84485
1.03354
1.80631
1.40001
1.71418
1.40001
1.84268
1.84176
1.83982
1.40001
1.79708
1.84137
1.80916
1.66754
1.83802
1.40001
1.69447
1.40001
1.84105
1.40001
1.45573
1.40001
1.80938
1.40001
1.84314
1.82047
1.82054
1.40001
1.83976
1.04339
1.40001
1.05028
1.40001
1.40001
1.40001
1.83541
1.40001
1.84203
1.40001
1.40001
1.40001
1.84279
1.82873
1.77479
1.84257
1.84669
1.02292
1.83624
1.84058
1.40001
1.79077
1.84169
1.82061
1.40001
1.84053
1.83755
1.40001
1.84818
1.84346
1.84167
1.843
1.40001
1.40001
1.40001
1.84276
1.06996
1.40001
1.84139
1.40001
1.40001
1.0106
1.40001
1.40001
1.84141
1.84146
1.40001
1.8418
1.83414
1.84236
1.3649
1.84183
1.40001
1.84188
1.8416
1.76225
1.40001
1.40001
1.40001
1.84288
1.84215
1.84169
1.31173
1.40001
1.84535
1.84219
1.84081
1.40001
1.84207
1.84069
1.84135
1.84758
1.40001
1.84116
1.84088
1.77881
1.8415
1.84667
1.40001
1.84784
1.83702
1.84167
1.84432
1.84031
1.0412
1.84209
1.84306
1.40001
1.84206
1.84126
1.84138
1.84096
1.40001
1.84239
1.84162
1.40001
1.84186
1.77056
1.40001
1.40001
1.40001
1.84425
1.83842
1.40001
1.40001
1.63735
1.40001
1.84107
1.40001
1.40001
1.84224
1.84363
1.84152
1.84197
1.40001
1.40001
1.40001
1.70398
1.40001
1.84211
1.40001
1.40001
1.83639
1.83664
1.40001
1.84169
1.01746
1.84213
1.84533
1.11038
1.40001
1.02779
1.77921
1.84427
1.84214
1.84304
1.0354
1.84153
1.84357
1.03538
1.04956
1.40001
1.84335
1.84143
1.40001
1.40001
1.84183
1.40001
1.84013
1.40001
1.78731
1.40001
1.60752
1.8414
1.84395
1.70411
1.79298
1.83839
1.84226
1.81237
1.40001
1.03631
1.84595
1.84194
1.84661
1.40002
1.40001
1.40001
1.84025
1.40001
1.84159
1.84058
1.11094
1.40001
1.84126
1.39995
1.40001
1.40004
1.40005
1.84176
1.84215
1.39852
1.40001
1.40001
1.84276
1.84433
1.84182
1.84553
1.8407
1.064
1.78493
1.40001
1.83876
1.84121
1.84156
1.842
1.40001
1.84186
1.82996
1.84344
1.40001
1.84144
1.84255
1.24907
1.84167
1.84186
1.40001
1.84176
1.23406
1.84253
1.24468
1.84186
1.40001
1.84169
1.84248
1.84154
1.84212
1.84145
1.83885
1.8426
1.84048
1.40001
1.32522
1.84201
1.84116
1.23683
1.84175
1.3904
1.68938
1.84192
1.84072
1.8433
1.40001
1.84497
1.68934
1.84191
1.31732
1.84453
1.84911
1.40001
1.26616
1.40001
1.83334
1.40001
1.70525
1.40001
1.81744
1.2599
1.40001
1.84707
1.83681
1.40001
1.84207
1.84377
1.84717
1.84529
1.84986
1.40001
1.83956
1.40001
1.40001
1.40001
1.29365
1.84141
1.84302
1.84774
1.8417
1.8405
1.84691
1.8337
1.84208
1.3
1.43096
1.40001
1.40001
1.84327
1.84167
1.84144
1.84174
1.40003
1.62555
1.40001
1.84749
1.80063
1.40001
1.40001
1.11725
1.84138
1.40001
1.40001
1.0151
1.842
1.40001
1.84095
1.84137
1.83825
1.82495
1.84185
1.40001
1.03891
1.50421
1.8419
1.84189
1.40001
1.84287
1.84128
1.63225
1.41018
1.49841
1.40001
1.84206
1.84166
1.40001
1.40001
1.03572
1.40001
1.40001
1.84164
1.84158
1.8441
1.84223
1.84136
1.84346
1.84183
1.84064
1.84178
1.40001
1.39594
1.84164
1.84307
1.39684
1.84161
1.84107
1.04176
1.03506
1.83895
1.84656
1.40001
1.40001
1.40134
1.84102
1.8433
1.84192
1.40001
1.84164
1.40001
1.25981
1.84757
1.85013
1.40001
1.60221
1.84177
1.40001
1.84031
1.40001
1.84087
1.6926
1.84066
1.40001
1.84218
1.84859
1.03596
1.84216
1.40001
1.84212
1.84068
1.40001
1.04097
1.84472
1.77445
1.39783
1.82571
1.84109
1.40001
1.39672
1.84073
1.39858
1.84183
1.40001
1.40001
1.84158
1.40001
1.84264
1.84141
1.39658
1.75024
1.40001
1.84108
1.40001
1.40001
1.40001
1.40001
1.84167
1.40001
1.40001
1.83931
1.40001
1.84288
1.40001
1.68635
1.83794
1.84326
1.40001
1.40001
1.39897
1.40001
1.8434
1.84152
1.84057
1.84178
1.84294
1.84154
1.84218
1.40001
1.84094
1.84015
1.40001
1.84185
1.84103
1.40001
1.84086
1.32346
1.45683
1.84123
1.84122
1.84223
1.40001
1.84178
1.40001
1.84189
1.84133
1.40001
1.84027
1.40001
1.40001
1.40001
1.40001
1.84138
1.04343
1.39793
1.40001
1.84169
1.83942
1.40001
1.84165
1.40001
1.40488
1.01442
1.84139
1.3996
1.40001
1.84214
1.39837
1.84284
1.40001
1.39977
1.40001
1.84341
1.84894
1.84051
1.83976
1.02972
1.84089
1.84016
1.8424
1.50861
1.40001
1.40001
1.59093
1.84148
1.03062
1.02401
1.40001
1.84177
1.84199
1.83893
1.40001
1.40001
1.83946
1.84105
1.39988
1.40001
1.72174
1.02242
1.40001
1.4805
1.84013
1.83333
1.39826
1.84178
1.84629
1.40001
1.39853
1.40001
1.84108
1.83903
1.57725
1.40001
1.8102
1.40001
1.40146
1.84252
1.03104
1.84025
1.84149
1.39702
1.39991
1.77759
1.40001
1.39969
1.40001
1.84292
1.40001
1.40002
1.01771
1.84213
1.40001
1.40001
1.40001
1.40001
1.83874
1.64738
1.40001
1.40001
1.03123
1.84172
1.64788
1.40001
1.40001
1.40001
1.8198
1.83266
1.84094
1.40001
1.40001
1.84761
1.40001
1.84219
1.84218
1.40001
1.40001
1.84362
1.84135
1.8187
1.40001
1.40001
1.84391
1.84244
1.40001
1.40001
1.40001
1.84297
1.40001
1.40001
1.40001
1.84098
1.84034
1.8435
1.40001
1.8374
1.40004
1.07687
1.84056
1.84075
1.40001
1.84205
1.81792
1.83503
1.40001
1.40001
1.84501
1.40001
1.64212
1.84211
1.40001
1.0388
1.40001
1.84296
1.40001
1.40001
1.8398
1.40001
1.40001
1.40001
1.5427
1.84195
1.0641
1.40002
1.84275
1.40001
1.40001
1.8421
1.40001
1.84549
1.40001
1.40001
1.84257
1.84194
1.40001
1.40006
1.40001
1.40001
1.40001
1.40001
1.40001
1.40001
1.84455
1.84194
1.40001
1.84135
1.03742
1.84913
1.40001
1.84219
1.85077
1.84293
1.844
1.83946
1.40001
1.40001
1.84078
1.40001
1.67372
1.84695
1.84203
1.40001
1.84454
1.83595
1.40001
1.79024
1.40001
1.84195
1.68975
1.84018
1.39738
1.83178
1.80261
1.84413
1.84224
1.4367
1.84218
1.84447
1.40001
1.84126
1.40001
1.8418
1.40001
1.40001
1.40001
1.40001
1.39611
1.84185
1.84147
1.77244
1.40001
1.84491
1.40001
1.40001
1.40001
1.06255
1.40001
1.82934
1.40001
1.80066
1.82237
1.40001
1.40001
1.40001
1.80834
1.83672
1.40001
1.40001
1.84024
1.0339
1.4646
1.40001
1.84636
1.84124
1.80319
1.83044
1.84118
1.40001
1.84279
1.40001
1.40001
1.40001
1.40001
1.8436
1.84283
1.40001
1.82989
1.4471
1.84248
1.81033
1.40001
1.40001
1.81296
1.40001
1.40001
1.03471
1.71288
1.40001
1.40001
1.84627
1.40001
1.8455
1.79863
1.40001
1.79856
1.03334
1.84128
1.84083
1.84265
1.40001
1.04132
1.40001
1.40001
1.40001
1.84148
1.76576
1.40001
1.84469
1.8415
1.40001
1.84237
1.40001
1.40001
1.40001
1.40001
1.84114
1.39936
1.40001
1.84341
1.40001
1.40001
1.84229
1.84059
1.40001
1.84641
1.48
1.40002
1.40001
1.84217
1.40001
1.84238
1.40001
1.4142
1.84171
1.40001
1.84268
1.40001
1.40001
1.53439
1.83975
1.40001
1.40001
1.40001
1.40001
1.40001
1.39623
1.0339
1.04073
1.41898
1.40001
1.42398
1.40001
1.42351
1.40001
1.84171
1.40001
1.67886
1.40001
1.84282
1.40001
1.40001
1.40001
1.84257
1.40001
1.75046
1.84282
1.40001
1.63573
1.84217
1.40001
1.40001
1.8357
1.84055
1.40001
1.40001
1.44463
1.03609
1.40001
1.8431
1.40001
1.40001
1.40001
1.40001
1.47423
1.84154
1.40001
1.40001
1.40001
1.02954
1.40001
1.84256
1.84178
1.83904
1.40001
1.40001
1.40001
1.40001
1.62398
1.83968
1.40001
1.40001
1.40001
1.84337
1.84178
1.44343
1.40001
1.40001
1.40001
1.84121
1.84164
1.40001
1.03716
1.84144
1.8408
1.84253
1.84191
1.84065
1.40001
1.40001
1.84905
1.83957
1.84156
1.02839
1.43977
1.84184
1.40001
1.40001
1.40001
1.40001
1.40001
1.84122
1.0264
1.40001
1.40001
1.84145
1.60347
1.40001
1.84831
1.40001
1.40001
1.40001
1.05475
1.40001
1.40001
1.51706
1.84119
1.8415
1.40001
1.83893
1.84888
1.40001
1.46766
1.40001
1.84944
1.40001
1.84244
1.03246
1.40001
1.40001
1.40001
1.40001
1.84243
1.40007
1.40001
1.40001
1.40001
1.82487
1.40001
1.40001
1.40001
1.40001
1.84127
1.05598
1.74862
1.84556
1.40001
1.84233
1.40001
1.40001
1.40001
1.39713
1.40001
1.84854
1.40001
1.19755
1.40001
1.40001
1.40004
1.84058
1.023
1.40001
1.83908
1.40001
1.84398
1.8412
1.0246
1.40001
1.40001
1.82108
1.40001
1.40001
1.03277
1.40001
1.84007
1.40001
1.82102
1.39935
1.84137
1.40001
1.40001
1.40001
1.40001
1.84295
1.40001
1.40001
1.84244
1.40001
1.40001
1.40001
1.40001
1.40001
1.40001
1.40001
1.40001
1.691
1.40001
1.54678
1.84088
1.40001
1.40001
1.40001
1.05462
1.40001
1.40001
1.40001
1.40001
1.84004
1.84191
1.45002
1.40001
1.40001
1.84273
1.40001
1.40001
1.83911
1.40001
1.40002
1.40001
1.40001
1.40001
1.40002
1.84284
1.17131
1.84192
1.84335
1.39702
1.40001
1.40001
1.40001
1.65899
1.40001
1.40001
1.84196
1.84233
1.40001
1.40001
1.40001
1.40001
1.02654
1.40001
1.40001
1.40001
1.67945
1.40001
1.84279
1.84412
1.40001
1.84355
1.40001
1.40001
1.40001
1.63684
1.40001
1.8384
1.40001
1.84134
1.40001
1.40001
1.39633
1.84157
1.40001
1.40001
1.40001
1.40001
1.40001
1.8453
1.40003
1.40001
1.03329
1.84288
1.03536
1.40001
1.84172
1.40001
1.3961
1.40001
1.84247
1.84872
1.40001
1.83585
1.25427
1.84198
1.84339
1.40004
1.40001
1.40001
1.03666
1.40001
1.40001
1.40001
1.84154
1.65241
1.84361
1.40001
1.40001
1.40001
1.40001
1.39673
1.84422
1.40001
1.03558
1.40001
1.40001
1.40001
1.40001
1.40001
1.40001
1.40001
1.84863
1.84176
1.8469
1.40001
1.40001
1.3969
1.40001
1.37507
1.40001
1.40001
1.40001
1.0269
1.37419
1.40001
1.03352
1.05171
1.40001
1.84317
1.8415
1.40001
1.84432
1.8417
1.03736
1.68518
1.40001
1.40001
1.40001
1.03535
1.84182
1.40001
1.04083
1.40001
1.85022
1.47737
1.40001
1.40001
1.40001
1.40001
1.84145
1.8461
1.40001
1.40001
1.84075
1.40001
1.40001
1.838
1.84079
1.40001
1.8164
1.84244
1.83515
1.35054
1.84126
1.40849
1.03711
1.73649
1.84126
1.40001
1.40001
1.40001
1.02702
1.40001
1.03242
1.83876
1.34891
1.84234
1.34464
1.40001
1.8416
1.59774
1.40001
1.40001
1.84301
1.40001
1.5832
1.83935
1.40001
1.40001
1.83819
1.84375
1.04857
1.66637
1.39989
1.40001
1.66818
1.40001
1.83814
1.33922
1.84972
1.84479
1.40001
1.40001
1.40001
1.40001
1.83402
1.40001
1.40001
1.84112
1.39964
1.84345
1.75447
1.84565
1.03544
1.40001
1.40001
1.40001
1.40001
1.84175
1.40005
1.84267
1.40001
1.84241
1.84105
1.45691
1.83795
1.53058
1.842
1.40001
1.70426
1.0531
1.83938
1.84196
1.7616
1.47695
1.84576
1.84196
1.84273
1.8406
1.40001
1.32398
1.46815
1.40001
1.84187
1.6084
1.84321
1.40004
1.40001
1.40001
1.07749
1.84104
1.84184
1.76396
1.40001
1.56904
1.40001
1.83818
1.83683
1.40001
1.84358
1.84071
1.40001
1.40001
1.40001
1.84451
1.40001
1.57381
1.84358
1.70842
1.40001
1.84248
1.40001
1.40001
1.40001
1.40001
1.40001
1.40001
1.40001
1.40001
1.40001
1.40001
1.04659
1.40001
1.80899
1.041
1.65604
1.39857
1.83865
1.40001
1.63404
1.40002
1.68674
1.77692
1.40001
1.40174
1.84839
1.31277
1.40001
1.84042
1.82382
1.33819
1.40001
1.8437
1.84223
1.84339
1.40001
1.84161
1.8427
1.84503
1.40001
1.60577
1.40001
1.40006
1.8429
1.40001
1.84175
1.46489
1.84377
1.40001
1.40001
1.8402
1.84025
1.08864
1.40001
1.83979
1.7304
1.84178
1.40001
1.40001
1.83765
1.84074
1.39825
1.40001
1.78947
1.39685
1.84222
1.40004
1.40001
1.40001
1.40001
1.40001
1.60281
1.40001
1.74484
1.84265
1.72919
1.83901
1.40001
1.40379
1.40001
1.40001
1.8358
1.40001
1.84445
1.40001
1.40001
1.40001
1.40001
1.4
1.40001
1.45607
1.63187
1.40001
1.40001
1.03564
1.40001
1.83848
1.04832
1.84778
1.40001
1.62592
1.39977
1.84169
1.68401
1.04764
1.64352
1.40004
1.8422
1.84402
1.40001
1.66841
1.84411
1.84208
1.39841
1.8362
1.82928
1.04203
1.40001
1.40001
1.39815
1.40001
1.8388
1.40001
1.04778
1.83917
1.40001
1.40001
1.8002
1.40001
1.84331
1.40001
1.84106
1.40001
1.05914
1.40001
1.40001
1.84444
1.84105
1.83854
1.40001
1.84261
1.84214
1.83566
1.40001
1.40001
1.82629
1.4
1.11988
1.40001
1.40001
1.40001
1.84244
1.40001
1.84147
1.68927
1.84369
1.40001
1.84197
1.39939
1.40001
1.40001
1.40001
1.40001
1.40001
1.40001
1.09284
1.40001
1.40001
1.84187
1.40001
1.84719
1.84206
1.40001
1.03963
1.03809
1.40001
1.84319
1.472
1.03199
1.01411
1.40001
1.84271
1.40001
1.84251
1.03233
1.40094
1.40001
1.40001
1.39951
1.40001
1.40001
1.40001
1.39992
1.58569
1.84295
1.40001
1.40001
1.84243
1.65674
1.40001
1.79101
1.84217
1.84274
1.5874
1.84477
1.40001
1.84064
1.40001
1.83045
1.40001
1.83686
1.84113
1.39683
1.84345
1.84227
1.40001
1.40001
1.40001
1.40001
1.40001
1.29219
1.8434
1.40005
1.40003
1.02716
1.39999
1.03226
1.06528
1.40001
1.84186
1.84185
1.84339
1.40001
1.8414
1.40001
1.03509
1.40001
1.40001
1.84301
1.20552
1.83899
1.40001
1.8439
1.40001
1.38639
1.84001
1.40001
1.40001
1.40001
1.84384
1.40001
1.84139
1.04586
1.40001
1.40001
1.65312
1.40001
1.40001
1.64036
1.40001
1.40001
1.84113
1.40001
1.40001
1.40001
1.40001
1.40001
1.83918
1.84167
1.40001
1.83835
1.84279
1.03525
1.5982
1.84116
1.40001
1.40001
1.79831
1.399
1.40001
1.40001
1.84158
1.84604
1.69565
1.40001
1.84221
1.05014
1.82289
1.39964
1.40001
1.83976
1.40004
1.84369
1.78361
1.73544
1.40001
1.40001
1.84142
1.09808
1.02845
1.40001
1.84091
1.40001
1.84132
1.40001
1.66241
1.40001
1.40001
1.84079
1.68586
1.04133
1.40001
1.39819
1.40001
1.40001
1.42607
1.58062
1.84164
1.40001
1.8463
1.40001
1.40001
1.40001
1.40001
1.40001
1.40001
1.46641
1.0289
1.40001
1.40001
1.43333
1.40001
1.40001
1.40001
1.40001
1.40001
1.84086
1.40001
1.40001
1.84129
1.84033
1.71134
1.40001
1.40001
1.40001
1.22019
1.84789
1.71022
1.40001
1.40001
1.40001
1.40001
1.83921
1.40001
1.40001
1.40001
1.84091
1.40001
1.40001
1.71969
1.85325
1.44216
1.1291
1.83939
1.71466
1.84033
1.40001
1.62278
1.40001
1.40001
1.40001
1.03541
1.40196
1.02823
1.40001
1.03442
1.00873
1.40001
1.04907
1.40001
1.40001
1.40001
1.59191
1.40001
1.84259
1.84129
1.40157
1.61089
1.78127
1.0338
1.15446
1.27819
1.40001
1.84153
1.83906
1.84174
1.84174
1.77932
1.26519
1.40001
1.78276
1.40001
1.82362
1.40001
1.40001
1.39659
1.41015
1.40001
1.40001
1.40001
1.83782
1.40001
1.03581
1.40001
1.84341
1.03569
1.40001
1.40001
1.84186
1.40001
1.84203
1.40003
1.40001
1.40001
1.84208
1.81356
1.40001
1.85479
1.40001
1.40001
1.41437
1.40001
1.59096
1.40001
1.40001
1.03854
1.40001
1.40001
1.84227
1.4
1.8401
1.40001
1.40004
1.03719
1.40001
1.40001
1.0227
1.40081
1.40001
1.83989
1.03892
1.84034
1.04867
1.83977
1.40001
1.40001
1.40001
1.40001
1.40001
1.40001
1.40001
1.40001
1.40001
1.40001
1.40001
1.82331
1.40001
1.84271
1.84041
1.01948
1.40001
1.40001
1.40001
1.40001
1.40001
1.40001
1.82895
1.40001
1.40001
1.03682
1.40001
1.40001
1.83936
1.40001
1.40001
1.56901
1.77183
1.05399
1.03971
1.08859
1.12947
1.40001
1.39684
1.02678
1.40039
1.80419
1.3969
1.40001
1.40001
1.84034
1.40001
1.40001
1.40001
1.1642
1.40002
1.56259
1.40001
1.40001
1.58212
1.84237
1.40001
1.04538
1.40001
1.40001
1.40001
1.39641
1.40001
1.84067
1.84117
1.40001
1.02948
1.40001
1.63959
1.0141
1.40001
1.28516
1.40001
1.39625
1.00797
1.40001
1.40001
1.40001
1.39548
1.03198
1.40001
1.03271
1.39844
1.62822
1.7998
1.04145
1.04287
1.40001
1.39118
1.40001
1.39861
1.40001
1.84306
1.84039
1.40001
1.41556
1.84202
1.84287
1.40001
1.40001
1.8414
1.40001
1.40001
1.40005
1.40001
1.84405
1.40001
1.40001
1.41828
1.40001
1.39857
1.0691
1.40001
1.40001
1.40001
1.40001
1.40001
1.83956
1.43145
1.40006
1.40001
1.40001
1.40001
1.40001
1.40001
1.40004
1.40001
1.02929
1.50338
1.39862
1.82173
1.84093
1.40001
1.41583
1.84344
1.78218
1.40001
1.40001
1.03007
1.84232
1.40001
1.84091
1.40001
1.84365
1.70174
1.02483
1.40001
1.01572
1.80892
1.39968
1.40001
1.03222
1.06529
1.40001
1.40001
1.77234
1.40001
1.4
1.02178
1.40001
1.40001
1.40001
1.54573
1.40001
1.01956
1.84278
1.40001
1.40001
1.40001
1.40001
1.84156
1.40001
1.40001
1.84221
1.79652
1.40001
1.40001
1.40001
1.83852
1.0364
1.40001
1.84022
1.84188
1.40001
1.75253
1.4
1.40004
1.40001
1.40001
1.80307
1.41931
1.40001
1.03434
1.63832
1.40001
1.40001
1.39737
1.40001
1.40001
1.84283
1.40001
1.40001
1.40004
1.40001
1.84476
1.40001
1.40001
1.40001
1.40001
1.40001
1.40001
1.40002
1.59671
1.40001
1.83932
1.40001
1.40001
1.84266
1.40001
1.40001
1.40001
1.84127
1.8404
1.44374
1.40001
1.39752
1.40001
1.40001
1.40001
1.40001
1.83947
1.40001
1.40001
1.84082
1.03215
1.40001
1.40001
1.40001
1.40001
1.40001
1.40001
1.75751
1.40001
1.40001
1.84145
1.84301
1.40001
1.40001
1.40001
1.84062
1.8395
1.40001
1.39968
1.84187
1.40001
1.40001
1.40001
1.40002
1.03181
1.43013
1.39584
1.39586
1.40001
1.40001
1.02757
1.84176
1.40001
1.01857
1.40001
1.84302
1.82381
1.04932
1.39942
1.84217
1.84365
1.84047
1.40001
1.40001
1.32199
1.79982
1.76589
1.04288
1.40001
1.40001
1.40001
1.84306
1.84221
1.04855
1.39732
1.40001
1.84187
1.0393
1.40001
1.8402
1.03521
1.3709
1.40644
1.40001
1.84533
1.40001
1.40001
1.40001
1.40001
1.40001
1.40001
1.40011
1.81039
1.40001
1.40001
1.83861
1.40001
1.40001
1.40001
1.84071
1.40001
1.03007
1.40001
1.40001
1.40001
1.55338
1.40001
1.40001
1.40001
1.40001
1.40001
1.18347
1.40001
1.03887
1.40001
1.84069
1.40007
1.25844
1.2625
1.40002
1.40443
1.62649
1.40001
1.40001
1.01029
1.84006
1.84082
1.84089
1.40001
1.05014
1.0261
1.40001
1.84081
1.40001
1.40001
1.40001
1.40001
1.40001
1.40004
1.40001
1.02981
1.6827
1.40001
1.40001
1.06368
1.37729
1.40001
1.40001
1.40001
1.40001
1.00977
1.40001
1.09645
1.40001
1.40001
1.84911
1.40001
1.40001
1.03048
1.40001
1.84098
1.40001
1.03484
1.40001
1.03654
1.40001
1.40783
1.8404
1.85298
1.40001
1.40001
1.84129
1.40001
1.40001
1.50363
1.39675
1.40001
1.39817
1.40001
1.84487
1.40001
1.02443
1.40002
1.83698
1.39881
1.40001
1.40001
1.19477
1.40001
1.39903
1.0423
1.84294
1.56276
1.40001
1.40001
1.29494
1.40001
1.40001
1.40001
1.18983
1.40001
1.40001
1.40001
1.84144
1.40001
1.02403
1.4
1.40001
1.40001
1.40001
1.02476
1.84079
1.80064
1.05023
1.40001
1.84787
1.40001
1.40001
1.84236
1.84084
1.77285
1.02485
1.39771
1.39927
1.40001
1.84127
1.40001
1.40001
1.40001
1.40001
1.84004
1.40004
1.40001
1.40001
1.83945
1.40001
1.40001
1.84166
1.02541
1.40001
1.40001
1.40001
1.03006
1.40001
1.4
1.4
1.39861
1.40001
1.40001
1.40001
1.40001
1.739
1.40001
1.84067
1.83841
1.84901
1.84258
1.84286
1.84118
1.40001
1.84369
1.40001
1.84199
1.84184
1.40001
1.39888
1.0225
1.78034
1.39991
1.40001
1.40001
1.40001
1.40001
1.39594
1.40001
1.46717
1.40001
1.40001
1.40001
1.2478
1.84164
1.84028
1.84884
1.77134
1.39988
1.40001
1.42361
1.84364
1.39792
1.45045
1.39704
1.03798
1.40001
1.40003
1.40001
1.40001
1.40001
1.40001
1.40001
1.84376
1.02774
1.84397
1.84127
1.39528
1.02806
1.40001
1.40001
1.40001
1.841
1.0084
1.79079
1.01579
1.84186
1.84686
1.0371
1.84089
1.42421
1.40001
1.84574
1.18597
1.40001
1.39877
1.0493
1.40001
1.03664
1.40001
1.8415
1.84128
1.11562
1.40001
1.84045
1.03647
1.40001
1.03714
1.40001
1.8409
1.40001
1.40001
1.844
1.40001
1.22697
1.40001
1.39969
1.03659
1.84339
1.39949
1.40001
1.02725
1.40001
1.40001
1.40001
1.40001
1.64322
1.40001
1.84102
1.40001
1.40001
1.84703
1.40001
1.40001
1.84276
1.40001
1.0382
1.40001
1.04095
1.40002
1.40001
1.40001
1.40001
1.40001
1.82297
1.65791
1.84198
1.40001
1.84173
1.81039
1.01069
1.0442
1.40001
1.40001
1.83914
1.40001
1.03664
1.40001
1.37677
1.40001
1.40001
1.8398
1.40001
1.84177
1.04536
1.84922
1.40001
1.0431
1.40001
1.40001
1.84688
1.84062
1.40001
1.40005
1.40001
1.84899
1.40001
1.40001
1.06896
1.3994
1.03313
1.40001
1.40001
1.40001
1.84371
1.83989
1.84051
1.40001
1.40001
1.01998
1.40001
1.84135
1.40001
1.40001
1.40001
1.82462
1.84091
1.84205
1.00258
1.84465
1.84189
1.06001
1.8387
1.40005
1.07804
1.40752
1.40001
1.40001
1.8413
0.998879
1.6853
1.00569
1.84204
1.39731
1.04967
1.84402
1.40001
1.40001
1.40001
1.40001
1.84123
1.84147
1.03592
1.40001
1.40003
1.03275
1.40004
1.40001
1.02658
1.02715
1.70705
1.83891
1.39849
1.84097
1.40001
1.83643
1.22491
1.03692
1.84133
1.84852
1.40001
1.84402
1.40001
1.40001
1.84188
1.40001
1.73454
1.83893
1.40001
1.40001
1.40001
1.40001
1.84046
1.83667
1.8443
1.40001
1.40001
1.84178
1.83661
1.84183
1.40001
1.84048
1.40001
1.40001
1.40001
1.40001
1.40001
1.02076
1.2391
1.04263
1.40001
1.40001
1.84342
1.40001
1.40001
1.84156
1.04802
1.40001
1.84211
1.83707
1.82363
1.0098
1.40001
1.00323
1.40001
1.40003
1.84133
1.61077
1.83824
1.80412
1.40001
1.06824
1.40001
1.84032
1.71707
1.02362
1.40001
1.40001
1.40001
1.21457
1.40001
1.40001
1.84779
1.40001
1.03105
1.84187
1.40001
1.40001
1.40001
1.40001
1.40001
1.75629
1.5013
1.40001
1.83927
1.40001
1.8427
1.40001
1.39738
1.40001
1.84095
1.84325
1.84263
1.84636
1.3996
1.83792
1.40001
1.8417
1.8402
1.77464
1.40001
1.40001
1.02608
1.83998
1.40001
1.40001
1.84305
1.84383
1.84295
1.40001
1.84174
1.40001
1.40001
1.40003
1.84491
1.83998
1.52473
1.49451
1.84223
1.83989
1.10551
1.40001
1.40001
1.40001
1.40001
1.40002
1.55691
1.40001
1.40001
1.77472
1.02898
1.39999
1.40001
1.84116
1.3999
1.39983
1.47164
1.80236
1.83798
1.31139
1.40001
1.03917
1.40001
1.39265
1.84169
1.84364
1.82862
1.39899
1.40001
1.40001
1.04274
1.40001
1.40001
1.84168
1.4466
1.40001
1.40001
1.40001
1.40001
1.40001
1.40001
1.40001
1.39994
1.8407
1.40002
1.40001
1.40001
1.40001
1.40001
1.67781
1.40001
1.60865
1.40001
1.40001
1.84187
1.84587
1.04126
1.39876
1.40001
1.4
1.40001
1.03539
1.83775
1.84227
1.40001
1.40001
1.40001
1.40001
1.40001
1.40001
1.40001
1.40001
1.84175
1.83901
1.03016
1.44948
1.02546
1.40001
1.03679
1.40001
1.84188
1.5324
1.40001
1.40001
1.08786
1.40001
1.82234
1.20859
1.39677
1.04578
1.40001
1.40001
1.84005
1.40005
1.39726
1.00591
1.839
1.84719
1.40001
1.40001
1.40001
1.40001
1.81241
1.40001
1.40001
1.84138
1.39899
1.84037
1.40009
1.40001
1.40001
1.04929
1.40001
1.40001
1.84255
1.04098
1.17545
1.0145
1.84221
1.39936
1.40001
1.84073
1.04028
1.04222
1.41153
1.40001
1.40001
1.83949
1.40004
1.60027
1.40001
1.40001
1.84036
1.03633
1.40001
1.40001
1.40014
1.83985
1.40016
1.83358
1.40001
1.40004
1.40001
1.40001
1.08007
1.40001
1.18356
1.40001
1.40001
1.84614
1.05016
1.40001
1.17998
1.19021
1.40001
1.40001
1.84169
1.40001
1.40001
1.40001
1.84042
1.84303
1.40005
1.84504
1.83891
1.18002
1.84144
1.81849
1.40001
1.40001
1.84193
1.4
1.40001
1.40001
1.40001
1.40001
1.84207
1.8403
1.40001
1.40001
1.40001
1.84078
1.40022
1.40001
1.02994