/*--------------------------------*- C++ -*----------------------------------*\
  =========                 |
  \\      /  F ield         | OpenFOAM: The Open Source CFD Toolbox
   \\    /   O peration     | Website:  https://openfoam.org
    \\  /    A nd           | Version:  12
     \\/     M anipulation  |
\*---------------------------------------------------------------------------*/
FoamFile
{
    format      ascii;
    class       surfaceScalarField;
    location    "8.27";
    object      phi;
}
// * * * * * * * * * * * * * * * * * * * * * * * * * * * * * * * * * * * * * //

dimensions      [1 0 -1 0 0 0 0];

internalField   nonuniform List<scalar> 
33852
(
0.000251329
2.24281e-05
-0.000273757
-0.000246121
1.32441e-05
0.000232877
-0.000178625
-7.25845e-05
0.000251081
0.000304053
-0.000163969
-0.000140085
0.000292771
-4.25832e-05
-0.000251896
2.72441e-05
-0.000260681
0.000233437
0.00031504
1.46691e-05
-0.000329553
0.000304277
-9.59564e-05
-0.000208321
0.000286413
-3.50841e-05
0.000197988
1.87858e-06
-0.000200038
0.000289502
-0.000366572
7.70445e-05
0.000360936
-4.56391e-05
-4.39602e-05
0.000263285
-0.000219325
-4.3891e-05
0.000318242
-0.000274419
6.217e-05
-0.00023946
0.000252057
1.2236e-05
-0.000264293
0.000264853
-1.2796e-05
-0.000278433
3.23121e-05
0.000340712
-5.12243e-05
0.000158593
0.000112308
-0.000270901
-2.43813e-05
0.000303317
-0.000278878
0.000271377
-0.000276165
4.78802e-06
-1.76629e-05
0.000274489
-0.000256803
-0.000219105
1.44275e-05
0.000204367
-0.000153593
-0.000183673
0.000337344
-0.000139681
-6.35798e-05
0.000207634
3.72401e-05
0.000267037
-6.10498e-05
-0.000262536
0.000324329
-0.000212675
1.87305e-06
0.000209383
-0.000203928
-1.90944e-05
0.000142045
0.000137388
-0.000279433
0.000341719
1.93425e-05
0.000142618
0.000128347
-0.000270965
-0.000101136
0.000259729
-0.000250489
-3.78001e-06
0.000254269
0.000330782
-5.95553e-05
-0.000271151
-0.000357248
0.00020357
-0.000226864
0.000209169
0.000231645
3.32081e-05
-5.65602e-06
0.000237301
-8.71974e-06
0.000208145
-0.000232625
0.000259869
0.000313248
-5.6692e-05
-0.00026012
-0.000309093
5.51042e-05
0.000253989
0.000239891
-0.000300518
0.000273589
-0.000306321
3.27321e-05
-0.000180237
-5.49362e-05
0.000235173
0.000272133
-0.000272133
0.000148429
-0.000297473
0.000149045
-0.000208066
0.000218825
-7.4341e-06
-0.000268241
0.000237301
3.09401e-05
-0.000199128
0.000244725
-4.68216e-05
-9.16164e-05
-0.000217477
-0.000114543
-0.000252055
-0.000280169
0.000266113
1.40561e-05
0.000329621
1.18859e-05
-0.000250433
7.01963e-05
0.000117908
0.000145909
-0.000263817
1.34681e-05
-0.000267457
0.000253989
-0.000134569
0.000282997
-0.000158847
-5.27195e-05
0.00022486
-0.000274681
0.000245113
2.95681e-05
0.000237553
-0.000268437
3.08841e-05
-0.000188788
-2.37891e-05
0.000151665
0.000115565
-0.00026723
-0.000191165
-2.88204e-05
0.000220312
0.000263985
2.24281e-05
0.000275941
-2.35201e-06
0.000265329
-0.000250741
-1.45881e-05
0.000220819
-6.17696e-05
-0.000152039
-1.82001e-06
0.000239373
0.000366969
-0.000312955
-5.39728e-05
-2.77079e-05
0.000302581
-0.000274713
-0.000101584
0.000219493
0.000342687
2.42236e-05
-0.00037264
0.000354245
1.84118e-05
-0.000213327
2.26598e-05
0.000309912
-0.000322027
1.2336e-05
-0.000207808
0.000271934
-6.3828e-05
-4.45202e-06
1.70828e-05
-0.000319507
0.000302393
0.000232031
-0.000197249
-3.46587e-05
0.000268259
-0.000338206
6.97388e-05
0.000332069
-6.32356e-05
-0.000268941
0.000236573
3.23681e-05
-0.000129388
-0.000132609
0.000261997
-1.86761e-05
-0.000249565
-1.022e-05
-0.000258721
2.34153e-05
0.000214261
-0.000238163
3.12174e-05
-0.000212912
0.000183036
-2.49454e-05
0.000327281
-0.000303405
-0.000279329
0.000273701
5.62802e-06
0.000156129
-0.000296857
0.000140729
-5.76976e-05
-0.000149814
0.000199214
0.000143277
0.0001218
-0.000265077
-0.000250164
0.000225791
-0.00021043
0.000142352
-0.000168813
0.000327181
-0.000158369
0.000185389
7.16523e-05
-0.000257041
0.000255193
2.07481e-05
-0.000192277
0.000148317
4.89348e-05
0.000262809
0.000307183
-0.000290165
8.85308e-05
-0.000228328
0.000135241
0.000117096
-0.000281065
-8.44953e-07
0.000245066
-0.00024144
0.000166489
0.000122836
-0.000289325
0.000143617
8.95258e-05
-3.92002e-06
0.000259113
0.00030434
5.44103e-06
-0.000323869
0.000314931
8.95724e-06
-3.99002e-05
0.000236293
-0.000196393
4.08802e-06
-0.000284257
-2.56692e-05
0.000164845
-0.000140839
-0.000159251
0.000131548
0.000206359
-0.000173744
-0.000269921
0.000264965
4.95602e-06
2.64041e-05
0.000174721
-0.000201125
2.87841e-05
-0.000257265
0.000228481
0.000276137
-0.000262669
0.000115108
0.000212073
0.000218084
-0.00019395
-0.000175813
0.000202217
1.38021e-05
0.000282493
-0.000296654
0.000267141
2.19431e-05
0.000272657
-0.000285135
1.24436e-05
3.86402e-06
0.000267513
-1.82944e-05
0.000290406
0.000330688
9.97477e-06
0.000213709
-0.000257619
0.000316682
-0.000316492
-6.63603e-06
-0.000272693
2.90241e-05
0.000208372
0.000187993
3.98722e-05
-0.000227865
-5.46794e-05
0.000216361
-0.000166036
0.000153609
-0.000270285
0.000116676
0.000279441
-0.000329701
5.02602e-05
-6.38122e-05
0.000249201
-0.000166909
0.000315897
-0.000148989
-0.000313868
-1.00503e-05
-0.000214929
0.000175029
2.78601e-05
-0.000278349
0.000276221
-1.88441e-05
-0.000248613
1.71936e-05
-0.000302611
0.000285056
0.000344989
-0.000158593
-0.000186397
-1.6954e-05
-0.000241108
0.000257703
-0.000266617
-3.30401e-06
0.000224001
2.45841e-05
-0.000248585
0.000284509
-0.000128381
0.000140197
0.000138853
-0.000279049
-0.000196046
-1.03143e-05
0.000258169
-0.000115551
0.000225582
-0.000242526
-6.38122e-05
0.000251805
-0.000207718
0.000249481
-5.60002e-07
-0.000248921
0.000255109
-0.000237441
-0.000325104
0.000299037
-3.08841e-05
0.000203169
-0.000172285
0.000291811
1.25893e-06
-0.000292899
7.64845e-05
0.000131881
-0.000209047
4.72567e-05
-0.00018928
-0.000289531
-4.72683e-06
0.000294258
-1.51667e-06
-0.000287861
0.000146973
-0.000273925
0.000126952
-0.000265174
0.000218163
-0.000293446
0.000265337
0.000279441
-0.000312272
-1.24553e-05
0.000324495
0.000110858
0.000161868
-2.13522e-05
0.000352113
0.000140141
0.000139833
-0.000279973
0.000245029
-0.000250349
5.32002e-06
-0.000210953
0.000180069
0.000279133
-5.43202e-06
0.000350943
-3.2715e-05
-0.000300567
0.000303727
-1.63706e-06
0.000270985
-0.000270985
-0.000364899
0.000225877
0.000138844
-0.000207473
1.98079e-05
1.69343e-05
0.000275157
-0.000278461
3.30401e-06
-5.31455e-06
0.000172447
-0.000167678
-0.000197345
0.000254801
-5.74562e-05
-0.00020453
4.43146e-06
-0.000224073
0.000153013
7.85793e-05
-0.000180264
0.000261399
-8.11368e-05
0.000256285
-0.000287113
3.08281e-05
-0.000249229
5.18842e-05
-2.36704e-05
0.000275984
-0.000252346
-0.000253547
1.35801e-06
0.000252189
0.000231281
-7.28003e-06
-0.000294305
7.54414e-06
0.000286711
-0.000266085
0.000266085
-0.000284168
-5.49588e-05
-0.000170819
-0.000194245
-0.000172349
0.000216585
-4.51259e-05
-1.232e-05
-0.000239177
0.000251497
3.10801e-06
0.000210113
-0.000213221
-0.000187109
-2.26759e-05
0.000208185
7.61275e-06
0.000294556
-0.000302235
-0.000236153
-1.34401e-05
0.000249593
1.50361e-05
-0.000251189
-0.000241025
0.000256061
-0.000301526
0.000308983
0.000256117
7.16803e-06
-0.000169346
-3.16381e-05
0.000199587
-0.000145237
-0.000134765
-0.000244329
0.000240549
0.000298469
-4.04551e-07
-0.000298089
-0.000298531
4.48561e-07
0.000298155
1.92596e-05
0.000181217
0.000163773
7.70045e-05
-0.000257269
-0.000159242
0.000310908
0.000250721
-0.000108677
-0.000235145
-1.83681e-05
0.000253513
-0.000204662
-0.000126845
0.000331504
-6.10402e-06
-0.000229125
0.000235229
-2.18263e-05
-0.000183511
-0.000286791
-8.56359e-05
6.3593e-06
-0.000300698
-0.000212564
0.000327831
-0.000115457
0.000281597
0.000288205
-5.16322e-05
0.000271993
-1.57081e-05
-0.00018832
-1.4027e-05
0.000202154
0.000298133
2.82927e-07
-0.000298327
-0.000270097
-3.209e-05
-0.000218821
0.000247605
-2.523e-05
0.00031054
-0.000285329
0.000180785
8.04279e-06
-0.00019014
-3.39825e-05
0.000212442
-0.000301259
0.00027603
0.000292717
5.36953e-06
-0.000298234
0.000157445
0.00011886
-0.000276305
0.000288775
5.64976e-06
-0.000294248
-0.000247294
0.000118657
0.000129046
-0.000281845
0.000295404
0.000302513
-0.000156857
-0.000145657
0.000207005
-0.000203897
-0.000232009
-0.000121156
-0.000155009
-4.09406e-06
-0.000294011
0.000298025
-1.0136e-05
0.000276249
0.000291593
-1.92864e-05
-0.000270196
-0.000262973
2.90854e-05
0.000233856
0.000271433
-0.000267569
0.000249621
2.95121e-05
0.000314976
-9.75735e-06
-0.000305258
4.99642e-05
0.000153939
-0.000214766
-0.000102179
0.00019715
-9.8097e-05
0.000252617
-2.91201e-05
-0.000223497
4.14996e-07
0.000291652
-0.00017186
-3.10697e-05
0.000203565
-1.99753e-06
0.000291297
-9.33244e-05
0.000246933
-0.000255417
-5.26402e-06
0.000121184
0.000181329
1.34121e-05
0.000241557
-0.000254969
0.000236097
1.34961e-05
-0.000249593
0.000249509
-0.000242929
0.000256425
6.37723e-05
-0.00020081
0.00013892
-0.000219352
0.000117506
-0.000206472
0.000297709
1.19807e-06
-0.000298756
0.000253849
2.22881e-05
0.000268493
-0.000216441
-5.20522e-05
0.000225518
-0.000246849
2.13305e-05
0.000257909
1.40841e-05
5.9278e-05
0.000295145
0.000267186
-3.89594e-05
-0.000228226
0.000175918
1.274e-05
0.000240297
-0.000253037
0.000195367
-0.000115118
-8.01866e-05
-0.000209082
2.152e-05
-1.33188e-06
-0.000298308
0.00029908
0.000221153
-0.000167369
-5.26122e-05
0.000344636
-4.12791e-05
0.000275969
-0.000135829
2.31561e-05
0.000238337
-0.000261493
-0.000231141
0.000254297
-2.66851e-05
-0.00022973
0.000256425
0.00015842
-0.000163702
-7.69859e-05
-0.000169127
-0.000261723
4.14346e-05
0.000220288
-3.17521e-05
-0.00022997
7.18307e-06
0.000261717
-3.25193e-05
-0.000229198
1.67269e-05
0.000119369
-0.000185023
0.000308785
-0.000171397
0.000262319
-3.57923e-05
-0.000226526
-0.000319502
0.000176978
-0.000100533
-0.000228453
-6.90203e-05
2.35834e-07
-0.000299995
0.000299688
-2.78948e-05
0.00019048
-0.00014834
0.000308049
6.89056e-06
0.000250097
-0.000248249
-1.84801e-06
-0.000176912
6.17191e-05
0.000260274
-3.0726e-05
-0.000229533
0.000197345
-0.000250769
5.34242e-05
0.000254205
-0.000231206
-2.29991e-05
-0.000252337
0.000240017
0.000143982
0.000100849
-0.000101864
-0.000170269
0.000132496
-0.000261885
-0.000290249
0.000242201
4.80483e-05
0.00021681
3.12472e-05
-0.000248056
-0.000238436
-9.45142e-06
0.00024883
0.000326647
-2.32303e-05
0.000263996
-3.42721e-05
-0.000229724
0.000141354
-0.000235082
9.00279e-05
3.63259e-05
-0.000265637
0.000229311
-0.000253905
0.000121296
0.000249817
-5.24722e-05
0.000294673
-0.000154253
-0.000140421
0.000122248
-0.000289157
1.53441e-05
0.000237665
-0.000253009
-0.000262031
3.54705e-05
0.00022656
-2.78703e-06
-3.77917e-05
-0.000224239
0.000248819
-0.000272268
-0.000264649
3.44737e-05
0.000230175
0.000193257
0.000101416
-0.000149941
0.000290137
-0.000173359
-3.8566e-05
0.000211582
-1.81721e-05
0.000263201
-0.000293008
0.000309972
0.000117359
0.0001041
0.000261325
-0.000261325
0.000310467
-2.02608e-05
-0.000289947
5.32002e-07
0.000248949
0.000254857
1.65761e-05
0.000309374
-0.000276111
-3.32575e-05
-2.26336e-05
0.000266577
-0.000243943
3.00077e-05
-0.000260519
0.000230511
-0.000252139
0.000229506
0.000326772
3.11501e-05
-0.000260598
0.000229447
0.000276809
-3.16961e-05
-7.29216e-06
-0.000294851
0.000301953
0.000270745
3.89073e-05
0.000230245
-0.000266617
3.63721e-05
0.000200016
-0.000199821
-0.000258301
0.000238533
1.97681e-05
0.000169762
-0.000257245
8.74835e-05
-0.000210232
0.000163241
-0.000249145
8.59043e-05
-0.000266169
0.000224813
4.13562e-05
0.000253073
-2.78797e-05
-0.000225194
0.000169291
4.19065e-05
-0.000234837
-2.29601e-05
0.000257797
-0.000236377
-2.28761e-05
0.000259253
-1.94265e-05
0.000255969
-0.000236542
-0.000259345
0.000239919
-3.33309e-05
0.000171852
-0.000235929
-2.24001e-05
0.000258329
-0.00025484
0.000229192
2.56481e-05
2.94001e-06
0.000211289
-0.000214229
-0.000267031
3.79849e-05
0.000229046
0.000270677
4.48002e-06
4.22246e-05
0.000161268
-0.000206977
-3.31193e-05
0.000249928
-2.10182e-05
0.000218597
9.73004e-05
0.0002482
-0.000216949
0.000277889
-0.000279354
0.000277721
-0.000282348
-1.84997e-05
0.000258601
-0.000240101
-0.000261644
0.000243145
3.11816e-05
-0.000203283
-3.06338e-05
-0.000201887
0.000231162
0.000314792
-0.000287638
-2.73568e-05
0.000261297
-3.11081e-05
-0.000230189
3.28739e-05
-0.000262362
0.000229488
-0.000229853
0.000259645
-2.97921e-05
0.000325763
-1.77048e-05
0.000140139
-0.000194487
0.000256929
-0.000109956
-0.000286077
0.000287394
0.000241977
-6.41202e-06
-0.000235565
0.000228537
-0.000178418
-3.76886e-05
0.000214048
2.81533e-05
-0.000211855
-0.000239989
0.000260317
-2.03281e-05
-0.000105661
0.000194077
-8.67465e-05
3.11059e-05
-0.000203231
0.000240169
-0.000263424
2.32552e-05
-0.000115584
0.000258861
-0.000243993
0.000265721
-2.17281e-05
-0.000238953
0.000232541
0.000258626
-0.000245105
-1.35213e-05
0.000264349
-2.46681e-05
-0.000246317
-0.000273917
-1.06184e-05
0.000301545
-5.34322e-05
-7.83053e-06
0.000292522
-0.000285155
-0.000170865
0.000210034
0.000229626
1.79231e-05
-0.000247359
0.000328558
-0.000328679
0.000260955
-0.000245018
-1.59377e-05
-0.000302084
-7.40101e-07
0.000305052
9.66835e-06
3.88033e-05
0.000176213
-0.000215812
0.00020715
-3.30216e-05
-0.000178194
0.000278054
-0.000255789
-2.22648e-05
-0.000206784
3.07942e-05
3.15421e-05
-0.000261891
0.000230348
0.000285386
-0.00029302
2.44721e-05
-0.000259617
-0.000257965
1.87881e-05
0.000266057
-1.64361e-05
0.000151173
-0.000267625
0.000116452
0.000298982
-4.48043e-06
0.000238617
-7.53763e-05
2.12521e-05
0.000177045
-0.000198297
-0.000183877
0.000205129
-0.000236275
0.000257219
-2.09441e-05
0.000261462
-3.31689e-05
-0.000228293
-0.000197009
-5.21362e-05
0.000251581
-1.48401e-06
8.84018e-06
-0.000265335
0.000257618
-0.000342214
0.000235753
0.000106182
0.000266371
-0.000236811
-2.95597e-05
0.000306949
-0.000315004
7.72193e-06
-2.57041e-05
-0.000229097
0.000254801
0.000261493
-7.64403e-06
1.00019e-05
-0.000207914
0.000262411
-3.19033e-05
-0.000230508
-6.90483e-05
-0.000260653
-0.000194685
0.000248025
-5.33402e-05
-0.000266533
0.000249985
1.65481e-05
-0.000318238
1.66681e-05
-1.69248e-05
0.000294032
-0.000278621
-0.000276221
1.65481e-05
0.000249537
-0.000167478
6.51038e-05
0.000273843
1.47807e-05
-0.000288623
-0.000315976
0.000307792
8.25532e-06
3.46641e-05
-0.000263649
0.000228985
-1.74936e-05
0.00028135
-0.000315071
1.65044e-05
-0.000176541
-7.42283e-05
-0.000228166
0.000197801
-2.16721e-05
-0.000216469
0.000238141
-0.000314393
0.000295572
1.88016e-05
-0.000131047
0.000270257
-0.000140221
-8.47449e-06
3.31521e-05
-0.000263453
0.000230301
-0.00020687
2.45895e-05
0.000175643
0.000221512
0.000280882
-0.000281114
2.71089e-07
-0.000236993
-2.20921e-05
0.000224813
-0.000202721
0.000139273
0.000143753
-0.000278517
0.000201881
-5.67652e-05
0.000308396
-1.04573e-05
0.000209278
-0.000268641
2.92853e-05
0.00022306
-0.000252345
-0.000321836
0.000138609
0.000296428
2.92518e-05
1.9367e-05
-0.000224355
-2.77845e-05
-0.000136273
-0.000133083
-0.000326032
0.000113492
0.000242873
2.56201e-05
0.000218765
-0.000224869
1.13023e-05
-0.000288393
0.000278667
-0.000243635
0.000270421
-2.73714e-05
0.000281318
-0.000281825
0.000286712
-7.77961e-05
-8.78251e-06
0.00029008
-1.87881e-05
0.000247101
-0.000228313
0.000281347
-0.000290171
-5.79963e-06
-0.000284365
0.000290179
0.000281938
-0.00026995
0.000284686
0.000226314
2.67597e-05
-0.000306167
0.000316319
-7.93516e-06
0.000251031
-2.11994e-05
0.000226935
2.41674e-05
-0.000268913
0.000246057
-2.05381e-05
-0.000259401
3.02849e-05
0.000229116
0.000178305
7.64963e-05
1.01477e-05
0.000281156
-0.0002919
-0.000238141
-2.88401e-05
0.000266981
2.51441e-05
-0.000263285
0.000284117
-0.000162317
-0.000232177
0.000261129
-2.89521e-05
-0.000234697
0.000260709
-2.60121e-05
1.38362e-06
0.000279469
2.45001e-05
-0.000259197
2.38001e-05
-0.000255977
0.000274256
-0.000242909
-3.13679e-05
0.000317895
-9.98056e-06
-0.000305903
-2.64852e-06
-0.000255753
1.1816e-05
0.000243937
-1.59013e-05
-0.000261185
0.000228065
-0.000245337
0.000270145
-2.48081e-05
-0.000263229
1.49801e-05
-2.36118e-05
0.000286552
-0.000262952
2.13641e-05
-0.000266701
-0.000241772
-2.12867e-05
3.26037e-05
-9.0432e-05
0.000260194
0.000281123
-0.000286821
5.05122e-05
0.000237693
0.000281839
-0.000281213
-0.000243181
-2.39401e-05
0.000267121
-0.000260894
7.34723e-06
-0.000297344
1.9973e-05
0.000277721
-0.000268717
2.55361e-05
-8.21166e-06
0.000290371
-0.000268326
0.000243548
2.47775e-05
-0.000232513
0.000210841
0.00027935
-0.000287652
-6.16002e-07
0.000260289
-0.000259673
-0.000302107
-1.61016e-05
-0.000264573
2.35481e-05
-0.00024417
-2.41555e-05
-3.43281e-05
-0.000298067
0.000293913
0.000286674
-0.000158327
0.000296901
-0.000291007
2.30152e-05
4.92213e-06
0.000262571
-0.000255265
-7.21458e-06
0.000307633
-2.03038e-05
-0.00028721
5.94929e-05
-0.000246765
-2.19521e-05
-0.00035648
0.000241913
0.000284135
-0.000279654
2.33801e-05
-0.000192327
-1.65529e-05
-0.000305227
2.53143e-05
0.000279523
-0.000197321
0.000310786
-0.000113992
0.000259841
-0.000238533
-2.13081e-05
-0.000291741
2.94001e-05
0.000222097
-0.000251497
-0.000170611
0.000150566
-0.000164763
0.000251441
-0.000238029
-1.34121e-05
-0.000263873
3.40201e-05
-2.23161e-05
-0.000269837
0.000251469
0.000230427
3.12901e-05
-4.44607e-05
0.000187049
0.000232619
-0.000260499
-1.72775e-05
-2.93597e-06
0.000246133
-0.00024164
-0.000293546
-0.000237049
0.000265189
-2.81401e-05
0.000230096
3.22225e-05
-0.000268521
2.55921e-05
-0.000239905
-2.86161e-05
0.000228954
-0.000260706
-0.000282933
4.73202e-05
-0.000242005
0.000293027
-0.000282886
-0.000286275
1.27822e-05
0.000274748
-6.34001e-06
0.000213042
0.000228551
-0.00026107
0.000296885
-0.0001309
-0.000165985
0.000242339
-0.000261156
0.000271689
-0.000226213
-1.76681e-05
-0.000167443
0.000309466
-0.000143799
2.49649e-05
0.000222662
-0.000247627
-0.000192984
0.00019225
-0.000283355
0.000281864
6.9321e-06
-0.000290929
-0.000302485
0.000146693
0.000155793
0.000259995
-0.000239359
-2.06361e-05
-0.000215741
0.000193649
0.00026215
4.23783e-07
0.000257293
0.000232526
2.16798e-05
-0.000295329
-6.2206e-05
1.00352e-05
0.000232161
-0.000248148
1.73754e-05
-0.000230917
-2.37161e-05
0.000254633
-0.000242295
0.000263191
-2.08965e-05
8.37117e-05
0.000136278
2.00701e-05
-0.000306507
0.0002847
0.000256565
-1.80041e-05
-0.000238561
0.000243881
-0.000254017
1.0136e-05
-0.000226745
0.000207957
0.000223131
-0.000258923
-0.000244693
4.76842e-05
1.5931e-05
-0.000137727
-0.000218761
1.57921e-05
0.000245701
0.000279722
0.000295014
0.000305948
1.73401e-06
0.000249817
-0.000220417
2.51749e-05
0.000225009
-0.000250184
-0.000243178
0.000268865
-2.56873e-05
2.28201e-05
-0.000262725
-0.000105444
0.000295883
9.15382e-06
2.08181e-05
0.000261675
-0.000235103
-2.65721e-05
1.30017e-05
-0.000303478
0.000290063
0.000320878
-3.07964e-05
-0.000290356
0.000249733
1.63241e-05
0.000305909
-0.000292981
-0.000230616
-0.000112418
9.63204e-06
0.000250657
-4.9129e-05
-0.00020239
0.000251519
2.20333e-05
0.000246832
-0.000241686
-2.29629e-05
0.000260737
-2.24001e-05
0.000287858
-0.000268023
2.63369e-05
2.68241e-05
-0.000257965
0.000210617
-0.000207677
2.58161e-05
-0.000262865
0.000280647
0.000121744
-0.000256173
0.000134429
1.86868e-05
3.90681e-05
0.000160155
-0.000205142
-0.000239485
-2.85377e-05
3.94448e-05
0.000164254
-0.000201111
-0.000246691
0.000271066
-2.43747e-05
0.000209866
-0.000248826
1.98857e-05
1.73443e-05
-0.000173622
-3.02891e-05
0.000226689
-0.000257414
-2.88401e-05
0.000244245
-0.000215405
-2.16161e-05
0.000242985
-0.000221369
0.000201657
-0.000250786
-0.000273646
-0.000232905
-2.55081e-05
0.000258413
0.000241234
2.98318e-05
-0.000209628
-2.44686e-05
0.000234012
-2.18821e-05
-0.000224967
-0.000239345
6.28042e-05
0.000259004
-0.000229718
4.75106e-05
-0.000249901
-3.43393e-05
0.000257694
-0.000223354
0.000205675
-0.000240014
0.000261689
-1.1956e-05
-6.06763e-05
-0.000229573
-0.000225411
-1.75631e-05
0.000243187
0.000247109
5.3175e-05
0.000212448
-0.000265623
-0.000261091
0.000177353
-0.000231757
5.44042e-05
6.49379e-05
0.000137829
0.000259457
-0.000240915
-2.47224e-05
-0.000265385
0.000227165
3.82201e-05
-2.87813e-05
-0.000222158
0.00025094
-0.000284954
0.000264161
0.000234501
3.61761e-05
2.18821e-05
0.000234087
-0.000307217
0.000151089
0.000156129
0.000169121
-5.25048e-05
0.000254045
-0.000115192
2.56901e-05
0.000217446
-0.000243136
-0.000286504
0.000286784
9.21403e-06
0.000257377
-0.000245953
0.000208937
3.70161e-05
0.000254832
0.000245472
-1.95881e-05
-0.000246815
-2.02161e-05
-0.000263019
2.0724e-05
-0.000269215
2.24001e-05
2.79601e-05
0.000220024
-0.000247984
0.000242481
-0.000274597
1.32721e-05
0.000248017
-1.38969e-05
1.25887e-05
-0.000249793
-0.000328771
0.000124091
-0.000233135
-2.62109e-05
-0.000252113
0.000252113
0.000259782
-0.000144217
-1.82906e-05
-0.000277962
0.000296858
0.000279343
0.000258749
-0.000135913
0.000224113
2.39205e-05
0.00023468
7.80217e-05
-0.000340533
3.78919e-05
0.000258962
1.76363e-05
-0.000248843
-3.00917e-05
0.000207453
-3.01001e-05
0.000259701
2.95429e-05
0.000218353
-0.000247896
-3.05014e-05
-4.09782e-05
-0.000217818
0.000258797
-0.000233423
-2.14173e-05
3.75845e-05
-0.000200209
0.000162668
-3.30877e-05
0.000221671
-0.000255943
-0.000282048
-8.45033e-06
0.000290413
-0.000192895
0.000159381
0.000166349
8.16763e-05
1.27834e-05
-0.000294841
0.000235075
2.59446e-05
-0.000261019
-0.000194717
-1.54959e-06
0.000232743
-0.000264287
3.15449e-05
-8.42803e-06
-0.000217029
0.000225457
-0.000163401
0.000200952
-0.000249985
-3.46025e-05
0.000256274
0.000218076
-0.000252679
-0.000246289
0.000272245
-2.59561e-05
0.000253547
2.78321e-05
-0.000232062
-2.95821e-05
-0.000297766
0.000316507
-1.81004e-05
2.32694e-05
0.000212462
-0.000250254
-0.000267233
2.09441e-05
-2.12801e-05
-0.000245953
-3.61481e-05
0.00024861
-0.000290577
-1.36923e-05
0.00022082
-0.000256968
0.00024746
-0.00024967
1.83113e-06
2.80002e-06
0.000181413
-0.000184213
0.000255294
0.000234529
2.67681e-05
-2.62361e-05
0.000245001
-0.000218765
3.36001e-05
0.000216609
-0.000250209
0.000244861
2.73841e-05
0.000306545
-0.000143949
-0.000162597
1.55989e-05
0.000237701
-0.000253111
0.000271013
-0.000113568
0.000225569
-0.000256677
-0.000241074
0.000104436
-0.000265469
7.16803e-06
-0.000241635
-2.75801e-05
-0.000241361
-2.48081e-05
0.000310065
-2.73808e-05
-7.67483e-05
0.000243097
-1.1452e-05
-0.000215601
0.000224281
-8.68003e-06
0.000255193
-7.68883e-05
3.39004e-05
-0.00019603
0.00015603
-0.000265245
-1.40001e-07
-4.14962e-05
3.95754e-05
0.000158113
-0.000196428
0.000190739
-0.000162374
0.000257041
-7.05603e-06
0.000251151
-0.000218277
-1.81749e-05
-2.1128e-05
0.000275479
-9.43347e-05
-0.000177862
-1.42801e-05
-0.000191913
0.000206193
0.000258665
-1.53553e-05
-0.00024331
1.98101e-05
0.000238855
-0.000278625
-7.72163e-06
3.70175e-05
-0.00019258
0.000155367
1.36921e-05
0.000247997
-0.000159602
0.0001949
-1.95189e-05
0.000248711
3.36014e-05
0.000186938
-0.00022158
-4.17202e-06
-2.49389e-05
0.000265108
-0.000231955
-3.14693e-05
0.000296866
-0.000281609
-1.53753e-05
1.63717e-05
-0.000237659
0.000221288
-0.00010514
0.000226885
1.93218e-05
-0.000305496
0.000285635
2.52001e-05
-2.79441e-05
2.69165e-05
0.000308728
-0.000289793
0.000238891
1.97345e-05
2.15601e-06
0.000231617
-0.000233773
-0.000309972
2.55544e-05
0.000284576
-0.000162177
-0.000144145
0.000209178
-0.000250156
-0.000169883
0.000241924
1.90317e-05
0.000256646
-4.13534e-05
0.000250531
0.000214498
-0.000255851
0.000318476
-0.000318783
-1.09804e-05
0.000288107
-0.000278
-0.00030315
1.96978e-05
0.000282936
4.20842e-05
-0.000286413
-3.9863e-05
0.000252483
2.62921e-05
-2.23038e-05
0.00030831
-0.000285221
2.43321e-05
3.9501e-05
0.000159913
-0.000199752
0.000249294
-0.000219751
2.83277e-05
-0.000261633
4.36802e-06
-2.00065e-05
0.000307263
-0.000286993
-0.000250987
-0.000266673
3.07441e-05
0.000252141
-0.000236741
-1.54001e-05
1.2264e-05
0.000239877
-0.000273928
-1.26864e-05
0.000255697
-6.61503e-06
0.000319048
-1.18899e-05
0.000298857
-0.000287026
-4.58127e-05
0.000247437
-0.000235621
0.000257601
-1.99361e-05
0.000128144
8.46343e-05
-0.000212349
0.000219732
3.03493e-05
0.000226759
-0.000258662
3.71393e-05
0.000269418
-0.000287828
1.63757e-05
0.000251273
-0.000239093
-1.31321e-05
0.000252225
-2.91201e-05
-0.000257265
2.56481e-05
0.000231617
-0.000228005
-2.92601e-05
0.000259765
-0.000233571
-2.61941e-05
0.000258721
-0.000265453
2.70164e-06
0.000289194
1.25108e-06
-0.000289202
0.000247026
-0.000231107
-1.85921e-05
0.000308781
-0.000300768
-8.06011e-06
0.000267502
-0.000100666
-0.000266897
2.56761e-05
0.000241221
-3.48881e-05
-0.000232009
-0.000266393
2.51161e-05
0.000241277
-1.21384e-05
-0.000267696
0.000278474
-3.45241e-05
-0.000231869
-0.000261951
1.80631e-05
-0.000266281
2.43881e-05
0.000241893
-0.000285165
-2.20154e-05
-0.000306255
2.75985e-05
0.000278672
-3.34041e-05
-0.000232877
-0.000173829
-0.000258133
2.94001e-05
0.000228733
0.000308486
-0.000308831
-0.000195805
0.000209049
-3.29281e-05
-0.000225205
0.000197624
-0.000279243
8.17582e-05
0.000283867
2.22219e-05
-0.000301953
1.76961e-05
0.000285574
-0.000280512
-4.4281e-06
-0.000257125
0.000231617
2.55081e-05
0.000171025
2.85758e-05
-0.000199201
-0.000266953
2.81681e-05
0.000238785
-0.000227361
-2.97641e-05
-3.67361e-05
-0.000230217
0.000274903
0.000297755
1.91909e-05
-0.000276753
-3.21788e-05
0.000309502
-0.000258679
-1.10368e-05
0.000297554
-0.000286928
1.5014e-05
-0.000302226
0.000287286
-0.000230609
-0.000307512
0.000287778
0.000263005
-2.54674e-05
-0.000280786
1.36081e-05
0.000159723
0.000229108
1.85267e-05
-0.000249381
-0.000202329
0.000163178
0.000236738
1.31517e-05
-0.00024989
-0.00025833
2.66093e-05
0.000231721
-1.09228e-05
0.000247661
5.74002e-06
0.000246877
-3.19817e-05
-0.000226348
0.000299582
-0.000285748
-1.38264e-05
0.000228024
-0.000226666
0.000289806
0.000237685
1.98521e-05
-0.000257537
-1.24236e-05
0.000250108
0.000246636
1.50389e-05
-0.000306214
1.5485e-05
0.00024448
2.18905e-05
3.23154e-05
-0.000198989
-0.000287853
-1.78032e-05
-0.000182869
0.000295177
-0.000150308
0.000183485
-3.32246e-05
3.11446e-05
-0.000198412
0.00016605
-0.000165386
0.000259149
-0.000239236
-1.99137e-05
0.000258924
-0.000273889
-0.000241734
0.000233124
-2.1908e-05
0.000301385
-0.000279478
0.000308317
-0.000293097
0.000242117
1.77241e-05
-0.000224975
0.00024443
-1.94545e-05
1.61001e-05
-0.000241075
-7.00003e-06
0.000260989
-0.000297039
4.79986e-06
0.000292208
-0.000174497
0.000160217
-1.74105e-05
-6.20371e-06
-0.000290895
-1.68254e-05
-0.000285112
4.28402e-06
-0.000303622
0.000137094
-0.000257473
2.36589e-05
0.000233789
0.000238197
1.32441e-05
-3.08202e-05
-0.00022662
-3.31961e-05
-0.000293075
2.05986e-05
-0.000227757
0.000206908
0.000254969
-0.000233465
-2.15041e-05
-0.000198253
0.000218286
-0.00018724
-7.58909e-06
0.000202244
0.000138024
0.000142614
3.95082e-06
0.000270889
0.000279961
-0.000305418
2.8587e-06
0.000245139
-1.98593e-05
0.000298937
-0.000278929
-0.000302022
0.000287198
1.48158e-05
-0.000258301
0.000230077
2.82241e-05
-2.64041e-05
-0.000231897
0.000303444
-0.000302973
0.000267505
-2.00434e-05
0.00030471
-0.000284701
0.000286338
-5.05814e-07
-0.000256873
0.000256873
-0.000268252
0.00029582
-0.000145398
-6.63759e-05
-6.81261e-06
0.000295317
-0.000288075
-0.000297723
0.000290676
0.000291921
-0.000279073
0.00029076
-0.000306067
1.45734e-05
3.45737e-05
-0.000240128
0.000215672
2.30929e-05
-1.43815e-05
-0.000247118
0.000230742
-1.43301e-05
0.000297831
-0.000283583
0.000263481
-1.96001e-05
0.000254224
-0.000235464
-1.87601e-05
-3.10236e-05
-0.000273869
0.000304874
1.44126e-05
-0.000297234
0.000282928
-1.45881e-05
0.000233465
-0.000218877
0.000203507
-0.000295285
0.000283254
-1.92042e-05
0.000304389
-0.000285092
0.00025102
-2.69659e-05
0.00029718
-0.00027026
-0.000295717
0.00026903
1.07156e-05
0.000244749
-0.000255465
0.000305218
-0.000311883
6.7132e-06
1.83086e-05
1.4552e-05
0.000287768
-0.000302661
6.3327e-06
0.000284414
2.32769e-06
-0.000318549
-0.000290336
0.000304987
-0.000242481
0.000243657
8.45603e-06
-0.0002264
0.000242772
-0.000293046
0.000273929
0.000282902
-0.000152675
-8.37017e-05
0.000293937
1.45616e-05
3.19837e-05
-0.000197991
0.000167794
-0.000274234
0.000257293
-0.000219535
0.00024982
0.000243411
1.92865e-05
-0.000262697
0.000236019
2.31309e-05
-0.000301495
0.00028322
0.000311891
-1.79882e-05
0.000237945
-0.000257069
1.91241e-05
-0.000222494
0.000247459
0.000293983
1.80852e-05
-0.00016903
-1.4497e-05
0.00029822
-0.000283545
-0.000143882
-0.000266415
0.000159993
0.000106423
-0.000309435
0.000295778
1.36936e-05
-0.000258699
0.000241826
1.68729e-05
-0.000153559
0.00015551
-0.000306382
0.000288117
1.77324e-05
-0.00021606
0.000178039
-9.69084e-06
0.000253101
2.04875e-05
1.75488e-05
-0.000303719
0.000286536
-0.000301177
-7.22897e-06
0.000308603
-0.000249229
0.000220109
-0.000201153
-8.52603e-05
-0.000272868
0.000249244
0.000303833
-0.0002858
-0.000191264
1.80561e-05
1.49917e-05
0.000284132
-0.000299022
-8.80603e-05
0.000239233
-0.000303237
1.94309e-05
0.000283689
-0.000209005
-2.77563e-06
-0.000297625
-0.000167919
2.05297e-05
0.000302596
-0.000287669
-1.46156e-05
-0.000176863
-0.000299291
-0.000174316
-2.24687e-05
0.000243528
0.000290043
1.71159e-05
0.000252869
5.7532e-05
-0.000284829
-0.000247213
-0.000270679
-2.31982e-05
-0.000273916
0.0002992
-0.000264321
0.000284213
-0.000160257
-4.09059e-05
0.000203036
0.000197569
1.56521e-05
-0.000213221
-1.26317e-05
-0.000285253
0.000297815
1.83597e-05
1.86648e-05
-0.000305183
0.000286832
0.000253345
-1.71361e-05
-0.000236209
1.89311e-05
-0.000304892
0.000285891
2.03561e-05
0.000232989
0.000216385
-2.46121e-05
-0.000191773
1.58017e-05
0.000282469
-0.000298444
-0.000252546
0.000117798
-0.000304149
1.87128e-05
0.000285387
0.000222438
-5.13072e-05
-0.000295849
1.10402e-05
0.000286772
0.000255837
-2.19801e-05
-0.000233857
-0.000302701
0.000106131
0.000234529
1.70521e-05
-0.000251581
0.000279929
1.68259e-05
0.000304131
-0.000285215
1.76471e-05
-0.000299585
0.000233512
1.84916e-05
-0.000252004
-1.90207e-05
-1.42351e-05
0.000298181
-0.000283944
-0.000280347
0.000299538
-0.000279373
0.000289333
-0.000302609
1.28134e-05
0.000249741
-1.62291e-05
1.17134e-05
0.000250041
-1.55121e-05
0.000298724
-0.00028302
3.95922e-05