/*--------------------------------*- C++ -*----------------------------------*\
  =========                 |
  \\      /  F ield         | OpenFOAM: The Open Source CFD Toolbox
   \\    /   O peration     | Website:  https://openfoam.org
    \\  /    A nd           | Version:  12
     \\/     M anipulation  |
\*---------------------------------------------------------------------------*/
FoamFile
{
    format      ascii;
    class       volVectorField;
    location    "3.56";
    object      U;
}
// * * * * * * * * * * * * * * * * * * * * * * * * * * * * * * * * * * * * * //

dimensions      [0 1 -1 0 0 0 0];

internalField   nonuniform List<vector> 
22702
(
(2 -2.2186e-13 0)
(2 3.81951e-14 0)
(2.05557 -0.0845828 0)
(2 -1.14727e-09 0)
(1.97575 0.0322959 0)
(2 8.27003e-14 0)
(1.82778 0.228287 0)
(2 -1.93244e-13 0)
(2 -1.70625e-13 0)
(2.08114 -0.272 0)
(1.82969 0.228941 0)
(1.82608 0.228096 0)
(2 -1.85256e-13 0)
(1.83152 0.228919 0)
(2.04324 -0.07049 0)
(2 -2.02599e-13 0)
(2 -3.13135e-13 0)
(2 7.32972e-14 0)
(1.82935 0.229035 0)
(2 -4.85803e-14 0)
(1.83189 0.228929 0)
(2 -9.57968e-14 0)
(1.83164 0.229319 0)
(2.08596 -0.256379 0)
(1.83128 0.228596 0)
(2.1428 -0.258039 0)
(2 -1.58781e-13 0)
(1.83086 0.229165 0)
(2.11006 -0.265039 0)
(2.08729 -0.259793 0)
(2 4.78141e-14 0)
(1.82641 0.228368 0)
(2 4.38323e-14 0)
(2 -5.16079e-14 0)
(2 3.56452e-14 0)
(1.84436 0.214843 0)
(1.83224 0.227404 0)
(1.83123 0.229092 0)
(2 -2.58033e-13 0)
(2 -3.27536e-13 0)
(2.11447 -0.271268 0)
(2 -1.27062e-14 0)
(1.91633 0.126009 0)
(2 -1.61453e-13 0)
(1.83151 0.229346 0)
(2 -8.38627e-14 0)
(2 -2.01673e-13 0)
(2 -1.15287e-13 0)
(2 -1.86715e-13 0)
(2.11118 -0.263594 0)
(2 -4.10389e-14 0)
(2.09838 -0.262499 0)
(2 -1.89971e-13 0)
(1.8298 0.228922 0)
(2 8.41488e-14 0)
(1.82946 0.229241 0)
(2 -1.93417e-13 0)
(2 1.2772e-09 0)
(2 8.80438e-14 0)
(2 -5.89965e-14 0)
(2.15323 -0.257706 0)
(2 -2.81141e-15 0)
(2 6.15453e-15 0)
(2.11257 -0.262274 0)
(2 7.92513e-15 0)
(2.10989 -0.262961 0)
(2 -8.22644e-14 0)
(2 -2.28597e-13 0)
(2 4.0513e-14 0)
(2.12171 -0.265626 0)
(2 9.32552e-15 0)
(1.82975 0.228471 0)
(1.89605 0.151088 0)
(2 7.47308e-10 0)
(1.8295 0.228615 0)
(1.81983 0.23597 0)
(2.10756 -0.264207 0)
(1.82818 0.228027 0)
(2.11043 -0.265018 0)
(2 -7.88456e-14 0)
(1.82994 0.229135 0)
(2.09926 -0.261752 0)
(1.83062 0.229016 0)
(1.83103 0.229002 0)
(2 -1.33431e-13 0)
(2 8.7876e-07 0)
(2 -3.99227e-14 0)
(2 -9.35807e-14 0)
(2.03403 -0.0395878 0)
(2.10148 -0.268086 0)
(1.82934 0.22863 0)
(2 -1.01889e-13 0)
(2 -5.682e-11 0)
(2.08783 -0.273647 0)
(2 -1.67415e-14 0)
(1.83139 0.229308 0)
(2.08609 -0.272848 0)
(2 2.41347e-08 0)
(2 7.87505e-15 0)
(2 -2.88242e-13 0)
(2 -2.0088e-13 0)
(1.91492 0.127656 0)
(1.82979 0.229151 0)
(2.13566 -0.258844 0)
(2 3.93515e-10 0)
(2 -9.25069e-10 0)
(1.95888 0.0588156 0)
(2 9.56042e-09 0)
(2.10434 -0.262093 0)
(2 -2.35776e-13 0)
(1.82782 0.228126 0)
(1.82962 0.228902 0)
(2 4.11207e-09 0)
(2 -6.54916e-14 0)
(2.14633 -0.264975 0)
(2.14437 -0.262557 0)
(2.09359 -0.26862 0)
(2 2.89477e-14 0)
(2 -1.47685e-07 0)
(2 -4.93362e-14 0)
(2 -4.82025e-14 0)
(2 1.07612e-07 0)
(2.03968 -0.0520329 0)
(2 -9.90951e-08 0)
(1.85587 0.20145 0)
(1.98001 0.0203054 0)
(1.829 0.228289 0)
(2 -1.52443e-13 0)
(1.82838 0.228379 0)
(1.82936 0.22917 0)
(1.83151 0.228624 0)
(1.83039 0.228862 0)
(2 -1.18676e-13 0)
(2.15253 -0.255772 0)
(2 2.43742e-14 0)
(2.1154 -0.265542 0)
(2 -4.35987e-15 0)
(2 1.48106e-14 0)
(2 -3.99026e-14 0)
(2 1.0961e-14 0)
(1.82967 0.229064 0)
(2 3.08202e-09 0)
(2 5.38146e-14 0)
(2 -1.32022e-13 0)
(2 5.44463e-14 0)
(1.83179 0.229276 0)
(2 -4.51281e-14 0)
(1.99461 0.0138104 0)
(2 2.68521e-14 0)
(2 -2.28398e-13 0)
(2 -6.58975e-11 0)
(2 -5.16317e-14 0)
(2.11311 -0.261823 0)
(2 4.94237e-16 0)
(1.99536 0.00870321 0)
(2 -4.78758e-15 0)
(2.10367 -0.263043 0)
(2 9.87522e-15 0)
(2 -1.01165e-13 0)
(2 -2.93802e-15 0)
(1.82879 0.229161 0)
(2 -8.309e-15 0)
(1.83162 0.229085 0)
(2.12426 -0.278049 0)
(2.15673 -0.254289 0)
(1.82873 0.228072 0)
(1.83003 0.228659 0)
(2 -4.12145e-16 0)
(1.96756 0.0486011 0)
(1.90349 0.14041 0)
(2 4.86203e-15 0)
(1.83368 0.22882 0)
(2.11419 -0.266504 0)
(1.84445 0.214553 0)
(2 -3.00849e-14 0)
(2 1.02526e-13 0)
(2 -2.65296e-14 0)
(2 -7.5906e-14 0)
(1.83159 0.22917 0)
(1.86234 0.190375 0)
(2 -1.84091e-13 0)
(1.82988 0.228302 0)
(2.11705 -0.261701 0)
(1.83285 0.228927 0)
(2 -1.95588e-13 0)
(2.13579 -0.262769 0)
(2 -1.53754e-13 0)
(2.09797 -0.262602 0)
(2.14462 -0.255922 0)
(2.00009 -0.000143401 0)
(2 -3.08984e-13 0)
(2 2.51345e-14 0)
(1.82924 0.229754 0)
(2 4.21168e-14 0)
(2 -2.61033e-13 0)
(1.83192 0.228782 0)
(2 -1.73479e-13 0)
(1.82927 0.228836 0)
(1.82956 0.228399 0)
(2.10349 -0.284051 0)
(2 4.35741e-14 0)
(2 -1.29244e-13 0)
(2.10426 -0.263069 0)
(1.83173 0.228811 0)
(2 -4.50603e-14 0)
(2 -7.75531e-15 0)
(2 3.25424e-14 0)
(1.83171 0.229065 0)
(2 -2.96378e-14 0)
(2.10849 -0.264611 0)
(2 -5.99661e-11 0)
(2 -3.96003e-14 0)
(1.83165 0.228991 0)
(1.8313 0.22902 0)
(1.82861 0.228384 0)
(2 -3.16386e-14 0)
(1.99999 2.49378e-05 0)
(2 3.41293e-14 0)
(2 3.85247e-14 0)
(2 -9.91941e-14 0)
(1.83166 0.229094 0)
(2 7.79634e-14 0)
(2.11573 -0.260881 0)
(1.82293 0.234251 0)
(1.83175 0.228606 0)
(1.83176 0.228437 0)
(2 1.96443e-07 0)
(2 -2.58523e-14 0)
(2 -2.64869e-13 0)
(2.12136 -0.271066 0)
(1.83205 0.228735 0)
(1.92957 0.122653 0)
(2 5.15504e-14 0)
(1.83078 0.229526 0)
(2.11566 -0.262986 0)
(2.11406 -0.262107 0)
(1.83091 0.229589 0)
(1.83134 0.227475 0)
(2 -6.82217e-14 0)
(1.83017 0.231135 0)
(2.12357 -0.269714 0)
(1.85094 0.206909 0)
(2 -1.67737e-13 0)
(2 -1.73975e-13 0)
(2 -2.51355e-13 0)
(2 -1.72465e-13 0)
(1.83205 0.229088 0)
(2 -3.69815e-14 0)
(1.90367 0.14811 0)
(1.98474 0.0269548 0)
(2 -5.57925e-14 0)
(2 -5.53819e-14 0)
(1.8319 0.229261 0)
(2.08856 -0.272316 0)
(2.09874 -0.159845 0)
(2 -6.74996e-14 0)
(1.83182 0.228501 0)
(2.10799 -0.265188 0)
(1.82984 0.232411 0)
(2 -4.40385e-14 0)
(2 6.82251e-14 0)
(2 -2.45261e-13 0)
(2 -2.05013e-14 0)
(2 -1.47433e-13 0)
(2 -1.90572e-13 0)
(2 -2.51533e-13 0)
(2.11587 -0.266842 0)
(2.09187 -0.156893 0)
(2.11544 -0.264581 0)
(1.8315 0.228951 0)
(2 1.28937e-14 0)
(2 -7.59524e-14 0)
(2 -1.57347e-07 0)
(2 -2.02347e-13 0)
(1.84542 0.212101 0)
(2 -1.31845e-07 0)
(2.11604 -0.266235 0)
(2 -3.36392e-14 0)
(2.11159 -0.282531 0)
(2.1101 -0.264866 0)
(1.83195 0.229118 0)
(2.0997 -0.26548 0)
(1.83193 0.228956 0)
(2 -9.58515e-14 0)
(2 -2.447e-13 0)
(2 -1.72657e-13 0)
(2.00087 -0.00155939 0)
(2.13624 -0.267033 0)
(2.09641 -0.284199 0)
(2 -2.93924e-07 0)
(2 -1.37409e-07 0)
(2.1208 -0.283184 0)
(2 2.44445e-09 0)
(1.82921 0.229076 0)
(2.12162 -0.257187 0)
(2 2.02223e-14 0)
(2 -3.15076e-11 0)
(1.83023 0.228976 0)
(2.0962 -0.277717 0)
(2 -1.66517e-13 0)
(1.828 0.23356 0)
(2.15879 -0.258506 0)
(1.83184 0.229171 0)
(2 -3.35107e-13 0)
(2.10639 -0.286869 0)
(2.00089 -0.00145879 0)
(2 -1.24269e-13 0)
(2 2.54757e-06 0)
(2 6.22315e-14 0)
(2.10913 -0.266521 0)
(2 -1.08431e-13 0)
(2 -1.65023e-07 0)
(2 -8.19761e-07 0)
(1.99999 1.23448e-05 0)
(1.9927 0.00893103 0)
(1.89663 0.149869 0)
(2 -2.48642e-11 0)
(2.14058 -0.243074 0)
(2 -1.60992e-11 0)
(2 1.67736e-06 0)
(2 -2.45455e-13 0)
(2 -6.47048e-15 0)
(2 -2.83108e-14 0)
(2 4.68185e-14 0)
(2 -9.44674e-13 0)
(1.83023 0.228948 0)
(2 2.97604e-13 0)
(1.82946 0.228581 0)
(2 2.0851e-13 0)
(2 -4.27981e-14 0)
(2 -1.83442e-14 0)
(2.12202 -0.258744 0)
(2 3.6359e-14 0)
(1.8322 0.229407 0)
(2.11137 -0.265044 0)
(2 1.81263e-14 0)
(1.86174 0.199156 0)
(2 1.1167e-14 0)
(2 -1.35021e-13 0)
(1.82963 0.228854 0)
(2 -6.22463e-14 0)
(2 -8.14445e-09 0)
(2 -1.62289e-14 0)
(1.83077 0.227838 0)
(2 4.64885e-10 0)
(2 -6.15091e-14 0)
(1.83418 0.22256 0)
(1.82988 0.229009 0)
(2 -1.60208e-13 0)
(1.96479 0.057651 0)
(2 -2.20272e-14 0)
(2 8.30661e-14 0)
(2.10754 -0.267398 0)
(2 3.63488e-14 0)
(2 -1.85573e-13 0)
(2 -1.45439e-13 0)
(2.08644 -0.271711 0)
(2 -5.70186e-14 0)
(2 -4.64699e-14 0)
(2 4.81049e-15 0)
(2 2.419e-13 0)
(2.14865 -0.25148 0)
(2 -4.35048e-14 0)
(2 1.50675e-13 0)
(2 3.06622e-14 0)
(2 5.49071e-14 0)
(2 -2.11985e-13 0)
(2.09812 -0.270848 0)
(1.99998 3.8819e-05 0)
(1.8307 0.228505 0)
(2 4.45097e-14 0)
(1.99999 -4.18922e-05 0)
(1.8297 0.228305 0)
(1.82877 0.228272 0)
(2 6.93414e-14 0)
(2 1.49135e-14 0)
(2.09428 -0.269946 0)
(2.05114 -0.137517 0)
(1.8291 0.228797 0)
(2 -9.62564e-14 0)
(2 6.92087e-15 0)
(2 9.28314e-14 0)
(1.83193 0.229061 0)
(2.12814 -0.261644 0)
(2 1.84515e-14 0)
(1.83132 0.228838 0)
(2 1.40361e-14 0)
(2 -2.17755e-14 0)
(2.09525 -0.222567 0)
(2.08834 -0.22239 0)
(2 -2.33618e-13 0)
(2.12956 -0.265391 0)
(2.12213 -0.258933 0)
(2 -1.85989e-13 0)
(2 -7.2702e-14 0)
(2 -9.69459e-14 0)
(2 6.48092e-14 0)
(2 -9.25964e-11 0)
(2 -1.82977e-13 0)
(2 -1.73905e-13 0)
(1.83039 0.228405 0)
(1.95621 0.0595728 0)
(1.83262 0.224676 0)
(2.10081 -0.266713 0)
(2.03151 -0.0641234 0)
(1.82981 0.229183 0)
(2 -6.43493e-13 0)
(1.82956 0.228695 0)
(1.82893 0.228876 0)
(2.12531 -0.266303 0)
(2.07816 -0.153296 0)
(2 5.6268e-13 0)
(2.10972 -0.264962 0)
(2 -7.8785e-14 0)
(1.82112 0.233619 0)
(2 -1.00564e-13 0)
(2 -2.5055e-14 0)
(2 -1.8727e-13 0)
(2 5.68609e-14 0)
(1.83186 0.228881 0)
(2 7.26252e-14 0)
(2 -3.29386e-14 0)
(2 -5.87408e-14 0)
(2 1.55525e-09 0)
(2 -4.90943e-14 0)
(2 -7.64569e-14 0)
(2 -3.07103e-13 0)
(1.93895 0.0908276 0)
(1.82968 0.229556 0)
(2 1.39337e-13 0)
(1.83148 0.228915 0)
(2 1.94717e-14 0)
(2 2.34602e-13 0)
(2.10117 -0.262054 0)
(2 1.3143e-13 0)
(2 8.48411e-15 0)
(2 -3.36847e-13 0)
(2 2.82631e-14 0)
(1.83158 0.229031 0)
(1.87026 0.182856 0)
(2 -1.43452e-13 0)
(2 -1.46083e-13 0)
(2.12871 -0.260732 0)
(1.83147 0.228639 0)
(1.83164 0.22896 0)
(2 4.27338e-14 0)
(1.83169 0.228962 0)
(1.83182 0.228709 0)
(1.83135 0.22892 0)
(2 -1.08564e-13 0)
(2.03582 -0.120316 0)
(2 -3.11019e-14 0)
(1.83193 0.228724 0)
(1.99785 -0.0112815 0)
(1.8314 0.228914 0)
(2 4.48735e-15 0)
(2.11811 -0.264974 0)
(2.00037 -0.000574737 0)
(1.83077 0.229032 0)
(2 -5.09167e-14 0)
(2 -8.6358e-15 0)
(2 -5.97795e-11 0)
(2 -1.98128e-11 0)
(2.11444 -0.26397 0)
(1.83198 0.228853 0)
(1.84793 0.211417 0)
(2 4.6562e-14 0)
(1.83021 0.230565 0)
(1.83186 0.228951 0)
(1.82917 0.229045 0)
(2 -6.00636e-14 0)
(1.91925 0.128326 0)
(1.83269 0.228718 0)
(2 -3.13497e-13 0)
(2 4.94165e-14 0)
(1.88353 0.16589 0)
(1.97892 0.0357713 0)
(1.83143 0.229084 0)
(2.03453 -0.0461572 0)
(1.83137 0.229069 0)
(2 -2.09375e-14 0)
(1.83126 0.229142 0)
(1.83156 0.228943 0)
(1.83125 0.229116 0)
(1.83132 0.228668 0)
(2 -1.3007e-14 0)
(1.83884 0.231401 0)
(2.03019 -0.0675963 0)
(2.03522 -0.083824 0)
(2 3.40432e-14 0)
(2 -3.55344e-07 0)
(2 -8.99723e-14 0)
(2 -2.22849e-13 0)
(1.83168 0.228111 0)
(2 -1.81436e-13 0)
(2 -1.21766e-13 0)
(2 -5.49859e-15 0)
(2 1.01944e-14 0)
(2 5.11604e-14 0)
(1.8298 0.228741 0)
(2 8.36592e-14 0)
(2 -4.06835e-14 0)
(2.00167 -0.00278235 0)
(1.83169 0.228971 0)
(1.85998 0.194879 0)
(2 -2.21002e-13 0)
(1.87204 0.185378 0)
(1.99998 2.71713e-05 0)
(2 3.62175e-14 0)
(2 -3.02361e-13 0)
(1.83132 0.228801 0)
(2 -1.66244e-14 0)
(2.00162 -0.0019707 0)
(1.99804 0.00448838 0)
(2 4.55642e-14 0)
(1.83169 0.228828 0)
(2 -9.32396e-14 0)
(1.83206 0.228599 0)
(2 8.80275e-14 0)
(2 1.06433e-13 0)
(1.87624 0.178235 0)
(2 6.32554e-14 0)
(1.83208 0.22854 0)
(1.99999 1.28207e-05 0)
(2 8.77474e-14 0)
(1.83145 0.229376 0)
(2 -1.06192e-13 0)
(1.83165 0.228956 0)
(2 -3.47545e-14 0)
(2 3.01163e-06 0)
(2 -1.15498e-13 0)
(1.83205 0.228989 0)
(2 -2.96853e-14 0)
(1.83137 0.227908 0)
(2 4.74948e-06 0)
(1.83201 0.229081 0)
(1.83058 0.229117 0)
(1.83174 0.229142 0)
(1.83113 0.228832 0)
(2 6.42116e-14 0)
(1.83058 0.228532 0)
(1.83917 0.224308 0)
(2 6.49634e-14 0)
(2.08924 -0.262734 0)
(1.84151 0.217719 0)
(1.87963 0.171848 0)
(2 8.7284e-14 0)
(1.83183 0.228806 0)
(2 -3.09834e-14 0)
(2.0963 -0.268813 0)
(2.15391 -0.259395 0)
(2 -6.93591e-14 0)
(2 7.01119e-14 0)
(2 1.47097e-13 0)
(2 -1.96607e-13 0)
(2 1.52395e-09 0)
(2.08391 -0.272967 0)
(2 -1.08424e-13 0)
(1.83149 0.228889 0)
(1.95156 0.071844 0)
(1.83129 0.228696 0)
(2 -1.75289e-13 0)
(2 8.0766e-11 0)
(2 -2.34206e-13 0)
(2 -1.211e-13 0)
(2 -5.98722e-08 0)
(1.8315 0.229001 0)
(2 -3.15325e-13 0)
(1.83141 0.227508 0)
(1.89873 0.148667 0)
(2.06157 -0.159782 0)
(2 1.36531e-09 0)
(1.99999 8.59151e-06 0)
(1.95295 0.0751246 0)
(1.958 0.0687132 0)
(2 7.71531e-14 0)
(2 -3.46744e-14 0)
(1.93784 0.092817 0)
(2 2.8548e-14 0)
(2.10581 -0.262128 0)
(1.83178 0.229046 0)
(1.83174 0.22895 0)
(2 -7.11714e-11 0)
(2 2.78951e-14 0)
(2 3.66368e-14 0)
(1.83 0.228989 0)
(2 -8.00408e-14 0)
(1.99999 1.65678e-05 0)
(1.83204 0.227961 0)
(1.83204 0.228634 0)
(2.01448 -0.0301971 0)
(2 -1.96027e-14 0)
(2 1.7356e-10 0)
(2.10746 -0.264957 0)
(1.84663 0.211544 0)
(2 1.63665e-13 0)
(2 2.13891e-14 0)
(2 -1.52886e-14 0)
(2 -2.98665e-11 0)
(2 -1.94549e-13 0)
(1.83163 0.228957 0)
(1.83128 0.228702 0)
(2 2.94476e-13 0)
(1.83177 0.229228 0)
(1.8315 0.229289 0)
(1.8318 0.229145 0)
(2 1.04902e-14 0)
(2 -2.41295e-14 0)
(2 -6.17979e-11 0)
(2 -6.58298e-14 0)
(2.1355 -0.251519 0)
(1.82969 0.22889 0)
(2 -4.39444e-11 0)
(2 7.92763e-14 0)
(1.84595 0.213037 0)
(1.83209 0.22839 0)
(2 -3.27706e-13 0)
(1.84176 0.217387 0)
(1.82815 0.228954 0)
(2 -3.53217e-14 0)
(2 -2.18953e-07 0)
(2 8.67143e-11 0)
(2 4.12924e-14 0)
(2 -3.28727e-13 0)
(1.83168 0.228842 0)
(2 1.65843e-13 0)
(2 -1.52424e-13 0)
(2 8.90138e-14 0)
(2 -2.19224e-13 0)
(1.83074 0.230738 0)
(2 -5.05848e-14 0)
(1.83102 0.234552 0)
(2.11334 -0.267614 0)
(2 1.30718e-13 0)
(2.12104 -0.264142 0)
(2 -7.30581e-14 0)
(2 -1.82799e-07 0)
(2 -9.84288e-14 0)
(2.00123 -0.00204873 0)
(2.10621 -0.259865 0)
(2.00032 -0.00049362 0)
(2 -1.36151e-13 0)
(2 2.62995e-14 0)
(2 -1.19006e-07 0)
(1.97608 0.0392293 0)
(2 -1.41599e-13 0)
(2 1.08585e-14 0)
(2.04973 -0.0856542 0)
(2 -2.08948e-07 0)
(2 -7.62705e-14 0)
(2 -1.57228e-15 0)
(2 -2.12913e-07 0)
(2 4.7849e-07 0)
(2 -1.70327e-07 0)
(2 -3.34702e-13 0)
(2 -1.6419e-06 0)
(2.02661 -0.0501302 0)
(2 -5.13667e-07 0)
(2 -4.49935e-08 0)
(2.0009 -0.00138159 0)
(2 2.95023e-14 0)
(2.1175 -0.262467 0)
(2 -2.899e-11 0)
(2 -4.24474e-12 0)
(2 -3.49992e-11 0)
(2 1.15396e-13 0)
(1.87376 0.180122 0)
(2 -1.75342e-13 0)
(2 -3.20175e-13 0)
(2 -5.09843e-14 0)
(2 -1.55837e-07 0)
(2.11686 -0.265292 0)
(2 -2.07996e-15 0)
(2 1.40174e-09 0)
(1.84128 0.217336 0)
(1.83037 0.229185 0)
(2 -3.16799e-07 0)
(2 -2.446e-13 0)
(2 -1.07021e-07 0)
(2.02997 -0.0725422 0)
(2 8.39298e-14 0)
(2 4.45286e-10 0)
(2 6.76223e-14 0)
(2 -1.24579e-14 0)
(2 9.32745e-14 0)
(2 -9.2479e-14 0)
(2.0158 -0.0245226 0)
(1.99182 0.0107217 0)
(1.83162 0.229257 0)
(2 2.29558e-13 0)
(2 -7.309e-14 0)
(2 -5.79632e-14 0)
(1.83109 0.228003 0)
(2.04658 -0.062649 0)
(2 -4.98575e-09 0)
(2 -1.15091e-13 0)
(2 1.04229e-13 0)
(1.83141 0.229409 0)
(1.82964 0.228012 0)
(2 -3.07354e-08 0)
(2 5.14791e-06 0)
(2 3.66764e-09 0)
(2 -4.24463e-14 0)
(2 1.38614e-09 0)
(2 -8.98041e-14 0)
(2 -3.04091e-11 0)
(2 1.39294e-13 0)
(2 5.69963e-14 0)
(2.12261 -0.260785 0)
(2 -1.23589e-13 0)
(2 -1.52649e-11 0)
(1.82959 0.228743 0)
(2.1078 -0.263815 0)
(2 -2.53267e-13 0)
(1.82956 0.22788 0)
(2 7.00832e-11 0)
(2.11274 -0.261747 0)
(2 -3.8471e-14 0)
(2 -2.87636e-14 0)
(2.12238 -0.26243 0)
(2 -9.69581e-16 0)
(2 -1.17686e-11 0)
(2 -5.03699e-12 0)
(2 4.80981e-14 0)
(2 -2.62636e-12 0)
(2 -3.39571e-13 0)
(2 -3.77176e-14 0)
(1.83504 0.225619 0)
(1.83207 0.228773 0)
(2 3.87963e-13 0)
(2 6.28989e-14 0)
(2 6.97378e-14 0)
(2 5.68199e-13 0)
(1.84587 0.212939 0)
(2 4.2216e-13 0)
(1.94792 0.0786214 0)
(2.11101 -0.271926 0)
(2 -3.29312e-08 0)
(2 3.06219e-13 0)
(2 -4.15998e-14 0)
(2 -2.62157e-13 0)
(2 5.56911e-14 0)
(2 4.8284e-14 0)
(2 -6.09018e-14 0)
(1.98906 0.0227841 0)
(2 -9.00222e-14 0)
(2 -4.85812e-14 0)
(1.90452 0.120695 0)
(2 1.64332e-14 0)
(2 6.62138e-14 0)
(2 -1.25284e-13 0)
(1.861 0.192519 0)
(2 -2.75523e-13 0)
(2 -2.30733e-13 0)
(2 -2.74615e-13 0)
(2 -1.7084e-13 0)
(2.10624 -0.267349 0)
(2 2.92339e-12 0)
(2 -2.04416e-13 0)
(2.13124 -0.275416 0)
(2.10752 -0.266202 0)
(2 -2.88625e-14 0)
(2 6.43529e-14 0)
(1.83198 0.228897 0)
(2 -5.74412e-14 0)
(1.95616 -0.0185135 0)
(2 4.58786e-14 0)
(2 2.00453e-13 0)
(2 1.7536e-13 0)
(1.88248 0.166149 0)
(2.10632 -0.270893 0)
(2 -3.97712e-13 0)
(2.11002 -0.278102 0)
(2 1.59272e-13 0)
(2.07072 -0.148111 0)
(2 -2.34883e-13 0)
(2 -1.43308e-13 0)
(2 -2.30656e-13 0)
(1.83067 0.229643 0)
(2 -4.26584e-08 0)
(2 -2.9534e-13 0)
(1.83133 0.228833 0)
(2 -1.55828e-13 0)
(2 -2.28043e-11 0)
(2 1.65669e-09 0)
(1.83142 0.228735 0)
(2 2.32318e-10 0)
(2 2.71296e-14 0)
(1.83161 0.228792 0)
(2 -1.14342e-13 0)
(2 1.14846e-13 0)
(2.12495 -0.266304 0)
(2 -1.68369e-11 0)
(1.9473 0.081688 0)
(2 1.34626e-13 0)
(2 -4.08955e-14 0)
(1.83016 0.229027 0)
(1.82951 0.229255 0)
(1.88827 0.163849 0)
(1.84879 0.209895 0)
(2 -2.12125e-13 0)
(2.11797 -0.264811 0)
(2 2.83755e-14 0)
(2 1.92717e-14 0)
(1.83915 0.220112 0)
(2 7.15751e-14 0)
(2.11413 -0.26498 0)
(2 -1.48385e-13 0)
(2 3.82805e-14 0)
(2 -2.47113e-14 0)
(1.83138 0.229305 0)
(2 6.50546e-15 0)
(2 -2.30409e-14 0)
(2 3.27083e-14 0)
(2 -1.16668e-14 0)
(1.89751 0.149934 0)
(2 3.4949e-15 0)
(1.84053 0.209955 0)
(1.83019 0.22931 0)
(2.08287 -0.272722 0)
(2 -1.76504e-13 0)
(2 -1.07135e-14 0)
(2.1436 -0.254277 0)
(2.14586 -0.261015 0)
(2 -6.21733e-14 0)
(2 2.33001e-13 0)
(2 -5.34e-12 0)
(1.88126 0.168637 0)
(1.8724 0.181208 0)
(2 3.60092e-14 0)
(2 1.15921e-13 0)
(2 6.86156e-14 0)
(2 6.73518e-14 0)
(2 4.28298e-14 0)
(2 -4.3188e-14 0)
(2 2.57036e-14 0)
(1.92781 0.111677 0)
(1.83143 0.228938 0)
(1.99525 0.00921574 0)
(2 2.88604e-14 0)
(1.83393 0.226818 0)
(2.15516 -0.256595 0)
(2 1.57917e-13 0)
(2 1.90932e-13 0)
(2 7.17777e-14 0)
(1.90882 0.132404 0)
(2 4.96357e-14 0)
(1.96712 0.0544169 0)
(2 3.51724e-14 0)
(1.84564 0.21252 0)
(1.83214 0.228149 0)
(2 -2.64378e-14 0)
(2.11661 -0.263957 0)
(2 -8.10159e-14 0)
(1.83204 0.229093 0)
(2 7.44508e-14 0)
(2 3.83336e-14 0)
(1.83225 0.229383 0)
(1.84223 0.217397 0)
(2 -7.33932e-14 0)
(1.82627 0.229539 0)
(2 -2.19936e-13 0)
(2.09583 -0.263982 0)
(2 7.78996e-14 0)
(2 -2.26888e-13 0)
(2 1.32014e-15 0)
(1.82955 0.229973 0)
(1.83522 0.22545 0)
(1.85203 0.206671 0)
(2 6.15632e-14 0)
(1.83046 0.230941 0)
(1.83175 0.228959 0)
(2 -1.07944e-13 0)
(1.83115 0.229684 0)
(2 -9.71221e-09 0)
(1.83207 0.228171 0)
(2 -4.14392e-14 0)
(2.1068 -0.265868 0)
(2.00448 -0.0276208 0)
(2.12508 -0.262122 0)
(2 -3.41289e-11 0)
(2 -2.41241e-11 0)
(2 -3.33581e-11 0)
(2 -7.84074e-14 0)
(2 -1.52921e-11 0)
(1.8319 0.229327 0)
(2 -4.21442e-14 0)
(1.83193 0.229307 0)
(2 -4.06986e-11 0)
(2 -9.39348e-11 0)
(2 9.96771e-14 0)
(1.84044 0.219503 0)
(2 1.17917e-13 0)
(2.09048 -0.26303 0)
(1.83155 0.22886 0)
(2 -7.89753e-14 0)
(2.11692 -0.264633 0)
(2.09751 -0.252419 0)
(2.10258 -0.269701 0)
(2 3.90904e-15 0)
(1.91395 0.128475 0)
(1.98813 0.0228479 0)
(1.83076 0.229472 0)
(1.83174 0.228925 0)
(2 1.39009e-13 0)
(2 -3.95028e-07 0)
(2 -1.2355e-07 0)
(2 -1.21282e-13 0)
(1.83116 0.228875 0)
(2 4.05205e-14 0)
(2 9.48463e-14 0)
(1.83119 0.228894 0)
(1.8317 0.228882 0)
(2 -3.14346e-13 0)
(1.94116 0.0932789 0)
(2.00004 0.000741429 0)
(2 -2.58117e-14 0)
(2.00117 -0.00204545 0)
(1.8277 0.228671 0)
(2.05156 -0.0985747 0)
(2 -1.16616e-07 0)
(2.06483 -0.130381 0)
(2.11559 -0.264288 0)
(2.09715 -0.260401 0)
(1.99218 -0.00919338 0)
(1.83152 0.229482 0)
(1.8337 0.226553 0)
(1.96506 0.0526715 0)
(1.83133 0.229067 0)
(1.83155 0.228906 0)
(2 -6.62671e-14 0)
(2 -8.91981e-14 0)
(1.83026 0.22863 0)
(1.82949 0.229225 0)
(1.83137 0.22865 0)
(1.82862 0.228383 0)
(2 -1.46672e-13 0)
(1.83123 0.228964 0)
(2.10854 -0.263664 0)
(1.83192 0.228119 0)
(1.83059 0.229231 0)
(1.83013 0.228067 0)
(1.832 0.230654 0)
(2.04377 -0.0828717 0)
(2.04244 -0.0728412 0)
(2.02749 -0.043948 0)
(1.83175 0.228772 0)
(2.01332 -0.0324759 0)
(1.83042 0.22897 0)
(2 1.3612e-13 0)
(2 6.60804e-14 0)
(1.83065 0.229657 0)
(1.83195 0.228713 0)
(2 -1.58729e-13 0)
(2.10898 -0.262562 0)
(1.83026 0.228765 0)
(1.8317 0.228709 0)
(2 4.33018e-14 0)
(1.83197 0.229151 0)
(1.83159 0.22908 0)
(2 -4.97474e-14 0)
(1.83149 0.229011 0)
(2.11785 -0.266362 0)
(1.82878 0.228229 0)
(1.83152 0.228991 0)
(1.83032 0.228862 0)
(1.82809 0.228863 0)
(2 -9.57159e-14 0)
(2 3.11612e-14 0)
(2 -1.1383e-07 0)
(1.83177 0.228667 0)
(1.8918 0.156282 0)
(2.13668 -0.24037 0)
(1.8314 0.228834 0)
(2.12974 -0.269326 0)
(1.83179 0.228704 0)
(2 -1.56415e-13 0)
(2 1.2901e-13 0)
(2 -4.15307e-14 0)
(2 -5.04851e-15 0)
(1.83092 0.227615 0)
(1.83127 0.22902 0)
(2 -6.94814e-14 0)
(2 6.91903e-15 0)
(1.83137 0.229061 0)
(2.12651 -0.263301 0)
(1.83131 0.228763 0)
(2.11724 -0.265219 0)
(2 -3.92793e-14 0)
(1.83284 0.227879 0)
(2 3.9771e-14 0)
(2.0841 -0.266652 0)
(1.83065 0.229703 0)
(2.08493 -0.19328 0)
(2 1.47002e-15 0)
(1.83166 0.228807 0)
(1.83021 0.22999 0)
(1.83187 0.229347 0)
(2 -1.04639e-13 0)
(2 -1.1799e-13 0)
(1.92391 0.108827 0)
(1.83047 0.229778 0)
(2.11451 -0.260232 0)
(1.83169 0.22886 0)
(2 -1.29032e-14 0)
(1.83214 0.228786 0)
(2.04405 -0.0835684 0)
(1.83187 0.228699 0)
(2.12004 -0.260506 0)
(2 -2.96006e-14 0)
(1.83167 0.228068 0)
(2.0912 -0.238668 0)
(1.83068 0.229702 0)
(2.10965 -0.262107 0)
(2 9.23777e-14 0)
(1.83132 0.229263 0)
(2 7.14001e-15 0)
(1.82995 0.22909 0)
(2 -2.13739e-13 0)
(1.90183 0.142586 0)
(1.83808 0.22162 0)
(1.86732 0.18929 0)
(2.12477 -0.276237 0)
(2 -2.11304e-13 0)
(1.83226 0.228741 0)
(2 6.2987e-14 0)
(1.83166 0.229135 0)
(2 -1.23068e-07 0)
(1.83187 0.228998 0)
(2 -2.23863e-07 0)
(2 -3.91063e-13 0)
(1.83068 0.229466 0)
(2.00119 -0.0105574 0)
(1.83041 0.230144 0)
(2.08113 -0.264935 0)
(1.84724 0.218277 0)
(2 -1.80932e-13 0)
(1.88161 0.168661 0)
(2 -1.30695e-13 0)
(1.83053 0.229523 0)
(1.83194 0.228962 0)
(1.83069 0.229691 0)
(2 7.32188e-15 0)
(1.84767 0.210279 0)
(1.83097 0.229078 0)
(1.84417 0.214567 0)
(1.8988 0.151003 0)
(1.83381 0.231136 0)
(2 6.46903e-14 0)
(1.8865 0.164563 0)
(2 -1.0082e-13 0)
(1.83086 0.229564 0)
(2 -2.07918e-13 0)
(1.97732 0.0327357 0)
(2 -7.10832e-14 0)
(1.84338 0.21589 0)
(2 1.48344e-13 0)
(1.83207 0.228645 0)
(1.83961 0.219942 0)
(1.84005 0.219641 0)
(2 8.19582e-14 0)
(1.83752 0.223829 0)
(2.15032 -0.265294 0)
(2 -5.52452e-14 0)
(2.11456 -0.265894 0)
(2 -1.33857e-13 0)
(2 -1.25573e-13 0)
(2 7.06301e-14 0)
(1.82784 0.228486 0)
(2 -6.54015e-14 0)
(1.83167 0.229156 0)
(2 4.0437e-14 0)
(2 1.27379e-13 0)
(2 7.20135e-14 0)
(1.83114 0.229614 0)
(1.84306 0.222691 0)
(1.8549 0.20698 0)
(1.83022 0.22943 0)
(1.8319 0.228436 0)
(2.12087 -0.265128 0)
(1.8255 0.232561 0)
(1.8297 0.228764 0)
(2 1.9625e-13 0)
(1.86358 0.192796 0)
(1.83183 0.228941 0)
(1.83096 0.225095 0)
(2 -1.8901e-13 0)
(1.83366 0.229132 0)
(1.8285 0.227946 0)
(2 -1.04921e-13 0)
(1.82897 0.231284 0)
(1.83125 0.228808 0)
(1.8306 0.22823 0)
(1.83084 0.229696 0)
(2 -5.59719e-14 0)
(2 9.06953e-14 0)
(2 8.47441e-14 0)
(1.83167 0.229103 0)
(2.14648 -0.249898 0)
(2 7.89147e-14 0)
(1.83158 0.228961 0)
(2 2.55705e-13 0)
(2 1.2867e-13 0)
(2.15271 -0.254488 0)
(2 -1.01097e-14 0)
(2 3.10225e-14 0)
(1.83125 0.22897 0)
(1.83106 0.228707 0)
(2 -5.37577e-14 0)
(1.83188 0.228856 0)
(1.82999 0.229824 0)
(1.83085 0.228895 0)
(2.00345 -0.0220065 0)
(1.83112 0.228822 0)
(2 2.08495e-14 0)
(1.83117 0.22884 0)
(1.83151 0.228966 0)
(1.85721 0.199013 0)
(2 -1.01242e-13 0)
(2 -1.12668e-13 0)
(2 -5.19886e-14 0)
(1.83217 0.228758 0)
(1.83044 0.22889 0)
(1.83204 0.229009 0)
(2.00945 -0.033607 0)
(2 -5.32938e-14 0)
(1.82827 0.23109 0)
(1.8303 0.22915 0)
(1.8317 0.228688 0)
(2 -6.81073e-15 0)
(1.83018 0.229208 0)
(1.83091 0.229308 0)
(1.83153 0.22873 0)
(1.82689 0.231405 0)
(2 -3.41877e-14 0)
(1.8318 0.229107 0)
(1.82985 0.228226 0)
(1.85292 0.201464 0)
(1.83048 0.227633 0)
(1.82734 0.230497 0)
(2 -4.03879e-14 0)
(1.83161 0.228798 0)
(1.83349 0.226893 0)
(1.832 0.228972 0)
(1.83243 0.227809 0)
(1.83024 0.227697 0)
(2.1312 -0.255599 0)
(1.83235 0.229405 0)
(1.83303 0.228988 0)
(2 -4.44054e-14 0)
(1.83171 0.229037 0)
(1.83164 0.228945 0)
(1.83158 0.228973 0)
(1.83172 0.228873 0)
(2 -5.82485e-08 0)
(1.83145 0.229234 0)
(1.83148 0.229081 0)
(2 -1.55467e-07 0)
(1.83163 0.228761 0)
(1.85892 0.198293 0)
(2 1.21967e-13 0)
(2 5.57978e-14 0)
(2 1.33177e-09 0)
(1.83087 0.227671 0)
(1.82793 0.228933 0)
(2 4.93058e-14 0)
(2 1.54116e-13 0)
(1.90982 0.130851 0)
(2 -1.21986e-13 0)
(1.83173 0.228777 0)
(2 -6.54909e-14 0)
(2 -1.64604e-14 0)
(1.8315 0.228843 0)
(1.83076 0.229504 0)
(1.83022 0.229022 0)
(1.83164 0.228886 0)
(2 -2.41068e-14 0)
(2 -2.76664e-14 0)
(2 -1.72641e-13 0)
(1.88296 0.167233 0)
(2 -5.26657e-14 0)
(1.83192 0.228512 0)
(2 -1.37665e-13 0)
(2 -7.76102e-14 0)
(1.82808 0.228733 0)
(1.83162 0.229031 0)
(2 -1.01731e-14 0)
(1.83151 0.228894 0)
(2.11072 -0.2795 0)
(1.83163 0.229013 0)
(1.83198 0.228828 0)
(2.09149 -0.201745 0)
(2 8.59388e-14 0)
(2.10978 -0.277491 0)
(1.85204 0.203047 0)
(1.83151 0.230843 0)
(1.83242 0.227714 0)
(1.83254 0.228119 0)
(2.12625 -0.26683 0)
(1.83062 0.229215 0)
(1.8309 0.229571 0)
(2.12787 -0.26669 0)
(2.12937 -0.274386 0)
(2 -2.55734e-07 0)
(1.83185 0.228327 0)
(1.83115 0.22872 0)
(2 -2.1506e-13 0)
(2 -5.07694e-14 0)
(1.83154 0.228679 0)
(2 -1.35411e-13 0)
(1.8281 0.23173 0)
(2 2.62598e-06 0)
(1.85387 0.203947 0)
(2 -7.42012e-15 0)
(1.91924 0.119305 0)
(1.83188 0.228999 0)
(1.83025 0.229975 0)
(1.88164 0.170443 0)
(1.83892 0.221384 0)
(1.82823 0.228657 0)
(1.83112 0.229662 0)
(1.83742 0.216287 0)
(2 -1.91413e-13 0)
(2.15067 -0.249046 0)
(1.8319 0.226875 0)
(1.83284 0.229399 0)
(1.82964 0.231357 0)
(2 7.41591e-06 0)
(2 3.84749e-10 0)
(2 1.44083e-09 0)
(1.82906 0.230299 0)
(2 -1.11014e-14 0)
(1.833 0.229498 0)
(1.83146 0.22855 0)
(2.0723 -0.185941 0)
(2 -1.93415e-14 0)
(1.83142 0.228643 0)
(2.00003 -5.26302e-05 0)
(2 -7.98932e-14 0)
(1.99999 1.75463e-05 0)
(1.99998 2.7169e-05 0)
(1.83184 0.229033 0)
(1.83154 0.229087 0)
(2.00056 -0.000894858 0)
(2 -1.61334e-13 0)
(2 5.8407e-15 0)
(1.83161 0.229218 0)
(1.83064 0.229801 0)
(1.83142 0.229029 0)
(1.83192 0.229605 0)
(1.83063 0.229633 0)
(2.10271 -0.251577 0)
(1.85223 0.210964 0)
(2 6.86133e-14 0)
(1.8329 0.227727 0)
(1.8307 0.228774 0)
(1.83224 0.22927 0)
(1.83331 0.224956 0)
(2 -2.03898e-15 0)
(1.83181 0.228873 0)
(1.83626 0.224017 0)
(1.83109 0.229469 0)
(2 4.71247e-14 0)
(1.83067 0.228851 0)
(1.83173 0.228275 0)
(2.0497 -0.093007 0)
(1.83186 0.228807 0)
(1.83091 0.228868 0)
(2 -1.52076e-13 0)
(1.83124 0.229437 0)
(2.05891 -0.111104 0)
(1.83199 0.228757 0)
(2.04353 -0.0927316 0)
(1.83156 0.228932 0)
(2 -1.09983e-07 0)
(1.83142 0.229057 0)
(1.82681 0.231161 0)
(1.83191 0.228928 0)
(1.83178 0.229024 0)
(1.83154 0.229046 0)
(1.82915 0.227965 0)
(1.83137 0.229181 0)
(1.8309 0.228184 0)
(2 -2.00126e-13 0)
(2.01471 -0.0495458 0)
(1.83208 0.228808 0)
(1.8319 0.228919 0)
(2.05708 -0.11081 0)
(1.8317 0.228916 0)
(2.00842 -0.0161519 0)
(1.88726 0.144349 0)
(1.83221 0.228768 0)
(1.82934 0.228338 0)
(1.83169 0.228066 0)
(2 -1.41186e-13 0)
(1.83035 0.23009 0)
(1.882 0.164215 0)
(1.83257 0.228976 0)
(2.03265 -0.0571671 0)
(1.83065 0.22986 0)
(1.82623 0.230915 0)
(2 3.59851e-14 0)
(2.04211 -0.0822398 0)
(2 -6.33486e-09 0)
(1.82828 0.23474 0)
(2 7.72916e-15 0)
(1.88451 0.164537 0)
(2 4.35174e-09 0)
(1.84625 0.207679 0)
(2.04442 -0.0844949 0)
(2 -1.57137e-13 0)
(1.82982 0.230798 0)
(1.83617 0.224437 0)
(2 -1.13679e-13 0)
(1.82968 0.229012 0)
(1.8307 0.229626 0)
(1.8328 0.230565 0)
(1.83775 0.223994 0)
(1.83018 0.227779 0)
(2 -7.76975e-14 0)
(1.83089 0.229314 0)
(2 6.55637e-14 0)
(2 -7.98234e-14 0)
(2 2.35262e-15 0)
(2.03908 -0.0717012 0)
(1.83171 0.228531 0)
(1.83192 0.229464 0)
(1.83262 0.232866 0)
(1.83157 0.228939 0)
(1.82811 0.232467 0)
(1.82988 0.231326 0)
(1.83648 0.225909 0)
(1.83171 0.229189 0)
(2.03038 -0.0660441 0)
(1.987 0.0241936 0)
(2 3.58459e-09 0)
(2 5.75752e-14 0)
(1.82402 0.231317 0)
(1.83167 0.229017 0)
(1.83144 0.229025 0)
(1.83196 0.229033 0)
(1.99999 1.62725e-05 0)
(1.91468 0.133872 0)
(2 -1.63109e-07 0)
(1.82937 0.231616 0)
(1.84357 0.219413 0)
(2 -2.69473e-12 0)
(2 -5.63957e-11 0)
(2.09204 -0.190574 0)
(1.83154 0.228934 0)
(2 1.55875e-13 0)
(2 -1.74835e-13 0)
(2.11112 -0.263367 0)
(1.83168 0.228975 0)
(2 1.08134e-13 0)
(1.83095 0.228704 0)
(1.8315 0.228722 0)
(1.82836 0.228591 0)
(1.83795 0.22175 0)
(1.8316 0.228677 0)
(2 -1.75025e-10 0)
(2.11499 -0.270714 0)
(1.96148 0.064529 0)
(1.83102 0.228657 0)
(1.83148 0.228964 0)
(2 -1.04613e-13 0)
(1.83217 0.22875 0)
(1.83132 0.228891 0)
(1.91578 0.122421 0)
(1.99881 0.00590277 0)
(1.96245 0.0590699 0)
(2 -3.12757e-13 0)
(1.82984 0.228603 0)
(1.83172 0.228869 0)
(2 -1.1512e-07 0)
(2 -2.14119e-10 0)
(2.12501 -0.264076 0)
(2 -2.35673e-10 0)
(2 -3.3701e-13 0)
(1.83179 0.228956 0)
(1.83156 0.229015 0)
(1.83286 0.229806 0)
(1.83142 0.229219 0)
(1.83135 0.228851 0)
(1.82889 0.227994 0)
(1.83126 0.229098 0)
(1.83081 0.230128 0)
(1.83147 0.228976 0)
(2 1.38684e-13 0)
(2.00153 -0.00250502 0)
(1.83111 0.229562 0)
(1.83163 0.22898 0)
(2.00112 -0.00190406 0)
(1.83152 0.228948 0)
(1.83132 0.22897 0)
(2.11877 -0.264748 0)
(2.08628 -0.273407 0)
(1.83146 0.229824 0)
(1.82956 0.231277 0)
(2 -2.22338e-14 0)
(2 1.53716e-13 0)
(1.99923 0.00253546 0)
(1.83142 0.228715 0)
(1.83135 0.228925 0)
(1.83181 0.229023 0)
(2 1.02289e-09 0)
(1.83143 0.228855 0)
(2 -9.76388e-14 0)
(2.04319 -0.0941438 0)
(1.82929 0.231847 0)
(1.82826 0.230951 0)
(2 -4.23042e-15 0)
(1.92454 0.109149 0)
(1.83092 0.228884 0)
(2 -1.38786e-13 0)
(1.82963 0.227427 0)
(2 -1.05994e-10 0)
(1.83184 0.229051 0)
(1.88655 0.163257 0)
(1.83101 0.228937 0)
(2 1.51297e-11 0)
(1.83137 0.228644 0)
(1.83431 0.231082 0)
(2.1258 -0.26585 0)
(1.8316 0.228668 0)
(2 -1.30842e-07 0)
(1.83114 0.227974 0)
(1.83136 0.228929 0)
(2 7.32404e-09 0)
(2.11577 -0.264894 0)
(1.8326 0.22759 0)
(1.86954 0.186903 0)
(2.00081 -0.00105487 0)
(1.83802 0.23314 0)
(1.83157 0.228962 0)
(2 -4.23324e-12 0)
(1.99589 -0.00144829 0)
(1.83183 0.228864 0)
(2.00276 -0.00251116 0)
(1.8314 0.22899 0)
(2 -3.0501e-12 0)
(2 1.31409e-13 0)
(1.83173 0.229488 0)
(2 1.89829e-13 0)
(1.83212 0.228433 0)
(1.83146 0.228821 0)
(2.00132 -0.00233741 0)
(1.87809 0.173301 0)
(2 3.07064e-09 0)
(1.83137 0.228851 0)
(2 1.69701e-09 0)
(2 -5.85654e-13 0)
(2 1.10761e-11 0)
(2 5.75566e-12 0)
(1.83198 0.229021 0)
(2 7.15662e-09 0)
(2 -2.60267e-13 0)
(1.83858 0.225265 0)
(2 4.56603e-14 0)
(1.83147 0.229403 0)
(2 3.10401e-10 0)
(1.88992 0.159174 0)
(1.8309 0.230919 0)
(1.83147 0.228843 0)
(2 9.35175e-10 0)
(2 -2.2985e-13 0)