/*--------------------------------*- C++ -*----------------------------------*\
  =========                 |
  \\      /  F ield         | OpenFOAM: The Open Source CFD Toolbox
   \\    /   O peration     | Website:  https://openfoam.org
    \\  /    A nd           | Version:  12
     \\/     M anipulation  |
\*---------------------------------------------------------------------------*/
FoamFile
{
    format      ascii;
    class       volVectorField;
    location    "2.7";
    object      U;
}
// * * * * * * * * * * * * * * * * * * * * * * * * * * * * * * * * * * * * * //

dimensions      [0 1 -1 0 0 0 0];

internalField   nonuniform List<vector> 
46253
(
(0.92349 -1.25311e-05 0)
(0.867466 0.000113378 0)
(0.793772 0.000978628 0)
(0.867929 0.00018989 0)
(0.797828 0.00203461 0)
(0.800868 0.000660188 0)
(0.916 0.000500099 0)
(0.91619 -0.00443892 0)
(0.870361 9.97478e-05 0)
(0.870731 0.000141419 0)
(0.923234 -0.00031618 0)
(1.02946 -0.0694813 0)
(0.883767 7.04476e-05 0)
(0.88334 3.12614e-05 0)
(0.92 1.44522e-13 0)
(0.871914 9.89822e-05 0)
(0.872382 0.000177009 0)
(0.87872 9.82607e-05 0)
(0.878263 5.98693e-05 0)
(0.875091 6.95612e-05 0)
(0.87548 9.88877e-05 0)
(0.806924 0.00334026 0)
(0.92 7.3329e-14 0)
(0.924028 -3.63604e-05 0)
(0.925998 0.00311735 0)
(0.869331 0.000171936 0)
(0.873559 8.76371e-05 0)
(0.873995 0.000118782 0)
(0.868983 0.000114338 0)
(0.91744 0.000292878 0)
(0.944694 0.0424212 0)
(0.88854 0.000114165 0)
(0.888951 0.000147164 0)
(0.876657 7.11992e-05 0)
(0.877125 0.000129527 0)
(0.92 5.55866e-14 0)
(0.881637 3.97117e-05 0)
(0.88217 8.3799e-05 0)
(1.06762 0.0280151 0)
(0.92 1.92945e-13 0)
(0.918065 0.00143895 0)
(1.02986 -0.0700688 0)
(0.886777 -2.39387e-05 0)
(0.887308 3.82354e-05 0)
(0.804399 -0.0561309 0)
(0.879872 6.0719e-05 0)
(0.880355 8.842e-05 0)
(0.92 3.37923e-14 0)
(0.89206 -0.000104822 0)
(0.892621 -8.1832e-05 0)
(0.893792 2.42271e-05 0)
(0.89427 7.08785e-05 0)
(0.818228 0.00176643 0)
(0.95568 0.0122313 0)
(0.784263 0.0110938 0)
(1.01489 -0.0365721 0)
(0.897383 -0.000165843 0)
(0.897903 -0.000143007 0)
(0.878164 0.0641213 0)
(0.921349 0.0013487 0)
(0.92 -5.0433e-14 0)
(0.917327 0.00518493 0)
(0.92 8.77887e-14 0)
(0.92 -5.52036e-14 0)
(0.92 9.22486e-14 0)
(0.884933 3.62651e-05 0)
(0.885471 6.20128e-05 0)
(0.811681 0.00052038 0)
(1.0177 -0.0385022 0)
(0.812916 -0.0622692 0)
(0.917012 0.000803964 0)
(0.899112 -3.6823e-05 0)
(0.899614 3.09233e-05 0)
(0.937994 0.0098282 0)
(0.823073 0.0018724 0)
(0.925202 0.000620122 0)
(0.909262 -4.9955e-05 0)
(0.909801 -9.16972e-05 0)
(0.92 1.26545e-13 0)
(0.890128 -3.24906e-05 0)
(0.890718 -4.29195e-05 0)
(0.902794 -6.25864e-05 0)
(0.816668 0.00207982 0)
(0.903381 -1.99759e-05 0)
(0.921743 0.00199336 0)
(0.828921 0.0014918 0)
(0.921394 -0.000382273 0)
(0.922108 -0.000390694 0)
(1.04624 0.00960318 0)
(0.92 2.42645e-15 0)
(0.92 1.99142e-14 0)
(0.914253 0.00211246 0)
(0.830179 0.00109639 0)
(0.895496 -0.000110836 0)
(0.92 1.68135e-13 0)
(0.896101 -0.000141978 0)
(0.831502 0.00129227 0)
(0.92 5.2109e-14 0)
(0.879515 0.0639004 0)
(0.92 3.85923e-14 0)
(0.92 4.79406e-14 0)
(0.832686 0.00093489 0)
(0.826065 0.000351326 0)
(0.946722 0.0420414 0)
(0.786825 0.00667659 0)
(0.923403 0.00247629 0)
(1.04291 -0.0632409 0)
(0.93487 -0.000575432 0)
(0.935555 -0.00060789 0)
(1.05255 -0.0584561 0)
(1.03834 0.00410411 0)
(0.900873 -0.000128004 0)
(0.901523 -0.000243695 0)
(0.92 4.12106e-14 0)
(0.92 3.37524e-14 0)
(1.05836 0.0123133 0)
(0.94396 -0.0834557 0)
(0.919458 0.000833503 0)
(0.777574 0.0637845 0)
(1.03852 -0.0436027 0)
(0.92 3.92604e-14 0)
(0.803888 0.00162918 0)
(0.904618 -0.000163157 0)
(0.905197 -0.000251507 0)
(0.838128 0.000220442 0)
(0.771151 0.05772 0)
(0.92 -8.94667e-15 0)
(1.02646 -0.042753 0)
(0.769016 0.0103765 0)
(0.912099 -0.000260416 0)
(0.944479 -0.000711002 0)
(0.945201 -0.000708038 0)
(0.804392 0.00292368 0)
(0.92012 0.000227392 0)
(0.91279 -0.000275314 0)
(0.92 9.24469e-14 0)
(0.915785 -0.000348016 0)
(0.916404 -0.000416486 0)
(1.04548 -0.0405957 0)
(0.92 -1.74035e-14 0)
(0.908058 -9.91985e-05 0)
(0.950122 -0.000864938 0)
(0.950913 -0.000819057 0)
(0.952154 0.039492 0)
(0.907559 -7.05288e-05 0)
(0.775813 0.00843846 0)
(0.919477 -0.00040804 0)
(0.920077 -0.000556746 0)
(1.06703 0.0180815 0)
(0.92 -1.50781e-13 0)
(1.05237 -0.0536851 0)
(0.819622 0.000354841 0)
(0.913838 -0.000305448 0)
(0.914585 -0.000183959 0)
(0.971414 0.0295521 0)
(0.831425 -0.0728345 0)
(1.04013 -0.0460616 0)
(0.92 2.14477e-13 0)
(0.925261 -0.000500778 0)
(0.787025 0.00845091 0)
(0.925865 -0.00061346 0)
(1.06621 -0.0653751 0)
(1.01387 -0.0372994 0)
(0.92 7.58735e-14 0)
(0.921848 0.0021168 0)
(0.917691 -0.00032835 0)
(0.919683 -0.000275106 0)
(0.918234 -0.000234412 0)
(0.705565 0.0404676 0)
(0.92 1.94894e-14 0)
(0.929041 -0.000524563 0)
(0.929655 -0.00072016 0)
(0.80994 0.00260411 0)
(0.929006 0.000457944 0)
(0.790999 0.00438948 0)
(0.819088 -0.0795518 0)
(0.960386 0.0269596 0)
(0.833025 0.00238443 0)
(0.980078 0.0219466 0)
(0.947327 -0.0620068 0)
(0.790111 0.00242317 0)
(0.972027 0.0293271 0)
(0.932965 -0.000574263 0)
(0.933564 -0.000721777 0)
(0.919951 3.05511e-05 0)
(0.923413 -0.000457506 0)
(0.924118 -0.000277583 0)
(0.824846 -0.0664798 0)
(0.919986 8.52077e-06 0)
(0.919914 3.25788e-05 0)
(0.821434 0.00154458 0)
(0.912786 0.00367413 0)
(0.915472 0.000403545 0)
(0.915472 0.00191008 0)
(0.92 9.54114e-14 0)
(0.92 1.06334e-13 0)
(1.0392 0.0161386 0)
(0.842969 0.000594016 0)
(0.982105 -0.00147186 0)
(0.98283 -0.00144222 0)
(0.92 1.2026e-13 0)
(0.92 -3.8326e-14 0)
(0.927184 -0.000466928 0)
(0.927765 -0.000341507 0)
(0.92 1.73692e-13 0)
(0.864346 -0.0679941 0)
(0.973707 0.028534 0)
(0.938649 -0.000685471 0)
(0.939283 -0.000812978 0)
(0.92 8.53502e-14 0)
(0.92 2.66614e-14 0)
(0.775477 0.069382 0)
(0.924048 -1.08186e-06 0)
(0.827533 0.00124653 0)
(0.990377 0.0360827 0)
(0.8439 0.000767568 0)
(0.954324 0.0384212 0)
(0.920942 0.00202579 0)
(0.942632 -0.000729223 0)
(0.80968 0.00135971 0)
(0.814101 0.00122916 0)
(0.943158 -0.000925307 0)
(0.811351 -0.0597324 0)
(0.930968 -0.000593502 0)
(0.931596 -0.000426674 0)
(0.917394 0.00107938 0)
(0.841193 0.00134566 0)
(0.83615 0.00149443 0)
(0.991191 -0.00169499 0)
(0.991614 -0.00167715 0)
(0.909543 0.0560625 0)
(0.92 -2.93656e-13 0)
(0.92 7.05817e-14 0)
(0.92 -5.31484e-14 0)
(0.839151 0.000381107 0)
(0.92 1.12713e-13 0)
(0.92 1.75024e-16 0)
(0.92 3.6171e-13 0)
(0.910805 0.0552841 0)
(0.898891 0.0590765 0)
(0.839114 0.000767388 0)
(0.83394 0.00113922 0)
(0.847429 0.000740693 0)
(0.92 5.87013e-14 0)
(0.92 3.5002e-14 0)
(0.824573 0.00137154 0)
(0.92 1.76161e-13 0)
(0.974311 0.0278598 0)
(0.848293 0.000561132 0)
(0.94822 -0.000837146 0)
(0.948819 -0.00102531 0)
(0.901886 0.0583073 0)
(1.00031 -0.00174166 0)
(0.849131 0.000693853 0)
(1.00088 -0.00155481 0)
(0.936824 -0.000723626 0)
(0.93752 -0.000484928 0)
(1.03317 -0.0450723 0)
(0.933332 0.00306817 0)
(0.850768 0.000126534 0)
(0.919876 0.000474688 0)
(0.920619 0.00182761 0)
(1.03248 -0.0582433 0)
(0.95111 0.0404672 0)
(0.957366 0.0229259 0)
(0.92 1.16435e-13 0)
(0.92 1.13327e-13 0)
(0.92 9.19056e-14 0)
(0.940688 -0.000704521 0)
(0.953987 -0.00101718 0)
(0.941265 -0.000550427 0)
(0.836047 0.00111055 0)
(0.92 1.00889e-13 0)
(0.92 8.52277e-14 0)
(0.954526 -0.00125971 0)
(0.840126 0.000886717 0)
(0.778033 0.0118584 0)
(0.92 9.14813e-14 0)
(0.941072 0.0170878 0)
(1.04571 -0.0209962 0)
(1.00955 -0.00187665 0)
(1.00962 -0.00174048 0)
(0.824552 0.000724657 0)
(0.827473 0.000674495 0)
(0.92 2.49015e-13 0)
(0.915836 0.00188804 0)
(0.93847 0.00141397 0)
(1.02184 -0.0388128 0)
(0.959575 0.0357419 0)
(0.92 -2.35461e-15 0)
(0.883601 0.0634893 0)
(0.884662 0.0622798 0)
(0.921336 0.00265657 0)
(0.92 -2.95765e-14 0)
(0.889514 0.0614333 0)
(0.926855 0.0498336 0)
(0.835179 0.00179189 0)
(0.929182 0.0492312 0)
(0.917394 -0.000147291 0)
(0.957863 -0.000989634 0)
(0.783626 0.07142 0)
(0.958479 -0.00117865 0)
(1.024 -0.0445727 0)
(0.787274 0.053302 0)
(0.92 -1.41055e-12 0)
(0.94649 -0.000815112 0)
(0.94711 -0.000617433 0)
(0.92 6.87052e-14 0)
(0.950487 0.0419797 0)
(0.919994 1.80322e-06 0)
(0.919851 9.71319e-05 0)
(0.973646 0.0184934 0)
(0.92 2.56008e-13 0)
(0.961667 -0.00112561 0)
(0.855826 0.000516004 0)
(0.962125 -0.00136164 0)
(1.04687 -0.0394096 0)
(0.891156 0.0603786 0)
(0.92 8.1211e-14 0)
(0.928191 0.010677 0)
(1.04361 -0.0477103 0)
(0.856596 0.000408153 0)
(0.916949 0.000672761 0)
(0.926496 0.00296505 0)
(1.09604 0.031167 0)
(0.961344 0.0353387 0)
(0.857768 0.000407153 0)
(0.845728 0.000148932 0)
(0.965489 -0.00102642 0)
(0.966058 -0.00132004 0)
(1.0245 -0.00194699 0)
(1.02438 -0.00186672 0)
(0.92 2.99873e-14 0)
(0.92 6.52616e-14 0)
(0.859251 0.000415189 0)
(0.911504 0.00467758 0)
(1.02074 -0.0440328 0)
(0.952321 -0.000919848 0)
(0.95293 -0.000637453 0)
(0.92 1.73127e-13 0)
(0.818004 0.000935461 0)
(0.821386 0.000784499 0)
(0.92 2.18598e-14 0)
(0.776749 0.0417279 0)
(0.860743 0.00130179 0)
(0.969029 -0.00127386 0)
(0.969591 -0.0015153 0)
(0.92 4.79061e-13 0)
(1.0375 -0.0475058 0)
(0.834301 0.00248143 0)
(1.08789 0.0123268 0)
(0.92 1.21844e-13 0)
(0.891191 -0.0669219 0)
(0.92 1.61978e-13 0)
(1.07198 -0.0614235 0)
(0.89931 0.00160645 0)
(0.955871 -0.00114508 0)
(0.92 -4.40123e-14 0)
(0.956467 -0.000894541 0)
(0.92 9.43753e-14 0)
(1.06813 -0.0603511 0)
(0.92 -1.12599e-11 0)
(0.852229 0.0040645 0)
(0.92 -4.86001e-12 0)
(0.919986 4.64366e-06 0)
(0.854321 0.00438184 0)
(0.855156 0.00433731 0)
(0.855282 0.00451819 0)
(0.972914 -0.00126208 0)
(0.861274 0.0039347 0)
(0.907783 0.00173899 0)
(0.889322 0.0021183 0)
(0.89086 0.00327241 0)
(0.973357 -0.00163367 0)
(0.854756 0.00376941 0)
(0.894332 0.0602102 0)
(1.04843 -0.0397509 0)
(0.837065 0.000855944 0)
(0.861349 0.00349013 0)
(0.92 7.68432e-14 0)
(0.921711 0.00243312 0)
(0.940461 0.00809388 0)
(1.04034 -0.0452012 0)
(0.959933 -0.00107726 0)
(0.90111 0.00381405 0)
(0.960406 -0.000872872 0)
(0.860319 0.00134821 0)
(0.92 4.52443e-14 0)
(0.976591 -0.00130761 0)
(0.751243 0.0599188 0)
(0.919999 4.22418e-07 0)
(0.958111 0.0364675 0)
(0.977108 -0.0016029 0)
(0.939374 -0.000771021 0)
(0.875147 -0.000247813 0)
(0.942325 -0.000766628 0)
(0.982168 0.0231345 0)
(0.982178 0.025339 0)
(0.851602 0.000492927 0)
(0.975598 -0.0211967 0)
(0.92 1.3442e-13 0)
(0.941344 0.00040874 0)
(0.940912 0.000565248 0)
(0.895627 0.0592236 0)
(0.837128 0.000457861 0)
(0.853621 0.0345808 0)
(0.92 -7.07117e-14 0)
(0.92 -1.80618e-13 0)
(0.92 -3.1955e-14 0)
(0.860495 0.000513439 0)
(0.854435 0.000129471 0)
(0.92 3.20153e-08 0)
(0.801832 0.0664924 0)
(0.919977 8.8253e-06 0)
(0.975503 -0.0197294 0)
(0.856045 0.0310403 0)
(0.918402 0.00221102 0)
(0.84652 0.000598966 0)
(0.86087 0.000126904 0)
(1.04707 -0.0451449 0)
(0.855534 0.0311702 0)
(0.92 4.34247e-14 0)
(0.980171 -0.00134951 0)
(0.844025 0.000280502 0)
(0.96346 -0.00120579 0)
(0.843821 0.000289283 0)
(0.92 8.76652e-14 0)
(0.98072 -0.0016372 0)
(0.96406 -0.000909524 0)
(0.92 2.39563e-08 0)
(0.959511 0.0244628 0)
(0.92 1.55288e-13 0)
(0.92 1.30033e-13 0)
(0.92 -4.07049e-14 0)
(0.92 1.35916e-13 0)
(0.990761 -0.0310541 0)
(0.999644 0.018844 0)
(0.918584 0.000680972 0)
(0.92 -8.42223e-14 0)
(0.962275 0.0157831 0)
(1.04095 -0.0478377 0)
(0.849877 0.0305734 0)
(0.924959 1.76695e-05 0)
(0.92 -3.09135e-09 0)
(0.986654 -0.0292731 0)
(0.969889 0.0302624 0)
(0.913782 0.00209455 0)
(0.852504 0.000563806 0)
(1.01308 -0.0325933 0)
(0.92 1.68391e-13 0)
(1.04157 -0.0226254 0)
(0.973604 -0.0199466 0)
(0.92 1.72235e-13 0)
(0.925146 0.0023633 0)
(0.92 -3.19455e-13 0)
(0.856732 0.0363578 0)
(1.01577 -0.000474215 0)
(0.856012 0.0344602 0)
(0.967444 -0.00127556 0)
(0.985659 -0.0307397 0)
(0.854347 0.000705108 0)
(0.986563 -0.0305883 0)
(0.986301 -0.0303859 0)
(0.96778 -0.00105355 0)
(0.861825 0.00385232 0)
(0.987015 -0.0308646 0)
(0.832866 0.00195598 0)
(0.870881 0.0152914 0)
(0.855827 0.0317368 0)
(0.872148 0.00477608 0)
(0.871059 0.0151443 0)
(0.99031 0.0250647 0)
(0.92 1.18446e-13 0)
(1.01847 -0.0029936 0)
(1.02815 -0.0445109 0)
(0.985714 -0.00151763 0)
(1.03156 -0.0324315 0)
(0.977118 0.0262764 0)
(0.986279 -0.00178066 0)
(0.979395 0.0264483 0)
(0.929908 0.000803743 0)
(0.930085 0.000822356 0)
(0.92 -5.29668e-14 0)
(0.840178 0.00121077 0)
(0.842103 0.00110295 0)
(0.92 -6.91134e-14 0)
(0.763512 0.00755511 0)
(0.92 1.92722e-13 0)
(1.0413 -0.0218312 0)
(0.91911 0.00255801 0)
(1.03133 -0.0741728 0)
(1.0357 -0.023271 0)
(0.989752 -0.0300342 0)
(0.915222 0.00110321 0)
(0.987044 -0.0300044 0)
(0.92 5.6256e-14 0)
(0.88048 0.00367209 0)
(0.971 -0.00132472 0)
(0.979205 -0.0211963 0)
(1.03291 -0.0582326 0)
(0.971529 -0.00104375 0)
(0.98974 -0.00138828 0)
(0.9902 -0.00179072 0)
(0.925472 -0.000412765 0)
(0.934711 0.0029812 0)
(0.853138 0.00401957 0)
(0.926446 4.20762e-05 0)
(0.948637 0.0410239 0)
(0.92 -1.38349e-13 0)
(0.92 2.51705e-13 0)
(0.853449 0.000853992 0)
(0.922419 0.00224072 0)
(0.852753 0.0295562 0)
(0.887683 0.00130132 0)
(0.917202 0.00515082 0)
(0.92 1.77397e-13 0)
(0.919999 4.87084e-07 0)
(0.981194 -0.0255578 0)
(0.85513 0.000383274 0)
(0.92 -3.70725e-15 0)
(0.907712 0.00719321 0)
(0.717965 -0.0471695 0)
(0.972731 -0.020829 0)
(0.849967 0.000277878 0)
(0.851625 0.000250627 0)
(0.972351 -0.0208659 0)
(0.858864 0.00396751 0)
(0.972163 -0.0206762 0)
(0.971213 -0.0169046 0)
(0.971972 -0.02049 0)
(0.92 -4.53975e-14 0)
(1.00191 0.0287425 0)
(0.98616 0.0309818 0)
(0.92 1.67869e-13 0)
(0.985471 -0.0309025 0)
(0.979054 -0.0203692 0)
(0.86343 -6.88532e-05 0)
(0.92 -8.34107e-14 0)
(0.974615 -0.00147553 0)
(0.92 3.79582e-15 0)
(0.925767 0.00123736 0)
(1.04733 -0.0335968 0)
(0.860676 -8.11155e-06 0)
(0.843089 0.00549458 0)
(0.975158 -0.00118543 0)
(0.92 1.08236e-14 0)
(0.92 3.88947e-14 0)
(0.862604 0.0244349 0)
(0.86212 0.0242726 0)
(1.0516 -0.0827294 0)
(0.86445 0.025617 0)
(0.864136 0.0253944 0)
(0.994886 -0.00172269 0)
(1.02949 -0.0262431 0)
(0.995375 -0.00210446 0)
(0.923063 0.00275911 0)
(0.870254 0.0280912 0)
(0.86969 0.0280341 0)
(0.873165 0.0289408 0)
(0.872177 0.0288229 0)
(0.849958 0.000530043 0)
(0.85211 0.032379 0)
(0.92 -1.3917e-13 0)
(0.989856 -0.030542 0)
(1.02744 -0.0734333 0)
(0.91515 0.00189062 0)
(0.92 -9.51135e-13 0)
(0.92 1.75847e-14 0)
(0.85477 0.0295509 0)
(0.876929 0.0151853 0)
(0.92 1.06419e-13 0)
(0.921636 0.000871744 0)
(0.955805 0.0373872 0)
(0.92 2.67081e-15 0)
(0.962242 0.0345161 0)
(0.883528 0.0113979 0)
(0.877725 0.0179281 0)
(1.0233 -0.0422574 0)
(0.92 2.20771e-13 0)
(0.875913 0.0147917 0)
(0.869817 0.0166893 0)
(0.978493 -0.00146446 0)
(0.867506 0.0189454 0)
(0.918076 0.000984022 0)
(0.978901 -0.00113959 0)
(0.964639 0.0334381 0)
(0.930002 0.0243064 0)
(0.853927 0.00378856 0)
(0.929792 0.0255223 0)
(0.926055 0.0226508 0)
(0.925597 0.0240992 0)
(1.0237 0.00240691 0)
(0.897872 0.00656193 0)
(0.998354 -0.00162274 0)
(0.998923 -0.0019199 0)
(0.958325 0.0379592 0)
(0.909552 0.00535604 0)
(0.869227 0.017494 0)
(0.91778 0.000940707 0)
(0.942164 0.0112388 0)
(0.860817 0.000597216 0)
(0.783378 0.0499049 0)
(0.98474 0.0136323 0)
(0.855165 0.0303413 0)
(0.784124 0.0560397 0)
(0.852675 0.0352996 0)
(0.861441 0.00482082 0)
(0.951982 0.0407122 0)
(0.94749 0.0423647 0)
(0.879488 0.0022062 0)
(0.854836 0.0039152 0)
(1.04902 0.00569543 0)
(0.984127 -0.0294611 0)
(0.861077 0.00400435 0)
(0.863307 0.00106807 0)
(0.986973 0.0220415 0)
(0.877877 0.0298201 0)
(0.877038 0.0297797 0)
(0.881345 0.0302169 0)
(0.880261 0.0301897 0)
(0.884536 0.0302982 0)
(0.883823 0.0304465 0)
(0.88423 0.0269367 0)
(0.885866 0.0291366 0)
(0.85755 -0.0710641 0)
(0.991005 -0.0289476 0)
(0.873849 0.0153798 0)
(0.93423 0.00743583 0)
(0.877587 0.0190938 0)
(0.87586 0.0133074 0)
(0.861222 0.00397186 0)
(0.923645 0.000814057 0)
(0.921854 0.000746734 0)
(0.875637 0.0136904 0)
(0.854154 0.00418332 0)
(0.880976 0.0128975 0)
(0.860252 0.000378804 0)
(0.880153 0.0129917 0)
(0.92 -2.09667e-14 0)
(0.983359 -0.0265788 0)
(0.884776 0.0112712 0)
(0.847978 0.000479124 0)
(0.884042 0.0118929 0)
(0.832956 0.0689942 0)
(0.85537 0.00932191 0)
(0.888391 0.0100358 0)
(0.92 2.55624e-13 0)
(0.887484 0.0104278 0)
(0.92 2.47763e-13 0)
(1.08573 -0.078313 0)
(0.847852 0.000452402 0)
(1.02847 -0.0269883 0)
(0.921166 0.000633534 0)
(0.919467 0.00022975 0)
(0.91975 0.000103809 0)
(0.89237 0.00868515 0)
(0.892007 0.00906261 0)
(0.852745 0.00342934 0)
(0.974307 -0.0226319 0)
(0.897144 0.00749281 0)
(0.896717 0.00788337 0)
(0.986775 0.0202177 0)
(0.844816 0.000288529 0)
(0.846577 0.000311025 0)
(0.90372 0.00537494 0)
(1.00333 -0.00168731 0)
(0.903281 0.00570163 0)
(0.85735 0.0075843 0)
(0.984014 -0.00170246 0)
(0.907972 0.00360108 0)
(1.04164 -0.0521469 0)
(0.906682 0.00407317 0)
(1.00388 -0.00214945 0)
(0.98457 -0.00132427 0)
(0.862611 0.00609641 0)
(0.875971 0.0150311 0)
(0.875961 0.0150422 0)
(0.911451 0.00203851 0)
(0.911302 0.00242128 0)
(0.900765 0.00822845 0)
(0.862582 0.00589383 0)
(0.897421 0.00232241 0)
(0.916628 0.00060783 0)
(1.02436 -0.0240608 0)
(0.91628 0.000951567 0)
(1.04133 -0.0486051 0)
(0.856006 0.0044757 0)
(0.923007 -0.00205935 0)
(0.922706 -0.00158491 0)
(0.870485 0.0156496 0)
(0.872866 0.0141786 0)
(0.870468 0.0155123 0)
(0.932032 0.00742771 0)
(0.873027 0.0139871 0)
(0.978801 -0.0205869 0)
(0.964265 -0.0206087 0)
(0.94334 0.0432954 0)
(0.842052 0.000780197 0)
(0.929265 -0.00469174 0)
(0.874884 0.0163003 0)
(0.928748 -0.00434597 0)
(0.874304 0.017057 0)
(0.858818 0.00202512 0)
(0.978381 -0.0196068 0)
(0.978096 -0.0194093 0)
(0.933981 -0.00629545 0)
(0.933824 -0.00584548 0)
(0.988771 -0.0313793 0)
(0.973855 -0.0177182 0)
(0.938449 -0.00817403 0)
(0.971224 -0.0171962 0)
(0.937288 -0.00805522 0)
(0.844891 0.00122532 0)
(0.980983 0.0239116 0)
(0.944461 -0.0111194 0)
(0.943283 -0.0110296 0)
(0.919989 2.91995e-06 0)
(1.01845 -0.0442128 0)
(0.948579 -0.0128501 0)
(0.94913 -0.0122383 0)
(0.701609 0.0260797 0)
(0.84604 0.00286495 0)
(0.846105 0.00294564 0)
(0.92 4.53497e-08 0)
(0.953202 -0.0145886 0)
(0.992073 -0.0298886 0)
(0.951744 -0.0147869 0)
(0.843464 -0.00913746 0)
(1.03822 -0.00529144 0)
(0.984907 -0.0314497 0)
(1.03948 -0.0562293 0)
(0.956253 -0.0170981 0)
(0.956641 -0.0164193 0)
(0.965113 -0.020681 0)
(0.96172 -0.0183485 0)
(0.961233 -0.0183118 0)
(1.0449 -0.0467166 0)
(1.02106 -0.0422778 0)
(0.867456 0.0271354 0)
(1.00218 -0.00232528 0)
(0.775804 0.0474907 0)
(1.00765 -0.00187401 0)
(0.92 -5.44707e-14 0)
(1.03018 -0.0511067 0)
(1.00825 -0.00223478 0)
(1.045 -0.0578395 0)
(1.01432 -0.00837676 0)
(0.927693 0.000465163 0)
(0.874289 0.0292282 0)
(0.867032 0.0270192 0)
(0.873734 0.0291447 0)
(0.987603 -0.00160324 0)
(0.875759 0.0172049 0)
(0.86539 0.0260543 0)
(0.873093 0.0160185 0)
(0.92 -7.75536e-14 0)
(0.864615 0.0259467 0)
(0.988181 -0.00131192 0)
(0.92 -1.61306e-13 0)
(0.868015 0.0275289 0)
(0.868998 0.0276271 0)
(1.04617 -0.0425985 0)
(1.03783 -0.0574087 0)
(0.857635 0.00412118 0)
(0.983888 0.0225622 0)
(0.891386 -0.0811011 0)
(0.923992 0.000438085 0)
(0.92 1.54832e-13 0)
(0.92 5.12173e-14 0)
(0.860579 0.000484439 0)
(0.851676 0.031553 0)
(0.92 -2.28104e-13 0)
(0.927695 0.00956216 0)
(0.877577 0.0180669 0)
(0.987269 -0.0298887 0)
(0.853273 0.0301478 0)
(0.91898 0.00820599 0)
(0.898694 0.00789546 0)
(0.916303 0.00745277 0)
(1.0461 -0.061415 0)
(0.92 -9.45488e-09 0)
(0.925239 0.00339197 0)
(0.914535 0.000796697 0)
(0.915085 0.0129796 0)
(0.853748 0.0318931 0)
(0.92 7.03027e-14 0)
(0.852859 0.00362695 0)
(0.92 -1.32679e-15 0)
(0.837612 -0.000560954 0)
(0.914374 0.00699721 0)
(0.916741 0.00867097 0)
(0.92084 0.0109777 0)
(0.918757 -0.00139485 0)
(0.924917 -0.000980329 0)
(0.864119 0.00433484 0)
(1.03666 -0.0229706 0)
(0.860901 0.000325477 0)
(0.865783 0.0041982 0)
(0.914234 0.00789795 0)
(0.967881 -0.0212429 0)
(0.85391 0.0345221 0)
(0.898966 -0.0180347 0)
(0.854759 0.0352258 0)
(0.853509 0.0337179 0)
(0.982723 0.0240659 0)
(0.979022 0.0261669 0)
(0.860294 0.00383858 0)
(0.912411 0.00735664 0)
(1.02253 -0.0444752 0)
(0.988376 -0.0322541 0)
(0.92 2.11873e-14 0)
(0.987716 -0.0299596 0)
(1.01196 -0.00216195 0)
(0.92 -2.41076e-14 0)
(0.853232 0.0329549 0)
(0.98625 -0.0306908 0)
(0.981356 -0.0258957 0)
(0.854259 0.0317071 0)
(1.01259 -0.00243867 0)
(0.794773 -0.0311453 0)
(0.849451 0.0306992 0)
(0.92 8.82031e-14 0)
(0.898425 0.00657592 0)
(0.898104 0.00693354 0)
(0.991132 -0.0294146 0)
(0.860308 0.00893936 0)
(0.799822 -0.0215428 0)
(0.822629 -0.0269601 0)
(0.915967 0.000405964 0)
(0.880029 0.00520978 0)
(0.919971 1.46023e-05 0)
(0.976732 -0.020905 0)
(0.927906 0.0055111 0)
(1.03181 -0.0439304 0)
(0.837987 0.0690113 0)
(0.853511 0.000222076 0)
(0.85517 0.000213621 0)
(0.92 -2.54288e-14 0)
(0.918183 -0.000391023 0)
(0.917662 -8.98649e-05 0)
(0.875995 0.0294576 0)
(0.850315 0.035385 0)
(0.92 -1.24149e-14 0)
(0.992812 -0.00204542 0)
(0.925142 -0.00275848 0)
(0.92 -6.29901e-15 0)
(0.850064 0.0354885 0)
(0.924303 -0.00257089 0)
(0.993535 -0.00160615 0)
(0.989915 -0.0299067 0)
(0.990898 -0.031379 0)
(0.92 4.90818e-15 0)
(0.988529 -0.0306767 0)
(0.975457 -0.0208915 0)
(1.03087 -0.052336 0)
(0.990502 -0.0304806 0)
(1.03085 -0.0498654 0)
(0.940509 -0.00885772 0)
(0.919446 0.000178918 0)
(0.919082 0.000317173 0)
(0.940328 -0.00858495 0)
(0.92 4.80139e-14 0)
(0.919999 5.51509e-07 0)
(0.983718 -0.0272938 0)
(0.989509 -0.0298536 0)
(0.919995 2.31152e-06 0)
(1.01587 -0.00180265 0)
(1.03266 -0.057209 0)
(0.974694 -0.0229317 0)
(1.02141 -0.0369544 0)
(1.01947 -0.0366263 0)
(1.01623 -0.00233855 0)
(1.02652 -0.057652 0)
(1.02519 -0.0589226 0)
(1.03596 -0.0500589 0)
(1.03357 -0.0486098 0)
(0.859196 0.000231162 0)
(0.840365 0.0224131 0)
(0.817663 -0.00290623 0)
(0.83976 0.0223159 0)
(0.859943 0.000146937 0)
(0.984074 -0.029722 0)
(1.03062 -0.0533153 0)
(1.02806 -0.0568053 0)
(0.855872 0.00840081 0)
(0.919999 2.8332e-07 0)
(0.973784 -0.0204483 0)
(0.844776 0.000592609 0)
(0.975624 -0.0203257 0)
(0.974548 -0.019887 0)
(0.856321 0.0355107 0)
(0.856135 0.0367595 0)
(0.937022 0.00163295 0)
(0.855791 0.0345596 0)
(0.92 2.38471e-13 0)
(0.854882 0.0338714 0)
(0.861231 0.00351629 0)
(0.988385 -0.0287031 0)
(0.973971 -0.0180122 0)
(0.821963 -0.00766503 0)
(0.82199 -0.0232629 0)
(0.900822 0.00112002 0)
(0.99656 -0.00192726 0)
(0.845447 0.00309069 0)
(0.974294 -0.0251723 0)
(0.976684 -0.0250514 0)
(0.996954 -0.00154774 0)
(0.851175 0.0307341 0)
(0.979398 -0.0277894 0)
(0.985572 -0.028988 0)
(0.977221 -0.0278126 0)
(0.860523 0.00140156 0)
(0.860612 0.000789694 0)
(0.864584 0.00122871 0)
(0.860671 0.00188164 0)
(0.982716 -0.0289059 0)
(0.972918 -0.0205323 0)
(0.92 5.57068e-14 0)
(0.989558 0.0185149 0)
(0.855366 0.0320917 0)
(1.02624 -0.0591088 0)
(0.92 4.33493e-14 0)
(1.0259 -0.0585094 0)
(0.921683 -0.000360487 0)
(0.91732 0.000121914 0)
(0.855588 0.00828994 0)
(1.01864 -0.00238666 0)
(1.01912 -0.00280743 0)
(0.916764 -0.000586134 0)
(0.808517 0.0682809 0)
(0.874967 0.0293999 0)
(1.02964 -0.0587128 0)
(0.955721 0.0327611 0)
(0.939596 0.00409412 0)
(1.02388 -0.0562358 0)
(0.87134 0.0284284 0)
(0.87059 0.0283331 0)
(0.988043 -0.0314461 0)
(0.839411 -0.00860125 0)
(0.855628 0.00881971 0)
(0.85531 0.00867574 0)
(0.976506 -0.0188525 0)
(1.03272 -0.0768951 0)
(1.06954 0.00204564 0)
(0.985983 -0.031694 0)
(0.92 -4.97621e-12 0)
(0.866797 0.0267121 0)
(0.842085 0.000148037 0)
(0.866109 0.0266349 0)
(0.836185 -0.000760123 0)
(0.863944 0.0250735 0)
(0.754311 0.0510846 0)
(0.863085 0.0248999 0)
(0.924099 0.00100784 0)
(1.02978 -0.0406301 0)
(1.04679 -0.0605257 0)
(0.828704 0.00390672 0)
(0.833606 -0.0142172 0)
(0.807493 -0.0189194 0)
(0.824473 -0.0260276 0)
(1.05974 -0.0314725 0)
(0.966799 0.00149333 0)
(0.922398 7.48196e-05 0)
(0.756754 -0.0297725 0)
(0.886209 0.0106435 0)
(0.882501 0.0121979 0)
(0.878412 0.0128221 0)
(0.890824 0.00945727 0)
(0.885973 0.0111157 0)
(0.92 1.31271e-13 0)
(0.997238 0.0422038 0)
(0.88208 0.0127193 0)
(0.874448 0.014023 0)
(0.890197 0.00981334 0)
(0.990857 -0.0311517 0)
(0.877224 0.0130304 0)
(0.905072 0.00602527 0)
(0.894989 0.00805055 0)
(0.874384 0.0146878 0)
(0.840363 0.00074647 0)
(0.879016 0.0208361 0)
(0.893937 0.00849917 0)
(0.882926 0.0251844 0)
(0.870228 0.0161749 0)
(0.901463 0.00584652 0)
(0.880382 0.0615507 0)
(0.885792 0.029626 0)
(0.885571 0.0302967 0)
(0.90025 0.00633235 0)
(0.882965 0.0303988 0)
(0.882796 0.0324753 0)
(0.904877 0.00439341 0)
(0.882292 0.0304102 0)
(0.919955 1.9999e-05 0)
(0.879174 0.0299724 0)
(0.904644 0.00474049 0)
(0.845709 0.00104491 0)
(0.910319 0.00312144 0)
(0.878501 0.0299641 0)
(0.92 5.63542e-14 0)
(0.908947 0.000504149 0)
(1.02279 -0.00173785 0)
(0.909871 0.00340299 0)
(0.870238 0.0159834 0)
(0.92 1.00073e-13 0)
(0.871663 0.0147085 0)
(0.914433 0.00122124 0)
(0.921851 0.0209123 0)
(0.92 -3.73794e-08 0)
(0.872011 0.0144783 0)
(0.92 2.65339e-14 0)
(0.913211 0.00169262 0)
(1.02323 -0.00214554 0)
(0.842 -0.0216661 0)
(0.921104 -0.00115509 0)
(0.856665 0.00421573 0)
(1.00886 0.000744797 0)
(0.920158 -0.000709481 0)
(0.927415 -0.00358947 0)
(0.926957 -0.003185 0)
(1.03158 -0.0368234 0)
(0.932043 -0.00541379 0)
(0.93102 -0.00511516 0)
(0.935477 -0.0075422 0)
(0.860688 0.000449902 0)
(0.922116 -0.000881397 0)
(0.93503 -0.00730791 0)
(0.857584 0.00259319 0)
(0.94175 -0.0102357 0)
(0.920929 0.000497547 0)
(0.857485 0.00229118 0)
(0.845192 0.00320521 0)
(0.941618 -0.00989137 0)
(1.02122 -0.0353905 0)
(0.863419 -0.0102748 0)
(0.947374 -0.0114937 0)
(0.946804 -0.0113704 0)
(0.950032 -0.0142793 0)
(1.00177 -0.00199943 0)
(0.94947 -0.0140781 0)
(0.826121 -0.014343 0)
(0.955545 -0.0150725 0)
(0.860213 0.00137623 0)
(0.969796 -0.0221759 0)
(1.00229 -0.00165752 0)
(0.955499 -0.0147793 0)
(0.986343 0.0209765 0)
(0.996773 0.016306 0)
(0.986654 -0.0299593 0)
(0.959134 -0.0181187 0)
(0.970676 -0.0237569 0)
(0.970926 -0.0236265 0)
(0.91896 0.000605872 0)
(0.957888 -0.0179757 0)
(0.962825 -0.01978 0)
(0.962827 -0.0193799 0)
(0.924352 0.000793316 0)
(0.868076 -0.0135938 0)
(0.779156 -0.0540891 0)
(0.861393 0.00365715 0)
(0.866805 -0.0105358 0)
(0.862678 0.00417876 0)
(0.846378 -0.0104323 0)
(0.874591 -0.0121262 0)
(0.83958 -0.0173047 0)
(0.92 -4.54199e-14 0)
(0.772807 0.0535849 0)
(0.891608 -0.00466362 0)
(0.92 -6.01885e-14 0)
(1.02218 -0.0202614 0)
(1.00934 -0.015204 0)
(0.959088 0.0366121 0)
(0.955827 0.0384024 0)
(0.861533 0.00375831 0)
(0.914909 -0.0176203 0)
(0.911512 0.00397577 0)
(0.906387 0.00529672 0)
(0.888708 -0.00360664 0)
(1.08056 -0.0020505 0)
(0.913146 0.00336481 0)
(0.910212 0.00473924 0)
(0.91285 0.0037172 0)
(0.933262 0.0264987 0)
(1.00023 0.00243599 0)
(1.04784 -0.0422057 0)
(0.974534 -0.0208638 0)
(0.986353 -0.0308055 0)
(0.861589 0.00403033 0)
(0.990177 -0.0245157 0)
(1.02448 -0.0534412 0)
(1.04348 -0.0539744 0)
(0.99418 0.0177902 0)
(0.92 -9.78554e-15 0)
(0.890324 0.0128848 0)
(0.9343 0.0292782 0)
(1.0419 -0.0614138 0)
(0.92 1.51424e-13 0)
(1.02725 -0.00253465 0)
(0.924715 0.00186167 0)
(1.00365 0.00657016 0)
(1.02777 -0.00279293 0)
(0.92 1.73635e-14 0)
(0.878583 0.0317206 0)
(0.854334 0.000518861 0)
(1.0303 -0.0123499 0)
(0.994699 0.0166316 0)
(0.820024 0.000966897 0)
(0.913919 0.00284159 0)
(0.987557 0.0212184 0)
(0.984906 0.0226204 0)
(0.858424 -0.0191347 0)
(1.00535 -0.0022505 0)
(1.00037 0.00766227 0)
(1.00584 -0.00172539 0)
(0.969902 -0.0225363 0)
(0.920338 0.00140108 0)
(1.07858 -0.065705 0)
(1.03093 -0.0591407 0)
(0.853654 -0.0130057 0)
(1.00886 0.00179885 0)
(0.907692 0.00494268 0)
(0.966892 -0.0210493 0)
(0.854927 0.00284303 0)
(0.908153 0.00508253 0)
(0.894825 0.0311959 0)
(1.03035 -0.0122505 0)
(0.999475 0.0108408 0)
(0.843949 0.00106552 0)
(0.85507 0.0030013 0)
(0.858123 0.00185568 0)
(0.979128 -0.0240501 0)
(0.852404 0.0355511 0)
(0.864425 0.000360975 0)
(0.860143 0.00159607 0)
(0.830499 -0.0155296 0)
(0.994551 0.0121498 0)
(1.03129 -0.0484343 0)
(0.92 6.66732e-14 0)
(0.922892 0.00191383 0)
(0.86225 0.00142419 0)
(0.982758 -0.0243101 0)
(1.0195 -0.00570378 0)
(0.92 -5.55154e-13 0)
(0.92 1.1694e-13 0)
(0.741707 -0.0639496 0)
(1.03995 -0.0511803 0)
(0.883749 0.032429 0)
(1.04271 -0.054388 0)
(0.973141 -0.0170779 0)
(0.972976 -0.0167562 0)
(0.781689 0.00587421 0)
(0.906125 0.00573664 0)
(0.977793 -0.0199477 0)
(0.853251 0.0293294 0)
(0.962836 -0.00922331 0)
(0.864108 0.00119381 0)
(0.991609 0.01631 0)
(1.03026 -0.00151153 0)
(1.0211 -0.0202702 0)
(1.033 -0.0535367 0)
(0.851691 0.00159936 0)
(0.851022 0.00177656 0)
(0.991083 -0.0258698 0)
(1.004 -0.0136485 0)
(0.971986 -0.0246363 0)
(0.984582 -0.0296085 0)
(0.977472 -0.01867 0)
(0.977456 -0.0182698 0)
(0.851666 0.00172141 0)
(1.02921 -0.00168645 0)
(0.971483 -0.0248073 0)
(0.989238 -0.0313112 0)
(0.988186 -0.0310682 0)
(1.03244 -0.0481515 0)
(0.988915 0.0171079 0)
(0.854378 0.0295585 0)
(1.01734 -0.00497674 0)
(0.897296 -0.0501099 0)
(0.97962 -0.026009 0)
(1.05513 -0.0539873 0)
(0.979749 -0.0256581 0)
(0.933348 0.0289303 0)
(0.92 2.80125e-14 0)
(0.841216 0.00298465 0)
(0.84107 0.00312004 0)
(1.03127 -0.0524421 0)
(0.978388 -0.0288514 0)
(0.92 4.22955e-13 0)
(0.991652 -0.0302113 0)
(0.977624 -0.0291042 0)
(0.987165 -0.00743728 0)
(1.02362 0.00173316 0)
(1.02506 -0.0573685 0)
(0.991985 -0.0299518 0)
(0.844541 -0.00614359 0)
(0.919467 -0.000613823 0)
(0.893615 0.0131032 0)
(0.849846 0.00277263 0)
(0.848125 0.0026644 0)
(1.02297 -0.00545599 0)
(0.889039 0.0169214 0)
(0.843703 0.00320715 0)
(0.840491 0.00294483 0)
(0.859021 0.0315498 0)
(0.987072 -0.0299536 0)
(0.843179 0.00315299 0)
(0.98797 -0.0297462 0)
(1.03321 -0.0870575 0)
(0.845915 0.0162112 0)
(0.976656 -0.00850866 0)
(0.856894 0.0045601 0)
(0.858455 0.0311679 0)
(0.974606 -0.00898007 0)
(0.92 2.0654e-14 0)
(0.870418 0.0352963 0)
(0.988075 -0.0277253 0)
(0.87575 0.035909 0)
(0.869515 0.0350453 0)
(0.852416 0.00305103 0)
(0.89163 0.0100215 0)
(0.874389 0.0359298 0)
(0.982862 -0.0273269 0)
(0.977986 -0.0124596 0)
(0.895047 0.0117741 0)
(0.869127 0.0172989 0)
(0.933656 0.00377772 0)
(0.883377 0.0364233 0)
(0.897099 0.0313069 0)
(1.02041 -0.00401662 0)
(0.92 1.87041e-13 0)
(0.898957 0.0108083 0)
(0.882254 0.0364753 0)
(0.891199 0.0362167 0)
(0.846702 0.0344453 0)
(0.975896 -0.0228403 0)
(0.759341 -0.0422141 0)
(0.845637 0.0339405 0)
(0.840847 0.0294882 0)
(1.03767 -0.0560625 0)
(0.890357 0.0363861 0)
(0.841494 0.0301973 0)
(0.887324 0.0132375 0)
(0.855932 0.00703021 0)
(0.92 3.00763e-13 0)
(0.843344 0.017166 0)
(0.923041 0.00205447 0)
(0.899367 0.0354181 0)
(1.01105 0.0085137 0)