/*--------------------------------*- C++ -*----------------------------------*\
  =========                 |
  \\      /  F ield         | OpenFOAM: The Open Source CFD Toolbox
   \\    /   O peration     | Website:  https://openfoam.org
    \\  /    A nd           | Version:  12
     \\/     M anipulation  |
\*---------------------------------------------------------------------------*/
FoamFile
{
    format      ascii;
    class       volScalarField;
    location    "15.3";
    object      p;
}
// * * * * * * * * * * * * * * * * * * * * * * * * * * * * * * * * * * * * * //

dimensions      [1 -1 -2 0 0 0 0];

internalField   nonuniform List<scalar> 
9801
(
0.662744
0.668297
0.671208
0.673486
0.671959
0.671602
0.6737
0.676894
0.682784
0.695252
0.706767
0.713325
0.717868
0.721519
0.724667
0.723811
0.719743
0.720381
0.723334
0.727767
0.737965
0.75372
0.764556
0.770781
0.775247
0.778924
0.779817
0.774214
0.772655
0.775393
0.779502
0.786306
0.800942
0.817021
0.826289
0.832105
0.836878
0.84065
0.837985
0.831844
0.832324
0.836169
0.841531
0.852721
0.872212
0.887292
0.895659
0.901447
0.90647
0.906759
0.897317
0.89441
0.898179
0.904108
0.913887
0.934937
0.956283
0.967889
0.975163
0.981266
0.984989
0.974277
0.966031
0.969084
0.975876
0.98632
1.01118
1.03962
1.05645
1.06674
1.07471
1.081
1.06884
1.05264
1.05406
1.06343
1.07946
1.1157
1.15346
1.17591
1.19047
1.20265
1.20962
1.18862
1.16541
1.16981
1.1879
1.2237
1.29163
1.34841
1.38477
1.41639
1.44515
1.44487
1.42602
1.43215
1.46918
2.97252
12.3442
0.669443
0.675102
0.677586
0.679512
0.678457
0.67837
0.680508
0.683565
0.689305
0.702486
0.713881
0.720019
0.724115
0.727343
0.729964
0.729431
0.726855
0.728086
0.731126
0.735065
0.744668
0.760115
0.770381
0.776129
0.780209
0.783555
0.784824
0.781129
0.780322
0.783001
0.786923
0.792704
0.806649
0.822559
0.831676
0.83735
0.841847
0.845395
0.843718
0.838507
0.839265
0.843023
0.847825
0.857771
0.877297
0.892366
0.90055
0.906226
0.91103
0.911862
0.903731
0.901043
0.904525
0.909969
0.918113
0.938377
0.96004
0.971989
0.979601
0.985963
0.9902
0.981317
0.972744
0.974858
0.98099
0.989724
1.0129
1.04206
1.06009
1.0707
1.07888
1.0856
1.07561
1.05944
1.0595
1.06817
1.0805
1.11131
1.15078
1.17561
1.19185
1.20563
1.21682
1.2002
1.17428
1.17439
1.1906
1.21716
1.27402
1.33066
1.36935
1.40275
1.43414
1.43679
1.41354
1.4027
1.38521
2.77569
12.505
0.671372
0.677067
0.679527
0.681466
0.680761
0.681286
0.683692
0.686851
0.692929
0.705636
0.715644
0.721291
0.725273
0.728588
0.731572
0.732317
0.731767
0.73364
0.736757
0.74034
0.747174
0.760737
0.770588
0.776435
0.780811
0.784637
0.78762
0.786547
0.785785
0.788035
0.791503
0.79599
0.807472
0.822936
0.832292
0.838213
0.84295
0.847143
0.847589
0.843185
0.843452
0.846965
0.851546
0.859745
0.877697
0.892747
0.901109
0.907021
0.912171
0.914961
0.908943
0.905634
0.908579
0.913711
0.920352
0.93752
0.959562
0.972505
0.980734
0.987581
0.993196
0.987654
0.978321
0.978691
0.983984
0.991363
1.00818
1.03841
1.05966
1.07142
1.08014
1.08806
1.08315
1.0665
1.0629
1.06983
1.08053
1.10262
1.14632
1.17788
1.1954
1.20909
1.22107
1.21175
1.18334
1.17684
1.19063
1.21175
1.25429
1.31836
1.36697
1.40258
1.4366
1.44608
1.42562
1.41483
1.38243
2.6847
12.5351
0.674713
0.680588
0.683147
0.684887
0.684461
0.685425
0.687879
0.690942
0.696642
0.70853
0.718072
0.723875
0.728228
0.73193
0.735295
0.736779
0.736246
0.737408
0.739982
0.743183
0.749142
0.762215
0.77279
0.779277
0.784211
0.788461
0.792353
0.792646
0.790122
0.791166
0.794218
0.798223
0.807826
0.824334
0.835188
0.841711
0.846778
0.85136
0.853529
0.848927
0.847586
0.850432
0.854714
0.860884
0.876992
0.894339
0.904175
0.910747
0.916309
0.920826
0.916778
0.910613
0.911735
0.916233
0.921977
0.935141
0.959466
0.975715
0.984955
0.992111
0.998462
0.996496
0.984103
0.980894
0.985507
0.992971
1.00538
1.03551
1.0621
1.07562
1.08481
1.09333
1.09393
1.0753
1.06512
1.07076
1.08175
1.0974
1.13587
1.17489
1.19578
1.20994
1.22331
1.2254
1.20012
1.18233
1.18914
1.20949
1.23762
1.29035
1.34358
1.38312
1.41937
1.44222
1.43258
1.41812
1.36955
2.60456
12.5907
0.677921
0.683806
0.686378
0.687896
0.687456
0.688644
0.691196
0.694323
0.699994
0.712003
0.721612
0.727278
0.731543
0.735227
0.738569
0.73965
0.738757
0.740039
0.742852
0.746376
0.752395
0.765628
0.776708
0.783167
0.78789
0.791959
0.795612
0.795353
0.792342
0.793555
0.796957
0.801201
0.809692
0.826576
0.838694
0.845445
0.850421
0.854853
0.857099
0.852362
0.850079
0.85257
0.856839
0.862275
0.876455
0.896384
0.907852
0.91468
0.920245
0.924923
0.922001
0.913692
0.913331
0.917573
0.923348
0.933674
0.958181
0.978057
0.988377
0.995687
1.00209
1.00295
0.989999
0.982779
0.986428
0.993947
1.00421
1.02996
1.06083
1.07712
1.08697
1.09592
1.10141
1.08719
1.06991
1.07
1.08044
1.09342
1.12107
1.16631
1.19637
1.21332
1.22768
1.23779
1.22304
1.1969
1.18983
1.2035
1.22624
1.26495
1.31967
1.36548
1.40209
1.43489
1.44363
1.42896
1.36473
2.55613
12.6509
0.681671
0.687495
0.690097
0.691528
0.69058
0.691629
0.694228
0.697448
0.702802
0.715078
0.725513
0.731302
0.735515
0.739212
0.742656
0.743328
0.741724
0.743062
0.745979
0.74951
0.755208
0.768653
0.780404
0.786948
0.791679
0.795828
0.79958
0.798766
0.795721
0.797059
0.800333
0.804399
0.811877
0.828718
0.841929
0.849017
0.854132
0.858712
0.861605
0.856845
0.853189
0.855173
0.859335
0.864641
0.877044
0.898215
0.911346
0.918555
0.924205
0.92925
0.928219
0.917921
0.914895
0.918785
0.924899
0.934223
0.956989
0.979872
0.991625
0.999202
1.00579
1.00986
1.00009
0.987229
0.986974
0.993898
1.00298
1.0229
1.05694
1.07892
1.09006
1.09906
1.10709
1.10215
1.0809
1.07268
1.07905
1.09065
1.10774
1.14737
1.18924
1.21383
1.23048
1.24498
1.24552
1.21933
1.20013
1.20118
1.2181
1.24345
1.28733
1.33507
1.37324
1.40595
1.4301
1.43109
1.38457
2.51917
12.7173
0.685356
0.691449
0.69427
0.695751
0.694126
0.694741
0.697228
0.70043
0.705264
0.717465
0.729194
0.735272
0.739481
0.743236
0.746706
0.747159
0.744372
0.744946
0.747773
0.751558
0.757491
0.771523
0.784376
0.790943
0.7955
0.799644
0.803325
0.80211
0.797892
0.798483
0.801797
0.806236
0.813731
0.830814
0.845316
0.852671
0.857723
0.86227
0.86578
0.86175
0.855046
0.855644
0.859889
0.865702
0.877484
0.899342
0.914465
0.92205
0.927654
0.932809
0.934693
0.925296
0.917652
0.919554
0.925314
0.933331
0.952773
0.979119
0.994042
1.00218
1.00882
1.01484
1.0112
0.995505
0.990063
0.994444
1.00229
1.01463
1.0458
1.07741
1.09367
1.10355
1.11242
1.11558
1.0974
1.08014
1.07816
1.08706
1.09955
1.12465
1.17117
1.20847
1.22999
1.24613
1.25849
1.24834
1.22085
1.20854
1.21366
1.23096
1.26011
1.30565
1.34666
1.37769
1.40157
1.41472
1.39503
2.51418
12.7818
0.689101
0.695151
0.697952
0.699477
0.697344
0.697285
0.699558
0.702785
0.70742
0.719393
0.73319
0.740022
0.744108
0.747651
0.750846
0.751585
0.747792
0.746528
0.748838
0.752545
0.75849
0.773101
0.788629
0.79615
0.800523
0.804364
0.807727
0.807356
0.801882
0.799898
0.802564
0.806881
0.814164
0.831502
0.848692
0.857195
0.86229
0.86667
0.870518
0.868749
0.86016
0.857608
0.861046
0.866224
0.875763
0.897555
0.916529
0.925687
0.931493
0.93673
0.94061
0.934299
0.923573
0.922307
0.92676
0.933042
0.945697
0.973717
0.995403
1.00579
1.01273
1.01929
1.02168
1.0073
0.995395
0.995471
1.00199
1.01072
1.03096
1.06899
1.09531
1.10862
1.11803
1.12544
1.11741
1.09252
1.08205
1.08546
1.09621
1.11002
1.1429
1.18959
1.22169
1.24191
1.25854
1.26828
1.25378
1.22694
1.21724
1.2249
1.24293
1.27507
1.31858
1.35303
1.37661
1.39285
1.39528
2.53374
12.8395
0.693395
0.699376
0.702023
0.70358
0.70136
0.700176
0.701824
0.704775
0.708628
0.718875
0.735387
0.744766
0.749256
0.752582
0.75551
0.756667
0.752568
0.749715
0.750961
0.754188
0.758605
0.77085
0.789788
0.800375
0.805556
0.809415
0.81281
0.813414
0.807236
0.803459
0.804684
0.808407
0.813587
0.828036
0.84894
0.860445
0.866361
0.870968
0.875212
0.875968
0.867243
0.86209
0.863702
0.868096
0.874034
0.890971
0.915003
0.928176
0.93512
0.940676
0.945746
0.944437
0.93199
0.926243
0.928302
0.93374
0.941247
0.963015
0.99302
1.00897
1.01713
1.02372
1.02892
1.02117
1.00324
0.9978
1.00201
1.00976
1.02047
1.05069
1.08915
1.10998
1.12109
1.13007
1.13488
1.11779
1.0945
1.08872
1.09349
1.10431
1.12097
1.16023
1.20513
1.2346
1.2543
1.27054
1.27506
1.25815
1.23425
1.22599
1.23384
1.25224
1.2871
1.3281
1.35577
1.37198
1.38563
2.56804
12.889
0.697769
0.704
0.706489
0.708115
0.706218
0.703882
0.704799
0.70741
0.710727
0.717769
0.734604
0.747364
0.753329
0.757178
0.7603
0.762188
0.758949
0.754144
0.754441
0.757192
0.760864
0.768443
0.787357
0.802131
0.808985
0.813433
0.817215
0.819669
0.814938
0.808292
0.808278
0.811198
0.815341
0.824017
0.845388
0.861889
0.869676
0.874821
0.879327
0.882498
0.876594
0.867794
0.867091
0.870306
0.875153
0.884655
0.909223
0.929222
0.938578
0.944582
0.949934
0.953162
0.943058
0.931373
0.930473
0.934745
0.940846
0.952686
0.983513
1.00932
1.02109
1.02819
1.03446
1.03551
1.01835
1.00429
1.0033
1.00881
1.01679
1.03153
1.07009
1.1053
1.1227
1.1337
1.14347
1.14471
1.11917
1.09749
1.09493
1.10188
1.11348
1.13302
1.17493
1.2162
1.24304
1.26214
1.27784
1.28111
1.26401
1.24014
1.23157
1.23886
1.25668
1.29319
1.33064
1.35304
1.37176
2.61366
12.9374
0.700652
0.708065
0.710683
0.712958
0.711895
0.708203
0.708254
0.710544
0.713661
0.718583
0.732758
0.747842
0.755425
0.759987
0.763538
0.766601
0.766479
0.76022
0.758533
0.760787
0.76411
0.76885
0.783434
0.801539
0.810812
0.816109
0.820324
0.824028
0.823679
0.815243
0.812283
0.814448
0.818113
0.82336
0.839662
0.860975
0.87185
0.877824
0.882624
0.886959
0.886232
0.875392
0.870708
0.872685
0.87696
0.882748
0.900441
0.926931
0.940965
0.948062
0.953623
0.95854
0.955475
0.940315
0.934175
0.936356
0.941611
0.948474
0.968476
1.0029
1.02266
1.03182
1.03882
1.04474
1.0389
1.01715
1.0068
1.00784
1.01433
1.02307
1.04485
1.08903
1.1208
1.13607
1.14598
1.15401
1.14993
1.12328
1.10492
1.10359
1.11041
1.12197
1.14459
1.18769
1.22607
1.2515
1.27003
1.28402
1.28467
1.26725
1.24252
1.23283
1.23839
1.25597
1.29453
1.3281
1.35331
2.66871
12.9912
0.702335
0.710861
0.713907
0.716905
0.718042
0.713846
0.712156
0.714037
0.71695
0.720774
0.731775
0.74744
0.75654
0.761831
0.765891
0.769509
0.772093
0.767745
0.763333
0.764523
0.767523
0.771224
0.781014
0.79981
0.811869
0.81815
0.822783
0.826862
0.829668
0.823808
0.817139
0.817853
0.821157
0.825359
0.835331
0.857628
0.873072
0.880383
0.885511
0.89009
0.893042
0.885247
0.875816
0.875595
0.878995
0.883815
0.893326
0.91956
0.94135
0.951018
0.957139
0.962617
0.96587
0.954209
0.940535
0.938415
0.941717
0.947749
0.957706
0.987785
1.02007
1.03525
1.04369
1.05063
1.05464
1.03877
1.0165
1.01084
1.0146
1.02203
1.03116
1.05782
1.10327
1.1312
1.14501
1.15582
1.16537
1.15873
1.12881
1.11087
1.11055
1.11839
1.13068
1.15665
1.19954
1.23439
1.25774
1.27546
1.28746
1.28664
1.26748
1.24129
1.23009
1.23341
1.25179
1.29087
1.32627
2.72791
13.0473
0.703783
0.713106
0.71652
0.719857
0.722475
0.720376
0.716788
0.717751
0.72037
0.723623
0.731806
0.747449
0.757935
0.76378
0.768218
0.772064
0.775472
0.774537
0.768719
0.768297
0.770897
0.774428
0.780891
0.798061
0.812946
0.820316
0.825264
0.829476
0.833235
0.831821
0.823362
0.821579
0.824244
0.828118
0.833899
0.852097
0.872898
0.882831
0.888516
0.893248
0.897574
0.895788
0.883744
0.879091
0.881029
0.885276
0.891018
0.908712
0.937873
0.953577
0.96095
0.966637
0.971655
0.968795
0.950847
0.941377
0.942765
0.948236
0.95498
0.970461
1.0072
1.03405
1.04532
1.05222
1.05885
1.06114
1.04129
1.02173
1.01765
1.02019
1.02697
1.03786
1.07133
1.11768
1.14459
1.15792
1.16783
1.17386
1.16256
1.13418
1.11821
1.11851
1.12662
1.14
1.16962
1.21133
1.24238
1.26295
1.27889
1.28875
1.28673
1.26621
1.23762
1.22372
1.2255
1.24598
1.29029
2.77326
13.101
0.705682
0.715577
0.719142
0.722671
0.725757
0.726016
0.721797
0.721489
0.723727
0.726785
0.732633
0.747552
0.759927
0.766368
0.770932
0.774866
0.778519
0.779839
0.774284
0.77208
0.774173
0.777517
0.782035
0.795747
0.813644
0.822883
0.828173
0.832534
0.836594
0.838442
0.831045
0.825871
0.827049
0.830359
0.834698
0.845961
0.869799
0.884906
0.891884
0.896877
0.901489
0.904229
0.894465
0.883806
0.883203
0.886613
0.891668
0.900624
0.927433
0.953166
0.964451
0.970712
0.97584
0.979521
0.968683
0.951187
0.946912
0.949425
0.954703
0.961663
0.98336
1.02208
1.04475
1.05567
1.06384
1.07112
1.06845
1.04234
1.0239
1.02205
1.02731
1.03524
1.04688
1.08279
1.12757
1.1516
1.16421
1.17464
1.18153
1.17002
1.14159
1.12613
1.12679
1.13501
1.14913
1.18117
1.22087
1.2487
1.26761
1.28223
1.29021
1.28632
1.26376
1.23233
1.21455
1.21456
1.24544
2.79065
13.1481
0.707957
0.718491
0.722102
0.725674
0.728851
0.730492
0.726624
0.725077
0.726986
0.729957
0.734169
0.746793
0.761925
0.769593
0.774229
0.778172
0.781851
0.784461
0.780275
0.776031
0.777059
0.77995
0.783695
0.792609
0.812428
0.825619
0.831753
0.836201
0.840286
0.843771
0.839715
0.830884
0.829452
0.831905
0.835978
0.842277
0.862487
0.885274
0.895438
0.900859
0.905321
0.909384
0.906267
0.891973
0.886464
0.888599
0.893126
0.898551
0.913083
0.944681
0.964917
0.973522
0.979572
0.985245
0.98706
0.970312
0.954007
0.950893
0.953459
0.959114
0.967915
0.997678
1.03773
1.05763
1.06647
1.0726
1.07903
1.07431
1.04795
1.03192
1.03021
1.03364
1.04062
1.05442
1.09396
1.13705
1.16047
1.17347
1.18372
1.18825
1.17637
1.14972
1.13364
1.13293
1.14048
1.15531
1.19072
1.22986
1.2556
1.27241
1.28514
1.2906
1.28471
1.26011
1.22545
1.20104
1.19739
2.76763
13.1888
0.710057
0.721823
0.725444
0.729004
0.732198
0.734586
0.731579
0.728763
0.730087
0.732813
0.736167
0.744722
0.762263
0.773029
0.778132
0.782076
0.785695
0.788894
0.786888
0.780473
0.779562
0.781783
0.785299
0.790617
0.807676
0.827125
0.83582
0.840399
0.844413
0.848175
0.848064
0.83782
0.832467
0.833994
0.837607
0.842083
0.853256
0.879685
0.897296
0.904608
0.90918
0.913659
0.91641
0.905991
0.893394
0.891526
0.893804
0.898354
0.904899
0.927162
0.959575
0.976276
0.984505
0.990725
0.996162
0.992656
0.970391
0.956357
0.95562
0.959683
0.965599
0.97539
1.00949
1.04751
1.06504
1.0753
1.0839
1.09054
1.08095
1.05143
1.03551
1.03514
1.04108
1.04931
1.06349
1.10251
1.14353
1.16601
1.17938
1.19007
1.19539
1.18381
1.15532
1.13769
1.13643
1.14401
1.16046
1.19847
1.2368
1.26063
1.27586
1.28639
1.28919
1.2814
1.25345
1.21005
1.17278
2.70453
13.2272
0.71091
0.725401
0.729315
0.732887
0.736051
0.738864
0.737164
0.732791
0.732909
0.735175
0.738293
0.743217
0.759009
0.775454
0.782672
0.786522
0.789993
0.793272
0.793647
0.786207
0.782402
0.783891
0.786999
0.790948
0.800886
0.823959
0.838821
0.8451
0.848874
0.852519
0.855161
0.848464
0.838392
0.837037
0.839312
0.843092
0.84839
0.8668
0.894295
0.90758
0.913993
0.918506
0.922846
0.921578
0.905631
0.895181
0.894959
0.898438
0.903651
0.912722
0.942463
0.973229
0.986412
0.992878
0.998223
1.00393
0.997943
0.974264
0.962371
0.961228
0.96399
0.969767
0.982746
1.02275
1.06086
1.07748
1.0855
1.09133
1.0967
1.08734
1.05985
1.04527
1.04403
1.04764
1.05472
1.0708
1.11234
1.15182
1.1732
1.18584
1.1959
1.19979
1.18811
1.15998
1.14152
1.13925
1.14596
1.16351
1.20374
1.24182
1.26387
1.27699
1.28472
1.28554
1.27601
1.23722
1.17809
2.61966
13.2708
0.709593
0.728276
0.733804
0.737312
0.740368
0.743288
0.743213
0.737626
0.735717
0.737413
0.740304
0.743803
0.753221
0.773873
0.78606
0.791202
0.794574
0.797806
0.800019
0.794516
0.786983
0.786604
0.789153
0.792564
0.797262
0.814077
0.837743
0.848372
0.853484
0.857235
0.860919
0.860662
0.84876
0.840978
0.841103
0.843825
0.848111
0.856151
0.882052
0.907178
0.917826
0.923741
0.928149
0.93183
0.924471
0.906036
0.89903
0.900293
0.904116
0.909315
0.921096
0.95541
0.983353
0.995369
1.00294
1.00932
1.0138
1.00153
0.975627
0.965057
0.966543
0.971917
0.978005
0.990359
1.03
1.06613
1.08192
1.092
1.10087
1.10702
1.09596
1.06648
1.0499
1.04873
1.05458
1.06311
1.08
1.1208
1.15755
1.1776
1.19029
1.20051
1.20548
1.19324
1.16307
1.14359
1.1407
1.14676
1.16444
1.20552
1.24301
1.26372
1.2755
1.28105
1.28154
1.26307
1.21131
2.55049
13.3221
0.706518
0.728261
0.737769
0.741895
0.744903
0.747754
0.749285
0.744394
0.73946
0.739979
0.742471
0.745559
0.749971
0.766111
0.786346
0.795095
0.799325
0.802621
0.80568
0.80464
0.795038
0.790353
0.791363
0.793986
0.797661
0.805161
0.828988
0.849395
0.857465
0.861943
0.865688
0.868898
0.863063
0.848507
0.843869
0.845888
0.849638
0.854227
0.865997
0.896483
0.91764
0.925988
0.931447
0.936266
0.939722
0.928043
0.909368
0.903739
0.904765
0.908443
0.914086
0.930691
0.969305
0.995426
1.00561
1.01091
1.016
1.02089
1.00771
0.982973
0.974011
0.97354
0.975974
0.981725
0.996353
1.03918
1.07717
1.09354
1.10172
1.10834
1.11374
1.10401
1.07597
1.05945
1.05712
1.06029
1.06729
1.08677
1.13026
1.16574
1.18433
1.19578
1.20524
1.20998
1.19858
1.16744
1.14545
1.14083
1.14554
1.16254
1.20472
1.24263
1.26271
1.27265
1.27704
1.27226
1.25021
2.52412
13.381
0.704577
0.722893
0.739303
0.746065
0.749458
0.752434
0.755019
0.753322
0.745658
0.743139
0.744658
0.747357
0.750631
0.758358
0.780521
0.796717
0.80322
0.807045
0.810284
0.812768
0.807008
0.796161
0.793894
0.796255
0.799655
0.803657
0.815939
0.843189
0.859138
0.865686
0.869705
0.873525
0.875336
0.863742
0.851086
0.849308
0.851314
0.854749
0.85974
0.876964
0.90945
0.927499
0.935479
0.94126
0.946334
0.947334
0.929803
0.911318
0.907607
0.910636
0.915333
0.920828
0.938833
0.97782
1.00171
1.01232
1.02035
1.02702
1.03034
1.01306
0.98665
0.976597
0.978057
0.983262
0.989655
1.00306
1.04432
1.08125
1.09759
1.10784
1.11682
1.12274
1.11247
1.08245
1.06306
1.06007
1.06528
1.07417
1.09557
1.13817
1.17081
1.18855
1.20134
1.21188
1.2172
1.20361
1.16917
1.14497
1.13923
1.14314
1.15973
1.2028
1.24097
1.25983
1.26893
1.26876
1.27383
2.54564
13.4465
0.705465
0.715864
0.736581
0.748336
0.753525
0.7568
0.75962
0.761347
0.755484
0.747779
0.747204
0.749566
0.752708
0.75668
0.770482
0.793825
0.805359
0.810657
0.814301
0.817658
0.818506
0.807921
0.799157
0.799234
0.801952
0.805266
0.809991
0.828611
0.85562
0.867816
0.873665
0.877806
0.881776
0.880834
0.864923
0.853729
0.853048
0.855971
0.860061
0.866351
0.889704
0.921921
0.936888
0.943394
0.947895
0.952973
0.9537
0.93443
0.917623
0.914549
0.915792
0.919549
0.925633
0.947674
0.989285
1.01342
1.02277
1.02791
1.0331
1.03725
1.0213
0.995691
0.986103
0.985468
0.987711
0.993321
1.00845
1.05291
1.09163
1.10805
1.11617
1.12259
1.12757
1.11949
1.09146
1.07183
1.06765
1.0703
1.0775
1.10017
1.14541
1.17983
1.19726
1.20736
1.21566
1.22001
1.20713
1.17175
1.14492
1.13746
1.14002
1.15597
1.19971
1.23711
1.25574
1.25953
1.28209
2.60445
13.5184
0.70772
0.713419
0.729569
0.748081
0.755897
0.760147
0.763355
0.766239
0.766106
0.756835
0.751346
0.752394
0.755222
0.758433
0.764199
0.784412
0.804627
0.812727
0.817328
0.821085
0.824647
0.822642
0.809464
0.803235
0.804077
0.806883
0.810548
0.81783
0.842729
0.866876
0.876862
0.882428
0.886527
0.890194
0.884495
0.86574
0.857568
0.858711
0.86218
0.866261
0.873255
0.900541
0.931181
0.944488
0.951611
0.957519
0.962605
0.960085
0.937414
0.920407
0.918243
0.921949
0.926966
0.932796
0.954173
0.994696
1.01761
1.02835
1.03674
1.04358
1.04655
1.02902
1.00116
0.989034
0.989637
0.995077
1.00191
1.01589
1.05761
1.09399
1.10997
1.12006
1.12914
1.13542
1.12837
1.09913
1.07612
1.06992
1.07321
1.08136
1.10489
1.14973
1.18242
1.19895
1.21033
1.21965
1.22466
1.21153
1.17405
1.14395
1.13442
1.13575
1.15074
1.19447
1.23137
1.24574
1.27769
2.6844
13.5931
0.710589
0.714843
0.723106
0.7434
0.756596
0.762153
0.765993
0.769368
0.772351
0.76923
0.758903
0.756098
0.757811
0.760642
0.764119
0.774228
0.798599
0.814108
0.820393
0.824511
0.828181
0.831214
0.824337
0.810422
0.807041
0.809346
0.812903
0.816758
0.827224
0.856052
0.876465
0.884426
0.889471
0.893785
0.897422
0.888465
0.869701
0.863353
0.864166
0.86683
0.871157
0.880662
0.912418
0.942063
0.954068
0.959746
0.963764
0.969127
0.967101
0.944204
0.928591
0.926157
0.927152
0.930751
0.936961
0.96126
1.00459
1.02905
1.03848
1.04363
1.0488
1.05315
1.03894
1.01154
0.999396
0.998186
0.999877
1.00495
1.02005
1.06445
1.10309
1.11974
1.12803
1.13513
1.14094
1.13603
1.10743
1.08217
1.07456
1.07588
1.08207
1.1048
1.15263
1.18893
1.20667
1.21624
1.22342
1.22715
1.21498
1.17651
1.1424
1.12986
1.12995
1.1443
1.18877
1.22019
1.26203
2.76959
13.661
0.713948
0.717386
0.72092
0.735351
0.755167
0.764239
0.768826
0.772345
0.775617
0.777819
0.770307
0.761232
0.760727
0.763298
0.766512
0.770907
0.786887
0.811206
0.822568
0.827653
0.831331
0.83501
0.836541
0.82453
0.813358
0.812661
0.815057
0.818151
0.822359
0.83725
0.867773
0.885286
0.892821
0.898202
0.902896
0.90513
0.891148
0.871901
0.866911
0.869364
0.873393
0.877636
0.887585
0.920598
0.948452
0.959909
0.967407
0.973537
0.978569
0.973886
0.949134
0.931863
0.929412
0.933061
0.938311
0.944246
0.966294
1.00781
1.03155
1.04264
1.05137
1.05828
1.0619
1.04796
1.01913
1.00286
1.00088
1.00545
1.01232
1.02763
1.06982
1.1058
1.12237
1.13304
1.14215
1.14828
1.14283
1.11304
1.08539
1.07588
1.07765
1.08503
1.10757
1.15406
1.19012
1.20805
1.21841
1.22547
1.229
1.21793
1.17918
1.14052
1.12426
1.12233
1.13815
1.1786
1.23269
2.84764
13.7136
0.717195
0.719919
0.722557
0.729566
0.749502
0.765232
0.771546
0.775246
0.778579
0.78192
0.781578
0.770462
0.76501
0.766266
0.769072
0.772161
0.778074
0.799882
0.821949
0.830677
0.835212
0.838807
0.842457
0.840453
0.825027
0.81644
0.816649
0.819537
0.823169
0.828368
0.848133
0.87872
0.89383
0.90018
0.904432
0.908834
0.911108
0.895971
0.878145
0.874057
0.874864
0.877443
0.882003
0.894556
0.930653
0.958963
0.969976
0.975246
0.979367
0.984835
0.981945
0.957716
0.940932
0.937871
0.938429
0.941468
0.947486
0.971521
1.01638
1.04251
1.05239
1.05763
1.06277
1.068
1.05848
1.02956
1.01216
1.00909
1.01078
1.01565
1.03103
1.07576
1.11467
1.13139
1.13926
1.14546
1.15222
1.15108
1.12271
1.09247
1.0813
1.08088
1.08521
1.10434
1.152
1.19118
1.2103
1.2204
1.22693
1.22991
1.21935
1.18123
1.13847
1.117
1.11414
1.12781
1.1915
2.89759
13.7506
0.721006
0.722797
0.725381
0.728818
0.740489
0.762236
0.773623
0.778636
0.78213
0.785482
0.788515
0.783168
0.771786
0.769311
0.771009
0.773888
0.777457
0.78677
0.812947
0.831878
0.839185
0.843216
0.846577
0.849698
0.842663
0.825851
0.820329
0.822077
0.825449
0.828952
0.834462
0.857324
0.887407
0.90098
0.907645
0.913098
0.91789
0.918048
0.899502
0.88093
0.877066
0.879862
0.884158
0.888603
0.900578
0.936171
0.963285
0.974736
0.982652
0.988962
0.993945
0.9895
0.96453
0.944796
0.940438
0.943491
0.948832
0.955
0.976343
1.01863
1.04391
1.05529
1.0642
1.07113
1.07582
1.06702
1.0379
1.01679
1.01162
1.01496
1.02149
1.03727
1.0796
1.11534
1.13199
1.14372
1.15351
1.16007
1.15789
1.12869
1.09537
1.0808
1.07998
1.08533
1.10393
1.15088
1.19187
1.21171
1.22092
1.2263
1.22841
1.21914
1.18352
1.1375
1.11054
1.0984
1.1394
2.89647
13.7754
0.725806
0.725585
0.727792
0.730639
0.735336
0.753079
0.773705
0.782133
0.786213
0.789474
0.792665
0.793582
0.782604
0.773537
0.773468
0.776243
0.779569
0.783343
0.796262
0.824339
0.840316
0.846883
0.851082
0.854564
0.856876
0.846053
0.830271
0.826388
0.827537
0.830015
0.833837
0.840942
0.867521
0.897089
0.909789
0.915484
0.919082
0.923675
0.924656
0.906134
0.888505
0.884749
0.885327
0.887754
0.892454
0.906322
0.9446
0.973681
0.984889
0.990047
0.993876
0.99932
0.998143
0.974759
0.95456
0.949578
0.949798
0.952025
0.957655
0.979824
1.0255
1.05387
1.06453
1.06999
1.07517
1.08128
1.07692
1.04854
1.02535
1.01897
1.01977
1.02401
1.0378
1.08165
1.1234
1.14232
1.15077
1.15679
1.1633
1.16453
1.13804
1.1025
1.08571
1.08294
1.08623
1.1019
1.14737
1.18907
1.2094
1.21902
1.2248
1.22665
1.21856
1.18503
1.13673
1.09824
1.09385
2.84176
13.7945
0.731647
0.728214
0.73007
0.733042
0.73617
0.743841
0.766378
0.783518
0.790089
0.793445
0.7964
0.799361
0.796306
0.782749
0.777526
0.778926
0.78163
0.7846
0.788785
0.805729
0.834239
0.848686
0.855204
0.859768
0.863585
0.864394
0.84907
0.832853
0.829905
0.832656
0.836305
0.839875
0.84702
0.875058
0.903638
0.915512
0.922282
0.927912
0.932658
0.931872
0.911457
0.891951
0.887461
0.890212
0.894852
0.899634
0.911711
0.94785
0.976151
0.988121
0.996378
1.00291
1.00805
1.00648
0.983779
0.960229
0.951957
0.953585
0.958543
0.964938
0.9849
1.0273
1.05443
1.06673
1.07616
1.08352
1.0889
1.08464
1.05715
1.03066
1.02114
1.02255
1.02812
1.04175
1.08292
1.12283
1.14171
1.15368
1.16433
1.17136
1.17164
1.14544
1.107
1.08626
1.08231
1.08519
1.09724
1.14177
1.18691
1.20895
1.21827
1.22301
1.22382
1.21599
1.18424
1.12529
1.08124
2.73913
13.8196
0.739905
0.732386
0.732902
0.735519
0.738446
0.741703
0.752739
0.777673
0.792053
0.797835
0.801021
0.80397
0.806177
0.797851
0.784621
0.781482
0.783039
0.785957
0.789463
0.794746
0.815175
0.843353
0.856307
0.86211
0.866175
0.870059
0.870755
0.854775
0.839766
0.837099
0.837985
0.840374
0.844328
0.853331
0.884034
0.912973
0.924699
0.929946
0.933293
0.938069
0.939177
0.920152
0.900891
0.896241
0.896483
0.898316
0.902742
0.915615
0.95398
0.985662
0.998157
1.0037
1.00749
1.01294
1.01496
0.995536
0.970347
0.961293
0.960685
0.962341
0.96732
0.986759
1.0324
1.06403
1.07623
1.08224
1.08746
1.09376
1.09371
1.06809
1.03879
1.02754
1.02656
1.02976
1.04021
1.08094
1.12861
1.15266
1.16244
1.16894
1.17434
1.17494
1.15131
1.1116
1.08746
1.08106
1.08347
1.09537
1.13825
1.18378
1.20639
1.2155
1.2197
1.21911
1.21166
1.17172
1.10912
2.6301
13.8681
0.750377
0.740576
0.736654
0.737935
0.740193
0.743038
0.747135
0.762156
0.787791
0.800467
0.805819
0.808749
0.811677
0.812316
0.799349
0.78703
0.785698
0.788393
0.791792
0.795009
0.800425
0.823107
0.850957
0.863264
0.869383
0.874377
0.878704
0.877727
0.858973
0.842725
0.84009
0.842941
0.846814
0.850618
0.858932
0.889343
0.91739
0.928993
0.936209
0.942053
0.94691
0.947112
0.92795
0.906
0.898781
0.90049
0.904837
0.909778
0.920352
0.955717
0.986801
1.00036
1.00916
1.01613
1.02149
1.02302
1.00553
0.977981
0.964294
0.963452
0.967813
0.974107
0.991767
1.03377
1.06403
1.07783
1.08812
1.09587
1.10175
1.1012
1.07638
1.04421
1.02941
1.02851
1.03342
1.04391
1.0805
1.12713
1.15139
1.16266
1.17084
1.17753
1.17943
1.15931
1.11908
1.09129
1.08274
1.08293
1.09108
1.13173
1.17871
1.20209
1.21115
1.2145
1.21478
1.19979
1.16494
2.56697
13.9338
0.758798
0.753811
0.742121
0.740331
0.742477
0.745453
0.748445
0.752796
0.77054
0.796085
0.807772
0.813251
0.81682
0.819996
0.818375
0.802963
0.79259
0.791903
0.793489
0.796196
0.79984
0.806667
0.831798
0.859223
0.871022
0.876422
0.87985
0.883798
0.883932
0.866184
0.850758
0.847878
0.848479
0.850479
0.854414
0.864079
0.896463
0.926376
0.938516
0.943833
0.947278
0.952231
0.954911
0.938518
0.915627
0.907797
0.907313
0.908321
0.912191
0.922891
0.959902
0.995713
1.01053
1.01668
1.0204
1.02565
1.03009
1.01743
0.988722
0.973615
0.971094
0.97211
0.97622
0.991829
1.03644
1.07307
1.08802
1.09467
1.09939
1.10562
1.10883
1.08807
1.05382
1.037
1.03381
1.03526
1.04174
1.07448
1.12626
1.1565
1.16904
1.17609
1.18238
1.18507
1.16769
1.12445
1.09098
1.07916
1.07921
1.08629
1.12495
1.17317
1.19768
1.20632
1.2101
1.2048
1.20631
2.57099
14.0034
0.763702
0.766654
0.754993
0.745904
0.745638
0.747704
0.750048
0.752773
0.757844
0.778804
0.804409
0.815719
0.821247
0.825039
0.8283
0.824947
0.806915
0.795934
0.795769
0.798875
0.802371
0.805596
0.812242
0.838438
0.865455
0.876627
0.88271
0.887934
0.892317
0.891271
0.872243
0.854497
0.850469
0.852899
0.856845
0.860841
0.869082
0.899636
0.929091
0.941827
0.949757
0.956096
0.961102
0.963001
0.947456
0.922214
0.910425
0.910168
0.914046
0.919157
0.928569
0.961554
0.995998
1.0116
1.02076
1.02837
1.03401
1.03765
1.02712
0.997825
0.977702
0.973146
0.976403
0.98219
0.996363
1.03663
1.07171
1.08791
1.09903
1.10798
1.11419
1.11635
1.09657
1.06019
1.03862
1.03387
1.0371
1.04444
1.07288
1.1237
1.15779
1.1726
1.17943
1.18407
1.1857
1.17143
1.12891
1.09193
1.07754
1.07589
1.08168
1.11864
1.16682
1.19172
1.20207
1.19939
1.2272
2.62347
14.0754
0.768074
0.773242
0.77118
0.75742
0.749265
0.74905
0.751338
0.754329
0.757759
0.764349
0.78732
0.811953
0.822484
0.827778
0.831761
0.835047
0.831387
0.813646
0.803452
0.802644
0.803819
0.806386
0.810182
0.81839
0.846343
0.873589
0.884873
0.890031
0.893162
0.897433
0.898491
0.881397
0.863356
0.85877
0.858884
0.860257
0.863989
0.872744
0.904945
0.937923
0.951858
0.957589
0.960813
0.965322
0.969544
0.958612
0.932894
0.920135
0.918352
0.918911
0.921961
0.930078
0.963068
1.00302
1.02162
1.02886
1.03288
1.03807
1.04355
1.03802
1.0092
0.986999
0.981013
0.980969
0.983972
0.994719
1.03516
1.07867
1.09882
1.10686
1.11152
1.11724
1.12219
1.10819
1.07089
1.0465
1.03976
1.03961
1.04339
1.0663
1.1193
1.15703
1.17176
1.17873
1.18389
1.18679
1.17636
1.13488
1.09352
1.07552
1.0724
1.07612
1.11136
1.15917
1.18596
1.19029
1.23086
2.70911
14.1511
0.771613
0.777481
0.779943
0.775278
0.759448
0.752789
0.753954
0.756976
0.760217
0.763365
0.769849
0.794348
0.819067
0.829429
0.834821
0.839256
0.842931
0.838428
0.818341
0.806435
0.80603
0.809075
0.812732
0.816163
0.823488
0.851312
0.878235
0.889371
0.89591
0.901365
0.905837
0.906321
0.889161
0.868116
0.861015
0.862521
0.866405
0.870866
0.878263
0.907161
0.93929
0.953682
0.961856
0.968684
0.973792
0.977282
0.968301
0.942306
0.924466
0.92054
0.923487
0.928325
0.936103
0.96448
1.00245
1.02163
1.03185
1.04043
1.04654
1.05121
1.04668
1.01888
0.992145
0.982597
0.983961
0.989019
0.999112
1.0341
1.07593
1.09698
1.10889
1.11911
1.1258
1.12951
1.11604
1.07782
1.04865
1.03875
1.03947
1.04464
1.06486
1.11505
1.15533
1.17279
1.18066
1.18606
1.18908
1.18095
1.14033
1.09424
1.07189
1.06703
1.07009
1.10445
1.15201
1.1722
1.22362
2.80542
14.2229
0.772799
0.781976
0.784722
0.787088
0.778892
0.76355
0.758867
0.759905
0.761903
0.764795
0.768378
0.77631
0.802225
0.826236
0.83606
0.840827
0.844055
0.847236
0.844311
0.826009
0.814709
0.81343
0.814297
0.816552
0.820278
0.82876
0.858057
0.88645
0.898142
0.90317
0.905985
0.91008
0.912803
0.899238
0.877831
0.870181
0.869791
0.870575
0.873681
0.880725
0.909658
0.946106
0.963347
0.970066
0.973558
0.977864
0.982897
0.979306
0.954521
0.9345
0.929356
0.929345
0.931393
0.937197
0.963614
1.00718
1.03167
1.0409
1.04545
1.05011
1.05589
1.0559
1.03114
1.00221
0.991131
0.989407
0.990916
0.99738
1.02881
1.07891
1.10759
1.11811
1.12319
1.12775
1.13292
1.1257
1.08918
1.05632
1.04414
1.04242
1.04497
1.05933
1.10862
1.1545
1.17486
1.18225