/*--------------------------------*- C++ -*----------------------------------*\
  =========                 |
  \\      /  F ield         | OpenFOAM: The Open Source CFD Toolbox
   \\    /   O peration     | Website:  https://openfoam.org
    \\  /    A nd           | Version:  12
     \\/     M anipulation  |
\*---------------------------------------------------------------------------*/
FoamFile
{
    format      ascii;
    class       surfaceScalarField;
    location    "18.9";
    object      phi;
}
// * * * * * * * * * * * * * * * * * * * * * * * * * * * * * * * * * * * * * //

dimensions      [1 0 -1 0 0 0 0];

internalField   nonuniform List<scalar> 
19404
(
-0.000137994
3.0694e-07
-0.000141583
-7.4174e-07
-0.000144269
-1.18301e-06
-0.000144942
-9.19647e-07
-0.000144976
-4.12313e-07
-0.000144718
-3.50293e-08
-0.000142691
8.94834e-07
-0.000138815
1.57934e-06
-0.000137622
1.45413e-06
-0.000137537
1.01796e-06
-0.000138535
4.18868e-07
-0.000142854
-5.12049e-07
-0.000146504
-1.0313e-06
-0.000147788
-7.11725e-07
-0.000148075
-3.96374e-07
-0.000148076
-1.57232e-07
-0.000147368
2.08086e-07
-0.000143189
1.29144e-06
-0.000139872
1.61054e-06
-0.000139396
9.36728e-07
-0.000139307
7.25994e-07
-0.000139795
3.89642e-07
-0.000144432
-4.74504e-07
-0.000149064
-1.13277e-06
-0.000150561
-9.03166e-07
-0.000150861
-4.84151e-07
-0.000150889
-1.86193e-07
-0.000150469
7.34602e-08
-0.000147128
1.06356e-06
-0.000142861
1.70129e-06
-0.000141949
9.97182e-07
-0.000141866
6.66214e-07
-0.000141897
3.62917e-07
-0.00014326
-4.6272e-08
-0.00014849
-6.51973e-07
-0.000152163
-8.89953e-07
-0.000153138
-6.25983e-07
-0.000153336
-1.81937e-07
-0.000153277
1.68039e-09
-0.000152518
3.59092e-07
-0.000148092
1.21026e-06
-0.000144649
1.54812e-06
-0.000144179
8.4941e-07
-0.000144182
5.25543e-07
-0.000144343
1.41737e-07
-0.00014654
-2.3309e-07
-0.000151851
-6.38643e-07
-0.000154848
-5.54157e-07
-0.000155652
-3.42257e-07
-0.000155843
-2.79521e-08
-0.000155829
1.33329e-07
-0.000154699
3.06637e-07
-0.000149599
9.08502e-07
-0.000146598
1.20517e-06
-0.000146258
7.12284e-07
-0.000146273
4.2252e-07
-0.000146794
1.89765e-07
-0.000150769
-1.10774e-07
-0.000156014
-2.67861e-07
-0.000158144
-2.27644e-07
-0.000158732
-5.6015e-08
-0.000158861
1.08836e-07
-0.000158736
1.9997e-07
-0.000155138
3.6135e-07
-0.000149295
6.26685e-07
-0.00014752
5.08124e-07
-0.000147434
2.61849e-07
-0.000147599
3.67511e-08
-0.000150324
-3.28472e-08
-0.000156796
-2.57845e-08
-0.000160475
-1.04877e-07
-0.00016163
4.67187e-08
-0.000161957
1.682e-07
-0.000162054
2.17566e-07
-0.000159954
2.28226e-07
-0.000151873
2.87129e-07
-0.00014728
2.21307e-07
-0.0001466
3.8e-08
-0.000146711
-2.47458e-07
-0.000149807
-4.57477e-07
-0.00015783
-2.37689e-07
-0.000162639
-4.09741e-08
-0.000164188
1.86542e-07
-0.000164681
3.91705e-07
-0.000164843
4.29194e-07
-0.000162021
3.87727e-07
-0.000150487
-1.19087e-07
-0.000142031
-5.6977e-07
-0.000140216
-1.05263e-06
-0.000140326
-1.60289e-06
-0.000146481
-2.10073e-06
-0.000158715
-1.80235e-06
-0.000164375
-1.35949e-06
-0.000165872
-8.6514e-07
-0.000166243
-1.26261e-06
-0.000160048
-1.41299e-06
-0.000140553
-4.93777e-06
-0.000104156
-3.62018e-05
2.6715e-05
-0.000141589
6.40777e-08
-0.000142959
-1.00811e-06
-0.000144174
-1.65437e-06
-0.000144409
-1.24092e-06
-0.000143988
-2.1182e-07
-0.000142006
8.90083e-07
-0.000140118
1.61732e-06
-0.000139599
2.1054e-06
-0.000139505
2.16883e-06
-0.000140141
1.23092e-06
-0.000142382
1.41062e-07
-0.0001447
-6.68341e-07
-0.000146672
-1.32296e-06
-0.000147681
-7.96287e-07
-0.000147787
-6.11427e-07
-0.000147019
1.79232e-07
-0.000144207
1.27554e-06
-0.000142299
1.75375e-06
-0.0001415
1.8129e-06
-0.00014113
1.53573e-06
-0.000141118
9.17901e-07
-0.000142681
2.82383e-08
-0.000146263
-7.49662e-07
-0.000149168
-1.41644e-06
-0.000150189
-9.77788e-07
-0.000150449
-5.01418e-07
-0.000150219
9.31134e-08
-0.00014807
1.11403e-06
-0.000145449
1.79604e-06
-0.000144217
1.74194e-06
-0.000143597
1.28442e-06
-0.000143467
7.15147e-07
-0.000143551
2.2988e-07
-0.000145376
-2.72457e-07
-0.000149514
-6.82341e-07
-0.000152031
-1.00784e-06
-0.000152727
-4.72954e-07
-0.000152836
1.12939e-07
-0.000152454
7.28691e-07
-0.000150357
1.29537e-06
-0.000147456
1.66066e-06
-0.000145971
1.66178e-06
-0.000145565
9.31525e-07
-0.00014553
3.57155e-07
-0.00014572
-5.75598e-08
-0.000148054
-3.96067e-07
-0.000152551
-5.72148e-07
-0.000154801
-5.34215e-07
-0.000155398
-1.29362e-07
-0.000155511
3.33783e-07
-0.000155282
7.12783e-07
-0.000153153
1.02683e-06
-0.0001491
1.35564e-06
-0.000147201
1.31199e-06
-0.000146909
7.59392e-07
-0.000146929
2.79131e-07
-0.000147412
-4.91465e-08
-0.000151432
-2.86742e-07
-0.000156288
-3.29946e-07
-0.000158072
-1.69383e-07
-0.000158521
1.87942e-07
-0.000158631
4.93796e-07
-0.000158267
6.97686e-07
-0.000154512
9.26938e-07
-0.000149438
9.95673e-07
-0.000147712
6.252e-07
-0.000147567
2.89942e-07
-0.000147689
3.0704e-10
-0.000150112
-2.65868e-07
-0.000156598
-2.57859e-07
-0.000160299
-2.9376e-08
-0.000161423
2.9167e-07
-0.000161735
4.72131e-07
-0.000161778
5.72679e-07
-0.000159679
6.37871e-07
-0.000152138
6.16676e-07
-0.000147493
2.45076e-07
-0.000146533
-2.27554e-07
-0.000146587
-5.83087e-07
-0.000148036
-1.00204e-06
-0.000155188
-8.67754e-07
-0.000160927
-4.60707e-08
-0.000163058
4.24109e-07
-0.000163694
5.36502e-07
-0.000163906
5.17431e-07
-0.000162094
4.75322e-07
-0.000151746
9.03006e-08
-0.000142625
-1.03211e-06
-0.000139395
-2.0332e-06
-0.000139391
-3.18162e-06
-0.000141687
-4.18445e-06
-0.000150294
-4.29277e-06
-0.000155545
-3.09319e-06
-0.000156994
-3.11225e-06
-0.000157101
-4.14016e-06
-0.000150794
-5.24171e-06
-0.000133706
-1.0288e-05
-0.000122631
-4.3951e-05
3.63723e-05
-0.000144133
4.6051e-07
-0.000143937
-3.94711e-07
-0.000143473
-1.19243e-06
-0.000141214
-7.54306e-07
-0.000139345
4.05417e-07
-0.000138807
8.02759e-07
-0.000138767
1.35023e-06
-0.000138896
1.78582e-06
-0.000140884
1.6238e-06
-0.000144132
1.12908e-06
-0.000145528
6.41333e-07
-0.000145682
5.59471e-08
-0.000146023
-6.86982e-07
-0.000146078
-7.238e-07
-0.000145116
1.30252e-07
-0.000142933
1.05567e-06
-0.000141998
1.12096e-06
-0.000141743
1.43182e-06
-0.000141659
1.56737e-06
-0.000141727
1.13492e-06
-0.000143002
5.36589e-07
-0.000145472
1.46559e-07
-0.00014709
-3.02147e-07
-0.000147736
-5.03767e-07
-0.000148109
-2.46075e-07
-0.00014804
5.07872e-07
-0.000147077
1.21886e-06
-0.000145722
1.33757e-06
-0.000144881
1.4498e-06
-0.000144684
1.25767e-06
-0.000144542
8.13225e-07
-0.000144464
4.02455e-07
-0.000144572
2.60286e-08
-0.000146723
-2.02885e-07
-0.000149027
-3.65462e-07
-0.000150003
-3.98223e-08
-0.000150365
6.07925e-07
-0.000150293
1.19772e-06
-0.000149983
1.38028e-06
-0.000148816
1.33117e-06
-0.000147313
1.31824e-06
-0.000146663
8.26929e-07
-0.000146221
3.84529e-07
-0.000145993
1.18461e-07
-0.000146057
-9.41656e-08
-0.000148175
-3.35082e-07
-0.000151399
-1.48045e-07
-0.000152745
4.18374e-07
-0.000153211
9.52114e-07
-0.000153265
1.20765e-06
-0.000153115
1.25617e-06
-0.000151726
1.14107e-06
-0.000148714
1.08066e-06
-0.000147379
4.3013e-07
-0.000146953
1.79828e-07
-0.000146949
-5.62145e-08
-0.000147309
-2.5692e-07
-0.000150877
-3.17827e-07
-0.000154451
1.36478e-07
-0.000155745
7.6902e-07
-0.000156174
1.20999e-06
-0.000156262
1.3046e-06
-0.000156094
1.23453e-06
-0.000153418
1.05684e-06
-0.000148921
6.7709e-07
-0.000147079
9.85646e-08
-0.000146796
-2.45304e-07
-0.000146846
-4.39705e-07
-0.000148124
-6.79255e-07
-0.000153801
-4.30441e-07
-0.00015764
4.54848e-07
-0.000158718
9.67231e-07
-0.000159046
1.16842e-06
-0.000159135
1.20773e-06
-0.00015792
1.05596e-06
-0.000151831
6.65754e-07
-0.000146489
-3.97577e-07
-0.000144638
-1.03322e-06
-0.000144394
-1.29329e-06
-0.000144784
-1.48245e-06
-0.000150222
-1.65869e-06
-0.00015745
-4.9926e-07
-0.00015997
5.53123e-07
-0.000160496
9.13678e-07
-0.000160746
9.7482e-07
-0.000159624
8.13681e-07
-0.000151665
4.55415e-07
-0.000141858
-9.4904e-07
-0.000136622
-3.14755e-06
-0.000135642
-4.81539e-06
-0.000136036
-5.81153e-06
-0.000141736
-6.55569e-06
-0.000148268
-5.78994e-06
-0.000150512
-6.03143e-06
-0.000150993
-7.69379e-06
-0.000146916
-9.48468e-06
-0.000134316
-1.33907e-05
-0.000123754
-4.67657e-05
4.42062e-05
-0.000146534
8.11576e-07
-0.000145895
6.41293e-07
-0.000141243
-1.32022e-07
-0.000136792
8.81827e-07
-0.000136127
8.28043e-07
-0.000136063
6.71771e-07
-0.000136793
4.5868e-07
-0.000138523
5.93104e-07
-0.000141934
1.03173e-06
-0.000145923
9.6644e-07
-0.000147169
7.49734e-07
-0.000147063
4.51693e-07
-0.000146703
4.0124e-07
-0.000144045
9.9365e-07
-0.000141311
1.48761e-06
-0.000140669
1.24164e-06
-0.000140654
8.18714e-07
-0.000141172
5.26844e-07
-0.00014163
5.54795e-07
-0.000142118
5.33291e-07
-0.000143862
3.66779e-07
-0.000145996
2.02268e-07
-0.000146302
3.9211e-07
-0.000146331
8.03294e-07
-0.000145905
1.40828e-06
-0.000145398
1.74448e-06
-0.000145004
1.48785e-06
-0.000144918
1.10972e-06
-0.000144975
6.14044e-07
-0.000144866
5.95581e-07
-0.000144628
2.63592e-07
-0.000144437
2.19301e-08
-0.000144453
-9.4515e-08
-0.000145583
5.29669e-08
-0.000146794
6.674e-07
-0.000147348
1.44035e-06
-0.000147786
1.87618e-06
-0.000148377
1.78383e-06
-0.000148576
1.4051e-06
-0.000148435
1.0164e-06
-0.000147587
6.05357e-07
-0.00014672
1.13025e-07
-0.000146094
-2.01703e-07
-0.000145626
-2.31505e-07
-0.00014549
3.94269e-09
-0.000146035
1.99812e-07
-0.000148316
8.07599e-07
-0.000149783
1.52404e-06
-0.000150761
1.76997e-06
-0.000151378
1.56028e-06
-0.00015147
1.22668e-06
-0.00015112
8.8696e-07
-0.000148943
4.26934e-07
-0.000147233
-9.57896e-08
-0.000146315
-3.84484e-07
-0.000145787
-2.92054e-07
-0.000145749
-3.23985e-08
-0.000147151
1.55216e-07
-0.000150641
9.22766e-07
-0.000152552
1.65708e-06
-0.000153457
1.80688e-06
-0.000153831
1.55705e-06
-0.000153871
1.2162e-06
-0.000152662
8.77762e-07
-0.000148608
2.00407e-07
-0.000146118
-5.90433e-07
-0.000145132
-8.67923e-07
-0.000144796
-8.10103e-07
-0.000145031
-6.48341e-07
-0.000148537
-4.67022e-07
-0.000153243
5.76786e-07
-0.000155027
1.40069e-06
-0.000155656
1.59291e-06
-0.000155841
1.39822e-06
-0.00015568
1.10084e-06
-0.000151493
6.67068e-07
-0.000144765
-5.57521e-07
-0.00014169
-1.78233e-06
-0.000141103
-2.14549e-06
-0.000141138
-2.19959e-06
-0.00014312
-2.33116e-06
-0.000150188
-1.59879e-06
-0.000154346
8.67626e-08
-0.000155471
1.05122e-06
-0.000155702
1.15568e-06
-0.000155575
9.44482e-07
-0.000151007
5.23536e-07
-0.000141422
-9.90974e-07
-0.000134208
-3.63009e-06
-0.000131193
-6.01297e-06
-0.000130936
-7.82217e-06
-0.000132056
-8.58895e-06
-0.000136858
-8.90954e-06
-0.000139586
-9.31091e-06
-0.000140072
-1.15019e-05
-0.000138492
-1.35078e-05
-0.00013377
-1.51582e-05
-0.000125614
-4.33102e-05
4.94011e-05
-0.000146868
8.69015e-07
-0.000144969
1.04939e-06
-0.000138628
1.99309e-06
-0.000135899
1.75578e-06
-0.000135574
1.13164e-06
-0.000135471
6.56877e-07
-0.000135505
2.48778e-07
-0.000136858
-2.35067e-07
-0.000141757
-4.82177e-07
-0.000145389
4.58413e-07
-0.000145881
8.6173e-07
-0.000145729
1.43447e-06
-0.000144508
2.08696e-06
-0.000142668
2.40144e-06
-0.000141225
1.99488e-06
-0.000140425
1.19417e-06
-0.000140153
6.06273e-07
-0.000140135
-6.64698e-08
-0.000140537
-4.75231e-07
-0.000141424
-4.8783e-07
-0.000142569
-9.05582e-08
-0.000143652
5.7114e-07
-0.000144105
1.45097e-06
-0.00014415
2.21209e-06
-0.000144207
2.56942e-06
-0.000144612
2.19218e-06
-0.000144693
1.52926e-06
-0.000144423
9.65883e-07
-0.000144138
3.31041e-07
-0.000144059
-2.75677e-07
-0.000143864
-3.63408e-07
-0.000143014
-1.30095e-07
-0.000142249
3.78776e-07
-0.000142238
7.98446e-07
-0.000143764
1.38238e-06
-0.000145476
2.15206e-06
-0.000146692
2.31718e-06
-0.00014752
1.90958e-06
-0.000147826
1.30868e-06
-0.000147798
7.2566e-07
-0.000147111
1.58823e-07
-0.000145741
-4.70364e-07
-0.00014421
-4.71549e-07
-0.000142876
5.93076e-08
-0.000142312
5.72079e-07
-0.00014239
8.06394e-07
-0.000144911
1.17974e-06
-0.000147924
1.83016e-06
-0.000149362
1.94723e-06
-0.000150014
1.58954e-06
-0.000150181
1.11303e-06
-0.000150079
6.83272e-07
-0.000148219
1.80066e-07
-0.000145406
-3.89266e-07
-0.000143459
-3.93218e-07
-0.000142434
-5.45189e-08
-0.000142171
2.66847e-07
-0.00014262
4.1297e-07
-0.000146602
8.37243e-07
-0.000150091
1.63909e-06
-0.00015142
1.83733e-06
-0.000151901
1.55734e-06
-0.000151956
1.16008e-06
-0.00015152
8.0329e-07
-0.000147595
2.00758e-07
-0.000143433
-6.45025e-07
-0.000141552
-1.01768e-06
-0.000140894
-9.16143e-07
-0.000140836
-6.87004e-07
-0.00014256
-5.43424e-07
-0.000148349
1.55007e-07
-0.000151539
1.25517e-06
-0.000152507
1.62124e-06
-0.000152834
1.44226e-06
-0.000152915
1.08197e-06
-0.000151045
7.0417e-07
-0.000143739
-3.57888e-07
-0.000138399
-1.85149e-06
-0.000137004
-2.56149e-06
-0.000136851
-2.99986e-06
-0.000137183
-3.08446e-06
-0.000141947
-2.9511e-06
-0.00014867
-1.42605e-06
-0.000151214
2.12241e-07
-0.000151727
8.2932e-07
-0.000151935
8.10764e-07
-0.000150038
5.3058e-07
-0.000142413
-5.13262e-07
-0.000133914
-3.43054e-06
-0.000128504
-6.16182e-06
-0.000127172
-8.4031e-06
-0.000127168
-1.03578e-05
-0.000129758
-1.121e-05
-0.000134061
-1.18789e-05
-0.00013561
-1.40395e-05
-0.000135375
-1.67991e-05
-0.000134635
-1.78932e-05
-0.000126608
-3.9553e-05
5.34384e-05
-0.000144466
1.39683e-06
-0.000142047
2.31487e-06
-0.000138479
3.0523e-06
-0.000136524
2.22279e-06
-0.00013599
1.416e-06
-0.000135826
6.3352e-07
-0.000136002
-1.78567e-07
-0.000136415
-8.31365e-07
-0.000138524
-1.09607e-06
-0.000141677
-3.46282e-07
-0.000142793
1.20505e-06
-0.000142672
2.26867e-06
-0.00014213
3.02441e-06
-0.000142005
2.88531e-06
-0.000141739
2.08657e-06
-0.000141038
1.4287e-06
-0.000140331
5.13156e-07
-0.000139825
-2.3955e-07
-0.000139639
-7.3523e-07
-0.000139282
-6.79148e-07
-0.000138922
5.60902e-08
-0.000139377
7.43852e-07
-0.000141159
1.66376e-06
-0.000142594
2.56364e-06
-0.000143716
2.74539e-06
-0.000144434
2.15157e-06
-0.000144627
1.53525e-06
-0.000144559
9.44687e-07
-0.000143914
3.19766e-07
-0.000142786
-4.11629e-07
-0.000141082
-4.84568e-07
-0.000139283
2.45625e-07
-0.000138557
7.96106e-07
-0.000138499
1.08458e-06
-0.000140423
1.39177e-06
-0.000144184
2.01523e-06
-0.000146251
2.19325e-06
-0.000147046
1.75335e-06
-0.000147275
1.21846e-06
-0.000147261
6.7915e-07
-0.000146442
1.13653e-07
-0.000143131
-1.85591e-07
-0.00014025
2.37722e-07
-0.000139092
5.01903e-07
-0.000138797
6.86239e-07
-0.00013891
8.24367e-07
-0.000141618
1.00325e-06
-0.000146443
1.47766e-06
-0.000148494
1.7319e-06
-0.000148963
1.48761e-06
-0.000149021
1.13059e-06
-0.000148994
8.07363e-07
-0.000147217
4.74287e-07
-0.000142385
2.52244e-07
-0.000139599
2.07999e-07
-0.000138817
4.50679e-08
-0.000138678
1.51455e-08
-0.000138967
1.07833e-07
-0.000142636
3.36729e-07
-0.000147901
1.006e-06
-0.000149865
1.48349e-06
-0.000150255
1.44703e-06
-0.0001503
1.20864e-06
-0.000150222
9.48419e-07
-0.000147338
6.67076e-07
-0.000141082
7.75885e-08
-0.000137837
-3.63965e-07
-0.000137217
-8.34056e-07
-0.000137164
-1.04812e-06
-0.000137981
-1.05427e-06
-0.000143367
-6.92446e-07
-0.000148673
5.17165e-07
-0.000150358
1.37237e-06
-0.000150695
1.48029e-06
-0.000150809
1.25664e-06
-0.000150171
9.53037e-07
-0.000144357
3.49732e-07
-0.000137325
-1.30013e-06
-0.000133887
-2.65064e-06
-0.000133331
-3.33112e-06
-0.000133346
-3.85717e-06
-0.000135014
-4.09637e-06
-0.000141638
-3.61022e-06
-0.000146778
-1.853e-06
-0.000148447
-4.59571e-07
-0.000148833
-1.28375e-08
-0.000148649
3.55643e-08
-0.000144529
-1.28272e-08
-0.000136237
-2.18503e-06
-0.000129389
-5.37864e-06
-0.000125394
-8.41362e-06
-0.00012471
-1.07138e-05
-0.000125261
-1.29981e-05
-0.000129277
-1.3818e-05
-0.000132758
-1.55591e-05
-0.000134001
-1.84597e-05
-0.00013467
-1.97783e-05
-0.00012791
-3.65073e-05
5.5828e-05
-0.000140892
1.80549e-06
-0.000140151
3.26537e-06
-0.00013922
3.34731e-06
-0.000137994
2.53775e-06
-0.000137166
1.49157e-06
-0.000136698
4.80778e-07
-0.000136489
-3.21556e-07
-0.000136302
-8.1448e-07
-0.000135757
-5.55729e-07
-0.000135907
-4.45165e-09
-0.000138374
7.45746e-07
-0.0001406
2.1849e-06
-0.000141633
2.93651e-06
-0.000142121
2.78531e-06
-0.000142177
2.17532e-06
-0.00014192
1.62425e-06
-0.000141065
9.40247e-07
-0.000139865
3.34021e-08
-0.000137741
-4.2145e-07
-0.000135515
1.46343e-07
-0.000134934
6.07691e-07
-0.000135007
7.25006e-07
-0.000137629
1.03532e-06
-0.000141708
1.90611e-06
-0.000143891
2.47355e-06
-0.000144542
1.94739e-06
-0.000144603
1.45141e-06
-0.000144531
1.00315e-06
-0.000143917
4.86528e-07
-0.000140587
1.1435e-07
-0.000136853
5.68404e-07
-0.000135616
8.12318e-07
-0.000135371
7.82523e-07
-0.000135493
8.26004e-07
-0.000137608
9.623e-07
-0.000143169
1.28767e-06
-0.000146196
1.63727e-06
-0.000146795
1.4238e-06
-0.00014679
1.056e-06
-0.00014671
7.83183e-07
-0.000145143
6.766e-07
-0.000139801
1.06601e-06
-0.000136564
1.11508e-06
-0.000136006
8.05107e-07
-0.00013594
5.37478e-07
-0.000136221
3.72885e-07
-0.00013888
4.49584e-07
-0.000144877
6.95815e-07
-0.000147679
1.24202e-06
-0.000148017
1.35876e-06
-0.000148024
1.26223e-06
-0.000147868
1.20202e-06
-0.000146014
1.3407e-06
-0.00014054
1.42178e-06
-0.000136764
6.54828e-07
-0.000135975
2.32866e-07
-0.000135984
-1.88509e-07
-0.000136281
-4.66843e-07
-0.000139265
-4.28164e-07
-0.000145483
2.90717e-08
-0.00014841
9.62797e-07
-0.000148823
1.35013e-06
-0.000148856
1.41915e-06
-0.000148752
1.44631e-06
-0.000146851
1.56718e-06
-0.000140645
1.33184e-06
-0.000135949
-1.29675e-07
-0.000134689
-6.46152e-07
-0.000134739
-1.3687e-06
-0.000135023
-1.77238e-06
-0.00013852
-1.84729e-06
-0.000145549
-9.74382e-07
-0.000148871
7.15058e-07
-0.000149432
1.45606e-06
-0.000149528
1.55919e-06
-0.000149342
1.49658e-06
-0.000145956
1.3427e-06
-0.000138402
1.93264e-07
-0.000133241
-2.1914e-06
-0.000131253
-3.3831e-06
-0.00013112
-4.33806e-06
-0.000131366
-4.95821e-06
-0.000134932
-5.45812e-06
-0.0001418
-4.593e-06
-0.000145728
-2.63058e-06
-0.000146919
-1.3321e-06
-0.000147212
-8.07645e-07
-0.000146074
-4.6183e-07
-0.00014034
-1.36719e-06
-0.000132951
-3.94229e-06
-0.000127326
-7.48257e-06
-0.000124199
-1.0901e-05
-0.000123892
-1.32371e-05
-0.000125467
-1.549e-05
-0.000130321
-1.66807e-05
-0.000133073
-1.93501e-05
-0.000134641
-2.07865e-05
-0.000128229
-3.45258e-05
5.77422e-05
-0.000137955
1.63702e-06
-0.00013899
2.88309e-06
-0.000139526
2.92177e-06
-0.000139539
2.26762e-06
-0.000139015
1.70438e-06
-0.000138031
9.395e-07
-0.000136626
1.04208e-07
-0.000134273
-2.77248e-07
-0.000132661
4.76128e-07
-0.000132414
7.2314e-07
-0.000133304
8.16735e-07
-0.000138379
1.30117e-06
-0.000141972
2.17588e-06
-0.000142607
2.27865e-06
-0.000142602
1.86972e-06
-0.000142477
1.48004e-06
-0.000141952
1.13287e-06
-0.000139357
5.74766e-07
-0.000134831
6.67708e-07
-0.000132972
1.05201e-06
-0.000132674
1.00074e-06
-0.000132619
9.11032e-07
-0.000134201
8.59397e-07
-0.00014082
1.00797e-06
-0.000144354
1.59059e-06
-0.000144699
1.58964e-06
-0.000144638
1.30437e-06
-0.000144553
9.88194e-07
-0.000143368
8.29623e-07
-0.000137916
1.28886e-06
-0.000134159
1.6883e-06
-0.000133588
1.26994e-06
-0.000133547
9.47749e-07
-0.000133634
7.07427e-07
-0.000135745
3.60433e-07
-0.000142511
2.44231e-07
-0.000146006
7.76397e-07
-0.00014629
1.00991e-06
-0.000146222
1.00769e-06
-0.000145702
1.25816e-06
-0.000143165
1.868e-06
-0.00013842
2.21293e-06
-0.00013542
1.42788e-06
-0.000134722
8.99145e-07
-0.000134709
4.75422e-07
-0.000134824
1.39529e-07
-0.000136962
-5.58935e-07
-0.000142912
-2.5255e-07
-0.000146173
6.0949e-07
-0.000146643
1.28642e-06
-0.000146635
1.63298e-06
-0.000146216
1.99648e-06
-0.000144746
2.26095e-06
-0.000140661
2.00502e-06
-0.000136564
1.11467e-06
-0.000135105
2.45657e-07
-0.000134978
-2.75974e-07
-0.00013505
-8.27444e-07
-0.000136706
-1.19341e-06
-0.000142541
-8.84992e-07
-0.000146531
4.01427e-07
-0.000147302
1.42556e-06
-0.000147362
1.93291e-06
-0.000147139
2.29391e-06
-0.000146152
2.30764e-06
-0.000141588
1.88608e-06
-0.00013629
5.7636e-07
-0.000134102
-8.38621e-07
-0.000133712
-1.73928e-06
-0.000133756
-2.56462e-06
-0.000134847
-2.82907e-06
-0.000140696
-2.61466e-06
-0.000146316
-5.49498e-07
-0.000147973
1.2542e-06
-0.000148261
1.9665e-06
-0.000148324
2.19644e-06
-0.000147341
2.23637e-06
-0.00014139
1.75597e-06
-0.000134627
-7.38116e-07
-0.000131326
-3.26163e-06
-0.000130293
-4.60763e-06
-0.000130269
-5.9794e-06
-0.000130851
-6.48075e-06
-0.00013521
-6.6061e-06
-0.000140532
-5.172e-06
-0.00014326
-3.27905e-06
-0.000144334
-2.11873e-06
-0.000144608
-1.79137e-06
-0.000143105
-1.31225e-06
-0.00013811
-3.34752e-06
-0.000131721
-6.07279e-06
-0.000126476
-9.96721e-06
-0.000123498
-1.36654e-05
-0.000123397
-1.57128e-05
-0.00012647
-1.81217e-05
-0.00013106
-2.0202e-05
-0.000133609
-2.18908e-05
-0.000129169
-3.20761e-05
5.91401e-05
-0.000135008
1.53045e-06
-0.000139467
1.84479e-06
-0.00014046
1.86309e-06
-0.000140337
1.65444e-06
-0.000140141
1.43589e-06
-0.00013942
1.02286e-06
-0.000136087
6.37575e-07
-0.000132186
1.29792e-06
-0.000131241
1.47372e-06
-0.000131083
1.34852e-06
-0.000131357
1.21335e-06
-0.000135974
9.56079e-07
-0.000141807
1.00643e-06
-0.000142906
1.37782e-06
-0.000142803
1.38103e-06
-0.00014267
1.27354e-06
-0.000142033
1.09093e-06
-0.000137667
1.35818e-06
-0.000133057
1.9156e-06
-0.000132177
1.70049e-06
-0.000132084
1.34312e-06
-0.000132037
1.08945e-06
-0.000133006
7.98565e-07
-0.000139109
6.25163e-07
-0.000143884
4.44746e-07
-0.000144495
9.93453e-07
-0.000144431
1.08983e-06
-0.000144068
1.23893e-06
-0.000141491
1.8044e-06
-0.000136702
2.45009e-06
-0.000134076
2.1066e-06
-0.00013351
1.62259e-06
-0.000133449
1.13343e-06
-0.000133499
6.27544e-07
-0.000135167
-8.19019e-08
-0.000140787
-5.43296e-07
-0.000144233
5.01755e-08
-0.000144731
8.29141e-07
-0.000144564
1.51419e-06
-0.0001436
2.35242e-06
-0.0001419
2.7702e-06
-0.000138709
2.39485e-06
-0.000135721
1.84146e-06
-0.000134906
9.93937e-07
-0.000134799
2.40976e-07
-0.000134869
-5.33508e-07
-0.000135676
-8.94351e-07
-0.000139928
-7.72284e-07
-0.00014362
3.14201e-07
-0.000144563
1.4661e-06
-0.000144659
2.2034e-06
-0.000144457
2.57428e-06
-0.00014415
2.52193e-06
-0.000141963
2.35136e-06
-0.0001377
1.36877e-06
-0.000135655
1.20742e-07
-0.000135159
-7.56992e-07
-0.000135032
-1.39193e-06
-0.000135186
-1.43095e-06
-0.000138318
-1.47721e-06
-0.000143458
-6.34893e-08
-0.000145275
1.58154e-06
-0.000145562
2.45269e-06
-0.000145566
2.83788e-06
-0.000145538
2.52629e-06
-0.000143962
2.18379e-06
-0.000138731
1.08814e-06
-0.000135243
-8.73599e-07
-0.000133987
-2.22665e-06
-0.000133503
-2.97957e-06
-0.000133543
-2.98675e-06
-0.000134957
-3.12755e-06
-0.000141167
-2.16993e-06
-0.000145497
3.42373e-07
-0.000146738
1.95587e-06
-0.000146979
2.49572e-06
-0.000147083
2.47752e-06
-0.000145518
2.10041e-06
-0.000139207
8.2419e-07
-0.000133599
-2.0773e-06
-0.000130705
-4.6168e-06
-0.000129518
-6.08611e-06
-0.000129534
-6.75904e-06
-0.000130192
-7.24197e-06
-0.000134345
-7.11617e-06
-0.000138812
-5.67817e-06
-0.000141353
-4.11665e-06
-0.000142625
-3.41771e-06
-0.000142824
-3.45483e-06
-0.000141236
-3.31325e-06
-0.000137065
-5.86692e-06
-0.000131129
-8.64323e-06
-0.000125514
-1.28307e-05
-0.000122426
-1.62364e-05
-0.000123002
-1.80261e-05
-0.000127665
-2.12343e-05
-0.000131362
-2.37739e-05
-0.000130977
-2.92044e-05
5.97544e-05
-0.00013492
1.41602e-06
-0.000139369
1.09695e-06
-0.000140386
8.49565e-07
-0.000140346
1.00822e-06
-0.000140209
9.46025e-07
-0.000138754
1.01015e-06
-0.000133806
1.7454e-06
-0.000131195
2.26439e-06
-0.000130861
2.00236e-06
-0.000130766
1.80811e-06
-0.000131299
1.50611e-06
-0.000135981
1.06099e-06
-0.000140918
4.96387e-07
-0.000142344
4.99901e-07
-0.000142466
8.00717e-07
-0.000142359
9.3273e-07
-0.000140592
1.40386e-06
-0.000135854
2.37001e-06
-0.000133171
2.58392e-06
-0.000132376
2.16713e-06
-0.00013225
1.71719e-06
-0.000132199
1.29368e-06
-0.000133579
6.90993e-07
-0.000138594
-1.07442e-07
-0.000142031
2.40079e-08
-0.000142852
5.33862e-07
-0.000142879
1.20934e-06
-0.000141961
2.00473e-06
-0.000139566
2.75202e-06
-0.000136704
2.74028e-06
-0.000134791
2.3088e-06
-0.000134274
1.64569e-06
-0.000134165
9.22432e-07
-0.000134517
2.1103e-08
-0.0001357
-5.52382e-07
-0.000138845
-4.91502e-07
-0.000141373
1.66534e-07
-0.000142191
1.23121e-06
-0.000142103
2.33432e-06
-0.000141783
2.87415e-06
-0.000141548
2.8912e-06
-0.000140062
2.70857e-06
-0.000137556
1.78899e-06
-0.00013628
6.32118e-07
-0.000135751
-3.11721e-07
-0.000135335
-8.159e-07
-0.00013533
-7.02237e-07
-0.000136498
-5.36883e-07
-0.000140354
3.36532e-07
-0.000142328
1.75422e-06
-0.000143027
2.59843e-06
-0.000143607
2.80145e-06
-0.00014378
2.45552e-06
-0.000143499
2.16211e-06
-0.000140442
1.59305e-06
-0.000137086
2.14435e-07
-0.000135412
-9.79585e-07
-0.000134486
-1.44172e-06
-0.000134079
-1.29095e-06
-0.00013448
-1.09707e-06
-0.000138576
-5.77714e-07
-0.000142961
1.12444e-06
-0.000144713
2.51196e-06
-0.000145371
2.8198e-06
-0.000145626
2.51494e-06
-0.000145537
2.01495e-06
-0.000142802
1.56363e-06
-0.000137476
-3.98421e-08
-0.000134268
-2.07316e-06
-0.000132538
-3.07536e-06
-0.000131748
-3.06138e-06
-0.000131839
-3.04193e-06
-0.00013429
-3.14612e-06
-0.000140943
-1.8833e-06
-0.000144832
6.84017e-07
-0.000146145
1.99859e-06
-0.000146712
2.20035e-06
-0.000146811
1.70911e-06
-0.000144893
1.17303e-06
-0.000138078
1.1792e-07
-0.000132399
-2.88354e-06
-0.000129526
-5.46955e-06
-0.000128255
-6.73632e-06
-0.00012826
-7.17986e-06
-0.000129185
-7.82444e-06
-0.000133428
-7.70887e-06
-0.000137603
-6.51872e-06
-0.000140178
-5.59799e-06
-0.000141452
-5.48511e-06
-0.000141499
-5.68352e-06
-0.00013989
-5.86444e-06
-0.000136054
-8.33949e-06
-0.000130082
-1.13155e-05
-0.00012405
-1.54003e-05
-0.000121332
-1.83933e-05
-0.000123543
-2.04125e-05
-0.000128717
-2.64753e-05
-0.000133645
-2.71574e-05
5.94261e-05
-0.000136567
1.39031e-06
-0.000138748
7.08777e-07
-0.000139548
3.36094e-07
-0.000139608
3.38314e-07
-0.000139175
5.13277e-07
-0.000135631
1.58783e-06
-0.000132518
2.35097e-06
-0.000131603
2.46597e-06
-0.000131317
2.31398e-06
-0.00013122
2.22742e-06
-0.000132427
1.69181e-06
-0.000137368
7.00386e-07
-0.000140205
3.34539e-07
-0.000141058
3.20907e-07
-0.000141204
5.86464e-07
-0.000140617
1.20169e-06
-0.000137452
2.45295e-06
-0.000134593
2.67173e-06
-0.000133425
2.52847e-06
-0.000133054
2.22852e-06
-0.000132928
1.71393e-06
-0.000133191
9.42333e-07
-0.000135049
3.81871e-08
-0.000138246
-9.47532e-08
-0.000140006
3.10504e-07
-0.000140565
1.01738e-06
-0.000140412
1.93774e-06
-0.000139721
2.72321e-06
-0.000138767
2.87718e-06
-0.00013728
2.63535e-06
-0.000136275
1.95803e-06
-0.000135897
1.13937e-06
-0.000135868
2.19853e-07
-0.000135659
-4.11641e-07
-0.00013566
-4.23954e-07
-0.000136558
-9.56155e-08
-0.000138346
8.37814e-07
-0.000139293
1.9898e-06
-0.000140124
3.02464e-06
-0.000141168
2.81523e-06
-0.000141529
2.6948e-06
-0.000141478
2.24164e-06
-0.000140327
1.63052e-06
-0.000138061
5.25789e-07
-0.000136387
-4.88502e-07
-0.00013501
-7.77725e-07
-0.000134105
-3.00176e-07
-0.000134079
9.70157e-08
-0.000136319
4.19306e-07
-0.000140487
1.56099e-06
-0.000142635
2.6615e-06
-0.000143663
2.81609e-06
-0.000144139
2.37725e-06
-0.000144156
1.935e-06
-0.000143224
1.55672e-06
-0.000139081
7.28284e-07
-0.000135658
-5.38689e-07
-0.000133472
-1.0069e-06
-0.00013257
-8.68245e-07
-0.000132495
-8.47783e-07
-0.000133841
-8.68185e-07
-0.000139752
-1.85147e-07
-0.000144046
1.61622e-06
-0.000145639
2.53858e-06
-0.000146071
2.20712e-06
-0.000146165
2.09195e-06
-0.000145643
1.8425e-06
-0.000140827
1.32515e-06
-0.000134965
-5.55517e-07
-0.000131736
-2.4982e-06
-0.000130282
-2.69553e-06
-0.000130118
-3.13896e-06
-0.00013036
-3.56154e-06
-0.000134387
-3.66058e-06
-0.000142002
-2.24223e-06
-0.000146025
3.07203e-07
-0.000146819
1.44665e-06
-0.000146927
1.464e-06
-0.000146721
1.30079e-06
-0.00014355
9.63289e-07
-0.000136338
-5.02991e-07
-0.000130651
-3.39571e-06
-0.000127974
-6.00423e-06
-0.000127185
-7.17413e-06
-0.000127206
-8.01969e-06
-0.000128772
-8.66279e-06
-0.000133621
-8.75612e-06
-0.000137667
-7.83617e-06
-0.000139727
-7.29888e-06
-0.000140423
-7.44766e-06
-0.000140178
-7.62556e-06
-0.000138255
-8.31391e-06
-0.00013466
-1.06611e-05
-0.000128861
-1.38036e-05
-0.000122849
-1.74539e-05
-0.000120458
-1.99508e-05
-0.000125802
-2.66635e-05
-0.000135601
-2.5965e-05
5.8459e-05
-0.000138696
1.53733e-06
-0.000139139
9.44713e-07
-0.000139164
2.88817e-07
-0.000138853
1.82835e-07
-0.000135701
1.17196e-06
-0.000132331
2.03904e-06
-0.000131427
2.19949e-06
-0.000131248
2.26477e-06
-0.000131158
2.14257e-06
-0.000131661
2.01537e-06
-0.000135199
9.10917e-07
-0.00013875
5.6016e-07
-0.000139929
5.13225e-07
-0.000140108
8.40377e-07
-0.000139705
1.42566e-06
-0.00013782
2.57225e-06
-0.000135716
2.92223e-06
-0.000134378
2.51752e-06
-0.000134049
2.30361e-06
-0.000133957
1.70922e-06
-0.000134332
8.44778e-07
-0.00013478
3.53463e-08
-0.000135521
-6.66679e-08
-0.000137005
1.58525e-07
-0.000137926
9.87998e-07
-0.000138228
2.01869e-06
-0.000138308
2.94583e-06
-0.000138723
3.1321e-06
-0.000138861
2.7631e-06
-0.000138699
2.38344e-06
-0.000137988
1.55821e-06
-0.000137468
5.42075e-07
-0.000137018
-3.63763e-07
-0.000135708
-3.81595e-07
-0.000134502
9.14244e-08
-0.000134234
6.78446e-07
-0.000135306
1.23841e-06
-0.000137849
2.31588e-06
-0.000139859
3.07191e-06
-0.000141504
2.90617e-06
-0.000142467
2.3022e-06
-0.000142643
1.77305e-06
-0.00014243
1.31603e-06
-0.000139869
7.20462e-07
-0.000136123
-4.84114e-08
-0.000133514
-6.64022e-08
-0.000132531
1.38711e-07
-0.000132376
2.44208e-07
-0.000133263
3.14724e-07
-0.000138417
7.78696e-07
-0.000142609
2.09317e-06
-0.000144151
2.52261e-06
-0.00014453
2.30949e-06
-0.000144599
2.02385e-06
-0.000144413
1.61879e-06
-0.000141117
1.5167e-06
-0.000135421
6.85392e-07
-0.000132216
-4.2286e-07
-0.00013129
-5.19271e-07
-0.000131249
-9.52081e-07
-0.000131465
-1.30896e-06
-0.000135355
-1.53797e-06
-0.000142584
-2.97178e-07
-0.00014568
1.72003e-06
-0.000146305
2.24217e-06
-0.000146426
2.21469e-06
-0.000146416
2.07658e-06
-0.000144171
2.16813e-06
-0.000136801
1.81815e-06
-0.000131841
-8.11789e-07
-0.000129989
-2.50166e-06
-0.000129403
-3.20188e-06
-0.000129424
-3.80083e-06
-0.000130018
-4.50931e-06
-0.000135424
-4.85718e-06
-0.000142635
-2.91581e-06
-0.000145515
-1.73849e-07
-0.000146086
1.03594e-06
-0.000146191
1.24486e-06
-0.000145605
1.28462e-06
-0.000141598
9.53183e-07
-0.000134493
-7.03041e-07
-0.000129475
-4.01681e-06
-0.000127205