/*--------------------------------*- C++ -*----------------------------------*\
  =========                 |
  \\      /  F ield         | OpenFOAM: The Open Source CFD Toolbox
   \\    /   O peration     | Website:  https://openfoam.org
    \\  /    A nd           | Version:  12
     \\/     M anipulation  |
\*---------------------------------------------------------------------------*/
FoamFile
{
    format      ascii;
    class       volScalarField;
    location    "4";
    object      p;
}
// * * * * * * * * * * * * * * * * * * * * * * * * * * * * * * * * * * * * * //

dimensions      [1 -1 -2 0 0 0 0];

internalField   nonuniform List<scalar> 
9801
(
0.690591
0.696869
0.703978
0.708594
0.711946
0.715
0.717428
0.716961
0.716584
0.718245
0.721541
0.728587
0.737292
0.743011
0.74712
0.750398
0.753081
0.752776
0.751814
0.753515
0.75675
0.763378
0.772213
0.77842
0.782665
0.786256
0.789208
0.788559
0.78815
0.790237
0.793809
0.801275
0.810615
0.817033
0.821296
0.824871
0.827523
0.825984
0.825807
0.828641
0.832533
0.840394
0.85056
0.857553
0.861902
0.865833
0.867444
0.864777
0.865736
0.868915
0.873592
0.883168
0.89438
0.90172
0.906478
0.910014
0.909761
0.905595
0.90678
0.910717
0.916915
0.928477
0.941668
0.949611
0.954472
0.95827
0.955121
0.949563
0.951895
0.956731
0.964746
0.981827
0.997211
1.00654
1.01264
1.01619
1.00861
0.99972
1.00142
1.00766
1.02132
1.04451
1.06146
1.07196
1.08047
1.08579
1.07447
1.06655
1.07572
1.09347
1.1297
1.17074
1.20274
1.23363
1.26755
1.28717
1.29374
1.9092
5.37991
0.695508
0.703056
0.71091
0.715375
0.718457
0.721083
0.722565
0.721875
0.722291
0.724298
0.727521
0.735103
0.744198
0.749687
0.753205
0.755874
0.757561
0.756981
0.757061
0.759099
0.762246
0.769192
0.778748
0.785003
0.78892
0.791975
0.793994
0.793231
0.793271
0.795465
0.798869
0.806392
0.816337
0.822842
0.827026
0.8304
0.83249
0.831
0.830907
0.833452
0.836958
0.844752
0.855666
0.86287
0.867371
0.871171
0.87268
0.870414
0.871026
0.873769
0.877778
0.88685
0.898722
0.906307
0.911048
0.914638
0.914717
0.910961
0.911756
0.915215
0.920322
0.931317
0.945234
0.95356
0.958633
0.962645
0.960727
0.955337
0.95677
0.961006
0.967545
0.983968
0.999711
1.00905
1.01517
1.01922
1.01387
1.00539
1.00603
1.01145
1.02189
1.04417
1.06262
1.07398
1.08316
1.09104
1.08303
1.0736
1.08073
1.09591
1.12478
1.16223
1.19187
1.22049
1.2495
1.26032
1.24063
1.83773
5.40057
0.697682
0.706339
0.713461
0.717547
0.720592
0.722847
0.723427
0.723541
0.725014
0.727513
0.73114
0.739542
0.747259
0.751512
0.754618
0.757026
0.75827
0.758449
0.75975
0.762337
0.765667
0.77319
0.782308
0.787489
0.790857
0.793603
0.795271
0.794954
0.795838
0.79841
0.801874
0.809101
0.819112
0.825442
0.829402
0.832553
0.834289
0.832862
0.833084
0.835729
0.839265
0.846911
0.8583
0.86577
0.870376
0.874175
0.876122
0.873936
0.873494
0.875914
0.879694
0.887958
0.900312
0.908359
0.913217
0.917088
0.918395
0.914745
0.914513
0.917657
0.922161
0.931799
0.946385
0.955375
0.960694
0.965167
0.965286
0.959647
0.959789
0.963574
0.968808
0.981971
0.999222
1.00985
1.01641
1.0214
1.01914
1.00969
1.00891
1.014
1.02128
1.03975
1.06287
1.07676
1.08645
1.09515
1.09129
1.07888
1.08295
1.09724
1.11884
1.15513
1.18821
1.21687
1.2463
1.26109
1.23375
1.8111
5.3945
0.700825
0.710305
0.717556
0.721402
0.724052
0.725655
0.726229
0.727301
0.729329
0.731943
0.735421
0.742683
0.749849
0.754191
0.757284
0.759768
0.761396
0.762105
0.763599
0.765997
0.769019
0.77569
0.784324
0.789701
0.793365
0.796385
0.798433
0.798668
0.799777
0.802273
0.80546
0.811835
0.821539
0.827804
0.831735
0.834915
0.836858
0.835933
0.836536
0.839282
0.842828
0.849983
0.861576
0.86928
0.873808
0.87742
0.879347
0.876746
0.875794
0.878208
0.882023
0.889263
0.902298
0.911495
0.916678
0.92073
0.922926
0.918807
0.916991
0.919725
0.924052
0.932078
0.947586
0.958224
0.964024
0.968719
0.970675
0.964619
0.962376
0.965405
0.970343
0.980532
0.99942
1.01246
1.01926
1.02434
1.02523
1.01513
1.01065
1.01493
1.02194
1.03507
1.05983
1.07762
1.08832
1.09752
1.10018
1.08783
1.08427
1.09654
1.11376
1.14201
1.17475
1.20346
1.23114
1.25253
1.23637
1.79081
5.379
0.704026
0.712337
0.719732
0.723738
0.726491
0.728626
0.730277
0.731341
0.732738
0.734811
0.737654
0.744282
0.752122
0.757029
0.760516
0.763438
0.765802
0.766336
0.766748
0.768529
0.771231
0.777097
0.78615
0.792224
0.796376
0.799817
0.802689
0.80345
0.803653
0.805293
0.807904
0.812836
0.822479
0.829586
0.834027
0.837622
0.840496
0.840498
0.840718
0.843125
0.846373
0.852094
0.863066
0.871142
0.875769
0.879451
0.881892
0.880043
0.878733
0.881037
0.884772
0.891048
0.903925
0.91422
0.919714
0.923758
0.926469
0.922997
0.919704
0.921847
0.925982
0.932719
0.947824
0.960397
0.966833
0.971647
0.975142
0.970614
0.965394
0.96708
0.971703
0.979091
0.996153
1.01291
1.02122
1.02664
1.03021
1.02288
1.01413
1.01565
1.02232
1.0316
1.05277
1.0759
1.09
1.10023
1.10836
1.10195
1.09075
1.09483
1.10958
1.13191
1.16383
1.19169
1.21531
1.23802
1.23429
1.78395
5.36061
0.707629
0.71451
0.721767
0.726178
0.729346
0.731965
0.73422
0.735094
0.735707
0.737596
0.740402
0.746659
0.755019
0.760431
0.764158
0.767263
0.769788
0.769534
0.768693
0.770324
0.773231
0.779122
0.789161
0.796202
0.800513
0.804012
0.807161
0.808024
0.806083
0.80661
0.809159
0.813691
0.823732
0.832499
0.837689
0.841623
0.845054
0.846187
0.845148
0.846174
0.848688
0.852818
0.862816
0.872351
0.877882
0.882054
0.885494
0.885394
0.882773
0.884017
0.887419
0.892389
0.904079
0.915796
0.922002
0.926325
0.929857
0.928558
0.923983
0.92439
0.928208
0.933483
0.946598
0.961796
0.969771
0.974865
0.979173
0.977517
0.970132
0.968767
0.972686
0.97848
0.991162
1.01139
1.0236
1.02993
1.03484
1.03182
1.02061
1.01785
1.02296
1.03054
1.04486
1.06976
1.08864
1.10091
1.11128
1.11577
1.10326
1.09698
1.10558
1.12165
1.14807
1.17706
1.19987
1.21949
1.22776
1.78933
5.34347
0.711187
0.717731
0.7246
0.729024
0.732282
0.735046
0.737335
0.738049
0.738356
0.740249
0.743243
0.749837
0.758714
0.764244
0.767827
0.770685
0.772437
0.771231
0.77062
0.772471
0.77549
0.781485
0.792387
0.800358
0.804874
0.808302
0.811088
0.81036
0.806902
0.80738
0.810118
0.814899
0.82586
0.836511
0.842395
0.846383
0.849929
0.851811
0.848643
0.846942
0.848831
0.852686
0.862082
0.874192
0.881364
0.885923
0.889724
0.891455
0.887915
0.886868
0.889185
0.892965
0.902013
0.915854
0.924073
0.929061
0.933209
0.934626
0.929621
0.927974
0.930729
0.935033
0.943862
0.960609
0.97205
0.978023
0.982603
0.983589
0.976024
0.971767
0.974149
0.97913
0.986532
1.0051
1.02307
1.03191
1.03769
1.04062
1.03138
1.02274
1.02395
1.03057
1.03984
1.06043
1.08415
1.09989
1.1112
1.12108
1.11986
1.10633
1.1054
1.11582
1.13382
1.16172
1.18579
1.20305
1.21593
1.7982
5.32862
0.714293
0.720768
0.727757
0.73212
0.735169
0.737807
0.739986
0.740781
0.7413
0.74328
0.746166
0.752655
0.762211
0.767857
0.771093
0.773293
0.774256
0.773565
0.773684
0.775691
0.778603
0.783871
0.795105
0.803935
0.808552
0.811686
0.813397
0.811522
0.80909
0.810167
0.812998
0.817298
0.828013
0.840222
0.84688
0.850966
0.854374
0.85529
0.849871
0.847227
0.849298
0.853073
0.861866
0.876253
0.885376
0.890292
0.894171
0.896783
0.893104
0.889166
0.890003
0.893342
0.899895
0.914936
0.926895
0.932945
0.937171
0.940236
0.936605
0.93236
0.932841
0.936185
0.941704
0.956155
0.972828
0.981219
0.986202
0.989645
0.984812
0.97697
0.975956
0.979562
0.984492
0.996073
1.01784
1.0322
1.03966
1.04546
1.04471
1.03178
1.02701
1.0312
1.03886
1.05144
1.07518
1.09529
1.10875
1.11972
1.12834
1.12387
1.11118
1.11286
1.12379
1.14344
1.16918
1.18791
1.20287
1.81166
5.31356
0.716793
0.722245
0.730312
0.735487
0.738332
0.740896
0.743199
0.74428
0.744945
0.746937
0.749624
0.754671
0.764019
0.770298
0.773483
0.775586
0.777197
0.777291
0.777521
0.77962
0.782525
0.786964
0.796985
0.80607
0.810684
0.813407
0.814858
0.814324
0.812825
0.81401
0.816909
0.820649
0.829932
0.842927
0.850086
0.854111
0.856617
0.85604
0.851673
0.850135
0.852416
0.855925
0.862776
0.877787
0.888774
0.89428
0.898123
0.900285
0.89674
0.891121
0.891421
0.894755
0.899851
0.913135
0.928813
0.93675
0.941333
0.944919
0.943402
0.936325
0.934322
0.936518
0.941034
0.950743
0.970394
0.983703
0.990217
0.994678
0.994937
0.984797
0.978809
0.979682
0.983711
0.990001
1.00783
1.02922
1.0406
1.04733
1.05237
1.04706
1.03501
1.03368
1.03896
1.04703
1.06384
1.0879
1.10531
1.11763
1.12829
1.13419
1.12608
1.11513
1.11807
1.12876
1.14942
1.17072
1.18833
1.82548
5.29607
0.718626
0.722715
0.731203
0.738448
0.742115
0.744887
0.747289
0.748497
0.749031
0.750771
0.753187
0.756067
0.763135
0.770814
0.775149
0.778333
0.781091
0.782073
0.782151
0.784124
0.786947
0.790147
0.796923
0.805759
0.810969
0.814284
0.817162
0.818322
0.817168
0.81855
0.821671
0.825104
0.831816
0.843605
0.851386
0.855196
0.857483
0.858104
0.855195
0.85386
0.856397
0.860177
0.865539
0.877986
0.89068
0.896876
0.900397
0.90228
0.899838
0.89483
0.894706
0.897914
0.90206
0.911259
0.928636
0.939574
0.944816
0.94853
0.948731
0.940939
0.936412
0.938094
0.942166
0.94815
0.965013
0.984095
0.993284
0.998262
1.00193
0.995548
0.983605
0.981094
0.983953
0.988871
0.99827
1.02045
1.03873
1.04804
1.05474
1.05926
1.05011
1.03906
1.04006
1.04653
1.05607
1.07627
1.09818
1.11326
1.1248
1.135
1.13877
1.12801
1.11785
1.12057
1.13035
1.1498
1.17106
1.83662
5.27672
0.720165
0.723689
0.731818
0.741285
0.746132
0.749234
0.751842
0.753812
0.754139
0.754525
0.755516
0.75716
0.761277
0.770761
0.77781
0.781845
0.784942
0.787418
0.787973
0.78887
0.7907
0.792687
0.795744
0.804078
0.812142
0.816895
0.820418
0.823088
0.823163
0.823985
0.826404
0.829262
0.832652
0.840853
0.850042
0.855169
0.858898
0.861917
0.861023
0.859942
0.862125
0.865286
0.868772
0.875413
0.888586
0.896849
0.901119
0.904651
0.905358
0.900925
0.899944
0.902655
0.906166
0.910733
0.92418
0.939258
0.946275
0.950265
0.95312
0.948835
0.941197
0.941351
0.945528
0.949985
0.958518
0.978801
0.993432
0.999957
1.00408
1.00518
0.994484
0.985389
0.985673
0.989571
0.995206
1.00913
1.03275
1.04792
1.0562
1.06251
1.0639
1.05255
1.04464
1.04735
1.05416
1.06559
1.08765
1.10743
1.1208
1.13124
1.14004
1.14136
1.12892
1.11825
1.11981
1.12793
1.1516
1.84214
5.2557
0.722361
0.725689
0.733081
0.743963
0.750053
0.753559
0.75632
0.758757
0.75914
0.756633
0.756129
0.757973
0.761577
0.771164
0.780802
0.7858
0.789157
0.79212
0.793972
0.792882
0.792117
0.793285
0.796022
0.802994
0.813958
0.820453
0.82425
0.827432
0.829328
0.828945
0.829455
0.830796
0.832995
0.837745
0.848901
0.857769
0.862413
0.865825
0.868093
0.866701
0.866432
0.867753
0.869922
0.873446
0.883808
0.897071
0.904173
0.908339
0.91179
0.910105
0.905941
0.905972
0.907948
0.910983
0.917886
0.934751
0.947065
0.953256
0.957708
0.959521
0.951965
0.947167
0.948464
0.951471
0.955601
0.967734
0.988454
0.999855
1.00529
1.00959
1.00831
0.995477
0.989404
0.991475
0.996053
1.00247
1.02015
1.04234
1.05471
1.06218
1.06882
1.06947
1.05686
1.05053
1.05416
1.06142
1.0751
1.09724
1.11459
1.12653
1.13611
1.14332
1.14286
1.12917
1.11655
1.114
1.13044
1.83164
5.23337
0.725573
0.72867
0.735246
0.746661
0.753666
0.757368
0.760131
0.762506
0.762709
0.758673
0.757842
0.759741
0.763156
0.772426
0.783661
0.789592
0.793131
0.796092
0.7983
0.796226
0.793629
0.794735
0.797474
0.803395
0.815531
0.824179
0.828398
0.831572
0.834251
0.833614
0.831331
0.831564
0.833757
0.837509
0.84744
0.860176
0.866737
0.870367
0.873599
0.873495
0.869649
0.868486
0.870132
0.873636
0.880786
0.896454
0.907599
0.912839
0.916592
0.91796
0.911933
0.90746
0.907837
0.910827
0.915481
0.928237
0.946833
0.956683
0.9623
0.966271
0.964368
0.954584
0.950589
0.951631
0.954836
0.960417
0.977627
0.997634
1.00715
1.01192
1.01536
1.01084
0.998591
0.994728
0.996944
1.0014
1.00959
1.03073
1.05135
1.06261
1.07007
1.0757
1.07362
1.06145
1.05683
1.06075
1.068
1.08311
1.10474
1.12042
1.13106
1.13954
1.14496
1.1429
1.1288
1.11173
1.11269
1.8069
5.21168
0.729365
0.732386
0.737711
0.74894
0.756408
0.760218
0.762933
0.765141
0.764734
0.7612
0.760667
0.762514
0.765491
0.773903
0.786139
0.792901
0.796486
0.799317
0.801323
0.799234
0.79625
0.797168
0.799737
0.804219
0.815954
0.826807
0.831972
0.835176
0.837991
0.838481
0.834558
0.833632
0.835613
0.838786
0.846185
0.860612
0.86962
0.874158
0.877242
0.8788
0.87421
0.870886
0.872444
0.875657
0.880459
0.893467
0.908574
0.915837
0.919796
0.922136
0.918728
0.911118
0.910015
0.912879
0.917021
0.924297
0.942552
0.958527
0.965588
0.969868
0.972558
0.965147
0.954621
0.953196
0.955963
0.960026
0.967957
0.988749
1.00574
1.01314
1.01775
1.02096
1.01315
1.00069
0.998574
1.0024
1.00791
1.01858
1.04096
1.05905
1.06899
1.07611
1.08211
1.07954
1.0666
1.06218
1.06615
1.07342
1.08954
1.11026
1.12454
1.13406
1.14125
1.14461
1.14171
1.12376
1.10747
1.77129
5.19058
0.733058
0.735978
0.73968
0.750165
0.758758
0.762901
0.765731
0.768067
0.767786
0.764245
0.763772
0.765662
0.768291
0.774946
0.787608
0.795484
0.799398
0.802289
0.804534
0.803128
0.799755
0.800043
0.802226
0.805214
0.814197
0.827648
0.83485
0.838663
0.841782
0.843568
0.839742
0.836878
0.838351
0.841228
0.845555
0.858087
0.870685
0.876432
0.879865
0.882677
0.880537
0.87565
0.876297
0.879377
0.882731
0.889002
0.904302
0.915094
0.920015
0.92383
0.926081
0.920066
0.915702
0.918052
0.922108
0.925824
0.934532
0.953135
0.964707
0.970003
0.973455
0.974744
0.965963
0.958494
0.959327
0.963159
0.967543
0.977101
0.998095
1.01207
1.01865
1.02273
1.02417
1.01537
1.00545
1.00508
1.0092
1.01526
1.02804
1.05067
1.06701
1.07628
1.08314
1.08778
1.08352
1.07121
1.06731
1.071
1.078
1.09417
1.11386
1.12686
1.1351
1.14057
1.14274
1.13588
1.11871
1.74104
5.16986
0.736064
0.738578
0.741178
0.750289
0.761051
0.766177
0.769119
0.771548
0.771487
0.767736
0.766935
0.76867
0.771196
0.775787
0.787694
0.797765
0.802524
0.805683
0.808296
0.808157
0.803942
0.802703
0.804031
0.806563
0.812356
0.826981
0.837529
0.842552
0.845939
0.848686
0.846571
0.841536
0.841197
0.842937
0.845605
0.853066
0.868732
0.878325
0.883241
0.886843
0.888732
0.884249
0.88139
0.881976
0.883387
0.886032
0.895157
0.91217
0.922444
0.928062
0.932273
0.93329
0.926267
0.923413
0.924423
0.926238
0.929306
0.940263
0.959467
0.970209
0.975848
0.980422
0.981452
0.971446
0.965261
0.965791
0.96808
0.971609
0.982195
1.00295
1.01581
1.02207
1.02732
1.03026
1.02142
1.01222
1.0123
1.01644
1.0225
1.03594
1.05789
1.0727
1.08122
1.08791
1.09328
1.0896
1.07695
1.07225
1.07501
1.08103
1.09631
1.11517
1.12717
1.13406
1.13844
1.13734
1.13455
1.72928
5.14891
0.738015
0.740918
0.743754
0.751168
0.762535
0.769195
0.772661
0.774771
0.774836
0.771373
0.769965
0.771437
0.773902
0.777233
0.786762
0.799372
0.80594
0.809293
0.811989
0.812835
0.807561
0.804201
0.805641
0.808572
0.813038
0.825595
0.839572
0.846283
0.849984
0.853
0.852892
0.846375
0.842753
0.843455
0.846104
0.8505
0.864257
0.879974
0.887655
0.891857
0.895206
0.894155
0.886482
0.882213
0.882123
0.8847
0.889553
0.905357
0.924096
0.933147
0.93855
0.942171
0.939845
0.930094
0.924887
0.924245
0.926554
0.931322
0.947685
0.968761
0.979321
0.984935
0.989243
0.987754
0.975957
0.968633
0.967324
0.968884
0.973178
0.987393
1.01032
1.0237
1.03009
1.03545
1.03774
1.02841
1.01903
1.01826
1.02129
1.02688
1.04154
1.0642
1.07912
1.08788
1.09477
1.09978
1.09586
1.08197
1.07562
1.0774
1.0823
1.09648
1.11488
1.12597
1.13208
1.13274
1.14229
1.7335
5.128
0.741381
0.744332
0.7471
0.752465
0.762882
0.770863
0.774657
0.776923
0.777976
0.775774
0.773711
0.774928
0.777385
0.780242
0.786546
0.799653
0.808417
0.812798
0.815646
0.81634
0.811326
0.80755
0.808858
0.81174
0.815358
0.824193
0.839765
0.848969
0.853484
0.85641
0.857285
0.851031
0.844889
0.845267
0.848
0.851615
0.86054
0.8793
0.890989
0.896191
0.899874
0.901003
0.892415
0.883962
0.883693
0.886433
0.890158
0.899204
0.921113
0.936184
0.942318
0.946659
0.949324
0.94028
0.927704
0.925224
0.92766
0.931441
0.938512
0.960328
0.979823
0.98756
0.991721
0.995098
0.989795
0.974497
0.968246
0.969727
0.973389
0.978949
0.997207
1.02007
1.03181
1.03817
1.04364
1.04461
1.03265
1.02187
1.02143
1.02578
1.03181
1.04801
1.07147
1.08613
1.09452
1.10097
1.105
1.10019
1.08534
1.07776
1.0786
1.08261
1.09601
1.11333
1.12382
1.12627
1.14154
1.7502
5.10747
0.746556
0.749159
0.751504
0.754315
0.760977
0.770112
0.775181
0.778085
0.780418
0.781151
0.779088
0.779465
0.781708
0.784353
0.787923
0.797831
0.808756
0.813866
0.816596
0.818345
0.81676
0.812946
0.813568
0.816278
0.819338
0.824
0.836801
0.849416
0.855044
0.858321
0.860263
0.856619
0.849168
0.848506
0.851384
0.855069
0.860587
0.874864
0.891098
0.898495
0.902315
0.904316
0.900772
0.89032
0.887566
0.890408
0.894544
0.899947
0.913308
0.933153
0.943173
0.947962
0.950518
0.949833
0.937709
0.929582
0.930866
0.93486
0.940106
0.950475
0.972217
0.986578
0.992358
0.995674
0.996511
0.988099
0.975222
0.972858
0.976165
0.980903
0.988587
1.00893
1.02912
1.03873
1.04433
1.04812
1.04742
1.03487
1.02593
1.02695
1.03171
1.03866
1.05644
1.0789
1.09199
1.09933
1.10498
1.10812
1.10296
1.08827
1.07974
1.07952
1.08237
1.09475
1.11051
1.11699
1.1358
1.77179
5.08619
0.752551
0.75371
0.754853
0.75638
0.758944
0.76698
0.775665
0.78019
0.783142
0.78567
0.78561
0.784512
0.7858
0.787988
0.790402
0.795089
0.806177
0.814233
0.818091
0.820794
0.822538
0.82003
0.818562
0.8203
0.82298
0.826016
0.832542
0.846311
0.855419
0.859496
0.861972
0.862711
0.85739
0.854266
0.856322
0.859626
0.862923
0.868814
0.884484
0.896709
0.901896
0.905364
0.908021
0.903295
0.895669
0.895625
0.89845
0.901708
0.906439
0.921904
0.939299
0.946978
0.951179
0.954603
0.95252
0.941734
0.937516
0.939715
0.943163
0.946766
0.957183
0.977079
0.988762
0.99374
0.997499
0.99965
0.991771
0.981913
0.98095
0.984195
0.988362
0.995982
1.01575
1.03304
1.04148
1.04693
1.05162
1.05165
1.04122
1.03395
1.03502
1.0393
1.04537
1.06179
1.08235
1.09459
1.10163
1.10691
1.11016
1.1067
1.09276
1.08214
1.08015
1.08114
1.09167
1.10255
1.12445
1.79019
5.06216
0.758257
0.758423
0.756927
0.75767
0.759477
0.764259
0.775079
0.782675
0.786465
0.789273
0.791457
0.790481
0.789793
0.790897
0.792666
0.794946
0.801455
0.813256
0.820173
0.823747
0.826652
0.827726
0.824807
0.824481
0.82645
0.828975
0.831744
0.839004
0.852463
0.860531
0.864646
0.867679
0.868035
0.862559
0.860887
0.862356
0.864305
0.867291
0.874899
0.891719
0.903143
0.908391
0.912392
0.913962
0.906452
0.899991
0.899964
0.90258
0.906005
0.9124
0.929804
0.945588
0.952938
0.957192
0.960885
0.957761
0.947395
0.943334
0.944058
0.946193
0.949949
0.961517
0.981627
0.993925
0.999713
1.00412
1.00604
0.997522
0.987778
0.986186
0.988682
0.992691
1.00065
1.0204
1.03805
1.04738
1.05321
1.05854
1.05942
1.04914
1.04058
1.04032
1.04408
1.04928
1.06344
1.08385
1.09691
1.10419
1.10938
1.11249
1.11112
1.09811
1.0838
1.0782
1.0783
1.08382
1.1094
1.80047
5.03421
0.762336
0.763825
0.759858
0.759551
0.761113
0.763868
0.772714
0.784119
0.789801
0.792944
0.795632
0.796943
0.794782
0.793727
0.794509
0.796243
0.799203
0.808943
0.82117
0.827316
0.8306
0.83348
0.833327
0.830409
0.830175
0.831056
0.832337
0.835239
0.845029
0.85997
0.867921
0.872171
0.875089
0.872995
0.866335
0.864451
0.866173
0.868978
0.872727
0.883421
0.90098
0.910743
0.915269
0.917895
0.917596
0.909247
0.904276
0.905296
0.908499
0.912349
0.919529
0.937098
0.952307
0.959498
0.96351
0.966469
0.961852
0.950638
0.946292
0.947726
0.95095
0.955338
0.968154
0.988199
0.999796
1.00542
1.00913
1.0107
1.00216
0.992171
0.990552
0.993907
0.998676
1.00708
1.02677
1.04465
1.05419
1.05971
1.06401
1.06509
1.0559
1.04612
1.04455
1.04801
1.05322
1.06589
1.08536
1.09914
1.10677
1.11149
1.11405
1.11344
1.10259
1.08521
1.07497
1.06973
1.09133
1.79436
5.00301
0.765752
0.768612
0.764216
0.761964
0.762923
0.764971
0.770276
0.783506
0.792624
0.796705
0.799523
0.802057
0.801501
0.797486
0.796262
0.797296
0.799445
0.80444
0.81864
0.829839
0.835014
0.838104
0.840659
0.838705
0.833942
0.832268
0.833216
0.835589
0.84022
0.854593
0.869065
0.875434
0.878617
0.880798
0.876367
0.869658
0.869209
0.871793
0.874928
0.878562
0.889824
0.906405
0.914824
0.9196
0.923336
0.923418
0.915578
0.911606
0.912576
0.914879
0.917962
0.925258
0.943677
0.957541
0.963541
0.967307
0.970172
0.965473
0.955233
0.952348
0.954498
0.957733
0.961539
0.973273
0.992296
1.00297
1.00832
1.01258
1.0151
1.00807
0.999307
0.998304
1.00161
1.00618
1.01356
1.03159
1.04893
1.05796
1.06351
1.06832
1.07041
1.06326
1.05352
1.05084
1.05286
1.05692
1.06692
1.08553
1.1
1.10778
1.11199
1.11437
1.11436
1.10573
1.08715
1.06942
1.07558
1.76823
4.9712
0.769359
0.772766
0.768902
0.764516
0.764599
0.76649
0.7697
0.780782
0.794341
0.800564
0.803674
0.806349
0.8079
0.803188
0.798482
0.798459
0.800363
0.803332
0.813118
0.830026
0.838726
0.84272
0.845605
0.846802
0.840531
0.834983
0.835025
0.837175
0.839922
0.84612
0.863187
0.875745
0.881756
0.885454
0.887465
0.881549
0.875684
0.875229
0.875919
0.877245
0.880894
0.894691
0.912858
0.922457
0.928298
0.932266
0.931704
0.922646
0.917101
0.916823
0.918349
0.921113
0.928754
0.947834
0.96176
0.968193
0.972929
0.976452
0.972892
0.962339
0.958268
0.958372
0.959757
0.96337
0.975633
0.995462
1.00743
1.01387
1.01938
1.02314
1.0182
1.00859
1.00573
1.00708
1.01002
1.01596
1.033
1.05169
1.06216
1.06821
1.07366
1.07778
1.07302
1.06124
1.05553
1.05616
1.05934
1.0665
1.08403
1.09977
1.10797
1.11195
1.11384
1.11345
1.10745
1.08579
1.07387
1.72538
4.94092
0.772835
0.776316
0.772987
0.767213
0.766623
0.768483
0.771126
0.77823
0.793821
0.80357
0.807743
0.810419
0.812596
0.80974
0.80201
0.800276
0.802
0.804656
0.809884
0.825733
0.840506
0.846601
0.849812
0.852346
0.849617
0.840826
0.837827
0.838554
0.840245
0.843114
0.85275
0.872683
0.884629
0.890421
0.894153
0.894821
0.886311
0.87773
0.875304
0.876585
0.879689
0.885552
0.903981
0.923071
0.931814
0.937031
0.9409
0.938678
0.926968
0.919359
0.918053
0.9196
0.922908
0.932325
0.953667
0.969304
0.976182
0.980795
0.983893
0.978181
0.965011
0.958737
0.959073
0.961909
0.966306
0.980177
1.00227
1.01611
1.02279
1.02812
1.03183
1.02647
1.01418
1.00827
1.00935
1.01316
1.0189
1.03567
1.05701
1.06935
1.07551
1.08031
1.08368
1.07985
1.06704
1.05868
1.05797
1.06074
1.06623
1.08216
1.09911
1.10808
1.11164
1.11229
1.11127
1.10329
1.09167
1.69352
4.91281
0.776187
0.779648
0.777357
0.771164
0.769606
0.771271
0.77368
0.777574
0.790268
0.804803
0.811118
0.81411
0.816322
0.815725
0.807551
0.803281
0.804512
0.80702
0.810256
0.819691
0.83809
0.848831
0.853586
0.85647
0.857536
0.850112
0.841091
0.839244
0.841005
0.844035
0.848777
0.864647
0.884703
0.893579
0.89801
0.901542
0.899508
0.885334
0.877893
0.878811
0.881764
0.88546
0.894118
0.916186
0.932518
0.939144
0.94324
0.946422
0.941821
0.926555
0.919854
0.921094
0.924151
0.928318
0.940344
0.96348
0.976551
0.981795
0.985147
0.986804
0.979473
0.965566
0.961236
0.963475
0.96739
0.973016
0.988734
1.01122
1.0235
1.02956
1.03377
1.03632
1.03069
1.01722
1.01192
1.01423
1.0187
1.02535
1.04209
1.06278
1.07425
1.08015
1.08427
1.08636
1.08323
1.07151
1.06207
1.06029
1.06234
1.06668
1.08108
1.09786
1.10678
1.1093
1.1093
1.10486
1.11051
1.68796
4.8862
0.778489
0.78281
0.782959
0.777239
0.773601
0.774509
0.776679
0.779269
0.785814
0.801788
0.812777
0.817489
0.820207
0.821126
0.815068
0.808118
0.807906
0.8101
0.812756
0.816898
0.830365
0.847811
0.855833
0.860017
0.863028
0.860864
0.847929
0.842268
0.843789
0.84685
0.850839
0.858537
0.877571
0.893017
0.89915
0.902467
0.90377
0.898813
0.887058
0.883723
0.885762
0.888862
0.893069
0.904893
0.926079
0.938329
0.943492
0.94676
0.947846
0.940136
0.927841
0.925389
0.92819
0.93213
0.937431
0.949407
0.968197
0.978621
0.983208
0.98633
0.987731
0.981861
0.971626
0.969179
0.972013
0.976085
0.981735
0.996479
1.01572
1.02639
1.03182
1.0355
1.03763
1.03432
1.02468
1.02077
1.02308
1.02722
1.03201
1.04492
1.06372
1.07517
1.08089
1.08485
1.08796
1.08757
1.0787
1.06862
1.06489
1.06567
1.06781
1.07804
1.09365
1.10204
1.10478
1.10143
1.11666
1.70147
4.8613
0.780702
0.786657
0.787927
0.784302
0.778266
0.777611
0.77951
0.781971
0.785145
0.795245
0.811115
0.81894
0.822294
0.824306
0.823446
0.81586
0.812048
0.813207
0.815693
0.818443
0.824421
0.841015
0.855317
0.860938
0.863688
0.864739
0.859927
0.850652
0.849158
0.851492
0.854401
0.857835
0.866535
0.885195
0.897542
0.902653
0.906301
0.908853
0.901697
0.891214
0.889688
0.892222
0.895599
0.900339
0.912782
0.931155
0.941194
0.945606
0.948359
0.95024
0.944147
0.93502
0.933314
0.935254
0.937615
0.94117
0.952071
0.970304
0.981397
0.986641
0.990548
0.993939
0.989428
0.979679
0.97671
0.97891
0.982592
0.986929
0.998393
1.0166
1.02847
1.0347
1.03941
1.04411
1.0438
1.03521
1.02913
1.02883
1.03165
1.03556
1.04442
1.06206
1.07591
1.08328
1.0877
1.09133
1.09369
1.08861
1.07645
1.06823
1.06648
1.06732
1.07253
1.08605
1.09604
1.09679
1.11574
1.72744
4.83634
0.780911
0.788173
0.789789
0.790647
0.785976
0.782365
0.783277
0.785574
0.788032
0.791802
0.803682
0.817587
0.82398
0.827195
0.829217
0.82654
0.819087
0.817425
0.819335
0.822035
0.824981
0.831916
0.847963
0.859677
0.864695
0.86788
0.869574
0.863558
0.855821
0.854758
0.85661
0.859278
0.863095
0.873527
0.891804
0.902979
0.908099
0.91071
0.911525
0.905302
0.897662
0.897008
0.899496
0.902705
0.906684
0.916443
0.933126
0.944114
0.949705
0.95345
0.956289
0.950711
0.940344
0.936976
0.938799
0.941889
0.945901
0.955545
0.973634
0.986502
0.992733
0.996503
0.999717
0.99689
0.987501
0.982842
0.983653
0.987046
0.991496
1.00038
1.01841
1.03371
1.04168
1.04624
1.05059
1.05216
1.04472
1.03572
1.03276
1.03459
1.03826
1.04493
1.06089
1.07743
1.08716
1.09212
1.09547
1.09787
1.09549
1.08264
1.07005
1.0652
1.06488
1.06744
1.07951
1.0869
1.10987
1.75305
4.80802
0.777857
0.789677
0.792785
0.795213
0.795429
0.790357
0.788261
0.789325
0.79097
0.792771
0.796911
0.810103
0.823705
0.829769
0.832825
0.834668
0.830611
0.824313
0.823642
0.825319
0.827273
0.829765
0.836366
0.852803
0.864911
0.870365
0.87341
0.874364
0.867836
0.860992
0.860573
0.863022
0.86608
0.869602
0.878118
0.894536
0.905416
0.910772
0.915145
0.917968
0.913583
0.906418
0.904546
0.905032
0.906109
0.909249
0.918462
0.936496
0.948986
0.954909
0.958303
0.960747
0.95653
0.94681
0.943387
0.944564
0.946764
0.950055
0.958614
0.976808
0.990137
0.99673
1.00129
1.0052
1.00469
0.996428
0.990225
0.98979
0.992092
0.996123
1.00399
1.02183
1.03813
1.0465
1.05156
1.05556
1.05762
1.05201
1.04172
1.03732
1.03878
1.04223
1.04776
1.06173
1.07904
1.08961
1.09477
1.09789
1.09953
1.09793
1.08767
1.07349
1.06534
1.06247
1.06331
1.07036
1.09709
1.76913
4.77581
0.772308
0.788945
0.795762
0.79906
0.801351
0.800434
0.794852
0.792486
0.793151
0.795064
0.797353
0.802233
0.816669
0.829845
0.835854
0.839137
0.840968
0.836363
0.830015
0.828371
0.829137
0.831001
0.833714
0.840538
0.857323
0.869567
0.875328
0.879191
0.880905
0.87496
0.868658
0.867976
0.868785
0.869494
0.872002
0.879787
0.897878
0.911756
0.91871
0.92344
0.926253
0.921445
0.911445
0.90695
0.907748
0.910185
0.913192
0.920935
0.939102
0.952481
0.958791
0.963585
0.966957
0.964181
0.954063
0.948548
0.948594
0.950474
0.953325
0.960269
0.978256
0.993669
1.00161
1.00698
1.01191
1.01358
1.00561
0.99695
0.995644
0.998189
1.00157
1.0072
1.02294
1.04006
1.04942
1.05463
1.05902
1.06249
1.05978
1.05033
1.04464
1.04465
1.0469
1.05024
1.05988
1.07756
1.08974
1.09511
1.09779
1.09977
1.10039
1.09422
1.07898
1.06596
1.06044
1.05598
1.08036
1.76247
4.73993
0.76941
0.78173
0.795883
0.802213
0.80514
0.807334
0.805082
0.79877
0.796756
0.797637
0.799157
0.801137
0.806568
0.823274
0.836897
0.842865
0.846317
0.847807
0.841723
0.834083
0.832049
0.832863
0.834321
0.836696
0.843966
0.862691
0.876621
0.883051
0.887309
0.888924
0.881961
0.872854
0.869533
0.870147
0.87236
0.875719
0.885087
0.905525
0.919539
0.925698
0.929589
0.932168
0.927354
0.916355
0.911674
0.911487
0.912837
0.915959
0.924434
0.944455
0.959272
0.965448
0.969146
0.972677
0.971238
0.960016
0.951798
0.950489
0.952571
0.956126
0.96358
0.98262
1.00033
1.00915
1.01402
1.01824
1.0204
1.01288
1.00265
0.999632
1.00157
1.00513
1.01014
1.02384
1.04242
1.05407
1.06028
1.06477
1.06815
1.06758
1.05885
1.04989
1.04722
1.04893
1.05214
1.05921
1.0751
1.08945
1.09678
1.09963
1.10084
1.101
1.09795
1.08477
1.06787
1.0544
1.06557
1.73756
4.70163
0.769883
0.774837
0.789887
0.803312
0.809018
0.811943
0.813855
0.809484
0.802279
0.799898
0.800231
0.802026
0.804907
0.812886
0.831876
0.844525
0.849858
0.852986
0.8539
0.846314
0.837651
0.834712
0.834898
0.837051
0.840481
0.850752
0.871795
0.884726
0.890274
0.893795
0.895071
0.886272
0.874978
0.872391
0.874279
0.87727
0.881243
0.892265
0.91272
0.925113
0.930697
0.934655
0.937725
0.932333
0.918553
0.91305
0.914428
0.917265
0.921082
0.930391
0.95009
0.964069
0.970202
0.97401
0.977164
0.975281
0.962265
0.954053
0.954524
0.957843
0.962421
0.97086
0.989103
1.00584
1.0144
1.01949
1.02318
1.02423
1.01747
1.00751
1.00425
1.00652
1.0106
1.01635
1.02841
1.0457
1.05778
1.0644
1.06844
1.0704
1.07078
1.06545
1.05658
1.0522
1.0526
1.05499
1.05992
1.07361
1.08841
1.09626
1.09926
1.10018
1.10028
1.09861
1.0895
1.06789
1.06365
1.69371
4.66551
0.771197
0.774236
0.78146
0.799864
0.811586
0.816307
0.819053
0.819656
0.811234
0.803355
0.802532
0.80432
0.80658
0.809814
0.820274
0.84013
0.851287
0.856269
0.859722
0.859862
0.848582
0.838277
0.837182
0.839434
0.842335
0.846364
0.858545
0.878977
0.889802
0.894614
0.898312
0.899363
0.889388
0.879275
0.878006
0.880036
0.882638
0.886376
0.898583
0.919313
0.930962
0.936121
0.939532
0.941337
0.93395
0.921578
0.918321
0.920198
0.922984
0.92625
0.935057
0.954679
0.967966
0.973484
0.976731
0.978301
0.976179
0.967333
0.962048
0.963107
0.966588
0.970577
0.976982
0.992533
1.00824
1.01664
1.02117
1.0245
1.02725
1.02464
1.01742
1.01417
1.01567
1.01905
1.02273
1.02943
1.04388
1.05699
1.06428
1.06843
1.07201
1.0753
1.07443
1.06658
1.05952
1.05776
1.05889
1.06114
1.06859
1.0828
1.09274
1.09692
1.09866
1.09932
1.09895
1.0901
1.07985
1.65765
4.63316
0.773472
0.77604
0.779117
0.791026
0.809782
0.818989
0.822955
0.825155
0.822794
0.812057
0.806766
0.807129
0.808646
0.810799
0.814842
0.828839
0.848529
0.857735
0.861926
0.864889
0.862768
0.850197
0.842926
0.843138
0.844785
0.846922
0.851233
0.865707
0.885669
0.895398
0.899683
0.902813
0.90382
0.893582
0.883481
0.882339
0.884812
0.887969
0.893079
0.906196
0.924675
0.934702
0.939166
0.941934
0.94367
0.937517
0.926512
0.923165
0.924759