/*--------------------------------*- C++ -*----------------------------------*\
  =========                 |
  \\      /  F ield         | OpenFOAM: The Open Source CFD Toolbox
   \\    /   O peration     | Website:  https://openfoam.org
    \\  /    A nd           | Version:  12
     \\/     M anipulation  |
\*---------------------------------------------------------------------------*/
FoamFile
{
    format      ascii;
    class       volScalarField;
    location    "4";
    object      p;
}
// * * * * * * * * * * * * * * * * * * * * * * * * * * * * * * * * * * * * * //

dimensions      [1 -1 -2 0 0 0 0];

internalField   nonuniform List<scalar> 
46253
(
1.04651
1.06082
1.16567
1.06018
1.1615
1.15777
0.96659
0.88908
1.05602
1.05552
1.04858
0.789934
1.03461
1.03557
1
1.05347
1.05276
1.04201
1.04295
1.04848
1.04841
1.15017
1
1.02715
0.933153
1.05772
1.0506
1.05023
1.05818
0.895062
1.01584
1.02714
1.02657
1.04618
1.04544
0.999984
1.03823
1.03791
0.678692
1
0.971828
0.784102
1.02931
1.02908
1.0156
1.03985
1.03998
1
1.02094
1.02005
1.01786
1.01786
1.13686
0.905729
1.17864
0.845348
1.01309
1.01235
1.10342
0.979787
0.999991
0.954389
0.999992
1
1
1.03213
1.03133
1.14447
0.84312
1.01405
0.997415
1.00993
1.00897
1.06336
1.13059
1.02568
0.993939
0.992874
1
1.02429
1.02335
1.00357
1.13881
1.00338
1.10519
1.12403
0.974522
0.973981
0.831588
1.00744
1
1.03657
1.12249
1.016
1
1.01541
1.12095
1
1.10245
1
1
1.11959
1.12731
1.01454
1.17516
0.971562
0.779419
0.952502
0.951442
0.78981
0.758398
1.00656
1.00567
1
1
0.829263
0.886935
0.989553
1.20182
0.847986
1
1.15442
1.00164
1.00088
1.11352
1.20668
0.999985
0.833747
1.19712
0.988216
0.936782
0.935741
1.15377
0.991761
0.987494
0.999988
0.983951
0.983211
0.835873
0.999984
0.995977
0.927991
0.926672
1.00731
0.996735
1.18867
0.976272
0.97596
0.688628
1.00698
0.788588
1.13485
0.986489
0.986055
0.979527
1.01756
0.830048
1
0.96751
1.17374
0.966599
0.776661
0.847074
0.999984
0.913198
0.980002
0.995356
0.978683
1.304
0.999986
0.961925
0.961257
1.14643
0.896481
1.17015
1.06536
0.698811
1.11903
1.01251
0.890883
1.16969
0.980056
0.955472
0.954625
1.13079
0.971611
0.970136
1.02361
1.13047
1.12998
1.1327
1.12197
0.983205
1.12205
1.1373
1.13709
0.740716
1.10833
0.873144
0.872058
1
0.999987
0.964167
0.963941
1.00014
1.03636
0.977483
0.946091
0.94529
0.999999
1
1.20332
0.887171
1.12561
0.841683
1.1074
1.00348
1.14958
0.939703
1.14684
1.14136
0.938892
1.06679
0.958923
0.957996
1.1085
1.11013
1.11563
0.856709
0.855079
1.06365
1
1.07095
1.06036
1.11238
1
1.13618
1
1.06079
1.07691
1.11242
1.11822
1.10383
1.13672
0.999987
1.12892
1
0.975717
1.10303
0.930499
0.92992
1.07485
0.8377
1.10229
0.835548
0.949129
0.948052
0.850728
0.961943
1.10078
0.99639
0.985158
0.808183
1.00965
0.867544
1
1
1
0.942962
0.920402
0.942174
1.1158
0.999984
1
0.919872
1.11132
1.18557
1
0.909029
0.864191
0.818559
0.823177
1.12905
1.12559
1
0.984539
0.944532
0.855893
0.997664
0.999983
1.09621
1.09424
1.10606
1
1.08832
1.03973
1.11666
1.03886
0.977767
0.914661
1.19771
0.913903
0.831822
1.19593
1.13092
0.933365
0.932401
0.999997
1.00991
1.13041
1.12998
0.703494
1
0.908275
1.09641
0.907519
0.825268
1.08607
1.00003
0.917549
0.814337
1.09574
0.95585
0.947426
0.672546
0.995807
1.09509
1.10552
0.901727
0.900913
0.803248
0.80224
1.13143
0.999989
1.09443
0.951619
0.856012
0.923708
0.92228
1
1.13669
1.13277
1
1.19827
1.09163
0.895849
0.895264
1
0.83693
1.11769
0.719211
1
1.00712
1
0.781575
1.08877
0.917836
0.999981
0.917164
1.00889
0.790029
1.1295
1.09923
1.12996
1.12992
1.09737
1.09668
1.09653
0.888908
1.09132
1.088
1.08869
1.08857
0.887971
1.09693
1.08161
0.833556
1.11461
1.09106
0.999995
0.998643
0.932269
0.823008
0.91132
0.910904
0.910554
1.0923
1
0.883176
1.22317
1.13137
0.998168
0.882624
0.912788
1.09072
0.87069
0.963284
0.962225
1.10001
0.916259
1
1.0816
1.0808
1.08123
1.11458
1.12103
1.13913
1.00541
1
1.09378
1.09779
1.13095
1.18447
1.13086
0.909687
1.11998
0.965718
1.10469
1.09315
0.846607
1.1205
1
0.876821
1.10315
0.905235
1.10312
1
0.875648
0.904457
1.12676
0.691436
0.999999
1
1.13949
1.14053
0.886553
0.895693
1.12944
1.13911
0.898226
0.816935
1.1276
0.95288
1.12733
0.889689
0.981276
1.12235
1.09926
0.85769
1
0.867075
0.918012
0.999989
0.957154
1
1.11513
0.826566
1.11779
0.898397
0.898325
1.09782
0.898027
0.898671
0.897862
1.09066
0.896723
1.1193
1.12888
1.1197
1.08929
1.12926
0.769882
1
0.842739
0.833473
0.867475
0.866973
0.971051
0.867528
0.886018
1.06445
1.06353
0.999988
1.11119
1.10919
0.999988
1.20306
1
0.870004
1.0832
0.767054
0.87303
0.894565
0.993629
0.895206
1
1.08945
0.892978
0.907793
0.802564
0.89199
0.862317
0.860186
1.05686
0.952857
1.09839
1.05582
1.01307
1.01925
1
1.09851
0.974397
1.12444
0.919069
0.961572
1.00017
1.13088
0.895635
1.0971
0.999993
0.947705
1.14336
0.911128
1.1015
1.1
0.910984
1.09397
0.908914
0.911274
0.909325
1
0.686722
0.689987
1
0.897324
0.903722
1.09132
0.999984
0.885546
1
1.01832
0.856554
1.09258
1.11872
0.885211
1.00005
0.999979
1.11748
1.11866
0.750448
1.11393
1.1146
0.852114
0.871367
0.853876
0.98434
1.10242
1.10349
1.09761
1.09926
1.10152
1.12355
1.06836
0.89373
0.763411
1.12754
1.13504
0.999964
1.1219
1.12645
1.13675
1.01246
1.00096
0.999983
0.993901
1.12981
1.11738
0.831354
1
1.12863
1.12659
0.880307
1.12337
1.13151
0.879594
0.989885
1.02456
1.09772
1.02524
1.02558
1.02852
0.940851
1.13102
0.846986
0.843028
0.997907
0.939192
1.12559
1.12289
1.06968
1.09316
1.19517
0.841509
1.12127
1.19747
1.12228
1.09043
1.00769
1.01481
1.08956
1.09681
0.929537
0.900764
1.09094
1.09136
0.96026
1.08937
1.09118
1.08443
1.08531
1.07734
1.07857
1.07162
1.07327
1.02717
0.890195
1.06566
0.929304
1.0664
1.05811
1.0915
1.03342
1.02955
1.05933
1.09743
1.05211
1.09195
1.05353
1
0.892926
1.04586
1.09437
1.04673
1.15688
1.09475
1.03794
1.14206
1.03909
1.1411
0.759228
1.0946
0.873068
1.02684
1.12849
1.12893
1.03151
1.03305
1.09885
0.90728
1.02512
1.02605
0.95655
1.10648
1.10465
1.0148
0.842894
1.01556
1.09364
0.870044
1.00615
0.823757
1.00708
0.845043
0.868911
1.09056
1.1279
1.1276
0.999947
1.00184
0.930012
1.08942
1.08812
0.995974
0.881166
0.995708
0.81408
1.09576
0.997865
0.997614
1.12818
1.13006
1.12853
0.945811
1.13035
0.903773
0.9368
1.01831
1.10929
0.99239
1.1161
0.991747
1.11538
1.09465
0.905959
0.905924
0.984048
0.986785
0.890405
0.911149
0.980504
0.912219
0.980622
1.10645
0.963828
0.970752
0.969696
1.13117
0.859329
0.959535
0.961627
1.27179
1.09896
1.09904
1.13086
0.95751
0.889624
0.958313
1.05633
0.935344
0.896651
0.794606
0.947965
0.947558
0.936193
0.9412
0.943741
0.835629
0.841816
1.10777
0.772664
1.20044
0.82339
1.04895
0.813673
0.819988
0.824832
0.937804
1.02471
1.09477
1.10842
1.09594
0.865633
1.11607
1.11168
1.11536
1
1.11295
0.865246
1
1.10636
1.10503
0.851578
0.843494
1.09451
0.962664
1.04068
1.03922
1
1.00222
1.09376
1.12471
1
0.933445
1.11738
0.88931
1.12355
1.01763
0.95154
1.02051
0.82864
1.13134
0.938829
0.991593
1.02781
1.12228
1
1.09874
1
1.11646
1.02152
1.02157
0.939425
1.01255
1.02257
1.08977
0.867797
1.09316
1.09014
1.02412
0.931119
1.1207
0.84222
1.11912
1.12144
0.962199
0.967879
1.09338
1.02451
0.828217
0.895689
1
0.894719
0.827092
1
1.12193
0.897107
0.895563
1.12186
0.822571
1.12238
1.12832
0.999999
1.02079
1.02262
0.889643
1.11932
1.11833
1.12049
1.00595
0.956314
1.12989
0.907997
0.886448
0.817064
1.15184
1.09854
1.0971
1
0.995326
0.996863
1.09295
1.12499
1.00191
0.853104
0.996996
1
1.12554
0.998717
0.851477
0.89507
0.892358
0.99999
0.88807
0.916506
0.821057
0.886995
0.822968
0.974648
1.12989
1.1294
0.977717
1
1.13166
0.892648
0.888542
1.13096
0.811565
0.842657
0.907477
0.85734
0.856438
0.813894
0.84131
0.841092
0.818042
0.818263
1.0743
1.14274
0.943052
1.14317
1.07313
0.898389
0.849998
0.850192
1.09465
1.13047
0.917315
1.10648
0.909201
0.917392
1.11634
1.1156
0.923112
1.11786
1
1.11945
1.09172
0.890336
0.9114
0.942572
1.11453
1.08861
0.852925
1.10088
0.917857
0.917873
0.853256
1.12596
0.913838
0.906788
0.910759
1.09172
1.0918
1.09119
1.09157
0.905809
0.908523
1.03049
0.950776
1.12025
0.84067
1.05929
0.84108
1.03529
0.961891
1.09502
0.810864
0.80787
0.990631
1.18206
1.09384
0.84855
0.757311
0.779074
0.848177
1.10065
1.10166
0.896274
1.05507
1.09467
1.09507
0.908963
0.764769
0.934142
0.897844
1.08102
1.10927
1.10922
1.11035
1.11719
1.1152
1.22963
1.11647
1.04097
0.83172
0.827735
0.94717
1.07081
1.0863
1.08407
0.844208
0.92041
1.03641
1.11964
1.04192
1.04838
1.05585
1.03554
1.04359
1
0.853877
1.04964
1.06189
1.03637
0.893191
1.05661
1.01355
1.02781
1.06356
1.11267
1.06784
1.02887
1.06914
1.12759
1.01724
1.10073
1.07529
1.07623
1.01803
1.08088
1.0807
1.01019
1.08258
1.12944
1.08638
1.0121
1.10555
1.0042
1.08749
0.999999
1.08784
0.802324
1.00472
1.12789
1.13711
1.12954
0.996007
1.02934
1.13203
1.12975
1.13765
0.996953
0.803246
1.07041
0.994971
1.09518
0.913043
0.996699
0.992695
0.994519
0.829198
0.990453
0.99137
0.981409
1.09256
1.02515
0.981237
1.09501
0.970169
1.0096
1.09511
1.10191
0.971105
0.872768
1.04889
0.966351
0.968686
0.959506
0.835065
0.957792
1.08117
0.95031
1.09236
0.928583
0.839778
0.953383
0.959565
0.945804
0.892167
0.946901
0.925867
0.926611
1.00766
0.947292
0.938045
0.938265
1.04072
1.04238
1.12082
1.09282
1.04066
1.09028
1.04324
1.03793
1.06044
0.999987
1.207
0.931238
1
0.935818
0.93432
0.998426
1.00145
1.09228
0.93096
1.00478
1.0102
0.945668
0.933287
1.00658
1.00581
1.00657
1.02462
0.829778
0.833106
0.914681
0.894828
1.09268
0.912097
0.84424
0.824144
0.94378
1
1.03846
1.02433
0.787905
1
0.791128
0.959443
0.923532
0.790126
1
1.08667
1.09783
0.887366
0.944638
0.944648
1.00856
0.958636
0.963126
1.02232
0.841234
0.928998
0.83336
0.928214
1.04377
0.774804
0.84087
1.02445
0.918409
1.0072
0.933414
1.09688
1.0075
1.06001
0.888924
0.93598
1.10737
1.09677
1.07678
0.903598
1.12238
1.09126
1.07314
1.05924
0.940669
0.823033
1
0.987999
1.06974
0.903512
0.896666
1.08047
1
1.1441
0.821474
1.07847
0.825022
0.910505
0.909861
1.18068
1.01198
0.908448
1.12391
0.938322
1.06616
0.948611
1.0929
0.934683
0.852946
1.08809
1.08931
0.911672
0.935081
0.920575
0.900277
0.901097
0.900165
1.08815
1.10802
0.922804
0.893046
0.890862
0.823289
0.951924
1.12238
0.900977
0.972139
0.916952
0.805014
0.917094
1.02431
0.999999
1.11048
1.1113
0.848655
0.906453
1.08051
0.888201
0.907208
0.933254
0.938225
0.846421
0.889746
1.05559
1.00784
1.03409
1.09221
1.09457
0.905214
1.04547
1.10523
1.11279
1.11492
0.901883
1.10756
0.904289
0.745148
0.830554
0.939398
1.09485
1.11644
0.941848
1
1.09792
0.890751
1.09007
1.09988
1.08674
0.977319
1.09139
0.894798
0.932883
1.03217
1.12602
0.919906
1.07803
1.05618
0.905458
1
1.02437
1.07969
1.06612
1.12807
0.91138
1.11327
1.12986
1.13897
0.848089
1.06772
1.13655
1.04328
0.977441
1
1.1394
0.963607
1.05389
1.10109
0.921714
1.06668
0.829434
0.816618
1.08644
1.05375
1.0554
0.927142
1.09621
1.1368
0.984986
0.831769
0.975687
1.01228
1.0776
1.04306
1.07849
1.13137
1.08105
1.04089
1.07264
1.11766
0.878267
0.881061
1.07407
0.885116
1.04407
0.912829
0.898669
1.06854
0.81162
1.143
0.908908
1.07678
1.06943
1.11967
1.12797
1.13555
0.865724
1.0585
1.0628
1.06416
1.1283
1.12698
1.11695
0.940628
1.05649
1.07311
0.945383
1.12715
1.05958
1.06967
0.81566
0.86312
1.0359
1.05297
1.0339
0.977619
1.05439
1.09053
1.12956
0.984264
1.04822
1.02731
1.0493
1.06441
0.835281
1.00895
1.1307
1.0404
1.06611
0.999993
1.04138
1.12389
1.07692
1.07466
0.90787
1.06225
1.09219
1.13137
1.03389
1.03522
0.848701
1.02879
1.09832
1.03017
1.01714
1.10613
1.02335
1.0983
0.946671
0.947805
0.844626
1.05735
0.840587
0.938348
1.09504
1.02424
0.92857
0.930338
1.01958
1.01883
0.816016
1.01809
1.01988
0.948069
1.01638
1.01491
1.10246
1.02258
1.0144
0.699409
0.975526
1.02259
1.00822
1.0151
1.02167
1.10006
1.02087
0.999995
0.941431
1.02143
1.01004
0.971656
0.842506
0.905668
1.02444
0.995629
0.813863
1.00273
1.02629
1.00309
0.863501
1.09
1.02948
0.816637
0.811445
0.899201
0.997629
1.02415
0.925706
1.00002
0.920405
1.0515
1.09388
1.08821
1.10732
1.08959
1.08828
0.92014
0.988088
1.09077
0.987507
0.980931
0.989313
1.08946
0.83483
0.986878
1.01626
1.01729
0.980969
0.981565
0.926294
1.02153
1.06112
0.963507
1.07009
0.97487
1.02045
0.976668
0.966403
1.08763
0.980038
1.11674
0.887425
1.09453
1.07814
0.826255
0.96754
1.02843
0.92423
1.03141
0.905842
0.94546
1.0191
0.880178
0.852369
1.03592
1.11391
0.957049
0.957254
1.11461
1.08789
1.10287
1.09672
1.10374
1.09762
1.11668
0.865124
1.08709
1.08414
1.07819
0.832645
1.04688
1.06324
0.834389
0.946446
0.811278
1.09061
1.0611
1.0841
0.974752
1.10996
0.829339
1.01694
1.11021
1.10834
1.07269
1.08899
0.855999
0.844256
0.977907
1.00168
1.1138
1.10115
0.940309
0.897285
1.02971
1.08514
1.14122
1.00409
1.12307
0.975612
1.08523
0.941557
0.942968
0.987046
1.07401
0.929656
0.931997
1.09983
0.673766
0.93325
0.971437
1.02373
1.08163
1.06822
1.12584
1.08289
1.01681
0.931091
0.923915
1.05767
1.07794
1.09552
1.10447
1.02622
1.11558
1.09936
1.00901
0.850082
1.04508
0.81519
1.08471
1.03569
1.04659
1.11925
0.908788
1.05161
1.12
0.920671
0.971954
0.919393
1.13608
1.10505
0.815367
1.06372
1.05041
0.834421
0.748084
0.931049
0.940258
0.946891
1.07173
0.914512
0.914561
0.943122
1.12222
0.912338
1.07157
1.05234
0.927872
1.02138
0.919259
0.871447
1.12868
1.12856
0.942823
0.940039
0.968739
1.12512
0.894413
1.02393
0.903888
0.91188
0.906694
0.948704
0.91187
1.02025
1.03449
1.02171
1.08104
0.996099
0.893625
1.0147
0.824414
1.08015
0.871263
1.00255
1.11256
0.886501
0.925575
0.82402
1.08498
0.842362
0.882208
0.911497
1.08611
1.04675
0.883312
0.94689
1.08936
0.914345
0.885276
1.03332
1.04856
1.13526
0.931404
1.12433
0.939713
0.861302
0.92873
0.791607
1.04663
1.1248
1.04869
1.00999
0.882947
1.0904
1.06386
0.990581
0.998672
0.992961
0.995343
1.05279
0.859445
0.927405
0.991433
0.993678
1.03745
0.867901
0.872024
1
0.871628
1.06885
0.893325
1.07017
0.872599
0.833114
1.05518
0.934593
1.08881
1.04545
0.970919
0.935269
1.13379
0.969587
0.972466
1.01655
1.20254
0.93067
1.12807
0.850434
1.08283
0.874913
1.09255
0.961708
0.87448
1.13483
1.01473
0.964041
0.922995
1.11828
0.953667
0.855571
0.879935
1
1
0.955332
1.02679
1.08479
1.03747
0.899333
1.01879
1.02214
1.02373
0.935477
0.942842
1.08826
1.02169
1.10991
1.03006
1
1.03359
1.1073
1.02561
1.07352
0.853259
0.787348
0.775204
0.991985
0.872089
0.867239
0.855784
0.992016
1.05528
1.0204
0.844997
0.909402
1.07306
0.935801
0.942901
0.949566
0.930544
1.03763
1.10861
0.9949
1.11081
0.83679
1.06804
1.10931
0.834783
1.12959
0.84943
0.860781
0.938002
0.845945
1.1306
1.13076
1.0208
1.02071
1.00029
0.900623
1.13452
1.0836
0.902057
0.981176
0.803712
1.13857
1.08651
0.948858
0.82574
0.837906
1.07591
0.893838
1.01929
0.931025
0.839438
1.13402
1.01833
0.802116
0.989733
1.01569
0.977376
1.01439
1.17873
0.922069
0.896104
0.932043
0.90053
0.931919
0.925636
1.00693
0.707078
0.944434
1.13742
0.968516
1.10738
0.999993
0.898862
0.884932
0.907933
0.888409
1.07598
0.931777
1.1057
1.12768
0.903755
0.906101
0.992433
0.959223
0.929117
0.995071
0.93265
0.996226
0.906652
0.988493
1.0318
0.92183
1.11393
0.831053
1.136
0.946561
1.0291
0.990949
1.1115
0.944979
0.89384
1
1.09066
0.89581
0.923951
1.08284
1.09426
1.09552
0.922914
1.09555
0.895949
0.969095
1.00077
0.845178
0.923184
0.895749
1.00482
1.10373
1.00028
0.855027
1.10422
0.822348
1.03823
1.01936
0.888895
0.89233
1.10373
1.12984
0.979527
0.939714
0.9481
1.01169
1.01399
1.10765
0.854776
1.04225
1.11339
0.876838
0.999997
0.999997
0.987843
0.895285
0.93806
0.879843
1.10241
1.03784
0.985343
0.86059
1.0256
0.868151
1.05118
0.948524
1.03722
1.07014
1.05592
0.849721
0.942523
0.973563
0.864362
1.05047
1.06062
1.04404
0.865174
0.833468
0.991893
0.863512
0.941092
0.813969
1.06587
1.01198
1.05146
0.866543
0.999987
1.03182
1.0433
0.975659
1.06157
0.828842
1.05724
1.07944
1.09553
1.0673
1.07537
1.09439
1.03881
1.02691
1.07122
1.03258
1.01669
1.08408
0.936345
1.0859
1.09839
0.950387
0.943858
1.00002
1.07942
1.07659
1.07169
0.813117
0.876591
1.00056
1.01816
1.01305
0.949519
0.930057
1.0351
1.13619
1.08046
1.09542
1.10335
0.930945
0.862374
1.00445
1.00298
0.932531
0.876846
0.852691
1.06927
0.888137
0.937058
0.983328
0.974287
1.00131
0.891421
1.00594
0.89476
1.10885
1.0922
0.964147
1.00689
1.12415
1.11535
1.00904
0.955045
0.889287
0.936937
0.952027
0.991206
1.10968
0.85154
1.11275
0.963962
0.968815
0.956883
0.913477
0.845837
0.885593
0.892039
0.984902
0.9071
0.992082
0.870873
1.1062
0.915183
0.911365
0.852998
0.968789
1.07262
0.962065
1.16579
1.07883
0.911674
0.978625
0.912792
0.948505
1.11089
0.930403
0.817604
1.04747
1.08355
0.912439
1.01781
1.11805
0.979805
0.912449
0.820911
0.969169
0.928782
0.933208
0.971969
0.95819
0.967888
0.935902
1.05498
0.927096
0.932911
0.959315
0.967984
1.05628
0.91414
0.978213
0.911245
0.930164
0.950685
0.912944
0.924488
0.999996
0.980648
1.05023
0.928039
0.979778
1.13498
1.05155
1.10741
0.973148
1.0293
0.978806
1.0996
1.04518
0.932545
1.01968
0.92978
0.97966
1.04586
1.05476
0.999991
0.923491
1.092
0.982606
0.920107
0.968686
0.929935
1.13077
0.935599
0.923169
0.981267
0.832686
0.929883
0.985639
0.975555
0.925185
1.03945
0.944685
0.940754
0.966844
1.08645
0.938374
0.93166
1.04106
0.933026
0.961416
0.937228
0.947266
0.944821
1.05735
0.952843
0.983949
0.91711
1.03484
0.918688
0.950052
0.946796
1.19157
0.948365
1.11605
1.13171
1.03582
0.937012
0.971446
0.91972
0.991383
0.919054
0.930164
1.02805
1.09374
1.11221
1.01427
0.895458
0.87235
1.02941
0.990762
1.0918
1.00346
0.985111
0.886881
0.908556
1.09767
0.988085
1.01805
0.99355
0.90732
0.898529
0.931742
1.02421
1.06136
1.03566
0.975728
1.02543
0.882877
1.06202
1.08589
1.09923
0.934821
1.09002
1.09031
0.930799
0.841946
1.00176
0.88959
1.05261
1.08632
1.08452
1.08723
0.960146
1.08539
0.870615
1.07751
0.88814
0.89339
0.973324
1.01433
0.88194
0.843485
1.0142
0.817608
0.88593
1.02931
0.947851
0.872372
1.01474
1.01588
1.08669
0.984368
0.872466
1.10881
1.07137
0.98513
1.10098
0.997921
1
1.01302
0.874018
0.873238
0.993441
0.980836
1.00478
0.964168
1.10096
1.03579
0.980143
1.09719
0.983471
1.00637
1.03652
1.00119
0.864317
1.09656
1.00225
0.868322
0.948343
0.965697
1.018
1.06467
0.977721
1.00064
1.03472
0.964699
1.01697
0.86552
0.97253
0.901889
0.873974
0.930091
1.09012
1.00209
0.931055
0.798855
0.897193
0.963494
0.944222
0.955544
1.06584
0.94954
0.988436
0.974053
1.0007
1
1.02165
1.00016
0.899782
1.01005
0.909472
0.994107
1.09322
0.872799
0.840572
1.08928
1.13517
1.07575
1.08823
0.995466
1.04466
0.859024
1.04052
0.891817
1.10461
0.870787
0.794875
1.01647
0.940807
0.844026
0.986166
0.987007
1.00548
0.888119
1.09307
1.07185
0.924226
1.04189
1
1.08291
0.929917
1.02546
0.859785
0.987179
0.880238
1.00778
1.11132
0.948142
0.901083
0.951752
1.0313
1.03478
0.879526
1.06867
0.832752
0.870812
1.11281
0.988547
0.921989
1.03267
1.01318
1.03254
0.832582
0.868835
0.982804
1.05762
0.984618
1.04781
1.03735
1.07121
0.927381
1.00795
1.04489
0.982868
1.0723
1.09524
0.921516
0.821296
0.880878
0.769275
0.989509
1.06468
0.978489
1.09784
1.0538
0.942907
0.822266
1.04969
1.05071
0.817459
0.793907
0.980301
1.04929
0.949319
0.938343
0.931666
0.97579
1.06578
0.932109
0.967897
0.935201
1.09137
0.933741
0.987944
0.870438
0.856464
0.972138
1.06159
1.11368
0.877292
0.871972
0.985828
0.872142
0.851646
0.933712
0.971935
1.05886
0.944867
1.02616
0.842148
1.00212
0.963467
0.920979
0.969162
0.99682
1.05718
1.02107
0.925673
0.999218
0.838193
0.860877
0.925678
0.855153
0.958671
1.06855
0.872902
1.08164
0.881242
0.959296
1.07319
1.07428
0.879066
1.03648
1.09331
0.936326
0.967244
1.11143
0.894317
1.09145
0.769762
0.999982
0.935933
0.81072
0.947969
0.98759
0.860656
0.94963
0.860424
0.933256
0.930499
1.10208
1.02061
1.11802
0.944686
0.978373
1.04039
0.946651
0.984913
1.0607
0.9461
1.06108
1.10118
0.986449
0.78012
0.935716
1.02086
1.04486
0.908299
0.938824
0.937109
0.948507
0.955545
1.02261
0.944175
1.08742
0.810712
1.11056
0.94352
0.789522
1.09503
0.93198
0.975007
0.941364
1.03634
0.935999
0.933353
0.983917
0.900155
1.12036
0.855244
0.856063
1.01303
1.06884
1.11927
0.92349
0.998508
1.00508
1.06665
1.00447
1.01389
0.92517
0.933113
0.806518
1.07447
1.01498
0.999999
1.07125
0.918899
1.08001
0.970821
1.07752
0.919501
1.13225
0.868566
0.974385
0.987867
0.911164
0.933462
1.02487
1.02521
1.0659
0.913318
1.06546
0.993498
1.13392
1.09984
1.13547
0.804407
0.905999
1.07085
0.841455
0.971908
1.08241
0.994588
0.931437
0.924685
0.890386
0.906066
0.992321
0.841693
0.91771
1.03651
0.844345
0.911023
1.09667
0.958327
0.913489
0.943952
0.971049
1.00425
1.00487
1.08262
0.839231
1.08705
1.08701
1.11777
0.887153
1.02584
0.897532
1.11168
1.09764
0.847394
1.09429
1.08452
0.975256
0.901775
1.01075
1.11308
0.91555
0.93358
0.846688
0.985661
0.867815
0.971316
0.895272
1.03359
0.93644
1.08403
1.13462
0.898778
0.947656
0.865366
0.986235
0.892537
1.13555
0.943806
1.02567
0.930433
1.08852
0.959096
0.995272
1.08659
0.928973
1.08706
0.96288
0.870328
0.986775
1.22666
0.941871
1.11067
0.884338
0.956127
1.03325
1.03455
1.12392
1.09127
0.997151
0.864344
0.889166
1.01143
0.928686
0.877325
0.954255
0.974479
0.923888
1.09932
1.12902
1.12727
0.765197
0.876993
0.880197
0.879281
0.8301
1.08432
1.0863
1.08676
0.970155
1.08642
1.08294
0.886198
0.829471
0.964628
1.08683
0.8827
0.879112
0.869714
0.888859
1.01091
0.961015
1.11889
0.877816
0.873477
0.89555
0.964686
0.978278
0.89002
0.929002
1.08508
0.913674
1.12165
1.0775
1.11666
0.959857
0.931209
0.957486
0.862016
1.11033
0.961964
1
1.08477
0.862679
1.11894
1.09017
0.971288
0.898361
1.12718
0.958363
0.883167
0.899036
1.0745
1.11813
1.09254
1.13506
0.898156
1.07068
0.846778
0.857648
1.05088
0.965644
0.861653
1.09324
0.896923
1.09465
1.0579
1.12072
0.898251
0.840041
0.839064
1.05283
1.00062
0.902089
0.964037
1.13413
1.13568
0.967204
0.879385
1.04719
0.855635
0.902666
1.05927
1.07094
1.12926
1.07027
1.12429
0.817789
1.07124
0.913653
0.899509
1.04278
1.0188
0.926983
1.05376
0.832585
0.959231
0.999979
0.853134
1.00611
1.12777
1.06742
1.01637
1.03242
1.13777
1.03685
1.04855
0.966217
0.96234
0.909849
0.908892
0.958114
1.05132
1.07064
1.04402
0.835664
1.01509
1.03144
0.961649
0.907269
1.13788
0.916395
1.07412
0.929898
1.02653
0.913366
1.13812
0.828887
1.03781
1.09231
1.05908
1.01989
1.0139
1.08972
1.13261
0.928547
1.08729
0.96001
0.849937
0.920006
0.767466
1.0332
1.01971
1.13445
0.978027
0.874839
1.09043
0.95978
1.01644
0.967948
0.91967
0.929587
0.931236
1.05876
1.02689
0.931055
0.928598
1.09099
1.07161
0.838306
0.970521
0.954795
1.02767
0.931642
1.00891
1.0184
1.05901
0.929731
1.11467
0.863681
0.935876
1.00339
1.03272
0.93693
0.877099
0.837897
1.0327
1.01125
0.977732
0.933999
0.930741
0.92093
0.915926
0.832377
0.862237
0.997198
0.86616
0.831952
1.1366
0.879582
1.09372
1.08842
1.00065
0.948773
1.00379
0.86508
1.10416
1.13115
0.868031
0.97671
1.10504
0.990453
1.09434
0.946238
0.880223
1.08961
1.15249
1.09358
0.947051
1.09025
0.923637
0.976763
1.1297
0.998714
0.90707
0.945241
1.07141
1.01374
1.10458
1.01928
0.942762
1.19218
0.955317
0.941573
1.02055
0.953398
0.863935
0.855073
1.04939
0.982603
0.992256
0.954463
0.953302
0.950492
1.03432
0.862525
1.02331
0.852608
1.10468
1.02367
1.10115
1.10817
0.965201
0.961519
0.958334
1.0222
0.944309
0.847009
1.13008
0.967821
1.00932
0.947365
0.933083
0.879827
0.984104
0.955854
0.850531
1.08201
0.861247
0.95767
1.09521
1.13726
1.08183
0.960517
0.851015
0.988715
0.8506
0.930655
1.11024
0.965932
0.97677
0.952053
0.968256
0.823244
1.09306
1.10926
1.03346
0.963328
0.961167
0.814354
0.951241
1.09184
1.08891
0.876381
0.966055
0.961161
0.972896
0.952599
0.947791
0.948452
0.947928
1.17445
0.96311
0.948135
0.977027
1.09112
0.949171
0.974402
0.997524
1.09799
0.974422
1.13612
1.05082
0.983085
0.874157
1.06333
0.947035
0.931163
0.891393
0.945101
0.95464
1.0411
1.13614
0.954505
0.934452
1.0101
0.994021
0.972444
1.0937
0.955529
0.972556
0.939398
0.931829
0.96162
1.09262
1.07528
0.955488
1.14944
1.09423
1.04237
0.844952
0.934589
1.05239
0.890877
0.946713
0.934515
0.866589
1.04249
1.06495
0.923057
0.980809
1.03878
1.08644
0.974096
0.951275
0.942032
0.927708
1.04253
0.972627
1.08709
0.983779
1.07694
0.957206
0.969099
0.987235
1.09695
0.979432
0.934641
0.953905
0.920405
1.08993
0.98199
0.849361
1.10317
1.15303
0.929881
0.915806
0.96031
1.08588
1.08891
0.903854
1.08349
0.92157
0.991427
0.907445
1.08764
1.0896
0.958245
0.917376
1.08433
0.989742
1.08568
0.904699
0.985415
0.846349
1.08408
0.908976
1.08914
0.892186
1.0017
1.10919
0.977503
0.996362
0.905627
0.89376
1.09561
1.08765
1.08651
0.968842
0.99447
0.902962
0.893981
0.992647
0.879917
0.996365
0.973759
0.851104
1.02486
1.11022
1.07417
0.96162
0.984684
0.85188
1.07456
0.965126
1.02748
1.09304
0.895287
0.871807
0.989445
0.87213
1.00343
1.11925
0.87663
0.995199
1.0094
0.899977
0.88153
0.91971
0.927629
0.964097
0.931064
0.973271
1.12369
1.15721
1.00163
0.964981
0.864221
1.07052
0.945847
0.928414
0.966421
0.944175
1.106
0.878125
1.00331
0.927238
0.971975
1.03763
1.10812
0.945829
0.863349
0.993292
1.00866
0.866719
1.08434
1.13643
1.00144
0.843225
0.924733
1.12723
0.97389
1.12069
1.07171
0.975586
1.00706
1
0.863925
1.05557
0.992146
1.1133
0.880355
0.997264
1.0089
0.854143
1.08293
0.849775
0.973783
0.960114
0.979018
1.04694
1.06695
0.984553
1.08256
1.01512
0.938098
0.968446
1.08093
1.1229
0.861762
1.0239
0.862365
1.04502
0.983408
1.00687
1.01374
1.12017
1.01085
0.935662
1.12385
0.968908
0.847785
0.796696
0.86137
0.976022
1.0827
0.975502
1.09041
1.01515
0.932635
1.06142
1.08197
0.964582
0.993033
0.994994
0.956947
0.783355
1.06208
1.0937
0.954837
1.06498
0.994605
0.886383
1.08569
1.0118
1.01402
0.952551
1.02388
1.08132
0.9927
1.10238
1.02273
1.1353
1.11977
0.961903
1.12193
1.02153
0.935862
1.08112
1.14393
1.00061
0.959469
0.960781
1.09028
0.933078
1.09195
0.977874
1.04735
1.07567
1.0197
1.10149
1.0923
0.954413
0.998754
0.962381
1.00911
1.06863
0.963566
0.979882
1.18862
1.04646
0.971758
1.06873
0.960498
0.975087
1.0327
0.961581
1.0823
1.09299
0.960705
0.990015
1.09337
1.09114
1.00982
1.00706
1.00512
1.02715
0.772955
1.03157
0.930136
0.948729
0.881623
0.840507
0.840138
1.09445
1.00548
0.877166
0.957334
0.894032
1.10636
1.08204
1.02544
0.944223
1.10029
1.10341
0.850411
1.10559
1.03861
0.965674
0.979958
1.08233
1.01374
1.03687
0.977373
0.956304
0.972908
1.0931
1.033
0.96377
1.10762
0.767899
1.01227
0.976886
0.995248
0.951981
0.973832
0.979802
0.78771
0.779729
1.09914
0.791636
1.03132
1.0564
1.07481
0.954805
1.0725
1.03127
0.834042
1.07965
1.0725
1.07195
0.990332
0.968299
0.963667
0.985983
1.02064
1.01298
0.784873
1.08724
0.977233
0.812018
1.07183
1.00682
0.948058
1.04667
1.08656
1.08417
1.09028
0.939565
0.984627
1.01835
1.03105
0.988623
0.975727
1.04541
0.852703
1.07419
0.973856
1.08103
0.946246
0.947273
0.960559
1.08532
1.09199
0.785292
1.08843
0.954515
0.853833
0.9829
0.889479
0.871388
0.91943
0.923914
1
0.945204
1.073
0.999983
0.997055
1.02595
0.873707
1.07345
0.959414
0.95351
0.996282
1.15202
0.953326
0.986657
0.947801
1.08926
0.958524
1.02418
0.957316
0.870193
0.994755
0.85876
0.977139
0.865105
1.07321
0.947972
0.99838
0.992236
1.0545
0.975937
0.954533
0.842137
0.958238
1
1.07897
0.979009
0.965967
1.05347
0.958654
1.07296
1.07437
0.961627
1
1.07455
0.98511
1.027
0.823046
0.955422
0.989941
0.97408
0.966211
1.03316
1.06857
1.07303
0.959528
0.860013
0.869905
0.854469
0.971589
1.0839
0.98647
0.77207
0.861864
0.963448
0.869748
0.769819
1.07361
1.02502
0.986688
0.984663
1.0318
0.839374
1.07382
1.07458
1.11072
0.98338
1.06439
0.981628
0.999316
0.960454
0.850794
1.20353
1.07435
0.876971
0.875165
1.06242
1.07449
0.866496
0.884164
1.02953
1.09326
0.874759
1.00947
0.961134
0.940027
0.823835
0.975779
1.0294
1.06866
1.026
0.982724
1.05197
1.00262
0.849132
0.975015
0.780304
0.876204
0.960936
0.984067
1.00185
0.890729
1.06246
1.00095
1.07837
0.975332
1.07388
1.05041
1.00054
0.789708
1.06154
0.861801
1.03923
1.0004
1.07319
1.02783
0.940728
1.0923
0.947888
1.00537
0.889456
0.998266
0.976745
1.09153
1.03001
1.03696
0.981927
0.989479
0.809257
0.949496
1.00834
0.975155
0.907067
0.915423
0.927094
0.960183
1.08557
0.783785
1.00249
0.851801
1.05722
0.987003
0.945932
1.01065
0.916444
0.97663
0.977472
0.996311
0.950643
0.878494
0.952835
1.03569
0.994064
1.05573
0.891299
0.90726
0.952998
0.926608
0.841315
1.1232
0.946691
0.932397
1.07739
0.97539
1.12281
0.867334
0.838465
1.07018
0.974664
0.998136
1.07901
0.934818
1.07845
0.914798
1.0163
0.905654
1.01523
1.06885
0.769156
1.09817
0.91461
1.15465
0.954179
1.07856
0.976471
1.0399
0.996661
0.982233
0.846621
0.972038
0.904109
0.844304
1
1.08625
0.9999
1.06247
0.863186
0.987099
1.04948
0.955351
1.06596
0.778962
1.04814
0.953961
1.07262
0.985176
1.04369
0.911152
0.979026
0.919661
1.06104
0.922647
1.12214
0.999927
1.12448
1.04611
0.996629
0.854364
1.18226
1.00655
0.985308
1.04183
1.07391
1.04884
1.15343
1.03804
0.972987
0.816437
0.920596
0.991194
0.986801
1.07199
1.0775
1.13036
0.941727
0.928726
1.04026
0.988262
1.03675
0.949662
0.857737
1.05044
1.0497
1.06735
0.945457
0.831864
1.04452
1.07616
0.994998
0.818009
0.770554
0.98643
0.940054
1.06554
1.06636
0.967472
0.971715
1.04302
0.977591
1.03207
0.981277
0.922062
0.778705
1.09049
1.01734
1.04198
1.07208
0.92437
0.860431
1.09119
0.942857
1.14854
0.93754
1.06687
0.940276
0.926796
1.06835
1.02203
1.01931
1.02906
0.965378
0.932354
1.00396
0.983318
1.05714
0.905807
0.964404
0.959203
1.01573
0.971367
0.951915
0.978038
1.09305
0.945775
0.945676
0.933832
1.07267
0.942724
0.987512
0.969035
1.05534
0.878444
0.993862
0.767379
0.993961
0.965688
1.0716
0.996
0.983742
1.07519
0.999567
0.880204
0.949753
0.962773
0.977278
1.05788
0.964097
0.940803
1.00022
0.981303
0.942637
1.01537
1.0056
0.983001
0.984242
1.07484
1.08981
0.943926
1.09461
0.945833
0.931815
1.00205
1.01271
1.11947
1.05928
0.927016
1.03138
0.962494
1.07753
0.957152
0.969854
0.961297
0.950192
1.08085
0.943812
0.976127
0.978813
1.11899
1.0203
0.934388
0.96953
0.981956
0.96301
1.03155
0.785435
1.01443
1.018
1.12438
1.07622
1.05648
1.03694
0.991922
0.950003
1.0094
0.949151
0.971308
0.94096
0.94004
0.93428
0.837783
0.963008
0.99721
1.02252
0.997601
0.952562
1.01229
0.96171
1.04003
0.932687
0.950622
0.967703
1.00446
1.07064
0.929589
0.973446
0.959865
1.0659
1.02419
0.950078
0.930575
0.934945
1.06427
1.01087
0.903817
0.978728
1.117
0.940523
0.877347
0.948557
0.813775
0.93192
1.07483
0.972614
0.950016
0.991107
0.961014