/*--------------------------------*- C++ -*----------------------------------*\
  =========                 |
  \\      /  F ield         | OpenFOAM: The Open Source CFD Toolbox
   \\    /   O peration     | Website:  https://openfoam.org
    \\  /    A nd           | Version:  12
     \\/     M anipulation  |
\*---------------------------------------------------------------------------*/
FoamFile
{
    format      ascii;
    class       surfaceScalarField;
    location    "4";
    object      phi;
}
// * * * * * * * * * * * * * * * * * * * * * * * * * * * * * * * * * * * * * //

dimensions      [1 0 -1 0 0 0 0];

internalField   nonuniform List<scalar> 
19404
(
-0.000121352
3.36487e-08
-0.000122344
1.83282e-07
-0.000122725
2.07486e-07
-0.000122806
1.65111e-07
-0.000122692
8.85408e-08
-0.000122312
1.27859e-07
-0.000121897
2.67625e-07
-0.000121642
2.82529e-07
-0.000121513
2.54762e-07
-0.000121459
1.7825e-07
-0.000122227
1.3998e-07
-0.000123544
1.77769e-07
-0.000124098
2.41681e-07
-0.000124225
2.02366e-07
-0.000124159
8.45736e-08
-0.000123961
3.23727e-08
-0.000123712
1.46565e-07
-0.000123497
2.40353e-07
-0.000123379
2.57654e-07
-0.000123322
2.02092e-07
-0.000124053
2.07909e-07
-0.000125387
2.90177e-07
-0.000125856
3.61192e-07
-0.000125857
3.06099e-07
-0.000125611
1.25648e-07
-0.000125338
1.70675e-08
-0.000125111
1.11183e-07
-0.000124954
1.25142e-07
-0.000124878
1.28045e-07
-0.000124859
8.61511e-08
-0.000125703
8.22756e-08
-0.000127386
2.54082e-07
-0.000127972
4.24127e-07
-0.0001279
3.88786e-07
-0.000127312
2.07038e-07
-0.000126737
1.07235e-07
-0.000126423
2.10636e-07
-0.000126303
2.25604e-07
-0.000126241
1.2494e-07
-0.000126282
5.18109e-08
-0.000127246
-1.63091e-08
-0.000129173
1.36226e-07
-0.000129881
2.93321e-07
-0.000129865
3.22559e-07
-0.000129222
1.47934e-07
-0.000128371
9.02394e-08
-0.000127907
2.72457e-07
-0.000127748
3.09195e-07
-0.000127723
2.30741e-07
-0.000127764
9.95408e-08
-0.000128885
-4.90023e-09
-0.000131063
1.13262e-07
-0.0001318
2.80418e-07
-0.000131729
2.75122e-07
-0.000130907
6.95767e-08
-0.00012978
-1.22049e-08
-0.000129183
2.15279e-07
-0.000128951
2.51265e-07
-0.000128909
2.22036e-07
-0.000128978
9.72223e-08
-0.000130482
6.83696e-08
-0.000132964
1.45327e-07
-0.000133726
3.09381e-07
-0.00013363
2.57172e-07
-0.000132323
-1.21486e-08
-0.000130759
-8.98966e-08
-0.000129985
7.63604e-08
-0.00012977
2.21256e-07
-0.000129773
1.76464e-07
-0.00012999
2.63867e-08
-0.000132197
2.50386e-08
-0.000134747
1.36741e-07
-0.000135491
2.63088e-07
-0.000135444
2.20547e-07
-0.000133596
3.99934e-08
-0.000131029
-4.49679e-08
-0.000130002
-1.07061e-08
-0.000129857
7.66764e-08
-0.000129925
-7.07321e-08
-0.000130621
-1.19104e-07
-0.000134109
-3.09374e-07
-0.000136786
3.17508e-07
-0.000137359
3.31502e-07
-0.000137137
3.15048e-07
-0.000134276
1.5724e-07
-0.000130257
-2.87404e-07
-0.000128239
-5.54798e-07
-0.00012806
1.67885e-07
-0.000128458
-1.42081e-07
-0.000132664
-4.13449e-07
-0.000136765
-4.77634e-07
-0.000138078
-5.5781e-08
-0.000138373
1.58201e-07
-0.00013739
-1.36268e-08
-0.000132612
-8.119e-09
-0.000127167
-9.94093e-08
-0.000122528
-2.84903e-06
-0.000117503
-1.3999e-05
1.07532e-05
-0.000129589
1.3056e-07
-0.000130347
3.60095e-07
-0.000130447
3.19684e-07
-0.000130366
2.52218e-07
-0.000130094
1.84e-07
-0.00012914
1.6527e-07
-0.000128448
2.28598e-07
-0.000128165
2.98395e-07
-0.000128049
3.10862e-07
-0.000128176
2.58631e-07
-0.000129508
3.27842e-07
-0.000130638
3.79977e-07
-0.00013089
3.59823e-07
-0.000130862
3.05947e-07
-0.000130689
1.84468e-07
-0.000129829
8.17866e-08
-0.000129039
7.28331e-08
-0.000128675
1.66682e-07
-0.000128529
2.51732e-07
-0.000128561
2.81903e-07
-0.000129521
3.19108e-07
-0.000130957
4.15819e-07
-0.000131396
5.00218e-07
-0.000131385
4.5434e-07
-0.000131224
2.9428e-07
-0.000130363
1.7234e-07
-0.000129565
7.68901e-08
-0.000129203
6.35036e-08
-0.000129076
1.30083e-07
-0.00012909
1.39835e-07
-0.000129932
1.82823e-07
-0.000131356
3.42917e-07
-0.000131902
4.83388e-07
-0.000131956
5.00417e-07
-0.000131806
3.92528e-07
-0.000130764
3.02253e-07
-0.000129935
2.27337e-07
-0.000129621
1.66121e-07
-0.000129532
1.47368e-07
-0.000129572
1.19543e-07
-0.000130508
7.96307e-08
-0.000132004
2.1675e-07
-0.000132587
3.43911e-07
-0.00013266
4.15989e-07
-0.000132461
3.23714e-07
-0.000131172
2.60623e-07
-0.000130253
2.61998e-07
-0.000129952
2.60554e-07
-0.000129893
2.43866e-07
-0.000129952
1.5345e-07
-0.000131032
9.01822e-08
-0.000132822
1.79514e-07
-0.000133443
3.16644e-07
-0.000133496
3.73691e-07
-0.000133155
2.64932e-07
-0.000131507
1.69634e-07
-0.000130521
1.87147e-07
-0.000130263
1.99814e-07
-0.000130207
2.14177e-07
-0.000130272
1.69452e-07
-0.000131569
1.242e-07
-0.00013377
1.63774e-07
-0.000134434
3.21346e-07
-0.000134479
3.71245e-07
-0.0001339
2.329e-07
-0.000131722
1.33934e-07
-0.000130635
7.15463e-08
-0.00013034
1.00944e-07
-0.000130282
1.24053e-07
-0.000130444
5.40529e-08
-0.000132561
2.05279e-08
-0.000135036
1.95032e-07
-0.000135645
3.46887e-07
-0.000135671
4.0801e-07
-0.000134666
3.24062e-07
-0.000131687
2.30178e-07
-0.000130271
-6.16239e-08
-0.000129993
-1.42128e-07
-0.00013006
-1.71496e-07
-0.00013082
-2.85007e-07
-0.00013417
-6.84696e-08
-0.000136331
2.61804e-07
-0.000136897
4.64306e-07
-0.000136992
5.19812e-07
-0.000135663
4.19069e-07
-0.00013094
-1.42948e-07
-0.000128517
-5.98956e-07
-0.000128179
-6.97377e-07
-0.000128389
-8.40453e-07
-0.000130936
-9.95905e-07
-0.000134286
-9.06445e-07
-0.000135613
-4.52638e-07
-0.000135832
-3.76021e-07
-0.000135224
-6.41828e-07
-0.000130214
-1.05451e-06
-0.000123599
-1.65149e-06
-0.000118892
-5.44802e-06
-0.000124908
-1.52728e-05
1.42813e-05
-0.0001292
1.52872e-07
-0.000129936
4.28072e-07
-0.000130012
4.17407e-07
-0.000129931
3.67676e-07
-0.00012962
3.25334e-07
-0.000128602
3.3233e-07
-0.000127919
3.36012e-07
-0.000127629
3.27446e-07
-0.000127508
3.06043e-07
-0.000127727
3.06826e-07
-0.000129135
3.57116e-07
-0.000130298
4.32087e-07
-0.000130542
4.09715e-07
-0.000130512
3.74514e-07
-0.000130312
2.81447e-07
-0.000129351
2.50261e-07
-0.000128441
2.69628e-07
-0.000128071
2.88347e-07
-0.00012794
2.98377e-07
-0.000127985
3.06078e-07
-0.000129049
3.43578e-07
-0.000130578
4.17091e-07
-0.000131041
4.75616e-07
-0.000131045
4.50869e-07
-0.000130927
3.89631e-07
-0.000130097
2.97329e-07
-0.00012915
2.39733e-07
-0.000128737
2.59282e-07
-0.000128559
2.62332e-07
-0.000128561
2.72879e-07
-0.000129334
2.9722e-07
-0.000130825
4.1058e-07
-0.000131452
4.76137e-07
-0.000131537
4.70975e-07
-0.000131432
4.26514e-07
-0.000130608
3.47954e-07
-0.000129728
2.50012e-07
-0.000129333
2.09115e-07
-0.000129183
2.23902e-07
-0.000129176
2.52638e-07
-0.000129911
2.37245e-07
-0.0001314
3.81373e-07
-0.000132044
4.67547e-07
-0.000132143
4.75534e-07
-0.000131997
4.15462e-07
-0.000130893
3.49772e-07
-0.000130034
2.51518e-07
-0.000129737
2.00206e-07
-0.000129623
1.96746e-07
-0.000129638
1.92989e-07
-0.000130491
2.0654e-07
-0.000132231
3.2723e-07
-0.000132924
4.51198e-07
-0.000132999
4.77718e-07
-0.000132734
4.26934e-07
-0.000131227
3.38336e-07
-0.000130203
1.9954e-07
-0.000129868
1.10991e-07
-0.000129801
1.22032e-07
-0.000129885
1.37799e-07
-0.000131054
1.79254e-07
-0.000133166
2.73966e-07
-0.000133929
4.30575e-07
-0.000134005
4.98023e-07
-0.00013361
4.31034e-07
-0.000131534
3.31501e-07
-0.00013013
9.56006e-08
-0.000129734
-4.26638e-08
-0.000129675
-3.49868e-08
-0.000129838
-3.16372e-08
-0.000131745
3.80592e-08
-0.000134212
2.4514e-07
-0.000134983
4.93244e-07
-0.000135095
5.93192e-07
-0.000134535
4.98061e-07
-0.000131643
3.20027e-07
-0.000129607
-9.89524e-08
-0.00012913
-3.08575e-07
-0.000129117
-3.55482e-07
-0.000129545
-4.16405e-07
-0.000132312
-3.09569e-07
-0.000134839
1.55383e-07
-0.000135755
5.13164e-07
-0.000135901
5.89375e-07
-0.000135381
5.32363e-07
-0.000130863
1.44958e-07
-0.000127465
-5.29953e-07
-0.000126925
-1.12387e-06
-0.000126976
-1.32873e-06
-0.000128146
-1.54944e-06
-0.000131407
-1.43382e-06
-0.000133338
-1.03424e-06
-0.000133974
-1.05273e-06
-0.00013394
-1.47163e-06
-0.000130146
-1.89144e-06
-0.000123584
-2.94471e-06
-0.000118732
-7.63786e-06
-0.000125933
-1.41156e-05
1.66727e-05
-0.000128475
1.24061e-07
-0.000129253
4.6906e-07
-0.00012935
5.09555e-07
-0.000129258
4.92966e-07
-0.000128915
4.82845e-07
-0.000127803
5.18954e-07
-0.000127041
4.95887e-07
-0.000126767
3.96925e-07
-0.000126664
3.0691e-07
-0.000126965
2.44127e-07
-0.000128551
3.22249e-07
-0.000129675
4.09971e-07
-0.00012993
4.60409e-07
-0.000129896
4.5953e-07
-0.000129709
4.58641e-07
-0.000128637
4.77627e-07
-0.000127496
5.41988e-07
-0.000127128
4.7021e-07
-0.000127005
3.64176e-07
-0.000127127
2.76058e-07
-0.000128377
2.84464e-07
-0.000129869
3.4627e-07
-0.000130357
4.12152e-07
-0.00013041
4.5597e-07
-0.000130299
4.63992e-07
-0.000129614
4.72827e-07
-0.000128345
4.96294e-07
-0.000127802
4.99937e-07
-0.000127647
4.43765e-07
-0.000127664
3.77258e-07
-0.000128504
3.42387e-07
-0.000130014
4.03832e-07
-0.000130677
4.34688e-07
-0.000130822
4.37021e-07
-0.000130777
4.07193e-07
-0.00013026
3.64061e-07
-0.0001291
3.49247e-07
-0.000128533
3.91968e-07
-0.000128334
3.70164e-07
-0.000128305
3.58597e-07
-0.000129019
3.78676e-07
-0.00013055
4.80359e-07
-0.000131232
5.50859e-07
-0.000131375
5.22284e-07
-0.00013133
4.45167e-07
-0.000130508
3.65236e-07
-0.000129397
2.62626e-07
-0.000128903
1.98505e-07
-0.000128711
2.0264e-07
-0.000128719
2.31374e-07
-0.000129521
2.86945e-07
-0.000131266
4.51094e-07
-0.000132027
5.73498e-07
-0.000132171
5.89162e-07
-0.00013209
5.30716e-07
-0.000130861
4.18292e-07
-0.00012946
2.12409e-07
-0.000128957
7.25965e-08
-0.000128794
4.12258e-08
-0.000128864
8.2087e-08
-0.000129915
1.62386e-07
-0.000131989
3.70195e-07
-0.000132902
5.81048e-07
-0.000133065
6.4024e-07
-0.000132992
5.87661e-07
-0.000131323
4.59712e-07
-0.000129298
1.62389e-07
-0.000128649
-1.06848e-07
-0.000128532
-1.69109e-07
-0.000128628
-1.83005e-07
-0.000130105
-8.90634e-08
-0.000132728
2.55072e-07
-0.000133787
6.08691e-07
-0.000133957
7.31648e-07
-0.000133902
6.67376e-07
-0.00013173
4.78948e-07
-0.000128696
-2.68218e-08
-0.000127726
-4.35851e-07
-0.000127631
-5.97396e-07
-0.000127778
-6.74071e-07
-0.000129692
-6.43105e-07
-0.000132705
-1.90771e-07
-0.000133904
3.33532e-07
-0.000134178
5.94172e-07
-0.000134104
5.83845e-07
-0.000131349
4.7722e-07
-0.000126815
-3.71815e-07
-0.000125179
-1.30587e-06
-0.000125157
-1.94087e-06
-0.000125492
-2.18526e-06
-0.000127633
-2.25813e-06
-0.000129686
-1.96347e-06
-0.000130464
-2.00976e-06
-0.000130666
-2.53968e-06
-0.000129129
-2.81464e-06
-0.000124688
-3.63109e-06
-0.000120577
-7.72647e-06
-0.000126077
-1.28636e-05
1.81788e-05
-0.000127502
1.24174e-07
-0.000128319
5.08667e-07
-0.000128427
5.89692e-07
-0.00012835
6.31567e-07
-0.000128066
6.43449e-07
-0.000127123
6.41528e-07
-0.000126313
5.91083e-07
-0.000126024
4.64268e-07
-0.000125908
3.53826e-07
-0.000126174
2.21668e-07
-0.000127658
2.5273e-07
-0.000128713
4.23456e-07
-0.000128955
5.16504e-07
-0.00012894
5.98064e-07
-0.000128728
6.34803e-07
-0.000127877
6.63144e-07
-0.000126797
6.44053e-07
-0.000126426
5.69457e-07
-0.000126316
4.4883e-07
-0.000126405
3.0923e-07
-0.000127589
2.6855e-07
-0.000128811
3.69036e-07
-0.000129259
4.68052e-07
-0.000129351
5.46582e-07
-0.00012927
5.78415e-07
-0.000128729
5.78111e-07
-0.000127541
5.81573e-07
-0.000126997
5.66091e-07
-0.000126853
5.05754e-07
-0.000126852
4.02378e-07
-0.000127814
3.75963e-07
-0.000129193
4.30873e-07
-0.000129739
4.62543e-07
-0.000129881
4.88852e-07
-0.000129859
4.71323e-07
-0.00012941
4.56669e-07
-0.000128123
4.81081e-07
-0.000127474
4.68344e-07
-0.000127295
4.39145e-07
-0.000127292
3.97559e-07
-0.000128089
4.04053e-07
-0.000129677
5.26255e-07
-0.000130357
5.88611e-07
-0.00013051
5.71689e-07
-0.000130519
5.31288e-07
-0.000129943
4.23868e-07
-0.000128494
3.55157e-07
-0.0001278
2.85768e-07
-0.000127592
2.42729e-07
-0.000127592
2.59026e-07
-0.000128361
3.10052e-07
-0.000130142
4.92854e-07
-0.000131014
6.53863e-07
-0.000131259
7.05099e-07
-0.000131257
6.08606e-07
-0.000130561
5.03927e-07
-0.000128715
2.91431e-07
-0.00012784
5.95642e-08
-0.000127623
2.22063e-08
-0.000127642
3.62518e-08
-0.000128533
8.97032e-08
-0.000130682
3.59452e-07
-0.000131722
6.67244e-07
-0.000131985
7.94099e-07
-0.000132018
7.21342e-07
-0.000131184
5.57299e-07
-0.000128727
2.81445e-07
-0.000127487
-1.02378e-07
-0.000127237
-2.37463e-07
-0.000127268
-3.04083e-07
-0.000128143
-2.99083e-07
-0.000130868
4.49346e-08
-0.000132385
5.94436e-07
-0.000132702
8.47559e-07
-0.000132758
8.37244e-07
-0.000131755
6.57959e-07
-0.000128385
2.28498e-07
-0.000126487
-4.40838e-07
-0.000126191
-8.17581e-07
-0.000126237
-9.36579e-07
-0.000127041
-1.01594e-06
-0.000130003
-7.39574e-07
-0.000132068
-7.89236e-09
-0.000132639
4.30887e-07
-0.000132783
5.55768e-07
-0.000131939
5.16289e-07
-0.000127551
8.95497e-08
-0.000124239
-1.33945e-06
-0.0001237
-2.09519e-06
-0.000123776
-2.68661e-06
-0.000125193
-2.9829e-06
-0.000127477
-2.8529e-06
-0.000128646
-2.83237e-06
-0.000129108
-3.3758e-06
-0.000129012
-4.03354e-06
-0.000126673
-4.52792e-06
-0.000122731
-7.27003e-06
-0.000125782
-1.18007e-05
1.94385e-05
-0.000126431
1.73573e-07
-0.000127303
5.36165e-07
-0.000127495
6.36336e-07
-0.000127459
7.15866e-07
-0.000127278
7.24857e-07
-0.000126695
7.07028e-07
-0.000125892
6.39272e-07
-0.000125541
5.26688e-07
-0.000125398
4.30199e-07
-0.000125513
3.04055e-07
-0.000126682
3.00107e-07
-0.000127572
4.58841e-07
-0.000127869
5.95436e-07
-0.000127883
6.78047e-07
-0.000127755
7.09546e-07
-0.000127274
6.90393e-07
-0.000126423
6.6416e-07
-0.00012598
5.90356e-07
-0.000125822
5.06473e-07
-0.000125843
4.25931e-07
-0.000126844
4.06974e-07
-0.000127818
5.55439e-07
-0.000128173
6.24941e-07
-0.000128259
6.43217e-07
-0.000128212
6.33607e-07
-0.000127848
5.76116e-07
-0.000126863
5.27031e-07
-0.000126328
4.96252e-07
-0.000126166
4.82591e-07
-0.000126183
4.13021e-07
-0.000127215
4.17313e-07
-0.000128472
5.59211e-07
-0.000128916
6.54743e-07
-0.000129006
6.44584e-07
-0.000128983
6.3102e-07
-0.000128518
5.64672e-07
-0.000127196
5.33385e-07
-0.000126531
4.41921e-07
-0.000126365
4.0791e-07
-0.000126379
3.40739e-07
-0.000127296
3.4346e-07
-0.000128957
5.46608e-07
-0.000129659
6.9523e-07
-0.000129813
7.09706e-07
-0.000129798
6.72751e-07
-0.000129406
6.01907e-07
-0.000127752
5.17282e-07
-0.000126718
3.69005e-07
-0.000126482
2.82342e-07
-0.000126473
2.27007e-07
-0.000127207
2.21102e-07
-0.000129198
4.44403e-07
-0.000130238
6.94347e-07
-0.000130468
7.66559e-07
-0.000130515
7.14587e-07
-0.000130241
6.02857e-07
-0.000128366
4.55925e-07
-0.000126846
2.04252e-07
-0.000126466
6.52171e-08
-0.000126437
3.02225e-08
-0.000126989
-2.97073e-08
-0.000129283
1.93764e-07
-0.000130785
6.6433e-07
-0.000131135
8.97762e-07
-0.000131179
8.32034e-07
-0.000130944
6.66105e-07
-0.000128755
4.45611e-07
-0.000126707
-4.0028e-08
-0.000126113
-2.69373e-07
-0.000126072
-3.65419e-07
-0.000126357
-4.63425e-07
-0.000128713
-3.03141e-07
-0.000131126
3.34382e-07
-0.000131825
8.50998e-07
-0.000131915
9.62281e-07
-0.000131675
8.53728e-07
-0.000129004
6.44494e-07
-0.000126126
-2.3098e-07
-0.000125129
-8.28848e-07
-0.000125078
-1.14065e-06
-0.000125261
-1.2298e-06
-0.000127249
-1.24242e-06
-0.000130107
-6.66756e-07
-0.000131343
2.95076e-08
-0.000131662
3.37466e-07
-0.000131693
3.85361e-07
-0.000129519
3.25511e-07
-0.000125017
-5.94899e-07
-0.000122855
-2.13639e-06
-0.000122793
-2.82461e-06
-0.000123205
-3.56721e-06
-0.000125241
-3.69649e-06
-0.000126898
-3.5846e-06
-0.000127743
-3.97728e-06
-0.000128081
-4.87539e-06
-0.000127597
-5.52142e-06
-0.000125227
-6.92831e-06
-0.000125595
-1.02935e-05
2.06697e-05
-0.000125627
2.98548e-07
-0.000126454
6.12057e-07
-0.000126741
6.80311e-07
-0.000126781
7.16669e-07
-0.000126694
7.1239e-07
-0.000126401
6.68565e-07
-0.000125718
6.40332e-07
-0.000125323
5.99574e-07
-0.00012515
5.16505e-07
-0.000125186
4.41134e-07
-0.000126061
4.62981e-07
-0.000126786
6.22142e-07
-0.000127072
7.03634e-07
-0.000127157
7.20864e-07
-0.000127108
6.98684e-07
-0.000126889
6.37142e-07
-0.000126158
6.1262e-07
-0.00012564
5.96316e-07
-0.000125443
5.70128e-07
-0.000125422
5.27461e-07
-0.000126291
5.73414e-07
-0.000127184
7.17462e-07
-0.000127554
8.06813e-07
-0.000127689
7.57269e-07
-0.000127679
6.69655e-07
-0.000127464
5.66649e-07
-0.000126464
5.02105e-07
-0.00012584
4.6291e-07
-0.000125617
4.3954e-07
-0.000125601
4.26312e-07
-0.000126515
4.60174e-07
-0.000127821
6.97542e-07
-0.000128267
8.59686e-07
-0.000128408
8.75864e-07
-0.000128383
7.90853e-07
-0.000128113
6.78465e-07
-0.000126827
5.61014e-07
-0.000125949
4.5473e-07
-0.000125712
3.31255e-07
-0.00012569
2.79233e-07
-0.000126465
2.50134e-07
-0.000128234
5.17072e-07
-0.000129001
8.0533e-07
-0.000129204
9.18341e-07
-0.000129219
8.85565e-07
-0.000129015
8.0286e-07
-0.000127562
6.97787e-07
-0.000126094
3.99744e-07
-0.000125698
2.68642e-07
-0.000125678
1.73243e-07
-0.000126163
9.46041e-08
-0.000128254
2.58314e-07
-0.000129598
6.71337e-07
-0.000129923
8.83276e-07
-0.000129979
8.84204e-07
-0.000129853
7.8307e-07
-0.000128388
7.00685e-07
-0.000126369
3.48329e-07
-0.000125624
1.42191e-07
-0.00012558
-8.0889e-09
-0.000125751
-9.82788e-08
-0.000127663
-6.88476e-08
-0.000129979
4.49451e-07
-0.00013067
9.19318e-07
-0.000130752
9.50789e-07
-0.000130685
8.46608e-07
-0.00012913
7.00601e-07
-0.000126573
2.62502e-07
-0.000125422
-2.39665e-07
-0.000125193
-4.52307e-07
-0.000125277
-5.25148e-07
-0.000126447
-5.92331e-07
-0.000129564
-1.74778e-07
-0.000131126
6.33228e-07
-0.000131422
9.95737e-07
-0.000131463
9.95543e-07
-0.000130264
8.93791e-07
-0.000126785
3.81675e-07
-0.00012477
-6.679e-07
-0.000124326
-1.12835e-06
-0.000124376
-1.3851e-06
-0.000125068
-1.5338e-06
-0.000127894
-1.35925e-06
-0.000130082
-5.9255e-07
-0.000130891
-2.69194e-08
-0.000131103
1.76239e-07
-0.00013083
2.81367e-07
-0.000127511
-1.54024e-07
-0.000123741
-1.41954e-06
-0.00012238
-2.95507e-06
-0.00012246
-3.62174e-06
-0.000123428
-4.30984e-06
-0.00012568
-4.36535e-06
-0.000126992
-4.48384e-06
-0.000127468
-5.31424e-06
-0.000127529
-6.23535e-06
-0.00012657
-7.06042e-06
-0.000125449
-8.68011e-06
2.20556e-05
-0.000125297
4.59762e-07
-0.000126048
7.50685e-07
-0.000126319
7.74173e-07
-0.000126392
7.65957e-07
-0.000126328
7.1364e-07
-0.00012616
6.52622e-07
-0.000125568
6.12449e-07
-0.000125087
6.16055e-07
-0.000124886
5.80832e-07
-0.000124862
5.26774e-07
-0.000125665
5.75839e-07
-0.000126434
7.75142e-07
-0.000126735
8.37837e-07
-0.000126831
8.25072e-07
-0.000126785
7.3786e-07
-0.000126616
6.51431e-07
-0.000125839
6.28733e-07
-0.000125223
6.58284e-07
-0.00012499
6.22473e-07
-0.000124941
5.73261e-07
-0.00012575
5.84971e-07
-0.000127011
8.0913e-07
-0.000127425
9.51277e-07
-0.000127542
8.72253e-07
-0.00012751
7.42179e-07
-0.000127329
6.44723e-07
-0.000126286
5.99011e-07
-0.000125436
5.61577e-07
-0.000125134
4.93411e-07
-0.000125052
4.61207e-07
-0.000125618
4.5566e-07
-0.000127276
6.86731e-07
-0.000128038
9.80865e-07
-0.000128178
1.02782e-06
-0.00012818
9.32144e-07
-0.000128037
7.89888e-07
-0.000126904
6.64587e-07
-0.000125736
4.47126e-07
-0.000125306
3.28394e-07
-0.000125204
2.86787e-07
-0.000125477
2.65561e-07
-0.000127285
4.64329e-07
-0.000128506
8.4837e-07
-0.000128802
1.04467e-06
-0.000128852
1.03377e-06
-0.000128799
9.38895e-07
-0.000127701
7.77623e-07
-0.000126038
5.3529e-07
-0.000125397
2.72788e-07
-0.000125281
1.29972e-07
-0.000125374
5.30602e-08
-0.000126973
9.9847e-08
-0.000128945
6.03997e-07
-0.00012951
9.99551e-07
-0.000129599
1.08708e-06
-0.000129585
1.02843e-06
-0.000128605
8.6969e-07
-0.000126426
5.5904e-07
-0.000125365
1.79586e-07
-0.000125125
-1.01336e-07
-0.00012514
-1.92032e-07
-0.000125988
-2.48417e-07
-0.000128789
7.23692e-08
-0.000130248
8.13235e-07
-0.000130507
1.09288e-06
-0.000130545
1.11754e-06
-0.000129789
9.91084e-07
-0.000127055
6.63769e-07
-0.000125272
-5.63412e-08
-0.000124745
-4.50929e-07
-0.000124717
-6.7388e-07
-0.000124931
-7.30864e-07
-0.000127295
-6.6857e-07
-0.000130084
7.51717e-08
-0.000131012
8.54402e-07
-0.000131158
1.05837e-06
-0.000131063
1.00856e-06
-0.000128594
8.55481e-07
-0.00012528
2.4067e-08
-0.000124055
-1.01937e-06
-0.000123934
-1.3998e-06
-0.00012404
-1.69647e-06
-0.000125534
-1.79451e-06
-0.00012831
-1.35977e-06
-0.000129805
-5.8481e-07
-0.000130369
-2.05307e-07
-0.000130526
-9.47855e-08
-0.000129876
-8.17791e-08
-0.00012616
-8.01547e-07
-0.000123012
-2.23019e-06
-0.000122157
-3.72799e-06
-0.000122297
-4.56146e-06
-0.000123815
-5.10703e-06
-0.000125915
-5.18738e-06
-0.000127055
-5.65237e-06
-0.000127364
-6.60017e-06
-0.000127413
-7.14713e-06
-0.000125521
-6.94189e-06
2.32599e-05
-0.000125167
5.40229e-07
-0.000125979
8.61464e-07
-0.00012624
9.35883e-07
-0.000126279
8.53713e-07
-0.000126219
7.72167e-07
-0.000126046
6.85355e-07
-0.000125419
6.37349e-07
-0.000124839
6.42205e-07
-0.000124587
6.19367e-07
-0.000124509
5.66589e-07
-0.000125273
5.78093e-07
-0.000126377
8.13249e-07
-0.000126694
1.00393e-06
-0.000126741
9.40026e-07
-0.000126689
8.43824e-07
-0.000126469
7.86002e-07
-0.000125571
7.84087e-07
-0.000124857
7.32204e-07
-0.000124594
6.4034e-07
-0.000124513
5.49492e-07
-0.000125147
4.84431e-07
-0.00012686
7.14215e-07
-0.000127529
9.57216e-07
-0.00012755
1.01171e-06
-0.000127503
9.63397e-07
-0.000127242
8.76932e-07
-0.00012618
8.00244e-07
-0.000125112
7.03105e-07
-0.00012471
6.15731e-07
-0.000124585
4.95194e-07
-0.000124823
4.29014e-07
-0.000126575
5.19292e-07
-0.000127866
9.18313e-07
-0.000128151
1.05285e-06
-0.000128158
1.03338e-06
-0.000128082
9.34973e-07
-0.00012718
8.2617e-07
-0.000125712
6.2099e-07
-0.000124959
4.43687e-07
-0.000124724
4.2805e-07
-0.000124739
3.64813e-07
-0.000126059
3.73912e-07
-0.000127999
7.22108e-07
-0.00012863
1.07035e-06
-0.000128741
1.11226e-06
-0.000128713
9.96815e-07
-0.00012811
8.73812e-07
-0.0001263
6.52749e-07
-0.000125302
3.32543e-07
-0.000124951
1.92203e-07
-0.000124909
1.421e-07
-0.000125521
1.10815e-07
-0.000127928
3.80411e-07
-0.000129199
9.78299e-07
-0.00012943
1.174e-06
-0.000129455
1.15183e-06
-0.000129068
1.01395e-06
-0.000127002
7.51094e-07
-0.000125482
2.45837e-07
-0.000124952
-9.76703e-08
-0.000124829
-2.28327e-07
-0.000124954
-2.79019e-07
-0.000126891
-2.2302e-07
-0.000129468
4.61053e-07
-0.000130249
1.15294e-06
-0.000130333
1.2626e-06
-0.000130237
1.22833e-06
-0.000128419
1.04674e-06
-0.000125701
3.39335e-07
-0.000124616
-3.76341e-07
-0.00012438
-6.78489e-07
-0.000124409
-8.45687e-07
-0.000125176
-9.14004e-07
-0.000128312
-6.24953e-07
-0.000130354
3.85019e-07
-0.000130879
9.85748e-07
-0.000130975
1.08757e-06
-0.000130433
1.01142e-06
-0.000127192
7.04158e-07
-0.000124536
-4.5345e-07
-0.000123707
-1.37588e-06
-0.000123687
-1.71573e-06
-0.00012397
-1.93004e-06
-0.000126165
-1.98161e-06
-0.000128552
-1.34755e-06
-0.000129665
-7.10008e-07
-0.000130084
-4.66467e-07
-0.000130179
-4.51793e-07
-0.000128967
-6.23949e-07
-0.00012514
-1.51525e-06
-0.000122507
-3.20125e-06
-0.000121959
-4.57925e-06
-0.000122253
-5.49996e-06
-0.000124262
-6.0211e-06
-0.00012624
-6.23842e-06
-0.000127227
-6.9409e-06
-0.000127781
-7.49889e-06
-0.00012569
-5.23277e-06
2.41035e-05
-0.000124855
5.3992e-07
-0.000126105
8.78595e-07
-0.00012635
1.12859e-06
-0.000126352
1.0106e-06
-0.000126267
9.00454e-07
-0.000126054
7.80276e-07
-0.000125348
7.20094e-07
-0.00012464
6.72444e-07
-0.000124313
6.34095e-07
-0.000124191
5.81526e-07
-0.000124665
5.33293e-07
-0.000126279
7.63342e-07
-0.000126886
1.03201e-06
-0.000126888
1.15177e-06
-0.000126791
1.1051e-06
-0.000126467
1.01676e-06
-0.000125501
8.81535e-07
-0.000124738
7.7717e-07
-0.000124457
6.51239e-07
-0.000124345
5.23557e-07
-0.000124623
4.03017e-07
-0.000126358
5.0401e-07
-0.0001274
9.047e-07
-0.00012757
1.0924e-06
-0.000127508
1.15732e-06
-0.000127272
1.16514e-06
-0.00012625
1.07272e-06
-0.000125023
8.34096e-07
-0.000124559
6.76806e-07
-0.00012444
5.32499e-07
-0.000124465
4.00712e-07
-0.000125805
3.61942e-07
-0.000127546
7.03457e-07
-0.000128067
1.04049e-06
-0.000128112
1.08944e-06
-0.00012806
1.09777e-06
-0.000127506
1.03322e-06
-0.000125747
9.32365e-07
-0.000124739
6.331e-07
-0.000124461
5.21591e-07
-0.000124429
3.99438e-07
-0.000125057
2.66695e-07
-0.000127342
5.0732e-07
-0.000128495
9.76684e-07
-0.000128709
1.10163e-06
-0.000128729
1.10376e-06
-0.000128497
9.85345e-07
-0.00012687
9.04597e-07
-0.00012529
5.59907e-07
-0.00012463
3.19936e-07
-0.000124476
2.28379e-07
-0.000124567
1.25082e-07
-0.000126441
1.26339e-07
-0.000128773
6.67546e-07
-0.000129438
1.19689e-06
-0.000129506
1.2296e-06
-0.000129449
1.1307e-06
-0.000128112
9.91748e-07
-0.000125888
5.38641e-07
-0.000124829
-3.24484e-09
-0.000124426
-1.41589e-07
-0.000124393
-2.46382e-07
-0.000124978
-2.98011e-07
-0.000127952
-4.10778e-08
-0.000129882
8.41949e-07
-0.000130314
1.31259e-06
-0.000130383
1.30266e-06
-0.000129896
1.26825e-06
-0.000127051
9.3583e-07
-0.00012491
1.8556e-08
-0.000124239
-6.51462e-07
-0.000124088
-8.94491e-07
-0.000124173
-9.81176e-07
-0.000125733
-1.01324e-06
-0.000128941
-4.22792e-07
-0.000130343
5.81117e-07
-0.000130643
1.01971e-06
-0.000130718
1.02957e-06
-0.000129705
7.97452e-07
-0.000126089
4.53364e-07
-0.000123928
-8.20983e-07
-0.000123435
-1.6668e-06
-0.000123506
-2.01205e-06
-0.000124151
-2.21302e-06
-0.000126624
-2.11102e-06
-0.00012848
-1.43081e-06
-0.0001293
-9.49629e-07
-0.000129618
-8.77139e-07
-0.000129628
-9.00348e-07
-0.000128089
-1.39143e-06
-0.000124364
-2.33301e-06
-0.000122113
-4.18663e-06
-0.000121773
-5.56014e-06
-0.00012233
-6.46252e-06
-0.0001247
-7.00213e-06
-0.000126468
-7.54154e-06
-0.00012762
-7.99607e-06
-0.000125912
-3.52591e-06
2.45437e-05
-0.000124295
5.19773e-07
-0.000126038
7.87067e-07
-0.000126626
1.08362e-06
-0.000126599
1.22155e-06
-0.000126476
1.09071e-06
-0.00012624
9.66581e-07
-0.000125411
8.36231e-07
-0.00012457
6.97464e-07
-0.000124174
6.47346e-07
-0.000124015
5.97116e-07
-0.000124149
5.35149e-07
-0.000125702
6.54656e-07
-0.000126745
1.02593e-06
-0.000126911
1.23698e-06
-0.000126852
1.2871e-06
-0.000126641
1.21688e-06
-0.000125731
1.06463e-06
-0.000124799
8.1268e-07
-0.00012446
6.40159e-07
-0.000124338
5.05807e-07
-0.000124326
3.85913e-07
-0.000125517
4.5761e-07
-0.000126923
8.53359e-07
-0.000127313
1.18912e-06
-0.000127343
1.29996e-06
-0.000127248
1.28648e-06
-0.000126615
1.19606e-06
-0.000125229
9.91463e-07
-0.0001246
7.11724e-07
-0.000124442
5.54185e-07
-0.00012439
4.14414e-07
-0.000125056
3.39588e-07
-0.000126991
5.76531e-07
-0.000127838
1.02015e-06
-0.00012799
1.21517e-06
-0.00012794
1.25513e-06
-0.00012761
1.22716e-06
-0.000126012
1.09677e-06
-0.000124768
8.28163e-07
-0.00012448
5.80754e-07
-0.000124431
4.11609e-07
-0.00012459
2.51503e-07
-0.000126435
2.63587e-07
-0.000128267
7.97084e-07
-0.000128704
1.15743e-06
-0.000128739
1.24359e-06
-0.000128636
1.23122e-06
-0.000127429
1.19041e-06
-0.000125355
8.51167e-07
-0.000124518
4.36542e-07
-0.000124304
2.5697e-07
-0.000124307
8.97375e-08
-0.000125098
-8.16699e-08
-0.000127945
2.24783e-07
-0.000129394
1.04799e-06
-0.00012962
1.30061e-06
-0.00012964
1.2897e-06
-0.000129092
1.27467e-06
-0.00012664
1.06021e-06
-0.000124809
3.48904e-07
-0.000124196
-9.71943e-08
-0.000124066
-2.38013e-07
-0.000124134
-3.78973e-07
-0.000125844
-4.44471e-07
-0.000129014
1.46052e-07
-0.000130203
1.10572e-06
-0.000130386
1.36652e-06
-0.000130382
1.3044e-06
-0.000129129
1.32255e-06
-0.000125948
7.70111e-07
-0.00012435
-2.43314e-07
-0.000123839
-8.05618e-07
-0.000123818
-9.55315e-07
-0.000124066
-1.09991e-06
-0.000126609
-1.07433e-06
-0.000129451
-2.52466e-07
-0.000130401
6.6002e-07
-0.000130546
9.17227e-07
-0.000130502
9.16516e-07
-0.000128733
7.73039e-07
-0.000125247
7.09234e-08
-0.000123586
-1.22772e-06
-0.000123251
-1.96661e-06
-0.000123323
-2.28781e-06
-0.000124435
-2.49461e-06
-0.000126932
-2.25576e-06
-0.00012843
-1.59154e-06
-0.000129099
-1.3155e-06
-0.000129301
-1.35099e-06
-0.000129206
-1.37765e-06
-0.000127379
-2.03078e-06
-0.000123846
-3.17647e-06
-0.000121773
-5.23237e-06
-0.000121675
-6.5368e-06
-0.000122667
-7.43171e-06
-0.000125121
-8.25862e-06
-0.000126815
-8.67188e-06
-0.000126227
-1.7476e-06
2.46554e-05
-0.00012387
5.32375e-07
-0.000125485
6.61304e-07
-0.000126662
1.04039e-06
-0.000126843
1.17822e-06
-0.000126759
1.21282e-06
-0.000126561
1.15711e-06
-0.000125711
1.02566e-06
-0.000124646
8.11254e-07
-0.000124133
6.68933e-07
-0.000123894
6.17726e-07
-0.000123839
6.00835e-07
-0.00012488
6.39822e-07
-0.000126356
9.89143e-07
-0.000126823
1.26509e-06
-0.000126863
1.30444e-06
-0.000126776
1.26098e-06
-0.000126306
1.16976e-06
-0.000125237
9.46069e-07
-0.000124657
6.77985e-07
-0.000124337
5.16823e-07
-0.00012421
5.59259e-07
-0.000124521
5.49227e-07
-0.00012617
7.96428e-07
-0.000127038
1.18272e-06
-0.000127244
1.31558e-06
-0.000127227
1.28567e-06
-0.000127037
1.22618e-06
-0.000125853
1.0775e-06
-0.000124913
7.79341e-07
-0.000124572
5.80515e-07
-0.000124419
4.75488e-07
-0.000124478
4.71243e-07
-0.000125998
5.59607e-07
-0.000127424
9.90027e-07
-0.000127776
1.3038e-06
-0.000127829
1.38741e-06
-0.000127719
1.31386e-06
-0.000126685
1.21243e-06
-0.000125162
9.06529e-07
-0.000124652
5.69161e-07
-0.000124479
3.56377e-07
-0.000124452
2.78083e-07
-0.00012522
2.56412e-07
-0.000127521
6.01117e-07
-0.000128487
1.21799e-06
-0.000128633
1.43592e-06
-0.000128628
1.47461e-06
-0.000128091
1.36448e-06
-0.000125934
1.07844e-06
-0.000124668
5.29067e-07
-0.000124427
1.94104e-07
-0.000124353
-2.5779e-08
-0.000124444
-8.84999e-08
-0.000126281
-4.82958e-08
-0.00012878
6.53189e-07
-0.0001295
1.36861e-06
-0.000129593
1.52864e-06
-0.000129536
1.60541e-06
-0.000127988
1.48339e-06
-0.00012527
8.63642e-07
-0.000124195
8.14042e-08
-0.000123988
-2.53371e-07
-0.000124011
-5.09737e-07
-0.000124327
-6.40259e-07
-0.000127076
-5.02319e-07
-0.000129562
4.95045e-07
-0.000130204
1.29178e-06
-0.000130312
1.43117e-06
-0.000130191
1.39724e-06
-0.000127975
1.36163e-06
-0.000124892
5.69902e-07
-0.000123813
-4.97066e-07
-0.00012365
-9.07813e-07
-0.000123701
-1.16762e-06
-0.000124321
-1.29674e-06
-0.000127323
-1.10793e-06
-0.000129467
-1.16123e-07
-0.000130084
6.48815e-07
-0.000130181
8.39432e-07
-0.000130085
8.22064e-07
-0.000127926
5.14893e-07
-0.000124571
-2.33502e-07
-0.000123217
-1.58951e-06
-0.000123049
-2.25699e-06
-0.000123212
-2.65232e-06
-0.000124778
-2.85315e-06
-0.000127031
-2.43823e-06
-0.000128238
-1.86789e-06
-0.000128813
-1.71482e-06