/*--------------------------------*- C++ -*----------------------------------*\
  =========                 |
  \\      /  F ield         | OpenFOAM: The Open Source CFD Toolbox
   \\    /   O peration     | Website:  https://openfoam.org
    \\  /    A nd           | Version:  12
     \\/     M anipulation  |
\*---------------------------------------------------------------------------*/
FoamFile
{
    format      ascii;
    class       volScalarField;
    location    "4";
    object      rho;
}
// * * * * * * * * * * * * * * * * * * * * * * * * * * * * * * * * * * * * * //

dimensions      [1 -3 0 0 0 0 0];

internalField   nonuniform List<scalar> 
9801
(
1.09659
1.10343
1.11159
1.11685
1.1207
1.1242
1.12694
1.12642
1.12605
1.12797
1.13171
1.1396
1.14933
1.1558
1.16046
1.16417
1.16717
1.16684
1.16584
1.16778
1.17143
1.17878
1.18855
1.19545
1.20021
1.20422
1.20751
1.20683
1.20644
1.2088
1.21276
1.22095
1.23115
1.23817
1.24284
1.24675
1.24966
1.24805
1.24792
1.25104
1.25531
1.2638
1.27475
1.2823
1.28703
1.29132
1.29308
1.29032
1.29142
1.29491
1.29998
1.31016
1.32204
1.32985
1.33497
1.33882
1.33863
1.33439
1.33574
1.34001
1.34659
1.35871
1.37249
1.38085
1.38606
1.39016
1.38705
1.38146
1.38407
1.38928
1.39772
1.41536
1.4312
1.44091
1.44741
1.45125
1.44378
1.43515
1.4371
1.44376
1.45788
1.48163
1.49899
1.50982
1.51876
1.52448
1.51364
1.50616
1.51576
1.53393
1.57063
1.61197
1.64405
1.67467
1.70948
1.73247
1.74411
2.33897
5.11229
1.10098
1.10926
1.11826
1.12331
1.12681
1.12979
1.13146
1.13074
1.13126
1.13357
1.13722
1.14574
1.15592
1.16203
1.16595
1.16895
1.17085
1.17027
1.17041
1.17274
1.17627
1.18399
1.19454
1.20141
1.20573
1.20912
1.21138
1.21062
1.21072
1.21319
1.21696
1.22518
1.23599
1.24306
1.24763
1.25133
1.25365
1.25211
1.25205
1.25486
1.2587
1.26714
1.27889
1.28663
1.29149
1.29562
1.29729
1.29499
1.29568
1.29867
1.30301
1.3127
1.32531
1.33336
1.33843
1.34231
1.34247
1.33865
1.33954
1.34327
1.34872
1.36031
1.37489
1.38363
1.38901
1.39332
1.39141
1.38601
1.38758
1.3921
1.39902
1.4161
1.43239
1.44208
1.44853
1.45284
1.4475
1.43912
1.43992
1.44564
1.4565
1.47934
1.49818
1.5098
1.51932
1.52752
1.51976
1.51064
1.518
1.5335
1.56274
1.60044
1.62987
1.65776
1.68674
1.69878
1.68168
2.25995
5.09725
1.10096
1.11055
1.11874
1.12331
1.12671
1.12926
1.12998
1.13016
1.13183
1.13466
1.13876
1.14818
1.15677
1.16145
1.16488
1.16759
1.16907
1.16935
1.17081
1.17369
1.17739
1.18569
1.19572
1.20136
1.20503
1.20808
1.21001
1.20973
1.21073
1.21357
1.21738
1.22521
1.23603
1.24288
1.2472
1.25067
1.25261
1.25118
1.25146
1.25436
1.2582
1.26646
1.27866
1.28663
1.29157
1.29567
1.29781
1.2956
1.29517
1.29777
1.30183
1.31067
1.32379
1.33232
1.33747
1.34159
1.343
1.33926
1.33904
1.34238
1.34718
1.35737
1.37265
1.38204
1.38761
1.3923
1.39244
1.3867
1.38686
1.39082
1.39633
1.41009
1.42792
1.43884
1.44561
1.45074
1.44842
1.4388
1.438
1.44326
1.45083
1.46971
1.4931
1.50705
1.51683
1.5256
1.52172
1.50931
1.51334
1.52755
1.54911
1.58528
1.61763
1.64463
1.67185
1.68561
1.65923
2.21769
5.05689
1.10196
1.11244
1.12071
1.12502
1.12799
1.12981
1.1305
1.13175
1.134
1.13691
1.14079
1.14884
1.15677
1.1616
1.16504
1.16781
1.16966
1.1705
1.17216
1.17478
1.1781
1.18539
1.19482
1.20072
1.20475
1.20808
1.21037
1.21067
1.21189
1.21458
1.21802
1.22493
1.23542
1.24217
1.24641
1.24989
1.25205
1.25112
1.2518
1.25476
1.25854
1.26616
1.2785
1.28671
1.29155
1.29542
1.29749
1.29479
1.29383
1.29638
1.30041
1.30805
1.32177
1.33145
1.33691
1.34117
1.34346
1.3392
1.33734
1.34019
1.3447
1.35305
1.36915
1.38017
1.38617
1.391
1.393
1.3868
1.38452
1.3876
1.39264
1.40307
1.42237
1.4356
1.44246
1.44754
1.4484
1.43813
1.43358
1.43782
1.44488
1.45811
1.48288
1.50043
1.51094
1.52002
1.52258
1.5101
1.50639
1.51818
1.53484
1.56249
1.59451
1.62164
1.64683
1.66621
1.65039
2.18831
5.02267
1.10306
1.11217
1.12051
1.12498
1.12806
1.13044
1.13229
1.1335
1.13507
1.13738
1.14052
1.14786
1.1565
1.16188
1.16571
1.16891
1.1715
1.17212
1.1726
1.17454
1.17749
1.18389
1.19374
1.20034
1.20488
1.20863
1.21175
1.21258
1.2128
1.21455
1.21735
1.22268
1.23306
1.24069
1.24549
1.24937
1.25245
1.25245
1.25268
1.25522
1.25863
1.26468
1.2763
1.28485
1.28974
1.29366
1.29626
1.29432
1.29295
1.29537
1.29926
1.30579
1.3192
1.32991
1.33563
1.33982
1.34264
1.33903
1.33564
1.33787
1.3421
1.34902
1.36455
1.3774
1.38394
1.38884
1.39241
1.38776
1.38242
1.38413
1.38878
1.39622
1.41346
1.43027
1.43854
1.44394
1.44748
1.44003
1.43119
1.43272
1.43929
1.44848
1.46949
1.49235
1.50608
1.51609
1.524
1.51742
1.50606
1.50992
1.52404
1.54574
1.57679
1.6033
1.62509
1.64641
1.64349
2.17724
4.99843
1.10466
1.11216
1.12028
1.12515
1.12865
1.13155
1.13405
1.13502
1.13573
1.13784
1.14096
1.14785
1.157
1.16289
1.16694
1.17032
1.17306
1.17279
1.17189
1.17371
1.17688
1.18327
1.19414
1.20174
1.20637
1.21013
1.21351
1.21443
1.21233
1.21291
1.21566
1.22051
1.23125
1.24062
1.24615
1.25034
1.25396
1.25513
1.25401
1.25506
1.25771
1.26207
1.2726
1.28261
1.28844
1.29284
1.29644
1.2963
1.29353
1.29484
1.29837
1.30352
1.31565
1.32775
1.33413
1.33863
1.34228
1.3409
1.33614
1.33658
1.34051
1.34589
1.3593
1.37473
1.38278
1.38798
1.39234
1.39062
1.38305
1.3817
1.38566
1.39144
1.40418
1.42459
1.43678
1.44302
1.44786
1.44475
1.43336
1.43062
1.43573
1.44321
1.45736
1.48207
1.50076
1.51276
1.52283
1.52707
1.51448
1.50818
1.51662
1.53233
1.55804
1.58591
1.60741
1.62604
1.63476
2.17949
4.98026
1.10643
1.11354
1.12117
1.12603
1.12962
1.13267
1.13521
1.13601
1.13637
1.13846
1.14175
1.14898
1.15867
1.16468
1.16855
1.17164
1.17355
1.17226
1.1716
1.17361
1.1769
1.18341
1.19518
1.20374
1.20854
1.21218
1.21514
1.21436
1.21072
1.21124
1.21419
1.21932
1.23101
1.24228
1.24845
1.25264
1.25635
1.25833
1.25496
1.25318
1.2552
1.25926
1.26912
1.28183
1.28932
1.29405
1.29797
1.29976
1.29603
1.29492
1.29735
1.30129
1.31069
1.32501
1.33344
1.33859
1.34286
1.34429
1.33908
1.33736
1.34021
1.34462
1.35364
1.37079
1.3824
1.38841
1.39303
1.39399
1.38624
1.3819
1.38434
1.38937
1.3968
1.41555
1.43367
1.44247
1.44815
1.45102
1.44166
1.43291
1.43415
1.44081
1.45003
1.47041
1.49391
1.50944
1.52059
1.53029
1.529
1.51557
1.51472
1.52506
1.54284
1.57006
1.59314
1.60942
1.62179
2.18581
4.96576
1.10811
1.1151
1.12286
1.12767
1.13104
1.13396
1.13636
1.13723
1.1378
1.13995
1.14308
1.15017
1.16056
1.16669
1.17023
1.17263
1.17369
1.17294
1.17305
1.1752
1.17834
1.18404
1.19616
1.20559
1.21052
1.21388
1.21572
1.21373
1.21114
1.2123
1.21534
1.21995
1.23138
1.2443
1.25127
1.25551
1.25907
1.26004
1.25437
1.25161
1.25382
1.25781
1.2671
1.28215
1.29157
1.29661
1.30063
1.30335
1.29953
1.29545
1.29635
1.29987
1.30669
1.32222
1.33451
1.3407
1.34502
1.34818
1.34445
1.34005
1.34053
1.34399
1.34964
1.36445
1.38153
1.38998
1.39498
1.39844
1.39351
1.38548
1.38445
1.38816
1.39315
1.40477
1.42669
1.44122
1.44865
1.4544
1.45367
1.44069
1.43586
1.44009
1.44782
1.46034
1.48376
1.5036
1.51694
1.52789
1.53634
1.5319
1.51951
1.5213
1.53215
1.5516
1.57655
1.59412
1.60784
2.19617
4.95117
1.10966
1.11543
1.1244
1.13011
1.13327
1.1361
1.13863
1.1398
1.14051
1.14267
1.14557
1.15105
1.1612
1.16801
1.17152
1.17385
1.17559
1.17567
1.17592
1.17818
1.18129
1.18605
1.1968
1.20652
1.21148
1.21446
1.21604
1.21545
1.21382
1.21507
1.21816
1.22214
1.23202
1.24577
1.2533
1.25753
1.2602
1.25961
1.25505
1.25345
1.25587
1.25959
1.26684
1.28253
1.2939
1.2996
1.3036
1.30584
1.30219
1.2964
1.29673
1.30022
1.30553
1.31928
1.33546
1.34352
1.34821
1.35188
1.35035
1.34312
1.34108
1.34334
1.34798
1.35787
1.3779
1.39149
1.39801
1.40252
1.40279
1.39252
1.38645
1.38736
1.3915
1.39788
1.41574
1.43721
1.4487
1.45544
1.46048
1.4552
1.44317
1.44182
1.44716
1.45532
1.47201
1.4957
1.51276
1.52493
1.53556
1.54132
1.53335
1.52278
1.52575
1.5363
1.55659
1.5768
1.59271
2.2068
4.93487
1.11098
1.11513
1.12461
1.13256
1.13659
1.13964
1.14227
1.14358
1.14415
1.14605
1.14867
1.1518
1.15948
1.16783
1.17254
1.17601
1.179
1.18005
1.18014
1.18226
1.1853
1.18873
1.19599
1.20549
1.21109
1.21464
1.21771
1.21892
1.21769
1.21917
1.22249
1.22613
1.23324
1.24576
1.25401
1.25802
1.26044
1.26108
1.25799
1.2566
1.25928
1.26327
1.26889
1.28196
1.29526
1.3017
1.30533
1.30728
1.30476
1.29959
1.29946
1.30277
1.30708
1.31667
1.33464
1.34584
1.35114
1.35495
1.35518
1.34725
1.34264
1.34437
1.34856
1.3547
1.3718
1.39121
1.40051
1.40548
1.40922
1.40283
1.3908
1.38826
1.39121
1.39626
1.40571
1.4279
1.44622
1.45559
1.4622
1.46666
1.45767
1.44672
1.44774
1.45428
1.46379
1.48378
1.50527
1.52002
1.53141
1.54146
1.54504
1.53446
1.52472
1.52748
1.53715
1.55592
1.57531
2.21524
4.9177
1.11232
1.11569
1.12479
1.13516
1.14047
1.14387
1.14673
1.14887
1.14923
1.14965
1.15075
1.15255
1.15704
1.16735
1.17497
1.17932
1.18267
1.18535
1.18595
1.18692
1.1889
1.19104
1.19434
1.20328
1.21192
1.21695
1.22068
1.22353
1.22362
1.22451
1.2271
1.23014
1.23375
1.24246
1.25224
1.25764
1.26151
1.26464
1.2637
1.26257
1.26486
1.26819
1.27185
1.27882
1.29265
1.30126
1.30565
1.30932
1.31005
1.30548
1.30447
1.30727
1.31091
1.31565
1.32954
1.34509
1.35224
1.35631
1.35924
1.35489
1.3471
1.34726
1.35153
1.35613
1.36485
1.38538
1.40022
1.4068
1.41095
1.41207
1.40135
1.39221
1.3925
1.39649
1.40223
1.41619
1.43977
1.45491
1.46317
1.46944
1.47083
1.45963
1.45179
1.4545
1.46135
1.47262
1.49436
1.5137
1.52677
1.53703
1.5456
1.54677
1.53456
1.52445
1.52617
1.53408
1.55602
2.21892
4.9002
1.1145
1.1176
1.12586
1.13778
1.14444
1.14827
1.15129
1.15395
1.15437
1.15166
1.15112
1.15314
1.15708
1.1675
1.17791
1.18329
1.1869
1.19011
1.19211
1.19095
1.19014
1.1914
1.19435
1.20184
1.21354
1.22043
1.22445
1.22784
1.22988
1.22949
1.23004
1.23148
1.23383
1.23885
1.2506
1.25995
1.26482
1.26842
1.27082
1.26938
1.2691
1.27049
1.27277
1.27645
1.28721
1.30104
1.30842
1.31276
1.31635
1.31462
1.31033
1.31036
1.31242
1.31556
1.32265
1.33999
1.35266
1.35897
1.36351
1.36537
1.35771
1.35282
1.35415
1.35723
1.36147
1.37375
1.39473
1.40631
1.41175
1.41607
1.4148
1.40196
1.39585
1.39794
1.4026
1.40906
1.42672
1.44883
1.46123
1.46867
1.47512
1.47575
1.46333
1.45707
1.46071
1.46794
1.4814
1.50308
1.52001
1.5317
1.54109
1.54804
1.54748
1.53416
1.52232
1.52
1.5353
2.20881
4.88275
1.1178
1.1207
1.12806
1.14052
1.14817
1.1522
1.15521
1.1578
1.15803
1.15367
1.15277
1.15484
1.15855
1.16861
1.18075
1.18713
1.19094
1.19413
1.19651
1.1943
1.19153
1.19272
1.19566
1.20203
1.21496
1.22413
1.22861
1.23199
1.23484
1.23418
1.23177
1.23202
1.23435
1.23834
1.24879
1.26216
1.26904
1.27288
1.27629
1.27619
1.27219
1.27097
1.27269
1.27637
1.28381
1.30007
1.31161
1.31702
1.32095
1.32237
1.31616
1.31157
1.31197
1.31509
1.31988
1.33295
1.35199
1.36205
1.36775
1.37182
1.36991
1.35997
1.35592
1.357
1.3603
1.36598
1.38336
1.40357
1.41319
1.41796
1.42141
1.41688
1.40461
1.40073
1.40298
1.40751
1.41572
1.43679
1.45728
1.46847
1.47586
1.48137
1.47933
1.46732
1.46273
1.4667
1.47385
1.48867
1.50979
1.52511
1.53556
1.54381
1.54896
1.54687
1.53337
1.51725
1.51798
2.18678
4.86688
1.12171
1.12462
1.13059
1.14283
1.15096
1.1551
1.15806
1.16046
1.16003
1.15621
1.15564
1.15765
1.16088
1.16997
1.18316
1.19044
1.1943
1.19735
1.19951
1.19729
1.1941
1.19509
1.19784
1.20263
1.21515
1.22669
1.23217
1.23557
1.23856
1.23907
1.23493
1.23395
1.23603
1.23939
1.24723
1.2624
1.2718
1.27655
1.27978
1.28141
1.27664
1.27318
1.2748
1.27815
1.2832
1.2967
1.31235
1.31984
1.3239
1.3263
1.3228
1.31499
1.31386
1.31684
1.32114
1.3286
1.34727
1.36359
1.37076
1.37505
1.37776
1.37025
1.3596
1.35818
1.36104
1.36522
1.37323
1.39419
1.41134
1.41878
1.42332
1.42647
1.41869
1.40624
1.40414
1.40802
1.4136
1.42423
1.44646
1.46438
1.47429
1.48133
1.48713
1.48457
1.47185
1.46752
1.47153
1.47866
1.49442
1.51465
1.52866
1.538
1.54487
1.54801
1.54516
1.52825
1.51274
2.15547
4.85165
1.12552
1.12838
1.13255
1.14396
1.1533
1.1578
1.16087
1.16342
1.16312
1.1593
1.1588
1.16085
1.1637
1.17088
1.18451
1.19296
1.19716
1.20027
1.20268
1.20119
1.1976
1.19792
1.20026
1.20344
1.21302
1.22733
1.23497
1.23901
1.24231
1.24418
1.24014
1.23711
1.23866
1.24168
1.24626
1.25945
1.27267
1.27866
1.28223
1.28515
1.28292
1.27784
1.27851
1.28171
1.28519
1.29172
1.30761
1.31879
1.3238
1.32769
1.33001
1.32384
1.31936
1.32177
1.32593
1.32977
1.3387
1.35772
1.36953
1.37486
1.3783
1.3796
1.37073
1.36315
1.36401
1.36792
1.37243
1.38204
1.40317
1.41724
1.42382
1.42787
1.4293
1.42053
1.4106
1.41024
1.4144
1.4205
1.43321
1.45564
1.47179
1.48096
1.48771
1.49225
1.48808
1.47599
1.47219
1.47588
1.4827
1.49848
1.51773
1.53053
1.53852
1.54361
1.5456
1.5392
1.52325
2.12869
4.83617
1.12865
1.13103
1.13397
1.14388
1.15559
1.16113
1.16432
1.16696
1.1669
1.16286
1.162
1.16388
1.16661
1.17157
1.18438
1.19517
1.20026
1.20365
1.20644
1.2063
1.20182
1.2005
1.20193
1.20464
1.21081
1.22635
1.23752
1.24284
1.24641
1.2493
1.24707
1.24176
1.24139
1.24322
1.24603
1.25386
1.27032
1.28035
1.28546
1.28919
1.29115
1.28649
1.28351
1.28412
1.28557
1.2883
1.29776
1.31537
1.32595
1.3317
1.33602
1.33707
1.32987
1.32693
1.32797
1.32981
1.33295
1.34416
1.36375
1.3747
1.38038
1.38501
1.38604
1.37594
1.36967
1.3702
1.37253
1.37609
1.38675
1.40762
1.4206
1.4269
1.43209
1.435
1.42621
1.41702
1.41709
1.42126
1.42732
1.44067
1.4624
1.47701
1.48546
1.49205
1.49727
1.49367
1.48127
1.47672
1.47944
1.48524
1.50014
1.51866
1.53049
1.53705
1.54096
1.53976
1.53785
2.11805
4.81955
1.13067
1.13338
1.13657
1.14464
1.15698
1.16418
1.16795
1.17024
1.17031
1.16657
1.16506
1.16665
1.16931
1.1729
1.18316
1.19667
1.20367
1.20726
1.21014
1.21104
1.20543
1.20185
1.2034
1.20653
1.21129
1.22462
1.23941
1.24647
1.25038
1.25355
1.25344
1.24659
1.24278
1.24351
1.2463
1.25092
1.26532
1.28175
1.28973
1.2941
1.29757
1.29647
1.28851
1.2841
1.28403
1.28672
1.29174
1.30801
1.3273
1.33657
1.34211
1.34581
1.34343
1.33346
1.32815
1.32752
1.3299
1.33477
1.3514
1.37279
1.38353
1.3892
1.39356
1.39206
1.38017
1.37276
1.37144
1.37305
1.3774
1.39166
1.41466
1.4281
1.43449
1.43981
1.44209
1.43282
1.42346
1.42269
1.42575
1.4313
1.44586
1.4683
1.48299
1.49162
1.49837
1.50326
1.49944
1.4859
1.47969
1.4814
1.48609
1.49999
1.51814
1.52899
1.5346
1.53484
1.54436
2.12126
4.80207
1.13416
1.13693
1.14001
1.14585
1.15716
1.16582
1.16991
1.17236
1.17349
1.17112
1.16889
1.1702
1.17285
1.17593
1.18271
1.19677
1.20611
1.21076
1.2138
1.21454
1.20921
1.20519
1.20659
1.20966
1.21351
1.2229
1.23937
1.24905
1.25378
1.25686
1.25778
1.25123
1.24478
1.24518
1.24804
1.25185
1.2612
1.28077
1.29292
1.2983
1.3021
1.30327
1.2944
1.28565
1.2854
1.28828
1.29215
1.30146
1.32398
1.33944
1.3457
1.3501
1.35281
1.3436
1.33076
1.32825
1.33079
1.33467
1.34185
1.36398
1.38376
1.39159
1.39576
1.39912
1.39378
1.37839
1.37209
1.37364
1.37737
1.38295
1.40124
1.42414
1.43589
1.44222
1.44759
1.44854
1.4367
1.42599
1.42558
1.42993
1.43594
1.45198
1.47514
1.48955
1.49779
1.50412
1.50809
1.50341
1.48892
1.48146
1.48222
1.48608
1.49933
1.51643
1.52646
1.52845
1.54273
2.13524
4.78452
1.13953
1.14203
1.14462
1.14768
1.15491
1.16483
1.1703
1.17342
1.17594
1.17672
1.1745
1.1749
1.17731
1.18015
1.18398
1.1946
1.20629
1.21172
1.21461
1.21647
1.21479
1.21073
1.21139
1.21427
1.21751
1.22246
1.23598
1.2493
1.25521
1.25863
1.26068
1.25686
1.24905
1.24835
1.25136
1.25522
1.261
1.27589
1.2928
1.30048
1.30443
1.3065
1.30284
1.29201
1.28914
1.29208
1.29637
1.302
1.31574
1.33613
1.34637
1.35126
1.35385
1.35315
1.34079
1.33246
1.33377
1.33785
1.34325
1.35381
1.37585
1.39038
1.3962
1.39951
1.40033
1.39189
1.37891
1.37652
1.37986
1.38468
1.39241
1.41278
1.43295
1.44252
1.44805
1.45181
1.45113
1.43871
1.4298
1.43084
1.4356
1.44247
1.46007
1.48221
1.49501
1.5022
1.50778
1.51088
1.50586
1.4915
1.48308
1.48281
1.48565
1.49799
1.51341
1.51938
1.53657
2.15341
4.76634
1.14573
1.14685
1.1481
1.14975
1.15253
1.16123
1.17064
1.17551
1.17869
1.18141
1.18134
1.18015
1.18153
1.18388
1.18646
1.19148
1.20333
1.21194
1.21603
1.21889
1.22074
1.21807
1.21651
1.21835
1.22119
1.22439
1.23129
1.24581
1.25541
1.25968
1.26227
1.26305
1.25748
1.25419
1.25634
1.25978
1.26322
1.26938
1.28569
1.29843
1.30384
1.30741
1.31014
1.30525
1.29733
1.29726
1.30017
1.30355
1.30846
1.32435
1.34219
1.35009
1.35437
1.35785
1.35572
1.34471
1.34036
1.34259
1.34612
1.34983
1.3604
1.38055
1.39237
1.3974
1.40115
1.40331
1.39538
1.38545
1.38446
1.38773
1.39196
1.39959
1.41936
1.43661
1.44503
1.45047
1.4551
1.45511
1.44477
1.43752
1.43857
1.44287
1.44891
1.46515
1.48535
1.49726
1.50415
1.5094
1.51262
1.50923
1.49555
1.48509
1.48321
1.48431
1.49483
1.50528
1.52544
2.16867
4.74642
1.15164
1.15183
1.1502
1.151
1.15297
1.15814
1.16983
1.17802
1.1821
1.18511
1.18745
1.1864
1.18566
1.18684
1.18873
1.19118
1.19813
1.21071
1.21808
1.22186
1.22493
1.22606
1.22296
1.22262
1.2247
1.22736
1.2303
1.23794
1.25211
1.26059
1.26489
1.26806
1.26842
1.2627
1.26094
1.26247
1.26451
1.26763
1.27555
1.29302
1.30489
1.31031
1.31441
1.31603
1.30829
1.3016
1.30156
1.30426
1.30782
1.31441
1.33226
1.34842
1.35594
1.36024
1.36397
1.3608
1.35025
1.3461
1.34684
1.34903
1.35287
1.36459
1.38491
1.3973
1.40315
1.40752
1.40943
1.40091
1.39113
1.38953
1.39205
1.39609
1.40406
1.42376
1.44133
1.45062
1.45639
1.46162
1.46247
1.45232
1.44384
1.44359
1.44736
1.4525
1.46647
1.48653
1.49925
1.50638
1.51156
1.51462
1.51326
1.50042
1.48642
1.48113
1.4814
1.48683
1.51081
2.17686
4.72415
1.15586
1.15754
1.15323
1.1529
1.1546
1.1576
1.16715
1.17945
1.18554
1.1889
1.19178
1.19317
1.19086
1.18973
1.19057
1.19243
1.1956
1.20597
1.21899
1.22549
1.22896
1.23199
1.23183
1.22874
1.22849
1.22942
1.23078
1.23385
1.24413
1.25982
1.26815
1.27257
1.27561
1.27343
1.26648
1.26451
1.26631
1.26924
1.27316
1.28427
1.30245
1.31254
1.3172
1.31988
1.31956
1.31097
1.30585
1.3069
1.3102
1.3142
1.32158
1.33955
1.35507
1.36238
1.36643
1.3694
1.36472
1.35335
1.34894
1.3504
1.35371
1.35816
1.37111
1.39131
1.40299
1.40862
1.41234
1.4139
1.40535
1.39535
1.39372
1.39711
1.4019
1.41029
1.42991
1.44766
1.4571
1.46257
1.46682
1.46787
1.45879
1.4491
1.44755
1.45099
1.45617
1.46867
1.48776
1.50118
1.50867
1.51338
1.51587
1.51523
1.50449
1.48755
1.4778
1.47282
1.49329
2.17074
4.70035
1.15939
1.16259
1.15783
1.1554
1.15645
1.15867
1.16441
1.17866
1.18844
1.1928
1.19581
1.1985
1.19791
1.19362
1.19231
1.19343
1.19573
1.20107
1.21617
1.22804
1.2335
1.23675
1.23943
1.23737
1.23234
1.23058
1.23158
1.2341
1.23897
1.25406
1.26922
1.27586
1.27916
1.28141
1.2768
1.2698
1.26933
1.27203
1.2753
1.27908
1.29075
1.30791
1.31659
1.32147
1.3253
1.32538
1.31734
1.31326
1.31426
1.31663
1.31982
1.32728
1.34608
1.36021
1.36631
1.3701
1.373
1.36824
1.35786
1.35491
1.35709
1.36039
1.36425
1.3761
1.39526
1.40602
1.41139
1.41562
1.41813
1.41111
1.40233
1.40131
1.40463
1.40923
1.4166
1.43454
1.45173
1.46069
1.46619
1.4709
1.47293
1.46586
1.45623
1.45362
1.45566
1.45969
1.46951
1.48771
1.50182
1.50947
1.51365
1.51594
1.51585
1.50725
1.48927
1.47228
1.47813
2.14745
4.67734
1.16311
1.16697
1.16278
1.15806
1.15816
1.16022
1.16369
1.17562
1.19017
1.19681
1.20012
1.20296
1.2046
1.19958
1.19457
1.19455
1.1966
1.19979
1.2102
1.22814
1.23731
1.2415
1.24452
1.24577
1.23917
1.23332
1.23337
1.23563
1.23855
1.24507
1.26297
1.27608
1.28231
1.28614
1.28821
1.28206
1.27596
1.27549
1.2762
1.27757
1.28135
1.29564
1.31439
1.32427
1.33025
1.33431
1.33374
1.32447
1.31878
1.31849
1.32005
1.32288
1.33068
1.35015
1.36433
1.37087
1.37565
1.3792
1.37559
1.36489
1.36075
1.36085
1.36226
1.36592
1.37831
1.39829
1.41031
1.41675
1.42224
1.42598
1.42105
1.41144
1.40857
1.40995
1.41291
1.41883
1.43577
1.45431
1.46466
1.47065
1.47597
1.47999
1.4753
1.46371
1.45812
1.45879
1.46193
1.46893
1.48608
1.50148
1.50957
1.51345
1.5152
1.51472
1.5087
1.48801
1.47665
2.1099
4.6558
1.16669
1.1707
1.1671
1.16089
1.16027
1.16229
1.16514
1.17279
1.18952
1.19992
1.20434
1.20717
1.20949
1.20644
1.19822
1.19639
1.19824
1.20109
1.20667
1.22349
1.2391
1.24549
1.24884
1.25148
1.24861
1.23937
1.23621
1.23698
1.23878
1.24182
1.25193
1.27277
1.28519
1.29118
1.29503
1.29571
1.28689
1.27797
1.27545
1.27679
1.28001
1.28609
1.30513
1.32479
1.33375
1.33906
1.34301
1.34073
1.32876
1.32095
1.31961
1.32121
1.3246
1.33423
1.35597
1.37185
1.37881
1.38343
1.38653
1.38075
1.36745
1.3611
1.36145
1.36433
1.36879
1.38278
1.40497
1.41883
1.4255
1.43077
1.43443
1.42909
1.41687
1.41099
1.41208
1.41591
1.42165
1.4383
1.4594
1.47156
1.47764
1.48236
1.48563
1.48185
1.46928
1.4611
1.46045
1.46319
1.46853
1.48411
1.50078
1.50964
1.51302
1.51353
1.51231
1.50473
1.49397
2.08187
4.63519
1.17011
1.17419
1.17172
1.16508
1.16342
1.16522
1.16783
1.17202
1.18562
1.20115
1.20784
1.211
1.21334
1.2127
1.20403
1.1995
1.20083
1.20352
1.20698
1.217
1.23646
1.24775
1.2527
1.2557
1.25681
1.24902
1.23955
1.23761
1.23948
1.24268
1.24767
1.26427
1.28517
1.29436
1.29892
1.30253
1.30042
1.28573
1.27802
1.27899
1.28207
1.28592
1.29488
1.31762
1.33438
1.34114
1.34529
1.3485
1.34378
1.32819
1.32133
1.32262
1.32578
1.33006
1.34233
1.36584
1.37907
1.38434
1.38769
1.38935
1.38195
1.36791
1.36353
1.36581
1.36979
1.37547
1.39128
1.41382
1.42608
1.43209
1.43625
1.43878
1.43319
1.4198
1.41451
1.41685
1.42132
1.42792
1.4445
1.46493
1.47625
1.48206
1.48607
1.4881
1.48503
1.47356
1.46435
1.46263
1.46464
1.46886
1.48298
1.49956
1.50832
1.51061
1.51047
1.506
1.51181
2.07679
4.61438
1.17237
1.17752
1.17768
1.17156
1.16767
1.16866
1.171
1.17378
1.18079
1.19785
1.20953
1.21449
1.21737
1.21834
1.21193
1.20458
1.20437
1.20673
1.20957
1.21398
1.22822
1.24659
1.25498
1.25932
1.26244
1.26017
1.24662
1.24069
1.2423
1.24553
1.24974
1.25781
1.27766
1.29369
1.30001
1.3034
1.30472
1.29958
1.28742
1.28398
1.28611
1.28935
1.29373
1.30593
1.3277
1.34023
1.34547
1.34876
1.34983
1.34196
1.32941
1.32691
1.32979
1.33385
1.33929
1.35148
1.37053
1.38105
1.38567
1.38879
1.39017
1.38424
1.37391
1.37144
1.37432
1.37845
1.38416
1.39895
1.4182
1.42883
1.43422
1.43787
1.43997
1.43666
1.42709
1.42319
1.42549
1.42964
1.4344
1.44717
1.46571
1.47697
1.4826
1.48649
1.48954
1.48916
1.48052
1.47068
1.46702
1.46777
1.46983
1.47992
1.4954
1.50357
1.50609
1.5026
1.51719
2.08826
4.59386
1.17453
1.18157
1.18296
1.1791
1.17265
1.17196
1.17401
1.17664
1.18003
1.19079
1.20768
1.21596
1.21949
1.22164
1.22074
1.21274
1.20872
1.20998
1.21264
1.21556
1.22188
1.23936
1.25435
1.2602
1.26304
1.26413
1.2591
1.24942
1.24787
1.25034
1.25341
1.25702
1.2661
1.28549
1.29827
1.30352
1.30724
1.30984
1.30247
1.29167
1.2901
1.29275
1.29626
1.30117
1.31397
1.3328
1.34302
1.3475
1.35027
1.35217
1.34596
1.33667
1.33495
1.33695
1.33938
1.34302
1.35409
1.37254
1.38371
1.38896
1.39285
1.39625
1.39173
1.38194
1.37896
1.38119
1.38492
1.38929
1.40075
1.41894
1.43074
1.43692
1.44157
1.44621
1.44592
1.43741
1.43138
1.43109
1.4339
1.43777
1.4465
1.46391
1.47752
1.48477
1.48913
1.49268
1.49501
1.49008
1.47822
1.47012
1.46837
1.46919
1.47442
1.48788
1.49758
1.49804
1.5157
2.11037
4.57276
1.17465
1.18312
1.18492
1.18587
1.1809
1.17705
1.17803
1.18048
1.18308
1.18707
1.19969
1.21445
1.22121
1.22462
1.22679
1.22399
1.21615
1.21442
1.21646
1.21932
1.22243
1.22971
1.24655
1.2588
1.26402
1.26732
1.2691
1.26285
1.25481
1.25373
1.25568
1.25848
1.26246
1.2733
1.29224
1.30375
1.309
1.31168
1.31252
1.30613
1.29828
1.29763
1.30022
1.30355
1.30764
1.31763
1.33467
1.34586
1.35154
1.35532
1.3582
1.35256
1.34204
1.33863
1.3405
1.34367
1.34774
1.3575
1.37577
1.38869
1.39494
1.39872
1.40195
1.39914
1.38974
1.38507
1.38589
1.38931
1.39376
1.40262
1.4206
1.4358
1.4437
1.44823
1.45254
1.4541
1.44675
1.43784
1.43489
1.4367
1.44032
1.4469
1.46264
1.47892
1.48847
1.49334
1.49664
1.49902
1.49672
1.48414
1.47172
1.46693
1.46671
1.4694
1.4814
1.48844
1.50964
2.13183
4.549
1.17149
1.18465
1.18809
1.19075
1.19102
1.18562
1.18336
1.18448
1.18619
1.18807
1.19242
1.20642
1.22084
1.22727
1.23055
1.23255
1.22831
1.2217
1.221
1.22276
1.2248
1.22739
1.23428
1.2515
1.26414
1.26983
1.27304
1.27407
1.26731
1.26022
1.25979
1.26235
1.26553
1.26917
1.27797
1.29493
1.30615
1.31166
1.31616
1.31909
1.31462
1.3073
1.30539
1.30589
1.30699
1.31018
1.31958
1.33799
1.35069
1.35671
1.36017
1.36268
1.35843
1.34859
1.34511
1.34631
1.34854
1.35186
1.36049
1.37884
1.39225
1.39887
1.40345
1.4074
1.40691
1.39865
1.39242
1.39196
1.39427
1.39829
1.40613
1.42391
1.44012
1.44843
1.45344
1.45741
1.45945
1.45391
1.44372
1.43936
1.44079
1.4442
1.44966
1.46346
1.4805
1.49086
1.49591
1.49898
1.50059
1.49904
1.48896
1.47496
1.46698
1.4644
1.46543
1.47237
1.49735
2.14513
4.52322
1.16587
1.18374
1.19126
1.19485
1.19735
1.19639
1.19042
1.18783
1.18848
1.19046
1.19284
1.19799
1.21331
1.22729
1.2337
1.23724
1.23922
1.23442
1.22772
1.22596
1.22672
1.22864
1.23144
1.23855
1.25612
1.26893
1.27498
1.27906
1.28089
1.27476
1.26821
1.26749
1.26831
1.269
1.27156
1.27957
1.29825
1.31257
1.31975
1.32466
1.32759
1.3227
1.31246
1.30782
1.30861
1.31108
1.31412
1.322
1.34053
1.35417
1.36061
1.36551
1.36896
1.36618
1.35594
1.35031
1.35033
1.35221
1.35505
1.36204
1.38019
1.39571
1.40372
1.40914
1.4141
1.41577
1.40778
1.39907
1.39773
1.40026
1.40364
1.40926
1.42496
1.442
1.4513
1.45647
1.46079
1.46419
1.46151
1.45217
1.44654
1.44656
1.4488
1.45214
1.46169
1.47909
1.49099
1.4962
1.49883
1.50078
1.50139
1.49531
1.48028
1.46765
1.46261
1.45837
1.48156
2.1388
4.49616
1.16302
1.17588
1.19139
1.19822
1.20141
1.20375
1.20133
1.19453
1.19228
1.19315
1.1947
1.19677
1.20253
1.22028
1.23477
1.24115
1.24486
1.24645
1.24006
1.23197
1.22974
1.23053
1.232
1.23445
1.24205
1.26167
1.27627
1.28305
1.28755
1.28926
1.28205
1.27256
1.26902
1.26961
1.27185
1.27528
1.28495
1.30608
1.32055
1.32695
1.33101
1.33368
1.32876
1.31747
1.31259
1.31235
1.31368
1.31684
1.32548
1.34593
1.36103
1.36736
1.37117
1.37477
1.37331
1.36193
1.35353
1.35215
1.35421
1.35777
1.36531
1.38453
1.40238
1.41128
1.4162
1.4204
1.42251
1.41495
1.40466
1.40159
1.40353
1.40711
1.41216
1.42587
1.44436
1.45589
1.462
1.46637
1.46963
1.46903
1.46045
1.45168
1.4491
1.45085
1.45408
1.46108
1.47668
1.49066
1.49777
1.50059
1.5018
1.50197
1.49893
1.48598
1.46977
1.45692
1.4676
2.11667
4.46846
1.16366
1.16844
1.18499
1.19941
1.20557
1.20867
1.21065
1.20593
1.19813
1.19547
1.19578
1.19765
1.20073
1.20925
1.22945
1.2429
1.2486
1.25191
1.25283
1.24482
1.2356
1.23238
1.23252
1.23475
1.23834
1.24914
1.27121
1.28478
1.29063
1.29432
1.29563
1.28648
1.27465
1.27186
1.27375
1.27681
1.28093
1.29235
1.31351
1.32634
1.33215
1.33624
1.33936
1.3338
1.31961
1.31387
1.31522
1.3181
1.322
1.33154
1.35167
1.36595
1.37224
1.37612
1.37928
1.37733
1.3641
1.35568
1.35611
1.35944
1.36408
1.37264
1.39109
1.40797
1.41659
1.42167
1.42527
1.42621
1.41937
1.40937
1.40609
1.40839
1.41254
1.41837
1.43046
1.44763
1.45951
1.46594
1.4698
1.47169
1.4721
1.46694
1.45832
1.4541
1.45455
1.45694
1.46177
1.47514
1.48952
1.4972
1.50022
1.50117
1.50127
1.49955
1.49066
1.47011
1.46614
2.07811
4.44262
1.16517
1.16784
1.17596
1.19576
1.20834
1.21334
1.21614
1.21668
1.2076
1.19908
1.19815
1.20003
1.20247
1.20598
1.21719
1.2383
1.25014
1.25538
1.25892
1.25898
1.24703
1.23605
1.23482
1.23715
1.24022
1.24452
1.25738
1.27882
1.29017
1.29521
1.29899
1.29999
1.28956
1.27893
1.27753
1.2796
1.28231
1.28624
1.29895
1.32041
1.33246
1.33777
1.34121
1.34297
1.33532
1.32255
1.31911
1.321
1.32387
1.32727
1.33636
1.35644
1.37
1.37561
1.37884
1.38033
1.37808
1.36903
1.36361
1.36466
1.36821
1.37233
1.3789
1.39466
1.41048
1.41886
1.42329
1.42643
1.42903
1.42631
1.41909
1.4159
1.41752
1.42104
1.42485
1.43157
1.44583
1.45862
1.46563
1.46964
1.47317
1.47652
1.47581
1.46828
1.46143
1.45971
1.46078
1.46288
1.47003
1.48388
1.49371
1.49798
1.49973
1.50029
1.49983
1.49142
1.48198
2.04627
4.41876
1.16774
1.16987
1.17345
1.18635
1.20647
1.21623
1.22027
1.22242
1.21978
1.20825
1.20257
1.20297
1.20464
1.20704
1.21147
1.22644
1.2473
1.25696
1.26124
1.26415
1.26181
1.24848
1.24076
1.24097
1.24275
1.24509
1.24975
1.26504
1.28596
1.29607
1.30043
1.30349
1.30438
1.29367
1.28311
1.28191
1.28451
1.28787
1.29329
1.30698
1.32609
1.33638
1.34087
1.34354
1.34517
1.33872
1.32739
1.32395
1.32562
1.32873
1.33321
1.34209
1.35863
1.3709
1.37691
1.3804
1.38387
1.38482
1.37856
1.37273
1.37228
1.37504
1.3791
1.38459
1.39505
1.40929
1.41995
1.4266
1.43099
1.43519
1.43631
1.43088
1.42514
1.42329
1.4244
1.42727
1.43155
1.44229
1.45736
1.46783
1.47379
1.47822
1.48247
1.48473
1.47939
1.46917
1.4626
1.46077
1.46152
1.4647
1.47725
1.49102
1.49826
1.5004
1.50072
1.49646
1.50346
2.03879
4.39419
1.17163
1.1729
1.17533
1.18021
1.19623
1.21439
1.22199
1.22583
1.22824
1.22271
1.20982
1.20591
1.20763
1.21037
1.21334
1.21895
1.23544
1.25349
1.26115
1.26464
1.26762
1.26526
1.25135
1.24426
1.24515
1.24799
1.25131
1.25758
1.27382
1.29203
1.30053
1.30461
1.30689
1.30672
1.29842
1.29033
1.28963
1.29215
1.29522
1.29948
1.31085
1.32788
1.3382
1.34312
1.34612
1.34755
1.34341
1.33512
1.33176
1.3329
1.33531
1.33794
1.34342
1.35751
1.37203
1.38089
1.38586
1.38949
1.39212
1.38926
1.3836
1.3813
1.3817
1.38275
1.38577
1.39311
1.40828
1.42311
1.43189
1.43673
1.44045
1.44351
1.44171
1.43406
1.4282
1.42729
1.42937
1.43301
1.44064
1.45611
1.47025
1.47872
1.48393
1.4878
1.49071
1.48736
1.4742
1.46342
1.46003
1.46037
1.46241
1.47401
1.49
1.49823
1.50069
1.49677
1.51041
2.04555
4.3699
1.17644
1.17565
1.17757
1.18024
1.1866
1.20499
1.22117
1.22734
1.23039
1.23183
1.22476
1.21443
1.21275
1.21452
1.21672
1.21936
1.22521
1.24193
1.25826
1.26527
1.26864
1.27021
1.267
1.25646
1.25177
1.25304
1.25578
1.25883
1.26394
1.27763
1.29415
1.30278
1.307
1.31075
1.31273
1.30604
1.29748
1.29535
1.29689
1.29979
1.3035
1.31155
1.32777
1.33974
1.34561
1.34927
1.35278
1.3519
1.34367
1.33747
1.33665
1.33906
1.34239
1.34649
1.3568
1.3729
1.38442
1.39113
1.39605
1.4002
1.40019
1.393
1.38572
1.38406
1.38677
1.39068
1.39602
1.40853
1.42489
1.43502
1.44062
1.44493
1.4489
1.4497
1.44224
1.43394
1.43176
1.43319
1.43615
1.44229
1.45764
1.47381
1.48303
1.48785
1.49111
1.49243
1.48916
1.47799
1.46658
1.4618
1.46152
1.46276
1.47351
1.48812
1.49584
1.49447
1.50992
2.06332
4.34578
1.18319
1.17913
1.18124
1.18375
1.18652
1.1937
1.21197
1.22601
1.23155
1.2348
1.2366
1.22949
1.21956
1.21778
1.21992
1.22275
1.22548
1.23052
1.24527
1.26076
1.26792
1.2717
1.27529
1.27389
1.26431
1.25877
1.25862
1.26036
1.26306
1.26756
1.28033
1.29784
1.30787
1.31258
1.31555
1.31768
1.31385
1.30544
1.30172
1.30209
1.30415
1.30713
1.31291
1.32836
1.34322
1.35053
1.35415
1.35714
1.35875
1.35338
1.34584
1.34337
1.34368
1.34513
1.34851
1.35755
1.37594
1.39027
1.39725
1.40164
1.40549