/*--------------------------------*- C++ -*----------------------------------*\
  =========                 |
  \\      /  F ield         | OpenFOAM: The Open Source CFD Toolbox
   \\    /   O peration     | Website:  https://openfoam.org
    \\  /    A nd           | Version:  12
     \\/     M anipulation  |
\*---------------------------------------------------------------------------*/
FoamFile
{
    format      ascii;
    class       volVectorField;
    location    "4";
    object      U;
}
// * * * * * * * * * * * * * * * * * * * * * * * * * * * * * * * * * * * * * //

dimensions      [0 1 -1 0 0 0 0];

internalField   nonuniform List<vector> 
9801
(
(1.17721 -0.112668 0)
(1.17748 -0.108481 0)
(1.18021 -0.105539 0)
(1.17947 -0.103627 0)
(1.17742 -0.101685 0)
(1.17456 -0.0996399 0)
(1.17128 -0.0973803 0)
(1.16569 -0.0937146 0)
(1.16043 -0.0905456 0)
(1.15749 -0.0885235 0)
(1.1552 -0.0863988 0)
(1.15646 -0.0835514 0)
(1.15938 -0.0811339 0)
(1.15918 -0.0793945 0)
(1.157 -0.0775407 0)
(1.15415 -0.0755558 0)
(1.15071 -0.0732423 0)
(1.14495 -0.069661 0)
(1.13901 -0.0664018 0)
(1.13563 -0.0642709 0)
(1.13293 -0.0623381 0)
(1.13331 -0.0595572 0)
(1.13587 -0.0568173 0)
(1.13569 -0.0548815 0)
(1.13361 -0.0531184 0)
(1.1306 -0.0512339 0)
(1.12692 -0.0490833 0)
(1.12065 -0.0457524 0)
(1.11471 -0.0429403 0)
(1.11118 -0.0410603 0)
(1.10841 -0.039206 0)
(1.10856 -0.0364816 0)
(1.11085 -0.0337872 0)
(1.1106 -0.0315753 0)
(1.1086 -0.029611 0)
(1.10562 -0.0277453 0)
(1.10163 -0.0256311 0)
(1.09448 -0.0226533 0)
(1.08878 -0.0203577 0)
(1.08495 -0.0185942 0)
(1.08213 -0.0168906 0)
(1.0824 -0.0141707 0)
(1.0847 -0.0113731 0)
(1.08426 -0.00914555 0)
(1.08217 -0.00721133 0)
(1.0789 -0.00549108 0)
(1.07395 -0.00323865 0)
(1.06594 -0.000630035 0)
(1.06045 0.00107558 0)
(1.05674 0.00241523 0)
(1.05384 0.00406341 0)
(1.05459 0.006776 0)
(1.05727 0.00957269 0)
(1.05676 0.011888 0)
(1.05431 0.0137997 0)
(1.05105 0.0154804 0)
(1.04407 0.0179282 0)
(1.035 0.0201386 0)
(1.02971 0.021545 0)
(1.02582 0.0226598 0)
(1.02283 0.0242448 0)
(1.02499 0.0267742 0)
(1.02789 0.0296583 0)
(1.02712 0.0319572 0)
(1.02452 0.0338469 0)
(1.0206 0.0355616 0)
(1.01108 0.0379728 0)
(1.00027 0.0397102 0)
(0.994181 0.0406942 0)
(0.990243 0.0413306 0)
(0.988224 0.0426774 0)
(0.991953 0.045411 0)
(0.995196 0.0479622 0)
(0.993437 0.0500312 0)
(0.989919 0.0517538 0)
(0.985219 0.053477 0)
(0.97242 0.0555448 0)
(0.95894 0.0565017 0)
(0.952587 0.0569708 0)
(0.948283 0.0572935 0)
(0.94861 0.0590089 0)
(0.955405 0.0618326 0)
(0.957013 0.0645615 0)
(0.953696 0.0668638 0)
(0.948454 0.0685014 0)
(0.939221 0.0703699 0)
(0.918456 0.0710476 0)
(0.898019 0.0700728 0)
(0.886468 0.0693412 0)
(0.878737 0.0692532 0)
(0.88124 0.0697512 0)
(0.883479 0.0703019 0)
(0.875887 0.0708567 0)
(0.86222 0.069844 0)
(0.841842 0.067774 0)
(0.801001 0.0631284 0)
(0.746643 0.0350152 0)
(0.442722 -0.0343357 0)
(-0.368975 -0.018027 0)
(1.17686 -0.114 0)
(1.17746 -0.110649 0)
(1.17993 -0.108201 0)
(1.17882 -0.105853 0)
(1.17659 -0.1036 0)
(1.17373 -0.101358 0)
(1.17035 -0.0984938 0)
(1.1649 -0.0945443 0)
(1.16024 -0.0917786 0)
(1.15708 -0.0902001 0)
(1.15466 -0.0886249 0)
(1.15614 -0.0867654 0)
(1.15871 -0.0848112 0)
(1.15823 -0.0823302 0)
(1.15614 -0.0797511 0)
(1.15336 -0.0772955 0)
(1.1498 -0.0743342 0)
(1.14418 -0.0704704 0)
(1.13887 -0.0675976 0)
(1.13531 -0.0658257 0)
(1.13249 -0.0643222 0)
(1.13294 -0.0619835 0)
(1.13549 -0.0597027 0)
(1.13506 -0.0575603 0)
(1.13293 -0.0553724 0)
(1.13001 -0.053111 0)
(1.12633 -0.0504603 0)
(1.12025 -0.0470051 0)
(1.11458 -0.0443424 0)
(1.1109 -0.0425983 0)
(1.10802 -0.0409901 0)
(1.10837 -0.0382887 0)
(1.11092 -0.0356233 0)
(1.11053 -0.0334462 0)
(1.10835 -0.0314769 0)
(1.10531 -0.0295435 0)
(1.10129 -0.0272287 0)
(1.09437 -0.0242522 0)
(1.08854 -0.0219325 0)
(1.08468 -0.0201108 0)
(1.08181 -0.0185252 0)
(1.08212 -0.0157584 0)
(1.0847 -0.0129233 0)
(1.08424 -0.0107425 0)
(1.08198 -0.0089194 0)
(1.07869 -0.00723842 0)
(1.07386 -0.00519459 0)
(1.06586 -0.00311 0)
(1.06004 -0.00129308 0)
(1.05623 0.000388271 0)
(1.05326 0.00207816 0)
(1.05396 0.00507015 0)
(1.05703 0.00813243 0)
(1.05659 0.01051 0)
(1.05416 0.0124149 0)
(1.05089 0.0140228 0)
(1.04434 0.0161671 0)
(1.03518 0.0176391 0)
(1.02929 0.0191496 0)
(1.02524 0.020614 0)
(1.02211 0.0222226 0)
(1.02406 0.0251481 0)
(1.02746 0.0284087 0)
(1.02692 0.0307773 0)
(1.02433 0.0326396 0)
(1.02051 0.0341799 0)
(1.01173 0.0360371 0)
(1.00038 0.0368671 0)
(0.993589 0.0381332 0)
(0.9896 0.039076 0)
(0.987149 0.0404593 0)
(0.990459 0.0432607 0)
(0.993909 0.0463195 0)
(0.992616 0.0490233 0)
(0.989325 0.050875 0)
(0.985031 0.0522393 0)
(0.973532 0.0534661 0)
(0.959416 0.0533749 0)
(0.952071 0.0536312 0)
(0.947529 0.0540032 0)
(0.945912 0.0550823 0)
(0.951434 0.0595732 0)
(0.954065 0.0640044 0)
(0.951399 0.0666909 0)
(0.946176 0.0680622 0)
(0.938294 0.0686987 0)
(0.919313 0.0677994 0)
(0.897633 0.0655678 0)
(0.88514 0.0642501 0)
(0.876389 0.0631317 0)
(0.873424 0.0653662 0)
(0.873505 0.0728932 0)
(0.866481 0.0766985 0)
(0.854122 0.0757839 0)
(0.835456 0.0741622 0)
(0.797166 0.0699189 0)
(0.750009 0.0463514 0)
(0.451608 -0.024975 0)
(-0.362663 -0.0124361 0)
(1.17627 -0.11208 0)
(1.17727 -0.108239 0)
(1.17886 -0.105797 0)
(1.17744 -0.103503 0)
(1.17504 -0.101403 0)
(1.17215 -0.0990331 0)
(1.16831 -0.0957744 0)
(1.16362 -0.0924545 0)
(1.15963 -0.0900704 0)
(1.1563 -0.08853 0)
(1.15387 -0.0869476 0)
(1.15588 -0.0846887 0)
(1.15764 -0.0821669 0)
(1.15676 -0.0797675 0)
(1.15461 -0.0773755 0)
(1.15174 -0.0749474 0)
(1.14782 -0.0719827 0)
(1.1427 -0.0687192 0)
(1.13825 -0.0662166 0)
(1.13463 -0.0645228 0)
(1.13175 -0.0630133 0)
(1.13246 -0.0604886 0)
(1.13461 -0.057737 0)
(1.13395 -0.0553423 0)
(1.13184 -0.0530503 0)
(1.1289 -0.0508397 0)
(1.125 -0.0483393 0)
(1.11914 -0.0453396 0)
(1.11405 -0.0430049 0)
(1.1103 -0.0413956 0)
(1.10723 -0.0399389 0)
(1.10748 -0.037349 0)
(1.11021 -0.0344121 0)
(1.10985 -0.0319605 0)
(1.10762 -0.02978 0)
(1.10453 -0.0277174 0)
(1.10044 -0.0253377 0)
(1.09353 -0.0225765 0)
(1.08772 -0.0204892 0)
(1.08381 -0.0188713 0)
(1.08077 -0.0175216 0)
(1.08076 -0.0149639 0)
(1.0837 -0.0118437 0)
(1.08352 -0.00958081 0)
(1.08121 -0.00780489 0)
(1.07794 -0.00621167 0)
(1.07347 -0.00441371 0)
(1.0653 -0.00239452 0)
(1.05883 -0.000521393 0)
(1.05485 0.00126606 0)
(1.0517 0.00287187 0)
(1.05178 0.00586325 0)
(1.05518 0.00954532 0)
(1.05524 0.0120978 0)
(1.05299 0.0138597 0)
(1.0498 0.0152001 0)
(1.04423 0.0167413 0)
(1.03478 0.0177969 0)
(1.02791 0.0191714 0)
(1.02347 0.020847 0)
(1.02004 0.022404 0)
(1.02088 0.0255443 0)
(1.0248 0.0297226 0)
(1.02498 0.0323784 0)
(1.0226 0.0341367 0)
(1.01899 0.0352842 0)
(1.01162 0.0364495 0)
(0.999789 0.0367086 0)
(0.991858 0.0375146 0)
(0.987277 0.0387388 0)
(0.983877 0.0400233 0)
(0.98504 0.0439713 0)
(0.989805 0.0487935 0)
(0.989692 0.0512783 0)
(0.986603 0.0524873 0)
(0.98269 0.0529573 0)
(0.973115 0.052915 0)
(0.958272 0.0513201 0)
(0.949138 0.0513331 0)
(0.943684 0.0523475 0)
(0.939658 0.0533123 0)
(0.942386 0.0580591 0)
(0.947157 0.0636597 0)
(0.945575 0.0657437 0)
(0.940551 0.0663222 0)
(0.933758 0.0668087 0)
(0.917889 0.0663791 0)
(0.89538 0.0633562 0)
(0.880631 0.0613231 0)
(0.871015 0.0605692 0)
(0.864479 0.0602824 0)
(0.86394 0.0627752 0)
(0.859452 0.0636015 0)
(0.84945 0.0616421 0)
(0.835036 0.0599344 0)
(0.80389 0.0574444 0)
(0.764103 0.0311542 0)
(0.456304 -0.0259108 0)
(-0.362226 -0.00357144 0)
(1.17505 -0.110392 0)
(1.17622 -0.106121 0)
(1.17791 -0.103274 0)
(1.17645 -0.100964 0)
(1.17405 -0.0987251 0)
(1.17085 -0.0959308 0)
(1.16636 -0.0930474 0)
(1.16196 -0.0908831 0)
(1.15836 -0.0891691 0)
(1.15512 -0.0875328 0)
(1.15269 -0.0855542 0)
(1.15412 -0.082293 0)
(1.15593 -0.0792134 0)
(1.15481 -0.0767356 0)
(1.15245 -0.0744676 0)
(1.14945 -0.0722461 0)
(1.14547 -0.0699135 0)
(1.1403 -0.0677462 0)
(1.1358 -0.0657708 0)
(1.13228 -0.0637621 0)
(1.12945 -0.0619345 0)
(1.12995 -0.0589619 0)
(1.13237 -0.0555437 0)
(1.13169 -0.0527608 0)
(1.12938 -0.0504986 0)
(1.12636 -0.0485932 0)
(1.12247 -0.0465888 0)
(1.11677 -0.0445418 0)
(1.11166 -0.0428249 0)
(1.10785 -0.0411781 0)
(1.10473 -0.0395761 0)
(1.10429 -0.0368898 0)
(1.10687 -0.0333696 0)
(1.1067 -0.0305787 0)
(1.10456 -0.0282812 0)
(1.1015 -0.0262368 0)
(1.09744 -0.0241539 0)
(1.09073 -0.0219677 0)
(1.08497 -0.0202246 0)
(1.08099 -0.0188152 0)
(1.07781 -0.0176112 0)
(1.07725 -0.0152103 0)
(1.08029 -0.0120188 0)
(1.08037 -0.00956035 0)
(1.0781 -0.0075751 0)
(1.07491 -0.00576918 0)
(1.07076 -0.00382045 0)
(1.06292 -0.00158676 0)
(1.05589 0.000408436 0)
(1.05162 0.00214634 0)
(1.04821 0.00355751 0)
(1.04731 0.00594906 0)
(1.05088 0.00951903 0)
(1.05157 0.0121597 0)
(1.04945 0.0139139 0)
(1.04633 0.0152324 0)
(1.04177 0.0166375 0)
(1.03253 0.0178089 0)
(1.02445 0.0191583 0)
(1.01952 0.0209775 0)
(1.0158 0.0225153 0)
(1.01508 0.0251125 0)
(1.01919 0.029329 0)
(1.02022 0.0321301 0)
(1.01807 0.0338101 0)
(1.01466 0.0349738 0)
(1.00896 0.0361631 0)
(0.997296 0.0363543 0)
(0.987703 0.0368894 0)
(0.982406 0.0384228 0)
(0.978515 0.0397384 0)
(0.977527 0.0423883 0)
(0.982679 0.0470594 0)
(0.983702 0.0498773 0)
(0.980926 0.0510446 0)
(0.977368 0.0516551 0)
(0.970371 0.0521671 0)
(0.955662 0.0503231 0)
(0.944172 0.0492115 0)
(0.937662 0.0503118 0)
(0.932891 0.0510881 0)
(0.931864 0.0536869 0)
(0.937054 0.0603359 0)
(0.937316 0.0652323 0)
(0.933015 0.0676407 0)
(0.92707 0.0685403 0)
(0.915923 0.0682315 0)
(0.894249 0.0625884 0)
(0.876562 0.0577063 0)
(0.865651 0.0564063 0)
(0.856956 0.0564529 0)
(0.852597 0.0600497 0)
(0.848602 0.0631736 0)
(0.840253 0.0610551 0)
(0.828438 0.0585954 0)
(0.807154 0.0544781 0)
(0.78325 0.0292924 0)
(0.459562 -0.021364 0)
(-0.359359 0.000799639 0)
(1.17238 -0.108595 0)
(1.17226 -0.10484 0)
(1.17432 -0.101695 0)
(1.17305 -0.0989523 0)
(1.17073 -0.0964407 0)
(1.16767 -0.093815 0)
(1.16387 -0.0915326 0)
(1.15925 -0.0894704 0)
(1.15516 -0.0874129 0)
(1.15203 -0.085416 0)
(1.14961 -0.0834913 0)
(1.15034 -0.0803185 0)
(1.15203 -0.0770038 0)
(1.15123 -0.0744705 0)
(1.14907 -0.0722922 0)
(1.14623 -0.0704312 0)
(1.14275 -0.0687465 0)
(1.13745 -0.0668179 0)
(1.1322 -0.0644225 0)
(1.12852 -0.0619394 0)
(1.12569 -0.0597403 0)
(1.12539 -0.05655 0)
(1.1279 -0.0530974 0)
(1.12771 -0.0507634 0)
(1.12562 -0.0488282 0)
(1.12273 -0.0471487 0)
(1.11929 -0.0457113 0)
(1.11398 -0.0442122 0)
(1.10803 -0.0424453 0)
(1.10372 -0.0400614 0)
(1.10049 -0.0379193 0)
(1.09908 -0.0349822 0)
(1.10166 -0.0307388 0)
(1.10209 -0.0278367 0)
(1.10007 -0.0259366 0)
(1.09717 -0.0243188 0)
(1.09361 -0.0228349 0)
(1.08755 -0.0214579 0)
(1.08128 -0.0202498 0)
(1.07692 -0.0186815 0)
(1.07354 -0.0172676 0)
(1.07194 -0.0149563 0)
(1.07467 -0.0108956 0)
(1.07537 -0.00751362 0)
(1.0734 -0.00504681 0)
(1.07032 -0.00319384 0)
(1.06644 -0.00159995 0)
(1.05898 -0.000309458 0)
(1.05149 0.00067468 0)
(1.04678 0.00195184 0)
(1.0432 0.00339381 0)
(1.04148 0.00575635 0)
(1.04479 0.00980264 0)
(1.04627 0.0130491 0)
(1.0444 0.0150463 0)
(1.04136 0.0165651 0)
(1.03736 0.0179769 0)
(1.02884 0.0187753 0)
(1.01959 0.0192639 0)
(1.01401 0.0205038 0)
(1.01018 0.0220349 0)
(1.00824 0.0243851 0)
(1.01171 0.0290297 0)
(1.01394 0.0328078 0)
(1.01219 0.0347978 0)
(1.00891 0.0360612 0)
(1.00434 0.0371122 0)
(0.994115 0.0369124 0)
(0.982934 0.0362222 0)
(0.97663 0.037026 0)
(0.972465 0.0384247 0)
(0.969643 0.0404305 0)
(0.973467 0.0455642 0)
(0.976734 0.0505991 0)
(0.974937 0.0524399 0)
(0.971554 0.0527273 0)
(0.966497 0.0527284 0)
(0.953906 0.0505332 0)
(0.94009 0.047874 0)
(0.932087 0.0474805 0)
(0.926884 0.048319 0)
(0.923098 0.0498772 0)
(0.92598 0.0556613 0)
(0.929118 0.0625567 0)
(0.926392 0.066013 0)
(0.920878 0.0671918 0)
(0.913278 0.0674353 0)
(0.896233 0.0633646 0)
(0.875304 0.055534 0)
(0.861987 0.0517406 0)
(0.853169 0.0509574 0)
(0.847088 0.0517995 0)
(0.844502 0.0533431 0)
(0.839025 0.0509261 0)
(0.830093 0.0478655 0)
(0.816258 0.0456483 0)
(0.800346 0.0319201 0)
(0.464831 -0.0128673 0)
(-0.356908 0.00449117 0)
(1.16897 -0.106501 0)
(1.16726 -0.102762 0)
(1.16934 -0.0995857 0)
(1.16854 -0.0965992 0)
(1.16657 -0.0941006 0)
(1.16387 -0.0917969 0)
(1.16059 -0.0898047 0)
(1.15609 -0.0875218 0)
(1.15137 -0.085155 0)
(1.14789 -0.0830562 0)
(1.14521 -0.0810837 0)
(1.14551 -0.0779791 0)
(1.14766 -0.0748568 0)
(1.14712 -0.0727095 0)
(1.14501 -0.0709011 0)
(1.14221 -0.0692363 0)
(1.13893 -0.067539 0)
(1.13357 -0.0648669 0)
(1.12766 -0.0620065 0)
(1.12378 -0.059618 0)
(1.12081 -0.0574845 0)
(1.12024 -0.0544736 0)
(1.12321 -0.0510352 0)
(1.12358 -0.0488632 0)
(1.12159 -0.0474936 0)
(1.11875 -0.0462798 0)
(1.11546 -0.0451477 0)
(1.11044 -0.0435371 0)
(1.10325 -0.0410332 0)
(1.09834 -0.0381497 0)
(1.09501 -0.0354726 0)
(1.09321 -0.0326318 0)
(1.09583 -0.0289277 0)
(1.09719 -0.0264072 0)
(1.09558 -0.0248213 0)
(1.09289 -0.0235902 0)
(1.0897 -0.0227587 0)
(1.08464 -0.02193 0)
(1.07743 -0.0210992 0)
(1.07211 -0.019171 0)
(1.06823 -0.0167403 0)
(1.0657 -0.0140692 0)
(1.06786 -0.00937619 0)
(1.06964 -0.00560295 0)
(1.06802 -0.00367968 0)
(1.06516 -0.00220456 0)
(1.06181 -0.00094769 0)
(1.05571 2.05162e-05 0)
(1.04744 0.000405353 0)
(1.04186 0.00171628 0)
(1.03801 0.00318184 0)
(1.03542 0.00499646 0)
(1.03784 0.00911416 0)
(1.04032 0.0132409 0)
(1.03898 0.0157408 0)
(1.036 0.0174505 0)
(1.03242 0.0186871 0)
(1.02547 0.0194001 0)
(1.0155 0.0192711 0)
(1.00887 0.0201427 0)
(1.00472 0.0212461 0)
(1.00176 0.0226743 0)
(1.00378 0.026965 0)
(1.00754 0.0321923 0)
(1.00665 0.0349358 0)
(1.00354 0.0362787 0)
(0.99966 0.0372399 0)
(0.991651 0.0375316 0)
(0.979459 0.0363362 0)
(0.971672 0.0363139 0)
(0.967053 0.037276 0)
(0.9634 0.038597 0)
(0.964328 0.0423647 0)
(0.96966 0.048855 0)
(0.970083 0.0522907 0)
(0.967079 0.0531603 0)
(0.963004 0.0534472 0)
(0.953664 0.0521438 0)
(0.938814 0.0479436 0)
(0.928494 0.0460554 0)
(0.922196 0.0461862 0)
(0.917358 0.0469685 0)
(0.916173 0.050456 0)
(0.920414 0.0579441 0)
(0.920415 0.0636168 0)
(0.915985 0.066525 0)
(0.909904 0.0674979 0)
(0.899555 0.0664626 0)
(0.879299 0.0581954 0)
(0.861651 0.0502944 0)
(0.851218 0.047035 0)
(0.843614 0.0463066 0)
(0.840105 0.0480579 0)
(0.83735 0.0480222 0)
(0.831949 0.0430772 0)
(0.823211 0.0392409 0)
(0.814008 0.0321874 0)
(0.472985 -0.00549951 0)
(-0.354481 0.00743108 0)
(1.16539 -0.104402 0)
(1.16316 -0.100362 0)
(1.16491 -0.0973752 0)
(1.16405 -0.0946869 0)
(1.16214 -0.0923962 0)
(1.15951 -0.0902095 0)
(1.15639 -0.0881259 0)
(1.15203 -0.0855274 0)
(1.14721 -0.0830018 0)
(1.14375 -0.0810477 0)
(1.14102 -0.0791705 0)
(1.14136 -0.0762171 0)
(1.14374 -0.0733469 0)
(1.1431 -0.0712738 0)
(1.14086 -0.0694707 0)
(1.13803 -0.0676839 0)
(1.13459 -0.0654205 0)
(1.12871 -0.0622622 0)
(1.123 -0.0596115 0)
(1.11933 -0.0577409 0)
(1.11631 -0.0560995 0)
(1.11545 -0.0535538 0)
(1.11885 -0.0503658 0)
(1.11972 -0.0481519 0)
(1.11765 -0.0466624 0)
(1.11476 -0.045375 0)
(1.11151 -0.0439643 0)
(1.10586 -0.0413542 0)
(1.09786 -0.0383077 0)
(1.09294 -0.0361047 0)
(1.08963 -0.0343236 0)
(1.08759 -0.0319776 0)
(1.09051 -0.0283677 0)
(1.09326 -0.0253653 0)
(1.09219 -0.0239253 0)
(1.08951 -0.0230419 0)
(1.08631 -0.022392 0)
(1.08175 -0.0215662 0)
(1.07327 -0.0201721 0)
(1.06642 -0.0176413 0)
(1.0624 -0.0147902 0)
(1.0596 -0.0121584 0)
(1.06106 -0.00797947 0)
(1.06447 -0.0039999 0)
(1.0639 -0.00206181 0)
(1.06141 -0.000936007 0)
(1.05827 -0.000227949 0)
(1.05348 0.000335998 0)
(1.04468 0.000277732 0)
(1.03772 0.00121936 0)
(1.03319 0.0032085 0)
(1.02989 0.00517984 0)
(1.03034 0.00923878 0)
(1.03426 0.014594 0)
(1.03426 0.0173253 0)
(1.03174 0.0187625 0)
(1.02852 0.0197411 0)
(1.02333 0.0203787 0)
(1.0132 0.0197278 0)
(1.00534 0.0196795 0)
(1.00036 0.0209072 0)
(0.996639 0.0222596 0)
(0.995726 0.0254323 0)
(1.00054 0.0317491 0)
(1.00192 0.0359383 0)
(0.999465 0.0375816 0)
(0.995993 0.0383414 0)
(0.990034 0.0387878 0)
(0.978093 0.0371248 0)
(0.968737 0.0357589 0)
(0.963326 0.0360703 0)
(0.95927 0.0368219 0)
(0.957008 0.0386948 0)
(0.961496 0.0448065 0)
(0.965371 0.0508421 0)
(0.963837 0.0534394 0)
(0.96027 0.0541224 0)
(0.954476 0.0540725 0)
(0.941074 0.0498374 0)
(0.927469 0.0451096 0)
(0.919293 0.0444179 0)
(0.913834 0.0448944 0)
(0.909809 0.0462433 0)
(0.911761 0.0519059 0)
(0.914669 0.0589157 0)
(0.912607 0.0628692 0)
(0.907576 0.06495 0)
(0.900872 0.0655113 0)
(0.887149 0.0627027 0)
(0.866948 0.0521871 0)
(0.852374 0.0448344 0)
(0.843695 0.0421594 0)
(0.837901 0.0413343 0)
(0.836689 0.0418399 0)
(0.834725 0.0384409 0)
(0.829796 0.0337776 0)
(0.823397 0.0306701 0)
(0.480472 0.00408005 0)
(-0.352274 0.0108492 0)
(1.16153 -0.102649 0)
(1.15919 -0.0980947 0)
(1.16128 -0.0942903 0)
(1.16014 -0.0918946 0)
(1.15817 -0.0898385 0)
(1.1556 -0.0877734 0)
(1.15258 -0.0857568 0)
(1.14831 -0.0833669 0)
(1.14356 -0.0812757 0)
(1.14011 -0.079807 0)
(1.13729 -0.0784977 0)
(1.13734 -0.0756966 0)
(1.1401 -0.0719308 0)
(1.13953 -0.0692098 0)
(1.13709 -0.0671707 0)
(1.13413 -0.0649534 0)
(1.13036 -0.0624185 0)
(1.12475 -0.0598044 0)
(1.11952 -0.058001 0)
(1.11595 -0.056741 0)
(1.11297 -0.0557316 0)
(1.11165 -0.0538023 0)
(1.11506 -0.0503172 0)
(1.1164 -0.0472063 0)
(1.11437 -0.0450718 0)
(1.11139 -0.0432751 0)
(1.10782 -0.0410695 0)
(1.10137 -0.0381606 0)
(1.09395 -0.0357709 0)
(1.08934 -0.0342999 0)
(1.08614 -0.033229 0)
(1.08384 -0.0316169 0)
(1.08621 -0.0282914 0)
(1.08978 -0.0252593 0)
(1.08895 -0.023591 0)
(1.08623 -0.0225164 0)
(1.08302 -0.0215578 0)
(1.07841 -0.0197213 0)
(1.06913 -0.0170312 0)
(1.06171 -0.0148815 0)
(1.05777 -0.0132859 0)
(1.05478 -0.0117324 0)
(1.05519 -0.00867862 0)
(1.05992 -0.00453926 0)
(1.06065 -0.00209819 0)
(1.05838 -0.000891973 0)
(1.05528 -0.00032234 0)
(1.05123 0.000469032 0)
(1.04253 0.00106439 0)
(1.03382 0.00208993 0)
(1.02854 0.00403488 0)
(1.0249 0.00578012 0)
(1.0234 0.00849016 0)
(1.02812 0.0140379 0)
(1.03048 0.0180485 0)
(1.02871 0.0195129 0)
(1.02566 0.0200332 0)
(1.0216 0.020581 0)
(1.0123 0.020078 0)
(1.0027 0.0193522 0)
(0.996758 0.0202534 0)
(0.992499 0.0219001 0)
(0.989409 0.0240358 0)
(0.992627 0.0298071 0)
(0.99719 0.0360338 0)
(0.996299 0.0386962 0)
(0.993131 0.0394533 0)
(0.989084 0.0398761 0)
(0.979441 0.0381077 0)
(0.967883 0.0348469 0)
(0.960911 0.0343142 0)
(0.956096 0.0352811 0)
(0.952543 0.0364001 0)
(0.952915 0.0403369 0)
(0.959085 0.0481842 0)
(0.960661 0.0529015 0)
(0.957939 0.0546647 0)
(0.953861 0.055039 0)
(0.945219 0.0537001 0)
(0.929558 0.04761 0)
(0.918253 0.0438225 0)
(0.911689 0.0435645 0)
(0.906542 0.0438199 0)
(0.904243 0.0463955 0)
(0.907417 0.0538016 0)
(0.907884 0.0599444 0)
(0.904327 0.0631799 0)
(0.898787 0.0644979 0)
(0.891489 0.0639313 0)
(0.87658 0.0578549 0)
(0.857878 0.0461493 0)
(0.845437 0.0394023 0)
(0.838157 0.0369081 0)
(0.834559 0.0361877 0)
(0.835349 0.0347936 0)
(0.834381 0.0306481 0)
(0.830085 0.0278947 0)
(0.48889 0.0123256 0)
(-0.349614 0.0138668 0)
(1.15736 -0.100653 0)
(1.15442 -0.0965814 0)
(1.15764 -0.0913767 0)
(1.15734 -0.0884397 0)
(1.15544 -0.0866403 0)
(1.15283 -0.0849418 0)
(1.14981 -0.0833293 0)
(1.14557 -0.0814623 0)
(1.14074 -0.0798242 0)
(1.13709 -0.0785673 0)
(1.13407 -0.0776415 0)
(1.13285 -0.0755665 0)
(1.1355 -0.0710986 0)
(1.13573 -0.0670697 0)
(1.13371 -0.0639531 0)
(1.13089 -0.0614339 0)
(1.1274 -0.0594773 0)
(1.12227 -0.0578959 0)
(1.11698 -0.0566052 0)
(1.11325 -0.0556103 0)
(1.11021 -0.0549929 0)
(1.10825 -0.0538247 0)
(1.1108 -0.050639 0)
(1.11257 -0.0466739 0)
(1.11087 -0.0434362 0)
(1.10792 -0.0405608 0)
(1.10418 -0.0379386 0)
(1.09844 -0.0356583 0)
(1.09165 -0.0341769 0)
(1.08708 -0.0331858 0)
(1.08389 -0.0325823 0)
(1.08122 -0.0319403 0)
(1.0826 -0.0297103 0)
(1.08657 -0.0260212 0)
(1.08596 -0.0232936 0)
(1.08314 -0.0214487 0)
(1.07979 -0.0194024 0)
(1.07456 -0.016801 0)
(1.06599 -0.0142414 0)
(1.05914 -0.0128295 0)
(1.05527 -0.0119409 0)
(1.05211 -0.0112958 0)
(1.05106 -0.00943413 0)
(1.05568 -0.00535352 0)
(1.05759 -0.00206023 0)
(1.05542 -0.000651038 0)
(1.0523 0.000414751 0)
(1.04865 0.00186265 0)
(1.04074 0.00355831 0)
(1.031 0.00436773 0)
(1.02536 0.00551854 0)
(1.02175 0.00676009 0)
(1.01911 0.0083828 0)
(1.02205 0.0124383 0)
(1.02678 0.0173746 0)
(1.02605 0.0196759 0)
(1.0231 0.0205665 0)
(1.01963 0.021234 0)
(1.01226 0.021366 0)
(1.00111 0.0204854 0)
(0.993582 0.0209851 0)
(0.988872 0.0225023 0)
(0.985187 0.0238266 0)
(0.985082 0.0271189 0)
(0.991563 0.0343443 0)
(0.993408 0.038859 0)
(0.990971 0.0403293 0)
(0.987649 0.0407439 0)
(0.981676 0.040272 0)
(0.969282 0.0362225 0)
(0.959351 0.0337149 0)
(0.953728 0.0341174 0)
(0.949819 0.0350189 0)
(0.94721 0.0364874 0)
(0.951268 0.0425054 0)
(0.956546 0.0501391 0)
(0.955765 0.0535309 0)
(0.952165 0.0547876 0)
(0.947014 0.0554139 0)
(0.935477 0.0523908 0)
(0.920239 0.0450882 0)
(0.91064 0.0420848 0)
(0.90468 0.0423312 0)
(0.899969 0.0428437 0)
(0.899888 0.0470893 0)
(0.90274 0.0544151 0)
(0.901659 0.0587311 0)
(0.89759 0.060647 0)
(0.891929 0.0613607 0)
(0.883447 0.0600358 0)
(0.86758 0.0520304 0)
(0.850741 0.0401399 0)
(0.840165 0.0335067 0)
(0.834553 0.0311631 0)
(0.834155 0.0293047 0)
(0.836925 0.0267424 0)
(0.834438 0.0246424 0)
(0.497054 0.0206861 0)
(-0.346582 0.0161916 0)
(1.153 -0.0979405 0)
(1.14939 -0.0947439 0)
(1.15282 -0.0892079 0)
(1.15426 -0.0856872 0)
(1.15277 -0.0838081 0)
(1.15029 -0.082482 0)
(1.14743 -0.0813206 0)
(1.14342 -0.0800234 0)
(1.13843 -0.0788973 0)
(1.13438 -0.0777596 0)
(1.1309 -0.0764702 0)
(1.12815 -0.0745874 0)
(1.12926 -0.0697122 0)
(1.13116 -0.0642879 0)
(1.13011 -0.0611889 0)
(1.12773 -0.0590466 0)
(1.1248 -0.057622 0)
(1.12051 -0.0564751 0)
(1.11506 -0.0557972 0)
(1.11103 -0.0551063 0)
(1.10767 -0.0543204 0)
(1.10463 -0.0534559 0)
(1.10486 -0.0501925 0)
(1.10716 -0.0448514 0)
(1.10657 -0.0410629 0)
(1.10434 -0.0380192 0)
(1.10132 -0.0357931 0)
(1.09686 -0.0341783 0)
(1.09005 -0.0332755 0)
(1.08526 -0.032781 0)
(1.08182 -0.0324514 0)
(1.07873 -0.0321707 0)
(1.07828 -0.0308606 0)
(1.08184 -0.0267713 0)
(1.08229 -0.0224353 0)
(1.08015 -0.0187713 0)
(1.07697 -0.0158513 0)
(1.07232 -0.0136112 0)
(1.06446 -0.0124595 0)
(1.05759 -0.0119319 0)
(1.05354 -0.0116722 0)
(1.0502 -0.0115947 0)
(1.04803 -0.0111921 0)
(1.05105 -0.00779413 0)
(1.0542 -0.00285295 0)
(1.05297 0.000544965 0)
(1.05016 0.00279162 0)
(1.04642 0.00468433 0)
(1.03894 0.00608778 0)
(1.02933 0.00648392 0)
(1.02348 0.00641897 0)
(1.01993 0.00662535 0)
(1.01681 0.00706071 0)
(1.01676 0.00970727 0)
(1.02222 0.0156189 0)
(1.02357 0.0197592 0)
(1.02123 0.0217048 0)
(1.01797 0.0228021 0)
(1.01222 0.0238932 0)
(1.001 0.0230686 0)
(0.991904 0.0223333 0)
(0.986756 0.0229463 0)
(0.982936 0.0238469 0)
(0.980445 0.0252941 0)
(0.984595 0.0305131 0)
(0.989796 0.0368926 0)
(0.989136 0.0401266 0)
(0.986113 0.0414553 0)
(0.982138 0.0420002 0)
(0.972634 0.0399835 0)
(0.959792 0.0354335 0)
(0.952437 0.0340524 0)
(0.948151 0.0345128 0)
(0.944569 0.0349992 0)
(0.943565 0.037281 0)
(0.949531 0.0452178 0)
(0.952217 0.052005 0)
(0.9498 0.0548413 0)
(0.945746 0.0556179 0)
(0.939632 0.0553315 0)
(0.925972 0.0503417 0)
(0.911596 0.0436859 0)
(0.903423 0.0416634 0)
(0.898128 0.0415927 0)
(0.894187 0.0424552 0)
(0.895625 0.0479806 0)
(0.897124 0.0546642 0)
(0.894831 0.0580289 0)
(0.890471 0.0591135 0)
(0.884916 0.0589254 0)
(0.876141 0.0558787 0)
(0.860581 0.045765 0)
(0.845571 0.0336202 0)
(0.836793 0.0270639 0)
(0.833331 0.024292 0)
(0.836973 0.0212116 0)
(0.836347 0.020182 0)
(0.504467 0.0289968 0)
(-0.343416 0.0179281 0)
(1.14881 -0.0952027 0)
(1.14504 -0.0926611 0)
(1.14797 -0.0876401 0)
(1.15126 -0.0839121 0)
(1.15047 -0.0819649 0)
(1.14809 -0.0806699 0)
(1.14526 -0.0796197 0)
(1.14186 -0.0787226 0)
(1.13689 -0.0782442 0)
(1.13179 -0.0771417 0)
(1.12746 -0.0743477 0)
(1.12441 -0.0715937 0)
(1.12313 -0.0680447 0)
(1.12613 -0.0625373 0)
(1.12713 -0.0590389 0)
(1.12539 -0.0573899 0)
(1.12262 -0.0562082 0)
(1.1193 -0.0553229 0)
(1.11429 -0.0551657 0)
(1.10939 -0.0550303 0)
(1.10517 -0.0536089 0)
(1.10164 -0.0511665 0)
(1.09925 -0.0483416 0)
(1.10089 -0.0427562 0)
(1.10251 -0.0381414 0)
(1.10131 -0.0361045 0)
(1.09874 -0.0346647 0)
(1.09532 -0.0335839 0)
(1.08961 -0.0333158 0)
(1.08427 -0.0334765 0)
(1.08017 -0.0328673 0)
(1.07655 -0.0316913 0)
(1.07372 -0.0300006 0)
(1.07501 -0.02516 0)
(1.07716 -0.0194179 0)
(1.07618 -0.0163182 0)
(1.0738 -0.0139699 0)
(1.07067 -0.012664 0)
(1.06437 -0.0120828 0)
(1.05732 -0.0126694 0)
(1.05256 -0.0127337 0)
(1.04853 -0.0122132 0)
(1.0451 -0.0114264 0)
(1.04448 -0.00863198 0)
(1.04861 -0.00227193 0)
(1.04934 0.00181773 0)
(1.04722 0.00442405 0)
(1.04419 0.00640297 0)
(1.03913 0.00748536 0)
(1.02979 0.00657831 0)
(1.0226 0.00582355 0)
(1.01828 0.00604142 0)
(1.01464 0.00665449 0)
(1.01219 0.00780147 0)
(1.01557 0.0132002 0)
(1.01963 0.0198049 0)
(1.0188 0.0229946 0)
(1.01588 0.0251329 0)
(1.012 0.0266034 0)
(1.00296 0.0258704 0)
(0.991696 0.023157 0)
(0.985595 0.0225489 0)
(0.981814 0.0226113 0)
(0.978376 0.0229577 0)
(0.977446 0.0255864 0)
(0.983477 0.0337123 0)
(0.986141 0.0394964 0)
(0.984301 0.0416453 0)
(0.9811 0.0430126 0)
(0.975966 0.0437085 0)
(0.964003 0.0394383 0)
(0.952951 0.0344407 0)
(0.947108 0.0333723 0)
(0.943178 0.0338167 0)
(0.93972 0.0344843 0)
(0.940939 0.0384341 0)
(0.946794 0.0470481 0)
(0.947394 0.0520124 0)
(0.944123 0.0539725 0)
(0.939414 0.0553184 0)
(0.931507 0.0554169 0)
(0.916949 0.048915 0)
(0.904358 0.0421141 0)
(0.897007 0.0403466 0)
(0.891971 0.0402969 0)
(0.889196 0.0419502 0)
(0.89142 0.0481452 0)
(0.891972 0.0532615 0)
(0.88928 0.0553217 0)
(0.884899 0.0558968 0)
(0.879388 0.0553872 0)
(0.87041 0.0513045 0)
(0.85591 0.0394926 0)
(0.84241 0.0274521 0)
(0.835252 0.0205828 0)
(0.83606 0.0157307 0)
(0.835994 0.0144099 0)
(0.509507 0.0349272 0)
(-0.340242 0.0187749 0)
(1.14574 -0.0925242 0)
(1.14177 -0.0904178 0)
(1.14379 -0.0868728 0)
(1.14827 -0.0833065 0)
(1.14833 -0.0810477 0)
(1.14613 -0.0796275 0)
(1.14337 -0.0784727 0)
(1.14028 -0.077442 0)
(1.13569 -0.0764636 0)
(1.12869 -0.0747131 0)
(1.1238 -0.0719266 0)
(1.12074 -0.0691928 0)
(1.11891 -0.0662069 0)
(1.12188 -0.0615567 0)
(1.12467 -0.058087 0)
(1.12345 -0.0564637 0)
(1.12087 -0.0553387 0)
(1.11782 -0.0544457 0)
(1.11402 -0.0538814 0)
(1.10787 -0.0535237 0)
(1.10214 -0.0516627 0)
(1.09829 -0.0489348 0)
(1.09543 -0.0463121 0)
(1.09558 -0.0421138 0)
(1.09894 -0.0374405 0)
(1.09879 -0.0349684 0)
(1.0965 -0.0336427 0)
(1.09349 -0.0327889 0)
(1.08954 -0.0324479 0)
(1.08377 -0.0329122 0)
(1.0786 -0.0323237 0)
(1.074 -0.0301025 0)
(1.07058 -0.0277705 0)
(1.06875 -0.0244623 0)
(1.07177 -0.0182361 0)
(1.07321 -0.0140901 0)
(1.07156 -0.0128763 0)
(1.06869 -0.0121033 0)
(1.0648 -0.0119119 0)
(1.0579 -0.0132733 0)
(1.05169 -0.0138645 0)
(1.04664 -0.0122956 0)
(1.04248 -0.00978547 0)
(1.03955 -0.00750583 0)
(1.04138 -0.0021456 0)
(1.04525 0.00417777 0)
(1.04494 0.00652987 0)
(1.04239 0.0074384 0)
(1.03901 0.00790106 0)
(1.03183 0.0067474 0)
(1.02286 0.00464425 0)
(1.01675 0.00498403 0)
(1.01219 0.0070439 0)
(1.00877 0.00885043 0)
(1.00775 0.011923 0)
(1.01308 0.0197338 0)
(1.01541 0.0251398 0)
(1.01371 0.0270274 0)
(1.01057 0.0277181 0)
(1.00556 0.0274758 0)
(0.994638 0.0238926 0)
(0.985508 0.0207492 0)
(0.979999 0.020757 0)
(0.975979 0.0220379 0)
(0.972864 0.0232679 0)
(0.97458 0.0285074 0)
(0.980589 0.0379102 0)
(0.981571 0.0427552 0)
(0.979461 0.0442399 0)
(0.976331 0.0445518 0)
(0.969692 0.0434454 0)
(0.956548 0.0373597 0)
(0.947134 0.033128 0)
(0.941928 0.0324529 0)
(0.938082 0.0327427 0)
(0.934861 0.0339926 0)
(0.937778 0.0405855 0)
(0.942055 0.0497722 0)
(0.940927 0.0543745 0)
(0.937273 0.0561086 0)
(0.932665 0.056293 0)
(0.923971 0.0544087 0)
(0.909031 0.0466823 0)
(0.897575 0.0406822 0)
(0.89094 0.0391708 0)
(0.886319 0.0389158 0)
(0.884875 0.0413214 0)
(0.887136 0.047777 0)
(0.886847 0.0520142 0)
(0.884088 0.0532577 0)
(0.880026 0.0532358 0)
(0.874907 0.0518265 0)
(0.866762 0.0462215 0)
(0.853973 0.0336386 0)
(0.841001 0.0217821 0)
(0.836697 0.012664 0)
(0.835086 0.0078395 0)
(0.511403 0.0389182 0)
(-0.337208 0.0189304 0)
(1.14331 -0.0902989 0)
(1.13927 -0.0885139 0)
(1.14014 -0.0859974 0)
(1.14514 -0.0827618 0)
(1.14605 -0.080318 0)
(1.14416 -0.0786666 0)
(1.14156 -0.0772227 0)
(1.13861 -0.0758533 0)
(1.13405 -0.073893 0)
(1.12594 -0.0712044 0)
(1.12059 -0.0689799 0)
(1.11761 -0.0672097 0)
(1.11552 -0.0650926 0)
(1.11829 -0.0614056 0)
(1.12233 -0.0578897 0)
(1.12176 -0.05587 0)
(1.11932 -0.0545681 0)
(1.11637 -0.0535147 0)
(1.11302 -0.0524246 0)
(1.10626 -0.051096 0)
(1.09907 -0.0492391 0)
(1.09501 -0.0471971 0)
(1.09208 -0.045296 0)
(1.09138 -0.0420621 0)
(1.09548 -0.0371333 0)
(1.09666 -0.0341121 0)
(1.09471 -0.0327747 0)
(1.09198 -0.0319202 0)
(1.08889 -0.0311984 0)
(1.08331 -0.0309589 0)
(1.07623 -0.0304541 0)
(1.07118 -0.0287743 0)
(1.06749 -0.0264744 0)
(1.06468 -0.0239932 0)
(1.0663 -0.0193767 0)
(1.07019 -0.0145057 0)
(1.06935 -0.012334 0)
(1.06675 -0.011404 0)
(1.0637 -0.0109435 0)
(1.05847 -0.0110874 0)
(1.05047 -0.0118079 0)
(1.0443 -0.0109348 0)
(1.04012 -0.00882808 0)
(1.03675 -0.00680019 0)
(1.03557 -0.00373449 0)
(1.04059 0.00211545 0)
(1.04261 0.00632185 0)
(1.04037 0.00786551 0)
(1.03727 0.00845636 0)
(1.03287 0.00883797 0)
(1.02377 0.00733521 0)
(1.01536 0.00661661 0)
(1.01015 0.00795184 0)
(1.00635 0.00961317 0)
(1.00332 0.011184 0)
(1.00528 0.0155343 0)
(1.01108 0.0230507 0)
(1.01143 0.0268646 0)
(1.0086 0.0276943 0)
(1.00523 0.0280438 0)
(0.998557 0.0271258 0)
(0.987111 0.0229871 0)
(0.97885 0.0213178 0)
(0.973784 0.0222458 0)
(0.970242 0.0234685 0)
(0.967881 0.0249667 0)
(0.972427 0.0315774 0)
(0.978054 0.0397902 0)
(0.977673 0.0429426 0)
(0.974927 0.0441971 0)
(0.971147 0.0448462 0)
(0.962413 0.0423557 0)
(0.949687 0.0352829 0)
(0.94134 0.0318971 0)
(0.936116 0.0320728 0)
(0.932206 0.0328988 0)
(0.930078 0.0347374 0)
(0.934557 0.0425254 0)
(0.937461 0.0503691 0)
(0.935429 0.0535363 0)
(0.93134 0.0548039 0)
(0.926022 0.0555531 0)
(0.916263 0.0532831 0)
(0.902036 0.0447348 0)
(0.891773 0.0386978 0)
(0.885528 0.0372306 0)
(0.881324 0.0371343 0)
(0.880921 0.0403511 0)
(0.883153 0.0465574 0)
(0.882649 0.0498601 0)
(0.880143 0.0504149 0)
(0.876471 0.0500635 0)
(0.871964 0.0476525 0)
(0.865363 0.041154 0)
(0.853867 0.029302 0)
(0.843354 0.0166366 0)
(0.833951 0.00161101 0)
(0.508972 0.037436 0)
(-0.334361 0.0190329 0)
(1.14141 -0.0885748 0)
(1.13718 -0.0870372 0)