/*--------------------------------*- C++ -*----------------------------------*\
  =========                 |
  \\      /  F ield         | OpenFOAM: The Open Source CFD Toolbox
   \\    /   O peration     | Website:  https://openfoam.org
    \\  /    A nd           | Version:  12
     \\/     M anipulation  |
\*---------------------------------------------------------------------------*/
FoamFile
{
    format      ascii;
    class       volScalarField;
    location    "4.7";
    object      p;
}
// * * * * * * * * * * * * * * * * * * * * * * * * * * * * * * * * * * * * * //

dimensions      [1 -1 -2 0 0 0 0];

internalField   nonuniform List<scalar> 
9801
(
0.673946
0.682065
0.688419
0.69257
0.695606
0.698516
0.701004
0.701571
0.702242
0.704356
0.707638
0.713765
0.722821
0.729219
0.733494
0.736866
0.740018
0.74159
0.740017
0.741065
0.743823
0.748088
0.756813
0.76587
0.771547
0.775667
0.779291
0.781754
0.780406
0.780209
0.782674
0.786601
0.794317
0.804511
0.811391
0.816134
0.820266
0.82349
0.822524
0.822458
0.824997
0.82896
0.83666
0.847583
0.854901
0.859977
0.864171
0.866587
0.864526
0.864751
0.867945
0.872654
0.881323
0.893757
0.902252
0.907442
0.912141
0.913089
0.90848
0.909034
0.913322
0.918406
0.929528
0.944769
0.954594
0.960737
0.965816
0.965719
0.958143
0.957135
0.96144
0.968714
0.983662
1.00343
1.01594
1.02339
1.02965
1.02919
1.01709
1.01524
1.02201
1.03339
1.05875
1.08432
1.09983
1.11135
1.12125
1.11953
1.10263
1.10296
1.1183
1.14808
1.20013
1.24643
1.28929
1.34031
1.36306
1.93192
5.76081
0.678325
0.687579
0.695091
0.699649
0.702949
0.705837
0.70838
0.708408
0.707936
0.709474
0.712278
0.718406
0.728446
0.735448
0.739914
0.74335
0.746377
0.747634
0.746125
0.74684
0.749226
0.752961
0.761839
0.771478
0.777331
0.781411
0.784797
0.787026
0.786006
0.785997
0.788356
0.791866
0.799538
0.810293
0.817277
0.821896
0.82569
0.828297
0.827257
0.827171
0.829577
0.833244
0.8409
0.852644
0.860502
0.86565
0.869684
0.871913
0.869802
0.869596
0.872301
0.876367
0.884542
0.89783
0.906947
0.912468
0.917085
0.918506
0.914397
0.914204
0.917644
0.922006
0.931965
0.947643
0.958086
0.964566
0.96979
0.97103
0.964443
0.962478
0.966049
0.97222
0.985706
1.00581
1.01874
1.02636
1.03269
1.03379
1.02312
1.02014
1.02619
1.03518
1.05638
1.0829
1.09994
1.11228
1.12358
1.12694
1.11174
1.10891
1.1233
1.1469
1.18899
1.22828
1.26517
1.30491
1.30808
1.86313
5.79405
0.679753
0.689898
0.698573
0.703262
0.706658
0.709513
0.711465
0.709849
0.708925
0.710845
0.713819
0.720041
0.730802
0.738607
0.743221
0.746612
0.749409
0.749887
0.747836
0.74844
0.750852
0.754489
0.763474
0.773754
0.779823
0.783949
0.787356
0.789649
0.788657
0.788522
0.790778
0.794147
0.801632
0.812673
0.819683
0.824252
0.827993
0.830506
0.829434
0.829283
0.831638
0.835242
0.842709
0.854947
0.863152
0.868323
0.872343
0.874811
0.872506
0.871621
0.874176
0.878115
0.8857
0.899459
0.909281
0.915059
0.919744
0.922226
0.918696
0.916848
0.919666
0.923806
0.932008
0.947763
0.959586
0.966562
0.972036
0.975016
0.969636
0.965941
0.968818
0.974459
0.983916
1.00371
1.01908
1.02764
1.03444
1.03803
1.02912
1.02387
1.02842
1.03646
1.051
1.07952
1.10159
1.11525
1.12669
1.13337
1.11995
1.11255
1.12478
1.1451
1.18015
1.22112
1.25638
1.29456
1.29984
1.85066
5.79218
0.682753
0.692682
0.702706
0.707975
0.711381
0.71363
0.7131
0.712064
0.712789
0.714777
0.717391
0.722582
0.733752
0.742303
0.746874
0.750034
0.75195
0.75107
0.750063
0.751507
0.754195
0.757924
0.766909
0.777459
0.783588
0.787621
0.790889
0.792635
0.791007
0.790952
0.793338
0.796775
0.804189
0.815712
0.823107
0.82774
0.831476
0.834071
0.832835
0.832167
0.834307
0.837827
0.844619
0.857139
0.866002
0.871241
0.875235
0.878028
0.876062
0.874515
0.876906
0.880818
0.887339
0.901091
0.912132
0.918266
0.922887
0.925934
0.922875
0.919641
0.921758
0.925931
0.932785
0.948179
0.962279
0.969955
0.97548
0.979434
0.975486
0.969168
0.970603
0.976056
0.983506
1.00194
1.02109
1.03103
1.03792
1.04324
1.03766
1.0279
1.02967
1.0376
1.04825
1.07208
1.09867
1.11493
1.12682
1.13719
1.13204
1.11858
1.12301
1.14094
1.16585
1.20305
1.23761
1.27054
1.28548
1.85816
5.77715
0.687269
0.695299
0.705099
0.710261
0.712935
0.713972
0.71446
0.715474
0.71737
0.719882
0.722593
0.726941
0.736799
0.744844
0.749073
0.751611
0.752636
0.752495
0.753197
0.75545
0.758377
0.762225
0.771128
0.781246
0.787014
0.790716
0.793525
0.794282
0.792711
0.793423
0.796121
0.799709
0.807126
0.818964
0.826729
0.831408
0.835076
0.837696
0.836056
0.834417
0.836268
0.839758
0.845666
0.858205
0.868424
0.874224
0.878489
0.882004
0.881103
0.87816
0.879459
0.882967
0.888148
0.900698
0.913462
0.920543
0.925444
0.929388
0.928591
0.923799
0.924395
0.928246
0.933937
0.946931
0.96299
0.971991
0.977729
0.982501
0.981823
0.973997
0.97282
0.977577
0.983936
0.997727
1.01956
1.03294
1.04054
1.04699
1.04657
1.03506
1.03145
1.03768
1.04695
1.06368
1.09191
1.11349
1.12768
1.13994
1.1453
1.13158
1.12507
1.13628
1.15636
1.18781
1.22094
1.2488
1.26512
1.86802
5.76208
0.691966
0.697522
0.705211
0.710343
0.713268
0.715701
0.718167
0.720298
0.722184
0.724647
0.727507
0.731559
0.739134
0.745614
0.749518
0.752324
0.754632
0.756396
0.757771
0.759964
0.762954
0.766746
0.774914
0.783899
0.789144
0.792622
0.795281
0.796479
0.795771
0.79684
0.799673
0.803267
0.810485
0.822224
0.830024
0.834611
0.838142
0.840596
0.838858
0.836702
0.838529
0.8421
0.84779
0.860259
0.87169
0.877962
0.882293
0.886004
0.886179
0.881438
0.881031
0.884121
0.888913
0.900214
0.915016
0.923519
0.928742
0.933115
0.934943
0.929369
0.926894
0.929707
0.934611
0.944277
0.96213
0.974129
0.980647
0.98586
0.98845
0.981114
0.976031
0.978856
0.984462
0.993647
1.01472
1.03395
1.0441
1.05107
1.05488
1.04554
1.03644
1.03856
1.04675
1.05786
1.08129
1.10744
1.125
1.13855
1.15079
1.14939
1.13443
1.13396
1.14702
1.16926
1.20089
1.22824
1.2445
1.88247
5.75214
0.695816
0.69902
0.704398
0.710754
0.715301
0.719177
0.722423
0.725323
0.727259
0.729204
0.73168
0.734564
0.740271
0.746252
0.750582
0.754459
0.757971
0.760979
0.762656
0.76428
0.767004
0.77041
0.777266
0.785436
0.790525
0.794268
0.797538
0.800235
0.800414
0.800738
0.80326
0.806735
0.813115
0.824404
0.832325
0.836936
0.840456
0.843277
0.84277
0.840273
0.841488
0.844986
0.850028
0.861779
0.874363
0.881145
0.885449
0.889042
0.889966
0.884884
0.882746
0.885426
0.889905
0.899336
0.915967
0.926954
0.932733
0.93709
0.939929
0.935135
0.929988
0.930886
0.935258
0.941952
0.958882
0.975887
0.984492
0.989959
0.994163
0.989356
0.980939
0.980571
0.985183
0.991659
1.00657
1.0304
1.04543
1.05379
1.06034
1.05919
1.04612
1.04147
1.04622
1.055
1.07063
1.09767
1.12009
1.13589
1.14914
1.15861
1.15114
1.13908
1.14245
1.15596
1.17999
1.20778
1.22586
1.89583
5.74369
0.697726
0.699933
0.70426
0.712888
0.719126
0.7232
0.726565
0.729589
0.732103
0.733233
0.734139
0.736067
0.74063
0.748313
0.754153
0.758418
0.761995
0.765214
0.767221
0.768117
0.769965
0.772649
0.777864
0.786864
0.793339
0.797675
0.801312
0.804513
0.80526
0.804856
0.806662
0.809655
0.81426
0.824698
0.834147
0.83936
0.843191
0.846663
0.847631
0.844821
0.845244
0.84822
0.852204
0.8613
0.875248
0.88345
0.888049
0.891797
0.893834
0.889856
0.886649
0.888533
0.892617
0.899288
0.91507
0.929182
0.936024
0.940504
0.943902
0.940785
0.933542
0.932895
0.936624
0.941867
0.954194
0.975209
0.987941
0.99432
0.999151
0.997991
0.987597
0.983246
0.98574
0.991437
1.00003
1.02147
1.04364
1.05552
1.06321
1.06894
1.06149
1.04788
1.04725
1.05411
1.06416
1.08482
1.11074
1.12968
1.14424
1.15748
1.16412
1.15387
1.14331
1.14772
1.16047
1.18475
1.20649
1.90776
5.73327
0.699014
0.701483
0.706461
0.71651
0.723241
0.727327
0.730637
0.733683
0.736159
0.735606
0.73517
0.737205
0.741633
0.751103
0.758527
0.762813
0.766179
0.76926
0.771267
0.770979
0.771706
0.774141
0.778283
0.788004
0.797013
0.801902
0.805495
0.808606
0.809807
0.808523
0.809113
0.811459
0.814941
0.823399
0.835573
0.842625
0.846874
0.850529
0.852547
0.849954
0.849139
0.851163
0.854347
0.859906
0.873586
0.885084
0.890845
0.894896
0.898052
0.895719
0.891478
0.892541
0.896059
0.900434
0.911206
0.928295
0.937753
0.942708
0.946598
0.946492
0.938909
0.936021
0.939027
0.943808
0.950969
0.969922
0.988363
0.997135
1.00245
1.00546
0.997888
0.98792
0.987317
0.991858
0.998268
1.01146
1.03687
1.05513
1.06478
1.07191
1.07452
1.06249
1.05245
1.0546
1.06209
1.07413
1.09825
1.12201
1.13885
1.15238
1.16456
1.16715
1.15476
1.14479
1.14822
1.1604
1.18468
1.91404
5.71963
0.701194
0.704124
0.709693
0.720671
0.727641
0.731578
0.734683
0.73749
0.738712
0.736542
0.736752
0.739126
0.743469
0.753859
0.762726
0.767089
0.770198
0.772907
0.774305
0.773185
0.773679
0.776168
0.779836
0.788782
0.799822
0.80577
0.809244
0.812034
0.813663
0.811874
0.81136
0.813548
0.816872
0.823001
0.836032
0.845679
0.850748
0.854269
0.856916
0.855273
0.852268
0.853012
0.855934
0.860055
0.870605
0.885584
0.893855
0.898575
0.902398
0.902825
0.897693
0.89637
0.898316
0.901622
0.907493
0.923661
0.938344
0.945379
0.950015
0.953158
0.948025
0.942058
0.942987
0.946223
0.950737
0.961359
0.983364
0.997694
1.00469
1.00978
1.0104
0.998518
0.991774
0.994013
0.999393
1.00632
1.02429
1.04911
1.06353
1.07193
1.07902
1.07997
1.06555
1.05774
1.06163
1.07005
1.08509
1.10996
1.1306
1.14588
1.15873
1.16891
1.16875
1.15451
1.14296
1.14329
1.16009
1.90671
5.70434
0.703834
0.707194
0.713107
0.724869
0.731928
0.735564
0.738325
0.74043
0.740078
0.738459
0.739325
0.741789
0.745572
0.755485
0.765631
0.770496
0.773441
0.775935
0.777399
0.776572
0.776909
0.779273
0.782449
0.788857
0.800605
0.808041
0.811884
0.814813
0.81701
0.81597
0.814748
0.816742
0.819978
0.824277
0.835056
0.847302
0.853445
0.857047
0.859723
0.859617
0.855737
0.855713
0.858606
0.86237
0.869211
0.884651
0.896344
0.901976
0.905978
0.908225
0.903815
0.898955
0.899484
0.902572
0.907113
0.918375
0.937379
0.948371
0.95427
0.958535
0.958266
0.949618
0.945734
0.946943
0.950486
0.956243
0.973234
0.995214
1.00642
1.01254
1.01752
1.01468
1.00199
0.997776
1.0003
1.00542
1.01418
1.03678
1.05956
1.07204
1.08009
1.08628
1.08344
1.06913
1.06411
1.06893
1.0778
1.09553
1.11997
1.1385
1.15211
1.16364
1.17109
1.1683
1.15289
1.13685
1.13779
1.8849
5.69009
0.706781
0.710284
0.716036
0.728043
0.73606
0.739737
0.742109
0.743604
0.742838
0.741441
0.742357
0.744703
0.747686
0.755335
0.766364
0.772678
0.776546
0.779652
0.781904
0.781284
0.780979
0.782642
0.785048
0.788447
0.798483
0.808729
0.814144
0.817958
0.821113
0.82169
0.819801
0.820802
0.823447
0.826506
0.832478
0.845522
0.854232
0.8588
0.862551
0.86482
0.86158
0.859768
0.862184
0.865829
0.869913
0.880832
0.896095
0.903988
0.908168
0.911286
0.910373
0.903658
0.90213
0.905108
0.909391
0.915831
0.933141
0.950059
0.957901
0.962648
0.965754
0.959235
0.949616
0.948315
0.951272
0.955926
0.964938
0.987188
1.00628
1.01507
1.02084
1.0252
1.0172
1.0039
1.0018
1.00598
1.01207
1.02372
1.04845
1.06823
1.07894
1.0867
1.09293
1.08849
1.07364
1.06987
1.07535
1.08482
1.10479
1.12802
1.14445
1.15674
1.16681
1.17114
1.1662
1.14602
1.12768
1.84999
5.67648
0.710209
0.713683
0.718468
0.729202
0.737448
0.741766
0.744798
0.747329
0.747785
0.74573
0.74575
0.747377
0.749647
0.754451
0.766356
0.775568
0.780357
0.783801
0.786874
0.787818
0.785617
0.785004
0.786147
0.788768
0.796042
0.809419
0.817523
0.821896
0.825418
0.828077
0.826422
0.82471
0.825317
0.827112
0.830574
0.841365
0.85493
0.86212
0.866362
0.869996
0.870024
0.866205
0.866325
0.868372
0.871082
0.87634
0.891296
0.903836
0.909929
0.914421
0.917416
0.912681
0.907993
0.909627
0.913019
0.916816
0.925549
0.945169
0.957927
0.963762
0.96777
0.96936
0.960002
0.952846
0.954204
0.958725
0.96396
0.976182
0.999974
1.01526
1.02271
1.02752
1.02946
1.01885
1.00798
1.008
1.01263
1.0194
1.0343
1.05948
1.07693
1.08678
1.09423
1.09862
1.09151
1.0779
1.07541
1.08094
1.0911
1.11241
1.13433
1.14896
1.15944
1.16693
1.16919
1.15878
1.1351
1.81552
5.66337
0.714056
0.717043
0.720281
0.729077
0.738863
0.744254
0.747801
0.750734
0.75275
0.750577
0.748206
0.748997
0.751535
0.755578
0.766664
0.778501
0.784487
0.788122
0.79127
0.793169
0.789087
0.78555
0.787082
0.790248
0.796086
0.809902
0.820941
0.826206
0.82983
0.832996
0.832623
0.82726
0.825465
0.82743
0.830897
0.83877
0.854885
0.865659
0.871009
0.874755
0.877334
0.873613
0.869103
0.86858
0.870696
0.87453
0.884907
0.902878
0.91325
0.918868
0.922883
0.923603
0.916506
0.913349
0.91423
0.916598
0.920764
0.933925
0.954543
0.965583
0.971535
0.976125
0.975536
0.964284
0.959554
0.96144
0.965044
0.970092
0.984789
1.00811
1.02097
1.02759
1.03329
1.0351
1.02299
1.01395
1.01525
1.0203
1.02722
1.04389
1.06783
1.08296
1.09201
1.09941
1.1041
1.09636
1.08273
1.08048
1.08561
1.09577
1.11737
1.13786
1.15094
1.15959
1.16489
1.16311
1.15159
1.79728
5.65097
0.717626
0.720108
0.722621
0.729486
0.740484
0.747168
0.751006
0.754
0.756168
0.754364
0.750808
0.75182
0.754441
0.758342
0.76839
0.781156
0.787996
0.791737
0.794714
0.795941
0.791295
0.788182
0.78974
0.792774
0.797665
0.810186
0.823363
0.829753
0.833403
0.836219
0.836539
0.830386
0.827694
0.829708
0.833062
0.838459
0.853206
0.867928
0.87463
0.878635
0.881709
0.880159
0.872309
0.870012
0.87209
0.875596
0.881815
0.899239
0.915927
0.923149
0.927612
0.930881
0.926394
0.916947
0.914285
0.915909
0.919635
0.926206
0.945717
0.966078
0.975062
0.980369
0.984637
0.980402
0.968257
0.963795
0.964856
0.968241
0.974427
0.993515
1.0171
1.02926
1.03573
1.04109
1.04106
1.02854
1.02051
1.02131
1.02559
1.03261
1.05167
1.07527
1.08965
1.09867
1.106
1.10967
1.10098
1.08719
1.0844
1.08894
1.0985
1.1198
1.1393
1.15069
1.15771
1.15905
1.16264
1.7962
5.63779
0.720995
0.723462
0.725883
0.731101
0.741846
0.74942
0.753359
0.755975
0.757414
0.755687
0.754267
0.755774
0.758492
0.762115
0.77073
0.783207
0.790478
0.794507
0.7969
0.797225
0.79446
0.792273
0.793886
0.796846
0.800374
0.809189
0.823465
0.831812
0.83603
0.839063
0.840181
0.835458
0.831796
0.833428
0.836648
0.84039
0.849751
0.866607
0.876491
0.881344
0.884609
0.88563
0.87879
0.873512
0.875108
0.878858
0.882949
0.892644
0.912629
0.924909
0.93086
0.934533
0.935665
0.926142
0.917752
0.917997
0.921575
0.926231
0.936062
0.959008
0.975657
0.983039
0.987761
0.990894
0.982591
0.969336
0.966573
0.969609
0.974266
0.982269
1.00495
1.02663
1.03704
1.04339
1.04881
1.0469
1.03197
1.02359
1.02534
1.03066
1.03905
1.06007
1.08286
1.09615
1.10474
1.11176
1.11522
1.10545
1.09058
1.08698
1.09087
1.0997
1.1204
1.13852
1.14894
1.15164
1.16479
1.81061
5.625
0.724709
0.727541
0.729869
0.733678
0.742789
0.751216
0.755361
0.757858
0.759188
0.758458
0.758313
0.760535
0.763472
0.766406
0.771787
0.782905
0.79117
0.795281
0.798265
0.800493
0.799079
0.797265
0.798273
0.800582
0.80331
0.807591
0.820397
0.832366
0.838006
0.841698
0.844706
0.843186
0.837922
0.837573
0.839786
0.842649
0.84692
0.860793
0.876103
0.883054
0.887366
0.890807
0.889153
0.88125
0.879734
0.881889
0.884816
0.888897
0.902804
0.922125
0.931299
0.936544
0.940617
0.939926
0.928667
0.923859
0.925963
0.929539
0.933704
0.945366
0.9683
0.981508
0.987448
0.991937
0.994319
0.984989
0.974078
0.973492
0.977566
0.982669
0.992014
1.01554
1.03434
1.04337
1.04903
1.05276
1.04969
1.03566
1.02884
1.03114
1.03648
1.04629
1.06878
1.09028
1.10243
1.11024
1.1165
1.11887
1.10879
1.09356
1.08894
1.09179
1.09963
1.11923
1.13614
1.14277
1.16061
1.83497
5.61221
0.728572
0.731572
0.733768
0.736498
0.742191
0.75116
0.756502
0.759748
0.76254
0.763881
0.763694
0.765038
0.767283
0.769804
0.7725
0.779756
0.791224
0.79767
0.801255
0.80423
0.805498
0.802699
0.801505
0.8026
0.805064
0.808456
0.816591
0.831559
0.840521
0.844941
0.848134
0.849702
0.844638
0.840512
0.841251
0.844016
0.847617
0.855361
0.872875
0.885338
0.89095
0.894859
0.897087
0.890893
0.883823
0.883131
0.885221
0.888861
0.895262
0.913914
0.931682
0.939551
0.944629
0.948294
0.943828
0.932462
0.929131
0.930338
0.933171
0.937897
0.95296
0.975674
0.987674
0.994054
0.999501
1.00139
0.990412
0.98076
0.980827
0.983819
0.98814
0.998368
1.02174
1.03882
1.04702
1.05298
1.05824
1.05556
1.0418
1.03558
1.03781
1.04294
1.05277
1.07487
1.09494
1.10632
1.11374
1.11977
1.1225
1.11307
1.0968
1.09026
1.09174
1.09792
1.11645
1.12881
1.15052
1.8615
5.5971
0.732844
0.735024
0.736559
0.738501
0.741178
0.749335
0.758384
0.763167
0.766291
0.769088
0.770032
0.769237
0.769775
0.771347
0.773727
0.777736
0.788976
0.799951
0.805173
0.808121
0.810434
0.809
0.805081
0.805433
0.808044
0.811178
0.815366
0.827052
0.840648
0.847088
0.850483
0.853245
0.852458
0.846031
0.844534
0.846996
0.85051
0.854652
0.866022
0.883874
0.893368
0.89814
0.901195
0.900656
0.891132
0.886153
0.887735
0.891223
0.895364
0.90477
0.926104
0.941049
0.947586
0.951745
0.954399
0.946147
0.933983
0.931772
0.934494
0.938392
0.944394
0.963664
0.986376
0.997017
1.0022
1.00659
1.00685
0.994172
0.984458
0.983974
0.987393
0.99226
1.00487
1.03
1.04714
1.05525
1.06093
1.0655
1.06213
1.04809
1.04104
1.04256
1.04715
1.05609
1.07819
1.09872
1.1103
1.11762
1.12319
1.12586
1.11767
1.09982
1.09013
1.0895
1.0948
1.10892
1.13496
1.88156
5.57921
0.737672
0.738
0.737611
0.738924
0.74127
0.747
0.759133
0.767058
0.770759
0.773583
0.775989
0.774881
0.77294
0.773708
0.775862
0.778563
0.784925
0.79847
0.806861
0.810922
0.813979
0.816052
0.812681
0.81027
0.811691
0.814097
0.81667
0.821733
0.836075
0.84778
0.853299
0.856801
0.859602
0.855997
0.850736
0.851398
0.853995
0.856966
0.86125
0.875582
0.891806
0.898972
0.903271
0.906694
0.904224
0.894668
0.892634
0.895395
0.898953
0.902695
0.913476
0.934408
0.946201
0.951522
0.955304
0.957219
0.948321
0.938441
0.938331
0.942125
0.946872
0.953862
0.973644
0.993198
1.00206
1.00742
1.0113
1.01021
0.997098
0.98846
0.989408
0.99399
0.999881
1.01414
1.03825
1.05359
1.0614
1.06701
1.07097
1.06722
1.05269
1.04486
1.04629
1.0511
1.06046
1.08183
1.10224
1.1139
1.12082
1.12569
1.12782
1.1211
1.1024
1.08836
1.08572
1.08749
1.1159
1.88786
5.55746
0.742585
0.74211
0.739367
0.740257
0.74234
0.745885
0.757028
0.769194
0.774798
0.777859
0.780598
0.781598
0.778078
0.77673
0.778039
0.780204
0.783236
0.793162
0.806989
0.814021
0.817826
0.820958
0.82187
0.81713
0.814809
0.815408
0.817318
0.820452
0.828994
0.845887
0.855991
0.860888
0.864271
0.86559
0.859449
0.855375
0.855901
0.857756
0.860794
0.866905
0.884437
0.899654
0.90654
0.911057
0.914052
0.908726
0.899899
0.898643
0.90022
0.902513
0.906582
0.919503
0.940373
0.951725
0.957495
0.962326
0.964306
0.954886
0.946456
0.946607
0.949103
0.952436
0.959035
0.979025
0.997562
1.00612
1.01117
1.01593
1.01585
1.00408
0.997131
0.998332
1.00203
1.00689
1.0202
1.04324
1.05796
1.06527
1.07064
1.0749
1.0724
1.05949
1.05153
1.05207
1.05591
1.06388
1.08387
1.10413
1.11578
1.12224
1.12653
1.12839
1.1234
1.10516
1.08771
1.07686
1.09483
1.87301
5.53314
0.747129
0.747796
0.742621
0.742315
0.744147
0.746812
0.754227
0.769051
0.777835
0.781876
0.78479
0.787247
0.785435
0.780706
0.779945
0.781342
0.783751
0.78885
0.803754
0.816177
0.821707
0.825022
0.827828
0.82575
0.818994
0.817391
0.819155
0.821925
0.826058
0.839213
0.856127
0.863988
0.867969
0.871076
0.870063
0.861801
0.858348
0.859663
0.862401
0.865847
0.874381
0.894574
0.908397
0.914462
0.918386
0.920352
0.912663
0.903148
0.901386
0.903423
0.906587
0.91126
0.927055
0.948937
0.960109
0.965331
0.970004
0.971184
0.960332
0.95109
0.949825
0.951952
0.955547
0.963324
0.984912
1.00403
1.01343
1.01938
1.02441
1.02361
1.01156
1.00302
1.00255
1.00548
1.01008
1.02326
1.04668
1.062
1.06977
1.07575
1.08123
1.08087
1.06754
1.05729
1.05626
1.05953
1.06549
1.08345
1.10416
1.11612
1.1225
1.12654
1.1281
1.12457
1.10822
1.0838
1.08127
1.83414
5.50973
0.750999
0.753301
0.747458
0.745097
0.746466
0.748892
0.753501
0.76674
0.779652
0.785454
0.788632
0.791362
0.79215
0.786064
0.78196
0.782781
0.78527
0.788815
0.798935
0.815705
0.82444
0.828584
0.8316
0.832959
0.826479
0.820965
0.821475
0.823929
0.826943
0.833009
0.850225
0.864811
0.871249
0.87512
0.877953
0.873455
0.864322
0.862539
0.86444
0.867309
0.870938
0.882536
0.903622
0.915186
0.920821
0.924868
0.926061
0.91628
0.906806
0.905837
0.908278
0.911881
0.917777
0.936363
0.957198
0.966647
0.971831
0.975978
0.976161
0.964182
0.954309
0.953629
0.956956
0.961414
0.970694
0.993975
1.01256
1.02086
1.02575
1.02991
1.02959
1.01665
1.00628
1.00562
1.00937
1.01437
1.02769
1.05222
1.06914
1.0771
1.08241
1.08688
1.08669
1.07392
1.0616
1.05885
1.0616
1.06662
1.08251
1.10362
1.11662
1.1228
1.12599
1.12642
1.1239
1.10573
1.08604
1.78747
5.48865
0.753831
0.757131
0.752548
0.748626
0.749615
0.752014
0.755035
0.763944
0.779412
0.787953
0.791959
0.79457
0.796242
0.792138
0.785566
0.785372
0.787721
0.790651
0.796145
0.811125
0.825254
0.831397
0.834864
0.837513
0.835518
0.826857
0.824224
0.825699
0.828351
0.83194
0.841536
0.861426
0.873648
0.879049
0.882945
0.884049
0.875068
0.866731
0.866083
0.868068
0.87123
0.876083
0.891469
0.912284
0.922326
0.927384
0.931697
0.931593
0.919529
0.910936
0.911263
0.914431
0.91812
0.924973
0.945025
0.963596
0.971821
0.97664
0.981023
0.980356
0.967866
0.959678
0.960616
0.964546
0.969424
0.979334
1.00106
1.01756
1.02513
1.03019
1.03408
1.03329
1.02123
1.01158
1.01153
1.01566
1.0211
1.03407
1.05733
1.07346
1.08137
1.08673
1.09074
1.09036
1.07902
1.06615
1.06216
1.06386
1.06804
1.08202
1.10255
1.11549
1.12129
1.1234
1.12392
1.11855
1.10993
1.7624
5.47051
0.756358
0.759911
0.757391
0.753544
0.753975
0.756246
0.758783
0.762918
0.775633
0.78845
0.793982
0.797021
0.799307
0.79846
0.791617
0.789328
0.791073
0.793713
0.796818
0.804815
0.82201
0.833177
0.838168
0.84141
0.8427
0.835162
0.827736
0.827914
0.830713
0.833899
0.83871
0.852862
0.872169
0.881625
0.886236
0.889574
0.888254
0.875687
0.869058
0.870275
0.873489
0.877083
0.883395
0.902048
0.920941
0.929414
0.933784
0.937194
0.935476
0.922413
0.915392
0.916403
0.919873
0.923938
0.931934
0.952674
0.970096
0.977973
0.982373
0.986288
0.985776
0.974031
0.966691
0.967393
0.970426
0.974242
0.983203
1.00476
1.02132
1.02913
1.03403
1.03896
1.03992
1.02932
1.01997
1.01923
1.02218
1.02636
1.03627
1.05837
1.07533
1.08369
1.0888
1.09312
1.09483
1.08642
1.07304
1.06681
1.06708
1.06958
1.07927
1.09865
1.11201
1.11757
1.11992
1.11739
1.12776
1.76451
5.45304
0.758078
0.762734
0.763373
0.759903
0.758613
0.760039
0.762169
0.764581
0.770631
0.785467
0.795547
0.799923
0.802709
0.803954
0.799416
0.794133
0.79423
0.796399
0.799177
0.803073
0.814653
0.831211
0.839279
0.842957
0.845346
0.84487
0.836428
0.83268
0.834735
0.838037
0.841343
0.846172
0.861848
0.878787
0.886056
0.889874
0.892555
0.89037
0.879471
0.875431
0.877466
0.880813
0.884494
0.890993
0.909323
0.925954
0.933066
0.93714
0.940294
0.938926
0.92761
0.921658
0.922974
0.926524
0.93074
0.938641
0.958278
0.97487
0.982959
0.988047
0.99203
0.991431
0.980239
0.97178
0.971413
0.974822
0.97918
0.987753
1.00842
1.02647
1.03571
1.041
1.04538
1.0472
1.03811
1.02649
1.02314
1.02565
1.03001
1.03824
1.05833
1.07725
1.08739
1.09305
1.09737
1.09989
1.09494
1.08032
1.06981
1.06759
1.06926
1.07537
1.0926
1.10691
1.11414
1.1137
1.13193
1.7853
5.4364
0.760412
0.765848
0.767785
0.766728
0.763012
0.762931
0.764808
0.767378
0.770434
0.779602
0.794098
0.801674
0.805134
0.807215
0.807171
0.801215
0.798457
0.800113
0.802919
0.805647
0.80959
0.822187
0.837678
0.845045
0.849037
0.851889
0.849407
0.841275
0.839485
0.841255
0.843347
0.846134
0.851789
0.868579
0.884476
0.891619
0.895983
0.899483
0.895901
0.885332
0.882151
0.883662
0.885706
0.888931
0.895812
0.914674
0.930892
0.938271
0.943033
0.947266
0.945544
0.934147
0.928595
0.929704
0.932087
0.935503
0.943167
0.963009
0.980055
0.988181
0.992933
0.99738
0.997532
0.986303
0.977596
0.977165
0.980057
0.98423
0.992773
1.01336
1.03161
1.04089
1.04646
1.05054
1.05234
1.0452
1.0331
1.02844
1.03001
1.03384
1.04095
1.05922
1.07932
1.0908
1.09655
1.10034
1.10245
1.0998
1.0866
1.07298
1.06782
1.06797
1.0717
1.08635
1.1019
1.10701
1.12997
1.81772
5.41964
0.761954
0.769056
0.770983
0.772938
0.770053
0.767441
0.7685
0.770743
0.773068
0.776026
0.785889
0.799637
0.80634
0.809892
0.812659
0.812066
0.806422
0.805019
0.806279
0.807858
0.810155
0.814955
0.829611
0.845001
0.852114
0.85572
0.857997
0.853899
0.845504
0.8435
0.845477
0.848413
0.851644
0.85803
0.875857
0.891374
0.898543
0.902576
0.905166
0.900887
0.889967
0.885945
0.88755
0.890675
0.894452
0.90217
0.921696
0.937913
0.945322
0.949477
0.95281
0.950903
0.939187
0.932627
0.933549
0.937007
0.941227
0.949331
0.968795
0.985636
0.99397
0.998817
1.00241
1.00313
0.993834
0.984401
0.983106
0.986355
0.990844
0.998037
1.01626
1.03451
1.04412
1.04932
1.05373
1.05727
1.0533
1.0417
1.0353
1.03573
1.03882
1.04394
1.05878
1.07895
1.09135
1.09735
1.10114
1.10426
1.10431
1.09328
1.07732
1.06874
1.06669
1.06775
1.07998
1.09201
1.11954
1.84842
5.39931
0.760583
0.772421
0.775385
0.778094
0.779199
0.775178
0.773105
0.77358
0.774392
0.775823
0.779254
0.791802
0.806521
0.813501
0.817266
0.819913
0.817538
0.810692
0.808702
0.81018
0.812571
0.815112
0.819911
0.835847
0.850925
0.857774
0.861878
0.864415
0.859554
0.85115
0.849627
0.851422
0.853818
0.856501
0.862548
0.880722
0.895944
0.902762
0.90738
0.910616
0.906879
0.896103
0.892373
0.894068
0.89702
0.900359
0.907102
0.925893
0.941674
0.948804
0.953215
0.957202
0.956952
0.946681
0.940313
0.94109
0.94393
0.947304
0.953439
0.971066
0.98852
0.997585
1.00295
1.00766
1.0103
1.00341
0.993425
0.990519
0.991864
0.994806
0.99998
1.01573
1.03571
1.04755
1.05402
1.05905
1.06377
1.06317
1.05205
1.04248
1.04015
1.04187
1.04516
1.05533
1.07595
1.09165
1.09919
1.10318
1.10602
1.10768
1.10081
1.08337
1.0696
1.06416
1.06406
1.06967
1.10151
1.86594
5.37404
0.755797
0.774157
0.7802
0.783323
0.785874
0.785266
0.77892
0.775191
0.775085
0.776617
0.779053
0.784416
0.800984
0.815388
0.821447
0.824612
0.82667
0.821721
0.814571
0.813443
0.814537
0.815844
0.818208
0.824409
0.843092
0.858692
0.865688
0.870173
0.872301
0.865784
0.856535
0.853938
0.854147
0.855681
0.858812
0.866273
0.886449
0.902658
0.909944
0.914794
0.918167
0.914044
0.902752
0.89816
0.898428
0.899697
0.902916
0.910053
0.92956
0.946708
0.955185
0.960963
0.965388
0.965267
0.954832
0.946671
0.94521
0.94623
0.949462
0.955888
0.973907
0.993358
1.00406
1.01006
1.01515
1.01835
1.0125
1.00009
0.993737
0.994375
0.997947
1.00273
1.01656
1.03871
1.05349
1.06071
1.06541
1.06943
1.07027
1.06019
1.04719
1.04214
1.04336
1.04659
1.05468
1.07409
1.09205
1.1013
1.10542
1.10776
1.10886
1.10515
1.08957
1.07106
1.06124
1.0552
1.08085
1.85818
5.34419
0.751351
0.770599
0.783028
0.787903
0.790588
0.792668
0.788404
0.779535
0.776946
0.778132
0.780382
0.783276
0.79157
0.811204
0.82349
0.828734
0.831818
0.832914
0.825297
0.816956
0.81509
0.816477
0.819222
0.822742
0.832443
0.853932
0.867935
0.873677
0.877345
0.878877
0.869857
0.858452
0.85577
0.857545
0.86038
0.864026
0.873521
0.895379
0.910659
0.91712
0.921129
0.924388
0.919746
0.906118
0.900098
0.901183
0.90416
0.907995
0.916178
0.937733
0.955442
0.963059
0.967393
0.970987
0.971325
0.959743
0.9492
0.948058
0.951042
0.955066
0.961818
0.980049
1.00039
1.01087
1.01622
1.02002
1.02268
1.01825
1.0051
0.998034
0.999038
1.00299
1.00839
1.02124
1.04263
1.05763
1.06499
1.0696
1.07253
1.07319
1.06616
1.05379
1.04747
1.04743
1.04983
1.0552
1.07196
1.09101
1.10136
1.10564
1.10773
1.10858
1.1067
1.09488
1.07457
1.05653
1.06617
1.82336
5.312
0.751146
0.762744
0.781654
0.790737
0.794523
0.79692
0.797374
0.788617
0.780696
0.780074
0.78184
0.78446
0.788327
0.801023
0.821214
0.831317
0.835902
0.838925
0.838058
0.826065
0.818312
0.818891
0.821827
0.825254
0.829423
0.84155
0.862793
0.873855
0.878608
0.881865
0.882909
0.872974
0.86235
0.86105
0.863258
0.866333
0.870561
0.881445
0.902609
0.91588
0.921712
0.92563
0.927945
0.922965
0.910298
0.905545
0.90724
0.910747
0.915721
0.924458
0.944079
0.959636
0.966612
0.970902
0.973536
0.973763
0.965179
0.956577
0.955875
0.958875
0.962914
0.968729
0.984053
1.00255
1.01266
1.01809
1.02216
1.02539
1.02424
1.01447
1.00734
1.00749
1.01065
1.01447
1.0223
1.04117
1.05751
1.06574
1.07023
1.07428
1.07784
1.07519
1.06325
1.05391
1.05154
1.05292
1.05585
1.06704
1.08631
1.09876
1.10395
1.1061
1.10751
1.10723
1.10051
1.07665
1.06601
1.7706
5.28343
0.753101
0.758222
0.77349
0.790247
0.797328
0.800984
0.803387
0.800222
0.787789
0.782816
0.784041
0.786492
0.789302
0.794703
0.811541
0.829898
0.837532
0.841428
0.844005
0.840547
0.828611
0.824196
0.825587
0.827807
0.830308
0.834574
0.849019
0.869183
0.878721
0.883226
0.887222
0.888214
0.876737
0.867073
0.866619
0.868887
0.871595
0.875701
0.887501
0.908474
0.920636
0.925796
0.929503
0.933029
0.928741
0.916798
0.912785
0.914757
0.917626
0.920922
0.928338
0.947101
0.962737
0.970142
0.974642
0.979248
0.981368
0.97398
0.964668
0.962606
0.964468
0.967237
0.971443
0.98348
1.00264
1.01539
1.02223
1.02724
1.0321
1.03363
1.02548
1.01564
1.01238
1.01393
1.0175
1.02291
1.03816
1.05726
1.06921
1.07513
1.07914
1.08244
1.08285
1.07336
1.06049
1.05411
1.0537
1.05577
1.06244
1.08012
1.09589
1.10355
1.10646
1.10711
1.10714
1.09983
1.08864
1.73401
5.25979
0.755824
0.759165
0.765691
0.783355
0.797094
0.802366
0.805209
0.806539
0.800161
0.789687
0.787929
0.789901
0.792502
0.795515
0.802457
0.820486
0.836021
0.842505
0.846145
0.849155
0.844364
0.831742
0.827531
0.829135
0.831986
0.835134
0.840951
0.857461
0.876019
0.884696
0.888797
0.891148
0.890774
0.880364
0.871788
0.871521
0.874297
0.87755
0.882454
0.894575
0.913613
0.925312
0.931103
0.934757
0.937458
0.934156
0.923268
0.918098
0.919224
0.922493
0.926542
0.933715
0.950788
0.967473
0.976264
0.980971
0.984527
0.987331
0.98255
0.971948
0.967024
0.967957
0.9714
0.975699
0.985424
1.00467
1.02051
1.02868
1.03328
1.03709
1.03988
1.03484
1.02317
1.01709
1.01737
1.02043
1.0249
1.03727
1.05728
1.07154
1.07866
1.08296
1.08616
1.08746
1.08095
1.06668
1.05688
1.05453
1.05572
1.05997
1.07535
1.09308
1.10258
1.10559
1.10654
1.10293
1.11225
1.7308
5.23771
0.7599
0.76279
0.765218
0.772802
0.790184
0.80187
0.806646
0.809587
0.810596
0.802585
0.79469
0.794297
0.796239
0.798524
0.801406
0.80874
0.826784
0.84104
0.847072
0.850241
0.851808
0.846924
0.836704
0.834136
0.83624
0.839331
0.842732
0.847633
0.861836
0.878416
0.88634
0.89035
0.893892
0.895143
0.887482
0.879924
0.87944
0.88181
0.884658
0.888193
0.897299
0.915052
0.927638
0.933777
0.937921
0.941571
0.940902
0.932008
0.926169
0.926664
0.929316