/*--------------------------------*- C++ -*----------------------------------*\
  =========                 |
  \\      /  F ield         | OpenFOAM: The Open Source CFD Toolbox
   \\    /   O peration     | Website:  https://openfoam.org
    \\  /    A nd           | Version:  12
     \\/     M anipulation  |
\*---------------------------------------------------------------------------*/
FoamFile
{
    format      ascii;
    class       volScalarField;
    location    "9.19";
    object      p;
}
// * * * * * * * * * * * * * * * * * * * * * * * * * * * * * * * * * * * * * //

dimensions      [1 -1 -2 0 0 0 0];

internalField   nonuniform List<scalar> 
22702
(
1
1
0.851643
1
1.06197
1
1.46812
1
1
0.600683
1.47188
1.47277
1
1.47218
0.880795
1
1
1
1.47179
1
1.47264
1
1.47003
0.659048
1.46871
0.626895
1
1.47029
0.654412
0.652301
1
1.47771
1
1
1
1.43551
1.4728
1.47049
1
1
0.581176
1
1.22988
1
1.46926
1
1
1
1
0.646979
1
0.656398
1
1.47149
1
1.47835
1
1
1
1
0.687796
1
1
0.687626
1
0.664953
1
1
1
0.580222
1
1.47308
1.28364
1
1.47372
1.49777
0.648833
1.4792
0.65672
1
1.47258
0.65912
1.46656
1.46507
1
1
1
1
0.918656
0.583463
1.47499
1
1
0.677015
1
1.47158
0.681585
1
1
1
1
1.2257
1.47231
0.617157
1
1
1.11021
1
0.65847
1
1.48219
1.47134
1
1
0.644031
0.656105
0.594184
1
1
1
1
1
0.906033
1
1.40044
1.0461
1.47334
1
1.47407
1.47209
1.47241
1.46964
1
0.580591
1
0.722995
1
1
1
1
1.47177
1
1
1
1
1.47246
1
1.02855
1
1
1
1
0.647943
1
1.01155
1
0.656473
1
1
1
1.47339
1
1.47111
0.685479
0.630353
1.47366
1.47172
1
1.08112
1.26948
1
1.46191
0.657713
1.43663
1
1
1
1
1.47154
1.3882
1
1.47215
0.702088
1.47102
1
0.657969
1
0.644687
0.63567
0.999771
1
1
1.47228
1
1
1.47079
1
1.47235
1.472
0.65944
1
1
0.65645
1.47132
1
1
1
1.47119
1
0.666049
1
1
1.47172
1.47164
1.47888
1
1.00004
1
1
1
1.4708
1
0.68307
1.48963
1.47128
1.47369
1
1
1
0.647999
1.47051
1.22414
1
1.47376
0.679697
0.680103
1.47379
1.46949
1
1.47743
0.604353
1.41571
1
1
1
1
1.47099
1
1.27812
1.04126
1
1
1.4707
0.711913
0.754824
1
1.46965
0.637792
1.47737
1
1
1
1
1
1
1
0.656172
0.743363
0.687132
1.47164
1
1
1
1
1.42421
1
0.658561
1
0.638853
0.658063
1.47203
0.655349
1.47242
1
1
1
0.997689
0.658173
0.613261
0.999999
1
0.636569
1
1.4721
0.60973
1
1
1.47141
0.682237
1
1.47634
0.645213
1.47073
1
0.646689
0.997648
1
1
1
0.669055
1
1
0.999999
1.00002
1.01385
1.28418
1
0.645481
1
1
1
1
1
1
1
1.47024
1
1.47075
1
1
1
0.661171
1
1.47139
0.662245
1
1.36639
1
1
1.47113
1
1
1
1.46127
1
1
1.46125
1.47102
1
1.08462
1
1
0.723951
1
1
1
0.693547
1
1
1
1
0.657099
1
1
1
1
1
0.618481
1.00007
1.47231
1
1
1.47314
1.47282
1
1
0.666884
0.832213
1.47238
1
1
1
1.4705
0.578849
1
1.47199
1
1
0.718967
0.716775
1
0.660769
0.667443
1
1
1
1
1
1
1
1.47038
1.11292
1.45435
0.632051
0.90585
1.47227
1
1.47406
1.47167
0.682449
0.798137
1
0.67439
1
1.481
1
1
1
1
1.47097
1
1
1
1
1
1
1
1.16724
1.472
1
1.47173
1
1
0.66097
1
1
1
1
1.47102
1.35797
1
1
0.665729
1.47085
1.47165
1
1.47169
1.47052
1.47187
1
0.848761
1
1.47238
0.996736
1.47173
1
0.693598
0.99884
1.47094
1
1
1
1
0.659213
1.47101
1.42712
1
1.46847
1.47126
1.47276
1
1.21051
1.47136
1
1
1.32087
1.06683
1.4722
0.926498
1.47224
1
1.47223
1.47123
1.47195
1.47103
1
1.45131
0.909271
0.888869
1
0.999999
1
1
1.47652
1
1
1
1
1
1.47118
1
1
0.996121
1.47155
1.40258
1
1.38536
1.00004
1
1
1.47076
1
0.997291
1.00415
1
1.47111
1
1.47128
1
1
1.34284
1
1.47218
1.00002
1
1.47336
1
1.47119
1
1
1
1.47093
1
1.47325
1.00001
1.47097
1.47058
1.47127
1.46603
1
1.4705
1.4614
1
0.648846
1.44085
1.33271
1
1.47098
1
0.72091
0.665625
1
1
1
1
1
0.6703
1
1.47138
1.11693
1.47142
1
1
1
1
1
1.47139
1
1.4705
1.27914
0.809642
1
1.00001
1.13428
1.11399
1
1
1.16361
1
0.659257
1.47229
1.47193
1
1
1
1.46975
1
1.00003
1.477
1.47117
0.948255
1
1
0.650027
1.42725
1
1
1
1
1
1.47114
1.47093
1
1.47283
1.47304
1.4711
1
1
1
1
0.610844
1.47062
1
1
1.42872
1.46963
1
1.44332
1.47358
1
1
1
1
1
1.47148
1
1
1
1
1.47708
1
1.46714
0.671027
1
0.665602
1
1
1
0.996964
0.640887
0.999001
1
1
1
1.05988
1
1
0.877239
1
1
1
1
1
1
1
0.999997
0.925815
0.999999
1
0.997638
1
0.658756
1
1
1
1
1.34788
1
1
1
1
0.668407
1
1
1.44275
1.47024
0.999999
1
1
0.888176
1
1
1
1
1
1
0.949174
1.00579
1.47073
1
1
1
1.4683
0.888963
1
1
1
1.47007
1.46965
1
1.00001
1
1
1
1
1
1
1
0.667316
1
1
1.47178
0.671766
1
1.46955
1
0.653152
1
1
0.668045
1
1
1
1
1
1
1
1.46138
1.46993
1
1
1
1
1.42934
1
1.14047
0.650252
1
1
1
1
1
1
1
1.03439
1
1
1.24879
1
1
1
1.38819
1
1
1
1
0.652974
1
1
0.653329
0.662803
1
1
1.47211
1
0.991405
1
1
1
1.32195
0.654681
1
0.649458
1
0.782506
1
1
1
1.47252
1
1
1.47228
1
1
1
1.47211
1
1
1.47247
1
1
0.688228
1
1.14044
1
1
1.4717
1.47257
1.31113
1.41878
1
0.688096
1
1
1.44992
1
0.640621
1
1
1
1.47163
1
1
1
1
1.27963
1
1.45896
1.47338
0.60884
1
1
0.646346
0.659093
1
1
1
1.33014
1.35316
1
1
1
1
1
1
1
1.20037
1.46437
1.0088
1
1.46626
0.595004
1
1
1
1.24679
1
1.09036
1
1.42818
1.46942
1
0.693797
1
1.47227
1
1
1.47053
1.44097
1
1.47532
1
0.708442
1
1
1
1.46622
1.46143
1.41175
1
1.4749
1.47032
1
1.47219
1
1.46969
1
0.636506
0.977292
0.652582
1
1
1
1
1
1.47144
1
1.47071
1
1
1
1.44766
1
0.653571
1.47213
1
0.656062
0.67967
0.662253
1
1.22568
1.03877
1.47374
1.47059
1
0.999999
1
1
1.47142
1
1
1.47133
1.47018
1
1.1554
1.0001
1
0.996599
1.47453
0.853619
1
0.822159
0.660789
0.657455
0.977954
1.46981
1.46513
1.09075
1.47152
1.47095
1
1
1.47286
1.47246
1.47099
1.47144
1
1.47178
0.637306
1.46992
1.47294
1.46945
1.47679
0.865518
0.901188
0.922672
1.47309
0.954065
1.473
1
1
1.47391
1.47211
1
0.674462
1.47142
1.47117
1
1.47139
1.47155
1
1.47132
0.667255
1.47473
1.46716
1.46978
1.47914
1
1
1
1.47184
1.3042
0.634645
1.47156
0.648853
1.47231
1
1
1
1
1.46804
1.47151
1
1
1.47128
0.657729
1.47169
0.659208
1
1.46846
1
0.599288
1.47322
0.737104
1
1.4716
1.47485
1.47145
1
1
1.20197
1.47356
0.649365
1.47123
1
1.4712
0.879869
1.47033
0.667794
1
1.46974
0.697484
1.47379
0.660931
1
1.47161
1
1.47218
1
1.27343
1.45259
1.36648
0.648558
1
1.47172
1
1.47213
1
1.47157
1
1
1.47173
0.990604
1.47422
0.632148
1.43981
1
1.33278
1
1.47349
1.47163
1.47243
1
1.42159
1.47172
1.43432
1.28366
1.45862
1
1.30833
1
1.47212
1
1.05495
1
1.43597
1
1.47163
1.44849
1.44825
1
1.4651
0.659715
1
0.676461
1
1
1
1.48342
1
1.47215
1
1
1
1.47212
1.45769
1.38626
1.47084
1.47059
0.657932
1.4752
1.4685
1
1.40578
1.47159
1.44652
1
1.46292
1.4778
1
1.47814
1.46983
1.47201
1.47279
1
1
1
1.47219
0.61896
1
1.47164
1
1
0.682902
1
1
1.47161
1.47129
1
1.4715
1.47195
1.47266
0.974909
1.47171
1
1.47158
1.47136
1.3711
1
1
1
1.47148
1.4714
1.47151
0.946513
1
1.47714
1.47172
1.47137
1
1.47175
1.47211
1.471
1.47972
1
1.47108
1.47721
1.40549
1.47035
1.47886
1
1.46559
1.46585
1.47134
1.47177
1.47172
0.656164
1.47017
1.46972
1
1.47137
1.47109
1.4717
1.47205
1
1.47077
1.47132
1
1.4713
1.39233
1
1
1
1.47048
1.47786
1
1
1.24573
1
1.47154
1
1
1.47119
1.47384
1.47149
1.47052
1
1
1
1.32568
1
1.47176
1
1
1.47507
1.46705
1
1.47168
0.62938
1.47124
1.47404
0.705995
1
0.623439
1.40585
1.47731
1.47191
1.47273
0.688355
1.47202
1.4719
0.684632
0.656194
1
1.46995
1.47346
1
1
1.4712
1
1.47579
1
1.4076
1
1.21618
1.47269
1.47473
1.32519
1.41936
1.47958
1.4718
1.43756
1
0.611182
1.46951
1.47186
1.4759
1.00001
1
1
1.47843
1
1.47108
1.47176
0.755274
1
1.47157
0.999947
1
1.00003
1.00004
1.47221
1.47241
0.998492
1
1
1.47223
1.47357
1.47176
1.47054
1.47318
0.65138
1.39849
1
1.46785
1.47124
1.47146
1.46178
1
1.47152
1.45829
1.47267
1
1.47174
1.47009
0.859957
1.47117
1.4704
1
1.47071
0.839162
1.47216
0.850594
1.47155
1
1.4717
1.48077
1.47153
1.47175
1.47148
1.471
1.47206
1.47038
1
0.914434
1.47198
1.47194
0.845581
1.47166
0.974453
1.30338
1.47165
1.47383
1.47005
1
1.47435
1.29999
1.47362
0.914733
1.47377
1.4719
1
0.874401
1
1.47576
1
1.32217
1
1.44333
0.881537
1
1.47627
1.47248
1
1.47177
1.47386
1.47917
1.46091
1.4782
1
1.4702
1
1
1
0.904744
1.47213
1.46977
1.47231
1.47167
1.47514
1.47255
1.47061
1.47194
0.906664
1.03006
1
1
1.47781
1.47193
1.4713
1.47149
1.00003
1.24186
1
1.47745
1.42084
1
1
0.7526
1.4713
1
1
0.641453
1.47123
1
1.46401
1.47181
1.47958
1.45229
1.47172
1
0.64002
1.11222
1.47148
1.47158
1
1.47055
1.47128
1.22275
1.00959
1.10117
1
1.47179
1.4711
1
1
0.694702
1
1
1.47166
1.47178
1.47249
1.47174
1.4712
1.47003
1.47163
1.47472
1.47183
1
0.996408
1.47143
1.47215
0.996929
1.47144
1.47125
0.669978
0.599457
1.4709
1.47642
1
1
1.00088
1.47108
1.47353
1.47157
1
1.47158
1
0.849789
1.47734
1.46349
1
1.2056
1.47177
1
1.471
1
1.4711
1.3062
1.47126
1
1.46989
1.4812
0.688219
1.47137
1
1.47011
1.46458
1
0.661224
1.46905
1.38495
0.997799
1.46465
1.4711
1
0.991977
1.47454
0.998545
1.47192
1
1
1.47057
1
1.47008
1.47108
0.996659
1.37376
1
1.47104
1
1
1
1
1.47158
1
1
1.47418
1
1.47114
1
1.29744
1.47819
1.46992
1
1
0.986862
1
1.46948
1.47179
1.46944
1.47125
1.47057
1.47076
1.47143
1
1.47189
1.47226
1
1.47121
1.47134
1
1.47221
0.925445
1.05661
1.47172
1.47103
1.47088
1
1.47136
1
1.47154
1.4714
1
1.47128
1
1
1
1
1.47075
0.643899
0.997944
1
1.47166
1.4701
1
1.47146
1
1.00509
0.636565
1.47157
0.99959
1
1.47044
0.998413
1.47126
1
0.999773
1
1.47177
1.4693
1.47041
1.4741
0.64509
1.47332
1.47028
1.47099
1.11179
1
1
1.19666
1.47147
0.632719
0.641614
1
1.47133
1.47026
1.46989
1
1
1.47278
1.47105
0.999884
1
1.33525
0.640791
1
1.08089
1.47049
1.468
0.998237
1.4717
1.47836
1
0.999064
1
1.46883
1.474
1.18549
1
1.44917
1
1.00203
1.47152
0.582744
1.47122
1.47146
0.996938
0.999912
1.40583
1
0.999689
1
1.47243
1
1.00001
0.62254
1.4712
1.00001
1
1
1
1.47197
1.26069
1
1
0.641726
1.4715
1.26047
1
1
1
1.44812
1.45724
1.47165
1
1
1.47437
1
1.47158
1.47158
1
1
1.47334
1.47174
1.44816
1
1
1.47377
1.47405
1
1
1
1.47366
1
1
1
1.47274
1.47772
1.47541
1
1.46834
1.00003
0.702996
1.4718
1.47192
1
1.47232
1.4429
1.48204
1
1
1.47503
1
1.25031
1.47242
1
0.691976
1
1.47323
1
1
1.47607
1
1
1
1.14082
1.47145
0.693243
1.00001
1.47278
1
1
1.47194
1
1.47451
1
1
1.47157
1.47194
1
1.00005
1
1
1
1
1
1
1.47286
1.47124
1
1.46492
0.663976
1.46554
1
1.47167
1.47589
1.47141
1.47758
1.47641
1
1
1.47378
1
1.28833
1.4751
1.47045
1
1.47518
1.46726
1
1.41948
1
1.47168
1.30387
1.4711
0.997531
1.45662
1.42877
1.47257
1.47219
1.03837
1.47135
1.47505
1
1.47152
1
1.47142
1
1
1
1
0.996332
1.47183
1.47118
1.3798
1
1.47462
1
1
1
0.601184
1
1.46092
1
1.42745
1.45706
1
1
1
1.45184
1.47434
1
1
1.47375
0.654321
1.08066
1
1.4741
1.47195
1.42818
1.46091
1.4718
1
1.47405
1
1
1
1
1.47345
1.47092
1
1.46012
1.04037
1.47195
1.4385
1
1
1.43983
1
1
0.704182
1.32145
1
1
1.47947
1
1.47504
1.42917
1
1.4281
0.655117
1.47172
1.47149
1.4725
1
0.679544
1
1
1
1.47156
1.37461
1
1.48065
1.47184
1
1.47127
1
1
1
1
1.47163
0.999349
1
1.47331
1
1
1.47313
1.47155
1
1.47643
1.08789
1.00002
1
1.47056
1
1.4703
1
1.01169
1.47151
1
1.47144
1
1
1.14645
1.47041
1
1
1
1
1
0.995486
0.65645
0.636005
1.02021
1
1.01235
1
1.02247
1
1.47158
1
1.29694
1
1.47125
1
1
1
1.47129
1
1.36443
1.47023
1
1.24785
1.47146
1
1
1.48248
1.47174
1
1
1.04865
0.657357
1
1.47275
1
1
1
1
1.07463
1.47089
1
1
1
0.682367
1
1.47154
1.47068
1.48294
1
1
1
1
1.23398
1.47744
1
1
1
1.47306
1.47158
1.05686
1
1
1
1.47148
1.47139
1
0.683061
1.47018
1.47166
1.47339
1.47236
1.4715
1
1
1.47723
1.46993
1.47119
0.681157
1.04194
1.47114
1
1
1
1
1
1.47109
0.644725
1
1
1.4712
1.2079
1
1.47751
1
1
1
0.671097
1
1
1.11903
1.47031
1.47078
1
1.46789
1.47946
1
1.08253
1
1.47941
1
1.47096
0.652523
1
1
1
1
1.47124
1.00007
1
1
1
1.45356
1
1
1
1
1.47095
0.672967
1.36756
1.47312
1
1.47251
1
1
1
0.99719
1
1.47242
1
0.806212
1
1
1.00003
1.47222
0.641214
1
1.47041
1
1.47462
1.47191
0.630694
1
1
1.46283
1
1
0.701526
1
1.47017
1
1.4494
0.999331
1.47087
1
1
1
1
1.46036
1
1
1.47131
1
1
1
1
1
1
1
1
1.30571
1
1.14619
1.47088
1
1
1
0.670833
1
1
1
1
1.47054
1.47094
1.04097
1
1
1.47271
1
1
1.47057
1
1.00002
1
1
1
1.00001
1.46904
0.783877
1.47146
1.47337
0.996812
1
1
1
1.27139
1
1
1.4711
1.47163
1
1
1
1
0.604029
1
1
1
1.29013
1
1.47144
1.47597
1
1.47282
1
1
1
1.25021
1
1.4704
1
1.47144
1
1
0.996408
1.4715
1
1
1
1
1
1.4742
1.00002
1
0.703889
1.47087
0.730577
1
1.47158
1
0.995796
1
1.47387
1.46758
1
1.4749
0.870597
1.47185
1.47814
1.00003
1
1
0.663991
1
1
1
1.47198
1.26386
1.47278
1
1
1
1
0.996703
1.47137
1
0.663935
1
1
1
1
1
1
1
1.47916
1.47381
1.4738
1
1
0.996884
1
0.988659
1
1
1
0.627367
0.972602
1
0.662349
0.671168
1
1.47249
1.47158
1
1.47034
1.47103
0.667755
1.30683
1
1
1
0.661303
1.47065
1
0.659832
1
1.47563
1.08796
1
1
1
1
1.47127
1.46982
1
1
1.47142
1
1
1.46829
1.47172
1
1.44441
1.47081
1.47316
0.972444
1.46963
1.00865
0.665408
1.35733
1.47267
1
1
1
0.621264
1
0.658357
1.47588
0.976055
1.47172
0.934611
1
1.47054
1.21254
1
1
1.47151
1
1.18284
1.47106
1
1
1.47034
1.47944
0.664506
1.28737
0.999892
1
1.28155
1
1.47637
0.92517
1.48156
1.47883
1
1
1
1
1.4695
1
1
1.47371
0.999633
1.47018
1.37382
1.46743
0.660358
1
1
1
1
1.47039
1.00005
1.47152
1
1.47171
1.46892
1.05663
1.47225
1.14784
1.47086
1
1.32156
0.685975
1.47779
1.47199
1.36342
1.07682
1.46962
1.47174
1.4715
1.47359
1
0.918565
1.06798
1
1.47162
1.225
1.47077
1.00003
1
1
0.71645
1.47913
1.47117
1.37925
1
1.16968
1
1.47113
1.47322
1
1.47059
1.47142
1
1
1
1.471
1
1.1786
1.4748
1.32591
1
1.46937
1
1
1
1
1
1
1
1
1
1
0.709857
1
1.4576
0.642577
1.26725
0.998546
1.47742
1
1.24656
1.00001
1.30045
1.40137
1
1.00211
1.46877
0.91928
1
1.46916
1.45551
0.928896
1
1.47307
1.47049
1.47429
1
1.47123
1.46878
1.47516
1
1.20831
1
1.00006
1.47023
1
1.47181
1.0657
1.46975
1
1
1.46976
1.46874
0.698062
1
1.47368
1.34983
1.47071
1
1
1.47272
1.46999
0.998248
1
1.41286
0.99695
1.47137
1.00005
1
1
1
1
1.20983
1
1.35923
1.46969
1.34835
1.47264
1
1.00429
1
1
1.47192
1
1.47564
1
1
1
1
0.999999
1
1.05583
1.243
1
1
0.638372
1
1.47038
0.691736
1.47202
1
1.22339
0.999747
1.47184
1.29864
0.671313
1.25196
1.00003
1.47086
1.47135
1
1.28041
1.46799
1.47343
0.998386
1.46679
1.45882
0.637967
1
1
0.998219
1
1.46624
1
0.663665
1.47413
1
1
1.42334
1
1.4693
1
1.47156
1
0.691583
1
1
1.47062
1.47986
1.47814
1
1.46901
1.47155
1.47557
1
1
1.45736
0.999999
0.738418
1
1
1
1.4702
1
1.47159
1.30105
1.46841
1
1.4717
0.999385
1
1
1
1
1
1
0.722452
1
1
1.47126
1
1.47309
1.47774
1
0.654887
0.661032
1
1.47319
1.08121
0.652237
0.63371
1
1.47288
1
1.46923
0.678368
1.00106
1
1
0.999519
1
1
1
0.99991
1.18666
1.47151
1
1
1.47345
1.27162
1
1.41465
1.47076
1.47262
1.1858
1.47261
1
1.47204
1
1.4741
1
1.47821
1.46975
0.997083
1.47364
1.47585
1
1
1
1
1
0.912077
1.47071
1.00004
1.00003
0.590559
0.999984
0.659987
0.601735
1
1.46887
1.47184
1.47028
1
1.47085
1
0.662997
1
1
1.47289
0.819405
1.47298
1
1.4714
1
0.974981
1.47415
1
1
1
1.47491
1
1.47111
0.665667
1
1
1.26488
1
1
1.25215
1
1
1.47201
1
1
1
1
1
1.47929
1.47177
1
1.47202
1.47363
0.65619
1.21355
1.46881
1
1
1.42228
0.998924
1
1
1.47128
1.46747
1.29532
1
1.47058
0.662422
1.43854
0.999458
1
1.47337
1.00003
1.46864
1.39382
1.35549
1
1
1.47145
0.73347
0.603374
1
1.47276
1
1.4707
1
1.27202
1
1
1.4706
1.29735
0.665363
1
0.9985
1
1
1.02683
1.18257
1.47142
1
1.47052
1
1
1
1
1
1
1.06772
0.659713
1
1
1.04113
1
1
1
1
1
1.47065
1
1
1.47064
1.47179
1.33263
1
1
1
0.83532
1.4711
1.32618
1
1
1
1
1.4728
1
1
1
1.47207
1
1
1.33828
1.49303
1.03155
0.734555
1.47659
1.33164
1.47352
1
1.23427
1
1
1
0.601536
1.00257
0.5714
1
0.628379
0.634947
1
0.670143
1
1
1
1.20468
1
1.47198
1.47051
1.00092
1.22056
1.39708
0.603117
0.759153
0.880597
1
1.47185
1.47213
1.47179
1.4716
1.4001
0.867468
1
1.40318
1
1.45747
1
1
0.996456
1.00799
1
1
1
1.47212
1
0.638721
1
1.47251
0.693973
1
1
1.47156
1
1.47177
0.999734
1
1
1.47228
1.4204
1
1.48816
1
1
1.01518
1
1.20856
1
1
0.66103
1
1
1.47042
0.999999
1.47039
1
1.00003
0.666818
1
1
0.656513
1.00089
1
1.47181
0.689838
1.4707
0.652831
1.47291
1
1
1
1
1
1
1
1
1
1
1
1.45039
1
1.47313
1.47085
0.649943
1
1
1
1
1
1
1.45794
1
1
0.662564
1
1
1.47213
1
1
1.17907
1.39334
0.668747
0.679353
0.680779
0.753334
1
0.996606
0.590234
1.00032
1.4431
0.996843
1
1
1.46865
1
1
1
0.754256
1.00001
1.1683
1
1
1.1906
1.47138
1
0.607884
1
1
1
0.99657
1
1.46896
1.47144
1
0.644605
1
1.2506
0.654249
1
0.89883
1
0.996006
0.639996
1
1
1
0.995698
0.605729
1
0.618603
0.998419
1.23755
1.42607
0.673351
0.659512
1
0.990032
1
0.998624
1
1.47288
1.47155
1
1.02018
1.46975
1.47084
1
1
1.47138
1
1
1.00005
1
1.47428
1
1
1.01857
1
0.998582
0.694564
1
1
1
1
1
1.47442
1.0327
1.00005
1
1
1
1
1
1.00003
1
0.648239
1.10091
0.998656
1.47897
1.47161
1
1.01311
1.4701
1.4056
1
1
0.61087
1.47239
1
1.47208
1
1.47186
1.31803
0.642094
1
0.652242
1.42577
0.999681
1
0.658818
0.6056
1
1
1.39523
1
0.999998
0.639579
1
1
1
1.14637
1
0.650014
1.47153
1
1
1
1
1.47245
1
1
1.47605
1.42019
1
1
1
1.46716
0.65652
1
1.47227
1.47162
1
1.37464
0.999999
1.00003
1
1
1.44621
1.00487
1
0.665111
1.24671
1
1
0.997301
1
1
1.47355
1
1
1.00003
1
1.47018
1
1
1
1
1
1
1.00001
1.20549
1
1.46971
1
1
1.47378
1
1
1
1.47181
1.47709
1.04556
1
0.997567
1
1
1
1
1.47142
1
1
1.47222
0.661151
1
1
1
1
1
1
1.37869
1
1
1.47054
1.47332
1
1
1
1.47194
1.47126
1
0.999701
1.46858
1
1
1
1.00002
0.645834
1.0294
0.996155
0.995803
1
1
0.623108
1.47422
1
0.640606
1
1.47043
1.45138
0.665616
0.999396
1.47152
1.47122
1.47203
1
1
0.914894
1.41598
1.38324
0.615315
1
1
1
1.46902
1.47174
0.668367
0.99727
1
1.47145
0.695158
1
1.47293
0.660456
0.972731
1.00707
1
1.47925
1
1
1
1
1
1
1.00011
1.43774
1
1
1.47408
1
1
1
1.47132
1
0.648223
1
1
1
1.16241
1
1
1
1
1
0.786083
1
0.700519
1
1.47165
1.00007
0.871656
0.871797
1.00002
1.00364
1.23605
1
1
0.649815
1.47198
1.47147
1.47123
1
0.645107
0.661024
1
1.47138
1
1
1
1
1
1.00003
1
0.65879
1.29551
1
1
0.674559
0.988959
1.00001
1
1
1
0.647059
1
0.664706
1
1
1.47855
1
1
0.650327
1
1.47105
1
0.605104
1
0.657392
1
1.00837
1.47037
1.48735
1
1
1.47118
1
1
1.1051
0.996762
1
0.998299
1
1.47289
1
0.607491
1.00002
1.47055
0.998845
1
1
0.790462
1
0.999037
0.653517
1.47337
1.16798
1
1.00001
0.906997
1
1
1
0.77601
1
1
1
1.47142
1
0.643068
0.999999
1
1
1
0.654872
1.47285
1.42828
0.661313
1
1.47929
1
1
1.47153
1.47077
1.39539
0.655751
0.997731
0.999258
1
1.47145
1
1
1
1
1.47034
1.00004
1
1
1.47218
1
1
1.47195
0.658761
1
1
1
0.659633
1
0.999999
0.999999
0.998646
1
1
1
1
1.36481
1
1.47316
1.47157
1.48012
1.47176
1.47063
1.47105
1
1.47044
1
1.47095
1.47106
1
0.998833
0.644068
1.40247
0.999894
1
1
1
1
0.979904
1
1.07442
1
1
1
0.86694
1.4719
1.46964
1.47814
1.40666
0.999871
1
1.02213
1.47023
0.997929
1.06787
0.997332
0.682666
1
1.00002
1
1
1
1
1
1.47207
0.643212
1.47153
1.47163
0.995155
0.691396
1
1
1
1.47097
0.727894
1.41291
0.650084
1.4726
1.47732
0.655652
1.47517
1.02371
1
1.47323
0.785222
1
0.998718
0.643271
1
0.705726
1
1.47107
1.4723
0.76002
1
1.47134
0.685663
1
0.659572
1
1.47243
1
1
1.47376
1
0.836836
1
0.99964
0.705907
1.47224
0.999502
1
0.682689
1
1
1
1
1.2501
1
1.47087
1
1
1.48375
1
1
1.47215
1
0.698207
1
0.655116
1.00001
1
1
1
1
1.45023
1.27357
1.4715
1
1.47128
1.43683
0.642218
0.605306
1
1
1.46958
1
0.69639
1
0.987428
1
1
1.47184
1
1.46804
0.653787
1.47278
1
0.631356
1
1
1.47581
1.47007
1
1.00004
1
1.47457
1
1
0.608637
0.999395
0.65211
1
1
1
1.47305
1.46831
1.47214
1
1
0.627702
1
1.4697
1
1
1
1.44593
1.47119
1.4719
0.716212
1.47265
1.47121
0.669972
1.47248
1.00004
0.6736
1.0165
1
1
1.47253
0.715382
1.29819
0.702793
1.4713
0.997309
0.654631
1.47339
1
1
1
1
1.47074
1.47041
0.65608
1
1.00002
0.661809
1.00003
1
0.649079
0.60567
1.32744
1.47298
0.998447
1.47177
1
1.4676
0.820089
0.6667
1.47165
1.48433
1
1.47131
1
1
1.47269
1
1.3493
1.47243
1
1
1
1
1.47084
1.46636
1.47524
1
1
1.47185
1.47181
1.47232
1
1.47091
1
1
1
1
1
0.651329
0.842794
0.611093
1
1
1.46991
1
1
1.47268
0.652844
1
1.47267
1.46649
1.4495
0.636034
1
0.70243
1
1.00003
1.47115
1.22555
1.4712
1.4302
1
0.609529
1
1.47506
1.33118
0.632249
1
1
1
0.780639
1
1
1.47514
1
0.657025
1.47146
1
1
1
1
1
1.37758
1.10626
1
1.47165
1
1.46916
1
0.997393
1
1.47212
1.47828
1.47287
1.47485
0.999577
1.47175
1
1.47096
1.46993
1.397
1
1
0.635397
1.47621
1
1
1.47791
1.47096
1.46791
1
1.47355
1
1
1.00003
1.47757
1.47187
1.12416
1.10223
1.47209
1.47046
0.686863
1
1
1
1
1.00001
1.15794
1
1
1.39746
0.640284
0.999966
1
1.47101
0.999906
0.999826
1.06292
1.42884
1.4788
0.926241
1
0.697579
1
0.987524
1.4718
1.47547
1.46295
0.998994
1
1
0.65895
1
1
1.47172
1.04768
1
1
1
1
1
1
1
0.999938
1.47103
1.00002
1
1
1
1
1.307
1
1.21709
1
1
1.47139
1.4786
0.667364
0.998804
1
1
1
0.656961
1.47326
1.47164
1
1
1
1
1
1
1
1
1.4722
1.47015
0.627852
1.05037
0.658879
1
0.673089
1
1.47185
1.12334
1
1
0.742545
1
1.45073
0.804605
0.996415
0.665564
1
1
1.46997
1.00004
0.99697
0.640861
1.47272
1.47721
1
1
1
1
1.43865
1
1
1.47133
0.998898
1.47183
1.00004
1
1
0.694519
1
1
1.47086
0.662103
0.778511
0.649151
1.47283
0.999366
1
1.47083
0.667884
0.639672
1.01626
1
1
1.47132
1.00004
1.20563
1
1
1.47154
0.659781
1
1
1.00014
1.47196
1.00014
1.45573
1
1.00003
1
1
0.762555
1
0.791227
1.00001
1
1.47526
0.683619
1
0.793303
0.812002
1
1
1.47134
1
1
1
1.47054
1.4716
1.00005
1.45517
1.47155
0.80638
1.47137
1.44681
1
1
1.46592
0.999999
1
1
1
1
1.47872
1.47222
1
1
1
1.47205
1.00022
1
0.651138
0.755026
1
1.00003
1.1766
1
1
0.901057
0.628296
1
1
1
1.47824
1.43165
1.47162
1
1
1
1
0.696465
1
1.45701
1
1.46454
0.664081
1.47708
1
1
1
0.661703
1
1.47147
1.00003
1
0.63319
1.16697
1
0.999668
1.47541
0.644137
0.616445
1
1.47214
0.655012
0.653239
1
0.627294
1
1
1
1
0.709314
1
1
1
1
1.47015
1
1.3589
0.701123
1
1
1
0.657769
1.47206
1
1
0.996858
1.46108
1
1.47204
1.47273
1
1
0.723792
0.653274
1
1
0.643342
1.13757
1.21984
1
1
1.47094
0.997394
1
0.997852
1.47278
1
1
1
1
1
1
1.47125
1
1.16362
1.14906
0.703189
1.4138
1
1.47057
1.47067
1
1
1
0.923014
0.720448
1
1.22556
0.999657
1.41937
1
1
1
0.999999
1
1.00602
1.2107
1.47253
1.47298
1
1.47144
1
0.632241
1
0.9973
0.999795
1
0.642711
1
0.672498
1.00002
1.47504
1.47192
0.640543
1.47611
0.608123
0.996075
1.3593
0.674474
1.33439
1
1
0.998437
1
1
1
1.00007
1
0.692593
1
1
1
1
0.999594
1.47141
0.823095
1
1
1
1.03868
1
1
1
1.26861
0.73382
1
1
1
1.03635
1.47594
1
0.702595
1
1.47304
0.889276
0.634342
1
0.656244
1
1
1.44551
0.998228
1.43907
1
1.00875
1
1
1.47139
1
1
1
1
1.09302
1
1.47112
1.4732
1.47726
0.72106
1.47167
0.997085
1.38198
1
1
0.636191
1
1
0.630834
1.47632
1
1
0.999969
1
1
1
0.647699
0.718651
1
1.4622
1
1.21678
1.47118
0.672236
1.38267
1
1
0.651624
1
1
1.47168
1.47134
1.16545
1
1
1.00167
1.47156
0.719929
0.639091
1.47326
1.47129
1.33523
1.1851
1
0.893701
1
1
1
1.43662
1.47049
1.46975
1
1
1.47459
0.608292
1.42753
0.642814
1
0.652536
1
0.645079
1.47228
0.635783
1
0.99142
0.693078
1
1
1
0.850336
1.43813
1.4709
1.47134
1.46331
1
1
1.47212
1
1
1.4721
1
0.685361
1
0.697036
1
1.47427
1
1
1.02242
1.35984
1
0.999089
0.641674
1.47149
1.00001
0.68724
1.09041
1
1
1.35471
1.47216
1.47117
1
1.46968
1.11817
1
1.02474
1.47121
1
1
1
1
1.47085
1
0.629094
1.46984
0.668197
0.668575
0.817569
1.4703
1.16166
1.47086
1
1.46191
0.997329
1.00003
1.47035
1.47226
1
1.46566
1
1.47129
1
1.47191
1
1.00004
0.999971
1.47446
0.658931
0.650524
0.99796
0.999999
1
1
0.699943
1
1.3075
1
0.663886
1
1.17612
1.47187
1.47728
1
1
1.00003
0.999445
1
1.47251
1.4709
1
1.19419
1.47113
0.856071
1.4712
1.00008
0.635269
1.09878
0.694318
1
1
1.07859
1.47146
1
1
1.03615
0.998591
1
0.632432
1
0.763256
1
1.47097
1
1
0.713411
1.09986
1.06085
0.99851
1.47137
1.47131
0.780149
0.998046
0.645331
0.666233
0.64187
1
1
1
0.999076
0.707669
0.65928
1
1.47122
0.999743
1.47161
1.47167
1.47198
1.4713
1
0.664055
1.46972
0.662605
1
1.4709
1.47109
0.996613
0.817747
1.47015
1.32945
1
0.656994
1
1
1.47879
1
1.0266
1.47325
1
0.619553
0.667502
1
1
0.646833
0.683455
1.47056
1.00004
1
0.614633
0.614932
1.47914
1.45464
1.43837
1.47223
1.12062
0.985549
1.18123
1.46915
1.37264
1
1.2295
1
0.679409
0.849132
1
0.648443
1.4709
1.02311
1.47299
1
1.47131
1.47109
1
1.47128
1.47167
0.644213
1.47623
1
1.4749
1
0.747781
0.658397
1.47159
1
1
1
0.664218
1.46904
1.47236
1
0.662801
1
1
0.664932
1.00004
0.640677
1.47073
1
0.819783
0.670415
1
1
1.27448
1
1
1
1.08087
0.6505
1
1.00001
1
1.47228
0.658884
1
1.47095
0.700394
0.704578
1
1
1.47291
1
1.47381
1.00001
1.47191
0.658867
1
1
0.661842
0.800367
0.678515
1
1
1
1
1.47789
0.633988
1
0.667394
1
1.47837
1
1
0.936223
1
1
0.817893
0.999706
1.00005
1
0.657853
0.659276
1
1
1
1
0.79926
1.47023
1.47197
1
0.664368
0.683802
0.890182
0.664241
1
0.829916
1
0.712675
0.996751
1
1
0.658085
1
1.4724
1.46853
0.650806
1
1
1
1.47518
1
1.0431
0.819287
1.14257
0.661491
1.18189
0.653172
1
1
0.715975
0.906947
1
1.03983
1
1
0.67518
1
0.934475
1.04406
0.669567
1
1.37507
0.743712
0.87341
1
1
1
0.644772
1
0.665134
0.646565
1
0.861559
0.662299
1.06528
0.735637
0.669645
1.47068
1
1.47143
1.24613
0.721504
1.47148
0.635385
0.999059
1.47191
0.999999
1
1.47027
1
0.729205
1
1.06701
1
1
1.47164
1
0.790603
0.817057
1.47181
0.933942
1
0.735124
1.47048
1.47279
0.902212
1
1.47249
1.12139
0.841622
1
1.01233
1
0.647729
1.19838
0.794514
0.766972
1
1
0.673814
1.47135
0.959534
0.665039
0.657868
0.854046
1
1.00954
1.47126
1.47193
1
1
0.999999
0.655706
1.21852
0.999975
1.47075
1.41785
0.641109
1.00001
1.09629
0.873145
1.27967
1.41648
1
1.03302
1
1.00005
0.60637
0.847827
1
1
0.815261
0.60991
1.02367
1
1.00002
0.677964
1.21078
1
1.46534
1
1.03816
1.26296
1
1.45848
1
1
1.46971
1
0.642933
1.47118
0.738905
1.12437
1
0.66567
0.999921
1
1.00003
1
0.784317
1.02716
0.652772
1.33939
1.47232
0.642338
1
1
1
1
1
0.961153
0.613914
1.03762
0.662656
0.665855
1.07594
1
0.999798
1.11819
1
1
0.697072
0.994357
1
1
1.13169
1
1.47119
1
1.4719
1.09455
1.02445
0.671601
1
1
0.687835
1
1
1
1
1.4706
1.04431
0.998059
1
0.634217
1.05227
0.999999
1
1.30761
1
0.611802
1.47241
1
1.00001
1
1.47099
0.636261
0.881706
0.619162
1.35295
1.47466
1
1
1.47205
1
0.652561
1
1
1
1
1
0.774352
1
1.47015
1
1
1.15648
1.47073
0.659927
0.889691
1
1.47215
1
1
1
1
1
1.47242
1.47274
0.684761
1.47128
0.640658
1
1
1.47145
1
1.47327
1.01275
1.02787
1.05867
1.4719
1.07283
1.31827
0.654323
1
0.644052
0.987032
1
1.47217
1
1
0.657836
1.47681
1
1.47325
1
1
1
1
1
1.00001
0.620144
1.47117
0.868241
1.47192
1
0.644202
0.647732
0.708693
1.47405
1.47019
0.952308
1
0.812903
1
1.17027
1
1.47068
0.634328
0.651676
0.85812
1
1.47136
1
1.07641
0.680051
1
1.4709
1.40167
0.998868
1
1.47251
0.663148
1.47192
1.47269
1.47087
0.651393
1.09517
1
1
0.637982
1
0.828615
0.835122
1
1.00002
1.47116
1
1.47732
1.08549
1
1.02476
1.47926
1
0.634234
1
0.763776
1
1
1.38662
1
0.80748
1
0.655087
1.03554
0.96401
0.621924
1.47125
1.37645
1.47133
0.661364
0.707995
0.995813
0.999999
1
0.687472
1.44441
0.646934
0.999967
1
1.47132
1.4732
0.885375
1
0.65628
0.716486
1.31235
0.976564
0.639442
0.999999
0.651516
1.12161
0.646117
1
1.00005
0.813351
1.47279
1.4715
0.824125
0.999589
1
1
0.696094
1
0.649944
1
0.682026
0.647965
1
1
1.00004
0.649257
1.47147
1
1
1.00007
1.00004
0.684587
1.4723
1.4719
0.999999
0.656313
1.47122
1
1.09845
1
1
1.47092
0.652715
1
1
0.722171
0.777308
0.651748
0.709539
1
0.689816
0.997098
1.10325
0.638714
1
1
1.13168
1
1.4135
1
1
1.3211
0.706395
1
0.635641
1.11877
1.47145
1
1
0.672869
0.610453
0.651801
0.717831
0.618903
1.35033
0.999425
1
1
1
1
1.47161
0.69607
1
0.932245
0.999674
0.998639
0.999934
0.764148
1.12412
1
1.4715
1.47149
1
1
1.45152
1.00004
0.999999
1.47179
0.675809
1.47427
0.999999
0.632717
1.47224
1.00005
1
0.839092
1
0.654793
1
1.47112
1
1
1.47578
1
1
1.4773
1
1
1
1.47002
1
0.764773
0.739425
1
0.633923
1.46996
1
1
0.967005
1
1.47513
1.26683
1.37668
1
1
0.659981
1
0.677071
1.47256
1.47238
1.46992
1
1.47172
0.65864
1
0.681117
1.37675
1.42728
1.4717
1.47125
0.738509
0.653821
1
1.29747
1.47268
1.47115
1.47138
0.77032
1.17105
1
1.35733
0.764676
1
1.00002
1
1.00002
0.888511
1
1.47403
1
1
1
1
1
1
1.00006
1.4705
1
1.477
1.34977
0.653931
1.47064
1.02601
1.22923
1
1.47175
1
0.656376
1
1
1
1
1.40127
1
0.638567
1.47247
0.639528
1.47188
1.3743
1.23675
1
1.08619
1.21691
0.995596
0.672884
0.772064
1.00002
0.999999
0.894363
1
0.656471
1.47195
0.659296
0.934811
0.854033
1
1
1
1.01268
1
1
0.69784
0.996618
1.46956
1
1.47139
1
0.652149
1
1
1.47093
1.47184
0.640987
1
1.47204
1
0.808472
0.684584
1.47074
1.42102
1
1.07752
1.47216
0.998668
1
1.19278
1.41356
1.47191
0.996067
1
0.999998
1.39732
1
1
1
1.47147
0.99853
1
1
1.4717
1
1
0.658906
1
1
1
1.47085
1
1
0.843077
1.13836
1.42909
0.797785
1
1.4709
1
1.16338
1
1.46408
0.997268
1.47098
1
0.662859
1
1.31362
1
1
1.4383
1.00001
1.47132
1
1.47746
0.706835
0.663248
1.47133
1
1.39417
1
1.47095
1
1
1.00005
1.4726
1.47196
1.12048
1.47247
0.996047
0.701124
1.47126
0.873395
1
1.47082
1
1.47191
1
1.47364
1.47112
0.996306
0.658091
1
1.4715
1
1.02748
1
1
0.997928
0.752912
1.41971
1
1.41992
1
0.882789
0.658082
1.47211
1.47197
0.740604
1
1.46969
1.4665
1.46666
0.686436
1.47162
0.715477
1.47081
1.46767
1
1
1.47052
1
1
1
1
0.644346
1
1
1.47119
1.47154
1
1.47158
1
1.46859
1.47124
1
1.39135
1
0.629422
1.47175
1.34935
1.13025
0.633589
1.47173
1
1
0.653987
1
1
1.47082
1
1
0.792014
1
1.47137
1.00009
1.46912
0.656099
1.47033
1
1.47229
1.45358
0.875986
1
1.47288
0.757299
1.46763
1.32515
1.47134
1.47574
0.996962
1.46784
1.47156
1.47065
1.47194
1.00081
1
0.629006
1
1.46963
0.826831
1.43058
1
1.46334
1
1
1
1
1
1.46912
0.653004
0.70541
1.47182
1.47231
1
1
1
1
1
1.46771
1.43561
1.47193
1.01424
1
1
1
1.00004
1.47015
1.47104
1
1.47191
1.47202
0.668379
1.32814
1
1.47203
1.47501
1.46865
0.997796
1.47215
1.4706
1
1.424
1
1
1
1
1
1
1.4723
1.47204
1.43739
1.47188
0.653023
0.712565
1.47152
1.47169
1
0.659222
0.946061
1
1.22541
0.658195
1
0.999451
0.998246
0.65082
1
1.47309
1
1
1
1.47165
0.950062
1
1.47096
1.47227
1
1.47138
1
1
1.47138
1
0.658858
1
1.47554
1
1
0.663548
1
1.47142
1
0.634677
0.602883
1
1.47219
1
0.637895
0.879155
1
1.47143
1
1
1
1.47625
1
0.633611
1.06761
1.47271
1.47353
1.47128
1.04374
1.47357
1.47162
1
1.00002
1
1
1.00001
1.47124
1
0.999272
1.47176
1
0.639067
1
1.47095
1.21504
1.04913
1.2119
1.05998
1.48
0.701626
1.47178
1
0.656017
0.997256
1.47174
0.948126
1.47189
1.47103
1.46705
1
1.47324
1.4712
1.47182
1
1.00004
1
1
1.47181
1.32844
1
1
0.66251
0.996752
1
1.47219
1
1.47184
1.47188
1.47621
0.892694
1.47054
1.47155
1.01337
1.22694
1.47273
1.47228
1
1.43396
0.83726
1.44443
0.974716
1.47247
1
1.4712
1.47171
1
0.672719
0.9469
0.724905
1
1.07552
0.996877
1.4745
1
1
0.996518
1
1.227
1.44433
1
1
1.47262
1
1
1.33603
1.47266
1.45325
1.47084
1.47149
1
1.47129
0.742653
1.4708
1
1.00169
0.664886
1
1
0.724729
1
1.13568
1
1.47359
1
1.4628
1.29446
0.653385
1
1
1
1
1
1.47226
1.01142
1
1.46815
1
1.47061
1.47173
0.999999
1