/*--------------------------------*- C++ -*----------------------------------*\
  =========                 |
  \\      /  F ield         | OpenFOAM: The Open Source CFD Toolbox
   \\    /   O peration     | Website:  https://openfoam.org
    \\  /    A nd           | Version:  12
     \\/     M anipulation  |
\*---------------------------------------------------------------------------*/
FoamFile
{
    format      ascii;
    class       volScalarField;
    location    "1.3";
    object      p;
}
// * * * * * * * * * * * * * * * * * * * * * * * * * * * * * * * * * * * * * //

dimensions      [1 -1 -2 0 0 0 0];

internalField   nonuniform List<scalar> 
9801
(
0.813302
0.808623
0.808848
0.811248
0.81682
0.821889
0.824009
0.824728
0.824757
0.824325
0.825123
0.826494
0.830315
0.835801
0.839715
0.841065
0.841206
0.840963
0.840971
0.841806
0.844696
0.851261
0.857102
0.859526
0.859377
0.857768
0.857856
0.858517
0.860638
0.866176
0.875008
0.878904
0.879024
0.877111
0.876083
0.876042
0.877368
0.880425
0.88716
0.897938
0.902191
0.902789
0.900243
0.899098
0.898532
0.899194
0.90133
0.906021
0.917252
0.924165
0.925554
0.925592
0.925303
0.925483
0.926747
0.928168
0.932617
0.942008
0.947237
0.948354
0.949224
0.950239
0.951779
0.954307
0.958329
0.967012
0.973003
0.975189
0.976331
0.977272
0.978561
0.980878
0.984208
0.991128
1.00336
1.0101
1.01271
1.01111
1.01038
1.01241
1.0159
1.02113
1.03179
1.04699
1.05627
1.06125
1.05901
1.0546
1.05651
1.06281
1.07336
1.09682
1.12022
1.13847
1.15815
1.17386
1.18442
1.53372
3.30748
0.817137
0.812597
0.813204
0.815505
0.821666
0.82699
0.829323
0.830483
0.829763
0.82823
0.829171
0.830794
0.83464
0.840479
0.844349
0.846011
0.846295
0.844963
0.845021
0.846429
0.849489
0.855734
0.860943
0.863794
0.864446
0.861885
0.861449
0.862686
0.864906
0.868837
0.877129
0.88318
0.885221
0.884853
0.880774
0.880151
0.881913
0.884406
0.887914
0.89721
0.90435
0.907386
0.907543
0.904293
0.902673
0.904051
0.906477
0.910642
0.91806
0.924679
0.928396
0.930247
0.928338
0.927824
0.930157
0.933005
0.938607
0.944237
0.94865
0.951347
0.952062
0.952033
0.954032
0.957129
0.961414
0.969268
0.975648
0.978973
0.97984
0.97834
0.979909
0.98318
0.986721
0.992682
1.00426
1.01183
1.01595
1.01564
1.01142
1.01302
1.01733
1.02246
1.03275
1.04843
1.05814
1.06411
1.0653
1.05835
1.05822
1.06601
1.07676
1.09508
1.11445
1.13086
1.14797
1.15691
1.14955
1.48168
3.28177
0.818644
0.814508
0.815268
0.817401
0.823364
0.828706
0.831128
0.832358
0.831899
0.830577
0.831366
0.832968
0.83655
0.842229
0.845953
0.847551
0.848019
0.847171
0.847449
0.849085
0.852145
0.857825
0.862468
0.864923
0.865535
0.863978
0.863944
0.865357
0.867688
0.871099
0.878003
0.883709
0.886134
0.886417
0.884015
0.883863
0.885628
0.887945
0.890654
0.898136
0.904713
0.90803
0.908049
0.905839
0.905281
0.907307
0.910423
0.91523
0.921169
0.926059
0.929875
0.931852
0.929451
0.92873
0.931164
0.934947
0.941693
0.947247
0.95099
0.954023
0.955207
0.954469
0.955815
0.958694
0.962954
0.970783
0.977395
0.981124
0.982985
0.981178
0.981519
0.984622
0.988681
0.994859
1.00542
1.01328
1.01777
1.01932
1.0152
1.01476
1.01871
1.02392
1.03265
1.04689
1.0576
1.06489
1.06992
1.06452
1.0604
1.0674
1.07739
1.09266
1.11141
1.1283
1.14521
1.15829
1.14632
1.46307
3.24585
0.82132
0.817622
0.818261
0.819983
0.825442
0.830918
0.833612
0.835064
0.835379
0.834418
0.834664
0.835809
0.838529
0.844061
0.84813
0.849969
0.851016
0.850889
0.850933
0.852227
0.854675
0.859733
0.864554
0.867089
0.868156
0.867877
0.867738
0.868671
0.870571
0.873061
0.878223
0.883935
0.887195
0.889247
0.889361
0.888805
0.889869
0.891694
0.893682
0.898368
0.90312
0.906561
0.908459
0.909196
0.909842
0.911985
0.915356
0.920454
0.924375
0.927294
0.929743
0.930706
0.929766
0.930683
0.933365
0.938072
0.945823
0.95119
0.954536
0.957172
0.957634
0.955392
0.956019
0.958968
0.964207
0.973131
0.980086
0.984079
0.987006
0.985823
0.983732
0.985383
0.988984
0.994946
1.00568
1.01462
1.01969
1.02327
1.02088
1.01737
1.01981
1.02471
1.03187
1.04507
1.05774
1.06609
1.07243
1.07171
1.06495
1.06725
1.07627
1.08841
1.10529
1.12143
1.13653
1.15151
1.14657
1.44704
3.20246
0.823769
0.820665
0.821085
0.822469
0.827204
0.832697
0.835663
0.837412
0.838397
0.838395
0.838076
0.838659
0.840233
0.844937
0.849873
0.852363
0.854041
0.854838
0.854474
0.855017
0.856442
0.86007
0.865969
0.869534
0.87123
0.87204
0.871744
0.871979
0.873145
0.874823
0.878638
0.88417
0.888425
0.891513
0.893214
0.893447
0.893642
0.895131
0.897219
0.900766
0.90368
0.906222
0.908803
0.911378
0.913334
0.915746
0.919598
0.924323
0.927581
0.929865
0.930958
0.930078
0.930015
0.93214
0.935396
0.940967
0.949452
0.954914
0.958176
0.960514
0.959533
0.955911
0.956237
0.959227
0.964989
0.97534
0.983237
0.987537
0.990795
0.99082
0.986547
0.986096
0.989081
0.994221
1.00503
1.01652
1.02288
1.02712
1.02727
1.02192
1.02133
1.02547
1.03125
1.0419
1.0559
1.06607
1.07342
1.0784
1.07323
1.06947
1.0752
1.08517
1.10076
1.11664
1.12938
1.14261
1.14365
1.43925
3.15964
0.826592
0.82386
0.823926
0.825025
0.82897
0.834689
0.837977
0.839922
0.841201
0.841781
0.841397
0.841616
0.842736
0.846275
0.851626
0.85476
0.856861
0.858261
0.858291
0.858031
0.858863
0.860807
0.86643
0.871649
0.874298
0.875959
0.876386
0.875562
0.87628
0.877694
0.880772
0.885347
0.889156
0.89233
0.894747
0.896242
0.897454
0.899264
0.901037
0.903845
0.906234
0.908396
0.910081
0.911898
0.91452
0.918066
0.922815
0.927807
0.930877
0.932661
0.933387
0.932458
0.931927
0.93362
0.936874
0.942637
0.951881
0.95804
0.961356
0.963245
0.961671
0.958112
0.958009
0.960773
0.965532
0.976004
0.985824
0.990815
0.994128
0.994536
0.989866
0.98772
0.989927
0.994111
1.00292
1.01657
1.02537
1.03035
1.03308
1.02811
1.02428
1.02642
1.03143
1.03911
1.05261
1.06485
1.07339
1.08043
1.08232
1.0755
1.07536
1.08232
1.09378
1.10955
1.12278
1.13391
1.13858
1.43654
3.11874
0.829509
0.827028
0.82666
0.827528
0.830627
0.836665
0.840519
0.842577
0.843931
0.844592
0.844082
0.84419
0.845288
0.84837
0.853779
0.857261
0.859503
0.861015
0.86133
0.86101
0.861589
0.862946
0.867058
0.872795
0.876287
0.878474
0.879746
0.87983
0.879991
0.88118
0.883781
0.887862
0.89086
0.893274
0.895284
0.896959
0.898988
0.901872
0.905549
0.908073
0.910048
0.911924
0.913278
0.914145
0.915638
0.918369
0.922884
0.928812
0.933103
0.935561
0.93707
0.936551
0.93548
0.936824
0.93951
0.943555
0.951905
0.959325
0.963103
0.965042
0.964762
0.961529
0.961204
0.963782
0.967354
0.975131
0.986419
0.992974
0.996484
0.99761
0.99341
0.990525
0.992152
0.995876
1.00164
1.01416
1.02586
1.03209
1.03615
1.0352
1.02865
1.02822
1.03233
1.03825
1.04917
1.06257
1.07242
1.07993
1.08581
1.08433
1.079
1.08171
1.08908
1.10156
1.11548
1.12599
1.13159
1.43571
3.07832
0.832558
0.83024
0.829271
0.830014
0.832493
0.838553
0.843132
0.845335
0.846736
0.847269
0.846466
0.846532
0.847681
0.850677
0.856278
0.859955
0.862202
0.863694
0.863959
0.863705
0.864325
0.865642
0.868902
0.874132
0.877671
0.880087
0.881758
0.882575
0.883849
0.8855
0.887727
0.890872
0.893381
0.895488
0.896733
0.8972
0.89893
0.902251
0.907898
0.912665
0.914902
0.916631
0.917473
0.917519
0.917727
0.918778
0.921112
0.926669
0.934001
0.938458
0.940969
0.942219
0.940966
0.941332
0.943136
0.945331
0.949277
0.957278
0.963061
0.966236
0.968468
0.96717
0.966207
0.968264
0.971055
0.97453
0.983187
0.992345
0.997044
0.999827
0.998997
0.995263
0.996147
0.999665
1.00349
1.01057
1.023
1.03171
1.03673
1.03985
1.03619
1.03193
1.03433
1.03932
1.04664
1.05883
1.06981
1.07794
1.08493
1.08977
1.08718
1.08348
1.08727
1.0945
1.10634
1.11749
1.12365
1.43519
3.03641
0.835501
0.833525
0.832017
0.832641
0.834639
0.840295
0.845682
0.848172
0.849586
0.849857
0.848793
0.848838
0.849984
0.852764
0.858668
0.862889
0.865095
0.866443
0.866505
0.866196
0.866785
0.868199
0.871472
0.876184
0.879446
0.881782
0.883404
0.884255
0.885653
0.888404
0.892354
0.894677
0.896647
0.898451
0.89906
0.898521
0.899277
0.901567
0.907558
0.915444
0.91965
0.921638
0.92279
0.921648
0.920025
0.919774
0.920963
0.924141
0.932826
0.940762
0.944676
0.947105
0.947646
0.946119
0.945732
0.946114
0.94788
0.953543
0.963208
0.968896
0.972129
0.973754
0.972138
0.971819
0.973027
0.974964
0.97904
0.98946
0.997972
1.00239
1.00527
1.00316
1.00083
1.00217
1.00495
1.00874
1.01726
1.02912
1.03649
1.04124
1.0438
1.03989
1.03792
1.04095
1.04587
1.05393
1.06587
1.07565
1.08331
1.0901
1.09349
1.09029
1.0879
1.09162
1.09806
1.10826
1.11528
1.43207
2.99203
0.838223
0.83684
0.835054
0.835518
0.837105
0.841819
0.847649
0.850789
0.852408
0.852674
0.851414
0.851262
0.852335
0.854836
0.860506
0.865333
0.868027
0.8695
0.869554
0.868723
0.869082
0.870601
0.874183
0.878829
0.881823
0.883923
0.885248
0.885515
0.886643
0.88969
0.895449
0.899056
0.900717
0.902113
0.901855
0.900601
0.900968
0.902589
0.906209
0.915505
0.922478
0.925722
0.927448
0.926901
0.923062
0.921389
0.922217
0.924453
0.930875
0.941781
0.947852
0.950994
0.953092
0.951464
0.947596
0.946344
0.947807
0.951734
0.962278
0.971639
0.976054
0.978998
0.978922
0.975308
0.973872
0.974702
0.977554
0.985182
0.997958
1.00512
1.00914
1.01134
1.00764
1.00486
1.00573
1.00834
1.01306
1.02416
1.03579
1.04257
1.0476
1.04955
1.0445
1.0428
1.046
1.0512
1.06018
1.07184
1.0809
1.0883
1.09482
1.09759
1.09395
1.09138
1.09404
1.09928
1.10685
1.42572
2.94625
0.840595
0.839893
0.83831
0.838705
0.840026
0.843723
0.849364
0.852805
0.854724
0.855543
0.854604
0.854044
0.854997
0.857197
0.862393
0.86718
0.869974
0.871592
0.872169
0.871571
0.871875
0.873454
0.877282
0.881719
0.8844
0.886275
0.887417
0.887078
0.88771
0.890015
0.896462
0.902341
0.904871
0.906139
0.905559
0.903416
0.903396
0.904932
0.907198
0.913628
0.923065
0.927966
0.93064
0.931789
0.927798
0.924005
0.924467
0.92654
0.930907
0.941717
0.950128
0.954034
0.956465
0.955653
0.949646
0.947442
0.949074
0.952137
0.960788
0.973051
0.979395
0.982974
0.984494
0.979845
0.975175
0.975354
0.977904
0.982681
0.995017
1.00652
1.01185
1.01568
1.01568
1.00947
1.00701
1.00881
1.01244
1.01959
1.03309
1.04342
1.04916
1.05332
1.05331
1.04776
1.04703
1.05068
1.05617
1.06608
1.07777
1.08654
1.09343
1.09909
1.10085
1.09672
1.09296
1.09408
1.09865
1.41528
2.90052
0.842905
0.842746
0.841403
0.841889
0.843183
0.846278
0.851194
0.854485
0.856441
0.857443
0.857322
0.857301
0.858298
0.860257
0.864623
0.868876
0.871522
0.873279
0.8741
0.873705
0.874579
0.876759
0.880896
0.884702
0.887104
0.888916
0.889888
0.889071
0.889391
0.891012
0.895494
0.903549
0.908057
0.909958
0.910502
0.908154
0.906778
0.907619
0.909256
0.912546
0.921395
0.9287
0.932033
0.934068
0.932808
0.928079
0.927594
0.929567
0.932739
0.9413
0.951301
0.956159
0.958806
0.958609
0.952636
0.949929
0.951568
0.954401
0.960229
0.97282
0.981643
0.985573
0.988134
0.985111
0.978136
0.977353
0.979776
0.983108
0.99131
1.00535
1.01352
1.01759
1.02028
1.01637
1.01016
1.01051
1.01382
1.01827
1.02829
1.04145
1.04936
1.05444
1.05792
1.05604
1.05071
1.05126
1.05541
1.06144
1.07231
1.08335
1.09112
1.09736
1.10175
1.10261
1.0985
1.09324
1.0924
1.40101
2.85488
0.844948
0.84504
0.844064
0.84492
0.846525
0.849739
0.853376
0.856114
0.857961
0.859032
0.859242
0.860186
0.861879
0.864279
0.867428
0.870644
0.873194
0.875096
0.875704
0.875239
0.876405
0.879337
0.884737
0.888059
0.890189
0.891899
0.892661
0.891507
0.891461
0.892672
0.894988
0.902445
0.909766
0.913188
0.914865
0.914266
0.911001
0.910145
0.911235
0.913412
0.919578
0.928653
0.93334
0.935724
0.936296
0.932975
0.931619
0.933312
0.935736
0.940801
0.95037
0.956393
0.959095
0.96005
0.957256
0.954309
0.955653
0.958404
0.961842
0.970286
0.980839
0.986145
0.988798
0.988964
0.984189
0.981163
0.982951
0.986031
0.990265
1.00093
1.01238
1.01812
1.0216
1.02225
1.01676
1.01413
1.01662
1.02029
1.02534
1.03642
1.0475
1.05412
1.05881
1.06139
1.05823
1.0546
1.05654
1.06093
1.06718
1.07782
1.08747
1.09416
1.09962
1.10286
1.10332
1.09887
1.09159
1.38301
2.80902
0.846814
0.847269
0.846627
0.847829
0.85006
0.853355
0.855904
0.857919
0.859628
0.860498
0.860735
0.862034
0.865078
0.868559
0.870882
0.872962
0.875263
0.877077
0.87718
0.876783
0.877969
0.880677
0.886948
0.891774
0.893809
0.895347
0.895972
0.894368
0.893582
0.89439
0.896145
0.900982
0.910201
0.915372
0.917943
0.918956
0.916133
0.91347
0.91405
0.91586
0.919477
0.927626
0.934128
0.937163
0.938786
0.938077
0.936227
0.936902
0.93872
0.941086
0.94725
0.955651
0.960051
0.962471
0.963067
0.960355
0.959705
0.961434
0.963807
0.967331
0.976408
0.985213
0.989501
0.992444
0.99207
0.987306
0.986544
0.988796
0.991791
0.996685
1.00779
1.01714
1.02193
1.02523
1.02518
1.02023
1.01937
1.02215
1.02583
1.03155
1.04269
1.05223
1.05814
1.06247
1.06479
1.06238
1.05991
1.06214
1.06641
1.07225
1.08164
1.09002
1.09597
1.10061
1.10316
1.10293
1.09731
1.36859
2.76323
0.848512
0.84922
0.848907
0.850694
0.853623
0.856691
0.858698
0.860239
0.86156
0.861933
0.862187
0.863567
0.867019
0.87237
0.874933
0.876414
0.877842
0.879025
0.878775
0.878646
0.879674
0.881656
0.887457
0.894483
0.897675
0.899149
0.899798
0.897693
0.895956
0.896535
0.898201
0.901123
0.909094
0.916443
0.919687
0.92149
0.921343
0.918359
0.917772
0.919049
0.920883
0.925648
0.933878
0.938739
0.941273
0.942805
0.941525
0.940441
0.940995
0.942237
0.944905
0.952835
0.961216
0.965274
0.967701
0.967482
0.964552
0.964065
0.965441
0.967565
0.9716
0.98165
0.990278
0.994432
0.997031
0.995573
0.991662
0.991654
0.994
0.997007
1.00245
1.01318
1.02172
1.02652
1.02952
1.02837
1.02446
1.02462
1.02775
1.03165
1.03752
1.04736
1.05614
1.06212
1.06669
1.06888
1.06734
1.06549
1.06731
1.07116
1.0762
1.08418
1.09177
1.0972
1.10101
1.10287
1.10261
1.36044
2.71725
0.850268
0.850953
0.850802
0.853061
0.857091
0.860007
0.861821
0.863141
0.86388
0.863666
0.863925
0.865182
0.867948
0.874305
0.878893
0.880428
0.881424
0.881551
0.880731
0.880603
0.881532
0.883118
0.886705
0.895177
0.900759
0.902963
0.903951
0.90235
0.899448
0.899218
0.900475
0.902367
0.907264
0.915938
0.920909
0.923463
0.925199
0.924366
0.922026
0.921771
0.922698
0.924937
0.932224
0.940309
0.944221
0.946386
0.946926
0.944383
0.94308
0.943765
0.945432
0.949568
0.959811
0.967393
0.970945
0.973111
0.971749
0.968367
0.967649
0.968648
0.970771
0.975975
0.987382
0.995237
0.999094
1.00195
1.00015
0.996713
0.996842
0.998627
1.00123
1.0068
1.01767
1.02585
1.03024
1.03368
1.03339
1.03041
1.03068
1.03305
1.03618
1.04132
1.05085
1.05995
1.06605
1.07064
1.0733
1.07281
1.07088
1.0718
1.07494
1.07911
1.08587
1.09312
1.09818
1.10113
1.1039
1.35723
2.67082
0.852265
0.852638
0.852482
0.854571
0.859182
0.863476
0.865253
0.866473
0.866862
0.865953
0.865901
0.866965
0.868778
0.874072
0.881122
0.88444
0.885633
0.885696
0.883806
0.882832
0.883391
0.884749
0.886751
0.893262
0.901964
0.906057
0.907801
0.908004
0.904756
0.902505
0.902703
0.903873
0.906347
0.91409
0.922095
0.925875
0.92802
0.929198
0.926589
0.924196
0.924658
0.92631
0.930412
0.94006
0.946455
0.94938
0.951128
0.949791
0.946339
0.945782
0.947172
0.949344
0.955747
0.967023
0.973201
0.976378
0.978021
0.974913
0.970713
0.970327
0.97205
0.97479
0.982084
0.994179
1.00107
1.00452
1.00685
1.00399
1.00009
1.00011
1.00229
1.00531
1.0115
1.02279
1.03108
1.03567
1.03887
1.03879
1.03528
1.03457
1.03689
1.04042
1.04566
1.05494
1.0641
1.07026
1.07479
1.07744
1.07756
1.07544
1.07547
1.0779
1.08133
1.08726
1.09412
1.09864
1.10285
1.35621
2.62406
0.854818
0.854478
0.854106
0.855746
0.859989
0.866014
0.868932
0.870132
0.870581
0.869177
0.868236
0.868771
0.870104
0.872925
0.880929
0.887337
0.88981
0.89058
0.888868
0.885946
0.885421
0.886341
0.887876
0.891109
0.900444
0.907728
0.910876
0.912404
0.911491
0.907078
0.905228
0.905953
0.907632
0.912184
0.921862
0.927873
0.930598
0.932314
0.931508
0.927733
0.926977
0.928248
0.930264
0.937009
0.947019
0.95201
0.954508
0.955597
0.951921
0.948794
0.949126
0.950802
0.953599
0.962899
0.973568
0.978459
0.981409
0.981857
0.976566
0.973158
0.973978
0.976298
0.97992
0.989696
1.00067
1.0061
1.00921
1.01067
1.00659
1.00317
1.00397
1.00651
1.00989
1.01712
1.02868
1.03606
1.04034
1.04308
1.04285
1.03959
1.039
1.04139
1.04494
1.05012
1.05921
1.06805
1.07386
1.07806
1.0806
1.08132
1.07969
1.079
1.0807
1.08335
1.08822
1.09412
1.09946
1.35531
2.5768
0.858185
0.856745
0.856019
0.857246
0.859752
0.866733
0.87194
0.873873
0.874655
0.87358
0.871246
0.870897
0.871924
0.873565
0.878304
0.887559
0.892796
0.89479
0.895009
0.891601
0.888462
0.888305
0.88953
0.891353
0.897046
0.907215
0.912627
0.915223
0.916509
0.913892
0.909356
0.908607
0.909747
0.912011
0.919629
0.928732
0.932938
0.935063
0.936161
0.932904
0.929911
0.929987
0.931344
0.934467
0.944746
0.953878
0.957716
0.959847
0.95881
0.953198
0.951166
0.952336
0.954535
0.959105
0.97048
0.979121
0.982913
0.985392
0.984509
0.978838
0.977215
0.979099
0.981769
0.985998
0.99609
1.00521
1.00974
1.01266
1.01363
1.00971
1.00727
1.00891
1.01202
1.01583
1.02288
1.03287
1.03947
1.04345
1.04657
1.04726
1.04473
1.04409
1.04641
1.04996
1.05466
1.06248
1.07076
1.0764
1.08043
1.08334
1.08515
1.08451
1.08304
1.08329
1.08499
1.08803
1.09407
1.35137
2.52844
0.862438
0.860105
0.858403
0.859042
0.860227
0.865028
0.873098
0.877298
0.878669
0.878872
0.876079
0.873935
0.874067
0.875141
0.877044
0.884029
0.893398
0.897716
0.899607
0.899246
0.894489
0.891447
0.891538
0.89278
0.895426
0.904129
0.913132
0.917024
0.919222
0.919775
0.91537
0.911942
0.912076
0.91348
0.917509
0.927874
0.935017
0.938115
0.939853
0.938558
0.933311
0.931741
0.93297
0.935116
0.941279
0.953154
0.959813
0.962815
0.964302
0.9601
0.954829
0.954794
0.956875
0.959436
0.965254
0.976173
0.983188
0.986569
0.988944
0.987695
0.983276
0.982555
0.984168
0.98639
0.990423
1.00018
1.00876
1.01328
1.01647
1.01793
1.01461
1.01299
1.01453
1.01682
1.01979
1.02598
1.03585
1.04291
1.04724
1.05072
1.05254
1.05065
1.04955
1.05111
1.05395
1.05787
1.06454
1.07292
1.07902
1.08323
1.08639
1.08892
1.08949
1.08734
1.08571
1.08557
1.08781
1.34192
2.47928
0.866807
0.865047
0.861534
0.861095
0.861686
0.863663
0.871071
0.879158
0.882528
0.883561
0.882628
0.878588
0.876643
0.876919
0.878078
0.88093
0.890433
0.89889
0.90237
0.904119
0.902838
0.897059
0.894333
0.894854
0.896483
0.901369
0.911613
0.918182
0.921038
0.922801
0.921371
0.916217
0.914733
0.915836
0.91802
0.925556
0.935993
0.940809
0.94307
0.943333
0.938071
0.934538
0.935287
0.937205
0.94012
0.948894
0.959253
0.963942
0.96647
0.967141
0.96264
0.959437
0.95989
0.961234
0.963314
0.969612
0.98082
0.987588
0.991027
0.993771
0.992103
0.987452
0.986316
0.987584
0.98994
0.994388
1.00449
1.01329
1.01809
1.02121
1.02274
1.01994
1.01752
1.01812
1.02048
1.02366
1.02965
1.03962
1.04717
1.05177
1.0551
1.05718
1.05601
1.05402
1.05466
1.05742
1.0612
1.06717
1.0754
1.08183
1.08608
1.08931
1.09175
1.09301
1.09116
1.08753
1.08556
1.3256
2.4299
0.870568
0.870472
0.866151
0.863803
0.863717
0.864797
0.867967
0.877522
0.884732
0.887493
0.888278
0.885855
0.880964
0.87942
0.880086
0.88159
0.886364
0.896953
0.903445
0.90618
0.90784
0.905535
0.899643
0.898015
0.898988
0.901308
0.908807
0.918079
0.922425
0.924601
0.925368
0.921311
0.918177
0.918696
0.920326
0.924079
0.934162
0.941943
0.945121
0.946666
0.944754
0.939664
0.938513
0.9396
0.941222
0.944856
0.955249
0.964283
0.968268
0.970913
0.971177
0.965793
0.962166
0.962494
0.964376
0.967362
0.975666
0.986881
0.992887
0.9959
0.997914
0.995314
0.990593
0.989833
0.991589
0.994254
0.998896
1.00886
1.01755
1.02236
1.02569
1.02749
1.02448
1.02147
1.02211
1.02462
1.02797
1.03408
1.04366
1.05089
1.05542
1.05888
1.06089
1.06025
1.05852
1.05898
1.06131
1.06458
1.06967
1.07761
1.08421
1.08847
1.09169
1.094
1.09552
1.0941
1.0886
1.30712
2.38136
0.873607
0.874832
0.872492
0.868043
0.866328
0.866776
0.86807
0.872997
0.883772
0.88981
0.892209
0.892716
0.888721
0.883738
0.882752
0.883519
0.885544
0.892677
0.90264
0.907351
0.909519
0.91075
0.90725
0.902658
0.902323
0.903571
0.907332
0.91636
0.923242
0.926194
0.927763
0.926412
0.9225
0.92185
0.923039
0.92484
0.930402
0.94072
0.946592
0.949334
0.95071
0.946809
0.942009
0.941605
0.943242
0.945422
0.950699
0.961639
0.969319
0.972868
0.975006
0.973911
0.967858
0.96544
0.966763
0.969014
0.972543
0.981514
0.991464
0.996574
0.99966
1.00177
0.998547
0.994195
0.993993
0.995739
0.998392
1.00342
1.01378
1.02224
1.02681
1.02981
1.03124
1.02845
1.02583
1.02681
1.02949
1.03267
1.0378
1.04665
1.05391
1.0585
1.06194
1.06452
1.06505
1.06327
1.06299
1.06503
1.06806
1.07215
1.07923
1.08598
1.09045
1.09363
1.09596
1.0975
1.09606
1.29631
2.33421
0.875411
0.878596
0.878195
0.874375
0.869907
0.86906
0.869814
0.871658
0.87902
0.889662
0.894334
0.896481
0.896668
0.891338
0.886618
0.886192
0.887323
0.890724
0.899587
0.907408
0.910703
0.912444
0.912807
0.908849
0.906407
0.906937
0.908424
0.913941
0.922962
0.927769
0.929941
0.93063
0.927449
0.925032
0.925446
0.926901
0.929302
0.936732
0.946212
0.950905
0.95314
0.953577
0.94923
0.945837
0.946212
0.947808
0.950014
0.95592
0.966427
0.972871
0.975975
0.978354
0.976846
0.971684
0.970427
0.971604
0.97336
0.976918
0.986534
0.996201
1.00111
1.00394
1.00534
1.00121
0.997139
0.997697
1.00016
1.00332
1.009
1.01847
1.02583
1.0301
1.03307
1.03481
1.03316
1.03064
1.03116
1.03367
1.03694
1.04168
1.04971
1.05706
1.06199
1.06552
1.06769
1.06871
1.06779
1.06721
1.06867
1.07145
1.07486
1.08067
1.08729
1.09212
1.09543
1.09784
1.09982
1.29112
2.28782
0.875539
0.881851
0.882252
0.881255
0.875702
0.87219
0.872128
0.873168
0.87607
0.885749
0.894635
0.898042
0.899865
0.899615
0.893854
0.890311
0.890498
0.891761
0.896709
0.905733
0.911285
0.913746
0.915213
0.914413
0.911098
0.910381
0.911443
0.913614
0.920621
0.928432
0.931996
0.933643
0.93312
0.929659
0.928577
0.929472
0.930944
0.93363
0.941601
0.950329
0.954587
0.957176
0.957656
0.953112
0.950006
0.950162
0.951357
0.953672
0.960264
0.970887
0.977178
0.980189
0.982379
0.980264
0.974866
0.973648
0.975345
0.977778
0.982492
0.992166
1.00035
1.00459
1.00712
1.00768
1.00421
1.00209
1.00334
1.00578
1.00855
1.01309
1.02135
1.02867
1.0333
1.03654
1.03842
1.03739
1.0353
1.03594
1.03848
1.04159
1.04562
1.0524
1.05935
1.06427
1.06778
1.07041
1.07233
1.07265
1.07204
1.07269
1.07478
1.07756
1.08174
1.08797
1.09349
1.09731
1.10044
1.28923
2.24138
0.873189
0.883435
0.88573
0.886189
0.883628
0.877459
0.875119
0.875498
0.876725
0.881471
0.89212
0.898705
0.901299
0.902849
0.901882
0.896513
0.894248
0.894787
0.896644
0.903199
0.911289
0.915127
0.917039
0.918034
0.916032
0.914032
0.9143
0.915389
0.91813
0.926401
0.933503
0.936609
0.938072
0.936387
0.93301
0.932228
0.932828
0.934063
0.937144
0.946265
0.955177
0.959347
0.961655
0.961426
0.956494
0.953279
0.953543
0.955157
0.958065
0.96555
0.975641
0.981281
0.984152
0.985693
0.982781
0.978636
0.978585
0.980488
0.982907
0.987299
0.995778
1.00305
1.0071
1.00977
1.01165
1.00961
1.00736
1.00781
1.00983
1.01268
1.01682
1.02414
1.03147
1.03631
1.03951
1.04178
1.0421
1.04063
1.04099
1.04316
1.04598
1.0491
1.05389
1.06069
1.06651
1.07052
1.07353
1.07601
1.07752
1.07701
1.07655
1.07771
1.07993
1.08316
1.08876
1.09483
1.09933
1.28779
2.1945
0.870583
0.881558
0.887734
0.889602
0.889883
0.8857
0.879705
0.878325
0.879081
0.880995
0.888073
0.89772
0.902264
0.9043
0.905548
0.903495
0.89913
0.898248
0.899109
0.90216
0.909974
0.916335
0.919057
0.920579
0.920624
0.917975
0.916881
0.917475
0.918798
0.922801
0.93235
0.938752
0.941514
0.942484
0.939755
0.935839
0.934992
0.936078
0.937836
0.941394
0.951025
0.959408
0.963244
0.965669
0.965143
0.959873
0.957186
0.957838
0.959518
0.962642
0.97032
0.97936
0.984308
0.986956
0.988985
0.986906
0.983479
0.983226
0.984677
0.986993
0.990987
0.998814
1.00647
1.01116
1.01384
1.01526
1.01394
1.01204
1.01235
1.01437
1.01711
1.02074
1.02686
1.03403
1.03935
1.04295
1.04533
1.0464
1.04587
1.04571
1.04696
1.04937
1.05243
1.05664
1.06299
1.0691
1.0734
1.07658
1.07901
1.08108
1.08155
1.08073
1.08096
1.08254
1.08507
1.08965
1.09615
1.28379
2.14701
0.870874
0.87654
0.88715
0.891306
0.892924
0.893088
0.887719
0.882697
0.882106
0.882981
0.886187
0.894905
0.902354
0.905472
0.907114
0.907828
0.904896
0.902232
0.902305
0.903371
0.907678
0.916309
0.921234
0.923308
0.924494
0.922689
0.919917
0.919717
0.920803
0.922358
0.927471
0.937688
0.943549
0.946234
0.946984
0.94325
0.939272
0.938735
0.939546
0.941087
0.945227
0.955797
0.963875
0.967398
0.969644
0.968792
0.963476
0.961148
0.961913
0.963623
0.966726
0.973974
0.98283
0.98812
0.990975
0.992731
0.991025
0.98785
0.987348
0.988919
0.991437
0.995294
1.00206
1.00909
1.01356
1.0164
1.01876
1.01917
1.01769
1.0176
1.01917
1.02151
1.0244
1.0293
1.03634
1.04199
1.04571
1.04841
1.05019
1.05072
1.05077
1.05176
1.05375
1.05606
1.05927
1.06445
1.0707
1.07545
1.07884
1.08171
1.08434
1.08601
1.08556
1.08482
1.08553
1.08741
1.09115
1.27543
2.09932
0.873005
0.873979
0.883171
0.891566
0.894479
0.896
0.895732
0.889791
0.886112
0.886138
0.887239
0.892266
0.901301
0.906475
0.908777
0.91021
0.909797
0.906469
0.905184
0.905783
0.907429
0.913988
0.922677
0.92653
0.928023
0.928104
0.924584
0.922489
0.922542
0.923348
0.925227
0.932328
0.943232
0.948591
0.951064
0.951499
0.946539
0.941863
0.941335
0.942697
0.944847
0.950149
0.960781
0.967911
0.97118
0.97323
0.972221
0.967417
0.965252
0.966027
0.967941
0.971117
0.977613
0.985816
0.991045
0.993987
0.996273
0.995666
0.992988
0.992528
0.993968
0.996019
0.998736
1.00387
1.0111
1.01665
1.02019
1.02266
1.02413
1.02339
1.02266
1.02345
1.0255
1.02811
1.03182
1.03796
1.04403
1.04817
1.05113
1.05379
1.05596
1.05678
1.0569
1.05746
1.05898
1.06162
1.06565
1.0717
1.07741
1.0815
1.0847
1.08762
1.09003
1.09047
1.08899
1.08836
1.08867
1.26136
2.05182
0.875858
0.87515
0.879298
0.889265
0.895144
0.89741
0.898771
0.897503
0.891946
0.8898
0.890309
0.89219
0.899304
0.907156
0.910589
0.91223
0.913088
0.910648
0.908082
0.90821
0.909342
0.911925
0.920804
0.928696
0.931828
0.932987
0.931169
0.92616
0.924317
0.925015
0.926446
0.929014
0.938176
0.948624
0.953144
0.955401
0.955124
0.949385
0.945285
0.945293
0.946675
0.948913
0.954632
0.964734
0.971231
0.974334
0.976624
0.976321
0.972056
0.970021
0.970692
0.972235
0.974577
0.979933
0.98842
0.994459
0.997796
1.00028
1.00091
0.998484
0.996961
0.9976
0.999537
1.00218
1.00643
1.01345
1.01955
1.02348
1.02627
1.02853
1.02891
1.02804
1.02805
1.02929
1.03135
1.03422
1.0392
1.0458
1.05108
1.05478
1.05777
1.06067
1.06243
1.06205
1.06102
1.06146
1.06343
1.06664
1.07248
1.0794
1.08433
1.08782
1.09092
1.09329
1.09411
1.09253
1.08921
1.24544
2.00539
0.879857
0.877898
0.878822
0.88545
0.894326
0.898353
0.900221
0.901347
0.898645
0.89433
0.893645
0.894444
0.897867
0.906459
0.912241
0.91451
0.915837
0.915084
0.91167
0.910688
0.911387
0.912617
0.916598
0.927329
0.934302
0.936997
0.937611
0.933549
0.928287
0.927318
0.928252
0.929806
0.93329
0.943792
0.952882
0.956638
0.958912
0.958762
0.952912
0.949029
0.949024
0.950357
0.952709
0.958372
0.968267
0.974974
0.97833
0.980553
0.980614
0.976637
0.973807
0.973939
0.975587
0.978085
0.983092
0.991835
0.998354
1.0019
1.00428
1.00541
1.00317
1.00109
1.00151
1.00332
1.00575
1.00922
1.01575
1.02249
1.02697
1.02998
1.03263
1.03418
1.03318
1.03192
1.03239
1.03422
1.03683
1.04111
1.04821
1.05438
1.05855
1.06172
1.0646
1.06669
1.06575
1.06321
1.06346
1.06582
1.06892
1.07479
1.08223
1.08728
1.09079
1.09368
1.09556
1.09656
1.09322
1.2334
1.96064
0.885326
0.881123
0.881027
0.883697
0.891988
0.898736
0.901537
0.903063
0.903306
0.899595
0.897175
0.897419
0.898595
0.904117
0.913197
0.917475
0.918993
0.919503
0.91617
0.913254
0.913076
0.914024
0.915653
0.921838
0.933426
0.939379
0.941855
0.942059
0.936277
0.931091
0.930426
0.93136
0.933009
0.937541
0.948768
0.957054
0.960558
0.962546
0.962112
0.956615
0.952909
0.952816
0.954205
0.956717
0.962246
0.971796
0.978476
0.98192
0.984306
0.984827
0.980753
0.977552
0.977684
0.979325
0.981932
0.987109
0.995663
1.00181
1.00527
1.00762
1.00912
1.00764
1.00536
1.00534
1.00702
1.00941
1.01261
1.01865
1.02573
1.03063
1.03386
1.03625
1.03793
1.03712
1.03514
1.0354
1.03757
1.04034
1.04422
1.05128
1.05775
1.06198
1.06513
1.06748
1.06871
1.06761
1.06597
1.06693
1.0696
1.07269
1.07793
1.08467
1.0894
1.09281
1.09545
1.09753
1.09722
1.22565
1.91695
0.891996
0.885657
0.884639
0.884882
0.889699
0.898072
0.902629
0.904655
0.90588
0.904539
0.900973
0.900174
0.901031
0.903214
0.911288
0.919437
0.922564
0.923485
0.921902
0.916984
0.915164
0.915767
0.91707
0.919193
0.927687
0.939002
0.943905
0.946093
0.94563
0.939081
0.934089
0.933632
0.9349
0.937029
0.942576
0.953154
0.960354
0.963586
0.965766
0.965839
0.960711
0.956997
0.956866
0.958043
0.96032
0.965686
0.975435
0.982212
0.985595
0.987842
0.988564
0.98446
0.981232
0.981665
0.98352
0.98625
0.990972
0.998584
1.0046
1.00824
1.01064
1.01237
1.012
1.00989
1.00963
1.0113
1.01365
1.01654
1.02159
1.02841
1.03334
1.03659
1.03901
1.04071
1.04061
1.03932
1.0398
1.04197
1.04474
1.048
1.05384
1.0598
1.06378
1.06648
1.06872
1.07078
1.0714
1.07064
1.07139
1.07373
1.07669
1.0807
1.08603
1.09042
1.09383
1.09716
1.09896
1.22047
1.87355
0.897344
0.891911
0.888609
0.888238
0.889491
0.896332
0.903451
0.906524
0.908035
0.908368
0.905169
0.90319
0.90358
0.904569
0.907807
0.917732
0.924819
0.927511
0.9281
0.924165
0.919128
0.918126
0.918882
0.920221
0.923191
0.933311
0.9433
0.947331
0.949461
0.949213
0.942569
0.938028
0.937843
0.938886
0.940886
0.946354
0.956799
0.963952
0.967341
0.969427
0.969533
0.964436
0.960383
0.960175
0.961658
0.964377
0.970232
0.979469
0.985679
0.988955
0.991001
0.991465
0.988071
0.985599
0.986051
0.98785
0.990525
0.994763
1.00122
1.00691
1.01076
1.01343
1.01545
1.01636
1.01507
1.01448
1.01565
1.0178
1.02046
1.02432
1.03012
1.03522
1.03876
1.04128
1.04347
1.04497
1.04482
1.045
1.04648
1.04885
1.05147
1.0551
1.06005
1.06472
1.06847
1.07152
1.07407
1.07587
1.07599
1.07617
1.07757
1.07961
1.08222
1.08629
1.09125
1.09592
1.09917
1.21707
1.82991
0.899494
0.89778
0.893054
0.891583
0.891708
0.895006
0.903374
0.908533
0.91044
0.91142
0.909587
0.906442
0.905801
0.906385
0.907752
0.912893
0.923982
0.930177
0.932544
0.932479
0.926721
0.921724
0.921017
0.921813
0.923228
0.927195
0.938392
0.947444
0.951099
0.952948
0.952443
0.946136
0.941551
0.941165
0.942442
0.944971
0.950753
0.960531
0.967236
0.970513
0.972612
0.972969
0.968008
0.964322
0.964462
0.96603
0.96882
0.974394
0.98258
0.988231
0.991339
0.993267
0.994425
0.99281
0.990804
0.991026