/*--------------------------------*- C++ -*----------------------------------*\
  =========                 |
  \\      /  F ield         | OpenFOAM: The Open Source CFD Toolbox
   \\    /   O peration     | Website:  https://openfoam.org
    \\  /    A nd           | Version:  12
     \\/     M anipulation  |
\*---------------------------------------------------------------------------*/
FoamFile
{
    format      ascii;
    class       volVectorField;
    location    "6.65";
    object      U;
}
// * * * * * * * * * * * * * * * * * * * * * * * * * * * * * * * * * * * * * //

dimensions      [0 1 -1 0 0 0 0];

internalField   nonuniform List<vector> 
46253
(
(0.960315 -0.000523222 0)
(0.898919 -0.00149278 0)
(0.809093 0.00149099 0)
(0.888607 -0.00300422 0)
(0.810562 0.00180834 0)
(0.813446 0.00122867 0)
(0.99017 -0.0021987 0)
(1.06613 0.0155611 0)
(0.887089 0.00321391 0)
(0.894308 0.00437323 0)
(0.960757 -0.000470646 0)
(1.09604 -0.0794575 0)
(0.903247 0.00311821 0)
(0.90236 0.00199455 0)
(1.05378 0.0262265 0)
(0.907549 -0.00246169 0)
(0.907637 -0.00181537 0)
(0.913962 -0.000710185 0)
(0.910457 -0.000845467 0)
(0.891809 7.59322e-05 0)
(0.88867 0.00201906 0)
(0.799277 0.00458235 0)
(1.40808 0.0106152 0)
(0.969967 -0.000258673 0)
(0.986476 -0.0034539 0)
(0.880909 0.003527 0)
(0.908789 -0.00363134 0)
(0.899615 -0.00404905 0)
(0.883263 0.000959475 0)
(1.07364 -0.000645032 0)
(0.939733 0.0424187 0)
(0.916979 0.000399104 0)
(0.9164 0.000552607 0)
(0.891546 0.00295705 0)
(0.896355 0.00498206 0)
(0.820963 -0.0118902 0)
(0.906229 -0.000280576 0)
(0.901343 0.00112783 0)
(1.06904 0.000413011 0)
(1.11047 -0.0149116 0)
(1.00414 -0.00386448 0)
(1.0667 -0.0768234 0)
(0.920792 -0.00128899 0)
(0.918582 -0.00129483 0)
(1.09883 -0.0952518 0)
(0.918339 -0.00330771 0)
(0.912502 -0.00276032 0)
(1.28648 0.0038278 0)
(0.921023 -2.12088e-05 0)
(0.921245 -0.000102507 0)
(0.922915 0.000140919 0)
(0.92432 -9.82069e-06 0)
(0.82182 0.00206882 0)
(1.05473 0.00339528 0)
(0.770457 0.0112706 0)
(1.08358 -0.0380968 0)
(0.928596 -0.000320148 0)
(0.927836 -0.000328097 0)
(0.874742 0.0652039 0)
(1.00392 0.00581604 0)
(0.805201 0.00896963 0)
(0.952826 -0.0015289 0)
(0.837454 -0.0207902 0)
(1.15957 0.0123559 0)
(1.05506 -0.0385592 0)
(0.91247 0.000364226 0)
(0.915911 0.000342739 0)
(0.821601 0.000887716 0)
(1.08196 -0.0368849 0)
(1.11369 -0.0851133 0)
(0.993725 -0.00228205 0)
(0.92892 0.000376832 0)
(0.930104 0.000172498 0)
(0.924739 -0.00939269 0)
(0.813458 0.0027128 0)
(0.970454 -0.000540929 0)
(0.943235 0.000141586 0)
(0.943934 0.000126254 0)
(1.43969 -0.0519218 0)
(0.917565 0.000271413 0)
(0.917247 0.000131768 0)
(0.934154 8.60917e-05 0)
(0.818632 0.00273344 0)
(0.935105 0.000163776 0)
(1.00138 -0.0059357 0)
(0.827484 0.00190471 0)
(0.958177 0.000341616 0)
(0.959675 5.08595e-05 0)
(0.887558 -0.00901942 0)
(0.816992 -2.25327e-05 0)
(1.31542 -0.0526727 0)
(1.00804 -0.00319659 0)
(0.832024 0.00199083 0)
(0.926257 -0.000397168 0)
(1.1478 -0.0283372 0)
(0.926168 -0.000280988 0)
(0.824465 0.0020924 0)
(1.27994 -0.0219124 0)
(0.880611 0.0632915 0)
(0.816954 0.00658428 0)
(1.17494 -0.0507593 0)
(0.829409 0.00261887 0)
(0.838203 0.000826761 0)
(0.943841 0.0423604 0)
(0.7863 0.00777861 0)
(0.998484 -0.00526125 0)
(1.05984 -0.0729037 0)
(0.971288 -0.000244179 0)
(0.972205 -0.000319777 0)
(1.05 -0.0608635 0)
(1.06697 0.00146726 0)
(0.932294 0.000101731 0)
(0.932434 -4.03857e-05 0)
(1.28269 0.0270611 0)
(1.38062 -0.00850472 0)
(0.825133 -0.0237643 0)
(1.16504 -0.0966025 0)
(1.00001 0.00690026 0)
(0.781518 0.0652858 0)
(1.08025 -0.0338803 0)
(1.33565 0.058262 0)
(0.809992 0.00210778 0)
(0.936787 8.38984e-05 0)
(0.936655 7.7849e-05 0)
(0.85271 0.000377769 0)
(0.767547 0.0578561 0)
(0.804691 0.0090341 0)
(1.10915 -0.0470982 0)
(0.768336 0.01181 0)
(0.944817 0.000319568 0)
(0.987106 5.46501e-05 0)
(0.988261 9.58767e-05 0)
(0.803739 0.00462636 0)
(0.981768 -0.000310799 0)
(0.946651 4.70886e-05 0)
(1.06201 -0.0195092 0)
(0.951822 -0.000482279 0)
(0.951388 -0.000701996 0)
(1.07927 -0.0358616 0)
(0.993285 -0.0222177 0)
(0.942455 -3.63812e-05 0)
(0.991965 -0.000839033 0)
(0.99522 -0.000982713 0)
(0.963499 0.0387837 0)
(0.941335 -4.76921e-05 0)
(0.771915 0.00881211 0)
(0.954144 0.000134446 0)
(0.954893 0.000132746 0)
(1.07363 -0.00946262 0)
(0.814494 -0.00689555 0)
(1.04943 -0.0659509 0)
(0.831419 0.000802423 0)
(0.948789 1.81982e-05 0)
(0.950158 -3.69691e-05 0)
(0.974631 0.0285751 0)
(1.17089 -0.101281 0)
(1.09201 -0.0470494 0)
(0.825189 0.00241676 0)
(0.961807 -0.000410309 0)
(0.778816 0.00809667 0)
(0.961022 -0.000528082 0)
(1.08087 -0.0736774 0)
(1.08402 -0.0387598 0)
(1.06873 0.066739 0)
(0.990835 -0.00417542 0)
(0.951861 -0.000162776 0)
(0.98183 -1.56549e-05 0)
(0.952169 0.000163077 0)
(0.709791 0.0413932 0)
(0.818901 0.00892223 0)
(0.96793 -0.000289804 0)
(0.969816 -0.000254428 0)
(0.806785 0.00394674 0)
(0.996405 -0.00351696 0)
(0.797001 0.0050399 0)
(1.22627 -0.0981617 0)
(1.04904 -0.00764592 0)
(0.80094 0.00259834 0)
(0.974452 0.000116822 0)
(1.17382 -0.0890077 0)
(0.802078 0.003305 0)
(0.96777 0.0288399 0)
(0.972429 -0.000326048 0)
(0.970534 -0.000412947 0)
(0.828032 0.0030896 0)
(0.961262 2.8218e-05 0)
(0.962019 0.000275434 0)
(1.09677 -0.101813 0)
(0.827197 0.000879554 0)
(0.830334 0.00202698 0)
(0.818418 0.00325869 0)
(0.841365 -0.0015682 0)
(0.972808 0.00455095 0)
(0.846602 -0.000311884 0)
(0.849279 0.00601698 0)
(0.850774 0.00516052 0)
(1.06585 0.00682774 0)
(0.840666 0.00122773 0)
(1.03767 -0.000943534 0)
(1.03847 -0.000676303 0)
(1.35594 -0.0266252 0)
(0.771301 0.00151669 0)
(0.962332 -0.00060723 0)
(0.963602 -0.000282471 0)
(0.791322 -0.00533067 0)
(1.19648 -0.0934418 0)
(0.968823 0.0279445 0)
(0.98065 -0.000691844 0)
(0.981247 -0.000949442 0)
(0.807884 -0.0022012 0)
(1.41508 -0.0692244 0)
(0.783484 0.0700801 0)
(0.998882 -0.00412561 0)
(0.83129 0.00147132 0)
(0.965189 -0.025248 0)
(0.834962 0.00105609 0)
(0.96648 0.0387157 0)
(1.00404 -0.00547984 0)
(0.984907 -0.000488235 0)
(0.814062 0.00170142 0)
(0.824778 0.00156147 0)
(0.985299 -0.000559058 0)
(1.2232 -0.0967221 0)
(0.971879 0.000197539 0)
(0.972901 0.000448024 0)
(1.00553 -0.00425065 0)
(0.811183 0.00239146 0)
(0.816924 0.00265472 0)
(1.05057 -0.00122317 0)
(1.05022 -0.000906048 0)
(0.913619 0.0565013 0)
(1.09941 0.0802271 0)
(0.822623 0.00656465 0)
(0.793331 0.00187719 0)
(0.851457 0.000748676 0)
(1.25409 -0.0275811 0)
(0.832026 0.00150429 0)
(1.34342 -0.0750695 0)
(0.908876 0.055245 0)
(0.897275 0.0602378 0)
(0.838202 0.00252184 0)
(0.825428 0.00242306 0)
(0.833465 0.00179832 0)
(0.832103 0.00057836 0)
(1.0492 0.0396792 0)
(0.821936 0.00228586 0)
(0.778116 0.00465194 0)
(0.974254 0.0264356 0)
(0.843348 0.00198875 0)
(0.989012 -0.000477004 0)
(0.989447 -0.000699097 0)
(0.903946 0.0593365 0)
(1.06219 -0.00156592 0)
(0.836561 0.00093467 0)
(1.06294 -0.0014518 0)
(0.97586 -0.000519149 0)
(0.978301 -0.000324698 0)
(1.06741 -0.0285127 0)
(0.998895 -0.00185948 0)
(0.868662 5.73261e-05 0)
(0.985729 0.00115265 0)
(1.01113 -0.00242607 0)
(1.14999 -0.0638171 0)
(0.9601 0.0401163 0)
(0.931257 -0.0137592 0)
(0.878927 0.0042411 0)
(1.36895 -0.00329866 0)
(1.38196 0.0114901 0)
(0.982699 -0.000830895 0)
(1.00091 -0.000765298 0)
(0.983091 -0.000475361 0)
(0.831129 0.00202259 0)
(0.909651 -0.0213682 0)
(-0.345038 0.0606614 0)
(1.00058 -0.00109147 0)
(0.83159 0.00306751 0)
(0.767442 0.0120141 0)
(0.805228 0.00715449 0)
(1.04185 -0.0071697 0)
(1.04976 -0.0230814 0)
(1.07523 -0.0017579 0)
(1.0764 -0.00135554 0)
(0.830173 0.00174919 0)
(0.83931 0.000957106 0)
(1.43517 -0.0464384 0)
(0.972108 0.00449039 0)
(1.01101 0.0105836 0)
(1.08271 -0.0324579 0)
(0.954944 0.0367753 0)
(0.777773 -0.00631596 0)
(0.890367 0.0640554 0)
(0.889556 0.062984 0)
(1.01786 -0.00619555 0)
(1.27944 -0.00816952 0)
(0.891257 0.0615658 0)
(0.927447 0.0498957 0)
(0.810453 0.00206611 0)
(0.927394 0.0498705 0)
(1.00227 -0.00366584 0)
(1.00367 -0.0006112 0)
(0.79332 0.0713542 0)
(1.00438 -0.000812975 0)
(1.11054 -0.0439676 0)
(0.780119 0.0555983 0)
(0.856136 -0.000759245 0)
(0.98886 -0.000217264 0)
(0.988215 -2.19443e-05 0)
(0.809798 -0.00480542 0)
(0.952939 0.0420732 0)
(0.828309 0.000250514 0)
(0.829846 0.000560427 0)
(1.06287 0.00297257 0)
(1.06284 -0.0804924 0)
(1.00827 -0.000579508 0)
(0.83708 0.000100484 0)
(1.00877 -0.000865766 0)
(1.08233 -0.036573 0)
(0.886938 0.0611263 0)
(0.799803 -0.010133 0)
(1.04225 0.00753845 0)
(1.06489 -0.0475341 0)
(0.84882 0.00113371 0)
(0.985724 -0.00262841 0)
(0.985875 -0.00323434 0)
(1.07353 0.00206711 0)
(0.957636 0.0363344 0)
(0.835515 0.000923355 0)
(0.861064 -0.000148687 0)
(1.01467 -0.000758615 0)
(1.01556 -0.00104541 0)
(1.10079 -0.00137403 0)
(1.10311 8.70586e-05 0)
(0.855279 -0.00119465 0)
(1.06718 0.00057587 0)
(0.848671 0.00203485 0)
(0.960355 -0.00271643 0)
(1.07744 -0.0296958 0)
(0.998264 -0.000851937 0)
(0.999597 -0.00027517 0)
(0.856828 -0.00449804 0)
(0.830168 0.000988826 0)
(0.826225 0.00138605 0)
(1.48842 0.037354 0)
(0.759598 0.0415088 0)
(0.821295 0.000259918 0)
(1.0184 -0.000753089 0)
(1.01908 -0.00105775 0)
(1.09439 -0.0858866 0)
(1.08013 -0.0365617 0)
(0.800116 0.00260248 0)
(1.00371 -0.000713092 0)
(0.804585 -0.00450032 0)
(1.19481 -0.094636 0)
(1.03321 0.0689217 0)
(1.14 -0.0585396 0)
(0.827312 0.00286598 0)
(1.00116 -0.00038821 0)
(0.814275 -0.00694799 0)
(1.00175 -0.000294626 0)
(0.817758 -0.00216759 0)
(1.18202 -0.067066 0)
(0.878455 0.000198329 0)
(0.820284 0.00361455 0)
(0.876486 -0.00124161 0)
(0.833351 0.00121637 0)
(0.816019 0.00327768 0)
(0.815734 0.0030751 0)
(0.816039 0.00342598 0)
(1.02471 -0.000923689 0)
(0.821187 0.00267227 0)
(0.839253 0.0039283 0)
(0.837933 0.00293313 0)
(0.839261 0.00385393 0)
(1.0255 -0.00122922 0)
(0.818323 0.00252396 0)
(0.887385 0.0591584 0)
(1.08175 -0.0360387 0)
(0.837463 0.00126451 0)
(0.816622 0.00230211 0)
(0.78281 -0.00381074 0)
(1.00042 -0.00691779 0)
(1.03983 -0.00889404 0)
(1.08152 -0.0518641 0)
(1.00604 -0.000702989 0)
(1.1352 -0.00513125 0)
(1.00645 -0.00059314 0)
(0.819933 0.000391192 0)
(1.47134 0.0873997 0)
(1.02852 -0.000823996 0)
(0.751751 0.0625963 0)
(0.830539 0.00219684 0)
(0.957972 0.0365829 0)
(1.02941 -0.00100848 0)
(1.00121 0.00736264 0)
(0.802406 -0.000388599 0)
(1.10433 -0.000901832 0)
(1.0027 0.0250067 0)
(1.00446 0.0256785 0)
(0.847115 0.00204526 0)
(1.01577 -0.0135099 0)
(1.22505 -0.00423637 0)
(0.955344 -0.00074132 0)
(0.955561 -0.000573699 0)
(0.88831 0.0587384 0)
(0.848752 0.000699772 0)
(0.842918 0.0310709 0)
(0.858374 -0.000759561 0)
(0.767308 0.00720545 0)
(1.47287 0.0377737 0)
(0.837538 0.00186017 0)
(0.867566 0.00130539 0)
(0.834912 -0.00242507 0)
(0.801687 0.0691082 0)
(0.827347 0.00239719 0)
(1.02797 -0.0125511 0)
(0.838826 0.0270524 0)
(0.963687 0.000433566 0)
(0.843224 0.00313145 0)
(0.876074 0.00121633 0)
(1.06115 -0.0270604 0)
(0.838966 0.0278378 0)
(1.30584 -0.0586428 0)
(1.03479 -0.00105637 0)
(0.874825 -0.00099962 0)
(1.01122 -0.00077022 0)
(0.871691 -0.000713358 0)
(0.800165 0.0117382 0)
(1.0357 -0.00131385 0)
(1.01248 -0.000481625 0)
(0.856713 -0.000277954 0)
(1.06164 -0.00231198 0)
(0.813575 0.000224249 0)
(1.25121 -0.0146389 0)
(0.849674 0.00766459 0)
(0.84993 0.00702936 0)
(1.04866 -0.0206899 0)
(0.883675 -0.00772558 0)
(0.833156 0.00174481 0)
(0.843379 -0.000228072 0)
(1.06544 -0.015083 0)
(1.0651 -0.0472541 0)
(0.83961 0.0266589 0)
(1.00506 0.0106685 0)
(0.85669 -0.000102356 0)
(1.02813 -0.017476 0)
(0.981875 0.0320999 0)
(0.834403 -0.00201387 0)
(0.835342 0.00187414 0)
(1.08432 -0.031786 0)
(0.85224 -0.0248201 0)
(1.04855 -0.0222203 0)
(1.01857 -0.013265 0)
(1.04059 -0.194779 0)
(0.96007 -0.000839931 0)
(0.116019 0.200142 0)
(0.842962 0.0331165 0)
(1.07104 0.0237673 0)
(0.846197 0.0304052 0)
(1.01707 -0.000786003 0)
(1.00382 -0.0215906 0)
(0.814502 0.00102862 0)
(1.00637 -0.0235146 0)
(1.00397 -0.0205635 0)
(1.01694 -0.000595775 0)
(0.822029 0.00262344 0)
(1.03098 -0.0236042 0)
(0.806723 0.00147651 0)
(0.84204 0.00976197 0)
(0.839861 0.0281047 0)
(0.837629 0.00312023 0)
(0.838306 0.00977386 0)
(1.00046 0.00747951 0)
(1.07693 -0.0574403 0)
(1.07241 0.00237052 0)
(1.10335 -0.043178 0)
(1.04136 -0.000809345 0)
(1.07457 -0.0268134 0)
(0.989545 0.0281118 0)
(1.04196 -0.00121304 0)
(0.937666 -0.0113177 0)
(0.956809 -0.000923002 0)
(0.95745 -0.000763858 0)
(0.822906 0.0199805 0)
(0.815847 0.00276277 0)
(0.816442 0.00272501 0)
(0.818326 0.00372893 0)
(0.77159 0.00831458 0)
(0.792281 -0.000641062 0)
(1.04425 -0.0214158 0)
(1.00578 -0.00526018 0)
(1.09394 -0.0811176 0)
(1.0435 -0.0215121 0)
(1.06274 -0.0212511 0)
(0.995514 0.00894794 0)
(1.01667 -0.0229452 0)
(0.222319 -0.05814 0)
(0.82544 0.00237048 0)
(1.02148 -0.000933488 0)
(1.0276 -0.0128764 0)
(1.09327 -0.0603941 0)
(1.0226 -0.000698453 0)
(1.04813 -0.00129908 0)
(1.04906 -0.00169968 0)
(0.95791 -0.00105489 0)
(0.998694 -0.0024012 0)
(0.818389 0.00300939 0)
(0.958023 -0.000805863 0)
(0.951115 0.0397536 0)
(0.774077 -0.00431729 0)
(1.46252 -0.0497401 0)
(0.80917 9.1284e-05 0)
(1.00822 -0.00159725 0)
(0.844346 0.0257967 0)
(1.14743 0.00219289 0)
(0.959329 0.0014662 0)
(0.796733 0.00170336 0)
(0.828809 0.000108462 0)
(1.02534 -0.0164271 0)
(0.848149 0.000768267 0)
(1.06469 0.0416139 0)
(0.955195 -0.00339144 0)
(0.853793 -0.0620193 0)
(1.01702 -0.0138941 0)
(0.863247 0.00100242 0)
(0.865934 0.000551633 0)
(1.01769 -0.0120067 0)
(0.817615 0.00316581 0)
(1.02685 -0.0118586 0)
(1.02038 -0.0108191 0)
(1.02752 -0.0107939 0)
(1.09077 0.0168891 0)
(1.06082 -0.00718432 0)
(1.0556 -0.00748858 0)
(0.864534 -0.043296 0)
(1.00766 -0.0218725 0)
(1.02392 -0.0138621 0)
(0.833572 0.00126151 0)
(0.800911 0.00394539 0)
(1.02703 -0.000827778 0)
(0.887013 0.0535226 0)
(0.982035 0.000175333 0)
(1.06474 -0.0280292 0)
(0.880705 0.000466921 0)
(0.863143 -0.000774418 0)
(1.02714 -0.000412963 0)
(0.790174 0.0044545 0)
(0.809074 -0.0165469 0)
(0.852828 0.0186521 0)
(0.850767 0.0185589 0)
(1.12797 -0.0868631 0)
(0.855572 0.0192393 0)
(0.854704 0.019188 0)
(1.05447 -0.00105796 0)
(1.07966 -0.0263618 0)
(1.05543 -0.00144596 0)
(1.00279 0.0038836 0)
(0.860668 0.0196409 0)
(0.860112 0.0198123 0)
(0.862329 0.0181479 0)
(0.861059 0.0185484 0)
(0.84754 0.000270228 0)
(0.836376 0.0293452 0)
(0.781749 -0.00622368 0)
(1.06559 -0.0186786 0)
(1.0864 -0.0805592 0)
(0.836626 0.00143109 0)
(0.844601 0.00163691 0)
(0.782624 -0.016995 0)
(0.844162 0.0252121 0)
(0.832158 0.00537353 0)
(0.844244 0.00337319 0)
(0.983089 0.00100841 0)
(0.962112 0.0386176 0)
(1.05434 -0.0349612 0)
(0.964218 0.0348842 0)
(0.842429 0.00842326 0)
(0.849304 0.00144687 0)
(1.1112 -0.0491615 0)
(0.870013 0.00540091 0)
(0.849566 0.00635486 0)
(0.841434 0.00990885 0)
(1.03162 -0.00105466 0)
(0.845624 0.0113497 0)
(0.840706 0.0125592 0)
(1.03251 -0.000796484 0)
(0.976188 0.0346181 0)
(0.939865 0.0215895 0)
(0.819122 0.00282696 0)
(0.935277 0.0210876 0)
(0.935198 0.0220424 0)
(0.925842 0.0214752 0)
(0.703215 0.00307026 0)
(0.839372 0.0109469 0)
(1.06067 -0.00126341 0)
(1.06116 -0.0018184 0)
(0.966542 0.0380333 0)
(1.02553 -0.00705523 0)
(0.843318 0.0107506 0)
(0.833198 -0.000981513 0)
(0.914607 -0.0021214 0)
(0.809355 0.00138168 0)
(0.770083 0.04908 0)
(1.00791 0.00661012 0)
(0.840256 0.0272599 0)
(0.780564 0.0575138 0)
(0.841668 0.0321449 0)
(0.838794 0.00376951 0)
(0.960345 0.0398462 0)
(0.945166 0.0415614 0)
(0.822809 0.0027509 0)
(0.816402 0.00268143 0)
(0.817346 -0.00801587 0)
(1.0048 -0.0180928 0)
(0.817487 0.00252972 0)
(0.807407 0.00160272 0)
(0.984262 0.0217943 0)
(0.868245 0.0190773 0)
(0.867526 0.0194374 0)
(0.873411 0.019779 0)
(0.871501 0.0192263 0)
(0.876495 0.0200312 0)
(0.876065 0.0204725 0)
(0.8833 0.0197062 0)
(0.881485 0.0197274 0)
(1.10644 -0.10207 0)
(1.05733 -0.0181839 0)
(0.88502 0.0194233 0)
(1.02099 -0.00658263 0)
(0.885328 0.0199307 0)
(0.892664 0.0188982 0)
(0.8187 0.00260248 0)
(0.981151 0.00114268 0)
(0.965174 -0.0011395 0)
(0.890423 0.0189299 0)
(0.816069 0.00301696 0)
(0.895123 0.0192449 0)
(0.849822 0.00315497 0)
(0.895279 0.0195503 0)
(1.09741 0.0584944 0)
(1.03549 -0.0158479 0)
(0.904139 0.0177206 0)
(0.854757 0.00197075 0)
(0.901848 0.0179107 0)
(0.837457 0.0689044 0)
(0.826404 0.00680111 0)
(0.904604 0.0179788 0)
(0.853326 0.00803038 0)
(0.905382 0.0184549 0)
(0.855532 0.00718842 0)
(1.1722 -0.0739968 0)
(0.862374 -0.00111436 0)
(1.07485 -0.0254176 0)
(0.966419 -0.000659586 0)
(0.841571 0.00163388 0)
(0.840332 0.00157097 0)
(0.91457 0.015946 0)
(0.912309 0.0160549 0)
(0.827612 0.00249475 0)
(1.02291 -0.0121257 0)
(0.915006 0.0164634 0)
(0.915377 0.016994 0)
(0.983194 0.0194242 0)
(0.857683 0.000559203 0)
(0.857965 0.000927791 0)
(0.925485 0.0157897 0)
(1.06779 -0.00132402 0)
(0.926608 0.0149779 0)
(0.818013 0.00615061 0)
(1.03921 -0.0010959 0)
(0.932672 0.0117707 0)
(1.08368 -0.0451446 0)
(0.929417 0.0132385 0)
(1.06852 -0.00154853 0)
(1.03969 -0.00079812 0)
(0.818152 0.00496279 0)
(0.843148 0.00767906 0)
(0.837919 0.00833407 0)
(0.935587 0.0133698 0)
(0.937138 0.0126636 0)
(1.04166 0.00840819 0)
(0.821414 0.00495771 0)
(0.831608 0.00391154 0)
(0.944787 0.00969677 0)
(1.045 -0.0225275 0)
(0.94128 0.0109005 0)
(1.06175 -0.0487882 0)
(0.816434 0.00348637 0)
(0.94748 0.00829758 0)
(0.946616 0.00921338 0)
(0.844041 0.0110715 0)
(0.839411 0.00947339 0)
(0.84219 0.0105403 0)
(0.95446 -0.00289788 0)
(0.838547 0.00917151 0)
(1.02444 -0.0131941 0)
(0.985255 -0.0108801 0)
(0.941086 0.0443605 0)
(0.832404 0.00192507 0)
(0.955313 0.00694599 0)
(0.84976 0.000182262 0)
(0.95786 0.00726008 0)
(0.846432 0.00123242 0)
(0.829993 0.000546709 0)
(1.02313 -0.0129597 0)
(1.02325 -0.0130754 0)
(0.971916 0.00432633 0)
(0.966686 0.00479494 0)
(1.00979 -0.0231359 0)
(1.02125 -0.0115978 0)
(0.960372 0.0031002 0)
(1.02128 -0.0105019 0)
(0.966431 0.0039335 0)
(0.812379 0.00118067 0)
(1.00641 0.0256951 0)
(0.990855 0.00372681 0)
(0.993011 0.00254335 0)
(0.832984 0.00358988 0)
(1.08007 -0.0310424 0)
(0.971254 -0.00536208 0)
(0.967386 -0.00271378 0)
(0.709691 0.0259591 0)
(0.862699 0.00362521 0)
(0.863483 0.00244148 0)
(0.829688 -0.00128198 0)
(1.00497 0.000800845 0)
(1.06321 -0.0185247 0)
(1.00644 -0.000739264 0)
(0.867399 -0.00652425 0)
(0.806837 0.00617498 0)
(1.02602 -0.015405 0)
(1.05006 -0.0625461 0)
(0.978522 -0.00957234 0)
(0.975946 -0.00702556 0)
(0.986626 -0.0125438 0)
(1.01996 -0.00270988 0)
(1.01988 -0.0042329 0)
(1.07853 -0.0361913 0)
(1.08191 -0.0372007 0)
(0.85821 0.019003 0)
(1.0641 0.0244818 0)
(0.760972 0.0467389 0)
(1.07303 -0.00173379 0)
(0.790686 -0.00904976 0)
(1.13882 -0.056063 0)
(1.07349 -0.00210313 0)
(1.10574 -0.0421428 0)
(0.904374 0.0047961 0)
(0.980401 -2.81713e-05 0)
(0.865209 0.0188041 0)
(0.857576 0.0195199 0)
(0.863368 0.0184866 0)
(1.04465 -0.00130442 0)
(0.848822 0.000532741 0)
(0.856412 0.0197301 0)
(0.8484 0.00103174 0)
(0.758643 0.0238009 0)
(0.855166 0.0196166 0)
(1.04602 -0.00108227 0)
(0.777961 -0.00741462 0)
(0.858196 0.0190104 0)
(0.859567 0.0191244 0)
(1.05929 -0.026696 0)
(1.06725 -0.041754 0)
(0.817265 0.00340216 0)
(0.992825 0.0205462 0)
(1.12067 -0.0951248 0)
(0.960806 -0.000297688 0)
(0.981597 -0.0555277 0)
(0.816893 -0.00339697 0)
(0.813286 0.00108975 0)
(0.836804 0.0288989 0)
(1.09838 0.0912212 0)
(1.01778 -0.00439225 0)
(0.849333 0.00192937 0)
(1.02606 -0.0194525 0)
(0.843376 0.0263289 0)
(0.930016 0.0183998 0)
(0.966619 0.000188099 0)
(0.929106 0.0170994 0)
(1.09659 -0.043044 0)
(0.833764 -0.00282321 0)
(0.996786 0.0110075 0)
(1.00513 -0.00289401 0)
(0.932819 0.0215008 0)
(0.83819 0.0289074 0)
(1.10528 -4.149e-05 0)
(0.824336 0.00305108 0)
(1.43417 0.0630917 0)
(0.876458 0.000174924 0)
(0.930795 0.0164787 0)
(0.927406 0.0184706 0)
(1.0177 -0.0100881 0)
(0.978248 0.000146324 0)
(0.979023 0.00035726 0)
(0.83922 0.00377357 0)
(1.06354 -0.0222314 0)
(0.852577 0.00202495 0)
(0.820937 0.00250912 0)
(0.926955 0.0170197 0)
(1.02142 -0.0115059 0)
(0.843382 0.03077 0)
(1.05403 0.0318597 0)
(0.843724 0.0317767 0)
(0.84148 0.0302336 0)
(1.0078 0.0243053 0)
(0.989188 0.0264157 0)
(0.818222 0.00314772 0)
(0.927339 0.0159394 0)
(1.11073 -0.0455495 0)
(1.01607 -0.0260299 0)
(0.814356 0.000707575 0)
(1.01545 -0.0214119 0)
(1.08007 -0.0014499 0)
(0.823129 -0.000318507 0)
(0.838726 0.0294684 0)
(1.03101 -0.0169221 0)
(1.02463 -0.018049 0)
(0.838627 0.0282216 0)
(1.08067 -0.00173495 0)
(0.81457 -0.0320814 0)
(0.838679 0.0269849 0)
(1.03656 0.0156784 0)
(0.920634 0.0140989 0)
(0.917863 0.0155749 0)
(1.0586 -0.0193468 0)
(0.862515 -0.00154683 0)
(0.820463 -0.0340433 0)
(0.819735 -0.0284898 0)
(1.0039 -0.00530243 0)
(0.964294 -0.00727091 0)
(0.832529 7.28545e-05 0)
(1.03252 -0.0122645 0)
(1.12352 -0.0148459 0)
(1.10384 -0.046692 0)
(0.840707 0.0695211 0)
(0.863948 0.00220216 0)
(0.866954 0.00188393 0)
(0.859479 -0.00248875 0)
(0.948985 0.0100408 0)
(0.947807 0.0098482 0)
(0.867146 0.0193993 0)
(0.839678 0.0321055 0)
(0.816796 0.000589542 0)
(1.05141 -0.00145846 0)
(0.956692 0.00690692 0)
(1.02081 -0.0868993 0)
(0.840396 0.0323786 0)
(0.952987 0.00767489 0)
(1.05222 -0.00113256 0)
(1.0376 -0.020117 0)
(1.04006 -0.0202028 0)
(0.785868 0.00401073 0)
(1.02374 -0.0189858 0)
(1.01403 -0.0144262 0)
(1.15557 -0.0552784 0)
(1.04972 -0.0167401 0)
(1.12387 -0.0514889 0)
(0.964714 -0.000491547 0)
(0.828066 0.00248338 0)
(0.834503 0.00279489 0)
(0.960814 0.00163924 0)
(0.878255 0.0132107 0)
(0.839126 0.00597096 0)
(1.03416 -0.0181608 0)
(1.0485 -0.0189342 0)
(0.826823 0.00158455 0)
(1.08553 -0.00178223 0)
(1.0633 -0.0410262 0)
(1.02173 -0.0152894 0)
(1.08419 -0.032647 0)
(1.07888 -0.0304804 0)
(1.08654 -0.00205151 0)
(1.08362 -0.0465592 0)
(1.08029 -0.0487754 0)
(1.11121 -0.046124 0)
(1.11621 -0.0545039 0)
(0.878199 0.00165998 0)
(0.820914 0.0198328 0)
(0.97151 0.0162125 0)
(0.820563 0.0199367 0)
(0.885477 0.00260578 0)
(1.02878 -0.0198373 0)
(1.05775 -0.0356182 0)
(1.10361 -0.0461898 0)
(0.820346 0.00597126 0)
(0.834257 -0.0014322 0)
(1.0204 -0.0116024 0)
(0.844258 0.000920427 0)
(1.02952 -0.0122706 0)
(1.01299 -0.0131219 0)
(0.844223 0.0323974 0)
(0.842638 0.0339903 0)
(0.890586 -0.00482464 0)
(0.845614 0.0308863 0)
(0.943658 0.0352207 0)
(0.845331 0.0297754 0)
(0.816272 0.00225927 0)
(1.04825 -0.0179203 0)
(1.02203 -0.0114157 0)
(1.05664 -0.00246689 0)
(0.825677 -0.0291252 0)
(0.8294 0.00221758 0)
(1.05795 -0.00120904 0)
(0.854058 0.00391438 0)
(1.00893 -0.0156372 0)
(1.03033 -0.0157976 0)
(1.05882 -0.000963218 0)
(0.840169 0.027685 0)
(1.03666 -0.0129636 0)
(1.04004 -0.0226046 0)
(1.01476 -0.0135234 0)
(0.810709 0.000965657 0)
(0.805767 8.92365e-06 0)
(0.80151 0.00103149 0)
(0.825733 0.000534842 0)
(1.01726 -0.021134 0)
(1.03063 -0.011229 0)
(0.832893 0.00101161 0)
(0.997682 0.0210526 0)
(0.840002 0.0283501 0)
(1.08405 -0.0493053 0)
(0.840584 -0.00126645 0)
(1.07791 -0.0483603 0)
(0.963863 1.06994e-05 0)
(0.984816 -0.00106281 0)
(0.81965 0.00587016 0)
(1.09091 -0.0016651 0)
(1.0906 -0.00211893 0)
(0.996867 0.00838084 0)
(0.805261 0.0696032 0)
(0.866183 0.0193471 0)
(1.10581 -0.0453044 0)
(1.04768 0.00294207 0)
(1.05112 -0.000903547 0)
(1.09727 -0.0431673 0)
(0.860895 0.0189107 0)
(0.860638 0.0195488 0)
(1.01088 -0.0233842 0)
(0.8565 0.00512228 0)
(0.823574 0.0063311 0)
(0.821563 0.00606737 0)
(1.02264 -0.0123356 0)
(1.11978 -0.0992188 0)
(0.720539 -5.41626e-05 0)
(1.04924 -0.0154732 0)
(0.789835 0.000701079 0)
(0.857701 0.0197846 0)
(0.85276 0.00130087 0)
(0.856832 0.0201754 0)
(0.875925 -0.000162841 0)
(0.8547 0.0191828 0)
(0.750533 0.0517029 0)
(0.853021 0.0190787 0)
(0.960213 -0.000585645 0)
(1.08099 -0.037033 0)
(1.09244 -0.0446648 0)
(1.15882 -0.00463147 0)
(0.826641 -0.0176361 0)
(0.851736 -0.0124252 0)
(0.866633 -0.0194794 0)
(1.06133 -0.0262985 0)
(0.862039 -0.007675 0)
(0.963496 -5.5274e-05 0)
(0.844531 -0.0424387 0)
(0.906319 0.0185856 0)
(0.898152 0.0180476 0)
(0.895251 0.0195442 0)
(0.908363 0.0161137 0)
(0.905788 0.0182895 0)
(0.857184 -0.00775334 0)
(1.00327 0.00944575 0)
(0.896484 0.0187811 0)
(0.887528 0.018854 0)
(0.90634 0.0172919 0)
(1.03944 -0.0258155 0)
(0.894219 0.0194191 0)
(0.924683 0.0154639 0)
(0.915865 0.0174615 0)
(0.886052 0.0192011 0)
(0.853797 -0.00245951 0)
(0.885488 0.0199876 0)
(0.91588 0.0167473 0)
(0.884647 0.0201652 0)
(0.841446 0.0107004 0)
(0.926249 0.014267 0)
(0.88046 0.0610079 0)
(0.879027 0.0194077 0)
(0.87752 0.0198062 0)
(0.924377 0.0142707 0)
(0.875444 0.0204498 0)
(0.875272 0.023911 0)
(0.925304 0.014292 0)
(0.874527 0.0204073 0)
(0.838574 0.000808818 0)
(0.87017 0.0187571 0)
(0.925321 0.0149385 0)
(0.817512 0.0026017 0)
(0.937622 0.0121497 0)
(0.868845 0.0188759 0)
(1.11159 -0.00694812 0)
(0.838225 0.00416686 0)
(1.09424 -0.00178488 0)
(0.936 0.0120041 0)
(0.841473 0.0104757 0)
(0.8476 0.00443063 0)
(0.838676 0.0093284 0)
(0.936409 0.0117604 0)
(0.925301 0.0225259 0)
(0.842971 0.00640112 0)
(0.836792 0.00913916 0)
(0.850363 0.00682526 0)
(0.935839 0.0124757 0)
(1.09554 -0.00254168 0)
(0.894105 -0.0158236 0)
(0.945822 0.0102605 0)
(0.816175 0.00323372 0)
(1.02099 -0.00344924 0)
(0.94786 0.0101019 0)
(0.960184 0.00777836 0)
(0.959497 0.00732441 0)
(1.08253 -0.0383447 0)
(0.958385 0.00448084 0)
(0.956293 0.00595865 0)
(0.973587 0.00565979 0)
(0.814963 0.00326297 0)
(0.969523 -9.66737e-05 0)
(0.974939 0.0050088 0)
(0.831373 0.000725155 0)
(0.988797 0.000940093 0)
(0.982314 0.000998757 0)
(0.831448 0.000766674 0)
(0.853131 0.00394401 0)
(0.978867 0.000816565 0)
(1.07028 -0.0249521 0)
(0.919767 -0.00637798 0)
(0.967906 -0.000492493 0)
(0.978424 0.000482635 0)
(1.00084 -0.00298519 0)
(1.06483 -0.00166897 0)
(0.987842 -0.00309554 0)
(0.840145 -0.0109481 0)
(0.978251 -0.00393308 0)
(0.815002 9.94215e-05 0)
(1.03236 -0.00922436 0)
(1.06579 -0.0012407 0)
(0.991521 -0.00289422 0)
(0.979995 0.0196788 0)
(1.02548 0.0161201 0)
(1.01426 -0.0216968 0)
(1.01182 -0.00743524 0)
(1.0027 -0.0103503 0)
(1.02211 -0.0107047 0)
(0.991779 0.000655131 0)
(0.995785 -0.00730258 0)
(0.990567 -0.00704381 0)
(1.00705 -0.00633976 0)
(0.960791 -0.000386598 0)
(0.964484 -0.0244264 0)
(0.882119 -0.0547448 0)
(0.817262 0.0029411 0)
(0.956558 -0.0246239 0)
(0.830121 0.00252125 0)
(0.936707 -0.0199751 0)
(0.937678 -0.0201047 0)
(0.781609 -0.0204918 0)
(1.04351 0.000877574 0)
(0.766017 0.0543915 0)
(0.904053 0.00788712 0)
(1.33779 -0.0202966 0)
(1.09328 -0.0173396 0)
(1.09536 -0.017626 0)
(0.95943 0.0380742 0)
(0.967285 0.0391009 0)
(0.817036 0.00260634 0)
(0.994095 0.0112377 0)
(0.939315 0.0137872 0)
(0.925917 0.015196 0)
(0.767189 0.0120936 0)
(0.71503 0.0004436 0)
(0.936762 0.0135958 0)
(0.937327 0.0144768 0)
(0.939982 0.0129975 0)
(0.939473 0.0217406 0)
(0.990839 -0.00557111 0)
(1.07929 -0.0361192 0)
(1.01288 -0.0136657 0)
(1.06054 -0.0174299 0)
(0.820292 0.00274451 0)
(1.02745 -0.0125946 0)
(1.06208 -0.0381098 0)
(1.10516 -0.0430388 0)
(1.01479 0.0192434 0)
(0.78726 0.0187921 0)
(0.90406 0.0203302 0)
(0.935803 0.0213806 0)
(1.14379 -0.0613238 0)
(1.3128 0.0198447 0)
(0.945805 -0.00115426 0)
(1.00302 -0.00263074 0)
(1.00535 0.00635628 0)
(0.943188 -0.000859167 0)
(1.19976 -0.0116021 0)
(0.87201 0.0232126 0)
(0.835127 0.00196438 0)
(1.05587 -0.0150401 0)
(1.02202 0.0177186 0)
(1.14192 -0.000740661 0)
(0.934605 0.0129907 0)
(0.979861 0.0214844 0)
(0.995902 0.0228472 0)
(1.05378 -0.0811654 0)
(1.07061 -0.00151932 0)
(1.00238 0.00708959 0)
(1.0711 -0.00126921 0)
(1.0336 -0.00829836 0)
(1.0017 -0.00412085 0)
(1.13443 -0.0731457 0)
(1.07076 -0.0445038 0)
(0.836781 0.00105172 0)
(1.03322 -3.3245e-05 0)
(0.930813 0.0153549 0)
(1.00188 -0.00973649 0)
(0.829732 0.00222395 0)
(0.931307 0.0147659 0)
(0.891017 0.0223931 0)
(1.03959 -0.0148932 0)
(1.02246 0.0129203 0)
(0.817749 0.00142209 0)
(0.828818 0.00241897 0)
(0.872118 0.00407787 0)
(1.0391 -0.0138692 0)
(0.84164 0.0325475 0)
(0.799872 0.00070821 0)
(0.882175 0.00407553 0)
(0.801585 -0.0163543 0)
(1.00751 0.0121993 0)
(1.1304 -0.0511858 0)
(0.806899 0.00972374 0)
(0.997956 -0.0056918 0)
(0.886961 0.0019399 0)
(1.04088 -0.0150666 0)
(1.03382 -0.0135085 0)
(0.789762 -0.00040195 0)
(0.804829 0.0124217 0)
(0.866344 -0.0712672 0)
(1.108 -0.0407636 0)
(0.878034 0.0232245 0)
(1.08839 -0.0423291 0)
(1.02063 -0.0107664 0)
(1.02035 -0.0106886 0)
(0.780662 0.00581292 0)
(0.924586 0.0152001 0)
(1.0243 -0.01283 0)
(0.84474 0.0256231 0)
(1.09492 -0.0319315 0)
(0.881377 0.00180518 0)
(1.01037 0.0161738 0)
(0.956925 -0.000694772 0)
(1.09266 -0.0176359 0)
(1.05892 -0.0359421 0)
(0.874825 0.00194503 0)
(0.874989 0.00222933 0)
(1.02705 -0.0124817 0)
(1.09672 -0.0183086 0)
(0.994761 -0.0161573 0)
(1.00282 -0.0207506 0)
(1.03015 -0.0115573 0)
(1.02947 -0.0118581 0)
(0.875851 0.00190722 0)
(0.956917 -0.00124107 0)
(0.994819 -0.0151334 0)
(1.01382 -0.0241902 0)
(1.01129 -0.0226894 0)
(1.13522 -0.0512456 0)
(1.01113 0.0187898 0)
(0.843854 0.0262288 0)
(1.04585 -0.00985405 0)
(1.07389 -0.0348616 0)
(1.04717 -0.0104937 0)
(1.11494 -0.046801 0)
(1.04477 -0.0116109 0)
(0.935554 0.022448 0)
(-0.16386 0.00585883 0)
(0.853966 0.00177084 0)
(0.854453 0.0018613 0)
(1.05794 -0.0359393 0)
(1.00312 -0.0218931 0)
(0.824255 0.000409043 0)
(1.06291 -0.017692 0)
(1.00403 -0.0194576 0)
(0.808151 0.00356919 0)
(0.90565 -0.00822294 0)
(1.09788 -0.045491 0)
(1.06141 -0.0215562 0)
(0.815628 0.00581153 0)
(0.991704 0.000561439 0)
(0.909119 0.0205998 0)
(0.865419 0.0027659 0)
(0.860202 0.00477359 0)
(1.04477 -0.00418166 0)
(0.904883 0.0213865 0)
(0.860326 0.00280385 0)
(0.854642 0.0027137 0)
(0.850321 0.0268468 0)
(1.05861 -0.0135438 0)
(0.856166 0.00268796 0)
(1.05509 -0.0159943 0)
(1.08793 -0.0885355 0)
(0.958736 -0.0100905 0)
(1.09589 -0.0232914 0)
(0.819065 0.00355073 0)
(0.844162 0.0273253 0)
(1.09677 -0.0241722 0)
(0.884563 0.0433609 0)
(0.858837 0.0319369 0)
(1.04863 -0.0163777 0)
(0.869133 0.0311305 0)
(0.861539 0.0312447 0)
(0.864832 0.00561767 0)
(0.92426 -0.00549252 0)
(0.863978 0.031851 0)
(1.02197 -0.0185763 0)
(1.0976 -0.0241319 0)
(0.916444 0.0193042 0)
(0.841588 0.0109329 0)
(0.997052 -0.00323143 0)
(0.873106 0.0322012 0)
(0.893114 0.0228316 0)
(1.02664 -0.0046732 0)
(1.47725 0.0507505 0)
(0.915825 0.0190587 0)
(0.871056 0.0327531 0)
(0.881427 0.0308823 0)
(0.836102 0.0313891 0)
(1.0138 -0.0149709 0)
(0.887166 -0.0486367 0)
(0.835096 0.0316145 0)
(0.829635 0.0269597 0)
(1.07416 -0.0381537 0)
(0.882487 0.0314847 0)
(0.830918 0.0270382 0)
(0.90528 0.0201544 0)
(0.868719 0.000595813 0)