/*--------------------------------*- C++ -*----------------------------------*\
  =========                 |
  \\      /  F ield         | OpenFOAM: The Open Source CFD Toolbox
   \\    /   O peration     | Website:  https://openfoam.org
    \\  /    A nd           | Version:  12
     \\/     M anipulation  |
\*---------------------------------------------------------------------------*/
FoamFile
{
    format      ascii;
    class       surfaceScalarField;
    location    "14.8";
    object      phi;
}
// * * * * * * * * * * * * * * * * * * * * * * * * * * * * * * * * * * * * * //

dimensions      [1 0 -1 0 0 0 0];

internalField   nonuniform List<scalar> 
19404
(
-0.000122309
3.77217e-08
-0.000124002
7.32327e-08
-0.000126137
2.95634e-07
-0.000126998
4.05914e-07
-0.000127123
4.24932e-07
-0.000126976
3.56422e-07
-0.000126454
2.49369e-07
-0.000125738
2.48455e-07
-0.000125305
3.61506e-07
-0.000125086
3.35004e-07
-0.000124976
2.55255e-07
-0.000124936
1.37675e-07
-0.000125393
5.68087e-08
-0.000127641
8.30111e-08
-0.000129913
2.61322e-07
-0.000130646
4.21063e-07
-0.000130709
4.33201e-07
-0.000130503
3.37348e-07
-0.000129715
2.25192e-07
-0.000128799
3.21538e-07
-0.000128354
4.42263e-07
-0.000128173
3.87019e-07
-0.00012809
2.86807e-07
-0.000128082
1.53065e-07
-0.000128961
5.25229e-08
-0.000131825
4.17092e-08
-0.000133639
2.57409e-07
-0.000134057
3.6253e-07
-0.000134027
3.29273e-07
-0.000133483
1.9341e-07
-0.0001323
1.75968e-07
-0.000131514
3.71217e-07
-0.000131219
4.37081e-07
-0.000131125
3.70143e-07
-0.000131093
2.51545e-07
-0.000131367
1.0776e-07
-0.000133843
1.14662e-07
-0.000136448
2.75794e-07
-0.000137232
3.58157e-07
-0.000137326
3.58457e-07
-0.000136876
1.8426e-07
-0.000135463
2.64356e-08
-0.000134295
1.67227e-07
-0.000133784
3.5615e-07
-0.000133611
3.51544e-07
-0.000133586
2.6853e-07
-0.000133669
1.34686e-07
-0.000135631
8.79936e-08
-0.000139198
2.49079e-07
-0.000140581
3.96846e-07
-0.000140757
4.04858e-07
-0.000140406
2.45352e-07
-0.000138569
-4.58398e-08
-0.000136761
-4.19016e-08
-0.00013586
1.86252e-07
-0.000135527
3.06871e-07
-0.00013548
3.42193e-07
-0.000135531
1.72207e-07
-0.000137121
7.10173e-08
-0.000141337
1.53744e-07
-0.000143544
3.4257e-07
-0.000143959
3.9003e-07
-0.000143827
3.16255e-07
-0.000141646
4.75897e-08
-0.000138493
-1.6037e-07
-0.000136946
-2.45072e-08
-0.000136516
1.53752e-07
-0.000136491
1.64382e-07
-0.000136606
1.16565e-09
-0.000138714
-1.99303e-08
-0.00014369
-1.66193e-08
-0.000146287
4.57099e-07
-0.000146953
5.47471e-07
-0.000146875
4.97747e-07
-0.00014421
9.52012e-08
-0.000139112
-2.66004e-07
-0.000136235
-3.32962e-07
-0.000135561
-2.01174e-07
-0.000135598
-3.12504e-07
-0.000136177
-2.98177e-07
-0.000141816
3.07711e-08
-0.000147364
-3.61814e-08
-0.00014889
1.52779e-07
-0.000149192
4.36373e-07
-0.000148714
5.11051e-07
-0.000144524
2.10151e-07
-0.000136428
-7.27838e-07
-0.00013125
-9.40728e-07
-0.000130404
-1.03323e-06
-0.000130808
-1.23244e-06
-0.000137547
-1.32544e-06
-0.000146
-1.34796e-06
-0.000149142
-6.45777e-07
-0.000149852
-4.38254e-07
-0.000149494
-7.99916e-07
-0.000142922
-8.40836e-07
-0.000127642
-3.98539e-06
-0.000110499
-2.3603e-05
1.6719e-05
-0.000130706
1.09873e-07
-0.000132669
1.84527e-07
-0.000134552
4.44851e-07
-0.000135132
5.22809e-07
-0.000135203
5.71963e-07
-0.000135102
5.45219e-07
-0.00013465
4.76246e-07
-0.000133279
4.48052e-07
-0.000132482
4.15667e-07
-0.000132135
3.67133e-07
-0.000131992
3.47313e-07
-0.000131904
2.4244e-07
-0.000132317
1.54002e-07
-0.000134612
2.23617e-07
-0.000136293
3.63838e-07
-0.000136781
4.73437e-07
-0.000136816
5.32332e-07
-0.000136705
5.01992e-07
-0.000135817
4.48877e-07
-0.000134252
4.69016e-07
-0.000133575
4.61284e-07
-0.000133323
4.42265e-07
-0.000133235
4.00079e-07
-0.000133234
2.89277e-07
-0.000134369
1.95296e-07
-0.000136943
2.42909e-07
-0.000138134
3.32885e-07
-0.000138402
4.14994e-07
-0.000138396
4.51462e-07
-0.000138077
3.84898e-07
-0.000136273
3.62561e-07
-0.000135014
3.72335e-07
-0.000134568
4.19148e-07
-0.000134426
4.17329e-07
-0.000134383
3.51246e-07
-0.000134677
2.36511e-07
-0.000137145
2.72244e-07
-0.000139463
4.09397e-07
-0.00014012
4.97796e-07
-0.000140194
5.3032e-07
-0.000140087
4.10002e-07
-0.000138473
3.10848e-07
-0.00013644
2.3012e-07
-0.00013567
2.74843e-07
-0.000135422
3.14846e-07
-0.000135364
3.05856e-07
-0.000135426
2.17539e-07
-0.000137203
1.82722e-07
-0.000140604
3.51452e-07
-0.000141936
5.21775e-07
-0.000142153
5.86955e-07
-0.000142135
5.06155e-07
-0.000140857
3.44365e-07
-0.000138015
1.84961e-07
-0.000136715
1.19588e-07
-0.000136315
2.10526e-07
-0.00013617
3.1451e-07
-0.000136216
2.40414e-07
-0.000137668
1.42354e-07
-0.000141844
2.43648e-07
-0.000143859
4.64531e-07
-0.000144271
5.62291e-07
-0.000144285
5.5929e-07
-0.000143152
4.26797e-07
-0.000139358
1.9819e-07
-0.000137299
-1.3578e-08
-0.000136741
-1.59994e-08
-0.000136617
4.12391e-08
-0.000136731
-2.48806e-08
-0.000138886
-5.97307e-08
-0.000143973
1.28488e-07
-0.000146283
5.61478e-07
-0.000146792
7.63148e-07
-0.00014682
7.74337e-07
-0.00014548
6.19606e-07
-0.000139995
2.02937e-07
-0.000136617
-2.98134e-07
-0.000135766
-5.29268e-07
-0.000135734
-5.05974e-07
-0.000136269
-6.80573e-07
-0.000140873
-4.63155e-07
-0.00014591
-4.10729e-08
-0.000147858
4.46336e-07
-0.00014832
6.49928e-07
-0.00014843
5.66525e-07
-0.00014581
4.66796e-07
-0.000137125
-3.67239e-07
-0.00013182
-1.30873e-06
-0.000130603
-1.64563e-06
-0.000130629
-1.88855e-06
-0.000133784
-2.68789e-06
-0.000140363
-2.68212e-06
-0.000143423
-1.89878e-06
-0.000143903
-2.10613e-06
-0.000143229
-2.76661e-06
-0.000136169
-3.56751e-06
-0.000121977
-7.89599e-06
-0.000119681
-3.02776e-05
2.52916e-05
-0.000130064
2.12965e-07
-0.000131915
3.07322e-07
-0.000133782
5.83027e-07
-0.000134384
6.74466e-07
-0.000134481
7.10796e-07
-0.00013439
6.96306e-07
-0.000134033
6.50607e-07
-0.000132803
6.16579e-07
-0.000131973
5.00698e-07
-0.000131618
4.12477e-07
-0.000131419
3.72395e-07
-0.000131337
3.46574e-07
-0.000131697
2.78608e-07
-0.000133876
3.77622e-07
-0.000135491
5.19059e-07
-0.000135991
6.06681e-07
-0.000136052
6.40887e-07
-0.000135956
6.555e-07
-0.000135171
6.22894e-07
-0.000133699
5.93033e-07
-0.000133075
5.01234e-07
-0.00013283
4.45842e-07
-0.000132717
4.13166e-07
-0.000132704
3.61409e-07
-0.000133798
3.43699e-07
-0.000136202
4.28265e-07
-0.000137353
5.43758e-07
-0.000137669
5.9689e-07
-0.000137666
5.93213e-07
-0.000137361
5.66637e-07
-0.000135666
5.35536e-07
-0.000134507
4.68274e-07
-0.000134081
4.02944e-07
-0.000133894
3.79142e-07
-0.000133842
3.86033e-07
-0.000134088
3.45796e-07
-0.000136408
3.92667e-07
-0.000138756
5.64579e-07
-0.000139456
6.62033e-07
-0.000139556
6.85537e-07
-0.000139459
6.00977e-07
-0.000137943
5.32045e-07
-0.000135961
4.11664e-07
-0.000135223
3.01329e-07
-0.000134931
2.67376e-07
-0.000134835
3.08064e-07
-0.00013486
2.85248e-07
-0.000136389
2.86855e-07
-0.000139802
4.62731e-07
-0.000141243
6.53827e-07
-0.000141514
7.33424e-07
-0.000141508
7.08195e-07
-0.000140441
6.23233e-07
-0.000137518
4.43202e-07
-0.000136109
2.25617e-07
-0.000135653
1.36925e-07
-0.000135522
1.63853e-07
-0.000135559
1.90486e-07
-0.00013679
1.96764e-07
-0.000140812
3.41473e-07
-0.000142988
6.28547e-07
-0.000143493
7.60259e-07
-0.000143557
7.83688e-07
-0.000142816
6.72505e-07
-0.00013912
4.75534e-07
-0.000136501
9.58555e-08
-0.000135719
-1.24266e-07
-0.00013552
-1.49145e-07
-0.000135587
-1.4498e-07
-0.000137323
-1.50539e-07
-0.000142106
1.70652e-07
-0.000144673
6.27014e-07
-0.000145361
8.98896e-07
-0.000145479
9.77651e-07
-0.000144849
8.45042e-07
-0.000139877
5.7366e-07
-0.000135448
-1.81807e-07
-0.000134234
-8.44727e-07
-0.000134054
-9.64962e-07
-0.000134265
-1.02772e-06
-0.000137158
-1.01906e-06
-0.000142816
-3.5641e-07
-0.000145804
4.49968e-07
-0.000146546
7.36509e-07
-0.000146729
7.32837e-07
-0.000145068
6.22157e-07
-0.000137091
1.05239e-07
-0.000130312
-1.3372e-06
-0.000128105
-2.67111e-06
-0.000127979
-3.38797e-06
-0.000128982
-3.86783e-06
-0.000134577
-4.11762e-06
-0.000138542
-3.61327e-06
-0.000139643
-4.06495e-06
-0.000139464
-5.14301e-06
-0.000134241
-6.36644e-06
-0.000122464
-1.05023e-05
-0.000121519
-3.18482e-05
3.16545e-05
-0.0001289
3.12292e-07
-0.0001307
4.43571e-07
-0.00013256
7.07719e-07
-0.00013319
7.90713e-07
-0.000133308
8.18947e-07
-0.000133238
8.01924e-07
-0.000133036
7.67107e-07
-0.000131998
7.15456e-07
-0.00013097
6.26948e-07
-0.000130516
5.15715e-07
-0.000130322
4.75496e-07
-0.000130221
4.21924e-07
-0.000130619
4.06997e-07
-0.000132649
5.23418e-07
-0.000134203
7.09121e-07
-0.000134694
7.63816e-07
-0.000134801
7.88402e-07
-0.000134725
7.58638e-07
-0.000134197
7.06232e-07
-0.000132752
6.66278e-07
-0.000132055
5.7501e-07
-0.000131771
4.81832e-07
-0.000131645
4.29642e-07
-0.000131663
4.04439e-07
-0.00013271
4.3299e-07
-0.000134978
6.28491e-07
-0.000136079
7.86358e-07
-0.000136382
8.25009e-07
-0.000136415
7.87515e-07
-0.000136236
7.28966e-07
-0.000134709
6.46773e-07
-0.000133359
5.76525e-07
-0.000132892
4.61962e-07
-0.00013271
3.90704e-07
-0.000132651
3.5926e-07
-0.000132921
3.55712e-07
-0.000135151
4.56402e-07
-0.000137538
6.98711e-07
-0.000138286
8.3233e-07
-0.000138398
8.40668e-07
-0.000138363
7.98715e-07
-0.000137159
7.23316e-07
-0.00013485
6.24987e-07
-0.000133917
4.3178e-07
-0.000133602
3.08456e-07
-0.000133508
2.8751e-07
-0.000133567
2.64953e-07
-0.000134959
2.91122e-07
-0.000138318
5.04131e-07
-0.00013991
7.76583e-07
-0.000140266
9.04657e-07
-0.000140307
9.07505e-07
-0.000139683
8.29691e-07
-0.00013668
6.76117e-07
-0.000134715
3.89207e-07
-0.000134137
1.03843e-07
-0.000133969
5.37026e-08
-0.000133992
7.15155e-08
-0.000135002
1.06533e-07
-0.000138862
3.74575e-07
-0.000141317
7.60726e-07
-0.000141962
9.58078e-07
-0.000142048
1.0086e-06
-0.000141799
9.06782e-07
-0.000138601
7.26918e-07
-0.000134954
2.95523e-07
-0.000133744
-2.42882e-07
-0.000133464
-3.91809e-07
-0.000133503
-3.59519e-07
-0.000134578
-3.8882e-07
-0.000139082
-5.55832e-08
-0.000142294
5.94094e-07
-0.000143246
9.81609e-07
-0.000143409
1.07385e-06
-0.000143294
9.84234e-07
-0.000139794
8.01201e-07
-0.000134012
-4.31313e-08
-0.000131631
-9.1389e-07
-0.000131306
-1.41771e-06
-0.000131354
-1.51841e-06
-0.000132701
-1.61045e-06
-0.000138011
-1.24066e-06
-0.000141759
-1.6858e-07
-0.000142827
6.11516e-07
-0.000143009
8.25553e-07
-0.000142666
7.17793e-07
-0.00013753
4.46539e-07
-0.000129621
-1.17377e-06
-0.000125247
-3.0385e-06
-0.000124443
-4.61859e-06
-0.000124466
-5.44642e-06
-0.000126877
-5.87784e-06
-0.000130609
-5.80955e-06
-0.000132128
-6.35205e-06
-0.000132458
-7.81109e-06
-0.000130383
-8.86787e-06
-0.000124387
-1.14864e-05
-0.000122321
-2.91071e-05
3.58795e-05
-0.000127615
4.32903e-07
-0.000129395
5.59954e-07
-0.00013115
8.25641e-07
-0.00013179
9.11679e-07
-0.000131952
9.18809e-07
-0.000131914
8.88383e-07
-0.000131762
8.42477e-07
-0.000131041
7.85337e-07
-0.000129808
7.45054e-07
-0.00012924
6.56746e-07
-0.000128983
6.00607e-07
-0.000128883
5.50791e-07
-0.000129268
5.01819e-07
-0.000131311
6.59779e-07
-0.000132796
8.596e-07
-0.000133287
9.32691e-07
-0.000133374
9.0621e-07
-0.000133332
8.73802e-07
-0.000133044
7.9154e-07
-0.000131706
7.4028e-07
-0.000130776
6.25839e-07
-0.000130393
5.46107e-07
-0.00013023
5.12802e-07
-0.000130191
4.84508e-07
-0.00013115
4.93663e-07
-0.00013352
7.52868e-07
-0.000134684
9.72442e-07
-0.000134978
1.01947e-06
-0.000135015
9.73688e-07
-0.000134903
8.75646e-07
-0.000133714
7.95557e-07
-0.000132087
6.76234e-07
-0.00013147
4.83686e-07
-0.000131229
4.23135e-07
-0.000131143
3.9791e-07
-0.000131298
3.76e-07
-0.000133389
4.85328e-07
-0.000135887
7.80807e-07
-0.000136727
9.8923e-07
-0.000136886
1.02624e-06
-0.000136867
1.00159e-06
-0.00013613
9.29636e-07
-0.000133657
7.84396e-07
-0.000132392
4.76073e-07
-0.000132025
2.92885e-07
-0.000131881
2.48398e-07
-0.000131896
2.65892e-07
-0.000133007
2.90058e-07
-0.000136231
5.55636e-07
-0.000137999
9.14544e-07
-0.000138468
1.08687e-06
-0.000138538
1.10321e-06
-0.000138334
1.02494e-06
-0.000135925
8.87439e-07
-0.000133147
4.78521e-07
-0.000132291
8.73366e-08
-0.000132052
-5.26722e-08
-0.00013202
-4.18086e-08
-0.00013265
-9.06404e-09
-0.000136117
2.60395e-07
-0.000138945
7.77224e-07
-0.000139819
1.11788e-06
-0.000140003
1.18761e-06
-0.000139993
1.13078e-06
-0.000138243
9.90302e-07
-0.000133779
4.84469e-07
-0.000131572
-1.82525e-07
-0.000131158
-5.94885e-07
-0.000131104
-6.90937e-07
-0.000131551
-7.19118e-07
-0.000135177
-5.08604e-07
-0.000139181
3.15901e-07
-0.000140517
1.01835e-06
-0.000140788
1.22752e-06
-0.000140858
1.15927e-06
-0.000139501
9.75442e-07
-0.000133677
4.0964e-07
-0.000129392
-9.32934e-07
-0.000128486
-1.66983e-06
-0.000128509
-2.15901e-06
-0.000128855
-2.33113e-06
-0.000132347
-2.2515e-06
-0.000137408
-1.21503e-06
-0.000139475
-1.61402e-08
-0.00013991
5.57862e-07
-0.000140038
6.47084e-07
-0.000137943
5.17848e-07
-0.000130815
-4.22328e-07
-0.000124408
-3.04341e-06
-0.000121738
-4.91494e-06
-0.000121678
-6.49306e-06
-0.000122346
-7.38783e-06
-0.000125859
-7.77966e-06
-0.000128484
-8.17758e-06
-0.000129177
-9.78657e-06
-0.000128792
-1.14589e-05
-0.00012668
-1.2354e-05
-0.000122377
-2.61159e-05
3.90242e-05
-0.000126348
5.68998e-07
-0.000128161
6.63425e-07
-0.000130009
9.18523e-07
-0.000130621
1.01974e-06
-0.000130747
1.01925e-06
-0.000130702
9.82462e-07
-0.000130566
9.2722e-07
-0.000130044
8.51812e-07
-0.00012873
8.30465e-07
-0.000128015
7.8134e-07
-0.000127715
7.30485e-07
-0.000127582
6.87208e-07
-0.000127864
6.34094e-07
-0.000129949
7.55083e-07
-0.000131592
9.89888e-07
-0.000132077
1.07259e-06
-0.000132169
1.04864e-06
-0.000132107
9.90191e-07
-0.000131894
8.9207e-07
-0.000130709
8.20015e-07
-0.000129562
7.03124e-07
-0.000129076
5.87048e-07
-0.000128844
5.6092e-07
-0.000128755
5.67009e-07
-0.000129433
5.76063e-07
-0.000131997
8.08431e-07
-0.000133414
1.10027e-06
-0.000133735
1.17104e-06
-0.000133762
1.14715e-06
-0.000133689
1.05586e-06
-0.000132795
9.46294e-07
-0.000130912
7.72924e-07
-0.000130114
5.38991e-07
-0.000129778
3.92796e-07
-0.000129671
4.20153e-07
-0.00012973
4.20439e-07
-0.000131455
5.06863e-07
-0.000134144
8.22839e-07
-0.00013518
1.11946e-06
-0.000135412
1.19436e-06
-0.000135415
1.19568e-06
-0.000135105
1.1286e-06
-0.000132952
9.53807e-07
-0.000131021
5.73433e-07
-0.000130393
2.93774e-07
-0.000130178
1.95367e-07
-0.000130143
2.37242e-07
-0.000130882
2.61312e-07
-0.000134037
5.49967e-07
-0.000136165
9.92307e-07
-0.000136796
1.21638e-06
-0.000136954
1.26168e-06
-0.000136944
1.19779e-06
-0.000135678
1.06754e-06
-0.000132219
6.54052e-07
-0.000130433
2.15797e-07
-0.00013003
-7.96282e-08
-0.000129968
-1.76968e-07
-0.000130285
-1.83154e-07
-0.000133215
1.59441e-09
-0.000136681
6.14258e-07
-0.000137893
1.17332e-06
-0.00013818
1.34461e-06
-0.000138239
1.31313e-06
-0.000137716
1.14604e-06
-0.00013381
8.27839e-07
-0.000130058
-1.36785e-07
-0.000129037
-5.99804e-07
-0.000128962
-9.16481e-07
-0.000129065
-1.03469e-06
-0.000131184
-1.01339e-06
-0.000135997
-2.71805e-07
-0.000138352
8.16316e-07
-0.000138841
1.33312e-06
-0.000138933
1.39568e-06
-0.000138633
1.24466e-06
-0.000134554
8.39319e-07
-0.000129075
-5.76519e-07
-0.000126614
-1.76729e-06
-0.000126205
-2.69231e-06
-0.000126258
-2.91824e-06
-0.000127532
-3.07174e-06
-0.000132316
-2.61429e-06
-0.000135991
-1.2748e-06
-0.000137253
-2.3103e-07
-0.000137569
1.41567e-07
-0.000137354
1.74352e-07
-0.000133408
-1.43129e-07
-0.000126402
-1.96944e-06
-0.000121574
-4.67848e-06
-0.000119838
-6.67695e-06
-0.000119895
-8.36337e-06
-0.000121652
-9.25083e-06
-0.000125139
-9.70755e-06
-0.000127014
-1.09438e-05
-0.000127402
-1.2927e-05
-0.000127411
-1.38099e-05
-0.000122916
-2.32798e-05
4.12611e-05
-0.000125323
7.16101e-07
-0.000126913
7.47749e-07
-0.000128967
9.86664e-07
-0.000129644
1.10374e-06
-0.000129797
1.12373e-06
-0.000129745
1.07082e-06
-0.000129615
1.02544e-06
-0.000129182
9.65753e-07
-0.000127806
9.19274e-07
-0.000126986
8.71211e-07
-0.000126659
8.15629e-07
-0.000126516
7.85344e-07
-0.000126677
7.39666e-07
-0.000128698
8.40908e-07
-0.000130534
1.08821e-06
-0.000131093
1.21279e-06
-0.000131208
1.20212e-06
-0.000131162
1.13053e-06
-0.000131027
1.0313e-06
-0.000129968
9.16528e-07
-0.000128433
7.92272e-07
-0.000127801
6.55483e-07
-0.000127564
6.03126e-07
-0.000127492
6.1278e-07
-0.000128002
6.33636e-07
-0.000130531
8.33417e-07
-0.000132247
1.16411e-06
-0.000132712
1.30673e-06
-0.000132775
1.30282e-06
-0.000132727
1.23423e-06
-0.000132286
1.11992e-06
-0.000130262
9.09263e-07
-0.000128843
6.47196e-07
-0.000128443
4.80175e-07
-0.00012829
3.98637e-07
-0.000128336
4.12621e-07
-0.000129761
5.0349e-07
-0.000132554
8.63591e-07
-0.000133819
1.21994e-06
-0.000134195
1.36349e-06
-0.000134265
1.35563e-06
-0.000134206
1.27319e-06
-0.000132962
1.12161e-06
-0.000130219
7.03715e-07
-0.000128938
4.1517e-07
-0.000128629
2.35411e-07
-0.000128568
1.61773e-07
-0.000129047
1.54962e-07
-0.00013199
3.81282e-07
-0.000134605
9.4857e-07
-0.000135448
1.33123e-06
-0.000135668
1.42875e-06
-0.000135706
1.37829e-06
-0.00013534
1.23824e-06
-0.000132278
9.88691e-07
-0.000129289
2.27603e-07
-0.000128441
-3.89884e-08
-0.000128347
-2.3446e-07
-0.000128434
-3.62049e-07
-0.000130332
-3.40278e-07
-0.0001345
2.48115e-07
-0.000136438
1.0904e-06
-0.000136857
1.47911e-06
-0.000136926
1.51281e-06
-0.000136867
1.34297e-06
-0.000134408
1.08236e-06
-0.000129982
3.06668e-07
-0.000127868
-5.985e-07
-0.000127429
-1.0475e-06
-0.000127436
-1.20607e-06
-0.000127991
-1.28934e-06
-0.000132048
-1.02167e-06
-0.000136221
1.93606e-07
-0.000137549
1.21916e-06
-0.000137773
1.506e-06
-0.000137832
1.45565e-06
-0.000136301
1.18347e-06
-0.000130761
3.71888e-07
-0.000126371
-1.58053e-06
-0.000124688
-2.74013e-06
-0.000124534
-3.27302e-06
-0.000124739
-3.6249e-06
-0.000127386
-3.75843e-06
-0.000132214
-2.91527e-06
-0.000135068
-1.5142e-06
-0.000136158
-7.02766e-07
-0.000136403
-4.71018e-07
-0.000135519
-2.50284e-07
-0.000130371
-1.28883e-06
-0.000124122
-3.56083e-06
-0.000120221
-6.41442e-06
-0.000119074
-8.52285e-06
-0.00011933
-1.02164e-05
-0.000122219
-1.09536e-05
-0.000125559
-1.18093e-05
-0.000127003
-1.36414e-05
-0.000127806
-1.46614e-05
-0.000122871
-2.14849e-05
4.3426e-05
-0.000124675
8.32313e-07
-0.000126161
8.55049e-07
-0.000128178
1.08316e-06
-0.000128872
1.21877e-06
-0.000129014
1.22451e-06
-0.000128997
1.19803e-06
-0.000128875
1.14353e-06
-0.000128467
1.08297e-06
-0.000127025
1.02702e-06
-0.000126094
9.51505e-07
-0.00012576
8.9295e-07
-0.000125634
8.5243e-07
-0.000125793
7.79727e-07
-0.000127774
8.77359e-07
-0.000129797
1.16154e-06
-0.000130417
1.35494e-06
-0.000130521
1.34805e-06
-0.000130484
1.28504e-06
-0.000130378
1.18662e-06
-0.000129629
1.07117e-06
-0.000127704
8.92487e-07
-0.000126794
7.95398e-07
-0.000126503
6.96889e-07
-0.000126416
6.62773e-07
-0.000126828
6.16672e-07
-0.000129294
7.89931e-07
-0.000131329
1.17505e-06
-0.000131941
1.40538e-06
-0.000132053
1.4206e-06
-0.000132021
1.35965e-06
-0.000131853
1.26647e-06
-0.00013032
1.12428e-06
-0.000128179
7.44332e-07
-0.000127389
6.01642e-07
-0.000127182
4.81168e-07
-0.000127157
4.28993e-07
-0.000128241
4.45845e-07
-0.000131203
7.86976e-07
-0.000132829
1.27452e-06
-0.000133284
1.49123e-06
-0.000133394
1.47734e-06
-0.000133397
1.40099e-06
-0.000132956
1.24864e-06
-0.000130228
1.0537e-06
-0.000128059
4.22499e-07
-0.000127494
3.10403e-07
-0.000127404
1.50385e-07
-0.000127565
6.52085e-08
-0.000129904
1.36164e-07
-0.000133322
7.5417e-07
-0.000134594
1.3896e-06
-0.00013484
1.58823e-06
-0.000134884
1.57177e-06
-0.000134791
1.43086e-06
-0.000132775
1.25366e-06
-0.000129229
6.45757e-07
-0.000127623
-4.66282e-08
-0.000127269
-3.30648e-07
-0.00012728
-4.39006e-07
-0.000127873
-5.29767e-07
-0.000131735
-2.72012e-07
-0.000135159
7.61964e-07
-0.000136077
1.49949e-06
-0.000136201
1.68164e-06
-0.000136229
1.56834e-06
-0.000135329
1.35149e-06
-0.000131036
9.07494e-07
-0.000127688
-3.18746e-07
-0.000126427
-1.05319e-06
-0.000126199
-1.38061e-06
-0.000126276
-1.51852e-06
-0.000127989
-1.61154e-06
-0.000133155
-9.29145e-07
-0.000136279
5.80616e-07
-0.000137146
1.41483e-06
-0.000137303
1.52225e-06
-0.000137198
1.41373e-06
-0.000133786
1.15225e-06
-0.000127691
-2.10388e-07
-0.000124513
-2.34736e-06
-0.000123558
-3.3352e-06
-0.000123568
-4.04249e-06
-0.000124057
-4.32476e-06
-0.000127627
-4.29805e-06
-0.000131796
-3.21144e-06
-0.000133956
-2.01262e-06
-0.000134821
-1.43053e-06
-0.000135008
-1.38871e-06
-0.000133647
-1.19199e-06
-0.000128552
-2.75038e-06
-0.000122784
-5.11778e-06
-0.000119303
-8.26986e-06
-0.000118553
-1.03993e-05
-0.00011923
-1.20829e-05
-0.000123068
-1.28319e-05
-0.000125922
-1.44192e-05
-0.000127596
-1.53857e-05
-0.000123471
-1.93185e-05
4.51498e-05
-0.00012422
8.89616e-07
-0.000125637
8.93732e-07
-0.000127716
1.17877e-06
-0.000128427
1.35011e-06
-0.000128589
1.38573e-06
-0.000128561
1.36156e-06
-0.00012844
1.3055e-06
-0.00012811
1.23478e-06
-0.000126728
1.14948e-06
-0.000125565
1.03414e-06
-0.000125164
9.65274e-07
-0.000124994
8.81188e-07
-0.000125044
8.00383e-07
-0.000126823
8.50765e-07
-0.000129176
1.16621e-06
-0.000129977
1.44635e-06
-0.00013015
1.49588e-06
-0.00013012
1.44321e-06
-0.000130013
1.35914e-06
-0.000129523
1.27318e-06
-0.000127596
1.12219e-06
-0.000126228
8.63807e-07
-0.000125807
7.87989e-07
-0.000125678
7.15086e-07
-0.000125857
6.32806e-07
-0.000128097
7.08848e-07
-0.000130555
1.11095e-06
-0.000131369
1.44723e-06
-0.000131567
1.52054e-06
-0.000131557
1.46433e-06
-0.000131491
1.41785e-06
-0.00013057
1.30288e-06
-0.000128124
1.06129e-06
-0.000126779
6.29366e-07
-0.000126416
5.61321e-07
-0.000126354
4.92842e-07
-0.000126826
4.16403e-07
-0.000129787
5.99975e-07
-0.000132122
1.20967e-06
-0.000132805
1.59974e-06
-0.000132942
1.61058e-06
-0.000132938
1.54741e-06
-0.000132776
1.42799e-06
-0.00013066
1.27751e-06
-0.000127972
7.58138e-07
-0.00012692
2.78375e-07
-0.000126681
1.36456e-07
-0.000126681
6.07852e-08
-0.000127754
2.02123e-09
-0.000131639
4.01762e-07
-0.000133842
1.28621e-06
-0.000134337
1.72099e-06
-0.000134419
1.76631e-06
-0.000134437
1.66279e-06
-0.00013355
1.48188e-06
-0.000129916
1.05163e-06
-0.000127494
1.54406e-07
-0.000126678
-3.49423e-07
-0.000126491
-5.10597e-07
-0.000126551
-6.00022e-07
-0.000128462
-6.18706e-07
-0.000133179
6.25238e-08
-0.000135434
1.27931e-06
-0.00013586
1.77391e-06
-0.000135901
1.75467e-06
-0.000135763
1.6542e-06
-0.000133087
1.5172e-06
-0.000128361
4.52593e-07
-0.000125991
-9.65865e-07
-0.000125399
-1.43493e-06
-0.000125393
-1.82067e-06
-0.000125652
-1.9825e-06
-0.000129045
-1.95779e-06
-0.0001342
-6.57342e-07
-0.000136393
8.98339e-07
-0.000136865
1.4906e-06
-0.000136973
1.58716e-06
-0.00013627
1.43356e-06
-0.000131456
1.0099e-06
-0.000126064
-9.85616e-07
-0.000123501
-3.08271e-06
-0.000122811
-4.06521e-06
-0.000122824
-4.62034e-06
-0.000123884
-5.0062e-06
-0.000127978
-4.83947e-06
-0.000131542
-3.68286e-06
-0.000133248
-2.71617e-06
-0.000133995
-2.39562e-06
-0.000133975
-2.39718e-06
-0.000132031
-2.59027e-06
-0.000127167
-4.32728e-06
-0.000121719
-6.96597e-06
-0.000118405
-1.03206e-05
-0.000118173
-1.22853e-05
-0.000119794
-1.40208e-05
-0.000124011
-1.54122e-05
-0.000126596
-1.65761e-05
-0.000124265
-1.68171e-05
4.63823e-05
-0.000123977
9.27724e-07
-0.000125135
8.81542e-07
-0.000127433
1.2196e-06
-0.000128262
1.48935e-06
-0.000128427
1.57657e-06
-0.000128389
1.529e-06
-0.000128284
1.48754e-06
-0.000128032
1.39225e-06
-0.000126765
1.2926e-06
-0.000125401
1.11966e-06
-0.000124882
1.01107e-06
-0.000124694
9.24917e-07
-0.000124626
8.22135e-07
-0.000125875
8.10608e-07
-0.00012859
1.09686e-06
-0.000129708
1.49157e-06
-0.000129922
1.59897e-06
-0.000129928
1.60087e-06
-0.000129845
1.5376e-06
-0.000129535
1.44807e-06
-0.00012777
1.35507e-06
-0.000126067
1.03985e-06
-0.000125501
8.65513e-07
-0.000125339
7.59386e-07
-0.000125318
6.36932e-07
-0.000126871
6.20437e-07
-0.000129809
1.00574e-06
-0.000130978
1.47326e-06
-0.000131261
1.63848e-06
-0.000131301
1.60368e-06
-0.000131248
1.56085e-06
-0.000130835
1.46087e-06
-0.000128412
1.30439e-06
-0.000126609
8.57314e-07
-0.000126012
6.28807e-07
-0.000125879
5.12099e-07
-0.000125941
4.16686e-07
-0.000128083
4.52652e-07
-0.00013135
9.98845e-07
-0.000132468
1.61821e-06
-0.000132701
1.76442e-06
-0.000132719
1.71527e-06
-0.000132673
1.60673e-06
-0.000131445
1.46475e-06
-0.000128356
1.06434e-06
-0.000126804
4.18839e-07
-0.000126257
1.50012e-07
-0.000126155
5.3107e-08
-0.000126323
-1.434e-09
-0.000129176
7.46691e-08
-0.000132845
9.06481e-07
-0.00013401
1.7337e-06
-0.000134209
1.88136e-06
-0.000134225
1.82836e-06
-0.000134058
1.65987e-06
-0.000131452
1.49034e-06
-0.000127895
6.46681e-07
-0.000126367
-2.41038e-07
-0.000125905
-5.39342e-07
-0.000125893
-6.76453e-07
-0.000126268
-7.88625e-07
-0.000130057
-6.6063e-07
-0.000134208
5.67596e-07
-0.000135512
1.6857e-06
-0.000135758
1.97357e-06
-0.000135786
1.95752e-06
-0.000135063
1.79719e-06
-0.000130587
1.40373e-06
-0.00012662
-2.65581e-07
-0.000125098
-1.51183e-06
-0.000124697
-2.12045e-06
-0.000124736
-2.23281e-06
-0.000125388
-2.39263e-06
-0.000130018
-2.09156e-06
-0.000134442
-4.31934e-07
-0.000135978
1.02718e-06
-0.000136336
1.51408e-06
-0.000136446
1.49529e-06
-0.000135332
1.25772e-06
-0.000129746
5.88854e-07
-0.000124749
-1.60482e-06
-0.000122682
-3.76092e-06
-0.000122299
-4.65092e-06
-0.000122374
-5.37351e-06
-0.000124003
-5.70953e-06
-0.000127994
-5.35485e-06
-0.000130857
-4.24712e-06
-0.000132275
-3.58953e-06
-0.000132852
-3.54913e-06
-0.000132647
-3.5676e-06
-0.000130586
-4.23999e-06
-0.00012606
-6.05568e-06
-0.000120816
-9.10358e-06
-0.000117637
-1.23315e-05
-0.000117684
-1.41371e-05
-0.000120975
-1.60617e-05
-0.00012457
-1.82343e-05
-0.000125619
-1.37419e-05
4.6912e-05
-0.000123833
9.6071e-07
-0.000124515
8.8636e-07
-0.000126988
1.17804e-06
-0.000128111
1.58031e-06
-0.000128321
1.73499e-06
-0.000128326
1.72028e-06
-0.000128219
1.65514e-06
-0.000128025
1.5502e-06
-0.00012698
1.45816e-06
-0.000125427
1.25926e-06
-0.000124787
1.07079e-06
-0.000124542
9.72717e-07
-0.000124429
8.63475e-07
-0.000125041
7.76174e-07
-0.000127828
9.91458e-07
-0.000129391
1.48376e-06
-0.000129751
1.71064e-06
-0.000129766
1.7317e-06
-0.000129692
1.70671e-06
-0.000129522
1.63158e-06
-0.000128156
1.51904e-06
-0.000126154
1.25609e-06
-0.000125412
9.32243e-07
-0.000125179
8.16043e-07
-0.000125109
6.89524e-07
-0.000125805
5.80562e-07
-0.000128874
8.39951e-07
-0.000130663
1.45894e-06
-0.00013105
1.71425e-06
-0.000131131
1.77687e-06
-0.000131075
1.70547e-06
-0.000130894
1.62467e-06
-0.000129052
1.5023e-06
-0.00012668
1.10264e-06
-0.000125858
6.86436e-07
-0.000125589
5.39826e-07
-0.000125556
4.50361e-07
-0.000126416
3.54802e-07
-0.000130056
6.69985e-07
-0.000132114
1.50015e-06
-0.000132539
1.86231e-06
-0.000132608
1.89377e-06
-0.000132583
1.77969e-06
-0.000132165
1.65439e-06
-0.000129362
1.43839e-06
-0.000126868
7.27162e-07
-0.000125926
1.83266e-07
-0.000125664
8.00342e-08
-0.000125646
-2.16292e-08
-0.000126732
-8.91665e-08
-0.0001311
3.08137e-07
-0.000133614
1.43371e-06
-0.00013413
1.97873e-06
-0.000134171
1.95994e-06
-0.000134152
1.89803e-06
-0.000133055
1.84299e-06
-0.000129026
1.32482e-06
-0.000126396
1.38616e-07
-0.000125584
-5.30149e-07
-0.00012539
-8.60445e-07
-0.00012543
-9.18855e-07
-0.000126737
-1.023e-06
-0.000131681
-4.5942e-07
-0.000134736
1.14441e-06
-0.000135445
2.00142e-06
-0.000135531
2.11164e-06
-0.000135535
2.05076e-06
-0.000133931
1.87247e-06
-0.00012887
1.05961e-06
-0.000125566
-8.26642e-07
-0.000124235
-2.04136e-06
-0.000123921
-2.28641e-06
-0.000123983
-2.59854e-06
-0.000125501
-2.8555e-06
-0.000130924
-2.30181e-06
-0.000134729
-3.26859e-07
-0.000135921
9.62551e-07
-0.000136089
1.29639e-06
-0.000136069
1.32092e-06
-0.000134036
1.02572e-06
-0.000128426
5.55392e-08
-0.000124081
-2.39637e-06
-0.000122177
-4.49311e-06
-0.000121801
-5.41064e-06
-0.00012195
-6.01068e-06
-0.00012409
-6.36495e-06
-0.000127904
-5.82397e-06
-0.000130329
-4.90762e-06
-0.000131589
-4.55243e-06
-0.000131877
-4.73849e-06
-0.000131553
-4.86544e-06
-0.0001295
-6.08214e-06
-0.00012534
-8.07128e-06
-0.000120124
-1.11356e-05
-0.000116705
-1.4079e-05
-0.000117814
-1.60943e-05
-0.000122343
-2.00546e-05
-0.000127249
-1.26e-05
4.67327e-05
-0.000123662
1.0066e-06
-0.000123893
9.33655e-07
-0.000126264
1.12634e-06
-0.000127938
1.59004e-06
-0.000128311
1.84505e-06
-0.000128337
1.87694e-06
-0.00012823
1.79771e-06
-0.000128088
1.71756e-06
-0.000127334
1.62457e-06
-0.00012559
1.40857e-06
-0.000124763
1.15005e-06
-0.000124451
1.01337e-06
-0.000124327
9.20239e-07
-0.000124477
8.20907e-07
-0.000126799
8.96016e-07
-0.000129003
1.42396e-06
-0.000129575
1.7936e-06
-0.000129673
1.88785e-06
-0.000129625
1.86674e-06
-0.0001295
1.77443e-06
-0.000128715
1.68383e-06
-0.000126523
1.42661e-06
-0.000125456
1.04438e-06
-0.000125086
8.3915e-07
-0.000124965
7.49542e-07
-0.000125067
6.47197e-07
-0.000127476
7.27697e-07
-0.000130172
1.30637e-06
-0.000130924
1.80898e-06
-0.000131043
1.94314e-06
-0.000131017
1.8791e-06
-0.000130924
1.79568e-06
-0.000129861
1.69397e-06
-0.000127138
1.35127e-06
-0.000125833
8.28094e-07
-0.000125409
5.73308e-07
-0.000125297
4.51536e-07
-0.00012543
3.42086e-07
-0.0001281
4.04204e-07
-0.000131454
1.14673e-06
-0.000132425
1.89315e-06
-0.000132549
2.01391e-06
-0.000132551
2.00146e-06
-0.000132451
1.89106e-06
-0.000130674
1.8014e-06
-0.000127261
1.19762e-06
-0.000125838
4.07361e-07
-0.000125412
9.34011e-08
-0.00012534
-8.17414e-08
-0.000125482
-2.09675e-07
-0.000128349
-1.86108e-07
-0.000132555
7.62133e-07
-0.000133937
1.89771e-06
-0.000134166
2.15909e-06
-0.000134194
2.21116e-06
-0.000134008
2.09444e-06
-0.000131286
1.94266e-06
-0.000127312
8.75887e-07
-0.000125631
-3.48296e-07
-0.000125034
-8.56986e-07
-0.00012486
-1.09889e-06
-0.000124985
-1.15209e-06
-0.000127709
-1.18071e-06
-0.000132796
-1.44658e-07
-0.000134952
1.53145e-06
-0.000135477
2.18748e-06
-0.000135566
2.18225e-06
-0.000135467
2.04654e-06
-0.000132442
2.06169e-06
-0.000126983
7.18446e-07
-0.000124379
-1.36165e-06
-0.000123654
-2.33813e-06
-0.000123509
-2.90157e-06
-0.000123597
-3.10072e-06
-0.000125673
-3.25459e-06
-0.000131103
-2.40915e-06
-0.000134191
-4.21897e-07
-0.000135133
7.51807e-07
-0.000135296
1.01552e-06
-0.000135291
1.05395e-06
-0.000133208
3.72733e-07
-0.000127569
-5.71921e-07
-0.000123324
-3.05229e-06
-0.000121546
-5.19555e-06
-0.000121289
-6.05006e-06
-0.000121549
-6.75528e-06