/*--------------------------------*- C++ -*----------------------------------*\
  =========                 |
  \\      /  F ield         | OpenFOAM: The Open Source CFD Toolbox
   \\    /   O peration     | Website:  https://openfoam.org
    \\  /    A nd           | Version:  12
     \\/     M anipulation  |
\*---------------------------------------------------------------------------*/
FoamFile
{
    format      ascii;
    class       volScalarField;
    location    "14.8";
    object      rho;
}
// * * * * * * * * * * * * * * * * * * * * * * * * * * * * * * * * * * * * * //

dimensions      [1 -3 0 0 0 0 0];

internalField   nonuniform List<scalar> 
9801
(
1.04273
1.05263
1.06657
1.07635
1.08096
1.08397
1.08587
1.08642
1.08712
1.08878
1.09157
1.09513
1.1005
1.11203
1.12829
1.13771
1.14204
1.14503
1.14638
1.14585
1.14619
1.1481
1.15118
1.15523
1.16184
1.17763
1.19392
1.20165
1.20575
1.20839
1.20819
1.20746
1.20859
1.21144
1.2152
1.22033
1.23315
1.25242
1.26361
1.26931
1.27289
1.27294
1.27155
1.27226
1.27464
1.2787
1.28392
1.29443
1.3168
1.33303
1.34034
1.34501
1.34502
1.34203
1.34164
1.34397
1.34851
1.3541
1.36414
1.38877
1.41156
1.42217
1.42879
1.42993
1.42223
1.41881
1.4219
1.42779
1.43586
1.44934
1.48024
1.50728
1.52145
1.53021
1.5326
1.5196
1.511
1.51411
1.52305
1.53605
1.56542
1.61307
1.64281
1.65938
1.67186
1.67362
1.65463
1.63937
1.64549
1.66525
1.70955
1.79085
1.85306
1.89918
1.95141
1.99572
1.98526
2.93925
9.51437
1.04764
1.05813
1.07255
1.08155
1.08676
1.09066
1.09335
1.09208
1.09126
1.09356
1.09706
1.10085
1.10576
1.11762
1.13222
1.14105
1.14656
1.15072
1.15255
1.14954
1.14951
1.1525
1.15647
1.16076
1.16778
1.18309
1.19659
1.20438
1.20965
1.21351
1.2119
1.20878
1.21075
1.21481
1.21938
1.22469
1.23713
1.25558
1.26678
1.2732
1.27789
1.27805
1.27217
1.27214
1.27598
1.28124
1.28678
1.29661
1.31814
1.33493
1.34339
1.3492
1.35133
1.34356
1.34
1.34343
1.34935
1.3555
1.36501
1.38927
1.41208
1.42333
1.4309
1.43496
1.42525
1.41698
1.42002
1.42699
1.43554
1.44916
1.47998
1.50798
1.52204
1.5317
1.53731
1.52431
1.50913
1.51157
1.52199
1.53517
1.56371
1.60631
1.63498
1.65263
1.66833
1.67854
1.65773
1.63611
1.64231
1.66419
1.69829
1.76089
1.81814
1.86213
1.90768
1.93785
1.90075
2.8026
9.53361
1.04635
1.05649
1.07087
1.07974
1.08496
1.08901
1.09206
1.09176
1.09087
1.09295
1.09641
1.10025
1.10498
1.11635
1.13042
1.13883
1.1443
1.14855
1.15078
1.14845
1.14845
1.15153
1.15571
1.1602
1.16717
1.18194
1.19465
1.20197
1.2072
1.21118
1.21011
1.20714
1.20906
1.21317
1.2179
1.2232
1.23496
1.25311
1.26432
1.27081
1.27568
1.2765
1.27082
1.2703
1.27402
1.27915
1.28459
1.29347
1.31414
1.33121
1.34006
1.34616
1.34923
1.34225
1.3372
1.33977
1.34566
1.3522
1.36126
1.3839
1.40663
1.41825
1.42609
1.43141
1.42429
1.41371
1.41432
1.42057
1.42904
1.44136
1.46982
1.49754
1.51272
1.52314
1.53142
1.52385
1.5055
1.5035
1.51273
1.52486
1.54561
1.58601
1.62155
1.64325
1.65926
1.67173
1.65665
1.62981
1.62758
1.64736
1.67389
1.72352
1.78462
1.83066
1.8718
1.90144
1.8631
2.73824
9.41268
1.04473
1.05487
1.06914
1.0781
1.08346
1.0876
1.09113
1.09225
1.09073
1.09185
1.09477
1.0985
1.10341
1.11452
1.12798
1.13614
1.14147
1.14579
1.14897
1.14763
1.14693
1.14944
1.15328
1.1578
1.16501
1.17929
1.19148
1.19848
1.20354
1.20783
1.20803
1.20445
1.20542
1.20897
1.21361
1.21926
1.23099
1.24902
1.26043
1.26687
1.27184
1.27392
1.26802
1.26543
1.26812
1.27286
1.27848
1.28744
1.30751
1.32516
1.33442
1.34066
1.34504
1.33979
1.33167
1.33247
1.33742
1.34371
1.35272
1.37413
1.3976
1.4102
1.41826
1.42452
1.42146
1.40744
1.40401
1.40922
1.41745
1.42826
1.45388
1.4841
1.50147
1.51239
1.52147
1.52114
1.50109
1.49061
1.49659
1.50819
1.52382
1.55841
1.59868
1.62289
1.63856
1.65263
1.65195
1.62658
1.6118
1.62135
1.64442
1.6773
1.72862
1.77493
1.81348
1.846
1.83541
2.72663
9.3266
1.04207
1.05231
1.06623
1.07493
1.0804
1.08465
1.08835
1.09062
1.08909
1.08918
1.09154
1.09493
1.09973
1.11096
1.12425
1.13225
1.13749
1.14178
1.14545
1.14529
1.1437
1.14545
1.14874
1.15275
1.15943
1.17394
1.1867
1.19376
1.19873
1.20308
1.20453
1.20056
1.20057
1.20367
1.20783
1.21285
1.22378
1.24204
1.254
1.2605
1.26541
1.26859
1.26377
1.25947
1.26165
1.26608
1.27125
1.27923
1.29788
1.31593
1.32571
1.33206
1.33718
1.33561
1.32573
1.3238
1.32793
1.33373
1.34165
1.36058
1.38505
1.39916
1.40773
1.41433
1.41647
1.40376
1.39398
1.39656
1.40429
1.41373
1.43409
1.46626
1.48686
1.49827
1.50747
1.51381
1.50042
1.48183
1.48042
1.49081
1.50409
1.52854
1.57035
1.60276
1.62226
1.63788
1.64824
1.63289
1.60975
1.60429
1.61932
1.64458
1.68565
1.73265
1.76714
1.79821
1.80703
2.73337
9.2837
1.03926
1.04927
1.06369
1.07246
1.07771
1.08178
1.08537
1.08807
1.08702
1.08628
1.08827
1.09145
1.09574
1.10663
1.12071
1.12897
1.13408
1.1382
1.14184
1.14247
1.14016
1.14117
1.14414
1.1479
1.15344
1.16762
1.18197
1.18958
1.19452
1.19873
1.20094
1.19706
1.19552
1.19807
1.20205
1.20673
1.21599
1.23419
1.24733
1.25434
1.25938
1.26345
1.26138
1.2548
1.25469
1.2584
1.26332
1.27025
1.28746
1.30706
1.31809
1.32497
1.33057
1.33317
1.32418
1.31657
1.3182
1.32356
1.33084
1.34683
1.37292
1.38995
1.39939
1.40639
1.41197
1.40567
1.3903
1.38684
1.39289
1.40134
1.41575
1.44715
1.47492
1.48932
1.49887
1.50723
1.50388
1.48243
1.4727
1.47804
1.48944
1.50515
1.53926
1.57964
1.60628
1.62463
1.64059
1.64335
1.62141
1.60421
1.60544
1.62224
1.65018
1.69259
1.7292
1.75681
1.7734
2.75929
9.27304
1.0369
1.04578
1.06056
1.07002
1.07539
1.07944
1.08297
1.08573
1.08468
1.08337
1.08519
1.08833
1.09234
1.10243
1.11717
1.12601
1.13126
1.13541
1.13912
1.1405
1.13718
1.13678
1.13941
1.14323
1.14851
1.16175
1.17734
1.18595
1.19121
1.19548
1.19879
1.19621
1.1917
1.1927
1.19638
1.20119
1.20975
1.22737
1.2417
1.24951
1.25499
1.25975
1.26159
1.25428
1.24959
1.25165
1.25632
1.26285
1.27846
1.29996
1.31271
1.32003
1.32583
1.33068
1.32622
1.31449
1.31193
1.31627
1.32289
1.33491
1.3609
1.38307
1.39431
1.40154
1.40798
1.40839
1.39289
1.38394
1.38645
1.39365
1.403
1.42603
1.46102
1.48288
1.49463
1.50398
1.5095
1.49486
1.4756
1.47143
1.47875
1.49084
1.51229
1.55221
1.58877
1.61299
1.63103
1.64588
1.64074
1.6187
1.60632
1.61108
1.62821
1.65874
1.69803
1.72664
1.74308
2.78067
9.27836
1.03615
1.04473
1.059
1.06843
1.07381
1.07791
1.08145
1.08428
1.08323
1.0813
1.08286
1.08598
1.09014
1.10007
1.11535
1.12471
1.13002
1.13418
1.13794
1.14018
1.13672
1.13416
1.13601
1.13956
1.14477
1.15758
1.1743
1.18397
1.18956
1.19405
1.19803
1.19812
1.19172
1.18985
1.19256
1.19684
1.20432
1.22164
1.23801
1.24678
1.25265
1.25773
1.26185
1.25732
1.24868
1.24803
1.25205
1.25759
1.27005
1.29345
1.3098
1.31798
1.32388
1.32925
1.32954
1.31715
1.31067
1.31288
1.31869
1.32643
1.34678
1.37548
1.39175
1.40012
1.40682
1.4116
1.40187
1.38645
1.3835
1.38843
1.39638
1.40945
1.44189
1.47501
1.49276
1.50372
1.51294
1.51239
1.4887
1.47301
1.474
1.48369
1.49675
1.52357
1.56403
1.59607
1.61847
1.63706
1.64899
1.64175
1.62059
1.60933
1.61499
1.63167
1.6634
1.69749
1.71684
2.80632
9.28952
1.03587
1.04435
1.05868
1.06831
1.07365
1.07763
1.08103
1.08391
1.08338
1.08069
1.08163
1.08461
1.08852
1.09753
1.11373
1.12447
1.13024
1.13447
1.13814
1.14087
1.13802
1.13382
1.1346
1.13786
1.14233
1.15351
1.17165
1.18301
1.18925
1.19397
1.19812
1.20028
1.19429
1.18967
1.19095
1.19482
1.20042
1.21562
1.23544
1.24642
1.25273
1.25777
1.26225
1.26113
1.25108
1.248
1.25077
1.25566
1.2634
1.28475
1.30686
1.31767
1.3241
1.32962
1.33316
1.32458
1.31327
1.3123
1.31678
1.32301
1.33434
1.36311
1.38848
1.40035
1.40761
1.41395
1.41272
1.39509
1.38412
1.38526
1.39252
1.40141
1.42122
1.4595
1.48803
1.50273
1.51278
1.52063
1.51232
1.48762
1.47678
1.47988
1.48982
1.50461
1.53652
1.57551
1.6041
1.62496
1.64311
1.65043
1.64132
1.62119
1.61003
1.61423
1.62986
1.66289
1.68879
2.83305
9.30497
1.03642
1.04412
1.05862
1.06916
1.07451
1.07845
1.08185
1.08489
1.08499
1.08176
1.08211
1.08488
1.08852
1.09552
1.11175
1.12466
1.13113
1.13552
1.13927
1.14245
1.14108
1.13547
1.13524
1.13819
1.14225
1.15061
1.16891
1.18278
1.18984
1.19473
1.19898
1.20246
1.19887
1.19147
1.19131
1.19468
1.19933
1.20998
1.23181
1.2467
1.25394
1.25908
1.26373
1.2657
1.25706
1.25019
1.25102
1.25511
1.26057
1.27446
1.3009
1.31743
1.32534
1.33117
1.3365
1.33436
1.32013
1.3138
1.31575
1.32133
1.32845
1.34774
1.38036
1.39991
1.40925
1.41604
1.42136
1.41148
1.39215
1.38665
1.39028
1.39798
1.40772
1.4343
1.47357
1.49763
1.51074
1.52087
1.52803
1.51481
1.4895
1.48126
1.48654
1.49756
1.51468
1.54864
1.58381
1.60924
1.62896
1.64572
1.64993
1.63948
1.61891
1.60629
1.60782
1.62318
1.65415
2.85499
9.32471
1.0378
1.04412
1.05785
1.07023
1.0763
1.08035
1.08381
1.08698
1.08795
1.08446
1.0839
1.08629
1.08971
1.09492
1.10945
1.12476
1.13241
1.13708
1.14092
1.14437
1.14481
1.1391
1.13742
1.13987
1.14359
1.14928
1.16536
1.18262
1.19115
1.19627
1.20057
1.20447
1.20378
1.19557
1.19318
1.19567
1.19984
1.20644
1.22557
1.24592
1.25548
1.26109
1.26588
1.2698
1.26514
1.25448
1.25216
1.25485
1.25981
1.26765
1.29085
1.31577
1.32728
1.33371
1.33913
1.34187
1.33081
1.31762
1.31629
1.32069
1.32696
1.33658
1.36453
1.39476
1.40944
1.41742
1.42425
1.42721
1.41108
1.39338
1.39015
1.39417
1.40194
1.41451
1.44848
1.48661
1.50811
1.52033
1.53005
1.53326
1.51633
1.4943
1.48834
1.49393
1.50474
1.52403
1.5588
1.5908
1.6137
1.6314
1.64568
1.64744
1.63606
1.6138
1.59752
1.59652
1.61366
2.86025
9.35069
1.03971
1.04485
1.05608
1.07087
1.07848
1.08287
1.08646
1.08973
1.09161
1.08841
1.0866
1.08854
1.09177
1.09578
1.10683
1.12408
1.1337
1.13891
1.14295
1.14663
1.14879
1.14422
1.14061
1.14222
1.14556
1.14967
1.16089
1.18088
1.19252
1.19835
1.20277
1.20682
1.20863
1.20153
1.19614
1.19744
1.20106
1.20583
1.21838
1.24235
1.25681
1.26354
1.26841
1.27283
1.27292
1.26121
1.2543
1.25584
1.26022
1.26594
1.27989
1.30879
1.32774
1.33607
1.3417
1.34667
1.34411
1.32784
1.31978
1.32098
1.32591
1.33237
1.34673
1.38087
1.40705
1.41922
1.42708
1.43418
1.4321
1.40913
1.39396
1.39391
1.4001
1.40856
1.4231
1.46001
1.49538
1.51446
1.52635
1.53623
1.53964
1.52155
1.49947
1.49385
1.49984
1.51098
1.53264
1.56725
1.5962
1.61711
1.63341
1.64449
1.64425
1.63072
1.60667
1.58571
1.57498
2.84035
9.3795
1.04187
1.0464
1.05427
1.07048
1.08061
1.08572
1.08947
1.09284
1.09552
1.09346
1.0901
1.0912
1.09412
1.09763
1.10465
1.12184
1.13486
1.14108
1.14539
1.14921
1.1525
1.15036
1.1447
1.14463
1.14739
1.15114
1.15783
1.17659
1.19315
1.20064
1.20534
1.20943
1.21276
1.20875
1.20038
1.1995
1.20257
1.20687
1.21377
1.2346
1.25606
1.26556
1.27091
1.27537
1.27857
1.27123
1.25955
1.25807
1.26151
1.2665
1.27339
1.29504
1.32328
1.33676
1.34352
1.34907
1.35331
1.34472
1.32756
1.32233
1.32462
1.33035
1.33787
1.35975
1.39645
1.41797
1.42771
1.43432
1.44024
1.43512
1.41206
1.39982
1.40004
1.40512
1.4133
1.43116
1.47053
1.50414
1.52266
1.53446
1.54342
1.54363
1.52508
1.50426
1.49893
1.50467
1.51591
1.54039
1.57535
1.60233
1.62082
1.63462
1.64155
1.63932
1.62369
1.59273
1.55643
2.79665
9.41009
1.04423
1.04838
1.05356
1.0686
1.08216
1.08855
1.09258
1.09605
1.09921
1.09919
1.09465
1.0941
1.09636
1.09956
1.104
1.11781
1.13499
1.14338
1.14816
1.15212
1.1558
1.15651
1.14991
1.14713
1.14911
1.15263
1.15717
1.17054
1.19155
1.20252
1.208
1.21223
1.21613
1.21633
1.20717
1.2026
1.20441
1.20817
1.21282
1.22484
1.25039
1.26623
1.27311
1.27793
1.28246
1.28244
1.26981
1.26207
1.26279
1.26637
1.27156
1.28181
1.31053
1.33508
1.34589
1.35243
1.35803
1.35977
1.34381
1.32816
1.32603
1.32979
1.33586
1.34406
1.37136
1.40721
1.42557
1.43526
1.44335
1.4496
1.4394
1.41404
1.40279
1.4046
1.41138
1.42026
1.43945
1.47873
1.50999
1.52724
1.53905
1.54812
1.54833
1.52895
1.50782
1.50247
1.50801
1.51979
1.54697
1.58206
1.60688
1.62296
1.63386
1.63738
1.63346
1.60969
1.56219
2.74196
9.44179
1.04679
1.05046
1.05416
1.06573
1.08243
1.09106
1.09567
1.09934
1.10268
1.10463
1.10038
1.09713
1.09836
1.10122
1.10486
1.11382
1.13301
1.14536
1.15111
1.15515
1.15885
1.16151
1.15669
1.15065
1.15118
1.15419
1.15802
1.1653
1.18582
1.20306
1.21054
1.21519
1.21935
1.22259
1.21706
1.20781
1.20657
1.20894
1.2129
1.2189
1.23886
1.26382
1.27526
1.28113
1.28581
1.28985
1.28386
1.26909
1.26436
1.2664
1.2709
1.27659
1.29265
1.32518
1.34525
1.35356
1.35922
1.36483
1.36432
1.34531
1.33187
1.33025
1.33319
1.33913
1.35012
1.38416
1.41949
1.43597
1.44426
1.45059
1.45546
1.44365
1.41966
1.40985
1.41105
1.41647
1.42506
1.44722
1.48694
1.51623
1.53264
1.54423
1.55233
1.55133
1.53206
1.51081
1.50496
1.50972
1.52175
1.5516
1.58681
1.6096
1.62285
1.62977
1.63211
1.62251
1.58596
2.69999
9.47334
1.04946
1.05259
1.05574
1.06324
1.08081
1.09305
1.09871
1.10254
1.10592
1.10884
1.10679
1.10093
1.10055
1.10301
1.10639
1.11165
1.1281
1.14581
1.1537
1.15816
1.16193
1.16542
1.16444
1.15635
1.15381
1.15573
1.15902
1.1634
1.17702
1.20036
1.21263
1.21841
1.22272
1.2268
1.22703
1.21596
1.20907
1.20984
1.21305
1.21763
1.22765
1.25437
1.27533
1.28421
1.28961
1.29417
1.2961
1.28341
1.27018
1.26815
1.27061
1.27528
1.28195
1.30471
1.33753
1.3542
1.36225
1.36855
1.37405
1.36785
1.34509
1.33343
1.33403
1.3389
1.34511
1.3569
1.39297
1.42612
1.44114
1.45054
1.45873
1.46345
1.44862
1.42321
1.4132
1.41543
1.42241
1.43186
1.45571
1.4943
1.52129
1.53688
1.54837
1.55633
1.55505
1.53423
1.51195
1.50557
1.50968
1.52161
1.55321
1.58833
1.60923
1.61991
1.62458
1.62379
1.61048
2.68572
9.5039
1.0524
1.05485
1.05782
1.0625
1.07707
1.09371
1.10131
1.10551
1.10897
1.11217
1.1129
1.1065
1.10339
1.10506
1.1081
1.1118
1.12201
1.14301
1.15551
1.16116
1.16517
1.16888
1.17117
1.16461
1.15736
1.15726
1.15991
1.1637
1.17067
1.19236
1.21282
1.22127
1.22601
1.23004
1.23335
1.22719
1.21457
1.21171
1.21414
1.21809
1.22322
1.23915
1.26858
1.28485
1.29183
1.29702
1.30183
1.30084
1.2838
1.27211
1.27121
1.27426
1.27942
1.2888
1.31874
1.34983
1.36337
1.36991
1.37497
1.38017
1.37201
1.34944
1.33954
1.3391
1.34227
1.3484
1.36358
1.40344
1.43641
1.45094
1.45883
1.46505
1.46803
1.45346
1.42989
1.42025
1.42149
1.42733
1.43699
1.46439
1.50288
1.52764
1.54176
1.55237
1.55942
1.55738
1.53575
1.51221
1.50463
1.50787
1.51938
1.55282
1.58811
1.60702
1.61552
1.61645
1.62377
2.70106
9.53309
1.05596
1.05731
1.06006
1.06349
1.07259
1.09159
1.10312
1.10836
1.11204
1.11536
1.11785
1.11372
1.10736
1.1073
1.10985
1.11323
1.11861
1.13632
1.15563
1.16392
1.16844
1.17215
1.17555
1.17372
1.16323
1.15945
1.16148
1.165
1.16929
1.18161
1.20744
1.22254
1.22885
1.233
1.23699
1.23787
1.22588
1.21624
1.21585
1.21838
1.22259
1.2293
1.25249
1.28098
1.29395
1.30053
1.30586
1.31022
1.3032
1.28291
1.2743
1.27572
1.28008
1.28539
1.29606
1.32906
1.3577
1.37009
1.37787
1.38436
1.38857
1.37506
1.35054
1.34129
1.34332
1.34893
1.3555
1.37018
1.40941
1.44066
1.4545
1.46349
1.47144
1.47539
1.45991
1.4346
1.42397
1.42575
1.43266
1.44381
1.47316
1.50953
1.53205
1.54553
1.5559
1.56309
1.56049
1.53638
1.51113
1.50241
1.50485
1.51621
1.55142
1.58574
1.60306
1.60691
1.62474
2.74081
9.56288
1.06041
1.05992
1.06216
1.06527
1.07025
1.08637
1.10354
1.11095
1.11507
1.11843
1.12152
1.12114
1.11322
1.11008
1.11193
1.11516
1.11892
1.12895
1.15144
1.16543
1.17131
1.17515
1.17866
1.18075
1.17274
1.1638
1.1637
1.1667
1.17041
1.17577
1.19504
1.22005
1.23101
1.2364
1.24048
1.2442
1.24031
1.22491
1.21802
1.21928
1.2229
1.22766
1.23754
1.26674
1.29163
1.30155
1.30687
1.31135
1.31544
1.30584
1.28638
1.27985
1.28063
1.28405
1.28939
1.304
1.34126
1.36846
1.37931
1.38493
1.38945
1.39321
1.38007
1.35741
1.34935
1.34958
1.35277
1.35894
1.37625
1.4178
1.44941
1.46321
1.47099
1.47724
1.47953
1.46521
1.44136
1.4303
1.43074
1.43614
1.44728
1.47978
1.51645
1.53791
1.55014
1.5594
1.56568
1.56268
1.53761
1.51009
1.49963
1.50102
1.51235
1.54847
1.58116
1.59392
1.61657
2.79422
9.59408
1.06574
1.06269
1.06432
1.06737
1.07093
1.08067
1.10072
1.11268
1.11791
1.12143
1.12464
1.12691
1.12153
1.11445
1.11453
1.11731
1.12076
1.12557
1.14226
1.16385
1.17326
1.17796
1.18162
1.18505
1.18357
1.17207
1.16701
1.16847
1.17168
1.17565
1.18401
1.20928
1.23067
1.23942
1.24438
1.2482
1.25078
1.24057
1.22529
1.22219
1.22494
1.22884
1.23347
1.24603
1.27784
1.2996
1.30861
1.31457
1.31999
1.32241
1.30749
1.2877
1.2827
1.28571
1.29083
1.29613
1.31111
1.34804
1.373
1.38379
1.39155
1.39814
1.40133
1.38535
1.36105
1.35188
1.35383
1.35965
1.36666
1.38336
1.42314
1.45272
1.466
1.47462
1.48248
1.48614
1.47184
1.44574
1.43271
1.43292
1.4392
1.45202
1.48551
1.52085
1.54099
1.55298
1.56259
1.56896
1.56552
1.53873
1.50814
1.49565
1.49617
1.5073
1.54402
1.57083
1.59967
2.8516
9.6217
1.07202
1.06671
1.0671
1.06986
1.07299
1.07779
1.09383
1.11214
1.12
1.12425
1.12776
1.131
1.13054
1.12164
1.11791
1.11955
1.12255
1.12608
1.13394
1.15639
1.17375
1.1806
1.18464
1.18828
1.19115
1.18441
1.17282
1.17081
1.17343
1.17715
1.18135
1.19372
1.22198
1.23932
1.2463
1.25107
1.25524
1.25647
1.24267
1.2293
1.22745
1.22952
1.23316
1.23846
1.25587
1.28936
1.30859
1.31639
1.32083
1.32541
1.32792
1.31205
1.29404
1.29004
1.29103
1.29419
1.29983
1.31827
1.35751
1.38263
1.39261
1.39813
1.40321
1.40703
1.39267
1.36944
1.36082
1.36106
1.36401
1.37003
1.38855
1.42991
1.45949
1.4725
1.48024
1.48693
1.49032
1.47761
1.45148
1.43746
1.43632
1.44087
1.4529
1.48823
1.52501
1.54558
1.55705
1.5655
1.5707
1.56689
1.53962
1.50573
1.49053
1.48958
1.50173
1.53482
1.57281
2.90191
9.64342
1.07863
1.07311
1.07055
1.07232
1.07503
1.07828
1.08681
1.10768
1.12153
1.12734
1.13098
1.13421
1.13677
1.13163
1.12292
1.12199
1.12447
1.12782
1.13178
1.14449
1.169
1.18218
1.18784
1.1916
1.19533
1.19616
1.18445
1.17562
1.17577
1.17836
1.18173
1.18656
1.20415
1.2328
1.24735
1.25412
1.25919
1.2636
1.26203
1.24422
1.23194
1.23136
1.23478
1.23893
1.24424
1.26406
1.29729
1.31466
1.32263
1.32893
1.33432
1.33459
1.31544
1.2967
1.29259
1.29561
1.30051
1.30599
1.32348
1.36161
1.38569
1.39668
1.40498
1.41163
1.41458
1.39932
1.37446
1.36331
1.3639
1.36913
1.37605
1.3947
1.43417
1.46162
1.47479
1.48452
1.49254
1.49648
1.48301
1.45464
1.43861
1.43698
1.44213
1.45489
1.49036
1.52707
1.54736
1.55876
1.56699
1.57148
1.56704
1.53989
1.50331
1.48415
1.48217
1.49248
1.53774
2.93248
9.66184
1.08395
1.0816
1.07464
1.07474
1.07727
1.08045
1.08482
1.09937
1.12
1.12937
1.13377
1.1372
1.14052
1.14129
1.132
1.12592
1.12677
1.12949
1.13271
1.13765
1.15635
1.18018
1.1904
1.19536
1.19906
1.20261
1.19941
1.18496
1.17848
1.17944
1.18257
1.18635
1.19258
1.21538
1.24277
1.25488
1.2606
1.26501
1.26945
1.26692
1.24842
1.23779
1.23712
1.23896
1.2429
1.24936
1.27349
1.30739
1.32382
1.33072
1.33482
1.33979
1.34088
1.32219
1.30403
1.29967
1.30013
1.30319
1.30897
1.32956
1.37068
1.39578
1.40555
1.41106
1.41591
1.41948
1.40686
1.38213
1.3704
1.36962
1.37263
1.37861
1.39931
1.44163
1.4699
1.48201
1.48934
1.49607
1.50054
1.48883
1.45993
1.44246
1.43958
1.44318
1.45422
1.48978
1.52777
1.54874
1.55984
1.56714
1.57062
1.56577
1.53985
1.50181
1.47861
1.46831
1.49536
2.92686
9.68051
1.08752
1.08979
1.0815
1.07832
1.07998
1.08287
1.08595
1.09222
1.1122
1.12967
1.13671
1.14061
1.144
1.14722
1.14399
1.13291
1.12945
1.13099
1.13397
1.13765
1.14527
1.16935
1.19035
1.19868
1.20305
1.20661
1.20946
1.20107
1.18614
1.18228
1.18428
1.18755
1.19139
1.19889
1.22543
1.25123
1.26204
1.26804
1.27325
1.27743
1.27115
1.25045
1.24013
1.24078
1.24463
1.24907
1.25525
1.27997
1.31292
1.32849
1.33663
1.34315
1.34842
1.34768
1.32681
1.30659
1.30157
1.30467
1.31019
1.31638
1.33547
1.37415
1.39784
1.40827
1.416
1.42252
1.42614
1.41401
1.3881
1.37362
1.37246
1.3774
1.3849
1.40643
1.44603
1.47148
1.48395
1.49401
1.50206
1.50653
1.49379
1.46291
1.4432
1.43927
1.44311
1.45366
1.48808
1.52679
1.54846
1.55953
1.56616
1.56866
1.5639
1.53936
1.50108
1.46846
1.4602
2.88757
9.7052
1.09081
1.09586
1.09173
1.08397
1.08303
1.08486
1.08758
1.09104
1.10162
1.12507
1.13863
1.14412
1.14753
1.15085
1.15292
1.14434
1.13411
1.13321
1.13592
1.13941
1.14322
1.15377
1.18094
1.19885
1.20607
1.21056
1.2143
1.2157
1.20339
1.18977
1.18716
1.18876
1.19184
1.19615
1.20653
1.23642
1.26026
1.2698
1.27473
1.27856
1.28287
1.27645
1.25602
1.24701
1.24674
1.24856
1.25268
1.26018
1.28829
1.32244
1.33782
1.3442
1.34796
1.35268
1.35376
1.33465
1.31506
1.31018
1.31092
1.31371
1.31935
1.33984
1.3807
1.40591
1.41584
1.42125
1.42647
1.4316
1.42292
1.39682
1.38137
1.37907
1.38146
1.3871
1.40847
1.45097
1.47968
1.49196
1.49895
1.50509
1.50993
1.49951
1.46859
1.44649
1.44083
1.4433
1.45209
1.4851
1.52486
1.54772
1.55874
1.56432
1.56572
1.56053
1.53801
1.49269
1.45248
2.81594
9.7355
1.09439
1.10002
1.10084
1.09238
1.08618
1.08682
1.08954
1.0927
1.09722
1.11342
1.13626
1.14629
1.15091
1.15423
1.15762
1.15712
1.14465
1.13757
1.1384
1.14097
1.14407
1.14821
1.16307
1.19152
1.20706
1.21388
1.21855
1.22244
1.22192
1.20538
1.19191
1.19074
1.19398
1.19791
1.20208
1.2136
1.24479
1.26678
1.27568
1.28166
1.28687
1.2905
1.28085
1.25885
1.24934
1.2505
1.25477
1.25945
1.26627
1.29328
1.32599
1.34081
1.34886
1.35534
1.36061
1.3608
1.34196
1.32024
1.31279
1.31469
1.31977
1.32602
1.34456
1.38271
1.40706
1.41839
1.42709
1.43374
1.4382
1.42966
1.40307
1.38443
1.38054
1.38409
1.39107
1.41206
1.45266
1.47981
1.49259
1.50272
1.51102
1.5159
1.50533
1.47277
1.44803
1.44085
1.44259
1.44972
1.48108
1.52242
1.54649
1.55692
1.56116
1.56114
1.55635
1.52895
1.4778
2.74361
9.77464
1.09774
1.10357
1.10609
1.1031
1.09262
1.08985
1.09173
1.09461
1.09766
1.10362
1.12495
1.14589
1.15421
1.15843
1.16172
1.16476
1.15966
1.14555
1.14072
1.14219
1.14533
1.14894
1.15405
1.17307
1.20099
1.21422
1.21999
1.22424
1.228
1.22666
1.20983
1.19822
1.19731
1.19905
1.20228
1.20693
1.22152
1.25439
1.27547
1.28365
1.28791
1.29153
1.29572
1.28744
1.26633
1.25763
1.25733
1.25876
1.2626
1.27028
1.29986
1.33431
1.34965
1.35599
1.35986
1.36494
1.36773
1.35169
1.32921
1.32112
1.32099
1.3231
1.32828
1.34741
1.38852
1.41535
1.42591
1.43147
1.43675
1.44246
1.43763
1.4111
1.3907
1.38563
1.38683
1.39159
1.41023
1.45381
1.48684
1.50121
1.50848
1.51436
1.51814
1.5092
1.47781
1.45058
1.44099
1.44132
1.44729
1.47716
1.51926
1.54379
1.55332
1.55596
1.55636
1.54713
1.52248
2.70485
9.81588
1.10032
1.10721
1.10995
1.11178
1.10376
1.09483
1.09411
1.09602
1.09889
1.10252
1.11178
1.13707
1.15527
1.16225
1.16595
1.16903
1.17105
1.16089
1.1473
1.14501
1.14746
1.15081
1.1542
1.15973
1.18185
1.20893
1.22087
1.22673
1.23147
1.23556
1.23228
1.21309
1.20115
1.20092
1.20446
1.20851
1.21293
1.22749
1.26001
1.27987
1.28835
1.29458
1.29986
1.30344
1.2936
1.27111
1.2601
1.2603
1.26427
1.26909
1.27602
1.30326
1.33624
1.35163
1.3603
1.36734
1.37279
1.37485
1.35977
1.33537
1.32374
1.32371
1.32831
1.33435
1.35202
1.39029
1.41548
1.42736
1.43669
1.44383
1.44888
1.44391
1.41705
1.39364
1.38656
1.38887
1.39489
1.4124
1.45364
1.48625
1.50099
1.50967
1.51698
1.52163
1.51445
1.48355
1.45327
1.44073
1.43948
1.44365
1.47157
1.5146
1.53953
1.54801
1.55096
1.54675
1.55339
2.71314
9.85149
1.10181
1.11105
1.11375
1.11666
1.11549
1.10357
1.09719
1.09816
1.10111
1.10438
1.10846
1.12109
1.14761
1.16301
1.16938
1.1734
1.17675
1.17685
1.16318
1.15171
1.15044
1.1522
1.15513
1.15897
1.16627
1.19141
1.21701
1.22776
1.2329
1.23654
1.24052
1.23797
1.21947
1.20863
1.20783
1.20916
1.21227
1.21707
1.23379
1.26786
1.28841
1.29641
1.30058
1.30451
1.30898
1.30196
1.27989
1.26871
1.26736
1.26816
1.27144
1.27873
1.30783
1.34403
1.36096
1.36781
1.37191
1.37682
1.38099
1.3694
1.34419
1.33155
1.32973
1.33118
1.33579
1.35357
1.39563
1.4251
1.43667
1.44267
1.44772
1.45335
1.45128
1.42556
1.40045
1.39215
1.39205
1.3954
1.40895
1.45069
1.48891
1.50682
1.51478
1.52039
1.52398
1.51918
1.48918
1.45462
1.43839
1.43581
1.4393
1.4659
1.50961
1.53446
1.54344
1.54058
1.56526
2.75249
9.88286
1.10016
1.11429
1.11726
1.12013
1.12266
1.11723
1.10472
1.10176
1.10378
1.10672
1.10982
1.11403
1.1297
1.15675
1.1708
1.17703
1.18116
1.1845
1.18256
1.16575
1.15448
1.15428
1.15754
1.1612
1.1647
1.17226
1.19899
1.22357
1.23359
1.23931
1.24431
1.24843
1.2439
1.22374
1.21145
1.21092
1.21424
1.2183
1.22271
1.23804
1.27135
1.29161
1.30068
1.30756
1.31286
1.31673
1.30941
1.28632
1.27142
1.26929
1.27275
1.27772
1.28486
1.31098
1.3453
1.36236
1.37142
1.37875
1.38433
1.3877
1.37709
1.35069
1.33413
1.33165
1.33563
1.34182
1.35907
1.39841
1.42603
1.43841
1.44738
1.45466
1.46001
1.45755
1.43214
1.40414
1.39261
1.39279
1.39771
1.41086
1.4493
1.48805
1.5073
1.51626
1.522
1.52538
1.52145
1.49323
1.45582
1.4363
1.43215
1.43495
1.46121
1.50402
1.52862
1.53257
1.56376
2.81323
9.91327
1.09213
1.11529
1.12083
1.12417
1.12705
1.12842
1.11853
1.10768
1.10637
1.10847
1.11143
1.11479
1.11997
1.13848
1.16498
1.17752
1.18313
1.18726
1.19059
1.1876
1.17103
1.16142
1.16101
1.16258
1.16542
1.16939
1.17906
1.20786
1.23161
1.2412
1.24593
1.24923
1.25343
1.25063
1.23125
1.21931
1.21777
1.21857
1.22133
1.22604
1.2431
1.27874
1.30073
1.30908
1.31333
1.31684
1.32145
1.31783
1.29566
1.27991
1.27691
1.27775
1.2807
1.28713
1.31335
1.35153
1.37125
1.37895
1.38305
1.38775
1.39269
1.38616
1.35993
1.34239
1.33871
1.3397
1.34353
1.3587
1.39966
1.43253
1.44641
1.45282
1.45733
1.46284
1.46429
1.44245
1.4123
1.39889
1.39682
1.39875
1.40738
1.44398
1.4867
1.50795
1.51646
1.52168
1.5255
1.52397
1.49813
1.45772
1.43407
1.42836
1.43047
1.45617
1.49762
1.51577
1.55313
2.87999
9.94034
1.08024
1.10958
1.12263
1.12813
1.13101
1.13398
1.13379
1.12089
1.11147
1.11132
1.11398
1.11717
1.12032
1.12533
1.14585
1.17218
1.18409
1.18978
1.19423
1.19791
1.19389
1.17529
1.16452
1.16454
1.16783
1.17151
1.17522
1.18464
1.21374
1.23664
1.24594
1.25206
1.2572
1.26134
1.25724
1.23637
1.22194
1.22022
1.22333
1.22775
1.23231
1.2475
1.28155
1.30297
1.31223
1.31892
1.3243
1.32864
1.32564
1.30408
1.28465
1.2793
1.28184
1.28668
1.29329
1.3159
1.35168
1.37153
1.3814
1.3894
1.3953
1.39971
1.39379
1.36739
1.34596
1.33996
1.34233
1.34757
1.36108
1.39841
1.43044
1.44549
1.45598
1.46451
1.47007
1.47087
1.44939
1.41645
1.3988
1.39569
1.39894
1.40792
1.44143
1.48394
1.5066
1.51633
1.5225
1.5266
1.52621
1.50255
1.45925
1.43101
1.42364
1.42494
1.45127
1.48445
1.53049
2.94337
9.96203
1.07507
1.09251
1.11749
1.12969
1.13527
1.13894
1.14211
1.13922
1.12419
1.11655
1.11676
1.11861
1.12143
1.12503
1.13137
1.15386
1.1793
1.19039
1.19551
1.19925
1.20265
1.19949
1.18213
1.17216
1.17148
1.1727
1.17538
1.17944
1.19058
1.22125
1.24468
1.254
1.25853
1.26161
1.26589
1.26427
1.24493
1.23054
1.22802
1.2287
1.23096
1.2354
1.25108
1.28704
1.31092
1.32004
1.32441
1.32816
1.33325
1.33398
1.31483
1.29397
1.28762
1.28775
1.2897
1.29488
1.31619
1.35605
1.38017
1.38949
1.39426
1.399
1.40445
1.40256
1.37755
1.35395
1.34629
1.34587
1.34885
1.35875
1.3951
1.43549
1.45481
1.46251
1.46703
1.47193
1.47536
1.45884
1.42462
1.40424
1.39912
1.40011
1.40538
1.43542
1.48121
1.50712
1.51762
1.523
1.5263
1.52574
1.50521
1.46114
1.42817
1.41764
1.41952
1.44018
1.49729
2.98792
9.9796
1.07558
1.0817
1.10079
1.12625
1.13785
1.14315
1.1467
1.1494
1.14396
1.12731
1.1198
1.1208
1.12396
1.12725
1.13035
1.13653
1.16053
1.18571
1.1963
1.20171
1.20635
1.2102
1.20609
1.18686
1.17502
1.17448
1.17763
1.18139
1.18522
1.19516
1.22501
1.24805
1.25766
1.2641
1.26935
1.27365
1.27166
1.25214
1.23462
1.2302
1.23262
1.23684
1.24154
1.2547
1.28807
1.31184
1.32235
1.33011
1.33608
1.34061
1.34112
1.32379
1.3001
1.29005
1.29064
1.29498
1.30077
1.31869
1.35562
1.37975
1.39139
1.40069
1.40735
1.41234
1.41003
1.38484
1.35764
1.34722
1.34793
1.35259
1.36174
1.3935
1.43256
1.45252
1.46321
1.47235
1.4784
1.48108
1.46498
1.42897
1.40482
1.39799
1.39977
1.40588
1.43359
1.4782
1.50488
1.51591
1.52174
1.52516
1.52455
1.50623
1.4634
1.42638
1.41148
1.40627
1.45625
2.99764
9.99425
1.07732
1.08194
1.08859
1.11043
1.13428
1.14443
1.14949
1.15318
1.15567
1.14876
1.13263
1.12635
1.12677
1.12826
1.13113
1.13496
1.14293
1.16858
1.19301
1.20321
1.20807
1.21115
1.21472
1.21249
1.1947
1.18308
1.18164
1.18244
1.18477
1.18874
1.1997
1.23076
1.25579
1.26587
1.27061
1.27374
1.27818
1.27918
1.26241
1.24387
1.23851
1.23852
1.24001
1.24401
1.25669
1.29209
1.32005
1.33117
1.33631
1.33977
1.34459
1.34782
1.33426
1.30955
1.29844
1.29693
1.29784
1.30182
1.31773
1.3581
1.38871
1.40095
1.4066
1.41048
1.41559
1.4166
1.3947
1.36625
1.35449
1.35315
1.3551
1.36063
1.38822
1.43409
1.46069
1.47046
1.47538
1.47945
1.48308
1.47235
1.43785
1.41062
1.4017
1.40131
1.40421
1.42714
1.47306
1.50262
1.51489
1.52037
1.52294
1.52182
1.50615
1.46571
1.42673
1.40002
1.41424
2.96512
10.0127
1.08053
1.08517
1.08858
1.09525
1.1176
1.14049
1.15054
1.15585
1.15981
1.16263
1.15507
1.13685
1.12925
1.13048
1.13378
1.13737
1.14088
1.14832
1.17435
1.19833
1.20805
1.21359
1.21843
1.22242
1.21953
1.20047
1.18611
1.18401
1.1868
1.1908
1.19479
1.20375
1.23275
1.25785
1.26877
1.27592
1.28162
1.28607
1.28693
1.2711
1.2494
1.24065
1.24159
1.24557
1.25029
1.26052
1.29195
1.31955
1.33215
1.3405
1.34716
1.35201
1.35478
1.34286
1.31659
1.30093
1.29863
1.3022
1.30759
1.3211
1.35759
1.38763
1.40123
1.41044
1.41797
1.42334
1.42414
1.40392
1.37332
1.35702
1.35453
1.35818
1.36468
1.38794
1.43053
1.45698
1.46875
1.47792
1.48463
1.48822
1.4782
1.4429
1.41186
1.39964
1.39882
1.40263
1.42339
1.46789
1.49923
1.51264
1.51821
1.5201
1.51845
1.5045
1.46837
1.419
1.3978
2.89183
10.0381
1.08508
1.08837
1.09081
1.0939
1.10019
1.12273
1.146
1.15605
1.16086
1.16461
1.1674
1.16075
1.14395
1.13719
1.13753
1.13901
1.14165
1.14539
1.15409
1.18112
1.20536
1.21534
1.22001
1.22272
1.22632
1.22602
1.20934
1.1948
1.19188
1.19246
1.19416
1.19785
1.20685
1.23684
1.26538
1.27747
1.28268
1.28573
1.28991
1.29317
1.28176
1.25949
1.24971
1.2484
1.24881
1.25202
1.26123
1.29318
1.32635
1.34126
1.34749
1.35099
1.35558
1.3601
1.35288
1.32684
1.30985
1.30593
1.30598
1.30884
1.3192
1.35581
1.39346
1.41069
1.41764
1.42166
1.42627
1.4297
1.4159
1.38469
1.36552
1.36062
1.36061
1.36393
1.38171
1.42732
1.46214
1.47593
1.48148
1.48511
1.48852
1.48364
1.4525
1.41817
1.40281
1.39961
1.40104
1.41757
1.46175
1.49611
1.51086
1.5157
1.51654
1.51384
1.5027
1.46235
1.41463
2.80302
10.075
1.0915
1.09174
1.0936
1.09525
1.09778
1.10389
1.1277
1.15169
1.16188
1.16702
1.17113
1.17417
1.1676
1.14951
1.14058
1.14105
1.14425
1.1477
1.15108
1.15847
1.18492
1.20906
1.21891
1.22475
1.22978
1.23392
1.2337
1.21719
1.19947
1.19417
1.19605
1.19994
1.20416
1.21131
1.23812
1.26639
1.27917
1.2867
1.29293
1.29756
1.3005
1.29058
1.26641
1.25204
1.25034
1.25376
1.25871
1.26722
1.29471
1.32627
1.34165
1.35047
1.35812
1.36341