/*--------------------------------*- C++ -*----------------------------------*\
  =========                 |
  \\      /  F ield         | OpenFOAM: The Open Source CFD Toolbox
   \\    /   O peration     | Website:  https://openfoam.org
    \\  /    A nd           | Version:  12
     \\/     M anipulation  |
\*---------------------------------------------------------------------------*/
FoamFile
{
    format      ascii;
    class       volVectorField;
    location    "10.2";
    object      U;
}
// * * * * * * * * * * * * * * * * * * * * * * * * * * * * * * * * * * * * * //

dimensions      [0 1 -1 0 0 0 0];

internalField   nonuniform List<vector> 
9801
(
(1.23189 -0.116708 0)
(1.22572 -0.112809 0)
(1.22205 -0.110982 0)
(1.22051 -0.107822 0)
(1.22364 -0.104512 0)
(1.225 -0.101826 0)
(1.22347 -0.0996236 0)
(1.22062 -0.0973691 0)
(1.21703 -0.0952051 0)
(1.21275 -0.0928463 0)
(1.20707 -0.0896347 0)
(1.19975 -0.0862903 0)
(1.19489 -0.0839498 0)
(1.19098 -0.0820632 0)
(1.18847 -0.0794259 0)
(1.19093 -0.0761118 0)
(1.19334 -0.0732691 0)
(1.19227 -0.0710115 0)
(1.18956 -0.068843 0)
(1.18595 -0.0667104 0)
(1.18168 -0.0646361 0)
(1.17549 -0.0615943 0)
(1.16735 -0.0584874 0)
(1.16204 -0.0562854 0)
(1.15789 -0.054502 0)
(1.15481 -0.0522271 0)
(1.15659 -0.0490061 0)
(1.15974 -0.0461126 0)
(1.15914 -0.0437824 0)
(1.15649 -0.0416719 0)
(1.15281 -0.0396274 0)
(1.14843 -0.0376602 0)
(1.14109 -0.0347068 0)
(1.13204 -0.0319745 0)
(1.12651 -0.0300112 0)
(1.12213 -0.0283289 0)
(1.11869 -0.0262567 0)
(1.12033 -0.023228 0)
(1.1242 -0.0202836 0)
(1.12378 -0.0179195 0)
(1.12105 -0.0158991 0)
(1.11718 -0.0139899 0)
(1.11247 -0.0120905 0)
(1.10291 -0.00930418 0)
(1.09317 -0.00706016 0)
(1.08725 -0.00531194 0)
(1.08258 -0.00384709 0)
(1.07916 -0.00199101 0)
(1.08148 0.000962246 0)
(1.08595 0.00384652 0)
(1.08562 0.00625312 0)
(1.08246 0.00833567 0)
(1.07824 0.0100684 0)
(1.07226 0.0120745 0)
(1.05953 0.0145148 0)
(1.04911 0.0161516 0)
(1.04287 0.01748 0)
(1.03808 0.0184779 0)
(1.03523 0.0202514 0)
(1.03967 0.0233993 0)
(1.04381 0.0262837 0)
(1.04283 0.028597 0)
(1.03898 0.030739 0)
(1.03415 0.0322731 0)
(1.02536 0.0344276 0)
(1.00859 0.0361732 0)
(0.997025 0.0370593 0)
(0.990592 0.0377378 0)
(0.985077 0.0383501 0)
(0.98522 0.0402212 0)
(0.993368 0.0433387 0)
(0.995817 0.0462706 0)
(0.992797 0.04852 0)
(0.987526 0.0503062 0)
(0.981014 0.0517558 0)
(0.965209 0.0535313 0)
(0.943364 0.0540112 0)
(0.931024 0.0538731 0)
(0.923728 0.0539249 0)
(0.919709 0.054789 0)
(0.927109 0.0569851 0)
(0.933505 0.0597854 0)
(0.931128 0.0624852 0)
(0.924983 0.0648372 0)
(0.917416 0.066177 0)
(0.902438 0.0678946 0)
(0.871017 0.0670266 0)
(0.844372 0.0646761 0)
(0.830059 0.0636469 0)
(0.821005 0.063042 0)
(0.82609 0.062377 0)
(0.833916 0.062154 0)
(0.828137 0.0628675 0)
(0.813432 0.0619447 0)
(0.790981 0.0591003 0)
(0.742433 0.0532391 0)
(0.675042 0.0220991 0)
(0.263496 -0.0719463 0)
(-0.742903 -0.0489372 0)
(1.23202 -0.118607 0)
(1.22535 -0.114602 0)
(1.22174 -0.112945 0)
(1.22024 -0.109859 0)
(1.22387 -0.106582 0)
(1.22511 -0.10397 0)
(1.22328 -0.101768 0)
(1.22027 -0.0994947 0)
(1.21666 -0.097233 0)
(1.2124 -0.0947698 0)
(1.20664 -0.0914821 0)
(1.19957 -0.088246 0)
(1.19455 -0.0858624 0)
(1.19062 -0.0839899 0)
(1.18805 -0.0814683 0)
(1.19096 -0.0780594 0)
(1.19346 -0.0752512 0)
(1.19215 -0.0729998 0)
(1.18927 -0.0708399 0)
(1.18562 -0.0687023 0)
(1.18135 -0.0665047 0)
(1.1752 -0.0635335 0)
(1.16715 -0.0605093 0)
(1.16166 -0.0582597 0)
(1.15748 -0.0564347 0)
(1.15431 -0.054259 0)
(1.1564 -0.0508923 0)
(1.15984 -0.0479556 0)
(1.15907 -0.0456303 0)
(1.15627 -0.0435359 0)
(1.15254 -0.0415254 0)
(1.14817 -0.0395023 0)
(1.14099 -0.0367377 0)
(1.1319 -0.0341413 0)
(1.12606 -0.0321122 0)
(1.12163 -0.0302992 0)
(1.11812 -0.028295 0)
(1.11998 -0.0250629 0)
(1.12421 -0.0220183 0)
(1.12375 -0.0196462 0)
(1.12091 -0.0176598 0)
(1.11698 -0.0158182 0)
(1.11228 -0.01394 0)
(1.10302 -0.0114008 0)
(1.09296 -0.00935525 0)
(1.08672 -0.00748771 0)
(1.08206 -0.00585694 0)
(1.0785 -0.0040301 0)
(1.08094 -0.000794963 0)
(1.08588 0.00228965 0)
(1.08555 0.00472415 0)
(1.08233 0.00677783 0)
(1.07807 0.00843722 0)
(1.07228 0.0102949 0)
(1.05999 0.0122774 0)
(1.04891 0.0135322 0)
(1.04224 0.015007 0)
(1.03742 0.0162595 0)
(1.03419 0.0180929 0)
(1.03846 0.0214695 0)
(1.04318 0.0249015 0)
(1.04248 0.0274305 0)
(1.03869 0.0295297 0)
(1.0339 0.0308534 0)
(1.02591 0.0324556 0)
(1.00934 0.0333326 0)
(0.9967 0.0338963 0)
(0.989759 0.0348068 0)
(0.984267 0.0354848 0)
(0.983231 0.0371831 0)
(0.990712 0.0410257 0)
(0.993993 0.0446752 0)
(0.991586 0.0472708 0)
(0.986581 0.0491287 0)
(0.980381 0.0502235 0)
(0.96579 0.0512481 0)
(0.943808 0.0507263 0)
(0.930421 0.0499135 0)
(0.922703 0.0496418 0)
(0.916869 0.0497354 0)
(0.920728 0.0543411 0)
(0.928567 0.0612016 0)
(0.928303 0.0649329 0)
(0.922613 0.0665555 0)
(0.914889 0.0666693 0)
(0.902338 0.0659657 0)
(0.872954 0.0625103 0)
(0.844302 0.0582934 0)
(0.828272 0.0551257 0)
(0.817754 0.0532113 0)
(0.815109 0.0554909 0)
(0.819412 0.065982 0)
(0.814608 0.0720837 0)
(0.801679 0.0711537 0)
(0.781355 0.0686625 0)
(0.736666 0.0626425 0)
(0.677973 0.0321589 0)
(0.265516 -0.0680384 0)
(-0.745732 -0.0515259 0)
(1.23163 -0.115989 0)
(1.22487 -0.111974 0)
(1.22122 -0.110425 0)
(1.21978 -0.107516 0)
(1.22393 -0.103983 0)
(1.22529 -0.101185 0)
(1.22326 -0.098915 0)
(1.22008 -0.0966479 0)
(1.21635 -0.0944314 0)
(1.21198 -0.0920554 0)
(1.20614 -0.0889042 0)
(1.1993 -0.0857337 0)
(1.19428 -0.0833422 0)
(1.19029 -0.0815184 0)
(1.18751 -0.0792491 0)
(1.19054 -0.075666 0)
(1.19345 -0.0725401 0)
(1.19215 -0.070233 0)
(1.18916 -0.0680877 0)
(1.18544 -0.0660265 0)
(1.18114 -0.0639801 0)
(1.17492 -0.0612317 0)
(1.16684 -0.0582786 0)
(1.16125 -0.055994 0)
(1.15698 -0.0541585 0)
(1.1536 -0.0521996 0)
(1.15545 -0.0487601 0)
(1.15939 -0.0453685 0)
(1.15884 -0.0429633 0)
(1.15601 -0.0409359 0)
(1.15224 -0.0390507 0)
(1.1479 -0.0372638 0)
(1.14088 -0.0348854 0)
(1.13146 -0.0323933 0)
(1.12531 -0.0302148 0)
(1.12078 -0.028314 0)
(1.11709 -0.0264984 0)
(1.11849 -0.023206 0)
(1.1232 -0.0195859 0)
(1.12314 -0.017081 0)
(1.12036 -0.0151688 0)
(1.11643 -0.0134576 0)
(1.11185 -0.0118732 0)
(1.103 -0.00992921 0)
(1.09226 -0.0081251 0)
(1.08554 -0.00613271 0)
(1.08075 -0.00435997 0)
(1.07691 -0.0026997 0)
(1.0786 0.00070426 0)
(1.08405 0.00464188 0)
(1.08429 0.00730823 0)
(1.08127 0.00924724 0)
(1.07707 0.010763 0)
(1.07188 0.0120931 0)
(1.06042 0.0128568 0)
(1.04791 0.0136264 0)
(1.04044 0.0154636 0)
(1.03533 0.0171544 0)
(1.03137 0.0188621 0)
(1.03418 0.0231061 0)
(1.04025 0.0278146 0)
(1.04046 0.0302605 0)
(1.03682 0.0319307 0)
(1.03208 0.032868 0)
(1.02529 0.0337159 0)
(1.00967 0.0332276 0)
(0.995308 0.0328987 0)
(0.987141 0.0340952 0)
(0.981209 0.0352795 0)
(0.977458 0.0371474 0)
(0.982922 0.0431306 0)
(0.988595 0.0486943 0)
(0.987412 0.0509305 0)
(0.98268 0.0520734 0)
(0.976888 0.0524187 0)
(0.965056 0.0521339 0)
(0.943151 0.0490134 0)
(0.926895 0.0475633 0)
(0.917478 0.0484075 0)
(0.910515 0.0490294 0)
(0.909436 0.0520728 0)
(0.918545 0.0590229 0)
(0.920968 0.0623465 0)
(0.916103 0.0628225 0)
(0.908773 0.0629405 0)
(0.898236 0.0634624 0)
(0.872799 0.0605261 0)
(0.842153 0.0545879 0)
(0.822619 0.0507766 0)
(0.810592 0.0488374 0)
(0.803229 0.0472334 0)
(0.805626 0.0499972 0)
(0.803912 0.0518536 0)
(0.793847 0.0491662 0)
(0.777721 0.0462789 0)
(0.741679 0.0410538 0)
(0.693269 0.0118181 0)
(0.267815 -0.0758272 0)
(-0.749736 -0.0416663 0)
(1.22957 -0.113559 0)
(1.22262 -0.109644 0)
(1.21894 -0.108099 0)
(1.21722 -0.105395 0)
(1.22142 -0.101911 0)
(1.22312 -0.0990008 0)
(1.22114 -0.0966417 0)
(1.21794 -0.0943705 0)
(1.21415 -0.092199 0)
(1.20976 -0.0899134 0)
(1.20371 -0.0869703 0)
(1.19697 -0.0840701 0)
(1.19195 -0.0817318 0)
(1.18789 -0.0798691 0)
(1.18486 -0.0777735 0)
(1.18759 -0.0742794 0)
(1.19094 -0.0709709 0)
(1.18979 -0.068549 0)
(1.1868 -0.0664107 0)
(1.18308 -0.0644465 0)
(1.17881 -0.062522 0)
(1.17252 -0.0599284 0)
(1.16442 -0.0571736 0)
(1.15877 -0.0549829 0)
(1.15441 -0.0531285 0)
(1.15079 -0.0513313 0)
(1.152 -0.0480274 0)
(1.15641 -0.0443346 0)
(1.15617 -0.0418167 0)
(1.15334 -0.039851 0)
(1.1496 -0.0380951 0)
(1.14535 -0.0364388 0)
(1.13852 -0.034151 0)
(1.12895 -0.0317471 0)
(1.12257 -0.0297289 0)
(1.11788 -0.0279319 0)
(1.11395 -0.0263379 0)
(1.11434 -0.0231956 0)
(1.11944 -0.0190462 0)
(1.11994 -0.0163144 0)
(1.11721 -0.014465 0)
(1.11333 -0.0128795 0)
(1.10894 -0.0114073 0)
(1.10078 -0.00949569 0)
(1.08962 -0.00775321 0)
(1.08239 -0.00596359 0)
(1.07733 -0.00425453 0)
(1.07308 -0.00283993 0)
(1.07316 0.000245215 0)
(1.07907 0.00482626 0)
(1.08016 0.00774897 0)
(1.07731 0.00945711 0)
(1.07322 0.0107065 0)
(1.06851 0.0118366 0)
(1.05836 0.0130685 0)
(1.04488 0.0141096 0)
(1.03654 0.0156596 0)
(1.03102 0.0171485 0)
(1.02634 0.0182689 0)
(1.02687 0.0213227 0)
(1.03374 0.026172 0)
(1.03489 0.0290453 0)
(1.03147 0.0307582 0)
(1.02699 0.0319336 0)
(1.02128 0.033117 0)
(1.00743 0.0331985 0)
(0.991275 0.032548 0)
(0.981656 0.0336616 0)
(0.975117 0.0352241 0)
(0.970105 0.0363152 0)
(0.97236 0.0401958 0)
(0.979806 0.0460994 0)
(0.97982 0.0490515 0)
(0.97542 0.0505586 0)
(0.969913 0.0512505 0)
(0.961269 0.0514759 0)
(0.940981 0.0479519 0)
(0.921431 0.0445098 0)
(0.910396 0.0447534 0)
(0.903002 0.045592 0)
(0.897961 0.0467217 0)
(0.903577 0.0537717 0)
(0.909009 0.0622751 0)
(0.905959 0.0660386 0)
(0.899323 0.0669691 0)
(0.890954 0.0669206 0)
(0.872587 0.0633506 0)
(0.841625 0.053131 0)
(0.818118 0.0444252 0)
(0.803614 0.0413094 0)
(0.793132 0.0405463 0)
(0.788615 0.0440543 0)
(0.78637 0.0493977 0)
(0.778458 0.0474207 0)
(0.765342 0.04358 0)
(0.740329 0.0374593 0)
(0.714191 0.00779146 0)
(0.272373 -0.0714357 0)
(-0.755001 -0.0361101 0)
(1.22607 -0.111027 0)
(1.21894 -0.107193 0)
(1.21525 -0.105596 0)
(1.21322 -0.102889 0)
(1.21729 -0.0991737 0)
(1.21945 -0.0960298 0)
(1.21764 -0.0936228 0)
(1.21449 -0.0914185 0)
(1.21075 -0.0893267 0)
(1.20639 -0.0871452 0)
(1.20018 -0.0844794 0)
(1.19327 -0.0818641 0)
(1.18814 -0.0796043 0)
(1.18399 -0.0776802 0)
(1.1807 -0.0756409 0)
(1.18283 -0.0719527 0)
(1.18684 -0.0681887 0)
(1.18606 -0.065652 0)
(1.18311 -0.0636135 0)
(1.17943 -0.0617554 0)
(1.17522 -0.0598806 0)
(1.16892 -0.0574755 0)
(1.1606 -0.0550493 0)
(1.15467 -0.0530125 0)
(1.15015 -0.051152 0)
(1.14632 -0.0494989 0)
(1.1465 -0.0462952 0)
(1.15149 -0.0420465 0)
(1.15192 -0.0391931 0)
(1.14917 -0.0372352 0)
(1.14548 -0.0355583 0)
(1.1413 -0.0339224 0)
(1.1347 -0.03184 0)
(1.12497 -0.029805 0)
(1.11804 -0.0280036 0)
(1.11307 -0.0262131 0)
(1.10894 -0.024713 0)
(1.10789 -0.0219156 0)
(1.11325 -0.0173463 0)
(1.11482 -0.0140604 0)
(1.1123 -0.0120302 0)
(1.10852 -0.0104604 0)
(1.10426 -0.00907558 0)
(1.09688 -0.00765881 0)
(1.08526 -0.00688962 0)
(1.07712 -0.00544837 0)
(1.07169 -0.00363471 0)
(1.0672 -0.00202219 0)
(1.06557 0.000658874 0)
(1.07144 0.00549198 0)
(1.07393 0.00921423 0)
(1.07148 0.0113696 0)
(1.06756 0.0129333 0)
(1.0631 0.0141862 0)
(1.05452 0.0149729 0)
(1.04031 0.0139463 0)
(1.03064 0.0143454 0)
(1.02461 0.0160068 0)
(1.01957 0.0176923 0)
(1.01764 0.0206715 0)
(1.02411 0.0266159 0)
(1.02715 0.0311437 0)
(1.02444 0.0334254 0)
(1.02022 0.0348362 0)
(1.01534 0.0357141 0)
(1.00457 0.0353011 0)
(0.986794 0.0321067 0)
(0.974859 0.0312593 0)
(0.967742 0.0327701 0)
(0.962205 0.0342254 0)
(0.960814 0.0375732 0)
(0.968425 0.0450508 0)
(0.971308 0.0502272 0)
(0.967733 0.0518231 0)
(0.96242 0.052055 0)
(0.955907 0.0520349 0)
(0.939882 0.0493073 0)
(0.917357 0.0439877 0)
(0.903456 0.04142 0)
(0.895309 0.0420718 0)
(0.888664 0.042925 0)
(0.888347 0.0471523 0)
(0.895907 0.0567721 0)
(0.896481 0.0628692 0)
(0.890677 0.0645799 0)
(0.883032 0.0645311 0)
(0.870712 0.062937 0)
(0.844875 0.0537407 0)
(0.816678 0.0416219 0)
(0.798652 0.0341015 0)
(0.787766 0.0319975 0)
(0.77995 0.0318605 0)
(0.77825 0.0341224 0)
(0.774705 0.0316876 0)
(0.76657 0.0262427 0)
(0.751392 0.0216426 0)
(0.734923 0.00854322 0)
(0.279922 -0.0599168 0)
(-0.758262 -0.0313189 0)
(1.22146 -0.108482 0)
(1.21416 -0.104721 0)
(1.21049 -0.103092 0)
(1.20809 -0.100493 0)
(1.21179 -0.0967657 0)
(1.21435 -0.0935491 0)
(1.21272 -0.0911318 0)
(1.2097 -0.0889155 0)
(1.20604 -0.086822 0)
(1.20178 -0.0847546 0)
(1.19559 -0.0823459 0)
(1.1883 -0.0799305 0)
(1.18299 -0.0777009 0)
(1.17875 -0.0756823 0)
(1.17525 -0.073762 0)
(1.17652 -0.0703597 0)
(1.18107 -0.0664927 0)
(1.18076 -0.063823 0)
(1.17793 -0.0617749 0)
(1.17435 -0.0599004 0)
(1.17023 -0.0580878 0)
(1.16413 -0.0560243 0)
(1.15538 -0.0539872 0)
(1.14913 -0.0518709 0)
(1.14444 -0.0497789 0)
(1.14051 -0.0480375 0)
(1.13965 -0.0452683 0)
(1.14484 -0.0412224 0)
(1.14612 -0.0381225 0)
(1.14363 -0.0359521 0)
(1.14006 -0.0341066 0)
(1.13596 -0.0324621 0)
(1.12984 -0.0307986 0)
(1.11964 -0.0296728 0)
(1.11198 -0.0279874 0)
(1.10682 -0.0258076 0)
(1.10258 -0.0238691 0)
(1.10052 -0.021267 0)
(1.10551 -0.016999 0)
(1.10828 -0.0134514 0)
(1.10626 -0.0110937 0)
(1.10271 -0.00916429 0)
(1.09857 -0.0076144 0)
(1.09243 -0.00628691 0)
(1.08045 -0.00627001 0)
(1.07067 -0.00579072 0)
(1.06495 -0.003957 0)
(1.06038 -0.00206686 0)
(1.05777 0.000532629 0)
(1.06274 0.00540145 0)
(1.06668 0.00972451 0)
(1.06494 0.0121281 0)
(1.06129 0.013897 0)
(1.05702 0.0152466 0)
(1.05057 0.0162149 0)
(1.03655 0.015066 0)
(1.02429 0.0141146 0)
(1.01752 0.0153349 0)
(1.01237 0.0170405 0)
(1.00896 0.0193923 0)
(1.01383 0.0249937 0)
(1.01919 0.0306613 0)
(1.0176 0.0331165 0)
(1.01367 0.0343255 0)
(1.00913 0.0350857 0)
(1.00152 0.035431 0)
(0.984317 0.03304 0)
(0.96906 0.0308337 0)
(0.96083 0.0311279 0)
(0.955232 0.0322242 0)
(0.951286 0.0342781 0)
(0.956186 0.0410096 0)
(0.962797 0.0491101 0)
(0.96139 0.0524724 0)
(0.956461 0.0532058 0)
(0.95078 0.0533389 0)
(0.939448 0.0520062 0)
(0.917583 0.0456402 0)
(0.899734 0.0404668 0)
(0.889415 0.0384602 0)
(0.882166 0.0388207 0)
(0.877186 0.0404724 0)
(0.881525 0.0483036 0)
(0.886439 0.0578659 0)
(0.883461 0.0629498 0)
(0.876489 0.0645506 0)
(0.867914 0.0643767 0)
(0.850681 0.0591298 0)
(0.822711 0.0446313 0)
(0.799482 0.0325185 0)
(0.785134 0.0255367 0)
(0.77603 0.0233946 0)
(0.771589 0.0241245 0)
(0.770875 0.0247968 0)
(0.767601 0.0184282 0)
(0.758509 0.0118288 0)
(0.750413 0.00499224 0)
(0.289212 -0.050501 0)
(-0.761117 -0.0272411 0)
(1.21642 -0.106209 0)
(1.20882 -0.102572 0)
(1.20515 -0.100916 0)
(1.20251 -0.0983529 0)
(1.20585 -0.0942802 0)
(1.20901 -0.0906158 0)
(1.2077 -0.0880139 0)
(1.20463 -0.0859581 0)
(1.20094 -0.0841437 0)
(1.19672 -0.0823666 0)
(1.19078 -0.0803085 0)
(1.18302 -0.0781369 0)
(1.1774 -0.0759621 0)
(1.17316 -0.0737664 0)
(1.16964 -0.0716481 0)
(1.1701 -0.068177 0)
(1.17494 -0.0640503 0)
(1.17537 -0.0610792 0)
(1.17279 -0.0588898 0)
(1.16924 -0.0570978 0)
(1.16515 -0.0555265 0)
(1.15953 -0.0538897 0)
(1.15043 -0.0524048 0)
(1.14333 -0.0507159 0)
(1.13855 -0.0486188 0)
(1.13465 -0.0465858 0)
(1.13317 -0.043599 0)
(1.13802 -0.0392545 0)
(1.14024 -0.0358259 0)
(1.13823 -0.0334759 0)
(1.1348 -0.0316171 0)
(1.13075 -0.030145 0)
(1.12551 -0.0287841 0)
(1.11542 -0.0280322 0)
(1.10627 -0.0271021 0)
(1.1007 -0.0252883 0)
(1.09646 -0.0232827 0)
(1.09383 -0.0205876 0)
(1.09796 -0.0158581 0)
(1.10185 -0.0116219 0)
(1.1005 -0.00914574 0)
(1.09713 -0.00739466 0)
(1.09305 -0.0060933 0)
(1.08814 -0.00499124 0)
(1.07755 -0.00486262 0)
(1.0657 -0.00497446 0)
(1.05889 -0.00397823 0)
(1.05424 -0.00245694 0)
(1.05074 -0.000475072 0)
(1.05394 0.00451738 0)
(1.05954 0.0104416 0)
(1.05906 0.0135358 0)
(1.05568 0.0151477 0)
(1.05146 0.01616 0)
(1.04644 0.0169465 0)
(1.03499 0.0164676 0)
(1.02053 0.0150533 0)
(1.01179 0.0151603 0)
(1.00634 0.016281 0)
(1.00196 0.0177679 0)
(1.00355 0.0224141 0)
(1.0111 0.0302863 0)
(1.01209 0.0346792 0)
(1.00864 0.0360214 0)
(1.00412 0.0362859 0)
(0.998197 0.0365844 0)
(0.98393 0.0348696 0)
(0.966823 0.0315137 0)
(0.956461 0.0301584 0)
(0.950008 0.030519 0)
(0.944742 0.0314241 0)
(0.944249 0.0354918 0)
(0.952641 0.0451492 0)
(0.955557 0.0520702 0)
(0.951989 0.0542059 0)
(0.946631 0.0544761 0)
(0.939235 0.0541979 0)
(0.922197 0.0485391 0)
(0.900555 0.0396194 0)
(0.886339 0.0360003 0)
(0.877863 0.0353306 0)
(0.871321 0.0357144 0)
(0.869562 0.0392459 0)
(0.875599 0.0488196 0)
(0.877493 0.0561059 0)
(0.873129 0.0593564 0)
(0.86586 0.0603936 0)
(0.855502 0.0597295 0)
(0.83458 0.0517638 0)
(0.808157 0.0351523 0)
(0.7885 0.0230814 0)
(0.776589 0.0170883 0)
(0.769153 0.0149995 0)
(0.768486 0.0152001 0)
(0.769925 0.0112166 0)
(0.766639 0.0037613 0)
(0.76158 0.000407229 0)
(0.296342 -0.0402763 0)
(-0.764102 -0.023874 0)
(1.21223 -0.103775 0)
(1.20431 -0.100153 0)
(1.20059 -0.0984099 0)
(1.19755 -0.0961372 0)
(1.20016 -0.0921384 0)
(1.20384 -0.0883122 0)
(1.20289 -0.0857147 0)
(1.2 -0.0835161 0)
(1.19644 -0.08153 0)
(1.19241 -0.0797431 0)
(1.18707 -0.0778654 0)
(1.17883 -0.0759313 0)
(1.17269 -0.073918 0)
(1.16828 -0.071967 0)
(1.16454 -0.0701878 0)
(1.16412 -0.0670377 0)
(1.16905 -0.0626311 0)
(1.17015 -0.0594261 0)
(1.16781 -0.0572137 0)
(1.16442 -0.0552432 0)
(1.16047 -0.053486 0)
(1.15581 -0.0518236 0)
(1.14706 -0.0505193 0)
(1.13873 -0.0490656 0)
(1.13362 -0.047334 0)
(1.12953 -0.0457947 0)
(1.12723 -0.0433542 0)
(1.1316 -0.0385711 0)
(1.13479 -0.0344656 0)
(1.13322 -0.0320703 0)
(1.12999 -0.0301972 0)
(1.12609 -0.0285467 0)
(1.12175 -0.0271008 0)
(1.11327 -0.0262334 0)
(1.10253 -0.0256655 0)
(1.09598 -0.0242961 0)
(1.09145 -0.022865 0)
(1.08796 -0.0210719 0)
(1.09062 -0.016377 0)
(1.09593 -0.0107837 0)
(1.09561 -0.00781984 0)
(1.09253 -0.00611586 0)
(1.08865 -0.00465744 0)
(1.08437 -0.00348454 0)
(1.07599 -0.00298864 0)
(1.06335 -0.00371573 0)
(1.05476 -0.00312819 0)
(1.04943 -0.0018773 0)
(1.04521 -0.000618321 0)
(1.04527 0.00314222 0)
(1.05217 0.01036 0)
(1.05417 0.0148653 0)
(1.05143 0.0165924 0)
(1.04739 0.0176664 0)
(1.04294 0.018474 0)
(1.03411 0.018381 0)
(1.01906 0.0161436 0)
(1.00847 0.0154707 0)
(1.00202 0.0161804 0)
(0.997187 0.017031 0)
(0.994783 0.019385 0)
(1.00164 0.0271041 0)
(1.00669 0.0343749 0)
(1.00476 0.037007 0)
(1.00047 0.0378362 0)
(0.995591 0.0382848 0)
(0.985562 0.0369454 0)
(0.967846 0.0316759 0)
(0.954393 0.0285668 0)
(0.946203 0.0285506 0)
(0.940264 0.0295979 0)
(0.93579 0.0314172 0)
(0.94013 0.038948 0)
(0.948039 0.0492679 0)
(0.947982 0.0543281 0)
(0.943541 0.0558778 0)
(0.937936 0.056062 0)
(0.927422 0.0541515 0)
(0.905811 0.044648 0)
(0.886903 0.0361776 0)
(0.875814 0.0332306 0)
(0.868577 0.0322963 0)
(0.862722 0.0328409 0)
(0.864045 0.0387147 0)
(0.868897 0.0488493 0)
(0.867846 0.0550582 0)
(0.862327 0.0575527 0)
(0.854723 0.0581038 0)
(0.843215 0.0550906 0)
(0.822216 0.0436619 0)
(0.797867 0.0263248 0)
(0.780442 0.0142265 0)
(0.770495 0.00857723 0)
(0.765313 0.00683178 0)
(0.768617 0.00563847 0)
(0.770954 -0.000375264 0)
(0.769029 -0.00382185 0)
(0.304309 -0.0320836 0)
(-0.766213 -0.0203912 0)
(1.20899 -0.101282 0)
(1.20078 -0.0978244 0)
(1.19696 -0.0960652 0)
(1.1936 -0.0940268 0)
(1.19517 -0.090106 0)
(1.19949 -0.0859237 0)
(1.19915 -0.0831511 0)
(1.1965 -0.0810416 0)
(1.19308 -0.079096 0)
(1.18912 -0.0772975 0)
(1.1843 -0.0754011 0)
(1.17619 -0.073559 0)
(1.16931 -0.0718165 0)
(1.16468 -0.0699801 0)
(1.16081 -0.0682748 0)
(1.15924 -0.0654367 0)
(1.16391 -0.0607346 0)
(1.16604 -0.0571012 0)
(1.16411 -0.0547884 0)
(1.16091 -0.0529251 0)
(1.15713 -0.0512894 0)
(1.15289 -0.0497428 0)
(1.14504 -0.0483662 0)
(1.13591 -0.0473144 0)
(1.13013 -0.0458089 0)
(1.12583 -0.044187 0)
(1.12255 -0.0422491 0)
(1.12536 -0.0377164 0)
(1.13011 -0.0326081 0)
(1.12949 -0.0298371 0)
(1.1265 -0.0280962 0)
(1.1228 -0.0266134 0)
(1.11867 -0.0253147 0)
(1.11158 -0.0241824 0)
(1.10046 -0.0240461 0)
(1.09276 -0.0232022 0)
(1.08773 -0.0216616 0)
(1.08368 -0.0202618 0)
(1.08336 -0.0169155 0)
(1.08981 -0.0103845 0)
(1.09172 -0.00612601 0)
(1.0892 -0.00429232 0)
(1.08551 -0.00312086 0)
(1.08139 -0.00212111 0)
(1.07493 -0.00128632 0)
(1.06222 -0.0022447 0)
(1.05218 -0.00256616 0)
(1.04598 -0.00143981 0)
(1.04133 -0.000214723 0)
(1.03831 0.00171077 0)
(1.04373 0.00811481 0)
(1.04931 0.0148977 0)
(1.04815 0.0177743 0)
(1.04445 0.0189054 0)
(1.04021 0.0196313 0)
(1.03382 0.0200829 0)
(1.01964 0.017701 0)
(1.00682 0.0153705 0)
(0.999187 0.0156005 0)
(0.993573 0.0167889 0)
(0.989098 0.0180876 0)
(0.990808 0.0231624 0)
(0.999405 0.0327018 0)
(1.00118 0.0380129 0)
(0.997838 0.0394877 0)
(0.993099 0.0397019 0)
(0.986776 0.0395685 0)
(0.971881 0.0347665 0)
(0.954412 0.0287037 0)
(0.943784 0.0271108 0)
(0.93704 0.0275704 0)
(0.931609 0.0283113 0)
(0.929545 0.0314039 0)
(0.93764 0.0419434 0)
(0.943052 0.0510985 0)
(0.94082 0.0546502 0)
(0.935635 0.0557348 0)
(0.929044 0.0562886 0)
(0.915008 0.0523561 0)
(0.892937 0.0398928 0)
(0.876843 0.0316645 0)
(0.866942 0.029576 0)
(0.86014 0.0291032 0)
(0.855701 0.0304639 0)
(0.859004 0.0380154 0)
(0.862161 0.0465634 0)
(0.859701 0.0506876 0)
(0.853886 0.0520361 0)
(0.845899 0.0521255 0)
(0.833064 0.0477199 0)
(0.8123 0.0345356 0)
(0.789946 0.0164385 0)
(0.774429 0.00409817 0)
(0.766327 -0.000726148 0)
(0.765416 -0.00332906 0)
(0.77227 -0.0071408 0)
(0.773691 -0.00928853 0)
(0.311824 -0.0222632 0)
(-0.768158 -0.0175513 0)
(1.20619 -0.0986828 0)
(1.19766 -0.0953402 0)
(1.19378 -0.0937036 0)
(1.19023 -0.0920944 0)
(1.19053 -0.0885465 0)
(1.19541 -0.0838525 0)
(1.19593 -0.0807118 0)
(1.19348 -0.0785564 0)
(1.19016 -0.0766396 0)
(1.1863 -0.0748775 0)
(1.18182 -0.0730773 0)
(1.17406 -0.0712772 0)
(1.16654 -0.0697554 0)
(1.16167 -0.06816 0)
(1.15774 -0.0666665 0)
(1.155 -0.0644894 0)
(1.15863 -0.0597243 0)
(1.16222 -0.0552415 0)
(1.16094 -0.0527359 0)
(1.15792 -0.0508721 0)
(1.15429 -0.0492679 0)
(1.15022 -0.0478187 0)
(1.14351 -0.0464308 0)
(1.13378 -0.0456276 0)
(1.12727 -0.0444284 0)
(1.12276 -0.0429171 0)
(1.11895 -0.0414956 0)
(1.11904 -0.037919 0)
(1.12502 -0.0318832 0)
(1.12615 -0.0281536 0)
(1.12357 -0.026243 0)
(1.12003 -0.0247744 0)
(1.11602 -0.023529 0)
(1.11033 -0.0223745 0)
(1.09924 -0.0224004 0)
(1.09023 -0.022156 0)
(1.08472 -0.0209992 0)
(1.08041 -0.019715 0)
(1.07752 -0.0176003 0)
(1.08251 -0.0115832 0)
(1.08747 -0.00548965 0)
(1.08621 -0.0027813 0)
(1.08278 -0.00140613 0)
(1.07883 -0.000390689 0)
(1.07381 0.000499905 0)
(1.06235 -0.000274651 0)
(1.05038 -0.00166925 0)
(1.04338 -0.00129651 0)
(1.03825 -6.18508e-05 0)
(1.03394 0.00127205 0)
(1.03479 0.00553564 0)
(1.04282 0.0138483 0)
(1.04473 0.018682 0)
(1.0418 0.0203948 0)
(1.03777 0.0212425 0)
(1.03312 0.0217862 0)
(1.02218 0.0200505 0)
(1.00687 0.0160677 0)
(0.996971 0.014948 0)
(0.990594 0.0159159 0)
(0.985546 0.0170855 0)
(0.982537 0.0194247 0)
(0.989298 0.0279134 0)
(0.996202 0.0367687 0)
(0.995333 0.0403777 0)
(0.99133 0.0415926 0)
(0.986436 0.0419725 0)
(0.976614 0.040533 0)
(0.957707 0.0330452 0)
(0.943278 0.0273756 0)
(0.935044 0.0261792 0)
(0.928923 0.026297 0)
(0.923728 0.0271304 0)
(0.924748 0.0328071 0)
(0.933797 0.0456984 0)
(0.936247 0.0537936 0)
(0.932682 0.0567054 0)
(0.927441 0.0571078 0)
(0.920301 0.0564515 0)
(0.903662 0.0492608 0)
(0.88167 0.036147 0)
(0.867466 0.029042 0)
(0.858761 0.0268895 0)
(0.85236 0.0262068 0)
(0.84957 0.0284939 0)
(0.853274 0.0370463 0)
(0.854465 0.0444143 0)
(0.851109 0.0473732 0)
(0.84519 0.0476504 0)
(0.837285 0.0463207 0)
(0.824572 0.0396374 0)
(0.804752 0.0243512 0)
(0.784257 0.00530982 0)
(0.77034 -0.00627185 0)
(0.76448 -0.0109785 0)
(0.769353 -0.0162807 0)
(0.774322 -0.0169079 0)
(0.318809 -0.0113608 0)
(-0.769854 -0.0152449 0)
(1.20377 -0.0961762 0)
(1.1948 -0.0929569 0)
(1.1907 -0.0913834 0)
(1.18699 -0.0900669 0)
(1.18578 -0.0872436 0)
(1.19072 -0.0821739 0)
(1.19256 -0.0783577 0)
(1.19046 -0.0760631 0)
(1.18727 -0.0741557 0)
(1.18357 -0.0724685 0)
(1.17943 -0.07085 0)
(1.17242 -0.0692566 0)
(1.16413 -0.0679029 0)
(1.15871 -0.0663632 0)
(1.15458 -0.0648122 0)
(1.15116 -0.0632299 0)
(1.15279 -0.059115 0)
(1.15803 -0.0536429 0)
(1.15788 -0.0505818 0)
(1.15505 -0.0487417 0)
(1.15153 -0.0471855 0)
(1.14759 -0.0458368 0)
(1.14215 -0.0445621 0)
(1.1323 -0.0440231 0)
(1.1246 -0.0430998 0)
(1.11964 -0.0416245 0)
(1.11566 -0.0402585 0)
(1.1134 -0.037888 0)
(1.11869 -0.0319464 0)
(1.12245 -0.0267003 0)
(1.1207 -0.0243232 0)
(1.1173 -0.0228657 0)
(1.11342 -0.0216436 0)
(1.10886 -0.020542 0)
(1.09899 -0.0205736 0)
(1.08832 -0.0210653 0)
(1.08195 -0.0202461 0)
(1.0773 -0.0189174 0)
(1.07342 -0.0176051 0)
(1.07451 -0.0133432 0)
(1.08182 -0.00572372 0)
(1.08311 -0.0013816 0)
(1.08019 0.000307678 0)
(1.07638 0.00136106 0)
(1.07222 0.0022309 0)
(1.06361 0.00187703 0)
(1.05011 -0.000559795 0)
(1.04111 -0.00112336 0)
(1.03537 -9.64363e-05 0)
(1.03073 0.00120084 0)
(1.02773 0.00336496 0)
(1.03389 0.0108753 0)
(1.04023 0.0187574 0)
(1.03927 0.0218835 0)
(1.03542 0.022739 0)
(1.03121 0.023298 0)
(1.02457 0.0229982 0)
(1.00934 0.0186554 0)
(0.995813 0.0153441 0)
(0.988288 0.0152912 0)
(0.982819 0.0162696 0)
(0.978069 0.0172196 0)
(0.978351 0.0214762 0)
(0.987915 0.032621 0)
(0.991491 0.0399715 0)
(0.988774 0.0424621 0)
(0.98418 0.0433655 0)
(0.978719 0.0438415 0)
(0.965887 0.0392061 0)
(0.946993 0.0290355 0)
(0.934514 0.0242837 0)
(0.926682 0.024215 0)
(0.920931 0.0248784 0)
(0.916591 0.026293 0)
(0.921069 0.0342245 0)
(0.929497 0.0469267 0)
(0.930114 0.0529823 0)
(0.925829 0.0549174 0)
(0.919973 0.0555415 0)
(0.910965 0.0551748 0)
(0.892603 0.0460287 0)
(0.872355 0.0321761 0)
(0.859357 0.0253002 0)
(0.851042 0.0234158 0)
(0.845025 0.023158 0)
(0.843964 0.0267689 0)
(0.847805 0.0350763 0)
(0.848082 0.0402798 0)
(0.844475 0.041614 0)
(0.838574 0.0414647 0)
(0.830639 0.0393315 0)
(0.818432 0.0309613 0)
(0.800121 0.0133642 0)
(0.780657 -0.00508108 0)
(0.768106 -0.016101 0)
(0.766249 -0.0244066 0)
(0.771224 -0.028157 0)
(0.323157 -0.00328653 0)
(-0.771734 -0.014294 0)
(1.20163 -0.0938008 0)
(1.19217 -0.0908542 0)
(1.18774 -0.0892893 0)
(1.18388 -0.08794 0)
(1.18125 -0.0857934 0)
(1.18515 -0.0808882 0)
(1.189 -0.0761264 0)
(1.18767 -0.0735667 0)
(1.18466 -0.0717299 0)
(1.18108 -0.0701075 0)
(1.17708 -0.0686132 0)
(1.17104 -0.0671918 0)
(1.16216 -0.0661581 0)
(1.15598 -0.0647532 0)
(1.15151 -0.0630791 0)
(1.14778 -0.0616556 0)
(1.14691 -0.0586666 0)
(1.15283 -0.0527852 0)
(1.15483 -0.0486387 0)
(1.15248 -0.0466392 0)
(1.14911 -0.0451298 0)
(1.14528 -0.0438123 0)
(1.14072 -0.0425704 0)
(1.13145 -0.0421182 0)
(1.12237 -0.0417414 0)
(1.11681 -0.0404834 0)
(1.11252 -0.0390083 0)
(1.10903 -0.0374677 0)
(1.11132 -0.032794 0)
(1.11773 -0.0261001 0)
(1.11792 -0.0225626 0)
(1.11491 -0.0209291 0)
(1.11122 -0.0197395 0)
(1.10718 -0.0187288 0)
(1.09942 -0.0185371 0)
(1.08755 -0.0198071 0)
(1.07961 -0.0196416 0)
(1.07438 -0.0183409 0)
(1.07015 -0.0169895 0)
(1.06773 -0.0146435 0)
(1.07404 -0.00751256 0)
(1.07919 -0.000884154 0)
(1.0778 0.00189807 0)
(1.07429 0.0030982 0)
(1.07037 0.0039231 0)
(1.0647 0.00422816 0)
(1.05173 0.00160387 0)
(1.03981 -0.000588141 0)
(1.03287 -0.000117607 0)
(1.02778 0.00123393 0)
(1.02353 0.00253198 0)
(1.02418 0.00673792 0)
(1.03319 0.016364 0)
(1.03626 0.0221469 0)
(1.03373 0.0243691 0)
(1.0298 0.0252153 0)
(1.02519 0.0258769 0)
(1.0137 0.0235151 0)
(0.997279 0.0173287 0)
(0.986952 0.0145629 0)
(0.980555 0.0147229 0)
(0.975037 0.0157718 0)
(0.970908 0.0174716 0)
(0.975478 0.0253493 0)
(0.984575 0.0377026 0)
(0.985555 0.0433482 0)
(0.982285 0.0449138 0)
(0.977678 0.0450592 0)
(0.971104 0.0447656 0)
(0.95462 0.0379294 0)
(0.936315 0.0281028 0)
(0.925782 0.024304 0)
(0.919206 0.0236737 0)
(0.913611 0.0236666 0)
(0.910182 0.0257517 0)
(0.916664 0.0364475 0)
(0.923309 0.0490498 0)
(0.922071 0.0545872 0)
(0.917254 0.0562575 0)
(0.911555 0.0559769 0)
(0.902271 0.0535433 0)
(0.883157 0.0423407 0)
(0.863493 0.0288939 0)
(0.851301 0.0225836 0)
(0.843766 0.0203899 0)
(0.838252 0.0201607 0)
(0.838897 0.0250815 0)
(0.842532 0.0330411 0)
(0.842078 0.0369571 0)
(0.838593 0.0370481 0)
(0.83316 0.0360911 0)
(0.825775 0.0318459 0)
(0.814843 0.0213338 0)
(0.797996 0.00341201 0)
(0.779158 -0.0137803 0)
(0.767448 -0.0260575 0)
(0.767703 -0.0417175 0)
(0.322803 0.00221377 0)
(-0.77373 -0.0143817 0)
(1.1998 -0.0915076 0)
(1.18977 -0.08901 0)
(1.1849 -0.0873253 0)
(1.18084 -0.0857977 0)
(1.17751 -0.084082 0)
(1.17911 -0.0800074 0)
(1.18476 -0.0744573 0)
(1.18475 -0.0712822 0)
(1.18199 -0.0693416 0)
(1.17858 -0.0677107 0)
(1.17473 -0.0662766 0)
(1.1697 -0.0649259 0)
(1.1607 -0.0641551 0)
(1.15342 -0.063107 0)
(1.14863 -0.0615843 0)
(1.14469 -0.0601237 0)
(1.14199 -0.0581062 0)
(1.14642 -0.0527183 0)
(1.15113 -0.047229 0)
(1.14984 -0.0445501 0)
(1.14665 -0.0429621 0)
(1.14296 -0.041635 0)
(1.13893 -0.0404506 0)
(1.1312 -0.039926 0)
(1.12087 -0.0402195 0)
(1.11428 -0.0393937 0)
(1.10961 -0.0379095 0)
(1.10571 -0.0365222 0)
(1.10448 -0.0335831 0)
(1.11133 -0.0265172 0)
(1.11461 -0.0212953 0)
(1.11243 -0.0191196 0)
(1.10892 -0.0178475 0)
(1.10504 -0.0168371 0)
(1.09968 -0.0162058 0)
(1.08811 -0.0177265 0)
(1.07788 -0.01875 0)
(1.07181 -0.0178731 0)
(1.06717 -0.0164089 0)
(1.06333 -0.0149626 0)
(1.06514 -0.0102263 0)
(1.07337 -0.00159209 0)
(1.07495 0.00301442 0)
(1.07203 0.00468295 0)
(1.06823 0.00565516 0)
(1.06406 0.00643561 0)
(1.05459 0.00519214 0)
(1.04015 0.00137856 0)
(1.03105 0.000281766 0)
(1.02542 0.000979977 0)
(1.02072 0.00207933 0)
(1.01725 0.00385969 0)
(1.02274 0.0113869 0)
(1.03079 0.0214567 0)
(1.03102 0.0255768 0)
(1.02747 0.0269816 0)
(1.02323 0.0278524 0)
(1.01747 0.0276873 0)
(1.00294 0.0216714 0)
(0.987673 0.0150439 0)
(0.978602 0.0136409 0)
(0.972528 0.0146555 0)
(0.967657 0.0155899 0)
(0.965246 0.0179982 0)
(0.973646 0.0285293 0)
(0.981027 0.0397108 0)
(0.980022 0.0436445 0)
(0.97564 0.0453613 0)
(0.970651 0.0465955 0)
(0.962689 0.0455537 0)
(0.944907 0.0354923 0)
(0.92822 0.025012 0)
(0.918343 0.0217131 0)
(0.91155 0.0218861 0)
(0.906255 0.0223068 0)
(0.904543 0.0253467 0)
(0.912404 0.0371849 0)
(0.917495 0.0480804 0)
(0.915615 0.0520205 0)
(0.910619 0.0532604 0)
(0.904403 0.0534417 0)
(0.893755 0.0508409 0)
(0.874435 0.0385198 0)
(0.856071 0.0246555 0)
(0.844208 0.0183524 0)
(0.836929 0.0163839 0)
(0.832334 0.0166899 0)
(0.834767 0.0227788 0)
(0.838524 0.0299941 0)
(0.838 0.032363 0)
(0.834711 0.0316101 0)
(0.829603 0.0301963 0)
(0.822922 0.0238664 0)
(0.813677 0.012706 0)
(0.797409 -0.00441017 0)
(0.779217 -0.0215594 0)
(0.766106 -0.0489414 0)
(0.316042 0.000769897 0)
(-0.775869 -0.0148071 0)