/*--------------------------------*- C++ -*----------------------------------*\
  =========                 |
  \\      /  F ield         | OpenFOAM: The Open Source CFD Toolbox
   \\    /   O peration     | Website:  https://openfoam.org
    \\  /    A nd           | Version:  12
     \\/     M anipulation  |
\*---------------------------------------------------------------------------*/
FoamFile
{
    format      ascii;
    class       volScalarField;
    location    "12.3";
    object      T;
}
// * * * * * * * * * * * * * * * * * * * * * * * * * * * * * * * * * * * * * //

dimensions      [0 0 0 1 0 0 0];

internalField   nonuniform List<scalar> 
9801
(
0.829057
0.82975
0.829703
0.830319
0.831078
0.832132
0.833696
0.837111
0.841416
0.843865
0.845081
0.845823
0.846223
0.846356
0.846734
0.847387
0.848271
0.849477
0.851905
0.856446
0.859872
0.861452
0.862364
0.86287
0.862971
0.863208
0.863819
0.864654
0.865731
0.867572
0.87189
0.876055
0.878085
0.879148
0.879624
0.879583
0.879666
0.880199
0.881018
0.882144
0.883777
0.888081
0.892929
0.895339
0.896383
0.896914
0.896543
0.896372
0.896859
0.89771
0.898837
0.900524
0.905111
0.911004
0.913833
0.914985
0.915409
0.914047
0.913445
0.913971
0.915086
0.916392
0.918583
0.924217
0.930524
0.933672
0.935244
0.935626
0.933089
0.931416
0.931823
0.933267
0.935172
0.938819
0.946943
0.953692
0.956937
0.95867
0.958387
0.954191
0.951671
0.952331
0.954715
0.95853
0.968449
0.979144
0.984574
0.987956
0.990362
0.98872
0.981873
0.978673
0.981933
0.989987
1.00981
1.03043
1.04282
1.15
1.53095
0.832813
0.833471
0.83315
0.833798
0.834752
0.835845
0.837465
0.841175
0.844737
0.846897
0.848357
0.84944
0.849887
0.849373
0.849638
0.850514
0.851616
0.852862
0.85546
0.859748
0.862682
0.864388
0.865623
0.866398
0.865723
0.865541
0.86636
0.867492
0.86873
0.870629
0.874888
0.878679
0.880728
0.882066
0.882958
0.882196
0.881515
0.882201
0.883375
0.884717
0.886343
0.890462
0.895278
0.897828
0.899227
0.900257
0.899285
0.897915
0.898429
0.899639
0.901057
0.902778
0.907035
0.912745
0.915852
0.917457
0.918595
0.917129
0.915098
0.915494
0.916862
0.918353
0.920413
0.925923
0.932317
0.935604
0.937434
0.938572
0.936366
0.933403
0.933652
0.935365
0.937395
0.941103
0.949286
0.955852
0.959094
0.96112
0.962248
0.958369
0.954223
0.955053
0.95774
0.961535
0.970297
0.979974
0.985729
0.98976
0.993598
0.994097
0.987778
0.984187
0.986925
0.993442
1.00669
1.02503
1.038
1.14883
1.55063
0.836558
0.837578
0.837299
0.837822
0.838755
0.839864
0.841474
0.845189
0.84868
0.850653
0.852057
0.853215
0.853874
0.853427
0.853558
0.854358
0.855479
0.856768
0.859378
0.863654
0.866459
0.868101
0.869394
0.870316
0.869803
0.869468
0.87015
0.871283
0.872576
0.874467
0.878683
0.882416
0.884423
0.885839
0.886914
0.886362
0.885542
0.886074
0.887216
0.888585
0.890185
0.894136
0.898959
0.901579
0.903165
0.90441
0.903738
0.902243
0.902569
0.903705
0.905167
0.906856
0.910748
0.916365
0.919605
0.921457
0.922943
0.92228
0.920046
0.919993
0.92121
0.922834
0.924914
0.929878
0.936273
0.939831
0.941942
0.943591
0.94267
0.93944
0.938972
0.940554
0.942668
0.946018
0.953481
0.960366
0.964293
0.967028
0.969226
0.966993
0.961994
0.96188
0.96468
0.968207
0.974956
0.985774
0.993933
0.998845
1.00308
1.00507
1.00064
0.99719
0.999108
1.0051
1.01537
1.03379
1.04725
1.16309
1.57027
0.841408
0.842795
0.842484
0.842778
0.843596
0.844701
0.846417
0.850151
0.853642
0.855642
0.857016
0.858168
0.859031
0.858725
0.858644
0.859352
0.860439
0.86181
0.86455
0.868795
0.87162
0.873274
0.874557
0.875606
0.875348
0.874787
0.875312
0.876352
0.877677
0.879714
0.883979
0.887812
0.889881
0.891312
0.892515
0.892298
0.891275
0.891612
0.892622
0.893961
0.895675
0.899652
0.904633
0.907416
0.909089
0.910481
0.910336
0.908668
0.90859
0.909544
0.910972
0.912753
0.916649
0.922556
0.926128
0.928137
0.929769
0.92995
0.927497
0.926701
0.92774
0.929396
0.931595
0.936328
0.943143
0.947348
0.949789
0.951718
0.952011
0.948389
0.946751
0.948207
0.950529
0.953616
0.960439
0.968492
0.973291
0.976359
0.978941
0.978806
0.973869
0.971595
0.973862
0.977549
0.982763
0.992841
1.00282
1.00894
1.01358
1.0177
1.01636
1.01222
1.01143
1.01614
1.02415
1.03878
1.04965
1.17814
1.58733
0.846727
0.848292
0.847974
0.8481
0.848858
0.849942
0.851773
0.855709
0.859221
0.861215
0.862598
0.863761
0.864698
0.864575
0.864359
0.865016
0.866068
0.867402
0.870248
0.874621
0.8775
0.879194
0.880502
0.881619
0.881662
0.88099
0.881415
0.882427
0.88368
0.885607
0.889938
0.894038
0.896253
0.897733
0.899007
0.899212
0.898095
0.898237
0.899234
0.900518
0.902124
0.905883
0.911048
0.914123
0.915933
0.917407
0.917948
0.916249
0.915625
0.91658
0.918078
0.919888
0.923615
0.929598
0.933521
0.935745
0.937451
0.938365
0.936253
0.934403
0.935196
0.93695
0.939195
0.943433
0.950472
0.955391
0.958149
0.960234
0.961676
0.959172
0.955928
0.95626
0.958524
0.961365
0.966699
0.975576
0.981918
0.985426
0.988273
0.99029
0.987052
0.982311
0.982121
0.985537
0.990003
0.997981
1.00885
1.01691
1.02253
1.02756
1.02967
1.02609
1.02324
1.02364
1.02849
1.03903
1.04802
1.1863
1.59682
0.852456
0.854112
0.853775
0.853807
0.854544
0.855608
0.857329
0.861374
0.865085
0.867124
0.868518
0.869694
0.870701
0.870742
0.870433
0.871007
0.872037
0.873299
0.875979
0.880568
0.883636
0.885397
0.886739
0.887916
0.888228
0.88744
0.887654
0.888625
0.88988
0.891619
0.895817
0.900315
0.902792
0.904388
0.905742
0.906412
0.905195
0.904692
0.905514
0.906814
0.908415
0.911895
0.917312
0.920818
0.922881
0.924491
0.925653
0.924405
0.922594
0.922997
0.924463
0.926312
0.929752
0.93587
0.940338
0.942822
0.944654
0.946182
0.945429
0.942444
0.941876
0.94338
0.945516
0.948962
0.95602
0.962201
0.965446
0.967675
0.969734
0.969309
0.96505
0.963321
0.964792
0.967418
0.971213
0.979344
0.98772
0.992637
0.995742
0.998445
0.997873
0.992365
0.989685
0.99121
0.994921
1.00027
1.00974
1.01912
1.02565
1.03085
1.03565
1.036
1.03221
1.02925
1.0298
1.03533
1.0434
1.1905
1.60205
0.857749
0.859433
0.859084
0.859117
0.859888
0.860984
0.86263
0.866564
0.870422
0.87255
0.873988
0.875198
0.876269
0.876396
0.875838
0.876289
0.877339
0.878659
0.88124
0.885886
0.889162
0.891011
0.892399
0.893634
0.894273
0.893285
0.892962
0.893825
0.895149
0.896961
0.901021
0.905755
0.908479
0.910205
0.911627
0.912739
0.911932
0.910394
0.910642
0.911906
0.913631
0.917029
0.922624
0.926493
0.928661
0.930293
0.93172
0.93162
0.929146
0.928391
0.929513
0.931231
0.934105
0.940216
0.945659
0.948459
0.950297
0.951944
0.9526
0.949699
0.947714
0.948326
0.950191
0.95267
0.95859
0.966225
0.970728
0.973196
0.975262
0.976243
0.97279
0.969313
0.96935
0.971524
0.974329
0.97988
0.989381
0.996274
1.00018
1.00313
1.00513
1.00206
0.996874
0.995609
0.997638
1.00139
1.00803
1.0179
1.02595
1.0319
1.03685
1.04034
1.03929
1.03513
1.0309
1.03178
1.03647
1.19129
1.60498
0.862454
0.864128
0.863776
0.863687
0.864397
0.865479
0.867069
0.870944
0.875002
0.877233
0.87871
0.879951
0.88108
0.881457
0.880634
0.880702
0.881628
0.882892
0.885337
0.890118
0.893735
0.895686
0.897104
0.898366
0.899346
0.898635
0.897607
0.898068
0.899235
0.900878
0.904761
0.909897
0.912955
0.914744
0.916176
0.917475
0.917562
0.915516
0.914938
0.915892
0.917371
0.920212
0.926005
0.930652
0.933015
0.934627
0.93609
0.936864
0.934731
0.932993
0.933393
0.934831
0.936868
0.942001
0.948735
0.952614
0.954648
0.956296
0.957613
0.955754
0.952495
0.952019
0.953419
0.955424
0.959183
0.967249
0.973693
0.97697
0.979106
0.980798
0.979452
0.974831
0.973062
0.974115
0.976457
0.979635
0.987336
0.996698
1.0023
1.00578
1.00872
1.00981
1.00474
0.999941
0.999791
1.0023
1.00638
1.01403
1.02324
1.03022
1.03561
1.04023
1.04233
1.0408
1.03575
1.03096
1.02881
1.18886
1.60647
0.866484
0.868204
0.867944
0.86766
0.868214
0.869218
0.870566
0.874071
0.878599
0.881121
0.882646
0.883892
0.885028
0.88564
0.88478
0.884489
0.885215
0.886344
0.888215
0.892842
0.897167
0.899421
0.900896
0.902152
0.903261
0.903
0.901603
0.901636
0.902579
0.903901
0.906915
0.912461
0.916223
0.918208
0.919663
0.920973
0.921626
0.919828
0.918622
0.919142
0.92039
0.922249
0.927293
0.933072
0.936142
0.937902
0.939388
0.940613
0.939382
0.936757
0.93646
0.937525
0.939135
0.942317
0.949524
0.955069
0.957755
0.959499
0.961009
0.960515
0.95674
0.955055
0.955843
0.957564
0.959759
0.965711
0.974234
0.979073
0.981702
0.98369
0.984692
0.981139
0.97683
0.976149
0.977615
0.980032
0.98425
0.99375
1.00241
1.00721
1.01028
1.01283
1.01231
1.00664
1.00293
1.00341
1.00609
1.01064
1.01888
1.02713
1.03314
1.03797
1.04216
1.0431
1.04072
1.034
1.02502
1.18369
1.60749
0.869794
0.871536
0.871431
0.870971
0.871369
0.8723
0.873465
0.876237
0.88116
0.884232
0.885857
0.887088
0.888188
0.888944
0.888216
0.887603
0.88816
0.88919
0.890577
0.894395
0.899462
0.902244
0.903853
0.905139
0.906293
0.906535
0.904942
0.904511
0.905255
0.906426
0.9084
0.91361
0.918411
0.920821
0.922357
0.923674
0.924693
0.923532
0.921614
0.921718
0.922742
0.92415
0.927447
0.933954
0.938271
0.940416
0.941932
0.943294
0.943198
0.940216
0.938934
0.939616
0.94102
0.942919
0.94843
0.955773
0.959634
0.961722
0.963364
0.964339
0.961578
0.95823
0.957888
0.95897
0.960758
0.963803
0.972009
0.97974
0.983558
0.985961
0.987953
0.987643
0.982089
0.978681
0.978976
0.980873
0.983404
0.988694
0.998785
1.00639
1.01051
1.01345
1.01601
1.015
1.00899
1.00574
1.00653
1.00951
1.01468
1.02304
1.03022
1.03551
1.04013
1.04315
1.04315
1.03823
1.02733
1.17745
1.60841
0.872451
0.874215
0.874315
0.873649
0.873829
0.87468
0.875773
0.877816
0.882649
0.886431
0.888294
0.889573
0.890677
0.891583
0.891165
0.890141
0.890444
0.891374
0.892562
0.895284
0.900689
0.904256
0.906069
0.907403
0.90859
0.909317
0.907967
0.906832
0.907321
0.908386
0.9098
0.913771
0.919543
0.92272
0.924427
0.925777
0.926975
0.926786
0.924413
0.923737
0.924525
0.925808
0.927749
0.933449
0.939431
0.942331
0.943986
0.945383
0.946226
0.943943
0.94134
0.941374
0.942512
0.944042
0.946928
0.95452
0.960669
0.96354
0.965391
0.966918
0.966577
0.962234
0.959737
0.960025
0.961509
0.963501
0.968258
0.977876
0.984361
0.98739
0.989464
0.991233
0.989644
0.983879
0.981308
0.981751
0.983511
0.98626
0.99294
1.00312
1.01008
1.01409
1.0171
1.01897
1.01696
1.01125
1.00849
1.00946
1.0126
1.01837
1.02678
1.03326
1.03795
1.04172
1.04336
1.04142
1.03263
1.17292
1.60949
0.874606
0.876398
0.87674
0.876019
0.875899
0.876628
0.877654
0.879143
0.88332
0.887917
0.890216
0.891592
0.892722
0.893722
0.893784
0.89247
0.892345
0.893139
0.894248
0.89608
0.901054
0.905643
0.90788
0.909289
0.91049
0.911497
0.91084
0.909058
0.909061
0.90998
0.911219
0.913724
0.919676
0.924096
0.926208
0.927613
0.928863
0.929515
0.927446
0.925724
0.92611
0.927225
0.928653
0.932179
0.939263
0.943667
0.945772
0.947221
0.948515
0.947952
0.944475
0.943112
0.9437
0.94504
0.946778
0.951758
0.960151
0.964938
0.96734
0.969039
0.970314
0.96777
0.962945
0.961642
0.962494
0.964198
0.96647
0.972956
0.982678
0.987971
0.99075
0.993126
0.994849
0.99159
0.985286
0.983244
0.98428
0.986475
0.989637
0.997215
1.0069
1.0131
1.01684
1.01979
1.02152
1.01919
1.01341
1.01076
1.01183
1.01507
1.02148
1.02973
1.03555
1.0398
1.04251
1.04275
1.03813
1.17122
1.61074
0.876436
0.878286
0.878898
0.87835
0.877817
0.878353
0.879297
0.880472
0.883573
0.888753
0.891759
0.893329
0.894521
0.895579
0.89614
0.894887
0.894155
0.894747
0.895788
0.897134
0.900912
0.906418
0.909381
0.910963
0.912208
0.913331
0.913513
0.911519
0.910771
0.911477
0.912613
0.914171
0.918928
0.92484
0.927767
0.929345
0.930637
0.931746
0.93083
0.928152
0.92768
0.928511
0.929779
0.931651
0.937555
0.944205
0.947307
0.94902
0.95043
0.951345
0.948724
0.945356
0.945011
0.94604
0.947573
0.949959
0.957203
0.964977
0.968507
0.970447
0.972015
0.972858
0.969022
0.964648
0.963878
0.964694
0.966441
0.969325
0.97775
0.987297
0.991942
0.994332
0.996233
0.997221
0.993244
0.987675
0.986246
0.987241
0.989406
0.993003
1.00133
1.01037
1.01601
1.01962
1.02249
1.02367
1.02087
1.01514
1.01257
1.01362
1.01682
1.02372
1.03177
1.03718
1.04082
1.04237
1.04209
1.17289
1.61234
0.878099
0.880035
0.880839
0.88073
0.879765
0.879982
0.880812
0.881876
0.883942
0.889037
0.89303
0.894934
0.896201
0.897297
0.898189
0.897488
0.896117
0.89635
0.897282
0.89844
0.900798
0.906461
0.91061
0.912568
0.913876
0.91504
0.91584
0.914372
0.912702
0.912952
0.913936
0.915194
0.917994
0.924521
0.928994
0.931063
0.932411
0.933639
0.934041
0.931373
0.929496
0.929805
0.930856
0.932253
0.935505
0.943112
0.948416
0.950864
0.952425
0.95376
0.953367
0.9492
0.946971
0.947267
0.948435
0.95004
0.953653
0.962495
0.969038
0.971981
0.973991
0.975678
0.975356
0.969757
0.965988
0.965987
0.96734
0.969229
0.972642
0.981982
0.990615
0.994444
0.996951
0.9994
1.0004
0.995545
0.989924
0.988732
0.989992
0.992342
0.996353
1.005
1.01332
1.01849
1.02197
1.02465
1.02564
1.02235
1.01644
1.0139
1.01482
1.01775
1.02487
1.03275
1.03801
1.04063
1.0442
1.17829
1.61446
0.879695
0.881761
0.882645
0.883051
0.881893
0.881617
0.882309
0.883325
0.884741
0.888908
0.893911
0.896413
0.897828
0.898985
0.900038
0.900153
0.898461
0.898046
0.898756
0.899807
0.901258
0.905777
0.911345
0.914065
0.915543
0.916754
0.917837
0.917453
0.915092
0.914515
0.915261
0.916402
0.917971
0.923052
0.929488
0.932554
0.934158
0.93545
0.936573
0.935324
0.932019
0.93127
0.93206
0.933308
0.934941
0.940261
0.948129
0.952054
0.954006
0.955468
0.956712
0.954834
0.950265
0.948781
0.949329
0.950659
0.952523
0.958001
0.967551
0.972933
0.975251
0.976794
0.978307
0.977283
0.971631
0.968619
0.968587
0.969598
0.971455
0.975686
0.986046
0.994464
0.998224
1.00045
1.00237
1.00251
0.99753
0.992485
0.991395
0.992523
0.994797
0.999435
1.00858
1.01629
1.02098
1.02416
1.02655
1.0273
1.02372
1.0175
1.01471
1.01533
1.01788
1.02518
1.03319
1.03797
1.04432
1.18589
1.61705
0.881267
0.883472
0.884373
0.885142
0.88427
0.883405
0.883861
0.884788
0.885908
0.888648
0.894225
0.897764
0.899469
0.9007
0.901808
0.902553
0.901214
0.899872
0.9002
0.90114
0.902319
0.905044
0.911234
0.915348
0.917242
0.918491
0.919625
0.920235
0.918168
0.916369
0.916641
0.917632
0.918877
0.921523
0.928474
0.933656
0.935958
0.937325
0.938564
0.938985
0.935882
0.933358
0.933398
0.934285
0.935599
0.93799
0.945409
0.952434
0.955543
0.957446
0.958957
0.959614
0.955642
0.951371
0.950808
0.951791
0.953217
0.95527
0.96217
0.971392
0.975804
0.978228
0.980277
0.981796
0.97931
0.972929
0.970256
0.970799
0.97233
0.974358
0.978979
0.989392
0.996994
1.00037
1.00271
1.00501
1.00531
0.999875
0.994569
0.993488
0.994814
0.997321
1.0026
1.01174
1.01883
1.02321
1.02623
1.0284
1.029
1.02489
1.01822
1.01492
1.01511
1.01729
1.02526
1.03301
1.0421
1.19434
1.61971
0.882734
0.885165
0.886102
0.887068
0.88685
0.885473
0.88546
0.886225
0.887253
0.888888
0.893853
0.898789
0.901086
0.902409
0.903539
0.904551
0.904147
0.902073
0.901756
0.902547
0.903638
0.905138
0.910046
0.915965
0.918727
0.920179
0.921367
0.922449
0.921752
0.918912
0.918204
0.918922
0.920021
0.921415
0.926018
0.933451
0.937231
0.939075
0.940362
0.941565
0.940673
0.936594
0.934908
0.935385
0.936511
0.937974
0.941795
0.950486
0.956246
0.958628
0.960167
0.961607
0.961754
0.957083
0.953509
0.953156
0.953869
0.955312
0.958027
0.966522
0.975508
0.979478
0.981401
0.982816
0.984077
0.981389
0.97546
0.973221
0.973477
0.974539
0.976486
0.981926
0.992719
1.0001
1.00354
1.00577
1.00746
1.00712
1.00191
0.996912
0.995766
0.99683
0.999225
1.0052
1.01466
1.0215
1.0255
1.02807
1.02988
1.03026
1.02594
1.01869
1.01457
1.0141
1.01657
1.02503
1.037
1.20207
1.62176
0.884058
0.88688
0.887871
0.888894
0.889312
0.887855
0.887114
0.88768
0.888666
0.889864
0.893126
0.899082
0.902469
0.904079
0.905243
0.906318
0.906832
0.904927
0.903576
0.903993
0.904958
0.906102
0.908688
0.915274
0.919873
0.921904
0.923149
0.924312
0.924934
0.92248
0.92017
0.920228
0.921125
0.92232
0.924383
0.931059
0.937714
0.940636
0.942304
0.943549
0.944372
0.941529
0.937546
0.936881
0.937708
0.938924
0.940473
0.945729
0.954699
0.959437
0.961726
0.963474
0.964945
0.963782
0.957959
0.954867
0.955153
0.956462
0.957957
0.960838
0.969877
0.978087
0.981582
0.983947
0.986037
0.987223
0.983539
0.977164
0.974846
0.975517
0.977133
0.979344
0.985064
0.995427
1.00222
1.00542
1.00762
1.00962
1.00957
1.00406
0.998665
0.997339
0.998494
1.00108
1.0076
1.01706
1.02353
1.02716
1.02949
1.03115
1.0313
1.02692
1.01895
1.01357
1.01266
1.01549
1.02917
1.20705
1.62285
0.885113
0.888576
0.8896
0.890629
0.891435
0.890606
0.889081
0.88925
0.89012
0.891175
0.89289
0.898231
0.903336
0.905624
0.906916
0.908043
0.909029
0.908264
0.905872
0.90549
0.906223
0.907283
0.908633
0.913247
0.920043
0.923298
0.924896
0.926066
0.927162
0.926525
0.923038
0.921748
0.922362
0.923478
0.924732
0.927955
0.935926
0.941348
0.943627
0.945116
0.946391
0.946639
0.94263
0.939277
0.93902
0.939765
0.941011
0.943055
0.950033
0.958761
0.96277
0.96461
0.965922
0.967269
0.965681
0.960041
0.957536
0.957546
0.958324
0.959848
0.963494
0.973524
0.981699
0.985041
0.98681
0.988264
0.989325
0.985875
0.979888
0.977767
0.978066
0.979194
0.981318
0.987871
0.998407
1.00485
1.00791
1.00997
1.01159
1.0114
1.00624
1.00079
0.999163
0.999956
1.00223
1.00907
1.01883
1.02522
1.02855
1.03061
1.03212
1.03214
1.02781
1.01899
1.01227
1.0099
1.01873
1.2068
1.62287
0.885663
0.890105
0.891262
0.892349
0.893321
0.893448
0.891598
0.890941
0.891523
0.892475
0.893618
0.896838
0.903242
0.906907
0.908607
0.90975
0.910805
0.911257
0.908963
0.907224
0.90754
0.908515
0.909658
0.911722
0.918225
0.924018
0.926457
0.927791
0.928941
0.929736
0.927355
0.924135
0.923797
0.924608
0.9257
0.92711
0.931899
0.940196
0.944599
0.946708
0.948234
0.949499
0.94859
0.943404
0.940683
0.941026
0.942206
0.943472
0.945723
0.95371
0.961812
0.965261
0.967378
0.969156
0.970386
0.967469
0.96123
0.958875
0.959494
0.960882
0.962476
0.966165
0.976114
0.983583
0.98674
0.989067
0.991108
0.992085
0.988115
0.981717
0.979287
0.979857
0.981524
0.984013
0.990808
1.0007
1.00659
1.00961
1.01186
1.01382
1.01376
1.00804
1.00192
0.999978
1.00078
1.00308
1.01017
1.0202
1.02648
1.02953
1.03147
1.03289
1.03271
1.02829
1.0185
1.00985
1.00901
1.20109
1.6218
0.885532
0.891286
0.892906
0.894072
0.895091
0.89587
0.894646
0.892839
0.892927
0.893771
0.894826
0.896427
0.901702
0.907475
0.910011
0.911334
0.912434
0.91344
0.912676
0.909765
0.90908
0.909785
0.910827
0.911972
0.915348
0.922918
0.927475
0.929472
0.930682
0.931814
0.93182
0.928091
0.925582
0.925691
0.926637
0.927806
0.929655
0.93613
0.944038
0.947596
0.94934
0.950662
0.951876
0.950297
0.94516
0.943107
0.943302
0.944113
0.94548
0.948544
0.957599
0.965362
0.968507
0.970093
0.971307
0.972445
0.969585
0.96382
0.96178
0.961875
0.962632
0.964211
0.968616
0.9793
0.986903
0.989916
0.991588
0.993025
0.993993
0.990506
0.984378
0.981995
0.982216
0.983441
0.985784
0.993305
1.0035
1.00923
1.01192
1.01378
1.01544
1.01532
1.0097
1.00334
1.00113
1.00166
1.00388
1.01108
1.02124
1.02734
1.03013
1.03201
1.03324
1.0329
1.02806
1.01564
1.00579
1.19048
1.62051
0.884859
0.891903
0.89443
0.895754
0.896761
0.897705
0.897704
0.895443
0.894555
0.895125
0.896092
0.897175
0.89983
0.906505
0.910995
0.912951
0.91411
0.915188
0.915833
0.913487
0.911069
0.911057
0.911867
0.912957
0.914443
0.919618
0.927157
0.930716
0.932453
0.933573
0.93464
0.933306
0.92886
0.927238
0.927798
0.928883
0.930056
0.9323
0.939971
0.94727
0.950338
0.952163
0.953688
0.954722
0.951724
0.946184
0.944526
0.945312
0.946604
0.947931
0.951179
0.960521
0.967564
0.970471
0.972596
0.974376
0.975339
0.97166
0.965367
0.96308
0.963697
0.965124
0.966845
0.971216
0.981442
0.988357
0.991303
0.993535
0.995504
0.996487
0.992897
0.986465
0.983577
0.983807
0.985371
0.988035
0.995696
1.0053
1.01054
1.01326
1.0155
1.01749
1.01757
1.0116
1.00478
1.00221
1.00255
1.00454
1.01156
1.02165
1.02753
1.03021
1.03222
1.03326
1.03282
1.02526
1.01126
1.17945
1.61983
0.884356
0.891183
0.895336
0.897161
0.898296
0.899329
0.900163
0.898886
0.896656
0.896524
0.897256
0.898253
0.899558
0.904016
0.910907
0.914197
0.915742
0.91682
0.917863
0.917507
0.91408
0.912557
0.913067
0.914135
0.915267
0.917177
0.923868
0.930728
0.933585
0.935206
0.936372
0.937209
0.934626
0.930369
0.92936
0.929882
0.930851
0.932136
0.93529
0.943892
0.950487
0.953155
0.954617
0.955803
0.956767
0.953551
0.948517
0.9472
0.947478
0.948313
0.949788
0.953874
0.963881
0.970889
0.973608
0.975036
0.976268
0.977348
0.974156
0.968225
0.966079
0.966147
0.966854
0.968416
0.973301
0.98413
0.991321
0.994171
0.995808
0.997342
0.998551
0.995652
0.98912
0.985899
0.9857
0.986777
0.989184
0.997309
1.00758
1.01324
1.01589
1.01779
1.01946
1.01941
1.01362
1.00617
1.00301
1.00314
1.0049
1.01155
1.02144
1.02722
1.0301
1.03217
1.03324
1.03099
1.02243
1.17314
1.62015
0.884681
0.889258
0.895483
0.898446
0.89989
0.900941
0.901912
0.902121
0.899589
0.898084
0.898493
0.899452
0.900525
0.902402
0.908587
0.914594
0.917087
0.918407
0.919489
0.920401
0.91858
0.915147
0.91456
0.915261
0.916227
0.917345
0.920072
0.927952
0.933965
0.936476
0.938058
0.939274
0.939692
0.935709
0.931533
0.931048
0.932048
0.933231
0.934471
0.938069
0.947097
0.953042
0.955509
0.957305
0.958848
0.95943
0.955099
0.949734
0.948534
0.949446
0.950781
0.952227
0.956302
0.966097
0.972503
0.97522
0.977365
0.979133
0.98007
0.976525
0.970112
0.967374
0.967724
0.969081
0.970889
0.975738
0.985918
0.992534
0.995538
0.997868
0.999805
1.00092
0.997895
0.991017
0.987171
0.98691
0.988333
0.991015
0.998946
1.00894
1.0145
1.01736
1.01947
1.02111
1.02103
1.01537
1.00738
1.00366
1.0035
1.00503
1.01111
1.02074
1.02673
1.02992
1.03232
1.03252
1.0309
1.17379
1.62168
0.885713
0.888044
0.894064
0.89918
0.901277
0.902402
0.903398
0.904328
0.90337
0.900536
0.899997
0.900684
0.901653
0.902696
0.905508
0.912912
0.917929
0.920002
0.921205
0.922273
0.922627
0.919352
0.916406
0.916278
0.917155
0.918266
0.919532
0.923376
0.931748
0.936853
0.938955
0.94038
0.941588
0.94169
0.937356
0.933857
0.933528
0.934083
0.935078
0.936529
0.941176
0.950548
0.956118
0.958354
0.959598
0.960773
0.961458
0.957342
0.952434
0.951316
0.951571
0.95236
0.953875
0.958624
0.969028
0.97566
0.978194
0.979567
0.980818
0.981976
0.979238
0.973006
0.970221
0.970121
0.970773
0.972283
0.97743
0.988358
0.995452
0.998279
0.999833
1.00132
1.00283
1.00057
0.993529
0.989302
0.988644
0.989466
0.991555
0.999372
1.00997
1.01602
1.01894
1.02088
1.02243
1.02252
1.01701
1.0085
1.00415
1.00365
1.00486
1.01035
1.01985
1.0262
1.03013
1.03142
1.0358
1.1795
1.62399
0.886969
0.888447
0.891648
0.898353
0.902186
0.903898
0.904983
0.906021
0.906639
0.904276
0.901908
0.901886
0.902629
0.903638
0.904954
0.90926
0.917011
0.92107
0.922853
0.923883
0.924936
0.924382
0.920132
0.917995
0.918347
0.919344
0.920407
0.921698
0.926461
0.934989
0.939482
0.941516
0.943059
0.944382
0.943867
0.938571
0.9351
0.935132
0.93626
0.93746
0.938818
0.943744
0.953055
0.958079
0.960328
0.962176
0.963704
0.96401
0.959311
0.953901
0.952532
0.953365
0.95472
0.956268
0.960825
0.97073
0.976863
0.979531
0.981681
0.983436
0.9845
0.981704
0.97513
0.971545
0.971445
0.972728
0.974608
0.979738
0.989852
0.996364
0.999454
1.00186
1.00374
1.00501
1.00253
0.995136
0.990228
0.989354
0.990532
0.992892
1.00028
1.0108
1.01723
1.02036
1.02224
1.0235
1.02369
1.01863
1.00969
1.00462
1.00368
1.00441
1.00937
1.01878
1.0259
1.02905
1.03735
1.18864
1.6267
0.888259
0.889416
0.890659
0.895546
0.902248
0.905219
0.906619
0.907643
0.908639
0.908278
0.904839
0.903343
0.903835
0.904829
0.905863
0.907371
0.912931
0.920407
0.923799
0.925526
0.926681
0.927643
0.925876
0.921449
0.919977
0.920353
0.921174
0.922282
0.923928
0.929825
0.938145
0.942139
0.943914
0.945145
0.946314
0.94569
0.940676
0.937741
0.937618
0.938114
0.939114
0.940731
0.946546
0.956071
0.961089
0.963074
0.964211
0.965453
0.96619
0.962047
0.956769
0.955347
0.955519
0.956188
0.957676
0.962674
0.973203
0.979812
0.982346
0.983694
0.98493
0.986335
0.984513
0.977977
0.974238
0.973807
0.974412
0.975825
0.980851
0.991759
0.999126
1.00209
1.00362
1.00502
1.00657
1.00501
0.997735
0.992459
0.991282
0.991863
0.993571
1.00019
1.01103
1.01802
1.02139
1.02323
1.02431
1.0246
1.02028
1.01115
1.00507
1.00338
1.00357
1.0079
1.01776
1.02437
1.03628
1.19887
1.62941
0.889442
0.890404
0.891353
0.893444
0.9
0.905718
0.908016
0.909182
0.910187
0.911069
0.909314
0.905932
0.905356
0.905965
0.906792
0.907772
0.909697
0.91658
0.923693
0.926692
0.9283
0.929416
0.930154
0.927221
0.922553
0.921451
0.92226
0.923429
0.92449
0.926146
0.932713
0.940816
0.944412
0.946267
0.947837
0.949122
0.947869
0.942148
0.938952
0.939074
0.9402
0.941418
0.942929
0.948693
0.957937
0.962572
0.9648
0.966704
0.96822
0.968696
0.964382
0.958499
0.956456
0.957026
0.958334
0.959993
0.964686
0.974555
0.98074
0.983532
0.985704
0.987464
0.988698
0.986851
0.980207
0.975662
0.974968
0.976076
0.97787
0.982642
0.992669
0.999584
1.00288
1.00547
1.00748
1.00887
1.00719
0.999744
0.993744
0.992019
0.992663
0.994367
1.00021
1.01095
1.01851
1.02216
1.02401
1.02501
1.02535
1.0217
1.01256
1.00524
1.00242
1.00204
1.00669
1.01605
1.03145
1.20833
1.63142
0.89095
0.891513
0.892426
0.893517
0.896612
0.90404
0.908812
0.910798
0.911922
0.912951
0.913321
0.910046
0.907032
0.906844
0.907672
0.908735
0.909884
0.912544
0.920176
0.926497
0.929085
0.930647
0.93182
0.932315
0.928857
0.924694
0.923906
0.924338
0.925139
0.926316
0.928513
0.935909
0.943747
0.947146
0.948734
0.949767
0.950915
0.950017
0.944686
0.941723
0.941529
0.941922
0.942908
0.944631
0.951045
0.960697
0.965543
0.96746
0.968544
0.969752
0.970757
0.967328
0.961387
0.959232
0.959256
0.959866
0.961275
0.966096
0.976637
0.983581
0.986254
0.987627
0.988835
0.990338
0.989486
0.983126
0.978259
0.977197
0.977501
0.978704
0.982921
0.993695
1.00216
1.00575
1.00749
1.00881
1.01025
1.00952
1.00263
0.995933
0.993542
0.993622
0.994827
0.999752
1.0107
1.01911
1.02297
1.02453
1.0253
1.02565
1.02288
1.01419
1.00537
1.00095
1.00038
1.00484
1.02322
1.21471
1.63246
0.892983
0.89272
0.893424
0.894371
0.895688
0.900095
0.907903
0.911938
0.913657
0.91462
0.915569
0.91489
0.910566
0.908476
0.908872
0.909866
0.910913
0.911997
0.915004
0.923201
0.929135
0.931564
0.933107
0.934389
0.934725
0.930472
0.925968
0.925298
0.926247
0.927466
0.928591
0.930701
0.938352
0.94588
0.948992
0.950843
0.952431
0.953671
0.952313
0.946454
0.942897
0.942798
0.943879
0.945205
0.946846
0.952912
0.962085
0.966673
0.968917
0.970849
0.972364
0.973165
0.969822
0.963404
0.96042
0.960597
0.961858
0.963561
0.968029
0.977713
0.984233
0.98721
0.989512
0.991327
0.992703
0.9918
0.985403
0.979649
0.978045
0.97884
0.980479
0.984375
0.994192
1.0024
1.00626
1.00885
1.01099
1.01245
1.01175
1.00479
0.997292
0.994236
0.994211
0.995325
0.999683
1.01036
1.0191
1.02301
1.02451
1.02543
1.02598
1.02395
1.01576
1.00539
0.999347
0.997065
1.01199
1.21537
1.63222
0.895639
0.894013
0.89458
0.895588
0.896579
0.898167
0.903715
0.911208
0.914618
0.916263
0.917285
0.918112
0.916168
0.911801
0.910488
0.910869
0.911603
0.912663
0.914007
0.917855
0.926258
0.93162
0.933785
0.935129
0.936216
0.936461
0.932494
0.928549
0.927933
0.928351
0.929134
0.930336
0.932919
0.941111
0.94864
0.951745
0.953183
0.954098
0.955332
0.954693
0.949279
0.945784
0.945383
0.94572
0.946611
0.948293
0.954693
0.964495
0.969533
0.971499
0.972593
0.97376
0.975011
0.97275
0.966405
0.963257
0.963001
0.963502
0.964753
0.96889
0.979206
0.98688
0.989973
0.991481
0.99264
0.994182
0.99427
0.988548
0.982391
0.980397
0.980356
0.981249
0.984161
0.994036
1.00416
1.00899
1.01098
1.01223
1.01339
1.0133
1.00741
0.999535
0.995618
0.995013
0.995679
0.998976
1.00958
1.0192
1.0233
1.02461
1.02547
1.026
1.02473
1.01709
1.00524
0.996576
1.00036
1.20922
1.63034
0.899327
0.896224
0.896041
0.896814
0.897727
0.898678
0.900478
0.906919
0.914133
0.917254
0.918858
0.919872
0.920488
0.917548
0.913024
0.911963
0.912731
0.913856
0.914918
0.916113
0.920259
0.928808
0.933794
0.935876
0.937409
0.938775
0.938949
0.934382
0.929939
0.929252
0.930186
0.931407
0.932549
0.934901
0.942972
0.950214
0.953172
0.955055
0.956673
0.957954
0.95713
0.951541
0.947184
0.946507
0.947451
0.94878
0.950491
0.956284
0.965506
0.970354
0.972725
0.974721
0.976287
0.977381
0.975281
0.968769
0.964625
0.964171
0.965268
0.966874
0.970598
0.979924
0.987237
0.99068
0.993206
0.995191
0.996641
0.996633
0.990995
0.983962
0.981114
0.981347
0.98274
0.98546
0.994074
1.00406
1.00903
1.0115
1.01355
1.01512
1.01538
1.00991
1.00118
0.99622
0.995114
0.995798
0.998972
1.00917
1.01872
1.02271
1.02416
1.02539
1.02612
1.02518
1.01769
1.00265
0.995431
1.19681
1.62814
0.903079
0.900091
0.89774
0.897879
0.898648
0.8996
0.900638
0.902798
0.909805
0.916637
0.919575
0.921211
0.922381
0.922786
0.919263
0.915206
0.914513
0.914963
0.915621
0.91663
0.918092
0.922899
0.931458
0.936226
0.938225
0.93943
0.940479
0.940863
0.936884
0.932725
0.931941
0.932237
0.932879
0.934056
0.936763
0.945256
0.952804
0.955881
0.957293
0.95825
0.959569
0.959624
0.954655
0.950148
0.949215
0.949443
0.950152
0.951656
0.957442
0.967442
0.973125
0.975323
0.976516
0.977673
0.9791
0.978131
0.971932
0.96748
0.966607
0.966831
0.967833
0.970937
0.980641
0.989675
0.993605
0.995342
0.996434
0.997853
0.998713
0.994249
0.986954
0.983623
0.983047
0.983523
0.985237
0.993049
1.00469
1.01128
1.01373
1.01505
1.01617
1.01646
1.01228
1.00358
0.997573
0.995865
0.996114
0.998263
1.00787
1.01793
1.02221
1.02387
1.02542
1.02608
1.02518
1.01486
1.0006
1.18332
1.62688
0.905552
0.905333
0.901071
0.899502
0.899875
0.900699
0.901561
0.902486
0.904733
0.912331
0.919226
0.922105
0.923668
0.924836
0.925121
0.921251
0.916775
0.915855
0.91665
0.917766
0.918787
0.920035
0.924933
0.933581
0.938113
0.94012
0.941765
0.943166
0.943416
0.939028
0.934149
0.933033
0.933822
0.934997
0.93619
0.938558
0.946665
0.953963
0.95705
0.959072
0.960774
0.962129
0.962119
0.957269
0.951863
0.950242
0.950887
0.952138
0.953797
0.958845
0.968164
0.973713
0.976371
0.978546
0.980224
0.981497
0.980581
0.974343
0.96886
0.967457
0.968272
0.969735
0.972621
0.981184
0.989761
0.993898
0.99654
0.998759
1.00032
1.00099
0.996819
0.988877
0.984378
0.98369
0.984769
0.98663
0.993137
1.00433
1.01117
1.01395
1.01569
1.0173
1.01811
1.01442
1.00498
0.9978
0.995479
0.995797
0.998057
1.00702
1.01685
1.02134
1.02352
1.02525
1.02619
1.02277
1.01388
1.17512
1.62686
0.907424
0.909034
0.906724
0.902553
0.901353
0.901556
0.902158
0.903144
0.904381