/*--------------------------------*- C++ -*----------------------------------*\
  =========                 |
  \\      /  F ield         | OpenFOAM: The Open Source CFD Toolbox
   \\    /   O peration     | Website:  https://openfoam.org
    \\  /    A nd           | Version:  12
     \\/     M anipulation  |
\*---------------------------------------------------------------------------*/
FoamFile
{
    format      ascii;
    class       volScalarField;
    location    "8.39";
    object      p;
}
// * * * * * * * * * * * * * * * * * * * * * * * * * * * * * * * * * * * * * //

dimensions      [1 -1 -2 0 0 0 0];

internalField   nonuniform List<scalar> 
22702
(
1
1
0.869204
1
1.05528
1
1.4736
1
1
0.71142
1.4719
1.46756
1
1.47215
0.883231
1
1
1
1.47146
1
1.47195
1
1.47214
0.650071
1.4687
0.624855
1
1.47302
0.681834
0.664632
1
1.46631
1
1
1
1.43638
1.4701
1.47177
1
1
0.670147
1
1.24208
1
1.47195
1
1
1
1
0.658419
1
0.657693
1
1.47176
1
1.46648
1
1
1
1
0.632463
1
1
0.665535
1
0.644516
1
1
1
0.700612
1
1.47144
1.27784
1
1.47053
1.49575
0.649142
1.47079
0.655422
1
1.47284
0.663137
1.4708
1.47245
1
1
1
1
0.932753
0.702943
1.47197
1
1
0.70178
1
1.47223
0.689961
1
1
1
1
1.22922
1.47262
0.66949
1
1
1.10902
1
0.659502
1
1.46978
1.4715
1
1
0.649862
0.65613
0.705054
1
1
1
1
1
0.915207
1
1.40042
1.04205
1.47024
1
1.4695
1.47152
1.47134
1.47172
1
0.651802
1
0.637
1
1
1
1
1.47177
1
1
1
1
1.47104
1
1.02453
1
1
1
1
0.656284
1
1.00972
1
0.656961
1
1
1
1.47085
1
1.47246
0.631366
0.633751
1.47139
1.47249
1
1.07052
1.26794
1
1.47269
0.655383
1.43706
1
1
1
1
1.472
1.36622
1
1.47143
0.642576
1.47026
1
0.667387
1
0.66147
0.626134
0.999799
1
1
1.47135
1
1
1.47014
1
1.46985
1.47158
0.655907
1
1
0.661195
1.47138
1
1
1
1.47125
1
0.67128
1
1
1.47204
1.47222
1.46971
1
1.00004
1
1
1
1.4717
1
0.63822
1.48821
1.47009
1.47185
1
1
1
0.649273
1.47404
1.22743
1
1.47294
0.652573
0.661518
1.47335
1.47018
1
1.47305
0.655486
1.41529
1
1
1
1
1.47199
1
1.2709
1.03975
1
1
1.4703
0.64182
0.755381
1
1.46766
0.666682
1.47533
1
1
1
1
1
1
1
0.655867
0.752203
0.661356
1.4711
1
1
1
1
1.41759
1
0.656346
1
0.639626
0.660144
1.4699
0.643475
1.47222
1
1
1
0.997605
0.664078
0.658643
1
1
0.640929
1
1.47154
0.688935
1
1
1.47242
0.652703
1
1.47446
0.627974
1.47217
1
0.6435
0.997643
1
1
1
0.65262
1
1
0.999999
1.00001
1.01307
1.27158
1
0.668281
1
1
1
1
1
1
1
1.4719
1
1.4708
1
1
1
0.665012
1
1.47125
0.642864
1
1.36603
1
1
1.4702
1
1
1
1.4618
1
1
1.46962
1.47175
1
1.09342
1
1
0.635453
1
1
1
0.697929
1
1
1
1
0.667771
1
1
1
1
1
0.715663
1.00005
1.47245
1
1
1.47215
1.4718
1
1
0.666718
0.825483
1.47277
1
1
1
1.47274
0.696976
1
1.47229
1
1
0.714163
0.707213
1
0.659801
0.661593
1
1
1
1
1
1
1
1.47203
1.12191
1.45434
0.712482
0.905213
1.47167
1
1.4704
1.47177
0.660623
0.784553
1
0.672292
1
1.48124
1
1
1
1
1.47125
1
1
1
1
1
1
1
1.16761
1.47085
1
1.47221
1
1
0.663809
1
1
1
1
1.4714
1.35442
1
1
0.652194
1.47007
1.47186
1
1.47202
1.47001
1.47225
1
0.84159
1
1.47193
1.00099
1.47248
1
0.666335
0.998825
1.47317
1
1
1
1
0.657357
1.47304
1.42603
1
1.4695
1.47284
1.47269
1
1.22049
1.47011
1
1
1.32264
1.06291
1.47182
0.939677
1.47175
1
1.47219
1.47216
1.472
1.47008
1
1.46223
0.907928
0.87905
1
0.999999
1
1
1.4658
1
1
1
1
1
1.47346
1
1
0.996365
1.47172
1.41426
1
1.37906
1.00004
1
1
1.47183
1
0.997477
1.00486
1
1.47267
1
1.47353
1
1
1.34258
1
1.4729
1.00002
1
1.46643
1
1.47138
1
1
1
1.47132
1
1.47752
1.00001
1.47143
1.47102
1.47043
1.47291
1
1.47205
1.46298
1
0.669248
1.44144
1.33242
1
1.47059
1
0.630699
0.623682
1
1
1
1
1
0.680797
1
1.47167
1.11952
1.47177
1
1
1
1
1
1.47151
1
1.46968
1.27493
0.793184
1
1.00001
1.13597
1.11524
1
1
1.18032
1
0.661704
1.47057
1.4715
1
1
1
1.47138
1
1.00003
1.47397
1.47247
0.945395
1
1
0.660433
1.42825
1
1
1
1
1
1.47166
1.47163
1
1.46687
1.477
1.47039
1
1
1
1
0.665167
1.47095
1
1
1.42834
1.46884
1
1.44308
1.46984
1
1
1
1
1
1.47256
1
1
1
1
1.47029
1
1.47215
0.678212
1
0.646749
1
1
1
0.996859
0.65899
0.998962
1
1
1
1.06511
1
1
0.865662
1
1
1
1
1
1
1
0.999997
0.928437
0.999999
1
0.997705
1
0.65651
1
1
1
1
1.34591
1
1
1
1
0.646004
1
1
1.44297
1.47059
1
1
1
0.880564
1
1
1
1
1
1
0.945588
1.0127
1.47222
1
1
1
1.46998
0.902072
1
1
1
1.47292
1.46988
1
1.00001
1
1
1
1
1
1
1
0.667458
1
1
1.47213
0.670912
1
1.47066
1
0.65482
1
1
0.665582
1
1
1
1
1
1
1
1.46298
1.47066
1
1
1
1
1.42914
1
1.13798
0.667234
1
1
1
1
1
1
1
1.02988
1
1
1.23529
1
1
1
1.38054
1
1
1
1
0.675961
1
1
0.651025
0.674207
1
1
1.47267
1
1.00812
1
1
1
1.32343
0.64681
1
0.643431
1
0.77446
1
1
1
1.47122
1
1
1.47141
1
1
1
1.47089
1
1
1.47097
1
1
0.659657
1
1.13871
1
1
1.47186
1.47156
1.31296
1.4182
1
0.669667
1
1
1.44896
1
0.651919
1
1
1
1.47225
1
1
1
1
1.27815
1
1.43881
1.47612
0.718208
1
1
0.638173
0.616707
1
1
1
1.32919
1.34863
1
1
1
1
1
1
1
1.1992
1.47256
1.00738
1
1.46514
0.653228
1
1
1
1.24996
1
1.09258
1
1.4295
1.46882
1
0.664331
1
1.4678
1
1
1.47348
1.44191
1
1.47549
1
0.677256
1
1
1
1.46688
1.46289
1.41178
1
1.4746
1.47175
1
1.47207
1
1.46895
1
0.665024
0.974461
0.662423
1
1
1
1
1
1.4695
1
1.47001
1
1
1
1.44674
1
0.650864
1.47147
1
0.676377
0.662597
0.651745
1
1.22659
1.03301
1.47198
1.47189
1
0.999999
1
1
1.47125
1
1
1.47147
1.47147
1
1.17227
1.00012
1
0.996516
1.47002
0.856944
1
0.833395
0.65853
0.663561
0.962195
1.47302
1.46446
1.09218
1.47313
1.47101
1
1
1.47134
1.47159
1.47297
1.47316
1
1.47095
0.668885
1.47045
1.47311
1.4693
1.47028
0.865689
0.889251
0.924159
1.47146
0.955834
1.47255
1
1
1.47261
1.47069
1
0.669904
1.47165
1.47095
1
1.47061
1.47218
1
1.47102
0.664515
1.47124
1.47259
1.47153
1.47349
1
1
1
1.47081
1.3009
0.668081
1.47156
0.657855
1.47124
1
1
1
1
1.47381
1.47263
1
1
1.4727
0.658905
1.47101
0.654905
1
1.46849
1
0.70339
1.47261
0.739617
1
1.47165
1.47369
1.46944
1
1
1.23146
1.47313
0.655148
1.47109
1
1.47064
0.880463
1.47032
0.663509
1
1.47335
0.681538
1.47275
0.657207
1
1.47176
1
1.47022
1
1.28211
1.45317
1.36763
0.609583
1
1.47221
1
1.47133
1
1.4717
1
1
1.47244
0.987701
1.47493
0.710956
1.40266
1
1.32084
1
1.47316
1.47141
1.47116
1
1.42195
1.47109
1.433
1.28676
1.47119
1
1.31001
1
1.47309
1
1.05717
1
1.43544
1
1.47133
1.44808
1.44795
1
1.46418
0.616426
1
0.675729
1
1
1
1.47099
1
1.47221
1
1
1
1.47305
1.45948
1.39384
1.47348
1.46946
0.646825
1.47874
1.47169
1
1.4048
1.47115
1.453
1
1.47075
1.46639
1
1.47531
1.47073
1.47135
1.4725
1
1
1
1.47056
0.655261
1
1.47208
1
1
0.62723
1
1
1.47113
1.47235
1
1.47155
1.48095
1.47047
0.97615
1.4722
1
1.47198
1.47231
1.38632
1
1
1
1.47047
1.47091
1.47089
0.942423
1
1.48079
1.47097
1.47228
1
1.47065
1.47271
1.47114
1.47885
1
1.47133
1.47309
1.40773
1.47263
1.47577
1
1.47429
1.46513
1.47135
1.47325
1.47265
0.609483
1.4734
1.47274
1
1.47181
1.47058
1.47173
1.47129
1
1.47218
1.46937
1
1.47088
1.39359
1
1
1
1.47236
1.47938
1
1
1.24566
1
1.47134
1
1
1.47081
1.47275
1.47148
1.47167
1
1
1
1.32906
1
1.47247
1
1
1.47011
1.47258
1
1.47118
0.66352
1.47084
1.46969
0.72506
1
0.613139
1.40955
1.46913
1.47164
1.46391
0.663446
1.47146
1.47254
0.651481
0.650399
1
1.47091
1.46933
1
1
1.47285
1
1.47796
1
1.40991
1
1.22757
1.47003
1.47342
1.32869
1.44543
1.47091
1.47364
1.44256
1
0.648706
1.46908
1.47108
1.47761
1.00001
1
1
1.47791
1
1.47273
1.47058
0.754193
1
1.47068
0.999939
1
1.00003
1.00004
1.47068
1.47003
0.998564
1
1
1.47143
1.47352
1.47121
1.46975
1.47409
0.638784
1.41059
1
1.46919
1.47215
1.47225
1.46368
1
1.47152
1.45795
1.47368
1
1.47218
1.47063
0.855853
1.4713
1.47201
1
1.47012
0.82229
1.47075
0.865518
1.47148
1
1.47099
1.48141
1.47139
1.47208
1.47046
1.47096
1.47292
1.46914
1
0.927316
1.47141
1.47131
0.83164
1.47119
0.981217
1.28557
1.47191
1.47069
1.46784
1
1.47462
1.3095
1.46954
0.916403
1.47466
1.47185
1
0.867677
1
1.46964
1
1.31553
1
1.43387
0.880811
1
1.47816
1.46476
1
1.47595
1.47235
1.46238
1.47713
1.47774
1
1.47092
1
1
1
0.904531
1.47128
1.474
1.47696
1.47102
1.47263
1.47791
1.46945
1.47195
0.910197
1.03412
1
1
1.47805
1.47218
1.47147
1.47121
1.00003
1.23792
1
1.47547
1.42928
1
1
0.772274
1.47227
1
1
0.678239
1.47008
1
1.47213
1.46944
1.4716
1.45318
1.47097
1
0.617592
1.11096
1.4716
1.47078
1
1.47037
1.47143
1.24086
1.01079
1.10551
1
1.47047
1.47178
1
1
0.645098
1
1
1.47122
1.47203
1.46806
1.4714
1.47119
1.4723
1.47404
1.47084
1.47234
1
0.995997
1.472
1.47095
0.996928
1.47151
1.4722
0.624692
0.718405
1.4689
1.46811
1
1
1.00175
1.47235
1.46728
1.47025
1
1.47104
1
0.860252
1.4787
1.46145
1
1.21127
1.46989
1
1.47146
1
1.47141
1.30009
1.47435
1
1.47324
1.46739
0.639593
1.47252
1
1.47091
1.4725
1
0.629328
1.46669
1.38023
0.997706
1.4645
1.47149
1
0.997035
1.47695
0.998436
1.47142
1
1
1.47305
1
1.47078
1.47143
0.996284
1.3713
1
1.47173
1
1
1
1
1.47215
1
1
1.47508
1
1.4707
1
1.29467
1.47151
1.47368
1
1
0.995829
1
1.47032
1.47106
1.4721
1.46913
1.47145
1.47081
1.4717
1
1.4713
1.47106
1
1.46981
1.47119
1
1.47303
0.929683
1.05819
1.47134
1.46973
1.47208
1
1.46853
1
1.47217
1.46925
1
1.47124
1
1
1
1
1.47219
0.619667
0.997798
1
1.47178
1.47876
1
1.47101
1
1.00512
0.660252
1.472
0.999614
1
1.46869
0.998327
1.47149
1
0.999766
1
1.46588
1.47147
1.46827
1.4738
0.661499
1.46959
1.47436
1.47201
1.11582
1
1
1.20037
1.47073
0.616007
0.660034
1
1.47161
1.47116
1.47466
1
1
1.47465
1.47291
0.999883
1
1.34265
0.668709
1
1.08238
1.47219
1.48148
0.998259
1.47201
1.48206
1
0.999069
1
1.47467
1.47004
1.19157
1
1.46026
1
1.00194
1.47355
0.657483
1.47194
1.47139
0.996962
0.999912
1.40678
1
0.999686
1
1.47349
1
1.00001
0.629447
1.47116
1.00001
1
1
1
1.47122
1.25651
1
1
0.654765
1.47118
1.26667
1
1
1
1.44608
1.46098
1.47041
1
1
1.4729
1
1.47219
1.47106
1
1
1.47096
1.47113
1.44844
1
1
1.4719
1.47255
1
1
1
1.47179
1
1
1
1.47198
1.47891
1.47521
1
1.47258
1.00003
0.74191
1.47197
1.47011
1
1.47454
1.45188
1.47206
1
1
1.47375
1
1.25299
1.4697
1
0.63102
1
1.47677
1
1
1.46609
1
1
1
1.14219
1.471
0.720098
1.00001
1.4749
1
1
1.47083
1
1.47395
1
1
1.47145
1.46966
1
1.00005
1
1
1
1
1
1
1.47237
1.47253
1
1.47182
0.652627
1.48076
1
1.47088
1.4672
1.46988
1.46896
1.4752
1
1
1.47085
1
1.28205
1.47625
1.4712
1
1.47471
1.46519
1
1.43111
1
1.47128
1.29655
1.47071
0.997435
1.45312
1.43031
1.47322
1.47213
1.03563
1.47184
1.47606
1
1.47099
1
1.47214
1
1
1
1
0.996681
1.47219
1.47273
1.38903
1
1.47457
1
1
1
0.646041
1
1.46066
1
1.42608
1.45429
1
1
1
1.42785
1.47
1
1
1.46997
0.666114
1.07034
1
1.47468
1.47141
1.43486
1.46022
1.47141
1
1.46922
1
1
1
1
1.47007
1.47206
1
1.45705
1.04814
1.47076
1.43249
1
1
1.43731
1
1
0.655929
1.32763
1
1
1.47543
1
1.47637
1.42794
1
1.42629
0.665327
1.47111
1.47175
1.47376
1
0.653536
1
1
1
1.47175
1.3926
1
1.47904
1.4702
1
1.47131
1
1
1
1
1.47132
0.999315
1
1.47306
1
1
1.47215
1.47192
1
1.47144
1.09092
1.00002
1
1.47297
1
1.4737
1
1.0165
1.47154
1
1.47122
1
1
1.13948
1.47216
1
1
1
1
1
0.996448
0.660882
0.626594
1.02088
1
1.02271
1
1.02549
1
1.47173
1
1.28345
1
1.47015
1
1
1
1.47032
1
1.36993
1.47192
1
1.24581
1.47326
1
1
1.47011
1.47151
1
1
1.04914
0.609809
1
1.47233
1
1
1
1
1.07802
1.47269
1
1
1
0.685486
1
1.47125
1.47208
1.48546
1
1
1
1
1.23429
1.47696
1
1
1
1.47153
1.47131
1.05174
1
1
1
1.47046
1.47139
1
0.63289
1.47187
1.4726
1.47241
1.46594
1.47534
1
1
1.4731
1.46963
1.47248
0.677638
1.04097
1.46977
1
1
1
1
1
1.47103
0.660252
1
1
1.47206
1.20698
1
1.46993
1
1
1
0.656057
1
1
1.11661
1.47215
1.47212
1
1.47528
1.47797
1
1.06778
1
1.46976
1
1.47089
0.666631
1
1
1
1
1.47073
1.00007
1
1
1
1.45132
1
1
1
1
1.47207
0.65506
1.36373
1.47423
1
1.47136
1
1
1
0.997275
1
1.46908
1
0.806641
1
1
1.00004
1.47251
0.662343
1
1.46693
1
1.47069
1.47099
0.693927
1
1
1.44159
1
1
0.664439
1
1.47444
1
1.44474
0.999319
1.47143
1
1
1
1
1.4737
1
1
1.47246
1
1
1
1
1
1
1
1
1.30383
1
1.14385
1.47188
1
1
1
0.656963
1
1
1
1
1.4686
1.47024
1.04065
1
1
1.47423
1
1
1.4723
1
1.00002
1
1
1
1.00001
1.47485
0.781873
1.47179
1.47389
0.996984
1
1
1
1.27351
1
1
1.47342
1.47112
1
1
1
1
0.683594
1
1
1
1.28694
1
1.46998
1.47601
1
1.46974
1
1
1
1.25134
1
1.47132
1
1.47142
1
1
0.996439
1.47123
1
1
1
1
1
1.47246
1.00002
1
0.655313
1.46996
0.634863
1
1.47155
1
0.995819
1
1.47356
1.47739
1
1.46906
0.893876
1.47162
1.47211
1.00003
1
1
0.652458
1
1
1
1.47125
1.26669
1.47696
1
1
1
1
0.996884
1.47407
1
0.666919
1
1
1
1
1
1
1
1.47475
1.47347
1.47715
1
1
0.996918
1
0.978971
1
1
1
0.635931
0.970565
1
0.650644
0.654416
1
1.47338
1.47155
1
1.46882
1.47075
0.659842
1.32351
1
1
1
0.665845
1.47048
1
0.661592
1
1.47676
1.0688
1
1
1
1
1.4724
1.4674
1
1
1.47224
1
1
1.48039
1.47269
1
1.42747
1.47257
1.47352
0.969148
1.47191
1.00847
0.665485
1.35723
1.47186
1
1
1
0.652225
1
0.660847
1.48052
0.963549
1.4717
0.946206
1
1.47135
1.21155
1
1
1.47179
1
1.18716
1.47392
1
1
1.46794
1.48214
0.662694
1.27878
0.999892
1
1.27961
1
1.47682
0.937489
1.48282
1.4711
1
1
1
1
1.44609
1
1
1.46847
0.999634
1.47035
1.39059
1.47489
0.660356
1
1
1
1
1.47036
1.00004
1.47092
1
1.47141
1.47427
1.05737
1.48044
1.14163
1.472
1
1.31371
0.673515
1.46786
1.47231
1.39119
1.06703
1.46695
1.47166
1.47027
1.46959
1
0.908185
1.06598
1
1.47262
1.21831
1.46994
1.00003
1
1
0.674914
1.47075
1.46589
1.38041
1
1.1777
1
1.47641
1.47655
1
1.4742
1.46647
1
1
1
1.474
1
1.17735
1.47844
1.32559
1
1.47198
1
1
1
1
1
1
1
1
1
1
0.698797
1
1.43892
0.617627
1.27536
0.998563
1.46858
1
1.24145
1.00001
1.29126
1.39406
1
1.00163
1.46666
0.901898
1
1.47299
1.4711
0.947052
1
1.47225
1.47094
1.47521
1
1.47271
1.46938
1.48183
1
1.21777
1
1.00006
1.47004
1
1.47167
1.06694
1.47066
1
1
1.47581
1.47495
0.651361
1
1.47237
1.35156
1.4709
1
1
1.46578
1.47217
0.998252
1
1.42153
0.996863
1.47316
1.00006
1
1
1
1
1.20971
1
1.35827
1.47168
1.34235
1.46713
1
1.00371
1
1
1.4794
1
1.48082
1
1
1
1
0.999999
1
1.05426
1.23552
1
1
0.611309
1
1.46536
0.721281
1.46851
1
1.23332
0.999753
1.47193
1.29802
0.675084
1.25061
1.00003
1.47197
1.47074
1
1.27268
1.4759
1.46764
0.998383
1.47859
1.45706
0.636064
1
1
0.997571
1
1.46897
1
0.685479
1.47267
1
1
1.40921
1
1.47035
1
1.47028
1
0.680209
1
1
1.46968
1.47058
1.46616
1
1.47045
1.47151
1.46713
1
1
1.46384
0.999999
0.735257
1
1
1
1.47104
1
1.47086
1.3025
1.47318
1
1.47164
0.999371
1
1
1
1
1
1
0.721688
1
1
1.4721
1
1.4704
1.47213
1
0.677238
0.655153
1
1.47255
1.07661
0.664386
0.633072
1
1.47339
1
1.47562
0.698032
1.00114
1
1
0.999517
1
1
1
0.999912
1.19184
1.47009
1
1
1.47307
1.26633
1
1.43887
1.46928
1.46974
1.1914
1.46622
1
1.47142
1
1.46607
1
1.47667
1.46967
0.997255
1.46912
1.47547
1
1
1
1
1
0.914333
1.46368
1.00004
1.00003
0.642563
0.999982
0.631132
0.656285
1
1.47176
1.47154
1.46992
1
1.47196
1
0.660836
1
1
1.47029
0.8415
1.46871
1
1.46947
1
0.984324
1.47233
1
1
1
1.46928
1
1.47209
0.660169
1
1
1.26779
1
1
1.24912
1
1
1.47124
1
1
1
1
1
1.46909
1.47026
1
1.4715
1.46725
0.65418
1.21337
1.47035
1
1
1.42271
0.998908
1
1
1.47183
1.47521
1.30446
1
1.47119
0.68186
1.44937
0.999726
1
1.47137
1.00004
1.47308
1.40686
1.35592
1
1
1.47182
0.749871
0.644427
1
1.47201
1
1.4728
1
1.27839
1
1
1.46887
1.30226
0.663309
1
0.998326
1
1
1.02618
1.187
1.47181
1
1.46736
1
1
1
1
1
1
1.0658
0.667054
1
1
1.03262
1
1
1
1
1
1.47335
1
1
1.47172
1.47172
1.3525
1
1
1
0.832122
1.47085
1.32964
1
1
1
1
1.47219
1
1
1
1.47636
1
1
1.33731
1.48154
1.0335
0.756457
1.46875
1.33014
1.47494
1
1.22534
1
1
1
0.715742
1.0023
0.697868
1
0.708174
0.645354
1
0.660225
1
1
1
1.20116
1
1.47013
1.47268
1.00031
1.22269
1.37579
0.638409
0.786458
0.859784
1
1.47121
1.47144
1.47149
1.47179
1.39992
0.875085
1
1.40419
1
1.45907
1
1
0.996569
1.00915
1
1
1
1.46981
1
0.60786
1
1.47325
0.637669
1
1
1.47166
1
1.4714
0.999178
1
1
1.4741
1.41701
1
1.48788
1
1
1.01534
1
1.20907
1
1
0.654306
1
1
1.46906
0.999998
1.4734
1
1.00003
0.634106
1
1
0.62181
1.00089
1
1.47124
0.639054
1.47982
0.665802
1.47196
1
1
1
1
1
1
1
1
1
1
1
1.45143
1
1.47657
1.47136
0.651033
1
1
1
1
1
1
1.45739
1
1
0.658575
1
1
1.47098
1
1
1.17054
1.39054
0.654103
0.661339
0.73525
0.733289
1
0.996727
0.639124
1.00035
1.45288
0.996848
1
1
1.47235
1
1
1
0.765614
1.00001
1.16412
1
1
1.19028
1.47217
1
0.675836
1
1
1
0.996838
1.00001
1.4766
1.47194
1
0.657135
1
1.25468
0.654954
1
0.872292
1
0.996512
0.637118
1
1
1
0.995959
0.685396
1
0.71042
0.998395
1.24008
1.41687
0.672633
0.662467
1
0.990617
1
0.998611
1
1.47228
1.47143
1
1.02242
1.47148
1.47168
1
1
1.47107
1
1
1.00004
1
1.47735
1
1
1.01863
1
0.998622
0.738481
1
1
1
1
1
1.48351
1.02037
1.00005
1
1
1
1
1
1.00003
1
0.658613
1.10304
0.998636
1.46237
1.46763
1
1.01485
1.47054
1.40724
1
1
0.669734
1.47092
1
1.47164
1
1.47338
1.31211
0.649419
1
0.657263
1.44282
0.999676
1
0.666299
0.675013
1
1
1.39161
1
0.999998
0.653485
1
1
1
1.1453
1
0.652496
1.47026
1
1
1
1
1.47331
1
1
1.47651
1.4167
1
1
1
1.47231
0.662098
1
1.46996
1.47203
1
1.37022
0.999999
1.00003
1
1
1.43608
1.02904
1
0.63736
1.25391
1
1
0.997832
1
1
1.46607
1
1
1.00003
1
1.46731
1
1
1
1
1
1
1.00001
1.20601
1
1.47292
1
1
1.47286
1
1
1
1.47139
1.46854
1.04542
1
0.997631
1
1
1
1
1.47091
1
1
1.47295
0.655653
1
1
1
1
1
1
1.37782
1
1
1.48004
1.4724
1
1
1
1.46865
1.46528
1
0.999696
1.48478
1
1
1
1.00002
0.617805
1.02856
0.996321
0.996065
1
1
0.686233
1.47295
1
0.68658
1
1.47284
1.44865
0.656269
0.99941
1.47091
1.46795
1.47114
1
1
0.905805
1.43321
1.38727
0.686969
1
1
1
1.47407
1.47099
0.663862
0.997354
1
1.47187
0.606776
1
1.46478
0.662721
0.972014
1.00693
1
1.47296
1
1
1
1
1
1
1.00011
1.43624
1
1
1.4847
1
1
1
1.4717
1
0.659315
1
1
1
1.15902
1
1
1
1
1
0.784636
1
0.609277
1
1.47259
1.00006
0.861753
0.868782
1.00002
1.00442
1.23966
1
1
0.661286
1.47128
1.47347
1.47073
1
0.657168
0.643512
1
1.47174
1
1
1
1
1
1.00003
1
0.659731
1.2975
1
1
0.65402
0.985226
1.00001
1
1
1
0.6359
1
0.691658
1
1
1.4762
1
1
0.659596
1
1.47179
1
0.638455
1
0.663652
1
1.00857
1.47305
1.48405
1
1
1.46947
1
1
1.10198
0.996698
1
0.998219
1
1.47422
1
0.684389
1.00002
1.47295
0.999005
1
1
0.770984
1
0.999005
0.667202
1.47265
1.1607
1
1.00001
0.904291
1
1
1
0.774277
1
1
1
1.4712
1
0.651041
0.999999
1
1
1
0.65195
1.47076
1.43238
0.668509
1
1.473
1
1
1.47167
1.47066
1.39039
0.656403
0.997717
0.999227
1
1.47188
1
1
1
1
1.47346
1.00004
1
1
1.46891
1
1
1.47156
0.648749
1
1
1
0.661371
1
0.999999
0.999999
0.998639
1
1
1
1
1.35616
1
1.47405
1.47461
1.4841
1.47013
1.47273
1.47159
1
1.47401
1
1.47137
1.4718
1
0.99888
0.649345
1.40229
0.999896
1
1
1
1
1.00639
1
1.06939
1
1
1
0.847791
1.47137
1.47357
1.46911
1.40983
0.999881
1
1.02089
1.47064
0.997934
1.05658
0.997211
0.692741
1
1.00002
1
1
1
1
1
1.46999
0.65918
1.46925
1.47175
0.995138
0.612558
1
1
1
1.47392
0.63611
1.41174
0.651568
1.47061
1.46519
0.664645
1.46861
1.02251
1
1.47483
0.792727
1
0.998873
0.601145
1
0.657729
1
1.47131
1.4711
0.753992
1
1.47078
0.691352
1
0.653789
1
1.47193
1
1
1.45502
1
0.845294
1
0.999651
0.658018
1.45805
0.999494
1
0.627829
1
1
1
1
1.24943
1
1.47025
1
1
1.47655
1
1
1.46925
1
0.634181
1
0.668163
1.00001
1
1
1
1
1.44927
1.273
1.47112
1
1.47162
1.43301
0.638829
0.654806
1
1
1.47718
1
0.632035
1
0.985583
1
1
1.47181
1
1.47133
0.604076
1.48172
1
0.625939
1
1
1.48306
1.47002
1
1.00004
1
1.47793
1
1
0.646945
0.999357
0.618992
1
1
1
1.47427
1.47709
1.47096
1
1
0.680578
1
1.4775
1
1
1
1.45805
1.47211
1.47103
0.653544
1.47337
1.47038
0.665947
1.47153
1.00004
0.676868
1.01059
1
1
1.4723
0.644467
1.29491
0.62732
1.47057
0.997495
0.66394
1.47428
1
1
1
1
1.4708
1.4696
0.661648
1
1.00002
0.661904
1.00004
1
0.707626
0.646286
1.32665
1.46894
0.998479
1.47041
1
1.47417
0.814051
0.664394
1.47195
1.4825
1
1.47063
1
1
1.47206
1
1.35783
1.47104
1
1
1
1
1.47109
1.46524
1.47322
1
1
1.47296
1.47129
1.46847
1
1.47075
1
1
1
1
1
0.644446
0.845267
0.657475
1
1
1.47118
1
1
1.4754
0.663199
1
1.47082
1.46457
1.45031
0.638192
1
0.67471
1
1.00003
1.47003
1.21705
1.47129
1.43203
1
0.684876
1
1.47037
1.33286
0.671272
1
1
1
0.792727
1
1
1.4733
1
0.669358
1.47161
1
1
1
1
1
1.37621
1.10464
1
1.4747
1
1.47366
1
0.997336
1
1.47305
1.46583
1.47233
1.47622
0.999587
1.47171
1
1.47141
1.47339
1.39433
1
1
0.633865
1.4664
1
1
1.47146
1.47102
1.47342
1
1.47237
1
1
1.00003
1.47048
1.46756
1.12774
1.09957
1.47103
1.47157
0.668523
1
1
1
1
1.00002
1.15908
1
1
1.40347
0.621853
0.999972
1
1.47092
0.999859
0.999815
1.06743
1.41738
1.46612
0.905399
1
0.613103
1
1.00485
1.47213
1.47505
1.45211
0.999061
1
1
0.659411
1
1
1.47204
1.04929
1
1
1
1
1
1
1
0.999938
1.47137
1.00002
1
1
1
1
1.31593
1
1.21237
1
1
1.47124
1.47839
0.664586
0.998826
1
0.999999
1
0.658897
1.47253
1.47182
1
1
1
1
1
1
1
1
1.46853
1.47816
0.641012
1.04971
0.660291
1
0.64676
1
1.47115
1.11861
1
1
0.733571
1
1.4508
0.803886
0.996581
0.667559
1
1
1.46896
1.00004
0.997081
0.639369
1.47288
1.48019
1
1
1
1
1.43701
1
1
1.47077
0.998986
1.47177
1.00004
1
1
0.58912
1
1
1.47124
0.657555
0.772348
0.662799
1.47081
0.999317
1
1.47671
0.671843
0.675296
1.01652
1
1
1.47059
1.00004
1.19505
1
1
1.47113
0.664105
1
1
1.00013
1.4719
1.00013
1.47171
1
1.00003
1
1
0.747677
1
0.789524
1.00002
1
1.47393
0.595711
1
0.759154
0.783067
1
1
1.47283
1
1
1
1.47251
1.47236
1.00005
1.45434
1.47127
0.783137
1.4716
1.45321
1
1
1.47071
0.999999
1
1
1
1
1.47624
1.4735
1
1
1
1.47313
1.00022
1
0.665281
0.733251
1
1.00003
1.17474
1
1
0.895405
0.691109
1
1
1
1.47769
1.43263
1.47176
1
1
1
1
0.60148
1
1.46411
1
1.47526
0.646281
1.47853
1
1
1
0.684239
1
1.47053
1.00003
1
0.672467
1.16373
1
0.999655
1.47082
0.646079
0.671545
1
1.47256
0.66076
0.666845
1
0.622
1
1
1
1
0.665259
1
1
1
1
1.47025
1
1.35888
0.632202
1
1
1
0.657082
1.47132
1
1
0.996744
1.44505
1
1.46943
1.4714
1
1
0.737346
0.676948
1
1
0.658178
1.14128
1.20966
1
1
1.4692
0.997474
1
0.997558
1.47063
1
1
1
1
1
1
1.47307
1
1.15415
1.14767
0.696831
1.41465
1
1.47085
1.47242
1
1
1
0.925104
0.630997
1
1.22413
0.999645
1.39792
1
1
1
0.999999
1
1.00695
1.19682
1.4733
1.47158
1
1.47192
1
0.701215
1
0.9978
0.99978
1
0.634994
1
0.648942
1.00002
1.47451
1.47123
0.650673
1.47844
0.677143
0.996267
1.33856
0.654801
1.33596
1
1
0.998426
1
1
1
1.00005
1
0.632942
1
1
1
1
0.999608
1.47273
0.783773
1
1
1
1.03586
1
1
1
1.25699
0.739867
1
1
1
1.04942
1.46646
1
0.611291
1
1.47368
0.905651
0.703771
1
0.653264
1
1
1.44751
0.998221
1.43812
1
1.00879
1
1
1.47074
1
1
1
1
1.08797
1
1.47221
1.47352
1.46688
0.625479
1.4718
0.997091
1.38282
1
1
0.628707
1
1
0.656972
1.47449
1
1
0.999948
1
1
1
0.639517
0.64145
1
1.4738
1
1.21951
1.47131
0.66393
1.37665
1
1
0.713469
1
1
1.47136
1.47254
1.15934
1
1
1.00189
1.47223
0.632611
0.654549
1.47398
1.47256
1.31716
1.18029
1
0.90068
1
1
1
1.4537
1.47181
1.47056
1
1
1.47456
0.696273
1.41818
0.63136
1
0.652849
1
0.647362
1.47084
0.648965
1
0.988605
0.697367
1
1
1
0.819677
1.42623
1.47072
1.47188
1.47386
1
1
1.47072
1
1
1.4718
1
0.679402
1
0.593298
1
1.46912
1
1
1.02469
1.35739
1
0.998945
0.702662
1.47221
1.00001
0.613227
1.08851
1
1
1.36546
1.47151
1.47211
1
1.46967
1.123
1
1.02409
1.47115
1
1
1
1
1.4714
1
0.643372
1.47067
0.664819
0.596734
0.824557
1.47176
1.16196
1.47083
1
1.474
0.997448
1.00003
1.47215
1.47082
1
1.47358
1
1.46887
1
1.47255
1
1.00004
1.00001
1.4692
0.64681
0.661539
0.997971
0.999999
1
1
0.601763
1
1.30331
1
0.648786
1
1.18583
1.47009
1.4718
1
1
1.00003
0.999381
1
1.47186
1.47185
1
1.19499
1.46886
0.840389
1.47175
1.00075
0.650247
1.09794
0.660952
1
1
1.07539
1.4706
1
1
1.0419
0.998572
1
0.636269
1
0.775121
1
1.46507
1
1
0.656559
1.10327
1.06039
0.998469
1.47046
1.47168
0.768571
0.998056
0.642242
0.680295
0.648186
1
1
1
0.999002
0.713558
0.657083
1
1.47088
0.999749
1.47114
1.47138
1.47171
1.47198
1
0.650629
1.47231
0.674945
1
1.46857
1.48043
0.996594
0.807572
1.46925
1.33532
1
0.662083
1
1
1.47803
1
1.0279
1.47352
1
0.635244
0.632885
1
1
0.660857
0.667305
1.4716
1.00004
1
0.60914
0.699289
1.47353
1.45481
1.43941
1.47361
1.12379
0.974473
1.18171
1.47534
1.38163
1
1.23226
1
0.61864
0.842004
1
0.632058
1.47178
1.02267
1.47291
1
1.47146
1.46955
1
1.47055
1.47209
0.647327
1.47585
1
1.47189
1
0.739777
0.658605
1.46937
1
1
1
0.650946
1.47213
1.47334
1
0.650686
1
1
0.629994
1.00004
0.639508
1.47059
1
0.79599
0.695168
1
1
1.2635
1
1
1
1.08066
0.645685
1
1.00001
1
1.46928
0.667241
1
1.47241
0.612002
0.642992
1
1
1.47684
1
1.47306
1.00001
1.47243
0.661902
1
1
0.677709
0.812109
0.601567
1
1
1
1
1.47465
0.634921
1
0.664424
1
1.46615
1
1
0.932153
1
1
0.799793
0.999692
1.00005
1
0.665074
0.65471
1
1
1
1
0.777692
1.4696
1.47181
1
0.663414
0.684595
0.89342
0.649757
1
0.827503
1
0.594347
0.965782
1
1
0.660392
1
1.47516
1.45995
0.644848
1
1
1
1.47383
1
1.05647
0.83066
1.13986
0.650998
1.18963
0.65962
1
1
0.686148
0.908251
1
1.04286
1
1
0.673564
1
0.928537
1.04629
0.664071
1
1.37645
0.729815
0.887693
1
1
1
0.665214
1
0.650616
0.654463
1
0.868986
0.666389
1.06201
0.722198
0.5931
1.47238
1
1.47077
1.25845
0.729913
1.47132
0.633665
0.999031
1.47241
0.999999
1
1.47275
1
0.731358
1
1.06132
1
1
1.47217
1
0.792422
0.814308
1.47249
0.927996
1
0.784339
1.47226
1.47308
0.909631
1
1.47044
1.12192
0.853258
1
1.02713
1
0.655219
1.19511
0.750661
0.728139
1
1
0.65214
1.46889
0.959329
0.659716
0.650308
0.841169
1
1.01383
1.47191
1.47263
1
1
0.999999
0.648177
1.22109
1
1.46988
1.42715
0.656971
1.00002
1.09716
0.878822
1.29031
1.39952
1
1.05076
1
1.00005
0.660517
0.84446
1
1
0.813498
0.646359
1.04486
1
1.00001
0.617065
1.20767
1
1.46967
1
1.03444
1.25851
1
1.46181
1
1
1.46882
1
0.653466
1.46956
0.721261
1.12184
1
0.650603
0.999916
1
1.00003
1
0.784306
1.02733
0.662889
1.34863
1.47242
0.637274
1
1
1
1
1
0.963157
0.678042
1.04639
0.663356
0.660333
1.07506
1
0.999803
1.11591
1
1
0.626179
0.993051
1
1
1.14138
1
1.47206
1
1.46986
1.09527
1.02499
0.652649
1
1
0.612775
1
1
1
1
1.47074
1.04268
0.99808
1
0.657534
1.05221
0.999999
1
1.30136
1
0.698081
1.4731
1
1.00001
1
1.47213
0.668674
0.876335
0.690744
1.35246
1.47324
1
1
1.4723
1
0.693887
1
1
1
1
1
0.769797
1
1.4708
1
1
1.15841
1.47188
0.662237
0.871813
1
1.4736
1
1
1
1
1
1.47062
1.47083
0.659077
1.46886
0.640328
1
1
1.47136
1
1.47376
1.00618
1.03029
1.06061
1.47013
1.07344
1.31736
0.633304
1
0.642577
0.995711
1
1.47127
1
1
0.655585
1.47938
1
1.47223
1
1
1
1
1
1.00001
0.660772
1.4704
0.851139
1.4708
1
0.650872
0.675137
0.716037
1.47723
1.46946
0.94777
1
0.811458
1
1.18811
1
1.47225
0.648877
0.659654
0.850703
1
1.47093
1
1.07596
0.667134
1
1.47048
1.40475
0.998902
1
1.47055
0.65561
1.47875
1.47198
1.47753
0.664798
1.09245
1
1
0.646896
1
0.816726
0.842653
1
1.00002
1.47038
1
1.4669
1.0785
1
1.04368
1.4795
1
0.65153
1
0.758751
1
1
1.38414
1
0.794835
1
0.658318
1.03582
0.937316
0.700491
1.47051
1.3883
1.47258
0.661632
0.705539
0.995688
0.999999
1
0.67855
1.44559
0.645538
0.999966
1
1.47072
1.47161
0.888859
1
0.645255
0.682743
1.30648
0.969279
0.652187
0.999999
0.656049
1.11909
0.658578
1
1.00005
0.796757
1.47269
1.46937
0.81656
0.9996
1
1
0.742039
1
0.654501
1
0.68808
0.647671
1
1
1.00003
0.660546
1.47052
1
1
1.00007
1.00004
0.687604
1.4687
1.4713
0.999999
0.663578
1.47228
1
1.09934
1
1
1.47028
0.65493
1
1
0.643859
0.76324
0.662022
0.594492
1
0.666967
0.997115
1.0927
0.659581
1
1
1.13071
1
1.4153
1
1
1.32328
0.647466
1
0.694582
1.13517
1.47245
1
1
0.655511
0.66349
0.633081
0.711636
0.652945
1.35214
0.999412
1
1
1
1
1.47248
0.614158
1
0.9512
0.99968
0.99847
0.999942
0.732963
1.11581
1
1.47113
1.47095
1
1
1.44798
1.00005
0.999999
1.47289
0.658396
1.45843
1
0.633825
1.47079
1.00005
1
0.815981
1
0.635761
1
1.47214
1
1
1.47517
1
1
1.47764
1
1
1
1.47068
1
0.724204
0.699511
1
0.628292
1.47183
1
1
0.96689
1
1.47304
1.26753
1.37481
1
1
0.665513
1
0.664735
1.47243
1.46947
1.46977
1
1.47154
0.64757
1
0.67165
1.37713
1.44272
1.46974
1.47247
0.760714
0.65
1
1.3163
1.47133
1.47083
1.47139
0.761131
1.16723
1
1.35551
0.759164
1
1.00002
1
1.00002
0.915701
1
1.48064
1
1
1
1
1
1
1.00006
1.46952
1
1.47627
1.34779
0.655557
1.46987
1.03741
1.2349
1
1.47085
1
0.651461
1
1
1
1
1.40221
1
0.645522
1.47623
0.643876
1.47238
1.37534
1.23644
1
1.08816
1.22088
0.995425
0.69466
0.801533
1.00002
0.999999
0.918961
1
0.648183
1.47107
0.591019
0.909448
0.870686
1
1
1
1.01477
1
1
0.667024
0.996704
1.47219
1
1.47081
1
0.656193
1
1
1.4707
1.47618
0.646372
1
1.47116
1
0.829808
0.611727
1.4717
1.42274
1
1.0794
1.47107
0.998671
1
1.19347
1.41235
1.47425
0.995913
1
0.999998
1.39974
1
1
1
1.4703
0.998453
1
1
1.47153
1
1
0.658106
1
1
1
1.47209
1
1
0.877604
1.14199
1.42592
0.776774
1
1.47212
1
1.16337
1
1.47373
0.997266
1.47173
1
0.647959
1
1.31615
1
1
1.43905
1.00001
1.47075
1
1.47475
0.677958
0.663554
1.47147
1
1.40098
1
1.47125
1
1
1.00004
1.46979
1.47145
1.12527
1.47078
0.995997
0.667037
1.47019
0.854167
1
1.45021
1
1.47312
1
1.47277
1.47094
0.996349
0.649334
1
1.47111
1
1.04221
1
1
0.997925
0.73179
1.41925
1
1.42287
1
0.888677
0.651389
1.47711
1.47085
0.720242
1
1.47211
1.47315
1.4732
0.680519
1.46996
0.697347
1.47181
1.48
1
1
1.47163
1
1
1
1
0.658794
1
1
1.47197
1.47083
1
1.47017
1
1.47174
1.47158
1
1.38971
1
0.638408
1.47026
1.35894
1.12146
0.644449
1.47076
1
1
0.647642
1
1
1.47156
1
1
0.806837
1
1.47089
1.00008
1.47273
0.655538
1.47544
1
1.4711
1.45307
0.911708
1
1.47175
0.772957
1.4772
1.33159
1.47185
1.47096
0.997163
1.47613
1.47118
1.4719
1.4728
1.00101
1
0.677439
1
1.47163
0.828531
1.42861
1
1.46268
1
1
1
1
1
1.4691
0.64674
0.679108
1.47103
1.47075
1
1
1
1
1
1.46944
1.41926
1.47159
1.02077
1
1
1
1.00003
1.46776
1.47127
1
1.47136
1.47326
0.651317
1.32088
1
1.47106
1.47657
1.46641
0.997946
1.47309
1.47062
1
1.42112
1
1
1
1
1
1
1.47045
1.47229
1.43755
1.47114
0.651222
0.701855
1.47105
1.47161
1
0.640556
0.923276
1
1.22327
0.666624
1
0.999455
0.998263
0.655461
1
1.47249
1
1
1
1.47107
0.931467
1
1.47297
1.47128
1
1.47106
1
1
1.47138
1
0.651918
1
1.47214
1
1
0.653899
1
1.47093
1
0.634012
0.686573
1
1.46208
1
0.63699
0.887183
1
1.47072
1
1
1
1.47705
1
0.655522
1.06458
1.47115
1.47328
1.47197
1.0406
1.47361
1.47143
1
1.00002
1
1
1.00001
1.47131
1
0.99932
1.47332
1
0.640938
1
1.47164
1.21929
1.05419
1.21786
1.06432
1.4663
0.71994
1.47125
1
0.664227
0.997127
1.47126
0.9306
1.47103
1.47056
1.44707
1
1.4714
1.47125
1.47142
1
1.00003
1
1
1.47122
1.32827
1
1
0.665873
0.996723
1
1.47161
1
1.47171
1.47046
1.46935
0.906584
1.47004
1.47165
1.01405
1.225
1.46984
1.47047
1
1.43562
0.855611
1.44603
0.985012
1.47161
1
1.47152
1.4718
1
0.651178
0.930913
0.704443
1
1.08147
0.996537
1.47161
1
1
0.996837
1
1.2314
1.44259
1
1
1.47168
1
1
1.33467
1.47198
1.4521
1.46954
1.46928
1
1.47312
0.766252
1.47621
1
0.99278
0.651234
1
1
0.7609
1
1.14106
1
1.47396
1
1.46211
1.29711
0.646397
1
1
1
1
1
1.47281
1.01116
1
1.47081
1
1.47028
1.47078
0.999999
1
0.946563
0.999846