/*--------------------------------*- C++ -*----------------------------------*\
  =========                 |
  \\      /  F ield         | OpenFOAM: The Open Source CFD Toolbox
   \\    /   O peration     | Website:  https://openfoam.org
    \\  /    A nd           | Version:  12
     \\/     M anipulation  |
\*---------------------------------------------------------------------------*/
FoamFile
{
    format      ascii;
    class       volScalarField;
    location    "8.39";
    object      T;
}
// * * * * * * * * * * * * * * * * * * * * * * * * * * * * * * * * * * * * * //

dimensions      [0 0 0 1 0 0 0];

internalField   nonuniform List<scalar> 
22702
(
1
1
0.962548
1
1.0172
1
1.12092
1
1
0.910252
1.12062
1.11984
1
1.11867
0.966967
1
1
1
1.12046
1
1.11862
1
1.11925
0.89304
1.11776
0.876019
1
1.11999
0.904672
0.898548
1
1.1194
1
1
1
1.11088
1.11803
1.11932
1
1
0.894345
1
1.06573
1
1.11988
1
1
1
1
0.897312
1
0.895769
1
1.12045
1
1.11954
1
1
1
1
0.87936
1
1
0.898403
1
0.891074
1
1
1
0.905175
1
1.11866
1.07444
1
1.11852
1.12532
0.893603
1.11951
0.897541
1
1.12122
0.897429
1.11942
1.1196
1
1
1
1
0.982154
0.905796
1.12085
1
1
0.906045
1
1.1187
0.90154
1
1
1
1
1.06258
1.12096
0.893225
1
1
1.03171
1
0.896767
1
1.11943
1.12044
1
1
0.885678
0.888136
0.906942
1
1
1
1
1
0.97681
1
1.10285
1.01354
1.1195
1
1.11954
1.12071
1.11848
1.12071
1
0.886872
1
0.881747
1
1
1
1
1.12074
1
1
1
1
1.11871
1
1.00708
1
1
1
1
0.895625
1
1.00281
1
0.8988
1
1
1
1.12045
1
1.11888
0.87864
0.879837
1.11896
1.11903
1
1.02137
1.07202
1
1.12061
0.897861
1.11103
1
1
1
1
1.11866
1.09486
1
1.12076
0.890683
1.12005
1
0.901726
1
0.898573
0.876481
0.999942
1
1
1.12022
1
1
1.11826
1
1.11931
1.12072
0.895033
1
1
0.898112
1.11851
1
1
1
1.11849
1
0.896612
1
1
1.11867
1.11874
1.11923
1
1.00001
1
1
1
1.11858
1
0.888214
1.12371
1.11823
1.11866
1
1
1
0.893319
1.11916
1.05982
1
1.11888
0.892255
0.894826
1.11898
1.1182
1
1.11901
0.887888
1.10618
1
1
1
1
1.11865
1
1.07182
1.01135
1
1
1.11835
0.883016
0.924542
1
1.11778
0.892861
1.11954
1
1
1
1
1
1
1
0.894917
0.923402
0.893311
1.11845
1
1
1
1
1.10893
1
0.897227
1
0.89009
0.899281
1.11824
0.890753
1.11868
1
1
1
0.999321
0.89973
0.889214
1
1
0.889595
1
1.12064
0.900542
1
1
1.12106
0.887017
1
1.11916
0.877431
1.11876
1
0.8925
0.999328
1
1
1
0.894086
1
1
1
1
1.00545
1.07292
1
0.892756
1
1
1
1
1
1
1
1.12074
1
1.12055
1
1
1
0.891706
1
1.11869
0.890314
1
1.09549
1
1
1.12054
1
1
1
1.11844
1
1
1.1194
1.12073
1
1.02754
1
1
0.880981
1
1
1
0.904926
1
1
1
1
0.892555
1
1
1
1
1
0.910054
1.00002
1.11887
1
1
1.1189
1.11914
1
1
0.899709
0.948499
1.12111
1
1
1
1.11888
0.904032
1
1.11882
1
1
0.909867
0.907337
1
0.898443
0.890333
1
1
1
1
1
1
1
1.11981
1.03512
1.1149
0.909045
0.97364
1.121
1
1.11863
1.12061
0.890659
0.934838
1
0.895146
1
1.12418
1
1
1
1
1.11848
1
1
1
1
1
1
1
1.04713
1.11989
1
1.1187
1
1
0.899246
1
1
1
1
1.11854
1.09243
1
1
0.895654
1.11824
1.11865
1
1.11867
1.11824
1.11873
1
0.953759
1
1.11859
1.00197
1.11877
1
0.893087
0.999666
1.12118
1
1
1
1
0.895336
1.11886
1.10859
1
1.11808
1.1189
1.12097
1
1.05952
1.1183
1
1
1.08501
1.01779
1.11861
0.984152
1.11862
1
1.11872
1.11869
1.11869
1.11825
1
1.11694
0.974435
0.965564
1
1
1
1
1.11698
1
1
1
1
1
1.12128
1
1
0.998959
1.11862
1.10659
1
1.09781
1.00001
1
1
1.11863
1
0.999266
1.00139
1
1.11881
1
1.11902
1
1
1.08963
1
1.1188
1.00001
1
1.11736
1
1.11853
1
1
1
1.11851
1
1.11983
1
1.11852
1.12046
1.11831
1.11971
1
1.1209
1.11687
1
0.901842
1.11196
1.08737
1
1.11834
1
0.878568
0.875648
1
1
1
1
1
0.897941
1
1.11857
1.03456
1.11861
1
1
1
1
1
1.11854
1
1.11805
1.07373
0.937771
1
1
1.03781
1.03185
1
1
1.05025
1
0.901208
1.11836
1.11853
1
1
1
1.12056
1
1.00001
1.11928
1.11872
0.985904
1
1
0.89814
1.10904
1
1
1
1
1
1.11861
1.12089
1
1.11749
1.11982
1.11832
1
1
1
1
0.891684
1.12034
1
1
1.10908
1.11793
1
1.11233
1.11988
1
1
1
1
1
1.11878
1
1
1
1
1.11818
1
1.11735
0.896894
1
0.884688
1
1
1
0.9991
0.897187
0.999704
1
1
1
1.01872
1
1
0.961359
1
1
1
1
1
1
1
0.999999
0.980658
1
1
0.999343
1
0.895833
1
1
1
1
1.09049
1
1
1
1
0.892584
1
1
1.11229
1.12002
1
1
1
0.965963
1
1
1
1
1
1
0.98596
1.00539
1.11868
1
1
1
1.11812
0.972773
1
1
1
1.11985
1.11931
1
1
1
1
1
1
1
1
1
0.892753
1
1
1.12014
0.895562
1
1.11955
1
0.896223
1
1
0.892091
1
1
1
1
1
1
1
1.11671
1.11835
1
1
1
1
1.10928
1
1.03945
0.900294
1
1
1
1
1
1
1
1.01025
1
1
1.06481
1
1
1
1.09837
1
1
1
1
0.896171
1
1
0.886029
0.895613
1
1
1.11882
1
1.01065
1
1
1
1.08521
0.884376
1
0.883096
1
0.931206
1
1
1
1.11881
1
1
1.11862
1
1
1
1.1185
1
1
1.11837
1
1
0.890384
1
1.03962
1
1
1.12093
1.12095
1.0827
1.10675
1
0.894066
1
1
1.11364
1
0.886792
1
1
1
1.1187
1
1
1
1
1.07448
1
1.1141
1.11952
0.911746
1
1
0.881164
0.872639
1
1
1
1.08655
1.09107
1
1
1
1
1
1
1
1.05508
1.12042
1.00386
1
1.11722
0.887715
1
1
1
1.06766
1
1.02622
1
1.10933
1.11795
1
0.89267
1
1.11991
1
1
1.11903
1.11205
1
1.12127
1
0.902808
1
1
1
1.11757
1.1167
1.10542
1
1.12006
1.11859
1
1.11865
1
1.11799
1
0.892126
0.994376
0.890652
1
1
1
1
1
1.11818
1
1.1183
1
1
1
1.11316
1
0.894496
1.11861
1
0.90416
0.890538
0.886376
1
1.06188
1.01109
1.11869
1.11862
1
1
1
1
1.11849
1
1
1.11853
1.1185
1
1.04819
1.00003
1
0.999005
1.12039
0.95854
1
0.950949
0.899876
0.901134
0.996287
1.11934
1.11701
1.02734
1.11896
1.11843
1
1
1.12086
1.12027
1.11888
1.12107
1
1.11842
0.900677
1.11881
1.11936
1.11913
1.11843
0.961354
0.96884
0.979493
1.11847
0.988921
1.11894
1
1
1.1188
1.11846
1
0.894361
1.11891
1.11839
1
1.11837
1.11869
1
1.11843
0.899363
1.11842
1.1207
1.12066
1.11867
1
1
1
1.11834
1.07991
0.892716
1.11864
0.888731
1.11845
1
1
1
1
1.11906
1.11883
1
1
1.11882
0.889234
1.11861
0.896893
1
1.11792
1
0.908425
1.1188
0.919097
1
1.11861
1.11901
1.11805
1
1
1.06341
1.11889
0.896888
1.11848
1
1.11829
0.96589
1.11823
0.891134
1
1.11906
0.897799
1.11883
0.896712
1
1.1186
1
1.11922
1
1.07541
1.11455
1.0954
0.869165
1
1.11874
1
1.11845
1
1.11861
1
1
1.11884
0.99821
1.11924
0.913841
1.10356
1
1.08465
1
1.11913
1.11856
1.11878
1
1.10761
1.11851
1.11004
1.07648
1.11884
1
1.08203
1
1.119
1
1.0178
1
1.11067
1
1.11845
1.11343
1.11343
1
1.11741
0.872566
1
0.896042
1
1
1
1.12043
1
1.11876
1
1
1
1.11887
1.11557
1.10088
1.11904
1.11829
0.884822
1.12035
1.12067
1
1.10406
1.11851
1.11369
1
1.12038
1.11967
1
1.11967
1.11852
1.11883
1.11877
1
1
1
1.11833
0.887822
1
1.11871
1
1
0.877197
1
1
1.11851
1.11875
1
1.11856
1.12031
1.11849
0.994845
1.11869
1
1.11866
1.11877
1.0997
1
1
1
1.11823
1.11848
1.11837
0.984837
1
1.12087
1.11848
1.11882
1
1.11841
1.11892
1.11847
1.1204
1
1.11845
1.11886
1.10505
1.11885
1.11966
1
1.11949
1.11714
1.11847
1.11888
1.11884
0.86969
1.11901
1.11901
1
1.11868
1.11831
1.11863
1.11849
1
1.11866
1.1182
1
1.11835
1.10133
1
1
1
1.11867
1.12023
1
1
1.06658
1
1.11852
1
1
1.11841
1.11884
1.11858
1.11855
1
1
1
1.08727
1
1.11876
1
1
1.12067
1.12087
1
1.11853
0.890589
1.1184
1.11836
0.913854
1
0.87079
1.10563
1.11805
1.11855
1.11685
0.890264
1.11863
1.11875
0.885714
0.885796
1
1.1184
1.11806
1
1
1.11884
1
1.11966
1
1.10497
1
1.06213
1.11819
1.11898
1.08804
1.11277
1.12044
1.11915
1.11206
1
0.885777
1.11798
1.11847
1.12006
1
1
1
1.12035
1
1.11882
1.11844
0.924188
1
1.11845
0.999983
1
1.00001
1.00001
1.11837
1.11835
0.99959
1
1
1.11849
1.11894
1.11847
1.11824
1.11917
0.881072
1.10488
1
1.11807
1.11871
1.11872
1.11664
1
1.11855
1.11562
1.11896
1
1.119
1.11847
0.958239
1.11853
1.11898
1
1.1183
0.947382
1.11845
0.961231
1.11854
1
1.11847
1.12329
1.11857
1.11867
1.11836
1.11941
1.11881
1.11901
1
0.980286
1.11857
1.11852
0.950358
1.11851
0.996423
1.07692
1.11868
1.11861
1.11781
1
1.11915
1.08214
1.11826
0.977125
1.11918
1.11977
1
0.961957
1
1.11857
1
1.08321
1
1.11042
0.965954
1
1.11998
1.11619
1
1.11968
1.11876
1.11499
1.11964
1.11976
1
1.12023
1
1
1
0.973322
1.11848
1.11923
1.12006
1.11849
1.11931
1.12051
1.11795
1.1187
0.975027
1.00973
1
1
1.1235
1.11875
1.11855
1.11852
1.00001
1.06391
1
1.11968
1.10869
1
1
0.930237
1.11874
1
1
0.905294
1.11823
1
1.1206
1.11819
1.12076
1.11453
1.11844
1
0.872463
1.03129
1.11866
1.11841
1
1.11824
1.11858
1.06518
1.00298
1.02918
1
1.1194
1.11863
1
1
0.883057
1
1
1.11853
1.1187
1.11797
1.11851
1.11846
1.11982
1.11916
1.11838
1.11873
1
0.998855
1.1187
1.11839
0.999119
1.11858
1.11874
0.875238
0.911742
1.11799
1.11751
1
1
1.00049
1.1188
1.11758
1.11829
1
1.11849
1
0.959748
1.12035
1.11615
1
1.05803
1.11824
1
1.11966
1
1.11848
1.07957
1.11913
1
1.11886
1.11766
0.881009
1.11874
1
1.11848
1.12009
1
0.877183
1.1175
1.09835
0.999339
1.11718
1.11853
1
1.00084
1.11967
0.999513
1.11856
1
1
1.1189
1
1.11833
1.11856
0.998939
1.09712
1
1.11861
1
1
1
1
1.11875
1
1
1.11946
1
1.1184
1
1.07836
1.11843
1.11898
1
1
1.00046
1
1.11843
1.11839
1.11871
1.11812
1.11869
1.11845
1.11865
1
1.11846
1.11842
1
1.11825
1.1185
1
1.11909
0.980972
1.01657
1.11845
1.11827
1.11871
1
1.11801
1
1.11871
1.11814
1
1.11845
1
1
1
1
1.11867
0.87339
0.999371
1
1.11868
1.12036
1
1.11846
1
1.00146
0.893661
1.1187
0.99989
1
1.11791
0.999522
1.11856
1
0.999933
1
1.11728
1.11864
1.11782
1.11969
0.896186
1.11819
1.11899
1.11875
1.03237
1
1
1.05538
1.11837
0.871931
0.893992
1
1.11869
1.11842
1.11922
1
1
1.11907
1.11884
0.999967
1
1.08967
0.892654
1
1.0234
1.12062
1.12065
0.999502
1.11876
1.12124
1
0.999729
1
1.119
1.12011
1.05213
1
1.11431
1
1.0005
1.11887
0.889129
1.11876
1.11853
0.999132
0.999975
1.10544
1
0.99991
1
1.11913
1
1
0.87749
1.11846
1
1
1
1
1.11876
1.0691
1
1
0.887958
1.11848
1.07156
1
1
1
1.11305
1.11666
1.11911
1
1
1.11855
1
1.11869
1.11851
1
1
1.1184
1.11849
1.11398
1
1
1.11862
1.11889
1
1
1
1.11872
1
1
1
1.11871
1.12095
1.1194
1
1.11908
1.00001
0.919534
1.11875
1.11835
1
1.12021
1.11453
1.12079
1
1
1.11912
1
1.06902
1.11829
1
0.877611
1
1.11969
1
1
1.11731
1
1
1
1.03917
1.11857
0.911735
1
1.11929
1
1
1.11857
1
1.11914
1
1
1.11852
1.11819
1
1.00002
1
1
1
1
1
1
1.11848
1.11878
1
1.12038
0.888396
1.12049
1
1.11846
1.1172
1.11816
1.11801
1.12173
1
1
1.11854
1
1.07796
1.11958
1.11844
1
1.11924
1.11688
1
1.1091
1
1.11851
1.07871
1.1185
0.999266
1.11491
1.11119
1.11891
1.1187
1.01019
1.11865
1.11961
1
1.11846
1
1.11868
1
1
1
1
0.999039
1.11878
1.11881
1.10019
1
1.11938
1
1
1
0.884179
1
1.11625
1
1.10857
1.11647
1
1
1
1.10853
1.12047
1
1
1.11824
0.893403
1.02142
1
1.11927
1.11855
1.11053
1.11612
1.11854
1
1.11826
1
1
1
1
1.11816
1.11865
1
1.11495
1.0153
1.1185
1.11001
1
1
1.11108
1
1
0.891496
1.08633
1
1
1.11963
1
1.11968
1.10913
1
1.10875
0.893762
1.11852
1.11855
1.11898
1
0.893548
1
1
1
1.11861
1.10126
1
1.12017
1.11825
1
1.11854
1
1
1
1
1.11849
0.999804
1
1.11886
1
1
1.11839
1.11857
1
1.11887
1.02527
1.00001
1
1.11884
1
1.11904
1
1.00463
1.11855
1
1.11844
1
1
1.03976
1.11879
1
1
1
1
1
0.998986
0.891292
0.876143
1.00586
1
1.00811
1
1.00893
1
1.1186
1
1.0755
1
1.11826
1
1
1
1.11832
1
1.09536
1.11861
1
1.06663
1.119
1
1
1.11993
1.11845
1
1
1.01556
0.869233
1
1.11867
1
1
1
1
1.02208
1.11883
1
1
1
0.901622
1
1.11849
1.11868
1.12227
1
1
1
1
1.06289
1.12041
1
1
1
1.11867
1.11854
1.01629
1
1
1
1.11835
1.11857
1
0.878525
1.11862
1.11878
1.11871
1.11734
1.11918
1
1
1.11939
1.11814
1.11877
0.901527
1.01175
1.1182
1
1
1
1
1
1.11843
0.89263
1
1
1.11866
1.05702
1
1.11898
1
1
1
0.89233
1
1
1.03307
1.11869
1.11868
1
1.12028
1.11985
1
1.02077
1
1.11795
1
1.11855
0.893345
1
1
1
1
1.11841
1.00002
1
1
1
1.11401
1
1
1
1
1.11867
0.890475
1.09445
1.11918
1
1.11853
1
1
1
0.999221
1
1.11747
1
0.942284
1
1
1.00001
1.11875
0.894138
1
1.11767
1
1.11835
1.11848
0.904912
1
1
1.1121
1
1
0.899034
1
1.12022
1
1.11274
0.999806
1.11861
1
1
1
1
1.12047
1
1
1.1188
1
1
1
1
1
1
1
1
1.08064
1
1.03943
1.11875
1
1
1
0.890147
1
1
1
1
1.1179
1.11826
1.01309
1
1
1.11914
1
1
1.11889
1
1
1
1
1
1
1.11922
0.93379
1.11862
1.11905
0.999135
1
1
1
1.0733
1
1
1.11884
1.11847
1
1
1
1
0.899937
1
1
1
1.07581
1
1.11817
1.11958
1
1.11812
1
1
1
1.06805
1
1.12043
1
1.11857
1
1
0.998983
1.11851
1
1
1
1
1
1.11867
1.00001
1
0.892454
1.11808
0.885599
1
1.11877
1
0.998804
1
1.11908
1.11991
1
1.1189
0.970207
1.1185
1.11779
1.00001
1
1
0.888895
1
1
1
1.11846
1.07171
1.11983
1
1
1
1
0.999109
1.11924
1
0.893504
1
1
1
1
1
1
1
1.11951
1.11909
1.11986
1
1
0.999119
1
0.995631
1
1
1
0.880797
0.993181
1
0.886791
0.890126
1
1.11891
1.11856
1
1.118
1.11837
0.891081
1.08534
1
1
1
0.892936
1.11844
1
0.891081
1
1.12011
1.02075
1
1
1
1
1.11878
1.11909
1
1
1.11864
1
1
1.12185
1.11881
1
1.10944
1.11876
1.12028
0.992765
1.1185
1.00243
0.893383
1.0931
1.11863
1
1
1
0.887357
1
0.891514
1.12057
0.991149
1.11864
0.985986
1
1.11853
1.05801
1
1
1.11864
1
1.05186
1.11912
1
1
1.11876
1.12104
0.891862
1.07488
0.999969
1
1.07425
1
1.12022
0.98345
1.12184
1.11845
1
1
1
1
1.11322
1
1
1.11791
0.999895
1.11838
1.09941
1.11916
0.893907
1
1
1
1
1.11838
1.00001
1.11837
1
1.11863
1.11918
1.01634
1.12074
1.04033
1.11887
1
1.0828
0.895462
1.11742
1.11873
1.1001
1.0204
1.11874
1.11853
1.11822
1.11836
1
0.974823
1.01843
1
1.1188
1.05935
1.11826
1.00001
1
1
0.895103
1.11813
1.11833
1.09843
1
1.04971
1
1.11978
1.11943
1
1.11918
1.11824
1
1
1
1.11924
1
1.04846
1.11991
1.08563
1
1.11875
1
1
1
1
1
1
1
1
1
1
0.904234
1
1.11166
0.873157
1.07378
0.999589
1.11801
1
1.06558
1
1.0775
1.10108
1
1.00044
1.1179
0.972998
1
1.11901
1.11824
0.986328
1
1.11876
1.1185
1.11941
1
1.1189
1.11809
1.12078
1
1.05968
1
1.00002
1.1183
1
1.1187
1.01904
1.11829
1
1
1.11919
1.11965
0.88591
1
1.11884
1.09171
1.11848
1
1
1.11857
1.11898
0.999501
1
1.10872
0.999103
1.11884
1.00001
1
1
1
1
1.05773
1
1.09276
1.11869
1.08954
1.11761
1
1.00089
1
1
1.12144
1
1.12058
1
1
1
1
1
1
1.01523
1.06414
1
1
0.872616
1
1.1172
0.912453
1.11764
1
1.06333
0.999929
1.11905
1.07912
0.899067
1.06772
1.00001
1.11868
1.11833
1
1.07302
1.11923
1.11773
0.999538
1.11982
1.11545
0.880063
1
1
0.999275
1
1.11908
1
0.901913
1.11902
1
1
1.10524
1
1.11842
1
1.11839
1
0.897638
1
1
1.11823
1.11873
1.1174
1
1.11835
1.11855
1.11851
1
1
1.1161
1
0.91949
1
1
1
1.11872
1
1.11842
1.08028
1.11901
1
1.11854
0.99982
1
1
1
1
1
1
0.912987
1
1
1.11872
1
1.118
1.11826
1
0.896613
0.889443
1
1.11882
1.02151
0.894279
0.884874
1
1.11897
1
1.1195
0.903136
1.00034
1
1
0.999862
1
1
1
0.999975
1.05314
1.11825
1
1
1.11898
1.07165
1
1.11196
1.11798
1.11847
1.05311
1.11833
1
1.11856
1
1.11705
1
1.11973
1.11813
0.999214
1.11788
1.11923
1
1
1
1
1
0.976389
1.11838
1.00001
1.00001
0.885649
0.999994
0.878881
0.888237
1
1.11873
1.11868
1.11827
1
1.11865
1
0.892464
1
1
1.11828
0.953517
1.11791
1
1.11808
1
0.997233
1.11886
1
1
1
1.11796
1
1.11885
0.890996
1
1
1.07208
1
1
1.06736
1
1
1.11857
1
1
1
1
1
1.11742
1.1182
1
1.11902
1.11764
0.888351
1.05849
1.11826
1
1
1.10783
0.999689
1
1
1.11861
1.11926
1.08104
1
1.11868
0.898609
1.11337
0.999921
1
1.11856
1.00001
1.11893
1.10468
1.09273
1
1
1.11862
0.922394
0.886021
1
1.11867
1
1.11897
1
1.07441
1
1
1.11804
1.08023
0.891926
1
0.999518
1
1
1.00749
1.05186
1.11863
1
1.11751
1
1
1
1
1
1
1.0187
0.893605
1
1
1.01073
1
1
1
1
1
1.11908
1
1
1.11859
1.11853
1.09203
1
1
1
0.95187
1.11841
1.08662
1
1
1
1
1.1188
1
1
1
1.11933
1
1
1.0885
1.12128
1.01127
0.926815
1.11806
1.08679
1.11968
1
1.06144
1
1
1
0.909918
1.00062
0.908293
1
0.906739
0.884677
1
0.890525
1
1
1
1.05544
1
1.11848
1.11883
1.00008
1.06105
1.09732
0.882115
0.935219
0.959372
1
1.11845
1.11962
1.11854
1.11861
1.10272
0.964544
1
1.10368
1
1.11687
1
1
0.999019
1.00255
1
1
1
1.11878
1
0.87046
1
1.11888
0.886753
1
1
1.1186
1
1.11855
0.99974
1
1
1.11912
1.10566
1
1.12326
1
1
1.00439
1
1.05739
1
1
0.8883
1
1
1.11799
1
1.11903
1
1.00001
0.883839
1
1
0.880715
1.00031
1
1.11927
0.881779
1.12035
0.892057
1.11873
1
1
1
1
1
1
1
1
1
1
1
1.11411
1
1.11965
1.1198
0.887028
1
1
1
1
1
1
1.11554
1
1
0.891547
1
1
1.1194
1
1
1.04799
1.1006
0.888803
0.890225
0.917553
0.917415
1
0.999063
0.886188
1.00013
1.11382
0.999099
1
1
1.11888
1
1
1
0.928106
1
1.04496
1
1
1.05229
1.11868
1
0.895006
1
1
1
0.999093
1
1.1197
1.11868
1
0.888771
1
1.06883
0.88891
1
0.963372
1
0.998927
0.881246
1
1
1
0.998833
0.899924
1
0.907545
0.999541
1.06514
1.10556
0.89453
0.895273
1
0.997268
1
0.999603
1
1.11881
1.11855
1
1.00787
1.11863
1.11859
1
1
1.11849
1
1
1.00001
1
1.11934
1
1
1.00532
1
0.999606
0.918684
1
1
1
1
1
1.1211
1.00735
1.00001
1
1
1
1
1
1.00001
1
0.890137
1.0299
0.99961
1.11748
1.11633
1
1.00426
1.11843
1.10399
1
1
0.893481
1.11853
1
1.11964
1
1.11908
1.08328
0.887247
1
0.890156
1.11109
0.999907
1
0.893353
0.895481
1
1
1.10085
1
1
0.887947
1
1
1
1.03989
1
0.887364
1.11817
1
1
1
1
1.11887
1
1
1.11984
1.10648
1
1
1
1.11909
0.891353
1
1.11852
1.11867
1
1.09598
1
1.00001
1
1
1.1104
1.00975
1
0.88615
1.06884
1
1
0.999355
1
1
1.1172
1
1
1.00001
1
1.11836
1
1
1
1
1
1
1
1.05674
1
1.11885
1
1
1.11888
1
1
1
1.11846
1.11774
1.01286
1
0.999323
1
1
1
1
1.11987
1
1
1.11889
0.889219
1
1
1
1
1
1
1.09774
1
1
1.12043
1.1191
1
1
1
1.11837
1.11715
1
0.99992
1.12133
1
1
1
1
0.877383
1.00814
0.998947
0.998872
1
1
0.899333
1.11921
1
0.899945
1
1.11885
1.11359
0.890481
0.999831
1.11844
1.11834
1.11858
1
1
0.973813
1.11157
1.09915
0.900043
1
1
1
1.11919
1.11842
0.891892
0.999244
1
1.11863
0.871171
1
1.11656
0.892223
0.993541
1.00198
1
1.11813
1
1
1
1
1
1
1.00003
1.1108
1
1
1.12137
1
1
1
1.11862
1
0.890296
1
1
1
1.04397
1
1
1
1
1
0.935215
1
0.873164
1
1.11881
1.00002
0.960579
0.962598
1
1.00124
1.06496
1
1
0.891418
1.11843
1.11901
1.11841
1
0.888967
0.883635
1
1.11851
1
1
1
1
1
1.00001
1
0.893799
1.07913
1
1
0.888739
0.99754
1
1
1
1
0.880644
1
0.90184
1
1
1.1188
1
1
0.890206
1
1.11864
1
0.881746
1
0.89281
1
1.00245
1.11898
1.12267
1
1
1.11939
1
1
1.02968
0.999056
1
0.999491
1
1.11917
1
0.903053
1
1.12116
0.999726
1
1
0.929865
1
0.999716
0.892956
1.11892
1.04542
1
1
0.973322
1
1
1
0.931058
1
1
1
1.11853
1
0.88845
1
1
1
1
0.888638
1.1184
1.11044
0.893529
1
1.11887
1
1
1.11863
1.11923
1.10057
0.88972
0.999348
0.999781
1
1.11869
1
1
1
1
1.11885
1.00001
1
1
1.11879
1
1
1.11858
0.88528
1
1
1
0.893469
1
1
1
0.999612
1
1
1
1
1.09274
1
1.12003
1.1196
1.1219
1.11829
1.11891
1.11858
1
1.11916
1
1.11854
1.11861
1
0.99968
0.88566
1.10324
0.99997
1
1
1
1
1.00346
1
1.01955
1
1
1
0.957378
1.11855
1.11909
1.118
1.10672
0.999966
1
1.006
1.11839
0.99941
1.01739
0.999201
0.902122
1
1.00001
1
1
1
1
1
1.11823
0.890766
1.11806
1.11861
0.998582
0.870973
1
1
1
1.1191
0.880851
1.10539
0.888086
1.11838
1.11714
0.89345
1.11779
1.00644
1
1.11936
0.938406
1
0.999679
0.865676
1
0.88954
1
1.11851
1.11853
0.924866
1
1.11911
0.901777
1
0.888773
1
1.11867
1
1
1.11427
1
0.954962
1
0.999901
0.890339
1.11609
0.999855
1
0.877707
1
1
1
1
1.06891
1
1.11827
1
1
1.12061
1
1
1.11833
1
0.882887
1
0.899044
1
1
1
1
1
1.11372
1.07298
1.1185
1
1.11858
1.11012
0.881816
0.887058
1
1
1.11979
1
0.881012
1
0.997658
1
1
1.11869
1
1.11835
0.867117
1.12167
1
0.876388
1
1
1.12107
1.11818
1
1.00001
1
1.11944
1
1
0.884561
0.999816
0.875818
1
1
1
1.11918
1.11948
1.11936
1
1
0.897662
1
1.11956
1
1
1
1.11514
1.11868
1.1185
0.887623
1.11903
1.1183
0.891815
1.11961
1.00001
0.895958
1.00481
1
1
1.11877
0.884045
1.0784
0.877103
1.11835
0.999284
0.89166
1.11925
1
1
1
1
1.11845
1.11924
0.891978
1
1.00001
0.891759
1.00001
1
0.907283
0.887673
1.08592
1.11793
0.999566
1.11833
1
1.11933
0.945023
0.893326
1.11865
1.1225
1
1.1184
1
1
1.11869
1
1.0933
1.11954
1
1
1
1
1.11843
1.11715
1.11873
1
1
1.11887
1.12053
1.11838
1
1.11835
1
1
1
1
1
0.88406
0.954798
0.888321
1
1
1.11865
1
1
1.1196
0.89117
1
1.11842
1.11703
1.11403
0.881166
1
0.895609
1
1.00001
1.11931
1.05928
1.11994
1.10991
1
0.899239
1
1.11814
1.0874
0.898281
1
1
1
0.937455
1
1
1.12039
1
0.89819
1.11855
1
1
1
1
1
1.09738
1.02903
1
1.11952
1
1.11909
1
0.999211
1
1.11884
1.11698
1.11874
1.11956
0.999882
1.12003
1
1.11854
1.11881
1.10149
1
1
0.879808
1.1187
1
1
1.11818
1.11851
1.11906
1
1.11888
1
1
1.00001
1.11798
1.11763
1.03548
1.02823
1.11843
1.11858
0.892966
1
1
1
1
1.00001
1.04377
1
1
1.10369
0.878739
0.999989
1
1.11845
0.999959
0.999947
1.019
1.10648
1.11907
0.973633
1
0.871999
1
1.00314
1.1187
1.11934
1.11431
0.999734
1
1
0.890334
1
1
1.11868
1.01412
1
1
1
1
1
1
1
0.999982
1.11935
1
1
1
1
1
1.08347
1
1.05767
1
1
1.11852
1.12018
0.896069
0.999666
1
1
1
0.89096
1.11992
1.11866
1
1
1
1
1
1
1
1
1.11824
1.11992
0.885277
1.01419
0.893242
1
0.884844
1
1.11849
1.03441
1
1
0.916947
1
1.11414
0.941396
0.998991
0.893225
1
1
1.11901
1.00001
0.999159
0.883372
1.12001
1.12082
1
1
1
1
1.111
1
1
1.11834
0.99971
1.11926
1.00001
1
1
0.860464
1
1
1.11849
0.889416
0.930622
0.896265
1.11841
0.999805
1
1.11951
0.894203
0.895649
1.00647
1
1
1.11967
1.00001
1.05375
1
1
1.11981
0.893457
1
1
1.00004
1.1194
1.00004
1.11828
1
1.00001
1
1
0.921948
1
0.938571
1.00001
1
1.11909
0.863333
1
0.925694
0.935863
1
1
1.11879
1
1
1
1.11894
1.11873
1.00001
1.11419
1.12004
0.934048
1.11861
1.11503
1
1
1.11759
1
1
1
1
1
1.1204
1.119
1
1
1
1.11889
1.00006
1
0.892222
0.916827
1
1.00001
1.0482
1
1
0.970765
0.905303
1
1
1
1.12002
1.11005
1.11858
1
1
1
1
0.867536
1
1.1192
1
1.11931
0.884256
1.12041
1
1
1
0.899095
1
1.1189
1.00001
1
0.897402
1.04595
1
0.999902
1.11912
0.88574
0.893883
1
1.11984
0.88978
0.893016
1
0.874301
1
1
1
1
0.892085
1
1
1
1
1.11941
1
1.09338
0.879358
1
1
1
0.890161
1.11853
1
1
0.999068
1.11267
1
1.11804
1.11935
1
1
0.918352
0.896191
1
1
0.891352
1.04012
1.05703
1
1
1.11895
0.999281
1
0.999288
1.12014
1
1
1
1
1
1
1.1189
1
1.04308
1.04075
0.903541
1.10614
1
1.11847
1.11876
1
1
1
0.979679
0.88048
1
1.06596
0.999899
1.10213
1
1
1
1
1
1.00193
1.05374
1.11895
1.11864
1
1.11864
1
0.912436
1
0.999362
0.999937
1
0.879934
1
0.890195
1.00001
1.11916
1.11996
0.886239
1.12021
0.896247
0.99893
1.08847
0.887526
1.08771
1
1
0.99955
1
1
1
1.00002
1
0.879809
1
1
1
1
0.999888
1.11894
0.934432
1
1
1
1.01025
1
1
1
1.06952
0.919187
1
1
1
1.01579
1.11897
1
0.870421
1
1.11905
0.975372
0.90583
1
0.888902
1
1
1.11334
0.999492
1.11172
1
1.00252
1
1
1.11844
1
1
1
1
1.02503
1
1.11871
1.11896
1.11862
0.876903
1.11861
0.999168
1.09901
1
1
0.877437
1
1
0.890277
1.11894
1
1
0.999985
1
1
1
0.88303
0.882919
1
1.12028
1
1.0601
1.1185
0.891965
1.0988
1
1
0.909552
1
1
1.11858
1.1188
1.04479
1
1
1.00051
1.11961
0.879598
0.890621
1.11998
1.11885
1.08364
1.04925
1
0.972275
1
1
1
1.11574
1.11907
1.11828
1
1
1.11943
0.902402
1.10675
0.88231
1
0.892892
1
0.884856
1.11838
0.888844
1
0.998469
0.90368
1
1
1
0.946448
1.10871
1.11845
1.11929
1.11997
1
1
1.11974
1
1
1.11876
1
0.897339
1
0.862513
1
1.11928
1
1
1.00875
1.093
1
0.999696
0.904821
1.11869
1
0.871257
1.025
1
1
1.09493
1.11859
1.11868
1
1.11811
1.03538
1
1.00682
1.1185
1
1
1
1
1.11855
1
0.883185
1.11832
0.892125
0.863914
0.948963
1.11856
1.04479
1.11841
1
1.12009
0.999262
1.00001
1.11872
1.11993
1
1.11974
1
1.11801
1
1.11986
1
1.00001
1
1.11802
0.885135
0.895653
0.999423
1
1
1
0.866098
1
1.08051
1
0.885604
1
1.05181
1.11826
1.11924
1
1
1.00001
0.999823
1
1.11985
1.11866
1
1.05391
1.118
0.953332
1.11862
1.00021
0.885932
1.02768
0.89036
1
1
1.02141
1.12001
1
1
1.01358
0.999593
1
0.88045
1
0.931406
1
1.11712
1
1
0.888825
1.03043
1.01872
0.999562
1.11826
1.11865
0.929092
0.999445
0.882826
0.897633
0.885226
1
1
1
0.999715
0.909785
0.894715
1
1.11843
0.999928
1.11853
1.11849
1.12026
1.11873
1
0.886025
1.11885
0.895235
1
1.11781
1.12074
0.999026
0.942844
1.11801
1.08895
1
0.890884
1
1
1.12069
1
1.00797
1.1191
1
0.879609
0.879279
1
1
0.889845
0.891851
1.11863
1.00001
1
0.869294
0.903713
1.11905
1.11271
1.11158
1.11995
1.03602
0.994498
1.05067
1.12045
1.09785
1
1.06286
1
0.872513
0.953744
1
0.878744
1.11862
1.00646
1.11885
1
1.11856
1.11906
1
1.11862
1.11868
0.885626
1.11948
1
1.12003
1
0.920021
0.889971
1.11827
1
1
1
0.887396
1.11884
1.11895
1
0.889889
1
1
0.880134
1.00001
0.883271
1.11955
1
0.93838
0.902183
1
1
1.07058
1
1
1
1.0226
0.885573
1
1
1
1.1179
0.893158
1
1.11878
0.870624
0.883348
1
1
1.12027
1
1.11892
1
1.11877
0.894592
1
1
0.896543
0.944003
0.866135
1
1
1
1
1.11983
0.879927
1
0.892537
1
1.11688
1
1
0.98186
1
1
0.939902
0.999912
1.00001
1
0.892173
0.891929
1
1
1
1
0.93237
1.1181
1.11977
1
0.892158
0.89813
0.969963
0.890275
1
0.94892
1
0.862641
0.991982
1
1
0.89419
1
1.11936
1.1164
0.885016
1
1
1
1.11935
1
1.0175
0.950008
1.03919
0.891095
1.05236
0.889835
1
1
0.899289
0.974568
1
1.01374
1
1
0.895144
1
0.980792
1.01467
0.892158
1
1.0975
0.915443
0.968146
1
1
1
0.896909
1
0.887206
0.888677
1
0.962184
0.893117
1.01905
0.912957
0.86258
1.11875
1
1.11841
1.06847
0.917024
1.11856
0.879324
0.999724
1.11967
1
1
1.1188
1
0.916133
1
1.0188
1
1
1.11873
1
0.937329
0.944741
1.12065
0.980646
1
0.934806
1.11875
1.11983
0.974947
1
1.11834
1.03411
0.957303
1
1.00936
1
0.892418
1.05342
0.922974
0.914741
1
1
0.893119
1.11787
0.989997
0.891625
0.88663
0.953367
1
1.00578
1.11964
1.11884
1
1
1
0.887928
1.06046
1
1.11831
1.10819
0.888586
1.00001
1.02851
0.965452
1.07738
1.10195
1
1.01595
1
1.00002
0.889502
0.954587
1
1
0.944478
0.884213
1.01417
1
1
0.872761
1.05707
1
1.11874
1
1.01148
1.06919
1
1.11782
1
1
1.11793
1
0.887571
1.11914
0.912498
1.03421
1
0.889596
0.999976
1
1.00001
1
0.934642
1.00781
0.892871
1.09034
1.12033
0.882451
1
1
1
1
1
0.991035
0.896724
1.01487
0.892685
0.890913
1.02304
1
0.999944
1.03218
1
1
0.876303
0.999735
1
1
1.04025
1
1.11958
1
1.11919
1.02813
1.00874
0.88913
1
1
0.871034
1
1
1
1
1.1184
1.0122
0.999452
1
0.88921
1.01491
1
1
1.08006
1
0.90319
1.11907
1
1
1
1.11869
0.893018
0.965992
0.900844
1.09197
1.11848
1
1
1.11873
1
0.901815
1
1
1
1
1
0.930209
1
1.11837
1
1
1.04463
1.11937
0.890981
0.963266
1
1.11903
1
1
1
1
1
1.11837
1.11958
0.888592
1.11807
0.882486
1
1
1.11855
1
1.12017
1.00351
1.00857
1.01872
1.11828
1.0206
1.08371
0.88002
1
0.883904
1.00048
1
1.11853
1
1
0.888393
1.1201
1
1.11977
1
1
1
1
1
1
0.892322
1.11936
0.956571
1.11838
1
0.88628
0.895871
0.912067
1.11938
1.11816
0.986362
1
0.943768
1
1.05229
1
1.1188
0.885713
0.889808
0.957142
1
1.11847
1
1.02296
0.892281
1
1.11974
1.10458
0.999687
1
1.11837
0.88869
1.11955
1.11866
1.1196
0.895237
1.02741
1
1
0.886973
1
0.945374
0.953741
1
1.00001
1.11839
1
1.1175
1.02369
1
1.01396
1.12111
1
0.886423
1
0.925813
1
1
1.09923
1
0.938048
1
0.895911
1.01013
0.98325
0.904125
1.11846
1.09859
1.12008
0.893209
0.906734
0.998764
1
1
0.897076
1.11292
0.884752
0.99999
1
1.11838
1.11935
0.968516
1
0.884449
0.898306
1.08122
0.992911
0.887097
1
0.88842
1.0345
0.892961
1
1.00002
0.938962
1.12013
1.11844
0.94532
0.999886
1
1
0.920052
1
0.889541
1
0.899601
0.885809
1
1
1.00001
0.895026
1.11837
1
1
1.00002
1.00001
0.901462
1.11821
1.11852
1
0.892722
1.12054
1
1.02909
1
1
1.11823
0.889349
1
1
0.883904
0.927452
0.891605
0.862851
1
0.891978
0.999176
1.02757
0.889836
1
1
1.03675
1
1.1062
1
1
1.08489
0.884739
1
0.902744
1.03872
1.11888
1
1
0.893823
0.891042
0.879749
0.908837
0.886899
1.09196
0.999832
1
1
1
1
1.11915
0.87154
1
0.987528
0.999909
0.999536
0.999983
0.916511
1.03369
1
1.11851
1.11847
1
1
1.11388
1.00001
1
1.1189
0.893111
1.11707
1
0.879758
1.11843
1.00002
1
0.945076
1
0.881187
1
1.11954
1
1
1.11932
1
1
1.11986
1
1
1
1.12008
1
0.91361
0.904297
1
0.880357
1.1187
1
1
0.992429
1
1.11906
1.0718
1.09711
1
1
0.892024
1
0.891273
1.11869
1.1193
1.11811
1
1.11981
0.885811
1
0.893979
1.09759
1.1109
1.11815
1.11887
0.926694
0.886849
1
1.08373
1.11944
1.11932
1.1186
0.926636
1.04692
1
1.09255
0.926055
1
1
1
1.00001
0.976897
1
1.1205
1
1
1
1
1
1
1.00002
1.11816
1
1.11959
1.09084
0.889062
1.11944
1.0123
1.06401
1
1.11839
1
0.887661
1
1
1
1
1.10324
1
0.885607
1.11957
0.884837
1.11879
1.09717
1.06421
1
1.02501
1.06033
0.998685
0.902716
0.940492
1.00001
1
0.977985
1
0.885027
1.11926
0.861648
0.974862
0.962733
1
1
1
1.00416
1
1
0.892546
0.998934
1.12007
1
1.11839
1
0.890367
1
1
1.11837
1.11961
0.886324
1
1.11918
1
0.94958
0.870457
1.11922
1.10784
1
1.02225
1.11852
0.99962
1
1.05349
1.10557
1.11933
0.998825
1
1
1.10271
1
1
1
1.11833
0.999558
1
1
1.11857
1
1
0.892994
1
1
1
1.11944
1
1
0.965133
1.04028
1.10847
0.932053
1
1.11872
1
1.04509
1
1.11966
0.999218
1.11858
1
0.885364
1
1.08319
1
1
1.11147
1
1.11845
1
1.11956
0.89681
0.892883
1.11926
1
1.10374
1
1.11929
1
1
1.00001
1.11818
1.11856
1.03593
1.1184
0.998848
0.892727
1.11853
0.957509
1
1.11401
1
1.11892
1
1.11887
1.11926
0.998956
0.886802
1
1.11846
1
1.01358
1
1
0.999408
0.916401
1.10709
1
1.10784
1
0.968585
0.887001
1.11984
1.11852
0.912116
1
1.11892
1.11977
1.11934
0.897742
1.11832
0.903701
1.11913
1.1208
1
1
1.11863
1
1
1
1
0.890525
1
1
1.11964
1.1184
1
1.11833
1
1.12004
1.11999
1
1.10039
1
0.884665
1.11831
1.09356
1.03505
0.885502
1.11843
1
1
0.885867
1
1
1.1186
1
1
0.941989
1
1.11846
1.00002
1.11877
0.889084
1.12064
1
1.11852
1.11457
0.975726
1
1.11849
0.930824
1.11947
1.08713
1.11866
1.11841
0.999185
1.12093
1.11851
1.11861
1.11886
1.00028
1
0.896552
1
1.1199
0.949369
1.10908
1
1.11668
1
1
1
1
1
1.11808
0.886495
0.896911
1.11897
1.11837
1
1
1
1
1
1.11813
1.10627
1.11858
1.00798
1
1
1
1.00001
1.11777
1.11853
1
1.11916
1.11974
0.891463
1.08458
1
1.11839
1.11979
1.11749
0.99941
1.11894
1.1185
1
1.10806
1
1
1
1
1
1
1.11835
1.12033
1.11116
1.11848
0.888643
0.906142
1.11847
1.11857
1
0.881947
0.979344
1
1.06111
0.89284
1
0.999844
0.999504
0.888132
1
1.11886
1
1
1
1.11922
0.983471
1
1.1189
1.11852
1
1.11882
1
1
1.11859
1
0.886682
1
1.11828
1
1
0.891799
1
1.1183
1
0.883055
0.898943
1
1.11648
1
0.884435
0.968904
1
1.11842
1
1
1
1.11988
1
0.889918
1.01811
1.11901
1.11891
1.11862
1.01338
1.11905
1.11855
1
1
1
1
1
1.11857
1
0.999806
1.11887
1
0.884
1
1.1186
1.05993
1.01823
1.05971
1.01966
1.11714
0.912257
1.11855
1
0.892625
0.999181
1.1185
0.982165
1.11845
1.11839
1.11272
1
1.11911
1.11852
1.11861
1
1.00001
1
1
1.11918
1.08634
1
1
0.892472
0.999061
1
1.11864
1
1.11866
1.11837
1.11807
0.974724
1.11829
1.1187
1.00574
1.06074
1.11915
1.11838
1
1.11075
0.958149
1.11318
0.99732
1.11865
1
1.1186
1.11882
1
0.890999
0.982756
0.906467
1
1.02412
0.999007
1.11929
1
1
0.999078
1
1.06308
1.11097
1
1
1.11859
1
1
1.08787
1.11858
1.11436
1.11812
1.11823
1
1.11913
0.928496
1.12006
1
0.9996
0.889898
1
1
0.926672
1
1.04014
1
1.11909
1
1.11655
1.0789
0.884681
1
1
1
1
1
1.11904
1.00319
1
1.11901
1
1.11833
1.11841
1
1
0.985953
0.999956
0.888439
0.882283
0.910806
1.02535
1
0.999553
0.895617
1.00001
1
1.11869
0.987664
1.11066
1.10434
1
1
1
1
1
1.11836
1.11888
1
1.11862
1
1.11953
1.08183
0.998954
1
1
1
1.07052
1
0.991439
1
1.11856
1
1
1.11849
1
1
1
1
1
1.11841
0.885675
0.998923
1.10734
1.11872
1
1.11862
1
1
1
1
0.906637
1
1.11879
1.11874
1.11867
1.12051
0.989828
1
1.10197
1.03214
1.11962