/*--------------------------------*- C++ -*----------------------------------*\
  =========                 |
  \\      /  F ield         | OpenFOAM: The Open Source CFD Toolbox
   \\    /   O peration     | Website:  https://openfoam.org
    \\  /    A nd           | Version:  12
     \\/     M anipulation  |
\*---------------------------------------------------------------------------*/
FoamFile
{
    format      ascii;
    class       volScalarField;
    location    "0.61";
    object      p;
}
// * * * * * * * * * * * * * * * * * * * * * * * * * * * * * * * * * * * * * //

dimensions      [1 -1 -2 0 0 0 0];

internalField   nonuniform List<scalar> 
22702
(
1
1
0.843259
1
1.03133
1
1.47281
1
1
0.61446
1.47082
1.47321
1
1.16689
0.867054
1
1
1
1.47151
1
1.31721
1
1.4615
0.608623
0.999941
0.570638
1
1.45059
0.609715
0.610034
1
1.47297
1
1
1
1.33603
1
1.46043
1
1
0.607644
1
1.1937
1
1.4504
1
1
1
1
0.612621
1
0.611476
1
1.47048
1
1.4723
1
1
1
1
0.58953
1
1
0.5996
1
0.593346
1
1
1
0.614373
1
1.45005
1.25475
1
1.44434
1.46318
0.598478
1.4705
0.614412
1
1.47155
0.620987
1.47241
1.47299
1
1
1
1
0.911105
0.614063
1.46454
1
1
0.596682
1
1.31949
0.592299
1
1
1
1
1.19953
1.47146
0.589652
1
1
1.09566
1
0.62261
1
1.47059
1.4717
1
1
0.576517
0.579204
0.612856
1
1
1
1
1
0.891455
1
1.33143
1.0258
1.46806
1
1.46751
1.47217
1.23745
1.47204
1
0.597002
1
0.572788
1
1
1
1
1.47189
1
1
1
1
1.44002
1
1.02484
1
1
1
1
0.616632
1
1.01076
1
0.613918
1
1
1
1.46278
1
1.46299
0.584566
0.590349
1.44322
1.44794
1
1.05306
1.23521
1
1.4701
0.614315
1.33406
1
1
1
1
1.12818
1.38614
1
1.47217
0.5882
1.4704
1
0.599227
1
0.614339
0.572971
1
1
1
1.47372
1
1
1.43546
1
1.47169
1.47203
0.637238
1
1
0.618157
1.44248
1
1
1
1.44244
1
0.591948
1
1
1.47022
1.46842
1.47109
1
1
1
1
1
1.3064
1
0.585218
1.45739
1.43736
1.00201
1
1
1
0.614873
1.47078
1.21989
1
1.32465
0.589644
0.590076
1.32677
1.47376
1
1.4761
0.588741
1.33359
1
1
1
1
1.43522
1
1.276
1.04216
1
1
1.41915
0.578592
0.739563
1
1.47451
0.605445
1.46841
1
1
1
1
1
1
1
0.612376
0.746378
0.589764
1.471
1
1
1
1
1.39223
1
0.612177
1
0.605929
0.617743
1.47001
0.597792
1.31133
1
1
1
0.997575
0.599311
0.608043
0.999999
1
0.603842
1
1.47197
0.590545
1
1
1.47193
0.612571
1
1.47463
0.586586
1.41744
1
0.61542
0.997735
1
1
1
0.602094
1
1
1
1.00002
0.974363
1.26422
1
0.612101
1
1
1
1
1
1
1
1.47222
1
1.47503
1
1
1
0.610129
1
1.43995
0.59501
1
1
1
1
1.47139
1
1
1
1.45125
1
1
1.4676
1.46981
1
1.07865
1
1
0.572021
1
1
1
0.593768
1
1
1
1
0.596066
1
1
1
1
1
0.614158
1.00006
1.4569
1
1
1.44882
1.44312
1
1
0.643654
0.793122
1.47139
1
1
1
1.41456
0.613872
1
1.46305
1
1
0.684195
0.675968
1
0.597852
0.608219
1
1
1
1
1
1
1
1.46985
1.08645
1.44286
0.613402
0.871992
1.47295
1
1.4416
1.47156
0.597332
0.753615
1
0.604133
1
1.48869
1
1
1
1
1.43907
1
1
1
1
1
1
1
1.13696
1.46136
1
1.47084
1
1
0.620778
1
1
1
1
1.44632
1.31665
1
1
0.59711
1.4373
1.46598
1
1.46883
1.43536
1.46984
1
0.813912
1
1.40755
0.972224
1.47075
1
0.59784
0.998811
1.4711
1
1
1
1
0.623977
1.4693
1.33619
1
0.99989
1.41167
1.47119
1
1.22154
1.00542
1
1
1.28744
1.05613
1.46988
0.917941
1.46876
1
1.46926
1.4719
1.46771
1.43746
1
1.46354
0.875317
0.856918
1
0.999999
1
1
1.47597
1
1
1
1
1
1.47054
1
1
0.996329
1.46164
1.40269
1
1.38278
1.00004
1
1
1.43863
1
0.997315
1.00458
1
1.472
1
1.47398
1
1
1.30826
1
1.47203
1.00002
1
1.47414
1
1.45192
1
1
1
1.43522
1
1.46918
1.00001
1.43682
1.47236
1.42322
1.47212
1
1.46986
1.4731
1
0.608619
1.35359
1.30832
1
1.43712
1
0.573052
0.583007
1
1
1
1
1
0.5919
1
1.47102
1.08657
1.43866
1
1
1
1
1
1.47171
1
1.46931
1.24213
0.755228
1
1.00001
1.1349
1.11816
1
1
1.12702
1
0.621934
1.47279
1.47113
1
1
1
1.47143
1
1.00003
1
1.46867
0.919914
1
1
0.608017
1.35454
1
1
1
1
1
1.45742
1.4702
1
1.47398
1.46724
1.42097
1
1
1
1
0.57876
1.47205
1
1
1.35147
1.36125
1
1.35351
1.46511
1
1
1
1
1
1.47273
1
1
1
1
1.47101
1
1.4725
0.602789
1
0.594795
1
1
1
0.996714
0.617069
0.998999
1
1
1
1.05933
1
1
0.833522
1
1
1
1
1
1
1
0.999997
0.898408
0.999999
1
0.997678
1
0.623374
1
1
1
1
1.31003
1
1
1
1
0.595865
1
1
1.35706
1.47251
0.999999
1
1
0.863394
1
1
1
1
1
1
0.920459
0.978343
1.30131
1
1
1
1.47501
0.87975
1
1
1
1.45683
1.44196
1
1.00001
1
1
1
1
1
1
1
0.612349
1
1
1.4696
0.594453
1
1.47006
1
0.616594
1
1
0.609974
1
1
1
1
1
1
1
1.35133
1.35431
1
1
1
1
1.35861
1
1.11819
0.603037
1
1
1
1
1
1
1
1.00877
1
1
1.24356
1
1
1
1.33075
1
1
1
1
0.603585
1
1
0.598209
0.605562
1
1
1.40885
1
0.95616
1
1
1
1.28934
0.609611
1
0.601133
1
0.752494
1
1
1
1.47335
1
1
1.39839
1
1
1
1.39848
1
1
1.40716
1
1
0.598586
1
1.11635
1
1
1.47241
1.47284
1.27755
1.34641
1
0.602344
1
1
1.36292
1
0.596531
1
1
1
1.39426
1
1
1
1
1.24534
1
1
1.46978
0.612984
1
1
0.576215
0.570933
1
1
1
1.29703
1.31501
1
1
1
1
1
1
1
1.16478
1.47274
0.978979
1
1.33074
0.598353
1
1
1
1.22627
1
1.0822
1
1.35678
1.34265
1
0.594197
1
1.47227
1
1
1.44173
1.34472
1
1.47364
1
0.600241
1
1
1
1.47723
1.35275
1.35187
1
1.47297
1.40635
1
1.39455
1
1.35267
1
0.605589
0.946189
0.603263
1
1
1
1
1
1.42046
1
1.41891
1
1
1
1.3628
1
0.602866
1.4001
1
0.603895
0.652789
0.630002
1
1.20135
1.00615
1.35609
1.40586
1
0.999999
1
1
1.42896
1
1
1.43097
1.4071
1
1.12596
1.00034
1
0.997002
1.46625
0.818498
1
0.791061
0.623596
0.621813
0.93017
1.45566
1.35447
1.05703
1.34932
1.40693
1
1
1.46914
1.4726
1.36447
1.4702
1
1.34089
0.607465
1.47084
1.46985
1.47386
1.47577
0.832842
0.866267
0.899569
1.40688
0.925279
1.47162
1
1
1.34692
1.47174
1
0.600849
1.47167
1.40672
1
1.42838
1.42759
1
1.42535
0.598503
1.47635
1.47134
1.47154
1.47727
1
1
1
1.40677
1.2681
0.62115
1.39763
0.597632
1.40771
1
1
1
1
1.47001
1.39737
1
1
1.3964
0.59713
1.47121
0.620055
1
1.36004
1
0.613068
1.38897
0.708732
1
1.40343
1.38935
1.41923
1
1
1
1.38864
0.614144
1.3875
1
1.34138
0.849959
1.42235
0.610855
1
1.46984
0.660053
1.35
0.613988
1
1.39149
1
1.46491
1
1.23637
1.35408
1.32435
0.576859
1
1.47045
1
1.33936
1
1.38106
1
1
1.47134
0.966745
1.38722
0.615962
1
1
1.30171
1
1.47176
1.38077
1.47199
1
1.33974
1.4716
1.34829
1.25199
1.4628
1
1.2769
1
1.47077
1
1.03886
1
1.36063
1
1.33755
1.36297
1.35835
1
1.01603
0.573759
1
0.60011
1
1
1
1.4706
1
1.37997
1
1
1
1.39583
1.05387
1.01694
1.47065
1.47572
0.596878
1.47263
1.47181
1
1.00394
1.38058
1.02978
1
1.47082
1.47326
1
1.43066
1.4726
1.47199
1.39022
1
1
1
1.35112
0.588261
1
1.3758
1
1
0.588451
1
1
1.3764
1.47113
1
1.38329
1.08178
1.44123
0.949625
1.43428
1
1.43693
1.37466
1.02754
1
1
1
1.4718
1.47096
1.36929
0.906522
1
1.43801
1.47117
1.4216
1
1.47163
1.47083
1.3742
1.43786
1
1.36898
1.41867
1.37198
1.4702
1.43672
1
1.47158
1.36052
1.37021
1.46967
1.47022
0.589175
1.44064
1.47141
1
1.35417
1.37098
1.35572
1.36737
1
1.36692
1.36549
1
1.40702
1.34305
1
1
1
1.47179
1.472
1
1
1.22187
1
1.30179
1
1
1.40814
1.32458
1.47111
1.40647
1
1
1
1.2983
1
1.34979
1
1
1.46764
1.4715
1
1.37881
0.59975
1.42287
1.47541
0.714168
1
0.581155
1.37349
1.47579
1.35772
1.36564
0.59893
1.47059
1.40671
0.595131
0.595067
1
1.33351
1.47079
1
1
1.36575
1
1.47269
1
1.35086
1
1.17935
1.47031
1.38959
1.29893
1.17488
1.4714
1.42164
1.1679
1
0.599991
1.34045
1.47159
1.42509
1
1
1
1.47544
1
1.47108
1.42083
0.726637
1
1.36661
0.999937
1
1.00001
1
1.47156
1.42909
1
1
1
1.34183
1.38765
1.35163
1.47711
1.47014
0.623467
1.007
1
1.35152
1.47092
1.47152
1.47509
1
1.38502
1.36363
1.38564
1
1.4722
1.4708
0.830662
1.38782
1.47227
1
1.35925
0.80585
1.47147
0.826888
1.38613
1
1.34856
1.47713
1.38021
1.38198
1.35213
1.44238
1.38468
1.47197
1
0.89499
1.47073
1.45579
0.80912
1.38031
0.952959
1.29043
1.47057
1.44336
1.47206
1
1.38809
1.31009
1.46871
0.892201
1.38576
1.47951
1
0.840424
1
1.16854
1
1.29456
1
1.07253
0.844995
1
1.35909
1.46499
1
1.47078
1.35929
1.4667
1.41411
1.41778
1
1.47256
1
1
1
0.86949
1.44038
1.47321
1.47769
1.37973
1.47155
1.47936
1.10022
1.38045
0.872449
1.01627
1
1
1.47939
1.37946
1.38897
1.40033
1.00003
1.23495
1
1.43056
1.41059
1
1
0.723797
1.37357
1
1
0.606045
1.39971
1
1.47241
1.3651
1.47111
1.34384
1.35105
1
0.575758
1.10963
1.47143
1.35332
1
1.34237
1.3757
1.17686
1.0084
1.047
1
1.46441
1.47083
1
1
0.590566
1
1
1.3804
1.37764
1.47384
1.35126
1.4014
1.47289
1.34679
1.35071
1.47128
1
0.997807
1.47113
1.34692
0.997802
1.37624
1.37455
0.576819
0.613974
1.34929
1.43575
1
1
1.00062
1.36574
1.47253
1.40011
1
1.37711
1
0.830149
1.42724
1.43706
1
1.1921
1.43518
1
1.47045
1
1.36888
0.999531
1.47406
1
1.47064
1.47774
0.588343
1.36592
1
1.47207
1.47282
1
0.581631
1.40705
1.01376
0.999961
1.07359
1.37261
1
0.96916
1.46665
0.999878
1.35688
1
1
1.47026
1
1.47065
1.3752
0.996627
1.37258
1
1.37396
1
1
1
1
1.40125
1
1
1.40585
1
1.35568
1
1.27474
1.40888
1.47348
1
1
0.968622
1
1.47292
1.36921
1.47217
1.35856
1.47113
1.35506
1.35438
1
1.36828
1.33821
1
1.35717
1.36717
1
1.47239
0.89132
0.999616
1.36989
1.36568
1.41511
1
1.36361
1
1.41266
1.36006
1
1.33674
1
1
1
1
1.36783
0.596075
0.99793
1
1.39936
1.2741
1
1.39163
1
1.00542
0.608331
1.3461
0.999578
1
1.36206
0.998418
1.35195
1
0.999894
1
1.36505
1.47708
1.36243
1.47102
0.615981
1.46887
1.42898
1.47209
1.11149
1
1
1.16941
1.40139
0.587442
0.61842
1
1.47088
1.40713
1.35394
1
1
1.43367
1.35092
0.999873
1
1.07645
0.595781
1
1.00329
1.47218
1.28281
0.999776
1.40531
1.43925
1
0.998907
1
1.47481
1.4659
1.01151
1
1.43834
1
0.99863
1.47417
0.601591
1.42076
1.39601
0.999433
1
1.40497
1
0.999989
1
1.42366
1
1
0.594632
1.40144
1
1
1
1
1.47432
1.24612
1
1
0.598649
1.35287
1.24284
1
1
1
1.34668
1.45128
1.47656
1
1
1.47908
1
1.41353
1.47091
1
1
1.35222
1.41432
1.41027
1
1
1.34165
1.42052
1
1
1
1.41924
1
1
1
1.47237
1.47443
1.39786
1
1.47569
1.00001
0.689869
1.42139
1.4198
1
1.47389
1.04874
1.47002
1
1
1.41965
1
1.17024
1.42888
1
0.58188
1
1.35291
1
1
1.40495
1
1
1
0.999379
1.42516
0.667997
1
1.34391
1
1
1.47169
1
1.41684
1
1
1.39039
1.42237
1
1.00005
1
1
1
1
1
1
1.41587
1.40006
1
1.47261
0.607588
1.42297
1
1.46919
1.48166
1.38989
1.47641
1.4729
1
1
1.41227
1
1.26568
1.41194
1.40654
1
1.40974
1.47665
1
1.41505
1
1.46913
1.27853
1.41297
0.998707
1.03047
1.39844
1.40921
1.38817
1.01445
1.40062
1.39961
1
1.38918
1
1.47126
1
1
1
1
0.997187
1.40266
1.47097
1.38183
1
1.42681
1
1
1
0.567759
1
1.40116
1
1.33526
1.46289
1
1
1
1.36897
1.46753
1
1
1.47019
0.608744
1.04619
1
1.41362
1.46125
1.33846
1.40054
1.45077
1
1.46897
1
1
1
1
1.4704
1.40673
1
1.45764
1.02639
1.47211
1.34043
1
1
1.33652
1
1
0.590993
1.33436
1
1
1.2066
1
1.40131
1.37843
1
1.37694
0.605806
1.4724
1.38475
1.3382
1
0.590214
1
1
1
1.47166
1.30182
1
1.40465
1.43873
1
1.39853
1
1
1
1
1.44121
0.999344
1
1.35715
1
1
1.47367
1.33178
1
1.43121
1.04759
1.00002
1
1.38591
1
1.38413
1
1.0043
1.43328
1
1.38617
1
1
1.11685
1.47186
1
1
1
1
1
1
0.603647
0.582499
1.02025
1
0.99467
1
0.989316
1
1.43494
1
1.28594
1
1.39294
1
1
1
1.39505
1
1.30161
1.47056
1
1.21441
1.40005
1
1
1.47082
1.38598
1
1
1.02405
0.579695
1
1.40763
1
1
1
1
1.07383
1.47111
1
1
1
0.5955
1
1.39173
1.47152
1.47583
1
1
1
1
1.15926
1.476
1
1
1
1.4702
1.32773
1.02626
1
1
1
1.43674
1.32456
1
0.583582
1.47147
1.33753
1.47388
1.47502
1.47331
1
1
1.47476
1.47257
1.39619
0.597702
1.04097
1.43553
1
1
1
1
1
1.43937
0.616173
1
1
1.39521
1.17416
1
1.47403
1
1
1
0.597135
1
1
1.06524
1.47131
1.33375
1
1.47793
1.47023
1
1.04752
1
1.47749
1
1.44096
0.613376
1
1
1
1
1.39658
1
1
1
1
1.45047
1
1
1
1
1.4191
0.596205
1.36665
1.4064
1
1.33335
1
1
1
1
1
1.47778
1
0.781025
1
1
1.00004
1.33326
0.608951
1
1.39327
1
1.34829
1.30912
0.60411
1
1
1.38509
1
1
0.601438
1
1.47043
1
1.34288
0.999659
1.33399
1
1
1
1
1.46988
1
1
1.31311
1
1
1
1
1
1
1
1
1.27008
1
1.14881
1.42135
1
1
1
0.596564
1
1
1
1
1.36409
1.40038
1.03009
1
1
1.34909
1
1
1.47191
1
1.00001
1
1
1
1.00001
1.47268
0.759952
1.3328
1.35611
0.996971
1
1
1
1.24405
1
1
1.4738
1.40053
1
1
1
1
0.607949
1
1
1
1.29073
1
1.3884
1.39878
1
1.36499
1
1
1
1.22881
1
1.47171
1
1.32055
1
1
0.995971
1.3303
1
1
1
1
1
1.46795
1
1
0.589539
1.46597
0.579139
1
1.47096
1
0.996181
1
1.39766
1.47646
1
1.47305
0.858904
1.3271
1.47773
1.00003
1
1
0.605182
1
1
1
1.34604
1.23954
1.18039
1
1
1
1
0.996701
1.38241
1
0.613549
1
1
1
1
1
1
1
1.43542
1.38128
1.4748
1
1
0.996908
1
0.954288
1
1
1
0.594384
0.951845
1
0.616568
0.594469
1
1.34162
1.39078
1
1.41004
1.40137
0.607378
1.30432
1
1
1
0.614827
1.47317
1
0.607212
1
1.48071
1.0517
1
1
1
1
1.31454
1.47365
1
1
1.33457
1
1
1.47053
1.34114
1
1.422
1.33391
1.46951
0.930049
1.47051
1.00828
0.606096
1.31723
1.328
1
1
1
0.602717
1
0.601125
1.43552
0.929156
1.31728
0.924714
1
1.33054
1.18433
1
1
1.47209
1
1.16205
1.37359
1
1
1.4383
1.11689
0.599486
1.00119
0.999901
1
0.999101
1
1.47255
0.916041
1.44761
1.19709
1
1
1
1
1.00764
1
1
1.38149
0.999656
1.47137
1.37115
1.1419
0.621448
1
1
1
1
1.47151
1.00004
1.38733
1
1.47228
1.47404
1.0583
1.46365
1.11462
1.47237
1
1.29995
0.644414
1.01543
1.47108
1.36848
1.0481
1.47331
1.32784
1.38576
1.46863
1
0.882411
1.06732
1
1.47231
1.22076
1.47087
1.00003
1
1
0.657791
1.00059
1.47163
1.33905
1
1.14405
1
1.03551
1.05457
1
1.38491
1.4716
1
1
1
1.38382
1
1.19032
1.19084
1.28962
1
1.40084
1
1
1
1
1
1
1
1
1
1
0.658882
1
1.44403
0.592835
1.24217
0.998542
1.01345
1
1.21501
1.00001
1.28311
1.39326
1
1.00224
1.48028
0.882737
1
1.08377
1.45355
0.914487
1
1.47325
1.47156
1.39965
1
1.40586
1.47217
1.37357
1
1.1734
1
1.00006
1.47155
1
1.47189
1.06523
1.38903
1
1
1.47445
1.10658
0.642382
1
1.47137
1.31302
1.34404
1
1
1.46985
1.47105
0.998239
1
1.4162
0.996911
1.44055
1.00005
1
1
1
1
1.17637
1
1.35597
1.47158
1.31113
1.38008
1
1.00306
1
1
1.46958
1
1.37965
1
1
1
1
0.999999
1
1.05757
1.21326
1
1
0.587502
1
1.39518
0.66651
1.47722
1
1.24228
0.999757
1.47199
1.27369
0.647914
1.22754
1.00003
1.40326
1.47097
1
1.26513
1.46868
1.37968
0.998403
1.4797
1.33085
0.61492
1
1
0.997482
1
1.46973
1
0.650927
1.38648
1
1
1.40558
1
1.47213
1
1.47316
1
0.652765
1
1
1.47439
1.15836
1.02975
1
1.0391
1.40048
1.47574
1
1
1.45558
0.999999
0.716502
1
1
1
1.47291
1
1.39081
1.26857
1.10122
1
1.33225
0.999388
1
1
1
1
1
1
0.687157
1
1
1.33215
1
1.47764
1.00414
1
0.636029
0.609243
1
1.36786
1.07243
0.609454
0.613411
1
1.38632
1
1.47015
0.610663
1.00134
1
1
0.99951
1
1
1
0.999915
1.16633
1.40045
1
1
1.39869
1.2431
1
1.41553
1.01463
1.46991
1.16648
1.00172
1
1.32156
1
1.46695
1
1.41396
1.38525
0.99675
1.4699
0.99966
1
1
1
1
1
0.889295
1.4716
1.00004
1.00003
0.598343
0.999984
0.586703
0.580551
1
1.47193
1.47044
1.47096
1
1.47149
1
0.617931
1
1
1.39066
0.803076
1.38585
1
1.4736
1
0.953865
1.47125
1
1
1
1.46767
1
1.46992
0.5968
1
1
1.24194
1
1
1.22346
1
1
1.47236
1
1
1
1
1
1.01171
1.38618
1
1.47098
1.38117
0.614335
1.18665
1.06185
1
1
1.36094
0.99898
1
1
1.39596
1.16856
1.30271
1
1.47115
0.640788
0.999318
0.999533
1
1.38536
1.00003
1.07935
1.38743
1.31676
1
1
1.39821
0.697621
0.603021
1
1.4714
1
1.47426
1
1.25268
1
1
1.34436
1.26421
0.610888
1
0.998381
1
1
1.02583
1.16097
1.3956
1
1.47669
1
1
1
1
1
1
1.06715
0.598043
1
1
1.00667
1
1
1
1
1
1.4734
1
1
1.47146
1.39064
1.33195
1
1
1
0.808659
1.4745
1.29081
1
1
1
1
1.47164
1
1
1
1.47083
1
1
1.29781
1.49079
1.00816
0.710774
1.00529
1.29489
1.47043
1
1.20414
1
1
1
0.605603
1.00275
0.616782
1
0.614028
0.602984
1
0.602083
1
1
1
1.18553
1
1.47043
1.47493
1.00109
1.21372
1.00917
0.605562
0.750505
0.847249
1
1.32269
1.47296
1.32752
1.38074
1.34468
0.841718
1
1.34479
1
1.4455
1
1
1
1.00979
1
1
1
1.47081
1
0.588351
1
1.38668
0.588657
1
1
1.37925
1
1.31755
0.999702
1
1
1.3405
1.42377
1
1.45352
1
1
1.01394
1
1.1995
1
1
0.609984
1
1
1.02931
0.999999
1.33556
1
1.00003
0.597777
1
1
0.578247
1.00089
1
1.47208
0.583987
1.47646
0.612589
1.47154
1
1
1
1
1
1
1
1
1
1
1
1.34249
1
1.34932
1.47222
0.608883
1
1
1
1
1
1
1.34643
1
1
0.615347
1
1
1.47267
1
1
1.1762
1.34186
0.597179
0.603689
0.675844
0.705043
1
1
0.592611
1.00029
1.43198
0.99697
1
1
1.47213
1
1
1
0.745968
1.00001
1.16495
1
1
1.1947
1.42417
1
0.602609
1
1
1
0.996499
1.00001
1.37164
1.37852
1
0.607475
1
1.22491
0.600683
1
0.850631
1
0.996301
0.59336
1
1
1
0.995722
0.608531
1
0.613054
0.998379
1.21416
1.42057
0.609649
0.605575
1
0.991025
1
0.998648
1
1.33498
1.33435
1
0.989229
1.47177
1.33357
1
1
1.37754
1
1
1.00001
1
1.47887
1
1
1.01817
1
0.99856
0.686452
1
1
1
1
1
1.36887
1.00585
1.00002
1
1
1
1
1
1.00002
1
0.616072
1.07357
0.998577
1.46856
1.46865
1
1.01538
1.47157
1.227
1
1
0.604522
1.44444
1
1.47175
1
1.44441
1.32269
0.617278
1
0.604933
0.999571
0.999688
1
0.599097
0.601463
1
1
1.33717
1
0.999998
0.609099
1
1
1
1.15121
1
0.607572
1.47115
1
1
1
1
1.33511
1
1
1.00084
1.35964
1
1
1
1.09337
0.625021
1
1.47151
1.37252
1
1.33114
0.999999
1.00003
1
1
1.43155
0.988235
1
0.593684
1.26056
1
1
0.997564
1
1
1.02375
1
1
1.00003
1
1.47237
1
1
1
1
1
1
1
1.16833
1
1.32889
1
1
1.37437
1
1
1
1.32988
1.00392
1.04125
1
0.997591
1
1
1
1
1.47223
1
1
1.47176
0.609167
1
1
1
1
1
1
1.33265
1
1
1.34671
1.47195
1
1
1
1.47163
1.3826
1
0.999692
1.34481
1
1
1
1.00002
0.585028
1.03015
0.996149
0.996049
1
1
0.617589
1.47155
1
0.616441
1
1.38118
1.36638
0.600357
0.999403
1.39981
1.47218
1.41942
1
1
0.901778
0.999954
1.38501
0.614961
1
1
1
1.16773
1.40792
0.590639
0.997256
1
1.47171
0.577076
1
1.00265
0.619779
0.949523
0.999558
1
1.00364
1
1
1
1
1
1
1.0001
1.34064
1
1
1.37284
1
1
1
1.37712
1
0.61549
1
1
1
1.15984
1
1
1
1
1
0.765144
1
0.576306
1
1.39434
1.00006
0.831667
0.836077
1
1.00455
1.21462
1
1
0.605382
1.38863
1.39618
1.3763
1
0.587904
0.610325
1
1.38887
1
1
1
1
1
1.00003
1
0.622917
1.26515
1
1
0.595685
0.954911
1.00001
1
1
1
0.591698
1
0.646091
1
1
1.47261
1
1
0.609787
1
1.47185
1
0.608594
1
0.622212
1
1.00777
1.33239
1.45255
1
1
1.47327
1
1
1.07217
0.996999
1
0.998231
1
1.4113
1
0.606045
1.00002
1.46897
0.998705
1
1
0.752632
1
0.999035
0.595341
1.38702
1.14413
1
1.00001
0.878869
1
1
1
0.758866
1
1
1
1.34967
1
0.618053
0.999999
1
1
1
0.609582
1.47112
1.42682
0.598749
1
1.33681
1
1
1.33145
1.4713
1.34362
0.609445
0.997725
1
1
1.37531
1
1
1
1
1.4744
1
1
1
1.43977
1
1
1.41023
0.589719
1
1
1
0.616443
1
0.999999
0.999999
0.999569
1
1
1
1
0.999694
1
1.47147
1.4702
1.44589
1.47073
1.47162
1.376
1
1.38349
1
1.47207
1.32327
1
0.999706
0.598923
1.35159
0.99991
1
1
1
1
0.966716
1
1.07059
1
1
1
0.819218
1.41188
1.47336
1.36313
1.39833
1
1
0.999992
1.47216
1
1.03521
0.997028
0.596874
1
1.00002
1
1
1
1
1
1.41437
0.61254
1.4119
1.37946
0.995303
0.570395
1
1
1
1.43399
0.586694
1.35325
0.610941
1.47131
1.36407
0.624176
1.2901
1.024
1
1.40454
0.776454
1
1
0.573473
1
0.588234
1
1.37526
1.30921
0.732185
1
1.47114
0.596158
1
0.612651
1
1.47095
1
1
1.4673
1
0.813099
1
0.99967
0.590517
1.47596
0.999473
1
0.57602
1
1
1
1
1.25337
1
1.35786
1
1
1.48337
1
1
1.47217
1
0.592257
1
0.605727
1.00001
1
1
1
1
1.36626
1.27087
1.39224
1
1.33081
1.36367
0.599381
0.590743
1
1
1.34887
1
0.593688
1
0.955182
1
1
1.47165
1
1.06372
0.583398
1.48184
1
0.588294
1
1
1.35049
1.33498
1
1.00004
1
0.999459
1
1
0.56839
0.999448
0.58307
1
1
1
1.33846
1.46836
1.4715
1
1
0.611524
1
0.999708
1
1
1
0.999596
1.33577
1.47073
0.597994
1.41489
1.3989
0.634093
1.47073
1.00004
0.632922
0.977498
1
1
1.43459
0.600361
1.27097
0.587545
1.39765
0.997312
0.592175
1.39958
1
1
1
1
1.33015
1.47227
0.619132
1
1.00002
0.616679
1.00004
1
0.637805
0.600415
1.30506
1.31819
0.998457
1.47083
1
1.02693
0.790137
0.602447
1.37974
1.4828
1
1.39909
1
1
1.47161
1
1.36193
1.47114
1
1
1
1
1.44723
1.33925
1.27023
1
1
1.3145
1.46888
1.472
1
1.45072
1
1
1
1
1
0.610227
0.821713
0.598983
1
1
1.47125
1
1
1.41871
0.607395
1
1.4711
1.34022
1.39218
0.598744
1
0.608354
1
1
1.47294
0.999866
1.47057
1.36038
1
0.609935
1
1.00314
1.30111
0.600251
1
1
1
0.766132
1
1
1.47884
1
0.595436
1.38509
1
1
1
1
1
1.33446
1.10132
1
1.47001
1
1.1419
1
0.997591
1
1.47102
1.46019
1.33467
1.41101
0.999911
1.47069
1
1.44054
1.47431
1.33323
1
1
0.594009
1.47329
1
1
1.47533
1.39682
1.08894
1
1.47127
1
1
1
1.46312
1.0174
1.129
1.10069
1.42231
1.32783
0.645818
1
1
1
1
1.00001
1.16553
1
1
1.39314
0.582234
0.999967
1
1.47191
1
0.999976
0.999968
1.44423
1.47279
0.882085
1
0.578271
1
0.965986
1.40856
1.39797
1.26447
1
1
1
0.609006
1
1
1.40743
1.04928
1
1
1
1
1
1
1
0.999941
1.47215
1.00002
1
1
1
1
1.29907
1
1.21397
1
1
1.39521
1.42236
0.59361
0.998755
1
1
1
0.617163
1.47031
1.33284
1
1
1
1
1
1
1
1
1.47205
1.46724
0.601552
1.0506
0.622947
1
0.607402
1
1.47143
1.10369
1
1
0.679232
1
1.39251
0.769329
0.996878
0.589155
1
1
1.47073
1.00001
0.99728
0.605021
1.4721
1.47209
1
1
1
1
1.34009
1
1
1.32343
1
1.47211
1.00011
1
1
0.57179
1
1
1.47036
0.602397
0.739385
0.611011
1.4718
0.999335
1
0.999729
0.61313
0.603186
0.979917
1
1
1.47211
1
1.01866
1
1
1.47234
0.624534
1
1
1.00013
1.47238
1.00017
1.45621
1
1
1
1
0.694231
1
0.768371
1
1
1.46929
0.576935
1
0.7413
0.783725
1
1
1.47069
1
1
1
1.46722
1.33005
1
1.46345
1.47148
0.758908
1.39355
1.45168
1
1
1.47135
0.999999
1
1
1
1
1.48026
1.3962
1
1
1
1.46997
1.00022
1
0.609328
0.689789
1
1.00003
1.16914
1
1
0.870945
0.605577
1
1
1
1.42265
1.36041
1.37107
1
1
1
1
0.57401
1
1.44909
1
1.33249
0.585378
1.47416
1
1
1
0.615544
1
1.4708
1
1
0.598403
1.13668
1
0.999665
1.48714
0.603381
0.599254
1
1.47191
0.607502
0.602656
1
0.587469
1
1
1
1
0.609868
1
1
1
1
1.47011
1
1.31888
0.583504
1
1
1
0.60054
1.41038
1
1
0.996818
1.26748
1
1.40887
1.47112
1
1
0.701941
0.609002
1
1
0.607216
1.11845
1.21245
1
1
1.47721
0.997348
1
0.997716
1.47275
1
1
1
1
1
1
1.47034
1
1.16082
1.0236
0.670327
1.36714
1
1.3262
1.47249
1
1
1
0.886182
0.575483
1
1.22266
1
1.0026
1
1
1
0.999999
1
1.00644
1.00814
1.33201
1.4388
1
1.37506
1
0.618435
1
0.9982
0.999781
1
0.581647
1
0.592123
1.00001
1.39611
1.47131
0.600234
1.42296
0.594196
0.99614
1.05907
0.588897
1.33152
1
1
0.998413
1
1
1
1.00006
1
0.586098
1
1
1
1
1
1.42097
0.771987
1
1
1
1.03837
1
1
1
1.26616
0.723393
1
1
1
1.02055
1.47341
1
0.573674
1
1.34047
0.870393
0.612767
1
0.608012
1
1
1.36322
0.998241
1.44238
1
1.00869
1
1
1.47242
1
1
1
1
1.00125
1
1.36416
1.3304
1.47243
0.575657
1.37394
0.997104
1.33989
1
1
0.586531
1
1
0.606357
1.47336
1
1
1
1
1
1
0.605693
0.590631
1
1.46971
1
1.1828
1.43984
0.599895
1.3847
1
1
0.651237
1
1
1.37989
1.33029
1.13377
1
1
1.00197
1.47178
0.577549
0.606037
1.47102
1.4019
1.31972
1.18527
1
0.866725
1
1
1
1.43584
1.47713
1.47248
1
1
1.46945
0.612091
1.43172
0.603191
1
0.59895
1
0.591353
1.47101
0.613167
1
0.94501
0.657371
1
1
1
0.810812
1.15521
1.45506
1.4723
1.47009
1
1
1.47154
1
1
1.47027
1
0.6126
1
0.580537
1
1.46995
1
1
0.986762
1.31737
1
0.998918
0.612303
1.33695
1.00001
0.570202
1.08792
1
1
1.3548
1.47088
1.47167
1
1.34147
1.09582
1
1.00243
1.39944
1
1
1
1
1.44444
1
0.603061
1.47196
0.596583
0.581498
0.800328
1.33962
1.04321
1.31816
1
1.46974
0.997595
1.00003
1.47244
1.47318
1
1.47058
1
1.46763
1
1.47152
1
1.00004
0.999957
1.47503
0.598115
0.604444
0.997802
0.999999
1
1
0.587494
1
1.27635
1
0.596788
1
1.15473
1.41101
1.47749
1
1
1
0.999445
1
1.47062
1.35368
1
1.16721
1.47341
0.813435
1.35292
1.00001
0.598553
1.09458
0.605805
1
1
1.07802
1.47133
1
1
1.01535
1
1
0.568733
1
0.75118
1
1.38364
1
1
0.591133
1.07829
1.03384
0.999629
1.4704
1.39159
0.755737
0.998097
0.589491
0.61124
0.591225
1
1
1
0.999088
0.679703
0.599069
1
1.39876
0.999745
1.39015
1.44863
1.47107
1.32573
1
0.590768
1.47175
0.620002
1
1.4078
1.47008
0.99679
0.780873
1.41069
1.33979
1
0.601058
1
1
1.4727
1
1.02838
1.4703
1
0.594961
0.587292
1
1
0.607218
0.590084
1.4559
1.00005
1
0.572421
0.599796
1.47365
1.4549
1.37848
1.47102
1.1017
0.945617
1.16023
1.47056
1.3495
1
1.23424
1
0.574604
0.826113
1
0.593893
1.36785
1.02108
1.37315
1
1.47189
1.4731
1
1.47236
1.38094
0.614649
1.40975
1
1.48739
1
0.728558
0.610186
1.47253
1
1
1
0.604865
1.47187
1.33489
1
0.613228
1
1
0.598132
1
0.609612
1.47057
1
0.77676
0.594459
1
1
1.26433
1
1
1
1.07948
0.615827
1
1.00001
1
1.47434
0.602924
1
1.47248
0.564785
0.597706
1
1
1.46977
1
1.25906
1.00001
1.43257
0.619889
1
1
0.605923
0.793752
0.582697
1
1
1
1
1.47355
0.587648
1
0.598692
1
1.46736
1
1
0.899192
1
1
0.780943
0.999677
1.00005
1
0.602742
0.610221
1
1
1
1
0.758076
1.33787
1.47101
1
0.598262
0.608363
0.881176
0.606597
1
0.791765
1
0.578583
0.951752
1
1
0.614662
1
1.42139
1.45518
0.613423
1
1
1
1.4696
1
1.02726
0.807526
1.14661
0.594192
1.1793
0.597351
1
1
0.674841
0.875208
1
1.0211
1
1
0.603916
1
0.900329
1.01949
0.599782
1
1.38124
0.714497
0.845988
1
1
1
0.608917
1
0.603752
0.598456
1
0.825175
0.60555
1.04354
0.699723
0.574466
1.47196
1
1.39148
1.24902
0.708384
1.3909
0.594415
0.999007
1.47119
0.999999
1
1.41489
1
0.692522
1
1.04151
1
1
1.42023
1
0.756614
0.791296
1.47168
0.900421
1
0.738222
1.47251
1.4701
0.874372
1
1.47129
1.1167
0.822127
1
0.988682
1
0.616861
1.20375
0.740257
0.708811
1
1
0.596209
1.40617
0.934972
0.610935
0.591758
0.825022
1
0.974933
1.47308
1.47156
1
1
0.999999
0.615459
1.19146
0.999988
1.31141
1.43967
0.600914
1
1.06094
0.842379
1.2741
1.41873
1
1.00387
1
1.00005
0.587588
0.820325
1
1
0.785607
0.588413
1.01225
1
1.00001
0.558857
1.18001
1
1.45813
1
1.00674
1.25255
1
1.46236
1
1
1.47412
1
0.603116
1.47304
0.660205
1.1177
1
0.601202
0.999913
1
1
1
0.761678
1.02671
0.615162
1.34608
1.47117
0.602179
1
1
1
1
1
0.945209
0.604013
1.03128
0.616313
0.602523
1.04372
1
0.999809
1.11851
1
1
0.62141
0.966646
1
1
1.08961
1
1.47046
1
1.47255
1.05755
0.983325
0.606076
1
1
0.57082
1
1
1
1
1.31333
1.04371
1
1
0.622395
1
0.999999
1
1.27351
1
0.610988
1.40016
1
1.00001
1
1.46972
0.600552
0.850123
0.61097
1.31846
1.47252
1
1
1.40974
1
0.601919
1
1
1
1
1
0.748275
1
1.47261
1
1
1.12546
1.47042
0.639867
0.839988
1
1.39912
1
1
1
1
1
1.47094
1.47174
0.581927
1.36474
0.599209
1
1
1.39499
1
1.47102
0.974346
1.02729
1.03561
1.44455
0.998824
1.28344
0.592138
1
0.59986
0.958594
1
1.47157
1
1
0.598242
1.47005
1
1.47065
1
1
1
1
1
1.00001
0.600975
1.47251
0.814606
1.4709
1
0.598653
0.641627
0.699891
1.47735
1.37822
0.940559
1
0.769544
1
1.1543
1
1.44268
0.601775
0.613408
0.823911
1
1.47199
1
1.04155
0.653557
1
1.47231
1.40673
0.998879
1
1.47169
0.607294
1.4713
1.37342
1.46984
0.601047
1.05336
1
1
0.61077
1
0.783202
0.801625
1
1
1.46515
1
1.46176
1.05984
1
1.00419
1.47765
1
0.5952
1
0.743264
1
1
1.33139
1
0.764788
1
0.618891
1.03756
0.918682
0.597909
1.39597
1.37772
1.47092
0.614141
0.672131
0.996091
0.999999
1
0.655591
1.3627
0.613771
0.999967
1
1.37479
1.47119
0.87616
1
0.610161
0.666962
1.28705
0.94764
0.611793
0.999999
0.597026
1.08178
0.616149
1
1.00006
0.780562
1.47091
1.47242
0.80216
0.999593
1
1
0.686146
1
0.616209
1
0.592639
0.615316
1
1
1.00002
0.616527
1.37718
1
1
1.00007
1.00004
0.594548
1.47224
1.40746
0.999999
0.61606
1.47076
1
1.06128
1
1
1.47392
0.607612
1
1
0.585825
0.713447
0.615193
0.580161
1
0.656815
0.997124
1.06628
0.606781
1
1
1.13241
1
1.36479
1
1
1.31501
0.639622
1
0.600539
1.10093
1.47136
1
1
0.602815
0.583839
0.59194
0.699089
0.574224
1.31644
0.999389
1
1
1
1
1.47122
0.56392
1
0.904198
1
0.998876
0.999941
0.715225
1.10243
1
1.39535
1.47125
1
1
1.41251
1.00004
0.999999
1.41262
0.594025
1.47869
0.999999
0.600477
1.47213
1.00005
1
0.787831
1
0.594362
1
1.4712
1
1
1.39756
1
1
1.46971
1
1
1
1.47042
1
0.713491
0.683742
1
0.60402
1.38137
1
1
0.944754
1
1.43005
1.24008
1.32415
1
1
0.63401
1
0.583067
1.31231
1.47004
1.47334
1
1.47154
0.613601
1
0.599496
1.33119
1.42354
1.47488
1.47109
0.723081
0.604448
1
1.1091
1.47155
1.47117
1.39099
0.727774
1.13969
1
1.31619
0.713595
1
1
1
1.00002
0.858312
1
1.47169
1
1
1
1
1
1
1.00006
1.40487
1
1.40923
1.30735
0.602209
1.47143
1.00403
1.19781
1
1.3836
1
0.605263
1
1
1
1
1.34859
1
0.607769
1.4187
0.603511
1.47057
1.33016
1.21139
1
1.08596
1.19296
0.995783
0.597449
0.762003
1
0.999999
0.882785
1
0.571166
1.47166
0.570453
0.901479
0.82771
1
1
1
1.01387
1
1
0.585387
0.997828
1.47232
1
1.37339
1
0.618085
1
1
1.36395
1.36973
0.610432
1
1.47169
1
0.788527
0.600746
1.47194
1.36096
1
1.07989
1.47195
0.99975
1
1.16419
1.35446
1.39589
0.99592
1
0.999998
1.34747
1
1
1
1.37674
1
1
1
1.47095
1
1
0.618578
1
1
1
1.47231
1
1
0.824874
1.11642
1.37305
0.752817
1
1.4706
1
1.16424
1
1.47027
0.998971
1.40668
1
0.608285
1
1.33396
1
1
1.36728
1.00001
1.47221
1
1.4724
0.646567
0.622269
1.47222
1
1.39986
1
1.47065
1
1
1.00005
1.47332
1.35131
1.09484
1.47195
1
0.597546
1.47138
0.822597
1
1.30848
1
1.44004
1
1.36861
1.47104
1
0.604848
1
1.42986
1
1.00477
1
1
0.997987
0.714502
1.36016
1
1.42075
1
0.839393
0.60515
1.37062
1.41835
0.667865
1
1.4717
1.46991
1.47061
0.660908
1.41828
0.632867
1.47113
1.46572
1
1
1.46209
1
1
1
1
0.610202
1
1
1.47073
1.42828
1
1.3519
1
1.46979
1.47103
1
1.34514
1
0.60645
1.38242
1.34819
1.10204
0.606857
1.38983
1
1
0.602506
1
1
1.45346
1
1
0.764054
1
1.47199
1.00009
1.31628
0.609912
1.47386
1
1.47187
1.37039
0.855841
1
1.26136
0.739562
1.47586
1.29497
1.46696
1.47343
0.997282
1.47238
1.47152
1.40655
1.47174
1.00044
1
0.606303
1
1.47135
0.804315
1.37273
1
1.37233
1
1
1
1
1
1.37406
0.607556
0.630609
1.47138
1.47187
1
1
1
1
1
1.36649
1.43255
1.40615
0.9882
1
1
1
1.00002
1.36949
1.4451
1
1.47073
1.47039
0.593889
1.30519
1
1.34121
1.42231
1.33185
0.997874
1.37362
1.47249
1
1.4379
1
1
1
1
1
1
1.47215
1.47165
1.36714
1.41099
0.612885
0.666866
1.39764
1.40611
1
0.57792
0.910452
1
1.19338
0.589654
1
0.999446
0.998279
0.614745
1
1.47122
1
1
1
1.47206
0.924974
1
1.47221
1.47001
1
1.47091
1
1
1.38996
1
0.595872
1
1.47142
1
1
0.599605
1
1.40438
1
0.606175
0.593452
1
1.29875
1
0.601612
0.852627
1
1.41059
1
1
1
1.42223
1
0.604708
1.06361
1.47052
1.33111
1.47217
1.01097
1.37118
1.4716
1
1.00002
1
1
1
1.40842
1
0.999292
1.37644
1
0.609588
1
1.40921
1.18992
1.03423
1.18455
1.03318
1.47509
0.665767
1.40981
1
0.61833
1
1.40913
0.930667
1.40882
1.46489
1.46887
1
1.4704
1.40935
1.40851
1
1.00004
1
1
1.47136
1.30092
1
1
0.591401
1
1
1.4718
1
1.40912
1.47188
1.474
0.88357
1.47184
1.47115
0.975047
1.00374
1.47038
1.46807
1
1.3463
0.807028
1.45851
0.964579
1.47035
1
1.39018
1.47128
1
0.600625
0.916937
0.67798
1
1.05696
1
1.4708
1
1
0.996668
1
1.19718
1.45505
1
1
1.37207
1
1
1.29615
1.30411
1.37131
1.47363
1.47267
1
1.4716
0.721577
1.47005
1
0.965267
0.597158
1
1
0.71618
1
1.11494
1
1.39754
1
1.37385
1.26416
0.613259
1
1
1
1
1
1.47043
1.01125
1
1.47221
1
1.47123
1.38874
0.999999
1
0.939162
1
0.608938
0.593369
0.698919
1.09125
1
0.999881
0.626467
1.00003
1
1.44195
0.902216
1.36439
1.4142
0.999999
1
1
1
1
1.4719
1.39765
1
1.47471
1
1.47097
1.28107
0.995601
0.999999
1
1
1.23995
1
0.928152
1
1.30795
1
1
1.39001
1
1
1
1
1
1.36908
0.610159
0.996296
1.34862
1.40532
1
1.38989
1
1
1
1
0.664358
1
1.4711
1.32718