/*--------------------------------*- C++ -*----------------------------------*\
  =========                 |
  \\      /  F ield         | OpenFOAM: The Open Source CFD Toolbox
   \\    /   O peration     | Website:  https://openfoam.org
    \\  /    A nd           | Version:  12
     \\/     M anipulation  |
\*---------------------------------------------------------------------------*/
FoamFile
{
    format      ascii;
    class       volScalarField;
    location    "2.93";
    object      p;
}
// * * * * * * * * * * * * * * * * * * * * * * * * * * * * * * * * * * * * * //

dimensions      [1 -1 -2 0 0 0 0];

internalField   nonuniform List<scalar> 
22702
(
1
1
0.860356
1
1.06247
1
1.47025
1
1
0.673738
1.47336
1.47203
1
1.47098
0.887541
1
1
1
1.47239
1
1.47249
1
1.47185
0.656618
1.47298
0.629561
1
1.47317
0.663947
0.658476
1
1.47311
1
1
1
1.4348
1.477
1.47134
1
1
0.67488
1
1.23068
1
1.4725
1
1
1
1
0.664258
1
0.663889
1
1.4731
1
1.4735
1
1
1
1
0.634626
1
1
0.652741
1
0.646777
1
1
1
0.656475
1
1.47195
1.28297
1
1.47101
1.49757
0.656097
1.47223
0.656473
1
1.47009
0.662081
1.47017
1.47038
1
1
1
1
0.932552
0.664729
1.47123
1
1
0.671948
1
1.47231
0.674045
1
1
1
1
1.22943
1.47022
0.642377
1
1
1.11132
1
0.660042
1
1.47237
1.47131
1
1
0.634977
0.63498
0.6682
1
1
1
1
1
0.917631
1
1.40309
1.04444
1.47199
1
1.47082
1.47079
1.4721
1.47334
1
0.64672
1
0.658339
1
1
1
1
1.47036
1
1
1
1
1.47151
1
1.02526
1
1
1
1
0.661975
1
1.01033
1
0.655866
1
1
1
1.46983
1
1.47268
0.646464
0.636873
1.47166
1.4729
1
1.07887
1.2676
1
1.47085
0.657029
1.43556
1
1
1
1
1.47059
1.38846
1
1.47103
0.643185
1.47211
1
0.66177
1
0.669526
0.633806
0.999786
1
1
1.47362
1
1
1.47184
1
1.4705
1.47113
0.657945
1
1
0.657428
1.47103
1
1
1
1.4711
1
0.659698
1
1
1.47146
1.47114
1.4715
1
1.00004
1
1
1
1.47156
1
0.643826
1.49012
1.47138
1.47317
1
1
1
0.642386
1.4715
1.22681
1
1.47347
0.646845
0.651158
1.47349
1.47118
1
1.47259
0.66029
1.41544
1
1
1
1
1.47122
1
1.28198
1.04099
1
1
1.47251
0.665089
0.750677
1
1.46999
0.681556
1.47624
1
1
1
1
1
1
1
0.661005
0.749818
0.648573
1.47118
1
1
1
1
1.41897
1
0.658458
1
0.634354
0.657144
1.47142
0.653329
1.47232
1
1
1
0.997749
0.662464
0.670858
0.999999
1
0.633118
1
1.47017
0.652912
1
1
1.47091
0.668718
1
1.47399
0.635652
1.472
1
0.644696
0.997871
1
1
1
0.653558
1
1
0.999998
1.00001
1.01457
1.28341
1
0.654833
1
1
1
1
1
1
1
1.47262
1
1.47513
1
1
1
0.6739
1
1.47145
0.651728
1
1.35943
1
1
1.47054
1
1
1
1.45945
1
1
1.47225
1.4698
1
1.08949
1
1
0.660594
1
1
1
0.665584
1
1
1
1
0.645063
1
1
1
1
1
0.66754
1.00007
1.47297
1
0.999974
1.47258
1.47222
1
1
0.667372
0.827497
1.47123
1
1
1
1.4712
0.656179
1
1.47233
1
1
0.710678
0.697906
1
0.652391
0.662
1
1
1
1
1
1
1
1.4726
1.1197
1.46084
0.669307
0.90455
1.46984
1
1.47086
1.47197
0.63979
0.780322
1
0.672759
1
1.48832
1
1
1
1
1.47101
1
1
1
1
1
1
1
1.16913
1.46943
1
1.47122
1
1
0.661106
1
1
1
1
1.47112
1.35508
1
1
0.651807
1.4714
1.47181
1
1.47169
1.47198
1.4712
1
0.844037
1
1.47072
0.987184
1.47115
1
0.65155
0.998955
1.4713
1
1
1
1
0.658413
1.47135
1.42529
1
1.46915
1.47069
1.47027
1
1.21784
1.47308
1
1
1.32608
1.06813
1.47155
0.92975
1.47161
1
1.47136
1.47121
1.4712
1.47146
1
1.45923
0.90399
0.874141
1
0.999999
1
1
1.47451
1
1
1
1
1
1.47092
1
1
0.995949
1.47196
1.40054
1
1.38869
1.00005
1
1
1.4708
1
0.997735
1.00471
1
1.4713
1
1.47221
1
1
1.34681
1
1.47211
1.00002
1
1.47176
1
1.47138
1
1
1
1.47139
1
1.47729
1.00001
1.47104
1.47395
1.47202
1.47188
1
1.47327
1.46337
1
0.659315
1.44141
1.33465
1
1.47125
1
0.664809
0.634345
1
1
1
1
1
0.67618
1
1.47111
1.11894
1.47066
1
1
1
1
1
1.47116
1
1.46928
1.27448
0.789797
1
1.00001
1.13849
1.11611
1
1
1.1639
1
0.660512
1.47166
1.47175
1
1
1
1.4712
1
1.00003
1.47676
1.47121
0.951669
1
1
0.663101
1.42674
1
1
1
1
1
1.47162
1.47168
1
1.47092
1.47657
1.47225
1
1
1
1
0.643015
1.47227
1
1
1.42708
1.47016
1
1.44304
1.46924
1
1
1
1
1
1.4715
1
1
1
1
1.47387
1
1.47105
0.65539
1
0.650856
1
1
1
0.996923
0.66971
0.999112
1
1
1
1.06112
1
1
0.87439
1
1
1
1
1
1
1
0.999997
0.927825
0.999999
1
0.99755
1
0.655268
1
1
1
1
1.34996
1
1
1
1
0.650119
1
1
1.4435
1.47234
0.999999
1
1
0.88378
1
1
1
1
1
1
0.950521
1.01459
1.47087
1
1
1
1.47648
0.90075
1
1
1
1.47216
1.47139
1
1.00001
1
1
1
1
1
1
1
0.677303
1
1
1.471
0.663312
1
1.47075
1
0.658589
1
1
0.672384
1
1
1
1
1
1
1
1.46184
1.47027
1
1
1
1
1.42837
1
1.13596
0.657677
1
1
1
1
1
1
1
1.03384
1
1
1.23851
1
1
1
1.38085
1
1
1
1
0.67489
1
1
0.655506
0.676015
1
1
1.47055
1
0.984181
1
1
1
1.3267
0.64457
1
0.641776
1
0.779098
1
1
1
1.47227
1
1
1.47087
1
1
1
1.4708
1
1
1.47159
1
1
0.642586
1
1.13392
1
1
1.47045
1.47026
1.3124
1.41935
1
0.652211
1
1
1.44972
1
0.651324
1
1
1
1.47215
1
1
1
1
1.2776
1
1.44337
1.46747
0.667183
1
1
0.636667
0.627989
1
1
1
1.33128
1.35317
1
1
1
1
1
1
1
1.1968
1.47066
1.01187
1
1.4657
0.641308
1
1
1
1.25279
1
1.09232
1
1.42864
1.46991
1
0.651119
1
1.47379
1
1
1.47115
1.44141
1
1.47577
1
0.658199
1
1
1
1.47346
1.46137
1.41336
1
1.47157
1.47151
1
1.47363
1
1.46977
1
0.682259
0.972478
0.6654
1
1
1
1
1
1.47265
1
1.47273
1
1
1
1.44775
1
0.657173
1.4711
1
0.664767
0.66449
0.648866
1
1.22638
1.03074
1.47272
1.4713
1
0.999999
1
1
1.47184
1
1
1.47183
1.47163
1
1.15453
0.99979
1
0.996842
1.4702
0.846321
1
0.824267
0.660933
0.660331
0.929665
1.47314
1.46474
1.09372
1.47159
1.47188
1
1
1.47351
1.47304
1.47129
1.47215
1
1.47238
0.671498
1.47619
1.47
1.4729
1.47306
0.87274
0.894743
0.926283
1.47117
0.954407
1.47082
1
1
1.47363
1.47182
1
0.669117
1.46848
1.47176
1
1.47144
1.47137
1
1.47185
0.654153
1.47667
1.4722
1.47319
1.47268
1
1
1
1.47154
1.29987
0.659488
1.4707
0.659151
1.47106
1
1
1
1
1.47024
1.47113
1
1
1.47103
0.655273
1.47136
0.655034
1
1.4679
1
0.67287
1.47393
0.737638
1
1.47099
1.47425
1.47113
1
1
1.21562
1.47387
0.660733
1.47116
1
1.4711
0.871522
1.47339
0.666956
1
1.46996
0.680077
1.4738
0.655128
1
1.47245
1
1.46986
1
1.27037
1.4531
1.36554
0.629901
1
1.47126
1
1.47134
1
1.47188
1
1
1.47114
0.983595
1.47448
0.673334
1.43659
1
1.32689
1
1.47137
1.47159
1.46935
1
1.42117
1.47132
1.43524
1.28646
1.46767
1
1.30817
1
1.47113
1
1.05543
1
1.43469
1
1.47122
1.44952
1.44805
1
1.46552
0.631575
1
0.651124
1
1
1
1.47196
1
1.47272
1
1
1
1.47247
1.4534
1.38734
1.47126
1.4752
0.65426
1.47251
1.47024
1
1.40199
1.47137
1.45216
1
1.47238
1.47412
1
1.4824
1.47223
1.47173
1.47413
1
1
1
1.47118
0.64029
1
1.47186
1
1
0.633473
1
1
1.47144
1.47168
1
1.47154
1.46335
1.47091
0.976695
1.47162
1
1.47147
1.47099
1.37437
1
1
1
1.47403
1.47133
1.47175
0.944737
1
1.47538
1.47145
1.47051
1
1.47167
1.47062
1.47124
1.47489
1
1.47097
1.47253
1.40235
1.47063
1.47335
1
1.47657
1.46598
1.47154
1.47228
1.47034
0.644253
1.47101
1.47105
1
1.47161
1.47137
1.47127
1.47083
1
1.47205
1.47131
1
1.47172
1.3961
1
1
1
1.47509
1.46585
1
1
1.2472
1
1.47204
1
1
1.47186
1.47369
1.47145
1.47172
1
1
1
1.32633
1
1.47078
1
1
1.47288
1.47275
1
1.47127
0.66995
1.47195
1.47387
0.730677
1
0.634286
1.40498
1.47434
1.47064
1.47047
0.653797
1.47018
1.47344
0.650269
0.65322
1
1.46962
1.47118
1
1
1.47158
1
1.46953
1
1.41017
1
1.21107
1.47133
1.47451
1.327
1.43306
1.47146
1.47123
1.43944
1
0.641692
1.46841
1.47156
1.47774
1.00001
1
1
1.47186
1
1.47175
1.47017
0.744104
1
1.47088
0.999937
1
1.00003
1.00005
1.47141
1.47299
0.998462
1
1
1.47132
1.47411
1.47158
1.4742
1.47094
0.655974
1.40878
1
1.46766
1.47131
1.47161
1.47578
1
1.47157
1.45825
1.47332
1
1.47244
1.47147
0.84162
1.47138
1.4733
1
1.47153
0.820961
1.47177
0.854003
1.47155
1
1.47172
1.47584
1.47154
1.47193
1.47164
1.472
1.47238
1.47192
1
0.924775
1.47148
1.47208
0.838598
1.47166
0.982727
1.29962
1.4714
1.47101
1.47345
1
1.47447
1.30167
1.47302
0.918341
1.47427
1.48136
1
0.869327
1
1.4776
1
1.31938
1
1.43966
0.872347
1
1.47598
1.47018
1
1.46873
1.47297
1.48128
1.47875
1.48061
1
1.47243
1
1
1
0.902783
1.47124
1.47255
1.47702
1.47125
1.46807
1.47385
1.46521
1.47239
0.903697
1.03243
1
1
1.47889
1.47204
1.47117
1.47076
1.00003
1.23047
1
1.48161
1.41334
1
1
0.761106
1.47104
1
1
0.672251
1.47123
1
1.46986
1.47084
1.47135
1.45276
1.47141
1
0.634914
1.10847
1.47076
1.4716
1
1.47234
1.47141
1.23977
1.00865
1.09946
1
1.46962
1.47149
1
1
0.648365
1
1
1.47133
1.4717
1.47225
1.47166
1.47121
1.47258
1.47175
1.47405
1.47138
1
0.995797
1.47264
1.47105
0.996571
1.47167
1.471
0.640059
0.670909
1.47456
1.47161
1
1
1.00063
1.4709
1.47096
1.47095
1
1.47145
1
0.855473
1.47995
1.47585
1
1.19882
1.4725
1
1.46947
1
1.47072
1.30585
1.46985
1
1.47253
1.47737
0.646989
1.47201
1
1.47231
1.47045
1
0.643538
1.47604
1.38954
0.997779
1.4512
1.47107
1
0.996956
1.46737
0.997982
1.4715
1
1
1.47222
1
1.47135
1.47144
0.996616
1.3784
1
1.47104
1
1
1
1
1.47066
1
1
1.47543
1
1.4718
1
1.29464
1.46801
1.47298
1
1
1.00163
1
1.47303
1.47153
1.47134
1.47144
1.47056
1.47107
1.47148
1
1.47077
1.47311
1
1.47111
1.47081
1
1.46955
0.925939
1.05922
1.47113
1.47099
1.47234
1
1.47138
1
1.47083
1.47115
1
1.47309
1
1
1
1
1.47106
0.638883
0.997892
1
1.4717
1.48023
1
1.47117
1
1.00529
0.664691
1.4717
0.999598
1
1.47252
0.998369
1.47158
1
0.999756
1
1.47259
1.4769
1.47126
1.47032
0.669862
1.47163
1.47309
1.47201
1.11382
1
1
1.20097
1.47117
0.63533
0.672226
1
1.47086
1.4717
1.47038
1
1
1.47163
1.47068
0.999878
1
1.34704
0.671074
1
1.08059
1.47187
1.46399
0.998244
1.47057
1.47678
1
0.999054
1
1.46996
1.47012
1.18623
1
1.43718
1
1.00186
1.47127
0.66876
1.46942
1.47125
0.996956
0.999913
1.41052
1
0.999688
1
1.4751
1
1.00001
0.652413
1.47227
1.00001
1
1
1
1.47093
1.26443
1
1
0.656142
1.47139
1.2637
1
1
1
1.4478
1.45819
1.47388
1
1
1.47834
1
1.47276
1.47136
1
1
1.47407
1.47139
1.44359
1
1
1.47422
1.47398
1
1
1
1.47469
1
1
1
1.47256
1.47166
1.47355
1
1.47158
1.00003
0.728343
1.46974
1.47114
1
1.47197
1.44306
1.47175
1
1
1.47703
1
1.25796
1.47246
1
0.643559
1
1.4734
1
1
1.47386
1
1
1
1.1451
1.47335
0.710171
1.00001
1.47287
1
1
1.47127
1
1.47622
1
1
1.47125
1.47194
1
1.00005
1
1
1
1
1
1
1.46893
1.47221
1
1.47003
0.647917
1.47709
1
1.47194
1.4803
1.47202
1.47528
1.47163
1
1
1.47512
1
1.28646
1.47539
1.47167
1
1.47371
1.46733
1
1.41241
1
1.47176
1.29696
1.47491
0.997429
1.46346
1.42855
1.47183
1.47248
1.0372
1.47164
1.47528
1
1.47077
1
1.47131
1
1
1
1
0.995763
1.47065
1.47123
1.39386
1
1.47756
1
1
1
0.634621
1
1.46045
1
1.42631
1.46445
1
1
1
1.43282
1.47243
1
1
1.4695
0.665167
1.0799
1
1.47552
1.4721
1.42876
1.45917
1.47176
1
1.47309
1
1
1
1
1.47395
1.47252
1
1.46427
1.05124
1.4722
1.43756
1
1
1.43965
1
1
0.649476
1.34006
1
1
1.47909
1
1.47604
1.42827
1
1.42622
0.663495
1.4723
1.47041
1.47272
1
0.645404
1
1
1
1.47166
1.38416
1
1.47702
1.47115
1
1.47192
1
1
1
1
1.4712
0.999348
1
1.47387
1
1
1.47048
1.47156
1
1.47885
1.08446
1.00002
1
1.47119
1
1.47145
1
1.01442
1.47191
1
1.47163
1
1
1.1324
1.47114
1
1
1
1
1
0.996208
0.654175
0.642946
1.01988
1
1.02477
1
1.02543
1
1.47184
1
1.27949
1
1.47197
1
1
1
1.4717
1
1.36739
1.47316
1
1.23946
1.47291
1
1
1.47206
1.47034
1
1
1.04704
0.630956
1
1.4732
1
1
1
1
1.07598
1.47187
1
1
1
0.655732
1
1.47149
1.47183
1.47713
1
1
1
1
1.22822
1.47289
1
1
1
1.47438
1.47164
1.04505
1
1
1
1.4712
1.47131
1
0.644716
1.47171
1.47196
1.47174
1.47058
1.46905
1
1
1.47993
1.46988
1.47074
0.654846
1.04135
1.47291
1
1
1
1
1
1.47105
0.670638
1
1
1.47075
1.21051
1
1.47879
1
1
1
0.655063
1
1
1.11754
1.47153
1.47008
1
1.46655
1.47758
1
1.0763
1
1.46825
1
1.47119
0.668151
1
1
1
1
1.47222
1.00007
1
1
1
1.45494
1
1
1
1
1.47091
0.655124
1.36803
1.47522
1
1.47205
1
1
1
0.997109
1
1.47585
1
0.807803
1
1
1.00003
1.47114
0.664898
1
1.46876
1
1.46969
1.47209
0.661656
1
1
1.44497
1
1
0.662101
1
1.47516
1
1.44911
0.99932
1.47184
1
1
1
1
1.47026
1
1
1.47107
1
1
1
1
1
1
1
1
1.3068
1
1.15035
1.47125
1
1
1
0.65315
1
1
1
1
1.4724
1.4717
1.04847
1
1
1.4728
1
1
1.47092
1
1.00002
1
1
1
1.00001
1.47277
0.786094
1.47214
1.4738
0.997056
1
1
1
1.27038
1
1
1.47072
1.47088
1
1
1
1
0.663379
1
1
1
1.29479
1
1.47186
1.4747
1
1.47333
1
1
1
1.24678
1
1.47273
1
1.47134
1
1
0.996119
1.47178
1
1
1
1
1
1.47484
1.00002
1
0.646899
1.47063
0.643669
1
1.47101
1
0.995955
1
1.47231
1.47631
1
1.45862
0.875896
1.47139
1.47542
1.00003
1
1
0.645927
1
1
1
1.47144
1.26303
1.47135
1
1
1
1
0.996731
1.4738
1
0.652371
1
1
1
1
1
1
1
1.47659
1.47178
1.47518
1
1
0.996858
1
0.98139
1
1
1
0.647626
0.981055
1
0.656591
0.652074
1
1.47265
1.47108
1
1.47501
1.47173
0.644604
1.30552
1
1
1
0.654628
1.47334
1
0.651334
1
1.47827
1.08231
1
1
1
1
1.47128
1.47336
1
1
1.47105
1
1
1.46917
1.47176
1
1.44785
1.47006
1.47154
0.961685
1.46858
1.00834
0.6493
1.3568
1.47224
1
1
1
0.673923
1
0.653659
1.47509
0.960792
1.47124
0.942143
1
1.47171
1.20429
1
1
1.47386
1
1.18864
1.46953
1
1
1.46949
1.4721
0.654269
1.27537
0.999894
1
1.27857
1
1.46787
0.940275
1.48213
1.47799
1
1
1
1
1.47158
1
1
1.47087
0.999637
1.47227
1.36868
1.46703
0.655697
1
1
1
1
1.47172
1.00004
1.47135
1
1.4726
1.47019
1.05834
1.47054
1.13322
1.47329
1
1.3193
0.676276
1.48119
1.47149
1.39332
1.08062
1.4734
1.47176
1.47227
1.47099
1
0.915502
1.06734
1
1.4715
1.22224
1.47244
1.00003
1
1
0.69417
1.47524
1.4733
1.37944
1
1.17547
1
1.47793
1.47791
1
1.47361
1.47282
1
1
1
1.47422
1
1.17954
1.47265
1.32223
1
1.47246
1
1
1
1
1
1
1
1
1
1
0.697097
1
1.44304
0.647893
1.27096
0.998562
1.47751
1
1.23871
1.00001
1.29553
1.39708
1
1.00142
1.47842
0.905336
1
1.47073
1.45217
0.937847
1
1.47293
1.47169
1.47453
1
1.47082
1.47321
1.47393
1
1.21297
1
1.00006
1.4723
1
1.4719
1.06753
1.47248
1
1
1.46909
1.4697
0.678732
1
1.47083
1.34673
1.47113
1
1
1.47308
1.47009
0.998238
1
1.40669
0.996849
1.4719
1.00009
1
1
1
1
1.21012
1
1.35338
1.47248
1.34568
1.46902
1
1.00337
1
1
1.46974
1
1.47404
1
1
1
1
0.999999
1
1.05683
1.23999
1
1
0.657322
1
1.46865
0.702076
1.47747
1
1.23426
0.999759
1.4719
1.29724
0.676534
1.25626
1.00003
1.47199
1.47461
1
1.28343
1.47679
1.47213
0.998402
1.46428
1.45759
0.651228
1
1
0.997564
1
1.4649
1
0.679866
1.46902
1
1
1.41519
1
1.47193
1
1.47337
1
0.677808
1
1
1.47354
1.4794
1.4789
1
1.47103
1.47142
1.46953
1
1
1.46422
0.999999
0.746382
1
1
1
1.47361
1
1.47066
1.30841
1.46823
1
1.47229
0.999384
1
1
1
1
1
1
0.710204
1
1
1.47159
1
1.4763
1.47592
1
0.676778
0.655878
1
1.47301
1.07341
0.664644
0.64777
1
1.47369
1
1.47619
0.66533
1.00164
1
1
0.9995
1
1
1
0.999914
1.18869
1.47116
1
1
1.47266
1.26788
1
1.41717
1.47323
1.4714
1.18858
1.47063
1
1.47229
1
1.46044
1
1.46853
1.47016
0.996617
1.47342
1.47324
1
1
1
1
1
0.919846
1.47353
1.00004
1.00003
0.658434
0.999977
0.636167
0.665878
1
1.47268
1.46969
1.47244
1
1.47172
1
0.655125
1
1
1.47422
0.834267
1.46887
1
1.47264
1
0.985655
1.47104
1
1
1
1.47283
1
1.47071
0.652055
1
1
1.27066
1
1
1.25372
1
1
1.47246
1
1
1
1
1
1.48051
1.47163
1
1.47106
1.47287
0.668326
1.20731
1.47136
1
1
1.42288
0.999018
1
1
1.47156
1.46711
1.31055
1
1.47312
0.679493
1.43169
0.999327
1
1.47099
1.00004
1.46876
1.38843
1.35087
1
1
1.47112
0.735635
0.663019
1
1.47088
1
1.47107
1
1.27431
1
1
1.47053
1.29858
0.649444
1
0.998309
1
1
1.02632
1.18775
1.47132
1
1.47573
1
1
1
1
1
1
1.06674
0.658414
1
1
1.03262
1
1
1
1
1
1.47116
1
1
1.47164
1.46993
1.3327
1
1
1
0.824902
1.47638
1.32319
1
1
1
1
1.47085
1
1
1
1.46976
1
1
1.33889
1.48903
1.03239
0.73876
1.47744
1.33177
1.46874
1
1.23526
1
1
1
0.655709
1.00279
0.670311
1
0.667004
0.65153
1
0.653194
1
1
1
1.20708
1
1.47268
1.4717
1.00162
1.21594
1.39613
0.657911
0.776747
0.884858
1
1.4719
1.47427
1.47183
1.47221
1.40301
0.874654
1
1.40497
1
1.4502
1
1
0.996561
1.01052
1
1
1
1.47176
1
0.653662
1
1.47332
0.645877
1
1
1.47209
1
1.47143
0.999856
1
1
1.47259
1.42286
1
1.48798
1
1
1.01471
1
1.19768
1
1
0.662263
1
1
1.47328
0.999997
1.4695
1
1.00003
0.653871
1
1
0.638858
1.00089
1
1.47221
0.635809
1.47012
0.678316
1.47084
1
1
1
1
1
1
1
1
1
1
1
1.45172
1
1.47331
1.47162
0.662384
1
1
1
1
1
1
1.45774
1
1
0.655769
1
1
1.47262
1
1
1.17843
1.39394
0.660156
0.657675
0.704435
0.730053
1
0.996682
0.643061
1.00024
1.42848
0.997008
1
1
1.47146
1
1
1
0.761234
1.00001
1.16485
1
1
1.18722
1.47309
1
0.659303
1
1
1
0.996537
1
1.47091
1.47195
1
0.668262
1
1.24981
0.658375
1
0.885555
1
0.996538
0.641166
1
1
1
0.995548
0.6637
1
0.666538
0.998417
1.24487
1.4202
0.66865
0.662034
1
0.990777
1
0.998665
1
1.47295
1.4702
1
1.01478
1.47219
1.47079
1
1
1.47177
1
1
1.00004
1
1.47637
1
1
1.01739
1
0.998587
0.713169
1
1
1
1
1
1.46874
1.03334
1.00005
1
1
1
1
1
1.00003
1
0.671496
1.10088
0.998594
1.45755
1.46905
1
1.01595
1.47242
1.40708
1
1
0.686226
1.47123
1
1.47108
1
1.4734
1.31862
0.672144
1
0.660145
1.42785
0.999686
1
0.662107
0.688136
1
1
1.39448
1
0.999998
0.657042
1
1
1
1.15068
1
0.658545
1.47306
1
1
1
1
1.47214
1
1
1.47481
1.42127
1
1
1
1.47054
0.665856
1
1.47158
1.47127
1
1.37498
0.999999
1.00003
1
1
1.43247
1.01958
1
0.651316
1.24645
1
1
0.997826
1
1
1.47589
1
1
1.00003
1
1.47256
1
1
1
1
1
1
1.00001
1.20631
1
1.46999
1
1
1.47258
1
1
1
1.47205
1.4763
1.04572
1
0.997494
1
1
1
1
1.47267
1
1
1.47073
0.652582
1
1
1
1
1
1
1.37868
1
1
1.47514
1.473
1
1
1
1.47165
1.46881
1
0.999681
1.47362
1
1
1
1.00002
0.657385
1.02997
0.995826
0.996021
1
1
0.651535
1.47241
1
0.698472
1
1.47286
1.45127
0.660504
0.999409
1.47109
1.47205
1.47033
1
1
0.922993
1.41354
1.39059
0.700325
1
1
1
1.46859
1.47181
0.643624
0.997337
1
1.47161
0.651395
1
1.46718
0.66333
0.966089
1.00648
1
1.48056
1
1
1
1
1
1
1.0001
1.4366
1
1
1.46902
1
1
1
1.47117
1
0.674801
1
1
1
1.15935
1
1
1
1
1
0.785648
1
0.6485
1
1.47237
1.00008
0.855301
0.865592
1.00002
1.00396
1.24618
1
1
0.655723
1.47069
1.47255
1.47117
1
0.654135
0.661314
1
1.47011
1
1
1
1
1
1.00003
1
0.663485
1.30366
1
1
0.655516
0.989661
1.00001
1
1
1
0.636411
1
0.682471
1
1
1.4801
1
1
0.661948
1
1.4719
1
0.6561
1
0.664923
1
1.00804
1.4698
1.48625
1
1
1.47359
1
1
1.10161
0.997038
1
0.998156
1
1.47345
1
0.667953
1.00002
1.46938
0.998728
1
1
0.785784
1
0.998995
0.664174
1.47355
1.16959
1
1.00001
0.905279
1
1
1
0.77791
1
1
1
1.47181
1
0.669716
0.999999
1
1
1
0.64947
1.47085
1.43365
0.664693
1
1.47399
1
1
1.47183
1.47272
1.39564
0.658932
0.997647
0.999208
1
1.4711
1
1
1
1
1.47045
1.00004
1
1
1.46995
1
1
1.47122
0.638903
1
1
1
0.659639
1
0.999999
0.999999
0.998634
1
1
1
1
1.37722
1
1.46935
1.47051
1.48149
1.47231
1.4722
1.47108
1
1.47358
1
1.47175
1.47113
1
0.998898
0.648765
1.40287
0.999897
1
1
1
1
0.995323
1
1.07101
1
1
1
0.82843
1.47153
1.4701
1.47529
1.39582
0.999874
1
1.02384
1.47238
0.997937
1.05388
0.997044
0.669832
1
1.00002
1
1
1
1
1
1.47039
0.672467
1.47075
1.4719
0.99542
0.631166
1
1
1
1.47101
0.643601
1.41388
0.654072
1.47158
1.47749
0.664742
1.47399
1.02493
1
1.47538
0.815302
1
0.998776
0.647222
1
0.651815
1
1.47138
1.47242
0.749352
1
1.47062
0.665895
1
0.655392
1
1.47079
1
1
1.46611
1
0.844212
1
0.999689
0.652041
1.47002
0.999474
1
0.642145
1
1
1
1
1.25327
1
1.47073
1
1
1.48307
1
1
1.47186
1
0.649196
1
0.663815
1.00001
1
1
1
1
1.45058
1.27201
1.47168
1
1.47161
1.43695
0.646493
0.651886
1
1
1.47102
1
0.648714
1
0.987599
1
1
1.47093
1
1.47041
0.652205
1.48526
1
0.652663
1
1
1.47594
1.46979
1
1.00004
1
1.46369
1
1
0.64334
0.999404
0.638271
1
1
1
1.47361
1.468
1.47103
1
1
0.696285
1
1.46772
1
1
1
1.45061
1.47128
1.47144
0.656026
1.47395
1.4713
0.672143
1.47092
1.00004
0.678769
1.0153
1
1
1.47025
0.65598
1.29478
0.651476
1.47151
0.997444
0.659048
1.47439
1
1
1
1
1.47143
1.47366
0.665491
1
1.00002
0.656464
1.00004
1
0.671674
0.665716
1.32573
1.47393
0.998487
1.47173
1
1.47775
0.81735
0.649801
1.47167
1.48424
1
1.473
1
1
1.471
1
1.35628
1.47097
1
1
1
1
1.47064
1.4656
1.47541
1
1
1.47422
1.4728
1.4721
1
1.47074
1
1
1
1
1
0.658369
0.84564
0.663852
1
1
1.47071
1
1
1.46741
0.642537
1
1.47125
1.46603
1.45047
0.64234
1
0.67298
1
1.00003
1.47331
1.21884
1.47251
1.42787
1
0.687599
1
1.47495
1.33428
0.666398
1
1
1
0.797906
1
1
1.48223
1
0.660814
1.47166
1
1
1
1
1
1.37424
1.10146
1
1.47075
1
1.46891
1
0.997403
1
1.47125
1.47049
1.47178
1.47479
0.999599
1.47107
1
1.47121
1.47009
1.39562
1
1
0.647207
1.47314
1
1
1.4728
1.47302
1.46902
1
1.47168
1
1
1.00003
1.4698
1.47503
1.13512
1.10086
1.47206
1.47
0.689035
1
1
1
1
1.00001
1.16278
1
1
1.4005
0.641229
0.999975
1
1.47179
0.999883
0.999817
1.06752
1.43443
1.47312
0.908901
1
0.643477
1
0.995708
1.47079
1.47367
1.47352
0.999002
1
1
0.655404
1
1
1.47035
1.05034
1
1
1
1
1
1
1
0.999941
1.47271
1.00002
1
1
1
1
1.28938
1
1.21873
1
1
1.47172
1.47371
0.652053
0.998773
1
1
1
0.660655
1.47136
1.47209
1
1
1
1
1
1
1
1
1.47123
1.468
0.66215
1.05144
0.663422
1
0.648302
1
1.47153
1.12389
1
1
0.71299
1
1.44991
0.812398
0.996506
0.642219
1
1
1.46989
1.00004
0.9972
0.641528
1.4712
1.47502
1
1
1
1
1.43885
1
1
1.47154
0.998934
1.47218
1.00009
1
1
0.649473
1
1
1.46987
0.647226
0.781635
0.65983
1.47154
0.999332
1
1.46949
0.67388
0.66673
1.01423
1
1
1.47204
1.00004
1.20198
1
1
1.47271
0.661398
1
1
1.00014
1.47337
1.00015
1.46399
1
1.00003
1
1
0.738449
1
0.790829
1.00002
1
1.47547
0.651116
1
0.783296
0.813415
1
1
1.47065
1
1
1
1.47217
1.47208
1.00005
1.46719
1.47113
0.798441
1.47106
1.448
1
1
1.46768
0.999999
1
1
1
1
1.47818
1.4714
1
1
1
1.4695
1.00022
1
0.658888
0.738685
1
1.00003
1.16684
1
1
0.899368
0.664477
1
1
1
1.47476
1.42992
1.47156
1
1
1
1
0.651642
1
1.45335
1
1.46977
0.636512
1.46739
1
1
1
0.698236
1
1.47075
1.00003
1
0.667566
1.17028
1
0.999657
1.48134
0.648564
0.666733
1
1.47229
0.662851
0.65452
1
0.652912
1.00001
1
1
1
0.677659
1
1
1
1
1.46963
1
1.35576
0.639462
1
1
1
0.660899
1.47141
1
1
0.996893
1.45853
1
1.47064
1.47104
1
1
0.724543
0.6694
1
1
0.663618
1.14522
1.21158
1
1
1.47543
0.997329
1
0.997538
1.47183
1
1
1
1
1
1
1.47209
1
1.16149
1.15269
0.708806
1.41571
1
1.47183
1.47095
1
1
1
0.912089
0.650664
1
1.22411
0.999642
1.43054
1
1
1
0.999999
1
1.00441
1.20699
1.4728
1.47046
1
1.47211
1
0.677191
1
0.99771
0.999785
1
0.631997
1
0.648062
1.00002
1.47443
1.47053
0.658633
1.47409
0.667704
0.996091
1.35012
0.638008
1.33469
1
1
0.998437
1
1
1
1.00006
1
0.63984
1
1
1
1
0.999591
1.4699
0.809965
1
1
1
1.03757
1
1
1
1.2652
0.755401
1
1
1
1.05546
1.47309
1
0.638508
1
1.47354
0.903116
0.675448
1
0.657151
1
1
1.4447
0.998225
1.45094
1
1.00893
1
1
1.47221
1
1
1
1
1.09032
1
1.47148
1.47352
1.47293
0.649041
1.47247
0.997145
1.38183
1
1
0.631132
1
1
0.662918
1.47142
1
1
0.999963
1
1
1
0.641407
0.644229
1
1.47024
1
1.21634
1.47114
0.652458
1.39117
1
1
0.681027
1
1
1.47131
1.47095
1.169
1
1
1.00216
1.47183
0.648745
0.658312
1.46938
1.47138
1.31469
1.1866
1
0.893869
1
1
1
1.43678
1.47959
1.47477
1
1
1.46935
0.666268
1.42012
0.637403
1
0.653803
1
0.638237
1.47156
0.644928
1
0.977461
0.700751
1
1
1
0.844262
1.44454
1.4714
1.4725
1.47055
1
1
1.4716
1
1
1.47062
1
0.687841
1
0.644788
1
1.47017
1
1
1.01462
1.35569
1
0.999008
0.668146
1.47086
1.00001
0.629989
1.08984
1
1
1.35523
1.47081
1.47058
1
1.47237
1.11472
1
1.02418
1.47133
1
1
1
1
1.47121
1
0.647158
1.47239
0.658003
0.65105
0.836042
1.47273
1.15997
1.47304
1
1.47023
0.997459
1.00003
1.47176
1.47256
1
1.47094
1
1.47107
1
1.47123
1
1.00004
0.999981
1.47349
0.6487
0.658077
0.997854
0.999999
1
1
0.641694
1
1.30762
1
0.637953
1
1.18357
1.47049
1.47784
1
1
1.00003
0.999417
1
1.47076
1.47109
1
1.19224
1.47235
0.842767
1.47155
0.999644
0.654943
1.09896
0.686607
1
1
1.07776
1.4733
1
1
1.03242
0.998627
1
0.632058
1
0.779207
1
1.46901
1
1
0.664678
1.10593
1.06369
0.998465
1.47286
1.47089
0.783174
0.998103
0.641788
0.681441
0.641046
1
1
1
0.99907
0.713978
0.662411
1
1.47182
0.999747
1.4712
1.47327
1.47036
1.47089
1
0.638616
1.47244
0.671985
1
1.47152
1.47734
0.996888
0.816969
1.47296
1.34297
1
0.659741
1
1
1.47453
1
1.02678
1.46942
1
0.657576
0.635615
1
1
0.662136
0.653164
1.47165
1.00005
1
0.638234
0.656412
1.47176
1.45839
1.44096
1.47013
1.12685
0.981666
1.18352
1.47279
1.37451
1
1.2364
1
0.633463
0.860168
1
0.653481
1.47091
1.02128
1.47297
1
1.47164
1.47302
1
1.47219
1.47199
0.665341
1.47461
1
1.48553
1
0.75061
0.657595
1.47209
1
1
1
0.64616
1.47238
1.47289
1
0.657478
1
1
0.651111
1.00004
0.639392
1.47352
1
0.819441
0.661785
1
1
1.2706
1
1
1
1.08178
0.658761
1
1.00001
1
1.47244
0.658001
1
1.4716
0.62808
0.670958
1
1
1.47534
1
1.47168
1.00001
1.47128
0.662161
1
1
0.665202
0.818036
0.642647
1
1
1
1
1.47729
0.637646
1
0.64884
1
1.47777
1
1
0.927608
1
1
0.826292
0.999657
1.00006
1
0.661945
0.654979
1
1
1
1
0.782746
1.46954
1.47115
1
0.656024
0.660673
0.905768
0.654507
1
0.829741
1
0.652596
0.982861
1
1
0.657804
1
1.47059
1.45202
0.660957
1
1
1
1.47034
1
1.04534
0.827682
1.14961
0.651612
1.18086
0.657275
1
1
0.705719
0.912295
1
1.03465
1
1
0.677893
1
0.929346
1.03952
0.653749
1
1.37104
0.736151
0.886565
1
1
1
0.662341
1
0.650053
0.664148
1
0.857974
0.657188
1.07175
0.737197
0.644442
1.47139
1
1.47181
1.24969
0.72172
1.47149
0.661398
0.999003
1.47204
0.999999
1
1.47326
1
0.730827
1
1.07515
1
1
1.47142
1
0.780848
0.820449
1.47114
0.929193
1
0.741613
1.47183
1.47152
0.911011
1
1.47151
1.11732
0.850839
1
1.01661
1
0.66895
1.19719
0.773449
0.748515
1
1
0.648551
1.47183
0.957042
0.653237
0.646774
0.86262
1
1.00492
1.47369
1.47082
1
1
0.999999
0.659027
1.21237
0.99999
1.47258
1.44038
0.66251
1.00001
1.09729
0.88031
1.26684
1.40627
1
1.0426
1
1.00005
0.641614
0.848275
1
1
0.817175
0.640132
1.03985
1
1.00002
0.625926
1.20661
1
1.46156
1
1.03102
1.24842
1
1.46384
1
1
1.47581
1
0.653213
1.47213
0.697744
1.12679
1
0.654714
0.999905
1
1.00003
1
0.791054
1.02765
0.664259
1.33505
1.47077
0.636529
1
1
1
1
1
0.959019
0.67672
1.05942
0.658646
0.654448
1.06652
1
0.999802
1.12037
1
1
0.672895
0.994848
1
1
1.13042
1
1.47227
1
1.47105
1.09208
1.01939
0.647399
1
1
0.631234
1
1
1
1
1.47326
1.04399
0.998051
1
0.651512
1.05317
0.999999
1
1.30409
1
0.668355
1.46945
1
1.00001
1
1.46993
0.66626
0.881258
0.651321
1.35151
1.47229
1
1
1.47101
1
0.658501
1
1
1
1
1
0.775942
1
1.47423
1
1
1.15654
1.47217
0.679131
0.864683
1
1.47126
1
1
1
1
1
1.47093
1.47083
0.650305
1.47093
0.635067
1
1
1.47113
1
1.46947
1.00634
1.02841
1.06173
1.4733
1.07322
1.31799
0.636512
1
0.641605
0.984628
1
1.47158
1
1
0.640579
1.4694
1
1.47074
1
1
1
1
1
1.00001
0.66778
1.4728
0.847308
1.47137
1
0.646588
0.673679
0.720802
1.47919
1.47185
0.967914
1
0.802186
1
1.18415
1
1.4714
0.650541
0.664032
0.861192
1
1.47188
1
1.07149
0.678837
1
1.47201
1.41753
0.998876
1
1.47156
0.657136
1.47488
1.47254
1.4767
0.661245
1.09592
1
1
0.63871
1
0.815466
0.838874
1
1.00002
1.47189
1
1.47845
1.08834
1
1.03922
1.47951
1
0.662229
1
0.776766
1
1
1.38342
1
0.79725
1
0.657933
1.03762
0.946781
0.660152
1.47312
1.38163
1.47117
0.658254
0.713814
0.996356
0.999999
1
0.697165
1.44366
0.663288
0.99997
1
1.47117
1.47066
0.904491
1
0.657592
0.71275
1.30787
0.972519
0.640654
0.999999
0.660996
1.11437
0.664995
1
1.00006
0.800758
1.47064
1.47202
0.828517
0.999594
1
1
0.711995
1
0.659026
1
0.662649
0.674468
1
1
1.00003
0.661979
1.47176
1
1
1.00007
1.00004
0.658674
1.4717
1.47063
1
0.66489
1.47064
1
1.09472
1
1
1.47071
0.660743
1
1
0.658292
0.756214
0.66531
0.650991
1
0.686256
0.997113
1.09369
0.644096
1
1
1.13192
1
1.41848
1
1
1.31765
0.690032
1
0.668498
1.1183
1.47194
1
1
0.64395
0.647011
0.633359
0.718048
0.630605
1.35226
0.999379
1
1
1
1
1.47195
0.630445
1
0.93157
0.999676
0.99905
0.999935
0.750127
1.1214
1
1.47167
1.47038
1
1
1.44704
1.00004
0.999999
1.47082
0.646348
1.47019
0.999999
0.662503
1.47228
1.00005
1
0.82556
1
0.642982
1
1.47188
1
1
1.47386
1
1
1.46619
1
1
1
1.46939
1
0.750621
0.72133
1
0.639576
1.47216
1
1
0.972573
1
1.47784
1.26883
1.37542
1
1
0.66327
1
0.64359
1.47051
1.46944
1.47254
1
1.47178
0.664876
1
0.658609
1.37273
1.43098
1.4753
1.47213
0.744057
0.645254
1
1.30593
1.47109
1.47075
1.47091
0.754322
1.16384
1
1.35235
0.744082
1
1.00002
1
1.00002
0.896702
1
1.47065
1
1
1
1
1
1
1.00006
1.46879
1
1.47525
1.34347
0.657063
1.47382
1.02949
1.23101
1
1.47123
1
0.649731
1
1
1
1
1.40031
1
0.646948
1.47029
0.632442
1.47114
1.3704
1.24237
1
1.08638
1.21558
0.995384
0.675719
0.775281
1.00002
0.999999
0.920804
1
0.637732
1.47123
0.642273
0.923951
0.857576
1
1
1
1.01449
1
1
0.654292
0.997621
1.47383
1
1.47125
1
0.660367
1
1
1.47158
1.47044
0.648003
1
1.47135
1
0.819087
0.657112
1.47177
1.42231
1
1.07833
1.47194
0.99866
1
1.18916
1.41376
1.46888
0.995242
1
0.999998
1.40037
1
1
1
1.47159
0.998502
1
1
1.47025
1
1
0.662835
1
1
1
1.4726
1
1
0.860458
1.14241
1.42514
0.780949
1
1.47115
1
1.15877
1
1.47048
0.997233
1.47152
1
0.656474
1
1.3363
1
1
1.43901
1.00002
1.47209
1
1.47009
0.697327
0.657657
1.47172
1
1.39986
1
1.47081
1
1
1.00005
1.47324
1.47444
1.11124
1.47203
0.995633
0.675533
1.47043
0.867337
1
1.47114
1
1.4708
1
1.47383
1.47051
0.996411
0.65473
1
1.47184
1
1.03434
1
1
0.997988
0.751051
1.4203
1
1.43264
1
0.87015
0.647717
1.47068
1.47385
0.713238
1
1.47176
1.47053
1.47094
0.688222
1.47256
0.677992
1.47177
1.47337
1
1
1.47132
1
1
1
1
0.673692
1
1
1.47138
1.47157
1
1.47135
1
1.47092
1.47083
1
1.38724
1
0.644543
1.47122
1.34926
1.12357
0.633402
1.47104
1
1
0.644845
1
1
1.4712
1
1
0.800596
1
1.47225
1.00009
1.47
0.640432
1.47276
1
1.47189
1.45279
0.904771
1
1.47096
0.764657
1.47803
1.33237
1.47125
1.47337
0.997214
1.47004
1.47086
1.47144
1.47096
1.00025
1
0.677254
1
1.4714
0.822407
1.42815
1
1.46235
1
1
1
1
1
1.46963
0.640011
0.667784
1.4712
1.47179
1
1
1
1
1
1.46766
1.43131
1.47169
1.01922
1
1
1
1.00003
1.47051
1.47137
1
1.47136
1.47048
0.651121
1.32819
1
1.47167
1.47231
1.46838
0.997884
1.47282
1.47244
1
1.42283
1
1
1
1
1
1
1.4724
1.4713
1.43741
1.47253
0.642433
0.697853
1.47185
1.47161
1
0.630538
0.933718
1
1.21713
0.636518
1
0.999445
0.998281
0.658721
1
1.47085
1
1
1
1.47148
0.934206
1
1.47199
1.47169
1
1.4702
1
1
1.47112
1
0.643569
1
1.47231
1
1
0.660032
1
1.47305
1
0.644647
0.652235
1
1.45585
1
0.633567
0.885206
1
1.4718
1
1
1
1.47226
1
0.658302
1.06333
1.47061
1.47354
1.47084
1.04244
1.47363
1.47165
1
1.00002
1
1
1.00001
1.47038
1
0.999304
1.47044
1
0.640271
1
1.47148
1.21071
1.04158
1.21359
1.05941
1.46091
0.691274
1.47105
1
0.662768
0.997225
1.47258
0.934263
1.4722
1.47116
1.46622
1
1.47069
1.47037
1.47103
1
1.00004
1
1
1.47116
1.33316
1
1
0.653789
0.996643
1
1.47087
1
1.47216
1.47213
1.47233
0.907444
1.47198
1.47049
1.00936
1.22368
1.47003
1.4712
1
1.43376
0.838804
1.46288
0.984809
1.47113
1
1.47092
1.4718
1
0.648239
0.928213
0.71636
1
1.08242
0.996704
1.47201
1
1
0.996831
1
1.22975
1.44187
1
1
1.47259
1
1
1.33432
1.47086
1.45208
1.47194
1.47141
1
1.46992
0.741244
1.46994
1
1.00328
0.650229
1
1
0.732094
1
1.14445
1
1.47274
1
1.46238
1.28982
0.657022
1
1
1
1
1
1.47128
1.01099
1
1.4702
1
1.47237
1.47128
0.999999