/*--------------------------------*- C++ -*----------------------------------*\
  =========                 |
  \\      /  F ield         | OpenFOAM: The Open Source CFD Toolbox
   \\    /   O peration     | Website:  https://openfoam.org
    \\  /    A nd           | Version:  12
     \\/     M anipulation  |
\*---------------------------------------------------------------------------*/
FoamFile
{
    format      ascii;
    class       volVectorField;
    location    "5.1";
    object      U;
}
// * * * * * * * * * * * * * * * * * * * * * * * * * * * * * * * * * * * * * //

dimensions      [0 1 -1 0 0 0 0];

internalField   nonuniform List<vector> 
46253
(
(0.927627 -0.00529018 0)
(0.894535 0.000512027 0)
(0.775543 0.0010374 0)
(0.894715 0.00064283 0)
(0.778549 0.00196203 0)
(0.781263 0.000761437 0)
(1.13823 0.0364827 0)
(0.813016 -0.0193801 0)
(0.898433 0.000316402 0)
(0.898964 0.000311784 0)
(0.928706 -0.00362793 0)
(1.07464 -0.077285 0)
(0.912657 0.00218775 0)
(0.912737 0.00110684 0)
(0.910379 0.0126382 0)
(0.900119 0.000226849 0)
(0.900393 0.000316003 0)
(0.908314 0.000180091 0)
(0.907795 0.000125665 0)
(0.904005 0.000189526 0)
(0.904705 0.00022251 0)
(0.784978 0.00335088 0)
(0.831223 0.00238847 0)
(0.939877 -0.00384982 0)
(0.856426 -0.00402923 0)
(0.896915 0.000598406 0)
(0.901743 0.0003593 0)
(0.902203 0.000464844 0)
(0.896242 0.000553225 0)
(0.831434 0.0106487 0)
(0.932568 0.041153 0)
(0.915031 0.00675696 0)
(0.915795 0.00660519 0)
(0.906028 0.000123116 0)
(0.906468 0.000152371 0)
(0.867214 0.00266899 0)
(0.911615 0.000364639 0)
(0.911752 0.000878099 0)
(0.898861 -0.0170416 0)
(0.849342 0.00383334 0)
(0.988551 -0.0187755 0)
(1.07208 -0.0743685 0)
(0.914365 0.00457923 0)
(0.913784 0.00558761 0)
(1.12015 -0.0941731 0)
(0.90983 9.42169e-05 0)
(0.91035 0.000246488 0)
(0.846847 0.00519809 0)
(0.917226 0.00643436 0)
(0.917778 0.00683264 0)
(0.918055 0.00643877 0)
(0.91744 0.00522925 0)
(0.794219 0.00172062 0)
(1.05543 -0.0144675 0)
(0.76549 0.0108102 0)
(1.05585 -0.0382615 0)
(0.91964 0.00257825 0)
(0.920803 0.00280844 0)
(0.861509 0.0622405 0)
(0.968052 -0.0176441 0)
(0.861168 0.00480628 0)
(0.942947 -0.0271284 0)
(0.870887 0.000364365 0)
(0.850468 0.0064409 0)
(0.909787 -0.0010769 0)
(0.913558 0.00288481 0)
(0.913512 0.00413708 0)
(0.790213 0.000569997 0)
(1.06293 -0.0350918 0)
(1.13411 -0.095209 0)
(1.16522 0.00811637 0)
(0.921091 0.00218159 0)
(0.92068 0.00128077 0)
(1.12703 -0.0257106 0)
(0.797329 0.00175018 0)
(0.924687 -0.00434768 0)
(0.931218 0.00024422 0)
(0.931805 0.000173422 0)
(0.894125 0.00431983 0)
(0.916592 0.00664927 0)
(0.916351 0.00734996 0)
(0.924135 0.000760405 0)
(0.792571 0.00209631 0)
(0.924566 0.000701522 0)
(1.07973 -0.00138609 0)
(0.801364 0.00133773 0)
(0.946015 0.000721143 0)
(0.946972 0.000493806 0)
(0.889442 -0.00942808 0)
(0.865321 -0.00100266 0)
(0.834215 0.00054305 0)
(0.999411 -0.0158308 0)
(0.80256 0.0010957 0)
(0.918289 0.00374756 0)
(0.848149 0.00510613 0)
(0.919592 0.00434573 0)
(0.802594 0.00125522 0)
(0.907235 0.00289926 0)
(0.862834 0.0615073 0)
(0.86613 0.004316 0)
(0.847285 0.00254613 0)
(0.803747 0.000964672 0)
(0.800816 0.000341361 0)
(0.934969 0.0408964 0)
(0.767993 0.00655934 0)
(1.05653 0.00644234 0)
(1.07921 -0.0675579 0)
(0.960257 -1.28865e-05 0)
(0.961369 9.2097e-05 0)
(1.06805 -0.0595875 0)
(1.00315 -0.000906245 0)
(0.922138 0.000696007 0)
(0.922772 0.000774619 0)
(0.905982 0.0139824 0)
(0.895007 0.0122463 0)
(0.998138 -0.0101133 0)
(1.13574 -0.0902383 0)
(0.969663 -0.0150927 0)
(0.76175 0.0620798 0)
(1.07228 -0.0340353 0)
(0.835021 0.00354764 0)
(0.783489 0.00161596 0)
(0.926254 0.000492339 0)
(0.926843 0.000610781 0)
(0.807699 0.00030343 0)
(0.754817 0.0565151 0)
(0.861015 0.00423504 0)
(1.07208 -0.0469939 0)
(0.751685 0.0100518 0)
(0.934725 0.000507286 0)
(0.973002 0.000167929 0)
(0.973874 2.36996e-05 0)
(0.782869 0.00276186 0)
(0.871839 0.0127022 0)
(0.935716 0.000391712 0)
(0.919882 -0.00789082 0)
(0.939334 9.64984e-05 0)
(0.939833 5.92738e-05 0)
(1.08582 -0.0346377 0)
(0.909047 -0.00171294 0)
(0.929806 0.000160771 0)
(0.978644 -0.000724743 0)
(0.979163 -0.000432211 0)
(0.938981 0.038932 0)
(0.929391 0.000270278 0)
(0.757958 0.00854852 0)
(0.942927 0.000216606 0)
(0.943399 9.06986e-05 0)
(0.912499 -0.00431784 0)
(0.863555 -0.00173814 0)
(1.06917 -0.0613578 0)
(0.7964 0.000436896 0)
(0.93734 0.000650182 0)
(0.938136 0.000644325 0)
(0.962251 0.0291851 0)
(1.16027 -0.0999832 0)
(1.06508 -0.0455552 0)
(0.830462 0.00246853 0)
(0.949783 -7.19796e-05 0)
(0.768185 0.00814384 0)
(0.949962 -0.00024434 0)
(1.10972 -0.0681656 0)
(1.05443 -0.0372852 0)
(0.90903 0.0114337 0)
(1.01941 0.00711025 0)
(0.940715 4.32963e-05 0)
(0.885692 0.000512085 0)
(0.941079 0.000164581 0)
(0.694234 0.0400071 0)
(0.863749 0.00440487 0)
(0.955341 -5.48527e-05 0)
(0.956221 -4.46498e-05 0)
(0.787873 0.00256641 0)
(0.925629 -0.0109543 0)
(0.771897 0.00417867 0)
(0.90575 -0.0772846 0)
(0.779572 -0.0339504 0)
(0.801291 0.00220533 0)
(0.9676 0.00716549 0)
(1.13869 -0.0867087 0)
(0.772238 0.00236878 0)
(0.96158 0.0289822 0)
(0.958644 -0.000195077 0)
(0.958628 -0.000237703 0)
(0.842964 0.00105682 0)
(0.948706 0.000392982 0)
(0.949047 0.000553107 0)
(1.12575 -0.102334 0)
(0.843322 0.00104088 0)
(0.843622 0.00108208 0)
(0.796711 0.00155259 0)
(0.849838 1.23711e-05 0)
(0.947149 -0.0149691 0)
(0.849775 4.91216e-05 0)
(0.839056 0.000573004 0)
(0.839076 0.000562898 0)
(1.001 0.000135492 0)
(0.808342 0.000835776 0)
(1.02245 -0.000472407 0)
(1.02232 -0.000298455 0)
(0.901348 0.00388946 0)
(0.856339 0.00399458 0)
(0.951579 -9.29784e-05 0)
(0.952809 7.00347e-05 0)
(0.860866 -0.00214249 0)
(1.16306 -0.0963004 0)
(0.963831 0.0281938 0)
(0.966649 -0.000430935 0)
(0.967293 -0.000668264 0)
(0.86271 0.00550408 0)
(0.894174 0.00349772 0)
(0.760365 0.0679308 0)
(0.974021 -0.0120002 0)
(0.800951 0.00117699 0)
(0.767871 -0.0583517 0)
(0.807601 0.000897298 0)
(0.94254 0.0381267 0)
(1.03328 -0.0140081 0)
(0.970547 -0.000103557 0)
(0.788415 0.00130779 0)
(0.791702 0.00112741 0)
(0.971026 -0.00016163 0)
(0.90196 -0.0717912 0)
(0.957912 0.000127142 0)
(0.958045 0.000123918 0)
(1.01731 -0.00918336 0)
(0.805178 0.00118953 0)
(0.804137 0.00150646 0)
(1.03096 -0.00182773 0)
(1.03158 -0.00154913 0)
(0.893918 0.0547566 0)
(0.870869 0.00275016 0)
(0.87015 0.00166717 0)
(0.864145 0.00129206 0)
(0.807871 0.000524305 0)
(0.840674 0.00225812 0)
(0.840638 -2.92032e-05 0)
(0.877014 0.0051723 0)
(0.895235 0.0541247 0)
(0.882216 0.0575435 0)
(0.806698 0.000813442 0)
(0.804086 0.00115513 0)
(0.807898 0.000938657 0)
(0.840384 -2.34569e-05 0)
(0.917329 0.00852178 0)
(0.798724 0.00130123 0)
(0.834904 0.00377366 0)
(0.965948 0.0268604 0)
(0.808638 0.000715558 0)
(0.97788 -0.000667271 0)
(0.97806 -0.00100964 0)
(0.884032 0.056979 0)
(1.04355 -0.00192252 0)
(0.807372 0.000852798 0)
(1.04406 -0.00198707 0)
(0.964213 -6.31973e-05 0)
(0.965218 -2.46449e-05 0)
(1.05162 -0.0267524 0)
(0.945811 -0.0226652 0)
(0.810155 0.00028888 0)
(0.973035 0.0138568 0)
(0.981051 -0.0177183 0)
(1.11215 -0.0628666 0)
(0.9377 0.0397196 0)
(0.829481 -0.0408049 0)
(0.829792 0.00281972 0)
(0.902158 0.0121295 0)
(0.880029 0.0106085 0)
(0.968364 -0.000459341 0)
(0.986433 -0.000463909 0)
(0.968887 -0.00016065 0)
(0.80545 0.000994182 0)
(0.884607 0.00734189 0)
(0.916392 -0.000556769 0)
(0.987455 -0.000521522 0)
(0.806649 0.000966488 0)
(0.759916 0.0117868 0)
(0.863906 0.00658281 0)
(1.07958 -0.00814656 0)
(1.04273 -0.0174259 0)
(1.0526 -0.00323653 0)
(1.05335 -0.0027069 0)
(0.799426 0.000676935 0)
(0.801766 0.000639214 0)
(0.881603 0.00596454 0)
(0.892127 -0.0166998 0)
(0.991621 -0.0180132 0)
(1.05764 -0.0298156 0)
(0.948901 0.0353078 0)
(0.857332 0.00217925 0)
(0.866199 0.0613938 0)
(0.867121 0.0608333 0)
(1.02566 -0.00722192 0)
(0.830902 0.00391836 0)
(0.871874 0.0604697 0)
(0.911866 0.0490928 0)
(0.803169 0.00166419 0)
(0.912834 0.0489597 0)
(1.00691 -0.00811191 0)
(0.988738 -0.000443175 0)
(0.768929 0.070073 0)
(0.989041 -0.000779886 0)
(1.0851 -0.0441569 0)
(0.769849 0.0522998 0)
(0.843428 8.24271e-06 0)
(0.975958 -0.000224647 0)
(0.976674 -2.60148e-05 0)
(0.863881 0.00536742 0)
(0.938376 0.0411152 0)
(0.843376 0.00104767 0)
(0.843607 0.00109892 0)
(0.783884 -0.00627048 0)
(0.889412 -0.0021933 0)
(0.994534 -0.00055874 0)
(0.797092 0.000921442 0)
(0.995134 -0.000675859 0)
(1.09391 -0.0391541 0)
(0.874101 0.0593167 0)
(0.862562 -0.000587521 0)
(1.09578 -0.0168913 0)
(1.06493 -0.043055 0)
(0.796325 0.000214244 0)
(1.00276 0.0114526 0)
(0.846133 -0.0117052 0)
(0.931003 -0.0233908 0)
(0.949401 0.0346661 0)
(0.796486 -0.000648291 0)
(0.810507 0.000275221 0)
(0.999142 -0.000643985 0)
(1.0001 -0.000960126 0)
(0.901203 0.000750236 0)
(0.903637 0.00057288 0)
(0.843142 -4.48775e-05 0)
(0.934515 0.00589099 0)
(0.802088 -5.02431e-05 0)
(1.00936 -0.0150826 0)
(1.05003 -0.0280461 0)
(0.981784 -0.000303525 0)
(0.984185 2.02886e-05 0)
(0.829659 0.00245571 0)
(0.794845 0.000942199 0)
(0.797429 0.000753638 0)
(0.893037 0.0126456 0)
(0.760482 0.0397431 0)
(0.834603 -0.0065217 0)
(1.00411 -0.000738765 0)
(1.00368 -0.00101507 0)
(0.87544 0.00283515 0)
(1.0819 -0.034602 0)
(0.801673 0.00222578 0)
(1.03477 -0.0140819 0)
(0.86467 0.00162204 0)
(1.15841 -0.0933048 0)
(0.905837 0.0219301 0)
(1.14195 -0.0605826 0)
(0.830672 -0.00493122 0)
(0.988197 -0.000631539 0)
(0.865449 0.00319741 0)
(0.987245 -0.000390353 0)
(0.868062 -0.00131447 0)
(1.14795 -0.0631524 0)
(0.844098 5.75376e-05 0)
(0.803194 0.00309041 0)
(0.84386 6.30858e-05 0)
(0.843745 0.00104314 0)
(0.802745 0.00294305 0)
(0.80585 0.00141289 0)
(0.807304 0.0017378 0)
(1.00878 -0.00084792 0)
(0.829751 -0.00493512 0)
(0.832736 -0.00400288 0)
(0.832527 -0.00419768 0)
(0.832672 -0.00402104 0)
(1.01044 -0.000832078 0)
(0.802679 0.0020608 0)
(0.878255 0.0589269 0)
(1.08731 -0.0362223 0)
(0.806156 0.000858746 0)
(0.828485 -0.00525837 0)
(0.858638 0.0041581 0)
(1.03202 -0.0202668 0)
(0.99267 -0.0194659 0)
(1.06672 -0.0454399 0)
(0.991613 -0.000249365 0)
(0.970045 0.0162086 0)
(0.992639 -0.000207607 0)
(0.830057 -0.00706733 0)
(0.832481 0.00572544 0)
(1.01294 -0.000793131 0)
(0.737586 0.0584989 0)
(0.842679 0.00100492 0)
(0.948151 0.0360189 0)
(1.01235 -0.00139569 0)
(1.02726 -0.0190438 0)
(0.852115 -6.49225e-05 0)
(0.876431 -0.022784 0)
(0.973293 0.0237799 0)
(0.975945 0.0252822 0)
(0.807849 0.000510294 0)
(1.01252 -0.00317754 0)
(0.843373 0.00697671 0)
(0.907975 -0.00335453 0)
(0.920798 -0.0017128 0)
(0.879416 0.0579628 0)
(0.807256 0.000356696 0)
(0.835147 0.0298316 0)
(0.839317 -2.57294e-05 0)
(0.860574 -0.00116547 0)
(0.837823 0.00356581 0)
(0.812328 -0.00288734 0)
(0.806611 0.000340839 0)
(0.843267 0.000918034 0)
(0.785113 0.0649934 0)
(0.842986 0.00103352 0)
(1.02199 -0.003059 0)
(0.836014 0.0255061 0)
(0.927619 -0.0232835 0)
(0.808878 0.000620563 0)
(0.831471 -0.00143949 0)
(1.05776 -0.0278304 0)
(0.835355 0.0257355 0)
(0.813696 0.000522491 0)
(1.01911 -0.000930668 0)
(0.863775 8.87403e-05 0)
(0.996427 -0.0010834 0)
(0.863685 8.71314e-05 0)
(0.865117 0.00739576 0)
(1.02051 -0.000885956 0)
(0.996883 -0.000705711 0)
(0.846263 9.45763e-06 0)
(0.785201 -0.0206112 0)
(0.865632 0.00584592 0)
(0.845786 0.00330808 0)
(0.838452 0.000515199 0)
(0.838214 0.000503351 0)
(1.02836 -0.011958 0)
(1.09103 -0.0277917 0)
(0.844027 0.00113079 0)
(0.839432 -4.28486e-07 0)
(1.0341 -0.00594588 0)
(1.06588 -0.0420446 0)
(0.830879 0.0256893 0)
(0.99837 -0.0127456 0)
(0.845879 -7.63268e-07 0)
(1.03104 -0.0118142 0)
(0.961635 0.0301834 0)
(0.84955 0.000129578 0)
(0.806132 0.000950102 0)
(1.05255 -0.0292581 0)
(0.830367 0.00283559 0)
(1.04287 -0.016742 0)
(1.0123 -0.00251086 0)
(0.917128 -0.0167797 0)
(0.916224 -0.0176674 0)
(0.909649 -0.00235771 0)
(0.839072 0.0315059 0)
(1.06323 -0.00749012 0)
(0.837384 0.0292932 0)
(1.00263 0.000121999 0)
(1.02924 -0.0117743 0)
(0.800081 0.000910786 0)
(1.0301 -0.011968 0)
(1.02929 -0.0120672 0)
(1.0034 -4.61358e-05 0)
(0.830089 -0.0048847 0)
(1.02686 -0.0115187 0)
(0.801836 0.00177631 0)
(0.843099 0.0021364 0)
(0.836618 0.0264076 0)
(0.832322 -0.00417738 0)
(0.842757 0.00206707 0)
(0.798959 -0.0329683 0)
(0.902706 -0.00488287 0)
(1.05644 -0.0010659 0)
(1.07137 -0.0424842 0)
(1.02414 -0.00106266 0)
(1.06123 -0.0262876 0)
(0.970887 0.0257443 0)
(1.02573 -0.00129994 0)
(0.845529 -0.0451861 0)
(0.918074 -0.00261327 0)
(0.926349 -0.00156168 0)
(0.866582 0.00828798 0)
(0.805155 0.000995506 0)
(0.806015 0.00114544 0)
(0.866418 0.00359373 0)
(0.747494 0.00745275 0)
(0.835914 0.00325929 0)
(1.04106 -0.0157955 0)
(1.03386 -0.00875972 0)
(1.08695 -0.0784613 0)
(1.04256 -0.0158833 0)
(1.02336 -0.0106991 0)
(0.969613 -0.0145653 0)
(1.03477 -0.0110588 0)
(0.865354 0.00804956 0)
(0.830535 -0.00499105 0)
(1.00471 -0.00186274 0)
(1.0244 -0.0033596 0)
(1.08239 -0.0612074 0)
(1.00532 -0.00121856 0)
(1.03127 -0.0010676 0)
(1.03043 -0.00138746 0)
(0.925787 -0.00538422 0)
(0.942376 -0.023412 0)
(0.802134 0.00310807 0)
(0.927246 -0.00237155 0)
(0.936108 0.0401753 0)
(0.85914 -0.00134481 0)
(0.837744 -0.00156651 0)
(0.801312 0.000995235 0)
(0.970069 -0.0201506 0)
(0.833742 0.0241531 0)
(0.991586 -0.0096658 0)
(0.951889 -0.0196567 0)
(0.860582 9.73423e-05 0)
(0.843095 0.00100115 0)
(1.02379 -0.00846639 0)
(0.801229 0.00105255 0)
(0.914398 0.0134238 0)
(0.978211 -0.00960266 0)
(0.781798 -0.0513815 0)
(1.01008 -0.00391287 0)
(0.80962 0.00057651 0)
(0.809752 0.000446827 0)
(1.00901 -0.00376723 0)
(0.825171 -0.0045335 0)
(1.01013 -0.00441163 0)
(1.00814 -0.00152812 0)
(1.0089 -0.00389209 0)
(0.889217 0.0178117 0)
(0.777526 -0.0280795 0)
(0.769814 -0.0183527 0)
(0.832079 0.00235071 0)
(1.03034 -0.0120963 0)
(1.01611 -0.0033028 0)
(0.854787 -0.000108902 0)
(0.863734 0.00143835 0)
(1.01297 9.18158e-05 0)
(0.828885 0.0026026 0)
(0.933352 0.00123171 0)
(1.06347 -0.0268666 0)
(0.846718 -0.000897713 0)
(0.85229 -0.000105472 0)
(1.01359 4.74142e-05 0)
(0.860751 0.00229102 0)
(0.864364 -0.00486329 0)
(0.842221 0.0168577 0)
(0.841011 0.0167872 0)
(1.14475 -0.0887508 0)
(0.844044 0.0178596 0)
(0.843205 0.0178545 0)
(1.0389 -0.00126339 0)
(1.05879 -0.0240659 0)
(1.03912 -0.001528 0)
(0.966783 -0.0194059 0)
(0.852327 0.0204391 0)
(0.851679 0.0203591 0)
(0.856459 0.0211908 0)
(0.855471 0.021115 0)
(0.808021 0.000528792 0)
(0.832464 0.027615 0)
(0.85803 -0.000478079 0)
(1.02385 -0.011764 0)
(1.08869 -0.0768251 0)
(0.845602 0.00121463 0)
(0.840749 0.000723132 0)
(0.860132 -0.00113183 0)
(0.83561 0.023834 0)
(0.846119 0.00166535 0)
(0.83987 0.000629577 0)
(0.927073 0.0124341 0)
(0.945259 0.0365401 0)
(0.907664 -0.0091322 0)
(0.950053 0.0342816 0)
(0.84284 0.00142208 0)
(0.853182 0.00168667 0)
(1.08768 -0.0466371 0)
(0.829793 0.0026218 0)
(0.844055 0.00153552 0)
(0.845413 0.00265057 0)
(1.01383 -0.00185092 0)
(0.847986 0.00396983 0)
(0.840761 0.00112086 0)
(1.01503 -0.00118182 0)
(0.953189 0.0333886 0)
(0.928006 0.0253778 0)
(0.801717 0.00278083 0)
(0.924869 0.0254707 0)
(0.924535 0.0257049 0)
(0.920918 0.0260064 0)
(0.991595 -0.0139169 0)
(0.841776 0.00128399 0)
(1.04162 -0.00123783 0)
(1.04232 -0.00142146 0)
(0.947962 0.0375638 0)
(0.871844 -0.00167843 0)
(0.846151 0.00314711 0)
(0.849111 0.000127058 0)
(1.13626 -0.0308778 0)
(0.820653 -0.00424562 0)
(0.766806 0.04797 0)
(0.791162 0.00505482 0)
(0.835175 0.0249536 0)
(0.766016 0.0552803 0)
(0.833993 0.0306288 0)
(0.831992 -0.00404848 0)
(0.938574 0.0400788 0)
(0.935965 0.0417705 0)
(0.829922 -0.00508408 0)
(0.803043 0.0023175 0)
(0.810647 0.00415222 0)
(1.0283 -0.010765 0)
(0.828956 -0.00520387 0)
(0.850054 -0.00106722 0)
(0.979293 0.0225184 0)
(0.862691 0.0221668 0)
(0.861606 0.0221862 0)
(0.866741 0.0227055 0)
(0.865377 0.0228175 0)
(0.87067 0.0231727 0)
(0.870126 0.0232345 0)
(0.876205 0.0234515 0)
(0.874939 0.0235913 0)
(1.13836 -0.0986298 0)
(1.02968 -0.0108853 0)
(0.880029 0.0234027 0)
(1.01929 -0.0173163 0)
(0.87905 0.0234473 0)
(0.885524 0.0234397 0)
(0.829202 -0.00502241 0)
(0.889422 -0.00323037 0)
(0.930536 -0.00665492 0)
(0.884747 0.0236124 0)
(0.802442 0.00272474 0)
(0.890757 0.0230138 0)
(0.851484 -0.00137439 0)
(0.889147 0.0231788 0)
(0.901933 0.0221232 0)
(1.02627 -0.00980909 0)
(0.895017 0.0229316 0)
(0.86965 0.000209302 0)
(0.894794 0.023142 0)
(0.816426 0.0666051 0)
(0.822895 0.00217026 0)
(0.90169 0.0223813 0)
(0.837839 0.000481465 0)
(0.899866 0.0226692 0)
(0.837546 0.000475011 0)
(1.16041 -0.0829779 0)
(0.86951 0.000298336 0)
(1.05225 -0.0214125 0)
(0.953491 -0.00121588 0)
(0.844972 0.00113608 0)
(0.844538 0.0011188 0)
(0.904653 0.0218727 0)
(0.904561 0.0221 0)
(0.803052 0.00272161 0)
(1.01478 -0.00550227 0)
(0.912512 0.0211261 0)
(0.911231 0.0214283 0)
(0.98389 0.0191877 0)
(0.809783 0.000528227 0)
(0.810367 0.000401747 0)
(0.920072 0.0196574 0)
(1.0503 -0.000905974 0)
(0.917741 0.0202158 0)
(0.827673 -0.00167856 0)
(1.02199 -0.00143875 0)
(0.923097 0.0190974 0)
(1.06093 -0.0441947 0)
(0.923639 0.0192375 0)
(1.05161 -0.00131573 0)
(1.02195 -0.00107463 0)
(0.829118 -0.00294765 0)
(0.844612 0.00163474 0)
(0.844897 0.00173619 0)
(0.932014 0.017851 0)
(0.930014 0.0183098 0)
(1.13733 -0.00929712 0)
(0.829731 -0.00331636 0)
(0.831133 -0.00366512 0)
(0.932659 0.0167101 0)
(1.04525 -0.0157865 0)
(0.932737 0.016795 0)
(1.06556 -0.0439549 0)
(0.812918 -0.000586838 0)
(0.942261 0.0149729 0)
(0.943687 0.0150696 0)
(0.843788 0.00225921 0)
(0.841851 0.0017874 0)
(0.843399 0.00225526 0)
(0.91599 -0.044174 0)
(0.841401 0.00179652 0)
(1.01615 -0.00492153 0)
(0.995329 -0.00100289 0)
(0.929787 0.0423858 0)
(0.807575 0.000940196 0)
(0.952143 0.013119 0)
(0.8541 0.00160339 0)
(0.95248 0.0134123 0)
(0.854364 0.00176179 0)
(0.813374 -0.00284357 0)
(1.02207 -0.00354188 0)
(1.02113 -0.00475689 0)
(0.957565 0.0112753 0)
(0.955165 0.011706 0)
(1.03803 -0.0121758 0)
(1.0148 -0.0023981 0)
(0.961447 0.00977977 0)
(1.00894 -0.00151537 0)
(0.961571 0.00990123 0)
(0.8054 0.00115845 0)
(0.974195 0.0240158 0)
(0.969813 0.0072821 0)
(0.969763 0.00758955 0)
(0.842672 0.00103209 0)
(1.04932 -0.0288803 0)
(0.976857 0.00634707 0)
(0.97612 0.00654346 0)
(0.689304 0.0262621 0)
(0.866384 0.00252566 0)
(0.866376 0.00259459 0)
(0.843144 0.00099542 0)
(0.979814 0.00364563 0)
(1.03184 -0.0116664 0)
(0.978682 0.00371817 0)
(0.870342 -0.0138227 0)
(0.817983 0.00362819 0)
(1.02848 -0.0112561 0)
(1.06558 -0.0599651 0)
(0.986592 0.00288352 0)
(0.9873 0.00333289 0)
(0.995667 -0.00101099 0)
(0.992266 0.000588182 0)
(0.990587 0.00082873 0)
(1.08874 -0.0346648 0)
(1.06496 -0.0377522 0)
(0.84902 0.0193692 0)
(0.970043 -0.0195606 0)
(0.759831 0.0452227 0)
(1.05433 -0.00182041 0)
(0.858856 -0.00107769 0)
(1.12478 -0.0556319 0)
(1.05303 -0.00209818 0)
(1.07708 -0.0431598 0)
(0.824845 -0.00179415 0)
(0.937929 -0.00524672 0)
(0.857922 0.0217315 0)
(0.848051 0.0193951 0)
(0.857146 0.021627 0)
(1.02911 -0.000704837 0)
(0.854067 0.0016519 0)
(0.846317 0.01844 0)
(0.854407 0.00169952 0)
(0.82484 9.54567e-06 0)
(0.845114 0.0184183 0)
(1.03033 -0.000471666 0)
(0.825062 7.40671e-05 0)
(0.850052 0.0199178 0)
(0.851001 0.0199097 0)
(1.06251 -0.0276121 0)
(1.0731 -0.0365772 0)
(0.822989 -0.00342294 0)
(0.974732 0.022882 0)
(0.875151 -0.0764226 0)
(0.937068 0.00372388 0)
(0.836693 0.00278066 0)
(0.867408 -0.0020465 0)
(0.810244 -0.00265565 0)
(0.831438 0.0270221 0)
(0.850251 0.00547682 0)
(1.02036 -0.0202631 0)
(0.853137 0.00169464 0)
(1.0319 -0.0109979 0)
(0.833996 0.0246947 0)
(0.929932 0.0226451 0)
(1.01802 -0.0111789 0)
(0.928446 0.0222429 0)
(1.0503 -0.0408383 0)
(0.842896 0.000910255 0)
(1.01959 -0.0262807 0)
(1.003 -0.0140764 0)
(0.922592 0.0253026 0)
(0.833937 0.0267388 0)
(0.869344 0.00850183 0)
(0.802493 0.00288426 0)
(0.831614 0.00479068 0)
(0.853369 -0.000152398 0)
(0.927223 0.021677 0)
(0.928033 0.0229281 0)
(1.02036 -0.0134509 0)
(0.973985 0.00271133 0)
(0.954025 0.00216289 0)
(0.832286 -0.00402602 0)
(1.04819 -0.0187451 0)
(0.828948 -0.00213749 0)
(0.829769 -0.0051211 0)
(0.926975 0.0225506 0)
(1.00101 -0.00202232 0)
(0.835542 0.029358 0)
(0.871415 -0.0266323 0)
(0.835587 0.0304219 0)
(0.835572 0.0283241 0)
(0.975327 0.024204 0)
(0.972612 0.025359 0)
(0.827212 -0.00473399 0)
(0.926362 0.0220286 0)
(1.10229 -0.0460912 0)
(1.03275 -0.0124661 0)
(0.83148 0.000203184 0)
(1.0355 -0.0113407 0)
(1.06545 -0.00149756 0)
(0.831735 0.000224993 0)
(0.834751 0.0278089 0)
(1.02672 -0.0121926 0)
(1.02496 -0.00848485 0)
(0.834231 0.0265383 0)
(1.06666 -0.000592229 0)
(0.794798 -0.0336075 0)
(0.830332 0.0260343 0)
(0.905596 0.00953427 0)
(0.91382 0.0210693 0)
(0.913827 0.02108 0)
(1.02931 -0.0109264 0)
(0.851904 -0.000114664 0)
(0.806487 -0.0309111 0)
(0.831269 -0.0292554 0)
(1.01221 -0.0130952 0)
(1.00475 -0.0136907 0)
(0.843711 0.00107953 0)
(1.02175 -0.00371709 0)
(0.917235 0.00439028 0)
(1.10276 -0.0495305 0)
(0.821346 0.0669855 0)
(0.808369 0.000774764 0)
(0.803887 0.000884919 0)
(0.832669 0.000217141 0)
(0.938545 0.0158655 0)
(0.93505 0.016485 0)
(0.860308 0.0218323 0)
(0.832102 0.031152 0)
(0.865747 -0.000982099 0)
(1.03425 -0.00199334 0)
(0.944279 0.0139611 0)
(0.903317 -0.0118725 0)
(0.831596 0.0316073 0)
(0.942977 0.0141686 0)
(1.03644 -0.00151529 0)
(1.03082 -0.0120499 0)
(1.03353 -0.0128311 0)
(0.858822 0.00607228 0)
(1.03299 -0.0128963 0)
(1.01267 -0.00316743 0)
(1.1281 -0.0550711 0)
(1.02859 -0.0124751 0)
(1.11783 -0.051932 0)
(0.964703 0.00921091 0)
(0.843629 0.00112393 0)
(0.844046 0.00110589 0)
(0.963152 0.0094057 0)
(0.829634 0.00281594 0)
(0.84233 0.000955881 0)
(1.02719 -0.00989951 0)
(1.02835 -0.0112061 0)
(0.843002 0.00104665 0)
(1.06172 -0.00153776 0)
(1.07261 -0.0373113 0)
(1.01576 -0.00581795 0)
(1.05763 -0.0316405 0)
(1.05042 -0.0284089 0)
(1.06183 -0.00301606 0)
(1.06081 -0.0416361 0)
(1.07736 -0.0392628 0)
(1.0978 -0.0489474 0)
(1.10422 -0.0528267 0)
(0.884443 0.000465211 0)
(0.816613 0.0187514 0)
(1.078 -0.000734138 0)
(0.816044 0.018809 0)
(0.885341 0.000390892 0)
(1.0264 -0.0100808 0)
(1.06836 -0.0318146 0)
(1.05191 -0.0337451 0)
(0.823641 0.000664519 0)
(0.843531 0.000962514 0)
(1.01178 -0.00291499 0)
(0.808542 0.000747609 0)
(1.02207 -0.00391537 0)
(1.01217 -0.0020427 0)
(0.837399 0.0306403 0)
(0.838495 0.0316715 0)
(0.87714 -0.00385054 0)
(0.836842 0.0296437 0)
(0.843823 0.00491057 0)
(0.836815 0.0286244 0)
(0.828331 -0.00530304 0)
(1.0284 -0.0105682 0)
(1.01648 -0.00290142 0)
(0.994331 0.0163918 0)
(0.837647 -0.0233927 0)
(0.831201 -0.00489129 0)
(1.04063 -0.000571171 0)
(0.864661 0.0025275 0)
(1.01133 -0.00524832 0)
(1.01303 -0.00513716 0)
(1.04075 -6.22152e-05 0)
(0.83169 0.0260475 0)
(1.01294 -0.00773218 0)
(1.02119 -0.009187 0)
(1.01314 -0.00832843 0)
(0.836319 -0.00481912 0)
(0.837316 -0.00516174 0)
(0.84459 -0.0026532 0)
(0.833738 -0.00641301 0)
(1.02049 -0.00957338 0)
(1.01484 -0.00505123 0)
(0.835608 -0.000133552 0)
(0.986395 0.0184366 0)
(0.836273 0.0267246 0)
(1.05845 -0.0382199 0)
(0.835848 -0.000149862 0)
(1.07605 -0.0424156 0)
(0.954198 0.00670585 0)
(1.0336 0.0229701 0)
(0.8217 0.00107327 0)
(1.07574 -0.00213346 0)
(1.07621 -0.0018432 0)
(0.970003 -0.0143452 0)
(0.791233 0.0668423 0)
(0.859012 0.0220069 0)
(1.05009 -0.0356393 0)
(0.914156 -0.0053629 0)
(0.930503 0.00283033 0)
(1.0534 -0.0367164 0)
(0.854386 0.0207115 0)
(0.853178 0.0207636 0)
(1.0321 -0.0131475 0)
(0.875015 -0.0140659 0)
(0.823366 0.00144147 0)
(0.821276 0.00185933 0)
(1.02124 -0.00356229 0)
(1.11317 -0.086468 0)
(0.847609 -0.0100513 0)
(1.02462 -0.010515 0)
(0.857919 0.000703401 0)
(0.847497 0.0190076 0)
(0.80968 0.000271579 0)
(0.846895 0.0188853 0)
(0.853017 -9.61297e-05 0)
(0.843041 0.017467 0)
(0.739681 0.0501688 0)
(0.842555 0.0172231 0)
(0.929568 -0.00369838 0)
(1.08136 -0.0381981 0)
(1.05248 -0.0439863 0)
(1.06473 0.0123892 0)
(0.886414 -0.0174881 0)
(0.861554 -0.0240835 0)
(0.863369 -0.0267192 0)
(1.06557 -0.0273902 0)
(0.867956 -0.00587789 0)
(0.953089 0.00640918 0)
(0.786321 -0.0392228 0)
(0.897111 0.0224554 0)
(0.893664 0.0231959 0)
(0.887365 0.0230804 0)
(0.904147 0.0224539 0)
(0.896003 0.0226936 0)
(0.829945 0.00262297 0)
(0.813336 -0.0419231 0)
(0.892648 0.0233548 0)
(0.883275 0.0235358 0)
(0.903445 0.0226003 0)
(1.03269 -0.0119059 0)
(0.886509 0.023241 0)
(0.919501 0.0205969 0)
(0.90813 0.0212709 0)
(0.881875 0.0236656 0)
(0.85651 8.26507e-05 0)
(0.878049 0.0234931 0)
(0.90621 0.0217812 0)
(0.877381 0.0235642 0)
(0.844581 0.0023891 0)
(0.915001 0.0202405 0)
(0.863843 0.0599225 0)
(0.872932 0.023276 0)
(0.871634 0.0233877 0)
(0.914298 0.02048 0)
(0.869187 0.0229933 0)
(0.867874 0.0260578 0)
(0.923372 0.0197024 0)
(0.868145 0.0230891 0)
(0.844125 0.00106749 0)
(0.864196 0.02252 0)
(0.922478 0.0198668 0)
(0.80596 0.000871774 0)
(0.925872 0.0181691 0)
(0.863435 0.0224815 0)
(0.926282 -0.000381318 0)
(0.832391 -0.00392507 0)
(0.876403 -0.00175324 0)
(0.92422 0.0186721 0)
(0.844159 0.00235809 0)
(0.839319 0.000605475 0)
(0.842542 0.00193974 0)
(0.93338 0.0179096 0)
(0.92052 0.0260326 0)
(0.841972 0.000941151 0)
(0.842189 0.0019024 0)
(0.838771 0.000533041 0)
(0.933799 0.0178526 0)
(0.877479 -8.69488e-05 0)
(0.863453 -0.0288 0)
(0.943301 0.015793 0)
(0.817457 -0.00194357 0)
(1.01925 -0.00103661 0)
(0.942321 0.0160488 0)
(0.950437 0.013569 0)
(0.948445 0.0140742 0)
(1.08397 -0.040232 0)
(0.952624 0.0119933 0)
(0.952288 0.012083 0)
(0.960901 0.0108541 0)
(0.835227 -0.00315708 0)
(0.958471 0.00242408 0)
(0.960354 0.0110803 0)
(0.813398 -0.00137586 0)
(0.968411 0.00860027 0)
(0.910246 0.0227546 0)
(0.810966 -0.00156421 0)
(0.864156 0.00255327 0)
(0.967736 0.00886749 0)
(1.04245 -0.0192211 0)
(0.861428 -0.0153069 0)
(0.972956 0.00661128 0)
(0.971452 0.00668251 0)
(0.977486 0.00490139 0)
(1.04567 -0.00295159 0)
(0.978334 0.00531411 0)
(0.867419 -0.0196785 0)
(0.985137 0.00371014 0)
(0.828988 -0.00639269 0)
(1.00371 -0.00255008 0)
(1.04685 -0.00213026 0)
(0.983299 0.00377989 0)
(0.981418 0.020688 0)
(0.987801 0.0171837 0)
(1.0358 -0.0108691 0)
(0.987839 0.00135217 0)
(1.00243 -0.0042052 0)
(1.00343 -0.00407349 0)
(0.995312 0.00259836 0)
(0.987379 0.00155049 0)
(0.994562 0.000238293 0)
(0.994365 0.000284864 0)
(0.937384 -0.0025393 0)
(0.870213 -0.0123982 0)
(0.856849 -0.0580206 0)
(0.827827 -0.00514809 0)
(0.872302 -0.0158518 0)
(0.831463 -0.00444899 0)
(0.890684 -0.0195223 0)
(0.864774 -0.0132227 0)
(0.904164 -0.0242407 0)
(0.906249 0.00152686 0)
(0.756622 0.0526266 0)
(1.02171 0.00148606 0)
(0.86963 0.0107594 0)
(0.989656 -0.00516844 0)
(0.943153 -0.00273376 0)
(0.949217 0.0364017 0)
(0.943801 0.0379424 0)
(0.828382 -0.00511055 0)
(0.818573 0.010446 0)
(0.924754 0.0198434 0)
(0.923998 0.0200374 0)
(1.10488 -0.0028048 0)
(0.83261 0.00861253 0)
(0.929166 0.0188365 0)
(0.924792 0.0199238 0)
(0.926511 0.0196589 0)
(0.928229 0.0254604 0)
(0.824698 -0.0107824 0)
(1.08938 -0.0345214 0)
(1.01115 -0.00326258 0)
(1.02312 -0.0114961 0)
(0.828697 -0.00484914 0)
(1.001 -0.00602332 0)
(1.07197 -0.0344093 0)
(1.07994 -0.0490988 0)
(0.987597 0.0178632 0)
(0.82752 -3.96155e-05 0)
(0.899212 0.0246339 0)
(0.926209 0.0260276 0)
(1.09451 -0.0633038 0)
(0.813692 0.00052915 0)
(0.902984 -0.00104783 0)
(0.960108 -0.0225343 0)
(1.00638 0.00478733 0)
(0.903122 -0.00178521 0)
(0.852527 0.00672077 0)
(0.863054 0.0250547 0)
(0.802837 0.00157946 0)
(1.03224 -0.0108915 0)
(0.985289 0.0173391 0)
(0.922327 0.00802249 0)
(0.932877 0.0187316 0)
(0.98313 0.0201205 0)
(0.975095 0.0231306 0)
(0.988969 -0.0320457 0)
(1.05479 0.000698076 0)
(1.00621 0.00598806 0)
(1.05538 -0.000152552 0)
(1.00384 -0.00262458 0)
(1.02052 -0.00642396 0)
(1.14402 -0.0704599 0)
(1.07849 -0.0392029 0)
(0.975029 -0.0222802 0)
(1.01682 -0.000126813 0)
(0.924957 0.0198765 0)
(0.998323 -0.00159585 0)
(0.802358 0.00178418 0)
(0.925069 0.0201822 0)
(0.884138 0.0256219 0)
(1.02763 -0.0083641 0)
(0.994127 0.0109407 0)
(0.806028 0.00114039 0)
(0.802413 0.00209448 0)
(0.883335 0.00227806 0)
(1.01907 -0.00663385 0)
(0.833581 0.0312433 0)
(0.845328 -0.00188049 0)
(0.885762 0.00230386 0)
(0.901447 -0.020638 0)
(0.994371 0.0120377 0)
(1.11864 -0.0516763 0)
(0.829618 0.000252913 0)
(1.07363 -0.0108137 0)
(0.888163 0.00191463 0)
(1.02107 -0.0062829 0)
(1.03052 -0.00893172 0)
(0.858968 0.00114448 0)
(0.830032 0.000243473 0)
(0.837249 -0.0694632 0)
(1.08549 -0.0453514 0)
(0.868738 0.0261041 0)
(1.0579 -0.042709 0)
(1.01051 -0.004519 0)
(1.00857 -0.00460387 0)
(0.763261 0.00577626 0)
(0.922553 0.0203953 0)
(1.0243 -0.00305242 0)
(0.834196 0.0238765 0)
(1.02502 -0.00894215 0)
(0.890588 0.00144412 0)
(0.983787 0.0166186 0)
(0.910875 0.000100622 0)
(0.987778 0.00149613 0)
(1.06063 -0.0335302 0)
(0.874584 0.00184713 0)
(0.873795 0.00191831 0)
(1.00155 -0.00617532 0)
(0.942531 -0.011373 0)
(1.0068 -0.0054598 0)
(1.02833 -0.0109073 0)
(1.00971 -0.00755134 0)
(1.00894 -0.00850082 0)
(0.874514 0.00192093 0)
(0.911763 0.000429437 0)
(1.00414 -0.00496023 0)
(1.03699 -0.0123688 0)
(1.03734 -0.0125328 0)
(1.1152 -0.0528163 0)
(0.982801 0.0177239 0)
(0.835182 0.0241484 0)
(1.03084 -0.00811852 0)
(1.00873 -0.0606462 0)
(1.01244 -0.00617598 0)
(1.09265 -0.051354 0)
(1.01456 -0.00575268 0)
(0.925856 0.0261787 0)
(0.462279 0.00375234 0)
(0.857909 0.00192745 0)
(0.857507 0.00192712 0)
(1.06849 -0.0323509 0)
(1.01842 -0.00949533 0)
(0.864486 0.000404053 0)
(1.02895 -0.0118454 0)
(1.01627 -0.00929931 0)
(0.895712 0.00704762 0)
(0.811746 0.00449887 0)
(1.05112 -0.0356818 0)
(1.03213 -0.0108463 0)
(0.8867 -0.0179798 0)
(0.990904 0.00874945 0)
(0.904102 0.0245909 0)
(0.872091 0.00284626 0)
(0.869416 0.00259932 0)
(1.0188 -0.00249764 0)
(0.895228 0.0255676 0)
(0.861993 0.00216294 0)
(0.856858 0.00169935 0)
(0.84085 0.0256759 0)
(1.02148 -0.0101554 0)
(0.860412 0.00194519 0)
(1.02152 -0.0103017 0)
(1.10879 -0.0854833 0)
(0.887064 -0.0552466 0)
(0.978279 -0.00350281 0)
(0.82139 -0.00264174 0)
(0.839905 0.0255062 0)
(0.978475 -0.00122692 0)
(0.828919 0.00306583 0)
(0.853449 0.0297086 0)
(1.02819 -0.0106387 0)
(0.859584 0.0301199 0)
(0.85182 0.0295767 0)
(0.875319 0.00333774 0)
(0.960703 -0.0153163 0)
(0.858351 0.0302659 0)
(1.02884 -0.00910264 0)
(0.984378 -0.00136462 0)
(0.905737 0.0241001 0)
(0.845809 0.00306967 0)
(0.930058 -0.030256 0)
(0.868755 0.0307621 0)
(0.886704 0.0261619 0)
(1.01521 -0.00139561 0)
(0.834129 0.00340721 0)
(0.909286 0.0236662 0)
(0.867214 0.0310379 0)
(0.877776 0.0309235 0)
(0.827703 0.0302617 0)
(1.01654 -0.00524841 0)