/*--------------------------------*- C++ -*----------------------------------*\
  =========                 |
  \\      /  F ield         | OpenFOAM: The Open Source CFD Toolbox
   \\    /   O peration     | Website:  https://openfoam.org
    \\  /    A nd           | Version:  12
     \\/     M anipulation  |
\*---------------------------------------------------------------------------*/
FoamFile
{
    format      ascii;
    class       volVectorField;
    location    "0.3";
    object      U;
}
// * * * * * * * * * * * * * * * * * * * * * * * * * * * * * * * * * * * * * //

dimensions      [0 1 -1 0 0 0 0];

internalField   nonuniform List<vector> 
46253
(
(1.2 7.40956e-14 0)
(1.2 3.03409e-14 0)
(1.2 3.8801e-09 0)
(1.2 2.05397e-13 0)
(1.2 -8.18565e-10 0)
(1.2 7.40677e-11 0)
(1.2 4.09061e-14 0)
(1.18116 -0.0043999 0)
(1.2 2.35344e-13 0)
(1.2 3.60128e-13 0)
(1.2 1.03008e-13 0)
(1.26382 -0.075166 0)
(1.2 -1.10985e-14 0)
(1.2 6.64009e-14 0)
(1.2 -1.47941e-13 0)
(1.2 2.4248e-13 0)
(1.2 1.94586e-13 0)
(1.2 -2.10543e-13 0)
(1.2 1.84933e-13 0)
(1.2 9.6337e-14 0)
(1.2 7.53875e-14 0)
(1.2 -2.18044e-13 0)
(1.2 3.68885e-14 0)
(1.2 5.23113e-14 0)
(1.2 -3.33351e-13 0)
(1.2 1.46825e-13 0)
(1.2 2.10703e-13 0)
(1.2 1.92271e-13 0)
(1.2 2.98334e-13 0)
(1.18047 -0.00424016 0)
(1.20067 0.0551133 0)
(1.2 6.82292e-14 0)
(1.2 1.6714e-13 0)
(1.2 1.17115e-13 0)
(1.2 1.80975e-13 0)
(1.2 1.80575e-14 0)
(1.2 -8.28104e-15 0)
(1.2 -5.03457e-15 0)
(1.18645 -0.0177992 0)
(1.2 -2.36919e-14 0)
(1.2 -4.69961e-14 0)
(1.26812 -0.0762287 0)
(1.2 4.69474e-14 0)
(1.2 2.77939e-14 0)
(1.26262 -0.105113 0)
(1.2 -2.15086e-13 0)
(1.2 5.32093e-14 0)
(1.2 -1.38874e-13 0)
(1.2 8.24779e-14 0)
(1.2 7.93703e-14 0)
(1.2 1.38905e-13 0)
(1.2 2.49346e-13 0)
(1.2 -1.04892e-13 0)
(1.1851 -0.00256045 0)
(1.2 6.66686e-08 0)
(1.26575 -0.0419432 0)
(1.2 -7.53813e-14 0)
(1.2 -2.76897e-13 0)
(1.14707 0.0844818 0)
(1.2 1.2122e-13 0)
(1.2 -1.61223e-13 0)
(1.2 1.042e-13 0)
(1.2 3.20719e-15 0)
(1.2 -4.60639e-14 0)
(1.2 -5.12524e-14 0)
(1.2 7.49006e-15 0)
(1.2 6.28189e-14 0)
(1.2 1.15334e-13 0)
(1.26411 -0.0405274 0)
(1.26099 -0.10299 0)
(1.2 -3.37252e-14 0)
(1.2 -1.86136e-13 0)
(1.2 -1.99598e-13 0)
(1.2 -1.33925e-13 0)
(1.2 -1.19149e-13 0)
(1.2 1.20917e-13 0)
(1.2 -2.29498e-13 0)
(1.2 -2.18902e-13 0)
(1.2 7.11976e-14 0)
(1.2 1.19007e-13 0)
(1.2 6.70491e-14 0)
(1.2 5.42241e-14 0)
(1.2 1.40771e-13 0)
(1.2 2.70729e-13 0)
(1.2 4.72389e-14 0)
(1.2 5.67368e-14 0)
(1.2 -1.78482e-13 0)
(1.2 -3.10155e-13 0)
(1.1835 -0.000427091 0)
(1.2 2.35823e-14 0)
(1.2 2.82606e-14 0)
(1.2 -1.06484e-13 0)
(1.2 2.78293e-14 0)
(1.2 2.32234e-13 0)
(1.2 -9.82333e-14 0)
(1.2 4.34827e-14 0)
(1.2 -4.85523e-14 0)
(1.2 -4.72495e-14 0)
(1.14867 0.0834951 0)
(1.2 -5.1491e-14 0)
(1.2 1.39313e-14 0)
(1.2 1.11035e-13 0)
(1.2 5.58012e-14 0)
(1.20315 0.0540952 0)
(1.2 -1.51265e-08 0)
(1.2 1.36028e-13 0)
(1.26877 -0.0739458 0)
(1.2 -1.49034e-13 0)
(1.2 -3.37082e-14 0)
(1.26942 -0.0636628 0)
(1.18503 -0.0107799 0)
(1.2 -2.17827e-13 0)
(1.2 -1.81545e-13 0)
(1.2 -1.12275e-13 0)
(1.2 1.51809e-13 0)
(1.18674 0.000111209 0)
(1.26207 -0.0980737 0)
(1.2 1.58706e-14 0)
(1.02052 0.0892841 0)
(1.26289 -0.0344369 0)
(1.2 -6.76873e-14 0)
(1.2 -1.28296e-11 0)
(1.2 1.42496e-13 0)
(1.2 1.65195e-13 0)
(1.2 1.32589e-13 0)
(0.985441 0.0920009 0)
(1.2 3.94254e-14 0)
(1.26447 -0.0522414 0)
(1.19987 7.18993e-05 0)
(1.2 1.16588e-13 0)
(1.2 -4.05941e-14 0)
(1.2 -6.29994e-14 0)
(1.2 8.19656e-13 0)
(1.2 -2.5307e-14 0)
(1.2 -6.87353e-14 0)
(1.2 -4.44363e-14 0)
(1.2 -1.03109e-13 0)
(1.2 -1.41933e-13 0)
(1.26313 -0.0370534 0)
(1.2 -1.57337e-14 0)
(1.2 -2.902e-13 0)
(1.2 2.10837e-13 0)
(1.2 4.55909e-13 0)
(1.2051 0.0517941 0)
(1.2 -1.99313e-13 0)
(1.20001 -5.7529e-06 0)
(1.2 -1.2238e-13 0)
(1.2 -2.43062e-13 0)
(1.18669 -0.0155804 0)
(1.2 1.57665e-13 0)
(1.27046 -0.0635357 0)
(1.2 1.44434e-13 0)
(1.2 -8.70218e-14 0)
(1.2 -1.50579e-13 0)
(1.21812 0.0389766 0)
(1.26163 -0.102567 0)
(1.26643 -0.052839 0)
(1.2 -1.96683e-14 0)
(1.2 -9.1644e-15 0)
(1.2 -3.90314e-08 0)
(1.2 -1.0486e-13 0)
(1.26902 -0.075364 0)
(1.26885 -0.0444914 0)
(1.2 -3.37678e-14 0)
(1.2 1.86832e-13 0)
(1.2 -1.56368e-13 0)
(1.2 -4.58241e-14 0)
(1.2 -1.75747e-13 0)
(0.888924 0.0798988 0)
(1.2 2.28738e-14 0)
(1.2 -4.85399e-14 0)
(1.2 7.71299e-14 0)
(1.2 -7.29362e-14 0)
(1.2 1.85101e-13 0)
(1.2 -7.58772e-09 0)
(1.25982 -0.108817 0)
(1.2 -6.82518e-13 0)
(1.2 6.2553e-14 0)
(1.2 4.49701e-14 0)
(1.26027 -0.0961781 0)
(1.2 -5.59114e-08 0)
(1.21906 0.0382828 0)
(1.2 1.79281e-14 0)
(1.2 -1.10309e-13 0)
(1.2 -3.21596e-13 0)
(1.2 -8.00909e-14 0)
(1.2 9.67356e-14 0)
(1.26301 -0.105768 0)
(1.2 9.08258e-14 0)
(1.2 -7.04758e-14 0)
(1.2 -1.02638e-13 0)
(1.2 9.8594e-14 0)
(1.2 2.53783e-13 0)
(1.2 1.07986e-13 0)
(1.2 -2.15496e-14 0)
(1.2 -1.33944e-13 0)
(1.18601 -0.0108478 0)
(1.2 1.87604e-13 0)
(1.2 -5.15974e-14 0)
(1.2 -1.90236e-14 0)
(1.2 -4.48736e-15 0)
(1.2 -1.2167e-14 0)
(1.2 -1.71863e-13 0)
(1.2 -1.70049e-13 0)
(1.2 -2.15265e-14 0)
(1.2612 -0.1003 0)
(1.22029 0.0369632 0)
(1.2 2.01603e-13 0)
(1.2 2.42305e-13 0)
(1.2 -8.54464e-14 0)
(1.2 7.70784e-14 0)
(1.01295 0.0918134 0)
(1.2 -3.53998e-14 0)
(1.2 2.29966e-13 0)
(1.2 -3.21671e-11 0)
(1.2 5.18632e-14 0)
(1.20708 0.0503266 0)
(1.2 -2.32622e-13 0)
(1.2 3.60127e-14 0)
(1.2 -3.90552e-13 0)
(1.2 4.32983e-14 0)
(1.2 5.35113e-14 0)
(1.26191 -0.111126 0)
(1.2 2.84425e-14 0)
(1.2 -5.10118e-14 0)
(1.2 1.37255e-14 0)
(1.2 2.26664e-13 0)
(1.2 -1.21793e-13 0)
(1.2 -1.22335e-13 0)
(1.2 6.79543e-14 0)
(1.17609 0.0736531 0)
(1.2 -3.15051e-14 0)
(1.2 3.2019e-14 0)
(1.2 9.38638e-14 0)
(1.2 2.81449e-13 0)
(1.2 -3.1641e-14 0)
(1.2 -2.64624e-14 0)
(1.2 1.04148e-13 0)
(1.17714 0.073023 0)
(1.1679 0.0773735 0)
(1.2 1.27275e-13 0)
(1.2 1.63981e-13 0)
(1.2 1.02995e-13 0)
(1.2 1.26974e-14 0)
(1.2 5.16061e-14 0)
(1.2 1.34823e-13 0)
(1.2 -8.32576e-15 0)
(1.21934 0.0366181 0)
(1.2 -1.07853e-13 0)
(1.2 3.16801e-14 0)
(1.2 1.42438e-13 0)
(1.169 0.0766401 0)
(1.2 -3.88943e-14 0)
(1.2 1.54044e-15 0)
(1.2 -7.56973e-14 0)
(1.2 5.86185e-14 0)
(1.2 1.10804e-14 0)
(1.26146 -0.0315967 0)
(1.2 7.83603e-14 0)
(1.2 4.65535e-15 0)
(1.2 -7.71601e-14 0)
(1.2 9.65738e-14 0)
(1.25623 -0.0653121 0)
(1.20542 0.0523205 0)
(1.2 -1.36403e-13 0)
(1.2 4.17057e-14 0)
(1.2 1.4296e-14 0)
(1.2 -4.694e-14 0)
(1.2 1.65897e-13 0)
(1.2 5.8031e-14 0)
(1.2 -9.7657e-16 0)
(1.2 -1.4522e-13 0)
(1.2 -1.10071e-16 0)
(1.2 -9.73144e-15 0)
(1.2 -2.69332e-13 0)
(1.2 -7.46791e-14 0)
(1.20001 -2.94796e-06 0)
(1.2 1.95975e-14 0)
(1.18533 -0.0017557 0)
(1.25802 -0.0210444 0)
(1.2 -2.13392e-13 0)
(1.2 -1.88442e-13 0)
(1.2 2.3752e-13 0)
(1.2 8.50727e-14 0)
(1.2 -4.6329e-14 0)
(1.2 2.60234e-13 0)
(1.2 -5.72453e-15 0)
(1.26449 -0.0347987 0)
(1.21022 0.0471379 0)
(1.2 1.62508e-14 0)
(1.1526 0.0825484 0)
(1.15427 0.0816564 0)
(1.2 6.07167e-14 0)
(1.2 -8.32561e-14 0)
(1.15798 0.0805659 0)
(1.18791 0.0658039 0)
(1.2 -9.43921e-14 0)
(1.1904 0.0650554 0)
(1.2 1.03865e-14 0)
(1.2 3.09429e-13 0)
(1.01833 0.0952206 0)
(1.2 3.72943e-13 0)
(1.26036 -0.0486715 0)
(1.00595 0.0841919 0)
(1.2 -1.66041e-14 0)
(1.2 -5.824e-14 0)
(1.2 2.92882e-14 0)
(1.2 -9.34813e-14 0)
(1.20816 0.0530189 0)
(1.2 5.30679e-14 0)
(1.2 -1.35554e-13 0)
(1.2 4.00357e-13 0)
(1.2 7.41382e-14 0)
(1.2 2.06321e-15 0)
(1.2 -2.82465e-13 0)
(1.2 8.55676e-14 0)
(1.26724 -0.0401437 0)
(1.15942 0.0795747 0)
(1.2 -6.07324e-14 0)
(1.18505 -0.00165312 0)
(1.26554 -0.0508377 0)
(1.2 -2.16757e-13 0)
(1.2 9.00749e-14 0)
(1.2 -4.00875e-13 0)
(1.18688 -0.01804 0)
(1.21229 0.0459206 0)
(1.2 4.82426e-14 0)
(1.2 6.69546e-14 0)
(1.2 -2.0146e-13 0)
(1.2 -7.25865e-14 0)
(1.2 -1.73101e-13 0)
(1.2 -2.28514e-13 0)
(1.2 -4.377e-14 0)
(1.2 -1.25688e-13 0)
(1.2 2.1652e-13 0)
(1.2 1.2732e-14 0)
(1.26351 -0.0333743 0)
(1.2 3.29918e-13 0)
(1.2 3.7645e-13 0)
(1.2 4.75309e-14 0)
(1.2 2.11361e-14 0)
(1.2 1.4973e-13 0)
(1.2 5.27533e-14 0)
(1.18509 0.00807991 0)
(1.2 8.04126e-14 0)
(1.2 -6.06298e-14 0)
(1.2 1.90311e-13 0)
(1.2 -1.66263e-16 0)
(1.25989 -0.0356868 0)
(1.2 -4.32203e-14 0)
(1.18573 -0.0100798 0)
(1.2 -1.29355e-13 0)
(1.26321 -0.100177 0)
(1.2 1.31886e-14 0)
(1.26429 -0.0733448 0)
(1.2 3.6416e-14 0)
(1.2 -1.92916e-14 0)
(1.2 -2.53162e-14 0)
(1.2 3.68156e-13 0)
(1.2 5.18087e-14 0)
(1.26163 -0.0727582 0)
(1.2 -1.79943e-14 0)
(1.2 2.72152e-14 0)
(1.2 -1.01935e-13 0)
(1.2 -1.08991e-13 0)
(1.2 6.69237e-14 0)
(1.2 1.30154e-13 0)
(1.2 2.17619e-14 0)
(1.2 5.65842e-14 0)
(1.2 3.75472e-13 0)
(1.2 8.26375e-14 0)
(1.2 -1.16864e-13 0)
(1.2 -1.80759e-13 0)
(1.2 4.94468e-14 0)
(1.2 -4.14509e-14 0)
(1.16296 0.0789797 0)
(1.26572 -0.0387384 0)
(1.2 -2.75738e-13 0)
(1.2 -8.5482e-15 0)
(1.2 1.96446e-14 0)
(1.2 -2.28693e-13 0)
(1.2 -2.42226e-14 0)
(1.26445 -0.0506134 0)
(1.2 1.83653e-13 0)
(1.18218 -0.00207902 0)
(1.2 3.4483e-14 0)
(1.2 -3.16754e-14 0)
(1.2 -9.87256e-14 0)
(1.2 -4.16879e-14 0)
(0.941903 0.0910056 0)
(1.2 -3.01665e-13 0)
(1.20968 0.0477695 0)
(1.2 2.8477e-14 0)
(1.2 -3.54706e-13 0)
(1.2 -1.03182e-14 0)
(1.18381 -0.00459699 0)
(1.22281 0.0314461 0)
(1.22471 0.0324124 0)
(1.2 -7.68051e-14 0)
(1.2 1.07409e-13 0)
(1.2 -4.63798e-14 0)
(1.2 -4.17899e-14 0)
(1.2 -9.11491e-14 0)
(1.16457 0.0780867 0)
(1.2 3.46643e-14 0)
(1.2 -2.97188e-13 0)
(1.2 1.34778e-13 0)
(1.2 -5.0143e-16 0)
(1.2 5.45996e-15 0)
(1.2 2.9045e-13 0)
(1.2 -1.11752e-14 0)
(1.2 -3.90016e-14 0)
(1.05035 0.093476 0)
(1.2 -5.13063e-13 0)
(1.2 2.832e-13 0)
(1.2 2.92891e-14 0)
(1.2 9.20033e-15 0)
(1.2 -1.18045e-13 0)
(1.2 2.6515e-13 0)
(1.25878 -0.0304221 0)
(1.2 1.49796e-13 0)
(1.2 6.42951e-14 0)
(1.2 -1.93773e-13 0)
(1.2 1.04879e-13 0)
(1.2 -8.54635e-14 0)
(1.2 3.69559e-14 0)
(1.2 -3.86139e-14 0)
(1.2 -1.68279e-13 0)
(1.2 -2.58195e-13 0)
(1.2 -5.0483e-14 0)
(1.2 4.48273e-13 0)
(1.2 1.06886e-13 0)
(1.2 2.39226e-14 0)
(1.2 -6.18218e-14 0)
(1.2 -9.53998e-14 0)
(1.2 1.03271e-13 0)
(1.18625 -0.00291623 0)
(1.2 -4.98254e-14 0)
(1.2 -3.67289e-14 0)
(1.1851 -0.0025918 0)
(1.264 -0.0487311 0)
(1.2 1.25574e-13 0)
(1.2 -2.03964e-13 0)
(1.2 3.15612e-14 0)
(1.2 -2.19315e-13 0)
(1.2157 0.0408369 0)
(1.2 1.63781e-13 0)
(1.2 -5.20217e-15 0)
(1.26899 -0.0359411 0)
(1.2 -6.50855e-14 0)
(1.25673 -0.0192438 0)
(1.2 1.05733e-13 0)
(1.2 2.51956e-15 0)
(1.2 2.19242e-14 0)
(1.2 -2.16847e-14 0)
(1.2 -9.91813e-11 0)
(1.18251 -0.00705503 0)
(1.2 -8.6689e-14 0)
(1.2 -1.74595e-13 0)
(1.2 -2.19019e-13 0)
(1.2 -2.54132e-13 0)
(1.2 -1.34311e-13 0)
(1.2 -1.44802e-14 0)
(1.2 -1.51829e-13 0)
(1.2 9.21651e-14 0)
(1.2 -8.54436e-14 0)
(1.2 1.56773e-13 0)
(1.2 5.24117e-14 0)
(1.2 2.76778e-13 0)
(1.2 -4.00025e-14 0)
(1.2 1.02727e-13 0)
(1.2 -1.50746e-13 0)
(1.2 -3.89678e-15 0)
(1.1826 -0.00700825 0)
(1.26191 -0.048728 0)
(1.2 9.46232e-14 0)
(1.24792 -0.0258616 0)
(1.22017 0.0347085 0)
(1.2 7.69633e-14 0)
(1.2 -1.92498e-13 0)
(1.2 -9.81089e-14 0)
(1.2 9.25889e-14 0)
(1.2 8.57612e-14 0)
(1.2 4.67481e-14 0)
(1.2 2.05551e-13 0)
(1.2 -1.08002e-13 0)
(1.19985 0.000166279 0)
(1.2 -5.41797e-15 0)
(1.25332 -0.0178893 0)
(1.2 3.62889e-14 0)
(1.26597 -0.0888388 0)
(1.25216 -0.0160155 0)
(1.2 -7.73821e-14 0)
(1.2 1.32454e-14 0)
(1.2 -9.38346e-14 0)
(1.2 2.06325e-14 0)
(1.2 -2.02696e-13 0)
(1.2 1.60592e-13 0)
(1.2 -2.072e-14 0)
(1.26186 -0.0664315 0)
(1.2 1.80512e-13 0)
(1.2 -8.32861e-14 0)
(1.2 -1.95691e-13 0)
(1.2 -6.23743e-16 0)
(1.2 1.50456e-13 0)
(1.2 -1.23929e-13 0)
(1.2 1.56254e-13 0)
(1.20346 0.0537475 0)
(1.2 5.71163e-14 0)
(1.2 -1.04238e-13 0)
(1.2 -3.31968e-13 0)
(1.2 6.11677e-14 0)
(1.2 -2.89331e-13 0)
(1.18153 -0.00285421 0)
(1.2 5.596e-14 0)
(1.2 6.85381e-14 0)
(1.2 -8.14019e-14 0)
(1.2 -3.48616e-13 0)
(1.2 -1.92218e-13 0)
(1.2 4.07447e-14 0)
(1.2 -3.39451e-15 0)
(1.25944 -0.120754 0)
(1.2 -1.59006e-13 0)
(1.2 5.10924e-14 0)
(1.2 -2.35133e-14 0)
(1.2 -2.92905e-14 0)
(1.2 -8.73601e-14 0)
(1.2 -3.10675e-14 0)
(1.2 -2.57629e-14 0)
(1.2 -1.1125e-13 0)
(1.2 1.0222e-13 0)
(1.2 1.26193e-06 0)
(1.2 3.04817e-09 0)
(1.2 4.90615e-14 0)
(1.2 -1.95075e-13 0)
(1.2 1.39096e-13 0)
(1.2 -1.0966e-13 0)
(1.2 1.22133e-14 0)
(1.2 -8.57877e-14 0)
(1.2 -1.18885e-13 0)
(1.2 1.98261e-13 0)
(1.24938 -0.0271848 0)
(1.2 1.62834e-13 0)
(1.2 -5.88434e-14 0)
(1.2 -9.70164e-14 0)
(1.2 -9.46948e-14 0)
(1.2 1.39035e-14 0)
(1.2 6.58411e-14 0)
(1.2 2.77423e-13 0)
(1.26142 -0.0917102 0)
(1.2 -4.07667e-14 0)
(1.2 -6.19005e-14 0)
(1.2 1.63877e-14 0)
(1.25184 -0.0262224 0)
(1.2 3.71651e-14 0)
(1.2 1.85403e-13 0)
(1.2 -2.61283e-13 0)
(1.2 1.65968e-13 0)
(1.2 1.95789e-13 0)
(1.2 3.70307e-13 0)
(1.2 1.05449e-13 0)
(1.2 1.53792e-13 0)
(1.2 -1.16474e-13 0)
(1.2 9.53238e-14 0)
(1.26486 -0.0871697 0)
(1.2 -2.68679e-13 0)
(1.2 -2.3413e-14 0)
(1.2 -2.73586e-14 0)
(1.2 -1.08877e-13 0)
(1.2 9.83448e-14 0)
(1.2 1.23022e-13 0)
(1.2 -4.45344e-14 0)
(1.20738 0.0496529 0)
(1.2 -2.28471e-14 0)
(1.21259 0.0456442 0)
(1.2 7.19582e-14 0)
(1.2 5.0706e-14 0)
(1.26155 -0.0491634 0)
(1.2 1.15007e-14 0)
(1.2 -8.25268e-14 0)
(1.2 1.37903e-13 0)
(1.2 -3.93166e-14 0)
(1.2 1.08097e-13 0)
(1.2 -6.23569e-14 0)
(1.2 -9.25237e-14 0)
(1.21345 0.0441925 0)
(1.18336 0.0631059 0)
(1.2 -1.61592e-13 0)
(1.18331 0.0631991 0)
(1.18368 0.0625088 0)
(1.18332 0.0621663 0)
(1.1812 -0.000325647 0)
(1.2 -3.06536e-13 0)
(1.2 -3.78942e-14 0)
(1.2 -2.2441e-13 0)
(1.21261 0.0488906 0)
(1.18005 -0.00103653 0)
(1.2 8.99187e-14 0)
(1.2 1.44959e-13 0)
(1.2 -2.64253e-14 0)
(1.2 -7.63289e-14 0)
(1.02166 0.0770622 0)
(1.2 3.85848e-13 0)
(1.2 -2.69429e-13 0)
(1.00736 0.0899314 0)
(1.2 4.35122e-12 0)
(1.2 1.34545e-13 0)
(1.20763 0.0520094 0)
(1.20527 0.0539688 0)
(1.2 1.50777e-14 0)
(1.2 -1.28508e-13 0)
(1.17781 -0.00103876 0)
(1.2 2.03892e-13 0)
(1.2 2.00942e-13 0)
(1.2 -5.61992e-14 0)
(1.22939 0.0275048 0)
(1.2 -2.9346e-13 0)
(1.2 -2.08776e-13 0)
(1.2 -2.55514e-14 0)
(1.2 -2.38844e-13 0)
(1.2 -3.25528e-13 0)
(1.2 -2.5632e-13 0)
(1.2 -1.40904e-13 0)
(1.2 -3.38514e-13 0)
(1.26478 -0.109191 0)
(1.2 -1.77943e-13 0)
(1.2 -1.1089e-13 0)
(1.2 1.8339e-13 0)
(1.2 -1.07781e-13 0)
(1.2 1.57494e-13 0)
(1.2 3.02802e-13 0)
(1.2 -2.81723e-13 0)
(1.2 1.2971e-13 0)
(1.2 1.25889e-13 0)
(1.2 9.27029e-14 0)
(1.2 1.25299e-14 0)
(1.2 2.2243e-13 0)
(1.2 5.13818e-14 0)
(1.2 4.57412e-15 0)
(1.2 -1.41995e-13 0)
(1.2 -2.84973e-14 0)
(1.2 -2.27421e-13 0)
(1.2 3.39837e-15 0)
(1.09624 0.0925552 0)
(1.2 -5.16772e-14 0)
(1.2 -3.91479e-14 0)
(1.2 -3.44416e-14 0)
(1.2 -7.7362e-14 0)
(1.2 -1.27095e-13 0)
(1.26069 -0.0894772 0)
(1.2 -2.4618e-13 0)
(1.25637 -0.0229883 0)
(1.2 1.31293e-13 0)
(1.2 -2.56988e-13 0)
(1.2 -1.97249e-13 0)
(1.2 3.11593e-15 0)
(1.2 -6.08079e-14 0)
(1.2 5.85956e-14 0)
(1.2 9.87775e-14 0)
(1.2 1.27301e-13 0)
(1.2 1.84375e-15 0)
(1.2266 0.0266916 0)
(1.2 -1.13911e-13 0)
(1.2 5.30297e-14 0)
(1.2 -2.34442e-13 0)
(1.2 2.59052e-14 0)
(1.2 -1.98825e-13 0)
(1.2 -2.98667e-13 0)
(1.2 6.42394e-14 0)
(1.2 -1.32927e-13 0)
(1.25584 -0.0408353 0)
(1.2 3.37664e-13 0)
(1.2 1.55554e-13 0)
(1.2 1.14437e-13 0)
(1.2 -2.69858e-13 0)
(1.2 5.98795e-14 0)
(1.2 2.06387e-13 0)
(1.2 4.44767e-14 0)
(1.2 -9.23495e-14 0)
(1.18452 -0.000741357 0)
(1.2 -1.74842e-13 0)
(1.2 1.53694e-13 0)
(1.2 -4.88446e-13 0)
(1.24707 -0.0133672 0)
(1.2 -1.19043e-13 0)
(1.26357 -0.0480986 0)
(1.2 -5.49761e-14 0)
(1.2 3.82224e-13 0)
(1.2 4.77886e-13 0)
(1.2 -8.48978e-14 0)
(1.2 -8.59817e-14 0)
(1.2 -1.00098e-13 0)
(1.2 2.48916e-13 0)
(1.2 -1.46864e-13 0)
(1.2 7.13208e-14 0)
(1.2 1.66884e-13 0)
(1.1994 0.0559983 0)
(1.2 2.73792e-13 0)
(1.2 3.22339e-13 0)
(1.2 1.03337e-13 0)
(1.2 2.50207e-13 0)
(1.2 -1.3473e-14 0)
(1.2 2.54778e-13 0)
(1.2 2.21156e-13 0)
(1.2 2.18668e-13 0)
(1.2 1.69741e-14 0)
(1.2 -7.60589e-14 0)
(1.2 -2.05228e-13 0)
(1.2 -1.1972e-13 0)
(1.2 2.56899e-13 0)
(1.2 5.69974e-14 0)
(1.2 1.55302e-13 0)
(1.2 1.48431e-13 0)
(1.22248 0.0322687 0)
(1.2 1.56914e-13 0)
(1.2 2.97141e-13 0)
(1.2 -1.24631e-13 0)
(1.26339 -0.0332071 0)
(1.2 5.63941e-14 0)
(1.2 1.81057e-14 0)
(1.05109 0.0327877 0)
(1.2 4.20913e-14 0)
(1.2 1.30808e-14 0)
(1.2 -1.58423e-13 0)
(1.2 3.90691e-13 0)
(1.2 6.81458e-14 0)
(1.2 -1.60079e-14 0)
(1.11561 -0.0129652 0)
(1.17939 -0.000214978 0)
(1.2 -1.0772e-13 0)
(1.26709 -0.0625525 0)
(1.2 9.0133e-14 0)
(1.2 1.90854e-13 0)
(1.2 8.74795e-15 0)
(1.2 -2.72938e-13 0)
(1.2 -7.08452e-14 0)
(1.26061 -0.0357176 0)
(1.26188 -0.0378657 0)
(1.2 -2.64001e-13 0)
(1.1815 -0.0106045 0)
(1.05496 0.0727712 0)
(1.2 -1.10809e-13 0)
(1.2 2.37141e-14 0)
(1.26146 -0.0596134 0)
(1.2 -3.44372e-13 0)
(1.24684 -0.0394302 0)
(1.17976 -0.000798974 0)
(1.2 1.22225e-13 0)
(1.2 -4.8813e-14 0)
(1.2 -1.41113e-13 0)
(1.2 6.80301e-14 0)
(1.2 -6.01951e-14 0)
(1.2 1.76712e-13 0)
(1.2 -7.34051e-14 0)
(1.2 8.82346e-14 0)
(1.2 5.87846e-15 0)
(1.2 9.64963e-14 0)
(1.2 -2.12603e-13 0)
(1.2 -6.51741e-14 0)
(1.2 -1.25414e-13 0)
(1.2 7.82605e-14 0)
(1.25137 -0.0280031 0)
(1.2425 -0.0226006 0)
(1.2 -3.72156e-13 0)
(1.22449 0.0295463 0)
(1.26357 -0.108883 0)
(1.2 -7.54432e-14 0)
(1.2 4.9833e-14 0)
(1.2 -5.16475e-14 0)
(1.2 5.57614e-14 0)
(1.2 9.99795e-14 0)
(1.2 -1.16982e-14 0)
(1.2 -9.7319e-17 0)
(1.2 -2.7722e-13 0)
(1.2 -1.94555e-13 0)
(1.2 -2.51123e-13 0)
(1.19977 0.00498775 0)
(1.2 -9.76617e-14 0)
(1.2 -9.57911e-06 0)
(1.24799 -0.0354357 0)
(1.2 8.69328e-14 0)
(1.2 -4.77727e-13 0)
(1.2 1.48102e-13 0)
(1.18899 0.0456803 0)
(1.2 2.14094e-13 0)
(1.2 -2.76695e-14 0)
(1.2 -1.68775e-14 0)
(1.2 5.76976e-14 0)
(1.2 -2.02861e-13 0)
(1.2 4.84815e-09 0)
(1.20006 0.000252715 0)
(1.2 -6.23812e-14 0)
(1.2 2.84113e-13 0)
(1.2 2.57682e-13 0)
(1.2 2.84453e-14 0)
(1.26044 -0.0227321 0)
(1.2 2.02586e-13 0)
(1.2 9.45027e-14 0)
(1.2 -6.30672e-06 0)
(1.2 -2.70243e-14 0)
(1.2 -9.0519e-14 0)
(1.18181 -0.0101831 0)
(1.2 5.2414e-12 0)
(1.2 -2.59048e-14 0)
(1.22453 0.0313042 0)
(1.22221 0.033817 0)
(1.2 -2.05762e-14 0)
(1.2 7.61457e-09 0)
(1.26319 -0.0509528 0)
(1.2 -6.04192e-14 0)
(1.2 2.25311e-13 0)
(1.2 -7.36705e-14 0)
(1.2 1.47375e-13 0)
(1.2 2.51616e-13 0)
(1.2 2.03408e-13 0)
(1.2 -1.68733e-13 0)
(1.2 -2.74075e-13 0)
(1.2 2.64456e-13 0)
(1.2 1.69432e-14 0)
(1.255 -0.116276 0)
(1.2 6.9228e-14 0)
(1.2 -3.14876e-14 0)
(1.2 -2.48081e-13 0)
(1.2 5.76976e-14 0)
(1.2 -1.98809e-13 0)
(1.2 -5.09435e-14 0)
(1.25389 -0.113631 0)
(1.25352 -0.113872 0)
(1.2 9.49938e-15 0)
(1.2 -1.50345e-13 0)
(1.2 -2.51583e-14 0)
(1.2 -1.5213e-13 0)
(1.18337 -0.00348487 0)
(1.26179 -0.0479565 0)
(1.10169 0.092545 0)
(1.2 5.23367e-14 0)
(1.2 -1.0863e-13 0)
(1.2 -9.68619e-14 0)
(1.2 -3.14331e-13 0)
(1.2 -4.38153e-13 0)
(1.2 -1.53537e-13 0)
(1.2 1.34993e-13 0)
(1.2 -1.15106e-13 0)
(1.2 -3.88749e-14 0)
(1.2 1.94404e-13 0)
(1.2 -6.02241e-14 0)
(1.2 -4.87684e-12 0)
(1.2 1.58976e-13 0)
(1.2 2.78619e-14 0)
(1.2 -1.30634e-14 0)
(1.2 -1.21057e-13 0)
(1.2 -5.49923e-14 0)
(1.2 1.23643e-13 0)
(1.2 5.61446e-14 0)
(1.26004 -0.060459 0)
(1.2 -1.22329e-13 0)
(1.24977 -0.0456588 0)
(1.2 -1.57628e-13 0)
(1.2 -2.80255e-13 0)
(1.2 -4.48848e-14 0)
(1.2 2.92055e-13 0)
(1.2 -5.67904e-14 0)
(1.2 -1.44326e-13 0)
(1.2 1.0947e-13 0)
(1.2 1.19809e-14 0)
(1.2 -1.47474e-13 0)
(1.2 1.34739e-13 0)
(1.24373 -0.0185923 0)
(1.2 2.64074e-13 0)
(1.26732 -0.0372119 0)
(1.26641 -0.0350971 0)
(1.2 1.77118e-13 0)
(1.24897 -0.0266955 0)
(1.25164 -0.0289291 0)
(1.25552 -0.0493231 0)
(1.25603 -0.0499862 0)
(1.2 -1.30648e-13 0)
(1.2 -3.25889e-14 0)
(1.18093 -0.00100494 0)
(1.2 -5.39761e-14 0)
(1.2 -1.55577e-13 0)
(1.2 1.3581e-13 0)
(1.23421 -0.0102192 0)
(1.23467 -0.0195072 0)
(1.2 2.72475e-14 0)
(1.2 -4.66307e-14 0)
(1.2 1.03225e-13 0)
(1.2 -9.67394e-14 0)
(1.2 1.48442e-13 0)
(1.2 2.25581e-13 0)
(1.2 2.95809e-12 0)
(1.2 -1.81967e-10 0)
(1.17955 -0.000523795 0)
(1.2 -2.9137e-13 0)
(1.2 9.08099e-14 0)
(1.2 -7.53937e-14 0)
(1.2 -3.01021e-13 0)
(1.2 -6.8508e-16 0)
(1.2 -8.97785e-14 0)
(1.1804 -0.000731383 0)
(1.25265 -0.111121 0)
(1.2 5.91044e-14 0)
(1.2 -2.31336e-14 0)
(1.2 2.6648e-13 0)
(1.2 -1.59079e-13 0)
(1.2 1.01095e-13 0)
(1.2 -2.53076e-14 0)
(1.2 1.16555e-13 0)
(1.2 7.09095e-14 0)
(1.2 3.46555e-14 0)
(1.2 7.72811e-14 0)
(1.2 -2.98163e-13 0)
(1.2 -1.05025e-13 0)
(1.2 -5.06253e-14 0)
(1.2 1.33649e-13 0)
(1.2 -1.16287e-13 0)
(1.2 -1.35841e-13 0)
(1.2 3.02663e-14 0)
(1.22843 0.0251549 0)
(1.2 3.34018e-13 0)
(1.2504 -0.0272931 0)
(1.2 1.12151e-13 0)
(1.25123 -0.027171 0)
(1.2 -2.19506e-13 0)
(1.2 -1.71718e-14 0)
(1.2 -4.5204e-14 0)
(1.2 -1.68719e-13 0)
(1.2 -1.84369e-13 0)
(1.2 1.56554e-13 0)
(1.0609 0.0933398 0)
(1.2 -1.74838e-14 0)
(1.23562 -0.0214887 0)
(1.18704 -0.0151265 0)
(1.1867 -0.0143295 0)
(1.2367 -0.021328 0)
(1.2 2.2174e-13 0)
(1.2 -1.32367e-13 0)
(1.2 -7.33672e-14 0)
(1.11609 -0.0108199 0)
(1.2 1.06802e-13 0)
(1.2 1.00866e-13 0)
(1.2 5.00407e-14 0)
(1.25924 -0.0938827 0)
(1.18005 -0.0008251 0)
(1.2 -1.75589e-15 0)
(1.2 6.24421e-14 0)
(1.2 -4.19315e-14 0)
(1.2 -3.87386e-14 0)
(1.2 -4.8213e-14 0)
(1.2 -1.29493e-13 0)
(1.2 1.31802e-13 0)
(0.94378 0.0760836 0)
(1.2 1.76715e-13 0)
(1.2 -5.59235e-14 0)
(1.26382 -0.0401637 0)
(1.25015 -0.0357838 0)
(1.17967 -0.000242327 0)
(1.25879 -0.116368 0)
(1.26766 -0.123196 0)
(1.24684 -0.10701 0)
(1.25575 -0.0296952 0)
(1.17506 -0.00109409 0)
(1.2 -9.91456e-14 0)
(1.2551 -0.115862 0)
(1.2 -2.26826e-13 0)
(1.2 7.14329e-14 0)
(1.2 1.51408e-14 0)
(1.2 -1.03544e-14 0)
(1.2 -1.68324e-13 0)
(1.2 -1.38201e-13 0)
(1.2 -9.97526e-14 0)
(1.2 -5.01068e-14 0)
(1.2 2.82136e-13 0)
(1.2 8.49702e-14 0)
(1.2 4.45363e-14 0)
(1.2 -1.44331e-13 0)
(1.2 -2.73102e-13 0)
(1.2 -4.04903e-14 0)
(1.2 1.7742e-14 0)
(1.2 1.01139e-13 0)
(1.2 -7.59264e-14 0)
(1.2 3.11089e-14 0)
(1.2 -4.94954e-14 0)
(1.2 -1.44622e-13 0)
(1.2 -2.10271e-13 0)
(1.14933 0.081643 0)
(1.2 -4.3003e-13 0)
(1.2 -4.66321e-13 0)
(1.2 -2.05221e-13 0)
(1.2 -1.63132e-13 0)
(1.2 4.55991e-13 0)
(1.2 2.3014e-13 0)
(1.2 -1.13009e-13 0)
(1.2 -1.18214e-14 0)
(1.2 -1.86975e-13 0)
(1.2 -1.93838e-13 0)
(1.2 -5.64826e-14 0)
(1.2 -1.09094e-13 0)
(1.2 -1.199e-13 0)
(1.2 -1.43708e-14 0)
(1.2 1.35671e-13 0)
(1.2 -4.07998e-14 0)
(1.2 -1.64828e-13 0)
(1.2 -1.14751e-13 0)
(1.2 -1.78811e-13 0)
(1.2 1.38192e-14 0)
(1.2 6.59802e-14 0)
(1.18443 0.0602208 0)
(1.2 -2.20661e-13 0)
(1.2 -1.70944e-13 0)
(1.2 -6.02242e-14 0)
(1.2 3.62037e-14 0)
(1.2 -5.83962e-14 0)
(1.24102 -0.100126 0)
(1.2 4.18532e-13 0)
(1.2 -3.5647e-13 0)
(1.23511 0.00499132 0)
(1.2 -1.15407e-13 0)
(1.2 2.78266e-13 0)
(1.2 2.44172e-13 0)
(1.26647 -0.0410055 0)
(1.2 6.80098e-14 0)
(1.2 1.441e-13 0)
(1.2 1.16961e-13 0)
(1.2 -9.66526e-14 0)
(1.2 -4.78219e-14 0)
(1.2 1.59041e-14 0)
(1.2 1.09037e-14 0)
(1.2 2.28558e-13 0)
(1.2 -1.32853e-13 0)
(1.2 1.05666e-13 0)
(1.2 3.88924e-13 0)
(1.2 -8.38555e-14 0)
(1.2532 -0.0173451 0)
(1.25146 -0.113568 0)
(1.2 1.01515e-13 0)
(1.2 1.26182e-13 0)
(1.2 -1.71126e-14 0)
(1.2 -1.02275e-13 0)
(1.2 -1.01633e-13 0)
(1.27402 -0.125753 0)
(1.2 -2.48891e-15 0)
(1.2 -2.31273e-13 0)
(1.2 2.40168e-13 0)
(1.2 -7.9267e-14 0)
(1.2 2.32685e-13 0)
(1.22643 0.0270486 0)
(1.23315 0.0206164 0)
(1.2 1.61321e-13 0)
(1.2 2.03085e-14 0)
(1.2 1.3081e-13 0)
(1.2 3.74326e-13 0)
(1.2 3.34661e-14 0)
(1.2 7.63962e-16 0)
(1.2 -1.54398e-14 0)
(1.2 -1.1129e-13 0)
(1.2 -2.32733e-14 0)
(1.23085 -0.0914464 0)
(1.25532 -0.114356 0)
(1.2 -9.51684e-14 0)
(1.23049 -0.0895823 0)
(1.2 1.67408e-13 0)
(1.2316 -0.0916355 0)
(1.2307 -0.0891243 0)
(1.23957 -0.0955867 0)
(1.2 -5.32131e-14 0)
(0.97886 0.0844961 0)
(1.17755 -0.00126877 0)
(1.2 5.34623e-14 0)
(1.2 1.89864e-13 0)
(1.2 1.32703e-13 0)
(1.21248 0.0473447 0)
(1.20971 0.0502519 0)
(1.2 -1.30003e-13 0)
(1.17651 -0.00090112 0)
(1.2 3.50996e-13 0)
(1.2 -2.73487e-13 0)
(1.18117 -0.000378981 0)
(1.17985 -0.000179386 0)
(1.2 1.09711e-12 0)
(1.2 1.35459e-12 0)
(1.2 1.47267e-12 0)
(1.18315 0.0623326 0)
(1.2 -1.50534e-13 0)
(1.26188 -0.0373683 0)
(1.2 1.39536e-14 0)
(1.2 3.52428e-15 0)
(1.2 -1.86852e-13 0)
(1.22645 0.0175329 0)
(1.2378 -0.0143126 0)
(1.24809 -0.040212 0)
(1.23289 0.0229991 0)
(1.2 2.75664e-14 0)
(1.2 -1.76376e-12 0)
(1.1828 0.0622623 0)
(1.26054 -0.0763132 0)
(1.2 -2.8344e-14 0)
(1.2 -4.42439e-14 0)
(1.2 1.78767e-13 0)
(1.23537 0.0131521 0)
(1.2 -5.40598e-14 0)
(1.2 4.23013e-14 0)
(1.2 -1.10189e-13 0)
(1.2 -1.18022e-13 0)
(1.24654 -0.00803741 0)
(1.23166 0.0215696 0)
(1.17669 -0.000235005 0)
(1.2 1.23216e-12 0)
(1.22883 0.0264301 0)
(1.22675 0.0288153 0)
(1.22199 -0.0626329 0)
(1.2 1.28e-13 0)
(1.23128 0.0139242 0)
(1.2 9.06575e-14 0)
(1.2 3.28861e-13 0)
(1.2 -3.87361e-14 0)
(1.27048 -0.0755096 0)
(1.24689 -0.023541 0)
(1.22345 -0.0765838 0)
(1.23388 0.00680608 0)
(1.2 -6.23192e-13 0)
(1.2 -6.94077e-14 0)
(1.2 -2.66838e-14 0)
(1.2 -1.80321e-13 0)
(1.2 2.72695e-12 0)
(1.24569 -0.00617007 0)
(1.23235 0.0189564 0)
(1.2 1.69597e-14 0)
(1.2 -5.13227e-14 0)
(1.2 8.75855e-14 0)
(1.2 -1.13993e-13 0)
(1.2 1.21185e-11 0)
(1.2 -2.38246e-13 0)
(1.2 -1.56371e-13 0)
(1.23994 -0.098268 0)
(1.23056 0.0204085 0)
(1.25049 -0.0474335 0)
(1.2 2.6016e-13 0)
(1.2 1.35672e-13 0)
(1.2 -1.78937e-13 0)
(1.2 2.01363e-14 0)
(1.24328 -0.00336589 0)
(1.2 -1.62708e-13 0)
(1.2 1.15188e-13 0)
(1.26035 -0.120252 0)
(1.25152 -0.0441586 0)
(1.2 3.81853e-13 0)
(1.25433 -0.0404515 0)
(1.2 7.0378e-14 0)
(1.2 9.15696e-15 0)
(1.2 5.13017e-07 0)
(1.2 -2.19553e-13 0)
(1.2 1.51606e-13 0)
(1.2 -2.13215e-13 0)
(1.2 -1.91102e-14 0)
(1.2 -1.09692e-13 0)
(1.22635 0.0257292 0)
(1.2 -1.2825e-13 0)
(1.2 2.10996e-13 0)
(1.23949 -0.0111201 0)
(1.2 5.72844e-14 0)
(1.2 5.75041e-14 0)
(1.22755 0.0167901 0)
(1.2 1.73337e-13 0)
(1.2 -3.17763e-13 0)
(1.2 6.17699e-14 0)
(1.2 1.33637e-13 0)
(1.2 2.8821e-14 0)
(1.2 -1.01679e-13 0)
(1.2 -1.77166e-13 0)
(1.2 -1.12394e-13 0)
(1.2 -3.76354e-15 0)
(1.2 -1.17738e-13 0)
(1.2519 -0.0490202 0)
(1.2256 0.0278676 0)
(1.2 -7.1863e-14 0)
(1.24107 -0.00144265 0)
(1.2103 -0.031462 0)
(1.2 1.25142e-13 0)
(1.26555 -0.0646061 0)
(1.2 1.83915e-13 0)
(1.18284 0.062001 0)
(1.2 -4.3103e-14 0)
(1.2 1.10033e-14 0)
(1.2 1.67639e-13 0)
(1.23644 -0.0102644 0)
(1.2 -1.57987e-13 0)
(1.2 -2.89257e-13 0)
(1.2 1.45186e-13 0)
(1.2 -6.68325e-14 0)
(1.17909 -0.000445987 0)
(1.17968 -0.000390558 0)
(1.23884 -0.022105 0)
(1.2 5.97644e-14 0)
(1.1204 -0.0121825 0)
(1.2 1.22005e-13 0)
(1.2 1.017e-10 0)
(1.2 -1.51916e-13 0)
(1.2 -1.67319e-13 0)
(1.24352 0.00122716 0)
(1.2 1.07299e-10 0)
(1.2 -1.978e-13 0)
(1.2 -1.26945e-14 0)
(1.2 1.61333e-13 0)
(1.2 1.30491e-13 0)
(1.2 5.727e-14 0)
(1.2 4.07859e-14 0)
(1.25981 -0.093815 0)
(1.2 -4.00452e-15 0)
(1.2 2.8755e-14 0)
(1.2 -1.42356e-15 0)
(1.2 1.567e-13 0)
(1.2 -2.59402e-13 0)
(1.2 -1.55083e-13 0)
(1.2 -2.70324e-11 0)
(1.2 3.2971e-15 0)
(1.2 1.59487e-09 0)
(1.2 -2.41088e-11 0)
(1.2 -7.25512e-15 0)
(1.1949 -0.0747829 0)
(1.2 8.22721e-10 0)
(1.2 1.15654e-13 0)
(1.2 -2.08912e-13 0)
(1.2 8.70163e-12 0)
(1.2 -5.36386e-14 0)
(1.2 -1.15391e-13 0)
(1.2 7.78334e-08 0)
(1.2 -5.06349e-11 0)
(1.24247 0.00294583 0)
(1.2 5.50405e-14 0)
(1.2 1.70097e-11 0)
(1.2 2.41644e-08 0)
(1.2 3.58137e-07 0)
(1.2 4.39792e-13 0)
(1.2 2.42218e-13 0)
(1.25426 -0.11432 0)
(1.2 1.44478e-13 0)
(1.2 2.27918e-15 0)
(1.24293 -0.024516 0)
(1.2 2.45066e-06 0)
(1.2 -1.42588e-13 0)
(1.2 -5.99292e-12 0)
(1.1656 -0.00280668 0)
(1.2 8.71399e-14 0)
(1.2 -1.44024e-13 0)
(1.2 1.79335e-14 0)
(1.2 1.76115e-05 0)
(1.2 -4.86879e-14 0)
(1.17705 -0.00101297 0)
(1.2 7.53184e-12 0)
(1.2 5.56164e-14 0)
(1.25561 -0.0519844 0)
(1.2 -1.44811e-13 0)
(1.2 -1.46975e-11 0)
(1.19999 1.27865e-05 0)
(1.17524 -0.000835564 0)
(1.2 2.60971e-14 0)
(1.2 -3.34995e-14 0)
(1.16965 -0.0068892 0)
(1.2 7.81599e-14 0)
(1.16842 -0.00740102 0)
(1.2 1.8048e-12 0)
(1.2 -2.79973e-13 0)
(1.2001 -0.000397246 0)
(1.2 -2.45023e-13 0)
(1.2 -1.92336e-13 0)
(1.2 -6.50354e-14 0)
(1.2 8.23197e-12 0)
(1.2 -6.39368e-14 0)
(1.2 -1.04618e-13 0)
(1.24832 -0.0147725 0)
(1.2 -1.50617e-13 0)
(1.2 -9.9077e-14 0)
(1.24464 -0.0118734 0)
(1.20018 -0.00042621 0)
(1.2 1.95066e-13 0)
(1.2 8.89105e-14 0)
(1.2 6.91962e-14 0)
(1.2 -2.89155e-14 0)
(1.2 -1.11708e-13 0)
(1.2 -3.26113e-14 0)
(1.2 1.68703e-13 0)
(1.2 -1.19871e-13 0)
(1.2 2.70678e-14 0)
(1.2 -2.3182e-13 0)
(1.2 2.09865e-13 0)
(1.2 2.07727e-14 0)
(1.2 1.0397e-13 0)
(1.2 -1.53839e-14 0)
(1.2 -6.6095e-14 0)
(1.2 -1.0458e-13 0)
(1.2 -2.53878e-13 0)
(1.2 3.89542e-14 0)
(1.2 2.23936e-13 0)
(1.11109 -0.0110074 0)
(1.2 1.05743e-16 0)
(1.23072 0.0194313 0)
(1.2 4.48222e-16 0)
(1.2 4.77018e-14 0)
(1.2 -1.36559e-13 0)
(1.2 1.47561e-06 0)
(1.25611 -0.0205766 0)
(1.22593 -0.0807201 0)
(1.2 4.11225e-14 0)
(1.22773 -0.0829544 0)
(1.16534 -0.00163574 0)
(1.2 2.02848e-13 0)
(1.2 -5.64379e-14 0)
(1.2 3.09514e-14 0)
(1.17133 -0.0223377 0)
(1.2 2.3674e-13 0)
(1.18584 0.0594838 0)
(1.2 2.33948e-13 0)
(1.2 3.72249e-12 0)
(1.24642 -0.0314247 0)
(1.21805 -0.0607457 0)
(1.2 -2.47736e-13 0)
(1.2 -3.34273e-14 0)
(1.2 -1.81381e-13 0)
(1.2 1.27615e-13 0)
(1.2 -2.13331e-13 0)
(1.2 3.17994e-13 0)
(1.2 -1.37591e-12 0)
(1.2 -7.97631e-13 0)
(1.2 9.83614e-14 0)
(1.2 2.51798e-12 0)
(1.2 -6.91712e-14 0)
(1.2 -2.48437e-13 0)
(1.2 -1.11367e-13 0)
(1.2 -3.49094e-13 0)
(1.2501 -0.0263473 0)
(1.2 -5.90775e-14 0)
(1.2 2.88047e-14 0)
(1.2 2.57232e-14 0)
(1.19999 0.0216155 0)
(1.2 1.58675e-14 0)
(1.2 -1.58142e-13 0)
(1.2 -2.0864e-13 0)
(1.2 -7.16174e-14 0)
(1.2 -2.84194e-13 0)
(1.24138 -0.0209175 0)
(1.17091 0.0660478 0)
(1.23924 -0.0264089 0)
(1.2 1.71431e-13 0)
(1.2 -4.78358e-15 0)
(1.2 -1.75566e-13 0)
(1.2 1.91601e-14 0)
(1.2 2.41364e-13 0)
(1.2 -1.43743e-05 0)
(1.2 -1.90043e-10 0)
(1.26363 -0.0627897 0)
(1.2 -1.85215e-10 0)
(1.19376 0.0334734 0)
(1.23093 0.0240712 0)
(1.2 -8.13222e-11 0)
(1.2 -2.24765e-11 0)
(1.2 4.61917e-14 0)
(1.2 6.71917e-12 0)
(1.2 -7.08544e-15 0)
(1.18639 -0.0109542 0)
(1.2 2.91316e-13 0)
(1.19999 -1.6069e-05 0)
(1.2 -5.63844e-14 0)
(1.2 -1.31584e-13 0)
(1.2 -1.14024e-07 0)
(1.2 3.74676e-15 0)
(1.2 7.23534e-11 0)
(1.2 -5.63536e-14 0)
(1.2 -8.2962e-14 0)
(1.2 1.75129e-09 0)
(1.2 -5.0875e-14 0)
(1.2 -1.0453e-13 0)
(1.24797 -0.0246985 0)
(1.2 -1.50025e-13 0)
(1.2 -1.12027e-06 0)
(1.2 -2.22488e-13 0)
(1.2 -6.73815e-14 0)
(1.2 -8.43101e-15 0)
(1.21543 -0.0542886 0)
(1.2 3.83388e-14 0)
(1.25651 -0.0204973 0)
(1.2 1.56048e-13 0)
(1.14468 -0.0130764 0)
(1.263 -0.0468758 0)
(1.2 5.09511e-14 0)
(1.2 2.00231e-13 0)
(1.2 -3.31014e-13 0)
(1.2 3.92406e-09 0)
(1.18063 -0.00110621 0)
(1.2 -9.30315e-14 0)
(1.17431 -0.00102168 0)
(1.2 -2.00281e-11 0)
(1.2 -9.25287e-14 0)
(1.2 -6.53997e-14 0)
(1.25125 -0.111619 0)
(1.2 -1.15972e-13 0)
(1.2 1.36812e-13 0)
(1.17669 -0.000361908 0)
(1.20648 -0.032648 0)
(1.2 -2.26325e-13 0)
(1.2 -4.78961e-13 0)
(1.2 -2.46234e-13 0)