/*--------------------------------*- C++ -*----------------------------------*\
  =========                 |
  \\      /  F ield         | OpenFOAM: The Open Source CFD Toolbox
   \\    /   O peration     | Website:  https://openfoam.org
    \\  /    A nd           | Version:  12
     \\/     M anipulation  |
\*---------------------------------------------------------------------------*/
FoamFile
{
    format      ascii;
    class       surfaceScalarField;
    location    "0.625";
    object      phi;
}
// * * * * * * * * * * * * * * * * * * * * * * * * * * * * * * * * * * * * * //

dimensions      [1 0 -1 0 0 0 0];

internalField   nonuniform List<scalar> 
69079
(
-0.000157575
9.10491e-05
6.65255e-05
0.000127268
-3.50333e-17
-0.000127268
-0.000134976
0.000134922
0.000128736
-1.46833e-06
-0.000133407
-1.61691e-06
-0.000133403
7.91994e-05
-0.000146755
6.75559e-05
1.62443e-06
0.000107051
-0.000109283
0.000130024
-0.000130024
-3.71339e-18
0.000129367
6.56883e-07
-9.80687e-05
-5.95058e-05
-0.000119054
0.000128222
-8.51609e-06
-0.000127564
0.000124821
2.74345e-06
-0.00012692
-6.44003e-07
3.5111e-06
-0.000112319
0.000108808
0.000129393
-2.57601e-08
0.000128749
6.44003e-07
-0.000129238
0.000127538
1.70017e-06
-0.000127822
-1.41681e-06
0.000129148
-0.000128427
-7.21283e-07
0.000128144
1.00464e-06
0.000128386
-0.000130966
2.36326e-06
-0.000139066
1.33437e-05
0.000125722
0.000149254
-9.7927e-05
-5.1327e-05
0.000123223
-1.55462e-05
-0.000107677
-0.000128749
-1.27512e-06
0.000128723
2.57601e-08
2.96241e-07
-1.28801e-08
0.000110477
-0.000109642
0.00012114
-0.00012628
5.13087e-06
0.000122219
-0.000132446
1.02268e-05
0.000142647
-2.04278e-05
0.000127422
7.21283e-07
-3.99282e-07
-0.000128672
2.38281e-05
0.000104844
0.000127216
-0.000127216
2.54923e-17
2.96241e-07
-5.77295e-06
0.000116216
-0.000110551
-1.13988e-05
-0.000127667
0.00010259
2.64814e-05
-0.000129071
-0.000135574
1.6662e-05
0.000126328
-0.000126328
-9.96111e-18
-6.11802e-06
-0.000111547
0.000136269
-2.38936e-05
0.000126121
1.41681e-06
-1.0948e-06
-7.45111e-05
0.000142299
-6.77877e-05
0.000123764
-0.000123764
1.68051e-18
0.000141925
-1.81609e-05
0.000120274
2.16514e-05
0.000141165
-2.08914e-05
0.00012238
-3.62874e-06
-0.000118754
-0.000103544
0.000127756
-2.13924e-05
-0.000132398
0.00013366
-1.29106e-06
-0.000134958
5.78555e-05
7.53883e-05
0.000122837
-0.000122837
-8.42967e-18
0.000140715
-1.78775e-05
0.000121466
3.46981e-08
-0.000121584
-7.42922e-05
-4.19117e-05
0.000116204
7.62885e-05
5.11724e-05
-0.000127461
0.000133455
-7.10384e-05
-6.22674e-05
-1.4387e-05
-0.000114285
5.00648e-05
-0.000124576
-0.00010722
0.000110731
0.000124177
6.44003e-07
-2.15097e-06
0.000149373
-0.000149952
-1.56982e-05
-0.000119485
-0.000121278
1.00934e-05
-5.08504e-05
0.00013005
0.000118329
2.23855e-05
0.000139723
-2.13938e-05
0.000121315
-1.36443e-05
-0.000107908
0.000130308
-0.000127628
-2.679e-06
9.49904e-05
5.42637e-05
0.000114195
-0.000117453
3.25865e-06
-2.75633e-06
0.000116951
-0.000123172
1.13344e-05
0.000111837
0.000122219
2.04278e-05
-1.54561e-06
0.000117028
-0.00013922
2.21923e-05
0.000104248
1.81111e-05
0.000130526
-1.34983e-05
-7.90835e-05
-4.88412e-05
0.000127925
-0.000119643
0.000121176
-1.53273e-06
0.000116062
-0.000131454
1.53917e-05
0.000117015
-9.53124e-07
-8.89827e-05
-4.35404e-05
-6.33698e-06
-0.000102332
0.000108669
-7.06728e-05
0.000138937
-6.82643e-05
0.000145944
-4.33542e-05
-0.000129535
9.89188e-06
0.000120274
2.08914e-05
6.93591e-05
5.25892e-05
-0.000121948
-2.56313e-06
-0.000118393
-1.11412e-05
3.12985e-07
-0.000105998
0.000105685
0.00012495
-3.64186e-06
6.78907e-05
5.99309e-05
-0.000127822
5.42637e-05
-0.000124936
-0.000119437
1.04328e-06
0.000128697
-0.000128697
0.00013025
-8.78693e-06
2.10046e-05
-0.000137081
0.000116057
4.30065e-05
-0.00012209
-0.000125408
-1.0206e-05
0.000113898
-0.000132806
1.89079e-05
0.000116461
-2.56313e-06
7.23081e-06
0.000109873
-0.000115276
-6.4456e-06
0.000109747
-0.000103127
0.000118329
2.13938e-05
-2.08914e-05
-0.000104951
0.000105263
7.50907e-06
-0.000120995
0.000113486
-0.000124189
3.53029e-05
-8.07054e-06
0.000120703
-0.000112347
4.3805e-05
-0.000118097
-0.000110747
-3.59114e-06
0.000114239
0.000117683
-0.000120547
2.86341e-06
-0.000123584
0.000106557
1.70274e-05
-4.04594e-06
-0.00012936
0.000113757
1.67698e-05
-5.28082e-06
0.000119037
-0.000132909
0.000132909
-0.000114025
3.23824e-06
-3.61028e-05
0.000112391
0.000146715
-8.97089e-05
-6.07632e-05
-0.000133763
5.33811e-05
8.03483e-05
0.000122695
-5.92482e-07
-0.000122103
0.000111966
-0.000130655
1.8689e-05
0.000115676
-3.70945e-06
0.000124381
-1.70017e-06
0.000113151
-0.000111451
0.000115714
6.98099e-06
7.79758e-05
-0.000123726
4.57499e-05
0.000112803
-0.000136142
2.33387e-05
0.00013506
-2.22567e-05
-1.65434e-06
0.000120953
-7.74477e-05
0.000146176
-6.87279e-05
-9.64845e-05
-2.09687e-05
0.000108862
-0.000129354
2.04922e-05
0.000113267
-4.40498e-06
0.000119353
-0.000128129
8.52455e-06
-0.000121729
2.52449e-05
-3.1149e-05
-0.000102635
0.00011149
-0.000134532
2.30424e-05
-1.99641e-05
-0.00011476
0.000108774
8.53561e-05
-9.16931e-05
-0.000103985
0.000112832
0.000136761
-0.000136761
0.000115405
3.09121e-07
-2.07369e-05
0.000120475
-0.000128136
7.3991e-06
-0.000125139
3.71918e-06
6.95993e-05
7.57352e-05
-0.000128981
2.04664e-05
0.000108514
0.000109532
-0.00013318
2.36478e-05
-0.000111436
0.0001326
-2.30682e-05
-0.000123459
-1.9721e-06
0.000103227
-4.89079e-05
-4.07654e-05
0.000118741
-1.86503e-05
0.000141874
0.00011149
2.35705e-05
-0.000111593
0.000109893
-2.30424e-05
0.00011601
-0.000116012
6.9694e-05
-0.000121472
5.17778e-05
0.000108231
-0.000132059
2.38281e-05
0.000131608
-2.33773e-05
-1.92515e-05
-0.00011219
0.0001165
9.7502e-06
-0.00012625
-2.19127e-05
-0.000115238
1.45904e-05
-0.000109566
9.47411e-05
-7.73956e-05
0.000124679
-4.73534e-05
-0.000115611
4.17314e-06
0.000111438
4.8726e-06
0.00011637
-0.000115242
0.000107338
0.000112968
0.000123825
-3.3991e-06
0.000106917
-0.000131067
2.41501e-05
-2.58889e-05
7.08403e-07
-0.000112623
0.000111915
0.000110485
6.53019e-06
-2.26946e-05
4.95333e-05
8.73803e-05
0.000110665
4.89442e-07
-0.000111155
1.14632e-06
0.000109519
8.73275e-06
0.000121575
-4.74372e-05
-6.04976e-05
0.000107935
-0.000135602
7.63098e-05
5.93369e-05
7.39959e-05
-0.000121433
3.73521e-07
0.000112494
-0.000112868
-0.000112533
0.000112907
0.000101678
-0.000108035
-0.000118999
0.000123752
-4.75274e-06
0.000101662
-0.000122038
2.03762e-05
0.000110034
-8.37203e-06
-1.01997e-05
-9.90038e-05
0.000109204
6.70149e-05
4.77592e-05
-0.000114774
0.000108231
2.43691e-05
-2.38281e-05
1.68857e-05
-0.000117955
0.00010107
-0.000119823
-6.10948e-06
0.000120504
3.5473e-06
0.00010496
-0.000130024
2.50646e-05
0.000129135
-2.41759e-05
7.52581e-05
-0.000120329
4.50712e-05
0.000113757
-0.000106248
0.000118326
-0.000121934
0.000112688
3.81249e-06
-3.99281e-07
0.000121575
3.32305e-05
-0.000110638
-0.00011717
-1.82897e-06
0.00012357
-4.26224e-06
-7.07244e-05
-4.37664e-05
0.000114491
0.000103646
-0.000128582
2.49358e-05
0.000129566
-1.70846e-05
-0.000133096
-2.70095e-05
9.9859e-05
-8.52808e-05
0.000106917
2.46911e-05
-2.41501e-05
-7.9573e-05
-5.19581e-05
0.000131531
0.000128131
-0.000126392
-1.73881e-06
-1.4928e-05
0.00012844
-0.000113512
9.96529e-05
-0.000119823
2.01702e-05
0.000109094
-9.44108e-06
0.000106453
-0.000106977
4.67414e-07
-4.67546e-06
-0.000118909
-0.000132033
2.02474e-05
0.000111786
-2.36864e-05
-0.000108347
-1.65895e-05
-0.00011632
-4.73986e-05
0.000116758
-0.000146111
7.8388e-05
6.77233e-05
-0.000122142
0.000105719
1.64221e-05
0.000106058
4.79985e-07
0.000115822
-0.000109811
-5.85661e-06
-0.000138641
0.000122051
-0.000119359
-7.72803e-08
-0.000117453
0.000119372
-1.91913e-06
-7.14972e-05
-7.46141e-05
6.97841e-05
-0.000124885
5.51009e-05
-6.69774e-07
-0.000126959
-4.22466e-06
-0.000124756
0.000121454
-6.26759e-07
-0.000122811
5.3581e-06
0.000101688
-0.00012777
2.60821e-05
-2.76663e-05
0.000112634
3.31466e-06
9.79399e-05
-0.000117865
1.99254e-05
-0.000125439
2.62753e-06
0.000108231
-1.02912e-05
0.000107523
8.93875e-06
-2.25014e-05
0.000128358
-0.000123575
-5.08752e-06
-2.97529e-06
0.000114697
-0.000111722
0.00012522
-0.00012522
-0.000156441
7.35451e-05
8.2896e-05
-7.09176e-05
0.00012267
-5.1752e-05
-0.000113777
-3.83549e-06
0.000116944
-0.00012548
-2.73304e-06
-7.0477e-05
-4.56864e-05
0.000116087
6.89211e-05
4.26587e-05
-0.00011158
8.4336e-05
-9.45357e-05
3.97994e-06
0.000119604
-0.000123584
0.000103646
2.54896e-05
9.97302e-05
-0.000126418
2.66875e-05
-2.49358e-05
-0.000132497
0.000117569
-0.000118857
0.000118857
8.10026e-05
4.77979e-05
0.000125207
-2.54767e-05
-2.09816e-05
-0.000117659
0.000102493
7.4086e-05
-0.000121679
4.75931e-05
-3.84947e-06
-0.000114273
0.000121653
-1.15365e-06
0.000118252
-0.000117825
9.57374e-05
-0.000116075
2.03376e-05
0.000107329
-1.1592e-05
0.000128028
-0.000129097
-0.000107703
0.000111683
-7.66083e-05
-5.8878e-05
-7.38844e-05
0.000120005
-4.60354e-05
-0.00012391
2.67386e-06
0.000121824
-0.00012606
4.23618e-06
-6.45935e-05
0.000131608
0.000123593
1.25053e-06
0.000123265
4.5032e-07
-0.00014861
7.36996e-05
7.49104e-05
3.6296e-05
0.000106003
0.000123052
3.73054e-07
7.34708e-05
-0.000107164
3.37609e-05
0.000124099
4.34058e-06
0.00010995
-3.65525e-05
3.31146e-05
9.84165e-05
-0.000124627
2.62109e-05
0.000118293
0.000124228
-2.58116e-05
0.000132329
-2.22705e-05
-0.000111585
-0.000109576
-1.51862e-06
0.000111131
-0.000140341
8.15951e-05
5.87459e-05
0.000105397
1.02783e-05
-2.23726e-05
-4.30194e-05
0.000118278
0.000130739
-0.0001307
-0.000107381
0.00010787
0.000112572
-0.000111425
-7.2258e-05
0.000121027
-4.88474e-05
-2.09945e-06
-0.000121072
9.71156e-05
-0.000123636
2.652e-05
-0.00011565
0.000118522
-2.87225e-06
0.000123236
-2.61207e-05
-0.000125788
0.000128841
0.000119679
3.33149e-06
2.85937e-06
-0.000114607
0.000111747
-0.000108193
0.000107972
-0.000100834
-8.56254e-06
0.000109865
-0.000120506
4.85578e-06
-0.000106041
-4.07138e-05
0.000100761
-0.000116307
0.000130053
-1.38534e-05
0.000122108
-4.67549e-07
-0.000118316
-2.18961e-06
0.00012182
-0.00012182
9.58018e-05
-0.000122644
2.6842e-05
0.000122257
-2.64556e-05
9.18734e-05
-0.000111722
1.98482e-05
0.000104702
-1.28285e-05
-7.05054e-05
-6.98356e-05
-0.000124473
4.70251e-05
-0.000116732
-1.58425e-06
6.61625e-05
6.7169e-05
0.000121505
5.34913e-06
0.000104135
9.13196e-06
-2.22825e-05
-0.000117105
0.00010742
9.6858e-06
0.00013313
-0.000128028
-0.000102899
0.000114233
0.000106875
-0.000114498
7.76055e-06
0.000112919
-4.66258e-06
-0.000108257
9.45009e-05
-0.000121665
2.7164e-05
0.000121266
-2.67647e-05
-4.21178e-06
-0.00011793
-0.000121438
0.000127349
-4.79469e-06
7.21283e-07
-0.000116333
0.000133699
-2.40915e-05
-5.52683e-05
0.000123159
3.88283e-07
-0.000134294
2.19747e-05
-0.000110973
-1.24982e-05
0.000114323
-5.2293e-06
-0.000109094
9.84165e-05
2.67905e-05
0.000119604
-4.99102e-05
-2.62109e-05
-0.000121034
0.000109893
1.11412e-05
5.7363e-06
-0.000116748
-0.000154818
9.04051e-05
6.44131e-05
-0.000114568
3.79961e-06
0.000110768
-7.01705e-05
-8.46477e-05
4.2633e-06
0.000108708
-0.000112971
-0.000115199
5.33234e-06
0.000109867
-7.99851e-06
-0.000107201
-0.000119836
0.000111837
9.31872e-05
-0.00012066
2.74731e-05
-0.000115508
2.96241e-06
0.000112546
0.000115199
-4.93306e-06
-0.000110266
-3.92842e-06
0.00011462
-0.000110691
0.000111271
0.000120274
-2.70867e-05
0.000116449
-5.04898e-06
-0.0001114
0.000120298
-7.55476e-07
-0.000125902
-1.29573e-05
-0.00011954
-5.13914e-06
0.000116191
-0.000111052
6.72081e-05
4.47195e-05
-0.000111928
-0.000118587
4.78623e-05
-6.07372e-05
-6.40328e-05
-0.000132222
3.08787e-05
9.71156e-05
2.71125e-05
4.98476e-06
-0.000107737
-2.652e-05
5.66722e-06
0.000107252
-0.000108437
8.05003e-06
0.000100387
9.18863e-05
-0.000119681
2.77951e-05
-5.89486e-06
0.00012193
0.000115315
-4.55954e-06
-0.000110756
-0.000119675
-6.11501e-06
0.000119269
-2.7383e-05
-7.39082e-05
0.000113544
-3.90495e-05
0.000128041
-1.14632e-05
-0.000116577
0.000130949
-2.36807e-05
-0.000121589
0.000118745
2.94236e-06
0.000121923
-0.000122221
-0.000124408
7.36739e-06
0.000117041
2.69368e-06
0.000112517
-0.000115339
-6.56754e-05
0.000118265
8.72881e-05
-0.000106995
1.97065e-05
-1.52242e-05
0.000102512
1.04044e-05
0.000119952
8.85049e-07
0.000112162
-0.000113047
-1.11541e-05
9.93052e-05
-8.81511e-05
0.000135601
-8.01783e-05
-5.54229e-05
2.53737e-06
-0.00011498
0.000112443
2.46009e-06
-0.000119192
0.000118329
-0.000118329
-0.000111451
0.000112868
-1.41681e-06
0.000112458
-0.000115847
3.40454e-06
-0.000102989
0.000103697
-8.13451e-06
0.000117642
-0.000112144
-2.32658e-06
-0.000112979
0.000115303
5.94453e-05
6.33671e-05
-0.000123709
-1.27512e-06
0.000120647
-0.000116667
-1.49409e-06
0.000118162
-0.000123275
-4.18959e-08
0.000112359
-0.000114671
0.000105372
3.35654e-05
9.05725e-05
-0.000118677
2.81043e-05
-5.06444e-05
-5.66593e-05
0.000107304
9.58018e-05
2.74345e-05
-0.000134558
8.39135e-05
0.000115016
-4.09302e-05
-3.1466e-05
-2.6842e-05
-0.000141745
8.08867e-05
6.08582e-05
-6.55967e-05
0.00012487
-5.9282e-05
6.48987e-05
6.23807e-05
-0.000127279
-7.11494e-05
0.000121214
-0.000117131
0.000111374
5.75738e-06
-0.000118097
9.66004e-07
-0.000116815
3.98011e-06
0.000112824
4.35567e-06
0.000124649
-0.000108978
-3.09121e-06
0.000112069
-0.000101649
9.04952e-05
8.07575e-05
-0.000100308
0.000108579
-0.000116767
-3.54857e-06
0.000113559
-0.00011006
4.55538e-05
-0.00011915
-7.48073e-05
-6.69376e-05
-2.29537e-06
0.000115678
-0.000112948
-0.000121938
-6.32227e-06
-0.000144179
8.36817e-05
-2.92377e-06
-0.000121485
0.000123816
-0.000125566
-0.000100387
0.000120854
-0.000116367
0.000114655
-7.42214e-06
0.00012038
-0.000112665
-2.45623e-05
-9.42948e-05
6.84406e-05
-0.000139374
-3.45057e-05
0.000115508
-0.000111746
-1.87118e-06
0.000113536
1.52882e-06
8.79771e-05
-8.85324e-05
-1.14178e-07
-0.000113413
0.000113632
9.45009e-05
2.77565e-05
0.000114072
-2.25546e-06
-0.000111772
0.000114697
-6.18242e-07
-0.000114079
2.03475e-06
0.000112071
0.000113571
-0.000111459
-2.7164e-05
-0.000112868
-2.64041e-06
1.70292e-06
0.000111892
-0.000124022
0.000128195
-0.000112791
0.000113628
-8.37203e-07
-1.17441e-07
0.000112438
0.000110163
4.4565e-06
-0.000113138
3.47761e-07
-6.01136e-05
-4.87825e-05
0.000108917
-0.000135295
2.9297e-05
8.91425e-05
-8.66669e-05
-3.03374e-06
8.78162e-05
-0.000118329
3.05128e-05
0.000125346
-0.000120189
-4.45857e-06
-1.96479e-06
0.000123462
0.000116384
-2.8568e-05
4.2713e-05
-0.000113196
8.84215e-05
-0.000104006
1.55849e-05
-1.67569e-05
0.000105178
-0.000117415
0.000108154
9.26076e-06
0.000107149
-9.46684e-06
-0.000116925
0.00012133
-6.13992e-05
-4.04492e-05
9.38268e-05
-0.000116899
0.000112675
-3.28441e-06
-0.000113055
-7.20381e-05
-7.65719e-05
-9.57418e-05
1.16028e-06
9.54323e-05
-0.000114876
0.000111681
-1.07487e-06
0.000115418
-0.000114201
-3.59349e-06
-0.000108759
0.000112353
-1.79843e-06
0.000115428
-0.000113709
0.000136825
-6.68861e-05
-6.99387e-05
5.84754e-06
0.000108476
9.31872e-05
2.80785e-05
-0.00012741
1.38303e-05
0.000113654
-0.000118693
4.85551e-06
-2.74731e-05
8.70305e-05
-0.00011592
2.889e-05
-3.27926e-05
8.72881e-05
-0.000102706
1.54174e-05
-0.000110099
0.000107123
-0.000109455
-5.11338e-06
-1.74267e-05
0.000104715
4.89013e-06
5.15073e-05
8.40938e-05
0.000122592
-0.000120055
0.000115792
-1.0948e-06
-0.000119926
4.90086e-05
0.000112964
-1.3984e-06
-0.000111947
-0.000108301
0.000127427
0.000106466
-8.95807e-05
1.08192e-06
-0.000108463
-3.15457e-06
-0.000112418
0.000115593
-3.10409e-06
0.000121626
6.60489e-05
6.18114e-05
-0.00012786
7.76742e-05
6.32072e-05
-0.0001409
-0.000103276
-2.50379e-06
0.000106048
6.59116e-06
-0.000119025
0.000113425
7.48331e-06
0.000117737
-0.000117852
0.000121388
-0.000113863
0.000116436
-0.000118033
1.59713e-06
7.84438e-06
0.00011429
-9.53117e-07
0.000112585
-0.000111631
0.00012398
-0.000115843
-0.000123095
-6.86838e-05
0.000123812
-5.50882e-05
-6.92789e-05
0.000125711
-5.64224e-05
-0.000138293
3.7906e-05
0.000112482
-0.000114621
2.21006e-06
-0.000116658
0.000112015
-1.29445e-05
0.000124511
-0.000111567
0.000127319
-7.95601e-05
9.18863e-05
2.83876e-05
-0.000110704
3.43897e-06
0.000107265
8.03071e-05
-0.000135215
5.49077e-05
0.000120807
5.8788e-06
-0.000116667
-0.000137456
7.9895e-05
5.75609e-05
-2.77951e-05
0.000110446
-0.000107587
-0.000116655
-1.30089e-06
-0.000109659
0.000113155
-3.49565e-06
2.73315e-06
-0.000112393
-0.000113873
0.000101452
1.13337e-05
-0.000116548
0.000116666
-1.18496e-07
-0.00011488
-1.66797e-06
8.56266e-05
-0.000116577
3.09508e-05
-0.000119909
-2.84994e-07
0.000114658
-2.90316e-05
-0.000126508
8.45962e-05
-0.000118213
0.000114696
3.51754e-06
-0.000118677
4.63682e-07
-0.000114845
0.000114908
-6.32693e-08
-0.000115148
3.03071e-07
-0.000117955
-0.000114518
0.00011512
-6.42154e-07
-0.000117221
8.82283e-06
0.000108399
0.00011445
-0.000115264
-9.5666e-05
-1.10508e-07
-0.000117067
4.44362e-06
0.000112623
-0.000110073
-3.00105e-06
0.000113074
9.09074e-05
3.71988e-08
0.000110329
-0.000110818
-0.000112971
-2.44721e-06
0.000115418
-0.000114542
2.40857e-06
0.000112134
-6.73884e-05
-8.90527e-05
4.09325e-06
0.000119823
-5.0039e-05
0.000117355
4.64234e-06
0.000110137
1.71305e-06
-0.00011185
9.01604e-07
0.00011301
-0.000113911
-0.000112838
0.000118329
-4.94079e-05
0.000116461
-5.51266e-06
-0.000110949
-0.000115663
1.70017e-06
0.000113963
9.05725e-05
2.86968e-05
-0.000114003
5.66722e-07
0.000113436
0.000108862
1.88049e-06
-0.000110743
-2.81043e-05
0.000119389
-1.97037e-06
-0.000113034
-1.11704e-06
0.000114174
6.99387e-06
2.23349e-06
-0.000115274
-0.000111575
0.000113789
2.28765e-06
-0.00011385
-0.00012071
0.000122925
0.000115431
-3.77385e-06
-0.000111657
8.4725e-05
-0.000114323
2.95984e-05
-3.31404e-05
0.000123655
-0.000123462
-0.000116706
0.000111302
1.94488e-06
-0.000114066
2.17673e-06
0.000111889
-6.81226e-05
-7.60567e-05
-0.000108814
9.50257e-05
0.00011471
-0.000114001
-7.08403e-07
-0.000114075
4.34629e-06
-0.0001176
4.52834e-05
-0.00011308
4.25852e-09
-0.000110851
0.000109522
-1.33915e-06
0.00011038
-0.000108955
-0.000115869
4.28906e-06
0.00011158
0.000127915
-0.000139164
0.000121098
-0.000115251
0.00011149
-0.000116539
-0.000119731
0.000116289
-5.53234e-07
0.00011679
-4.8411e-06
-0.000111865
0.000113035
-0.000118174
0.000115096
0.000119323
-0.000119293
-0.000116093
0.00011656
-4.76283e-07
-0.000114906
-1.19502e-06
-0.000119363
0.000116436
2.45657e-06
-0.000117136
-2.70904e-06
-0.000121743
0.000116339
5.16385e-06
-0.000117023
-4.96252e-06
-0.000122191
0.000116349
5.8361e-06
-0.00011698
-5.23126e-06
0.000143044
-9.32848e-05
-5.8665e-06
-0.00011038
0.000116339
-0.000122407
0.000116407
5.98673e-06
-0.000123692
6.45458e-05
5.82584e-05
-0.000117038
-5.40259e-06
-0.000122747
0.000116495
6.22268e-06
0.000115998
0.000123597
-0.000108656
-1.49409e-05
9.07013e-05
1.32407e-05
-0.000103942
-0.000117098
-5.64409e-06
0.000116822
-0.000122907
0.00011655
6.32929e-06
0.000119359
5.15202e-06
-0.000117166
-5.75673e-06
-0.000135919
3.09688e-05
-0.000111069
-3.64543e-06
0.000114787
-0.000122978
0.000116584
6.38732e-06
-6.78779e-05
-5.24604e-05
0.000120338
-0.000117208
-5.79965e-06
0.000100934
-0.000103377
2.54803e-06
4.30194e-06
-0.000110859
0.000106557
-0.000123093
0.000116659
6.43514e-06
-0.000112301
-5.79602e-06
-0.000117275
-5.81727e-06
1.05616e-06
-0.000113357
-0.000106434
-9.26061e-06
5.3478e-05
-0.000121356
-0.000115137
-5.123e-06
0.00010183
-1.11284e-05
-0.000110987
0.000116114
-5.12626e-06
-0.00011328
2.29265e-06
-0.000123269
0.000116778
6.48693e-06
-0.00011738
-5.83787e-06
-4.7785e-06
0.000112404
-0.000107626
-4.3526e-06
0.000115491
-0.000111052
-0.000122675
0.000116229
6.45998e-06
-0.000117444
-5.23391e-06
0.000116378
-0.000119201
2.75276e-06
-2.62753e-06
0.000124447
-0.000123095
-0.000123271
0.00011697
6.36928e-06
8.53819e-05
-0.00011592
3.05386e-05
-0.00011749
-5.75865e-06
3.14273e-06
-0.000110743
0.0001076
9.6536e-05
1.34983e-05
-0.000123266
0.000117002
6.30454e-06
0.000117561
-7.79908e-06
-0.000108791
-0.000117598
-5.65093e-06
0.000113911
-2.85293e-05
-2.1793e-05
2.67905e-06
-0.000110717
0.000108038
0.000112546
-0.000115611
3.06545e-06
-1.28801e-08
0.000112559
-0.00012328
0.000117065
6.20135e-06
-0.000117688
-5.59786e-06
-0.00011474
0.000102341
1.68442e-05
3.81249e-06
-0.00011091
0.000107098
4.59818e-06
-0.000111786
0.000107188
-0.000122645
0.000116544
6.11228e-06
2.36178e-06
-0.000113375
0.000111635
-0.000117754
-4.85764e-06
-7.06661e-06
0.000117832
-0.00011632
-3.51625e-06
-0.000122538
0.000116646
5.90689e-06
-0.000117869
-4.63425e-06
-0.000114066
0.000114735
-6.69763e-07
-0.000113847
0.000115998
-2.15097e-06
-4.37922e-07
5.6528e-05
-0.000118758
-3.22001e-07
-0.000113525
-0.000109651
0.000111083
0.000118116
-0.000117391
-6.85231e-07
-6.28318e-05
-6.35426e-05
0.000114285
-0.000122858
0.000117283
5.6213e-06
7.08403e-07
0.000111541
-0.00011225
-0.000117876
-4.97552e-06
-3.73521e-07
-0.00011185
0.000112224
-4.43074e-06
0.000111103
-0.000106673
2.17944e-06
-0.000111981
-0.000110253
0.00011243
-0.000122751
0.000117303
5.43926e-06
-0.000117979
-4.79037e-06
-0.000116477
3.44394e-06
0.000113083
-0.000109931
-1.9835e-06
0.000111915
-0.000122145
0.00011685
5.33685e-06
-0.000110884
-0.00011802
-4.02051e-06
-0.000118149
0.000120068
-1.91913e-06
-1.35579e-06
-0.000120402
-0.000122556
0.00011748
4.99804e-06
-0.000118169
-4.37454e-06
-0.000114877
2.25401e-06
-3.90941e-06
-0.000122301
0.000117552
4.76387e-06
-0.000118131
-4.12418e-06
-4.86698e-05
-6.73576e-05
6.44003e-08
0.000112147
-0.000112211
-0.000113061
0.000113125
0.000111941
-0.000110859
-0.000121928
0.000117561
4.54433e-06
-0.000116914
4.16758e-06
0.000113136
-0.000118055
-3.83296e-06
1.37201e-06
0.000112558
-0.000113425
-0.000125864
0.000124969
-0.000116965
3.72139e-06
0.000113352
-8.39897e-06
-0.000122027
0.000117597
4.37885e-06
-0.00011831
-3.69874e-06
0.000113925
4.29995e-06
-0.000121943
0.000117787
4.11776e-06
-0.000118348
-3.52247e-06
4.27128e-07
-0.000119161
0.000111451
-0.000116825
0.000118633
-1.80836e-06
-7.86405e-05
-4.31361e-05
0.00012295
-7.33205e-06
8.32051e-05
-0.000113499
3.02939e-05
5.8089e-06
-0.00012303
0.000107041
-2.4046e-06
-0.00010472
-3.28699e-05
-0.000115033
6.29366e-06
0.000108441
-5.6164e-06
-0.000115418
-6.72983e-05
-6.35888e-05
0.000130887
-0.000115863
0.00011653
-6.66686e-07
-0.000117471
6.46578e-07
-9.54636e-07
8.66827e-05
2.97014e-05
0.000112301
-0.000111593
-0.000116769
0.000117449
-6.80067e-07
0.000111928
9.45267e-05
3.07833e-06
-9.7605e-05
-1.0304e-07
-2.92377e-05
0.000102384
-7.85683e-06
0.000117974
6.59458e-07
-7.03251e-07
-1.65778e-06
0.00011317
-4.73929e-06
-0.000109341
0.00011802
-1.58425e-06
-1.48352e-06
0.000120484
6.54228e-05
7.76747e-05
-0.000133566
7.82205e-05
5.53456e-05
-8.55107e-05
-5.27824e-05
-1.45673e-05
0.00011717
-4.13431e-07
-0.000114026
-0.000119836
-0.000127451
6.64551e-05
-0.000110047
0.000110949
0.000111031
-0.000113159
-3.36776e-07
-0.000111708
-1.80892e-06
0.000113561
0.000125185
-4.76418e-05
-0.000111923
-1.06661e-06
0.000113029
6.49861e-06
-0.000116048
0.000109835
-0.000112675
1.2236e-06
-0.000114413
4.12548e-05
0.000121266
-9.47843e-05
-3.84561e-06
0.000113486
-0.00010969
-3.38093e-06
-0.000111474
0.000114791
7.24632e-05
-0.0001237
5.12368e-05
0.000108592
-0.00011337
0.000115959
-0.000102615
-0.000151147
8.93489e-05
6.17985e-05
-0.000112366
-1.42855e-06
0.000113804
1.03623e-06
-0.000112736
-0.000129116
6.49779e-05
9.85581e-05
6.16954e-06
-0.000104728
0.000107703
-9.14484e-06
-5.70586e-06
2.14279e-06
-0.000120686
8.23035e-06
2.42671e-06
-0.000114313
0.000114276
-0.000116556
2.28674e-06
0.000111814
-0.000110972
3.63506e-05
-0.000114587
0.000113688
-1.46171e-06
-0.000116381
0.000118264
-1.99156e-06
0.000120452
-0.000124182
-0.000116938
-1.0948e-06
1.37631e-06
-0.000113719
-6.75451e-05
0.000104016
-3.62716e-05
2.29104e-06
-0.000115083
0.000113074
9.25432e-05
1.31763e-05
-0.000105719
0.00011218
-0.000114167
8.10928e-05
-0.000112971
3.18781e-05
0.000103646
-1.11026e-05
-1.38125e-06
-0.000110295
0.000112015
-0.000114247
0.000109154
-0.000112573
0.000110704
-2.96112e-05
-3.96264e-06
-0.000106392
0.000109759
-0.000114283
0.000110635
-6.69763e-05
0.000130733
-6.37562e-05
-0.000122076
0.000117675
4.40267e-06
-5.84189e-06
0.000109891
-0.00011562
-6.86378e-05
-6.88181e-05
0.000107166
-0.000111551
-4.11705e-06
0.000111193
0.000116011
-8.2896e-05
-6.51878e-05
0.000121468
-5.63647e-05
0.000112134
-0.00012062
-6.55427e-06
0.000118022
-7.0077e-06
-0.000101897
3.54034e-05
-1.30816e-06
0.000102324
4.76562e-07
0.000117852
-0.000121433
5.6801e-06
0.000114465
-0.000120145
-0.000121884
0.000117901
4.00434e-06
-5.35348e-06
-0.000113851
-1.05398e-06
-3.23465e-06
0.000108983
-0.000105819
-0.000116899
9.48487e-05
1.42453e-05
-0.000121838
0.000118062
3.80551e-06
-0.000135649
2.84288e-05
0.000108625
-0.000111919
-5.15567e-06
-2.17286e-05
0.000113869
1.60858e-06
1.96607e-06
-0.000114808
0.000112981
0.000117427
-5.02193e-05
-0.000114499
-2.3195e-06
-0.000109238
0.000111941
0.000107515
-2.40753e-06
0.000115127
6.20356e-06
-0.000114996
0.00010773
-0.000121364
0.000118228
3.22692e-06
-0.000109725
7.47043e-07
0.00010948
-4.47509e-06
0.000125413
-8.27543e-05
-0.000109725
-5.15202e-06
0.000110552
-0.000114116
0.000113227
2.93384e-06
0.000117453
-2.13809e-06
7.86713e-05
-0.000109287
3.06159e-05
5.48618e-06
0.000107887
-0.000113238
-0.000116211
0.00011194
0.000125783
-0.000121624
0.00010939
-3.07189e-05
4.15748e-06
-0.000113994
0.000111055
-5.53123e-06
0.000113842
-0.000108331
7.62985e-06
0.00010927
-0.000116701
-0.000110413
0.000118179
0.000140779
-0.000111451
-2.93279e-05
8.1261e-06
-0.000111425
0.000103298
-0.000113399
0.000116076
-6.57226e-07
0.000111217
-0.000103092
5.04254e-05
9.03536e-05
0.000114595
2.19883e-06
4.09304e-06
-0.000114722
0.000110878
4.98215e-06
-0.000114684
0.000109221
9.41532e-06
0.000104367
-0.000113782
1.0304e-06
0.000111837
-0.000116628
-0.000119797
0.000106364
-0.000115896
0.000116438
4.65299e-06
1.90825e-06
0.000110422
-0.000112428
0.000123417
-0.00012314
0.000111769
-0.000118368
1.46833e-06
4.88545e-06
0.000116461
-2.70481e-07
5.47661e-06
-0.000115791
0.000107626
-0.000109609
-2.69394e-06
0.000106529
-0.000110716
-0.000111915
0.000106685
8.49439e-05
2.97143e-05
-0.000114916
0.000114156
7.59923e-07
0.000120203
-0.000117393
-2.62422e-06
0.000117917
2.38076e-06
-2.93794e-05
0.000111797
1.80543e-06
0.000119863
-0.000117466
-2.44588e-06
-0.000119104
0.000117557
1.6592e-06
0.000117782
1.91902e-06
1.02139e-05
0.000107767
-0.000117981
-9.84551e-05
0.000108669
1.18754e-05
-0.000110331
-0.000108721
0.000104058
-0.000117127
-1.95977e-06
3.49829e-06
8.90527e-05
-0.000102796
1.3743e-05
-4.13535e-07
0.000116876
0.000108917
-0.000109248
0.000114521
9.41145e-05
-5.06186e-06
-0.000114581
-8.0745e-05
0.000102706
-2.19605e-05
0.000121704
-8.55235e-06
0.000111915
-0.000102499
7.75121e-05
-0.000108283
3.07704e-05
0.000108502
-3.09894e-05
9.44752e-05
-9.80687e-05
0.000118979
-6.42902e-06
2.67853e-06
-0.000109192
0.000113573
-5.10642e-06
-0.000109817
0.000105503
-0.000110683
4.64927e-06
-0.000113961
-0.000113827
-1.32021e-06
8.68154e-07
0.000114878
-0.000112738
0.000114588
4.9073e-06
0.000104753
-0.000109661
0.000109274
1.9191e-06
-0.000112172
-0.000106902
-7.17258e-06
-3.4646e-06
-0.000116507
-0.000117731
8.43447e-07
7.08403e-07
0.000110884
-0.000111593
-0.000113539
-3.93228e-06
0.000119694
-0.000119694
3.91038e-06
-6.91401e-05
-8.20073e-05
-0.000113797
-1.08321e-06
-0.000119985
-6.41427e-07
-5.67237e-05
-7.68424e-05
5.83371e-06
-0.000124007
-0.000108142
-0.000111281
-1.89735e-06
0.000107324
-0.000111082
3.49134e-06
-0.000109162
-2.07031e-06
0.0001112
0.000108915
2.7109e-06
-0.000111155
-0.000120838
0.00012172
-0.000117074
0.0001124
-9.16633e-07
1.3099e-05
-9.3844e-05
-0.000113747
7.19146e-06
-0.000119557
2.30008e-06
-0.000119419
2.17245e-06
-0.000119217
2.0204e-06
-0.000119708
2.38467e-06
-2.9697e-06
-0.000118484
1.37817e-06
-0.000118127
5.80144e-05
-2.90231e-06
-0.000118865
1.75291e-06
-3.02502e-06
0.00011652
-2.74297e-06
0.000113149
-0.000118379
5.27987e-06
-0.000119828
2.36649e-06
-2.46872e-06
-0.000139787
7.82978e-05
6.14894e-05
-0.000118461
1.42795e-06
-3.05904e-06
-2.13791e-06
-0.000112314
0.000115444
-3.12985e-06
-0.000119835
2.35705e-06
0.000114865
-0.000123496
8.50624e-06
-0.00011822
1.16225e-06
-1.9558e-06
-2.16811e-06
-0.000116838
-6.98657e-07
0.000117858
-0.000114955
-2.94976e-06
-0.000119912
2.32932e-06
-8.76846e-07
-4.57242e-06
-0.000114372
-2.95375e-06
-2.87837e-06
-0.000117299
-8.50083e-07
-0.000119923
2.24307e-06
2.02202e-06
-0.00012634
5.93642e-05
0.000105372
-0.000110305
7.48717e-05
-0.000107098
3.22259e-05
-2.85196e-06
2.42145e-06
0.000114697
-2.20249e-06
-0.000112778
-3.60641e-07
-0.000119821
2.12151e-06
0.000112592
-0.000110321
2.94953e-06
-0.000112675
3.22001e-06
-1.1592e-06
-2.73516e-06
-3.68498e-05
3.33333e-06
0.000108591
-0.000112136
-0.000119706
1.93854e-06
1.70017e-06
-0.000108912
-1.01257e-06
0.000109997
-1.73792e-06
-0.000119618
1.72248e-06
-1.54363e-06
0.000136361
-0.000119505
1.56864e-06
-2.14775e-06
-0.000119263
1.37032e-06
1.32665e-06
-0.000115328
1.0098e-05
-0.000108025
-1.91789e-06
5.4869e-06
-0.000110949
0.000105462
-0.000119269
1.1344e-06
0.000124241
-6.44003e-07
-0.000105333
0.00011082
-0.00011404
-8.75843e-07
-8.99164e-07
-1.54352e-06
-0.000111456
0.000112537
-0.000111862
-1.25328e-06
0.000113141
-0.000118968
9.05258e-07
-1.48193e-06
-0.000118719
6.62106e-07
9.41918e-05
1.40393e-05
-1.20006e-06
-0.000108612
-2.40766e-06
0.000110225
-0.000118765
5.34369e-07
0.000113435
0.000117318
-3.00045e-06
-2.17286e-05
-9.94455e-07
-1.20402e-06
-0.000118119
-0.000116163
0.000116029
9.97252e-07
-0.000118419
2.6492e-07
-0.000118727
0.000117817
1.05692e-06
-0.00011725
-1.35933e-06
1.55591e-05
-0.000106518
9.09589e-05
-7.74107e-07
-0.000118184
6.97239e-07
-5.70322e-07
-5.54873e-05
-7.56574e-05
0.000131145
-2.62878e-06
-0.000109964
0.000112571
0.000107763
-0.000110906
3.62786e-06
-0.000117196
2.57601e-07
0.000109249
-0.000111957
-5.02322e-06
0.000111786
-0.000106763
2.14392e-06
-0.000111816
-2.40106e-06
0.000110835
2.0629e-06
0.000109322
-0.000111591
-7.0544e-05
0.000136593
-0.000107583
-0.000113947
0.000120654
-2.43665e-06
4.17314e-06
0.000109583
2.06081e-07
0.000112056
-0.000112263
-2.57601e-07
0.000112675