/*--------------------------------*- C++ -*----------------------------------*\
  =========                 |
  \\      /  F ield         | OpenFOAM: The Open Source CFD Toolbox
   \\    /   O peration     | Website:  https://openfoam.org
    \\  /    A nd           | Version:  12
     \\/     M anipulation  |
\*---------------------------------------------------------------------------*/
FoamFile
{
    format      ascii;
    class       surfaceScalarField;
    location    "0.725";
    object      phi;
}
// * * * * * * * * * * * * * * * * * * * * * * * * * * * * * * * * * * * * * //

dimensions      [1 0 -1 0 0 0 0];

internalField   nonuniform List<scalar> 
69079
(
-0.000157575
9.10491e-05
6.65255e-05
0.000127268
-2.2321e-17
-0.000127268
-0.000134607
0.00013462
0.000128736
-1.46833e-06
-0.000133068
-1.59937e-06
-0.00013318
7.91994e-05
-0.000146755
6.75559e-05
2.06562e-06
8.85809e-05
-0.000100761
0.000130024
-0.000130024
6.1935e-18
0.000129367
6.56883e-07
-9.80687e-05
-5.95058e-05
-0.000121234
0.00013337
-8.63009e-06
-0.000127564
0.000124821
2.74345e-06
-0.00012692
-6.44003e-07
3.5111e-06
-0.000112319
0.000108808
0.000129393
-2.57601e-08
0.000128749
6.44003e-07
-0.000129238
0.000127538
1.70017e-06
-0.000127822
-1.41681e-06
0.000129148
-0.000128427
-7.21283e-07
0.000128144
1.00464e-06
0.00012824
-0.000130629
2.36735e-06
-0.000139066
1.33437e-05
0.000125722
0.000149254
-9.7927e-05
-5.1327e-05
0.000123223
-1.55462e-05
-0.000107677
-0.000128749
-1.27512e-06
0.000128723
2.57601e-08
2.96241e-07
-1.28801e-08
9.07881e-05
-0.000101483
0.000121199
-0.00012642
5.16958e-06
0.000122219
-0.000132446
1.02268e-05
0.000142647
-2.04278e-05
0.000127422
7.21283e-07
-3.99282e-07
-0.000128672
2.38281e-05
0.000104844
0.000127216
-0.000127216
-6.12574e-18
2.96241e-07
-7.13194e-06
0.000123988
-0.000116998
-1.13988e-05
-0.000127667
0.000102589
2.64815e-05
-0.000129071
-0.000133299
1.68187e-05
0.000126328
-0.000126328
-1.04219e-17
-6.11802e-06
-0.000108731
0.000134459
-2.3048e-05
0.000126121
1.41681e-06
-1.0948e-06
-7.45111e-05
0.000142299
-6.77877e-05
0.000123764
-0.000123764
1.04354e-17
0.000141925
-1.81609e-05
0.000120274
2.16514e-05
0.000141165
-2.08914e-05
0.000122022
-3.62652e-06
-0.00011867
-8.54945e-05
0.00012239
-1.871e-05
-0.000131986
0.000133267
-1.32092e-06
-0.000131999
5.65906e-05
7.49062e-05
0.000122837
-0.000122837
6.78982e-18
0.000140715
-1.78775e-05
0.000121067
-2.24627e-08
-0.000121236
-6.44532e-05
-4.67735e-05
0.000110935
7.62885e-05
5.11724e-05
-0.000127461
0.000135764
-7.07694e-05
-6.48965e-05
-1.4387e-05
-0.000114285
5.00648e-05
-0.000124576
-0.00010722
0.000110731
0.000124177
6.44003e-07
-2.15097e-06
0.000148417
-0.0001485
-1.53621e-05
-0.000116995
-0.000118118
9.6441e-06
-5.08504e-05
0.00013005
0.000118329
2.23855e-05
0.000139723
-2.13938e-05
0.000123129
-1.45527e-05
-0.000109029
0.000130307
-0.000127629
-2.67826e-06
9.49904e-05
5.42637e-05
0.000114195
-0.000117453
3.25865e-06
-2.75633e-06
0.000116951
-0.000123172
1.13344e-05
0.000111837
0.000122219
2.04278e-05
-1.54561e-06
0.000117028
-0.00013922
2.21923e-05
0.000103423
1.82581e-05
0.000130526
-1.34983e-05
-7.90835e-05
-4.88412e-05
0.000127925
-0.000119643
0.000121176
-1.53273e-06
0.000116062
-0.000131454
1.53917e-05
0.000117015
-9.53124e-07
-0.000108732
-5.32434e-05
-6.33698e-06
-0.000102332
0.000108669
-7.06728e-05
0.000138937
-6.82643e-05
0.000145943
-4.33391e-05
-0.000129535
9.89188e-06
0.000120274
2.08914e-05
6.93591e-05
5.25892e-05
-0.000121948
-2.56313e-06
-0.000118393
-1.11412e-05
3.12985e-07
-0.000105998
0.000105685
0.000124653
-3.59783e-06
6.78907e-05
5.99309e-05
-0.000127822
5.42637e-05
-0.000124936
-0.000119437
1.04328e-06
0.000128698
-0.000128698
0.000129936
-8.80898e-06
2.09378e-05
-0.00013681
0.000115833
4.30065e-05
-0.00012209
-0.000121679
-9.91376e-06
0.000113898
-0.000132806
1.89079e-05
0.000116461
-2.56313e-06
7.29272e-06
0.000108863
-0.000114044
-5.81545e-06
0.000116879
-9.75573e-05
0.000118329
2.13938e-05
-2.08914e-05
-0.000104951
0.000105263
7.50907e-06
-0.000120995
0.000113486
-0.000146251
4.03071e-05
-8.19886e-06
0.000125144
-0.000116109
4.66819e-05
-0.00011172
-0.000110443
-3.45295e-06
0.000113911
0.000119639
-0.000122395
2.93729e-06
-0.000123584
0.000106557
1.70274e-05
-4.05821e-06
-0.000129194
0.000113757
1.67698e-05
-5.28082e-06
0.000119037
-0.000132909
0.000132909
-0.000113813
3.35652e-06
-3.61028e-05
0.000112391
0.000146683
-8.83968e-05
-5.96073e-05
-0.000133501
5.32915e-05
8.02284e-05
0.000122695
-5.92482e-07
-0.000122103
0.000111966
-0.000130655
1.8689e-05
0.000115676
-3.70945e-06
0.000124124
-1.70017e-06
0.000113151
-0.000111451
0.000115714
6.98099e-06
7.79758e-05
-0.000123726
4.57499e-05
0.000112803
-0.000136142
2.33387e-05
0.00013506
-2.22567e-05
-1.64282e-06
0.000121705
-7.74477e-05
0.000146176
-6.87279e-05
-9.64845e-05
-2.09687e-05
0.000108862
-0.000129354
2.04922e-05
0.000113267
-4.40498e-06
0.000119236
-0.000127747
8.52603e-06
-0.000121729
2.52449e-05
-3.10855e-05
-0.000102444
0.00011149
-0.000134532
2.30424e-05
-1.99641e-05
-0.000123005
0.000116817
8.53561e-05
-9.16931e-05
-0.000103005
0.000112284
0.000136639
-0.000136751
0.000115405
3.09121e-07
-2.07369e-05
0.000120878
-0.000128299
7.55269e-06
-0.000123179
3.63441e-06
7.02468e-05
7.63128e-05
-0.000128981
2.04664e-05
0.000108514
0.000109532
-0.00013318
2.36478e-05
-0.000111096
0.0001326
-2.30682e-05
-0.000120114
-1.82045e-06
0.000103797
-4.76962e-05
-4.07654e-05
0.000118741
-1.86503e-05
0.000141874
0.00011149
2.35705e-05
-0.000111593
0.000109893
-2.30424e-05
0.000115698
-0.000115727
6.9694e-05
-0.000121472
5.17778e-05
0.000108231
-0.000132059
2.38281e-05
0.000131608
-2.33773e-05
-1.9314e-05
-0.000111307
0.0001165
9.75022e-06
-0.00012625
-2.18685e-05
-0.000114939
1.45605e-05
-0.000109907
9.3421e-05
-7.84368e-05
0.000126927
-4.72942e-05
-0.000115611
4.17314e-06
0.000111438
5.4723e-06
0.000117588
-0.00011948
0.000111725
0.000112772
0.000124284
-3.5108e-06
0.000106917
-0.000131067
2.41501e-05
-2.58889e-05
7.08403e-07
-0.000112623
0.000111915
0.000110485
6.53019e-06
-2.26946e-05
4.97703e-05
8.81111e-05
0.000110665
4.89442e-07
-0.000111155
1.14632e-06
0.000109519
8.73501e-06
0.00012156
-4.74372e-05
-6.04976e-05
0.000107935
-0.000141948
8.43116e-05
5.75346e-05
7.39959e-05
-0.000121433
3.73521e-07
0.000112494
-0.000112868
-0.000112533
0.000112907
0.000113393
-0.00010618
-0.000118999
0.000123752
-4.75274e-06
0.000101662
-0.000122038
2.03762e-05
0.000110034
-8.37203e-06
-1.01997e-05
-9.90038e-05
0.000109204
6.70149e-05
4.77592e-05
-0.000114774
0.000108231
2.43691e-05
-2.38281e-05
1.68857e-05
-0.000117955
0.00010107
-0.000122002
-5.94695e-06
0.000120244
3.6151e-06
0.00010496
-0.000130024
2.50646e-05
0.000129135
-2.41759e-05
7.52581e-05
-0.000120329
4.50712e-05
0.000113757
-0.000106248
0.000118075
-0.000121577
0.000112688
3.81247e-06
-3.99293e-07
0.000121575
3.30454e-05
-0.000111327
-0.00011717
-1.82897e-06
0.000123531
-4.22162e-06
-7.07244e-05
-4.37664e-05
0.000114491
0.000103646
-0.000128582
2.49358e-05
0.000129175
-1.67433e-05
-0.000132154
-2.70095e-05
9.82842e-05
-8.55055e-05
0.000106917
2.46911e-05
-2.41501e-05
-7.9573e-05
-5.19581e-05
0.000131531
0.000128131
-0.000126392
-1.73881e-06
-1.4928e-05
0.00012844
-0.000113512
9.96529e-05
-0.000119823
2.01702e-05
0.000109094
-9.44108e-06
0.000106424
-0.000106721
4.60803e-07
-4.67546e-06
-0.000118909
-0.000132033
2.02474e-05
0.000111786
-2.36864e-05
-0.000108347
-1.65895e-05
-0.00011632
-4.73986e-05
0.000116758
-0.000146111
7.8388e-05
6.77233e-05
-0.000122142
0.000105719
1.64221e-05
0.00010615
4.59007e-07
0.00011573
-0.000109768
-5.83065e-06
-0.000138641
0.000122051
-0.000119359
-7.72803e-08
-0.000117453
0.000119372
-1.91913e-06
-7.14972e-05
-7.46141e-05
6.97841e-05
-0.000124885
5.51009e-05
-6.69822e-07
-0.000126959
-4.22466e-06
-0.000124756
0.000120616
-6.02855e-07
-0.000122811
5.3581e-06
0.000101688
-0.00012777
2.60821e-05
-2.76663e-05
0.000112388
3.28433e-06
9.79399e-05
-0.000117865
1.99254e-05
-0.000125439
2.62753e-06
0.000108231
-1.02912e-05
0.000107523
8.93875e-06
-2.25014e-05
0.000126933
-0.000121927
-5.08325e-06
-6.30974e-06
0.000113221
-0.000105403
0.00012522
-0.00012522
-0.000156441
7.35451e-05
8.2896e-05
-6.14006e-05
0.00011691
-5.51593e-05
-0.000115628
-3.85801e-06
0.000119388
-0.000124993
-2.78083e-06
-7.2348e-05
-4.5398e-05
0.000117721
6.89211e-05
4.26587e-05
-0.00011158
8.4336e-05
-9.45357e-05
3.97994e-06
0.000119604
-0.000123584
0.000103646
2.54896e-05
9.97302e-05
-0.000126418
2.66875e-05
-2.49358e-05
-0.000132497
0.000117569
-0.000118857
0.000118857
8.10026e-05
4.77979e-05
0.000125207
-2.54767e-05
-2.09816e-05
-0.000117659
0.000102168
7.4086e-05
-0.000121679
4.75931e-05
-3.49554e-06
-9.36169e-05
0.000118981
-1.09194e-06
0.000117922
-0.000117015
9.57374e-05
-0.000116075
2.03376e-05
0.000107329
-1.1592e-05
0.000128028
-0.000129097
-0.000107703
0.000111683
-7.64272e-05
-6.56175e-05
-6.96582e-05
0.000117288
-4.75248e-05
-0.000125141
2.74069e-06
0.000121679
-0.000125854
4.19044e-06
-6.45935e-05
0.000131608
0.000123571
1.30234e-06
0.000123256
4.26591e-07
-0.00014861
7.36996e-05
7.49104e-05
3.6296e-05
0.000106003
0.00012281
3.47382e-07
7.32351e-05
-0.000107053
3.37766e-05
0.000124099
4.34058e-06
0.000109688
-3.64592e-05
3.31146e-05
9.84165e-05
-0.000124627
2.62109e-05
0.000118091
0.000124228
-2.58116e-05
0.000130758
-2.18842e-05
-0.000109766
-0.000109585
-1.39012e-06
0.000111111
-0.000140341
8.15951e-05
5.87459e-05
0.000105397
1.02783e-05
-2.23726e-05
-4.30194e-05
0.000118278
0.00013027
-0.000130221
-0.000107381
0.00010787
0.000112572
-0.000111425
-7.28613e-05
0.00012294
-5.04493e-05
-2.09945e-06
-0.000121072
9.71156e-05
-0.000123636
2.652e-05
-0.00011565
0.000118522
-2.87225e-06
0.000123236
-2.61207e-05
-0.000127024
0.000127388
0.00011933
3.3487e-06
2.85937e-06
-0.000114607
0.000111747
-8.78772e-05
0.000105116
-0.000101742
-8.48347e-06
0.000110663
-0.000120506
4.85578e-06
-0.000106041
-4.07138e-05
0.000100761
-0.000116307
0.000132525
-1.40874e-05
0.000122028
-4.30441e-07
-0.000118316
-2.18961e-06
0.00012182
-0.00012182
9.58018e-05
-0.000122644
2.6842e-05
0.000122257
-2.64556e-05
9.18734e-05
-0.000111722
1.98482e-05
0.000104702
-1.28285e-05
-7.05054e-05
-6.98356e-05
-0.000124473
4.70251e-05
-0.000116732
-1.58425e-06
6.59778e-05
6.9902e-05
0.00012138
5.32309e-06
0.000104135
9.13196e-06
-2.22825e-05
-0.000117105
0.00010742
9.6858e-06
0.000132646
-0.000128028
-0.000102899
0.000114233
0.000106437
-0.000114395
7.81119e-06
0.000112919
-4.66258e-06
-0.000108257
9.45009e-05
-0.000121665
2.7164e-05
0.000121266
-2.67647e-05
-4.21178e-06
-0.00011793
-0.000119776
0.000124659
-4.75432e-06
7.21283e-07
-0.000116333
0.000152716
-2.76192e-05
-5.52683e-05
0.000123159
2.3916e-07
-0.000134294
2.19747e-05
-0.000108818
-1.22882e-05
0.000114323
-5.2293e-06
-0.000109094
9.84165e-05
2.67905e-05
0.000119604
-4.99102e-05
-2.62109e-05
-0.000121034
0.000109893
1.11412e-05
5.78898e-06
-0.000116878
-0.000154818
9.04051e-05
6.44131e-05
-0.000114568
3.79961e-06
0.000110768
-7.01705e-05
-8.46477e-05
4.2633e-06
0.000108708
-0.000112971
-0.000115199
5.33234e-06
0.000109867
-7.99851e-06
-0.000107201
-0.000119836
0.000111837
9.31872e-05
-0.00012066
2.74731e-05
-0.000115508
2.96241e-06
0.000112546
0.000115199
-4.93306e-06
-0.000110266
-3.92842e-06
0.00011462
-0.000110691
0.000111271
0.000120274
-2.70867e-05
0.000116449
-5.04898e-06
-0.0001114
0.00012004
-7.91403e-07
-0.000128109
-1.29573e-05
-0.00011954
-5.13914e-06
0.000116191
-0.000111052
6.72081e-05
4.47195e-05
-0.000111928
-0.000118587
4.78623e-05
-6.06786e-05
-6.6777e-05
-0.000132785
3.09774e-05
9.71156e-05
2.71125e-05
3.81473e-06
-8.8533e-05
-2.652e-05
5.66722e-06
0.000107252
-0.000108437
8.05003e-06
0.000100387
9.18863e-05
-0.000119681
2.77951e-05
-5.94617e-06
0.000121649
0.000115315
-4.55954e-06
-0.000110756
-0.000119651
-6.08293e-06
0.000119269
-2.7383e-05
-7.25954e-05
0.000117947
-4.55244e-05
0.000128041
-1.14632e-05
-0.000116577
0.000106798
-1.94819e-05
-0.000121929
0.000119069
2.8464e-06
0.000121986
-0.00012144
-0.000124408
7.36739e-06
0.000117041
7.88613e-07
0.000112103
-0.000112905
-6.56754e-05
0.000118265
8.72881e-05
-0.000106995
1.97065e-05
-1.52242e-05
0.000102512
1.04164e-05
0.000119952
1.05313e-06
0.00011198
-0.000113033
-1.11541e-05
9.93052e-05
-8.81511e-05
0.000135601
-8.01783e-05
-5.54229e-05
2.53737e-06
-0.00011498
0.000112443
2.46009e-06
-0.000119192
0.000118329
-0.000118329
-0.000111451
0.000112868
-1.41681e-06
0.000112438
-0.000115652
3.28143e-06
-0.000102989
0.000103697
-5.35108e-06
0.000117627
-0.000112019
-2.64893e-06
-0.000112663
0.000115339
5.8621e-05
6.84853e-05
-0.000126995
-1.27512e-06
0.000120647
-0.000116667
-1.49409e-06
0.000118162
-0.000121784
-4.80058e-08
0.000112018
-0.000114589
0.000105372
3.35654e-05
9.05725e-05
-0.000118677
2.81043e-05
-5.06444e-05
-5.66593e-05
0.000107304
9.58018e-05
2.74345e-05
-0.000134558
8.39135e-05
0.000115016
-4.09302e-05
-3.1466e-05
-2.6842e-05
-0.000141745
8.08867e-05
6.08582e-05
-6.7577e-05
0.000127454
-5.97008e-05
6.48987e-05
6.23807e-05
-0.000127279
-7.11494e-05
0.000121214
-0.000117131
0.000111374
5.75738e-06
-0.000118097
9.66004e-07
-0.000115372
2.84441e-06
0.000112551
5.42843e-06
0.000142422
-0.000108978
-3.09121e-06
0.000112069
-0.000101649
9.04952e-05
7.69294e-05
-8.10443e-05
0.000109322
-0.000117668
-3.88312e-06
0.000113637
-0.000109917
4.64299e-05
-0.000116297
-7.48073e-05
-6.69376e-05
-1.12078e-06
0.000114002
-0.000112738
-0.000121472
-6.35571e-06
-0.000144179
8.36817e-05
-2.92377e-06
-0.000121485
0.000125097
-0.000125318
-0.000100387
0.000120854
-0.00011559
0.000114312
-5.47349e-06
0.000117419
-0.00011198
-2.45623e-05
-9.42948e-05
7.11193e-05
-0.000141767
-3.45057e-05
0.000115508
-0.00011144
-1.94106e-06
0.000113294
1.38225e-06
8.2223e-05
-7.44285e-05
-3.12224e-07
-0.000113133
0.000113303
9.45009e-05
2.77565e-05
0.000112939
-1.20303e-06
-0.000111547
0.000114697
-6.18242e-07
-0.000114079
1.23897e-06
0.000112021
0.000112912
-0.000111472
-2.7164e-05
-0.000112868
-2.64041e-06
8.8252e-07
0.000112045
-0.000124022
0.000128195
-0.000112791
0.000113628
-8.37203e-07
-5.37441e-07
0.000112548
0.000110163
4.4565e-06
-0.000113138
3.47761e-07
-6.1616e-05
-4.87298e-05
0.000110593
-0.000135295
2.9297e-05
8.28664e-05
-7.16838e-05
-3.05735e-06
8.78162e-05
-0.000118329
3.05128e-05
0.000125702
-0.000120979
-4.59098e-06
-2.02455e-06
0.000122686
0.000116384
-2.8568e-05
4.2629e-05
-0.000115145
8.84215e-05
-0.000104006
1.55849e-05
-1.67569e-05
0.000105178
-0.000117415
0.000108154
9.26076e-06
0.000107149
-9.46684e-06
-0.000116925
0.00012133
-6.13992e-05
-4.03999e-05
9.3702e-05
-0.000116899
0.000112675
-3.19975e-06
-0.000112299
-7.20381e-05
-7.65719e-05
-9.43928e-05
1.4541e-06
9.81527e-05
-0.000114171
0.000111055
1.3198e-07
0.000113976
-0.000113789
-8.49342e-06
-0.000103846
0.000111172
-6.20486e-07
0.000114138
-0.000113581
0.000136825
-6.68861e-05
-6.99387e-05
5.84754e-06
0.000108476
9.31872e-05
2.80785e-05
-0.000120328
8.55837e-06
0.000112016
-0.000119723
4.934e-06
-2.74731e-05
8.70305e-05
-0.00011592
2.889e-05
-3.27926e-05
8.72881e-05
-0.000102706
1.54174e-05
-0.000109414
0.000104902
-0.000109455
-5.11338e-06
-1.74267e-05
0.000104715
4.91506e-06
5.15073e-05
8.40938e-05
0.000122592
-0.000120055
0.000115792
-1.0948e-06
-0.000112486
5.13454e-05
0.000112406
2.21488e-07
-0.000112712
-8.89342e-05
0.000129936
0.000106466
-8.95807e-05
1.08192e-06
-0.000108463
-1.24749e-06
-0.000112229
0.000113541
-3.10409e-06
0.000121626
6.60489e-05
6.18114e-05
-0.00012786
7.75321e-05
6.56966e-05
-0.000143227
-0.000103437
-2.50899e-06
0.000104995
3.30654e-06
-0.000115867
0.00011271
7.48331e-06
0.000117737
-0.000117852
0.000116081
-0.000112696
0.000116436
-0.000118033
1.59713e-06
3.13978e-06
0.000112925
-5.4299e-06
0.000118084
-0.000112442
0.000117226
-0.000114139
-0.000123095
-6.92872e-05
0.000122652
-5.5217e-05
-6.9048e-05
0.00012525
-5.63677e-05
-0.000138293
3.7906e-05
0.000112166
-0.000113287
4.9551e-06
-0.000117137
0.000112138
-1.29445e-05
0.000124511
-0.000111567
0.000127319
-7.95601e-05
9.18863e-05
2.83876e-05
-0.000110704
3.43897e-06
0.000107265
8.03071e-05
-0.000135215
5.49077e-05
0.000119922
5.94374e-06
-0.000116667
-0.000137456
7.9895e-05
5.75609e-05
-2.77951e-05
0.000110446
-0.000107587
-0.000116655
-1.30089e-06
-0.000109659
0.000113155
-3.49565e-06
2.73315e-06
-0.000112393
-0.000109206
9.67494e-05
1.10122e-05
-0.000116548
0.000116666
-1.18496e-07
-0.00011488
-1.66797e-06
8.56266e-05
-0.000116577
3.09508e-05
-0.000120757
-1.8387e-07
0.000114658
-2.90316e-05
-0.000122755
7.57195e-05
-0.000118214
0.000114692
3.51665e-06
-0.000118677
4.61245e-07
-0.000115505
0.000114669
4.96798e-07
-0.000115079
-7.35385e-07
-0.000117955
-0.000113993
0.000114981
-8.83884e-07
-0.000117221
8.82283e-06
0.000108399
0.000114004
-0.000113627
-9.15853e-05
-6.29583e-07
-0.000117067
4.44362e-06
0.000112623
-0.000110073
-3.00105e-06
0.000113074
9.09074e-05
-1.59306e-06
0.000111115
-0.000109607
-0.000112971
-2.44721e-06
0.000115418
-0.000114542
2.40857e-06
0.000112134
-6.73884e-05
-8.90527e-05
4.03667e-06
0.000119823
-5.0039e-05
0.00011719
4.61147e-06
0.000110137
1.71305e-06
-0.00011185
9.01604e-07
0.00011301
-0.000113911
-0.000111038
0.000118329
-4.94079e-05
0.000116461
-5.51266e-06
-0.000110949
-0.000115663
1.70017e-06
0.000113963
9.05725e-05
2.86968e-05
-0.000114003
5.66722e-07
0.000113436
0.000108862
1.88049e-06
-0.000110743
-2.81043e-05
0.000118994
-1.99467e-06
-0.000112891
-9.39668e-07
0.000113865
6.99387e-06
2.04498e-06
-0.000114954
-0.000111381
0.000113442
2.07899e-06
-0.000113508
-0.000121754
0.000151541
0.000115431
-3.77385e-06
-0.000111657
8.4725e-05
-0.000114323
2.95984e-05
-3.31404e-05
0.000123541
-0.000123539
-0.000131405
9.05538e-05
1.44436e-06
-0.000114066
2.17673e-06
0.000111889
-6.81226e-05
-7.60567e-05
-0.000110885
9.59297e-05
0.00011471
-0.000114001
-7.08403e-07
-0.000113703
4.28142e-06
-0.000119574
4.64306e-05
-0.000113079
3.79507e-07
-0.00011078
0.000109324
-1.46225e-06
0.000110325
-0.000108737
-0.000115869
4.28906e-06
0.00011158
0.000127563
-0.00013916
0.000121098
-0.000115251
0.00011149
-0.000116539
-0.000152328
0.00013821
-2.2192e-07
0.000115697
-3.89153e-06
-0.000111806
0.000113035
-0.000118174
0.000115096
0.000118819
-0.000118911
-0.000119309
0.000115985
3.28951e-06
-0.000114043
-5.31041e-06
-0.000121736
0.000115994
5.71044e-06
-0.000116659
-5.11742e-06
-0.000122063
0.000116015
6.01615e-06
-0.000116656
-5.43335e-06
-0.00012232
0.000116104
6.20323e-06
-0.000116706
-5.59937e-06
0.000145139
-9.36538e-05
-3.93764e-06
-0.000109828
0.000113787
-0.000122457
0.000116129
6.29519e-06
-0.000127462
6.94308e-05
5.7796e-05
-0.000116761
-5.73412e-06
-0.000122583
0.000116184
6.37477e-06
0.000115998
0.000123597
-0.000108656
-1.49409e-05
9.07013e-05
1.32407e-05
-0.000103942
-0.000116807
-5.79428e-06
0.000116822
-0.000122711
0.000116336
6.43388e-06
0.000119359
5.15202e-06
-0.000116866
-5.78786e-06
-0.000135919
3.09688e-05
-0.000110701
-1.59822e-06
0.00011228
-0.000122788
0.000116362
6.40177e-06
-6.78779e-05
-5.24604e-05
0.000120338
-0.00011701
-5.80906e-06
0.000100844
-0.000103387
2.47742e-06
4.30194e-06
-0.000110859
0.000106557
-0.000122776
0.00011642
6.34511e-06
-0.000112301
-5.79602e-06
-0.000117034
-5.75169e-06
1.05616e-06
-0.000113357
-0.000106643
-9.17816e-06
5.3478e-05
-0.000121356
-0.000115542
-5.2326e-06
0.00010183
-1.11284e-05
-0.000110987
0.000116114
-5.12626e-06
-0.00011328
2.29265e-06
-0.000122794
0.000116509
6.34209e-06
-0.000117077
-5.69672e-06
-4.7785e-06
0.000112404
-0.000107626
-2.37341e-06
0.00011328
-0.000110683
-0.000122305
0.000116011
6.29429e-06
-0.000117223
-5.07491e-06
0.000116573
-0.000118932
2.76086e-06
-2.62753e-06
0.000124447
-0.000123095
-0.000122773
0.000116695
6.09445e-06
8.53819e-05
-0.00011592
3.05386e-05
-0.000117247
-5.52919e-06
3.14273e-06
-0.000110743
0.0001076
9.6536e-05
1.34983e-05
-0.000122744
0.000116785
6.02768e-06
0.000117063
-7.83802e-06
-0.000108152
-0.000117329
-5.3692e-06
0.000113911
-2.85293e-05
-2.1793e-05
2.67905e-06
-0.000110717
0.000108038
0.000112546
-0.000115611
3.06545e-06
-1.28801e-08
0.000112559
-0.000122722
0.000116842
5.85783e-06
-0.000117456
-5.271e-06
-9.23584e-05
9.8331e-05
1.47383e-05
3.81249e-06
-0.00011091
0.000107098
4.59818e-06
-0.000111786
0.000107188
-0.000121995
0.000116291
5.71622e-06
2.28007e-06
-0.000113012
0.000111128
-0.000117488
-4.49348e-06
-7.11321e-06
0.000117665
-0.00011632
-3.51625e-06
-0.000121972
0.000116483
5.51746e-06
-0.00011764
-4.24832e-06
-0.000114066
0.000114735
-6.69763e-07
-0.000113847
0.000115998
-2.15097e-06
-4.37922e-07
5.64164e-05
-0.00012133
-3.22001e-07
-0.000113525
-0.000110176
0.00011513
0.000117494
-0.000117284
-4.06687e-08
-6.28265e-05
-6.35727e-05
0.000114285
-0.000122248
0.00011707
5.1525e-06
7.08403e-07
0.000111541
-0.00011225
-0.000117701
-4.53583e-06
-3.73521e-07
-0.00011185
0.000112224
-4.43074e-06
0.000111103
-0.000106673
6.04964e-06
-0.000116282
-0.000110783
0.000116819
-0.000122005
0.000117177
4.97701e-06
-0.000117642
-4.30045e-06
-0.000115351
2.34751e-06
0.000112997
-0.000110539
-6.3222e-06
0.000117168
-0.000121451
0.000116698
4.83028e-06
-0.000115773
-0.000117843
-3.56101e-06
-0.000118149
0.000120068
-1.91913e-06
-1.25158e-06
-0.000120336
-0.000121594
0.000117204
4.37289e-06
-0.000117869
-3.8057e-06
-0.000114877
2.25401e-06
-3.93997e-06
-0.000121394
0.000117339
4.19352e-06
-0.000117822
-3.51278e-06
-4.85705e-05
-6.71658e-05
6.44003e-08
0.000112147
-0.000112211
-0.000113061
0.000113125
0.000111941
-0.000110859
-0.000121394
0.000117352
3.98423e-06
-0.00011497
2.42315e-06
0.000112693
-0.000118051
-3.35642e-06
1.23498e-06
0.000112717
-0.000113799
-0.000172022
0.000175425
-0.000115971
2.78612e-06
0.000113064
-8.43077e-06
-0.000121228
0.000117467
3.70186e-06
-0.000118064
-3.10154e-06
0.000113932
3.75487e-06
-0.000120693
0.000117365
3.41851e-06
-0.000117886
-2.76299e-06
5.04754e-07
-0.000119856
0.000109068
-0.000116825
0.000118633
-1.80847e-06
-6.50122e-05
-3.77721e-05
0.000112702
-7.37256e-06
8.32051e-05
-0.000113499
3.02939e-05
5.8089e-06
-0.00012303
0.000106379
-2.33874e-06
-0.000104088
-3.28699e-05
-0.000115076
6.37041e-06
0.000108842
-8.18312e-06
-0.000160002
-6.72983e-05
-6.35888e-05
0.000130887
-0.000117903
0.000116096
1.3701e-06
-0.000117471
6.46686e-07
-3.69197e-06
8.66827e-05
2.97014e-05
0.000112301
-0.000111593
-0.000116769
0.000117449
-6.80069e-07
0.000111928
9.45267e-05
3.07833e-06
-9.7605e-05
-1.03034e-07
-2.92377e-05
0.000102384
-7.85683e-06
0.000117973
6.59704e-07
-7.03488e-07
-1.70149e-06
0.000113248
-4.76081e-06
-0.000109216
0.00011802
-1.58425e-06
-1.48225e-06
0.000120234
6.66241e-05
7.88518e-05
-0.000133566
7.82205e-05
5.53456e-05
-8.55107e-05
-5.27824e-05
-1.45673e-05
0.00011717
-3.51623e-08
-0.000114026
-0.000119836
-0.000130466
6.97599e-05
-0.000110047
0.000110949
0.000110887
-0.000111933
-7.47674e-07
-0.000111594
-1.59872e-06
0.000113297
0.000127295
-4.98101e-05
-0.000111833
-8.46543e-07
0.000112732
6.5581e-06
-0.000115641
0.000109792
-0.000112675
1.2236e-06
-0.000118237
4.54759e-05
0.000121266
-9.47843e-05
-3.65314e-06
0.000113257
-0.000109527
-3.01857e-06
-0.000111243
0.000114449
7.24632e-05
-0.0001237
5.12368e-05
0.000108592
-0.00011337
0.000115959
-0.000102615
-0.000151147
8.93489e-05
6.17985e-05
-0.000112276
-1.20592e-06
0.000113483
8.13457e-07
-0.000112352
-0.00013174
6.49935e-05
9.85581e-05
6.16954e-06
-0.000104728
0.000107703
-9.14484e-06
-5.70586e-06
2.19992e-06
-0.000120686
8.23035e-06
2.21421e-06
-0.000113965
0.000114334
-0.000116091
1.76921e-06
0.000111842
-0.000110861
3.15075e-05
-9.71412e-05
0.000113523
-1.60449e-06
-0.000116178
0.000118381
-2.22562e-06
0.000120909
-0.000123336
-0.000116938
-1.0948e-06
1.13959e-06
-0.00011337
-6.65438e-05
0.000102008
-3.55867e-05
1.25024e-06
-0.000113811
0.000112766
9.25432e-05
1.31763e-05
-0.000105719
0.000112132
-0.000112833
8.10928e-05
-0.000112971
3.18781e-05
0.000103646
-1.11026e-05
-1.08248e-06
-0.000110363
0.000111181
-0.000111879
0.000109191
-0.00011205
0.000110704
-2.96112e-05
-3.75293e-06
-0.000104538
0.000107226
-0.000114427
0.00011043
-6.69763e-05
0.000130733
-6.37562e-05
-0.00012165
0.00011744
4.18616e-06
-5.64297e-06
0.000109422
-0.000113347
-6.86378e-05
-6.88181e-05
0.000105002
-0.000109874
-3.92567e-06
0.000108811
0.000116011
-8.2896e-05
-6.77668e-05
0.000123626
-5.61867e-05
0.000112134
-0.000118397
-1.84066e-06
9.57077e-05
-5.73286e-06
-0.000101355
3.4872e-05
-1.29365e-06
0.000101982
4.76562e-07
0.000117852
-0.000121433
5.6801e-06
0.000114465
-0.000120145
-0.000121268
0.000117673
3.62128e-06
-4.96506e-06
-0.000116749
2.49189e-06
-3.33216e-06
0.000108865
-0.000105578
-0.000116899
9.48487e-05
1.42453e-05
-0.000121217
0.000117804
3.38671e-06
-0.000135649
2.84288e-05
0.000108415
-0.000111835
-4.74702e-06
-2.17286e-05
0.000113667
4.84125e-07
7.9665e-07
-0.000113285
0.000112654
0.000117427
-5.02193e-05
-0.000114266
-1.1906e-06
-0.000108797
0.000109604
0.000107369
-2.4188e-06
0.000113796
6.19617e-06
-0.000115698
0.00010803
-0.000120777
0.000118109
2.68209e-06
-0.000109725
7.47043e-07
0.00010948
-4.00622e-06
0.000125413
-8.27543e-05
-0.000109725
-5.15202e-06
0.000110007
-0.00011167
0.000112823
1.31477e-06
0.000117453
-2.13809e-06
7.86713e-05
-0.000109287
3.06159e-05
5.50542e-06
0.000107614
-0.000113146
-0.000113664
0.00011144
0.00012788
-0.000120252
0.00010939
-3.07189e-05
4.30892e-06
-0.000113855
0.000110557
-5.50311e-06
0.000114046
-0.000108507
7.76522e-06
0.000108642
-0.000116117
-0.00010964
0.000117605
0.000140779
-0.000111451
-2.93279e-05
7.86915e-06
-0.000111379
0.000103419
-8.69559e-05
9.37519e-05
-8.00038e-07
0.000110915
-0.00010319
5.04254e-05
9.03536e-05
0.000114418
1.11845e-06
4.34265e-06
-0.000114398
0.000110681
5.00869e-06
-0.000115185
0.000109617
9.41532e-06
0.000104367
-0.000113782
1.0304e-06
0.000111837
-0.000114269
-0.000119797
0.000105346
-0.00011045
0.000115616
1.85031e-06
1.97476e-06
0.000110212
-0.000112303
0.000158995
-0.000150498
0.000111392
-0.000118368
1.46833e-06
5.08756e-06
0.000116461
-2.70481e-07
3.4598e-06
-0.000113377
0.000108118
-0.000114301
-2.31372e-06
0.00010386
-0.000108071
-0.000111915
0.000106685
8.49439e-05
2.97143e-05
-0.000114916
0.000114156
7.59923e-07
0.000118758
-0.000116998
-1.80702e-06
0.0001174
1.41587e-06
-2.93794e-05
0.00011131
2.10337e-06
0.000118977
-0.000117194
-1.60263e-06
-0.000118537
0.000117705
1.08378e-06
0.000117707
1.31906e-06
1.02139e-05
0.000107767
-0.000117981
-9.84551e-05
0.000108669
1.18754e-05
-0.000110331
-0.000108721
0.000104058
-0.000117066
-1.35123e-06
-1.13701e-06
8.90527e-05
-0.000102796
1.3743e-05
-3.13286e-07
0.000117075
0.000108687
-0.000109137
0.000114155
9.41145e-05
-5.06186e-06
-0.000114704
-8.0745e-05
0.000102706
-2.19605e-05
0.000121704
-8.55235e-06
0.000111915
-0.000102499
7.75121e-05
-0.000108283
3.07704e-05
0.000108502
-3.09894e-05
8.70539e-05
-9.65192e-05
0.00011878
-6.38881e-06
-8.86011e-07
-0.00010955
0.000114162
-6.39394e-06
-0.000113108
0.000112344
-0.000113049
4.75771e-06
-0.000114084
-0.000113899
-1.27582e-06
7.30197e-07
0.000113689
-0.000113069
0.000114485
4.9073e-06
0.000104753
-0.000109661
0.000109274
5.74701e-06
-0.00011654
-0.000107899
-7.21092e-06
-4.29564e-06
-0.000141751
-0.000117662
1.46207e-06
7.08403e-07
0.000110884
-0.000111593
-0.000113539
-3.93231e-06
0.000119694
-0.000119694
3.91043e-06
-6.91401e-05
-8.20073e-05
-0.000113797
-1.08321e-06
-0.000119731
-6.41427e-07
-5.67237e-05
-7.68424e-05
5.73667e-06
-0.000122598
-0.000107558
-8.99745e-05
-1.37525e-06
0.000103991
-0.000109039
3.50666e-06
-0.000110821
-2.10957e-06
0.000114004
0.000111056
2.58713e-06
-0.000109875
-0.000120143
0.00012024
-0.000132547
8.68985e-05
-5.25541e-07
1.3099e-05
-9.3844e-05
-0.000113302
7.17845e-06
-0.000119306
2.265e-06
-0.000119273
2.24514e-06
-0.00011898
2.12879e-06
-0.000119329
2.26069e-06
-2.95568e-06
-0.000118484
1.37817e-06
-0.000119732
5.82678e-05
-2.92125e-06
-0.000118824
1.99669e-06
-2.91568e-06
0.000115139
-2.81059e-06
0.000112964
-0.000117978
5.03452e-06
-0.000119469
2.24847e-06
-2.70388e-06
-0.000139787
7.82978e-05
6.14894e-05
-0.000118626
1.82991e-06
-2.89929e-06
-2.55651e-06
-0.000112314
0.000115444
-3.12985e-06
-0.000119381
2.1117e-06
0.000114683
-0.000123156
8.48181e-06
-0.000118338
1.64058e-06
-2.33173e-06
-1.96744e-06
-0.000117972
1.27909e-06
0.00011779
-0.000114611
-3.14736e-06
-0.000119325
2.03457e-06
-2.02219e-06
-4.57242e-06
-0.00011768
9.90294e-07
-2.61236e-06
-0.000117299
-8.50083e-07
-0.00011939
1.94846e-06
-1.71756e-06
-0.00012634
5.93642e-05
0.000105372
-0.000110305
7.48717e-05
-0.000107098
3.22259e-05
-2.55208e-06
2.42145e-06
0.000114697
-2.20249e-06
-0.000112778
-3.60641e-07
-0.000119222
1.74643e-06
0.00011218
-0.000110108
2.94953e-06
-0.000112675
3.22001e-06
-1.1592e-06
-2.38483e-06
-3.68498e-05
3.02332e-06
0.000112485
-0.000114951
-0.000119077
1.54498e-06
1.70017e-06
-0.000109143
-1.0094e-06
0.000110276
-1.3522e-06
-0.000118944
1.28013e-06
-1.1093e-06
0.000133219
-0.000118681
1.06108e-06
-1.6519e-06
-0.000118733
9.22611e-07
1.32665e-06
-0.000115328
1.0098e-05
-0.000108025
-1.46981e-06
5.4869e-06
-0.000110949
0.000105462
-0.000118527
5.54985e-07
0.000124241
-6.44003e-07
-0.000105333
0.00011082
-0.00011404
-8.75843e-07
-4.28722e-07
-1.65711e-06
-0.000111578
0.000113264
-0.000112667
-1.01105e-06
0.000113354
-0.000118064
2.83271e-07
-8.52919e-07
-0.000118148
1.61224e-07
9.41918e-05
1.40393e-05
-6.62652e-07
-0.000111435
-2.14339e-06
0.000109056
-0.000117799
-1.44631e-07
0.000113435
0.000116785
-2.51007e-06
-2.17286e-05
-4.07157e-07
-1.21883e-06
-0.000117659
-0.000115599
0.000115565
-1.4903e-07
-0.000117472
-4.51392e-07
-0.000117986
0.000117708
2.89579e-07
-0.000117131
-8.14274e-07
1.55591e-05
-0.000106518
9.09589e-05
-1.4907e-07
-0.000117265
1.1099e-07
1.9365e-07
-5.54873e-05
-7.56574e-05
0.000131145
-2.20127e-06
-0.000111266
0.000113577
0.000108504
-0.000111981
3.34816e-06
-0.000117196
2.57601e-07
0.000110707
-0.00011299
-5.02322e-06
0.000111786
-0.000106763
1.7482e-06
-0.000111109
-2.08703e-06
0.000111248
2.01681e-06
0.000106342
-0.000112017
-7.0544e-05
0.000136593
-0.000107384
-9.36838e-05
0.000135063
-1.88017e-06
4.17314e-06
0.000109583
2.06081e-07
0.000112056
-0.000112263
-2.57601e-07
0.000112675
-0.000112417