/*--------------------------------*- C++ -*----------------------------------*\
  =========                 |
  \\      /  F ield         | OpenFOAM: The Open Source CFD Toolbox
   \\    /   O peration     | Website:  https://openfoam.org
    \\  /    A nd           | Version:  12
     \\/     M anipulation  |
\*---------------------------------------------------------------------------*/
FoamFile
{
    format      ascii;
    class       volScalarField;
    location    "0.725";
    object      T;
}
// * * * * * * * * * * * * * * * * * * * * * * * * * * * * * * * * * * * * * //

dimensions      [0 0 0 1 0 0 0];

internalField   nonuniform List<scalar> 
46253
(
1
1
1.04113
1
1.03933
1.03736
1
0.973313
1
1
1
0.969716
1
1
1
1
1
1
1
1
1
1.03401
1
1
1
1
1
1
1
0.974655
1.00302
1
1
1
1
1
1
1
1.01194
1
1
0.962366
1
1
0.953226
1
1
1
1
1
1
1
1.00566
0.970627
1.04526
0.973123
1
1
1.01982
0.979902
1
0.996954
1
1
1
1
1
1.03253
0.974484
0.953207
1
1
1
1.00023
0.999988
1
1
1
1
1
1
1
1.01413
1
1
1
1
1
1.04317
1
1
0.999988
1
1
1
1
1
1
1.01929
1
1
1
0.999997
1.00236
1.04423
1
0.958713
1
1
0.965209
1.00032
1
1
1
1
1.04038
0.968551
0.981079
1.04931
0.974208
1
1.03528
1
1
1
1.05132
1
0.970364
1.05159
1
1
1
1.03511
1
1
1
1
1
0.974105
1
1
1
1
1.00072
1
1.04879
1
1
1.01291
1
0.965367
1.00121
1
1
0.996778
0.953697
0.968944
1
1
1.04373
1
0.959001
0.97213
1
1
1
1
1
1.07867
1
1
1
1.03369
1
1.04254
0.976081
1.00138
1
0.999797
0.969822
1.04267
0.996633
1
1
1
1
1
0.957669
1
1
1.00009
1
0.99578
1
1
1
1.00589
1
1
1
1
1
1
1
1
0.961106
0.995657
1
1
1
1
1.04997
1
0.999999
1.00048
1
1.00021
1
1
1.03371
1.02663
1
0.978401
1
1
1
1
1
1
1
1.01157
1
1
1
1
1
1
1
1.01143
1.01443
1
1
1
1
1
0.999991
1
0.994725
1
1
1
1.01397
1
1
1
1
1
0.976602
0.987891
1
1
0.980642
0.972683
1.00113
0.99881
1
1
1
1
1
1
1
1
1
1
1
1.04735
1
0.970893
0.978998
1
1
0.999992
0.999999
1
0.995738
0.992473
0.974391
0.999484
1
1.01822
1.0182
1
1
1.01715
1.00701
1
1.00663
1
1
1.04756
1
0.972827
1.04637
1
1
1
1
1.00118
1
1
1.00218
1
1
1
1
0.974242
1.01659
1
0.97028
0.969284
1
1
1
1.01067
0.998894
1
1
1
1
1
1
1
1
1
0.997145
0.975842
1
1
1
1.00601
1.00007
1
1.04947
1
1
1
1
0.975285
1
1.02354
1
0.967928
1
0.960989
1
1
1
1
1
0.96456
1
1
1
1
1
1
1
1
1
1
1
1
1
1
1.01531
0.974181
1
1
1
1
0.997316
0.969366
1
0.956933
1
1
1
1
1.05716
1
0.99965
1
0.994871
1
0.958186
0.994254
0.993585
1
1.00598
1
1
1
1.01501
1
1.02478
1
1
1
1
1
1
1.04198
1
1.00845
1.02204
0.996884
1
1
0.976897
1.02236
1
1
1
1
1
1
1
1
1
1.00284
1
1
1
1
0.999622
1.00544
1
1
0.972454
0.969589
1.02321
0.992846
1
1.00105
0.996813
1
1
0.974449
1
0.979264
1.00697
1
0.996866
1
1.02434
0.975739
1.02379
1
0.997909
1
0.998322
0.998981
1
1
0.999131
1
1
1.02286
1
1
1.0003
1
0.974741
0.97134
1
0.977175
0.99391
1
0.99904
1
1
1
1
1
1
1.05298
1
0.979788
1
0.958257
0.980189
0.999878
0.988654
1.00047
1
1
1
1.00703
0.971534
1
1
1
1
0.992956
1
1
1.00174
1
1
1
0.979666
1.02099
0.956414
0.99707
1
1
1.00381
1
1
0.997083
1.03907
1.00683
1
1
1.00718
1
1.00713
1.01163
1.00736
1
0.999734
0.998984
1
0.99755
1.00824
1
1
1
1
1
0.977087
1
1
1
1
1
1
1
0.951042
1
1
1
0.977338
1
0.979697
1.00002
1
1.00391
1.00315
1
1.02372
1
0.999143
0.952192
1
1
1
1.02028
1
1
1
0.999992
1
0.998377
1
1
0.972615
1
1
1
1
1
1
1
0.997485
1.00909
1
1.00953
1.00968
1.01015
1.0234
1
1
1
0.999679
0.994053
1
1
1.00087
1
1.04685
1.00184
1.0213
1.04727
1.02513
1
1.00097
1.00208
1
1
1.05309
0.999768
1
1
0.991767
1.01607
1.01614
1.01599
1.01606
1.01666
1.01674
1.01689
1.01693
0.960513
1.00175
1.01677
0.996939
1.01688
1.01652
1
1
1
1.01665
1
1.0163
1
1.01629
1
1.00294
1.01584
1
1.01599
1.03293
1
1.0153
1
1.0154
1
0.960944
1
0.977626
1
1
1
1.01477
1.01481
1
1.00534
1.01426
1.01435
0.99196
1
1
1.01312
1
1.01322
1
1
1.01254
0.974127
1.01254
1
1
1
1
1
1.01182
1.01195
0.96681
1
1
1.01101
0.980747
1.01107
0.970528
1
1.01011
1.01008
1
1
1
0.996966
1
1.00843
1.00199
1.00342
1
1.00878
1
1.00887
1
1
1.00884
1.009
1.00793
1.00784
1.00003
1.01063
1.00732
1.01103
1.00731
1
0.994153
1.00587
1.00605
1
0.975069
1.00514
1.00505
1.07018
1
1
1
1.00447
1.00122
1.00464
1.01958
1.07429
0.997409
0.969355
1.00381
1.0038
1.00227
1.00257
1.00254
0.974818
0.974713
0.999999
0.966355
1.04932
1
1
0.971574
1
0.976356
1.06193
1
1.01024
0.999999
1.00949
1
1
1
1
1
1
1
1
0.999999
0.999999
0.977104
0.977495
1
0.993484
0.961175
1
1
1
1
1.0235
1
0.99726
1
1.00048
1.02125
1.00926
0.997199
1.00991
0.976676
1
0.994808
1
1.01028
1.02317
1
1
1
1
1.01043
1.0095
0.997247
1
1
1
0.978224
1
1
1.01014
1.00204
1.02459
0.967811
1.02487
1.02425
0.994285
0.993772
1
1.01073
0.972897
0.996979
1
1.00044
1
1
1.02394
0.999261
1.00339
1.02291
1
1.02774
1.02361
1
1.01391
1.01404
1.00164
1
1.02593
1.02284
1
0.99864
1
1.00686
0.9563
0.97282
1.0314
1
1
1
1.0106
1.01068
1.0148
1.02547
1
1
1.00958
1
1.02574
1.00973
1
1.00027
0.998371
1
0.999818
1.00622
0.97089
1.00001
0.972787
1.00706
1
1
1.00703
1
1
1.00269
1.00123
1
1
0.977127
1.00487
0.974407
0.975888
1
0.975686
0.974321
0.973667
0.973508
1
1.00141
0.940937
1.00238
1
0.999509
0.98102
0.979758
1
1
1.00671
1
1.00779
1.0069
1.02447
1.02468
1.05789
1.02417
1
1.02393
1
1.00207
1.00998
0.946337
1.02168
1
1
1
0.999776
0.999638
1
1.02283
0.999417
0.998684
0.999577
1
1
1
1
0.998376
1.00725
1
0.991885
1.0231
0.975046
1
0.974607
1
1
1
1
1
0.985642
1.04046
1.01469
0.979825
1.011
1.00747
0.979782
1.00059
1.00033
0.997358
1.01985
1
1
1.00941
0.966036
1.05243
0.997896
1
1
1
1
1
1
1.05789
1
1
0.974482
0.975988
0.949895
1.01078
1.02908
1.02234
0.976846
0.998055
1
1.03169
1.01557
1.01616
1.01637
1.01501
1.01569
1
0.999855
1.01626
1.01668
1.01511
0.998933
1.01646
1.01285
1.01459
1.01678
1
1.01686
1.01463
1.01697
1
1.01349
1.0189
1.01684
1.01688
1.01364
1.01633
1.01847
1.01281
1.01639
1
1.01602
1.01287
1
1.01227
1.01611
1
1
1
1.01231
1
1
1
1.01137
1.01026
1
1
1
1.01147
1
1.02365
1.0103
1
0.985959
1.01027
1.00919
1.0092
0.974641
1.00819
1.00833
1.00772
1
1
1.0077
1
1.00653
1
1
1
1.00668
0.978423
1.01687
1.0054
1.00546
1.00505
1
1.0049
1.02178
1.00407
1
1.00151
1
1.004
0.991824
0.989379
1.00023
1.00295
1.00089
1.00087
1
1.00326
1.00232
1.00224
1
1.01386
1.03082
1
1.01349
1
1.01268
1.01183
1.01154
1
1.05058
0.977713
1
1
1
0.999516
1.0003
1
1.01442
1.01159
1.01247
0.967095
1.05345
1.01122
1.01176
1.01129
1.00892
1.00036
0.974728
1.00659
0.998874
1
0.988877
0.979666
0.975989
0.991339
1
1.01523
1.00913
0.972306
1
1
0.986546
0.987831
1
1
1.01836
1
0.981854
0.990842
0.96117
1.01099
0.991708
0.993314
1.00064
1
0.988199
1
1.00126
1
0.958684
0.975838
1.00822
0.986093
1.01219
1.00198
1
1.01207
1.01713
0.982781
0.989441
1
1
1
1.0048
1.02527
1
1
1.00832
0.990354
0.972478
1
1
1
1.00436
0.982847
1
1
1.03709
0.97483
1.01846
0.974713
1.01191
1.01218
1.04645
1.0126
1.00872
1.02063
1.00334
1
0.991554
1
1
0.979371
1
1
0.988379
1
1.00029
0.999681
1.01144
1.01168
1
1
1.0005
0.999973
1.0001
0.973841
0.992619
1.02038
0.983347
0.976886
0.999511
0.964886
0.999263
1.00922
1
1
1
0.980215
0.998852
1
1.00085
0.999042
1.0459
1.0625
0.979606
1.00139
1.0178
1
1.01471
1
1
0.984139
1.0158
1
1
1.02125
0.99854
1
0.998472
0.954766
1.00025
1.00002
1
1.02127
1.00034
1
1.02111
1.00219
1.02082
1.02153
1
1.00461
1.02111
1.00272
1.00473
1.01449
1
1
1.01961
1.01696
0.984562
1
1.01373
1.01992
1.01822
1.02635
1.00461
1.03109
1.02651
1.02587
0.978991
1.01857
1.02604
1.01561
1.00508
1
1
1
1.01668
1
1.05613
1.01786
1
0.968899
1.0177
1.01655
1.01681
0.926296
1
1
1.00383
1
1.00439
1.01085
1
1.01518
1
1
1
1.01538
1
1
0.98023
0.998961
1
0.980571
1.01537
1.0097
0.999591
1
1.00026
1
1.00971
1
1
1
1
1
0.998951
1
1
1
1
1
1
0.997115
1.01811
1
0.989744
1
1
1
1.00362
0.978743
1.0048
1
1.01101
1.00509
1
1
1
1.00518
1
1.01009
1
1.0174
0.976689
0.997741
1
1
1
1
1
1
1.01849
1.01804
1.0077
1.01726
1
1
1
1
0.976872
1
1
1
1.00902
1
1
1
1.00095
1.00076
0.977468
1.01285
0.979095
0.999549
1
1
1.00243
1.00328
1.00969
1.01063
0.967251
1.0108
1.00908
0.991953
1.0108
1.0109
1
1.01349
1
1.02582
1
1.00971
1
1
1.01029
1
1.01081
1
1.00724
1.0107
1
1
0.975832
1.0118
1.01037
1
1
1
0.97594
1
0.979175
1
1.01062
0.970521
1
1.01139
1
1.01088
0.968456
1
0.933143
1.01636
1
1
1.02053
1
1
1.05705
0.97737
1
1
1
1
1
0.97442
1.00446
1.01093
1.01072
1.00527
1
1.01559
1.01015
1.01283
0.98007
1.0129
1
1.0131
1
1
1
0.978692
1
0.998788
1
1.0266
1.00209
1
1.00967
0.960726
1.00974
1.00835
1
1.00891
1.01311
0.977526
1.01501
1
1
1
1
1.01776
1
1
1
1
1
0.983722
1
1
1.02551
0.975672
1.01601
1.00909
0.974237
1
0.972007
1
1.00858
1
0.981196
1.00548
1.0099
1.0081
1
1
1.018
1.02284
0.977155
0.977017
1.00404
1
1.00007
1.02585
0.989735
0.997585
1.01422
1.02838
1.02543
1
1
1
1
1
1
0.996939
1.01794
1
1
1
1.01554
1
1
1.01038
1
1.01789
1
1
1.00913
1
0.972913
1.01707
1.02507
1.01821
1.01958
1.01391
1.00002
1
1.01016
1
1
1
1
1.00558
1
1
1
1.00728
1
1
0.996939
1
1
1.01776
1
1.01413
1.01161
0.976582
0.949886
1.00312
0.998667
0.999904
1.02411
1.00552
0.989013
1.00459
1
1
1.02222
1.0169
1.00186
1.01311
1.01283
0.978761
1
1
1.00709
1.00627
1
1
1
1
1
1.01213
1
1.00164
1.01187
1
1.01094
1
1.02747
1
1
1
0.999628
1.0204
0.978881
1.01085
1.00435
0.979068
0.993832
0.975042
1.02109
0.976838
1
1.01231
1.02118
1.0164
1
1.00387
1
1.01213
1
1.01462
1.01619
1
1.00162
1
0.964373
0.979175
1.003
0.963907
1.01542
1
1.01564
0.998763
1
1
1.01342
0.997512
1.0069
1
0.998628
1.00676
0.980903
1.00541
1.00572
1
1.01059
1
1
1
1
1
0.998618
1.01795
1
0.973072
1.01681
1.00636
1
1.01201
1
1.00274
1
1.00025
1
1.01296
1.05101
1.00041
1
1
1.01841
1
1
1
1
1
1.01287
1
0.918264
1.02615
1
1
0.9843
1
1
1
1.00838
1
1.00098
1.00413
1.0129
1.01336
0.999487
0.99749
0.979732
1
0.999253
1.02481
1
1
1.01469
1.02485
1.00009
1
1
0.963813
0.958295
1.00503
0.984041
1
1
1.0049
1.01678
1.00826
1
1.01218
1
1.00676
1.00755
0.950564
1.01206
1.00126
1.01121
1.00627
1.02493
1
1.01234
1.02481
0.975168
1
1
1
1.06015
0.980248
1
1
1.00932
1.00897
0.981656
1.01162
1
1
1.01143
1.00394
1
1
1
0.99715
1
1
1.01836
1.01074
0.987395
0.998923
1
1
0.991429
1
0.977335
1.00194
1.00565
1.0107
1.03833
1
0.999411
1.0132
0.986191
1.01299
1
1
0.998814
0.96657
1
1.00072
1.01721
1
0.986067
0.984889
0.988493
0.985835
1.01824
1.00366
1.01732
1
0.987763
1
0.97333
0.978391
1.00739
0.973181
1.03933
1.00705
1
0.973916
1.00557
1
1.02459
0.975363
1
0.989395
1.00745
0.973617
1.02444
1.00582
0.998956
1
1
1.00057
0.990788
1.01832
1
1.01764
0.990216
1
1
0.977341
0.974504
0.978776
1
1
1
1
0.97426
0.979765
1
0.974123
1.01028
1
1.00171
1.01075
1
1
1.00385
0.998979
1.03411
0.975159
0.975208
1.02466
0.979701
1
1
1
1
1
1.0053
0.996895
0.993915
1
1.0174
1.01025
1.00457
0.983003
1
0.981321
1.0164
1.00115
1
1
1
0.977645
0.998006
1.00432
0.981851
1
1
1.01073
0.980711
0.975389
0.976632
1
1.00109
0.985763
1
1
1
1
1
1
1
1
1
1.00828
1
1
1
1
1
1
1
1
1
1
1
1
0.993914
1.01837
1
0.994891
1.00583
1
1
1
1
0.97249
0.982666
1.00459
1
1
0.994182
1.00477
1.01338
1
1
1
1
1.00201
1
1
1.00708
1.00241
0.981854
1
1
0.979694
0.992085
1
1.00092
1
1.00238
1
1.00287
1
1.01837
1.00151
1.0104
1
1
1.00565
1.00323
0.984348
0.992826
1.00426
1
1
0.977881
1
0.996783
1.00446
1.00429
1.01238
0.978711
0.984114
0.998306
1
1.00426
1
1.00929
1
1.01207
1.00483
0.978875
1
1.01801
0.995953
1
1
0.981955
1
1.01263
1
1.0253
1.00171
0.969295
1.01182
1
1.01231
1.00906
1
1
0.989027
0.971345
1
1.02916
1.00278
0.997521
1
0.997015
1
1
1
1
1
0.994029
1
1
0.998912
1.00949
1.00371
1
1.01001
1
1
1.00362
1
1
1.00117
1
1
1.02476
1.00358
1.01419
1.00084
1
1
1
1.00805
1.00363
1.00244
1
1.02056
1
1
1.02224
1.00425
1.03009
1.00055
0.991466
1
1
0.915243
1.00144
0.98774
1
1.00466
0.99873
0.991079
1
1
0.993188
1
1
1
1
1
1.00543
0.97823
0.992948
0.999037
1
1.01797
0.99497
1.00528
1
1
1
0.994871
0.999087
1.04462
0.999556
1
1
1
0.991815
1.00026
1
1.00134
1
1.00541
1
1.01805
1.02495
1.01297
1
0.98002
1
1.00069
1.0174
1.00284
1.00155
1.00753
1
1.02364
1.00054
0.998973
1.00681
1
1
1.00221
1
1.01859
1.01118
0.99866
1
1
1.01897
1
1
1.00268
1
1
0.987966
0.978411
1.00283
1
1.00913
1.01743
1.01823
1
0.995441
1.01745
0.984011
1.01426
0.980693
1
1.00128
0.958515
1
0.979278
1
0.971002
0.984669
1.00757
0.979255
1
1
1.00536
1.01815
1.00539
1
1.01394
1
0.999787
1.01743
1.00194
1
1.00469
1
1
1.00089
0.998983
1
0.979701
1
1.0149
1.00431
1.01858
0.969204
1
1
1.00488
1
1.01701
1.00317
1
0.993694
0.997132
1.00526
1
1.00071
1
1.01086
1.00542
1.00521
1
1.00637
0.987036
1
0.989229
1
1
1.00504
1
0.986611
0.996901
0.993109
0.994892
1
0.979019
1.00085
0.997905
0.981672
1
1.00606
1.00261
0.986214
1.00397
0.988385
1
1
1
1
1
1
1
1
1
1.01569
1
1
0.986272
1
1
1
1.00525
1.00253
1
0.996802
1.00033
1.00299
0.984195
1
1
0.990215
1.00985
1
1
1.00701
1.00679
1
1
1.00971
1.0098
1.00368
1.0079
1.006
1.0064
1.00768
1.00837
1.00987
1
1
0.98327
1.0005
1
0.989879
1.00775
1.00747
1.00772
1
0.981053
1.00502
1.01702
1.00536
1.01034
1.00898
1
0.981942
1.00959
1.01012
0.996488
1
1.0169
0.983497
1
0.982218
0.960591
1.00783
1
1
1.01857
1.01232
0.979799
1
1.01098
1.01153
1.00636
0.974882
1
1.01037
0.978874
1
1
0.979059
1.01771
1
1.00281
1
1
0.991344
1.00174
1.00804
0.989735
1
1.01307
1.02444
0.978862
1.00877
1.00294
1.00864
0.980621
1.04233
0.981002
1.01301
1
1
1
1
1.00017
0.971758
1.02183
1.03335
1.01259
1
0.958949
1
0.973664
0.983362
0.95882
0.983512
1
1
1.00857
1
0.981102
1
1
1
0.981159
1
1
1.00286
1.00515
1.02449
0.998879
1.01662
0.960724
1
0.996244
0.984137
1
0.98189
1.00812
1
1.00833
1.00241
1.00472
1
1
1
1
0.999656
1
0.98945
0.996174
1.01353
1
1.01363
1
0.995799
0.977291
1
1
1.01578
1.01195
0.98978
1
0.99183
0.954554
1
0.99571
1
0.984365
1.02512
0.997935
0.972635
1.01806
1
0.999822
0.997511
1.0117
1
1
1.00462
1.0114
1
1.00761
1.01105
1
1.01478
1.00001
1
1.00732
1.00832
1.01414
1
1
1
1.00561
0.985104
1.01599
1
1
1.01535
1
1.01656
1.00045
1.01631
1
1
0.990374
0.997269
1.00102
1
1
1
1
1.01763
1
1.01422
1.00457
1
1.01503
1
0.9848
1
1
1.01178
1
1.01673
1.00299
1.0035
0.957289
0.983802
1
1.00551
1.0115
1.01255
1.01104
1.01174
1.01194
1
0.999961
1.0121
1.00047
1.00024
1.01103
1.01056
1.0173
1.0114
1.01918
1.01895
1
0.982618
1.00804
1
1.00637
1
1.01588
1.0166
1.01853
0.999402
1
1.00843
1.00126
1.01251
1.00564
1.01514
1
1.01789
1.00018
1
1.01067
1.00345
1.01791
1
0.984603
1.00349
1.01705
1
1
1
0.997481
0.978384
1.00266
1.01929
0.984981
1.00488
1.01978
1.00326
1
0.992633
1.01928
1.00428
1.05705
1.01357
1.02411
1
1.00343
1.01074
1.01453
1
1
1.00728
1.01852
1
1.00948
1.00402
1.01892
1.00414
1
1.00616
1.0179
1.03385
1
0.967788
1.01763
1
1
0.986965
1
1
1.02047
1
1
1
1.01805
0.986753
0.957187
1.02166
1.01659
1.0054
1
1.01755
1.01046
0.985613
1
1.00541
1
0.983706
0.985658
0.999367
1.01603
1.00425
1
1.01183
1
1
1.02562
0.985243
0.987405
1
1
1.02483
0.985525
1
1
1
1.02634
1.02656
1.00064
1.0172
0.999996
1
1.01019
1.01598
1
1
1
1
1.01706
1
1
1
1.01183
1.0104
1
1.01669
1.01595
1
1
1.00001
1.01687
1
1
1
1.00872
1.01585
0.990693
1
1
0.998428
1
1
0.978664
1.01675
1
1
1
1
1
1
1
0.986383
1.01592
1
1.01299
1.00302
1
1
0.967407
1
0.977485
1.01011
1
1
1.01284
1.01376
1
1
1
0.997918
0.997538
0.985934
1.01652
1.00282
1.00878
1
1
0.979771
1.01299
1
0.996675
1.01604
1
0.988118
1
1.01287
1
0.98714
1
0.970971
1
1
1
0.959795
1.01285
1.01738
1
1.01279
1
0.989766
0.982209
1.01618
0.966435
1
1.00927
1
1.00069
0.980411
1.02586
0.989621
1
0.972133
1.01597
0.988668
0.988655
1
1
0.99944
0.988355
1
1
0.977955
0.998351
1.02204
1.00841
1.01576
1
1
1
1.01567
1.02543
0.981075
1.01543
1
1.01067
0.990704
0.978804
0.980957
1.01421
1
1.00396
1.01538
0.990148
1.01652
1.03461
0.974419
0.999126
1
0.981231
0.975592
1
1
1.00843
1
1.00144
1.01352
1
1.00905
1.01767
1
0.999713
0.99736
1
1
1.0016
1.01419
1
1
1.03702
1.00532
1.01341
1
0.999578
0.999999
1
1
1
1.01476
1
0.961334
1
1.00731
0.991757
1.04949
1.01371
0.99108
1.00707
1.01245
1
0.978848
1.0162
1
1
0.993398
1.01368
1.01385
1.00512
1
1.0083
0.979202
1
1.01311
1.01762
1.02462
0.988018
1.01389
1.0094
1.0073
1.00142
1.01261
1.00158
0.995014
1.00949
1.00355
0.987712
0.981369
1
0.993827
0.988411
1
1
1.01197
1.01671
1
1
1.01378
0.989002
1.00744
1
0.999175
1
1.00533
1
1.00885
1.01395
1
1
1.02448
1.00528
1.00892
1
1
1.00846
1.01773
1
0.981387
1.01382
0.988859
1
1
1.00541
1.00781
1.00413
1.03691
1
1.00778
1.0004
1
1.00673
1.0139
1.00614
1
1.00064
1
1.01623
1.02065
0.981344
1.01766
1
1.00011
0.983684
1.00672
1.00976
1.01453
1
0.999608
1.00164
0.996548
0.998141
1.00313
1
1
1.01389
1
1.00192
0.988925
1
1.01903
1.00941
1.03188
1.00047
1.01356
0.980635
1.01023
1.01646
0.983764
1
1
1.0042
1.01483
1.01791
0.999371
1.01392
1.01126
1
1.0034
1.01022
1
1
1.01242
0.997446
1.02021
0.999972
1.01928
1.00408
0.995706
1.01387
1
1.01392
1
1.00992
1
1
1.00013
0.9854
1.00753
1.03287
1
1
1.0107
1
1.02054
0.9846
1
1
0.999977
1
1
1
1.01053
1
1
0.999974
1
1
1.01384
0.983049
1
1
1
1
1.00223
1.02146
0.9972
0.99999
1
1
1
1
1
1.01148
0.999978
0.985711
1
1.01878
1
1.01217
0.998616
1.01138
1.01382
1.02165
1
0.999805
1.00383
1.01169
1
1.01121
1.01405
1
1
0.992135
0.995615
0.992258
0.999999
1.02508
1
1.01318
1.0097
0.98509
1
0.9306
0.92516
0.988402
1.00189
1.01197
1
1.03225
0.999993
0.988172
1
1.01792
0.998785
1.00387
0.987552
0.979427
1
1
1.00756
1.0128
1.01179
1.01104
1
0.998797
1
1.00359
1
1
1
1
1.0107
1
1.01247
1
1.0019
1
1
1.00005
0.999999
1
1
1.0168
1.00776
1
0.981138
1.00404
1.00196
1
1
1
1.00038
0.989193
1.0039
1.01596
1.02033
1.01267
1
1
1.01358
1.00059
1
0.999989
1
1
1
1
1.01249
1.00545
1
1
1.00805
1.01344
1
1.00019
1
1
0.981534
1.00044
1
0.986093
1
0.999995
1.00391
1
1
1.00319
0.997778
1.00778
1.00701
0.974456
1
1
0.991541
1
1.01327
1.01058
1.01788
0.99175
1.00091
1.00259
1
1
1.0131
1.00935
1
1
1.0202
1.00014
1
0.999982
0.989681
1
1.03409
1.0136
1.00002
0.997634
1.0187
1.00411
1
1.00516
1.00905
1
0.999993
1.01428
1.01858
1.00667
1.01345
0.989565
1.01034
1
1.00367
1.00476
1.04407
1.01595
1.00418
1
0.988681
1.00347
1
0.988792
1
1
0.987975
1.00752
1
1.0171
1.00819
1.01396
1.00809
0.999994
0.971296
1
0.987341
0.99239
1.00968
1.00975
1.00845
1
1.0139
1.00966
0.989473
0.983568
1.02179
1
0.999986
0.991962
1
1.01072
0.982219
1
1
1.00801
1.00457
1
1.01419
1
1.00546
0.989071
0.999135
1.00017
1
1.00784
1.02489
0.972764
1.01412
1.00568
1.00368
0.990837
1.00888
0.999894
0.957649
0.952244
1
0.973912
0.999998
1.01281
1
1.00347
1
0.998961
0.98196
1.02024
1.01839
1
1.01367
1.00031
0.986689
0.998061
1.01425
1.00232
0.976045
1
0.995476
0.98531
1.01629
1.01087
1.0084
1
1
1
1
0.976759
1.00235
1.0142
0.999708
1.01381
1.00014
1
0.989637
1.01908
1.00861
1.02018
1.00809
0.995458
0.986157
1
1
0.96967
1
1.0092
0.990223
0.983369
1.00723
1.00845
0.989748
1.03446
1
0.975332
1
1
1.00674
1.0143
1.00907
1.01688
0.989496
1.00897
1.00674
1.03133
0.992827
0.986657
0.997311
1
0.985759
1.01438
0.993907
1.00809
1.0033
1.00881
1.00295
1.0081
1
1.02122
1.00004
0.97574
1
1.00937
0.992237
1
0.985622
1
1.01222
1.00349
1.00413
1
0.990148
1
1
0.994713
1
1
1.00624
1.01025
0.978315
0.989405
0.975628
1.00903
1.00436
1.01429
1
1
0.996686
0.983343
1.00826
1.01253
1.01004
1
0.99963
0.95445
1.01849
0.989014
0.981525
0.955452
1
1.00973
1.00634
1.00215
1.01445
1.01157
1
1
1.02412
0.999186
1.01465
1.00196
1.00541
1.01104
1.012
1.05261
1
1.0186
1.00466
1.01415
1
1.01774
0.981766
1.00374
1
1.01115
1.00189
0.997279
1.0023
0.970722
1.00971
1.01359
1
1.00994
0.99789
1
1.03249
1.01274
0.997339
0.977021
1.01734
1.01074
1.04214
0.977653
1.01742
1
1.0091
1
0.999309
1
1
1.0055
0.971206
1
1.00639
1.01385
1
1
1.01335
0.999944
1
1.00177
0.977089
1.01616
1
1.01063
1.03222
1.00401
1.01407
0.997042
0.9996
0.972226
0.992279
1
1.01047
0.985991
0.986863
1.00375
0.989651
1
0.977633
1.00922
0.989383
1
1.00178
0.978915
1
0.97206
1.00413
1.01229
1.00403
0.992218
0.981165
0.992994
1.01358
1.00428
1
0.983084
1.01671
0.974403
0.988821
0.977596
1.02231
0.978543
1.00543
1
1.00502
1.02207
0.98077
1.011
1
1.01203
1.0008
1
1.00608
1
0.986398
1.0075
1.01605
1.00837
1
0.97666
1
1.01641
1.03503
1.00271
1
1.00502
1.01501
1.00466
1.01128
1
0.99683
0.985685
1
1
1.02101
0.980249
1
0.984335
1.01292
1
1.00278
1.01795
0.959173
1.01373
0.991288
1
1.0115
1.01542
1.01602
1.00604
0.988512
1
1.01602
1.02446
0.979982
1.0231
1.01385
1.00421
0.982394
1.04679
1.00235
1.01273
1.01517
1
1.01202
1.03398
1
0.997059
0.978599
1.01587
0.982153
1.00351
1.01858
1
1
1.00056
0.98969
1.01077
1.00533
1.01476
1.00094
0.983744
1.01247
1
1
0.997054
0.98752
1.01566
1
0.981994
0.978908
0.97302
1.00335
1.01516
1
1
0.987
1.00042
1.01072
0.996765
1.00622
1.00488
1.01247
0.967509
1.01998
1.00764
1
1.0185
1
0.99086
1
0.996091
1.03132
1.0152
1
0.995117
0.988802
1.00812
1.01336
1.00522
1.00865
1.00378
1.00285
0.993753
1.00185
1.00655
0.985033
1.01386
1.01375
1.0081
1.01402
1.0137
1.01393
1
0.997046
1.01354
1.01344
1
0.997746
0.997196
1.0048
1.01057
1.00598
1.01326
0.958419
0.999466
1.00379
1
0.999261
1.01377
1
1.01017
1.00604
0.991708
0.987593
1.00172
1
0.987815
0.994662
1.00192
1.00599
0.990967
1.00398
1.00453
0.998706
0.998385
1
1.02216
0.99464
1.03149
0.981188
0.996155
1.00216
1.00045
1.02748
1
1.03524
1.01358
1.01382
1
1.0136
1.01396
0.989515
1.01353
1
1.01344
1.01384
1.00199
1
1.01298
0.996137
1.00335
1.01379
1.00727
1.00852
0.97058
1.00276
0.999975
1
1
1.01699
1.01521
1.01349
0.994557
1.00998
0.994207
0.997539
1.00065
0.990642
0.996561
0.980828
0.98502
1.00399
1.00508
1.01236
0.994316
0.99186
0.989643
1.00814
0.995392
1.00206
1.00704
1.00831
1
0.98864
1.00075
1.00698
0.999996
0.999987
0.997129
1.01271
0.996699
1.0002
1.00279
1.00425
1.00012
1
1.00608
1.00487
0.9975
0.973342
0.995929
1
0.997433
1.00151
1.01223
1.00148
1.00263
1.00327
1.0174
1.00595
1.00013
0.993959
1.02877
1.00021
0.98037
1.0068
1.00031
1
1.00163
0.999998
1.00309
1.02766
1.00268
1.01753
1
0.994007
1.00481
1.00427
1
0.979936
1.00356
1.00709
1.01026
0.997064
0.990652
1.00973
0.99998
1.00518
1.00691
1
0.99791
1.00249
1.00457
1.02288
1
1
1.00084
1.00391
0.999997
1.01797
1.00536
0.999995
1.00061
1.01805
1
1.02371
1.00612
0.980936
0.993584
1.01092
0.98728
0.993127
0.998135
0.999993
1
1.0034
1.00828
1
1.00343
0.987749
1.00771
1.00136
1
0.999899
1.0013
0.988006
1.00074
1.02053
1.00904
1.0044
0.992497
1.00203
1.00028
0.992317
0.979926
0.998201
1
1.00742
1.01435
1.00622
1
0.992242
0.992431
0.981182
0.989277
1
0.997285
0.999999
1.00793
1.01489
0.991632
0.992097
0.9926
0.992113
1
0.988489
1.01298
1.00549
1.00113
0.994313
0.992038
1.00956
0.992182
1
1.00344
1.03403
1
1.00122
0.99212
0.976057
0.992246
1.01761
1.01694
1
1.01108
0.992189
1.01989
1
0.985588
1
1.01381
0.988478
1.00014
1
1
1.00905
0.988884
0.992365
1.01075
1
1
1
0.998919
1.00424
1.00065
1.00133
1
1.01477
1.01741
0.997608
1.00225
0.959711
0.975698
1.01411
1.01388
1.01698
1
0.982285
0.983365
0.997812
1
0.993365
1.026
0.993179
1
1
0.997402
0.992022
0.981312
0.978981
1.01941
1
1
1.00111
1
0.999991
0.992987
1
1.00932
1
0.992314
0.999171
1
1
0.994375
1.01865
0.994244
1.00845
1.00453
1.01522
0.990972
1.0128
0.980091
0.991719
1
1.02743
1.02605
1.00995
1.01253
1.00121
1
1.0351
1.00022
1
1.01056
1
1
1.01453
0.997618
1.0183
1.01123
1.00885
0.989064
1
1
1.00436
1.00939
0.984063
1.01371
1
1
0.980433
1
0.980976
1.00856
1
1
1.01306
1.03516
1.01763
1.01958
1
1.01182
0.991238
1.00832
1
1.01714
0.989199
1
1.0091
0.989009
1
1.00234
0.999684
1.0085
1
1
1.01251
1.01372
0.984962
1.0098
0.993891
1.01275
0.991062
0.983175
1.00026
0.97855
1.05355
1
1
1
1.0195
1.02788
1.01033
1
1.00126
0.997603
1.0132
0.991901
1.01761
1
0.990705
1.02195
0.991789
0.982965
1.04109
1
1.01305
1.01108
1
1.00332
1
0.99513
1
1
1
0.98781
1.01158
0.995294
1
1.01159
0.998296
0.998384
0.988078
0.977429
0.99755
1
1.00008
1.01077
1.0119
1.01837
1
1.00141
1
1
1.01345
1.0368
1
0.970957
1
1.01237
1.02399
0.990301
0.961387
1.00493
0.998221
1
1.00911
0.961118
1.00366
1.00221
1.01383
1.01671
1
1
0.987703
1
1
1.00005
1.01294
1.00844
1.00665
1
1
1.01226
0.995803
1
1.00102
1.00621
1
1
1
0.984838
1.01783
1.01546
1
1.01988
0.991668
1.01401
1
1.01335
1
1
1.00998
1.01324
0.990542
0.985965
1.01172
0.973227
1.01022
0.989653
1
1
0.999544
1
1.00627
1
1.01367
1.01418
1.01902
1
0.995864
1
0.998948
1
0.981475
0.990742
1.03546
1
1.01564
1.01787
0.985513
1
1
1
1.00971
1.00176
0.996802
1.0049
1.01393
1.01344
0.998734
0.999921
0.996127
1
1
1
0.997472
1.01438
1
1
1.01292
0.987767
1
1.01681
1
0.98624
1
1.01027
1
0.989791
1.01326
1.00993
1.00963
1.01423
0.994939
1.009
1
0.977079
0.985104
1
1.01373
1
1.00777
0.99069
1.00732
1
0.984638
1.0144
0.998747
1
0.99931
1.00653
0.986121
1.00639
1.00305
1
1.00082
0.9895
1
1.00168
1.01436
1.03525
1.01048
1
0.991584
1.01034
0.965627
1
1.02067
1.0002
1.00011
0.990537
1.00943
0.983957
0.986522
1.0003
1.01456
1.00807
1.00063
1
0.99996
1.01281
1.00002
1.03538
1
1.00878
1
0.999997
1
1.0173
1
1
1.014
1.01025
1
1.00001
1.00741
1.00139
1
1
1.02345
1.01701
1.01436
1
0.989753
1.00635
1.01224
1
1
1.00054
1
1
1.00015
1
1
1.03269
1.01012
0.985473
1.01441
1.0075
1.00237
1.01473
1
0.990498
0.999417
1
1.00096
1
0.986766
1.00719
1.01426
1.00657
0.988102
0.984719
0.986616
1
1
1
0.997179
1.00046
1.01384
1
1.01244
1.01255
0.99978
1.01418
0.986088
0.998101
1
1.0194
0.986063
0.985846
0.997489
1.0116
1.01344
1
1
1
1
1.01352
1
1
0.998951
1.00146
0.976834
1
1
1
1.01382
1.03317
1.01313
1
1
1.0131
0.999785
1.0174
1.02795
0.99843
1.01833
0.998857
0.987535
1
1.00584
0.994985
1
1.01407
1
1.02761
0.978352
1.01116
1.03351
0.988391
1.01674
0.993189
1.01198
0.992169
0.989779
1.01452
1
1
1
1.01074
0.979514
1.01384
1.00829
1
0.984157
1
1
1.01778
1.00365
0.976586
1.01228
1.01961
0.988379
0.998744
1.01871
0.981142
1
1
1
1
1.01134
1
1
1
0.996407
0.981185
0.995515
1.01843
1.01079
1
0.987279
0.99813
0.993827
1.01387
1
0.986567
0.994559
1.01334
0.999112
1.00081
1.00676
1
1.01119
0.983654
0.99884
0.985287
1.01244
0.999368
1
0.997145
0.99401
0.994734
0.977849
1.01306
0.97631
1
1
1.01464
0.999413
0.979202
0.998751
1.00394
1.0143
1.00002
0.979222
1.04486
0.986282
1.00861
0.997977
1.01348
1.01695
0.980942
1.00822
1.01138
0.995109
0.983199
1.01471
1
1.02248
1.01698
1
1.01397
1
1
1.00441
1.00009
1.01149
1
0.988952
1
0.98646
1.00063
0.985332
0.977476
1
0.989046
0.983848
1.00422
1.02804
0.991643
1
0.998241
1.0142
0.990933
1
1
1
1.01621
0.983143
1
1.00468
1
1.01661
1.01298
1.00553
0.998223
1.00157
0.989301
1.00126
0.988943
1.00581
0.98723
1.00437
1
0.998556
1.00103
1.00376
0.996991
1
1
1
0.977893
1
1.0024
0.994529
0.995099
1.00333
1.01895
0.98955
0.994547
1
1
1
0.982871
1.03416
1.01523
1
1
1
1
1
1
1.00358
1
1
0.990187
1
1.00018
1
1
0.988541
0.997552
1.01156
1.00021
1
1
1
1
1.00644
1
1.0078
1
1.02242
1.02065
1
0.987387
1.0161
0.998482
1.00075
1
1
0.988688
1.00602
1
0.98312
1
1.0039
1
1
1
1.00124
1.00574
1
1.00517
1.01443
1
1.00088
1.02762
1.00318
1
1.01797
1.00908
1
0.991865
1.01748
1
1.02015
1
1
0.989763
1
1.00355
1.00513
1
1.00196
0.997935
1
0.983835
0.990208
0.988392
0.987086
0.993029
0.989255
1.00079
1.00312
1
0.999113
0.964734
0.993174
1.0032
1.00212
1
1
1
1
1
1.00873
0.993431
1
1
0.987685
1.00358
0.988344
1
1.01264
1.00632
1.00339
0.998042
1.0067
1.01718
0.999997
0.994465
1.02513
0.99294
1
0.999432
0.988526
0.999949
0.996584
0.995932
1
1
1.01499
0.995407
0.988847
1.00885
0.99822
0.998179
0.984281
1
1.01097
0.987897
1.00281
1
1.00218
1.01573
1.03548
1
1.00515
1
1
0.959043
0.990246
0.984452
0.988648
1.01592
0.995233
1.00001
1
1
1.01533
1.01589
0.995575
1.00388
1.016
1.01552
1.01584
1
1.02872
0.999999
1.0153
1.00557
0.989877
1.01356
1.02394
0.998634
0.999999
0.980236
0.999999
1.02008
1.00317
1.01101
1
1
1.01506
1.00369
1.01878
1.00084
1.00129
1.01981
1.03438
1
1.01234
1.00887
1
1.01348
1.01919
0.988128
1.01042
1
1
1.00653
0.988171
1
0.986223
1.0164
0.999999
1.01484
1.01873
1.01976
1
0.962959
1
1.02148
1
1.01544
1
1.00866
1.00477
1.01491
0.999998
1.01529
1.01204
1.02125
0.996182
1
1.02627
1.01064
1
1
0.99596
1
1
1
1
0.986902
1.00008
1
1.00132
1
1
1.01767
1.00967
1
1.03011
0.996165
1.0008
1.01529
1.00027
0.999996
1
1
1
0.995405
1.01477
1.0161
1.00314
1.01586
1.01529
0.999996
1.01518
1.01599
0.978175
1
1.00783
1.00161
1.01136
1.01486
1.01652
1.02138
1.01742
0.999996
1.03724
0.999997
1
0.99368
0.998936
1.01591
0.995576
0.998258
0.996952
1.01404
0.998985
0.987311
1
1.00918
1
1.0027
1.01232
1
1
1
1
1.00081
1.01557
0.991339
1.00695
1.01286
1
1
1.01757
1.01763
1.02007
1.01503
1.01532
0.999121
1
1.00677
1.01579
0.999999
1.00302
0.989755
1
1
0.968821
1.00135
0.984093
1.01474
0.992075
0.992154
0.999995
0.977375
0.999575
1.00793
1
1.01294
1.00787
1
0.992294
1.0153
0.999996
1.01723
1
1.0076
1
1
1.01055
1.03583
1
1
1.01494
0.99568
1.00818
0.994319
1.00146
1.01719
0.985347
1.00157
1.01514
0.995984
1
1.00332
1
1
1.01532
1
1
0.995593
1.0135
1
1
1
1
0.999999
0.99805
1
1.02826
1.01535
1
1.00369
1.01317
0.988584
1
1.01536
0.999995
1
1.00441
1
0.981273
1.0059
1
0.999998
0.992756
1.0013
1
1.00638
1.02015
1.01444
0.9985
1.01532
0.987296
1.01101
0.995421
0.965448
1
1.00481
0.996988
1
1.01458
1.00027
1.0165
1.01482
1
1.0614
1.01518
0.987161
0.999997
1
1
0.98165
1.01506
1
1.01521
0.985899
1.01479
1
0.984672
1.0091
1.00828
1.02057
1.0159
0.999999
1.00913
1.01761
1
1.01521
1.00171
0.999998
0.989092
1.01346
0.999998
0.97561
1.03796
1.0163
1.00843
1.01106
1.01558
0.980602
1
1.01512
1.01658
1.00741
1
0.999977
1
1
0.999996
1.00919
1.01974
1
0.984976
0.981172
1.0204
1.00723
0.999997
1.00598
1
1.00601
0.98718
1.01662
1
1.00079
0.987333
1
1
0.999998
0.997694
1
1.02947
0.986849
1.0127
1.07063
1
0.989458
1.01459
0.999974
1.03495
0.999525
0.990045
1.01143
1.01376
1.01723
1
1.03224
1
1
0.997373
0.983983
0.999983
1
1
1.01677
1.00002
0.999999
1.01609
1.00512
1.0146
1.00423
1.00729
0.999994
0.992997
1
0.999998
0.999996
1.00099
0.988469
1.00101
1.06055
1
1.01693
0.989594
1.00457
1.02025
1.01245
1
1.00639
1
0.974501
1
1
1.01905
1.02162
1
1.01997
0.999999
1.00289
1.01127
1
0.999996
0.989738
1.015
1.01705
1.01438
1.01555
1
1.01483
1
1.01305
1.01265
1.01579
1.01535
1.0364
1.0173
1.01344
1.01062
1.0089
1
1.016
1.00233
1.00502
0.988929
1.00598
1
0.988826
0.990803
1
1
0.988818
1.0248
1
1.01428
1.00767
1.01744
1.01676
1.00062
1.00053
0.994568
1
1.01596
0.996526
1.00641
0.999995
1.02489
1
1
1.00001
1
0.99999
1
1.0029
1
0.999014
1.0131
1.01595
1.01341
1.00038
1
1.01532
1.01768
1.00935
1.01913
1.01482
0.999974
1.01118
0.999996
1.01596
1
1.03694
0.99758
1.0102
1
1.01827
1.00769
1.02113
1.01007
1.00467
0.971234
1.0096
0.990498
0.999986
1.00001
1.03555
0.994256
1.01165
1
1.00955
1
1.01467
1.01463
1.01584
1
1.00454
1.01297
1.01103
0.982921