/*--------------------------------*- C++ -*----------------------------------*\
  =========                 |
  \\      /  F ield         | OpenFOAM: The Open Source CFD Toolbox
   \\    /   O peration     | Website:  https://openfoam.org
    \\  /    A nd           | Version:  12
     \\/     M anipulation  |
\*---------------------------------------------------------------------------*/
FoamFile
{
    format      ascii;
    class       volScalarField;
    location    "0.9";
    object      T;
}
// * * * * * * * * * * * * * * * * * * * * * * * * * * * * * * * * * * * * * //

dimensions      [0 0 0 1 0 0 0];

internalField   nonuniform List<scalar> 
45568
(
1.37545
1.09009
1.3591
1.30888
0.971497
1.06021
0.943547
1
0.879995
0.909879
0.828266
1.0719
1.23844
1
0.892722
0.771692
1
1
1.0238
0.909212
1
1.35984
1.21517
1
1
1.06117
1
1
0.791789
0.907662
0.989912
1
1
1.31233
1.12052
0.951927
0.975325
1
0.928623
1
1
0.767849
1
1.07011
1
1.61067
0.765782
1.49617
1.1133
1
1.03125
1.30656
1
1.35832
0.808197
1.35464
1.42294
1.0722
1.11713
1.20702
1
1.1207
1
1
0.788516
0.991875
1
1.0283
0.952967
1.51808
0.917547
0.878304
1.03028
0.971725
1.42892
1
1
1.0822
1.2155
1
0.736682
1.23248
0.866272
1.03
1.15561
1.00001
1.07735
1.03829
0.94555
0.876699
0.979111
1
0.940775
1.50381
1
1
1.51614
1.24969
1.02308
0.904616
0.944931
1.16138
1.10699
1
1
1
1
1.35675
1
1.49623
1
0.896126
1.11021
1
1.50213
1
1
1.10734
1.18396
1.40592
1
0.726255
1.35454
1.35743
1
0.727725
1.03233
0.76911
1.03471
1
1.06852
1.43914
1.03606
1
0.772905
1
1
1
1.15703
1.16492
1
1.32851
1.14491
1
0.741638
1
1
1
1
1
1.08446
1
0.815418
1.02672
0.805876
1
1
1.0218
0.768423
0.790396
0.762692
1
1.33208
0.766508
0.722227
0.894129
0.953115
1
0.787314
1
0.774822
1
1.05331
1
1.18888
0.768191
0.762498
0.768541
1.07728
1.06118
1.18478
1.36217
0.775068
0.770555
1.1076
0.95031
1
1
0.96653
0.776332
0.774946
0.915082
0.966641
1.10559
1.43728
0.942096
0.774405
1.21558
0.723803
0.771476
0.989213
1.29038
1.35986
1.35154
1.62323
1.23505
0.963038
1.32341
1.00135
1.37983
1.01999
1
0.757724
1
1.36014
0.771725
0.768522
1
0.980539
1.36403
1.21408
1.18356
0.941005
1.08881
1.20624
0.970309
0.770003
0.766201
1
0.975455
0.867454
0.919588
0.8273
1.07444
1.32526
0.829591
0.894711
1.23038
1
0.807708
0.739595
1.23265
1.19627
1.00001
1.23924
1.23791
1.36228
1.24177
1.21123
1.23853
1
1.17349
1.2118
1.03602
0.767541
1.07804
0.765602
0.764913
0.763679
1.17301
1
1.07046
1.08429
1
1.1164
1.03748
1.09556
1.29093
1.07047
0.76461
1.09541
0.762547
1
1.07426
1.2386
0.993659
1
1.14652
1
1
1
0.999999
1
0.722439
1.42468
0.997562
1.01878
1.00291
0.928547
1.02212
1.00042
1.42075
1.06608
0.912054
1
1
1.36676
0.904813
1.31635
1.11287
1.05416
0.992965
1
1.36338
0.913796
0.990484
1.00775
1.05489
1
1.36217
1.3613
1
0.752319
0.89115
0.894254
1.27553
1.123
1.08578
0.843519
0.761793
1.35838
0.811651
1.35759
1
1
0.909622
0.971438
1.34545
0.907462
1
1
0.787966
0.848412
1.19806
1
1.0401
1.00001
0.961026
1.07724
1.40901
1
0.76557
1.36068
1.14054
1
1
1
0.952312
1
1
0.966977
1.23038
1
0.851099
1.21949
0.732793
1
1
1.15084
0.736956
1.00028
0.927649
1.30521
1.15365
1.00815
0.967659
1
1.2508
1.00574
1.07116
1.39314
1.3267
0.824612
1
1.06023
1.01027
1
1.29989
0.732518
0.905791
0.904035
0.90252
1
1.03071
0.776596
1
0.996515
0.981962
1
1.07978
1.41192
1
0.94067
1
0.783111
1
1.08989
1
1
1.02788
1
1
0.964045
1
1
0.805966
1
1
0.916689
1
1
1
0.806112
1
0.895732
0.906615
1
0.730065
1.14732
1.43375
0.951044
1
1
1
0.894118
1
1.33474
1.32177
0.815727
1
1.10099
1
1
1
1
0.979191
1.18135
1
1
1.27329
0.772067
1.27841
1
0.985118
1.10122
0.962202
1
1
1.46402
1.14989
1.04003
1.29657
0.999997
0.903539
1.06281
1
1.16605
1.03182
0.916577
1.40352
1
1
0.906626
1
1
0.82843
0.753266
0.843354
0.788428
0.780099
1.02006
1.08983
1
0.719069
1
1.04244
1.31199
1.22793
1.40316
1.32896
1.2655
0.946118
1.00316
1.04672
1
1.29919
1.30404
1
0.960294
1.07709
1
1
0.995075
1
0.766418
1.09653
0.760655
1
1.22779
0.868248
1
1.31494
0.757846
1
1
0.917209
1.29934
1.34162
1.14666
1
0.926712
1.15179
0.935406
1
0.722879
1
1
0.79082
1
1
1
1
0.763986
1.31413
0.85069
1
1
0.906923
1.21836
1
1
1.35906
1.17155
1.34101
0.998995
1
1.24767
0.775764
1
1.10588
1
0.759843
1
0.997328
1.25083
1
1
0.93678
1.20936
1
1
1
0.776734
0.775344
1
0.999939
1
1
1.15552
1
1.39499
0.775499
1.15611
1.28863
1.18786
1
1
1.12095
1
1
1
0.915797
0.985277
1
1.12071
1.10045
0.866869
1.06386
1
0.741731
0.96119
1.05925
0.723027
1.23279
0.770917
1.21108
1.46937
1.05661
0.893232
1.21141
1.17602
1
1.26729
1.03398
1
1.03075
0.993824
0.873023
0.951509
0.804409
0.766581
0.849721
1
1
1.33147
0.767844
0.764947
1.03065
0.980579
1.07839
1
1.1679
1
0.890375
0.962549
0.999944
1.36096
1.00277
0.99358
1
0.979874
1
1.60458
0.869524
0.951341
1.09054
0.769976
1
1.06225
0.905192
1
1.27038
1.15959
1.37372
0.892586
1.35922
0.805444
0.914694
1
1.12259
1
1.24109
1.00386
0.76673
1
1.67234
1
1.37242
1
1
0.936341
0.805999
1.02941
1
0.977994
1.03468
1.00005
0.732077
1.14139
0.918399
0.850326
1.01758
0.97277
0.99861
0.99842
1.00002
1.16
1.00292
1
1.00689
1
0.996999
0.918076
1.07734
1.19527
1.04634
0.897898
1
1.70068
1
0.982309
0.952554
0.948381
1.07986
1
1.10372
1
1
1.21051
1.0793
0.763813
0.78248
0.818242
1
1.37068
0.761109
1.10023
0.761384
1.03451
1.03236
1.0782
1
1
1
1.31626
1
0.91903
1
1
1
1.00001
0.816694
1.24606
1.03091
1
1
0.984535
1.24407
1
0.911452
1.43741
1.32218
1.21314
0.810278
0.807133
1.46673
0.731248
0.995114
0.759367
1
1
0.965905
0.815762
0.907196
1.25151
1.05033
0.938933
0.965014
1.20955
0.737706
0.903581
1.08403
0.759339
0.893689
0.992398
1
1.2008
1.24798
1.20225
1.24927
1
1.34669
0.999258
0.736792
1
1.37315
0.735327
1
1.24089
1.00078
1
1.33944
1.23128
1.47667
1.07029
1
1
1.08091
0.852705
1.0712
1.0351
1.2248
1.1426
1.05577
1.35884
1.28015
0.925951
0.723535
0.993911
1.03972
1.22033
0.962974
1.10735
0.970621
1.39027
0.981736
0.966963
1.27703
1.1955
1.41638
1.21684
1.57727
1.09636
1.02157
0.967412
1.34955
0.944079
0.876928
0.947427
1.21537
1.18102
1.41057
0.854691
0.881811
0.867873
1.05525
0.789762
1.16898
0.879442
1.12956
0.919985
1.2242
1.15246
0.964763
1
0.901186
1
1.04491
1.16608
0.899092
1
1.11048
1
1.07342
0.979619
1.18056
1.39351
1.18838
1.25312
1.23299
1.2283
1.2425
1.34064
1.10216
1
1.15495
1
1.17883
1
1
0.795655
1.25457
0.888073
0.89141
0.984199
1.21627
1.25061
1.16557
1.19024
0.891426
0.76585
1
1.26313
1.23593
1.20829
0.94393
0.943752
1
0.76582
0.930057
0.773061
1.18745
1.04106
1
1.23962
1.09709
0.786055
0.759096
1
1.23534
0.98056
1.12703
1.12597
1.04105
1.1785
1.12593
0.771739
1.05731
1.04337
1.03286
0.9486
1.36547
0.972427
1.16525
1.07406
1.20484
0.766615
1.33014
1
1
1.2651
1
0.938541
1.33216
1
1.19355
0.760127
1.25166
0.995422
0.765643
1.17036
0.729662
1.02399
1.03656
0.99707
1.2204
1.01927
1.02539
1
0.976616
0.987427
1.01845
0.962048
1.08178
1.02219
1.01251
1
1.01109
0.736419
0.909973
0.948143
0.979897
0.998431
0.945625
1
1.0341
0.996756
0.884503
0.913455
1.07012
0.7675
0.771155
0.992366
1.18792
1.25274
0.941899
1
0.994826
1.07599
0.996138
1.1525
1
1.07912
0.961164
0.757609
1.09423
1.22689
1.44019
1
1
1.0787
1
0.95253
0.903766
1.20667
0.773219
0.775891
1
1.35023
1
0.719575
0.953038
0.883781
0.947246
1.006
1.0509
1
0.954222
0.994466
0.998382
1.00926
1
1.01653
0.99424
0.741894
1.01195
0.729619
1
1.06884
0.999999
1
1
0.997994
1.20848
1.25111
1
1
1.20285
1.04436
1.04348
1.05769
0.997136
0.980916
1.0361
1.04596
0.772867
1
1
0.962681
1.08199
0.774133
0.77587
1.01434
1.06892
0.995698
1.12158
1.23404
1
1
1.39389
1
0.745634
1.2168
1
0.939845
1.12313
1
1.01951
1.14447
1.25193
0.978448
0.955158
1
1.28423
0.765279
0.74636
0.943302
1.17185
1
0.945009
1
1
0.944519
0.942436
1.56543
0.866154
0.984849
1
1.08954
1.13019
1.12349
1.09374
0.770141
0.77385
0.93612
1.04995
0.772695
1.0457
0.99055
1.03331
0.772204
1.03003
1.08
1
0.954637
1.24747
1.11547
1.13054
0.871667
1.12439
1.12214
0.767754
0.787314
1.20558
0.916536
0.732313
1.22529
1.11319
1.13394
0.923372
0.770373
1.21585
0.950254
1
1
1.20357
0.911167
0.990074
1
0.998588
1.0914
1.05171
1.22906
0.901521
1.274
1
1.02543
0.783185
1.10078
0.908118
1
1.00686
1.00331
0.77618
0.935105
1.16672
1
1.25746
0.953239
1.25454
1.33998
1.04418
0.997957
0.831057
1.03661
1.10521
1
0.999996
1.33833
1.12108
1.23905
1.0854
1.10433
1.23297
1.08128
0.905418
1.0959
1.11046
1
1.36588
0.756147
1.09818
1.22057
1.21726
1.23923
1.24079
0.982729
1
0.775985
0.86178
1.23226
1
1.1194
0.764914
1.25386
1.18026
0.834174
1.11748
1.04325
0.984177
0.810713
1.04203
1.26276
1.04612
1.11736
1
1
0.983895
0.752809
1
1.07571
1.1709
0.826766
1.1575
1
1.25465
0.825921
1.23723
0.949656
1.21212
1
1.0102
1
1.34036
1
0.95101
1.21173
1.33887
0.954681
1.20968
0.993111
1
0.951743
1.02493
0.767481
1.3597
1.0964
0.743445
1.30659
0.743259
1
0.747827
0.763339
0.748164
0.905178
1.2453
1.36015
1.29424
0.755756
0.755262
0.766412
0.952205
1
1.14457
1.24782
0.760509
1.22081
1.28014
0.761
0.999976
1.06421
1.0504
0.765168
0.765384
1.10584
1
1.08493
0.782609
0.779905
1.23949
1.20165
1
1.19456
1
1
1.18586
1.20246
0.92213
0.787226
0.7852
1
1
0.90015
1.14462
1.11083
1
0.962703
0.811811
0.818959
0.84095
0.86897
0.93608
0.845703
0.832042
1
0.980393
0.919066
0.892098
0.875192
0.762489
0.877986
0.940199
0.764944
1
1.07774
0.765555
1.23879
0.868534
0.951305
1
0.730175
1
0.863545
0.950262
0.793854
0.84118
1
0.989804
0.791734
0.803728
1.36261
1.14418
0.854636
0.980694
1.05071
1.36033
1
0.799203
0.801202
0.811511
0.809601
0.819074
0.819244
0.989051
0.924488
1
0.820617
1
0.821155
0.866094
1.11693
1.02507
1.11979
0.796771
0.760701
1.11843
1.11977
0.82918
0.825503
1.36035
1.04569
1.0037
0.7687
0.74782
0.836433
0.835846
0.841703
1
1
1.11456
1.22329
1.07283
1.01474
1.11178
1.35859
0.841663
1
1
0.844526
1.02027
1
1
0.772431
1
0.847137
0.843757
0.861666
0.857768
1.04293
0.766876
0.959343
0.738452
1.05997
1.21162
0.871879
0.87204
1.36197
1.05649
1.20286
0.76143
1.05265
1.0646
1
0.937329
1.07689
0.783757
1.33956
0.849028
0.762962
1.10697
1.36075
1
0.989383
1
1.14227
1.01109
1.34019
1.35583
0.864437
0.820437
1.41593
1.09994
1.36145
1.21818
0.928768
1.0576
1.0315
0.768672
1.3594
0.982593
0.918696
1.33465
1.33597
1.00211
1.3597
1.00016
0.842982
1.36176
1.01099
0.838711
1.35971
1.09282
1.03907
0.79212
1.36167
0.851966
1.14621
1.05885
1.24265
1.35937
1.03092
0.999983
1.36186
1.03859
1.02625
1
1.05945
1.15846
0.975891
1.31178
1.04816
1.01447
0.76643
1.1005
1
1.31726
1.03156
1.09773
1.36024
1.35894
1.03826
1.33675
0.937541
1.21056
1.36081
0.849556
1.36061
1.04012
1.03358
0.921186
1.07151
1.20242
0.90654
1
1
1.08297
0.976196
0.977114
0.904078
1.18494
0.920383
1.04126
1.29567
0.915717
1.04768
1.03004
1
1.33453
1.0675
1.33597
1.33581
1.26671
1.58571
1
1.33583
1.03913
1.12251
1.33421
1
1
1.00001
1.22773
1
1
1
1.23249
1
1.18835
1.22177
0.946617
0.888726
0.948804
0.865375
0.936373
0.768433
0.869656
0.746209
0.794366
0.79029
0.97804
1.16511
1.14403
0.929231
0.968626
0.875135
1
1.17291
0.900987
1.00059
1.05957
1
1
1.00049
1.06447
1.22271
0.871377
1.26046
0.921854
1.09653
1
1.21957
0.917474
1
1
1.23639
1.1293
0.966013
0.960748
1.11331
1.03499
1.00866
1.07352
0.942554
1
1
1.00401
1.32231
0.914452
0.77482
1
0.774829
0.923664
0.786322
1.24061
0.787611
1.07688
1.07326
1.03212
0.877833
1.10728
1.03673
0.973435
1
0.892947
1.35888
0.999999
1
1.20836
1.35842
0.764797
1.0773
0.995178
0.994867
1.02355
1.12136
1.06658
1.33979
1.34762
0.760555
1.06587
1
1.00854
1.22898
1.3623
1.359
1.06525
1.3366
1.00072
0.933385
1
1.35775
0.81926
1
1.11417
0.769334
1.07476
1.06134
0.962309
1.06846
0.992379
1.29609
1.3466
0.944075
0.966699
1.36011
1.28713
1.03639
1.03672
0.723917
1
1.03765
0.787346
0.830289
0.94669
1.33421
0.768246
0.999957
0.963978
1.33461
0.995156
1.14392
0.958061
1.33532
0.990731
0.999998
1.03458
1.14844
0.712798
0.959172
1.18711
1.03518
1.13973
1.05254
1
1.19232
1.13553
1.14133
1.33308
1
1.33361
0.983036
1.26764
1.19915
1.37188
0.948144
1.11791
1
1
0.737186
0.94139
0.932603
1.18525
0.870928
1.18141
0.904569
1.24685
0.998307
1
1
1.00252
0.99304
0.889234
1.02949
1.1587
1.19561
1
1.01804
1.18757
1.18719
1.18716
1.02387
1.1072
1.30192
1
1
0.923929
0.966225
1.01453
1
1.04425
0.986053
1
1
1
0.915548
1.06859
0.879842
1.36873
1
1
0.999887
1
1
1.08769
1
0.847359
0.767117
1
1.34691
0.986489
1
1
1
0.9525
0.769508
0.844157
0.832586
1
0.881516
0.810267
0.738023
1.36185
1
1
0.983801
0.94683
1.04374
1.18538
1.29186
1.1041
1.00315
1.19027
0.78766
0.999821
0.91902
1
1.14246
0.870702
0.873122
0.864703
1.1931
1.34986
1.11524
0.90064
1.23192
0.954882
1
0.855509
0.767424
1.10842
1.17773
0.989839
1.04833
1.17957
1.18196
0.793481
1
0.950006
1.09553
0.906884
1.06263
1
0.908959
1.08816
0.937923
1
1.02487
1.08352
1
1.11885
1.00001
0.771229
0.795093
0.817695
0.997761
0.755206
1.12761
1
1.1329
0.942086
1.05515
0.936552
0.740106
1.26974
0.939064
0.764143
0.962666
1.35889
1.02003
0.999343
1.13558
0.989724
1.36098
1
0.730158
1.0169
0.757976
1
1.1185
1.17231
0.76252
0.762941
0.834048
1
1.06086
1.34536
1.06911
1.35931
1.22561
1.06779
1.34875
1.36143
1.0563
0.786493
1.22495
1.07193
0.753527
0.987777
1.35975
0.957411
1.23567
1.34873
1
1
1.36199
0.939848
0.95378
0.830274
0.832958
1
1.22238
1
1.06866
1
0.972174
1
1.40857
1.04771
1.2811
0.793585
1
1
1
1
1.00751
1.23881
1
1.31044
0.751092
1
1.02353
1.33972
1.02748
1
1.11589
1
0.958032
1
0.847773
1.35896
1.36049
1.15661
1.12986
1
0.959095
0.954123
0.999998
1
1.07879
0.986656
1
0.917284
1.3493
1.01713
0.97735
0.925255
1.33841
1.32928
0.978737
1
0.958341
1.15201
1
1.02941
1.36224
1.3395
0.962025
1.08059
1.19728
1.36363
0.988536
1.07196
0.838529
1.1921
1.03401
1.0684
0.999999
1.10312
1.35859
1
1.0995
1.00115
1.03756
1.05402
0.907729
1.31594
1.24353
1.29684
0.780706
1.15236
0.910602
1.30806
1.08193
1.03777
1.24874
1.30347
1
1
1.26389
0.949116
1
0.866128
1.07694
1.05008
0.885718
1
0.888614
1
1
1
1.18428
0.81934
1
1.07071
0.947111
0.855396
0.882184
1.38815
0.857467
1.20536
0.999991
1.03295
1.11081
1
0.980102
1
0.93575
0.978186
0.970982
1.44875
0.832524
0.73398
0.895613
0.808427
1.07062
0.879482
0.808754
0.805096
0.976536
0.8044
0.843098
1.34656
0.846323
0.950453
0.870342
1
0.823108
1.35409
0.97362
1.22549
1.34683
1.07277
1.06728
1.34626
0.873145
0.916403
0.871334
1
1.1162
1.00001
1.07296
0.940839
1.06832
1.07007
0.772867
0.739203
1.07411
1.35795
0.909415
1
1.08303
1.2681
1.34987
1.03115
1
0.901449
1.3577
0.899959
1.01688
0.997125
1.03846
1
1.35103
0.900319
1.25218
1.05299
0.932101
1.35136
1
1.35223
1
0.906264
0.795382
1
0.92004
0.920907
1
1.32188
1.08236
1.28174
1.22538
1.00137
1.00001
1.04354
1.01225
0.999999
0.778038
0.924885
1.04702
0.978566
1.34992
1.27357
1.36051
1.02997
1.0149
1.00044
1
1.16333
0.85178
0.912517
1.00581
1.32232
0.965869
0.852303
0.968103
0.992097
0.8802
1
1
1.32537
0.780459
0.975983
1.00003
1
0.978017
0.942148
1.02396
1.29418
1.33675
0.965694
1
1.19821
1.14257
0.793964
1.00002
0.976629
1.04089
1.0002
0.968697
1.61229
0.93228
1.19699
0.958469
0.767591
0.968393
1.2033
1.32806
1
1.35752
0.882761
0.95077
1.11805
1.35017
1.39558
1.03287
1
1.32685
1
1
1
1.10525
1
1.01565
1.16314
0.948061
1.18967
0.760844
1.16589
0.953012
1.06112
1
0.943418
0.796402
1
0.80432
1.03389
1
1
1
0.886354
1.32796
0.749494
1.26892
0.788716
0.872041
1.33803
1
0.901265
1
1.26313
1.03613
1.12153
1.34592
0.873374
1.35015
0.995041
1.12407
0.937153
1
1.35039
1
1.17274
1
1
1
0.956655
1.35836
1
1
1.16681
1.08755
0.952792
0.935452
0.939799
1.4154
0.932212
0.955691
1
0.942743
1
1.03387
1.34809
1.0372
0.801638
0.767349
1.06053
1.01455
0.758148
0.835752
0.77471
1.36042
1.36084
0.828075
1.0143
1
0.826543
1.3604
1.61432
0.701207
1.21606
1.00773
1
1.11831
1.00166
1.05868
0.851013
0.873825
0.832194
1.01065
1
1.12505
1
1.35962
1
0.849271
1.24311
1
1.34443
1.07299
1.00747
1.34499
0.969125
1.36243
1
0.986135
0.998961
0.950515
0.913256
0.991212
0.991976
1.36012
1.36012
1.04386
0.861613
1.01725
1.02958
0.856718
1.35929
1
1
0.799236
1
1.35104
0.863531
0.89923
0.86012
1
1
0.79966
0.921169
0.796195
1.0195
1.05439
0.830049
1.0465
0.900957
1.35999
0.872164
1
0.856618
1.02198
1.32356
0.848991
1.0848
1.3589
0.979245
1.03001
0.851311
0.880984
0.731491
0.754089
1.35835
1.04814
0.823238
1.11801
1.35747
1.36121
1
1.36187
0.881803
0.751255
0.800057
0.943684
0.92085
0.922912
1.19156
1.0477
0.92178
1.36317
1.09706
1.34479
0.779754
1.34275
1.2303
0.887586
1.06904
1.08098
0.769549
0.941422
1.2877
0.781744
1
0.763423
0.95903
0.956958
0.885734
1.22667
1.07134
1.07996
1.35971
1.02219
0.738256
0.738148
0.763641
0.965816
1.36111
1
1.07812
0.776887
0.772473
1
0.866245
0.751888
0.744751
0.745126
1.14516
0.832948
1.16068
1.00009
0.750987
0.750078
1.3473
0.791594
1.1201
0.746382
1.36247
0.757353
0.757894
1.36046
0.995594
0.993243
0.886
0.800585
1.36113
1.08847
0.8028
1.26209
1.35907
1
1
0.762565
0.762166
0.753854
1.36222
0.724752
0.754863
1.59175
1.08425
1.09857
1.26464
1.22032
0.967235
1.3612
1.02346
1.02073
0.764318
0.998732
0.873058
1.12082
0.978054
1.01535
0.89816
0.902436
1.01746
1
0.999998
1
1
0.901077
0.865288
1.09477
1.28551
1
1.06077
1
1.34796
1
0.785871
0.786481
0.898926
1
1.34896
1.32951
0.996864
0.980196
0.889268
0.84871
0.842995
0.879994
0.946904
1.04074
1
1
0.941511
0.969783
0.88408
1
0.987207
0.949178
1.55088
0.944899
0.812342
1.05101
1.0083
1
0.945193
0.766415
0.986129
1.04191
1.187
0.96326
1.18931
0.935536
1.0001
1.04902
0.794372
0.965947
0.96941
1
0.789411
1
1
0.970637
0.965338
1.00001
1.06882
1
0.765089
0.827544
0.785229
1.11527
1
1
1
1.11341
1.03627
0.72975
0.814023
1
0.893358
1.07561
0.882338
0.739382
1.28019
1.08804
0.851379
1.09395
0.737411
0.805499
0.998511
0.927714
1.06635
0.762883
1.03207
0.899472
0.838277
1.26625
0.887729
1.34739
0.788446
1.22051
0.760525
1.00369
1
0.789973
1.34784
1
1.18083
1
0.837863
0.838512
0.968376
1.33007
1
0.961006
1.16381
1.00777
1
0.724875
0.926317
0.815694
0.934059
0.932765
1
1
0.950132
1.00771
0.954704
0.804819
0.74201
1.25067
1.02683
1
1
1.05403
0.803039
1.25301
0.810569
0.866726
0.86374
1.32522
1
1.17379
1.24797
1.01273
0.869004
0.950925
1
1.03659
1
1.12443
0.724567
1
0.874522
1.24944
1.34695
1
1.35172
1.18419
1.2446
1.06641
1.35123
0.999993
1.24865
1.34352
0.991931
1.26174
0.999999
0.819932
0.767631
0.990899
1.16703
1.23646
1
0.896106
1
1
1
1.33749
1
0.899694
0.898383
1.00721
1.03672
1.22385
1.04855
0.819287
1.0663
1
1.1118
1.33934
1.33695
0.922073
1.09766
0.901999
1.27291
0.818801
1.34963
0.789158
1.04568
1.24613
1.34886
1.06938
0.999999
1.01595
1.34691
1.04904
0.912206
1.03093
1.01698
1.05247
1
1.19153
1.3312
0.925041
0.921599
1
1
1.41544
1
1.00009
0.942169
1.05737
1
1
1.12222
1.02065
0.931753
1
1.17514
1
1.0716
1.06897
1
1.07219
1.0685
1.15877
0.937915
1.00005
1.3228
1.17027
1
1
0.78055
0.9984
0.785047
1
1.15518
0.791362
1.03516
0.998692
0.991788
1.10234
0.989052
1.13086
1.21111
1.20947
1.05695
0.904372
1.19153
1.22074
1.34522
0.933903
0.807256
1.00164
1.09774
0.997826
0.808077
0.72381
0.974439
1.26014
1.0002
1.34988
0.811592
1.19029
0.991128
0.811895
1
0.987616
1.13389
1.28649
1
1.26968
0.733185
0.998441
1.05827
1
1.12889
0.997627
1.16898
1.04462
1.19403
1
1.15216
1.03444
1
1.15522
0.970999
1.20888
0.999956
0.9364
1
1.02508
1.21012
0.844139
0.868124
1
0.987694
0.966345
1.32664
0.867326
0.776649
1.1721
1.59897
1.17439
1.33656
1.18021
1
1.00001
0.985618
1.28758
1.082
1.02837
0.99088
0.988828
0.954286
1.21078
1.34793
1.33395
1.04014
1.00045
0.789203
1.00005
1.34709
1.30114
0.787982
1.00169
1.1818
0.900061
0.97244
1.04849
0.938969
0.996791
1.04319
0.82179
1
0.879786
1.3377
1.07484
1.08561
1.34005
1.17287
1.29001
1.07646
0.988664
1.13127
0.972668
1.22238
1.09134
1.04519
1.02501
1.34741
0.836243
1.09557
0.841285
0.913627
1.21131
0.961281
0.77061
1.10828
0.902763
1.21841
0.999956
0.82462
0.916204
0.834569
0.822887
0.914056
0.785883
1
1.11575
1
1.2828
1
0.789822
1.2154
0.977189
1
0.904044
0.877285
0.845455
0.866248
0.904294
1.11838
1.35519
0.821153
0.994653
1.30614
1.04258
1
1
1.21562
0.875063
1.00002
0.863593
0.95451
1
1
0.979816
1.16779
1.2181
1.08631
1.16003
1.01542
1.13112
0.744095
1.07455
0.744126
1.34482
1.08251
0.919692
1.00264
1.08108
0.999999
1.08977
0.773966
1
1
1.17616
1.00001
1.0786
1.13539
0.750279
1
0.749823
1
1
1
0.999998
0.891619
1
0.758724
0.766725
1.11227
0.760729
1
0.908695
1.34447
1.01703
1.31396
0.962981
1.12652
1.34499
1.00001
0.802419
1
1.21369
0.905173
1.08093
1.01791
1
1
1.06202
1
1.31338
1
1.34537
1.34156
0.955905
1
1
1
0.738068
1.28711
1.26226
1.33455
1
1.18082
1.04721
1.04297
1.03859
0.890808
0.781851
1
0.845066
1.15582
1.34419
0.952982
1.16943
1.08358
0.991263
1.0168
1.35394
1
0.997006
0.948561
1.34418
1.0019
1.17101
0.983092
1.24307
1
0.999505
0.994642
1.32891
1.25087
1
1
1.0269
1
0.886507
1
1
0.946723
0.864401
0.918143
1.35065
1.06622
1.32913
1.25873
0.73728
1
0.887797
1
1
1.01336
1.3325
1
1.22303
1.01684
1.07054
1.2704
0.999906
1
1
0.752854
1.23912
1.15912
1
0.954604
0.859879
1.26514
1.11297
1.16619
1
1.34988
1.06362
1
0.997711
0.992383
1.22483
1
1.34943
0.909737
1
1.07101
1
0.941305
1.34498
0.933636
0.910779
1.28292
1.35023
0.761628
1.15809
1.2722
0.998746
1
0.981798
1
0.87675
0.97706
0.996388
0.722339
1.31827
0.908349
1.0691
1
0.772444
0.760116
1
1.00002
1.03189
1.22801
1
1
1.23298
1
1
1
0.879552
0.960779
1.02886
1
1.18342
1
1.00003
0.945668
1.23521
0.999944
0.995429
1
1
1.00001
1.10058
0.856262
1.08725
1.11968
1.09986
1
0.973343
1
1
1.17515
1.11259
1.05244
1
1.30982
1
0.951534
1.00021
1.31668
1
1.33564
1.23144
1.10662
1
1
1
0.978762
1.03139
1
1.33877
1.23333
0.984356
0.974915
1.19748
1
1
0.99972
0.963078
1.02254
1
1.34884
1
1
1
1.2133
0.999999
1.24067
1.33395
1.17515
1.22622
1
1.039
0.851555
0.73105
1.07675
0.83529
1.16971
1.20949
1.08177
1.34979
1.27943
1.21356
1
1.2936
0.902292
0.902286
1.2244
1
1.33794
1.21683
1
1.13979
1.21063
1
0.841019
0.881
0.841627
0.877804
1
0.999729
1
1
1.00003
1.26354
0.723883
0.890935
1.03896
1.25523
1.17901
0.789174
1.0484
0.717937
1
1.25067
1
1.07137
1.02284
1.073
1
1
1
1
0.998406
1.2406
1
0.86701
1
1
1
1.33695
1.25314
1.33057
0.716484
1.22752
1
1.32889
0.768436
1.03977
1.34905
0.935913
1.15024
1.24234
1.06593
1
0.758515
1.15793
0.725321
0.820501
1.25968
1
1.2343
0.939235
1.32557
1.00005
1.17882
1.2401
1.1705
1.37187
1.34936
0.744833
1.20524
1
0.726694
1
1
0.924383
1.10362
1.24059
0.76955
1
1.23105
1.25224
1
1
1.1262
1.20178
1.15247
0.999903
0.989585
1.28425
1.34946
1
1.15995
1.11221
1
1.37994
0.994979
1
1.0173
0.722891
1.00141
1.11737
0.946147
1.03183
1
1.00713
1.3499
1
1.01255
1
0.821713
1.34906
0.757926
1
1.03466
0.904169
1.02821
1.32295
0.998725
1
0.725708
1
1.34983
1.01736
1.00841
0.973503
1.20787
1.02435
1.03584
1
1
1.16959
1
1.34187
0.994153
0.75179
1.11403
1
0.724497
1
1.15538
0.739065
1.20247
1.11245
0.760512
1.34941
1.28854
1
1
1.25892
1.26023
1
1.19621
1.33191
1.0695
0.765855
1
1
1
0.987666
0.879321
0.821725
1.16556
0.928291
0.905
1.05191
0.928972
1
1
1
0.906223
0.970087
0.993471
1.34605
0.993374
0.986004
0.928777
1
1.22986
1.04555
1
1
1
1
1.04246
1.1214
1.01103
1.30697
1.02029
1.14925
0.942466
0.987624
1
1
1
1.34328
1.03284
1
1.17949
1
1.27782
0.947818
1.34504
1.3492
1.17902
1.29159
1
1.35092
1.34939
1.31185
1
1.30406
1
1
0.690524
1.32955
1
1
1.1117
1.24736
0.918592
0.962282
1.33635
0.978697
1
1
1
1.29761
1
0.917137
0.854337
1.2315
1.28095
1.15505
1.34559
1.26204
1.27819
1
1
0.953174
1.34413
1
1.14246
0.820329
1.27091
1.34816
1.28754
1.25267
0.992033
1.12423
1.14034
1.09997
1.12514
1.36372
0.969984
0.955818
1.34967
1.3492
1.0565
0.987893
1
1
1.34271
1.29271
0.987465
1.10668
1.35263
1.09433
1.2818
1.00001
1.1372
1.34862
1.34905
1
1.21595
1.2215
1.25027
1.11818
1.34884
1.00008
1.34903
1.00001
1.3495
0.982864
0.89071
0.872346
1.34514
1
1.23911
1.27208
1.39372
1.03772
1
1.35024
0.949567
0.746717
0.716617
1
0.956543
1.09062
1.34704
1.25319
1.15513
1.11223
1.34958
1
0.912201
0.712896
0.979251
1.15019
1
0.995143
1.22321
1
1.34901
1.13125
1.30067
1.21427
1.22182
0.843307
0.999996
0.889149
1
1.16781
1.34744
0.965123
1.0345
1.16375
0.897081
1.15048
1.08182
0.808722
1
0.969197
1
1.10837
0.869333
0.983467
1.22547
1.16276
1
1.16201
1.21695
1.2225
1
1
0.947924
1.12048
1.35125
1
1
1.12823
1
0.830388
1.14286
0.997706
1
0.923372
1
0.80941
1.16247
1.35152
1.24002
0.839859
1
1.12151
1.20042
1.17761
0.828624
1
1.10218
1.34468
1
1.20382
0.967215
0.97273
0.827416
0.942203
1.17418
1.34971
1.14271
1
1
1.00002
0.826499
1
1.20201
0.994208
1
1
1
1.00006
1.34751
1.06428
0.730317
1.34209
0.773505
1.64987
0.981162
0.950714
0.953992
1.07075
1.18162
1
0.95771
1.34914
0.955033
0.723383
1.34172
1.29297
1
1.16785
1.035
1.33644
1
1.25677
1.25471
1.2128
0.957765
1.18193
0.787639
1.18733
1.34988
1.20864
1.1604
1.04797
1.34468
1.01974
1.35147
1
0.992991
1.11253
1
1
1
0.930819
1
1
1.16287
1
1
1.34409
1
0.955963
1.34497
1
1
0.998435
1
1.19211
1.34755
1.20649
0.95061
1.34974
1.22861
0.94976
1
1
0.918869
1.2016
1
0.978967
1.07954
1.16237
0.767373
0.954165
0.777915
0.876925
1
0.864045
1.34964
1.34491
0.950607
0.821761
1.35
1
1
0.920139
1
1.14648
1
1.34853
1.23685
1.23326
1
1
0.945849
1.38575
0.946279
1.34807
1.00033
1.18115
0.838652
1
1.14452
1
1.14303
1
1.02094
0.947869
1
1
1
1.30337
1.10244
1
1
0.773787
1
1.36467
0.758947
1
1.06824
0.858505
0.965949
0.999999
1
1.34414
0.735281
1.24355
1
0.933565
0.72666
0.930391
1.3487
0.821925
1.34876
1
1.04909
1
1
1.03446
1.34631
1.18579
1.34844
0.788265
1
1
0.743705
0.999999
1
1.35055
0.781859
0.766779
1.10229
1
1.00063
1
1.33089
1.2469
1
1
1.10634
1
0.943438
0.73734
0.953047
0.745678
1.22562
1.32816
0.879479
1.34483
0.873295
1
0.999912
1
0.732225
1.34659
0.761766
1
1
1.34634
1.11028
1.01782
1
0.735642
1.13345
1.04733
1.00196
1.33901
1.32959
1
1.19014
1.09959
0.957448
1.07066
1.12435
1
1
1.00132
1.08761
0.923521
1.34592
1.3393
0.940634
1.03204
0.988063
1.35007
1.12422
0.940971
1.10282
1
1.00033
1
0.999998
0.880799
0.750161
1.23115
1.23733
1
0.847816
1.10883
1.20296
1.18285
1.20652
1
1.11056
0.71768
1
1
0.923476
1.34855
0.717727
1
1
1
1
0.992832
0.859224
1.16556
1.26345
0.932455
1
0.999999
1.34898
1.34614
1.0918
0.878085
1.20491
1
1.19291
1
1
1.00008
1
0.900271
1.15704
1
0.829216
1
1.34069
1.10334
1.19181
1.00076
1.00007
1
0.736252
1.04879
1
0.926765
1.34657
1
1.20932
1.24399
1.25196
1
1.15536
1
1.00003
1.20525
1.21483
0.997778
1.24607
1
0.78936
0.999012
1.3413
0.90469
1
1.33999
1.03778
1
0.746047
1.37256
0.971296
0.879352
0.922445
1
1.07058
1
1
1
1.34704
1.21591
1
0.99966
1.06846
1.21798
0.914061
1
0.730634
1.34951
1
1.01266
0.718054
1.28242
1
1.25722
1.09249
1
1
1
1
1.18387
1.15573
0.721824
0.999823
1.21444
1.00514
1.34773
1.36518
1
1
1
0.973684
1
1.18706
1.2611
1.29204
1.27402
0.754366
0.83009
1.10506
0.917426
0.748566
1
1.30001
1.55183
1.34623
1
1
1.23519
1.34499
1.04517
1.37386
0.913097
1.2915
0.736417
0.763823
0.731963
0.956127
0.937461
1
1
1
0.902556
0.995948
1
1.12879
0.98832
0.966604
1.34678
1
1.31814
0.955857
1.29107
1
1
0.822493
1.14372
0.93254
1
1.34954
1.30918
0.920611
1.34837
1.19784
1.33795
1.39626
1.34769
1
1
1
1
0.787583
1
1.1617
1.02051
0.736414
1.35003
0.890982
1.05465
1.33966
0.86913
0.941322
1
1.02003
1
0.868123
1.34936
1.16943
1.32719
0.724207
1
1
1
0.722168
1.21633
1
1
1
1
0.908008
1
1
0.750776
1
1
1
1
0.853743
1
1.25616
1.24049
1.04384
1
1
1
0.979424
1.18113
1
1
1.22228
1.09449
1
0.745598
0.735147
1
1
1
0.854196
1.24266
1.04796
1.01536
1
1
1
1.24051
0.982586
1.2399
1.34956
1.34905
1
1
1.1962
1
1.07507
1.35235
1.0029
1.35054
1.3298
1.06513
1.35163
1.28047
1
0.753411
0.809492
1
0.985496
1
1.28104
0.864771
1
0.717486
0.730966
1
1
1
1.00075
1.00703
1.34766
1
1
1
0.976105
1
0.858867
1
1
0.73214
1
1
1
1.20897
1.22132
1
0.727599
1.22927
0.749078
1
1.35214
0.757555
1.30434
1.01993
1.2599
1.21854
1.02768
0.716697
0.99681
0.754808
1.19372
1.26101
1.33385
0.758193
0.750112
1
1
1
1.02966
1.3409
1
1
0.945106
1.25736
1.03765
1.14331
1.21001
1.14778
1.30122
1
0.771428
1.34996
0.876004
1.12206
0.93114
1.32993
0.987187
1.35462
1.30661
1
1.35252
1
1.34622
0.89491
0.938133
0.941196
0.9148
1
1.3489
1
1
1
0.996179
1
1.3494
1
0.861767
1
0.843428
1
0.850452
1
1.1814
1
1
1
1.00004
1.28736
1
0.958943
1.34717
1.35403
1
0.737703
1
1
1.24236
1.34791
1.21473
0.75791
0.735537
1
1.18406
1
1.24813
0.725269
1.34345
0.761047
1.17132
1.10566
1.17382
1.34593
1.12869
1.00025
0.988703
1.11199
1.01721
0.732009
0.955285
1
1
1.26899
0.971514
1
1.36272
0.734855
1
1
1
0.736478
1.3767
1.3503
0.99666
1
1.34419
1.22574
0.997932
1.35178
0.992849
1.0054
0.85059
1.0413
1
1.13778
0.804977
0.81689
0.993411
1
1
1.00004
1.34854
1
1.34426
0.864267
0.943935
0.759496
1.09551
1.02003
0.746808
0.985492
1
1.05415
0.848748
1.2738
0.856733
1
1.34869
1.11226
1.24471
1.23027
1.03042
0.717431
1.35584
1
1
0.852313
1.0722
1.07965
1.1463
1
1
0.998099
0.756795
1.21689
1
1.3488
1.07956
1.34488
1
1.32076
1
1
0.740903
1
1
1.34919
1
1
1
1.11121
1
0.986821
1.30839
0.970236
1.33105
0.95504
1.30288
1.34949
1.3513
1.27171
1.02295
0.990162
1.10324
1.10812
1
1.10754
1.02518
1.34359
1.34901
1.01343
0.851341
1.14626
0.76049
0.984081
1.34933
1
0.736115
1.08628
0.801591
1
1
1
0.739924
1.12073
0.963007
1
1.213
1.11248
1.31634
1
0.957872
1.22416
1.34871
0.864034
0.96906
1.24876
1.11212
1.1089
1.3499
0.885987
1.2023
0.763479
1.11132
1
1
1.34966
1
0.948196
1
1
1.34462
1.34645
0.892398
1
1
1.23227
1.01157
0.929631
1
1.02837
1.2996
1
1.02974
1.00458
0.959351
1.11513
1.25394
1
1
1
1.02294
1.34714
1.3435
0.921058
1.22595
1.26977
1.28463
0.94362
0.733274
1
0.968293
0.879006
0.954857
0.752654
1.31515
1.28919
1
1.1926
1.20162
0.851573
1.3448
0.887192
1.34736
1.17602
0.728833
1
1.3488
0.742313
1.17846
1.37019
0.849947
1
1.32621
0.957947
0.795676
1
1
1.3541
1.02495
0.855477
1.34417
1.24064
1.2525
0.949155
1.11854
0.808982
1.17854
1
0.864401
1.34974
1
1
0.897798
1.28764
1.32885
1
0.731905
0.795312
0.879675
1
1.3444
1
1
1.11444
0.830217
1.07736
0.808214
1.25838
1
1
1
1
1
1.00034
1
1.01878
1
1.10378
0.734428
0.730357
1.03826
1.07299
0.748239
1.10127
0.795871
0.793469
1
1
0.794051
1.03331
1.23574
1
1.34901
0.840019
0.738066
0.788836
1
1
1.04186
1.12171
1.27128
0.771382
0.852217
0.789742
1
1.33616
0.747271
1
1.34335
1.17954
1
1
1.28172
1
1.33707
1
0.756244
1
1
1.07429
0.993815
1
0.99545
1.34715
1
1
1.04806
1
1
1.28222
0.969146
1.3096
1
1.04495
1.01065
1.34903
1.34936
1
1.34834
1.33198
1.16238
1
1
0.847525
1.26556
0.74121
0.995825
0.764212
1.0634
1.34927
0.992252
0.740714
0.983464
1
1
1.03197