/*--------------------------------*- C++ -*----------------------------------*\
  =========                 |
  \\      /  F ield         | OpenFOAM: The Open Source CFD Toolbox
   \\    /   O peration     | Website:  https://openfoam.org
    \\  /    A nd           | Version:  12
     \\/     M anipulation  |
\*---------------------------------------------------------------------------*/
FoamFile
{
    format      ascii;
    class       volScalarField;
    location    "29.5";
    object      rho;
}
// * * * * * * * * * * * * * * * * * * * * * * * * * * * * * * * * * * * * * //

dimensions      [1 -3 0 0 0 0 0];

internalField   nonuniform List<scalar> 
9801
(
1.16769
1.19742
1.19614
1.18885
1.17486
1.16811
1.17176
1.17707
1.18376
1.19153
1.20034
1.21669
1.26801
1.31197
1.3199
1.31786
1.30393
1.25246
1.19092
1.17671
1.18434
1.20264
1.23515
1.28334
1.33939
1.38354
1.40757
1.41328
1.41258
1.39834
1.3585
1.32108
1.31606
1.32274
1.3313
1.33805
1.34481
1.3526
1.36301
1.38492
1.4306
1.47299
1.49224
1.50171
1.50795
1.49808
1.44641
1.40896
1.40541
1.4106
1.41868
1.43524
1.47919
1.53418
1.56048
1.57087
1.57715
1.58054
1.57365
1.55668
1.55161
1.55546
1.5623
1.57018
1.58355
1.61589
1.64435
1.65739
1.66642
1.67515
1.68111
1.68661
1.69058
1.69477
1.70522
1.72088
1.76632
1.82755
1.85766
1.87216
1.88067
1.87902
1.86454
1.84637
1.84502
1.86531
1.89585
1.94385
2.05958
2.18168
2.24679
2.28588
2.32193
2.33783
2.31607
2.29239
2.22878
4.95853
26.9246
1.1559
1.16554
1.18611
1.20072
1.20511
1.20379
1.19608
1.19097
1.19327
1.19786
1.20357
1.21564
1.25025
1.2896
1.31051
1.31714
1.30805
1.27757
1.24711
1.2233
1.21517
1.22053
1.23555
1.25926
1.30198
1.36002
1.39297
1.40681
1.41227
1.41063
1.40094
1.37458
1.34014
1.32394
1.3243
1.33053
1.3383
1.34599
1.35429
1.37559
1.43022
1.47292
1.49131
1.50192
1.50941
1.50092
1.46082
1.4337
1.42696
1.42805
1.43244
1.44101
1.4712
1.52214
1.55396
1.56738
1.5762
1.58148
1.57989
1.56976
1.56136
1.5602
1.56566
1.57357
1.58485
1.61188
1.64075
1.66224
1.67891
1.69001
1.69634
1.68683
1.67996
1.68893
1.70139
1.7165
1.74894
1.80147
1.83543
1.8555
1.87233
1.89025
1.88161
1.84781
1.84008
1.85938
1.88885
1.92954
2.00773
2.10216
2.16708
2.21315
2.25866
2.2815
2.26441
2.23585
2.12759
4.56476
26.8376
1.15173
1.15409
1.16857
1.18867
1.1995
1.20444
1.20152
1.19782
1.19896
1.20271
1.20806
1.22305
1.24505
1.2633
1.27489
1.27578
1.26568
1.25841
1.25663
1.25954
1.26192
1.26427
1.26595
1.26912
1.27883
1.31209
1.35015
1.36902
1.37863
1.38655
1.39266
1.39448
1.37616
1.34365
1.32826
1.32916
1.33359
1.33958
1.34676
1.36517
1.41922
1.46403
1.48177
1.49127
1.49653
1.48543
1.45293
1.43405
1.43132
1.43409
1.43901
1.44705
1.47043
1.50892
1.53784
1.5546
1.56597
1.57463
1.58028
1.57479
1.56153
1.55663
1.55649
1.56044
1.56806
1.59187
1.62852
1.65614
1.67519
1.68889
1.69804
1.68671
1.66539
1.6612
1.66788
1.68002
1.70456
1.75848
1.80448
1.83254
1.85198
1.86805
1.86553
1.83605
1.81925
1.82568
1.84597
1.87352
1.91437
1.99593
2.07843
2.13639
2.18469
2.22172
2.2155
2.19413
2.09196
4.24064
26.2823
1.15195
1.15234
1.15782
1.17066
1.18711
1.19702
1.2016
1.20081
1.20216
1.20584
1.21025
1.2162
1.22219
1.22565
1.22956
1.236
1.24594
1.26128
1.28031
1.29215
1.29809
1.29745
1.28858
1.27237
1.26181
1.26323
1.28436
1.32219
1.35476
1.37755
1.39013
1.3966
1.38894
1.36057
1.33487
1.32463
1.32615
1.33058
1.33701
1.35648
1.40472
1.44347
1.46125
1.47073
1.47616
1.46721
1.44393
1.431
1.42862
1.43103
1.43536
1.44083
1.4554
1.48912
1.51913
1.53993
1.55599
1.56854
1.57846
1.5711
1.54607
1.53086
1.52991
1.53549
1.54372
1.56627
1.61012
1.64323
1.66116
1.67306
1.68253
1.67264
1.63818
1.61944
1.62194
1.63443
1.65852
1.70995
1.75892
1.78624
1.80385
1.81983
1.83326
1.82231
1.79706
1.77903
1.77824
1.79467
1.82179
1.87224
1.94681
2.00955
2.06181
2.11113
2.12609
2.12834
2.05349
4.07352
25.7049
1.16674
1.16551
1.16039
1.15928
1.16429
1.17296
1.18318
1.18972
1.19302
1.19514
1.19639
1.19598
1.19465
1.19574
1.20051
1.21697
1.24717
1.27649
1.28917
1.29632
1.29805
1.29154
1.27218
1.25041
1.24286
1.24312
1.25137
1.28861
1.33393
1.36035
1.37363
1.38089
1.38093
1.35353
1.32366
1.31566
1.3176
1.32204
1.32974
1.35383
1.3926
1.41926
1.43396
1.44256
1.44567
1.43442
1.41745
1.41034
1.41013
1.41319
1.41804
1.42439
1.44174
1.47764
1.50687
1.52513
1.5384
1.54877
1.55571
1.54435
1.51211
1.49602
1.49701
1.50408
1.51329
1.53601
1.58366
1.62053
1.63971
1.65246
1.66338
1.65995
1.61841
1.58581
1.58336
1.59425
1.61228
1.65211
1.70408
1.73873
1.76154
1.78239
1.8018
1.81024
1.78757
1.75538
1.73133
1.7297
1.74971
1.78046
1.8409
1.9121
1.9728
2.02607
2.05932
2.07915
2.02272
4.0009
25.2742
1.18403
1.19057
1.17802
1.1579
1.14383
1.13947
1.14483
1.15927
1.17237
1.1785
1.17986
1.17695
1.17612
1.17906
1.18901
1.21901
1.25716
1.27544
1.28505
1.2917
1.28995
1.26284
1.23463
1.22518
1.22605
1.22953
1.23859
1.27171
1.30979
1.33268
1.34545
1.35345
1.35585
1.33562
1.31245
1.3067
1.30907
1.31426
1.32629
1.35282
1.37835
1.39327
1.40268
1.40806
1.40832
1.39863
1.3886
1.38741
1.39052
1.39509
1.40148
1.41283
1.43849
1.47336
1.49514
1.50674
1.51489
1.51926
1.51923
1.50537
1.47917
1.46699
1.4699
1.47768
1.48785
1.51389
1.56633
1.60548
1.62496
1.6372
1.64687
1.64328
1.60049
1.55939
1.55031
1.55938
1.57409
1.60049
1.64986
1.70179
1.73817
1.76395
1.78334
1.7969
1.78584
1.7486
1.71917
1.70595
1.70953
1.73164
1.77184
1.83686
1.89955
1.94779
1.98398
2.01787
2.01601
4.01011
25.0521
1.18679
1.19935
1.19859
1.17223
1.13528
1.12383
1.12352
1.12718
1.13823
1.15026
1.15701
1.16086
1.16491
1.17394
1.20055
1.23523
1.25573
1.26682
1.27362
1.27647
1.25328
1.22038
1.20996
1.21167
1.21574
1.22158
1.23646
1.26699
1.2935
1.30799
1.31692
1.32272
1.3203
1.30915
1.30223
1.30227
1.30596
1.31343
1.32925
1.34924
1.36269
1.36973
1.37348
1.37615
1.3772
1.37282
1.36784
1.37088
1.37744
1.38525
1.39458
1.41027
1.43726
1.46421
1.47835
1.48593
1.48728
1.48601
1.48618
1.47803
1.45433
1.44193
1.44602
1.45508
1.46676
1.49628
1.55562
1.59986
1.61998
1.63121
1.63759
1.62609
1.5863
1.54897
1.53191
1.53235
1.5446
1.56225
1.59517
1.6588
1.72201
1.75731
1.77519
1.78897
1.79178
1.76417
1.72525
1.7007
1.69469
1.70848
1.73564
1.78453
1.84688
1.89395
1.92367
1.95616
1.9841
4.06507
24.9943
1.18527
1.19867
1.19063
1.17127
1.14167
1.12422
1.12091
1.12002
1.11769
1.11977
1.12821
1.14023
1.1534
1.17858
1.22293
1.2505
1.25932
1.26352
1.26519
1.24555
1.21207
1.19695
1.19638
1.20035
1.20609
1.21631
1.2363
1.26227
1.2798
1.28821
1.29282
1.29367
1.29106
1.28996
1.29129
1.29666
1.30637
1.32002
1.33011
1.33934
1.34533
1.34786
1.34985
1.3535
1.3582
1.36143
1.36089
1.36418
1.3719
1.38548
1.40437
1.41743
1.43162
1.44644
1.4555
1.45985
1.46081
1.46369
1.46895
1.46854
1.44544
1.42547
1.42594
1.43566
1.4493
1.48138
1.54918
1.60055
1.61951
1.62945
1.62993
1.61209
1.58047
1.54802
1.52857
1.52266
1.52631
1.53932
1.56083
1.60536
1.68081
1.73905
1.76579
1.78138
1.79381
1.78858
1.75097
1.71234
1.69667
1.69803
1.7168
1.74838
1.80294
1.85484
1.88476
1.90986
1.93848
4.10378
24.9829
1.15983
1.17764
1.17553
1.17189
1.16329
1.14534
1.13043
1.11936
1.10985
1.10743
1.11066
1.11799
1.13456
1.17942
1.23237
1.25428
1.26141
1.26462
1.25004
1.2186
1.19963
1.19357
1.19462
1.1987
1.20468
1.21309
1.22623
1.24525
1.26021
1.26865
1.27283
1.27554
1.28216
1.28861
1.29518
1.3035
1.3131
1.31843
1.3203
1.31788
1.31871
1.32507
1.3321
1.33934
1.34919
1.35773
1.36523
1.37221
1.38328
1.39718
1.405
1.41192
1.41583
1.41938
1.42786
1.43526
1.44165
1.449
1.457
1.46173
1.44388
1.42118
1.4165
1.42242
1.43477
1.46441
1.52794
1.58658
1.60999
1.61704
1.61182
1.60172
1.58482
1.55807
1.53717
1.52976
1.53278
1.54296
1.55664
1.57213
1.61442
1.69213
1.74471
1.76914
1.78557
1.79548
1.77858
1.7397
1.71083
1.70243
1.7098
1.72786
1.76545
1.82044
1.85314
1.87031
1.89511
4.11494
24.9801
1.10713
1.14683
1.16315
1.1718
1.17733
1.17721
1.15785
1.12765
1.11122
1.10914
1.11206
1.11608
1.12603
1.1725
1.22808
1.24837
1.25292
1.24704
1.22974
1.21468
1.20285
1.19754
1.20009
1.20611
1.21242
1.21541
1.21578
1.218
1.23142
1.2489
1.25987
1.27096
1.28543
1.30051
1.31016
1.31489
1.31386
1.30516
1.29206
1.28626
1.28947
1.30319
1.31956
1.33301
1.34715
1.36529
1.37967
1.38759
1.38959
1.39159
1.39344
1.38787
1.38346
1.38627
1.40147
1.42256
1.43487
1.4425
1.4499
1.45405
1.44494
1.42726
1.42289
1.4299
1.44416
1.46071
1.48773
1.53637
1.57308
1.5885
1.59351
1.59496
1.59344
1.57886
1.5572
1.54576
1.54451
1.54695
1.54992
1.55829
1.573
1.62136
1.6963
1.74085
1.76424
1.78277
1.7878
1.76717
1.73851
1.71942
1.71592
1.72658
1.74392
1.78286
1.81785
1.83094
1.85534
4.11988
24.9818
1.06852
1.10134
1.14947
1.17171
1.17982
1.18507
1.18393
1.15341
1.12125
1.11499
1.11793
1.12275
1.13529
1.1659
1.20132
1.22004
1.22594
1.22616
1.22601
1.22236
1.21668
1.2128
1.21323
1.21559
1.21503
1.20693
1.19941
1.19895
1.20468
1.22393
1.25143
1.27845
1.30154
1.31474
1.32265
1.32576
1.31086
1.27874
1.26062
1.25887
1.26383
1.27984
1.30851
1.33785
1.36255
1.37711
1.38599
1.39163
1.38944
1.37797
1.36241
1.3546
1.35529
1.36057
1.37774
1.40987
1.42911
1.43792
1.44434
1.44952
1.45138
1.44211
1.43523
1.4377
1.44549
1.45445
1.46089
1.47372
1.5126
1.55104
1.5732
1.58594
1.5954
1.59871
1.58819
1.57351
1.5627
1.55475
1.54973
1.55046
1.5583
1.57578
1.63126
1.69768
1.73561
1.75948
1.77925
1.77728
1.76363
1.74962
1.73826
1.7361
1.74226
1.74882
1.77053
1.78728
1.81626
4.13703
24.9662
1.0602
1.08767
1.13582
1.16677
1.17991
1.18685
1.18993
1.17038
1.13796
1.12676
1.1282
1.13304
1.14232
1.15625
1.17234
1.18901
1.20244
1.21563
1.2261
1.2324
1.23489
1.23112
1.22495
1.21835
1.20506
1.19307
1.18934
1.19145
1.19562
1.20948
1.25045
1.29473
1.31436
1.32295
1.32916
1.32764
1.29426
1.25407
1.24313
1.24542
1.25125
1.26739
1.3053
1.34846
1.36829
1.37693
1.38306
1.38828
1.38413
1.36222
1.34121
1.33271
1.33499
1.34145
1.3541
1.3847
1.41602
1.43211
1.44163
1.45115
1.46016
1.46335
1.45271
1.44403
1.44141
1.43886
1.43689
1.44149
1.45734
1.49826
1.54246
1.5713
1.5903
1.6045
1.61684
1.61426
1.59687
1.57678
1.55879
1.54938
1.55212
1.56366
1.58335
1.63514
1.6893
1.72348
1.74885
1.76843
1.77097
1.77297
1.77322
1.76638
1.75168
1.7361
1.72633
1.73008
1.76819
4.18705
24.9164
1.05837
1.10095
1.14399
1.16313
1.17428
1.1827
1.18603
1.16876
1.14814
1.14065
1.14004
1.14186
1.14429
1.14748
1.15705
1.17222
1.19237
1.21315
1.22732
1.23427
1.23905
1.24181
1.23409
1.2125
1.19429
1.18789
1.18894
1.19255
1.1968
1.21204
1.26572
1.30644
1.31932
1.32603
1.32936
1.31434
1.26884
1.24199
1.23878
1.24222
1.24735
1.26718
1.31943
1.35535
1.36985
1.37711
1.38108
1.37601
1.37015
1.3594
1.341
1.32969
1.3274
1.33101
1.33676
1.35068
1.38802
1.42335
1.44457
1.45999
1.47215
1.48024
1.47462
1.45208
1.4365
1.42926
1.42453
1.42458
1.43172
1.44748
1.48834
1.53909
1.57742
1.6052
1.62571
1.63854
1.64179
1.62515
1.59277
1.56536
1.55602
1.55923
1.56988
1.58765
1.62786
1.67286
1.70835
1.7377
1.76142
1.77883
1.79305
1.79644
1.77994
1.74446
1.71015
1.68632
1.69066
4.24998
24.8802
1.06531
1.12384
1.15702
1.16682
1.17253
1.17696
1.16983
1.15426
1.14717
1.14576
1.14601
1.14686
1.14854
1.15104
1.15629
1.17017
1.19579
1.21741
1.22842
1.23477
1.23925
1.24229
1.23646
1.21013
1.19142
1.18813
1.19111
1.1953
1.20037
1.22698
1.28409
1.31184
1.32072
1.32605
1.32072
1.28487
1.25363
1.24166
1.2403
1.24438
1.25483
1.28488
1.32459
1.35587
1.37032
1.37497
1.37162
1.37014
1.37126
1.36715
1.353
1.33786
1.32868
1.32273
1.32306
1.32929
1.3496
1.40238
1.4494
1.47499
1.4884
1.49672
1.49826
1.47477
1.44411
1.42984
1.4249
1.42251
1.42165
1.42763
1.44108
1.47932
1.5406
1.59073
1.62186
1.64521
1.66134
1.66692
1.64527
1.6021
1.57136
1.56245
1.56639
1.57464
1.58769
1.61483
1.65509
1.69787
1.73768
1.76829
1.78767
1.7967
1.79297
1.76844
1.72315
1.67959
1.62668
4.26515
24.9259
1.07813
1.14221
1.16354
1.1711
1.17494
1.16945
1.15373
1.1466
1.14616
1.14642
1.14684
1.14721
1.14969
1.1543
1.1586
1.17105
1.19976
1.22068
1.22855
1.23307
1.2374
1.24181
1.23838
1.21287
1.1939
1.19108
1.1946
1.19977
1.21121
1.25238
1.29688
1.31547
1.32132
1.31963
1.29438
1.2668
1.25309
1.24789
1.25154
1.26164
1.28212
1.30055
1.31571
1.33667
1.35351
1.36299
1.37078
1.3782
1.38336
1.38686
1.37901
1.35396
1.32959
1.31522
1.31392
1.31931
1.32888
1.37003
1.44397
1.48644
1.50415
1.51396
1.51579
1.50483
1.4725
1.44455
1.43184
1.42544
1.42207
1.42302
1.42929
1.44122
1.47864
1.55484
1.61404
1.64216
1.65859
1.66998
1.66872
1.641
1.60214
1.57622
1.5682
1.57064
1.57632
1.58499
1.60548
1.65326
1.70575
1.7424
1.76582
1.77962
1.78035
1.77106
1.74389
1.69231
1.61132
4.21818
25.034
1.09346
1.1451
1.16333
1.1678
1.16405
1.15239
1.14713
1.14836
1.14931
1.15174
1.15356
1.15524
1.15915
1.16068
1.16201
1.16648
1.1892
1.21713
1.22903
1.23444
1.23961
1.24417
1.2422
1.21973
1.20299
1.2017
1.20622
1.21245
1.22977
1.26719
1.29896
1.31011
1.31087
1.29567
1.27689
1.2691
1.26517
1.26876
1.27764
1.29125
1.3025
1.30627
1.30548
1.30907
1.32981
1.36003
1.38008
1.39161
1.39909
1.40522
1.40417
1.37419
1.33309
1.31707
1.31648
1.32124
1.33002
1.35128
1.41716
1.48556
1.51106
1.51929
1.5209
1.52079
1.51127
1.47906
1.45222
1.43853
1.43057
1.42636
1.42728
1.43422
1.44639
1.49592
1.58077
1.6297
1.6506
1.66414
1.66675
1.65162
1.62551
1.59872
1.57847
1.56911
1.56876
1.57214
1.57934
1.61151
1.67217
1.7155
1.73954
1.75604
1.75952
1.75509
1.7454
1.71117
1.64306
4.13416
25.1743
1.10359
1.13129
1.14183
1.1442
1.14313
1.1438
1.14983
1.15779
1.16592
1.1719
1.17334
1.17182
1.16561
1.1598
1.15755
1.15814
1.16693
1.20125
1.22972
1.24218
1.24815
1.25288
1.25411
1.23445
1.21408
1.21166
1.21683
1.225
1.24142
1.26546
1.28504
1.2906
1.28476
1.27429
1.27511
1.28099
1.29215
1.30309
1.30898
1.31116
1.30954
1.30164
1.29591
1.29826
1.31064
1.35243
1.38724
1.40149
1.41053
1.41653
1.41854
1.39966
1.35328
1.32848
1.32713
1.33399
1.34706
1.36226
1.38827
1.45118
1.50081
1.51874
1.52242
1.52076
1.52307
1.51982
1.49483
1.46633
1.44508
1.43383
1.43407
1.44231
1.45316
1.47099
1.5308
1.59807
1.62769
1.64249
1.65098
1.64471
1.63027
1.61464
1.59623
1.57671
1.56492
1.56208
1.56456
1.58047
1.63502
1.68748
1.71528
1.7312
1.73653
1.73159
1.72801
1.71379
1.69251
4.06073
25.3111
1.10005
1.10553
1.10637
1.11534
1.12931
1.1456
1.16334
1.18126
1.19358
1.20151
1.20285
1.18479
1.16296
1.1492
1.1454
1.14695
1.15075
1.17488
1.22383
1.2479
1.25621
1.2615
1.26462
1.25138
1.22881
1.2233
1.22789
1.23654
1.24231
1.24827
1.25366
1.25954
1.26514
1.2715
1.28458
1.30551
1.32373
1.33403
1.33916
1.32988
1.31004
1.29501
1.29101
1.29429
1.30113
1.3325
1.38218
1.40582
1.41591
1.42075
1.42187
1.41763
1.39026
1.35677
1.34674
1.34908
1.35702
1.36899
1.38161
1.40556
1.45974
1.49962
1.51521
1.52148
1.52935
1.53806
1.53838
1.51112
1.47651
1.45481
1.44919
1.45445
1.46419
1.47593
1.49947
1.54895
1.58745
1.60669
1.61947
1.62566
1.62041
1.6166
1.61219
1.59891
1.57591
1.56157
1.55827
1.56496
1.59426
1.65043
1.69056
1.70779
1.71439
1.7085
1.7039
1.69937
1.69442
4.06681
25.4041
1.08898
1.07547
1.07721
1.08838
1.1162
1.15453
1.19038
1.20893
1.21736
1.22271
1.21964
1.19085
1.15073
1.13608
1.13615
1.13975
1.14484
1.16109
1.20959
1.24762
1.25881
1.26379
1.26611
1.2662
1.25611
1.24547
1.24361
1.24382
1.23438
1.21967
1.21691
1.22581
1.24912
1.28086
1.31261
1.33172
1.34045
1.34686
1.35035
1.34478
1.31848
1.29383
1.28835
1.2906
1.29581
1.30968
1.35122
1.39281
1.41025
1.41893
1.42528
1.43144
1.42511
1.3919
1.36584
1.35962
1.36242
1.37436
1.38765
1.39638
1.41005
1.44272
1.48465
1.51626
1.53371
1.5416
1.54687
1.55083
1.53135
1.49589
1.47498
1.47108
1.47658
1.48433
1.49339
1.5092
1.53682
1.55969
1.57704
1.59162
1.60128
1.60816
1.6169
1.62348
1.61003
1.58201
1.56387
1.55798
1.56567
1.59955
1.65045
1.68196
1.69091
1.68462
1.68158
1.67986
1.69093
4.09249
25.4835
1.07882
1.06543
1.06806
1.07475
1.11192
1.17961
1.21405
1.22419
1.22951
1.2282
1.21283
1.17482
1.14274
1.13391
1.13541
1.13918
1.14644
1.16045
1.19304
1.23204
1.2511
1.2595
1.26665
1.27368
1.27944
1.27502
1.25752
1.23149
1.20494
1.19559
1.19715
1.20389
1.23542
1.29806
1.33718
1.35062
1.35687
1.35408
1.34444
1.33342
1.31858
1.29831
1.28769
1.28704
1.28994
1.29551
1.3116
1.35812
1.40014
1.41945
1.43129
1.44018
1.44271
1.4265
1.39287
1.37537
1.37378
1.38347
1.39361
1.39577
1.38535
1.38648
1.41259
1.46798
1.51111
1.53396
1.55244
1.56688
1.57223
1.55275
1.5168
1.49546
1.48878
1.4879
1.4894
1.4924
1.49926
1.51159
1.52947
1.55411
1.58138
1.60555
1.62481
1.63877
1.64549
1.62275
1.58195
1.56089
1.55886
1.56993
1.59739
1.64072
1.66334
1.66263
1.65788
1.6506
1.68159
4.15408
25.5262
1.07253
1.06719
1.07056
1.0805
1.13733
1.20249
1.22185
1.22873
1.23037
1.21657
1.18428
1.15711
1.14157
1.13618
1.13778
1.14183
1.15029
1.16358
1.17995
1.20784
1.23875
1.25927
1.27225
1.27949
1.28521
1.28837
1.26636
1.21143
1.18719
1.18687
1.19086
1.20232
1.24057
1.30623
1.3423
1.3547
1.36093
1.35399
1.33579
1.32659
1.31941
1.30603
1.29239
1.28709
1.28784
1.29142
1.29771
1.31921
1.37463
1.41797
1.43399
1.43946
1.43772
1.43846
1.43039
1.40884
1.39795
1.39782
1.40019
1.39172
1.36726
1.35856
1.36457
1.39217
1.46089
1.52524
1.55773
1.57316
1.58061
1.57932
1.55769
1.52712
1.50695
1.49705
1.49202
1.48753
1.48271
1.48436
1.49275
1.51744
1.56597
1.60834
1.63375
1.65018
1.66238
1.65455
1.61409
1.57443
1.56026
1.56565
1.57211
1.5913
1.62582
1.63818
1.63436
1.62569
1.65587
4.26467
25.538
1.07428
1.0738
1.07753
1.10898
1.17959
1.21439
1.22501
1.22917
1.21754
1.18116
1.15844
1.15006
1.14549
1.14267
1.14491
1.15061
1.15983
1.16817
1.17515
1.1905
1.22806
1.26066
1.27451
1.28034
1.28466
1.28022
1.24079
1.19942
1.18729
1.18903
1.19609
1.22462
1.27051
1.30484
1.33118
1.34273
1.34056
1.32745
1.32457
1.32852
1.32975
1.3206
1.3047
1.29454
1.29183
1.29392
1.29869
1.3053
1.32631
1.37887
1.41564
1.42857
1.43396
1.44146
1.45155
1.45595
1.43846
1.41826
1.40141
1.37798
1.35639
1.34953
1.35235
1.35989
1.39034
1.47734
1.54288
1.56476
1.57361
1.57506
1.56763
1.55684
1.54228
1.52481
1.50635
1.48871
1.47598
1.47065
1.47313
1.48758
1.54401
1.60459
1.63607
1.65379
1.66524
1.66194
1.64303
1.6061
1.57693
1.56691
1.5669
1.56519
1.57426
1.59635
1.60772
1.60156
1.63362
4.40346
25.5751
1.07338
1.07729
1.10167
1.16505
1.2046
1.21884
1.22336
1.21191
1.17582
1.15293
1.14853
1.15083
1.15294
1.15331
1.15578
1.16197
1.16949
1.17695
1.18301
1.18981
1.21947
1.25748
1.27172
1.27588
1.27083
1.24556
1.21661
1.1983
1.19379
1.19963
1.22747
1.26899
1.2846
1.2898
1.29372
1.30053
1.31168
1.32126
1.32804
1.33349
1.34014
1.34346
1.32991
1.31212
1.30307
1.30039
1.30087
1.30254
1.30515
1.32136
1.37092
1.41386
1.43662
1.45148
1.46675
1.47501
1.47689
1.45146
1.40956
1.37705
1.35728
1.35125
1.35564
1.36517
1.38391
1.42446
1.48803
1.52625
1.5414
1.55216
1.56224
1.56827
1.56981
1.55912
1.53136
1.49645
1.47264
1.4653
1.46726
1.47532
1.51426
1.58137
1.62855
1.64979
1.66063
1.65927
1.65221
1.63498
1.60883
1.58924
1.57478
1.55609
1.53795
1.53731
1.56396
1.5849
1.62413
4.5385
25.637
1.07789
1.09938
1.15955
1.19681
1.2083
1.21253
1.19842
1.16659
1.14671
1.14201
1.14441
1.15437
1.16476
1.17357
1.17931
1.18242
1.18818
1.1936
1.1926
1.19465
1.2108
1.2426
1.25342
1.25158
1.23801
1.22276
1.21336
1.21298
1.22189
1.24611
1.27821
1.29248
1.29093
1.26957
1.25316
1.25459
1.28138
1.31747
1.33469
1.34656
1.35711
1.3656
1.36242
1.33324
1.31075
1.30064
1.2957
1.29478
1.29968
1.30631
1.32162
1.375
1.42903
1.45465
1.46642
1.47382
1.47475
1.46502
1.43768
1.40008
1.37456
1.36758
1.37296
1.38121
1.38921
1.39972
1.42218
1.46014
1.49794
1.53297
1.55806
1.56931
1.57617
1.57674
1.5605
1.52622
1.48799
1.46891
1.46568
1.47251
1.4938
1.53524
1.59388
1.63169
1.64776
1.64833
1.64585
1.64525
1.63318
1.61968
1.59556
1.55558
1.52022
1.50165
1.5139
1.56184
1.61875
4.63704
25.691
1.10384
1.15405
1.18835
1.19901
1.2026
1.17985
1.1468
1.13457
1.13483
1.13868
1.14649
1.16456
1.18867
1.20839
1.22018
1.22139
1.21104
1.19899
1.19453
1.19234
1.19174
1.20605
1.22298
1.22554
1.22378
1.22709
1.23506
1.2544
1.276
1.28976
1.29614
1.29459
1.27315
1.2415
1.22952
1.23087
1.24623
1.297
1.34287
1.36512
1.37698
1.38449
1.3826
1.35209
1.31221
1.29666
1.29374
1.2968
1.30675
1.32202
1.3354
1.34487
1.37246
1.4176
1.44499
1.45516
1.45848
1.46116
1.46463
1.45417
1.42271
1.39915
1.39127
1.38917
1.38688
1.38634
1.3922
1.40438
1.43425
1.48678
1.5327
1.55349
1.56024
1.5612
1.56406
1.56041
1.52954
1.49043
1.47303
1.47233
1.48529
1.50426
1.53967
1.59466
1.62672
1.63464
1.63421
1.6392
1.64316
1.63619
1.61571
1.57837
1.52801
1.49689
1.49292
1.51897
1.59735
4.67914
25.7229
1.15054
1.19007
1.20114
1.19972
1.16367
1.12039
1.10398
1.10384
1.11418
1.13201
1.15742
1.19338
1.22929
1.25027
1.26145
1.25831
1.22245
1.19253
1.17528
1.16575
1.1608
1.16278
1.18644
1.21351
1.23278
1.25654
1.28406
1.30143
1.31026
1.31422
1.30521
1.27173
1.23805
1.22266
1.21991
1.22225
1.22946
1.26874
1.3395
1.37315
1.3841
1.38945
1.38634
1.36656
1.332
1.3069
1.30204
1.31319
1.33453
1.34569
1.34712
1.33283
1.32466
1.33638
1.38078
1.42281
1.44609
1.46539
1.48248
1.49082
1.48218
1.4499
1.41617
1.39331
1.38356
1.38432
1.38786
1.39125
1.39935
1.42104
1.47064
1.51801
1.54225
1.55536
1.56435
1.56982
1.56385
1.52969
1.49435
1.47941
1.48206
1.49926
1.51168
1.5386
1.58537
1.61045
1.61744
1.62006
1.6242
1.63073
1.62085
1.60442
1.55872
1.51456
1.49676
1.48852
1.55006
4.65917
25.7949
1.19029
1.20225
1.20347
1.16817
1.10863
1.08019
1.07508
1.07763
1.08707
1.11956
1.1842
1.24532
1.27271
1.28239
1.28673
1.27027
1.21249
1.16101
1.14128
1.13677
1.13755
1.13985
1.15605
1.20499
1.2638
1.30538
1.32408
1.33058
1.33033
1.32357
1.29442
1.24876
1.22285
1.21565
1.21646
1.22016
1.23323
1.25576
1.30255
1.35697
1.37875
1.38466
1.36861
1.35441
1.35312
1.34813
1.3475
1.35587
1.36016
1.35727
1.33996
1.31299
1.29377
1.29232
1.30854
1.36091
1.42635
1.47176
1.49425
1.50391
1.50698
1.49701
1.45977
1.42066
1.39974
1.39264
1.3917
1.39181
1.39127
1.39354
1.40739
1.46627
1.52591
1.55226
1.56571
1.57444
1.57136
1.55526
1.5256
1.50037
1.49308
1.50274
1.50974
1.51449
1.53134
1.56537
1.58799
1.59615
1.60364
1.61469
1.61289
1.60306
1.58438
1.54216
1.51095
1.48169
1.48273
4.57355
25.8827
1.22572
1.21879
1.17571
1.10643
1.06539
1.05464
1.05518
1.05886
1.06721
1.1164
1.22927
1.28771
1.3012
1.30544
1.29685
1.24768
1.17516
1.13485
1.12402
1.12375
1.12576
1.13416
1.15536
1.20567
1.27976
1.31884
1.33337
1.34128
1.34101
1.31819
1.28426
1.2506
1.2258
1.21802
1.21979
1.23148
1.24707
1.25448
1.26252
1.29697
1.33849
1.35487
1.35502
1.35782
1.37002
1.39701
1.40848
1.40166
1.38431
1.35773
1.31943
1.28686
1.27409
1.27521
1.28265
1.30384
1.38361
1.46711
1.49631
1.50465
1.50683
1.49815
1.48056
1.46102
1.44058
1.42372
1.41061
1.39762
1.38573
1.3824
1.38548
1.41729
1.49563
1.54586
1.56437
1.57278
1.56811
1.55902
1.54799
1.53168
1.52229
1.52052
1.51353
1.5059
1.49605
1.50611
1.54306
1.56968
1.58636
1.60134
1.60749
1.59887
1.59001
1.56499
1.5321
1.49087
1.4744
4.43302
25.9827
1.24584
1.2248
1.13403
1.06801
1.04455
1.04126
1.04344
1.04688
1.06178
1.14814
1.26534
1.29912
1.30762
1.31008
1.2762
1.1981
1.14323
1.12343
1.11981
1.12165
1.12655
1.14765
1.19772
1.23875
1.26764
1.3045
1.32346
1.32543
1.31035
1.30061
1.29474
1.27181
1.24562
1.23404
1.23407
1.24044
1.24802
1.24956
1.25007
1.25537
1.27913
1.32111
1.35364
1.37687
1.40624
1.43477
1.44474
1.44089
1.41556
1.36664
1.31198
1.28119
1.2744
1.27742
1.28594
1.30727
1.35652
1.43327
1.47789
1.49007
1.49268
1.49065
1.48966
1.49095
1.48835
1.47353
1.44294
1.40855
1.38727
1.38311
1.38479
1.39661
1.44993
1.51751
1.55152
1.5643
1.56313
1.56223
1.56364
1.56127
1.55669
1.54537
1.52317
1.49488
1.47311
1.46543
1.48513
1.52955
1.56673
1.59177
1.60676
1.60004
1.59034
1.5767
1.55675
1.52692
1.50526
4.26101
26.0859
1.24467
1.17261
1.09421
1.05567
1.04154
1.04037
1.04294
1.04922
1.09102
1.20197
1.2733
1.29814
1.30455
1.28386
1.21583
1.16121
1.13646
1.12503
1.12269
1.12574
1.14295
1.20358
1.24974
1.26142
1.25972
1.25728
1.26545
1.28531
1.29816
1.30493
1.3085
1.30312
1.27948
1.25635
1.24585
1.24176
1.23842
1.23925
1.24433
1.24834
1.2537
1.27347
1.32562
1.37802
1.4143
1.44166
1.4545
1.45788
1.44795
1.39705
1.32736
1.29368
1.28959
1.29877
1.31931
1.34897
1.37771
1.40084
1.42666
1.45062
1.47049
1.48921
1.50353
1.51386
1.51979
1.51681
1.48896
1.43951
1.4021
1.38938
1.38849
1.39703
1.42214
1.46602
1.51962
1.55301
1.56838
1.57095
1.57675
1.5822
1.58245
1.56722
1.54397
1.50183
1.45871
1.44209
1.44582
1.47388
1.53167
1.57976
1.60503
1.60618
1.59086
1.58124
1.57241
1.55555
1.5426
4.14631
26.1907
1.20476
1.12204
1.08251
1.05944
1.04635
1.04582
1.0498
1.08352
1.17161
1.23066
1.25825
1.26823
1.25545
1.21238
1.174
1.15328
1.1439
1.13974
1.14141
1.15729
1.21187
1.25664
1.26963
1.26734
1.24147
1.21657
1.2142
1.244
1.29214
1.31131
1.31914
1.32526
1.32035
1.29004
1.25896
1.24391
1.24052
1.24359
1.25205
1.26272
1.27253
1.28134
1.29007
1.3258
1.38582
1.42288
1.4326
1.43033
1.42003
1.40252
1.37177
1.3432
1.33744
1.34574
1.35941
1.37097
1.37945
1.37973
1.3791
1.39184
1.42453
1.47353
1.50997
1.52491
1.53353
1.53732
1.52377
1.48168
1.42945
1.40119
1.39407
1.39929
1.41674
1.43482
1.46561
1.51748
1.55385
1.57086
1.5801
1.58983
1.59153
1.58183
1.56401
1.52877
1.46997
1.44085
1.43677
1.447
1.48109
1.54747
1.59126
1.60457
1.59386
1.58328
1.57661
1.56505
1.56096
4.1054
26.3068
1.14705
1.09189
1.07509
1.06427
1.05951
1.06339
1.09437
1.17461
1.22287
1.23436
1.23546
1.21546
1.18261
1.16487
1.15839
1.15587
1.15569
1.15908
1.1789
1.23801
1.27953
1.29154
1.28701
1.25055
1.20759
1.18976
1.18908
1.20359
1.26116
1.31
1.32743
1.33802
1.34461
1.33193
1.29251
1.26551
1.25833
1.26522
1.28059
1.28869
1.28904
1.28068
1.27465
1.27676
1.3056
1.36714
1.40157
1.41127
1.41659
1.4212
1.41818
1.40838
1.39881
1.39398
1.39172
1.38619
1.37347
1.35926
1.354
1.35767
1.37003
1.42064
1.4908
1.52306
1.53158
1.53539
1.52634
1.50281
1.46033
1.42035
1.40373
1.40685
1.43285
1.44865
1.45424
1.4623
1.49229
1.54282
1.57404
1.58718
1.59062
1.59085
1.58098
1.56299
1.51223
1.46727
1.45193
1.44882
1.45333
1.49412
1.55735
1.5865
1.58978
1.58004
1.57261
1.56287
1.57317
4.09796
26.4267
1.11638
1.09212
1.07743
1.07446
1.08022
1.11172
1.18157
1.22419
1.23461
1.23367
1.1992
1.15157
1.13337
1.13487
1.1463
1.15823
1.16923
1.19783
1.26491
1.30963
1.32204
1.32122
1.29217
1.22575
1.18575
1.1753
1.17534
1.18038
1.21538
1.28932
1.33152
1.34482
1.3479
1.34464
1.3361
1.31868
1.30685
1.30663
1.30877
1.30457
1.2895
1.27091
1.25779
1.25193
1.25605
1.28608
1.35032
1.39547
1.42076
1.44156
1.45632
1.45869
1.4508
1.43887
1.42087
1.39413
1.36927
1.3548
1.34819
1.34806
1.35237
1.37032
1.43238
1.4944
1.51698
1.52351
1.51506
1.49623
1.47955
1.45421
1.43581
1.43936
1.45461
1.45638
1.44493
1.42881
1.42948
1.47458
1.5412
1.57212
1.58795
1.59923
1.60103
1.59061
1.56063
1.50917
1.47306
1.45522
1.45082
1.46165
1.50894
1.55472
1.5688
1.56404
1.55757
1.54803
1.58479
4.13204
26.5458
1.09429
1.09894
1.09567
1.0996
1.13492
1.19706
1.23407
1.2452
1.2434
1.20429
1.14161
1.10839
1.1022
1.10754
1.12575
1.15298
1.19723
1.27936
1.33058
1.34422
1.34708
1.32933
1.26661
1.2031
1.1759
1.17001
1.17036
1.18024
1.19644
1.23737
1.30236
1.33691
1.34711
1.34998
1.36051
1.37137
1.36946
1.35258
1.333
1.30838
1.28012
1.25765
1.24178
1.23615
1.23819
1.2453
1.27213
1.34103
1.41245
1.45439
1.47194
1.4779
1.47838
1.47353
1.45237
1.41587
1.38154
1.35844
1.34813
1.34601
1.34764
1.35447
1.37823
1.43804
1.48522
1.50041
1.4988
1.48769
1.48677
1.48752
1.48367
1.48252
1.47748
1.46332
1.43975
1.41478
1.40261
1.41299
1.48321
1.55464
1.58688
1.60272
1.61145
1.60569
1.58561
1.54621
1.50371
1.4733
1.45651
1.45379
1.47198
1.51025
1.5326
1.53671
1.53489
1.52731
1.58985
4.2178
26.6532
1.07065
1.09606
1.11976
1.16528
1.21786
1.24395
1.25271
1.25421
1.22285
1.15717
1.11135
1.0929
1.08974
1.09216
1.10071
1.13165
1.23855
1.33204
1.36069
1.3705
1.36991
1.3287
1.24467
1.19394
1.17471
1.17022
1.17592
1.19486
1.21088
1.21822
1.24049
1.2944
1.33544
1.35797
1.37452
1.39496
1.40492
1.40325
1.3774
1.3343
1.28906
1.2559
1.23823
1.23382
1.23709
1.24334
1.25173
1.27978
1.36862
1.44633
1.47113
1.47746
1.47528
1.46472
1.45605
1.44534
1.41457
1.37637
1.35368
1.346
1.34474
1.34726
1.36119
1.38966
1.4378
1.47354
1.48739
1.49081
1.50072
1.51065
1.52037
1.5155
1.49951
1.47769
1.44196
1.40596
1.39206
1.3924
1.41871
1.50816
1.58019
1.61239
1.62421
1.61493
1.59318
1.56731
1.53993
1.51268
1.48529
1.46419
1.46064
1.46331
1.4826
1.5014
1.51547
1.51781
1.5912
4.31133
26.6207
1.03481
1.08335
1.17494
1.24698
1.2701
1.27391
1.26645
1.23216
1.16912
1.1217
1.09844
1.08919
1.08776
1.08964
1.10142
1.16549
1.26322
1.33212
1.36167
1.36919
1.34531
1.28541
1.23472
1.20228
1.18623
1.18371
1.19658
1.2157
1.22374
1.22605
1.22457
1.23071
1.26925
1.32835
1.36967
1.39251
1.40056
1.40307
1.40034
1.3779
1.32411
1.2701
1.2435
1.23827
1.24221
1.25099
1.26787
1.3004
1.34188
1.38996
1.42865
1.44584
1.45193
1.45552
1.45982
1.4618
1.45077
1.41384
1.3735
1.35355
1.34864
1.35123
1.36326
1.37455
1.38854
1.42701
1.46663
1.49158
1.50709
1.52399
1.53465
1.53284
1.51321
1.49149
1.45625
1.41169
1.39335
1.39725
1.41067
1.45257
1.54279
1.59499
1.608
1.60295
1.5844
1.57219
1.56503
1.5563
1.53851
1.49212
1.45499
1.44111
1.4392
1.45366
1.49806
1.52255
1.59634
4.40086
26.5343
1.02377
1.07774
1.2198
1.27837
1.29342
1.29902
1.28151
1.20192
1.13437
1.10642
1.09529
1.09072
1.09071
1.10396
1.15519
1.20478
1.24615
1.29493
1.32047
1.31714
1.28742
1.25815
1.24162
1.22558
1.21606
1.21836
1.22983
1.23779
1.23898
1.23201
1.21877
1.21224
1.21657
1.25081
1.32307
1.37163
1.39099
1.40241
1.40832
1.40504
1.37148
1.30747
1.26708
1.25649
1.25953
1.27279
1.29938
1.323
1.33284
1.3351
1.34565
1.37981
1.42184
1.44827
1.45895
1.46507
1.46733
1.45317
1.41829
1.38341
1.36766
1.36524
1.36874
1.36938
1.36737
1.37751
1.41971
1.47251
1.50601
1.52477
1.53565
1.53909
1.52591
1.50642
1.48455
1.44449
1.41819
1.41706
1.4261
1.43682
1.4703
1.52719
1.55553
1.5667
1.5708
1.57226
1.57862
1.58147
1.58013
1.547
1.48522
1.44023
1.4201
1.41603
1.45631
1.5061
1.58
4.47707
26.4267
1.03999
1.12965
1.22633
1.27765
1.29301
1.29101
1.24365
1.17843
1.13399
1.1086
1.09944
1.09995
1.11305
1.15956
1.20059
1.21346
1.22069
1.23012
1.23987
1.24942
1.25647
1.26045
1.26362
1.26436
1.26723
1.2699
1.26651
1.25962
1.24969
1.22612
1.20538
1.20055
1.2042
1.21336
1.24889
1.33397
1.39017
1.40568
1.40934
1.39578
1.36438
1.3321
1.30534
1.29424
1.29958
1.31585
1.33112
1.33805
1.32292
1.29916
1.29416
1.30323