/*--------------------------------*- C++ -*----------------------------------*\
  =========                 |
  \\      /  F ield         | OpenFOAM: The Open Source CFD Toolbox
   \\    /   O peration     | Website:  https://openfoam.org
    \\  /    A nd           | Version:  12
     \\/     M anipulation  |
\*---------------------------------------------------------------------------*/
FoamFile
{
    format      ascii;
    class       volScalarField;
    location    "29.5";
    object      rho;
}
// * * * * * * * * * * * * * * * * * * * * * * * * * * * * * * * * * * * * * //

dimensions      [1 -3 0 0 0 0 0];

internalField   nonuniform List<scalar> 
9801
(
1.20271
1.23352
1.26459
1.27691
1.28144
1.27764
1.26469
1.25679
1.25919
1.29988
1.35007
1.37728
1.39309
1.40414
1.40318
1.38091
1.37001
1.36672
1.36625
1.3678
1.37427
1.3765
1.37833
1.38807
1.39871
1.40956
1.42268
1.43646
1.44795
1.45287
1.44952
1.442
1.43427
1.42603
1.41508
1.4111
1.42068
1.45342
1.5055
1.56522
1.60903
1.62979
1.64082
1.63707
1.6032
1.5448
1.48539
1.46033
1.45795
1.46557
1.51384
1.61897
1.71109
1.75256
1.7724
1.78434
1.77079
1.70893
1.64498
1.6086
1.59433
1.59121
1.602
1.65346
1.72359
1.77932
1.82158
1.85261
1.87838
1.88975
1.8739
1.86051
1.85611
1.85571
1.85871
1.86301
1.87142
1.90631
1.96225
2.01994
2.0667
2.1014
2.08954
2.0471
2.03903
2.05194
2.08398
2.15926
2.21581
2.25037
2.28158
2.31969
2.35764
2.38017
2.40274
2.43478
2.47284
6.24495
39.0899
1.23029
1.2356
1.24316
1.25063
1.24949
1.24484
1.24434
1.24952
1.28211
1.35017
1.39404
1.4113
1.41895
1.42141
1.39769
1.36399
1.34539
1.33825
1.33764
1.34054
1.35344
1.38383
1.41164
1.42879
1.44138
1.45023
1.45553
1.45367
1.44355
1.43212
1.41652
1.40489
1.40191
1.4056
1.41831
1.44927
1.49734
1.53457
1.55556
1.57122
1.58759
1.59882
1.58583
1.55396
1.52877
1.51582
1.50935
1.50068
1.50376
1.54159
1.6051
1.65581
1.69571
1.72619
1.74132
1.729
1.68126
1.63258
1.60812
1.6053
1.60913
1.61678
1.65544
1.72761
1.7824
1.81385
1.83242
1.84754
1.85545
1.83637
1.80025
1.77742
1.77155
1.77807
1.79185
1.82681
1.89129
1.95897
2.01118
2.04531
2.06708
2.07358
2.03851
1.99576
1.98554
1.99839
2.02618
2.09863
2.18003
2.24158
2.2937
2.3423
2.38573
2.39699
2.39215
2.39766
2.31335
5.60015
38.8923
1.23719
1.21935
1.20413
1.19649
1.20093
1.21132
1.22448
1.25173
1.32926
1.3982
1.41996
1.42709
1.42985
1.4134
1.36262
1.31653
1.29838
1.29886
1.30596
1.31546
1.33613
1.38714
1.43805
1.46682
1.47499
1.47541
1.46668
1.44088
1.40575
1.37078
1.35985
1.36468
1.37539
1.39101
1.43071
1.51661
1.57095
1.58568
1.58843
1.58282
1.55459
1.50669
1.47328
1.46632
1.47458
1.4885
1.5031
1.52655
1.58161
1.635
1.66075
1.66994
1.67477
1.67317
1.64707
1.60675
1.58044
1.57434
1.5793
1.58836
1.59922
1.63213
1.72092
1.78495
1.80659
1.81685
1.82383
1.81748
1.78612
1.73283
1.69384
1.68477
1.69232
1.70792
1.73373
1.80302
1.91746
1.98771
2.01475
2.02905
2.03784
2.01721
1.95277
1.89866
1.88552
1.90322
1.9359
2.01177
2.13821
2.24036
2.29962
2.34618
2.3784
2.37425
2.35854
2.36107
2.26332
5.1279
37.9878
1.24457
1.18419
1.16132
1.15808
1.16484
1.18007
1.20623
1.26595
1.34798
1.40129
1.42131
1.42582
1.41486
1.3823
1.33364
1.2941
1.27705
1.27549
1.28051
1.29442
1.32282
1.37672
1.44429
1.47854
1.48919
1.49146
1.48354
1.44353
1.37372
1.33964
1.33722
1.34338
1.3554
1.39428
1.47232
1.53957
1.57517
1.58665
1.58471
1.55001
1.48686
1.43375
1.41534
1.41905
1.4329
1.45906
1.50508
1.57915
1.63551
1.66285
1.6724
1.66866
1.63753
1.59184
1.54797
1.51919
1.51481
1.52501
1.54337
1.56378
1.59653
1.67464
1.75363
1.78506
1.79744
1.79393
1.76287
1.72885
1.69636
1.6585
1.63082
1.62687
1.63815
1.65529
1.69131
1.78952
1.90887
1.96296
1.98302
1.97806
1.95124
1.90895
1.8567
1.81813
1.80978
1.82905
1.86503
1.93024
2.04398
2.16251
2.23882
2.28949
2.32812
2.32788
2.29982
2.27757
2.15676
4.84004
37.0154
1.24257
1.15308
1.13531
1.13704
1.14364
1.16434
1.21445
1.26747
1.32705
1.3734
1.3857
1.3777
1.36156
1.34853
1.33054
1.29832
1.27521
1.27085
1.2788
1.29499
1.3097
1.32888
1.38261
1.43582
1.45144
1.44719
1.42949
1.40318
1.37174
1.34313
1.33844
1.35224
1.39162
1.43668
1.46997
1.50954
1.53477
1.53404
1.51193
1.479
1.44204
1.41122
1.40315
1.40648
1.41761
1.46015
1.52796
1.58063
1.61864
1.63738
1.63288
1.60424
1.56812
1.53385
1.50422
1.48602
1.48423
1.49402
1.50921
1.53805
1.60516
1.68745
1.73631
1.75398
1.74697
1.71496
1.68365
1.66228
1.64133
1.61466
1.59381
1.59072
1.60135
1.62114
1.67091
1.76469
1.85097
1.88776
1.89803
1.89177
1.87193
1.84237
1.81023
1.79029
1.78722
1.80138
1.82911
1.87674
1.9525
2.05444
2.14721
2.21007
2.26004
2.29198
2.28165
2.25298
2.09727
4.70715
36.2489
1.25526
1.15035
1.13325
1.13685
1.15796
1.20003
1.22153
1.23406
1.24905
1.27322
1.30754
1.32711
1.33127
1.3318
1.33741
1.33579
1.31418
1.29831
1.29519
1.29448
1.29001
1.28044
1.27538
1.29882
1.35359
1.38702
1.39671
1.40136
1.40159
1.39589
1.39905
1.41375
1.42952
1.43635
1.43891
1.42905
1.41768
1.41885
1.4268
1.43061
1.42701
1.41152
1.40566
1.4204
1.46603
1.50782
1.52542
1.53753
1.54962
1.55069
1.54299
1.53186
1.51965
1.505
1.4892
1.47771
1.47325
1.47914
1.50522
1.55782
1.60349
1.64621
1.6763
1.68108
1.66706
1.64773
1.6366
1.63142
1.62556
1.60808
1.58697
1.58261
1.59703
1.63378
1.67623
1.7154
1.76158
1.79646
1.81589
1.82565
1.82693
1.81655
1.80037
1.79022
1.79
1.80471
1.8355
1.86885
1.89626
1.94025
2.02222
2.09961
2.15904
2.21329
2.23497
2.21578
2.09802
4.65202
35.8547
1.26137
1.18132
1.16148
1.1719
1.19868
1.21109
1.21339
1.19436
1.16871
1.16646
1.20218
1.26861
1.31114
1.33543
1.35485
1.36954
1.36775
1.33634
1.30663
1.2854
1.25524
1.22081
1.20056
1.19975
1.22924
1.30131
1.3614
1.4049
1.45431
1.47938
1.47697
1.45803
1.43864
1.41641
1.37406
1.33781
1.32402
1.32898
1.35406
1.38653
1.40486
1.41914
1.45562
1.49294
1.50777
1.51188
1.50927
1.4846
1.45574
1.4483
1.45885
1.47605
1.48693
1.49212
1.49397
1.48984
1.49487
1.51519
1.54409
1.56158
1.57258
1.58247
1.58718
1.5934
1.60168
1.60843
1.61228
1.61638
1.62149
1.62194
1.61696
1.61977
1.63331
1.64984
1.66268
1.67217
1.68434
1.71797
1.75879
1.78639
1.80315
1.81293
1.81801
1.81914
1.82494
1.83645
1.84864
1.84983
1.85152
1.87449
1.92031
1.99548
2.06226
2.11666
2.15005
2.1559
2.09939
4.69395
35.6448
1.2829
1.24841
1.21835
1.21214
1.21382
1.20799
1.1743
1.13735
1.11985
1.11792
1.12469
1.17025
1.26566
1.3414
1.38145
1.4002
1.40771
1.39129
1.33018
1.26125
1.20764
1.17625
1.16758
1.16822
1.17347
1.20401
1.3061
1.44406
1.50492
1.52199
1.52282
1.49831
1.44434
1.36759
1.31291
1.28904
1.28454
1.28825
1.30068
1.33032
1.38336
1.46604
1.52339
1.5391
1.54004
1.52149
1.4739
1.41605
1.38836
1.38653
1.4005
1.43062
1.46193
1.48477
1.50814
1.5348
1.54951
1.55189
1.55197
1.55182
1.54135
1.52342
1.51852
1.52908
1.55637
1.58659
1.60404
1.61655
1.63171
1.64912
1.65986
1.6604
1.65978
1.65797
1.6447
1.63894
1.64701
1.66906
1.71488
1.76081
1.79243
1.81463
1.83599
1.85664
1.87154
1.8696
1.84941
1.82762
1.81872
1.8277
1.8542
1.90753
1.97791
2.034
2.06414
2.08829
2.09513
4.79307
35.5671
1.3006
1.31605
1.28582
1.24053
1.20157
1.15812
1.12575
1.11037
1.10767
1.10927
1.11252
1.12429
1.19541
1.32941
1.39074
1.40698
1.41397
1.41131
1.36575
1.2623
1.18675
1.16441
1.16279
1.16597
1.17483
1.20578
1.31172
1.44125
1.49927
1.51738
1.51987
1.48524
1.40708
1.33488
1.29551
1.28251
1.28277
1.28733
1.29357
1.31063
1.39068
1.49331
1.52795
1.53839
1.54172
1.50954
1.42872
1.37586
1.3644
1.36798
1.37838
1.40229
1.44255
1.49663
1.54568
1.57118
1.58
1.57822
1.5574
1.53088
1.50446
1.48699
1.48706
1.49946
1.52905
1.57428
1.61061
1.63458
1.65691
1.67407
1.68575
1.68721
1.67182
1.64518
1.63123
1.63112
1.64092
1.65646
1.68914
1.74288
1.79227
1.82821
1.85296
1.87241
1.8922
1.90024
1.86915
1.82492
1.80101
1.79927
1.81492
1.84613
1.90342
1.96625
1.99996
2.02724
2.05778
4.8827
35.4936
1.3183
1.35793
1.34985
1.27924
1.18399
1.12174
1.09564
1.09173
1.09494
1.10263
1.11281
1.12767
1.17614
1.29418
1.37969
1.40201
1.40913
1.396
1.33159
1.24643
1.19586
1.17531
1.17293
1.17866
1.21107
1.2859
1.35289
1.40177
1.44507
1.46276
1.4511
1.40935
1.36511
1.32953
1.30051
1.28745
1.28771
1.29328
1.30631
1.35324
1.43383
1.48456
1.51024
1.51938
1.50921
1.44859
1.38876
1.36758
1.36708
1.37227
1.38518
1.42325
1.47463
1.51792
1.55175
1.57231
1.58172
1.58164
1.56663
1.53148
1.49924
1.48462
1.48516
1.49605
1.51791
1.55756
1.60797
1.64724
1.67386
1.68981
1.69625
1.68669
1.66644
1.64988
1.64036
1.64097
1.65232
1.67476
1.69869
1.72833
1.76594
1.80738
1.84527
1.86812
1.87691
1.87265
1.86115
1.83901
1.81226
1.79721
1.79796
1.81353
1.84721
1.90275
1.94112
1.96527
1.99594
4.93893
35.423
1.31956
1.36468
1.36065
1.31127
1.1949
1.11283
1.09024
1.0884
1.09326
1.10354
1.11834
1.15313
1.21167
1.27158
1.32724
1.35845
1.36366
1.34204
1.29635
1.25261
1.22171
1.21074
1.2144
1.24095
1.29876
1.34305
1.36482
1.37424
1.37517
1.36135
1.34196
1.33365
1.33301
1.33077
1.32353
1.3172
1.316
1.3226
1.34472
1.39549
1.44438
1.46936
1.47881
1.47444
1.43574
1.38916
1.36765
1.36503
1.37163
1.39137
1.4235
1.45598
1.49205
1.52896
1.55256
1.56088
1.55825
1.55245
1.55002
1.54184
1.51718
1.50185
1.50601
1.51788
1.52252
1.53535
1.57418
1.63156
1.66694
1.68034
1.68395
1.68837
1.68622
1.67321
1.66801
1.67443
1.68787
1.69879
1.69823
1.70102
1.71177
1.73779
1.78318
1.81939
1.83164
1.83643
1.84563
1.85166
1.841
1.82085
1.80735
1.80726
1.81737
1.84498
1.86632
1.86941
1.89271
5.02388
35.3569
1.30024
1.34816
1.33288
1.27236
1.19014
1.13002
1.10402
1.10003
1.10359
1.11352
1.14414
1.201
1.23896
1.25728
1.27319
1.2887
1.29399
1.2883
1.27917
1.26743
1.26176
1.26359
1.27671
1.3086
1.3443
1.3605
1.35787
1.34063
1.30703
1.27998
1.26983
1.27288
1.28797
1.31415
1.33061
1.33846
1.34747
1.35959
1.38591
1.41496
1.42985
1.43892
1.43708
1.41784
1.39081
1.36945
1.36311
1.37236
1.39903
1.42825
1.44406
1.46274
1.49781
1.52637
1.53623
1.53318
1.53128
1.54052
1.55433
1.56144
1.56011
1.54818
1.535
1.52083
1.51329
1.51113
1.52092
1.56809
1.62517
1.65345
1.67183
1.69858
1.72247
1.73307
1.72639
1.71875
1.71144
1.69694
1.67847
1.66073
1.65132
1.65493
1.68178
1.73555
1.78011
1.82147
1.86499
1.88938
1.8886
1.866
1.83734
1.81119
1.79302
1.77732
1.7568
1.74302
1.77163
5.26011
35.2842
1.23826
1.27394
1.26206
1.2412
1.20998
1.16704
1.13625
1.1253
1.12627
1.13887
1.18259
1.2289
1.24878
1.25361
1.24905
1.23318
1.22896
1.24092
1.26482
1.28518
1.3012
1.31834
1.33053
1.34173
1.35144
1.35028
1.33852
1.30805
1.27901
1.26336
1.25837
1.25936
1.26522
1.28159
1.31883
1.34658
1.35988
1.37868
1.415
1.43274
1.429
1.41838
1.4029
1.39084
1.38192
1.37681
1.38092
1.40182
1.4247
1.43319
1.43804
1.44566
1.46666
1.49663
1.51019
1.51566
1.53461
1.55619
1.57812
1.59714
1.60594
1.59096
1.55142
1.51211
1.48418
1.47172
1.47262
1.4926
1.55827
1.62635
1.67818
1.72948
1.76647
1.78302
1.77328
1.7434
1.71573
1.68296
1.64071
1.60459
1.58959
1.59251
1.6105
1.66434
1.74777
1.83817
1.88886
1.91358
1.91659
1.89329
1.86211
1.82051
1.76488
1.69388
1.65622
1.64284
1.70539
5.48235
35.1883
1.17811
1.16757
1.18749
1.21051
1.21645
1.20784
1.17857
1.16048
1.16248
1.18668
1.22024
1.23934
1.24568
1.24418
1.23299
1.21885
1.21359
1.21859
1.23947
1.28605
1.31762
1.33566
1.3515
1.35766
1.34941
1.32871
1.31022
1.29525
1.28367
1.2743
1.26908
1.2723
1.28476
1.30432
1.31499
1.32485
1.33852
1.36007
1.39309
1.41171
1.41744
1.41971
1.41518
1.40274
1.39574
1.40067
1.4193
1.43414
1.43252
1.41813
1.40164
1.39786
1.41112
1.45356
1.49614
1.52815
1.56048
1.59919
1.62208
1.63044
1.62934
1.60228
1.54437
1.48668
1.45022
1.43798
1.44107
1.4512
1.48709
1.59214
1.70848
1.76971
1.79326
1.80031
1.78921
1.76047
1.70795
1.64778
1.58982
1.55419
1.54806
1.55686
1.5785
1.64875
1.78431
1.86073
1.89347
1.91042
1.90803
1.88983
1.86239
1.81157
1.72463
1.65427
1.62234
1.61433
1.68802
5.60584
35.1248
1.12692
1.0884
1.09876
1.14809
1.19614
1.20991
1.21459
1.22155
1.23171
1.23908
1.2432
1.2445
1.23602
1.22953
1.22905
1.22851
1.2327
1.24857
1.26959
1.28003
1.29829
1.32
1.33188
1.33197
1.32296
1.31425
1.30644
1.30053
1.29858
1.30016
1.30571
1.31586
1.32288
1.32052
1.30541
1.29378
1.29452
1.30892
1.35159
1.40105
1.42769
1.43667
1.44333
1.44797
1.44955
1.4545
1.45618
1.4467
1.41518
1.37828
1.36191
1.36352
1.37355
1.40665
1.47878
1.55579
1.62062
1.65101
1.66105
1.65905
1.63732
1.58417
1.51217
1.45357
1.42553
1.4198
1.42464
1.432
1.45299
1.55157
1.7061
1.77066
1.78944
1.79258
1.77523
1.74029
1.69198
1.62225
1.56165
1.53584
1.53546
1.55153
1.60876
1.70614
1.79098
1.84589
1.87679
1.89478
1.88951
1.86289
1.81714
1.76459
1.71536
1.66545
1.64202
1.66244
1.75015
5.52169
35.124
1.1114
1.06759
1.07047
1.08418
1.13242
1.19676
1.24284
1.27499
1.28778
1.28646
1.27059
1.24827
1.2361
1.23688
1.24072
1.25264
1.27208
1.28415
1.2801
1.26327
1.25003
1.25201
1.27503
1.30243
1.31586
1.3183
1.3124
1.31346
1.32265
1.34404
1.36361
1.37036
1.35635
1.32012
1.28431
1.26948
1.2691
1.27471
1.30036
1.37055
1.42988
1.46516
1.4937
1.51201
1.5163
1.49989
1.46852
1.42246
1.38036
1.35654
1.35045
1.35381
1.36028
1.37342
1.43673
1.57301
1.64536
1.66607
1.67486
1.67663
1.64965
1.57176
1.48949
1.44121
1.42199
1.41903
1.4237
1.44436
1.51249
1.5866
1.64926
1.71044
1.73598
1.73542
1.71544
1.68583
1.65372
1.61502
1.57393
1.55239
1.55901
1.6104
1.67773
1.72375
1.76503
1.80788
1.83678
1.84916
1.82712
1.78902
1.76332
1.74655
1.73558
1.73716
1.74805
1.77423
1.80867
5.27468
35.1584
1.11588
1.07488
1.07597
1.08337
1.10131
1.15922
1.24551
1.2826
1.2931
1.29584
1.28188
1.26621
1.26241
1.26926
1.28738
1.30545
1.31386
1.30517
1.26408
1.21904
1.19902
1.19747
1.21422
1.26623
1.3118
1.33303
1.34652
1.36017
1.37501
1.38582
1.39135
1.38911
1.36546
1.31786
1.28127
1.26729
1.2674
1.27206
1.28021
1.31593
1.41943
1.50292
1.54289
1.55954
1.56242
1.53483
1.46795
1.40401
1.37243
1.35999
1.35648
1.36029
1.3762
1.40827
1.46197
1.55133
1.63299
1.65955
1.65964
1.63715
1.59999
1.54892
1.49441
1.45116
1.43279
1.43355
1.45413
1.51874
1.57436
1.59209
1.5985
1.60584
1.62492
1.64759
1.65895
1.65877
1.64867
1.62956
1.61277
1.61326
1.64461
1.68333
1.70464
1.71875
1.7315
1.7444
1.75849
1.75649
1.74264
1.73688
1.74201
1.76043
1.81069
1.84107
1.84575
1.8178
1.78279
5.09539
35.2259
1.13769
1.10722
1.10789
1.11526
1.13026
1.1597
1.20661
1.25336
1.27274
1.27672
1.27988
1.29121
1.31458
1.33466
1.34325
1.34465
1.33053
1.28043
1.21762
1.18421
1.17472
1.17586
1.18106
1.20899
1.27992
1.34713
1.39255
1.41703
1.42664
1.42485
1.40456
1.37508
1.3429
1.31198
1.28862
1.27635
1.27455
1.28046
1.29783
1.32709
1.39325
1.50443
1.55395
1.56746
1.56558
1.52551
1.46064
1.41402
1.38617
1.37506
1.37882
1.39861
1.42987
1.45758
1.47745
1.5014
1.54523
1.58176
1.59218
1.59122
1.58356
1.55782
1.51562
1.48476
1.47462
1.48381
1.52348
1.56741
1.5849
1.58957
1.56592
1.53631
1.53481
1.5619
1.6077
1.63634
1.64435
1.64799
1.66106
1.69351
1.71582
1.71992
1.71341
1.69948
1.6921
1.68847
1.68556
1.68517
1.6915
1.70402
1.7332
1.8035
1.85362
1.86692
1.86072
1.82916
1.77746
4.93113
35.3472
1.17221
1.16244
1.15627
1.15378
1.15641
1.16339
1.17201
1.18698
1.21304
1.2469
1.29241
1.34427
1.37365
1.38384
1.38635
1.37452
1.31881
1.236
1.18656
1.1683
1.16535
1.16731
1.17299
1.18559
1.22965
1.33931
1.41293
1.43436
1.44291
1.44312
1.41902
1.37382
1.33999
1.31745
1.30122
1.29503
1.29811
1.3136
1.33826
1.36145
1.38685
1.44576
1.51214
1.53686
1.53081
1.49835
1.46827
1.44307
1.42534
1.41914
1.42659
1.44226
1.45697
1.46487
1.46891
1.46247
1.45759
1.47901
1.52223
1.55443
1.56767
1.56899
1.54783
1.53021
1.52809
1.54627
1.57403
1.58766
1.58886
1.56312
1.52223
1.49948
1.49834
1.50866
1.54899
1.60537
1.64128
1.67341
1.71484
1.74124
1.75126
1.74601
1.71918
1.69102
1.67459
1.66153
1.648
1.64202
1.65117
1.67248
1.72825
1.79827
1.8367
1.8462
1.84459
1.83053
1.82696
4.8207
35.499
1.20094
1.217
1.21286
1.19653
1.17829
1.16185
1.15448
1.15336
1.16267
1.20427
1.29908
1.36832
1.38739
1.39514
1.39336
1.3507
1.2806
1.22444
1.18719
1.16951
1.16635
1.16882
1.17707
1.20504
1.2545
1.31523
1.38632
1.42515
1.43614
1.42115
1.38997
1.37609
1.36266
1.34366
1.33065
1.32674
1.33177
1.34446
1.35942
1.36964
1.37692
1.39022
1.4264
1.46539
1.48219
1.48273
1.4837
1.48218
1.47513
1.46732
1.46662
1.46674
1.4658
1.46306
1.44317
1.42338
1.4203
1.42791
1.45268
1.49902
1.54055
1.56245
1.57005
1.56878
1.5802
1.5963
1.60287
1.59956
1.57778
1.54402
1.51433
1.50086
1.5015
1.50934
1.52885
1.57355
1.6367
1.69097
1.72634
1.74403
1.75348
1.74377
1.72189
1.70093
1.67926
1.65612
1.63498
1.62247
1.62003
1.63592
1.69493
1.76649
1.8043
1.81621
1.82198
1.81764
1.84914
4.79791
35.6492
1.21694
1.23162
1.22903
1.22523
1.20956
1.17275
1.15011
1.149
1.16901
1.23209
1.30819
1.35728
1.37907
1.38029
1.34098
1.28622
1.25124
1.23028
1.20632
1.1888
1.18332
1.18579
1.20479
1.24832
1.27881
1.29148
1.31023
1.34697
1.37308
1.37943
1.3809
1.38735
1.39234
1.38622
1.36964
1.35765
1.3542
1.35701
1.36261
1.36749
1.37236
1.37825
1.38275
1.39297
1.42583
1.46701
1.48778
1.49214
1.49568
1.5028
1.49943
1.48355
1.46735
1.44899
1.42736
1.41604
1.4139
1.41876
1.42907
1.45075
1.49275
1.5353
1.56619
1.58638
1.60656
1.62436
1.62945
1.6133
1.58548
1.55757
1.53288
1.52273
1.52765
1.54015
1.55645
1.58137
1.62181
1.67367
1.7083
1.72485
1.72831
1.72358
1.72231
1.71933
1.70455
1.67595
1.64319
1.61998
1.61041
1.61742
1.64937
1.71398
1.75946
1.77661
1.78615
1.78925
1.83855
4.82451
35.7968
1.21086
1.22145
1.21651
1.20532
1.18322
1.1648
1.16169
1.17827
1.23339
1.27453
1.29132
1.3065
1.30984
1.28905
1.26875
1.26091
1.25599
1.24628
1.23276
1.2191
1.21245
1.21556
1.2435
1.27735
1.29069
1.29267
1.28308
1.27352
1.28762
1.33699
1.38239
1.39676
1.40151
1.40759
1.40778
1.39267
1.37359
1.36266
1.35662
1.36218
1.37593
1.38662
1.39245
1.38455
1.37971
1.39758
1.43719
1.46968
1.4949
1.51214
1.50837
1.49786
1.48342
1.4637
1.4423
1.43224
1.43547
1.44235
1.44614
1.44627
1.45496
1.47777
1.51931
1.56587
1.59635
1.60656
1.60415
1.60887
1.617
1.61795
1.60649
1.58869
1.57332
1.56709
1.57165
1.58099
1.59953
1.63514
1.66624
1.68443
1.69537
1.70681
1.71758
1.72411
1.72576
1.71355
1.68252
1.65015
1.62774
1.61783
1.6221
1.6624
1.70709
1.72493
1.73744
1.74511
1.80168
4.91448
35.9848
1.18744
1.16668
1.16225
1.16135
1.16296
1.16755
1.19984
1.26346
1.29633
1.30232
1.29283
1.25565
1.21429
1.205
1.21892
1.24659
1.26151
1.26331
1.2587
1.25134
1.24829
1.25812
1.28474
1.30202
1.30609
1.30141
1.27492
1.24777
1.24405
1.26112
1.32499
1.3801
1.40358
1.41644
1.42438
1.42349
1.39407
1.3682
1.36745
1.38817
1.41468
1.42857
1.42541
1.38438
1.35287
1.34066
1.34754
1.38521
1.43921
1.47276
1.49589
1.517
1.52723
1.51947
1.49648
1.47917
1.46916
1.4614
1.45372
1.44425
1.43737
1.44022
1.45134
1.48262
1.52919
1.56446
1.59297
1.62385
1.65677
1.68099
1.68828
1.65761
1.61044
1.58346
1.57535
1.57699
1.58224
1.5935
1.61728
1.64647
1.67389
1.69938
1.72512
1.74359
1.75445
1.75665
1.73332
1.68948
1.64707
1.61897
1.61139
1.61402
1.63953
1.65573
1.67149
1.69015
1.75282
5.09543
36.1949
1.14849
1.11527
1.11684
1.12447
1.14383
1.19145
1.27659
1.3207
1.32797
1.32235
1.28574
1.20876
1.17014
1.1643
1.17164
1.20447
1.24672
1.26524
1.27099
1.27718
1.28881
1.30656
1.32144
1.32989
1.33164
1.32161
1.28049
1.24923
1.24131
1.24225
1.25396
1.30785
1.37247
1.4015
1.40815
1.4051
1.40623
1.40624
1.42153
1.4502
1.46475
1.46673
1.43584
1.3646
1.30955
1.28494
1.28078
1.29226
1.34367
1.42929
1.50384
1.55427
1.5808
1.58696
1.56227
1.51883
1.48638
1.46431
1.44622
1.43235
1.42007
1.41115
1.41032
1.41752
1.44201
1.51332
1.60692
1.677
1.71074
1.72574
1.72519
1.68816
1.63926
1.60379
1.58026
1.5666
1.56549
1.57162
1.58336
1.61327
1.66093
1.71176
1.74592
1.76551
1.77542
1.77819
1.75292
1.70555
1.6563
1.61783
1.58767
1.57051
1.57061
1.59839
1.63079
1.64585
1.70941
5.22907
36.3187
1.11586
1.09059
1.09364
1.10127
1.14368
1.25302
1.32629
1.3442
1.34709
1.32469
1.24903
1.18845
1.16578
1.16081
1.16267
1.17074
1.20374
1.24649
1.27249
1.29377
1.32406
1.34901
1.3631
1.3683
1.3674
1.34707
1.29468
1.25772
1.2428
1.23434
1.23035
1.23704
1.28068
1.34314
1.37431
1.39784
1.43929
1.48909
1.50955
1.50681
1.49889
1.47587
1.3958
1.31113
1.26573
1.24998
1.25081
1.25721
1.27587
1.37264
1.52427
1.60122
1.62579
1.63407
1.61678
1.55586
1.49152
1.45642
1.43798
1.4235
1.40829
1.39682
1.39371
1.39728
1.40789
1.46547
1.61055
1.69809
1.72113
1.72805
1.71309
1.66888
1.61553
1.58059
1.56263
1.55676
1.55801
1.56235
1.56896
1.59055
1.65564
1.72125
1.75595
1.77125
1.77736
1.77601
1.74905
1.70248
1.65116
1.59504
1.56012
1.54455
1.53985
1.56641
1.61314
1.63563
1.70518
5.28297
36.3533
1.09769
1.08674
1.08975
1.10618
1.19866
1.30513
1.34049
1.35058
1.34552
1.29656
1.23516
1.19562
1.17308
1.16722
1.16993
1.17445
1.17798
1.19364
1.23676
1.29335
1.3521
1.39256
1.41202
1.41581
1.40487
1.3661
1.31067
1.26275
1.22987
1.21443
1.2099
1.21168
1.22048
1.25632
1.33137
1.42732
1.52457
1.56975
1.57613
1.55786
1.51925
1.43968
1.33521
1.2692
1.24205
1.23583
1.24046
1.24893
1.26557
1.34917
1.53041
1.61625
1.63536
1.63952
1.62048
1.57389
1.51938
1.47013
1.44022
1.42177
1.40577
1.39561
1.39474
1.40004
1.42483
1.51737
1.61788
1.67361
1.69827
1.69513
1.65316
1.60835
1.57846
1.56065
1.55343
1.55297
1.55637
1.56608
1.58478
1.61315
1.65428
1.70848
1.74691
1.76476
1.77179
1.76899
1.73864
1.67586
1.6154
1.58165
1.56245
1.55229
1.55033
1.58399
1.64909
1.6584
1.72546
5.19928
36.2117
1.08706
1.08647
1.09705
1.16016
1.28077
1.33236
1.34453
1.34775
1.31509
1.25804
1.22386
1.20405
1.18925
1.18109
1.17806
1.1734
1.16738
1.16814
1.18381
1.26272
1.3748
1.43996
1.46285
1.46558
1.43796
1.36672
1.29076
1.24021
1.21666
1.20784
1.20639
1.20912
1.21602
1.22927
1.28466
1.45703
1.57436
1.59867
1.60542
1.59425
1.5255
1.40159
1.31098
1.26191
1.24131
1.23848
1.24345
1.25489
1.30078
1.41803
1.52572
1.5914
1.61504
1.60977
1.57009
1.53119
1.50861
1.49311
1.47053
1.44175
1.41651
1.40462
1.4053
1.42414
1.5026
1.57529
1.60758
1.62789
1.63097
1.60179
1.57366
1.56066
1.55507
1.55241
1.55707
1.57361
1.59176
1.6037
1.61167
1.61777
1.63248
1.67391
1.71672
1.73939
1.74765
1.74081
1.68928
1.62596
1.59867
1.58891
1.58728
1.60533
1.63571
1.66793
1.68419
1.66581
1.73453
5.12837
36.0792
1.06944
1.07387
1.11517
1.24566
1.33936
1.36014
1.36428
1.34544
1.28257
1.23517
1.21663
1.20743
1.20001
1.19279
1.17943
1.16215
1.15678
1.15898
1.16628
1.22603
1.38849
1.47656
1.49622
1.50245
1.46883
1.36606
1.26671
1.22248
1.20971
1.20864
1.21102
1.21638
1.22439
1.24781
1.34922
1.49417
1.57146
1.59687
1.59781
1.54689
1.45592
1.37621
1.31827
1.27621
1.25644
1.25523
1.26272
1.3067
1.41047
1.47883
1.50414
1.52321
1.53381
1.52584
1.51553
1.51564
1.51981
1.51991
1.50782
1.4774
1.44891
1.43853
1.44789
1.50677
1.56812
1.58747
1.59093
1.57567
1.53777
1.51862
1.51934
1.52805
1.53733
1.55223
1.59226
1.62239
1.63331
1.63388
1.62122
1.60916
1.60999
1.62636
1.66474
1.68844
1.69692
1.68074
1.6314
1.60471
1.60148
1.61344
1.66174
1.6999
1.71153
1.7059
1.68699
1.6592
1.7237
5.12847
35.9137
1.05574
1.06435
1.16125
1.3032
1.35667
1.37135
1.37458
1.33201
1.26569
1.2326
1.21714
1.21006
1.2051
1.18817
1.16467
1.1545
1.15441
1.15839
1.1689
1.2537
1.41734
1.48521
1.50376
1.50613
1.45282
1.33848
1.25756
1.22423
1.2152
1.21549
1.21943
1.22726
1.25974
1.35258
1.43598
1.48589
1.52839
1.54266
1.51181
1.46093
1.41927
1.38164
1.34044
1.30843
1.2951
1.29957
1.33314
1.41499
1.47498
1.49371
1.49675
1.46592
1.42963
1.42896
1.45612
1.49856
1.5223
1.53026
1.52629
1.5143
1.5003
1.49741
1.52594
1.57167
1.58707
1.58366
1.55918
1.50851
1.47948
1.47663
1.4868
1.50235
1.52558
1.579
1.63034
1.65072
1.6542
1.6504
1.62471
1.59439
1.58986
1.59779
1.61938
1.63884
1.64661
1.63024
1.60893
1.6029
1.61669
1.67204
1.71573
1.72792
1.7233
1.70471
1.67032
1.62549
1.63466
5.24925
35.8261
1.05634
1.10111
1.22624
1.31143
1.35348
1.36699
1.35361
1.30465
1.26478
1.23892
1.22475
1.21481
1.19434
1.16841
1.15318
1.15087
1.15355
1.16091
1.20775
1.32441
1.42
1.47138
1.49008
1.47263
1.39805
1.31796
1.26501
1.23786
1.23027
1.23187
1.23735
1.26506
1.36328
1.44555
1.47013
1.47658
1.47532
1.43915
1.40998
1.40335
1.40436
1.40094
1.38278
1.35965
1.35486
1.37784
1.43532
1.48117
1.49703
1.49883
1.47037
1.4044
1.36965
1.36986
1.38646
1.43577
1.49533
1.52766
1.54238
1.55106
1.5541
1.56674
1.59258
1.60125
1.59267
1.5654
1.51685
1.47208
1.45154
1.44997
1.46036
1.48053
1.52574
1.593
1.63842
1.6568
1.66257
1.6603
1.63227
1.59873
1.58636
1.58924
1.59763
1.60403
1.60294
1.59367
1.59205
1.60322
1.65114
1.70562
1.73293
1.73894
1.72787
1.69668
1.65841
1.61098
1.57056
5.27732
35.8631
1.07803
1.18616
1.25682
1.28768
1.31262
1.32096
1.30103
1.28308
1.27591
1.26355
1.24055
1.21611
1.19268
1.17038
1.15733
1.15507
1.15898
1.20137
1.29509
1.35508
1.39394
1.42365
1.42759
1.39296
1.35496
1.32348
1.28923
1.26395
1.25412
1.25439
1.27154
1.35241
1.43581
1.46664
1.47598
1.47172
1.40585
1.34346
1.32712
1.33793
1.37014
1.39459
1.40107
1.41031
1.44034
1.47611
1.49475
1.50247
1.50549
1.48299
1.42303
1.37321
1.34853
1.342
1.34706
1.36711
1.43152
1.5081
1.54747
1.56489
1.58564
1.61492
1.62707
1.62075
1.59955
1.55743
1.51039
1.47424
1.45693
1.46197
1.47551
1.49223
1.52129
1.57999
1.62855
1.64325
1.64469
1.6354
1.62248
1.61127
1.59984
1.5942
1.59287
1.59073
1.57784
1.56801
1.56921
1.59289
1.64854
1.70094
1.73082
1.74174
1.72086
1.68788
1.65354
1.60403
1.56644
5.14811
36.0107
1.13912
1.24854
1.27015
1.27494
1.26977
1.24599
1.24003
1.25502
1.27075
1.27582
1.27435
1.2475
1.20761
1.17889
1.16771
1.1692
1.19919
1.28729
1.3401
1.35562
1.36467
1.36064
1.33348
1.3225
1.3266
1.33009
1.32137
1.30262
1.2862
1.28624
1.33962
1.42251
1.4578
1.46726
1.46816
1.42226
1.34704
1.30245
1.28955
1.29499
1.31445
1.35687
1.409
1.47561
1.52726
1.54454
1.5439
1.5216
1.48578
1.44267
1.40114
1.37225
1.35366
1.34924
1.36374
1.3865
1.40126
1.43324
1.49346
1.54473
1.58483
1.61072
1.61643
1.60581
1.58121
1.56187
1.5342
1.5064
1.49496
1.49403
1.49501
1.49856
1.50826
1.53951
1.577
1.59808
1.60852
1.61645
1.62338
1.62454
1.62319
1.61502
1.60324
1.58893
1.56851
1.55011
1.54502
1.56716
1.63156
1.68645
1.71369
1.72527
1.7042
1.66707
1.64236
1.61339
1.63294
5.02517
36.1881
1.19495
1.2645
1.2726
1.26817
1.22034
1.18713
1.18702
1.21151
1.25439
1.27571
1.2809
1.27976
1.25019
1.21141
1.19836
1.20804
1.2709
1.332
1.3501
1.3541
1.34208
1.29278
1.26007
1.26054
1.28672
1.31893
1.32917
1.32626
1.3275
1.35344
1.41552
1.44922
1.45867
1.45916
1.42847
1.36531
1.31747
1.28892
1.2757
1.27335
1.27829
1.30355
1.40031
1.49752
1.53933
1.55449
1.55816
1.54175
1.48506
1.4357
1.40752
1.38711
1.38123
1.38979
1.40153
1.4058
1.40126
1.39793
1.40977
1.46864
1.5401
1.56911
1.57137
1.57336
1.58074
1.57884
1.5729
1.56283
1.5459
1.52089
1.50091
1.49056
1.48886
1.4964
1.51844
1.55156
1.58409
1.61303
1.63336
1.64369
1.64707
1.64126
1.63122
1.61512
1.58619
1.55178
1.53105
1.53251
1.57234
1.63639
1.68063
1.69387
1.68595
1.65112
1.63049
1.61037
1.66931
5.03846
36.4163
1.23824
1.27133
1.26548
1.2315
1.18242
1.15969
1.15646
1.1645
1.20326
1.25575
1.27835
1.28404
1.28438
1.26841
1.25442
1.27027
1.31637
1.34119
1.34402
1.34158
1.315
1.26977
1.23745
1.22777
1.23489
1.26587
1.30424
1.3274
1.36052
1.42896
1.4681
1.47136
1.46089
1.43926
1.38802
1.33635
1.30117
1.28042
1.27369
1.27906
1.2938
1.33258
1.38271
1.45255
1.50597
1.5218
1.51516
1.49374
1.47937
1.46352
1.44792
1.44522
1.44786
1.44667
1.43609
1.41688
1.39434
1.37746
1.37264
1.38844
1.45102
1.51347
1.54654
1.57447
1.60047
1.61652
1.61637
1.60319
1.57298
1.53176
1.49454
1.47666
1.47327
1.47716
1.48614
1.50907
1.55017
1.59877
1.63607
1.65389
1.66368
1.66651
1.66645
1.65565
1.61674
1.55913
1.51934
1.50338
1.5145
1.55967
1.62052
1.65399
1.65921
1.64817
1.63665
1.61332
1.66885
5.10537
36.669
1.25934
1.26543
1.23992
1.20393
1.17763
1.16052
1.15079
1.15057
1.1585
1.20152
1.25856
1.28513
1.29577
1.30772
1.32848
1.34209
1.34417
1.34152
1.34026
1.32718
1.29085
1.2598
1.23718
1.21958
1.21492
1.22195
1.2459
1.29383
1.36751
1.44632
1.48691
1.49422
1.48114
1.43687
1.38806
1.34164
1.30893
1.29538
1.29675
1.3066
1.33087
1.35264
1.36126
1.37292
1.40451
1.44314
1.4669
1.47757
1.48899
1.50739
1.52469
1.52656
1.51305
1.48821
1.45328
1.40854
1.3736
1.35628
1.35099
1.35442
1.3773
1.44805
1.53967
1.61014
1.64729
1.65806
1.65331
1.62785
1.57509
1.51934
1.49204
1.48011
1.47676
1.47962
1.48547
1.49687
1.51857
1.55594
1.61074
1.64972
1.667
1.67902
1.6846
1.68014
1.64298
1.57135
1.51773
1.49549
1.49532
1.50795
1.54766
1.5993
1.62586
1.63161
1.62617
1.60158
1.65914
5.19956
36.8121
1.26939
1.24072
1.20104
1.18268
1.17407
1.16823
1.16097
1.16065
1.16501
1.1706
1.19547
1.24623
1.28853
1.33169
1.37974
1.39945
1.39437
1.37362
1.35348
1.32232
1.2788
1.24487
1.22372
1.21158
1.20726
1.21006
1.2164
1.23381
1.31677
1.42586
1.47205
1.48001
1.47939
1.46001
1.4032
1.35664
1.33354
1.32784
1.33098
1.34034
1.35202
1.355
1.34537
1.32462
1.32137
1.34918
1.41353
1.47673
1.52674
1.56854
1.59063
1.59557
1.57088
1.51757
1.44931
1.39241
1.35786
1.34419
1.34255
1.34726
1.3614
1.40144
1.52437
1.63582
1.66532
1.67129
1.66501
1.6282
1.56341
1.52415
1.50507
1.4963
1.49503
1.49993
1.51058
1.5233
1.52384
1.52248
1.55208
1.61766
1.65548
1.66971
1.67636
1.67567
1.65096
1.59777
1.54184
1.5088
1.49688
1.49576
1.50354
1.53119
1.56784
1.58944
1.59235
1.5765
1.63741
5.34805
36.8916
1.30137
1.22918
1.18695
1.17799
1.17547
1.17612
1.18007
1.18101
1.17218
1.16515
1.16522
1.17751
1.22757
1.31806
1.39893
1.44002
1.45009
1.43586
1.38865
1.33008
1.27635
1.23319
1.20973
1.20236
1.2037
1.20846
1.21504
1.23108
1.27636
1.35812
1.42817
1.45895
1.46735
1.46374
1.43554
1.3988
1.38016
1.37224
1.36934
1.36938
1.36655
1.34668
1.31198
1.29494
1.29229
1.29827
1.33551
1.44181
1.54827
1.5939
1.61107
1.61576
1.60221
1.55375
1.46829
1.39133
1.35393
1.34439
1.34582
1.35461
1.37959
1.4439
1.5411
1.62555
1.65998
1.66299
1.63641
1.58771
1.54795
1.53083
1.52796
1.53763
1.5497
1.55623
1.55293
1.53743
1.51714
1.50285
1.49891
1.54036
1.60102
1.63007
1.64413
1.65599
1.65108
1.6307
1.60185
1.56918
1.53538
1.50669
1.48531
1.47891
1.48734
1.50068
1.52064
1.53479
1.62467
5.54167
37.0349
1.29272
1.23485
1.19671
1.1859
1.1865
1.19587
1.20196
1.19608
1.17788
1.16312
1.15938
1.16234
1.17434
1.25865
1.39795
1.45548
1.46999
1.47268
1.44376
1.35506
1.26711
1.22107
1.20403
1.20118
1.20462
1.21254
1.23142
1.2644
1.28973
1.30594
1.3362
1.38639
1.42698
1.44531
1.45059
1.45551
1.45073
1.43865
1.42347
1.40183
1.36488
1.3195
1.29494
1.28924
1.29104
1.30535
1.34666
1.4159
1.51184
1.57867
1.6027
1.60376