/*--------------------------------*- C++ -*----------------------------------*\
  =========                 |
  \\      /  F ield         | OpenFOAM: The Open Source CFD Toolbox
   \\    /   O peration     | Website:  https://openfoam.org
    \\  /    A nd           | Version:  12
     \\/     M anipulation  |
\*---------------------------------------------------------------------------*/
FoamFile
{
    format      ascii;
    class       volScalarField;
    location    "5.2";
    object      T;
}
// * * * * * * * * * * * * * * * * * * * * * * * * * * * * * * * * * * * * * //

dimensions      [0 0 0 1 0 0 0];

internalField   nonuniform List<scalar> 
9801
(
0.865379
0.866079
0.866206
0.866795
0.86742
0.868328
0.870079
0.873454
0.876019
0.877201
0.877909
0.878362
0.878754
0.87919
0.879869
0.880701
0.882082
0.885149
0.888244
0.889794
0.890574
0.89095
0.891288
0.891747
0.892343
0.893144
0.894341
0.896947
0.90056
0.902605
0.903545
0.903979
0.904133
0.904471
0.905015
0.905807
0.906888
0.909038
0.912868
0.915595
0.916714
0.917187
0.917272
0.917458
0.917829
0.918633
0.919641
0.921395
0.925592
0.928943
0.930274
0.930818
0.930744
0.930759
0.931163
0.931799
0.93288
0.934435
0.938671
0.942928
0.944682
0.945176
0.94477
0.944355
0.944548
0.94522
0.946399
0.948163
0.952979
0.958052
0.960229
0.961371
0.960421
0.958467
0.958388
0.959348
0.960923
0.963448
0.9696
0.975591
0.978509
0.979911
0.979077
0.975742
0.974911
0.976324
0.978945
0.984893
0.995273
1.00213
1.00651
1.00998
1.01055
1.00743
1.00715
1.0131
1.02898
1.15681
1.4801
0.868624
0.869172
0.868958
0.86956
0.870417
0.871532
0.873854
0.876817
0.878822
0.880145
0.881118
0.881488
0.881283
0.881669
0.882541
0.883556
0.88526
0.888357
0.890881
0.892455
0.89352
0.89409
0.893759
0.893908
0.894678
0.895713
0.897045
0.899765
0.902923
0.90487
0.906118
0.906945
0.906597
0.906393
0.90708
0.908149
0.909375
0.911571
0.915068
0.917569
0.918954
0.919877
0.919614
0.919002
0.919508
0.920649
0.921891
0.92372
0.927514
0.930669
0.932329
0.933398
0.933204
0.932121
0.932439
0.933446
0.934767
0.93634
0.940251
0.944374
0.946454
0.947517
0.947522
0.945745
0.945585
0.946585
0.947992
0.949663
0.954298
0.959397
0.961816
0.963232
0.963209
0.96044
0.959661
0.960824
0.962574
0.96515
0.971196
0.977228
0.980237
0.982065
0.982714
0.978888
0.976625
0.978489
0.981454
0.986725
0.995176
1.00179
1.00667
1.01131
1.01328
1.01017
1.00821
1.01165
1.02084
1.14995
1.49327
0.871631
0.872408
0.872082
0.872477
0.873291
0.874443
0.876914
0.879957
0.88181
0.883075
0.884096
0.884589
0.884402
0.884643
0.885423
0.886458
0.888212
0.891366
0.893816
0.895303
0.896415
0.897099
0.896894
0.89688
0.89755
0.898599
0.899935
0.902643
0.90578
0.907658
0.90895
0.909918
0.909818
0.909497
0.910051
0.911077
0.912287
0.914362
0.91788
0.920333
0.921756
0.922858
0.922856
0.922204
0.922629
0.923688
0.92492
0.926612
0.930233
0.933393
0.935153
0.936431
0.936592
0.93543
0.935534
0.936475
0.937875
0.939448
0.943111
0.947169
0.949349
0.950637
0.951149
0.949477
0.948827
0.949698
0.951219
0.953023
0.957274
0.962292
0.964944
0.966625
0.96743
0.96527
0.963681
0.964505
0.966259
0.968626
0.974043
0.980202
0.983892
0.986418
0.9883
0.985765
0.982158
0.98328
0.986366
0.990675
0.998446
1.00657
1.01229
1.01752
1.02149
1.0194
1.01783
1.02195
1.0287
1.15261
1.50374
0.875165
0.876186
0.875666
0.875859
0.876571
0.877733
0.880382
0.883498
0.885389
0.886632
0.887627
0.888321
0.888214
0.888221
0.888829
0.889781
0.89156
0.894772
0.897254
0.898745
0.899847
0.900727
0.900781
0.900599
0.901138
0.902101
0.903455
0.906238
0.909338
0.911192
0.91247
0.913517
0.913712
0.913294
0.913698
0.914608
0.915807
0.917999
0.921652
0.924172
0.925614
0.92677
0.927099
0.92629
0.926397
0.927216
0.928366
0.930153
0.933954
0.937384
0.939271
0.94061
0.941198
0.940043
0.939631
0.940383
0.941673
0.943338
0.947079
0.951359
0.953728
0.955146
0.956234
0.954976
0.953568
0.954116
0.95555
0.957403
0.961483
0.966878
0.970039
0.971969
0.973423
0.972218
0.969432
0.96953
0.971341
0.973684
0.978378
0.985292
0.989928
0.992768
0.995045
0.994446
0.990488
0.989728
0.992609
0.996532
1.00297
1.0114
1.01788
1.02336
1.02896
1.02998
1.0279
1.0285
1.02901
1.15433
1.51199
0.878616
0.879675
0.879127
0.879343
0.88008
0.881223
0.883948
0.887089
0.88899
0.890268
0.89129
0.8921
0.892032
0.89185
0.892408
0.89333
0.895069
0.898324
0.900797
0.902299
0.903448
0.904447
0.90473
0.904485
0.90497
0.905895
0.907191
0.910016
0.913126
0.914991
0.916279
0.917349
0.917728
0.917273
0.917654
0.91862
0.919832
0.922075
0.925764
0.928351
0.929857
0.931035
0.931646
0.930792
0.930592
0.931441
0.932635
0.934449
0.938218
0.941774
0.943826
0.945242
0.94622
0.945372
0.944278
0.94484
0.946116
0.947782
0.951488
0.955993
0.958645
0.960239
0.961687
0.961343
0.959132
0.958897
0.960223
0.962025
0.965635
0.97144
0.975339
0.977475
0.979119
0.979265
0.976269
0.974934
0.97635
0.978614
0.982122
0.988911
0.994909
0.998439
1.00106
1.00266
0.999649
0.996621
0.997595
1.00112
1.00626
1.01425
1.02155
1.02734
1.03287
1.03674
1.03534
1.033
1.02863
1.1528
1.51578
0.881947
0.882977
0.882574
0.882931
0.883727
0.884861
0.887617
0.890839
0.892692
0.893918
0.894922
0.895683
0.895542
0.895335
0.895909
0.896872
0.898662
0.902157
0.904795
0.906274
0.907398
0.908396
0.908702
0.908245
0.908553
0.909444
0.910718
0.913555
0.916993
0.919046
0.920405
0.921546
0.922195
0.921605
0.921565
0.922385
0.92354
0.925644
0.929458
0.932322
0.934007
0.935299
0.936252
0.935664
0.934812
0.935364
0.936511
0.938245
0.941971
0.945815
0.948064
0.949581
0.950821
0.95075
0.949072
0.94889
0.949994
0.951521
0.954877
0.959902
0.963052
0.964729
0.96624
0.966924
0.96475
0.963287
0.964147
0.965801
0.968535
0.974251
0.979388
0.982111
0.983878
0.985024
0.982915
0.980216
0.980332
0.982246
0.984788
0.990129
0.997345
1.00203
1.00513
1.00763
1.00735
1.00309
1.00166
1.00383
1.00761
1.01383
1.02129
1.02734
1.03273
1.03745
1.0391
1.03651
1.02916
1.14819
1.51721
0.885147
0.886228
0.885953
0.886352
0.88716
0.888264
0.890916
0.894327
0.896225
0.897381
0.898314
0.898992
0.898856
0.898641
0.899206
0.900167
0.901825
0.905435
0.908463
0.910068
0.911188
0.912134
0.912475
0.911769
0.911731
0.912506
0.913667
0.916404
0.920337
0.922747
0.924207
0.925384
0.926269
0.925807
0.925109
0.925584
0.926625
0.928487
0.932382
0.935639
0.937485
0.938847
0.940006
0.940102
0.938824
0.938736
0.939688
0.941152
0.944584
0.948938
0.951521
0.953115
0.954433
0.95509
0.953467
0.952451
0.95313
0.954451
0.956937
0.962164
0.966323
0.968364
0.969878
0.970914
0.969426
0.967308
0.967381
0.968729
0.970614
0.974923
0.981244
0.985098
0.987248
0.988894
0.988475
0.98505
0.98358
0.984559
0.986624
0.989952
0.996866
1.00324
1.00705
1.00977
1.01174
1.00961
1.00583
1.00571
1.00819
1.0124
1.01941
1.02606
1.03126
1.03575
1.03883
1.03831
1.03135
1.14442
1.51782
0.888304
0.889487
0.889219
0.889486
0.890217
0.89122
0.893478
0.897003
0.899168
0.900422
0.901381
0.90216
0.902202
0.901887
0.902328
0.903225
0.904592
0.907885
0.91119
0.913
0.914197
0.91516
0.915706
0.915068
0.914767
0.915426
0.916503
0.918837
0.922882
0.925635
0.927212
0.928393
0.929371
0.929245
0.928171
0.928293
0.929224
0.930714
0.934347
0.938203
0.940339
0.941745
0.942934
0.943499
0.942217
0.941566
0.942198
0.943392
0.945907
0.950719
0.954122
0.955913
0.957258
0.958255
0.957152
0.955508
0.955624
0.956694
0.958326
0.962525
0.967919
0.970821
0.972529
0.973896
0.973476
0.970915
0.970001
0.970737
0.972261
0.974728
0.980796
0.986476
0.989429
0.991357
0.992562
0.990058
0.986678
0.986436
0.987956
0.990121
0.994643
1.00205
1.00731
1.01056
1.01313
1.01452
1.0114
1.00807
1.00872
1.01145
1.01616
1.02305
1.02869
1.0332
1.03684
1.0383
1.03439
1.14247
1.51838
0.891037
0.892297
0.892022
0.892136
0.892756
0.893657
0.895444
0.898875
0.901383
0.902846
0.903932
0.904838
0.90514
0.904706
0.904998
0.905804
0.906913
0.909653
0.913071
0.9151
0.916425
0.917492
0.918298
0.91792
0.91744
0.918024
0.919043
0.920818
0.924644
0.927726
0.92939
0.930599
0.931629
0.931885
0.930738
0.930594
0.931411
0.932634
0.935571
0.939928
0.94253
0.944019
0.945207
0.946024
0.945004
0.943838
0.944158
0.945194
0.946847
0.951231
0.955711
0.958022
0.959432
0.960554
0.960155
0.958107
0.957605
0.9583
0.959606
0.962081
0.967847
0.972292
0.974553
0.97604
0.976781
0.974584
0.972247
0.972191
0.973351
0.97499
0.978905
0.985952
0.990461
0.992762
0.994417
0.994723
0.991107
0.988601
0.988963
0.990581
0.993017
0.998878
1.00608
1.01066
1.01363
1.01603
1.01636
1.01259
1.01009
1.01117
1.01409
1.01936
1.02588
1.03076
1.03443
1.03683
1.03646
1.14301
1.51903
0.893202
0.894574
0.894441
0.894336
0.894833
0.895691
0.897195
0.900447
0.903178
0.904789
0.905954
0.906906
0.907466
0.907075
0.907113
0.907776
0.908731
0.910922
0.914488
0.916806
0.918249
0.91938
0.920318
0.920247
0.91963
0.920034
0.920909
0.92215
0.925443
0.929094
0.93103
0.932294
0.933373
0.933956
0.932941
0.932489
0.933184
0.934261
0.936204
0.940606
0.943987
0.945691
0.946897
0.947884
0.947417
0.945815
0.945761
0.946628
0.947869
0.950855
0.956166
0.959418
0.96109
0.962306
0.962773
0.960807
0.95928
0.959534
0.960653
0.962209
0.966481
0.972624
0.975998
0.977788
0.979063
0.978353
0.9749
0.973543
0.974194
0.975617
0.977616
0.983216
0.99
0.993489
0.995534
0.997245
0.996506
0.992003
0.990218
0.991173
0.993067
0.996153
1.00279
1.00919
1.01315
1.01588
1.01812
1.01804
1.01404
1.01197
1.01331
1.01628
1.02183
1.02789
1.03215
1.03472
1.0371
1.14566
1.51981
0.894791
0.89627
0.896396
0.896209
0.896614
0.897455
0.898794
0.901835
0.90469
0.906346
0.907508
0.908464
0.909163
0.908902
0.908692
0.909273
0.910223
0.912015
0.915676
0.918378
0.919857
0.920987
0.921943
0.922174
0.92142
0.921459
0.922161
0.923213
0.925666
0.929883
0.93245
0.933839
0.934946
0.935756
0.93507
0.934189
0.934544
0.935436
0.936713
0.940308
0.944792
0.947096
0.948387
0.949473
0.949699
0.947952
0.947204
0.947794
0.948875
0.950577
0.955418
0.960209
0.96248
0.963803
0.964829
0.963858
0.961253
0.960727
0.961604
0.962951
0.965169
0.971117
0.976388
0.978801
0.980243
0.981171
0.97909
0.975757
0.975266
0.976231
0.9778
0.980589
0.987496
0.993507
0.996394
0.998192
0.999363
0.997425
0.993359
0.992414
0.993551
0.99554
0.999372
1.00631
1.01196
1.01556
1.01822
1.02012
1.01933
1.01538
1.0136
1.01491
1.0178
1.02351
1.0291
1.0325
1.03638
1.14969
1.52068
0.89614
0.897699
0.898045
0.897901
0.898231
0.899023
0.900105
0.902841
0.905984
0.907666
0.908798
0.909754
0.910523
0.910369
0.910074
0.910625
0.911548
0.912946
0.916396
0.919692
0.921335
0.922401
0.923325
0.92376
0.922876
0.922558
0.923208
0.924238
0.925985
0.930199
0.933659
0.935342
0.936433
0.937358
0.937163
0.93577
0.935591
0.936317
0.937438
0.939776
0.944812
0.948191
0.949824
0.950941
0.951729
0.950467
0.948767
0.94885
0.949723
0.950973
0.953988
0.959881
0.96352
0.965269
0.966426
0.966774
0.964224
0.962361
0.962625
0.963623
0.965
0.968405
0.975168
0.979345
0.981353
0.982879
0.983354
0.979904
0.977173
0.977345
0.9785
0.980099
0.983744
0.991106
0.996069
0.99844
1.00035
1.00163
0.998932
0.994981
0.9945
0.995883
0.998112
1.00264
1.00937
1.01434
1.01764
1.02019
1.02184
1.02063
1.01654
1.0148
1.01589
1.01849
1.02429
1.02914
1.03434
1.15447
1.5215
0.897529
0.89913
0.89963
0.899486
0.89965
0.900302
0.901148
0.903174
0.906823
0.908983
0.910133
0.911092
0.91193
0.911927
0.911528
0.91195
0.912782
0.913801
0.916379
0.920383
0.9226
0.92374
0.924666
0.925257
0.924529
0.923926
0.92446
0.925428
0.926656
0.92992
0.934293
0.936566
0.93779
0.93874
0.939057
0.937573
0.936801
0.937416
0.938459
0.939849
0.943953
0.948748
0.951051
0.952331
0.953354
0.953139
0.950835
0.950029
0.950685
0.951789
0.953354
0.95812
0.96372
0.966332
0.96781
0.968877
0.96804
0.964886
0.963717
0.964224
0.96535
0.967066
0.972241
0.978932
0.982267
0.983991
0.985397
0.984969
0.981141
0.979033
0.979307
0.980407
0.982159
0.987068
0.994562
0.998968
1.0012
1.0029
1.00337
1.00017
0.996901
0.996758
0.998167
1.00052
1.0057
1.01221
1.01667
1.01963
1.02196
1.0233
1.02174
1.01742
1.01541
1.01603
1.01868
1.02419
1.03079
1.15899
1.52205
0.899063
0.900669
0.901228
0.900987
0.900777
0.901202
0.901997
0.90339
0.907071
0.91022
0.911677
0.912682
0.913569
0.913812
0.913158
0.913201
0.91377
0.914597
0.916169
0.920259
0.923492
0.92507
0.926156
0.927047
0.926794
0.925742
0.925872
0.926612
0.927531
0.929388
0.93396
0.937263
0.938876
0.940028
0.940927
0.940105
0.938586
0.938717
0.939555
0.940596
0.942832
0.948181
0.951867
0.953594
0.954737
0.955489
0.953811
0.951777
0.951809
0.952643
0.953794
0.956236
0.962346
0.966937
0.969031
0.970458
0.971243
0.968746
0.965602
0.965266
0.966223
0.967532
0.969846
0.976247
0.982113
0.984774
0.986452
0.987849
0.986415
0.982031
0.980482
0.981292
0.982716
0.984821
0.990543
0.997479
1.0011
1.00312
1.00497
1.00549
1.00186
0.998649
0.998715
1.00027
1.00289
1.00857
1.01466
1.01864
1.02133
1.02345
1.02456
1.02275
1.01804
1.01537
1.01568
1.01816
1.02594
1.16204
1.52226
0.900609
0.9022
0.902743
0.90243
0.901858
0.902199
0.902956
0.904023
0.907001
0.911101
0.91324
0.914303
0.915171
0.915699
0.914882
0.914225
0.914589
0.915397
0.916538
0.919784
0.92416
0.926463
0.927698
0.928691
0.929141
0.927913
0.927175
0.92748
0.928261
0.929445
0.933034
0.937735
0.940143
0.941483
0.942585
0.942866
0.941035
0.940115
0.94049
0.941344
0.942602
0.946579
0.95204
0.954709
0.956139
0.957221
0.957084
0.954386
0.953109
0.953572
0.954554
0.955864
0.959733
0.966193
0.969737
0.971444
0.972691
0.972892
0.969718
0.967357
0.96748
0.968386
0.969721
0.972876
0.979881
0.984871
0.98714
0.988596
0.989562
0.987657
0.983831
0.982836
0.983585
0.984918
0.987368
0.993778
1.00023
1.00355
1.00553
1.00702
1.00688
1.00329
1.00054
1.00066
1.00215
1.00496
1.01097
1.01681
1.02042
1.02278
1.02463
1.02552
1.02362
1.01845
1.01479
1.01416
1.01998
1.16176
1.52193
0.901975
0.903686
0.904327
0.90426
0.903353
0.903403
0.90408
0.905001
0.906986
0.911278
0.914227
0.915651
0.916588
0.917321
0.916973
0.915713
0.915737
0.916506
0.917512
0.919601
0.924211
0.927467
0.929043
0.930064
0.930864
0.930269
0.928591
0.928486
0.929254
0.930303
0.93248
0.937539
0.941205
0.94294
0.944043
0.944882
0.943779
0.941604
0.941388
0.942187
0.94326
0.945311
0.950851
0.955432
0.957449
0.958643
0.959511
0.957989
0.955178
0.954717
0.955459
0.95652
0.958114
0.963311
0.96947
0.972369
0.973993
0.975263
0.974591
0.970693
0.968867
0.969302
0.970329
0.97171
0.975455
0.982647
0.986994
0.989076
0.990839
0.991892
0.989182
0.985252
0.984537
0.985583
0.987133
0.989884
0.996455
1.0023
1.00522
1.00707
1.00882
1.00892
1.00509
1.00218
1.00224
1.00372
1.00672
1.01291
1.01846
1.02173
1.02387
1.02552
1.02621
1.02421
1.01868
1.01352
1.01408
1.15782
1.52098
0.903043
0.905158
0.905944
0.906343
0.905371
0.904859
0.905308
0.906088
0.9073
0.910858
0.914725
0.916646
0.917813
0.918758
0.919183
0.917914
0.917277
0.917815
0.918693
0.919918
0.923526
0.927806
0.929911
0.93112
0.932117
0.93248
0.930768
0.929905
0.930483
0.931451
0.932681
0.936309
0.941364
0.943885
0.945174
0.946188
0.946366
0.944046
0.942757
0.943247
0.94425
0.945392
0.948536
0.954706
0.9583
0.959984
0.96108
0.961442
0.958744
0.956459
0.956449
0.957213
0.95834
0.960658
0.967054
0.972544
0.974981
0.97641
0.977412
0.975902
0.972005
0.970527
0.970956
0.972022
0.973627
0.978609
0.98603
0.989908
0.991644
0.992961
0.993457
0.990504
0.987109
0.986571
0.98738
0.988776
0.991939
0.999057
1.00466
1.00751
1.00933
1.01072
1.01038
1.0066
1.00373
1.00368
1.005
1.008
1.01427
1.01966
1.02269
1.02463
1.02607
1.02644
1.02445
1.01752
1.01193
1.15048
1.51993
0.904006
0.90652
0.907332
0.908036
0.907536
0.906396
0.906453
0.907104
0.908039
0.910445
0.914955
0.917709
0.919095
0.920108
0.920936
0.920386
0.919049
0.919085
0.919724
0.920615
0.922697
0.927542
0.930807
0.932382
0.933463
0.934357
0.933583
0.931871
0.931849
0.932524
0.933374
0.935065
0.940148
0.944456
0.946397
0.947531
0.948473
0.947494
0.944984
0.944523
0.945138
0.946069
0.947438
0.952044
0.958126
0.960973
0.96248
0.96352
0.962923
0.959312
0.957668
0.958205
0.959283
0.960443
0.963294
0.970212
0.974901
0.976898
0.978385
0.979452
0.977216
0.973168
0.972208
0.973144
0.97449
0.976267
0.981713
0.988403
0.991532
0.993236
0.994867
0.99543
0.992008
0.98851
0.988104
0.989252
0.990946
0.994562
1.00147
1.00651
1.00906
1.01082
1.01234
1.01214
1.0082
1.00504
1.00485
1.00607
1.00899
1.01516
1.02039
1.02322
1.02503
1.02617
1.02642
1.02314
1.0156
1.1433
1.51918
0.904751
0.907615
0.908454
0.909222
0.909374
0.908132
0.907751
0.908361
0.909248
0.910788
0.91483
0.918543
0.920309
0.921349
0.922202
0.92244
0.920883
0.920148
0.920664
0.921579
0.922887
0.926755
0.931437
0.933677
0.934879
0.935829
0.936051
0.934061
0.932882
0.933156
0.934022
0.935172
0.938322
0.944173
0.947477
0.949022
0.950084
0.95046
0.947952
0.945835
0.945934
0.946847
0.94792
0.949882
0.955759
0.961071
0.963346
0.964763
0.965668
0.96411
0.960642
0.959685
0.960147
0.960986
0.962281
0.966214
0.973209
0.97725
0.9791
0.980407
0.98116
0.978818
0.97545
0.97482
0.975359
0.976302
0.978216
0.984285
0.990659
0.993687
0.995368
0.996641
0.996975
0.99397
0.990876
0.990472
0.99125
0.992681
0.996482
1.00344
1.00828
1.01081
1.01255
1.01388
1.01354
1.00977
1.00647
1.006
1.00702
1.0096
1.01554
1.02061
1.02337
1.02503
1.02605
1.02548
1.02224
1.14015
1.51888
0.905085
0.908417
0.909435
0.910348
0.910968
0.910222
0.909432
0.909839
0.910627
0.911576
0.914275
0.918673
0.921094
0.922309
0.923258
0.92397
0.923056
0.921687
0.921915
0.92277
0.92377
0.925928
0.930949
0.934488
0.936065
0.936998
0.937692
0.936561
0.934374
0.934204
0.935047
0.936104
0.937589
0.942218
0.947651
0.95012
0.951383
0.952246
0.95148
0.948296
0.94718
0.947791
0.948805
0.949866
0.95249
0.959043
0.963612
0.965586
0.967001
0.967835
0.965263
0.961618
0.960995
0.961898
0.963037
0.964425
0.968868
0.975695
0.979323
0.981155
0.982737
0.983393
0.980275
0.97657
0.975808
0.976674
0.977925
0.980131
0.986471
0.992425
0.995223
0.99711
0.998786
0.999222
0.995889
0.992324
0.991705
0.992677
0.994298
0.99824
1.005
1.00969
1.01215
1.01384
1.01534
1.0154
1.0116
1.00777
1.00687
1.0077
1.00984
1.01537
1.02041
1.02315
1.02489
1.02521
1.02648
1.14112
1.51908
0.905183
0.909362
0.910607
0.911599
0.912419
0.912371
0.911258
0.911205
0.911761
0.912529
0.913842
0.917963
0.921746
0.923492
0.92453
0.925458
0.925502
0.923842
0.923423
0.924012
0.924841
0.925823
0.929149
0.934296
0.936835
0.938139
0.939114
0.939364
0.937107
0.935899
0.936411
0.937287
0.938184
0.939975
0.945562
0.950254
0.952303
0.953558
0.954305
0.952428
0.949494
0.949018
0.949617
0.950503
0.9517
0.955338
0.962077
0.965973
0.967747
0.968979
0.969405
0.966528
0.963529
0.963215
0.963839
0.964803
0.966451
0.971788
0.978487
0.981757
0.983278
0.984234
0.984624
0.981462
0.978028
0.977519
0.978381
0.979726
0.982349
0.989158
0.995028
0.997669
0.999144
1.0003
1.00058
0.997411
0.993993
0.993319
0.994119
0.995634
0.999517
1.00645
1.01136
1.01388
1.01552
1.01671
1.01669
1.01319
1.00893
1.00753
1.00809
1.00981
1.01487
1.01984
1.02291
1.02392
1.02797
1.14548
1.51967
0.905145
0.910129
0.911873
0.912865
0.913668
0.914153
0.913085
0.912258
0.912599
0.913369
0.914334
0.916966
0.921843
0.924616
0.925937
0.926866
0.927521
0.926326
0.924866
0.924868
0.925422
0.926305
0.927865
0.932674
0.937404
0.939488
0.940655
0.941538
0.940636
0.938161
0.937576
0.937906
0.938578
0.939607
0.942409
0.948828
0.952981
0.954803
0.956008
0.956312
0.953333
0.950575
0.950461
0.951357
0.95238
0.953643
0.957953
0.964624
0.968011
0.969639
0.97103
0.971366
0.967936
0.964849
0.964718
0.965767
0.96693
0.968511
0.973896
0.980044
0.982818
0.984376
0.985771
0.986375
0.983261
0.980008
0.979723
0.980844
0.982184
0.984485
0.990809
0.996174
0.998621
1.00021
1.00174
1.00237
0.999299
0.995675
0.994867
0.995736
0.99729
1.00097
1.00753
1.01236
1.01489
1.01649
1.0177
1.01793
1.01481
1.01018
1.00816
1.00828
1.00941
1.01392
1.01911
1.02171
1.02764
1.15166
1.52034
0.904964
0.909898
0.91266
0.913927
0.914832
0.915618
0.915287
0.91384
0.913742
0.914414
0.915297
0.916598
0.92063
0.925071
0.927069
0.928063
0.92892
0.928892
0.926814
0.925897
0.926372
0.927242
0.928243
0.930684
0.936441
0.940345
0.942024
0.942967
0.943449
0.941265
0.938779
0.938603
0.939363
0.940343
0.94162
0.945629
0.952131
0.955559
0.957142
0.958223
0.957916
0.954457
0.95231
0.952385
0.953028
0.954009
0.95563
0.960847
0.967213
0.970256
0.971747
0.972825
0.972852
0.969608
0.967049
0.966797
0.96716
0.968127
0.970052
0.976083
0.98228
0.985189
0.986724
0.988211
0.988552
0.985323
0.982193
0.981668
0.982093
0.983115
0.985553
0.992142
0.997815
1.00059
1.00221
1.0036
1.0042
1.0016
0.997976
0.996821
0.997233
0.998317
1.00128
1.00785
1.01317
1.0159
1.01748
1.01857
1.01911
1.01658
1.01148
1.00851
1.00806
1.00868
1.01297
1.01749
1.02507
1.15791
1.52077
0.905039
0.908617
0.913057
0.91521
0.916253
0.917132
0.917629
0.916253
0.91525
0.915563
0.916248
0.917026
0.918922
0.92407
0.927701
0.929341
0.930299
0.931089
0.929942
0.927765
0.927602
0.928283
0.929143
0.930168
0.933532
0.939472
0.942588
0.944089
0.945032
0.944961
0.941867
0.940111
0.940506
0.941457
0.942412
0.943719
0.948485
0.954726
0.957635
0.959133
0.960243
0.959534
0.955554
0.953488
0.953886
0.954971
0.956063
0.957703
0.963223
0.969221
0.971861
0.973345
0.974718
0.974793
0.971045
0.968073
0.967949
0.968919
0.9702
0.97246
0.978666
0.984562
0.987313
0.988798
0.989967
0.990249
0.986847
0.983227
0.982538
0.983425
0.984792
0.987435
0.993921
0.999582
1.00235
1.004
1.00547
1.00622
1.00374
0.999404
0.997601
0.998033
0.999235
1.00209
1.00842
1.01401
1.01696
1.01845
1.01937
1.01984
1.01802
1.01282
1.00875
1.00746
1.00784
1.01125
1.0204
1.16229
1.52076
0.905602
0.907657
0.912591
0.916194
0.917741
0.918651
0.919429
0.91896
0.916986
0.916448
0.916848
0.917611
0.91868
0.921947
0.927559
0.930484
0.931842
0.932758
0.932995
0.930663
0.929047
0.929149
0.92967
0.930485
0.931822
0.93645
0.942349
0.94504
0.946474
0.947426
0.946498
0.943153
0.941994
0.942319
0.942898
0.943786
0.945479
0.951222
0.957115
0.959677
0.961055
0.962062
0.960935
0.957162
0.955664
0.955959
0.956609
0.957642
0.959737
0.96586
0.971488
0.973946
0.975255
0.976208
0.976206
0.972937
0.97045
0.970464
0.971281
0.972302
0.974406
0.980426
0.986011
0.988472
0.989867
0.991076
0.991599
0.988958
0.985624
0.984873
0.985534
0.986765
0.989226
0.995444
1.00117
1.00394
1.00544
1.00648
1.00723
1.00552
1.00151
0.999465
0.999562
1.00046
1.00267
1.00859
1.01439
1.01747
1.01891
1.01978
1.02035
1.01919
1.01436
1.00899
1.00658
1.00602
1.01428
1.16253
1.51993
0.906497
0.907848
0.911224
0.91631
0.918807
0.919928
0.920706
0.92112
0.91941
0.917681
0.917799
0.918568
0.919471
0.920975
0.925676
0.930818
0.933041
0.934098
0.934848
0.934065
0.931071
0.929936
0.930391
0.931263
0.932272
0.934228
0.940003
0.94534
0.947588
0.948809
0.949514
0.94753
0.943885
0.942866
0.943471
0.944421
0.945473
0.947726
0.954079
0.959352
0.961541
0.962833
0.963955
0.962546
0.958377
0.956801
0.957416
0.958515
0.959644
0.961765
0.967829
0.973085
0.975393
0.977038
0.978391
0.97829
0.974728
0.971974
0.971658
0.972312
0.973371
0.975502
0.981656
0.987285
0.989946
0.99168
0.9932
0.993908
0.991423
0.987649
0.986466
0.987007
0.988067
0.990066
0.995889
1.00163
1.00449
1.0062
1.00781
1.00906
1.00804
1.00383
1.00101
1.00064
1.00138
1.00296
1.0082
1.01435
1.01769
1.01916
1.02004
1.02065
1.02014
1.01589
1.00959
1.00508
1.00789
1.15837
1.51825
0.907613
0.908669
0.910156
0.914815
0.919065
0.920898
0.921877
0.922714
0.92243
0.919995
0.9192
0.919745
0.920562
0.921432
0.923397
0.928921
0.933213
0.935029
0.936042
0.93668
0.934798
0.93191
0.931563
0.932332
0.93332
0.934328
0.936637
0.942872
0.947431
0.949298
0.950438
0.950995
0.948502
0.945146
0.944625
0.945338
0.946315
0.947398
0.950127
0.956666
0.961369
0.963403
0.964614
0.965371
0.963862
0.960291
0.959088
0.959417
0.960079
0.961184
0.963682
0.970242
0.975451
0.97767
0.978897
0.979828
0.979862
0.976347
0.973291
0.972907
0.973792
0.975035
0.977333
0.983639
0.989551
0.992275
0.993657
0.994738
0.995522
0.993391
0.989246
0.987549
0.98795
0.989096
0.990942
0.996435
1.00309
1.00661
1.00823
1.00949
1.01053
1.00995
1.00591
1.00236
1.0014
1.00194
1.00323
1.00779
1.01414
1.01786
1.0194
1.02025
1.02085
1.02061
1.01723
1.00914
1.00542
1.14952
1.51647
0.908706
0.9094
0.910227
0.912678
0.918188
0.921713
0.923223
0.924153
0.924771
0.923198
0.92101
0.920844
0.921326
0.922002
0.922958
0.925705
0.931848
0.93566
0.937316
0.938389
0.938609
0.93577
0.933506
0.933524
0.934075
0.934743
0.935722
0.93865
0.945273
0.949438
0.951229
0.952544
0.953041
0.950218
0.947102
0.9467
0.947325
0.948144
0.94913
0.952059
0.958668
0.963031
0.964872
0.966255
0.967292
0.965639
0.961625
0.960193
0.960852
0.961962
0.963142
0.965496
0.971754
0.976518
0.978592
0.979957
0.981225
0.98148
0.978312
0.975377
0.975087
0.975978
0.977153
0.979185
0.984937
0.990566
0.993176
0.994644
0.99592
0.99677
0.99523
0.991233
0.989263
0.98961
0.990808
0.992631
0.997493
1.0039
1.00751
1.0093
1.0106
1.01159
1.01128
1.00778
1.00382
1.00236
1.00262
1.00364
1.00749
1.01374
1.01768
1.01934
1.02026
1.02076
1.02067
1.01668
1.00945
1.14082
1.51528
0.909876
0.910405
0.911193
0.912327
0.915992
0.921513
0.924234
0.925421
0.926144
0.926162
0.923616
0.921888
0.92206
0.922817
0.923679
0.924914
0.928786
0.935006
0.938229
0.939653
0.940545
0.940034
0.936537
0.934438
0.934475
0.935225
0.936155
0.937432
0.941433
0.948193
0.951924
0.953493
0.9546
0.954833
0.95152
0.948443
0.947922
0.948463
0.94939
0.950731
0.954388
0.961108
0.965178
0.966881
0.967879
0.968571
0.967177
0.963778
0.962563
0.962742
0.963229
0.964329
0.966978
0.973413
0.97838
0.980645
0.982063
0.983421
0.983698
0.980566
0.977379
0.976751
0.977201
0.978093
0.97994
0.985552
0.991491
0.994487
0.996078
0.997556
0.998715
0.997728
0.993884
0.991635
0.991579
0.992178
0.99334
0.997192
1.00383
1.00811
1.01007
1.01128
1.01247
1.01293
1.01014
1.00573
1.00353
1.0034
1.00407
1.0068
1.0128
1.01705
1.01896
1.01991
1.02059
1.01986
1.01782
1.13748
1.51473
0.911734
0.911704
0.91239
0.913135
0.914443
0.918901
0.923943
0.926134
0.92726
0.928055
0.927325
0.924347
0.923375
0.92392
0.92479
0.925669
0.926918
0.931374
0.937267
0.939977
0.941334
0.942185
0.941274
0.937549
0.935838
0.936204
0.937175
0.93824
0.939588
0.94395
0.950422
0.953548
0.955007
0.956018
0.956132
0.952819
0.949853
0.949621
0.950529
0.951625
0.952858
0.956367
0.962762
0.96643
0.968078
0.969471
0.970546
0.969131
0.965185
0.963505
0.963968
0.965014
0.966335
0.969041
0.975302
0.980281
0.982615
0.983947
0.985023
0.985445
0.982465
0.978702
0.977683
0.978393
0.979596
0.981433
0.986723
0.9931
0.996562
0.998163
0.999328
1.00047
0.999939
0.995962
0.992665
0.992047
0.992875
0.994148
0.997481
1.00396
1.009
1.01139
1.0127
1.01377
1.01434
1.01242
1.00758
1.0043
1.00364
1.00418
1.00608
1.01148
1.01617
1.01849
1.01982
1.01973
1.02277
1.13935
1.51484
0.914123
0.91303
0.913291
0.913802
0.914523
0.916208
0.921602
0.926481
0.928515
0.92964
0.930279
0.928464
0.925676
0.925239
0.925688
0.926232
0.926935
0.928362
0.93364
0.939417
0.941955
0.943394
0.944373
0.943026
0.939304
0.938023
0.93841
0.939036
0.939767
0.941079
0.945929
0.952131
0.955027
0.956502
0.957802
0.957991
0.954797
0.952257
0.952053
0.952424
0.953073
0.954361
0.958314
0.964757
0.968406
0.970011
0.971007
0.971789
0.970849
0.967469
0.966003
0.966354
0.967129
0.968111
0.970355
0.97631
0.981267
0.983542
0.984909
0.986121
0.986738
0.984571
0.981086
0.979982
0.980495
0.98158
0.983167
0.987626
0.993921
0.997522
0.99933
1.00056
1.00138
1.00139
0.998291
0.994821
0.993846
0.994394
0.99546
0.998086
1.00415
1.00956
1.01225
1.0136
1.01453
1.01503
1.01383
1.00931
1.0053
1.00405
1.00424
1.00545
1.01013
1.01507
1.01809
1.01892
1.02431
1.14493
1.51535
0.916731
0.914341
0.913948
0.914535
0.915314
0.91625
0.918764
0.924919
0.929239
0.930956
0.931881
0.932078
0.929329
0.926548
0.926109
0.926672
0.927482
0.928448
0.930543
0.936618
0.942005
0.944278
0.945483
0.946304
0.94443
0.940502
0.939001
0.939313
0.940123
0.941095
0.942829
0.948413
0.954473
0.957247
0.958545
0.959623
0.959705
0.956078
0.953103
0.952957
0.953847
0.954863
0.95627
0.960095
0.966096
0.969522
0.971259
0.972788
0.973923
0.972939
0.969257
0.967289
0.96728
0.967999
0.969018
0.971201
0.977093
0.982429
0.985027
0.986595
0.988083
0.988987
0.987179
0.983392
0.981743
0.981971
0.982655
0.98388
0.987535
0.99388
0.998024
0.999995
1.00153
1.0029
1.00353
1.0012
0.997326
0.995633
0.99578
0.996621
0.99822
1.00343
1.00924
1.01232
1.0138
1.01483
1.01568
1.01541
1.01148
1.00669
1.00456
1.00425
1.00479
1.00862
1.01391
1.01657
1.02389
1.1522
1.51586
0.919308
0.917075
0.915261
0.915529
0.916298
0.917141
0.918168
0.921323
0.927648
0.931279
0.932882
0.933774
0.933555
0.930185
0.927696
0.92765
0.928449
0.929427
0.930451
0.932753
0.939032
0.943782
0.945695
0.946829
0.947553
0.945674
0.941836
0.940574
0.941097
0.942088
0.943243
0.945103
0.95065
0.956222
0.958599
0.959896
0.960768
0.960668
0.957537
0.955161
0.955111
0.955743
0.956519
0.957754
0.96163
0.967923
0.9716
0.973255
0.974255
0.975067
0.974625
0.971139
0.968755
0.968656
0.96957
0.970744
0.97282
0.978406
0.984127
0.98701
0.988486
0.989557
0.990454
0.989369
0.985392
0.982943
0.982832
0.983728
0.984956
0.98807
0.994514
0.999637
1.00199
1.0033
1.0044
1.00525
1.00364
0.999399
0.996691
0.99631
0.997136
0.998396
1.00245
1.00881
1.01294
1.01482
1.0158
1.01648
1.01663
1.01368
1.00826
1.00491
1.00393
1.00397
1.00712
1.01175
1.02084
1.15878
1.51608
0.921249
0.920946
0.9177
0.916868
0.917285
0.917917
0.918612
0.919697
0.923568
0.930037
0.933296
0.934767
0.935822
0.935281
0.931616
0.92959
0.929739
0.930323
0.930961
0.931825
0.934432
0.940921
0.945398
0.947275
0.948606
0.949473
0.94756
0.943911
0.942907
0.943405
0.944111
0.944926
0.946599
0.95207
0.957371
0.959761
0.961185
0.962494
0.962718
0.959676
0.956827
0.956497
0.957315
0.958347
0.959577
0.962878
0.968802
0.972319
0.974054
0.975438
0.976656
0.976652
0.973524
0.971117
0.971005
0.971713
0.972624
0.974185
0.979007
0.984672
0.98764
0.989211
0.990475
0.991565
0.991236
0.987958
0.985205
0.984776
0.985548
0.986717
0.989049
0.994781
1.00006
1.00277
1.00432
1.00544
1.00612
1.00541
1.00168
0.998308
0.997417
0.998012
0.99913
1.00245
1.00864
1.01328
1.01544
1.01636
1.01687
1.01708
1.01522
1.00999
1.00532
1.00325
1.00308
1.00525
1.01554
1.16237
1.51559
0.922597
0.92376
0.921554
0.918628
0.918001
0.918519
0.919307
0.92015