/*--------------------------------*- C++ -*----------------------------------*\
  =========                 |
  \\      /  F ield         | OpenFOAM: The Open Source CFD Toolbox
   \\    /   O peration     | Website:  https://openfoam.org
    \\  /    A nd           | Version:  12
     \\/     M anipulation  |
\*---------------------------------------------------------------------------*/
FoamFile
{
    format      ascii;
    class       volVectorField;
    location    "5.2";
    object      U;
}
// * * * * * * * * * * * * * * * * * * * * * * * * * * * * * * * * * * * * * //

dimensions      [0 1 -1 0 0 0 0];

internalField   nonuniform List<vector> 
46253
(
(0.928915 -0.00401029 0)
(0.895664 0.000206103 0)
(0.777144 0.00105001 0)
(0.896248 0.000307627 0)
(0.780033 0.0019848 0)
(0.782908 0.000749502 0)
(1.0685 0.0165478 0)
(0.964373 -0.00748505 0)
(0.898949 0.000559267 0)
(0.899178 0.000922035 0)
(0.941781 0.00172125 0)
(1.14774 -0.0679733 0)
(0.906803 0.00501932 0)
(0.906062 0.00483893 0)
(0.91825 0.0135192 0)
(0.900539 0.0010368 0)
(0.900778 0.00192066 0)
(0.903482 0.00687905 0)
(0.903647 0.00644823 0)
(0.901911 0.00391404 0)
(0.901561 0.00515255 0)
(0.786199 0.00331972 0)
(0.827688 0.00127802 0)
(0.939303 -0.00410607 0)
(0.949529 -0.012264 0)
(0.897741 0.000435789 0)
(0.901665 0.00220902 0)
(0.901301 0.00321283 0)
(0.897434 0.000221307 0)
(0.963849 -0.00982721 0)
(0.933048 0.0411062 0)
(0.909372 0.00179567 0)
(0.909308 0.00107276 0)
(0.902636 0.00571493 0)
(0.902675 0.00657828 0)
(0.867211 0.00243216 0)
(0.904992 0.0062265 0)
(0.905972 0.0067441 0)
(0.803814 -0.0164746 0)
(0.827669 -0.000562706 0)
(0.934356 -0.000598226 0)
(1.13677 -0.0721774 0)
(0.907402 0.00207835 0)
(0.908509 0.00207668 0)
(1.06851 -0.0882838 0)
(0.904154 0.00666509 0)
(0.904418 0.00742179 0)
(0.835116 0.00224028 0)
(0.911602 0.000499045 0)
(0.912001 0.000605613 0)
(0.914041 0.000726071 0)
(0.9149 0.000462859 0)
(0.795566 0.00181274 0)
(0.983809 -0.0101488 0)
(0.766278 0.0110833 0)
(1.06262 -0.036233 0)
(0.918187 -5.29848e-05 0)
(0.918529 6.96323e-06 0)
(0.861684 0.0629042 0)
(0.898084 -0.0129776 0)
(0.860394 0.00510855 0)
(0.99722 -0.029141 0)
(0.871486 -0.000193759 0)
(0.837962 0.00463777 0)
(0.917512 -0.00253902 0)
(0.906178 0.0034336 0)
(0.907071 0.00357064 0)
(0.791882 0.000571184 0)
(1.06397 -0.0358567 0)
(1.12012 -0.0897271 0)
(1.0765 0.00307645 0)
(0.920125 0.000280637 0)
(0.920908 0.000203803 0)
(0.899964 -0.0197974 0)
(0.798491 0.00184515 0)
(0.926308 -0.00321052 0)
(0.931863 0.00028125 0)
(0.932745 0.000189942 0)
(0.884497 -0.00134359 0)
(0.910506 0.000377655 0)
(0.910697 0.000584797 0)
(0.924399 0.000126493 0)
(0.793753 0.00214737 0)
(0.92485 0.000259076 0)
(1.05837 0.00103922 0)
(0.802592 0.00152569 0)
(0.946064 0.000141501 0)
(0.946716 -1.31105e-06 0)
(1.00563 -0.00653851 0)
(0.864783 -0.00118641 0)
(0.82271 0.00147303 0)
(0.945219 0.00152061 0)
(0.804092 0.00113117 0)
(0.916478 4.85479e-05 0)
(0.832995 0.00156764 0)
(0.917088 0.000104181 0)
(0.804136 0.00132243 0)
(0.916453 0.00180785 0)
(0.863294 0.0620046 0)
(0.866064 0.0044086 0)
(0.824353 0.00202304 0)
(0.805538 0.000964186 0)
(0.802697 0.000433913 0)
(0.936043 0.0408575 0)
(0.769092 0.00655984 0)
(1.04445 0.0042192 0)
(1.10802 -0.0713571 0)
(0.96256 0.000373572 0)
(0.963164 0.000129377 0)
(1.11268 -0.0600311 0)
(0.883254 0.0242402 0)
(0.922568 -2.73046e-06 0)
(0.923215 -3.78711e-05 0)
(0.91489 0.0152643 0)
(0.890226 0.00970508 0)
(1.04816 0.00115958 0)
(1.17138 -0.0934219 0)
(0.906437 -0.0157296 0)
(0.762781 0.0619311 0)
(1.06939 -0.0326475 0)
(0.818968 0.00185221 0)
(0.785149 0.00162976 0)
(0.926289 0.000190425 0)
(0.927 0.000313179 0)
(0.810283 0.000367421 0)
(0.755683 0.056789 0)
(0.86012 0.0043931 0)
(1.0721 -0.0440486 0)
(0.752446 0.0101299 0)
(0.935673 0.000531047 0)
(0.974162 -7.09818e-05 0)
(0.974308 -0.000259422 0)
(0.784258 0.00275498 0)
(0.982422 0.00920387 0)
(0.936419 0.000338619 0)
(0.928736 -0.0065697 0)
(0.939534 0.000120017 0)
(0.940034 7.71593e-05 0)
(1.08179 -0.0344323 0)
(0.914517 -0.00267107 0)
(0.930373 0.000118703 0)
(0.981782 0.00016094 0)
(0.98317 3.2064e-05 0)
(0.939936 0.0386642 0)
(0.929941 0.000239824 0)
(0.758877 0.0086164 0)
(0.944012 0.000231102 0)
(0.944597 0.00012364 0)
(0.806811 0.00723136 0)
(0.862648 -0.00197882 0)
(1.11725 -0.0596642 0)
(0.798035 0.000426028 0)
(0.937558 0.000249518 0)
(0.93812 0.000326678 0)
(0.962422 0.0295205 0)
(1.19997 -0.116277 0)
(1.08201 -0.0474322 0)
(0.831189 0.00209765 0)
(0.951256 0.000128582 0)
(0.769237 0.00828353 0)
(0.951764 0.000238544 0)
(1.09522 -0.0668796 0)
(1.06277 -0.0377703 0)
(0.9156 0.013905 0)
(1.02002 -0.00628984 0)
(0.941857 0.000468932 0)
(0.98791 0.00885214 0)
(0.942487 0.000458393 0)
(0.695335 0.0400824 0)
(0.863172 0.00461789 0)
(0.954968 7.58679e-05 0)
(0.955608 -0.000138131 0)
(0.789139 0.00258453 0)
(0.963657 -0.0178756 0)
(0.773013 0.00420158 0)
(0.947016 -0.0744707 0)
(1.03609 -0.0199456 0)
(0.801829 0.00208056 0)
(1.06165 -0.0290492 0)
(1.17363 -0.0929957 0)
(0.773845 0.00236016 0)
(0.962933 0.0288604 0)
(0.960173 -1.42973e-06 0)
(0.960885 5.76868e-05 0)
(0.84385 0.00111827 0)
(0.948601 1.02368e-05 0)
(0.949805 0.000268474 0)
(1.07262 -0.0898237 0)
(0.84431 0.000971437 0)
(0.844665 0.00107176 0)
(0.798021 0.00156031 0)
(0.850674 0.000234826 0)
(0.93654 -0.0352589 0)
(0.850522 0.000191171 0)
(0.839852 0.000543615 0)
(0.839911 0.000545023 0)
(0.891119 0.0165113 0)
(0.810557 0.000749229 0)
(1.02354 0.000194723 0)
(1.02515 -5.20903e-05 0)
(0.90894 0.00198292 0)
(0.854273 0.00381531 0)
(0.953335 0.000509814 0)
(0.953632 0.000491359 0)
(0.859635 -0.00243202 0)
(1.2172 -0.105806 0)
(0.966058 0.0279148 0)
(0.966728 -0.00011807 0)
(0.967266 -0.000297985 0)
(0.861654 0.00534437 0)
(0.889742 -0.00170446 0)
(0.761891 0.0677835 0)
(0.956485 -0.0113979 0)
(0.802303 0.00132793 0)
(1.05614 -0.0021956 0)
(0.809789 0.000875243 0)
(0.942937 0.0380944 0)
(1.02296 -0.00469406 0)
(0.971917 -7.96097e-05 0)
(0.790105 0.001305 0)
(0.793234 0.00117958 0)
(0.972662 -0.000235363 0)
(0.950154 -0.0792941 0)
(0.957203 -0.000172544 0)
(0.957924 1.65375e-05 0)
(0.996142 0.00132182 0)
(0.806019 0.00131202 0)
(0.804859 0.00141016 0)
(1.03797 -0.000475291 0)
(1.03659 -0.000620101 0)
(0.895086 0.0552209 0)
(0.817367 0.00276095 0)
(0.870838 0.00183485 0)
(0.863818 0.00143314 0)
(0.810639 0.000421706 0)
(0.830419 3.99531e-05 0)
(0.841167 0.000230102 0)
(0.852996 -0.00284032 0)
(0.896764 0.0543243 0)
(0.884213 0.0576594 0)
(0.808995 0.000989505 0)
(0.805485 0.00113173 0)
(0.810303 0.000793836 0)
(0.840942 0.000297236 0)
(0.923366 0.00957662 0)
(0.800091 0.00142456 0)
(0.830545 0.00179319 0)
(0.968634 0.026556 0)
(0.811718 0.000612246 0)
(0.978242 -0.00036875 0)
(0.978995 -0.000773813 0)
(0.88622 0.0572328 0)
(1.04367 -0.00289126 0)
(0.81044 0.00082773 0)
(1.04439 -0.00242197 0)
(0.964609 -0.000130448 0)
(0.965285 8.64313e-05 0)
(1.06441 -0.0280845 0)
(0.930617 -0.0185562 0)
(0.813896 0.000224355 0)
(1.00832 0.00618915 0)
(0.90933 -0.0192091 0)
(1.11143 -0.0612945 0)
(0.938983 0.0395263 0)
(1.07228 -0.0109967 0)
(0.829599 0.00158131 0)
(0.908777 0.0123945 0)
(0.855196 0.00815779 0)
(0.969215 8.62388e-05 0)
(0.985089 -0.000594808 0)
(0.970089 0.000215148 0)
(0.806796 0.00114711 0)
(0.886734 0.00807701 0)
(0.762771 0.0015027 0)
(0.984679 -0.000925047 0)
(0.808487 0.00107664 0)
(0.760846 0.0120514 0)
(0.862936 0.00671364 0)
(0.997673 -0.00426649 0)
(1.05542 -0.0192597 0)
(1.05717 -0.00162617 0)
(1.06298 -0.000466364 0)
(0.801303 0.000707002 0)
(0.803409 0.000682288 0)
(0.854807 -0.00128872 0)
(0.927942 -0.0209376 0)
(1.01494 -0.0222473 0)
(1.05849 -0.0298912 0)
(0.949743 0.0352954 0)
(0.855517 0.0018373 0)
(0.868307 0.0614705 0)
(0.869761 0.0603461 0)
(1.02226 0.00956836 0)
(0.826033 0.00255628 0)
(0.873405 0.0604299 0)
(0.91355 0.0490914 0)
(0.803716 0.00161447 0)
(0.91467 0.0489066 0)
(0.967405 -0.0059893 0)
(0.991269 -0.000377472 0)
(0.770447 0.0701752 0)
(0.992933 -0.000394892 0)
(1.07165 -0.0444035 0)
(0.770287 0.0525111 0)
(0.844159 9.8087e-05 0)
(0.97562 -0.000665401 0)
(0.976375 -0.000374029 0)
(0.862942 0.0052232 0)
(0.939974 0.0412184 0)
(0.844357 0.000994076 0)
(0.844602 0.00111428 0)
(1.11109 -0.0392624 0)
(0.883819 -0.0103051 0)
(0.995015 -0.000822471 0)
(0.807993 0.000612661 0)
(0.994202 -0.00111085 0)
(1.08814 -0.0379988 0)
(0.87449 0.0596572 0)
(0.86148 -0.00106575 0)
(0.999897 -0.00531486 0)
(1.09675 -0.0489965 0)
(0.809334 0.000554592 0)
(1.03167 0.00220948 0)
(0.943032 -0.0134167 0)
(0.738222 -0.0292956 0)
(0.951019 0.0347878 0)
(0.805747 0.00123311 0)
(0.813303 0.000187745 0)
(1.00077 -0.00033458 0)
(1.00254 -0.000466302 0)
(0.908514 -1.22664e-05 0)
(0.908213 -2.31048e-05 0)
(0.843918 9.88893e-05 0)
(0.942663 0.00583937 0)
(0.80487 0.000538304 0)
(0.982483 -0.0325395 0)
(1.05706 -0.0294207 0)
(0.985087 2.90682e-05 0)
(0.98546 0.000312938 0)
(0.831051 0.00178091 0)
(0.796386 0.000945159 0)
(0.79907 0.000737623 0)
(0.88057 0.0109671 0)
(0.759995 0.0399806 0)
(0.812511 -0.00341344 0)
(1.00459 -0.00111824 0)
(1.00394 -0.00139828 0)
(0.853036 -0.00808961 0)
(1.07614 -0.0345097 0)
(0.802198 0.00216444 0)
(0.849383 0.00472688 0)
(0.864236 0.00140518 0)
(1.20804 -0.100211 0)
(0.91234 0.0243798 0)
(1.08935 -0.0635279 0)
(0.832092 -0.00490806 0)
(0.985981 -0.0012353 0)
(0.865187 0.00303098 0)
(0.987068 -0.000709084 0)
(0.867915 -0.00155486 0)
(1.09111 -0.0640035 0)
(0.844978 5.76922e-05 0)
(0.808557 0.00258131 0)
(0.844753 5.23062e-05 0)
(0.84482 0.000959738 0)
(0.806609 0.00288968 0)
(0.805122 0.00314431 0)
(0.805061 0.0032061 0)
(1.01022 -8.57257e-05 0)
(0.827572 -0.00449662 0)
(0.833881 -0.00404328 0)
(0.833634 -0.00426552 0)
(0.833722 -0.00411911 0)
(1.01143 -0.000307728 0)
(0.805942 0.0027668 0)
(0.878462 0.0591451 0)
(1.08317 -0.0359922 0)
(0.807967 0.000870572 0)
(0.82723 -0.00462526 0)
(0.856601 0.00408198 0)
(1.01952 -0.0125681 0)
(0.970032 -0.0292047 0)
(1.08693 -0.0432698 0)
(0.995174 0.000120082 0)
(0.976464 -0.00510109 0)
(0.995471 0.000138334 0)
(0.804568 -0.000508327 0)
(0.83008 0.00564175 0)
(1.01461 -0.00147997 0)
(0.738812 0.058563 0)
(0.843461 0.00101652 0)
(0.948639 0.0360218 0)
(1.01445 -0.00165257 0)
(1.02514 -0.0350514 0)
(0.814704 -0.00416597 0)
(0.965857 -0.0066659 0)
(0.973479 0.0237766 0)
(0.976418 0.0254584 0)
(0.811332 0.000490802 0)
(1.00851 -0.00308015 0)
(0.831293 0.00204311 0)
(0.915959 -0.000904632 0)
(0.924099 -0.000284723 0)
(0.880353 0.0579543 0)
(0.809399 0.000434054 0)
(0.83582 0.0303703 0)
(0.840556 0.000176379 0)
(0.859509 -0.00127316 0)
(0.818199 0.00263475 0)
(0.799602 0.0014004 0)
(0.813332 6.04432e-05 0)
(0.843997 0.00084546 0)
(0.786009 0.0652481 0)
(0.843838 0.00107853 0)
(1.01993 -0.0076658 0)
(0.836296 0.0263143 0)
(0.971612 -0.0345885 0)
(0.811439 0.000803778 0)
(0.801921 0.000629521 0)
(1.07102 -0.0285105 0)
(0.835722 0.0266331 0)
(0.824307 0.000904096 0)
(1.01904 -0.000641361 0)
(0.864197 0.00022876 0)
(0.995463 -0.00139368 0)
(0.864135 0.000209418 0)
(0.864215 0.00762646 0)
(1.01973 -0.00127882 0)
(0.996729 -0.000665187 0)
(0.847221 0.000155108 0)
(1.06532 -0.0288887 0)
(0.865014 0.0058638 0)
(0.833435 0.00119438 0)
(0.839231 0.000514178 0)
(0.838995 0.00055328 0)
(1.03665 -0.0121471 0)
(0.994656 -0.0194905 0)
(0.844908 0.0012257 0)
(0.840447 0.000321743 0)
(0.978876 -0.00664824 0)
(1.09106 -0.0478879 0)
(0.831483 0.0261023 0)
(0.962771 -0.0316369 0)
(0.846768 0.00017098 0)
(1.03242 -0.0105663 0)
(0.961381 0.030398 0)
(0.850555 0.000351943 0)
(0.809751 0.000717934 0)
(1.05651 -0.0296802 0)
(0.83028 0.00211754 0)
(1.05452 -0.0194299 0)
(1.01456 -0.00321096 0)
(0.922847 -0.0198728 0)
(0.986216 -0.0334658 0)
(0.785377 0.00740286 0)
(0.838836 0.0320864 0)
(0.919779 -0.000274258 0)
(0.837821 0.0300022 0)
(1.00489 -5.21847e-05 0)
(1.02987 -0.0116136 0)
(0.805941 0.000737424 0)
(1.0269 -0.0116912 0)
(1.02622 -0.0122537 0)
(1.00492 -0.000181813 0)
(0.829798 -0.00469809 0)
(1.02579 -0.0120083 0)
(0.802657 0.00183779 0)
(0.843731 0.00233389 0)
(0.836761 0.0272627 0)
(0.83327 -0.00430927 0)
(0.843356 0.00234097 0)
(1.11101 -0.0127704 0)
(0.910014 -0.00757174 0)
(0.921681 -0.00521912 0)
(1.07278 -0.0446968 0)
(1.02459 -0.00168676 0)
(1.05055 -0.0231506 0)
(0.972216 0.0257209 0)
(1.02377 -0.00215599 0)
(1.06836 -0.00389428 0)
(0.924139 -0.00361072 0)
(0.931444 -0.000911891 0)
(0.866368 0.0087342 0)
(0.806337 0.00130966 0)
(0.806986 0.00114154 0)
(0.866358 0.00361859 0)
(0.748503 0.00739447 0)
(0.830894 0.00240811 0)
(1.05133 -0.0180827 0)
(1.01605 0.00489344 0)
(1.14303 -0.0787951 0)
(1.05012 -0.0179206 0)
(1.03073 -0.0106576 0)
(0.895387 -0.00866019 0)
(1.02779 -0.0115719 0)
(0.772788 0.00419514 0)
(0.831666 -0.00502599 0)
(1.00531 -0.00170354 0)
(1.02303 -0.00643465 0)
(1.11591 -0.0642563 0)
(1.00686 -0.000694626 0)
(1.03367 -0.000641558 0)
(1.03572 -0.000655557 0)
(0.926928 -0.00722847 0)
(0.928219 -0.0257078 0)
(0.808096 0.00265957 0)
(0.926158 -0.00635229 0)
(0.937494 0.0400514 0)
(0.857974 -0.00156385 0)
(0.818172 -0.000374562 0)
(0.805418 0.000913003 0)
(0.883121 -0.0396086 0)
(0.834393 0.0246724 0)
(0.974371 -0.00717283 0)
(0.983054 -0.0309413 0)
(0.859545 7.93846e-05 0)
(0.843921 0.000880834 0)
(1.02592 -0.00724698 0)
(0.810195 0.000363735 0)
(0.920671 0.0149587 0)
(0.987889 -0.0382425 0)
(0.869962 -0.0623945 0)
(1.0077 -0.00375017 0)
(0.813687 0.000358615 0)
(0.813638 0.000471041 0)
(1.00717 -0.00253961 0)
(0.804845 0.00209023 0)
(1.01373 -0.00440431 0)
(1.00433 -0.00873935 0)
(1.01224 -0.0031892 0)
(0.885841 0.020201 0)
(0.940686 -0.027485 0)
(0.972801 -0.0355441 0)
(0.829792 0.00211543 0)
(1.0305 -0.0111056 0)
(1.01436 -0.00830879 0)
(0.807269 -0.0021958 0)
(0.862593 0.00105877 0)
(1.01402 0.000172278 0)
(0.82888 0.00155386 0)
(0.954522 0.00480555 0)
(1.06125 -0.0243678 0)
(0.800542 -0.000318077 0)
(0.852901 0.000185181 0)
(1.01413 -0.000264277 0)
(0.859686 0.00247589 0)
(0.863856 -0.00556381 0)
(0.842537 0.0174408 0)
(0.841396 0.0174384 0)
(1.0809 -0.0820208 0)
(0.844418 0.0184642 0)
(0.843477 0.0183536 0)
(1.03733 -0.00091857 0)
(1.04769 -0.0227744 0)
(1.03858 -0.00159767 0)
(0.910382 -0.00499628 0)
(0.852776 0.0208527 0)
(0.852166 0.0208702 0)
(0.857018 0.0218003 0)
(0.855953 0.0216907 0)
(0.811623 0.000718551 0)
(0.832659 0.0280822 0)
(0.856603 -0.000583674 0)
(1.03117 -0.010982 0)
(1.09977 -0.0864037 0)
(0.846441 0.00109674 0)
(0.841676 0.000472096 0)
(0.859031 -0.00175028 0)
(0.836384 0.0244934 0)
(0.846878 0.0017117 0)
(0.840535 0.000432604 0)
(0.978866 0.0175415 0)
(0.945543 0.0365215 0)
(0.913271 -0.0103598 0)
(0.951961 0.0340273 0)
(0.843722 0.00152079 0)
(0.85388 0.00168959 0)
(1.07099 -0.0423919 0)
(0.829701 0.00153209 0)
(0.844928 0.00156642 0)
(0.845938 0.00291959 0)
(1.01581 -0.00207457 0)
(0.84805 0.00456488 0)
(0.841309 0.00129248 0)
(1.01645 -0.00151012 0)
(0.95512 0.033143 0)
(0.928517 0.0253067 0)
(0.807474 0.00253279 0)
(0.924933 0.0257226 0)
(0.924556 0.025835 0)
(0.921462 0.0262023 0)
(0.975584 -0.000909351 0)
(0.842621 0.00141693 0)
(1.04418 -0.00146668 0)
(1.0438 -0.00173528 0)
(0.948315 0.0377152 0)
(0.950556 0.000948167 0)
(0.84685 0.00327046 0)
(0.850189 0.000348416 0)
(0.892956 -0.0166852 0)
(0.793396 0.00100855 0)
(0.767731 0.0480407 0)
(1.10937 -0.0507946 0)
(0.835857 0.0256897 0)
(0.76675 0.0555491 0)
(0.834711 0.0311734 0)
(0.832479 -0.00414675 0)
(0.940179 0.0400413 0)
(0.937018 0.0416152 0)
(0.831015 -0.00504761 0)
(0.805568 0.00274554 0)
(0.956638 -0.00221593 0)
(1.02463 -0.0112313 0)
(0.827935 -0.0049613 0)
(0.804332 -0.00197111 0)
(0.982015 0.0221181 0)
(0.863426 0.0226706 0)
(0.862225 0.022602 0)
(0.866868 0.0227604 0)
(0.865634 0.0229241 0)
(0.871607 0.0234217 0)
(0.870958 0.0233602 0)
(0.876665 0.0235552 0)
(0.875536 0.0237032 0)
(1.08853 -0.085729 0)
(1.03792 -0.0103283 0)
(0.881299 0.023638 0)
(0.986566 -0.0256057 0)
(0.880076 0.0238349 0)
(0.886017 0.0235496 0)
(0.826406 -0.00411952 0)
(0.936668 0.00633483 0)
(0.927906 -0.00260156 0)
(0.885083 0.0237458 0)
(0.806773 0.00286688 0)
(0.891333 0.0233396 0)
(0.799614 0.00057101 0)
(0.890427 0.0234647 0)
(0.909454 0.025293 0)
(1.03306 -0.00847499 0)
(0.896658 0.0228124 0)
(0.870779 0.000620027 0)
(0.895229 0.0231164 0)
(0.81691 0.0673317 0)
(0.813809 0.00617732 0)
(0.9012 0.0225554 0)
(0.838668 0.000550113 0)
(0.900566 0.0227963 0)
(0.838472 0.000545785 0)
(1.10547 -0.0768166 0)
(0.870624 0.000614446 0)
(1.04731 -0.0212792 0)
(0.957225 -6.22375e-05 0)
(0.845773 0.00102311 0)
(0.845477 0.00102117 0)
(0.907121 0.0220198 0)
(0.906088 0.0222269 0)
(0.809348 0.0023284 0)
(1.01826 -0.00439905 0)
(0.911746 0.0212189 0)
(0.910632 0.0215063 0)
(0.985012 0.0195487 0)
(0.812808 0.000314082 0)
(0.81317 0.000384375 0)
(0.919509 0.0199122 0)
(1.05456 -0.00111012 0)
(0.918659 0.0200678 0)
(0.813663 0.00413534 0)
(1.02716 -0.000350419 0)
(0.926013 0.0193161 0)
(1.09803 -0.05024 0)
(0.925412 0.0195896 0)
(1.05546 -0.000717947 0)
(1.02605 -0.000700086 0)
(0.82911 -0.00288605 0)
(0.845667 0.0016391 0)
(0.845901 0.00172242 0)
(0.930522 0.0178398 0)
(0.929087 0.0181268 0)
(1.00683 -0.00276718 0)
(0.829897 -0.00341088 0)
(0.831564 -0.00371649 0)
(0.936217 0.0171166 0)
(1.04256 -0.0152184 0)
(0.936328 0.0174743 0)
(1.0959 -0.0509902 0)
(0.804319 0.00322417 0)
(0.946269 0.0152083 0)
(0.945339 0.0154032 0)
(0.844483 0.00244299 0)
(0.842385 0.00214075 0)
(0.844038 0.00242213 0)
(1.00544 -0.0238236 0)
(0.841966 0.00214239 0)
(1.01501 -0.0105123 0)
(0.994755 -0.00139203 0)
(0.930127 0.0425152 0)
(0.809232 0.000878557 0)
(0.954733 0.0127023 0)
(0.854992 0.00154296 0)
(0.95212 0.0132329 0)
(0.855552 0.00173221 0)
(0.802243 0.00165572 0)
(1.0208 -0.00930339 0)
(1.02144 -0.010481 0)
(0.955426 0.0114583 0)
(0.956194 0.0115723 0)
(1.03121 -0.0129536 0)
(1.01773 -0.00946814 0)
(0.966117 0.0099952 0)
(1.00532 -0.0111453 0)
(0.96443 0.0103452 0)
(0.806726 0.00123096 0)
(0.974082 0.0241875 0)
(0.972661 0.00707416 0)
(0.96873 0.00788746 0)
(0.843475 0.00112452 0)
(1.05375 -0.0289119 0)
(0.974295 0.00617118 0)
(0.97745 0.00608921 0)
(0.690467 0.0262575 0)
(0.867278 0.00235972 0)
(0.867233 0.00253811 0)
(0.843951 0.000902207 0)
(0.986294 0.00409445 0)
(1.03683 -0.0108438 0)
(0.981762 0.00456496 0)
(0.841102 -0.000686326 0)
(0.971061 -7.79119e-05 0)
(1.03037 -0.0109471 0)
(1.11537 -0.0619517 0)
(0.983014 0.00222693 0)
(0.985221 0.00221256 0)
(0.995433 -0.00128115 0)
(0.996776 0.00103103 0)
(0.995237 0.00125894 0)
(1.08162 -0.0347809 0)
(1.06565 -0.0363645 0)
(0.849263 0.0198934 0)
(0.907967 0.00795754 0)
(0.760416 0.0450739 0)
(1.05121 -0.00162375 0)
(0.857516 -0.00128216 0)
(1.0843 -0.052967 0)
(1.05171 -0.00276017 0)
(1.1116 -0.0440971 0)
(0.964988 0.000142817 0)
(0.949755 -0.00150176 0)
(0.858242 0.0220551 0)
(0.848277 0.0198229 0)
(0.857657 0.0220385 0)
(1.02493 -0.00250622 0)
(0.854999 0.00155178 0)
(0.846692 0.0191047 0)
(0.855565 0.00163622 0)
(0.826927 -0.000242946 0)
(0.845498 0.0190238 0)
(1.02792 -0.00114403 0)
(0.827327 -9.15756e-05 0)
(0.850374 0.0205312 0)
(0.851451 0.0206023 0)
(1.06747 -0.0267183 0)
(1.0781 -0.0328761 0)
(0.804166 0.00256702 0)
(0.975884 0.0229976 0)
(0.984557 -0.0876747 0)
(0.921302 -0.0011312 0)
(0.829087 0.00218041 0)
(0.867227 -0.00238071 0)
(0.795869 0.00114495 0)
(0.832137 0.0275129 0)
(0.829603 0.00870126 0)
(0.972294 -0.0259499 0)
(0.853807 0.0017679 0)
(1.03238 -0.011974 0)
(0.83496 0.0252625 0)
(0.931075 0.0225771 0)
(0.949409 -0.0348907 0)
(0.930354 0.0220712 0)
(1.0967 -0.0416645 0)
(0.843603 0.000829923 0)
(0.984054 -0.0306104 0)
(0.941799 -0.0122794 0)
(0.922997 0.0254449 0)
(0.834094 0.0275021 0)
(0.855485 0.0050706 0)
(0.808878 0.00235914 0)
(0.826499 0.00529273 0)
(0.854422 0.000101115 0)
(0.929726 0.0215926 0)
(0.92985 0.0227272 0)
(0.962743 -0.0261823 0)
(0.975509 0.00135251 0)
(0.953996 0.000650822 0)
(0.833052 -0.00417921 0)
(1.05384 -0.0217971 0)
(0.798458 0.000830385 0)
(0.830303 -0.00512245 0)
(0.929107 0.0221992 0)
(1.00299 -0.00202689 0)
(0.836249 0.0299657 0)
(0.987843 0.0197509 0)
(0.836202 0.0310279 0)
(0.836001 0.0291041 0)
(0.975095 0.0244152 0)
(0.973742 0.0255418 0)
(0.808853 0.000405299 0)
(0.928167 0.0216497 0)
(1.07152 -0.0466122 0)
(1.03014 -0.0122113 0)
(0.832564 -0.000255901 0)
(1.02867 -0.0118004 0)
(1.06113 -0.00198795 0)
(0.832839 -0.00023552 0)
(0.83473 0.0283517 0)
(1.02562 -0.0119805 0)
(1.02584 -0.00881498 0)
(0.834603 0.0272634 0)
(1.05916 -0.00262642 0)
(0.891865 -0.030601 0)
(0.83092 0.0262723 0)
(0.911722 0.0103987 0)
(0.915316 0.020869 0)
(0.914078 0.0211812 0)
(1.03809 -0.0100286 0)
(0.852436 0.000250765 0)
(0.895504 -0.0440985 0)
(0.810948 -0.0233999 0)
(0.964282 0.000210364 0)
(0.919461 -0.0329874 0)
(0.844802 0.00101477 0)
(1.02294 -0.00571253 0)
(0.969379 -0.00726858 0)
(1.08488 -0.0454092 0)
(0.821041 0.0678549 0)
(0.813389 0.000221302 0)
(0.812798 0.000339591 0)
(0.833823 -0.000236779 0)
(0.937408 0.0160772 0)
(0.936907 0.0164027 0)
(0.860701 0.0221922 0)
(0.832603 0.0315552 0)
(0.865338 -0.00123581 0)
(1.03485 -0.00266667 0)
(0.94567 0.0144925 0)
(0.909183 -0.0151576 0)
(0.83214 0.031794 0)
(0.946681 0.0145378 0)
(1.03507 -0.00178944 0)
(1.03029 -0.0110916 0)
(1.03347 -0.0121089 0)
(0.856875 0.00625899 0)
(1.03249 -0.0122351 0)
(1.00779 -0.00332394 0)
(1.07973 -0.0526383 0)
(1.0371 -0.0114136 0)
(1.08976 -0.0464251 0)
(0.966324 0.00983931 0)
(0.84452 0.0011683 0)
(0.844987 0.00117175 0)
(0.967621 0.00963287 0)
(0.829386 0.00161146 0)
(0.84305 0.0010231 0)
(1.03285 -0.00901767 0)
(1.03687 -0.0105873 0)
(0.843874 0.00101011 0)
(1.06989 -0.00161502 0)
(1.05345 -0.0367634 0)
(1.01815 -0.00602102 0)
(1.05826 -0.031354 0)
(1.05733 -0.0289006 0)
(1.0719 -0.00162437 0)
(1.04337 -0.0377482 0)
(1.04884 -0.0386522 0)
(1.09789 -0.0505219 0)
(1.09684 -0.049564 0)
(0.885231 0.000191017 0)
(0.817392 0.0188735 0)
(0.947989 -0.000465862 0)
(0.816752 0.0190142 0)
(0.885858 6.0411e-05 0)
(1.02512 -0.0107948 0)
(1.0465 -0.0342471 0)
(1.09194 -0.034092 0)
(0.811964 0.00577597 0)
(0.844427 0.00090803 0)
(1.01449 -0.00182355 0)
(0.811151 0.000781112 0)
(1.02108 -0.00783696 0)
(1.0071 -0.00205874 0)
(0.837567 0.0314011 0)
(0.838288 0.0323627 0)
(0.980383 0.00381476 0)
(0.837375 0.0303668 0)
(0.82677 0.000627786 0)
(0.837483 0.0293025 0)
(0.823372 -0.00417263 0)
(1.03653 -0.00947693 0)
(1.01743 -0.0111003 0)
(0.944169 0.000359722 0)
(0.820739 -0.0402204 0)
(0.832616 -0.00484781 0)
(1.04268 0.000395623 0)
(0.866167 0.00242866 0)
(1.01237 -0.00524042 0)
(1.01253 -0.00559986 0)
(1.04336 -0.00011845 0)
(0.832601 0.0263821 0)
(1.01473 -0.00807379 0)
(1.01982 -0.0100595 0)
(1.01676 -0.00781119 0)
(0.805428 -0.00218216 0)
(0.801958 -0.00310503 0)
(0.808128 -0.00365852 0)
(0.816111 -0.00329843 0)
(1.02182 -0.00932104 0)
(1.01894 -0.0058913 0)
(0.836903 0.000449959 0)
(0.986355 0.0184567 0)
(0.83644 0.0274704 0)
(1.04558 -0.0396907 0)
(0.837112 0.000429835 0)
(1.04567 -0.0380295 0)
(0.963033 0.0064764 0)
(1.05844 0.00879782 0)
(0.81147 0.00586804 0)
(1.07142 -0.00228885 0)
(1.07347 -0.00110652 0)
(0.902834 -0.0129374 0)
(0.791851 0.06718 0)
(0.859266 0.0222351 0)
(1.09191 -0.0371499 0)
(1.02441 -0.0258357 0)
(1.03775 0.0265202 0)
(1.05889 -0.0335054 0)
(0.854771 0.0211639 0)
(0.853469 0.0210699 0)
(1.02893 -0.012918 0)
(0.841844 0.00299572 0)
(0.812924 0.00597014 0)
(0.812486 0.00609256 0)
(1.02141 -0.0103496 0)
(1.11862 -0.0859776 0)
(0.97306 -0.00246382 0)
(1.02745 -0.0109727 0)
(0.857126 0.000693131 0)
(0.847852 0.0194733 0)
(0.811919 0.000286854 0)
(0.847316 0.0193788 0)
(0.85405 0.000122315 0)
(0.843337 0.0179917 0)
(0.740823 0.0501269 0)
(0.842883 0.0177314 0)
(0.91924 -0.0079598 0)
(1.07654 -0.0375734 0)
(1.09726 -0.047421 0)
(0.959739 0.00526024 0)
(0.91464 -0.0201708 0)
(0.817512 -0.0196476 0)
(0.796757 -0.0216756 0)
(1.0711 -0.0272044 0)
(0.998444 0.0052062 0)
(0.958082 0.00641502 0)
(0.917 -0.0413148 0)
(0.899289 0.0228132 0)
(0.89345 0.0230659 0)
(0.888927 0.023401 0)
(0.903999 0.0222323 0)
(0.898317 0.0229778 0)
(0.8314 0.00200173 0)
(1.10536 0.00270152 0)
(0.892526 0.0232692 0)
(0.883727 0.0236718 0)
(0.902684 0.0225501 0)
(1.03274 -0.0120848 0)
(0.887696 0.0236462 0)
(0.91932 0.0208526 0)
(0.909097 0.0217309 0)
(0.882759 0.0237814 0)
(0.857294 0.000364007 0)
(0.878684 0.0237405 0)
(0.908453 0.0218945 0)
(0.877811 0.0237377 0)
(0.845202 0.00271761 0)
(0.917469 0.0204965 0)
(0.864207 0.0593466 0)
(0.8737 0.0234757 0)
(0.87257 0.0236307 0)
(0.916934 0.0207468 0)
(0.869908 0.0231081 0)
(0.868878 0.0263132 0)
(0.923316 0.0196174 0)
(0.868651 0.0231521 0)
(0.845181 0.000978172 0)
(0.864582 0.0228959 0)
(0.921698 0.019932 0)
(0.80767 0.00115198 0)
(0.927409 0.0184608 0)
(0.864092 0.0229043 0)
(0.935651 -0.000940997 0)
(0.833363 -0.00389679 0)
(0.883617 -0.00318162 0)
(0.927137 0.0187543 0)
(0.844832 0.00261153 0)
(0.840046 0.000513783 0)
(0.843074 0.00224679 0)
(0.934587 0.017633 0)
(0.921301 0.025913 0)
(0.842718 0.0010078 0)
(0.842709 0.00226845 0)
(0.839636 0.000551259 0)
(0.933391 0.0179221 0)
(0.885363 -0.00110007 0)
(0.851506 -0.0150773 0)
(0.942473 0.0152401 0)
(0.803459 0.00307859 0)
(1.01585 -0.000735947 0)
(0.93999 0.015875 0)
(0.947785 0.0132733 0)
(0.946591 0.0136547 0)
(1.07805 -0.0371775 0)
(0.957056 0.0127489 0)
(0.956996 0.0126965 0)
(0.959753 0.0102548 0)
(0.792995 0.000674316 0)
(0.961144 0.00317886 0)
(0.95719 0.0110414 0)
(0.80326 0.00199624 0)
(0.965516 0.00822071 0)
(0.981401 0.0212766 0)
(0.803478 0.00193146 0)
(0.865506 0.00244155 0)
(0.965521 0.0084541 0)
(1.04484 -0.0196569 0)
(0.828124 0.00578919 0)
(0.977973 0.00714589 0)
(0.976942 0.00728278 0)
(0.975362 0.00440294 0)
(1.04773 -0.00171305 0)
(0.974233 0.00485107 0)
(0.911739 -0.018921 0)
(0.988334 0.00427476 0)
(0.801545 -0.00126591 0)
(1.00544 -0.00277794 0)
(1.05191 -0.000776168 0)
(0.989195 0.00403058 0)
(0.983226 0.0203115 0)
(0.991069 0.0169154 0)
(1.0288 -0.0119355 0)
(0.988909 0.0009659 0)
(1.00444 -0.00399118 0)
(1.00444 -0.00427115 0)
(0.988595 -0.00295743 0)
(0.984915 0.00166665 0)
(0.995037 9.82334e-05 0)
(0.997707 -1.13323e-05 0)
(0.922276 -0.00501528 0)
(0.954834 -0.0133309 0)
(0.820873 -0.0436542 0)
(0.813227 -0.000598231 0)
(0.956046 -0.0295952 0)
(0.83183 -0.00449211 0)
(0.981107 -0.0207642 0)
(0.862283 -0.00585692 0)
(0.871324 -0.0176591 0)
(0.912014 0.00140294 0)
(0.757871 0.0529709 0)
(0.936406 0.000787444 0)
(0.844283 0.00926246 0)
(0.962945 -0.00649216 0)
(0.958835 -0.00160276 0)
(0.94973 0.0365072 0)
(0.944233 0.0382439 0)
(0.819804 -0.00274309 0)
(0.936163 -0.00430606 0)
(0.928826 0.0196093 0)
(0.922548 0.0202992 0)
(0.962638 -0.00163079 0)
(0.975647 -0.000686238 0)
(0.929666 0.0190201 0)
(0.927835 0.0198905 0)
(0.929413 0.0191636 0)
(0.929022 0.0253775 0)
(1.09425 -0.0429927 0)
(1.08338 -0.0347741 0)
(1.0059 -0.00304057 0)
(1.02706 -0.0111509 0)
(0.817553 -0.00190108 0)
(1.01719 -0.00586151 0)
(1.03875 -0.0333392 0)
(1.10938 -0.0463136 0)
(0.987429 0.0182203 0)
(0.829589 -0.000471302 0)
(0.900286 0.024816 0)
(0.927152 0.0261531 0)
(1.15418 -0.0693893 0)
(0.823589 0.000189139 0)
(0.906219 -0.000791394 0)
(0.884472 -0.0103584 0)
(1.00557 0.00545847 0)
(0.907852 -0.00121457 0)
(0.835618 0.00392773 0)
(0.863849 0.0253226 0)
(0.809014 0.000533865 0)
(1.0374 -0.0123285 0)
(0.987073 0.0175189 0)
(0.92914 0.00135346 0)
(0.931087 0.0187932 0)
(0.984995 0.0198884 0)
(0.976776 0.0229549 0)
(0.894969 -0.0421868 0)
(1.05433 -0.00113243 0)
(1.00514 0.00657677 0)
(1.05011 -0.00162326 0)
(1.00496 -0.00288041 0)
(1.00611 -0.00223478 0)
(1.093 -0.0642694 0)
(1.05497 -0.0375604 0)
(0.910193 -0.0185923 0)
(1.01595 0.000882918 0)
(0.925409 0.020095 0)
(0.999704 -0.0014069 0)
(0.807409 0.00202544 0)
(0.925778 0.0200375 0)
(0.884267 0.025804 0)
(1.0365 -0.0108717 0)
(0.994982 0.0114132 0)
(0.807444 0.00109534 0)
(0.806818 0.00206424 0)
(0.883459 0.00287005 0)
(1.02682 -0.00577385 0)
(0.834317 0.031707 0)
(0.804668 -0.00419231 0)
(0.885474 0.0033493 0)
(0.91238 -0.0189127 0)
(0.994075 0.0124274 0)
(1.08644 -0.0421275 0)
(0.830992 -0.000282466 0)
(1.052 -0.00836563 0)
(0.887078 0.00405119 0)
(1.0257 -0.00677134 0)
(1.02747 -0.00770439 0)
(0.858305 0.00121403 0)
(0.831313 -0.00027937 0)
(0.801373 -0.0585126 0)
(1.10466 -0.0476427 0)
(0.87008 0.0262593 0)
(1.09653 -0.0453479 0)
(1.01825 -0.0106882 0)
(1.01837 -0.00890538 0)
(0.764256 0.00564884 0)
(0.920721 0.020753 0)
(1.02162 -0.00912136 0)
(0.834828 0.0245761 0)
(1.00469 -0.00702217 0)
(0.88916 0.00452671 0)
(0.984328 0.0170264 0)
(0.912943 -0.000434623 0)
(0.960668 -0.00536804 0)
(1.06948 -0.0307675 0)
(0.875948 0.00181125 0)
(0.875081 0.00193337 0)
(1.01805 -0.00522563 0)
(0.960349 -0.0106238 0)
(1.00894 -0.00447479 0)
(1.02497 -0.0109521 0)
(1.00236 -0.0130794 0)
(1.00115 -0.0113279 0)
(0.875981 0.00187755 0)
(0.913095 -0.00049748 0)
(1.00659 -0.00430918 0)
(1.03067 -0.012698 0)
(1.03037 -0.0126144 0)
(1.09518 -0.0465621 0)
(0.982713 0.0178076 0)
(0.835998 0.0247296 0)
(1.02549 -0.00652578 0)
(1.10097 -0.0514697 0)
(1.01318 -0.00741082 0)
(1.09207 -0.0567591 0)
(1.01319 -0.00734439 0)
(0.926428 0.0262871 0)
(0.421441 0.00394373 0)
(0.859117 0.00183122 0)
(0.858568 0.00184812 0)
(1.04723 -0.0317859 0)
(1.0209 -0.00778336 0)
(0.864871 0.000377125 0)
(1.03914 -0.0109614 0)
(1.02031 -0.00758013 0)
(0.96372 0.000386502 0)
(0.965856 0.00145601 0)
(1.05939 -0.0385994 0)
(1.03606 -0.011838 0)
(0.83564 0.000261436 0)
(0.987733 0.00188697 0)
(0.903736 0.0250625 0)
(0.872337 0.00270453 0)
(0.870678 0.00244861 0)
(1.02538 -0.00403592 0)
(0.896029 0.0257321 0)
(0.862738 0.00221416 0)
(0.857469 0.00154464 0)
(0.841484 0.0264695 0)
(1.02252 -0.0117073 0)
(0.861385 0.0018997 0)
(1.02078 -0.0114841 0)
(1.08518 -0.0820742 0)
(0.874811 -0.0188629 0)
(0.943463 -0.00632605 0)
(0.805172 0.00295142 0)
(0.840124 0.0263058 0)
(0.942936 -0.00995074 0)
(0.828684 0.00161123 0)
(0.854593 0.0299021 0)
(1.03662 -0.00937243 0)
(0.860162 0.0305656 0)
(0.853197 0.0299314 0)
(0.874762 0.00495555 0)
(0.777296 -0.00467149 0)
(0.858183 0.0306557 0)
(1.02608 -0.00981435 0)
(0.94058 -0.00639647 0)
(0.906892 0.0238641 0)
(0.846458 0.00320205 0)
(0.959482 -0.0172134 0)
(0.869152 0.0314797 0)
(0.887637 0.0262088 0)
(1.02157 -0.00263824 0)
(0.830255 0.0013322 0)
(0.910357 0.0237268 0)
(0.867207 0.031512 0)
(0.877999 0.0314813 0)
(0.828313 0.0304502 0)