/*--------------------------------*- C++ -*----------------------------------*\
  =========                 |
  \\      /  F ield         | OpenFOAM: The Open Source CFD Toolbox
   \\    /   O peration     | Website:  https://openfoam.org
    \\  /    A nd           | Version:  12
     \\/     M anipulation  |
\*---------------------------------------------------------------------------*/
FoamFile
{
    format      ascii;
    class       volVectorField;
    location    "4.2";
    object      U;
}
// * * * * * * * * * * * * * * * * * * * * * * * * * * * * * * * * * * * * * //

dimensions      [0 1 -1 0 0 0 0];

internalField   nonuniform List<vector> 
45568
(
(1.4054 0.00951841 0)
(1.77307 -0.00835997 0)
(1.41068 -0.47235 0)
(1.58337 0.0537902 0)
(1.94017 0.0317632 0)
(1.78443 0.158453 0)
(1.67589 0.0676086 0)
(2 4.77403e-13 0)
(2.03485 -0.0577644 0)
(1.57502 -0.025555 0)
(1.91344 0.230331 0)
(1.36752 0.00584545 0)
(1.57676 0.0210969 0)
(2 -3.79951e-13 0)
(2.04249 0.104852 0)
(2.15201 -0.712919 0)
(2 4.30305e-14 0)
(2 -2.9312e-14 0)
(1.87643 0.0341177 0)
(1.59045 -0.0225828 0)
(2 6.28871e-16 0)
(1.40702 -0.467361 0)
(1.63366 0.0334674 0)
(2 -9.26274e-14 0)
(2 4.13044e-14 0)
(1.77923 0.155005 0)
(2 6.82954e-14 0)
(2 1.29767e-13 0)
(2.1055 -0.698633 0)
(1.57918 0.0227672 0)
(1.90432 -0.0309886 0)
(2 6.76847e-15 0)
(1.99924 -0.00461621 0)
(1.56748 -0.0498934 0)
(1.86576 0.145387 0)
(1.67647 -0.0761714 0)
(1.93917 0.0226233 0)
(2 3.22428e-15 0)
(1.57751 0.00968227 0)
(2 6.13811e-14 0)
(2 5.79786e-14 0)
(2.13789 -0.708193 0)
(2 6.269e-14 0)
(1.36565 0.00695903 0)
(2 -2.61433e-13 0)
(1.06632 0.0166288 0)
(2.13964 -0.707817 0)
(1.21751 0.00326406 0)
(1.87023 0.172508 0)
(2 -2.91254e-13 0)
(1.19509 -0.010645 0)
(1.49071 -0.0277309 0)
(2 -1.48929e-14 0)
(1.64286 0.00997408 0)
(1.3626 -0.0028445 0)
(1.41599 -0.475461 0)
(1.34379 0.00879344 0)
(1.45439 -0.000699619 0)
(1.48762 -0.0516362 0)
(1.90652 0.062644 0)
(2 -1.33408e-14 0)
(1.48263 -0.0493874 0)
(2 -2.19302e-13 0)
(2 1.07081e-13 0)
(1.40866 0.00623787 0)
(1.85741 0.301486 0)
(2 -1.39028e-14 0)
(1.87522 0.0251744 0)
(1.68409 -0.0763054 0)
(1.19359 0.00547964 0)
(1.99881 0.0479762 0)
(2.09006 -0.488985 0)
(1.18985 -0.0107221 0)
(1.56595 0.00290005 0)
(1.33743 0.0103284 0)
(2 -2.29307e-13 0)
(2 4.47292e-14 0)
(1.75803 0.135992 0)
(1.90711 0.066343 0)
(2 2.259e-13 0)
(1.50599 -0.00138451 0)
(1.62194 0.0666237 0)
(2.08665 -0.47084 0)
(1.25817 -0.00784679 0)
(1.44623 -0.0286284 0)
(2.00002 -6.85338e-06 0)
(1.41081 -0.000158336 0)
(1.81235 0.234003 0)
(1.67973 0.0692316 0)
(2.04032 -0.066322 0)
(1.68548 0.122998 0)
(2 1.17402e-14 0)
(1.60536 -0.0386303 0)
(1.20615 0.00293297 0)
(2 -8.9775e-14 0)
(2 8.69873e-14 0)
(1.19706 0.00745059 0)
(1.55604 -0.0207183 0)
(1.86534 -0.0405725 0)
(1.57648 0.0203784 0)
(1.9612 -0.0296087 0)
(1.46469 -0.030231 0)
(1.16212 -0.0125316 0)
(2 -3.85194e-13 0)
(2 -1.63467e-13 0)
(2 -1.07028e-13 0)
(2 -1.16536e-13 0)
(1.41072 -0.471768 0)
(2 2.04882e-14 0)
(1.22552 -0.000623483 0)
(2 -6.08543e-13 0)
(2.02705 -0.0875438 0)
(1.81491 -0.0837678 0)
(2 -4.73759e-14 0)
(1.21752 -0.00188253 0)
(2 2.19558e-13 0)
(2 -4.42241e-13 0)
(1.02191 -0.0273263 0)
(1.39208 -0.0195615 0)
(1.61799 -0.0079986 0)
(2 -5.39582e-14 0)
(1.53754 0.00370823 0)
(1.41588 -0.474487 0)
(1.41236 -0.467483 0)
(2 1.48709e-14 0)
(1.53711 0.00663427 0)
(1.15199 0.00421041 0)
(1.42942 -0.00584194 0)
(1.10253 0.00600985 0)
(2 5.02044e-14 0)
(1.38771 -0.000470699 0)
(1.29344 -0.00555589 0)
(1.20494 0.0044812 0)
(2 -1.80437e-13 0)
(2.13214 -0.705706 0)
(2 -9.41699e-14 0)
(2 -1.42363e-13 0)
(2 1.22189e-07 0)
(1.44833 -0.0292179 0)
(1.47264 -0.0269047 0)
(2 -2.29582e-13 0)
(1.67409 0.01216 0)
(1.52751 -0.0649371 0)
(2 -9.6939e-14 0)
(2.17828 -0.719168 0)
(2 1.45614e-13 0)
(2 9.76802e-15 0)
(2 -1.05144e-13 0)
(2 -8.3451e-14 0)
(2 -2.06034e-13 0)
(1.73763 0.146603 0)
(2 -2.92383e-13 0)
(2.10451 0.669186 0)
(1.8605 -0.0378917 0)
(2.11705 0.642368 0)
(2 -5.52679e-14 0)
(2 6.06362e-14 0)
(1.86722 -0.0300568 0)
(2.1272 0.768504 0)
(1.40621 0.00666335 0)
(2.13263 0.766563 0)
(2 1.52586e-13 0)
(1.45164 -0.0127058 0)
(2.12398 0.69927 0)
(1.87305 1.002 0)
(2.04018 0.0811105 0)
(1.67834 -0.0776422 0)
(2 -4.25564e-14 0)
(1.39136 -0.00423084 0)
(2 3.83679e-14 0)
(2.14411 -0.71657 0)
(2 5.14607e-14 0)
(1.79002 0.194024 0)
(2 1.37582e-13 0)
(1.37272 -0.0187877 0)
(2.13798 0.732006 0)
(2.14719 0.736457 0)
(1.43412 -0.00630772 0)
(1.40704 -0.00728816 0)
(1.36901 0.00479106 0)
(1.38949 -0.0192708 0)
(1.63804 0.00862479 0)
(2.13502 0.70798 0)
(2.14611 0.709582 0)
(1.7693 0.061262 0)
(1.67695 0.0722482 0)
(2 1.67709e-14 0)
(1.99688 -0.0229293 0)
(1.68828 0.105141 0)
(2.13566 0.702319 0)
(2.14353 0.702031 0)
(1.58543 -0.0297014 0)
(1.68924 0.108137 0)
(1.77258 0.0613311 0)
(1.58024 0.0101398 0)
(1.96218 -0.0246639 0)
(2.1365 0.705934 0)
(1.85906 0.103224 0)
(1.88921 0.997667 0)
(2.14508 0.705267 0)
(1.8553 0.299331 0)
(1.59536 0.0535711 0)
(1.40955 -0.467989 0)
(0.954511 -0.0312345 0)
(1.05292 0.0175354 0)
(1.49726 0.00107082 0)
(1.68812 0.0922168 0)
(1.67587 0.0129842 0)
(1.90159 0.00540464 0)
(1.39873 0.0114655 0)
(1.87232 -0.0327049 0)
(2 -1.25856e-13 0)
(1.44868 -0.00857987 0)
(2 -1.44783e-13 0)
(1.40737 -0.467242 0)
(2.13561 0.707698 0)
(2.14327 0.713053 0)
(2 -1.56918e-13 0)
(1.57641 -0.0125103 0)
(1.39978 -0.464078 0)
(1.57325 0.0207004 0)
(1.8526 -0.120867 0)
(1.60632 -0.0395086 0)
(1.72317 0.136848 0)
(1.3565 -0.0187775 0)
(1.61364 0.0738406 0)
(2.13671 0.7072 0)
(2.14133 0.71431 0)
(2 3.14927e-13 0)
(1.68525 0.121361 0)
(2.05372 -0.0668734 0)
(1.58012 0.0112349 0)
(2.15222 -0.582325 0)
(1.39602 -0.00423296 0)
(1.65299 0.0329863 0)
(2.10736 -0.0341796 0)
(2.03705 0.0760646 0)
(1.79837 -0.030842 0)
(2 -1.75943e-13 0)
(1.38786 0.00251826 0)
(2.15045 0.767094 0)
(1.79358 -0.0305234 0)
(1.37205 -0.0187497 0)
(2.00002 -6.82404e-06 0)
(1.79411 -0.025099 0)
(1.7575 0.0849922 0)
(1.40668 -0.469239 0)
(1.78935 -0.0248135 0)
(1.81132 0.0495184 0)
(1.75145 0.0882398 0)
(2 -1.53533e-13 0)
(1.79187 0.121979 0)
(1.80621 0.0491971 0)
(1.23001 0.00979464 0)
(2.13515 0.717577 0)
(1.82058 0.161598 0)
(2.13631 0.717398 0)
(2.14574 0.712722 0)
(2.1448 0.71102 0)
(1.78326 0.122868 0)
(2 -1.56432e-13 0)
(1.82608 0.162526 0)
(1.74034 0.153599 0)
(2 1.98629e-13 0)
(1.19742 -0.00890774 0)
(1.83032 0.169554 0)
(1.72063 0.120536 0)
(1.68528 0.0241807 0)
(1.46022 0.00135382 0)
(2.13535 0.71484 0)
(1.76898 -0.0140243 0)
(2.14304 0.710482 0)
(2 -2.72865e-14 0)
(1.41625 0.00242295 0)
(0.938254 -0.0291515 0)
(1.63234 -0.105515 0)
(2 -2.54858e-13 0)
(1.7104 -0.0488668 0)
(2 1.05168e-13 0)
(2 -3.86469e-14 0)
(2 -2.20285e-13 0)
(0.852481 0.0387292 0)
(2 1.56536e-13 0)
(1.87373 1.00304 0)
(1.31549 -0.00751842 0)
(1.57916 0.00689492 0)
(1.8452 0.222105 0)
(1.8616 0.251666 0)
(1.63554 -0.0488128 0)
(1.84332 0.218533 0)
(1.86512 0.257113 0)
(1.3167 -0.00520014 0)
(1.38512 -0.000254671 0)
(1.57752 -0.0266889 0)
(2 7.53598e-14 0)
(2 1.1221e-13 0)
(1.39563 -0.00760866 0)
(1.55616 -0.00993128 0)
(1.55843 -0.0489484 0)
(1.8429 -0.109043 0)
(1.78823 0.190708 0)
(1.80157 0.106425 0)
(2 7.47621e-14 0)
(1.40397 -0.466295 0)
(1.58651 -0.0280504 0)
(1.90454 -0.0416584 0)
(1.84489 0.267352 0)
(1.33675 0.00120819 0)
(2 1.13955e-13 0)
(1.66023 0.00234896 0)
(1.4066 -0.468403 0)
(2 -3.75955e-14 0)
(1.48673 0.00374068 0)
(2.04931 0.101593 0)
(2.03919 0.09934 0)
(1.55016 0.0164483 0)
(1.47195 -0.0451915 0)
(1.78082 -0.0135515 0)
(2.13827 -0.547223 0)
(1.4442 -0.00490183 0)
(1.41025 -0.470055 0)
(1.47146 0.0826841 0)
(1.41119 -0.470225 0)
(2 5.26247e-14 0)
(2 1.4514e-14 0)
(1.58431 -0.0230176 0)
(1.68148 -0.108592 0)
(1.64234 -0.0261355 0)
(1.57363 -0.0253642 0)
(2 3.72983e-13 0)
(2 6.55906e-14 0)
(1.42649 0.00468767 0)
(2.09546 -0.43517 0)
(1.62641 0.0701048 0)
(2 5.18282e-13 0)
(1.10318 0.00500127 0)
(0.843529 0.0384799 0)
(1.6897 0.0912679 0)
(1.41047 -0.00565685 0)
(1.33092 -0.00454062 0)
(0.822877 -0.0451444 0)
(1.44057 0.00139235 0)
(1.40749 -0.468479 0)
(1.71704 -0.0541215 0)
(2 -2.76473e-13 0)
(2 -1.60417e-13 0)
(2 3.64977e-13 0)
(1.95974 0.0240713 0)
(2 8.40809e-14 0)
(2.00001 0.000542862 0)
(1.62097 -0.0554896 0)
(1.58856 -0.0324755 0)
(2 1.64913e-13 0)
(2.07728 0.0466288 0)
(1.63035 0.0384761 0)
(1.51908 -0.00364275 0)
(1.9975 0.0407699 0)
(2 4.10109e-13 0)
(1.56735 0.0186726 0)
(1.50467 0.00135646 0)
(0.840708 0.0140332 0)
(2.09294 -0.390534 0)
(1.58174 0.052945 0)
(1.90322 0.0164721 0)
(1.89869 0.0299166 0)
(1.61604 0.0671888 0)
(2 9.61598e-14 0)
(1.55796 -0.025453 0)
(1.90201 0.0254883 0)
(1.35708 0.000978753 0)
(1.37767 0.0081886 0)
(1.45353 -0.0105526 0)
(1.68427 -0.459045 0)
(2 -1.78261e-13 0)
(1.63638 -0.165478 0)
(1.85874 0.245121 0)
(2 -2.44338e-13 0)
(1.51781 0.00636891 0)
(1.5154 -0.00533854 0)
(2.01666 -0.0809068 0)
(1.63295 0.174996 0)
(1.63278 0.175525 0)
(2 1.07523e-13 0)
(1.17306 -0.00843551 0)
(2.13568 -0.745228 0)
(2 -4.46304e-14 0)
(1.6722 -0.128331 0)
(1.73705 0.1442 0)
(2 -1.81658e-13 0)
(1.76332 0.142775 0)
(1.5896 0.00709297 0)
(2 -1.29395e-13 0)
(1.99098 -0.449751 0)
(2 -1.94538e-13 0)
(2.12123 -0.70171 0)
(2 -1.74144e-13 0)
(1.2765 0.00162418 0)
(2 4.55134e-15 0)
(2 -1.29558e-13 0)
(1.81579 0.23819 0)
(2 -2.88837e-13 0)
(2 -1.24789e-13 0)
(1.62067 -0.0533359 0)
(2 -1.3446e-13 0)
(2 2.54653e-13 0)
(1.39753 0.00411229 0)
(2 -1.33254e-13 0)
(2 -9.94196e-14 0)
(1.59015 -0.0333392 0)
(2 -2.16057e-13 0)
(2 6.04945e-14 0)
(2 -1.13995e-13 0)
(1.39154 0.00157574 0)
(2 -8.14845e-08 0)
(2.04714 0.0815669 0)
(1.59265 -0.022248 0)
(2 -2.20854e-13 0)
(1.52331 -0.00827248 0)
(1.52434 -0.0624421 0)
(1.30233 -0.00863947 0)
(1.66624 -0.067105 0)
(2 -1.42385e-13 0)
(2 -1.15208e-14 0)
(2 9.47206e-14 0)
(2.0454 0.0723444 0)
(2 4.76782e-14 0)
(1.45132 -0.460177 0)
(1.47405 -0.449225 0)
(1.71507 -0.438763 0)
(2 -1.60865e-13 0)
(0.987838 -0.00548144 0)
(2 -9.20813e-14 0)
(1.99999 -9.50293e-06 0)
(2 -2.19302e-14 0)
(2 -1.87021e-13 0)
(1.61793 -0.0687801 0)
(1.90458 0.0455564 0)
(2 -1.85119e-13 0)
(2 8.18241e-15 0)
(1.5947 -0.392624 0)
(2.13795 -0.719504 0)
(1.60206 -0.384783 0)
(2 1.28267e-13 0)
(1.57018 0.00200814 0)
(1.77869 0.0443026 0)
(1.68225 -0.0901113 0)
(2 1.94582e-13 0)
(2 6.44742e-14 0)
(1.28953 0.00559948 0)
(1.56867 0.0192456 0)
(1.8169 0.164009 0)
(1.68315 0.0227833 0)
(2 7.81989e-06 0)
(2.01301 -0.0749303 0)
(1.77962 0.190584 0)
(2 5.01707e-14 0)
(1.90075 -0.0215983 0)
(1.1553 0.00552824 0)
(1.5825 0.0319598 0)
(1.61988 -0.00317689 0)
(2 -1.51064e-13 0)
(2 -1.73605e-13 0)
(1.60574 0.19409 0)
(2 5.75317e-15 0)
(2 -2.92379e-14 0)
(1.76207 0.394607 0)
(1.48542 0.00345009 0)
(2.08526 -0.0233898 0)
(2.11821 0.73383 0)
(2.13016 0.709502 0)
(1.8819 0.052198 0)
(1.7202 0.135126 0)
(2 -1.00134e-13 0)
(1.90811 1.00324 0)
(2 1.06472e-13 0)
(1.36858 0.00929418 0)
(1.48223 -0.0266441 0)
(1.28164 -0.0158305 0)
(1.33863 -0.00338498 0)
(1.65149 0.0335803 0)
(1.49325 0.00684872 0)
(1.99631 -0.464294 0)
(2.0111 -0.0127889 0)
(1.87912 -0.483379 0)
(2 -1.5338e-13 0)
(1.4967 -0.0235735 0)
(1.57804 0.0167332 0)
(2 1.2103e-13 0)
(1.60821 0.0591761 0)
(1.41284 -0.00181103 0)
(2 3.71484e-14 0)
(2 -2.51416e-12 0)
(1.8423 0.164968 0)
(2 1.25853e-13 0)
(2.12806 0.75663 0)
(1.70655 0.127483 0)
(2.13948 0.758074 0)
(2 -5.40278e-14 0)
(1.59346 -0.0272692 0)
(1.5534 0.0034645 0)
(2 3.09841e-14 0)
(1.57993 0.0569705 0)
(1.45027 -0.00955519 0)
(2 1.3102e-13 0)
(2 8.47432e-14 0)
(1.59433 -0.0355179 0)
(1.51664 0.0127754 0)
(1.45183 0.00161305 0)
(1.54125 -0.0637287 0)
(2 6.97434e-14 0)
(1.62811 -0.0469429 0)
(1.90076 -0.00900914 0)
(1.60608 -0.0395068 0)
(2 -8.35384e-14 0)
(1.88121 0.999661 0)
(2 3.12647e-15 0)
(2 -1.8132e-13 0)
(2.10625 -0.699756 0)
(2 -8.11542e-14 0)
(2 1.0123e-13 0)
(2 -1.4511e-13 0)
(2 -6.18197e-14 0)
(1.44384 -0.00565442 0)
(1.68208 0.0140869 0)
(2.08534 0.0301019 0)
(2 -1.4507e-13 0)
(2 -2.36613e-13 0)
(2.01197 0.0482577 0)
(1.73737 -0.0731882 0)
(2 1.41496e-15 0)
(2 -2.8597e-13 0)
(1.41059 -0.472046 0)
(1.67645 -0.0675654 0)
(1.42293 -0.473712 0)
(1.66446 -0.141757 0)
(2 -6.26611e-14 0)
(1.71366 -0.0584894 0)
(2.13752 -0.712416 0)
(2 -1.64675e-13 0)
(1.76625 -0.0271111 0)
(2 2.5949e-14 0)
(1.45064 0.00306047 0)
(2 1.84258e-14 0)
(1.67002 -0.132176 0)
(1.40095 -0.114113 0)
(2 -2.7402e-14 0)
(2 4.47774e-13 0)
(2.03637 0.321268 0)
(1.81279 0.0256788 0)
(2 3.16591e-14 0)
(2 1.38979e-15 0)
(2 2.18883e-13 0)
(2.13583 0.704488 0)
(2.1451 0.701386 0)
(2 9.67138e-14 0)
(0.833632 0.0166555 0)
(2 -2.42798e-14 0)
(2 -1.73609e-13 0)
(1.89889 -0.00568959 0)
(2 -8.17535e-11 0)
(1.53602 0.00959195 0)
(2.1258 -0.713416 0)
(1.90398 -0.0170564 0)
(1.59119 0.0513212 0)
(1.66689 0.0169256 0)
(2 -1.21553e-13 0)
(2 1.3651e-11 0)
(1.63974 -0.105357 0)
(2 5.87852e-14 0)
(2 2.27718e-13 0)
(2 2.18782e-13 0)
(2.00097 0.038755 0)
(1.88211 0.76561 0)
(2 -4.69983e-14 0)
(1.63221 -0.0966078 0)
(1.81212 0.00456229 0)
(2.05727 -0.0594514 0)
(1.33286 0.00380097 0)
(2 -3.78242e-14 0)
(2.18055 -0.720039 0)
(1.94412 -0.0500736 0)
(1.60765 -0.0981604 0)
(1.94272 0.981295 0)
(1.79203 0.0618843 0)
(1.43798 0.00178578 0)
(1.64025 0.03722 0)
(1.24775 -0.00139951 0)
(1.88625 -0.449443 0)
(2.02728 -0.0793428 0)
(1.857 0.103073 0)
(1.90272 0.0438507 0)
(2 -1.5011e-13 0)
(1.36268 -0.122339 0)
(1.83149 0.184481 0)
(2 -6.0853e-14 0)
(1.16479 -0.00947837 0)
(1.89994 -0.0254525 0)
(1.66194 0.181016 0)
(1.68076 0.0747451 0)
(1.36287 -0.00132213 0)
(2.13723 -0.713748 0)
(2.08493 0.030424 0)
(2 4.21477e-13 0)
(2 -2.81571e-13 0)
(1.19305 -0.235997 0)
(2.13502 0.715379 0)
(2.14504 0.711829 0)
(1.24 -0.0129204 0)
(1.67479 -0.130984 0)
(1.38876 -0.00577563 0)
(2 5.61837e-14 0)
(1.69536 0.0278633 0)
(2 -1.17383e-13 0)
(2.05113 0.0808254 0)
(1.68443 -0.091196 0)
(1.86832 0.258001 0)
(1.40506 -0.010585 0)
(1.86432 0.249501 0)
(1.61881 -0.102192 0)
(2 2.9619e-15 0)
(1.6777 -0.126171 0)
(2 8.97181e-14 0)
(1.06839 0.0171562 0)
(1.51822 -0.0799142 0)
(1.68372 -0.0748208 0)
(1.27086 0.00301097 0)
(2.14198 -0.70801 0)
(2 4.57767e-13 0)
(1.77875 0.187474 0)
(1.62884 0.187145 0)
(2 -3.60592e-14 0)
(1.55714 0.0193113 0)
(1.81034 0.145491 0)
(1.64872 -0.00759498 0)
(2.04778 0.0734799 0)
(1.41 -0.471386 0)
(1.39655 0.013617 0)
(1.58216 0.0306325 0)
(2 5.84541e-14 0)
(1.46842 -0.0449521 0)
(0.833112 -0.0494516 0)
(1.77011 0.0758863 0)
(1.6487 0.149223 0)
(2.14753 -0.707577 0)
(2 4.28474e-14 0)
(0.960007 0.00448524 0)
(2 8.31161e-14 0)
(1.38725 -0.462931 0)
(2 -5.81025e-14 0)
(2 -2.76731e-13 0)
(2.01659 -0.459822 0)
(1.3999 0.00884077 0)
(1.24144 -0.0114343 0)
(2 -3.26007e-14 0)
(1.73071 -0.0813125 0)
(1.83042 0.16986 0)
(0.835444 0.0276572 0)
(1.51808 -0.00335058 0)
(1.73209 0.0217561 0)
(1.56333 0.00498555 0)
(2.07829 0.0435701 0)
(1.8833 0.0466147 0)
(1.71934 -0.323117 0)
(1.71932 -0.328914 0)
(1.64643 0.149167 0)
(0.855742 0.0248236 0)
(1.45117 -0.027593 0)
(1.89035 0.252549 0)
(1.97794 0.00495057 0)
(1.89858 0.0132721 0)
(2 -1.11409e-13 0)
(1.9066 0.0113796 0)
(1.99137 0.0481816 0)
(1.20189 -0.0109531 0)
(1.67336 0.0965419 0)
(1.36494 0.00806034 0)
(2.02088 -0.0846914 0)
(2 2.85733e-14 0)
(0.952625 0.00621441 0)
(2 -9.63226e-14 0)
(1.6713 0.129785 0)
(1.68268 -0.0746778 0)
(1.60384 -0.050906 0)
(1.79682 -0.0610118 0)
(0.852019 0.0311981 0)
(1.7658 -0.0213793 0)
(2 1.44438e-13 0)
(2 -1.74995e-14 0)
(1.4508 -0.0417018 0)
(1.75894 0.159918 0)
(2.13689 0.710227 0)
(1.53818 -0.0153345 0)
(1.72786 0.440256 0)
(2 -2.03653e-13 0)
(1.41466 0.0124069 0)
(2.14246 0.715372 0)
(1.77859 0.0515587 0)
(1.44758 -0.00825037 0)
(1.85172 -0.0464699 0)
(1.82888 0.177381 0)
(1.35679 0.00411265 0)
(2 -5.18736e-09 0)
(2 1.19228e-14 0)
(2 4.75727e-15 0)
(1.58075 -0.0469823 0)
(2 -1.53751e-13 0)
(1.58482 0.0316849 0)
(2 -1.35149e-13 0)
(2 -6.33815e-14 0)
(2 -5.85658e-14 0)
(1.99999 -1.29731e-05 0)
(1.75738 0.491188 0)
(1.61078 -0.0750891 0)
(1.84036 0.195897 0)
(2 -1.3895e-12 0)
(2 4.68655e-14 0)
(1.95161 -0.445355 0)
(1.61376 -0.0726946 0)
(0.752434 -0.0782416 0)
(2.01143 0.0403006 0)
(1.57773 0.0112763 0)
(1.68097 0.0112019 0)
(1.78377 -0.0531293 0)
(1.37926 0.00576379 0)
(1.38686 0.000878778 0)
(1.28072 0.00435343 0)
(1.51453 -0.00394174 0)
(1.93075 -0.476302 0)
(1.45134 0.0038534 0)
(2 -4.8161e-14 0)
(2 5.69669e-14 0)
(1.65717 -0.0819887 0)
(1.72306 -0.450139 0)
(1.57497 -0.0232225 0)
(1.73577 -0.0508094 0)
(1.87906 -0.460136 0)
(1.58573 -0.0376762 0)
(1.74683 0.386466 0)
(1.35598 -0.0162819 0)
(1.50736 0.00801344 0)
(1.55618 0.00525355 0)
(1.78793 -0.0260265 0)
(1.44639 -0.0064415 0)
(1.63977 0.179516 0)
(1.80567 0.127843 0)
(2 -9.09688e-14 0)
(1.85172 -0.11211 0)
(1.78707 -0.019754 0)
(1.35877 -0.0177721 0)
(1.78894 -0.0155923 0)
(2.029 0.146614 0)
(1.42222 -0.476947 0)
(1.86888 0.258949 0)
(1.50477 0.00198553 0)
(2 4.03759e-15 0)
(1.38522 -0.461424 0)
(1.53113 0.0128768 0)
(2 -1.37679e-14 0)
(1.88322 -0.0711277 0)
(1.86602 0.259364 0)
(2 -1.37864e-13 0)
(1.64142 -0.0287724 0)
(1.80927 0.00584402 0)
(1.23803 -0.00127112 0)
(1.8824 -0.431131 0)
(2 -1.52817e-13 0)
(2 1.21821e-13 0)
(1.84987 -0.412173 0)
(2.10134 0.0131286 0)
(1.60589 -0.0914096 0)
(1.85161 -0.0402022 0)
(1.81105 0.0107959 0)
(1.7518 0.376405 0)
(1.67137 0.216091 0)
(1.40945 -0.470205 0)
(1.54392 0.0219616 0)
(1.98724 -0.00946291 0)
(1.89086 0.999721 0)
(1.8852 0.726643 0)
(1.67522 0.244305 0)
(1.80929 0.0152753 0)
(1.93913 -0.0494765 0)
(1.85028 -0.401925 0)
(1.68438 -0.105868 0)
(1.63655 0.00204328 0)
(1.73013 0.354377 0)
(1.64966 -0.0852995 0)
(1.34885 -0.151091 0)
(1.46659 0.00812618 0)
(1.58576 0.0089237 0)
(1.80127 0.0559991 0)
(1.1152 -0.00706239 0)
(1.77531 -0.0235707 0)
(1.88084 0.033945 0)
(1.64997 -0.0860412 0)
(1.44468 0.00484588 0)
(1.609 -0.0414744 0)
(1.64558 0.171986 0)
(1.67591 0.069477 0)
(1.78482 -0.0503712 0)
(1.50113 -0.006432 0)
(1.33048 -0.00715942 0)
(2.10515 0.506924 0)
(1.53351 -0.0833818 0)
(2.09168 0.512924 0)
(1.18779 -0.0109532 0)
(1.3874 -0.00261342 0)
(1.6798 -0.0627567 0)
(1.51991 -0.0754237 0)
(1.84649 -0.137609 0)
(2.05884 0.322778 0)
(1.7986 -0.032929 0)
(1.7863 -0.37309 0)
(1.61577 0.0639619 0)
(2 2.01853e-14 0)
(2.027 0.0851633 0)
(2 3.01734e-14 0)
(1.97091 -0.0611191 0)
(1.78087 -0.358789 0)
(1.63467 0.170736 0)
(2 3.51411e-14 0)
(1.71227 0.116621 0)
(2 -1.61347e-14 0)
(0.933198 -0.0340559 0)
(1.68049 0.123362 0)
(1.49897 -0.00968291 0)
(1.38088 0.0114355 0)
(1.4837 0.00147264 0)
(1.78423 -0.010865 0)
(1.80781 0.00153174 0)
(1.40868 0.0428764 0)
(1.61605 -0.0769044 0)
(1.42378 -0.4744 0)
(0.992574 0.00995283 0)
(2 2.00978e-13 0)
(1.90242 0.0205053 0)
(2 1.35295e-14 0)
(1.48534 -0.0259694 0)
(2 -1.2306e-09 0)
(2 -2.62488e-13 0)
(1.37902 -0.0037823 0)
(1.73776 -0.0468946 0)
(1.55564 0.00825685 0)
(1.50173 -0.0531228 0)
(1.91951 0.0323761 0)
(1.7318 0.3373 0)
(1.61177 -0.0680125 0)
(1.85273 -0.122543 0)
(1.51423 0.0251512 0)
(1.50198 -0.0510782 0)
(1.44311 -0.00437958 0)
(2 -3.68827e-13 0)
(1.56846 0.00866891 0)
(1.49997 -0.00150005 0)
(1.81333 0.0450809 0)
(1.99071 -0.435061 0)
(1.9906 -0.435725 0)
(2 -2.78874e-13 0)
(2.14019 0.768531 0)
(1.64417 -0.0536971 0)
(2.12676 0.761382 0)
(1.48146 -0.00192686 0)
(1.81284 0.227581 0)
(2 -3.54084e-13 0)
(1.76243 0.0824729 0)
(1.77893 -0.053024 0)
(1.39157 -0.00426771 0)
(1.4448 -0.0046463 0)
(2 -8.50076e-14 0)
(1.74745 0.0927585 0)
(1.84217 -0.214651 0)
(1.81471 0.157689 0)
(1.73424 -0.0454582 0)
(1.6723 -0.251998 0)
(1.79058 0.1166 0)
(1.84899 -0.141547 0)
(1.4496 0.00277524 0)
(1.64734 -0.219087 0)
(1.6709 0.249406 0)
(1.68367 0.268569 0)
(1.67135 -0.0679649 0)
(1.53856 0.00826117 0)
(1.60582 0.0795877 0)
(1.78438 0.130721 0)
(1.6216 -0.185642 0)
(1.81282 0.0343678 0)
(1.44947 0.0015395 0)
(1.4896 0.00388465 0)
(2 3.07248e-08 0)
(2 7.35131e-08 0)
(1.37242 -0.123127 0)
(2 -3.34393e-14 0)
(1.57819 -0.0358604 0)
(1.3064 -0.354242 0)
(2.27738 0.061428 0)
(1.78143 0.107801 0)
(2.14483 0.74776 0)
(1.78657 7.17758e-06 0)
(1.65281 0.145247 0)
(2.13295 0.747035 0)
(1.69082 0.0192703 0)
(1.53572 0.00490628 0)
(1.84485 0.204365 0)
(1.16191 0.0115798 0)
(0.911125 -0.0315519 0)
(1.75003 0.100774 0)
(1.85386 0.210221 0)
(1.84369 0.198423 0)
(2 2.97273e-14 0)
(1.88741 0.780573 0)
(1.72937 -0.347224 0)
(1.85432 0.215722 0)
(1.50027 0.0584782 0)
(1.62881 -0.165828 0)
(1.64406 -0.169771 0)
(1.86487 0.222123 0)
(2 2.6036e-14 0)
(1.8659 0.227151 0)
(1.52749 0.0127364 0)
(1.64728 0.132001 0)
(1.67209 -0.0653125 0)
(2.04348 -0.0518121 0)
(1.87438 0.227286 0)
(1.9876 -0.422787 0)
(2 -4.20353e-14 0)
(1.90901 0.467749 0)
(1.88673 0.216686 0)
(1.64544 0.17752 0)
(1.99847 -0.0683541 0)
(1.87151 0.460992 0)
(2.14785 0.725203 0)
(2.14163 0.720884 0)
(1.88564 0.742992 0)
(1.78111 0.112287 0)
(1.62798 0.356974 0)
(1.99591 -0.457192 0)
(2.00486 -0.00030195 0)
(1.64323 -0.0839101 0)
(1.60294 -0.0880906 0)
(1.88385 0.745261 0)
(1.53708 -0.0506553 0)
(2 1.31056e-13 0)
(1.79629 -0.0299832 0)
(1.88613 0.798426 0)
(2.1587 -0.719641 0)
(1.77801 -0.0317948 0)
(1.7526 0.0955298 0)
(1.57916 0.00826968 0)
(2 -8.32325e-12 0)
(2 4.88821e-13 0)
(1.7567 0.16093 0)
(2 1.05483e-13 0)
(1.67528 -0.0778515 0)
(1.57449 -0.0232587 0)
(1.81189 0.0401293 0)
(2.14161 0.70387 0)
(2.1367 0.705083 0)
(0.865671 0.0321583 0)
(1.41703 -0.478529 0)
(2 5.52596e-14 0)
(1.89939 0.99916 0)
(1.60056 0.0543883 0)
(1.55474 0.00699336 0)
(1.98681 0.434559 0)
(1.85087 0.270983 0)
(1.88535 -0.470309 0)
(2 4.07788e-14 0)
(1.5987 0.0532288 0)
(2.00556 -0.00687375 0)
(1.64961 0.148768 0)
(1.93571 -0.470897 0)
(2 3.39809e-14 0)
(1.93401 -0.452753 0)
(2.00844 -0.0138943 0)
(2.17448 0.735058 0)
(1.93819 -0.467424 0)
(1.53615 0.00708157 0)
(2 -4.25216e-14 0)
(1.75997 0.172357 0)
(2 -1.20323e-06 0)
(2 3.04611e-14 0)
(2 3.38713e-07 0)
(2.00244 -0.00287324 0)
(1.46343 -0.0400796 0)
(1.78907 -0.00537243 0)
(2 9.05155e-14 0)
(2 -4.13162e-13 0)
(1.67738 0.0992977 0)
(1.89914 0.427557 0)
(1.89659 -0.486846 0)
(1.55491 0.0808616 0)
(1.57035 0.0879923 0)
(1.57916 -0.015364 0)
(1.81911 0.171307 0)
(1.82398 0.165432 0)
(2.1255 -0.707671 0)
(2 -1.1783e-15 0)
(2 -1.04835e-14 0)
(1.61413 0.0622089 0)
(1.75189 0.13573 0)
(2.14459 0.703173 0)
(2.13546 0.704818 0)
(1.85457 0.240036 0)
(1.60467 -0.0949293 0)
(1.86315 0.162921 0)
(1.63542 -0.100634 0)
(1.87617 -0.0833666 0)
(2 3.78961e-14 0)
(2 1.86031e-13 0)
(1.63466 -0.000424044 0)
(2 2.09612e-13 0)
(2.17085 -0.724447 0)
(1.75198 -0.0693225 0)
(2 -2.6157e-14 0)
(1.99137 0.464235 0)
(1.62288 -0.0885858 0)
(2 3.5547e-13 0)
(1.7358 0.357248 0)
(1.72735 0.0263273 0)
(1.7262 -0.0552125 0)
(1.73861 0.367425 0)
(1.98169 -0.409925 0)
(2 4.13183e-14 0)
(1.01065 -0.0275255 0)
(2.12766 0.708487 0)
(1.47639 -0.00404899 0)
(1.99039 0.44754 0)
(1.4177 -0.0228224 0)
(2 7.90798e-08 0)
(1.97534 0.0278344 0)
(2 3.38467e-09 0)
(2 -4.63869e-14 0)
(2.00101 -0.481773 0)
(1.9935 -0.45196 0)
(1.12896 -0.00657813 0)
(1.5099 -0.073442 0)
(1.68921 -0.27894 0)
(2 5.90866e-13 0)
(1.72632 0.119489 0)
(1.81695 -0.393992 0)
(1.81925 -0.408481 0)
(1.6395 -0.177884 0)
(2.14361 0.710047 0)
(2.1308 -0.725352 0)
(1.66674 0.0572105 0)
(1.84549 0.0448148 0)
(2.13658 0.708924 0)
(1.68273 0.228345 0)
(1.94792 0.442109 0)
(1.6855 0.253661 0)
(2.13188 -0.727418 0)
(1.8375 0.189207 0)
(1.86248 0.421051 0)
(2 -4.37386e-10 0)
(1.66524 -0.0700662 0)
(1.58747 0.021723 0)
(1.82091 0.475358 0)
(1.8134 0.433956 0)
(1.66046 0.176559 0)
(1.81846 0.447434 0)
(1.82053 0.461937 0)
(2.14404 0.71408 0)
(1.43102 0.00565368 0)
(1.81106 0.0294674 0)
(1.99819 -0.0765977 0)
(1.5196 -0.00284908 0)
(1.89418 -0.0521159 0)
(1.82192 0.485564 0)
(1.81043 0.419265 0)
(2.03013 0.457028 0)
(2.13501 0.715243 0)
(1.73486 -0.331663 0)
(1.59651 0.0490843 0)
(2 2.34574e-10 0)
(2 2.37725e-10 0)
(1.74313 -0.35248 0)
(1.57798 0.0300205 0)
(0.985961 0.0154293 0)
(2 -1.95205e-09 0)
(1.66563 -0.135235 0)
(1.78488 -0.0559189 0)
(1.49806 0.0559836 0)
(1.24495 -0.0145471 0)
(1.57869 -0.0193177 0)
(1.35797 -0.153566 0)
(2 -1.14143e-13 0)
(1.83357 0.208671 0)
(1.85422 0.797565 0)
(1.80567 0.00514886 0)
(1.57578 0.0281755 0)
(2 1.92992e-14 0)
(1.92957 -0.480239 0)
(1.86566 0.254969 0)
(1.85481 0.819872 0)
(1.66123 0.0534227 0)
(1.68299 -0.047573 0)
(2 7.90461e-14 0)
(1.38728 -0.125998 0)
(1.95211 0.0297778 0)
(1.3919 -0.111708 0)
(1.42391 -0.473633 0)
(1.88501 -0.487596 0)
(1.66613 -0.141553 0)
(2.10385 -0.011087 0)
(1.90309 -0.506383 0)
(1.92005 0.217002 0)
(2 3.30236e-15 0)
(2.00001 -6.59435e-06 0)
(1.61589 -0.0372964 0)
(1.82266 0.40423 0)
(1.88691 -0.0676269 0)
(1.85749 0.450177 0)
(1.59211 -0.146177 0)
(1.64791 0.0750352 0)
(1.85704 0.464582 0)
(1.55876 -0.0118033 0)
(1.604 -0.159406 0)
(1.82967 0.44361 0)
(2 6.89331e-14 0)
(1.65766 0.00297358 0)
(1.45183 -0.0121276 0)
(1.63816 -0.144592 0)
(1.79278 -0.038808 0)
(1.79122 -0.0422421 0)
(1.88048 -0.0807703 0)
(1.77599 0.0666355 0)
(1.88235 0.775791 0)
(2 -1.4422e-13 0)
(1.4189 -0.00207568 0)
(2.06591 0.0736294 0)
(1.50119 -0.00135509 0)
(2 -1.35015e-13 0)
(1.81972 0.430203 0)
(2.14171 0.717604 0)
(1.35592 0.0652245 0)
(1.40063 -0.0226598 0)
(1.71102 -0.240405 0)
(1.47956 -0.0518586 0)
(1.89934 0.461507 0)
(1.67148 0.132207 0)
(1.54154 -0.0154049 0)
(1.89897 0.475431 0)
(1.56522 0.0132765 0)
(1.81365 0.189234 0)
(1.82039 -0.405889 0)
(2 8.45957e-08 0)
(2 -1.29484e-13 0)
(1.8716 -0.285712 0)
(1.47772 0.00136445 0)
(2 -1.62433e-14 0)
(1.38179 -0.00201547 0)
(1.51521 -0.0164288 0)
(1.83546 0.699046 0)
(1.9016 0.0254919 0)
(2 9.60097e-14 0)
(1.54829 -0.0154346 0)
(1.8369 0.701804 0)
(1.87467 -0.0849182 0)
(1.66786 -0.0656917 0)
(1.66653 0.091967 0)
(2 1.56561e-14 0)
(1.84672 -0.264033 0)
(2 -3.66972e-12 0)
(1.42463 -0.473777 0)
(2 2.58946e-13 0)
(1.98289 -0.419728 0)
(1.76616 -0.0655116 0)
(1.67187 0.00917508 0)
(1.5971 0.051109 0)
(1.77299 -0.0594158 0)
(1.94093 0.462743 0)
(2 1.51726e-13 0)
(1.96219 0.0277204 0)
(1.90598 -0.522801 0)
(2.13717 0.709287 0)
(1.40999 0.469122 0)
(1.71215 0.126667 0)
(1.47496 -0.0152316 0)
(1.25595 0.12931 0)
(1.48282 -0.0181372 0)
(2 -4.22286e-14 0)
(1.47851 -0.022741 0)
(2.14242 0.717806 0)
(1.47465 -0.0213497 0)
(1.55456 -0.00654705 0)
(1.64203 -0.0691542 0)
(1.40778 0.468927 0)
(1.5249 0.406754 0)
(1.48198 -0.0335607 0)
(1.48596 -0.0298071 0)
(2.13744 0.71182 0)
(1.97883 0.464986 0)
(2 -6.74053e-14 0)
(1.59771 -0.0834796 0)
(1.65684 -0.0675402 0)
(1.48021 -0.026701 0)
(1.59495 -0.0784744 0)
(1.35052 -0.16966 0)
(1.48472 -0.03225 0)
(2.00005 -6.40661e-05 0)
(1.77 0.150699 0)
(1.79469 -0.23274 0)
(1.59665 0.0683222 0)
(1.64151 0.160611 0)
(1.66179 0.096846 0)
(2 1.80982e-13 0)
(1.79306 -0.0694478 0)
(1.80585 0.354446 0)
(1.80766 0.355968 0)
(1.87824 -0.078116 0)
(1.44782 0.000990135 0)
(2 -1.26728e-13 0)
(1.45799 -0.00484371 0)
(2 -5.80631e-15 0)
(2 -1.20492e-13 0)
(1.46956 -0.0163086 0)
(1.73737 0.348335 0)
(2.00645 0.467214 0)
(1.79677 0.340511 0)
(1.79937 0.339451 0)
(2 -4.06862e-14 0)
(2 3.52304e-14 0)
(1.57874 -0.0201745 0)
(1.53616 -0.0644472 0)
(1.84107 -0.404148 0)
(1.99976 0.00370813 0)
(1.61086 0.0609101 0)
(1.84362 0.736742 0)
(1.83872 0.720923 0)
(1.82867 0.66294 0)
(2.05296 -0.0649166 0)
(1.60886 -0.0445765 0)
(1.82673 0.647042 0)
(1.83267 0.680155 0)
(2 -1.13793e-13 0)
(1.95156 -0.461022 0)
(1.59907 0.0351319 0)
(1.53773 -0.0744805 0)
(2.04356 -0.060757 0)
(2.14146 0.714105 0)
(1.65503 -0.179079 0)
(1.99702 -0.479667 0)
(2.1361 0.70996 0)
(2 -4.86684e-14 0)
(1.86557 0.434714 0)
(1.46546 0.00532017 0)
(1.88224 -0.0715694 0)
(1.68641 -0.198124 0)
(1.61544 0.0518707 0)
(2 -3.98038e-14 0)
(1.51984 -0.00821709 0)
(2 -1.69121e-14 0)
(1.68727 -0.194162 0)
(1.61055 0.0516623 0)
(1.78271 0.316273 0)
(1.70245 -0.21069 0)
(2 -9.1156e-14 0)
(1.93693 -0.490729 0)
(1.78489 0.315613 0)
(1.84499 0.755186 0)
(1.40467 0.467029 0)
(1.81617 0.150817 0)
(2.06348 -0.0273374 0)
(1.70813 -0.307058 0)
(1.6607 0.237854 0)
(1.40801 0.469517 0)
(2 8.92574e-14 0)
(1.77674 0.308743 0)
(1.77352 0.3074 0)
(1.76377 0.293087 0)
(1.7672 0.293272 0)
(1.75745 0.284774 0)
(1.75984 0.284539 0)
(1.86599 -0.296339 0)
(2.11813 0.566672 0)
(2 -2.73364e-13 0)
(1.7469 0.274069 0)
(2 2.36703e-08 0)
(1.75069 0.274563 0)
(1.55223 -0.0109054 0)
(1.61289 -0.0885457 0)
(1.69175 0.277755 0)
(1.61984 -0.0887984 0)
(2.11779 -0.718167 0)
(1.44981 -0.0112967 0)
(1.60177 -0.0865559 0)
(1.60664 -0.0891396 0)
(1.73266 0.26214 0)
(1.73668 0.264173 0)
(1.40474 0.46979 0)
(1.64191 0.158985 0)
(1.85428 -0.26955 0)
(2.13388 -0.709838 0)
(2.16838 0.718396 0)
(1.72864 0.25018 0)
(1.73146 0.250767 0)
(1.70609 0.231792 0)
(2 8.53569e-14 0)
(2 1.03896e-13 0)
(1.59592 -0.0849783 0)
(1.86926 0.0989847 0)
(1.86923 0.447037 0)
(1.83821 -0.252448 0)
(1.60401 -0.0871016 0)
(1.40769 0.470475 0)
(1.71042 0.232723 0)
(2 -3.1622e-13 0)
(2 -2.54294e-13 0)
(2.08145 -0.026629 0)
(1.80947 -0.245122 0)
(2 1.94391e-13 0)
(2 -2.85004e-13 0)
(1.42066 -0.0040344 0)
(2 -1.80979e-13 0)
(1.69731 0.221213 0)
(1.69879 0.219756 0)
(1.68171 0.20444 0)
(1.68714 0.209338 0)
(1.80445 -0.239388 0)
(1.81933 -0.301616 0)
(1.60618 0.0570831 0)
(1.50411 0.00723323 0)
(1.77329 -0.209636 0)
(1.76085 0.101682 0)
(1.67179 0.185188 0)
(1.67128 0.18684 0)
(1.40715 0.468775 0)
(1.77101 -0.208463 0)
(1.7673 0.104963 0)
(2.14285 0.715374 0)
(1.78467 0.193925 0)
(1.88751 -0.447552 0)
(2 -7.4603e-14 0)
(1.96397 -0.0209235 0)
(1.85432 -0.428656 0)
(2.13672 -0.754191 0)
(1.42395 -0.474601 0)
(2.09743 -0.616665 0)
(2.1366 0.717387 0)
(1.65038 0.092733 0)
(1.41082 0.47021 0)
(2 -1.8584e-13 0)
(1.94577 0.458886 0)
(2 -1.40709e-13 0)
(1.54483 -0.0674442 0)
(1.84061 0.253805 0)
(1.42395 -0.474157 0)
(1.66475 0.00572751 0)
(2.05936 -0.0206658 0)
(1.69153 -0.455887 0)
(1.59042 0.00308149 0)
(1.84982 -0.414379 0)
(1.4051 0.467953 0)
(1.41949 0.0283682 0)
(1.55146 -0.070412 0)
(1.78301 0.189897 0)
(1.5494 -0.0684867 0)
(2.13978 -0.736722 0)
(1.40803 0.469005 0)
(1.73279 0.353165 0)
(2.10018 0.579076 0)
(1.41274 -0.43821 0)
(1.42942 -0.484815 0)
(1.89105 0.258919 0)
(1.41265 0.472252 0)
(1.9997 0.000397917 0)
(1.70473 -0.217623 0)
(1.40872 0.470331 0)
(1.84063 0.250877 0)
(1.70544 -0.219079 0)
(1.40933 0.467437 0)
(1.71988 0.132062 0)
(1.27017 0.00589619 0)
(1.39748 0.00511998 0)
(1.40462 0.468616 0)
(2.09372 0.0188831 0)
(1.79383 -0.388114 0)
(1.36364 0.00551639 0)
(1.75948 0.0787121 0)
(1.41188 0.471416 0)
(1.65016 -0.166613 0)
(2.00003 -3.97436e-05 0)