/*--------------------------------*- C++ -*----------------------------------*\
  =========                 |
  \\      /  F ield         | OpenFOAM: The Open Source CFD Toolbox
   \\    /   O peration     | Website:  https://openfoam.org
    \\  /    A nd           | Version:  12
     \\/     M anipulation  |
\*---------------------------------------------------------------------------*/
FoamFile
{
    format      ascii;
    class       volScalarField;
    location    "9.02";
    object      p;
}
// * * * * * * * * * * * * * * * * * * * * * * * * * * * * * * * * * * * * * //

dimensions      [1 -1 -2 0 0 0 0];

internalField   nonuniform List<scalar> 
22702
(
1
1
0.859972
1
1.0525
1
1.47331
1
1
0.668769
1.4717
1.4726
1
1.47081
0.881431
1
1
1
1.4716
1
1.47273
1
1.47457
0.65098
1.46922
0.666141
1
1.48204
0.672894
0.653852
1
1.47137
1
1
1
1.4349
1.47525
1.47315
1
1
0.692721
1
1.23195
1
1.48417
1
1
1
1
0.660834
1
0.654383
1
1.47104
1
1.47131
1
1
1
1
0.668843
1
1
0.671826
1
0.651767
1
1
1
0.694414
1
1.47213
1.28473
1
1.46769
1.4848
0.656235
1.47189
0.654466
1
1.47318
0.656447
1.46983
1.47283
1
1
1
1
0.9237
0.690006
1.46233
1
1
0.605614
1
1.47314
0.607782
1
1
1
1
1.23262
1.47289
0.676279
1
1
1.11221
1
0.658988
1
1.47115
1.47197
1
1
0.62577
0.621549
0.682613
1
1
1
1
1
0.899697
1
1.40143
1.04205
1.47125
1
1.46611
1.47202
1.47178
1.47057
1
0.707414
1
0.60719
1
1
1
1
1.4722
1
1
1
1
1.46704
1
1.02572
1
1
1
1
0.658214
1
1.01054
1
0.653458
1
1
1
1.46243
1
1.47391
0.622291
0.679432
1.46782
1.47629
1
1.07394
1.26839
1
1.4718
0.656447
1.43608
1
1
1
1
1.47067
1.36716
1
1.47183
0.663517
1.47136
1
0.66249
1
0.659891
0.663912
0.999767
1
1
1.47111
1
1
1.47051
1
1.46915
1.47176
0.668462
1
1
0.658936
1.47086
1
1
1
1.47098
1
0.679033
1
1
1.47157
1.47157
1.47009
1
1.00004
1
1
1
1.4716
1
0.642217
1.48135
1.47045
1.47314
1
1
1
0.649811
1.47114
1.2252
1
1.47332
0.650425
0.666633
1.47341
1.46954
1
1.48022
0.680753
1.41508
1
1
1
1
1.47193
1
1.27569
1.04108
1
1
1.47117
0.61419
0.770202
1
1.47188
0.677466
1.47906
1
1
1
1
1
1
1
0.656116
0.788969
0.663957
1.47154
1
1
1
1
1.40784
1
0.658515
1
0.640472
0.660262
1.47197
0.660911
1.47307
1
1
1
0.997558
0.663136
0.674634
0.999999
1
0.640701
1
1.47239
0.672403
1
1
1.47237
0.63086
1
1.47583
0.668073
1.4711
1
0.646628
0.99764
1
1
1
0.652018
1
1
0.999999
1.00002
1.01229
1.28324
1
0.662074
1
1
1
1
1
1
1
1.47104
1
1.46986
1
1
1
0.659009
1
1.47006
0.663538
1
1.36123
1
1
1.47051
1
1
1
1.46099
1
1
1.45809
1.47134
1
1.10096
1
1
0.602762
1
1
1
0.606893
1
1
1
1
0.629641
1
1
1
1
1
0.670863
1.00007
1.475
1
1
1.47431
1.47019
1
1
0.676467
0.806092
1.47331
1
1
1
1.4707
0.695421
1
1.47331
1
1
0.715708
0.70195
1
0.661832
0.662623
1
1
1
1
1
1
1
1.47641
1.11086
1.44544
0.667188
0.902872
1.4719
1
1.46407
1.47239
0.648983
0.76121
1
0.672645
1
1.48138
1
1
1
1
1.47082
1
1
1
1
1
1
1
1.16299
1.46509
1
1.47153
1
1
0.653711
1
1
1
1
1.47102
1.35677
1
1
0.657313
1.47044
1.4714
1
1.47142
1.47025
1.47157
1
0.830452
1
1.47192
0.981175
1.47151
1
0.661108
0.998791
1.47215
1
1
1
1
0.660219
1.47157
1.42537
1
1.46827
1.47148
1.47325
1
1.22296
1.47206
1
1
1.32047
1.06577
1.47158
0.93135
1.47163
1
1.47162
1.4716
1.47163
1.47081
1
1.46129
0.905857
0.882638
1
0.999999
1
1
1.47405
1
1
1
1
1
1.47338
1
1
0.996041
1.47124
1.40154
1
1.38766
1.00004
1
1
1.47388
1
0.997251
1.00451
1
1.47133
1
1.47122
1
1
1.34842
1
1.47192
1.00002
1
1.4734
1
1.47101
1
1
1
1.47141
1
1.47106
1.00001
1.47154
1.47074
1.47122
1.47603
1
1.47123
1.46135
1
0.662649
1.43993
1.33233
1
1.47057
1
0.60602
0.661545
1
1
1
1
1
0.61912
1
1.47143
1.12175
1.47274
1
1
1
1
1
1.47167
1
1.47254
1.27783
0.764231
1
1.00001
1.13353
1.11629
1
1
1.16322
1
0.651194
1.47193
1.47159
1
1
1
1.47203
1
1.00003
1.47739
1.47137
0.951689
1
1
0.661705
1.42664
1
1
1
1
1
1.47114
1.47068
1
1.47355
1.47315
1.47139
1
1
1
1
0.670842
1.4711
1
1
1.42744
1.46977
1
1.442
1.46226
1
1
1
1
1
1.4714
1
1
1
1
1.47156
1
1.46936
0.665778
1
0.654446
1
1
1
0.996924
0.659842
0.999034
1
1
1
1.06412
1
1
0.870245
1
1
1
1
1
1
1
0.999997
0.93281
0.999999
1
0.99761
1
0.661077
1
1
1
1
1.34903
1
1
1
1
0.663767
1
1
1.44229
1.47045
1
1
1
0.887018
1
1
1
1
1
1
0.953127
1.01333
1.47095
1
1
1
1.47243
0.884727
1
1
1
1.47832
1.46985
1
1.00001
1
1
1
1
1
1
1
0.664223
1
1
1.47108
0.67859
1
1.46958
1
0.654976
1
1
0.664118
1
1
1
1
1
1
1
1.46191
1.47044
1
1
1
1
1.42867
1
1.14201
0.665584
1
1
1
1
1
1
1
1.04192
1
1
1.23434
1
1
1
1.38767
1
1
1
1
0.663663
1
1
0.654053
0.666354
1
1
1.47175
1
0.99758
1
1
1
1.32571
0.652839
1
0.641884
1
0.783544
1
1
1
1.47114
1
1
1.47134
1
1
1
1.47163
1
1
1.4722
1
1
0.644638
1
1.13737
1
1
1.47162
1.47229
1.3092
1.4208
1
0.661377
1
1
1.44984
1
0.648783
1
1
1
1.4716
1
1
1
1
1.27637
1
1.455
1.4754
0.647407
1
1
0.673563
0.658164
1
1
1
1.32989
1.35577
1
1
1
1
1
1
1
1.19687
1.47688
1.00689
1
1.4661
0.701743
1
1
1
1.25117
1
1.0903
1
1.42892
1.46934
1
0.663551
1
1.4713
1
1
1.47219
1.44024
1
1.47547
1
0.652593
1
1
1
1.46033
1.46212
1.41245
1
1.47382
1.47064
1
1.47228
1
1.46961
1
0.674511
0.972165
0.653814
1
1
1
1
1
1.4718
1
1.47102
1
1
1
1.44654
1
0.657016
1.47101
1
0.655669
0.679365
0.656738
1
1.22612
1.03436
1.4739
1.47049
1
0.999999
1
1
1.47144
1
1
1.47141
1.47071
1
1.15796
1.00026
1
0.996628
1.46117
0.851451
1
0.82154
0.656053
0.652382
0.957637
1.47865
1.46475
1.0865
1.47224
1.47078
1
1
1.47635
1.47093
1.47155
1.47622
1
1.47167
0.65728
1.468
1.473
1.46882
1.47589
0.864937
0.897389
0.930516
1.47226
0.955453
1.47291
1
1
1.47373
1.4703
1
0.675914
1.47278
1.47184
1
1.47139
1.47182
1
1.47123
0.658682
1.47516
1.47937
1.4707
1.47804
1
1
1
1.47198
1.30094
0.700312
1.47175
0.658981
1.47205
1
1
1
1
1.47202
1.47213
1
1
1.47203
0.661427
1.47112
0.663494
1
1.46858
1
0.668479
1.47258
0.738842
1
1.47071
1.47494
1.47232
1
1
1.20183
1.47414
0.659123
1.47136
1
1.47283
0.877334
1.47112
0.662127
1
1.46962
0.683985
1.47374
0.655347
1
1.47148
1
1.46612
1
1.27175
1.45298
1.3675
0.636406
1
1.47118
1
1.47115
1
1.47139
1
1
1.47192
0.97826
1.47435
0.653697
1.41486
1
1.33017
1
1.47238
1.47126
1.47202
1
1.42197
1.4722
1.43511
1.28012
1.46285
1
1.3051
1
1.4711
1
1.05893
1
1.43525
1
1.47294
1.44818
1.44793
1
1.46618
0.657841
1
0.662628
1
1
1
1.47033
1
1.4717
1
1
1
1.47272
1.46036
1.38384
1.46919
1.47019
0.65388
1.47878
1.46993
1
1.39693
1.47124
1.4669
1
1.47162
1.47138
1
1.47126
1.47089
1.47242
1.47244
1
1
1
1.47146
0.657423
1
1.4714
1
1
0.663481
1
1
1.47145
1.47189
1
1.47126
1.47274
1.46762
0.97409
1.47176
1
1.47185
1.47121
1.3757
1
1
1
1.47053
1.47038
1.47106
0.945069
1
1.48724
1.47096
1.47224
1
1.47155
1.47114
1.47091
1.48132
1
1.47148
1.4735
1.41399
1.47032
1.47666
1
1.46565
1.4659
1.4711
1.4704
1.47048
0.674784
1.47371
1.47085
1
1.47078
1.47106
1.4715
1.47201
1
1.47045
1.47126
1
1.47203
1.39108
1
1
1
1.4715
1.47482
1
1
1.24865
1
1.47203
1
1
1.47157
1.47341
1.47185
1.47059
1
1
1
1.33989
1
1.47246
1
1
1.46543
1.47994
1
1.47133
0.643439
1.4713
1.47537
0.748044
1
0.638092
1.41547
1.47673
1.47333
1.47284
0.644342
1.47276
1.47366
0.64576
0.659614
1
1.47252
1.47191
1
1
1.47113
1
1.47741
1
1.4114
1
1.21706
1.47051
1.47429
1.3397
1.41424
1.46952
1.47429
1.43283
1
0.691141
1.47756
1.47176
1.47775
1.00001
1
1
1.47846
1
1.47088
1.47263
0.752025
1
1.47196
0.999938
1
1.00003
1.00004
1.47204
1.46748
0.998474
1
1
1.47134
1.47415
1.47144
1.47441
1.47149
0.663738
1.4214
1
1.46858
1.47159
1.47102
1.46754
1
1.47136
1.45827
1.47285
1
1.47328
1.46999
0.844728
1.47133
1.472
1
1.47058
0.827586
1.47005
0.851288
1.47155
1
1.47123
1.48024
1.47106
1.47154
1.47125
1.47234
1.47207
1.46874
1
0.921924
1.4711
1.47104
0.84306
1.47132
0.977411
1.28853
1.47053
1.46741
1.46906
1
1.47465
1.30567
1.46923
0.922066
1.47372
1.46993
1
0.871306
1
1.46107
1
1.32221
1
1.4457
0.880867
1
1.46946
1.46392
1
1.4739
1.47407
1.47314
1.46043
1.47097
1
1.4704
1
1
1
0.908808
1.471
1.47235
1.47713
1.47132
1.4722
1.47847
1.4665
1.47165
0.908128
1.02927
1
1
1.47742
1.47142
1.47114
1.4711
1.00003
1.24086
1
1.4722
1.42293
1
1
0.748381
1.47117
1
1
0.65597
1.47123
1
1.47344
1.47205
1.46943
1.45253
1.47194
1
0.645157
1.11178
1.47193
1.4714
1
1.47295
1.47115
1.22387
1.01026
1.10116
1
1.4667
1.47133
1
1
0.641896
1
1
1.47119
1.47147
1.47415
1.47111
1.47122
1.46789
1.47251
1.4686
1.47169
1
0.996175
1.47068
1.47183
0.997013
1.47134
1.47111
0.648628
0.654489
1.47152
1.47979
1
1
1.00092
1.47191
1.47305
1.47122
1
1.47136
1
0.869793
1.47804
1.46918
1
1.20654
1.46996
1
1.47113
1
1.47167
1.30763
1.47066
1
1.47003
1.48027
0.643309
1.47085
1
1.46942
1.47556
1
0.650065
1.46708
1.41392
0.997465
1.45499
1.47109
1
0.99949
1.46786
0.998055
1.47168
1
1
1.46978
1
1.4698
1.47096
0.996584
1.36642
1
1.47095
1
1
1
1
1.4711
1
1
1.46694
1
1.47058
1
1.29965
1.47721
1.47243
1
1
1.00118
1
1.47072
1.47155
1.46933
1.47103
1.47123
1.47128
1.47119
1
1.47196
1.47003
1
1.47162
1.47188
1
1.47216
0.926698
1.05606
1.47175
1.4715
1.47131
1
1.47128
1
1.47159
1.47166
1
1.47246
1
1
1
1
1.47078
0.646576
0.997914
1
1.47102
1.47706
1
1.47151
1
1.0051
0.6555
1.47127
0.999597
1
1.46953
0.998413
1.471
1
0.999768
1
1.46952
1.46772
1.47151
1.47417
0.65861
1.46988
1.46954
1.47178
1.11574
1
1
1.19658
1.47115
0.638701
0.658355
1
1.47069
1.47145
1.47427
1
1
1.47081
1.47243
0.999886
1
1.33633
0.648152
1
1.07851
1.47073
1.47259
0.998233
1.47164
1.48787
1
0.99895
1
1.47333
1.46358
1.18656
1
1.44807
1
1.00307
1.47325
0.700898
1.47245
1.47148
0.996925
0.999911
1.41227
1
0.999695
1
1.47248
1
1.00001
0.637419
1.47135
1.00001
1
1
1
1.46762
1.2612
1
1
0.649875
1.47198
1.26326
1
1
1
1.44901
1.45824
1.47094
1
1
1.47917
1
1.47162
1.46999
1
1
1.47292
1.4712
1.45218
1
1
1.47313
1.47357
1
1
1
1.47215
1
1
1
1.47245
1.47718
1.47418
1
1.46747
1.00003
0.707508
1.47263
1.47263
1
1.47133
1.45856
1.47154
1
1
1.47375
1
1.23956
1.46726
1
0.644363
1
1.47386
1
1
1.47128
1
1
1
1.14107
1.46858
0.684782
1.00001
1.47354
1
1
1.47087
1
1.47377
1
1
1.47186
1.47212
1
1.00005
1
1
1
1
1
1
1.47765
1.47134
1
1.47264
0.657169
1.47568
1
1.47178
1.47126
1.4713
1.47037
1.47574
1
1
1.47111
1
1.25808
1.47594
1.47097
1
1.47323
1.46424
1
1.41978
1
1.47154
1.30423
1.47003
0.997504
1.46286
1.42958
1.47237
1.47202
1.03507
1.47146
1.47361
1
1.47125
1
1.47102
1
1
1
1
0.996897
1.47138
1.47089
1.37892
1
1.47272
1
1
1
0.658218
1
1.45839
1
1.4273
1.45989
1
1
1
1.4546
1.46625
1
1
1.47056
0.661438
1.08066
1
1.47511
1.47107
1.42874
1.45729
1.471
1
1.46987
1
1
1
1
1.47126
1.47204
1
1.4593
1.04757
1.47035
1.43818
1
1
1.43927
1
1
0.654353
1.3238
1
1
1.46863
1
1.47402
1.42864
1
1.42908
0.660705
1.47152
1.47181
1.47233
1
0.652628
1
1
1
1.47166
1.3765
1
1.47865
1.47052
1
1.47153
1
1
1
1
1.47062
0.999383
1
1.47316
1
1
1.47122
1.47214
1
1.46842
1.08903
1.00002
1
1.47092
1
1.47065
1
1.014
1.47163
1
1.4714
1
1
1.14259
1.47108
1
1
1
1
1
0.995566
0.655573
0.65502
1.02109
1
1.02581
1
1.02565
1
1.47172
1
1.2911
1
1.47156
1
1
1
1.47166
1
1.37325
1.47041
1
1.24653
1.47036
1
1
1.47038
1.47184
1
1
1.04396
0.636794
1
1.47367
1
1
1
1
1.07529
1.47086
1
1
1
0.664843
1
1.47197
1.47175
1.48342
1
1
1
1
1.23432
1.47441
1
1
1
1.47074
1.47112
1.0454
1
1
1
1.47188
1.47099
1
0.643604
1.47184
1.47197
1.47197
1.47266
1.47334
1
1
1.47663
1.46975
1.4718
0.668491
1.04225
1.46989
1
1
1
1
1
1.47061
0.658269
1
1
1.4713
1.21012
1
1.47978
1
1
1
0.664673
1
1
1.12114
1.47167
1.4715
1
1.47739
1.47679
1
1.0783
1
1.48039
1
1.46896
0.65866
1
1
1
1
1.4714
1.00005
1
1
1
1.45357
1
1
1
1
1.47084
0.666971
1.36607
1.47514
1
1.47005
1
1
1
0.997181
1
1.47035
1
0.803381
1
1
1.00003
1.46999
0.664207
1
1.47454
1
1.47045
1.47202
0.669199
1
1
1.45693
1
1
0.658094
1
1.47531
1
1.44976
0.999304
1.47262
1
1
1
1
1.47194
1
1
1.47055
1
1
1
1
1
1
1
1
1.307
1
1.14346
1.47157
1
1
1
0.662805
1
1
1
1
1.47161
1.47109
1.04654
1
1
1.47317
1
1
1.4709
1
1.00002
1
1
1
1.00001
1.47101
0.780847
1.47091
1.47302
0.996733
1
1
1
1.27565
1
1
1.47288
1.47176
1
1
1
1
0.67642
1
1
1
1.28785
1
1.47127
1.4741
1
1.47259
1
1
1
1.25124
1
1.47109
1
1.47118
1
1
0.996425
1.47134
1
1
1
1
1
1.47453
1.00002
1
0.661853
1.47299
0.648254
1
1.47062
1
0.99606
1
1.47244
1.47544
1
1.47708
0.871317
1.4716
1.47967
1.00003
1
1
0.657813
1
1
1
1.47146
1.26509
1.46975
1
1
1
1
0.996733
1.46974
1
0.654311
1
1
1
1
1
1
1
1.47293
1.47353
1.47221
1
1
0.99694
1
0.978077
1
1
1
0.669902
0.974775
1
0.663162
0.662467
1
1.47247
1.47118
1
1.46767
1.47106
0.655052
1.31055
1
1
1
0.654942
1.47154
1
0.656944
1
1.48046
1.08018
1
1
1
1
1.47138
1.47098
1
1
1.47205
1
1
1.47259
1.47192
1
1.4339
1.47106
1.4702
0.961293
1.47177
1.00879
0.657527
1.35819
1.47001
1
1
1
0.67753
1
0.654074
1.47004
0.960972
1.47055
0.941833
1
1.4727
1.20814
1
1
1.47322
1
1.1928
1.47265
1
1
1.4608
1.46714
0.655052
1.27054
0.999889
1
1.27811
1
1.47908
0.936979
1.4771
1.47052
1
1
1
1
1.46234
1
1
1.47398
0.99963
1.47195
1.37434
1.46706
0.661553
1
1
1
1
1.47197
1.00005
1.47155
1
1.47035
1.47286
1.05752
1.47225
1.14402
1.47204
1
1.31936
0.675619
1.48045
1.47162
1.36595
1.08011
1.4706
1.47165
1.47125
1.46956
1
0.927455
1.07012
1
1.47144
1.22085
1.47206
1.00003
1
1
0.690583
1.47445
1.47043
1.38427
1
1.17054
1
1.47957
1.47741
1
1.46954
1.47045
1
1
1
1.46906
1
1.17787
1.46945
1.32483
1
1.46977
1
1
1
1
1
1
1
1
1
1
0.67848
1
1.45807
0.679878
1.27421
0.99852
1.47734
1
1.24736
1.00001
1.29919
1.40084
1
1.00184
1.47382
0.923763
1
1.47276
1.4569
0.936833
1
1.47339
1.47161
1.47243
1
1.47134
1.47058
1.47097
1
1.20855
1
1.00006
1.47222
1
1.47024
1.06623
1.46931
1
1
1.47112
1.47428
0.692121
1
1.47218
1.35213
1.47114
1
1
1.47022
1.47031
0.998257
1
1.41291
0.997074
1.4715
1.00006
1
1
1
1
1.2122
1
1.36586
1.47121
1.35008
1.47323
1
1.00466
1
1
1.47149
1
1.4716
1
1
1
1
0.999999
1
1.05551
1.24408
1
1
0.663337
1
1.47525
0.689465
1.47383
1
1.24204
0.999757
1.47263
1.29433
0.675399
1.25458
1.00003
1.47098
1.46949
1
1.27884
1.46894
1.47163
0.998392
1.47501
1.4581
0.655439
1
1
0.997708
1
1.46294
1
0.686227
1.47484
1
1
1.42271
1
1.47126
1
1.4718
1
0.679011
1
1
1.47117
1.45987
1.47822
1
1.47197
1.47159
1.4772
1
1
1.45313
0.999999
0.744374
1
1
1
1.47159
1
1.47144
1.29884
1.46978
1
1.47158
0.999384
1
1
1
1
1
1
0.717231
1
1
1.4706
1
1.47204
1.47642
1
0.661664
0.652017
1
1.47318
1.07512
0.658598
0.638647
1
1.47059
1
1.46967
0.655908
1.00101
1
1
0.999523
1
1
1
0.999908
1.19222
1.47173
1
1
1.47204
1.27374
1
1.42058
1.47435
1.47005
1.19368
1.47164
1
1.47224
1
1.47171
1
1.47825
1.47106
0.997081
1.47293
1.47065
1
1
1
1
1
0.918077
1.47048
1.00004
1.00003
0.678772
0.999982
0.644765
0.687025
1
1.47241
1.47267
1.47217
1
1.47175
1
0.658913
1
1
1.47013
0.830427
1.47397
1
1.4714
1
0.977734
1.47208
1
1
1
1.47473
1
1.46862
0.65351
1
1
1.26663
1
1
1.25431
1
1
1.47135
1
1
1
1
1
1.47884
1.47151
1
1.47081
1.4717
0.660627
1.20769
1.47156
1
1
1.4227
0.998921
1
1
1.47156
1.46747
1.29688
1
1.47348
0.668154
1.43853
0.999729
1
1.47333
1.00003
1.47031
1.40491
1.35636
1
1
1.47158
0.731651
0.672365
1
1.47168
1
1.47133
1
1.2781
1
1
1.4712
1.29382
0.655407
1
0.998426
1
1
1.02665
1.19184
1.47174
1
1.47489
1
1
1
1
1
1
1.06641
0.658556
1
1
1.03575
1
1
1
1
1
1.471
1
1
1.47195
1.47186
1.33442
1
1
1
0.832311
1.47141
1.32576
1
1
1
1
1.47122
1
1
1
1.47419
1
1
1.33794
1.48092
1.04322
0.75051
1.47704
1.33116
1.47433
1
1.22664
1
1
1
0.688231
1.0026
0.669953
1
0.674784
0.638596
1
0.658741
1
1
1
1.20118
1
1.47277
1.47108
1.00116
1.21457
1.38667
0.690904
0.753077
0.88733
1
1.47187
1.4688
1.47161
1.47148
1.40354
0.8707
1
1.40529
1
1.44822
1
1
0.996552
1.00964
1
1
1
1.47032
1
0.673211
1
1.47287
0.644544
1
1
1.47141
1
1.4708
0.999995
1
1
1.47355
1.41451
1
1.481
1
1
1.01462
1
1.20264
1
1
0.656963
1
1
1.475
0.999999
1.47091
1
1.00003
0.640826
1
1
0.666628
1.00089
1
1.47063
0.625371
1.47303
0.657709
1.47187
1
1
1
1
1
1
1
1
1
1
1
1.45101
1
1.4738
1.47052
0.659597
1
1
1
1
1
1
1.45848
1
1
0.657625
1
1
1.46981
1
1
1.17738
1.39004
0.669016
0.664599
0.721928
0.750942
1
0.996633
0.67158
1.00031
1.44709
0.996805
1
1
1.47125
1
1
1
0.755829
1.00001
1.16496
1
1
1.18581
1.47147
1
0.680017
1
1
1
0.996249
1.00001
1.46895
1.47129
1
0.651171
1
1.25106
0.656254
1
0.886372
1
0.996479
0.640209
1
1
1
0.995379
0.683028
1
0.678589
0.998441
1.2442
1.42945
0.665679
0.665175
1
0.990445
1
0.998588
1
1.47103
1.47033
1
1.01732
1.4716
1.47244
1
1
1.47126
1
1
1.00004
1
1.47447
1
1
1.01778
1
0.998589
0.712316
1
1
1
1
1
1.47572
1.03305
1.00005
1
1
1
1
1
1.00003
1
0.657923
1.10569
0.998622
1.46768
1.46852
1
1.01466
1.47197
1.41098
1
1
0.687201
1.46899
1
1.4711
1
1.47297
1.32367
0.658707
1
0.657527
1.42955
0.999672
1
0.661473
0.695147
1
1
1.39672
1
0.999998
0.641433
1
1
1
1.14986
1
0.659303
1.47184
1
1
1
1
1.4718
1
1
1.47066
1.42092
1
1
1
1.47669
0.66188
1
1.47105
1.4713
1
1.37282
0.999999
1.00003
1
1
1.43155
1.01601
1
0.638504
1.24938
1
1
0.997082
1
1
1.47899
1
1
1.00004
1
1.47118
1
1
1
1
1
1
1.00002
1.20457
1
1.47294
1
1
1.47356
1
1
1
1.47213
1.47318
1.04504
1
0.997543
1
1
1
1
1.47109
1
1
1.47164
0.651583
1
1
1
1
1
1
1.37637
1
1
1.46859
1.47298
1
1
1
1.47123
1.47404
1
0.999666
1.46566
1
1
1
1.00002
0.65466
1.02957
0.995956
0.995741
1
1
0.677135
1.47303
1
0.68329
1
1.46837
1.45089
0.669656
0.999385
1.47162
1.4716
1.47295
1
1
0.920981
1.41681
1.38756
0.694036
1
1
1
1.46774
1.47213
0.655921
0.99726
1
1.47104
0.646352
1
1.46034
0.654219
0.96593
1.00626
1
1.47651
1
1
1
1
1
1
1.00011
1.43847
1
1
1.47704
1
1
1
1.4712
1
0.6622
1
1
1
1.15909
1
1
1
1
1
0.790115
1
0.646754
1
1.47134
1.00007
0.860876
0.869179
1.00002
1.00361
1.2416
1
1
0.653635
1.47161
1.47126
1.47124
1
0.65361
0.663917
1
1.47155
1
1
1
1
1
1.00003
1
0.65859
1.30288
1
1
0.667562
0.977188
1.00001
1
1
1
0.642694
1
0.709711
1
1
1.47523
1
1
0.655302
1
1.47169
1
0.699867
1
0.660692
1
1.00906
1.47182
1.47225
1
1
1.47054
1
1
1.10564
0.996759
1
0.998301
1
1.47318
1
0.666305
1.00002
1.47596
0.998966
1
1
0.804415
1
0.999078
0.657214
1.47073
1.16784
1
1.00001
0.892639
1
1
1
0.787853
1
1
1
1.47113
1
0.655343
0.999999
1
1
1
0.647515
1.47133
1.42775
0.659784
1
1.48117
1
1
1.47105
1.47107
1.39427
0.645904
0.99774
0.999145
1
1.47127
1
1
1
1
1.47003
1.00004
1
1
1.46043
1
1
1.4713
0.655978
1
1
1
0.656817
1
0.999999
0.999999
0.998623
1
1
1
1
1.38166
1
1.47481
1.47115
1.48717
1.47191
1.47047
1.47096
1
1.46959
1
1.47152
1.47095
1
0.998861
0.650993
1.4023
0.999901
1
1
1
1
0.99445
1
1.07233
1
1
1
0.845879
1.47112
1.47121
1.47197
1.40975
0.999878
1
1.0238
1.47063
0.997926
1.05125
0.997555
0.633458
1
1.00003
1
1
1
1
1
1.47221
0.661926
1.47197
1.47147
0.995568
0.645582
1
1
1
1.47114
0.638969
1.41394
0.65281
1.47123
1.47431
0.663853
1.47294
1.02242
1
1.47466
0.796648
1
0.998837
0.658098
1
0.633625
1
1.47114
1.47176
0.741619
1
1.47164
0.642832
1
0.66657
1
1.47152
1
1
1.47366
1
0.834619
1
0.999635
0.639867
1.47379
0.999495
1
0.674379
1
1
1
1
1.24837
1
1.4722
1
1
1.47446
1
1
1.47109
1
0.641978
1
0.659953
1.00001
1
1
1
1
1.45036
1.26656
1.47155
1
1.47129
1.43617
0.644217
0.678865
1
1
1.47273
1
0.640038
1
0.975629
1
1
1.47148
1
1.47276
0.668301
1.4761
1
0.674063
1
1
1.46972
1.47026
1
1.00004
1
1.45783
1
1
0.653797
0.999393
0.673985
1
1
1
1.47326
1.46793
1.47106
1
1
0.679808
1
1.46989
1
1
1
1.44854
1.47123
1.47176
0.647056
1.47222
1.47129
0.682304
1.47125
1.00004
0.677047
1.00982
1
1
1.47141
0.64445
1.29417
0.643914
1.47145
0.997392
0.657112
1.47289
1
1
1
1
1.47205
1.47018
0.664703
1
1.00003
0.654589
1.00004
1
0.675418
0.663052
1.32417
1.47422
0.998414
1.47147
1
1.47815
0.817195
0.65942
1.47152
1.48698
1
1.47132
1
1
1.4717
1
1.34903
1.47099
1
1
1
1
1.47049
1.46659
1.47179
1
1
1.47431
1.47639
1.47257
1
1.47039
1
1
1
1
1
0.658771
0.83492
0.677698
1
1
1.47075
1
1
1.47667
0.644177
1
1.47131
1.46673
1.45295
0.646124
1
0.654812
1
1.00003
1.47093
1.21663
1.47092
1.43052
1
0.689415
1
1.47438
1.33417
0.677343
1
1
1
0.813071
1
1
1.47599
1
0.676353
1.47132
1
1
1
1
1
1.37459
1.10514
1
1.47158
1
1.46814
1
0.997446
1
1.47114
1.47438
1.46989
1.47549
0.999595
1.47171
1
1.47171
1.47113
1.39693
1
1
0.668109
1.47127
1
1
1.47675
1.47093
1.46991
1
1.47207
1
1
1.00003
1.47471
1.47501
1.12673
1.09973
1.47161
1.47115
0.698667
1
1
1
1
1.00001
1.16046
1
1
1.3995
0.670297
0.999966
1
1.47156
0.999859
0.999819
1.06907
1.4204
1.47074
0.90277
1
0.666576
1
1.00135
1.47127
1.4749
1.47613
0.999004
1
1
0.655346
1
1
1.47119
1.04974
1
1
1
1
1
1
1
0.999939
1.47086
1.00002
1
1
1
1
1.31319
1
1.21549
1
1
1.47146
1.47935
0.665783
0.998868
1
1
1
0.666786
1.47231
1.47137
1
1
1
1
1
1
1
1
1.4729
1.46443
0.648597
1.05127
0.660061
1
0.660713
1
1.47128
1.12715
1
1
0.683131
1
1.45306
0.830601
0.995921
0.65923
1
1
1.46953
1.00005
0.996782
0.641692
1.47183
1.4797
1
1
1
1
1.4387
1
1
1.47196
0.998948
1.47061
1.00004
1
1
0.636841
1
1
1.47073
0.658748
0.798298
0.65543
1.47159
0.999384
1
1.47033
0.66459
0.667703
1.02115
1
1
1.47183
1.00004
1.21692
1
1
1.471
0.66018
1
1
1.00014
1.47017
1.00006
1.45708
1
1.00003
1
1
0.702341
1
0.794152
1.00002
1
1.4758
0.649519
1
0.786484
0.801426
1
1
1.47027
1
1
1
1.47153
1.47169
1.00005
1.45422
1.47233
0.783692
1.47145
1.44453
1
1
1.47308
0.999999
1
1
1
1
1.47836
1.47209
1
1
1
1.47098
1.00022
1
0.659863
0.730612
1
1.00003
1.16995
1
1
0.905714
0.66961
1
1
1
1.47859
1.43188
1.47135
1
1
1
1
0.637294
1
1.47006
1
1.46514
0.651912
1.47938
1
1
1
0.666058
1
1.47208
1.00003
1
0.679278
1.16853
1
0.999675
1.46939
0.648721
0.673565
1
1.47089
0.645303
0.659384
1
0.675887
1.00001
1
1
1
0.649464
1
1
1
1
1.46986
1
1.3587
0.653716
1
1
1
0.65996
1.47236
1
1
0.996922
1.47397
1
1.47244
1.47164
1
1
0.714124
0.667923
1
1
0.667232
1.13665
1.2135
1
1
1.47148
0.997489
1
0.997489
1.47023
1
1
1
1
1
1
1.47
1
1.15392
1.14547
0.709681
1.41717
1
1.47231
1.47191
1
1
1
0.900298
0.628902
1
1.22404
0.999626
1.41492
1
1
1
0.999999
1
1.00675
1.20778
1.47273
1.47263
1
1.47106
1
0.660222
1
0.997394
0.999794
1
0.641569
1
0.643659
1.00002
1.47588
1.47251
0.644382
1.47993
0.691643
0.996069
1.35421
0.662805
1.32955
1
1
0.998402
1
1
1
1.00007
1
0.629943
1
1
1
1
0.999599
1.47335
0.80186
1
1
1
1.03907
1
1
1
1.27182
0.770496
1
1
1
1.05463
1.47139
1
0.636054
1
1.47323
0.900331
0.67166
1
0.650488
1
1
1.44551
0.998206
1.43472
1
1.0086
1
1
1.47089
1
1
1
1
1.09202
1
1.47092
1.47339
1.47043
0.63779
1.47101
0.997036
1.38697
1
1
0.644062
1
1
0.654969
1.47447
1
1
0.999954
1
1
1
0.635818
0.646427
1
1.4714
1
1.21549
1.4715
0.660243
1.38291
1
1
0.688654
1
1
1.47118
1.47139
1.17218
1
1
1.0019
1.47119
0.636988
0.643051
1.47462
1.47125
1.32094
1.18537
1
0.88559
1
1
1
1.44063
1.46767
1.4696
1
1
1.47272
0.680272
1.42748
0.63809
1
0.654107
1
0.650796
1.47163
0.64729
1
0.978031
0.695836
1
1
1
0.839808
1.42341
1.46992
1.47063
1.4714
1
1
1.47119
1
1
1.4701
1
0.663054
1
0.650781
1
1.47078
1
1
1.01974
1.35985
1
0.999159
0.662868
1.47026
1.00001
0.645961
1.0904
1
1
1.35311
1.47201
1.47143
1
1.47409
1.12075
1
1.0235
1.47115
1
1
1
1
1.47131
1
0.671987
1.47019
0.661243
0.66256
0.818997
1.4742
1.16102
1.47394
1
1.47089
0.997519
1.00003
1.47174
1.47106
1
1.47144
1
1.47124
1
1.47136
1
1.00004
0.999974
1.47527
0.658269
0.651925
0.997982
0.999999
1
1
0.64761
1
1.30339
1
0.645826
1
1.18053
1.47212
1.47184
1
1
1.00003
0.999422
1
1.47149
1.4712
1
1.19546
1.47179
0.850825
1.47089
1.00028
0.640113
1.0978
0.646557
1
1
1.07891
1.4707
1
1
1.0411
0.99865
1
0.682926
1
0.790366
1
1.47267
1
1
0.643048
1.10637
1.05331
0.998494
1.47117
1.47144
0.779535
0.998033
0.643131
0.671655
0.647292
1
1
1
0.999102
0.739705
0.664408
1
1.47128
0.999745
1.47165
1.47061
1.47251
1.47129
1
0.655844
1.47109
0.651612
1
1.47202
1.47036
0.996622
0.818045
1.47053
1.32609
1
0.656962
1
1
1.47931
1
1.02675
1.47313
1
0.678228
0.654207
1
1
0.642758
0.640036
1.47024
1.00002
1
0.657409
0.668616
1.47728
1.45367
1.43901
1.47346
1.13295
0.987232
1.19037
1.47173
1.36589
1
1.22893
1
0.637553
0.86563
1
0.65809
1.47121
1.0225
1.4731
1
1.4714
1.47108
1
1.47147
1.47152
0.661558
1.47442
1
1.47303
1
0.73991
0.656186
1.47205
1
1
1
0.657819
1.47077
1.47227
1
0.64985
1
1
0.639866
1.00004
0.6421
1.47042
1
0.828971
0.652194
1
1
1.26587
1
1
1
1.08037
0.654927
1
1.00001
1
1.4752
0.659826
1
1.47172
0.636649
0.640722
1
1
1.47721
1
1.46861
1.00001
1.47201
0.658853
1
1
0.668636
0.810581
0.660936
1
1
1
1
1.47719
0.640022
1
0.659807
1
1.47895
1
1
0.925318
1
1
0.825514
0.999701
1.00005
1
0.660362
0.649806
1
1
1
1
0.795509
1.4703
1.47158
1
0.6567
0.649611
0.90211
0.650967
1
0.836171
1
0.634777
0.985308
1
1
0.653577
1
1.47095
1.46668
0.659526
1
1
1
1.47145
1
1.04682
0.823885
1.14067
0.65758
1.17894
0.652592
1
1
0.727829
0.90429
1
1.03862
1
1
0.658801
1
0.92832
1.03711
0.660726
1
1.3816
0.749487
0.878432
1
1
1
0.666387
1
0.66103
0.666306
1
0.85957
0.656452
1.0692
0.75247
0.627051
1.47165
1
1.47176
1.25227
0.745921
1.47152
0.65625
0.999063
1.47205
0.999999
1
1.46996
1
0.726101
1
1.06186
1
1
1.47215
1
0.763376
0.824074
1.47189
0.927523
1
0.769074
1.47174
1.47236
0.905986
1
1.47126
1.12119
0.850006
1
1.01681
1
0.654574
1.19693
0.756374
0.743355
1
1
0.651247
1.47188
0.958804
0.653606
0.651246
0.858095
1
1.00316
1.46978
1.47136
1
1
0.999999
0.650149
1.21478
0.99998
1.47468
1.43282
0.644045
1.00002
1.09358
0.875556
1.27665
1.42138
1
1.04683
1
1.00005
0.670175
0.846494
1
1
0.824284
0.671066
1.03436
1
1.00001
0.628877
1.20776
1
1.46176
1
1.02969
1.25773
1
1.45803
1
1
1.47145
1
0.651532
1.47166
0.666911
1.12323
1
0.65563
0.999921
1
1.00003
1
0.793066
1.0258
0.653733
1.3462
1.47183
0.631464
1
1
1
1
1
0.964392
0.677082
1.06312
0.652169
0.660692
1.07996
1
0.999794
1.11704
1
1
0.641258
0.99801
1
1
1.12535
1
1.47168
1
1.47182
1.09792
1.02187
0.64985
1
1
0.637492
1
1
1
1
1.4738
1.04473
0.998053
1
0.642539
1.05267
0.999999
1
1.30061
1
0.6759
1.47259
1
1.00001
1
1.47031
0.665146
0.869782
0.672146
1.35436
1.4768
1
1
1.4722
1
0.655879
1
1
1
1
1
0.777543
1
1.47012
1
1
1.16225
1.47209
0.671195
0.85732
1
1.47225
1
1
1
1
1
1.47141
1.4723
0.639998
1.47196
0.639248
1
1
1.47149
1
1.47379
1.00632
1.03061
1.05959
1.47112
1.06608
1.31723
0.652135
1
0.641721
0.985014
1
1.4713
1
1
0.652577
1.46877
1
1.47234
1
1
1
1
1
1.00001
0.667734
1.47093
0.8468
1.47146
1
0.654415
0.66072
0.730303
1.46737
1.46994
0.960005
1
0.784825
1
1.17089
1
1.46959
0.647963
0.658421
0.84398
1
1.47156
1
1.08059
0.691948
1
1.47054
1.4081
0.998873
1
1.47181
0.657193
1.47175
1.47219
1.46855
0.668479
1.08529
1
1
0.64437
1
0.809561
0.839803
1
1.00002
1.47067
1
1.47811
1.08434
1
1.03649
1.47853
1
0.661355
1
0.776878
1
1
1.3852
1
0.811943
1
0.656433
1.03737
0.949937
0.667507
1.47044
1.37143
1.47274
0.651771
0.712344
0.995903
0.999999
1
0.695889
1.44431
0.659498
0.999968
1
1.47164
1.47231
0.902448
1
0.657267
0.711171
1.30896
0.962389
0.646134
0.999999
0.659791
1.11499
0.662663
1
1.00005
0.802667
1.47137
1.47148
0.834848
0.99959
1
1
0.740299
1
0.655026
1
0.65113
0.662539
1
1
1.00003
0.65986
1.47133
1
1
1.00007
1.00004
0.655097
1.47225
1.4715
0.999999
0.652777
1.47369
1
1.09621
1
1
1.4745
0.647144
1
1
0.635981
0.724446
0.657177
0.640028
1
0.707321
0.997044
1.09057
0.644223
1
1
1.13064
1
1.41656
1
1
1.31958
0.669096
1
0.653613
1.12509
1.47184
1
1
0.656529
0.673835
0.649274
0.732177
0.654866
1.34968
0.999406
1
1
1
1
1.47219
0.643483
1
0.922085
0.999675
0.998504
0.999942
0.760557
1.12887
1
1.47154
1.47211
1
1
1.44771
1.00004
0.999999
1.47217
0.656698
1.47541
0.999999
0.648522
1.47143
1.00005
1
0.83049
1
0.655236
1
1.47135
1
1
1.47591
1
1
1.47619
1
1
1
1.4719
1
0.740459
0.728903
1
0.635069
1.46973
1
1
0.957886
1
1.47047
1.27019
1.37606
1
1
0.680799
1
0.664068
1.47008
1.47145
1.47077
1
1.4714
0.66217
1
0.670271
1.3756
1.43027
1.47149
1.47067
0.774336
0.641564
1
1.30446
1.47222
1.47236
1.47144
0.742917
1.16786
1
1.3559
0.726399
1
1.00002
1
1.00002
0.889768
1
1.47036
1
1
1
1
1
1
1.00006
1.4691
1
1.4748
1.34889
0.653666
1.47009
1.0215
1.23252
1
1.47174
1
0.658765
1
1
1
1
1.4018
1
0.65073
1.47154
0.632362
1.47141
1.37392
1.2411
1
1.08462
1.21174
0.995561
0.62585
0.775664
1.00002
0.999999
0.925655
1
0.621411
1.47189
0.627968
0.924932
0.848109
1
1
1
1.01171
1
1
0.621181
0.997003
1.46997
1
1.4716
1
0.655872
1
1
1.47088
1.47289
0.653187
1
1.47181
1
0.813093
0.635212
1.47162
1.42161
1
1.07571
1.47208
0.998628
1
1.1957
1.41165
1.47266
0.995791
1
0.999998
1.39743
1
1
1
1.47137
0.99852
1
1
1.47181
1
1
0.655765
1
1
1
1.47129
1
1
0.857543
1.13323
1.42965
0.758132
1
1.47167
1
1.16473
1
1.47078
0.997192
1.47055
1
0.658382
1
1.32987
1
1
1.43837
1.00001
1.47022
1
1.47637
0.699101
0.658801
1.47138
1
1.39929
1
1.47234
1
1
1.00005
1.47421
1.46704
1.11687
1.47135
0.995545
0.649612
1.473
0.868883
1
1.46976
1
1.4731
1
1.47354
1.47233
0.996426
0.65999
1
1.47163
1
1.02411
1
1
0.997993
0.751711
1.42028
1
1.42848
1
0.862109
0.635651
1.47287
1.47074
0.676014
1
1.4707
1.4704
1.47067
0.696285
1.471
0.645297
1.47193
1.46492
1
1
1.47058
1
1
1
1
0.661828
1
1
1.47203
1.47185
1
1.47206
1
1.47098
1.47346
1
1.39158
1
0.63863
1.4719
1.34628
1.12103
0.639203
1.47184
1
1
0.643532
1
1
1.47113
1
1
0.793601
1
1.47139
1.00008
1.47184
0.636942
1.47066
1
1.47202
1.4514
0.903183
1
1.46884
0.764273
1.47444
1.32122
1.47091
1.47606
0.997045
1.473
1.47196
1.47046
1.47195
1.00087
1
0.670779
1
1.47164
0.828658
1.43017
1
1.463
1
1
1
1
1
1.46905
0.640554
0.646053
1.47134
1.47136
1
1
1
1
1
1.46844
1.43997
1.47091
1.01478
1
1
1
1.00003
1.47028
1.47151
1
1.4706
1.47383
0.661249
1.32716
1
1.47101
1.47812
1.46842
0.997861
1.47198
1.47101
1
1.42732
1
1
1
1
1
1
1.47136
1.47149
1.43619
1.47137
0.647662
0.703218
1.47156
1.47069
1
0.644422
0.948346
1
1.22087
0.655767
1
0.999449
0.998226
0.659536
1
1.47239
1
1
1
1.47157
0.933049
1
1.47183
1.47099
1
1.47244
1
1
1.47143
1
0.655522
1
1.47247
1
1
0.661371
1
1.47091
1
0.640211
0.675073
1
1.46126
1
0.638324
0.882567
1
1.47189
1
1
1
1.47829
1
0.641624
1.06493
1.47223
1.47344
1.47138
1.03964
1.47341
1.47149
1
1.00002
1
1
1.00001
1.47123
1
0.999276
1.47735
1
0.644567
1
1.47124
1.2116
1.06389
1.21032
1.05684
1.47584
0.710884
1.47167
1
0.656502
0.997259
1.4718
0.940811
1.47153
1.47155
1.46095
1
1.47179
1.47111
1.47184
1
1.00004
1
1
1.4721
1.3335
1
1
0.660602
0.996708
1
1.47245
1
1.47191
1.47154
1.47493
0.911551
1.47233
1.46947
1.01237
1.223
1.47185
1.47211
1
1.43388
0.829303
1.44429
0.980185
1.4712
1
1.47138
1.47257
1
0.649671
0.93632
0.721225
1
1.08148
0.996648
1.47205
1
1
0.99642
1
1.23136
1.45286
1
1
1.4722
1
1
1.33429
1.47016
1.45116
1.47241
1.47261
1
1.47159
0.736279
1.4715
1
0.9973
0.640224
1
1
0.769018
1
1.14108
1
1.47399
1
1.46291
1.29398
0.659037
1
1
1
1
1
1.47126
1.01123
1
1.46957
1
1.47204
1.47191
0.999999
1
0.968663
0.999849
0.642448