/*--------------------------------*- C++ -*----------------------------------*\
  =========                 |
  \\      /  F ield         | OpenFOAM: The Open Source CFD Toolbox
   \\    /   O peration     | Website:  https://openfoam.org
    \\  /    A nd           | Version:  12
     \\/     M anipulation  |
\*---------------------------------------------------------------------------*/
FoamFile
{
    format      ascii;
    class       volScalarField;
    location    "1.2";
    object      p;
}
// * * * * * * * * * * * * * * * * * * * * * * * * * * * * * * * * * * * * * //

dimensions      [1 -1 -2 0 0 0 0];

internalField   nonuniform List<scalar> 
46253
(
1.01141
1
1
1
1
1
0.975678
1.02686
1
1
1.01404
0.814628
1
1
1
1
1
1
1
1
1
1
1
0.994924
0.977933
1
1
1
1
1.02865
1.06218
1
1
1
1
1
1
1
1.04271
1
0.956981
0.814226
1
1
0.77604
1
1
1
1
1
1
1
1
1.00116
1
0.864247
1
1
1.20152
0.899495
1
1.01983
1
1
1
1
1
1
0.867648
0.780103
0.975911
1
1
1.03325
1
0.995175
1
1
1
1
1
1
1
1
0.972409
1
1
1
1.11744
1
1
0.942044
1
1
1
1
1
1
1.1988
1
1
1
1
1.05881
1
0.974059
0.817203
1.00007
1.00004
0.833421
1.01878
1
1
1
1
1.08388
0.793845
0.899638
1.40826
0.866217
1
1
1
1
1
1.43148
1
0.845334
1.00035
1
0.99744
0.996757
1
0.980433
1
1
1
1
0.863889
1
1
1.05665
1.05529
1.04783
1
0.999984
1
1
1.03781
1
0.831125
1
1
1
1.01194
0.783886
0.842761
1
1
1
1
0.817561
0.858163
1
0.977832
1
0.981405
1
1.6647
1
1
0.999996
1
0.981093
1
0.784901
1.01204
1
1.03313
0.796641
1
1.00963
0.999991
0.999994
1
1
1
0.77599
1
1
1
1
1.01268
1
1
1
1.0209
1
1.12755
1.12698
1
1
1
1
1
0.791837
1.00561
1.00016
1.00007
1
1
1.41131
0.979787
1
1.01349
1
1.04354
0.977651
0.998449
1
1
0.99669
0.782956
0.99999
0.999992
0.983559
1
1
1.11806
1.11677
1.13726
1
1
1
1
1
1
1
1.13386
1.15838
1
1
1
1
1
1
1
1.00459
1
1.01475
1.04479
1.15456
1.10813
1
1.10601
1.00016
1.00015
0.880596
0.919422
1
0.978866
0.907489
0.828038
1.0514
0.999686
1
1
1
0.998949
1.06478
0.999401
1
1
1
1.06733
1
0.99996
1
0.988108
0.893381
1.09614
1.0948
1
1
1
1.01121
1.00575
0.867562
1.03521
1
1.19028
1.18828
0.97973
1
1.17991
1.09876
1
1.0957
0.98034
1.0752
1.39961
1.07154
0.854734
1.39478
1
1.00812
1.00412
1
1.04995
1
1
1.036
1
1.11541
1
1.11057
0.860672
1.1769
1
0.97654
0.846427
1
0.975557
0.978888
1.05233
1.03053
1
1
1.13791
1.13698
1.07325
1.07162
1
1
1
1.01861
0.877293
1.06469
1.06548
1
1
1
1
1.34148
1
1.13591
1.13373
1
0.870856
1
1.02316
1
0.793136
1
0.820418
1
1.06848
1
1.0697
1
0.819438
1
1
1
1
1
1
1
1.13314
1
1
1
1
1.1327
1
1.16862
0.861515
1
1
1
0.978059
1.00595
0.846227
1.0783
1.00277
1.10243
1
1
1.13291
1.50287
1
1.03718
1.13217
1.00813
1
1.02016
0.99224
0.992967
1
1.02356
1
1.04523
1.04397
1.16545
1
1
1
1
1
1
1
1
1.3653
1
1.02709
1
1.015
1
1
0.879334
1
1
1.13073
1
1.12455
1
1
1.12982
1.14023
1
1.01937
1
1
1
1
0.990218
1.00923
1
1
1.01007
0.84825
1
1.00181
1
0.994775
1.01653
1
1
0.866287
1
0.895827
1.02657
1
1.01762
1
1.00004
1.00969
1
1.13775
0.990207
1
0.989168
0.990765
1.14013
1
0.989471
1
1
1
1
1
1.01532
1
1.0129
0.850652
1.12324
0.88185
1.00104
1.12288
1.0007
1.03019
1.02999
1
1
1
1
1.00063
1
0.898189
0.979589
0.799182
0.899532
0.998498
0.946593
0.99459
1
1
1.13717
1.02298
0.831277
1.13697
1.12079
1.12015
1.0217
0.920462
1
1.02036
1.05616
1
1
1
0.910692
1
0.993885
1.01693
1
1
1.00769
1
1
1.02063
0.768261
1.02726
1
1
1.02852
1
1.0278
1.03681
1.02826
1
1.03343
1.02282
1
0.989256
1.02745
1
1
1.13351
1
0.984495
0.879705
1
1
1.13432
1
1
1
1
0.795133
1
1
1.11444
0.883358
1.11415
0.899384
1
1
1
1
1
1
1
0.996408
0.800848
1
1
1
1
1
1
0.981968
1.04138
1
1.02751
1
1
0.853094
1
1
1
1.13135
1
1
1.1316
1.02355
1.09589
1
1.09893
1.10003
1.10357
1.05681
1
1.11006
1.1099
1.03614
1.01904
1
1
1.03117
1
1.41767
1.02744
1
1.39994
1
1
1.04899
1.05692
1
1
1.07959
0.992459
1
1
0.981814
1
1
1
1
1
1
0.999924
0.999957
0.77482
1.00112
0.991761
1.00711
0.998023
1.17852
1
0.982086
0.999997
1.1784
1
1.16502
1
1.16641
1
1.00451
1.15521
1
1.1567
1.30022
1
1.14774
1
1.14935
1
0.80278
1
0.887177
0.99826
1
1
1.13995
1.14111
1
1.02157
1.13167
1.13274
0.982513
1
1
1.11932
1.10218
1.12055
1
1.12659
1.11191
0.862426
1.11285
1.10201
1.12613
1
1
1
1.10327
1.10426
0.956234
1
1
1.09591
0.903257
1.09651
0.850121
1
1.08321
1.08435
1
1
1
1.01869
1
1.02846
1.01984
1.0656
1
1.0728
1
1.07371
1
1
1.03014
1.03093
1.06643
1.06727
0.988323
1.0349
1.05861
1.03586
1.05935
1
0.994321
1.05059
1.05151
1
0.87366
1.0414
1.04214
1.49778
1
1
1
1.03893
0.999885
1.03835
0.791212
1.09339
0.989685
0.834995
1.02848
1.03107
1.01702
1.02574
1.02378
0.867763
0.869702
1
1.006
1.45491
1.09777
1
0.838948
1.09759
0.866654
1.0657
0.984226
1
1
1
1.12219
1
1
1
1
1
1.12209
1
1
1
0.880351
0.888734
1
0.988461
0.778468
1.00827
1
1
1
1
1
1.00674
1
0.99317
1
1.0925
1.02366
1.0956
0.870334
1
1.00873
0.96831
1.10265
1
1
1
1
1
1.09825
1.09516
1.01093
0.985962
0.986674
1
0.889267
1
1
1.09846
1.01303
1
1.00812
1
1
0.992089
0.998688
1
1.10126
0.851269
0.986656
1
0.994524
1.09017
1
1
0.99004
1.00635
1
1.08987
0.769087
1
1
1.12768
1.12916
1.00059
1
0.771636
0.773614
0.978045
1.02646
1
1.02346
1.01852
0.853169
1.28993
1
1
1
1.09238
1.093
1
1
1
1.11599
1.08091
1
1
1.08084
1.11597
0.998093
0.991955
1
0.988909
1.0244
0.834753
0.992004
0.853826
1.05559
1
1
1.05602
1
1
1.00335
0.996629
1
1.08515
0.893066
1.02066
0.864987
0.874171
1.08502
0.876951
0.874176
0.854714
0.852406
1
1
0.995518
1
1
0.991837
0.903936
0.887166
1
1
1.02563
1
1.02582
1.0269
1
1.00007
1.16102
1
1
1
1
1.00104
1.0338
0.996782
0.775538
1
1.11176
1
1.0036
1.00259
1.11073
1
0.998449
0.991741
0.998796
1
1
1
1
0.992453
1.02622
1
0.977571
1
0.874702
1
0.876866
1.00521
0.979824
1
1.0806
1.08004
0.92629
1.35157
1
0.884721
1.02185
1.02077
0.884148
1
1
0.987077
0.805781
1
1
1.032
0.793949
1.07758
0.989151
1
1
1
1
1
1
1.50638
1
1.00692
0.865657
0.8689
0.955128
0.774619
0.763224
0.78375
0.875342
1.08815
1.00608
0.769378
1.15253
1.15969
1.16372
1.14361
1.15356
1
1.02988
1.16148
1.16676
1.14479
0.994122
1.1674
1.1172
1.13547
1.16229
1
1.00096
1.13682
1.0004
1
1.12333
1.19638
1
1
1.12477
1
0.999547
1.11559
1
1
1
1.11675
1
1.10721
1
1
1
1.07552
1.10875
1
1
1
1.09941
1.10452
1
1
1
1.10058
1.07513
0.786803
1.08795
1
0.938297
1.08915
1.07675
1.07836
0.863765
1.0698
1.07067
1.06232
1
0.995124
1.06365
1
1.05429
0.980479
1
1
1.05382
0.897208
0.802315
1.04501
1.0467
1.03975
1.10429
1.03921
0.764867
1.03549
1
1.01164
1.1034
1.03638
0.984441
0.966117
0.991896
1.02511
1.01084
1.01129
0.978222
1.02556
1.02398
1.02396
1.00842
0.825612
0.782169
1
0.823568
1
0.82882
0.800174
0.774299
1
1.43174
1.03489
1
0.999464
1.01373
1.03528
1.04206
1
1.05434
1.10486
1.11265
1.01328
1.08212
1.10039
1.10674
1.10198
1.09449
1.01489
0.865951
1.02651
0.990698
1
0.950818
0.896288
0.864583
0.970096
1
1.14869
1.09407
0.814058
1
1.06789
0.918727
0.952155
1.06784
1
1
1
0.91413
0.970723
0.989138
1.09792
0.982347
0.98643
0.839615
1.10025
0.955204
1.09914
1.01266
0.978222
0.813235
0.885614
0.833822
0.942028
1.11026
1.0136
1
1.10917
1.18034
0.917168
0.965827
1
1
1
1.01635
1
1
1
0.779857
0.968708
0.851909
1
0.97384
1
1.01425
0.919534
1
1
0.773926
0.861237
1.00026
0.863672
1.03722
1.03846
1
1.11436
1.02737
1
0.97693
1
0.979839
1.06347
0.998118
0.901961
1
1
0.948222
1.00379
1.00593
0.992641
1.03058
1.03207
1
1.06263
1.00733
0.992807
0.988973
0.853555
0.982818
1
0.923243
0.869181
1.00032
0.82924
1.00049
1.0956
1
1
1
0.903119
0.996008
1
0.998102
0.996427
1.08667
1.06739
0.882236
0.999971
0.757635
0.976487
1.14312
1
1
0.929964
1.15874
1
1
1
0.990033
1
0.989031
0.790688
0.995847
0.991683
1
1
0.990523
1
1.00007
1.00223
1.2367
0.999971
1
1.09494
1.23938
1.00287
0.987034
1.13928
1
0.969386
1.2131
1.17356
0.932232
1
1.13111
1.21702
1.19145
1
1.01953
0.77841
1
1
0.88239
1.19417
1
1.15402
1.06791
1
1
0.976116
1.16976
1.05779
1.16229
1.18881
1.09266
0.844311
1
1.16955
1.17273
0.969601
1.0572
1
1.04876
1.09138
1.04944
1.0984
1
1.15035
1
1
1
1.15097
1
1
0.901008
0.999356
1
0.906164
1.15271
1.03313
0.992482
1
0.996823
1
1.03292
1
1
1
1
1
1.00192
1
1
1
1
1
1
1.01088
0.816022
1
0.966634
1
1
1
1.02261
0.890267
0.825816
1
0.817517
1.06894
1
1
1
1.07742
1
1.10161
1
1.18407
0.877681
0.833599
1
1
1
1
1
1
1.02891
1.05735
1.02413
1.1832
1
1
1
1
0.876129
1
1
1
1.09123
1
1
1
0.961667
0.961004
0.89101
1.13492
0.878035
0.954962
1
1
0.970849
0.968599
1.09485
1.09946
0.829261
1.1005
1.09294
0.975471
1.09777
1.09879
1.05327
1.12785
1
1.02355
1.00006
1.09644
1
1
1.09779
1.05299
1.10167
1
0.981025
1.10057
0.999998
1.00017
0.882463
1.0345
1.0994
0.99816
1.08819
1.0001
0.849124
1.00012
0.893695
1
1.04833
0.851789
1.08694
1.02877
0.997823
1.10228
0.923649
1
0.981385
1.16754
1
1
0.777811
1
1
1.1673
0.882259
1
1.08594
1.09232
1.08692
1
0.870693
1.09198
1.09941
1.09846
1.08833
1.09223
1.06205
1.10755
1.13568
0.875367
1.14757
1.08951
1.12255
1.09117
1.08843
1
0.896378
1
1.0033
1
0.780289
1.01357
1.09048
1.10094
0.880849
1.10353
1.02684
1.08175
1.09145
0.982765
0.889403
1.14632
1
1.08595
1.08706
1
1
1
1
1
1
1
0.914969
1
1.04757
0.775523
0.871407
1.16213
0.778618
0.8682
1.0824
0.851099
1
0.793039
1.04664
0.90248
1
1.0215
1.12316
1
1
1.21206
0.780555
0.87821
0.877164
1.05909
1
1
0.762665
0.961935
0.990154
1.13659
0.767935
1
1
1
1.00014
1
1.07855
1.07884
1.02206
0.772039
1.07171
1.07483
1
1.03255
1.07557
1.00022
1.06621
1
1.19404
1
1
1.09118
1.07239
0.91834
1.1754
0.774953
1.19097
1.20124
1.13261
1
1
1.08982
1.01223
1
1.08346
1
0.829702
1
1
1.06316
0.80401
1
1.06638
1.01448
1.06707
1
1
1.08272
1.14502
0.819622
0.876065
0.792923
0.966319
0.95074
0.958176
0.784176
1.02308
0.955995
0.985408
1
1.06329
0.774367
0.819381
0.972733
1.12313
1.05358
0.899638
1
1
0.983961
0.979629
0.975938
1
1.05349
0.994463
1.05778
1.04177
1.05794
0.966834
1.03897
1
0.871902
1
0.768226
1.0402
1.05404
1.04549
1.02213
0.768902
0.897966
1.09609
1
0.899168
1.07741
0.860116
1.21565
0.891079
1.04546
1.04753
1.2153
0.80071
1.04857
0.972994
1
1.04519
1.04948
1.14122
1.16384
1
0.989763
1
0.997746
0.891579
1.0166
0.828186
0.823579
1
0.822431
0.833219
1.04556
1
0.772952
1.02243
1.11716
0.994456
1.02838
0.783474
0.907551
0.974321
1.10037
0.994414
0.796466
1.03567
1.04019
1
1.0402
1
0.992286
1.19771
1.03597
0.859653
1.17178
1.06272
1
0.827244
1.0898
1.0188
1
0.837999
1.08999
1.12112
1.17992
1.20588
1
1.02733
0.999953
1.02952
1
1.08733
1.02979
1
1.11908
1.08795
0.956407
1.05364
1.08402
1.02771
0.920188
1
1
1.0848
0.83356
1
0.822691
1.00994
1.12111
1.12667
0.823408
1.19475
0.899622
1
0.839727
1.26594
1
1
1.1419
1.25864
0.821173
1.04119
1.02236
0.817552
0.814693
1.09514
0.917894
1.02233
1.01822
1.09444
1.17163
1.13254
1.01731
1.03821
1.04114
1.06108
1.06682
0.952572
1.0557
0.818135
1
1.10549
1.26645
1.01479
1.14384
1.26623
0.871061
1
1.01585
1.00425
1.0625
0.889858
1
1
1.12747
1.12865
0.885413
1.03208
1
1
1.03009
1.07891
1.07797
1
1
1.01853
1.00696
1.00808
1.0623
1.0242
0.841224
1.02457
1.00369
1
0.842004
1.07701
0.877234
0.829543
1.06429
1.09756
1.33993
1.0699
0.994096
1.06435
0.938515
1.0636
1.0703
0.982099
1.07001
1.01408
1
1.00763
1
1
0.936586
0.929051
0.948235
0.930949
1.02595
1.02177
1
1
0.944477
1.061
0.858275
0.882536
0.980596
0.855213
1.05038
1.11769
1.06176
0.860963
0.834523
1.04497
1.15638
0.867325
1
0.966562
1.09621
0.856756
1.29707
0.986631
0.995006
1
1
0.999121
0.963001
0.99998
1
1
0.960189
1
1.05225
0.87065
0.865218
0.899252
1.03824
1.05199
1.03272
1
0.860793
0.903977
1
0.855648
0.925424
1.02609
0.998249
1.02481
1
1
1.05573
0.953873
1.20488
0.866258
0.871131
1.26161
0.890172
1
1
1.04312
1
1
1.10161
0.987555
1.06895
1.04387
1
0.853636
1.08609
0.910103
1
0.907174
1.167
0.963306
1
1
1
0.878539
0.949369
1.05266
0.906881
1
1
0.864942
0.906733
0.869614
0.869725
1.03442
1.0591
0.913586
1
1
1
1.03443
1
1
1
0.975107
1
1.02426
1
1
1
1
1
1
1
1
1
1
1
1
0.906614
1
1
0.990218
1.05998
1.00041
1
1
1.03501
0.852824
0.914239
1.07192
1
1
0.987331
0.860851
1.0569
1
1
1
1
1.01888
1.02381
0.999971
1.10333
1.02089
0.912064
1.02486
1.03389
0.899804
0.974362
1.09438
0.881907
1.00036
1.00067
0.999967
1.00393
1
1
1.07609
1.09229
1
1
1.08528
1.06432
0.923925
0.976764
1.05532
1.02015
1
0.891462
1
1.0043
1.08947
1.07124
1.04475
0.880837
0.92059
0.991728
1.09355
1.01757
1.02499
1.00852
1
1.04382
1.0211
0.883178
1.09083
1.20928
0.99992
1
1
0.918794
1.09235
1.05097
1.08313
1.26359
1.01791
0.846686
1.06079
1
1.04924
1.09026
1
1.0939
0.9527
0.846181
1.09151
0.894657
1.0215
1.01353
1.08746
1.01261
1.02864
1
1.00141
1.00188
1.08761
0.999364
1
1.00282
1.02587
1.03143
1.02321
1.08324
1.03392
1.04302
1
1.07759
1
1.03074
0.912553
1
1
1.258
1.09508
1.13574
0.869815
1
1
1.07344
1.13644
1.02129
0.863005
1
1.02287
1
1.04165
1.22974
1.10796
1.01913
1.09746
0.970777
1
1.077
0.948268
1.06323
0.914909
1.04568
1.08114
1.02117
0.965082
1
1.07986
0.982919
0.997503
1
1.0774
1.07374
1
1.0295
0.877303
0.978181
1.02901
1.08049
0.860557
0.996533
1.08204
1.06421
1
1.06833
0.992483
1.03331
1.38204
1.03329
1
1
1
0.974819
1.01388
1.06867
1.00127
1.06475
1.03895
1
1
1.27847
1.11893
1.05593
0.900469
1
1.04114
1
1.05791
1.01229
1.01635
1.05907
1.2434
1.03711
1.1256
1.11343
1.05943
1.05647
1.01478
1
1.02555
0.913684
1.01759
1
1.04666
1.03599
1
1
1.01697
1
1
0.957092
0.877625
1.05478
1.05116
1.11729
1
1
1
0.999264
1
0.917627
1.03211
0.902851
1.05126
0.827077
0.810958
1.04673
0.880037
1
0.85006
0.929023
1.08843
0.878259
1.0379
1
1.06924
1
1.10704
1.04128
1
1
1.02944
1
1.0447
1
1.06404
1.0414
1.03869
1.04242
1.02716
1
0.873087
1
1.14569
1.09434
1.03046
1.03065
1
0.999999
1.07085
1.02894
1
1.05178
1.03174
0.987114
1.01211
1.07635
1.03102
0.867602
1
1.06649
1.06247
1.07471
1.03282
1.06728
0.94182
1.02835
0.955031
1
1
1.02707
1.07048
0.935407
1.0079
0.984689
0.997499
1.03134
0.873897
1.03419
1.01386
0.888926
1
1.08106
1.04643
0.938408
1.06142
0.947931
1
1
1.02313
1.01914
1
1
1
1
1
1.15516
1.01777
1
0.931431
1
1.02231
1.0697
1.0716
1.05944
1.02009
1.02291
1.03025
1.05872
0.926088
1
1
0.961552
1.10754
1
1
0.981548
1.0847
1.01752
1
1.01427
1.08595
1
1.05515
1.01115
1.05876
1.0897
1.10089
1.01499
1
1.01306
0.914725
1
1
0.961189
1.09253
1.08955
1.0952
1.0129
0.910471
1.08993
1.17577
1.10678
1.11277
1.10409
1
1.00783
1.08483
1.10915
1.01804
1
1
1.00514
1.00482
0.908104
0.820765
1.07938
1
0.999986
1.03215
1.12872
0.887133
1.00454
1.12196
1.12504
1.01802
0.817794
0.999995
1.11648
0.894462
0.998868
1.03491
0.897036
1.18717
1.00038
1.0955
1.02024
1
0.972557
1.07808
1.00648
0.933509
1.04856
1.13707
1.0958
0.894206
1.00997
1.0676
1.01107
0.888959
1.08244
0.898621
1.13432
1.04427
1.02885
1.09527
1.03398
1.0605
0.993254
1.08435
1.12542
1.13108
1.02276
0.972228
1.03155
0.870295
0.895402
0.963848
0.896208
1.00267
1
1.01287
1
0.904359
1.00629
1
1
0.903286
0.999999
1
0.975244
1.0683
1.28911
0.989764
1
0.822845
1
0.944741
0.900989
1.07783
0.897418
1.00546
1.07527
1.00657
1.01909
1.02564
1
0.98049
1
1.07805
1.06218
1
0.968734
0.941157
1.13907
1.07839
1.14038
1
0.939267
0.815661
1.0769
1
1.15483
1.03596
0.959798
1.07759
0.975925
0.946669
1
0.941051
1
0.900411
1.26452
0.947518
0.81881
1
1.07609
0.867418
0.947948
0.821683
0.993532
1.07655
1.08471
1.0301
1
0.999848
1.00132
1
1.15558
1
1.07467
1.12024
1.08994
1.15123
1
1
1.0749
1.03202
0.905333
1.16295
1
1
1.15867
1.07296
1.1716
1.05724
1.16686
1.07321
1
0.943966
1.01119
1.00142
1.07082
0.988843
0.995359
0.995431
1.1865
1.07095
1.14892
1.04856
1
1
1
0.907875
1.06858
1
0.997223
0.977412
1.17566
1.04964
1.02008
0.8958
0.915415
1.06901
1.09528
0.996449
1.05173
0.85552
1.00289
1.03814
1
1.02959
1.04432
0.962282
1.01534
1.09746
1.09351
1.18002
1.00101
1.19713
1.19283
1
0.912667
0.835658
1.06578
1
1
1.00788
1
1.18891
0.867438
1.06639
1.092
1
1.05109
1.03084
1.00528
1
1.00977
1.01503
1.06274
1.04466
0.97146
1.18442
1
0.927965
0.974353
1.00833
0.999999
1.06348
1
0.949678
0.850129
1.01811
1.20166
1.0205
1.04937
1.20654
1.01757
1
0.987831
1.01537
1.0855
1.47181
1.07003
1.11826
1.05968
1.07044
1.02431
1.14269
1
1
1.11839
1.01445
1.06032
1.08857
0.974034
1.02097
1.06887
1.00004
0.97722
1
0.766057
1
0.822616
1.01919
1.05776
1.0574
0.912238
1
1
1.21107
1.00017
1
1
1.02741
0.911839
0.976279
1.21996
1.0252
1.00403
1.09146
1.02863
1.09446
0.9139
1
1.00421
1.06801
0.926217
0.914509
0.848119
1.02695
1.02369
1
1.04301
1
1
1.13361
0.91377
0.953265
1.04249
1.11026
1.26541
0.915025
1
1
1.09928
1.10337
1.02864
1.09928
1.03428
1
1.04432
1.01819
1.03279
1
1
1
1
1.03916
1
1.06599
1.10879
1.02286
1.19836
1.10942
1
1.03821
1
1
1
1.04339
1.10554
1.10472
1
1.07668
1.04104
0.888245
1
1
0.888152
1.06529
1
0.899342
1.04601
1
1
1
1
1
1.10138
1
0.940807
1.04465
1
1.12213
1.01983
1
1.10148
0.813626
1
0.883715
1.08805
1
1
1.12028
1.13473
1
1
1
0.891156
0.890426
0.938362
1.05195
1.00478
1.11436
1
1
0.900673
1.11966
1
0.890597
1.05066
1
0.950506
1
1.06063
1
0.946695
1
0.85262
1
1
1.02495
0.813959
1.11798
1
1
1.05838
1
0.934613
0.900702
1.05809
0.824532
1
0.769849
1
0.864602
0.902087
1.03035
0.935125
1
1.09185
1.0571
0.957741
0.957753
1.02395
1
1.00783
0.954425
1
1
0.879658
0.881269
1.06248
0.83658
1.06407
1
1
1
1.06308
1.29179
0.903006
1.06926
1
1.04536
0.966693
0.896207
0.906527
1.13908
1
1.08321
1.06745
0.963954
1.10031
1.13801
0.863593
0.985909
1
0.898585
0.869603
1
1.06288
1
1
0.824657
1.07361
1
1.00721
1
1
0.985284
1.04754
1
1
1
1.07507
1.05598
1
0.739627
1
1.0721
1
1.00179
0.857162
1
1
0.972327
1.0733
1
0.819281
1
0.88961
0.975943
0.999975
1.07908
0.973829
0.819431
1.07842
1.10813
0.888202
1.16604
0.999989
1
0.988491
1.07805
1.0774
0.812084
1.10805
1.08969
0.895912
1
1.12441
1
1.26262
0.926035
1.08421
1.08304
0.811857
0.99462
1.00241
1
1.00377
1.08484
0.98735
0.95126
0.908074
0.999986
0.990186
0.928386
1
1.10363
1.08212
1
1
1
1.08209
0.929504
1.06543
1.10386
1.00651
1
1.08656
1.00015
1.05332
1.08827
1.09909
1
1.26954
0.808815
1.08505
0.995972
1.09972
1.05046
1
1
0.912892
1.08722
0.926669
1.00026
1.07517
0.978787
0.981687
0.977396
1.33074
0.995774
0.983775
0.867338
1
1.04411
1.09394
1.08791
1
1.09122
1
1.16321
1.10289
0.908597
1.18355
1.07632
1.14485
0.923288
1.04024
1.06051
1.14454
1
1.1109
0.972852
0.943962
1.02991
1.09021
1
1.07482
1.09234
1.07824
0.97306
0.929647
1
1.20272
1.05868
1.29774
1
1.13388
0.896908
1.05477
1.16559
0.917463
1.07707
1.07693
1.00031
1.14721
1.1871
1.00055
1.09769
1.11393
1
1.07173
1.06616
1.07784
1.07517
1.12398
0.866324
1.22878
1.09635
1.20634
1.07097
1.00589
1.10232
1
1.0963
1.07737
1.06432
1.07387
1
1.09521
0.925171
1
1.30664
1.07558
1.07187
1.07216
1
1.23308
0.929519
1
1.0742
1.10137
1.07003
1
1
1.07029
1.07212
1
1.10072
1
1.06768
1.10115
0.901717
1
1.07008
1
1.06478
0.824599
1
1.01491
1.10534
1.06761
1.06133
1
1
1
1.07883
1.10278
0.933017
1.06466
1.10433
1.0585
1.10741
0.865365
0.995367
1.132
1
1
1.06051
1.06734
0.995889
1
1.07708
1.13466
1
1.06141
0.959047
0.947714
0.96186
1.11179
1
1.07386
1.10697
1.08609
0.929101
1.05849
0.974273
0.968293
0.888993
1.01802
1.08503
1
1.29928
1.10731
0.926821
1.10104
1.20549
1.02711
1.02251
0.923856
0.898919
1
1.05875
1.11023
1.05784
1.08386
1.11322
1
1.0301
1.11033
1.0487
0.994953
1.08622
1
1
1.11105
1.1065
1.05654
1
0.859115
1
1
1.01608
1.08689
1
1.10758
1.17352
1.07056
1
0.908687
1.05625
1.11038
1.10292
1
1.10746
1.01099
0.933245
1.09682
1.16115
1.02734
1.09402
1
1.00077
1.06699
1.09533
1
1
1.09617
0.985404
1.10173
1
1.09215
1.11164
0.995185
1
1.08899
1.0657
1
1.04225
1.09709
1.09059
0.908687
1.00986
1
0.916195
1
1.11792
1.02571
1
1
1.06752
1.02796
1.07168
1.04911
0.816511
1
1
0.926703
0.973016
1.10216
1.01955
1
0.940863
1.1183
1.06309
1.00001
1
1.10061
1
0.999947
1
1
1.02411
1
0.995308
0.960971
1
0.747987
1.10806
1.06684
0.861634
1
1.02742
1
1.07974
1.11078
1
1.0169
1
1
1.04697
1.10696
0.926498
1.09273
1
1.0738
1.08508
1.38068
1.16054
0.788983
1
0.92419
0.795489
1
0.923267
1
1
0.928754
1.08712
1
0.784879
1.08479
1.11403
1.09389
1.00001
0.820119
1
0.947652
0.980391
1.01506
0.990636
0.99073
1.06034
1.11267
1.01367
0.936383
0.927031
1
1
1.00073
0.976489
1
1
0.902745
1
1
1.05683
1.07208
1
1.11965
1
1.05121
0.936505
0.85751
1
1.00001
1.05424
1.25676
0.804579
1.11817
1.05222
1.05122
0.933619
1.06388
0.84423
0.814152
0.815395
1.05941
0.816054
0.999961
1.13377
1
1.06788
1
0.855804
0.897422
1.20827
1.19181
1
1.10454
0.827973
0.920021
0.981221
1.12533
1.05925
0.819755
1
1.04387
0.916991
1.16895
1.09639
1.04852
1
1
1
1
1.01425
1.04082
1.12399
0.855649
1.10336
0.867861
1
0.948399
1.19563
1.06193
1.21232
1.04767
1.01994
0.923128
1
1
0.811445
1
1.05718
0.952037
0.864962
1.01649
1.00649
0.960819
1.1123
1
1.0129
1
1
1.11887
1.13056
1.01383
1.17201
0.928119
1.055
1.11362
1.28943
0.930711
0.863061
1.01405
1
0.919773
1.12898
0.990884
1.0077
1.05122
1.00731
1.08173
1.0062
1
1.11587
1.04061
0.869905
1
1.07043
0.925924
1.01221
0.916475
1
0.793041
1.07678
1.03969
1
0.932463
1
1
0.995144
1
1
1.05949
1.102
0.884158
0.934843
0.865305
1.0684
1.0407
1.13845
1
1
0.877939
0.911399
1.00954
1.00265
1.07539
1
1.02766
0.821731
1.01377
0.930714
0.898635
0.817745
1
1.09671
1.06002
1.03933
1.13296
0.995148
1
1
1.17694
1.02266
1.14942
1.03554
1.06588
1.07435
1.00221
1.00016
1
1.02122
1.00137
1.14652
1
1.01091
0.913446
0.814882
1
0.992297
1.05643
0.871966
0.968147
0.8522
1.07375
1.13146
1
1.09911
1.02272
1
1.13375
1.00193
0.890248
0.817154
1.02067
1.07281
1.13291
0.876344
1.03206
1
1.08007
1
0.862932
1
1
1.06719
0.81659
1
1.00064
1.07675
1.0466
1
1.1284
0.958031
1
0.965059
0.871189
1.02958
1.03745
1.0824
1.02868
0.813954
1.15784
1.02039
1.03125
0.848679
0.938832
1
1.08076
0.937935
0.944514
0.977565
0.933691
1
0.820909
1.08172
0.94604
1
1.03337
0.883704
1
0.989947
1.07081
1.08716
1.05615
0.939766
0.913034
0.934642
1.05834
1.05426
1
0.92466
1.04928
1.01538
0.953892
0.876245
1
0.879262
1.03068
1
1.04863
1
0.898449
0.995592
1
1.08543
1.04187
1
1.0336
1
0.9414
1.14676
1.04661
1.08727
1
0.821821
1
1.05444
1.32248
1.03152
1
1.04908
1.14805
1.05445
1.09024
1.08902
0.864025
0.934383
1.09029
1
1.2227
0.891216
1
0.913591
1.09633
1.01934
1.03348
1.18918
0.816471
0.999909
0.926895
1
1.09283
1.15462
1.05242
1.05528
0.95135
1
1.06025
1
0.887831
1
1.00089
1.05783
0.907415
0.999991
1.05485
1.09512
1.1508
1
1.12539
1.31436
1
1.0143
0.882019
1.05845
0.898404
1.04465
1.20041
1
1
0.961687
0.963186
1.11295
1.07975
1.14492
0.965888
0.912156
1.12783
1.01957
1
0.935989
0.914272
1.15722
1
0.896293
0.885754
0.816494
1.04616
1.07084
1
1
0.923476
0.997839
1.11533
1.01349
1.08875
1.08283
1.05695
0.81389
0.999979
1.14297
1
1.20039
0.976628
0.944163
1
0.933929
1.28974
1.06986
1
0.935623
0.959561
0.802296
1.1258
1.07389
1.09333
1.03794
1.0204
0.944314
1.03642
1
0.931577
1.0867
1.08086
1.1272
1.09095
1.07715
1.09555
1
0.946024
1.07157
1.06572
1
0.950664
1.02188
1.04419
0.999999
1.00696
1.1059
0.823411
1.03631
1.0375
1
1.03788
1.10044
1
1.109
1.00962
0.935641
0.928449
1.0377
1
0.930216
0.936772
1.04647
1.05705
0.972873
1.06699
1.1111
1.02349
1.02695
1
1.22438
0.937438
1.02909
1.0218
0.993794
1.05007
1.11803
1.27819
1
1.12011
1.1333
1.08537
1
1.07953
1.08907
0.928395
1.07507
1
1.07067
1.09466
1.03893
1
1.12118
0.993747
1.08862
1.09876
1.05088
1.09467
0.826093
1.06146
1.01525
1
1
1.1762
1.14806
1.10571
0.940298
1.08869
0.93449
0.872275
1.01533
0.968393
0.995391
0.906036
0.911711
1.05431
1.07564
1.10872
0.933706
0.924499
0.930243
1.10289
0.989998
1.02219
1.08773
1.11131
1
0.955894
1.0289
1.04956
1
1.00107
0.941319
1.06207
0.993692
1
1.11228
1.01321
1.094
1
1.03627
1.00236
0.938194
0.8148
0.990793
1
0.865622
1.05661
1.09857
1.04043
0.819207
1.03586
1.18164
1.07042
1.11502
0.932141
1.27407
1.02532
0.900155
1.08087
0.867847
1
1.09272
0.999979
1.02012
1.28491
1.02562
1
1
0.933454
1.04615
1.105
1
0.901094
1.09277
1.08453
1.08948
0.994014
0.933943
1.08559
0.993043
1.07997
1.09066
1
0.938142
1.02779
1.06995
1.23886
1
1
1.01803
1.01081
1
1.18489
1.08371
1
1.02529
1.18421
1
1
0.988546
0.89972
0.932323
0.941541
0.91823
0.931991
1.0167
1.00006
1
1.02097
1.10633
1
1.04837
0.921059
1.09415
1.01989
1
0.833851
1.06261
0.930416
0.986564
0.78377
1.11127
1.09222
0.983499
1.03896
1.02705
0.929864
0.902178
1.00507
1
1.06245
1.05459
1.07139
1.00001
0.930303
0.928908
0.897911
0.930525
1
1.01967
1
1.09706
1.14479
0.78061
0.930631
0.930553
0.926885
1
0.935288
1
1.10374
0.834994
0.983861
0.932894
1.08296
0.931964
1
1.03631
1.32094
1
0.987196
0.935307
0.871734
0.934861
1.18421
1.17356
1
1.0849
0.935
1.0232
1
0.92143
1
0.994982
0.938752
1.02078
1.08257
1
0.774634
0.931003
0.936373
1.08311
1
1
1
1.01097
1.05623
1.06241
1.06467
1
1.13859
1.1812
1.04755
1.04098
0.812259
0.866419
1.13812
1.05732
1
1
0.901965
0.907805
0.998562
1
0.935483
1
0.987921
1
1.0821
0.998015
0.962075
0.912166
0.894773
0.771465
1.00008
1
1
0.978423
1
0.93554
1.05877
1.0586
1
0.955586
1.01081
1
1
0.939072
1.10908
0.937313
1.04969
1.05947
0.788835
0.929283
1.10659
0.895439
0.949573
1
1.27721
1
1.06353
1.05185
1.02091
1
1.33153
0.867118
1.00058
1.06915
1
1.05225
1.14193
0.990365
1.00001
1.07656
1
0.942556
1
1
1.06275
1.00961
0.912699
1.12042
1
1.03914
0.908376
1
0.90464
1.09081
1
1
1.00001
1.0294
0.769242
1.22707
1
1.08281
0.938534
1.048
1
1.17321
0.932349
0.999999
1.05756
0.941637
1
1.02277
0.880045
1.09153
1.03531
1
1.09052
0.999878
0.918625
1.06126
0.936292
1.12188
0.940728
0.902187
1.00865
0.888469
1.04163
1.03986
1
1
1.23088
1.31044
1.06693
1
1.02063
0.998244
1.14014
0.947183
1
1.00001
0.926285
1
0.955403
0.900535
1.12334
1
1.09894
1.07504
1
1.05793
1
0.937594
1.05003
1
1.03892
0.928321
1.08041
0.983938
1
1.09435
1.0267
1.01879
0.927051
0.8905
0.999878
1
1.02288
1.09698
1.09619
1.19528
1
1.05379
1
1.04371
1.1054
1.335
1
0.851348
1
1.08827
1
0.946178
0.982515
1.05644
1.02897
1
1.11144
0.818671
0.975806
1
1.11082
1.17139
1
1.0427
0.923734
1
1
1.00646
1.09741
1.06101
1.04521
1
1
1.09959
0.995905
1.04814
1.02031
1
1
1.04954
1
0.921592
1.18393
1.16151
1
0.999965
0.924133
1.1168
1
1.10395
1
1
1.11568
1.11198
0.933843
0.926022
0.995511
0.862263
1.1172
0.934442
1
1.04852
1.00538
1
1.0462
1
1.10935
1.12252
1.20871
1.05244
0.995448
1.04964
0.996566
1
0.912454
0.935307
0.772327
1
1.16476
1.18737
0.916109
1
0.961347
1
0.793897
1.02762
1.01487
1.05766
1.11533
1.14276
0.999675
0.847768
0.935644
1
1.05075
1
0.99199
1.12738
1
1
1.1078
0.916479
1
1.17377
1
0.918644
1.05503
1.01783
1
0.941546
1.11306
1.10591
1.07303
1.12125
0.94278
1.06737
1
0.881904
0.920972
1.04881
0.901322
1
1.05316
0.94557
1.08584
1
0.931327
1.13247
1.01408
1.05413
1.00281
1.03767
0.933261
0.812779
0.818378
1
1.05874
0.940198
1.05853
1.03066
1.12694
1.32019
1.0793
1
0.959139
1.10894
0.823789
1
1.10086
1.01019
1.01585
0.95386
1.07111
0.913883
0.935254
1.02721
0.970842
1.05851
1.01303
1
1.02072
1.12961
1
1.33077
1
1.06486
1
1
1
1
0.997822
1.05741
1.15827
1.07665
1
1.00756
1.05104
1.03327
1
1
1.08064
1.00965
1.13205
1
0.934146
1.04173
0.996885
1.061
1
1.0453
1
1.00886
1.02713
1
1.05513
1
1.08836
0.926878
1.12962
0.82987
1
1.14787
0.999962
0.924655
1.00704
1.06003
1.0223
1.00001
0.915023
0.989433
1.13583
0.80631
0.928753
0.925158
0.916434
1
1
1.06385
0.863988
1.02917
1.00101
1
1.10192
1.10407
1.02089
1.12605
0.919079
0.862625
1
1.21844
0.91614
0.918332
0.990697
1.11957
1.11516
1.00055
1
1
1
1.11735
1
1.06332
1.01566
1.05742
0.873709
1
1
1
1.12187
1.31061
1.11057
1
1
1.10953
1.02279
1
1.2437
0.867487
1
1.00295
0.923907
1.05443
1.06524
0.998517
1.06713
1.12426
1
1.31512
0.879811
1.0863
1
0.931544
1
0.94114
1.12334
0.897851
0.941605
1.13214
1.09452
1.00016
1
0.992009
0.887548
0.992346
1.00699
1
0.906261
0.994385
1
1.18673
0.975194
0.867699
1.12619
1.06675
0.929022
0.865761
1.20018
0.89481
1
1.06611
1
1.08597
1.0886
1
1
1
1.00773
0.913158
0.861542
1.18887
1
1.06951
0.922163
0.992152
0.889647
1.14191
1
0.917891
0.942057
1.13526
0.845951
1.04253
0.981532
0.996471
1.11429
0.91404
1.00268
0.885813
1.00171
1.00131
1
1.01942
0.941765
0.890531
0.874993
1.13162
0.868272
1
1
1.13474
1.03461
0.883494
0.939962
1.05431
1.12723
1
0.980725
1.14942
0.921956
0.981379
1.01021
1.13828
1
0.892094
1.10759
0.99732
0.939663
0.906418
1.13649
1.06884
1.24516
1
1
1.12354
1
1
1.05512
1
1.11757
1.10107
0.9259
1
0.924229
1
0.930019
0.864543
1
0.92916
0.905368
0.977413
1.01583
0.94211
1.10537
1.01163
1.14436
0.972519
1.07215
1.05897
1
1.16434
0.918445
1
1.05861
1
1.16722
1.00001
0.978319
1.00984
1.05468
0.934818
1.05237
0.885913
0.979273
0.930339
1.02936
1
0.992673
1
0.975135
0.860232
1
1
1
0.876006
1
0.973184
0.896053
0.987291
1.08169
1.19657
0.930081
0.97406
1
1.10255
1.07146
0.901638
1
1.15467
1.09969
1
1
1
1
1
1.0223
1
1
0.932742
1
0.847034
1
1
0.935869
1.01242
1.06601
1
1.07466
1
1
1
1.10939
1
0.825665
1
1.24567
1.21987
1
0.919055
1.16358
1.01311
1.04401
1
1.101
0.944981
1.06923
1.09112
0.91759
1
1.06842
1
1
1
1.03805
1.07375
1
1.07067
0.976596
1.0964
1
1.21205
1.04982
1
1
0.994275
1.07392
0.939722
1.18003
1
1.21149
1
1
0.951238
0.99999
0.835514
1.05771
1
1
0.869208
1
0.91756
0.937099
0.94488
0.905846
0.952959
0.936812
1.1271
1.04564
1.09941
1.02565
0.834922
0.952329
0.841247
1.05806
1
1.09427
0.999952
1.00015
1
1
0.94196
0.999999
1.00008
0.904015
1.05025
0.92768
1
1
1.06935
0.96467
0.86718
1.09197
1.17908
1
0.982598
1.29965
0.942556
1.00044
0.943107
0.942096
0.949761
0.93293
0.988583
0.997301
1.09496
1.15105
0.974086
0.917988
1.07764
0.893667
0.876362
0.919696
1
1.12746
0.923079
1.04143
1
0.837859
1.16042
1.34019
0.99999
1.06098
1.00012
0.996523
0.812976
0.944047
0.910757
0.91526
0.990852
1.0031
1
1
1.05999
1.15711
1.17638
0.991694
1.07118
0.999971
1
1.15935
1
1.27297
1.08955
1
1.08383
0.929217
1
1.25591
1.01361
1.09299
0.904658
1.0902
1
1
1.0263
1.08965
1.00023
1.15238
1.05168
1.1923
1.03107
1.1025
1.06229
1.17346
0.996497
1.13435
1.09839
1
1.14295
1
0.931653
1.11757
1.10233
1
1.07438
0.928462
1
0.944041
1.16565
1
1.14212
0.773572
1.20797
1.09823
0.790106
1
1.23307
1
1.14964
1
1.1067
1.07967
1.14567
1.09037
1.17392
1.09686
1
1.0078
1
0.782715
1.12181
1
1
0.972579
1.0457
1.08279
1
1
0.947099
1.03773
1
1.02684
1
0.997881
1
1.11298
1.09942
1.28188
1.00301
1.04729
1.16736
1.00163
1
1.00858
1
1.09883
0.978365
1.13978
1.00067
1.04206
1
1
1.0838
1
1.10283
0.887652
1
1
1.01881
1.13048
1.1435
1.16805
1.23286
1.18179
1.08785
1.10263
1.0845
1.05969
0.917806
0.860069
1.16163
0.96953
0.939697
1.0017
1.15239
1.01567
0.916975
1
1.11072
1
1.09722
1.03308
1.02483
1
1.0977
1
1.04916
1.15985
0.944112
1.10098
1.13724
1.00146
1
1.18281
1.18432
1
1.14759
1.1586
1.11375
1.09521
1.09554
1.15634