/*--------------------------------*- C++ -*----------------------------------*\
  =========                 |
  \\      /  F ield         | OpenFOAM: The Open Source CFD Toolbox
   \\    /   O peration     | Website:  https://openfoam.org
    \\  /    A nd           | Version:  12
     \\/     M anipulation  |
\*---------------------------------------------------------------------------*/
FoamFile
{
    format      ascii;
    class       surfaceScalarField;
    location    "1.2";
    object      phi;
}
// * * * * * * * * * * * * * * * * * * * * * * * * * * * * * * * * * * * * * //

dimensions      [1 0 -1 0 0 0 0];

internalField   nonuniform List<scalar> 
69079
(
-0.000209362
0.000121407
8.78452e-05
0.000166001
-3.55212e-17
-0.000166001
-0.000179374
0.000179374
0.000167917
-1.91521e-06
-0.000176703
-2.67121e-06
-0.000176703
9.86577e-05
-0.000190916
9.29742e-05
1.88672e-06
0.000142309
-0.000145113
0.000169597
-0.000169597
-1.42844e-17
0.00016874
8.56803e-07
-0.000131433
-7.84032e-05
-0.000147587
0.000158168
-1.04153e-05
-0.000166388
0.000162809
3.57841e-06
-0.000165548
-8.40003e-07
4.5797e-06
-0.000146503
0.000141924
0.000168773
-3.36001e-08
0.000167933
8.40003e-07
-0.000168572
0.000166354
2.21761e-06
-0.000166724
-1.84801e-06
0.000168454
-0.000167513
-9.40804e-07
0.000167144
1.31041e-06
0.000170117
-0.00017257
2.45281e-06
-0.00018139
1.74049e-05
0.000163985
0.000197297
-0.000129809
-6.70719e-05
0.000165955
-2.76585e-05
-0.000138036
-0.000167933
-1.66321e-06
0.0001679
3.36001e-08
3.86402e-07
-1.68001e-08
0.000146841
-0.000146298
0.000157172
-0.000164154
7.02596e-06
0.000159416
-0.000172755
1.33393e-05
0.000186061
-2.66449e-05
0.000166203
9.40804e-07
-5.20802e-07
-0.000167833
3.10801e-05
0.000136753
0.000165934
-0.000165934
1.65341e-18
3.86402e-07
-8.65072e-06
0.000159596
-0.000148314
-1.48681e-05
-0.000166522
0.000142637
2.29904e-05
-0.000166835
-0.000168117
2.05849e-05
0.000164775
-0.000164775
-2.51264e-17
-7.98003e-06
-0.000135983
0.00016515
-2.91201e-05
0.000164506
1.84801e-06
-1.42801e-06
-9.71884e-05
0.000185607
-8.84187e-05
0.000161432
-0.000161432
1.74285e-17
0.00018512
-2.36881e-05
0.000156879
2.82409e-05
0.000184129
-2.72497e-05
0.000159634
-4.73762e-06
-0.000154897
-0.000133348
0.00016075
-2.6871e-05
-0.000175846
0.00018013
-4.28392e-06
-0.00016564
7.08859e-05
9.40023e-05
0.000160222
-0.000160222
1.48536e-17
0.000183541
-2.33185e-05
0.000160969
-1.44132e-07
-0.000160901
-8.5815e-05
-6.14422e-05
0.000147614
9.95068e-05
6.67467e-05
-0.000166253
0.000180139
-9.25134e-05
-8.75629e-05
-1.87657e-05
-0.000149067
6.53019e-05
-0.00016249
-0.000139852
0.000144432
0.000161969
8.40003e-07
-2.80561e-06
0.00019604
-0.00019604
-1.9148e-05
-0.000146434
-0.000148627
1.24311e-05
-7.14609e-05
0.000170469
0.000154342
2.91985e-05
0.000182247
-2.79049e-05
0.000165034
-2.03423e-05
-0.000144866
0.000169966
-0.000166472
-3.49441e-06
0.000126093
7.13239e-05
0.000148949
-0.0001532
4.25042e-06
-3.59521e-06
0.000152545
-0.000160659
1.47841e-05
0.000145875
0.000159416
2.66449e-05
-2.01601e-06
0.000152645
-0.000181592
2.89465e-05
0.00013603
2.36041e-05
0.000170252
-1.76065e-05
-9.54351e-05
-7.24291e-05
0.000167953
-0.000156056
0.000158055
-1.99921e-06
0.000151385
-0.000171461
2.00761e-05
0.000152629
-1.24321e-06
-0.00012662
-6.02318e-05
-8.26563e-06
-0.000133477
0.000141742
-9.2182e-05
0.000181222
-8.90403e-05
0.000187398
-4.67801e-05
-0.000168958
1.29025e-05
0.000156879
2.72497e-05
9.04684e-05
6.85947e-05
-0.000159063
-3.34321e-06
-0.000154426
-1.45321e-05
4.08242e-07
-0.000138258
0.00013785
0.000165445
-4.50294e-06
8.85531e-05
7.81707e-05
-0.000166724
7.07787e-05
-0.000162961
-0.000155787
1.36081e-06
0.000167866
-0.000167866
0.000168878
-1.16153e-05
2.64265e-05
-0.00018218
0.000155753
6.30538e-05
-0.000158758
-0.00015571
-1.2564e-05
0.00014857
-0.000173226
2.46538e-05
0.000151909
-3.34132e-06
8.73581e-06
0.000136158
-0.000144302
-7.62723e-06
0.000142557
-0.000134062
0.000154342
2.79049e-05
-2.72497e-05
-0.000136892
0.0001373
9.79444e-06
-0.00015782
0.000148025
-0.000162395
4.85341e-05
-9.85188e-06
0.000148321
-0.000137735
6.12128e-05
-0.000146411
-0.000150222
-5.47671e-06
0.000155689
0.000149262
-0.000152957
3.79089e-06
-0.000161197
0.000138987
2.22097e-05
-5.77922e-06
-0.000170924
0.000148378
2.18737e-05
-6.88803e-06
0.000155266
-0.00017336
0.00017336
-0.000156311
6.10938e-06
-4.70906e-05
0.000146597
0.000183555
-0.000110057
-7.41991e-05
-0.000180636
7.36217e-05
0.000107015
0.000160037
-7.72803e-07
-0.000159265
0.000145642
-0.000170191
2.44832e-05
0.000150813
-5.16348e-06
0.000164338
-6.72267e-06
0.00015136
-0.000144434
0.000150932
9.10564e-06
0.000101708
-0.000161381
5.96738e-05
0.000147135
-0.000177577
3.04417e-05
0.000176165
-2.90305e-05
-2.10446e-06
0.000151814
-0.000101019
0.000190664
-8.96451e-05
-0.000125849
-2.73505e-05
0.000148734
-0.000171906
2.25739e-05
0.000149219
-1.29015e-06
0.000154371
-0.000165736
1.12735e-05
-0.000158777
3.29281e-05
-4.39342e-05
-0.000136702
0.000145421
-0.000175477
3.00553e-05
-2.60401e-05
-0.00015346
0.000146411
0.000111334
-0.0001196
-0.00013023
0.000139449
0.000178383
-0.000178383
0.000150529
4.03202e-07
-2.70481e-05
0.000155032
-0.000164684
9.47169e-06
-0.000154386
4.50893e-06
8.80734e-05
9.54988e-05
-0.000168236
2.66953e-05
0.000141541
0.000142868
-0.000173713
3.08449e-05
-0.00014942
0.000172957
-3.0089e-05
-0.000153218
-2.48685e-06
0.000129774
-5.97837e-05
-5.31722e-05
0.00015488
-1.77317e-05
0.000184436
0.000145421
3.07441e-05
-0.000148618
0.00014211
-3.00553e-05
0.000158575
-0.0001586
9.09052e-05
-0.000158441
6.75363e-05
0.000141171
-0.000172251
3.10802e-05
0.000171663
-3.04916e-05
-2.51161e-05
-0.000147454
0.000162622
3.36056e-07
-0.000162899
-2.84929e-05
-0.000153687
1.81147e-05
-0.000136915
0.000117362
-0.000101888
0.000163816
-6.11452e-05
-0.000150797
5.44322e-06
0.000145354
8.33535e-06
0.000156457
-0.000141215
0.000132049
0.000150881
0.000159253
-4.22655e-06
0.000139458
-0.000170957
3.14993e-05
-3.37686e-05
9.24004e-07
-0.0001469
0.000145976
0.000144111
8.51763e-06
-2.96017e-05
5.9941e-05
0.000105827
0.000144346
6.38402e-07
-0.000144985
1.49521e-06
0.000142851
1.13904e-05
0.000158576
-6.18746e-05
-7.89099e-05
0.000140785
-0.000187459
0.000112569
7.49892e-05
9.65164e-05
-0.000158391
4.87202e-07
0.000146732
-0.000147219
-0.000146782
0.000147269
0.000133718
-0.000140424
-0.000155216
0.000161415
-6.19922e-06
0.000139569
-0.000167892
2.83259e-05
0.000151436
-1.18592e-05
-1.3304e-05
-0.000129135
0.000142439
8.74107e-05
6.22946e-05
-0.000149705
0.000141171
3.17857e-05
-3.10801e-05
2.20249e-05
-0.000153855
0.00013183
-0.000147939
-7.42719e-06
0.000154798
4.49664e-06
0.000136899
-0.000169605
3.27068e-05
0.000168431
-3.15215e-05
9.81628e-05
-0.000156951
5.87885e-05
0.000148378
-0.000138584
0.000160475
-0.000165971
0.000147668
1.50848e-05
-5.20802e-07
0.000158576
4.28715e-05
-0.000144979
-0.00015283
-2.38561e-06
0.000160003
-5.63729e-06
-0.000102318
-4.79756e-05
0.000150177
0.000135283
-0.000167664
3.24347e-05
0.000170924
-2.23945e-05
-0.000173645
-3.48838e-05
0.000123409
-0.000106635
0.000139456
3.22066e-05
-3.15006e-05
-9.42423e-05
-8.08053e-05
0.000175736
0.000167127
-0.000164859
-2.26801e-06
-1.94713e-05
0.00016753
-0.000148059
0.00013658
-0.000164652
2.80879e-05
0.000149947
-1.32975e-05
0.000140088
-0.000140555
5.04037e-07
-6.09842e-06
-0.000155098
-0.000172217
2.64097e-05
0.000145808
-3.08953e-05
-0.000141322
-2.16385e-05
-0.000151721
-6.18242e-05
0.000152293
-0.00019058
0.000102245
8.83347e-05
-0.000159315
0.000137895
2.14201e-05
0.000139187
9.10498e-07
0.000152673
-0.00014484
-7.84079e-06
-0.000180836
0.000159197
-0.000155686
-1.008e-07
-0.0001532
0.000155703
-2.50321e-06
-9.32572e-05
-9.73228e-05
9.10228e-05
-0.000162893
7.18707e-05
-8.73603e-07
-0.000165598
-5.51042e-06
-0.000162725
0.000155506
-5.855e-07
-0.000160189
6.98883e-06
0.00013184
-0.000167167
3.46061e-05
-4.10079e-05
0.000147966
4.64495e-06
0.000133993
-0.000161751
2.77895e-05
-0.000163616
3.42721e-06
0.000148463
-1.44879e-05
0.000140264
1.16429e-05
-2.9343e-05
0.000159709
-0.000153271
-6.29071e-06
-1.12226e-05
0.000150297
-0.00013903
0.00016333
-0.00016333
-0.000205393
9.7701e-05
0.000107206
-8.27841e-05
0.000154291
-7.24325e-05
-0.000139822
-4.74713e-06
0.000144066
-0.000162164
-3.68791e-06
-9.28307e-05
-5.82118e-05
0.000152116
8.98972e-05
5.56418e-05
-0.000145539
0.000110003
-0.000123307
5.19122e-06
0.000156005
-0.000161197
0.000135081
3.33974e-05
0.000127191
-0.00016849
4.13428e-05
-3.25418e-05
-0.000172822
0.000153351
-0.000155031
0.000155031
0.000105656
6.2345e-05
0.000167379
-4.01763e-05
-2.73673e-05
-0.000153469
0.000136196
9.6634e-05
-0.000158712
6.20779e-05
-5.57503e-06
-0.000144986
0.000153069
-1.37978e-06
0.000148366
-0.000147111
0.000130547
-0.00015886
2.83692e-05
0.000146914
-1.63339e-05
0.000166993
-0.000168387
-0.000140482
0.000145673
-0.00010003
-8.70242e-05
-9.42701e-05
0.000156363
-6.1328e-05
-0.000156602
3.36827e-06
0.000156909
-0.000162713
5.75561e-06
-8.42523e-05
0.000171663
0.000163871
1.59134e-06
0.000163015
8.43396e-07
-0.000196572
8.86611e-05
0.000108031
4.73426e-05
0.000138265
0.00016262
3.23813e-07
9.5479e-05
-0.000139866
4.43699e-05
0.000161869
5.66162e-06
0.000143206
-4.77391e-05
5.41899e-05
0.000126078
-0.000166797
4.02598e-05
0.000160446
0.000166493
-4.07643e-05
0.000163242
-2.7389e-05
-0.000136656
-0.000148309
-3.99453e-06
0.00015229
-0.000183054
0.000106428
7.66251e-05
0.000138355
1.20276e-05
-2.91688e-05
-5.61122e-05
0.000154275
0.000169015
-0.000169022
-0.000140062
0.000140701
0.000146833
-0.000145337
-9.59705e-05
0.000164315
-6.61872e-05
-2.73841e-06
-0.000157921
0.000129896
-0.00016788
3.72953e-05
-0.000150848
0.000154594
-3.74641e-06
0.000168088
-3.9117e-05
-0.000158264
0.000159026
0.000157798
4.75216e-06
3.72961e-06
-0.000149487
0.000145757
-0.000135173
0.00013146
-0.00012761
-1.05781e-05
0.000138554
-0.000157181
6.33362e-06
-0.000142221
-4.85606e-05
0.000127949
-0.000155399
0.000177022
-1.80149e-05
0.000157487
-7.02761e-07
-0.000154325
-2.85601e-06
0.000158895
-0.000158895
0.000131357
-0.000168685
3.71672e-05
0.000167992
-3.70428e-05
0.000124335
-0.000151984
2.76556e-05
0.000142457
-1.80608e-05
-9.19636e-05
-9.109e-05
-0.000162356
6.1337e-05
-0.000152259
-2.06641e-06
8.63309e-05
9.32756e-05
0.000152675
6.58437e-06
0.000143633
5.69783e-06
-2.48916e-05
-0.000152746
0.000140113
1.26336e-05
0.000173645
-0.000166993
-0.000134216
0.000149
0.000144355
-0.000156842
1.23966e-05
0.000147286
-6.08162e-06
-0.000141205
0.000129702
-0.000167483
3.7836e-05
0.000166679
-3.69456e-05
-5.49362e-06
-0.000153821
-0.000149662
0.000156109
-5.82765e-06
9.40804e-07
-0.000151738
0.000175295
-3.22105e-05
-7.20891e-05
0.000160642
4.07853e-07
-0.000175166
2.86626e-05
-0.000137609
-1.54771e-05
0.000149117
-6.82083e-06
-0.000142297
0.00013764
2.9711e-05
0.000156005
-6.51003e-05
-2.92271e-05
-0.00015787
0.000143338
1.45321e-05
7.12298e-06
-0.000144621
-0.000201937
0.00011792
8.40171e-05
-0.000149437
4.95602e-06
0.000144481
-9.15268e-05
-0.00011041
5.56082e-06
0.000141793
-0.000147353
-0.00015026
6.95523e-06
0.000143305
-1.04328e-05
-0.000139827
-0.000156308
0.000145875
0.000128229
-0.000165899
3.76432e-05
-0.000150663
3.86402e-06
0.000146799
0.00015026
-6.43443e-06
-0.000143825
-5.12402e-06
0.000149504
-0.00014438
0.000145136
0.000165427
-3.71659e-05
0.000151889
-6.58563e-06
-0.000145304
0.000158886
-1.11285e-06
-0.000159852
-1.69009e-05
-0.000155921
-6.70323e-06
0.000151553
-0.00014485
8.76627e-05
5.83298e-05
-0.000145993
-0.000158356
5.5852e-05
-7.83862e-05
-8.7934e-05
-0.000166239
3.8685e-05
0.00013543
3.05502e-05
5.9338e-06
-0.000141174
-3.33547e-05
7.39203e-06
0.000139894
-0.00014144
1.05e-05
0.00013094
0.000126431
-0.000164708
3.82536e-05
-7.40315e-06
0.000165983
0.000150411
-5.94722e-06
-0.000144464
-0.000154546
-8.04616e-06
0.000164175
-3.77775e-05
-9.42098e-05
0.000155499
-6.1405e-05
0.000167009
-1.49521e-05
-0.000152057
0.000172529
-3.0916e-05
-0.000155939
0.00015211
3.86819e-06
0.000156384
-0.000156449
-0.000162272
9.60964e-06
0.000152662
1.39954e-06
0.000145817
-0.000147044
-8.56635e-05
0.000154258
0.00011679
-0.000144141
2.74225e-05
-2.1352e-05
0.000138283
1.4055e-05
0.000156459
-5.64482e-06
0.000149537
-0.000143893
-1.45489e-05
0.000129529
-0.00011498
0.000176871
-0.00010458
-7.22907e-05
3.30961e-06
-0.000149974
0.000146665
3.20881e-06
-0.000155468
0.000154342
-0.000154342
-0.000145371
0.000147219
-1.84801e-06
0.000151704
-0.000157354
5.62608e-06
-0.000134333
0.000135257
-6.56839e-06
0.000152003
-0.000145391
2.40241e-06
-0.000149873
0.000147471
7.65695e-05
9.10136e-05
-0.000167502
-1.66321e-06
0.000157366
-0.000152175
-1.94881e-06
0.000154124
-0.000152741
-6.46035e-08
0.000149017
-0.000146614
0.000137441
4.3781e-05
0.000124919
-0.000163351
3.84288e-05
-6.60579e-05
-7.39035e-05
0.000139961
0.000132119
3.5396e-05
-0.00017551
0.000109452
0.000150021
-5.33872e-05
-4.29851e-05
-3.68265e-05
-0.000184885
0.000105504
7.93803e-05
-8.69231e-05
0.000167377
-7.7142e-05
8.46505e-05
8.13661e-05
-0.000166017
-9.28036e-05
0.000158105
-0.00015278
0.00014527
7.50963e-06
-0.00015404
1.26e-06
-0.000149615
4.43157e-06
0.000145887
3.50104e-06
0.000161835
-0.000142145
-4.03202e-06
0.000146177
-0.000132586
0.000118037
0.000104702
-0.00013088
0.000137187
-0.000147528
5.20802e-07
0.000145405
-0.000145925
5.99764e-05
-0.000153639
-9.75748e-05
-8.73099e-05
-2.08359e-06
0.000147867
-0.000145592
-0.000156823
-7.9758e-06
-0.00018806
0.00010915
-3.81361e-06
-0.000158458
0.000156494
-0.00015721
-0.00013094
0.000157635
-0.000145466
0.00014414
-7.33315e-06
0.000152733
-0.000145343
-3.20377e-05
-0.000122993
9.49777e-05
-0.000187415
-4.50074e-05
0.000150663
-0.000148849
4.68398e-06
0.000144164
1.5495e-06
0.000112718
-0.000114254
6.66963e-06
-0.000151133
0.000144464
0.000130524
3.74509e-05
0.000147369
-2.77446e-06
-0.00014467
0.000149605
-8.06403e-07
-0.000148798
2.56888e-06
0.000144759
0.000146692
-0.000144242
-3.69087e-05
-0.000147219
-3.44401e-06
1.98988e-06
0.000144617
-0.000161768
0.000167211
-0.000147118
0.00014821
-1.092e-06
5.56082e-06
0.000143456
0.000143691
5.81282e-06
-0.000147572
4.53602e-07
-8.16847e-05
-6.33002e-05
0.000141153
-0.000176471
3.82134e-05
0.00011459
-0.000113027
-3.77319e-06
0.000120903
-0.000162677
4.17665e-05
0.000157483
-0.000151834
-5.57145e-06
-2.62526e-06
0.000158215
0.000159979
-3.90793e-05
5.46749e-05
-0.000147654
0.00011793
-0.000139615
2.19183e-05
-2.3225e-05
0.000141411
-0.000153149
0.00014107
1.20792e-05
0.00013976
-1.2348e-05
-0.000152511
0.000158257
-8.00859e-05
-5.34111e-05
0.000127033
-0.000152477
0.000146967
-3.99271e-06
-0.000141194
-0.000102705
-9.34041e-05
-0.00011959
1.33089e-06
0.000118558
-0.00014341
0.000139839
-7.67909e-07
0.000149068
-0.000148249
-1.10134e-05
-0.000135207
0.000146283
-1.45657e-06
0.000148005
-0.000147282
0.000178467
-8.72427e-05
-9.12244e-05
7.62723e-06
0.00014149
0.0001282
3.84281e-05
-0.000156172
1.08519e-05
0.00014538
-0.000146372
5.9683e-06
-3.78041e-05
0.000119996
-0.00015935
3.93553e-05
-4.46641e-05
0.000115869
-0.000137285
2.14975e-05
-0.000143665
0.000132145
-0.000142767
-6.66963e-06
-2.40544e-05
0.000140118
6.69686e-06
6.71835e-05
0.000109688
0.000159903
-0.000156593
0.000151033
-1.42801e-06
-0.00015118
6.78391e-05
0.000149319
-5.02322e-06
-0.000144296
-0.000140758
0.000171508
0.000138869
-0.000116844
1.41121e-06
-0.000141473
-1.82704e-06
-0.000145386
0.000147283
-4.04882e-06
0.000158643
8.61507e-05
8.06235e-05
-0.000166774
0.000102092
8.82719e-05
-0.000190379
-0.000128969
-8.15896e-06
0.000135247
4.48211e-06
-0.000151117
0.000146729
9.76084e-06
0.000153569
-0.000153721
0.000151299
-0.000146786
0.000151873
-0.000153956
2.08321e-06
4.14642e-06
0.000146907
-5.84169e-06
0.000151935
-0.000145943
0.000152504
-0.000148608
-0.000160558
-9.24582e-05
0.00016628
-7.19349e-05
-9.0255e-05
0.000166103
-7.5549e-05
-0.000180382
4.94426e-05
0.000145444
-0.000148295
5.93871e-06
-0.000151845
0.00014596
-1.68841e-05
0.000162406
-0.000145522
0.000166069
-0.000103774
0.000126381
3.91025e-05
-0.000144397
4.48562e-06
0.000139911
0.000106722
-0.000178179
7.13304e-05
0.000150338
7.37649e-06
-0.000152175
-0.00017929
0.000104211
7.50795e-05
-3.82781e-05
0.000144061
-0.000140331
-0.000152158
-1.69681e-06
-0.000143034
0.000147594
-4.55954e-06
3.56497e-06
-0.000146599
-0.000140267
0.000125641
1.39028e-05
-0.000152019
0.000152173
-1.54561e-07
-0.000149843
-2.17561e-06
0.000117981
-0.000160126
4.21983e-05
-0.000151597
-3.41488e-07
0.000157428
-3.94274e-05
-0.000161973
0.000101191
-0.000154191
0.000149603
4.5881e-06
-0.000154796
6.04802e-07
-0.000149798
0.00014988
-8.23203e-08
-0.000150193
3.94802e-07
-0.000153855
-0.000152225
0.000147303
4.92242e-06
-0.000152897
1.1508e-05
0.000141389
0.00014843
-0.000149047
-0.000119464
-2.85085e-08
-0.000152696
5.79602e-06
0.0001469
-0.000143573
-3.91442e-06
0.000147488
0.000118575
3.29281e-06
0.000141994
-0.000145287
-0.000147353
-3.19201e-06
0.000150545
-0.000149403
3.14161e-06
0.000146261
-8.98178e-05
-0.000116055
5.52703e-06
0.000156291
-6.52683e-05
0.000151286
6.17781e-06
0.000143657
2.23441e-06
-0.000145892
1.176e-06
0.000147404
-0.00014858
-0.000138042
0.000154342
-6.44451e-05
0.000151906
-7.19043e-06
-0.000144716
-0.000150865
2.21761e-06
0.000148647
0.000124662
3.95328e-05
-0.000148699
7.39203e-07
0.00014796
0.000141994
2.45281e-06
-0.000144447
-3.86951e-05
0.00015394
-2.63228e-06
-0.000147546
-3.79518e-06
0.000151432
9.12244e-06
5.23263e-06
-0.000152744
-0.000145588
0.000150857
5.34828e-06
-0.00015101
-0.000156717
0.000163904
0.000150562
-4.92242e-06
-0.00014564
0.000116738
-0.000156889
4.024e-05
-4.4937e-05
0.000159692
-0.000159653
-0.000153954
0.000145014
2.60102e-06
-0.000148781
2.83921e-06
0.000145942
-8.88555e-05
-9.92044e-05
-0.000146926
0.00012654
0.000149621
-0.000148697
-9.24004e-07
-0.000156707
8.39178e-06
-0.000155927
6.17166e-05
-0.000144783
-5.09042e-06
-0.000152538
0.00014853
5.3256e-06
0.000140062
-0.000145388
-0.000151133
5.59442e-06
0.000145539
0.000165302
-0.000180624
0.000157954
-0.000150327
0.000145421
-0.000152007
-0.000160928
0.000159588
-5.15236e-07
0.000150194
-5.92021e-06
-0.000144342
0.000147437
-0.000154141
0.000150125
0.000152597
-0.000152483
-0.000151422
0.000152039
-6.16562e-07
-0.000149877
-1.54561e-06
-0.000154243
0.000152059
2.18401e-06
-0.000152847
-1.39609e-06
-0.000154215
0.000152069
2.14536e-06
-0.00015286
-1.35408e-06
-0.000154184
0.000152084
2.09947e-06
-0.000152869
-1.31511e-06
0.000174396
-0.00011337
-5.51641e-06
-0.000142596
0.000148365
-0.000154435
0.000152699
1.63438e-06
-0.000166484
9.16846e-05
7.46403e-05
-0.000152886
-1.68503e-06
-0.000164709
0.000152988
1.16873e-05
0.000151301
0.000163386
-0.000141844
-2.15603e-05
0.000119418
1.85347e-05
-0.000137866
-0.00015385
-1.09045e-05
0.000152377
-0.000164733
0.000152947
1.17903e-05
0.000155686
6.72003e-06
-0.000153848
-1.09227e-05
-0.000177286
4.03941e-05
-0.000143387
-2.42878e-06
0.000145941
-0.000164787
0.000153
1.17741e-05
-8.85363e-05
-6.84267e-05
0.000156963
-0.00015387
-1.09394e-05
0.000135019
-0.000139072
4.04154e-06
5.61122e-06
-0.000144598
0.000138987
-0.000164729
0.000153044
1.16599e-05
-0.00014648
-7.56003e-06
-0.00015388
-1.08688e-05
1.37761e-06
-0.000147857
-0.000129853
-1.13821e-05
6.97539e-05
-0.00015829
-0.000145437
-6.41115e-06
0.000134633
-1.51972e-05
-0.000144766
0.000151453
-6.68643e-06
-0.000147757
2.99041e-06
-0.000164622
0.000153272
1.13631e-05
-0.000154006
-1.06096e-05
-6.23282e-06
0.000146614
-0.000140381
-3.54179e-06
0.000147603
-0.000144184
-0.000163784
0.000152769
1.10126e-05
-0.000154327
-9.45647e-06
0.00014881
-0.000152696
3.6913e-06
-3.42721e-06
0.000162322
-0.000160558
-0.000164156
0.000153636
1.05411e-05
0.000117367
-0.000158762
4.14878e-05
-0.000154439
-9.71157e-06
4.09922e-06
-0.000144447
0.000140348
0.000132555
1.88818e-05
-0.000163946
0.00015356
1.03488e-05
0.000145798
-9.5297e-06
-0.000135738
-0.000154439
-9.52223e-06
0.000155998
-3.85165e-05
-3.01264e-05
3.49441e-06
-0.000144413
0.000140919
0.000146799
-0.000150797
3.99842e-06
-1.68001e-08
0.000146816
-0.000163488
0.000153291
1.02362e-05
-0.00015419
-9.29251e-06
-0.000139388
0.00012143
2.05742e-05
4.97282e-06
-0.000144665
0.000139693
5.99762e-06
-0.000145808
0.00013981
-0.00016231
0.000152376
9.98198e-06
2.6401e-06
-0.000142417
0.000139922
-0.000154042
-8.24943e-06
-8.70491e-06
0.000146752
-0.000151721
-4.58642e-06
-0.000161702
0.000152283
9.44272e-06
-0.000153922
-7.83804e-06
-0.000148781
0.000149655
-8.73603e-07
-0.000148496
0.000151301
-2.80561e-06
-5.71202e-07
7.38207e-05
-0.000161089
-4.20002e-07
-0.000148076
-0.00014347
0.000149374
0.00015378
-0.000152808
-1.37964e-06
-8.17218e-05
-8.24708e-05
0.000149067
-0.00016198
0.000153334
8.70669e-06
9.24004e-07
0.000145489
-0.000146413
-0.000154102
-7.8952e-06
-4.87202e-07
-0.000145892
0.000146379
-5.77922e-06
0.000144917
-0.000139138
7.33387e-06
-0.000150675
-0.000144241
0.000151627
-0.000161766
0.000153371
8.3561e-06
-0.00015424
-7.5314e-06
-0.000149359
3.57429e-06
0.000145409
-0.000143616
-7.279e-06
0.000151089
-0.000160363
0.000152288
8.09054e-06
-0.000149389
-0.000154007
-6.37475e-06
-0.000154107
0.00015661
-2.50321e-06
-1.80342e-06
-0.000154306
-0.000160768
0.00015308
7.47916e-06
-0.000154066
-6.73608e-06
-0.00014984
2.94001e-06
-4.80659e-06
-0.000159808
0.000152717
7.14096e-06
-0.000153523
-6.28457e-06
-6.68528e-05
-9.17944e-05
8.40003e-08
0.000146278
-0.000146362
-0.000147471
0.000147555
0.000146009
-0.000144598
-0.000160087
0.000153298
6.88126e-06
-0.000150068
3.50458e-06
0.000146618
-0.000153871
-6.01528e-06
1.24064e-05
0.000127577
-0.000145212
-0.000170383
0.000168384
-0.000151718
4.90717e-06
0.000146868
-1.0199e-05
-0.000158896
0.000152483
6.20483e-06
-0.000153806
-5.51212e-06
0.000147474
6.04762e-06
-0.000158829
0.000153112
6.06789e-06
-0.000153341
-5.06061e-06
4.6484e-07
-0.000149361
0.000136999
-0.00015238
0.000154739
-2.35873e-06
-0.000101763
-5.50423e-05
0.000156764
-1.23661e-05
0.000114377
-0.000155377
4.10429e-05
7.57683e-06
-0.000160474
0.000130484
-2.81117e-06
-0.000128158
-4.44367e-05
-0.000143149
7.6088e-06
0.000135507
-7.50138e-06
-0.000155232
-8.90153e-05
-8.29958e-05
0.000172037
-0.000151127
0.000151995
-8.68563e-07
-0.000153223
8.43363e-07
-1.24656e-06
0.000118898
4.11193e-05
0.00014648
-0.000145556
-0.000152308
0.000153195
-8.87043e-07
0.000145993
0.000123296
4.01522e-06
-0.000127311
-1.34401e-07
-4.04258e-05
0.000133544
-1.0248e-05
0.000153879
8.60163e-07
-9.17284e-07
-1.99629e-06
0.000144241
-5.31131e-06
-0.000138754
0.000153939
-2.06641e-06
-2.04333e-06
0.000154226
8.01065e-05
9.5351e-05
-0.000177306
0.000104662
7.2974e-05
-0.000111536
-6.88467e-05
-1.90009e-05
0.00015283
-6.19922e-06
-0.000146026
-0.000156308
-0.000170611
9.16418e-05
-0.00014354
0.000144716
0.000143127
-0.000145144
4.53602e-06
-0.000145875
-4.60841e-06
0.000150469
0.000169247
-6.7609e-05
-0.000146157
-3.67402e-06
0.000149771
7.93699e-06
-0.000144478
0.000136837
-0.000146967
1.59601e-06
-0.000155769
6.09753e-05
0.000154048
-0.000130724
-7.44143e-06
0.000150705
-0.000143226
-1.03656e-05
-0.000142011
0.000152377
9.45172e-05
-0.000161348
6.68307e-05
0.000141641
-0.000147874
0.000151251
-0.000133846
-0.000197149
0.000116542
8.06067e-05
-0.000146733
-4.12262e-06
0.000150779
3.68159e-06
-0.000149486
-0.000173592
8.42299e-05
0.000129347
8.88924e-06
-0.000137736
0.000141894
-1.22415e-05
-7.44243e-06
2.72208e-06
-0.000157417
1.07352e-05
5.52243e-06
-0.000151616
0.00014799
-0.000151362
3.45961e-06
0.000142246
-0.000147891
4.65141e-05
-0.000148574
0.000144296
5.24162e-06
-0.000155098
0.000151369
3.72961e-06
0.000154444
-0.000159027
-0.000152528
-1.42801e-06
4.11934e-06
-0.000150833
-8.25262e-05
0.000126505
-4.41442e-05
2.87529e-06
-0.000149084
0.000145988
0.000120708
1.71865e-05
-0.000137895
0.000144578
-0.000146903
0.000111293
-0.000154325
4.31115e-05
0.00013519
-1.44817e-05
-7.79523e-06
-0.000142458
0.00014445
-0.00014516
0.00013892
-0.000149285
0.000151181
-3.98132e-05
-1.27697e-05
-0.000127579
0.000140292
-0.000146396
0.000146917
-8.73603e-05
0.000170521
-8.31603e-05
-0.000162964
0.000154729
8.17309e-06
-1.02093e-05
0.0001423
-0.000147437
-8.95275e-05
-8.97627e-05
0.000128502
-0.000141432
-1.35226e-05
0.00014228
0.000159226
-0.000104132
-9.08058e-05
0.000164587
-7.36892e-05
0.000146261
-0.000153806
-2.40392e-06
0.000155364
-9.74669e-06
-0.000125847
4.35131e-05
-2.08307e-06
0.000137094
6.21602e-07
0.000153721
-0.000158391
7.40883e-06
0.000149302
-0.000156711
-0.0001614
0.000154228
7.18485e-06
-8.99047e-06
-0.000148504
-1.37257e-06
2.7552e-06
0.000138433
-0.000141188
-0.000152477
0.000129979
2.00341e-05
-0.000160953
0.000154425
6.61224e-06
-0.000176933
3.70811e-05
0.000145186
-0.000142431
-8.5127e-06
-3.00811e-05
0.000147443
1.23692e-06
2.0921e-06
-0.000148392
0.000146311
0.000153166
-6.55035e-05
-0.000147327
-2.25999e-06
-0.00014128
0.000142898
0.000132693
-2.93096e-06
0.000148509
7.40508e-06
-0.000143859
0.000135862
-0.000159326
0.000154079
5.33858e-06
-0.00014312
9.74404e-07
0.000142801
-6.99837e-06
0.000163582
-0.00010794
-0.00014312
-6.72003e-06
0.000142598
-0.000144941
0.000146398
2.15816e-06
0.0001532
-2.78881e-06
0.000107905
-0.000149108
4.12842e-05
6.22841e-06
0.000138115
-0.000144574
-0.00014863
0.000145006
0.000159627
-0.000151049
0.00014922
-4.12413e-05
4.8049e-06
-0.000143996
0.000138978
-6.42151e-06
0.000144059
-0.000138089
9.24266e-06
0.000134996
-0.000144184
-0.000136191
0.0001454
0.000183625
-0.000145371
-3.82537e-05
1.06008e-05
-0.000145337
0.000134737
-0.000147527
0.000150019
-6.68216e-07
0.000145069
-0.000134468
6.57723e-05
0.000117852
0.000148001
2.35219e-06
4.59635e-06
-0.000145681
0.00014057
5.72826e-06
-0.000144161
0.000139141
1.22808e-05
0.000136131
-0.000148412
1.34401e-06
0.000145875
-0.000148556
-0.000156257
0.000136731
-0.000143262
0.000150445
2.56856e-06
-4.55285e-06
0.000147334
-0.000142651
0.000178449
-0.000173681
0.000148916
-0.000154393
1.91521e-06
2.35201e-07
0.000151906
-3.52801e-07
4.96355e-06
-0.000147249
0.000140648
-0.000147759
-3.57634e-06
0.000127779
-0.00014118
-0.000145976
0.000139155
0.00011615
4.13046e-05
-0.00014989
0.000148899
9.91204e-07
0.000155488
-0.000151798
-3.72681e-06
0.000152325
3.12796e-06
-4.06649e-05
0.00014821
-2.80561e-06
0.000155192
-0.000151897
-3.18913e-06
-0.000154517
0.000152026
2.46646e-06
0.000152624
2.68296e-06
1.33225e-05
0.000140566
-0.000153889
-0.00012842
0.000141742
1.54897e-05
-0.000143909
-0.000141809
0.000135728
-0.000151804
-2.81667e-06
-1.56617e-06
0.000116156
-0.000134081
1.79257e-05
-5.67697e-07
0.000149257
0.000144481
-0.000138728
0.000143477
0.000122758
-6.60243e-06
-0.000145685
-0.000106557
0.000136237
-2.97089e-05
0.000158935
-7.39053e-06
0.000145976
-0.000133695
0.000106264
-0.000147602
4.13808e-05
0.000147797
-4.14862e-05
0.00011562
-0.00012641
0.000160765
-9.09117e-06
3.49105e-06
-0.000137111
0.000143416
-7.1253e-06
-0.000142517
0.000139522
-0.000143943
5.49006e-06
-0.000142601
-0.000148471
-1.72201e-06
1.13232e-06
0.000148109
-0.00013408
0.000143733
6.40082e-06
0.000136635
-0.000143036
0.000142532
6.86294e-06
-0.0001509
-0.000131339
-8.73143e-06
-4.6354e-06
-0.000154674
-0.000152301
7.93043e-07
9.24004e-07
0.000144632
-0.000145556
-0.000148094
-5.12906e-06
0.000156123
-0.000156123
5.1005e-06
-9.01828e-05
-0.000106966
-0.00014843
-1.41289e-06
-0.000163699
-8.36643e-07
-7.58055e-05
-0.000101227
7.14045e-06
-0.000153009
-0.000134903
-0.000139121
-2.44575e-06
0.000127991
-0.000140171
1.49449e-05
-0.000126949
-1.39528e-05
0.000140912
0.000128713
1.26707e-05
-0.000142104
-0.000150642
0.000150849
-0.000165912
0.000144892
-1.55784e-06
1.82359e-05
-0.000124852
-0.000144072
1.57741e-05
-0.00016032
6.42541e-06
-0.000160172
6.28562e-06
-0.000159739
5.81339e-06
-0.000160252
6.2396e-06
-7.33986e-06
-0.000154544
1.79761e-06
-0.000159949
7.65031e-05
-7.22106e-06
-0.000159148
4.79777e-06
-7.21362e-06
0.000150429
-6.85777e-06
0.000148164
-0.000157254
9.04301e-06
-0.00016016
5.82436e-06
-6.97653e-06
-0.000182331
0.000102128
8.02035e-05
-0.000149076
-3.80453e-06
-6.8971e-06
3.01771e-06
-0.000146497
0.000150579
-4.08242e-06
-0.000159842
5.37565e-06
0.000152416
-0.000164117
1.17518e-05
-0.000149013
-3.85531e-06
3.05578e-06
-5.18308e-06
-0.000148963
-3.89762e-06
0.00014915
-0.00015161
2.47365e-06
-0.000159648
5.21939e-06
3.09625e-06
-5.96402e-06
-0.000148911
-3.93626e-06
-5.99263e-06
-0.000152998
-1.1088e-06
-0.000159308
5.06185e-06
3.12817e-06
-0.000164792
7.74315e-05
0.000137441
-0.000143876
0.000102455
-0.00014573
4.33213e-05
-5.78509e-06
3.15841e-06
0.000149605
-2.87281e-06
-0.000147101
-4.70402e-07
-0.000158907
4.86709e-06
0.000149303
-0.000144028
3.84721e-06
-0.000146967
4.20002e-06
-1.51201e-06
-5.6044e-06
-4.9476e-05
1.2962e-05
0.000126448
-0.000142317
-0.000158438
4.4001e-06
2.21761e-06
-0.000138864
-1.53064e-06
0.000140206
-4.25149e-06
-0.000157973
3.72351e-06
-3.60319e-06
0.000166442
-0.000157557
3.35152e-06
-4.16215e-06
-0.000157069
3.00346e-06
1.73041e-06
-0.000150428
1.29736e-05
-0.000142459
-3.77654e-06
7.15683e-06
-0.000144716
0.000137559
-0.000156564
2.58888e-06
0.000162097
1.00953e-06
-0.000137391
0.000144548
-0.000148748
-1.1424e-06
-2.30665e-06
-1.83039e-06
-0.000141478
0.000143106
-0.000134028
-1.21979e-05
0.00014006
-0.000155729
2.09511e-06
-2.87925e-06
-0.000155467
1.86944e-06
0.000128684
1.98068e-05
-2.5923e-06
-0.000125925
-1.37428e-05
0.00014028
-0.000155548
1.39858e-06
0.000147958
0.000152883
-4.5359e-06
-3.00061e-05
-2.28303e-06
-1.59179e-06
-0.000151094
-0.000147954
0.00014804
5.22262e-07
-0.000154093
9.17014e-07
-0.000154812
0.000152896
1.78342e-06
-0.000152351
-2.39265e-06
2.13054e-05
-0.000139817
0.000118915
-1.60504e-06
-0.000154606
1.58318e-06
-1.4003e-06
-7.31302e-05
-0.000100901
0.000174265
-1.23476e-05
-0.000136088
0.000144687
0.000132891
-0.000141863
8.5456e-06
-0.000152864
3.36001e-07
0.0001306
-0.000146985
-6.55203e-06
0.000145808
-0.000139256
1.18184e-05
-0.000147607
-1.2243e-05
0.000137798
1.15197e-05
0.000127402
-0.000138284
-9.2014e-05
0.000178165
-0.00014645
-0.000146729
0.000161843
-2.86121e-06
5.44322e-06
0.000142935
-9.63706e-07
0.000148023
-0.000146926
-8.91747e-07
0.000149345
-0.000149454
0.000151642
-0.000165291