/*--------------------------------*- C++ -*----------------------------------*\
  =========                 |
  \\      /  F ield         | OpenFOAM: The Open Source CFD Toolbox
   \\    /   O peration     | Website:  https://openfoam.org
    \\  /    A nd           | Version:  12
     \\/     M anipulation  |
\*---------------------------------------------------------------------------*/
FoamFile
{
    format      ascii;
    class       volScalarField;
    location    "1.2";
    object      T;
}
// * * * * * * * * * * * * * * * * * * * * * * * * * * * * * * * * * * * * * //

dimensions      [0 0 0 1 0 0 0];

internalField   nonuniform List<scalar> 
46253
(
1.00326
1
1
1
1
1
0.993006
1.00741
1
1
1.004
0.945305
1
1
1
1
1
1
1
1
1
1
1
0.998562
0.993659
1
1
1
1
1.00785
1.01983
1
1
1
1
1
1
1
1.01245
1
0.987547
0.945375
1
1
0.932352
1
1
1
1
1
1
1
1
0.999332
1
0.961594
1
1
1.05735
0.970206
1
1.00574
1
1
1
1
1
1
0.962605
0.9335
0.993074
1
1
1.00937
1
0.998633
1
1
1
1
1
1
1
1
0.992058
1
1
1
1.02802
1
1
0.983121
1
1
1
1
1
1
1.05611
1
1
1
1
1.01944
1
0.99254
0.946166
1.00002
1.00001
0.951054
1.00583
1
1
1
1
1.0184
0.938334
0.970261
1.10559
0.962164
1
1
1
1
1
1.1097
1
0.955679
1.0001
1
0.999268
0.999072
1
0.994389
1
1
1
1
0.961821
1
1
1.01588
1.01551
1.01605
1
0.999996
1
1
1.01104
1
0.950782
1
1
1
1.00646
0.935053
0.954761
1
1
1
1
0.946616
0.960286
1
0.99363
1
0.99467
1
1.16311
1
1
0.999999
1
0.994577
1
0.935113
1.00317
1
1.00933
0.938893
1
1.00543
0.999997
0.999998
1
1
1
0.932336
1
1
1
1
1.00369
1
1
1
1.00633
1
1.03491
1.03476
1
1
1
1
1
0.937592
1.00466
1.00004
1.00002
1
1
1.10895
0.994198
1
1.00365
1
1.01534
0.993584
0.999557
1
1
0.999053
0.934961
0.999997
0.999998
0.995288
1
1
1.03241
1.03207
1.04093
1
1
1
1
1
1
1
1.03959
1.04638
1
1
1
1
1
1
1
1.00396
1
1.0042
1.01257
1.04493
1.02979
1
1.02923
1.00005
1.00004
0.966756
0.976297
1
0.993931
0.972664
0.949181
1.01741
0.999998
1
1
1
0.9997
1.01813
0.999829
1
1
1
1.01884
1
0.999989
1
0.994701
0.970764
1.02659
1.02623
1
1
1
1.00328
1.00171
0.962939
1.01266
1
1.05447
1.05343
0.994184
1
1.05181
1.03023
1
1.02992
0.994357
1.02097
1.10683
1.01997
0.957692
1.10094
1
1.00232
1.00118
1
1.0185
1
1
1.00993
1
1.03173
1
1.03044
0.96166
1.05055
1
0.991074
0.954814
1
0.992971
0.993937
1.01506
1.01176
1
1
1.03761
1.03737
1.02042
1.01998
1
1
1
1.00539
0.966052
1.0181
1.01832
1
1
1
1
1.08814
1
1.03711
1.03654
1
0.962673
1
1.00707
1
0.938387
1
0.947323
1
1.01915
1
1.01948
1
0.947371
1
1
1
1
1
1
1
1.03637
1
1
1
1
1.03626
1
1.0489
0.961869
1
1
1
0.993706
1.0018
0.954922
1.0218
0.999711
1.02826
1
1
1.03632
1.12889
1
1.01361
1.03613
1.00239
1
1.00547
1.00045
1.00221
1
1.00669
1
1.01273
1.01238
1.04766
1
1
1
1
1
1
1
1
1.09548
1
1.00769
1
1.00434
1
1
0.966679
1
1
1.03575
1
1.03414
1
1
1.03551
1.03822
1
1.00517
1
1
1
1
0.997211
1.00125
1
1
1.00209
0.954987
1
1.00058
1
0.998524
1.00741
1
1
0.963561
1
0.970962
1.00754
1
1.00511
1
1.00001
1.00286
1
1.03759
0.997261
1
0.996989
0.997441
1.03821
1
0.997073
1
1
1
1
1
1.00436
1
1.00367
0.956181
1.03378
0.967145
1.00332
1.03369
1.00029
1.00855
1.00849
1
1
1
1
1.00018
1
0.971462
0.994143
0.940786
0.971471
0.999593
0.984488
0.998464
1
1
1.03743
1.00653
0.950447
1.03738
1.03313
1.03296
1.00617
0.976611
1
1.00579
1.01826
1
1
1
0.973642
1
0.996892
1.0049
1
1
1.00221
1
1
1.00595
0.929777
1.00773
1
1
1.00809
1
1.00789
1.0104
1.00801
1
1.00957
1.00652
1
0.996986
1.00779
1
1
1.03647
1
0.995561
0.966804
1
1
1.03668
1
1
1
1
0.938286
1
1
1.03146
0.967979
1.03138
0.97017
1
1
1
1
1
1
1
0.998995
0.941116
1
1
1
1
1
1
0.99483
1.01434
1
1.01056
1
1
0.957726
1
1
1
1.03591
1
1
1.03598
1.00984
1.02694
1
1.02776
1.02803
1.02896
1.01434
1
1.0303
1.03025
1.0146
1.00514
1
1
1.00877
1
1.10563
1.00758
1
1.1029
1
1
1.0177
1.01985
1
1
1.01998
0.997883
1
1
0.998942
1
1
1
1
1
1
0.999979
0.999988
0.932362
1.00034
0.997684
1.00211
0.999425
1.0482
1
0.994865
1.00001
1.04821
1
1.04478
1
1.04514
1
1.00131
1.04223
1
1.04263
1.08085
1
1.04025
1
1.04069
1
0.940605
1
0.968822
0.999517
1
1
1.0382
1.0385
1
1.00613
1.03611
1.03639
0.997616
1
1
1.03291
1.0282
1.03326
1
1.03466
1.03094
0.959272
1.0312
1.02815
1.03454
1
1
1
1.0286
1.02887
0.983571
1
1
1.0266
0.972235
1.02677
0.955404
1
1.02321
1.02348
1
1
1
1.00542
1
1.00807
1.00567
1.02115
1
1.02047
1
1.02071
1
1
1.00854
1.00876
1.01872
1.01897
0.996663
1.00986
1.01651
1.01013
1.01673
1
1.0014
1.01423
1.01449
1
0.964547
1.01171
1.01189
1.12693
1
1
1
1.01111
0.999986
1.01093
0.935299
1.02586
0.997077
0.951371
1.00825
1.00896
1.00485
1.00743
1.00692
0.961917
0.962633
1
1.00259
1.11397
1.02702
1
0.953856
1.02698
0.960789
1.01821
0.995484
1
1
1
1.0335
1
1
1
1
1
1.03348
1
1
1
0.966681
0.967091
1
0.999705
0.933799
1.00237
1
1
1
1
1
1.00202
1
0.998061
1
1.0259
1.00679
1.02672
0.961905
1
1.00255
0.990853
1.02864
1
1
1
1
1
1.02742
1.02661
1.00322
0.995986
0.996192
1
0.96982
1
1
1.02749
1.0037
1
1.00323
1
1
1.0015
1.00351
1
1.02822
0.95808
0.996251
1
0.998446
1.02499
1
1
0.997216
1.00183
1
1.02491
0.928695
1
1
1.0351
1.03548
1.00019
1
0.929257
0.929836
0.993695
1.00758
1
1.00667
1.00484
0.958234
1.07904
1
1
1
1.02561
1.02579
1
1
1
1.03187
1.02263
1
1
1.0226
1.03187
0.999471
0.997713
1
0.996832
1.00693
0.952166
0.997727
0.956483
1.01567
1
1
1.01579
1
1
1.00098
0.999057
1
1.02364
0.96833
1.00588
0.962881
0.965853
1.0236
0.963542
0.962991
0.956783
0.956203
1
1
0.997967
1
1
0.997706
0.972097
0.966701
1
1
1.00727
1
1.00733
1.00763
1
1.00002
1.04454
1
1
1
1
1.00032
1.00956
0.99847
0.930449
1
1.03075
1
1.00112
1.00085
1.03047
1
0.999673
0.997708
0.999771
1
1
1
1
0.997929
1.00744
1
0.996562
1
0.962985
1
0.963704
1.0015
0.994212
1
1.02241
1.02226
0.978428
1.09323
1
0.965842
1.00661
1.00626
0.965648
1
1
0.996388
0.940436
1
1
1.00906
0.937811
1.01967
0.996916
1
1
1
1
1
1
1.12706
1
1.00198
0.962181
0.961474
0.983481
0.929669
0.926224
0.933104
0.966527
1.02526
1.00175
0.928883
1.04151
1.04342
1.04446
1.03915
1.04179
1
1.00844
1.04388
1.04523
1.03947
0.998333
1.04537
1.03236
1.03707
1.04421
1
1.00027
1.03741
1.00011
1
1.03398
1.0543
1
1
1.03437
1
0.99987
1.03192
1
1
1
1.03223
1
1.02967
1
1
1
1.02103
1.03009
1
1
1
1.02756
1.02918
1
1
1
1.02787
1.02093
0.933928
1.02443
1
0.982891
1.02473
1.02153
1.02196
0.962384
1.01966
1.0199
1.01756
1
0.998622
1.01795
1
1.01528
0.9944
1
1
1.01517
0.970479
0.938748
1.01268
1.01313
1.01131
1.02877
1.01112
0.926563
1.01018
1
1.00332
1.02853
1.01041
0.998479
0.994411
0.997692
1.00732
1.00315
1.00325
0.993746
1.00744
1.00686
1.00689
1.00241
0.946537
0.933441
1
0.945873
1
0.947667
0.938124
0.92958
1
1.1101
1.01026
1
0.999857
1.00391
1.01395
1.01576
1
1.01248
1.02911
1.03116
1.00251
1.02077
1.02789
1.02962
1.02834
1.02657
1.0043
0.96206
1.00752
0.997386
1
0.986263
0.969613
0.96008
0.995417
1
1.04045
1.02644
0.945125
1
1.01896
0.976086
0.986948
1.01894
1
1
1
0.975535
0.995353
0.993631
1.02721
0.998674
0.99987
0.951452
1.02768
0.987824
1.02739
1.00362
0.993748
0.946266
0.966201
0.949385
0.98392
1.03054
1.00387
1
1.03026
1.04875
0.976418
0.991021
1
1
1
1.00466
1
1
1
0.931363
0.991824
0.955815
1
0.992475
1
1.00407
0.977206
1
1
0.932001
0.958878
1.00007
0.959741
1.01051
1.01085
1
1.03162
1.00776
1
0.993363
1
0.995113
1.01775
0.999471
0.971382
1
1
0.985584
1.00109
1.00178
0.997947
1.00866
1.00908
1
1.01752
1.00216
0.997953
0.99685
0.956341
0.99595
1
0.97828
0.960793
1.00021
0.950435
1.00025
1.02687
1
1
1
0.971826
0.998958
1
0.999478
0.999088
1.02425
1.01865
0.964992
1.00001
0.923833
0.993242
1.03903
1
1
0.980356
1.04308
1
1
1
0.997184
1
0.996915
0.936862
0.998869
0.997625
1
1
0.997291
1
1.00001
1.00066
1.06297
0.999991
1
1.02767
1.06362
1.00084
0.996286
1.03808
1
0.991163
1.05698
1.04697
0.980993
1
1.03597
1.05801
1.0514
1
1.00556
0.931944
1
1
0.965419
1.0521
1
1.04183
1.02044
1
1
0.99314
1.04591
1.01619
1.04455
1.05095
1.02566
0.953321
1
1.04589
1.04667
0.991565
1.01603
1
1.01412
1.02532
1.01444
1.02738
1
1.04097
1
1
1
1.04103
1
1
0.971794
0.999871
1
0.973038
1.04157
1.00937
0.997882
1
0.999173
1
1.00931
1
1
1
1
1
1.00062
1
1
1
1
1
1
1.00318
0.943858
1
0.993033
1
1
1
1.00657
0.971219
0.946854
1
0.943947
1.02098
1
1
1
1.02249
1
1.02839
1
1.04973
0.964191
0.949396
1
1
1
1
1
1
1.00824
1.0163
1.00685
1.04949
1
1
1
1
0.963798
1
1
1
1.02557
1
1
1
0.988905
0.98871
0.967706
1.0375
0.963713
0.98693
1
1
0.991593
0.990936
1.02652
1.02771
0.950713
1.02798
1.02604
0.996612
1.02724
1.0275
1.01496
1.03513
1
1.00699
1.00002
1.02695
1
1
1.0273
1.01488
1.0283
1
0.994551
1.02802
0.999999
1.00005
0.965176
1.00975
1.02774
0.999474
1.02446
1.00003
0.954405
1.00003
0.971194
1
1.01466
0.955802
1.02412
1.00815
0.999378
1.02848
0.977879
1
0.995355
1.04537
1
1
0.931217
1
1
1.04588
0.964863
1
1.02389
1.02557
1.02416
1
0.961894
1.02584
1.02768
1.02743
1.02589
1.02557
1.01877
1.03077
1.03759
0.962706
1.04358
1.02483
1.03375
1.02527
1.02454
1
0.969313
1
1.00105
1
0.931907
1.00357
1.02509
1.0283
0.964559
1.02899
1.00761
1.02273
1.02566
0.990317
0.967665
1.03985
1
1.02387
1.02416
1
1
1
1
1
1
1
0.975496
1
1.01338
0.930148
0.96201
1.04396
0.930944
0.961021
1.0229
0.95585
1
0.935867
1.01312
0.971187
1
1.00608
1.03437
1
1
1.05678
0.932094
0.967113
0.966859
1.01696
1
1
0.926062
0.99201
0.997218
1.03739
0.927814
1
1
1
1.00004
1
1.02186
1.02194
1.00898
0.928823
1.02
1.02085
1
1.00941
1.02105
1.00006
1.01952
1
1.05226
1
1
1.02794
1.02019
0.976756
1.04748
0.929904
1.05326
1.05582
1.03636
1
1
1.02496
1.00349
1
1.02318
1
0.948112
1
1
1.01768
0.939486
1
1.01855
1.00419
1.01874
1
1
1.02299
1.03985
0.944562
0.963645
0.937422
0.990269
0.985681
0.987878
0.933051
1.00656
0.987902
0.995818
1
1.01771
0.92963
0.944423
0.992142
1.03391
1.01504
0.971021
1
1
0.9954
0.994147
0.993085
1
1.01502
0.998431
1.0162
1.01178
1.01624
0.990419
1.011
1
0.961528
1
0.927774
1.01134
1.01517
1.0128
1.00631
0.927874
0.970936
1.02665
1
0.972564
1.0228
0.958541
1.05762
0.967712
1.0128
1.01337
1.05759
0.93823
1.01366
0.992218
1
1.01273
1.01391
1.03856
1.04441
1
0.997072
1
0.996536
0.971334
1.00477
0.950188
0.945834
1
0.94545
0.949309
1.01283
1
0.929094
1.01071
1.03338
0.998413
1.012
0.932646
0.9732
0.992605
1.02905
0.998401
0.936903
1.01008
1.01134
1
1.01134
1
0.997829
1.05319
1.01016
0.958198
1.04648
1.01786
1
0.94713
1.02491
1.00534
1
0.950799
1.02496
1.03339
1.04881
1.05547
1
1.00775
0.999987
1.00836
1
1.02424
1.00843
1
1.03286
1.0244
0.987718
1.01516
1.02335
1.00785
0.977128
1
1
1.02356
0.949313
1
0.945854
1.00285
1.03338
1.03483
0.946097
1.05306
0.970325
1
0.951467
1.06996
1
1
1.03874
1.06822
0.945405
1.01161
1.00635
0.947466
0.946495
1.02698
0.976384
1.00634
1.00518
1.02654
1.04645
1.03687
1.00492
1.01079
1.0116
1.01785
1.01926
0.982494
1.01268
0.944391
1
1.02983
1.07019
1.00421
1.0422
1.07007
0.962079
1
1.00451
1.00122
1.01747
0.967567
1
1
1.03591
1.03599
0.965867
1.00908
1
1
1.00852
1.02287
1.02169
1
1
1.00536
1.00199
1.00231
1.01764
1.00687
0.951867
1.00706
1.00106
1
0.952146
1.02143
0.96329
0.948169
1.01855
1.02716
1.08991
1.01951
0.998343
1.018
0.982688
1.01779
1.01962
0.994868
1.01985
1.00282
1
1.00238
1
1
0.982093
0.979805
0.985613
0.980369
1.0074
1.00621
1
1
0.984514
1.01708
0.957349
0.96496
0.994427
0.956399
1.01454
1.03348
1.01729
0.958178
0.94965
1.01266
1.04274
0.96068
1
0.994098
1.02789
0.956863
1.07776
0.99617
0.998601
1
1
0.999764
0.989913
0.999994
1
1
0.989144
1
1.01468
0.961233
0.959507
0.9705
1.01079
1.0146
1.00925
1
0.958123
0.972072
1
0.957014
0.978945
1.00739
0.999522
1.00704
1
1
1.01597
0.986608
1.05424
0.959836
0.961365
1.06933
0.967558
1
1
1.01215
1
1
1.02939
0.996476
1.02051
1.01236
1
0.956194
1.02522
0.974003
1
0.973082
1.04523
0.989386
1
1
1
0.96447
0.985275
1.01515
0.97301
1
1
0.959934
0.972947
0.961368
0.960949
1.00973
1.01687
0.974561
1
1
1
1.00973
1
1
1
0.992844
1
1.00689
1
1
1
1
1
1
1
1
1
1
1
1
0.972171
1
1
0.997659
1.01751
1.00012
1
1
1.0099
0.95817
0.975241
1.02048
1
1
0.996899
0.957299
1.01904
1
1
1
1
1.00543
1.00676
0.999992
1.02912
1.00598
0.974573
1.00705
1.00958
0.97311
0.993229
1.02616
0.964891
1.0001
1.00021
0.99999
1.00114
1
1
1.0213
1.02564
1
1
1.02485
1.01812
0.978306
0.993846
1.01572
1.00574
1
0.968134
1
1.00166
1.02505
1.0201
1.0126
0.965095
0.977265
0.99766
1.02598
1.00501
1.0071
1.00244
1
1.01235
1.006
0.965659
1.02519
1.05608
1.0005
1
1
0.975484
1.02558
1.01432
1.0231
1.0697
1.00514
0.95409
1.01806
1
1.01384
1.0273
1
1.02599
0.986742
0.953964
1.02537
0.968406
1.00616
1.0042
1.02427
1.00402
1.00812
1
1.00041
1.00055
1.02431
1.00248
1
1.00081
1.00766
1.0089
1.00661
1.02313
1.00959
1.01212
1
1.02276
1
1.0087
0.974369
1
1
1.06812
1.02652
1.03717
0.961016
1
1
1.02047
1.03784
1.00607
0.958898
1
1.00747
1
1.01174
1.06107
1.03065
1.00538
1.02758
0.992165
1
1.02144
0.985374
1.01817
0.974948
1.01286
1.02332
1.00639
0.990563
1
1.02222
0.99557
0.999286
1
1.02155
1.02056
1
1.00839
0.963317
0.99429
1.00839
1.02239
0.958487
0.999474
1.02365
1.01796
1
1.01908
0.998398
1.00961
1.10219
1.00961
1
1
1
0.993326
1.00408
1.01917
1.00056
1.01811
1.01194
1
1
1.07348
1.03283
1.01569
0.971577
1
1.01188
1
1.01649
1.00371
1.00466
1.01655
1.06449
1.01081
1.03443
1.03256
1.01665
1.01584
1.0042
1
1.00828
0.974793
1.00532
1
1.01313
1.01154
1
1
1.00482
1
1
0.990224
0.963604
1.01566
1.01438
1.03559
1
1
1
1.00024
1
0.976298
1.01048
0.973769
1.0144
0.947271
0.942214
1.01315
0.964297
1
0.957692
0.979819
1.02488
0.963624
1.0107
1
1.01964
1
1.03088
1.01164
1
1
1.00866
1
1.01289
1
1.01823
1.01167
1.01092
1.01229
1.0081
1
0.961984
1
1.03968
1.02659
1.01011
1.00886
1
1
1.02038
1.0082
1
1.01483
1.00898
0.996757
1.00383
1.02162
1.00878
0.960223
1
1.01897
1.01949
1.02116
1.00928
1.02074
0.983696
1.00803
0.991031
1
1
1.00771
1.01967
0.981723
1.00273
0.996131
0.999831
1.00887
0.962247
1.00996
1.00433
0.966972
1
1.0229
1.01339
0.982671
1.01748
0.985531
1
1
1.00657
1.00544
1
1
1
1
1
1.04215
1.00505
1
0.980513
1
1.00633
1.01945
1.02031
1.01698
1.00571
1.00822
1.00893
1.01675
0.978953
1
1
0.989512
1.03006
1
1
0.994702
1.02386
1.00499
1
1.00407
1.02389
1
1.0154
1.00375
1.01646
1.0252
1.02822
1.00427
1
1.00372
0.975364
1
1
0.989446
1.02597
1.02558
1.02665
1.00368
0.973907
1.02642
1.04757
1.03076
1.03151
1.02907
1
1.00208
1.0236
1.03049
1.00823
1
1
1.00128
1.00139
0.973378
0.946115
1.02429
1
0.999996
1.01127
1.03573
0.966428
1.0013
1.03395
1.03471
1.00537
0.945132
0.999998
1.03245
0.968706
0.999686
1.00987
0.969529
1.05053
1.00012
1.0269
1.00576
1
0.992738
1.02147
1.00186
0.980567
1.01366
1.03807
1.02652
0.97212
1.00285
1.01918
1.00316
0.967289
1.02307
0.97
1.03737
1.01247
1.00817
1.02636
1.00961
1.01727
0.99777
1.02424
1.0339
1.03631
1.00646
0.9915
1.00892
0.961839
0.968969
0.98907
0.969232
1.00076
1
1.00367
1
0.974564
1.0018
1
1
0.972187
1
1
0.992873
1.01971
1.07599
0.997131
1
0.946597
1
0.983899
0.970704
1.02167
0.969617
1.00157
1.02097
1.00188
1.00544
1.00731
1
0.994401
1
1.02172
1.01821
1
0.993953
0.982832
1.03852
1.02181
1.03873
1
0.982269
0.943781
1.02141
1
1.04206
1.01016
0.992044
1.0216
0.995739
0.983714
1
0.9828
1
0.970535
1.06976
0.984726
0.944886
1
1.02119
0.960189
0.984854
0.945305
0.998156
1.02131
1.02408
1.00852
1
0.999966
1.00039
1
1.04273
1
1.0208
1.03437
1.02708
1.04169
1
1
1.02087
1.00907
0.972046
1.04459
1
1
1.04358
1.02034
1.04676
1.01682
1.04564
1.02041
1
0.983783
1.00391
1.0006
1.01976
0.996808
0.998688
0.99871
1.05036
1.01979
1.04091
1.01422
1
1
1
0.972824
1.01915
1
0.999215
0.993511
1.04785
1.01437
1.00574
0.968055
0.975903
1.01926
1.02754
0.998993
1.01453
0.956461
1.00084
1.01077
1
1.00858
1.01249
0.989084
1.00448
1.02704
1.02595
1.04887
1.0003
1.05314
1.05214
1
0.975076
0.949834
1.01838
1
1
1.00225
1
1.0511
0.960196
1.01855
1.02791
1
1.01435
1.00876
1.00151
1
1.00279
1.00444
1.01755
1.01347
0.991771
1.05005
1
0.979709
0.992613
1.00238
1
1.01775
1
0.985367
0.954745
1.00521
1.05432
1.00537
1.01437
1.05546
1.00503
1
0.999121
1.00438
1.02488
1.11795
1.01955
1.03244
1.01671
1.02052
1.0072
1.03893
1
1
1.03388
1.00412
1.01689
1.02721
0.992521
1.00596
1.02027
1.00001
0.993448
1
0.928253
1
0.946035
1.00546
1.01618
1.01609
0.974132
1
1
1.05663
1.00005
1
1
1.00777
0.974009
0.992703
1.05867
1.00715
1.00116
1.02534
1.00811
1.02629
0.974642
1
1.00122
1.01899
0.979208
0.974827
0.954017
1.00764
1.00676
1
1.01212
1
1
1.03697
0.974598
0.989439
1.01198
1.03035
1.07001
0.974976
1
1
1.02742
1.02912
1.01072
1.02806
1.00969
1
1.01251
1.00517
1.00927
1
1
1
1
1.01105
1
1.01844
1.02996
1.00748
1.05288
1.03012
1
1.01079
1
1
1
1.01222
1.02909
1.02888
1
1.0214
1.01157
0.966723
1
1
0.966664
1.01825
1
0.970546
1.01295
1
1
1
1
1
1.02799
1
0.983529
1.01257
1
1.03365
1.00567
1
1.02801
0.943255
1
0.965925
1.02444
1
1
1.03317
1.03692
1
1
1
0.967593
0.967366
0.982858
1.01459
1.00186
1.03446
1
1
0.970934
1.03302
1
0.967415
1.01423
1
0.986434
1
1.01698
1
0.98535
1
0.956032
1
1
1.00708
0.943242
1.03258
1
1
1.01636
1
0.980873
0.971043
1.01628
0.946688
1
0.927931
1
0.959273
0.971844
1.01198
0.981024
1
1.02577
1.01601
0.988533
0.990744
1.0068
1
1.0024
0.987622
1
1
0.964828
0.964523
1.01712
0.950123
1.01792
1
1
1
1.01765
1.07671
0.971509
1.01933
1
1.01331
0.991199
0.9719
0.972677
1.03802
1
1.02392
1.01884
0.99043
1.02722
1.03704
0.959477
0.99597
1
0.970152
0.961417
1
1.01759
1
1
0.946417
1.02053
1
1.00206
1
1
0.995791
1.01389
1
1
1
1.02092
1.01569
1
0.919696
1
1.02012
1
1.00062
0.956916
1
1
0.992016
1.02044
1
0.94512
1
0.967757
0.993869
0.999993
1.02201
0.993335
0.944607
1.02183
1.02978
0.967039
1.04498
0.999997
1
0.997513
1.02174
1.02155
0.94222
1.02976
1.02524
0.969359
1
1.03425
1
1.06948
0.978298
1.02339
1.02307
0.942078
0.998468
1.0007
1
1.00192
1.02364
0.996378
0.988547
0.975394
0.999996
0.997919
0.979053
1
1.02859
1.02283
1
1
1
1.02281
0.979372
1.01838
1.02865
1.00201
1
1.02403
1.00004
1.015
1.0245
1.02738
1
1.07134
0.941124
1.02362
0.998847
1.02754
1.0142
1
1
0.975054
1.02422
0.978502
1.00007
1.02094
0.993902
0.994742
0.993498
1.08859
0.998791
0.995346
0.960149
1
1.01243
1.02601
1.02454
1
1.02528
1
1.04424
1.02838
0.973768
1.0494
1.02125
1.03947
0.978295
1.01139
1.01695
1.0395
1
1.03092
0.992176
0.983666
1.00941
1.02501
1
1.02085
1.02559
1.02177
0.992237
0.979392
1
1.05434
1.01645
1.07854
1
1.03677
0.969881
1.01538
1.04485
0.976561
1.02146
1.02142
1.0001
1.04019
1.0503
1.00028
1.02701
1.03168
1
1.02054
1.0185
1.02166
1.02094
1.03426
0.959819
1.06098
1.02666
1.05525
1.02048
1.00243
1.02827
1
1.02664
1.02154
1.018
1.02059
1
1.02635
0.978071
1
1.08055
1.02105
1.02004
1.02014
1
1.06205
0.981155
1
1.02068
1.02802
1.01954
1
1
1.01963
1.02011
1
1.02784
1
1.0189
1.02795
0.971185
1
1.01955
1
1.01811
0.946382
1
1.00502
1.02905
1.01888
1.01716
1
1
1
1.02198
1.02837
0.98125
1.01807
1.02895
1.01639
1.02962
0.959542
0.998684
1.03621
1
1
1.01737
1.01919
0.998834
1
1.02151
1.03689
1
1.01718
0.988175
0.984782
0.988981
1.03076
1
1.02058
1.02951
1.02396
0.980098
1.01638
0.993323
0.991172
0.966955
1.00516
1.02365
1
1.07899
1.02955
0.978537
1.0279
1.05513
1.00778
1.00643
0.977641
0.970106
1
1.01645
1.03035
1.01622
1.02333
1.03158
1
1.00865
1.03037
1.01379
0.998585
1.02392
1
1
1.03057
1.02935
1.01586
1
0.957542
1
1
1.00477
1.02414
1
1.02964
1.04694
1.01974
1
0.975892
1.01585
1.0304
1.0284
1
1.0296
1.00325
0.980461
1.02779
1.0437
1.00921
1.02604
1
1.00022
1.01872
1.02728
1
1
1.0266
0.995823
1.02808
1
1.02555
1.03073
0.998622
1
1.02702
1.01837
1
1.01201
1.02684
1.0251
0.97352
1.00295
1
0.975328
1
1.03244
1.00732
1
1
1.01965
1.00902
1.02003
1.01386
0.945321
1
1
0.978493
0.992236
1.02825
1.00556
1
0.982742
1.03251
1.01823
1
1
1.02784
1
0.999985
1
1
1.00702
1
0.998659
0.991362
1
0.922205
1.02981
1.01971
0.958325
1
1.0078
1
1.02315
1.03113
1
1.00481
1
1
1.01327
1.02951
0.978426
1.0258
1
1.02191
1.02402
1.09964
1.04354
0.934487
1
0.977728
0.936708
1
0.977449
1
1
0.979138
1.02474
1
0.933433
1.02612
1.03138
1.02672
1
0.945952
1
0.987819
0.995139
1.00429
0.997327
0.997354
1.01689
1.03102
1.0039
0.981399
0.979418
1
1
1.00021
0.99408
1
1
0.971632
1
1
1.01595
1.01988
1
1.03286
1
1.01454
0.981432
0.957041
1
1
1.01524
1.06818
0.941435
1.03247
1.01481
1.01449
0.980578
1.0179
0.952735
0.943551
0.944086
1.01664
0.94501
0.999989
1.03727
1
1.02011
1
0.956522
0.96967
1.05615
1.05193
1
1.02887
0.947592
0.976485
0.994744
1.03438
1.01725
0.945634
1
1.01244
0.975599
1.04598
1.02677
1.01365
1
1
1
1
1.00363
1.01172
1.03402
0.956455
1.02856
0.960323
1
0.985011
1.05285
1.01736
1.05715
1.01342
1.00577
0.977413
1
1
0.942567
1
1.01607
0.986095
0.959466
1.0047
1.00186
0.9893
1.03013
1
1.00338
1
1
1.03313
1.0358
1.00394
1.04674
0.978916
1.01547
1.03171
1.07685
0.979704
0.958851
1.0041
1
0.976431
1.03538
0.99818
1.0022
1.01472
1.00209
1.02426
1.00178
1
1.03153
1.01211
0.961045
1
1.01972
0.978261
1.00348
0.975414
1
0.936031
1.02288
1.01135
1
0.980247
1
1
0.99935
1
1
1.01678
1.02845
0.965488
0.980936
0.959586
1.01917
1.01164
1.03785
1
1
0.963478
0.974427
1.00273
1.00077
1.02106
1
1.00852
0.946175
1.00392
0.979702
0.97015
0.944584
1
1.02705
1.01691
1.01123
1.03641
0.99862
1
1
1.04787
1.00723
1.04083
1.01021
1.01859
1.02076
1.00064
1.00004
1
1.00603
1.00041
1.0401
1
1.00311
0.975266
0.943166
1
0.997802
1.01654
0.961633
0.990803
0.955899
1.02062
1.03607
1
1.0277
1.00712
1
1.03602
1.00056
0.967343
0.944268
1.00587
1.02034
1.03572
0.963058
1.00907
1
1.0223
1
0.958763
1
1
1.01895
0.944174
1
1.00019
1.02142
1.01311
1
1.03528
0.987835
1
0.9899
0.961443
1.00838
1.01057
1.02293
1.01205
0.942849
1.04283
1.00655
1.00959
0.95544
0.982139
1
1.02249
0.982707
0.984638
0.993548
0.980601
1
0.9455
1.02274
0.984301
1
1.0095
0.965361
1
0.996764
1.02011
1.02421
1.01586
0.982418
0.975134
0.980884
1.01889
1.01529
1
0.978732
1.01385
1.00402
0.987419
0.963813
1
0.963975
1.0087
1
1.01384
1
0.970125
0.998751
1
1.02374
1.01254
1
1.00952
1
0.983755
1.04105
1.01312
1.02458
1
0.945762
1
1.01528
1.08456
1.00898
1
1.01396
1.0403
1.01535
1.02503
1.02468
0.959079
0.981697
1.02502
1
1.05979
0.967684
1
0.974834
1.02668
1.0055
1.00956
1.05108
0.944206
0.999974
0.978554
1
1.02573
1.042
1.01472
1.01565
0.986738
1
1.01687
1
0.96665
1
1.00025
1.01629
0.973117
0.999997
1.01605
1.02635
1.04102
1
1.0345
1.0825
1
1.00476
0.964812
1.01638
0.969881
1.01263
1.05394
1
1
0.98891
0.990134
1.03121
1.02348
1.0395
0.990142
0.974388
1.03514
1.00556
1
0.981288
0.974751
1.04268
1
0.969243
0.965987
0.944224
1.01304
1.01977
1
1
0.977526
0.999909
1.03185
1.0039
1.02526
1.02353
1.01597
0.943376
0.999994
1.03995
1
1.05393
0.993282
0.983744
1
0.98067
1.07651
1.0195
1
0.981177
0.989122
0.939151
1.0346
1.02124
1.026
1.01085
1.00585
0.983771
1.01046
1
0.98131
1.02407
1.02249
1.0357
1.02523
1.0215
1.02644
1
0.984283
1.01997
1.01838
1
0.985659
1.01009
1.01261
1
1.002
1.02923
0.946397
1.01091
1.01074
1
1.01142
1.02775
1
1.03004
1.00275
0.981184
0.97904
1.01072
1
0.979572
0.981521
1.01375
1.01612
0.993025
1.01936
1.03057
1.00743
1.0083
1
1.05976
0.98172
1.01281
1.00566
0.998489
1.0148
1.03244
1.07307
1
1.03236
1.03655
1.02371
1
1.02213
1.02473
0.979025
1.02093
1
1.01972
1.0262
1.01106
1
1.0334
0.99848
1.02459
1.0273
1.01433
1.02639
0.947424
1.01791
1.00439
1
1
1.04765
1.04032
1.02919
0.982577
1.02468
0.980837
0.961693
1.00442
0.991773
0.998937
0.972503
0.973971
1.01543
1.02177
1.02996
0.980601
0.977829
0.979576
1.02902
0.997428
1.00632
1.02435
1.03063
1
0.99101
1.0085
1.01397
1
1.00031
0.982881
1.01737
0.998451
1
1.03094
1.00378
1.02602
1
1.01029
1.00069
0.981948
0.94367
0.997627
1
0.959609
1.01609
1.02727
1.01163
0.944609
1.01024
1.04909
1.01993
1.0317
0.980131
1.07272
1.00734
0.970668
1.02271
0.960318
1
1.02567
0.999994
1.00574
1.07492
1.00729
1
1
0.980526
1.01316
1.02969
1
0.970969
1.02599
1.02372
1.02484
0.998513
0.980668
1.02378
0.998008
1.0229
1.02582
1
0.981933
1.00792
1.02022
1.06343
1
1
1.00516
1.0031
1
1.04996
1.02395
1
1.00733
1.04986
1
1
0.996723
0.970644
0.980187
0.983949
0.975949
0.980088
1.00548
1.00002
1
1.00599
1.02996
1
1.01426
0.976804
1.02671
1.00567
1
0.949432
1.01832
0.979639
0.996159
0.933117
1.03096
1.02587
0.996097
1.01119
1.0079
0.979447
0.971369
1.00215
1
1.01789
1.01655
1.02023
1
0.979578
0.97916
0.969922
0.97967
1
1.00679
1
1.02751
1.03947
0.932998
0.979678
0.979654
0.978549
1
0.981099
1
1.03004
0.949783
0.995712
0.980357
1.02609
0.980078
1
1.01039
1.08342
1
0.996342
0.981082
0.961621
0.980948
1.04974
1.04697
1
1.0236
0.980989
1.00665
1
0.977113
1
0.998576
0.982136
1.00616
1.02294
1
0.930851
0.979794
0.981401
1.02311
1
1
1
1.00337
1.01589
1.01794
1.01838
1
1.03782
1.04893
1.01402
1.0117
0.942713
0.959944
1.03778
1.01608
1
1
0.971455
0.973125
0.999782
1
0.981135
1
0.997282
1
1.02281
0.999646
0.989036
0.976652
0.968787
0.929746
1.00002
1
1
0.993802
1
0.981152
1.01646
1.01644
1
0.98718
1.00332
1
1
0.982208
1.03004
0.981683
1.01398
1.01701
0.934652
0.979274
1.02947
0.969027
0.98533
1
1.07301
1
1.01778
1.01457
1.00598
1
1.08592
0.960088
1.00017
1.01931
1
1.01467
1.03873
0.997266
0.999997
1.02137
1
0.983264
1
1
1.01794
1.00275
0.974602
1.03316
1
1.01104
0.973763
1
0.972121
1.02554
1
1
1
1.01321
0.929187
1.06061
1
1.02305
0.98206
1.01352
1
1.04703
0.980233
1
1.01616
0.982999
1
1.00648
0.96416
1.02575
1.00997
1
1.0251
0.999965
0.976274
1.01716
0.980802
1.03361
0.982706
0.971044
1.00256
0.96683
1.01197
1.01124
1
1
1.06153
1.08072
1.01871
1
1.00589
0.999791
1.0384
0.984629
1
1
0.978367
1
0.987062
0.970541
1.03326
1
1.02739
1.02096
1
1.01692
1
0.981213
1.01406
1
1.01098
0.978994
1.0224
0.995666
1
1.02614
1.00765
1.00616
0.978618
0.967562
1.00026
1
1.00676
1.02698
1.02663
1.05261
1
1.01528
1
1.0123
1.02911
1.0874
1
0.957924
1
1.0245
1
0.984356
0.994416
1.01677
1.00827
1
1.03149
0.944844
0.993036
1
1.03054
1.04639
1
1.01203
0.977591
1
1
1.00195
1.02698
1.01709
1.01278
1
1
1.02756
0.999139
1.01354
1.0058
1
1
1.01392
1
0.976989
1.04991
1.04403
1
0.999986
0.977718
1.0321
1
1.02872
1
1
1.03265
1.03091
0.980678
0.978327
0.998726
0.959008
1.03304
0.980821
1
1.01364
1.00169
1
1.01334
1
1.03015
1.03362
1.05603
1.01472
0.999018
1.01395
0.999063
1
0.977067
0.981118
0.930658
1
1.04484
1.05074
0.975304
1
0.988827
1
0.936352
1.00801
1.00497
1.01692
1.03172
1.03908
0.999962
0.953884
0.980592
1
1.01425
1
0.997728
1.03493
1
1
1.0298
0.9754
1
1.04702
1
0.976058
1.01543
1.00507
1
0.983049
1.03121
1.02935
1.02043
1.03328
0.983316
1.01888
1
0.964783
0.976978
1.01372
0.97138
1
1.01495
0.98416
1.02407
1
0.981955
1.0363
1.00438
1.01519
1.00088
1.01068
0.980679
0.942428
0.944325
1
1.01737
0.982563
1.0164
1.00878
1.03482
1.08553
1.02211
1
0.988166
1.03017
0.946673
1
1.02795
1.00298
1.00469
0.986631
1.01991
0.974883
0.981271
1.00801
0.99231
1.01641
1.0039
1
1.00609
1.0359
1
1.08572
1
1.01819
1
1
1
1
0.999377
1.01609
1.04296
1.0214
1
1.0023
1.01436
1.0095
1
1
1.02197
1.00238
1.03619
1
0.980729
1.01181
0.998832
1.01707
1
1.01286
1
1.00253
1.00782
1
1.01547
1
1.02455
0.978729
1.03549
0.947998
1
1.04061
0.999989
0.977876
1.00215
1.01681
1.00646
1
0.974954
0.996979
1.03716
0.940259
0.979113
0.978224
0.975384
1
1
1.01785
0.959077
1.0085
1.00029
1
1.02819
1.02879
1.00612
1.03458
0.976189
0.95864
1
1.05848
0.975295
0.975963
0.997359
1.03328
1.03177
1.00016
1
1
1
1.03235
1
1.01771
1.00477
1.01625
0.962235
1
1
1
1.03352
1.08105
1.03054
1
1
1.03026
1.00665
1
1.06433
0.960214
1
1.0009
0.977646
1.01528
1.01872
1.0004
1.01875
1.03411
1
1.08162
0.964142
1.02397
1
0.979939
1
0.982828
1.03426
0.969691
0.98299
1.03614
1.02616
1.00004
1
0.997722
0.966557
0.997808
1.002
1
0.972298
0.998392
1
1.05041
0.992858
0.960344
1.03502
1.01893
0.97918
0.959669
1.05389
0.968782
1
1.01847
1
1.02386
1.02459
1
1
1
1.00219
0.975163
0.958367
1.05092
1
1.0194
0.977131
0.997785
0.967148
1.03908
1
0.97584
0.983099
1.03737
0.953355
1.01294
0.994698
0.998991
1.03188
0.974931
1.00084
0.965964
1.0005
1.00052
1
1.0062
0.982569
0.967417
0.962636
1.03644
0.960527
1
1
1.03682
1.01072
0.965303
0.982476
1.01542
1.03487
1
0.994108
1.04001
0.977062
0.994654
1.00318
1.03817
1
0.967961
1.03305
0.999243
0.982387
0.972746
1.03727
1.01922
1.06504
1
1
1.03395
1
1
1.01585
1
1.03275
1.02792
0.978279
1
0.977748
1
0.979657
0.959336
1
0.979268
0.972026
0.993503
1.00476
0.983113
1.02904
1.00364
1.03973
0.995096
1.02011
1.01662
1
1.04453
0.976248
1
1.01652
1
1.04552
1
0.993767
1.00307
1.01631
0.980959
1.01482
0.965999
0.994043
0.979751
1.00834
1
0.997946
1
0.992841
0.957935
1
1
1
0.962931
1
0.992273
0.969136
0.996653
1.02407
1.05284
0.979535
0.992602
1
1.02826
1.01993
0.971133
1
1.04235
1.02756
1
1
1
1
1
1.00636
1
1
0.980326
1
0.953684
1
1
0.981292
1.00411
1.01885
1
1.0208
1
1
1
1.03108
1
0.94661
1
1.06526
1.05856
1
0.976182
1.04463
1.00407
1.01337
1
1.0279
0.984005
1.01955
1.02524
0.975983
1
1.02013
1
1
1
1.01088
1.02116
1
1.0204
0.994074
1.02667
1
1.05651
1.01443
1
1
0.999204
1.0206
0.98241
1.04884
1
1.0565
1
1
0.985847
0.999997
0.949991
1.01629
1
1
0.960747
1
0.975714
0.98165
0.983968
0.97215
0.986341
0.981555
1.03513
1.01297
1.02748
1.00805
0.950347
0.986154
0.951861
1.01724
1
1.0261
0.999986
1.00004
1
1
0.983072
1
1.00002
0.971588
1.01417
0.97879
1
1
1.01959
0.989787
0.960115
1.02645
1.04841
1
0.995316
1.07854
0.983247
1.00013
0.983415
0.983131
0.985395
0.979951
0.997006
0.999229
1.02628
1.04144
0.992585
0.975856
1.02165
0.9684
0.962988
0.976611
1
1.03554
0.977413
1.01174
1
0.950714
1.0438
1.08834
0.999997
1.0172
1.00003
0.999004
0.942914
0.983713
0.973878
0.975026
0.997432
1.00164
1
1
1.0168
1.04299
1.04761
0.997924
1.02088
0.999992
1
1.04329
1
1.07241
1.02483
1
1.0243
0.979246
1
1.06779
1.00424
1.02576
0.972197
1.02501
1
1
1.00746
1.02485
1.00007
1.04142
1.01456
1.05181
1.00923
1.02876
1.01774
1.04648
0.998998
1.03736
1.02734
1
1.0396
1
0.980001
1.03293
1.02823
1
1.02098
0.979049
1
0.986657
1.04488
1
1.03874
0.930201
1.05567
1.02718
0.936269
1
1.06184
1
1.04081
1
1.03043
1.02318
1.03967
1.02506
1.04704
1.02681
1
1.0023
1
0.932662
1.03406
1
1
0.992113
1.01286
1.023
1
1
0.98728
1.0116
1
1.00773
1
0.999394
1
1.03173
1.0275
1.0747
1.00149
1.01427
1.04535
1.00049
1
1.00246
1
1.02732
0.993795
1.03813
1.00019
1.01192
1
1
1.02328
1
1.02836
0.966576
1
1
1.00552
1.03635
1.0391
1.04551
1.06177
1.04912
1.02437
1.02808
1.02347
1.01672
0.975273
0.957861
1.04382
0.99122
0.982397
1.0009
1.04206
1.00478
0.975563
1
1.03098
1
1.02711
1.0103
1.00703
1
1.02702
1
1.01478
1.04401
0.983719
1.0282
1.0381
1.00042
1
1.04982
1.05003
1
1.04018
1.04312
1.03148
1.02635
1.02739
1.04252
1
1.01849
0.982217
1
1
0.936222
1.01599
1.01263
1.03777
0.979764
0.983094
1.02354