/*--------------------------------*- C++ -*----------------------------------*\
  =========                 |
  \\      /  F ield         | OpenFOAM: The Open Source CFD Toolbox
   \\    /   O peration     | Website:  https://openfoam.org
    \\  /    A nd           | Version:  12
     \\/     M anipulation  |
\*---------------------------------------------------------------------------*/
FoamFile
{
    format      ascii;
    class       volScalarField;
    location    "15.4";
    object      p;
}
// * * * * * * * * * * * * * * * * * * * * * * * * * * * * * * * * * * * * * //

dimensions      [1 -1 -2 0 0 0 0];

internalField   nonuniform List<scalar> 
9801
(
0.623414
0.624722
0.623487
0.624582
0.626519
0.6293
0.63332
0.64367
0.659022
0.666755
0.669633
0.671165
0.671118
0.669659
0.670109
0.671961
0.674591
0.678241
0.684949
0.699437
0.71254
0.718257
0.721127
0.723025
0.721945
0.720309
0.721354
0.723757
0.726973
0.731064
0.740554
0.758524
0.770625
0.775884
0.779034
0.779688
0.774944
0.773376
0.775303
0.778753
0.782933
0.79075
0.810066
0.827533
0.834923
0.839026
0.840534
0.835343
0.831615
0.832836
0.836089
0.840648
0.847756
0.86757
0.8898
0.900376
0.905994
0.908577
0.903584
0.89819
0.898792
0.902067
0.907414
0.915431
0.936374
0.963534
0.97833
0.985785
0.991083
0.984014
0.972767
0.971602
0.977237
0.985609
0.998626
1.02999
1.06384
1.0823
1.09284
1.09862
1.08818
1.07049
1.06658
1.07522
1.09067
1.12654
1.18568
1.22319
1.24595
1.26505
1.27303
1.25283
1.22874
1.23535
1.27461
1.36888
1.50278
2.76793
10.7768
0.629335
0.630402
0.629343
0.631077
0.63362
0.636567
0.641801
0.652407
0.661863
0.668673
0.673414
0.676783
0.677933
0.675794
0.676243
0.678652
0.68172
0.685204
0.692641
0.705276
0.714799
0.720959
0.7253
0.728379
0.727106
0.72503
0.726615
0.729697
0.733298
0.73783
0.749117
0.763101
0.772042
0.777947
0.782275
0.783202
0.778526
0.777917
0.780707
0.784675
0.788899
0.797169
0.814633
0.828617
0.836318
0.841704
0.844158
0.837928
0.834327
0.836617
0.841052
0.84606
0.852595
0.870827
0.891372
0.902313
0.909058
0.913322
0.90765
0.898747
0.899533
0.904248
0.910465
0.918017
0.938632
0.965814
0.980842
0.989088
0.995084
0.989565
0.974855
0.973697
0.979609
0.988048
1.0009
1.03254
1.06488
1.08222
1.09317
1.10281
1.09683
1.07361
1.0689
1.0795
1.09377
1.12419
1.17359
1.2116
1.23732
1.26069
1.27635
1.26159
1.23864
1.23487
1.26296
1.32235
1.41849
2.60951
10.9218
0.631141
0.632776
0.631901
0.633742
0.636598
0.639892
0.645626
0.656087
0.664271
0.669858
0.674416
0.678011
0.679939
0.678762
0.679351
0.681928
0.685267
0.688875
0.696013
0.708077
0.716591
0.722105
0.726447
0.729802
0.729272
0.72755
0.729388
0.732804
0.736757
0.741708
0.753265
0.766219
0.773673
0.778785
0.782907
0.783775
0.780195
0.78083
0.784412
0.788896
0.793495
0.801717
0.817838
0.829901
0.836598
0.841623
0.844115
0.839345
0.837082
0.840215
0.845267
0.850942
0.857989
0.874596
0.893044
0.903106
0.909592
0.913972
0.909714
0.901067
0.901499
0.906624
0.913627
0.921719
0.940957
0.966649
0.981489
0.990012
0.99681
0.994295
0.979601
0.975345
0.981041
0.989893
1.00125
1.0284
1.06156
1.08185
1.09502
1.1061
1.10544
1.08141
1.07128
1.08011
1.09508
1.11654
1.16124
1.20957
1.24064
1.26397
1.28292
1.27331
1.25397
1.2515
1.26909
1.31849
1.37679
2.53535
10.9353
0.633809
0.636459
0.635814
0.637604
0.640442
0.64392
0.650242
0.66022
0.667617
0.672486
0.676462
0.680016
0.682983
0.683038
0.683456
0.685817
0.689051
0.692686
0.699548
0.711369
0.719645
0.724726
0.728782
0.732367
0.732683
0.731198
0.733063
0.736448
0.740473
0.745857
0.757267
0.769175
0.776072
0.780723
0.784751
0.786421
0.78405
0.785264
0.788706
0.792721
0.797025
0.804423
0.819068
0.830828
0.837867
0.843165
0.847262
0.844898
0.842074
0.844368
0.84854
0.853473
0.859945
0.874996
0.892955
0.903614
0.910509
0.915924
0.915462
0.906467
0.905198
0.909653
0.916341
0.924261
0.941382
0.966292
0.982214
0.991569
0.999216
1.00178
0.988191
0.97879
0.982493
0.991273
1.00161
1.02359
1.05875
1.08235
1.09598
1.10692
1.11298
1.09644
1.07761
1.07921
1.09367
1.11166
1.14451
1.19268
1.22906
1.25473
1.27872
1.28434
1.26543
1.25246
1.25568
1.29099
1.32433
2.50334
10.9709
0.63645
0.639303
0.638861
0.640602
0.643271
0.646581
0.653244
0.663784
0.671145
0.675822
0.679539
0.682923
0.685874
0.685884
0.686125
0.688356
0.691454
0.695081
0.702295
0.714702
0.723105
0.728049
0.731952
0.735497
0.735941
0.73422
0.735926
0.739081
0.742734
0.747642
0.759024
0.771867
0.779348
0.784216
0.78844
0.791096
0.788367
0.788027
0.790702
0.794239
0.798289
0.804855
0.820104
0.834155
0.842001
0.847465
0.852271
0.852274
0.846251
0.845624
0.848787
0.853334
0.859153
0.873056
0.893655
0.906654
0.914205
0.920061
0.92328
0.915089
0.908549
0.910778
0.916583
0.923566
0.936883
0.96243
0.981861
0.992796
1.0012
1.00804
1.00179
0.986612
0.983919
0.990935
1.00055
1.01552
1.04852
1.07937
1.09662
1.10897
1.12016
1.11643
1.09206
1.08118
1.0889
1.1054
1.12924
1.1722
1.21607
1.24803
1.27437
1.29507
1.28732
1.26925
1.25894
1.26961
1.28071
2.47528
11.0083
0.640207
0.64301
0.642296
0.643928
0.646447
0.649478
0.655816
0.667379
0.675318
0.679909
0.68354
0.686889
0.689614
0.688924
0.688842
0.69101
0.694075
0.697691
0.704919
0.718222
0.727281
0.732214
0.736015
0.739502
0.740041
0.737304
0.737976
0.740808
0.744403
0.74876
0.759491
0.775032
0.784075
0.789111
0.793318
0.796754
0.794293
0.790073
0.790691
0.793947
0.798278
0.804529
0.820605
0.838346
0.847702
0.853266
0.858011
0.859844
0.852104
0.846096
0.847457
0.852139
0.858216
0.870843
0.894193
0.91065
0.91923
0.925377
0.930735
0.926989
0.914559
0.91036
0.914412
0.921141
0.931602
0.956806
0.982594
0.996544
1.00561
1.01355
1.01593
0.999676
0.98775
0.989193
0.997757
1.0091
1.0346
1.07292
1.09844
1.11352
1.12563
1.13155
1.11298
1.09157
1.08864
1.10022
1.11767
1.14844
1.19256
1.22988
1.25878
1.28476
1.29828
1.28875
1.26959
1.25876
1.24415
2.43981
11.0561
0.643391
0.646007
0.644686
0.646114
0.648741
0.651924
0.657835
0.67032
0.6795
0.684085
0.687526
0.690743
0.693269
0.692064
0.690579
0.69225
0.695386
0.699242
0.706318
0.720549
0.731283
0.736617
0.740392
0.743805
0.745374
0.742155
0.739866
0.741439
0.74486
0.749253
0.75852
0.77613
0.788239
0.794299
0.798627
0.802313
0.801607
0.79452
0.791339
0.793597
0.798034
0.804492
0.819818
0.840203
0.851531
0.85759
0.862358
0.865769
0.860415
0.849895
0.847668
0.851636
0.857651
0.869002
0.892798
0.913069
0.922933
0.929218
0.934952
0.93606
0.922436
0.912435
0.91334
0.919606
0.928194
0.948865
0.980374
1.00007
1.01043
1.01834
1.02405
1.01358
0.994104
0.989209
0.994949
1.00501
1.02165
1.05807
1.09435
1.11482
1.12824
1.13957
1.13711
1.11169
1.09635
1.09808
1.11082
1.1305
1.16706
1.20832
1.24085
1.26743
1.29071
1.29601
1.28486
1.26288
1.21851
2.39618
11.1086
0.647324
0.649916
0.647579
0.648015
0.6503
0.653417
0.658705
0.671659
0.683592
0.689252
0.692637
0.695548
0.697998
0.697017
0.693779
0.693904
0.696467
0.699978
0.706246
0.720844
0.734231
0.741003
0.745195
0.748705
0.751479
0.748854
0.743618
0.743128
0.745828
0.749757
0.757396
0.775071
0.790352
0.797956
0.802747
0.806741
0.808816
0.801884
0.794939
0.795145
0.798972
0.804296
0.81736
0.839245
0.853183
0.860152
0.865122
0.869366
0.868443
0.856815
0.851593
0.853894
0.859219
0.867185
0.887867
0.912448
0.925195
0.932015
0.937573
0.940918
0.932016
0.918254
0.916495
0.921478
0.928634
0.941571
0.972068
0.999747
1.01326
1.02154
1.02822
1.0265
1.00633
0.993761
0.99529
1.00399
1.01463
1.03791
1.07867
1.10933
1.12687
1.14001
1.15005
1.14079
1.11421
1.10314
1.1082
1.12201
1.14488
1.18292
1.21902
1.24717
1.2709
1.28857
1.28828
1.27177
1.22395
2.34522
11.1632
0.65177
0.654932
0.651957
0.651125
0.652703
0.655393
0.65926
0.670476
0.685098
0.692769
0.696942
0.700149
0.702808
0.703089
0.69869
0.697132
0.698861
0.701876
0.70642
0.719182
0.734794
0.743336
0.74829
0.752169
0.75554
0.755702
0.748924
0.746564
0.74853
0.752027
0.757722
0.773129
0.790127
0.79912
0.804515
0.808869
0.812437
0.809531
0.800434
0.799254
0.80236
0.806862
0.815494
0.836003
0.853046
0.861282
0.866614
0.871299
0.873834
0.86564
0.857151
0.857989
0.862652
0.868347
0.880966
0.906851
0.924636
0.933026
0.939083
0.944578
0.943231
0.929266
0.922787
0.925216
0.931131
0.938447
0.95738
0.990759
1.01169
1.02195
1.0297
1.03602
1.02752
1.00715
1.00031
1.00352
1.01249
1.02445
1.05413
1.09432
1.12107
1.13762
1.15072
1.15767
1.14381
1.12057
1.11249
1.11865
1.13268
1.15797
1.19577
1.22742
1.25108
1.27015
1.27972
1.27477
1.2392
2.31154
11.2165
0.655555
0.659495
0.657039
0.654872
0.655952
0.658422
0.661619
0.66997
0.684867
0.694333
0.699448
0.703143
0.706226
0.708246
0.704721
0.701114
0.702205
0.704973
0.708653
0.718495
0.734525
0.744512
0.750176
0.754421
0.758089
0.760358
0.755345
0.750734
0.752079
0.755354
0.759788
0.771869
0.789633
0.799985
0.805895
0.810519
0.81461
0.815402
0.807414
0.803872
0.806254
0.810301
0.815707
0.830954
0.851558
0.86261
0.868724
0.873723
0.878197
0.875558
0.865374
0.862914
0.865462
0.869984
0.876293
0.895433
0.920975
0.934849
0.942821
0.949149
0.953791
0.945398
0.93178
0.92837
0.930758
0.936563
0.945721
0.972685
1.00559
1.02338
1.03371
1.04221
1.04645
1.0296
1.00979
1.00607
1.01099
1.01991
1.0331
1.06646
1.10537
1.12996
1.14608
1.15954
1.16583
1.15128
1.12792
1.12006
1.12647
1.14084
1.16868
1.20527
1.2334
1.25361
1.2668
1.27059
1.25336
2.29891
11.2623
0.658548
0.663219
0.662358
0.659147
0.659529
0.661815
0.66474
0.671165
0.685044
0.695513
0.701223
0.705282
0.708724
0.711679
0.710475
0.70573
0.705865
0.708369
0.71165
0.719036
0.734718
0.746142
0.752263
0.756694
0.760518
0.76368
0.761168
0.755511
0.755818
0.758753
0.762557
0.770894
0.788843
0.801728
0.808237
0.81294
0.817188
0.820248
0.81518
0.809043
0.809616
0.812812
0.81705
0.825783
0.847271
0.863854
0.871891
0.877328
0.882296
0.884787
0.875796
0.867431
0.866789
0.869868
0.87484
0.88528
0.912862
0.936172
0.947239
0.954271
0.960261
0.960393
0.944072
0.931159
0.930025
0.934375
0.941412
0.955494
0.990887
1.02206
1.03704
1.04587
1.0537
1.05405
1.03274
1.01457
1.01159
1.01604
1.02487
1.04157
1.07959
1.1175
1.14122
1.15697
1.16951
1.17178
1.1555
1.13296
1.12545
1.13203
1.14683
1.17754
1.21375
1.23832
1.25336
1.26068
1.26091
2.30816
11.3025
0.66116
0.666217
0.666815
0.663759
0.663258
0.665269
0.668045
0.672969
0.685827
0.697331
0.70343
0.707657
0.711229
0.714479
0.715134
0.710518
0.709514
0.711699
0.714846
0.72005
0.734407
0.748057
0.75489
0.759398
0.763241
0.766705
0.766506
0.760581
0.759248
0.761638
0.76522
0.770498
0.785949
0.802917
0.81127
0.816249
0.820551
0.824535
0.823421
0.815171
0.812508
0.814353
0.818026
0.82329
0.839779
0.863109
0.875244
0.881618
0.88669
0.891441
0.887914
0.874182
0.868616
0.870067
0.874852
0.881341
0.900578
0.932245
0.950092
0.958535
0.964682
0.969755
0.961621
0.940839
0.932766
0.934866
0.941151
0.948822
0.968716
1.00816
1.03478
1.04721
1.05624
1.0646
1.06057
1.03372
1.01663
1.01638
1.02334
1.03381
1.05369
1.09277
1.12715
1.14836
1.16326
1.17469
1.17562
1.15835
1.13618
1.12909
1.13507
1.15024
1.18331
1.21774
1.23849
1.24796
1.26048
2.33915
11.3421
0.663904
0.669133
0.670551
0.668073
0.66684
0.668521
0.671209
0.675025
0.686195
0.69943
0.706304
0.710585
0.714169
0.717429
0.719181
0.715258
0.713012
0.714727
0.717764
0.721609
0.73262
0.749237
0.758036
0.762663
0.766461
0.770013
0.771701
0.766347
0.762705
0.764022
0.767142
0.771117
0.781211
0.801607
0.814305
0.820284
0.824685
0.82883
0.831076
0.823349
0.81583
0.815415
0.818406
0.822968
0.832573
0.857778
0.877535
0.886044
0.891381
0.895966
0.897398
0.884691
0.872556
0.871848
0.875949
0.881636
0.891035
0.919068
0.947251
0.959447
0.966031
0.971691
0.975087
0.961527
0.942865
0.9383
0.941066
0.947575
0.956608
0.983105
1.02325
1.04651
1.05766
1.06548
1.07095
1.06316
1.03844
1.02523
1.02613
1.03273
1.0432
1.06512
1.10341
1.13423
1.15361
1.1679
1.1783
1.17853
1.1609
1.13821
1.13051
1.13539
1.15049
1.18519
1.21721
1.23336
1.25186
2.38688
11.3898
0.666992
0.672234
0.674021
0.672054
0.670051
0.671386
0.674021
0.677278
0.685649
0.700774
0.709606
0.713997
0.717484
0.720681
0.723123
0.720423
0.716708
0.71753
0.72017
0.723496
0.730066
0.747365
0.760678
0.766544
0.770343
0.773891
0.776813
0.77356
0.76705
0.766261
0.768436
0.772016
0.777711
0.795877
0.81568
0.824524
0.829238
0.833273
0.836808
0.832797
0.820928
0.817531
0.819776
0.823974
0.829761
0.847646
0.874746
0.888499
0.894853
0.899427
0.903439
0.899093
0.883052
0.876619
0.878344
0.882683
0.888215
0.90154
0.93408
0.958104
0.968901
0.975938
0.98222
0.982701
0.963241
0.946343
0.944242
0.94844
0.954747
0.963572
0.992316
1.03132
1.05224
1.0631
1.07244
1.08024
1.07203
1.0465
1.03306
1.03341
1.03989
1.05022
1.07421
1.11186
1.14035
1.15889
1.17298
1.18269
1.18209
1.16216
1.13777
1.1291
1.13253
1.14748
1.18334
1.21148
1.23742
2.44664
11.4453
0.670304
0.675491
0.677434
0.676175
0.673398
0.67422
0.676636
0.679602
0.684747
0.699427
0.712197
0.717807
0.721247
0.724391
0.727236
0.726441
0.721299
0.720301
0.722201
0.725188
0.72916
0.741987
0.760987
0.770255
0.774722
0.778254
0.781586
0.78147
0.77323
0.768784
0.769929
0.773059
0.777281
0.788326
0.81219
0.827134
0.833639
0.837728
0.841254
0.841615
0.83025
0.821787
0.822513
0.826194
0.830713
0.838482
0.863045
0.886851
0.896914
0.902701
0.907511
0.910909
0.901117
0.88523
0.880951
0.88287
0.887462
0.893653
0.912746
0.948061
0.96923
0.978333
0.984317
0.990619
0.989809
0.968484
0.952796
0.949985
0.952031
0.957729
0.968413
1.00175
1.04203
1.06399
1.07491
1.08363
1.0889
1.07832
1.05301
1.03876
1.03853
1.0453
1.05637
1.08439
1.12227
1.14855
1.16517
1.17781
1.18581
1.18382
1.16207
1.13536
1.12467
1.12652
1.14349
1.17882
1.21422
2.50613
11.4978
0.67377
0.678932
0.681118
0.68112
0.677602
0.677205
0.679084
0.681745
0.685087
0.695401
0.712452
0.721269
0.725408
0.728591
0.731575
0.732809
0.727492
0.723444
0.724276
0.726833
0.730181
0.737183
0.756831
0.77224
0.778769
0.782584
0.785859
0.788112
0.78212
0.773264
0.772495
0.775264
0.778943
0.784226
0.802439
0.825528
0.835625
0.840764
0.844774
0.848288
0.84401
0.831018
0.826655
0.828134
0.83139
0.836054
0.848159
0.877213
0.897459
0.906332
0.912222
0.917281
0.918228
0.902433
0.887787
0.885304
0.887846
0.892571
0.899537
0.923594
0.959322
0.978253
0.987974
0.99558
1.00193
0.99602
0.97005
0.954457
0.953428
0.958189
0.965208
0.976836
1.01156
1.05101
1.07137
1.08231
1.0911
1.09571
1.08345
1.05746
1.0436
1.0441
1.0515
1.06436
1.09505
1.13109
1.15476
1.17009
1.18171
1.18839
1.18433
1.16087
1.13159
1.11808
1.11915
1.13774
1.18182
2.54853
11.5384
0.677221
0.682797
0.685232
0.686751
0.683177
0.680447
0.681362
0.683686
0.686639
0.69236
0.709131
0.72318
0.729288
0.732797
0.735764
0.738258
0.735517
0.728231
0.726915
0.729078
0.732201
0.736211
0.749526
0.770602
0.781003
0.786022
0.789661
0.792937
0.792243
0.781913
0.776672
0.778017
0.781003
0.784725
0.79302
0.817018
0.836004
0.843809
0.848622
0.852781
0.855238
0.845448
0.832626
0.830131
0.832478
0.836524
0.841896
0.859666
0.890444
0.907244
0.914444
0.919704
0.924852
0.923933
0.905221
0.891632
0.889417
0.891609
0.896621
0.9058
0.936582
0.972723
0.989851
0.99765
1.00279
1.00733
1.00044
0.975825
0.96222
0.961414
0.965199
0.971788
0.985248
1.02204
1.05855
1.07726
1.08769
1.09592
1.09983
1.08881
1.06462
1.05071
1.05023
1.05639
1.06959
1.10294
1.13861
1.16063
1.17422
1.1843
1.18952
1.18416
1.15964
1.12716
1.1098
1.10834
1.14054
2.56127
11.5706
0.680124
0.68682
0.689356
0.691875
0.69018
0.684717
0.683935
0.685935
0.688776
0.692397
0.704002
0.722302
0.731505
0.736064
0.739389
0.742372
0.743311
0.7361
0.730872
0.731831
0.734619
0.737889
0.744298
0.764065
0.781291
0.788403
0.792744
0.796449
0.799458
0.794242
0.78345
0.780984
0.782981
0.786247
0.790586
0.804368
0.830652
0.845707
0.852499
0.857047
0.861137
0.860673
0.846036
0.835599
0.834946
0.837487
0.841675
0.848321
0.872111
0.902339
0.916559
0.923728
0.929479
0.934259
0.927953
0.905231
0.893492
0.894127
0.898939
0.904398
0.913565
0.945685
0.979707
0.994848
1.00346
1.01104
1.01673
1.00773
0.981606
0.967657
0.967396
0.9726
0.97961
0.992117
1.02742
1.06256
1.08117
1.09237
1.10168
1.10717
1.09657
1.06996
1.05398
1.05274
1.059
1.07338
1.10833
1.14332
1.16411
1.17693
1.18616
1.18999
1.18354
1.15724
1.12208
1.09794
1.09691
2.53391
11.5967
0.68209
0.690523
0.69315
0.695905
0.697003
0.691484
0.687559
0.688669
0.69126
0.694302
0.700537
0.717992
0.732224
0.73833
0.74222
0.74553
0.748433
0.745918
0.737279
0.735193
0.737134
0.740141
0.74385
0.755631
0.777892
0.790211
0.795735
0.799673
0.80332
0.804684
0.794486
0.785564
0.785426
0.788305
0.791888
0.797339
0.817205
0.842771
0.854346
0.860125
0.864609
0.868776
0.864884
0.847672
0.838925
0.839053
0.842097
0.846686
0.856202
0.885994
0.914109
0.925673
0.931289
0.935468
0.940109
0.932429
0.910592
0.901328
0.901163
0.903619
0.908625
0.919846
0.955183
0.989658
1.005
1.01236
1.01804
1.02328
1.01517
0.990374
0.976272
0.974366
0.977102
0.983026
0.997805
1.03634
1.07124
1.08914
1.09936
1.1077
1.11153
1.10111
1.07477
1.05749
1.05495
1.06014
1.07451
1.11119
1.14702
1.16744
1.17908
1.18654
1.18874
1.18106
1.15295
1.10958
1.07649
2.4667
11.622
0.682699
0.693226
0.696325
0.699328
0.701886
0.699858
0.69306
0.691971
0.693918
0.696672
0.700254
0.712015
0.73074
0.740265
0.744917
0.748433
0.751694
0.753582
0.746609
0.739705
0.739929
0.742568
0.745821
0.750958
0.769101
0.789523
0.798259
0.802789
0.806549
0.810197
0.807775
0.794869
0.789381
0.790355
0.792976
0.796852
0.805029
0.830737
0.853549
0.863094
0.86876
0.87346
0.876774
0.867025
0.848494
0.842555
0.844697
0.848919
0.853446
0.864087
0.896056
0.921486
0.932058
0.939055
0.94497
0.94887
0.937208
0.914087
0.904515
0.905695
0.910167
0.915607
0.925941
0.96047
0.994117
1.00934
1.01869
1.02669
1.03217
1.02275
0.995995
0.979913
0.978192
0.983302
0.990874
1.00688
1.04471
1.07671
1.0933
1.10371
1.11262
1.11807
1.1067
1.0773
1.05848
1.05547
1.06026
1.07513
1.11287
1.14897
1.16851
1.17901
1.1851
1.18565
1.17704
1.14024
1.08528
2.38265
11.6573
0.682169
0.695671
0.699332
0.702482
0.705306
0.706679
0.700583
0.695882
0.696725
0.699225
0.70222
0.708145
0.725642
0.741076
0.747581
0.751419
0.754806
0.758067
0.756715
0.747022
0.743517
0.745062
0.747867
0.751197
0.759691
0.782813
0.79948
0.806251
0.810312
0.813993
0.816796
0.808938
0.795651
0.792411
0.794465
0.797949
0.802337
0.814858
0.843984
0.862995
0.87051
0.875046
0.879269
0.882424
0.870372
0.853322
0.849092
0.85027
0.853262
0.85813
0.87237
0.907367
0.931846
0.941521
0.946513
0.951054
0.955519
0.94434
0.92166
0.912647
0.91199
0.914052
0.919048
0.931068
0.968873
1.00437
1.01974
1.02706
1.03259
1.03709
1.0296
1.00469
0.988853
0.986342
0.988916
0.994835
1.0125
1.05247
1.08454
1.10081
1.11034
1.11811
1.12175
1.1099
1.08078
1.06105
1.05708
1.06069
1.07458
1.1124
1.14854
1.16761
1.17728
1.1819
1.1823
1.16658
1.12186
2.32129
11.7042
0.680193
0.697525
0.702146
0.705397
0.708256
0.710911
0.708802
0.701462
0.700062
0.702022
0.704802
0.708011
0.718191
0.738446
0.749815
0.754838
0.75832
0.761624
0.764063
0.757519
0.748609
0.747542
0.749593
0.752696
0.756785
0.770759
0.795683
0.808755
0.814481
0.818042
0.821575
0.822029
0.808651
0.79781
0.797348
0.80027
0.803719
0.808206
0.824165
0.854183
0.870646
0.877881
0.883287
0.888142
0.889065
0.872623
0.855841
0.852605
0.855464
0.859582
0.864312
0.878995
0.914062
0.937006
0.947182
0.954763
0.960909
0.964353
0.950385
0.925587
0.91511
0.916107
0.921042
0.926965
0.938157
0.974096
1.00768
1.02245
1.03133
1.03923
1.04475
1.03741
1.01085
0.991876
0.988038
0.992093
0.99977
1.01946
1.05923
1.08922
1.10416
1.1135
1.1216
1.12726
1.1168
1.08576
1.06279
1.05686
1.0596
1.07171
1.10978
1.14675
1.16576
1.17439
1.1784
1.17436
1.15978
2.30486
11.7586
0.676558
0.697093
0.704391
0.708299
0.711408
0.714366
0.71583
0.709445
0.704187
0.704684
0.706918
0.709816
0.714364
0.730591
0.749913
0.758108
0.762099
0.765348
0.768498
0.76799
0.756998
0.750903
0.751834
0.754769
0.758108
0.763201
0.782582
0.806401
0.816627
0.821852
0.825521
0.829044
0.826566
0.810991
0.802532
0.802592
0.804769
0.808357
0.81388
0.834509
0.864643
0.879354
0.885627
0.889536
0.894104
0.895103
0.878031
0.862429
0.859302
0.860026
0.863088
0.86827
0.886126
0.923907
0.947633
0.956789
0.961626
0.966131
0.970366
0.958257
0.934394
0.924443
0.923823
0.92566
0.930348
0.94263
0.980773
1.01606
1.03142
1.03876
1.04432
1.049
1.0435
1.01853
0.999343
0.994848
0.99703
1.00325
1.02242
1.0624
1.09346
1.11007
1.12063
1.12864
1.13324
1.12206
1.0887
1.06265
1.05488
1.05714
1.06852
1.1065
1.14391
1.16241
1.17095
1.1704
1.18085
2.33132
11.8156
0.673217
0.692515
0.706123
0.711786
0.714971
0.717859
0.720508
0.718438
0.709937
0.707489
0.709246
0.712108
0.715224
0.722268
0.743229
0.759391
0.765806
0.769238
0.772363
0.775063
0.769638
0.757922
0.755129
0.756909
0.759598
0.762899
0.769976
0.793841
0.815613
0.824632
0.82988
0.833946
0.837259
0.830536
0.812851
0.805743
0.80715
0.810496
0.814113
0.819812
0.84285
0.872228
0.885616
0.892633
0.898376
0.903237
0.901657
0.881381
0.86475
0.862143
0.865317
0.869998
0.875068
0.891927
0.928459
0.951062
0.961139
0.968883
0.975132
0.978543
0.96563
0.940255
0.927457
0.926961
0.931353
0.937402
0.949312
0.985535
1.01872
1.03347
1.04231
1.05036
1.0565
1.05254
1.02701
1.0045
0.997007
0.998409
1.00411
1.02324
1.0658
1.09964
1.11641
1.12541
1.13204
1.13552
1.12514
1.09184
1.06341
1.05378
1.05463
1.06467
1.10228
1.13903
1.15823
1.16212
1.18659
2.39227
11.8771
0.673159
0.684858
0.704379
0.714292
0.718518
0.721366
0.724194
0.725993
0.719405
0.712132
0.712047
0.714328
0.717137
0.720362
0.731157
0.754723
0.76803
0.773533
0.776777
0.779821
0.780927
0.770553
0.76012
0.758832
0.761032
0.764157
0.767839
0.777814
0.804608
0.824058
0.831714
0.83632
0.840148
0.843534
0.835261
0.817963
0.812145
0.812594
0.814661
0.818512
0.825815
0.852448
0.881996
0.894839
0.900525
0.904074
0.908777
0.908114
0.888242
0.872685
0.869812
0.870631
0.873503
0.878742
0.897753
0.936855
0.961014
0.970274
0.975036
0.979361
0.983788
0.974493
0.949894
0.936619
0.934659
0.935982
0.940241
0.952603
0.991052
1.02696
1.04341
1.05133
1.05798
1.06353
1.05955
1.0324
1.00678
0.998664
1.00062
1.00713
1.02659
1.06845
1.10175
1.1178
1.12685
1.13391
1.13845
1.13002
1.09588
1.06364
1.05122
1.05088
1.05949
1.09656
1.13356
1.14871
1.18194
2.46746
11.9368
0.675036
0.680302
0.696216
0.714239
0.721663
0.725396
0.728322
0.731205
0.73046
0.720513
0.715548
0.71632
0.71864
0.721661
0.725865
0.741536
0.765299
0.776311
0.781242
0.784184
0.787265
0.785708
0.771623
0.763172
0.763435
0.766244
0.769379
0.77312
0.785257
0.813622
0.831387
0.838806
0.843945
0.848501
0.850904
0.838795
0.820392
0.814962
0.817036
0.820796
0.824625
0.831728
0.859084
0.887493
0.899649
0.906835
0.912702
0.917515
0.915061
0.893698
0.876141
0.872689
0.875688
0.880531
0.885678
0.902405
0.939416
0.962741
0.973118
0.981172
0.98759
0.991829
0.983288
0.957856
0.940536
0.936939
0.940416
0.946406
0.959326
0.996838
1.03182
1.04801
1.05649
1.06318
1.06772
1.06386
1.03849
1.01326
1.00441
1.0048
1.00911
1.02506
1.06706
1.10348
1.12166
1.13109
1.13736
1.14087
1.13324
1.09908
1.06301
1.04734
1.04581
1.05391
1.09186
1.12311
1.1659
2.54443
11.9888
0.67695
0.680758
0.687721
0.708172
0.723375
0.729304
0.732528
0.735375
0.737812
0.732665
0.721589
0.718908
0.720837
0.723828
0.7269
0.731917
0.751507
0.774102
0.783508
0.78842
0.791832
0.794811
0.790037
0.774866
0.768249
0.768742
0.770758
0.773953
0.778328
0.793744
0.822959
0.839392
0.846043
0.849988
0.853692
0.856443
0.844249
0.826855
0.822133
0.822634
0.824659
0.828596
0.837306
0.867238
0.896638
0.908916
0.91437
0.917888
0.922782
0.922569
0.902748
0.885241
0.88116
0.881273
0.883241
0.888209
0.906131
0.945912
0.972325
0.982486
0.987815
0.992419
0.997536
0.992521
0.967078
0.948368
0.94423
0.94558
0.949755
0.961982
1.00024
1.03597
1.05225
1.06009
1.06646
1.07303
1.07281
1.04811
1.01863
1.00573
1.00514
1.00979
1.0253
1.06662
1.10485
1.12374
1.13268
1.13818
1.14114
1.13482
1.10257
1.06312
1.04356
1.03968
1.0488
1.08289
1.13703
2.60997
12.0274
0.679414
0.683013
0.686279
0.697558
0.719651
0.73134
0.736209
0.739106
0.741923
0.743193
0.733922
0.724536
0.72392
0.725923
0.728389
0.731413
0.738202
0.761517
0.78256
0.791145
0.796011
0.799625
0.802352
0.794471
0.777588
0.771536
0.773154
0.77646
0.7797
0.783889
0.800927
0.830319
0.84548
0.852205
0.85751
0.862133
0.863543
0.848644
0.829944
0.824778
0.826965
0.830889
0.834922
0.842782
0.871723
0.900237
0.91259
0.920236
0.926435
0.931277
0.930223
0.910019
0.889451
0.883043
0.88493
0.889504
0.895171
0.911683
0.949254
0.974664
0.985691
0.99337
0.999788
1.00459
0.999723
0.974728
0.953394
0.946748
0.948569
0.953789
0.965793
1.00198
1.03899
1.05811
1.06802
1.07485
1.08072
1.08011
1.05502
1.02375
1.00987
1.00849
1.0118
1.0244
1.06403
1.10332
1.12288
1.1321
1.13814
1.14145
1.13626
1.10585
1.06368
1.03839
1.0328
1.03883
1.09786
2.64687
12.0539
0.682737
0.685506
0.688104
0.692331
0.708023
0.729198
0.738492
0.74282
0.745712
0.748578
0.747719
0.735388
0.727565
0.727629
0.730142
0.73317
0.736626
0.745847
0.771159
0.790123
0.797631
0.802163
0.805798
0.808311
0.799482
0.783252
0.778181
0.778827
0.780763
0.784091
0.789323
0.80922
0.83898
0.853701
0.859777
0.863216
0.867051
0.869397
0.855727
0.837652
0.832624
0.832831
0.834465
0.838326
0.847157
0.878262
0.909153
0.922114
0.927636
0.930954
0.935527
0.937126
0.919758
0.898557
0.891725
0.891921
0.894072
0.898653
0.914765
0.954051
0.982022
0.993096
0.998425
1.00328
1.00913
1.00827
0.984735
0.960764
0.952458
0.952467
0.956299
0.966667
1.00303
1.04359
1.06429
1.07349
1.07958
1.08459
1.08485
1.06314
1.0303
1.01241
1.00905
1.01192
1.02172
1.05992
1.10241
1.12411
1.13321
1.13799
1.14026
1.13586
1.10883
1.06464
1.03478
1.01818
1.04996
2.63346
12.0711
0.687035
0.688019
0.69034
0.693078
0.698731
0.718014
0.737683
0.745676
0.749481
0.752239
0.755131
0.751155
0.737025
0.731478
0.732766
0.735591
0.738574
0.741892
0.752612
0.779441
0.797129
0.804324
0.809017
0.813131
0.815403
0.803853
0.786257
0.781121
0.783167
0.78663
0.790084
0.79487
0.815245
0.844552
0.858445
0.865197
0.87076
0.875347
0.876749
0.861819
0.841792
0.834981
0.836622
0.840538
0.844944
0.85265
0.881605
0.911473
0.924558
0.932168
0.938519
0.943497
0.944824
0.92877
0.905546
0.895163
0.8952
0.89917
0.904255
0.917684
0.953715
0.981547
0.994638
1.00439
1.01143
1.01675
1.01546
0.992287
0.965999
0.955484
0.955979
0.96055
0.970086
1.00295
1.04352
1.06506
1.07534
1.08333
1.08981
1.09136
1.07006
1.03491
1.01451
1.00958
1.012
1.02148
1.05739
1.09951
1.12182
1.13137
1.13658
1.13856
1.13442
1.10981
1.06516
1.02357
1.01512
2.57192
12.0849
0.693034
0.690886
0.692915
0.695545
0.698413
0.705072
0.726705
0.745036
0.752373
0.756387
0.759487
0.761811
0.754049
0.740377
0.73663
0.737795
0.740001
0.743117
0.747098
0.760346
0.787756
0.804064
0.810575
0.814429
0.817645
0.820074
0.809401
0.792979
0.788419
0.789008
0.790791
0.794138
0.799909
0.822304
0.852557
0.866927
0.872752
0.876016
0.879895
0.882843
0.87045
0.850378
0.843398
0.843175
0.844386
0.847908
0.85599
0.886098
0.919087
0.933636
0.939633
0.943249
0.947914
0.951471
0.93956
0.915002
0.902678
0.900471
0.901428
0.905448
0.919242
0.959251
0.991918
1.00492
1.01084
1.01523
1.02096
1.02305
1.00276
0.974121
0.961445
0.959802
0.962239
0.968914
0.999693
1.04528
1.07153
1.08188
1.08766
1.0923
1.09463
1.07896
1.04376
1.0193
1.012
1.01259
1.01812
1.05116
1.09591
1.12024
1.12982
1.13429
1.13571
1.13127
1.10886
1.0559
1.01209
2.47157
12.1088
0.702471
0.695365
0.695814
0.69771
0.699855
0.702759
0.711413
0.735532
0.752801
0.759738
0.763642
0.766602
0.768152
0.757487
0.743388
0.740302
0.742541
0.745809
0.748742
0.752354
0.766761
0.794565
0.809818
0.816192
0.820933
0.825254
0.827114
0.814481
0.796537
0.791143
0.793059
0.796616
0.800213
0.805276
0.826681
0.856328
0.870368
0.877455
0.883312
0.887987
0.89039
0.878186
0.856186
0.846058
0.846178
0.849799
0.854418
0.86148
0.888225
0.920074
0.935274
0.943698
0.950566
0.955794
0.958939
0.94795
0.921574
0.905565
0.903518
0.907609
0.913694
0.925674
0.960895
0.991568
1.00574
1.01557
1.02352
1.02924
1.03045
1.01045
0.979647
0.963751
0.961714
0.965762
0.973189
1.00034
1.04425
1.0704
1.08199
1.091
1.09786
1.10065
1.08554
1.04814
1.01951
1.00948
1.0099
1.01586
1.04714
1.09197
1.11709
1.12678
1.13126
1.13191
1.1283
1.0986
1.04663
2.37868
12.1522
0.713977
0.702467
0.697852
0.698972
0.701483
0.704328
0.708084
0.719158
0.74378
0.759496
0.766052
0.770324
0.773684
0.774438
0.762278
0.749401
0.746933
0.7479
0.749821
0.752945
0.757514
0.774065
0.802004
0.816918
0.82303
0.826508
0.829855
0.832567
0.821641
0.804347
0.799023
0.799231
0.800521
0.803696
0.809332
0.831965
0.863535
0.87896
0.885028
0.888332
0.892114
0.896069
0.887827
0.865855
0.854931
0.853607
0.854312
0.857194
0.863723
0.89035
0.926232
0.944093
0.95106
0.954668
0.959422
0.964537
0.95882
0.933566
0.917129
0.913359
0.912753
0.915355
0.925042
0.961024
0.998768
1.0158
1.02292
1.02716
1.03242
1.03644
1.02155
0.990032
0.972244
0.968255
0.968829
0.972943
0.995162
1.04242
1.07589
1.08895
1.09464
1.09875
1.10096
1.09064
1.05516
1.02306
1.01068
1.00913
1.01305
1.04134
1.08715
1.1138
1.12396
1.12751
1.12862
1.11842
1.09734
2.33574
12.2071
0.722879
0.715045
0.702947
0.701682
0.703954
0.706922
0.709792
0.713213
0.725422
0.751238
0.766607
0.773051
0.77729
0.780839
0.781096
0.767
0.752619
0.749934
0.752286
0.75555
0.758569
0.762487
0.779239
0.807333
0.821711
0.828205
0.833456
0.837857
0.840022
0.828222
0.80896
0.801486
0.802577
0.80597
0.80974
0.814573
0.834935
0.865733
0.881252
0.888945
0.895307
0.900167
0.903665
0.896354
0.873737
0.858658
0.855911
0.858836
0.863276
0.869403
0.891777
0.925823
0.944134
0.954107
0.96315
0.969161
0.973488
0.967345
0.940484
0.918332
0.912279
0.914655
0.919518
0.929469
0.961955
0.997676
1.0152
1.02569
1.03491
1.0411
1.04442
1.0303
0.996304
0.973287
0.967162
0.969368
0.974638
0.994959
1.04016
1.07276
1.08613
1.09426
1.10113
1.10483
1.09635
1.06059
1.02458
1.00903
1.00659
1.00986
1.036
1.08176
1.10938
1.11941
1.12394
1.11975
1.13065
2.35256
12.2642
0.727933
0.728545
0.715506
0.707343
0.707082
0.708884
0.711292
0.714369
0.718596
0.732936
0.75877
0.772916
0.778706
0.782446
0.785489
0.785848
0.773017
0.759728
0.756945
0.757609
0.759278
0.762392
0.767247
0.785675
0.814579
0.829545
0.835576
0.838889
0.842295
0.84562
0.83673
0.817549
0.809699
0.809159
0.80989
0.812616
0.817645
0.838445
0.872067
0.890023