/*--------------------------------*- C++ -*----------------------------------*\
  =========                 |
  \\      /  F ield         | OpenFOAM: The Open Source CFD Toolbox
   \\    /   O peration     | Website:  https://openfoam.org
    \\  /    A nd           | Version:  12
     \\/     M anipulation  |
\*---------------------------------------------------------------------------*/
FoamFile
{
    format      ascii;
    class       volScalarField;
    location    "11.4";
    object      p;
}
// * * * * * * * * * * * * * * * * * * * * * * * * * * * * * * * * * * * * * //

dimensions      [1 -1 -2 0 0 0 0];

internalField   nonuniform List<scalar> 
9801
(
0.644371
0.64489
0.647266
0.651462
0.660181
0.67009
0.676443
0.680957
0.684793
0.688116
0.690857
0.690072
0.690312
0.692696
0.696379
0.703653
0.715095
0.723581
0.728926
0.733178
0.737045
0.74001
0.738984
0.738403
0.740774
0.744446
0.750915
0.763115
0.773979
0.780492
0.785265
0.789519
0.792822
0.791191
0.789849
0.792362
0.796478
0.802582
0.81522
0.82882
0.836848
0.842307
0.847072
0.850894
0.847473
0.845316
0.848148
0.852725
0.859548
0.874141
0.890606
0.900565
0.906943
0.912433
0.915514
0.908563
0.905322
0.908723
0.91448
0.923689
0.943468
0.963205
0.974976
0.982671
0.98881
0.990596
0.979437
0.974521
0.979745
0.987543
1.00196
1.03091
1.05364
1.06663
1.0761
1.08426
1.08186
1.06375
1.05981
1.06879
1.0833
1.11648
1.15636
1.18135
1.19783
1.21224
1.22092
1.19994
1.17811
1.18561
1.20851
1.25789
1.33561
1.39945
1.45673
1.52105
1.53295
2.3499
9.51239
0.650023
0.651331
0.653674
0.657542
0.666869
0.677465
0.683837
0.688121
0.691587
0.69458
0.696635
0.696044
0.696486
0.698855
0.702196
0.709439
0.721822
0.730605
0.73591
0.739968
0.743452
0.74595
0.744895
0.74438
0.746617
0.750018
0.755997
0.768932
0.780418
0.787057
0.791769
0.795773
0.798772
0.797196
0.795704
0.797884
0.80158
0.807049
0.820231
0.834694
0.843013
0.848543
0.853201
0.856578
0.853442
0.850856
0.853149
0.857333
0.863345
0.878008
0.895541
0.905942
0.9125
0.917954
0.921106
0.915018
0.911237
0.913925
0.919077
0.926846
0.946136
0.966627
0.978967
0.986916
0.993317
0.996238
0.986243
0.980425
0.98459
0.991594
1.00384
1.03143
1.0558
1.07024
1.0802
1.08864
1.08804
1.07064
1.0652
1.07309
1.08494
1.11128
1.15145
1.17926
1.1976
1.21366
1.22651
1.21252
1.18901
1.19149
1.21323
1.25057
1.31395
1.36888
1.41892
1.46986
1.46226
2.25612
9.66032
0.651887
0.653814
0.656321
0.660206
0.669815
0.68047
0.686488
0.690511
0.693796
0.69668
0.698472
0.698039
0.698859
0.701394
0.704714
0.711805
0.724589
0.733449
0.738606
0.742529
0.745905
0.748258
0.747075
0.746718
0.74906
0.752497
0.75811
0.771066
0.782972
0.789667
0.794358
0.798346
0.801463
0.799907
0.798034
0.800123
0.803832
0.809078
0.822073
0.837011
0.845461
0.850983
0.855624
0.859172
0.856391
0.853162
0.85518
0.859364
0.865052
0.879005
0.897192
0.908055
0.914769
0.920329
0.924405
0.920027
0.914771
0.91635
0.921152
0.927814
0.944411
0.966605
0.980448
0.988858
0.995587
1.00022
0.992576
0.98486
0.987479
0.994005
1.00292
1.02624
1.05459
1.07119
1.08156
1.09028
1.09323
1.07818
1.06909
1.07464
1.08569
1.10368
1.14467
1.18097
1.20186
1.21771
1.23179
1.22527
1.19909
1.19494
1.21436
1.24349
1.2974
1.35619
1.40467
1.45424
1.454
2.24716
9.66662
0.655163
0.657482
0.66006
0.663899
0.673215
0.683918
0.689981
0.694008
0.697303
0.700209
0.701678
0.701203
0.702319
0.704967
0.708288
0.714994
0.727863
0.736966
0.74214
0.74604
0.749437
0.751694
0.750328
0.750111
0.752552
0.756028
0.761132
0.773577
0.786238
0.793245
0.797976
0.801983
0.805161
0.803639
0.801476
0.803508
0.807258
0.812129
0.824
0.839649
0.848756
0.854448
0.859155
0.862991
0.86091
0.85692
0.858512
0.862695
0.867932
0.879841
0.899123
0.911423
0.918507
0.924159
0.928815
0.925797
0.918138
0.918588
0.923581
0.930032
0.943473
0.967628
0.984039
0.992833
0.999586
1.00518
1.00015
0.988912
0.989151
0.99554
1.00378
1.02186
1.05305
1.0734
1.08477
1.09396
1.10082
1.09036
1.07448
1.07546
1.08637
1.10012
1.13096
1.17293
1.19935
1.2166
1.23223
1.23723
1.21576
1.20057
1.21053
1.23542
1.27149
1.32499
1.37238
1.41704
1.43297
2.28401
9.69369
0.658595
0.6609
0.663433
0.667156
0.676129
0.687136
0.693382
0.697438
0.700787
0.703744
0.705133
0.704537
0.705617
0.708232
0.711493
0.71753
0.730365
0.740096
0.74543
0.749374
0.752829
0.755195
0.753948
0.753571
0.75583
0.759165
0.763496
0.77468
0.788602
0.79638
0.801252
0.805289
0.808633
0.807775
0.805237
0.806707
0.810099
0.814341
0.823834
0.840573
0.851464
0.857631
0.862444
0.866583
0.865865
0.861005
0.861405
0.86512
0.869952
0.879032
0.898651
0.913452
0.921338
0.927117
0.932054
0.931302
0.922755
0.921267
0.925743
0.93196
0.942114
0.965238
0.98486
0.994883
1.00199
1.00857
1.00832
0.995664
0.991078
0.996108
1.00408
1.01704
1.04666
1.07329
1.08717
1.09694
1.10602
1.10366
1.08439
1.07662
1.08429
1.09713
1.11757
1.15855
1.19498
1.21727
1.23439
1.24792
1.23842
1.21645
1.21085
1.22719
1.25479
1.29896
1.3455
1.3828
1.40193
2.31663
9.71655
0.662127
0.664329
0.666783
0.670291
0.678715
0.690239
0.696873
0.700961
0.704287
0.70725
0.708804
0.708147
0.70903
0.711567
0.714767
0.720017
0.732536
0.74322
0.748877
0.75285
0.756301
0.75893
0.758007
0.75714
0.759081
0.762308
0.766242
0.775774
0.790735
0.799676
0.804848
0.808938
0.812509
0.812552
0.809151
0.809598
0.812723
0.816868
0.824469
0.841332
0.854395
0.861411
0.866475
0.87091
0.872076
0.865948
0.863787
0.866776
0.87159
0.879235
0.897862
0.915285
0.924418
0.930617
0.93604
0.938641
0.930548
0.924354
0.926932
0.932778
0.940988
0.961449
0.985254
0.997708
1.00533
1.01225
1.01644
1.00593
0.995166
0.996363
1.00375
1.01377
1.03713
1.0703
1.09019
1.10134
1.11076
1.11471
1.09823
1.08316
1.08422
1.0951
1.10933
1.13875
1.18057
1.21042
1.23096
1.24906
1.25702
1.23952
1.22161
1.22268
1.24019
1.27019
1.31383
1.3513
1.37131
2.3516
9.74406
0.665572
0.667422
0.669754
0.673108
0.680851
0.692967
0.700381
0.704675
0.708055
0.711068
0.712862
0.711802
0.711989
0.714269
0.717456
0.722302
0.73419
0.745954
0.752243
0.756424
0.760015
0.763095
0.762634
0.760233
0.761391
0.764497
0.768586
0.77731
0.792522
0.802564
0.808152
0.812448
0.816343
0.817764
0.813281
0.811712
0.814432
0.818728
0.825952
0.842236
0.856779
0.86443
0.869664
0.874324
0.877429
0.872315
0.866738
0.868268
0.872786
0.879496
0.896058
0.916135
0.927033
0.933507
0.939122
0.943838
0.939217
0.929514
0.9288
0.933759
0.940466
0.955503
0.982521
1.00008
1.00883
1.01574
1.02161
1.01615
1.00177
0.998585
1.00428
1.01271
1.02685
1.05951
1.08894
1.10424
1.11449
1.12302
1.11769
1.09671
1.08807
1.09297
1.10471
1.12261
1.15937
1.19789
1.22472
1.2447
1.26215
1.26211
1.24238
1.22868
1.23291
1.25034
1.28242
1.32194
1.34505
2.37864
9.77468
0.669354
0.670483
0.672603
0.675719
0.682533
0.69498
0.703356
0.708134
0.711762
0.714927
0.71732
0.716328
0.715238
0.716927
0.719912
0.724204
0.735258
0.74818
0.755323
0.759892
0.763705
0.767153
0.768048
0.764496
0.764017
0.766665
0.770473
0.778268
0.793802
0.80521
0.811333
0.815885
0.819964
0.822796
0.819028
0.81508
0.816642
0.820609
0.826606
0.841804
0.858501
0.867317
0.872805
0.877533
0.881596
0.879089
0.871577
0.870889
0.874782
0.880153
0.892271
0.914766
0.929744
0.937322
0.943019
0.948179
0.947059
0.935993
0.932121
0.935415
0.941385
0.950507
0.974851
1.00009
1.01256
1.02006
1.02665
1.027
1.01286
1.00361
1.00495
1.01211
1.02124
1.04306
1.07972
1.10397
1.11724
1.12761
1.1341
1.11867
1.09734
1.09415
1.10225
1.11496
1.1379
1.17706
1.21069
1.23459
1.25401
1.26912
1.26608
1.24627
1.23324
1.23729
1.25286
1.28743
1.31752
2.40851
9.80414
0.67322
0.673738
0.675652
0.67862
0.684384
0.696605
0.706008
0.711254
0.715062
0.71832
0.721115
0.720954
0.718935
0.719995
0.722743
0.726441
0.735792
0.749721
0.758143
0.763146
0.767086
0.770612
0.772615
0.769251
0.767433
0.769447
0.772919
0.778881
0.793703
0.807309
0.814406
0.819195
0.823321
0.826773
0.824766
0.819459
0.819813
0.8232
0.827806
0.839296
0.858406
0.869996
0.876172
0.881028
0.885466
0.885595
0.87755
0.87467
0.877367
0.882175
0.889495
0.909628
0.93039
0.940534
0.946668
0.952036
0.954431
0.944954
0.936773
0.937649
0.942648
0.949172
0.964299
0.994152
1.01423
1.024
1.03115
1.03637
1.02849
1.0117
1.00691
1.01102
1.01906
1.03084
1.06177
1.0976
1.11766
1.12942
1.13914
1.14051
1.11936
1.10243
1.10261
1.11166
1.12541
1.15347
1.19184
1.22162
1.2435
1.26234
1.273
1.26721
1.24729
1.23267
1.23426
1.25068
1.28457
2.43018
9.83104
0.676996
0.677153
0.678879
0.681747
0.68656
0.698289
0.708831
0.714446
0.718362
0.721686
0.724653
0.725381
0.722941
0.723331
0.725815
0.729165
0.736507
0.750891
0.76092
0.766364
0.770461
0.77405
0.776755
0.774326
0.771222
0.772613
0.775827
0.780309
0.792546
0.808663
0.817409
0.822515
0.826716
0.83049
0.830498
0.82461
0.823401
0.826013
0.830091
0.837252
0.855724
0.871828
0.879618
0.884696
0.889225
0.891743
0.885142
0.879087
0.880049
0.884067
0.889416
0.902468
0.927226
0.9426
0.950084
0.955691
0.960511
0.956344
0.944078
0.940599
0.943473
0.949287
0.957706
0.981948
1.01175
1.02714
1.03566
1.04272
1.04438
1.02681
1.01249
1.01237
1.0187
1.02713
1.04255
1.07905
1.11104
1.12796
1.13923
1.1491
1.14741
1.12322
1.10856
1.11102
1.12115
1.1366
1.168
1.20344
1.22986
1.25028
1.26792
1.27468
1.26653
1.24464
1.2269
1.2256
1.2441
2.43377
9.85665
0.680702
0.680639
0.682195
0.684986
0.688838
0.699249
0.711218
0.717619
0.721697
0.725094
0.728171
0.729674
0.727138
0.726707
0.728912
0.732054
0.737425
0.751143
0.763311
0.76951
0.773753
0.777393
0.780518
0.779571
0.775438
0.775916
0.778801
0.782556
0.790977
0.808241
0.819868
0.825743
0.830086
0.834008
0.836044
0.830802
0.827165
0.828872
0.832477
0.837285
0.850767
0.871281
0.882422
0.888319
0.893003
0.897014
0.8941
0.884873
0.883014
0.885867
0.890562
0.897837
0.919427
0.942646
0.953482
0.959795
0.965137
0.966964
0.954926
0.944521
0.944722
0.949643
0.956249
0.969255
1.00086
1.0262
1.03775
1.04511
1.05152
1.04856
1.02845
1.01792
1.01913
1.02529
1.03418
1.05531
1.09487
1.12374
1.13939
1.15044
1.15844
1.15133
1.12761
1.11587
1.11929
1.12975
1.14774
1.1819
1.21468
1.23791
1.25574
1.27057
1.27405
1.26325
1.23878
1.21615
1.20677
2.41116
9.88426
0.684524
0.68433
0.685534
0.688161
0.691296
0.699353
0.712908
0.720847
0.725156
0.728601
0.731711
0.733797
0.731601
0.730158
0.73195
0.734951
0.738945
0.750251
0.765034
0.772736
0.777145
0.780794
0.784117
0.784807
0.780312
0.779299
0.781698
0.785191
0.790443
0.805584
0.82139
0.829012
0.833617
0.837606
0.84093
0.838029
0.831797
0.831733
0.834726
0.838863
0.846632
0.867141
0.884102
0.891853
0.896806
0.901242
0.902744
0.893428
0.886821
0.887988
0.892012
0.897367
0.910194
0.937361
0.955444
0.963774
0.969518
0.974392
0.969535
0.953778
0.948394
0.950983
0.956597
0.963437
0.982459
1.0168
1.03769
1.04792
1.05589
1.06232
1.05245
1.02982
1.02209
1.02558
1.03324
1.04308
1.0685
1.10766
1.133
1.14724
1.15833
1.16617
1.15743
1.1332
1.12258
1.12672
1.13766
1.15873
1.19386
1.22342
1.24408
1.26027
1.27131
1.27146
1.25743
1.22538
1.18997
2.36182
9.91124
0.68872
0.688255
0.688706
0.691016
0.693888
0.699415
0.713243
0.723777
0.728788
0.732297
0.735407
0.737921
0.736497
0.73384
0.734933
0.737704
0.741128
0.748836
0.765045
0.775567
0.780671
0.784429
0.787854
0.789992
0.786122
0.782988
0.784443
0.787582
0.79152
0.801724
0.820698
0.831822
0.837319
0.84146
0.84527
0.845696
0.838198
0.834944
0.836872
0.840618
0.845574
0.860148
0.882761
0.894533
0.900448
0.905066
0.909013
0.904515
0.893109
0.890795
0.893871
0.898648
0.90522
0.925655
0.952593
0.965548
0.972321
0.978
0.981976
0.971475
0.956361
0.953338
0.956141
0.961953
0.970661
0.997493
1.03195
1.0495
1.05826
1.06491
1.06932
1.05599
1.03511
1.02965
1.03306
1.04015
1.05123
1.08113
1.11909
1.14244
1.15635
1.16743
1.17294
1.16176
1.13859
1.12888
1.13295
1.14382
1.16774
1.20391
1.23127
1.24924
1.2628
1.26922
1.26751
1.2439
1.19688
2.30382
9.94022
0.693106
0.692444
0.691706
0.693688
0.69647
0.700398
0.712103
0.725803
0.73241
0.736082
0.739169
0.741929
0.741777
0.738138
0.738045
0.740389
0.74353
0.748282
0.762599
0.777406
0.784275
0.78826
0.791744
0.794717
0.79276
0.787409
0.787208
0.789781
0.793372
0.799282
0.816752
0.833496
0.841042
0.845461
0.849321
0.852116
0.846616
0.839286
0.839327
0.8424
0.846665
0.8544
0.876215
0.895469
0.903939
0.90905
0.913538
0.915032
0.904165
0.895709
0.896036
0.899459
0.904568
0.914328
0.941624
0.965254
0.975866
0.982671
0.988538
0.988857
0.971438
0.958376
0.958198
0.962774
0.969047
0.97941
1.011
1.04289
1.05759
1.06657
1.0748
1.07816
1.05972
1.03901
1.03498
1.03996
1.04814
1.06084
1.09298
1.12853
1.14973
1.16318
1.17413
1.17914
1.16653
1.14265
1.13304
1.13693
1.14805
1.1745
1.21056
1.23582
1.25184
1.26214
1.2663
1.25746
1.2214
2.26133
9.97121
0.697386
0.697324
0.695059
0.696547
0.699169
0.702367
0.710526
0.725899
0.735024
0.739551
0.742886
0.745899
0.747381
0.743683
0.741509
0.743048
0.74589
0.749421
0.759066
0.776961
0.78712
0.79205
0.795637
0.798938
0.799646
0.793465
0.790454
0.792207
0.795468
0.799562
0.811025
0.831969
0.843611
0.849116
0.853146
0.856861
0.856094
0.846492
0.842683
0.844691
0.848373
0.853042
0.866304
0.891544
0.905999
0.912644
0.917448
0.921812
0.918618
0.904486
0.898805
0.900586
0.904953
0.910678
0.926194
0.95736
0.976729
0.984993
0.99048
0.99571
0.993413
0.974764
0.964453
0.964441
0.96815
0.974457
0.988653
1.02517
1.0552
1.06855
1.07631
1.08258
1.0835
1.06458
1.04615
1.04299
1.04738
1.05519
1.07001
1.10503
1.13818
1.15735
1.16985
1.18014
1.18369
1.16992
1.14611
1.13632
1.13945
1.15009
1.17837
1.21463
1.23824
1.25178
1.25914
1.25888
1.24583
2.24873
10.0026
0.701275
0.702938
0.699317
0.69975
0.701995
0.704858
0.709895
0.72403
0.736729
0.742714
0.746449
0.749631
0.752255
0.750364
0.745743
0.745924
0.748441
0.75169
0.757201
0.773431
0.788564
0.795332
0.799367
0.802823
0.805494
0.801577
0.795104
0.795069
0.797881
0.801469
0.807252
0.825645
0.84427
0.852413
0.857048
0.860963
0.863791
0.857323
0.848219
0.847329
0.849902
0.85394
0.860308
0.880927
0.904857
0.915866
0.922015
0.926736
0.929694
0.919619
0.90584
0.903583
0.906572
0.911321
0.917554
0.938183
0.969562
0.985727
0.99395
1.00047
1.00578
0.997999
0.976608
0.967988
0.97013
0.975637
0.982281
0.997877
1.03521
1.0623
1.07439
1.08318
1.09132
1.09188
1.07048
1.05171
1.04902
1.05443
1.06311
1.08004
1.11526
1.14531
1.16301
1.17533
1.18535
1.18922
1.17388
1.14838
1.13789
1.14034
1.15028
1.17967
1.21571
1.2375
1.24915
1.25206
1.2597
2.26591
10.0368
0.704791
0.708401
0.704766
0.703298
0.704893
0.707528
0.711006
0.721382
0.737017
0.745222
0.749573
0.752918
0.755964
0.756981
0.751823
0.749533
0.751373
0.75437
0.757946
0.768318
0.787087
0.797508
0.802609
0.806398
0.809877
0.810259
0.802521
0.798806
0.800429
0.803571
0.807425
0.817848
0.840467
0.854371
0.860533
0.864768
0.868742
0.868799
0.857467
0.850849
0.852103
0.855671
0.860086
0.86982
0.895977
0.915931
0.92414
0.929451
0.934307
0.935946
0.922245
0.910253
0.909047
0.911541
0.916286
0.924515
0.951627
0.982173
0.996058
1.00279
1.00774
1.01254
1.00336
0.983042
0.975847
0.976741
0.98061
0.987359
1.00694
1.04659
1.07301
1.08476
1.09241
1.09857
1.09733
1.07721
1.05962
1.05648
1.06059
1.06833
1.08775
1.12507
1.15388
1.17039
1.18169
1.19075
1.19368
1.17731
1.15038
1.13842
1.1398
1.14871
1.1789
1.21421
1.23507
1.24205
1.26124
2.31104
10.0766
0.708105
0.712655
0.710688
0.707252
0.707989
0.710457
0.71349
0.719744
0.735133
0.746876
0.752357
0.756078
0.759365
0.762175
0.759661
0.754416
0.754563
0.75692
0.76
0.765295
0.782041
0.798423
0.805632
0.809894
0.81351
0.816538
0.812497
0.804218
0.803214
0.805752
0.809284
0.814272
0.831208
0.853285
0.863519
0.868806
0.872792
0.876282
0.870889
0.858533
0.855588
0.857748
0.861276
0.866052
0.880681
0.909096
0.925574
0.933219
0.938908
0.943837
0.941272
0.923249
0.913094
0.913823
0.917873
0.922898
0.932113
0.96222
0.990599
1.00303
1.01103
1.01781
1.02181
1.00799
0.986189
0.979309
0.982254
0.988225
0.995652
1.01614
1.05472
1.07877
1.08994
1.09851
1.10631
1.10554
1.08379
1.06435
1.06053
1.06554
1.07467
1.09667
1.13367
1.1605
1.17601
1.18717
1.19597
1.19884
1.18064
1.15139
1.13753
1.13778
1.14565
1.17629
1.21086
1.22753
1.25406
2.36986
10.118
0.711171
0.716065
0.716265
0.712277
0.711605
0.713636
0.716383
0.719903
0.731267
0.747203
0.755163
0.75945
0.76294
0.766172
0.767077
0.760832
0.757819
0.759369
0.762315
0.765911
0.775975
0.7961
0.807868
0.813213
0.816966
0.820532
0.821655
0.812921
0.80716
0.808278
0.811395
0.815031
0.822591
0.845256
0.864038
0.871776
0.876549
0.880658
0.882776
0.872334
0.861137
0.859853
0.862462
0.866417
0.872496
0.893412
0.921617
0.93502
0.94121
0.945788
0.95055
0.946155
0.927753
0.919461
0.919624
0.922507
0.927661
0.940309
0.9748
1.00204
1.01318
1.01912
1.02403
1.02768
1.01432
0.99401
0.988008
0.989461
0.993616
1.0009
1.02465
1.06426
1.08773
1.09849
1.10599
1.11219
1.11135
1.09101
1.07148
1.06705
1.07051
1.07851
1.10214
1.14061
1.1674
1.18238
1.19239
1.20006
1.20232
1.18382
1.15221
1.13556
1.13434
1.1411
1.17285
1.20249
1.23724
2.43199
10.1559
0.714317
0.71949
0.721362
0.718423
0.715454
0.716385
0.718745
0.721759
0.728222
0.745056
0.757554
0.763085
0.766596
0.769748
0.772338
0.768623
0.762256
0.762274
0.764905
0.768179
0.772935
0.789029
0.807818
0.816055
0.820461
0.82417
0.827587
0.82433
0.814029
0.811383
0.81327
0.816482
0.820643
0.833175
0.858724
0.873786
0.88053
0.885041
0.889033
0.887615
0.872707
0.864119
0.864896
0.868364
0.872552
0.879653
0.904784
0.931373
0.942959
0.949687
0.955393
0.959584
0.950008
0.929531
0.922442
0.924872
0.929824
0.935208
0.948381
0.98293
1.00769
1.01843
1.02643
1.03326
1.03621
1.02059
0.998978
0.991981
0.994655
1.00066
1.00863
1.03275
1.07035
1.09193
1.10304
1.11215
1.11971
1.11913
1.09698
1.07524
1.06958
1.07343
1.08214
1.10664
1.14514
1.17159
1.18626
1.19639
1.20379
1.20546
1.1867
1.15272
1.13244
1.12879
1.1358
1.1652
1.20974
2.48372
10.1824
0.717738
0.723209
0.725688
0.724879
0.71979
0.719204
0.721391
0.724325
0.728059
0.740115
0.757594
0.765906
0.770012
0.773307
0.776406
0.776646
0.769267
0.766003
0.767576
0.770409
0.773714
0.781611
0.802818
0.817922
0.824256
0.828104
0.831684
0.833586
0.824753
0.815759
0.815562
0.818555
0.82223
0.827238
0.845328
0.870561
0.882313
0.888127
0.892429
0.896339
0.891907
0.876097
0.869678
0.870464
0.873301
0.877787
0.887779
0.917193
0.942007
0.952162
0.957389
0.961565
0.965568
0.95538
0.936364
0.930534
0.931313
0.934271
0.939715
0.95639
0.993683
1.01823
1.0281
1.03381
1.03905
1.04254
1.02847
1.00722
1.00002
1.00098
1.00515
1.01289
1.04048
1.07983
1.10135
1.11121
1.11845
1.12485
1.12486
1.10369
1.08093
1.07411
1.07643
1.08382
1.10811
1.14844
1.17615
1.19071
1.19975
1.20604
1.20694
1.18914
1.15357
1.12774
1.12178
1.12637
1.17357
2.51078
10.2007
0.721177
0.727045
0.729587
0.730914
0.725989
0.722821
0.724157
0.726779
0.729758
0.735675
0.753287
0.767649
0.773756
0.777258
0.780373
0.782907
0.778646
0.77098
0.770202
0.772529
0.77576
0.779811
0.793086
0.815612
0.826957
0.832115
0.835566
0.839036
0.837434
0.825102
0.819637
0.82108
0.824146
0.82772
0.834335
0.8573
0.880613
0.890695
0.89651
0.90126
0.904575
0.894954
0.877708
0.873127
0.875847
0.880005
0.88445
0.895525
0.926446
0.94905
0.958536
0.965208
0.970933
0.973908
0.960266
0.939889
0.933662
0.93634
0.941406
0.947145
0.963641
0.99954
1.02241
1.03285
1.04101
1.04778
1.05068
1.03549
1.01241
1.00354
1.00557
1.0116
1.02064
1.04845
1.08511
1.10473
1.11543
1.12467
1.13221
1.13234
1.1094
1.08434
1.07618
1.07846
1.08589
1.10979
1.15027
1.17833
1.19266
1.20124
1.20681
1.20712
1.1909
1.15418
1.12442
1.10789
1.13172
2.49468
10.2132
0.72367
0.730878
0.73356
0.736133
0.73411
0.727923
0.727073
0.728989
0.731782
0.735295
0.746089
0.76601
0.776478
0.781129
0.784261
0.787283
0.787844
0.779258
0.773966
0.775141
0.778112
0.781409
0.786498
0.805063
0.826225
0.83516
0.839828
0.843379
0.846286
0.839742
0.827038
0.823904
0.825764
0.829062
0.833116
0.842646
0.869256
0.890022
0.898432
0.903264
0.90733
0.910218
0.899124
0.88364
0.880274
0.881597
0.884685
0.889552
0.904132
0.937349
0.959019
0.967524
0.972157
0.976471
0.980169
0.967483
0.947867
0.941968
0.942624
0.945518
0.951179
0.970476
1.009
1.03258
1.04203
1.04754
1.05293
1.05704
1.04416
1.02086
1.01149
1.01174
1.01566
1.02385
1.05383
1.09321
1.11433
1.124
1.13104
1.13741
1.13812
1.11661
1.09024
1.08026
1.08109
1.08696
1.10921
1.15015
1.1792
1.19348
1.20146
1.2063
1.20607
1.19092
1.15433
1.11482
1.10224
2.43639
10.2236
0.725332
0.734809
0.737551
0.740297
0.74152
0.735502
0.730751
0.731645
0.734298
0.737319
0.742078
0.758235
0.776436
0.784158
0.788127
0.791304
0.794269
0.790942
0.780997
0.778577
0.780336
0.783114
0.786572
0.794253
0.817295
0.835943
0.843569
0.847861
0.851324
0.85269
0.841038
0.829384
0.828451
0.83153
0.835169
0.839211
0.850733
0.87917
0.897838
0.905702
0.911169
0.916112
0.917505
0.902188
0.886236
0.883795
0.887156
0.891567
0.896343
0.911327
0.944194
0.964074
0.972884
0.979742
0.985465
0.988059
0.973517
0.952175
0.945014
0.94737
0.952547
0.958819
0.977479
1.01378
1.0358
1.04618
1.05443
1.06113
1.06466
1.05142
1.02628
1.01444
1.01507
1.02068
1.03025
1.05979
1.09729
1.11723
1.12787
1.13716
1.1446
1.14568
1.12319
1.09409
1.08189
1.08214
1.08761
1.10804
1.14886
1.17892
1.19325
1.20056
1.20448
1.2032
1.18943
1.14585
1.10222
2.35089
10.2431
0.724794
0.73774
0.740877
0.74378
0.746486
0.745195
0.737466
0.735287
0.736985
0.73957
0.742525
0.749768
0.770401
0.785697
0.791879
0.795446
0.798639
0.800487
0.79238
0.783277
0.782723
0.785403
0.788786
0.792528
0.803303
0.828452
0.844239
0.850897
0.855321
0.858899
0.858253
0.844421
0.835026
0.834792
0.836833
0.840207
0.844846
0.860023
0.889504
0.906514
0.913528
0.917661
0.921652
0.923085
0.908069
0.893796
0.891514
0.892731
0.895803
0.900961
0.919139
0.953869
0.973779
0.981567
0.985997
0.990444
0.994249
0.98164
0.960795
0.953746
0.954279
0.957064
0.962669
0.982892
1.02195
1.04542
1.05478
1.06019
1.06568
1.07074
1.06002
1.03447
1.02198
1.02106
1.02451
1.03208
1.06146
1.10269
1.12597
1.13614
1.14296
1.14871
1.14968
1.12961
1.09963
1.08485
1.08339
1.08763
1.10596
1.14651
1.17732
1.19147
1.19829
1.20109
1.20024
1.18029
1.13576
2.28012
10.2735
0.720843
0.73919
0.744176
0.747454
0.750384
0.752667
0.747635
0.74016
0.739547
0.741696
0.744589
0.748258
0.759807
0.781985
0.794033
0.79927
0.802466
0.805682
0.805259
0.793749
0.787304
0.788301
0.791081
0.794154
0.798078
0.812342
0.838352
0.852389
0.85876
0.863294
0.866988
0.863753
0.84703
0.838216
0.839236
0.842874
0.846598
0.851044
0.867726
0.89722
0.912752
0.919839
0.925571
0.930494
0.930296
0.91275
0.89716
0.89469
0.898039
0.902624
0.907807
0.925548
0.958838
0.977461
0.986165
0.993198
0.998955
1.00184
0.988949
0.966586
0.957139
0.958427
0.963372
0.96992
0.989349
1.02569
1.04764
1.05835
1.06697
1.07375
1.07808
1.06711
1.04038
1.02518
1.02377
1.0286
1.03704
1.06426
1.10399
1.12678
1.13775
1.14631
1.15373
1.15631
1.13717
1.10461
1.08675
1.08386
1.08711
1.10313
1.14292
1.17434
1.18878
1.19479
1.19781
1.19207
1.17845
2.25595
10.311
0.714806
0.737429
0.746723
0.751052
0.753982
0.756839
0.757351
0.748815
0.743616
0.744613
0.747228
0.750086
0.754343
0.769846
0.791675
0.801708
0.806598
0.809997
0.813057
0.808825
0.795983
0.791596
0.792897
0.79569
0.799166
0.804226
0.822065
0.847563
0.859754
0.865345
0.86949
0.872992
0.868891
0.85278
0.845524
0.845782
0.84772
0.851176
0.856625
0.876661
0.906592
0.921486
0.927776
0.931505
0.935744
0.936886
0.920575
0.905408
0.902602
0.903647
0.906539
0.9119
0.931955
0.967413
0.987
0.994683
0.999013
1.00357
1.00808
0.998151
0.975665
0.965696
0.965388
0.967806
0.973081
0.992853
1.03244
1.05718
1.06716
1.07271
1.07826
1.08387
1.07611
1.04931
1.03257
1.02965
1.03175
1.03754
1.06196
1.10515
1.13318
1.14566
1.15264
1.15818
1.1599
1.14354
1.10992
1.08841
1.08343
1.08572
1.09946
1.13807
1.17041
1.1849
1.19156
1.18952
1.20316
2.27701
10.351
0.71187
0.72935
0.746659
0.75377
0.757394
0.760405
0.763332
0.760773
0.751162
0.748451
0.749807
0.752078
0.755009
0.76074
0.780313
0.801071
0.809815
0.814217
0.817414
0.819744
0.811425
0.798508
0.795976
0.798399
0.801757
0.805059
0.810192
0.83059
0.855571
0.866741
0.872443
0.877179
0.880923
0.874425
0.856114
0.848454
0.850011
0.853742
0.857682
0.862797
0.883281
0.912497
0.926411
0.93348
0.9394
0.944288
0.944199
0.926824
0.909444
0.905585
0.908512
0.913246
0.918977
0.937762
0.970937
0.989675
0.998697
1.00603
1.01189
1.01569
1.00605
0.98235
0.9693
0.968791
0.973408
0.979808
0.998408
1.03501
1.05859
1.07015
1.07948
1.08673
1.09177
1.08377
1.05571
1.03557
1.03112
1.03476
1.04187
1.06433
1.10604
1.13479
1.14773
1.15534
1.1611
1.16358
1.14966
1.1152
1.08981
1.08238
1.08346
1.09495
1.13269
1.16507
1.18105
1.18277
1.21078
2.33169
10.3927
0.712738
0.720673
0.740664
0.755274
0.76114
0.764476
0.767519
0.769614
0.762537
0.753237
0.752249
0.754558
0.757584
0.760838
0.768264
0.790356
0.809038
0.8168
0.821381
0.824924
0.826085
0.814861
0.803587
0.802136
0.803715
0.806368
0.810009
0.81699
0.840185
0.863927
0.8741
0.879109
0.882573
0.885856
0.880072
0.863207
0.85641
0.856687
0.858413
0.861901
0.868016
0.891214
0.921252
0.93524
0.941131
0.944637
0.948933
0.950972
0.935795
0.918321
0.91395
0.914827
0.917401
0.92257
0.942071
0.977965
0.998858
1.00717
1.01169
1.01633
1.02152
1.01545
0.991934
0.97787
0.975847
0.977556
0.982229
0.999481
1.03944
1.06794
1.0796
1.08567
1.09062
1.0964
1.09279
1.0664
1.04437
1.03834
1.03924
1.04339
1.06133
1.10358
1.13576
1.15048
1.15793
1.16321
1.16625
1.15558
1.12053
1.09054
1.08029
1.08027
1.08997
1.12628
1.15933
1.17115
1.20805
2.40242
10.4345
0.714665
0.719203
0.730115
0.751969
0.763623
0.768502
0.771404
0.774226
0.774061
0.763304
0.756756
0.757573
0.760138
0.762971
0.766188
0.775188
0.799386
0.816965
0.824384
0.828979
0.832539
0.832329
0.818159
0.806666
0.806021
0.809138
0.812741
0.8162
0.823194
0.847671
0.87044
0.879821
0.88539
0.890308
0.893869
0.886361
0.86764
0.859365
0.860595
0.864354
0.868512
0.874248
0.896694
0.925532
0.938894
0.946078
0.952095
0.957036
0.958399
0.943398
0.923736
0.917058
0.91911
0.923631
0.929478
0.94706
0.980412
1.00074
1.01067
1.01856
1.02471
1.02929
1.02351
0.999196
0.981654
0.978493
0.982288
0.988338
1.00391
1.04043
1.06787
1.08097
1.09099
1.09907
1.10467
1.1012
1.07445
1.04827
1.03887
1.03999
1.04511
1.06105
1.10117
1.13531
1.15172
1.15997
1.16522
1.16801
1.15982
1.12569
1.09146
1.07761
1.07616
1.08443
1.12068
1.14755
1.19374
2.4766
10.4711
0.717402
0.721219
0.72531
0.740458
0.761519
0.771114
0.775482
0.77834
0.781
0.777385
0.765286
0.760978
0.762078
0.764518
0.767638
0.771705
0.783205
0.808157
0.824048
0.830606
0.834949
0.838398
0.837484
0.823546
0.81378
0.813142
0.814604
0.817204
0.821004
0.829937
0.85618
0.878365
0.887496
0.892064
0.89521
0.899035
0.893745
0.875882
0.867819
0.867657
0.869051
0.872396
0.878703
0.903005
0.933531
0.947648
0.953583
0.957117
0.961579
0.965027
0.953234
0.933041
0.925736
0.925817
0.92782
0.93248
0.94958
0.986002
1.00995
1.01949
1.02442
1.02904
1.03458
1.03252
1.00948
0.990596
0.985954
0.986482
0.990094
1.00255
1.0404
1.07529
1.09096
1.09807
1.10289
1.10808
1.10802
1.08473
1.05623
1.04435
1.04325
1.0466
1.05857
1.09754
1.13551
1.15369
1.16154
1.16616
1.16888
1.16302
1.13101
1.09267
1.07431
1.07057
1.07926
1.10989
1.16668
2.53657
10.4944
0.72064
0.723822
0.726442
0.731856
0.750038
0.770054
0.778558
0.782562
0.785309
0.787462
0.780216
0.767828
0.765147
0.767311
0.770518
0.773665
0.777333
0.789922
0.815657
0.830663
0.837155
0.841723
0.845593
0.844096
0.828332
0.817184
0.81672
0.81984
0.823495
0.827065
0.835471
0.861893
0.883433
0.892302
0.898229
0.903281
0.907049
0.900911
0.881564
0.870976
0.871003
0.874531
0.878926
0.884935
0.9073
0.93634
0.950375
0.958044
0.964564
0.969653
0.9726
0.961571
0.939589
0.928966
0.92925
0.933477
0.9391
0.954207
0.987602
1.01093
1.02214
1.03097
1.03768
1.04283
1.04049
1.01717
0.994576
0.987621
0.990015
0.995344
1.00668
1.0403
1.07449
1.09093
1.10071
1.1092
1.11508
1.11549
1.09287
1.0614
1.04634
1.04464
1.04828
1.05916
1.09522
1.13378
1.15331
1.16165
1.16623
1.16861
1.16441
1.13609
1.0946
1.0698
1.0643
1.06891
1.13028
2.56632
10.5078
0.724359
0.726773
0.729472
0.732373
0.73831
0.758191
0.777154
0.785302
0.789612
0.792817
0.793996
0.783543
0.772656
0.771304
0.772929
0.775151
0.778346
0.782872
0.79774
0.823297
0.837313
0.843296
0.847141
0.850416
0.849555
0.835345
0.825027
0.823977
0.8251
0.827515
0.831394
0.841435
0.869425
0.891481
0.900376
0.904824
0.907978
0.912196
0.909054
0.890755
0.879745
0.878523
0.879571
0.882472
0.888326
0.911459
0.943401
0.959306
0.965851
0.969668
0.974025
0.978543
0.971473
0.949432
0.937781
0.936398
0.937688
0.941652
0.955033
0.991082
1.0199
1.03178
1.03744
1.0415
1.0469
1.04817
1.02813
1.00435
0.996019
0.995386
0.997863
1.0053
1.03664
1.07787
1.09967
1.10828
1.11343
1.11791
1.11987
1.10239
1.0707
1.05233
1.04832
1.04983
1.05616
1.08895
1.13042
1.15197
1.16074
1.16538
1.1677
1.16456
1.14027
1.09742
1.06798
1.05113
1.0869
2.54749
10.513
0.730743
0.730272
0.732321
0.734483
0.736993
0.743556
0.765542
0.784631
0.792615
0.796952
0.799933
0.80015
0.787829
0.776507
0.775253
0.777946
0.781233
0.784276
0.788172
0.803697
0.829583
0.842992
0.849063
0.853878
0.858001
0.856856
0.840988
0.828427
0.827035
0.829961
0.833731
0.837465
0.846469
0.87375
0.895299
0.904426
0.910715
0.915938
0.920005
0.916748
0.897795
0.883498
0.881272
0.884323
0.888657
0.894602
0.915037
0.945309
0.961266
0.969747
0.976845
0.982205
0.986214
0.979799
0.956895
0.941368
0.939055
0.942683
0.947977
0.959825
0.992017
1.01978
1.03288
1.04219
1.04987
1.05542
1.05646
1.03741
1.01033
0.997929
0.997706
1.00221
1.00971
1.03575
1.07556
1.09813
1.10875
1.11722
1.12381
1.12671
1.1108
1.07629
1.05346
1.04705
1.04884
1.05548
1.08559
1.12745
1.15075
1.15983
1.16407
1.16611
1.16379
1.14321
1.10083
1.05896
1.05788
2.47915
10.513
0.740352
0.733416
0.733514
0.735463
0.738352
0.741815
0.750132
0.772896
0.791059
0.798693
0.803411
0.806887
0.806618
0.793792
0.783477
0.782235
0.783281
0.785262
0.7885
0.793573
0.81119
0.837007
0.8501
0.855791
0.859164
0.862558
0.863049
0.84908
0.836662
0.834607
0.835468
0.837521
0.841299
0.851345
0.880208
0.90338
0.912681
0.917184
0.92026
0.924573
0.924552
0.907654
0.892521
0.889291
0.890023
0.892361
0.897401
0.917277
0.951022
0.970351
0.978041
0.982226
0.986263
0.991212
0.988976
0.967456
0.950723
0.947006
0.947484
0.950481
0.959569
0.991807
1.02661
1.04294
1.04991