/*--------------------------------*- C++ -*----------------------------------*\
  =========                 |
  \\      /  F ield         | OpenFOAM: The Open Source CFD Toolbox
   \\    /   O peration     | Website:  https://openfoam.org
    \\  /    A nd           | Version:  12
     \\/     M anipulation  |
\*---------------------------------------------------------------------------*/
FoamFile
{
    format      ascii;
    class       volScalarField;
    location    "11.4";
    object      rho;
}
// * * * * * * * * * * * * * * * * * * * * * * * * * * * * * * * * * * * * * //

dimensions      [1 -3 0 0 0 0 0];

internalField   nonuniform List<scalar> 
9801
(
1.0753
1.07567
1.0786
1.08363
1.094
1.10578
1.11334
1.1187
1.12325
1.12718
1.13041
1.12951
1.12982
1.13265
1.13698
1.14547
1.15877
1.16867
1.17492
1.17989
1.18443
1.18792
1.18679
1.18618
1.18896
1.19321
1.20062
1.21453
1.22692
1.23437
1.23985
1.24477
1.24862
1.24689
1.24547
1.24839
1.25308
1.25998
1.27414
1.28937
1.2984
1.30456
1.30999
1.31434
1.31069
1.30844
1.31166
1.31679
1.32438
1.34043
1.35851
1.3695
1.37662
1.38282
1.38633
1.37906
1.37578
1.37964
1.38603
1.3961
1.41741
1.4386
1.45132
1.45976
1.46663
1.46877
1.45741
1.45263
1.45846
1.46701
1.48247
1.51312
1.53717
1.55102
1.56132
1.57033
1.56818
1.55015
1.54653
1.55628
1.57176
1.60654
1.64781
1.67371
1.69112
1.70677
1.71628
1.69602
1.6752
1.68366
1.70814
1.75989
1.83833
1.90087
1.95675
2.02541
2.05061
2.88099
8.58906
1.08028
1.08158
1.08445
1.08907
1.10011
1.11262
1.12014
1.1252
1.12931
1.13287
1.13533
1.13469
1.13524
1.13804
1.14197
1.1504
1.16475
1.17491
1.18107
1.18579
1.18989
1.19284
1.19172
1.19118
1.1938
1.19774
1.2046
1.21933
1.23237
1.23991
1.24529
1.24991
1.25339
1.25173
1.25015
1.25268
1.25692
1.26313
1.27791
1.29405
1.30333
1.30952
1.31479
1.31862
1.31528
1.31255
1.31518
1.31989
1.32661
1.34279
1.36201
1.37343
1.38068
1.38678
1.39033
1.38391
1.37999
1.38304
1.38878
1.39733
1.41821
1.44025
1.45353
1.46217
1.46923
1.4725
1.4622
1.4563
1.46097
1.46865
1.48185
1.51106
1.53676
1.55207
1.56278
1.57195
1.57155
1.55397
1.54867
1.55721
1.56989
1.59744
1.63888
1.66745
1.68651
1.70356
1.71717
1.70353
1.68067
1.68369
1.70646
1.74548
1.80989
1.86348
1.91092
1.9626
1.96215
2.76606
8.61303
1.07856
1.08056
1.08359
1.0882
1.09952
1.11201
1.11905
1.12378
1.12765
1.1311
1.13328
1.13283
1.13382
1.13679
1.14068
1.14892
1.16366
1.17384
1.17977
1.18431
1.18826
1.19103
1.18977
1.18941
1.19213
1.19609
1.20253
1.21725
1.23069
1.23824
1.24355
1.24812
1.25169
1.25004
1.24802
1.25043
1.25466
1.26061
1.27515
1.29173
1.30108
1.3072
1.31239
1.31636
1.31337
1.30992
1.31221
1.3169
1.32325
1.33862
1.35849
1.37032
1.37766
1.38377
1.38824
1.38356
1.37795
1.37971
1.38499
1.3923
1.41029
1.43411
1.4489
1.45791
1.46513
1.47006
1.462
1.45389
1.45673
1.46375
1.47333
1.49793
1.52756
1.5449
1.55578
1.56492
1.56797
1.55242
1.54309
1.54895
1.56052
1.57911
1.62092
1.65756
1.67858
1.69471
1.70902
1.7025
1.67616
1.67187
1.69113
1.72052
1.77479
1.83148
1.87539
1.92071
1.92137
2.71881
8.51204
1.0776
1.08006
1.08316
1.08768
1.09856
1.11104
1.11809
1.12276
1.12659
1.12998
1.13171
1.13119
1.13251
1.13559
1.13944
1.14716
1.16192
1.17234
1.17825
1.1827
1.18659
1.18917
1.18765
1.18742
1.19021
1.19415
1.19993
1.21395
1.22817
1.23603
1.24135
1.24586
1.24942
1.24776
1.24538
1.24765
1.25183
1.25724
1.27037
1.28762
1.29764
1.30389
1.30906
1.31326
1.31101
1.30666
1.3084
1.31296
1.31868
1.3316
1.35247
1.36575
1.3734
1.37948
1.38447
1.38124
1.37296
1.3734
1.3787
1.38554
1.39982
1.42541
1.44275
1.45201
1.45906
1.46485
1.45957
1.44765
1.44778
1.45437
1.46291
1.48165
1.51381
1.53456
1.5461
1.55539
1.56228
1.55151
1.53514
1.53594
1.5469
1.56069
1.59159
1.63326
1.65903
1.67587
1.69119
1.69599
1.67433
1.65872
1.66792
1.69174
1.72702
1.77855
1.82223
1.86205
1.8757
2.71852
8.44054
1.07623
1.07863
1.08164
1.08598
1.09638
1.10911
1.1163
1.12096
1.12478
1.12814
1.12971
1.12902
1.13027
1.13328
1.13701
1.1439
1.15849
1.16953
1.17557
1.18001
1.18387
1.18648
1.18505
1.18462
1.18715
1.19087
1.1957
1.20816
1.22366
1.2323
1.2377
1.24216
1.24581
1.24484
1.24201
1.24361
1.24731
1.25194
1.26229
1.28054
1.29238
1.29907
1.30426
1.30869
1.30788
1.30256
1.30296
1.30692
1.31207
1.32175
1.34271
1.35847
1.36682
1.3729
1.37804
1.3772
1.3681
1.36643
1.37105
1.3775
1.38805
1.41217
1.43253
1.44285
1.45013
1.45679
1.45645
1.44325
1.4384
1.44343
1.45151
1.46464
1.49477
1.52152
1.53533
1.54505
1.55402
1.55152
1.53199
1.52405
1.53143
1.54401
1.56407
1.60443
1.64
1.66145
1.67804
1.69105
1.68134
1.65929
1.65345
1.66881
1.69527
1.73776
1.78124
1.81501
1.83257
2.72904
8.40638
1.07493
1.07714
1.08001
1.08404
1.09371
1.10692
1.11449
1.11911
1.12286
1.12617
1.12791
1.12716
1.12815
1.13101
1.13462
1.14054
1.15465
1.16665
1.17297
1.17738
1.18116
1.18402
1.18298
1.18199
1.1841
1.18765
1.19197
1.20248
1.21898
1.2288
1.23445
1.23887
1.2427
1.24272
1.23898
1.23941
1.24277
1.24723
1.25541
1.27362
1.28767
1.29517
1.30054
1.3052
1.30641
1.29982
1.29746
1.30057
1.30563
1.31368
1.33338
1.3517
1.36122
1.36762
1.3732
1.37589
1.36744
1.36091
1.3635
1.36948
1.37791
1.39904
1.42347
1.43615
1.44387
1.45083
1.45504
1.44426
1.43321
1.43436
1.4417
1.45173
1.47529
1.50876
1.52849
1.53947
1.54873
1.55255
1.53586
1.5207
1.52173
1.53233
1.54622
1.57509
1.61619
1.64539
1.66528
1.68266
1.69006
1.67259
1.65489
1.65597
1.67305
1.70219
1.74334
1.77768
1.79615
2.75034
8.39974
1.07399
1.07576
1.07844
1.08224
1.09105
1.10484
1.11321
1.11803
1.12183
1.1252
1.1272
1.12598
1.12619
1.12872
1.13226
1.13767
1.15097
1.16408
1.17102
1.17561
1.17954
1.1829
1.18237
1.17968
1.18093
1.18429
1.18875
1.19831
1.21497
1.2259
1.23193
1.23653
1.2407
1.24221
1.23731
1.23559
1.23849
1.24307
1.25081
1.26829
1.28381
1.2919
1.29741
1.30232
1.30559
1.30013
1.29418
1.29577
1.30046
1.30747
1.32489
1.34589
1.35718
1.3639
1.36975
1.37464
1.36976
1.35964
1.35889
1.36395
1.3708
1.38625
1.41407
1.43194
1.44076
1.44777
1.45369
1.44803
1.43328
1.43007
1.4358
1.44424
1.45841
1.49141
1.52104
1.53617
1.54621
1.55454
1.54908
1.5279
1.51941
1.52438
1.53593
1.55356
1.58956
1.62722
1.65331
1.67283
1.6899
1.68967
1.67024
1.65716
1.66171
1.679
1.71014
1.74676
1.76707
2.76832
8.40593
1.07418
1.0751
1.07756
1.08109
1.0888
1.10286
1.11228
1.11765
1.12172
1.12525
1.1279
1.12675
1.12552
1.12741
1.13075
1.13552
1.14778
1.16208
1.16994
1.17496
1.17914
1.1829
1.18383
1.17987
1.17935
1.18226
1.18643
1.19492
1.21184
1.22418
1.23077
1.23567
1.24004
1.24305
1.23891
1.23465
1.23634
1.24062
1.24704
1.26329
1.28103
1.29034
1.29615
1.30115
1.30542
1.30269
1.29469
1.29399
1.2981
1.30372
1.31641
1.34002
1.35556
1.36342
1.36938
1.37471
1.37348
1.36187
1.35788
1.36132
1.36745
1.37679
1.40187
1.42783
1.44043
1.44803
1.45466
1.45493
1.44039
1.43098
1.43241
1.43965
1.44884
1.47072
1.50766
1.53206
1.54516
1.55526
1.56164
1.54635
1.52508
1.52202
1.53023
1.54285
1.56542
1.60351
1.63615
1.65951
1.67878
1.69354
1.69048
1.67131
1.65934
1.66387
1.67939
1.71195
1.73796
2.78988
8.41657
1.0753
1.07556
1.07777
1.08114
1.08766
1.10143
1.11198
1.11785
1.1221
1.12574
1.12886
1.12867
1.12638
1.12758
1.13066
1.13478
1.14514
1.16051
1.16975
1.17523
1.17954
1.18339
1.18558
1.18186
1.17986
1.1821
1.18593
1.19244
1.20855
1.22322
1.23084
1.236
1.24043
1.24413
1.24194
1.23619
1.2366
1.24029
1.24525
1.25754
1.27792
1.29015
1.29668
1.3018
1.30645
1.30655
1.29798
1.29492
1.29782
1.30292
1.31061
1.33175
1.35352
1.36397
1.37029
1.37581
1.37826
1.36838
1.35985
1.36079
1.366
1.37274
1.38824
1.41894
1.43954
1.44932
1.45655
1.46182
1.45384
1.43673
1.43187
1.43615
1.44432
1.45621
1.48713
1.52296
1.54307
1.55478
1.56441
1.56581
1.54493
1.5281
1.52843
1.53762
1.55124
1.57881
1.61605
1.64481
1.66617
1.68484
1.69516
1.68938
1.67031
1.65719
1.65927
1.67485
1.70455
2.80538
8.42909
1.07723
1.07714
1.07908
1.0823
1.08774
1.10097
1.11278
1.11903
1.12341
1.12714
1.13048
1.13131
1.12859
1.12901
1.13175
1.13547
1.14365
1.15953
1.17052
1.17646
1.18094
1.18489
1.18788
1.18525
1.18185
1.18336
1.18688
1.1918
1.20513
1.22256
1.23193
1.2374
1.24193
1.246
1.24603
1.23971
1.23841
1.24121
1.24561
1.25332
1.27306
1.29018
1.29834
1.30368
1.30843
1.31107
1.3041
1.29769
1.2987
1.30297
1.30865
1.32231
1.34829
1.36433
1.37198
1.37773
1.38268
1.37838
1.36567
1.36205
1.36509
1.37114
1.37981
1.40456
1.43509
1.45079
1.45928
1.46644
1.46816
1.45048
1.43594
1.43587
1.44237
1.45094
1.4664
1.50279
1.53467
1.55169
1.56289
1.57248
1.57082
1.54715
1.53274
1.53537
1.54555
1.56074
1.59145
1.62579
1.65139
1.67132
1.68846
1.69477
1.68662
1.66612
1.65013
1.64899
1.6647
2.8062
8.44459
1.07983
1.07955
1.08129
1.08442
1.08874
1.10046
1.11387
1.12103
1.12559
1.12941
1.13288
1.13457
1.13177
1.13129
1.13373
1.1372
1.14314
1.15829
1.17164
1.17844
1.1831
1.18711
1.19057
1.18956
1.18507
1.1856
1.18874
1.19282
1.20199
1.22071
1.23321
1.23951
1.24418
1.24841
1.25062
1.24503
1.24115
1.24299
1.24685
1.252
1.26636
1.28823
1.29996
1.30613
1.31105
1.31528
1.31224
1.30256
1.30061
1.30362
1.30858
1.31625
1.33873
1.36298
1.37415
1.38062
1.38612
1.38801
1.37565
1.36492
1.36514
1.37026
1.37713
1.39044
1.42259
1.44846
1.46016
1.46756
1.47401
1.47108
1.45087
1.44023
1.44152
1.44786
1.45683
1.478
1.51733
1.54588
1.56144
1.57241
1.58024
1.57331
1.55013
1.53863
1.54224
1.5526
1.57016
1.60337
1.63511
1.6577
1.67499
1.68909
1.69218
1.68159
1.65925
1.63843
1.62828
2.78619
8.46516
1.08307
1.08268
1.08403
1.08699
1.09051
1.09957
1.11475
1.12362
1.12846
1.13232
1.13581
1.13815
1.13572
1.13413
1.13612
1.13944
1.14384
1.15631
1.17258
1.18101
1.18586
1.18987
1.19353
1.1943
1.18943
1.18833
1.19095
1.19474
1.20042
1.21681
1.23389
1.24205
1.24699
1.25129
1.25487
1.2518
1.24517
1.24511
1.24832
1.25273
1.26101
1.28273
1.3007
1.30879
1.314
1.31868
1.32028
1.31057
1.30367
1.30491
1.30914
1.31481
1.32816
1.35636
1.37512
1.3836
1.3895
1.39452
1.38957
1.37343
1.36788
1.37058
1.37643
1.38345
1.40279
1.43769
1.459
1.46925
1.47714
1.48361
1.47383
1.45118
1.44338
1.44699
1.4548
1.46461
1.48998
1.52876
1.55375
1.56795
1.57893
1.58643
1.57784
1.55423
1.54391
1.54821
1.55889
1.57935
1.61333
1.64202
1.66218
1.67765
1.6879
1.6878
1.67471
1.64583
1.61163
2.74437
8.48785
1.08702
1.08635
1.08687
1.08948
1.09272
1.09893
1.11443
1.12617
1.13178
1.1357
1.13917
1.14196
1.14039
1.13746
1.13867
1.14174
1.14553
1.15403
1.17188
1.18336
1.18896
1.19308
1.19683
1.19916
1.19497
1.19157
1.19315
1.19656
1.20082
1.21185
1.23233
1.24424
1.25014
1.25459
1.25868
1.25915
1.25118
1.24773
1.24979
1.25378
1.25908
1.27446
1.29837
1.31073
1.3169
1.32177
1.32593
1.32126
1.30938
1.30697
1.3102
1.31521
1.32211
1.34327
1.37115
1.38448
1.39135
1.39718
1.40126
1.39058
1.37512
1.37202
1.37496
1.38099
1.38989
1.41717
1.45195
1.46969
1.47852
1.48517
1.48954
1.47626
1.45536
1.44986
1.45342
1.4606
1.47161
1.50135
1.53879
1.56171
1.57545
1.58634
1.59164
1.58068
1.55817
1.54884
1.55301
1.56347
1.5866
1.6216
1.6483
1.66578
1.67836
1.68416
1.68251
1.66157
1.61761
2.69514
8.51209
1.0913
1.09047
1.08964
1.09188
1.09502
1.09944
1.11256
1.12785
1.13518
1.13926
1.14269
1.14573
1.14556
1.14155
1.14145
1.14405
1.14753
1.15277
1.16849
1.18473
1.1922
1.19655
1.20034
1.20356
1.20144
1.19565
1.19543
1.19822
1.20211
1.20852
1.22731
1.24531
1.25333
1.25807
1.2622
1.26518
1.25935
1.25156
1.25161
1.25487
1.2594
1.2676
1.29059
1.31089
1.31971
1.32506
1.32976
1.33133
1.32003
1.31122
1.31157
1.31516
1.32053
1.33059
1.35877
1.38322
1.39407
1.40093
1.40694
1.40728
1.38956
1.37622
1.37604
1.38083
1.38733
1.39775
1.42968
1.46192
1.47688
1.48575
1.49377
1.49708
1.47884
1.45818
1.45415
1.45925
1.46745
1.47999
1.51188
1.54683
1.56759
1.58087
1.59162
1.5964
1.58407
1.56095
1.55178
1.55566
1.56625
1.59182
1.62688
1.65165
1.66691
1.67605
1.67978
1.6724
1.63987
2.65914
8.53613
1.09549
1.09537
1.09284
1.09452
1.09748
1.10108
1.11023
1.12738
1.13746
1.14247
1.14615
1.14946
1.15109
1.14702
1.14463
1.14634
1.14948
1.15338
1.16399
1.18358
1.19461
1.19996
1.20385
1.20741
1.20817
1.20148
1.19822
1.20012
1.20365
1.20809
1.22042
1.24292
1.25535
1.26118
1.26548
1.26942
1.26861
1.25842
1.25437
1.25649
1.2604
1.26538
1.27931
1.30588
1.32106
1.32792
1.33295
1.33748
1.33417
1.31949
1.31357
1.31544
1.32
1.32596
1.34198
1.37409
1.39402
1.40243
1.40799
1.41326
1.41094
1.39199
1.38146
1.38148
1.38535
1.39181
1.40621
1.44306
1.47317
1.4866
1.49437
1.50053
1.50143
1.48268
1.46427
1.4611
1.46561
1.47339
1.48803
1.52266
1.55521
1.57394
1.58619
1.59625
1.59962
1.58628
1.5633
1.55394
1.55696
1.56701
1.59447
1.62999
1.65304
1.66535
1.67153
1.67154
1.66121
2.64858
8.55748
1.09922
1.10109
1.09704
1.09754
1.10007
1.10328
1.10893
1.12466
1.13874
1.14532
1.14942
1.15291
1.15579
1.15371
1.14865
1.14886
1.15164
1.15523
1.1613
1.17902
1.19551
1.2028
1.20716
1.21088
1.21374
1.20951
1.20253
1.20249
1.20553
1.20941
1.21566
1.23536
1.25531
1.26392
1.26883
1.27297
1.27595
1.26911
1.25945
1.2585
1.26122
1.2655
1.27224
1.29387
1.31901
1.33049
1.3368
1.34169
1.34476
1.33433
1.32002
1.31766
1.32078
1.3258
1.33226
1.35341
1.38569
1.40233
1.41059
1.4171
1.42248
1.41463
1.39296
1.38417
1.38638
1.39213
1.3989
1.41455
1.45208
1.47937
1.49163
1.50026
1.50812
1.50862
1.48752
1.46885
1.46618
1.47169
1.48026
1.49703
1.53179
1.56122
1.57844
1.59044
1.60023
1.60395
1.58919
1.56459
1.55441
1.55669
1.5661
1.59494
1.63041
1.65125
1.66123
1.66308
1.67203
2.66323
8.57754
1.10251
1.10661
1.10255
1.10092
1.10272
1.10567
1.10955
1.1211
1.13842
1.14742
1.1522
1.15586
1.1592
1.16032
1.15468
1.15218
1.15421
1.15751
1.16144
1.17277
1.19321
1.20447
1.20994
1.21401
1.21774
1.21814
1.20982
1.20582
1.20757
1.21096
1.21514
1.2263
1.25045
1.26527
1.27174
1.27622
1.2804
1.28045
1.26848
1.26146
1.26278
1.26653
1.27124
1.28145
1.30884
1.32973
1.33821
1.34368
1.34868
1.35038
1.33625
1.32381
1.32256
1.32518
1.33014
1.33861
1.36647
1.39767
1.41183
1.41866
1.42364
1.42846
1.41922
1.39865
1.39134
1.39229
1.39633
1.40318
1.42293
1.46269
1.48905
1.50083
1.50839
1.51439
1.51318
1.49335
1.47587
1.47277
1.47696
1.48454
1.50374
1.54053
1.56869
1.58467
1.59562
1.60448
1.60735
1.59165
1.56561
1.5539
1.55513
1.56372
1.59369
1.62826
1.6474
1.65271
1.67063
2.701
8.59891
1.10557
1.11078
1.10857
1.10476
1.10559
1.10834
1.11171
1.11867
1.13569
1.14863
1.15461
1.15868
1.16229
1.16537
1.16262
1.1569
1.15707
1.15966
1.16303
1.16883
1.18701
1.20478
1.21249
1.21707
1.22095
1.22419
1.21986
1.21097
1.20989
1.21262
1.21642
1.22181
1.23983
1.26337
1.27421
1.27975
1.28393
1.28758
1.2819
1.26886
1.26573
1.268
1.27172
1.27681
1.29206
1.32172
1.33896
1.34682
1.35266
1.35776
1.35512
1.33656
1.32603
1.32677
1.33099
1.33627
1.34565
1.3764
1.40545
1.4182
1.42616
1.43292
1.43696
1.42311
1.40112
1.39414
1.39718
1.40336
1.41083
1.43134
1.46994
1.49399
1.50522
1.51367
1.52122
1.52042
1.49905
1.47977
1.47603
1.48103
1.49002
1.51179
1.54818
1.57428
1.58919
1.60001
1.6087
1.61157
1.59409
1.56566
1.55205
1.55228
1.56017
1.59077
1.62387
1.63831
1.66122
2.74968
8.61993
1.10836
1.11402
1.11422
1.10979
1.10905
1.1113
1.11435
1.11825
1.1308
1.14838
1.15706
1.16176
1.16558
1.16912
1.17011
1.16331
1.16003
1.16172
1.16494
1.16887
1.1798
1.20158
1.21428
1.21998
1.224
1.22782
1.22902
1.21967
1.21349
1.2147
1.21803
1.22195
1.23003
1.2541
1.27408
1.2822
1.2872
1.2915
1.29369
1.28273
1.27092
1.26956
1.27231
1.27649
1.28286
1.30467
1.33407
1.34801
1.35438
1.35909
1.36395
1.35945
1.34051
1.33191
1.33208
1.33509
1.3404
1.35337
1.38861
1.41625
1.42757
1.43361
1.43853
1.4422
1.42882
1.40835
1.40227
1.40379
1.40807
1.41541
1.43925
1.47874
1.50203
1.51272
1.52012
1.52618
1.52534
1.50538
1.48609
1.4818
1.48527
1.49307
1.51645
1.55422
1.58014
1.59447
1.60424
1.61194
1.61424
1.59634
1.56545
1.54924
1.54829
1.55541
1.58676
1.61403
1.64352
2.80059
8.63874
1.11123
1.1173
1.11934
1.11608
1.11279
1.11382
1.11642
1.11975
1.1269
1.14542
1.15914
1.16516
1.169
1.17244
1.17527
1.17123
1.1643
1.16432
1.16718
1.17074
1.17593
1.19331
1.21363
1.22243
1.22714
1.23111
1.23476
1.23128
1.22026
1.21743
1.21945
1.22289
1.22737
1.24066
1.26775
1.2837
1.29075
1.29545
1.2996
1.2981
1.28247
1.27342
1.27423
1.27786
1.28234
1.28979
1.3159
1.34357
1.3556
1.36243
1.36823
1.37252
1.36271
1.34167
1.33433
1.33683
1.342
1.34758
1.36097
1.39612
1.42139
1.43237
1.44031
1.44707
1.45003
1.43445
1.41274
1.40565
1.4084
1.41455
1.42247
1.44662
1.48408
1.50544
1.51647
1.52547
1.53286
1.53228
1.51056
1.4891
1.48358
1.4874
1.49601
1.52026
1.55791
1.58335
1.59739
1.60743
1.61491
1.61658
1.59824
1.56495
1.5455
1.54252
1.54996
1.57797
1.61647
2.84236
8.65242
1.11439
1.12092
1.12363
1.12273
1.11709
1.11643
1.11884
1.12208
1.12621
1.13946
1.15867
1.16772
1.17219
1.17578
1.17915
1.17941
1.1714
1.16784
1.16955
1.17262
1.17622
1.18478
1.20763
1.22389
1.23063
1.23475
1.23857
1.24058
1.23117
1.22155
1.22134
1.22453
1.22847
1.23384
1.25298
1.27968
1.29206
1.29809
1.30257
1.30661
1.30198
1.28544
1.27869
1.27953
1.28254
1.2873
1.29771
1.32827
1.35393
1.36437
1.36972
1.37394
1.37798
1.36758
1.34808
1.34206
1.34289
1.34599
1.35157
1.36862
1.40653
1.43133
1.44132
1.44706
1.45228
1.45575
1.4417
1.42039
1.41312
1.41411
1.41838
1.42615
1.45374
1.49281
1.51404
1.52378
1.53096
1.5372
1.53719
1.51645
1.49403
1.48743
1.48978
1.49708
1.52107
1.56038
1.58695
1.60102
1.61014
1.61649
1.61726
1.59963
1.56489
1.54055
1.53553
1.54002
1.58178
2.86344
8.6642
1.11756
1.12469
1.12747
1.12892
1.12347
1.11996
1.12143
1.12431
1.1276
1.13412
1.15342
1.16915
1.17576
1.17957
1.18296
1.1857
1.18108
1.17276
1.17191
1.17443
1.17794
1.18236
1.19664
1.22089
1.23304
1.2385
1.24218
1.24585
1.24414
1.23101
1.22517
1.2267
1.22998
1.23383
1.24088
1.2651
1.28969
1.30027
1.30627
1.31119
1.31462
1.30459
1.28659
1.2818
1.28465
1.28903
1.29377
1.30524
1.3372
1.36059
1.37036
1.37705
1.38283
1.38586
1.37199
1.35116
1.34475
1.34752
1.35281
1.35869
1.37541
1.4118
1.435
1.4456
1.45364
1.46032
1.46321
1.44812
1.42501
1.41605
1.41815
1.42428
1.4333
1.46113
1.49743
1.51673
1.52728
1.5364
1.54378
1.54389
1.52143
1.49677
1.48885
1.4912
1.4986
1.52213
1.56138
1.58831
1.60238
1.61113
1.61656
1.61659
1.6003
1.56495
1.53735
1.52161
1.54234
2.8496
8.67781
1.11971
1.12847
1.13141
1.13422
1.13199
1.12515
1.12421
1.12632
1.12939
1.13327
1.14509
1.16689
1.17829
1.18331
1.1867
1.18996
1.19056
1.18127
1.17554
1.17681
1.18002
1.1836
1.18913
1.20906
1.23178
1.2413
1.24621
1.24997
1.25303
1.24608
1.23258
1.22924
1.23123
1.23475
1.23911
1.24917
1.27719
1.29902
1.30779
1.31278
1.31697
1.31994
1.30843
1.29231
1.2888
1.2902
1.29346
1.29854
1.31364
1.34793
1.37015
1.37886
1.3836
1.38796
1.39171
1.37883
1.35882
1.35277
1.35347
1.35648
1.36227
1.3819
1.42087
1.44456
1.45404
1.45955
1.46492
1.46898
1.45612
1.43287
1.42348
1.4238
1.42782
1.43599
1.46588
1.50482
1.52554
1.53506
1.54205
1.54826
1.54889
1.52782
1.50199
1.49239
1.49332
1.49914
1.5209
1.5605
1.58856
1.60282
1.6109
1.61528
1.61459
1.59936
1.56509
1.52822
1.51492
2.80208
8.69541
1.121
1.13237
1.13538
1.13838
1.13972
1.13309
1.12785
1.12883
1.13175
1.13507
1.14032
1.15795
1.17783
1.18617
1.19045
1.19387
1.19706
1.19347
1.18273
1.18011
1.18202
1.18503
1.1888
1.19706
1.22174
1.24169
1.24976
1.25425
1.25788
1.25931
1.24697
1.23461
1.23362
1.23689
1.24077
1.24511
1.25725
1.2871
1.30669
1.31487
1.32046
1.32556
1.327
1.31114
1.29456
1.29201
1.2955
1.30014
1.30513
1.32054
1.35435
1.37485
1.38391
1.39079
1.39654
1.39919
1.38447
1.36276
1.35542
1.35786
1.36323
1.36961
1.38847
1.42509
1.44728
1.45772
1.46586
1.47248
1.47599
1.46289
1.43784
1.42598
1.42668
1.43233
1.4419
1.47134
1.50829
1.52782
1.53829
1.54747
1.55473
1.55572
1.5337
1.50527
1.49353
1.49389
1.49927
1.51908
1.55854
1.58788
1.60237
1.60948
1.61255
1.61072
1.59734
1.55775
1.51596
2.73151
8.71926
1.12003
1.13519
1.13865
1.14181
1.14476
1.14334
1.13485
1.13245
1.13432
1.13717
1.14043
1.14836
1.17083
1.18746
1.19411
1.19794
1.20136
1.20334
1.19461
1.1848
1.1842
1.1871
1.19076
1.19484
1.20637
1.23322
1.25005
1.25704
1.26166
1.26541
1.26472
1.25012
1.24017
1.23993
1.24211
1.24571
1.25064
1.26658
1.29746
1.31521
1.32249
1.32676
1.33084
1.33231
1.31679
1.30196
1.29958
1.30086
1.30408
1.30942
1.32819
1.36387
1.38421
1.39217
1.39668
1.40117
1.40502
1.39225
1.37109
1.36388
1.36445
1.36735
1.37305
1.39353
1.43285
1.4563
1.46565
1.47108
1.47661
1.48158
1.47091
1.44551
1.43308
1.43227
1.43579
1.44327
1.47243
1.51304
1.53582
1.54584
1.55261
1.55815
1.55901
1.53941
1.51028
1.49603
1.49467
1.49872
1.51633
1.55568
1.58615
1.60042
1.60651
1.60818
1.60683
1.58908
1.54879
2.67297
8.74803
1.11558
1.1364
1.14189
1.14545
1.14866
1.15114
1.14563
1.13745
1.13678
1.13915
1.14233
1.14639
1.15896
1.18306
1.19609
1.20169
1.20511
1.20854
1.20807
1.19571
1.18877
1.18985
1.19285
1.19617
1.20043
1.21563
1.24332
1.25821
1.2649
1.26962
1.27348
1.27008
1.25247
1.24315
1.24424
1.24809
1.25206
1.25679
1.27424
1.30505
1.32129
1.3286
1.33444
1.33949
1.33928
1.32119
1.30503
1.30245
1.30593
1.31076
1.31614
1.33436
1.3685
1.3876
1.39651
1.40353
1.40928
1.41219
1.39921
1.37657
1.36692
1.36824
1.37335
1.37999
1.39957
1.4361
1.4581
1.4688
1.47737
1.48408
1.48835
1.47751
1.45099
1.43585
1.43452
1.43936
1.44776
1.47476
1.51384
1.53615
1.54692
1.55534
1.5625
1.5649
1.5463
1.51483
1.4975
1.49464
1.49758
1.51288
1.55188
1.58327
1.59741
1.60209
1.60388
1.59834
1.58882
2.65371
8.77627
1.10903
1.13403
1.14436
1.14903
1.15223
1.15534
1.1559
1.14658
1.14091
1.14201
1.14489
1.14803
1.15272
1.16954
1.19319
1.20399
1.20918
1.21281
1.21607
1.21153
1.19776
1.19305
1.19446
1.19746
1.20121
1.20663
1.22561
1.25269
1.26557
1.27142
1.27574
1.27939
1.27508
1.25816
1.2505
1.25078
1.25285
1.25654
1.26226
1.28322
1.3144
1.32984
1.33635
1.34017
1.34448
1.34564
1.32885
1.31318
1.31027
1.31139
1.31445
1.32
1.34065
1.37692
1.39681
1.40461
1.40898
1.41357
1.41809
1.40805
1.38533
1.37519
1.3749
1.37742
1.3828
1.40276
1.44249
1.46712
1.47706
1.48263
1.48818
1.49365
1.48592
1.45939
1.44281
1.44002
1.44215
1.44783
1.47197
1.51454
1.54202
1.5542
1.56096
1.56626
1.5679
1.55214
1.51973
1.49872
1.49359
1.49556
1.50876
1.54713
1.57945
1.593
1.59782
1.59439
1.61011
2.67227
8.80012
1.10579
1.1247
1.14398
1.15168
1.15562
1.1589
1.16208
1.1593
1.14885
1.14591
1.14741
1.14991
1.15314
1.15938
1.18056
1.20296
1.21232
1.21698
1.22038
1.22284
1.21396
1.20013
1.19741
1.20001
1.20361
1.20718
1.21266
1.2343
1.26075
1.27255
1.27849
1.28341
1.28731
1.28051
1.26132
1.25324
1.25489
1.25881
1.26302
1.26841
1.28974
1.32013
1.3346
1.34186
1.34785
1.35282
1.35274
1.33492
1.31703
1.31305
1.31612
1.32109
1.32701
1.34622
1.38008
1.39917
1.40835
1.41564
1.42146
1.42527
1.4156
1.39174
1.37849
1.378
1.38277
1.38924
1.40795
1.44464
1.46817
1.47968
1.48892
1.49605
1.50099
1.49309
1.4654
1.44543
1.44106
1.44469
1.45173
1.47399
1.5151
1.54323
1.55575
1.56304
1.56861
1.57107
1.55779
1.5246
1.4996
1.49188
1.49271
1.5041
1.54204
1.57398
1.58803
1.58774
1.61465
2.71833
8.82161
1.1066
1.11483
1.13707
1.15301
1.15938
1.16301
1.16633
1.16861
1.16094
1.15085
1.14979
1.15232
1.15563
1.15921
1.16725
1.19108
1.21118
1.21945
1.22427
1.22803
1.22926
1.2173
1.20525
1.20369
1.20539
1.20823
1.21215
1.21957
1.24414
1.26921
1.2799
1.28514
1.28873
1.29212
1.28607
1.26843
1.26128
1.26158
1.26343
1.26713
1.27353
1.29771
1.32884
1.34325
1.34931
1.35289
1.35727
1.35935
1.34383
1.3259
1.3214
1.32235
1.32505
1.33036
1.35032
1.38687
1.40798
1.41637
1.42091
1.42561
1.43079
1.42466
1.40104
1.38683
1.38481
1.3866
1.39137
1.40871
1.4487
1.47701
1.48857
1.4946
1.49951
1.50512
1.50152
1.47556
1.45383
1.44794
1.44885
1.45288
1.4706
1.51235
1.54384
1.55796
1.56502
1.57026
1.57336
1.56332
1.52942
1.49965
1.48919
1.48916
1.49924
1.53586
1.56742
1.57687
1.60963
2.777
8.84199
1.10853
1.11297
1.12519
1.14909
1.16181
1.16709
1.17025
1.17332
1.17316
1.16152
1.15442
1.15533
1.15813
1.16122
1.16474
1.17444
1.20047
1.21931
1.2272
1.23203
1.23579
1.23556
1.22049
1.20822
1.20753
1.21086
1.21471
1.21845
1.22587
1.25172
1.27574
1.2856
1.29136
1.29642
1.30012
1.2923
1.27276
1.26409
1.26538
1.26935
1.27377
1.27976
1.30305
1.33291
1.34673
1.3541
1.36018
1.3652
1.36661
1.35132
1.33119
1.32431
1.32644
1.33114
1.33713
1.35504
1.38893
1.40955
1.4196
1.42748
1.4336
1.43816
1.43239
1.40805
1.39035
1.38718
1.39109
1.39718
1.4128
1.44934
1.47661
1.48956
1.49943
1.50736
1.51285
1.50946
1.48325
1.4574
1.44806
1.44915
1.4542
1.47002
1.50973
1.54305
1.55869
1.56654
1.57191
1.57488
1.56719
1.53393
1.49981
1.48606
1.48504
1.49402
1.53007
1.5545
1.59423
2.83779
8.85935
1.1114
1.11495
1.11966
1.13621
1.15925
1.16967
1.17439
1.1775
1.18039
1.1765
1.16342
1.15876
1.15997
1.16262
1.16601
1.17042
1.18279
1.20956
1.22655
1.23349
1.23805
1.24168
1.2407
1.22592
1.21552
1.21484
1.21642
1.2192
1.22328
1.23274
1.26043
1.28371
1.29325
1.298
1.30124
1.30518
1.29968
1.28109
1.27266
1.27251
1.27401
1.27754
1.28411
1.30935
1.34085
1.35533
1.36142
1.36503
1.36958
1.37308
1.36106
1.34042
1.33291
1.33301
1.3351
1.33988
1.35732
1.39431
1.41843
1.42802
1.43297
1.43766
1.44317
1.44107
1.41803
1.39906
1.3944
1.39498
1.39865
1.41112
1.44895
1.48355
1.49899
1.506
1.51077
1.51587
1.51582
1.49302
1.46493
1.45315
1.45205
1.45536
1.46727
1.50588
1.54284
1.56009
1.56769
1.57263
1.57558
1.57
1.53846
1.50024
1.48255
1.47972
1.48916
1.51843
1.56783
2.88623
8.87064
1.11493
1.11758
1.12063
1.12656
1.14643
1.16826
1.17747
1.18179
1.18477
1.1871
1.1793
1.16593
1.16303
1.16538
1.16885
1.17226
1.17623
1.18973
1.21727
1.23328
1.24015
1.24492
1.24899
1.2474
1.23072
1.21888
1.21839
1.22172
1.22562
1.22946
1.23833
1.26612
1.28872
1.298
1.30409
1.30928
1.31317
1.30682
1.28674
1.27571
1.27574
1.27947
1.28411
1.29035
1.31347
1.34343
1.35788
1.36573
1.37231
1.37743
1.38042
1.36923
1.34683
1.33592
1.33623
1.34062
1.34638
1.36173
1.39558
1.41914
1.43044
1.43925
1.44591
1.45103
1.44871
1.42546
1.40278
1.39578
1.39824
1.40359
1.41495
1.44857
1.48247
1.49864
1.50823
1.51658
1.52242
1.52286
1.50074
1.46969
1.45472
1.45306
1.45676
1.46772
1.50335
1.54066
1.55923
1.56758
1.5726
1.57512
1.57091
1.5426
1.50152
1.47822
1.474
1.47861
1.53324
2.90953
8.87937
1.11899
1.12062
1.12371
1.12691
1.13341
1.15507
1.1757
1.18451
1.18913
1.19259
1.19387
1.18264
1.1709
1.16944
1.17121
1.17361
1.17706
1.18194
1.19785
1.22514
1.24004
1.24635
1.25038
1.2538
1.25289
1.23789
1.22697
1.22586
1.22707
1.22966
1.23378
1.24436
1.27378
1.29679
1.30603
1.31064
1.31389
1.31823
1.31499
1.29605
1.28461
1.28335
1.28448
1.28753
1.29361
1.31754
1.35039
1.36663
1.37331
1.37719
1.38161
1.38618
1.37897
1.35658
1.34468
1.34328
1.34464
1.34871
1.36232
1.39885
1.42782
1.4397
1.44536
1.44945
1.45484
1.45606
1.4361
1.41232
1.40395
1.40337
1.40588
1.41332
1.44462
1.48549
1.50686
1.51531
1.52045
1.52491
1.52682
1.50967
1.47845
1.46033
1.45651
1.45814
1.4645
1.49678
1.53684
1.55758
1.56666
1.57171
1.5739
1.57041
1.54577
1.50415
1.47706
1.46119
1.49278
2.8937
8.88952
1.12574
1.12438
1.12661
1.129
1.13177
1.13892
1.16283
1.18352
1.19213
1.19678
1.19998
1.20021
1.187
1.17481
1.17346
1.17637
1.17991
1.18321
1.1874
1.20397
1.23153
1.24578
1.25217
1.2572
1.26152
1.26031
1.24361
1.23034
1.22887
1.23197
1.23599
1.23997
1.24942
1.278
1.30051
1.31002
1.31648
1.32183
1.32602
1.32267
1.30311
1.28828
1.28597
1.28918
1.29372
1.29987
1.32092
1.35202
1.36838
1.37705
1.38418
1.38957
1.3936
1.38713
1.36394
1.3481
1.34574
1.3495
1.35492
1.36693
1.39948
1.42744
1.44058
1.44983
1.45744
1.46295
1.46399
1.44509
1.41804
1.40558
1.40539
1.40993
1.41746
1.4435
1.48294
1.50505
1.51543
1.52383
1.53036
1.53318
1.51759
1.48364
1.46115
1.45502
1.45695
1.46362
1.49302
1.53341
1.55624
1.56586
1.57027
1.57174
1.56876
1.54786
1.50818
1.46881
1.4665
2.83833
8.90278
1.13589
1.12764
1.12773
1.12986
1.13302
1.13683
1.14587
1.17057
1.19021
1.19841
1.20344
1.20717
1.20688
1.19316
1.18208
1.18075
1.18189
1.18402
1.18752
1.19294
1.21173
1.23916
1.253
1.25899
1.26253
1.26607
1.26658
1.25191
1.23883
1.23666
1.23759
1.23979
1.24377
1.25432
1.28454
1.30862
1.31825
1.3229
1.32607
1.33049
1.33047
1.31306
1.29741
1.29406
1.29484
1.2973
1.30251
1.323
1.3576
1.37729
1.3851
1.38934
1.39346
1.39846
1.39617
1.3744
1.35739
1.35362
1.35413
1.35722
1.36644
1.39905
1.43399
1.45026
1.45717
1.46139
1.46629
1.46998
1.45654
1.42888
1.41411
1.41112
1.41187
1.41637
1.43795
1.48186
1.51123
1.52259
1.52816
1.53212
1.53467
1.52477
1.49316
1.46732
1.45867
1.45825
1.4621
1.48744
1.52856
1.55378
1.5643
1.56809
1.56875
1.5652
1.54874
1.50389
1.46831
2.75753
8.92504
1.14899
1.13435
1.13063
1.13261
1.13559
1.13842
1.14177
1.15126
1.17779
1.19771
1.20589
1.21061
1.21445
1.21389
1.19866
1.18538
1.18376
1.18663
1.19023
1.19376
1.19847
1.2171
1.24449
1.25787
1.26432
1.2697
1.27413
1.27425
1.25857
1.24269
1.23925
1.2419
1.24594
1.25017
1.25943
1.28771
1.31119
1.32132
1.32812
1.33367
1.33816
1.33817
1.32135
1.30238
1.29658
1.29879
1.30317
1.30899
1.32637
1.35852
1.37815
1.38783
1.39563
1.40153
1.40613
1.40402
1.3826
1.36168
1.35543
1.3579
1.36291
1.37167
1.39945
1.43281
1.45001
1.45973
1.46823
1.47432
1.47766
1.4656
1.43567
1.4159
1.41178
1.41504
1.42104
1.43888
1.47897
1.5084
1.52087
1.529
1.53602
1.53964
1.53162
1.49988
1.4699
1.45789
1.45681
1.4597
1.48075
1.52287
1.55075
1.56159
1.56473
1.56444
1.56196
1.54184
1.50679
2.69178
8.95508
1.1608
1.14964
1.13739
1.13626
1.13727
1.1394
1.14279
1.14739
1.15946
1.18659
1.20489
1.21224
1.21664
1.21982
1.21911
1.20532
1.19339
1.19156
1.19255
1.19443
1.19793
1.20368
1.22407
1.25212
1.26578
1.27154
1.27484
1.27829
1.28035
1.26773
1.25178
1.24766
1.24824
1.2499
1.25362
1.26297
1.29251
1.31879
1.3297
1.3347
1.33783
1.3422
1.34492
1.33191
1.31215
1.30536
1.30551
1.30729
1.31162
1.327
1.36196
1.38663
1.39658
1.40147
1.40496
1.40984
1.41142
1.39368
1.37181
1.36437
1.36407
1.36612
1.37174
1.39571
1.43501
1.45823
1.46755
1.47224
1.47643
1.48137
1.476
1.44848
1.42651
1.41983
1.41913
1.42145
1.43363
1.4734
1.51064
1.52703
1.53325
1.53712
1.53931
1.53456
1.50717
1.47434
1.45842
1.45512
1.45704
1.4751
1.51705
1.54705
1.55829
1.56029
1.56071
1.55336
1.55303
2.67237
8.98363
1.16626
1.16834
1.15148
1.14007
1.13952
1.14245
1.14618
1.14981
1.15404
1.16622
1.19308
1.2104
1.21743
1.22212
1.2263
1.22687
1.21248
1.19742
1.1944
1.19698
1.20073
1.20453
1.20954
1.22869
1.25616
1.2695
1.27614
1.28174
1.28628
1.2882
1.27575
1.25711
1.25025
1.25178
1.25558
1.26005
1.26817
1.29474
1.32036
1.33192
1.33916
1.34523
1.34992
1.3525
1.3408
1.31887
1.30852
1.30887
1.31285
1.31813
1.3307