/*--------------------------------*- C++ -*----------------------------------*\
  =========                 |
  \\      /  F ield         | OpenFOAM: The Open Source CFD Toolbox
   \\    /   O peration     | Website:  https://openfoam.org
    \\  /    A nd           | Version:  12
     \\/     M anipulation  |
\*---------------------------------------------------------------------------*/
FoamFile
{
    format      ascii;
    class       surfaceScalarField;
    location    "2.66";
    object      phi;
}
// * * * * * * * * * * * * * * * * * * * * * * * * * * * * * * * * * * * * * //

dimensions      [1 0 -1 0 0 0 0];

internalField   nonuniform List<scalar> 
33852
(
0.000251329
2.24281e-05
-0.000273757
-0.000246121
1.32441e-05
0.000232877
-0.000178091
-7.37858e-05
0.000250599
0.000304053
-0.000163969
-0.000140085
0.000290838
-4.27241e-05
-0.000247945
2.72441e-05
-0.000260681
0.000233437
0.000314581
1.47458e-05
-0.000330268
0.000304277
-9.59564e-05
-0.000208321
0.000286413
-3.50841e-05
0.000197028
1.88205e-06
-0.000194649
0.000289401
-0.00036632
7.69217e-05
0.000359697
-4.55731e-05
-4.39602e-05
0.000263285
-0.000219325
-4.39007e-05
0.000318294
-0.000274212
6.18434e-05
-0.000239465
0.000252057
1.2236e-05
-0.000264293
0.000264853
-1.2796e-05
-0.000278433
3.23121e-05
0.000340454
-5.10755e-05
0.000158593
0.000112308
-0.000270901
-2.43322e-05
0.000303324
-0.000279027
0.000271377
-0.000276165
4.78802e-06
-1.76674e-05
0.00027453
-0.000256496
-0.000222731
1.44948e-05
0.000206965
-0.000152783
-0.00018347
0.000336842
-0.000149782
-7.09914e-05
0.00022283
3.72401e-05
0.000267037
-6.12224e-05
-0.000262844
0.000325209
-0.00019723
1.21173e-06
0.000197305
-0.000205753
-1.94426e-05
0.000142045
0.000137388
-0.000279433
0.000340411
1.92665e-05
0.000142618
0.000128347
-0.000270965
-0.000101136
0.000259729
-0.000250489
-3.78001e-06
0.000254269
0.000330829
-5.95276e-05
-0.000271274
-0.000356193
0.000203321
-0.0002265
0.000209211
0.000231645
3.32081e-05
-5.65602e-06
0.000237301
-8.06715e-06
0.000215879
-0.000232625
0.000259869
0.000316542
-5.74685e-05
-0.000259314
-0.000309093
5.51042e-05
0.000253989
0.000240751
-0.000300636
0.000273589
-0.000306321
3.27321e-05
-0.000180237
-5.49362e-05
0.000235173
0.000272133
-0.000272133
0.000148429
-0.000297473
0.000149045
-0.000211141
0.000219844
-7.45653e-06
-0.000268241
0.000237301
3.09401e-05
-0.00020118
0.000245364
-4.75097e-05
-9.16164e-05
-0.000217477
-0.000114504
-0.000251823
-0.000280169
0.000266113
1.40561e-05
0.000329835
1.18762e-05
-0.000250433
7.01963e-05
0.000117908
0.000145909
-0.000263817
1.34681e-05
-0.000267457
0.000253989
-0.000134569
0.000282997
-0.000157232
-5.34393e-05
0.000202902
-0.000274681
0.000245113
2.95681e-05
0.000237553
-0.000268437
3.08841e-05
-0.000177832
-2.2609e-05
0.000151665
0.000115565
-0.00026723
-0.00019087
-2.81615e-05
0.00021947
0.000263985
2.24281e-05
0.000275941
-2.35201e-06
0.000265329
-0.000250741
-1.45881e-05
0.000228275
-6.49384e-05
-0.000161686
-1.82001e-06
0.000239373
0.000367474
-0.00031346
-5.39692e-05
-2.82653e-05
0.000303749
-0.000275635
-0.000101584
0.000219493
0.000343092
2.41792e-05
-0.000373295
0.000354385
1.84181e-05
-0.000212081
2.2176e-05
0.000308015
-0.000320695
1.2206e-05
-0.000208369
0.000272264
-6.42319e-05
-4.45202e-06
1.71957e-05
-0.000319759
0.000302198
0.000235082
-0.000197335
-3.54631e-05
0.000270231
-0.000339197
7.0119e-05
0.000334264
-6.36133e-05
-0.000268941
0.000236573
3.23681e-05
-0.000129388
-0.000132609
0.000261997
-1.86761e-05
-0.000249565
-1.022e-05
-0.000258721
2.31364e-05
0.00020862
-0.000235194
3.07039e-05
-0.000218723
0.000190894
-2.49668e-05
0.00032653
-0.000301974
-0.000279329
0.000273701
5.62802e-06
0.000156129
-0.000296857
0.000140729
-5.98889e-05
-0.000149911
0.000208859
0.000143277
0.0001218
-0.000265077
-0.000250224
0.000225825
-0.000211715
0.000152615
-0.000168813
0.000327181
-0.000158369
0.000185389
7.16523e-05
-0.000257041
0.000255193
2.07481e-05
-0.000192277
0.000148317
5.00934e-05
0.000266052
0.000306806
-0.000290137
9.53986e-05
-0.000240575
0.000135241
0.000117096
-0.000281065
-1.22315e-06
0.000244454
-0.000242285
0.000166489
0.000122836
-0.000289325
0.000144957
9.08757e-05
-3.92002e-06
0.000259113
0.000302487
5.40871e-06
-0.000323891
0.000314992
8.96012e-06
-3.99002e-05
0.000236293
-0.000196393
4.08802e-06
-0.000284257
-2.4892e-05
0.000169247
-0.000147929
-0.000165445
0.000135044
0.000206375
-0.0001718
-0.000269921
0.000264965
4.95602e-06
2.64041e-05
0.000174721
-0.000201125
2.87841e-05
-0.000257265
0.000228481
0.000276137
-0.000262669
0.000115108
0.000212073
0.000216667
-0.000193782
-0.000175813
0.000202217
1.37402e-05
0.000282903
-0.000296602
0.000270635
2.18954e-05
0.000271093
-0.000284563
1.22949e-05
3.86402e-06
0.000267513
-1.80997e-05
0.000288686
0.000330554
9.90705e-06
0.00021395
-0.000257818
0.000316823
-0.00031635
-6.63603e-06
-0.000272693
2.78167e-05
0.000202045
0.000187993
3.98722e-05
-0.000227865
-5.51273e-05
0.000218149
-0.000164955
0.000153609
-0.000270285
0.000116676
0.000279441
-0.000329701
5.02602e-05
-6.38122e-05
0.000249201
-0.000166909
0.000315897
-0.000148989
-0.00031381
-1.00589e-05
-0.000214929
0.000175029
2.78601e-05
-0.000278349
0.000276221
-1.88441e-05
-0.000248613
1.71468e-05
-0.000302514
0.000284713
0.000344989
-0.000158593
-0.000186397
-1.69504e-05
-0.000240688
0.000257233
-0.000266617
-3.30401e-06
0.000224001
2.45841e-05
-0.000248585
0.000284509
-0.000128381
0.000140197
0.000138853
-0.000279049
-0.000199752
-1.0511e-05
0.000258169
-0.000115551
0.000225561
-0.000242518
-6.38122e-05
0.000251805
-0.000208515
0.000249481
-5.60002e-07
-0.000248921
0.000255109
-0.000237441
-0.000323532
0.000298496
-3.08841e-05
0.000203169
-0.000172285
0.000292118
1.26113e-06
-0.000292876
7.34792e-05
0.000130581
-0.000212221
4.85978e-05
-0.000207775
-0.000289949
-4.74904e-06
0.000294721
-1.46684e-06
-0.00028826
0.000146973
-0.000273925
0.000126952
-0.000263615
0.000220774
-0.000293572
0.000265554
0.000279441
-0.000313788
-1.24578e-05
0.000326479
0.000110616
0.00016129
-2.13402e-05
0.000352137
0.000140141
0.000139833
-0.000279973
0.000245029
-0.000250349
5.32002e-06
-0.000210953
0.000180069
0.000279133
-5.43202e-06
0.000351027
-3.26416e-05
-0.000302692
0.000302509
-1.73761e-06
0.000270985
-0.000270985
-0.000364832
0.000225998
0.000138754
-0.000207341
1.8444e-05
1.69888e-05
0.000275157
-0.000278461
3.30401e-06
-4.99491e-06
0.000173113
-0.0001673
-0.000197345
0.000254801
-5.74562e-05
-0.000206556
4.47763e-06
-0.000249905
0.000167062
8.50334e-05
-0.000180265
0.000261399
-8.11393e-05
0.000256285
-0.000287113
3.08281e-05
-0.000249229
5.18842e-05
-2.3444e-05
0.000276235
-0.000252487
-0.000253547
1.35801e-06
0.000252189
0.000231281
-7.28003e-06
-0.000294547
7.53982e-06
0.000286988
-0.000266085
0.000266085
-0.00028349
-5.48357e-05
-0.000170746
-0.000194085
-0.000172283
0.000219813
-4.49989e-05
-1.232e-05
-0.000239177
0.000251497
3.10801e-06
0.000210113
-0.000213221
-0.000185221
-2.27249e-05
0.000208524
7.65213e-06
0.000294484
-0.000302134
-0.000236153
-1.34401e-05
0.000249593
1.50361e-05
-0.000251189
-0.000241025
0.000256061
-0.000301387
0.000309009
0.000256117
7.16803e-06
-0.00016954
-3.21461e-05
0.000203559
-0.000145237
-0.000134765
-0.000244329
0.000240549
0.000298609
-3.84525e-07
-0.000298123
-0.000298789
5.78878e-07
0.000298191
1.91522e-05
0.000181217
0.000163773
7.70044e-05
-0.000257269
-0.000159242
0.000310908
0.000250721
-0.000108677
-0.000235145
-1.83681e-05
0.000253513
-0.000204616
-0.000126924
0.000331483
-6.10402e-06
-0.000229125
0.000235229
-2.29109e-05
-0.000192009
-0.000287443
-8.58649e-05
6.38016e-06
-0.000300885
-0.000212703
0.000327997
-0.000115405
0.000281597
0.000288205
-5.16322e-05
0.000271993
-1.57081e-05
-0.000188101
-1.39764e-05
0.000202054
0.000297632
2.57819e-07
-0.000297907
-0.000270208
-3.25925e-05
-0.000218821
0.000247605
-2.52516e-05
0.000310656
-0.000285424
0.000178097
7.79514e-06
-0.000186397
-3.39385e-05
0.000212288
-0.000301341
0.00027609
0.000291551
5.22213e-06
-0.000297198
0.000157445
0.00011886
-0.000276305
0.00028869
6.01858e-06
-0.000292468
-0.000242766
0.000123881
0.000130797
-0.000281607
0.000295406
0.000302513
-0.000156857
-0.000145657
0.000207005
-0.000203897
-0.000232009
-0.000121156
-0.000155009
-4.12003e-06
-0.00029407
0.000298079
-1.0136e-05
0.000276249
0.000292839
-2.11101e-05
-0.000269953
-0.000263026
2.87831e-05
0.000233888
0.000271433
-0.000267569
0.000249621
2.95121e-05
0.000314757
-9.76432e-06
-0.000305136
4.88967e-05
0.000153247
-0.000201883
-0.000102795
0.000202038
-9.81224e-05
0.000252617
-2.91201e-05
-0.000223497
3.46548e-07
0.000291174
-0.000181648
-3.22254e-05
0.000215332
-1.65704e-06
0.000291594
-9.33244e-05
0.000246933
-0.000255417
-5.26402e-06
0.000121184
0.000181329
1.34121e-05
0.000241557
-0.000254969
0.000236097
1.34961e-05
-0.000249593
0.000249509
-0.000242929
0.000256425
6.34561e-05
-0.000202015
0.000137761
-0.000216523
0.00011707
-0.000201567
0.000297184
1.40818e-06
-0.000298603
0.000253849
2.22881e-05
0.000268493
-0.000216441
-5.20522e-05
0.000225518
-0.000246849
2.13305e-05
0.000257909
1.40841e-05
5.94649e-05
0.000294339
0.000267186
-3.89594e-05
-0.000228226
0.000173712
1.274e-05
0.000240297
-0.000253037
0.000194668
-0.000114571
-7.98775e-05
-0.000206719
2.15288e-05
-1.28911e-06
-0.000297822
0.000299105
0.000220708
-0.000166825
-5.26964e-05
0.000344629
-4.12989e-05
0.000275969
-0.000135829
2.31561e-05
0.000238337
-0.000261493
-0.000231141
0.000254297
-2.66763e-05
-0.000229743
0.000256433
0.00015848
-0.000163012
-7.29043e-05
-0.000163261
-0.000261723
4.14346e-05
0.000220288
-3.17521e-05
-0.00022997
7.05337e-06
0.000261717
-3.25193e-05
-0.000229198
1.67711e-05
0.000126401
-0.000191314
0.000308785
-0.000171397
0.000262319
-3.57923e-05
-0.000226526
-0.000319726
0.000169287
-9.73094e-05
-0.000228453
-6.90203e-05
1.23695e-07
-0.000298503
0.000300017
-2.76915e-05
0.000186108
-0.000162315
0.000307802
6.86156e-06
0.000250097
-0.000248249
-1.84801e-06
-0.000175796
6.17037e-05
0.00026027
-3.073e-05
-0.000229542
0.000197345
-0.000250769
5.34242e-05
0.000254206
-0.000231206
-2.29991e-05
-0.000252337
0.000240017
0.000143297
0.00010058
-0.000101864
-0.000170269
0.000132496
-0.000261885
-0.000290249
0.000242201
4.80484e-05
0.00021681
3.1247e-05
-0.000248056
-0.000237885
-8.97176e-06
0.000249404
0.000326393
-2.30331e-05
0.000263996
-3.42721e-05
-0.000229724
0.000147331
-0.000242444
9.46201e-05
3.63259e-05
-0.000265637
0.000229311
-0.000253905
0.000121296
0.000249817
-5.24722e-05
0.000294673
-0.000154253
-0.000140421
0.000122248
-0.000289157
1.53441e-05
0.000237665
-0.000253009
-0.000262031
3.54705e-05
0.00022656
-2.68959e-06
-3.77917e-05
-0.000224239
0.000249361
-0.000272729
-0.000264649
3.44737e-05
0.000230175
0.000193257
0.000101416
-0.000149941
0.000290137
-0.000170376
-3.84108e-05
0.000210003
-1.81721e-05
0.000263201
-0.000292786
0.000309444
0.00011728
0.000103767
0.000261325
-0.000261325
0.000308491
-2.05515e-05
-0.00028962
5.32002e-07
0.000248949
0.000254857
1.65761e-05
0.000309323
-0.000276294
-3.32346e-05
-2.26336e-05
0.000266577
-0.000243943
3.00077e-05
-0.000260519
0.000230511
-0.000252139
0.000229506
0.000326613
3.11501e-05
-0.000260598
0.000229447
0.000276809
-3.16961e-05
-6.92819e-06
-0.000292103
0.000301065
0.000270616
3.85599e-05
0.000230245
-0.000266617
3.63721e-05
0.000201957
-0.000202533
-0.000258301
0.000238533
1.97681e-05
0.000169762
-0.000257245
8.74835e-05
-0.000205927
0.000163241
-0.000249145
8.59043e-05
-0.000266169
0.000224813
4.13562e-05
0.000253073
-2.78797e-05
-0.000225194
0.000171815
4.25004e-05
-0.000234837
-2.29601e-05
0.000257797
-0.000236377
-2.28761e-05
0.000259253
-1.94265e-05
0.000255969
-0.000236542
-0.000259345
0.000239919
-3.62432e-05
0.000179219
-0.000235929
-2.24001e-05
0.000258329
-0.00025484
0.000229192
2.56481e-05
2.94001e-06
0.000211289
-0.000214229
-0.000267031
3.79849e-05
0.000229046
0.000270677
4.48002e-06
4.09745e-05
0.000157526
-0.000195455
-3.31191e-05
0.00024993
-2.1086e-05
0.000218597
9.73004e-05
0.0002482
-0.000216951
0.000278261
-0.000279632
0.000278196
-0.000282914
-1.84997e-05
0.000258601
-0.000240101
-0.000261644
0.000243145
3.08208e-05
-0.000203546
-3.0193e-05
-0.000204693
0.000231033
0.000314346
-0.000287016
-2.73588e-05
0.000261297
-3.11081e-05
-0.000230189
3.28739e-05
-0.000262362
0.000229488
-0.000229853
0.000259645
-2.97921e-05
0.000325462
-1.7664e-05
0.0001499
-0.000213167
0.000256929
-0.000109956
-0.000286229
0.000287964
0.000241977
-6.41202e-06
-0.000235565
0.000228537
-0.000185001
-3.70408e-05
0.000217548
2.74696e-05
-0.000213605
-0.000239989
0.000260317
-2.03281e-05
-0.000103311
0.0001914
-8.5754e-05
3.05948e-05
-0.000200584
0.000240169
-0.000263424
2.32552e-05
-0.000115584
0.000258861
-0.000243993
0.000265721
-2.17281e-05
-0.000238953
0.000232541
0.000258626
-0.000245105
-1.35213e-05
0.000264349
-2.46681e-05
-0.000246317
-0.000274525
-1.05924e-05
0.000298464
-5.3112e-05
-7.59744e-06
0.000293177
-0.000285336
-0.000159569
0.000202071
0.000228532
1.80906e-05
-0.00024595
0.000328616
-0.000328601
0.000260955
-0.000245018
-1.59377e-05
-0.000302375
-7.9476e-07
0.00030519
9.70881e-06
3.6943e-05
0.000164503
-0.000202057
0.00021127
-3.51886e-05
-0.000180237
0.000278054
-0.000255789
-2.22648e-05
-0.000206299
3.17051e-05
3.15421e-05
-0.000261891
0.000230348
0.000285616
-0.000292163
2.44721e-05
-0.000259617
-0.000257965
1.87881e-05
0.000266057
-1.64361e-05
0.000151173
-0.000267625
0.000116452
0.000299054
-4.52577e-06
0.000238617
-7.53763e-05
2.12521e-05
0.000177045
-0.000198297
-0.000183877
0.000205129
-0.000236275
0.000257219
-2.09441e-05
0.000261462
-3.31689e-05
-0.000228293
-0.000197009
-5.21362e-05
0.000251581
-1.48401e-06
8.75192e-06
-0.000265661
0.000256375
-0.000341419
0.000235348
0.000106002
0.000266371
-0.000236811
-2.95597e-05
0.000306753
-0.000314636
7.89203e-06
-2.57041e-05
-0.000229097
0.000254801
0.000261493
-7.64403e-06
1.01911e-05
-0.000206841
0.000262411
-3.19033e-05
-0.000230508
-6.90483e-05
-0.000260653
-0.000194685
0.000248025
-5.33402e-05
-0.000266533
0.000249985
1.65481e-05
-0.000318122
1.6695e-05
-1.70094e-05
0.000296931
-0.000279861
-0.000276221
1.65481e-05
0.000249537
-0.000165285
6.3938e-05
0.00027413
1.48119e-05
-0.00028869
-0.000316174
0.00030798
8.24189e-06
3.46641e-05
-0.000263649
0.000228985
-1.74441e-05
0.00028168
-0.000315234
1.64554e-05
-0.000176541
-7.42283e-05
-0.000230543
0.000198867
-2.16721e-05
-0.000216469
0.000238141
-0.000314725
0.000295909
1.88783e-05
-0.000132535
0.000273468
-0.000141452
-8.4419e-06
3.31521e-05
-0.000263453
0.000230301
-0.000196299
2.45364e-05
0.000176339
0.000221524
0.000280301
-0.000281158
2.57067e-07
-0.000236993
-2.20921e-05
0.000224813
-0.000202721
0.000139273
0.000143753
-0.000278517
0.000201997
-5.7857e-05
0.000308173
-1.06495e-05
0.000209049
-0.000268518
2.92853e-05
0.00022306
-0.000252345
-0.000321969
0.000138573
0.000296346
2.91974e-05
1.94581e-05
-0.000224355
-2.77845e-05
-0.00013692
-0.000132811
-0.000326424
0.00011369
0.000242873
2.56201e-05
0.000218765
-0.000224869
1.08001e-05
-0.000287362
0.000276495
-0.000243075
0.000270452
-2.72105e-05
0.000281417
-0.000281772
0.000284397
-7.72836e-05
-8.81253e-06
0.000290243
-1.87881e-05
0.000247101
-0.000228313
0.000281484
-0.000290311
-5.63501e-06
-0.000284017
0.000289556
0.000282058
-0.000269893
0.000285052
0.000226314
2.67597e-05
-0.000305077
0.000314073
-9.04038e-06
0.0002507
-2.08453e-05
0.000226621
2.45573e-05
-0.000268913
0.000246057
-2.05381e-05
-0.000259401
3.02849e-05
0.000229116
0.000178305
7.64963e-05
1.00755e-05
0.000281591
-0.000292227
-0.000238141
-2.88401e-05
0.000266981
2.51441e-05
-0.000263285
0.000284117
-0.000162317
-0.000232177
0.000261129
-2.89521e-05
-0.000234697
0.000260709
-2.60121e-05
1.38806e-06
0.000278708
2.45001e-05
-0.000259197
2.38001e-05
-0.000255977
0.000274237
-0.0002429
-3.13568e-05
0.000317957
-9.9655e-06
-0.000306721
8.48908e-08
-0.000255753
1.1816e-05
0.000243937
-1.53549e-05
-0.000261185
0.000228066
-0.000245337
0.000270145
-2.48081e-05
-0.000263229
1.49801e-05
-2.36514e-05
0.000286233
-0.000262116
2.13641e-05
-0.000266701
-0.000241593
-2.13701e-05
3.27075e-05
-9.0432e-05
0.000260194
0.000280993
-0.000286642
5.05122e-05
0.000237693
0.000282375
-0.000282083
-0.000243181
-2.39401e-05
0.000267121
-0.000260894
7.34723e-06
-0.000295602
1.95257e-05
0.000275814
-0.000268717
2.55361e-05
-8.38717e-06
0.00029082
-0.000268326
0.000243549
2.47773e-05
-0.000232513
0.000210841
0.000279715
-0.00028788
-6.16002e-07
0.000260289
-0.000259673
-0.000302014
-1.61324e-05
-0.000264573
2.35481e-05
-0.00024417
-2.41555e-05
-3.43281e-05
-0.000298281
0.000294077
0.000286674
-0.000158327
0.000296446
-0.000291169
2.30152e-05
4.96015e-06
0.000262337
-0.000255474
-7.18379e-06
0.00030753
-2.02382e-05
-0.000287264
5.9773e-05
-0.000246765
-2.19521e-05
-0.000356034
0.000241552
0.000284996
-0.000278723
2.33801e-05
-0.000190219
-1.60545e-05
-0.000306293
2.56708e-05
0.000280753
-0.000196442
0.000310656
-0.00011396
0.000259841
-0.000238533
-2.13081e-05
-0.000291875
2.94001e-05
0.000222097
-0.000251497
-0.000162246
0.000140342
-0.000173614
0.000251441
-0.000238029
-1.34121e-05
-0.000263873
3.40201e-05
-2.23161e-05
-0.000269837
0.000251469
0.000230427
3.12901e-05
-4.58799e-05
0.000202237
0.000232619
-0.000260499
-1.74427e-05
-3.10998e-06
0.000246263
-0.000242055
-0.00029296
-0.000237049
0.000265189
-2.81401e-05
0.000230096
3.22225e-05
-0.000268521
2.55921e-05
-0.000239905
-2.86161e-05
0.000228954
-0.000260706
-0.000282618
4.73202e-05
-0.000242005
0.000292807
-0.000283008
-0.000288661
1.31552e-05
0.000275702
-5.49696e-06
0.000213151
0.000228551
-0.00026107
0.000296884
-0.0001309
-0.000165985
0.00024133
-0.000261885
0.000270404
-0.000226213
-1.76681e-05
-0.000164877
0.000308689
-0.00014255
2.49649e-05
0.000222662
-0.000247627
-0.000192388
0.000192211
-0.000283799
0.000282498
7.00311e-06
-0.000290845
-0.000302485
0.000146693
0.000155793
0.000259995
-0.000239359
-2.06361e-05
-0.000215741
0.000193649
0.000261554
3.42653e-07
0.000257293
0.000232526
2.16797e-05
-0.000294459
-6.21431e-05
1.02433e-05
0.000233529
-0.000252402
1.74361e-05
-0.000230917
-2.37161e-05
0.000254633
-0.000242295
0.000263191
-2.08965e-05
8.37052e-05
0.000136153
2.00922e-05
-0.000305787
0.000285739
0.000256565
-1.80041e-05
-0.000238561
0.000243881
-0.000254017
1.0136e-05
-0.000226745
0.000207957
0.000223131
-0.000258923
-0.000244693
4.76842e-05
1.59419e-05
-0.000137558
-0.000218502
1.57921e-05
0.000245701
0.000280342
0.000294921
0.000305795
1.70994e-06
0.000249817
-0.000220417
2.51749e-05
0.000225009
-0.000250184
-0.000243178
0.000268865
-2.56873e-05
2.28201e-05
-0.000262725
-0.000116323
0.000296741
9.18071e-06
2.08181e-05
0.000261675
-0.000235103
-2.65721e-05
1.31158e-05
-0.000303941
0.000290873
0.000321732
-3.09604e-05
-0.000290863
0.000249733
1.63241e-05
0.000306187
-0.00029304
-0.00022953
-0.000111951
9.63204e-06
0.000250657
-4.9129e-05
-0.00020239
0.000251519
2.20333e-05
0.000246832
-0.000241686
-2.29629e-05
0.000260737
-2.24001e-05
0.000287938
-0.000268023
2.63369e-05
2.68241e-05
-0.000257965
0.000210617
-0.000207677
2.58161e-05
-0.000262865
0.000281763
0.000121744
-0.000256173
0.000134429
1.59562e-05
3.80884e-05
0.000161058
-0.000197657
-0.000239485
-2.85377e-05
3.98137e-05
0.000160624
-0.000202143
-0.000246691
0.000271066
-2.43747e-05
0.000209866
-0.000248826
1.98857e-05
1.73661e-05
-0.000174924
-3.03909e-05
0.000226681
-0.000257415
-2.88401e-05
0.000244245
-0.000215405
-2.16161e-05
0.000242985
-0.000221369
0.000201657
-0.000250786
-0.000273572
-0.000232905
-2.55081e-05
0.000258413
0.000241234
2.98318e-05
-0.000209605
-2.40797e-05
0.000232199
-2.18821e-05
-0.000224967
-0.000239345
6.28042e-05
0.000259004
-0.000229718
4.75106e-05
-0.000249901
-3.43393e-05
0.000257694
-0.000223354
0.000205675
-0.000240014
0.000261689
-1.1956e-05
-6.06764e-05
-0.000229572
-0.0002244
-1.7233e-05
0.000244766
0.000247109
5.3175e-05
0.000212448
-0.000265623
-0.000261089
0.000177353
-0.000231757
5.44042e-05
6.4408e-05
0.00013614
0.000259457
-0.000240915
-2.47224e-05
-0.000265385
0.000227165
3.82201e-05
-2.87813e-05
-0.000222158
0.00025094
-0.000284809
0.000264161
0.000234501
3.61761e-05
2.18821e-05
0.000234087
-0.000307217
0.000151089
0.000156129
0.000170239
-5.29137e-05
0.000254045
-0.000115192
2.56901e-05
0.000217446
-0.000243136
-0.000286291
0.000287633
9.26296e-06
0.000257377
-0.000245953
0.000208937
3.70161e-05
0.000254832
0.000245861
-1.97831e-05
-0.000246815
-2.02161e-05
-0.000263019
2.0724e-05
-0.000269215
2.24001e-05
2.79601e-05
0.000220024
-0.000247984
0.000242481
-0.000274597
1.32721e-05
0.000244847
-1.39149e-05
1.28387e-05
-0.000248158
-0.00032874
0.000123988
-0.000233135
-2.62109e-05
-0.000252113
0.000252113
0.000259782
-0.000144217
-1.82196e-05
-0.000279157
0.000297484
0.000276785
0.000258749
-0.000135913
0.000224113
2.39205e-05
0.00023468
7.80359e-05
-0.000340086
3.80241e-05
0.000258962
1.76364e-05
-0.000248843
-3.00917e-05
0.000207453
-3.01001e-05
0.000259701
2.95429e-05
0.000218353
-0.000247896
-3.05014e-05
-4.09782e-05
-0.000217818
0.000258797
-0.000233423
-2.14173e-05
3.72845e-05
-0.000197583
0.000160469
-3.30877e-05
0.000221671
-0.000255943
-0.000282117
-8.50423e-06
0.000290399
-0.000194208
0.000165097
0.000166349
8.16763e-05
1.26556e-05
-0.000294866
0.000235075
2.59446e-05
-0.000261019
-0.000197683
-1.34198e-06
0.000232743
-0.000264287
3.15449e-05
-8.42803e-06
-0.000217029
0.000225457
-0.000161551
0.000198573
-0.000249985
-3.46025e-05
0.000256274
0.000218076
-0.000252679
-0.000246289
0.000272245
-2.59561e-05
0.000253547
2.78321e-05
-0.000232062
-2.95821e-05
-0.000298265
0.000316366
-1.81368e-05
2.33682e-05
0.000212462
-0.000250254
-0.000267233
2.09441e-05
-2.12801e-05
-0.000245953
-3.61481e-05
0.00024861
-0.000290032
-1.37436e-05
0.00022082
-0.000256968
0.000247822
-0.000250992
1.79792e-06
2.80002e-06
0.000181413
-0.000184213
0.000255294
0.000234529
2.67681e-05
-2.62361e-05
0.000245001
-0.000218765
3.36001e-05
0.000216609
-0.000250209
0.000244861
2.73841e-05
0.000306545
-0.000143949
-0.000162597
1.56429e-05
0.000238621
-0.000256584
0.000271013
-0.000113568
0.000225569
-0.000256677
-0.000240962
0.000104677
-0.000265469
7.16803e-06
-0.000241635
-2.75801e-05
-0.000241361
-2.48081e-05
0.000309621
-2.74114e-05
-7.67483e-05
0.000243097
-1.1452e-05
-0.000215601
0.000224281
-8.68003e-06
0.000255193
-7.68883e-05
3.40096e-05
-0.00019293
0.000163428
-0.000265245
-1.40001e-07
-4.14962e-05
3.85939e-05
0.000157113
-0.000194348
0.000200004
-0.000159525
0.000257041
-7.05603e-06
0.000251151
-0.000218277
-1.81748e-05
-2.1128e-05
0.0002767
-9.44967e-05
-0.000178664
-1.42801e-05
-0.000191913
0.000206193
0.000258665
-1.53553e-05
-0.00024331
1.98101e-05
0.000238855
-0.000279844
-8.19898e-06
3.70638e-05
-0.000197968
0.000156177
1.36921e-05
0.000247997
-0.000164206
0.00019806
-1.95189e-05
0.000248711
3.22974e-05
0.000186346
-0.000223393
-4.17202e-06
-2.49389e-05
0.000265108
-0.000231955
-3.14693e-05
0.00029699
-0.000281701
-1.52938e-05
1.63717e-05
-0.000237659
0.000221288
-0.00010514
0.000226885
1.92491e-05
-0.000305195
0.000285923
2.52001e-05
-2.79441e-05
2.69165e-05
0.000308933
-0.000289647
0.000238891
1.97345e-05
2.15601e-06
0.000231617
-0.000233773
-0.000310399
2.56418e-05
0.000284751
-0.000162177
-0.000144145
0.000209178
-0.000250156
-0.000160053
0.000241924
1.90317e-05
0.00025519
-4.13534e-05
0.000250531
0.000214498
-0.000255851
0.000318564
-0.000318674
-1.05625e-05
0.000286638
-0.000275757
-0.000302788
1.96374e-05
0.000283199
4.20842e-05
-0.000286413
-3.81364e-05
0.000252483
2.62921e-05
-2.2013e-05
0.000307191
-0.000285195
2.43321e-05
3.93354e-05
0.000162235
-0.000201042
0.000249294
-0.000219751
2.83277e-05
-0.000261633
4.36802e-06
-2.00155e-05
0.000306714
-0.000286764
-0.000250987
-0.000266673
3.07441e-05
0.000252141
-0.000236741
-1.54001e-05
1.2264e-05
0.000239877
-0.000275677
-1.28391e-05
0.000255697
-6.61384e-06
0.000315074
-1.23109e-05
0.000297927
-0.000285649
-4.744e-05
0.000247437
-0.000235621
0.000257601
-1.99361e-05
0.000136819
9.04124e-05
-0.000226338
0.000233003
3.03493e-05
0.000226759
-0.000258662
3.71393e-05
0.000270967
-0.000288512
1.71972e-05
0.000251273
-0.000239093
-1.31321e-05
0.000252225
-2.91201e-05
-0.000257265
2.56481e-05
0.000231617
-0.000228005
-2.92601e-05
0.000259765
-0.000233571
-2.61941e-05
0.000258721
-0.000267143
2.40824e-06
0.000290766
1.28596e-06
-0.00029185
0.000247863
-0.000232756
-1.85921e-05
0.000308893
-0.000300907
-7.99495e-06
0.000253074
-0.000102794
-0.000266897
2.56761e-05
0.000241221
-3.48881e-05
-0.000232009
-0.000266393
2.51161e-05
0.000241277
-1.20215e-05
-0.000267748
0.000279706
-3.45241e-05
-0.000231869
-0.000261768
1.86772e-05
-0.000266281
2.43881e-05
0.000241893
-0.000284025
-2.17373e-05
-0.00030625
2.76296e-05
0.000278611
-3.34041e-05
-0.000232877
-0.00016622
-0.000258133
2.94001e-05
0.000228733
0.000309864
-0.000308646
-0.000195805
0.000209049
-3.29281e-05
-0.000225205
0.000197175
-0.000278828
8.14792e-05
0.000283893
2.2371e-05
-0.000301953
1.76961e-05
0.000285718
-0.000280763
-4.98908e-06
-0.000257125
0.000231617
2.55081e-05
0.000159951
2.7938e-05
-0.000190894
-0.000266953
2.81681e-05
0.000238785
-0.000227361
-2.97641e-05
-3.67361e-05
-0.000230217
0.000276003
0.000297332
1.91117e-05
-0.000276313
-3.15578e-05
0.000307944
-0.000258679
-1.09839e-05
0.000297618
-0.000286525
1.49915e-05
-0.000301942
0.000286977
-0.000230609
-0.00030755
0.000287559
0.000263005
-2.5547e-05
-0.000280714
1.36081e-05
0.000170224
0.000231387
1.91437e-05
-0.00025034
-0.00019963
0.000163056
0.000236738
1.31517e-05
-0.00024989
-0.00025833
2.66093e-05
0.000231721
-1.09228e-05
0.000247661
5.74002e-06
0.000246877
-3.19817e-05
-0.000226348
0.000299554
-0.000285699
-1.38707e-05
0.000228024
-0.000226666
0.000289699
0.000237685
1.98521e-05
-0.000257537
-1.24236e-05
0.000250108
0.000246636
1.50389e-05
-0.000305395
1.53936e-05
0.00024448
2.18905e-05
3.2072e-05
-0.000198412
-0.000287521
-1.77042e-05
-0.000182869
0.000295177
-0.000151928
0.000184792
-3.35349e-05
3.04336e-05
-0.000206378
0.000170271
-0.000169819
0.000259149
-0.000239236
-1.99137e-05
0.000260413
-0.000272516
-0.000241594
0.000233433
-2.18779e-05
0.000301192
-0.000279372
0.000307937
-0.000292914
0.000242117
1.77241e-05
-0.000224975
0.00024443
-1.94545e-05
1.61001e-05
-0.000241075
-7.00003e-06
0.000260989
-0.000297155
4.8285e-06
0.000292283
-0.000174497
0.000160217
-1.74105e-05
-6.24535e-06
-0.000290949
-1.68174e-05
-0.000285137
4.28402e-06
-0.000300991
0.00013542
-0.000257455
2.3741e-05
0.00023369
0.000238197
1.32441e-05
-3.08183e-05
-0.000226636
-3.3003e-05
-0.000291035
2.15186e-05
-0.000224971
0.000205599
0.000254969
-0.000233465
-2.15041e-05
-0.00019586
0.000219092
-0.00018652
-7.3352e-06
0.000202942
0.000138125
0.000143139
4.04689e-06
0.000271373
0.000280005
-0.000305554
3.2955e-06
0.000244782
-1.98313e-05
0.000298684
-0.000278818
-0.000302282
0.000287449
1.482e-05
-0.000258301
0.000230077
2.82241e-05
-2.64041e-05
-0.000231897
0.000302351
-0.000302757
0.000267799
-1.99731e-05
0.000304543
-0.000284503
0.000286376
-6.02594e-07
-0.000256873
0.000256873
-0.000268139
0.000295758
-0.000145064
-6.68347e-05
-7.16545e-06
0.000294904
-0.000288184
-0.000297436
0.000290273
0.000292649
-0.000279948
0.000291541
-0.000306137
1.51737e-05
3.46127e-05
-0.000239643
0.000214475
2.22012e-05
-1.44876e-05
-0.000246442
0.000231569
-1.43602e-05
0.000298009
-0.000283609
0.000263481
-1.96001e-05
0.000254224
-0.000235464
-1.87601e-05
-3.09797e-05
-0.000273751
0.000304677
1.44567e-05
-0.000297343
0.00028291
-1.45881e-05
0.000233465
-0.000218877
0.000212791
-0.000295237
0.000283245
-1.92463e-05
0.000304751
-0.000285485
0.00025102
-2.69249e-05
0.000297289
-0.000270366
-0.000295728
0.000268877
1.07156e-05
0.000244749
-0.000255465
0.000305197
-0.000311975
6.78393e-06
1.82184e-05
1.48654e-05
0.000287577
-0.000302428
6.31984e-06
0.000284416
2.36032e-06
-0.000318564
-0.000288642
0.000304326
-0.000242481
0.000243657
8.45603e-06
-0.0002264
0.000242772
-0.000293488
0.000274243
0.000284888
-0.000154855
-8.43473e-05
0.000294478
1.44771e-05
3.12177e-05
-0.000195038
0.000167762
-0.000274558
0.000257293
-0.000219535
0.00024982
0.000243411
1.92865e-05
-0.000262697
0.000236019
2.31309e-05
-0.00030111
0.000282784
0.000312433
-1.7951e-05
0.000237945
-0.000257069
1.91241e-05
-0.000222494
0.000247459
0.000294384
1.80521e-05
-0.000165632
-1.4456e-05
0.000298323
-0.000283902
-0.000142749
-0.000266415
0.000159993
0.000106423
-0.000309123
0.00029547
1.36963e-05
-0.000258699
0.000241826
1.68729e-05
-0.000145755
0.000151721
-0.000306283
0.000288477
1.77904e-05
-0.000216507
0.00017446
-9.69084e-06
0.000253101
2.04601e-05
1.7505e-05
-0.000304088
0.000286547
-0.000300539
-7.19052e-06
0.000307801
-0.000249229
0.000220109
-0.000201153
-8.52603e-05
-0.000271851
0.000251574
0.000303813
-0.000286264
-0.000189685
1.76818e-05
1.50746e-05
0.000284564
-0.000299606
-8.80603e-05
0.000239233
-0.000303463
1.94295e-05
0.000283754
-0.000205931
-2.7778e-06
-0.000297796
-0.000166973
2.05297e-05
0.000302531
-0.00028797
-1.46888e-05
-0.000178439
-0.000299145
-0.000174758
-2.28141e-05
0.000243528
0.000289476
1.71243e-05
0.000252869
5.73645e-05
-0.000283892
-0.000247213
-0.000270416
-2.36126e-05
-0.000274681
0.000300177
-0.000262725
0.000282195
-0.000164737
-4.04873e-05
0.000203904
0.000197569
1.56521e-05
-0.000213221
-1.25544e-05
-0.000285632
0.00029812
1.83597e-05
1.86526e-05
-0.00030527
0.00028667
0.000253345
-1.71361e-05
-0.000236209
1.88927e-05
-0.000304741
0.000285838
2.03561e-05
0.000232989
0.000216385
-2.46121e-05
-0.000191773
1.57884e-05
0.00028221
-0.000298072
-0.00024935
0.000117877
-0.000304032
1.87131e-05
0.000285342
0.000208245
-4.88895e-05
-0.00029654
1.2584e-05
0.000286639
0.000255837
-2.19801e-05
-0.000233857
-0.00030278
0.000105928
0.000234529
1.70521e-05
-0.000251581
0.000279941
1.69337e-05
0.000304112
-0.000285184
1.79536e-05
-0.000299526
0.000233512
1.84916e-05
-0.000252004
-1.90373e-05
-1.42015e-05
0.000298139
-0.000283983
-0.000280173
0.000299847
-0.000278138
0.000289589
-0.000301155
1.09713e-05
0.000249741
-1.62291e-05
1.16425e-05
0.000250041
-1.55121e-05
0.000298298
-0.000282634
3.95922e-05
-0.000236809
2.21481e-05