/*--------------------------------*- C++ -*----------------------------------*\
  =========                 |
  \\      /  F ield         | OpenFOAM: The Open Source CFD Toolbox
   \\    /   O peration     | Website:  https://openfoam.org
    \\  /    A nd           | Version:  12
     \\/     M anipulation  |
\*---------------------------------------------------------------------------*/
FoamFile
{
    format      ascii;
    class       volScalarField;
    location    "2.5";
    object      p;
}
// * * * * * * * * * * * * * * * * * * * * * * * * * * * * * * * * * * * * * //

dimensions      [1 -1 -2 0 0 0 0];

internalField   nonuniform List<scalar> 
45568
(
2.4509
1.23105
2.61389
1.60601
0.850354
1.2274
1.64694
1
0.635605
1.68705
0.516863
2.69811
1.9058
1
0.6349
0.327423
1
1
1.0027
1.68356
1
2.61632
1.68032
1
1
1.23306
1
1
0.331115
1.71412
0.910739
1
0.999999
1.65338
0.927308
1.1839
0.852766
1
1.69879
1
1
0.322638
1
2.71632
1
3.68276
0.323284
3.06281
0.927111
1
2.66195
2.1173
1
1.68038
0.479525
2.60865
2.68716
2.27537
1.85411
0.969572
1
1.86175
1
1
0.515015
1.1092
1
1.01179
1.70453
3.19032
0.720262
0.513195
2.65476
1.72092
2.70463
1
1
1.28416
0.958142
1
1.89266
1.51864
0.497729
2.67923
2.01678
1.00003
2.47025
1.28013
1.64909
0.627495
0.895975
1
0.8871
3.10852
1
1
3.17313
1.90543
1.01875
1.71874
0.785937
2.03808
0.996112
1
1
1
1
2.61567
1
3.08929
1
0.665988
0.930969
1
3.11952
1
1
0.994944
2.39208
1.74629
1
1.80684
2.60459
2.609
1
1.8088
2.80928
1.11262
3.01832
1
2.60368
2.81229
3.00486
1
0.324806
1
1
1
2.02533
2.04837
1
1.57433
1.71965
1
0.326784
1
1
1
1
1
1.35286
1
0.392964
1.02902
0.38122
1
1
1.00991
0.315832
0.581069
0.311017
1
2.2647
0.327301
0.631347
0.641347
1.0789
1
0.46497
1
0.325898
1
1.29898
1
2.42138
0.318553
0.314955
1.00165
2.47542
2.77614
2.39374
1.69293
0.328999
0.328549
1.2864
1.66782
1
1
0.894021
0.331207
0.332593
1.69282
0.889018
1.27377
1.8861
0.780653
0.329474
0.946681
0.582257
0.329963
1.10758
1.54988
2.61609
4.16139
3.73243
2.18843
0.889387
1.56944
0.939237
2.47793
0.998389
1
2.10468
1
2.61601
0.327335
0.327452
1
1.69156
2.61941
1.91796
0.936036
1.19886
1.37204
2.48792
1.06034
0.326051
0.325684
1
0.899946
0.598748
1.7001
0.413175
2.56224
1.66643
0.520484
0.647037
1.24033
1
0.475067
0.295495
1.24734
2.43052
1.00003
1.2516
1.16631
2.61311
1.26072
1.20029
1.16986
1
1.12832
1.20628
2.95475
0.324199
1.09162
0.324542
0.324766
0.325516
1.13426
1
1.09577
1.35097
1
2.64871
1.09155
1.32776
1.52972
2.27389
0.325892
1.24825
0.326353
1
2.46131
4.19568
1.02522
1
1.44548
1
1
1
4.74505
1
0.63059
2.73748
1.69633
1.15758
1.07477
1.68478
1.16108
1.06978
2.72864
2.62595
1.69315
1
1
2.44494
1.71685
1.65778
0.924773
1.29835
1.03292
1
2.61843
1.69324
0.910514
1.14245
2.9321
1
1.60238
2.60723
1
1.95294
0.632584
0.643503
1.96091
1.88678
1.21788
0.441891
2.1439
2.61963
0.482858
2.6174
1
1
1.69959
0.879705
1.70036
1.68569
1
1
1.09685
0.411659
1.51385
1
3.02308
4.70948
0.885349
2.46343
2.6759
4.51592
2.08423
2.61404
1.42813
1
1
1
0.795643
1
1
1.02357
1.79799
1
0.57559
1.69917
1.89949
1.00001
1
1.94728
1.90466
4.26623
0.597663
1.59443
0.966027
0.951152
1.05228
1
1.90157
0.945169
2.77987
2.55303
2.24702
0.516417
1
0.91905
1.10412
1
2.06993
1.88942
0.685882
0.672323
0.662408
1
2.67856
0.318728
1
0.917009
1.08082
1
1.27775
1.81108
1
0.75408
1
0.329151
1
2.93742
1
1
1.27045
1
1
1.01377
1
1
0.461839
1
1
1.69209
1
1
1
0.466822
1
0.640937
1.66536
1
1.84596
1.72991
2.78465
0.895137
1
1
1
0.63734
1
2.49721
2.4197
0.491843
1
0.992625
1
1.00001
1
1
1.07568
0.953519
1
1
2.07115
0.325342
2.105
1
1.7126
1.26317
0.862667
1
1
2.88831
1.94454
1.11108
1.54706
0.99999
0.684798
1.29026
1
0.972491
2.84023
1.69497
1.73821
1
1
0.70117
1
1
0.516933
1.95873
0.548698
0.35153
0.342
0.992213
1.36423
1
0.30562
1
2.78397
2.14587
2.55761
2.64175
1.66646
2.1169
0.784155
1.01605
1.07189
1
2.09566
1.90084
1
1.00757
2.47033
1
1
1.03587
1
0.314687
1.41663
0.310369
1
1.78441
1.74097
1
1.61067
1.98968
1
1
1.68086
2.07184
2.29431
1.67216
1
1.68255
0.969298
1.85248
1
0.612595
1
1
0.328569
1
1
1
1
2.17462
1.55235
0.554373
1
1
0.683451
1.28021
1
1
2.60468
1.53307
2.61736
0.918655
1
1.36948
0.327592
1
1.29038
1
2.12388
1
0.912311
3.00294
1
1
0.654134
1.19626
1
1
1
0.331844
0.332182
1
4.2952
1
1
0.97344
1
2.01889
0.32714
0.966014
1.55662
1.58196
1
1
1.68154
1
1
1
0.71613
0.833073
1
1.65037
1.00204
0.597392
2.92676
1
0.326328
0.834846
1.81135
0.306221
1.17341
2.0292
1.66281
2.96573
1.0996
0.655876
0.951215
0.966719
1
3.17422
1.10532
1
2.69554
0.923021
1.86056
1.68376
0.475532
0.326133
0.560318
1
1
2.58786
0.325598
0.325343
2.67034
0.891723
2.55869
1
1.49159
1
0.627066
0.821897
1.05243
2.41692
1.06404
1.02775
1
0.890105
1
3.6572
2.21145
1.67994
2.93198
0.324865
1
1.29912
0.66838
1
1.94082
1.08938
1.66719
0.632346
2.61551
0.456329
1.70305
1
1.89993
4.50048
1.16052
0.912477
0.331189
1
3.90082
1
2.62162
1
1
0.745427
0.458386
2.66749
1
1.08078
1.09461
4.34485
1.89486
1.39269
1.72361
0.571238
0.983439
1.69865
1.68676
0.921729
4.35821
2.03606
1.04408
1.00001
0.948823
1
0.932421
0.720647
2.63982
1.39185
2.8013
0.676357
1
3.93359
1
0.907862
1.6961
0.975372
1.19445
0.828754
1.281
1
1
2.81382
1.34788
0.326119
1.81046
0.492498
1
2.41941
0.325401
1.25754
1.56618
1.05065
1.10165
2.69838
1
1
1
1.65569
1
1.67997
1
1
1
1.00002
0.488711
1.48011
1.09424
1
1
0.853205
1.4676
0.863349
0.689771
1.90072
1.55084
1.23894
0.479604
0.469485
2.91689
1.88404
0.903094
2.08198
1
1
0.933429
0.49518
1.68786
1.36763
1.08673
0.914031
1.54423
2.49673
1.89989
1.74115
1.21155
2.08214
0.652555
1.03593
1
0.948859
1.26478
2.45732
1.26077
0.999991
2.61169
1.04714
1.88885
1
2.61863
1.83512
1
0.963872
1.0774
1
1.69436
1.20902
3.0008
1.12267
1
1
1.18513
0.550937
1.80686
1.05368
1.2018
1.53794
1.88288
2.60749
1.98203
0.744316
0.546741
0.858609
1.8526
1.20251
0.842436
1.2172
0.871783
1.7113
1.63296
0.966949
2.79862
2.76128
1.82168
1.20569
3.4849
1.25105
0.991661
0.960442
2.3167
0.909767
1.88442
1.65071
1.24281
2.58952
2.68209
0.471396
2.22303
0.487993
2.65844
0.441018
1.52424
2.22254
0.95312
0.617484
1.23758
1.39929
1.03358
1
0.673813
1
1.15767
1.46186
0.663907
1
1.33216
1
4.24503
0.901802
2.60303
2.55626
2.67812
1.26495
1.20891
3.01621
1.46975
2.61618
1.23594
1
0.970653
1
2.70529
1
1
0.453115
1.37043
1.74449
2.35911
0.900188
1.61899
1.4838
0.94459
2.11564
2.372
2.17186
1
1.90867
2.18865
1.19909
0.76352
0.77739
1
0.318046
1.67355
0.325366
2.69147
1.27869
1
1.16201
1.25145
0.435045
2.12479
1
1.16794
1.07559
1.08725
1.36959
1.89413
1.12536
0.948
2.09182
2.0023
1.89754
1.84223
1.31878
2.01188
1.06922
1.13486
2.10405
1.2015
2.12477
2.13026
1
1
3.1508
1
1.40259
2.58676
0.999956
1.12585
0.311709
1.26434
0.924306
0.315552
1.51036
1.81208
1.06846
3.0156
4.26594
1.16303
1.06327
1.07027
1
0.802652
1.64048
1.06039
2.17048
0.927737
0.926305
1.05572
1
1.05205
1.84161
0.708084
1.3254
0.935904
1.03865
0.784978
1
1.01151
1.03698
1.24531
0.7136
1.11277
0.32125
0.321858
0.842673
1.12932
1.9519
0.761301
0.999999
1.02982
1.81389
0.846595
2.44241
1
1.19557
0.783867
0.326219
1.24452
1.16231
1.88217
1
1
1.34617
1
1.0075
1.69051
1.20599
0.330877
0.331125
2.29064
2.63029
1
0.311503
1.01823
1.74878
0.789349
1.13945
1.0882
1
1.00796
0.980099
0.914238
0.953938
1
0.979665
0.979614
0.31902
0.966236
1.8143
1
1.31665
0.999997
1
1
0.992904
2.76154
1.25915
1
1
1.36577
1.04696
1.02565
1.98687
1.95904
1.68678
1.11711
1.1027
0.327444
1
1
1.02429
1.29403
0.331288
0.331212
1.10843
1.8223
1.03351
1.69043
0.961896
1
1
1.70826
1
0.327902
1.2864
1
0.768656
1.65821
1
1.60098
1.40672
1.36846
1.57882
0.805236
1
3.93999
0.325096
2.01106
0.783436
2.11119
1
0.770311
1
1
0.77488
0.777975
3.43773
2.21548
1.80499
1
1.31984
1.32381
1.30531
0.928535
0.328557
0.324265
1.65161
1.0834
0.328349
1.82745
0.892793
1.80575
0.323891
1.09226
1.15647
1
0.899609
1.83993
1.24405
1.30224
1.8494
1.27538
1.26583
0.326779
1.00447
1.19958
0.716732
1.89912
0.957347
1.23393
1.31528
0.730768
0.326768
1.60242
0.993166
1
1
1.57451
1.72743
1.41846
1
0.919036
1.23246
2.18363
2.57093
1.6969
2.38606
1
1.17422
0.864358
0.997463
1.73907
1
0.937819
1.0881
0.840989
1.66105
1.51965
1
2.99226
0.800685
3.08261
2.61301
1.06336
0.913239
0.523475
1.00655
0.926832
1
0.999985
1.68997
1.29608
0.966329
1.16724
2.25773
1.43292
1.15638
1.70425
2.2039
1.24928
1
1.61698
2.03147
0.929809
1.24126
1.23773
0.963506
1.17568
0.8199
1
1.01836
0.592439
2.16854
1
1.27899
0.324281
3.23112
2.17473
1.59684
1.86978
1.03864
0.903504
1.80102
1.03047
1.91185
1.20358
1.27754
1
1
1.07843
2.0068
1
2.59315
2.51946
0.99589
0.966692
1
1.92873
0.994634
0.963426
0.984333
1.39776
1
1.16258
1
2.60793
1
0.798837
1.26501
1.57184
1.03198
1.25746
0.895124
1
0.79216
0.97579
0.325727
2.61859
1.41101
1.92266
3.64433
1.94939
1
0.989213
0.324128
0.991291
1.7358
1.4246
2.61424
2.21058
1.04164
1.04775
0.324915
0.788814
1
1.52159
1.41011
1.08412
1.52346
2.22518
1.07897
0.999914
1.24281
1.32666
1.12967
1.13422
1.43912
1
1.20615
1.19179
1.18739
0.96414
2.85633
1
2.81165
1
1
2.76118
1.60028
0.73338
1.24322
1.23447
1
1
1.69462
1.67964
1.24309
1
1.01755
0.946308
0.97036
1.04959
0.602334
1.86994
1.07469
1.02204
1
0.844256
1.68145
2.1508
0.617783
0.325058
1.82815
0.758245
0.325572
1
1.14601
2.02322
0.964518
1.74491
0.973627
1
1.85017
1
1.75463
0.976963
1.32399
1.65311
1
0.894594
1.31204
0.921335
2.61871
1.09424
0.566759
1.73048
1.93641
2.61284
1
1.35044
1.35333
1.38847
1.3793
1.45141
1.44319
1.07385
0.730685
1
1.47611
1
1.4701
1.76456
1.60185
1.80227
1.62944
0.346627
1.5639
1.59783
1.62385
1.523
1.51071
2.6067
0.913862
1.13724
0.326239
0.324512
1.56549
1.55715
1.62404
1
1
1.54291
0.948199
1.12269
1.17843
1.55058
2.60698
1.6119
1
1
0.553771
1.2286
1
1
0.995205
1
1.6828
1.6696
1.73031
1.72784
1.29525
1.20891
1.00967
1.90474
1.35178
1.14641
1.81248
1.79584
2.62128
1.35636
1.1395
0.325963
1.30428
1.10793
1
0.769461
1.15987
0.32542
2.61171
0.437148
0.325843
1.44365
2.62159
1
0.88896
1
1.671
1.16153
2.61481
1.59244
0.592966
0.510112
1.81135
1.20527
2.60716
2.9633
2.01483
1.30205
2.0177
0.316452
2.60678
1.6194
0.726833
2.60431
2.60741
1.04394
2.61695
1.00054
1.65535
2.62023
1.16506
1.64902
2.59985
1.38601
2.93511
0.391921
2.60551
0.547858
1.36486
2.79288
1.16533
2.61
0.928162
0.99994
2.60871
1.0717
1.77174
1
1.21973
1.44166
1.07724
2.42175
1.95321
1.17023
2.07167
0.928437
1
2.46286
0.991116
1.0315
2.60812
2.61259
2.85881
2.60605
0.773299
2.91091
2.61256
0.573452
2.00103
1.28714
2.62147
1.69899
1.55324
1.56326
2.25823
1
1
1.20119
1.0722
1.05473
2.34566
1.59879
1.51458
1.03872
3.5319
2.5319
1.94722
1.85827
1
2.61694
2.06434
2.60663
2.61678
1.47863
3.56764
1.01181
2.5922
1.0724
1.28309
2.6097
1
1
1.00004
2.89082
1
1
1
2.92597
1
1.37158
0.958575
0.975866
2.17053
0.97212
0.594868
1.6884
0.329619
0.805828
2.01263
0.892094
0.875873
0.863587
1.51876
2.38019
0.752461
1.56959
1.80632
1
2.12202
0.674234
1.12317
1.36164
1
1
1.12425
1.35406
3.01222
1.81688
2.11453
0.572387
1.29023
1
2.96141
1.34493
1
1
3.07768
1.38513
0.828347
0.819182
1.25863
3.04234
1.1527
1.12332
1.64599
1
1
0.924653
1.63055
0.700617
1.21091
1
1.21713
0.730677
1.29086
3.13369
1.303
1.35739
2.33068
1.17859
1.76651
1.43175
2.93101
0.879433
1
2.22517
2.62092
0.999998
1
1.68673
2.62648
0.322543
2.74518
1.0416
1.03956
1.68592
1.34306
1.24664
1.70316
1.6701
2.01794
1.14381
1
1.71692
0.975502
2.6334
2.61434
2.01447
2.65287
4.30931
1.80152
1
2.61104
1.56989
1
1.26124
0.326871
1.34605
1.91473
0.763256
1.92016
1.07935
2.23295
2.53707
0.774233
0.857136
2.60655
1.54355
1.0187
1.02262
0.308301
1
2.95388
1.27893
0.521343
1.64542
2.61245
0.328094
4.31487
1.01457
2.61676
1.1178
1.70689
0.752377
2.60583
0.89138
0.999992
1.86872
1.5199
0.292167
0.979765
1.61447
1.87941
1.34019
1.09308
1
1.53503
1.33076
1.49862
2.61885
1
2.61033
0.889702
2.10976
1.55008
1.65634
0.784122
1.31631
1
1
1.88205
1.2455
0.760843
1.53408
1.78648
1.49522
1.69793
3.18979
1.70326
1
1
1.70907
1.10271
0.709175
1.26503
0.971294
2.78081
1
1.21324
2.09364
2.74551
2.72657
1.18678
1.43581
3.59721
1
1
0.739303
0.924188
1.21561
1
1.35699
0.956586
1
1
1.00043
0.716994
1.3333
1.80572
2.69223
1
1
4.64918
1
1
1.28033
1
1.64362
1.21359
1
2.62241
1.07748
1
1
1
0.786762
0.986588
1.65128
1.96399
1
1.545
1.97152
1.88625
2.64244
1.00002
1
0.87517
0.770537
1.20343
1.51157
3.48555
0.969874
1.09177
1.51916
0.982869
0.999369
1.82014
1
1.80055
2.17227
0.612619
2.17611
2.12744
2.6025
2.32479
1.76504
3.06643
0.978292
1
0.950444
1.61041
2.28767
2.18288
0.885821
1.29443
2.69474
2.19721
0.331176
1
0.99976
1.34647
1.94362
1.09331
1
1.699
2.94166
0.925998
1
1.17139
1.18345
1
2.20552
1.00004
0.330992
0.450783
0.987567
1.11014
0.974608
2.31262
1
1.29964
0.969348
1.33073
0.759989
1.86209
3.01796
1.65094
0.807636
1.88794
2.60897
1.22292
0.997737
1.30753
0.881812
2.60625
1
0.316542
1.18407
0.789664
1
2.27532
2.5722
1.18297
1.1766
1.6094
1
1.35137
2.61052
2.61391
2.61217
0.953111
1.36627
1.68692
2.61337
0.928441
1.2721
2.54696
2.35109
2.00561
0.908785
2.61949
0.983561
3.08274
2.61627
1
1
2.61576
0.728117
0.986852
0.521977
0.529796
1
1.75423
1
1.40113
1
1.58708
1
1.76359
1.29233
2.25217
0.403856
1
1
1.60009
1
0.890878
1.52879
0.99605
3.98124
2.04254
1
0.97515
2.61653
0.980665
1
1.25259
1
0.990402
1
0.949396
2.62422
2.62068
1.69711
1.30543
0.999999
1.04233
1.02259
0.999993
1
1.1615
1.07404
1
0.718704
2.61077
0.986803
0.986141
1.77829
2.60928
2.57289
0.866758
1
0.811395
1.38018
1
1.03489
2.63192
2.61254
0.818863
1.15237
0.974764
2.61892
1.0355
1.39872
1.04296
1.60032
2.99628
2.5393
0.999998
1.46907
2.60795
1
1.2064
1.04511
1.29142
1.34358
0.692613
2.39125
3.02038
2.32943
1.05525
0.968134
0.698626
2.34764
1.34835
1.12739
3.03618
2.36176
1
1
2.03417
0.783162
1
1.76364
2.28327
1.11382
1.28645
1
1.11631
1
1
1
1.56542
1.57391
1
1.11975
1.64378
1.69259
0.641089
2.52051
1.70395
2.77604
0.99997
2.66679
1.59185
1
0.816529
1
1.81182
1.61103
0.841072
2.84921
1.61241
1.91447
0.658881
1.55463
1.45426
1.16822
1.57747
1.50373
1.58908
1.52013
1.47578
2.62825
1.48002
0.973684
1.13631
1
2.16921
1.98902
1.07055
0.962544
2.6043
1.32926
1.44493
2.62809
2.18088
0.716917
2.17954
1
0.998133
1.00002
1.12654
1.72822
1.41831
1.42855
0.325628
1.92954
2.44454
2.61187
1.2747
1
1.18039
1.48555
2.61028
2.79333
1
2.31979
2.60907
2.34187
1.18994
4.24487
1.84062
1
2.61401
1.23382
1.93189
1.86894
1.35576
2.62381
1
2.62172
1
0.692637
0.903744
1
0.722358
1.32121
1
2.18677
1.84331
3.41044
3.02034
4.31416
1.00007
1.29723
1.74999
0.999998
1.04904
0.738172
1.91712
1.75867
2.61719
3.35077
2.60855
1.81397
1.76145
1.00154
3.21279
1.49206
0.565661
1.70605
1.59415
3.80175
0.975076
0.562875
1.4953
1.56369
1.19022
1
0.92125
3.86955
0.852532
1.04789
1.00012
1
1.6023
0.73118
1.25522
2.23722
2.26381
0.853846
1
0.943647
1.97041
0.332235
4.48391
1.06211
1.03364
1.00051
1.59088
3.65897
0.725353
1.55043
0.824084
0.785991
1.55237
1.56422
4.0362
1
2.6189
0.771519
0.788698
1.28692
2.61321
2.60405
2.79016
1
1.56308
1
1
1
1.55202
1
1.19211
1.41864
0.773091
1.38501
0.768177
1.4346
0.767609
1.32988
1
0.751821
0.892267
1
0.918002
1.0442
1
1
1
2.21144
3.94634
1.20763
2.14915
1.20449
1.78974
2.69363
1
2.422
1
2.21679
2.90273
1.26212
2.62677
1.80931
2.60711
1.09141
1.26864
1.29843
1
2.60934
1
2.21446
1
1
1
0.750977
2.6156
1
1
2.05534
1.35369
0.74164
0.71212
1.6451
1.79907
0.704202
0.813072
1
0.968587
1
0.997801
2.60982
1.01315
0.45791
2.01378
1.9869
1.72161
2.02417
1.51993
0.327216
2.60572
2.60971
1.48428
1.75603
1
1.48218
2.61618
3.78994
0.59643
1.82925
0.934205
1
1.33227
4.35884
2.00567
2.03577
2.2245
1.51542
0.943426
1
1.36193
1
2.63137
1
1.85651
1.98379
1
2.61337
1.37973
1.15187
2.61143
1.85777
2.6048
1
0.886043
0.906382
1.67316
1.69604
1.02564
1.02297
2.61082
2.61294
1.46717
1.70349
1.20697
1.47415
2.16617
2.61627
1
1
1.48544
1
2.61536
1.71785
0.664615
1.32437
1
1
1.49544
0.725463
0.898478
1.23825
1.34894
1.58159
1.09704
0.670712
2.62086
2.15216
1
1.63757
1.24681
2.45993
1.67585
1.02628
2.60311
0.861043
1.04527
1.68828
1.88412
1.8407
0.742895
2.61246
1.82198
1.85129
1.2856
2.61421
2.62072
1
2.61578
1.84083
0.753324
1.94972
2.01934
1.67798
1.67761
1.63501
1.31775
1.68356
2.64126
1.98835
2.61256
0.328666
2.59084
1.43678
0.636029
0.91623
1.16437
0.822429
0.972374
3.43687
0.919717
1
1.07116
0.982594
0.977137
0.628075
0.955459
1.33165
1.34752
2.63156
1.20738
1.95851
1.94025
0.808186
1.6247
2.63062
1
1.1603
0.776625
0.772947
1
2.17548
0.769524
1.437
1.4851
2.17778
2.17979
2.15407
1.00038
1.02247
1.02114
2.63101
0.784562
1.68781
0.756666
2.61555
1.06199
1.05853
2.61348
1.11308
1.08841
0.650114
0.80597
2.60986
1.22619
0.45754
1.50053
2.61861
1
1
1.09365
1.10278
0.323904
2.61905
0.632849
0.746418
3.58756
0.929867
1.41122
1.87238
0.974977
0.944653
2.61534
1.19637
1.18078
2.12507
0.992935
1.15635
1.66359
0.898581
1.22321
1.23203
2.33611
1.21224
1
0.999993
1
1
2.33062
1.13164
1.31042
1.98946
1
1.71317
1
2.60685
1
1.22433
1.21739
1.77611
1
2.61582
4.31374
0.995185
1.50358
1.2023
1.65326
1.62885
1.716
0.776955
1.35034
1
1
0.768461
1.45609
1.83826
1
0.880607
0.775151
3.38468
1.3966
1.34395
1.69708
0.951123
1
0.774979
1.19227
0.880259
2.93087
2.17682
1.70597
2.1827
1.3561
1.00036
1.35675
1.33519
0.975365
0.831375
1
1.31065
1
1
1.07076
0.819861
1.00321
1.33844
1
1.19685
1.47599
1.20596
1.57153
1
1
1
1.56229
1.19413
0.999859
0.939201
1
0.661285
1.37651
0.623578
1.07137
2.2043
1.47642
1.59902
1.43272
1.13675
0.917058
4.5392
0.734385
1.32837
0.98969
1.09257
0.684866
1.04446
2.12322
1.11485
2.61145
1.36155
1.74239
2.02345
0.925412
1
1.36297
2.61178
1
1.66734
1
1.5833
1.57616
0.871643
2.55484
1
0.787235
1.50062
1.10122
1
0.633854
0.733966
0.855777
0.755705
0.729782
0.999992
1
0.783384
0.965706
0.769963
0.83074
1.93326
1.45017
1.00524
1
1
2.9641
1.47841
1.45328
1.47947
1.74344
1.73809
2.51408
1
1.79025
1.44167
0.976003
0.602109
0.790967
1
2.65069
1.00001
1.6521
0.630464
1
1.89373
1.4414
2.60364
1
2.61808
1.76947
1.39625
1.43108
2.61624
0.999974
1.38626
2.61408
0.893827
1.3809
0.999996
1.59712
1.15636
0.897138
1.50637
1.89732
1
0.650944
1
1
1
2.61375
1
0.6498
0.646788
1.14923
2.53883
3.01325
1.31282
0.497006
1.17173
1
1.36087
2.61489
2.61123
0.619506
1.84782
0.667645
5.06215
1.5938
2.61677
1.26353
1.06187
1.3752
2.60943
1.15513
0.999996
1.20007
2.60991
2.96295
0.640138
1.11415
1.20767
1.10982
1
1.72457
2.60139
0.728839
0.716373
1
1
1.8088
1
1.00031
1.59127
1.08809
1
1
1.92053
1.23319
0.726967
1.00001
1.65083
1
1.45742
1.44077
1
1.46573
1.41631
1.95665
0.771514
1.00017
2.50836
2.26816
1.00001
1
1.4808
0.991628
1.31479
1
1.44227
1.48341
1.12428
1.05339
1.04154
1.2633
1.03303
1.32219
0.977132
2.91029
2.2697
0.666845
0.970695
1.28541
2.625
0.731953
1.52726
1.05002
1.24838
1.03992
1.54905
0.633683
0.978965
3.12221
1.00073
2.62035
1.57852
2.68179
0.970289
1.59423
1
1.62711
1.37932
1.98494
1
1.85178
1.91171
0.994449
2.93463
1
1.35724
1.07223
1.60551
1.93292
2.70084
1
2.35897
1.27373
1
1.50026
0.833987
1.25126
1.00336
1.67998
1
1.81505
1.24775
1.67032
1.76283
1.00002
0.867073
0.831372
2.5412
1.71733
0.329749
2.33271
3.56282
2.21167
2.60701
2.16861
1
1.00003
1.6504
2.25884
1.99392
1.78395
0.889745
0.87453
1.62044
1.60611
2.6102
2.59923
1.81496
1.00123
1.30025
1.00017
2.60613
2.33944
1.2961
0.908402
1.54993
0.98099
1.0683
1.84004
0.972148
0.989133
1.72523
1.5638
4.60355
1.86045
2.60976
1.36485
2.00067
2.61614
1.47043
2.26718
1.36619
1.66152
2.37375
0.834764
2.60428
1.46566
1.05496
1.82791
2.61101
1.62928
1.45839
0.542825
0.708473
2.48808
0.812417
1.20991
1.24253
0.678954
1.24872
0.999776
1.47218
0.715136
0.899233
1.47507
0.699703
1.29584
1
1.24056
1
1.49414
1
0.877273
2.57866
0.861222
1
0.684721
0.614285
1.06344
0.500305
0.682546
1.28186
2.38181
0.870258
0.911457
1.54329
1.03567
1
1
2.79152
0.587971
4.46338
1.084
0.796892
1
1.00001
0.870939
2.20913
1.22849
1.19929
2.48791
0.958272
2.66337
1.0065
1.13361
1.0099
2.61035
1.83433
0.713668
0.914767
2.12772
0.999998
2.17002
0.813628
1
1
1.48105
1.00004
1.83646
2.34058
1.04722
1
1.05628
1
1.00001
1
0.999994
2.20177
1
1.14809
0.796111
1.23623
1.15473
1
0.703965
2.62163
1.20018
2.3784
0.826951
2.29543
2.61183
4.59592
0.913115
1
1.19509
0.696251
2.13842
0.962997
1
1
2.04001
1
3.71173
4.51999
2.62463
2.61564
1.44772
1
1
1
1.82309
2.25532
3.29069
4.93571
1
1.66986
1.04166
1.91844
2.92209
2.23923
0.851237
0.999999
1.06961
1.42391
2.61547
0.796825
1.6077
1.16452
1.83889
1.18122
2.64821
1
0.914701
0.786031
2.6114
0.939375
1.47919
0.865459
1.81997
1
0.927784
0.904038
4.30983
1.86305
1
1
0.983162
1
2.23479
1
1
1.40145
0.990296
1.3184
2.62218
1.38699
4.14636
1.27205
1.88143
1
1.20188
1
1.00001
0.990611
4.70341
1
1.69702
0.973997
1.11679
2.3234
0.999669
1
1
0.32512
1.74608
1.46007
1
0.979707
1.12208
1.85437
1.30304
1.61028
1
2.61804
1.33795
1
0.934379
1.08239
1.65892
1
2.61103
1.27883
1
1.21183
1
1.00002
2.6149
1.48445
0.687702
1.97893
2.61363
0.77677
1.58956
1.91255
1.55852
1.00002
1.61684
1
1.79561
0.848109
1.09888
0.65194
2.46304
1.71526
1.12723
1
1.01801
0.790025
1
1.00006
1.00563
3.05544
1
1
3.104
1
1
1
1.1681
1.89315
0.994294
1
2.72225
1
1.00011
0.775478
1.19773
3.49707
4.44598
1
1
1.00004
2.0764
1.10425
1.20264
1.41201
2.05635
1
1.47258
1
1
2.19219
1.29949
2.92872
1
2.40175
1
0.797187
1.00078
2.14934
1
2.60269
1.30332
1.28086
1
1
1
0.877403
1.08025
1
2.61262
0.971294
0.867849
0.849259
1.62485
1
1
0.999062
0.812806
1.21111
1
2.61125
1
1
1
2.46931
0.999997
1.44767
2.58639
1.44516
0.950712
1
2.10729
1.09497
1.77251
1.14641
0.916606
1.63565
2.92689
1.17392
2.60952
3.36721
2.45011
1
3.49313
0.678297
2.43153
1.18695
1
2.61175
2.46311
1
0.960084
2.46141
1
1.83707
0.995354
1.82375
1.05568
1
0.998583
1
1
1.00009
1.4905
0.647541
0.639912
1.07627
1.49786
2.69441
0.879365
1.29567
0.64572
1
2.65287
1
2.33494
1.02465
2.34641
1
1
1
1
0.999846
2.65931
1
1.01253
1
1
1
3.09423
1.81363
3.81331
0.641726
3.04209
0.999999
4.5326
1.01396
1.13945
2.61721
0.710317
2.33071
1.23114
1.10448
1
2.07191
1.55143
0.633759
0.500871
1.98547
1
3.10345
0.771033
2.20582
1.00018
4.39264
1.16475
2.42202
2.47276
2.61801
0.326626
2.90027
1
0.644457
1
1
1.78371
1.19473
1.35712
0.821719
1
3.08227
4.38011
1
1
1.41595
1.18322
2.33118
0.999659
0.918073
1.6513
2.61164
1
2.38896
1.35845
1
2.76518
0.984283
1
0.917941
0.64018
0.912506
1.34199
1.38634
2.919
1
0.942751
2.61011
0.999843
1.18473
1
1.567
2.61072
0.788894
1
2.92263
1.89349
1.25129
4.21088
0.995043
1
0.632831
1
2.61539
0.989695
0.966563
0.866353
2.2222
0.97911
1.02347
1
1
1.53719
1
2.61266
1.08473
0.770612
1.73351
1
0.629284
1
1.80788
1.92288
1.59638
1.2624
0.357613
2.60981
1.50312
1
1
1.37535
1.37884
1
1.57269
4.72758
1.18909
1.55351
1
1
1
0.91229
2.20446
1.58484
0.959805
1.32784
0.665306
1.12246
0.714787
1
1
1
0.673831
0.86423
0.897656
2.60922
0.906802
0.872496
0.698356
1
1.42753
1.09836
1
1
1
3.67816
1.72692
2.21267
0.98502
2.35423
1.21842
1.78921
1.377
4.47072
1
1
1
2.61886
1.27529
1
2.7605
1
2.17657
0.97101
2.61388
2.61661
2.60105
2.44826
1.00001
2.6198
2.6047
2.38435
1
2.08249
0.999999
1
0.615487
2.52536
1
1
1.25944
1.36362
1.8594
0.814863
2.57324
1.5838
1
1
1
2.0484
1
0.720845
0.728145
3.09912
2.19977
1.5483
2.61281
1.81846
1.93974
1
1
1.45212
2.60673
1
1.41225
1.5832
1.87029
2.61849
2.00072
2.04072
0.897785
1.34276
1.4789
1.30182
1.68637
2.62145
0.894268
0.993073
2.61148
2.61107
1.33993
1.63942
1
1
2.61556
2.27921
0.927531
0.92158
2.63795
1.23334
2.19795
1.00002
1.38987
2.72454
2.60816
1
1.21445
1.21227
2.02151
1.32063
2.60808
4.54223
2.6159
4.73051
2.61311
1.07138
0.645384
0.590969
2.61105
1
1.23653
2.17364
2.57618
1.03085
1
2.61536
0.800276
0.33432
0.635703
1
0.804306
1.21708
2.61277
2.03869
1.38656
1.34427
2.62244
1
0.712643
0.635569
0.839571
1.55243
1
1.52429
1.88393
1
2.60882
2.41249
3.6708
1.24631
1.24644
1.54709
0.999985
0.637636
1
2.24631
2.61211
0.97055
1.01614
1.12228
0.654279
1.68923
1.23554
1.77026
1
1.02626
1
1.46547
0.548907
0.884631
1.89141
1.11391
1
1.58689
1.2325
1.23082
1
1
0.792102
2.34582
2.60982
1
1
1.4368
1
1.49647
2.51771
0.991993
1
1.30039
1
0.480064
1.10033
2.63137
1.1485
1.54513
1
1.43063
1.76463
1.62478
1.49175
1
1.21482
2.62458
1
0.963031
1.43353
0.847633
1.47889
1.4034
1.65502
2.60789
1.57749
1.00001
1
1.00006
1.478
1
1.76614
1.5435
1
1
1
1
2.60388
1.111
0.318643
2.589
0.830495
3.86024
1.50811
0.794352
0.800734
1.2103
1.65187
1
1.46939
2.6002
1.61221
0.634166
2.61488
2.02629
1
1.59826
3.05356
2.58919
1
1.2711
1.2689
1.65184
1.45148
1.65698
1.29261
2.80738
2.61632
1.17919
2.38438
2.92184
2.62349
0.988438
2.32034
1
0.930679
1.42251
1
1
1
0.738884
1
1
1.57386
1
1
2.61661
1.00002
1.46771
2.61439
1
1
0.996807
1
2.81088
2.6127
1.6149
0.80769
2.61224
1.90668
0.739273
1
1
1.67124
1.752
1
0.826052
1.22425
1.57109
0.809208
0.803353
1.20967
0.77927
1
1.13
2.61063
2.61289
0.79137
0.796811
2.61636
1
1
0.722192
1
1.50583
1
2.6159
1.20266
1.20123
1
1
1.36747
2.62228
0.724732
2.61038
1.00062
2.52519
1.62586
1
1.49924
1
2.62461
1
0.931538
0.787829
1
1
1
2.31091
1.47183
1
1
1.21294
1
2.40475
1.21196
1
1.3066
0.577404
0.823164
0.999997
1
2.61005
1.77048
1.44122
1
1.39823
1.77276
0.711902
2.61275
1.62784
2.59236
1
1.21676
1
4.42654
1.72066
2.61435
2.24152
2.60891
0.761
1
1
0.725445
0.999997
1
2.61632
0.751234
0.748664
1.52644
1
1.0024
1
2.54427
2.00835
1
1
1.4548
1
1.40324
0.636489
1.46466
0.71151
3.0454
4.20681
1.07369
2.61195
1.15905
1
0.964005
1
1.89139
2.61158
0.738967
1
1
2.61037
1.43173
0.934842
1
0.331874
2.19498
1.74598
1.00564
2.59741
2.20463
1
0.942214
1.52723
0.80423
2.34894
1.64044
1
1
1.00407
1.21928
0.634974
2.61361
2.62739
0.971846
0.975216
0.941858
2.62074
1.64236
0.969366
1.53473
1
1.00117
1
0.999992
0.617136
0.327133
1.92736
1.17242
1
2.04176
1.43203
1.19553
1.10972
1.18641
1
1.43095
0.642755
1
1
0.721189
2.61314
0.636844
1
1
1
1
0.972248
0.758507
2.6171
2.1073
1.68022
1
0.999998
2.61452
2.66241
1.00509
1.18113
1.78763
1
2.78637
1
1
1.00027
1
0.624578
2.16941
1
1.60527
1
2.62609
1.55319
1.64733
1.00224
1.00025
1
0.323679
1.06793
1
0.617179
2.60773
1
1.80499
1.77987
3.27217
1
2.54088
1
1.00012
0.950516
0.951694
0.991116
1.98651
1
0.879537
0.996766
2.62569
1.76284
1
2.62586
0.996532
1
0.328772
2.44332
0.847151
0.584248
1.16824
1
1.91898
1
1
1
2.61554
2.55793
1
1.00144
1.13734
2.9803
0.701315
1
0.623516
2.61455
1
0.903278
0.640785
2.11294
1
2.073
1.01875
1
1
1
1
2.76503
1.14003
0.634951
0.999372
2.56545
1.04632
2.59542
3.13595
1
1
1
0.900714
1
2.19532
2.09316
2.06163
1.93331
0.327024
0.47899
1.38262
0.668134
0.326803
1
3.66176
3.36571
2.28944
1
1
1.94577
2.62198
1.02066
2.4464
2.36242
2.50433
1.95831
1.77459
1.89878
0.81313
1.37083
1
1
1
1.7544
0.985358
1
1.42575
0.965718
0.858177
2.29073
1
2.62596
0.79754
3.56883
1
1
0.477033
0.955464
0.68708
1
2.61565
2.11315
0.694686
2.61155
1.84512
2.24264
2.58103
2.61244
1
1
1
1
0.400355
1
1.48417
0.939191
0.326482
2.61496
0.650134
1.3266
2.24849
1.13336
1.41855
1
1.07119
1
0.586126
2.61351
2.64605
3.97832
0.664851
1
1
1
0.633284
2.96359
1
1
1
1
2.22615
1
1
0.331565
1
1
1
1
0.525416
1
3.25595
1.97557
1.10039
1
1
1
0.87678
1.66732
1
1
3.01597
1.44158
1
0.348093
0.332156
1
1
1
0.572577
3.16159
1.20083
0.931721
1
1
1
1.15454
0.844183
1.15204
2.61342
2.61341
1
1
2.83134
1
0.992334
2.60563
0.878138
2.59121
3.41342
0.993728
2.62103
3.45785
1
0.753866
0.43521
1
0.852534
1
2.0205
1.12291
1
0.641163
0.31026
1
1
1
0.903114
0.919579
2.6135
1
1
1
0.876377
1
1.11505
1
1
0.328815
1
1
1
2.49519
1.87336
1
0.32134
1.17531
0.343057
1
2.60457
1.77629
3.69927
1.00709
2.08325
1.18161
0.961638
0.633433
0.9886
0.329547
1.73056
3.30365
2.61615
0.349059
2.03382
1
1
1
2.64651
2.64408
1
1
0.756489
2.07014
1.02942
2.31526
1.17125
1.42085
2.34734
1
0.370562
2.58937
1.14713
2.18454
0.750797
3.89667
0.88619
2.59353
2.37362
1
2.61401
1
2.61232
2.38318
1.42036
1.04843
1.698
1
2.60603
1
1
1
0.87944
1
2.61642
1
0.571628
1
0.511675
1
0.55114
1
2.50911
1
1
1
1.00016
3.54841
1
1.03931
2.61465
2.59447
1
1.90227
1
1
1.98561
2.6029
4.36382
0.349511
0.321813
1
1.708
1
3.19237
0.641096
2.61263
0.36056
2.46682
1.43799
1.52481
2.61468
2.23188
1.00085
0.913031
1.42641
0.9209
0.329008
0.80811
1
1
3.35996
0.850587
1
2.40846
0.319808
1
1
1
1.82236
3.86662
2.61641
0.911842
1
2.6156
1.89446
0.992837
2.59981
0.977286
0.954686
0.976012
1.04491
1
1.68744
0.907082
1.41686
0.976502
1
1
1.00015
2.61333
1
2.61382
1.01674
0.765689
0.32516
1.50497
0.959512
0.329765
0.91421
1
1.07364
1.0913
3.39974
1.08363
1
2.61188
1.50792
2.00511
1.70898
0.970763
0.636307
2.59855
1
1
1.10144
1.33293
1.17961
4.41594
1
1
0.993595
0.325219
1.66952
1
2.61806
1.18471
2.61205
1
3.79474
1
1
0.343985
1
1
2.60636
1
1
1
1.33597
1
0.957865
2.10689
1.54932
2.21492
1.45734
2.45804
2.6165
2.60099
3.35417
0.946402
1.53028
1.46692
1.40738
1
1.44663
1.0053
2.60643
2.61316
1.62057
1.07516
1.5446
0.32487
0.857732
2.6184
1
0.327512
0.929787
0.895756
1
1
1
0.330599
1.62778
0.827513
1
1.80996
1.42601
2.44689
1
1.46559
1.88769
2.61628
1.11264
1.51893
1.81175
1.42935
1.59939
2.63546
2.34607
1.78724
0.325549
1.43271
1
1
2.61498
1
0.781656
1
1
2.61126
2.61251
0.652323
1
1
1.93087
0.91967
0.746554
1
0.964795
1.52723
1
0.969396
0.926188
0.814407
2.27545
2.05185
1
1
1
0.95247
2.61125
2.30267
0.726874
1.99634
2.14736
1.96731
0.782747
0.33315
1
0.809894
1.33992
1.27481
0.330418
3.72834
2.26562
1
1.11684
1.6646
0.527503
2.61464
0.590499
2.61203
1.11373
0.32082
1
2.61561
0.34766
2.21931
2.69072
0.941261
1
3.89799
1.02727
1.2781
1
1
2.61148
0.95589
0.58709
2.61108
1.98639
3.26722
1.46722
1.308
0.949685
2.15964
1
0.595791
2.61587
1
1
0.677736
1.96555
3.41155
1
0.330971
1.29653
0.617741
1
2.63001
1.00249
1
1.79575
0.478572
1.02633
0.434743
2.33901
1
1
1
1
1
4.4199
1
1.63603
1
1.46308
0.319308
0.319547
2.833
1.00994
0.329278
1.52396
1.25796
1.26481
1
0.999997
1.28219
0.982082
2.063
1
2.61583
0.497897
0.329138
0.398424
1
1
0.958391
1.33458
2.25324
0.37252
0.563243
1.23399
1
2.61411
0.333576
1
2.61534
1.70867
1
0.999999
2.21428
1
2.6005
1
0.330219
1
1
1.33738
0.852721
1
0.9915
2.60732
1
1
1.02371
1
1
2.01371
0.819536
2.38463
1
0.921909
0.918495
2.60851
2.61844
1
2.6126
2.55718
1.13945
1
1
1.57228
3.12476
0.329916
0.987415
1.93438
1.11705
2.61602
0.978054
0.327082
0.843119
1
1
1.11142
2.22422
4.34845
1.09588
0.573271
3.94608
0.329653
0.33147
1
0.988269
0.343361
2.61455
2.01521
1.11718
1
1
1.53279
1
1.99701
0.863936
1
1
0.330261
0.958485
1
2.60465
1
1.13308
0.347097
1
1.31009
1
1