/*--------------------------------*- C++ -*----------------------------------*\
  =========                 |
  \\      /  F ield         | OpenFOAM: The Open Source CFD Toolbox
   \\    /   O peration     | Website:  https://openfoam.org
    \\  /    A nd           | Version:  12
     \\/     M anipulation  |
\*---------------------------------------------------------------------------*/
FoamFile
{
    format      ascii;
    class       surfaceScalarField;
    location    "0.12";
    object      phi;
}
// * * * * * * * * * * * * * * * * * * * * * * * * * * * * * * * * * * * * * //

dimensions      [1 0 -1 0 0 0 0];

internalField   nonuniform List<scalar> 
35488
(
-2.98156e-18
-2.71051e-20
7.20994e-18
-3.10353e-18
-1.28613e-17
2.71051e-18
-1.6114e-17
7.03376e-18
1.09775e-17
2.51941e-17
-1.50433e-18
-5.92245e-18
-8.03665e-18
-2.52077e-18
1.28885e-17
-0.000116886
0.000101281
1.60258e-05
-8.87861e-05
-2.97253e-05
-2.2443e-17
1.21227e-17
-7.06087e-18
1.3932e-17
1.87025e-18
9.22249e-18
9.12085e-18
-1.15671e-17
-1.05168e-17
9.6494e-18
9.8826e-05
-0.000124145
2.62176e-05
5.28549e-19
2.75116e-17
6.34397e-05
6.50125e-05
1.11181e-05
0.00010347
-0.000114293
-7.12863e-18
2.81893e-18
7.50132e-18
-1.50026e-17
1.24006e-17
-5.14996e-18
-1.13028e-17
1.55176e-17
-1.18178e-17
-8.93112e-18
1.43521e-17
-9.65407e-05
0.000108062
1.65747e-17
-1.52059e-17
-9.01243e-18
1.76183e-19
7.75205e-18
-9.22927e-18
-2.24972e-18
-1.43657e-18
-1.78893e-18
-1.67645e-17
9.40545e-18
0.000121962
-0.000116618
-1.25615e-05
-1.95156e-18
-1.49349e-17
1.57074e-17
8.11796e-18
1.28478e-17
1.00018e-17
7.34547e-18
-6.26002e-15
3.36916e-17
-2.39067e-17
1.89193e-17
7.86047e-18
-1.03541e-17
-3.90313e-18
1.93666e-17
-2.76626e-05
-8.897e-05
0.000115243
-2.00035e-17
8.41612e-18
2.54788e-18
-6.93889e-18
-1.80249e-18
3.17129e-18
-1.05168e-17
3.03577e-18
-1.99713e-05
0.000119108
-1.17907e-18
-7.7927e-18
1.25496e-17
-1.19398e-17
1.31595e-17
1.39727e-17
0.000127046
-8.96104e-05
-3.23447e-05
3.67273e-18
9.25638e-18
2.72406e-18
-5.09575e-18
6.47811e-18
-1.2116e-17
-3.41524e-18
2.46656e-18
2.97342e-17
-1.94479e-17
-4.98733e-18
6.23416e-19
7.99599e-19
-8.97177e-18
2.10742e-17
-6.20706e-18
-0.000107475
-7.72067e-06
0.000114014
-1.09775e-17
-3.10759e-17
8.6951e-05
4.75259e-05
-0.00011116
8.22455e-05
2.95581e-17
-1.44605e-17
-1.44605e-17
8.20848e-05
4.7969e-05
7.69111e-05
5.32372e-05
-9.16151e-18
-2.23617e-18
1.08556e-17
-2.42455e-17
1.17975e-17
-1.5992e-18
-9.58559e-05
-3.6078e-06
9.97975e-05
1.91362e-17
-1.24006e-17
-9.54098e-18
-1.14654e-17
2.91379e-18
8.51099e-18
9.73749e-18
2.54923e-17
-1.08285e-17
6.0512e-18
-1.59265e-14
3.0761e-14
-8.96408e-13
4.06576e-19
-8.00954e-18
4.17418e-18
-1.13435e-17
2.14537e-17
-1.08691e-17
2.6563e-18
-7.75205e-18
1.19533e-17
-1.81062e-17
7.98244e-18
-1.45012e-18
2.9409e-18
-3.03577e-18
2.00984e-17
-4.48589e-18
0.000145905
-6.87434e-05
-2.34459e-18
-5.35325e-18
9.70361e-18
-3.31359e-18
1.35864e-17
7.06087e-18
-5.63785e-18
-5.51588e-18
-1.47587e-17
1.63986e-17
-3.55076e-18
-8.97177e-18
4.60786e-18
-8.51099e-18
1.60055e-17
1.06794e-17
4.68917e-18
-3.42879e-18
7.42678e-18
6.1664e-18
2.23617e-18
-6.37646e-18
1.57209e-18
-1.19262e-18
-5.92245e-18
-3.19917e-05
0.000113911
-8.2157e-05
1.4569e-18
-2.69695e-18
-1.0571e-18
-1.56667e-17
-3.67273e-18
0.000124344
-6.07888e-05
-6.31986e-05
-1.79707e-17
-9.53556e-17
-1.03782e-14
3.98444e-18
2.72406e-18
6.60008e-18
4.87891e-19
-2.19551e-18
-1.66357e-17
-1.20008e-17
-1.40133e-17
1.80791e-17
-1.21973e-17
-8.34836e-18
9.60874e-18
-1.13028e-17
7.80626e-18
6.49166e-18
3.98444e-18
4.60786e-18
2.62919e-18
1.16552e-18
7.48099e-18
-3.86247e-18
8.99888e-18
-5.09575e-18
1.27123e-17
9.02598e-18
2.46656e-18
4.17418e-18
-8.67362e-18
1.52059e-17
0.000104784
-0.000137664
3.25806e-05
7.86047e-18
-3.483e-18
-6.50521e-18
7.15573e-18
-9.43256e-18
-0.000117763
8.55086e-05
-1.23192e-17
-6.13929e-18
-1.24819e-17
6.97955e-18
2.40557e-18
-4.05221e-18
-9.3919e-18
-7.45389e-19
1.25048e-05
0.000112192
-6.89344e-05
0.000134634
-6.62505e-05
-1.16687e-17
-8.07731e-18
1.46503e-17
3.34023e-05
9.07698e-05
-1.06658e-17
4.89246e-18
-2.76674e-05
-9.61555e-05
0.000123916
1.89058e-17
-2.84603e-18
-1.35959e-16
-6.99039e-17
-7.91169e-16
8.87691e-18
2.07354e-18
-2.18196e-18
3.483e-18
-7.04731e-19
-5.63785e-18
6.35614e-18
2.64274e-18
7.53521e-18
-1.76318e-17
1.35525e-18
4.51299e-18
-4.22839e-18
-1.46909e-17
-1.80249e-18
-8.65398e-05
0.000139141
-5.30131e-05
-4.94667e-18
1.89735e-19
6.08508e-18
-1.95292e-17
9.25638e-18
7.68428e-18
-1.3146e-18
-3.16961e-14
-2.1287e-16
-6.07153e-18
-9.71716e-18
2.64274e-17
7.81981e-18
-1.16145e-17
-4.26227e-18
-1.37423e-17
4.10538e-05
-0.000127756
-9.80609e-14
-1.80928e-13
-4.06576e-19
-6.80337e-18
4.09286e-18
-4.72848e-17
-1.26106e-17
5.04154e-18
3.82181e-18
-7.69784e-18
1.57209e-17
-1.88922e-17
-2.42048e-17
1.10047e-17
1.84043e-17
-2.1291e-17
8.09086e-18
-1.18314e-17
1.02322e-17
5.71239e-18
-4.23516e-18
-1.99222e-18
-5.32614e-18
-1.01915e-17
-5.44812e-18
2.44217e-17
-2.44352e-17
1.37829e-17
-8.8498e-18
-6.77626e-21
5.96311e-18
2.3595e-05
-0.000113161
4.61191e-05
-4.80639e-05
-1.14069e-05
-7.08702e-05
8.21953e-05
-4.87891e-19
-5.67851e-18
-5.00088e-18
6.53232e-18
-6.95245e-18
-1.61817e-17
2.37169e-18
-7.52165e-19
-1.03433e-08
5.98058e-08
1.76443e-08
2.79583e-05
-0.000114752
8.58779e-05
-2.56549e-17
8.13152e-19
1.51246e-17
9.54098e-18
-1.38371e-17
8.71427e-18
2.03423e-17
7.67073e-18
1.32408e-17
-1.82553e-17
-3.7405e-17
2.89346e-17
1.0571e-18
1.60326e-17
-1.02051e-17
8.40257e-19
8.72783e-18
2.99511e-18
4.87891e-18
-2.19686e-17
1.97054e-17
-3.04116e-09
-1.68735e-06
5.89637e-08
-4.58075e-18
9.19539e-18
7.51641e-06
-9.90604e-05
9.12143e-05
-1.76183e-17
1.28749e-18
7.41323e-18
-4.51977e-18
9.48677e-19
-7.35875e-09
6.58644e-09
1.98168e-08
-1.23599e-17
1.56667e-17
-1.62766e-17
1.30782e-17
-1.28749e-18
-6.73561e-18
4.20251e-11
4.11124e-11
-4.32999e-13
-1.10125e-12
7.10383e-13
5.12286e-18
-3.55889e-17
7.88646e-05
4.36704e-05
6.17995e-18
3.88958e-18
3.18484e-18
-4.68917e-18
-6.72471e-05
-7.36322e-05
0.00014109
-4.96022e-18
1.38236e-17
9.44611e-18
-1.42304e-12
-4.18538e-13
2.2811e-13
3.63941e-05
-0.000122486
8.58879e-05
-1.04219e-17
2.14808e-17
4.06576e-20
-0.000127235
-6.34258e-18
1.12215e-17
7.75996e-05
4.04118e-05
-0.000118408
-5.05509e-18
-6.24094e-18
2.33103e-18
3.16452e-18
3.47622e-18
7.65718e-18
-1.50026e-17
-9.50032e-18
1.52873e-17
8.98533e-18
-2.89618e-17
1.00018e-17
1.37287e-17
-8.40257e-19
7.81303e-18
-1.484e-18
9.54034e-05
-0.000101688
5.74583e-06
5.12286e-18
-1.18585e-17
-2.11962e-17
1.02051e-17
5.84114e-18
-1.47723e-18
1.19804e-17
-2.69695e-18
-1.02593e-17
4.30293e-18
7.58942e-18
-1.58673e-16
-2.8398e-16
-1.73008e-14
4.33681e-19
-2.20906e-18
1.30646e-17
1.10995e-17
-8.76849e-18
8.43004e-05
-7.68656e-05
-1.51788e-18
4.64852e-18
1.01644e-18
3.65918e-18
5.61075e-18
-1.19804e-17
-2.69695e-18
8.19928e-18
-6.966e-18
3.52366e-19
6.32903e-18
-4.96022e-18
1.60055e-17
-5.14996e-19
-8.40257e-18
6.30193e-18
9.33769e-18
8.67362e-19
-5.01444e-18
3.18484e-18
2.72726e-05
-0.000110466
8.273e-05
1.97867e-18
4.87891e-18
-1.3146e-18
-5.17272e-07
-0.000110252
0.000104202
-9.02535e-05
0.000117053
1.27936e-17
1.14654e-17
-1.3417e-17
1.10047e-17
2.53432e-18
-2.11419e-18
9.74427e-18
-8.67362e-19
5.93601e-18
-5.84792e-18
-1.39591e-18
-2.79182e-17
-3.14419e-18
6.8237e-18
9.48677e-19
1.77538e-18
-1.20211e-17
1.53008e-17
-1.56261e-17
6.77626e-20
1.22921e-17
1.82959e-19
2.83248e-18
4.72983e-18
4.40457e-18
1.96512e-18
1.37965e-17
7.39968e-18
1.48807e-17
8.13152e-19
-2.10132e-17
6.01732e-18
6.73561e-18
-1.03812e-17
1.93801e-18
8.5923e-18
5.35325e-18
4.29751e-17
1.09775e-18
-6.87357e-05
0.000116188
-5.58623e-05
1.65341e-17
1.58836e-17
-1.49484e-17
6.27482e-18
-1.73472e-18
9.66295e-18
-1.73472e-18
-6.91179e-18
8.78204e-18
1.04219e-17
-3.95734e-18
1.72117e-18
-1.1235e-17
1.41895e-17
-1.53415e-17
1.23057e-17
-5.6243e-18
9.47661e-05
-0.000122395
-1.15196e-18
-5.46167e-18
1.02864e-17
5.47522e-18
-2.05998e-17
4.97378e-18
-8.54797e-05
-3.53965e-05
0.000120843
3.38332e-06
0.000114352
-0.00011549
-1.66696e-18
5.97666e-18
1.02999e-17
-9.25638e-18
9.02598e-18
3.65918e-18
2.57498e-18
-1.69988e-05
0.000136886
-0.000115571
1.13841e-18
2.38931e-17
0.000107635
-5.27193e-18
-5.13641e-18
-2.08741e-05
0.000145239
-7.04731e-19
-1.0842e-18
-2.31748e-18
1.04354e-17
6.23416e-19
7.26111e-05
4.81026e-05
4.35714e-17
-1.32815e-18
-3.62124e-17
-7.96889e-18
-6.92534e-18
1.44741e-17
-5.57009e-18
-7.26415e-18
3.34747e-18
-2.24091e-17
2.40693e-17
4.83825e-18
-6.50521e-19
-5.13641e-18
4.66885e-18
1.999e-18
-6.36969e-19
-4.74338e-19
-4.05221e-18
-0.000118953
3.55177e-05
8.33308e-05
-5.0822e-18
-1.05303e-17
8.90528e-05
1.97761e-05
-0.000108983
-7.18284e-18
1.01915e-17
2.12775e-18
-2.01526e-17
6.53232e-18
6.07197e-05
-0.000122015
5.92762e-05
-6.73561e-18
-1.02186e-17
1.21702e-17
7.92163e-05
-0.000116184
3.88721e-05
0.000143091
-7.08209e-05
2.28225e-17
-1.80249e-17
1.07878e-17
-5.32614e-18
1.13841e-17
2.1684e-19
3.64563e-18
7.86047e-18
2.81893e-18
1.70762e-18
-5.78693e-18
2.6834e-18
-2.71051e-20
1.81062e-17
-7.73849e-18
-5.27193e-18
1.29969e-17
-2.6563e-18
6.55942e-18
2.38587e-05
-0.000111941
8.59403e-05
-1.34504e-05
9.09825e-05
-7.73221e-05
2.84127e-15
-5.86215e-13
-8.15862e-18
1.05032e-17
2.43945e-18
0.000112319
-7.93568e-06
-7.45389e-19
-7.49455e-18
3.23905e-18
-8.79559e-18
3.23905e-18
1.37694e-17
1.6263e-17
4.55365e-18
-2.92735e-18
9.18726e-17
-5.6514e-17
1.46367e-17
6.08508e-18
-2.1413e-17
1.44063e-17
-1.56125e-17
-2.4259e-18
-4.67562e-18
1.21837e-17
-3.04932e-18
7.77741e-14
1.85528e-14
-5.00471e-13
1.23735e-17
-3.46945e-18
-3.23905e-18
1.04626e-17
9.25638e-18
6.08508e-18
5.38035e-18
-2.21177e-17
2.66985e-18
2.20364e-17
7.15573e-18
-3.45725e-17
5.75543e-05
8.63429e-05
1.19127e-17
6.49166e-18
-0.000110156
9.62993e-05
-4.76371e-18
1.3749e-17
3.75405e-18
-2.11419e-18
8.17217e-18
-2.89618e-17
7.2235e-18
3.7695e-12
9.60922e-12
-0.000108853
3.31905e-05
7.53855e-05
1.42369e-17
2.15485e-18
-2.1413e-18
-1.57209e-18
6.61363e-18
3.0711e-05
0.000129374
-4.39532e-05
-1.23599e-17
1.23057e-17
-8.97098e-05
8.12188e-05
3.52366e-19
-7.29126e-18
9.18861e-18
-5.05509e-18
-7.12863e-18
-5.29904e-18
-1.01779e-17
7.44034e-18
-1.20889e-17
4.70273e-18
-5.29904e-18
1.42116e-15
-2.88855e-13
-5.19739e-18
-1.30104e-18
5.80048e-18
5.69206e-19
-7.75205e-18
9.08019e-19
1.62224e-17
-2.43132e-17
-8.95822e-18
9.82558e-18
-1.85128e-17
-1.69678e-17
4.07931e-18
-1.5931e-17
-1.6263e-18
-5.72825e-14
1.10372e-16
-2.67391e-17
1.7686e-17
1.33628e-17
-9.36336e-05
-2.53644e-05
-1.62088e-17
2.04643e-18
2.4921e-06
-9.79066e-05
4.79759e-18
5.05509e-18
2.38253e-17
-2.19144e-17
-9.6765e-18
7.39968e-18
9.31059e-18
-7.06087e-18
-1.01508e-17
6.4239e-18
3.25261e-18
-3.26616e-18
6.55942e-18
-6.91179e-18
2.64839e-14
-4.85796e-13
-5.66496e-18
-6.23416e-18
1.39049e-17
-3.41524e-18
-3.83537e-18
-5.39526e-17
1.93625e-16
-7.74596e-05
0.000131481
-5.43529e-05
-3.10353e-18
1.62901e-17
2.22261e-18
0.000100163
-5.69206e-18
-5.09575e-18
7.27771e-18
-8.72783e-18
-2.9409e-18
2.50586e-17
-5.32614e-18
-2.79047e-17
2.04372e-17
7.00666e-18
2.09187e-05
2.37545e-05
1.48129e-17
1.20617e-18
-2.37711e-17
-1.23125e-17
-2.47605e-17
-2.05321e-18
2.2199e-17
4.60786e-19
-3.25261e-18
-3.14419e-18
-9.77137e-18
8.28623e-05
-9.41264e-05
1.57209e-18
4.49944e-18
-1.21973e-18
6.83047e-18
-6.89824e-18
2.04643e-18
-2.91379e-18
4.60786e-19
-2.12097e-17
2.91379e-17
7.72494e-19
-4.74338e-19
1.8838e-18
-1.28342e-17
7.75205e-18
-0.000122193
1.65341e-17
1.07743e-17
-2.08438e-17
1.26784e-17
1.04219e-17
-1.27936e-17
2.5682e-17
8.37546e-18
-1.57345e-17
9.50032e-18
-5.12286e-18
1.79435e-17
-2.08709e-18
-6.11219e-18
-3.14419e-18
-1.52737e-17
7.2506e-18
-3.30682e-18
-3.90313e-18
-1.24819e-17
8.06375e-18
-2.00577e-17
-7.7927e-18
-1.1872e-17
4.33681e-18
4.8247e-18
-6.73561e-18
-4.72983e-18
1.32273e-17
-6.64074e-18
-4.87213e-18
-6.03087e-18
1.01102e-17
1.95156e-18
-5.27193e-18
1.10724e-17
-6.97955e-18
-6.966e-18
8.78204e-18
1.34848e-17
2.60209e-18
1.61275e-18
-1.5355e-17
2.47037e-05
-0.000108213
8.33982e-05
2.04508e-17
-1.23735e-17
-2.9409e-18
8.80914e-19
-8.26704e-19
-1.0842e-18
-2.01255e-17
-5.57009e-18
1.24683e-18
4.25549e-18
1.73201e-17
-2.66985e-18
1.53144e-18
5.81403e-18
-6.72189e-05
0.000125127
-1.24548e-17
-4.25549e-18
1.2631e-17
-1.33357e-17
-5.96311e-19
-2.18873e-18
8.13152e-20
8.8498e-18
1.05574e-17
-8.26704e-19
1.74828e-18
5.48877e-18
-0.000107708
9.02598e-18
-9.48677e-20
2.968e-18
-3.17129e-18
7.41323e-18
4.70273e-18
7.73849e-18
2.94496e-17
-1.28207e-17
-1.2387e-17
7.7656e-18
-2.89889e-17
-1.05981e-17
3.91126e-17
-1.22786e-17
-1.52737e-17
6.62719e-18
-1.87025e-18
1.17771e-17
-9.48677e-20
1.6263e-18
8.61941e-18
8.0231e-18
4.16063e-18
5.81403e-18
1.05303e-17
-1.11808e-18
4.43787e-05
6.00377e-18
7.7656e-18
0.000148438
-0.000103085
8.76849e-18
7.08797e-18
1.09775e-18
-7.31836e-19
-1.13841e-18
-5.3668e-18
-8.37948e-05
-3.19833e-05
0.000115526
1.17907e-18
1.2841e-17
-3.93023e-18
8.79559e-18
1.18856e-17
-0.000114971
0.000103879
1.20263e-05
-1.00153e-17
1.2631e-17
2.2504e-17
-1.94479e-18
-1.20482e-17
6.66784e-18
5.27193e-18
-2.03074e-14
3.51688e-18
4.70273e-18
0.000147361
-1.05898e-05
1.44334e-17
-1.61275e-17
6.93889e-18
6.624e-05
5.55817e-05
-0.000122145
2.02678e-17
-4.67562e-19
-8.80914e-19
2.50315e-17
-9.21572e-18
-1.11131e-17
-3.79471e-19
-1.63579e-17
1.35254e-17
-5.29904e-18
-1.19533e-17
-9.58841e-18
-1.76725e-17
-2.46656e-18
5.66496e-18
-1.3295e-17
1.2116e-17
-2.05863e-17
-5.1814e-05
0.000129156
-1.16281e-17
0.000136375
-5.5886e-05
-4.67558e-05
0.000118307
3.7405e-18
-6.32903e-18
2.58853e-18
-1.43521e-17
1.09233e-17
-3.23905e-18
-4.37747e-18
3.68629e-18
-8.40212e-05
-8.55297e-06
9.05804e-05
-3.44234e-18
4.71628e-18
-3.68629e-18
-1.69678e-17
6.51199e-18
2.05998e-18
1.03306e-11
4.28492e-09
-1.80249e-18
-2.63258e-17
-2.04643e-18
-1.19804e-17
8.28059e-18
1.73472e-18
1.72524e-17
1.4718e-17
-7.19639e-18
-4.0251e-18
7.33192e-18
-1.36406e-17
-8.46235e-05
-3.53721e-18
-1.19059e-17
4.90601e-17
-6.7085e-18
6.13929e-18
-1.25225e-17
8.11119e-18
7.90112e-18
-3.29326e-18
-1.11944e-17
4.33681e-18
-9.32921e-13
2.48927e-11
-7.54876e-18
-2.54652e-17
1.36067e-17
1.16552e-17
4.5401e-18
-1.11266e-17
-1.57209e-18
-1.38507e-17
-3.79471e-18
5.04154e-18
-1.06523e-17
-4.83825e-18
3.04796e-17
4.63496e-18
-1.54228e-17
1.43928e-17
1.71575e-17
-2.02881e-17
7.64363e-18
-4.72983e-18
-7.22672e-05
0.00012862
-5.68053e-05
1.00966e-17
-4.5401e-18
-1.18449e-17
7.80626e-18
-8.07731e-18
-6.49166e-18
1.24683e-18
1.12079e-17
-3.44234e-18
-2.4503e-17
0.000112144
-8.13152e-19
1.10589e-17
8.13152e-19
0.000112429
-6.18349e-05
-1.11131e-18
9.32414e-18
-2.90024e-18
-3.38813e-18
-5.64463e-18
5.27193e-18
5.21908e-17
-1.56396e-17
1.42844e-17
2.77827e-18
-1.05032e-17
-2.1806e-17
-5.31259e-18
-3.44234e-18
-3.26616e-18
6.9931e-18
4.67562e-18
-2.77806e-09
-4.00669e-09
-9.47322e-18
7.98244e-18
1.05981e-17
-1.21431e-17
1.84314e-18
9.60064e-05
-9.74902e-05
1.24606e-06
3.06287e-18
-9.89334e-19
-8.08681e-05
1.76183e-18
6.43745e-18
1.1872e-17
-7.37257e-18
-3.86247e-18
-6.57298e-18
-6.05798e-18
1.45283e-17
8.25349e-18
-3.86247e-18
-4.22839e-18
1.15196e-18
1.52873e-17
-5.55654e-18
-3.04661e-17
7.14896e-18
-3.80826e-18
-3.64699e-17
-2.66443e-17
-7.60297e-18
-0.000126553
7.26982e-05
5.30889e-05
-1.30104e-18
-1.07065e-17
1.10318e-17
-1.38371e-17
-8.11796e-18
1.07472e-17
1.81604e-18
-1.8838e-18
0.000130478
-9.55649e-05
8.80721e-05
7.26133e-06
-1.65747e-17
1.56261e-17
1.46367e-18
6.64479e-05
5.43826e-05
-0.000121509
-1.94885e-17
-1.95766e-17
-5.89535e-18
6.05798e-18
-7.16929e-18
1.20956e-17
-1.1086e-17
-2.05998e-18
-4.47233e-19
5.52943e-18
6.28564e-05
-8.47557e-05
2.17116e-05
0.000134644
-7.6557e-05
-1.50296e-05
0.000110808
1.072e-17
-5.7395e-18
-3.60497e-18
1.10995e-17
-1.39456e-17
-3.46945e-18
-1.78893e-18
-1.11402e-17
6.77626e-19
2.4818e-05
-0.000109939
-1.05439e-17
1.79164e-17
1.65341e-18
1.45012e-18
1.22786e-17
-8.13152e-19
-6.49166e-18
3.38813e-18
1.53279e-17
4.24194e-18
-7.04054e-18
7.02699e-18
-1.40269e-17
1.28885e-17
-5.69206e-18
1.28342e-17
5.86824e-18
9.56808e-18
2.38253e-17
1.66696e-18
-7.27771e-18
8.67362e-18
-5.48877e-18
1.97867e-18
3.68629e-18
-8.18573e-18
-0.00012203
0.000107285
7.15573e-18
5.25838e-18
-5.51824e-05
-8.27678e-05
5.35998e-05
9.30069e-05
0.000113465
-9.11638e-05
-3.998e-18
-3.00866e-18
-0.000124092
-4.44523e-18
5.61075e-18
1.25225e-17
1.29291e-17
-5.3397e-18
1.05574e-17
-3.26616e-18
4.34765e-17
1.72795e-18
6.88468e-18
-6.03087e-18
-1.08285e-17
1.05506e-17
-2.95445e-18
7.37533e-05
-1.07548e-05
3.14419e-18
7.45389e-19
7.02021e-18
5.28549e-18
-1.44063e-17
4.75694e-18
3.98444e-18
7.71139e-18
-4.99411e-18
-5.14996e-19
7.30481e-18
-4.8518e-18
-1.43115e-17
7.02021e-18
1.02999e-17
-7.18284e-19
-1.41488e-17
7.31836e-18
8.48388e-18
6.55942e-18
3.42879e-18
7.23705e-18
6.89824e-18
-8.12921e-05
0.000117352
-1.82553e-17
7.00666e-18
-2.69695e-18
-1.23192e-17
1.38913e-17
-9.48677e-18
6.0512e-18
6.38324e-18
7.00666e-18
9.43256e-18
6.74916e-18
-9.08019e-19
-1.54499e-17
8.47033e-18
-1.30104e-17
-2.30393e-19
-8.15862e-18
2.12775e-17
1.91768e-17
-2.52348e-17
-4.35036e-18
2.11826e-17
2.14074e-05
8.04358e-05
-0.000101116
1.69678e-17
1.76183e-19
-1.17704e-17
-8.05003e-05
0.000113856
-4.22839e-18
2.85958e-18
1.16687e-17
-2.91379e-18
1.65341e-18
-1.72117e-18
3.91668e-18
-5.06865e-18
8.44322e-18
-1.12757e-17
-2.83248e-18
-3.05881e-17
5.42101e-19
6.4848e-06
4.13183e-05
-2.98156e-18
9.75782e-19
-4.64852e-18
-8.74841e-05
-1.31717e-05
5.24483e-18
-6.36969e-19
1.05303e-17
3.93023e-18
1.19398e-17
5.01444e-18
-2.1684e-18
-3.8816e-14
3.89876e-15
-1.19868e-13
-0.000134982
0.00011506
2.35814e-18
-5.3668e-18
-3.60497e-18
1.25496e-17
1.0842e-19
7.75882e-18
2.43268e-18
-3.47143e-13
4.0182e-14
-2.74505e-06
-9.54312e-05
9.77322e-05
3.2255e-18
-1.57209e-18
-1.32815e-18
8.80914e-18
3.52366e-18
-1.13164e-17
5.3668e-18
-0.000137446
4.19318e-05
-9.24282e-18
2.69424e-17
1.23735e-17
7.27771e-18
-8.09086e-18
2.1684e-18
1.66967e-17
2.08844e-17
1.78893e-18
-4.17418e-18
2.7742e-17
-1.28613e-17
-1.98002e-17
1.84856e-17
8.23994e-18
-1.87974e-17
-5.89535e-18
-1.33086e-17
6.38324e-18
1.00018e-17
1.34983e-17
1.92143e-05
-9.69393e-05
3.01544e-18
-2.57498e-19
-1.48671e-17
-1.92446e-18
-3.00731e-17
5.42101e-20
5.19062e-18
-3.17129e-18
7.81981e-18
-8.10251e-05
-1.34748e-05
9.25912e-05
-4.39102e-18
-3.55076e-18
-8.26704e-19
-1.45554e-17
2.37169e-18
1.39727e-17
-2.22261e-18
-3.86247e-18
-9.76295e-07
-6.41553e-05
1.43386e-17
-3.82181e-18
-8.47033e-18
-1.73472e-18
3.78116e-18
-3.72694e-18
4.72983e-18
-3.7676e-18
-1.90549e-17
2.93006e-17
-2.16095e-17
1.4203e-17
-1.47723e-17
-1.42302e-18
9.60874e-18
9.03954e-18
-4.10642e-18
6.34258e-18
2.76492e-05
-2.08022e-05
-6.00722e-06
7.11508e-18
-1.19533e-17
1.25903e-17
-9.54098e-18
1.56667e-17
2.968e-18
3.17129e-18
2.968e-18
-1.39591e-17
6.38324e-18
0.000109161
-7.63082e-05
-4.74338e-19
6.23416e-19
-6.30193e-18
2.29851e-17
2.30393e-19
-1.02186e-17
7.51488e-18
3.26616e-18
4.26905e-18
-5.99022e-18
1.11131e-18
-5.28549e-19
7.11508e-18
-9.81203e-18
6.54587e-18
8.09086e-18
8.03665e-18
-1.57345e-17
1.79164e-17
-3.52366e-18
4.33681e-18
2.6834e-18
0.000100938
-7.91747e-05
-2.08804e-05
1.94208e-17
2.71051e-20
-5.85469e-18
-4.29615e-18
-1.17704e-17
2.42319e-17
-8.76849e-18
3.02899e-18
2.49366e-18
-1.0449e-17
2.35136e-18
4.74338e-18
6.40357e-18
1.61275e-18
-2.03288e-18
1.32747e-17
1.0266e-17
-3.72694e-18
-2.84603e-18
2.11419e-18
-1.04151e-17
-4.89924e-18
-3.65918e-18
-6.41035e-18
2.16527e-05
-9.42428e-05
0.000125409
-5.24948e-05
-7.20112e-05
5.96311e-18
-7.83336e-18
-1.32408e-17
1.38236e-18
1.55447e-17
1.18043e-17
7.42678e-18
-1.28681e-17
-9.62229e-19
-9.25638e-18
8.13152e-18
-5.78693e-18
2.37169e-18
3.23228e-18
-4.81115e-19
3.36509e-17
1.14925e-17
-1.84043e-17
-6.46519e-05
0.000104769
1.81726e-16
-1.56898e-16
1.13977e-17
-1.93598e-17
-8.53809e-18
-2.21855e-17
4.48589e-18
5.55654e-18
6.77626e-18
5.00088e-18
-6.24772e-18
1.3417e-17
-1.34712e-17
5.59719e-18
-5.23128e-18
2.09387e-18
1.09369e-17
-1.43792e-17
2.11148e-17
7.00666e-18
-1.64799e-17
1.57074e-17
1.16145e-17
-9.28348e-18
1.3417e-18
-1.24683e-18
-2.24972e-18
-1.25528e-05
-0.000121761
6.36969e-18
-1.17636e-17
4.74338e-18
-2.00035e-17
5.43456e-18
-7.85447e-05
7.65273e-06
-1.00628e-17
-5.94956e-18
-1.99493e-17
-5.05509e-18
1.12893e-17
-1.17771e-17
2.87314e-18
-1.01373e-17
-8.99888e-18
-8.13152e-19
1.38371e-17
1.24412e-17
1.22786e-17
4.03865e-18
-1.59513e-17
-3.67273e-18
5.71917e-18
5.70561e-18
-1.3146e-17
-2.09387e-17
1.587e-17
3.82181e-18
-7.10152e-18
8.26704e-19
-2.31748e-18
2.77871e-05
0.000119049
-4.29615e-18
9.31059e-18
7.08797e-18
-4.72983e-18
-1.69542e-17
1.4203e-17
-1.38507e-17
1.05981e-17
1.19262e-18
7.45389e-19
2.14672e-17
-2.0776e-17
3.41524e-18
9.55453e-18
-1.53144e-18
1.16552e-18
4.63496e-18
-2.26327e-18
-5.13641e-18
-4.51299e-18
-4.71628e-18
1.53144e-17
-2.72406e-18
-7.86047e-18
7.15573e-18
7.45389e-19
1.55854e-18
1.80655e-17
-1.9393e-05
6.49637e-05
-4.48735e-05
-1.278e-17
2.66849e-17
-2.4652e-17
-6.7085e-18
6.17995e-18
-1.77267e-17
-8.19928e-18
-1.38236e-17
4.25549e-18
5.843e-15
1.0571e-18
-2.31748e-18
9.62229e-19
0.000133491
-6.59798e-05
-6.72878e-05
4.77049e-18
-8.50388e-05
4.10978e-06
-4.43168e-18
8.26704e-19
1.19804e-17
2.02881e-17
-3.69984e-18
-3.27971e-18
-1.13841e-18
9.78492e-18
6.44439e-05
5.73107e-05
-0.000122134
-2.98156e-19
2.46114e-17
-6.09864e-19
3.75405e-18
1.81604e-17
-2.15485e-18
-1.51924e-17
1.75099e-17
7.48099e-18
1.35525e-20
-1.37423e-17
-3.11708e-18
1.93395e-17
7.45389e-19
-1.50162e-17
6.15285e-18
7.16929e-18
-2.66985e-18
-3.55076e-18
-2.30393e-18
-7.69784e-18
8.80914e-18
-1.82417e-17
2.05185e-17
-1.05981e-17
1.09775e-18
7.75205e-18
-9.01243e-18
6.27482e-18
3.25261e-19
-1.22244e-17
7.92823e-18
-8.21933e-05
-4.49348e-05
3.79471e-19
-3.15774e-18
-3.2255e-18
-2.16298e-17
9.51387e-18
-1.40946e-18
1.07065e-18
-5.75982e-18
2.62919e-18
2.7437e-05
0.000101493
-1.86347e-17
2.1684e-18
-4.21484e-18
1.39862e-17
1.00831e-17
4.63239e-12
1.33885e-12
-5.21772e-18
1.77538e-18
-1.62766e-17
-7.9629e-05
-3.38737e-05
-1.38371e-17
-4.52654e-18
7.2235e-18
1.2902e-17
-1.72524e-17
2.01933e-18
4.60786e-18
-1.02051e-17
-1.35525e-19
5.69206e-18
-1.11266e-17
6.77626e-19
6.66784e-18
1.09775e-18
-1.96512e-18
-2.07083e-17
-4.5672e-18
2.39473e-17
-8.72084e-05
-3.04909e-05
0.000117401
-0.000125607
3.54633e-05
3.00866e-18
1.28749e-18
-2.58853e-18
-1.46367e-18
-2.10471e-17
5.25838e-18
1.86212e-17
7.45389e-19
-5.28549e-18
1.77538e-18
-9.35124e-18
-1.76996e-17
2.24565e-17
-1.49078e-19
2.968e-18
-2.98156e-19
1.17907e-18
6.53232e-18
-1.06658e-17
4.68917e-18
2.48418e-17
-2.10064e-19
-8.7346e-18
-3.11573e-17
1.17907e-18
7.99599e-18
1.28478e-17
-1.79029e-17
-4.47233e-19
1.39456e-17
-6.26804e-18
3.63208e-18
7.08797e-18
5.46167e-18
3.10488e-17
-0.000101259
-2.72406e-18
9.12085e-18
4.39102e-18
1.37016e-17
-3.5101e-18
-5.89535e-19
1.68051e-18
7.34547e-18
4.09286e-18
-2.12097e-18
-1.1601e-17
-2.1928e-17
-2.50398e-14
-2.4259e-18
2.09251e-17
-3.53721e-18
8.23275e-05
-8.55446e-05
-8.64737e-05
0.000114575
-2.88349e-05
-8.60585e-19
-8.97177e-18
1.484e-17
-1.8201e-17
-3.75405e-18
2.53026e-17
1.6263e-19
1.38642e-17
-4.79759e-18
1.08556e-17
5.82759e-19
7.95533e-18
-1.27868e-17
-9.26993e-18
2.15485e-18
-4.33681e-18
1.0327e-17
-1.07472e-17
-7.57586e-18
5.14996e-18
-3.2255e-18
8.13152e-19
-3.29326e-18
-1.52466e-17
1.27394e-18
1.55447e-17
-6.7085e-18
1.61682e-17
-9.59519e-18
1.27936e-17
1.27394e-18
-7.88757e-18
-0.000109816
4.40762e-05
6.52216e-05
4.20128e-18
9.35124e-19
6.05798e-18
-6.92534e-18
2.53432e-18
3.42879e-18
-8.19928e-18
-1.55854e-19
-6.09864e-18
3.34747e-18
-4.13352e-18
2.43945e-19
3.10353e-18
0.000128382
-7.46658e-05
-3.34747e-18
-9.54098e-18
-5.89535e-18
6.85063e-05
9.25638e-18
3.06287e-18
-1.83366e-17
-4.44523e-18
2.44894e-17
-9.3919e-18
9.08019e-19
-1.02593e-17
-3.17129e-18
-1.34848e-17
-3.27971e-18
6.32903e-18
7.58942e-19
-1.39456e-17
2.07083e-17
8.55164e-18
8.34836e-18
1.06658e-17
-8.8498e-18
-7.00666e-18
3.15774e-18
-5.27193e-18
-1.24412e-17
-1.45757e-17
4.52654e-18
-1.83772e-17
7.81981e-18
4.33681e-18
-1.95698e-17
4.5401e-18
-0.000102388
8.90308e-05
1.41038e-05
-3.16723e-17
2.08031e-17
-1.48671e-17
-8.75493e-18
8.13152e-19
9.47322e-18
-1.68729e-17
2.92735e-18
1.72117e-18
-2.83248e-18
1.0842e-19
1.5748e-17
-2.87314e-18
-4.85858e-18
-1.46367e-17
-9.1073e-18
4.97378e-18
3.03577e-18
-4.20128e-19
-3.63885e-18
-2.47605e-17
1.69542e-17
-1.89193e-17
5.28549e-18
7.95533e-18
-4.20264e-17
-6.70727e-05
0.000133016
-5.51588e-18
5.28549e-19
5.59719e-18
-1.88651e-17
-2.77827e-19
7.72494e-19
1.21973e-18
-7.51488e-18
-5.85469e-18
-1.96512e-18
3.7405e-18
2.31213e-05
8.7265e-05
-0.000111909
8.75493e-18
-2.04914e-17
-4.62141e-18
-8.97177e-18
-1.04354e-17
-2.87314e-18
1.61275e-18
-4.96022e-18
1.48807e-17
-2.79182e-18
1.2387e-17
-1.35322e-17
3.1984e-18
8.53809e-19
-1.36881e-18
6.93889e-18
8.97343e-05
3.80935e-05
5.25838e-18
-7.04731e-18
-5.6243e-18
-2.6563e-18
1.52059e-17
-9.82558e-18
-7.11508e-18
-2.28496e-17
3.23905e-18
-6.80337e-18
-2.968e-18
1.10724e-17
1.74692e-17
1.55854e-18
-4.07253e-18
-1.65747e-17
-7.99599e-19
1.30104e-18
3.38813e-19
-1.73066e-17
1.43115e-17
1.92852e-17
-2.01933e-17
7.48099e-18
3.55076e-18
1.67577e-17
-1.95156e-18
0.000120008
-3.07848e-05
2.07354e-18
-2.63732e-17
1.0842e-17
-0.000122023
3.81309e-05
5.74627e-18
-2.27005e-17
1.7686e-17
1.97867e-18
-2.84603e-18
1.16552e-18
3.26616e-18
-1.34441e-17
-1.08285e-17
-7.96216e-05
0.000120383
-9.86029e-05
1.54305e-05
2.80673e-17
-2.22261e-17
-8.32125e-18
1.29969e-17
4.55195e-13
2.80007e-11
2.90769e-13
6.26184e-05
-2.66571e-05
-1.80249e-18
8.06375e-18
8.89046e-18
6.1935e-18
2.0261e-18
7.00666e-18
6.39679e-18
-5.00088e-18
-3.14419e-18
2.30528e-17
-1.50704e-17
8.90401e-18
-1.01508e-17
8.68717e-18
-2.90024e-18
3.16452e-18
-1.4447e-17
9.33769e-18
-1.20889e-17
-7.81981e-18
-3.67337e-13
5.80374e-14
-1.38507e-17
9.75782e-19
6.73561e-18
2.01526e-17
-1.74557e-17
-5.51588e-18
0.000111135
-8.37636e-05
-3.03186e-05
1.6427e-16
-2.41913e-18
0.000111607
-9.11907e-05
-1.77809e-17
1.2116e-17
7.08797e-18
7.99599e-19
-1.51517e-17
8.70072e-18
1.77674e-17
-2.77827e-18
-1.85941e-17
1.8567e-18
-1.61953e-18
3.72694e-18
-6.46456e-18
-1.89735e-18
-1.29833e-17
1.42573e-17
4.11997e-18
-3.44234e-18
-4.76272e-05
0.000145972
-0.000103109
3.5101e-18
-8.42967e-18
-1.10182e-17
-1.22108e-17
1.22244e-17
-1.06252e-17
3.97089e-18
1.30375e-17
1.17771e-17
-5.49477e-05
2.13379e-06
-5.35325e-19
6.66107e-18
-5.58364e-18
3.82181e-18
-1.05981e-17
8.0231e-18
-3.998e-18
-4.33681e-18
-2.72406e-18
-6.60008e-18
8.28059e-18
-1.46638e-17
1.98545e-17
-1.00289e-17
6.02754e-05
3.758e-05
-9.85033e-05
-1.2116e-17
6.30193e-18
4.22839e-18
-3.998e-18
7.07442e-18
-3.30682e-18
5.67851e-18
1.37152e-17
1.07743e-17
-6.51877e-18
7.08797e-18
-8.94467e-18
1.34441e-17
2.31748e-18
-2.43945e-18
-6.17995e-18
8.68717e-18
-1.51924e-17
6.74916e-18
-1.50298e-17
1.20617e-18
5.59719e-18
0
7.58942e-19
-5.55654e-18
3.3678e-18
1.70423e-17
1.38575e-17
-1.1994e-17
1.31731e-17
2.66985e-18
-1.6629e-17
-4.17418e-18
8.13152e-18
5.55654e-18
1.0842e-18
-1.65341e-18
-1.33628e-17
2.05185e-17
-2.20273e-07
-0.000106655
3.79471e-19
-8.36191e-18
-0.000115517
-2.69695e-17
1.26716e-17
-8.43598e-05
-2.34582e-05
0.000107879
3.15774e-18
-1.2265e-17
6.09864e-19
5.85469e-18
-1.14383e-17
-1.02051e-17
1.99222e-18
-4.90601e-18
-1.4447e-17
1.65341e-18
5.27193e-18
1.67374e-18
6.78982e-18
2.5167e-17
-1.03406e-17
-3.071e-17
3.13063e-18
8.86335e-18
1.37694e-17
1.02999e-18
-3.45589e-18
7.64363e-18
-1.27394e-17
-9.44611e-18
-1.18585e-17
7.16929e-18
-4.98733e-18
1.80249e-18
5.25838e-18
-1.34848e-17
6.81692e-18
-1.24141e-17
-1.08149e-17
6.64751e-18
5.27871e-18
-9.16151e-18
8.00954e-18
-1.22515e-17
-0.000118436
3.57254e-05
-1.19127e-17
-7.53521e-18
-1.09775e-17
1.98002e-17
7.89435e-18
1.22921e-17
-7.98921e-18
-2.24498e-17
0.000110085
7.03376e-18
7.67073e-18
-1.27258e-17
1.13706e-17
-1.35525e-20
7.58942e-18
-2.34594e-17
-3.53721e-18
1.2509e-17
-4.64852e-18
-2.37169e-18
-2.03288e-18
1.22921e-17
2.05998e-18
-9.33769e-18
8.80914e-19
-8.97177e-18
-9.48677e-19
6.31548e-18
-9.6765e-18
3.27984e-05
1.47316e-17
-2.34459e-18
1.51653e-17
-1.37965e-17
-4.60786e-18
-6.22061e-18
6.9931e-18
6.85758e-18
-1.19262e-18
9.934e-18
3.87602e-18
-9.71716e-18
-1.07607e-17
6.97955e-18
-8.32125e-18
4.5401e-18
-1.35525e-18
1.63986e-18
1.33899e-17
-2.32832e-17
3.00595e-17
5.46167e-18
-1.59784e-17
7.03376e-18
-9.92045e-18
4.26905e-18
5.1093e-18
-4.75694e-18
3.34747e-18
8.90401e-18
8.32125e-18
2.01391e-17
-0.000102906
-1.96477e-05
2.20906e-18
0.000113463
-8.48693e-05
-2.9988e-05
1.3146e-18
7.65718e-18
7.41323e-18
-1.23735e-17
-1.19804e-17
-5.85469e-18
-8.78292e-05
0.000116978
-2.95535e-05
-6.74916e-18
1.85263e-17
-4.37747e-18
1.12622e-17
-6.1664e-18
-9.7179e-05
-2.10494e-05
0.000118565
-1.09233e-17
-7.86047e-19
1.24819e-17
-4.22454e-05
0.000120247
-8.20442e-05
1.15902e-05
1.23328e-18
-5.1093e-18
1.26716e-17
2.03288e-19
-1.34712e-17
1.49078e-19
-7.61652e-18
5.19062e-18
4.22839e-18
-6.58653e-18
-5.96311e-18
-1.9475e-17
2.71051e-18
1.31595e-17
-7.18284e-19
1.8567e-18
-1.22786e-17
-4.24194e-18
5.85469e-18
-7.57586e-18
0
8.16548e-05
-4.63496e-18
1.21973e-19
-7.31836e-19
-1.09911e-17
-8.40257e-19
-1.59581e-17
4.17418e-18
-3.07642e-18
-5.05037e-05
4.93594e-05
-4.49266e-17
2.04372e-17
1.14248e-17
6.1664e-19
-3.59142e-19
1.26039e-18
2.03288e-19
-8.93112e-18
2.64274e-18
4.77049e-18
8.21283e-18
4.48589e-18
-1.0842e-18
-8.8227e-18
1.46096e-17
2.23328e-05
-0.00010627
-1.39591e-18
6.50521e-18
-1.23328e-18
2.54652e-17
-1.67645e-17
-3.79471e-18
8.86335e-18
6.69495e-18
-7.18284e-19
-3.03577e-18
-1.26581e-17
-2.12775e-18
4.09286e-18
-1.88922e-17
-1.36203e-17
1.08556e-17
1.49078e-19
3.86247e-18
1.32679e-17
4.74338e-19
9.3648e-18
8.72783e-18
-0.000130471
3.46371e-05
4.25549e-18
-1.45554e-17
5.78693e-18
8.97177e-18
1.21973e-18
-9.63585e-18
1.4141e-07
-3.46945e-18
2.46782e-05
-2.23313e-06
-4.90323e-05
1.24683e-18
-1.89871e-17
5.50233e-18
-6.41035e-18
2.0383e-17
-1.59378e-17
-9.01243e-18
6.34258e-18
-1.59649e-17
-2.43945e-19
4.98733e-18
3.03577e-18
-6.58653e-18
-8.58553e-18
3.7405e-18
8.5652e-18
-7.18962e-18
-1.83095e-17
8.26704e-19
5.70561e-18
-3.08998e-18
-1.06387e-17
-1.12757e-17
-6.93765e-05
-3.36468e-05
-0.000118204
3.83173e-05