/*--------------------------------*- C++ -*----------------------------------*\
  =========                 |
  \\      /  F ield         | OpenFOAM: The Open Source CFD Toolbox
   \\    /   O peration     | Website:  https://openfoam.org
    \\  /    A nd           | Version:  12
     \\/     M anipulation  |
\*---------------------------------------------------------------------------*/
FoamFile
{
    format      ascii;
    class       surfaceScalarField;
    location    "9.68";
    object      phi;
}
// * * * * * * * * * * * * * * * * * * * * * * * * * * * * * * * * * * * * * //

dimensions      [1 0 -1 0 0 0 0];

internalField   nonuniform List<scalar> 
33852
(
0.000251329
2.24281e-05
-0.000273757
-0.000246121
1.32441e-05
0.000232877
-0.000177029
-7.21638e-05
0.00024689
0.000304053
-0.000163969
-0.000140085
0.000292878
-4.30612e-05
-0.000249439
2.72441e-05
-0.000260681
0.000233437
0.000315637
1.47949e-05
-0.000330366
0.000304277
-9.59564e-05
-0.000208321
0.000286413
-3.50841e-05
0.000196533
2.78477e-06
-0.000196355
0.000289678
-0.000366901
7.71213e-05
0.000361503
-4.58193e-05
-4.39602e-05
0.000263285
-0.000219325
-4.3858e-05
0.000318241
-0.000274355
6.12809e-05
-0.000237938
0.000252057
1.2236e-05
-0.000264293
0.000264853
-1.2796e-05
-0.000278433
3.23121e-05
0.00034059
-5.11892e-05
0.000158593
0.000112308
-0.000270901
-2.43556e-05
0.000303242
-0.00027891
0.000271377
-0.000276165
4.78802e-06
-1.77124e-05
0.000274718
-0.00025701
-0.000220688
1.41984e-05
0.000206524
-0.000154299
-0.000183456
0.000337311
-0.000146108
-6.79442e-05
0.000218432
3.72401e-05
0.000267037
-6.12468e-05
-0.000262884
0.000324956
-0.000206486
1.565e-06
0.00020274
-0.00020291
-1.85597e-05
0.000142045
0.000137388
-0.000279433
0.000341955
1.93435e-05
0.000142618
0.000128347
-0.000270965
-0.000101136
0.000259729
-0.000250489
-3.78001e-06
0.000254269
0.000330936
-5.9576e-05
-0.000271306
-0.000358063
0.000203664
-0.000227125
0.000209411
0.000231645
3.32081e-05
-5.65602e-06
0.000237301
-8.25968e-06
0.000209325
-0.000232625
0.000259869
0.000316037
-5.71321e-05
-0.000258748
-0.000309093
5.51042e-05
0.000253989
0.000240497
-0.000300852
0.000273589
-0.000306321
3.27321e-05
-0.000180237
-5.49362e-05
0.000235173
0.000272133
-0.000272133
0.000148429
-0.000297473
0.000149045
-0.000211644
0.000217602
-7.31028e-06
-0.000268241
0.000237301
3.09401e-05
-0.000196223
0.000241753
-4.62772e-05
-9.16164e-05
-0.000217477
-0.000114753
-0.000252189
-0.000280169
0.000266113
1.40561e-05
0.000329211
1.18698e-05
-0.000250433
7.01963e-05
0.000117908
0.000145909
-0.000263817
1.34681e-05
-0.000267457
0.000253989
-0.000134569
0.000282997
-0.000154241
-5.09397e-05
0.000213011
-0.000274681
0.000245113
2.95681e-05
0.000237553
-0.000268437
3.08841e-05
-0.000186794
-2.3492e-05
0.000151665
0.000115565
-0.00026723
-0.000190418
-2.83599e-05
0.000219927
0.000263985
2.24281e-05
0.000275941
-2.35201e-06
0.000265329
-0.000250741
-1.45881e-05
0.000227631
-6.32156e-05
-0.000154475
-1.82001e-06
0.000239373
0.000367053
-0.00031308
-5.3928e-05
-2.84084e-05
0.000303734
-0.000275373
-0.000101584
0.000219493
0.000342503
2.42352e-05
-0.000372779
0.000353685
1.83283e-05
-0.000210273
2.23197e-05
0.000310496
-0.000322531
1.23911e-05
-0.000207568
0.000274257
-6.41458e-05
-4.45202e-06
1.71024e-05
-0.000319282
0.00030232
0.00023295
-0.000197911
-3.51424e-05
0.00026837
-0.000338605
6.98522e-05
0.000331733
-6.33187e-05
-0.000268941
0.000236573
3.23681e-05
-0.000129388
-0.000132609
0.000261997
-1.86761e-05
-0.000249565
-1.022e-05
-0.000258721
2.32387e-05
0.000209713
-0.000233754
3.15444e-05
-0.000215177
0.000191365
-2.49435e-05
0.000327146
-0.000302847
-0.000279329
0.000273701
5.62802e-06
0.000156129
-0.000296857
0.000140729
-5.74189e-05
-0.000147191
0.000199748
0.000143277
0.0001218
-0.000265077
-0.00025004
0.000225682
-0.00020803
0.000143276
-0.000168813
0.000327181
-0.000158369
0.000185389
7.16523e-05
-0.000257041
0.000255193
2.07481e-05
-0.000192277
0.000148317
5.01001e-05
0.000266172
0.000307172
-0.000289956
9.30995e-05
-0.00023068
0.000135241
0.000117096
-0.000281065
-7.66893e-07
0.000244885
-0.000244337
0.000166489
0.000122836
-0.000289325
0.0001438
8.97429e-05
-3.92002e-06
0.000259113
0.000305051
5.4534e-06
-0.000323916
0.000315121
8.95122e-06
-3.99002e-05
0.000236293
-0.000196393
4.08802e-06
-0.000284257
-2.57743e-05
0.000165112
-0.000139359
-0.00015786
0.000132793
0.000209714
-0.000171603
-0.000269921
0.000264965
4.95602e-06
2.64041e-05
0.000174721
-0.000201125
2.87841e-05
-0.000257265
0.000228481
0.000276137
-0.000262669
0.000115108
0.000212073
0.000214718
-0.000191442
-0.000175813
0.000202217
1.36692e-05
0.000282928
-0.000296459
0.00027128
2.18923e-05
0.000272109
-0.000284481
1.24425e-05
3.86402e-06
0.000267513
-1.81797e-05
0.000290198
0.00033043
1.00484e-05
0.000213737
-0.000257672
0.000316397
-0.000316399
-6.63603e-06
-0.000272693
2.8989e-05
0.000204354
0.000187993
3.98722e-05
-0.000227865
-5.48927e-05
0.000212942
-0.000171612
0.000153609
-0.000270285
0.000116676
0.000279441
-0.000329701
5.02602e-05
-6.38122e-05
0.000249201
-0.000166909
0.000315897
-0.000148989
-0.000313825
-9.97141e-06
-0.000214929
0.000175029
2.78601e-05
-0.000278349
0.000276221
-1.88441e-05
-0.000248613
1.70904e-05
-0.000301958
0.000284506
0.000344989
-0.000158593
-0.000186397
-1.68906e-05
-0.000241199
0.00025778
-0.000266617
-3.30401e-06
0.000224001
2.45841e-05
-0.000248585
0.000284509
-0.000128381
0.000140197
0.000138853
-0.000279049
-0.000200438
-1.08764e-05
0.000258169
-0.000115551
0.000225701
-0.000242541
-6.38122e-05
0.000251805
-0.000206704
0.000249481
-5.60002e-07
-0.000248921
0.000255109
-0.000237441
-0.000324671
0.000299138
-3.08841e-05
0.000203169
-0.000172285
0.00029188
1.29921e-06
-0.000293033
7.72849e-05
0.000132667
-0.000209803
4.61082e-05
-0.000194206
-0.000289783
-4.65468e-06
0.000294379
-1.55311e-06
-0.00028795
0.000146973
-0.000273925
0.000126952
-0.000261858
0.000220101
-0.000294612
0.000265544
0.000279441
-0.000311854
-1.23995e-05
0.00032412
0.000111971
0.000163324
-2.13127e-05
0.000352223
0.000140141
0.000139833
-0.000279973
0.000245029
-0.000250349
5.32002e-06
-0.000210953
0.000180069
0.000279133
-5.43202e-06
0.00035092
-3.26068e-05
-0.000301075
0.000302193
-3.24074e-06
0.000270985
-0.000270985
-0.0003649
0.000226134
0.000138774
-0.000210274
2.0198e-05
1.67968e-05
0.000275157
-0.000278461
3.30401e-06
-5.5589e-06
0.000170864
-0.000166847
-0.000197345
0.000254801
-5.74562e-05
-0.000204219
4.54597e-06
-0.000237575
0.000159578
8.2412e-05
-0.000180264
0.000261403
-8.11404e-05
0.000256285
-0.000287113
3.08281e-05
-0.000249229
5.18842e-05
-2.34349e-05
0.000276217
-0.000253018
-0.000253547
1.35801e-06
0.000252189
0.000231281
-7.28003e-06
-0.000294247
7.58029e-06
0.000286548
-0.000266085
0.000266085
-0.000284835
-5.5078e-05
-0.000170726
-0.00019415
-0.000172143
0.000218409
-4.49123e-05
-1.232e-05
-0.000239177
0.000251497
3.10801e-06
0.000210113
-0.000213221
-0.000185231
-2.3034e-05
0.000206983
7.55807e-06
0.000294438
-0.00030199
-0.000236153
-1.34401e-05
0.000249593
1.50361e-05
-0.000251189
-0.000241025
0.000256061
-0.000301288
0.000308879
0.000256117
7.16803e-06
-0.000170389
-3.19616e-05
0.000200118
-0.000145237
-0.000134765
-0.000244329
0.000240549
0.000298609
-3.87836e-07
-0.000298202
-0.000298802
5.88024e-07
0.000298228
1.92511e-05
0.000181217
0.000163773
7.70044e-05
-0.000257269
-0.000159242
0.000310908
0.000250721
-0.000108677
-0.000235145
-1.83681e-05
0.000253513
-0.000204614
-0.000126806
0.000331418
-6.10402e-06
-0.000229125
0.000235229
-2.2196e-05
-0.000187968
-0.000287128
-8.59179e-05
6.29488e-06
-0.000300605
-0.00021255
0.000328055
-0.00011553
0.000281597
0.000288205
-5.16322e-05
0.000271993
-1.57081e-05
-0.000187619
-1.43247e-05
0.000202083
0.000297685
4.41399e-07
-0.000297971
-0.000270632
-3.22485e-05
-0.000218821
0.000247605
-2.5226e-05
0.000310543
-0.000285343
0.000180602
7.93592e-06
-0.000188787
-3.42077e-05
0.000213248
-0.000301241
0.000276013
0.000292825
5.84414e-06
-0.000298322
0.000157445
0.00011886
-0.000276305
0.000289707
3.93567e-06
-0.000294536
-0.000246123
0.00011643
0.000127505
-0.000281451
0.000295263
0.000302513
-0.000156857
-0.000145657
0.000207005
-0.000203897
-0.000232009
-0.000121156
-0.000155009
-4.03056e-06
-0.000294018
0.00029811
-1.0136e-05
0.000276249
0.000292178
-2.02517e-05
-0.000271129
-0.000262945
2.93477e-05
0.000233651
0.000271433
-0.000267569
0.000249621
2.95121e-05
0.000314764
-9.7608e-06
-0.000305133
4.98808e-05
0.000152287
-0.000215547
-0.000101709
0.000199099
-9.73862e-05
0.000252617
-2.91201e-05
-0.000223497
8.07293e-07
0.000292034
-0.00017826
-3.17469e-05
0.000209384
-2.24934e-06
0.000290536
-9.33244e-05
0.000246933
-0.000255417
-5.26402e-06
0.000121184
0.000181329
1.34121e-05
0.000241557
-0.000254969
0.000236097
1.34961e-05
-0.000249593
0.000249509
-0.000242929
0.000256425
6.3589e-05
-0.000203573
0.000139329
-0.000215007
0.000115619
-0.000205272
0.000297192
1.39779e-06
-0.000298617
0.000253849
2.22881e-05
0.000268493
-0.000216441
-5.20522e-05
0.000225518
-0.000246849
2.13305e-05
0.000257909
1.40841e-05
5.82351e-05
0.000293933
0.000267186
-3.89594e-05
-0.000228226
0.000175444
1.274e-05
0.000240297
-0.000253037
0.000194813
-0.000114435
-8.11157e-05
-0.000208437
2.1839e-05
-1.24784e-06
-0.000297985
0.000299218
0.000221119
-0.000167822
-5.23633e-05
0.000344559
-4.1347e-05
0.000275969
-0.000135829
2.31561e-05
0.000238337
-0.000261493
-0.000231141
0.000254297
-2.66665e-05
-0.000229746
0.00025645
0.0001578
-0.000163417
-7.7726e-05
-0.000169822
-0.000261723
4.14346e-05
0.000220288
-3.17521e-05
-0.00022997
7.45585e-06
0.000261717
-3.25193e-05
-0.000229198
1.66234e-05
0.000123737
-0.000187428
0.000308785
-0.000171397
0.000262319
-3.57923e-05
-0.000226526
-0.000319166
0.00017849
-0.000100906
-0.000228453
-6.90203e-05
-7.58708e-07
-0.000297711
0.000297925
-2.80578e-05
0.000186028
-0.000152607
0.000307904
6.85137e-06
0.000250097
-0.000248249
-1.84801e-06
-0.000175473
6.14244e-05
0.00026027
-3.07128e-05
-0.000229554
0.000197345
-0.000250769
5.34242e-05
0.000254205
-0.000231206
-2.29992e-05
-0.000252337
0.000240017
0.000142071
0.00010056
-0.000101864
-0.000170269
0.000132496
-0.000261885
-0.000290249
0.000242201
4.80483e-05
0.00021681
3.12475e-05
-0.000248056
-0.000238102
-9.5658e-06
0.000246417
0.00032677
-2.30134e-05
0.000263996
-3.42721e-05
-0.000229724
0.000140784
-0.000231476
8.94169e-05
3.63259e-05
-0.000265637
0.000229311
-0.000253905
0.000121296
0.000249817
-5.24722e-05
0.000294673
-0.000154253
-0.000140421
0.000122248
-0.000289157
1.53441e-05
0.000237665
-0.000253009
-0.000262031
3.54705e-05
0.00022656
-2.76736e-06
-3.77917e-05
-0.000224239
0.000248304
-0.000272462
-0.000264649
3.44737e-05
0.000230175
0.000193257
0.000101416
-0.000149941
0.000290137
-0.000171204
-3.82704e-05
0.000208816
-1.81721e-05
0.000263201
-0.000292543
0.000309454
0.00011778
0.000103948
0.000261325
-0.000261325
0.000306654
-1.83718e-05
-0.000289349
5.32002e-07
0.000248949
0.000254857
1.65761e-05
0.000309243
-0.000275896
-3.3111e-05
-2.26336e-05
0.000266577
-0.000243943
3.00077e-05
-0.000260519
0.000230511
-0.000252139
0.000229506
0.000326898
3.11501e-05
-0.000260598
0.000229447
0.000276809
-3.16961e-05
-6.78267e-06
-0.000294271
0.000300676
0.000270555
3.89555e-05
0.000230245
-0.000266617
3.63721e-05
0.00020025
-0.000202226
-0.000258301
0.000238533
1.97681e-05
0.000169762
-0.000257245
8.74835e-05
-0.000215925
0.000163241
-0.000249145
8.59043e-05
-0.000266169
0.000224813
4.13562e-05
0.000253073
-2.78797e-05
-0.000225194
0.000167167
4.16516e-05
-0.000234837
-2.29601e-05
0.000257797
-0.000236377
-2.28761e-05
0.000259253
-1.94265e-05
0.000255969
-0.000236542
-0.000259345
0.000239919
-3.24694e-05
0.000173434
-0.000235929
-2.24001e-05
0.000258329
-0.00025484
0.000229192
2.56481e-05
2.94001e-06
0.000211289
-0.000214229
-0.000267031
3.79849e-05
0.000229046
0.000270677
4.48002e-06
4.20131e-05
0.000153781
-0.000195866
-3.31196e-05
0.000249929
-2.10252e-05
0.000218597
9.73004e-05
0.000248201
-0.000216949
0.000278012
-0.000279405
0.000278014
-0.000282683
-1.84997e-05
0.000258601
-0.000240101
-0.000261644
0.000243145
3.11057e-05
-0.000202942
-2.892e-05
-0.000206093
0.000234933
0.000315294
-0.000287818
-2.74674e-05
0.000261297
-3.11081e-05
-0.000230189
3.28739e-05
-0.000262362
0.000229488
-0.000229853
0.000259645
-2.97921e-05
0.000325611
-1.76682e-05
0.000143709
-0.000198224
0.000256929
-0.000109956
-0.000286315
0.000287661
0.000241977
-6.41202e-06
-0.000235565
0.000228537
-0.000174943
-3.80046e-05
0.000212461
2.83706e-05
-0.000209336
-0.000239989
0.000260317
-2.03281e-05
-0.000105015
0.000192984
-8.76621e-05
3.05783e-05
-0.000201634
0.000240169
-0.000263424
2.32552e-05
-0.000115584
0.000258861
-0.000243993
0.000265721
-2.17281e-05
-0.000238953
0.000232541
0.000258626
-0.000245105
-1.35213e-05
0.000264349
-2.46681e-05
-0.000246317
-0.000273156
-1.05372e-05
0.00029949
-5.36881e-05
-9.23542e-06
0.000289762
-0.000280088
-0.000159227
0.000200099
0.000231245
1.73137e-05
-0.000246624
0.000328451
-0.000328521
0.000260955
-0.000245018
-1.59377e-05
-0.000302087
-6.9073e-07
0.000305619
9.67428e-06
3.76243e-05
0.000170382
-0.000206922
0.000214439
-3.50096e-05
-0.000180252
0.000278054
-0.000255789
-2.22648e-05
-0.000209921
3.1434e-05
3.15421e-05
-0.000261891
0.000230348
0.000285505
-0.000292569
2.44721e-05
-0.000259617
-0.000257965
1.87881e-05
0.000266057
-1.64361e-05
0.000151173
-0.000267625
0.000116452
0.000298851
-4.39645e-06
0.000238617
-7.53763e-05
2.12521e-05
0.000177045
-0.000198297
-0.000183877
0.000205129
-0.000236275
0.000257219
-2.09441e-05
0.000261462
-3.31689e-05
-0.000228293
-0.000197009
-5.21362e-05
0.000251581
-1.48401e-06
9.0368e-06
-0.000264179
0.000254986
-0.00034244
0.000235828
0.000106314
0.000266371
-0.000236811
-2.95597e-05
0.000306779
-0.000314615
7.83629e-06
-2.57041e-05
-0.000229097
0.000254801
0.000261493
-7.64403e-06
1.01299e-05
-0.000208827
0.000262411
-3.19033e-05
-0.000230508
-6.90483e-05
-0.000260653
-0.000194685
0.000248025
-5.33402e-05
-0.000266533
0.000249985
1.65481e-05
-0.000317958
1.66879e-05
-1.73176e-05
0.000296994
-0.000279091
-0.000276221
1.65481e-05
0.000249537
-0.000169419
6.53836e-05
0.000273863
1.47895e-05
-0.000288697
-0.000316144
0.000307871
8.27282e-06
3.46641e-05
-0.000263649
0.000228985
-1.75212e-05
0.000281287
-0.000315204
1.64124e-05
-0.000176541
-7.42283e-05
-0.000231711
0.000202556
-2.16721e-05
-0.000216469
0.000238141
-0.000314762
0.000295883
1.88885e-05
-0.00013271
0.000275164
-0.000140871
-8.4047e-06
3.31521e-05
-0.000263453
0.000230301
-0.000202477
2.48555e-05
0.000177664
0.000221535
0.000280262
-0.000280338
2.44901e-07
-0.000236993
-2.20921e-05
0.000224813
-0.000202721
0.000139273
0.000143753
-0.000278517
0.000201458
-5.68686e-05
0.000308283
-1.05854e-05
0.000209273
-0.000268602
2.92853e-05
0.00022306
-0.000252345
-0.0003216
0.000138168
0.000296496
2.92382e-05
1.9426e-05
-0.000224355
-2.77845e-05
-0.000135865
-0.000133055
-0.000326267
0.000113525
0.000242873
2.56201e-05
0.000218765
-0.000224869
1.10157e-05
-0.0002879
0.000277237
-0.000243505
0.000269778
-2.71277e-05
0.000281392
-0.000281812
0.000285178
-7.68984e-05
-8.84726e-06
0.000290192
-1.87881e-05
0.000247101
-0.000228313
0.000281468
-0.000290337
-5.63893e-06
-0.000284007
0.000289627
0.000282036
-0.000270102
0.000284857
0.000226314
2.67597e-05
-0.000307919
0.00031717
-9.15888e-06
0.000252487
-2.06806e-05
0.000226999
2.41108e-05
-0.000268913
0.000246057
-2.05381e-05
-0.000259401
3.02849e-05
0.000229116
0.000178305
7.64963e-05
1.03553e-05
0.000281708
-0.000291394
-0.000238141
-2.88401e-05
0.000266981
2.51441e-05
-0.000263285
0.000284117
-0.000162317
-0.000232177
0.000261129
-2.89521e-05
-0.000234697
0.000260709
-2.60121e-05
1.4552e-06
0.000279181
2.45001e-05
-0.000259197
2.38001e-05
-0.000255977
0.000274242
-0.000242835
-3.13766e-05
0.000317866
-1.00487e-05
-0.000307273
-2.44995e-06
-0.000255753
1.1816e-05
0.000243937
-1.52374e-05
-0.000261185
0.000228065
-0.000245337
0.000270145
-2.48081e-05
-0.000263229
1.49801e-05
-2.35523e-05
0.000286542
-0.000262891
2.13641e-05
-0.000266701
-0.000241744
-2.13216e-05
3.25998e-05
-9.0432e-05
0.000260194
0.000280882
-0.000286484
5.05122e-05
0.000237693
0.000282137
-0.000281598
-0.000243181
-2.39401e-05
0.000267121
-0.000260894
7.34723e-06
-0.000295557
1.94602e-05
0.000276116
-0.000268717
2.55361e-05
-8.23237e-06
0.000290349
-0.000268326
0.000243549
2.47773e-05
-0.000232513
0.000210841
0.000280085
-0.000288698
-6.16002e-07
0.000260289
-0.000259673
-0.000301857
-1.61259e-05
-0.000264573
2.35481e-05
-0.00024417
-2.41556e-05
-3.43281e-05
-0.000297915
0.00029386
0.000286674
-0.000158327
0.000295379
-0.000289404
2.30152e-05
4.8844e-06
0.000262081
-0.000254924
-7.16018e-06
0.00030753
-2.02465e-05
-0.000287394
5.93409e-05
-0.000246765
-2.19521e-05
-0.000356807
0.000242161
0.000285765
-0.000281374
2.33801e-05
-0.000189902
-1.61732e-05
-0.000306174
2.56318e-05
0.000280857
-0.000196808
0.000310599
-0.000113971
0.000259841
-0.000238533
-2.13081e-05
-0.000291644
2.94001e-05
0.000222097
-0.000251497
-0.000173214
0.000142505
-0.000165833
0.000251441
-0.000238029
-1.34121e-05
-0.000263873
3.40201e-05
-2.23161e-05
-0.000269837
0.000251469
0.000230427
3.12901e-05
-4.44917e-05
0.000189958
0.000232619
-0.000260499
-1.7419e-05
-3.08757e-06
0.000246669
-0.000243663
-0.0002936
-0.000237049
0.000265189
-2.81401e-05
0.000230096
3.22225e-05
-0.000268521
2.55921e-05
-0.000239905
-2.86161e-05
0.000228954
-0.000260706
-0.000282635
4.73202e-05
-0.000242005
0.000294678
-0.000284256
-0.000288288
1.32896e-05
0.000275472
-5.19439e-06
0.00021874
0.000228551
-0.00026107
0.000296885
-0.0001309
-0.000165985
0.000241039
-0.000262261
0.000269012
-0.000226213
-1.76681e-05
-0.000165051
0.000306928
-0.000143503
2.49649e-05
0.000222662
-0.000247627
-0.0001936
0.000192858
-0.000283743
0.000282443
6.97857e-06
-0.000290742
-0.000302485
0.000146693
0.000155793
0.000259995
-0.000239359
-2.06361e-05
-0.000215741
0.000193649
0.000261704
3.92307e-07
0.000257293
0.000232526
2.16798e-05
-0.000295673
-6.218e-05
1.03576e-05
0.000233009
-0.000249679
1.78154e-05
-0.000230917
-2.37161e-05
0.000254633
-0.000242295
0.000263191
-2.08965e-05
8.21411e-05
0.000133682
2.01374e-05
-0.000305445
0.00028507
0.000256565
-1.80041e-05
-0.000238561
0.000243881
-0.000254017
1.0136e-05
-0.000226745
0.000207957
0.000223131
-0.000258923
-0.000244693
4.76842e-05
1.59695e-05
-0.000137758
-0.00021874
1.57921e-05
0.000245701
0.000280478
0.000292942
0.000305733
1.71207e-06
0.000249817
-0.000220417
2.51749e-05
0.000225009
-0.000250184
-0.000243178
0.000268865
-2.56873e-05
2.28201e-05
-0.000262725
-0.000109711
0.000296301
9.14517e-06
2.08181e-05
0.000261675
-0.000235103
-2.65721e-05
1.31592e-05
-0.000303893
0.000290798
0.000321452
-3.08826e-05
-0.00029057
0.000249733
1.63241e-05
0.00030613
-0.000292977
-0.000230512
-0.000112444
9.63204e-06
0.000250657
-4.9129e-05
-0.00020239
0.000251519
2.20333e-05
0.000246832
-0.000241686
-2.29629e-05
0.000260737
-2.24001e-05
0.000287889
-0.000268023
2.63369e-05
2.68241e-05
-0.000257965
0.000210617
-0.000207677
2.58161e-05
-0.000262865
0.00028137
0.000121744
-0.000256173
0.000134429
1.8605e-05
3.83845e-05
0.000161188
-0.000198261
-0.000239485
-2.85377e-05
3.97742e-05
0.000160224
-0.000202105
-0.000246691
0.000271066
-2.43747e-05
0.000209866
-0.000248826
1.98857e-05
1.73557e-05
-0.000176541
-3.06196e-05
0.000226696
-0.000257416
-2.88401e-05
0.000244245
-0.000215405
-2.16161e-05
0.000242985
-0.000221369
0.000201657
-0.000250786
-0.000273577
-0.000232905
-2.55081e-05
0.000258413
0.000241234
2.98318e-05
-0.000210956
-2.41359e-05
0.000236301
-2.18821e-05
-0.000224967
-0.000239345
6.28042e-05
0.000259004
-0.000229718
4.75106e-05
-0.000249901
-3.43393e-05
0.000257694
-0.000223354
0.000205675
-0.000240014
0.000261689
-1.1956e-05
-6.06764e-05
-0.000229572
-0.000226471
-1.68895e-05
0.000244014
0.000247109
5.3175e-05
0.000212448
-0.000265623
-0.000261088
0.000177353
-0.000231757
5.44042e-05
6.45689e-05
0.000136967
0.000259457
-0.000240915
-2.47224e-05
-0.000265385
0.000227165
3.82201e-05
-2.87813e-05
-0.000222158
0.00025094
-0.000284045
0.000264161
0.000234501
3.61761e-05
2.18821e-05
0.000234087
-0.000307217
0.000151089
0.000156129
0.000170933
-5.3189e-05
0.000254045
-0.000115192
2.56901e-05
0.000217446
-0.000243136
-0.000286015
0.000286594
9.2592e-06
0.000257377
-0.000245953
0.000208937
3.70161e-05
0.000254832
0.000246002
-1.99461e-05
-0.000246815
-2.02161e-05
-0.000263019
2.0724e-05
-0.000269215
2.24001e-05
2.79601e-05
0.000220024
-0.000247984
0.000242481
-0.000274597
1.32721e-05
0.000247902
-1.35258e-05
1.24604e-05
-0.000251605
-0.000328673
0.000124083
-0.000233135
-2.62109e-05
-0.000252113
0.000252113
0.000259782
-0.000144217
-1.87347e-05
-0.000278091
0.000296581
0.000274865
0.000258749
-0.000135913
0.000224113
2.39205e-05
0.00023468
7.81347e-05
-0.000340857
3.80098e-05
0.000258962
1.76363e-05
-0.000248843
-3.00917e-05
0.000207453
-3.01001e-05
0.000259701
2.95429e-05
0.000218353
-0.000247896
-3.05014e-05
-4.09782e-05
-0.000217818
0.000258797
-0.000233423
-2.14173e-05
3.77298e-05
-0.000198063
0.000160151
-3.30877e-05
0.000221671
-0.000255943
-0.000281876
-8.42046e-06
0.000290134
-0.000194906
0.000161117
0.000166349
8.16763e-05
1.28627e-05
-0.000294853
0.000235075
2.59446e-05
-0.000261019
-0.000197412
-1.19245e-06
0.000232743
-0.000264287
3.15449e-05
-8.42803e-06
-0.000217029
0.000225457
-0.000161749
0.000199069
-0.000249985
-3.46025e-05
0.000256274
0.000218076
-0.000252679
-0.000246289
0.000272245
-2.59561e-05
0.000253547
2.78321e-05
-0.000232062
-2.95821e-05
-0.000298233
0.000316646
-1.82464e-05
2.33655e-05
0.000212462
-0.000250254
-0.000267233
2.09441e-05
-2.12801e-05
-0.000245953
-3.61481e-05
0.00024861
-0.000290346
-1.37302e-05
0.00022082
-0.000256968
0.000248131
-0.000252014
2.00467e-06
2.80002e-06
0.000181413
-0.000184213
0.000255294
0.000234529
2.67681e-05
-2.62361e-05
0.000245001
-0.000218765
3.36001e-05
0.000216609
-0.000250209
0.000244861
2.73841e-05
0.000306545
-0.000143949
-0.000162597
1.54594e-05
0.000240415
-0.000254172
0.000271013
-0.000113568
0.000225569
-0.000256677
-0.000241058
0.000104811
-0.000265469
7.16803e-06
-0.000241635
-2.75801e-05
-0.000241361
-2.48081e-05
0.000309786
-2.75621e-05
-7.67483e-05
0.000243097
-1.1452e-05
-0.000215601
0.000224281
-8.68003e-06
0.000255193
-7.68883e-05
3.44512e-05
-0.000196554
0.000162876
-0.000265245
-1.40001e-07
-4.14962e-05
3.95804e-05
0.000161395
-0.000198357
0.000198138
-0.000163507
0.000257041
-7.05603e-06
0.000251151
-0.000218277
-1.82153e-05
-2.1128e-05
0.000268038
-9.36225e-05
-0.000177999
-1.42801e-05
-0.000191913
0.000206193
0.000258665
-1.53553e-05
-0.00024331
1.98101e-05
0.000238855
-0.0002801
-7.97333e-06
3.6874e-05
-0.000193212
0.000154622
1.36921e-05
0.000247997
-0.000158572
0.000194582
-1.95189e-05
0.000248711
3.37347e-05
0.000183336
-0.000217293
-4.17202e-06
-2.49389e-05
0.000265108
-0.000231955
-3.14693e-05
0.00029708
-0.000281921
-1.52854e-05
1.63717e-05
-0.000237659
0.000221288
-0.00010514
0.000226885
1.92792e-05
-0.000305177
0.000285891
2.52001e-05
-2.79441e-05
2.69165e-05
0.000308954
-0.000289665
0.000238891
1.97345e-05
2.15601e-06
0.000231617
-0.000233773
-0.00031038
2.56072e-05
0.000284714
-0.000162177
-0.000144145
0.000209178
-0.000250156
-0.000163989
0.000241924
1.90317e-05
0.000255359
-4.13534e-05
0.000250531
0.000214498
-0.000255851
0.000318596
-0.000318797
-1.07431e-05
0.000286357
-0.000276475
-0.000302726
1.96089e-05
0.000283367
4.20842e-05
-0.000286413
-3.91107e-05
0.000252483
2.62921e-05
-2.21883e-05
0.000307508
-0.000285336
2.43321e-05
3.95322e-05
0.000161819
-0.000200734
0.000249294
-0.000219751
2.83277e-05
-0.000261633
4.36802e-06
-2.00442e-05
0.000306655
-0.000286694
-0.000250987
-0.000266673
3.07441e-05
0.000252141
-0.000236741
-1.54001e-05
1.2264e-05
0.000239877
-0.000274575
-1.27555e-05
0.000255697
-6.67488e-06
0.000314249
-1.19958e-05
0.000298607
-0.000286387
-4.59052e-05
0.000247437
-0.000235621
0.000257601
-1.99361e-05
0.000133188
8.80461e-05
-0.000218268
0.000227819
3.03493e-05
0.000226759
-0.000258662
3.71393e-05
0.0002718
-0.000288706
1.69565e-05
0.000251273
-0.000239093
-1.31321e-05
0.000252225
-2.91201e-05
-0.000257265
2.56481e-05
0.000231617
-0.000228005
-2.92601e-05
0.000259765
-0.000233571
-2.61941e-05
0.000258721
-0.000266712
2.38128e-06
0.000288702
1.21592e-06
-0.00028955
0.000248917
-0.000230902
-1.85921e-05
0.00030888
-0.000300882
-8.02878e-06
0.000256681
-0.000101316
-0.000266897
2.56761e-05
0.000241221
-3.48881e-05
-0.000232009
-0.000266393
2.51161e-05
0.000241277
-1.22462e-05
-0.000267776
0.000279948
-3.45241e-05
-0.000231869
-0.00026183
1.83956e-05
-0.000266281
2.43881e-05
0.000241893
-0.000284154
-2.15062e-05
-0.000306182
2.76287e-05
0.000278563
-3.34041e-05
-0.000232877
-0.000170278
-0.000258133
2.94001e-05
0.000228733
0.000308262
-0.000309026
-0.000195805
0.000209049
-3.29281e-05
-0.000225205
0.00019734
-0.000278792
8.16024e-05
0.000283824
2.23337e-05
-0.000301953
1.76961e-05
0.000285926
-0.000280706
-4.89837e-06
-0.000257125
0.000231617
2.55081e-05
0.000165292
2.88247e-05
-0.000200307
-0.000266953
2.81681e-05
0.000238785
-0.000227361
-2.97641e-05
-3.67361e-05
-0.000230217
0.000277113
0.000297517
1.91666e-05
-0.000276183
-3.17722e-05
0.000307747
-0.000258679
-1.07609e-05
0.000297763
-0.000286912
1.49718e-05
-0.000301814
0.000286858
-0.000230609
-0.000307361
0.000287329
0.000263005
-2.55271e-05
-0.000280682
1.36081e-05
0.00016653
0.000229953
1.8992e-05
-0.000250934
-0.000200466
0.000161068
0.000236738
1.31517e-05
-0.00024989
-0.00025833
2.66093e-05
0.000231721
-1.09228e-05
0.000247661
5.74002e-06
0.000246877
-3.19817e-05
-0.000226348
0.000299715
-0.000285924
-1.39213e-05
0.000228024
-0.000226666
0.000289726
0.000237685
1.98521e-05
-0.000257537
-1.24236e-05
0.000250108
0.000246636
1.50389e-05
-0.00030573
1.54199e-05
0.00024448
2.18905e-05
3.18841e-05
-0.000198815
-0.000287448
-1.77188e-05
-0.000182869
0.000295177
-0.00015126
0.000183003
-3.34367e-05
3.20554e-05
-0.000198835
0.000165771
-0.000166518
0.000259149
-0.000239236
-1.99137e-05
0.000260666
-0.000273617
-0.000240779
0.000230224
-2.18545e-05
0.000301041
-0.000279234
0.000307901
-0.000292913
0.000242117
1.77241e-05
-0.000224975
0.00024443
-1.94545e-05
1.61001e-05
-0.000241075
-7.00003e-06
0.000260989
-0.000297099
4.84488e-06
0.000292254
-0.000174497
0.000160217
-1.74105e-05
-6.25206e-06
-0.000290876
-1.67722e-05
-0.000285032
4.28402e-06
-0.000300944
0.00013507
-0.000257446
2.37058e-05
0.000233746
0.000238197
1.32441e-05
-3.08173e-05
-0.00022663
-3.3123e-05
-0.000292214
2.02666e-05
-0.000229803
0.000209618
0.000254969
-0.000233465
-2.15041e-05
-0.000199306
0.000220756
-0.000186215
-7.4227e-06
0.000202762
0.000135635
0.000135607
3.95168e-06
0.000271222
0.000279923
-0.000305497
3.15188e-06
0.000242375
-1.9826e-05
0.000298676
-0.00027893
-0.000302176
0.000287411
1.47743e-05
-0.000258301
0.000230077
2.82241e-05
-2.64041e-05
-0.000231897
0.000302334
-0.000301818
0.000267436
-2.00024e-05
0.000304536
-0.000284603
0.000286595
-2.44405e-07
-0.000256873
0.000256873
-0.000268094
0.00029576
-0.000143758
-6.62359e-05
-7.21912e-06
0.000294422
-0.00028695
-0.000297911
0.000291022
0.000291658
-0.000279004
0.000291618
-0.000306481
1.47143e-05
3.4848e-05
-0.000238076
0.000216268
2.25184e-05
-1.45097e-05
-0.000247765
0.000230023
-1.43469e-05
0.000298446
-0.000284089
0.000263481
-1.96001e-05
0.000254224
-0.000235464
-1.87601e-05
-3.09844e-05
-0.000273631
0.000304604
1.43414e-05
-0.000297065
0.000282636
-1.45881e-05
0.000233465
-0.000218877
0.000208144
-0.00029584
0.000283664
-1.92114e-05
0.000304571
-0.000285395
0.00025102
-2.68494e-05
0.000297619
-0.000270744
-0.000295983
0.000269031
1.07156e-05
0.000244749
-0.000255465
0.000305211
-0.000312026
6.77621e-06
1.81551e-05
1.47158e-05
0.000286241
-0.000301349
6.32001e-06
0.000283408
2.33652e-06
-0.000318699
-0.000289893
0.000304716
-0.000242481
0.000243657
8.45603e-06
-0.0002264
0.000242772
-0.00029342
0.000274157
0.000284533
-0.000150993
-8.29175e-05
0.000294482
1.44681e-05
3.17754e-05
-0.000200122
0.000168457
-0.000274548
0.000257293
-0.000219535
0.00024982
0.000243411
1.92865e-05
-0.000262697
0.000236019
2.31309e-05
-0.000300746
0.000282137
0.000312402
-1.79852e-05
0.000237945
-0.000257069
1.91241e-05
-0.000222494
0.000247459
0.000294282
1.80542e-05
-0.000168889
-1.46631e-05
0.000298303
-0.000283714
-0.000143955
-0.000266415
0.000159993
0.000106423
-0.000309258
0.000295575
1.3686e-05
-0.000258699
0.000241826
1.68729e-05
-0.00014875
0.000152002
-0.000306407
0.000288608
1.78453e-05
-0.000213996
0.000175485
-9.69084e-06
0.000253101
2.0464e-05
1.75539e-05
-0.000304392
0.00028683
-0.000300137
-7.29934e-06
0.000307448
-0.000249229
0.000220109
-0.000201153
-8.52603e-05
-0.000273023
0.000252275
0.000303897
-0.000286338
-0.00019415
1.80428e-05
1.50016e-05
0.000284369
-0.000299346
-8.80603e-05
0.000239233
-0.000303345
1.95151e-05
0.000283786
-0.00020849
-2.74773e-06
-0.000297535
-0.000167371
2.05297e-05
0.000302451
-0.000287723
-1.46266e-05
-0.000173301
-0.000299085
-0.000173617
-2.27903e-05
0.000243528
0.000289428
1.72006e-05
0.000252869
5.75163e-05
-0.000285033
-0.000247213
-0.000271071
-2.35152e-05
-0.000274385
0.000300252
-0.000262992
0.000281983
-0.000167929
-4.15658e-05
0.000212029
0.000197569
1.56521e-05
-0.000213221
-1.24567e-05
-0.000285598
0.000298184
1.83597e-05
1.86528e-05
-0.000305451
0.000286913
0.000253345
-1.71361e-05
-0.000236209
1.89253e-05
-0.000304884
0.00028592
2.03561e-05
0.000232989
0.000216385
-2.46121e-05
-0.000191773
1.57642e-05
0.00028255
-0.000298141
-0.000250644
0.000117946
-0.000303766
1.85853e-05
0.000285128
0.00021397
-5.05697e-05
-0.000295729
1.18664e-05
0.000285057
0.000255837
-2.19801e-05
-0.000233857
-0.000303188
0.000105888
0.000234529
1.70521e-05
-0.000251581
0.000280363
1.67692e-05
0.000304203
-0.000285298
1.79613e-05
-0.000299851
0.000233512
1.84916e-05
-0.000252004
-1.8934e-05
-1.43552e-05
0.000298517
-0.000284164
-0.000280114
0.000299943
-0.000278311
0.00029211
-0.000302798
1.15163e-05
0.000249741
-1.62291e-05
1.14256e-05
0.000250041
-1.55121e-05
0.000298632
-0.000282456
3.95922e-05
-0.000239445