/*--------------------------------*- C++ -*----------------------------------*\
  =========                 |
  \\      /  F ield         | OpenFOAM: The Open Source CFD Toolbox
   \\    /   O peration     | Website:  https://openfoam.org
    \\  /    A nd           | Version:  12
     \\/     M anipulation  |
\*---------------------------------------------------------------------------*/
FoamFile
{
    format      ascii;
    class       volScalarField;
    location    "4.8";
    object      p;
}
// * * * * * * * * * * * * * * * * * * * * * * * * * * * * * * * * * * * * * //

dimensions      [1 -1 -2 0 0 0 0];

internalField   nonuniform List<scalar> 
46253
(
0.863638
1
1
1
1
1
0.800748
1.06272
1
1
0.862236
0.810787
0.999967
0.999985
1
1
1
1
1
1
1
1
1
0.824347
0.803862
1
1
1
1
1.06275
1.13536
1.33972
1.4438
1
1
1
1
1
1.05496
1
0.766529
0.81088
0.992962
0.974896
0.837501
1
1
1
1.50024
1.50198
1.49432
1.49526
1
1.0604
1.00006
0.877839
1.45104
1.4471
1.27022
0.780193
1
1.01441
1
1
1
1.00036
1.0007
1
0.880567
0.828992
0.787077
1.43426
1.4325
1.05132
1
0.822958
1.36668
1.36407
1
1.58707
1.59228
1.40543
1
1.40414
0.792801
1
1.30847
1.30661
1.06164
1
1
0.762271
1
1.46643
1
1.46094
1
1
1.26716
1
1
1
1
1.13069
0.999987
0.787549
0.815962
1.25513
1.25282
0.83617
1.05573
1.41912
1.41445
1
1
1.06322
0.794694
0.786513
1.47869
0.891758
1
1
1.39392
1.38987
1
1.48925
1
0.859731
0.987873
1.35088
1.22115
1.21921
1
0.810311
1.34779
1
1.33364
1.33116
0.888086
1
1.37448
1.20322
1.20058
1.11905
1.37648
1.00124
1.31691
1.31442
1.05531
1
0.834054
1
1.34209
1.33977
1.07965
0.81618
0.857969
1
1.29161
1.00001
1.28954
0.816758
0.875102
1
0.80327
1.32479
0.808582
1.32357
1.69393
1
1.27637
1.27513
1
0.789083
1
0.883583
1.05031
1
1.04926
0.818712
0.999998
1.07723
1.26176
1.26001
1
1.30015
1.29705
0.849999
1
1
1
1
0.770947
1
1
1
1.05585
1
1.10181
1.0999
1
1
1.28381
1.2825
1
0.813669
1.07317
1.24051
1.2393
1
1
1.47933
0.769694
1
1.04795
1
1.11401
0.780917
1.22723
1
1
1.22559
0.895962
1.26979
1.26743
0.767047
1
1
1.07423
1.07168
1.20846
1
1
1
1
1
1
1
1.20525
1.22655
1
1
1
1
1
1
1
1.07184
1
1.20836
1.20736
1.22317
1.04603
1
1.04299
1.24772
1.24521
0.903861
0.787269
1
0.800384
0.766852
0.830795
1.12261
1.04247
1
1
1
1.23463
1.18893
1.23272
1
1
1
1.18761
1
1.00044
1
1.0613
0.924818
1.01855
1.01692
1
1
1
0.774607
0.772613
0.892426
1.10397
1
1.25816
1.25548
0.786356
1
1.2473
1.17007
1
1.16727
0.765149
1.17733
1.46168
1.17574
0.865065
1.46225
1
1.21487
1.21302
1
1.12231
1
1
1.05196
1
1.16423
1
1.16274
0.880232
1.24443
1
1.06194
0.858991
1
0.809828
0.80501
1.05465
1.09912
1
1
1.15255
1.15135
0.974082
0.97358
1
1
1
1.02333
0.899275
1.19535
1.19302
1
1
1
1
1.49669
1
1.1397
1.13828
1
0.888217
1
1.0584
1
0.786164
1
0.820274
1
1.18329
1
1.18238
1
0.819798
1
1
1
1
1
1
1
1.12922
1
1
1
1
1.12825
1
1.23659
0.885518
1
1
1
0.776106
1.02677
0.860786
1.16997
1.06196
1.16824
1
1
1.1166
1.51317
1
1.10644
1.11507
0.76858
1
1.06184
1.05655
1.05842
1
1.1313
1
0.922356
0.919931
1.23338
1
1.00232
1
1
1
1
1
1
1.42048
1
1.12579
1
0.808289
1
1
0.905049
1
1
1.10654
1
1.15808
1
1
1.10524
1.15689
1
1.05144
1
1
1
1
1.08158
1.06094
1
1
1.06037
0.861523
1
0.776192
1
1.08904
1.08422
1
1
0.89045
1
0.926741
1.13832
1
0.922087
1
1.3683
1.06103
0.99896
1.14563
1.09574
1
1.09526
1.09678
1.14347
1
1.09459
1
1
1
1
1
1.03736
1
1.06106
0.865089
1.08854
0.913326
1.06725
1.08744
1.0359
0.88745
0.885518
1
1
1
1
0.987369
1
0.930417
0.7732
0.790928
0.932669
1.09059
0.78735
1.09299
1
1
1.13395
1.11951
0.832242
1.13283
1.07888
1.07762
0.880482
0.787986
1
0.87632
1.12725
1
1
1
0.771149
1
1.06223
0.898549
1
1
1.10017
1
1
1.01854
0.885416
1.12847
1
1
1.1296
1
1.12773
1.13728
1.1288
1
1.04915
1.04789
1
1.09403
1.11796
1
1
1.12361
1
0.805237
0.909436
1
1
1.12098
1
1
1
1
0.776184
1
1
1.06098
0.91638
1.06001
0.785111
1
1
1
1
1
0.999998
1
1.08948
0.793683
1
1
1
1
1
1
0.801499
1.11093
1
1.09582
1
1
0.863042
1
1
1
1.11078
1
1
1.10974
1.09154
1.15994
1
1.16302
1.16436
1.16794
1.07262
1
1.05225
1.0506
1.10579
1.07549
1
1
1.05074
1
1.45839
1.05178
1
1.46459
1.0723
1
1.1209
1.12962
1
1
1.06742
1.10152
1
1
1.04503
1.0001
1.00001
1.16714
1.1023
1.27694
1.27612
1.27307
1.2753
0.872601
1.08567
1.26356
1.00727
1.26465
1.25101
1
0.803275
0.840433
1.25227
1
1.24199
1
1.24345
1
1.09495
1.23167
1
1.23335
1.35806
1
1.21961
1
1.22204
1
0.778813
1
0.920634
0.842222
1
1
1.20914
1.21067
1
1.12239
1.20019
1.20167
1.04238
1
1
1.18484
1.03503
1.18616
1
1.0954
1.17281
0.867506
1.17521
1.03431
1.09287
1
1
1
1.16195
1.164
1.06396
1
1
1.15286
0.939856
1.15356
0.859704
1
1.13844
1.14003
1
1
1
1.01081
1
1.11871
1.15476
1.1396
1
1.12265
1
1.12433
1
1
1.12116
1.12174
1.11326
1.11483
1.08785
1.13088
1.10366
1.13678
1.10518
1
1.05903
1.08825
1.09002
1
0.896502
1.07839
1.07923
1.65106
1
1
1
1.19604
1.08075
1.17206
1.1749
1.07764
1.09343
0.836047
1.17205
1.17347
1.15429
1.16455
1.16643
0.89008
0.883063
1
1.05807
1.47528
1.02411
1
0.844345
1.02207
0.870482
1.07658
0.808093
1
1
1
1.08355
1
1
1
1
1
1.08273
1
1
1
0.907923
0.897648
1
1.05248
0.872811
0.857674
1
1
1
1
1
1.02795
1
1.08819
1
1.15415
1.02097
1.15684
0.877946
1
0.774831
0.7628
1.16834
1
1
1
1
1
1.1599
1.15747
1.02713
0.816346
0.813461
1
0.921672
1
1
1.16009
1.14802
0.99696
1.05942
1.11946
1.00012
1.05741
1.06482
1
1.16285
0.861521
1.08991
1
1.09257
1.00983
1
0.999996
1.09566
1.0994
1
1.00893
0.887387
1
1
1.19514
1.19664
1.0845
1
0.887484
0.888542
0.762889
1.02273
1
1.1224
1.06158
0.863858
1.3487
1
1
1
1.14762
1.14934
0.999999
1.02868
1
1.06701
1.13342
1
1.07233
1.13442
1.06463
1.09186
1.08722
1
1.08558
1.13236
0.843246
1.08258
0.861066
1.09827
1
1
1.09964
1
1
1.09419
1.08558
1
0.998014
0.89986
1.12176
0.89045
0.897226
0.99663
0.889977
0.886252
0.858511
0.856271
1
1
1.07414
1
1
1.09892
0.912972
0.898273
1
1
1.13735
1
1.12467
1.13501
1.23357
1.35665
1.08819
1.01882
1
0.999823
1
1.08901
1.13047
1.07484
0.887314
1
1.0564
1
1.12721
1.12536
1.05599
1
1.11781
1.10606
1.11579
1
1
1
1
1.10576
1.12672
1
1.03696
1
0.887837
1
0.887976
0.843974
0.807541
1
0.989296
0.988008
0.787026
1.41001
1
0.896289
1.05751
1.0576
0.897717
1
1
1.09182
1.18826
1
1
1.12522
0.816362
1.06979
1.09556
1
1
1
1
1
1
1.51929
1
0.858474
0.881773
0.875228
1.06367
0.862212
0.85133
0.886005
0.903088
1.08592
0.847492
0.886853
1.22611
1.23683
1.24669
1.21414
1.2282
1
1.04019
1.23867
1.25582
1.21603
1.08874
1.24811
1.18129
1.20484
1.25913
1
1.26685
1.20606
1.26891
1
1.19015
1.26396
1.27776
1.27809
1.19162
1.30378
1.28604
1.17946
1.31613
1
0.993472
1.18123
1
1.16765
0.998956
1
1
0.97805
1.1691
1
1
1
1.15662
1.1691
1
1
1
1.15794
0.977116
0.835695
1.14337
1
0.98431
1.14417
1.12854
1.1299
0.879451
1.11857
1.11923
1.1086
1
0.827364
1.1096
1
1.09368
0.800845
1
1
1.09487
0.926164
0.838819
1.0832
1.08483
1.14829
1.03959
1.0877
0.857559
1.179
1
1.14341
1.03825
1.18718
1.0457
1.02371
1.09124
1.16994
1.13754
1.13822
0.79976
1.16798
1.15922
1.16028
0.860884
0.829604
0.891739
1
0.832898
1
0.832947
0.829567
0.83012
1
1.48345
1.08216
1
0.978104
0.975788
1.10468
1.11253
1
1.06551
1.16729
1.17697
1.07404
1.07007
1.16301
1.16945
1.16462
1.15863
1.03738
0.887098
1.1304
1.09243
1
0.989109
0.904777
0.868188
1.02915
1
1.21978
1.15832
0.809065
1
0.963427
0.770858
1.00161
0.961826
1
1.31233
1
0.948533
1.02901
1.06383
1.15982
1.04367
1.05089
0.875608
1.0308
1.0059
1.0294
1.14161
0.772234
0.812857
0.892961
0.85504
0.988979
1.17408
1.15022
1
1.173
1.25297
0.953695
1.02024
1
1
1
1.11552
1.12565
1
1
0.848248
1.02431
0.859166
1
0.7932
1
1.11092
0.960234
1
1
0.885756
0.864402
1.28208
0.869993
1.1328
1.13329
1.00003
1.17822
1.12255
1
0.96679
1
1.03948
0.954836
0.977452
0.911294
1
1
0.987233
0.976232
1.13186
1.10015
1.11703
1.11709
1
0.954411
1.13422
1.09003
1.08878
0.858149
1.04335
1
0.963632
0.922857
1.12146
0.837447
1.12195
1.15988
1
1
1
0.911316
1.1088
1
1.08178
1.11032
1.08008
1.07639
0.896182
1.08197
1.1755
0.799748
1.21286
1
1
0.973012
1.22762
1
1
1
1.10106
1
1.10271
0.781862
1.04191
0.973608
1
1
0.972865
1
1.30538
1.09
1.2996
1.30397
1
1.12343
1.30114
1.09679
0.971294
1.20934
1
0.791561
1.27916
1.24654
0.976533
1
1.19921
1.28118
1.25943
0.999888
1.12164
0.891113
1.00017
1
0.90029
1.26292
1
1.22493
1.13506
1
1
0.783058
1.24015
0.94555
1.08703
1.26337
1.01429
0.852391
1.29611
1.24094
1.24335
1.08335
0.942944
1
1.13747
1.01351
1.1376
1.16099
1
1.22199
1
1
1
1.22229
1
1
0.938017
1.04336
1
0.943615
1.22466
1.13391
1.10027
1
1.03863
1
1.12553
1
1
1
1
1
1.04282
1
1
1
1
1
1
0.961715
1.19013
1
1.02292
1
1
1
1.05081
0.924953
0.850066
1
0.843283
1.13482
1
1
1
1.13777
0.999452
1.16707
1.0001
1.25923
0.886436
0.880618
1
1.23649
1
1
1.24062
1
1.27865
1.27327
1.12038
1.25593
1
1
1.22937
1.23055
0.896698
1.22094
1
1.22228
1.15329
1
1.2126
1
0.945146
0.946782
0.899344
1.20479
0.890199
0.938703
1
1.21449
0.955741
0.959864
1.15599
1.16201
0.838487
1.16301
1.15524
1.03518
1.16036
1.16131
0.93577
1.19568
1.38986
1.05806
1.31107
1.15838
1.37053
1.31624
1.1589
0.935861
1.16344
1
0.969646
1.16213
1.37537
1.30043
0.892167
1.12521
1.16097
1.3517
1.00346
1.36342
0.888619
1.36502
0.926032
1
1.1547
0.86217
1.00141
1.10817
1.35228
1.16397
1.09162
1
1.08516
1.23756
1
1
0.888654
1
1
1.08687
0.927783
1
1.33172
1.31729
1.33451
1
0.880772
1.13605
1.16205
1.16125
1.12738
1.31964
1.09021
1.15486
1.20635
0.940262
1.21715
1.30166
1.18845
1.30507
1.28128
1
0.937645
1
1.03851
1
0.887651
1.05023
1.28365
1.16568
1.09289
1.16892
1.11907
1.237
1.15401
1.06526
0.905726
1.21654
1
1.25897
1.26129
1
1.27858
1
1
1
1
1
0.931335
1
0.928841
0.880401
0.879392
1.23097
0.857904
0.878556
1.24037
0.856406
1
0.858714
0.926375
0.953398
1
1.05626
1.15321
1
1
1.27065
0.889175
0.908199
0.903486
1.13744
1
1
0.86102
1.01896
1.09499
1.20568
0.864162
1
1
1
1.31054
1
1.22655
1.22794
1.09014
0.870301
1.20207
1.21194
1
1.0564
1.21577
1.2995
1.15368
1
1.26557
1
1
1.15526
1.20319
1.09393
1.25004
0.873385
1.25755
1.26989
1.20147
1
1
1.14797
1.0055
1.05483
0.99325
1
0.852075
1.01998
1
1.1711
0.838257
1
1.1811
0.782687
1.18321
1
1
0.993008
1.21366
0.836885
0.883927
0.783529
0.958882
0.934885
0.945968
0.843613
1.12718
0.990413
0.97248
1
1.1733
0.833218
0.840077
0.956381
1.19112
1.17975
0.927911
1
1
0.971715
0.968796
0.794826
1
1.14019
0.831888
1.15011
1.14433
1.15237
0.947597
1.14304
1.21007
1.17037
1.21024
0.865859
0.930116
1.14306
0.945379
1.04785
0.864484
0.927062
1.15465
1
0.936771
1.09505
0.863795
1.28089
0.897459
1.10905
1.16332
1.28057
0.835596
1.12293
0.96555
1
1.16032
1.12335
1.21101
1.234
1
0.971432
1
1.06461
0.924413
1.14748
0.834107
0.828473
1
0.830233
0.878267
1.11325
1
0.829902
1.09108
1.14823
1.3463
1.09726
0.828581
0.918151
0.953653
1.13076
1.34807
0.833091
1.08062
1.0964
1
1.09712
1
1.08955
1.26711
1.08402
0.87146
1.24377
1.11224
1
0.829879
1.29397
1.15505
1
0.824008
1.29671
1.18558
1.53184
1.09604
1
1.05374
1.28911
1.06941
1
1.27353
1.07133
1
1.18378
1.27688
1.08423
1.33038
1.25301
1.05673
0.943932
1
1
1.25549
0.8529
1
0.861505
1.10379
1.18561
1.19501
0.868643
1.09728
0.944329
1
0.877751
1.3246
1
1
1.21179
1.31984
0.866262
0.911603
1.04276
0.817884
0.813814
1.13026
0.941726
1.04449
1.02655
1.13051
1.2442
1.15771
1.02958
1.12996
0.910846
1.11139
1.10821
1.06363
1.0653
0.858976
1
1.13201
1.32802
1.02144
1.21418
1.3244
0.882638
1
1.02085
0.992225
1.07622
0.901897
1
1
1.1577
1.15767
0.94922
1.11342
1
1
1.11996
1.12752
0.983085
1
1
1.02343
0.996789
0.997689
1.27689
1.102
0.884741
1.02719
0.996225
1
0.882106
0.980679
0.92524
0.873963
1.13739
1.15984
1.39724
1.19572
1.09569
1.20539
0.972302
1.20467
1.19855
0.802885
1.05419
1.07345
1
1.05151
1
1
0.967844
0.957805
0.980107
0.960176
1.27686
1.15636
1
1
0.975991
1.1637
0.899653
0.931358
0.967278
0.898412
1.1036
1.14168
1.16717
0.906659
0.856989
0.955095
1.33246
0.875311
1
1.02325
1.13484
0.905408
1.33274
0.971537
1.09069
1
1
1.0922
1.00431
1.28919
1
0.999998
1.00232
1
1.1309
0.924936
0.912701
0.906889
0.957896
1.13514
0.92887
1
0.911112
0.913662
1
0.859999
1.1668
0.930794
1.08656
1.09922
1
1
1.13749
0.937166
1.10496
0.916185
0.9181
1.32206
0.908821
1.24729
1
1.10286
1
1
1.12275
1.09027
1.09885
1.10494
1
1.16015
1.12345
0.923559
1.21703
0.920499
1.23731
0.945282
1.23057
1
1
0.898592
0.933359
1.13766
0.920383
0.999985
1
1.17128
0.918883
0.876999
0.920341
1.07542
1.11606
0.979872
1
1.38358
0.999992
1.07758
1
1.22398
1.24998
0.792671
1
1.05664
1
1
1
1
1
1
1.23083
1.21868
1
1.22542
1.25968
1
1.10009
1.29086
1
1.04083
1.11584
1.35659
1
1
0.90562
0.866154
0.931949
1.13596
1.21604
1.38616
1.03785
1.10124
1.16536
1
1
1
1
1.14995
1.04961
1.36865
1.13216
1.15313
0.928754
1.05111
0.904996
0.937398
1.01924
1.32401
0.80881
1.35864
1.09212
1.36706
1.09747
1
1.1415
0.804905
1.15088
1
1
1.13524
0.793404
0.948061
1.02224
0.931102
1.33921
1
0.907628
1
1.05745
1.10284
0.951622
1.15702
0.898027
0.944506
1.08637
1.32682
1.11899
1.3421
1.0638
1
1.15194
1.12275
0.90289
1.2874
1.27047
1.05436
1
1
1.1111
1.31012
1.16703
1.24527
1.32499
1.14785
0.854859
1.16919
1
1.16458
1.15509
1
1.31321
0.991809
0.854452
1.2895
1.1025
1.15497
1.06999
1.26558
1.06739
0.972307
1
0.98073
0.97984
1.26853
1.06429
1
0.984785
1.0824
1.12924
1.15546
1.24876
1.13483
0.96069
1
1.12865
1
0.962755
0.801945
1
1
1.32012
1.11507
1.20493
0.808626
1
1
1.20588
1.15699
1.15376
0.800693
1
1.17554
1
0.952887
1.29513
1.13733
1.11282
0.79539
1.01056
1
1.22052
1.08491
1.12162
1.00023
0.951758
1.139
1.07691
1.00562
0.999988
1.23078
1.0301
1.28902
1
1.22312
1.20805
0.999994
1.1626
0.929178
1.02439
0.769361
1.233
1.19202
1.04828
1.13289
1.17665
1.03093
1.18674
1.04283
0.774513
1.43504
0.771929
1
1
1.00618
1.01804
0.842239
1.19045
1.06684
1.17843
1.13009
1.23364
1.00245
1.33242
1.18404
1.14634
0.930215
1.23272
1.10336
1.00098
1.1232
1.07101
1.08702
1.15587
1.30622
1.09826
1.11568
1.1335
1.15918
1.14738
1.14955
1.46056
1.18321
1.17231
1.07388
1.39079
1.11801
1.18245
1
1
1.1536
1
1
1.01206
0.891623
1.11914
1.12548
1.18895
1.3045
1.2882
1
1.05379
1.30716
0.94012
1.18681
0.94067
1.12755
0.821718
0.868799
1.12022
0.891944
1.43562
0.867002
0.956494
1.15605
0.935372
1.08923
1.4359
1.13508
1.3163
1.11882
1.09893
1
1
1.08774
1
1.10851
1
1.12986
1.09972
1.09302
1.1056
1.08476
1.40407
0.938677
1
1.21583
1.13636
1.18809
1.11608
1.40677
1.22603
1.13535
1.06073
0.999999
1.11545
1.07352
1.03704
1.06528
1.14288
0.892179
0.85341
1.38236
1.16192
1.13563
1.14121
1.07373
1.13826
0.975254
1.06485
1.01247
1
1.38691
1.15701
0.970848
0.964639
1.05985
1.03354
1.05088
0.89028
0.933615
1.09408
1.07052
0.950949
1
1.14653
1.11046
0.973306
1.12771
0.983168
1.36311
1
1.04684
1.03391
1
1
1
1
1.36638
1.2255
1.0224
1.23277
0.96076
1
1.04767
0.969543
1.13792
1.11607
1.03851
1.09049
1.08967
1.12477
0.951251
1
1
1.00192
1.17851
1
1
0.967865
1.15043
1.0236
1.3447
1.07182
1.14196
1
1.11935
1.12158
1.11877
1.15948
1.17007
1.0722
1
1.01715
0.935006
1
1.34958
0.998117
1.16313
1.14576
1.16537
1.01932
0.932927
1.12877
1.24958
1.12088
1.18438
1.17397
1
1.11966
1.14095
1.18083
1.0863
1
0.999998
1.1196
0.997615
0.934613
0.812361
1.14123
1
1.32015
1.18868
1.19978
0.939475
0.998879
1.19275
1.1962
1.05284
0.813227
1.32324
1.18747
0.937711
0.977176
0.965197
0.939565
1.2616
0.978221
0.832296
0.96723
1
1.01414
1.11727
1.05155
1.02299
0.950653
1.2075
1.33255
0.930647
1.05445
1.11823
1.05568
0.900902
1.08021
0.950955
1.20468
0.950539
0.930622
1.02993
0.914564
1.12001
1.1194
1.12386
1.11566
1.20203
0.927949
1.10821
0.921894
0.883685
0.959786
1.10964
0.961088
1.26889
1
1.0582
1
0.942008
1.27184
1
1
0.936825
1.22593
1
0.965796
1.10815
1.33276
1.09131
0.999638
0.814841
1
0.918598
0.966446
1.24807
0.955078
1.04814
1.25212
1.04831
1.15277
1.1559
1
0.769565
1
1.23471
1.10958
1.23276
1.02524
0.911388
1.20829
1.23695
1.20942
1
0.908088
0.802414
1.22159
1.44583
1.22634
1.12654
1.01725
1.22552
1.03559
1.1081
1.45106
0.915873
1
0.967986
1.32488
0.93142
0.83022
0.997683
1.20697
0.860809
0.928784
0.841527
0.977507
1.20948
1.13933
1.11007
1
1.03521
1.03639
1.4234
1.22393
1
1.19732
1.14195
1.14369
1.21987
1
1.42851
1.20006
1.16117
0.974592
1.23142
1
1
1.22694
1.18105
1.24031
0.80902
1.23567
1.18354
1
1.04048
1.07245
1.06482
1.1727
0.970596
0.840668
0.825968
1.26209
1.17572
1.21748
1.13703
1
1
1
0.972788
1.15765
1
1.00599
0.797107
1.24409
1.11056
1.15464
1.10924
0.949623
1.15986
1.13057
1.0042
1.17282
1.17316
1.01932
1.14135
1
0.782661
1.14843
0.944253
0.84107
1.1576
1.15155
1.24831
1.01438
1.2648
1.26098
1
0.94426
0.829421
1.14964
1
1
1.03046
0.999989
1.25739
0.860416
1.15198
1.14552
1
1.16918
1.16387
1.02581
1.33426
1.04545
0.80206
1.13395
1.15776
0.963901
1.25254
1
0.967349
0.966791
1.04386
1.33863
1.13639
1
0.933644
0.886093
1.15037
1.26787
1.11274
1.13691
1.27218
1.14955
1
1.05056
1.06084
1.1238
1.53623
1.2241
1.32726
1.12602
1.12009
1.16456
1.21143
1
1
1.14245
1.05491
1.12793
1.14644
0.953197
1.06963
1.1227
1.3066
0.959524
1
0.884288
1
0.882661
1.06876
1.11089
1.11374
0.995485
1
1
1.27598
1.29761
1
1
1.08979
0.993773
1.10787
1.28539
1.08545
1.06714
1.09649
1.09465
1.15507
0.965806
1
1.06991
1.09911
0.962123
0.966413
0.861058
1.09187
1.15159
1
1.14519
1
1
1.33242
0.963905
1.00764
1.26326
1.0818
1.32765
0.965541
1
1
1.08417
1.33292
1.18734
0.812508
1.11327
1
1.26549
1.08329
1.11156
1
1
1
1
1.12617
1
0.957995
1.06702
1.16753
1.10592
1.07104
1.0001
1.12207
1
1
1
1.13675
1.05511
1.05682
1
1.12955
1.13311
0.882854
1
1
0.866743
0.956693
1
0.915174
1.14893
1
1
1
1
1
1.03801
1
0.985274
1.14653
1
1.18644
1.14587
1
1.04298
0.870312
1
0.902813
1.14413
1
1
1.18448
1.20357
1
1.00024
1
0.86755
0.866444
0.981033
1.16912
0.801987
1.18599
1
1
0.981277
1.18505
1.23066
0.867735
1.16545
1
0.995079
1
1.19992
1.31338
0.990163
1
0.868322
1.00019
1
0.883851
0.871885
1.18291
1.05148
1
1.19734
1
0.968463
0.912844
1.18647
0.887456
1.22812
0.814073
1
0.853949
0.932067
1.18806
0.964012
1.43977
1.10686
1.1808
1.00465
1.01422
0.883207
1.24205
1.13898
1.00196
1
1
0.891164
0.869961
1.11182
0.828223
1.20237
1.41275
1.43868
1
1.19898
1.33554
0.927108
1.21758
1.39332
1.15588
1.01656
0.932748
0.989165
1.20796
1.41577
1.13326
1.21348
1.01363
1.10513
1.10434
0.871981
1.04051
1.37155
0.922473
0.878274
1
1.10528
1
1
0.868538
1.23803
1.39768
1.04125
1
1
1.04364
1.11268
1
1.35488
1
1.23459
1.10771
1
0.854044
1
1.23454
1
1.13233
0.858107
1
1.3759
0.773894
1.23013
1
0.879294
1
1.14907
1.02896
1.00116
1.2522
1.02372
0.842941
1.24892
1.07902
0.906693
1.23461
1.32702
1.35892
1.04509
1.2476
1.24577
0.848571
1.07946
1.15355
0.911901
1
1.1933
1
1.32249
0.973475
1.2618
1.26123
0.840742
0.991285
1.02263
1
1.06437
1.14238
0.973781
1.00599
0.946383
1.32941
1.04947
1.0159
1
1.0546
1.2563
0.999997
1
1
1.25805
1.01748
1.11535
1.0544
1.13746
1
1.27418
1.31535
1.2014
1.27594
1.03211
1
1.32709
0.84623
1.27074
1.27589
1.03369
1.19783
1.01893
1
0.939501
1.27348
0.965071
1.30215
1.25645
0.969169
0.970845
0.968247
1.38686
1.27969
0.972076
0.856059
1
1.18837
1.28882
1.12388
1
1.29245
1
1.23307
1.11882
0.936767
1.25285
1.24045
1.0939
0.954134
1.18494
1.21888
1.2159
1
1.09547
0.951775
0.901905
1.09708
1.28778
1
1.25952
1.28297
1.22949
0.952275
0.962809
1
1.27366
1.21486
1.35788
1
1.20201
0.906398
1.1894
1.23618
0.951184
1.24371
1.21295
1.05928
1.21812
1.25571
1.12995
1.29685
1.17923
1
1.11645
1.23119
1.23177
1.20311
1.19133
0.871641
1.29153
1.31259
1.27625
1.11931
1.06821
1.3102
1
1.29349
1.21663
1.22926
1.18722
1
1.30911
0.972071
1
1.36606
1.20464
1.17828
1.24457
1
1.29601
0.974402
1
1.19201
1.32541
1.16342
1
1
1.23977
1.17906
1
1.32159
1
1.15467
1.30766
0.995568
1
1.1677
1
1.14035
0.86656
1.00004
1.07501
1.33145
1.15571
1.13009
1
1
1
1.2578
1.3294
0.972
1.14483
1.12003
1.11855
1.32624
0.860746
1.02035
1.19965
1.00017
1
1.12036
1.11984
1.02062
1
1.25195
1.20299
1
1.1315
1.04631
0.896861
1.04715
1.35445
1.18334
1.10199
1.3253
1.14355
0.969079
1.12241
1.08548
1.08371
0.8862
1.14926
1.25394
1
1.35838
1.34723
0.971303
1.08806
1.26859
0.790318
1.15041
0.966304
0.94211
1
1.1032
1.18246
1.19477
1.25803
1.17908
1
0.78704
1.07491
1.10711
1.20007
1.09175
1
1
1.18429
1.05993
1.18999
1
0.825763
1
1
0.779567
1.21415
1
1.07691
1.24446
1.11988
1
0.948154
1.11365
1.18866
1.04919
1
1.0622
1.04468
0.965797
1.13753
1.23161
1.18323
1.14706
1
1.19967
1.21893
0.79967
1
1
1.03301
0.807688
1.05209
1.24077
1.1448
1.18601
1.19688
1
1.1453
1.21435
1
0.777463
1.03131
1.01384
0.919954
1.06529
1
0.962199
1
1.19614
1.15977
1
1
1.10721
1.09532
1.12196
1.19835
0.809883
1
1
0.930704
0.78781
1.16012
1.08794
1.30505
0.867588
1.19355
1.10959
1.21105
1
1.15719
1
1.2091
1
1
0.786312
1
1.20441
1.01785
1
0.863614
1.17021
1.10687
0.864765
1.3264
1.16117
1
1.1157
1.18129
1
1.20189
1
1.19898
1.19612
1.16752
0.952691
1.15242
1
1.12323
1.13643
1.43432
1.23104
0.824831
1
0.950242
0.823948
1.2215
0.951208
1
1
0.970228
1.13802
1
0.856111
1.14448
1.18059
1.14135
1.21128
0.811071
1.21975
1.0023
1.03412
1.0734
1.00048
1.0012
0.951687
1.17799
1.07061
0.934131
0.95893
1.24896
1
1.20911
1.03077
1
1
0.915319
1
1.22822
1.21272
1.11711
1
1.1905
1.22644
1.09725
0.931686
0.85505
1
1.22131
1.2115
1.32023
0.784808
1.18786
1.09852
1.10903
0.928492
1.23582
0.853828
0.801136
0.806791
0.951244
0.811252
1.21885
1.20363
1
1.12244
1
0.882421
0.981475
1.27723
1.2607
1
1.31063
0.823323
0.967192
0.799495
1.1996
1.12792
0.812393
1
1.12686
0.97777
1.23757
1.15689
1.19283
1.24117
1
1
1
1.10648
1.09949
1.19687
0.87978
1.3077
0.858287
1.23932
1.02319
1.26481
1.23017
1.28008
1.18777
1.1284
0.960405
1
1
0.797716
1
1.20973
1.02493
0.890328
1.08866
1.05223
0.994993
1.10373
1
1.11836
1
1
1.14449
1.2077
1.06038
1.24083
0.93609
1.20463
1.13765
1.34979
0.933197
0.888482
1.0307
1
0.96879
1.20484
1.05108
1.05205
1.11247
1.0451
1.13117
1.05097
1
1.1043
1.10548
0.901171
0.998386
1.12648
0.93101
1.01101
0.965163
1
0.834816
1.12899
1.08298
1.06106
0.970563
1
1
1.05392
1
1
1.10564
1.16687
0.966253
0.930929
0.900169
1.13946
1.08458
1.21562
1
1
0.867933
0.926337
1.05512
1.02351
1.12126
1
1.09078
0.811486
1.04548
0.954311
0.921435
0.884041
1
1.16122
1.10826
1.09387
1.21326
0.995796
1
1
1.32863
1.08297
1.21823
1.08812
1.12276
1.24802
1.02163
0.991968
1
1.07292
1.06142
1.2154
1
1.04417
0.942126
0.854648
1
0.992695
1.12417
0.806209
0.95059
0.866605
1.11867
1.20073
1
1.16367
1.08501
1.25374
1.11584
1.03248
0.820737
0.812462
1.07033
1.2466
1.11416
0.920229
1.10327
1
1.13476
1
0.857599
1
1.2412
1.12562
0.814492
1
1.03704
1.22495
0.94857
1
1.19728
0.941523
1
0.947483
0.918811
1.09795
0.933774
1.13103
1.18629
0.852575
1.22215
1.08195
1.09445
0.853974
0.930938
1
1.12751
0.977964
0.988745
0.96427
0.966943
1
0.861674
1.13626
1.0124
1.02939
1.06313
0.930268
1
1.11914
1.11701
1.15733
1.11562
0.925784
0.939311
0.934596
1.16573
1.11083
1.22177
0.954995
1.15264
1.11842
1.00135
0.893123
1
0.927886
1.15991
1
1.09081
1
0.919274
1.01239
1
1.17389
1.10837
1
1.16651
1
0.986353
1.15413
1.14958
1.14947
1
0.865618
1
1.17162
1.38043
1.06792
1
1.09337
1.21829
1.11217
1.14339
1.00964
0.874894
0.973407
1.00988
1
1.28766
0.938217
0.999999
0.926165
1.15219
0.863984
1.06994
1.26021
0.881385
1.24098
0.929707
1
1.14648
1.2245
1.17038
1.10077
0.997618
1.00017
1.19343
0.999911
0.936074
1
1.23845
1.11687
0.916614
1.0002
1.12259
1.14886
1.22128
1
1.19479
1.3741
1.22853
1.07508
0.953403
1.18987
0.946425
1.09807
1.26835
1
1
0.943761
1.01169
1.17975
1.13529
1.21462
0.945823
0.916829
1.19744
0.862977
1
0.926992
0.998564
1.22742
1
0.944914
0.954606
0.876858
1.09945
1.22284
1
1
0.963712
0.8147
1.18195
0.764
1.15752
1.13726
1.18632
0.876604
1.29646
1.15433
1.2347
1.26875
0.79933
1.03022
1
0.924993
1.35059
1.21994
1
0.922821
1.00662
0.84307
1.1924
1.14296
1.16152
1.07616
1.15431
0.876944
1.08958
1.25264
0.976906
1.27114
1.25663
1.15274
1.27999
1.24394
1.29376
1
0.931243
1.23148
1.20999
1
0.934474
1.09009
1.08702
1.2496
1.07501
1.32375
0.888828
1.09945
1.07849
1
1.10175
1.30547
1
1.21949
1.079
0.934719
0.968438
1.08729
1
0.969366
0.916947
1.11433
1.10188
1.02079
1.13677
1.18418
1.08627
1.08788
1
1.29024
0.913004
1.18811
1.10631
1.02735
1.11816
1.19207
1.34163
1
1.10369
1.20144
1.26588
1
1.25455
1.2764
0.965432
1.24021
1
1.22741
1.29084
1.09018
1
1.18779
1.02594
1.28082
1.30005
1.20573
1.16351
0.886972
1.13095
1.19993
1
1
1.24699
1.21863
1.31742
0.92389
1.14707
0.909388
0.87402
1.15906
1.01707
1.02701
0.987228
0.963207
1.11684
1.14467
1.25317
0.908886
0.893253
0.963773
1.17259
1.02257
1.05807
1.27651
1.1822
1
1.01231
1.08037
1.20009
1.28391
1.20785
0.924599
1.20118
1.02406
1.26134
1.19011
1.10866
1.30127
1
1.17252
1.06364
0.923999
0.873182
1.02566
1
0.870449
1.05572
1.15537
1.06583
0.861814
1.07259
1.25273
1.13295
1.19785
0.909176
1.33555
1.07063
0.984224
1.14669
0.822245
1
1.29635
1.21626
1.14725
1.34757
1.06133
1
1
0.909169
1.08757
1.13525
1
0.91884
0.880907
1.14886
1.14662
1.02508
0.932333
1.14036
1.2058
1.14893
1.15981
1
0.925367
1.06327
1.13945
1.30264
1
1
1.08989
1.10568
0.997997
1.25511
1.15264
1.07195
1.07329
1.25454
1
0.999997
0.999016
0.985452
0.905885
1.1694
0.984812
0.901753
1.07765
1.21361
1
1.14716
1.17661
1
0.795751
0.986368
1.1636
1.05443
1
0.873904
0.803677
0.985951
1.05269
0.855803
1.13039
1.13642
1.0361
1.09663
1.07595
0.880689
0.982488
1.08837
1
1.11279
1.09015
1.13687
1.22362
0.877209
0.896541
0.984975
1.01152
1
1.08565
0.999999
1.1666
1.21449
0.86942
0.883787
0.880741
0.895043
1
0.987968
1
1.12505
0.871742
1.0153
0.875949
1.15503
0.877725
1.24223
1.07314
1.37588
1
1.05531
0.876366
0.90774
0.876996
1.25355
1.24752
1
1.13517
0.87701
1.29435
1
1.01411
1
1.23069
0.987116
1.07187
1.0286
1
0.870015
0.964765
0.877871
1.1328
1
1
1.24613
1.05399
1.11746
1.1109
1.12019
1.23065
1.20809
1.25017
1.11245
1.09762
0.868546
0.906811
1.20709
1.22786
1.01702
1
0.911559
0.920155
1.03032
1.24319
0.876106
0.999992
1.04128
1
1.03032
1.02953
1.04546
0.951752
0.967241
0.885149
1.20382
1.00015
1
0.801372
1
0.87822
1.05167
1.21433
1
1.04955
1.05673
1
1
0.872158
1.12133
0.876904
1.1973
1.12256
0.8354
0.931348
1.16462
0.968321
1.03971
1.26216
1.33677
0.999998
1.22763
1.17615
1.07611
1
1.38354
0.822669
1.2015
1.2361
1
1.048
1.21106
1.10625
1.28003
1.24978
1
0.992683
1
1
1.12433
1.06046
0.925035
1.1842
0.997563
1.05337
0.944474
1
0.988377
1.15518
1
1
1.244
1.19183
0.886033
1.2862
1
1.26906
0.98148
1.1948
1
1.24454
1.02168
1.21449
1.21192
0.990125
1
1.05842
0.828543
1.1551
1.0518
1
1.14362
1.24157
0.921508
1.22255
1.09704
1.1899
0.977749
0.951202
1.14801
0.953433
1.39003
1.07608
1
1
1.28664
1.35116
1.23145
0.999999
1.05051
1.03763
1.20934
1.03738
1
1.21214
0.878385
1
1.0425
0.949935
1.11351
1
1.15606
1.24636
1
0.789786
1
1.09898
0.935865
1
1.07396
0.968397
1.26683
1.01957
1
1.14781
0.794824
1.07937
0.967504
0.898978
1.04044
1
1.07229
1.15882
1.15012
1.26518
1
0.806081
1.00015
1.08121
1.16553
1.39004
1
0.872033
0.999996
1.14259
1
0.996955
1.10962
1.13951
0.793057
1
1.18118
0.877108
0.970492
1.25569
1.17584
1.24219
1.21338
1.07824
0.933014
1
1
1.1439
1.15378
1.21855
1.19696
1
1.32784
1.15755
1.02974
0.92403
1.0475
1.25439
1
1.1018
1
0.969719
1.25203
1.23098
1.23379
1.29757
0.893067
1.18554
1.3716
1.16259
1.33205
1.23289
1.18597
1.17435
0.98712
0.971892
1.02056
0.873464
1.18754
0.968226
0.996273
1.1002
1.13554
1
1.12971
1.23042
1.1726
1.19459
1.27929
1.11079
1.03147
0.936552
1.1207
1.22764
0.952542
0.988349
0.886306
1.30792
1.23349
1.25581
0.963183
1
0.831449
1.25745
0.843184
1.12907
1.07356
1.13875
1.18261
1.21184
1.12286
0.854763
1.09961
1
1.10781
1.31196
1.11213
1.20299
1
1
1.16717
0.842649
1.22157
1.24499
1.26378
0.833974
1.12581
1.08548
1.23376
1.03878
1.17611
1.17489
1.11654
1.19206
0.849559
1.2184
1
0.951996
1.01578
0.923998
1.1642
1.24367
1.21395
0.99041
1.12379
1
0.976031
1.212
1.0639
1.12164
1.13226
1.17647
1.03165
0.845092
0.860143
1.22567
1.08866
1.02373
1.13363
1.08263
1.20081
1.37675
1.12499
1
1.04263
1.17669
0.883591
1.21068
1.11843
1.15304
0.776748
1.02293
1.11407
1.00758
1.03535
1.07743
1.16512
1.21252
1.04881
1.21475
0.779704
1.19819
1
1.39139
1
1.22474
1
1
1.00001
1.00006
1.28455
1.13091
1.21985
1.1221
1.21948
1.13803
1.21037
1.08347
1
1
1.11469
1.10212
1.2097
1
0.95934
1.19362
1.10181
1.15032
1
0.773976
0.999397
0.861824
0.772946
1.2162
0.93871
1
1.14563
1.02296
1.19728
0.834803
1
1.21764
1.2299
0.881323
1.1342
1.14546
0.800622
1.20391
0.848563
1.00167
1.21723
0.843224
0.836936
1.02227
0.841615
1.20831
1
1.15701
0.866331
1.07867
1.23566
1
1.16026
1.16178
1.06655
1.19275
0.832762
0.865792
1
1.28434
0.835246
0.830108
1.11324
1.18821
1.17947
1.3679
1
1.20447
1
1.18157
1
1.15478
1.05967
0.804758
0.914333
1
1
1
1.18577
1.37087
1.17182
1
1
1.1704
1.06707
1
1.34834
0.861887
1.23312
1.12726
0.935581
0.937591
1.13723
1.05588
1.17245
1.1903
1
1.35079
0.925537
1.13709
1
0.927917
1
0.844127
1.19129
0.854396
0.984793
1.2001
1.03197
1.26772
1
1.00171
0.934431
1.23309
1.04224
1
0.956944
1.35128
1
1.25681
0.978413
0.895411
1.19382
1.28899
0.92729
0.86264
1.27179
0.942123
1
1.1673
1
1.00863
1.14034
1
1
1
1.09572
0.946981
0.886034
1.25878
1.24818
1.18179
0.968808
1.11624
0.880618
1.20956
1
0.963679
0.877199
1.20441
0.878577
1.11048
0.983711
1.36121
1.18136
0.918272
1.12928
0.888694
1.02594
1.13145
1
1.08013
1.0968
0.880032
0.923548
1.20104
0.91331
1
1
1.20311
1.10169
0.931984
0.833008
1.11586
1.19433
1
1.11019
1.11409
0.960575
0.986511
1.05017
1.20591
1
0.940387
1.1791
1.01815
0.842833
0.918202
1.20533
1.17969
1.30853
1.00014
1
1.18875
1
1
1.13749
1
1.18568
1.33396
1.00874
1
0.962715
1
1.02867
0.893887
1
1.00646
0.955902
0.980218
1.35654
0.977817
1.3393
1.0565
1.21296
1.0315
1.19661
1.34899
1
1.23485
1.01318
1.34311
1.12127
1
1.2382
1.24631
0.965093
1.05075
1.12479
1.01242
0.803766
0.883754
0.980596
1.03326
1.1643
1
1.11724
1
0.979191
0.883705
1
1
1
0.957077
1
0.961661
0.852295
1.02094
1.13134
1.26548
0.970143
1.07761
0.999367
1.34272
1.19182
0.994714
1
1.22489
1.32221
1
1
1
1.24889
1.34667
1.15187
1
1
0.967609
1.00007
0.876036
1.16208
1.23191
1.00211
1.07418
1.16659
1.25773
1.20678
1.23204
1
1
1.13232
1.22469
0.83243
1
1.30859
1.2877
1.2293
0.836419
1.23478
1.05657
1.1124
1
1.33058
1.00032
1.12896
1.01748
0.960225
1.21798
1.13889
1
1
1.22282
0.799346
1.13458
1
1.13463
1.08304
1.31006
1
1.34689
1.1114
1
1.00002
1.08367
1.20468
0.982508
1.25088
1
1.28025
1.20656
1.21256
1.01708
1.29609
0.859534
1.11529
1
1.2564
0.867308
1.30166
0.896865
0.987931
0.997345
0.85979
0.988729
1.01082
1.09551
1.10424
1.31758
1.08589
0.900581