/*--------------------------------*- C++ -*----------------------------------*\
  =========                 |
  \\      /  F ield         | OpenFOAM: The Open Source CFD Toolbox
   \\    /   O peration     | Website:  https://openfoam.org
    \\  /    A nd           | Version:  12
     \\/     M anipulation  |
\*---------------------------------------------------------------------------*/
FoamFile
{
    format      ascii;
    class       volScalarField;
    location    "4.49";
    object      rho;
}
// * * * * * * * * * * * * * * * * * * * * * * * * * * * * * * * * * * * * * //

dimensions      [1 -3 0 0 0 0 0];

internalField   nonuniform List<scalar> 
22702
(
1.40001
1.40001
1.25992
1.40001
1.44706
1.40001
1.83755
1.40001
1.40001
1.06493
1.8378
1.83554
1.40001
1.84187
1.28844
1.40001
1.40001
1.40001
1.83836
1.40001
1.84173
1.40001
1.84442
1.03892
1.84314
0.954855
1.40001
1.83959
1.02774
1.03358
1.40001
1.83548
1.40001
1.40001
1.40001
1.809
1.84636
1.84458
1.40001
1.40001
1.0456
1.40001
1.62042
1.40001
1.83876
1.40001
1.40001
1.40001
1.40001
1.03264
1.40001
1.0395
1.40001
1.83754
1.40001
1.83816
1.40001
1.40001
1.40001
1.40001
0.973185
1.40001
1.40001
1.01687
1.40001
1.03658
1.40001
1.40001
1.40001
1.04431
1.40001
1.84141
1.66961
1.40001
1.83975
1.85967
1.03786
1.83498
1.02459
1.40001
1.83909
1.03221
1.84578
1.8455
1.40001
1.40001
1.40001
1.40001
1.32955
1.05826
1.84377
1.40001
1.40001
1.07421
1.40001
1.84238
1.07699
1.40001
1.40001
1.40001
1.40001
1.61999
1.83934
0.996904
1.40001
1.40001
1.5029
1.40001
1.03424
1.40001
1.83436
1.83894
1.40001
1.40001
0.988541
0.987463
1.06125
1.40001
1.40001
1.40001
1.40001
1.40001
1.31401
1.40001
1.77689
1.43876
1.83424
1.40001
1.83545
1.83827
1.84245
1.83802
1.40001
0.999007
1.40001
1.02849
1.40001
1.40001
1.40001
1.40001
1.83816
1.40001
1.40001
1.40001
1.40001
1.83943
1.40001
1.42388
1.40001
1.40001
1.40001
1.40001
1.0256
1.40001
1.41032
1.40001
1.02408
1.40001
1.40001
1.40001
1.84233
1.40001
1.84218
0.989517
0.974678
1.83877
1.84103
1.40001
1.47485
1.65387
1.40001
1.84385
1.02499
1.8096
1.40001
1.40001
1.40001
1.40001
1.84192
1.76251
1.40001
1.83993
1.01586
1.84275
1.40001
1.01778
1.40001
1.03418
0.961891
1.39978
1.40001
1.40001
1.84063
1.40001
1.40001
1.84104
1.40001
1.84489
1.84077
1.0335
1.40001
1.40001
1.02213
1.84123
1.40001
1.40001
1.40001
1.84103
1.40001
1.0241
1.40001
1.40001
1.84164
1.84213
1.83947
1.40001
1.40004
1.40001
1.40001
1.40001
1.84268
1.40001
1.02433
1.85164
1.84111
1.84266
1.40001
1.40001
1.40001
1.00643
1.84399
1.61503
1.40001
1.84339
1.02644
1.02236
1.84342
1.84328
1.40001
1.83693
1.06556
1.79025
1.40001
1.40001
1.40001
1.40001
1.84162
1.40001
1.65288
1.44275
1.40001
1.40001
1.84259
1.05832
1.14273
1.40001
1.84032
1.03057
1.83717
1.40001
1.40001
1.40001
1.40001
1.40001
1.40001
1.40001
1.03461
1.17404
1.02506
1.84213
1.40001
1.40001
1.40001
1.40001
1.79298
1.40001
1.03131
1.40001
1.00791
1.02297
1.8408
1.03643
1.8416
1.40001
1.40001
1.40001
1.39756
1.01808
1.07724
1.4
1.40001
1.00021
1.40001
1.83854
1.02937
1.40001
1.40001
1.83882
1.05043
1.40001
1.83358
0.969258
1.84314
1.40001
1.01169
1.39755
1.40001
1.40001
1.40001
1.03361
1.40001
1.40001
1.40001
1.40002
1.41649
1.6701
1.40001
1.02128
1.40001
1.40001
1.40001
1.40001
1.40001
1.40001
1.40001
1.83876
1.40001
1.84075
1.40001
1.40001
1.40001
1.02624
1.40001
1.84031
1.03497
1.40001
1.73942
1.40001
1.40001
1.83683
1.40001
1.40001
1.40001
1.83509
1.40001
1.40001
1.84429
1.83625
1.40001
1.49422
1.40001
1.40001
1.03443
1.40001
1.40001
1.40001
1.06001
1.40001
1.40001
1.40001
1.40001
1.00147
1.40001
1.40001
1.40001
1.40001
1.40001
1.09744
1.40007
1.84235
1.40001
1.40001
1.84103
1.83857
1.40001
1.40001
1.03522
1.1973
1.83795
1.40001
1.40001
1.40001
1.84309
1.03745
1.40001
1.84192
1.40001
1.40001
1.11662
1.10368
1.40001
1.01249
1.03078
1.40001
1.40001
1.40001
1.40001
1.40001
1.40001
1.40001
1.83397
1.50518
1.82763
1.09427
1.29491
1.83752
1.40001
1.83828
1.83749
1.03914
1.14561
1.40001
1.03217
1.40001
1.84958
1.40001
1.40001
1.40001
1.40001
1.8411
1.40001
1.40001
1.40001
1.40001
1.40001
1.40001
1.40001
1.56127
1.84374
1.40001
1.84255
1.40001
1.40001
1.02681
1.40001
1.40001
1.40001
1.40001
1.84118
1.73759
1.40001
1.40001
1.01493
1.84151
1.84206
1.40001
1.84162
1.84094
1.84266
1.40001
1.22378
1.40001
1.83945
1.37944
1.84265
1.40001
1.03237
1.39881
1.8391
1.40001
1.40001
1.40001
1.40001
1.03834
1.84279
1.80172
1.40001
1.83983
1.84223
1.83892
1.40001
1.61375
1.84434
1.40001
1.40001
1.70767
1.45998
1.84146
1.32397
1.84165
1.40001
1.84163
1.84082
1.84158
1.84176
1.40001
1.842
1.30785
1.28099
1.40001
1.4
1.40001
1.40001
1.85322
1.40001
1.40001
1.40001
1.40001
1.40001
1.83587
1.40001
1.40001
1.39629
1.84207
1.80145
1.40001
1.75866
1.40005
1.40001
1.40001
1.84321
1.40001
1.39652
1.40437
1.40001
1.84066
1.40001
1.84454
1.40001
1.40001
1.72805
1.40001
1.84166
1.40003
1.40001
1.84144
1.40001
1.84179
1.40001
1.40001
1.40001
1.8413
1.40001
1.83987
1.40001
1.84127
1.83872
1.84154
1.83905
1.40001
1.83527
1.83403
1.40001
1.01864
1.81506
1.71644
1.40001
1.84103
1.40001
1.04426
0.965097
1.40001
1.40001
1.40001
1.40001
1.40001
1.08597
1.40001
1.8426
1.51416
1.84284
1.40001
1.40001
1.40001
1.40001
1.40001
1.84092
1.40001
1.85216
1.66378
1.15353
1.40001
1.40001
1.52478
1.5071
1.40001
1.40001
1.56244
1.40001
1.02195
1.84106
1.84082
1.40001
1.40001
1.40001
1.83537
1.40001
1.40003
1.84553
1.84093
1.34321
1.40001
1.40001
1.03427
1.80107
1.40001
1.40001
1.40001
1.40001
1.40001
1.8421
1.83479
1.40001
1.83851
1.83793
1.84143
1.40001
1.40001
1.40001
1.40001
0.987198
1.83686
1.40001
1.40001
1.80184
1.84062
1.40001
1.81614
1.8423
1.40001
1.40001
1.40001
1.40001
1.40001
1.84063
1.40001
1.40001
1.40001
1.40001
1.84348
1.40001
1.84261
1.03691
1.40001
1.0352
1.40001
1.40001
1.40001
1.39693
1.02677
1.39902
1.40001
1.40001
1.40001
1.45691
1.40001
1.40001
1.26421
1.40001
1.40001
1.40001
1.40001
1.40001
1.40001
1.40001
1.4
1.33052
1.4
1.40001
1.3976
1.40001
1.03404
1.40001
1.40001
1.40001
1.40001
1.73026
1.40001
1.40001
1.40001
1.40001
1.02178
1.40001
1.40001
1.81613
1.8381
1.4
1.40001
1.40001
1.28543
1.40001
1.40001
1.40001
1.40001
1.40001
1.40001
1.34939
1.40804
1.84284
1.40001
1.40001
1.40001
1.84533
1.28893
1.40001
1.40001
1.40001
1.84451
1.83519
1.40001
1.40001
1.40001
1.40001
1.40001
1.40001
1.40001
1.40001
1.40001
1.02791
1.40001
1.40001
1.8379
1.02626
1.40001
1.83745
1.40001
1.01747
1.40001
1.40001
1.02747
1.40001
1.40001
1.40001
1.40001
1.40001
1.40001
1.40001
1.83325
1.84097
1.40001
1.40001
1.40001
1.40001
1.80393
1.40001
1.53669
1.01545
1.40001
1.40001
1.40001
1.40001
1.40001
1.40001
1.40001
1.4335
1.40001
1.40001
1.63468
1.40001
1.40001
1.40001
1.76227
1.40001
1.40001
1.40001
1.40001
1.03567
1.40001
1.40001
1.01462
1.03461
1.40001
1.40001
1.83995
1.40001
1.36174
1.40001
1.40001
1.40001
1.7102
1.05082
1.40001
1.03579
1.40001
1.17616
1.40001
1.40001
1.40001
1.84088
1.40001
1.40001
1.83977
1.40001
1.40001
1.40001
1.84101
1.40001
1.40001
1.84257
1.40001
1.40001
1.04011
1.40001
1.53732
1.40001
1.40001
1.83741
1.838
1.69446
1.79452
1.40001
1.0362
1.40001
1.40001
1.82122
1.40001
1.04376
1.40001
1.40001
1.40001
1.84591
1.40001
1.40001
1.40001
1.40001
1.66334
1.40001
1.81938
1.83749
1.07281
1.40001
1.40001
0.974267
0.952292
1.40001
1.40001
1.40001
1.71559
1.73599
1.40001
1.40001
1.40001
1.40001
1.40001
1.40001
1.40001
1.59094
1.84076
1.40716
1.40001
1.83663
0.990707
1.40001
1.40001
1.40001
1.63644
1.40001
1.48528
1.40001
1.8023
1.84009
1.40001
1.02893
1.40001
1.84036
1.40001
1.40001
1.84095
1.81555
1.40001
1.8401
1.40001
1.03134
1.40001
1.40001
1.40001
1.84823
1.83311
1.7877
1.40001
1.84367
1.84349
1.40001
1.84583
1.40001
1.84022
1.40001
1.03085
1.36945
1.02328
1.40001
1.40001
1.40001
1.40001
1.40001
1.84139
1.40001
1.84254
1.40001
1.40001
1.40001
1.82027
1.40001
1.03471
1.84301
1.40001
1.01248
1.07373
1.04892
1.40001
1.617
1.44005
1.84292
1.84291
1.40001
1.4
1.40001
1.40001
1.84328
1.40001
1.40001
1.84193
1.84225
1.40001
1.55341
1.39949
1.40001
1.39683
1.83899
1.24135
1.40001
1.20587
1.0226
1.02451
1.32411
1.84356
1.8359
1.48817
1.84172
1.84001
1.40001
1.40001
1.83354
1.83981
1.84114
1.83746
1.40001
1.84195
1.0344
1.84019
1.84127
1.83979
1.84335
1.26547
1.28857
1.32666
1.84025
1.35702
1.84212
1.40001
1.40001
1.84342
1.84151
1.40001
1.02941
1.83957
1.84039
1.40001
1.84738
1.84699
1.40001
1.84291
1.01676
1.84705
1.8353
1.83769
1.84061
1.40001
1.40001
1.40001
1.83994
1.68951
1.05226
1.83771
1.01577
1.83994
1.40001
1.40001
1.40001
1.40001
1.83949
1.83855
1.40001
1.40001
1.84182
1.02208
1.83997
1.02596
1.40001
1.83887
1.40001
1.06486
1.84219
1.14113
1.40001
1.84437
1.84451
1.84196
1.40001
1.40001
1.59853
1.84365
1.01852
1.83882
1.40001
1.84034
1.26163
1.84001
1.03312
1.40001
1.8418
1.07304
1.84351
1.01901
1.40001
1.84468
1.40001
1.84397
1.40001
1.65603
1.82545
1.74515
1.01632
1.40001
1.84098
1.40001
1.84092
1.40001
1.83986
1.40001
1.40001
1.84152
1.37994
1.84493
1.07487
1.79749
1.40001
1.71382
1.40001
1.83998
1.83862
1.84048
1.40001
1.79762
1.84236
1.80922
1.66913
1.84212
1.40001
1.69186
1.40001
1.83959
1.40001
1.45572
1.40001
1.80832
1.40001
1.84067
1.82074
1.82078
1.40001
1.83655
0.949314
1.40001
1.03733
1.40001
1.40001
1.40001
1.83478
1.40001
1.84395
1.40001
1.40001
1.40001
1.84553
1.82504
1.7657
1.83984
1.84355
1.0365
1.84947
1.84203
1.40001
1.78839
1.83774
1.82415
1.40001
1.84299
1.83676
1.40001
1.84775
1.84263
1.84238
1.84278
1.40001
1.40001
1.40001
1.84093
1.00539
1.40001
1.84148
1.40001
1.40001
0.974967
1.40001
1.40001
1.84149
1.84106
1.40001
1.84475
1.84763
1.83955
1.36391
1.83953
1.40001
1.84234
1.8422
1.7628
1.40001
1.40001
1.40001
1.83796
1.84192
1.84152
1.34205
1.40001
1.84909
1.84168
1.84142
1.40001
1.84192
1.83968
1.8423
1.84853
1.40001
1.84163
1.84621
1.78187
1.84285
1.84679
1.40001
1.84187
1.83656
1.84159
1.83917
1.83987
0.980014
1.84179
1.84287
1.40001
1.84185
1.84168
1.84168
1.84113
1.40001
1.84201
1.84185
1.40001
1.84195
1.77116
1.40001
1.40001
1.40001
1.8456
1.8393
1.40001
1.40001
1.63603
1.40001
1.84201
1.40001
1.40001
1.84283
1.84334
1.8418
1.83935
1.40001
1.40001
1.40001
1.71262
1.40001
1.84122
1.40001
1.40001
1.83424
1.83578
1.40001
1.8429
1.02743
1.84203
1.84667
1.14613
1.40001
1.02519
1.78313
1.84356
1.83986
1.83972
1.0441
1.84263
1.84579
1.04008
1.01903
1.40001
1.84069
1.8444
1.40001
1.40001
1.84145
1.40001
1.842
1.40001
1.78568
1.40001
1.60014
1.84358
1.84395
1.71185
1.81152
1.83959
1.8447
1.82124
1.40001
0.983286
1.83918
1.84144
1.84947
1.40002
1.40001
1.40001
1.84551
1.40001
1.84007
1.84061
1.15726
1.40001
1.84115
1.39995
1.40001
1.40004
1.40005
1.84351
1.83912
1.39852
1.40001
1.40001
1.84099
1.84466
1.84159
1.84843
1.84115
1.04327
1.78618
1.40001
1.8388
1.84072
1.84009
1.84445
1.40001
1.84563
1.82988
1.84509
1.40001
1.84299
1.8398
1.24728
1.83914
1.84245
1.40001
1.84212
1.22543
1.841
1.24872
1.84305
1.40001
1.84158
1.83904
1.83901
1.84224
1.84163
1.8367
1.8454
1.83873
1.40001
1.32617
1.84111
1.84199
1.22766
1.83798
1.37777
1.68063
1.84083
1.83911
1.8403
1.40001
1.8447
1.69625
1.83885
1.31613
1.84514
1.84601
1.40001
1.25677
1.40001
1.84235
1.40001
1.70509
1.40001
1.81523
1.26653
1.40001
1.84407
1.84712
1.40001
1.84011
1.84328
1.84366
1.8497
1.84586
1.40001
1.83951
1.40001
1.40001
1.40001
1.2975
1.84209
1.84007
1.84057
1.84246
1.84134
1.84239
1.84068
1.8423
1.30099
1.43123
1.40001
1.40001
1.83991
1.84383
1.8416
1.83853
1.40003
1.63228
1.40001
1.8478
1.8024
1.40001
1.40001
1.13004
1.84228
1.40001
1.40001
1.02125
1.83689
1.40001
1.84284
1.8412
1.83895
1.82542
1.84136
1.40001
1.02308
1.5068
1.8415
1.84159
1.40001
1.84178
1.84129
1.62745
1.40972
1.49969
1.40001
1.84476
1.84103
1.40001
1.40001
1.02481
1.40001
1.40001
1.83897
1.84282
1.84285
1.84161
1.84039
1.8379
1.842
1.84502
1.84195
1.40001
1.39581
1.84204
1.8407
1.39697
1.84129
1.84186
1.02512
1.07795
1.84484
1.847
1.40001
1.40001
1.40155
1.84119
1.84458
1.83745
1.40001
1.84188
1.40001
1.26643
1.85028
1.84784
1.40001
1.60492
1.84142
1.40001
1.8371
1.40001
1.84152
1.70343
1.84558
1.40001
1.84278
1.85203
1.02019
1.84156
1.40001
1.84169
1.84183
1.40001
1.02959
1.84454
1.77371
1.39756
1.82606
1.84219
1.40001
1.40283
1.8369
1.39757
1.84163
1.40001
1.40001
1.84027
1.40001
1.8402
1.84156
1.39661
1.74559
1.40001
1.84244
1.40001
1.40001
1.40001
1.40001
1.84525
1.40001
1.40001
1.84109
1.40001
1.8419
1.40001
1.68499
1.84137
1.84172
1.40001
1.40001
1.4038
1.40001
1.84262
1.84138
1.84121
1.84188
1.84073
1.84158
1.84139
1.40001
1.84126
1.84418
1.40001
1.84132
1.84128
1.40001
1.84095
1.32531
1.46
1.84133
1.84162
1.84581
1.40001
1.84167
1.40001
1.83958
1.84172
1.40001
1.84391
1.40001
1.40001
1.40001
1.40001
1.84187
1.02411
1.39793
1.40001
1.84185
1.84511
1.40001
1.84494
1.40001
1.4058
1.03275
1.84151
1.39958
1.40001
1.84249
1.39843
1.84164
1.40001
1.39979
1.40001
1.84184
1.84642
1.84194
1.84112
1.03168
1.84364
1.84358
1.84225
1.50596
1.40001
1.40001
1.58822
1.83848
1.0229
1.04437
1.40001
1.8396
1.84361
1.84132
1.40001
1.40001
1.83926
1.8414
1.39988
1.40001
1.72502
1.02853
1.40001
1.4779
1.84069
1.84102
1.39824
1.84594
1.84993
1.40001
1.39901
1.40001
1.84148
1.83865
1.57962
1.40001
1.81342
1.40001
1.40151
1.84352
1.0303
1.84125
1.84045
1.39696
1.39992
1.78593
1.40001
1.3997
1.40001
1.84407
1.40001
1.40002
1.02924
1.8413
1.40001
1.40001
1.40001
1.40001
1.83512
1.64859
1.40001
1.40001
1.04169
1.84142
1.64861
1.40001
1.40001
1.40001
1.82069
1.82791
1.84354
1.40001
1.40001
1.84785
1.40001
1.85053
1.84096
1.40001
1.40001
1.84334
1.84965
1.82043
1.40001
1.40001
1.84342
1.84134
1.40001
1.40001
1.40001
1.84337
1.40001
1.40001
1.40001
1.84159
1.84534
1.84308
1.40001
1.84137
1.40004
1.10489
1.84097
1.84021
1.40001
1.83967
1.82549
1.83314
1.40001
1.40001
1.84773
1.40001
1.64032
1.83915
1.40001
1.02377
1.40001
1.84373
1.40001
1.40001
1.8424
1.40001
1.40001
1.40001
1.54309
1.8398
1.08056
1.40002
1.84296
1.40001
1.40001
1.84033
1.40001
1.84815
1.40001
1.40001
1.84172
1.8414
1.40001
1.40006
1.40001
1.40001
1.40001
1.40001
1.40001
1.40001
1.84575
1.84331
1.40001
1.84378
1.0207
1.85118
1.40001
1.84276
1.85007
1.84251
1.83717
1.83784
1.40001
1.40001
1.84196
1.40001
1.67097
1.84506
1.84022
1.40001
1.84084
1.84799
1.40001
1.78914
1.40001
1.8415
1.68868
1.84206
1.39737
1.8334
1.80213
1.83902
1.841
1.43523
1.83966
1.84169
1.40001
1.84067
1.40001
1.8414
1.40001
1.40001
1.40001
1.40001
1.39642
1.84748
1.84192
1.75848
1.40001
1.84572
1.40001
1.40001
1.40001
1.00218
1.40001
1.83298
1.40001
1.80245
1.83377
1.40001
1.40001
1.40001
1.80145
1.83429
1.40001
1.40001
1.84148
1.03838
1.47577
1.40001
1.84838
1.84164
1.80318
1.83041
1.84201
1.40001
1.83933
1.40001
1.40001
1.40001
1.40001
1.84239
1.84503
1.40001
1.84496
1.45571
1.8417
1.8122
1.40001
1.40001
1.81322
1.40001
1.40001
1.01627
1.72056
1.40001
1.40001
1.84662
1.40001
1.84255
1.80499
1.40001
1.80346
1.03618
1.84274
1.84129
1.84191
1.40001
1.02116
1.40001
1.40001
1.40001
1.84202
1.78349
1.40001
1.84165
1.84173
1.40001
1.84392
1.40001
1.40001
1.40001
1.40001
1.84159
1.39936
1.40001
1.84359
1.40001
1.40001
1.84051
1.84109
1.40001
1.84288
1.48115
1.40003
1.40001
1.84188
1.40001
1.84276
1.40001
1.41537
1.83954
1.40001
1.84155
1.40001
1.40001
1.52326
1.84173
1.40001
1.40001
1.40001
1.40001
1.40001
1.39593
1.03634
1.0305
1.41967
1.40001
1.41781
1.40001
1.41475
1.40001
1.8395
1.40001
1.67216
1.40001
1.84038
1.40001
1.40001
1.40001
1.84082
1.40001
1.75437
1.8427
1.40001
1.63271
1.84207
1.40001
1.40001
1.83547
1.84116
1.40001
1.40001
1.4425
1.01842
1.40001
1.84592
1.40001
1.40001
1.40001
1.40001
1.47725
1.83974
1.40001
1.40001
1.40001
1.01819
1.40001
1.84029
1.84075
1.84634
1.40001
1.40001
1.40001
1.40001
1.61688
1.84446
1.40001
1.40001
1.40001
1.84285
1.84153
1.43924
1.40001
1.40001
1.40001
1.84301
1.84141
1.40001
1.02286
1.84219
1.84305
1.84135
1.8455
1.84815
1.40001
1.40001
1.83692
1.84823
1.84016
1.01611
1.44031
1.84086
1.40001
1.40001
1.40001
1.40001
1.40001
1.84116
1.04636
1.40001
1.40001
1.84452
1.60339
1.40001
1.83896
1.40001
1.40001
1.40001
1.03073
1.40001
1.40001
1.51702
1.84062
1.8414
1.40001
1.84411
1.84444
1.40001
1.46898
1.40001
1.8385
1.40001
1.8398
1.04207
1.40001
1.40001
1.40001
1.40001
1.8429
1.40007
1.40001
1.40001
1.40001
1.81686
1.40001
1.40001
1.40001
1.40001
1.84596
1.03321
1.73699
1.84543
1.40001
1.84246
1.40001
1.40001
1.40001
1.39711
1.40001
1.8419
1.40001
1.20922
1.40001
1.40001
1.40004
1.84371
1.0271
1.40001
1.84121
1.40001
1.84219
1.84143
1.03127
1.40001
1.40001
1.81704
1.40001
1.40001
1.03658
1.40001
1.84525
1.40001
1.82227
1.3994
1.83985
1.40001
1.40001
1.40001
1.40001
1.84328
1.40001
1.40001
1.84149
1.40001
1.40001
1.40001
1.40001
1.40001
1.40001
1.40001
1.40001
1.69184
1.40001
1.54615
1.8414
1.40001
1.40001
1.40001
1.03755
1.40001
1.40001
1.40001
1.40001
1.8434
1.83792
1.45741
1.40001
1.40001
1.84306
1.40001
1.40001
1.84178
1.40001
1.40002
1.40001
1.40001
1.40001
1.40002
1.84135
1.19061
1.84149
1.84359
1.39677
1.40001
1.40001
1.40001
1.65727
1.40001
1.40001
1.84338
1.84208
1.40001
1.40001
1.40001
1.40001
1.04451
1.40001
1.40001
1.40001
1.68645
1.40001
1.84248
1.84429
1.40001
1.84335
1.40001
1.40001
1.40001
1.64122
1.40001
1.83906
1.40001
1.8413
1.40001
1.40001
1.39605
1.8421
1.40001
1.40001
1.40001
1.40001
1.40001
1.84538
1.40003
1.40001
1.01444
1.8471
0.99393
1.40001
1.84743
1.40001
1.39632
1.40001
1.83975
1.84592
1.40001
1.84783
1.27139
1.84234
1.84705
1.40004
1.40001
1.40001
1.01969
1.40001
1.40001
1.40001
1.84148
1.65621
1.84758
1.40001
1.40001
1.40001
1.40001
1.39683
1.84287
1.40001
1.02383
1.40001
1.40001
1.40001
1.40001
1.40001
1.40001
1.40001
1.84563
1.83961
1.84756
1.40001
1.40001
1.39692
1.40001
1.37773
1.40001
1.40001
1.40001
1.02833
1.37755
1.40001
1.03582
1.03772
1.40001
1.84237
1.84532
1.40001
1.8429
1.83826
1.01527
1.6972
1.40001
1.40001
1.40001
1.02871
1.84267
1.40001
1.0133
1.40001
1.84673
1.47843
1.40001
1.40001
1.40001
1.40001
1.84197
1.84017
1.40001
1.40001
1.84128
1.40001
1.40001
1.83955
1.8429
1.40001
1.82606
1.84089
1.83863
1.35293
1.83871
1.40917
1.01937
1.73991
1.84218
1.40001
1.40001
1.40001
1.03029
1.40001
1.03744
1.84663
1.34837
1.84128
1.34424
1.40001
1.83974
1.59817
1.40001
1.40001
1.84513
1.40001
1.57733
1.84082
1.40001
1.40001
1.83518
1.84965
1.02924
1.66333
1.3999
1.40001
1.67626
1.40001
1.84973
1.34365
1.84947
1.84337
1.40001
1.40001
1.40001
1.40001
1.82961
1.40001
1.40001
1.84
1.39965
1.84151
1.75365
1.84523
1.02373
1.40001
1.40001
1.40001
1.40001
1.84279
1.40005
1.84213
1.40001
1.84052
1.84171
1.45682
1.85026
1.53483
1.84197
1.40001
1.7041
1.05888
1.83969
1.84271
1.74593
1.47921
1.83986
1.84213
1.84138
1.84281
1.40001
1.30233
1.46922
1.40001
1.8416
1.61206
1.84077
1.40004
1.40001
1.40001
1.07242
1.83916
1.83967
1.7599
1.40001
1.56108
1.40001
1.84431
1.84516
1.40001
1.84337
1.84012
1.40001
1.40001
1.40001
1.84337
1.40001
1.57736
1.84571
1.70502
1.40001
1.83988
1.40001
1.40001
1.40001
1.40001
1.40001
1.40001
1.40001
1.40001
1.40001
1.40001
1.07498
1.40001
1.81928
0.988783
1.65666
1.39858
1.83871
1.40001
1.62834
1.40002
1.68551
1.76764
1.40001
1.40051
1.84808
1.30168
1.40001
1.84591
1.82359
1.33917
1.40001
1.84225
1.84163
1.8437
1.40001
1.84384
1.84403
1.84085
1.40001
1.6016
1.40001
1.40007
1.8427
1.40001
1.84043
1.46834
1.84335
1.40001
1.40001
1.84673
1.84629
1.06106
1.40001
1.84252
1.72882
1.8408
1.40001
1.40001
1.83882
1.84527
1.39825
1.40001
1.80164
1.39698
1.84131
1.40005
1.40001
1.40001
1.40001
1.40001
1.59728
1.40001
1.74035
1.84169
1.72767
1.84046
1.40001
1.40356
1.40001
1.40001
1.83967
1.40001
1.842
1.40001
1.40001
1.40001
1.40001
1.4
1.40001
1.45742
1.63195
1.40001
1.40001
1.03736
1.40001
1.83958
1.08549
1.84433
1.40001
1.62119
1.39974
1.84269
1.6834
1.0598
1.6441
1.40004
1.84384
1.83793
1.40001
1.66716
1.84101
1.84144
1.3984
1.84855
1.82986
1.03473
1.40001
1.40001
1.39759
1.40001
1.84115
1.40001
1.06241
1.83979
1.40001
1.40001
1.80961
1.40001
1.84035
1.40001
1.84187
1.40001
1.05266
1.40001
1.40001
1.84078
1.84759
1.838
1.40001
1.8436
1.84149
1.84708
1.40001
1.40001
1.83844
1.4
1.13073
1.40001
1.40001
1.40001
1.84175
1.40001
1.84531
1.69319
1.8446
1.40001
1.84145
1.39938
1.40001
1.40001
1.40001
1.40001
1.40001
1.40001
1.08578
1.40001
1.40001
1.84201
1.40001
1.84586
1.83758
1.40001
1.05453
1.03072
1.40001
1.84353
1.48113
1.03709
1.01161
1.40001
1.8428
1.40001
1.83812
1.06451
1.40106
1.40001
1.40001
1.39953
1.40001
1.40001
1.40001
1.39992
1.57899
1.84001
1.40001
1.40001
1.84026
1.66055
1.40001
1.79226
1.84312
1.84038
1.57886
1.83837
1.40001
1.8412
1.40001
1.83779
1.40001
1.84055
1.84189
1.39676
1.83866
1.84196
1.40001
1.40001
1.40001
1.40001
1.40001
1.31546
1.83906
1.40005
1.40003
1.01979
1.4
1.03107
1.05799
1.40001
1.84236
1.84164
1.84074
1.40001
1.84303
1.40001
1.0264
1.40001
1.40001
1.84305
1.22739
1.84058
1.40001
1.84203
1.40001
1.37954
1.84172
1.40001
1.40001
1.40001
1.84317
1.40001
1.84162
1.03001
1.40001
1.40001
1.66274
1.40001
1.40001
1.6429
1.40001
1.40001
1.84276
1.40001
1.40001
1.40001
1.40001
1.40001
1.83675
1.84148
1.40001
1.84079
1.84171
1.05962
1.60307
1.84392
1.40001
1.40001
1.79741
1.39904
1.40001
1.40001
1.83921
1.84528
1.69357
1.40001
1.84159
1.06239
1.80786
1.39968
1.40001
1.84112
1.40004
1.84443
1.75604
1.73337
1.40001
1.40001
1.84408
1.10352
1.04736
1.40001
1.84201
1.40001
1.83933
1.40001
1.65907
1.40001
1.40001
1.84103
1.6837
1.01877
1.40001
1.39831
1.40001
1.40001
1.42666
1.57774
1.84208
1.40001
1.84674
1.40001
1.40001
1.40001
1.40001
1.40001
1.40001
1.46632
1.01884
1.40001
1.40001
1.42299
1.40001
1.40001
1.40001
1.40001
1.40001
1.84054
1.40001
1.40001
1.84312
1.84241
1.73095
1.40001
1.40001
1.40001
1.21726
1.84254
1.70573
1.40001
1.40001
1.40001
1.40001
1.84173
1.40001
1.40001
1.40001
1.84194
1.40001
1.40001
1.71494
1.8548
1.43256
1.1293
1.83892
1.71533
1.84148
1.40001
1.62526
1.40001
1.40001
1.40001
1.09057
1.40274
1.06464
1.40001
1.07896
1.03732
1.40001
1.03636
1.40001
1.40001
1.40001
1.59112
1.40001
1.84106
1.83887
1.4006
1.60536
1.77118
1.03688
1.16315
1.27984
1.40001
1.8421
1.84459
1.84235
1.84027
1.7798
1.26502
1.40001
1.78191
1.40001
1.81551
1.40001
1.40001
1.39651
1.41002
1.40001
1.40001
1.40001
1.84022
1.40001
1.02991
1.40001
1.84492
1.02053
1.40001
1.40001
1.8416
1.40001
1.84119
1.39952
1.40001
1.40001
1.8428
1.79297
1.40001
1.85406
1.40001
1.40001
1.41433
1.40001
1.58934
1.40001
1.40001
1.05827
1.40001
1.40001
1.843
1.4
1.84236
1.40001
1.40004
1.03717
1.40001
1.40001
0.961268
1.40082
1.40001
1.84351
1.03848
1.84767
1.03228
1.84292
1.40001
1.40001
1.40001
1.40001
1.40001
1.40001
1.40001
1.40001
1.40001
1.40001
1.40001
1.82415
1.40001
1.84361
1.84103
1.0407
1.40001
1.40001
1.40001
1.40001
1.40001
1.40001
1.82921
1.40001
1.40001
1.03253
1.40001
1.40001
1.84411
1.40001
1.40001
1.56877
1.77148
1.02958
1.03334
1.10082
1.10585
1.40001
1.39676
0.978164
1.40027
1.79904
1.3969
1.40001
1.40001
1.84257
1.40001
1.40001
1.40001
1.1684
1.40002
1.56018
1.40001
1.40001
1.57796
1.84576
1.40001
1.06013
1.40001
1.40001
1.40001
1.39658
1.40001
1.84364
1.84206
1.40001
1.04409
1.40001
1.64249
1.03552
1.40001
1.27148
1.40001
1.39642
1.0296
1.40001
1.40001
1.40001
1.39596
1.03874
1.40001
1.07827
1.39842
1.63196
1.78457
1.03403
1.02538
1.40001
1.39085
1.40001
1.39867
1.40001
1.84036
1.84193
1.40001
1.41304
1.84172
1.84064
1.40001
1.40001
1.84206
1.40001
1.40001
1.40005
1.40001
1.84794
1.40001
1.40001
1.41809
1.40001
1.39859
1.10241
1.40001
1.40001
1.40001
1.40001
1.40001
1.84025
1.42386
1.40006
1.40001
1.40001
1.40001
1.40001
1.40001
1.40004
1.40001
1.06045
1.49602
1.39861
1.83499
1.83021
1.40001
1.41533
1.84142
1.78227
1.40001
1.40001
1.0943
1.84001
1.40001
1.84129
1.40001
1.83835
1.71248
1.05233
1.40001
1.03412
1.81487
1.3997
1.40001
1.02334
1.09915
1.40001
1.40001
1.77085
1.40001
1.4
1.03987
1.40001
1.40001
1.40001
1.54683
1.40001
1.0367
1.84148
1.40001
1.40001
1.40001
1.40001
1.84224
1.40001
1.40001
1.84412
1.79634
1.40001
1.40001
1.40001
1.8478
1.04849
1.40001
1.84131
1.84216
1.40001
1.75546
1.4
1.40004
1.40001
1.40001
1.8007
1.41446
1.40001
1.03669
1.64026
1.40001
1.40001
1.3973
1.40001
1.40001
1.83598
1.40001
1.40001
1.40004
1.40001
1.84095
1.40001
1.40001
1.40001
1.40001
1.40001
1.40001
1.40001
1.60004
1.40001
1.84192
1.40001
1.40001
1.8452
1.40001
1.40001
1.40001
1.84094
1.83817
1.44652
1.40001
1.39771
1.40001
1.40001
1.40001
1.40001
1.84042
1.40001
1.40001
1.84177
1.02566
1.40001
1.40001
1.40001
1.40001
1.40001
1.40001
1.75795
1.40001
1.40001
1.84528
1.84058
1.40001
1.40001
1.40001
1.84137
1.84049
1.40001
1.39969
1.84717
1.40001
1.40001
1.40001
1.40002
1.03088
1.43277
1.39637
1.39587
1.40001
1.40001
1.04894
1.84189
1.40001
1.11434
1.40001
1.84442
1.82424
1.02866
1.39941
1.84369
1.84184
1.84001
1.40001
1.40001
1.32079
1.80975
1.77235
1.11731
1.40001
1.40001
1.40001
1.845
1.84147
1.02171
1.39731
1.40001
1.84004
1.01901
1.40001
1.8272
1.03985
1.37155
1.40623
1.40001
1.84122
1.40001
1.40001
1.40001
1.40001
1.40001
1.40001
1.40011
1.81192
1.40001
1.40001
1.8443
1.40001
1.40001
1.40001
1.8419
1.40001
1.0569
1.40001
1.40001
1.40001
1.55115
1.40001
1.40001
1.40001
1.40001
1.40001
1.16427
1.40001
1.00914
1.40001
1.84108
1.40006
1.25339
1.26102
1.40002
1.40418
1.63463
1.40001
1.40001
1.03566
1.84248
1.84191
1.84156
1.40001
1.01045
1.0456
1.40001
1.84145
1.40001
1.40001
1.40001
1.40001
1.40001
1.40004
1.40001
1.04066
1.67734
1.40001
1.40001
1.03448
1.37928
1.40001
1.40001
1.40001
1.40001
1.01663
1.40001
1.06741
1.40001
1.40001
1.83613
1.40001
1.40001
1.03524
1.40001
1.84148
1.40001
1.0325
1.40001
1.04793
1.40001
1.40803
1.84203
1.85006
1.40001
1.40001
1.83997
1.40001
1.40001
1.49539
1.39691
1.40001
1.39821
1.40001
1.84482
1.40001
1.04813
1.40002
1.83728
1.3986
1.40001
1.40001
1.19429
1.40001
1.39906
1.01767
1.84182
1.56557
1.40001
1.40001
1.29141
1.40001
1.40001
1.40001
1.19512
1.40001
1.40001
1.40001
1.84161
1.40001
1.0505
1.4
1.40001
1.40001
1.40001
1.02064
1.8421
1.80413
1.0263
1.40001
1.83776
1.40001
1.40001
1.84184
1.83902
1.77428
1.03198
1.3978
1.39925
1.40001
1.84135
1.40001
1.40001
1.40001
1.40001
1.84388
1.40005
1.40001
1.40001
1.83628
1.40001
1.40001
1.84706
1.047
1.40001
1.40001
1.40001
1.02644
1.40001
1.4
1.4
1.39859
1.40001
1.40001
1.40001
1.40001
1.73566
1.40001
1.83906
1.84048
1.85082
1.84052
1.84018
1.84171
1.40001
1.8433
1.40001
1.84166
1.84215
1.40001
1.39884
1.04875
1.77921
1.3999
1.40001
1.40001
1.40001
1.40001
1.40016
1.40001
1.47243
1.40001
1.40001
1.40001
1.21307
1.84797
1.8389
1.84191
1.7736
1.39988
1.40001
1.42252
1.84139
1.3979
1.45712
1.39714
1.04581
1.40001
1.40003
1.40001
1.40001
1.40001
1.40001
1.40001
1.84422
1.0507
1.84181
1.83952
1.39531
0.957271
1.40001
1.40001
1.40001
1.83832
1.02137
1.78871
1.02192
1.84197
1.84182
1.04598
1.83911
1.42446
1.40001
1.84262
1.19715
1.40001
1.39878
0.998993
1.40001
1.03348
1.40001
1.84182
1.84103
1.16375
1.40001
1.84197
1.03807
1.40001
1.03359
1.40001
1.84135
1.40001
1.40001
1.8199
1.40001
1.22437
1.40001
1.39969
1.02696
1.83096
1.3995
1.40001
0.989255
1.40001
1.40001
1.40001
1.40001
1.63755
1.40001
1.84126
1.40001
1.40001
1.84333
1.40001
1.40001
1.84193
1.40001
1.02426
1.40001
1.02033
1.40002
1.40001
1.40001
1.40001
1.40001
1.82195
1.66006
1.84479
1.40001
1.84226
1.81179
1.03538
1.04504
1.40001
1.40001
1.84233
1.40001
1.03062
1.40001
1.38542
1.40001
1.40001
1.84234
1.40001
1.84176
0.982287
1.8462
1.40001
0.993944
1.40001
1.40001
1.84329
1.8406
1.40001
1.40004
1.40001
1.84475
1.40001
1.40001
0.995499
1.39943
0.989489
1.40001
1.40001
1.40001
1.8435
1.84047
1.84032
1.40001
1.40001
1.10502
1.40001
1.84599
1.40001
1.40001
1.40001
1.83096
1.84266
1.8407
1.07848
1.84686
1.83969
1.05691
1.83905
1.40005
1.04189
1.41009
1.40001
1.40001
1.83849
1.05856
1.68174
1.01291
1.84515
1.39731
1.02981
1.8407
1.40001
1.40001
1.40001
1.40001
1.84053
1.83961
1.05075
1.40001
1.40003
1.02888
1.40004
1.40001
1.06534
1.04972
1.71064
1.8404
1.39843
1.8415
1.40001
1.84735
1.21064
1.01962
1.84054
1.8537
1.40001
1.84114
1.40001
1.40001
1.84216
1.40001
1.74698
1.8389
1.40001
1.40001
1.40001
1.40001
1.83794
1.83674
1.84053
1.40001
1.40001
1.84066
1.83348
1.84037
1.40001
1.84428
1.40001
1.40001
1.40001
1.40001
1.40001
1.05543
1.2311
1.03623
1.40001
1.40001
1.84136
1.40001
1.40001
1.84011
1.00808
1.40001
1.84216
1.83695
1.82211
1.02939
1.40001
1.09879
1.40001
1.40003
1.8411
1.60578
1.83926
1.802
1.40001
1.09553
1.40001
1.84153
1.71617
1.03211
1.40001
1.40001
1.40001
1.20318
1.40001
1.40001
1.84887
1.40001
1.02246
1.84506
1.40001
1.40001
1.40001
1.40001
1.40001
1.7555
1.50029
1.40001
1.84025
1.40001
1.84496
1.40001
1.39729
1.40001
1.84053
1.84682
1.84157
1.84329
1.3996
1.83939
1.40001
1.84112
1.83917
1.77291
1.40001
1.40001
1.02651
1.83644
1.40001
1.40001
1.8415
1.8418
1.84519
1.40001
1.84046
1.40001
1.40001
1.40004
1.85114
1.83996
1.52989
1.49708
1.84535
1.84051
1.05709
1.40001
1.40001
1.40001
1.40001
1.40002
1.55465
1.40001
1.40001
1.77435
0.977214
1.39998
1.40001
1.84173
1.39989
1.39983
1.47064
1.8084
1.83612
1.2921
1.40001
0.990738
1.40001
1.40093
1.83991
1.84591
1.84507
1.39897
1.40001
1.40001
1.04455
1.40001
1.40001
1.835
1.44888
1.40001
1.40001
1.40001
1.40001
1.40001
1.40001
1.40001
1.39995
1.83887
1.40002
1.40001
1.40001
1.40001
1.40001
1.67868
1.40001
1.60387
1.40001
1.40001
1.84719
1.84012
1.0156
1.39881
1.40001
1.4
1.40001
1.04703
1.84018
1.84203
1.40001
1.40001
1.40001
1.40001
1.40001
1.40001
1.40001
1.40001
1.84219
1.84218
1.04222
1.4506
1.03963
1.40001
1.02085
1.40001
1.84122
1.51448
1.40001
1.40001
1.06537
1.40001
1.82376
1.22481
1.39666
1.01056
1.40001
1.40001
1.83778
1.40005
1.3972
1.01536
1.84231
1.84106
1.40001
1.40001
1.40001
1.40001
1.81303
1.40001
1.40001
1.84235
1.39898
1.84153
1.4001
1.40001
1.40001
0.980465
1.40001
1.40001
1.84159
1.01191
1.19185
1.03836
1.84012
1.39936
1.40001
1.84607
1.03454
1.03567
1.40971
1.40001
1.40001
1.84029
1.40004
1.59671
1.40001
1.40001
1.84104
1.03561
1.40001
1.40001
1.40014
1.84242
1.40016
1.83879
1.40001
1.40004
1.40001
1.40001
1.09968
1.40001
1.1685
1.40002
1.40001
1.84438
0.98113
1.40001
1.16281
1.20357
1.40001
1.40001
1.84051
1.40001
1.40001
1.40001
1.84201
1.84093
1.40006
1.8254
1.83976
1.16493
1.84787
1.83673
1.40001
1.40001
1.84328
1.4
1.40001
1.40001
1.40001
1.40001
1.84822
1.84093
1.40001
1.40001
1.40001