/*--------------------------------*- C++ -*----------------------------------*\
  =========                 |
  \\      /  F ield         | OpenFOAM: The Open Source CFD Toolbox
   \\    /   O peration     | Website:  https://openfoam.org
    \\  /    A nd           | Version:  12
     \\/     M anipulation  |
\*---------------------------------------------------------------------------*/
FoamFile
{
    format      ascii;
    class       volScalarField;
    location    "4.49";
    object      T;
}
// * * * * * * * * * * * * * * * * * * * * * * * * * * * * * * * * * * * * * //

dimensions      [0 0 0 1 0 0 0];

internalField   nonuniform List<scalar> 
22702
(
1
1
0.961159
1
1.01571
1
1.11971
1
1
0.90151
1.12057
1.11926
1
1.11852
0.969803
1
1
1
1.12018
1
1.11858
1
1.12017
0.901062
1.11935
0.858856
1
1.12001
0.896297
0.898474
1
1.11922
1
1
1
1.11058
1.12014
1.12038
1
1
0.893916
1
1.06274
1
1.12011
1
1
1
1
0.899921
1
0.900883
1
1.12054
1
1.12038
1
1
1
1
0.866304
1
1
0.891527
1
0.898994
1
1
1
0.892082
1
1.11862
1.07555
1
1.11826
1.12441
0.900707
1.11815
0.89855
1
1.12064
0.898029
1.12142
1.12128
1
1
1
1
0.982054
0.89694
1.12158
1
1
0.902538
1
1.11873
0.903353
1
1
1
1
1.06262
1.12042
0.87376
1
1
1.03118
1
0.898779
1
1.1181
1.12074
1
1
0.872082
0.871684
0.898489
1
1
1
1
1
0.977432
1
1.10268
1.01337
1.11816
1
1.11843
1.12023
1.11866
1.12116
1
0.876035
1
0.886846
1
1
1
1
1.12045
1
1
1
1
1.11832
1
1.00698
1
1
1
1
0.896442
1
1.003
1
0.899522
1
1
1
1.1211
1
1.11883
0.872071
0.867079
1.11836
1.11885
1
1.02348
1.07144
1
1.12217
0.898923
1.11072
1
1
1
1
1.11846
1.09869
1
1.12053
0.891315
1.12159
1
0.895686
1
0.900113
0.861743
0.999934
1
1
1.1204
1
1
1.11837
1
1.12089
1.12053
0.898898
1
1
0.895419
1.11843
1
1
1
1.11839
1
0.888928
1
1
1.11851
1.11869
1.1193
1
1.00001
1
1
1
1.1188
1
0.893551
1.12276
1.11838
1.1186
1
1
1
0.889223
1.11905
1.05933
1
1.11891
0.89297
0.890734
1.11894
1.11892
1
1.11737
0.898636
1.10598
1
1
1
1
1.11847
1
1.07013
1.01233
1
1
1.11884
0.896552
0.924207
1
1.11818
0.887631
1.11733
1
1
1
1
1
1
1
0.897272
0.934246
0.889984
1.11857
1
1
1
1
1.10902
1
0.899022
1
0.889902
0.897162
1.11827
0.89879
1.11856
1
1
1
0.999311
0.894792
0.902394
1
1
0.885246
1
1.12009
0.885057
1
1
1.12093
0.893487
1
1.11644
0.864998
1.11894
1
0.893389
0.999301
1
1
1
0.899701
1
1
1
1
1.00702
1.07568
1
0.88338
1
1
1
1
1
1
1
1.12112
1
1.12104
1
1
1
0.885803
1
1.11848
0.898394
1
1.09328
1
1
1.12062
1
1
1
1.11962
1
1
1.11974
1.12079
1
1.02878
1
1
0.888785
1
1
1
0.898015
1
1
1
1
0.876469
1
1
1
1
1
0.908238
1.00002
1.1189
1
1
1.1187
1.11851
1
1
0.899848
0.941587
1.12027
1
1
1
1.11889
0.889764
1
1.11872
1
1
0.915849
0.911686
1
0.8916
0.887475
1
1
1
1
1
1
1
1.11834
1.03179
1.11481
0.907405
0.971637
1.12049
1
1.11804
1.12031
0.891792
0.925023
1
0.888668
1
1.12404
1
1
1
1
1.11838
1
1
1
1
1
1
1
1.04711
1.12092
1
1.11868
1
1
0.897916
1
1
1
1
1.11848
1.09289
1
1
0.893763
1.11854
1.11873
1
1.11855
1.11839
1.11877
1
0.949836
1
1.11786
0.996441
1.11875
1
0.889753
0.999662
1.12043
1
1
1
1
0.897482
1.11874
1.10879
1
1.11823
1.11861
1.12009
1
1.06059
1.11892
1
1
1.08531
1.01717
1.11847
0.980343
1.11858
1
1.11855
1.11825
1.11858
1.11863
1
1.11844
0.97555
0.967619
1
1
1
1
1.1214
1
1
1
1
1
1.11943
1
1
0.998934
1.11874
1.10849
1
1.09788
1.00001
1
1
1.11906
1
0.99899
1.00124
1
1.11824
1
1.11918
1
1
1.09043
1
1.11844
1.00001
1
1.11841
1
1.11867
1
1
1
1.1184
1
1.11816
1
1.11839
1.12028
1.11856
1.11957
1
1.12047
1.11666
1
0.894217
1.11203
1.08752
1
1.11834
1
0.891908
0.863172
1
1
1
1
1
0.90601
1
1.11867
1.03416
1.11892
1
1
1
1
1
1.11828
1
1.12109
1.07402
0.927594
1
1
1.03591
1.03045
1
1
1.04732
1
0.899567
1.11835
1.11828
1
1
1
1.11946
1
1.00001
1.11953
1.11828
0.985906
1
1
0.900548
1.10855
1
1
1
1
1
1.11877
1.12026
1
1.11773
1.11756
1.11855
1
1
1
1
0.87102
1.12062
1
1
1.10881
1.11831
1
1.11231
1.12056
1
1
1
1
1
1.11824
1
1
1
1
1.11903
1
1.11861
0.889777
1
0.889194
1
1
1
0.999117
0.896084
0.999719
1
1
1
1.01689
1
1
0.962213
1
1
1
1
1
1
1
0.999999
0.982093
1
1
0.999308
1
0.896445
1
1
1
1
1.09101
1
1
1
1
0.895527
1
1
1.11228
1.12083
1
1
1
0.968897
1
1
1
1
1
1
0.987614
1.00458
1.11884
1
1
1
1.11937
0.969907
1
1
1
1.12092
1.11858
1
1
1
1
1
1
1
1
1
0.886456
1
1
1.11911
0.888601
1
1.11893
1
0.894244
1
1
0.886384
1
1
1
1
1
1
1
1.1165
1.11838
1
1
1
1
1.10934
1
1.04037
0.89185
1
1
1
1
1
1
1
1.01179
1
1
1.06731
1
1
1
1.09905
1
1
1
1
0.889012
1
1
0.881563
0.888746
1
1
1.118
1
0.99747
1
1
1
1.08596
0.893956
1
0.888886
1
0.935011
1
1
1
1.11912
1
1
1.11808
1
1
1
1.11837
1
1
1.11867
1
1
0.892233
1
1.04053
1
1
1.12061
1.12053
1.0819
1.10698
1
0.890154
1
1
1.1135
1
0.891726
1
1
1
1.11952
1
1
1
1
1.07393
1
1.11216
1.11823
0.902116
1
1
0.865563
0.857511
1
1
1
1.0873
1.09247
1
1
1
1
1
1
1
1.0549
1.12127
1.00429
1
1.11734
0.87282
1
1
1
1.06689
1
1.02467
1
1.10885
1.11816
1
0.889033
1
1.12142
1
1
1.11847
1.11216
1
1.12204
1
0.894923
1
1
1
1.11989
1.11646
1.10525
1
1.11971
1.11901
1
1.11951
1
1.11819
1
0.88733
0.993764
0.884776
1
1
1
1
1
1.11858
1
1.11884
1
1
1
1.11333
1
0.899134
1.11891
1
0.892931
0.901739
0.893319
1
1.06174
1.01366
1.11889
1.11886
1
1
1
1
1.11892
1
1
1.11859
1.11865
1
1.04494
0.999852
1
0.999093
1.12006
0.955438
1
0.944513
0.899333
0.899748
0.988607
1.11983
1.11712
1.02713
1.11856
1.11804
1
1
1.11939
1.11996
1.11846
1.12117
1
1.11863
0.899519
1.11824
1.11875
1.11939
1.11893
0.962746
0.969621
0.980963
1.11805
0.9899
1.1188
1
1
1.119
1.11867
1
0.888235
1.11884
1.11812
1
1.1199
1.1198
1
1.11885
0.893608
1.11966
1.11991
1.12105
1.11806
1
1
1
1.11799
1.08066
0.8941
1.11754
0.882112
1.11798
1
1
1
1
1.11824
1.11772
1
1
1.11849
0.884369
1.11837
0.897121
1
1.11785
1
0.903107
1.11868
0.923821
1
1.11923
1.11925
1.11856
1
1
1.05801
1.11905
0.894377
1.11787
1
1.1183
0.961638
1.11809
0.888349
1
1.11837
0.901429
1.11903
0.892835
1
1.11924
1
1.12026
1
1.07202
1.1146
1.09471
0.881685
1
1.11854
1
1.11839
1
1.11807
1
1
1.11868
0.996633
1.11932
0.909135
1.1058
1
1.08688
1
1.11874
1.11777
1.11886
1
1.10776
1.11888
1.11059
1.07539
1.11917
1
1.08122
1
1.11823
1
1.01804
1
1.11032
1
1.11838
1.11338
1.11347
1
1.11444
0.856966
1
0.890138
1
1
1
1.11907
1
1.11905
1
1
1
1.11942
1.11784
1.10271
1.11809
1.11888
0.889866
1.11987
1.12166
1
1.10372
1.11753
1.11491
1
1.12217
1.1201
1
1.12023
1.11896
1.11894
1.11881
1
1
1
1.11836
0.878039
1
1.11841
1
1
0.866975
1
1
1.11839
1.11839
1
1.1193
1.12092
1.11821
0.991962
1.11799
1
1.11866
1.11864
1.09778
1
1
1
1.11771
1.1187
1.11851
0.98567
1
1.12123
1.11859
1.11856
1
1.11865
1.11832
1.11865
1.12091
1
1.11848
1.12002
1.10546
1.11865
1.1203
1
1.11844
1.11731
1.11853
1.11818
1.118
0.868554
1.1187
1.11878
1
1.11859
1.11858
1.11854
1.11838
1
1.11865
1.11858
1
1.11852
1.10116
1
1
1
1.11935
1.11759
1
1
1.06676
1
1.11862
1
1
1.11873
1.11889
1.11853
1.1179
1
1
1
1.08849
1
1.11839
1
1
1.11929
1.12018
1
1.11874
0.885803
1.11867
1.11958
0.925197
1
0.884746
1.10604
1.11914
1.11821
1.1183
0.890878
1.11896
1.11958
0.889573
0.883159
1
1.11829
1.11926
1
1
1.11855
1
1.11858
1
1.10473
1
1.0574
1.11894
1.11912
1.08868
1.10941
1.12058
1.11937
1.11266
1
0.870401
1.11829
1.11827
1.12058
1
1
1
1.12054
1
1.11794
1.1184
0.929021
1
1.11844
0.999984
1
1.00001
1.00001
1.11894
1.11805
0.999575
1
1
1.11838
1.11928
1.11851
1.12051
1.1183
0.890989
1.10355
1
1.11783
1.11831
1.11798
1.11918
1
1.11953
1.11567
1.11938
1
1.11909
1.11819
0.957077
1.11796
1.11913
1
1.11867
0.950362
1.11854
0.957656
1.11891
1
1.11853
1.12219
1.11785
1.11866
1.11854
1.11869
1.11945
1.11901
1
0.980889
1.11859
1.1187
0.951071
1.11757
0.995897
1.07884
1.11846
1.11817
1.11843
1
1.11929
1.08217
1.11804
0.977882
1.11937
1.12133
1
0.960077
1
1.11737
1
1.08457
1
1.11377
0.963099
1
1.11929
1.11991
1
1.11858
1.11898
1.11915
1.1219
1.12073
1
1.12115
1
1
1
0.9724
1.11863
1.11845
1.11841
1.11864
1.11847
1.11848
1.12088
1.11865
0.973421
1.00896
1
1
1.12231
1.119
1.1185
1.1178
1.00001
1.0644
1
1.1202
1.10645
1
1
0.9203
1.11868
1
1
0.896564
1.11737
1
1.12199
1.11845
1.12061
1.11457
1.11846
1
0.883932
1.0308
1.11875
1.11853
1
1.11869
1.11836
1.0648
1.00272
1.02843
1
1.12068
1.11832
1
1
0.884293
1
1
1.11782
1.11873
1.11894
1.11851
1.11822
1.11956
1.11864
1.11943
1.11854
1
0.998801
1.11874
1.11831
0.999131
1.11835
1.11855
0.884468
0.903681
1.11946
1.12045
1
1
1.00044
1.11846
1.11928
1.11751
1
1.11848
1
0.963097
1.1208
1.12029
1
1.05832
1.11861
1
1.1193
1
1.11847
1.08329
1.11939
1
1.1188
1.12102
0.882757
1.11858
1
1.1186
1.12115
1
0.885934
1.11935
1.10011
0.999298
1.11245
1.11869
1
1.00322
1.11784
0.999285
1.11856
1
1
1.11838
1
1.11859
1.11843
0.99903
1.09398
1
1.11871
1
1
1
1
1.11943
1
1
1.11732
1
1.11859
1
1.07946
1.11848
1.11881
1
1
1.00346
1
1.11899
1.11844
1.1187
1.11859
1.11858
1.11856
1.11851
1
1.11841
1.11922
1
1.11849
1.11844
1
1.11864
0.980726
1.01729
1.11842
1.11851
1.1195
1
1.11854
1
1.11793
1.11855
1
1.1192
1
1
1
1
1.1186
0.8844
0.999409
1
1.11864
1.11854
1
1.11924
1
1.00166
0.893303
1.11851
0.99988
1
1.11875
0.999552
1.11851
1
0.999939
1
1.11862
1.1196
1.11859
1.11898
0.895673
1.11907
1.1189
1.1188
1.03014
1
1
1.05415
1.11777
0.884012
0.898843
1
1.11816
1.11899
1.11851
1
1
1.11788
1.11843
0.999963
1
1.08938
0.886199
1
1.02252
1.121
1.11679
0.999496
1.11953
1.12157
1
0.999711
1
1.11841
1.11977
1.05029
1
1.11212
1
1.00039
1.11887
0.887672
1.11854
1.11815
0.999131
0.999975
1.10395
1
0.999912
1
1.1192
1
1
0.886301
1.11845
1
1
1
1
1.11701
1.07003
1
1
0.891043
1.11847
1.07005
1
1
1
1.11347
1.11597
1.1202
1
1
1.11969
1
1.12061
1.11849
1
1
1.11897
1.12044
1.11458
1
1
1.11899
1.11857
1
1
1
1.11901
1
1
1
1.11867
1.1201
1.1188
1
1.11833
1.00001
0.912021
1.11847
1.11831
1
1.11978
1.11135
1.11886
1
1
1.12003
1
1.06767
1.11808
1
0.883898
1
1.11906
1
1
1.11877
1
1
1
1.0402
1.11817
0.903923
1
1.11888
1
1
1.11844
1
1.12011
1
1
1.1186
1.11856
1
1.00001
1
1
1
1
1
1
1.12014
1.11886
1
1.12202
0.885533
1.12139
1
1.11876
1.12074
1.11871
1.1177
1.12207
1
1
1.11829
1
1.078
1.11938
1.1181
1
1.11846
1.12014
1
1.10611
1
1.11844
1.08037
1.11842
0.999248
1.11609
1.11063
1.11799
1.11838
1.01019
1.11811
1.11852
1
1.11826
1
1.11835
1
1
1
1
0.998961
1.11992
1.11848
1.09743
1
1.1196
1
1
1
0.877085
1
1.11656
1
1.10898
1.11548
1
1
1
1.10951
1.11915
1
1
1.11871
0.890973
1.02374
1
1.12018
1.11862
1.10917
1.11596
1.1187
1
1.11818
1
1
1
1
1.11878
1.1194
1
1.11918
1.01816
1.1187
1.11138
1
1
1.11164
1
1
0.887696
1.08751
1
1
1.11885
1
1.11874
1.10971
1
1.10931
0.891031
1.11897
1.1184
1.11861
1
0.89246
1
1
1
1.11852
1.10244
1
1.11934
1.11854
1
1.11902
1
1
1
1
1.11849
0.999815
1
1.11903
1
1
1.11876
1.11842
1
1.11913
1.0229
1.00001
1
1.11859
1
1.11886
1
1.00424
1.118
1
1.11854
1
1
1.03678
1.11881
1
1
1
1
1
0.998828
0.890827
0.886461
1.00561
1
1.00745
1
1.00657
1
1.11798
1
1.07717
1
1.11817
1
1
1
1.11827
1
1.09776
1.11896
1
1.06596
1.11859
1
1
1.11892
1.11834
1
1
1.01453
0.882439
1
1.11958
1
1
1
1
1.02236
1.11786
1
1
1
0.887595
1
1.11823
1.11837
1.12114
1
1
1
1
1.06155
1.12119
1
1
1
1.11862
1.1185
1.01353
1
1
1
1.11904
1.11852
1
0.883601
1.11878
1.1189
1.11837
1.11943
1.12023
1
1
1.11703
1.12013
1.11809
0.890183
1.01165
1.11843
1
1
1
1
1
1.11838
0.89706
1
1
1.11914
1.05825
1
1.11789
1
1
1
0.892492
1
1
1.03398
1.11839
1.11853
1
1.11921
1.11937
1
1.02186
1
1.11795
1
1.11825
0.892119
1
1
1
1
1.11873
1.00002
1
1
1
1.11277
1
1
1
1
1.11959
0.891718
1.09252
1.11955
1
1.11871
1
1
1
0.999172
1
1.11949
1
0.945371
1
1
1.00001
1.11907
0.890725
1
1.11838
1
1.11886
1.11837
0.892831
1
1
1.11027
1
1
0.897894
1
1.11861
1
1.11386
0.999827
1.11806
1
1
1
1
1.12155
1
1
1.11846
1
1
1
1
1
1
1
1
1.08131
1
1.04183
1.11856
1
1
1
0.891736
1
1
1
1
1.11923
1.11761
1.01861
1
1
1.11891
1
1
1.11891
1
1
1
1
1
1
1.11836
0.939502
1.11852
1.11902
0.999072
1
1
1
1.0723
1
1
1.11897
1.11864
1
1
1
1
0.896024
1
1
1
1.07909
1
1.11871
1.1191
1
1.11895
1
1
1
1.06814
1
1.1211
1
1.11852
1
1
0.998865
1.11858
1
1
1
1
1
1.11951
1.00001
1
0.888313
1.11997
0.880332
1
1.11989
1
0.998947
1
1.11805
1.11922
1
1.11939
0.964792
1.11868
1.1204
1.00001
1
1
0.885638
1
1
1
1.11849
1.07204
1.11899
1
1
1
1
0.999092
1.1189
1
0.885497
1
1
1
1
1
1
1
1.11984
1.11825
1.11947
1
1
0.999117
1
0.995971
1
1
1
0.886799
0.995958
1
0.889185
0.892921
1
1.1187
1.11938
1
1.11882
1.1177
0.882995
1.08215
1
1
1
0.887289
1.11898
1
0.881905
1
1.11941
1.02445
1
1
1
1
1.11851
1.11976
1
1
1.11845
1
1
1.12023
1.11887
1
1.11476
1.1184
1.12015
0.988699
1.11818
1.00261
0.884166
1.09343
1.11866
1
1
1
0.887591
1
0.891808
1.11964
0.987407
1.11845
0.986216
1
1.11804
1.0568
1
1
1.11941
1
1.0513
1.11835
1
1
1.11807
1.1184
0.888056
1.07356
0.999971
1
1.07502
1
1.12049
0.985982
1.12137
1.1199
1
1
1
1
1.11377
1
1
1.11827
0.999898
1.11869
1.09661
1.11945
0.892043
1
1
1
1
1.11895
1.00001
1.11869
1
1.11844
1.11848
1.01656
1.12075
1.03997
1.11904
1
1.08432
0.897131
1.11881
1.11875
1.09428
1.02467
1.11934
1.11863
1.11843
1.11896
1
0.9741
1.01981
1
1.11849
1.05912
1.11841
1.00001
1
1
0.900982
1.1179
1.11929
1.09845
1
1.04708
1
1.11904
1.12001
1
1.11902
1.11912
1
1
1
1.11895
1
1.04995
1.11964
1.08457
1
1.11812
1
1
1
1
1
1
1
1
1
1
0.901845
1
1.11233
0.871906
1.07214
0.999592
1.11745
1
1.06484
1
1.07958
1.09921
1
1.00009
1.12016
0.974139
1
1.11948
1.11452
0.984664
1
1.11881
1.11875
1.11897
1
1.11904
1.11919
1.11833
1
1.0578
1
1.00002
1.1189
1
1.11844
1.01979
1.11878
1
1
1.11974
1.11896
0.897058
1
1.11882
1.09063
1.11837
1
1
1.11981
1.11924
0.999499
1
1.10851
0.999136
1.1184
1.00001
1
1
1
1
1.05672
1
1.09478
1.11865
1.0903
1.11827
1
1.00075
1
1
1.12021
1
1.11885
1
1
1
1
1
1
1.01626
1.06579
1
1
0.891721
1
1.11801
0.905292
1.11991
1
1.06259
0.999924
1.11904
1.07899
0.901279
1.06884
1.00001
1.11913
1.11755
1
1.07487
1.11848
1.11852
0.999542
1.1203
1.11569
0.888108
1
1
0.999268
1
1.11826
1
0.901578
1.11824
1
1
1.11085
1
1.11835
1
1.11886
1
0.894571
1
1
1.11838
1.12094
1.11766
1
1.119
1.11857
1.11943
1
1
1.11787
1
0.924019
1
1
1
1.11914
1
1.11933
1.08158
1.1192
1
1.1185
0.999823
1
1
1
1
1
1
0.905784
1
1
1.11863
1
1.1197
1.11802
1
0.896001
0.890229
1
1.11896
1.02301
0.892436
0.888237
1
1.11885
1
1.11761
0.897505
1.00031
1
1
0.999864
1
1
1
0.999977
1.05174
1.11815
1
1
1.11823
1.07324
1
1.10679
1.11883
1.11849
1.05174
1.11581
1
1.11841
1
1.1176
1
1.11788
1.11842
0.999071
1.11799
1.11866
1
1
1
1
1
0.977806
1.11985
1.00001
1.00001
0.887468
0.999996
0.887909
0.896051
1
1.11902
1.11872
1.11843
1
1.11884
1
0.890945
1
1
1.11875
0.951021
1.11818
1
1.11851
1
0.996386
1.11866
1
1
1
1.11909
1
1.1187
0.888571
1
1
1.07375
1
1
1.06853
1
1
1.11896
1
1
1
1
1
1.11917
1.11842
1
1.11899
1.11861
0.898
1.05816
1.1191
1
1
1.10774
0.999725
1
1
1.11783
1.11951
1.08161
1
1.11882
0.898513
1.11268
0.999898
1
1.11837
1.00001
1.11916
1.09761
1.09173
1
1
1.11909
0.911599
0.896932
1
1.11864
1
1.118
1
1.07268
1
1
1.11844
1.07911
0.88403
1
0.999508
1
1
1.00768
1.0514
1.11861
1
1.12039
1
1
1
1
1
1
1.01925
0.883855
1
1
1.00888
1
1
1
1
1
1.11836
1
1
1.11897
1.11853
1.0907
1
1
1
0.950705
1.11847
1.08479
1
1
1
1
1.11879
1
1
1
1.11885
1
1
1.08716
1.12388
1.01146
0.922659
1.11766
1.08719
1.11892
1
1.0639
1
1
1
0.905398
1.0007
0.905474
1
0.901893
0.889791
1
0.889615
1
1
1
1.05494
1
1.11863
1.118
1.00017
1.05766
1.10114
0.890802
0.930884
0.966991
1
1.1186
1.1209
1.11861
1.11821
1.10331
0.962918
1
1.10383
1
1.11237
1
1
0.999004
1.00277
1
1
1
1.11912
1
0.888054
1
1.11934
0.891376
1
1
1.1185
1
1.11847
0.99979
1
1
1.11884
1.10775
1
1.1227
1
1
1.0041
1
1.05417
1
1
0.897248
1
1
1.11887
1
1.11865
1
1.00001
0.895155
1
1
0.869793
1.00031
1
1.12027
0.890273
1.12014
0.887742
1.11895
1
1
1
1
1
1
1
1
1
1
1
1.11424
1
1.11903
1.12072
0.891689
1
1
1
1
1
1
1.11556
1
1
0.891901
1
1
1.12078
1
1
1.04813
1.10137
0.888496
0.888256
0.910384
0.912371
1
0.999071
0.874518
1.00013
1.10894
0.999113
1
1
1.11916
1
1
1
0.932353
1
1.04522
1
1
1.051
1.11958
1
0.895518
1
1
1
0.999018
1
1.11905
1.11862
1
0.891717
1
1.06848
0.890411
1
0.964367
1
0.998907
0.886781
1
1
1
0.998825
0.892746
1
0.901788
0.999546
1.06581
1.10459
0.888294
0.891652
1
0.997224
1
0.999618
1
1.11822
1.11854
1
1.00607
1.11881
1.11833
1
1
1.11861
1
1
1.00001
1
1.12029
1
1
1.00519
1
0.999595
0.910929
1
1
1
1
1
1.11792
1.00917
1.00001
1
1
1
1
1
1.00001
1
0.898315
1.02932
0.999601
1.11886
1.11586
1
1.00431
1.11871
1.10638
1
1
0.907896
1.11824
1
1.12037
1
1.11766
1.0866
0.897718
1
0.890003
1.11363
0.999913
1
0.88547
0.90923
1
1
1.10119
1
1
0.890859
1
1
1
1.04148
1
0.89008
1.11849
1
1
1
1
1.11869
1
1
1.11899
1.10748
1
1
1
1.11843
0.893628
1
1.11886
1.11864
1
1.09732
1
1.00001
1
1
1.10872
1.00646
1
0.896252
1.06906
1
1
0.999208
1
1
1.11819
1
1
1.00001
1
1.1191
1
1
1
1
1
1
1
1.05733
1
1.11871
1
1
1.11942
1
1
1
1.11838
1.11763
1.01318
1
0.999343
1
1
1
1
1.12076
1
1
1.11861
0.888524
1
1
1
1
1
1
1.09788
1
1
1.11899
1.11898
1
1
1
1.11898
1.11825
1
0.999911
1.12065
1
1
1
1
0.892612
1.00925
0.998961
0.998817
1
1
0.89273
1.11915
1
0.914436
1
1.11922
1.11435
0.889281
0.999829
1.11899
1.11914
1.11826
1
1
0.979305
1.10897
1.10151
0.915097
1
1
1
1.11933
1.11838
0.884381
0.999229
1
1.11796
0.885604
1
1.11685
0.891604
0.994168
1.00178
1
1.11954
1
1
1
1
1
1
1.00003
1.11132
1
1
1.11988
1
1
1
1.11856
1
0.897383
1
1
1
1.04364
1
1
1
1
1
0.931491
1
0.883907
1
1.11823
1.00001
0.959617
0.961789
1
1.0011
1.0665
1
1
0.890694
1.11857
1.11843
1.11846
1
0.880087
0.891984
1
1.11838
1
1
1
1
1
1.00001
1
0.895735
1.07748
1
1
0.889922
0.996407
1
1
1
1
0.882178
1
0.899274
1
1
1.11758
1
1
0.889436
1
1.11856
1
0.88844
1
0.894233
1
1.00229
1.11865
1.12187
1
1
1.12022
1
1
1.02917
0.999115
1
0.999489
1
1.11924
1
0.900657
1
1.12053
0.999621
1
1
0.940465
1
0.999731
0.882741
1.11851
1.04818
1
1
0.970536
1
1
1
0.94085
1
1
1
1.11853
1
0.897831
1
1
1
1
0.886763
1.11867
1.10932
0.885796
1
1.11696
1
1
1.11861
1.11944
1.10206
0.889252
0.999371
0.999784
1
1.11839
1
1
1
1
1.11893
1.00001
1
1
1.11807
1
1
1.11976
0.892733
1
1
1
0.891269
1
1
1
0.999597
1
1
1
1
1.09157
1
1.11993
1.11884
1.12176
1.11836
1.11817
1.11849
1
1.119
1
1.11847
1.11864
1
0.999666
0.893326
1.10323
0.999969
1
1
1
1
1.00238
1
1.02069
1
1
1
0.948725
1.12001
1.1178
1.11938
1.10324
0.999964
1
1.00649
1.11849
0.999398
1.01855
0.999178
0.893511
1
1.00001
1
1
1
1
1
1.11905
0.896527
1.1185
1.11794
0.99862
0.85996
1
1
1
1.11775
0.883737
1.10567
0.886847
1.11857
1.11912
0.894607
1.11815
1.00702
1
1.11886
0.943485
1
0.99965
0.874822
1
0.889908
1
1.11852
1.11832
0.93248
1
1.11977
0.891297
1
0.88989
1
1.11856
1
1
1.11352
1
0.950446
1
0.99991
0.888759
1.11587
0.999854
1
0.872368
1
1
1
1
1.06855
1
1.11841
1
1
1.12143
1
1
1.11891
1
0.889722
1
0.892334
1
1
1
1
1
1.11378
1.07161
1.11927
1
1.11865
1.11132
0.888662
0.890627
1
1
1.11859
1
0.890327
1
0.998237
1
1
1.11889
1
1.11867
0.868876
1.11945
1
0.873408
1
1
1.11859
1.1183
1
1.00001
1
1.12027
1
1
0.874726
0.999836
0.875572
1
1
1
1.119
1.11848
1.12005
1
1
0.911258
1
1.11997
1
1
1
1.11738
1.1188
1.11842
0.903264
1.11977
1.11803
0.895954
1.11941
1.00001
0.890792
1.00517
1
1
1.11779
0.896932
1.07858
0.880651
1.11934
0.999233
0.886976
1.11835
1
1
1
1
1.11827
1.11994
0.894916
1
1.00001
0.889267
1.00001
1
0.898407
0.899386
1.08603
1.11836
0.999551
1.11857
1
1.11854
0.946206
0.884587
1.1182
1.12276
1
1.1182
1
1
1.11862
1
1.09485
1.11983
1
1
1
1
1.11763
1.11735
1.11857
1
1
1.11803
1.11902
1.11886
1
1.11917
1
1
1
1
1
0.896522
0.95232
0.887508
1
1
1.11872
1
1
1.11842
0.879541
1
1.11858
1.1174
1.11386
0.886837
1
0.909901
1
1.00001
1.11999
1.05802
1.11973
1.10885
1
0.908494
1
1.11846
1.08739
0.894209
1
1
1
0.943491
1
1
1.12167
1
0.891655
1.11939
1
1
1
1
1
1.09728
1.02857
1
1.11858
1
1.11938
1
0.999195
1
1.11837
1.11973
1.11854
1.11892
0.999883
1.11953
1
1.11839
1.11783
1.10171
1
1
0.88592
1.11858
1
1
1.11849
1.11842
1.11924
1
1.11834
1
1
1.00001
1.12083
1.11813
1.03652
1.02807
1.11947
1.11819
0.895677
1
1
1
1
1
1.04412
1
1
1.10355
0.873459
0.999988
1
1.1186
0.999968
0.999951
1.0201
1.11041
1.11914
0.970671
1
0.873717
1
1.00263
1.11802
1.11948
1.12047
0.999703
1
1
0.89349
1
1
1.11685
1.01404
1
1
1
1
1
1
1
0.999983
1.11928
1
1
1
1
1
1.07819
1
1.05726
1
1
1.11983
1.11832
0.886925
0.999658
1
1
1
0.893765
1.11951
1.11865
1
1
1
1
1
1
1
1
1.11908
1.11743
0.895191
1.01462
0.895342
1
0.883636
1
1.11855
1.03485
1
1
0.898548
1
1.11429
0.950226
0.999028
0.880291
1
1
1.11924
1.00001
0.999193
0.883751
1.12008
1.11997
1
1
1
1
1.1116
1
1
1.11865
0.999707
1.11916
1.00003
1
1
0.868104
1
1
1.11853
0.881192
0.939994
0.897709
1.11815
0.999817
1
1.11953
0.888312
0.888639
1.0051
1
1
1.12048
1.00001
1.05541
1
1
1.12046
0.892198
1
1
1.00004
1.11966
1.00005
1.11714
1
1.00001
1
1
0.910282
1
0.934965
1
1
1.11918
0.868342
1
0.930471
0.946559
1
1
1.11833
1
1
1
1.11883
1.11839
1.00001
1.11592
1.12041
0.931211
1.11994
1.11718
1
1
1.11881
1
1
1
1
1
1.12132
1.11815
1
1
1
1.11828
1.00006
1
0.883581
0.919819
1
1.00001
1.04551
1
1
0.973312
0.896046
1
1
1
1.11844
1.10912
1.11856
1
1
1
1
0.883476
1
1.1155
1
1.12063
0.891073
1.11919
1
1
1
0.913173
1
1.11956
1.00001
1
0.892294
1.04866
1
0.999903
1.1224
0.885319
0.891367
1
1.11991
0.883469
0.882621
1
0.87913
1
1
1
1
0.907613
1
1
1
1
1.11917
1
1.09242
0.871121
1
1
1
0.88822
1.11873
1
1
0.999079
1.11627
1
1.11809
1.11941
1
1
0.913214
0.888609
1
1
0.889455
1.04009
1.05944
1
1
1.12036
0.999242
1
0.999299
1.12029
1
1
1
1
1
1
1.11827
1
1.04505
1.04123
0.909087
1.10596
1
1.11825
1.11829
1
1
1
0.974273
0.884057
1
1.06409
0.999899
1.10604
1
1
1
1
1
1.00197
1.05634
1.1189
1.11747
1
1.11862
1
0.917211
1
0.999218
0.999937
1
0.890004
1
0.895527
1.00001
1.11965
1.11981
0.891244
1.12044
0.898565
0.998805
1.08965
0.890499
1.08543
1
1
0.999547
1
1
1
1.00002
1
0.890221
1
1
1
1
0.999884
1.11904
0.937153
1
1
1
1.01134
1
1
1
1.07348
0.929182
1
1
1
1.01221
1.11875
1
0.86464
1
1.11907
0.978615
0.893891
1
0.889441
1
1
1.11258
0.999484
1.11419
1
1.00272
1
1
1.11903
1
1
1
1
1.02534
1
1.11859
1.11904
1.11896
0.878708
1.11862
0.999173
1.09918
1
1
0.889105
1
1
0.890898
1.11861
1
1
0.999989
1
1
1
0.884214
0.889602
1
1.12164
1
1.06023
1.11835
0.8845
1.10107
1
1
0.902572
1
1
1.11856
1.11871
1.04857
1
1
1.0004
1.11954
0.881145
0.894621
1.11985
1.11981
1.08292
1.05114
1
0.968294
1
1
1
1.11016
1.11946
1.11868
1
1
1.11867
0.899942
1.10986
0.881858
1
0.897335
1
0.893001
1.11844
0.888439
1
0.999609
0.895161
1
1
1
0.950077
1.11288
1.11845
1.11852
1.12017
1
1
1.1201
1
1
1.11808
1
0.910928
1
0.863688
1
1.12008
1
1
1.00726
1.09293
1
0.999677
0.901046
1.11895
1
0.859454
1.02542
1
1
1.09494
1.11864
1.1185
1
1.11838
1.03291
1
1.0067
1.11708
1
1
1
1
1.11851
1
0.884616
1.11852
0.881347
0.867066
0.954178
1.11834
1.04344
1.11843
1
1.12131
0.999223
1.00001
1.11853
1.12031
1
1.11947
1
1.11769
1
1.11992
1
1.00001
0.999994
1.11956
0.888248
0.895533
0.999389
1
1
1
0.869044
1
1.08181
1
0.877992
1
1.0518
1.11813
1.11955
1
1
1.00001
0.999841
1
1.11941
1.11858
1
1.05378
1.11932
0.9583
1.11861
1.0001
0.887883
1.0283
0.902719
1
1
1.02244
1.12046
1
1
1.01221
0.999605
1
0.86651
1
0.935392
1
1.11849
1
1
0.901255
1.02959
1.01727
0.99957
1.11861
1.11901
0.934207
0.999445
0.891341
0.910613
0.892149
1
1
1
0.999727
0.910352
0.891425
1
1.11757
0.999928
1.1178
1.1175
1.11972
1.11878
1
0.890512
1.11818
0.886507
1
1.11821
1.1183
0.999055
0.947305
1.1181
1.08789
1
0.885462
1
1
1.11961
1
1.00782
1.11865
1
0.88226
0.886459
1
1
0.882297
0.885769
1.11839
1.00001
1
0.876872
0.892474
1.119
1.11531
1.11212
1.11972
1.03725
0.99664
1.05114
1.11833
1.09004
1
1.06355
1
0.881317
0.960459
1
0.884868
1.11857
1.00625
1.11927
1
1.11847
1.11982
1
1.11899
1.11808
0.896655
1.11894
1
1.12223
1
0.931252
0.894208
1.11926
1
1
1
0.887856
1.1185
1.11898
1
0.895723
1
1
0.893412
1.00001
0.885864
1.11982
1
0.94652
0.890034
1
1
1.0704
1
1
1
1.02232
0.895169
1
1
1
1.11809
0.881842
1
1.11869
0.857578
0.895218
1
1
1.1182
1
1.11826
1
1.1174
0.894865
1
1
0.889015
0.947332
0.865444
1
1
1
1
1.11846
0.88942
1
0.882332
1
1.11907
1
1
0.979907
1
1
0.945334
0.999915
1.00001
1
0.881129
0.897936
1
1
1
1
0.935057
1.11829
1.11943
1
0.885722
0.894062
0.975977
0.898034
1
0.947273
1
0.867316
0.994638
1
1
0.890519
1
1.11818
1.11597
0.89553
1
1
1
1.11851
1
1.01356
0.953503
1.04155
0.896224
1.04991
0.885814
1
1
0.908922
0.975357
1
1.01231
1
1
0.907539
1
0.981953
1.01373
0.883168
1
1.10044
0.924195
0.967654
1
1
1
0.894912
1
0.888347
0.888147
1
0.957412
0.887301
1.02015
0.916112
0.87203
1.11845
1
1.11876
1.06739
0.907005
1.1182
0.884317
0.99972
1.11974
1
1
1.11871
1
0.910486
1
1.02129
1
1
1.11793
1
0.92899
0.940851
1.12066
0.981657
1
0.929407
1.1186
1.11938
0.975592
1
1.11861
1.03203
0.954234
1
1.00633
1
0.899682
1.05664
0.924582
0.916695
1
1
0.893286
1.1187
0.988123
0.886787
0.892164
0.960858
1
1.00629
1.11972
1.11866
1
1
1
0.894923
1.05822
0.999994
1.11847
1.11358
0.887901
1
1.02953
0.965948
1.07813
1.10601
1
1.0138
1
1.00002
0.886376
0.952382
1
1
0.940618
0.884063
1.0114
1
1
0.860692
1.05754
1
1.1152
1
1.01272
1.06788
1
1.11608
1
1
1.1191
1
0.8786
1.12003
0.89249
1.03269
1
0.894623
0.999977
1
1.00001
1
0.937204
1.00753
0.892998
1.09159
1.11983
0.881801
1
1
1
1
1
0.98974
0.902967
1.01075
0.887901
0.890415
1.01979
1
0.999942
1.03151
1
1
0.881857
0.99868
1
1
1.03603
1
1.11937
1
1.11966
1.02653
1.00828
0.887632
1
1
0.859943
1
1
1
1
1.11844
1.01262
0.99944
1
0.888064
1.01506
1
1
1.08178
1
0.900466
1.11859
1
1
1
1.11838
0.887818
0.965193
0.892449
1.09144
1.11858
1
1
1.11841
1
0.890648
1
1
1
1
1
0.932676
1
1.11887
1
1
1.04472
1.11925
0.899559
0.959621
1
1.11818
1
1
1
1
1
1.11868
1.11971
0.883957
1.11849
0.879683
1
1
1.1197
1
1.12017
1.00213
1.00777
1.01668
1.11731
1.02093
1.08327
0.881843
1
0.882891
0.997673
1
1.11875
1
1
0.877819
1.11791
1
1.11947
1
1
1
1
1
1
0.894378
1.11976
0.951033
1.11856
1
0.893268
0.898344
0.906459
1.11923
1.11889
0.993883
1
0.939668
1
1.05101
1
1.11816
0.879126
0.886343
0.957724
1
1.11898
1
1.01974
0.902644
1
1.12068
1.10497
0.999677
1
1.1182
0.894244
1.11951
1.11844
1.11698
0.889454
1.02799
1
1
0.885146
1
0.940303
0.950183
1
1.00001
1.11762
1
1.11676
1.02708
1
1.01052
1.1213
1
0.885818
1
0.931716
1
1
1.09878
1
0.937901
1
0.894775
1.01162
0.982885
0.892431
1.11863
1.097
1.1189
0.888996
0.903282
0.998849
1
1
0.908965
1.11251
0.89672
0.999991
1
1.1185
1.11928
0.974373
1
0.897754
0.901707
1.08286
0.992161
0.881448
1
0.880791
1.03499
0.897746
1
1.00002
0.944742
1.11967
1.11903
0.953036
0.999883
1
1
0.914723
1
0.890918
1
0.888375
0.898203
1
1
1.00001
0.895296
1.11858
1
1
1.00002
1.00001
0.888747
1.11906
1.1167
1
0.892426
1.11896
1
1.02922
1
1
1.11835
0.891976
1
1
0.894586
0.91405
0.895379
0.866017
1
0.90282
0.999204
1.02815
0.879957
1
1
1.03376
1
1.10697
1
1
1.08307
0.890097
1
0.898986
1.03371
1.11813
1
1
0.890597
0.882121
0.879228
0.917581
0.872977
1.09189
0.99983
1
1
1
1
1.11922
0.860606
1
0.982657
0.999906
0.999524
0.999981
0.922637
1.03555
1
1.11989
1.11863
1
1
1.11431
1.00001
1
1.11868
0.886314
1.12086
1
0.88666
1.1187
1.00001
1
0.945254
1
0.8873
1
1.11892
1
1
1.11975
1
1
1.11767
1
1
1
1.1192
1
0.91615
0.909846
1
0.883342
1.11896
1
1
0.992857
1
1.11904
1.07246
1.09761
1
1
0.890316
1
0.888126
1.11885
1.11951
1.119
1
1.11967
0.895623
1
0.888368
1.09664
1.11062
1.11773
1.11813
0.927567
0.88302
1
1.08477
1.11942
1.11903
1.11875
0.920945
1.04793
1
1.09255
0.912417
1
1
1
1.00001
0.973818
1
1.11805
1
1
1
1
1
1
1.00002
1.11868
1
1.11981
1.08951
0.89055
1.12017
1.00871
1.06227
1
1.11852
1
0.884962
1
1
1
1
1.10269
1
0.885078
1.1181
0.882229
1.11862
1.0967
1.06576
1
1.02573
1.0593
0.998838
0.896436
0.93363
1.00001
1
0.980864
1
0.872627
1.11939
0.871841
0.976938
0.958682
1
1
1
1.00444
1
1
0.893654
0.999151
1.11917
1
1.11855
1
0.891258
1
1
1.11866
1.11826
0.887667
1
1.11946
1
0.945197
0.877302
1.11837
1.10761
1
1.02187
1.11827
0.999615
1
1.05313
1.10605
1.11854
0.998884
1
0.999999
1.10274
1
1
1
1.11849
0.999574
1
1
1.11863
1
1
0.893935
1
1
1
1.11839
1
1
0.964395
1.04062
1.10853
0.930554
1
1.11927
1
1.04516
1
1.12017
0.999191
1.11775
1
0.898468
1
1.08644
1
1
1.11173
1
1.11893
1
1.11877
0.904203
0.890334
1.11968
1
1.10179
1
1.11867
1
1
1.00001
1.11944
1.11943
1.03346
1.11845
0.998803
0.906236
1.11891
0.958672
1
1.11542
1
1.11889
1
1.11897
1.11928
0.998952
0.891243
1
1.11883
1
1.01012
1
1
0.999416
0.926012
1.10741
1
1.10883
1
0.965153
0.88521
1.11834
1.11907
0.904281
1
1.11899
1.12092
1.11956
0.900333
1.11846
0.886279
1.11868
1.11776
1
1
1.11843
1
1
1
1
0.8965
1
1
1.11871
1.11921
1
1.11852
1
1.12165
1.11889
1
1.10047
1
0.887413
1.11859
1.08972
1.03491
0.883771
1.11778
1
1
0.883741
1
1
1.11873
1
1
0.936087
1
1.11894
1.00002
1.11895
0.883155
1.1201
1
1.1186
1.11497
0.975621
1
1.11863
0.927031
1.12001
1.08629
1.11847
1.11929
0.999164
1.11956
1.1188
1.11812
1.11865
0.999918
1
0.906945
1
1.11897
0.951657
1.10919
1
1.117
1
1
1
1
1
1.118
0.884776
0.890262
1.11944
1.11868
1
1
1
1
1
1.1175
1.11005
1.11865
1.00899
1
1
1
1.00001
1.11842
1.11867
1
1.11977
1.11958
0.895513
1.08632
1
1.11856
1.11987
1.11792
0.999405
1.11859
1.11901
1
1.11485
1
1
1
1
1
1
1.11848
1.12036
1.11165
1.12002
0.886389
0.906807
1.11706
1.11884
1
0.885839
0.981906
1
1.06137
0.87843
1
0.999849
0.999506
0.891533
1
1.11836
1
1
1
1.11982
0.984937
1
1.11835
1.11842
1
1.11863
1
1
1.1176
1
0.891259
1
1.11864
1
1
0.891843
1
1.11903
1
0.888842
0.892711
1
1.11285
1
0.880692
0.9673
1
1.11926
1
1
1
1.11906
1
0.893653
1.01829
1.11929
1.11898
1.11877
1.01205
1.11905
1.11872
1
1
1
1
1
1.11652
1
0.999796
1.11792
1
0.885692
1
1.11748
1.05853
1.0194
1.05815
1.01964
1.12096
0.90424
1.11665
1
0.892295
0.999222
1.11787
0.985033
1.11801
1.1187
1.11378
1
1.11966
1.11707
1.11781
1
1.00001
1
1
1.11893
1.08721
1
1
0.880237
0.99905
1
1.11905
1
1.1186
1.1187
1.11901
0.979136
1.11912
1.11864
1.00206
1.0597
1.11971
1.11878
1
1.11053
0.9552
1.11414
1.00075
1.11865
1
1.11765
1.11894
1
0.890713
0.98116
0.914165
1
1.0257
0.999025
1.11832
1
1
0.998955
1
1.06215
1.11406
1
1
1.11844
1
1
1.08644
1.11879
1.11476
1.11943
1.11928
1
1.11886
0.91986
1.11902
1
1.00073
0.895007
1
1
0.92935
1
1.04135
1
1.1192
1
1.11659
1.07728
0.897046
1
1
1
1
1
1.11856
1.00353
1
1.12064
1
1.11864
1.11858
1
1
0.992104
0.999955
0.886543
0.883183
0.92114
1.02501
1
0.999539
0.890723
1.00001
1
1.11874
0.985422
1.11172
1.09883
1
1
1
1
1
1.11856
1.11793
1
1.11953
1
1.12017
1.083
0.998916
1
1
1
1.07192
1
0.987661
1
1.11894
1
1
1.11785
1
1
1
1
1
1.11869
0.887248
0.998889
1.10721
1.11966
1
1.11759
1
1
1
1
0.898558
1
1.11841
1.11862
1.1182
1.1201
0.985301
1
1.10213
1.03143
1.11961