/*--------------------------------*- C++ -*----------------------------------*\
  =========                 |
  \\      /  F ield         | OpenFOAM: The Open Source CFD Toolbox
   \\    /   O peration     | Website:  https://openfoam.org
    \\  /    A nd           | Version:  12
     \\/     M anipulation  |
\*---------------------------------------------------------------------------*/
FoamFile
{
    format      ascii;
    class       surfaceScalarField;
    location    "8.37";
    object      phi;
}
// * * * * * * * * * * * * * * * * * * * * * * * * * * * * * * * * * * * * * //

dimensions      [1 0 -1 0 0 0 0];

internalField   nonuniform List<scalar> 
33852
(
0.000251329
2.24281e-05
-0.000273757
-0.000246121
1.32441e-05
0.000232877
-0.000175332
-7.12731e-05
0.000246316
0.000304053
-0.000163969
-0.000140085
0.000288718
-4.21986e-05
-0.000251339
2.72441e-05
-0.000260681
0.000233437
0.000315113
1.46499e-05
-0.00032966
0.000304277
-9.59564e-05
-0.000208321
0.000286413
-3.50841e-05
0.000203535
1.7815e-06
-0.000198758
0.000289566
-0.000366758
7.71713e-05
0.000360979
-4.56379e-05
-4.39602e-05
0.000263285
-0.000219325
-4.39391e-05
0.000318263
-0.000274435
6.05509e-05
-0.00023611
0.000252057
1.2236e-05
-0.000264293
0.000264853
-1.2796e-05
-0.000278433
3.23121e-05
0.000340736
-5.1277e-05
0.000158593
0.000112308
-0.000270901
-2.43497e-05
0.000303273
-0.000278832
0.000271377
-0.000276165
4.78802e-06
-1.76533e-05
0.000274249
-0.000256662
-0.000227087
1.50236e-05
0.000212719
-0.000153478
-0.000183613
0.000337214
-0.000148678
-7.10945e-05
0.000218583
3.72401e-05
0.000267037
-6.1142e-05
-0.000262567
0.000324019
-0.000199292
1.64037e-06
0.000196692
-0.000204189
-1.87209e-05
0.000142045
0.000137388
-0.000279433
0.000341749
1.93209e-05
0.000142618
0.000128347
-0.000270965
-0.000101136
0.000259729
-0.000250489
-3.78001e-06
0.000254269
0.000330646
-5.94335e-05
-0.000271106
-0.000356971
0.000203485
-0.000226819
0.000209144
0.000231645
3.32081e-05
-5.65602e-06
0.000237301
-8.04403e-06
0.000213296
-0.000232625
0.000259869
0.000319811
-5.81957e-05
-0.000261076
-0.000309093
5.51042e-05
0.000253989
0.000239866
-0.000300848
0.000273589
-0.000306321
3.27321e-05
-0.000180237
-5.49362e-05
0.000235173
0.000272133
-0.000272133
0.000148429
-0.000297473
0.000149045
-0.00020878
0.000218839
-7.34022e-06
-0.000268241
0.000237301
3.09401e-05
-0.000202079
0.000250121
-4.76503e-05
-9.16164e-05
-0.000217477
-0.000114609
-0.000252173
-0.000280169
0.000266113
1.40561e-05
0.000329757
1.19201e-05
-0.000250433
7.01963e-05
0.000117908
0.000145909
-0.000263817
1.34681e-05
-0.000267457
0.000253989
-0.000134569
0.000282997
-0.000151789
-5.09608e-05
0.000202822
-0.000274681
0.000245113
2.95681e-05
0.000237553
-0.000268437
3.08841e-05
-0.000180727
-2.37742e-05
0.000151665
0.000115565
-0.00026723
-0.000196016
-2.89743e-05
0.000225403
0.000263985
2.24281e-05
0.000275941
-2.35201e-06
0.000265329
-0.000250741
-1.45881e-05
0.000228827
-6.4084e-05
-0.000160832
-1.82001e-06
0.000239373
0.000367087
-0.000312785
-5.38953e-05
-2.87626e-05
0.000304307
-0.000276878
-0.000101584
0.000219493
0.000343023
2.42294e-05
-0.000372611
0.00035436
1.83469e-05
-0.000216117
2.30385e-05
0.000309314
-0.000321312
1.22601e-05
-0.000207261
0.000270628
-6.4072e-05
-4.45202e-06
1.70348e-05
-0.00031926
0.000301708
0.000235075
-0.000199601
-3.55381e-05
0.000269208
-0.000339305
6.9957e-05
0.000332584
-6.3361e-05
-0.000268941
0.000236573
3.23681e-05
-0.000129388
-0.000132609
0.000261997
-1.86761e-05
-0.000249565
-1.022e-05
-0.000258721
2.35013e-05
0.000209014
-0.000232943
3.17345e-05
-0.000220961
0.000194677
-2.49108e-05
0.000327427
-0.00030288
-0.000279329
0.000273701
5.62802e-06
0.000156129
-0.000296857
0.000140729
-5.84728e-05
-0.000147584
0.000205538
0.000143277
0.0001218
-0.000265077
-0.000250131
0.000225831
-0.000210323
0.000150637
-0.000168813
0.000327181
-0.000158369
0.000185389
7.16523e-05
-0.000257041
0.000255193
2.07481e-05
-0.000192277
0.000148317
5.08933e-05
0.000266649
0.000306779
-0.000289984
9.40366e-05
-0.00024213
0.000135241
0.000117096
-0.000281065
-1.05878e-06
0.000243435
-0.000240175
0.000166489
0.000122836
-0.000289325
0.000144039
8.997e-05
-3.92002e-06
0.000259113
0.00030387
5.47164e-06
-0.000323939
0.000315193
8.94429e-06
-3.99002e-05
0.000236293
-0.000196393
4.08802e-06
-0.000284257
-2.52383e-05
0.000164679
-0.000139868
-0.000157357
0.000132056
0.000213609
-0.000176325
-0.000269921
0.000264965
4.95602e-06
2.64041e-05
0.000174721
-0.000201125
2.87841e-05
-0.000257265
0.000228481
0.000276137
-0.000262669
0.000115108
0.000212073
0.000214485
-0.000191126
-0.000175813
0.000202217
1.3449e-05
0.000282925
-0.000296508
0.000268055
2.17284e-05
0.000272099
-0.000284563
1.24898e-05
3.86402e-06
0.000267513
-1.82503e-05
0.0002901
0.000330521
1.00212e-05
0.000213647
-0.000257572
0.000316936
-0.000316913
-6.63603e-06
-0.000272693
2.85953e-05
0.000201348
0.000187993
3.98722e-05
-0.000227865
-5.38192e-05
0.000212336
-0.000164365
0.000153609
-0.000270285
0.000116676
0.000279441
-0.000329701
5.02602e-05
-6.38122e-05
0.000249201
-0.000166909
0.000315897
-0.000148989
-0.000313829
-9.98449e-06
-0.000214929
0.000175029
2.78601e-05
-0.000278349
0.000276221
-1.88441e-05
-0.000248613
1.71883e-05
-0.000302954
0.000285767
0.000344989
-0.000158593
-0.000186397
-1.67717e-05
-0.000240684
0.000257681
-0.000266617
-3.30401e-06
0.000224001
2.45841e-05
-0.000248585
0.000284509
-0.000128381
0.000140197
0.000138853
-0.000279049
-0.000197357
-1.07469e-05
0.000258169
-0.000115551
0.000225796
-0.000242557
-6.38122e-05
0.000251805
-0.000208789
0.000249481
-5.60002e-07
-0.000248921
0.000255109
-0.000237441
-0.000324662
0.000299252
-3.08841e-05
0.000203169
-0.000172285
0.000291418
1.23572e-06
-0.000292644
7.48983e-05
0.000131201
-0.000205937
4.58035e-05
-0.000198049
-0.000289356
-4.66546e-06
0.000294284
-1.52474e-06
-0.000287236
0.000146973
-0.000273925
0.000126952
-0.000264744
0.000218019
-0.000296879
0.000267125
0.000279441
-0.000312681
-1.24216e-05
0.000324984
0.000110097
0.000160448
-2.14152e-05
0.000352159
0.000140141
0.000139833
-0.000279973
0.000245029
-0.000250349
5.32002e-06
-0.000210953
0.000180069
0.000279133
-5.43202e-06
0.000350941
-3.27459e-05
-0.000301759
0.000306828
-1.27448e-06
0.000270985
-0.000270985
-0.000364753
0.000225909
0.00013884
-0.000213224
2.05763e-05
1.69123e-05
0.000275157
-0.000278461
3.30401e-06
-5.18744e-06
0.000167896
-0.000163076
-0.000197345
0.000254801
-5.74562e-05
-0.000205007
4.68771e-06
-0.000245441
0.000161061
8.21476e-05
-0.000180264
0.0002614
-8.11372e-05
0.000256285
-0.000287113
3.08281e-05
-0.000249229
5.18842e-05
-2.35547e-05
0.000275643
-0.000252018
-0.000253547
1.35801e-06
0.000252189
0.000231281
-7.28003e-06
-0.000294512
7.49619e-06
0.000287013
-0.000266085
0.000266085
-0.000284575
-5.50964e-05
-0.000170721
-0.000194024
-0.000170246
0.000217342
-4.56155e-05
-1.232e-05
-0.000239177
0.000251497
3.10801e-06
0.000210113
-0.000213221
-0.000186401
-2.26031e-05
0.000209343
7.70259e-06
0.000294719
-0.000302251
-0.000236153
-1.34401e-05
0.000249593
1.50361e-05
-0.000251189
-0.000241025
0.000256061
-0.000301372
0.000309152
0.000256117
7.16803e-06
-0.000162474
-3.12482e-05
0.000195411
-0.000145237
-0.000134765
-0.000244329
0.000240549
0.000298757
-5.66654e-07
-0.00029821
-0.000298891
6.74365e-07
0.000298194
1.91882e-05
0.000181217
0.000163773
7.70044e-05
-0.000257269
-0.000159242
0.000310908
0.000250721
-0.000108677
-0.000235145
-1.83681e-05
0.000253513
-0.000204653
-0.000126837
0.000331522
-6.10402e-06
-0.000229125
0.000235229
-2.27135e-05
-0.000196401
-0.00028668
-8.55984e-05
6.40199e-06
-0.000300826
-0.000212591
0.000327801
-0.000115372
0.000281597
0.000288205
-5.16322e-05
0.000271993
-1.57081e-05
-0.00018725
-1.41408e-05
0.000200335
0.000296994
5.00138e-07
-0.000297698
-0.000268326
-3.28671e-05
-0.000218821
0.000247605
-2.52618e-05
0.000310635
-0.000285392
0.000175254
8.19466e-06
-0.000188537
-3.34921e-05
0.000206043
-0.00030135
0.000276056
0.000291626
6.02758e-06
-0.000297277
0.000157445
0.00011886
-0.000276305
0.000289701
4.85931e-06
-0.000294188
-0.000249916
0.000119396
0.000129615
-0.000281552
0.000294923
0.000302513
-0.000156857
-0.000145657
0.000207005
-0.000203897
-0.000232009
-0.000121156
-0.000155009
-4.15059e-06
-0.000294245
0.000298173
-1.0136e-05
0.000276249
0.000292557
-2.06926e-05
-0.000270553
-0.000263048
2.90425e-05
0.000233981
0.000271433
-0.000267569
0.000249621
2.95121e-05
0.000314994
-9.77944e-06
-0.000305228
4.97775e-05
0.000155183
-0.000208794
-9.95604e-05
0.000195176
-9.67422e-05
0.000252617
-2.91201e-05
-0.000223497
7.89005e-07
0.000291696
-0.000168856
-3.17335e-05
0.000212395
-1.91393e-06
0.000291897
-9.33244e-05
0.000246933
-0.000255417
-5.26402e-06
0.000121184
0.000181329
1.34121e-05
0.000241557
-0.000254969
0.000236097
1.34961e-05
-0.000249593
0.000249509
-0.000242929
0.000256425
6.34146e-05
-0.000201831
0.000139011
-0.000217354
0.000116038
-0.000198353
0.000297264
1.51724e-06
-0.000298724
0.000253849
2.22881e-05
0.000268493
-0.000216441
-5.20522e-05
0.000225518
-0.000246849
2.13305e-05
0.000257909
1.40841e-05
5.88783e-05
0.000295868
0.000267186
-3.89594e-05
-0.000228226
0.000173963
1.274e-05
0.000240297
-0.000253037
0.0001964
-0.000115367
-8.09927e-05
-0.000206444
2.13957e-05
-1.31034e-06
-0.000297322
0.000299103
0.000222404
-0.000170273
-5.35611e-05
0.000344658
-4.12886e-05
0.000275969
-0.000135829
2.31561e-05
0.000238337
-0.000261493
-0.000231141
0.000254297
-2.66724e-05
-0.000229735
0.000256466
0.000153358
-0.00015902
-7.79807e-05
-0.000171205
-0.000261723
4.14346e-05
0.000220288
-3.17521e-05
-0.00022997
7.36557e-06
0.000261717
-3.25193e-05
-0.000229198
1.66594e-05
0.000128164
-0.000198435
0.000308785
-0.000171397
0.000262319
-3.57923e-05
-0.000226526
-0.000319709
0.000178375
-9.98466e-05
-0.000228453
-6.90203e-05
-3.99744e-08
-0.000298262
0.00029814
-2.75629e-05
0.000179799
-0.000153656
0.000308124
6.88035e-06
0.000250097
-0.000248249
-1.84801e-06
-0.000177332
6.18919e-05
0.000260296
-3.07182e-05
-0.000229547
0.000197345
-0.000250769
5.34242e-05
0.000254205
-0.000231206
-2.29992e-05
-0.000252337
0.000240017
0.000146473
0.000103285
-0.000101864
-0.000170269
0.000132496
-0.000261885
-0.000290249
0.0002422
4.80482e-05
0.00021681
3.12477e-05
-0.000248056
-0.000237279
-9.47632e-06
0.000247437
0.000325433
-2.31678e-05
0.000263996
-3.42721e-05
-0.000229724
0.000140094
-0.000229313
8.81231e-05
3.63259e-05
-0.000265637
0.000229311
-0.000253905
0.000121297
0.000249817
-5.24722e-05
0.000294673
-0.000154253
-0.000140421
0.000122248
-0.000289157
1.53441e-05
0.000237665
-0.000253009
-0.000262031
3.54705e-05
0.00022656
-2.7885e-06
-3.77917e-05
-0.000224239
0.000248451
-0.000271932
-0.000264649
3.44737e-05
0.000230175
0.000193257
0.000101416
-0.000149941
0.000290137
-0.000166514
-3.80963e-05
0.000204241
-1.81721e-05
0.000263201
-0.000293437
0.000310622
0.000116274
0.000102823
0.000261325
-0.000261325
0.000311636
-2.10031e-05
-0.00028995
5.32002e-07
0.000248949
0.000254857
1.65761e-05
0.000309616
-0.000276262
-3.31164e-05
-2.26336e-05
0.000266577
-0.000243943
3.00077e-05
-0.000260519
0.000230511
-0.000252139
0.000229506
0.000327291
3.11501e-05
-0.000260598
0.000229447
0.000276809
-3.16961e-05
-7.17344e-06
-0.000292171
0.000298398
0.000270946
3.88672e-05
0.000230245
-0.000266617
3.63721e-05
0.000199748
-0.000199419
-0.000258301
0.000238533
1.97681e-05
0.000169762
-0.000257245
8.74835e-05
-0.000207476
0.000163241
-0.000249145
8.59043e-05
-0.000266169
0.000224813
4.13562e-05
0.000253073
-2.78797e-05
-0.000225194
0.00017
4.19282e-05
-0.000234837
-2.29601e-05
0.000257797
-0.000236377
-2.28761e-05
0.000259253
-1.94265e-05
0.000255969
-0.000236542
-0.000259345
0.000239919
-3.2675e-05
0.000172822
-0.000235929
-2.24001e-05
0.000258329
-0.00025484
0.000229192
2.56481e-05
2.94001e-06
0.000211289
-0.000214229
-0.000267031
3.79849e-05
0.000229046
0.000270677
4.48002e-06
4.17566e-05
0.000160327
-0.000199253
-3.31197e-05
0.00024993
-2.09658e-05
0.000218597
9.73004e-05
0.000248199
-0.000216948
0.000277895
-0.000279021
0.000277689
-0.00028197
-1.84997e-05
0.000258601
-0.000240101
-0.000261644
0.000243145
2.95701e-05
-0.000199647
-2.97241e-05
-0.000206157
0.000236383
0.000314644
-0.000287268
-2.73795e-05
0.000261297
-3.11081e-05
-0.000230189
3.28739e-05
-0.000262362
0.000229488
-0.000229853
0.000259645
-2.97921e-05
0.000325871
-1.77358e-05
0.000147145
-0.000208769
0.000256929
-0.000109956
-0.000285956
0.000287275
0.000241977
-6.41202e-06
-0.000235565
0.000228537
-0.000187736
-3.70715e-05
0.000222282
2.78156e-05
-0.000213701
-0.000239989
0.000260317
-2.03281e-05
-0.000101937
0.000186868
-8.59533e-05
3.042e-05
-0.000200158
0.000240169
-0.000263424
2.32552e-05
-0.000115584
0.000258861
-0.000243993
0.000265721
-2.17281e-05
-0.000238953
0.000232541
0.000258626
-0.000245105
-1.35213e-05
0.000264349
-2.46681e-05
-0.000246317
-0.000273464
-1.06658e-05
0.000299941
-5.34449e-05
-9.78082e-06
0.000292384
-0.000282441
-0.000161538
0.00020484
0.000226054
1.87045e-05
-0.000245152
0.000328256
-0.000328317
0.000260955
-0.000245018
-1.59377e-05
-0.000302211
-7.03829e-07
0.000305019
9.72372e-06
3.7154e-05
0.000161981
-0.000208389
0.000213445
-3.49748e-05
-0.000177924
0.000278054
-0.000255789
-2.22648e-05
-0.000197898
3.06182e-05
3.15421e-05
-0.000261891
0.000230348
0.000285188
-0.000292156
2.44721e-05
-0.000259617
-0.000257965
1.87881e-05
0.000266057
-1.64361e-05
0.000151173
-0.000267625
0.000116452
0.00029929
-4.5392e-06
0.000238617
-7.53763e-05
2.12521e-05
0.000177045
-0.000198297
-0.000183877
0.000205129
-0.000236275
0.000257219
-2.09441e-05
0.000261462
-3.31689e-05
-0.000228293
-0.000197009
-5.21362e-05
0.000251581
-1.48401e-06
8.83665e-06
-0.000264028
0.000256108
-0.000342217
0.000235839
0.000106239
0.000266371
-0.000236811
-2.95597e-05
0.000306912
-0.000314704
7.84633e-06
-2.57041e-05
-0.000229097
0.000254801
0.000261493
-7.64403e-06
1.0191e-05
-0.000209601
0.000262411
-3.19033e-05
-0.000230508
-6.90483e-05
-0.000260653
-0.000194685
0.000248025
-5.33402e-05
-0.000266533
0.000249985
1.65481e-05
-0.000318012
1.67651e-05
-1.72688e-05
0.000296684
-0.000279134
-0.000276221
1.65481e-05
0.000249537
-0.000167124
6.37402e-05
0.000273871
1.48151e-05
-0.000288459
-0.000316044
0.000307818
8.10962e-06
3.46641e-05
-0.000263649
0.000228985
-1.73949e-05
0.000281471
-0.000315247
1.63395e-05
-0.000176541
-7.42283e-05
-0.000234369
0.000204754
-2.16721e-05
-0.000216469
0.000238141
-0.000314681
0.000295641
1.88582e-05
-0.000132339
0.000275168
-0.000140938
-8.33026e-06
3.31521e-05
-0.000263453
0.000230301
-0.000194248
2.44046e-05
0.000167845
0.000221542
0.000280318
-0.000280674
2.77454e-07
-0.000236993
-2.20921e-05
0.000224813
-0.000202721
0.000139273
0.000143753
-0.000278517
0.000200724
-5.71318e-05
0.000307912
-1.08639e-05
0.000209389
-0.000268662
2.92853e-05
0.00022306
-0.000252345
-0.000322232
0.00013868
0.000296578
2.92779e-05
1.9386e-05
-0.000224355
-2.77845e-05
-0.000136594
-0.000132757
-0.000326084
0.000113591
0.000242873
2.56201e-05
0.000218765
-0.000224869
1.10157e-05
-0.000287745
0.00027671
-0.000243848
0.000271198
-2.69496e-05
0.000281367
-0.000281892
0.000286931
-7.71425e-05
-8.95535e-06
0.000290346
-1.87881e-05
0.000247101
-0.000228313
0.000281381
-0.000290311
-5.56148e-06
-0.000283966
0.000289525
0.000282067
-0.00026952
0.000284415
0.000226314
2.67597e-05
-0.000307581
0.000316495
-9.13971e-06
0.000250649
-2.14136e-05
0.000229992
2.44304e-05
-0.000268913
0.000246057
-2.05381e-05
-0.000259401
3.02849e-05
0.000229116
0.000178305
7.64963e-05
1.01689e-05
0.000281179
-0.000291084
-0.000238141
-2.88401e-05
0.000266981
2.51441e-05
-0.000263285
0.000284117
-0.000162317
-0.000232177
0.000261129
-2.89521e-05
-0.000234697
0.000260709
-2.60121e-05
1.3998e-06
0.000279085
2.45001e-05
-0.000259197
2.38001e-05
-0.000255977
0.000274211
-0.00024288
-3.13756e-05
0.000317701
-9.94746e-06
-0.000307127
-1.42261e-06
-0.000255753
1.1816e-05
0.000243937
-1.48263e-05
-0.000261185
0.000228065
-0.000245337
0.000270145
-2.48081e-05
-0.000263229
1.49801e-05
-2.36043e-05
0.000286022
-0.000262444
2.13641e-05
-0.000266701
-0.00024175
-2.13204e-05
3.26163e-05
-9.0432e-05
0.000260194
0.00028101
-0.000286637
5.05122e-05
0.000237693
0.000282644
-0.00028265
-0.000243181
-2.39401e-05
0.000267121
-0.000260894
7.34723e-06
-0.00029548
1.93258e-05
0.000276087
-0.000268717
2.55361e-05
-8.7221e-06
0.00029074
-0.000268326
0.000243548
2.47774e-05
-0.000232513
0.000210841
0.00028061
-0.000289271
-6.16002e-07
0.000260289
-0.000259673
-0.000301778
-1.6114e-05
-0.000264573
2.35481e-05
-0.00024417
-2.41556e-05
-3.43281e-05
-0.000298366
0.000294136
0.000286674
-0.000158327
0.00029518
-0.000289368
2.30152e-05
5.01457e-06
0.000262777
-0.000254156
-7.12098e-06
0.000307586
-2.02822e-05
-0.000287297
5.95338e-05
-0.000246765
-2.19521e-05
-0.00035665
0.000242144
0.00028503
-0.000277856
2.33801e-05
-0.000184605
-1.57365e-05
-0.000306794
2.57374e-05
0.000281306
-0.000195725
0.000310205
-0.000113492
0.000259841
-0.000238533
-2.13081e-05
-0.00029195
2.94001e-05
0.000222097
-0.000251497
-0.000166397
0.000135482
-0.00016493
0.000251441
-0.000238029
-1.34121e-05
-0.000263873
3.40201e-05
-2.23161e-05
-0.000269837
0.000251469
0.000230427
3.12901e-05
-4.62264e-05
0.000200374
0.000232619
-0.000260499
-1.73944e-05
-3.27084e-06
0.000245218
-0.00024376
-0.000293138
-0.000237049
0.000265189
-2.81401e-05
0.000230096
3.22225e-05
-0.000268521
2.55921e-05
-0.000239905
-2.86161e-05
0.000228954
-0.000260706
-0.000282446
4.73202e-05
-0.000242005
0.000294331
-0.00028423
-0.000288255
1.32411e-05
0.000275519
-4.7878e-06
0.000218919
0.000228551
-0.00026107
0.000296885
-0.0001309
-0.000165985
0.000241092
-0.000262076
0.000268881
-0.000226213
-1.76681e-05
-0.000166901
0.000312007
-0.000143837
2.49649e-05
0.000222662
-0.000247627
-0.000192965
0.000193729
-0.000284039
0.000282818
7.04443e-06
-0.000290968
-0.000302485
0.000146693
0.000155793
0.000259995
-0.000239359
-2.06361e-05
-0.000215741
0.000193649
0.000263283
4.92602e-07
0.000257293
0.000232526
2.16799e-05
-0.000295195
-6.19264e-05
1.05731e-05
0.000232173
-0.000251199
1.7748e-05
-0.000230917
-2.37161e-05
0.000254633
-0.000242295
0.000263191
-2.08965e-05
8.4181e-05
0.000136232
2.02663e-05
-0.000305895
0.000285903
0.000256565
-1.80041e-05
-0.000238561
0.000243881
-0.000254017
1.0136e-05
-0.000226745
0.000207957
0.000223131
-0.000258923
-0.000244693
4.76842e-05
1.59129e-05
-0.00013775
-0.000218796
1.57921e-05
0.000245701
0.000281453
0.000293104
0.000305821
1.74205e-06
0.000249817
-0.000220417
2.51749e-05
0.000225009
-0.000250184
-0.000243178
0.000268865
-2.56873e-05
2.28201e-05
-0.000262725
-0.000116916
0.000296137
9.12359e-06
2.08181e-05
0.000261675
-0.000235103
-2.65721e-05
1.31372e-05
-0.000303292
0.00029079
0.000321571
-3.08995e-05
-0.000290401
0.000249733
1.63241e-05
0.000306711
-0.000292625
-0.000230501
-0.000112321
9.63204e-06
0.000250657
-4.9129e-05
-0.00020239
0.000251519
2.20333e-05
0.000246832
-0.000241686
-2.29629e-05
0.000260737
-2.24001e-05
0.000287976
-0.000268023
2.63369e-05
2.68241e-05
-0.000257965
0.000210617
-0.000207677
2.58161e-05
-0.000262865
0.000281087
0.000121744
-0.000256173
0.000134429
1.70118e-05
3.72979e-05
0.000154455
-0.000192489
-0.000239485
-2.85377e-05
3.9624e-05
0.000160842
-0.000206477
-0.000246691
0.000271066
-2.43747e-05
0.000209866
-0.000248826
1.98857e-05
1.73334e-05
-0.000171635
-3.00696e-05
0.000226701
-0.000257414
-2.88401e-05
0.000244245
-0.000215405
-2.16161e-05
0.000242985
-0.000221369
0.000201657
-0.000250786
-0.00027379
-0.000232905
-2.55081e-05
0.000258413
0.000241234
2.98318e-05
-0.000214368
-2.43596e-05
0.000231985
-2.18821e-05
-0.000224967
-0.000239345
6.28042e-05
0.000259004
-0.000229718
4.75106e-05
-0.000249901
-3.43393e-05
0.000257694
-0.000223354
0.000205675
-0.000240014
0.000261689
-1.1956e-05
-6.06763e-05
-0.000229572
-0.000220609
-1.72419e-05
0.000241554
0.000247109
5.3175e-05
0.000212448
-0.000265623
-0.00026109
0.000177353
-0.000231757
5.44042e-05
6.41611e-05
0.000136669
0.000259457
-0.000240915
-2.47224e-05
-0.000265385
0.000227165
3.82201e-05
-2.87813e-05
-0.000222158
0.00025094
-0.000284278
0.000264161
0.000234501
3.61761e-05
2.18821e-05
0.000234087
-0.000307217
0.000151089
0.000156129
0.000166592
-5.21981e-05
0.000254045
-0.000115192
2.56901e-05
0.000217446
-0.000243136
-0.00028625
0.000286937
9.30217e-06
0.000257377
-0.000245953
0.000208937
3.70161e-05
0.000254832
0.000251308
-1.96703e-05
-0.000246815
-2.02161e-05
-0.000263019
2.0724e-05
-0.000269215
2.24001e-05
2.79601e-05
0.000220024
-0.000247984
0.000242481
-0.000274597
1.32721e-05
0.00024386
-1.42083e-05
1.27162e-05
-0.000249838
-0.000328774
0.000124113
-0.000233135
-2.62109e-05
-0.000252113
0.000252113
0.000259782
-0.000144217
-1.82542e-05
-0.00027878
0.000297358
0.000275119
0.000258749
-0.000135913
0.000224113
2.39205e-05
0.00023468
7.80561e-05
-0.000340613
3.77716e-05
0.000258962
1.76364e-05
-0.000248843
-3.00917e-05
0.000207453
-3.01001e-05
0.000259701
2.95429e-05
0.000218353
-0.000247896
-3.05014e-05
-4.09782e-05
-0.000217818
0.000258797
-0.000233423
-2.14173e-05
3.66802e-05
-0.000193816
0.000156061
-3.30877e-05
0.000221671
-0.000255943
-0.000281873
-8.44791e-06
0.000290333
-0.000186081
0.000156175
0.000166349
8.16763e-05
1.27413e-05
-0.000294704
0.000235075
2.59446e-05
-0.000261019
-0.000196908
-1.38468e-06
0.000232743
-0.000264287
3.15449e-05
-8.42803e-06
-0.000217029
0.000225457
-0.000158801
0.000194117
-0.000249985
-3.46025e-05
0.000256274
0.000218076
-0.000252679
-0.000246289
0.000272245
-2.59561e-05
0.000253547
2.78321e-05
-0.000232062
-2.95821e-05
-0.000298764
0.000317203
-1.83123e-05
2.33386e-05
0.000212462
-0.000250254
-0.000267233
2.09441e-05
-2.12801e-05
-0.000245953
-3.61481e-05
0.00024861
-0.000289488
-1.36063e-05
0.00022082
-0.000256968
0.000247944
-0.000251574
2.09748e-06
2.80002e-06
0.000181413
-0.000184213
0.000255294
0.000234529
2.67681e-05
-2.62361e-05
0.000245001
-0.000218765
3.36001e-05
0.000216609
-0.000250209
0.000244861
2.73841e-05
0.000306545
-0.000143949
-0.000162597
1.58337e-05
0.000239439
-0.000255795
0.000271013
-0.000113568
0.000225569
-0.000256677
-0.000241293
0.000104946
-0.000265469
7.16803e-06
-0.000241635
-2.75801e-05
-0.000241361
-2.48081e-05
0.000309948
-2.72358e-05
-7.67483e-05
0.000243097
-1.1452e-05
-0.000215601
0.000224281
-8.68003e-06
0.000255193
-7.68883e-05
3.34232e-05
-0.000186724
0.000155868
-0.000265245
-1.40001e-07
-4.14962e-05
3.95002e-05
0.000151957
-0.000191695
0.000188603
-0.000153195
0.000257041
-7.05603e-06
0.000251151
-0.000218277
-1.82552e-05
-2.1128e-05
0.000267642
-9.49141e-05
-0.000178515
-1.42801e-05
-0.000191913
0.000206193
0.000258665
-1.53553e-05
-0.00024331
1.98101e-05
0.000238855
-0.000279915
-7.87563e-06
3.72497e-05
-0.000201157
0.000159961
1.36921e-05
0.000247997
-0.000166065
0.000201107
-1.95189e-05
0.000248711
3.28424e-05
0.000193037
-0.000225637
-4.17202e-06
-2.49389e-05
0.000265108
-0.000231955
-3.14693e-05
0.000296679
-0.000281139
-1.55698e-05
1.63717e-05
-0.000237659
0.000221288
-0.00010514
0.000226885
1.93195e-05
-0.000305177
0.000285859
2.52001e-05
-2.79441e-05
2.69165e-05
0.000308989
-0.000289699
0.000238891
1.97345e-05
2.15601e-06
0.000231617
-0.000233773
-0.000310074
2.56145e-05
0.000284509
-0.000162177
-0.000144145
0.000209178
-0.000250156
-0.000165466
0.000241924
1.90317e-05
0.000256819
-4.13534e-05
0.000250531
0.000214498
-0.000255851
0.000318299
-0.00031866
-1.08394e-05
0.000286944
-0.000276783
-0.000304153
1.98452e-05
0.000283104
4.20842e-05
-0.000286413
-3.78065e-05
0.000252483
2.62921e-05
-2.20954e-05
0.000307295
-0.000285159
2.43321e-05
4.01468e-05
0.000167263
-0.000202086
0.000249294
-0.000219751
2.83277e-05
-0.000261633
4.36802e-06
-2.00141e-05
0.000306519
-0.000286668
-0.000250987
-0.000266673
3.07441e-05
0.000252141
-0.000236741
-1.54001e-05
1.2264e-05
0.000239877
-0.000274787
-1.27798e-05
0.000255697
-6.5192e-06
0.000319338
-1.20343e-05
0.000298673
-0.000287239
-4.6898e-05
0.000247437
-0.000235621
0.000257601
-1.99361e-05
0.000134609
8.80321e-05
-0.000222946
0.000227095
3.03493e-05
0.000226759
-0.000258662
3.71393e-05
0.00027137
-0.000288697
1.68051e-05
0.000251273
-0.000239093
-1.31321e-05
0.000252225
-2.91201e-05
-0.000257265
2.56481e-05
0.000231617
-0.000228005
-2.92601e-05
0.000259765
-0.000233571
-2.61941e-05
0.000258721
-0.000265865
2.52323e-06
0.000289582
1.35118e-06
-0.000290568
0.000247975
-0.000232767
-1.85921e-05
0.000308736
-0.000300728
-8.00946e-06
0.000249368
-0.000101181
-0.000266897
2.56761e-05
0.000241221
-3.48881e-05
-0.000232009
-0.000266393
2.51161e-05
0.000241277
-1.23769e-05
-0.000267872
0.000280055
-3.45241e-05
-0.000231869
-0.000261578
1.8802e-05
-0.000266281
2.43881e-05
0.000241893
-0.00028407
-2.16518e-05
-0.000307349
2.77667e-05
0.000280027
-3.34041e-05
-0.000232877
-0.000163577
-0.000258133
2.94001e-05
0.000228733
0.000308914
-0.000309026
-0.000195805
0.000209049
-3.29281e-05
-0.000225205
0.000197318
-0.00027898
8.15705e-05
0.000284835
2.2553e-05
-0.000301953
1.76961e-05
0.000286227
-0.000281649
-4.95873e-06
-0.000257125
0.000231617
2.55081e-05
0.000163219
2.83931e-05
-0.000194538
-0.000266953
2.81681e-05
0.000238785
-0.000227361
-2.97641e-05
-3.67361e-05
-0.000230217
0.000277148
0.000297729
1.91774e-05
-0.000275853
-3.18444e-05
0.000307992
-0.000258679
-1.11916e-05
0.000297592
-0.000286522
1.50366e-05
-0.000301731
0.000286774
-0.000230609
-0.000307494
0.000287386
0.000263005
-2.55249e-05
-0.000280339
1.36081e-05
0.000168275
0.000230816
1.83947e-05
-0.000249477
-0.00019418
0.000158081
0.000236738
1.31517e-05
-0.00024989
-0.00025833
2.66093e-05
0.000231721
-1.09228e-05
0.000247661
5.74002e-06
0.000246877
-3.19817e-05
-0.000226348
0.000299668
-0.000285772
-1.38223e-05
0.000228024
-0.000226666
0.0002899
0.000237685
1.98521e-05
-0.000257537
-1.24236e-05
0.000250108
0.000246636
1.50389e-05
-0.000305067
1.52664e-05
0.00024448
2.18905e-05
3.28377e-05
-0.000203003
-0.000287407
-1.77721e-05
-0.000182869
0.000295177
-0.000148361
0.000181026
-3.29258e-05
3.02449e-05
-0.000206533
0.000175399
-0.000170205
0.000259149
-0.000239236
-1.99137e-05
0.00026107
-0.000274279
-0.000241676
0.000232525
-2.18284e-05
0.000301581
-0.000278651
0.00030795
-0.000292865
0.000242117
1.77241e-05
-0.000224975
0.00024443
-1.94545e-05
1.61001e-05
-0.000241075
-7.00003e-06
0.000260989
-0.000297154
4.782e-06
0.000292379
-0.000174497
0.000160217
-1.74105e-05
-6.19165e-06
-0.000290912
-1.68233e-05
-0.000284853
4.28402e-06
-0.000299438
0.000135916
-0.000257463
2.3743e-05
0.000233615
0.000238197
1.32441e-05
-3.08211e-05
-0.000226664
-3.30404e-05
-0.000292255
2.14175e-05
-0.000223945
0.000204997
0.000254969
-0.000233465
-2.15041e-05
-0.000192709
0.000215456
-0.000185067
-7.40217e-06
0.000204413
0.000133338
0.00013547
3.89173e-06
0.00027062
0.000280571
-0.000304961
2.95629e-06
0.000243421
-1.98025e-05
0.000298184
-0.000279264
-0.000302161
0.000287358
1.47452e-05
-0.000258301
0.000230077
2.82241e-05
-2.64041e-05
-0.000231897
0.000302327
-0.000302143
0.000267299
-2.00001e-05
0.000304963
-0.000284416
0.000286137
-5.80566e-07
-0.000256873
0.000256873
-0.000269211
0.000297146
-0.000143196
-6.6367e-05
-6.64197e-06
0.000295605
-0.000288465
-0.000296975
0.000290338
0.000291745
-0.000278913
0.000290555
-0.000305702
1.51408e-05
3.47503e-05
-0.000242175
0.000212158
2.33753e-05
-1.44707e-05
-0.000245647
0.000230419
-1.44272e-05
0.000298014
-0.000283594
0.000263481
-1.96001e-05
0.000254224
-0.000235464
-1.87601e-05
-3.1129e-05
-0.000273771
0.000305965
1.44723e-05
-0.000297374
0.000283016
-1.45881e-05
0.000233465
-0.000218877
0.000200573
-0.00029548
0.000282849
-1.92155e-05
0.000304419
-0.000285283
0.00025102
-2.68812e-05
0.000297516
-0.000270565
-0.000295781
0.000268835
1.07156e-05
0.000244749
-0.000255465
0.000305262
-0.000311987
6.73655e-06
1.78658e-05
1.54445e-05
0.000287214
-0.000302054
6.30727e-06
0.000283796
2.33296e-06
-0.000318866
-0.000288065
0.000303579
-0.000242481
0.000243657
8.45603e-06
-0.0002264
0.000242772
-0.00029316
0.000273921
0.000283908
-0.000152165
-8.20824e-05
0.000294526
1.44719e-05
3.19238e-05
-0.000191357
0.000159615
-0.000274481
0.000257293
-0.000219535
0.00024982
0.000243411
1.92865e-05
-0.000262697
0.000236019
2.31309e-05
-0.000301701
0.000283082
0.000312497
-1.79541e-05
0.000237945
-0.000257069
1.91241e-05
-0.000222494
0.000247459
0.000294439
1.80345e-05
-0.00016287
-1.44463e-05
0.00029819
-0.000283637
-0.000141849
-0.000266415
0.000159993
0.000106423
-0.000309571
0.000294892
1.36321e-05
-0.000258699
0.000241826
1.68729e-05
-0.000149139
0.000154914
-0.000306287
0.00028858
1.78635e-05
-0.000223699
0.000182178
-9.69084e-06
0.000253101
2.05397e-05
1.75753e-05
-0.00030444
0.000286879
-0.000300187
-7.10095e-06
0.000307659
-0.000249229
0.000220109
-0.000201153
-8.52603e-05
-0.000273109
0.000249069
0.000304045
-0.000286434
-0.000188314
1.76934e-05
1.50642e-05
0.000284584
-0.000299635
-8.80603e-05
0.000239233
-0.000303542
1.93952e-05
0.000284024
-0.000206043
-2.55312e-06
-0.000297719
-0.000167483
2.05297e-05
0.000302923
-0.000288646
-1.45412e-05
-0.000175249
-0.000299033
-0.000175545
-2.2584e-05
0.000243528
0.000289322
1.71744e-05
0.000252869
5.7466e-05
-0.000284774
-0.000247213
-0.000272027
-2.41484e-05
-0.000274761
0.000300805
-0.000262991
0.000282277
-0.000177137
-4.20161e-05
0.000216773
0.000197569
1.56521e-05
-0.000213221
-1.25715e-05
-0.000285783
0.00029834
1.83597e-05
1.85757e-05
-0.000305528
0.000286858
0.000253345
-1.71361e-05
-0.000236209
1.89634e-05
-0.000304827
0.000285892
2.03561e-05
0.000232989
0.000216385
-2.46121e-05
-0.000191773
1.57366e-05
0.000282264
-0.000298053
-0.00024889
0.000117843
-0.000303832
1.86691e-05
0.000285127
0.000213265
-5.01786e-05
-0.000293398
1.12445e-05
0.000280859
0.000255837
-2.19801e-05
-0.000233857
-0.000302947
0.000106295
0.000234529
1.70521e-05
-0.000251581
0.000279494
1.71101e-05
0.000304258
-0.000285264
1.78284e-05
-0.000299427
0.000233512
1.84916e-05
-0.000252004
-1.92073e-05
-1.42331e-05
0.000297965
-0.000283955
-0.000281222
0.000299565
-0.000277982
0.000289801
-0.00030282
1.25141e-05
0.000249741
-1.62291e-05
1.13994e-05
0.000250041
-1.55121e-05
0.000298503
-0.000282886
3.95922e-05