/*--------------------------------*- C++ -*----------------------------------*\
  =========                 |
  \\      /  F ield         | OpenFOAM: The Open Source CFD Toolbox
   \\    /   O peration     | Website:  https://openfoam.org
    \\  /    A nd           | Version:  12
     \\/     M anipulation  |
\*---------------------------------------------------------------------------*/
FoamFile
{
    format      ascii;
    class       surfaceScalarField;
    location    "4.74";
    object      phi;
}
// * * * * * * * * * * * * * * * * * * * * * * * * * * * * * * * * * * * * * //

dimensions      [1 0 -1 0 0 0 0];

internalField   nonuniform List<scalar> 
33852
(
0.000251329
2.24281e-05
-0.000273757
-0.000246121
1.32441e-05
0.000232877
-0.000171298
-7.03262e-05
0.000237275
0.000304053
-0.000163969
-0.000140085
0.00028932
-4.27968e-05
-0.000242225
2.72441e-05
-0.000260681
0.000233437
0.00031519
1.48205e-05
-0.00033061
0.000304277
-9.59564e-05
-0.000208321
0.000286413
-3.50841e-05
0.000177569
2.84706e-06
-0.000181462
0.000289696
-0.000366834
7.71199e-05
0.00036027
-4.57412e-05
-4.39602e-05
0.000263285
-0.000219325
-4.39288e-05
0.000318293
-0.000274454
5.84538e-05
-0.000238849
0.000252057
1.2236e-05
-0.000264293
0.000264853
-1.2796e-05
-0.000278433
3.23121e-05
0.000340922
-5.12355e-05
0.000158593
0.000112308
-0.000270901
-2.44182e-05
0.000303195
-0.000278938
0.000271377
-0.000276165
4.78802e-06
-1.77782e-05
0.0002754
-0.000257932
-0.000223754
1.4902e-05
0.000211886
-0.000154266
-0.00018352
0.000337984
-0.000151766
-7.37963e-05
0.000226679
3.72401e-05
0.000267037
-6.12519e-05
-0.000262932
0.000323456
-0.000211906
1.65847e-06
0.000200789
-0.000203148
-1.9044e-05
0.000142045
0.000137388
-0.000279433
0.000340879
1.92715e-05
0.000142618
0.000128347
-0.000270965
-0.000101136
0.000259729
-0.000250489
-3.78001e-06
0.000254269
0.000330691
-5.96386e-05
-0.000271282
-0.000356491
0.000203365
-0.000227926
0.0002099
0.000231645
3.32081e-05
-5.65602e-06
0.000237301
-9.23498e-06
0.000199126
-0.000232625
0.000259869
0.000313019
-5.6122e-05
-0.000257215
-0.000309093
5.51042e-05
0.000253989
0.00023962
-0.000301494
0.000273589
-0.000306321
3.27321e-05
-0.000180237
-5.49362e-05
0.000235173
0.000272133
-0.000272133
0.000148429
-0.000297473
0.000149045
-0.000210497
0.000214468
-7.41708e-06
-0.000268241
0.000237301
3.09401e-05
-0.000197712
0.000244702
-4.66656e-05
-9.16164e-05
-0.000217477
-0.000114656
-0.000252092
-0.000280169
0.000266113
1.40561e-05
0.000329011
1.19013e-05
-0.000250433
7.01963e-05
0.000117908
0.000145909
-0.000263817
1.34681e-05
-0.000267457
0.000253989
-0.000134569
0.000282997
-0.000155213
-5.21633e-05
0.000210959
-0.000274681
0.000245113
2.95681e-05
0.000237553
-0.000268437
3.08841e-05
-0.000193039
-2.3842e-05
0.000151665
0.000115565
-0.00026723
-0.000189903
-2.87137e-05
0.000216603
0.000263985
2.24281e-05
0.000275941
-2.35201e-06
0.000265329
-0.000250741
-1.45881e-05
0.000215565
-6.23789e-05
-0.000149358
-1.82001e-06
0.000239373
0.00036626
-0.000312452
-5.38861e-05
-2.7563e-05
0.000302216
-0.00027344
-0.000101584
0.000219493
0.000342419
2.41616e-05
-0.00037176
0.000354285
1.82549e-05
-0.000214675
2.27661e-05
0.000309396
-0.000322096
1.21952e-05
-0.000207473
0.00027118
-6.34766e-05
-4.45202e-06
1.71284e-05
-0.00031944
0.000302133
0.000234371
-0.000199829
-3.53413e-05
0.000269372
-0.000339348
7.00123e-05
0.000332699
-6.34245e-05
-0.000268941
0.000236573
3.23681e-05
-0.000129388
-0.000132609
0.000261997
-1.86761e-05
-0.000249565
-1.022e-05
-0.000258721
2.39434e-05
0.000202873
-0.000229385
3.00983e-05
-0.000204299
0.000176868
-2.51136e-05
0.000328844
-0.000303806
-0.000279329
0.000273701
5.62802e-06
0.000156129
-0.000296857
0.000140729
-5.95748e-05
-0.000153431
0.00019809
0.000143277
0.0001218
-0.000265077
-0.000250255
0.000225793
-0.000215977
0.000146675
-0.000168813
0.000327181
-0.000158369
0.000185389
7.16523e-05
-0.000257041
0.000255193
2.07481e-05
-0.000192277
0.000148317
4.94345e-05
0.000264486
0.000306893
-0.000289953
9.88699e-05
-0.000242113
0.000135241
0.000117096
-0.000281065
-1.57732e-06
0.00024742
-0.000248914
0.000166489
0.000122836
-0.000289325
0.000143532
8.99191e-05
-3.92002e-06
0.000259113
0.000303504
5.42817e-06
-0.000323963
0.000314926
8.99595e-06
-3.99002e-05
0.000236293
-0.000196393
4.08802e-06
-0.000284257
-2.43455e-05
0.000179278
-0.000149047
-0.000171833
0.000149509
0.000190034
-0.00016016
-0.000269921
0.000264965
4.95602e-06
2.64041e-05
0.000174721
-0.000201125
2.87841e-05
-0.000257265
0.000228481
0.000276137
-0.000262669
0.000115108
0.000212073
0.000209817
-0.00019019
-0.000175813
0.000202217
1.31736e-05
0.00028206
-0.000295094
0.000274101
2.16137e-05
0.000271384
-0.000283511
1.2416e-05
3.86402e-06
0.000267513
-1.81355e-05
0.000290101
0.000330851
1.00293e-05
0.000213763
-0.000257699
0.000316597
-0.000316116
-6.63603e-06
-0.000272693
2.70893e-05
0.000199562
0.000187993
3.98722e-05
-0.000227865
-5.66257e-05
0.00022473
-0.000175743
0.000153609
-0.000270285
0.000116676
0.000279441
-0.000329701
5.02602e-05
-6.38122e-05
0.000249201
-0.000166909
0.000315897
-0.000148989
-0.000314011
-1.00384e-05
-0.000214929
0.000175029
2.78601e-05
-0.000278349
0.000276221
-1.88441e-05
-0.000248613
1.72525e-05
-0.000302884
0.000285897
0.000344989
-0.000158593
-0.000186397
-1.69522e-05
-0.000240909
0.000257881
-0.000266617
-3.30401e-06
0.000224001
2.45841e-05
-0.000248585
0.000284509
-0.000128381
0.000140197
0.000138853
-0.000279049
-0.000201249
-1.10476e-05
0.000258169
-0.000115551
0.000225684
-0.000242517
-6.38122e-05
0.000251805
-0.000207329
0.000249481
-5.60002e-07
-0.000248921
0.000255109
-0.000237441
-0.000325535
0.000300438
-3.08841e-05
0.000203169
-0.000172285
0.000291891
1.23388e-06
-0.000293397
8.15616e-05
0.000138534
-0.000227228
4.8207e-05
-0.000201078
-0.000288364
-4.55457e-06
0.000293054
-1.58251e-06
-0.000287055
0.000146973
-0.000273925
0.000126952
-0.00025868
0.000221433
-0.000291669
0.000264427
0.000279441
-0.000312605
-1.23607e-05
0.000325411
0.000110548
0.000160788
-2.14665e-05
0.000351321
0.000140141
0.000139833
-0.000279973
0.000245029
-0.000250349
5.32002e-06
-0.000210953
0.000180069
0.000279133
-5.43202e-06
0.000350926
-3.28383e-05
-0.000299722
0.000302219
-2.49136e-06
0.000270985
-0.000270985
-0.00036423
0.000225712
0.000138556
-0.000211167
2.04018e-05
1.68628e-05
0.000275157
-0.000278461
3.30401e-06
-5.08475e-06
0.00016665
-0.000164363
-0.000197345
0.000254801
-5.74562e-05
-0.000203521
4.37896e-06
-0.000249611
0.000164157
8.567e-05
-0.000180264
0.000261404
-8.11415e-05
0.000256285
-0.000287113
3.08281e-05
-0.000249229
5.18842e-05
-2.3423e-05
0.000276161
-0.000252667
-0.000253547
1.35801e-06
0.000252189
0.000231281
-7.28003e-06
-0.000294283
7.56158e-06
0.000286738
-0.000266085
0.000266085
-0.000284273
-5.50446e-05
-0.000170535
-0.000193752
-0.000170657
0.000217848
-4.52025e-05
-1.232e-05
-0.000239177
0.000251497
3.10801e-06
0.000210113
-0.000213221
-0.000186141
-2.31313e-05
0.000209908
7.56937e-06
0.000294679
-0.000302254
-0.000236153
-1.34401e-05
0.000249593
1.50361e-05
-0.000251189
-0.000241025
0.000256061
-0.000301466
0.000309068
0.000256117
7.16803e-06
-0.000172541
-3.18482e-05
0.000203588
-0.000145237
-0.000134765
-0.000244329
0.000240549
0.00029872
-3.92218e-07
-0.000298354
-0.000298897
6.4997e-07
0.000298242
1.91737e-05
0.000181217
0.000163773
7.70043e-05
-0.000257269
-0.000159242
0.000310908
0.000250721
-0.000108677
-0.000235145
-1.83681e-05
0.000253513
-0.000204653
-0.00012682
0.000331467
-6.10402e-06
-0.000229125
0.000235229
-2.24455e-05
-0.000183351
-0.000285892
-8.53472e-05
6.33268e-06
-0.000300608
-0.000212524
0.000327473
-0.000114945
0.000281597
0.000288205
-5.16322e-05
0.000271993
-1.57081e-05
-0.000187722
-1.41058e-05
0.000202267
0.000297202
2.32181e-07
-0.000297618
-0.000268812
-3.26622e-05
-0.000218821
0.000247605
-2.52118e-05
0.000310279
-0.000285287
0.000180668
7.96678e-06
-0.000187563
-3.40243e-05
0.000215621
-0.000301152
0.000275653
0.000291262
5.90247e-06
-0.000297248
0.000157445
0.00011886
-0.000276305
0.000290452
4.85595e-06
-0.000295209
-0.000223659
0.000114501
0.000122749
-0.000281089
0.000294753
0.000302513
-0.000156857
-0.000145657
0.000207005
-0.000203897
-0.000232009
-0.000121156
-0.000155009
-4.08141e-06
-0.000294042
0.000298064
-1.0136e-05
0.000276249
0.000293504
-2.06878e-05
-0.000268912
-0.000263142
2.89674e-05
0.000233812
0.000271433
-0.000267569
0.000249621
2.95121e-05
0.000314712
-9.73317e-06
-0.000305112
5.02668e-05
0.000153078
-0.000209621
-8.98615e-05
0.000187155
-9.04947e-05
0.000252617
-2.91201e-05
-0.000223497
4.43677e-07
0.000291424
-0.000174356
-3.11678e-05
0.000205571
-1.65173e-06
0.000291937
-9.33244e-05
0.000246933
-0.000255417
-5.26402e-06
0.000121184
0.000181329
1.34121e-05
0.000241557
-0.000254969
0.000236097
1.34961e-05
-0.000249593
0.000249509
-0.000242929
0.000256425
6.29058e-05
-0.000200744
0.000137671
-0.00019738
0.000107115
-0.000205776
0.00029736
1.44144e-06
-0.000298743
0.000253849
2.22881e-05
0.000268493
-0.000216441
-5.20522e-05
0.000225518
-0.000246849
2.13305e-05
0.000257909
1.40841e-05
5.89925e-05
0.000296399
0.000267186
-3.89594e-05
-0.000228226
0.000173633
1.274e-05
0.000240297
-0.000253037
0.000194506
-0.000114366
-7.94037e-05
-0.000207064
2.16807e-05
-1.36223e-06
-0.000297397
0.000298831
0.000220279
-0.000171461
-5.36793e-05
0.000344367
-4.12222e-05
0.000275969
-0.000135829
2.31561e-05
0.000238337
-0.000261493
-0.000231141
0.000254297
-2.66865e-05
-0.000229735
0.000256454
0.000152288
-0.000160594
-6.91201e-05
-0.000155389
-0.000261723
4.14346e-05
0.000220288
-3.17521e-05
-0.00022997
6.98584e-06
0.000261717
-3.25193e-05
-0.000229198
1.67835e-05
0.000128809
-0.000192815
0.000308785
-0.000171397
0.000262319
-3.57923e-05
-0.000226526
-0.00031945
0.000164652
-0.000102998
-0.000228453
-6.90203e-05
-6.18601e-07
-0.000297961
0.000298887
-2.76846e-05
0.00018684
-0.000158591
0.000307856
6.84583e-06
0.000250097
-0.000248249
-1.84801e-06
-0.000175288
6.1663e-05
0.000260296
-3.07218e-05
-0.000229525
0.000197345
-0.000250769
5.34242e-05
0.000254206
-0.000231206
-2.29991e-05
-0.000252337
0.000240017
0.000144047
0.000101645
-0.000101864
-0.000170269
0.000132496
-0.000261885
-0.000290249
0.000242201
4.80482e-05
0.000216809
3.12476e-05
-0.000248056
-0.000238339
-9.3429e-06
0.000248376
0.000328153
-2.29881e-05
0.000263996
-3.42721e-05
-0.000229724
0.000153945
-0.000232557
9.86341e-05
3.63259e-05
-0.000265637
0.000229311
-0.000253905
0.000121297
0.000249817
-5.24722e-05
0.000294673
-0.000154253
-0.000140421
0.000122248
-0.000289157
1.53441e-05
0.000237665
-0.000253009
-0.000262031
3.54705e-05
0.00022656
-2.74278e-06
-3.77917e-05
-0.000224239
0.000248627
-0.00027223
-0.000264649
3.44737e-05
0.000230175
0.000193257
0.000101416
-0.000149941
0.000290137
-0.000166039
-3.8023e-05
0.000202586
-1.81721e-05
0.000263201
-0.000293264
0.000310694
0.000114792
0.00010207
0.000261325
-0.000261325
0.000306847
-1.88727e-05
-0.000289982
5.32002e-07
0.000248949
0.000254857
1.65761e-05
0.000309306
-0.000275819
-3.3166e-05
-2.26336e-05
0.000266577
-0.000243943
3.00077e-05
-0.000260519
0.000230511
-0.000252139
0.000229506
0.000328148
3.11501e-05
-0.000260598
0.000229447
0.000276809
-3.16961e-05
-6.13574e-06
-0.000296066
0.000301444
0.000271044
3.89913e-05
0.000230245
-0.000266617
3.63721e-05
0.000204443
-0.000206597
-0.000258301
0.000238533
1.97681e-05
0.000169762
-0.000257245
8.74835e-05
-0.000217966
0.000163241
-0.000249145
8.59043e-05
-0.000266169
0.000224813
4.13562e-05
0.000253073
-2.78797e-05
-0.000225194
0.000163789
4.22764e-05
-0.000234837
-2.29601e-05
0.000257797
-0.000236377
-2.28761e-05
0.000259253
-1.94265e-05
0.000255969
-0.000236542
-0.000259345
0.000239919
-3.81843e-05
0.000196944
-0.000235929
-2.24001e-05
0.000258329
-0.00025484
0.000229192
2.56481e-05
2.94001e-06
0.000211289
-0.000214229
-0.000267031
3.79849e-05
0.000229046
0.000270677
4.48002e-06
3.99147e-05
0.000144058
-0.000185498
-3.31199e-05
0.000249931
-2.09426e-05
0.000218597
9.73004e-05
0.000248194
-0.00021695
0.0002769
-0.000278673
0.000276588
-0.000281152
-1.84997e-05
0.000258601
-0.000240101
-0.000261644
0.000243145
2.97083e-05
-0.000200151
-2.9402e-05
-0.000211594
0.000250044
0.000314841
-0.000287365
-2.74098e-05
0.000261297
-3.11081e-05
-0.000230189
3.28739e-05
-0.000262362
0.000229488
-0.000229853
0.000259645
-2.97921e-05
0.000325728
-1.76408e-05
0.000143276
-0.000201697
0.000256929
-0.000109956
-0.000286514
0.000287514
0.000241977
-6.41202e-06
-0.000235565
0.000228537
-0.000186103
-3.63728e-05
0.000221656
2.77533e-05
-0.00021251
-0.000239989
0.000260317
-2.03281e-05
-0.000103918
0.000189874
-8.67077e-05
3.04445e-05
-0.000199993
0.000240169
-0.000263424
2.32552e-05
-0.000115584
0.000258861
-0.000243993
0.000265721
-2.17281e-05
-0.000238953
0.000232541
0.000258626
-0.000245105
-1.35213e-05
0.000264349
-2.46681e-05
-0.000246317
-0.000273033
-1.05902e-05
0.000293999
-5.38885e-05
-8.80928e-06
0.000290591
-0.000281794
-0.000150852
0.000188406
0.000226647
1.88752e-05
-0.000242364
0.000328523
-0.000328981
0.000260955
-0.000245018
-1.59377e-05
-0.000301274
-6.9736e-07
0.000305522
9.71037e-06
3.77212e-05
0.000172294
-0.000212205
0.000225486
-3.63794e-05
-0.000176789
0.000278054
-0.000255789
-2.22648e-05
-0.00020728
3.07897e-05
3.15421e-05
-0.000261891
0.000230348
0.000284543
-0.000291398
2.44721e-05
-0.000259617
-0.000257965
1.87881e-05
0.000266057
-1.64361e-05
0.000151173
-0.000267625
0.000116452
0.000299031
-4.42238e-06
0.000238617
-7.53763e-05
2.12521e-05
0.000177045
-0.000198297
-0.000183877
0.000205129
-0.000236275
0.000257219
-2.09441e-05
0.000261462
-3.31689e-05
-0.000228293
-0.000197009
-5.21362e-05
0.000251581
-1.48401e-06
8.79066e-06
-0.00026394
0.000255502
-0.000343634
0.000236929
0.000106742
0.000266371
-0.000236811
-2.95597e-05
0.000306902
-0.000314776
7.86366e-06
-2.57041e-05
-0.000229097
0.000254801
0.000261493
-7.64403e-06
1.01567e-05
-0.000210181
0.000262411
-3.19033e-05
-0.000230508
-6.90483e-05
-0.000260653
-0.000194685
0.000248025
-5.33402e-05
-0.000266533
0.000249985
1.65481e-05
-0.00031808
1.66552e-05
-1.68537e-05
0.000296282
-0.000279192
-0.000276221
1.65481e-05
0.000249537
-0.000169059
6.51304e-05
0.000273789
1.48142e-05
-0.000288561
-0.000316106
0.000307807
8.22728e-06
3.46641e-05
-0.000263649
0.000228985
-1.75057e-05
0.00028138
-0.000315269
1.64026e-05
-0.000176541
-7.42283e-05
-0.000240805
0.000217602
-2.16721e-05
-0.000216469
0.000238141
-0.000315136
0.000296211
1.89026e-05
-0.000133416
0.000280551
-0.000142466
-8.40175e-06
3.31521e-05
-0.000263453
0.000230301
-0.000203533
2.44915e-05
0.000177907
0.000221536
0.000279869
-0.00028028
2.68094e-07
-0.000236993
-2.20921e-05
0.000224813
-0.000202721
0.000139273
0.000143753
-0.000278517
0.000199663
-5.66018e-05
0.000307916
-1.07066e-05
0.000209655
-0.000269138
2.92853e-05
0.00022306
-0.000252345
-0.000322604
0.000138477
0.00029679
2.92417e-05
1.94158e-05
-0.000224355
-2.77845e-05
-0.000135812
-0.00013318
-0.000326264
0.000113937
0.000242873
2.56201e-05
0.000218765
-0.000224869
1.07759e-05
-0.000288365
0.000277308
-0.000243112
0.000269743
-2.73406e-05
0.00028147
-0.000281876
0.000280125
-7.60145e-05
-8.83442e-06
0.000290254
-1.87881e-05
0.000247101
-0.000228313
0.000281418
-0.0002903
-5.66624e-06
-0.000284004
0.000289516
0.000282023
-0.000269606
0.000284443
0.000226314
2.67597e-05
-0.000306291
0.000314943
-8.10349e-06
0.000252773
-2.15485e-05
0.000230906
2.44951e-05
-0.000268913
0.000246057
-2.05381e-05
-0.000259401
3.02849e-05
0.000229116
0.000178305
7.64963e-05
1.06233e-05
0.000281964
-0.000291253
-0.000238141
-2.88401e-05
0.000266981
2.51441e-05
-0.000263285
0.000284117
-0.000162317
-0.000232177
0.000261129
-2.89521e-05
-0.000234697
0.000260709
-2.60121e-05
1.39635e-06
0.000278506
2.45001e-05
-0.000259197
2.38001e-05
-0.000255977
0.000274198
-0.000242943
-3.13639e-05
0.000317816
-1.00138e-05
-0.000308011
-2.02277e-06
-0.000255753
1.1816e-05
0.000243937
-1.6212e-05
-0.000261185
0.000228065
-0.000245337
0.000270145
-2.48081e-05
-0.000263229
1.49801e-05
-2.36019e-05
0.000285955
-0.000262423
2.13641e-05
-0.000266701
-0.000241665
-2.13806e-05
3.27583e-05
-9.0432e-05
0.000260194
0.000281027
-0.000286792
5.05122e-05
0.000237693
0.000282611
-0.000282515
-0.000243181
-2.39401e-05
0.000267121
-0.000260894
7.34723e-06
-0.000295906
1.95896e-05
0.000276139
-0.000268717
2.55361e-05
-8.67367e-06
0.000291229
-0.000268326
0.000243549
2.47774e-05
-0.000232513
0.000210841
0.000280607
-0.000288899
-6.16002e-07
0.000260289
-0.000259673
-0.000301911
-1.6124e-05
-0.000264573
2.35481e-05
-0.00024417
-2.41555e-05
-3.43281e-05
-0.000297997
0.000293897
0.000286674
-0.000158327
0.000295936
-0.000291215
2.30152e-05
4.90144e-06
0.000261896
-0.000254806
-7.14657e-06
0.00030755
-2.02288e-05
-0.000287338
5.9467e-05
-0.000246765
-2.19521e-05
-0.000356245
0.000242078
0.000283453
-0.000277806
2.33801e-05
-0.000187656
-1.58655e-05
-0.000306513
2.54925e-05
0.000280181
-0.000197625
0.000313026
-0.000113917
0.000259841
-0.000238533
-2.13081e-05
-0.000291741
2.94001e-05
0.000222097
-0.000251497
-0.000171844
0.000143006
-0.000170767
0.000251441
-0.000238029
-1.34121e-05
-0.000263873
3.40201e-05
-2.23161e-05
-0.000269837
0.000251469
0.000230427
3.12901e-05
-4.60984e-05
0.000193848
0.000232619
-0.000260499
-1.74178e-05
-3.2647e-06
0.000246332
-0.0002432
-0.000293319
-0.000237049
0.000265189
-2.81401e-05
0.000230096
3.22225e-05
-0.000268521
2.55921e-05
-0.000239905
-2.86161e-05
0.000228954
-0.000260706
-0.000282592
4.73202e-05
-0.000242005
0.000294649
-0.000283891
-0.000287994
1.30222e-05
0.000275084
-3.21781e-06
0.000233476
0.000228551
-0.00026107
0.000296885
-0.0001309
-0.000165985
0.00024188
-0.000262049
0.000269232
-0.000226213
-1.76681e-05
-0.000162366
0.000303872
-0.000141807
2.49649e-05
0.000222662
-0.000247627
-0.000194667
0.000194931
-0.000283866
0.000282613
7.11544e-06
-0.000290947
-0.000302485
0.000146693
0.000155793
0.000259995
-0.000239359
-2.06361e-05
-0.000215741
0.000193649
0.000261675
3.47788e-07
0.000257293
0.000232525
2.168e-05
-0.000295084
-6.11152e-05
1.04343e-05
0.000230217
-0.000253324
1.75357e-05
-0.000230917
-2.37161e-05
0.000254633
-0.000242295
0.000263191
-2.08965e-05
8.17267e-05
0.000132376
2.03185e-05
-0.000306955
0.000285903
0.000256565
-1.80041e-05
-0.000238561
0.000243881
-0.000254017
1.0136e-05
-0.000226745
0.000207957
0.000223131
-0.000258923
-0.000244693
4.76842e-05
1.59261e-05
-0.000137481
-0.000218232
1.57921e-05
0.000245701
0.000281402
0.0002932
0.000305735
1.71757e-06
0.000249817
-0.000220417
2.51749e-05
0.000225009
-0.000250184
-0.000243178
0.000268865
-2.56873e-05
2.28201e-05
-0.000262725
-0.000116658
0.000296824
9.12953e-06
2.08181e-05
0.000261675
-0.000235103
-2.65721e-05
1.32577e-05
-0.000304131
0.000290535
0.000320999
-3.08652e-05
-0.000290775
0.000249733
1.63241e-05
0.000305883
-0.00029298
-0.000230891
-0.000112603
9.63204e-06
0.000250657
-4.9129e-05
-0.00020239
0.000251519
2.20333e-05
0.000246832
-0.000241686
-2.29629e-05
0.000260737
-2.24001e-05
0.000287929
-0.000268023
2.63369e-05
2.68241e-05
-0.000257965
0.000210617
-0.000207677
2.58161e-05
-0.000262865
0.00028162
0.000121744
-0.000256173
0.000134429
1.78902e-05
3.83566e-05
0.000157805
-0.000196979
-0.000239485
-2.85377e-05
4.01327e-05
0.000167543
-0.000208625
-0.000246691
0.000271066
-2.43747e-05
0.000209866
-0.000248826
1.98857e-05
1.73029e-05
-0.00017508
-3.0901e-05
0.000226705
-0.00025741
-2.88401e-05
0.000244245
-0.000215405
-2.16161e-05
0.000242985
-0.000221369
0.000201657
-0.000250786
-0.000273681
-0.000232905
-2.55081e-05
0.000258413
0.000241234
2.98318e-05
-0.000213903
-2.39695e-05
0.000232246
-2.18821e-05
-0.000224967
-0.000239345
6.28042e-05
0.000259004
-0.000229718
4.75106e-05
-0.000249901
-3.43393e-05
0.000257694
-0.000223354
0.000205675
-0.000240014
0.000261689
-1.1956e-05
-6.06763e-05
-0.000229572
-0.000222513
-1.69017e-05
0.000242392
0.000247109
5.3175e-05
0.000212448
-0.000265623
-0.000261101
0.000177353
-0.000231757
5.44042e-05
6.4121e-05
0.000135755
0.000259457
-0.000240915
-2.47224e-05
-0.000265385
0.000227165
3.82201e-05
-2.87813e-05
-0.000222158
0.00025094
-0.000285006
0.000264161
0.000234501
3.61761e-05
2.18821e-05
0.000234087
-0.000307217
0.000151089
0.000156129
0.000166155
-5.18267e-05
0.000254045
-0.000115192
2.56901e-05
0.000217446
-0.000243136
-0.000286956
0.000287541
9.30571e-06
0.000257377
-0.000245953
0.000208937
3.70161e-05
0.000254832
0.000250614
-1.88629e-05
-0.000246815
-2.02161e-05
-0.000263019
2.0724e-05
-0.000269215
2.24001e-05
2.79601e-05
0.000220024
-0.000247984
0.000242481
-0.000274597
1.32721e-05
0.00024226
-1.49762e-05
1.26918e-05
-0.000248745
-0.000328784
0.000124081
-0.000233135
-2.62109e-05
-0.000252113
0.000252113
0.000259782
-0.000144217
-1.8793e-05
-0.00027836
0.000297226
0.000266577
0.000258749
-0.000135913
0.000224113
2.39205e-05
0.00023468
7.84201e-05
-0.000342345
3.77455e-05
0.000258962
1.76363e-05
-0.000248843
-3.00917e-05
0.000207453
-3.01001e-05
0.000259701
2.95429e-05
0.000218353
-0.000247896
-3.05014e-05
-4.09782e-05
-0.000217818
0.000258797
-0.000233423
-2.14173e-05
3.70078e-05
-0.000194379
0.000155098
-3.30877e-05
0.000221671
-0.000255943
-0.000282049
-8.36588e-06
0.000290536
-0.000196125
0.000163231
0.000166349
8.16763e-05
1.29556e-05
-0.000294601
0.000235075
2.59446e-05
-0.000261019
-0.000200173
-1.13635e-06
0.000232743
-0.000264287
3.15449e-05
-8.42803e-06
-0.000217029
0.000225457
-0.000160059
0.000194008
-0.000249985
-3.46025e-05
0.000256274
0.000218076
-0.000252679
-0.000246289
0.000272245
-2.59561e-05
0.000253547
2.78321e-05
-0.000232062
-2.95821e-05
-0.000297703
0.000315989
-1.80216e-05
2.32398e-05
0.000212462
-0.000250254
-0.000267233
2.09441e-05
-2.12801e-05
-0.000245953
-3.61481e-05
0.00024861
-0.00029033
-1.39454e-05
0.00022082
-0.000256968
0.000248094
-0.000250686
1.54134e-06
2.80002e-06
0.000181413
-0.000184213
0.000255294
0.000234529
2.67681e-05
-2.62361e-05
0.000245001
-0.000218765
3.36001e-05
0.000216609
-0.000250209
0.000244861
2.73841e-05
0.000306545
-0.000143949
-0.000162597
1.60508e-05
0.000236974
-0.000254357
0.000271013
-0.000113568
0.000225569
-0.000256677
-0.000241505
0.00010507
-0.000265469
7.16803e-06
-0.000241635
-2.75801e-05
-0.000241361
-2.48081e-05
0.000310903
-2.7064e-05
-7.67483e-05
0.000243097
-1.1452e-05
-0.000215601
0.000224281
-8.68003e-06
0.000255193
-7.68883e-05
3.39092e-05
-0.000193103
0.000158549
-0.000265245
-1.40001e-07
-4.14962e-05
3.90367e-05
0.000153477
-0.000193422
0.000193304
-0.000160219
0.000257041
-7.05603e-06
0.000251151
-0.000218277
-1.82549e-05
-2.1128e-05
0.000269459
-9.56894e-05
-0.000178507
-1.42801e-05
-0.000191913
0.000206193
0.000258665
-1.53553e-05
-0.00024331
1.98101e-05
0.000238855
-0.000279908
-8.16537e-06
3.82079e-05
-0.000202612
0.000162832
1.36921e-05
0.000247997
-0.000166612
0.000203414
-1.95189e-05
0.000248711
3.17641e-05
0.000193337
-0.000226461
-4.17202e-06
-2.49389e-05
0.000265108
-0.000231955
-3.14693e-05
0.000297326
-0.000281881
-1.52589e-05
1.63717e-05
-0.000237659
0.000221288
-0.00010514
0.000226885
1.92865e-05
-0.000305414
0.000286011
2.52001e-05
-2.79441e-05
2.69165e-05
0.000309099
-0.00028987
0.000238891
1.97345e-05
2.15601e-06
0.000231617
-0.000233773
-0.00031039
2.55367e-05
0.00028455
-0.000162177
-0.000144145
0.000209178
-0.000250156
-0.000166941
0.000241924
1.90317e-05
0.000257558
-4.13534e-05
0.000250531
0.000214498
-0.000255851
0.000318343
-0.000319159
-1.05252e-05
0.000287139
-0.000276584
-0.00030305
1.96606e-05
0.000283752
4.20842e-05
-0.000286413
-3.87088e-05
0.000252483
2.62921e-05
-2.21155e-05
0.000307766
-0.000285103
2.43321e-05
3.97346e-05
0.000162321
-0.000195955
0.000249294
-0.000219751
2.83277e-05
-0.000261633
4.36802e-06
-2.00593e-05
0.000306546
-0.000286525
-0.000250987
-0.000266673
3.07441e-05
0.000252141
-0.000236741
-1.54001e-05
1.2264e-05
0.000239877
-0.00027549
-1.29275e-05
0.000255697
-6.87685e-06
0.000313381
-1.19686e-05
0.000298932
-0.000286633
-4.51938e-05
0.000247437
-0.000235621
0.000257601
-1.99361e-05
0.000139468
9.4321e-05
-0.000230322
0.000239401
3.03493e-05
0.000226759
-0.000258662
3.71393e-05
0.000272207
-0.000288504
1.68112e-05
0.000251273
-0.000239093
-1.31321e-05
0.000252225
-2.91201e-05
-0.000257265
2.56481e-05
0.000231617
-0.000228005
-2.92601e-05
0.000259765
-0.000233571
-2.61941e-05
0.000258721
-0.000267922
2.51499e-06
0.000289075
1.27309e-06
-0.000290525
0.000245314
-0.000233195
-1.85921e-05
0.000308227
-0.000300086
-8.19793e-06
0.000258896
-0.000102043
-0.000266897
2.56761e-05
0.000241221
-3.48881e-05
-0.000232009
-0.000266393
2.51161e-05
0.000241277
-1.21882e-05
-0.000266715
0.000280155
-3.45241e-05
-0.000231869
-0.000262404
1.82576e-05
-0.000266281
2.43881e-05
0.000241893
-0.000284839
-2.19532e-05
-0.000305814
2.75397e-05
0.000278446
-3.34041e-05
-0.000232877
-0.000171565
-0.000258133
2.94001e-05
0.000228733
0.000308523
-0.000308486
-0.000195805
0.000209049
-3.29281e-05
-0.000225205
0.000197577
-0.000279312
8.16398e-05
0.000283673
2.22967e-05
-0.000301953
1.76961e-05
0.000286464
-0.000281285
-4.88642e-06
-0.000257125
0.000231617
2.55081e-05
0.000158622
2.79045e-05
-0.000206138
-0.000266953
2.81681e-05
0.000238785
-0.000227361
-2.97641e-05
-3.67361e-05
-0.000230217
0.00027639
0.00029735
1.90949e-05
-0.000276509
-3.17741e-05
0.000308847
-0.000258679
-1.08564e-05
0.000298001
-0.000287643
1.49445e-05
-0.000301636
0.000286772
-0.000230609
-0.000307188
0.000287145
0.000263005
-2.54505e-05
-0.000280402
1.36081e-05
0.00016216
0.000233454
1.8631e-05
-0.000251465
-0.000193924
0.000155545
0.000236738
1.31517e-05
-0.00024989
-0.00025833
2.66093e-05
0.000231721
-1.09228e-05
0.000247661
5.74002e-06
0.000246877
-3.19817e-05
-0.000226348
0.000299523
-0.000285824
-1.38458e-05
0.000228024
-0.000226666
0.000289639
0.000237685
1.98521e-05
-0.000257537
-1.24236e-05
0.000250108
0.000246636
1.50389e-05
-0.000305716
1.54987e-05
0.00024448
2.18905e-05
3.33516e-05
-0.000204985
-0.000287652
-1.77549e-05
-0.000182869
0.000295177
-0.000148994
0.000185896
-3.28101e-05
3.0911e-05
-0.000205941
0.000175396
-0.000170561
0.000259149
-0.000239236
-1.99137e-05
0.000262265
-0.000273651
-0.00024198
0.000233139
-2.17607e-05
0.000300739
-0.000278891
0.000308067
-0.00029295
0.000242117
1.77241e-05
-0.000224975
0.00024443
-1.94545e-05
1.61001e-05
-0.000241075
-7.00003e-06
0.000260989
-0.000297129
4.84025e-06
0.000292292
-0.000174497
0.000160217
-1.74105e-05
-6.2468e-06
-0.000290921
-1.67265e-05
-0.000284924
4.28402e-06
-0.000299887
0.00013428
-0.000257478
2.36948e-05
0.000233801
0.000238197
1.32441e-05
-3.08131e-05
-0.00022666
-3.31304e-05
-0.000292043
2.11816e-05
-0.000222214
0.000205861
0.000254969
-0.000233465
-2.15041e-05
-0.000189244
0.00021428
-0.000186496
-7.34517e-06
0.000204786
0.000133429
0.000137672
3.97821e-06
0.000270614
0.000279614
-0.000305189
2.86672e-06
0.000243452
-1.99089e-05
0.000298604
-0.000279105
-0.000302205
0.000287409
1.47876e-05
-0.000258301
0.000230077
2.82241e-05
-2.64041e-05
-0.000231897
0.00030134
-0.000300885
0.000267765
-2.01311e-05
0.000305636
-0.000285166
0.000286774
-5.23862e-07
-0.000256873
0.000256873
-0.000267927
0.000295706
-0.000147245
-6.72856e-05
-7.0461e-06
0.000294247
-0.000286669
-0.000297973
0.000291003
0.000291761
-0.000278801
0.000291543
-0.000306499
1.46812e-05
3.443e-05
-0.000237784
0.000210918
2.32411e-05
-1.45332e-05
-0.00024661
0.000231498
-1.4507e-05
0.000298232
-0.000284357
0.000263481
-1.96001e-05
0.000254224
-0.000235464
-1.87601e-05
-3.08898e-05
-0.00027341
0.00030453
1.43478e-05
-0.000296928
0.000282836
-1.45881e-05
0.000233465
-0.000218877
0.000206998
-0.00029531
0.000283602
-1.91739e-05
0.000304485
-0.000285497
0.00025102
-2.68322e-05
0.000297567
-0.000270729
-0.000296102
0.000269228
1.07156e-05
0.000244749
-0.000255465
0.000305204
-0.000312006
6.79692e-06
1.80752e-05
1.47227e-05
0.00028615
-0.000301137
6.28846e-06
0.000282705
2.36303e-06
-0.000318381
-0.000289597
0.000304588
-0.000242481
0.000243657
8.45603e-06
-0.0002264
0.000242772
-0.000293571
0.00027414
0.000285485
-0.000135903
-7.81997e-05
0.000294483
1.44562e-05
3.16106e-05
-0.000192927
0.00016096
-0.000274783
0.000257293
-0.000219535
0.00024982
0.000243411
1.92865e-05
-0.000262697
0.000236019
2.31309e-05
-0.000301348
0.000283218
0.000312233
-1.79966e-05
0.000237945
-0.000257069
1.91241e-05
-0.000222494
0.000247459
0.000294097
1.80621e-05
-0.000164105
-1.44988e-05
0.000298486
-0.000283939
-0.000142205
-0.000266415
0.000159993
0.000106423
-0.000309328
0.000295662
1.37372e-05
-0.000258699
0.000241826
1.68729e-05
-0.000137824
0.000140262
-0.000306445
0.000288703
1.78815e-05
-0.000222466
0.000182856
-9.69084e-06
0.000253101
2.04764e-05
1.7566e-05
-0.000304486
0.000286917
-0.000301601
-7.01432e-06
0.000308495
-0.000249229
0.000220109
-0.000201153
-8.52603e-05
-0.000273171
0.000252299
0.000303963
-0.000286478
-0.000194534
1.85405e-05
1.50389e-05
0.000284527
-0.000299476
-8.80603e-05
0.000239233
-0.000303276
1.94062e-05
0.000283634
-0.000202852
-2.85102e-06
-0.000298615
-0.000167565
2.05297e-05
0.000302148
-0.000287455
-1.45683e-05
-0.00017576
-0.000298781
-0.000176542
-2.30334e-05
0.000243528
0.000289383
1.71923e-05
0.000252869
5.77309e-05
-0.00028555
-0.000247213
-0.000270896
-2.31164e-05
-0.000274403
0.000299471
-0.000263597
0.000283035
-0.000171018
-4.24652e-05
0.000216191
0.000197569
1.56521e-05
-0.000213221
-1.25642e-05
-0.000285907
0.000298535
1.83597e-05
1.86294e-05
-0.000305663
0.000286704
0.000253345
-1.71361e-05
-0.000236209
1.89469e-05
-0.000304907
0.000285957
2.03561e-05
0.000232989
0.000216385
-2.46121e-05
-0.000191773
1.58045e-05
0.000281984
-0.000297782
-0.000245191
0.000117189
-0.000303693
1.86044e-05
0.000285068
0.000198931
-4.72629e-05
-0.000300387
1.45852e-05
0.000283199
0.000255837
-2.19801e-05
-0.000233857
-0.000301535
0.000106193
0.000234529
1.70521e-05
-0.000251581
0.000280681
1.67407e-05
0.000304207
-0.000285187
1.77875e-05
-0.000299566
0.000233512
1.84916e-05
-0.000252004
-1.89612e-05
-1.42283e-05
0.000298834
-0.000284621
-0.000280411
0.000300349
-0.000277397
0.0002918
-0.000303494
1.11787e-05
0.000249741
-1.62291e-05
1.18089e-05
0.000250041
-1.55121e-05
0.000298214
-0.000282575
3.95922e-05