/*--------------------------------*- C++ -*----------------------------------*\
  =========                 |
  \\      /  F ield         | OpenFOAM: The Open Source CFD Toolbox
   \\    /   O peration     | Website:  https://openfoam.org
    \\  /    A nd           | Version:  12
     \\/     M anipulation  |
\*---------------------------------------------------------------------------*/
FoamFile
{
    format      ascii;
    class       volScalarField;
    location    "5.83";
    object      T;
}
// * * * * * * * * * * * * * * * * * * * * * * * * * * * * * * * * * * * * * //

dimensions      [0 0 0 1 0 0 0];

internalField   nonuniform List<scalar> 
22702
(
1
1
0.966797
1
1.0166
1
1.12004
1
1
0.891568
1.12052
1.12088
1
1.11872
0.972478
1
1
1
1.12046
1
1.11858
1
1.11931
0.894281
1.11808
0.886078
1
1.1195
0.892287
0.898325
1
1.12124
1
1
1
1.11058
1.11834
1.11944
1
1
0.891225
1
1.06263
1
1.11965
1
1
1
1
0.902321
1
0.895794
1
1.1205
1
1.1214
1
1
1
1
0.87264
1
1
0.895848
1
0.894398
1
1
1
0.891172
1
1.11854
1.07575
1
1.11858
1.12478
0.895352
1.12066
0.901648
1
1.12065
0.898153
1.11892
1.11863
1
1
1
1
0.984772
0.891362
1.12103
1
1
0.894304
1
1.11861
0.895382
1
1
1
1
1.0625
1.1207
0.883418
1
1
1.03277
1
0.898798
1
1.12124
1.12072
1
1
0.876718
0.876846
0.890648
1
1
1
1
1
0.979188
1
1.1026
1.01091
1.12035
1
1.12041
1.1207
1.11844
1.12096
1
0.884538
1
0.889972
1
1
1
1
1.1208
1
1
1
1
1.11947
1
1.00759
1
1
1
1
0.901915
1
1.00299
1
0.901525
1
1
1
1.12066
1
1.11849
0.882307
0.878285
1.11842
1.1185
1
1.02153
1.07185
1
1.11932
0.901548
1.1108
1
1
1
1
1.11874
1.09945
1
1.12068
0.900572
1.1203
1
0.900771
1
0.897736
0.887833
0.99994
1
1
1.1196
1
1
1.11866
1
1.11956
1.1207
0.896202
1
1
0.893396
1.11857
1
1
1
1.11856
1
0.892325
1
1
1.11847
1.11855
1.12057
1
1.00001
1
1
1
1.11851
1
0.900243
1.12284
1.11855
1.11851
1
1
1
0.891516
1.11865
1.05747
1
1.11888
0.893669
0.893934
1.11891
1.1189
1
1.11858
0.893327
1.10613
1
1
1
1
1.11864
1
1.07206
1.01257
1
1
1.11858
0.893417
0.933352
1
1.11879
0.890487
1.11796
1
1
1
1
1
1
1
0.896678
0.933085
0.89196
1.11856
1
1
1
1
1.10954
1
0.895636
1
0.888235
0.895104
1.11856
0.89318
1.11859
1
1
1
0.999338
0.898443
0.893968
1
1
0.885792
1
1.12065
0.889643
1
1
1.12066
0.887778
1
1.11796
0.877994
1.11859
1
0.892615
0.999362
1
1
1
0.894449
1
1
1
1
1.00485
1.07588
1
0.891081
1
1
1
1
1
1
1
1.12078
1
1.12034
1
1
1
0.890946
1
1.11928
0.892936
1
1.09512
1
1
1.12114
1
1
1
1.11869
1
1
1.11644
1.12098
1
1.0291
1
1
0.890054
1
1
1
0.892513
1
1
1
1
0.881388
1
1
1
1
1
0.894105
1.00002
1.11849
1
0.999998
1.11845
1.11849
1
1
0.898527
0.941938
1.12086
1
1
1
1.11858
0.891621
1
1.11856
1
1
0.907901
0.905422
1
0.899298
0.889955
1
1
1
1
1
1
1
1.12017
1.03227
1.11208
0.897981
0.974254
1.12066
1
1.11884
1.12068
0.887892
0.93118
1
0.890384
1
1.12488
1
1
1
1
1.11861
1
1
1
1
1
1
1
1.04633
1.12028
1
1.11859
1
1
0.897855
1
1
1
1
1.11852
1.09227
1
1
0.898125
1.1184
1.11848
1
1.11847
1.11856
1.11859
1
0.947195
1
1.11855
0.994121
1.11857
1
0.889533
0.999691
1.12034
1
1
1
1
0.8977
1.11857
1.10872
1
1.11879
1.11855
1.12071
1
1.0589
1.1183
1
1
1.08567
1.01917
1.11841
0.982173
1.11848
1
1.11846
1.11858
1.11849
1.11828
1
1.11169
0.975345
0.968665
1
1
1
1
1.12044
1
1
1
1
1
1.12105
1
1
0.998926
1.11847
1.10701
1
1.10124
1.00001
1
1
1.11831
1
0.998902
1.00125
1
1.11863
1
1.1187
1
1
1.09051
1
1.11872
1.00001
1
1.11833
1
1.11852
1
1
1
1.11866
1
1.11936
1
1.11862
1.12152
1.11856
1.11912
1
1.12089
1.12021
1
0.901653
1.11183
1.08732
1
1.11865
1
0.891885
0.874922
1
1
1
1
1
0.897778
1
1.11857
1.03513
1.11834
1
1
1
1
1
1.11854
1
1.11984
1.07298
0.929131
1
1
1.03621
1.03138
1
1
1.04625
1
0.899277
1.11854
1.11859
1
1
1
1.12208
1
1.00001
1.11887
1.11867
0.987564
1
1
0.899058
1.10865
1
1
1
1
1
1.11851
1.12093
1
1.11849
1.11908
1.11858
1
1
1
1
0.891592
1.12056
1
1
1.10871
1.11837
1
1.11191
1.12027
1
1
1
1
1
1.11861
1
1
1
1
1.12039
1
1.11738
0.888615
1
0.888535
1
1
1
0.999019
0.898006
0.999727
1
1
1
1.01816
1
1
0.962854
1
1
1
1
1
1
1
0.999999
0.980161
1
1
0.999297
1
0.895806
1
1
1
1
1.09095
1
1
1
1
0.896571
1
1
1.11225
1.12008
1
1
1
0.96873
1
1
1
1
1
1
0.987574
1.00413
1.11869
1
1
1
1.11904
0.975455
1
1
1
1.1197
1.11849
1
1
1
1
1
1
1
1
1
0.891008
1
1
1.12017
0.891315
1
1.11952
1
0.901198
1
1
0.889749
1
1
1
1
1
1
1
1.11656
1.11843
1
1
1
1
1.109
1
1.04114
0.899756
1
1
1
1
1
1
1
1.01168
1
1
1.06564
1
1
1
1.09975
1
1
1
1
0.889914
1
1
0.886691
0.890205
1
1
1.11856
1
1.00628
1
1
1
1.08602
0.886378
1
0.884667
1
0.933746
1
1
1
1.11858
1
1
1.1184
1
1
1
1.11839
1
1
1.11867
1
1
0.888205
1
1.04141
1
1
1.12083
1.12061
1.08274
1.10747
1
0.889352
1
1
1.11372
1
0.890326
1
1
1
1.11878
1
1
1
1
1.07375
1
1.11468
1.11889
0.893427
1
1
0.880648
0.881722
1
1
1
1.08732
1.09191
1
1
1
1
1
1
1
1.05341
1.11956
1.00387
1
1.11725
0.881243
1
1
1
1.06872
1
1.02612
1
1.10894
1.11812
1
0.889976
1
1.12092
1
1
1.11876
1.11169
1
1.12184
1
0.892948
1
1
1
1.12023
1.11651
1.10564
1
1.11951
1.1186
1
1.1189
1
1.118
1
0.890272
0.995386
0.890092
1
1
1
1
1
1.1184
1
1.11856
1
1
1
1.11304
1
0.895387
1.11851
1
0.90021
0.892616
0.88712
1
1.06294
1.01127
1.11887
1.11858
1
1
1
1
1.11859
1
1
1.11855
1.11859
1
1.04402
0.999896
1
0.999083
1.12064
0.956411
1
0.947389
0.899719
0.899108
0.988045
1.11898
1.11693
1.02664
1.11868
1.11855
1
1
1.12088
1.12006
1.11858
1.12076
1
1.11862
0.897421
1.11961
1.11828
1.11957
1.1184
0.961325
0.971252
0.979094
1.11869
0.989762
1.11827
1
1
1.1189
1.1188
1
0.890533
1.11833
1.11849
1
1.11866
1.11854
1
1.11856
0.898086
1.11852
1.1205
1.12101
1.11779
1
1
1
1.11851
1.08015
0.900393
1.11838
0.88695
1.11848
1
1
1
1
1.11905
1.11844
1
1
1.11845
0.888049
1.11855
0.896272
1
1.11777
1
0.891572
1.11881
0.918394
1
1.11853
1.11894
1.11855
1
1
1.05934
1.11885
0.898268
1.11846
1
1.11858
0.964488
1.11858
0.889594
1
1.11884
0.898264
1.11889
0.896301
1
1.1188
1
1.11975
1
1.07238
1.11462
1.09525
0.888879
1
1.11866
1
1.11846
1
1.1187
1
1
1.1185
0.992057
1.11934
0.892605
1.10654
1
1.08729
1
1.11859
1.11859
1.11848
1
1.10789
1.1185
1.11066
1.07494
1.11918
1
1.08241
1
1.11865
1
1.01798
1
1.11027
1
1.11849
1.11354
1.11338
1
1.11636
0.881114
1
0.889076
1
1
1
1.12178
1
1.11885
1
1
1
1.11874
1.11623
1.09946
1.11907
1.11855
0.887808
1.1195
1.11995
1
1.10246
1.11849
1.11713
1
1.11968
1.12151
1
1.12126
1.11857
1.11846
1.11897
1
1
1
1.11849
0.885562
1
1.1187
1
1
0.873039
1
1
1.11841
1.11861
1
1.11855
1.11909
1.11884
0.995231
1.11858
1
1.11858
1.11846
1.09674
1
1
1
1.11914
1.11868
1.11853
0.985616
1
1.11932
1.11867
1.11878
1
1.11864
1.11859
1.1185
1.11924
1
1.1186
1.11873
1.10385
1.11881
1.11879
1
1.12082
1.11737
1.11852
1.11918
1.11876
0.886614
1.11879
1.11902
1
1.11868
1.11849
1.11848
1.1185
1
1.11875
1.11864
1
1.11863
1.10171
1
1
1
1.11929
1.11839
1
1
1.06824
1
1.11844
1
1
1.11852
1.11893
1.11855
1.11855
1
1
1
1.08677
1
1.11846
1
1
1.12087
1.12066
1
1.11856
0.878787
1.11856
1.11822
0.915604
1
0.885813
1.10488
1.11881
1.11822
1.11828
0.891445
1.11871
1.11903
0.890367
0.885742
1
1.11853
1.11849
1
1
1.11867
1
1.11939
1
1.10505
1
1.059
1.11854
1.11894
1.08757
1.10826
1.1211
1.11903
1.11312
1
0.879683
1.11845
1.11873
1.12038
1
1
1
1.12022
1
1.11879
1.11831
0.924039
1
1.11844
0.999983
1
1.00001
1.00001
1.11867
1.11901
0.99956
1
1
1.11847
1.11893
1.11856
1.11879
1.11889
0.898013
1.1062
1
1.1178
1.11856
1.11851
1.11747
1
1.11853
1.11552
1.11911
1
1.11863
1.11922
0.958972
1.11847
1.11877
1
1.11876
0.954037
1.11875
0.957798
1.11857
1
1.11855
1.12375
1.1186
1.1187
1.11855
1.11854
1.11894
1.11965
1
0.979864
1.11872
1.11848
0.957176
1.11849
0.99517
1.0791
1.11865
1.11842
1.11947
1
1.1192
1.07964
1.11913
0.977778
1.11932
1.12153
1
0.964946
1
1.11798
1
1.0843
1
1.11242
0.965473
1
1.11931
1.11846
1
1.11888
1.11891
1.12052
1.11971
1.11997
1
1.11997
1
1
1
0.971284
1.11844
1.11824
1.11888
1.1185
1.11822
1.11901
1.11827
1.11875
0.969536
1.0089
1
1
1.12418
1.11875
1.1186
1.11858
1.00001
1.06417
1
1.12106
1.10888
1
1
0.91584
1.11848
1
1
0.899864
1.11854
1
1.11954
1.11841
1.12115
1.11445
1.11851
1
0.891357
1.03163
1.11849
1.11854
1
1.11877
1.11843
1.06519
1.00296
1.02831
1
1.11978
1.11864
1
1
0.895135
1
1
1.11854
1.1187
1.11812
1.11855
1.11859
1.12093
1.11872
1.11794
1.1186
1
0.998794
1.11885
1.11846
0.999113
1.11864
1.11842
0.893483
0.894747
1.11885
1.11878
1
1
1.00048
1.11852
1.11786
1.11851
1
1.11854
1
0.962823
1.1208
1.11938
1
1.05571
1.11814
1
1.11966
1
1.11861
1.07907
1.1182
1
1.11861
1.11757
0.893447
1.11869
1
1.11877
1.11915
1
0.894237
1.11901
1.10324
0.999307
1.1123
1.11846
1
1.00049
1.12036
0.999364
1.11842
1
1
1.11921
1
1.11909
1.11852
0.998948
1.09423
1
1.11843
1
1
1
1
1.11859
1
1
1.11796
1
1.11869
1
1.0796
1.11773
1.11824
1
1
1.00089
1
1.11859
1.11855
1.11901
1.11865
1.11864
1.1187
1.11864
1
1.11854
1.11855
1
1.1186
1.11854
1
1.11825
0.976727
1.01668
1.11854
1.1186
1.11855
1
1.11863
1
1.11854
1.1185
1
1.11878
1
1
1
1
1.11873
0.894028
0.999383
1
1.11863
1.12038
1
1.11843
1
1.00146
0.895868
1.11857
0.999888
1
1.11882
0.999539
1.11862
1
0.999938
1
1.11867
1.12011
1.11865
1.11919
0.896821
1.11887
1.1188
1.11848
1.0314
1
1
1.05465
1.11856
0.889549
0.895911
1
1.11885
1.11864
1.11849
1
1
1.11849
1.11852
0.999965
1
1.08932
0.879933
1
1.02242
1.11985
1.11657
0.999496
1.11854
1.11988
1
0.999648
1
1.11831
1.12054
1.04952
1
1.11325
1
1.00045
1.11808
0.888907
1.1185
1.11856
0.999149
0.999975
1.10456
1
0.999912
1
1.1197
1
1
0.880025
1.11867
1
1
1
1
1.12073
1.07017
1
1
0.891703
1.11853
1.07026
1
1
1
1.11339
1.11939
1.11928
1
1
1.11792
1
1.11861
1.11868
1
1
1.11922
1.11858
1.11252
1
1
1.11916
1.11881
1
1
1
1.11884
1
1
1
1.1183
1.12016
1.11909
1
1.12017
1.00001
0.899563
1.11839
1.11833
1
1.11992
1.11435
1.12166
1
1
1.11941
1
1.06759
1.11891
1
0.895716
1
1.11914
1
1
1.11807
1
1
1
1.04027
1.11927
0.895211
1
1.11886
1
1
1.11846
1
1.11944
1
1
1.11868
1.11841
1
1.00001
1
1
1
1
1
1
1.11826
1.11866
1
1.11945
0.884173
1.12029
1
1.11859
1.11974
1.11868
1.12101
1.1222
1
1
1.11915
1
1.08031
1.11949
1.11852
1
1.119
1.12043
1
1.10831
1
1.11857
1.08034
1.11928
0.999243
1.11787
1.1113
1.11861
1.11869
1.0104
1.1186
1.11932
1
1.11851
1
1.11858
1
1
1
1
0.998911
1.11854
1.11874
1.10315
1
1.12024
1
1
1
0.883307
1
1.11614
1
1.10887
1.11299
1
1
1
1.10964
1.12084
1
1
1.11859
0.892906
1.02095
1
1.11951
1.11847
1.10908
1.11597
1.1185
1
1.11885
1
1
1
1
1.11863
1.11883
1
1.11492
1.0164
1.11863
1.11129
1
1
1.11157
1
1
0.89365
1.08479
1
1
1.1188
1
1.11936
1.10936
1
1.10916
0.893209
1.11847
1.11837
1.11863
1
0.895369
1
1
1
1.11846
1.10142
1
1.11855
1.11843
1
1.11866
1
1
1
1
1.11844
0.999806
1
1.11925
1
1
1.11629
1.11856
1
1.12048
1.0234
1.00001
1
1.11856
1
1.11874
1
1.00396
1.11858
1
1.11857
1
1
1.04096
1.11819
1
1
1
1
1
0.998978
0.886293
0.890178
1.00554
1
1.00927
1
1.00973
1
1.11858
1
1.07422
1
1.11869
1
1
1
1.11866
1
1.0964
1.11857
1
1.06756
1.1186
1
1
1.12158
1.11833
1
1
1.01769
0.889907
1
1.11901
1
1
1
1
1.02188
1.1188
1
1
1
0.892272
1
1.11869
1.11866
1.12025
1
1
1
1
1.0623
1.11987
1
1
1
1.11984
1.1185
1.01749
1
1
1
1.11811
1.1185
1
0.895613
1.11867
1.11855
1.11815
1.11819
1.11795
1
1
1.11952
1.11864
1.11841
0.89434
1.01147
1.11833
1
1
1
1
1
1.11855
0.894505
1
1
1.11849
1.05771
1
1.11911
1
1
1
0.89166
1
1
1.03389
1.11864
1.11853
1
1.11766
1.11873
1
1.02086
1
1.11888
1
1.11888
0.892606
1
1
1
1
1.11864
1.00002
1
1
1
1.11845
1
1
1
1
1.11861
0.890239
1.09506
1.1193
1
1.11837
1
1
1
0.999166
1
1.11914
1
0.939852
1
1
1.00001
1.11839
0.896221
1
1.11876
1
1.11781
1.11859
0.891573
1
1
1.11262
1
1
0.892486
1
1.11847
1
1.11381
0.999826
1.11875
1
1
1
1
1.11861
1
1
1.11858
1
1
1
1
1
1
1
1
1.08039
1
1.04138
1.11897
1
1
1
0.887385
1
1
1
1
1.11923
1.11852
1.01577
1
1
1.11888
1
1
1.11828
1
1
1
1
1
1
1.11855
0.933046
1.11853
1.11922
0.999164
1
1
1
1.07381
1
1
1.11814
1.11859
1
1
1
1
0.891183
1
1
1
1.08012
1
1.11863
1.11932
1
1.11895
1
1
1
1.06849
1
1.12076
1
1.11849
1
1
0.998892
1.11854
1
1
1
1
1
1.11786
1.00001
1
0.896167
1.11843
0.89459
1
1.11874
1
0.998804
1
1.11878
1.11907
1
1.11611
0.97184
1.11848
1.11815
1.00001
1
1
0.885573
1
1
1
1.11853
1.07119
1.1182
1
1
1
1
0.999102
1.11891
1
0.888703
1
1
1
1
1
1
1
1.11985
1.11799
1.11936
1
1
0.99911
1
0.996844
1
1
1
0.889957
0.996156
1
0.88255
0.887662
1
1.11865
1.11866
1
1.11916
1.11853
0.884042
1.08409
1
1
1
0.89076
1.11843
1
0.887609
1
1.1194
1.02238
1
1
1
1
1.11865
1.12015
1
1
1.11856
1
1
1.11932
1.11855
1
1.10775
1.1185
1.11966
0.990743
1.11923
1.00256
0.888272
1.09314
1.11836
1
1
1
0.890354
1
0.887369
1.11989
0.990785
1.11848
0.987679
1
1.1188
1.05752
1
1
1.11927
1
1.05221
1.11817
1
1
1.1183
1.11589
0.887961
1.07186
0.999971
1
1.0737
1
1.11957
0.982876
1.12225
1.11963
1
1
1
1
1.1144
1
1
1.11801
0.999898
1.11829
1.09947
1.11909
0.890919
1
1
1
1
1.11833
1.00001
1.11861
1
1.11854
1.11822
1.0164
1.12068
1.04181
1.11866
1
1.0841
0.890285
1.11905
1.11861
1.09765
1.02129
1.11987
1.11851
1.11853
1.11882
1
0.973751
1.01829
1
1.1186
1.06066
1.11859
1.00001
1
1
0.906564
1.11779
1.11972
1.09804
1
1.04753
1
1.11935
1.11928
1
1.11893
1.11948
1
1
1
1.11908
1
1.05
1.11775
1.08549
1
1.11826
1
1
1
1
1
1
1
1
1
1
0.899505
1
1.10903
0.886109
1.07339
0.999595
1.11754
1
1.06636
1
1.07963
1.10454
1
1.00062
1.11906
0.96951
1
1.11988
1.11776
0.982043
1
1.11804
1.11824
1.11913
1
1.11859
1.11879
1.1182
1
1.05944
1
1.00002
1.11833
1
1.11847
1.01888
1.11908
1
1
1.11841
1.11961
0.907644
1
1.11897
1.09074
1.11834
1
1
1.11976
1.11921
0.999495
1
1.10924
0.999068
1.11861
1
1
1
1
1
1.05761
1
1.0923
1.11914
1.09031
1.11807
1
1.00101
1
1
1.11929
1
1.11878
1
1
1
1
1
1
1.01492
1.06517
1
1
0.892157
1
1.11851
0.896145
1.1192
1
1.06202
0.999926
1.1187
1.07839
0.901594
1.06847
1.00001
1.1187
1.11892
1
1.07478
1.11963
1.11843
0.999538
1.11947
1.11563
0.890213
1
1
0.999338
1
1.11761
1
0.900841
1.11835
1
1
1.10652
1
1.119
1
1.11837
1
0.897528
1
1
1.1185
1.11989
1.11954
1
1.11851
1.11863
1.11671
1
1
1.11772
1
0.923549
1
1
1
1.11864
1
1.11843
1.07984
1.11897
1
1.11852
0.999824
1
1
1
1
1
1
0.917198
1
1
1.11852
1
1.11935
1.11775
1
0.900162
0.88521
1
1.11898
1.02174
0.89347
0.888213
1
1.11879
1
1.11975
0.89178
1.00036
1
1
0.99986
1
1
1
0.999976
1.05403
1.11859
1
1
1.11883
1.07182
1
1.1078
1.11799
1.11923
1.0534
1.11818
1
1.11858
1
1.11528
1
1.11803
1.11883
0.999142
1.11875
1.11952
1
1
1
1
1
0.977218
1.1202
1.00001
1.00001
0.895487
0.999994
0.889784
0.892768
1
1.11828
1.11887
1.11845
1
1.11864
1
0.889025
1
1
1.11912
0.947257
1.11822
1
1.11824
1
0.995869
1.1191
1
1
1
1.1186
1
1.11851
0.888365
1
1
1.07109
1
1
1.06843
1
1
1.11846
1
1
1
1
1
1.11968
1.11844
1
1.11917
1.11852
0.8924
1.05876
1.11882
1
1
1.10756
0.999722
1
1
1.11855
1.11931
1.08299
1
1.11885
0.894198
1.11128
0.999881
1
1.11833
1.00001
1.11883
1.09996
1.09289
1
1
1.11862
0.907316
0.89226
1
1.1187
1
1.11832
1
1.07425
1
1
1.11834
1.07984
0.887242
1
0.999507
1
1
1.00741
1.05298
1.11866
1
1.11837
1
1
1
1
1
1
1.01891
0.892203
1
1
1.01418
1
1
1
1
1
1.11867
1
1
1.11858
1.11836
1.0887
1
1
1
0.952417
1.11898
1.08614
1
1
1
1
1.11849
1
1
1
1.11882
1
1
1.08886
1.12264
1.01087
0.927975
1.11793
1.08716
1.11814
1
1.0615
1
1
1
0.888086
1.00054
0.901108
1
0.884462
0.886051
1
0.889738
1
1
1
1.05561
1
1.11903
1.11869
1.00039
1.06274
1.10178
0.890261
0.925244
0.965384
1
1.11851
1.11862
1.11853
1.11868
1.10341
0.966575
1
1.10383
1
1.11632
1
1
0.999004
1.00268
1
1
1
1.11926
1
0.890076
1
1.11896
0.897769
1
1
1.11865
1
1.11847
1.00003
1
1
1.11873
1.10843
1
1.12357
1
1
1.00421
1
1.05839
1
1
0.891196
1
1
1.11797
1
1.11853
1
1.00001
0.893718
1
1
0.895042
1.00031
1
1.11842
0.890093
1.11944
0.890982
1.11865
1
1
1
1
1
1
1
1
1
1
1
1.11432
1
1.11908
1.11949
0.892476
1
1
1
1
1
1
1.11555
1
1
0.887418
1
1
1.11858
1
1
1.04713
1.10175
0.893171
0.88705
0.904873
0.917151
1
0.999074
0.900304
1.00015
1.11075
0.999126
1
1
1.11813
1
1
1
0.932294
1
1.04431
1
1
1.05172
1.11849
1
0.879432
1
1
1
0.99911
1
1.11889
1.11867
1
0.890354
1
1.06806
0.890984
1
0.96676
1
0.998801
0.879409
1
1
1
0.998892
0.891204
1
0.882224
0.999544
1.06688
1.10857
0.885456
0.895848
1
0.997433
1
0.999617
1
1.11843
1.11832
1
1.0068
1.11815
1.11867
1
1
1.11859
1
1
1.00001
1
1.11928
1
1
1.00518
1
0.999585
0.901424
1
1
1
1
1
1.11771
1.01162
1.00001
1
1
1
1
1
1.00001
1
0.893123
1.03077
0.9996
1.1156
1.11963
1
1.00449
1.11823
1.10453
1
1
0.897234
1.11878
1
1.11946
1
1.11825
1.08067
0.892537
1
0.891423
1.11373
0.999909
1
0.892218
0.898427
1
1
1.10172
1
1
0.889959
1
1
1
1.04002
1
0.892088
1.11859
1
1
1
1
1.11856
1
1
1.11952
1.10708
1
1
1
1.11985
0.883367
1
1.11918
1.11852
1
1.09625
1
1.00001
1
1
1.11309
1.00586
1
0.895347
1.06982
1
1
0.999225
1
1
1.12034
1
1
1.00001
1
1.11931
1
1
1
1
1
1
1
1.05614
1
1.11882
1
1
1.11896
1
1
1
1.11857
1.11806
1.01307
1
0.999324
1
1
1
1
1.11999
1
1
1.11865
0.886704
1
1
1
1
1
1
1.09776
1
1
1.1193
1.11893
1
1
1
1.1192
1.11809
1
0.999909
1.11979
1
1
1
1.00001
0.895271
1.00827
0.998938
0.99883
1
1
0.883814
1.11874
1
0.895524
1
1.11917
1.11412
0.893735
0.999833
1.11861
1.11915
1.11838
1
1
0.979814
1.11032
1.10031
0.897922
1
1
1
1.11933
1.11848
0.887612
0.999211
1
1.11847
0.89223
1
1.11537
0.893679
0.993547
1.00179
1
1.1179
1
1
1
1
1
1
1.00003
1.11131
1
1
1.11904
1
1
1
1.11858
1
0.893596
1
1
1
1.04375
1
1
1
1
1
0.932088
1
0.894244
1
1.11855
1.00001
0.95465
0.961682
1
1.00097
1.06635
1
1
0.886093
1.11845
1.11858
1.11849
1
0.888649
0.891313
1
1.11835
1
1
1
1
1
1.00001
1
0.896885
1.08003
1
1
0.890115
0.998764
1
1
1
1
0.881275
1
0.904782
1
1
1.1204
1
1
0.891362
1
1.11857
1
0.889705
1
0.894242
1
1.00213
1.11865
1.12262
1
1
1.12021
1
1
1.03079
0.999082
1
0.999484
1
1.11919
1
0.891934
1
1.12086
0.999719
1
1
0.943016
1
0.999704
0.891015
1.11889
1.04724
1
1
0.970523
1
1
1
0.940354
1
1
1
1.1186
1
0.89266
1
1
1
1
0.887543
1.11869
1.11438
0.890273
1
1.11744
1
1
1.11856
1.11993
1.10184
0.892747
0.999352
0.999776
1
1.1184
1
1
1
1
1.1186
1.00001
1
1
1.11839
1
1
1.11868
0.890115
1
1
1
0.892917
1
1
1
0.999598
1
1
1
1
1.09304
1
1.11954
1.11894
1.12208
1.11867
1.11877
1.11856
1
1.1189
1
1.11858
1.11856
1
0.999671
0.890057
1.10303
0.999973
1
1
1
1
1.00082
1
1.01947
1
1
1
0.951519
1.11865
1.11851
1.11946
1.1079
0.999965
1
1.00634
1.11875
0.999397
1.01934
0.999161
0.890261
1
1.00001
1
1
1
1
1
1.11841
0.894011
1.11832
1.11847
0.998422
0.883415
1
1
1
1.11867
0.87419
1.10614
0.890681
1.11872
1.11952
0.895539
1.11821
1.00706
1
1.11927
0.942304
1
0.999673
0.88048
1
0.890611
1
1.11854
1.11856
0.924022
1
1.11874
0.890988
1
0.885689
1
1.11868
1
1
1.11649
1
0.956259
1
0.999912
0.891422
1.11856
0.999851
1
0.878586
1
1
1
1
1.06967
1
1.11849
1
1
1.12201
1
1
1.11911
1
0.893355
1
0.897515
1
1
1
1
1
1.114
1.07339
1.11851
1
1.11856
1.11071
0.888822
0.878888
1
1
1.11874
1
0.891394
1
0.997898
1
1
1.11834
1
1.11853
0.885995
1.11817
1
0.88505
1
1
1.1187
1.11818
1
1.00001
1
1.11962
1
1
0.880182
0.999831
0.89269
1
1
1
1.11898
1.1202
1.11955
1
1
0.897637
1
1.11994
1
1
1
1.11523
1.11852
1.11868
0.874906
1.11907
1.11854
0.896559
1.11969
1.00001
0.89784
1.00502
1
1
1.11866
0.876855
1.07825
0.882184
1.11853
0.999275
0.889246
1.11912
1
1
1
1
1.11857
1.12003
0.891598
1
1.00001
0.892105
1.00001
1
0.884323
0.892956
1.08615
1.11857
0.99957
1.11865
1
1.11997
0.938648
0.889209
1.11849
1.12065
1
1.11868
1
1
1.11874
1
1.09474
1.11977
1
1
1
1
1.11882
1.11737
1.11818
1
1
1.11889
1.1208
1.11922
1
1.11874
1
1
1
1
1
0.890409
0.958781
0.882703
1
1
1.11867
1
1
1.11854
0.885325
1
1.11874
1.11745
1.11387
0.882805
1
0.880609
1
1.00001
1.11954
1.05808
1.1203
1.10896
1
0.895517
1
1.1181
1.08718
0.893901
1
1
1
0.947154
1
1
1.12141
1
0.894779
1.11864
1
1
1
1
1
1.09727
1.02966
1
1.11895
1
1.11926
1
0.999181
1
1.11847
1.11876
1.11826
1.1194
0.999885
1.12028
1
1.11852
1.11838
1.10192
1
1
0.889722
1.12054
1
1
1.1186
1.11872
1.11919
1
1.11912
1
1
1.00001
1.11906
1.11806
1.03694
1.0277
1.11852
1.11851
0.907251
1
1
1
1
1
1.04499
1
1
1.09921
0.895455
0.99999
1
1.11856
0.999969
0.999952
1.01978
1.10602
1.1212
0.974497
1
0.88645
1
1.00072
1.11867
1.11912
1.11997
0.999722
1
1
0.887505
1
1
1.11862
1.01399
1
1
1
1
1
1
1
0.999982
1.11997
1
1
1
1
1
1.07619
1
1.05962
1
1
1.11852
1.1194
0.89364
0.999661
1
1
1
0.889412
1.11991
1.11856
1
1
1
1
1
1
1
1
1.11904
1.11875
0.891345
1.0142
0.896794
1
0.889777
1
1.11869
1.03276
1
1
0.905229
1
1.11412
0.948326
0.999076
0.888309
1
1
1.11907
1.00001
0.999242
0.885192
1.11953
1.12124
1
1
1
1
1.11158
1
1
1.11857
0.99971
1.11854
1.00001
1
1
0.890015
1
1
1.11921
0.883496
0.938352
0.896681
1.11865
0.999791
1
1.11951
0.885003
0.888925
1.00513
1
1
1.11998
1.00001
1.05733
1
1
1.11972
0.895592
1
1
1.00004
1.1184
1.00004
1.11782
1
1.00001
1
1
0.909558
1
0.933048
1.00001
1
1.11779
0.891768
1
0.937211
0.941074
1
1
1.11881
1
1
1
1.1185
1.11867
1.00002
1.11798
1.12031
0.934293
1.11851
1.11373
1
1
1.11903
1
1
1
1
1
1.11847
1.11837
1
1
1
1.119
1.00006
1
0.891043
0.9129
1
1.00001
1.04703
1
1
0.972093
0.891599
1
1
1
1.11945
1.10942
1.11852
1
1
1
1
0.889528
1
1.11784
1
1.11984
0.889824
1.11837
1
1
1
0.896515
1
1.11873
1.00001
1
0.892753
1.04625
1
0.999904
1.11932
0.880978
0.883884
1
1.1195
0.889778
0.89169
1
0.880695
1
1
1
1
0.883637
1
1
1
1
1.11918
1
1.09313
0.875449
1
1
1
0.893761
1.11847
1
1
0.99906
1.11696
1
1.11834
1.11937
1
1
0.922994
0.885802
1
1
0.895235
1.04179
1.05907
1
1
1.11864
0.999272
1
0.999364
1.12065
1
1
1
1
1
1
1.11933
1
1.04517
1.04131
0.905503
1.10575
1
1.1186
1.11845
1
1
1
0.975963
0.891272
1
1.06561
0.9999
1.1067
1
1
1
1
1
1.00197
1.05497
1.11885
1.11841
1
1.11863
1
0.893587
1
0.99924
0.999932
1
0.887731
1
0.8919
1.00001
1.11919
1.12025
0.889449
1.11972
0.895934
0.998874
1.09163
0.890441
1.08632
1
1
0.999547
1
1
1
1.00002
1
0.889661
1
1
1
1
0.999887
1.11887
0.942865
1
1
1
1.01076
1
1
1
1.06842
0.929124
1
1
1
1.01556
1.12077
1
0.884404
1
1.11893
0.972508
0.889996
1
0.885885
1
1
1.11263
0.999501
1.11168
1
1.00255
1
1
1.11847
1
1
1
1
1.02524
1
1.11851
1.11904
1.12045
0.882099
1.11864
0.999167
1.09955
1
1
0.88372
1
1
0.893972
1.11775
1
1
0.999988
1
1
1
0.882593
0.874431
1
1.11863
1
1.05853
1.11856
0.889388
1.10071
1
1
0.891672
1
1
1.11857
1.11842
1.04631
1
1
1.0005
1.11949
0.87979
0.892089
1.11936
1.1186
1.08398
1.04952
1
0.969459
1
1
1
1.11381
1.11994
1.11929
1
1
1.11849
0.881598
1.10738
0.883623
1
0.892029
1
0.889676
1.11848
0.886875
1
0.994843
0.903061
1
1
1
0.954992
1.11124
1.11866
1.11903
1.11846
1
1
1.12009
1
1
1.11899
1
0.88993
1
0.890217
1
1.11942
1
1
1.00453
1.09339
1
0.999656
0.886065
1.11849
1
0.884847
1.02482
1
1
1.09248
1.1184
1.11851
1
1.11892
1.03635
1
1.00679
1.11856
1
1
1
1
1.11852
1
0.888798
1.11882
0.89001
0.887103
0.951065
1.11884
1.04372
1.11842
1
1.11836
0.99918
1.00001
1.11848
1.1199
1
1.11863
1
1.11872
1
1.11942
1
1.00001
0.999997
1.11776
0.885741
0.895503
0.999427
1
1
1
0.8898
1
1.08101
1
0.885313
1
1.04844
1.11833
1.11896
1
1
1.00001
0.999824
1
1.11983
1.11865
1
1.05274
1.11879
0.957546
1.11867
1.00026
0.885789
1.02799
0.892489
1
1
1.0216
1.12038
1
1
1.01311
0.999594
1
0.88067
1
0.938041
1
1.11834
1
1
0.883059
1.03075
1.019
0.999565
1.11868
1.11852
0.928738
0.999457
0.889102
0.888341
0.889962
1
1
1
0.999722
0.916273
0.894674
1
1.11855
0.999927
1.1185
1.11881
1.12047
1.11837
1
0.890115
1.11853
0.893222
1
1.11839
1.11985
0.999035
0.938256
1.1186
1.08909
1
0.891442
1
1
1.11876
1
1.00739
1.11839
1
0.88191
0.889627
1
1
0.885736
0.881814
1.1186
1.00001
1
0.88545
0.882003
1.11831
1.11635
1.11185
1.12004
1.03698
0.994008
1.05276
1.1212
1.09421
1
1.06557
1
0.891163
0.959727
1
0.889543
1.11869
1.00663
1.11889
1
1.1186
1.11959
1
1.11863
1.1186
0.891614
1.1194
1
1.12048
1
0.923326
0.88704
1.11869
1
1
1
0.887472
1.11833
1.11884
1
0.891953
1
1
0.890675
1.00001
0.886715
1.12008
1
0.951326
0.884079
1
1
1.07208
1
1
1
1.02176
0.88856
1
1
1
1.1186
0.889653
1
1.1185
0.880453
0.885952
1
1
1.11985
1
1.1184
1
1.1185
0.89606
1
1
0.886928
0.943896
0.887913
1
1
1
1
1.11823
0.885563
1
0.888255
1
1.11829
1
1
0.976552
1
1
0.945398
0.999905
1.00001
1
0.89033
0.891631
1
1
1
1
0.939854
1.11816
1.11953
1
0.891123
0.891771
0.976684
0.889851
1
0.94923
1
0.898874
0.993024
1
1
0.897232
1
1.11873
1.11295
0.889537
1
1
1
1.11937
1
1.01332
0.951326
1.04187
0.889222
1.05233
0.889246
1
1
0.915467
0.971938
1
1.01538
1
1
0.887562
1
0.981195
1.01427
0.888869
1
1.09771
0.930836
0.966189
1
1
1
0.897545
1
0.888634
0.893671
1
0.955009
0.887299
1.02088
0.92397
0.890348
1.11848
1
1.11852
1.0701
0.918812
1.11852
0.889894
0.999726
1.11934
1
1
1.11887
1
0.916337
1
1.02015
1
1
1.11854
1
0.925974
0.9449
1.12038
0.980992
1
0.924639
1.11849
1.11964
0.972503
1
1.11868
1.03547
0.956647
1
1.0061
1
0.894963
1.05472
0.934124
0.920056
1
1
0.893718
1.11849
0.990491
0.888667
0.886957
0.964322
1
1.00762
1.11952
1.11851
1
1
1
0.890645
1.06071
1
1.1189
1.10837
0.889347
1
1.02568
0.965413
1.07505
1.10316
1
1.01379
1
1.00002
0.88478
0.955255
1
1
0.943665
0.885722
1.01406
1
1.00001
0.879314
1.05781
1
1.12004
1
1.01205
1.06826
1
1.1175
1
1
1.11869
1
0.885016
1.11972
0.898568
1.03382
1
0.888858
0.999973
1
1.00001
1
0.939153
1.00752
0.897089
1.09257
1.12
0.880294
1
1
1
1
1
0.991741
0.894516
1.01736
0.894627
0.888744
1.01803
1
0.999946
1.03347
1
1
0.893102
1.00007
1
1
1.03645
1
1.11968
1
1.11963
1.02495
1.00573
0.888432
1
1
0.883489
1
1
1
1
1.1185
1.01243
0.999439
1
0.892761
1.01478
1
1
1.08059
1
0.882609
1.11842
1
1
1
1.11929
0.88777
0.967458
0.881228
1.0923
1.11849
1
1
1.11848
1
0.880147
1
1
1
1
1
0.920091
1
1.11916
1
1
1.04569
1.11971
0.895038
0.964743
1
1.11838
1
1
1
1
1
1.11866
1.11986
0.887789
1.11848
0.888633
1
1
1.11853
1
1.11945
1.00166
1.00818
1.01886
1.11874
1.01948
1.0844
0.879759
1
0.879195
0.995633
1
1.1186
1
1
0.880489
1.11942
1
1.11976
1
1
1
1
1
1
0.891649
1.11935
0.954908
1.11854
1
0.889814
0.894924
0.91491
1.11971
1.11883
0.990152
1
0.940886
1
1.04623
1
1.11881
0.884175
0.889905
0.956983
1
1.11852
1
1.02114
0.896456
1
1.11979
1.10897
0.999666
1
1.11861
0.886892
1.11992
1.11844
1.12034
0.894258
1.02573
1
1
0.883425
1
0.937716
0.945307
1
1.00001
1.11877
1
1.11831
1.0249
1
1.01466
1.11877
1
0.89022
1
0.928416
1
1
1.0992
1
0.940623
1
0.897264
1.01035
0.988171
0.88326
1.1188
1.09704
1.12013
0.894661
0.907751
0.998763
1
1
0.89931
1.11237
0.891213
0.99999
1
1.11851
1.11914
0.971576
1
0.887692
0.913159
1.08199
0.994873
0.891139
1
0.889848
1.03381
0.899784
1
1.00002
0.943286
1.12044
1.11892
0.957151
0.999878
1
1
0.911722
1
0.892618
1
0.887916
0.89335
1
1
1.00001
0.900493
1.11854
1
1
1.00002
1.00001
0.891678
1.11889
1.11865
1
0.897286
1.12096
1
1.02532
1
1
1.11854
0.889459
1
1
0.880508
0.918259
0.897478
0.895644
1
0.909207
0.999178
1.03204
0.885213
1
1
1.0373
1
1.10616
1
1
1.08963
0.904686
1
0.890521
1.03608
1.11884
1
1
0.889901
0.891892
0.880645
0.920093
0.884507
1.09136
0.99983
1
1
1
1
1.11872
0.880805
1
0.983712
0.99991
0.999646
0.999983
0.932124
1.03753
1
1.11851
1.11853
1
1
1.1133
1.00001
1
1.11852
0.891274
1.11618
1
0.886709
1.11859
1.00002
1
0.947603
1
0.879344
1
1.11962
1
1
1.1192
1
1
1.11967
1
1
1
1.12161
1
0.926536
0.913899
1
0.884642
1.11886
1
1
0.991577
1
1.12028
1.07062
1.09764
1
1
0.897932
1
0.890098
1.11864
1.11986
1.1188
1
1.11959
0.89079
1
0.89021
1.09778
1.11284
1.11803
1.11873
0.928261
0.890367
1
1.08438
1.11912
1.12025
1.11852
0.917558
1.04691
1
1.09183
0.919922
1
1
1
1.00001
0.97144
1
1.11853
1
1
1
1
1
1
1.00002
1.11824
1
1.11965
1.09113
0.88607
1.12012
1.012
1.06084
1
1.11847
1
0.883489
1
1
1
1
1.10283
1
0.884289
1.11851
0.8797
1.11893
1.09684
1.06585
1
1.02482
1.06002
0.998843
0.890452
0.928009
1.00001
1
0.975523
1
0.875994
1.11907
0.888313
0.980204
0.954614
1
1
1
1.00354
1
1
0.890307
0.998962
1.12088
1
1.11856
1
0.893987
1
1
1.11864
1.11821
0.890507
1
1.11929
1
0.936298
0.889904
1.11984
1.10708
1
1.02251
1.11862
0.999612
1
1.05298
1.10578
1.11831
0.998777
1
0.999999
1.1019
1
1
1
1.1185
0.999574
1
1
1.11862
1
1
0.893267
1
1
1
1.11981
1
1
0.959137
1.04143
1.10877
0.934916
1
1.11893
1
1.04372
1
1.11821
0.999196
1.1186
1
0.8872
1
1.08334
1
1
1.11131
1.00001
1.11856
1
1.11811
0.902139
0.892709
1.1193
1
1.10121
1
1.11983
1
1
1.00001
1.11856
1.11932
1.03505
1.11843
0.998838
0.885319
1.11889
0.963617
1
1.11652
1
1.11863
1
1.11921
1.11957
0.998979
0.8831
1
1.11861
1
1.01639
1
1
0.999398
0.927317
1.10697
1
1.10782
1
0.966428
0.882715
1.11819
1.11859
0.898509
1
1.11832
1.11875
1.11823
0.902262
1.11836
0.888264
1.11938
1.12098
1
1
1.11859
1
1
1
1
0.893842
1
1
1.11996
1.11863
1
1.11862
1
1.11961
1.12055
1
1.09963
1
0.885993
1.11854
1.09137
1.03839
0.880791
1.11849
1
1
0.884716
1
1
1.11854
1
1
0.929839
1
1.11865
1.00003
1.11877
0.880996
1.1196
1
1.11856
1.11468
0.969737
1
1.11826
0.933158
1.11903
1.08467
1.11867
1.11809
0.999132
1.11934
1.11851
1.11858
1.11862
1.00006
1
0.893012
1
1.12105
0.949574
1.10969
1
1.11675
1
1
1
1
1
1.11799
0.883273
0.886123
1.11844
1.11846
1
1
1
1
1
1.11768
1.10769
1.1185
1.0049
1
1
1
1.00001
1.11824
1.11853
1
1.11912
1.11941
0.890007
1.08607
1
1.11852
1.11933
1.11785
0.999407
1.11854
1.11846
1
1.10761
1
1
1
1
1
1
1.11855
1.12
1.11115
1.11869
0.885007
0.896551
1.11853
1.11854
1
0.88845
0.981415
1
1.06131
0.88606
1
0.999847
0.99951
0.89085
1
1.11891
1
1
1
1.11939
0.980583
1
1.11856
1.11866
1
1.11927
1
1
1.11851
1
0.887055
1
1.11829
1
1
0.891626
1
1.11877
1
0.888633
0.881023
1
1.11332
1
0.882355
0.971164
1
1.11853
1
1
1
1.11927
1
0.891595
1.01786
1.11932
1.11902
1.1185
1.01274
1.1189
1.11853
1
1
1
1
1
1.11859
1
0.999807
1.11803
1
0.888087
1
1.11863
1.06054
1.01811
1.05972
1.01873
1.11795
0.908125
1.11843
1
0.899183
0.999189
1.11862
0.982141
1.11867
1.11862
1.11313
1
1.119
1.1186
1.11844
1
1.00001
1
1
1.11982
1.08654
1
1
0.889721
0.99906
1
1.11864
1
1.11841
1.11866
1.11828
0.974801
1.11834
1.11848
1.00088
1.06021
1.11956
1.11867
1
1.11029
0.954089
1.11479
0.99464
1.1185
1
1.11849
1.11851
1
0.891778
0.979972
0.909325
1
1.02214
0.998995
1.11977
1
1
0.999036
1
1.06333
1.11081
1
1
1.11843
1
1
1.08715
1.11869
1.11455
1.11878
1.11873
1
1.11839
0.910066
1.11879
1
0.999233
0.890838
1
1
0.917241
1
1.04238
1
1.11884
1
1.11669
1.078
0.889586
1
1
1
1
1
1.11908
1.00327
1
1.11865
1
1.11844
1.11852
1
1
0.993068
0.999957
0.883695
0.879196
0.920094
1.02534
1
0.999544
0.889308
1.00001
1
1.11854
0.984518
1.11113
1.10189
1
1
1
1
1
1.11861
1.11854
1
1.11823
1
1.11921
1.08222
0.99891
1
1
1
1.07032
1
0.985806
1
1.11889
1
1
1.11844
1
1
1
1
1
1.11882
0.888219
0.998851
1.10746
1.11843
1
1.11852
1
1
1
1
0.900386
1
1.11875
1.11859
1.1186
1.12013
0.98895
1
1.1022
1.03146