/*--------------------------------*- C++ -*----------------------------------*\
  =========                 |
  \\      /  F ield         | OpenFOAM: The Open Source CFD Toolbox
   \\    /   O peration     | Website:  https://openfoam.org
    \\  /    A nd           | Version:  12
     \\/     M anipulation  |
\*---------------------------------------------------------------------------*/
FoamFile
{
    format      ascii;
    class       volScalarField;
    location    "7.67";
    object      T;
}
// * * * * * * * * * * * * * * * * * * * * * * * * * * * * * * * * * * * * * //

dimensions      [0 0 0 1 0 0 0];

internalField   nonuniform List<scalar> 
22702
(
1
1
0.960549
1
1.01638
1
1.12055
1
1
0.900351
1.12051
1.11967
1
1.11871
0.968668
1
1
1
1.12038
1
1.11862
1
1.11819
0.896753
1.11818
0.882992
1
1.11825
0.890797
0.893124
1
1.1194
1
1
1
1.11061
1.11879
1.11836
1
1
0.889975
1
1.06311
1
1.11816
1
1
1
1
0.899264
1
0.898626
1
1.12042
1
1.11988
1
1
1
1
0.884455
1
1
0.891925
1
0.894763
1
1
1
0.892252
1
1.11914
1.07596
1
1.11966
1.12707
0.89473
1.11959
0.899877
1
1.12131
0.894648
1.11983
1.11968
1
1
1
1
0.9827
0.898149
1.12132
1
1
0.893485
1
1.11867
0.894422
1
1
1
1
1.06337
1.12106
0.880722
1
1
1.03133
1
0.896076
1
1.11975
1.12045
1
1
0.883372
0.883935
0.899585
1
1
1
1
1
0.975923
1
1.10321
1.01214
1.11997
1
1.12023
1.12067
1.11847
1.12053
1
0.886829
1
0.88558
1
1
1
1
1.12071
1
1
1
1
1.11957
1
1.00695
1
1
1
1
0.897202
1
1.00314
1
0.900053
1
1
1
1.12074
1
1.1183
0.887065
0.883074
1.12014
1.11872
1
1.02385
1.07112
1
1.12095
0.9002
1.11078
1
1
1
1
1.1187
1.0996
1
1.12049
0.896324
1.12057
1
0.901034
1
0.896778
0.885462
0.999934
1
1
1.12032
1
1
1.11879
1
1.11984
1.12049
0.896235
1
1
0.894101
1.1188
1
1
1
1.11875
1
0.89332
1
1
1.11852
1.11845
1.11979
1
1.00001
1
1
1
1.11849
1
0.900534
1.12528
1.11882
1.11871
1
1
1
0.893293
1.11842
1.05818
1
1.11887
0.894677
0.894858
1.11883
1.11884
1
1.11794
0.883596
1.10594
1
1
1
1
1.11865
1
1.07318
1.01216
1
1
1.11873
0.89337
0.926188
1
1.11848
0.8926
1.11891
1
1
1
1
1
1
1
0.898686
0.926408
0.893284
1.11872
1
1
1
1
1.11042
1
0.89893
1
0.889539
0.897987
1.11875
0.896976
1.11863
1
1
1
0.999341
0.900914
0.885246
1
1
0.888751
1
1.12063
0.884444
1
1
1.12111
0.887939
1
1.11857
0.882523
1.11872
1
0.892338
0.999348
1
1
1
0.899766
1
1
1
1
1.00394
1.07622
1
0.889793
1
1
1
1
1
1
1
1.12066
1
1.12149
1
1
1
0.889578
1
1.11898
0.8992
1
1.09367
1
1
1.12068
1
1
1
1.11792
1
1
1.11701
1.1203
1
1.02893
1
1
0.888045
1
1
1
0.894697
1
1
1
1
0.886776
1
1
1
1
1
0.882104
1.00002
1.11857
1
0.999999
1.11914
1.11992
1
1
0.89835
0.946969
1.12047
1
1
1
1.11865
0.890568
1
1.11849
1
1
0.910329
0.907131
1
0.895387
0.888178
1
1
1
1
1
1
1
1.11987
1.03172
1.1143
0.887338
0.97377
1.12115
1
1.12029
1.11992
0.885628
0.932769
1
0.892402
1
1.12516
1
1
1
1
1.11883
1
1
1
1
1
1
1
1.04797
1.11986
1
1.11868
1
1
0.896513
1
1
1
1
1.11865
1.09278
1
1
0.898702
1.11874
1.11857
1
1.11854
1.11878
1.11847
1
0.953255
1
1.11845
0.996487
1.11849
1
0.890563
0.999675
1.12163
1
1
1
1
0.897183
1.11844
1.10829
1
1.11849
1.11857
1.12071
1
1.06024
1.11826
1
1
1.08487
1.01875
1.11851
0.984012
1.11853
1
1.11843
1.11874
1.11845
1.11857
1
1.11309
0.972855
0.96729
1
1
1
1
1.12067
1
1
1
1
1
1.1207
1
1
0.998924
1.11859
1.10264
1
1.09991
1.00001
1
1
1.11805
1
0.999125
1.00107
1
1.11855
1
1.11841
1
1
1.09104
1
1.11838
1.00001
1
1.11823
1
1.11867
1
1
1
1.11873
1
1.11999
1
1.11877
1.12146
1.11864
1.11964
1
1.12053
1.11717
1
0.89268
1.11171
1.08835
1
1.11884
1
0.891684
0.882544
1
1
1
1
1
0.893763
1
1.11867
1.03263
1.11821
1
1
1
1
1
1.1187
1
1.11869
1.07415
0.933591
1
1
1.0374
1.03116
1
1
1.04559
1
0.90093
1.11875
1.11861
1
1
1
1.12125
1
1.00001
1.11955
1.11858
0.988545
1
1
0.899434
1.10862
1
1
1
1
1
1.11859
1.12053
1
1.1181
1.1199
1.11873
1
1
1
1
0.885397
1.11998
1
1
1.10913
1.11817
1
1.11239
1.12045
1
1
1
1
1
1.11864
1
1
1
1
1.12015
1
1.11689
0.893725
1
0.88079
1
1
1
0.999121
0.892859
0.99971
1
1
1
1.01717
1
1
0.963725
1
1
1
1
1
1
1
0.999999
0.977486
1
1
0.999319
1
0.898681
1
1
1
1
1.09128
1
1
1
1
0.901486
1
1
1.11218
1.12053
1
1
1
0.96958
1
1
1
1
1
1
0.988604
1.00424
1.11858
1
1
1
1.11966
0.971335
1
1
1
1.11833
1.11921
1
1
1
1
1
1
1
1
1
0.890339
1
1
1.11993
0.892597
1
1.11971
1
0.897301
1
1
0.890003
1
1
1
1
1
1
1
1.11644
1.11824
1
1
1
1
1.10944
1
1.04121
0.89307
1
1
1
1
1
1
1
1.00993
1
1
1.06728
1
1
1
1.10011
1
1
1
1
0.893767
1
1
0.884977
0.892745
1
1
1.11852
1
1.01475
1
1
1
1.08597
0.888598
1
0.883135
1
0.936674
1
1
1
1.11903
1
1
1.11848
1
1
1
1.1185
1
1
1.1185
1
1
0.886395
1
1.04018
1
1
1.12105
1.12098
1.08192
1.10699
1
0.889797
1
1
1.11396
1
0.894946
1
1
1
1.11867
1
1
1
1
1.0747
1
1.11509
1.11853
0.899021
1
1
0.881185
0.880872
1
1
1
1.08674
1.09258
1
1
1
1
1
1
1
1.05431
1.12022
1.00442
1
1.11731
0.883604
1
1
1
1.06895
1
1.02557
1
1.10934
1.11818
1
0.891363
1
1.12055
1
1
1.11819
1.11197
1
1.12085
1
0.897281
1
1
1
1.1189
1.11647
1.10559
1
1.12033
1.11857
1
1.11888
1
1.11818
1
0.892744
0.993834
0.889428
1
1
1
1
1
1.11858
1
1.11868
1
1
1
1.1134
1
0.894376
1.11852
1
0.898159
0.900287
0.890847
1
1.06047
1.0105
1.11885
1.11856
1
1
1
1
1.11859
1
1
1.11858
1.11854
1
1.04617
0.999921
1
0.999079
1.12103
0.955337
1
0.945052
0.901512
0.898775
0.997504
1.11797
1.11713
1.02748
1.11859
1.11852
1
1
1.12059
1.12059
1.11844
1.12067
1
1.1187
0.893901
1.11951
1.11893
1.12015
1.11846
0.962646
0.971141
0.977113
1.11853
0.988417
1.1186
1
1
1.11901
1.11875
1
0.89233
1.11843
1.11844
1
1.11848
1.11846
1
1.1186
0.900713
1.11953
1.12031
1.12059
1.1179
1
1
1
1.11844
1.07924
0.891797
1.11851
0.887053
1.11843
1
1
1
1
1.11921
1.11858
1
1
1.11861
0.888077
1.11879
0.899417
1
1.11789
1
0.898287
1.1188
0.9207
1
1.11853
1.11913
1.11843
1
1
1.05654
1.11898
0.893298
1.11854
1
1.1186
0.966217
1.11839
0.887943
1
1.11854
0.899005
1.11904
0.89486
1
1.11859
1
1.11931
1
1.07244
1.11448
1.09555
0.887984
1
1.11867
1
1.11865
1
1.1187
1
1
1.11838
0.994909
1.11918
0.900302
1.10703
1
1.08641
1
1.11907
1.11866
1.11876
1
1.10771
1.11837
1.11047
1.07632
1.1181
1
1.08071
1
1.11847
1
1.02083
1
1.11081
1
1.11859
1.11371
1.1136
1
1.11617
0.883516
1
0.892412
1
1
1
1.12027
1
1.11881
1
1
1
1.11887
1.11456
1.09933
1.11871
1.11898
0.881824
1.11575
1.12055
1
1.10293
1.11857
1.11649
1
1.12101
1.11987
1
1.12054
1.1188
1.11895
1.11878
1
1
1
1.11845
0.885789
1
1.11861
1
1
0.885373
1
1
1.11856
1.11874
1
1.1186
1.11732
1.11943
0.99618
1.11862
1
1.11858
1.11858
1.09613
1
1
1
1.11915
1.11878
1.11856
0.983474
1
1.11926
1.11879
1.11864
1
1.11874
1.11854
1.11852
1.12093
1
1.11847
1.1197
1.10404
1.11876
1.12068
1
1.12011
1.11723
1.11856
1.11928
1.11844
0.888389
1.11806
1.11898
1
1.11861
1.11851
1.11855
1.11844
1
1.11868
1.11863
1
1.11848
1.10121
1
1
1
1.11956
1.11643
1
1
1.06862
1
1.11846
1
1
1.11845
1.11896
1.11864
1.11854
1
1
1
1.08476
1
1.1184
1
1
1.12111
1.12037
1
1.11859
0.885999
1.11864
1.11911
0.916282
1
0.890027
1.10368
1.1193
1.11832
1.11835
0.883682
1.11846
1.11885
0.884508
0.886231
1
1.11838
1.11851
1
1
1.11858
1
1.11876
1
1.10527
1
1.05912
1.1185
1.11905
1.0858
1.10865
1.12041
1.11878
1.11111
1
0.885849
1.11786
1.11874
1.11954
1
1
1
1.11955
1
1.11875
1.11831
0.92658
1
1.11849
0.999982
1
1.00001
1.00001
1.11868
1.11892
0.999552
1
1
1.11864
1.119
1.11852
1.11918
1.11836
0.899278
1.10634
1
1.11782
1.11861
1.11859
1.11769
1
1.11858
1.11566
1.11893
1
1.11893
1.11939
0.962147
1.11852
1.119
1
1.11853
0.953279
1.11874
0.960084
1.1186
1
1.11855
1.12236
1.11866
1.1187
1.11854
1.11953
1.1188
1.11998
1
0.980493
1.11872
1.11861
0.951329
1.11852
0.998091
1.08111
1.1187
1.11986
1.11919
1
1.11911
1.07967
1.11881
0.976802
1.11913
1.12187
1
0.963066
1
1.12051
1
1.08431
1
1.11268
0.962064
1
1.11944
1.11879
1
1.11896
1.11892
1.12109
1.12024
1.12019
1
1.12139
1
1
1
0.96799
1.11876
1.11871
1.11983
1.1186
1.11659
1.11903
1.11778
1.11881
0.968576
1.00931
1
1
1.12344
1.11872
1.1185
1.11848
1.00001
1.06362
1
1.12022
1.10459
1
1
0.918699
1.11856
1
1
0.895935
1.11844
1
1.12047
1.11849
1.12053
1.11445
1.11851
1
0.889945
1.03057
1.11843
1.11854
1
1.1187
1.11858
1.06391
1.00299
1.02774
1
1.11921
1.11846
1
1
0.88435
1
1
1.11863
1.11864
1.11853
1.11851
1.11865
1.12071
1.11862
1.11863
1.11878
1
0.998822
1.11877
1.11849
0.999012
1.11859
1.11857
0.89277
0.896654
1.11894
1.11863
1
1
1.0005
1.11845
1.11838
1.11848
1
1.11857
1
0.958743
1.11992
1.1203
1
1.05501
1.11889
1
1.11996
1
1.11844
1.07887
1.118
1
1.11866
1.12082
0.885028
1.11863
1
1.1193
1.11999
1
0.894426
1.11933
1.10133
0.999322
1.11233
1.11851
1
1.00146
1.11938
0.999372
1.11864
1
1
1.11915
1
1.11949
1.11856
0.998996
1.09461
1
1.11854
1
1
1
1
1.1185
1
1
1.12089
1
1.11857
1
1.07968
1.11875
1.11878
1
1
1.00301
1
1.11888
1.11853
1.11897
1.1186
1.11871
1.11847
1.11858
1
1.11844
1.11864
1
1.11853
1.11848
1
1.1182
0.977014
1.01669
1.11849
1.11851
1.11848
1
1.11861
1
1.11851
1.11853
1
1.11876
1
1
1
1
1.11852
0.890963
0.999397
1
1.1186
1.12065
1
1.11846
1
1.00161
0.890793
1.11855
0.999882
1
1.1187
0.999539
1.11852
1
0.999932
1
1.11874
1.12042
1.11839
1.1198
0.892184
1.11851
1.11888
1.11847
1.02925
1
1
1.05466
1.11866
0.88938
0.892719
1
1.11887
1.11851
1.11827
1
1
1.11899
1.11835
0.999964
1
1.0913
0.88501
1
1.02291
1.1215
1.11476
0.999496
1.11857
1.11937
1
0.999689
1
1.11828
1.12066
1.0505
1
1.11091
1
1.00045
1.11848
0.888413
1.11846
1.11859
0.999147
0.999976
1.10524
1
0.999913
1
1.1188
1
1
0.888972
1.11864
1
1
1
1
1.1192
1.06963
1
1
0.894352
1.1185
1.0699
1
1
1
1.11361
1.118
1.11984
1
1
1.11776
1
1.11845
1.11875
1
1
1.11911
1.11866
1.11387
1
1
1.11914
1.11875
1
1
1
1.11877
1
1
1
1.11862
1.12048
1.11901
1
1.11969
1.00001
0.906051
1.11841
1.11832
1
1.12072
1.11283
1.12035
1
1
1.11919
1
1.06996
1.11902
1
0.889048
1
1.11903
1
1
1.11946
1
1
1
1.04044
1.1186
0.899306
1
1.11888
1
1
1.11875
1
1.11923
1
1
1.11854
1.11851
1
1.00001
1
1
1
1
1
1
1.1178
1.11864
1
1.12038
0.88843
1.11865
1
1.11849
1.12065
1.11851
1.12041
1.12082
1
1
1.11919
1
1.08204
1.11988
1.11849
1
1.11959
1.11898
1
1.10446
1
1.11849
1.08066
1.11914
0.999283
1.11794
1.11025
1.11935
1.11866
1.01071
1.11849
1.11932
1
1.11852
1
1.11865
1
1
1
1
0.99871
1.11855
1.11861
1.1027
1
1.11923
1
1
1
0.882913
1
1.1158
1
1.10859
1.11343
1
1
1
1.10996
1.12095
1
1
1.11817
0.887543
1.02439
1
1.11947
1.11858
1.10918
1.11614
1.11871
1
1.11887
1
1
1
1
1.11911
1.11873
1
1.11711
1.01745
1.11869
1.11122
1
1
1.11158
1
1
0.891479
1.08505
1
1
1.12054
1
1.11953
1.10852
1
1.10824
0.888108
1.11835
1.11849
1.11863
1
0.89609
1
1
1
1.11844
1.09876
1
1.12106
1.11882
1
1.11859
1
1
1
1
1.11882
0.999805
1
1.11908
1
1
1.11638
1.11861
1
1.12055
1.02392
1.00001
1
1.11856
1
1.11855
1
1.00383
1.11865
1
1.11858
1
1
1.04059
1.11866
1
1
1
1
1
0.998841
0.887438
0.892768
1.00591
1
1.00955
1
1.00867
1
1.11865
1
1.07604
1
1.11854
1
1
1
1.11858
1
1.09487
1.11878
1
1.06649
1.11878
1
1
1.12007
1.1185
1
1
1.01426
0.88736
1
1.11876
1
1
1
1
1.02192
1.11878
1
1
1
0.891498
1
1.11855
1.11873
1.12062
1
1
1
1
1.06118
1.11968
1
1
1
1.11912
1.11848
1.01345
1
1
1
1.11852
1.11848
1
0.888857
1.11847
1.1186
1.11843
1.11815
1.11827
1
1
1.12013
1.11843
1.11858
0.892169
1.01138
1.11883
1
1
1
1
1
1.11884
0.892532
1
1
1.11856
1.05794
1
1.12036
1
1
1
0.896863
1
1
1.03266
1.11844
1.11854
1
1.11762
1.11956
1
1.022
1
1.11827
1
1.11896
0.889122
1
1
1
1
1.11858
1.00002
1
1
1
1.11711
1
1
1
1
1.11845
0.895123
1.09735
1.11934
1
1.11851
1
1
1
0.999154
1
1.11937
1
0.943058
1
1
1.00001
1.11846
0.894309
1
1.11789
1
1.11789
1.11863
0.892955
1
1
1.11249
1
1
0.897991
1
1.11811
1
1.1138
0.999802
1.11874
1
1
1
1
1.12067
1
1
1.11854
1
1
1
1
1
1
1
1
1.08081
1
1.0416
1.11854
1
1
1
0.88915
1
1
1
1
1.11869
1.11844
1.01687
1
1
1.11886
1
1
1.11874
1
1
1
1
1
1
1.11875
0.936962
1.1185
1.11908
0.999133
1
1
1
1.07282
1
1
1.1184
1.11864
1
1
1
1
0.893188
1
1
1
1.07887
1
1.11853
1.11923
1
1.11897
1
1
1
1.06741
1
1.12036
1
1.11849
1
1
0.998822
1.1185
1
1
1
1
1
1.11869
1.00001
1
0.893441
1.11808
0.894826
1
1.11837
1
0.998798
1
1.11876
1.1195
1
1.11512
0.964011
1.11847
1.11853
1.00001
1
1
0.888585
1
1
1
1.11859
1.07184
1.11831
1
1
1
1
0.999081
1.119
1
0.889127
1
1
1
1
1
1
1
1.12107
1.11884
1.11925
1
1
0.99912
1
0.996557
1
1
1
0.889418
0.99772
1
0.890653
0.891511
1
1.11861
1.1185
1
1.11901
1.11853
0.887171
1.08407
1
1
1
0.890344
1.1187
1
0.885873
1
1.11996
1.02581
1
1
1
1
1.1186
1.11977
1
1
1.11855
1
1
1.12117
1.1186
1
1.11025
1.11851
1.11993
0.988546
1.11886
1.00255
0.886793
1.09377
1.11852
1
1
1
0.891257
1
0.887269
1.11965
0.988817
1.11848
0.990394
1
1.11877
1.05634
1
1
1.11954
1
1.05113
1.11832
1
1
1.12036
1.11721
0.892373
1.07245
0.999969
1
1.07357
1
1.11895
0.984927
1.12199
1.12011
1
1
1
1
1.11466
1
1
1.1187
0.999893
1.11874
1.09746
1.11897
0.890137
1
1
1
1
1.11874
1.00001
1.11856
1
1.11881
1.11811
1.01641
1.12085
1.04159
1.11868
1
1.084
0.898349
1.11924
1.11878
1.10022
1.0252
1.11948
1.11849
1.1186
1.11839
1
0.977081
1.01919
1
1.11874
1.05802
1.11876
1.00001
1
1
0.902961
1.11777
1.11911
1.09881
1
1.0475
1
1.11953
1.11934
1
1.11892
1.11898
1
1
1
1.11903
1
1.05001
1.11773
1.08442
1
1.11873
1
1
1
1
1
1
1
1
1
1
0.896618
1
1.11063
0.887855
1.07165
0.999595
1.11782
1
1.06539
1
1.07989
1.10114
1
1.00054
1.12045
0.977411
1
1.11994
1.11603
0.982461
1
1.11897
1.11867
1.11909
1
1.11852
1.11899
1.11907
1
1.05882
1
1.00002
1.1188
1
1.1188
1.01873
1.11859
1
1
1.1181
1.11953
0.903738
1
1.11862
1.09121
1.11833
1
1
1.11916
1.11804
0.999504
1
1.10332
0.999105
1.11863
1.00001
1
1
1
1
1.05729
1
1.09347
1.11905
1.09113
1.11829
1
1.00043
1
1
1.12068
1
1.11928
1
1
1
1
1
1
1.01558
1.06604
1
1
0.888416
1
1.11795
0.894201
1.12088
1
1.06387
0.999929
1.11905
1.07931
0.893073
1.06868
1.00001
1.11868
1.11922
1
1.07527
1.11992
1.11896
0.999545
1.11857
1.11558
0.893506
1
1
0.999348
1
1.11622
1
0.894828
1.11815
1
1
1.10651
1
1.11893
1
1.11878
1
0.89433
1
1
1.11875
1.12086
1.12001
1
1.11833
1.11857
1.11679
1
1
1.11685
1
0.919061
1
1
1
1.11863
1
1.11846
1.08023
1.11889
1
1.11853
0.999824
1
1
1
1
1
1
0.906139
1
1
1.11846
1
1.11913
1.11752
1
0.889911
0.891782
1
1.11897
1.02059
0.890764
0.884407
1
1.11899
1
1.11946
0.880973
1.00051
1
1
0.999857
1
1
1
0.999975
1.05185
1.11864
1
1
1.11879
1.07225
1
1.10647
1.11803
1.11903
1.05209
1.11954
1
1.1186
1
1.1162
1
1.1191
1.11816
0.999044
1.11904
1.1192
1
1
1
1
1
0.976687
1.11932
1.00001
1.00001
0.883597
0.999994
0.888718
0.884245
1
1.1188
1.11869
1.11878
1
1.11842
1
0.88964
1
1
1.11907
0.948291
1.11828
1
1.11855
1
0.997788
1.11866
1
1
1
1.11912
1
1.11844
0.89359
1
1
1.07177
1
1
1.06834
1
1
1.11834
1
1
1
1
1
1.11997
1.11857
1
1.11922
1.11904
0.893479
1.05766
1.11841
1
1
1.10792
0.999723
1
1
1.11852
1.11915
1.08533
1
1.11895
0.896154
1.11133
0.999787
1
1.11871
1.00001
1.11883
1.09909
1.09323
1
1
1.11862
0.907095
0.892419
1
1.11852
1
1.11865
1
1.07254
1
1
1.11832
1.07974
0.88824
1
0.999471
1
1
1.00749
1.05133
1.1186
1
1.11966
1
1
1
1
1
1
1.01905
0.888366
1
1
1.01063
1
1
1
1
1
1.11841
1
1
1.11834
1.11846
1.08963
1
1
1
0.952717
1.11934
1.08569
1
1
1
1
1.11864
1
1
1
1.11875
1
1
1.08852
1.12189
1.00986
0.927259
1.11815
1.08754
1.11897
1
1.06387
1
1
1
0.87998
1.00068
0.891482
1
0.880606
0.888489
1
0.893303
1
1
1
1.05644
1
1.11896
1.11862
1.00043
1.06123
1.10187
0.891125
0.934053
0.969592
1
1.1185
1.12019
1.1185
1.1186
1.10343
0.963412
1
1.10367
1
1.11381
1
1
0.999013
1.00272
1
1
1
1.11908
1
0.887265
1
1.11888
0.896712
1
1
1.11859
1
1.11848
0.999769
1
1
1.11878
1.11224
1
1.12401
1
1
1.00437
1
1.05494
1
1
0.893759
1
1
1.11819
1
1.11838
1
1.00001
0.893949
1
1
0.88658
1.00031
1
1.11947
0.888843
1.1186
0.893247
1.11862
1
1
1
1
1
1
1
1
1
1
1
1.11417
1
1.11903
1.12056
0.88686
1
1
1
1
1
1
1.11559
1
1
0.892781
1
1
1.11969
1
1
1.04747
1.10099
0.895143
0.879847
0.902161
0.918499
1
0.999077
0.884478
1.00012
1.10844
0.99914
1
1
1.11877
1
1
1
0.934747
1
1.04496
1
1
1.05243
1.11843
1
0.885592
1
1
1
0.999035
1
1.1184
1.11862
1
0.894165
1
1.0676
0.889378
1
0.970221
1
0.998728
0.886992
1
1
1
0.998738
0.89301
1
0.88057
0.999546
1.06641
1.10835
0.886575
0.8972
1
0.997355
1
0.999616
1
1.11863
1.1183
1
1.00691
1.11874
1.11867
1
1
1.11859
1
1
1.00001
1
1.11867
1
1
1.00493
1
0.999587
0.898673
1
1
1
1
1
1.1178
1.0105
1.00001
1
1
1
1
1
1.00001
1
0.892665
1.02948
0.999592
1.1148
1.11854
1
1.00422
1.11875
1.10497
1
1
0.886156
1.11915
1
1.12008
1
1.11831
1.08231
0.892769
1
0.890217
1.11304
0.999911
1
0.888308
0.886673
1
1
1.10218
1
0.999999
0.890046
1
1
1
1.04029
1
0.886363
1.11891
1
1
1
1
1.11859
1
1
1.11988
1.10775
1
1
1
1.11974
0.893041
1
1.11906
1.11856
1
1.09678
1
1.00001
1
1
1.11049
1.00599
1
0.896692
1.06614
1
1
0.999349
1
1
1.12099
1
1
1.00001
1
1.11901
1
1
1
1
1
1
1
1.05634
1
1.11875
1
1
1.11898
1
1
1
1.1186
1.1177
1.01277
1
0.999283
1
1
1
1
1.11992
1
1
1.11842
0.888719
1
1
1
1
1
1
1.09756
1
1
1.11939
1.11915
1
1
1
1.11887
1.11814
1
0.99992
1.11875
1
1
1
1.00001
0.892994
1.00872
0.998835
0.998847
1
1
0.882671
1.11871
1
0.891752
1
1.11894
1.11424
0.895644
0.99983
1.11862
1.1188
1.11833
1
1
0.980645
1.10979
1.10063
0.888619
1
1
1
1.11905
1.11844
0.89174
0.999227
1
1.11863
0.887546
1
1.11505
0.890027
0.993578
1.00186
1
1.11739
1
1
1
1
1
1
1.00003
1.11138
1
1
1.11781
1
1
1
1.11855
1
0.890333
1
1
1
1.04325
1
1
1
1
1
0.932725
1
0.889941
1
1.11863
1.00001
0.96432
0.963159
1
1.00093
1.06638
1
1
0.887877
1.11852
1.11866
1.11852
1
0.886793
0.887369
1
1.11846
1
1
1
1
1
1.00001
1
0.89475
1.08056
1
1
0.892731
0.999157
1
1
1
1
0.883962
1
0.903401
1
1
1.12001
1
1
0.886937
1
1.11861
1
0.891313
1
0.891823
1
1.00217
1.11851
1.12432
1
1
1.11997
1
1
1.02988
0.999104
1
0.99947
1
1.11936
1
0.894028
1
1.12063
0.999668
1
1
0.94061
1
0.999714
0.887395
1.11897
1.04765
1
1
0.973372
1
1
1
0.940737
1
1
1
1.11856
1
0.892915
1
1
1
1
0.88672
1.11857
1.11261
0.889707
1
1.11948
1
1
1.1186
1.11957
1.10148
0.88935
0.999329
0.999784
1
1.11857
1
1
1
1
1.11816
1.00001
1
1
1.12069
1
1
1.11853
0.890777
1
1
1
0.890529
1
1
1
0.999621
1
1
1
1
1.09434
1
1.11956
1.11944
1.12066
1.1187
1.11867
1.11851
1
1.11892
1
1.11871
1.11856
1
0.999689
0.894679
1.10264
0.999977
1
1
1
1
1.00067
1
1.02
1
1
1
0.957707
1.11851
1.11806
1.11966
1.10363
0.999965
1
1.00616
1.11882
0.9994
1.01914
0.999172
0.89003
1
1.00001
1
1
1
1
1
1.11855
0.89066
1.1185
1.11852
0.998567
0.890738
1
1
1
1.11852
0.889861
1.10625
0.88329
1.11871
1.12033
0.892014
1.11827
1.00697
1
1.11947
0.942834
1
0.999675
0.892345
1
0.8899
1
1.11854
1.1186
0.921912
1
1.11915
0.890936
1
0.890798
1
1.11853
1
1
1.11701
1
0.949802
1
0.999914
0.890405
1.11755
0.999848
1
0.88219
1
1
1
1
1.06921
1
1.11833
1
1
1.12237
1
1
1.11884
1
0.891867
1
0.897726
1
1
1
1
1
1.11386
1.07211
1.11848
1
1.11852
1.11114
0.88499
0.886413
1
1
1.11849
1
0.890369
1
0.998979
1
1
1.11862
1
1.1187
0.894415
1.12249
1
0.890978
1
1
1.1195
1.11828
1
1.00001
1
1.11936
1
1
0.884351
0.999835
0.881614
1
1
1
1.11897
1.11944
1.11953
1
1
0.887407
1
1.1196
1
1
1
1.1142
1.11857
1.11862
0.892959
1.11917
1.11845
0.897144
1.11923
1.00001
0.894875
1.00448
1
1
1.11893
0.890418
1.07958
0.891182
1.11842
0.999242
0.889802
1.11918
1
1
1
1
1.11855
1.11986
0.892298
1
1.00001
0.88808
1.00001
1
0.883863
0.893334
1.08488
1.11856
0.999567
1.11863
1
1.12017
0.951973
0.88664
1.11856
1.12155
1
1.11854
1
1
1.11854
1
1.09301
1.11929
1
1
1
1
1.11842
1.11732
1.11869
1
1
1.11916
1.12043
1.11847
1
1.11833
1
1
1
1
1
0.887039
0.953339
0.891953
1
1
1.11885
1
1
1.11855
0.882682
1
1.11866
1.1173
1.11414
0.888029
1
0.890321
1
1.00001
1.11974
1.05848
1.12015
1.10928
1
0.891673
1
1.11816
1.08754
0.89405
1
1
1
0.938602
1
1
1.12128
1
0.8949
1.1186
1
1
1
1
1
1.09684
1.02948
1
1.11932
1
1.11895
1
0.999199
1
1.11869
1.11978
1.1184
1.11981
0.999884
1.11997
1
1.11855
1.11808
1.10226
1
1
0.889496
1.11875
1
1
1.11894
1.11858
1.11899
1
1.11875
1
1
1.00001
1.11993
1.11777
1.03682
1.02718
1.11856
1.11837
0.90962
1
1
1
1
1.00001
1.04441
1
1
1.10525
0.884605
0.999989
1
1.11868
0.999965
0.999945
1.0195
1.10659
1.11915
0.976057
1
0.878521
1
1.0027
1.11854
1.11906
1.11903
0.999742
1
1
0.890756
1
1
1.11855
1.01372
1
1
1
1
1
1
1
0.999981
1.11949
1
1
1
1
1
1.07615
1
1.05963
1
1
1.11847
1.1199
0.89245
0.999642
1
1
1
0.891661
1.11989
1.11864
1
1
1
1
1
1
1
1
1.11833
1.11744
0.891739
1.01438
0.890608
1
0.882521
1
1.11863
1.03554
1
1
0.909807
1
1.11382
0.940472
0.999145
0.888847
1
1
1.11966
1.00001
0.999256
0.880197
1.11956
1.11931
1
1
1
1
1.11158
1
1
1.11854
0.999714
1.11927
1.00003
1
1
0.897168
1
1
1.1189
0.884182
0.930651
0.892154
1.11861
0.999811
1
1.11921
0.88613
0.895938
1.00545
1
1
1.11974
1.00001
1.05528
1
1
1.12001
0.889589
1
1
1.00004
1.11948
1.00004
1.11726
1
1.00001
1
1
0.916408
1
0.938381
1.00001
1
1.11875
0.898405
1
0.935269
0.935833
1
1
1.11881
1
1
1
1.11826
1.11869
1.00002
1.11777
1.11999
0.934889
1.11853
1.11198
1
1
1.11962
1
1
1
1
1
1.12022
1.11859
1
1
1
1.11867
1.00006
1
0.886711
0.91602
1
1.00001
1.04595
1
1
0.971708
0.892401
1
1
1
1.11979
1.10974
1.11857
1
1
1
1
0.884292
1
1.11409
1
1.11911
0.888123
1.11703
1
1
1
0.889836
1
1.11904
1.00001
1
0.89333
1.04825
1
0.999902
1.12165
0.888628
0.890898
1
1.11955
0.884803
0.886795
1
0.894547
1
1
1
1
0.893266
1
1
1
1
1.11946
1
1.09288
0.884232
1
1
1
0.891684
1.11843
1
1
0.999006
1.11612
1
1.11853
1.11913
1
1
0.910422
0.894198
1
1
0.894774
1.04084
1.05773
1
1
1.12
0.999248
1
0.999379
1.12044
1
1
1
1
1
1
1.11871
1
1.04484
1.0419
0.906709
1.10679
1
1.11857
1.11852
1
1
1
0.975039
0.887408
1
1.06571
0.999904
1.10832
1
1
1
1
1
1.00175
1.05557
1.11885
1.11883
1
1.11869
1
0.900023
1
0.999329
0.99994
1
0.890043
1
0.891516
1.00001
1.11938
1.11992
0.892195
1.11962
0.889407
0.998899
1.09194
0.885239
1.08849
1
1
0.999548
1
1
1
1.00002
1
0.888447
1
1
1
1
0.999885
1.11864
0.946648
1
1
1
1.01055
1
1
1
1.07004
0.92297
1
1
1
1.01596
1.11902
1
0.893932
1
1.11896
0.971378
0.890376
1
0.892253
1
1
1.11265
0.999497
1.11248
1
1.00252
1
1
1.1184
1
1
1
1
1.02567
1
1.11854
1.11903
1.11879
0.883153
1.11876
0.999192
1.09907
1
1
0.88987
1
1
0.890267
1.11789
1
1
0.999983
1
1
1
0.882282
0.892783
1
1.12053
1
1.05934
1.11869
0.89277
1.10198
1
1
0.890201
1
1
1.11864
1.11842
1.04839
1
1
1.00061
1.11962
0.884327
0.88793
1.11959
1.11848
1.08327
1.0505
1
0.97139
1
1
1
1.11104
1.12
1.11912
1
1
1.11842
0.885432
1.10772
0.884445
1
0.892694
1
0.890867
1.11863
0.886634
1
0.996398
0.901083
1
1
1
0.958769
1.11298
1.11871
1.11932
1.1199
1
1
1.11937
1
1
1.1193
1
0.894407
1
0.893777
1
1.11931
1
1
1.00871
1.09267
1
0.999662
0.882507
1.11854
1
0.890248
1.02524
1
1
1.0914
1.11843
1.1184
1
1.11875
1.03319
1
1.0068
1.11847
1
1
1
1
1.11852
1
0.889254
1.11892
0.889721
0.896318
0.948031
1.11873
1.04474
1.11852
1
1.12024
0.999233
1.00001
1.11866
1.11977
1
1.11948
1
1.11849
1
1.11994
1
1.00001
0.999999
1.11895
0.887334
0.890346
0.999343
1
1
1
0.890687
1
1.08183
1
0.88185
1
1.05078
1.11863
1.11882
1
1
1.00001
0.999837
1
1.11958
1.11848
1
1.05394
1.1188
0.959704
1.11854
1
0.889846
1.02838
0.893402
1
1
1.02197
1.12044
1
1
1.01345
0.999587
1
0.885417
1
0.932548
1
1.11821
1
1
0.893199
1.02944
1.02028
0.999565
1.11865
1.11853
0.931405
0.999462
0.891178
0.891019
0.890516
1
1
1
0.999735
0.916452
0.898383
1
1.11847
0.999922
1.11853
1.11887
1.12018
1.11837
1
0.883491
1.1188
0.887516
1
1.11831
1.11956
0.999078
0.950223
1.11834
1.08828
1
0.887826
1
1
1.11795
1
1.00759
1.11852
1
0.893721
0.889046
1
1
0.884637
0.879611
1.11854
1.00002
1
0.891762
0.878126
1.11785
1.11741
1.11164
1.11958
1.03472
0.996259
1.05016
1.12117
1.09765
1
1.06603
1
0.884039
0.962683
1
0.887841
1.1185
1.00647
1.11881
1
1.11868
1.11929
1
1.11853
1.11857
0.886782
1.11961
1
1.12338
1
0.922887
0.892082
1.11827
1
1
1
0.891418
1.1188
1.11883
1
0.894927
1
1
0.890429
1.00001
0.881552
1.12011
1
0.949353
0.87983
1
1
1.07181
1
1
1
1.02152
0.893019
1
1
1
1.11885
0.888212
1
1.11854
0.884659
0.894282
1
1
1.11964
1
1.1184
1
1.1185
0.89111
1
1
0.894736
0.946541
0.890776
1
1
1
1
1.11865
0.890287
1
0.889932
1
1.11872
1
1
0.980752
1
1
0.950813
0.999904
1.00001
1
0.887576
0.892676
1
1
1
1
0.934759
1.11823
1.1198
1
0.892448
0.881772
0.977374
0.895569
1
0.941783
1
0.89861
0.995481
1
1
0.890923
1
1.11885
1.11706
0.891692
1
1
1
1.11904
1
1.01267
0.954187
1.04177
0.893374
1.05126
0.886979
1
1
0.912239
0.97439
1
1.01215
1
1
0.891638
1
0.982676
1.01416
0.889846
1
1.09865
0.929192
0.967144
1
1
1
0.891012
1
0.890613
0.894941
1
0.955911
0.893285
1.02153
0.925596
0.89508
1.11858
1
1.11843
1.06771
0.914345
1.11851
0.888572
0.999707
1.11969
1
1
1.11853
1
0.910346
1
1.02153
1
1
1.11856
1
0.926322
0.944662
1.12067
0.981456
1
0.920478
1.11866
1.11975
0.974414
1
1.11869
1.0343
0.954219
1
1.0068
1
0.894663
1.0541
0.935425
0.921999
1
1
0.898122
1.11836
0.993666
0.889349
0.889697
0.964947
1
1.00662
1.11954
1.11838
1
1
1
0.893642
1.05831
0.999996
1.11892
1.11304
0.890517
0.999999
1.02826
0.96435
1.07253
1.1047
1
1.01285
1
1.00001
0.883074
0.95327
1
1
0.944576
0.883183
1.00996
1
1.00001
0.888911
1.05796
1
1.11879
1
1.01055
1.06773
1
1.11732
1
1
1.11897
1
0.88334
1.11932
0.903746
1.03445
1
0.895914
0.999973
1
1.00001
1
0.930403
1.00798
0.890977
1.08886
1.12039
0.880389
1
1
1
1
1
0.993839
0.888854
1.01576
0.889563
0.888218
1.02408
1
0.999942
1.03356
1
1
0.896795
0.999911
1
1
1.03628
1
1.1198
1
1.11922
1.02849
1.00607
0.893683
1
1
0.889376
1
1
1
1
1.1186
1.01239
0.999441
1
0.884852
1.01496
1
1
1.08109
1
0.887386
1.11829
1
1
1
1.11899
0.895485
0.965741
0.879296
1.0919
1.11839
1
1
1.11845
1
0.877982
1
1
1
1
1
0.931179
1
1.11903
1
1
1.04559
1.11958
0.895654
0.965611
1
1.11856
1
1
1
1
1
1.11857
1.11956
0.880442
1.1185
0.881392
1
1
1.11858
1
1.11965
1.00137
1.00766
1.02171
1.11883
1.02024
1.08377
0.88348
1
0.885609
0.995517
1
1.11855
1
1
0.882654
1.11869
1
1.11963
1
1
1
1
1
1
0.891873
1.11984
0.952457
1.11863
1
0.89561
0.894166
0.90721
1.12029
1.1185
0.993716
1
0.937993
1
1.05143
1
1.11876
0.884764
0.887472
0.95936
1
1.1184
1
1.02188
0.902507
1
1.12018
1.10824
0.999667
1
1.11874
0.892722
1.11986
1.11881
1.11966
0.889636
1.02687
1
1
0.888338
1
0.939045
0.945691
1
1.00001
1.11885
1
1.11899
1.02711
1
1.01022
1.12058
1
0.894883
1
0.92459
1
1
1.09935
1
0.933854
1
0.893066
1.01083
0.988016
0.879292
1.11876
1.09932
1.11919
0.889878
0.906578
0.998856
1
1
0.907968
1.11229
0.887269
0.999991
1
1.11849
1.11911
0.974106
1
0.890306
0.91649
1.08261
0.99287
0.882037
1
0.884916
1.03201
0.895073
1
1.00002
0.943911
1.11969
1.11865
0.955975
0.999883
1
1
0.909572
1
0.888012
1
0.881915
0.890333
1
1
1.00001
0.893983
1.11857
1
1
1.00002
1.00001
0.89144
1.11827
1.11862
1
0.89168
1.11949
1
1.02826
1
1
1.11846
0.890974
1
1
0.889653
0.922702
0.892737
0.89799
1
0.906602
0.99921
1.02705
0.883057
1
1
1.03659
1
1.10662
1
1
1.08787
0.907726
1
0.8894
1.03405
1.11878
1
1
0.895542
0.889921
0.881598
0.918169
0.88892
1.09171
0.999827
1
1
1
1
1.11864
0.887574
1
0.982084
0.999907
0.999591
0.999981
0.929622
1.03652
1
1.11858
1.11839
1
1
1.1155
1.00001
1
1.1185
0.893745
1.11647
1
0.886152
1.11856
1.00002
1
0.948371
1
0.887308
1
1.11925
1
1
1.11923
1
1
1.11841
1
1
1
1.1202
1
0.92812
0.912204
1
0.882244
1.11858
1
1
0.991404
1
1.11945
1.07271
1.09709
1
1
0.887836
1
0.883012
1.11865
1.11933
1.11896
1
1.1201
0.890678
1
0.882288
1.09688
1.11127
1.11875
1.1186
0.926105
0.885218
1
1.07939
1.11941
1.1193
1.11856
0.918372
1.04725
1
1.0922
0.921466
1
1
1
1.00001
0.968643
1
1.1177
1
1
1
1
1
1
1.00002
1.11768
1
1.11945
1.09116
0.888854
1.12014
1.00906
1.06401
1
1.11855
1
0.887424
1
1
1
1
1.1022
1
0.885185
1.11887
0.886816
1.1187
1.09579
1.06556
1
1.02497
1.05814
0.998754
0.889199
0.924588
1.00001
1
0.977062
1
0.884663
1.11927
0.895101
0.982139
0.958692
1
1
1
1.00424
1
1
0.888989
0.998982
1.12061
1
1.11849
1
0.885439
1
1
1.11859
1.11829
0.883677
1
1.11918
1
0.943035
0.894934
1.11944
1.10754
1
1.02267
1.11884
0.999619
1
1.05342
1.10597
1.11811
0.998705
1
0.999999
1.10175
1
1
1
1.11856
0.99957
1
1
1.11843
1
1
0.896295
1
1
1
1.11952
1
1
0.955968
1.03976
1.10902
0.934136
1
1.11878
1
1.04305
1
1.11954
0.999213
1.11857
1
0.889997
1
1.08665
1
1
1.11167
1
1.11861
1
1.11789
0.907229
0.888396
1.11954
1
1.10121
1
1.11893
1
1
1.00001
1.11905
1.11937
1.03243
1.11853
0.998867
0.894314
1.11854
0.964712
1
1.119
1
1.11814
1
1.11912
1.11902
0.998963
0.889963
1
1.11862
1
1.0108
1
1
0.999418
0.922241
1.10751
1
1.11165
1
0.964631
0.889269
1.11857
1.11856
0.907019
1
1.11884
1.11997
1.11922
0.894414
1.11833
0.893847
1.11891
1.11899
1
1
1.11855
1
1
1
1
0.888926
1
1
1.11901
1.11862
1
1.11862
1
1.1205
1.11911
1
1.10095
1
0.882303
1.11854
1.08986
1.03486
0.884984
1.11852
1
1
0.88533
1
1
1.11854
1
1
0.936637
1
1.11853
1.00002
1.11877
0.890496
1.12006
1
1.11873
1.11469
0.96888
1
1.11831
0.923776
1.12041
1.08665
1.11849
1.11809
0.9991
1.12044
1.11836
1.11856
1.11843
1.00008
1
0.888887
1
1.12022
0.947433
1.10925
1
1.11674
1
1
1
1
1
1.11794
0.888736
0.892984
1.11906
1.11855
1
1
1
1
1
1.11762
1.10885
1.11856
1.00874
1
1
1
1.00001
1.11824
1.11854
1
1.1193
1.11968
0.896618
1.08592
1
1.11867
1.11941
1.11789
0.999355
1.11878
1.11852
1
1.10743
1
1
1
1
1
1
1.11856
1.12041
1.11144
1.11859
0.891813
0.911767
1.11856
1.11856
1
0.884513
0.984223
1
1.05983
0.883734
1
0.999845
0.999508
0.886918
1
1.11868
1
1
1
1.11953
0.988782
1
1.11857
1.11864
1
1.11911
1
1
1.11854
1
0.88772
1
1.1183
1
1
0.896407
1
1.11856
1
0.883244
0.882617
1
1.1144
1
0.884453
0.965875
1
1.11845
1
1
1
1.11957
1
0.887325
1.01726
1.11891
1.11903
1.11837
1.01212
1.11903
1.11855
1
1
1
1
1
1.11863
1
0.999804
1.11826
1
0.8818
1
1.11852
1.05756
1.01615
1.05764
1.01961
1.11633
0.904643
1.1186
1
0.891379
0.999175
1.11864
0.981949
1.11864
1.11865
1.11476
1
1.11884
1.11863
1.11859
1
1.00001
1
1
1.1193
1.08768
1
1
0.888028
0.999046
1
1.11865
1
1.11849
1.11875
1.11836
0.974912
1.11876
1.11845
1.00115
1.05956
1.11909
1.11863
1
1.11019
0.945244
1.11843
0.99788
1.11842
1
1.11851
1.11835
1
0.895827
0.982145
0.907468
1
1.02484
0.998997
1.11926
1
1
0.999094
1
1.06206
1.11207
1
1
1.1188
1
1
1.08779
1.11869
1.11448
1.11865
1.11824
1
1.11823
0.909081
1.1197
1
0.998848
0.888837
1
1
0.918881
1
1.04112
1
1.11895
1
1.11655
1.078
0.887327
1
1
1
1
1
1.11915
1.0033
1
1.11951
1
1.11874
1.11854
1
1
0.993701
0.999956
0.88617
0.884171
0.915209
1.02639
1
0.999541
0.889492
1.00001
1
1.1183
0.983379
1.11152
1.10215
1
1
1
1
1
1.11861
1.11862
1
1.11829
1
1.11931
1.08309
0.998971
1
1
1
1.07229
1
0.988788
1
1.11876
1
1
1.11848
1
1
1
1
1
1.11872
0.887779
0.998866
1.10738
1.11851
1
1.11855
1
1
1
1
0.900665
1
1.1187
1.11853
1.11864
1.12028