/*--------------------------------*- C++ -*----------------------------------*\
  =========                 |
  \\      /  F ield         | OpenFOAM: The Open Source CFD Toolbox
   \\    /   O peration     | Website:  https://openfoam.org
    \\  /    A nd           | Version:  12
     \\/     M anipulation  |
\*---------------------------------------------------------------------------*/
FoamFile
{
    format      ascii;
    class       volScalarField;
    location    "7.86";
    object      rho;
}
// * * * * * * * * * * * * * * * * * * * * * * * * * * * * * * * * * * * * * //

dimensions      [1 -3 0 0 0 0 0];

internalField   nonuniform List<scalar> 
22702
(
1.40001
1.40001
1.26363
1.40001
1.44881
1.40001
1.83872
1.40001
1.40001
1.03008
1.83916
1.83672
1.40001
1.84111
1.28046
1.40001
1.40001
1.40001
1.8401
1.40001
1.84238
1.40001
1.84057
1.0129
1.84258
1.03237
1.40001
1.83635
1.04273
1.02744
1.40001
1.83625
1.40001
1.40001
1.40001
1.80986
1.84025
1.84013
1.40001
1.40001
1.00463
1.40001
1.62305
1.40001
1.83558
1.40001
1.40001
1.40001
1.40001
1.02556
1.40001
1.02583
1.40001
1.83882
1.40001
1.83619
1.40001
1.40001
1.40001
1.40001
1.04208
1.40001
1.40001
1.05009
1.40001
1.01802
1.40001
1.40001
1.40001
1.01479
1.40001
1.8408
1.67174
1.40001
1.84116
1.86545
1.02013
1.84099
1.0187
1.40001
1.83978
1.03724
1.83878
1.8395
1.40001
1.40001
1.40001
1.40001
1.33164
1.02303
1.83942
1.40001
1.40001
1.04824
1.40001
1.84232
1.04769
1.40001
1.40001
1.40001
1.40001
1.62239
1.8394
1.01439
1.40001
1.40001
1.50494
1.40001
1.02424
1.40001
1.84017
1.83706
1.40001
1.40001
1.03841
1.05778
1.02683
1.40001
1.40001
1.40001
1.40001
1.40001
1.31222
1.40001
1.77835
1.43624
1.84147
1.40001
1.84166
1.8399
1.84197
1.84019
1.40001
1.01084
1.40001
1.05064
1.40001
1.40001
1.40001
1.40001
1.83697
1.40001
1.40001
1.40001
1.40001
1.84526
1.40001
1.42671
1.40001
1.40001
1.40001
1.40001
1.0218
1.40001
1.41049
1.40001
1.0203
1.40001
1.40001
1.40001
1.8383
1.40001
1.84182
1.05828
1.04143
1.83932
1.83923
1.40001
1.47613
1.65074
1.40001
1.83953
1.01766
1.81055
1.40001
1.40001
1.40001
1.40001
1.84117
1.76875
1.40001
1.83807
1.04393
1.83763
1.40001
1.03755
1.40001
1.02832
1.04266
1.39979
1.40001
1.40001
1.83923
1.40001
1.40001
1.84224
1.40001
1.83897
1.83758
1.02207
1.40001
1.40001
1.03462
1.84138
1.40001
1.40001
1.40001
1.84165
1.40001
1.04186
1.40001
1.40001
1.84179
1.84176
1.83971
1.40001
1.40005
1.40001
1.40001
1.40001
1.84176
1.40001
1.0182
1.85534
1.84117
1.84179
1.40001
1.40001
1.40001
1.00676
1.84238
1.61259
1.40001
1.84311
1.0251
1.03538
1.84324
1.84335
1.40001
1.83748
0.983076
1.79079
1.40001
1.40001
1.40001
1.40001
1.84229
1.40001
1.66402
1.44205
1.40001
1.40001
1.84194
1.04628
1.16643
1.40001
1.84178
1.03497
1.83765
1.40001
1.40001
1.40001
1.40001
1.40001
1.40001
1.40001
1.02399
1.13958
1.03639
1.84159
1.40001
1.40001
1.40001
1.40001
1.79622
1.40001
1.02399
1.40001
1.00355
1.03217
1.84142
1.01714
1.8423
1.40001
1.40001
1.40001
1.39749
1.03641
0.991392
1.4
1.40001
0.998286
1.40001
1.83844
1.01086
1.40001
1.40001
1.8407
1.05038
1.40001
1.84877
1.05281
1.84178
1.40001
1.01478
1.39776
1.40001
1.40001
1.40001
1.02239
1.40001
1.40001
1.4
1.40002
1.41077
1.67419
1.40001
1.05411
1.40001
1.40001
1.40001
1.40001
1.40001
1.40001
1.40001
1.84082
1.40001
1.84097
1.40001
1.40001
1.40001
1.05259
1.40001
1.8447
1.02007
1.40001
1.762
1.40001
1.40001
1.83978
1.40001
1.40001
1.40001
1.82802
1.40001
1.40001
1.83453
1.83793
1.40001
1.49395
1.40001
1.40001
1.04792
1.40001
1.40001
1.40001
1.0565
1.40001
1.40001
1.40001
1.40001
1.0727
1.40001
1.40001
1.40001
1.40001
1.40001
1.01438
1.40007
1.84108
1.40001
1.39999
1.83965
1.83865
1.40001
1.40001
1.03623
1.22427
1.83793
1.40001
1.40001
1.40001
1.84143
1.01515
1.40001
1.842
1.40001
1.40001
1.07922
1.07791
1.40001
1.0312
1.04211
1.40001
1.40001
1.40001
1.40001
1.40001
1.40001
1.40001
1.8412
1.50565
1.8229
1.02497
1.31327
1.83819
1.40001
1.84352
1.83813
1.03954
1.19351
1.40001
1.0481
1.40001
1.85321
1.40001
1.40001
1.40001
1.40001
1.84141
1.40001
1.40001
1.40001
1.40001
1.40001
1.40001
1.40001
1.56373
1.83847
1.40001
1.84164
1.40001
1.40001
1.03912
1.40001
1.40001
1.40001
1.40001
1.84183
1.73475
1.40001
1.40001
1.02333
1.84092
1.84175
1.40001
1.84171
1.84188
1.84168
1.40001
1.23703
1.40001
1.84203
1.38638
1.84169
1.40001
1.04461
1.39881
1.83901
1.40001
1.40001
1.40001
1.40001
1.0227
1.8418
1.80176
1.40001
1.84198
1.84147
1.83863
1.40001
1.60426
1.84273
1.40001
1.40001
1.70839
1.46461
1.84161
1.33538
1.84165
1.40001
1.8416
1.84158
1.8417
1.84072
1.40001
1.82022
1.31563
1.26738
1.40001
1.4
1.40001
1.40001
1.84887
1.40001
1.40001
1.40001
1.40001
1.40001
1.83878
1.40001
1.40001
1.39619
1.84167
1.78817
1.40001
1.76469
1.40005
1.40001
1.40001
1.84096
1.40001
1.39731
1.40454
1.40001
1.84194
1.40001
1.84226
1.40001
1.40001
1.72867
1.40001
1.84179
1.40003
1.40001
1.84014
1.40001
1.84167
1.40001
1.40001
1.40001
1.84231
1.40001
1.84416
1.40001
1.84201
1.8388
1.84207
1.84077
1.40001
1.83676
1.84097
1.40001
1.03913
1.81445
1.71967
1.40001
1.84157
1.40001
1.04896
1.05981
1.40001
1.40001
1.40001
1.40001
1.40001
1.04447
1.40001
1.84169
1.5095
1.84103
1.40001
1.40001
1.40001
1.40001
1.40001
1.84143
1.40001
1.84312
1.66017
1.19512
1.40001
1.40001
1.52466
1.5126
1.40001
1.40001
1.55663
1.40001
1.0342
1.84141
1.84177
1.40001
1.40001
1.40001
1.83848
1.40001
1.40003
1.84028
1.84208
1.34779
1.40001
1.40001
1.03003
1.80075
1.40001
1.40001
1.40001
1.40001
1.40001
1.84177
1.83694
1.40001
1.84011
1.84218
1.84211
1.40001
1.40001
1.40001
1.40001
1.01488
1.8383
1.40001
1.40001
1.8026
1.84051
1.40001
1.81634
1.84012
1.40001
1.40001
1.40001
1.40001
1.40001
1.84186
1.40001
1.40001
1.40001
1.40001
1.8505
1.40001
1.83277
1.04325
1.40001
1.03098
1.40001
1.40001
1.40001
1.3969
1.02795
1.39905
1.40001
1.40001
1.40001
1.46047
1.40001
1.40001
1.26389
1.40001
1.40001
1.40001
1.40001
1.40001
1.40001
1.40001
1.4
1.33701
1.4
1.40001
1.39765
1.40001
1.02327
1.40001
1.40001
1.40001
1.40001
1.72964
1.40001
1.40001
1.40001
1.40001
1.02897
1.40001
1.40001
1.81616
1.83909
1.4
1.40001
1.40001
1.26083
1.40001
1.40001
1.40001
1.40001
1.40001
1.40001
1.35155
1.41147
1.84149
1.40001
1.40001
1.40001
1.84166
1.29601
1.40001
1.40001
1.40001
1.83808
1.83561
1.40001
1.40001
1.40001
1.40001
1.40001
1.40001
1.40001
1.40001
1.40001
1.05324
1.40001
1.40001
1.83932
1.04334
1.40001
1.83852
1.40001
1.01888
1.40001
1.40001
1.04664
1.40001
1.40001
1.40001
1.40001
1.40001
1.40001
1.40001
1.83329
1.84099
1.40001
1.40001
1.40001
1.40001
1.80337
1.40001
1.54369
1.0387
1.40001
1.40001
1.40001
1.40001
1.40001
1.40001
1.40001
1.43324
1.40001
1.40001
1.62683
1.40001
1.40001
1.40001
1.7653
1.40001
1.40001
1.40001
1.40001
1.04354
1.40001
1.40001
1.03238
1.04738
1.40001
1.40001
1.84172
1.40001
1.41044
1.40001
1.40001
1.40001
1.70959
1.0125
1.40001
1.00901
1.40001
1.15402
1.40001
1.40001
1.40001
1.841
1.40001
1.40001
1.84157
1.40001
1.40001
1.40001
1.84116
1.40001
1.40001
1.84222
1.40001
1.40001
1.03761
1.40001
1.54437
1.40001
1.40001
1.8363
1.84055
1.69817
1.79598
1.40001
1.04905
1.40001
1.40001
1.82225
1.40001
1.03538
1.40001
1.40001
1.40001
1.84228
1.40001
1.40001
1.40001
1.40001
1.66243
1.40001
1.80635
1.8434
1.04205
1.40001
1.40001
1.02138
1.03568
1.40001
1.40001
1.40001
1.71515
1.73325
1.40001
1.40001
1.40001
1.40001
1.40001
1.40001
1.40001
1.58362
1.83821
1.4038
1.40001
1.8362
1.0134
1.40001
1.40001
1.40001
1.64555
1.40001
1.4865
1.40001
1.80262
1.83996
1.40001
1.04153
1.40001
1.83722
1.40001
1.40001
1.84306
1.81418
1.40001
1.83952
1.40001
1.04121
1.40001
1.40001
1.40001
1.84916
1.83303
1.78919
1.40001
1.83861
1.84148
1.40001
1.84239
1.40001
1.84002
1.40001
1.03338
1.36118
1.04541
1.40001
1.40001
1.40001
1.40001
1.40001
1.8419
1.40001
1.84196
1.40001
1.40001
1.40001
1.81998
1.40001
1.01835
1.84216
1.40001
1.03597
1.03386
1.01937
1.40001
1.62195
1.43736
1.8434
1.84178
1.40001
1.4
1.40001
1.40001
1.84214
1.40001
1.40001
1.84221
1.84152
1.40001
1.5559
1.39962
1.40001
1.39686
1.83996
1.25758
1.40001
1.22982
1.0243
1.03719
1.35532
1.83955
1.8359
1.48741
1.84215
1.84228
1.40001
1.40001
1.83889
1.84011
1.84223
1.83694
1.40001
1.84198
1.03253
1.84509
1.84122
1.84025
1.84356
1.24653
1.2957
1.33109
1.84272
1.35925
1.83963
1.40001
1.40001
1.84358
1.84246
1.40001
1.0457
1.83915
1.84201
1.40001
1.8425
1.842
1.40001
1.84211
1.03365
1.84142
1.83906
1.83736
1.84387
1.40001
1.40001
1.40001
1.84207
1.68677
1.02898
1.84121
1.03471
1.84209
1.40001
1.40001
1.40001
1.40001
1.84341
1.84132
1.40001
1.40001
1.84143
1.03246
1.8427
1.02202
1.40001
1.83897
1.40001
1.02832
1.84321
1.1092
1.40001
1.8418
1.84413
1.8423
1.40001
1.40001
1.619
1.84325
1.02533
1.8421
1.40001
1.84168
1.28293
1.8444
1.04107
1.40001
1.84294
1.06283
1.84367
1.02389
1.40001
1.84224
1.40001
1.84089
1.40001
1.65706
1.82503
1.74724
1.01629
1.40001
1.84362
1.40001
1.84149
1.40001
1.84178
1.40001
1.40001
1.84115
1.37585
1.84456
1.04035
1.79183
1.40001
1.71259
1.40001
1.84044
1.84156
1.84231
1.40001
1.79772
1.84249
1.80825
1.66781
1.84426
1.40001
1.69732
1.40001
1.84289
1.40001
1.46857
1.40001
1.8088
1.40001
1.84164
1.82179
1.82064
1.40001
1.8394
1.06759
1.40001
1.04457
1.40001
1.40001
1.40001
1.83736
1.40001
1.84225
1.40001
1.40001
1.40001
1.84214
1.82795
1.76245
1.84431
1.84308
1.02936
1.83953
1.83641
1.40001
1.78255
1.84146
1.82612
1.40001
1.83915
1.83623
1.40001
1.85034
1.84133
1.84021
1.84335
1.40001
1.40001
1.40001
1.84188
1.0226
1.40001
1.84176
1.40001
1.40001
1.0545
1.40001
1.40001
1.84132
1.84147
1.40001
1.84187
1.84931
1.84314
1.36484
1.84179
1.40001
1.84175
1.84144
1.75379
1.40001
1.40001
1.40001
1.84439
1.83991
1.84193
1.33026
1.40001
1.84224
1.8398
1.84115
1.40001
1.84007
1.8427
1.8414
1.84335
1.40001
1.84222
1.83986
1.77481
1.84267
1.84218
1.40001
1.84945
1.83649
1.84176
1.84779
1.84268
1.03657
1.84356
1.84299
1.40001
1.8417
1.8416
1.84168
1.8414
1.40001
1.84262
1.84167
1.40001
1.84189
1.77373
1.40001
1.40001
1.40001
1.84164
1.84938
1.40001
1.40001
1.64089
1.40001
1.84184
1.40001
1.40001
1.84215
1.84309
1.84091
1.84206
1.40001
1.40001
1.40001
1.70352
1.40001
1.84155
1.40001
1.40001
1.83927
1.83881
1.40001
1.84125
1.02024
1.84215
1.84147
1.08802
1.40001
1.00842
1.77696
1.84239
1.84072
1.84057
1.03981
1.84221
1.84198
1.03881
1.02638
1.40001
1.84256
1.84123
1.40001
1.40001
1.84222
1.40001
1.84041
1.40001
1.78701
1.40001
1.60699
1.8425
1.84423
1.70566
1.80284
1.83693
1.84222
1.82699
1.40001
1.02713
1.84643
1.84253
1.84746
1.40002
1.40001
1.40001
1.84694
1.40001
1.84308
1.83998
1.12439
1.40001
1.84157
1.39994
1.40001
1.40003
1.40005
1.84203
1.84365
1.39847
1.40001
1.40001
1.84152
1.84334
1.84207
1.84328
1.841
1.03144
1.77629
1.40001
1.83868
1.84125
1.84084
1.83322
1.40001
1.84203
1.83011
1.84285
1.40001
1.84176
1.84313
1.24328
1.84184
1.84192
1.40001
1.84203
1.22624
1.84271
1.2445
1.84231
1.40001
1.84193
1.84525
1.8414
1.84197
1.84187
1.83656
1.84241
1.83909
1.40001
1.31706
1.84342
1.84159
1.24001
1.84176
1.37695
1.677
1.84306
1.84052
1.84458
1.40001
1.84407
1.68127
1.84416
1.31491
1.844
1.849
1.40001
1.26848
1.40001
1.83497
1.40001
1.70235
1.40001
1.82601
1.27253
1.40001
1.84155
1.83875
1.40001
1.84229
1.84368
1.84428
1.84114
1.8442
1.40001
1.83919
1.40001
1.40001
1.40001
1.3029
1.84098
1.84179
1.84446
1.84124
1.84664
1.84569
1.84238
1.84204
1.29136
1.4303
1.40001
1.40001
1.84807
1.84175
1.84193
1.84149
1.40003
1.62458
1.40001
1.85001
1.79062
1.40001
1.40001
1.13412
1.84144
1.40001
1.40001
1.03546
1.84219
1.40001
1.83675
1.84157
1.83666
1.82505
1.84213
1.40001
1.0236
1.5057
1.84111
1.84197
1.40001
1.84188
1.84137
1.62463
1.41065
1.50257
1.40001
1.8404
1.84194
1.40001
1.40001
1.04012
1.40001
1.40001
1.84125
1.84161
1.84079
1.84202
1.84128
1.84345
1.84251
1.83922
1.8415
1.40001
1.39615
1.8404
1.84159
1.39717
1.84152
1.84138
1.03811
1.0313
1.84126
1.84578
1.40001
1.40001
1.40158
1.84191
1.84043
1.84205
1.40001
1.8413
1.40001
1.23831
1.84895
1.84962
1.40001
1.6062
1.84041
1.40001
1.83824
1.40001
1.84208
1.70818
1.84413
1.40001
1.84217
1.84696
1.03714
1.84226
1.40001
1.84256
1.83884
1.40001
1.03338
1.8439
1.78572
1.39739
1.82678
1.8414
1.40001
1.3887
1.8489
1.39774
1.84159
1.40001
1.40001
1.84353
1.40001
1.84685
1.84147
1.39623
1.75353
1.40001
1.84134
1.40001
1.40001
1.40001
1.40001
1.84139
1.40001
1.40001
1.83716
1.40001
1.84177
1.40001
1.68528
1.83919
1.84093
1.40001
1.40001
1.39276
1.40001
1.84075
1.84178
1.84382
1.84174
1.8422
1.84185
1.84143
1.40001
1.84147
1.84074
1.40001
1.84144
1.84165
1.40001
1.84333
1.3164
1.45774
1.84172
1.842
1.84243
1.40001
1.84157
1.40001
1.84104
1.84174
1.40001
1.84135
1.40001
1.40001
1.40001
1.40001
1.84245
1.02454
1.39784
1.40001
1.8425
1.84906
1.40001
1.8418
1.40001
1.40499
1.03386
1.84193
1.39963
1.40001
1.84201
1.39825
1.84166
1.40001
1.3998
1.40001
1.84127
1.84327
1.84205
1.8402
1.03294
1.84183
1.84331
1.84087
1.51573
1.40001
1.40001
1.58588
1.84134
1.01482
1.03114
1.40001
1.84203
1.84137
1.84359
1.40001
1.40001
1.84291
1.84202
1.39989
1.40001
1.72173
1.02954
1.40001
1.47644
1.83933
1.84066
1.39826
1.84183
1.84359
1.40001
1.39877
1.40001
1.84054
1.84032
1.57555
1.40001
1.81522
1.40001
1.40195
1.8415
1.00421
1.83982
1.84191
1.39697
1.39991
1.78209
1.40001
1.39969
1.40001
1.84553
1.40001
1.40002
1.00855
1.84235
1.40001
1.40001
1.40001
1.40001
1.84703
1.64693
1.40001
1.40001
1.03992
1.84217
1.64887
1.40001
1.40001
1.40001
1.82175
1.83072
1.84189
1.40001
1.40001
1.83915
1.40001
1.84144
1.84107
1.40001
1.40001
1.84392
1.84275
1.81439
1.40001
1.40001
1.84366
1.8434
1.40001
1.40001
1.40001
1.84403
1.40001
1.40001
1.40001
1.83973
1.84342
1.84365
1.40001
1.8494
1.40004
1.09392
1.83984
1.84067
1.40001
1.84127
1.83858
1.83799
1.40001
1.40001
1.84543
1.40001
1.63485
1.8434
1.40001
1.03905
1.40001
1.84397
1.40001
1.40001
1.83874
1.40001
1.40001
1.40001
1.53848
1.84406
1.07659
1.40002
1.84284
1.40001
1.40001
1.84236
1.40001
1.84453
1.40001
1.40001
1.84197
1.84151
1.40001
1.40006
1.40001
1.40001
1.40001
1.40001
1.40001
1.40001
1.8461
1.84209
1.40001
1.83705
1.03352
1.84977
1.40001
1.8417
1.8409
1.84245
1.84995
1.83781
1.40001
1.40001
1.84059
1.40001
1.67217
1.84411
1.84186
1.40001
1.84627
1.84604
1.40001
1.81866
1.40001
1.8417
1.68819
1.83927
1.39751
1.83727
1.80384
1.84308
1.84226
1.43607
1.84157
1.84607
1.40001
1.84242
1.40001
1.84369
1.40001
1.40001
1.40001
1.40001
1.39673
1.84175
1.84356
1.78279
1.40001
1.84765
1.40001
1.40001
1.40001
0.991698
1.40001
1.83203
1.40001
1.80211
1.82645
1.40001
1.40001
1.40001
1.8048
1.8398
1.40001
1.40001
1.84264
1.03781
1.47399
1.40001
1.84337
1.84162
1.80351
1.8337
1.84157
1.40001
1.84379
1.40001
1.40001
1.40001
1.40001
1.83937
1.84178
1.40001
1.83417
1.45123
1.84132
1.81202
1.40001
1.40001
1.81418
1.40001
1.40001
1.04694
1.71113
1.40001
1.40001
1.84151
1.40001
1.84655
1.79944
1.40001
1.79646
1.03982
1.84122
1.8414
1.84229
1.40001
1.02451
1.40001
1.40001
1.40001
1.83929
1.7804
1.40001
1.834
1.84077
1.4
1.84203
1.40001
1.40001
1.40001
1.40001
1.84092
1.39936
1.40001
1.84419
1.40001
1.40001
1.8472
1.84139
1.40001
1.84754
1.48472
1.40003
1.40001
1.84256
1.40001
1.84314
1.40001
1.41427
1.84212
1.40001
1.84212
1.40001
1.40001
1.53469
1.83979
1.40001
1.40001
1.40001
1.40001
1.40001
1.39668
1.01331
1.02725
1.42177
1.40001
1.42108
1.40001
1.42385
1.40001
1.842
1.40001
1.66082
1.40001
1.84288
1.40001
1.40001
1.40001
1.84276
1.40001
1.75706
1.84144
1.40001
1.63109
1.84402
1.40001
1.40001
1.83848
1.84116
1.40001
1.40001
1.4494
1.02024
1.40001
1.84231
1.40001
1.40001
1.40001
1.40001
1.47571
1.84175
1.40001
1.40001
1.40001
1.05183
1.40001
1.84223
1.84257
1.84481
1.40001
1.40001
1.40001
1.40001
1.61979
1.84194
1.40001
1.40001
1.40001
1.84505
1.84165
1.45212
1.40001
1.40001
1.40001
1.83985
1.84172
1.40001
1.03474
1.84303
1.84182
1.8414
1.84071
1.84214
1.40001
1.40001
1.83928
1.84383
1.84198
1.05146
1.43978
1.84136
1.40001
1.40001
1.40001
1.40001
1.40001
1.84107
1.03416
1.40001
1.40001
1.84202
1.59494
1.40001
1.84228
1.40001
1.40001
1.40001
1.03875
1.40001
1.40001
1.518
1.84347
1.84216
1.40001
1.84203
1.84274
1.40001
1.47444
1.40001
1.84036
1.40001
1.84346
1.03624
1.40001
1.40001
1.40001
1.40001
1.84256
1.40007
1.40001
1.40001
1.40001
1.83179
1.40001
1.40001
1.40001
1.40001
1.84115
1.04249
1.7436
1.84325
1.40001
1.84121
1.40001
1.40001
1.40001
1.39709
1.40001
1.84817
1.40001
1.19246
1.40001
1.40001
1.40004
1.84096
1.04079
1.40001
1.84205
1.40001
1.84161
1.84171
1.04595
1.40001
1.40001
1.8263
1.40001
1.40001
1.03585
1.40001
1.83712
1.40001
1.82266
1.39939
1.84139
1.40001
1.40001
1.40001
1.40001
1.84086
1.40001
1.40001
1.84201
1.40001
1.40001
1.40001
1.40001
1.40001
1.40001
1.40001
1.40001
1.69085
1.40001
1.5484
1.84203
1.40001
1.40001
1.40001
1.03288
1.40001
1.40001
1.40001
1.40001
1.84448
1.84232
1.45193
1.40001
1.40001
1.84282
1.40001
1.40001
1.84005
1.40001
1.40002
1.40001
1.40001
1.40001
1.40002
1.84241
1.1644
1.84178
1.844
1.39724
1.40001
1.40001
1.40001
1.66361
1.40001
1.40001
1.84103
1.84145
1.40001
1.40001
1.40001
1.40001
1.02621
1.40001
1.40001
1.40001
1.6728
1.40001
1.84227
1.84529
1.40001
1.84315
1.40001
1.40001
1.40001
1.64046
1.40001
1.83786
1.40001
1.84168
1.40001
1.40001
1.39635
1.84158
1.40001
1.40001
1.40001
1.40001
1.40001
1.83823
1.40003
1.40001
1.04841
1.83816
1.04224
1.40001
1.84611
1.40001
1.39571
1.40001
1.84313
1.84214
1.40001
1.82921
1.28937
1.84137
1.83296
1.40004
1.40001
1.40001
1.03196
1.40001
1.40001
1.40001
1.8419
1.66231
1.84557
1.40001
1.40001
1.40001
1.40001
1.39674
1.84251
1.40001
1.04519
1.40001
1.40001
1.40001
1.40001
1.40001
1.40001
1.40001
1.84743
1.83937
1.84181
1.40001
1.40001
1.39685
1.40001
1.37969
1.40001
1.40001
1.40001
1.02104
1.37635
1.40001
1.01888
1.03216
1.40001
1.84251
1.84261
1.40001
1.84497
1.84192
1.04106
1.69472
1.40001
1.40001
1.40001
1.04716
1.83979
1.40001
1.04507
1.40001
1.83936
1.47215
1.40001
1.40001
1.40001
1.40001
1.84195
1.83935
1.40001
1.40001
1.84152
1.40001
1.40001
1.84086
1.84174
1.40001
1.80164
1.84212
1.84032
1.36143
1.84434
1.4089
1.04159
1.74011
1.84105
1.40001
1.40001
1.40001
1.0228
1.40001
1.01375
1.84171
1.3592
1.84184
1.33985
1.40001
1.84166
1.60345
1.40001
1.40001
1.84173
1.40001
1.58287
1.84058
1.40001
1.40001
1.83837
1.84688
1.02893
1.65379
1.3999
1.40001
1.67331
1.40001
1.83957
1.34812
1.8531
1.83861
1.40001
1.40001
1.40001
1.40001
1.82621
1.40001
1.40001
1.83978
1.39965
1.84144
1.76181
1.84164
1.03691
1.40001
1.40001
1.40001
1.40001
1.83941
1.40005
1.84222
1.40001
1.84172
1.84291
1.45622
1.84151
1.53697
1.84164
1.40001
1.70174
1.04823
1.84051
1.84155
1.74797
1.47315
1.83967
1.84151
1.84195
1.84373
1.40001
1.3127
1.46182
1.40001
1.84174
1.6114
1.84414
1.40004
1.40001
1.40001
1.08468
1.84774
1.83973
1.75931
1.40001
1.57333
1.40001
1.84488
1.84132
1.40001
1.84338
1.83995
1.40001
1.40001
1.40001
1.8431
1.40001
1.57584
1.84485
1.70369
1.40001
1.84351
1.40001
1.40001
1.40001
1.40001
1.40001
1.40001
1.40001
1.40001
1.40001
1.40001
1.07845
1.40001
1.804
1.03609
1.66175
1.39858
1.84514
1.40001
1.6277
1.40002
1.68636
1.78596
1.40001
1.40255
1.84386
1.30666
1.40001
1.8426
1.84453
1.34602
1.40001
1.84011
1.84027
1.84528
1.40001
1.84109
1.84288
1.84022
1.40001
1.60287
1.40001
1.40006
1.84037
1.40001
1.84203
1.46349
1.84398
1.40001
1.40001
1.84162
1.84469
1.06789
1.40001
1.83957
1.7315
1.8406
1.40001
1.40001
1.83964
1.84631
1.39822
1.40001
1.80856
1.39678
1.84124
1.40007
1.40001
1.40001
1.40001
1.40001
1.59935
1.40001
1.74033
1.84334
1.73118
1.84009
1.40001
1.4026
1.40001
1.40001
1.84096
1.40001
1.84044
1.40001
1.40001
1.40001
1.40001
1.4
1.40001
1.45539
1.6246
1.40001
1.40001
1.01406
1.40001
1.83987
1.07318
1.84333
1.40001
1.61421
1.39978
1.84179
1.68198
1.05892
1.64305
1.40004
1.84208
1.84466
1.40001
1.66916
1.84446
1.84018
1.39838
1.84778
1.82943
1.0217
1.40001
1.40001
1.39795
1.40001
1.83851
1.40001
1.04969
1.83959
1.40001
1.40001
1.78937
1.40001
1.84293
1.40001
1.83956
1.40001
1.05825
1.40001
1.40001
1.84181
1.83545
1.83861
1.40001
1.84042
1.84218
1.83392
1.40001
1.40001
1.83926
1.4
1.12502
1.40001
1.40001
1.40001
1.84123
1.40001
1.8424
1.68679
1.83992
1.40001
1.84153
1.39938
1.40001
1.40001
1.40001
1.40001
1.40001
1.40001
1.10838
1.40001
1.40001
1.84193
1.40001
1.84322
1.84681
1.40001
1.05194
1.0391
1.40001
1.84244
1.47515
1.03949
1.0191
1.40001
1.84171
1.40001
1.84348
1.04065
1.40162
1.40001
1.40001
1.39954
1.40001
1.40001
1.40001
1.39992
1.57757
1.8418
1.40001
1.40001
1.84387
1.66422
1.40001
1.8146
1.84276
1.84167
1.57739
1.84096
1.40001
1.8418
1.40001
1.82079
1.40001
1.83903
1.84351
1.39682
1.84055
1.84475
1.40001
1.40001
1.40001
1.40001
1.40001
1.30065
1.83921
1.40005
1.40003
1.01256
1.39999
1.02528
0.977101
1.40001
1.84166
1.84259
1.84376
1.40001
1.83968
1.40001
1.03911
1.40001
1.40001
1.84134
1.21637
1.84021
1.40001
1.84061
1.40001
1.38036
1.84034
1.40001
1.40001
1.40001
1.84065
1.40001
1.84162
1.02599
1.40001
1.40001
1.65996
1.40001
1.40001
1.64274
1.40001
1.40001
1.84069
1.40001
1.40001
1.40001
1.40001
1.40001
1.83408
1.84153
1.40001
1.84096
1.8407
1.02835
1.60267
1.84015
1.40001
1.40001
1.79805
1.39905
1.40001
1.40001
1.84136
1.84199
1.68849
1.40001
1.84189
1.05415
1.82522
1.39959
1.40001
1.84013
1.40004
1.84035
1.75979
1.73946
1.40001
1.40001
1.84181
1.12052
1.01421
1.40001
1.84047
1.40001
1.84232
1.40001
1.66548
1.40001
1.40001
1.8407
1.68527
1.04787
1.40001
1.39828
1.40001
1.40001
1.42622
1.58479
1.84221
1.40001
1.84403
1.40001
1.40001
1.40001
1.40001
1.40001
1.40001
1.46777
1.04401
1.40001
1.40001
1.42899
1.40001
1.40001
1.40001
1.40001
1.40001
1.8433
1.40001
1.40001
1.84162
1.84166
1.72784
1.40001
1.40001
1.40001
1.22107
1.846
1.70778
1.40001
1.40001
1.40001
1.40001
1.83868
1.40001
1.40001
1.40001
1.84267
1.40001
1.40001
1.71867
1.85383
1.43467
1.12441
1.84479
1.71052
1.84048
1.40001
1.61864
1.40001
1.40001
1.40001
1.00172
1.4027
1.01816
1.40001
1.03578
1.01323
1.40001
1.03897
1.40001
1.40001
1.40001
1.59218
1.40001
1.84181
1.84271
1.40116
1.61835
1.7705
1.01792
1.13457
1.26284
1.40001
1.84153
1.84038
1.84163
1.84216
1.77982
1.27868
1.40001
1.78241
1.40001
1.82817
1.40001
1.40001
1.39651
1.40846
1.40001
1.40001
1.40001
1.84071
1.40001
1.01613
1.40001
1.84269
1.02504
1.40001
1.40001
1.84186
1.40001
1.84167
1.39963
1.40001
1.40001
1.84237
1.79385
1.40001
1.85818
1.40001
1.40001
1.41423
1.40001
1.60224
1.40001
1.40001
1.02712
1.40001
1.40001
1.84207
1.4
1.84287
1.40001
1.40004
1.01407
1.40001
1.40001
1.02571
1.40082
1.40001
1.84149
1.03775
1.84766
1.05549
1.83847
1.40001
1.40001
1.40001
1.40001
1.4
1.40001
1.40001
1.40001
1.40001
1.40001
1.40001
1.82429
1.40001
1.84362
1.83929
1.03731
1.40001
1.40001
1.40001
1.40001
1.40001
1.40001
1.82924
1.40001
1.40001
1.03974
1.40001
1.40001
1.84067
1.40001
1.40001
1.56579
1.77302
1.05078
1.04448
1.0797
1.12088
1.40001
1.39636
1.01767
1.40024
1.81939
1.3969
1.40001
1.40001
1.84134
1.40001
1.40001
1.40001
1.13837
1.40002
1.5647
1.40001
1.40001
1.58281
1.8434
1.40001
1.0308
1.40001
1.40001
1.40001
1.39675
1.40001
1.84337
1.84166
1.40001
1.0472
1.40001
1.64011
1.03828
1.40001
1.26911
1.40001
1.39533
1.01004
1.40001
1.40001
1.40001
1.39584
1.03021
1.40001
1.03203
1.39839
1.63528
1.79437
1.04732
1.04101
1.40001
1.39181
1.40001
1.39867
1.40001
1.84059
1.84237
1.40001
1.41084
1.84119
1.84199
1.40001
1.40001
1.8415
1.40001
1.40001
1.40005
1.40001
1.8468
1.40001
1.40001
1.41855
1.40001
1.39858
1.08893
1.40001
1.40001
1.40001
1.40001
1.40001
1.8423
1.42763
1.40006
1.40001
1.40001
1.40001
1.40001
1.40001
1.40004
1.40001
1.02811
1.49134
1.39863
1.82752
1.84064
1.40001
1.41832
1.84189
1.7845
1.40001
1.40001
0.984766
1.84196
1.40001
1.83962
1.40001
1.84196
1.69291
1.02737
1.40001
1.03751
1.80251
1.39968
1.40001
1.04455
0.978547
1.40001
1.40001
1.77326
1.40001
1.4
1.02145
1.40001
1.40001
1.40001
1.54237
1.40001
1.03256
1.83941
1.40001
1.40001
1.40001
1.40001
1.84187
1.40001
1.40001
1.84711
1.79643
1.40001
1.40001
1.40001
1.84835
1.02244
1.40001
1.84063
1.84139
1.40001
1.75229
1.4
1.40003
1.40001
1.40001
1.83061
1.41794
1.40001
1.00902
1.63609
1.40001
1.40001
1.39746
1.40001
1.40001
1.83828
1.40001
1.40001
1.40004
1.40001
1.8398
1.40001
1.40001
1.40001
1.40001
1.40001
1.40001
1.40001
1.58768
1.40001
1.84261
1.40001
1.40001
1.84316
1.40001
1.40001
1.40001
1.84117
1.84603
1.44314
1.40001
1.39766
1.40001
1.40001
1.40001
1.40001
1.8404
1.40001
1.40001
1.84054
1.03864
1.40001
1.40001
1.40001
1.40001
1.40001
1.40001
1.75735
1.40001
1.40001
1.84284
1.84056
1.40001
1.40001
1.40001
1.84016
1.84118
1.40001
1.39972
1.84794
1.40001
1.40001
1.40001
1.40002
1.01526
1.42908
1.39622
1.39614
1.40001
1.40001
1.02225
1.84106
1.40001
1.00256
1.40001
1.84365
1.82399
1.04742
1.39941
1.8416
1.83969
1.84047
1.40001
1.40001
1.31467
1.8057
1.77322
0.980993
1.40001
1.40001
1.40001
1.84105
1.84219
1.03683
1.3973
1.40001
1.84316
1.02727
1.40001
1.83239
1.03763
1.35838
1.40644
1.40001
1.8454
1.40001
1.40001
1.40001
1.40001
1.40001
1.40001
1.40012
1.81214
1.40001
1.40001
1.84667
1.40001
1.40001
1.40001
1.84148
1.40001
1.02821
1.40001
1.40001
1.40001
1.55622
1.40001
1.40001
1.40001
1.40001
1.40001
1.17237
1.40001
1.02965
1.40001
1.84244
1.40007
1.25824
1.27038
1.40002
1.40491
1.63405
1.40001
1.40001
1.00885
1.84145
1.84209
1.84163
1.40001
1.04803
1.01905
1.40001
1.8417
1.40001
1.40001
1.40001
1.40001
1.40001
1.40004
1.40001
1.02724
1.68772
1.40001
1.40001
1.04898
1.37966
1.40001
1.40001
1.40001
1.40001
1.01116
1.40001
1.06344
1.40001
1.40001
1.84633
1.40001
1.40001
1.0387
1.40001
1.84178
1.40001
1.0188
1.40001
1.03483
1.40001
1.40781
1.84289
1.85646
1.40001
1.40001
1.83998
1.40001
1.40001
1.49009
1.39677
1.40001
1.39812
1.40001
1.8432
1.40001
1.02179
1.40002
1.83764
1.39886
1.40001
1.40001
1.18857
1.40001
1.39901
1.05806
1.84081
1.56077
1.40001
1.40001
1.30766
1.40001
1.40001
1.40001
1.16944
1.40001
1.40001
1.40001
1.84199
1.40001
1.02585
1.4
1.40001
1.40001
1.40001
1.03568
1.84044
1.81595
1.05989
1.40001
1.83902
1.40001
1.40001
1.84154
1.84052
1.77446
1.03403
1.39775
1.39929
1.40001
1.84141
1.40001
1.40001
1.40001
1.40001
1.84262
1.40004
1.40001
1.40001
1.84025
1.40001
1.40001
1.84192
1.03195
1.40001
1.40001
1.40001
1.04085
1.40001
1.4
1.4
1.39861
1.40001
1.40001
1.40001
1.40001
1.74547
1.40001
1.83908
1.84203
1.85193
1.84436
1.84341
1.84198
1.40001
1.84334
1.40001
1.84092
1.84189
1.40001
1.3988
1.03527
1.77754
1.39991
1.40001
1.40001
1.40001
1.40001
1.39812
1.40001
1.46744
1.40001
1.40001
1.40001
1.24915
1.842
1.84285
1.84024
1.78805
1.39987
1.40001
1.42338
1.84268
1.39797
1.45395
1.39699
1.04684
1.40001
1.40003
1.40001
1.40001
1.40001
1.40001
1.40001
1.84045
1.03557
1.84136
1.84201
1.39481
1.07773
1.40001
1.40001
1.40001
1.83958
1.04705
1.79136
1.02682
1.84056
1.83861
1.03072
1.84245
1.42445
1.40001
1.84456
1.19633
1.40001
1.39869
1.03918
1.40001
1.04221
1.40001
1.84205
1.84177
1.12304
1.40001
1.84167
1.04647
1.40001
1.03222
1.40001
1.84234
1.40001
1.40001
1.82954
1.40001
1.22867
1.40001
1.39971
1.04298
1.83836
1.39949
1.40001
1.03332
1.40001
1.40001
1.40001
1.40001
1.64172
1.40001
1.84176
1.40001
1.40001
1.85506
1.40001
1.40001
1.84052
1.40001
1.02911
1.40001
1.03803
1.40002
1.40001
1.40001
1.40001
1.40001
1.82368
1.65704
1.84178
1.40001
1.84178
1.81068
1.01361
1.026
1.40001
1.40001
1.84338
1.40001
1.02845
1.40001
1.38095
1.40001
1.40001
1.83842
1.40001
1.8397
1.03594
1.85755
1.40001
1.03291
1.40001
1.40001
1.84057
1.83992
1.40001
1.40005
1.40001
1.84434
1.40001
1.40001
1.00206
1.39935
1.01822
1.40001
1.40001
1.40001
1.84352
1.84923
1.84057
1.40001
1.40001
1.00411
1.40001
1.83785
1.40001
1.40001
1.40001
1.819
1.8419
1.84433
1.05635
1.84341
1.84187
1.04836
1.84101
1.40005
1.05999
1.40731
1.40001
1.40001
1.83985
1.07408
1.68116
1.07625
1.84221
1.3975
1.04867
1.84502
1.40001
1.40001
1.40001
1.40001
1.84195
1.84059
1.03056
1.40001
1.40003
1.03824
1.40004
1.40001
1.03906
1.01313
1.70712
1.84149
1.39846
1.84293
1.40001
1.84435
1.2004
1.04048
1.84189
1.84882
1.40001
1.84336
1.40001
1.40001
1.841
1.40001
1.74203
1.84085
1.40001
1.40001
1.40001
1.40001
1.84316
1.83672
1.83991
1.40001
1.40001
1.84004
1.83984
1.83995
1.40001
1.84224
1.40001
1.40001
1.40001
1.40001
1.40001
1.02545
1.23521
1.03177
1.40001
1.40001
1.8424
1.40001
1.40001
1.84
1.04521
1.40001
1.84155
1.83702
1.82151
1.01882
1.40001
1.0224
1.40001
1.40003
1.84118
1.61779
1.84036
1.80267
1.40001
0.980642
1.40001
1.84406
1.7156
1.04099
1.40001
1.40001
1.40001
1.17937
1.40001
1.40001
1.85098
1.40001
1.04187
1.84204
1.40001
1.40001
1.40001
1.40001
1.40001
1.75454
1.50108
1.40001
1.84228
1.40001
1.84068
1.40001
1.39735
1.40001
1.84225
1.84127
1.84104
1.84456
1.39958
1.83988
1.40001
1.84212
1.84163
1.77548
1.40001
1.40001
1.02184
1.8382
1.40001
1.40001
1.84433
1.84317
1.83984
1.40001
1.84326
1.40001
1.40001
1.40004
1.84002
1.84228
1.52282
1.49668
1.84366
1.84272
1.07366
1.40001
1.40001
1.40001
1.40001
1.40003
1.55571
1.40001
1.40001
1.75666
1.02104
1.39998
1.40001
1.84057
1.39992
1.39984
1.46427
1.80781
1.83674
1.29657
1.40001
1.02481
1.40001
1.39086
1.84194
1.8433
1.84484
1.399
1.40001
1.40001
1.0162
1.40001
1.40001
1.84198
1.44709
1.40001
1.40001
1.40001
1.40001
1.40001
1.40001
1.40001
1.39994
1.84078
1.40002
1.40001
1.40001
1.40001
1.40001
1.68854
1.40001
1.61124
1.40001
1.40001
1.84202
1.84471
1.04384
1.3988
1.40001
1.4
1.40001
1.03069
1.83975
1.84148
1.40001
1.40001
1.40001
1.40001
1.40001
1.40001
1.40001
1.40001
1.83965
1.84527
1.01947
1.44865
1.03335
1.40001
1.02738
1.40001
1.84119
1.5205
1.40001
1.40001
1.13413
1.40001
1.81953
1.1794
1.39729
1.04259
1.40001
1.40001
1.83723
1.40005
1.39715
1.00984
1.83821
1.85375
1.40001
1.40001
1.40001
1.40001
1.81358
1.40001
1.40001
1.8414
1.39896
1.8414
1.40009
1.40001
1.40001
1.05368
1.40001
1.40001
1.84421
1.03844
1.14377
1.02564
1.84236
1.39926
1.40001
1.84004
1.04688
1.03119
1.40865
1.40001
1.40001
1.83894
1.40005
1.6069
1.40001
1.40001
1.84109
1.03502
1.40001
1.40001
1.40014
1.84153
1.40014
1.83707
1.40001
1.40004
1.40001
1.40001
1.14276
1.40001
1.18616
1.40002
1.40001
1.8387
1.05057
1.40001
1.17538
1.18922
1.40001
1.40001
1.84346
1.40001
1.40001
1.40001
1.84178
1.84132
1.40006
1.84327
1.83779
1.18254
1.84128
1.81979
1.40001
1.40001
1.84044
1.4
1.40001
1.40001
1.40001
1.40001
1.84116
1.84196
1.40001
1.40001
1.40001
1.84408
1.40021
1.40001
1.03735