/*--------------------------------*- C++ -*----------------------------------*\
  =========                 |
  \\      /  F ield         | OpenFOAM: The Open Source CFD Toolbox
   \\    /   O peration     | Website:  https://openfoam.org
    \\  /    A nd           | Version:  12
     \\/     M anipulation  |
\*---------------------------------------------------------------------------*/
FoamFile
{
    format      ascii;
    class       volScalarField;
    location    "18.3";
    object      rho;
}
// * * * * * * * * * * * * * * * * * * * * * * * * * * * * * * * * * * * * * //

dimensions      [1 -3 0 0 0 0 0];

internalField   nonuniform List<scalar> 
9801
(
1.06926
1.07102
1.07406
1.07888
1.08808
1.10338
1.11457
1.12012
1.12364
1.1262
1.12713
1.12724
1.12849
1.13081
1.13422
1.13915
1.15084
1.16772
1.17819
1.18329
1.1868
1.18868
1.18975
1.19042
1.19179
1.19446
1.19815
1.20373
1.21764
1.23448
1.24465
1.25054
1.25486
1.2571
1.25673
1.25664
1.25844
1.26169
1.26587
1.27328
1.29155
1.31131
1.32139
1.32708
1.33018
1.328
1.32527
1.32612
1.32948
1.33409
1.34017
1.35484
1.38175
1.39956
1.40771
1.41269
1.41142
1.40362
1.40191
1.40553
1.41159
1.41851
1.43076
1.45963
1.48664
1.50044
1.50873
1.51307
1.50394
1.49285
1.49314
1.50014
1.50975
1.52375
1.56034
1.59948
1.62093
1.63357
1.64107
1.63306
1.61339
1.60533
1.61408
1.62907
1.66063
1.72637
1.77475
1.80209
1.82378
1.84001
1.82807
1.79827
1.78964
1.82069
1.8815
2.01266
2.14722
3.54496
11.5331
1.07351
1.07648
1.07994
1.0846
1.09568
1.11065
1.11963
1.12528
1.12953
1.13275
1.13191
1.13021
1.13217
1.13558
1.13954
1.14405
1.15518
1.17256
1.18317
1.18906
1.19345
1.19606
1.1927
1.19116
1.1938
1.19787
1.20234
1.20753
1.22114
1.24012
1.2504
1.25612
1.26074
1.26233
1.25684
1.25601
1.25962
1.26443
1.26945
1.27648
1.29464
1.31435
1.32459
1.33082
1.3354
1.33248
1.32517
1.32586
1.33053
1.33615
1.34234
1.35539
1.38162
1.40032
1.40962
1.41595
1.41787
1.40665
1.40122
1.40483
1.4114
1.41851
1.4303
1.45951
1.48755
1.50135
1.51011
1.51607
1.50827
1.49276
1.49136
1.49921
1.50898
1.52416
1.55932
1.59568
1.61556
1.62842
1.63963
1.6383
1.61292
1.60358
1.61252
1.62875
1.65529
1.70771
1.75521
1.7861
1.81169
1.83441
1.83026
1.80185
1.7898
1.80797
1.85396
1.93838
2.03253
3.35479
11.5442
1.07159
1.0745
1.07803
1.08275
1.09423
1.10938
1.11806
1.12348
1.1278
1.13121
1.1307
1.12856
1.13015
1.13353
1.13762
1.14221
1.15308
1.17033
1.18104
1.18709
1.19165
1.19458
1.19163
1.1892
1.19135
1.19527
1.19978
1.20494
1.2182
1.23754
1.24834
1.25425
1.25899
1.26064
1.25499
1.25355
1.25685
1.2615
1.26656
1.27317
1.29068
1.31052
1.32093
1.32729
1.33221
1.33048
1.32318
1.32333
1.32776
1.33327
1.33932
1.35038
1.37472
1.39373
1.40361
1.41046
1.41464
1.40653
1.39888
1.40044
1.40616
1.41306
1.42306
1.44878
1.47655
1.49201
1.50167
1.50936
1.50663
1.49028
1.48475
1.49037
1.49967
1.51191
1.54124
1.57868
1.60229
1.61737
1.62972
1.63348
1.60918
1.5928
1.59925
1.61429
1.6334
1.67452
1.7311
1.77017
1.79564
1.81791
1.81898
1.7936
1.78092
1.78973
1.82334
1.88803
1.94341
3.23312
11.3856
1.06882
1.07177
1.07559
1.08111
1.0934
1.10792
1.11617
1.12126
1.12532
1.12875
1.12891
1.12619
1.12716
1.13033
1.13453
1.13956
1.15036
1.16684
1.17748
1.18363
1.18827
1.19184
1.19018
1.18594
1.18679
1.19024
1.1949
1.20069
1.21385
1.23299
1.24432
1.25052
1.25536
1.25747
1.25139
1.2478
1.24983
1.25414
1.25966
1.26705
1.28438
1.30437
1.31517
1.32162
1.32689
1.32713
1.31858
1.3159
1.31882
1.32377
1.32986
1.34023
1.36398
1.38461
1.39542
1.40269
1.40868
1.40443
1.39166
1.38931
1.39366
1.40023
1.40917
1.4313
1.46204
1.48033
1.49093
1.49919
1.50227
1.48523
1.47164
1.47429
1.48288
1.49367
1.51658
1.55654
1.58411
1.59926
1.61097
1.61953
1.60552
1.58112
1.57679
1.58981
1.60692
1.63453
1.68536
1.72946
1.75803
1.78192
1.79618
1.77955
1.75864
1.75429
1.77329
1.81941
1.85367
3.16459
11.2609
1.06431
1.06729
1.07091
1.07684
1.08985
1.10391
1.11189
1.1168
1.1206
1.12392
1.12469
1.12181
1.12235
1.12525
1.12905
1.13397
1.14489
1.16092
1.17126
1.17725
1.18176
1.18559
1.18588
1.18116
1.18089
1.18383
1.18795
1.19335
1.20582
1.22488
1.23668
1.24298
1.24775
1.25088
1.24646
1.24103
1.24216
1.24599
1.25086
1.25756
1.27396
1.29456
1.30604
1.31256
1.3178
1.31986
1.31143
1.30592
1.30818
1.31299
1.31889
1.32826
1.35104
1.37286
1.38412
1.39132
1.39728
1.39649
1.38227
1.37587
1.37938
1.38597
1.39457
1.41307
1.44442
1.46494
1.47595
1.48417
1.49063
1.48054
1.46083
1.45678
1.46418
1.47452
1.4909
1.52778
1.56241
1.58098
1.59358
1.60509
1.60436
1.57752
1.56028
1.56385
1.57949
1.6004
1.6405
1.69092
1.72804
1.75516
1.77876
1.77992
1.75818
1.74442
1.74164
1.76615
1.78894
3.11865
11.1982
1.06117
1.06395
1.06707
1.0719
1.08463
1.09869
1.10679
1.11201
1.11602
1.11957
1.12101
1.11796
1.118
1.12056
1.12396
1.12794
1.13775
1.15422
1.16504
1.17128
1.17582
1.17972
1.18149
1.17703
1.17543
1.1778
1.18149
1.1859
1.19617
1.21571
1.22893
1.23569
1.24039
1.24411
1.24246
1.23549
1.2347
1.23792
1.24237
1.24779
1.26176
1.28369
1.29692
1.30402
1.30936
1.31306
1.3074
1.29809
1.29772
1.30206
1.30794
1.31638
1.33751
1.361
1.37338
1.38086
1.38696
1.38993
1.37877
1.36643
1.36661
1.37292
1.38144
1.39696
1.42762
1.45171
1.46387
1.4723
1.48001
1.47903
1.45873
1.44671
1.44953
1.45934
1.47193
1.49997
1.54154
1.56825
1.58301
1.59481
1.60157
1.58361
1.5581
1.55148
1.56087
1.57734
1.60401
1.64991
1.69369
1.72598
1.75268
1.77278
1.76769
1.74896
1.73263
1.73482
1.73417
3.08036
11.1908
1.05793
1.06079
1.06397
1.06851
1.08068
1.09442
1.10202
1.10704
1.11127
1.11516
1.11717
1.11406
1.11373
1.11617
1.11957
1.12359
1.13272
1.14835
1.15878
1.16516
1.17007
1.17429
1.17709
1.17304
1.17062
1.17279
1.17642
1.1807
1.18931
1.20739
1.22114
1.22872
1.23401
1.23842
1.24008
1.23305
1.22886
1.23099
1.23525
1.24053
1.25212
1.27386
1.28892
1.29698
1.30279
1.30774
1.30751
1.29644
1.29067
1.29316
1.29862
1.3061
1.3246
1.35032
1.36515
1.37329
1.37959
1.385
1.38063
1.36498
1.3601
1.36464
1.37214
1.38297
1.4094
1.43967
1.45568
1.46471
1.47247
1.47719
1.46385
1.44526
1.44226
1.45007
1.46046
1.47702
1.51524
1.55348
1.5745
1.58773
1.59914
1.59869
1.57322
1.55434
1.55276
1.56405
1.58155
1.61381
1.65885
1.69712
1.72673
1.75239
1.7663
1.76009
1.74196
1.72344
1.69114
3.04073
11.2145
1.05525
1.05744
1.06052
1.06493
1.07691
1.09264
1.10056
1.10499
1.10882
1.1125
1.11444
1.1109
1.10943
1.11165
1.11533
1.12013
1.13062
1.14667
1.15638
1.162
1.16653
1.17069
1.17369
1.1698
1.16624
1.16807
1.17191
1.17664
1.18564
1.20291
1.2161
1.2237
1.22946
1.23436
1.23825
1.23404
1.22638
1.22626
1.22992
1.23499
1.2449
1.26623
1.28347
1.29256
1.29887
1.30435
1.30799
1.29942
1.28891
1.28825
1.29276
1.29896
1.31263
1.33999
1.35993
1.36966
1.37632
1.3825
1.38462
1.37052
1.35994
1.36073
1.36661
1.37398
1.38999
1.42383
1.44902
1.46114
1.46955
1.47733
1.47564
1.45523
1.44334
1.44402
1.45204
1.46259
1.48545
1.52915
1.56292
1.58185
1.59557
1.60662
1.59996
1.57138
1.55593
1.55796
1.57009
1.58895
1.62421
1.66569
1.69906
1.72626
1.74929
1.75698
1.74961
1.72847
1.67731
2.98551
11.2529
1.055
1.05591
1.05857
1.06214
1.0711
1.08937
1.10085
1.10593
1.10939
1.11255
1.1143
1.11099
1.10772
1.10874
1.11201
1.1163
1.12635
1.145
1.15701
1.16252
1.16668
1.1706
1.1735
1.1702
1.16482
1.165
1.16838
1.17292
1.18162
1.20001
1.21489
1.22277
1.22834
1.23314
1.2374
1.23593
1.22668
1.2241
1.227
1.23167
1.2394
1.25962
1.28059
1.29132
1.2978
1.30322
1.30788
1.30421
1.29086
1.28721
1.2903
1.29587
1.30417
1.32769
1.35487
1.36863
1.37619
1.38249
1.3878
1.38099
1.36466
1.35959
1.3622
1.36839
1.37726
1.40283
1.43901
1.4597
1.47081
1.47967
1.48587
1.47351
1.45022
1.44183
1.44436
1.45325
1.46615
1.49846
1.5439
1.5744
1.59225
1.60584
1.61343
1.60007
1.57347
1.56082
1.56415
1.57658
1.59728
1.63498
1.67351
1.70227
1.72452
1.74117
1.74387
1.73212
1.68592
2.93923
11.2993
1.05668
1.05641
1.05872
1.06191
1.06769
1.08414
1.09945
1.10664
1.11097
1.11438
1.11671
1.11418
1.10888
1.10852
1.11097
1.11457
1.12109
1.1397
1.15694
1.16476
1.16912
1.17267
1.17545
1.17282
1.16597
1.16444
1.16681
1.17095
1.17735
1.19513
1.21458
1.22417
1.22957
1.23412
1.23839
1.23903
1.2297
1.22436
1.22601
1.23047
1.23622
1.25192
1.27701
1.29137
1.29848
1.30378
1.30862
1.30941
1.29737
1.28896
1.29011
1.29488
1.30088
1.31481
1.3455
1.36731
1.37709
1.38369
1.38988
1.39081
1.37414
1.36059
1.35985
1.36508
1.3726
1.38686
1.42314
1.45661
1.47274
1.48204
1.48999
1.49065
1.46677
1.4455
1.4428
1.44917
1.45942
1.47439
1.51182
1.55527
1.58221
1.599
1.61245
1.61836
1.60361
1.57763
1.56609
1.57024
1.58308
1.60619
1.64469
1.67915
1.70339
1.72057
1.72966
1.72861
1.70065
2.9129
11.3412
1.05958
1.05827
1.06013
1.06312
1.06759
1.08056
1.09711
1.10636
1.11166
1.11557
1.11888
1.11957
1.11299
1.11005
1.11175
1.11501
1.11943
1.13311
1.15426
1.16535
1.17082
1.1749
1.17839
1.17846
1.1706
1.16615
1.16746
1.171
1.17565
1.18813
1.21145
1.22532
1.23168
1.23616
1.24032
1.24274
1.23549
1.22702
1.22698
1.23057
1.2355
1.24475
1.26941
1.29021
1.29947
1.30524
1.31037
1.31443
1.30739
1.29426
1.29135
1.29425
1.29961
1.30721
1.33087
1.36216
1.37772
1.38527
1.39137
1.39614
1.38809
1.36796
1.36084
1.36406
1.37161
1.37994
1.40158
1.44208
1.46834
1.48004
1.48795
1.49507
1.49173
1.46677
1.45057
1.44956
1.45539
1.46536
1.483
1.5236
1.56437
1.58923
1.60544
1.61844
1.62109
1.60619
1.58282
1.57195
1.57563
1.58789
1.61305
1.65193
1.68286
1.70204
1.71307
1.71762
1.7094
2.91016
11.3738
1.06221
1.06092
1.06251
1.06551
1.0696
1.08058
1.09636
1.10606
1.11187
1.11625
1.11999
1.12284
1.11909
1.11321
1.11389
1.11682
1.1205
1.12908
1.14938
1.16451
1.17153
1.17628
1.18036
1.18346
1.17868
1.17028
1.16966
1.17239
1.17623
1.18296
1.20374
1.22431
1.23334
1.23857
1.24297
1.24678
1.24385
1.23296
1.22937
1.23138
1.23559
1.24129
1.25836
1.28587
1.30068
1.30763
1.31292
1.31788
1.31762
1.30301
1.29365
1.29428
1.29879
1.30479
1.31705
1.3491
1.37517
1.38628
1.39297
1.39886
1.40139
1.38575
1.36927
1.36676
1.36982
1.37588
1.38472
1.41284
1.45337
1.47587
1.4878
1.49734
1.50552
1.49767
1.46935
1.45423
1.45462
1.46162
1.47174
1.49039
1.53134
1.56952
1.59286
1.60892
1.62177
1.62481
1.61073
1.58703
1.57501
1.57771
1.58911
1.61621
1.6552
1.6823
1.69681
1.70326
1.7113
2.92746
11.3999
1.06459
1.06336
1.065
1.06816
1.0721
1.08171
1.09695
1.10679
1.11265
1.11719
1.1211
1.12467
1.12437
1.11811
1.11712
1.11957
1.12292
1.12812
1.14421
1.1626
1.17185
1.17734
1.18185
1.1859
1.18659
1.17756
1.17278
1.17421
1.17747
1.18185
1.19487
1.21977
1.23417
1.24079
1.24558
1.24998
1.25187
1.24199
1.23279
1.23259
1.23582
1.24066
1.24954
1.27565
1.29963
1.30985
1.31565
1.3206
1.32432
1.31597
1.30018
1.29603
1.29873
1.30395
1.31045
1.32955
1.3647
1.38573
1.39521
1.40202
1.40828
1.40648
1.38531
1.37019
1.36766
1.37077
1.37769
1.38972
1.42613
1.4675
1.48862
1.49912
1.50771
1.51343
1.50095
1.47372
1.46014
1.4601
1.46583
1.47553
1.49712
1.53937
1.57566
1.59812
1.61383
1.62556
1.62715
1.61253
1.58753
1.57426
1.57601
1.58708
1.61661
1.65522
1.67871
1.6879
1.70333
2.96402
11.4277
1.06725
1.06578
1.06723
1.07039
1.07398
1.08163
1.09748
1.1085
1.11442
1.11903
1.12313
1.12695
1.12885
1.12373
1.12095
1.12257
1.12559
1.12937
1.14019
1.16034
1.17253
1.17887
1.18367
1.18791
1.19129
1.18635
1.17716
1.17617
1.17892
1.18289
1.18993
1.21164
1.23331
1.24267
1.24803
1.25249
1.25635
1.25267
1.23936
1.23477
1.23699
1.24115
1.24647
1.26175
1.29214
1.31004
1.3176
1.32297
1.32815
1.32916
1.31379
1.30103
1.29948
1.30235
1.30781
1.31632
1.34433
1.37936
1.39686
1.40554
1.41227
1.41771
1.40832
1.3826
1.3701
1.37068
1.37626
1.38376
1.39781
1.43872
1.47771
1.49599
1.50621
1.51522
1.5211
1.50551
1.47629
1.46271
1.46391
1.47152
1.48273
1.50652
1.54791
1.58104
1.60157
1.61646
1.62695
1.62769
1.6116
1.58511
1.57143
1.57232
1.58281
1.6147
1.65151
1.66987
1.68961
3.01459
11.4619
1.07067
1.06852
1.06936
1.07203
1.07526
1.08037
1.0954
1.11033
1.11739
1.122
1.12611
1.12991
1.13296
1.12934
1.12406
1.12432
1.12713
1.13092
1.13794
1.15715
1.17359
1.18113
1.18599
1.1902
1.19411
1.19384
1.18345
1.17889
1.18084
1.18449
1.18904
1.20219
1.22825
1.24352
1.25018
1.25487
1.25925
1.26156
1.25107
1.23992
1.23884
1.24142
1.24584
1.25278
1.27685
1.30624
1.31952
1.32611
1.33137
1.3359
1.3306
1.311
1.30115
1.3018
1.30646
1.31262
1.32482
1.36031
1.39207
1.40535
1.41223
1.41825
1.42344
1.41102
1.38595
1.37601
1.37617
1.38094
1.38864
1.40589
1.44889
1.4859
1.50373
1.51369
1.52139
1.5247
1.50975
1.48361
1.47114
1.4718
1.47837
1.48927
1.51525
1.5558
1.58557
1.60372
1.61728
1.62704
1.62764
1.61022
1.58187
1.56676
1.56685
1.57708
1.61146
1.64286
1.66882
3.07173
11.5007
1.07534
1.07194
1.07107
1.0729
1.07586
1.07961
1.09015
1.11
1.12102
1.12594
1.12982
1.13343
1.13664
1.13445
1.12714
1.12593
1.12831
1.132
1.13686
1.15179
1.17315
1.18354
1.18872
1.19292
1.19684
1.19933
1.1918
1.18323
1.18301
1.18582
1.18974
1.19617
1.21773
1.24179
1.25213
1.25771
1.2623
1.26668
1.26417
1.24864
1.24096
1.24187
1.24549
1.25057
1.26206
1.29341
1.31831
1.32851
1.33452
1.33954
1.34293
1.33059
1.31072
1.30475
1.3066
1.31128
1.31737
1.33341
1.37268
1.40087
1.41325
1.42131
1.4284
1.4318
1.41294
1.38703
1.37832
1.38042
1.38597
1.3931
1.40922
1.45218
1.48919
1.50665
1.51771
1.52737
1.53292
1.51832
1.49056
1.47626
1.47599
1.48266
1.49384
1.52281
1.56222
1.58915
1.60636
1.61977
1.62869
1.62823
1.60825
1.57744
1.56032
1.55916
1.57002
1.60399
1.63938
3.12476
11.5378
1.08135
1.07695
1.07286
1.07388
1.07641
1.07979
1.08555
1.1045
1.12293
1.13033
1.13392
1.13722
1.14015
1.13964
1.13183
1.12811
1.12968
1.13283
1.13675
1.14519
1.16794
1.185
1.19192
1.19605
1.19984
1.20333
1.20086
1.18968
1.18527
1.18664
1.1901
1.19469
1.20639
1.23441
1.25314
1.26068
1.26545
1.26967
1.27244
1.26199
1.2466
1.24344
1.24619
1.25078
1.25634
1.27373
1.30777
1.32747
1.33547
1.34121
1.34664
1.34892
1.33212
1.31306
1.30826
1.30983
1.31442
1.32122
1.3433
1.3859
1.41216
1.42279
1.42862
1.43395
1.43681
1.41786
1.39304
1.38424
1.38441
1.38824
1.39531
1.41432
1.46058
1.49923
1.51727
1.52707
1.53486
1.53735
1.52255
1.49544
1.47985
1.47891
1.48548
1.49793
1.53007
1.56932
1.59478
1.6105
1.62215
1.62924
1.62713
1.60565
1.57208
1.55156
1.5491
1.55957
1.60145
3.15933
11.5703
1.08791
1.08612
1.07728
1.07584
1.07789
1.08098
1.08477
1.09597
1.11959
1.13271
1.13833
1.14163
1.14447
1.14572
1.13945
1.13195
1.13146
1.13383
1.13727
1.14185
1.15759
1.18244
1.19411
1.19927
1.20303
1.20665
1.20841
1.19905
1.18888
1.18821
1.19125
1.19535
1.20081
1.22024
1.24877
1.26193
1.26775
1.27202
1.27639
1.27607
1.26006
1.24871
1.24804
1.25047
1.25488
1.26159
1.28612
1.31996
1.33658
1.34434
1.35027
1.35565
1.35414
1.33238
1.31457
1.31154
1.31484
1.32011
1.32668
1.35037
1.39294
1.41706
1.42816
1.43673
1.44402
1.44557
1.42328
1.3968
1.38745
1.38963
1.39637
1.40431
1.42241
1.46688
1.50256
1.51946
1.5297
1.53808
1.54119
1.52681
1.50006
1.48425
1.48282
1.48871
1.50179
1.53557
1.5739
1.59777
1.61267
1.62351
1.62871
1.62446
1.60176
1.56633
1.54276
1.53313
1.55424
3.15943
11.6009
1.09113
1.09539
1.08712
1.07985
1.08021
1.08294
1.08629
1.09177
1.11057
1.13155
1.14013
1.14486
1.14835
1.15126
1.14985
1.13944
1.13422
1.13556
1.13865
1.14232
1.1492
1.17224
1.19359
1.2021
1.20659
1.21026
1.21363
1.21089
1.19771
1.19196
1.19319
1.19601
1.20002
1.2079
1.23476
1.26003
1.27014
1.27566
1.28003
1.28398
1.27839
1.25944
1.25031
1.25065
1.25413
1.2592
1.26844
1.29957
1.33155
1.34504
1.35136
1.35621
1.36178
1.35941
1.33608
1.31989
1.31693
1.31813
1.3227
1.33031
1.35872
1.4034
1.42794
1.43811
1.44436
1.45028
1.45211
1.43137
1.40604
1.39749
1.39792
1.40119
1.40793
1.4271
1.47086
1.50555
1.52284
1.53352
1.54189
1.54563
1.53382
1.50614
1.4877
1.48447
1.48906
1.50183
1.53781
1.57691
1.60038
1.61399
1.62287
1.62626
1.62078
1.59729
1.5607
1.52923
1.51304
3.1239
11.6359
1.09208
1.09769
1.09718
1.08793
1.0839
1.08564
1.0887
1.09224
1.10221
1.12531
1.14019
1.14636
1.15056
1.15427
1.15729
1.15205
1.14075
1.13832
1.14048
1.14363
1.14742
1.15916
1.18642
1.2027
1.20922
1.21354
1.21758
1.22054
1.21227
1.19845
1.1949
1.19657
1.19989
1.20451
1.21765
1.24928
1.27037
1.27888
1.2842
1.28853
1.29142
1.27966
1.25996
1.25373
1.25539
1.2592
1.26423
1.27532
1.3099
1.33949
1.35197
1.35942
1.36554
1.37066
1.36396
1.33762
1.32135
1.31982
1.32406
1.32967
1.33659
1.36308
1.40685
1.43118
1.44294
1.45213
1.45949
1.46075
1.43816
1.41004
1.39843
1.39907
1.40446
1.41229
1.43286
1.4769
1.51053
1.52813
1.5396
1.54815
1.5515
1.53783
1.50708
1.48683
1.48313
1.48799
1.50132
1.53835
1.57777
1.60078
1.61362
1.62101
1.62309
1.6164
1.59194
1.54701
1.50014
3.05399
11.6755
1.09268
1.09906
1.10172
1.09809
1.08989
1.08923
1.09156
1.09459
1.09914
1.11534
1.13697
1.14702
1.15219
1.1564
1.16028
1.1622
1.15275
1.14315
1.14242
1.14473
1.14813
1.15329
1.17269
1.19947
1.21139
1.21701
1.22111
1.22499
1.22539
1.21088
1.19888
1.19809
1.20116
1.20524
1.21043
1.22896
1.26166
1.27856
1.28542
1.29045
1.29515
1.29762
1.28235
1.26331
1.25819
1.25922
1.26266
1.26792
1.28286
1.32153
1.34997
1.36106
1.36644
1.37097
1.37649
1.37009
1.34392
1.32925
1.32684
1.32776
1.33203
1.33944
1.36824
1.41468
1.44087
1.45143
1.4575
1.46227
1.46402
1.44424
1.41661
1.40501
1.40528
1.41053
1.41904
1.4407
1.48389
1.51592
1.53181
1.54151
1.54904
1.55276
1.54024
1.50951
1.48863
1.4838
1.48711
1.49962
1.53695
1.57756
1.60096
1.61241
1.61761
1.61779
1.61088
1.57937
1.51945
2.97541
11.7242
1.09413
1.10105
1.10429
1.10582
1.09818
1.09357
1.09451
1.09693
1.09992
1.10766
1.12985
1.14695
1.15407
1.15865
1.16255
1.1662
1.16494
1.15174
1.14527
1.14658
1.14986
1.15365
1.16172
1.18769
1.21036
1.21898
1.22356
1.22743
1.23127
1.22755
1.21049
1.20262
1.20336
1.2059
1.20971
1.21587
1.24012
1.27202
1.28664
1.29348
1.29887
1.30372
1.30336
1.28361
1.26492
1.26127
1.26428
1.26899
1.274
1.28899
1.32774
1.35452
1.36597
1.37397
1.38035
1.38518
1.37567
1.34753
1.33086
1.32902
1.33314
1.33899
1.34562
1.37084
1.41587
1.44124
1.45229
1.46069
1.46796
1.47122
1.45338
1.42606
1.41296
1.41177
1.41535
1.42211
1.44436
1.48735
1.51713
1.53222
1.54316
1.55251
1.55754
1.54516
1.51282
1.48925
1.48266
1.48497
1.49594
1.53376
1.57568
1.59869
1.60869
1.6121
1.61211
1.60003
1.56247
2.92427
11.7779
1.09654
1.10389
1.10709
1.11043
1.10678
1.09798
1.09643
1.09853
1.1018
1.10613
1.1209
1.14435
1.15583
1.16097
1.16487
1.16855
1.17155
1.16423
1.15148
1.14943
1.15193
1.15535
1.15929
1.17156
1.20095
1.21923
1.22636
1.23086
1.23482
1.23798
1.22897
1.21132
1.20528
1.20649
1.20974
1.2141
1.22249
1.25211
1.28215
1.29447
1.30022
1.30429
1.30923
1.30884
1.28801
1.27108
1.26796
1.2689
1.27211
1.27748
1.29542
1.33689
1.36475
1.37545
1.38066
1.38529
1.39075
1.38319
1.35576
1.33983
1.33696
1.33744
1.34082
1.34761
1.37476
1.42221
1.45057
1.46238
1.4699
1.47676
1.47891
1.46205
1.43227
1.41524
1.41255
1.4165
1.42359
1.44785
1.49374
1.52563
1.5412
1.55024
1.55777
1.56196
1.54948
1.51515
1.4884
1.47971
1.48132
1.49114
1.52963
1.57309
1.59558
1.60344
1.60602
1.60213
1.59715
2.92103
11.8275
1.09994
1.10739
1.11034
1.11374
1.11351
1.1036
1.09914
1.10081
1.10397
1.10747
1.11422
1.13591
1.15571
1.16345
1.16767
1.17136
1.17498
1.17538
1.16281
1.15395
1.15398
1.15641
1.15983
1.16468
1.18276
1.21288
1.22804
1.23456
1.23882
1.24262
1.24418
1.2297
1.21269
1.20909
1.21154
1.2153
1.21954
1.22901
1.2611
1.28922
1.30066
1.30728
1.31285
1.31767
1.31444
1.291
1.27338
1.27062
1.27388
1.27868
1.28368
1.2999
1.34012
1.36729
1.37925
1.3879
1.39453
1.3993
1.39065
1.36231
1.3428
1.33844
1.34183
1.34777
1.35483
1.37963
1.42605
1.45459
1.46715
1.47501
1.48074
1.48213
1.46668
1.43772
1.41994
1.41654
1.42007
1.42813
1.45298
1.4978
1.52893
1.54421
1.55366
1.56069
1.56404
1.55198
1.51699
1.48752
1.47672
1.47719
1.48636
1.52518
1.56881
1.58991
1.59728
1.59474
1.61304
2.9575
11.8739
1.1026
1.11133
1.11415
1.11721
1.11882
1.1114
1.10342
1.10344
1.1061
1.10938
1.11303
1.12408
1.14984
1.16528
1.17127
1.17483
1.17826
1.18148
1.17685
1.16209
1.15659
1.15803
1.16129
1.16502
1.17089
1.19404
1.22294
1.23538
1.24125
1.24564
1.24983
1.25021
1.23311
1.21763
1.21488
1.21619
1.21923
1.22382
1.23618
1.27131
1.29865
1.30929
1.3144
1.31829
1.3234
1.32104
1.29765
1.28105
1.27797
1.27842
1.28127
1.28654
1.3046
1.34761
1.37754
1.38901
1.39446
1.39866
1.40411
1.39949
1.37242
1.35178
1.34696
1.34766
1.35082
1.35748
1.38311
1.429
1.45672
1.46858
1.47606
1.48271
1.48726
1.47659
1.44699
1.42599
1.42082
1.42222
1.42778
1.45185
1.49837
1.53086
1.54599
1.55482
1.56209
1.56627
1.55556
1.51989
1.48693
1.47353
1.47267
1.48042
1.51947
1.56222
1.58282
1.5852
1.61284
3.02059
11.9166
1.10286
1.11583
1.11852
1.12126
1.12358
1.1208
1.11041
1.10649
1.10791
1.11071
1.11405
1.11846
1.13512
1.16156
1.17372
1.17882
1.18205
1.1854
1.1875
1.17701
1.16338
1.161
1.16303
1.16582
1.16947
1.17689
1.20429
1.23171
1.24313
1.24914
1.25404
1.25836
1.25606
1.23554
1.22003
1.21807
1.22116
1.2252
1.22959
1.242
1.27746
1.3035
1.31422
1.32145
1.32724
1.33199
1.3274
1.30247
1.2837
1.28002
1.28311
1.2882
1.29334
1.30842
1.34899
1.37845
1.39129
1.40009
1.40699
1.41226
1.4077
1.38051
1.3563
1.34845
1.34995
1.35477
1.36201
1.38625
1.43131
1.46015
1.47401
1.48361
1.49064
1.49452
1.48355
1.45115
1.4263
1.41889
1.42119
1.42802
1.45106
1.49823
1.53303
1.54919
1.55791
1.56473
1.56874
1.5596
1.52257
1.48497
1.46847
1.46683
1.47437
1.51336
1.55448
1.56953
1.60275
3.09332
11.9562
1.09697
1.11809
1.12274
1.12548
1.12822
1.12983
1.12242
1.11204
1.11026
1.11233
1.11533
1.11857
1.12395
1.14562
1.17144
1.18205
1.18682
1.19012
1.19347
1.1928
1.1776
1.16584
1.16433
1.16643
1.16975
1.17394
1.18382
1.21451
1.24015
1.25021
1.25527
1.25918
1.26359
1.26167
1.24092
1.22665
1.2246
1.22566
1.2287
1.23345
1.24815
1.28582
1.31293
1.32334
1.32827
1.3319
1.33706
1.33494
1.31127
1.29269
1.28848
1.28844
1.29035
1.29518
1.31093
1.3537
1.38718
1.40041
1.40641
1.41073
1.41659
1.41633
1.39205
1.36611
1.35655
1.35589
1.3594
1.36657
1.39023
1.43601
1.46666
1.47975
1.48662
1.49195
1.49693
1.48974
1.45779
1.43132
1.42292
1.42328
1.42876
1.45005
1.49696
1.53365
1.551
1.55985
1.56588
1.5692
1.56105
1.52447
1.48308
1.46345
1.4607
1.46759
1.50714
1.54034
1.58175
3.16673
11.9912
1.08457
1.11458
1.12513
1.12999
1.13313
1.13625
1.13635
1.12453
1.11513
1.11444
1.11629
1.11916
1.12274
1.13022
1.15654
1.1808
1.19035
1.19505
1.19824
1.20145
1.19734
1.17864
1.16832
1.16848
1.17174
1.17532
1.17924
1.19019
1.22265
1.2469
1.25642
1.2622
1.26734
1.27162
1.26721
1.24437
1.22906
1.22741
1.23071
1.23511
1.23953
1.25259
1.28911
1.31569
1.32697
1.33463
1.34063
1.34543
1.34248
1.31869
1.29666
1.28978
1.29157
1.2962
1.3015
1.3143
1.35375
1.38709
1.40174
1.41164
1.41945
1.42494
1.42397
1.40095
1.37297
1.36095
1.36039
1.36373
1.36994
1.39268
1.4378
1.46697
1.47982
1.48967
1.49796
1.50323
1.4966
1.46446
1.43526
1.42416
1.42385
1.42805
1.44626
1.49369
1.53272
1.55049
1.55942
1.56569
1.56893
1.56157
1.52615
1.48128
1.45789
1.45327
1.46132
1.49546
1.54871
3.22622
12.0184
1.07553
1.09954
1.12374
1.13326
1.13776
1.141
1.14408
1.1413
1.12603
1.11755
1.11791
1.12083
1.12425
1.12799
1.13739
1.16639
1.18861
1.19719
1.20221
1.20589
1.20893
1.20231
1.18314
1.17447
1.17453
1.17634
1.17961
1.18404
1.19762
1.23176
1.25514
1.2641
1.26861
1.27211
1.2767
1.27365
1.25143
1.23701
1.23482
1.23545
1.23799
1.24258
1.25673
1.29527
1.32469
1.33618
1.34128
1.34483
1.34998
1.35043
1.32922
1.30598
1.29826
1.29758
1.29877
1.30305
1.31575
1.35739
1.39587
1.41215
1.41918
1.42387
1.42865
1.42979
1.40903
1.37953
1.36491
1.36277
1.36595
1.37165
1.39343
1.44124
1.47481
1.48894
1.49624
1.50275
1.508
1.50252
1.47062
1.43815
1.42414
1.42288
1.42716
1.44365
1.48986
1.5308
1.54998
1.5591
1.56498
1.56768
1.561
1.5275
1.48074
1.45225
1.44534
1.44865
1.50511
3.25783
12.0424
1.0754
1.08497
1.11178
1.13293
1.14081
1.14491
1.14802
1.15086
1.14487
1.12824
1.12209
1.12334
1.12603
1.12894
1.13259
1.14443
1.17534
1.19618
1.20446
1.20958
1.21387
1.21708
1.20783
1.18655
1.1774
1.17836
1.18189
1.18556
1.18961
1.20322
1.23747
1.25977
1.26885
1.27525
1.28052
1.28486
1.28026
1.25678
1.2399
1.237
1.23988
1.24431
1.24869
1.26015
1.29639
1.32599
1.33852
1.34679
1.35314
1.35813
1.35838
1.33869
1.31223
1.30036
1.30009
1.30446
1.31001
1.32004
1.35696
1.39518
1.41215
1.42091
1.42744
1.43323
1.4353
1.41829
1.38814
1.37042
1.36676
1.3697
1.37561
1.39547
1.44101
1.4749
1.48974
1.49845
1.50548
1.51108
1.50916
1.47924
1.44349
1.42681
1.42397
1.42695
1.4408
1.48499
1.52765
1.54846
1.5582
1.56364
1.56536
1.5586
1.52781
1.48071
1.44899
1.42912
1.45376
3.24342
12.0706
1.07751
1.08261
1.09473
1.12306
1.14093
1.14771
1.1517
1.15504
1.1574
1.14764
1.13095
1.12584
1.12701
1.12983
1.13339
1.13787
1.15219
1.18368
1.20311
1.21064
1.21508
1.21871
1.22217
1.21382
1.19328
1.18491
1.18474
1.18601
1.18917
1.1937
1.20931
1.2451
1.26847
1.27742
1.28189
1.28553
1.29024
1.28795
1.26542
1.2484
1.24482
1.24489
1.24667
1.25093
1.26298
1.30095
1.3344
1.34787
1.35351
1.35699
1.36206
1.36546
1.35037
1.32273
1.30974
1.30749
1.30735
1.31056
1.32012
1.35736
1.39999
1.42025
1.4284
1.43385
1.4394
1.44337
1.42999
1.39788
1.37678
1.37094
1.37132
1.37503
1.39215
1.43936
1.47775
1.49436
1.50353
1.51179
1.51712
1.5149
1.48541
1.44727
1.4277
1.42391
1.42604
1.43694
1.47933
1.5239
1.54639
1.55622
1.56078
1.56141
1.55455
1.52667
1.48161
1.43691
1.42064
3.18394
12.1044
1.08066
1.08476
1.08899
1.10424
1.13301
1.1486
1.15488
1.15872
1.16186
1.16304
1.14966
1.13336
1.12994
1.13225
1.13581
1.13915
1.14313
1.15849
1.19068
1.20925
1.21672
1.22179
1.22649
1.22959
1.21939
1.19711
1.18722
1.18779
1.19122
1.1951
1.19933
1.21371
1.249
1.2721
1.28175
1.28858
1.29397
1.29833
1.29532
1.27253
1.25219
1.24644
1.24853
1.25298
1.25764
1.26688
1.30096
1.33415
1.34876
1.35765
1.36473
1.37011
1.37313
1.36005
1.33078
1.31242
1.30858
1.31154
1.31686
1.32587
1.35965
1.40248
1.42454
1.43449
1.44076
1.44664
1.44998
1.4379
1.40541
1.37982
1.37146
1.37312
1.37868
1.39429
1.43867
1.48079
1.50057
1.50858
1.51386
1.51839
1.51737
1.49116
1.45219
1.42918
1.42298
1.42435
1.4331
1.47278
1.5189
1.54316
1.5531
1.55684
1.55661
1.54931
1.52494
1.47249
1.42148
3.09027
12.1485
1.08441
1.08781
1.09068
1.09561
1.11361
1.14157
1.15517
1.16085
1.16473
1.16808
1.16833
1.15358
1.13908
1.13645
1.13775
1.14005
1.14359
1.14837
1.16581
1.19831
1.21644
1.22358
1.22757
1.23086
1.23445
1.22622
1.20454
1.19497
1.19442
1.19559
1.19858
1.20311
1.21846
1.25526
1.28067
1.29035
1.2948
1.29786
1.3026
1.303
1.28314
1.26198
1.25559
1.25502
1.25551
1.25902
1.26816
1.30272
1.34101
1.35818
1.36494
1.36875
1.37385
1.37902
1.3715
1.34271
1.32266
1.31763
1.31759
1.3202
1.32714
1.35826
1.40322
1.42764
1.43767
1.44366
1.44844
1.45322
1.44749
1.41591
1.38769
1.37827
1.37751
1.38009
1.39105
1.43263
1.47682
1.49766
1.50757
1.51516
1.52101
1.52173
1.49934
1.45826
1.43054
1.42162
1.42172
1.42821
1.46567
1.51445
1.5407
1.54995
1.55211
1.55021
1.54417
1.51508
1.46155
3.00379
12.2058
1.08942
1.09112
1.09375
1.09666
1.10149
1.12089
1.14834
1.16151
1.16765
1.17179
1.17527
1.17487
1.15794
1.14237
1.13972
1.14242
1.14602
1.14923
1.15346
1.17119
1.20393
1.22136
1.22858
1.23403
1.23881
1.2421
1.23282
1.20966
1.19772
1.19742
1.20075
1.20495
1.20903
1.22135
1.25627
1.28194
1.29274
1.30014
1.30597
1.31058
1.31106
1.29289
1.26833
1.25723
1.25678
1.26031
1.26514
1.27258
1.30249
1.34007
1.35835
1.36836
1.37679
1.38251
1.38649
1.3796
1.35052
1.32595
1.31753
1.31811
1.32184
1.3283
1.35668
1.40249
1.42817
1.43944
1.44846
1.45515
1.45971
1.45446
1.42301
1.39074
1.37705
1.37565
1.37946
1.388
1.42615
1.47664
1.50334
1.51416
1.52037
1.52526
1.52583
1.50471
1.4618
1.43071
1.41937
1.41836
1.42365
1.45943
1.50934
1.53627
1.5449
1.54561
1.54453
1.5336
1.51522
2.96206
12.2625
1.0961
1.09401
1.09567
1.09808
1.10123
1.10597
1.12631
1.15451
1.16774
1.17365
1.17796
1.18157
1.18106
1.16436
1.14971
1.14704
1.1478
1.14976
1.15325
1.15823
1.17739
1.21088
1.22895
1.23594
1.23968
1.24312
1.24723
1.24121
1.21893
1.20678
1.20509
1.20543
1.20755
1.21174
1.2242
1.26012
1.28975
1.30165
1.30682
1.31004
1.31475
1.31806
1.30469
1.27876
1.26607
1.26386
1.26421
1.26708
1.27364
1.30298
1.34629
1.3688
1.37735
1.3815
1.38441
1.38848
1.38651
1.36142
1.33465
1.3238
1.323
1.32672
1.33325
1.35744
1.40422
1.43522
1.44708
1.45264
1.45684
1.46218
1.46157
1.43351
1.39823
1.38196
1.37924
1.38236
1.39006
1.42284
1.47385
1.5041
1.51589
1.52107
1.52402
1.52522
1.51033
1.46793
1.43191
1.41738
1.41477
1.41796
1.4521
1.50423
1.53188
1.53889
1.54012
1.53291
1.54944
2.97752
12.3121
1.10636
1.09741
1.098
1.10019
1.10198
1.10459
1.10987
1.13264
1.16153
1.17459
1.18067
1.18521
1.18904
1.18798
1.1697
1.1529
1.14954
1.15196
1.15548
1.15863
1.16286
1.18109
1.21446
1.23238
1.2403
1.24652
1.25142
1.25528
1.24938
1.22636
1.21023
1.2073
1.20986
1.21401
1.21791
1.22699
1.25968
1.28997
1.30324
1.3115
1.31793
1.32276
1.32565
1.31475
1.28777
1.26982
1.26586
1.26879
1.27403
1.28002
1.30264
1.34379
1.36715
1.3769
1.3839
1.39051
1.39595
1.3968
1.3751
1.34478
1.3306
1.3287
1.33027
1.33448
1.35444
1.40031
1.43215
1.44599
1.45624
1.46447
1.46986
1.46943
1.44335
1.40642
1.38733
1.38259
1.38235
1.38659
1.41515
1.46853
1.50071
1.51275
1.52028
1.52584
1.52775
1.51444
1.47166
1.43139
1.41327
1.40949
1.41274
1.44682
1.49869
1.52526
1.53312
1.52683
1.56256
3.03107
12.3564
1.1228
1.10654
1.10097
1.10058
1.10202
1.10525
1.1091
1.11592
1.14032
1.16853
1.18102
1.18659
1.19042
1.19405
1.1942
1.17744
1.16086
1.15697
1.1571
1.15853
1.16191
1.1668
1.18576
1.22074
1.24073
1.24841
1.2524
1.256
1.26065
1.25876
1.2377
1.22048
1.21606
1.21533
1.21619
1.21973
1.22871
1.26184
1.29712
1.31264
1.31869
1.32168
1.32591
1.33071
1.32608
1.30071
1.28078
1.27535
1.27417
1.27466
1.27947
1.29978
1.34357
1.37385
1.38696
1.39374
1.39952
1.40447
1.40537
1.38539
1.35163
1.33248
1.32845
1.33081
1.33525
1.35085
1.39817
1.43884
1.45629
1.46382
1.46911
1.47398
1.47466
1.4513
1.41147
1.38682
1.38006
1.38169
1.38715
1.41201
1.46563
1.50359
1.51716
1.52156
1.52446
1.52633
1.51751
1.47643
1.43187
1.41007
1.40489
1.40699
1.44071
1.49153
1.51764
1.51842
1.56075
3.10674
12.3985
1.13801
1.12456
1.10574
1.10205
1.10413
1.10755
1.1111
1.11456
1.1209
1.14606
1.17449
1.18682
1.19279
1.19776
1.20191
1.20164
1.18344
1.164
1.15874
1.16064
1.16421
1.16782
1.17188
1.18826
1.22267
1.24314
1.25222
1.25941
1.26468
1.26888
1.26711
1.24547
1.22339
1.21625
1.21761
1.22171
1.2265
1.23334
1.26087
1.29562
1.31218
1.32106
1.32878
1.33421
1.33854
1.33586
1.312
1.28642