/*--------------------------------*- C++ -*----------------------------------*\
  =========                 |
  \\      /  F ield         | OpenFOAM: The Open Source CFD Toolbox
   \\    /   O peration     | Website:  https://openfoam.org
    \\  /    A nd           | Version:  12
     \\/     M anipulation  |
\*---------------------------------------------------------------------------*/
FoamFile
{
    format      ascii;
    class       volVectorField;
    location    "8.6";
    object      U;
}
// * * * * * * * * * * * * * * * * * * * * * * * * * * * * * * * * * * * * * //

dimensions      [0 1 -1 0 0 0 0];

internalField   nonuniform List<vector> 
9801
(
(1.22797 -0.116981 0)
(1.22979 -0.112201 0)
(1.23118 -0.109814 0)
(1.22929 -0.107708 0)
(1.22643 -0.105524 0)
(1.22277 -0.103295 0)
(1.21856 -0.10084 0)
(1.21258 -0.0972448 0)
(1.20613 -0.0939232 0)
(1.20185 -0.0916783 0)
(1.19815 -0.0896411 0)
(1.19697 -0.0867552 0)
(1.19992 -0.0835002 0)
(1.20102 -0.080983 0)
(1.19924 -0.0787944 0)
(1.19629 -0.0766871 0)
(1.19253 -0.0745752 0)
(1.18814 -0.0722659 0)
(1.18115 -0.0688575 0)
(1.17447 -0.0660059 0)
(1.16995 -0.0639333 0)
(1.16615 -0.0620735 0)
(1.16492 -0.0592358 0)
(1.16804 -0.0560376 0)
(1.16921 -0.0534929 0)
(1.16736 -0.0512706 0)
(1.16415 -0.0491801 0)
(1.16016 -0.0471806 0)
(1.15523 -0.0447573 0)
(1.14656 -0.0415634 0)
(1.13995 -0.0392071 0)
(1.13544 -0.0373922 0)
(1.13165 -0.0356517 0)
(1.13093 -0.0329089 0)
(1.13464 -0.029829 0)
(1.13564 -0.027245 0)
(1.13344 -0.0250438 0)
(1.12999 -0.0230349 0)
(1.1258 -0.0211059 0)
(1.11903 -0.0184391 0)
(1.109 -0.0156642 0)
(1.10278 -0.0137171 0)
(1.09825 -0.0121741 0)
(1.09441 -0.0104671 0)
(1.09504 -0.00787308 0)
(1.0992 -0.00488777 0)
(1.09956 -0.00256388 0)
(1.09694 -0.000495624 0)
(1.09299 0.0013269 0)
(1.0882 0.00324504 0)
(1.07793 0.0060253 0)
(1.06751 0.00817173 0)
(1.06163 0.00973303 0)
(1.05696 0.01098 0)
(1.05379 0.0127128 0)
(1.05697 0.0154707 0)
(1.06086 0.0183389 0)
(1.06008 0.0205733 0)
(1.05675 0.0226303 0)
(1.05226 0.0242355 0)
(1.0444 0.0264047 0)
(1.03009 0.0285524 0)
(1.02024 0.0299418 0)
(1.01452 0.0309314 0)
(1.00989 0.0317594 0)
(1.00951 0.033759 0)
(1.01569 0.036845 0)
(1.01771 0.0393079 0)
(1.01478 0.0415383 0)
(1.01046 0.0433558 0)
(1.00466 0.0451225 0)
(0.989668 0.0472194 0)
(0.972544 0.0481731 0)
(0.963223 0.048677 0)
(0.957046 0.048937 0)
(0.954062 0.0499497 0)
(0.960733 0.0525412 0)
(0.965895 0.0554452 0)
(0.963996 0.0580422 0)
(0.958801 0.0601579 0)
(0.952157 0.0616078 0)
(0.938047 0.063039 0)
(0.912249 0.0627584 0)
(0.894062 0.0617157 0)
(0.884348 0.0615541 0)
(0.878231 0.061844 0)
(0.884665 0.0629584 0)
(0.891568 0.0650638 0)
(0.887748 0.0674814 0)
(0.878787 0.0698615 0)
(0.867681 0.0707828 0)
(0.846372 0.0714703 0)
(0.807776 0.0695317 0)
(0.768934 0.0653174 0)
(0.741676 0.0615369 0)
(0.725567 0.0454201 0)
(0.71278 0.0186447 0)
(0.34726 -0.0577349 0)
(-0.660661 -0.0405684 0)
(1.22805 -0.118891 0)
(1.23008 -0.114698 0)
(1.23107 -0.112365 0)
(1.2289 -0.110108 0)
(1.2259 -0.107827 0)
(1.22229 -0.105362 0)
(1.21806 -0.102503 0)
(1.21214 -0.0987204 0)
(1.20603 -0.0955007 0)
(1.20159 -0.0933153 0)
(1.1979 -0.0915003 0)
(1.19679 -0.0887472 0)
(1.20021 -0.0855872 0)
(1.2011 -0.0831634 0)
(1.19903 -0.0810055 0)
(1.19593 -0.0788977 0)
(1.19217 -0.0767284 0)
(1.18771 -0.0741915 0)
(1.18089 -0.0708203 0)
(1.17419 -0.0679336 0)
(1.16957 -0.0657766 0)
(1.16579 -0.0640016 0)
(1.1645 -0.0611787 0)
(1.1681 -0.0578803 0)
(1.16922 -0.0553604 0)
(1.16716 -0.053164 0)
(1.16387 -0.0510747 0)
(1.15991 -0.0490671 0)
(1.15497 -0.0466249 0)
(1.14657 -0.0436745 0)
(1.13969 -0.0413441 0)
(1.13504 -0.0393976 0)
(1.13123 -0.037707 0)
(1.13039 -0.0348523 0)
(1.13449 -0.031509 0)
(1.1355 -0.0288466 0)
(1.13323 -0.0266257 0)
(1.12976 -0.024641 0)
(1.12556 -0.0227577 0)
(1.11896 -0.0202116 0)
(1.10912 -0.0177754 0)
(1.10252 -0.0159004 0)
(1.09785 -0.0142481 0)
(1.09397 -0.0126519 0)
(1.09451 -0.00988473 0)
(1.09903 -0.00665366 0)
(1.0994 -0.0042197 0)
(1.0967 -0.00210572 0)
(1.09278 -0.000256534 0)
(1.08803 0.00164816 0)
(1.07807 0.00413487 0)
(1.06745 0.00599838 0)
(1.06119 0.00753271 0)
(1.05648 0.00887941 0)
(1.05309 0.010549 0)
(1.05627 0.0136346 0)
(1.06065 0.0167872 0)
(1.05996 0.0190889 0)
(1.05655 0.0211323 0)
(1.05204 0.0227157 0)
(1.04454 0.0247078 0)
(1.03043 0.026326 0)
(1.01993 0.0274193 0)
(1.0139 0.0285547 0)
(1.00925 0.0292984 0)
(1.0082 0.0313032 0)
(1.01425 0.0345852 0)
(1.01671 0.037864 0)
(1.01413 0.0404703 0)
(1.0099 0.0422637 0)
(1.0044 0.0436789 0)
(0.99045 0.0450847 0)
(0.972781 0.0452535 0)
(0.962581 0.0455306 0)
(0.956261 0.0458406 0)
(0.952051 0.0464406 0)
(0.956578 0.0501116 0)
(0.962705 0.0551744 0)
(0.961905 0.0581407 0)
(0.95701 0.0597715 0)
(0.950601 0.0601048 0)
(0.938496 0.0603137 0)
(0.913033 0.0588177 0)
(0.893274 0.0568443 0)
(0.882704 0.055718 0)
(0.875093 0.0552122 0)
(0.876373 0.0590163 0)
(0.883266 0.067209 0)
(0.881747 0.0726155 0)
(0.873757 0.0748425 0)
(0.862976 0.0746074 0)
(0.843304 0.0730432 0)
(0.805816 0.0672192 0)
(0.765536 0.061677 0)
(0.733643 0.0587423 0)
(0.711115 0.0514043 0)
(0.702603 0.0212853 0)
(0.348534 -0.0396937 0)
(-0.662641 -0.0406198 0)
(1.22765 -0.117071 0)
(1.23012 -0.112354 0)
(1.23095 -0.109686 0)
(1.22859 -0.107181 0)
(1.2254 -0.104765 0)
(1.22162 -0.10224 0)
(1.21712 -0.0994542 0)
(1.21111 -0.0960937 0)
(1.20538 -0.093264 0)
(1.20099 -0.091249 0)
(1.19726 -0.0896578 0)
(1.19618 -0.0870748 0)
(1.20008 -0.0836118 0)
(1.20105 -0.0809102 0)
(1.19885 -0.0785757 0)
(1.19563 -0.0763368 0)
(1.19177 -0.0741364 0)
(1.18717 -0.0716395 0)
(1.18036 -0.0684157 0)
(1.17381 -0.0655996 0)
(1.16914 -0.0634967 0)
(1.16529 -0.0618417 0)
(1.16369 -0.0592315 0)
(1.1675 -0.0556657 0)
(1.16893 -0.0529054 0)
(1.16685 -0.05072 0)
(1.16353 -0.048686 0)
(1.15955 -0.0467834 0)
(1.15469 -0.0445906 0)
(1.14641 -0.0418381 0)
(1.13919 -0.0393902 0)
(1.13439 -0.0373031 0)
(1.13049 -0.0356308 0)
(1.1291 -0.0329602 0)
(1.1333 -0.0291988 0)
(1.13477 -0.026348 0)
(1.13261 -0.024286 0)
(1.12915 -0.02246 0)
(1.12496 -0.0208087 0)
(1.11881 -0.0187592 0)
(1.10887 -0.0166707 0)
(1.10175 -0.014671 0)
(1.09687 -0.0127992 0)
(1.09287 -0.0112809 0)
(1.09263 -0.00847166 0)
(1.09728 -0.00455363 0)
(1.09815 -0.00179634 0)
(1.09564 0.00026627 0)
(1.09184 0.00200447 0)
(1.08733 0.0035491 0)
(1.07802 0.00524354 0)
(1.06682 0.00657524 0)
(1.05995 0.00817633 0)
(1.055 0.00968216 0)
(1.05117 0.0111297 0)
(1.05326 0.0145478 0)
(1.05818 0.0187446 0)
(1.0581 0.0214661 0)
(1.05492 0.0235496 0)
(1.05051 0.0250197 0)
(1.04397 0.0264098 0)
(1.0304 0.0267194 0)
(1.0187 0.0271964 0)
(1.01187 0.02847 0)
(1.00684 0.0294834 0)
(1.00381 0.0314441 0)
(1.00877 0.0367604 0)
(1.01304 0.041192 0)
(1.01125 0.0433951 0)
(1.00713 0.0446851 0)
(1.00199 0.0453846 0)
(0.990245 0.0455467 0)
(0.972089 0.0438531 0)
(0.959857 0.0438452 0)
(0.952437 0.0449558 0)
(0.946787 0.0456926 0)
(0.947254 0.0496066 0)
(0.955025 0.0559325 0)
(0.955984 0.0588344 0)
(0.951389 0.0598112 0)
(0.945228 0.0600965 0)
(0.935565 0.0603042 0)
(0.912415 0.0575771 0)
(0.890037 0.0542383 0)
(0.877038 0.0537061 0)
(0.868365 0.0535978 0)
(0.864274 0.054529 0)
(0.870317 0.0601781 0)
(0.872117 0.0640141 0)
(0.865771 0.0648524 0)
(0.855861 0.0647058 0)
(0.839511 0.0636523 0)
(0.806667 0.0582443 0)
(0.770351 0.0497808 0)
(0.738055 0.0415121 0)
(0.710161 0.0275592 0)
(0.707922 -0.00875675 0)
(0.346015 -0.0400284 0)
(-0.665625 -0.0324286 0)
(1.22579 -0.114779 0)
(1.22749 -0.109711 0)
(1.22856 -0.106721 0)
(1.22625 -0.104132 0)
(1.22312 -0.101653 0)
(1.21937 -0.0992324 0)
(1.21486 -0.0967589 0)
(1.20878 -0.0939802 0)
(1.20314 -0.091519 0)
(1.19872 -0.0894544 0)
(1.19494 -0.087871 0)
(1.1932 -0.085556 0)
(1.19702 -0.0820194 0)
(1.19831 -0.07898 0)
(1.19626 -0.0764374 0)
(1.19308 -0.0740817 0)
(1.18926 -0.0719055 0)
(1.18468 -0.0695652 0)
(1.17787 -0.0667103 0)
(1.17138 -0.0641941 0)
(1.16661 -0.0621837 0)
(1.16268 -0.0605995 0)
(1.16062 -0.0582726 0)
(1.16436 -0.0546311 0)
(1.1662 -0.0516029 0)
(1.16419 -0.0493483 0)
(1.16087 -0.0473551 0)
(1.15693 -0.0455239 0)
(1.15211 -0.043376 0)
(1.1439 -0.0405911 0)
(1.13659 -0.0382329 0)
(1.13168 -0.036336 0)
(1.12764 -0.0348005 0)
(1.1256 -0.0324864 0)
(1.12966 -0.0287431 0)
(1.13169 -0.0256899 0)
(1.12959 -0.023632 0)
(1.1261 -0.0219555 0)
(1.12199 -0.0204629 0)
(1.11624 -0.0184882 0)
(1.10643 -0.0162475 0)
(1.09887 -0.0142735 0)
(1.09378 -0.0124358 0)
(1.08957 -0.0109371 0)
(1.08811 -0.00834544 0)
(1.09276 -0.00406078 0)
(1.0944 -0.001022 0)
(1.09204 0.000874804 0)
(1.08833 0.00231171 0)
(1.08405 0.00348499 0)
(1.0759 0.00488748 0)
(1.06431 0.0060618 0)
(1.05659 0.0075954 0)
(1.0512 0.00932764 0)
(1.04683 0.010711 0)
(1.04683 0.0140605 0)
(1.05231 0.0191216 0)
(1.05318 0.0220593 0)
(1.05021 0.0237143 0)
(1.04597 0.0248074 0)
(1.04062 0.0258069 0)
(1.02851 0.0259113 0)
(1.01525 0.0258726 0)
(1.00726 0.0272491 0)
(1.00162 0.0289204 0)
(0.997173 0.0304082 0)
(0.999918 0.0346361 0)
(1.00569 0.0395938 0)
(1.00472 0.0420235 0)
(1.00088 0.043443 0)
(0.996111 0.0443442 0)
(0.987153 0.0449647 0)
(0.968994 0.0428819 0)
(0.954225 0.0417728 0)
(0.945864 0.0429574 0)
(0.939741 0.0438644 0)
(0.936625 0.0457972 0)
(0.943343 0.0523395 0)
(0.946807 0.0582042 0)
(0.943216 0.0607652 0)
(0.9374 0.0617481 0)
(0.929787 0.0621742 0)
(0.911751 0.0589725 0)
(0.887044 0.0521082 0)
(0.87119 0.048552 0)
(0.861485 0.0483119 0)
(0.853983 0.0483434 0)
(0.854209 0.0529077 0)
(0.857106 0.0615235 0)
(0.852595 0.0670237 0)
(0.843589 0.0681558 0)
(0.83166 0.0669668 0)
(0.806445 0.0582717 0)
(0.771628 0.0428554 0)
(0.739264 0.030092 0)
(0.712775 0.0151179 0)
(0.714233 -0.0189307 0)
(0.34869 -0.0315953 0)
(-0.669752 -0.0281746 0)
(1.22163 -0.112302 0)
(1.22277 -0.106604 0)
(1.22441 -0.103479 0)
(1.22224 -0.101061 0)
(1.21914 -0.0989282 0)
(1.21544 -0.0969291 0)
(1.21119 -0.0948841 0)
(1.20527 -0.0924126 0)
(1.19932 -0.0899978 0)
(1.19468 -0.0876818 0)
(1.19087 -0.0857051 0)
(1.18858 -0.0831472 0)
(1.19208 -0.079008 0)
(1.19402 -0.0756389 0)
(1.19223 -0.0732934 0)
(1.18913 -0.0712436 0)
(1.18537 -0.0693588 0)
(1.1809 -0.0673685 0)
(1.17411 -0.0649103 0)
(1.16738 -0.062535 0)
(1.16247 -0.060399 0)
(1.15848 -0.058637 0)
(1.15585 -0.0564642 0)
(1.15917 -0.0526762 0)
(1.16169 -0.0492763 0)
(1.15995 -0.046909 0)
(1.15672 -0.0449246 0)
(1.15284 -0.0430995 0)
(1.14802 -0.0410245 0)
(1.13981 -0.0385524 0)
(1.13238 -0.0364548 0)
(1.12727 -0.0346875 0)
(1.12309 -0.0331943 0)
(1.12038 -0.0311902 0)
(1.1239 -0.0275731 0)
(1.12661 -0.0242354 0)
(1.12479 -0.0218944 0)
(1.12142 -0.0199535 0)
(1.11743 -0.018204 0)
(1.11194 -0.0162563 0)
(1.10212 -0.0145362 0)
(1.094 -0.0128558 0)
(1.08864 -0.0110661 0)
(1.08426 -0.00948416 0)
(1.08175 -0.00723177 0)
(1.08601 -0.00311708 0)
(1.08876 0.000302493 0)
(1.08674 0.00242773 0)
(1.08317 0.00401713 0)
(1.07903 0.00532719 0)
(1.07198 0.00654104 0)
(1.05981 0.00660117 0)
(1.05084 0.00773799 0)
(1.04505 0.00981977 0)
(1.04041 0.01171 0)
(1.03853 0.0145926 0)
(1.04407 0.019699 0)
(1.04661 0.0234445 0)
(1.04413 0.025509 0)
(1.04005 0.0268838 0)
(1.03542 0.0277327 0)
(1.02558 0.0275299 0)
(1.01045 0.0257313 0)
(1.00066 0.0261943 0)
(0.994581 0.0281311 0)
(0.989537 0.0298891 0)
(0.98921 0.0336257 0)
(0.995954 0.0400921 0)
(0.997043 0.0439592 0)
(0.993658 0.0453676 0)
(0.989035 0.0459345 0)
(0.982464 0.0462553 0)
(0.96675 0.0437448 0)
(0.949088 0.0403811 0)
(0.938932 0.0399374 0)
(0.93236 0.0411468 0)
(0.927042 0.0426801 0)
(0.929592 0.04835 0)
(0.936263 0.0568386 0)
(0.935162 0.0608057 0)
(0.929765 0.0615798 0)
(0.923339 0.0613437 0)
(0.91082 0.059433 0)
(0.886886 0.051905 0)
(0.866454 0.0455595 0)
(0.85474 0.0434766 0)
(0.846489 0.0435012 0)
(0.842169 0.0451898 0)
(0.844954 0.0517678 0)
(0.843742 0.0575309 0)
(0.836574 0.0592875 0)
(0.826913 0.0586184 0)
(0.811052 0.0548452 0)
(0.782092 0.042256 0)
(0.750173 0.0267332 0)
(0.722485 0.00936735 0)
(0.724569 -0.0296382 0)
(0.34778 -0.0256981 0)
(-0.672254 -0.0247774 0)
(1.21641 -0.109024 0)
(1.2175 -0.103327 0)
(1.21963 -0.100435 0)
(1.21754 -0.0983956 0)
(1.21449 -0.0964266 0)
(1.21082 -0.0946025 0)
(1.20666 -0.0927655 0)
(1.20074 -0.0903875 0)
(1.19421 -0.0877819 0)
(1.18948 -0.0851918 0)
(1.1857 -0.0828972 0)
(1.18313 -0.0803587 0)
(1.18615 -0.0765695 0)
(1.18871 -0.0733093 0)
(1.18718 -0.0710294 0)
(1.18413 -0.0690508 0)
(1.18042 -0.0672718 0)
(1.17611 -0.0654803 0)
(1.16926 -0.0633635 0)
(1.16202 -0.061229 0)
(1.15702 -0.0590293 0)
(1.15296 -0.0570304 0)
(1.14997 -0.054856 0)
(1.15261 -0.051203 0)
(1.15578 -0.0476461 0)
(1.15449 -0.0450847 0)
(1.15145 -0.0429437 0)
(1.14763 -0.0411228 0)
(1.14298 -0.0393583 0)
(1.13478 -0.0377815 0)
(1.12681 -0.0363419 0)
(1.12152 -0.0344841 0)
(1.11723 -0.0326254 0)
(1.11411 -0.0304367 0)
(1.11681 -0.0265028 0)
(1.12016 -0.0226786 0)
(1.11896 -0.0200227 0)
(1.11589 -0.0178565 0)
(1.11203 -0.016185 0)
(1.10712 -0.0147461 0)
(1.09746 -0.0140732 0)
(1.08814 -0.0133697 0)
(1.08236 -0.0116372 0)
(1.07784 -0.00975001 0)
(1.07472 -0.0073922 0)
(1.07814 -0.00301085 0)
(1.08202 0.00110511 0)
(1.08069 0.00358959 0)
(1.07739 0.00544249 0)
(1.07336 0.00684546 0)
(1.06765 0.00798032 0)
(1.05552 0.00770186 0)
(1.0445 0.00750673 0)
(1.03816 0.00894971 0)
(1.0335 0.0108373 0)
(1.03059 0.0135384 0)
(1.03515 0.0187471 0)
(1.03953 0.023365 0)
(1.03781 0.0254743 0)
(1.03399 0.0266825 0)
(1.02967 0.0275564 0)
(1.02233 0.0281176 0)
(1.00686 0.0267098 0)
(0.994473 0.0257708 0)
(0.987738 0.0267183 0)
(0.982537 0.0281292 0)
(0.979706 0.0308695 0)
(0.985566 0.0376625 0)
(0.989825 0.0436713 0)
(0.987527 0.0456918 0)
(0.983019 0.0460593 0)
(0.977662 0.0462205 0)
(0.965923 0.0447975 0)
(0.947024 0.0406794 0)
(0.933772 0.0384627 0)
(0.925931 0.0388416 0)
(0.919998 0.0398499 0)
(0.917546 0.0430066 0)
(0.924281 0.0518013 0)
(0.927548 0.0593288 0)
(0.923907 0.062063 0)
(0.91791 0.0625756 0)
(0.909701 0.0622438 0)
(0.890597 0.0560156 0)
(0.866588 0.0459832 0)
(0.851088 0.0405704 0)
(0.841954 0.0385819 0)
(0.834843 0.0386024 0)
(0.83396 0.0426846 0)
(0.834769 0.0493315 0)
(0.830099 0.0530785 0)
(0.822056 0.0532096 0)
(0.812176 0.0515339 0)
(0.795028 0.0428887 0)
(0.76975 0.027926 0)
(0.740208 0.0114283 0)
(0.733826 -0.0325163 0)
(0.342639 -0.0225116 0)
(-0.674639 -0.0221528 0)
(1.21073 -0.106964 0)
(1.21196 -0.101486 0)
(1.21501 -0.0978371 0)
(1.21308 -0.0955662 0)
(1.20991 -0.0938803 0)
(1.20619 -0.0921749 0)
(1.20199 -0.0902137 0)
(1.19599 -0.0877051 0)
(1.18891 -0.0852138 0)
(1.18396 -0.0831164 0)
(1.18002 -0.0812499 0)
(1.17727 -0.078787 0)
(1.18016 -0.0746273 0)
(1.18351 -0.070853 0)
(1.18226 -0.0684484 0)
(1.17914 -0.0666954 0)
(1.17543 -0.065127 0)
(1.17124 -0.0634429 0)
(1.16475 -0.0613993 0)
(1.15683 -0.0594331 0)
(1.15145 -0.0575124 0)
(1.14735 -0.0555317 0)
(1.14422 -0.0532494 0)
(1.14618 -0.0493054 0)
(1.14986 -0.0453795 0)
(1.14901 -0.0428636 0)
(1.14601 -0.0410656 0)
(1.1423 -0.039499 0)
(1.13805 -0.0379861 0)
(1.1309 -0.036533 0)
(1.12195 -0.0353367 0)
(1.11595 -0.0335843 0)
(1.11155 -0.0315081 0)
(1.10812 -0.0292584 0)
(1.10974 -0.0250096 0)
(1.11387 -0.0204773 0)
(1.11335 -0.0179502 0)
(1.11044 -0.0163493 0)
(1.10674 -0.0149418 0)
(1.10252 -0.0136846 0)
(1.09451 -0.0128314 0)
(1.08359 -0.0125275 0)
(1.07657 -0.0113014 0)
(1.07185 -0.00955185 0)
(1.06822 -0.00753076 0)
(1.07014 -0.00307812 0)
(1.07531 0.00229853 0)
(1.0751 0.00523104 0)
(1.07198 0.00676912 0)
(1.06798 0.00787941 0)
(1.06331 0.00892033 0)
(1.05332 0.00913292 0)
(1.04046 0.00853431 0)
(1.03267 0.00908286 0)
(1.02778 0.0100247 0)
(1.02391 0.0114492 0)
(1.0262 0.0161356 0)
(1.0325 0.0230855 0)
(1.03249 0.02693 0)
(1.02898 0.0285188 0)
(1.02466 0.0291994 0)
(1.01885 0.0297833 0)
(1.00554 0.0285798 0)
(0.991248 0.0265997 0)
(0.982759 0.0263522 0)
(0.977113 0.0271128 0)
(0.972556 0.0283411 0)
(0.97465 0.0334296 0)
(0.982086 0.0420432 0)
(0.982766 0.0465505 0)
(0.978956 0.047747 0)
(0.974012 0.0478347 0)
(0.965908 0.0472026 0)
(0.94838 0.0422991 0)
(0.931658 0.0377501 0)
(0.921761 0.0366381 0)
(0.915258 0.037063 0)
(0.910085 0.0382222 0)
(0.912144 0.0439374 0)
(0.919195 0.0535395 0)
(0.919176 0.0591499 0)
(0.914153 0.0612733 0)
(0.907621 0.0617207 0)
(0.896055 0.0601138 0)
(0.873476 0.0498412 0)
(0.852764 0.039322 0)
(0.839919 0.0350512 0)
(0.831932 0.0337552 0)
(0.826893 0.0346077 0)
(0.827791 0.0396567 0)
(0.826654 0.0438377 0)
(0.82128 0.0444749 0)
(0.813849 0.0429655 0)
(0.803428 0.0393805 0)
(0.786755 0.0288913 0)
(0.762926 0.0146383 0)
(0.744675 -0.0241688 0)
(0.336559 -0.0254248 0)
(-0.676797 -0.0201578 0)
(1.20623 -0.104444 0)
(1.2067 -0.0994848 0)
(1.21041 -0.0957468 0)
(1.20871 -0.0932949 0)
(1.20564 -0.091185 0)
(1.20207 -0.0891435 0)
(1.198 -0.0871611 0)
(1.19228 -0.0849746 0)
(1.18489 -0.0827744 0)
(1.17965 -0.0807145 0)
(1.17567 -0.078874 0)
(1.17253 -0.0769242 0)
(1.17444 -0.0733836 0)
(1.17837 -0.0695437 0)
(1.17763 -0.0668561 0)
(1.17476 -0.0646659 0)
(1.17123 -0.0627132 0)
(1.16723 -0.0609832 0)
(1.16144 -0.0592213 0)
(1.15301 -0.0576253 0)
(1.147 -0.0558024 0)
(1.14271 -0.0539781 0)
(1.13918 -0.052159 0)
(1.13998 -0.048422 0)
(1.14435 -0.0437735 0)
(1.14432 -0.0409145 0)
(1.14163 -0.0389619 0)
(1.13812 -0.0373404 0)
(1.13417 -0.0359737 0)
(1.12844 -0.034702 0)
(1.11889 -0.0338444 0)
(1.11154 -0.0323457 0)
(1.10671 -0.0305387 0)
(1.10278 -0.0288418 0)
(1.10275 -0.0250823 0)
(1.10794 -0.0194587 0)
(1.10887 -0.0160526 0)
(1.10631 -0.0143004 0)
(1.10277 -0.0130421 0)
(1.09877 -0.0119992 0)
(1.09238 -0.0111267 0)
(1.08109 -0.0112044 0)
(1.07242 -0.0103651 0)
(1.06712 -0.00885787 0)
(1.06296 -0.00753811 0)
(1.06236 -0.00419066 0)
(1.06839 0.00226592 0)
(1.07032 0.00654201 0)
(1.06781 0.00840698 0)
(1.064 0.00960774 0)
(1.05977 0.0104962 0)
(1.05189 0.0108256 0)
(1.03873 0.00953231 0)
(1.02946 0.00932538 0)
(1.02355 0.0104282 0)
(1.01907 0.011503 0)
(1.01758 0.0143537 0)
(1.02424 0.0217302 0)
(1.02746 0.0274909 0)
(1.02495 0.0295155 0)
(1.02083 0.0305743 0)
(1.0162 0.0312289 0)
(1.00597 0.0301354 0)
(0.99048 0.0265527 0)
(0.979959 0.0252867 0)
(0.973227 0.025952 0)
(0.968075 0.0269074 0)
(0.965491 0.0294764 0)
(0.972297 0.0377497 0)
(0.977571 0.0454076 0)
(0.975674 0.0485383 0)
(0.971206 0.049611 0)
(0.96563 0.050048 0)
(0.952332 0.047079 0)
(0.932837 0.0395844 0)
(0.920059 0.0358235 0)
(0.9124 0.0350076 0)
(0.906285 0.0351139 0)
(0.902666 0.0372256 0)
(0.908043 0.0460839 0)
(0.912588 0.0553839 0)
(0.910236 0.0597809 0)
(0.904528 0.0615751 0)
(0.89754 0.0615033 0)
(0.883316 0.0572281 0)
(0.859931 0.0442927 0)
(0.84189 0.0345286 0)
(0.831048 0.0306761 0)
(0.823914 0.0292889 0)
(0.821062 0.0310109 0)
(0.821846 0.0361712 0)
(0.819186 0.0385742 0)
(0.814039 0.0371279 0)
(0.807659 0.0333715 0)
(0.797639 0.0264798 0)
(0.782146 0.0154777 0)
(0.760818 -0.0160703 0)
(0.331611 -0.0274557 0)
(-0.678415 -0.0174766 0)
(1.20249 -0.102244 0)
(1.20177 -0.0976777 0)
(1.20598 -0.0935731 0)
(1.20499 -0.0907169 0)
(1.20223 -0.0883523 0)
(1.19878 -0.0863265 0)
(1.19484 -0.0845214 0)
(1.18964 -0.0826127 0)
(1.18212 -0.0806739 0)
(1.17649 -0.0789192 0)
(1.17234 -0.0772912 0)
(1.16881 -0.0757002 0)
(1.16928 -0.07218 0)
(1.17376 -0.0674817 0)
(1.17386 -0.0643376 0)
(1.17126 -0.0621489 0)
(1.16782 -0.0603175 0)
(1.16392 -0.0587099 0)
(1.15889 -0.0570663 0)
(1.15053 -0.0556554 0)
(1.14372 -0.0541788 0)
(1.13913 -0.0524433 0)
(1.13533 -0.0508005 0)
(1.13433 -0.0476544 0)
(1.13915 -0.0424769 0)
(1.14052 -0.0389976 0)
(1.13825 -0.0371104 0)
(1.1349 -0.0355364 0)
(1.13103 -0.0341117 0)
(1.12614 -0.032675 0)
(1.11677 -0.0318494 0)
(1.10831 -0.03088 0)
(1.103 -0.029206 0)
(1.09888 -0.0275815 0)
(1.09677 -0.0250352 0)
(1.10173 -0.0196207 0)
(1.10478 -0.015239 0)
(1.10289 -0.0131407 0)
(1.09952 -0.0117076 0)
(1.09565 -0.0105219 0)
(1.09044 -0.00936721 0)
(1.07956 -0.0093461 0)
(1.06973 -0.00930132 0)
(1.06374 -0.00811077 0)
(1.05928 -0.0067202 0)
(1.0563 -0.00477942 0)
(1.06071 0.000815634 0)
(1.06559 0.00681594 0)
(1.06445 0.00942503 0)
(1.06097 0.0106391 0)
(1.05691 0.0115364 0)
(1.05116 0.0122323 0)
(1.03868 0.0107795 0)
(1.02731 0.00948298 0)
(1.0204 0.010242 0)
(1.01535 0.011608 0)
(1.0115 0.0131252 0)
(1.01469 0.0188684 0)
(1.02165 0.0270051 0)
(1.0218 0.0308832 0)
(1.01826 0.0318311 0)
(1.01384 0.032185 0)
(1.00705 0.0320064 0)
(0.992161 0.0280945 0)
(0.978646 0.0248059 0)
(0.970733 0.0247312 0)
(0.964977 0.0256979 0)
(0.960286 0.02685 0)
(0.961496 0.0318518 0)
(0.969874 0.0423021 0)
(0.971726 0.0485537 0)
(0.968232 0.0506783 0)
(0.96336 0.051155 0)
(0.956138 0.0508092 0)
(0.939365 0.0438661 0)
(0.921595 0.0352135 0)
(0.910854 0.0325717 0)
(0.903859 0.0327717 0)
(0.898247 0.0332439 0)
(0.897279 0.0370994 0)
(0.903777 0.0475093 0)
(0.905913 0.0551583 0)
(0.902453 0.0581317 0)
(0.896471 0.0592563 0)
(0.888275 0.0589291 0)
(0.871585 0.0527279 0)
(0.849147 0.0384608 0)
(0.833172 0.0290604 0)
(0.823502 0.0255396 0)
(0.817129 0.0245467 0)
(0.816331 0.0272021 0)
(0.817281 0.0310189 0)
(0.814643 0.0311984 0)
(0.810352 0.0277324 0)
(0.804509 0.0225348 0)
(0.795627 0.0152622 0)
(0.776916 -0.00594176 0)
(0.329559 -0.028026 0)
(-0.679934 -0.014568 0)
(1.19906 -0.0996822 0)
(1.19721 -0.095532 0)
(1.20201 -0.0909503 0)
(1.20176 -0.0881943 0)
(1.19927 -0.0859605 0)
(1.19594 -0.0840188 0)
(1.19208 -0.0822722 0)
(1.18739 -0.0804934 0)
(1.17985 -0.0787141 0)
(1.17366 -0.0770222 0)
(1.16925 -0.0752317 0)
(1.1656 -0.0736586 0)
(1.16442 -0.0707248 0)
(1.16902 -0.0656923 0)
(1.17034 -0.0621302 0)
(1.16813 -0.0599666 0)
(1.16488 -0.0581351 0)
(1.16109 -0.0565588 0)
(1.15668 -0.0550391 0)
(1.14863 -0.0537509 0)
(1.14091 -0.0524871 0)
(1.13596 -0.0509295 0)
(1.13205 -0.0494809 0)
(1.12949 -0.0472638 0)
(1.1335 -0.0421862 0)
(1.13681 -0.0375532 0)
(1.1352 -0.0351734 0)
(1.13202 -0.0335351 0)
(1.12829 -0.0320901 0)
(1.12399 -0.0306916 0)
(1.11538 -0.0297545 0)
(1.10581 -0.0292695 0)
(1.10005 -0.0281902 0)
(1.09583 -0.0270053 0)
(1.09241 -0.0253993 0)
(1.09508 -0.0206146 0)
(1.10035 -0.0145081 0)
(1.09985 -0.0114293 0)
(1.09669 -0.0099466 0)
(1.09291 -0.0087461 0)
(1.0885 -0.00759629 0)
(1.07905 -0.00733756 0)
(1.06787 -0.00802056 0)
(1.06113 -0.00749505 0)
(1.05638 -0.00636148 0)
(1.05238 -0.00516859 0)
(1.05288 -0.00131176 0)
(1.05977 0.00600102 0)
(1.06119 0.0103607 0)
(1.05832 0.0120574 0)
(1.05445 0.0130251 0)
(1.05 0.0138367 0)
(1.03996 0.0130533 0)
(1.02639 0.0108073 0)
(1.01794 0.0107115 0)
(1.01247 0.0118729 0)
(1.008 0.0130023 0)
(1.00642 0.0156326 0)
(1.01381 0.023628 0)
(1.01815 0.0301248 0)
(1.0161 0.0328053 0)
(1.01205 0.0336417 0)
(1.00715 0.0341846 0)
(0.995884 0.0320832 0)
(0.979798 0.026666 0)
(0.969264 0.024273 0)
(0.962524 0.0245595 0)
(0.957084 0.0254824 0)
(0.953392 0.0273939 0)
(0.95874 0.035736 0)
(0.965852 0.0463088 0)
(0.965235 0.0509242 0)
(0.961144 0.0520877 0)
(0.956012 0.0520161 0)
(0.946543 0.0501032 0)
(0.927243 0.0409788 0)
(0.911424 0.0335931 0)
(0.902382 0.031574 0)
(0.896175 0.0312357 0)
(0.890949 0.0318363 0)
(0.892383 0.0378159 0)
(0.898247 0.04884 0)
(0.898201 0.0554067 0)
(0.893659 0.0579121 0)
(0.887382 0.0583822 0)
(0.878688 0.0564175 0)
(0.861361 0.0474206 0)
(0.839799 0.0326915 0)
(0.825093 0.0238681 0)
(0.816619 0.0202808 0)
(0.81148 0.0194289 0)
(0.812577 0.0230793 0)
(0.813704 0.0264425 0)
(0.812073 0.0246094 0)
(0.8091 0.0187177 0)
(0.804874 0.0132417 0)
(0.791575 0.000947078 0)
(0.331192 -0.0261226 0)
(-0.681353 -0.0113945 0)
(1.19591 -0.0971284 0)
(1.19281 -0.0937119 0)
(1.19811 -0.0887595 0)
(1.19874 -0.0858391 0)
(1.19646 -0.0837179 0)
(1.19325 -0.0818776 0)
(1.18952 -0.0801658 0)
(1.18522 -0.0784571 0)
(1.17801 -0.0767721 0)
(1.17108 -0.075089 0)
(1.16632 -0.0731258 0)
(1.1625 -0.0714005 0)
(1.16 -0.0691868 0)
(1.16383 -0.0644422 0)
(1.16698 -0.0601806 0)
(1.16535 -0.0578735 0)
(1.16225 -0.0561144 0)
(1.15862 -0.0545503 0)
(1.15456 -0.0530676 0)
(1.14721 -0.0517906 0)
(1.13856 -0.0508341 0)
(1.13302 -0.0494375 0)
(1.12888 -0.0479938 0)
(1.1255 -0.0465166 0)
(1.12725 -0.0423474 0)
(1.13253 -0.0365502 0)
(1.13232 -0.0333002 0)
(1.12942 -0.0315041 0)
(1.12584 -0.0300702 0)
(1.12183 -0.0287822 0)
(1.11456 -0.0278077 0)
(1.10414 -0.0277663 0)
(1.09747 -0.0271076 0)
(1.0929 -0.0259751 0)
(1.08911 -0.0249178 0)
(1.08839 -0.0218669 0)
(1.09471 -0.0150783 0)
(1.09666 -0.0103809 0)
(1.09412 -0.00822762 0)
(1.09051 -0.00692833 0)
(1.08651 -0.00586112 0)
(1.07935 -0.00542588 0)
(1.06736 -0.00676067 0)
(1.0589 -0.00699642 0)
(1.05358 -0.00595846 0)
(1.04931 -0.00478727 0)
(1.04659 -0.00276439 0)
(1.0521 0.00389092 0)
(1.05722 0.0105772 0)
(1.05587 0.0134265 0)
(1.05223 0.0146224 0)
(1.04822 0.0154693 0)
(1.04146 0.01565 0)
(1.0275 0.0128502 0)
(1.01654 0.011052 0)
(1.01039 0.0112917 0)
(1.00548 0.0121178 0)
(1.00126 0.0133944 0)
(1.00374 0.0190805 0)
(1.01191 0.0288357 0)
(1.01308 0.0335428 0)
(1.0097 0.0351497 0)
(1.00535 0.0360435 0)
(0.999341 0.0360106 0)
(0.984809 0.0304131 0)
(0.969651 0.0244099 0)
(0.96063 0.0232663 0)
(0.954591 0.0240992 0)
(0.949562 0.0247843 0)
(0.948084 0.0278199 0)
(0.956696 0.038513 0)
(0.961746 0.0473372 0)
(0.959508 0.050473 0)
(0.954671 0.0520921 0)
(0.948707 0.053254 0)
(0.936279 0.0498253 0)
(0.9168 0.0383652 0)
(0.902992 0.0310267 0)
(0.894545 0.0294454 0)
(0.888565 0.0293634 0)
(0.884325 0.0306086 0)
(0.887937 0.0380859 0)
(0.892661 0.0478592 0)
(0.891418 0.0525209 0)
(0.886629 0.0540195 0)
(0.880117 0.0542595 0)
(0.870167 0.0517887 0)
(0.85202 0.0414153 0)
(0.831757 0.0264376 0)
(0.818301 0.0178274 0)
(0.810949 0.0139723 0)
(0.807463 0.0134315 0)
(0.81065 0.0178994 0)
(0.813046 0.0200412 0)
(0.812745 0.0158116 0)
(0.811236 0.0106716 0)
(0.802623 0.00465452 0)
(0.336557 -0.0213482 0)
(-0.682816 -0.00807481 0)
(1.19287 -0.0949899 0)
(1.1887 -0.0923424 0)
(1.19388 -0.0872865 0)
(1.19572 -0.0837087 0)
(1.19368 -0.0814319 0)
(1.1906 -0.0795291 0)
(1.18702 -0.0777692 0)
(1.18299 -0.0760679 0)
(1.17619 -0.0743165 0)
(1.16848 -0.0728052 0)
(1.16347 -0.0712111 0)
(1.15948 -0.0696663 0)
(1.15626 -0.067956 0)
(1.15842 -0.0639453 0)
(1.16327 -0.0588803 0)
(1.1627 -0.0559321 0)
(1.15981 -0.0540644 0)
(1.15631 -0.0523991 0)
(1.15236 -0.0509099 0)
(1.14607 -0.0496142 0)
(1.13679 -0.0490137 0)
(1.13049 -0.0480145 0)
(1.12602 -0.0466103 0)
(1.12228 -0.0453114 0)
(1.12129 -0.0423983 0)
(1.12709 -0.0362237 0)
(1.12925 -0.0317212 0)
(1.12693 -0.0295786 0)
(1.12352 -0.0281173 0)
(1.11967 -0.0269172 0)
(1.1141 -0.0259869 0)
(1.10372 -0.0264175 0)
(1.09543 -0.0263521 0)
(1.0902 -0.0251015 0)
(1.08607 -0.0236551 0)
(1.08311 -0.0217834 0)
(1.08732 -0.0160593 0)
(1.09258 -0.00960198 0)
(1.09161 -0.0066507 0)
(1.08829 -0.00521966 0)
(1.08449 -0.00418937 0)
(1.07949 -0.00350836 0)
(1.06835 -0.00493023 0)
(1.05758 -0.00634193 0)
(1.05121 -0.00572299 0)
(1.04649 -0.00441173 0)
(1.04258 -0.00320516 0)
(1.04353 0.000980301 0)
(1.0513 0.00956684 0)
(1.05314 0.0145022 0)
(1.05035 0.0163303 0)
(1.04656 0.0172207 0)
(1.04201 0.0177852 0)
(1.03084 0.0155428 0)
(1.01714 0.0113019 0)
(1.00861 0.010208 0)
(1.00283 0.0111862 0)
(0.997998 0.0124122 0)
(0.995308 0.0148613 0)
(1.00221 0.0240166 0)
(1.0084 0.0332423 0)
(1.0076 0.03675 0)
(1.00396 0.0377441 0)
(0.999558 0.038162 0)
(0.990495 0.0368042 0)
(0.972996 0.0292538 0)
(0.960055 0.0238323 0)
(0.952877 0.0226914 0)
(0.947333 0.0230952 0)
(0.942588 0.0239084 0)
(0.94383 0.0296649 0)
(0.952982 0.0429465 0)
(0.955362 0.0511109 0)
(0.952322 0.0537107 0)
(0.947665 0.0540737 0)
(0.941325 0.0536531 0)
(0.926597 0.0475268 0)
(0.907037 0.0357112 0)
(0.89464 0.0294663 0)
(0.887168 0.0279655 0)
(0.881522 0.0275453 0)
(0.878501 0.0295291 0)
(0.883089 0.0384381 0)
(0.88618 0.0471852 0)
(0.883891 0.0509384 0)
(0.878798 0.0518477 0)
(0.872378 0.0512254 0)
(0.862327 0.0471942 0)
(0.844183 0.0351492 0)
(0.825241 0.0199325 0)
(0.813091 0.0108913 0)
(0.806859 0.00668735 0)
(0.805197 0.00706387 0)
(0.810442 0.0123703 0)
(0.814431 0.0125873 0)
(0.81629 0.00774672 0)
(0.810297 0.00502855 0)
(0.344402 -0.013485 0)
(-0.684091 -0.00468127 0)
(1.18989 -0.0931671 0)
(1.18493 -0.0912049 0)
(1.18883 -0.0861633 0)
(1.19253 -0.0814181 0)
(1.19123 -0.0785799 0)
(1.18824 -0.0767261 0)
(1.18467 -0.0750316 0)
(1.18054 -0.0734141 0)
(1.17416 -0.0717642 0)
(1.16615 -0.0705789 0)
(1.16084 -0.0695037 0)
(1.15673 -0.0682818 0)
(1.15313 -0.0669269 0)
(1.15298 -0.0637203 0)
(1.15847 -0.057992 0)
(1.15974 -0.0539172 0)
(1.15734 -0.0516498 0)
(1.154 -0.0500114 0)
(1.15014 -0.0486411 0)
(1.14503 -0.0474441 0)
(1.13594 -0.0472246 0)
(1.12837 -0.0467302 0)
(1.12348 -0.0454198 0)
(1.11953 -0.04394 0)
(1.11666 -0.042004 0)
(1.12053 -0.0365946 0)
(1.12546 -0.030724 0)
(1.12444 -0.0278681 0)
(1.12128 -0.0262916 0)
(1.11757 -0.0250602 0)
(1.11327 -0.024038 0)
(1.10417 -0.0243264 0)
(1.09399 -0.0250177 0)
(1.08778 -0.024166 0)
(1.08328 -0.0227458 0)
(1.07955 -0.0214947 0)
(1.07979 -0.0178203 0)
(1.08685 -0.010246 0)
(1.0887 -0.00554757 0)
(1.08605 -0.00364861 0)
(1.08242 -0.00250216 0)
(1.07846 -0.00159251 0)
(1.07017 -0.00209211 0)
(1.05753 -0.00464929 0)
(1.04939 -0.00516758 0)
(1.04417 -0.00419891 0)
(1.0398 -0.00296114 0)
(1.03688 -0.000968167 0)
(1.04259 0.00630257 0)
(1.04884 0.0144368 0)
(1.04813 0.0178154 0)
(1.04455 0.0189169 0)
(1.0406 0.0196109 0)
(1.03414 0.0191143 0)
(1.01995 0.0142453 0)
(1.00778 0.010854 0)
(1.00066 0.0109514 0)
(0.995485 0.0121852 0)
(0.991126 0.0132835 0)
(0.991517 0.0172939 0)
(1.00077 0.0283049 0)
(1.0043 0.0356218 0)
(1.00179 0.0382828 0)
(0.997632 0.0394868 0)
(0.992614 0.0401759 0)
(0.980888 0.0359948 0)
(0.963582 0.0262377 0)
(0.952337 0.0216819 0)
(0.945271 0.0216635 0)
(0.94005 0.0226921 0)
(0.936186 0.0238548 0)
(0.940663 0.031457 0)
(0.949061 0.0444746 0)
(0.949648 0.0505681 0)
(0.945706 0.052306 0)
(0.940446 0.0530626 0)
(0.932767 0.0530124 0)
(0.917023 0.0451418 0)
(0.899014 0.0324927 0)
(0.887565 0.0264893 0)
(0.880204 0.0254492 0)
(0.87483 0.02552 0)
(0.873401 0.0287226 0)
(0.878472 0.0380453 0)
(0.880311 0.0450156 0)
(0.877515 0.0474519 0)
(0.872392 0.0479554 0)
(0.866049 0.0471055 0)
(0.855996 0.0423458 0)
(0.838313 0.0285922 0)
(0.820424 0.0126357 0)
(0.809368 0.00326683 0)
(0.804204 -0.000677152 0)
(0.804801 0.000538054 0)
(0.812242 0.00500189 0)
(0.818475 0.00397843 0)
(0.815053 0.00245233 0)
(0.353475 -0.00295061 0)
(-0.685154 -0.00138898 0)
(1.1872 -0.0915112 0)
(1.1819 -0.0896239 0)
(1.18301 -0.0850642 0)