/*--------------------------------*- C++ -*----------------------------------*\
  =========                 |
  \\      /  F ield         | OpenFOAM: The Open Source CFD Toolbox
   \\    /   O peration     | Website:  https://openfoam.org
    \\  /    A nd           | Version:  12
     \\/     M anipulation  |
\*---------------------------------------------------------------------------*/
FoamFile
{
    format      ascii;
    class       volScalarField;
    location    "2.5";
    object      rho;
}
// * * * * * * * * * * * * * * * * * * * * * * * * * * * * * * * * * * * * * //

dimensions      [1 -3 0 0 0 0 0];

internalField   nonuniform List<scalar> 
46253
(
1.28545
1.40001
1.40001
1.40001
1.40001
1.40001
1.23651
1.51203
1.40001
1.40001
1.28627
1.18114
1.40001
1.40001
1.40001
1.40001
1.40001
1.40001
1.40001
1.40001
1.40001
1.40001
1.40001
1.25255
1.22846
1.40001
1.40001
1.40001
1.40001
1.52353
1.50189
1.40001
1.40001
1.40001
1.40001
1.40001
1.40001
1.40001
1.47842
1.40001
1.22349
1.18126
1.40001
1.40001
1.13359
1.40001
1.40001
1.40001
1.40001
1.40001
1.40001
1.40001
1.40001
1.55641
1.40001
1.24749
1.4
1.39999
1.63272
1.18936
1.40001
1.45733
1.40001
1.40001
1.40001
1.40001
1.40001
1.40001
1.24971
1.13546
1.2346
1.40015
1.40021
1.46606
1.40001
1.25129
1.75328
1.76178
1.40001
1.40001
1.40001
1.43198
1.40001
1.42449
1.22396
1.40001
1.67664
1.67459
1.55869
1.40001
1.40001
1.21637
1.40001
1.40001
1.40001
1.40001
1.40001
1.40001
1.63026
1.40001
1.40001
1.40001
1.40001
1.49709
1.4
1.22227
1.18627
1.62812
1.62622
1.20569
1.49986
1.39794
1.3954
1.40001
1.40001
1.54168
1.14676
1.20123
1.82749
1.26054
1.40001
1.40001
1.52709
1.58308
1.40001
1.8302
1.40001
1.22694
1.39907
1.72557
1.59834
1.59642
1.40001
1.23406
1.7194
1.40001
1.70211
1.69967
1.2555
1.40001
1.7437
1.58139
1.57991
1.48751
1.68161
1.40009
1.68482
1.68247
1.481
1.40001
1.20295
1.40001
1.7123
1.70971
1.44475
1.13527
1.22421
1.40001
1.66093
1.40001
1.65947
1.1858
1.24383
1.40001
1.23226
1.69291
1.23309
1.69172
2.04568
1.40001
1.64614
1.6451
1.40001
1.23258
1.40001
1.1236
1.46928
1.40001
1.47616
1.15005
1.40001
1.44167
1.63455
1.63312
1.40001
1.66915
1.66638
1.13426
1.40001
1.40001
1.40001
1.40001
1.23009
1.40001
1.40001
1.40001
1.49885
1.40001
1.49503
1.49316
1.40001
1.40001
1.65355
1.65135
1.40001
1.13837
1.43614
1.61553
1.61417
1.40001
1.40001
1.82623
1.2293
1.40001
1.4755
1.40001
1.48233
1.20867
1.60401
1.40001
1.40001
1.60259
1.12046
1.6406
1.63946
1.20727
1.40001
1.40001
1.47138
1.46963
1.57475
1.40001
1.40001
1.40001
1.40001
1.40001
1.40001
1.40001
1.57149
1.59338
1.40001
1.40001
1.40001
1.40001
1.40001
1.40001
1.40001
1.43488
1.40001
1.58616
1.58468
1.5904
1.44865
1.40001
1.4473
1.62162
1.6197
1.26932
1.21962
1.40001
1.23256
1.21583
1.20106
1.49026
1.46885
1.40001
1.40001
1.40001
1.6099
1.56928
1.60876
1.40001
1.40001
1.40001
1.56794
1.40001
1.40004
1.40001
1.55365
1.29077
1.42564
1.4233
1.40001
1.40001
1.40001
1.19667
1.18196
1.26087
1.4727
1.40001
1.6209
1.61937
1.20773
1.40001
1.61124
1.53504
1.40001
1.53108
1.21635
1.55884
1.81093
1.55752
1.23525
1.8083
1.40001
1.59176
1.59013
1.40001
1.48754
1.40001
1.40001
1.46806
1.40001
1.54824
1.40001
1.54697
1.24562
1.60933
1.40001
1.55171
1.2283
1.40001
1.23785
1.23042
1.47354
1.46767
1.40001
1.40001
1.53763
1.53648
1.38732
1.38279
1.40001
1.40001
1.40001
1.45882
1.26477
1.57573
1.57357
1.40001
1.40001
1.40001
1.40001
1.83981
1.40001
1.528
1.52699
1.40001
1.25568
1.40001
1.49472
1.40001
1.14057
1.40001
1.18894
1.40001
1.5639
1.40001
1.56255
1.40001
1.18794
1.40001
1.40001
1.40001
1.40001
1.40001
1.40001
1.40001
1.51835
1.40001
1.40001
1.40001
1.40001
1.51726
1.40001
1.60213
1.25243
1.40001
1.40001
1.40001
1.21311
1.46037
1.22935
1.55341
1.55652
1.55212
1.40001
1.40001
1.50905
1.86902
1.40001
1.47475
1.50796
1.19244
1.40001
1.5232
1.41998
1.41907
1.40001
1.50914
1.40001
1.33738
1.33495
1.60012
1.40001
1.40002
1.40001
1.40001
1.40001
1.40001
1.40001
1.40001
1.77545
1.40001
1.50507
1.40001
1.44617
1.40001
1.40001
1.2712
1.40001
1.40001
1.49912
1.40001
1.54308
1.40001
1.40001
1.49796
1.54139
1.40001
1.46268
1.40001
1.40001
1.40001
1.40001
1.4646
1.554
1.40001
1.40001
1.55769
1.23142
1.40001
1.18684
1.40001
1.47224
1.45011
1.40001
1.40001
1.25598
1.40001
1.29379
1.51753
1.40001
1.46272
1.40001
1.50993
1.50174
1.40006
1.53258
1.37155
1.40001
1.37191
1.37415
1.5312
1.40001
1.37792
1.40001
1.40001
1.40001
1.40001
1.40001
1.49316
1.40001
1.50133
1.23458
1.48552
1.27875
1.4299
1.4845
1.47602
1.30979
1.30889
1.40001
1.40001
1.40001
1.40001
1.39839
1.40001
1.29685
1.20927
1.1619
1.29938
1.37673
1.20572
1.3726
1.40001
1.40001
1.52289
1.5014
1.20236
1.52153
1.4755
1.47465
1.29759
1.22291
1.40001
1.29579
1.49497
1.40001
1.40001
1.40001
1.20856
1.40001
1.55632
1.46481
1.40001
1.40001
1.48157
1.40001
1.40001
1.45528
1.10411
1.5077
1.40001
1.40001
1.51011
1.40001
1.50942
1.51731
1.51106
1.40001
1.47485
1.47493
1.40001
1.37028
1.50065
1.40001
1.40001
1.51358
1.40001
1.23572
1.27518
1.40001
1.40001
1.51212
1.40001
1.40001
1.40001
1.40001
1.15425
1.40001
1.40001
1.46261
1.28002
1.46161
1.1971
1.40001
1.40001
1.40001
1.40001
1.40001
1.40001
1.40001
1.37537
1.16529
1.40001
1.40001
1.40001
1.40001
1.40001
1.40001
1.23346
1.47953
1.40001
1.4642
1.40001
1.40001
1.23257
1.40001
1.40001
1.40001
1.50395
1.40001
1.40001
1.50286
1.45877
1.52817
1.40001
1.53169
1.53293
1.53612
1.56575
1.40001
1.45263
1.45156
1.47326
1.54057
1.40001
1.40001
1.46923
1.40001
1.81099
1.4712
1.40001
1.81201
1.39957
1.40001
1.4872
1.49478
1.40001
1.40001
1.55921
1.38212
1.40001
1.40001
1.40615
1.40001
1.40001
1.40011
1.40002
1.51948
1.47518
1.63773
1.63771
1.12854
1.47299
1.63063
1.45636
1.63289
1.61933
1.40001
1.23453
1.26616
1.62129
1.40001
1.60815
1.40001
1.61031
1.40001
1.47893
1.5976
1.40001
1.59947
1.71687
1.40001
1.58705
1.40001
1.58895
1.40001
1.15724
1.40001
1.28551
1.26666
1.40001
1.40001
1.57677
1.57823
1.40001
1.50171
1.56625
1.56766
1.40827
1.40001
1.40001
1.55115
1.43931
1.55257
1.40001
1.48994
1.54172
1.23864
1.54274
1.43775
1.48859
1.40001
1.40001
1.40001
1.53163
1.5329
1.54824
1.40001
1.40001
1.5224
1.30624
1.52422
1.23069
1.40001
1.50775
1.5099
1.40001
1.40001
1.40001
1.46537
1.40001
1.50031
1.41587
1.50515
1.40001
1.49261
1.40001
1.49434
1.40001
1.40001
1.501
1.50167
1.48374
1.485
1.36761
1.51108
1.47292
1.51669
1.47459
1.40001
1.42244
1.46183
1.46254
1.40001
1.26442
1.44962
1.45088
1.97196
1.40001
1.40001
1.40001
1.44519
1.46609
1.44574
1.11557
1.54857
1.3713
1.20644
1.43185
1.43288
1.41503
1.42859
1.42917
1.25725
1.2524
1.40001
1.50566
1.83536
1.4309
1.40001
1.21157
1.4295
1.2429
1.53648
1.23651
1.40001
1.40001
1.40001
1.48115
1.40001
1.40001
1.40001
1.40001
1.40001
1.47973
1.40001
1.40001
1.40001
1.27512
1.26982
1.40001
1.41496
1.12866
1.28039
1.40001
1.40001
1.40001
1.40001
1.40001
1.46238
1.40001
1.4712
1.40001
1.5225
1.45882
1.5266
1.24777
1.40001
1.19154
1.21786
1.53657
1.40001
1.40001
1.40001
1.40001
1.40001
1.53052
1.52598
1.46093
1.24809
1.24358
1.40001
1.28707
1.40001
1.40001
1.53044
1.41484
1.40002
1.49225
1.39884
1.40001
1.41902
1.42623
1.40001
1.53408
1.2295
1.36623
1.40001
1.36981
1.41665
1.40001
1.40001
1.38022
1.48019
1.40001
1.4157
1.11421
1.40001
1.40001
1.56106
1.56271
1.47202
1.40001
1.115
1.11864
1.21389
1.46264
1.40001
1.50413
1.5486
1.23241
1.70742
1.40001
1.40001
1.40001
1.5172
1.51847
1.40001
1.40002
1.40001
1.46681
1.50313
1.40001
1.39971
1.50404
1.46565
1.37511
1.36905
1.40001
1.41107
1.50981
1.20986
1.46822
1.23487
1.46821
1.40001
1.40001
1.46942
1.40001
1.40001
1.47829
1.46997
1.40001
1.40744
1.27557
1.50066
1.2574
1.2619
1.4063
1.26194
1.26063
1.23103
1.2285
1.40001
1.40001
1.57675
1.40001
1.40001
1.3842
1.28708
1.27003
1.40001
1.40001
1.51698
1.40001
1.50477
1.51023
1.39763
1.57181
1.57936
1.40002
1.40001
1.4
1.40001
1.47573
1.5101
1.5658
1.11807
1.40001
1.45782
1.40001
1.39686
1.39876
1.45646
1.40001
1.39069
1.38293
1.38753
1.40001
1.40001
1.40001
1.40001
1.38072
1.5093
1.40001
1.4025
1.40001
1.26014
1.40001
1.26282
1.27189
1.23447
1.40001
1.3983
1.39738
1.20424
1.76469
1.40001
1.26735
1.49087
1.49217
1.26782
1.40001
1.40001
1.36754
1.11332
1.40001
1.40001
1.5046
1.15424
1.56088
1.37547
1.40001
1.40001
1.40001
1.40001
1.40001
1.40001
1.87565
1.40001
1.28082
1.24946
1.24549
1.55793
1.13014
1.1181
1.12854
1.26713
1.4394
1.27476
1.11174
1.59238
1.6028
1.61356
1.58176
1.59439
1.40001
1.4886
1.60499
1.62399
1.58354
1.37085
1.61577
1.54967
1.57139
1.62593
1.40001
1.63544
1.57308
1.637
1.40001
1.55586
1.62921
1.6601
1.66928
1.55727
1.39555
1.64567
1.54574
1.39864
1.40001
1.4
1.54747
1.40001
1.5365
1.40001
1.40001
1.40001
1.39253
1.53839
1.40001
1.40001
1.40001
1.52746
1.53735
1.40001
1.40001
1.40001
1.52855
1.39132
1.14114
1.51346
1.40001
1.35137
1.51443
1.49874
1.49993
1.24627
1.48847
1.48925
1.4784
1.40001
1.255
1.47999
1.40001
1.46548
1.23259
1.40001
1.40001
1.46543
1.29526
1.13714
1.45536
1.45785
1.44809
1.44431
1.44694
1.12727
1.43721
1.40001
1.41262
1.44275
1.44058
1.40999
1.38782
1.41059
1.43172
1.40327
1.40647
1.23303
1.42975
1.41996
1.42347
1.28276
1.13735
1.12114
1.40001
1.1403
1.40001
1.13306
1.15566
1.15223
1.40001
1.8258
1.60993
1.40001
1.38734
1.38721
1.47247
1.47998
1.40001
1.56182
1.53568
1.54396
1.57449
1.561
1.52965
1.53733
1.53216
1.52685
1.48955
1.25354
1.506
1.38164
1.40001
1.357
1.27929
1.24074
1.39317
1.40001
1.58785
1.52734
1.17946
1.40001
1.37619
1.2211
1.36888
1.37575
1.40001
1.4237
1.40001
1.31734
1.39368
1.56364
1.5265
1.40655
1.41221
1.18261
1.43498
1.37243
1.4349
1.41145
1.21062
1.17998
1.26831
1.15963
1.35431
1.54088
1.4133
1.40001
1.53997
1.62195
1.32013
1.38592
1.40001
1.40001
1.40001
1.49661
1.39919
1.40001
1.40001
1.13863
1.3906
1.23227
1.40001
1.227
1.40001
1.49195
1.33043
1.40001
1.40001
1.10757
1.23675
1.64672
1.24074
1.51504
1.51716
1.40001
1.54665
1.50179
1.40001
1.3668
1.40001
1.40566
1.36916
1.38638
1.28567
1.40001
1.40001
1.3549
1.38784
1.39878
1.37914
1.50355
1.50455
1.40001
1.36759
1.39945
1.37251
1.36891
1.23071
1.40939
1.40001
1.33411
1.23367
1.3955
1.20499
1.3963
1.52881
1.40001
1.40001
1.40001
1.28592
1.38303
1.40001
1.46686
1.3838
1.59736
1.53551
1.26561
1.46829
1.11998
1.23217
1.58023
1.40001
1.40001
1.33858
1.59803
1.40001
1.40001
1.40001
1.38054
1.40001
1.3807
1.15341
1.46579
1.38075
1.40001
1.40001
1.38056
1.40001
1.69197
1.47615
1.66477
1.70474
1.40001
1.2009
1.66609
1.47737
1.38133
1.57553
1.40001
1.23102
1.64894
1.61493
1.34413
1.40001
1.56606
1.65052
1.62866
1.39999
1.49922
1.11678
1.4
1.40001
1.26765
1.63212
1.40001
1.5935
1.36887
1.40001
1.40001
1.21819
1.60681
1.35951
1.50578
1.62987
1.42003
1.22397
1.3998
1.61119
1.60957
1.60127
1.359
1.40001
1.34474
1.41879
1.34434
1.52733
1.40001
1.58761
1.40001
1.40001
1.40001
1.59011
1.40001
1.40001
1.30363
1.45871
1.40001
1.31228
1.59027
1.51557
1.38534
1.40001
1.47794
1.40001
1.50586
1.40001
1.40001
1.40001
1.40001
1.40001
1.46733
1.40001
1.40001
1.40001
1.40001
1.40001
1.40001
1.45872
1.11172
1.40001
1.38866
1.40001
1.40001
1.40001
1.47527
1.28733
1.16176
1.40001
1.15277
1.37416
1.40001
1.40001
1.40001
1.35458
1.40001
1.53536
1.40001
1.62684
1.25769
1.19186
1.40001
1.40001
1.40001
1.40001
1.40001
1.40001
1.64742
1.6438
1.50123
1.62421
1.40001
1.40001
1.40071
1.39998
1.26633
1.58553
1.40001
1.59086
1.52142
1.40001
1.57711
1.40001
1.36681
1.36265
1.27253
1.57359
1.25964
1.35611
1.40001
1.57758
1.35958
1.35794
1.52525
1.53121
1.20495
1.53196
1.52315
1.39946
1.52779
1.52882
1.3497
1.56288
1.5657
1.48877
1.68409
1.52742
1.55965
1.56692
1.52941
1.34842
1.53307
1.40001
1.37245
1.53236
1.56104
1.66877
1.26753
1.51438
1.53182
1.54567
1.41305
1.55251
1.1994
1.55376
1.29088
1.40001
1.3751
1.23324
1.41215
1.49909
1.54712
1.53465
1.52977
1.40001
1.46389
1.6082
1.40001
1.40001
1.12396
1.40001
1.40001
1.49363
1.24259
1.40001
1.53482
1.528
1.53641
1.40001
1.25396
1.37909
1.53056
1.5297
1.19099
1.52945
1.57329
1.35345
1.5733
1.24348
1.58411
1.52122
1.55765
1.52229
1.50956
1.40001
1.25981
1.40001
1.46939
1.40001
1.13506
1.47216
1.51178
1.53226
1.40674
1.53448
1.49912
1.60709
1.52226
1.53823
1.27906
1.58478
1.40001
1.63695
1.63103
1.40001
1.40011
1.40001
1.40001
1.40001
1.40001
1.40001
1.30265
1.40001
1.34443
1.1393
1.25114
1.60153
1.13594
1.25153
1.60955
1.22809
1.40001
1.12132
1.3428
1.26404
1.40001
1.47468
1.35863
1.40001
1.40001
1.63921
1.13034
1.27237
1.2683
1.34872
1.40001
1.40001
1.11639
1.38409
1.37171
1.5725
1.12471
1.40001
1.40001
1.40001
1.685
1.40001
1.59668
1.60087
1.45647
1.14097
1.57558
1.58565
1.40001
1.4865
1.58585
1.66955
1.37212
1.40001
1.6329
1.40001
1.40001
1.38505
1.57799
1.36468
1.61898
1.141
1.62301
1.63397
1.5685
1.40001
1.40001
1.51695
1.41289
1.40001
1.40211
1.40001
1.16152
1.40001
1.40001
1.55182
1.12943
1.40001
1.56037
1.45452
1.562
1.40001
1.40001
1.40061
1.58252
1.125
1.25552
1.15464
1.35759
1.34205
1.35955
1.13892
1.50982
1.36113
1.37817
1.40001
1.55363
1.14639
1.12495
1.36171
1.55921
1.55456
1.29797
1.40001
1.40001
1.37623
1.37078
1.22861
1.40001
1.52269
1.25844
1.53754
1.52808
1.53781
1.36832
1.52479
1.57548
1.09975
1.57665
1.13053
1.3484
1.52446
1.35404
1.47411
1.13288
1.29626
1.52459
1.40001
1.30212
1.35496
1.23756
1.64907
1.27309
1.50014
1.5381
1.6489
1.13963
1.50872
1.36831
1.40001
1.53397
1.51068
1.57733
1.60426
1.40001
1.38168
1.40001
1.5617
1.28812
1.41336
1.20186
1.13077
1.40001
1.1288
1.1892
1.50251
1.40001
1.1496
1.45828
1.34389
1.5421
1.46509
1.14395
1.29257
1.37239
1.39174
1.54337
1.15887
1.47534
1.4875
1.40001
1.48868
1.40001
1.37939
1.63579
1.47603
1.2434
1.61225
1.46741
1.40001
1.13176
1.5171
1.42016
1.40001
1.20286
1.51872
1.5539
1.80436
1.44536
1.40001
1.45481
1.664
1.46106
1.40001
1.52521
1.46329
1.40001
1.55179
1.50819
1.51181
1.72684
1.62413
1.4565
1.31594
1.40001
1.40001
1.63413
1.15718
1.40001
1.18183
1.48351
1.55497
1.5621
1.18698
1.53125
1.26775
1.40001
1.18549
1.69016
1.40001
1.40001
1.57816
1.68667
1.18568
1.32991
1.44249
1.18505
1.18141
1.37617
1.31043
1.4428
1.4291
1.35692
1.61301
1.34147
1.43184
1.5168
1.32912
1.47129
1.47407
1.55826
1.56284
1.1817
1.40001
1.37025
1.69442
1.42385
1.58124
1.6894
1.2522
1.40001
1.42473
1.39942
1.52399
1.27389
1.40001
1.40001
1.34078
1.34105
1.24914
1.50272
1.40001
1.40001
1.50634
1.33358
1.39463
1.40001
1.40001
1.4587
1.40488
1.40588
1.64563
1.4914
1.19457
1.45519
1.40244
1.40001
1.1914
1.39486
1.2391
1.18275
1.36318
1.52623
1.75458
1.57142
1.38459
1.46385
1.3393
1.46254
1.5724
1.23495
1.47404
1.57522
1.40001
1.52381
1.40001
1.40001
1.33713
1.32422
1.35097
1.32877
1.64572
1.4194
1.40001
1.40001
1.34532
1.54325
1.21233
1.24677
1.37251
1.21127
1.36365
1.36826
1.54654
1.21533
1.16664
1.37294
1.70245
1.24683
1.40001
1.38774
1.42261
1.21496
1.69317
1.3793
1.37929
1.40001
1.40001
1.37621
1.37422
1.66648
1.40001
1.40001
1.37034
1.40001
1.52145
1.23679
1.21723
1.28233
1.37126
1.52065
1.33946
1.40001
1.21711
1.28826
1.40001
1.23279
1.11576
1.347
1.47189
1.48879
1.40001
1.40001
1.34693
1.35525
1.45087
1.2213
1.22377
1.69047
1.28183
1.40001
1.40001
1.49434
1.40001
1.40001
1.23847
1.36723
1.53338
1.49624
1.40001
1.11448
1.23477
1.29664
1.58289
1.29555
1.60739
1.36796
1.39997
1.40001
1.40001
1.26845
1.3423
1.34218
1.29448
1.40001
1.40001
1.13903
1.2936
1.24911
1.23148
1.47388
1.4544
1.29155
1.40001
1.56302
1.40001
1.47403
1.40001
1.42109
1.40001
1.22808
1.40001
1.47424
1.40001
1.40001
1.40001
1.40001
1.40001
1.40001
1.39998
1.58365
1.40001
1.41183
1.56867
1.40001
1.47372
1.61294
1.40001
1.40879
1.46382
1.54921
1.40001
1.40001
1.32284
1.23441
1.30613
1.36553
1.57059
1.56411
1.40436
1.37769
1.37441
1.40001
1.40001
1.40001
1.40001
1.41404
1.44821
1.55599
1.39601
1.41864
1.30304
1.45076
1.32265
1.30316
1.38716
1.53168
1.25478
1.55046
1.4761
1.55762
1.47798
1.40001
1.4001
1.24652
1.52068
1.40001
1.40001
1.40944
1.21982
1.32154
1.39171
1.20071
1.53896
1.40001
1.28135
1.40001
1.42645
1.1987
1.19797
1.53217
1.26565
1.31851
1.37249
1.53245
1.49464
1.53987
1.45811
1.40001
1.52924
1.50597
1.27281
1.51409
1.63913
1.42203
1.40001
1.40001
1.33303
1.52414
1.5445
1.61325
1.69321
1.41377
1.22717
1.34006
1.40001
1.54172
1.3843
1.40001
1.52524
1.35915
1.22641
1.51508
1.34307
1.41866
1.43887
1.63123
1.4367
1.38311
1.40001
1.39089
1.38877
1.54359
1.42863
1.40001
1.39427
1.45329
1.50768
1.42163
1.6186
1.51528
1.36985
1.40001
1.26973
1.40001
1.37027
1.24016
1.40001
1.40001
1.68741
1.22144
1.57161
1.24514
1.40001
1.40001
1.58251
1.33866
1.41995
1.21003
1.40001
1.30839
1.40001
1.37134
1.66189
1.19236
1.33841
1.22774
1.3828
1.40001
1.58866
1.55086
1.46623
1.289
1.36824
1.36188
1.44911
1.37769
1.40001
1.60401
1.40024
1.65905
1.40001
1.59114
1.58381
1.40001
1.42767
1.2433
1.3956
1.18255
1.60611
1.1132
1.41731
1.38962
1.55699
1.40001
1.5663
1.41285
1.21082
1.78874
1.20844
1.40001
1.40001
1.40001
1.38618
1.19053
1.56826
1.51464
1.55728
1.33078
1.40001
1.4
1.6984
1.55138
1.53015
1.29926
1.40001
1.47125
1.4
1.49085
1.48857
1.47578
1.53897
1.67294
1.46723
1.46612
1.39014
1.53964
1.53417
1.41673
1.39993
1.27187
1.1004
1.44509
1.39995
1.50522
1.3301
1.40001
1.40001
1.41795
1.40001
1.40001
1.37629
1.26062
1.48679
1.51592
1.55486
1.3999
1.64477
1.40001
1.42067
1.39927
1.309
1.30237
1.30697
1.51871
1.20734
1.16844
1.50608
1.26187
1.56034
1.23423
1.32339
1.52684
1.24579
1.47961
1.54674
1.50417
1.40368
1.20129
1.4909
1.40001
1.40001
1.45683
1.40001
1.47527
1.40001
1.49807
1.49161
1.48285
1.47281
1.45464
1.56056
1.24271
1.40001
1.58382
1.32162
1.33095
1.4297
1.56169
1.59202
1.36243
1.45834
1.40001
1.48292
1.46782
1.40323
1.43503
1.51375
1.31252
1.2584
1.55356
1.20145
1.33246
1.51156
1.47103
1.32652
1.34277
1.45848
1.37509
1.40001
1.55456
1.4233
1.37949
1.33617
1.43053
1.40136
1.41886
1.31175
1.24297
1.46347
1.4406
1.24984
1.40001
1.51763
1.47756
1.33948
1.49548
1.3525
1.54754
1.40001
1.44397
1.43622
1.40001
1.40001
1.40001
1.40001
1.54872
1.5953
1.42617
1.60158
1.33202
1.40001
1.44495
1.37791
1.50786
1.45553
1.4399
1.45661
1.45883
1.4922
1.32154
1.40001
1.40001
1.36994
1.54698
1.40001
1.40001
1.37481
1.52132
1.42693
1.5401
1.46844
1.51086
1.40001
1.38574
1.32831
1.39235
1.52964
1.5389
1.46952
1.40001
1.41908
1.30636
1.40001
1.54201
1.3679
1.5328
1.37066
1.5347
1.42133
1.30186
1.19107
1.61852
1.19219
1.55267
1.54259
1.40001
1.35383
1.50942
1.54939
1.45186
1.40001
1.40001
1.35045
1.40425
1.3056
1.18363
1.33931
1.40001
1.69899
1.3401
1.56664
1.25202
1.40488
1.55996
1.56301
1.47829
1.18672
1.6652
1.55527
1.25755
1.3874
1.37372
1.26253
1.6271
1.38919
1.20721
1.3773
1.40001
1.38394
1.43682
1.44776
1.32433
1.35825
1.57441
1.70213
1.29354
1.45124
1.46437
1.45336
1.2727
1.60041
1.25945
1.57197
1.363
1.35023
1.42846
1.32684
1.45324
1.3516
1.37437
1.4517
1.569
1.34995
1.41287
1.32995
1.25576
1.25688
1.3684
1.25742
1.63917
1.40001
1.45698
1.40001
1.30718
1.64168
1.40001
1.40001
1.30433
1.59155
1.40001
1.36566
1.46621
1.69436
1.38077
1.40001
1.18626
1.40001
1.34508
1.26544
1.61967
1.25653
1.45083
1.62262
1.45076
1.42001
1.42318
1.40001
1.21029
1.40001
1.60867
1.45023
1.60149
1.39057
1.31208
1.5772
1.61224
1.57863
1.40001
1.314
1.17942
1.59669
1.40112
1.59631
1.51517
1.381
1.59821
1.40055
1.46889
1.40084
1.3375
1.40001
1.26486
1.69279
1.32765
1.18601
1.40001
1.58487
1.24281
1.32809
1.14839
1.38895
1.58865
1.36909
1.50024
1.40001
1.43435
1.43528
1.57245
1.59212
1.40001
1.57728
1.36471
1.38041
1.58791
1.40001
1.57432
1.57803
1.42528
1.27731
1.59933
1.40001
1.40001
1.595
1.56342
1.60854
1.21048
1.60368
1.56642
1.40001
1.32509
1.44176
1.51845
1.55646
1.38221
1.2667
1.25372
1.62782
1.55883
1.58573
1.34414
1.40001
1.40001
1.40001
1.27884
1.5459
1.40001
1.41036
1.23425
1.61284
1.47736
1.41733
1.37385
1.31704
1.5471
1.39025
1.4106
1.54953
1.10136
1.4204
1.5226
1.40001
1.22065
1.52951
1.36548
1.1588
1.52598
1.52179
1.61697
1.41503
1.63378
1.63003
1.40001
1.31377
1.13551
1.5342
1.40001
1.40001
1.4318
1.40001
1.62612
1.27301
1.53714
1.40439
1.40001
1.54828
1.42826
1.42889
1.54299
1.44412
1.20719
1.52716
1.36245
1.36246
1.62156
1.40001
1.33296
1.36819
1.44208
1.53857
1.52805
1.40001
1.34966
1.1967
1.41363
1.63693
1.48412
1.3439
1.64086
1.41574
1.40001
1.41426
1.45793
1.29277
1.89359
1.47408
1.6914
1.51435
1.46072
1.15246
1.58035
1.40001
1.40001
1.3682
1.45432
1.5165
1.33063
1.37248
1.46523
1.45905
1.67844
1.37157
1.40001
1.10942
1.40001
1.18305
1.46268
1.50765
1.50953
1.28173
1.40001
1.40001
1.64469
1.66399
1.40001
1.40001
1.47899
1.28102
1.45338
1.6535
1.47676
1.45755
1.49151
1.49105
1.52252
1.3555
1.40001
1.45906
1.49336
1.33011
1.36033
1.23071
1.4887
1.41849
1.40001
1.52802
1.40001
1.40001
1.71031
1.3513
1.37206
1.63499
1.48095
1.69455
1.34978
1.40001
1.40001
1.48303
1.72589
1.33886
1.21577
1.50615
1.40001
1.63725
1.47671
1.50286
1.40001
1.40001
1.40001
1.40001
1.51295
1.40001
1.37341
1.46487
1.31883
1.52896
1.46662
1.40001
1.51026
1.40001
1.40001
1.40001
1.52343
1.45795
1.46072
1.40001
1.49846
1.52124
1.29756
1.40001
1.40001
1.296
1.37364
1.40001
1.28368
1.53563
1.40001
1.40001
1.40001
1.40001
1.40001
1.44425
1.40001
1.34988
1.5304
1.40001
1.55565
1.41375
1.40001
1.44528
1.16942
1.40001
1.27567
1.5136
1.40001
1.40001
1.55327
1.57341
1.40001
1.40001
1.40001
1.29311
1.2757
1.34726
1.54786
1.20633
1.55181
1.40001
1.40001
1.2747
1.55234
1.40001
1.27055
1.54331
1.40001
1.36377
1.40001
1.47871
1.40001
1.36007
1.40001
1.23917
1.40001
1.40001
1.30387
1.17034
1.55073
1.4
1.40001
1.47476
1.40001
1.36847
1.28451
1.56278
1.18517
1.40001
1.15485
1.40001
1.23013
1.30147
1.3391
1.3612
1.39112
1.52914
1.55883
1.37393
1.37784
1.30158
1.40001
1.40164
1.36863
1.40001
1.40001
1.25963
1.29898
1.38462
1.13279
1.57285
1.56004
1.3954
1.40001
1.56994
1.6973
1.29615
1.5964
1.55613
1.32916
1.3837
1.29653
1.28201
1.57706
1.56108
1.29651
1.59137
1.38079
1.54218
1.5696
1.24406
1.42789
1.55071
1.29398
1.2489
1.40001
1.49937
1.40001
1.40001
1.1862
1.48335
1.55752
1.43952
1.40001
1.40001
1.42807
1.45129
1.40001
1.5443
1.40001
1.48257
1.50332
1.40001
1.08743
1.40001
1.48056
1.40001
1.40269
1.2276
1.40001
1.55207
1.23217
1.48028
1.40001
1.17947
1.40001
1.11544
1.39793
1.4003
1.4893
1.39418
1.15416
1.49141
1.47677
1.2801
1.60548
1.63951
1.54593
1.41343
1.48702
1.48997
1.17168
1.47864
1.52123
1.28574
1.40001
1.56209
1.40001
1.69007
1.35708
1.49693
1.49887
1.15399
1.3983
1.42681
1.40001
1.43274
1.50995
1.3791
1.37071
1.31118
1.55356
1.41696
1.31289
1.40001
1.45036
1.49583
1.40001
1.40001
1.40001
1.49473
1.3131
1.48437
1.45293
1.40066
1.40001
1.5055
1.6917
1.45593
1.50529
1.43851
1.40001
1.69555
1.17159
1.50387
1.64559
1.44165
1.45376
1.4
1.40001
1.31109
1.50251
1.35534
1.67429
1.62685
1.37212
1.37553
1.3711
1.74462
1.65053
1.37683
1.26433
1.40001
1.44397
1.51275
1.40734
1.40001
1.51642
1.40001
1.59998
1.42694
1.30533
1.62075
1.61573
1.53742
1.32607
1.44197
1.46738
1.58193
1.40001
1.53815
1.36918
1.31233
1.46468
1.51472
1.40001
1.63132
1.51066
1.60127
1.37049
1.36693
1.40001
1.64223
1.46641
1.72077
1.40001
1.57058
1.28002
1.45487
1.60294
1.31975
1.61713
1.59271
1.45021
1.58402
1.62455
1.40037
1.52037
1.54928
1.40001
1.4611
1.47659
1.60418
1.57912
1.56027
1.28666
1.66
1.52691
1.64518
1.45881
1.43597
1.52745
1.40001
1.51811
1.5949
1.47276
1.57097
1.40001
1.52508
1.30051
1.40001
1.72846
1.58123
1.5606
1.4852
1.40001
1.66201
1.34322
1.40001
1.57465
1.53429
1.54973
1.40001
1.40001
1.48332
1.56104
1.40001
1.53241
1.40001
1.54108
1.52537
1.27986
1.40001
1.55286
1.40001
1.52933
1.18318
1.4
1.44522
1.54178
1.54355
1.52089
1.40001
1.40001
1.40001
1.49651
1.5395
1.34108
1.53106
1.42515
1.51123
1.53859
1.29784
1.41868
1.56682
1.40001
1.40001
1.45546
1.4687
1.42041
1.40001
1.49365
1.57007
1.40001
1.52446
1.32998
1.31386
1.33032
1.5492
1.39825
1.49487
1.53656
1.51128
1.3349
1.51191
1.46426
1.60552
1.30381
1.41661
1.5052
1.40001
1.71929
1.54667
1.36324
1.48588
1.63613
1.20539
1.41846
1.36503
1.26464
1.40001
1.49595
1.54639
1.56859
1.50292
1.54635
1.40001
1.21439
1.46971
1.47595
1.55763
1.48862
1.40001
1.40001
1.54452
1.46341
1.56703
1.40001
1.20181
1.40001
1.40001
1.20889
1.55535
1.40001
1.47285
1.61261
1.48932
1.40001
1.31292
1.48196
1.55429
1.44662
1.40001
1.46335
1.25698
1.36426
1.18277
1.59864
1.36609
1.51679
1.40001
1.5645
1.47215
1.22501
1.40001
1.40001
1.43155
1.23677
1.44788
1.42539
1.51349
1.5518
1.56248
1.40001
1.4016
1.46946
1.40001
1.17858
1.4341
1.42393
1.29427
1.3209
1.40001
1.34913
1.40001
1.56263
1.42312
1.40001
1.40001
1.45998
1.46267
1.4907
1.4529
1.18167
1.40001
1.40001
1.33419
1.21792
1.53011
1.48157
1.41636
1.28951
1.56023
1.1913
1.57674
1.40001
1.5276
1.40001
1.57529
1.40001
1.40001
1.21155
1.40001
1.571
1.38259
1.40001
1.09453
1.53949
1.4474
1.26158
1.39622
1.42473
1.40001
1.3106
1.55228
1.40001
1.56858
1.40001
1.40006
1.45012
1.53681
1.34757
1.52125
1.40001
1.29938
1.40056
1.78953
1.59809
1.19398
1.40001
1.35401
1.19279
1.58553
1.34778
1.40001
1.40001
1.36873
1.38436
1.40001
1.12817
1.37894
1.5491
1.4001
1.57909
1.18434
1.58576
1.3657
1.40257
1.46973
1.40405
1.40484
1.36372
1.54675
1.46716
1.35402
1.33047
1.39814
1.40001
1.57675
1.39889
1.40001
1.40001
1.28681
1.40001
1.59913
1.46571
1.42883
1.40001
1.55658
1.59699
1.46622
1.35309
1.29926
1.40001
1.58609
1.46401
1.68877
1.15863
1.5542
1.46704
1.4775
1.33898
1.47605
1.2198
1.1813
1.18146
1.36211
1.18375
1.58414
1.57205
1.40001
1.44767
1.40001
1.19766
1.2684
1.64502
1.62726
1.40001
1.53227
1.20384
1.35068
1.26795
1.56615
1.49364
1.18676
1.40001
1.36991
1.29209
1.60656
1.52492
1.44767
1.39998
1.40001
1.40001
1.40001
1.48479
1.4682
1.56372
1.19477
1.5295
1.23848
1.40021
1.30759
1.63132
1.47147
1.64903
1.44501
1.34462
1.35317
1.40001
1.40001
1.17913
1.40001
1.46226
1.30886
1.20429
1.47675
1.44778
1.36668
1.55705
1.40001
1.38012
1.40001
1.40001
1.24414
1.57403
1.45711
1.60946
1.34596
1.45775
1.28433
1.711
1.33875
1.20333
1.46622
1.40001
1.34944
1.57175
1.41782
1.45008
1.47977
1.44628
1.19001
1.45218
1.40001
1.54894
1.4747
1.21023
1.40001
1.48329
1.33345
1.41545
1.34718
1.40001
1.13822
1.18969
1.45073
1.40001
1.36217
1.40001
1.40001
1.42162
1.40001
1.40001
1.47522
1.53452
1.25825
1.34726
1.20952
1.4817
1.45212
1.58268
1.40001
1.40001
1.26295
1.29753
1.45551
1.42678
1.49357
1.40001
1.46187
1.18487
1.44577
1.34892
1.29326
1.17941
1.40001
1.52693
1.47721
1.46444
1.58005
1.40136
1.40001
1.40001
1.69314
1.45249
1.58824
1.45743
1.49118
1.48827
1.42408
1.39786
1.40001
1.47152
1.45059
1.58619
1.40001
1.4441
1.31421
1.17763
1.40001
1.39696
1.4901
1.20159
1.36272
1.23688
1.48957
1.57001
1.40001
1.53001
1.45462
1.39999
1.45661
1.43459
1.26602
1.18185
1.46799
1.48611
1.42832
1.24901
1.49341
1.40001
1.50532
1.40001
1.29443
1.40001
1.40038
1.49401
1.18401
1.40001
1.43361
1.59201
1.35543
1.40001
1.56663
1.36354
1.40001
1.36626
1.24773
1.49219
1.34828
1.50115
1.34591
1.17604
1.58948
1.45161
1.46571
1.22526
1.34203
1.40001
1.49927
1.34706
1.35705
1.3665
1.36804
1.40001
1.18613
1.50678
1.32083
1.40001
1.4857
1.23646
1.40001
1.34983
1.46218
1.50906
1.48416
1.33792
1.31231
1.34415
1.37366
1.48172
1.40001
1.32788
1.54104
1.39091
1.36707
1.26055
1.40001
1.23403
1.42471
1.40001
1.46258
1.40001
1.28883
1.41458
1.40001
1.50684
1.47683
1.40001
1.43012
1.40001
1.35138
1.29697
1.53848
1.51821
1.40001
1.18379
1.40001
1.55473
1.74158
1.43686
1.40001
1.46381
1.58638
1.4834
1.51208
1.41548
1.27798
1.34372
1.41583
1.40001
1.65734
1.22794
1.40001
1.29756
1.52268
1.29013
1.44063
1.62796
1.17882
1.60691
1.33438
1.40001
1.51468
1.59208
1.55121
1.46994
1.36441
1.40001
1.56972
1.40001
1.22602
1.40001
1.60306
1.48522
1.29029
1.40002
1.48907
1.51962
1.58885
1.40001
1.56422
1.73642
1.5914
1.4432
1.24675
1.56489
1.25195
1.46892
1.63521
1.40001
1.40001
1.36567
1.38003
1.54875
1.39257
1.58307
1.36957
1.29681
1.56682
1.29019
1.40001
1.32951
1.28929
1.5946
1.40001
1.25299
1.24933
1.17665
1.4702
1.58143
1.40001
1.40001
1.36511
1.20807
1.55112
1.33717
1.52653
1.39462
1.56861
1.17627
1.68268
1.32588
1.59789
1.63488
1.23349
1.32642
1.40001
1.33086
1.71356
1.58539
1.40001
1.33778
1.37667
1.14785
1.56065
1.50904
1.53035
1.44861
1.41664
1.29335
1.4591
1.63452
1.3459
1.50037
1.49339
1.35539
1.50946
1.48634
1.5166
1.40001
1.34191
1.47826
1.46563
1.40001
1.3523
1.45701
1.45605
1.61483
1.46328
1.53562
1.18393
1.47007
1.44844
1.40001
1.47146
1.52408
1.40001
1.54307
1.46596
1.34375
1.36905
1.45786
1.40001
1.37152
1.339
1.48233
1.47174
1.39171
1.50246
1.5498
1.45671
1.45783
1.40001
1.65767
1.33723
1.339
1.48788
1.39746
1.48537
1.55835
1.70945
1.40001
1.56098
1.57161
1.49815
1.40001
1.49077
1.50709
1.35699
1.48456
1.40001
1.47551
1.51419
1.46091
1.40001
1.55704
1.39691
1.50886
1.52189
1.45903
1.53197
1.18655
1.49654
1.56652
1.40001
1.40001
1.61385
1.58682
1.53385
1.33244
1.51561
1.32559
1.29522
1.41533
1.38577
1.39897
1.28254
1.33011
1.48505
1.51112
1.54057
1.31482
1.30453
1.36402
1.54304
1.39271
1.43178
1.50647
1.54758
1.40001
1.37527
1.45021
1.45499
1.40002
1.57493
1.33285
1.46092
1.39705
1.39887
1.55609
1.48908
1.51945
1.40001
1.43311
1.45355
1.33
1.17234
1.39523
1.40001
1.27695
1.46118
1.52343
1.46722
1.18233
1.44529
1.61866
1.50246
1.56434
1.30846
1.70024
1.44112
1.27835
1.51523
1.25359
1.40001
1.51741
1.58261
1.417
1.7125
1.43234
1.40001
1.40001
1.30887
1.45908
1.19856
1.40001
1.28676
1.20614
1.51774
1.51568
1.3981
1.34514
1.51081
1.57285
1.51604
1.52984
1.40001
1.33083
1.43328
1.50514
1.66872
1.40001
1.40001
1.41553
1.48506
1.40001
1.62377
1.5205
1.40001
1.44399
1.6226
1.40001
1.40001
1.4041
1.2729
1.31498
1.16017
1.3323
1.32043
1.44638
1.58089
1.40001
1.41397
1.54732
1.40001
1.20371
1.34883
1.53417
1.42926
1.40001
1.18934
1.20631
1.36007
1.44193
1.13289
1.41329
1.36982
1.40524
1.46652
1.44759
1.3002
1.27732
1.48735
1.40001
1.47217
1.5795
1.50585
1.588
1.30017
1.31837
1.27419
1.31591
1.40001
1.45324
1.40001
1.53733
1.58207
1.1266
1.29886
1.30169
1.31391
1.40001
1.36722
1.40001
1.20805
1.1859
1.38652
1.29472
1.38751
1.30015
1.40049
1.4466
1.73832
1.40001
1.44699
1.29037
1.22248
1.28975
1.62258
1.61582
1.40001
1.50518
1.2938
1.66068
1.40001
1.30462
1.40001
1.59721
1.37766
1.44014
1.43157
1.40001
1.12656
1.36683
1.29118
1.50242
1.40001
1.40001
1.40001
1.42534
1.486
1.45446
1.45733
1.5919
1.57654
1.61887
1.45007
1.46794
1.16766
1.22163
1.57623
1.59433
1.4
1.40001
1.28508
1.29167
1.40413
1.40003
1.29036
1.40001
1.41134
1.40001
1.42906
1.40263
1.32927
1.31845
1.26674