/*--------------------------------*- C++ -*----------------------------------*\
  =========                 |
  \\      /  F ield         | OpenFOAM: The Open Source CFD Toolbox
   \\    /   O peration     | Website:  https://openfoam.org
    \\  /    A nd           | Version:  12
     \\/     M anipulation  |
\*---------------------------------------------------------------------------*/
FoamFile
{
    format      ascii;
    class       volVectorField;
    location    "2.5";
    object      U;
}
// * * * * * * * * * * * * * * * * * * * * * * * * * * * * * * * * * * * * * //

dimensions      [0 1 -1 0 0 0 0];

internalField   nonuniform List<vector> 
46253
(
(1.27994 -0.00346329 0)
(1.2 -3.16502e-13 0)
(1.2 3.67785e-09 0)
(1.2 -3.79434e-13 0)
(1.2 -9.79764e-10 0)
(1.2 3.05378e-10 0)
(1.31561 -0.0263142 0)
(1.13016 -0.0173129 0)
(1.2 1.10152e-13 0)
(1.2 2.08634e-13 0)
(1.27909 -0.00443459 0)
(1.32982 -0.0831901 0)
(1.2 7.3278e-14 0)
(1.2 1.72092e-13 0)
(1.2 3.13097e-14 0)
(1.2 2.14868e-13 0)
(1.2 1.78394e-13 0)
(1.2 -7.55637e-14 0)
(1.2 -1.56515e-13 0)
(1.2 -1.6731e-13 0)
(1.2 -3.43832e-14 0)
(1.2 1.2936e-11 0)
(1.2 7.708e-14 0)
(1.29315 -0.00340406 0)
(1.30737 -0.0342262 0)
(1.2 1.33289e-13 0)
(1.2 -1.91354e-14 0)
(1.2 -2.30964e-13 0)
(1.2 -1.69965e-13 0)
(1.12673 -0.0140502 0)
(1.13317 0.0526537 0)
(1.2 -3.69707e-12 0)
(1.2 -1.70978e-11 0)
(1.2 -1.5485e-13 0)
(1.2 -2.15371e-13 0)
(1.2 -1.09847e-13 0)
(1.2 2.86002e-14 0)
(1.2 2.82984e-13 0)
(1.15189 -0.0255437 0)
(1.2 8.7488e-14 0)
(1.31881 -0.0614363 0)
(1.33005 -0.0827501 0)
(1.2 4.25751e-13 0)
(1.2 1.22878e-12 0)
(1.35833 -0.114475 0)
(1.2 -2.21271e-13 0)
(1.2 -2.38009e-13 0)
(1.2 6.11866e-15 0)
(1.2 -1.81444e-10 0)
(1.2 -3.32999e-10 0)
(1.2 -1.01727e-08 0)
(1.2 -1.61192e-08 0)
(1.2 -2.85253e-13 0)
(1.12548 -0.000308708 0)
(1.20001 -1.68762e-07 0)
(1.29193 -0.0442363 0)
(1.2 -1.8075e-06 0)
(1.2 -1.46994e-05 0)
(1.04973 0.0784313 0)
(1.30012 -0.0856494 0)
(1.2 1.11357e-15 0)
(1.16203 0.00454432 0)
(1.2 -1.0119e-13 0)
(1.2 -2.077e-14 0)
(1.2 6.11164e-14 0)
(1.2 -3.77605e-14 0)
(1.2 -2.26877e-13 0)
(1.2 -2.05898e-14 0)
(1.28977 -0.0430156 0)
(1.35447 -0.111917 0)
(1.31527 -0.0262898 0)
(1.19992 7.13628e-05 0)
(1.1999 0.000135649 0)
(1.15262 -0.0130092 0)
(1.2 -3.20366e-13 0)
(1.2939 -0.00441954 0)
(1.00052 0.00690994 0)
(0.997018 0.0028047 0)
(1.2 -1.0009e-13 0)
(1.2 7.44231e-11 0)
(1.2 1.90645e-10 0)
(1.18072 0.0177328 0)
(1.2 -5.64222e-14 0)
(1.19055 0.0148319 0)
(1.31244 -0.042628 0)
(1.2 -2.59538e-13 0)
(1.04828 0.00150582 0)
(1.04958 0.00143422 0)
(1.12609 0.000504041 0)
(1.2 -1.57939e-15 0)
(1.2 1.75697e-14 0)
(1.31518 -0.0640291 0)
(1.2 -3.65571e-13 0)
(1.2 -2.98632e-08 0)
(1.2 5.90384e-14 0)
(1.2 6.70929e-07 0)
(1.2 -2.21335e-13 0)
(1.2 -7.20777e-14 0)
(1.05167 0.0780831 0)
(1.2 1.20476e-14 0)
(1.2 -8.32396e-14 0)
(1.2 -1.55468e-13 0)
(1.2 -1.39228e-13 0)
(1.13622 0.0513969 0)
(1.2 8.03486e-07 0)
(1.30939 -0.0463934 0)
(1.32862 -0.0800668 0)
(1.07945 0.00106254 0)
(1.08078 0.000520824 0)
(1.31633 -0.068506 0)
(1.16074 -0.0266767 0)
(1.20121 -0.000530355 0)
(1.20214 -0.00338961 0)
(1.2 -8.84912e-14 0)
(1.2 1.24191e-15 0)
(1.11433 0.00129056 0)
(1.35222 -0.105731 0)
(1.30813 -0.0863105 0)
(0.925135 0.0813693 0)
(1.28462 -0.0374401 0)
(1.2 2.92359e-14 0)
(1.2 -4.81905e-11 0)
(1.12169 0.0438736 0)
(1.09731 0.0636012 0)
(1.2 -1.19909e-13 0)
(0.922151 0.0750815 0)
(1.2 5.49352e-14 0)
(1.30425 -0.055285 0)
(1.20061 -0.000196085 0)
(1.01832 0.00391191 0)
(1.09766 -0.000787764 0)
(1.09867 -0.00107204 0)
(1.2 -9.82309e-11 0)
(1.30889 -0.0206357 0)
(1.02231 0.00371103 0)
(1.2 4.9581e-14 0)
(1.033 0.00165065 0)
(1.03477 0.00173767 0)
(1.2872 -0.0399256 0)
(1.2 7.51311e-14 0)
(1.0085 0.0148041 0)
(1.10727 -0.000450992 0)
(1.10842 -0.000347995 0)
(1.14327 0.0486739 0)
(1.04026 0.0337647 0)
(1.19992 1.37911e-06 0)
(1.04362 0.00137547 0)
(1.0451 0.00136106 0)
(1.15319 -0.024895 0)
(1.2 2.08044e-14 0)
(1.31881 -0.0695207 0)
(1.2 -7.91231e-14 0)
(1.02635 0.00339572 0)
(1.02842 0.00296061 0)
(1.17019 0.0380686 0)
(1.35404 -0.110875 0)
(1.30406 -0.0559605 0)
(1.2 7.26846e-14 0)
(1.05812 0.00113063 0)
(1.2 -4.75047e-08 0)
(1.05925 0.0011975 0)
(1.32878 -0.0799958 0)
(1.29567 -0.0463317 0)
(1.2 1.15008e-13 0)
(1.31223 -0.0341256 0)
(1.03911 0.00180971 0)
(1.30785 -0.0204924 0)
(1.03994 0.00167561 0)
(0.80555 0.0317807 0)
(1.2 5.20729e-15 0)
(1.0663 0.00117242 0)
(1.06717 0.00117531 0)
(1.2 -1.81974e-12 0)
(1.31833 -0.0547954 0)
(1.2 -7.82995e-08 0)
(1.35837 -0.119126 0)
(1.15366 -0.0151739 0)
(1.2 -5.37109e-15 0)
(1.16019 -0.0120928 0)
(1.35014 -0.105386 0)
(1.2 2.09957e-08 0)
(1.17082 0.0376019 0)
(1.07534 0.00132151 0)
(1.07638 0.00101723 0)
(1.2 1.69309e-13 0)
(1.05294 0.00141429 0)
(1.05491 0.00164735 0)
(1.36051 -0.115599 0)
(1.2 2.20623e-13 0)
(1.2 1.51708e-13 0)
(1.2 -3.87155e-13 0)
(1.2 4.19981e-14 0)
(1.30815 -0.0882124 0)
(1.2 -5.20572e-14 0)
(1.2 -3.54013e-13 0)
(1.2 -3.00646e-13 0)
(1.161 -0.025246 0)
(1.2 4.24677e-14 0)
(1.16095 -0.00187527 0)
(1.16204 -0.00182478 0)
(1.2 4.94879e-14 0)
(1.2 -5.93775e-14 0)
(1.06188 0.00134219 0)
(1.06281 0.0011579 0)
(1.2 -7.46647e-14 0)
(1.35115 -0.108641 0)
(1.17408 0.0357138 0)
(1.08773 0.000134609 0)
(1.08836 0.000280246 0)
(1.2 2.45514e-14 0)
(1.2 -2.19779e-14 0)
(0.924071 0.0847801 0)
(1.31763 -0.057318 0)
(1.2 -1.19552e-13 0)
(1.15629 -0.014155 0)
(1.2 4.9423e-14 0)
(1.14595 0.0475335 0)
(1.3045 -0.0514738 0)
(1.0943 -0.000560902 0)
(1.2 -1.35299e-12 0)
(1.2 -3.16846e-13 0)
(1.09534 -0.000899475 0)
(1.36083 -0.120156 0)
(1.07052 0.00173306 0)
(1.07221 0.00187833 0)
(1.30477 -0.0575461 0)
(1.2 7.14078e-14 0)
(1.2 -1.77308e-13 0)
(1.17491 -0.00229461 0)
(1.17612 -0.00222171 0)
(1.08735 0.0687231 0)
(1.2 1.19051e-13 0)
(1.2 1.40248e-13 0)
(1.2 7.91395e-14 0)
(1.2 -2.9965e-13 0)
(1.2 1.01611e-13 0)
(1.2 6.08592e-14 0)
(1.2 -7.43154e-14 0)
(1.08954 0.0682459 0)
(1.0755 0.0716374 0)
(1.2 -1.65145e-13 0)
(1.2 -1.75366e-13 0)
(1.2 3.44676e-14 0)
(1.2 8.00088e-14 0)
(1.2 -9.00515e-14 0)
(1.2 -4.372e-14 0)
(1.2 9.34088e-14 0)
(1.17527 0.0352858 0)
(1.2 -1.95985e-13 0)
(1.10429 -0.000955894 0)
(1.10509 -0.000844494 0)
(1.07748 0.0712039 0)
(1.18892 -0.00301631 0)
(1.2 -2.15241e-13 0)
(1.18996 -0.00269225 0)
(1.08347 0.000210497 0)
(1.08502 0.000444385 0)
(1.27765 -0.0323744 0)
(1.31495 -0.0686489 0)
(1.2 -3.93368e-14 0)
(1.30636 -0.00962261 0)
(1.31919 -0.0694186 0)
(1.31899 -0.0703489 0)
(1.14174 0.0492927 0)
(1.1653 -0.00423137 0)
(1.2 5.35422e-14 0)
(1.2 1.03195e-13 0)
(1.2 1.03873e-14 0)
(1.09082 0.000220559 0)
(1.11388 -0.000825399 0)
(1.09172 0.00010487 0)
(1.2 -2.85069e-13 0)
(1.2 -7.82734e-14 0)
(1.2 5.66463e-15 0)
(1.11487 -0.00102938 0)
(1.2 2.56916e-13 0)
(1.19994 3.07556e-05 0)
(1.2 6.97832e-14 0)
(1.12093 -0.000320555 0)
(1.26568 -0.0222902 0)
(1.20103 -0.00321664 0)
(1.20164 -0.00305745 0)
(1.2 -3.6388e-14 0)
(1.2 -1.38944e-13 0)
(1.2 9.52623e-14 0)
(1.33243 -0.105398 0)
(1.30403 -0.0933496 0)
(1.28414 -0.0368625 0)
(1.15291 0.0448787 0)
(1.2 4.00402e-15 0)
(1.05722 0.0768627 0)
(1.05892 0.0761332 0)
(1.30595 -0.0546339 0)
(1.2 4.52463e-14 0)
(1.06366 0.075064 0)
(1.11138 0.0613522 0)
(1.2 1.80733e-13 0)
(1.11493 0.0608836 0)
(1.31008 -0.0574094 0)
(1.12044 -0.000974757 0)
(0.934599 0.0854196 0)
(1.12139 -0.00120328 0)
(1.30014 -0.0521881 0)
(0.938027 0.0754166 0)
(1.2 2.35831e-13 0)
(1.10079 -0.0012433 0)
(1.10186 -0.000950552 0)
(1.2 1.96522e-14 0)
(1.14334 0.0501485 0)
(1.2 2.53611e-13 0)
(1.2 3.76275e-14 0)
(1.15563 -0.0134502 0)
(1.2 6.88332e-14 0)
(1.12777 -0.00080436 0)
(1.2 -2.18335e-13 0)
(1.12873 -0.00112499 0)
(1.29428 -0.0427035 0)
(1.06519 0.0744392 0)
(1.2 -1.4187e-13 0)
(1.11942 0.000472865 0)
(1.30122 -0.0546089 0)
(1.2 -2.67484e-13 0)
(1.31385 -0.026535 0)
(1.3082 -0.0336326 0)
(1.15034 -0.0254879 0)
(1.15625 0.0436982 0)
(1.2 1.54917e-13 0)
(1.2 4.22585e-14 0)
(1.13428 -0.0014994 0)
(1.13499 -0.00210332 0)
(1.22507 -0.00302157 0)
(1.22426 -0.00301424 0)
(1.2 2.93207e-13 0)
(1.2 5.92057e-14 0)
(1.2 3.319e-13 0)
(1.16195 0.00362805 0)
(1.2803 -0.0346288 0)
(1.11088 -0.000699488 0)
(1.1118 -0.000215378 0)
(1.2 -9.83159e-14 0)
(1.2 -6.02095e-14 0)
(1.2 -2.40474e-13 0)
(1.2 -6.63621e-14 0)
(0.91871 0.0615142 0)
(1.2 -4.91485e-14 0)
(1.14033 -0.00207391 0)
(1.1411 -0.00258602 0)
(1.2 -9.27726e-16 0)
(1.28498 -0.039498 0)
(1.2 3.2874e-14 0)
(1.1582 -0.028184 0)
(1.2 3.13428e-14 0)
(1.35315 -0.108346 0)
(1.2 4.1043e-14 0)
(1.32511 -0.0776305 0)
(1.2 -2.38895e-13 0)
(1.11719 -0.000883405 0)
(1.2 7.16083e-15 0)
(1.11804 -0.000754972 0)
(1.2 1.14792e-13 0)
(1.32533 -0.0774518 0)
(1.2 5.35859e-14 0)
(1.2 1.69829e-13 0)
(1.2 1.14207e-13 0)
(1.2 6.82398e-14 0)
(1.2 -9.03549e-15 0)
(1.2 1.14045e-13 0)
(1.2 2.156e-13 0)
(1.14609 -0.00176078 0)
(1.2 1.60798e-13 0)
(1.2 1.77176e-13 0)
(1.2 1.55521e-13 0)
(1.2 2.24505e-13 0)
(1.14705 -0.0020453 0)
(1.2 1.09677e-13 0)
(1.06947 0.0734193 0)
(1.291 -0.040952 0)
(1.2 -2.69317e-13 0)
(1.2 -1.9501e-13 0)
(1.2 5.28853e-15 0)
(1.30482 -0.0498769 0)
(1.17187 0.00201005 0)
(1.30149 -0.0542977 0)
(1.12409 -0.000964165 0)
(1.12353 -0.00176867 0)
(1.12523 -0.000574319 0)
(1.2 -2.99569e-14 0)
(1.2 -1.12555e-13 0)
(1.1522 -0.00185302 0)
(0.892854 0.0742464 0)
(1.2 7.76277e-15 0)
(1.15088 0.0455513 0)
(1.15298 -0.0023046 0)
(1.32554 -0.101383 0)
(1.2 -9.95351e-14 0)
(1.14348 -0.0199124 0)
(1.18401 0.0299418 0)
(1.18674 0.0312634 0)
(1.2 -6.79678e-15 0)
(1.14711 -0.022934 0)
(1.2 1.12738e-13 0)
(1.24856 -0.0044296 0)
(1.24898 -0.00369821 0)
(1.07147 0.0725175 0)
(1.2 -9.99411e-14 0)
(1.19997 -7.43263e-06 0)
(1.2 -1.59226e-13 0)
(1.2 1.06079e-13 0)
(1.2 -1.13749e-14 0)
(1.2 2.99785e-13 0)
(1.2 1.16744e-13 0)
(1.2 2.36772e-13 0)
(0.958141 0.0846427 0)
(1.2 2.70166e-14 0)
(1.15172 -0.0217386 0)
(1.2 -1.81403e-11 0)
(1.17634 -0.00790991 0)
(1.2 1.39385e-13 0)
(1.2 1.12773e-13 0)
(1.27834 -0.0320775 0)
(1.2 2.9443e-10 0)
(1.2 -1.63286e-15 0)
(1.15803 -0.00151558 0)
(1.2 -7.53197e-14 0)
(1.13132 -0.00109493 0)
(1.2 -2.5377e-13 0)
(1.2 1.77496e-13 0)
(1.15879 -0.00200915 0)
(1.1323 -0.000869639 0)
(1.2 -5.41491e-14 0)
(1.15061 -0.0144969 0)
(1.2 1.38322e-13 0)
(1.2 -3.45295e-14 0)
(1.2 -4.3383e-13 0)
(1.2 -1.44565e-13 0)
(1.17883 -0.0358981 0)
(1.12374 0.00247498 0)
(1.2 8.61153e-14 0)
(1.2 -1.84133e-13 0)
(1.12744 -0.00121363 0)
(1.30054 -0.053475 0)
(1.2 -4.60931e-12 0)
(1.3062 -0.0925523 0)
(1.2 -1.26669e-13 0)
(1.17324 -0.0361652 0)
(1.16724 0.039485 0)
(1.2 2.901e-14 0)
(1.2 1.54041e-13 0)
(1.28825 -0.0372819 0)
(1.2 -6.3473e-14 0)
(1.26399 -0.0214696 0)
(1.14738 -0.0221453 0)
(1.2 4.0838e-15 0)
(1.16885 0.00382516 0)
(1.2 1.87325e-14 0)
(1.13277 0.0320068 0)
(1.15902 -0.0303694 0)
(1.19998 2.33099e-05 0)
(1.13731 -0.00205945 0)
(1.21876 0.00917067 0)
(1.2 3.5245e-14 0)
(1.22056 0.00902295 0)
(1.22002 0.00991753 0)
(1.13827 -0.00176785 0)
(1.2 7.71433e-14 0)
(1.22411 0.0099493 0)
(1.2 3.66647e-15 0)
(1.2 9.96234e-14 0)
(1.2 -3.45264e-09 0)
(1.2 -1.09818e-13 0)
(1.2 1.66425e-13 0)
(1.17272 -0.00692396 0)
(1.2 -1.02981e-13 0)
(1.15832 -0.0322153 0)
(1.30046 -0.0521228 0)
(1.16691 -0.00192613 0)
(1.27144 -0.0277389 0)
(1.17938 0.0335683 0)
(1.16738 -0.00211496 0)
(1.16806 -0.00310335 0)
(1.2652 -0.00439516 0)
(1.26653 -0.00430672 0)
(1.2 1.78672e-13 0)
(1.2 1.34634e-13 0)
(1.2 2.13498e-13 0)
(1.2 2.83948e-14 0)
(1.20067 -0.00178373 0)
(1.2 1.09781e-13 0)
(1.26068 -0.0192998 0)
(1.30339 -0.0552566 0)
(1.34407 -0.0950616 0)
(1.25961 -0.0183048 0)
(1.21861 0.0080968 0)
(1.31307 -0.0864005 0)
(1.22255 0.0143596 0)
(1.2 1.44717e-13 0)
(1.2 -1.2891e-13 0)
(1.1435 -0.00220055 0)
(1.15332 -0.0253249 0)
(1.31976 -0.0708465 0)
(1.14424 -0.00153801 0)
(1.17216 -0.00170036 0)
(1.17297 -0.00230527 0)
(1.27231 -0.00388535 0)
(1.31681 -0.0665673 0)
(1.2 3.17181e-14 0)
(1.27255 -0.00303685 0)
(1.13824 0.0504121 0)
(1.2 8.97937e-14 0)
(1.2 1.87511e-14 0)
(1.2 1.04632e-13 0)
(1.31321 -0.0731106 0)
(1.2 -7.31057e-13 0)
(1.12233 -0.00136576 0)
(1.15979 0.00355343 0)
(1.2 2.17919e-14 0)
(1.2 2.88963e-13 0)
(1.16563 -0.0300805 0)
(1.2 -9.46173e-14 0)
(1.2 1.30405e-13 0)
(1.16235 0.00364873 0)
(1.36584 -0.130717 0)
(1.15001 -0.0231247 0)
(1.2 -1.23408e-13 0)
(1.2 -1.05364e-13 0)
(1.1501 -0.0226762 0)
(1.2 -7.92948e-14 0)
(1.15235 -0.0223798 0)
(1.14546 -0.019243 0)
(1.15237 -0.0216816 0)
(1.2 8.26315e-14 0)
(1.15342 -0.0218638 0)
(1.15522 -0.0185992 0)
(1.2 -1.08319e-14 0)
(1.21997 0.00885679 0)
(1.15699 -0.0223935 0)
(1.2 -1.10603e-13 0)
(1.2 -3.90145e-14 0)
(1.14953 -0.00185861 0)
(1.2 2.03417e-14 0)
(1.30382 -0.00549014 0)
(1.27478 -0.0294051 0)
(1.2 1.2342e-13 0)
(1.2 -6.71648e-14 0)
(1.15014 -0.00149532 0)
(1.2 -2.23252e-14 0)
(1.2 -5.86911e-14 0)
(1.2 1.21669e-13 0)
(1.2 2.02054e-13 0)
(1.34259 -0.098922 0)
(1.2 -1.14764e-13 0)
(1.2 -1.32297e-13 0)
(1.18154 -0.00234998 0)
(1.27139 -0.027309 0)
(1.18201 -0.00262403 0)
(1.30464 -0.0848909 0)
(1.2 1.84564e-13 0)
(1.2 -1.03262e-13 0)
(1.2 -5.24962e-13 0)
(1.2 1.81451e-13 0)
(1.2 -1.24959e-13 0)
(1.2 -7.23367e-09 0)
(1.2 4.58021e-14 0)
(1.2201 0.0084905 0)
(1.34065 -0.0931896 0)
(1.2 8.06719e-14 0)
(1.2 2.07161e-13 0)
(1.2 -2.92344e-14 0)
(1.2 7.65795e-14 0)
(1.2 -1.92774e-14 0)
(1.2 -6.49824e-14 0)
(1.30518 -0.0100381 0)
(1.14738 0.0468329 0)
(1.2 -7.47321e-14 0)
(1.15747 0.0432316 0)
(1.2 -7.25183e-14 0)
(1.2 1.52973e-13 0)
(1.30151 -0.0528041 0)
(1.2 -2.82987e-15 0)
(1.2 2.31006e-13 0)
(1.2 -1.25776e-13 0)
(1.1553 -0.00193402 0)
(1.2 3.42943e-14 0)
(1.2 9.3787e-14 0)
(1.15612 -0.00126813 0)
(1.16037 0.0416517 0)
(1.12501 0.0567051 0)
(1.2 -2.38853e-14 0)
(1.12284 0.057392 0)
(1.12233 0.0575603 0)
(1.11969 0.0583226 0)
(1.11604 -0.000223383 0)
(1.2 -1.07899e-13 0)
(1.18602 -0.00217106 0)
(1.18698 -0.00280119 0)
(1.15217 0.0461044 0)
(1.09671 -0.00217652 0)
(1.2 6.07678e-14 0)
(1.2 -4.155e-14 0)
(1.15362 -0.0124387 0)
(1.2 1.03927e-13 0)
(0.937375 0.0704411 0)
(1.15774 -0.0151569 0)
(1.2 7.13103e-12 0)
(0.933378 0.0759239 0)
(1.20033 -5.02369e-05 0)
(1.2 -1.82928e-13 0)
(1.14406 0.0489732 0)
(1.13878 0.0511895 0)
(1.2 1.41564e-13 0)
(1.2 1.60631e-14 0)
(1.11586 0.000466855 0)
(1.21959 0.0120405 0)
(1.2 1.73134e-14 0)
(1.2 -4.47372e-14 0)
(1.19473 0.0266066 0)
(1.2 -9.44231e-09 0)
(1.2 1.91644e-09 0)
(1.19994 -5.7034e-05 0)
(1.19999 1.31001e-06 0)
(1.12715 0.0373339 0)
(1.14997 0.0255271 0)
(1.05464 0.0688372 0)
(1.05396 0.06907 0)
(1.3659 -0.118985 0)
(1.17636 -0.0344103 0)
(1.05987 0.0690332 0)
(1.17382 0.00393944 0)
(1.05814 0.069178 0)
(1.06725 0.0684588 0)
(1.2 1.18804e-13 0)
(1.30463 -0.0126263 0)
(1.29243 -0.00425459 0)
(1.06583 0.0685336 0)
(1.2 3.48268e-14 0)
(1.07431 0.068197 0)
(1.2 -4.70328e-14 0)
(1.07285 0.0681503 0)
(1.2 2.20986e-14 0)
(1.16975 -0.0315489 0)
(1.08126 0.0678241 0)
(1.2 -2.94558e-14 0)
(1.07983 0.0679436 0)
(0.996301 0.0853017 0)
(1.2 3.36291e-14 0)
(1.08823 0.0671251 0)
(1.2 -9.95772e-14 0)
(1.08687 0.067224 0)
(1.2 -2.43146e-13 0)
(1.34038 -0.0967823 0)
(1.2 -2.82292e-14 0)
(1.26897 -0.0247874 0)
(1.29381 -0.00227056 0)
(1.2 4.65987e-14 0)
(1.2 -8.71062e-14 0)
(1.09519 0.065596 0)
(1.09387 0.0660768 0)
(1.2 1.5671e-13 0)
(1.15734 -0.0248858 0)
(1.10187 0.0640153 0)
(1.10067 0.0642416 0)
(1.19308 0.0256003 0)
(1.2 2.17198e-13 0)
(1.2 6.63168e-14 0)
(1.11214 0.0609531 0)
(1.19401 -0.00289993 0)
(1.11113 0.0612612 0)
(1.2 2.75385e-13 0)
(1.16366 -0.0022935 0)
(1.11838 0.0593202 0)
(1.29705 -0.0495119 0)
(1.11698 0.0597812 0)
(1.19456 -0.00327735 0)
(1.16454 -0.00187455 0)
(1.2 -1.1373e-13 0)
(1.2 2.07213e-13 0)
(1.2 1.91553e-13 0)
(1.1243 0.0572268 0)
(1.12314 0.0573384 0)
(1.11411 0.000651665 0)
(1.2 2.58021e-13 0)
(1.2 1.33292e-13 0)
(1.1307 0.0558482 0)
(1.25671 -0.0159134 0)
(1.12994 0.0560754 0)
(1.30125 -0.0538704 0)
(1.2 -3.46679e-14 0)
(1.13919 0.0523776 0)
(1.13872 0.0527746 0)
(1.2 -2.09988e-14 0)
(1.2 2.80559e-13 0)
(1.2 5.23512e-15 0)
(1.16634 0.00357387 0)
(1.2 2.01942e-14 0)
(1.15655 -0.0216167 0)
(1.19313 0.0256601 0)
(1.1318 0.0535431 0)
(1.2 1.8636e-13 0)
(1.14845 0.0487159 0)
(1.2 -2.88206e-13 0)
(1.14787 0.0489929 0)
(1.2 6.02264e-14 0)
(1.2 2.33988e-13 0)
(1.15252 -0.0207739 0)
(1.15205 -0.020597 0)
(1.15497 0.0461166 0)
(1.15406 0.0462688 0)
(1.22511 0.011021 0)
(1.14663 -0.0204586 0)
(1.15999 0.0430152 0)
(1.14656 -0.018971 0)
(1.15947 0.0434127 0)
(1.2 1.94655e-13 0)
(1.18381 0.030866 0)
(1.16978 0.0398615 0)
(1.169 0.0401399 0)
(1.2 1.46704e-13 0)
(1.28055 -0.0349414 0)
(1.17299 0.0367918 0)
(1.17246 0.0369315 0)
(0.809458 0.00929939 0)
(1.2 -7.68537e-14 0)
(1.2 -3.1135e-13 0)
(1.2 2.16175e-13 0)
(1.18115 0.0346356 0)
(1.17639 -0.0383324 0)
(1.18045 0.0349172 0)
(1.3722 -0.134343 0)
(1.09973 -0.000327604 0)
(1.22157 0.00913681 0)
(1.31775 -0.0688131 0)
(1.18342 0.031484 0)
(1.18278 0.0315105 0)
(1.19403 0.0255869 0)
(1.19174 0.0296132 0)
(1.19155 0.0298568 0)
(1.28499 -0.0391078 0)
(1.28765 -0.0415641 0)
(1.2 -4.14475e-13 0)
(1.15976 -0.0277518 0)
(0.921333 0.0642199 0)
(1.19935 -0.00205869 0)
(1.2 -1.17179e-14 0)
(1.31445 -0.0636496 0)
(1.19979 -0.00295563 0)
(1.29529 -0.047661 0)
(1.09253 -0.000844372 0)
(1.30215 -0.00277504 0)
(1.2 3.90844e-12 0)
(1.2 3.31718e-14 0)
(1.2 2.41172e-12 0)
(1.16961 -0.00157679 0)
(1.2 -2.14321e-13 0)
(1.2 -1.5833e-13 0)
(1.2 1.17827e-14 0)
(1.2 1.98143e-14 0)
(1.2 -4.67992e-14 0)
(1.17027 -0.00106242 0)
(1.2 5.83693e-15 0)
(1.2 -4.01692e-13 0)
(1.2 -2.86178e-13 0)
(1.27555 -0.0300787 0)
(1.28199 -0.0345786 0)
(1.2 1.40487e-13 0)
(1.18745 0.0281343 0)
(1.36628 -0.118628 0)
(1.28425 -0.00358433 0)
(1.2 7.42234e-14 0)
(1.2 1.18806e-13 0)
(1.2 2.47818e-13 0)
(1.2 1.29068e-09 0)
(1.2 1.08421e-13 0)
(1.17204 0.00271746 0)
(1.2 -1.12478e-14 0)
(1.17471 -0.0363344 0)
(1.2 7.66947e-12 0)
(1.12892 0.0551268 0)
(1.16526 0.00367332 0)
(1.1261 0.0558553 0)
(1.29102 -0.0445968 0)
(1.2 1.18268e-13 0)
(1.3202 -0.0977222 0)
(1.31411 -0.0587116 0)
(1.12017 0.0583233 0)
(1.2 -2.71051e-09 0)
(1.2 -1.23156e-13 0)
(1.2 2.44706e-13 0)
(1.2 2.32276e-14 0)
(1.2 -3.80376e-14 0)
(1.12475 0.0566926 0)
(1.12636 0.0558748 0)
(1.17118 0.00186598 0)
(1.30439 -0.00190557 0)
(1.30267 -0.000920167 0)
(1.2 -2.58257e-13 0)
(1.26914 -0.0242214 0)
(1.2 9.60769e-14 0)
(1.2 7.85963e-14 0)
(1.12387 0.0568392 0)
(1.19947 0.0248152 0)
(1.2 4.65161e-06 0)
(1.15078 -0.0280908 0)
(1.20077 -0.000363974 0)
(1.2 1.51343e-07 0)
(1.18672 0.0301066 0)
(1.18224 0.0323781 0)
(1.2 -1.42651e-13 0)
(1.1226 0.0578016 0)
(1.30428 -0.0541597 0)
(1.22323 0.00708109 0)
(1.2 9.94688e-14 0)
(1.22365 0.0130124 0)
(1.20705 -0.00240976 0)
(1.2 -5.68743e-14 0)
(1.2 -3.01123e-09 0)
(1.22407 0.0105273 0)
(1.16597 -0.0308659 0)
(1.2 2.48888e-09 0)
(1.20795 -0.00246831 0)
(1.36129 -0.126465 0)
(1.2 5.21265e-11 0)
(1.2 -8.78085e-14 0)
(1.10531 0.0629902 0)
(1.10412 0.0634998 0)
(1.17631 -0.0351423 0)
(1.2 -1.08538e-13 0)
(1.35973 -0.125072 0)
(1.36035 -0.125333 0)
(1.30926 -0.0591901 0)
(1.16377 -0.000926013 0)
(1.2 -2.68791e-14 0)
(1.15386 -0.0246223 0)
(1.13201 -0.00641586 0)
(1.30072 -0.0523773 0)
(1.0018 0.0850304 0)
(1.2 1.88594e-13 0)
(1.2 -8.96021e-14 0)
(1.2 -9.96656e-14 0)
(1.13335 0.0546748 0)
(1.13227 0.0548361 0)
(1.2 -2.8918e-10 0)
(1.19999 -1.24962e-05 0)
(1.2 1.29218e-13 0)
(1.17809 -0.00248194 0)
(1.14237 0.0511659 0)
(1.2 -2.61341e-14 0)
(1.19999 0.000318774 0)
(1.14105 0.0513967 0)
(1.17915 -0.00216135 0)
(1.21885 0.00854788 0)
(1.22157 0.00697519 0)
(1.2 -9.25446e-15 0)
(1.20643 -0.0140854 0)
(1.14714 -0.0240703 0)
(1.3132 -0.0636506 0)
(1.17558 -0.0375771 0)
(1.30419 -0.0540582 0)
(1.16255 0.0417035 0)
(1.2 -5.38441e-14 0)
(1.2 1.04338e-13 0)
(1.16165 0.0417637 0)
(1.2 3.26247e-14 0)
(1.2 3.63289e-14 0)
(1.17046 -0.0319841 0)
(1.17529 -0.0360181 0)
(1.2 -1.53384e-14 0)
(1.21225 -0.00217356 0)
(1.28142 -0.0327331 0)
(1.1573 -0.0251405 0)
(1.28773 -0.0384108 0)
(1.28415 -0.0356151 0)
(1.21278 -0.00326126 0)
(1.28698 -0.0392788 0)
(1.2902 -0.040162 0)
(1.30448 -0.055445 0)
(1.30574 -0.0568141 0)
(1.2 -1.35225e-14 0)
(1.2 -1.27091e-13 0)
(1.12276 -0.000712051 0)
(1.2 -1.41861e-13 0)
(1.2 -3.26869e-14 0)
(1.22218 0.0117688 0)
(1.27285 -0.0275445 0)
(1.27984 -0.0346697 0)
(1.2 -1.23861e-13 0)
(1.2 3.15899e-13 0)
(1.14788 -0.0215288 0)
(1.2 1.48044e-13 0)
(1.1523 -0.0221074 0)
(1.14892 -0.0207904 0)
(1.20272 0.000451068 0)
(1.08726 0.0383656 0)
(1.19017 -0.0152469 0)
(1.19998 1.88506e-05 0)
(1.2 -1.11555e-14 0)
(1.2 1.67738e-07 0)
(1.2 -1.37039e-13 0)
(1.17449 -0.03319 0)
(1.14727 -0.0203067 0)
(1.11368 0.000281083 0)
(1.35785 -0.123626 0)
(1.2 -3.879e-13 0)
(1.18397 -0.00224911 0)
(1.2 -2.76232e-13 0)
(1.20729 0.019167 0)
(1.20944 0.019102 0)
(1.18443 -0.00162578 0)
(1.2 -5.02567e-11 0)
(1.21352 0.0156904 0)
(1.21917 0.0127888 0)
(1.21233 0.0151411 0)
(1.2 -1.50868e-13 0)
(1.2 1.0914e-14 0)
(1.2 1.59586e-13 0)
(1.2 -3.15324e-13 0)
(1.21702 0.0125968 0)
(1.15327 -0.0217702 0)
(1.2 3.35855e-14 0)
(1.19572 0.0235436 0)
(1.2 3.28809e-09 0)
(1.28827 -0.0396509 0)
(1.2 1.49638e-13 0)
(1.28912 -0.0392983 0)
(1.28414 -0.0036825 0)
(1.31105 -0.0227914 0)
(1.2 -1.78228e-13 0)
(1.21656 -0.00363756 0)
(1.21754 -0.00440077 0)
(1.31279 -0.0876086 0)
(0.96535 0.0859722 0)
(1.2 1.97405e-12 0)
(1.28079 -0.035959 0)
(1.15812 -0.0244315 0)
(1.15841 -0.0235817 0)
(1.27995 -0.0357384 0)
(1.2 2.28139e-13 0)
(1.2 1.27303e-13 0)
(1.22202 0.00788509 0)
(1.37486 -0.139481 0)
(1.2 -5.92064e-14 0)
(1.2 2.91392e-14 0)
(1.14935 -0.0204505 0)
(1.34852 -0.103331 0)
(1.11499 0.00025394 0)
(1.22342 0.00977425 0)
(1.2 9.09924e-14 0)
(1.2 1.38732e-13 0)
(1.2 2.03877e-13 0)
(1.2 6.80296e-15 0)
(1.2 7.52026e-14 0)
(1.2 -1.14716e-13 0)
(0.898825 0.0653097 0)
(1.2 1.15192e-13 0)
(1.28304 -0.00380487 0)
(1.28947 -0.0427169 0)
(1.29223 -0.0458028 0)
(1.11828 -0.000804172 0)
(1.35981 -0.123214 0)
(1.3739 -0.135641 0)
(1.36088 -0.122569 0)
(1.28232 -0.0320313 0)
(1.08641 -0.0279506 0)
(1.2847 -0.00375124 0)
(1.36141 -0.126414 0)
(1.08475 0.0674622 0)
(1.07778 0.0681843 0)
(1.07091 0.0682385 0)
(1.09164 0.0665671 0)
(1.08328 0.0675446 0)
(1.2 -3.6649e-14 0)
(1.17017 -0.00549394 0)
(1.07625 0.06813 0)
(1.06422 0.0685352 0)
(1.09033 0.0667757 0)
(1.2205 0.0068721 0)
(1.06935 0.068248 0)
(1.11265 0.061114 0)
(1.09852 0.0646869 0)
(1.06264 0.068595 0)
(1.2 -3.7975e-13 0)
(1.05661 0.0689521 0)
(1.09738 0.0650374 0)
(1.05518 0.0690568 0)
(1.2 -4.43503e-14 0)
(1.10883 0.0617631 0)
(1.05252 0.0770132 0)
(1.04083 0.0730157 0)
(1.03504 0.0734947 0)
(1.10751 0.0622477 0)
(1.20463 -0.00180938 0)
(1.05043 0.0707798 0)
(1.11486 0.0602228 0)
(1.20083 6.90719e-05 0)
(1.2 8.9522e-14 0)
(1.2 5.54936e-07 0)
(1.1139 0.0603912 0)
(1.2 2.60513e-13 0)
(1.12128 0.0580923 0)
(1.2 9.4398e-08 0)
(1.2 4.77293e-14 0)
(1.2 3.14569e-13 0)
(1.22353 -0.00294717 0)
(1.12043 0.0585694 0)
(1.2 -8.74583e-15 0)
(1.2 -3.59152e-13 0)
(1.2 3.28203e-13 0)
(1.12782 0.0566453 0)
(1.11895 0.0586086 0)
(1.2 1.47282e-13 0)
(1.2 3.33242e-13 0)
(1.2 -4.15418e-13 0)
(1.12654 0.0567676 0)
(1.22412 -0.00350713 0)
(1.35969 -0.117125 0)
(1.13686 0.0537266 0)
(1.2 -8.65713e-14 0)
(1.23032 0.00301614 0)
(1.13562 0.0540551 0)
(1.14608 0.0501991 0)
(1.14497 0.0504456 0)
(1.29351 -0.0436194 0)
(1.15187 0.0472509 0)
(1.15061 0.0475978 0)
(1.15773 0.0445641 0)
(1.2 -6.9657e-14 0)
(1.29241 -0.00115662 0)
(1.15702 0.0452381 0)
(1.2 2.44163e-13 0)
(1.1664 0.0407258 0)
(1.30495 -0.0135848 0)
(1.2 4.27102e-13 0)
(1.2 5.91939e-14 0)
(1.16491 0.0408794 0)
(1.26578 -0.0216626 0)
(1.35705 -0.119534 0)
(1.17112 0.0384348 0)
(1.17153 0.038753 0)
(1.17742 0.0355857 0)
(1.19168 -0.00332259 0)
(1.17546 0.035983 0)
(1.36804 -0.126266 0)
(1.18158 0.0330601 0)
(1.2 -3.38015e-13 0)
(1.20233 0.0239704 0)
(1.19225 -0.00300414 0)
(1.18269 0.033314 0)
(1.19214 0.0262188 0)
(1.20688 0.0198483 0)
(1.20371 -0.0077467 0)
(1.18852 0.030489 0)
(1.20212 0.0214234 0)
(1.2033 0.0218613 0)
(1.31056 -0.00331972 0)
(1.1862 0.0306661 0)
(1.19164 0.0273437 0)
(1.19276 0.0277472 0)
(1.28381 -0.00172154 0)
(1.34121 -0.11244 0)
(1.36513 -0.126827 0)
(1.2 -3.60324e-14 0)
(1.34035 -0.109237 0)
(1.2 -1.25527e-13 0)
(1.338 -0.111513 0)
(1.35261 -0.109984 0)
(1.36332 -0.114402 0)
(1.2 1.89456e-14 0)
(0.925761 0.0727845 0)
(1.15338 -0.00753577 0)
(1.2 -7.0448e-16 0)
(1.21974 -0.0289297 0)
(1.22825 -0.0276715 0)
(1.15328 0.0450653 0)
(1.14821 0.0472269 0)
(1.2 -7.59537e-14 0)
(1.11817 0.000472413 0)
(1.12072 0.0585898 0)
(1.11521 0.060506 0)
(1.1214 0.000455098 0)
(1.1145 6.67128e-05 0)
(1.12354 0.057482 0)
(1.11913 0.0591715 0)
(1.12245 0.0578486 0)
(1.12558 0.0568098 0)
(1.17215 -0.00953526 0)
(1.28635 -0.0402326 0)
(1.14978 -0.0220466 0)
(1.22477 0.0106784 0)
(1.2 -1.53853e-13 0)
(1.23042 0.00541155 0)
(1.2767 -0.0309177 0)
(1.29691 -0.0492368 0)
(1.20258 0.0218739 0)
(1.2 -1.16095e-13 0)
(1.08729 0.0656176 0)
(1.12483 0.0571864 0)
(1.33068 -0.0835789 0)
(1.2 -3.45783e-14 0)
(1.22865 -0.00375476 0)
(1.31772 -0.0678129 0)
(1.21933 0.0101357 0)
(1.22978 -0.00402364 0)
(1.2 9.63084e-14 0)
(1.1875 0.00575043 0)
(1.2 1.56059e-14 0)
(1.25046 -0.0111937 0)
(1.20275 0.0208863 0)
(1.12035 8.91903e-05 0)
(1.12552 0.0569214 0)
(1.19499 0.0252374 0)
(1.19059 0.0277223 0)
(1.32427 -0.0863407 0)
(1.19676 -0.00273018 0)
(1.21656 0.0116441 0)
(1.19785 -0.00180919 0)
(1.20231 0.0236386 0)
(1.30484 -0.0541197 0)
(1.33382 -0.0807933 0)
(1.28528 -0.0363809 0)
(1.33423 -0.10021 0)
(1.22741 0.00456119 0)
(1.11674 0.0599774 0)
(1.19699 0.0249835 0)
(1.2 1.31794e-13 0)
(1.11705 0.0597789 0)
(1.06653 0.0690405 0)
(1.24746 -0.0093961 0)
(1.20834 0.0166723 0)
(1.2 8.00735e-14 0)
(1.2 -1.05736e-13 0)
(1.2 -4.22257e-14 0)
(1.16117 -0.0258923 0)
(1.20064 0.0010271 0)
(1.2 -1.9503e-14 0)
(1.2 -5.20921e-14 0)
(1.35847 -0.118932 0)
(1.20623 0.0183567 0)
(1.30539 -0.0549168 0)
(1.2 -2.90251e-14 0)
(1.31224 -0.0408925 0)
(1.2 8.64355e-14 0)
(1.16318 -0.0276039 0)
(1.24532 -0.00643108 0)
(1.2 -7.10186e-14 0)
(1.2 -4.00388e-14 0)
(1.37015 -0.131149 0)
(1.2998 -0.0514009 0)
(1.05037 0.0706849 0)
(1.29549 -0.0484704 0)
(1.14561 -0.0198756 0)
(1.14526 -0.0196043 0)
(1.19999 -4.76813e-06 0)
(1.11422 0.0607021 0)
(1.15177 -0.0212845 0)
(1.2 -6.16904e-14 0)
(1.22765 -0.0464579 0)
(1.2 2.56762e-13 0)
(1.19702 0.0230179 0)
(1.23486 -0.00234944 0)
(1.21942 -0.0298708 0)
(1.2754 -0.0281236 0)
(1.2 2.08558e-13 0)
(1.2 2.68946e-13 0)
(1.2315 0.00456114 0)
(1.22882 -0.0283649 0)
(1.20439 0.0198628 0)
(1.21953 0.0110276 0)
(1.15557 -0.0233413 0)
(1.1547 -0.023496 0)
(1.2 3.69937e-13 0)
(1.23517 -0.00322305 0)
(1.20361 0.019931 0)
(1.22093 0.0081151 0)
(1.22479 0.0132017 0)
(1.30588 -0.0560196 0)
(1.19389 0.0247367 0)
(1.2 2.90766e-13 0)
(1.24291 -0.00487138 0)
(1.30663 -0.0620214 0)
(1.21212 0.0176431 0)
(1.31542 -0.0669488 0)
(1.21243 0.0182098 0)
(1.12407 0.0572997 0)
(1.2 1.35958e-14 0)
(1.2 9.55719e-14 0)
(1.2 1.83262e-13 0)
(1.27437 -0.0276813 0)
(1.21439 0.0134338 0)
(1.2 -4.83482e-14 0)
(1.17661 -0.0373643 0)
(1.21372 0.0134797 0)
(1.13254 0.0013665 0)
(1.0909 -0.000188946 0)
(1.28128 -0.0363151 0)
(1.17672 -0.0375742 0)
(1.37873 -0.136344 0)
(1.31026 -0.00323443 0)
(1.09191 0.0646246 0)
(1.2 8.5268e-14 0)
(1.2 1.1438e-13 0)
(1.23645 -0.00187822 0)
(1.0805 0.0669923 0)
(1.2 2.83065e-13 0)
(1.2 1.08122e-13 0)
(1.2 -7.89837e-11 0)
(1.22219 0.0117972 0)
(1.2 -1.184e-13 0)
(1.22233 0.0120802 0)
(1.34701 -0.102461 0)
(1.15941 -0.00669451 0)
(1.22321 -0.0364378 0)
(1.2 7.62418e-14 0)
(1.2 -5.73058e-11 0)
(1.22374 -0.0378915 0)
(1.2 1.40045e-13 0)
(1.01945 0.0757663 0)
(1.17377 -0.0328932 0)
(1.03605 0.0723298 0)
(1.01148 0.0766801 0)
(1.2 -6.32502e-15 0)
(1.33349 -0.170595 0)
(1.03507 0.0725796 0)
(1.16779 -0.0321534 0)
(1.22311 -0.0392598 0)
(1.09433 0.0641153 0)
(1.2 1.18822e-13 0)
(1.31866 -0.0578734 0)
(1.04669 0.0713974 0)
(1.0694 0.068767 0)
(1.23527 0.000299012 0)
(1.2 -1.89818e-13 0)
(1.10081 0.0629518 0)
(1.04555 0.0719097 0)
(1.05972 0.0708193 0)
(1.20001 9.10129e-06 0)
(1.15805 -0.0210772 0)
(1.36095 -0.124885 0)
(1.2 -7.60816e-07 0)
(1.2 -7.58506e-12 0)
(1.28015 -0.0348064 0)
(1.05771 0.0708313 0)
(1.2 9.35151e-12 0)
(1.0836 0.0665816 0)
(1.21062 0.00389813 0)
(1.2 -6.47104e-14 0)
(1.2 3.80306e-15 0)
(1.30743 -0.0482941 0)
(1.0735 0.069767 0)
(1.23926 -0.00402788 0)
(1.12238 -0.0343498 0)
(1.05986 0.0702146 0)
(1.2034 -0.00360775 0)
(1.30691 -0.0579135 0)
(1.20021 0.000175523 0)
(1.07317 0.0682888 0)
(1.07169 0.0701235 0)
(1.14094 -0.00798338 0)
(1.24001 -0.0048141 0)
(1.2 -2.63599e-13 0)
(1.19269 0.00281005 0)
(1.20448 -0.00305171 0)
(1.19426 0.00169083 0)
(1.12477 0.0570219 0)
(1.2 -2.88393e-14 0)
(1.086 0.0676256 0)
(1.2 -7.75908e-14 0)
(1.2 -3.01671e-14 0)
(1.2 -3.10014e-15 0)
(1.08546 0.0659752 0)
(1.2 2.18656e-13 0)
(1.2 -2.92023e-14 0)
(1.25739 -0.0162574 0)
(1.15917 -0.00759017 0)
(1.2 3.88266e-13 0)
(1.25615 -0.0137329 0)
(1.08463 0.0680725 0)
(1.14926 -0.0193163 0)
(1.2215 0.0122154 0)
(1.2 -4.92817e-14 0)
(1.16784 -0.00763288 0)
(1.2 6.87409e-14 0)
(1.14885 -0.0209032 0)
(1.2 -3.91667e-14 0)
(1.2 1.35532e-13 0)
(1.2 1.4345e-13 0)
(1.2 1.91391e-13 0)
(1.2 2.14566e-13 0)
(1.1648 -0.00832546 0)
(1.2 5.38974e-13 0)
(1.2 -8.61615e-14 0)
(1.2 1.8091e-13 0)
(1.2 1.0706e-13 0)
(1.2 -6.82762e-14 0)
(1.2 -2.477e-13 0)
(1.16959 0.0042457 0)
(1.36352 -0.130002 0)
(1.2 -1.28664e-13 0)
(1.20447 0.018569 0)
(1.2 -1.4033e-13 0)
(1.2 2.27609e-13 0)
(1.2 1.59157e-13 0)
(1.15221 -0.0227255 0)
(1.26877 -0.0219611 0)
(1.33991 -0.101682 0)
(1.2 7.21676e-14 0)
(1.34112 -0.10394 0)
(1.21337 -0.0015844 0)
(1.2 1.44094e-13 0)
(1.2 -1.2837e-13 0)
(1.2 -1.1677e-13 0)
(1.19643 -0.00700425 0)
(1.2 -8.39051e-13 0)
(1.12107 0.0579639 0)
(1.2 -3.88549e-11 0)
(1.06346 0.0694755 0)
(1.28804 -0.0402139 0)
(1.32676 -0.0829662 0)
(1.2 1.22093e-13 0)
(1.2 6.97607e-07 0)
(1.2 2.13574e-13 0)
(1.2 7.59437e-16 0)
(1.2 5.55632e-07 0)
(1.2 4.81393e-14 0)
(1.04943 0.0709096 0)
(1.05287 0.0707799 0)
(1.15298 -0.0238122 0)
(1.06482 0.0691887 0)
(1.2 -3.97033e-14 0)
(1.2 -5.19561e-14 0)
(1.19947 -0.00043541 0)
(1.20002 -3.4614e-05 0)
(1.28339 -0.0357141 0)
(1.09055 0.0644612 0)
(1.2 2.92462e-14 0)
(1.08873 0.0634773 0)
(1.12986 0.0549626 0)
(1.2 -5.81065e-14 0)
(1.09768 0.0617314 0)
(1.2 8.89756e-15 0)
(1.25025 -0.0536766 0)
(1.24523 -0.0539354 0)
(1.2809 -0.0332234 0)
(1.09504 0.0656592 0)
(1.28472 -0.0391866 0)
(1.25068 -0.0567412 0)
(1.2 -1.37954e-14 0)