/*--------------------------------*- C++ -*----------------------------------*\
  =========                 |
  \\      /  F ield         | OpenFOAM: The Open Source CFD Toolbox
   \\    /   O peration     | Website:  https://openfoam.org
    \\  /    A nd           | Version:  12
     \\/     M anipulation  |
\*---------------------------------------------------------------------------*/
FoamFile
{
    format      ascii;
    class       volScalarField;
    location    "9.6";
    object      T;
}
// * * * * * * * * * * * * * * * * * * * * * * * * * * * * * * * * * * * * * //

dimensions      [0 0 0 1 0 0 0];

internalField   nonuniform List<scalar> 
9801
(
0.837163
0.838457
0.838747
0.83912
0.839558
0.840313
0.841261
0.84275
0.846034
0.850016
0.852317
0.853448
0.854175
0.854588
0.854881
0.855337
0.856071
0.857033
0.858388
0.861543
0.865768
0.868194
0.869379
0.870111
0.87043
0.870683
0.871188
0.871934
0.872909
0.874265
0.87758
0.881938
0.884375
0.885592
0.886236
0.886361
0.886524
0.887049
0.887868
0.888982
0.890515
0.894427
0.89897
0.901252
0.90224
0.902682
0.902624
0.902676
0.90324
0.904098
0.90523
0.907159
0.91213
0.917083
0.919192
0.920107
0.920059
0.919095
0.919081
0.919823
0.921001
0.922376
0.925556
0.931994
0.93651
0.938447
0.939529
0.93828
0.936365
0.936404
0.937387
0.939053
0.941374
0.947329
0.954575
0.958399
0.960304
0.961003
0.957817
0.955189
0.955535
0.957583
0.960507
0.967904
0.97827
0.98412
0.987312
0.989493
0.988402
0.982814
0.980429
0.983046
0.989154
1.00483
1.02206
1.03606
1.04372
1.13676
1.51591
0.84057
0.842169
0.8423
0.842263
0.842823
0.843782
0.844847
0.846617
0.850234
0.85334
0.855297
0.856638
0.857655
0.857948
0.857696
0.85818
0.859152
0.860273
0.861756
0.865141
0.868753
0.870931
0.872365
0.87344
0.873599
0.873085
0.873574
0.874598
0.875791
0.877226
0.88055
0.88457
0.886914
0.888363
0.889405
0.889193
0.888476
0.889037
0.890175
0.891506
0.89304
0.896703
0.901169
0.903633
0.904995
0.905957
0.905058
0.904137
0.904823
0.906071
0.907477
0.909401
0.914007
0.918814
0.921251
0.92265
0.923306
0.921306
0.920428
0.921361
0.922807
0.924312
0.927212
0.933527
0.93815
0.940388
0.941896
0.941563
0.938553
0.937864
0.939072
0.940944
0.943289
0.949253
0.956615
0.960517
0.962706
0.964166
0.961708
0.957553
0.957874
0.960119
0.96328
0.970197
0.979375
0.985172
0.98887
0.992275
0.993358
0.987877
0.984583
0.987557
0.993206
1.00401
1.01835
1.03147
1.03946
1.1361
1.53423
0.844078
0.845819
0.846091
0.845991
0.846465
0.847405
0.848532
0.850376
0.854108
0.857142
0.858893
0.860192
0.861285
0.86174
0.861431
0.861777
0.862682
0.863833
0.865363
0.868809
0.872391
0.87444
0.875863
0.877044
0.877422
0.87686
0.877174
0.878114
0.879319
0.880768
0.884041
0.888041
0.890345
0.891838
0.893048
0.893095
0.892315
0.892734
0.893777
0.895078
0.896552
0.900001
0.904484
0.907028
0.908585
0.909779
0.909135
0.908073
0.908625
0.909827
0.911298
0.913127
0.917393
0.922143
0.924693
0.926339
0.927402
0.925919
0.924639
0.925302
0.926751
0.928409
0.931133
0.936994
0.941716
0.944193
0.945992
0.946598
0.944119
0.942651
0.943567
0.945474
0.947768
0.953181
0.960385
0.964693
0.967324
0.969598
0.968917
0.964536
0.963666
0.965949
0.969017
0.974321
0.983718
0.991657
0.996485
1.00028
1.00268
0.998701
0.994806
0.997026
1.00282
1.01129
1.02538
1.03996
1.04916
1.14999
1.55136
0.848379
0.850196
0.850643
0.850568
0.85093
0.851797
0.852932
0.854917
0.858664
0.861654
0.86339
0.864656
0.865752
0.866385
0.866056
0.866267
0.867108
0.868263
0.869952
0.873498
0.877056
0.879112
0.880509
0.881693
0.882314
0.881713
0.881805
0.882624
0.883803
0.885383
0.888778
0.892871
0.895251
0.896755
0.898021
0.898406
0.897516
0.897636
0.898505
0.89974
0.90131
0.904836
0.909513
0.912211
0.91384
0.915185
0.915028
0.913793
0.914001
0.914978
0.916357
0.918209
0.922481
0.927551
0.930345
0.932103
0.933505
0.932709
0.930842
0.931072
0.932382
0.934088
0.936842
0.942654
0.947881
0.95073
0.952739
0.954123
0.952255
0.949629
0.950083
0.952068
0.954465
0.959177
0.966907
0.972273
0.975396
0.977927
0.978908
0.975062
0.972276
0.973777
0.976956
0.981164
0.989648
0.99909
1.00505
1.00916
1.01304
1.01229
1.00811
1.00729
1.01205
1.01912
1.03018
1.04366
1.05193
1.16515
1.566
0.853001
0.854835
0.85537
0.855357
0.855639
0.856477
0.857583
0.859625
0.863515
0.866525
0.868265
0.869545
0.870641
0.871339
0.871058
0.871179
0.872007
0.873132
0.874855
0.878568
0.882198
0.884288
0.885707
0.886897
0.887653
0.887144
0.887086
0.887895
0.889048
0.890569
0.893989
0.89827
0.900804
0.902369
0.903651
0.904313
0.903433
0.903276
0.904155
0.905397
0.906947
0.910366
0.915142
0.918078
0.919834
0.921252
0.921703
0.92033
0.920017
0.920987
0.922413
0.924258
0.928373
0.933653
0.936791
0.938738
0.940298
0.940417
0.938149
0.93755
0.938802
0.94059
0.943212
0.948727
0.954535
0.957828
0.95999
0.961791
0.961433
0.958136
0.957174
0.958877
0.961275
0.964965
0.972506
0.979424
0.983174
0.98582
0.988047
0.986386
0.981879
0.981045
0.9838
0.987585
0.994125
1.00402
1.01175
1.01694
1.02132
1.02383
1.02059
1.0177
1.01842
1.02373
1.03191
1.04333
1.05039
1.17365
1.57375
0.857984
0.859886
0.86051
0.860478
0.860595
0.861382
0.86246
0.864383
0.868405
0.871612
0.873404
0.874709
0.875829
0.876645
0.876449
0.876423
0.877179
0.878276
0.87985
0.883552
0.887418
0.889611
0.891077
0.892306
0.893216
0.892822
0.892529
0.893254
0.8944
0.895862
0.899136
0.903598
0.90634
0.908029
0.909386
0.910382
0.909686
0.908904
0.909564
0.910796
0.912365
0.915648
0.920551
0.923789
0.925776
0.927337
0.928449
0.927353
0.925852
0.926374
0.927804
0.929704
0.933649
0.939239
0.942777
0.944901
0.946592
0.947702
0.945958
0.943926
0.944399
0.94607
0.948343
0.953133
0.959842
0.964
0.966367
0.968321
0.969458
0.966588
0.963876
0.964372
0.966572
0.969453
0.975549
0.983859
0.98916
0.992283
0.994813
0.995394
0.990901
0.987897
0.988881
0.99208
0.996504
1.00481
1.01373
1.01986
1.02456
1.02896
1.02976
1.02602
1.02369
1.02516
1.02975
1.03918
1.04639
1.17915
1.57805
0.862609
0.864566
0.865309
0.865338
0.865296
0.865994
0.867037
0.868773
0.872719
0.876194
0.878102
0.879437
0.880576
0.881524
0.881467
0.881213
0.881851
0.882942
0.884458
0.888004
0.892083
0.894407
0.895904
0.897149
0.898207
0.898051
0.897331
0.897804
0.898944
0.900464
0.903673
0.908252
0.911169
0.912937
0.914339
0.915556
0.915448
0.914063
0.914103
0.915228
0.916815
0.920012
0.925113
0.928634
0.930662
0.932215
0.933571
0.933453
0.931348
0.930948
0.932161
0.933888
0.937331
0.943303
0.947554
0.949772
0.951412
0.952899
0.952454
0.94971
0.949015
0.950233
0.952162
0.95553
0.962476
0.968159
0.971164
0.973158
0.974809
0.973457
0.969655
0.968755
0.970294
0.972688
0.976531
0.984604
0.99194
0.995988
0.99878
1.00096
0.999339
0.994471
0.992961
0.994608
0.997871
1.00346
1.01255
1.02026
1.02581
1.03025
1.03378
1.03291
1.02896
1.02656
1.02779
1.03324
1.04129
1.18198
1.58071
0.866758
0.868757
0.869556
0.869691
0.869534
0.870159
0.871167
0.872671
0.87633
0.880029
0.882113
0.883541
0.884732
0.885804
0.885986
0.885429
0.885822
0.88682
0.888177
0.891455
0.895839
0.898423
0.900009
0.901289
0.902453
0.902736
0.901674
0.901664
0.902624
0.90396
0.906824
0.911696
0.915015
0.91689
0.918322
0.919613
0.920157
0.918636
0.917987
0.918797
0.920163
0.922696
0.927974
0.932225
0.934438
0.93598
0.937361
0.937957
0.936019
0.934941
0.935656
0.937122
0.939385
0.944933
0.950491
0.953419
0.955151
0.956685
0.957197
0.954549
0.952769
0.953251
0.954922
0.957111
0.962564
0.969984
0.974234
0.976591
0.978432
0.978797
0.97517
0.972551
0.972813
0.974755
0.977233
0.98275
0.991646
0.997637
1.00107
1.00384
1.00544
1.00172
0.997007
0.996633
0.998874
1.00238
1.00908
1.01785
1.02452
1.02947
1.03365
1.03609
1.03469
1.03021
1.02717
1.02862
1.03441
1.18331
1.58225
0.870285
0.872317
0.873151
0.87341
0.873149
0.873667
0.874621
0.875915
0.879189
0.88319
0.885479
0.886968
0.888204
0.88931
0.889715
0.88901
0.889147
0.890023
0.891211
0.893866
0.898542
0.901617
0.903323
0.904636
0.905816
0.906431
0.905361
0.904938
0.905643
0.906811
0.908897
0.913747
0.917863
0.919986
0.921447
0.92274
0.923637
0.922451
0.921249
0.921686
0.92286
0.924573
0.929121
0.934412
0.937262
0.938925
0.940343
0.941414
0.940053
0.938189
0.938318
0.939486
0.941086
0.94491
0.951606
0.955799
0.957929
0.9595
0.960629
0.958851
0.955942
0.955651
0.956937
0.958691
0.961744
0.96925
0.975613
0.978767
0.980824
0.982371
0.980964
0.976579
0.975032
0.975888
0.977938
0.980922
0.988468
0.997233
1.00225
1.00526
1.00774
1.00805
1.00324
0.999584
0.999953
1.00234
1.00625
1.01374
1.02175
1.02754
1.03198
1.03594
1.03734
1.03543
1.03023
1.02631
1.02645
1.18152
1.58312
0.873138
0.875173
0.876033
0.876416
0.876053
0.876411
0.877291
0.878442
0.881231
0.885617
0.888257
0.889779
0.890991
0.892073
0.892651
0.89194
0.891819
0.892575
0.893664
0.895588
0.900166
0.903959
0.9059
0.907246
0.90842
0.909276
0.908461
0.907549
0.908046
0.909106
0.910569
0.914574
0.919603
0.922312
0.923871
0.925159
0.926241
0.925642
0.923933
0.923965
0.924925
0.926267
0.929269
0.935224
0.939203
0.941192
0.942622
0.943882
0.943482
0.940997
0.940345
0.941153
0.942559
0.944751
0.950862
0.956922
0.959858
0.961606
0.963086
0.962994
0.959643
0.957941
0.958426
0.959843
0.961715
0.966662
0.975031
0.980066
0.982704
0.984682
0.985764
0.982041
0.977727
0.977301
0.978783
0.980983
0.984796
0.993488
1.00132
1.00552
1.0083
1.01077
1.01053
1.0052
1.00204
1.0028
1.00547
1.01003
1.01783
1.02482
1.02989
1.03416
1.03763
1.0381
1.03519
1.02851
1.02204
1.1764
1.58355
0.875459
0.877495
0.87837
0.878859
0.878381
0.878555
0.879359
0.880431
0.882627
0.887169
0.890353
0.892
0.893215
0.894287
0.895041
0.894436
0.893958
0.894543
0.895545
0.896942
0.900822
0.905431
0.907833
0.909275
0.910474
0.911502
0.911204
0.909826
0.90993
0.91085
0.912072
0.914751
0.920229
0.92393
0.925777
0.927106
0.92829
0.928464
0.926514
0.925782
0.926488
0.927696
0.929508
0.934734
0.940272
0.94297
0.944528
0.945861
0.94644
0.944076
0.942212
0.94257
0.943771
0.945305
0.949043
0.956453
0.961141
0.963435
0.965048
0.966205
0.96424
0.960503
0.959701
0.960606
0.962263
0.964772
0.971925
0.979912
0.983834
0.985999
0.987738
0.987951
0.983335
0.97991
0.979975
0.981419
0.983699
0.988652
0.997889
1.00492
1.00883
1.0116
1.01364
1.0123
1.00711
1.00458
1.00555
1.00841
1.01363
1.02157
1.02785
1.03232
1.03616
1.03838
1.03811
1.03276
1.02284
1.1699
1.58395
0.8774
0.879469
0.88034
0.880919
0.880387
0.880353
0.88108
0.882108
0.883744
0.887961
0.891895
0.893831
0.895084
0.89616
0.89705
0.896746
0.895873
0.896185
0.897084
0.898242
0.901023
0.906162
0.909364
0.911003
0.91223
0.913326
0.913631
0.912109
0.911606
0.912329
0.913453
0.915129
0.919931
0.924936
0.927389
0.928825
0.930045
0.93084
0.929298
0.927618
0.927905
0.928948
0.930305
0.933556
0.940119
0.944256
0.946259
0.947631
0.948778
0.947687
0.944698
0.944031
0.944833
0.946202
0.948156
0.954113
0.961319
0.964873
0.966903
0.968454
0.968703
0.964686
0.961674
0.96178
0.96308
0.964845
0.968325
0.97684
0.983743
0.986929
0.989185
0.99115
0.990205
0.984541
0.981682
0.982278
0.984147
0.986723
0.992602
1.00166
1.00787
1.01142
1.01412
1.0161
1.01448
1.00919
1.00683
1.00795
1.01096
1.01687
1.0247
1.03027
1.03431
1.03749
1.03874
1.03644
1.02774
1.16451
1.58447
0.879055
0.881228
0.88209
0.882792
0.882348
0.882064
0.882672
0.883637
0.884873
0.888204
0.892845
0.895359
0.896758
0.897875
0.898858
0.898997
0.897816
0.897711
0.898492
0.899579
0.901414
0.906241
0.910476
0.912519
0.913828
0.914964
0.915767
0.91463
0.913371
0.91375
0.914757
0.916022
0.919195
0.925109
0.928637
0.930392
0.93168
0.932801
0.932343
0.929923
0.929374
0.930165
0.931369
0.933116
0.938544
0.944715
0.947616
0.949251
0.950605
0.951181
0.948313
0.945839
0.945979
0.947093
0.948598
0.951701
0.959413
0.965375
0.968002
0.969668
0.971089
0.970389
0.965879
0.963682
0.963989
0.965278
0.967217
0.972152
0.981545
0.987615
0.990385
0.992259
0.993676
0.991754
0.986406
0.984274
0.984968
0.986783
0.989604
0.996448
1.00521
1.01082
1.01423
1.01693
1.01842
1.01621
1.01097
1.00873
1.00986
1.01291
1.01943
1.02705
1.03211
1.03569
1.03796
1.03798
1.03353
1.16224
1.58533
0.880476
0.882848
0.883734
0.884596
0.884481
0.883873
0.88422
0.885065
0.886113
0.888357
0.893248
0.896657
0.898323
0.89949
0.90051
0.901077
0.899978
0.899329
0.899937
0.900968
0.902267
0.905843
0.911067
0.913879
0.915371
0.916558
0.917608
0.917313
0.915473
0.91523
0.916048
0.917189
0.918955
0.924227
0.929453
0.9319
0.933306
0.934507
0.935117
0.932977
0.931158
0.931426
0.932425
0.933745
0.936723
0.943708
0.948634
0.950945
0.952443
0.953678
0.952678
0.948864
0.947547
0.948185
0.949462
0.951098
0.955763
0.964063
0.968842
0.971192
0.972952
0.974283
0.971803
0.966793
0.965383
0.966286
0.967882
0.96999
0.976024
0.985285
0.99026
0.99274
0.994991
0.996677
0.993925
0.988322
0.986526
0.987526
0.989579
0.99277
1.0001
1.00822
1.01329
1.01655
1.01916
1.02046
1.01781
1.01236
1.01018
1.01128
1.01428
1.02108
1.02842
1.03309
1.03628
1.03759
1.0377
1.16365
1.58665
0.881655
0.884392
0.885361
0.886349
0.886736
0.885878
0.885746
0.886434
0.88743
0.888932
0.893179
0.897591
0.899737
0.901006
0.902065
0.90295
0.902481
0.901265
0.901481
0.902357
0.903436
0.905521
0.910857
0.914945
0.916883
0.918161
0.919301
0.919867
0.918123
0.916911
0.917371
0.918387
0.919635
0.922906
0.929274
0.933037
0.934848
0.936131
0.937284
0.936613
0.933677
0.932873
0.93361
0.934786
0.936315
0.941183
0.948392
0.952028
0.953856
0.955235
0.956216
0.953796
0.950157
0.949505
0.950259
0.951612
0.95373
0.960295
0.968401
0.972249
0.974142
0.975563
0.976546
0.973344
0.968858
0.967907
0.968569
0.970018
0.972453
0.979834
0.989032
0.993743
0.996085
0.997971
0.998881
0.995672
0.990675
0.989182
0.990043
0.991943
0.995544
1.00356
1.01118
1.01577
1.01881
1.02122
1.02222
1.01916
1.01355
1.01129
1.01224
1.015
1.02187
1.029
1.03366
1.03588
1.03961
1.16867
1.58848
0.88268
0.885918
0.88697
0.888018
0.888787
0.888135
0.8874
0.887881
0.888815
0.889951
0.892856
0.897959
0.900963
0.902485
0.903647
0.904703
0.905065
0.903615
0.903061
0.903643
0.904632
0.905955
0.909986
0.915528
0.918325
0.919786
0.920941
0.921942
0.921193
0.919032
0.918778
0.919587
0.92071
0.922366
0.927674
0.933582
0.936325
0.93783
0.939066
0.939763
0.937343
0.934906
0.934914
0.935797
0.937026
0.939209
0.945925
0.952334
0.955222
0.957017
0.958426
0.958593
0.954485
0.951453
0.95153
0.952647
0.954048
0.956615
0.964418
0.971742
0.974943
0.977048
0.978868
0.979318
0.974619
0.970216
0.969743
0.970997
0.972717
0.975447
0.98338
0.991898
0.995924
0.998182
1.00037
1.00152
0.997863
0.99254
0.991062
0.992157
0.994362
0.998506
1.00671
1.01369
1.01793
1.02085
1.02306
1.02396
1.02042
1.01445
1.01201
1.01269
1.01511
1.02198
1.0292
1.03332
1.03956
1.17579
1.59067
0.883485
0.887387
0.888538
0.889626
0.89057
0.890561
0.889388
0.889434
0.890191
0.891166
0.892821
0.897621
0.901958
0.904019
0.905287
0.906397
0.907275
0.906312
0.90479
0.904978
0.905882
0.90701
0.909266
0.91504
0.919359
0.921312
0.92254
0.923664
0.924128
0.921952
0.920458
0.920837
0.921807
0.922987
0.925777
0.932606
0.937298
0.939393
0.940711
0.941914
0.94156
0.938075
0.936433
0.93687
0.937914
0.939263
0.942723
0.950587
0.955871
0.958122
0.959632
0.960965
0.960406
0.955963
0.953617
0.953715
0.95462
0.956152
0.959768
0.968695
0.975387
0.978195
0.979799
0.981161
0.981257
0.976561
0.972796
0.972466
0.973321
0.974865
0.978035
0.986708
0.994876
0.998766
1.00096
1.00272
1.00335
0.999804
0.994905
0.99342
0.994229
0.996252
1.00088
1.00945
1.0162
1.02018
1.02279
1.02471
1.02538
1.02165
1.01533
1.01235
1.01259
1.01463
1.02192
1.02863
1.03722
1.18357
1.59281
0.883948
0.888709
0.890087
0.891237
0.892244
0.892855
0.89173
0.890996
0.891458
0.892367
0.89354
0.896899
0.902432
0.905444
0.906927
0.908034
0.909041
0.909034
0.907059
0.906499
0.907196
0.908236
0.909506
0.913508
0.919559
0.922617
0.924157
0.925323
0.926367
0.925495
0.92277
0.922197
0.922909
0.924001
0.925414
0.930048
0.937081
0.940631
0.942436
0.94367
0.944627
0.942572
0.938944
0.938244
0.939029
0.940186
0.94165
0.946447
0.954589
0.958937
0.961065
0.96271
0.963995
0.961935
0.956765
0.955009
0.955784
0.95715
0.958698
0.962797
0.971942
0.977752
0.980317
0.98242
0.984176
0.983628
0.978099
0.974315
0.974205
0.975556
0.977401
0.980872
0.98953
0.997039
1.00055
1.00278
1.0049
1.00586
1.00202
0.99658
0.994875
0.995812
0.997981
1.00305
1.01177
1.01824
1.02197
1.02443
1.0262
1.02675
1.02285
1.01602
1.0122
1.01178
1.01393
1.02119
1.03222
1.19036
1.59429
0.88408
0.889797
0.891632
0.892844
0.893869
0.894765
0.894235
0.892738
0.892819
0.893652
0.894701
0.896605
0.901906
0.906367
0.90837
0.909577
0.910649
0.911417
0.910029
0.908358
0.908533
0.909381
0.91046
0.912408
0.918293
0.923444
0.925681
0.926948
0.928077
0.928609
0.926099
0.923932
0.924126
0.925129
0.926296
0.928226
0.934562
0.940856
0.943569
0.945168
0.9464
0.946857
0.943565
0.940487
0.940264
0.941034
0.94222
0.944145
0.95056
0.958376
0.96199
0.963743
0.964997
0.966018
0.963495
0.958854
0.957567
0.95797
0.959018
0.960721
0.966001
0.975547
0.981062
0.98333
0.984802
0.986114
0.985459
0.980291
0.976884
0.976712
0.977667
0.979325
0.983257
0.992663
0.999988
1.00331
1.00528
1.00695
1.00749
1.00376
0.9985
0.996656
0.997315
0.999294
1.00465
1.01367
1.0202
1.02373
1.02582
1.0273
1.0277
1.02399
1.01659
1.01144
1.01049
1.01251
1.02493
1.19459
1.59503
0.884061
0.890364
0.893043
0.8944
0.895436
0.896396
0.896617
0.894949
0.894351
0.894984
0.895961
0.897157
0.900693
0.906518
0.909613
0.911139
0.912255
0.913273
0.913149
0.910769
0.909924
0.910537
0.91157
0.912772
0.916184
0.922903
0.926743
0.928515
0.929651
0.930727
0.930087
0.926781
0.925659
0.926244
0.927256
0.928434
0.931388
0.938872
0.944164
0.946502
0.948053
0.949273
0.948712
0.944221
0.941805
0.942205
0.943375
0.9446
0.946761
0.954086
0.961295
0.964386
0.966312
0.967972
0.968773
0.964905
0.959992
0.959028
0.960082
0.961538
0.963264
0.968857
0.977989
0.982765
0.985038
0.98708
0.988754
0.987779
0.982213
0.978656
0.978587
0.979957
0.981879
0.986086
0.995175
1.00175
1.00479
1.00686
1.00888
1.00981
1.00583
1.00005
0.997973
0.9986
1.00053
1.00593
1.01502
1.02147
1.02477
1.02669
1.0281
1.02837
1.02494
1.01701
1.01049
1.00773
1.0156
1.1935
1.59483
0.884252
0.890006
0.89401
0.895833
0.896957
0.89796
0.898705
0.897634
0.896138
0.896339
0.897179
0.898209
0.90003
0.905424
0.910394
0.912583
0.913785
0.914826
0.915596
0.913981
0.911795
0.911832
0.912713
0.913792
0.915274
0.920407
0.92683
0.929717
0.93124
0.93236
0.933159
0.930971
0.927802
0.927383
0.928193
0.929325
0.930681
0.93501
0.942828
0.947121
0.94902
0.950394
0.951527
0.950247
0.945838
0.944136
0.944438
0.945274
0.94658
0.949551
0.957803
0.964533
0.967338
0.968835
0.969974
0.970572
0.966852
0.962566
0.961734
0.96221
0.963286
0.965205
0.971734
0.981025
0.985732
0.987788
0.989252
0.990627
0.989952
0.984855
0.981357
0.981005
0.98174
0.98333
0.988055
0.997579
1.00417
1.00727
1.00922
1.0109
1.01153
1.00777
1.00193
0.999454
0.999777
1.00138
1.00658
1.01588
1.02239
1.02547
1.02722
1.02856
1.02881
1.02564
1.01719
1.00853
1.00751
1.18708
1.59362
0.884954
0.888917
0.894394
0.897147
0.89849
0.899481
0.900383
0.900364
0.898423
0.897811
0.898455
0.899446
0.900568
0.903694
0.909911
0.913544
0.915217
0.916322
0.917357
0.917364
0.914662
0.913392
0.913855
0.914782
0.915883
0.918127
0.924745
0.930288
0.932623
0.933939
0.935036
0.935153
0.931629
0.929183
0.929367
0.930359
0.931474
0.932989
0.938494
0.946135
0.949789
0.951657
0.953145
0.954204
0.951666
0.94683
0.945531
0.946381
0.94764
0.948929
0.952139
0.960661
0.966709
0.969252
0.971176
0.972808
0.973144
0.968672
0.964
0.963148
0.964202
0.965691
0.967698
0.974181
0.98287
0.987189
0.989496
0.991555
0.993154
0.992251
0.986626
0.982504
0.982062
0.98333
0.985311
0.990403
0.999674
1.00587
1.00882
1.01086
1.01281
1.01374
1.00976
1.00331
1.00042
1.00063
1.00217
1.00719
1.01637
1.02279
1.02575
1.0275
1.02887
1.02899
1.02589
1.01521
1.00588
1.17635
1.59244
0.886109
0.888312
0.893601
0.897938
0.899807
0.900888
0.901869
0.90265
0.901483
0.899743
0.899845
0.900639
0.901608
0.902997
0.90779
0.913771
0.916471
0.917829
0.918886
0.919782
0.918411
0.915539
0.915093
0.915861
0.916926
0.918087
0.921353
0.928705
0.933289
0.935313
0.936615
0.937694
0.936747
0.932716
0.93104
0.931398
0.932266
0.933411
0.935437
0.942157
0.949312
0.952438
0.95403
0.955239
0.956102
0.953331
0.949083
0.948083
0.948449
0.949329
0.950776
0.954908
0.963891
0.969732
0.972079
0.973407
0.974621
0.975109
0.971068
0.96669
0.965799
0.966248
0.967349
0.969431
0.976614
0.985669
0.990027
0.991966
0.993278
0.994672
0.99429
0.989136
0.985013
0.984287
0.984998
0.986698
0.991917
1.00153
1.00805
1.01107
1.01287
1.01444
1.0152
1.01172
1.00521
1.00177
1.00156
1.00282
1.00735
1.01642
1.02284
1.02579
1.02765
1.02888
1.029
1.02388
1.01245
1.16665
1.59191
0.887369
0.888775
0.89186
0.897689
0.900853
0.902367
0.903423
0.904424
0.904652
0.902468
0.901334
0.901754
0.902648
0.903679
0.905868
0.912076
0.917084
0.919202
0.920361
0.921422
0.921865
0.919119
0.916906
0.917051
0.917865
0.918875
0.920223
0.924825
0.932351
0.936225
0.938055
0.939299
0.9402
0.938004
0.933682
0.932547
0.933325
0.934473
0.935607
0.937892
0.945327
0.951965
0.95476
0.956506
0.958038
0.958683
0.954801
0.950193
0.949382
0.950374
0.951676
0.953101
0.957323
0.966155
0.971398
0.973718
0.975655
0.977243
0.977514
0.972966
0.968139
0.96712
0.968121
0.969633
0.971879
0.978804
0.987104
0.991128
0.993457
0.995539
0.997139
0.996717
0.991258
0.986481
0.985457
0.986449
0.988357
0.99344
1.00274
1.0091
1.01211
1.01424
1.01619
1.01728
1.01392
1.00674
1.00261
1.00212
1.00323
1.00731
1.01607
1.0225
1.02561
1.02758
1.02885
1.02774
1.02257
1.16259
1.59238
0.88858
0.889668
0.890996
0.895887
0.901377
0.903784
0.905007
0.906017
0.906905
0.905914
0.903423
0.903062
0.903769
0.904735
0.905811
0.909031
0.915986
0.920099
0.921922
0.92303
0.924047
0.923384
0.91979
0.918326
0.918806
0.919825
0.920945
0.922655
0.928458
0.93555
0.938784
0.940471
0.941715
0.942351
0.939386
0.935564
0.934876
0.935392
0.936304
0.937548
0.940605
0.948698
0.954875
0.95743
0.958817
0.959899
0.960406
0.956807
0.952786
0.952027
0.952397
0.953285
0.954812
0.959856
0.969051
0.974236
0.976302
0.97756
0.978769
0.979269
0.975377
0.970856
0.969773
0.970158
0.971189
0.97329
0.980731
0.989682
0.994012
0.995989
0.997479
0.998903
0.998639
0.993442
0.988567
0.987324
0.987893
0.989358
0.993939
1.0037
1.01101
1.01436
1.01617
1.01769
1.01843
1.01553
1.00836
1.00351
1.00258
1.00347
1.00696
1.01535
1.02189
1.02525
1.02754
1.02794
1.02927
1.16457
1.59379
0.889731
0.890655
0.891597
0.894068
0.900356
0.904669
0.906497
0.907553
0.908529
0.909005
0.906705
0.904792
0.904919
0.905645
0.906599
0.907983
0.912687
0.919695
0.923047
0.924599
0.925613
0.926434
0.924386
0.920808
0.920173
0.920923
0.921964
0.923008
0.924961
0.931691
0.938418
0.941333
0.942979
0.944283
0.944597
0.94065
0.936757
0.936371
0.937394
0.938591
0.939772
0.942987
0.951256
0.9569
0.959269
0.961061
0.962609
0.962966
0.958687
0.954131
0.95327
0.954225
0.955541
0.957064
0.962063
0.97074
0.975413
0.977633
0.979576
0.9812
0.981631
0.977642
0.972609
0.971035
0.971783
0.973253
0.975545
0.982593
0.991053
0.995186
0.997332
0.999132
1.00087
1.00087
0.995643
0.990192
0.988508
0.989244
0.990908
0.995221
1.00441
1.01162
1.01505
1.01708
1.01875
1.01976
1.01725
1.00986
1.00428
1.00291
1.00355
1.00632
1.0142
1.02097
1.0251
1.02651
1.0323
1.17117
1.59585
0.891117
0.891701
0.89261
0.893882
0.897925
0.904389
0.9076
0.909081
0.910073
0.911007
0.910457
0.907305
0.906152
0.906682
0.907647
0.908664
0.91045
0.9164
0.922886
0.925725
0.927233
0.928318
0.928675
0.925371
0.922346
0.922107
0.922749
0.92372
0.924923
0.927576
0.934985
0.941108
0.943683
0.945185
0.946367
0.946415
0.942459
0.939197
0.93885
0.939308
0.940195
0.941556
0.945562
0.954123
0.959647
0.961921
0.963211
0.964323
0.964856
0.961183
0.95687
0.955881
0.956163
0.956969
0.958542
0.964131
0.97318
0.978128
0.980177
0.981437
0.982748
0.983702
0.980492
0.975324
0.973527
0.973651
0.974492
0.976485
0.983796
0.992845
0.997399
0.999526
1.0011
1.00258
1.00302
0.998561
0.992758
0.990571
0.990722
0.991803
0.995111
1.00423
1.0124
1.01645
1.0185
1.01985
1.02058
1.01882
1.01167
1.0052
1.00309
1.00322
1.00532
1.01286
1.02025
1.02387
1.03293
1.1802
1.59814
0.892883
0.892918
0.89374
0.894722
0.896422
0.901966
0.907834
0.910323
0.911559
0.912507
0.913232
0.911214
0.908251
0.90796
0.908666
0.909589
0.91062
0.912962
0.919975
0.925949
0.928463
0.92988
0.930891
0.930523
0.926313
0.923627
0.9238
0.924827
0.925929
0.927035
0.929961
0.937826
0.943524
0.945917
0.947511
0.948892
0.948718
0.943965
0.940333
0.940171
0.941216
0.942429
0.943704
0.947651
0.95612
0.961289
0.963564
0.96541
0.966907
0.967344
0.963247
0.958241
0.956925
0.957749
0.959086
0.960857
0.96609
0.974491
0.9792
0.981612
0.983671
0.985288
0.986072
0.982744
0.976935
0.974438
0.974791
0.976181
0.978413
0.985194
0.993928
0.998649
1.00115
1.00326
1.00489
1.00534
1.00081
0.994231
0.991319
0.991433
0.9928
0.995972
1.00442
1.01273
1.01709
1.01931
1.02072
1.02155
1.02026
1.0134
1.00603
1.00293
1.00254
1.00397
1.01168
1.01849
1.03064
1.18956
1.60019
0.895288
0.89435
0.894956
0.895859
0.896824
0.899181
0.905763
0.91084
0.912924
0.914061
0.915001
0.915056
0.911773
0.909514
0.909636
0.910484
0.911507
0.912697
0.915841
0.923329
0.928584
0.930823
0.932256
0.933263
0.932218
0.927839
0.925837
0.926024
0.926644
0.927628
0.928968
0.932741
0.940831
0.946061
0.948244
0.949528
0.950532
0.950344
0.946162
0.943016
0.942689
0.943087
0.943931
0.945355
0.949944
0.958786
0.964023
0.9661
0.967258
0.968275
0.969024
0.96577
0.960996
0.959638
0.959927
0.960728
0.962252
0.96752
0.976638
0.981956
0.984143
0.985367
0.98659
0.98781
0.985409
0.979578
0.976859
0.976728
0.977559
0.979336
0.985821
0.995426
1.00099
1.00332
1.00468
1.0059
1.00679
1.00348
0.996883
0.993439
0.993011
0.993807
0.995944
1.00385
1.01304
1.01808
1.02025
1.02127
1.02184
1.02106
1.01509
1.00696
1.00248
1.00126
1.00273
1.0098
1.02477
1.197
1.60138
0.898413
0.896283
0.896243
0.896912
0.89777
0.898884
0.902192
0.909316
0.913676
0.915503
0.916475
0.917356
0.916454
0.912624
0.911184
0.911671
0.912621
0.913621
0.914788
0.91836
0.926196
0.93115
0.933272
0.934652
0.93561
0.933968
0.929108
0.927085
0.927614
0.928754
0.929879
0.931081
0.935035
0.943194
0.947987
0.950024
0.951647
0.953004
0.952741
0.948
0.944234
0.943862
0.944869
0.946113
0.94748
0.951921
0.960444
0.965242
0.967384
0.969175
0.970623
0.971285
0.968064
0.962856
0.960912
0.96147
0.962742
0.96439
0.969092
0.977601
0.982705
0.985269
0.987401
0.989054
0.990124
0.987729
0.981601
0.978152
0.97793
0.979089
0.980905
0.986455
0.995554
1.00113
1.0039
1.00616
1.0079
1.00883
1.00582
0.998714
0.994337
0.993548
0.99446
0.996514
1.00363
1.0128
1.01804
1.02024
1.02134
1.02209
1.02178
1.01688
1.00817
1.00174
0.999763
1.00055
1.01625
1.20048
1.60176
0.901581
0.899298
0.897718
0.898106
0.898969
0.899868
0.901068
0.905001
0.912232
0.916183
0.917983
0.919087
0.919863
0.917723
0.913972
0.913116
0.913589
0.914375
0.915427
0.91687
0.921173
0.92897
0.93343
0.935347
0.936659
0.937518
0.935626
0.931194
0.929652
0.929925
0.930525
0.931519
0.932985
0.937683
0.945871
0.950502
0.952415
0.953543
0.954497
0.954503
0.950485
0.946943
0.946391
0.946732
0.947528
0.948975
0.953902
0.96279
0.967825
0.969809
0.970945
0.971994
0.97305
0.97073
0.965607
0.963492
0.963484
0.964053
0.965378
0.970027
0.979399
0.985421
0.987875
0.989228
0.990397
0.991717
0.990359
0.984428
0.980441
0.979691
0.980192
0.981485
0.986118
0.996089
1.00328
1.0063
1.00783
1.009
1.00999
1.00813
1.00154
0.996423
0.994941
0.995212
0.996355
1.00243
1.01234
1.01833
1.0206
1.02156
1.02236
1.0224
1.01856
1.00931
1.00134
0.996815
1.00561
1.19774
1.60068
0.903931
0.90357
0.900298
0.899627
0.90013
0.900824
0.901576
0.902869
0.907678
0.915219
0.918917
0.920586
0.92163
0.922072
0.918957
0.915304
0.91476
0.91558
0.916646
0.917625
0.91885
0.923409
0.931317
0.935515
0.93738
0.938789
0.939836
0.937766
0.932791
0.930914
0.931489
0.932626
0.933756
0.935054
0.939622
0.947617
0.951926
0.9539
0.955564
0.95697
0.957043
0.952708
0.948354
0.947496
0.948363
0.949593
0.951133
0.955754
0.963986
0.968729
0.970989
0.972829
0.974393
0.975417
0.973103
0.967472
0.964548
0.964649
0.96583
0.967462
0.971691
0.980219
0.985979
0.98878
0.990985
0.992761
0.994044
0.992709
0.986485
0.981642
0.980598
0.981555
0.983168
0.987217
0.996256
1.00336
1.00666
1.00883
1.01062
1.01182
1.01034
1.00342
0.997235
0.995074
0.995377
0.99665
1.0023
1.0121
1.01835
1.02068
1.02163
1.02247
1.02259
1.01965
1.01023
0.999114
0.998426
1.18836
1.59854
0.905758
0.907058
0.90437
0.901347
0.900856
0.901451
0.902378
0.903369
0.905063
0.91077
0.917935
0.921241
0.922919
0.924112
0.924285
0.920661
0.917497
0.917157
0.917533
0.918145
0.919164
0.920791
0.926127
0.93381
0.937711
0.939458
0.940657
0.9415
0.9397
0.935328
0.933661
0.933815
0.93427
0.935198
0.936701
0.941652
0.949794
0.954331
0.956248
0.957362
0.958453
0.959063
0.955546
0.951175
0.950111
0.950381
0.951077
0.952446
0.956991
0.965627
0.971096
0.973388
0.974629
0.975767
0.977114
0.975904
0.97051
0.967341
0.966955
0.967368
0.968488
0.972062
0.981033
0.988182
0.991319
0.992839
0.99388
0.995304
0.99522
0.989873
0.984628
0.983051
0.983172
0.984056
0.986888
0.995838
1.00464
1.00878
1.01046
1.01149
1.01241
1.01187
1.00611
0.99945
0.996552
0.996225
0.996949
1.00139
1.01121
1.01781
1.02017
1.02132
1.02242
1.0226
1.02014
1.00858
0.998671
1.1754
1.597
0.907276
0.908948
0.908599
0.904813
0.902341
0.902481
0.903341
0.904318
0.905299
0.907099
0.913458
0.92061
0.923791
0.925365
0.926549
0.926412
0.922178
0.918603
0.918271
0.919148
0.920186
0.921216
0.922781
0.928345
0.935937
0.939581
0.941317
0.942799
0.943891
0.942047
0.937001
0.93471
0.935062
0.936119
0.937283
0.938638
0.943186
0.951217
0.955659
0.95775
0.959508
0.960891
0.961401
0.9578
0.952777
0.951169
0.951785
0.952987
0.954501
0.958391
0.966391
0.971838
0.974523
0.976696
0.97833
0.979488
0.978293
0.972678
0.968531
0.967893
0.96887
0.970348
0.973388
0.981258
0.988249
0.991775
0.994369
0.99649
0.997885
0.997786
0.992502
0.986183
0.983788
0.984143
0.985481
0.988028
0.995641
1.00421
1.00848
1.01066
1.01261
1.014
1.01398
1.00866
1.00086
0.996772
0.99611
0.996901
1.00069
1.01005
1.01688
1.01956
1.02106
1.02228
1.02276
1.01831
1.00851
1.16544
1.59641
0.907908
0.910363
0.91109