/*--------------------------------*- C++ -*----------------------------------*\
  =========                 |
  \\      /  F ield         | OpenFOAM: The Open Source CFD Toolbox
   \\    /   O peration     | Website:  https://openfoam.org
    \\  /    A nd           | Version:  12
     \\/     M anipulation  |
\*---------------------------------------------------------------------------*/
FoamFile
{
    format      ascii;
    class       volVectorField;
    location    "9.6";
    object      U;
}
// * * * * * * * * * * * * * * * * * * * * * * * * * * * * * * * * * * * * * //

dimensions      [0 1 -1 0 0 0 0];

internalField   nonuniform List<vector> 
9801
(
(1.23457 -0.117518 0)
(1.22675 -0.112462 0)
(1.22259 -0.110323 0)
(1.21881 -0.108163 0)
(1.21769 -0.105178 0)
(1.22079 -0.101773 0)
(1.22194 -0.0992688 0)
(1.22027 -0.0970188 0)
(1.21733 -0.0948381 0)
(1.21368 -0.0925787 0)
(1.20932 -0.0902213 0)
(1.20308 -0.0868211 0)
(1.19604 -0.0836545 0)
(1.19145 -0.0814758 0)
(1.18752 -0.0795669 0)
(1.18573 -0.0769033 0)
(1.18886 -0.0735711 0)
(1.19066 -0.0708921 0)
(1.18927 -0.0686303 0)
(1.18636 -0.0664367 0)
(1.18259 -0.0643603 0)
(1.17815 -0.0619817 0)
(1.17071 -0.0587125 0)
(1.16338 -0.0560097 0)
(1.15864 -0.0540195 0)
(1.15459 -0.0522316 0)
(1.15233 -0.0496985 0)
(1.15524 -0.0464813 0)
(1.15754 -0.0437323 0)
(1.15631 -0.0415036 0)
(1.15333 -0.0393706 0)
(1.14935 -0.0374195 0)
(1.14472 -0.0352517 0)
(1.13609 -0.0321434 0)
(1.12787 -0.02963 0)
(1.12283 -0.0277377 0)
(1.11856 -0.0260961 0)
(1.11607 -0.0238582 0)
(1.11926 -0.0208268 0)
(1.12209 -0.0181198 0)
(1.12096 -0.0159853 0)
(1.11785 -0.0139111 0)
(1.11368 -0.0120681 0)
(1.10812 -0.00982956 0)
(1.09739 -0.0068779 0)
(1.08886 -0.00471154 0)
(1.08365 -0.00309544 0)
(1.07933 -0.00173064 0)
(1.0773 0.000439113 0)
(1.08154 0.00334056 0)
(1.0843 0.00599844 0)
(1.08251 0.00821818 0)
(1.0789 0.0102031 0)
(1.07433 0.0118794 0)
(1.06607 0.0143052 0)
(1.05307 0.0165627 0)
(1.04475 0.0180895 0)
(1.03958 0.019226 0)
(1.03516 0.0203902 0)
(1.03515 0.022712 0)
(1.04072 0.0258276 0)
(1.04245 0.0283583 0)
(1.03963 0.0306497 0)
(1.03523 0.0324411 0)
(1.02977 0.0341766 0)
(1.01621 0.036373 0)
(1.00076 0.0376675 0)
(0.992577 0.0385182 0)
(0.986781 0.0390761 0)
(0.983161 0.040108 0)
(0.988564 0.0427867 0)
(0.994609 0.0458772 0)
(0.993812 0.0483456 0)
(0.989275 0.0503737 0)
(0.983644 0.0517261 0)
(0.973978 0.0535137 0)
(0.952316 0.0547611 0)
(0.935177 0.0547202 0)
(0.926465 0.0547854 0)
(0.920025 0.0550546 0)
(0.921957 0.0566629 0)
(0.931029 0.059293 0)
(0.932092 0.0620734 0)
(0.927088 0.0645922 0)
(0.920115 0.0663333 0)
(0.909986 0.067859 0)
(0.884945 0.0683637 0)
(0.853162 0.0663652 0)
(0.834405 0.0646206 0)
(0.823219 0.0640159 0)
(0.821298 0.0631886 0)
(0.830987 0.062349 0)
(0.829473 0.0623494 0)
(0.816743 0.0614137 0)
(0.79631 0.0586539 0)
(0.75367 0.0527219 0)
(0.689485 0.0247614 0)
(0.274722 -0.0678245 0)
(-0.713241 -0.0456368 0)
(1.23443 -0.119334 0)
(1.2266 -0.114207 0)
(1.22225 -0.112067 0)
(1.21852 -0.110074 0)
(1.21749 -0.107169 0)
(1.22106 -0.103856 0)
(1.222 -0.101421 0)
(1.22002 -0.0991508 0)
(1.21697 -0.0968752 0)
(1.21329 -0.0945549 0)
(1.2089 -0.0919909 0)
(1.2028 -0.0886642 0)
(1.19593 -0.0856126 0)
(1.19112 -0.0833829 0)
(1.18723 -0.0815709 0)
(1.18531 -0.0789703 0)
(1.1888 -0.0754826 0)
(1.19066 -0.0727514 0)
(1.18906 -0.0704898 0)
(1.18604 -0.0683155 0)
(1.1823 -0.0662116 0)
(1.17786 -0.0638781 0)
(1.17071 -0.0608644 0)
(1.16323 -0.0582593 0)
(1.15821 -0.0561472 0)
(1.15418 -0.0542975 0)
(1.15174 -0.0517781 0)
(1.15503 -0.0483061 0)
(1.15753 -0.0454846 0)
(1.15615 -0.0432671 0)
(1.15304 -0.0411725 0)
(1.14909 -0.0392241 0)
(1.14447 -0.0370594 0)
(1.13606 -0.0341317 0)
(1.12769 -0.0317208 0)
(1.12241 -0.0297677 0)
(1.11818 -0.0281269 0)
(1.11557 -0.0259533 0)
(1.11906 -0.0227755 0)
(1.12208 -0.0199862 0)
(1.12081 -0.017802 0)
(1.11757 -0.0156975 0)
(1.11342 -0.0138072 0)
(1.1079 -0.011515 0)
(1.09744 -0.00885203 0)
(1.08866 -0.00683212 0)
(1.08325 -0.00518784 0)
(1.07892 -0.00384188 0)
(1.07668 -0.00167567 0)
(1.08121 0.00151686 0)
(1.08414 0.00435725 0)
(1.08233 0.00667138 0)
(1.07868 0.00866163 0)
(1.07414 0.0103479 0)
(1.06623 0.0125146 0)
(1.05326 0.0142979 0)
(1.0444 0.0156593 0)
(1.03898 0.0169817 0)
(1.0345 0.0181273 0)
(1.03397 0.0206887 0)
(1.03989 0.0242187 0)
(1.04201 0.0270818 0)
(1.03931 0.029462 0)
(1.03496 0.0311787 0)
(1.0297 0.0325887 0)
(1.01693 0.0341594 0)
(1.00091 0.0348459 0)
(0.991941 0.0355737 0)
(0.986051 0.0363141 0)
(0.981921 0.0372469 0)
(0.986021 0.0399345 0)
(0.992462 0.043909 0)
(0.992414 0.0468477 0)
(0.988297 0.0491588 0)
(0.982797 0.0503252 0)
(0.973872 0.0516526 0)
(0.952972 0.0519761 0)
(0.935005 0.051119 0)
(0.925492 0.0507049 0)
(0.918591 0.0505011 0)
(0.916806 0.0523539 0)
(0.925038 0.0591483 0)
(0.928477 0.0643448 0)
(0.92468 0.0666995 0)
(0.917508 0.0673945 0)
(0.908323 0.067208 0)
(0.886581 0.0650315 0)
(0.854081 0.0607783 0)
(0.833191 0.0570354 0)
(0.820858 0.054665 0)
(0.813387 0.0542204 0)
(0.816412 0.0627861 0)
(0.814893 0.0707914 0)
(0.803773 0.0708168 0)
(0.785821 0.0683083 0)
(0.746927 0.0633965 0)
(0.692267 0.0357773 0)
(0.277743 -0.0642121 0)
(-0.715814 -0.047919 0)
(1.23383 -0.116437 0)
(1.22619 -0.111352 0)
(1.22187 -0.109385 0)
(1.21808 -0.107589 0)
(1.21712 -0.104849 0)
(1.2211 -0.10141 0)
(1.22198 -0.0987505 0)
(1.21979 -0.0963913 0)
(1.21659 -0.0940924 0)
(1.21282 -0.091809 0)
(1.20842 -0.0893453 0)
(1.20238 -0.0861656 0)
(1.1958 -0.0831474 0)
(1.19096 -0.0808804 0)
(1.18704 -0.0791412 0)
(1.18471 -0.076783 0)
(1.18818 -0.0730309 0)
(1.19047 -0.0699936 0)
(1.18887 -0.0677556 0)
(1.18578 -0.0656822 0)
(1.18202 -0.0637028 0)
(1.17765 -0.0616452 0)
(1.17078 -0.058946 0)
(1.16291 -0.056242 0)
(1.15773 -0.053939 0)
(1.15366 -0.0520469 0)
(1.15089 -0.0497748 0)
(1.15399 -0.0460673 0)
(1.15703 -0.0428329 0)
(1.15576 -0.0405982 0)
(1.15261 -0.0386113 0)
(1.14867 -0.036784 0)
(1.14413 -0.0348501 0)
(1.13585 -0.0322755 0)
(1.12726 -0.0299697 0)
(1.1218 -0.0280047 0)
(1.11749 -0.0264144 0)
(1.11452 -0.0244679 0)
(1.11761 -0.0209777 0)
(1.121 -0.0176166 0)
(1.11993 -0.015208 0)
(1.11674 -0.0131043 0)
(1.11264 -0.0113388 0)
(1.10745 -0.00946535 0)
(1.09726 -0.00751175 0)
(1.08801 -0.00575961 0)
(1.08227 -0.00403615 0)
(1.07777 -0.00262625 0)
(1.07489 -0.000671383 0)
(1.07879 0.00317103 0)
(1.08232 0.00683189 0)
(1.08097 0.00927873 0)
(1.07749 0.0111998 0)
(1.07307 0.0126277 0)
(1.06618 0.0140392 0)
(1.05314 0.0146966 0)
(1.04315 0.0159014 0)
(1.03715 0.0175642 0)
(1.03239 0.0188516 0)
(1.03041 0.0213502 0)
(1.03609 0.0262651 0)
(1.03948 0.0299231 0)
(1.03727 0.0321218 0)
(1.03305 0.0335561 0)
(1.02806 0.0344446 0)
(1.01701 0.0349649 0)
(1.00042 0.0341757 0)
(0.989841 0.0346228 0)
(0.983202 0.0358642 0)
(0.978132 0.036769 0)
(0.978471 0.0405314 0)
(0.985906 0.0470451 0)
(0.987787 0.0505462 0)
(0.984211 0.052125 0)
(0.978881 0.0527693 0)
(0.971421 0.0532599 0)
(0.952848 0.0515534 0)
(0.932688 0.0488828 0)
(0.920906 0.0489649 0)
(0.913249 0.0497643 0)
(0.907923 0.0508629 0)
(0.913777 0.0565068 0)
(0.920375 0.0619194 0)
(0.917988 0.0631462 0)
(0.911273 0.0633741 0)
(0.902904 0.0636846 0)
(0.885084 0.0629864 0)
(0.853354 0.0577997 0)
(0.828994 0.0525139 0)
(0.814433 0.0499459 0)
(0.80428 0.0480127 0)
(0.803075 0.0485292 0)
(0.803527 0.0508353 0)
(0.795521 0.0484298 0)
(0.781023 0.0452164 0)
(0.750591 0.0407859 0)
(0.70789 0.017906 0)
(0.281012 -0.0721499 0)
(-0.719515 -0.0377917 0)
(1.23147 -0.114105 0)
(1.22366 -0.109399 0)
(1.21938 -0.107453 0)
(1.21558 -0.105554 0)
(1.21447 -0.102814 0)
(1.21859 -0.099236 0)
(1.21968 -0.0964002 0)
(1.21751 -0.0940255 0)
(1.21428 -0.0917857 0)
(1.21048 -0.0896374 0)
(1.20606 -0.0873653 0)
(1.19988 -0.0844727 0)
(1.19346 -0.0816316 0)
(1.18866 -0.0793214 0)
(1.18472 -0.0774964 0)
(1.18207 -0.0752901 0)
(1.18521 -0.0717439 0)
(1.18787 -0.0686034 0)
(1.18631 -0.06626 0)
(1.18317 -0.0641926 0)
(1.1794 -0.0622807 0)
(1.17508 -0.0603104 0)
(1.16832 -0.0575639 0)
(1.16052 -0.054815 0)
(1.15528 -0.0526379 0)
(1.15111 -0.0508671 0)
(1.14797 -0.0488839 0)
(1.15045 -0.0453217 0)
(1.15399 -0.0418268 0)
(1.15288 -0.0394349 0)
(1.14976 -0.0374463 0)
(1.1459 -0.0356783 0)
(1.14148 -0.0338748 0)
(1.13354 -0.0315167 0)
(1.12489 -0.0294155 0)
(1.11921 -0.027592 0)
(1.11474 -0.0260086 0)
(1.11122 -0.0242974 0)
(1.11325 -0.0206057 0)
(1.11722 -0.0166381 0)
(1.1165 -0.0141542 0)
(1.11339 -0.0122423 0)
(1.10941 -0.0106651 0)
(1.10468 -0.00911665 0)
(1.0952 -0.00743815 0)
(1.08538 -0.00591116 0)
(1.07913 -0.00420848 0)
(1.07432 -0.00257712 0)
(1.07057 -0.000895532 0)
(1.07305 0.00317214 0)
(1.07763 0.0075779 0)
(1.07685 0.00994404 0)
(1.07347 0.0114138 0)
(1.06921 0.0124269 0)
(1.06348 0.013517 0)
(1.05102 0.0143165 0)
(1.03975 0.0154283 0)
(1.03306 0.0170429 0)
(1.02785 0.018483 0)
(1.02427 0.0202805 0)
(1.02865 0.0247918 0)
(1.03338 0.0290147 0)
(1.03171 0.0312624 0)
(1.02777 0.0327184 0)
(1.0231 0.0337357 0)
(1.01429 0.034581 0)
(0.997579 0.0335628 0)
(0.985017 0.0334894 0)
(0.977411 0.0349823 0)
(0.971829 0.0361138 0)
(0.969156 0.038213 0)
(0.975847 0.0440223 0)
(0.979653 0.0487033 0)
(0.976655 0.0507779 0)
(0.971589 0.0519273 0)
(0.965436 0.0526379 0)
(0.950867 0.0512146 0)
(0.928867 0.0468141 0)
(0.914553 0.0452959 0)
(0.906126 0.0461397 0)
(0.899449 0.0465508 0)
(0.899537 0.050284 0)
(0.907163 0.0593036 0)
(0.907281 0.0651444 0)
(0.901643 0.0672212 0)
(0.894177 0.0674353 0)
(0.881662 0.0664288 0)
(0.854286 0.0583183 0)
(0.826025 0.0481458 0)
(0.808289 0.042597 0)
(0.796492 0.0412099 0)
(0.788526 0.0423732 0)
(0.786296 0.0472703 0)
(0.780107 0.046309 0)
(0.768163 0.041766 0)
(0.746934 0.0366054 0)
(0.724809 0.014652 0)
(0.288249 -0.066476 0)
(-0.723863 -0.0322778 0)
(1.22827 -0.111171 0)
(1.22012 -0.106741 0)
(1.21578 -0.104851 0)
(1.21189 -0.102943 0)
(1.21028 -0.100271 0)
(1.21426 -0.0965119 0)
(1.21576 -0.0934885 0)
(1.21384 -0.0910287 0)
(1.21078 -0.0887258 0)
(1.20709 -0.0866378 0)
(1.20277 -0.0845055 0)
(1.19642 -0.0817648 0)
(1.18981 -0.0791304 0)
(1.18491 -0.076935 0)
(1.18087 -0.0751339 0)
(1.17785 -0.0730941 0)
(1.18049 -0.0695805 0)
(1.18362 -0.0662304 0)
(1.18235 -0.0636906 0)
(1.17933 -0.0614618 0)
(1.17562 -0.0594709 0)
(1.17135 -0.0575138 0)
(1.16464 -0.0549571 0)
(1.15671 -0.0525261 0)
(1.15119 -0.0505317 0)
(1.14685 -0.0487851 0)
(1.14329 -0.0470746 0)
(1.14474 -0.0435382 0)
(1.14901 -0.0395044 0)
(1.14846 -0.0368614 0)
(1.14548 -0.0349083 0)
(1.14173 -0.0332592 0)
(1.13745 -0.0316441 0)
(1.12995 -0.0297834 0)
(1.12083 -0.0280538 0)
(1.11457 -0.0261991 0)
(1.10983 -0.0242827 0)
(1.10592 -0.0225662 0)
(1.10646 -0.0190137 0)
(1.11139 -0.0144729 0)
(1.11149 -0.0116978 0)
(1.10849 -0.00996143 0)
(1.10459 -0.00868777 0)
(1.10016 -0.00748215 0)
(1.09136 -0.00642665 0)
(1.08055 -0.00548338 0)
(1.07358 -0.0036061 0)
(1.06846 -0.00145317 0)
(1.06431 0.000425434 0)
(1.06511 0.00396007 0)
(1.07079 0.00854479 0)
(1.07099 0.011393 0)
(1.06779 0.0131753 0)
(1.06367 0.0144589 0)
(1.05866 0.015608 0)
(1.0473 0.0155615 0)
(1.03438 0.0148629 0)
(1.02682 0.016128 0)
(1.02123 0.018052 0)
(1.01675 0.0200159 0)
(1.01863 0.0245259 0)
(1.02482 0.0304021 0)
(1.02456 0.0336214 0)
(1.02101 0.0352636 0)
(1.01654 0.0362338 0)
(1.01005 0.0367851 0)
(0.994866 0.0345325 0)
(0.979319 0.0318954 0)
(0.970371 0.0325927 0)
(0.964318 0.0341957 0)
(0.95975 0.0360841 0)
(0.963263 0.0418488 0)
(0.969916 0.049161 0)
(0.968782 0.0523063 0)
(0.964035 0.052985 0)
(0.958533 0.0529857 0)
(0.948359 0.0521037 0)
(0.926967 0.0473285 0)
(0.908843 0.0430463 0)
(0.898758 0.0425299 0)
(0.891729 0.0432341 0)
(0.887136 0.0450638 0)
(0.892426 0.0527313 0)
(0.896773 0.0610253 0)
(0.892998 0.0643645 0)
(0.885769 0.0649389 0)
(0.876609 0.0645817 0)
(0.856854 0.0593313 0)
(0.827234 0.0467378 0)
(0.80471 0.0369972 0)
(0.791711 0.0328847 0)
(0.782004 0.0319452 0)
(0.778158 0.0329987 0)
(0.77607 0.0312143 0)
(0.769355 0.0250026 0)
(0.756217 0.0204342 0)
(0.743638 0.0115929 0)
(0.297416 -0.0541596 0)
(-0.726727 -0.0276945 0)
(1.22352 -0.109264 0)
(1.21518 -0.104779 0)
(1.21088 -0.102607 0)
(1.207 -0.100485 0)
(1.20501 -0.0976808 0)
(1.20885 -0.0936815 0)
(1.21076 -0.090594 0)
(1.20887 -0.088446 0)
(1.20575 -0.0865836 0)
(1.20209 -0.0848394 0)
(1.19787 -0.0829515 0)
(1.19145 -0.0804579 0)
(1.18456 -0.0778738 0)
(1.17955 -0.0754514 0)
(1.17545 -0.0732927 0)
(1.17224 -0.0710709 0)
(1.17446 -0.0674081 0)
(1.17812 -0.0639469 0)
(1.1771 -0.0616655 0)
(1.17413 -0.0598202 0)
(1.17047 -0.0581107 0)
(1.16629 -0.0564097 0)
(1.15968 -0.0543534 0)
(1.15131 -0.0522108 0)
(1.1455 -0.0498598 0)
(1.14096 -0.0475465 0)
(1.13721 -0.0455923 0)
(1.1376 -0.0422863 0)
(1.14253 -0.038206 0)
(1.14279 -0.0354531 0)
(1.14008 -0.0334785 0)
(1.13649 -0.0317474 0)
(1.13237 -0.0302123 0)
(1.12547 -0.0287272 0)
(1.11531 -0.0276483 0)
(1.10837 -0.0257445 0)
(1.10344 -0.0234693 0)
(1.09936 -0.0214907 0)
(1.09871 -0.0184437 0)
(1.10411 -0.0142526 0)
(1.10531 -0.0112587 0)
(1.10269 -0.00921925 0)
(1.09899 -0.0074608 0)
(1.09475 -0.00597055 0)
(1.08713 -0.00479031 0)
(1.07495 -0.00473698 0)
(1.0667 -0.00371633 0)
(1.06156 -0.00171274 0)
(1.05729 0.000247558 0)
(1.05687 0.00366683 0)
(1.06283 0.00859774 0)
(1.06431 0.01189 0)
(1.06155 0.0138241 0)
(1.05766 0.0154072 0)
(1.05317 0.0166022 0)
(1.04403 0.0169128 0)
(1.02957 0.0154224 0)
(1.01995 0.0154317 0)
(1.01413 0.0171596 0)
(1.00935 0.0189353 0)
(1.00875 0.0226031 0)
(1.01563 0.0291785 0)
(1.01757 0.0333473 0)
(1.01457 0.0348233 0)
(1.01026 0.0355963 0)
(1.00511 0.0360529 0)
(0.99329 0.0351162 0)
(0.975425 0.032228 0)
(0.963922 0.0313275 0)
(0.957436 0.0324823 0)
(0.952153 0.033906 0)
(0.951417 0.0378547 0)
(0.959269 0.0464805 0)
(0.961821 0.0524054 0)
(0.95815 0.0540804 0)
(0.952857 0.0542605 0)
(0.945542 0.0541297 0)
(0.928048 0.0498082 0)
(0.907023 0.0432738 0)
(0.893919 0.0397901 0)
(0.885681 0.039403 0)
(0.879167 0.0400734 0)
(0.878628 0.0445949 0)
(0.884914 0.0542742 0)
(0.885009 0.0612707 0)
(0.879211 0.0641822 0)
(0.871391 0.0646743 0)
(0.859296 0.0627911 0)
(0.834986 0.0517624 0)
(0.80817 0.0372873 0)
(0.79033 0.0281507 0)
(0.7798 0.0244629 0)
(0.772749 0.0236029 0)
(0.771816 0.024131 0)
(0.770381 0.0186178 0)
(0.763008 0.0111727 0)
(0.756224 0.00704215 0)
(0.307077 -0.0440344 0)
(-0.72926 -0.0237886 0)
(1.2191 -0.106411 0)
(1.21018 -0.102381 0)
(1.20556 -0.100402 0)
(1.20157 -0.0983836 0)
(1.19921 -0.0955734 0)
(1.20292 -0.0910849 0)
(1.20579 -0.0874214 0)
(1.20422 -0.0851413 0)
(1.20116 -0.0832986 0)
(1.19753 -0.0816592 0)
(1.1934 -0.0800047 0)
(1.18696 -0.0780441 0)
(1.17922 -0.0760374 0)
(1.17379 -0.0738869 0)
(1.1696 -0.0716735 0)
(1.1663 -0.0693431 0)
(1.16804 -0.0653548 0)
(1.1726 -0.0612106 0)
(1.17226 -0.0585843 0)
(1.1694 -0.0567022 0)
(1.16578 -0.0550825 0)
(1.16165 -0.0535623 0)
(1.1554 -0.0519493 0)
(1.14621 -0.0505373 0)
(1.13958 -0.0487322 0)
(1.13492 -0.0464549 0)
(1.13115 -0.0442062 0)
(1.13082 -0.0407091 0)
(1.13604 -0.0361963 0)
(1.13728 -0.033076 0)
(1.13486 -0.0310845 0)
(1.13132 -0.0295812 0)
(1.12722 -0.0283128 0)
(1.12128 -0.0270329 0)
(1.11066 -0.0262602 0)
(1.10231 -0.0250779 0)
(1.09716 -0.0231525 0)
(1.09309 -0.0211098 0)
(1.09175 -0.0178719 0)
(1.09701 -0.0129993 0)
(1.09939 -0.00936076 0)
(1.0972 -0.0072544 0)
(1.09356 -0.00580379 0)
(1.08937 -0.00470359 0)
(1.08335 -0.0036862 0)
(1.07132 -0.00360872 0)
(1.06108 -0.00320172 0)
(1.05534 -0.00200252 0)
(1.05103 -0.000595455 0)
(1.04921 0.00226847 0)
(1.05472 0.00827118 0)
(1.05807 0.0131609 0)
(1.05604 0.0154167 0)
(1.05224 0.0166132 0)
(1.0479 0.0174015 0)
(1.04135 0.0180336 0)
(1.02754 0.0167769 0)
(1.01517 0.0160158 0)
(1.00813 0.0167311 0)
(1.00322 0.0179619 0)
(1.00024 0.0202929 0)
(1.0057 0.0269577 0)
(1.01114 0.0338177 0)
(1.00974 0.0364668 0)
(1.0056 0.0370923 0)
(1.00078 0.0372685 0)
(0.991941 0.0369608 0)
(0.974567 0.033824 0)
(0.960402 0.0314421 0)
(0.9524 0.0310219 0)
(0.946815 0.0317834 0)
(0.942601 0.0335711 0)
(0.947292 0.040714 0)
(0.954351 0.0499543 0)
(0.953447 0.0542066 0)
(0.948651 0.0552563 0)
(0.942845 0.0553614 0)
(0.931444 0.0531659 0)
(0.910146 0.0442958 0)
(0.892376 0.0380173 0)
(0.881764 0.036306 0)
(0.874649 0.0363678 0)
(0.869648 0.0377585 0)
(0.872879 0.0448626 0)
(0.877293 0.053656 0)
(0.875136 0.0581899 0)
(0.86885 0.060015 0)
(0.860515 0.0603499 0)
(0.844815 0.0566507 0)
(0.81932 0.0425067 0)
(0.796363 0.0275185 0)
(0.781278 0.0190266 0)
(0.772581 0.0159162 0)
(0.7692 0.0147112 0)
(0.771611 0.0115625 0)
(0.770112 0.00451472 0)
(0.766337 0.001153 0)
(0.314176 -0.0337916 0)
(-0.731922 -0.020447 0)
(1.21519 -0.103926 0)
(1.20579 -0.100185 0)
(1.20089 -0.0980309 0)
(1.1969 -0.0961272 0)
(1.19398 -0.0937479 0)
(1.19692 -0.0894246 0)
(1.20102 -0.0850734 0)
(1.20002 -0.0824389 0)
(1.19698 -0.0806736 0)
(1.19335 -0.0791391 0)
(1.18926 -0.0775631 0)
(1.1834 -0.0758039 0)
(1.17497 -0.07398 0)
(1.16899 -0.0719763 0)
(1.16469 -0.0700373 0)
(1.1611 -0.0681962 0)
(1.16173 -0.0646973 0)
(1.16703 -0.0599932 0)
(1.16758 -0.0567583 0)
(1.16489 -0.0546096 0)
(1.1613 -0.0528399 0)
(1.15724 -0.0512521 0)
(1.15204 -0.049713 0)
(1.14274 -0.0485712 0)
(1.13488 -0.0471131 0)
(1.13 -0.0453783 0)
(1.12601 -0.0437559 0)
(1.12458 -0.040861 0)
(1.12972 -0.0358683 0)
(1.13208 -0.0320356 0)
(1.13008 -0.0297362 0)
(1.12668 -0.0279075 0)
(1.12271 -0.0263631 0)
(1.11795 -0.0249869 0)
(1.10818 -0.0243844 0)
(1.09819 -0.0236474 0)
(1.09241 -0.0222115 0)
(1.08814 -0.0209054 0)
(1.08556 -0.0186975 0)
(1.09009 -0.0134323 0)
(1.09396 -0.00861547 0)
(1.09249 -0.00617458 0)
(1.08912 -0.00443848 0)
(1.08512 -0.00297109 0)
(1.08037 -0.00174613 0)
(1.0698 -0.00177754 0)
(1.05818 -0.00218506 0)
(1.0511 -0.00129063 0)
(1.04633 -0.00016254 0)
(1.0427 0.00131932 0)
(1.04595 0.00656875 0)
(1.05201 0.0134498 0)
(1.0517 0.0167478 0)
(1.04825 0.0181881 0)
(1.04406 0.0191274 0)
(1.03897 0.0197829 0)
(1.02683 0.0186445 0)
(1.01287 0.0167072 0)
(1.00435 0.0168046 0)
(0.998846 0.0175962 0)
(0.994447 0.0185427 0)
(0.995625 0.0228528 0)
(1.0037 0.0315001 0)
(1.00546 0.0366126 0)
(1.0021 0.0382846 0)
(0.997556 0.0389731 0)
(0.99143 0.0392579 0)
(0.976698 0.0358717 0)
(0.95989 0.0309814 0)
(0.949586 0.0296256 0)
(0.942827 0.0300537 0)
(0.93746 0.0309441 0)
(0.936042 0.034624 0)
(0.944064 0.044899 0)
(0.948178 0.0528338 0)
(0.945358 0.0559109 0)
(0.940151 0.0566075 0)
(0.933323 0.0564543 0)
(0.916984 0.050911 0)
(0.894861 0.0404456 0)
(0.880729 0.0352565 0)
(0.872227 0.0336266 0)
(0.86558 0.0333571 0)
(0.862824 0.0360125 0)
(0.867384 0.0450317 0)
(0.868856 0.0529727 0)
(0.864852 0.0566366 0)
(0.857931 0.0576789 0)
(0.849008 0.0567159 0)
(0.832499 0.0495942 0)
(0.808204 0.0333263 0)
(0.787799 0.0183989 0)
(0.774973 0.00987925 0)
(0.768098 0.00739635 0)
(0.769379 0.0053031 0)
(0.773368 0.000111094 0)
(0.772724 -0.00305072 0)
(0.322093 -0.0252537 0)
(-0.733778 -0.0171144 0)
(1.21206 -0.100973 0)
(1.20262 -0.0974878 0)
(1.1974 -0.0955043 0)
(1.19338 -0.0937431 0)
(1.1901 -0.0917099 0)
(1.19156 -0.0879608 0)
(1.19634 -0.083655 0)
(1.19617 -0.0806996 0)
(1.1934 -0.0785048 0)
(1.18989 -0.0765921 0)
(1.1859 -0.074839 0)
(1.18068 -0.073028 0)
(1.17227 -0.0714398 0)
(1.16567 -0.0698367 0)
(1.1612 -0.0681023 0)
(1.15746 -0.0665174 0)
(1.15655 -0.063522 0)
(1.16169 -0.0587061 0)
(1.16336 -0.0550177 0)
(1.16119 -0.0525284 0)
(1.15783 -0.0504753 0)
(1.1539 -0.0487906 0)
(1.14934 -0.0472796 0)
(1.14064 -0.0462644 0)
(1.13193 -0.0453604 0)
(1.12656 -0.043924 0)
(1.12242 -0.0424415 0)
(1.11967 -0.0402012 0)
(1.12363 -0.0352215 0)
(1.12755 -0.0304358 0)
(1.12632 -0.0278545 0)
(1.12316 -0.0260892 0)
(1.11934 -0.0246245 0)
(1.11507 -0.023291 0)
(1.10655 -0.0223967 0)
(1.09591 -0.0222642 0)
(1.08922 -0.0212798 0)
(1.08457 -0.0198765 0)
(1.08084 -0.0183492 0)
(1.08278 -0.0139671 0)
(1.0887 -0.00759166 0)
(1.08892 -0.00416621 0)
(1.0859 -0.00262253 0)
(1.08205 -0.0015002 0)
(1.07777 -0.000499207 0)
(1.06918 -0.000168772 0)
(1.05661 -0.00131475 0)
(1.04834 -0.00108871 0)
(1.0428 0.000242624 0)
(1.0384 0.00147796 0)
(1.03756 0.00467509 0)
(1.04482 0.0122051 0)
(1.04772 0.0175141 0)
(1.04522 0.0194783 0)
(1.04126 0.0203959 0)
(1.03678 0.0211343 0)
(1.02748 0.0207146 0)
(1.01236 0.0177212 0)
(1.00222 0.0164271 0)
(0.995819 0.0170074 0)
(0.990763 0.0180448 0)
(0.987538 0.0200938 0)
(0.993587 0.0278858 0)
(1.00007 0.0363113 0)
(0.99896 0.0398174 0)
(0.994727 0.040599 0)
(0.989778 0.0409426 0)
(0.980442 0.0392995 0)
(0.962569 0.0325831 0)
(0.948571 0.0283284 0)
(0.940344 0.0281253 0)
(0.934366 0.0287402 0)
(0.929551 0.0299063 0)
(0.932204 0.0362328 0)
(0.9407 0.0476546 0)
(0.941906 0.0536989 0)
(0.937759 0.0558537 0)
(0.93213 0.0564733 0)
(0.922978 0.0561809 0)
(0.903673 0.0473355 0)
(0.883799 0.0358456 0)
(0.871504 0.0313548 0)
(0.863743 0.0303828 0)
(0.857675 0.0304758 0)
(0.857371 0.0348176 0)
(0.861646 0.0437198 0)
(0.861302 0.0493613 0)
(0.856656 0.0514063 0)
(0.849639 0.051896 0)
(0.839656 0.0498139 0)
(0.822581 0.0409872 0)
(0.799799 0.0233345 0)
(0.781347 0.00820937 0)
(0.770581 0.000554426 0)
(0.766958 -0.00285647 0)
(0.773212 -0.00754138 0)
(0.776093 -0.00917773 0)
(0.329346 -0.0153551 0)
(-0.735472 -0.0145312 0)
(1.20952 -0.0981999 0)
(1.20018 -0.0948174 0)
(1.19441 -0.092821 0)
(1.19037 -0.0912361 0)
(1.18697 -0.08962 0)
(1.18713 -0.0864839 0)
(1.19202 -0.0821024 0)
(1.1927 -0.0788456 0)
(1.19026 -0.0764575 0)
(1.18687 -0.0743736 0)
(1.18295 -0.0725103 0)
(1.17829 -0.0706682 0)
(1.17024 -0.069052 0)
(1.163 -0.0676566 0)
(1.15834 -0.0661214 0)
(1.15455 -0.0647146 0)
(1.15229 -0.0624218 0)
(1.15642 -0.0575832 0)
(1.15937 -0.0532928 0)
(1.15783 -0.0507245 0)
(1.15472 -0.0487023 0)
(1.15095 -0.0470151 0)
(1.14675 -0.0455396 0)
(1.13918 -0.0442979 0)
(1.1297 -0.0436185 0)
(1.1238 -0.0424561 0)
(1.11951 -0.0410477 0)
(1.11595 -0.0395469 0)
(1.11745 -0.0354419 0)
(1.12294 -0.0296889 0)
(1.123 -0.0264106 0)
(1.12016 -0.0245223 0)
(1.11652 -0.0230122 0)
(1.11244 -0.0217074 0)
(1.10561 -0.0206622 0)
(1.09441 -0.0208353 0)
(1.08661 -0.0203396 0)
(1.08154 -0.0190572 0)
(1.07744 -0.0178369 0)
(1.07594 -0.0150135 0)
(1.08226 -0.00834958 0)
(1.08519 -0.00334585 0)
(1.08297 -0.00117359 0)
(1.07937 0.000118305 0)
(1.07535 0.0010781 0)
(1.06899 0.00166373 0)
(1.05633 0.000200083 0)
(1.04613 -0.000558659 0)
(1.04 0.000333549 0)
(1.03527 0.00164167 0)
(1.0317 0.00343355 0)
(1.03603 0.0095925 0)
(1.0427 0.0173069 0)
(1.04227 0.0207488 0)
(1.03869 0.0219635 0)
(1.03459 0.022615 0)
(1.02855 0.0227251 0)
(1.01459 0.0194136 0)
(1.00128 0.0160895 0)
(0.993429 0.0159277 0)
(0.987642 0.0171947 0)
(0.982949 0.0185055 0)
(0.98307 0.0229207 0)
(0.991946 0.0332143 0)
(0.995229 0.0398006 0)
(0.992612 0.0421526 0)
(0.988193 0.0426239 0)
(0.982397 0.0427477 0)
(0.968109 0.0384446 0)
(0.950079 0.0304941 0)
(0.939119 0.0271096 0)
(0.932161 0.0269483 0)
(0.926416 0.0274321 0)
(0.92271 0.0295676 0)
(0.928695 0.0393932 0)
(0.935363 0.0509519 0)
(0.934229 0.0560172 0)
(0.929478 0.0576148 0)
(0.923804 0.0574854 0)
(0.913128 0.0548686 0)
(0.892064 0.0433341 0)
(0.87376 0.0326805 0)
(0.862934 0.0288013 0)
(0.855937 0.0275829 0)
(0.850632 0.0279324 0)
(0.852043 0.0338126 0)
(0.854972 0.0420743 0)
(0.853197 0.0463343 0)
(0.848294 0.0471273 0)
(0.84131 0.0467574 0)
(0.831295 0.0425035 0)
(0.814986 0.0314692 0)
(0.794041 0.0122502 0)
(0.777067 -0.00220037 0)
(0.76822 -0.00966215 0)
(0.770015 -0.0161036 0)
(0.775317 -0.0178039 0)
(0.335526 -0.0052496 0)
(-0.736988 -0.0126471 0)
(1.20701 -0.0956529 0)
(1.19809 -0.0923543 0)
(1.19178 -0.0903156 0)
(1.18755 -0.0888083 0)
(1.184 -0.0874192 0)
(1.18295 -0.084904 0)
(1.18761 -0.0805231 0)
(1.18912 -0.0769711 0)
(1.18705 -0.0744368 0)
(1.18385 -0.0722666 0)
(1.18008 -0.0703672 0)
(1.17583 -0.0686235 0)
(1.16873 -0.0670324 0)
(1.16079 -0.0657704 0)
(1.15561 -0.0642375 0)
(1.15159 -0.0626517 0)
(1.14843 -0.0609029 0)
(1.15081 -0.0565462 0)
(1.15537 -0.0515013 0)
(1.1547 -0.0487235 0)
(1.15182 -0.0468401 0)
(1.14823 -0.0452332 0)
(1.1442 -0.043855 0)
(1.13806 -0.0426046 0)
(1.12816 -0.042105 0)
(1.12121 -0.0410966 0)
(1.11654 -0.0395831 0)
(1.11271 -0.0382578 0)
(1.11154 -0.0353826 0)
(1.1174 -0.0292944 0)
(1.11968 -0.0248408 0)
(1.11735 -0.0227849 0)
(1.1139 -0.0212664 0)
(1.11001 -0.020034 0)
(1.10483 -0.019015 0)
(1.09403 -0.0193601 0)
(1.08448 -0.0194778 0)
(1.07871 -0.0183714 0)
(1.07429 -0.0170313 0)
(1.07085 -0.0153244 0)
(1.07439 -0.00979882 0)
(1.08058 -0.00278847 0)
(1.08024 0.000457211 0)
(1.07691 0.00178008 0)
(1.07305 0.00276296 0)
(1.06847 0.00354564 0)
(1.05764 0.00242703 0)
(1.04507 0.000454975 0)
(1.03762 0.000659353 0)
(1.03236 0.00190672 0)
(1.02802 0.00313912 0)
(1.02729 0.00659615 0)
(1.03535 0.0153674 0)
(1.03879 0.021382 0)
(1.03636 0.0234022 0)
(1.03231 0.0240553 0)
(1.02793 0.024538 0)
(1.01825 0.0227237 0)
(1.00233 0.017767 0)
(0.991577 0.0159914 0)
(0.985127 0.0166462 0)
(0.979981 0.0176365 0)
(0.976066 0.0191334 0)
(0.980918 0.0263568 0)
(0.989298 0.0371687 0)
(0.989657 0.0419706 0)
(0.985843 0.0436315 0)
(0.981084 0.0443012 0)
(0.973744 0.0436503 0)
(0.956908 0.0355604 0)
(0.940417 0.0272309 0)
(0.930572 0.0250712 0)
(0.923913 0.0257471 0)
(0.918595 0.0264408 0)
(0.917148 0.0297554 0)
(0.925329 0.0413125 0)
(0.930038 0.0511181 0)
(0.927718 0.0545551 0)
(0.922457 0.0556367 0)
(0.915736 0.0560731 0)
(0.902763 0.0525626 0)
(0.881738 0.0394426 0)
(0.865351 0.0288371 0)
(0.855116 0.0253169 0)
(0.848463 0.0244292 0)
(0.844337 0.0255759 0)
(0.847039 0.0323342 0)
(0.849127 0.0388656 0)
(0.846782 0.0411363 0)
(0.841868 0.0410379 0)
(0.834964 0.0404035 0)
(0.825121 0.0346817 0)
(0.810302 0.0212208 0)
(0.790871 0.00200903 0)
(0.77427 -0.0113971 0)
(0.768468 -0.0223497 0)
(0.772057 -0.0298002 0)
(0.338174 0.00141351 0)
(-0.738706 -0.0120947 0)
(1.20445 -0.0931832 0)
(1.19607 -0.0900252 0)
(1.18937 -0.0880444 0)
(1.18493 -0.0866774 0)
(1.18122 -0.0853347 0)
(1.17884 -0.0832836 0)
(1.18266 -0.0787891 0)
(1.18551 -0.0746617 0)
(1.18399 -0.0721247 0)
(1.18102 -0.0700546 0)
(1.17745 -0.0682583 0)
(1.17345 -0.066694 0)
(1.1675 -0.0652071 0)
(1.15896 -0.0640618 0)
(1.15309 -0.0625252 0)
(1.14876 -0.060709 0)
(1.14514 -0.0591677 0)
(1.14508 -0.0557995 0)
(1.15071 -0.0502103 0)
(1.15166 -0.0467334 0)
(1.14909 -0.0449279 0)
(1.14571 -0.043417 0)
(1.14186 -0.0421029 0)
(1.13686 -0.0408477 0)
(1.12716 -0.040379 0)
(1.11893 -0.0397412 0)
(1.11379 -0.0384123 0)
(1.10967 -0.0370312 0)
(1.10666 -0.0352008 0)
(1.11056 -0.0298292 0)
(1.11571 -0.0238282 0)
(1.11476 -0.0209113 0)
(1.11157 -0.019412 0)
(1.10784 -0.0182608 0)
(1.10361 -0.0172792 0)
(1.09437 -0.0174248 0)
(1.08316 -0.018353 0)
(1.07634 -0.01776 0)
(1.07144 -0.0163638 0)
(1.06739 -0.0150586 0)
(1.06665 -0.0117177 0)
(1.07418 -0.00384591 0)
(1.07725 0.00146885 0)
(1.07494 0.00354414 0)
(1.07133 0.00457749 0)
(1.06737 0.00535646 0)
(1.0597 0.00503172 0)
(1.04584 0.00199468 0)
(1.03584 0.000796643 0)
(1.0298 0.00170838 0)
(1.02506 0.00301292 0)
(1.02136 0.00466895 0)
(1.02555 0.0109707 0)
(1.03351 0.0200672 0)
(1.03405 0.0241786 0)
(1.03075 0.0257639 0)
(1.02674 0.0265587 0)
(1.02071 0.0268564 0)
(1.00595 0.0224874 0)
(0.991477 0.0172044 0)
(0.98336 0.015931 0)
(0.977537 0.016443 0)
(0.972451 0.0172548 0)
(0.970395 0.0202142 0)
(0.978722 0.0311258 0)
(0.984655 0.0411401 0)
(0.983316 0.0447077 0)
(0.97933 0.0456328 0)
(0.974407 0.0457725 0)
(0.964597 0.0438042 0)
(0.945367 0.0342691 0)
(0.930646 0.0270958 0)
(0.922499 0.0252727 0)
(0.916692 0.025044 0)
(0.911536 0.0254601 0)
(0.912061 0.0305741 0)
(0.920447 0.0436497 0)
(0.922873 0.0525715 0)
(0.919331 0.0557955 0)
(0.913952 0.0564168 0)
(0.907353 0.0555542 0)
(0.893653 0.0496736 0)
(0.872511 0.0357252 0)
(0.857065 0.0259061 0)
(0.847626 0.0223567 0)
(0.841483 0.0212405 0)
(0.838837 0.0231373 0)
(0.842315 0.0305685 0)
(0.843557 0.0360342 0)
(0.841095 0.0371119 0)
(0.836557 0.0360598 0)
(0.830298 0.0339132 0)
(0.821547 0.0259881 0)
(0.808178 0.0117889 0)
(0.789646 -0.00640195 0)
(0.774083 -0.0194628 0)
(0.769107 -0.0427053 0)
(0.33546 0.00424831 0)
(-0.740571 -0.0123831 0)
(1.20198 -0.0906209 0)
(1.1943 -0.0879142 0)
(1.1872 -0.0860586 0)
(1.18241 -0.0848111 0)
(1.17851 -0.0833459 0)
(1.17525 -0.0816711 0)
(1.17717 -0.0774893 0)
(1.18177 -0.0724286 0)
(1.18117 -0.0696683 0)
(1.17843 -0.0677917 0)
(1.17505 -0.0661484 0)
(1.17122 -0.0647064 0)
(1.16615 -0.0632464 0)
(1.15729 -0.0621014 0)
(1.15046 -0.0607614 0)
(1.14589 -0.0592102 0)
(1.14202 -0.0578219 0)
(1.13989 -0.0555323 0)
(1.14489 -0.0499326 0)
(1.1484 -0.0450164 0)
(1.14654 -0.0427902 0)
(1.14333 -0.0413379 0)
(1.13966 -0.0400706 0)
(1.13541 -0.0388465 0)
(1.1267 -0.0383514 0)
(1.11716 -0.0383114 0)
(1.11131 -0.0373645 0)
(1.10686 -0.0359427 0)
(1.10307 -0.0345517 0)
(1.1033 -0.030814 0)
(1.11026 -0.0236254 0)
(1.11197 -0.0192741 0)
(1.10926 -0.0175065 0)
(1.1057 -0.0163527 0)
(1.10181 -0.0154112 0)
(1.09511 -0.0151314 0)
(1.08312 -0.0167979 0)
(1.07438 -0.0171718 0)
(1.06888 -0.0159718 0)
(1.06447 -0.0144556 0)
(1.06119 -0.0125684 0)
(1.06576 -0.00633032 0)
(1.07278 0.00158221 0)
(1.07263 0.0050791 0)
(1.06926 0.00635381 0)
(1.06537 0.00719967 0)
(1.0605 0.00770828 0)
(1.04844 0.00517151 0)
(1.0352 0.00190607 0)
(1.02772 0.00165418 0)
(1.02252 0.00260803 0)
(1.01808 0.0036654 0)
(1.01641 0.00662077 0)
(1.02466 0.0163176 0)
(1.0299 0.0243891 0)
(1.02836 0.0272161 0)
(1.02441 0.0284175 0)
(1.02011 0.0292032 0)
(1.01198 0.0275439 0)
(0.995567 0.0198665 0)
(0.982934 0.015047 0)
(0.975443 0.0147858 0)
(0.969971 0.0159374 0)
(0.965429 0.0168885 0)
(0.966389 0.0216908 0)
(0.976417 0.0344185 0)
(0.979991 0.0424725 0)
(0.9772 0.0449525 0)
(0.972485 0.0464649 0)
(0.96715 0.047376 0)
(0.955357 0.0433641 0)
(0.936374 0.0314854 0)
(0.923225 0.0243487 0)
(0.91514 0.0230714 0)
(0.909387 0.0234075 0)
(0.904808 0.0242931 0)
(0.907634 0.0309082 0)
(0.915508 0.0435843 0)
(0.916644 0.0505758 0)
(0.912858 0.0528118 0)
(0.907277 0.0535955 0)
(0.899744 0.0530476 0)
(0.884887 0.0462778 0)
(0.86463 0.031502 0)
(0.850051 0.0216306 0)
(0.840863 0.0181419 0)
(0.835193 0.0172904 0)
(0.834234 0.0203882 0)
(0.838606 0.0278781 0)
(0.839801 0.0318749 0)
(0.837404 0.0319648 0)
(0.833187 0.0308547 0)
(0.827667 0.0268362 0)
(0.820458 0.0178613 0)
(0.807587 0.00398491 0)
(0.789386 -0.0143754 0)
(0.771404 -0.0432343 0)
(0.32674 0.000147537 0)
(-0.742504 -0.0125907 0)