/*--------------------------------*- C++ -*----------------------------------*\
  =========                 |
  \\      /  F ield         | OpenFOAM: The Open Source CFD Toolbox
   \\    /   O peration     | Website:  https://openfoam.org
    \\  /    A nd           | Version:  12
     \\/     M anipulation  |
\*---------------------------------------------------------------------------*/
FoamFile
{
    format      ascii;
    class       volVectorField;
    location    "2.15";
    object      U;
}
// * * * * * * * * * * * * * * * * * * * * * * * * * * * * * * * * * * * * * //

dimensions      [0 1 -1 0 0 0 0];

internalField   nonuniform List<vector> 
22702
(
(2 -3.74382e-13 0)
(2 6.70931e-14 0)
(2.04879 -0.091218 0)
(2 -1.15294e-09 0)
(1.98053 0.0305155 0)
(2 2.0843e-15 0)
(1.83001 0.228951 0)
(2 -1.53178e-14 0)
(2 -2.1983e-13 0)
(2.07554 -0.268651 0)
(1.83004 0.229501 0)
(1.83014 0.228882 0)
(2 -2.07258e-13 0)
(1.83138 0.228693 0)
(2.03479 -0.0737889 0)
(2 -7.11834e-14 0)
(2 -1.26665e-13 0)
(2 1.19788e-14 0)
(1.82982 0.229025 0)
(2 -1.1927e-14 0)
(1.83156 0.228836 0)
(2 -2.32249e-13 0)
(1.83217 0.229373 0)
(2.11626 -0.270845 0)
(1.8318 0.228193 0)
(2.14636 -0.257062 0)
(2 1.61098e-14 0)
(1.83381 0.229596 0)
(2.079 -0.252147 0)
(2.11529 -0.269687 0)
(2 -1.2875e-15 0)
(1.82989 0.228845 0)
(2 4.23492e-14 0)
(2 -1.75854e-14 0)
(2 1.10175e-13 0)
(1.84097 0.212506 0)
(1.83198 0.228049 0)
(1.83147 0.228553 0)
(2 -1.91536e-13 0)
(2 -2.04329e-13 0)
(2.09476 -0.270379 0)
(2 -7.66533e-14 0)
(1.93106 0.129019 0)
(2 -1.88259e-13 0)
(1.83342 0.229118 0)
(2 -1.36405e-13 0)
(2 1.25384e-15 0)
(2 -1.4025e-13 0)
(2 7.8321e-14 0)
(2.10776 -0.265941 0)
(2 -3.00926e-14 0)
(2.10234 -0.262372 0)
(2 -1.55028e-13 0)
(1.83006 0.229331 0)
(2 -8.66601e-15 0)
(1.82991 0.228861 0)
(2 1.17375e-14 0)
(2 1.19839e-09 0)
(2 5.23764e-14 0)
(2 1.4518e-14 0)
(2.12982 -0.260238 0)
(2 -2.1019e-14 0)
(2 -3.09406e-13 0)
(2.07251 -0.260129 0)
(2 5.55588e-14 0)
(2.13507 -0.264148 0)
(2 -3.78861e-13 0)
(2 4.03663e-14 0)
(2 -2.64737e-14 0)
(2.10068 -0.270302 0)
(2 -2.35765e-13 0)
(1.83192 0.228938 0)
(1.91216 0.155668 0)
(2 7.24306e-10 0)
(1.83052 0.22779 0)
(1.82185 0.236875 0)
(2.13354 -0.262369 0)
(1.83024 0.228721 0)
(2.1041 -0.262483 0)
(2 -2.98156e-13 0)
(1.83026 0.228916 0)
(2.11071 -0.264029 0)
(1.82912 0.228498 0)
(1.83054 0.22869 0)
(2 -1.09869e-13 0)
(2 8.41757e-07 0)
(2 -5.15091e-14 0)
(2 -4.18566e-14 0)
(2.02078 -0.0448635 0)
(2.08391 -0.264507 0)
(1.82659 0.228155 0)
(2 4.2758e-14 0)
(2 -7.73487e-11 0)
(2.10217 -0.273484 0)
(2 4.31354e-15 0)
(1.83123 0.228954 0)
(2.10008 -0.277244 0)
(2 2.77751e-08 0)
(2 -5.76327e-15 0)
(2 6.67515e-15 0)
(2 -1.52597e-13 0)
(1.93288 0.130232 0)
(1.83009 0.228615 0)
(2.13938 -0.257044 0)
(2 -1.51392e-10 0)
(2 -1.20917e-09 0)
(1.9519 0.0583113 0)
(2 8.73496e-09 0)
(2.1108 -0.262462 0)
(2 -2.25651e-14 0)
(1.82977 0.228529 0)
(1.82906 0.227936 0)
(2 4.08094e-09 0)
(2 -7.98447e-14 0)
(2.1394 -0.266853 0)
(2.1409 -0.262182 0)
(2.07884 -0.265533 0)
(2 1.31734e-13 0)
(2 -1.45228e-07 0)
(2 -7.57054e-14 0)
(2 -3.83071e-14 0)
(2 9.77054e-08 0)
(2.02407 -0.0558652 0)
(2 -1.0034e-07 0)
(1.86097 0.202143 0)
(1.98165 0.0189636 0)
(1.82902 0.228223 0)
(2 -1.94609e-13 0)
(1.82751 0.228089 0)
(1.83001 0.2288 0)
(1.83148 0.228612 0)
(1.83099 0.228973 0)
(2 3.58938e-14 0)
(2.11105 -0.259837 0)
(2 1.25548e-15 0)
(2.12828 -0.271058 0)
(2 -1.05066e-14 0)
(2 -7.78333e-15 0)
(2 1.22784e-13 0)
(2 2.66273e-14 0)
(1.8291 0.227835 0)
(2 3.09145e-09 0)
(2 1.01342e-13 0)
(2 -1.33345e-13 0)
(2 1.06088e-13 0)
(1.82808 0.228134 0)
(2 6.6221e-14 0)
(1.9946 0.0148883 0)
(2 2.35956e-14 0)
(2 -1.76731e-13 0)
(2 -7.62785e-11 0)
(2 -2.73627e-14 0)
(2.11364 -0.2665 0)
(2 2.15e-14 0)
(1.9952 0.00992601 0)
(2 3.89749e-14 0)
(2.10355 -0.261997 0)
(2 7.33336e-14 0)
(2 2.82331e-14 0)
(2 1.04739e-13 0)
(1.82642 0.228442 0)
(2 7.32408e-14 0)
(1.83215 0.229916 0)
(2.13691 -0.275236 0)
(2.12671 -0.25651 0)
(1.83242 0.22874 0)
(1.83407 0.229315 0)
(2 -4.82279e-14 0)
(1.97293 0.0444348 0)
(1.91835 0.144931 0)
(2 -1.65139e-13 0)
(1.82999 0.228681 0)
(2.10383 -0.264245 0)
(1.84498 0.213221 0)
(2 -2.38991e-14 0)
(2 -2.59e-15 0)
(2 -1.63334e-14 0)
(2 3.59795e-14 0)
(1.83136 0.228956 0)
(1.85971 0.20057 0)
(2 -1.323e-13 0)
(1.83011 0.229024 0)
(2.07962 -0.259366 0)
(1.82979 0.228764 0)
(2 -2.27383e-13 0)
(2.09393 -0.261831 0)
(2 -2.68841e-13 0)
(2.10725 -0.265862 0)
(2.14045 -0.25485 0)
(2.00007 -0.00013777 0)
(2 -2.0257e-13 0)
(2 -1.14964e-13 0)
(1.83111 0.22756 0)
(2 -7.01845e-14 0)
(2 -6.67075e-14 0)
(1.83201 0.228827 0)
(2 -1.33505e-13 0)
(1.82863 0.228512 0)
(1.83 0.228432 0)
(2.10524 -0.282127 0)
(2 1.73994e-14 0)
(2 -1.24971e-13 0)
(2.11166 -0.26321 0)
(1.83141 0.228795 0)
(2 -8.70858e-14 0)
(2 -6.45811e-14 0)
(2 -6.87311e-14 0)
(1.83117 0.228742 0)
(2 -1.03415e-13 0)
(2.07736 -0.265702 0)
(2 -6.70096e-11 0)
(2 1.23149e-13 0)
(1.83143 0.229071 0)
(1.83107 0.22912 0)
(1.82905 0.228532 0)
(2 8.58741e-14 0)
(1.99999 2.41011e-05 0)
(2 -5.18659e-14 0)
(2 2.78089e-14 0)
(2 1.44423e-13 0)
(1.83148 0.228912 0)
(2 6.70939e-14 0)
(2.1127 -0.260531 0)
(1.82495 0.23607 0)
(1.83209 0.229047 0)
(1.83178 0.228598 0)
(2 1.93963e-07 0)
(2 2.025e-14 0)
(2 -1.82311e-13 0)
(2.11547 -0.271553 0)
(1.83179 0.229492 0)
(1.9242 0.11055 0)
(2 3.90251e-14 0)
(1.83164 0.229611 0)
(2.10411 -0.264897 0)
(2.08114 -0.260871 0)
(1.8314 0.229396 0)
(1.83049 0.230375 0)
(2 2.72165e-14 0)
(1.83202 0.228807 0)
(2.11046 -0.276034 0)
(1.85275 0.207771 0)
(2 -2.05227e-13 0)
(2 -1.06172e-13 0)
(2 -1.81346e-13 0)
(2 -2.33343e-13 0)
(1.83122 0.228647 0)
(2 -9.91633e-16 0)
(1.89614 0.156054 0)
(1.98473 0.0283523 0)
(2 -8.02605e-14 0)
(2 7.18819e-14 0)
(1.83138 0.229305 0)
(2.10422 -0.27123 0)
(2.08779 -0.159039 0)
(2 -1.09691e-13 0)
(1.83177 0.228195 0)
(2.10082 -0.268855 0)
(1.83255 0.228667 0)
(2 -1.68652e-14 0)
(2 4.93632e-14 0)
(2 -2.43821e-13 0)
(2 6.73544e-14 0)
(2 5.30137e-14 0)
(2 7.51876e-14 0)
(2 5.16331e-14 0)
(2.10956 -0.264802 0)
(2.08159 -0.162504 0)
(2.08443 -0.264112 0)
(1.83143 0.22901 0)
(2 -5.50396e-14 0)
(2 -9.68467e-14 0)
(2 -1.84775e-07 0)
(2 -1.08715e-13 0)
(1.84341 0.207326 0)
(2 -1.15671e-07 0)
(2.10806 -0.265112 0)
(2 -1.38613e-14 0)
(2.11615 -0.288603 0)
(2.11032 -0.263446 0)
(1.83197 0.22835 0)
(2.12561 -0.268922 0)
(1.83177 0.228885 0)
(2 3.06244e-14 0)
(2 -1.29899e-13 0)
(2 -2.99812e-16 0)
(2.00077 -0.00159281 0)
(2.0956 -0.258805 0)
(2.09557 -0.283182 0)
(2 -3.08283e-07 0)
(2 -1.59999e-07 0)
(2.11873 -0.284177 0)
(2 2.51282e-09 0)
(1.82945 0.228005 0)
(2.12419 -0.26051 0)
(2 -2.12746e-14 0)
(2 -3.26915e-11 0)
(1.83118 0.229036 0)
(2.1009 -0.278709 0)
(2 2.84e-14 0)
(1.82899 0.232712 0)
(2.1278 -0.258445 0)
(1.83096 0.229177 0)
(2 -1.57413e-14 0)
(2.1077 -0.287734 0)
(2.00088 -0.00145172 0)
(2 1.22904e-14 0)
(2 2.9743e-06 0)
(2 -8.79034e-14 0)
(2.10204 -0.260638 0)
(2 -2.85383e-14 0)
(2 -1.79414e-07 0)
(2 1.10524e-07 0)
(1.99999 8.42716e-06 0)
(1.99423 0.0088376 0)
(1.90156 0.153322 0)
(2 -2.75833e-11 0)
(2.13691 -0.241244 0)
(2 -1.57022e-11 0)
(2 1.56571e-06 0)
(2 -1.17593e-14 0)
(2 -5.72289e-14 0)
(2 7.89242e-15 0)
(2 -4.83858e-14 0)
(2 -7.0343e-13 0)
(1.83123 0.229062 0)
(2 4.31418e-13 0)
(1.83167 0.228123 0)
(2 1.91651e-13 0)
(2 4.64129e-14 0)
(2 -3.222e-14 0)
(2.11494 -0.263883 0)
(2 -2.60856e-14 0)
(1.8286 0.227923 0)
(2.11959 -0.268522 0)
(2 5.8807e-14 0)
(1.86983 0.190235 0)
(2 1.06054e-13 0)
(2 -1.22353e-13 0)
(1.82805 0.229949 0)
(2 1.3102e-13 0)
(2 -8.46928e-09 0)
(2 1.16439e-13 0)
(1.82778 0.228099 0)
(2 4.33902e-10 0)
(2 -6.65548e-14 0)
(1.84012 0.218863 0)
(1.82873 0.229769 0)
(2 -9.39483e-14 0)
(1.95679 0.0523239 0)
(2 7.06887e-14 0)
(2 2.76478e-14 0)
(2.12281 -0.274149 0)
(2 -2.299e-13 0)
(2 -5.07903e-14 0)
(2 -1.97013e-14 0)
(2.09106 -0.269434 0)
(2 3.2948e-14 0)
(2 4.53695e-14 0)
(2 2.84008e-14 0)
(2 8.14338e-14 0)
(2.1442 -0.250114 0)
(2 5.31724e-14 0)
(2 -6.40379e-14 0)
(2 -5.41404e-14 0)
(2 -2.06996e-13 0)
(2 -1.31763e-13 0)
(2.07557 -0.278777 0)
(1.99998 4.12447e-05 0)
(1.8328 0.22997 0)
(2 4.45871e-14 0)
(2 -5.05609e-05 0)
(1.8335 0.228943 0)
(1.83248 0.229928 0)
(2 -7.76804e-14 0)
(2 3.51441e-14 0)
(2.10331 -0.277724 0)
(2.05661 -0.134426 0)
(1.82906 0.228429 0)
(2 -8.98495e-14 0)
(2 8.14213e-14 0)
(2 1.88501e-13 0)
(1.83122 0.228884 0)
(2.10568 -0.270446 0)
(2 2.33793e-14 0)
(1.83219 0.229638 0)
(2 5.0907e-14 0)
(2 -3.61032e-14 0)
(2.09633 -0.209243 0)
(2.08486 -0.215895 0)
(2 -1.1253e-13 0)
(2.1111 -0.260853 0)
(2.12506 -0.26035 0)
(2 1.49621e-13 0)
(2 1.28245e-14 0)
(2 -1.18018e-13 0)
(2 3.63162e-14 0)
(2 -9.76638e-11 0)
(2 -5.96854e-14 0)
(2 -9.07577e-14 0)
(1.83153 0.228491 0)
(1.95983 0.0607308 0)
(1.83925 0.230726 0)
(2.07742 -0.272725 0)
(2.03318 -0.0665386 0)
(1.83025 0.228427 0)
(2 -5.55471e-13 0)
(1.82887 0.227581 0)
(1.82932 0.228364 0)
(2.12455 -0.269305 0)
(2.08148 -0.152971 0)
(2 6.85046e-13 0)
(2.08183 -0.26973 0)
(2 -1.36479e-14 0)
(1.82196 0.233464 0)
(2 -9.28346e-14 0)
(2 7.46956e-14 0)
(2 2.40899e-14 0)
(2 4.37727e-14 0)
(1.83131 0.228728 0)
(2 -1.38779e-13 0)
(2 3.34878e-14 0)
(2 -4.57236e-14 0)
(2 1.48139e-09 0)
(2 -7.80961e-14 0)
(2 -2.07881e-13 0)
(2 6.5394e-14 0)
(1.93622 0.0961374 0)
(1.82687 0.228829 0)
(2 1.7819e-13 0)
(1.83149 0.229117 0)
(2 6.12558e-14 0)
(2 -6.47992e-14 0)
(2.10791 -0.264389 0)
(2 1.68487e-14 0)
(2 1.76241e-15 0)
(2 5.70787e-14 0)
(2 -1.42798e-13 0)
(1.83124 0.228798 0)
(1.87053 0.183424 0)
(2 -1.18353e-13 0)
(2 -1.17729e-13 0)
(2.10885 -0.263367 0)
(1.83217 0.229204 0)
(1.83147 0.229062 0)
(2 -2.34002e-13 0)
(1.8315 0.229127 0)
(1.83207 0.229053 0)
(1.83119 0.229055 0)
(2 -3.92609e-14 0)
(2.0445 -0.116015 0)
(2 -2.58187e-13 0)
(1.83154 0.228355 0)
(1.99563 -0.0109949 0)
(1.83127 0.229152 0)
(2 -6.51217e-14 0)
(2.08832 -0.267487 0)
(2.00034 -0.000609749 0)
(1.82962 0.228124 0)
(2 -6.39369e-14 0)
(2 1.39883e-13 0)
(2 -6.8457e-11 0)
(2 -1.95662e-11 0)
(2.11351 -0.261686 0)
(1.83183 0.228657 0)
(1.84273 0.209478 0)
(2 2.23264e-13 0)
(1.83139 0.229562 0)
(1.83143 0.228504 0)
(1.82907 0.228453 0)
(2 2.84767e-14 0)
(1.91658 0.116785 0)
(1.83226 0.228917 0)
(2 -4.02132e-13 0)
(2 1.51093e-13 0)
(1.88408 0.164997 0)
(1.97879 0.0369359 0)
(1.8314 0.228981 0)
(2.01721 -0.0460135 0)
(1.83126 0.228956 0)
(2 8.70845e-15 0)
(1.83117 0.229061 0)
(1.83162 0.229125 0)
(1.83108 0.229062 0)
(1.83214 0.229165 0)
(2 1.3174e-13 0)
(1.83993 0.223082 0)
(2.03091 -0.0638341 0)
(2.03933 -0.0765713 0)
(2 -2.43258e-14 0)
(2 -3.69894e-07 0)
(2 6.08546e-14 0)
(2 -2.91664e-13 0)
(1.83112 0.230489 0)
(2 1.23406e-13 0)
(2 1.23655e-13 0)
(2 -1.8166e-13 0)
(2 9.81141e-14 0)
(2 7.41671e-14 0)
(1.8293 0.228181 0)
(2 -2.57533e-14 0)
(2 1.05779e-13 0)
(2.00163 -0.00286537 0)
(1.83171 0.22906 0)
(1.86472 0.189754 0)
(2 7.0552e-14 0)
(1.8652 0.190836 0)
(1.99998 2.70949e-05 0)
(2 1.67002e-13 0)
(2 -7.63705e-14 0)
(1.83182 0.229273 0)
(2 1.62144e-13 0)
(2.00175 -0.00138695 0)
(1.99777 0.00430959 0)
(2 4.62322e-14 0)
(1.83156 0.229408 0)
(2 -3.06118e-14 0)
(1.83159 0.229396 0)
(2 1.00252e-13 0)
(2 -1.44128e-14 0)
(1.87597 0.178163 0)
(2 1.06132e-13 0)
(1.83169 0.229018 0)
(1.99999 1.27958e-05 0)
(2 -2.38397e-13 0)
(1.83232 0.227727 0)
(2 6.76182e-14 0)
(1.83154 0.228973 0)
(2 -4.62125e-14 0)
(2 2.89646e-06 0)
(2 -3.08557e-14 0)
(1.83153 0.228648 0)
(2 -1.45062e-14 0)
(1.82956 0.231876 0)
(2 4.60934e-06 0)
(1.8312 0.228676 0)
(1.83117 0.228895 0)
(1.83164 0.229449 0)
(1.83157 0.228896 0)
(2 2.09624e-13 0)
(1.83009 0.229504 0)
(1.83388 0.226012 0)
(2 1.42725e-13 0)
(2.1128 -0.264719 0)
(1.84168 0.21687 0)
(1.86943 0.166958 0)
(2 1.0713e-13 0)
(1.83184 0.228818 0)
(2 -1.93771e-14 0)
(2.11082 -0.266226 0)
(2.13107 -0.25794 0)
(2 7.13611e-14 0)
(2 8.99896e-14 0)
(2 1.33108e-13 0)
(2 2.1723e-13 0)
(2 1.17679e-09 0)
(2.09777 -0.272436 0)
(2 -3.75308e-14 0)
(1.83148 0.229187 0)
(1.95126 0.0707346 0)
(1.83199 0.229315 0)
(2 -1.38969e-13 0)
(2 7.49356e-11 0)
(2 -1.22089e-13 0)
(2 -1.47676e-13 0)
(2 -4.99181e-08 0)
(1.83152 0.229106 0)
(2 -2.26242e-14 0)
(1.8324 0.228805 0)
(1.89831 0.148727 0)
(2.06803 -0.152264 0)
(2 1.32119e-09 0)
(1.99999 7.53716e-06 0)
(1.95273 0.075007 0)
(1.96183 0.0664584 0)
(2 3.70924e-14 0)
(2 9.39099e-14 0)
(1.95286 0.0952965 0)
(2 -8.2824e-15 0)
(2.10479 -0.261913 0)
(1.83179 0.228659 0)
(1.83187 0.228802 0)
(2 -6.6794e-11 0)
(2 -6.97404e-14 0)
(2 2.25018e-14 0)
(1.83097 0.228862 0)
(2 1.30907e-16 0)
(1.99999 1.58498e-05 0)
(1.83212 0.229285 0)
(1.83196 0.228882 0)
(2.01203 -0.0316153 0)
(2 7.55756e-14 0)
(2 1.56366e-10 0)
(2.10199 -0.260661 0)
(1.84644 0.212351 0)
(2 -2.18158e-14 0)
(2 5.44884e-14 0)
(2 -8.5306e-15 0)
(2 -2.80575e-11 0)
(2 -2.29082e-13 0)
(1.83155 0.228972 0)
(1.82988 0.229015 0)
(2 -4.33711e-14 0)
(1.83229 0.227389 0)
(1.82993 0.230855 0)
(1.83138 0.229345 0)
(2 -1.22546e-14 0)
(2 -6.55066e-14 0)
(2 -6.34481e-11 0)
(2 -9.36517e-14 0)
(2.13477 -0.257215 0)
(1.8304 0.228576 0)
(2 -5.16937e-11 0)
(2 1.69927e-14 0)
(1.84761 0.211539 0)
(1.83203 0.228491 0)
(2 3.49797e-14 0)
(1.84253 0.218058 0)
(1.82594 0.227983 0)
(2 4.72877e-14 0)
(2 -2.1341e-07 0)
(2 1.17753e-10 0)
(2 3.2149e-14 0)
(2 -1.2278e-13 0)
(1.8316 0.229301 0)
(2 2.10043e-13 0)
(2 -2.70037e-14 0)
(2 1.64094e-13 0)
(2 -1.49299e-13 0)
(1.82998 0.231079 0)
(2 -6.18999e-15 0)
(1.83314 0.232775 0)
(2.08747 -0.270082 0)
(2 9.84027e-14 0)
(2.13792 -0.258699 0)
(2 6.20354e-14 0)
(2 -1.61479e-07 0)
(2 6.64738e-14 0)
(2.00123 -0.00163915 0)
(2.12118 -0.266587 0)
(2.00032 -0.000485564 0)
(2 -8.86448e-14 0)
(2 4.93986e-15 0)
(2 -1.1542e-07 0)
(1.97253 0.040465 0)
(2 -7.57735e-14 0)
(2 8.8093e-14 0)
(2.04394 -0.0892363 0)
(2 -2.03343e-07 0)
(2 2.20837e-14 0)
(2 1.95066e-13 0)
(2 -2.08549e-07 0)
(2 4.03405e-07 0)
(2 -3.63348e-08 0)
(2 9.27947e-15 0)
(2 -1.62051e-06 0)
(2.02608 -0.0483329 0)
(2 -4.7061e-07 0)
(2 -3.88926e-08 0)
(2.0009 -0.00141322 0)
(2 -4.32782e-15 0)
(2.11209 -0.260937 0)
(2 -2.80054e-11 0)
(2 -3.83933e-12 0)
(2 -5.24251e-11 0)
(2 1.32138e-13 0)
(1.87328 0.18008 0)
(2 -2.06249e-15 0)
(2 -2.14328e-13 0)
(2 -3.00845e-14 0)
(2 -1.68938e-07 0)
(2.09889 -0.265306 0)
(2 -2.15073e-14 0)
(2 1.12563e-09 0)
(1.84109 0.217868 0)
(1.83078 0.228574 0)
(2 -2.75128e-07 0)
(2 -9.70151e-14 0)
(2 -1.14765e-07 0)
(2.03436 -0.0703819 0)
(2 -3.044e-13 0)
(2 4.19224e-10 0)
(2 -1.77116e-13 0)
(2 1.08137e-13 0)
(2 6.62117e-14 0)
(2 7.85759e-14 0)
(2.01292 -0.0343467 0)
(1.99457 0.00630822 0)
(1.8315 0.228849 0)
(2 9.95771e-14 0)
(2 -2.90555e-14 0)
(2 4.13611e-14 0)
(1.83172 0.227427 0)
(2.03694 -0.0662996 0)
(2 -4.76024e-09 0)
(2 -1.31459e-14 0)
(2 -8.00934e-15 0)
(1.83248 0.229532 0)
(1.83308 0.229623 0)
(2 -3.029e-08 0)
(2 5.32801e-06 0)
(2 2.78924e-09 0)
(2 -5.12225e-14 0)
(2 1.34804e-09 0)
(2 -1.23632e-13 0)
(2 3.49062e-12 0)
(2 1.25022e-13 0)
(2 -4.57635e-14 0)
(2.11942 -0.26408 0)
(2 1.34419e-13 0)
(2 -1.4804e-11 0)
(1.8294 0.22806 0)
(2.0783 -0.263175 0)
(2 1.14576e-13 0)
(1.82999 0.228282 0)
(2 7.67431e-11 0)
(2.11318 -0.264455 0)
(2 -1.25996e-13 0)
(2 -1.61151e-13 0)
(2.12208 -0.264032 0)
(2 -8.30189e-14 0)
(2 -1.12261e-11 0)
(2 -5.4014e-12 0)
(2 -7.75388e-14 0)
(2 -2.07097e-12 0)
(2 -8.41743e-14 0)
(2 8.00353e-14 0)
(1.83449 0.225331 0)
(1.83205 0.228906 0)
(2 2.87298e-13 0)
(2 -8.28794e-14 0)
(2 -2.36717e-14 0)
(2 3.70842e-13 0)
(1.84617 0.21215 0)
(2 2.98018e-13 0)
(1.94681 0.0737134 0)
(2.11298 -0.262104 0)
(2 -3.36633e-08 0)
(2 2.40767e-13 0)
(2 -1.26552e-13 0)
(2 -1.11338e-13 0)
(2 -5.54949e-14 0)
(2 -8.16537e-14 0)
(2 -1.33965e-13 0)
(1.98427 0.0211422 0)
(2 -1.10508e-13 0)
(2 -9.90781e-14 0)
(1.90431 0.132181 0)
(2 4.11479e-14 0)
(2 -1.44128e-13 0)
(2 -9.06748e-14 0)
(1.86316 0.188864 0)
(2 -1.18162e-13 0)
(2 -1.04895e-13 0)
(2 -2.67868e-13 0)
(2 -6.37932e-14 0)
(2.08812 -0.267472 0)
(2 1.9163e-12 0)
(2 4.1102e-15 0)
(2.12847 -0.27804 0)
(2.08786 -0.273689 0)
(2 -5.66829e-14 0)
(2 4.74119e-14 0)
(1.83164 0.228259 0)
(2 6.35556e-14 0)
(1.99736 -0.0121552 0)
(2 -5.33633e-14 0)
(2 4.4661e-14 0)
(2 -9.13122e-14 0)
(1.8835 0.166379 0)
(2.12025 -0.265838 0)
(2 -9.20025e-14 0)
(2.11979 -0.280818 0)
(2 -6.11783e-14 0)
(2.07203 -0.1522 0)
(2 4.68662e-14 0)
(2 1.79266e-13 0)
(2 1.03664e-13 0)
(1.83043 0.227959 0)
(2 -4.36274e-08 0)
(2 -1.84781e-13 0)
(1.83155 0.229349 0)
(2 -9.29197e-14 0)
(2 -1.51148e-11 0)
(2 1.53493e-09 0)
(1.83156 0.229311 0)
(2 2.6804e-10 0)
(2 3.52492e-15 0)
(1.83123 0.228924 0)
(2 -1.59719e-13 0)
(2 -5.5321e-14 0)
(2.12513 -0.265296 0)
(2 -1.71634e-11 0)
(1.94786 0.0763388 0)
(2 -9.47318e-14 0)
(2 -2.48909e-13 0)
(1.82922 0.228394 0)
(1.83078 0.228639 0)
(1.88788 0.159658 0)
(1.84779 0.209196 0)
(2 3.79252e-14 0)
(2.0921 -0.269472 0)
(2 -1.70342e-13 0)
(2 5.42176e-14 0)
(1.83943 0.220374 0)
(2 1.27203e-13 0)
(2.10785 -0.266239 0)
(2 3.3769e-14 0)
(2 -1.20952e-13 0)
(2 -3.55192e-14 0)
(1.83191 0.229212 0)
(2 -8.03873e-14 0)
(2 1.08637e-13 0)
(2 -8.59401e-15 0)
(2 -2.5135e-14 0)
(1.89759 0.148593 0)
(2 -3.94825e-14 0)
(1.83723 0.232292 0)
(1.83115 0.230803 0)
(2.08302 -0.267163 0)
(2 1.7041e-13 0)
(2 -1.04355e-13 0)
(2.15317 -0.250753 0)
(2.15384 -0.254738 0)
(2 -2.57633e-14 0)
(2 4.99782e-15 0)
(2 -5.32071e-12 0)
(1.88094 0.168405 0)
(1.87289 0.181973 0)
(2 -1.14692e-13 0)
(2 1.13124e-13 0)
(2 -1.58652e-13 0)
(2 4.98669e-14 0)
(2 1.10224e-13 0)
(2 4.37331e-14 0)
(2 -3.0019e-14 0)
(1.92274 0.112734 0)
(1.83155 0.228781 0)
(1.99461 0.00053974 0)
(2 -7.37794e-14 0)
(1.83577 0.22601 0)
(2.12484 -0.26463 0)
(2 1.1264e-13 0)
(2 1.25383e-13 0)
(2 -3.33142e-14 0)
(1.90523 0.135287 0)
(2 -5.86724e-14 0)
(1.9656 0.0547573 0)
(2 -5.28977e-14 0)
(1.84677 0.21235 0)
(1.83554 0.228681 0)
(2 -1.53986e-13 0)
(2.08697 -0.264727 0)
(2 4.57242e-14 0)
(1.83016 0.228756 0)
(2 -6.13161e-14 0)
(2 7.19749e-14 0)
(1.83086 0.228649 0)
(1.84357 0.218135 0)
(2 3.98245e-14 0)
(1.82563 0.229268 0)
(2 -7.24804e-14 0)
(2.08658 -0.273933 0)
(2 1.56949e-14 0)
(2 -3.14668e-14 0)
(2 -5.87631e-15 0)
(1.83485 0.230744 0)
(1.83394 0.225387 0)
(1.85178 0.20686 0)
(2 6.51621e-14 0)
(1.82909 0.228418 0)
(1.8316 0.229001 0)
(2 -5.437e-14 0)
(1.83159 0.229398 0)
(2 -8.33995e-09 0)
(1.83454 0.227858 0)
(2 -1.86868e-13 0)
(2.10646 -0.263527 0)
(2.01072 -0.0166417 0)
(2.11125 -0.27128 0)
(2 -3.42332e-11 0)
(2 -2.3248e-11 0)
(2 -3.54541e-11 0)
(2 -1.22357e-13 0)
(2 -1.4078e-11 0)
(1.8318 0.229364 0)
(2 -1.88336e-14 0)
(1.83154 0.229424 0)
(2 -2.49159e-11 0)
(2 -9.53951e-11 0)
(2 5.5317e-15 0)
(1.83899 0.219481 0)
(2 1.17997e-13 0)
(2.12407 -0.266602 0)
(1.8315 0.229338 0)
(2 -6.0239e-15 0)
(2.08742 -0.256209 0)
(2.0995 -0.243477 0)
(2.10389 -0.265021 0)
(2 -1.67976e-13 0)
(1.91712 0.122087 0)
(1.98566 0.0242629 0)
(1.83019 0.229978 0)
(1.83157 0.228807 0)
(2 1.54502e-13 0)
(2 -3.56552e-07 0)
(2 -8.41574e-08 0)
(2 -1.15943e-13 0)
(1.83158 0.228857 0)
(2 -3.14392e-15 0)
(2 7.98543e-14 0)
(1.83155 0.228887 0)
(1.83167 0.22888 0)
(2 -1.58389e-13 0)
(1.94701 0.0918628 0)
(2.00009 0.000761882 0)
(2 1.68435e-14 0)
(2.00118 -0.00201076 0)
(1.8261 0.227845 0)
(2.05046 -0.099537 0)
(2 -1.22162e-07 0)
(2.06005 -0.124618 0)
(2.1043 -0.260897 0)
(2.10522 -0.262137 0)
(2.0097 -0.0741489 0)
(1.83394 0.229816 0)
(1.83565 0.225896 0)
(1.96604 0.0532116 0)
(1.83041 0.228254 0)
(1.83167 0.228809 0)
(2 -1.61802e-14 0)
(2 5.21211e-14 0)
(1.83213 0.228561 0)
(1.83032 0.227858 0)
(1.83146 0.22943 0)
(1.82821 0.227907 0)
(2 1.17915e-13 0)
(1.83536 0.229208 0)
(2.11747 -0.267013 0)
(1.82963 0.230101 0)
(1.83023 0.229867 0)
(1.83101 0.228195 0)
(1.83292 0.227837 0)
(2.04251 -0.0889993 0)
(2.03314 -0.0672147 0)
(2.02565 -0.0500583 0)
(1.83114 0.228677 0)
(2.01366 -0.0278389 0)
(1.83072 0.228145 0)
(2 3.84241e-14 0)
(2 1.40214e-14 0)
(1.834 0.23019 0)
(1.83123 0.228899 0)
(2 5.27565e-14 0)
(2.07812 -0.267108 0)
(1.8315 0.228536 0)
(1.83176 0.228718 0)
(2 1.64959e-13 0)
(1.83183 0.228505 0)
(1.83173 0.228225 0)
(2 -4.95267e-14 0)
(1.83172 0.229109 0)
(2.09256 -0.257122 0)
(1.8306 0.228994 0)
(1.83253 0.22897 0)
(1.82975 0.228593 0)
(1.83187 0.227704 0)
(2 6.26369e-14 0)
(2 -2.57377e-14 0)
(2 -9.97996e-08 0)
(1.83162 0.228608 0)
(1.8914 0.157731 0)
(2.12968 -0.237918 0)
(1.8317 0.229274 0)
(2.1184 -0.275742 0)
(1.83155 0.228472 0)
(2 1.5684e-14 0)
(2 5.60894e-14 0)
(2 -4.34599e-14 0)
(2 -6.10515e-14 0)
(1.83056 0.228888 0)
(1.83167 0.229429 0)
(2 1.55685e-13 0)
(2 2.25333e-14 0)
(1.8318 0.229241 0)
(2.122 -0.266418 0)
(1.83122 0.228703 0)
(2.11009 -0.26386 0)
(2 5.99222e-14 0)
(1.83133 0.227762 0)
(2 6.39181e-15 0)
(2.07852 -0.270247 0)
(1.83051 0.228945 0)
(2.09076 -0.183701 0)
(2 -1.2699e-14 0)
(1.83156 0.228991 0)
(1.82991 0.22919 0)
(1.83149 0.228996 0)
(2 -1.62933e-13 0)
(2 5.28976e-14 0)
(1.91646 0.122183 0)
(1.83019 0.229141 0)
(2.1229 -0.267101 0)
(1.83164 0.228557 0)
(2 1.59141e-15 0)
(1.83098 0.229354 0)
(2.03985 -0.0769941 0)
(1.8313 0.229095 0)
(2.12542 -0.259792 0)
(2 -2.28335e-14 0)
(1.83066 0.230651 0)
(2.09207 -0.240037 0)
(1.8337 0.230151 0)
(2.11212 -0.262872 0)
(2 -3.63844e-14 0)
(1.83168 0.229055 0)
(2 1.46809e-13 0)
(1.82793 0.229137 0)
(2 -1.43612e-13 0)
(1.91322 0.147999 0)
(1.83737 0.221993 0)
(1.86809 0.188174 0)
(2.15484 -0.263527 0)
(2 -6.38041e-14 0)
(1.83085 0.228643 0)
(2 -1.04648e-13 0)
(1.83557 0.230434 0)
(2 -1.17956e-07 0)
(1.83147 0.229118 0)
(2 -2.4549e-07 0)
(2 -2.7164e-13 0)
(1.83108 0.228629 0)
(1.99932 -0.0127099 0)
(1.83146 0.229954 0)
(2.06966 -0.27328 0)
(1.85726 0.210915 0)
(2 -8.44609e-14 0)
(1.88472 0.167437 0)
(2 -1.04363e-13 0)
(1.83045 0.228341 0)
(1.83156 0.229154 0)
(1.83093 0.228471 0)
(2 -1.91462e-13 0)
(1.84928 0.209895 0)
(1.83107 0.228936 0)
(1.84235 0.214779 0)
(1.89497 0.154233 0)
(1.83367 0.231091 0)
(2 -1.36553e-13 0)
(1.88782 0.161315 0)
(2 -5.73107e-14 0)
(1.83092 0.229184 0)
(2 -1.65905e-13 0)
(1.97502 0.0375704 0)
(2 9.85645e-14 0)
(1.84363 0.216196 0)
(2 9.65842e-14 0)
(1.83604 0.230257 0)
(1.83979 0.219933 0)
(1.83855 0.21992 0)
(2 4.30761e-14 0)
(1.82496 0.222234 0)
(2.14028 -0.258648 0)
(2 -1.87634e-13 0)
(2.08961 -0.26913 0)
(2 -3.47626e-14 0)
(2 -1.22724e-13 0)
(2 9.30121e-15 0)
(1.82957 0.228529 0)
(2 1.3569e-13 0)
(1.83191 0.229713 0)
(2 4.59224e-14 0)
(2 6.2159e-14 0)
(2 6.46747e-14 0)
(1.83151 0.229486 0)
(1.82171 0.230257 0)
(1.85505 0.184911 0)
(1.83059 0.229489 0)
(1.83154 0.227904 0)
(2.13625 -0.256964 0)
(1.83666 0.230022 0)
(1.82824 0.228812 0)
(2 -5.09032e-14 0)
(1.84167 0.200462 0)
(1.83174 0.22885 0)
(1.83342 0.220713 0)
(2 -1.32347e-13 0)
(1.83019 0.22868 0)
(1.83008 0.228852 0)
(2 -1.82553e-13 0)
(1.82783 0.230028 0)
(1.8315 0.228443 0)
(1.83068 0.228512 0)
(1.83097 0.229143 0)
(2 -1.81867e-13 0)
(2 1.15852e-13 0)
(2 1.21134e-13 0)
(1.82689 0.227823 0)
(2.13793 -0.251615 0)
(2 2.62741e-14 0)
(1.83133 0.229091 0)
(2 1.23643e-13 0)
(2 3.7724e-13 0)
(2.12751 -0.25684 0)
(2 7.98993e-14 0)
(2 2.79048e-13 0)
(1.83173 0.228681 0)
(1.83166 0.229304 0)
(2 6.79373e-14 0)
(1.83182 0.228955 0)
(1.82324 0.23272 0)
(1.82963 0.228009 0)
(2.00412 -0.0106021 0)
(1.83134 0.229057 0)
(2 -2.02944e-14 0)
(1.83136 0.229102 0)
(1.83146 0.229113 0)
(1.86881 0.188115 0)
(2 2.72964e-14 0)
(2 -7.40203e-14 0)
(2 2.01734e-14 0)
(1.83162 0.228464 0)
(1.83126 0.229293 0)
(1.83149 0.229017 0)
(2.02082 -0.0414833 0)
(2 -1.02475e-13 0)
(1.83017 0.232366 0)
(1.83129 0.228964 0)
(1.83103 0.228422 0)
(2 -1.58328e-14 0)
(1.83152 0.228801 0)
(1.83092 0.229093 0)
(1.83176 0.228847 0)
(1.83004 0.23267 0)
(2 -8.29587e-14 0)
(1.83145 0.229306 0)
(1.83035 0.227535 0)
(1.85511 0.203957 0)
(1.83063 0.23029 0)
(1.83055 0.231967 0)
(2 -6.84076e-14 0)
(1.83128 0.231117 0)
(1.83331 0.226942 0)
(1.83154 0.22906 0)
(1.83047 0.23008 0)
(1.83113 0.229043 0)
(2.14916 -0.253949 0)
(1.83064 0.228693 0)
(1.83083 0.230688 0)
(2 -3.11992e-14 0)
(1.8317 0.229322 0)
(1.83157 0.229005 0)
(1.83192 0.228896 0)
(1.83129 0.228946 0)
(2 -6.32653e-08 0)
(1.83157 0.229444 0)
(1.83139 0.228904 0)
(2 -1.72986e-07 0)
(1.83156 0.228926 0)
(1.8592 0.197076 0)
(2 3.1029e-14 0)
(2 1.37633e-14 0)
(2 1.82387e-09 0)
(1.83173 0.230019 0)
(1.83231 0.229629 0)
(2 5.40908e-14 0)
(2 7.5997e-14 0)
(1.90856 0.130828 0)
(2 -2.06183e-13 0)
(1.83162 0.228655 0)
(2 8.73069e-15 0)
(2 3.21786e-14 0)
(1.83179 0.228944 0)
(1.83189 0.229343 0)
(1.83153 0.228724 0)
(1.83153 0.228623 0)
(2 1.21118e-14 0)
(2 3.40585e-14 0)
(2 5.00437e-14 0)
(1.88326 0.167077 0)
(2 1.56515e-13 0)
(1.83388 0.229696 0)
(2 6.49695e-14 0)
(2 1.27803e-13 0)
(1.82844 0.228314 0)
(1.83295 0.228846 0)
(2 3.7034e-14 0)
(1.83171 0.22895 0)
(2.09227 -0.283839 0)
(1.83155 0.229043 0)
(1.8324 0.228861 0)
(2.08158 -0.205387 0)
(2 -4.82079e-14 0)
(2.14153 -0.264253 0)
(1.85194 0.206048 0)
(1.83308 0.227762 0)
(1.83368 0.229588 0)
(1.82696 0.228356 0)
(2.08484 -0.275478 0)
(1.83077 0.228828 0)
(1.83124 0.230158 0)
(2.09699 -0.271058 0)
(2.13117 -0.273924 0)
(2 -2.6851e-07 0)
(1.83441 0.230216 0)
(1.83199 0.229699 0)
(2 -6.85783e-14 0)
(2 -1.15004e-14 0)
(1.83154 0.22929 0)
(2 1.66527e-13 0)
(1.83291 0.228491 0)
(2 2.6309e-06 0)
(1.85355 0.205119 0)
(2 7.74199e-14 0)
(1.93452 0.123692 0)
(1.83187 0.229149 0)
(1.82986 0.229054 0)
(1.87599 0.174609 0)
(1.85387 0.203141 0)
(1.8286 0.228459 0)
(1.83035 0.229323 0)
(1.84664 0.213544 0)
(2 -2.17881e-13 0)
(2.12295 -0.261566 0)
(1.82725 0.227972 0)
(1.83161 0.22982 0)
(1.82888 0.230934 0)
(2 7.37517e-06 0)
(2 3.75718e-10 0)
(2 1.3306e-09 0)
(1.83255 0.230879 0)
(2 -6.55456e-14 0)
(1.83243 0.228975 0)
(1.83139 0.228531 0)
(2.07493 -0.177825 0)
(2 5.44269e-14 0)
(1.83123 0.22891 0)
(2.00002 -4.05709e-05 0)
(2 -1.21435e-13 0)
(1.99999 1.90892e-05 0)
(1.99998 2.56525e-05 0)
(1.83189 0.22963 0)
(1.83117 0.228742 0)
(2.00055 -0.000928339 0)
(2 6.7005e-14 0)
(2 1.56598e-14 0)
(1.83515 0.230007 0)
(1.83096 0.229467 0)
(1.82973 0.228408 0)
(1.83176 0.227781 0)
(1.83038 0.229743 0)
(2.13403 -0.238283 0)
(1.85567 0.19945 0)
(2 1.73763e-13 0)
(1.8317 0.227902 0)
(1.83159 0.228824 0)
(1.83237 0.228694 0)
(1.84004 0.223932 0)
(2 1.8558e-13 0)
(1.83201 0.229029 0)
(1.83463 0.223569 0)
(1.83164 0.229445 0)
(2 1.45295e-13 0)
(1.83102 0.228425 0)
(1.83057 0.229742 0)
(2.04589 -0.101038 0)
(1.83198 0.22861 0)
(1.83101 0.22853 0)
(2 -2.16398e-14 0)
(1.83371 0.229017 0)
(2.05873 -0.108676 0)
(1.83114 0.228724 0)
(2.04323 -0.10366 0)
(1.83156 0.228896 0)
(2 -1.09911e-07 0)
(1.83287 0.229773 0)
(1.825 0.234652 0)
(1.83179 0.229272 0)
(1.8315 0.229085 0)
(1.83187 0.229218 0)
(1.83322 0.22955 0)
(1.83174 0.229306 0)
(1.82934 0.227294 0)
(2 -1.61983e-13 0)
(2.02177 -0.0514834 0)
(1.83084 0.228554 0)
(1.83215 0.229287 0)
(2.06071 -0.105246 0)
(1.8318 0.228937 0)
(2.00335 -0.0134186 0)
(1.89459 0.154444 0)
(1.83094 0.228849 0)
(1.83152 0.228279 0)
(1.82935 0.2287 0)
(2 1.18549e-13 0)
(1.83138 0.229829 0)
(1.89391 0.151423 0)
(1.83167 0.228545 0)
(2.02481 -0.0562129 0)
(1.83141 0.229736 0)
(1.82718 0.230158 0)
(2 -3.00913e-15 0)
(2.05026 -0.0865628 0)
(2 -8.22367e-10 0)
(1.839 0.228288 0)
(2 3.83372e-14 0)
(1.8761 0.164143 0)
(2 4.63827e-09 0)
(1.83465 0.220274 0)
(2.03973 -0.0876178 0)
(2 1.16154e-13 0)
(1.83406 0.22885 0)
(1.83383 0.230602 0)
(2 -4.01688e-14 0)
(1.83096 0.230803 0)
(1.82987 0.229553 0)
(1.82787 0.230411 0)
(1.83743 0.225456 0)
(1.82666 0.228668 0)
(2 -2.84393e-14 0)
(1.831 0.228632 0)
(2 2.25503e-14 0)
(2 -7.40685e-14 0)
(2 1.06103e-14 0)
(2.0278 -0.0710066 0)
(1.83232 0.229285 0)
(1.83194 0.229028 0)
(1.83062 0.22922 0)
(1.83203 0.229005 0)
(1.83309 0.228243 0)
(1.83067 0.230272 0)
(1.83283 0.230099 0)
(1.83189 0.229725 0)
(2.01977 -0.0746915 0)
(1.98801 0.0236597 0)
(2 3.71229e-09 0)
(2 1.15238e-13 0)
(1.82613 0.231367 0)
(1.83173 0.229445 0)
(1.83126 0.228605 0)
(1.83155 0.228764 0)
(1.99999 1.64773e-05 0)
(1.91883 0.120813 0)
(2 -1.64346e-07 0)
(1.82782 0.230636 0)
(1.85284 0.209201 0)
(2 -3.80555e-12 0)
(2 -5.40277e-11 0)
(2.07189 -0.199396 0)
(1.83146 0.2291 0)
(2 1.74322e-13 0)
(2 6.13028e-14 0)
(2.0918 -0.262772 0)
(1.83133 0.228861 0)
(2 1.80311e-13 0)
(1.82971 0.22877 0)
(1.83141 0.228826 0)
(1.82833 0.228652 0)
(1.84042 0.222337 0)
(1.83214 0.229203 0)
(2 -1.14861e-10 0)
(2.15458 -0.260547 0)
(1.95654 0.0672354 0)
(1.83114 0.22848 0)
(1.83119 0.228475 0)
(2 -6.03621e-14 0)
(1.82941 0.228089 0)
(1.83175 0.228768 0)
(1.91456 0.120292 0)
(1.99972 0.00497366 0)
(1.96368 0.0576081 0)
(2 -1.6852e-13 0)
(1.82794 0.228054 0)
(1.83154 0.229289 0)
(2 -1.22445e-07 0)
(2 -2.12142e-10 0)
(2.1118 -0.269 0)
(2 -2.32795e-10 0)
(2 -9.49665e-14 0)
(1.8319 0.229247 0)
(1.83134 0.229134 0)
(1.8301 0.230352 0)
(1.82766 0.227603 0)
(1.83125 0.228741 0)
(1.82933 0.229726 0)
(1.83108 0.22912 0)
(1.82785 0.227295 0)
(1.83156 0.228982 0)
(2 4.27854e-14 0)
(2.00158 -0.00250724 0)
(1.83079 0.228978 0)
(1.83127 0.228312 0)
(2.00112 -0.00188541 0)
(1.83152 0.229017 0)
(1.83152 0.228964 0)
(2.15683 -0.253915 0)
(2.09101 -0.273995 0)
(1.82896 0.226726 0)
(1.8279 0.229377 0)
(2 1.01816e-13 0)
(2 2.07341e-13 0)
(1.99913 0.00224185 0)
(1.83129 0.229211 0)
(1.82982 0.230205 0)
(1.83132 0.22881 0)
(2 1.04615e-09 0)
(1.8317 0.228719 0)
(2 -6.04927e-14 0)
(2.0411 -0.095153 0)
(1.82808 0.23088 0)
(1.82778 0.229238 0)
(2 1.00585e-13 0)
(1.92657 0.108428 0)
(1.83215 0.229317 0)
(2 -2.46414e-14 0)
(1.82821 0.229935 0)
(2 -9.81916e-11 0)
(1.83134 0.229286 0)
(1.89232 0.163561 0)
(1.83151 0.230464 0)
(2 7.64926e-12 0)
(1.83254 0.228312 0)
(1.83215 0.231974 0)
(2.12316 -0.261077 0)
(1.83173 0.229344 0)
(2 -1.37882e-07 0)
(1.83088 0.228912 0)
(1.83147 0.228814 0)
(2 7.14374e-09 0)
(2.15546 -0.252047 0)
(1.8317 0.227914 0)
(1.87112 0.197208 0)
(2.0008 -0.0012911 0)
(1.84239 0.229371 0)
(1.83155 0.229061 0)
(2 -4.60797e-12 0)
(1.9957 7.27399e-05 0)
(1.82955 0.233256 0)
(2.0022 -0.00228186 0)
(1.8319 0.228896 0)
(2 -3.67037e-12 0)
(2 7.83702e-14 0)
(1.83151 0.229831 0)
(2 6.99199e-14 0)
(1.83066 0.22909 0)
(1.83167 0.228754 0)
(2.00127 -0.00223245 0)
(1.87125 0.179415 0)
(2 3.03077e-09 0)
(1.83165 0.228904 0)
(2 1.18738e-09 0)
(2 -4.11587e-13 0)
(2 8.30872e-12 0)
(2 7.92124e-12 0)
(1.83166 0.228658 0)
(2 6.94338e-09 0)
(2 -2.13155e-13 0)
(1.83965 0.226522 0)
(2 2.40028e-13 0)
(1.83452 0.229398 0)
(2 2.9787e-10 0)
(1.89501 0.155608 0)
(1.83035 0.232047 0)
(1.832 0.228829 0)
(2 7.35893e-10 0)
(2 -1.74047e-13 0)
(2.00392 -0.00102771 0)
(2 2.90987e-12 0)
(1.83164 0.228546 0)