/*--------------------------------*- C++ -*----------------------------------*\
  =========                 |
  \\      /  F ield         | OpenFOAM: The Open Source CFD Toolbox
   \\    /   O peration     | Website:  https://openfoam.org
    \\  /    A nd           | Version:  12
     \\/     M anipulation  |
\*---------------------------------------------------------------------------*/
FoamFile
{
    format      ascii;
    class       surfaceScalarField;
    location    "9.74";
    object      phi;
}
// * * * * * * * * * * * * * * * * * * * * * * * * * * * * * * * * * * * * * //

dimensions      [1 0 -1 0 0 0 0];

internalField   nonuniform List<scalar> 
33852
(
0.000251329
2.24281e-05
-0.000273757
-0.000246121
1.32441e-05
0.000232877
-0.000174827
-7.05175e-05
0.000248739
0.000304053
-0.000163969
-0.000140085
0.000293467
-4.28266e-05
-0.000250085
2.72441e-05
-0.000260681
0.000233437
0.000315197
1.47596e-05
-0.000329989
0.000304277
-9.59564e-05
-0.000208321
0.000286413
-3.50841e-05
0.000197169
1.87755e-06
-0.000199141
0.000289539
-0.000366467
7.69144e-05
0.00036062
-4.57164e-05
-4.39602e-05
0.000263285
-0.000219325
-4.39327e-05
0.000318149
-0.000274304
6.04122e-05
-0.000233171
0.000252057
1.2236e-05
-0.000264293
0.000264853
-1.2796e-05
-0.000278433
3.23121e-05
0.000340632
-5.11645e-05
0.000158593
0.000112308
-0.000270901
-2.43349e-05
0.000303299
-0.000278904
0.000271377
-0.000276165
4.78802e-06
-1.76812e-05
0.0002749
-0.000257117
-0.000223868
1.46242e-05
0.000209645
-0.000153546
-0.000183741
0.000337331
-0.000139363
-6.485e-05
0.000208438
3.72401e-05
0.000267037
-6.11354e-05
-0.000262992
0.00032413
-0.000207416
1.45162e-06
0.00019874
-0.000203584
-1.86441e-05
0.000142045
0.000137388
-0.000279433
0.000341031
1.93211e-05
0.000142618
0.000128347
-0.000270965
-0.000101136
0.000259729
-0.000250489
-3.78001e-06
0.000254269
0.000330727
-5.95945e-05
-0.000271158
-0.000357268
0.000203679
-0.000227126
0.000209507
0.000231645
3.32081e-05
-5.65602e-06
0.000237301
-8.58356e-06
0.000207467
-0.000232625
0.000259869
0.000316463
-5.72883e-05
-0.000259159
-0.000309093
5.51042e-05
0.000253989
0.000239982
-0.000301157
0.000273589
-0.000306321
3.27321e-05
-0.000180237
-5.49362e-05
0.000235173
0.000272133
-0.000272133
0.000148429
-0.000297473
0.000149045
-0.000212849
0.000217764
-7.27417e-06
-0.000268241
0.000237301
3.09401e-05
-0.000200367
0.000249374
-4.71959e-05
-9.16164e-05
-0.000217477
-0.000114485
-0.000252064
-0.000280169
0.000266113
1.40561e-05
0.000329188
1.18029e-05
-0.000250433
7.01963e-05
0.000117908
0.000145909
-0.000263817
1.34681e-05
-0.000267457
0.000253989
-0.000134569
0.000282997
-0.000153419
-5.09635e-05
0.000205208
-0.000274681
0.000245113
2.95681e-05
0.000237553
-0.000268437
3.08841e-05
-0.000194416
-2.37485e-05
0.000151665
0.000115565
-0.00026723
-0.000185684
-2.77993e-05
0.00021337
0.000263985
2.24281e-05
0.000275941
-2.35201e-06
0.000265329
-0.000250741
-1.45881e-05
0.000224208
-6.34997e-05
-0.000157974
-1.82001e-06
0.000239373
0.000366593
-0.000312616
-5.38881e-05
-2.82858e-05
0.000303578
-0.000275142
-0.000101584
0.000219493
0.000342781
2.41636e-05
-0.000372152
0.000354196
1.82989e-05
-0.000210342
2.19552e-05
0.000308674
-0.000321921
1.22485e-05
-0.000208966
0.000271731
-6.46522e-05
-4.45202e-06
1.71723e-05
-0.000319453
0.000302679
0.000234368
-0.000197962
-3.54918e-05
0.000269647
-0.000338433
6.99753e-05
0.000333998
-6.34971e-05
-0.000268941
0.000236573
3.23681e-05
-0.000129388
-0.000132609
0.000261997
-1.86761e-05
-0.000249565
-1.022e-05
-0.000258721
2.30996e-05
0.000211518
-0.00023203
3.15341e-05
-0.000217582
0.000187731
-2.49882e-05
0.000327558
-0.000302493
-0.000279329
0.000273701
5.62802e-06
0.000156129
-0.000296857
0.000140729
-5.886e-05
-0.000153166
0.000205366
0.000143277
0.0001218
-0.000265077
-0.000250126
0.000225785
-0.000216769
0.000149633
-0.000168813
0.000327181
-0.000158369
0.000185389
7.16523e-05
-0.000257041
0.000255193
2.07481e-05
-0.000192277
0.000148317
5.05463e-05
0.000265321
0.000307514
-0.000290071
8.65158e-05
-0.000225925
0.000135241
0.000117096
-0.000281065
-8.13106e-07
0.000244392
-0.000244006
0.000166489
0.000122836
-0.000289325
0.000144587
9.0165e-05
-3.92002e-06
0.000259113
0.000302635
5.45141e-06
-0.000323922
0.000314968
8.96498e-06
-3.99002e-05
0.000236293
-0.000196393
4.08802e-06
-0.000284257
-2.52489e-05
0.000166154
-0.000136966
-0.000155732
0.000136511
0.000207091
-0.000174533
-0.000269921
0.000264965
4.95602e-06
2.64041e-05
0.000174721
-0.000201125
2.87841e-05
-0.000257265
0.000228481
0.000276137
-0.000262669
0.000115108
0.000212073
0.000214085
-0.000188489
-0.000175813
0.000202217
1.36082e-05
0.000282867
-0.000296307
0.000271585
2.18137e-05
0.000271412
-0.000284486
1.23047e-05
3.86402e-06
0.000267513
-1.80866e-05
0.000289299
0.000330663
9.8764e-06
0.000213655
-0.000257589
0.000316264
-0.000316358
-6.63603e-06
-0.000272693
2.82345e-05
0.000200178
0.000187993
3.98722e-05
-0.000227865
-5.61941e-05
0.000221481
-0.000171552
0.000153609
-0.000270285
0.000116676
0.000279441
-0.000329701
5.02602e-05
-6.38122e-05
0.000249201
-0.000166909
0.000315897
-0.000148989
-0.000313846
-1.00826e-05
-0.000214929
0.000175029
2.78601e-05
-0.000278349
0.000276221
-1.88441e-05
-0.000248613
1.72424e-05
-0.000302946
0.000285752
0.000344989
-0.000158593
-0.000186397
-1.68879e-05
-0.000240907
0.000257899
-0.000266617
-3.30401e-06
0.000224001
2.45841e-05
-0.000248585
0.000284509
-0.000128381
0.000140197
0.000138853
-0.000279049
-0.000202012
-1.10614e-05
0.000258169
-0.000115551
0.0002256
-0.000242532
-6.38122e-05
0.000251805
-0.000209799
0.000249481
-5.60002e-07
-0.000248921
0.000255109
-0.000237441
-0.000324288
0.00029932
-3.08841e-05
0.000203169
-0.000172285
0.000291652
1.25225e-06
-0.000292891
7.96048e-05
0.000134622
-0.000210817
4.61166e-05
-0.000196156
-0.000288995
-4.6448e-06
0.000293892
-1.53882e-06
-0.000287452
0.000146973
-0.000273925
0.000126952
-0.000261777
0.000219969
-0.000294307
0.000266657
0.000279441
-0.000312756
-1.24583e-05
0.000325922
0.000110616
0.000160773
-2.13909e-05
0.000352074
0.000140141
0.000139833
-0.000279973
0.000245029
-0.000250349
5.32002e-06
-0.000210953
0.000180069
0.000279133
-5.43202e-06
0.000350802
-3.27449e-05
-0.000302218
0.000305667
-2.19779e-06
0.000270985
-0.000270985
-0.000364834
0.000225979
0.000138843
-0.00021647
2.08372e-05
1.69493e-05
0.000275157
-0.000278461
3.30401e-06
-5.15702e-06
0.000171066
-0.000166027
-0.000197345
0.000254801
-5.74562e-05
-0.000203593
4.5775e-06
-0.000228878
0.000155638
7.84417e-05
-0.000180265
0.0002614
-8.1134e-05
0.000256285
-0.000287113
3.08281e-05
-0.000249229
5.18842e-05
-2.37045e-05
0.000275876
-0.000252112
-0.000253547
1.35801e-06
0.000252189
0.000231281
-7.28003e-06
-0.000294355
7.57359e-06
0.000286784
-0.000266085
0.000266085
-0.000283386
-5.48267e-05
-0.000170719
-0.000194104
-0.000171221
0.000217052
-4.56079e-05
-1.232e-05
-0.000239177
0.000251497
3.10801e-06
0.000210113
-0.000213221
-0.000184978
-2.26389e-05
0.000208608
7.59413e-06
0.000294473
-0.000302052
-0.000236153
-1.34401e-05
0.000249593
1.50361e-05
-0.000251189
-0.000241025
0.000256061
-0.000301324
0.000308896
0.000256117
7.16803e-06
-0.000175757
-3.23389e-05
0.000205654
-0.000145237
-0.000134765
-0.000244329
0.000240549
0.000298618
-4.50412e-07
-0.000298166
-0.000298789
5.77033e-07
0.000298205
1.91209e-05
0.000181217
0.000163773
7.70044e-05
-0.000257269
-0.000159242
0.000310908
0.000250721
-0.000108677
-0.000235145
-1.83681e-05
0.000253513
-0.000204633
-0.000126857
0.000331492
-6.10402e-06
-0.000229125
0.000235229
-2.26826e-05
-0.000187574
-0.000286434
-8.54287e-05
6.31634e-06
-0.00030064
-0.000212566
0.000327817
-0.000115241
0.000281597
0.000288205
-5.16322e-05
0.000271993
-1.57081e-05
-0.000187438
-1.40443e-05
0.000200734
0.000297488
2.57463e-07
-0.00029794
-0.000269537
-3.24666e-05
-0.000218821
0.000247605
-2.52183e-05
0.000310518
-0.000285311
0.000183853
7.66925e-06
-0.000186285
-3.46856e-05
0.000220214
-0.000301243
0.000275999
0.000292102
5.18182e-06
-0.000297611
0.000157445
0.00011886
-0.000276305
0.000287368
5.88705e-06
-0.000292824
-0.000239792
0.000113394
0.000125134
-0.000281923
0.000295678
0.000302513
-0.000156857
-0.000145657
0.000207005
-0.000203897
-0.000232009
-0.000121156
-0.000155009
-4.06382e-06
-0.000294038
0.000298091
-1.0136e-05
0.000276249
0.000292641
-2.14291e-05
-0.000269958
-0.00026297
2.8887e-05
0.000234224
0.000271433
-0.000267569
0.000249621
2.95121e-05
0.000314974
-9.7444e-06
-0.000305219
5.08253e-05
0.00015883
-0.000216684
-9.76496e-05
0.00019754
-9.56696e-05
0.000252617
-2.91201e-05
-0.000223497
3.76557e-07
0.000291494
-0.00017856
-3.14733e-05
0.000201205
-1.89603e-06
0.000290938
-9.33244e-05
0.000246933
-0.000255417
-5.26402e-06
0.000121184
0.000181329
1.34121e-05
0.000241557
-0.000254969
0.000236097
1.34961e-05
-0.000249593
0.000249509
-0.000242929
0.000256425
6.26277e-05
-0.000202373
0.000137367
-0.000209808
0.000112649
-0.000208442
0.000297268
1.44551e-06
-0.00029868
0.000253849
2.22881e-05
0.000268493
-0.000216441
-5.20522e-05
0.000225518
-0.000246849
2.13305e-05
0.000257909
1.40841e-05
5.93094e-05
0.000295502
0.000267186
-3.89594e-05
-0.000228226
0.000172974
1.274e-05
0.000240297
-0.000253037
0.000195544
-0.000115464
-7.96076e-05
-0.000206378
2.14386e-05
-1.36938e-06
-0.000297674
0.000299
0.00021804
-0.000166948
-5.21458e-05
0.000344654
-4.13156e-05
0.000275969
-0.000135829
2.31561e-05
0.000238337
-0.000261493
-0.000231141
0.000254297
-2.66812e-05
-0.000229739
0.000256415
0.000156598
-0.000161672
-7.89429e-05
-0.000167492
-0.000261723
4.14346e-05
0.000220288
-3.17521e-05
-0.00022997
7.25577e-06
0.000261717
-3.25193e-05
-0.000229198
1.67601e-05
0.000120851
-0.00018663
0.000308785
-0.000171397
0.000262319
-3.57923e-05
-0.000226526
-0.000319039
0.000182745
-0.000103717
-0.000228453
-6.90203e-05
-2.93799e-07
-0.000298303
0.000299812
-2.80539e-05
0.000182993
-0.000151605
0.000308134
6.84554e-06
0.000250097
-0.000248249
-1.84801e-06
-0.000176596
6.16871e-05
0.000260262
-3.07271e-05
-0.000229537
0.000197345
-0.000250769
5.34242e-05
0.000254206
-0.000231206
-2.29992e-05
-0.000252337
0.000240017
0.000146199
0.000103627
-0.000101864
-0.000170269
0.000132496
-0.000261885
-0.000290249
0.0002422
4.80483e-05
0.000216808
3.12479e-05
-0.000248056
-0.000237894
-9.73899e-06
0.000246742
0.00032684
-2.30414e-05
0.000263996
-3.42721e-05
-0.000229724
0.000141385
-0.000226906
9.0426e-05
3.63259e-05
-0.000265637
0.000229311
-0.000253905
0.000121296
0.000249817
-5.24722e-05
0.000294673
-0.000154253
-0.000140421
0.000122248
-0.000289157
1.53441e-05
0.000237665
-0.000253009
-0.000262031
3.54705e-05
0.00022656
-2.76446e-06
-3.77917e-05
-0.000224239
0.000248983
-0.000272245
-0.000264649
3.44737e-05
0.000230175
0.000193257
0.000101416
-0.000149941
0.000290137
-0.000175177
-3.7688e-05
0.000210918
-1.81721e-05
0.000263201
-0.000293294
0.000310574
0.00011596
0.000102153
0.000261325
-0.000261325
0.000314402
-2.32815e-05
-0.000290101
5.32002e-07
0.000248949
0.000254857
1.65761e-05
0.000309717
-0.000276507
-3.33531e-05
-2.26336e-05
0.000266577
-0.000243943
3.00077e-05
-0.000260519
0.000230511
-0.000252139
0.000229506
0.00032763
3.11501e-05
-0.000260598
0.000229447
0.000276809
-3.16961e-05
-7.27386e-06
-0.000291494
0.000297807
0.000270617
3.88051e-05
0.000230245
-0.000266617
3.63721e-05
0.000199523
-0.000202055
-0.000258301
0.000238533
1.97681e-05
0.000169762
-0.000257245
8.74835e-05
-0.000216133
0.000163241
-0.000249145
8.59043e-05
-0.000266169
0.000224813
4.13562e-05
0.000253073
-2.78797e-05
-0.000225194
0.000171384
4.29014e-05
-0.000234837
-2.29601e-05
0.000257797
-0.000236377
-2.28761e-05
0.000259253
-1.94265e-05
0.000255969
-0.000236542
-0.000259345
0.000239919
-3.20809e-05
0.000180163
-0.000235929
-2.24001e-05
0.000258329
-0.00025484
0.000229192
2.56481e-05
2.94001e-06
0.000211289
-0.000214229
-0.000267031
3.79849e-05
0.000229046
0.000270677
4.48002e-06
4.20879e-05
0.000161478
-0.000218006
-3.31198e-05
0.000249929
-2.09764e-05
0.000218597
9.73004e-05
0.000248197
-0.000216953
0.000277437
-0.000278942
0.000277357
-0.000281771
-1.84997e-05
0.000258601
-0.000240101
-0.000261644
0.000243145
3.01628e-05
-0.000200716
-2.91218e-05
-0.000209989
0.000238725
0.00031486
-0.00028795
-2.75076e-05
0.000261297
-3.11081e-05
-0.000230189
3.28739e-05
-0.000262362
0.000229488
-0.000229853
0.000259645
-2.97921e-05
0.000325801
-1.76855e-05
0.000144967
-0.000205886
0.000256929
-0.000109956
-0.000286048
0.00028734
0.000241977
-6.41202e-06
-0.000235565
0.000228537
-0.00017675
-3.61162e-05
0.00021804
2.8106e-05
-0.000202974
-0.000239989
0.000260317
-2.03281e-05
-0.000102649
0.000188192
-8.69641e-05
3.0384e-05
-0.000204644
0.000240169
-0.000263424
2.32552e-05
-0.000115584
0.000258861
-0.000243993
0.000265721
-2.17281e-05
-0.000238953
0.000232541
0.000258626
-0.000245105
-1.35213e-05
0.000264349
-2.46681e-05
-0.000246317
-0.000274305
-1.06076e-05
0.000299209
-5.37975e-05
-8.08199e-06
0.000293881
-0.000283944
-0.000181019
0.000212148
0.000228079
1.82306e-05
-0.00024875
0.00032881
-0.000328713
0.000260955
-0.000245018
-1.59377e-05
-0.000301884
-7.24611e-07
0.000304549
9.7099e-06
3.80652e-05
0.000175185
-0.000210071
0.000217966
-3.587e-05
-0.000180638
0.000278054
-0.000255789
-2.22648e-05
-0.000214928
3.14218e-05
3.15421e-05
-0.000261891
0.000230348
0.000285415
-0.000292447
2.44721e-05
-0.000259617
-0.000257965
1.87881e-05
0.000266057
-1.64361e-05
0.000151173
-0.000267625
0.000116452
0.000298926
-4.43849e-06
0.000238617
-7.53763e-05
2.12521e-05
0.000177045
-0.000198297
-0.000183877
0.000205129
-0.000236275
0.000257219
-2.09441e-05
0.000261462
-3.31689e-05
-0.000228293
-0.000197009
-5.21362e-05
0.000251581
-1.48401e-06
9.00694e-06
-0.000265613
0.000256062
-0.0003423
0.000236104
0.000106306
0.000266371
-0.000236811
-2.95597e-05
0.00030682
-0.000314661
7.85165e-06
-2.57041e-05
-0.000229097
0.000254801
0.000261493
-7.64403e-06
9.95495e-06
-0.000207365
0.000262411
-3.19033e-05
-0.000230508
-6.90483e-05
-0.000260653
-0.000194685
0.000248025
-5.33402e-05
-0.000266533
0.000249985
1.65481e-05
-0.000318025
1.66824e-05
-1.71861e-05
0.000296852
-0.000279576
-0.000276221
1.65481e-05
0.000249537
-0.000169456
6.44559e-05
0.000273832
1.48297e-05
-0.000288537
-0.000316053
0.000307859
8.21092e-06
3.46641e-05
-0.000263649
0.000228985
-1.74447e-05
0.000281421
-0.00031521
1.64124e-05
-0.000176541
-7.42283e-05
-0.000237157
0.000204323
-2.16721e-05
-0.000216469
0.000238141
-0.000314608
0.000295715
1.88666e-05
-0.000133505
0.000274818
-0.000141746
-8.40025e-06
3.31521e-05
-0.000263453
0.000230301
-0.00020642
2.44703e-05
0.000182846
0.000221521
0.000281625
-0.000281906
2.25787e-07
-0.000236993
-2.20921e-05
0.000224813
-0.000202721
0.000139273
0.000143753
-0.000278517
0.000200878
-5.7205e-05
0.000308065
-1.07032e-05
0.000209515
-0.000269075
2.92853e-05
0.00022306
-0.000252345
-0.000322465
0.000138726
0.000296516
2.92258e-05
1.95384e-05
-0.000224355
-2.77845e-05
-0.00013619
-0.000132974
-0.000326027
0.000113657
0.000242873
2.56201e-05
0.000218765
-0.000224869
1.11767e-05
-0.000288093
0.000276711
-0.000242129
0.000269816
-2.72062e-05
0.000281376
-0.000281773
0.000288666
-7.70345e-05
-8.83338e-06
0.000290261
-1.87881e-05
0.000247101
-0.000228313
0.000281421
-0.000290249
-5.62312e-06
-0.000283942
0.000289523
0.00028201
-0.000269603
0.000284507
0.000226314
2.67597e-05
-0.000305374
0.000314409
-8.92426e-06
0.000248486
-2.17082e-05
0.000224128
2.54802e-05
-0.000268913
0.000246057
-2.05381e-05
-0.000259401
3.02849e-05
0.000229116
0.000178305
7.64963e-05
1.02922e-05
0.000281736
-0.000292356
-0.000238141
-2.88401e-05
0.000266981
2.51441e-05
-0.000263285
0.000284117
-0.000162317
-0.000232177
0.000261129
-2.89521e-05
-0.000234697
0.000260709
-2.60121e-05
1.42445e-06
0.000279473
2.45001e-05
-0.000259197
2.38001e-05
-0.000255977
0.000274282
-0.00024296
-3.1349e-05
0.000317847
-9.96736e-06
-0.000307075
7.94861e-07
-0.000255753
1.1816e-05
0.000243937
-1.49087e-05
-0.000261185
0.000228066
-0.000245337
0.000270145
-2.48081e-05
-0.000263229
1.49801e-05
-2.36058e-05
0.000285933
-0.000262423
2.13641e-05
-0.000266701
-0.00024154
-2.13793e-05
3.27174e-05
-9.0432e-05
0.000260194
0.000280893
-0.000286574
5.05122e-05
0.000237693
0.000282394
-0.000282101
-0.000243181
-2.39401e-05
0.000267121
-0.000260894
7.34723e-06
-0.000295638
1.94191e-05
0.000276147
-0.000268717
2.55361e-05
-8.42002e-06
0.000290898
-0.000268326
0.000243549
2.47773e-05
-0.000232513
0.000210841
0.000279924
-0.000287935
-6.16002e-07
0.000260289
-0.000259673
-0.000301909
-1.61189e-05
-0.000264573
2.35481e-05
-0.00024417
-2.41555e-05
-3.43281e-05
-0.00029803
0.00029396
0.000286674
-0.000158327
0.000296533
-0.00029092
2.30152e-05
4.90304e-06
0.000262642
-0.000255411
-7.18658e-06
0.000307605
-2.02417e-05
-0.000287358
5.97545e-05
-0.000246765
-2.19521e-05
-0.000356218
0.000241514
0.000284739
-0.000279208
2.33801e-05
-0.000186287
-1.56957e-05
-0.000306408
2.57061e-05
0.000280799
-0.000197416
0.000311123
-0.000113771
0.000259841
-0.000238533
-2.13081e-05
-0.000291702
2.94001e-05
0.000222097
-0.000251497
-0.00017285
0.000139503
-0.000164632
0.000251441
-0.000238029
-1.34121e-05
-0.000263873
3.40201e-05
-2.23161e-05
-0.000269837
0.000251469
0.000230427
3.12901e-05
-4.6113e-05
0.000197685
0.000232619
-0.000260499
-1.73852e-05
-3.26588e-06
0.000247928
-0.000244143
-0.000293268
-0.000237049
0.000265189
-2.81401e-05
0.000230096
3.22225e-05
-0.000268521
2.55921e-05
-0.000239905
-2.86161e-05
0.000228954
-0.000260706
-0.000282499
4.73202e-05
-0.000242005
0.000292732
-0.000282999
-0.000288468
1.31285e-05
0.000275911
-3.90626e-06
0.000221796
0.000228551
-0.00026107
0.000296885
-0.000130901
-0.000165985
0.000241118
-0.00026167
0.000270756
-0.000226213
-1.76681e-05
-0.000164779
0.000306739
-0.00014328
2.49649e-05
0.000222662
-0.000247627
-0.000192207
0.000192326
-0.00028373
0.000282393
7.00132e-06
-0.000290717
-0.000302485
0.000146693
0.000155793
0.000259995
-0.000239359
-2.06361e-05
-0.000215741
0.000193649
0.000262102
3.92568e-07
0.000257293
0.000232526
2.16796e-05
-0.000295149
-6.20959e-05
1.02119e-05
0.000233744
-0.000250977
1.7465e-05
-0.000230917
-2.37161e-05
0.000254633
-0.000242295
0.000263191
-2.08965e-05
8.26774e-05
0.000133584
2.01581e-05
-0.000305561
0.000285276
0.000256565
-1.80041e-05
-0.000238561
0.000243881
-0.000254017
1.0136e-05
-0.000226745
0.000207957
0.000223131
-0.000258923
-0.000244693
4.76842e-05
1.59468e-05
-0.000137744
-0.000218809
1.57921e-05
0.000245701
0.000280463
0.000295006
0.000305874
1.732e-06
0.000249817
-0.000220417
2.51749e-05
0.000225009
-0.000250184
-0.000243178
0.000268865
-2.56873e-05
2.28201e-05
-0.000262725
-0.000108201
0.000295254
9.12202e-06
2.08181e-05
0.000261675
-0.000235103
-2.65721e-05
1.31551e-05
-0.000303951
0.000290884
0.000321722
-3.09844e-05
-0.000290811
0.000249733
1.63241e-05
0.000306335
-0.000293094
-0.000230089
-0.000112211
9.63204e-06
0.000250657
-4.9129e-05
-0.00020239
0.000251519
2.20333e-05
0.000246832
-0.000241686
-2.29629e-05
0.000260737
-2.24001e-05
0.000287844
-0.000268023
2.63369e-05
2.68241e-05
-0.000257965
0.000210617
-0.000207677
2.58161e-05
-0.000262865
0.00028183
0.000121744
-0.000256173
0.000134429
1.60001e-05
3.79141e-05
0.000158792
-0.000201131
-0.000239485
-2.85377e-05
3.98926e-05
0.000165814
-0.000204661
-0.000246691
0.000271066
-2.43747e-05
0.000209866
-0.000248826
1.98857e-05
1.73435e-05
-0.000173339
-3.01866e-05
0.00022669
-0.000257412
-2.88401e-05
0.000244245
-0.000215405
-2.16161e-05
0.000242985
-0.000221369
0.000201657
-0.000250786
-0.000273579
-0.000232905
-2.55081e-05
0.000258413
0.000241234
2.98318e-05
-0.000213248
-2.38781e-05
0.000237151
-2.18821e-05
-0.000224967
-0.000239345
6.28042e-05
0.000259004
-0.000229718
4.75106e-05
-0.000249901
-3.43393e-05
0.000257694
-0.000223354
0.000205675
-0.000240014
0.000261689
-1.1956e-05
-6.06763e-05
-0.000229573
-0.000226198
-1.72384e-05
0.000242587
0.000247109
5.3175e-05
0.000212448
-0.000265623
-0.000261102
0.000177353
-0.000231757
5.44042e-05
6.4119e-05
0.000135953
0.000259457
-0.000240915
-2.47224e-05
-0.000265385
0.000227165
3.82201e-05
-2.87813e-05
-0.000222158
0.00025094
-0.000284582
0.000264161
0.000234501
3.61761e-05
2.18821e-05
0.000234087
-0.000307217
0.000151089
0.000156129
0.00016906
-5.22342e-05
0.000254045
-0.000115192
2.56901e-05
0.000217446
-0.000243136
-0.00028627
0.000286556
9.16435e-06
0.000257377
-0.000245953
0.000208937
3.70161e-05
0.000254832
0.000245872
-1.95859e-05
-0.000246815
-2.02161e-05
-0.000263019
2.0724e-05
-0.000269215
2.24001e-05
2.79601e-05
0.000220024
-0.000247984
0.000242481
-0.000274597
1.32721e-05
0.000247841
-1.39766e-05
1.29462e-05
-0.000250896
-0.000328742
0.000124084
-0.000233135
-2.62109e-05
-0.000252113
0.000252113
0.000259782
-0.000144217
-1.81332e-05
-0.000278606
0.000297351
0.000277958
0.000258749
-0.000135913
0.000224113
2.39205e-05
0.00023468
7.81966e-05
-0.000341147
3.78077e-05
0.000258962
1.76364e-05
-0.000248843
-3.00917e-05
0.000207453
-3.01001e-05
0.000259701
2.95429e-05
0.000218353
-0.000247896
-3.05014e-05
-4.09782e-05
-0.000217818
0.000258797
-0.000233423
-2.14173e-05
3.73035e-05
-0.000201869
0.000163872
-3.30877e-05
0.000221671
-0.000255943
-0.000282083
-8.48707e-06
0.000290532
-0.000199499
0.00016486
0.000166349
8.16763e-05
1.26147e-05
-0.00029478
0.000235075
2.59446e-05
-0.000261019
-0.000199975
-1.07961e-06
0.000232743
-0.000264287
3.15449e-05
-8.42803e-06
-0.000217029
0.000225457
-0.000165403
0.000202392
-0.000249985
-3.46025e-05
0.000256274
0.000218076
-0.000252679
-0.000246289
0.000272245
-2.59561e-05
0.000253547
2.78321e-05
-0.000232062
-2.95821e-05
-0.000298272
0.000316432
-1.82223e-05
2.34087e-05
0.000212462
-0.000250254
-0.000267233
2.09441e-05
-2.12801e-05
-0.000245953
-3.61481e-05
0.00024861
-0.000290244
-1.37413e-05
0.00022082
-0.000256968
0.000246171
-0.00024915
1.77605e-06
2.80002e-06
0.000181413
-0.000184213
0.000255294
0.000234529
2.67681e-05
-2.62361e-05
0.000245001
-0.000218765
3.36001e-05
0.000216609
-0.000250209
0.000244861
2.73841e-05
0.000306545
-0.000143949
-0.000162597
1.59428e-05
0.000240296
-0.000255935
0.000271013
-0.000113568
0.000225569
-0.000256677
-0.000241118
0.000104551
-0.000265469
7.16803e-06
-0.000241635
-2.75801e-05
-0.000241361
-2.48081e-05
0.000310994
-2.75467e-05
-7.67483e-05
0.000243097
-1.1452e-05
-0.000215601
0.000224281
-8.68003e-06
0.000255193
-7.68883e-05
3.42563e-05
-0.000195972
0.000158141
-0.000265245
-1.40001e-07
-4.14962e-05
4.00416e-05
0.000161982
-0.000202495
0.00019725
-0.000166424
0.000257041
-7.05603e-06
0.000251151
-0.000218277
-1.81997e-05
-2.1128e-05
0.000269624
-9.50757e-05
-0.000178764
-1.42801e-05
-0.000191913
0.000206193
0.000258665
-1.53553e-05
-0.00024331
1.98101e-05
0.000238855
-0.000280008
-8.11171e-06
3.7321e-05
-0.000191899
0.000158291
1.36921e-05
0.000247997
-0.000156458
0.000195268
-1.95189e-05
0.000248711
3.31179e-05
0.000189782
-0.000218249
-4.17202e-06
-2.49389e-05
0.000265108
-0.000231955
-3.14693e-05
0.000296851
-0.000281441
-1.5409e-05
1.63717e-05
-0.000237659
0.000221288
-0.00010514
0.000226885
1.9247e-05
-0.000305045
0.000285761
2.52001e-05
-2.79441e-05
2.69165e-05
0.000308731
-0.000289488
0.000238891
1.97345e-05
2.15601e-06
0.000231617
-0.000233773
-0.000310186
2.56298e-05
0.000284639
-0.000162177
-0.000144145
0.000209178
-0.000250156
-0.000165132
0.000241924
1.90317e-05
0.000255271
-4.13534e-05
0.000250531
0.000214498
-0.000255851
0.00031875
-0.000318683
-1.0866e-05
0.000287321
-0.000276092
-0.000302764
1.95516e-05
0.000283352
4.20842e-05
-0.000286413
-3.95078e-05
0.000252483
2.62921e-05
-2.21501e-05
0.000307334
-0.000285264
2.43321e-05
3.921e-05
0.000157329
-0.000196797
0.000249294
-0.000219751
2.83277e-05
-0.000261633
4.36802e-06
-2.00198e-05
0.000306738
-0.000286703
-0.000250987
-0.000266673
3.07441e-05
0.000252141
-0.000236741
-1.54001e-05
1.2264e-05
0.000239877
-0.0002758
-1.26167e-05
0.000255697
-5.48848e-06
0.000320091
-1.19737e-05
0.000298116
-0.000286901
-4.68793e-05
0.000247437
-0.000235621
0.000257601
-1.99361e-05
0.000126091
8.20533e-05
-0.000205384
0.000219431
3.03493e-05
0.000226759
-0.000258662
3.71393e-05
0.000271084
-0.000287986
1.69682e-05
0.000251273
-0.000239093
-1.31321e-05
0.000252225
-2.91201e-05
-0.000257265
2.56481e-05
0.000231617
-0.000228005
-2.92601e-05
0.000259765
-0.000233571
-2.61941e-05
0.000258721
-0.000267091
2.05496e-06
0.000290674
1.26332e-06
-0.000291712
0.000249878
-0.000233756
-1.85921e-05
0.000308691
-0.000300726
-8.05178e-06
0.000249978
-0.00010082
-0.000266897
2.56761e-05
0.000241221
-3.48881e-05
-0.000232009
-0.000266393
2.51161e-05
0.000241277
-1.23608e-05
-0.000268057
0.000279131
-3.45241e-05
-0.000231869
-0.000261909
1.90064e-05
-0.000266281
2.43881e-05
0.000241893
-0.000284129
-2.15626e-05
-0.000306332
2.76479e-05
0.000278644
-3.34041e-05
-0.000232877
-0.000173054
-0.000258133
2.94001e-05
0.000228733
0.000308844
-0.00030854
-0.000195805
0.000209049
-3.29281e-05
-0.000225205
0.000197553
-0.000279314
8.16698e-05
0.000283959
2.24006e-05
-0.000301953
1.76961e-05
0.000285732
-0.000280817
-5.03121e-06
-0.000257125
0.000231617
2.55081e-05
0.000167868
2.83256e-05
-0.000200844
-0.000266953
2.81681e-05
0.000238785
-0.000227361
-2.97641e-05
-3.67361e-05
-0.000230217
0.000276004
0.000297334
1.91181e-05
-0.000276079
-3.18668e-05
0.000307979
-0.000258679
-1.11343e-05
0.000297809
-0.000286574
1.50624e-05
-0.000302032
0.000287005
-0.000230609
-0.000307422
0.000287523
0.000263005
-2.55605e-05
-0.000280781
1.36081e-05
0.000159976
0.000230245
1.91329e-05
-0.000248455
-0.000201912
0.000160346
0.000236738
1.31517e-05
-0.00024989
-0.00025833
2.66093e-05
0.000231721
-1.09228e-05
0.000247661
5.74002e-06
0.000246877
-3.19817e-05
-0.000226348
0.00029963
-0.000285735
-1.38373e-05
0.000228024
-0.000226666
0.000289906
0.000237685
1.98521e-05
-0.000257537
-1.24236e-05
0.000250108
0.000246636
1.50389e-05
-0.00030557
1.54277e-05
0.00024448
2.18905e-05
3.22602e-05
-0.000200135
-0.000287446
-1.77706e-05
-0.000182869
0.000295177
-0.000153327
0.000187831
-3.36033e-05
3.08753e-05
-0.000196968
0.000168888
-0.000159826
0.000259149
-0.000239236
-1.99137e-05
0.000262227
-0.000274427
-0.000239872
0.000229259
-2.18855e-05
0.000301201
-0.000279325
0.000308045
-0.000293005
0.000242117
1.77241e-05
-0.000224975
0.00024443
-1.94545e-05
1.61001e-05
-0.000241075
-7.00003e-06
0.000260989
-0.000297178
4.87661e-06
0.000292282
-0.000174497
0.000160217
-1.74105e-05
-6.27725e-06
-0.000290886
-1.68528e-05
-0.000285109
4.28402e-06
-0.000300611
0.00013475
-0.000257465
2.37176e-05
0.000233713
0.000238197
1.32441e-05
-3.08064e-05
-0.000226632
-3.3053e-05
-0.000291247
2.09417e-05
-0.000223023
0.000198991
0.000254969
-0.000233465
-2.15041e-05
-0.000197946
0.000216344
-0.000185411
-7.10554e-06
0.000202659
0.000133731
0.000136385
3.9732e-06
0.000270896
0.000280044
-0.000305598
3.35832e-06
0.000243784
-1.98357e-05
0.000298711
-0.000278883
-0.000302274
0.000287489
1.48182e-05
-0.000258301
0.000230077
2.82241e-05
-2.64041e-05
-0.000231897
0.000301624
-0.00030253
0.000267472
-2.00407e-05
0.000304335
-0.000284317
0.000286316
-6.24466e-07
-0.000256873
0.000256873
-0.000268202
0.000295832
-0.000147822
-6.79135e-05
-6.93369e-06
0.000295648
-0.000288824
-0.000297495
0.000290353
0.000292444
-0.000279484
0.000290427
-0.000305387
1.49267e-05
3.38257e-05
-0.000242551
0.000219394
2.24693e-05
-1.44647e-05
-0.000248373
0.000228352
-1.4384e-05
0.000298009
-0.00028365
0.000263481
-1.96001e-05
0.000254224
-0.000235464
-1.87601e-05
-3.10089e-05
-0.000273755
0.000304765
1.44325e-05
-0.000297154
0.000282845
-1.45881e-05
0.000233465
-0.000218877
0.000209237
-0.000295199
0.000283027
-1.92409e-05
0.000304646
-0.000285341
0.00025102
-2.69482e-05
0.00029743
-0.000270524
-0.000295825
0.000268898
1.07156e-05
0.000244749
-0.000255465
0.000305295
-0.000312113
6.81331e-06
1.80189e-05
1.51796e-05
0.000287051
-0.000301962
6.3336e-06
0.000284103
2.34409e-06
-0.000318763
-0.000288902
0.000303678
-0.000242481
0.000243657
8.45603e-06
-0.0002264
0.000242772
-0.000293289
0.00027407
0.000284915
-0.000145726
-8.1231e-05
0.00029428
1.44515e-05
3.09925e-05
-0.000201258
0.000168057
-0.000274439
0.000257293
-0.000219535
0.00024982
0.000243411
1.92865e-05
-0.000262697
0.000236019
2.31309e-05
-0.000301151
0.000282944
0.000312214
-1.79172e-05
0.000237945
-0.000257069
1.91241e-05
-0.000222494
0.000247459
0.000294232
1.80341e-05
-0.000171129
-1.44367e-05
0.000298224
-0.000283613
-0.000142621
-0.000266415
0.000159993
0.000106423
-0.00030906
0.000295455
1.36828e-05
-0.000258699
0.000241826
1.68729e-05
-0.000151562
0.000153361
-0.000306308
0.000288475
1.77878e-05
-0.000214149
0.000182519
-9.69084e-06
0.000253101
2.04966e-05
1.74978e-05
-0.00030413
0.0002867
-0.000300421
-7.0207e-06
0.000307973
-0.000249229
0.000220109
-0.000201153
-8.52603e-05
-0.000272484
0.00025089
0.000303814
-0.000286246
-0.000191313
1.79147e-05
1.5069e-05
0.000284567
-0.000299589
-8.80603e-05
0.000239233
-0.00030346
1.95484e-05
0.00028421
-0.000210894
-2.538e-06
-0.000297621
-0.000170347
2.05297e-05
0.000302816
-0.000288384
-1.44997e-05
-0.000169619
-0.000299207
-0.000174461
-2.28994e-05
0.000243528
0.000289508
1.71585e-05
0.000252869
5.75962e-05
-0.000284698
-0.000247213
-0.000270371
-2.32074e-05
-0.000274619
0.000300383
-0.000263096
0.000282028
-0.000157256
-4.14598e-05
0.000210357
0.000197569
1.56521e-05
-0.000213221
-1.25457e-05
-0.000285724
0.000298213
1.83597e-05
1.8511e-05
-0.000305516
0.000287012
0.000253345
-1.71361e-05
-0.000236209
1.8916e-05
-0.000304854
0.000285878
2.03561e-05
0.000232989
0.000216385
-2.46121e-05
-0.000191773
1.57939e-05
0.000282399
-0.000298456
-0.000252057
0.000118554
-0.000303942
1.86898e-05
0.000285274
0.000217606
-5.05585e-05
-0.000297229
1.24242e-05
0.000282098
0.000255837
-2.19801e-05
-0.000233857
-0.000303179
0.000106491
0.000234529
1.70521e-05
-0.000251581
0.000279952
1.68938e-05
0.000304138
-0.00028525
1.78477e-05
-0.000299463
0.000233512
1.84916e-05
-0.000252004
-1.90402e-05
-1.42462e-05
0.000298147
-0.000284019
-0.000280171
0.000299851
-0.000278871
0.000289981
-0.000303272
1.29913e-05
0.000249741
-1.62291e-05
1.15155e-05
0.000250041
-1.55121e-05
0.000298529
-0.000283054
3.95922e-05