/*--------------------------------*- C++ -*----------------------------------*\
  =========                 |
  \\      /  F ield         | OpenFOAM: The Open Source CFD Toolbox
   \\    /   O peration     | Website:  https://openfoam.org
    \\  /    A nd           | Version:  12
     \\/     M anipulation  |
\*---------------------------------------------------------------------------*/
FoamFile
{
    format      ascii;
    class       volScalarField;
    location    "9.8";
    object      p;
}
// * * * * * * * * * * * * * * * * * * * * * * * * * * * * * * * * * * * * * //

dimensions      [1 -1 -2 0 0 0 0];

internalField   nonuniform List<scalar> 
9801
(
0.609518
0.621222
0.628598
0.632417
0.634662
0.636594
0.637852
0.638917
0.640551
0.642731
0.645844
0.651526
0.662307
0.671122
0.675614
0.678248
0.680206
0.681432
0.682416
0.684102
0.686566
0.689642
0.695449
0.707062
0.716982
0.722026
0.725111
0.727095
0.728077
0.728936
0.730705
0.73339
0.73667
0.742758
0.755399
0.766485
0.772157
0.775518
0.777185
0.777586
0.778113
0.780014
0.783079
0.787086
0.794237
0.810172
0.822433
0.82786
0.831101
0.831586
0.830907
0.831689
0.834063
0.837705
0.842438
0.852708
0.873014
0.885837
0.89143
0.894422
0.892039
0.889496
0.891005
0.894599
0.899288
0.906432
0.924528
0.947508
0.96037
0.966893
0.968937
0.961034
0.955873
0.958757
0.965053
0.973289
0.989349
1.02103
1.0445
1.05693
1.06481
1.06095
1.04708
1.04239
1.04876
1.06098
1.08612
1.13715
1.17512
1.19799
1.21625
1.22645
1.21496
1.20184
1.21457
1.26392
1.37335
2.41269
7.92905
0.616469
0.628131
0.634001
0.638066
0.641089
0.643259
0.643176
0.643613
0.645739
0.648538
0.651807
0.658305
0.668812
0.676203
0.680888
0.684311
0.686753
0.686321
0.686427
0.688744
0.691896
0.695298
0.701351
0.712853
0.721775
0.72706
0.730889
0.733469
0.732184
0.731842
0.734383
0.737934
0.74171
0.747722
0.760291
0.770986
0.776915
0.781016
0.783347
0.780728
0.780078
0.782949
0.787028
0.791444
0.798359
0.813479
0.825936
0.832375
0.83679
0.837985
0.833112
0.8326
0.836077
0.84086
0.845943
0.855642
0.875026
0.888434
0.895279
0.900187
0.898668
0.890986
0.891405
0.896066
0.901518
0.908307
0.926131
0.949452
0.962823
0.969941
0.974195
0.966783
0.957507
0.959732
0.966879
0.975309
0.992362
1.02308
1.04552
1.05776
1.06695
1.0699
1.05262
1.04286
1.0506
1.06437
1.08671
1.12772
1.16339
1.18827
1.21055
1.2266
1.21762
1.20253
1.20414
1.23614
1.29454
2.2769
8.01963
0.618758
0.630781
0.636427
0.640367
0.643556
0.645955
0.646072
0.646186
0.648071
0.650884
0.654212
0.660735
0.671331
0.678579
0.683153
0.686704
0.689428
0.689335
0.689147
0.691206
0.694309
0.697794
0.703735
0.71519
0.724062
0.729311
0.733277
0.736168
0.735218
0.73455
0.736822
0.740288
0.744126
0.749881
0.762325
0.773122
0.779121
0.78343
0.786168
0.783903
0.783014
0.785681
0.789608
0.793922
0.800233
0.814863
0.827579
0.83437
0.839184
0.841107
0.836511
0.835311
0.838554
0.843404
0.848651
0.857598
0.876033
0.889621
0.896955
0.902363
0.902761
0.895156
0.893796
0.897754
0.903452
0.910374
0.926287
0.949184
0.963195
0.971053
0.976876
0.973542
0.962709
0.961901
0.968069
0.976313
0.990239
1.0188
1.0431
1.05782
1.06895
1.07642
1.06265
1.04701
1.05145
1.06491
1.08242
1.11678
1.1586
1.18842
1.21137
1.23167
1.22686
1.21385
1.21677
1.24258
1.27566
2.20955
8.0169
0.622038
0.63436
0.639911
0.643698
0.646809
0.649407
0.649952
0.649595
0.651094
0.653749
0.657205
0.664148
0.674742
0.681949
0.68643
0.689947
0.692916
0.693376
0.692535
0.69401
0.696856
0.700484
0.706854
0.718389
0.727309
0.732536
0.736476
0.739678
0.739279
0.737744
0.739294
0.7424
0.746338
0.752499
0.765145
0.776248
0.782368
0.786742
0.790021
0.788304
0.786183
0.787928
0.791387
0.795735
0.802353
0.817083
0.830358
0.837439
0.842361
0.84535
0.841351
0.838344
0.840573
0.844853
0.850091
0.859043
0.877241
0.891687
0.899612
0.905388
0.908325
0.901214
0.896382
0.898849
0.904123
0.911117
0.925618
0.949207
0.965313
0.974166
0.980902
0.982558
0.969821
0.963437
0.968182
0.976483
0.988115
1.01406
1.04271
1.05966
1.07091
1.08015
1.07516
1.0564
1.05234
1.06369
1.07932
1.10475
1.14464
1.17797
1.20289
1.22644
1.23469
1.22099
1.21164
1.22235
1.23463
2.17221
8.038
0.624947
0.637508
0.643025
0.646756
0.649754
0.652323
0.653263
0.652732
0.65395
0.65643
0.659702
0.666844
0.67781
0.685114
0.689555
0.692999
0.695959
0.696915
0.6957
0.696714
0.699337
0.702755
0.70911
0.721059
0.730333
0.735609
0.739474
0.742732
0.743124
0.741048
0.742095
0.744973
0.748634
0.75444
0.767158
0.77886
0.785287
0.789694
0.79326
0.792621
0.789362
0.790463
0.793846
0.7981
0.804557
0.818743
0.832271
0.839759
0.844773
0.848613
0.846625
0.841664
0.842579
0.846604
0.85173
0.860169
0.877793
0.893239
0.90193
0.908013
0.912614
0.908681
0.900112
0.900006
0.904921
0.911795
0.924163
0.947611
0.966157
0.975954
0.98302
0.9883
0.979812
0.968061
0.968562
0.976233
0.986119
1.00566
1.03712
1.05934
1.07239
1.08335
1.0887
1.07241
1.05814
1.0612
1.07503
1.09469
1.12955
1.16722
1.19592
1.22006
1.24037
1.23665
1.22252
1.21725
1.20569
2.14033
8.06093
0.627954
0.640667
0.646271
0.650036
0.653085
0.655764
0.657075
0.656414
0.65729
0.65962
0.662632
0.669235
0.680608
0.688284
0.692826
0.696312
0.699354
0.700827
0.699448
0.699946
0.702372
0.705562
0.711148
0.723203
0.733168
0.738712
0.742646
0.746027
0.74733
0.744823
0.744901
0.747483
0.751043
0.756368
0.768738
0.781167
0.788147
0.792797
0.796665
0.797844
0.793601
0.792715
0.795538
0.799752
0.805967
0.819671
0.83391
0.842174
0.847688
0.852326
0.853881
0.847492
0.84448
0.847368
0.852366
0.860023
0.87698
0.894442
0.90426
0.910671
0.916054
0.917047
0.907322
0.902229
0.905574
0.911925
0.921464
0.943007
0.965989
0.97832
0.985952
0.992754
0.991552
0.976954
0.971122
0.975847
0.984653
0.997627
1.02616
1.05612
1.07402
1.08617
1.09621
1.09148
1.07058
1.06377
1.07209
1.08726
1.11219
1.14848
1.18011
1.20576
1.22882
1.24246
1.23581
1.22104
1.19016
2.09943
8.08612
0.63059
0.643373
0.649139
0.652925
0.656001
0.658759
0.660311
0.659598
0.660284
0.662572
0.665597
0.671872
0.683251
0.691175
0.695755
0.699269
0.70237
0.70422
0.702744
0.702683
0.70495
0.708182
0.713575
0.725378
0.735792
0.741542
0.745597
0.749116
0.751332
0.74882
0.747205
0.749295
0.752853
0.758273
0.770443
0.783423
0.790833
0.795686
0.799763
0.802646
0.799352
0.795585
0.797102
0.800979
0.806738
0.819891
0.835553
0.844671
0.850324
0.855158
0.858952
0.854626
0.848118
0.848784
0.853267
0.859516
0.874155
0.894569
0.906811
0.91356
0.919048
0.922769
0.915935
0.90727
0.907528
0.912739
0.919775
0.935161
0.96193
0.979902
0.989298
0.996548
1.00057
0.989524
0.976884
0.976292
0.983506
0.993059
1.01223
1.04561
1.07123
1.08636
1.09805
1.10533
1.09203
1.07417
1.07272
1.08277
1.09917
1.12894
1.16324
1.19057
1.21313
1.23317
1.23848
1.22704
1.18827
2.06033
8.11174
0.633072
0.645823
0.652077
0.656041
0.659146
0.661903
0.663663
0.662854
0.663147
0.665344
0.668337
0.674131
0.685541
0.694016
0.698819
0.702413
0.70554
0.707861
0.706598
0.705484
0.70731
0.71042
0.715292
0.726861
0.738226
0.744475
0.74872
0.75233
0.755306
0.753782
0.750516
0.751502
0.754756
0.759367
0.770618
0.785009
0.793408
0.798551
0.802768
0.806483
0.805502
0.799873
0.799497
0.802774
0.807372
0.817827
0.835583
0.847211
0.853483
0.858326
0.86259
0.861117
0.853235
0.851778
0.855118
0.860207
0.869574
0.89084
0.908245
0.916901
0.92269
0.927714
0.925452
0.914255
0.910382
0.913521
0.919692
0.928928
0.952628
0.978525
0.992224
1.00046
1.00708
1.00461
0.987496
0.98002
0.983324
0.991692
1.00253
1.02817
1.06111
1.08265
1.09665
1.10842
1.1125
1.09508
1.07957
1.08136
1.0927
1.1115
1.14319
1.17354
1.19707
1.2166
1.22999
1.22855
1.19928
2.03219
8.13488
0.6354
0.64808
0.655002
0.659113
0.662291
0.665122
0.667189
0.666493
0.666288
0.668232
0.671067
0.675854
0.687001
0.696666
0.701863
0.705549
0.708756
0.711456
0.710821
0.708824
0.710036
0.712886
0.716837
0.727013
0.740073
0.747424
0.751867
0.75554
0.758808
0.75877
0.754638
0.75454
0.757245
0.761079
0.769533
0.785265
0.795916
0.801615
0.805912
0.80984
0.810988
0.805159
0.802899
0.805145
0.809186
0.815876
0.832931
0.848691
0.856588
0.861747
0.866324
0.867839
0.860288
0.855648
0.857253
0.861634
0.867473
0.883509
0.906825
0.919711
0.926403
0.931849
0.934115
0.923776
0.914426
0.914911
0.920249
0.92704
0.941442
0.97061
0.992021
1.00274
1.0102
1.0155
1.00602
0.989338
0.985829
0.990466
0.998903
1.01296
1.04401
1.07455
1.09366
1.10692
1.1177
1.11695
1.09824
1.0862
1.08993
1.10191
1.12334
1.1555
1.18215
1.20139
1.21559
1.22199
1.20957
2.02071
8.15511
0.637462
0.649873
0.657869
0.662255
0.665492
0.668373
0.670705
0.670357
0.669663
0.67122
0.673831
0.677535
0.687476
0.69888
0.704991
0.708849
0.712093
0.714974
0.715174
0.712558
0.713065
0.715555
0.718897
0.726525
0.740764
0.750089
0.75506
0.75882
0.762208
0.763575
0.759519
0.757959
0.760044
0.763441
0.768924
0.783484
0.797565
0.80465
0.809199
0.813201
0.815837
0.811373
0.806762
0.807839
0.81124
0.815877
0.828076
0.847826
0.859191
0.865164
0.869881
0.873542
0.868844
0.860522
0.859678
0.862903
0.867898
0.87698
0.900323
0.920367
0.929709
0.93557
0.940475
0.936422
0.922772
0.918368
0.92126
0.927153
0.93479
0.955817
0.985819
1.00305
1.01242
1.02014
1.0234
1.00728
0.992047
0.991598
0.998166
1.00742
1.02508
1.05785
1.08489
1.1019
1.1148
1.12471
1.12204
1.10278
1.09227
1.0969
1.10924
1.13296
1.16436
1.18736
1.20244
1.21138
1.21439
2.02777
8.17315
0.639471
0.650951
0.660482
0.665465
0.668839
0.671771
0.6743
0.674467
0.673091
0.674107
0.676493
0.679566
0.687307
0.70015
0.707843
0.7121
0.715453
0.718465
0.719677
0.71679
0.716188
0.71828
0.721303
0.726355
0.739719
0.751934
0.758037
0.762062
0.765576
0.768149
0.765247
0.761745
0.762892
0.765866
0.769777
0.780225
0.797368
0.80721
0.812448
0.816576
0.820135
0.818392
0.811688
0.810682
0.813242
0.817236
0.824355
0.843518
0.860567
0.868486
0.873512
0.877867
0.877642
0.867549
0.862676
0.864609
0.869035
0.874788
0.890204
0.916074
0.931103
0.938427
0.944123
0.947424
0.937508
0.924766
0.922982
0.926673
0.932982
0.943416
0.971292
0.999378
1.01366
1.02209
1.02891
1.02797
1.00994
0.998161
0.999255
1.00591
1.01557
1.03715
1.07
1.09442
1.11039
1.12307
1.13107
1.12534
1.10618
1.09679
1.10142
1.11385
1.13993
1.17011
1.18962
1.19945
1.21166
2.05053
8.19206
0.641645
0.651483
0.662681
0.668656
0.672215
0.67518
0.677795
0.678628
0.676676
0.676938
0.679097
0.681979
0.687473
0.700357
0.710315
0.71531
0.718788
0.721857
0.723978
0.721641
0.719555
0.721007
0.7238
0.727425
0.737606
0.752595
0.760786
0.765311
0.768938
0.772129
0.771396
0.7663
0.765722
0.768168
0.771657
0.777935
0.794615
0.808886
0.815633
0.819986
0.823848
0.825138
0.818217
0.813956
0.815502
0.819032
0.823712
0.836643
0.858509
0.870918
0.877093
0.881607
0.884825
0.878147
0.868331
0.867246
0.870287
0.875211
0.882819
0.905084
0.929284
0.941046
0.947959
0.953717
0.953311
0.937334
0.927163
0.928075
0.933283
0.939951
0.953566
0.984976
1.00961
1.02165
1.02998
1.03758
1.03425
1.01374
1.00344
1.00594
1.01352
1.02435
1.04895
1.08025
1.10208
1.11702
1.12934
1.13602
1.12819
1.10825
1.09936
1.10356
1.11536
1.14307
1.17122
1.18657
1.20344
2.08468
8.21299
0.644115
0.651882
0.664142
0.671548
0.675453
0.678474
0.681144
0.682667
0.680656
0.67998
0.681836
0.68459
0.6885
0.699478
0.71191
0.718215
0.722014
0.72519
0.72791
0.72706
0.723486
0.723808
0.726251
0.729456
0.735987
0.751418
0.762847
0.7684
0.772227
0.775642
0.777174
0.77207
0.768943
0.770546
0.77373
0.777922
0.789989
0.808415
0.818148
0.823278
0.827339
0.830627
0.826696
0.818841
0.818099
0.820918
0.82494
0.831614
0.851331
0.870932
0.879714
0.885019
0.889511
0.890014
0.878586
0.870997
0.87168
0.875579
0.881061
0.892878
0.920318
0.940765
0.949867
0.955622
0.960654
0.95713
0.940319
0.93277
0.934147
0.938977
0.946056
0.964454
0.997907
1.02038
1.03155
1.03938
1.04472
1.03775
1.01842
1.0101
1.013
1.02057
1.03291
1.06047
1.08997
1.10958
1.12335
1.13482
1.13973
1.13003
1.10914
1.09962
1.10276
1.11412
1.14313
1.16737
1.18997
2.12592
8.23653
0.646845
0.652606
0.664571
0.673897
0.678465
0.681627
0.684379
0.686541
0.68529
0.683485
0.684726
0.687235
0.690335
0.698125
0.712233
0.720732
0.725143
0.728468
0.731439
0.732362
0.72829
0.726877
0.728816
0.73184
0.736023
0.748454
0.763676
0.771186
0.775445
0.778967
0.781851
0.778997
0.773229
0.773181
0.775888
0.779476
0.786137
0.804298
0.819654
0.826608
0.830914
0.834748
0.83527
0.826545
0.821624
0.822867
0.826187
0.830715
0.842002
0.86585
0.881458
0.888778
0.893889
0.89801
0.892713
0.878866
0.874657
0.877039
0.8817
0.887465
0.903997
0.933067
0.950044
0.958331
0.964891
0.969881
0.960515
0.942192
0.936759
0.939941
0.945976
0.953658
0.974941
1.00803
1.02766
1.03776
1.04606
1.05243
1.04388
1.02337
1.01571
1.01932
1.02739
1.0419
1.07127
1.09838
1.1161
1.12903
1.13951
1.14331
1.13134
1.10876
1.09776
1.09938
1.11133
1.13937
1.16926
2.16634
8.2574
0.649626
0.654009
0.663818
0.675379
0.681212
0.684756
0.68769
0.690306
0.690441
0.687563
0.687677
0.689793
0.692631
0.697613
0.710966
0.72255
0.72807
0.731626
0.734709
0.736998
0.734214
0.730671
0.731626
0.73432
0.737618
0.745218
0.762022
0.773193
0.778503
0.78227
0.785683
0.786184
0.779463
0.77647
0.778214
0.781388
0.785473
0.797522
0.817934
0.828899
0.834277
0.838343
0.841746
0.837238
0.827248
0.825232
0.827771
0.831778
0.837364
0.85495
0.87886
0.890488
0.896275
0.900916
0.904056
0.894874
0.882095
0.879761
0.882097
0.886673
0.893968
0.916916
0.945821
0.960068
0.967064
0.97215
0.975604
0.964276
0.947608
0.943616
0.946219
0.951537
0.960155
0.985694
1.01848
1.0369
1.04671
1.05434
1.05813
1.04749
1.02853
1.02181
1.02531
1.03334
1.05028
1.0811
1.10649
1.12247
1.13383
1.14287
1.14557
1.13239
1.10773
1.09378
1.09415
1.10602
1.1419
2.19274
8.27068
0.65238
0.656029
0.662725
0.675846
0.683831
0.687934
0.691027
0.693801
0.695285
0.692305
0.6908
0.692454
0.695173
0.698652
0.708557
0.723025
0.730637
0.734713
0.73795
0.74089
0.740697
0.735704
0.734695
0.736724
0.739717
0.744022
0.757623
0.773821
0.781438
0.785679
0.789195
0.791948
0.787729
0.781008
0.780724
0.783321
0.786849
0.792803
0.81107
0.829366
0.837583
0.842308
0.846166
0.847247
0.837279
0.829706
0.830162
0.833221
0.837428
0.845011
0.867955
0.889447
0.899002
0.90487
0.90987
0.910309
0.89555
0.884346
0.884292
0.888227
0.893257
0.901445
0.927775
0.954483
0.9665
0.973999
0.980805
0.983382
0.968012
0.951364
0.948475
0.952705
0.959128
0.968687
0.995593
1.02613
1.04251
1.05198
1.06001
1.06475
1.05343
1.03365
1.02689
1.03039
1.03863
1.05743
1.08854
1.11225
1.12706
1.13794
1.14589
1.14722
1.133
1.10626
1.08839
1.08453
1.10877
2.19181
8.28053
0.655151
0.658466
0.662725
0.674965
0.685834
0.690985
0.694232
0.697047
0.699392
0.697935
0.694741
0.695445
0.697833
0.700721
0.706478
0.721158
0.73244
0.737729
0.741261
0.74443
0.746476
0.742263
0.738245
0.73916
0.741846
0.745179
0.752984
0.771152
0.783431
0.788948
0.792626
0.796053
0.796273
0.78805
0.784012
0.785568
0.788725
0.792518
0.80224
0.824406
0.838877
0.84522
0.849545
0.853359
0.850959
0.838743
0.833566
0.834877
0.838183
0.842815
0.854481
0.881099
0.899354
0.907018
0.911761
0.916113
0.914753
0.899336
0.890303
0.890221
0.89299
0.897991
0.909351
0.939764
0.965005
0.97598
0.982273
0.987415
0.988634
0.973377
0.958466
0.956086
0.95903
0.964464
0.975483
1.00528
1.03451
1.05011
1.0594
1.06696
1.07002
1.05818
1.03882
1.03149
1.03412
1.04171
1.06202
1.0943
1.11767
1.13156
1.14118
1.14744
1.14732
1.13259
1.10406
1.08002
1.07771
2.16199
8.28961
0.658199
0.661146
0.664079
0.67305
0.68641
0.693508
0.6973
0.700328
0.7031
0.703847
0.699893
0.698686
0.70035
0.702965
0.706485
0.717459
0.732877
0.740569
0.744627
0.747844
0.750739
0.749555
0.743209
0.741988
0.744168
0.747281
0.751364
0.764656
0.782923
0.791628
0.796114
0.799689
0.802614
0.798047
0.789472
0.788268
0.790544
0.793831
0.798428
0.813654
0.836176
0.847533
0.853377
0.857658
0.860681
0.852804
0.840083
0.837599
0.840358
0.844236
0.849054
0.86404
0.891646
0.907267
0.914572
0.920218
0.925009
0.919371
0.901018
0.893128
0.895015
0.899701
0.905114
0.917415
0.948337
0.971216
0.981416
0.988837
0.995455
0.995789
0.978124
0.962465
0.960215
0.96475
0.971519
0.984087
1.01405
1.04102
1.05547
1.06476
1.07263
1.07652
1.06346
1.04208
1.03407
1.03661
1.04443
1.06579
1.09836
1.12113
1.13409
1.14263
1.14734
1.1459
1.13056
1.09524
1.066
2.10457
8.29908
0.661452
0.66377
0.666189
0.671446
0.685082
0.69555
0.700464
0.703725
0.706619
0.708826
0.70607
0.702254
0.702896
0.705306
0.708283
0.714489
0.730388
0.74238
0.747721
0.751115
0.75421
0.755963
0.750513
0.745851
0.746743
0.749399
0.752575
0.758921
0.777481
0.792912
0.799497
0.803368
0.80683
0.807677
0.798509
0.791937
0.792585
0.795614
0.799223
0.805595
0.825988
0.846404
0.855195
0.860219
0.864369
0.866234
0.855552
0.84464
0.84338
0.845436
0.849238
0.855139
0.875124
0.902737
0.916266
0.922453
0.926586
0.930459
0.923888
0.906839
0.900493
0.901396
0.904627
0.910056
0.925645
0.958735
0.980757
0.990161
0.995971
1.00085
1.00087
0.984471
0.969852
0.967523
0.970659
0.976492
0.990537
1.02269
1.04889
1.06239
1.07091
1.07789
1.08065
1.06786
1.04662
1.03779
1.03931
1.04619
1.06742
1.10036
1.12288
1.13495
1.14232
1.14543
1.14363
1.12178
1.08011
2.04424
8.3141
0.664686
0.666154
0.668503
0.671953
0.682329
0.696415
0.703423
0.707061
0.709941
0.712576
0.712383
0.70717
0.705929
0.707849
0.710632
0.714166
0.725217
0.74192
0.750248
0.754449
0.75768
0.760618
0.759141
0.751621
0.74962
0.751493
0.754521
0.758181
0.768916
0.78984
0.801736
0.807135
0.810592
0.81379
0.810539
0.799373
0.795904
0.797845
0.80107
0.804793
0.813591
0.837242
0.855059
0.862826
0.868044
0.872533
0.871825
0.856797
0.847117
0.847724
0.851503
0.855736
0.861945
0.884263
0.910363
0.922123
0.928832
0.934738
0.938644
0.928529
0.909985
0.903932
0.906594
0.911631
0.917428
0.933369
0.96533
0.98523
0.994475
1.00173
1.0081
1.00799
0.990382
0.974392
0.971477
0.975554
0.982447
0.998174
1.02994
1.05401
1.06659
1.07544
1.08342
1.08751
1.07384
1.05035
1.03993
1.04071
1.04684
1.06745
1.10052
1.12288
1.13426
1.14021
1.14293
1.13654
1.11254
2.00953
8.33448
0.668359
0.668974
0.671209
0.673981
0.679923
0.69451
0.705131
0.709917
0.713067
0.715912
0.717836
0.713927
0.709809
0.710547
0.712912
0.71581
0.721262
0.737404
0.751614
0.757715
0.761152
0.764242
0.766197
0.760135
0.753726
0.754044
0.756754
0.760001
0.764448
0.779924
0.800249
0.80953
0.814352
0.817858
0.820143
0.812453
0.802172
0.80063
0.802773
0.805987
0.810211
0.822829
0.848105
0.863394
0.86991
0.874259
0.878137
0.875861
0.861157
0.853703
0.853998
0.856297
0.86044
0.868612
0.894695
0.919931
0.930809
0.936336
0.940462
0.943717
0.934145
0.917196
0.911887
0.912956
0.91619
0.921974
0.940785
0.974317
0.994045
1.00257
1.00834
1.01355
1.01384
0.997334
0.981205
0.977673
0.980304
0.98609
1.00267
1.03638
1.06161
1.07437
1.08223
1.08893
1.09183
1.07861
1.05429
1.04188
1.0415
1.0467
1.06618
1.0992
1.12153
1.13205
1.13777
1.13686
1.13679
2.01125
8.35691
0.673021
0.672205
0.673923
0.676432
0.679629
0.690127
0.705247
0.712617
0.716356
0.719243
0.721881
0.721251
0.715144
0.713485
0.715316
0.718116
0.721359
0.730497
0.748989
0.759716
0.764553
0.767775
0.770863
0.770057
0.761137
0.757598
0.759084
0.761787
0.765008
0.771268
0.791155
0.809478
0.817328
0.821874
0.825337
0.825635
0.813859
0.804961
0.805107
0.808282
0.811773
0.816142
0.831494
0.857017
0.870468
0.876941
0.88208
0.886347
0.880666
0.863614
0.856603
0.858442
0.862542
0.866936
0.875399
0.90201
0.925443
0.935584
0.942333
0.948307
0.951415
0.939738
0.921412
0.915247
0.917744
0.922801
0.929234
0.948319
0.979855
0.997964
1.00703
1.01438
1.02068
1.02079
1.00309
0.985274
0.980823
0.984329
0.991102
1.00849
1.04143
1.06559
1.07792
1.08629
1.09346
1.09692
1.08371
1.05776
1.04313
1.04141
1.04566
1.06379
1.09669
1.11891
1.12973
1.1311
1.14716
2.04024
8.38188
0.678711
0.675723
0.67642
0.678678
0.681347
0.686814
0.701883
0.714116
0.71933
0.72237
0.725161
0.727196
0.722893
0.717701
0.718075
0.720371
0.72314
0.727046
0.74083
0.759152
0.767453
0.771587
0.774744
0.777266
0.77202
0.762918
0.761491
0.763716
0.766884
0.77036
0.779326
0.801848
0.817556
0.824196
0.828632
0.832112
0.830281
0.817368
0.810554
0.811019
0.81321
0.816644
0.822121
0.841265
0.866417
0.878542
0.884219
0.888021
0.891561
0.885774
0.870021
0.864017
0.864528
0.866851
0.871246
0.881934
0.911207
0.934429
0.944062
0.949227
0.953324
0.956572
0.946695
0.929243
0.923231
0.924149
0.927383
0.933451
0.954589
0.987855
1.0063
1.01443
1.01991
1.02539
1.0269
1.01071
0.992115
0.986774
0.988624
0.993727
1.00978
1.04412
1.07044
1.08363
1.0914
1.09743
1.10052
1.08898
1.06169
1.04411
1.04073
1.04369
1.06089
1.09302
1.11529
1.1226
1.14633
2.08939
8.4083
0.684669
0.680669
0.679426
0.681288
0.68384
0.686758
0.695703
0.712303
0.721365
0.725598
0.728573
0.731429
0.731465
0.724387
0.721227
0.722451
0.724964
0.727981
0.734006
0.752114
0.76822
0.774927
0.778505
0.781609
0.78258
0.773354
0.766078
0.766341
0.768928
0.772006
0.775643
0.787674
0.811467
0.82524
0.831466
0.835923
0.839365
0.8346
0.819692
0.813737
0.815518
0.819068
0.822627
0.828281
0.849286
0.87354
0.884435
0.890603
0.895873
0.899528
0.891063
0.873321
0.866849
0.868932
0.873259
0.878013
0.888576
0.917
0.938617
0.948146
0.954969
0.960841
0.964016
0.953302
0.934293
0.926604
0.928349
0.933316
0.940254
0.961065
0.991971
1.00918
1.01852
1.0264
1.03262
1.03381
1.01672
0.996078
0.989101
0.99133
0.997287
1.01312
1.04632
1.07292
1.08656
1.09478
1.10091
1.10421
1.09405
1.06568
1.04467
1.03945
1.04113
1.0565
1.08834
1.10659
1.13737
2.1454
8.43263
0.689975
0.68834
0.683686
0.68412
0.686004
0.688349
0.692128
0.705628
0.721688
0.728681
0.732185
0.735064
0.73752
0.73367
0.726072
0.725141
0.727301
0.730178
0.733304
0.741652
0.762283
0.776166
0.782154
0.785793
0.788916
0.786792
0.775228
0.770056
0.770949
0.773466
0.776753
0.78136
0.797008
0.820494
0.832334
0.837772
0.841832
0.844888
0.838925
0.825082
0.820502
0.821313
0.823539
0.827246
0.83468
0.858784
0.88239
0.89252
0.897512
0.900955
0.904279
0.897047
0.880672
0.874758
0.875338
0.877677
0.882159
0.8945
0.9251
0.947226
0.956207
0.961129
0.96532
0.969122
0.960884
0.942194
0.934125
0.934418
0.937549
0.943552
0.965567
0.999333
1.018
1.02616
1.03161
1.03696
1.03945
1.02457
1.00323
0.994945
0.995505
0.999599
1.01272
1.04629
1.07547
1.09022
1.09801
1.10336
1.1063
1.09794
1.06934
1.04432
1.03623
1.03674
1.05239
1.07969
1.11825
2.1965
8.44783
0.694025
0.696408
0.689687
0.686741
0.687881
0.69025
0.69298
0.699338
0.716873
0.730146
0.735665
0.738708
0.741605
0.742701
0.735108
0.729493
0.729998
0.732072
0.734702
0.738331
0.750186
0.772269
0.784318
0.789664
0.793067
0.795654
0.789754
0.777304
0.773879
0.775921
0.779137
0.782354
0.787151
0.805342
0.828345
0.839041
0.84452
0.84907
0.852054
0.84321
0.827721
0.823453
0.825878
0.829659
0.833466
0.840908
0.865584
0.887679
0.897044
0.903118
0.908402
0.911806
0.903047
0.88508
0.87787
0.879538
0.883827
0.888882
0.901051
0.929945
0.950376
0.959707
0.966591
0.972491
0.97621
0.967749
0.947855
0.937738
0.938252
0.943069
0.949971
0.970961
1.00222
1.01992
1.02943
1.03757
1.044
1.04649
1.03119
1.00749
0.996871
0.997194
1.00197
1.01451
1.04636
1.07599
1.09131
1.09929
1.10454
1.10728
1.10067
1.07336
1.04443
1.03217
1.03212
1.04485
1.09098
2.22925
8.45688
0.697513
0.701665
0.697785
0.691086
0.690446
0.692436
0.695069
0.698298
0.708261
0.727414
0.737963
0.742661
0.745666
0.748457
0.746345
0.736356
0.732576
0.734003
0.736805
0.739846
0.744412
0.759868
0.781163
0.791324
0.796424
0.800067
0.80183
0.793074
0.781814
0.77968
0.781096
0.783613
0.787146
0.79369
0.814668
0.836505
0.846174
0.851062
0.854552
0.856743
0.848016
0.834389
0.830781
0.831659
0.833851
0.837744
0.847181
0.874009
0.89594
0.904956
0.909572
0.913018
0.916551
0.909914
0.892949
0.885893
0.886203
0.88843
0.892749
0.90582
0.936697
0.958489
0.967451
0.972328
0.976759
0.981548
0.975898
0.956156
0.945283
0.944328
0.946698
0.952058
0.972367
1.00711
1.02821
1.03729
1.04288
1.04775
1.05116
1.03924
1.01543
1.0028
1.00139
1.00449
1.01346
1.04384
1.07559
1.09205
1.09991
1.10494
1.10776
1.10306
1.07776
1.04532
1.02827
1.0217
1.05725
2.22635
8.45986
0.700454
0.70513
0.705448
0.698566
0.694194
0.695094
0.697367
0.699991
0.704204
0.718404
0.73714
0.745677
0.749641
0.752361
0.754408
0.747995
0.738335
0.737069
0.739259
0.742163
0.745187
0.750449
0.768685
0.789175
0.798394
0.803292
0.807028
0.807935
0.796268
0.784538
0.783274
0.78621
0.789769
0.793207
0.799873
0.822104
0.842875
0.851644
0.856904
0.861579
0.864076
0.853285
0.837796
0.833634
0.836088
0.839999
0.844144
0.853327
0.879315
0.899848
0.90876
0.914939
0.920254
0.923801
0.916658
0.898511
0.889322
0.889976
0.894079
0.899274
0.911783
0.94021
0.960764
0.970647
0.978201
0.984313
0.98867
0.982694
0.961723
0.948212
0.946933
0.951165
0.957615
0.976272
1.00861
1.02917
1.03928
1.04767
1.0544
1.0581
1.04693
1.02098
1.00515
1.00233
1.00554
1.01409
1.04247
1.07487
1.09266
1.10076
1.10522
1.10733
1.10389
1.08143
1.047
1.02068
1.0266
2.18646
8.45779
0.703121
0.708335
0.71046
0.708081
0.700183
0.698408
0.700202
0.702819
0.70553
0.710939
0.728176
0.745223
0.752453
0.756259
0.759058
0.759523
0.749717
0.742096
0.742032
0.74409
0.746798
0.750151
0.75709
0.777518
0.796403
0.804425
0.808819
0.812311
0.812432
0.800767
0.791056
0.790209
0.79175
0.79433
0.798034
0.806503
0.830341
0.850386
0.858776
0.863171
0.866176
0.868577
0.859775
0.845588
0.841518
0.842263
0.844274
0.848224
0.858513
0.886214
0.907686
0.916484
0.920937
0.924419
0.928751
0.924636
0.907176
0.897515
0.89687
0.898681
0.902689
0.914816
0.945451
0.968876
0.978758
0.983878
0.988112
0.993183
0.990436
0.970566
0.956287
0.953659
0.955261
0.959659
0.975193
1.01005
1.03589
1.04721
1.05318
1.05795
1.06128
1.0533
1.02897
1.01082
1.00598
1.0076
1.01336
1.03916
1.0727
1.0916
1.0999
1.10419
1.10592
1.1028
1.08376
1.0423
1.01754
2.11356
8.4607
0.704853
0.711703
0.714067
0.715978
0.710218
0.703729
0.703636
0.705561
0.7079
0.710647
0.717453
0.736988
0.752767
0.759337
0.762894
0.76561
0.763985
0.75218
0.74593
0.746779
0.749674
0.752727
0.755905
0.763135
0.784875
0.802817
0.810398
0.814887
0.818758
0.818527
0.805218
0.794476
0.793804
0.79685
0.800453
0.803969
0.812094
0.836167
0.855294
0.863231
0.868602
0.873347
0.875981
0.866388
0.850222
0.844466
0.846227
0.850041
0.854442
0.8642
0.890255
0.910629
0.919774
0.926326
0.93178
0.935861
0.931657
0.913406
0.901189
0.900056
0.903783
0.908865
0.920188
0.948052
0.97023
0.981067
0.98923
0.995769
1.00067
0.997842
0.977595
0.960176
0.955944
0.95897
0.964461
0.977793
1.00951
1.03536
1.04736
1.05516
1.0621
1.06703
1.06121
1.03578
1.01381
1.00648
1.0075
1.01244
1.03532
1.06936
1.0896
1.09807
1.10233
1.10366
1.1014
1.0781
1.0395
2.04284
8.47497
0.704738
0.715477
0.718083
0.720917
0.720971
0.712442
0.707399
0.707985
0.710292
0.712956
0.716017
0.724114
0.744719
0.759433
0.765815
0.769694
0.772502
0.768505
0.756251
0.751723
0.752687
0.754536
0.757244
0.760883
0.769917
0.79244
0.809264
0.816401
0.820528
0.823743
0.823436
0.811288
0.801837
0.800879
0.802133
0.804567
0.808346
0.818162
0.843604
0.862677
0.870437
0.874489
0.877555
0.880727
0.874039
0.85846
0.852335
0.852585
0.85438
0.858175
0.868267
0.896066
0.918456
0.927691
0.932317
0.935703
0.940199
0.939017
0.922274
0.909423
0.907145
0.908359
0.911789
0.921701
0.951171
0.977999
0.989902
0.995716
0.99984
1.00471
1.00493
0.987311
0.968769
0.962715
0.962734
0.965527
0.97531
1.0071
1.039
1.05457
1.0613
1.06623
1.06948
1.06578
1.04333
1.0186
1.00825
1.00755
1.01135
1.03112
1.06563
1.08756
1.09655
1.09989
1.1016
1.09513
1.08074
2.00999
8.49505
0.700158
0.717848
0.722187
0.725051
0.727644
0.724759
0.715038
0.711888
0.713128
0.715321
0.717448
0.720296
0.729797
0.752148
0.766612
0.772775
0.776532
0.778899
0.773123
0.760002
0.755353
0.757003
0.760091
0.763028
0.766112
0.775148
0.798466
0.814832
0.821732
0.8265
0.830675
0.830406
0.81667
0.805213
0.804006
0.806898
0.810519
0.814144
0.823211
0.848012
0.866293
0.874163
0.879869
0.884747
0.888045
0.881063
0.863945
0.855442
0.856145
0.859781
0.864387
0.873993
0.899423
0.92054
0.930255
0.937081
0.942866
0.947447
0.946285
0.929304
0.91358
0.909818
0.912761
0.917573
0.927031
0.953281
0.978748
0.991386
0.999616
1.00672
1.01206
1.0124
0.994958
0.972933
0.964024
0.964986
0.969702
0.979191
1.00754
1.0391
1.05497
1.0624
1.06845
1.07335
1.07204
1.05069
1.02283
1.00952
1.00741
1.00991
1.02705
1.06118
1.08425
1.09351
1.09784
1.09513
1.10734
2.02177
8.51745
0.691826
0.715589
0.724989
0.729368
0.73226
0.734223
0.727817
0.718079
0.715584
0.716433
0.71852
0.721334
0.725265
0.737217
0.759812
0.772922
0.778636
0.782595
0.784929
0.778262
0.765828
0.761973
0.762557
0.763971
0.766763
0.770694
0.781965
0.806011
0.82179
0.828385
0.832145
0.835135
0.835497
0.823763
0.812957
0.811131
0.811972
0.814086
0.817874
0.8283
0.854546
0.873774
0.881614
0.885711
0.888844
0.892806
0.889017
0.87259
0.863618
0.863001
0.864519
0.86791
0.876732
0.903063
0.927334
0.938174
0.943377
0.94694
0.951581
0.953357
0.939117
0.92248
0.917533
0.917859
0.920489
0.927508
0.952775
0.983417
0.999272
1.00622
1.01032
1.01505
1.01851
1.00628
0.983928
0.973192
0.971404
0.97293
0.97827
1.00256
1.03808
1.05866
1.06706
1.0718
1.07514
1.07486
1.05772
1.02807
1.01065
1.00683
1.00826
1.02176
1.0553
1.07934
1.09072
1.09084
1.11668
2.06496
8.5436
0.687
0.704665
0.723876
0.732372
0.736375
0.738904
0.739435
0.729611
0.72006
0.718915
0.721035
0.723813
0.726592
0.730519
0.743892
0.766837
0.779376
0.784888
0.788783
0.791344
0.783665
0.76917
0.764415
0.76624
0.769384
0.772617
0.776266
0.787456
0.811471
0.826478
0.832971
0.837999
0.84221
0.842801
0.829761
0.816297
0.813636
0.816174
0.819881
0.823978
0.833642
0.858263
0.876763
0.885015
0.891008
0.896016
0.899782
0.896034
0.878874
0.867135
0.866084
0.869392
0.873912
0.882034
0.905279
0.928566
0.940144
0.947974
0.954558
0.959421
0.96088
0.946866
0.927321
0.919704
0.921073
0.925474
0.932274
0.953018
0.981979
0.998626
1.00853
1.01752
1.0237
1.02687
1.01567
0.990143
0.974045
0.971011
0.974041
0.979924
1.0012
1.0357
1.05747
1.06685
1.07258
1.07703
1.07849
1.06442
1.03304
1.01111
1.0048
1.00546
1.01678
1.04901
1.07478
1.08279
1.11616
2.12527
8.57011
0.688712
0.695088
0.712321
0.730354
0.738228
0.742393
0.745009
0.743711
0.731867
0.724443
0.724452
0.726171
0.728354
0.731293
0.736106
0.751546
0.773917
0.785163
0.790131
0.793481
0.795282
0.788144
0.775489
0.771677
0.772586
0.774188
0.776875