/*--------------------------------*- C++ -*----------------------------------*\
  =========                 |
  \\      /  F ield         | OpenFOAM: The Open Source CFD Toolbox
   \\    /   O peration     | Website:  https://openfoam.org
    \\  /    A nd           | Version:  12
     \\/     M anipulation  |
\*---------------------------------------------------------------------------*/
FoamFile
{
    format      ascii;
    class       surfaceScalarField;
    location    "9.8";
    object      phi;
}
// * * * * * * * * * * * * * * * * * * * * * * * * * * * * * * * * * * * * * //

dimensions      [1 0 -1 0 0 0 0];

internalField   nonuniform List<scalar> 
19404
(
-0.000134465
1.71059e-07
-0.000134397
1.3908e-07
-0.000134169
1.3962e-07
-0.000133378
1.60444e-07
-0.000132731
1.6993e-07
-0.00013251
1.34828e-07
-0.000132442
6.46612e-08
-0.000133137
3.92372e-08
-0.000134889
1.63954e-07
-0.000135926
2.3293e-07
-0.000136303
2.36093e-07
-0.000136408
2.08662e-07
-0.000136369
1.73985e-07
-0.00013618
1.33302e-07
-0.000135277
1.50377e-07
-0.000134478
1.73182e-07
-0.000134217
1.49644e-07
-0.000134135
9.24884e-08
-0.000134591
5.64289e-08
-0.00013637
1.52071e-07
-0.000137717
2.49263e-07
-0.000138226
2.35745e-07
-0.000138388
2.07984e-07
-0.000138391
1.69527e-07
-0.000138246
1.19982e-07
-0.000137123
1.26596e-07
-0.000136106
1.9259e-07
-0.000135812
1.54812e-07
-0.000135737
9.89604e-08
-0.000136103
4.37205e-08
-0.000138046
1.29518e-07
-0.000139723
2.06116e-07
-0.000140373
2.33441e-07
-0.000140572
2.03948e-07
-0.000140589
1.69444e-07
-0.000140346
1.13277e-07
-0.00013872
1.59932e-07
-0.000137646
2.06684e-07
-0.000137362
1.44596e-07
-0.000137328
1.13525e-07
-0.000137768
4.27079e-08
-0.000139976
1.56609e-07
-0.000141813
2.29621e-07
-0.000142499
2.69285e-07
-0.000142688
2.30696e-07
-0.000142707
1.95407e-07
-0.0001421
1.394e-07
-0.000139962
1.48873e-07
-0.000139005
1.24758e-07
-0.000138805
8.98777e-08
-0.000138801
3.85111e-08
-0.000139535
5.46782e-09
-0.000142237
1.49169e-07
-0.000144183
2.6378e-07
-0.00014485
2.90586e-07
-0.00014503
2.66226e-07
-0.00014505
2.40893e-07
-0.000143525
1.57456e-07
-0.00014073
1.7951e-07
-0.000139844
8.16331e-08
-0.000139832
5.14592e-08
-0.000139925
-8.92636e-08
-0.000141655
-4.45479e-08
-0.000145164
1.9934e-07
-0.000146939
2.02171e-07
-0.000147478
2.84315e-07
-0.000147617
3.07326e-07
-0.000147404
2.716e-07
-0.000144202
2.18929e-07
-0.000140897
1.66427e-07
-0.00014017
4.32416e-08
-0.000140246
-5.0354e-08
-0.000140902
-1.68005e-07
-0.000144894
1.60272e-08
-0.00014851
1.52945e-07
-0.000149762
2.90858e-07
-0.000150119
3.76428e-07
-0.000150213
3.21905e-07
-0.000148616
1.27126e-07
-0.000142772
1.40858e-08
-0.000139546
-1.24011e-07
-0.000139257
-1.65784e-07
-0.000139585
-4.09966e-07
-0.000143635
-4.06952e-07
-0.000149296
-1.37655e-07
-0.000151564
8.99884e-08
-0.000152211
3.51672e-07
-0.000152473
4.762e-07
-0.000151311
3.82158e-07
-0.00014345
3.22098e-07
-0.000135602
-2.49497e-07
-0.000133469
-6.20787e-07
-0.000133626
-9.20171e-07
-0.000139478
-1.18469e-06
-0.000147105
-1.77796e-06
-0.00014843
-3.58808e-06
-0.000146109
-4.21648e-06
-0.000112281
-1.9255e-05
1.99886e-05
-0.000135222
3.42835e-07
-0.000135138
3.24176e-07
-0.000134869
3.00905e-07
-0.00013412
2.84377e-07
-0.000133464
3.02031e-07
-0.000133193
2.64199e-07
-0.000133062
1.74674e-07
-0.000133692
1.37911e-07
-0.000135609
2.83885e-07
-0.000136675
4.03415e-07
-0.000137031
4.507e-07
-0.000137099
4.01839e-07
-0.000137025
3.52071e-07
-0.000136812
3.0538e-07
-0.00013596
2.83796e-07
-0.00013513
3.03334e-07
-0.000134804
2.83781e-07
-0.000134681
2.2084e-07
-0.00013505
1.51506e-07
-0.000137019
2.75335e-07
-0.000138408
4.01575e-07
-0.000138884
4.26238e-07
-0.000139018
4.10613e-07
-0.000138992
3.58347e-07
-0.000138787
2.77742e-07
-0.000137698
2.85827e-07
-0.000136656
3.28477e-07
-0.000136305
2.82046e-07
-0.000136208
2.25899e-07
-0.000136509
1.37579e-07
-0.000138587
2.17e-07
-0.000140331
3.49991e-07
-0.000140924
4.16551e-07
-0.000141087
4.13688e-07
-0.00014108
3.77544e-07
-0.000140801
3.07368e-07
-0.000139244
3.33968e-07
-0.000138095
3.46658e-07
-0.000137763
2.87256e-07
-0.00013769
2.4048e-07
-0.000138033
1.34779e-07
-0.000140333
2.40226e-07
-0.000142309
3.92828e-07
-0.000142991
4.67973e-07
-0.000143177
4.35227e-07
-0.000143185
3.86793e-07
-0.000142618
3.01037e-07
-0.000140512
2.73457e-07
-0.000139383
2.26124e-07
-0.000139068
1.91971e-07
-0.000139028
1.49456e-07
-0.000139607
9.40735e-08
-0.000142428
2.42446e-07
-0.000144529
4.39757e-07
-0.000145223
5.08578e-07
-0.00014541
4.89781e-07
-0.000145408
4.49303e-07
-0.000144108
3.34412e-07
-0.000141301
3.2802e-07
-0.000140202
1.35134e-07
-0.000139992
9.15876e-08
-0.000140078
-1.56434e-08
-0.000141509
-3.17042e-08
-0.000145031
2.44196e-07
-0.000146955
4.38346e-07
-0.000147585
5.58197e-07
-0.000147761
5.77329e-07
-0.000147648
5.02257e-07
-0.00014488
3.84074e-07
-0.000141374
1.74358e-07
-0.00014033
4.29666e-08
-0.000140321
-5.27802e-08
-0.0001407
-2.23751e-07
-0.000144009
-1.96095e-07
-0.000147922
2.27502e-07
-0.000149564
5.21613e-07
-0.000150065
5.81478e-07
-0.000150155
5.09584e-07
-0.000148996
3.4403e-07
-0.000143279
1.19395e-07
-0.000139676
-2.00545e-07
-0.000139048
-4.62492e-07
-0.000139138
-6.77468e-07
-0.000141478
-9.69929e-07
-0.000146988
-5.2373e-07
-0.000150026
1.75165e-07
-0.000151075
4.83921e-07
-0.000151305
4.78906e-07
-0.000150765
3.2011e-07
-0.0001445
2.83272e-07
-0.000135949
-9.96019e-07
-0.000131802
-2.01283e-06
-0.000131768
-2.68647e-06
-0.000134013
-3.10643e-06
-0.000139127
-4.38104e-06
-0.000140316
-6.96623e-06
-0.000139084
-7.85008e-06
-0.000124899
-2.16905e-05
2.58431e-05
-0.00013503
4.90674e-07
-0.000134928
4.83802e-07
-0.000134682
4.53493e-07
-0.000134034
4.30506e-07
-0.000133374
4.45225e-07
-0.000133076
4.0994e-07
-0.000132939
3.28062e-07
-0.000133408
2.62295e-07
-0.000135387
3.92531e-07
-0.000136546
5.88015e-07
-0.000136862
6.1415e-07
-0.000136931
5.83444e-07
-0.000136855
5.08601e-07
-0.000136662
4.60034e-07
-0.000135846
4.07829e-07
-0.000134968
4.36318e-07
-0.000134606
4.16494e-07
-0.000134486
3.69068e-07
-0.000134783
2.77291e-07
-0.000136786
3.67946e-07
-0.000138279
5.62477e-07
-0.000138754
6.24864e-07
-0.000138851
5.90871e-07
-0.000138801
5.27855e-07
-0.000138615
4.58118e-07
-0.000137503
4.12401e-07
-0.000136462
4.35275e-07
-0.000136115
4.06589e-07
-0.000135995
3.25426e-07
-0.000136223
2.41216e-07
-0.00013826
3.13137e-07
-0.000140064
5.41432e-07
-0.000140651
6.43244e-07
-0.000140789
6.35772e-07
-0.000140778
5.97293e-07
-0.000140549
5.12553e-07
-0.00013905
4.69787e-07
-0.00013783
4.3359e-07
-0.000137453
3.72158e-07
-0.000137367
3.20846e-07
-0.0001376
1.98595e-07
-0.000139807
2.76378e-07
-0.000141946
5.41191e-07
-0.000142665
6.57467e-07
-0.000142859
6.39835e-07
-0.000142887
5.93758e-07
-0.000142509
4.79626e-07
-0.000140419
4.32558e-07
-0.000138986
3.53676e-07
-0.000138581
2.86847e-07
-0.000138519
2.3368e-07
-0.000138903
1.40936e-07
-0.000141602
2.6111e-07
-0.000143941
5.72692e-07
-0.000144738
7.25486e-07
-0.000144961
7.12723e-07
-0.000144982
6.36732e-07
-0.000144152
5.19428e-07
-0.00014131
3.97669e-07
-0.000139792
1.94371e-07
-0.000139392
1.29442e-07
-0.000139392
7.75027e-08
-0.000140155
-1.23227e-08
-0.000143583
1.94573e-07
-0.000146031
6.20115e-07
-0.000146845
7.89214e-07
-0.000147043
7.67855e-07
-0.000147013
6.51516e-07
-0.00014501
5.46749e-07
-0.000141218
2.51815e-07
-0.000139662
-5.38928e-08
-0.000139358
-1.95819e-07
-0.000139474
-2.69207e-07
-0.000141466
-3.59484e-07
-0.000145959
6.30678e-08
-0.000148103
6.61539e-07
-0.000148661
8.27377e-07
-0.00014875
7.85397e-07
-0.000148159
6.30368e-07
-0.000143274
3.57738e-07
-0.000138726
-3.40169e-07
-0.000137364
-9.3715e-07
-0.000137379
-1.13727e-06
-0.000138117
-1.37385e-06
-0.000143181
-1.30125e-06
-0.000147589
-3.56446e-07
-0.00014901
2.74456e-07
-0.000149262
4.21071e-07
-0.000149085
3.57955e-07
-0.000144252
9.3423e-08
-0.000136369
-8.94398e-07
-0.000131322
-2.68096e-06
-0.000130351
-4.06266e-06
-0.000130991
-4.79838e-06
-0.000134713
-6.58203e-06
-0.000136669
-9.72005e-06
-0.00013656
-1.10914e-05
-0.000127671
-2.14138e-05
2.93967e-05
-0.000134788
6.16992e-07
-0.000134688
6.4497e-07
-0.000134439
6.06558e-07
-0.000133757
5.67321e-07
-0.00013307
5.73833e-07
-0.000132753
5.48673e-07
-0.000132621
4.89669e-07
-0.000132954
4.02353e-07
-0.000134947
5.10849e-07
-0.000136199
6.98139e-07
-0.000136556
7.66577e-07
-0.00013659
7.1399e-07
-0.000136521
6.62573e-07
-0.000136306
5.99677e-07
-0.000135494
5.79503e-07
-0.000134583
5.65561e-07
-0.000134219
5.53934e-07
-0.000134076
4.88902e-07
-0.000134256
3.92344e-07
-0.000136202
4.66063e-07
-0.000137841
7.01892e-07
-0.000138325
7.86672e-07
-0.000138419
7.53963e-07
-0.00013838
6.94106e-07
-0.000138172
6.04692e-07
-0.000137111
5.70953e-07
-0.000136046
5.35698e-07
-0.000135626
4.91614e-07
-0.000135493
4.40973e-07
-0.000135598
3.73934e-07
-0.000137399
4.14988e-07
-0.000139348
7.16609e-07
-0.000140014
8.58271e-07
-0.000140189
8.41373e-07
-0.000140176
7.63416e-07
-0.000140001
6.66885e-07
-0.000138628
5.88147e-07
-0.000137319
5.05429e-07
-0.000136865
4.0834e-07
-0.000136725
3.49105e-07
-0.000136824
2.80847e-07
-0.000138698
3.14174e-07
-0.000141099
6.41472e-07
-0.000141934
8.41622e-07
-0.000142141
8.53217e-07
-0.000142163
8.03372e-07
-0.000141916
6.95437e-07
-0.000139906
6.20017e-07
-0.000138202
4.49335e-07
-0.00013771
2.87014e-07
-0.000137635
2.44076e-07
-0.0001378
1.7071e-07
-0.000140047
2.22559e-07
-0.000142803
6.11355e-07
-0.000143756
8.83291e-07
-0.000143984
9.10212e-07
-0.00014402
8.41275e-07
-0.000143559
7.34317e-07
-0.000140736
6.01033e-07
-0.0001387
3.47786e-07
-0.000138142
8.79941e-08
-0.000138085
2.83816e-08
-0.000138391
-3.02557e-08
-0.000141415
5.04882e-08
-0.000144504
5.60027e-07
-0.000145431
8.94821e-07
-0.000145639
9.47033e-07
-0.000145669
8.67436e-07
-0.000144481
7.51487e-07
-0.000140354
4.30725e-07
-0.000138084
-1.00893e-07
-0.000137615
-4.11305e-07
-0.000137648
-4.64137e-07
-0.000138502
-5.59271e-07
-0.000142886
-2.96492e-07
-0.000145765
4.82817e-07
-0.000146474
9.38289e-07
-0.000146624
1.00459e-06
-0.000146507
8.35109e-07
-0.000143267
5.90791e-07
-0.000137693
-2.86145e-07
-0.000135362
-1.19248e-06
-0.000135125
-1.68441e-06
-0.000135272
-1.86273e-06
-0.000137843
-2.06851e-06
-0.000142707
-1.47043e-06
-0.000144928
-4.45499e-07
-0.000145553
1.05977e-07
-0.000145725
1.15275e-07
-0.000143509
-4.00863e-08
-0.000136147
-1.08782e-06
-0.000129925
-3.10824e-06
-0.000127388
-5.09028e-06
-0.000127077
-6.84359e-06
-0.000129107
-8.2852e-06
-0.000131944
-1.15009e-05
-0.00013333
-1.30928e-05
-0.000130014
-1.83268e-05
3.12146e-05
-0.00013435
7.57966e-07
-0.000134235
7.81728e-07
-0.000133957
7.27083e-07
-0.000133228
6.95585e-07
-0.000132521
6.93548e-07
-0.00013219
6.72726e-07
-0.00013204
6.18496e-07
-0.000132287
5.28594e-07
-0.000134258
6.28747e-07
-0.000135662
8.11159e-07
-0.00013601
8.8025e-07
-0.000136054
8.66149e-07
-0.000135958
8.12833e-07
-0.000135728
7.65569e-07
-0.000134836
7.14577e-07
-0.000133927
6.9868e-07
-0.000133515
6.4302e-07
-0.000133371
6.02884e-07
-0.000133456
5.06856e-07
-0.000135223
5.50969e-07
-0.000137073
7.80375e-07
-0.00013763
9.12148e-07
-0.00013773
9.05602e-07
-0.000137685
8.56309e-07
-0.000137491
7.74253e-07
-0.000136458
7.15778e-07
-0.000135269
6.49852e-07
-0.000134756
5.92611e-07
-0.000134575
5.65224e-07
-0.000134565
5.03024e-07
-0.000136035
5.25014e-07
-0.000138324
7.88603e-07
-0.000139156
9.61753e-07
-0.000139341
9.69375e-07
-0.000139337
8.96029e-07
-0.000139199
8.08511e-07
-0.00013799
7.16552e-07
-0.000136453
5.92552e-07
-0.00013585
4.59786e-07
-0.000135642
4.1572e-07
-0.000135633
3.90136e-07
-0.000136987
4.04603e-07
-0.000139663
6.85751e-07
-0.000140727
9.58319e-07
-0.000140992
1.03439e-06
-0.000141003
9.67698e-07
-0.000140863
8.95595e-07
-0.000139208
7.59324e-07
-0.000137221
5.12512e-07
-0.000136525
2.85929e-07
-0.00013631
2.2842e-07
-0.000136326
2.1156e-07
-0.00013783
2.18227e-07
-0.000140959
5.90697e-07
-0.000142216
9.62879e-07
-0.000142535
1.09935e-06
-0.000142601
1.06379e-06
-0.000142401
9.56796e-07
-0.000140057
8.04254e-07
-0.000137378
4.52902e-07
-0.000136604
6.94764e-08
-0.000136466
-8.44595e-08
-0.00013655
-1.38754e-07
-0.000138592
-1.04104e-07
-0.00014216
3.8601e-07
-0.000143473
9.46772e-07
-0.000143771
1.13806e-06
-0.000143846
1.07959e-06
-0.000143411
9.17604e-07
-0.000139906
6.3509e-07
-0.000136536
-1.08834e-07
-0.000135688
-5.30465e-07
-0.000135612
-7.44693e-07
-0.00013583
-8.19833e-07
-0.000138857
-7.43586e-07
-0.000142992
4.18695e-08
-0.000144359
8.76772e-07
-0.000144607
1.12865e-06
-0.000144708
1.05862e-06
-0.000143274
8.19729e-07
-0.000137707
1.59065e-07
-0.000133682
-1.18685e-06
-0.000132793
-1.96252e-06
-0.000132811
-2.43353e-06
-0.000133631
-2.69644e-06
-0.000137816
-2.57217e-06
-0.000141466
-1.57944e-06
-0.000142772
-7.33436e-07
-0.00014308
-4.13208e-07
-0.000142706
-4.34201e-07
-0.000137848
-9.00849e-07
-0.000131155
-3.11206e-06
-0.000126413
-5.56523e-06
-0.00012535
-7.34604e-06
-0.000126504
-9.71128e-06
-0.00012994
-1.24047e-05
-0.00013222
-1.43583e-05
-0.000130948
-1.55308e-05
3.27774e-05
-0.000133778
8.91875e-07
-0.000133663
9.07312e-07
-0.000133385
8.35472e-07
-0.000132596
8.10346e-07
-0.000131849
8.04848e-07
-0.000131504
7.70879e-07
-0.000131348
7.2199e-07
-0.000131508
6.36358e-07
-0.000133368
7.09333e-07
-0.000134875
9.11003e-07
-0.000135287
1.01259e-06
-0.000135341
1.01753e-06
-0.000135266
9.77778e-07
-0.000135045
9.03117e-07
-0.000134172
8.37417e-07
-0.00013317
7.96139e-07
-0.000132739
7.34782e-07
-0.000132558
6.89261e-07
-0.00013254
6.09975e-07
-0.000134002
6.28293e-07
-0.000136067
8.33135e-07
-0.000136761
1.01776e-06
-0.000136888
1.03883e-06
-0.000136839
1.00921e-06
-0.000136685
9.39092e-07
-0.000135756
8.6955e-07
-0.000134363
7.8257e-07
-0.000133756
7.03732e-07
-0.000133547
6.53992e-07
-0.000133506
6.00652e-07
-0.000134602
5.87983e-07
-0.000137107
7.85753e-07
-0.000138164
1.01137e-06
-0.000138396
1.06058e-06
-0.000138428
1.05316e-06
-0.000138333
9.63475e-07
-0.000137354
8.69889e-07
-0.000135432
7.09351e-07
-0.000134632
5.80587e-07
-0.000134385
4.84948e-07
-0.000134346
4.56245e-07
-0.000135274
4.52249e-07
-0.000138065
6.8682e-07
-0.00013946
1.02267e-06
-0.000139824
1.15624e-06
-0.000139916
1.13752e-06
-0.000139873
1.0368e-06
-0.000138793
8.87704e-07
-0.00013623
6.38691e-07
-0.000135105
3.85667e-07
-0.000134817
2.65689e-07
-0.000134807
2.11898e-07
-0.000135767
1.93539e-07
-0.000138984
4.77735e-07
-0.000140726
9.90101e-07
-0.000141159
1.23724e-06
-0.00014126
1.24801e-06
-0.000141249
1.12967e-06
-0.000139868
9.62085e-07
-0.000136574
5.19608e-07
-0.000135094
1.40018e-07
-0.000134852
-9.32814e-08
-0.000134872
-2.18725e-07
-0.000135921
-2.58533e-07
-0.000139711
9.84425e-08
-0.000141873
8.82338e-07
-0.000142323
1.25737e-06
-0.000142412
1.3043e-06
-0.000142367
1.09436e-06
-0.00014014
8.16556e-07
-0.000135964
1.11627e-07
-0.000134102
-5.36689e-07
-0.000133821
-9.13682e-07
-0.000133878
-1.07837e-06
-0.000135131
-1.16241e-06
-0.000139704
-7.114e-07
-0.000142557
4.46394e-07
-0.000143248
1.07925e-06
-0.000143364
1.20172e-06
-0.000143038
1.07274e-06
-0.000138966
7.62673e-07
-0.000133664
-6.8753e-07
-0.000131362
-2.02615e-06
-0.000131097
-2.901e-06
-0.000131224
-3.21722e-06
-0.000133359
-3.40807e-06
-0.000137507
-2.90224e-06
-0.000139826
-1.94087e-06
-0.000140631
-1.38699e-06
-0.000140897
-1.31931e-06
-0.000139657
-1.13869e-06
-0.000134209
-2.59176e-06
-0.000128438
-5.17824e-06
-0.000124958
-7.79296e-06
-0.000124887
-9.63449e-06
-0.000127913
-1.27406e-05
-0.000130881
-1.53807e-05
-0.000131872
-1.35312e-05
3.39783e-05
-0.000133186
1.01386e-06
-0.000133073
1.02406e-06
-0.000132819
9.5537e-07
-0.000131958
9.08848e-07
-0.000131154
8.98566e-07
-0.000130786
8.43072e-07
-0.000130629
8.07549e-07
-0.000130791
7.47423e-07
-0.000132556
7.87182e-07
-0.000134101
1.02814e-06
-0.000134543
1.15038e-06
-0.000134604
1.14233e-06
-0.000134523
1.09492e-06
-0.000134353
1.03274e-06
-0.000133556
9.5039e-07
-0.000132445
8.8465e-07
-0.000131956
8.10843e-07
-0.000131763
7.65455e-07
-0.00013174
7.00285e-07
-0.000132959
6.85332e-07
-0.000135086
9.16107e-07
-0.000135859
1.1189e-06
-0.000136036
1.17852e-06
-0.000136015
1.14746e-06
-0.000135901
1.0844e-06
-0.000135133
9.99732e-07
-0.000133512
8.97283e-07
-0.000132806
7.8134e-07
-0.000132584
6.98139e-07
-0.000132548
6.25125e-07
-0.000133516
5.90332e-07
-0.000136035
7.96001e-07
-0.000137215
1.09007e-06
-0.000137507
1.22441e-06
-0.000137515
1.19019e-06
-0.00013745
1.13073e-06
-0.000136808
1.03455e-06
-0.000134714
8.80887e-07
-0.000133514
7.06719e-07
-0.000133232
5.53665e-07
-0.000133182
4.72236e-07
-0.000133863
4.12719e-07
-0.000136652
6.10932e-07
-0.000138435
1.07773e-06
-0.000138871
1.28201e-06
-0.000138948
1.28334e-06
-0.000138939
1.19134e-06
-0.000138463
1.05878e-06
-0.000135898
8.61462e-07
-0.000134008
5.1472e-07
-0.000133601
3.38717e-07
-0.000133555
2.21849e-07
-0.000134019
1.23863e-07
-0.000136996
2.74682e-07
-0.000139474
9.02576e-07
-0.000140113
1.31618e-06
-0.000140253
1.41037e-06
-0.000140288
1.28419e-06
-0.000139735
1.10142e-06
-0.000136675
8.00851e-07
-0.000134326
1.7145e-07
-0.000133639
-1.25097e-07
-0.000133594
-2.26467e-07
-0.000133843
-3.38302e-07
-0.000136811
-2.37837e-07
-0.000140363
5.44308e-07
-0.000141458
1.29211e-06
-0.0001416
1.47629e-06
-0.00014164
1.33431e-06
-0.000140608
1.08713e-06
-0.000136481
6.15547e-07
-0.000133472
-4.58484e-07
-0.00013262
-1.03407e-06
-0.00013262
-1.28885e-06
-0.00013284
-1.47323e-06
-0.000135811
-1.44282e-06
-0.000140317
-4.61036e-07
-0.000142114
7.36341e-07
-0.000142446
1.1662e-06
-0.000142547
1.21579e-06
-0.000141133
1.03328e-06
-0.000135651
3.319e-07
-0.000131484
-1.62762e-06
-0.000130014
-2.92223e-06
-0.000130031
-3.56966e-06
-0.000130512
-3.94935e-06
-0.000133724
-4.02111e-06
-0.000137119
-3.28026e-06
-0.000138866
-2.54057e-06
-0.000139611
-2.31954e-06
-0.000139733
-2.46192e-06
-0.000137653
-2.45038e-06
-0.000132441
-4.51871e-06
-0.000126943
-7.4469e-06
-0.000124331
-9.93673e-06
-0.000125921
-1.2399e-05
-0.000129417
-1.69577e-05
-0.00013301
-1.24636e-05
3.48471e-05
-0.000132756
1.13414e-06
-0.000132645
1.149e-06
-0.000132397
1.07788e-06
-0.000131549
1.03012e-06
-0.000130634
9.75669e-07
-0.000130257
9.3309e-07
-0.000130088
8.69701e-07
-0.000130151
7.98729e-07
-0.00013179
8.5169e-07
-0.000133439
1.10689e-06
-0.000133953
1.28715e-06
-0.000134069
1.29226e-06
-0.000134011
1.22297e-06
-0.000133881
1.17224e-06
-0.000133222
1.07325e-06
-0.000131926
9.7735e-07
-0.000131319
8.94648e-07
-0.000131114
8.31157e-07
-0.000131056
7.52455e-07
-0.000132073
7.25571e-07
-0.000134243
9.50311e-07
-0.000135166
1.24822e-06
-0.000135384
1.32488e-06
-0.0001354
1.30771e-06
-0.000135302
1.23203e-06
-0.000134822
1.15014e-06
-0.000133139
1.01797e-06
-0.000132163
8.48493e-07
-0.000131914
7.44249e-07
-0.000131854
6.3328e-07
-0.000132547
5.42284e-07
-0.000135056
7.50092e-07
-0.000136453
1.1757e-06
-0.000136789
1.39374e-06
-0.000136858
1.39097e-06
-0.000136813
1.32915e-06
-0.00013652
1.23265e-06
-0.000134639
1.07446e-06
-0.000132954
7.26653e-07
-0.000132496
6.04309e-07
-0.00013243
4.74625e-07
-0.000132693
3.7772e-07
-0.000135176
4.50732e-07
-0.000137554
9.9693e-07
-0.000138227
1.39981e-06
-0.000138378
1.49302e-06
-0.000138377
1.4033e-06
-0.000138159
1.29063e-06
-0.00013606
1.11021e-06
-0.00013373
6.66823e-07
-0.000132888
3.74652e-07
-0.000132758
1.96493e-07
-0.000132851
1.09516e-07
-0.000134764
7.18951e-08
-0.000138233
6.04873e-07
-0.000139553
1.3194e-06
-0.000139793
1.52985e-06
-0.000139825
1.45877e-06
-0.000139657
1.31594e-06
-0.000137282
1.1127e-06
-0.000134203
4.8962e-07
-0.000132929
-1.07044e-07
-0.00013267
-2.99801e-07
-0.000132727
-3.97976e-07
-0.000133996
-5.0643e-07
-0.00013832
-6.06301e-08
-0.000140738
1.03327e-06
-0.000141246
1.57742e-06
-0.000141312
1.58039e-06
-0.000141084
1.44968e-06
-0.000138035
1.20902e-06
-0.000133896
9.24973e-08
-0.000132085
-1.02607e-06
-0.000131696
-1.56344e-06
-0.000131755
-1.65732e-06
-0.000132528
-1.8411e-06
-0.000136827
-1.52785e-06
-0.000140435
-1.97734e-07
-0.000141619
8.37245e-07
-0.000141887
1.12908e-06
-0.000141876
1.13378e-06
-0.000139199
7.52049e-07
-0.00013327
-2.70135e-07
-0.000130061
-2.42229e-06
-0.000129312
-3.59373e-06
-0.000129342
-4.3379e-06
-0.000130544
-4.67966e-06
-0.000133976
-4.56047e-06
-0.000136535
-3.80977e-06
-0.000137862
-3.39396e-06
-0.000138501
-3.49969e-06
-0.000138331
-3.68567e-06
-0.00013606
-4.5211e-06
-0.000131322
-6.70264e-06
-0.000126113
-9.449e-06
-0.000123975
-1.18584e-05
-0.000127667
-1.68457e-05
-0.000133934
-1.18566e-05
3.54159e-05
-0.000132515
1.25742e-06
-0.000132409
1.28895e-06
-0.000132204
1.23205e-06
-0.000131442
1.15825e-06
-0.000130421
1.07897e-06
-0.000129953
1.00789e-06
-0.000129752
9.2502e-07
-0.000129705
8.4332e-07
-0.000131033
8.53469e-07
-0.000133016
1.14185e-06
-0.000133675
1.40258e-06
-0.000133789
1.43119e-06
-0.000133764
1.37828e-06
-0.000133641
1.30797e-06
-0.000133166
1.21681e-06
-0.000131787
1.11585e-06
-0.000131008
9.83655e-07
-0.000130726
8.80014e-07
-0.000130617
7.88597e-07
-0.000131231
7.34751e-07
-0.000133553
9.53244e-07
-0.000134765
1.33947e-06
-0.000135048
1.48607e-06
-0.000135077
1.47244e-06
-0.000135029
1.41004e-06
-0.00013475
1.30781e-06
-0.000133235
1.1715e-06
-0.000131997
9.31491e-07
-0.000131588
7.93805e-07
-0.000131466
6.55816e-07
-0.000131662
5.80724e-07
-0.000133862
6.8379e-07
-0.000135889
1.20483e-06
-0.000136429
1.5421e-06
-0.000136538
1.59268e-06
-0.000136535
1.52376e-06
-0.000136394
1.39806e-06
-0.000134893
1.24112e-06
-0.00013294
9.08505e-07
-0.000132205
6.16114e-07
-0.000131992
4.70549e-07
-0.000131997
3.92367e-07
-0.000133427
3.60373e-07
-0.000136566
8.02865e-07
-0.000137834
1.4504e-06
-0.000138051
1.62853e-06
-0.000138088
1.62381e-06
-0.000138004
1.50285e-06
-0.000136577
1.35761e-06
-0.000133884
9.30619e-07
-0.00013269
4.0316e-07
-0.000132356
1.47076e-07
-0.000132318
5.85499e-08
-0.000132921
3.87288e-09
-0.000136463
2.29696e-07
-0.000138973
1.13197e-06
-0.000139516
1.64262e-06
-0.000139594
1.68542e-06
-0.000139576
1.59682e-06
-0.000138216
1.43489e-06
-0.000134637
9.28328e-07
-0.000132707
6.73289e-08
-0.000132184
-3.415e-07
-0.00013214
-5.60682e-07
-0.000132341
-6.55031e-07
-0.000135318
-5.99159e-07
-0.000139424
3.75156e-07
-0.000140835
1.47594e-06
-0.00014103
1.74926e-06
-0.000141083
1.73981e-06
-0.000140091
1.61549e-06
-0.00013575
9.94207e-07
-0.000132411
-4.88618e-07
-0.000131159
-1.52877e-06
-0.000130973
-1.86938e-06
-0.000131084
-2.03296e-06
-0.000133013
-2.21826e-06
-0.000137829
-1.52619e-06
-0.000140582
-6.84118e-09
-0.000141397
7.9879e-07
-0.000141549
9.98349e-07
-0.00014118
9.56582e-07
-0.000137261
5.50714e-07
-0.000131874
-1.09084e-06
-0.000129298
-3.26656e-06
-0.000128809
-4.35995e-06
-0.000128926
-5.02764e-06
-0.000130875
-5.40234e-06
-0.00013424
-5.06435e-06
-0.000136302
-4.48231e-06
-0.000137396
-4.4093e-06
-0.00013766
-4.75112e-06
-0.000137236
-5.04092e-06
-0.00013486
-6.70051e-06
-0.000130498
-8.77423e-06
-0.000126067
-1.13652e-05
-0.000125604
-1.68962e-05
-0.000134303
-1.22623e-05
3.60502e-05
-0.000132422
1.38742e-06
-0.000132324
1.44042e-06
-0.000132131
1.37897e-06
-0.000131508
1.30277e-06
-0.000130401
1.19605e-06
-0.000129815
1.07373e-06
-0.00012958
1.00746e-06
-0.000129463
9.09367e-07
-0.00013025
8.42235e-07
-0.000132542
1.10532e-06
-0.000133517
1.46279e-06
-0.000133701
1.58709e-06
-0.000133671
1.53725e-06
-0.000133566
1.47658e-06
-0.000133213
1.37351e-06
-0.000131882
1.26157e-06
-0.000130892
1.06122e-06
-0.000130528
9.64365e-07
-0.000130397
8.626e-07
-0.000130561
7.54154e-07
-0.000132679
8.90461e-07
-0.000134448
1.34401e-06
-0.000134906
1.61392e-06
-0.000134986
1.65183e-06
-0.000134927
1.5651e-06
-0.000134766
1.46405e-06
-0.000133578
1.34782e-06
-0.000132057
1.07292e-06
-0.00013144
8.44417e-07
-0.000131194
7.39472e-07
-0.000131154
6.90427e-07
-0.000132396
6.52084e-07
-0.000135156
1.0352e-06
-0.000136249
1.6151e-06
-0.000136436
1.74e-06
-0.000136444
1.69268e-06
-0.000136379
1.55793e-06
-0.000135458
1.4318e-06
-0.00013322
1.12106e-06
-0.0001321
6.99359e-07
-0.000131713
5.51896e-07
-0.00013163
4.59918e-07
-0.000132009
3.77088e-07
-0.000135008
5.57411e-07
-0.000137325
1.29244e-06
-0.000137884
1.74812e-06
-0.000137956
1.80841e-06
-0.000137953
1.70568e-06
-0.000137344
1.56571e-06
-0.000134622
1.243e-06
-0.00013277
5.69906e-07
-0.000132131
1.7756e-07
-0.000131958
5.90052e-08
-0.000132008
-1.23451e-08
-0.000134006
9.97376e-09
-0.000137828
7.0742e-07
-0.000139225
1.64156e-06
-0.000139442
1.88593e-06
-0.000139468
1.88324e-06
-0.000139141
1.70693e-06
-0.00013614
1.41268e-06
-0.00013311
4.07049e-07
-0.000131978
-3.68209e-07
-0.000131643
-7.42733e-07
-0.000131661
-7.42261e-07
-0.000132473
-8.73954e-07
-0.000136848
-4.95229e-07
-0.000139992
8.74318e-07
-0.000140844
1.76883e-06
-0.000140995
1.90327e-06
-0.000140975
1.74575e-06
-0.000138707
1.72046e-06
-0.000133699
6.81163e-07
-0.000131234
-1.06537e-06
-0.000130597
-1.88049e-06
-0.000130543
-2.33764e-06
-0.000130772
-2.45564e-06
-0.000133766
-2.49089e-06
-0.000138228
-1.42361e-06
-0.000140217
4.00282e-08
-0.000140769
6.50381e-07
-0.000140907
7.25614e-07
-0.000140324
6.65825e-07
-0.000135876
-7.22276e-08
-0.000130833
-1.84163e-06
-0.000128657
-4.08785e-06
-0.000128378
-5.07197e-06
-0.000128659
-5.8372e-06
-0.000131188
-6.1316e-06
-0.000134204
-5.66852e-06
-0.000135856
-5.2853e-06
-0.000136775
-5.44923e-06
-0.000137067
-6.01652e-06
-0.000136435
-6.81038e-06
-0.000134038
-8.50572e-06
-0.000129663
-1.0658e-05
-0.000126257
-1.55949e-05
-0.000134014
-1.32004e-05
3.70729e-05
-0.000132429
1.50549e-06
-0.000132351
1.59801e-06
-0.000132182
1.52855e-06
-0.000131724
1.45682e-06
-0.000130527
1.32223e-06
-0.000129814
1.16524e-06
-0.000129503
1.06999e-06
-0.000129356
9.79967e-07
-0.000129653
9.00441e-07
-0.000131894
1.0414e-06
-0.000133369
1.47318e-06
-0.000133671
1.68369e-06
-0.000133666
1.68362e-06
-0.000133557
1.63112e-06
-0.000133327
1.5364e-06
-0.000132181
1.42634e-06
-0.000130946
1.2015e-06
-0.000130421
1.00812e-06
-0.000130222
9.43545e-07
-0.000130192
8.61935e-07
-0.000131569
8.33812e-07
-0.000134045
1.24685e-06
-0.000134865
1.67269e-06
-0.000134998
1.80559e-06
-0.00013497
1.7312e-06
-0.000134874
1.63201e-06
-0.000134153
1.52788e-06
-0.000132321
1.29635e-06
-0.000131306
9.3878e-07
-0.000130948
8.54665e-07
-0.000130829
7.661e-07
-0.000131199
6.65438e-07
-0.000134003
8.50964e-07
-0.000136
1.49179e-06
-0.000136448
1.80987e-06
-0.00013647
1.84144e-06
-0.000136441
1.75351e-06
-0.000136036
1.62001e-06
-0.00013385
1.42583e-06
-0.000132109
9.1897e-07
-0.000131473
5.98007e-07
-0.000131299
5.30872e-07
-0.000131311
4.17115e-07
-0.000133038
3.93152e-07
-0.000136453
9.37324e-07
-0.000137716
1.73258e-06
-0.000137917
1.87399e-06
-0.000137939
1.88308e-06
-0.000137807
1.74145e-06
-0.000135886
1.59162e-06
-0.000133117
9.48535e-07
-0.000131979
2.91314e-07
-0.000131589
1.25479e-07
-0.000131539
2.27663e-08
-0.000132018
-3.33867e-08
-0.000135702
1.89282e-07
-0.000138664
1.25835e-06
-0.000139379
1.9654e-06
-0.000139443
1.99711e-06
-0.000139448
1.93027e-06
-0.000138225
1.80424e-06
-0.000134343
1.17557e-06
-0.00013202
-5.12892e-08
-0.000131252
-6.90414e-07
-0.000131089
-8.90187e-07
-0.000131197
-1.00082e-06
-0.000133313
-1.09069e-06
-0.000138117
-2.38723e-07
-0.000140331
1.32498e-06
-0.000140729
1.91063e-06
-0.000140832
1.98851e-06
-0.000140558
1.85097e-06
-0.000137244
1.55294e-06
-0.000132657
1.54901e-07
-0.000130666
-1.53813e-06
-0.000130022
-2.33621e-06
-0.000130069
-2.55896e-06
-0.000130607
-2.82241e-06
-0.000134504
-2.73443e-06
-0.000138455
-1.40495e-06
-0.000140052
-1.24563e-07
-0.000140519
3.25005e-07
-0.000140591
3.59609e-07
-0.000139391
1.49195e-07
-0.000134596
-6.719e-07
-0.000130029
-2.77783e-06
-0.000128049
-4.96657e-06
-0.000127919
-5.91638e-06
-0.000128457
-6.78965e-06
-0.000131525
-6.93523e-06
-0.00013439
-6.38485e-06
-0.000135806
-6.14479e-06
-0.000136494
-6.5198e-06
-0.000136659
-7.34483e-06
-0.00013599
-8.64205e-06
-0.000133316
-1.00968e-05
-0.000128759
-1.36122e-05
-0.000133262
-1.36714e-05
3.85441e-05
-0.000132489
1.59859e-06
-0.000132439
1.74686e-06
-0.000132305
1.68596e-06
-0.000131986
1.59263e-06
-0.000130832
1.47366e-06
-0.000129888
1.27348e-06
-0.00012948
1.12031e-06
-0.000129311
1.05171e-06
-0.000129323
9.79328e-07
-0.000131024
1.00062e-06
-0.000133064
1.42583e-06
-0.00013363
1.73976e-06
-0.000133704
1.82005e-06
-0.000133634
1.78081e-06
-0.000133474
1.67608e-06
-0.000132673
1.58747e-06
-0.000131134
1.36922e-06
-0.000130425
1.1103e-06
-0.000130146
1.01926e-06
-0.000130027
9.41345e-07
-0.000130586
8.6686e-07
-0.000133278
1.08457e-06
-0.00013478
1.66202e-06
-0.000135048
1.87071e-06
-0.000135048
1.89877e-06
-0.000134969
1.81073e-06
-0.000134617
1.71514e-06
-0.00013275
1.53894e-06
-0.000131289
1.14087e-06
-0.000130802
9.09727e-07
-0.000130649
8.09877e-07
-0.000130662
7.09152e-07
-0.000132487
6.92487e-07
-0.000135447
1.21656e-06
-0.000136398
1.83759e-06
-0.000136532
1.97891e-06
-0.00013649
1.93897e-06
-0.000136349
1.83757e-06
-0.000134752
1.71535e-06
-0.000132323
1.23984e-06
-0.000131418
7.35826e-07
-0.000131103
5.47957e-07
-0.000131049
4.56003e-07
-0.000131504
3.44861e-07
-0.000134836
5.61072e-07
-0.000137357
1.4503e-06
-0.00013795
1.96893e-06
-0.000138007
2.04635e-06
-0.000138
1.95396e-06
-0.000137211
1.83944e-06
-0.000134038
1.46896e-06
-0.000132012
6.17072e-07
-0.000131296
1.50595e-07
-0.000131112
-1.52966e-09
-0.000131158
-1.04982e-07
-0.000132946
-1.60488e-07
-0.000137291
4.60067e-07
-0.000139193
1.71824e-06
-0.000139579
2.12026e-06
-0.000139632
2.09871e-06
-0.000139448
2.02664e-06
-0.000136569
1.9619e-06
-0.000132697
8.16102e-07
-0.000131192
-4.48669e-07
-0.000130757
-9.11861e-07
-0.000130688
-1.18795e-06
-0.000130934
-1.24358e-06
-0.000134333
-1.18478e-06
-0.000138746
6.43179e-08
-0.00014028
1.53056e-06
-0.000140644
2.03961e-06
-0.000140733
1.85926e-06
-0.000140185
1.7127e-06
-0.000135802
1.50165e-06
-0.000131474
-2.51437e-07
-0.000129919
-1.95973e-06
-0.000129631
-2.57267e-06
-0.000129699
-3.00614e-06
-0.000130683
-3.2322e-06
-0.000134951
-2.91744e-06
-0.000138253
-1.50437e-06
-0.000139463
-4.21967e-07
-0.000139822
-1.20207e-07
-0.000139884
-1.06875e-07
-0.000138512
-3.91882e-07
-0.000133586
-1.44646e-06
-0.000129258
-3.68344e-06
-0.000127408
-5.92954e-06
-0.000127461
-6.83793e-06