/*--------------------------------*- C++ -*----------------------------------*\
  =========                 |
  \\      /  F ield         | OpenFOAM: The Open Source CFD Toolbox
   \\    /   O peration     | Website:  https://openfoam.org
    \\  /    A nd           | Version:  12
     \\/     M anipulation  |
\*---------------------------------------------------------------------------*/
FoamFile
{
    format      ascii;
    class       surfaceScalarField;
    location    "9.8";
    object      phi;
}
// * * * * * * * * * * * * * * * * * * * * * * * * * * * * * * * * * * * * * //

dimensions      [1 0 -1 0 0 0 0];

internalField   nonuniform List<scalar> 
19404
(
-0.000120396
-1.49477e-08
-0.000122309
1.60783e-07
-0.000123089
3.35896e-07
-0.000123231
3.67498e-07
-0.000123112
3.00039e-07
-0.000122816
2.05774e-07
-0.000122401
2.56842e-07
-0.00012208
3.24942e-07
-0.000121908
3.1089e-07
-0.000121807
2.31478e-07
-0.000121862
1.37929e-07
-0.000122912
1.0464e-07
-0.000124919
1.74295e-07
-0.000125912
3.24053e-07
-0.000126128
3.76514e-07
-0.000126035
3.10068e-07
-0.000125671
1.98825e-07
-0.000125169
2.44243e-07
-0.000124829
3.5379e-07
-0.000124656
3.31185e-07
-0.000124586
2.69282e-07
-0.000124601
1.4287e-07
-0.00012561
1.00767e-07
-0.000127759
1.84527e-07
-0.000128879
3.27203e-07
-0.000129125
3.59098e-07
-0.000129041
2.97521e-07
-0.000128544
1.45246e-07
-0.000127914
1.98761e-07
-0.00012752
3.4875e-07
-0.000127357
3.56253e-07
-0.000127293
2.77704e-07
-0.000127306
1.72704e-07
-0.000128323
1.0498e-07
-0.000130671
1.91227e-07
-0.000131857
3.10502e-07
-0.000132107
3.40099e-07
-0.000131982
2.55333e-07
-0.000131219
6.66092e-08
-0.000130354
1.77206e-07
-0.000129875
3.39957e-07
-0.000129727
3.64834e-07
-0.000129685
2.61813e-07
-0.000129735
1.54217e-07
-0.000131098
7.25601e-08
-0.000133916
2.30865e-07
-0.000135051
3.84354e-07
-0.000135186
3.79678e-07
-0.000134804
2.06762e-07
-0.000133546
-2.61478e-08
-0.000132436
9.05032e-08
-0.000131874
2.75884e-07
-0.000131695
3.31686e-07
-0.00013168
2.63795e-07
-0.000131826
1.3188e-07
-0.000134033
6.84793e-08
-0.00013721
2.68417e-07
-0.00013822
3.62304e-07
-0.000138266
3.59083e-07
-0.000137314
1.37509e-07
-0.00013511
-1.04478e-07
-0.000133712
4.1868e-09
-0.000133192
1.88446e-07
-0.000133078
2.83809e-07
-0.000133126
1.80188e-07
-0.000133797
9.64793e-09
-0.000137361
1.12241e-07
-0.000140163
2.21407e-07
-0.000140951
4.65613e-07
-0.00014092
3.20006e-07
-0.000139122
1.36287e-07
-0.000135586
-6.05733e-08
-0.000133818
-7.4604e-08
-0.000133386
6.89714e-09
-0.000133391
4.80284e-09
-0.000133616
-1.42756e-07
-0.000136563
3.25531e-07
-0.000141262
2.84689e-07
-0.000143196
3.68141e-07
-0.000143549
4.14501e-07
-0.000142945
3.90846e-07
-0.00013883
9.17869e-08
-0.000133855
-3.74229e-07
-0.000131456
-4.91153e-07
-0.000131267
-3.37878e-07
-0.00013151
-2.05529e-08
-0.000136008
-2.4058e-07
-0.000142453
-3.83336e-07
-0.000144526
-9.58739e-08
-0.000144955
4.53539e-07
-0.000144753
5.36999e-07
-0.000141208
3.75572e-07
-0.000133158
4.48099e-08
-0.000125441
-3.32432e-07
-0.000123122
-3.43589e-07
-0.000126235
-5.40356e-07
-0.000129277
-5.61904e-06
-0.000110265
-1.95486e-05
1.63075e-05
-0.000129825
1.45597e-07
-0.000131232
3.72821e-07
-0.000131634
4.24844e-07
-0.000131657
4.51695e-07
-0.000131543
4.24372e-07
-0.000131114
3.55171e-07
-0.00013012
3.2789e-07
-0.000129535
3.62664e-07
-0.00012928
3.60652e-07
-0.000129149
3.10636e-07
-0.000129225
2.63471e-07
-0.000130628
2.63581e-07
-0.000132302
3.58001e-07
-0.000132901
4.31963e-07
-0.000132994
4.71485e-07
-0.000132916
4.40405e-07
-0.000132497
3.66761e-07
-0.000131351
3.38835e-07
-0.000130686
3.5039e-07
-0.000130437
3.70983e-07
-0.000130317
3.30924e-07
-0.000130325
2.50655e-07
-0.000131498
2.4751e-07
-0.000133465
3.55634e-07
-0.000134226
4.29936e-07
-0.000134377
4.83188e-07
-0.000134328
4.42563e-07
-0.000133846
3.32944e-07
-0.000132454
3.04893e-07
-0.000131717
3.21872e-07
-0.000131445
3.49277e-07
-0.000131351
3.2517e-07
-0.000131351
2.65632e-07
-0.000132395
2.29677e-07
-0.000134661
3.38189e-07
-0.00013562
4.40638e-07
-0.000135795
4.88271e-07
-0.000135762
4.24919e-07
-0.000135064
3.00244e-07
-0.00013337
2.74102e-07
-0.00013258
2.80064e-07
-0.000132315
3.31046e-07
-0.000132255
3.04874e-07
-0.000132297
2.43361e-07
-0.000133557
1.8596e-07
-0.000136167
3.44049e-07
-0.000137227
4.9678e-07
-0.00013738
5.3838e-07
-0.000137335
4.3517e-07
-0.000136113
2.80366e-07
-0.000134092
1.88838e-07
-0.000133285
2.09108e-07
-0.000133043
2.88267e-07
-0.000133002
2.96073e-07
-0.000133116
2.04225e-07
-0.000135122
1.45921e-07
-0.00013807
3.30247e-07
-0.000139041
4.73859e-07
-0.000139148
5.44345e-07
-0.000138979
4.19127e-07
-0.000136723
2.88262e-07
-0.0001345
1.05904e-07
-0.000133798
9.60381e-08
-0.000133571
1.66084e-07
-0.000133576
1.68395e-07
-0.000134099
5.10367e-08
-0.00013768
1.21078e-07
-0.000140406
3.6243e-07
-0.00014102
5.34562e-07
-0.000141078
5.80465e-07
-0.000140217
4.68058e-07
-0.000136507
3.63598e-07
-0.000134167
-1.27724e-08
-0.000133574
-2.07516e-07
-0.000133515
-1.82874e-07
-0.000133744
-2.80636e-07
-0.000136746
-2.51376e-07
-0.000141028
1.56238e-07
-0.000142642
4.95426e-07
-0.000142998
6.82789e-07
-0.000143006
6.65884e-07
-0.000140327
4.73576e-07
-0.000134366
-1.5824e-07
-0.000131853
-7.41701e-07
-0.000131392
-7.61143e-07
-0.000131573
-9.54706e-07
-0.000134379
-1.00333e-06
-0.000139624
-8.15872e-07
-0.000142268
-2.03028e-07
-0.000142986
2.80864e-07
-0.00014315
2.72713e-07
-0.000140297
1.23321e-07
-0.000132304
-8.0026e-07
-0.000124696
-1.58364e-06
-0.000119714
-2.06361e-06
-0.000118381
-3.15084e-06
-0.000121469
-1.15166e-05
-0.000121761
-2.10279e-05
2.12463e-05
-0.000129239
2.62499e-07
-0.000130606
5.52145e-07
-0.000131002
5.67291e-07
-0.000131061
5.55127e-07
-0.000130963
5.30056e-07
-0.000130589
4.91425e-07
-0.000129634
4.49867e-07
-0.00012901
4.46451e-07
-0.000128714
4.00765e-07
-0.0001286
3.91577e-07
-0.000128649
3.5351e-07
-0.000130032
4.03072e-07
-0.000131678
5.11358e-07
-0.000132278
5.81688e-07
-0.00013238
5.61576e-07
-0.000132313
5.4629e-07
-0.000131951
4.97901e-07
-0.00013088
4.77919e-07
-0.00013021
4.21433e-07
-0.0001299
3.81657e-07
-0.00012977
3.74493e-07
-0.000129783
3.61188e-07
-0.000130882
3.72516e-07
-0.000132825
5.01529e-07
-0.000133629
5.96217e-07
-0.000133776
5.87351e-07
-0.000133735
5.62509e-07
-0.00013333
5.05763e-07
-0.000131986
4.45207e-07
-0.000131259
3.84102e-07
-0.000130957
3.46696e-07
-0.000130843
3.51857e-07
-0.000130829
3.42136e-07
-0.000131758
3.3529e-07
-0.000134031
4.81498e-07
-0.000135044
6.04147e-07
-0.00013523
6.19278e-07
-0.000135203
5.66577e-07
-0.000134557
4.80186e-07
-0.000132959
4.27939e-07
-0.000132217
3.17802e-07
-0.000131912
2.92917e-07
-0.000131794
3.11369e-07
-0.000131785
3.15699e-07
-0.000132825
3.07807e-07
-0.000135486
4.85609e-07
-0.000136641
6.19596e-07
-0.000136849
6.69179e-07
-0.000136819
6.10631e-07
-0.000135698
5.09667e-07
-0.000133678
3.82732e-07
-0.000132873
2.43781e-07
-0.000132605
2.08362e-07
-0.000132521
2.19698e-07
-0.000132605
2.36393e-07
-0.000134343
2.5244e-07
-0.000137296
4.45199e-07
-0.000138389
6.15222e-07
-0.000138566
7.05956e-07
-0.000138471
6.45229e-07
-0.000136562
5.64471e-07
-0.000134071
2.81262e-07
-0.000133139
5.85075e-08
-0.00013286
7.77959e-09
-0.000132841
5.23676e-08
-0.000133292
6.91834e-08
-0.000136489
1.75732e-07
-0.000139362
4.87503e-07
-0.0001402
7.16538e-07
-0.000140297
7.77332e-07
-0.00013992
6.90662e-07
-0.000136566
5.36151e-07
-0.00013343
-9.03935e-09
-0.000132494
-3.24567e-07
-0.00013232
-4.15293e-07
-0.000132458
-4.2613e-07
-0.000134659
-4.00721e-07
-0.000138943
8.90586e-09
-0.000141041
5.68714e-07
-0.000141613
8.12164e-07
-0.000141719
7.94474e-07
-0.000140136
6.81571e-07
-0.000133938
1.22536e-07
-0.000130354
-7.63301e-07
-0.000129808
-1.40345e-06
-0.000129816
-1.56764e-06
-0.00013094
-1.76317e-06
-0.000135606
-1.61293e-06
-0.000139442
-8.50666e-07
-0.000140578
-2.86589e-07
-0.000140867
-1.39627e-07
-0.000139022
-3.31018e-07
-0.000131835
-1.15059e-06
-0.000125178
-2.92797e-06
-0.000120346
-4.43144e-06
-0.000117771
-6.34455e-06
-0.000120252
-1.44351e-05
-0.000124423
-1.96187e-05
2.40777e-05
-0.000128314
3.3668e-07
-0.000129615
6.8037e-07
-0.000129972
7.03245e-07
-0.000130018
6.75198e-07
-0.000129922
6.43122e-07
-0.000129645
6.12652e-07
-0.000128724
5.93265e-07
-0.000128002
5.66713e-07
-0.000127703
5.12038e-07
-0.00012756
4.5479e-07
-0.000127679
4.29453e-07
-0.000129079
4.74795e-07
-0.000130667
6.36568e-07
-0.000131224
7.08118e-07
-0.000131361
7.03662e-07
-0.0001313
6.47008e-07
-0.000131063
6.1884e-07
-0.000129998
5.87601e-07
-0.000129175
5.34814e-07
-0.000128846
4.78021e-07
-0.000128727
4.4605e-07
-0.000128761
4.11211e-07
-0.00012991
4.51253e-07
-0.000131826
6.26567e-07
-0.000132596
7.28478e-07
-0.000132782
7.3662e-07
-0.000132758
6.84692e-07
-0.000132456
6.27912e-07
-0.000131107
5.84102e-07
-0.000130211
5.12101e-07
-0.000129856
4.16677e-07
-0.00012974
4.01476e-07
-0.000129763
3.75532e-07
-0.000130739
4.01369e-07
-0.000132996
5.73065e-07
-0.00013404
7.34722e-07
-0.00013425
7.5293e-07
-0.000134253
7.17284e-07
-0.00013381
6.37671e-07
-0.000132119
5.72146e-07
-0.000131169
4.50524e-07
-0.000130795
3.51813e-07
-0.000130671
3.44918e-07
-0.000130688
3.39526e-07
-0.000131697
3.62314e-07
-0.000134348
5.50674e-07
-0.000135612
7.27436e-07
-0.000135851
7.86375e-07
-0.000135843
7.58106e-07
-0.000135071
6.93858e-07
-0.000132829
5.96863e-07
-0.000131752
3.62134e-07
-0.000131388
1.86633e-07
-0.000131289
1.75549e-07
-0.000131368
1.98112e-07
-0.000132916
2.68745e-07
-0.000135891
5.1076e-07
-0.000137167
7.51305e-07
-0.000137429
8.42451e-07
-0.000137442
8.36994e-07
-0.000136245
7.39346e-07
-0.000133195
4.73537e-07
-0.000131763
1.40931e-07
-0.000131368
-7.82749e-08
-0.000131323
-6.57793e-08
-0.000131604
-5.8245e-08
-0.000134328
7.49027e-08
-0.000137559
4.78006e-07
-0.000138702
8.44838e-07
-0.000138907
9.27307e-07
-0.000138868
8.75179e-07
-0.000136578
7.42561e-07
-0.000132306
1.77115e-07
-0.000130627
-3.64747e-07
-0.000130358
-6.58265e-07
-0.000130396
-7.15774e-07
-0.000131588
-7.34731e-07
-0.000135891
-3.79558e-07
-0.000138647
3.64472e-07
-0.000139334
8.09629e-07
-0.000139502
9.36531e-07
-0.000138972
8.27885e-07
-0.000134196
4.92967e-07
-0.000129037
-7.50528e-07
-0.000127328
-1.83115e-06
-0.000127284
-2.30366e-06
-0.000127544
-2.50493e-06
-0.000130358
-2.57929e-06
-0.000134152
-2.04426e-06
-0.000135885
-1.22936e-06
-0.000136384
-9.31909e-07
-0.000136045
-1.1137e-06
-0.000131286
-1.56456e-06
-0.000124262
-3.49259e-06
-0.000118503
-5.69779e-06
-0.000116121
-7.5783e-06
-0.000119126
-1.61992e-05
-0.000126277
-1.76952e-05
2.60124e-05
-0.000127257
4.2417e-07
-0.00012853
7.8021e-07
-0.00012885
8.12736e-07
-0.000128888
8.07649e-07
-0.000128794
7.82085e-07
-0.000128556
7.39391e-07
-0.000127705
7.0868e-07
-0.000126877
6.70458e-07
-0.000126533
6.30476e-07
-0.000126386
5.58501e-07
-0.000126457
4.86589e-07
-0.000127947
5.45854e-07
-0.000129565
7.29108e-07
-0.000130124
8.32875e-07
-0.00013022
8.19537e-07
-0.000130182
7.89698e-07
-0.000129972
7.26341e-07
-0.000129021
7.0157e-07
-0.000128037
6.50423e-07
-0.000127645
5.89622e-07
-0.000127478
5.25393e-07
-0.000127477
4.7182e-07
-0.000128643
5.03712e-07
-0.000130645
7.13746e-07
-0.000131461
8.47504e-07
-0.000131632
8.66762e-07
-0.000131611
8.20736e-07
-0.000131406
7.6218e-07
-0.000130195
7.08154e-07
-0.000129059
6.0804e-07
-0.000128649
5.03163e-07
-0.000128485
4.70332e-07
-0.000128451
4.31958e-07
-0.000129322
4.478e-07
-0.000131639
6.38917e-07
-0.000132795
8.39299e-07
-0.000133068
8.97823e-07
-0.000133075
8.6725e-07
-0.000132836
8.0647e-07
-0.000131236
7.087e-07
-0.000129922
5.40764e-07
-0.000129492
3.97515e-07
-0.000129336
3.58573e-07
-0.000129325
3.50354e-07
-0.000130237
4.02072e-07
-0.000132772
5.89894e-07
-0.000134148
8.46176e-07
-0.000134491
9.4019e-07
-0.000134528
9.37533e-07
-0.000134183
8.83199e-07
-0.00013205
7.52107e-07
-0.000130405
4.38276e-07
-0.000129898
1.73471e-07
-0.00012977
1.4002e-07
-0.000129802
1.36923e-07
-0.000131102
2.21407e-07
-0.000134058
5.11714e-07
-0.00013552
8.44465e-07
-0.000135913
1.0044e-06
-0.000135974
1.01471e-06
-0.000135557
9.1927e-07
-0.000132659
7.08912e-07
-0.000130239
2.62034e-07
-0.000129639
-9.38673e-08
-0.000129541
-2.30587e-07
-0.000129677
-2.67466e-07
-0.000131711
-1.6992e-07
-0.000135243
3.06464e-07
-0.000136683
8.68522e-07
-0.000137013
1.09414e-06
-0.000137071
1.06857e-06
-0.00013618
9.2598e-07
-0.000131971
5.12235e-07
-0.000128981
-3.72074e-07
-0.000128363
-8.31416e-07
-0.000128331
-1.05469e-06
-0.000128665
-1.11781e-06
-0.000131818
-9.61471e-07
-0.000135672
-1.15301e-07
-0.000137038
6.83756e-07
-0.000137304
9.71392e-07
-0.000137343
9.29654e-07
-0.000135087
7.46338e-07
-0.000129098
-1.77991e-07
-0.000125486
-1.82817e-06
-0.000124846
-2.65631e-06
-0.000124881
-3.16964e-06
-0.000126227
-3.4718e-06
-0.000130002
-3.237e-06
-0.000132641
-2.48431e-06
-0.000133596
-2.03749e-06
-0.000133899
-2.14574e-06
-0.000132291
-2.39773e-06
-0.000126483
-3.87589e-06
-0.000120316
-6.26828e-06
-0.00011648
-8.36167e-06
-0.000118362
-1.60704e-05
-0.000126655
-1.6093e-05
2.76298e-05
-0.000126218
5.00397e-07
-0.000127529
8.63792e-07
-0.000127865
9.28511e-07
-0.00012792
9.44032e-07
-0.000127837
9.10808e-07
-0.000127639
8.53922e-07
-0.000126879
8.05863e-07
-0.000125952
7.65852e-07
-0.000125528
7.18818e-07
-0.00012536
6.66053e-07
-0.000125365
5.89752e-07
-0.000126762
6.09055e-07
-0.000128504
8.0389e-07
-0.000129089
9.30981e-07
-0.000129219
9.5043e-07
-0.000129178
9.21739e-07
-0.000129038
8.59942e-07
-0.000128221
8.04642e-07
-0.000127074
7.35615e-07
-0.000126591
6.75839e-07
-0.000126399
6.12593e-07
-0.000126359
5.79446e-07
-0.000127329
5.62427e-07
-0.000129435
7.53348e-07
-0.000130355
9.43315e-07
-0.00013057
9.95707e-07
-0.000130577
9.74414e-07
-0.000130448
8.96935e-07
-0.000129461
8.28494e-07
-0.000128056
6.90077e-07
-0.000127503
5.85054e-07
-0.00012729
5.14094e-07
-0.00012725
5.01372e-07
-0.000127939
4.9264e-07
-0.000130278
6.89277e-07
-0.000131597
9.22614e-07
-0.000131947
1.02333e-06
-0.000131989
1.01639e-06
-0.000131905
9.77401e-07
-0.000130719
8.6051e-07
-0.000128851
6.52478e-07
-0.000128174
4.51822e-07
-0.000127975
3.68103e-07
-0.000127961
3.43185e-07
-0.0001287
3.7702e-07
-0.000131207
6.08093e-07
-0.000132754
9.31617e-07
-0.000133224
1.07651e-06
-0.000133349
1.10864e-06
-0.0001333
1.02929e-06
-0.000131945
8.9743e-07
-0.000129396
5.3888e-07
-0.000128424
2.83364e-07
-0.000128205
1.48701e-07
-0.000128223
7.12861e-08
-0.000129159
9.03945e-08
-0.000132179
3.86096e-07
-0.000134007
8.86114e-07
-0.000134509
1.15083e-06
-0.000134628
1.19835e-06
-0.000134579
1.07971e-06
-0.000132752
9.13569e-07
-0.000129402
3.62494e-07
-0.000128092
-2.72955e-08
-0.000127912
-3.09391e-07
-0.000127954
-4.27388e-07
-0.000129048
-4.5848e-07
-0.00013275
-4.33726e-08
-0.00013502
7.60536e-07
-0.000135538
1.19533e-06
-0.000135615
1.25391e-06
-0.000135456
1.11799e-06
-0.000132502
7.99244e-07
-0.000128432
-1.00303e-07
-0.000126758
-8.58093e-07
-0.000126552
-1.2726e-06
-0.000126631
-1.42291e-06
-0.000128018
-1.50801e-06
-0.00013233
-1.00072e-06
-0.000135036
1.09731e-07
-0.000135801
7.78918e-07
-0.000135951
9.20741e-07
-0.000135436
8.69271e-07
-0.000130795
4.72426e-07
-0.000125571
-1.14815e-06
-0.000123359
-2.6976e-06
-0.000123235
-3.67189e-06
-0.000123524
-4.1476e-06
-0.000126026
-4.31533e-06
-0.000129112
-3.88134e-06
-0.00013073
-3.37711e-06
-0.000131461
-3.32504e-06
-0.000131598
-3.74573e-06
-0.000129455
-3.97325e-06
-0.000124466
-6.27758e-06
-0.00011941
-8.43553e-06
-0.000118311
-1.5118e-05
-0.000126629
-1.57554e-05
2.93952e-05
-0.00012533
5.94288e-07
-0.00012673
9.61412e-07
-0.000127094
1.05433e-06
-0.000127127
1.04875e-06
-0.000127045
1.02186e-06
-0.000126855
9.47633e-07
-0.000126163
9.02804e-07
-0.000125204
8.76158e-07
-0.000124756
8.01929e-07
-0.00012458
7.55538e-07
-0.000124571
6.77437e-07
-0.000125862
6.77223e-07
-0.000127662
8.81201e-07
-0.000128298
1.06286e-06
-0.000128429
1.08005e-06
-0.000128388
1.04576e-06
-0.000128257
9.83254e-07
-0.000127562
9.08643e-07
-0.000126296
8.31991e-07
-0.00012572
7.38514e-07
-0.000125527
6.96526e-07
-0.00012546
6.27486e-07
-0.000126322
6.15255e-07
-0.000128467
8.14422e-07
-0.000129492
1.05811e-06
-0.000129747
1.13863e-06
-0.000129757
1.10866e-06
-0.000129686
1.04707e-06
-0.000129002
9.53977e-07
-0.000127301
7.88766e-07
-0.000126492
6.70004e-07
-0.000126256
5.70371e-07
-0.000126198
5.16655e-07
-0.000126846
4.96405e-07
-0.000129128
6.79493e-07
-0.000130586
1.00271e-06
-0.000131014
1.16942e-06
-0.000131121
1.18565e-06
-0.000131081
1.11918e-06
-0.000130507
1.0176e-06
-0.000128384
8.23062e-07
-0.000127121
5.79135e-07
-0.000126825
4.18443e-07
-0.000126792
3.68205e-07
-0.000127334
3.01195e-07
-0.000129816
5.12147e-07
-0.000131663
9.56013e-07
-0.000132223
1.20903e-06
-0.000132347
1.24371e-06
-0.00013236
1.16824e-06
-0.000131843
1.03824e-06
-0.000129209
8.3245e-07
-0.000127397
3.39403e-07
-0.000127018
1.82052e-07
-0.000126992
5.88239e-08
-0.000127404
-5.40448e-08
-0.00013022
1.42514e-07
-0.000132793
7.95689e-07
-0.000133528
1.26761e-06
-0.000133656
1.3877e-06
-0.000133688
1.28206e-06
-0.000132809
1.07772e-06
-0.000129506
7.17002e-07
-0.000127336
-1.55875e-08
-0.000126753
-3.76736e-07
-0.000126703
-5.08284e-07
-0.000126955
-5.94962e-07
-0.000129772
-4.78326e-07
-0.000133375
3.50294e-07
-0.000134592
1.15216e-06
-0.000134781
1.38903e-06
-0.000134812
1.3158e-06
-0.000133521
1.10706e-06
-0.00012914
5.33972e-07
-0.000126181
-7.50331e-07
-0.00012533
-1.3258e-06
-0.000125343
-1.70183e-06
-0.000125635
-1.88097e-06
-0.000128565
-1.86626e-06
-0.000132713
-9.02812e-07
-0.000134497
2.30603e-07
-0.000134935
7.26735e-07
-0.000135043
8.10684e-07
-0.000133487
7.19731e-07
-0.000127899
-9.94653e-08
-0.000123813
-2.15437e-06
-0.000122308
-3.67701e-06
-0.000122351
-4.4847e-06
-0.000123189
-4.99784e-06
-0.000126242
-5.07106e-06
-0.000128651
-4.61602e-06
-0.00012981
-4.47854e-06
-0.000130339
-4.84642e-06
-0.000130149
-5.50806e-06
-0.000127712
-6.73184e-06
-0.000123256
-8.5658e-06
-0.000119649
-1.36404e-05
-0.000126304
-1.56598e-05
3.13353e-05
-0.00012463
6.70111e-07
-0.000126155
1.04316e-06
-0.000126571
1.16441e-06
-0.000126643
1.1746e-06
-0.00012656
1.13757e-06
-0.000126415
1.08608e-06
-0.000125803
1.01471e-06
-0.000124722
9.55015e-07
-0.000124227
8.84233e-07
-0.000124026
8.06755e-07
-0.000123975
7.30075e-07
-0.000125104
7.2842e-07
-0.000126999
9.36334e-07
-0.000127724
1.1927e-06
-0.000127881
1.21493e-06
-0.000127864
1.19131e-06
-0.000127757
1.12615e-06
-0.000127278
1.0511e-06
-0.000125882
9.36788e-07
-0.000125117
8.29074e-07
-0.000124855
7.43732e-07
-0.000124784
6.79512e-07
-0.000125433
6.2548e-07
-0.000127645
8.26088e-07
-0.000128833
1.1339e-06
-0.000129153
1.28048e-06
-0.000129204
1.25547e-06
-0.000129158
1.20686e-06
-0.00012882
1.11562e-06
-0.000127135
9.84101e-07
-0.000125878
7.1996e-07
-0.000125528
6.34111e-07
-0.000125455
5.56626e-07
-0.000125802
4.72457e-07
-0.000128052
6.09027e-07
-0.000129829
1.02536e-06
-0.000130372
1.29987e-06
-0.000130501
1.32856e-06
-0.000130501
1.27109e-06
-0.000130294
1.16886e-06
-0.000128482
1.03795e-06
-0.000126665
6.48663e-07
-0.000126084
4.86648e-07
-0.000125988
3.80739e-07
-0.000126138
2.9243e-07
-0.00012824
3.65744e-07
-0.000130761
8.51534e-07
-0.000131618
1.31003e-06
-0.000131808
1.41323e-06
-0.000131832
1.35106e-06
-0.000131618
1.22639e-06
-0.000129463
1.03615e-06
-0.000127173
5.57552e-07
-0.000126318
1.58335e-07
-0.000126168
2.97889e-08
-0.00012625
-4.48409e-08
-0.000127917
-6.34161e-08
-0.000131397
4.56268e-07
-0.000132884
1.24831e-06
-0.000133153
1.52751e-06
-0.000133194
1.47362e-06
-0.000132963
1.30578e-06
-0.00013034
1.05936e-06
-0.000127327
3.06058e-07
-0.000126056
-3.67954e-07
-0.000125784
-5.96181e-07
-0.000125826
-6.82957e-07
-0.000126938
-7.82725e-07
-0.000131068
-3.64551e-07
-0.000133699
7.66726e-07
-0.000134351
1.4104e-06
-0.000134435
1.5012e-06
-0.000134241
1.39513e-06
-0.000131054
1.22614e-06
-0.000126748
2.33888e-08
-0.000124869
-1.31749e-06
-0.000124541
-1.80731e-06
-0.000124575
-2.14312e-06
-0.000125394
-2.30434e-06
-0.000129295
-2.01667e-06
-0.000132595
-8.08842e-07
-0.00013382
1.58824e-07
-0.000134178
5.15439e-07
-0.000134171
5.72113e-07
-0.000131749
1.55052e-07
-0.000126062
-8.48352e-07
-0.000122692
-3.02313e-06
-0.000121769
-4.50679e-06
-0.000121838
-5.36238e-06
-0.000123348
-5.8702e-06
-0.000126305
-5.82541e-06
-0.000128102
-5.5334e-06
-0.000129053
-5.72031e-06
-0.000129465
-6.54907e-06
-0.000128956
-7.52444e-06
-0.000126391
-8.98757e-06
-0.000122421
-1.2284e-05
-0.000125556
-1.55124e-05
3.33459e-05
-0.000124086
7.28183e-07
-0.000125798
1.10297e-06
-0.000126318
1.30156e-06
-0.000126406
1.30738e-06
-0.000126353
1.27385e-06
-0.000126219
1.2135e-06
-0.000125726
1.12867e-06
-0.000124578
1.04352e-06
-0.000123976
9.54523e-07
-0.000123743
8.62646e-07
-0.000123648
7.8749e-07
-0.000124406
7.38473e-07
-0.000126489
9.69303e-07
-0.000127406
1.29114e-06
-0.000127617
1.37306e-06
-0.000127618
1.34405e-06
-0.000127542
1.28254e-06
-0.000127216
1.18574e-06
-0.000125844
1.06938e-06
-0.000124839
8.98822e-07
-0.000124506
8.14037e-07
-0.000124391
7.24746e-07
-0.00012467
6.41685e-07
-0.000126801
7.8161e-07
-0.000128433
1.18394e-06
-0.000128864
1.39687e-06
-0.000128938
1.4111e-06
-0.000128892
1.35782e-06
-0.000128708
1.27511e-06
-0.000127277
1.14517e-06
-0.000125737
8.95042e-07
-0.000125169
6.95145e-07
-0.000125032
6.00682e-07
-0.000125076
4.92989e-07
-0.000126809
5.28641e-07
-0.000129201
9.65229e-07
-0.000130016
1.38155e-06
-0.000130187
1.47664e-06
-0.000130189
1.4217e-06
-0.000130121
1.34126e-06
-0.000128838
1.19921e-06
-0.000126667
8.99857e-07
-0.000125753
5.1108e-07
-0.000125515
3.94935e-07
-0.000125507
3.15758e-07
-0.000126549
2.58355e-07
-0.000129665
6.18404e-07
-0.000131164
1.29005e-06
-0.000131481
1.54559e-06
-0.000131538
1.54003e-06
-0.000131495
1.41558e-06
-0.000130172
1.273e-06
-0.000127415
8.26792e-07
-0.000126098
2.4923e-07
-0.000125686
2.0567e-09
-0.000125643
-7.25941e-08
-0.000126048
-1.3168e-07
-0.000129315
3.33952e-08
-0.000132183
9.46313e-07
-0.000132907
1.57121e-06
-0.000132978
1.61826e-06
-0.000132976
1.52741e-06
-0.000131647
1.42629e-06
-0.000127941
8.29257e-07
-0.000125846
-1.52339e-07
-0.000125267
-6.0596e-07
-0.000125221
-8.70318e-07
-0.000125385
-9.52712e-07
-0.000127962
-9.68373e-07
-0.000132158
-9.54567e-09
-0.000133809
1.15607e-06
-0.000134121
1.59826e-06
-0.000134183
1.61923e-06
-0.00013333
1.5195e-06
-0.000128995
9.85946e-07
-0.00012546
-5.91169e-07
-0.000124106
-1.82754e-06
-0.000123893
-2.22188e-06
-0.000123979
-2.49569e-06
-0.000125717
-2.70636e-06
-0.000129942
-2.13318e-06
-0.000132557
-8.20904e-07
-0.000133513
-5.59474e-08
-0.000133706
1.77317e-07
-0.000133434
2.9095e-07
-0.000130114
-2.9005e-07
-0.000124841
-1.743e-06
-0.000122004
-4.00599e-06
-0.000121386
-5.38824e-06
-0.000121566
-6.2642e-06
-0.000123694
-6.8194e-06
-0.000126524
-6.64073e-06
-0.000127966
-6.52189e-06
-0.000128683
-7.10033e-06
-0.000128899
-8.29432e-06
-0.000128216
-9.38396e-06
-0.000125175
-1.12924e-05
-0.00012493
-1.51931e-05
3.53139e-05
-0.000123589
8.02078e-07
-0.000125535
1.13114e-06
-0.000126194
1.40831e-06
-0.000126319
1.45232e-06
-0.000126276
1.40853e-06
-0.000126141
1.32357e-06
-0.000125771
1.24977e-06
-0.000124623
1.14066e-06
-0.000123879
1.01863e-06
-0.000123584
9.39217e-07
-0.000123455
8.7157e-07
-0.000123805
7.9186e-07
-0.000125898
9.52819e-07
-0.000127211
1.34153e-06
-0.000127514
1.50404e-06
-0.000127538
1.49554e-06
-0.000127445
1.4143e-06
-0.000127236
1.33526e-06
-0.000126028
1.21755e-06
-0.000124787
1.00889e-06
-0.000124322
8.84785e-07
-0.00012416
7.89761e-07
-0.000124185
6.95399e-07
-0.000125819
7.18538e-07
-0.000127984
1.11471e-06
-0.000128669
1.48021e-06
-0.000128805
1.57265e-06
-0.000128775
1.51122e-06
-0.000128673
1.43514e-06
-0.000127669
1.30365e-06
-0.000125823
1.07767e-06
-0.000125052
7.63364e-07
-0.000124778
6.49331e-07
-0.000124743
5.73729e-07
-0.000125535
4.84307e-07
-0.000128322
7.9138e-07
-0.000129724
1.37744e-06
-0.000130029
1.58528e-06
-0.00013007
1.58981e-06
-0.000130019
1.49481e-06
-0.000129327
1.37463e-06
-0.000126982
1.12002e-06
-0.000125684
6.6254e-07
-0.000125231
4.49619e-07
-0.000125148
3.3412e-07
-0.000125371
2.53575e-07
-0.000127985
3.72188e-07
-0.000130622
1.07265e-06
-0.000131336
1.63022e-06
-0.000131434
1.70235e-06
-0.000131437
1.59908e-06
-0.000130926
1.4645e-06
-0.000128204
1.19937e-06
-0.00012611
4.94101e-07
-0.000125365
5.24961e-08
-0.000125186
-1.00631e-07
-0.000125228
-1.77154e-07
-0.000126825
-2.11819e-07
-0.000130776
3.295e-07
-0.000132587
1.39155e-06
-0.000132922
1.76787e-06
-0.000132958
1.79079e-06
-0.000132652
1.66714e-06
-0.000129659
1.44073e-06
-0.00012638
3.8647e-07
-0.000125102
-5.78501e-07
-0.000124781
-1.00439e-06
-0.000124772
-1.08865e-06
-0.000125337
-1.19779e-06
-0.00012924
-9.37782e-07
-0.000132674
3.5636e-07
-0.000133732
1.42807e-06
-0.000133928
1.69096e-06
-0.000133968
1.58565e-06
-0.000132248
1.42417e-06
-0.000127244
7.16095e-07
-0.000124358
-1.12808e-06
-0.000123538
-2.21479e-06
-0.000123496
-2.71583e-06
-0.00012372
-2.93253e-06
-0.000126245
-3.051e-06
-0.00013013
-2.21045e-06
-0.000132118
-9.63674e-07
-0.000132833
-3.80067e-07
-0.000132982
-2.71307e-07
-0.000132495
-2.2171e-07
-0.00012887
-1.07476e-06
-0.000123889
-2.69091e-06
-0.000121344
-5.02918e-06
-0.000120948
-6.34143e-06
-0.000121316
-7.37821e-06
-0.000123959
-7.84305e-06
-0.000126632
-7.5639e-06
-0.000127972
-7.61741e-06
-0.00012852
-8.65286e-06
-0.000128604
-9.85272e-06
-0.000127227
-1.07155e-05
-0.000124586
-1.40182e-05
3.72758e-05
-0.000123102
8.78976e-07
-0.0001252
1.11865e-06
-0.000126136
1.46244e-06
-0.00012632
1.57617e-06
-0.000126283
1.52427e-06
-0.000126183
1.45906e-06
-0.00012591
1.36969e-06
-0.000124817
1.26188e-06
-0.000123889
1.11946e-06
-0.000123497
1.02197e-06
-0.000123334
9.61466e-07
-0.000123376
8.76539e-07
-0.000125117
9.07324e-07
-0.000126954
1.30592e-06
-0.000127446
1.57303e-06
-0.000127507
1.62523e-06
-0.000127454
1.56471e-06
-0.000127294
1.4625e-06
-0.000126376
1.38e-06
-0.000124891
1.175e-06
-0.000124248
9.42947e-07
-0.000124024
8.67845e-07
-0.000123943
7.77627e-07
-0.00012476
7.128e-07
-0.000127335
9.88783e-07
-0.000128516
1.5035e-06
-0.000128739
1.67384e-06
-0.00012875
1.66204e-06
-0.00012866
1.56139e-06
-0.000128143
1.47051e-06
-0.00012619
1.26534e-06
-0.000125041
9.07896e-07
-0.000124646
7.06684e-07
-0.000124525
6.36892e-07
-0.000124686
5.45181e-07
-0.000126983
6.28532e-07
-0.000129328
1.23174e-06
-0.000129933
1.662e-06
-0.00013002
1.74277e-06
-0.000130002
1.66725e-06
-0.000129746
1.55022e-06
-0.000127763
1.38764e-06
-0.000125786
8.72287e-07
-0.000125082
4.70993e-07
-0.000124855
3.67371e-07
-0.000124849
2.77474e-07
-0.00012607
2.10934e-07
-0.000129572
6.67103e-07
-0.000131136
1.53788e-06
-0.000131392
1.79879e-06
-0.000131427
1.82113e-06
-0.000131322
1.68808e-06
-0.000129504
1.5867e-06
-0.000126494
9.32896e-07
-0.000125281
1.95135e-07
-0.000124926
-8.52204e-08
-0.000124889
-2.40424e-07
-0.000125159
-3.25623e-07
-0.00012832
-2.18159e-07
-0.000131723
8.29751e-07
-0.000132699
1.76306e-06
-0.000132818
1.91586e-06
-0.000132826
1.89653e-06
-0.000131887
1.79341e-06
-0.000128044
1.23929e-06
-0.000125408
-6.3783e-08
-0.000124435
-9.27451e-07
-0.000124218
-1.14834e-06
-0.0001243
-1.30103e-06
-0.000125794
-1.46218e-06
-0.00013044
-8.40596e-07
-0.000133095
7.19705e-07
-0.000133711
1.53462e-06
-0.0001338
1.65821e-06
-0.000133598
1.62619e-06
-0.000130903
1.38556e-06
-0.000126218
1.87796e-07
-0.000123872
-1.67047e-06
-0.00012312
-2.6845e-06
-0.000123136
-3.06363e-06
-0.000123546
-3.34088e-06
-0.000126704
-3.34261e-06
-0.000130161
-2.32714e-06
-0.000131798
-1.26756e-06
-0.000132386
-8.65602e-07
-0.000132525
-8.37225e-07
-0.000131671
-9.14519e-07
-0.000127717
-1.88884e-06
-0.00012304
-3.78393e-06
-0.000120691
-6.19093e-06
-0.000120503
-7.49676e-06
-0.000121135
-8.7313e-06
-0.000124334
-8.96066e-06
-0.000127001
-8.56895e-06
-0.000128305
-8.96941e-06
-0.000128558
-1.01466e-05
-0.000128509
-1.08673e-05
-0.000124483
-1.22083e-05
3.93071e-05
-0.00012272
9.54205e-07
-0.000124726
1.07531e-06
-0.000126103
1.48447e-06
-0.000126379
1.65763e-06
-0.000126376
1.64708e-06
-0.000126272
1.59065e-06
-0.000126054
1.49074e-06
-0.000125123
1.41404e-06
-0.000123946
1.2592e-06
-0.000123437
1.09989e-06
-0.000123232
1.03436e-06
-0.000123154
9.51006e-07
-0.000124242
9.01695e-07
-0.000126572
1.22329e-06
-0.00012742
1.60168e-06
-0.000127549
1.74184e-06
-0.000127503
1.70283e-06
-0.000127402
1.61773e-06
-0.000126832
1.53232e-06
-0.000125163
1.34284e-06
-0.000124278
1.06787e-06
-0.000123932
9.16429e-07
-0.00012382
8.61486e-07
-0.000123998
7.7011e-07
-0.000126287
8.73562e-07
-0.00012824
1.4053e-06
-0.000128719
1.73376e-06
-0.000128764
1.7886e-06
-0.000128719
1.71316e-06
-0.000128499
1.6218e-06
-0.00012688
1.48099e-06
-0.000125172
1.10198e-06
-0.000124566
7.84783e-07
-0.000124341
6.85521e-07
-0.000124306
6.22274e-07
-0.000125445
5.63262e-07
-0.000128503
9.33779e-07
-0.000129813
1.66237e-06
-0.000130035
1.82952e-06
-0.000130042
1.84724e-06
-0.00012997
1.73697e-06
-0.000128761
1.62102e-06
-0.000126203
1.19084e-06
-0.000125057
6.19275e-07
-0.00012468
3.70816e-07
-0.000124605
2.76203e-07
-0.000124831
1.68992e-07
-0.000127636
2.94577e-07
-0.00013059
1.15658e-06
-0.000131406
1.87106e-06
-0.0001315
1.9722e-06
-0.000131511
1.96336e-06
-0.000130846
1.8549e-06
-0.000127747
1.48919e-06
-0.000125532
5.20886e-07
-0.000124785
-7.92644e-08
-0.000124526
-3.22265e-07
-0.00012454
-3.8052e-07
-0.000125563
-4.49424e-07
-0.000129706
-3.51404e-08
-0.000132183
1.27904e-06
-0.0001328
1.97264e-06
-0.000132919
2.03797e-06
-0.000132854
1.93553e-06
-0.000130671
1.92313e-06
-0.000126446
9.90499e-07
-0.00012451
-5.15424e-07
-0.000124014
-1.15055e-06
-0.00012392
-1.50222e-06
-0.00012405
-1.57676e-06
-0.000126449
-1.63136e-06
-0.000130951
-6.92541e-07
-0.000132878
8.73526e-07
-0.000133344
1.57789e-06
-0.000133436
1.64293e-06
-0.000133227
1.43583e-06
-0.000129879
1.13474e-06
-0.000125243
-1.77457e-07
-0.00012322
-2.13194e-06
-0.000122746
-3.04054e-06
-0.000122775
-3.51287e-06
-0.000123529
-3.76029e-06
-0.000126965
-3.60216e-06
-0.000129937
-2.52247e-06
-0.000131275
-1.667e-06
-0.000131765
-1.45964e-06
-0.000131846
-1.49311e-06
-0.000130831
-1.71089e-06
-0.000126729
-2.79701e-06