/*--------------------------------*- C++ -*----------------------------------*\
  =========                 |
  \\      /  F ield         | OpenFOAM: The Open Source CFD Toolbox
   \\    /   O peration     | Website:  https://openfoam.org
    \\  /    A nd           | Version:  12
     \\/     M anipulation  |
\*---------------------------------------------------------------------------*/
FoamFile
{
    format      ascii;
    class       volScalarField;
    location    "28.2";
    object      p;
}
// * * * * * * * * * * * * * * * * * * * * * * * * * * * * * * * * * * * * * //

dimensions      [1 -1 -2 0 0 0 0];

internalField   nonuniform List<scalar> 
9801
(
0.638839
0.644946
0.6643
0.679784
0.690248
0.699086
0.709216
0.730746
0.769343
0.799263
0.81235
0.818437
0.822274
0.814782
0.767537
0.712877
0.689159
0.684476
0.686116
0.692877
0.708479
0.742359
0.800377
0.861071
0.899078
0.913552
0.915926
0.904071
0.867156
0.826119
0.808515
0.809313
0.816826
0.823585
0.827059
0.82978
0.834406
0.840288
0.849676
0.884715
0.942604
0.978975
0.994508
1.0027
1.00822
1.00075
0.959283
0.919308
0.900114
0.895703
0.897882
0.902466
0.909987
0.940246
1.02372
1.09444
1.12474
1.13968
1.14973
1.15548
1.14488
1.09593
1.04397
1.01978
1.01519
1.01717
1.0221
1.04945
1.12456
1.18246
1.20711
1.22131
1.23132
1.22801
1.18467
1.14233
1.13093
1.13534
1.14668
1.18375
1.23612
1.27999
1.3165
1.34577
1.37082
1.39329
1.37794
1.35172
1.35941
1.39038
1.44011
1.5538
1.68214
1.77966
1.87414
1.97723
1.9663
3.70974
35.335
0.663007
0.668099
0.67512
0.682617
0.69011
0.697874
0.710027
0.737013
0.775616
0.803217
0.816177
0.822082
0.815704
0.791383
0.766506
0.736822
0.712824
0.709129
0.713934
0.724442
0.743378
0.761558
0.782965
0.82588
0.865167
0.88364
0.88971
0.892312
0.889659
0.865023
0.843966
0.837829
0.833844
0.827804
0.825147
0.826753
0.831621
0.83887
0.85114
0.888433
0.950509
0.989203
1.00421
1.01127
1.01464
1.00277
0.953977
0.909151
0.893512
0.893641
0.898052
0.904772
0.919375
0.966522
1.03929
1.08933
1.1142
1.12715
1.13323
1.13308
1.11888
1.07898
1.03848
1.02209
1.02093
1.0249
1.03305
1.06888
1.13818
1.18882
1.21287
1.22701
1.23717
1.23449
1.19348
1.15505
1.14667
1.15373
1.16618
1.20286
1.26184
1.30652
1.33858
1.36586
1.39012
1.41106
1.3956
1.35921
1.35201
1.37577
1.41563
1.49445
1.60183
1.69504
1.78375
1.86367
1.835
3.50142
35.7748
0.685852
0.679661
0.6807
0.682835
0.686962
0.694798
0.710386
0.74002
0.773273
0.79565
0.80557
0.803139
0.785826
0.771206
0.767105
0.765761
0.753561
0.742109
0.742856
0.752965
0.767385
0.774006
0.777485
0.781833
0.805993
0.850723
0.882188
0.896405
0.903071
0.904854
0.890676
0.859647
0.833194
0.81781
0.814744
0.819084
0.828807
0.842422
0.863477
0.899275
0.955049
0.991717
1.00206
1.00076
0.993654
0.97651
0.936119
0.90131
0.890862
0.893444
0.899626
0.912611
0.943345
0.989606
1.04353
1.07645
1.08926
1.09319
1.09063
1.08701
1.07852
1.05337
1.02593
1.01557
1.01856
1.02771
1.0442
1.08448
1.1519
1.19725
1.21956
1.23373
1.24412
1.23965
1.19958
1.16833
1.16513
1.17584
1.1913
1.22801
1.29048
1.3351
1.36098
1.38263
1.40477
1.42403
1.41104
1.36721
1.34415
1.35277
1.38681
1.44115
1.5466
1.6603
1.75246
1.83314
1.82974
3.61536
35.7573
0.718182
0.699451
0.685881
0.68541
0.689506
0.702162
0.723499
0.743303
0.76065
0.774005
0.777151
0.770873
0.768238
0.770645
0.778695
0.792076
0.801175
0.800314
0.788403
0.783331
0.782461
0.776738
0.768281
0.765999
0.772339
0.801918
0.859812
0.898142
0.911624
0.916531
0.914607
0.89308
0.846895
0.823315
0.821761
0.826009
0.83636
0.85628
0.872496
0.891345
0.924086
0.960367
0.976686
0.980272
0.979795
0.973917
0.948081
0.912231
0.899167
0.90151
0.912821
0.9374
0.963742
0.996436
1.02853
1.04632
1.05328
1.0542
1.05566
1.05865
1.05714
1.03658
1.01643
1.01382
1.02032
1.03193
1.05079
1.09819
1.16158
1.1982
1.21725
1.23054
1.24021
1.23605
1.20353
1.17874
1.17739
1.18985
1.20733
1.23433
1.29081
1.34835
1.38221
1.40437
1.42337
1.4393
1.4313
1.38983
1.35684
1.34732
1.36296
1.40066
1.46362
1.56181
1.64955
1.7269
1.75851
3.90218
35.8967
0.72863
0.710028
0.697755
0.698023
0.704736
0.721886
0.73964
0.748697
0.751083
0.735076
0.723489
0.729958
0.750784
0.777926
0.803698
0.826624
0.839984
0.845345
0.837381
0.808306
0.783962
0.769249
0.763171
0.7661
0.771878
0.782462
0.817877
0.871451
0.898419
0.904793
0.90184
0.887603
0.867486
0.848944
0.84395
0.849789
0.861826
0.870723
0.874887
0.872334
0.875075
0.902503
0.948368
0.97138
0.978078
0.979876
0.969971
0.944289
0.928057
0.92947
0.941708
0.956208
0.971281
0.983038
0.995743
1.01243
1.02628
1.03419
1.03968
1.04457
1.04761
1.03351
1.01627
1.01671
1.02752
1.04257
1.06499
1.11101
1.16274
1.19164
1.20816
1.22066
1.23068
1.23075
1.20548
1.18023
1.1766
1.19145
1.21234
1.23604
1.27944
1.3517
1.40333
1.42853
1.44599
1.46055
1.45726
1.41816
1.37617
1.35441
1.35439
1.37867
1.41857
1.48688
1.56342
1.62763
1.66394
4.07164
36.106
0.72468
0.724696
0.723887
0.726722
0.735692
0.74645
0.754093
0.755082
0.7313
0.699968
0.694842
0.701308
0.723574
0.772463
0.822619
0.852617
0.867795
0.873879
0.875591
0.85153
0.802297
0.77992
0.77526
0.777592
0.782413
0.787539
0.790925
0.806804
0.850592
0.881536
0.890872
0.893036
0.896435
0.900697
0.898418
0.890713
0.885979
0.879132
0.865116
0.848087
0.843329
0.851164
0.894296
0.951239
0.977853
0.986263
0.990505
0.990629
0.976437
0.965459
0.964202
0.969176
0.970466
0.966135
0.966851
0.978726
1.00586
1.02754
1.03749
1.04245
1.04624
1.04606
1.03493
1.03058
1.03936
1.05482
1.07595
1.10862
1.15146
1.18185
1.19866
1.21063
1.22102
1.22633
1.21012
1.1865
1.17694
1.18313
1.20228
1.22554
1.25467
1.3162
1.39044
1.433
1.45622
1.47345
1.47871
1.45258
1.40715
1.37251
1.35883
1.36754
1.39456
1.44107
1.5078
1.56222
1.59857
4.13831
36.2644
0.725604
0.733226
0.750655
0.765059
0.769679
0.768205
0.763254
0.745892
0.711412
0.69257
0.69082
0.694196
0.700818
0.735467
0.815507
0.86449
0.877264
0.879808
0.879601
0.868894
0.835834
0.806152
0.79704
0.797533
0.798394
0.789328
0.774445
0.770402
0.785047
0.833787
0.87756
0.905902
0.931457
0.948272
0.953428
0.94061
0.911012
0.880781
0.85029
0.834214
0.832258
0.835197
0.846519
0.90054
0.96575
1.00127
1.02045
1.0304
1.02934
1.00611
0.984603
0.97307
0.961936
0.954466
0.954694
0.961769
0.985447
1.02133
1.04327
1.05435
1.06307
1.07167
1.06737
1.05729
1.0576
1.06607
1.07736
1.0919
1.12766
1.16886
1.19274
1.2059
1.21514
1.22143
1.21443
1.19564
1.18395
1.18064
1.18567
1.20281
1.22565
1.26138
1.3378
1.40915
1.44538
1.4657
1.48158
1.47196
1.4337
1.39939
1.38004
1.37743
1.3892
1.41552
1.47424
1.52247
1.55632
4.13589
36.339
0.732538
0.752711
0.775415
0.788093
0.793676
0.793388
0.779145
0.741298
0.712002
0.702578
0.702205
0.704955
0.708626
0.716607
0.772791
0.849077
0.873206
0.880358
0.887442
0.892014
0.879129
0.85209
0.833954
0.822476
0.805489
0.78056
0.76592
0.763349
0.765792
0.785919
0.853643
0.927997
0.965975
0.979114
0.985495
0.98369
0.952602
0.887101
0.844811
0.834866
0.83626
0.839984
0.847563
0.869873
0.938289
1.00747
1.03702
1.04868
1.05296
1.04273
1.00946
0.979257
0.961614
0.953456
0.954169
0.959581
0.972137
1.00846
1.04586
1.06965
1.08752
1.10026
1.10639
1.09145
1.07725
1.07183
1.07476
1.08368
1.10359
1.14566
1.1799
1.1973
1.20635
1.21406
1.21838
1.21005
1.19754
1.18931
1.18727
1.19126
1.20252
1.21958
1.25922
1.33705
1.39762
1.43132
1.45634
1.47176
1.45547
1.43108
1.41133
1.40005
1.40064
1.41182
1.44371
1.48919
1.52118
4.11869
36.423
0.748684
0.776269
0.790072
0.796769
0.800069
0.802022
0.787406
0.751231
0.725402
0.715965
0.714983
0.716906
0.718768
0.720047
0.732086
0.800976
0.863176
0.8875
0.902357
0.912946
0.917066
0.899703
0.862999
0.824856
0.789146
0.770604
0.765862
0.767597
0.771529
0.784037
0.84316
0.938465
0.979937
0.992635
1.00076
0.999049
0.958325
0.890712
0.855065
0.846627
0.847996
0.853585
0.864948
0.886251
0.927259
0.993645
1.03759
1.05351
1.05796
1.05005
1.03045
0.996577
0.972988
0.964898
0.966653
0.972501
0.980875
1.00454
1.05081
1.09107
1.11161
1.12234
1.12912
1.11904
1.09155
1.0777
1.07723
1.08477
1.09662
1.12278
1.16123
1.18578
1.19858
1.20871
1.21903
1.22695
1.22266
1.21122
1.20054
1.19313
1.1911
1.198
1.21492
1.25851
1.32953
1.38192
1.41703
1.44731
1.46106
1.45377
1.44868
1.44026
1.43156
1.42687
1.42516
1.4454
1.48949
4.11492
36.4879
0.760526
0.789574
0.795785
0.802967
0.808206
0.811098
0.796835
0.763163
0.742591
0.733941
0.729991
0.725123
0.719163
0.717577
0.719918
0.758846
0.852159
0.907128
0.923091
0.930954
0.935106
0.926071
0.881014
0.813588
0.779427
0.771337
0.772681
0.775814
0.781504
0.799864
0.87173
0.945806
0.978457
0.99272
0.999813
0.987281
0.941775
0.900139
0.875968
0.867802
0.869367
0.880991
0.90107
0.917605
0.93655
0.970576
1.00834
1.02888
1.03487
1.03701
1.0399
1.02979
1.00013
0.984919
0.985606
0.992402
1.00115
1.01611
1.05429
1.098
1.1203
1.13149
1.13706
1.12995
1.10779
1.08895
1.08452
1.08894
1.09972
1.11403
1.13861
1.16986
1.19268
1.20746
1.22309
1.23973
1.24828
1.23999
1.22009
1.1985
1.18533
1.18552
1.19505
1.21408
1.25867
1.31747
1.36546
1.40374
1.43603
1.45576
1.4669
1.47887
1.48257
1.46637
1.43488
1.41212
1.42613
4.1293
36.5293
0.751748
0.797826
0.806644
0.813377
0.81901
0.822427
0.806313
0.774276
0.752234
0.739121
0.727465
0.719153
0.716609
0.717532
0.724249
0.763396
0.85648
0.913134
0.930296
0.937933
0.938703
0.920337
0.865489
0.8087
0.78146
0.776648
0.779709
0.785526
0.797616
0.838085
0.906402
0.956627
0.978138
0.987929
0.985068
0.955482
0.925973
0.908105
0.898119
0.895977
0.903043
0.92028
0.932182
0.938331
0.944619
0.957619
0.975892
0.994314
1.01343
1.03139
1.04313
1.04996
1.03965
1.01853
1.01024
1.01282
1.01986
1.03035
1.06027
1.09552
1.11436
1.12345
1.12671
1.12589
1.11524
1.1044
1.10282
1.10875
1.11355
1.11191
1.11616
1.13485
1.16884
1.20065
1.22854
1.25061
1.26636
1.2747
1.2634
1.23119
1.19981
1.18532
1.18675
1.19794
1.21683
1.25378
1.30262
1.34899
1.39139
1.42992
1.46277
1.49467
1.51483
1.51266
1.47672
1.4163
1.33698
4.14232
36.5798
0.718314
0.794569
0.823476
0.836276
0.842332
0.8443
0.821694
0.779678
0.745986
0.724397
0.715733
0.714637
0.716974
0.723182
0.740625
0.79963
0.871334
0.90942
0.925667
0.930183
0.91307
0.884853
0.852232
0.814327
0.78906
0.784066
0.787751
0.800368
0.827827
0.868654
0.918754
0.95513
0.968079
0.969578
0.956142
0.936035
0.922211
0.916028
0.917667
0.924889
0.938345
0.946508
0.950515
0.949489
0.944315
0.944916
0.955831
0.978501
1.0044
1.02896
1.05192
1.06718
1.07191
1.04528
1.02355
1.02043
1.02517
1.0329
1.05289
1.08354
1.10158
1.11202
1.12046
1.12677
1.12977
1.1309
1.13244
1.13159
1.11931
1.10345
1.09615
1.10053
1.12247
1.17079
1.22241
1.25898
1.28446
1.30146
1.31012
1.29105
1.24323
1.20635
1.19339
1.19482
1.20405
1.21961
1.2455
1.28746
1.33926
1.39488
1.448
1.48813
1.51344
1.51836
1.50155
1.43697
1.31648
4.07689
36.7243
0.686185
0.788709
0.844978
0.86136
0.868339
0.868158
0.836471
0.767282
0.720758
0.706828
0.706406
0.7094
0.717757
0.741287
0.786367
0.832348
0.870882
0.894902
0.901855
0.889707
0.87084
0.863892
0.856889
0.83149
0.809821
0.806827
0.814632
0.831156
0.849791
0.869843
0.903985
0.932475
0.94432
0.945566
0.94329
0.939508
0.93207
0.932964
0.940141
0.951102
0.958348
0.958487
0.948078
0.933485
0.930076
0.934955
0.956083
0.986953
1.02029
1.05292
1.07336
1.08391
1.07965
1.04861
1.02223
1.01089
1.00829
1.01161
1.02801
1.0684
1.09639
1.11264
1.1275
1.14365
1.15545
1.15579
1.14769
1.13523
1.11627
1.09333
1.07822
1.07601
1.08504
1.11821
1.19502
1.26658
1.30559
1.32569
1.33858
1.3369
1.3001
1.2501
1.21732
1.20376
1.20245
1.20775
1.21808
1.24096
1.29581
1.36993
1.43044
1.46835
1.49288
1.49816
1.49175
1.44854
1.34446
3.99933
36.9508
0.681335
0.784333
0.854725
0.870155
0.875705
0.870872
0.821137
0.746299
0.711122
0.70484
0.706621
0.713007
0.74021
0.789095
0.819383
0.835079
0.851803
0.861803
0.860283
0.853801
0.850656
0.855166
0.861503
0.858512
0.841708
0.836596
0.841571
0.849534
0.853707
0.857466
0.866748
0.893968
0.922233
0.93896
0.947308
0.953225
0.958965
0.960342
0.961221
0.961894
0.960344
0.94748
0.925586
0.916701
0.919064
0.928267
0.963117
1.02432
1.06171
1.07725
1.08512
1.0882
1.07403
1.02974
0.992009
0.978726
0.978967
0.985144
1.00536
1.05512
1.10377
1.13628
1.15562
1.1671
1.17304
1.17268
1.16005
1.13697
1.10665
1.07712
1.0617
1.06136
1.06954
1.0849
1.15316
1.26809
1.32209
1.34127
1.35386
1.35186
1.3255
1.29137
1.25652
1.22738
1.20968
1.20481
1.2097
1.22212
1.26742
1.34997
1.41045
1.44309
1.46511
1.46684
1.46273
1.43543
1.38039
3.94947
37.1566
0.705363
0.797896
0.847703
0.865224
0.866376
0.839293
0.788399
0.742279
0.716698
0.711265
0.714815
0.741718
0.79447
0.820967
0.827724
0.828693
0.816159
0.810848
0.826346
0.846968
0.856588
0.862712
0.871566
0.882233
0.883858
0.869554
0.861248
0.856924
0.848351
0.839759
0.839542
0.851106
0.889746
0.930621
0.956428
0.972584
0.983395
0.989776
0.984821
0.968552
0.944653
0.917962
0.906614
0.908499
0.91432
0.928154
0.9908
1.05763
1.08334
1.09308
1.09588
1.08711
1.04874
0.991661
0.958955
0.951314
0.953537
0.962192
0.984053
1.04135
1.11597
1.15195
1.16778
1.17548
1.18115
1.1801
1.16721
1.13399
1.09249
1.06507
1.05613
1.06148
1.07241
1.09735
1.15993
1.25109
1.31321
1.33729
1.35025
1.34921
1.32785
1.30485
1.28761
1.2642
1.23513
1.21606
1.21166
1.22034
1.25407
1.32061
1.38261
1.41354
1.43196
1.43244
1.42592
1.4072
1.38164
3.96789
37.2922
0.744358
0.789299
0.813862
0.82195
0.812973
0.793655
0.772612
0.753283
0.739602
0.740763
0.760664
0.803754
0.830997
0.838268
0.831715
0.797702
0.77252
0.7696
0.788897
0.833674
0.862594
0.879728
0.897288
0.911683
0.91929
0.905566
0.876065
0.851512
0.8348
0.828861
0.829234
0.833544
0.858961
0.91452
0.961601
0.984906
0.995595
1.00029
0.995633
0.970087
0.927449
0.90585
0.901633
0.904187
0.919775
0.962886
1.01178
1.05791
1.08398
1.0925
1.08664
1.05923
1.01329
0.96799
0.946532
0.942629
0.946627
0.967129
1.012
1.05517
1.10015
1.14363
1.16442
1.1683
1.15896
1.15152
1.14778
1.13568
1.10363
1.07208
1.065
1.07561
1.10327
1.14548
1.18471
1.21998
1.26123
1.29066
1.30755
1.31529
1.30931
1.30019
1.29742
1.29466
1.28124
1.26126
1.24985
1.25068
1.25954
1.28293
1.33137
1.37084
1.38785
1.38993
1.38489
1.38227
1.38089
4.01842
37.4033
0.765748
0.771959
0.760746
0.757088
0.768875
0.778151
0.780862
0.777672
0.780134
0.79746
0.823176
0.839166
0.844776
0.842751
0.808244
0.764276
0.749236
0.749498
0.758571
0.801595
0.864715
0.906775
0.928407
0.938465
0.943736
0.929595
0.881468
0.841856
0.827437
0.825949
0.827547
0.836521
0.859595
0.907757
0.955446
0.980268
0.991758
0.992465
0.972105
0.944374
0.923103
0.909367
0.907096
0.925481
0.96339
0.983853
0.999099
1.02736
1.04597
1.04814
1.03729
1.01888
0.994719
0.967967
0.948605
0.945253
0.961857
1.01391
1.05313
1.06781
1.07647
1.08432
1.09731
1.11335
1.1252
1.13202
1.13395
1.13405
1.13394
1.12246
1.1178
1.13053
1.15376
1.17457
1.1883
1.19606
1.20309
1.22003
1.24271
1.26306
1.27923
1.29199
1.30259
1.31418
1.32597
1.32967
1.31433
1.28351
1.26099
1.25888
1.27701
1.31145
1.33813
1.34512
1.3441
1.34139
1.37008
4.13291
37.496
0.770717
0.730755
0.706074
0.704018
0.723984
0.758573
0.78394
0.810346
0.844041
0.863225
0.868267
0.866095
0.852919
0.815187
0.767866
0.743738
0.739098
0.740779
0.744969
0.771167
0.860125
0.926284
0.946158
0.954831
0.956674
0.939746
0.888272
0.84154
0.828878
0.828867
0.834185
0.852517
0.883448
0.911832
0.939779
0.957976
0.962076
0.945565
0.928418
0.928594
0.932368
0.935826
0.952055
0.975118
0.985591
0.982094
0.970703
0.962428
0.973992
0.998138
1.00817
1.00466
0.993224
0.985678
0.977914
0.985831
1.02092
1.05077
1.06295
1.06707
1.0478
1.01976
1.01875
1.04675
1.0906
1.11982
1.13646
1.15159
1.17011
1.18724
1.18935
1.1858
1.18695
1.18602
1.17595
1.16662
1.16214
1.16563
1.17748
1.19755
1.2285
1.26562
1.29865
1.33026
1.35827
1.37375
1.36659
1.3191
1.27431
1.25934
1.25892
1.26401
1.28722
1.30443
1.31031
1.30977
1.3468
4.28642
37.58
0.744104
0.690659
0.681014
0.681506
0.69048
0.726416
0.794358
0.864171
0.8953
0.903534
0.901254
0.885806
0.845824
0.782755
0.746419
0.73636
0.736718
0.73964
0.746657
0.77296
0.853717
0.924908
0.947194
0.954742
0.952686
0.922071
0.876903
0.849988
0.839762
0.840684
0.85574
0.88493
0.899914
0.90624
0.910785
0.911244
0.908765
0.905971
0.909723
0.921317
0.956848
0.99405
1.00756
1.00194
0.983405
0.951033
0.922776
0.913529
0.92039
0.954234
0.991742
1.00505
1.00834
1.01115
1.02856
1.06121
1.07656
1.07702
1.07148
1.0498
1.00661
0.980411
0.978043
0.99173
1.03185
1.08825
1.13271
1.17288
1.2119
1.23614
1.24691
1.24243
1.22608
1.19944
1.17445
1.15933
1.14672
1.13693
1.13807
1.14709
1.17164
1.22295
1.2834
1.33035
1.36019
1.37838
1.37707
1.34442
1.29573
1.26585
1.25698
1.25099
1.24854
1.25966
1.27956
1.28479
1.32863
4.45899
37.6775
0.707193
0.670252
0.670197
0.673129
0.678803
0.708374
0.811547
0.889082
0.909535
0.917126
0.91713
0.887711
0.820038
0.771793
0.748245
0.740247
0.74072
0.746878
0.767698
0.805775
0.854614
0.902274
0.925874
0.931623
0.919861
0.894664
0.875442
0.86457
0.863175
0.871512
0.892296
0.903791
0.906303
0.890819
0.866666
0.860538
0.870471
0.887889
0.910827
0.959594
1.01598
1.04217
1.04828
1.01986
0.954308
0.907899
0.891534
0.889925
0.894578
0.911231
0.957284
0.997928
1.02208
1.05641
1.10435
1.12545
1.12461
1.10748
1.07494
1.02634
0.984218
0.964046
0.961458
0.967879
0.984139
1.03253
1.11591
1.18762
1.22546
1.24392
1.2535
1.25734
1.25103
1.22525
1.19163
1.16366
1.14223
1.12704
1.11893
1.11934
1.13088
1.17619
1.2546
1.31421
1.34611
1.36477
1.3662
1.3529
1.32173
1.29013
1.2701
1.25204
1.22758
1.21923
1.23462
1.25698
1.31046
4.62316
37.8272
0.688274
0.666524
0.667785
0.67386
0.691918
0.747414
0.825474
0.883915
0.907264
0.912613
0.894149
0.84752
0.805409
0.777933
0.760939
0.756819
0.76217
0.78453
0.809581
0.825755
0.847152
0.870733
0.886254
0.891477
0.889491
0.886485
0.883329
0.887996
0.898219
0.911106
0.917054
0.914573
0.888849
0.852528
0.838812
0.840104
0.852332
0.887932
0.960081
1.02632
1.05295
1.06211
1.05779
1.00319
0.930834
0.896414
0.887045
0.888044
0.892956
0.901261
0.920439
0.974096
1.04473
1.11964
1.1633
1.17624
1.17313
1.14859
1.09341
1.03292
0.991924
0.971841
0.968165
0.97302
0.982655
0.999308
1.05995
1.15903
1.21426
1.23481
1.24298
1.2425
1.23659
1.23152
1.22219
1.19763
1.15941
1.12641
1.10758
1.1018
1.10871
1.1431
1.21273
1.28632
1.32683
1.34604
1.34789
1.3477
1.33634
1.31696
1.29857
1.26627
1.22688
1.19522
1.18753
1.21716
1.28921
4.76676
38.0024
0.686974
0.671598
0.673295
0.698159
0.748957
0.786334
0.81625
0.849751
0.86502
0.86097
0.843867
0.827312
0.811953
0.795107
0.791243
0.796903
0.814018
0.829251
0.830761
0.831435
0.829307
0.838361
0.852289
0.8617
0.872974
0.885242
0.904259
0.92279
0.93436
0.935805
0.926999
0.897248
0.854359
0.831191
0.828732
0.832081
0.845509
0.923116
1.02869
1.06654
1.07785
1.07582
1.03382
0.965977
0.921823
0.902931
0.896341
0.896844
0.90173
0.910618
0.925852
0.956329
1.04929
1.13941
1.17459
1.18658
1.18448
1.15593
1.11822
1.07022
1.0232
0.996932
0.991178
0.995461
1.00343
1.02237
1.0584
1.10235
1.15216
1.19216
1.2162
1.22729
1.23333
1.23796
1.23742
1.23075
1.19185
1.13452
1.10114
1.09015
1.09776
1.12994
1.17467
1.24139
1.29724
1.32114
1.3236
1.32717
1.33217
1.32518
1.32158
1.29001
1.23839
1.19361
1.16816
1.17118
1.26284
4.84161
38.164
0.696839
0.692748
0.717556
0.766791
0.789395
0.794968
0.796022
0.791852
0.799463
0.812041
0.816894
0.821641
0.828044
0.837797
0.844804
0.851074
0.856034
0.851695
0.836489
0.8165
0.808121
0.809664
0.830062
0.858534
0.883784
0.912845
0.935622
0.948399
0.952355
0.940493
0.906798
0.86964
0.84645
0.836051
0.832986
0.835633
0.86619
0.978573
1.05672
1.08041
1.09105
1.071
1.00018
0.951796
0.929401
0.916005
0.91156
0.913768
0.923192
0.938062
0.957791
0.985664
1.03649
1.11622
1.16319
1.17569
1.17571
1.17058
1.14809
1.11127
1.06768
1.03133
1.01431
1.01288
1.01827
1.03441
1.0599
1.07766
1.09345
1.11938
1.16878
1.21599
1.23586
1.24193
1.24122
1.23412
1.21078
1.15326
1.10906
1.09655
1.10838
1.14434
1.17174
1.19869
1.2534
1.28892
1.29838
1.30441
1.3144
1.32614
1.31649
1.30134
1.26288
1.21231
1.18098
1.17174
1.22466
4.81627
38.3002
0.721888
0.746798
0.78885
0.806285
0.807416
0.790424
0.755235
0.740607
0.746725
0.777565
0.807757
0.833949
0.864716
0.887849
0.899169
0.896105
0.872411
0.840417
0.812271
0.797764
0.793123
0.794016
0.817277
0.873025
0.924436
0.947609
0.957795
0.960534
0.952099
0.92048
0.879614
0.852369
0.842324
0.841662
0.843366
0.857481
0.925556
1.00686
1.05828
1.08161
1.08359
1.03221
0.979477
0.958615
0.944969
0.936567
0.93288
0.936218
0.948366
0.965668
0.986906
1.00735
1.02706
1.05936
1.11254
1.1509
1.16764
1.17425
1.16771
1.14189
1.10185
1.06506
1.04268
1.0367
1.04274
1.05914
1.07709
1.08494
1.07655
1.07868
1.09837
1.16112
1.21068
1.22802
1.23222
1.21946
1.19749
1.17321
1.14443
1.1295
1.14333
1.1694
1.17835
1.1847
1.20325
1.23951
1.26342
1.27554
1.28478
1.2951
1.29506
1.28923
1.27991
1.24354
1.20923
1.18224
1.18923
4.68297
38.4233
0.778913
0.808334
0.819428
0.819397
0.794095
0.746326
0.719519
0.713691
0.716173
0.74658
0.820097
0.883056
0.912064
0.923421
0.925457
0.905924
0.855075
0.809243
0.79087
0.786506
0.786508
0.795151
0.831304
0.906109
0.952098
0.966864
0.972905
0.963244
0.931423
0.899533
0.872785
0.853376
0.846233
0.846944
0.858821
0.912643
0.968805
1.00364
1.03366
1.05077
1.03738
1.0034
0.984565
0.973092
0.966134
0.960183
0.95629
0.961332
0.976078
0.991653
1.00678
1.01908
1.02775
1.0305
1.04773
1.09646
1.13758
1.15154
1.15079
1.1323
1.10716
1.09291
1.08955
1.09495
1.10286
1.10722
1.10323
1.08645
1.07052
1.06592
1.06776
1.09153
1.15787
1.19829
1.21181
1.20412
1.19127
1.18807
1.1855
1.18466
1.19721
1.1998
1.18779
1.17906
1.17198
1.18167
1.21567
1.23971
1.25273
1.26471
1.27408
1.27568
1.27957
1.26339
1.23471
1.19923
1.19409
4.46514
38.5632
0.830932
0.836686
0.830023
0.792803
0.739986
0.711274
0.704578
0.705614
0.711401
0.744934
0.849501
0.916376
0.934265
0.942784
0.934099
0.883497
0.817629
0.786002
0.77995
0.780236
0.788571
0.820307
0.881124
0.930849
0.95812
0.97149
0.969587
0.939273
0.912564
0.899239
0.880129
0.860346
0.855436
0.85953
0.894701
0.950483
0.976247
0.988693
1.00127
1.00566
0.994017
0.98988
0.992725
0.992634
0.98939
0.985043
0.985031
0.99979
1.0161
1.02464
1.02842
1.02828
1.02052
1.01575
1.01561
1.02331
1.05039
1.08359
1.10173
1.10642
1.10696
1.11675
1.14382
1.1633
1.16801
1.15606
1.12338
1.08443
1.05771
1.04637
1.04404
1.0529
1.10748
1.16877
1.19687
1.20319
1.20484
1.21843
1.23156
1.24886
1.25354
1.23874
1.21262
1.18161
1.15242
1.13937
1.15575
1.19286
1.22011
1.24144
1.2653
1.27177
1.27465
1.26906
1.25323
1.22603
1.2253
4.23785
38.6567
0.860827
0.844662
0.793644
0.74017
0.708844
0.699906
0.700233
0.703367
0.719751
0.792064
0.880481
0.920701
0.935846
0.940499
0.911057
0.842995
0.798554
0.781901
0.779211
0.782812
0.813238
0.883212
0.922927
0.934903
0.941391
0.938889
0.924131
0.913861
0.911179
0.907063
0.892659
0.874808
0.87006
0.878922
0.923654
0.961276
0.973638
0.979036
0.976141
0.960494
0.956418
0.966708
0.983721
0.992716
0.994712
1.00112
1.02199
1.04666
1.06417
1.06704
1.05746
1.03733
1.01503
0.998505
0.986507
0.977679
0.977199
0.994588
1.03116
1.07204
1.11716
1.16367
1.19105
1.20219
1.2052
1.18906
1.14041
1.07873
1.04038
1.02835
1.02789
1.04386
1.0807
1.13696
1.18899
1.22113
1.24098
1.2576
1.27747
1.29325
1.28926
1.27039
1.24307
1.19395
1.13426
1.10458
1.10571
1.13617
1.18264
1.22718
1.26482
1.27917
1.27182
1.26868
1.26385
1.24292
1.24034
4.12367
38.7333
0.881286
0.819876
0.745884
0.710169
0.697699
0.697804
0.701476
0.71801
0.774352
0.837871
0.881964
0.909234
0.916147
0.895964
0.845622
0.806192
0.792647
0.789164
0.790779
0.817424
0.889562
0.933869
0.94506
0.93874
0.904511
0.876394
0.872876
0.889227
0.906559
0.910769
0.903813
0.892945
0.89083
0.909098
0.947884
0.967998
0.973984
0.976479
0.96027
0.92944
0.91816
0.922875
0.942257
0.967552
0.985251
1.008
1.05376
1.09774
1.11417
1.10974
1.08703
1.04565
0.996285
0.965967
0.953015
0.947976
0.948913
0.955279
0.969249
1.02014
1.11646
1.17474
1.19618
1.20642
1.21383
1.19906
1.1505
1.08528
1.03956
1.02655
1.03
1.05131
1.08026
1.10855
1.16053
1.21695
1.25388
1.28334
1.31024
1.3189
1.31626
1.29548
1.26615
1.20406
1.12012
1.08657
1.08032
1.09056
1.14595
1.23309
1.28452
1.29396
1.27614
1.26407
1.25973
1.23754
1.23494
4.08696
38.7969
0.860083
0.7907
0.740366
0.711322
0.700291
0.702575
0.727886
0.788264
0.827572
0.843787
0.857161
0.860032
0.847136
0.830662
0.817554
0.804905
0.798751
0.802613
0.835128
0.90791
0.949899
0.960938
0.957743
0.917633
0.853726
0.824037
0.822148
0.844102
0.883209
0.902713
0.910459
0.918809
0.938116
0.965554
0.981765
0.987569
0.989487
0.986626
0.952105
0.902753
0.877428
0.872783
0.883853
0.911294
0.949625
1.00767
1.09219
1.14063
1.15144
1.14692
1.11802
1.03945
0.97525
0.950936
0.943376
0.944165
0.949216
0.956402
0.980767
1.028
1.07999
1.14384
1.18008
1.19131
1.18267
1.15649
1.13531
1.10978
1.07328
1.05246
1.05314
1.07356
1.09341
1.10525
1.12354
1.17011
1.23468
1.2859
1.3099
1.31872
1.3199
1.31221
1.27597
1.1977
1.12388
1.09432
1.09688
1.11264
1.15282
1.24116
1.29011
1.29038
1.27521
1.2578
1.23816
1.21434
1.22154
4.1334
38.893
0.810424
0.776358
0.752546
0.734884
0.735707
0.760483
0.810262
0.838354
0.843835
0.840371
0.812131
0.785286
0.779199
0.788352
0.803436
0.811438
0.815798
0.850955
0.93397
0.977971
0.988338
0.984488
0.948574
0.867918
0.808483
0.788501
0.786953
0.797924
0.837992
0.883015
0.912998
0.950737
1.00308
1.03199
1.0334
1.0202
1.00764
0.982028
0.929736
0.877011
0.850553
0.845063
0.849586
0.862814
0.897042
1.00563
1.11443
1.14757
1.15575
1.14119
1.08485
1.02542
0.984009
0.958102
0.950136
0.954174
0.967983
0.998095
1.03166
1.0431
1.0476
1.06159
1.10262
1.13272
1.14399
1.14594
1.13957
1.135
1.12645
1.10965
1.09955
1.09899
1.0989
1.09953
1.10762
1.12256
1.17251
1.24446
1.28342
1.29327
1.29186
1.27599
1.23709
1.19298
1.15813
1.14899
1.15923
1.17123
1.19354
1.23608
1.26562
1.26674
1.2476
1.22493
1.2115
1.1918
1.2257
4.24477
39.0085
0.789107
0.787667
0.782453
0.790394
0.814015
0.837822
0.846805
0.848065
0.838314
0.799343
0.762029
0.747769
0.748582
0.760162
0.782729
0.808648
0.859941
0.95153
0.996692
1.00594
1.00667
0.985832
0.905773
0.823248
0.783533
0.772433
0.772676
0.777325
0.793439
0.834938
0.904285
0.998768
1.07237
1.09424
1.09447
1.06159
1.00894
0.95702
0.900571
0.859725
0.843371
0.840314
0.844426
0.858716
0.907937
0.997219
1.08282
1.11862
1.11952
1.09006
1.04762
1.025
1.01491
1.00666
1.00691
1.01928
1.0373
1.05028
1.0518
1.03983
1.01951
1.01174
1.01961
1.06537
1.11609
1.13903
1.14832
1.15882
1.16739
1.16266
1.14122
1.11787
1.09879
1.09891
1.11201
1.12282
1.13046
1.16192
1.21906
1.24137
1.243
1.23382
1.21286
1.20221
1.21437
1.22575
1.21995
1.20831
1.20078
1.19713
1.20795
1.21254
1.2037
1.19561
1.19417
1.1818
1.23976
4.38911
39.1274
0.776772
0.811898
0.845318
0.872687
0.885187
0.886566
0.875353
0.840058
0.790659
0.753071
0.73379
0.729272
0.731248
0.738773
0.759697
0.819885
0.946182
1.0166
1.03168
1.03374
1.01472
0.944257
0.851399
0.795042
0.772099
0.766678
0.767884
0.772545
0.779441
0.79896
0.880824
1.02837
1.09354
1.10752
1.11031
1.09315
1.03374
0.951043
0.893069
0.861707
0.850605
0.854369
0.873727
0.913211
0.952555
0.980061
1.00656
1.02679
1.03637
1.04129
1.04373
1.04617
1.05208
1.07457
1.1009
1.11483
1.11471
1.09023
1.04899
1.01024
0.990687
0.985951
0.988071
1.01566
1.08163
1.13674
1.16731
1.18371
1.18859
1.18348
1.16685
1.13535
1.11865
1.12464
1.12729
1.1213
1.10379
1.09746
1.12813
1.17458
1.19471
1.20455
1.20927
1.23101
1.26256
1.27102
1.26456
1.24252
1.20746
1.17149
1.14762
1.1421
1.14692
1.16583
1.20399
1.22237
1.29342
4.55433
39.1587
0.762033
0.863137
0.903255
0.915022
0.914984
0.900461
0.858312
0.803797
0.767575
0.745884
0.732674
0.729018
0.730843
0.736222
0.761629
0.860844
0.970875
1.01758
1.03187
1.03547
0.996445
0.896273
0.822333
0.787762
0.772263
0.767721
0.769848
0.77893
0.804044
0.850972
0.917714
1.00347
1.07275
1.09294
1.08358
1.04691
1.00526
0.962929
0.917307
0.891916
0.890782
0.905725
0.93028
0.952637
0.962539
0.966477
0.946516
0.931121
0.940803
0.97886
1.02702
1.06519
1.11115
1.15177
1.1724
1.18079
1.16835
1.11728
1.04199
0.994962
0.979692
0.977837
0.986399
1.00567
1.052
1.12465
1.1665
1.18233
1.18128
1.17607
1.16617
1.15826
1.16221
1.1666
1.15401
1.1224
1.07988
1.05513
1.05641
1.09083
1.13257
1.16336
1.20591
1.26508
1.29362
1.29629
1.29092
1.27994
1.23941
1.17376
1.12094
1.09106
1.08837
1.119
1.2104
1.26389
1.33808
4.65591
39.3105
0.77592
0.889082
0.915467
0.923253
0.921361
0.877092
0.811143
0.773725
0.75727
0.749064
0.742911
0.73986
0.745736
0.773597
0.820411
0.882146
0.95752
1.00073
1.00893
0.98672
0.928275
0.868124
0.823418
0.79434
0.782849
0.782789
0.794013
0.822539
0.865523
0.901251
0.924202
0.952799
0.989958
1.01339
1.01589
1.01384
1.01208
0.994829
0.971
0.956754
0.955035
0.960175
0.96615
0.968615
0.96118
0.929495
0.899533
0.888866
0.89188
0.906262
0.969032
1.07644
1.15908
1.19999
1.21471
1.21724
1.19063
1.11958
1.04782
1.00513
0.987208
0.98472
1.00032
1.0318
1.05749
1.0874
1.13073
1.15254
1.15436
1.15524
1.16211
1.18839
1.20765
1.20131
1.18297
1.13541
1.06784
1.03185
1.02179
1.02944
1.05639
1.10188
1.18107
1.25927
1.29419
1.29819
1.29269
1.28602
1.26521
1.20925
1.13325
1.0857
1.06908
1.08001
1.15621
1.22823
1.31373
4.78407
39.4726
0.800004
0.883224
0.910047
0.917245
0.898305
0.83697
0.788985
0.768085
0.758304
0.753881
0.754674
0.765824
0.796573
0.82845
0.849637
0.874285
0.90703
0.931163
0.935547
0.920243
0.892898
0.868852
0.843947
0.825197
0.820088
0.827062
0.846029
0.8749
0.900339
0.913973
0.921159
0.919516
0.908853
0.917557
0.953655
0.992268
1.01329
1.02774
1.04013
1.03794
1.02195
1.0049
0.989857
0.965675
0.928362
0.901318
0.885943
0.882349
0.885193
0.891705
0.925563
1.04436
1.1646
1.20819
1.22126
1.21308
1.16006
1.10454
1.06581
1.03234
1.01318
1.01328
1.03762
1.05695
1.06354
1.06281
1.05915
1.07662
1.10767
1.13776
1.18012
1.22352
1.23722
1.22594
1.20539
1.15791
1.07363
1.02974
1.01768
1.01789
1.02528
1.04418
1.12139
1.22198
1.26431
1.27441
1.27873
1.28159
1.27934
1.24675
1.18146
1.10926
1.07253
1.06803
1.0957
1.15066
1.24664
4.86288
39.6605
0.807318
0.852515
0.868802
0.866936
0.843565
0.814328
0.791179
0.773598
0.769549
0.775265
0.79339
0.821205
0.840428
0.850962
0.857258
0.854713
0.852477
0.859772
0.877457
0.889752
0.893183
0.889257
0.881815
0.877976
0.87891
0.884758
0.89493
0.907034
0.913283