/*--------------------------------*- C++ -*----------------------------------*\
  =========                 |
  \\      /  F ield         | OpenFOAM: The Open Source CFD Toolbox
   \\    /   O peration     | Website:  https://openfoam.org
    \\  /    A nd           | Version:  12
     \\/     M anipulation  |
\*---------------------------------------------------------------------------*/
FoamFile
{
    format      ascii;
    class       volScalarField;
    location    "7.1";
    object      rho;
}
// * * * * * * * * * * * * * * * * * * * * * * * * * * * * * * * * * * * * * //

dimensions      [1 -3 0 0 0 0 0];

internalField   nonuniform List<scalar> 
9801
(
1.06466
1.06603
1.06678
1.06999
1.0756
1.08575
1.09416
1.09975
1.10422
1.10804
1.11166
1.11282
1.1132
1.11572
1.11975
1.12712
1.13793
1.14604
1.15139
1.15577
1.15982
1.16226
1.16194
1.16355
1.16702
1.17208
1.18199
1.19319
1.20066
1.20575
1.21008
1.21383
1.2133
1.2129
1.21588
1.22028
1.22747
1.24023
1.25158
1.25889
1.26397
1.2684
1.27007
1.26708
1.26794
1.27221
1.27787
1.28835
1.30391
1.31473
1.32151
1.32706
1.33095
1.32741
1.32467
1.32767
1.33333
1.34154
1.35811
1.37424
1.38409
1.3904
1.39611
1.39441
1.38665
1.38784
1.39413
1.40257
1.42047
1.4421
1.45579
1.46497
1.47215
1.47434
1.4627
1.45822
1.46478
1.47498
1.49675
1.52732
1.54752
1.56013
1.5709
1.57686
1.56312
1.55198
1.56001
1.57683
1.61271
1.66182
1.69662
1.72265
1.74973
1.76966
1.76995
1.78223
1.81975
2.71062
6.49841
1.06953
1.07104
1.07239
1.07549
1.08101
1.09201
1.10081
1.10629
1.11042
1.11393
1.11683
1.11775
1.11846
1.12096
1.12455
1.13173
1.14347
1.15189
1.15722
1.16142
1.16507
1.1673
1.16725
1.16865
1.17176
1.17613
1.18584
1.19793
1.20571
1.21088
1.21518
1.21872
1.21872
1.21843
1.22099
1.22487
1.23099
1.24388
1.25591
1.26322
1.26828
1.27264
1.27441
1.27185
1.2727
1.27655
1.28148
1.29129
1.30736
1.31847
1.32526
1.33063
1.33439
1.33134
1.32866
1.33139
1.33648
1.34359
1.36007
1.3771
1.38719
1.39369
1.39939
1.39847
1.39089
1.39129
1.39686
1.40412
1.42084
1.44323
1.45729
1.46659
1.47382
1.47713
1.46689
1.46151
1.46691
1.47587
1.49348
1.52349
1.54555
1.55936
1.57086
1.58002
1.56916
1.55584
1.56097
1.57557
1.60287
1.64766
1.68278
1.70948
1.73614
1.75451
1.74934
1.74773
1.74485
2.5893
6.50377
1.06833
1.07
1.07201
1.07516
1.08073
1.09202
1.10056
1.10565
1.10957
1.11293
1.11574
1.11687
1.11789
1.12043
1.12389
1.13073
1.14276
1.15133
1.15657
1.16071
1.16434
1.16684
1.16683
1.16777
1.17065
1.17469
1.18376
1.19658
1.20487
1.21023
1.21465
1.21853
1.21971
1.21848
1.21995
1.22349
1.22889
1.2413
1.25408
1.26172
1.26695
1.27155
1.27431
1.27219
1.27215
1.27549
1.28004
1.28866
1.30447
1.316
1.32294
1.32838
1.33279
1.3312
1.32795
1.33016
1.33498
1.34123
1.35644
1.37416
1.38456
1.39119
1.3971
1.39804
1.3907
1.38962
1.39449
1.40104
1.41371
1.43635
1.45264
1.46255
1.47
1.47521
1.4673
1.45963
1.46314
1.47134
1.48335
1.51166
1.53914
1.55469
1.56613
1.57594
1.56979
1.55292
1.55385
1.56746
1.58662
1.62555
1.66698
1.697
1.72293
1.74338
1.73762
1.73134
1.71553
2.51613
6.4412
1.06846
1.07047
1.07258
1.07574
1.08063
1.0916
1.10065
1.10599
1.10997
1.1134
1.11632
1.11732
1.11807
1.12047
1.12378
1.12982
1.14192
1.15104
1.15643
1.16059
1.16422
1.16674
1.1664
1.16705
1.16988
1.17378
1.18201
1.19556
1.20457
1.21002
1.21437
1.21807
1.21856
1.21656
1.21814
1.2218
1.22682
1.23857
1.25266
1.26094
1.26629
1.27089
1.27394
1.27128
1.27001
1.27294
1.27732
1.28445
1.30011
1.31355
1.32121
1.32677
1.33156
1.33139
1.32649
1.32733
1.3317
1.33718
1.34965
1.36883
1.38075
1.38776
1.39375
1.39656
1.3897
1.38601
1.38975
1.39595
1.40534
1.427
1.44708
1.45792
1.46535
1.4717
1.4675
1.45562
1.45575
1.46345
1.47328
1.49493
1.52595
1.54486
1.55663
1.56706
1.5688
1.55218
1.54526
1.55558
1.57182
1.5984
1.63739
1.66949
1.69566
1.71986
1.72435
1.7177
1.69046
2.45842
6.40915
1.06887
1.07055
1.0722
1.07534
1.07997
1.09076
1.10043
1.10601
1.11012
1.11371
1.11673
1.11744
1.11755
1.11964
1.12285
1.12826
1.14025
1.15018
1.15585
1.16007
1.16371
1.16618
1.16562
1.16611
1.16886
1.1726
1.17988
1.19344
1.20294
1.2084
1.21259
1.21601
1.21647
1.2151
1.21683
1.22044
1.22504
1.23547
1.25011
1.25883
1.26412
1.26845
1.27133
1.26892
1.26713
1.26971
1.27408
1.28033
1.29506
1.3103
1.31866
1.32421
1.32885
1.32975
1.32383
1.32274
1.32641
1.33165
1.34143
1.36101
1.37545
1.38337
1.3896
1.39432
1.39032
1.38282
1.38385
1.38947
1.39708
1.41433
1.4378
1.45127
1.45922
1.46631
1.46746
1.45513
1.44932
1.45475
1.4638
1.4781
1.5081
1.53413
1.54897
1.56031
1.56853
1.55834
1.54298
1.54455
1.55829
1.57807
1.61244
1.64722
1.67425
1.69798
1.7157
1.71308
1.67825
2.42181
6.39516
1.06898
1.06988
1.07147
1.07468
1.07961
1.09076
1.10103
1.1067
1.11068
1.11409
1.11674
1.11675
1.11652
1.1186
1.12188
1.12721
1.13923
1.14991
1.1558
1.15996
1.16352
1.16594
1.16508
1.16521
1.16775
1.17137
1.1778
1.19097
1.20112
1.20687
1.21123
1.21498
1.21629
1.21468
1.21574
1.21895
1.22311
1.23178
1.2465
1.2561
1.26175
1.26635
1.27012
1.26898
1.26575
1.26748
1.27157
1.27715
1.29035
1.30675
1.31594
1.32155
1.32627
1.32883
1.32354
1.31952
1.32223
1.32727
1.33555
1.35423
1.37161
1.38057
1.38681
1.39221
1.39209
1.38234
1.37915
1.38371
1.39062
1.40314
1.42823
1.44716
1.45677
1.46406
1.46854
1.45907
1.4482
1.44911
1.45683
1.467
1.48922
1.52094
1.54176
1.55503
1.56632
1.56835
1.55053
1.5415
1.5488
1.56437
1.58956
1.62368
1.65211
1.67524
1.69637
1.70608
1.6834
2.39783
6.39208
1.06889
1.06964
1.07147
1.07465
1.07953
1.09085
1.10168
1.10751
1.11137
1.11449
1.11673
1.11642
1.11613
1.11821
1.12148
1.12653
1.13828
1.14959
1.15581
1.16003
1.16357
1.16614
1.16524
1.16448
1.16668
1.17016
1.17587
1.18864
1.19987
1.20622
1.21086
1.21492
1.21762
1.21548
1.21442
1.2168
1.22065
1.22784
1.24273
1.25408
1.2605
1.26549
1.26997
1.27125
1.26679
1.26614
1.26938
1.27411
1.28457
1.30212
1.31326
1.31953
1.32463
1.32885
1.32628
1.32003
1.32067
1.32531
1.33155
1.34643
1.36721
1.37899
1.38571
1.3911
1.39291
1.3845
1.37861
1.3812
1.38746
1.39565
1.41639
1.44184
1.45557
1.46365
1.47021
1.46758
1.45304
1.44767
1.45237
1.46119
1.47502
1.50441
1.53285
1.55027
1.56279
1.573
1.56731
1.54948
1.54669
1.55657
1.57357
1.60309
1.63431
1.65769
1.67584
1.69021
1.6843
2.39044
6.39168
1.06982
1.07089
1.07263
1.07567
1.08001
1.09057
1.10169
1.10779
1.11174
1.11491
1.11741
1.11768
1.11723
1.11901
1.12214
1.12666
1.13752
1.14928
1.15589
1.1603
1.16392
1.16692
1.16674
1.16502
1.16653
1.16985
1.17476
1.18675
1.19975
1.20702
1.21176
1.2158
1.2191
1.21748
1.21426
1.21563
1.21935
1.22525
1.23962
1.25388
1.26154
1.26659
1.271
1.2737
1.26948
1.2663
1.26812
1.2723
1.27947
1.29676
1.31209
1.32005
1.32551
1.33036
1.3307
1.32351
1.32153
1.32473
1.32989
1.33893
1.36011
1.37732
1.38586
1.39167
1.39612
1.39108
1.38206
1.38117
1.38604
1.39257
1.40483
1.4318
1.45307
1.46391
1.47144
1.4763
1.46539
1.45169
1.45153
1.45882
1.46844
1.48741
1.51865
1.5423
1.55773
1.57044
1.57879
1.56925
1.55289
1.55336
1.56457
1.58377
1.61455
1.64145
1.65961
1.67266
1.67986
2.39645
6.39145
1.07187
1.07335
1.07487
1.07778
1.08135
1.09012
1.1014
1.10814
1.11249
1.11602
1.11907
1.12023
1.11951
1.1209
1.12378
1.12752
1.13663
1.14915
1.15655
1.1612
1.16503
1.16842
1.16926
1.16697
1.1677
1.17071
1.17492
1.18523
1.19985
1.20836
1.21337
1.21739
1.22075
1.22004
1.21597
1.21657
1.22004
1.22498
1.23709
1.25366
1.26297
1.26842
1.27276
1.27604
1.27302
1.26771
1.26822
1.27198
1.27742
1.29142
1.31111
1.32183
1.32792
1.33287
1.33556
1.32926
1.32379
1.32459
1.32884
1.3349
1.35074
1.37414
1.38719
1.39423
1.39978
1.40074
1.39
1.38374
1.38537
1.39085
1.39833
1.41769
1.44596
1.4628
1.47191
1.47913
1.48058
1.46567
1.45577
1.45798
1.46566
1.47646
1.50092
1.53107
1.55168
1.5662
1.57872
1.58343
1.5709
1.55724
1.55949
1.57096
1.59246
1.62269
1.64471
1.6573
1.66942
2.41092
6.3907
1.07476
1.07684
1.07773
1.0803
1.08321
1.08968
1.10144
1.10937
1.11423
1.11809
1.12144
1.12342
1.12264
1.12332
1.12577
1.129
1.13569
1.14891
1.15802
1.16319
1.16722
1.17077
1.17241
1.16997
1.17003
1.1728
1.17654
1.18413
1.19932
1.20971
1.21513
1.21918
1.22277
1.22333
1.21929
1.21929
1.22252
1.22668
1.23474
1.2518
1.26401
1.27001
1.27438
1.27816
1.27733
1.27111
1.27044
1.2738
1.2786
1.28771
1.30793
1.32321
1.33031
1.33523
1.33891
1.33568
1.32685
1.32549
1.32896
1.3344
1.34416
1.36769
1.38803
1.39724
1.40338
1.40786
1.40111
1.38838
1.38593
1.38985
1.39637
1.4065
1.43226
1.45836
1.47201
1.48048
1.4879
1.485
1.46687
1.45971
1.46414
1.47276
1.48602
1.51396
1.54127
1.5594
1.57321
1.58512
1.58766
1.57278
1.56025
1.56296
1.57405
1.59742
1.62535
1.64199
1.65715
2.43175
6.38994
1.07813
1.08097
1.08067
1.08256
1.08536
1.09027
1.10198
1.11174
1.11701
1.12089
1.12424
1.12679
1.12622
1.12578
1.12781
1.13104
1.13612
1.1487
1.16007
1.16599
1.17008
1.17365
1.17592
1.17382
1.17301
1.17544
1.17894
1.18394
1.19717
1.21053
1.21727
1.2217
1.22558
1.22765
1.22442
1.22321
1.22555
1.22896
1.23355
1.24705
1.26366
1.27192
1.27685
1.28118
1.283
1.27735
1.27462
1.27723
1.28134
1.28653
1.30094
1.32129
1.33161
1.33705
1.3415
1.34273
1.33395
1.32871
1.33122
1.33643
1.34228
1.35724
1.38298
1.39788
1.40516
1.41043
1.41244
1.40041
1.39
1.39051
1.3959
1.4032
1.41753
1.44747
1.47007
1.48146
1.48924
1.49444
1.48651
1.46978
1.46572
1.47105
1.4801
1.49659
1.52594
1.55032
1.56674
1.57971
1.58999
1.58948
1.57311
1.56138
1.56386
1.57415
1.59896
1.62187
1.64091
2.45642
6.39009
1.08158
1.08452
1.08313
1.08485
1.08784
1.0922
1.10288
1.11419
1.12013
1.12396
1.12724
1.12999
1.12977
1.12871
1.13055
1.13371
1.13786
1.14825
1.16171
1.16895
1.17319
1.17669
1.17951
1.17852
1.17664
1.17819
1.18126
1.18506
1.19431
1.21025
1.21972
1.22493
1.22909
1.23254
1.23108
1.22738
1.22765
1.23018
1.23402
1.24252
1.26115
1.27398
1.28051
1.28508
1.28892
1.28618
1.2801
1.27989
1.28245
1.28635
1.29388
1.31433
1.33154
1.33965
1.34491
1.3495
1.34624
1.3366
1.33498
1.33749
1.34187
1.34868
1.36957
1.3939
1.40574
1.4129
1.41888
1.41763
1.40258
1.3953
1.39763
1.40323
1.41028
1.42833
1.45881
1.47762
1.4875
1.49539
1.50093
1.49041
1.47409
1.47188
1.478
1.48761
1.50691
1.53549
1.55707
1.57215
1.58462
1.59343
1.59095
1.57302
1.56083
1.56196
1.57154
1.59473
1.61951
2.47889
6.38895
1.08483
1.08791
1.08665
1.08815
1.09091
1.09445
1.10306
1.11577
1.12301
1.12711
1.1305
1.13352
1.13422
1.13273
1.13391
1.13675
1.14016
1.14714
1.16148
1.17116
1.17615
1.17989
1.18322
1.18397
1.18099
1.18093
1.1834
1.18692
1.19289
1.2084
1.22189
1.22846
1.23268
1.2364
1.23714
1.23131
1.22925
1.23177
1.23575
1.2414
1.25715
1.2752
1.28385
1.28901
1.2931
1.29385
1.28594
1.28122
1.28255
1.28628
1.29164
1.30587
1.32931
1.34246
1.34905
1.35415
1.35643
1.34707
1.33806
1.33736
1.34032
1.34562
1.35635
1.38329
1.40506
1.41501
1.42148
1.42712
1.422
1.40612
1.40044
1.40246
1.40759
1.41577
1.43914
1.46928
1.48641
1.4961
1.50378
1.50652
1.49366
1.47915
1.47789
1.48408
1.49397
1.51624
1.54414
1.56381
1.57763
1.5891
1.59602
1.59173
1.57222
1.55755
1.55728
1.56526
1.59386
2.49194
6.38606
1.08831
1.09221
1.09094
1.09177
1.09399
1.09677
1.10231
1.11556
1.12554
1.13067
1.1344
1.13773
1.13969
1.13785
1.13751
1.13941
1.14219
1.1465
1.15914
1.17253
1.17921
1.18341
1.18705
1.18945
1.18648
1.18411
1.18583
1.18915
1.19343
1.205
1.22204
1.23101
1.2358
1.23949
1.24182
1.23733
1.23278
1.23444
1.23833
1.24273
1.25201
1.27205
1.28525
1.29141
1.29564
1.29856
1.29403
1.28538
1.28453
1.28813
1.29303
1.30059
1.32167
1.34255
1.35202
1.35738
1.3617
1.35947
1.3456
1.33931
1.34141
1.34627
1.3524
1.36835
1.39724
1.41508
1.4237
1.42993
1.43409
1.42373
1.40689
1.40319
1.40752
1.414
1.4242
1.45078
1.47847
1.49339
1.50252
1.51026
1.51265
1.4978
1.48315
1.4826
1.48913
1.50039
1.52484
1.55148
1.56953
1.58228
1.59249
1.59762
1.59148
1.57072
1.55316
1.54717
1.56481
2.48421
6.38482
1.09227
1.09695
1.09567
1.09479
1.09606
1.09869
1.10267
1.11434
1.12769
1.13446
1.13841
1.14182
1.14454
1.14313
1.14026
1.14105
1.14384
1.14758
1.15686
1.17284
1.18214
1.18701
1.19067
1.19381
1.19265
1.18821
1.18862
1.19151
1.19515
1.20185
1.21868
1.23192
1.23811
1.24238
1.24617
1.24567
1.23943
1.2385
1.24104
1.24437
1.249
1.26363
1.28311
1.29232
1.29764
1.30224
1.30378
1.29506
1.28989
1.2919
1.29558
1.3
1.31007
1.33402
1.35027
1.35723
1.36238
1.36716
1.36163
1.34836
1.3456
1.34923
1.35433
1.36058
1.38001
1.4077
1.42223
1.42958
1.43499
1.43781
1.42646
1.41229
1.4104
1.41474
1.42148
1.43347
1.46168
1.48679
1.5003
1.50902
1.51578
1.51611
1.50117
1.48795
1.48773
1.49391
1.50577
1.5317
1.5575
1.57423
1.5856
1.59415
1.59739
1.59005
1.56877
1.54543
1.5405
2.4571
6.38538
1.09597
1.10095
1.09966
1.0971
1.09829
1.10115
1.1048
1.11373
1.12862
1.13739
1.14195
1.14515
1.1479
1.14796
1.14391
1.14379
1.14646
1.14994
1.15606
1.17112
1.18394
1.18999
1.19382
1.19716
1.1985
1.1939
1.19189
1.1938
1.19696
1.20108
1.21296
1.23123
1.24085
1.24595
1.24998
1.25285
1.24816
1.24234
1.24216
1.24456
1.24851
1.25623
1.2767
1.29361
1.30121
1.30632
1.31048
1.30788
1.29772
1.2946
1.29578
1.29892
1.30396
1.31888
1.34443
1.35889
1.3662
1.37184
1.37522
1.3657
1.35327
1.35161
1.35411
1.35833
1.36543
1.38813
1.41459
1.42792
1.43584
1.44263
1.44554
1.43195
1.41798
1.41667
1.42103
1.42759
1.44068
1.46944
1.4925
1.50484
1.51348
1.52106
1.52217
1.50607
1.49217
1.49152
1.49727
1.50938
1.53615
1.56138
1.57706
1.58732
1.59407
1.59548
1.58768
1.5611
1.53447
2.41294
6.38776
1.09883
1.10384
1.10343
1.10096
1.1017
1.10442
1.10768
1.11363
1.12743
1.13848
1.14386
1.14761
1.15085
1.15269
1.14948
1.14783
1.14983
1.15288
1.15667
1.16729
1.18339
1.19193
1.19658
1.20033
1.20344
1.20119
1.196
1.19608
1.19879
1.20242
1.20891
1.22684
1.24241
1.24933
1.2535
1.25711
1.25666
1.24779
1.24421
1.2464
1.25016
1.25494
1.26794
1.29102
1.30413
1.31019
1.31459
1.31696
1.30848
1.29775
1.29617
1.29897
1.30355
1.31041
1.33173
1.35741
1.36941
1.37538
1.38051
1.38171
1.36779
1.35555
1.35407
1.35735
1.36236
1.37177
1.3997
1.4262
1.43806
1.44463
1.45039
1.45115
1.43573
1.42245
1.4212
1.42547
1.43191
1.44764
1.47847
1.50079
1.51268
1.52086
1.52719
1.52645
1.50991
1.49558
1.49432
1.49955
1.51154
1.5387
1.56382
1.57862
1.58739
1.59181
1.59248
1.57977
1.55011
2.373
6.39078
1.10138
1.10689
1.10815
1.10636
1.10615
1.10814
1.11078
1.11416
1.12441
1.13872
1.14629
1.15064
1.15424
1.15724
1.15614
1.15253
1.15293
1.1552
1.15826
1.16408
1.18022
1.19365
1.19984
1.20374
1.20725
1.20817
1.20182
1.199
1.20105
1.20452
1.20868
1.21995
1.23996
1.25097
1.25628
1.26015
1.26298
1.25724
1.2493
1.24973
1.25324
1.25714
1.26237
1.27985
1.30135
1.31098
1.31626
1.32057
1.32124
1.309
1.30065
1.30209
1.30669
1.31154
1.31924
1.34357
1.36585
1.37537
1.38113
1.38567
1.38552
1.36986
1.35903
1.35971
1.36482
1.37091
1.38214
1.41076
1.43358
1.44403
1.45078
1.45651
1.45561
1.43904
1.42652
1.42621
1.43167
1.43921
1.45727
1.48694
1.50684
1.51772
1.52573
1.53213
1.53098
1.51368
1.49872
1.49679
1.50127
1.5127
1.53984
1.56451
1.57821
1.58504
1.58838
1.5853
1.57463
2.3559
6.39411
1.10426
1.11041
1.1128
1.11211
1.11
1.11065
1.11294
1.1161
1.12265
1.13763
1.14867
1.154
1.15756
1.16068
1.16181
1.15711
1.15515
1.15719
1.16043
1.16453
1.17588
1.19333
1.20245
1.2071
1.21058
1.21334
1.20976
1.20364
1.20392
1.20677
1.21028
1.21556
1.23224
1.25063
1.25887
1.26365
1.26753
1.2681
1.25907
1.25427
1.25543
1.25787
1.26141
1.26859
1.29057
1.30996
1.31878
1.32474
1.32922
1.32716
1.3136
1.30794
1.30926
1.31194
1.31612
1.3258
1.35199
1.37218
1.38109
1.38704
1.39249
1.3915
1.37593
1.36761
1.3688
1.37225
1.3771
1.38916
1.41786
1.43896
1.44891
1.45543
1.46141
1.46135
1.44618
1.43446
1.43391
1.438
1.44466
1.46373
1.49318
1.51219
1.52266
1.53037
1.5364
1.53563
1.51854
1.50224
1.49886
1.50239
1.51247
1.53917
1.56329
1.57556
1.58145
1.58089
1.58896
2.36152
6.39601
1.10716
1.11378
1.11621
1.11693
1.1137
1.11373
1.11626
1.11943
1.12336
1.13467
1.14935
1.1566
1.16039
1.16344
1.16584
1.16332
1.1593
1.16033
1.16335
1.16677
1.17258
1.18868
1.20331
1.20984
1.21373
1.2172
1.21806
1.21106
1.20743
1.20894
1.21202
1.21581
1.22421
1.24499
1.26045
1.26717
1.27132
1.27477
1.27108
1.26005
1.25642
1.25835
1.26184
1.26629
1.27794
1.30362
1.32079
1.3281
1.33313
1.33722
1.33061
1.31564
1.31002
1.31162
1.31545
1.32027
1.33346
1.36184
1.38135
1.39013
1.39611
1.40114
1.39712
1.38062
1.37133
1.37152
1.37515
1.38052
1.39499
1.42472
1.44534
1.45578
1.46349
1.46932
1.46862
1.45238
1.43868
1.43704
1.44158
1.44876
1.46877
1.49819
1.51693
1.52732
1.53509
1.54137
1.5413
1.52338
1.50462
1.49938
1.50213
1.511
1.53704
1.56023
1.5721
1.57384
1.59114
2.38643
6.39773
1.10913
1.11669
1.11937
1.12182
1.11976
1.11814
1.11989
1.12263
1.12557
1.13107
1.14615
1.15776
1.16318
1.16684
1.17017
1.17124
1.16635
1.16465
1.16648
1.16927
1.1725
1.18147
1.20048
1.2119
1.2172
1.22077
1.22391
1.22096
1.21296
1.21177
1.21434
1.21792
1.22214
1.23412
1.25635
1.26882
1.27472
1.27837
1.28052
1.27225
1.26173
1.26086
1.26445
1.2691
1.27423
1.28863
1.31415
1.32806
1.33465
1.33864
1.34139
1.33349
1.31874
1.31452
1.31738
1.32237
1.32806
1.34365
1.37223
1.38949
1.39718
1.40201
1.4061
1.40193
1.38436
1.37513
1.37618
1.38107
1.38753
1.40426
1.43484
1.45419
1.46302
1.4689
1.47382
1.47319
1.45704
1.44302
1.44117
1.44521
1.45243
1.47286
1.50315
1.52256
1.53266
1.53972
1.54491
1.54451
1.52738
1.50674
1.49932
1.50085
1.50874
1.53373
1.5561
1.56413
1.58605
2.42135
6.39875
1.11047
1.12043
1.12346
1.12669
1.12751
1.12387
1.12301
1.12434
1.12681
1.13029
1.14046
1.15742
1.16646
1.17099
1.17443
1.17739
1.17499
1.16908
1.16848
1.17068
1.17385
1.1784
1.19269
1.21125
1.21989
1.22437
1.22794
1.22997
1.22295
1.2166
1.21726
1.22002
1.22331
1.22809
1.24438
1.26618
1.27632
1.28183
1.28593
1.28684
1.27596
1.26811
1.26883
1.2715
1.27469
1.27924
1.29613
1.32101
1.33344
1.3398
1.3452
1.3487
1.33957
1.32554
1.32307
1.32606
1.32999
1.33472
1.35061
1.37811
1.3933
1.40036
1.40597
1.41091
1.407
1.39064
1.38299
1.38503
1.38983
1.39545
1.4112
1.43995
1.45743
1.46603
1.47259
1.47854
1.47844
1.46247
1.44812
1.44604
1.45011
1.45718
1.47677
1.50611
1.52517
1.5351
1.54197
1.5475
1.54819
1.53184
1.50888
1.4987
1.49876
1.50524
1.52954
1.54676
1.57356
2.45783
6.39707
1.11072
1.12442
1.12786
1.13108
1.13357
1.13063
1.12591
1.12638
1.12892
1.13206
1.1375
1.15326
1.16819
1.17468
1.17817
1.18126
1.18261
1.17627
1.17186
1.17309
1.17609
1.17947
1.18578
1.20434
1.22079
1.22792
1.23205
1.23557
1.2347
1.22484
1.22046
1.22177
1.2248
1.2284
1.23481
1.25521
1.27563
1.28482
1.29001
1.2941
1.29248
1.27963
1.2719
1.27154
1.27384
1.27773
1.28408
1.30515
1.33025
1.34236
1.34828
1.3537
1.35573
1.34429
1.33072
1.32736
1.32889
1.33232
1.33811
1.35664
1.38482
1.40019
1.40782
1.4141
1.419
1.41449
1.39823
1.38955
1.38949
1.3922
1.39758
1.41484
1.44483
1.4634
1.47252
1.47883
1.48475
1.48587
1.47071
1.45524
1.45157
1.45412
1.45927
1.47638
1.50676
1.5275
1.53801
1.54482
1.54992
1.55122
1.53656
1.51093
1.49702
1.49512
1.50121
1.52029
1.55367
2.48591
6.39136
1.10927
1.12675
1.13159
1.13471
1.13743
1.13778
1.13181
1.1296
1.13151
1.13445
1.13789
1.147
1.16536
1.17629
1.18139
1.18479
1.18796
1.18642
1.1786
1.17668
1.17857
1.18147
1.18507
1.19467
1.21626
1.22997
1.23596
1.2396
1.24258
1.23757
1.22697
1.22461
1.2268
1.23019
1.23388
1.24216
1.26573
1.28446
1.29258
1.29755
1.30119
1.2973
1.28208
1.27495
1.2762
1.28012
1.28473
1.29228
1.31551
1.33903
1.34975
1.35543
1.35962
1.36129
1.34865
1.33401
1.33093
1.33411
1.33868
1.34517
1.36554
1.39372
1.40871
1.41577
1.42088
1.42522
1.4205
1.40213
1.39158
1.39198
1.39652
1.4028
1.42119
1.45119
1.47037
1.4799
1.48632
1.49202
1.49279
1.47708
1.45889
1.45332
1.45598
1.4618
1.47811
1.5077
1.52931
1.54039
1.54694
1.55133
1.55239
1.54007
1.51357
1.49458
1.49056
1.49234
1.52862
2.49621
6.38521
1.1067
1.12665
1.13403
1.13792
1.14104
1.14366
1.1406
1.13468
1.13462
1.13677
1.13953
1.14373
1.15775
1.17604
1.18449
1.18899
1.19235
1.19469
1.18873
1.18127
1.18101
1.18355
1.18686
1.19133
1.20511
1.227
1.23814
1.24352
1.24715
1.2488
1.23951
1.23018
1.22948
1.23175
1.23496
1.2392
1.25078
1.2757
1.29151
1.29805
1.30273
1.30656
1.30209
1.28774
1.28263
1.28449
1.28776
1.2915
1.29891
1.32255
1.34443
1.35376
1.35918
1.36394
1.36606
1.35459
1.34137
1.33924
1.34227
1.34674
1.35299
1.3728
1.3995
1.4128
1.41936
1.42443
1.42875
1.42573
1.40946
1.39944
1.39958
1.40366
1.40983
1.42706
1.45653
1.47552
1.48471
1.49066
1.49514
1.49684
1.48404
1.46587
1.45911
1.46038
1.46473
1.4782
1.50701
1.52962
1.54105
1.54738
1.55144
1.55231
1.54269
1.51666
1.49428
1.48064
1.50062
2.47938
6.37929
1.10472
1.12309
1.13594
1.14144
1.14473
1.14765
1.14837
1.14153
1.13759
1.1389
1.14176
1.14506
1.15229
1.17109
1.18629
1.19263
1.19622
1.19923
1.19862
1.18896
1.1845
1.18602
1.18904
1.1924
1.19797
1.21561
1.23661
1.24617
1.25113
1.2545
1.2537
1.2412
1.2332
1.23381
1.23714
1.24085
1.24517
1.2587
1.28407
1.29888
1.30547
1.31064
1.31426
1.30746
1.29296
1.28761
1.28836
1.29071
1.29493
1.30398
1.32911
1.35086
1.36069
1.36674
1.37205
1.37369
1.36206
1.34817
1.3451
1.34716
1.35057
1.35649
1.37613
1.40259
1.41685
1.42463
1.43138
1.43661
1.43472
1.41849
1.40649
1.40523
1.40831
1.41325
1.4282
1.45699
1.4766
1.48616
1.49361
1.50017
1.50394
1.49313
1.47281
1.46287
1.46298
1.46666
1.47744
1.50466
1.52843
1.54078
1.54702
1.5505
1.55134
1.54403
1.52058
1.48952
1.4844
2.43427
6.37433
1.10569
1.11736
1.13515
1.14396
1.14805
1.15072
1.15297
1.15007
1.14315
1.14268
1.14536
1.1486
1.15225
1.1623
1.18209
1.19387
1.19917
1.2023
1.20491
1.20042
1.191
1.18931
1.19155
1.19473
1.19827
1.20525
1.22544
1.24476
1.25338
1.25827
1.26154
1.25819
1.24485
1.23899
1.23999
1.24261
1.24606
1.25109
1.2677
1.29328
1.3068
1.313
1.31701
1.3202
1.31278
1.29702
1.29125
1.29295
1.2968
1.30152
1.31174
1.3379
1.3592
1.3686
1.3738
1.37804
1.37997
1.36797
1.35251
1.34809
1.35063
1.35512
1.36127
1.38195
1.41075
1.42605
1.433
1.43811
1.44293
1.44188
1.42505
1.41073
1.40769
1.41089
1.41595
1.42911
1.45897
1.48304
1.49426
1.50048
1.50582
1.50897
1.50024
1.47953
1.46668
1.46481
1.46785
1.47584
1.50102
1.52649
1.54009
1.5463
1.54904
1.54894
1.54394
1.51844
1.49132
2.37823
6.37479
1.10898
1.11419
1.12847
1.1436
1.1501
1.15375
1.15681
1.15851
1.15269
1.14827
1.14941
1.1519
1.15462
1.15817
1.17058
1.19084
1.20108
1.20605
1.20943
1.21106
1.20289
1.19509
1.19506
1.1976
1.2007
1.20413
1.21164
1.23356
1.25238
1.26052
1.26531
1.26855
1.2637
1.24931
1.24326
1.24498
1.24882
1.2527
1.2573
1.27403
1.29866
1.31064
1.31643
1.32099
1.3246
1.31822
1.30372
1.29901
1.30116
1.30485
1.30903
1.31798
1.34314
1.36318
1.37175
1.37703
1.38135
1.38375
1.37432
1.35946
1.35536
1.3583
1.36309
1.36911
1.38805
1.4152
1.42971
1.43703
1.44235
1.44645
1.44687
1.43245
1.41707
1.41346
1.41649
1.4217
1.43383
1.46185
1.48573
1.49748
1.50419
1.50948
1.51276
1.50613
1.4858
1.47026
1.46635
1.46834
1.47466
1.49736
1.52393
1.53863
1.54453
1.54623
1.54645
1.53867
1.52331
2.34382
6.37554
1.11194
1.11502
1.12079
1.13804
1.15178
1.15759
1.16081
1.16384
1.16311
1.15542
1.15244
1.15357
1.15609
1.15922
1.16421
1.18018
1.20019
1.20949
1.21389
1.21713
1.21646
1.20573
1.19976
1.20023
1.20233
1.20541
1.20948
1.21866
1.24176
1.25937
1.26696
1.27167
1.27487
1.26955
1.2559
1.25089
1.25168
1.25312
1.2562
1.26164
1.28028
1.30473
1.31731
1.32362
1.329
1.33247
1.32577
1.31113
1.30553
1.30609
1.30784
1.31185
1.32149
1.34695
1.36751
1.37699
1.38308
1.38857
1.39205
1.38412
1.36889
1.36333
1.36414
1.36654
1.37154
1.3893
1.4167
1.43271
1.44044
1.44662
1.45226
1.45506
1.44309
1.42666
1.42123
1.42237
1.42552
1.43359
1.45926
1.48575
1.49939
1.50639
1.51163
1.51578
1.5128
1.49391
1.47542
1.46871
1.46903
1.47302
1.49279
1.51996
1.53566
1.54118
1.54337
1.53963
1.54921
2.34485
6.37657
1.11423
1.11681
1.11989
1.12893
1.14828
1.15968
1.16464
1.16762
1.17033
1.16645
1.15827
1.15682
1.15892
1.16192
1.16515
1.17066
1.18895
1.20832
1.217
1.2214
1.22427
1.22103
1.20872
1.20364
1.2051
1.2083
1.21146
1.21494
1.22452
1.24892
1.26614
1.27346
1.27823
1.28195
1.2762
1.26064
1.25397
1.25517
1.25838
1.2623
1.26838
1.28826
1.313
1.32545
1.33139
1.33573
1.33917
1.33259
1.31595
1.30846
1.30937
1.31291
1.31756
1.32744
1.35343
1.37551
1.38552
1.39091
1.39564
1.39948
1.3913
1.37332
1.365
1.36577
1.36982
1.37519
1.39162
1.4205
1.43987
1.44891
1.45479
1.46048
1.46324
1.45161
1.43226
1.42287
1.42326
1.42745
1.43456
1.45714
1.48614
1.50274
1.51057
1.51591
1.52011
1.51934
1.50204
1.47981
1.46948
1.46843
1.47091
1.48669
1.51453
1.53135
1.53814
1.53584
1.5579
2.36916
6.37714
1.11724
1.11877
1.12131
1.125
1.13766
1.15766
1.16762
1.17248
1.1757
1.17736
1.16974
1.16264
1.16255
1.16447
1.16668
1.16947
1.17609
1.19729
1.2161
1.22417
1.22895
1.23189
1.22626
1.2139
1.21007
1.2109
1.21258
1.21571
1.22008
1.23247
1.2575
1.27319
1.27983
1.28404
1.28705
1.28196
1.2674
1.26138
1.26253
1.26556
1.26927
1.27506
1.2943
1.31826
1.32961
1.33524
1.33961
1.34308
1.33841
1.32314
1.31581
1.31677
1.32052
1.3253
1.33413
1.35856
1.38026
1.39003
1.39562
1.39935
1.40242
1.39734
1.38079
1.37199
1.37259
1.37672
1.38196
1.39637
1.42451
1.44461
1.45412
1.45964
1.46331
1.46609
1.45832
1.43947
1.42895
1.42832
1.43164
1.43779
1.45785
1.48737
1.50575
1.5139
1.51847
1.52172
1.52175
1.50798
1.48426
1.47013
1.46703
1.46859
1.48205
1.50854
1.52649
1.52997
1.55675
2.40893
6.37683
1.1213
1.12072
1.12285
1.12589
1.13126
1.14852
1.16803
1.17652
1.18067
1.18376
1.1825
1.17131
1.16493
1.16504
1.16733
1.17047
1.17442
1.18375
1.20718
1.22479
1.23207
1.23634
1.23884
1.23123
1.21704
1.21273
1.21493
1.2184
1.22199
1.22629
1.2393
1.26415
1.27886
1.28541
1.29069
1.29449
1.28875
1.27338
1.26667
1.26738
1.26962
1.27315
1.27918
1.29884
1.32299
1.33511
1.3414
1.34683
1.35082
1.34635
1.3308
1.32247
1.32302
1.32559
1.32926
1.33686
1.36026
1.38254
1.39302
1.39951
1.40525
1.4098
1.40686
1.39096
1.38047
1.3799
1.38243
1.38621
1.39697
1.42329
1.44459
1.45462
1.46091
1.46672
1.47158
1.46792
1.45023
1.43717
1.43455
1.43664
1.44058
1.45553
1.48438
1.50429
1.51312
1.51812
1.52224
1.52432
1.51502
1.49103
1.47246
1.46654
1.4666
1.47644
1.50205
1.51544
1.54752
2.45163
6.37349
1.12683
1.12354
1.12581
1.12892
1.13233
1.13948
1.15922
1.17639
1.18394
1.18803
1.19027
1.1853
1.17248
1.16822
1.17002
1.17333
1.17687
1.18109
1.19221
1.21608
1.23141
1.23805
1.24239
1.24439
1.23564
1.22285
1.22007
1.22167
1.22392
1.22709
1.23195
1.24698
1.27214
1.28638
1.29256
1.29631
1.29928
1.29474
1.27884
1.27088
1.27154
1.27488
1.27896
1.28549
1.30558
1.33053
1.34303
1.34872
1.35264
1.35622
1.3533
1.33731
1.32675
1.32591
1.3292
1.33358
1.3411
1.36449
1.38952
1.40155
1.40732
1.41184
1.41644
1.41499
1.39845
1.3848
1.38175
1.38455
1.38899
1.39775
1.42286
1.4488
1.46207
1.46872
1.47403
1.47878
1.47681
1.45979
1.44262
1.43648
1.43776
1.44147
1.45174
1.4796
1.50382
1.51501
1.52044
1.52477
1.52746
1.52186
1.49811
1.47407
1.46445
1.46317
1.47098
1.4897
1.52853
2.48548
6.36583
1.13583
1.12881
1.12997
1.1327
1.13556
1.13864
1.14618
1.16701
1.18294
1.18954
1.19381
1.19614
1.18929
1.17773
1.17545
1.17752
1.18032
1.18328
1.18706
1.19856
1.22217
1.23716
1.2435
1.24776
1.25047
1.24233
1.22821
1.22404
1.2264
1.23019
1.23398
1.2382
1.2521
1.27636
1.28943
1.29533
1.29974
1.3035
1.30051
1.28633
1.27841
1.27906
1.2825
1.28656
1.29212
1.30974
1.3336
1.34557
1.35129
1.35572
1.35948
1.35878
1.34544
1.33401
1.33283
1.3364
1.34111
1.34788
1.3681
1.39242
1.40502
1.41146
1.41593
1.41923
1.42007
1.40739
1.39231
1.38798
1.39038
1.39491
1.40295
1.42484
1.4511
1.46581
1.47303
1.47757
1.48084
1.48112
1.46794
1.44889
1.4402
1.44019
1.44375
1.45267
1.47787
1.50355
1.51692
1.52251
1.52571
1.52744
1.52431
1.50454
1.47705
1.46177
1.45908
1.46126
1.50386
2.49792
6.35593
1.14686
1.13785
1.13417
1.13539
1.13735
1.13994
1.14369
1.15307
1.17491
1.19042
1.197
1.20078
1.20267
1.19431
1.18297
1.18055
1.18196
1.18428
1.18754
1.19229
1.20513
1.2286
1.24317
1.24959
1.25351
1.25561
1.24844
1.2359
1.23241
1.23365
1.23502
1.23783
1.24245
1.25729
1.28156
1.29562
1.30216
1.30702
1.31118
1.30884
1.2949
1.28589
1.28533
1.2869
1.28976
1.29502
1.3117
1.33624
1.35003
1.35684
1.36268
1.36737
1.36793
1.35601
1.34342
1.34074
1.34232
1.34482
1.34981
1.36708
1.39226
1.40698
1.41427
1.42052
1.42583
1.42866
1.41928
1.40311
1.39661
1.39734
1.39961
1.40417
1.42117
1.4482
1.46512
1.47295
1.4788
1.48422
1.48755
1.47854
1.45897
1.44754
1.4455
1.44705
1.45125
1.47194
1.49938
1.51428
1.52074
1.52473
1.52714
1.526
1.51061
1.48197
1.46256
1.45051
1.47624
2.4794
6.34548
1.15484
1.15241
1.14135
1.13896
1.14058
1.1434
1.1464
1.14996
1.15937
1.18165
1.19653
1.20309
1.20692
1.20837
1.1998
1.18844
1.18587
1.18795
1.19119
1.19447
1.19824
1.20957
1.23314
1.2481
1.2546
1.25929
1.26259
1.25652
1.24208
1.23592
1.23708
1.24025
1.24404
1.24879
1.26293
1.28733
1.30217
1.30916
1.31366
1.31741
1.31641
1.30206
1.2902
1.28845
1.29129
1.29517
1.30059
1.31614
1.34173
1.35772
1.36501
1.36957
1.37368
1.37578
1.3644
1.3483
1.34261
1.34427
1.34822
1.35314
1.36807
1.39544
1.41447
1.42299
1.42821
1.43309
1.43666
1.42884
1.41028
1.39914
1.39793
1.40115
1.40583
1.41885
1.44707
1.46949
1.48018
1.48599
1.49088
1.49431
1.48764
1.46697
1.45018
1.44506
1.44651
1.45028
1.46583
1.49436
1.51354
1.52173
1.52506
1.52671
1.52651
1.51591
1.48891
1.45827
1.46135
2.4306
6.33642
1.15905
1.16409
1.15617
1.1466
1.14514
1.14692
1.14898
1.15087
1.15389
1.16422
1.18748
1.20233
1.20903
1.21383
1.21602
1.20792
1.19683
1.19416
1.19475
1.19573
1.19837
1.20282
1.21552
1.23966
1.25478
1.2612
1.26507
1.2679
1.26364
1.25013
1.24392
1.24457
1.24689
1.24984
1.25379
1.26664
1.29102
1.30612
1.31298
1.31759
1.32143
1.32188
1.31009
1.29811
1.29599
1.29839
1.30207
1.3067
1.31952
1.34448
1.36125
1.36902
1.37395
1.37729
1.37944
1.3723
1.35667
1.34967
1.35077
1.35471
1.35959
1.3716
1.39738
1.4176
1.42756
1.43291
1.43612
1.43905
1.43597
1.41957
1.40627
1.40363
1.40652
1.41109
1.42174
1.44724
1.47124
1.4835
1.48938
1.4929
1.49517
1.49224
1.47473
1.4558
1.44822
1.44793
1.45066
1.46292
1.49026
1.5116
1.52144
1.52475
1.52553
1.52437
1.51783
1.48977
1.46748
2.37036
6.33401
1.16081
1.16913
1.16972
1.16056
1.15043
1.14808
1.14922
1.15146
1.15445
1.15857
1.1713
1.19585
1.21088
1.2171
1.22104
1.22337
1.21462
1.20045
1.19607
1.19793
1.20093
1.20413
1.20854
1.22078
1.2445
1.25946
1.26634
1.2717
1.27555
1.27163
1.25657
1.248
1.24737
1.24957
1.25266
1.25715
1.27021
1.29492
1.31117
1.31867
1.3241
1.32876
1.3299
1.31858
1.30512
1.30148
1.30309
1.30573
1.30987
1.32061
1.34516
1.36388
1.3726
1.37846
1.38372
1.38744
1.38272
1.36726