/*--------------------------------*- C++ -*----------------------------------*\
  =========                 |
  \\      /  F ield         | OpenFOAM: The Open Source CFD Toolbox
   \\    /   O peration     | Website:  https://openfoam.org
    \\  /    A nd           | Version:  12
     \\/     M anipulation  |
\*---------------------------------------------------------------------------*/
FoamFile
{
    format      ascii;
    class       volScalarField;
    location    "8.92";
    object      rho;
}
// * * * * * * * * * * * * * * * * * * * * * * * * * * * * * * * * * * * * * //

dimensions      [1 -3 0 0 0 0 0];

internalField   nonuniform List<scalar> 
22702
(
1.40001
1.40001
1.25159
1.40001
1.45718
1.40001
1.83985
1.40001
1.40001
1.06499
1.83727
1.84202
1.40001
1.84283
1.28071
1.40001
1.40001
1.40001
1.83744
1.40001
1.8438
1.40001
1.83992
1.03835
1.83901
0.975344
1.40001
1.83955
1.02944
1.04065
1.40001
1.84237
1.40001
1.40001
1.40001
1.80981
1.83851
1.83978
1.40001
1.40001
1.03116
1.40001
1.61998
1.40001
1.83863
1.40001
1.40001
1.40001
1.40001
1.02594
1.40001
1.04288
1.40001
1.83712
1.40001
1.84119
1.40001
1.40001
1.40001
1.40001
1.01588
1.40001
1.40001
1.03057
1.40001
1.02119
1.40001
1.40001
1.40001
1.02623
1.40001
1.84201
1.66994
1.40001
1.84178
1.86194
1.02191
1.84096
1.02124
1.40001
1.83541
1.0346
1.83965
1.83845
1.40001
1.40001
1.40001
1.40001
1.32314
1.04288
1.84064
1.40001
1.40001
1.05936
1.40001
1.84432
1.06184
1.40001
1.40001
1.40001
1.40001
1.62016
1.83601
0.980796
1.40001
1.40001
1.50671
1.40001
1.03093
1.40001
1.84148
1.8398
1.40001
1.40001
0.993332
0.996282
1.05058
1.40001
1.40001
1.40001
1.40001
1.40001
1.30738
1.40001
1.78047
1.4439
1.84028
1.40001
1.84042
1.83755
1.84082
1.83869
1.40001
1.01295
1.40001
1.03902
1.40001
1.40001
1.40001
1.40001
1.83919
1.40001
1.40001
1.40001
1.40001
1.84024
1.40001
1.42719
1.40001
1.40001
1.40001
1.40001
1.02341
1.40001
1.4102
1.40001
1.02314
1.40001
1.40001
1.40001
1.83953
1.40001
1.84148
1.03451
1.01585
1.84189
1.84154
1.40001
1.47244
1.65137
1.40001
1.83623
1.01984
1.81094
1.40001
1.40001
1.40001
1.40001
1.84334
1.75156
1.40001
1.83902
1.03084
1.83838
1.40001
1.01968
1.40001
1.03749
0.996813
1.3998
1.40001
1.40001
1.84012
1.40001
1.40001
1.84042
1.40001
1.84125
1.83907
1.03508
1.40001
1.40001
1.02885
1.8421
1.40001
1.40001
1.40001
1.84165
1.40001
1.04652
1.40001
1.40001
1.84217
1.84155
1.84145
1.40001
1.40004
1.40001
1.40001
1.40001
1.84086
1.40001
1.03194
1.85569
1.84132
1.84097
1.40001
1.40001
1.40001
1.01163
1.84097
1.62839
1.40001
1.8428
1.02584
1.03548
1.84302
1.8404
1.40001
1.84855
1.01561
1.79155
1.40001
1.40001
1.40001
1.40001
1.84084
1.40001
1.66608
1.44072
1.40001
1.40001
1.84206
1.05573
1.13851
1.40001
1.84136
1.04635
1.84776
1.40001
1.40001
1.40001
1.40001
1.40001
1.40001
1.40001
1.02818
1.12972
1.03566
1.84173
1.40001
1.40001
1.40001
1.40001
1.79195
1.40001
1.02426
1.40001
1.00764
1.02653
1.84214
1.01055
1.84401
1.40001
1.40001
1.40001
1.39763
1.01947
1.0579
1.4
1.40001
1.00512
1.40001
1.83845
0.985728
1.40001
1.40001
1.83476
1.06834
1.40001
1.84715
1.02133
1.84173
1.40001
1.01136
1.39764
1.40001
1.40001
1.40001
1.032
1.40001
1.40001
1.4
1.40002
1.4122
1.673
1.40001
1.01269
1.40001
1.40001
1.40001
1.40001
1.40001
1.40001
1.40001
1.83641
1.40001
1.83835
1.40001
1.40001
1.40001
1.04675
1.40001
1.84032
1.00955
1.40001
1.75969
1.40001
1.40001
1.83753
1.40001
1.40001
1.40001
1.83007
1.40001
1.40001
1.83396
1.83742
1.40001
1.48931
1.40001
1.40001
1.04458
1.40001
1.40001
1.40001
1.05969
1.40001
1.40001
1.40001
1.40001
0.99757
1.40001
1.40001
1.40001
1.40001
1.40001
1.06534
1.40007
1.84173
1.40001
1.40001
1.84178
1.84181
1.40001
1.40001
1.02948
1.21775
1.84451
1.40001
1.40001
1.40001
1.84138
1.02086
1.40001
1.84201
1.40001
1.40001
1.10659
1.11535
1.40001
1.01174
1.03333
1.40001
1.40001
1.40001
1.40001
1.40001
1.40001
1.40001
1.83877
1.51331
1.82322
1.07026
1.30211
1.83826
1.40001
1.84096
1.84478
1.02396
1.17557
1.40001
1.04359
1.40001
1.84795
1.40001
1.40001
1.40001
1.40001
1.84151
1.40001
1.40001
1.40001
1.40001
1.40001
1.40001
1.40001
1.56176
1.83952
1.40001
1.84164
1.40001
1.40001
1.03215
1.40001
1.40001
1.40001
1.40001
1.84175
1.73752
1.40001
1.40001
1.01307
1.84206
1.84233
1.40001
1.84233
1.84095
1.84158
1.40001
1.23737
1.40001
1.8414
1.38407
1.84155
1.40001
1.03386
1.39882
1.83651
1.40001
1.40001
1.40001
1.40001
1.03105
1.84156
1.80057
1.40001
1.84317
1.84136
1.84088
1.40001
1.60748
1.84101
1.40001
1.40001
1.70657
1.46534
1.84236
1.3216
1.84237
1.40001
1.84212
1.84177
1.84173
1.84211
1.40001
1.8273
1.31315
1.28824
1.40001
1.4
1.40001
1.40001
1.84529
1.40001
1.40001
1.40001
1.40001
1.40001
1.83915
1.40001
1.40001
1.39606
1.84235
1.77884
1.40001
1.76596
1.40005
1.40001
1.40001
1.84208
1.40001
1.3974
1.4044
1.40001
1.84155
1.40001
1.84099
1.40001
1.40001
1.72538
1.40001
1.84173
1.40003
1.40001
1.8431
1.40001
1.84206
1.40001
1.40001
1.40001
1.84062
1.40001
1.84295
1.40001
1.84117
1.83767
1.84193
1.83845
1.40001
1.83823
1.83296
1.40001
1.03444
1.81442
1.71691
1.40001
1.84096
1.40001
1.05465
1.02528
1.40001
1.40001
1.40001
1.40001
1.40001
1.06163
1.40001
1.84158
1.51199
1.84229
1.40001
1.40001
1.40001
1.40001
1.40001
1.84185
1.40001
1.84149
1.66395
1.18712
1.40001
1.40001
1.53026
1.51338
1.40001
1.40001
1.56262
1.40001
1.02289
1.84204
1.84176
1.40001
1.40001
1.40001
1.83793
1.40001
1.40003
1.8409
1.84147
1.33976
1.40001
1.40001
1.03061
1.80024
1.40001
1.40001
1.40001
1.40001
1.40001
1.84213
1.83834
1.40001
1.84324
1.84366
1.84168
1.40001
1.40001
1.40001
1.40001
0.990582
1.84234
1.40001
1.40001
1.80191
1.8406
1.40001
1.81584
1.8399
1.40001
1.40001
1.40001
1.40001
1.40001
1.84157
1.40001
1.40001
1.40001
1.40001
1.84521
1.40001
1.84161
1.03896
1.40001
1.02984
1.40001
1.40001
1.40001
1.39697
1.02614
1.39903
1.40001
1.40001
1.40001
1.46519
1.40001
1.40001
1.24446
1.40001
1.40001
1.40001
1.40001
1.40001
1.40001
1.40001
1.4
1.33407
1.4
1.40001
1.39764
1.40001
1.02784
1.40001
1.40001
1.40001
1.40001
1.7288
1.40001
1.40001
1.40001
1.40001
1.01536
1.40001
1.40001
1.8154
1.83692
1.4
1.40001
1.40001
1.29534
1.40001
1.40001
1.40001
1.40001
1.40001
1.40001
1.34112
1.41143
1.84253
1.40001
1.40001
1.40001
1.84285
1.28841
1.40001
1.40001
1.40001
1.83928
1.83873
1.40001
1.40001
1.40001
1.40001
1.40001
1.40001
1.40001
1.40001
1.40001
1.03896
1.40001
1.40001
1.83858
1.049
1.40001
1.83833
1.40001
1.0206
1.40001
1.40001
1.03493
1.40001
1.40001
1.40001
1.40001
1.40001
1.40001
1.40001
1.83352
1.84113
1.40001
1.40001
1.40001
1.40001
1.80423
1.40001
1.53669
1.01951
1.40001
1.40001
1.40001
1.40001
1.40001
1.40001
1.40001
1.42953
1.40001
1.40001
1.62246
1.40001
1.40001
1.40001
1.76333
1.40001
1.40001
1.40001
1.40001
1.04555
1.40001
1.40001
1.01101
1.04523
1.40001
1.40001
1.84119
1.40001
1.37186
1.40001
1.40001
1.40001
1.70711
1.03781
1.40001
1.03752
1.40001
1.17892
1.40001
1.40001
1.40001
1.84193
1.40001
1.40001
1.84157
1.40001
1.40001
1.40001
1.84159
1.40001
1.40001
1.84207
1.40001
1.40001
1.02023
1.40001
1.52999
1.40001
1.40001
1.8391
1.83777
1.69319
1.79459
1.40001
1.03294
1.40001
1.40001
1.82149
1.40001
1.03847
1.40001
1.40001
1.40001
1.84217
1.40001
1.40001
1.40001
1.40001
1.66506
1.40001
1.82074
1.84066
1.0587
1.40001
1.40001
0.976362
0.975033
1.40001
1.40001
1.40001
1.71133
1.73356
1.40001
1.40001
1.40001
1.40001
1.40001
1.40001
1.40001
1.59004
1.83663
1.40452
1.40001
1.83743
1.00718
1.40001
1.40001
1.40001
1.64209
1.40001
1.48842
1.40001
1.80247
1.83967
1.40001
1.03683
1.40001
1.83931
1.40001
1.40001
1.84097
1.81434
1.40001
1.83962
1.40001
1.05153
1.40001
1.40001
1.40001
1.83268
1.83345
1.78711
1.40001
1.8431
1.84123
1.40001
1.8428
1.40001
1.83978
1.40001
1.04579
1.3766
1.04509
1.40001
1.40001
1.40001
1.40001
1.40001
1.84264
1.40001
1.84244
1.40001
1.40001
1.40001
1.82052
1.40001
1.02317
1.84151
1.40001
1.0404
1.06365
1.05365
1.40001
1.61159
1.43535
1.84335
1.84125
1.40001
1.4
1.40001
1.40001
1.84174
1.40001
1.40001
1.84197
1.84131
1.40001
1.55389
1.40007
1.40001
1.39669
1.83972
1.25179
1.40001
1.21689
1.01944
1.0279
1.30097
1.84019
1.83569
1.48958
1.84201
1.84142
1.40001
1.40001
1.83734
1.83939
1.84191
1.83953
1.40001
1.84174
1.02804
1.84135
1.84071
1.83954
1.8455
1.25655
1.28302
1.3261
1.84203
1.35763
1.84275
1.40001
1.40001
1.84339
1.84201
1.40001
1.04805
1.84287
1.84169
1.40001
1.84162
1.84187
1.40001
1.84172
1.03367
1.84662
1.8364
1.83947
1.8454
1.40001
1.40001
1.40001
1.84168
1.68715
1.01762
1.84165
1.02158
1.8416
1.40001
1.40001
1.40001
1.40001
1.8399
1.8419
1.40001
1.40001
1.84183
1.02537
1.84206
1.02365
1.40001
1.83899
1.40001
1.06262
1.84304
1.12924
1.40001
1.84133
1.84464
1.84251
1.40001
1.40001
1.60928
1.84372
1.01512
1.84141
1.40001
1.84012
1.27042
1.84136
1.03467
1.40001
1.84016
1.08427
1.84337
1.02488
1.40001
1.84205
1.40001
1.8401
1.40001
1.65348
1.82505
1.74729
1.02007
1.40001
1.84128
1.40001
1.84255
1.40001
1.84183
1.40001
1.40001
1.84195
1.3786
1.84454
1.06931
1.80742
1.40001
1.7108
1.40001
1.84191
1.84182
1.84123
1.40001
1.7967
1.84258
1.80875
1.67267
1.83827
1.40001
1.69225
1.40001
1.84176
1.40001
1.46283
1.40001
1.80938
1.40001
1.84059
1.82047
1.82109
1.40001
1.83656
1.00707
1.40001
1.03898
1.40001
1.40001
1.40001
1.84052
1.40001
1.84263
1.40001
1.40001
1.40001
1.84278
1.82512
1.76478
1.84063
1.84524
1.02851
1.84299
1.83948
1.40001
1.79254
1.84183
1.81961
1.40001
1.83678
1.84146
1.40001
1.84698
1.84111
1.84172
1.84303
1.40001
1.40001
1.40001
1.84089
0.997749
1.40001
1.84192
1.40001
1.40001
1.02598
1.40001
1.40001
1.84172
1.84075
1.40001
1.84162
1.84565
1.8408
1.37829
1.842
1.40001
1.84199
1.84145
1.75952
1.40001
1.40001
1.40001
1.84204
1.84138
1.84149
1.34225
1.40001
1.84876
1.84123
1.84018
1.40001
1.84137
1.84192
1.84122
1.8492
1.40001
1.84251
1.84491
1.78354
1.84041
1.84795
1.40001
1.84079
1.83648
1.84144
1.84022
1.84022
1.02682
1.84105
1.84143
1.40001
1.84126
1.84146
1.84182
1.84239
1.40001
1.84122
1.8415
1.40001
1.84189
1.77175
1.40001
1.40001
1.40001
1.84194
1.8426
1.40001
1.40001
1.63646
1.40001
1.84051
1.40001
1.40001
1.84159
1.84394
1.8409
1.84131
1.40001
1.40001
1.40001
1.7099
1.40001
1.84213
1.40001
1.40001
1.83928
1.83621
1.40001
1.84219
1.02785
1.84154
1.84546
1.10945
1.40001
1.02105
1.78355
1.84423
1.84002
1.8396
1.03969
1.8424
1.8433
1.03693
1.00844
1.40001
1.84034
1.84166
1.40001
1.40001
1.84149
1.40001
1.84667
1.40001
1.78557
1.40001
1.60063
1.8416
1.84428
1.70685
1.8118
1.84063
1.84238
1.82242
1.40001
1.00944
1.84009
1.84201
1.84661
1.40002
1.40001
1.40001
1.84504
1.40001
1.84147
1.8412
1.15869
1.40001
1.8422
1.39994
1.40001
1.40003
1.40005
1.84179
1.84104
1.39848
1.40001
1.40001
1.84269
1.84389
1.84317
1.84634
1.8405
1.04752
1.77719
1.40001
1.83912
1.84066
1.84167
1.84535
1.40001
1.84162
1.83002
1.84305
1.40001
1.84088
1.84007
1.25098
1.84146
1.84089
1.40001
1.84191
1.22758
1.84183
1.25367
1.84169
1.40001
1.84097
1.84303
1.84196
1.84186
1.8415
1.84009
1.84232
1.83902
1.40001
1.32455
1.84152
1.84222
1.23802
1.84172
1.37637
1.68026
1.84126
1.84181
1.84209
1.40001
1.84469
1.68757
1.84185
1.31619
1.84392
1.84377
1.40001
1.2624
1.40001
1.8457
1.40001
1.70504
1.40001
1.81482
1.26856
1.40001
1.84385
1.83497
1.40001
1.83979
1.84348
1.84626
1.83169
1.83897
1.40001
1.83459
1.40001
1.40001
1.40001
1.29224
1.84312
1.84312
1.84825
1.84219
1.84618
1.84794
1.83993
1.84253
1.29916
1.43007
1.40001
1.40001
1.84306
1.84242
1.84143
1.84154
1.40003
1.63011
1.40001
1.84683
1.78751
1.40001
1.40001
1.13724
1.84137
1.40001
1.40001
1.0369
1.84163
1.40001
1.83753
1.84227
1.8403
1.82463
1.84082
1.40001
1.02474
1.50831
1.84267
1.8408
1.40001
1.84012
1.84131
1.61642
1.40887
1.50206
1.40001
1.83978
1.84163
1.40001
1.40001
1.04096
1.40001
1.40001
1.84206
1.8423
1.84467
1.84291
1.8415
1.83694
1.84232
1.8454
1.84182
1.40001
1.39616
1.84136
1.8411
1.39709
1.84167
1.84143
1.03192
1.05475
1.84459
1.85102
1.40001
1.40001
1.40086
1.84227
1.84352
1.84173
1.40001
1.84193
1.40001
1.25093
1.84733
1.83854
1.40001
1.59818
1.84224
1.40001
1.83846
1.40001
1.84262
1.69678
1.84035
1.40001
1.8418
1.84914
1.03673
1.84123
1.40001
1.83958
1.83715
1.40001
1.03553
1.83733
1.77073
1.3977
1.82729
1.84139
1.40001
1.39526
1.83745
1.39817
1.84135
1.40001
1.40001
1.84186
1.40001
1.84145
1.84121
1.39658
1.75343
1.40001
1.84134
1.40001
1.40001
1.40001
1.40001
1.84145
1.40001
1.40001
1.83465
1.40001
1.84114
1.40001
1.67925
1.84675
1.84323
1.40001
1.40001
1.39681
1.40001
1.84107
1.84174
1.84017
1.84154
1.84235
1.84202
1.84113
1.40001
1.84244
1.84364
1.40001
1.84142
1.84239
1.40001
1.84195
1.32249
1.45669
1.84229
1.84217
1.84132
1.40001
1.84139
1.40001
1.84167
1.84204
1.40001
1.84254
1.40001
1.40001
1.40001
1.40001
1.84228
1.0281
1.3979
1.40001
1.84152
1.84605
1.40001
1.84145
1.40001
1.40524
1.03779
1.84151
1.39957
1.40001
1.84148
1.39842
1.84133
1.40001
1.39977
1.40001
1.83939
1.84097
1.84287
1.84239
1.03051
1.84061
1.84026
1.84109
1.51032
1.40001
1.40001
1.59201
1.84159
1.02251
1.04718
1.40001
1.84042
1.84163
1.84542
1.40001
1.40001
1.8417
1.84332
1.39987
1.40001
1.72091
1.03462
1.40001
1.47997
1.8348
1.84287
1.39825
1.84156
1.84957
1.40001
1.39913
1.40001
1.84303
1.83978
1.58333
1.40001
1.8061
1.40001
1.40131
1.84274
1.02328
1.84014
1.84149
1.397
1.39992
1.79385
1.40001
1.3997
1.40001
1.84257
1.40001
1.40002
1.02275
1.84146
1.40001
1.40001
1.40001
1.40001
1.84032
1.65329
1.40001
1.40001
1.03922
1.84201
1.65383
1.40001
1.40001
1.40001
1.82161
1.82252
1.84398
1.40001
1.40001
1.84605
1.40001
1.84195
1.84137
1.40001
1.40001
1.84344
1.84176
1.8214
1.40001
1.40001
1.84353
1.84331
1.40001
1.40001
1.40001
1.84461
1.40001
1.40001
1.40001
1.84265
1.84467
1.84404
1.40001
1.83781
1.40004
1.09801
1.84044
1.84162
1.40001
1.83947
1.8165
1.83871
1.40001
1.40001
1.84679
1.40001
1.62889
1.84112
1.40001
1.03944
1.40001
1.84376
1.40001
1.40001
1.84083
1.40001
1.40001
1.40001
1.53759
1.84073
1.0775
1.40002
1.84301
1.40001
1.40001
1.84207
1.40001
1.84637
1.40001
1.40001
1.84187
1.84275
1.40001
1.40006
1.40001
1.40001
1.40001
1.40001
1.40001
1.40001
1.8472
1.84142
1.40001
1.83786
1.02349
1.84594
1.40001
1.84215
1.84747
1.84134
1.84619
1.83999
1.40001
1.40001
1.84068
1.40001
1.67219
1.8441
1.84145
1.40001
1.84289
1.83697
1.40001
1.79564
1.40001
1.84189
1.68271
1.84075
1.39754
1.82799
1.79937
1.84005
1.84222
1.43559
1.84162
1.84479
1.40001
1.84145
1.40001
1.84186
1.40001
1.40001
1.40001
1.40001
1.3968
1.84162
1.84143
1.75989
1.40001
1.84454
1.40001
1.40001
1.40001
0.981309
1.40001
1.83275
1.40001
1.80203
1.83911
1.40001
1.40001
1.40001
1.8258
1.83923
1.40001
1.40001
1.84066
1.0398
1.47387
1.40001
1.84569
1.84221
1.80351
1.83143
1.84229
1.40001
1.84225
1.40001
1.40001
1.40001
1.40001
1.84326
1.84212
1.40001
1.82947
1.44688
1.84215
1.81243
1.40001
1.40001
1.81408
1.40001
1.40001
1.03017
1.7124
1.40001
1.40001
1.84719
1.40001
1.84507
1.80443
1.40001
1.80313
1.03624
1.84253
1.84245
1.84197
1.40001
1.0307
1.40001
1.40001
1.40001
1.84188
1.75598
1.40001
1.84677
1.84287
1.40001
1.84155
1.40001
1.40001
1.40001
1.40001
1.84291
1.39937
1.40001
1.84358
1.40001
1.40001
1.84503
1.84145
1.40001
1.84435
1.48818
1.40003
1.40001
1.84161
1.40001
1.84136
1.40001
1.41408
1.84183
1.40001
1.84135
1.40001
1.40001
1.52855
1.84115
1.40001
1.40001
1.40001
1.40001
1.40001
1.39673
1.0147
1.02975
1.42057
1.40001
1.42035
1.40001
1.42046
1.40001
1.84189
1.40001
1.67855
1.40001
1.84149
1.40001
1.40001
1.40001
1.84162
1.40001
1.75899
1.84215
1.40001
1.62714
1.84215
1.40001
1.40001
1.84109
1.84225
1.40001
1.40001
1.44465
1.02119
1.40001
1.84353
1.40001
1.40001
1.40001
1.40001
1.47416
1.84147
1.40001
1.40001
1.40001
1.04086
1.40001
1.84193
1.84111
1.84944
1.40001
1.40001
1.40001
1.40001
1.62564
1.84945
1.40001
1.40001
1.40001
1.8423
1.84157
1.44382
1.40001
1.40001
1.40001
1.84231
1.84174
1.40001
1.03765
1.84167
1.84234
1.84251
1.84212
1.84191
1.40001
1.40001
1.84852
1.84005
1.84182
1.03206
1.44009
1.84209
1.40001
1.40001
1.40001
1.40001
1.40001
1.8421
1.04783
1.40001
1.40001
1.8417
1.60215
1.40001
1.84824
1.40001
1.40001
1.40001
1.03607
1.40001
1.40001
1.51803
1.84124
1.84199
1.40001
1.84202
1.84844
1.40001
1.47058
1.40001
1.85004
1.40001
1.84074
1.04376
1.40001
1.40001
1.40001
1.40001
1.84144
1.40006
1.40001
1.40001
1.40001
1.82535
1.40001
1.40001
1.40001
1.40001
1.84137
1.0301
1.74668
1.84449
1.40001
1.84224
1.40001
1.40001
1.40001
1.39723
1.40001
1.84382
1.40001
1.19749
1.40001
1.40001
1.40004
1.84352
1.04974
1.40001
1.84445
1.40001
1.84352
1.84194
1.04345
1.40001
1.40001
1.82528
1.40001
1.40001
1.04732
1.40001
1.83682
1.40001
1.82287
1.39933
1.84008
1.40001
1.40001
1.40001
1.40001
1.83693
1.40001
1.40001
1.84163
1.40001
1.40001
1.40001
1.40001
1.40001
1.40001
1.40001
1.40001
1.69493
1.40001
1.54027
1.84009
1.40001
1.40001
1.40001
1.00966
1.40001
1.40001
1.40001
1.40001
1.84638
1.84149
1.44555
1.40001
1.40001
1.84282
1.40001
1.40001
1.84057
1.40001
1.40002
1.40001
1.40001
1.40001
1.40002
1.84238
1.18016
1.84102
1.84369
1.39681
1.40001
1.40001
1.40001
1.66034
1.40001
1.40001
1.84275
1.84191
1.40001
1.40001
1.40001
1.40001
1.04299
1.40001
1.40001
1.40001
1.67728
1.40001
1.84129
1.84482
1.40001
1.84298
1.40001
1.40001
1.40001
1.6357
1.40001
1.83966
1.40001
1.84215
1.40001
1.40001
1.3961
1.84142
1.40001
1.40001
1.40001
1.40001
1.40001
1.84463
1.40003
1.40001
1.03076
1.84248
1.02642
1.40001
1.84107
1.40001
1.39601
1.40001
1.84276
1.84575
1.40001
1.83831
1.26997
1.8422
1.84171
1.40004
1.40001
1.40001
1.0226
1.40001
1.40001
1.40001
1.84331
1.6578
1.84472
1.40001
1.40001
1.40001
1.40001
1.39673
1.83895
1.40001
1.03505
1.40001
1.40001
1.40001
1.40001
1.40001
1.40001
1.40001
1.84722
1.84143
1.84704
1.40001
1.40001
1.39692
1.40001
1.37882
1.40001
1.40001
1.40001
1.02399
1.37782
1.40001
1.0537
1.01078
1.40001
1.84199
1.84162
1.40001
1.83763
1.84153
1.02237
1.69237
1.40001
1.40001
1.40001
1.03969
1.84174
1.40001
1.02915
1.40001
1.84963
1.47882
1.40001
1.40001
1.40001
1.40001
1.84122
1.84368
1.40001
1.40001
1.84183
1.40001
1.40001
1.83449
1.84229
1.40001
1.80871
1.84137
1.83645
1.35594
1.83982
1.40885
1.02689
1.73772
1.84233
1.40001
1.40001
1.40001
1.03994
1.40001
1.00988
1.84137
1.35354
1.84192
1.34914
1.40001
1.83998
1.59876
1.40001
1.40001
1.84094
1.40001
1.576
1.84404
1.40001
1.40001
1.83841
1.84752
1.01923
1.67759
1.39989
1.40001
1.67124
1.40001
1.84551
1.34017
1.84675
1.84704
1.40001
1.40001
1.40001
1.40001
1.83685
1.40001
1.40001
1.84218
1.39963
1.8416
1.75319
1.84378
1.03028
1.40001
1.40001
1.40001
1.40001
1.84165
1.40005
1.84152
1.40001
1.84187
1.84293
1.45507
1.83897
1.5253
1.84186
1.40001
1.70581
1.06977
1.84155
1.84175
1.75527
1.4777
1.84419
1.84189
1.84127
1.84027
1.40001
1.30291
1.46428
1.40001
1.84159
1.61528
1.84107
1.40004
1.40001
1.40001
1.08791
1.84482
1.84425
1.75718
1.40001
1.56808
1.40001
1.84156
1.84279
1.40001
1.8399
1.84361
1.40001
1.40001
1.40001
1.8386
1.40001
1.57344
1.8462
1.70405
1.40001
1.84095
1.40001
1.40001
1.40001
1.40001
1.40001
1.40001
1.40001
1.40001
1.40001
1.40001
1.08215
1.40001
1.82439
1.02909
1.65769
1.39855
1.84171
1.40001
1.62691
1.40002
1.6829
1.77708
1.40001
1.40173
1.85044
1.30039
1.40001
1.83774
1.82361
1.33999
1.40001
1.84416
1.84183
1.84395
1.40001
1.84127
1.8432
1.84022
1.40001
1.59602
1.40001
1.40006
1.84139
1.40001
1.84195
1.46519
1.84009
1.40001
1.40001
1.84072
1.83935
1.07554
1.40001
1.84104
1.73399
1.84052
1.40001
1.40001
1.84212
1.84079
1.39826
1.40001
1.78713
1.3969
1.84184
1.40007
1.40001
1.40001
1.40001
1.40001
1.60414
1.40001
1.73557
1.84187
1.73197
1.84397
1.40001
1.4035
1.40001
1.40001
1.83465
1.40001
1.83931
1.40001
1.40001
1.40001
1.40001
1.4
1.40001
1.45743
1.63098
1.40001
1.40001
1.01291
1.40001
1.84539
1.07897
1.84232
1.40001
1.62749
1.39975
1.84067
1.68487
1.03662
1.64251
1.40004
1.84153
1.84207
1.40001
1.66794
1.84074
1.84086
1.39841
1.83982
1.83105
1.03369
1.40001
1.40001
1.39812
1.40001
1.83655
1.40001
1.0344
1.84354
1.40001
1.40001
1.79729
1.40001
1.84248
1.40001
1.84252
1.40001
1.05644
1.40001
1.40001
1.84481
1.84936
1.84113
1.40001
1.84088
1.84165
1.84884
1.40001
1.40001
1.82444
1.4
1.12083
1.40001
1.40001
1.40001
1.84239
1.40001
1.84158
1.6902
1.84266
1.40001
1.84131
1.39939
1.40001
1.40001
1.40001
1.40001
1.40001
1.40001
1.08543
1.40001
1.40001
1.84133
1.40001
1.84675
1.84565
1.40001
1.04649
1.03119
1.40001
1.84308
1.47259
1.03521
1.00218
1.40001
1.84034
1.40001
1.84194
1.04977
1.40117
1.40001
1.40001
1.3995
1.40001
1.40001
1.40001
1.39991
1.57896
1.84186
1.40001
1.40001
1.84261
1.669
1.40001
1.796
1.84084
1.8429
1.57934
1.84392
1.40001
1.84284
1.40001
1.84097
1.40001
1.84705
1.84211
1.39684
1.843
1.84207
1.40001
1.40001
1.40001
1.40001
1.40001
1.32051
1.84441
1.40005
1.40003
0.997206
1.39999
1.0178
0.998703
1.40001
1.84198
1.84163
1.841
1.40001
1.84173
1.40001
1.03021
1.40001
1.40001
1.83918
1.23572
1.84422
1.40001
1.84427
1.40001
1.38036
1.84113
1.40001
1.40001
1.40001
1.8441
1.40001
1.84152
1.01944
1.40001
1.40001
1.65809
1.40001
1.40001
1.6408
1.40001
1.40001
1.84243
1.40001
1.40001
1.40001
1.40001
1.40001
1.84794
1.84159
1.40001
1.83997
1.8402
1.04024
1.60271
1.84068
1.40001
1.40001
1.79938
1.39895
1.40001
1.40001
1.8415
1.843
1.68948
1.40001
1.84275
1.06753
1.80993
1.39933
1.40001
1.84288
1.40004
1.8429
1.77929
1.73636
1.40001
1.40001
1.84169
1.11636
1.03032
1.40001
1.84195
1.40001
1.84139
1.40001
1.65924
1.40001
1.40001
1.84099
1.68203
1.02779
1.40001
1.39868
1.40001
1.40001
1.42663
1.57646
1.84172
1.40001
1.84575
1.40001
1.40001
1.40001
1.40001
1.40001
1.40001
1.46603
1.03396
1.40001
1.40001
1.42127
1.40001
1.40001
1.40001
1.40001
1.40001
1.84062
1.40001
1.40001
1.84176
1.84201
1.71686
1.40001
1.40001
1.40001
1.21812
1.84352
1.70453
1.40001
1.40001
1.40001
1.40001
1.84101
1.40001
1.40001
1.40001
1.84238
1.40001
1.40001
1.71934
1.85073
1.43175
1.13517
1.84025
1.70776
1.84125
1.40001
1.62643
1.40001
1.40001
1.40001
1.00496
1.403
1.02189
1.40001
1.04346
1.03227
1.40001
1.03168
1.40001
1.40001
1.40001
1.5982
1.40001
1.84282
1.84058
1.40141
1.61121
1.77826
1.02803
1.16036
1.26654
1.40001
1.84167
1.83883
1.84142
1.84135
1.78049
1.25621
1.40001
1.78146
1.40001
1.82341
1.40001
1.40001
1.39639
1.41012
1.40001
1.40001
1.40001
1.84084
1.40001
1.0122
1.40001
1.84299
1.02933
1.40001
1.40001
1.84151
1.40001
1.84243
1.40032
1.40001
1.40001
1.84212
1.78562
1.40001
1.85223
1.40001
1.40001
1.41467
1.40001
1.59587
1.40001
1.40001
1.03438
1.40001
1.40001
1.84071
1.4
1.8414
1.40001
1.40004
1.02472
1.40001
1.40001
0.99178
1.40082
1.40001
1.84045
1.02343
1.84041
1.04974
1.84135
1.40001
1.40001
1.40001
1.40001
1.40001
1.40001
1.40001
1.40001
1.40001
1.40001
1.40001
1.82316
1.40001
1.84376
1.83608
1.0464
1.40001
1.40001
1.40001
1.40001
1.40001
1.40001
1.82981
1.40001
1.40001
1.03311
1.40001
1.40001
1.83976
1.40001
1.40001
1.57315
1.77076
1.04479
1.03537
1.07584
1.12304
1.40001
1.39643
0.988178
1.40023
1.80974
1.39686
1.40001
1.40001
1.84065
1.40001
1.40001
1.40001
1.1613
1.40002
1.56255
1.40001
1.40001
1.58178
1.84177
1.40001
1.01962
1.40001
1.40001
1.40001
1.39629
1.40001
1.84319
1.84151
1.40001
1.04938
1.40001
1.63638
1.05473
1.40001
1.275
1.40001
1.39672
1.02311
1.40001
1.40001
1.40001
1.39525
1.0449
1.40001
1.04047
1.39844
1.62986
1.80252
1.0407
1.04621
1.40001
1.39057
1.40001
1.39861
1.40001
1.84256
1.8412
1.40001
1.41075
1.84208
1.84093
1.40001
1.40001
1.84169
1.40001
1.40001
1.40005
1.40001
1.84329
1.40001
1.40001
1.41807
1.40001
1.39856
1.0891
1.40001
1.40001
1.40001
1.40001
1.40001
1.84612
1.42186
1.40006
1.40001
1.40001
1.40001
1.40001
1.40001
1.40004
1.40001
1.04472
1.49534
1.39856
1.83308
1.84117
1.40001
1.41499
1.84227
1.78948
1.40001
1.40001
1.06146
1.8415
1.40001
1.83688
1.40001
1.84246
1.70451
1.04789
1.40001
1.05775
1.81047
1.39968
1.40001
1.03291
1.0381
1.40001
1.40001
1.77124
1.40001
1.4
1.04036
1.40001
1.40001
1.40001
1.54598
1.40001
1.04565
1.84321
1.40001
1.40001
1.40001
1.40001
1.84221
1.40001
1.40001
1.84456
1.79623
1.40001
1.40001
1.40001
1.83948
1.06012
1.40001
1.84194
1.84138
1.40001
1.75516
1.4
1.40003
1.40001
1.40001
1.8074
1.4166
1.40001
1.02806
1.6375
1.40001
1.40001
1.39713
1.40001
1.40001
1.84302
1.40001
1.40001
1.40004
1.40001
1.84364
1.40001
1.40001
1.40001
1.40001
1.40001
1.40001
1.40002
1.59754
1.40001
1.83942
1.40001
1.40001
1.84331
1.40001
1.40001
1.40001
1.84158
1.83846
1.44421
1.40001
1.39753
1.40001
1.40001
1.40001
1.40001
1.83805
1.40001
1.40001
1.84219
1.02578
1.40001
1.40001
1.40001
1.40001
1.40001
1.40001
1.75915
1.40001
1.40001
1.84624
1.84283
1.40001
1.40001
1.40001
1.84251
1.84483
1.40001
1.39968
1.83976
1.40001
1.40001
1.40001
1.40002
1.01633
1.4302
1.39584
1.39571
1.40001
1.40001
1.01738
1.84273
1.40001
1.11097
1.40001
1.83989
1.82303
1.04848
1.39941
1.84178
1.84345
1.84083
1.40001
1.40001
1.31219
1.79095
1.76299
1.08335
1.40001
1.40001
1.40001
1.84313
1.84179
1.02246
1.39722
1.40001
1.842
1.00853
1.40001
1.84578
1.03515
1.37444
1.40633
1.40001
1.84976
1.40001
1.40001
1.40001
1.40001
1.40001
1.40001
1.40011
1.81236
1.40001
1.40001
1.84674
1.40001
1.40001
1.40001
1.84192
1.40001
1.04542
1.40001
1.40001
1.40001
1.55447
1.40001
1.40001
1.40001
1.40001
1.40001
1.17103
1.40001
1.01005
1.40001
1.84147
1.40008
1.26221
1.2605
1.40002
1.40514
1.62911
1.40001
1.40001
1.03643
1.84187
1.84141
1.84212
1.40001
1.01976
1.04917
1.40001
1.84194
1.40001
1.40001
1.40001
1.40001
1.40001
1.40004
1.40001
1.03824
1.68537
1.40001
1.40001
1.02218
1.37926
1.40001
1.40001
1.40001
1.40001
1.01529
1.40001
1.05341
1.40001
1.40001
1.84921
1.40001
1.40001
1.04132
1.40001
1.84195
1.40001
1.02138
1.40001
1.04464
1.40001
1.40816
1.84149
1.8512
1.40001
1.40001
1.84028
1.40001
1.40001
1.49741
1.39704
1.40001
1.39826
1.40001
1.84332
1.40001
1.03583
1.40002
1.83984
1.39906
1.40001
1.40001
1.18615
1.40001
1.39906
1.03447
1.83927
1.56134
1.40001
1.40001
1.306
1.40001
1.40001
1.40001
1.18566
1.40001
1.40001
1.40001
1.84129
1.40001
1.04986
1.4
1.40001
1.40001
1.40001
1.02945
1.84174
1.80151
1.03542
1.40001
1.83472
1.40001
1.40001
1.84137
1.84106
1.77342
1.02792
1.39772
1.39925
1.40001
1.84146
1.40001
1.40001
1.40001
1.40001
1.83992
1.40004
1.40001
1.40001
1.83973
1.40001
1.40001
1.84163
1.0279
1.40001
1.40001
1.40001
1.0354
1.40001
1.4
1.4
1.39865
1.40001
1.40001
1.40001
1.40001
1.74672
1.40001
1.83893
1.83854
1.84854
1.841
1.84082
1.84189
1.40001
1.83984
1.40001
1.84183
1.84174
1.40001
1.39889
1.03716
1.77884
1.39989
1.40001
1.40001
1.40001
1.40001
1.40037
1.40001
1.47262
1.40001
1.40001
1.40001
1.22429
1.84169
1.84103
1.83843
1.78642
1.39988
1.40001
1.42322
1.84074
1.39796
1.44958
1.39745
1.05521
1.40001
1.40003
1.40001
1.40001
1.40001
1.40001
1.40001
1.84248
1.04554
1.84217
1.84164
1.39568
1.03589
1.40001
1.40001
1.40001
1.84098
1.05189
1.7885
1.02941
1.84179
1.83581
1.04326
1.84525
1.42187
1.40001
1.84449
1.2099
1.40001
1.3988
1.007
1.40001
1.03416
1.40001
1.84193
1.84298
1.14068
1.40001
1.84113
1.05228
1.40001
1.03999
1.40001
1.84128
1.40001
1.40001
1.84601
1.40001
1.22162
1.40001
1.39964
1.03324
1.84388
1.39947
1.40001
1.01462
1.40001
1.40001
1.40001
1.40001
1.63368
1.40001
1.84254
1.40001
1.40001
1.84569
1.40001
1.40001
1.84288
1.40001
1.02469
1.40001
1.04525
1.40002
1.40001
1.40001
1.40001
1.40001
1.82227
1.66172
1.84199
1.40001
1.84157
1.81104
1.03312
1.00987
1.40001
1.40001
1.84565
1.40001
1.0209
1.40001
1.38303
1.40001
1.40001
1.84151
1.40001
1.84101
1.01381
1.84909
1.40001
1.01818
1.40001
1.40001
1.84337
1.8407
1.40001
1.40005
1.40001
1.84935
1.40001
1.40001
0.979965
1.39945
0.996148
1.40001
1.40001
1.40001
1.84324
1.83812
1.83812
1.40001
1.40001
1.08756
1.40001
1.84597
1.40001
1.40001
1.40001
1.819
1.84226
1.84104
1.0797
1.84441
1.84155
1.03226
1.84218
1.40005
1.03827
1.40591
1.40001
1.40001
1.84191
1.08799
1.68643
1.07889
1.84169
1.39722
1.02608
1.8436
1.40001
1.40001
1.40001
1.40001
1.84108
1.84011
1.04554
1.40001
1.40003
1.02807
1.40004
1.40001
1.04498
1.02806
1.70835
1.84132
1.39847
1.8415
1.40001
1.83809
1.22619
1.02259
1.84164
1.85272
1.40001
1.84114
1.40001
1.40001
1.84196
1.40001
1.73237
1.83988
1.40001
1.40001
1.40001
1.40001
1.84077
1.83735
1.84276
1.40001
1.40001
1.84009
1.83772
1.84272
1.40001
1.84111
1.40001
1.40001
1.40001
1.40001
1.40001
1.04927
1.23804
1.01471
1.40001
1.40001
1.84152
1.40001
1.40001
1.84123
1.01723
1.40001
1.84174
1.83749
1.82153
1.03128
1.40001
1.08967
1.40001
1.40003
1.83815
1.62135
1.83783
1.80362
1.40001
1.03991
1.40001
1.84084
1.71716
1.03888
1.40001
1.40001
1.40001
1.18626
1.40001
1.40001
1.84633
1.40001
1.03813
1.8417
1.40001
1.40001
1.40001
1.40001
1.40001
1.7563
1.49826
1.40001
1.83907
1.40001
1.84333
1.40001
1.39756
1.40001
1.84196
1.84766
1.84319
1.84355
1.39961
1.83831
1.40001
1.84174
1.84068
1.77378
1.40001
1.40001
1.02271
1.84384
1.40001
1.40001
1.84327
1.84071
1.84215
1.40001
1.84129
1.40001
1.40001
1.40003
1.84666
1.83785
1.52351
1.49917
1.84228
1.84014
1.06074
1.40001
1.40001
1.40001
1.40001
1.40001
1.5545
1.40001
1.40001
1.77271
0.993132
1.39998
1.40001
1.84199
1.39987
1.39982
1.46312
1.81537
1.84278
1.30393
1.40001
1.01116
1.40001
1.3966
1.84146
1.84434
1.84489
1.39905
1.40001
1.40001
1.03715
1.40001
1.40001
1.84141
1.44741
1.40001
1.40001
1.40001
1.40001
1.40001
1.40001
1.40001
1.39995
1.84129
1.40002
1.40001
1.40001
1.40001
1.40001
1.6855
1.40001
1.60958
1.40001
1.40001
1.84178
1.84448
1.01242
1.3988
1.40001
1.4
1.40001
1.04652
1.83879
1.84126
1.40001
1.40001
1.40001
1.40001
1.40001
1.40001
1.40001
1.40001
1.84243
1.83877
1.02525
1.44976
1.0378
1.40001
1.02555
1.40001
1.84249
1.5171
1.40001
1.40001
1.10261
1.40001
1.82335
1.21219
1.39667
1.02947
1.40001
1.40001
1.83903
1.40005
1.39713
1.0167
1.84162
1.84304
1.40001
1.40001
1.40001
1.40001
1.81402
1.40001
1.40001
1.84178
1.39904
1.84113
1.40003
1.40001
1.40001
1.02601
1.40001
1.40001
1.84096
1.01701
1.18021
1.04349
1.84216
1.39938
1.40001
1.84583
1.04261
1.03939
1.40541
1.40001
1.40001
1.84022
1.40004
1.59285
1.40001
1.40001
1.83695
1.0354
1.40001
1.40001
1.40015
1.84022
1.40008
1.82466
1.40001
1.40004
1.40001
1.40001
1.13836
1.40001
1.17985
1.40002
1.40001
1.84568
1.01957
1.40001
1.16786
1.19691
1.40001
1.40001
1.84153
1.40001
1.40001
1.40001
1.84117
1.84106
1.40005
1.82661
1.84009
1.17585
1.84134
1.81827
1.40001
1.40001
1.84085
1.4
1.40001
1.40001
1.40001
1.40001
1.8501
1.84222
1.40001