/*--------------------------------*- C++ -*----------------------------------*\
  =========                 |
  \\      /  F ield         | OpenFOAM: The Open Source CFD Toolbox
   \\    /   O peration     | Website:  https://openfoam.org
    \\  /    A nd           | Version:  12
     \\/     M anipulation  |
\*---------------------------------------------------------------------------*/
FoamFile
{
    format      ascii;
    class       surfaceScalarField;
    location    "0.275";
    object      phi;
}
// * * * * * * * * * * * * * * * * * * * * * * * * * * * * * * * * * * * * * //

dimensions      [1 0 -1 0 0 0 0];

internalField   nonuniform List<scalar> 
275392
(
-7.16542e-05
1.94867e-05
5.18878e-05
8.80768e-06
4.71312e-05
-5.59096e-05
3.5111e-05
2.96499e-05
-6.47609e-05
6.59918e-05
-6.03074e-05
-5.68233e-06
5.77026e-05
-7.20639e-05
1.43613e-05
6.47351e-05
-6.66027e-05
1.86761e-06
-3.58838e-05
-2.84005e-05
6.42843e-05
-6.88696e-05
6.88696e-05
4.35346e-05
1.85602e-05
-6.20947e-05
2.58889e-05
-6.17727e-05
-6.74583e-05
-5.82864e-06
7.311e-05
6.16522e-05
1.43837e-07
-6.18497e-05
-6.68997e-05
-4.98995e-07
6.06522e-05
-6.44131e-05
3.76097e-06
-5.85785e-05
6.05878e-05
-2.00929e-06
-6.45806e-05
6.0021e-06
-6.16053e-05
-2.97529e-06
6.74828e-05
-6.00841e-05
-7.512e-06
7.74993e-05
-4.62394e-05
-3.12599e-05
-6.31766e-05
1.57137e-06
-6.71566e-05
6.58428e-05
1.31377e-06
-7.151e-05
1.76714e-05
5.38386e-05
-6.86702e-06
-6.4966e-05
6.67315e-05
-5.99051e-05
-6.82643e-06
3.77772e-05
2.95082e-05
-6.72854e-05
6.68839e-05
-6.41331e-05
-2.3987e-06
-2.1909e-05
5.96862e-05
-3.65793e-05
6.55479e-05
-2.89685e-05
3.64505e-05
2.26302e-05
-5.90808e-05
6.59201e-05
8.11443e-07
6.97841e-05
-8.08867e-06
-6.16954e-05
6.59201e-05
-2.35136e-18
-6.64244e-05
-2.13096e-07
-6.60489e-05
6.73627e-05
-1.31377e-06
-6.57367e-05
-5.62524e-07
6.46215e-05
-3.05219e-06
4.03918e-05
2.38023e-05
-6.41942e-05
6.15924e-05
-6.3241e-05
1.64865e-06
-4.03532e-05
7.10077e-05
-3.06545e-05
-2.0724e-05
6.11158e-05
-2.66956e-07
5.71147e-05
-5.67761e-05
6.85863e-05
-6.98872e-05
1.30089e-06
-6.12189e-05
6.16439e-05
-4.25042e-07
6.54307e-05
-6.73111e-05
1.88049e-06
6.51731e-05
-6.51731e-05
9.06756e-06
5.95187e-05
6.22596e-05
-6.12678e-05
-9.62182e-07
-7.70227e-06
6.1528e-05
-5.38257e-05
6.72339e-06
6.30607e-05
6.77619e-05
-5.86944e-05
6.77619e-05
-7.14328e-05
1.83541e-05
5.30787e-05
4.88154e-06
-6.05749e-05
5.56933e-05
-2.77436e-05
6.28546e-05
2.56313e-06
-6.24682e-05
-6.62035e-06
-6.48897e-05
6.79294e-05
-4.73986e-06
-6.31895e-05
6.46339e-05
-6.42544e-05
-3.97437e-07
7.57028e-05
-7.7285e-05
1.54321e-06
-1.08225e-06
-6.507e-05
6.6899e-05
-1.82897e-06
2.74989e-06
5.21706e-05
-5.49205e-05
-6.69003e-05
3.03209e-05
6.94628e-05
-6.46322e-05
-4.78319e-06
6.61648e-05
-1.21201e-05
-5.40447e-05
-6.51676e-05
2.76436e-06
6.23578e-05
6.48639e-05
-6.48639e-05
6.48277e-05
-6.48808e-05
-6.40138e-06
5.38901e-05
-4.74887e-05
-4.68963e-05
4.04949e-05
6.7324e-05
-6.59072e-05
-1.41681e-06
-6.07781e-05
5.95349e-05
1.19519e-06
-6.19433e-05
1.31812e-06
-3.34881e-06
-5.2834e-05
5.61828e-05
6.60851e-05
-6.39586e-05
-2.41463e-06
-6.56113e-05
4.41276e-07
6.05362e-06
5.83595e-05
-6.44131e-05
6.49155e-06
6.14378e-05
6.15005e-05
-6.88636e-05
7.41677e-06
-6.43837e-05
6.36912e-05
7.21842e-07
-6.3123e-05
-1.27323e-06
-6.06135e-05
6.4104e-05
-3.49049e-06
-7.22056e-05
2.01315e-05
5.2074e-05
-7.35451e-06
-6.40782e-05
6.68732e-05
-2.13809e-06
-6.32926e-05
2.67905e-06
-6.11802e-06
6.38206e-05
-5.59896e-05
5.96733e-05
-3.68369e-06
3.00033e-06
5.17312e-05
-5.50191e-05
-1.70017e-06
-5.87094e-05
7.03803e-05
-1.17164e-05
-6.8948e-05
9.70644e-06
6.46321e-05
-2.10975e-05
6.79938e-05
-6.49541e-05
-3.03969e-06
-6.31638e-05
1.06518e-05
5.2512e-05
6.90757e-05
-3.26252e-05
6.4645e-05
-6.4645e-05
6.28675e-05
-2.21537e-06
-2.01105e-05
-4.68974e-05
6.70526e-05
-4.32887e-05
5.21551e-05
-6.46579e-05
2.71769e-06
6.19402e-05
1.04328e-06
-6.81999e-05
-5.2497e-05
6.33665e-05
-1.127e-05
-6.11545e-05
6.40654e-05
-2.91089e-06
5.64069e-05
-5.67249e-05
7.44725e-05
-7.44725e-05
-6.507e-05
4.12162e-07
-6.43873e-05
1.1471e-05
6.29017e-05
-6.27036e-05
-1.3075e-07
6.74271e-05
-6.74271e-05
-1.88049e-06
-6.12962e-05
4.42301e-06
5.05516e-05
-5.49746e-05
5.53842e-07
-5.66336e-05
5.60797e-05
2.74352e-06
-5.64304e-05
5.32392e-05
6.62936e-05
-6.62936e-05
6.83931e-05
-2.12392e-05
-4.71539e-05
7.1577e-05
-4.09109e-05
-3.06661e-05
5.55959e-05
-3.99171e-05
-2.45431e-05
6.36334e-05
-6.34729e-05
6.57784e-05
-2.30553e-06
6.11931e-05
-6.11931e-05
-1.15663e-05
-6.06393e-05
-6.57299e-05
6.48458e-05
8.36871e-07
-5.59146e-05
6.68518e-05
-9.83558e-06
-6.89461e-05
1.32013e-05
5.93608e-05
-6.68573e-05
7.48368e-06
-6.07552e-05
2.35705e-06
5.83981e-05
-5.6397e-05
5.87321e-05
3.82537e-05
-6.28418e-05
2.4588e-05
6.32024e-05
-5.88618e-06
-5.73162e-05
6.59749e-05
-6.32857e-05
-2.38198e-06
-6.16053e-05
6.7002e-05
-5.39674e-06
2.70481e-07
-6.14894e-05
-3.96577e-05
-2.22438e-05
6.19015e-05
-6.346e-05
1.85473e-06
-6.86045e-05
6.64979e-05
1.92078e-06
-6.47995e-05
3.31017e-06
6.14894e-05
-6.0781e-05
-2.67905e-06
6.72804e-05
-6.16186e-05
-5.63654e-06
-6.30092e-05
2.22825e-06
-6.28522e-05
1.59758e-05
-5.71852e-05
7.11425e-05
-1.32953e-05
-6.96367e-05
1.46157e-05
5.71688e-05
-5.81286e-05
-1.96405e-08
5.55692e-05
9.87749e-07
5.99343e-05
-6.06929e-05
8.32166e-07
-6.4645e-05
-1.54561e-07
6.84317e-05
-2.59147e-05
-4.2517e-05
-7.13454e-05
4.69839e-05
2.43615e-05
6.69119e-05
-1.73881e-06
3.83053e-05
2.44721e-05
-6.27774e-05
-5.59516e-05
6.66167e-05
-1.41226e-05
-7.10124e-05
1.4064e-05
5.2293e-06
6.20947e-05
7.19222e-05
-7.19222e-05
8.50429e-07
6.1455e-05
5.56082e-05
4.31357e-06
5.7986e-05
-5.74321e-05
-4.38295e-05
4.65794e-05
2.40471e-05
7.3764e-05
-7.3764e-05
6.14765e-05
-6.31766e-05
1.70017e-06
3.73779e-05
-6.19402e-05
2.45623e-05
-4.58715e-05
-2.54905e-05
7.81819e-06
6.05749e-05
-6.05878e-05
6.28289e-05
-2.24113e-06
-6.33698e-06
5.37613e-05
-4.74243e-05
-6.15409e-05
6.50056e-05
-3.46473e-06
6.26929e-05
1.03359e-06
-1.57759e-06
6.32034e-05
-6.48831e-05
1.78842e-06
6.05613e-05
7.07525e-06
6.41555e-05
-6.41266e-05
5.63271e-05
-5.54363e-05
-9.28216e-07
6.43264e-05
-6.43509e-05
5.748e-05
-1.0606e-06
3.62058e-05
2.68034e-05
-6.30092e-05
6.45291e-05
-6.38464e-05
-6.82643e-07
6.44775e-05
-6.64739e-05
1.99641e-06
-6.18629e-05
9.26076e-06
5.26021e-05
-4.2955e-05
4.7378e-05
-4.81714e-06
-5.77155e-05
6.25326e-05
3.67339e-05
2.54252e-05
-6.21591e-05
6.70535e-05
-2.18961e-06
-6.32024e-05
-5.66722e-06
6.47867e-05
-6.46192e-05
-1.67441e-07
-6.15564e-05
-3.03827e-06
5.75609e-05
-5.15073e-05
-2.83361e-06
-5.05413e-05
5.33749e-05
6.21479e-05
-5.7335e-07
-1.72593e-06
-5.42637e-05
-5.71359e-05
1.0948e-06
5.60411e-05
6.48382e-05
-6.48382e-05
5.81405e-05
-1.98353e-06
-5.6157e-05
6.29963e-05
-2.92377e-06
-6.00726e-05
2.88371e-05
3.72071e-05
-4.31134e-05
-2.10769e-05
6.41903e-05
-4.55954e-06
-5.86042e-05
1.65895e-05
-5.62472e-05
-2.48585e-06
-5.08762e-05
5.3362e-05
-5.74075e-05
-1.77403e-06
5.91896e-05
6.29963e-05
6.11416e-05
-5.53842e-07
6.03688e-05
-6.53276e-05
4.95882e-06
1.28672e-05
5.32976e-05
5.69612e-05
-5.68969e-05
3.94875e-07
6.4533e-05
6.13168e-08
5.86207e-05
-1.31176e-06
6.33698e-05
-3.00105e-06
6.54874e-05
-6.76203e-05
2.64136e-06
-6.21068e-05
7.11422e-07
-5.28078e-05
5.47e-05
-1.99932e-06
-4.66258e-06
-5.85785e-05
3.54459e-05
2.76792e-05
-6.31251e-05
-1.39105e-06
-5.54357e-05
5.68268e-05
-5.57479e-05
2.63583e-06
6.17212e-05
-2.44721e-07
-6.27481e-05
6.27048e-05
1.11602e-07
1.13344e-06
-3.89106e-05
6.30221e-05
-2.41115e-05
-3.47761e-06
6.00597e-05
-5.65821e-05
4.35861e-05
2.2334e-05
5.77045e-05
-5.80616e-05
3.21495e-08
5.82135e-05
-8.54154e-07
-4.09714e-05
-2.02861e-05
6.12575e-05
6.49026e-05
-8.87435e-06
-5.60282e-05
-6.49541e-05
6.51988e-05
-2.44721e-07
5.85012e-05
6.92947e-06
6.31561e-05
-6.51319e-05
1.85027e-06
4.5531e-05
-5.1868e-05
3.86849e-06
-3.03969e-06
-5.0464e-05
5.35037e-05
-2.18961e-06
-6.38593e-05
-6.00339e-05
6.30221e-05
-2.98817e-06
6.59107e-05
-2.71269e-07
-2.25014e-05
6.07552e-05
6.48471e-05
-6.23678e-05
-2.50104e-06
-3.29704e-05
-2.85473e-05
6.15177e-05
-9.72444e-06
5.85913e-05
-4.88669e-05
1.02654e-05
-6.6358e-05
5.60926e-05
5.11853e-05
-5.60025e-05
-3.57983e-05
7.06029e-05
-3.47649e-05
3.61672e-05
2.24886e-05
-5.86557e-05
-5.25506e-05
-8.20459e-06
6.30994e-05
1.80321e-06
-3.37586e-05
-3.83053e-05
-3.63475e-05
-2.86066e-05
6.49541e-05
5.16088e-06
6.17705e-05
5.21127e-05
2.53866e-05
7.05183e-05
-6.02529e-05
6.16954e-05
-6.16954e-05
6.03921e-05
-5.86828e-05
-1.47032e-06
6.44904e-05
-6.44904e-05
6.0094e-05
7.4157e-07
-3.74037e-05
-2.13551e-05
5.87588e-05
-6.24221e-05
-7.57989e-06
6.47995e-05
9.67292e-06
-6.24877e-05
-1.45494e-07
-6.11756e-05
-1.58453e-06
6.32637e-05
-3.40635e-07
-6.51215e-05
6.51215e-05
4.44362e-06
-6.65015e-05
6.64199e-05
-1.33953e-06
-6.37305e-05
6.24572e-05
-6.18823e-05
-5.0775e-07
6.06393e-05
-6.15538e-05
9.14484e-07
6.07385e-05
-1.42739e-06
6.00654e-05
2.39707e-06
6.02271e-05
-6.02271e-05
-6.72596e-05
2.62882e-05
-6.01241e-05
6.17856e-05
-1.66153e-06
5.39803e-05
-5.53713e-05
6.22493e-05
-5.19968e-05
-1.02525e-05
6.59072e-05
-6.59072e-05
6.54049e-05
-6.61133e-05
7.08403e-07
-6.06035e-05
-2.62789e-06
2.93469e-05
3.8148e-05
-1.23881e-06
6.72339e-06
5.66465e-05
6.34214e-05
-6.34214e-05
2.34031e-05
4.04176e-05
-6.38206e-05
2.9856e-05
3.85758e-05
6.57191e-05
-6.37116e-05
-1.90848e-06
-6.06779e-05
6.1953e-05
-1.27512e-06
-5.97377e-05
5.97377e-05
9.53124e-07
5.22544e-05
-5.32075e-05
3.40549e-05
2.96756e-05
-6.37305e-05
-3.80747e-05
6.19002e-05
-2.38255e-05
4.59156e-05
2.32383e-05
6.41931e-05
1.53105e-06
6.48253e-05
-6.48253e-05
-3.76097e-05
-2.13938e-05
5.90035e-05
6.95523e-06
5.71488e-05
-2.09172e-05
5.82951e-05
6.32797e-05
-6.32797e-05
7.86672e-05
-5.4094e-05
-2.44761e-05
1.54213e-06
-6.53507e-05
-6.12318e-05
5.1649e-05
9.58276e-06
6.88696e-05
-6.92303e-05
3.60641e-07
5.95058e-06
5.70715e-05
-2.48585e-06
5.8089e-05
-5.56032e-05
3.6399e-05
2.10074e-05
-5.74064e-05
6.70664e-05
-6.11158e-05
3.39338e-05
3.20005e-05
-6.59343e-05
-6.31638e-05
-3.19425e-06
6.19788e-05
-5.70973e-05
6.55961e-05
-6.57692e-05
-6.54952e-08
-6.24754e-05
6.20516e-05
5.72484e-07
4.60848e-05
-6.57011e-05
6.16568e-05
4.04434e-06
6.6686e-05
-9.65446e-06
-5.73113e-05
-6.35128e-05
2.03994e-05
2.19476e-05
-6.08582e-05
-3.72362e-05
-2.7164e-05
5.98021e-05
-6.30221e-05
3.22001e-06
-1.93201e-07
-5.1327e-05
5.15202e-05
3.81765e-05
-6.05362e-05
2.23598e-05
-5.98681e-05
-9.55799e-06
4.18473e-05
-4.46809e-05
6.48404e-05
7.09628e-07
-6.23264e-05
5.87785e-07
1.76989e-06
-6.21392e-05
2.80785e-06
-6.39623e-05
-2.83361e-06
6.44775e-05
5.95624e-05
2.56662e-06
3.32048e-05
2.47426e-05
-5.79473e-05
-5.98536e-05
6.25326e-05
-2.67905e-06
-6.93462e-05
2.8452e-05
4.08942e-05
5.15202e-07
2.26118e-05
-6.2441e-05
-2.34417e-06
-6.3357e-05
-6.25869e-05
8.69432e-07
4.75362e-05
3.12436e-05
6.12704e-05
-6.12704e-05
6.20046e-05
-6.185e-05
-1.54561e-07
-6.13854e-05
6.13885e-05
6.59959e-05
-5.79514e-08
-5.62088e-08
8.12731e-06
5.72776e-05
2.21537e-06
5.97892e-05
6.2494e-05
2.53934e-06
6.34933e-05
6.69119e-05
6.53791e-05
-5.72518e-05
3.42481e-05
2.65973e-05
-6.08454e-05
4.75918e-05
-5.00776e-05
6.50619e-05
-1.28303e-07
-3.27153e-06
5.41606e-05
-5.08891e-05
-6.6012e-05
4.75163e-06
-3.65793e-06
5.44826e-05
-5.08247e-05
-6.39881e-05
2.44721e-06
6.15409e-05
1.53339e-06
-4.6497e-06
5.36325e-05
-4.89828e-05
6.12446e-05
-6.20046e-05
7.59923e-07
-5.38901e-05
4.92404e-05
6.22044e-05
-6.15564e-05
-6.40453e-07
7.38413e-05
-5.22801e-05
-2.15612e-05
-6.20265e-05
7.71703e-05
-1.50324e-05
4.34315e-05
3.04098e-05
-5.92711e-05
-2.17319e-06
-3.80283e-05
6.18989e-05
-2.38706e-05
1.12256e-05
-1.72301e-06
5.39839e-05
-5.18292e-05
-7.04281e-05
3.79446e-05
3.24835e-05
6.37597e-05
-6.13553e-05
-2.59402e-06
-6.6036e-05
6.6036e-05
-6.48382e-05
4.16026e-06
-7.71515e-06
-5.57577e-05
-6.04759e-05
-1.79668e-06
-5.8974e-05
-1.09428e-07
5.90627e-05
-5.1649e-06
-4.1023e-05
4.61879e-05
-3.50209e-05
6.06393e-05
-2.56184e-05
-3.85899e-05
7.21102e-05
-3.35203e-05
6.70535e-05
-7.72803e-08
5.69813e-05
-5.69041e-05
-6.43874e-05
1.76457e-06
6.26228e-05
-3.01393e-06
-5.2074e-05
5.5088e-05
1.61427e-06
-6.58255e-05
-3.74901e-06
5.78024e-05
-7.81419e-06
-5.70721e-05
3.25775e-05
6.10643e-05
-4.12162e-07
-6.06522e-05
1.92492e-05
-5.7324e-05
-4.2633e-06
-5.87459e-05
-5.73019e-05
-9.06947e-06
6.81097e-05
-6.81097e-05
-5.78474e-05
1.29586e-06
3.62831e-05
-5.9699e-05
2.34159e-05
4.17571e-05
-4.6922e-05
-8.71979e-06
-5.62343e-05
6.03946e-05
-5.78958e-05
-2.49873e-06
6.07681e-05
5.53842e-07
-6.13219e-05
-6.80839e-05
5.93642e-05
3.86402e-08
5.11209e-05
-5.11596e-05
-6.06779e-05
6.1309e-06
5.4547e-05
2.27977e-05
-6.02014e-05
5.92482e-05
-6.01112e-05
8.62963e-07
-5.06959e-05
5.61276e-05
-5.54813e-06
4.69053e-05
-6.79822e-05
6.42972e-05
-6.42972e-05
-3.9413e-06
5.43667e-05
-5.04254e-05
5.94543e-05
-6.02142e-05
7.59923e-07
-6.18504e-05
3.65793e-06
5.75867e-05
6.29439e-05
-6.27718e-05
-1.48129e-07
-4.65057e-05
-3.08152e-05
6.44003e-08
-5.58479e-05
5.57835e-05
-6.23781e-05
-5.36597e-05
-2.29859e-06
5.38613e-05
1.23511e-06
-3.39647e-05
-2.78982e-05
6.18629e-05
1.81609e-05
2.30553e-06
5.1005e-05
-5.33105e-05
-3.11955e-05
-3.81507e-05
-7.04854e-05
2.74396e-05
4.27636e-05
-6.21205e-05
6.21205e-05
4.37922e-07
5.90164e-05
1.30089e-06
-6.28418e-05
-5.43098e-05
3.54457e-06
5.80246e-05
-7.62499e-06
-5.702e-05
8.16877e-06
-6.55866e-05
-4.27489e-05
6.61519e-05
2.59439e-06
6.34738e-05
4.97814e-05
2.07369e-05
4.81199e-05
-5.11596e-05
-2.26946e-05
5.94286e-05
-6.23652e-05
6.23652e-05
2.48689e-18
-1.97065e-06
-5.77026e-05
5.96733e-05
4.62394e-06
6.23781e-05
7.30685e-05
-1.77358e-05
-5.53327e-05
-6.2172e-05
6.2172e-05
-4.50802e-07
-6.35373e-05
4.74243e-05
2.56442e-05
-6.18003e-05
-8.66782e-06
-3.84856e-05
-2.14672e-05
5.99528e-05
-6.02592e-05
3.86026e-07
-6.2226e-05
6.11663e-05
1.01524e-06
-4.5853e-06
-5.98021e-05
5.57577e-05
-5.56933e-05
-6.62679e-05
3.90266e-06
-6.75945e-05
1.32665e-06
5.95964e-05
-5.53958e-05
-4.15346e-06
6.13219e-05
5.86171e-05
-6.18758e-05
3.25865e-06
-1.17208e-06
5.30787e-05
-5.19066e-05
-7.04263e-06
-5.93812e-05
-5.75404e-05
-5.36572e-06
-5.74182e-05
-4.39766e-06
6.27645e-05
-3.34881e-06
-6.40782e-05
-3.70559e-05
-1.99383e-05
5.69942e-05
-4.26201e-05
6.11802e-05
1.41681e-07
-5.72776e-05
-6.34148e-05
-2.35705e-05
5.97377e-05
-1.9193e-05
-4.64901e-05
6.0586e-05
-6.05979e-05
-1.07119e-07
1.85473e-06
-6.28289e-05
6.09742e-05
-1.61645e-05
-5.8308e-05
-4.95919e-05
5.2351e-05
-2.24094e-06
-3.70945e-06
6.51859e-05
-6.14765e-05
-1.56327e-06
-5.89042e-05
3.20456e-05
-7.02607e-05
3.82151e-05
-5.94025e-05
9.88483e-06
6.20432e-05
-2.16256e-05
1.90564e-06
-6.35373e-05
6.21849e-05
1.35241e-06
5.89391e-05
-4.05722e-06
-6.22364e-05
-2.1046e-05
5.93513e-05
-6.30221e-05
6.30221e-05
4.57371e-05
-5.78572e-05
-6.03173e-05
2.49229e-05
3.75067e-05
-6.24296e-05
1.87276e-05
4.22466e-05
-6.09742e-05
5.95702e-05
-5.02442e-05
6.07626e-05
-1.12896e-05
-5.71729e-05
6.49147e-06
3.72233e-06
5.7342e-05
6.74389e-05
-6.33842e-05
-4.06042e-06
6.23998e-05
1.76775e-06
5.4225e-06
5.68268e-05
7.13555e-06
5.99309e-05
5.4122e-05
-5.60926e-05
-4.85707e-05
5.07732e-05
-2.20249e-06
-4.68447e-05
-1.72593e-06
5.90253e-05
-5.91552e-05
2.57498e-07
5.30904e-07
1.1021e-06
6.32306e-05
1.82819e-05
-5.63103e-05
5.20225e-05
-1.9977e-05
-5.99227e-05
2.81611e-06
4.88283e-05
-4.69607e-05
-1.86761e-06
5.10308e-05
-2.20249e-06
6.22364e-05
-4.21178e-06
-5.69813e-05
-1.86374e-05
5.68139e-05
-6.50613e-05
4.63842e-06
3.19812e-05
-5.09277e-05
1.89466e-05
5.13785e-05
-1.93974e-05
2.27075e-05
-6.03173e-05
-2.44463e-05
6.06522e-05
-5.40962e-07
5.86815e-05
6.07681e-05
-5.91581e-05
5.99695e-05
-8.11443e-07
6.36661e-05
-6.36661e-05
-3.78673e-06
-5.80761e-05
-4.10171e-07
-6.13477e-05
5.28468e-05
8.50083e-06
-3.93357e-05
-2.27075e-05
6.20432e-05
-2.82073e-06
5.38901e-05
-5.10694e-05
-7.44338e-05
3.56391e-05
3.87947e-05
6.20432e-05
-1.81609e-06
5.17649e-05
-4.57242e-05
-6.04074e-06
4.92662e-05
2.49873e-06
-5.68525e-05
5.40318e-05
-7.44119e-05
4.28474e-05
3.14279e-05
-3.75196e-05
6.95008e-05
-3.19812e-05
-3.54845e-05
-2.31197e-05
5.86042e-05
-3.05257e-06
-6.2275e-05
5.15071e-05
-2.07812e-06
-4.97115e-05
5.84792e-05
-5.90266e-05
2.24501e-07
-5.34522e-06
5.64533e-05
-5.1108e-05
6.42199e-05
-1.41552e-05
-5.00648e-05
2.76475e-06
5.70265e-05
3.70758e-06
6.07166e-05
-6.38464e-05
6.34986e-05
3.47761e-07
5.1546e-05
-5.68912e-05
-2.27977e-06
4.51446e-05
-4.28648e-05
-2.07369e-06
3.22774e-05
-6.95136e-05
-6.5611e-05
5.67366e-05
-6.01894e-05
5.39803e-05
-5.98665e-05
5.86686e-05
-6.36017e-05
4.93306e-06
6.50314e-05
-5.65216e-05
-3.23718e-06
3.61414e-05
2.13551e-05
-5.74965e-05
-7.89547e-06
-6.01885e-05
5.24476e-05
-4.65227e-05
-5.92482e-06
4.94336e-05
3.01393e-06
6.03044e-05
-1.63577e-06
-3.62599e-05
6.08595e-05
-2.45996e-05
-4.34959e-05
-2.63912e-05
5.28597e-05
-5.19066e-05
2.87225e-06
6.44904e-05
4.95109e-05
5.8379e-05
9.8133e-06
4.338e-05
-4.56598e-05
3.31017e-05
2.55283e-05
-5.863e-05
-6.23008e-05
6.04074e-05
-6.13348e-05
9.27364e-07
-3.7572e-06
-5.99862e-05
-2.18261e-06
-4.3215e-05
5.73126e-05
-1.39498e-05
3.6618e-05
-5.11982e-05
1.45802e-05
5.43409e-05
-1.77229e-05
-3.63866e-05
-3.82534e-05
-7.72803e-07
-6.48382e-05
-2.9324e-06
6.47995e-05
5.2937e-05
-4.68576e-05
-6.07938e-06
4.97814e-05
3.15561e-06
-6.3035e-05
6.3035e-05
5.66336e-05
-2.44721e-07
-5.63889e-05
6.41427e-05
-4.15124e-05
4.63839e-06
6.00589e-05
6.03559e-05
-5.31946e-05
7.85812e-05
-2.18188e-05
-5.67624e-05
6.30983e-05
-6.00556e-05
-3.05486e-06
-2.34675e-05
5.98665e-05
-5.5686e-05
1.2515e-05
6.63726e-05
-6.18004e-05
-4.47691e-06
4.66258e-06
6.07166e-05
-4.54667e-05
-2.14073e-05
-3.65858e-05
-2.23945e-05
5.89803e-05
4.95624e-05
-4.7888e-05
-1.67441e-06
5.16104e-05
-2.04793e-06
-1.82757e-06
1.40393e-06
-5.90164e-05
5.76125e-05
5.78057e-05
1.58425e-06
-5.93899e-05
-5.28468e-05
1.28801e-08
-1.48121e-06
5.65563e-05
-5.50751e-05
6.66495e-05
-4.69747e-05
5.75263e-05
-1.0566e-05
1.80321e-06
6.10643e-05
-5.40909e-05
6.96595e-06
3.65665e-05
-5.09792e-05
1.44128e-05
5.43796e-05
-1.78131e-05
8.01139e-06
6.57527e-05
-1.03427e-05
-6.34214e-05
-5.66722e-07
6.08711e-05
5.23059e-05
-4.66902e-05
-5.6157e-06
6.7324e-05
5.03739e-05
1.93201e-06
4.27102e-05
-4.66515e-05
5.9377e-05
-6.32282e-05
3.85114e-06
1.30089e-06
-5.66465e-05
5.53456e-05
9.37413e-06
5.47879e-05
-6.32494e-05
6.51343e-05
-6.23671e-05
-7.31716e-05
3.5974e-05
3.71976e-05
6.80242e-05
9.01394e-07
-6.39748e-05
3.0925e-05
-4.96784e-05
1.87534e-05
5.07216e-05
-1.97966e-05
6.27516e-05
-3.37457e-06
6.14234e-05
-6.25686e-05
1.14602e-06
1.10897e-05
5.34393e-05
-5.86171e-05
-3.7043e-05
6.00082e-05
-2.29651e-05
6.18114e-05
9.40244e-07
8.03715e-05
-5.08633e-05
2.78209e-06
6.41169e-05
-6.20818e-05
-6.22106e-06
6.64482e-05
-6.02271e-05
-3.78673e-06
-5.7767e-05
2.92094e-05
4.23676e-05
4.88798e-05
2.97014e-05
6.10257e-05
7.85683e-07
5.80761e-05
8.14019e-06
5.60797e-05
1.87109e-05
-5.45291e-05
6.3885e-06
5.83981e-05
-5.6801e-05
3.52656e-05
-6.12189e-05
2.59533e-05
2.42274e-05
-6.05749e-05
-5.86171e-05
8.11443e-07
5.78057e-05
-1.29629e-05
-5.77457e-05
-1.64865e-06
6.14507e-05
-6.45705e-05
6.28131e-05
1.80321e-05
-5.73677e-05
6.37012e-05
-6.54691e-05
5.59767e-05
1.82897e-06
-3.46731e-05
-2.4266e-05
5.89391e-05
6.46294e-05
-6.42806e-05
-3.9328e-07
6.40104e-05
-5.97396e-05
-3.93243e-06
-6.29062e-05
6.29062e-05
-3.61929e-06
-5.03352e-05
5.39545e-05
5.83853e-05
6.80067e-06
6.16182e-05
-6.06393e-05
-9.78884e-07
3.63346e-05
-5.06186e-05
1.4284e-05
5.44826e-05
-1.8148e-05
-3.74681e-05
7.07501e-05
-3.3282e-05
-5.67237e-05
5.32461e-05
-7.43179e-06
6.57398e-05
-5.8308e-05
6.99387e-06
5.49592e-05
-2.12521e-06
-5.91066e-05
-4.43519e-05
-2.45393e-05
5.1868e-05
-4.75531e-05
-4.31482e-06
7.12911e-05
-2.90445e-05
2.35705e-06
5.92611e-05
-6.6098e-05
2.54265e-05
4.0863e-05
-6.27348e-05
6.2788e-05
-6.61128e-05
5.91713e-05
-6.2713e-05
6.2713e-05
1.73881e-06
5.01292e-05
-4.59218e-05
5.75599e-05
-1.10155e-05
-6.03559e-05
5.46629e-05
-5.41563e-05
8.56725e-06
6.06908e-05
-2.52449e-05
3.62702e-05
-5.03996e-05
1.41294e-05
5.45213e-05
-1.8251e-05
1.96691e-05
-5.81547e-05
-6.42972e-05
6.83931e-06
5.74579e-05
-4.12162e-07
6.21076e-05
-1.08571e-06
5.64019e-05
-5.52852e-05
-6.03559e-05
6.03559e-05
4.79395e-05
-6.86764e-05
2.07369e-05
-3.28441e-05
6.60489e-05
5.9646e-05
3.40643e-07
4.66129e-05
7.43179e-05
-3.55747e-05
-3.87432e-05
3.02166e-05
-4.89442e-05
1.87276e-05
5.01292e-05
-1.99126e-05
-4.20534e-05
6.44003e-05
-2.23469e-05
5.76542e-05
-4.12462e-06
-5.35183e-05
5.73935e-05
1.28801e-07
-5.75223e-05
4.2914e-06
5.53253e-05
-6.27915e-05
5.3648e-05
9.14355e-06
8.51764e-08
-5.12436e-05
5.09099e-05
9.17446e-06
4.70145e-05
-5.6189e-05
6.44872e-05
-6.24873e-05
-1.14817e-06
-7.43179e-06
-5.9171e-05
1.79033e-06
-6.16439e-05
-3.09636e-05
-3.94645e-05
-6.44546e-05
4.66847e-06
5.89262e-05
-5.91323e-05
2.06081e-07
-6.00514e-05
5.9377e-05
-3.41321e-06
-5.59638e-05
1.11865e-06
-5.39213e-05
5.30089e-05
-3.71418e-06
-6.11871e-05
5.88618e-05
-6.05749e-05
1.71305e-06
3.1891e-05
3.2316e-05
-6.42071e-05
-4.0701e-06
-5.87588e-05
6.14636e-05
-6.14636e-05
-6.46063e-05
5.71745e-05
5.575e-05
-8.84473e-06
1.94489e-06
-6.11545e-05
5.92096e-05
-6.24087e-05
6.27974e-05
-4.24269e-05
4.47324e-05
-6.22489e-05
6.05362e-05
-6.10128e-05
4.76562e-07
6.14894e-05
5.89852e-05
1.21924e-05
-9.41532e-06
-5.49978e-05
-5.32472e-05
5.19598e-05
6.31627e-05
-5.98942e-05
-3.21958e-06
5.77413e-05
-5.57964e-05
-4.73534e-06
-4.53007e-05
4.6662e-05
6.06322e-05
-1.15025e-06
6.23008e-05
-6.7324e-05
3.96e-05
-5.84868e-05
1.88811e-05
3.60641e-05
-5.00519e-05
1.39877e-05
5.46501e-05
-1.85859e-05
-1.21072e-06
-5.90164e-05
-5.13785e-05
4.16541e-05
-1.75169e-06
6.09999e-05
-5.69427e-05
5.7342e-05
-3.99282e-07
2.23598e-05
-5.94157e-05
6.57655e-05
-5.87717e-05
-6.13992e-05
2.74345e-06
6.23781e-05
4.51601e-06
5.92051e-05
-6.78135e-05
4.61106e-05
2.17029e-05
-4.44023e-05
5.56708e-05
-1.12415e-05
-5.3823e-05
9.48904e-06
6.07423e-05
-6.07938e-05
5.15202e-08
6.37176e-05
-6.57011e-05
3.59869e-05
-4.98458e-05
1.38589e-05
5.46758e-05
-1.8689e-05
-6.18242e-05
6.69763e-07
-6.94554e-05
4.47346e-05
5.64584e-05
-1.69212e-05
7.33055e-06
3.91302e-05
-4.64608e-05
-6.09226e-06
5.40318e-05
5.07216e-05
-5.84239e-05
2.92377e-06
-4.49771e-05
3.49565e-05
-6.07552e-05
2.57987e-05
-6.20046e-05
5.83466e-06
5.61699e-05
4.92147e-05
-5.24862e-05
3.48663e-05
-6.33698e-05
2.85036e-05
4.88669e-05
-5.25248e-05
-2.20893e-05
5.83724e-05
-7.55157e-05
5.77799e-05
-6.2172e-05
-4.26716e-05
3.59225e-05
-4.9717e-05
1.37945e-05
5.47145e-05
-1.8792e-05
6.60747e-05
-3.29729e-05
1.24936e-06
-5.05928e-06
-4.08645e-05
4.59238e-05
-5.863e-05
3.96706e-06
5.46629e-05
6.20818e-05
-7.65075e-06
-5.57706e-05
-6.0459e-05
6.0459e-05
1.17208e-06
-5.97506e-05
5.85785e-05
6.38856e-05
-2.96241e-07
-5.46114e-05
5.49077e-05
6.41427e-06
6.00339e-05
-3.58323e-05
5.99695e-05
-2.41372e-05
6.10673e-05
3.56547e-06
6.98743e-05
-3.22001e-05
-3.76741e-05
-5.70844e-05
-1.07291e-05
-3.21228e-05
6.29822e-05
-3.08593e-05
5.80117e-05
-5.68397e-05
1.26867e-06
-6.35598e-05
5.62343e-05
-5.87201e-05
6.38464e-05
-6.34471e-05
-3.99282e-07
3.58581e-05
-4.95753e-05
1.37173e-05
5.47531e-05
-1.8895e-05
-5.87073e-05
5.98021e-05
-1.79033e-06
-5.79473e-05
-1.86761e-06
6.16053e-05
2.57601e-06
5.8952e-05
5.97267e-05
-6.23787e-05
2.51863e-06
-1.79692e-05
-5.00379e-05
6.80116e-05
7.04668e-05
-3.44928e-05
-3.5974e-05
-6.10386e-05
6.03044e-05
7.34163e-07
-6.08969e-05
-2.13809e-06
6.46063e-05
-8.23035e-06
-5.6376e-05
6.10386e-05
-2.67905e-06
-6.21462e-05
-5.8521e-05
2.84787e-06
5.57411e-05
-5.44053e-05
1.17852e-05
3.51385e-05
-5.26173e-05
1.74751e-05
3.00234e-05
-4.75918e-05
1.75684e-05
-1.99512e-05
4.99746e-05
4.94877e-05
-4.03133e-05
-6.15441e-05
-4.55052e-05
4.5312e-05
5.85656e-05
-6.01112e-05
1.54561e-06
4.85835e-05
-6.2275e-05
5.02878e-05
-1.51837e-05
-3.4467e-05
6.40654e-05
-2.95984e-05
-4.10874e-06
-5.94286e-05
3.49049e-06
5.88747e-05
-6.24199e-05
-1.91479e-06
1.03942e-05
5.53842e-05
3.10409e-06
-5.91066e-05
5.60025e-05
3.84354e-05
2.08348e-05
-5.92701e-05
-3.57035e-05
-3.87303e-05
-6.14894e-05
6.08196e-05
6.69763e-07
1.94618e-05
5.1546e-05
6.02516e-05
-5.31598e-05
-7.09176e-06
-3.19296e-05
5.16232e-05
-1.96936e-05
3.20713e-06
5.67624e-05
5.79517e-05
-9.11916e-07
6.20174e-05
3.74809e-06
-9.01795e-07
6.31267e-05
-4.55235e-05
5.44699e-05
-9.0314e-06
5.24918e-05
-5.46899e-05
2.24709e-06
1.00284e-05
-5.55434e-05
6.17856e-05
1.79806e-05
-4.99102e-05
5.94414e-05
-1.35241e-06
5.1752e-05
-5.20483e-05
4.12162e-07
5.81792e-05
5.96089e-05
-2.5554e-05
1.3099e-05
5.57706e-05
3.46473e-05
-6.28546e-05
2.82073e-05
2.78209e-06
-5.92611e-05
5.6479e-05
2.15801e-06
2.20957e-05
-6.30066e-05
-6.08969e-05
-6.48897e-05
-6.12475e-05
6.13056e-05
2.46009e-06
6.03688e-05
6.08196e-05
-5.80375e-05
-7.58635e-06
-5.55903e-05
5.3062e-05
1.12772e-05
4.92533e-05
-5.22672e-05
3.2065e-06
5.35438e-05
-5.67837e-05
-7.85683e-07
-6.2816e-05
4.23844e-05
-4.74437e-05
-5.83853e-05
-1.36529e-06
6.85443e-05
-1.09742e-05
-5.78855e-05
5.80761e-05
-3.57679e-05
-2.23082e-05
-1.81734e-06
-5.96157e-05
6.35615e-05
6.10386e-05
-5.14687e-05
-9.56988e-06
-5.09659e-06
6.40782e-05
-2.96241e-07
-6.09742e-05
5.32461e-05
-4.82744e-05
-4.9717e-06
-7.1003e-06
-5.87739e-05
6.01665e-05
7.13431e-08
-2.91862e-05
4.65614e-05
-1.73752e-05
-3.74835e-05
6.95136e-05
-3.20301e-05
3.28055e-05
1.56493e-05
-4.84547e-05
5.19581e-05
-1.91526e-05
2.06982e-05
-4.98844e-05
-5.80499e-05
6.07779e-05
-2.65335e-06
6.64591e-05
-9.99863e-06
-5.98922e-05
2.48714e-05
4.29711e-05
2.55244e-05
6.33827e-05
-3.86402e-05
2.07334e-06
1.70016e-06
-5.55259e-05
6.52142e-06
-5.72683e-05
5.10071e-05
5.72003e-05
-5.03996e-05
-6.80067e-06
-2.56957e-05
5.99438e-05
4.94711e-05
-4.21406e-05
6.22439e-05
-5.91649e-05
-3.09872e-06
1.53273e-05
-5.93285e-06
3.91425e-05
1.32407e-05
-5.23832e-05
-6.91659e-05
3.74037e-05
3.17622e-05
-3.24577e-06
-5.41091e-05
5.73549e-05
-3.47246e-05
-3.44413e-05
-5.98536e-05
5.98536e-05
4.13578e-05
2.32099e-05
-6.45677e-05
-5.87073e-05
5.87073e-05
-3.90266e-06
-5.93255e-05
5.882e-05
-6.76613e-07
-6.34342e-05
5.0902e-05
2.34417e-06
3.65021e-05
-5.9493e-05
2.29909e-05
-6.26301e-05
1.38824e-06
-5.92354e-05
5.92354e-05
-1.69407e-18
-7.52195e-05
5.34007e-05
-6.2597e-05
-2.00929e-06
7.41891e-06
-5.77155e-05
5.02966e-05
6.78107e-05
-5.84354e-05
-2.25401e-06
5.89906e-05
-5.67366e-05
-5.6895e-05
-5.89649e-06
-1.80321e-06
-5.73677e-05
5.9171e-05
1.99119e-06
3.41193e-05
3.0281e-05
6.05869e-05
5.48339e-07
-7.40598e-06
5.33234e-05
-4.86479e-05
-4.67546e-06
-5.51781e-05
-6.03804e-05
2.37946e-05
5.9493e-05
-5.95702e-05
5.69813e-05
5.12111e-05
2.11233e-06
5.6084e-05
-4.07521e-07
-2.82073e-06
-5.80761e-05
6.6099e-05
-1.20424e-05
5.52683e-05
-5.31946e-05
-2.07369e-06
5.7986e-05
-5.97892e-05
5.37098e-05
-4.90601e-05
-4.6497e-06
-2.33258e-05
5.94672e-05
4.54408e-05
-4.54022e-05
5.50493e-05
2.18961e-07
-3.24448e-05
-2.58889e-05
5.83337e-05
5.10436e-05
-4.96655e-05
-1.37817e-06
5.1649e-05
2.06081e-06
5.28984e-05
-1.85473e-06
2.57601e-08
6.09999e-05
5.8252e-05
4.36313e-07
5.48561e-05
-4.74372e-05
4.65978e-06
5.85183e-05
2.31068e-05
-6.01498e-05
4.30451e-05
-4.66644e-05
5.98536e-05
6.33582e-05
6.38464e-05
-6.57527e-05
-2.59628e-06
-6.02786e-05
2.47941e-05
-6.0343e-05
5.42508e-05
6.20432e-05
5.11538e-05
-2.20638e-05
-6.91401e-05
4.06366e-05
2.85036e-05
-6.20046e-05
6.23394e-05
-3.34881e-07
-2.93665e-06
-6.19015e-05
-3.78673e-05
-3.12728e-05
4.9565e-05
1.7821e-05
5.93811e-05
-6.18735e-05
2.61859e-06
-6.0884e-05
6.03302e-05
5.53842e-07
-5.77284e-05
-3.61929e-06
1.78299e-05
-4.63772e-05
-6.26475e-05
5.56121e-05
-5.40796e-05
-1.49752e-06
5.65232e-05
-9.78857e-07
5.9171e-05
6.07423e-05
-3.47761e-07
2.08657e-06
5.58994e-05
-6.23781e-05
5.42765e-05
-5.02451e-05
-4.03146e-06
-8.45166e-07
5.19066e-05
-5.31431e-05
1.23648e-06
5.2512e-05
-5.10694e-05
-1.44257e-06
5.22544e-05
-5.30787e-05
8.24323e-07
-1.48198e-07
5.26665e-05
1.61001e-06
5.4122e-05
-1.61001e-06
-2.00929e-06
5.42637e-05
5.43023e-05
-2.39569e-06
-6.34154e-06
5.75888e-05
-5.12011e-05
5.77747e-05
2.21403e-07
5.86171e-05
-1.72593e-05
5.73916e-05
-6.01141e-06
-5.12998e-05
-1.48378e-05
-5.16361e-05
6.06135e-05
-3.00105e-06
-5.76125e-05
-4.75841e-05
5.72389e-05
-1.62289e-06
-5.56161e-05
5.73291e-05
-5.97892e-05
2.46009e-06
5.61362e-05
-5.29097e-05
5.16619e-05
-5.04125e-05
-1.24936e-06
-5.65434e-05
5.68139e-05
-2.70481e-07
-1.57137e-06
5.32332e-05
2.61715e-06
5.32736e-05
-5.53159e-05
-6.10411e-05
5.89862e-05
1.98855e-06
-4.44619e-05
-3.10538e-05
-6.89558e-05
3.58809e-05
3.27506e-05
-6.0553e-05
-7.09693e-05
3.99208e-05
3.12875e-05
-9.34768e-07
-3.52527e-05
-3.79189e-05
2.87456e-05
2.48773e-05
-5.37053e-05
-6.03302e-05
-2.55154e-05
-3.61801e-05
5.79731e-05
-5.95831e-05
1.61001e-06
-2.92573e-05
5.78897e-05
-4.3921e-06
-5.99051e-05
-5.95187e-05
5.67753e-05
-9.53124e-07
-5.58221e-05
4.76562e-07
1.41681e-06
5.72003e-05
6.24425e-05
-5.60282e-05
-6.41427e-06
-6.06057e-05
5.21836e-06
6.31766e-05
3.73521e-07
-6.2494e-05
6.34214e-05
-5.80375e-05
-1.2236e-06
3.35027e-07
6.10545e-05
6.25455e-05
-6.15022e-05
-1.04328e-06
-6.21076e-05
-6.56883e-07
6.27645e-05
-5.83325e-05
2.20725e-05
6.09183e-05
-6.19312e-05
1.06263e-06
6.2597e-06
5.94801e-05
8.75843e-07
-5.74193e-05
5.65434e-05
5.72647e-05
-5.63889e-05
2.68807e-05
1.5626e-06
-6.30585e-05
-6.20432e-05
-3.55479e-05
-3.53009e-05
5.77e-05
2.97748e-06
-5.77155e-05
5.89005e-05
-1.18496e-06
5.56805e-05
-5.35939e-05
5.66207e-05
-5.62343e-05
-3.86402e-07
-5.49592e-05
-4.17314e-06
3.96319e-05
-6.82385e-05
5.71359e-05
-2.35705e-06
-5.47789e-05
5.62729e-05
-1.77745e-06
-5.44955e-05
5.72867e-07
5.5146e-05
2.19092e-05
4.88449e-05
7.34628e-06
5.00462e-05
8.27158e-07
6.04718e-05
1.33953e-06
5.91967e-05
6.03302e-05
1.77554e-06
-7.05081e-05
4.25629e-05
2.78717e-05
3.41579e-05
-6.40782e-05
2.99204e-05
-1.0304e-07
5.67366e-05
6.14894e-05
-6.14894e-05
-2.31877e-06
5.22985e-05
-4.98744e-05
-6.29113e-05
2.43214e-05
1.72593e-06
6.00597e-05
-5.60025e-05
5.9171e-05
-5.95187e-05
3.47761e-07
-4.16566e-06
5.69674e-05
-5.28416e-05
6.23467e-05
-5.9815e-05
2.67905e-06
6.0343e-05
5.76125e-05
-6.84575e-05
3.65793e-05
3.18781e-05
-2.1824e-05
6.02593e-05
-5.92611e-05
5.58566e-05
8.51358e-06
5.86944e-05