/*--------------------------------*- C++ -*----------------------------------*\
  =========                 |
  \\      /  F ield         | OpenFOAM: The Open Source CFD Toolbox
   \\    /   O peration     | Website:  https://openfoam.org
    \\  /    A nd           | Version:  12
     \\/     M anipulation  |
\*---------------------------------------------------------------------------*/
FoamFile
{
    format      ascii;
    class       volScalarField;
    location    "6.8";
    object      T;
}
// * * * * * * * * * * * * * * * * * * * * * * * * * * * * * * * * * * * * * //

dimensions      [0 0 0 1 0 0 0];

internalField   nonuniform List<scalar> 
9801
(
0.855058
0.856753
0.859578
0.862381
0.864115
0.865464
0.866642
0.867746
0.868273
0.868275
0.868964
0.870051
0.872022
0.875225
0.877835
0.879479
0.880788
0.882021
0.882971
0.883034
0.883355
0.884298
0.885645
0.888143
0.891395
0.893658
0.895197
0.896433
0.897566
0.89791
0.897723
0.89841
0.899535
0.901251
0.904467
0.90769
0.909726
0.911139
0.912299
0.913053
0.912287
0.912517
0.913568
0.915046
0.917669
0.921776
0.924667
0.926388
0.92773
0.928623
0.927649
0.927088
0.927932
0.929313
0.931442
0.93564
0.939883
0.942256
0.943793
0.94506
0.944774
0.942538
0.942759
0.944157
0.94603
0.950161
0.955775
0.959325
0.961422
0.962828
0.963139
0.960168
0.958703
0.960027
0.962136
0.966577
0.973711
0.978449
0.981116
0.983166
0.984393
0.980997
0.977752
0.978989
0.982028
0.988759
0.99854
1.00516
1.0095
1.01342
1.01603
1.01248
1.00777
1.01041
1.01866
1.03724
1.0561
1.17552
1.51934
0.858336
0.86005
0.863122
0.86616
0.867922
0.869205
0.870286
0.871226
0.871629
0.87172
0.87234
0.873301
0.875098
0.878578
0.881387
0.883083
0.88437
0.885472
0.886242
0.886262
0.88649
0.887295
0.888439
0.890857
0.894465
0.896926
0.898499
0.899722
0.900746
0.90107
0.900855
0.901354
0.902311
0.903763
0.907052
0.910584
0.912731
0.914176
0.915356
0.916055
0.915403
0.915525
0.916393
0.917598
0.919914
0.924137
0.927229
0.929067
0.930444
0.931461
0.93085
0.930182
0.930844
0.932032
0.933718
0.93767
0.94207
0.944578
0.946214
0.947548
0.947529
0.945591
0.945624
0.946834
0.948411
0.952073
0.95768
0.96129
0.963478
0.964985
0.965658
0.96326
0.961728
0.962786
0.964668
0.968372
0.975242
0.980398
0.983391
0.985642
0.987311
0.984675
0.981282
0.982068
0.984697
0.989735
0.998891
1.006
1.01069
1.01494
1.01856
1.01676
1.01197
1.01264
1.01885
1.03213
1.04955
1.1701
1.53422
0.861512
0.863305
0.866505
0.869642
0.871382
0.872651
0.873708
0.874594
0.874987
0.875097
0.875685
0.876608
0.878292
0.88193
0.884918
0.886638
0.887909
0.888947
0.889627
0.889595
0.889744
0.890493
0.891562
0.893915
0.897778
0.900406
0.902012
0.903246
0.904269
0.904622
0.904235
0.904594
0.905513
0.906887
0.910176
0.913986
0.916262
0.917754
0.918979
0.919857
0.919359
0.919011
0.91971
0.920852
0.922906
0.927197
0.930666
0.932675
0.934136
0.935357
0.935374
0.934267
0.934499
0.935571
0.937016
0.94053
0.945239
0.948023
0.94979
0.951266
0.951838
0.95021
0.949844
0.950857
0.952306
0.955073
0.96058
0.964729
0.96716
0.968874
0.970126
0.968584
0.966746
0.967534
0.969358
0.971893
0.978134
0.984464
0.987972
0.990413
0.992516
0.991334
0.987594
0.987662
0.990252
0.993977
1.00208
1.01124
1.01713
1.02158
1.02606
1.02614
1.02291
1.02352
1.02835
1.04022
1.05468
1.17688
1.54721
0.865401
0.867253
0.870382
0.8737
0.875526
0.876799
0.87784
0.878692
0.879019
0.87908
0.87965
0.880575
0.882144
0.885794
0.888944
0.890704
0.89198
0.893024
0.893751
0.893758
0.893841
0.894556
0.89561
0.897775
0.901761
0.90456
0.906202
0.907458
0.908511
0.908921
0.908501
0.908827
0.909796
0.911138
0.914287
0.918372
0.920781
0.922289
0.923526
0.924428
0.92386
0.923382
0.92413
0.925362
0.927259
0.931617
0.935589
0.937719
0.93917
0.940396
0.940504
0.939001
0.938966
0.940075
0.941588
0.944821
0.950087
0.953381
0.955279
0.956821
0.957774
0.95623
0.955065
0.95583
0.957377
0.959744
0.965267
0.970432
0.973218
0.975077
0.976674
0.975943
0.973206
0.973316
0.975189
0.977546
0.982715
0.99019
0.994702
0.997452
0.999853
1.0003
0.99663
0.995042
0.99734
1.00092
1.00676
1.01635
1.02381
1.02894
1.03398
1.03693
1.03446
1.0326
1.03515
1.04428
1.05409
1.18333
1.55735
0.86944
0.871359
0.874493
0.877864
0.879754
0.881058
0.882126
0.883002
0.883267
0.88325
0.883808
0.884744
0.886219
0.889757
0.893139
0.895049
0.896374
0.897461
0.898301
0.898315
0.898258
0.898916
0.899959
0.901814
0.905765
0.908911
0.910702
0.91202
0.913151
0.913706
0.913291
0.913534
0.91447
0.915729
0.918433
0.922698
0.925402
0.927023
0.928312
0.929303
0.928969
0.92848
0.929187
0.93042
0.932121
0.936118
0.940354
0.942636
0.944118
0.945345
0.945673
0.944291
0.944169
0.945331
0.946897
0.949724
0.955034
0.958847
0.960943
0.962549
0.963764
0.962716
0.960841
0.96121
0.962757
0.964916
0.969773
0.975852
0.979274
0.981272
0.983029
0.983404
0.980519
0.979264
0.980774
0.983104
0.986864
0.994427
1.00072
1.00419
1.00684
1.00871
1.00632
1.00279
1.0032
1.00651
1.01108
1.01944
1.02819
1.03437
1.03952
1.04447
1.04433
1.04136
1.0407
1.04479
1.05097
1.18557
1.56239
0.873505
0.875472
0.878597
0.881974
0.883905
0.885242
0.886339
0.887227
0.887421
0.887401
0.888013
0.889
0.890479
0.893887
0.897296
0.899298
0.90069
0.901831
0.902745
0.902753
0.902623
0.903288
0.904359
0.906069
0.909886
0.913259
0.915164
0.916535
0.917719
0.918403
0.917925
0.918009
0.918922
0.920172
0.922533
0.926863
0.929922
0.931705
0.933081
0.934241
0.934282
0.933477
0.933875
0.935013
0.936535
0.939985
0.944491
0.947162
0.94887
0.950303
0.951264
0.950213
0.949355
0.950184
0.951645
0.953895
0.958874
0.963402
0.965851
0.967554
0.969005
0.968924
0.966685
0.966078
0.967391
0.96934
0.973075
0.979699
0.984329
0.98663
0.988404
0.989569
0.987425
0.984906
0.985279
0.987362
0.990132
0.996141
1.00396
1.00877
1.01187
1.01441
1.01431
1.00996
1.00818
1.01012
1.0138
1.01968
1.02827
1.03531
1.04077
1.04587
1.04932
1.04802
1.04446
1.04374
1.04537
1.18395
1.56462
0.87741
0.879391
0.882494
0.885877
0.887791
0.889128
0.89023
0.891118
0.891299
0.891311
0.89197
0.892996
0.894488
0.89786
0.901225
0.90318
0.904543
0.905682
0.906613
0.906639
0.906489
0.907173
0.908282
0.910018
0.913807
0.91726
0.919179
0.920534
0.921715
0.922544
0.922058
0.921819
0.92263
0.923892
0.9261
0.930478
0.933911
0.935817
0.937232
0.938497
0.939037
0.937926
0.937626
0.938536
0.939958
0.942861
0.947761
0.95109
0.953006
0.954526
0.955891
0.955592
0.95399
0.95406
0.955228
0.956901
0.960893
0.966353
0.96953
0.971368
0.972915
0.973752
0.971852
0.970437
0.971158
0.972821
0.975183
0.980872
0.98704
0.990323
0.992273
0.993917
0.993086
0.989818
0.988812
0.990186
0.992489
0.996214
1.00393
1.0107
1.01452
1.0173
1.01931
1.0171
1.01307
1.0127
1.0151
1.01905
1.02628
1.0343
1.04034
1.04535
1.04978
1.05128
1.04889
1.04442
1.04016
1.18
1.56557
0.880866
0.882788
0.885766
0.889365
0.891304
0.892603
0.893676
0.894559
0.894802
0.894799
0.895407
0.896415
0.897838
0.901147
0.904711
0.906676
0.908005
0.909134
0.910107
0.910218
0.909926
0.910495
0.911567
0.913135
0.916772
0.920539
0.922596
0.923979
0.925172
0.92617
0.925832
0.925182
0.925731
0.926902
0.928742
0.932997
0.937043
0.939169
0.9406
0.941853
0.942664
0.941602
0.940684
0.941275
0.942567
0.94472
0.949761
0.954243
0.956503
0.958013
0.959358
0.959555
0.957623
0.956857
0.957599
0.959024
0.961753
0.967656
0.972205
0.974511
0.976098
0.977459
0.976415
0.974112
0.973805
0.974989
0.976799
0.980449
0.987532
0.99247
0.995065
0.996911
0.997743
0.994758
0.992057
0.99229
0.994132
0.996499
1.00169
1.00991
1.01537
1.01865
1.02137
1.02281
1.01916
1.01553
1.01609
1.01885
1.02337
1.031
1.03791
1.04322
1.04789
1.05147
1.05161
1.04738
1.03947
1.17426
1.56598
0.88381
0.885593
0.888081
0.892045
0.894283
0.895576
0.896606
0.89749
0.897854
0.897796
0.898279
0.899219
0.900432
0.903256
0.907281
0.909597
0.910957
0.912095
0.913092
0.913305
0.912875
0.913248
0.914193
0.915435
0.918423
0.922742
0.925264
0.926741
0.927965
0.929024
0.928921
0.928036
0.928369
0.929394
0.930778
0.93423
0.938961
0.941614
0.943107
0.944343
0.945314
0.944594
0.943335
0.943712
0.944847
0.946444
0.950552
0.955901
0.958813
0.960444
0.96172
0.962236
0.960461
0.959025
0.959461
0.96076
0.962606
0.967461
0.973581
0.976801
0.978591
0.980012
0.979978
0.977109
0.975689
0.976338
0.977913
0.980093
0.985943
0.992985
0.996708
0.998877
1.00059
1.00016
0.996162
0.994373
0.99508
0.996934
0.999769
1.00669
1.0146
1.01929
1.0223
1.02477
1.02493
1.02056
1.01791
1.019
1.02198
1.02724
1.0348
1.0408
1.04548
1.04957
1.05172
1.04994
1.04219
1.1695
1.5664
0.886251
0.887897
0.889683
0.893665
0.896494
0.897994
0.899062
0.899988
0.900482
0.900306
0.9006
0.901417
0.902468
0.904471
0.908722
0.911813
0.913396
0.914531
0.915513
0.915871
0.915274
0.915373
0.916157
0.917237
0.919318
0.92387
0.927236
0.928964
0.9302
0.931274
0.931487
0.930465
0.930485
0.931368
0.932523
0.934713
0.939591
0.943191
0.945009
0.946321
0.947463
0.947257
0.945749
0.945795
0.946849
0.948171
0.950583
0.955981
0.959925
0.961885
0.963245
0.964251
0.963292
0.961231
0.961248
0.962434
0.963932
0.966747
0.973253
0.978006
0.980309
0.981817
0.982819
0.980687
0.977793
0.977642
0.978876
0.980595
0.983768
0.991264
0.997259
1.0002
1.00223
1.00379
1.00153
0.997032
0.996156
0.997535
0.999695
1.00341
1.01127
1.01823
1.02221
1.02499
1.02736
1.02697
1.02226
1.02014
1.02161
1.02485
1.03078
1.03793
1.0432
1.04733
1.05039
1.05088
1.04639
1.16701
1.56702
0.888288
0.889782
0.891016
0.894497
0.897955
0.899824
0.901038
0.902033
0.90278
0.902636
0.902534
0.903165
0.90415
0.905614
0.90938
0.913235
0.915221
0.916456
0.917441
0.918066
0.917478
0.917125
0.917762
0.918807
0.920315
0.924259
0.928462
0.93063
0.93197
0.933078
0.933736
0.932841
0.932283
0.932858
0.933871
0.935289
0.939305
0.944058
0.94654
0.948028
0.949292
0.949852
0.948428
0.947759
0.94835
0.949309
0.950689
0.95482
0.960185
0.963017
0.9647
0.966129
0.966464
0.964355
0.963439
0.964109
0.965247
0.966761
0.971245
0.977797
0.981193
0.983051
0.984537
0.984726
0.98139
0.979439
0.97995
0.981388
0.983254
0.98792
0.995909
1.00072
1.00315
1.00492
1.00583
1.00253
0.99884
0.998718
1.00021
1.0025
1.00721
1.0153
1.02138
1.02508
1.02784
1.02981
1.02845
1.02391
1.0223
1.02398
1.02736
1.03378
1.04048
1.04506
1.04844
1.05011
1.04959
1.16731
1.56791
0.890054
0.891351
0.892297
0.895091
0.898939
0.901201
0.902579
0.903655
0.904583
0.904836
0.904359
0.904758
0.905684
0.906878
0.909782
0.913998
0.916429
0.917829
0.918918
0.919836
0.919712
0.918925
0.919331
0.920318
0.921534
0.924347
0.929001
0.93183
0.933371
0.934549
0.935528
0.935239
0.934006
0.934138
0.935049
0.936265
0.938926
0.944272
0.947786
0.949583
0.95087
0.95192
0.951209
0.949435
0.949212
0.949962
0.951216
0.953729
0.95969
0.964197
0.96647
0.96793
0.96912
0.968033
0.965569
0.965095
0.965738
0.967047
0.9694
0.975853
0.981716
0.984481
0.986236
0.987547
0.98618
0.982303
0.981274
0.982153
0.983682
0.985817
0.99184
0.999504
1.0034
1.00567
1.00772
1.0083
1.00406
1.0008
1.00109
1.00282
1.00535
1.01087
1.01863
1.024
1.02744
1.03015
1.03192
1.03016
1.0256
1.02418
1.02581
1.02917
1.03573
1.04195
1.04612
1.04823
1.05112
1.17061
1.56904
0.891659
0.892742
0.893577
0.895783
0.899709
0.902335
0.903863
0.905029
0.90605
0.906741
0.906332
0.906407
0.907185
0.90819
0.910121
0.914272
0.917351
0.919029
0.920272
0.921356
0.92189
0.921059
0.921016
0.921795
0.922816
0.924484
0.928858
0.932677
0.934603
0.935901
0.937018
0.937469
0.936044
0.935549
0.936315
0.937471
0.939089
0.943657
0.948507
0.950872
0.952253
0.953368
0.95363
0.951484
0.950388
0.951055
0.952284
0.953904
0.958531
0.964795
0.967989
0.9697
0.970977
0.971107
0.968066
0.966038
0.96641
0.967608
0.96922
0.973155
0.980641
0.985346
0.98756
0.98913
0.990057
0.987501
0.98385
0.983193
0.984095
0.985665
0.988456
0.996023
1.00334
1.00682
1.00882
1.01051
1.01006
1.00559
1.00298
1.00347
1.00519
1.00799
1.0144
1.02184
1.02672
1.02996
1.03253
1.03383
1.03156
1.02694
1.02549
1.0269
1.03011
1.03671
1.04269
1.04596
1.05082
1.17584
1.57039
0.893158
0.894086
0.894862
0.896594
0.900426
0.903459
0.905142
0.906395
0.907484
0.908437
0.908394
0.908081
0.908571
0.909425
0.910695
0.914297
0.918284
0.920362
0.921714
0.922856
0.923805
0.923355
0.922633
0.922992
0.923868
0.925095
0.928427
0.933267
0.935878
0.937308
0.93847
0.939396
0.938533
0.937301
0.937674
0.938659
0.939858
0.942629
0.948256
0.951741
0.953433
0.954668
0.955643
0.954411
0.952368
0.952626
0.953812
0.955136
0.95733
0.963371
0.968329
0.970544
0.971889
0.973005
0.971873
0.968558
0.96784
0.968833
0.970215
0.971934
0.977323
0.984605
0.988256
0.990262
0.99199
0.992504
0.9886
0.985231
0.985242
0.986591
0.988352
0.991869
0.999996
1.00624
1.00914
1.01119
1.01303
1.01214
1.00724
1.00489
1.00566
1.00763
1.01095
1.01788
1.02472
1.0291
1.0321
1.03443
1.03554
1.03278
1.02787
1.02626
1.0273
1.03033
1.03706
1.04223
1.04889
1.18202
1.57178
0.894596
0.895433
0.896149
0.897451
0.90095
0.904672
0.906611
0.907921
0.909039
0.910067
0.910305
0.909511
0.909668
0.910508
0.911641
0.914416
0.919079
0.921817
0.923241
0.924377
0.925407
0.925445
0.92415
0.924136
0.924968
0.926083
0.928222
0.933273
0.93702
0.938805
0.94002
0.941121
0.941213
0.939478
0.939031
0.939656
0.940691
0.942236
0.946943
0.952245
0.95479
0.956242
0.957473
0.957804
0.955538
0.954489
0.955001
0.955906
0.957156
0.96053
0.967186
0.971171
0.973277
0.974785
0.975815
0.973512
0.970565
0.970341
0.971107
0.972326
0.974621
0.981413
0.988048
0.991082
0.992868
0.994348
0.994373
0.990349
0.987742
0.987968
0.989032
0.99074
0.995082
1.00339
1.009
1.01174
1.01371
1.01514
1.01382
1.00932
1.00735
1.00808
1.01
1.01362
1.02086
1.0273
1.03129
1.03395
1.03596
1.03687
1.0339
1.02861
1.02655
1.02703
1.03021
1.03646
1.04489
1.18773
1.57279
0.896061
0.896716
0.89737
0.898431
0.901205
0.905737
0.908282
0.909624
0.910707
0.911687
0.911966
0.910985
0.910946
0.911721
0.91277
0.914653
0.919263
0.92297
0.924704
0.925863
0.926892
0.92739
0.926114
0.925532
0.926191
0.927229
0.928559
0.932475
0.937649
0.940262
0.941621
0.942753
0.943546
0.942125
0.940477
0.940655
0.941577
0.942787
0.945543
0.951749
0.955976
0.957961
0.959221
0.960288
0.959224
0.956477
0.955711
0.956192
0.957316
0.959101
0.964532
0.971435
0.974799
0.976659
0.978043
0.978109
0.97452
0.97187
0.971926
0.9729
0.974284
0.977331
0.984977
0.9909
0.993642
0.995701
0.997337
0.996474
0.991743
0.989268
0.989703
0.99108
0.993014
0.997929
1.00609
1.0112
1.01378
1.0159
1.01762
1.01621
1.01133
1.00924
1.00994
1.01184
1.01579
1.02322
1.02936
1.03306
1.03552
1.03739
1.0382
1.035
1.02914
1.02612
1.02633
1.02915
1.03916
1.19159
1.57322
0.89754
0.897864
0.898545
0.899592
0.90158
0.906289
0.909771
0.911328
0.912387
0.913307
0.913713
0.912738
0.912354
0.912971
0.913924
0.915169
0.91874
0.923616
0.926151
0.927449
0.928535
0.929402
0.928636
0.927284
0.927472
0.928304
0.929383
0.931602
0.937204
0.94128
0.943163
0.944319
0.945353
0.945041
0.942598
0.941922
0.94269
0.943845
0.945298
0.949833
0.956097
0.959161
0.960763
0.961866
0.962248
0.959553
0.957116
0.957206
0.958307
0.959733
0.962407
0.969364
0.975316
0.977911
0.979399
0.980559
0.979676
0.975353
0.973296
0.973666
0.974819
0.976427
0.980511
0.988836
0.994282
0.99664
0.998135
0.999381
0.998085
0.993346
0.991183
0.991626
0.993016
0.995081
1.00092
1.00944
1.01427
1.01656
1.01835
1.01957
1.01773
1.01297
1.01084
1.01145
1.01332
1.01753
1.02527
1.03137
1.03479
1.03691
1.03853
1.03906
1.03593
1.02945
1.02517
1.02413
1.03188
1.19157
1.57313
0.899088
0.899173
0.899855
0.900894
0.90231
0.906183
0.910692
0.912919
0.914038
0.914951
0.915557
0.914791
0.913857
0.914143
0.914976
0.916066
0.918257
0.923501
0.92734
0.929137
0.93025
0.931237
0.931252
0.929342
0.92868
0.929292
0.930325
0.931688
0.935754
0.941506
0.944345
0.94583
0.946926
0.947618
0.945747
0.943752
0.943963
0.944927
0.946071
0.948118
0.954186
0.959449
0.961724
0.963136
0.964308
0.963778
0.960354
0.95923
0.960102
0.96127
0.962469
0.965502
0.972856
0.977683
0.97975
0.981248
0.982518
0.981151
0.976737
0.975282
0.97614
0.977466
0.978974
0.983467
0.991664
0.996201
0.998343
1.00015
1.00164
0.999888
0.994994
0.993206
0.994031
0.995627
0.997894
1.00409
1.01188
1.01597
1.01816
1.02002
1.02142
1.01946
1.01453
1.01236
1.01293
1.01474
1.01915
1.02691
1.03274
1.03583
1.03775
1.03923
1.03957
1.03658
1.0296
1.02342
1.02469
1.18693
1.57213
0.900986
0.900798
0.901342
0.902312
0.903364
0.905736
0.910697
0.913913
0.915453
0.916429
0.917231
0.917131
0.915677
0.915447
0.916237
0.917319
0.91871
0.922653
0.927874
0.93047
0.931809
0.932738
0.933331
0.931886
0.930197
0.930452
0.931434
0.932601
0.934712
0.940358
0.945073
0.947153
0.948396
0.949443
0.949207
0.946457
0.945375
0.945891
0.946838
0.948021
0.951178
0.958059
0.962517
0.964638
0.966132
0.967156
0.965464
0.962194
0.96148
0.961848
0.962646
0.963965
0.96819
0.975933
0.980259
0.982318
0.984004
0.985221
0.983184
0.978983
0.977784
0.978194
0.979153
0.980855
0.98641
0.994531
0.998862
1.00096
1.00256
1.00374
1.00196
0.997523
0.995893
0.996354
0.997534
0.99974
1.00631
1.01387
1.01791
1.02015
1.02196
1.02321
1.02141
1.01662
1.01416
1.01444
1.01594
1.02008
1.02778
1.03346
1.03635
1.03819
1.0396
1.03976
1.03694
1.02812
1.02207
1.17794
1.57092
0.903277
0.902867
0.902888
0.90363
0.904551
0.905854
0.909731
0.914395
0.916648
0.917846
0.918745
0.919327
0.918255
0.917262
0.917746
0.918715
0.919788
0.921794
0.92697
0.931017
0.93283
0.933927
0.934878
0.93478
0.932634
0.932002
0.932725
0.933794
0.935019
0.938268
0.944406
0.948003
0.949722
0.950845
0.951736
0.950197
0.947387
0.946944
0.947712
0.948814
0.950236
0.954887
0.962005
0.965762
0.967597
0.96903
0.969671
0.966387
0.962824
0.962343
0.963178
0.964378
0.966134
0.971793
0.979519
0.983351
0.985139
0.986661
0.987607
0.984482
0.979957
0.978964
0.979949
0.981335
0.983314
0.989264
0.996969
1.00094
1.00312
1.00506
1.00629
1.00403
0.999038
0.996963
0.997564
0.999085
1.00166
1.00858
1.01597
1.01986
1.02206
1.02398
1.02542
1.02376
1.0184
1.0153
1.01535
1.01674
1.02058
1.02816
1.0338
1.03663
1.03848
1.03966
1.03979
1.03533
1.02629
1.16915
1.57013
0.905384
0.90555
0.90462
0.904985
0.905821
0.90679
0.908866
0.913759
0.917279
0.918954
0.920073
0.921077
0.921299
0.919775
0.91936
0.919947
0.920807
0.921885
0.925033
0.930665
0.933719
0.935244
0.936322
0.937224
0.936114
0.934127
0.934121
0.934915
0.935897
0.937243
0.941785
0.947851
0.950717
0.952237
0.953316
0.953677
0.950843
0.94857
0.948769
0.949818
0.951067
0.952849
0.958581
0.965081
0.967973
0.969498
0.970589
0.970893
0.967352
0.964355
0.964441
0.965654
0.967064
0.968999
0.975097
0.98215
0.985376
0.987124
0.988309
0.988922
0.986054
0.982211
0.981468
0.982143
0.983344
0.985524
0.992203
0.999787
1.00351
1.00534
1.00658
1.00757
1.00559
1.0008
0.998851
0.999406
1.00088
1.00375
1.01093
1.01817
1.02196
1.02399
1.02569
1.02685
1.02522
1.01991
1.01647
1.01623
1.01745
1.02101
1.0283
1.03385
1.03671
1.03845
1.03952
1.03849
1.03449
1.1653
1.57012
0.907047
0.90824
0.907093
0.906635
0.907146
0.907955
0.908971
0.912247
0.917362
0.920028
0.921423
0.922481
0.923424
0.922784
0.921063
0.92097
0.921737
0.922731
0.924252
0.92899
0.934174
0.93653
0.937815
0.938863
0.939282
0.937073
0.93554
0.93579
0.936667
0.937769
0.939759
0.945584
0.951045
0.953414
0.954731
0.955754
0.955228
0.951789
0.950462
0.951061
0.952032
0.953027
0.954973
0.961341
0.967411
0.970126
0.971924
0.973285
0.973318
0.969465
0.966917
0.967077
0.967811
0.968852
0.970829
0.977334
0.984049
0.987063
0.988911
0.990572
0.991332
0.98802
0.983905
0.983188
0.984267
0.98568
0.987704
0.994045
1.00116
1.00451
1.00644
1.00818
1.00956
1.00786
1.00317
1.00112
1.00157
1.00289
1.00545
1.01227
1.0193
1.02302
1.02511
1.02685
1.02827
1.02707
1.02172
1.01779
1.01718
1.01814
1.02109
1.02792
1.03338
1.03625
1.03815
1.03834
1.03998
1.1666
1.57088
0.908635
0.910169
0.910053
0.908573
0.908363
0.908988
0.909869
0.911493
0.916319
0.920656
0.922595
0.923745
0.924806
0.92542
0.923736
0.922485
0.922879
0.923788
0.924816
0.927099
0.932974
0.937245
0.939105
0.940179
0.941178
0.9406
0.937836
0.937055
0.937745
0.938814
0.939956
0.942432
0.948996
0.953885
0.956039
0.957382
0.95833
0.956834
0.953402
0.952305
0.952558
0.95333
0.954585
0.957334
0.964723
0.970676
0.973154
0.974616
0.975969
0.975324
0.970952
0.968185
0.968027
0.968916
0.97024
0.972799
0.980283
0.98696
0.989794
0.991329
0.992675
0.993243
0.990128
0.986308
0.985385
0.985771
0.986808
0.988988
0.995965
1.00349
1.00713
1.00897
1.01067
1.01205
1.01041
1.00545
1.0028
1.00282
1.00393
1.00612
1.01287
1.02051
1.02467
1.02691
1.02861
1.02982
1.02906
1.02372
1.01892
1.01773
1.01841
1.02061
1.02695
1.03252
1.0359
1.03688
1.0422
1.172
1.57215
0.910184
0.911715
0.912372
0.911025
0.909794
0.910081
0.910845
0.911807
0.914691
0.920356
0.923601
0.925181
0.926287
0.927328
0.927005
0.924745
0.924231
0.924804
0.925644
0.926719
0.930254
0.936602
0.93994
0.941567
0.942654
0.943486
0.941643
0.939198
0.93909
0.939814
0.940683
0.941795
0.945186
0.952464
0.956827
0.958738
0.960019
0.960735
0.958203
0.954403
0.953543
0.954366
0.955563
0.956885
0.96019
0.967934
0.973039
0.975296
0.976713
0.977778
0.976919
0.972232
0.96963
0.969905
0.971159
0.972702
0.975614
0.982998
0.988919
0.991511
0.993198
0.994833
0.995507
0.992028
0.987641
0.98655
0.987471
0.988946
0.991468
0.998312
1.00554
1.00913
1.01115
1.01274
1.01388
1.01221
1.0069
1.00384
1.00387
1.00522
1.00758
1.01402
1.02167
1.02612
1.02843
1.02997
1.03096
1.03038
1.02528
1.01979
1.01793
1.01822
1.01993
1.02579
1.03171
1.03446
1.04232
1.17947
1.57352
0.911654
0.913142
0.913973
0.913453
0.911462
0.911131
0.911753
0.912673
0.914206
0.91897
0.924256
0.926613
0.927863
0.928888
0.929523
0.927618
0.925575
0.925563
0.926282
0.927263
0.928853
0.934041
0.940142
0.94286
0.94431
0.945389
0.945483
0.942442
0.940375
0.940437
0.941272
0.942387
0.943881
0.948582
0.955714
0.959302
0.961049
0.962324
0.962734
0.959583
0.956277
0.955992
0.956723
0.957635
0.958821
0.962555
0.970164
0.974787
0.976799
0.978361
0.979694
0.978874
0.974511
0.972387
0.972682
0.973536
0.97471
0.977561
0.985079
0.991057
0.993686
0.995191
0.996393
0.997228
0.994453
0.990394
0.989351
0.989859
0.990919
0.993191
1.00007
1.00724
1.01068
1.01244
1.01387
1.01512
1.01419
1.00945
1.0063
1.00601
1.00691
1.0087
1.01447
1.02225
1.02697
1.02932
1.03072
1.03165
1.03134
1.02687
1.02094
1.01817
1.01787
1.0189
1.02469
1.02975
1.03981
1.18705
1.57455
0.912929
0.914464
0.915288
0.915432
0.913432
0.912355
0.912868
0.913798
0.914851
0.917522
0.923524
0.927525
0.929253
0.930219
0.931081
0.930598
0.927689
0.92665
0.927244
0.928243
0.929352
0.931784
0.938251
0.94345
0.945651
0.946883
0.947769
0.946564
0.942768
0.941566
0.942265
0.94338
0.944498
0.946108
0.95161
0.958437
0.961635
0.963311
0.964689
0.964871
0.961108
0.957786
0.957297
0.957979
0.958937
0.960321
0.964795
0.972615
0.977268
0.979383
0.980979
0.982242
0.980886
0.976233
0.973734
0.973837
0.974809
0.976089
0.979134
0.986708
0.992473
0.995151
0.997241
0.998883
0.999678
0.996828
0.992271
0.990638
0.991191
0.992402
0.994455
1.0009
1.00806
1.01182
1.01399
1.01599
1.01747
1.01698
1.01212
1.00802
1.00715
1.00799
1.00949
1.0144
1.02228
1.02742
1.02985
1.0312
1.03221
1.03246
1.02881
1.02226
1.01814
1.01698
1.01776
1.02244
1.03447
1.19264
1.57502
0.913826
0.915749
0.916533
0.917061
0.915784
0.91405
0.914208
0.915053
0.916035
0.917268
0.921164
0.927089
0.930044
0.931494
0.932432
0.933072
0.931124
0.928612
0.928628
0.929536
0.930582
0.931723
0.934808
0.941588
0.945898
0.947847
0.94911
0.949793
0.947498
0.944226
0.943755
0.944368
0.945199
0.94632
0.948406
0.954644
0.961043
0.963966
0.965521
0.966637
0.966536
0.962743
0.959415
0.958941
0.959767
0.960958
0.962658
0.967659
0.975456
0.979713
0.981634
0.982817
0.983837
0.982619
0.977853
0.975345
0.975525
0.976656
0.978105
0.981393
0.98921
0.995211
0.99778
0.999263
1.00042
1.00138
0.999003
0.994229
0.992197
0.992487
0.993672
0.995611
1.00191
1.00998
1.01436
1.01635
1.01783
1.01903
1.01874
1.01419
1.0096
1.00825
1.00887
1.0102
1.01433
1.02219
1.02804
1.0308
1.03199
1.03276
1.03302
1.03038
1.02371
1.01788
1.01568
1.01529
1.02727
1.19432
1.57477
0.914046
0.916848
0.917702
0.918463
0.918396
0.916457
0.915685
0.916201
0.917017
0.917946
0.919583
0.924634
0.930196
0.932647
0.933899
0.934846
0.934747
0.931788
0.930333
0.930758
0.931535
0.932406
0.93363
0.937418
0.944443
0.948467
0.950304
0.951566
0.951959
0.948807
0.945528
0.945256
0.946236
0.947398
0.9485
0.950532
0.957025
0.963134
0.965744
0.96729
0.968661
0.968656
0.964615
0.961448
0.961409
0.962439
0.963543
0.96493
0.969616
0.977004
0.980835
0.9826
0.984003
0.985315
0.98452
0.980232
0.977823
0.97814
0.979279
0.980574
0.98326
0.990418
0.996076
0.998669
1.00037
1.0019
1.00305
1.00103
0.996211
0.994042
0.994488
0.995798
0.997699
1.00319
1.0109
1.0152
1.01732
1.01882
1.02011
1.02018
1.01635
1.01156
1.0097
1.01001
1.01108
1.01453
1.02211
1.02818
1.03097
1.03215
1.03293
1.03326
1.03153
1.02516
1.01799
1.01325
1.01914
1.19066
1.57334
0.912814
0.917595
0.91885
0.919726
0.920499
0.919742
0.917699
0.917428
0.918157
0.919181
0.920193
0.922167
0.927822
0.932851
0.93506
0.936144
0.93695
0.935995
0.93285
0.931765
0.932291
0.93327
0.934308
0.935829
0.940368
0.947266
0.950904
0.952616
0.953716
0.953784
0.95046
0.947767
0.947652
0.948206
0.949015
0.9502
0.952704
0.959535
0.965378
0.967979
0.969412
0.970562
0.970566
0.966918
0.963868
0.963453
0.963791
0.964619
0.966141
0.971095
0.978642
0.982854
0.984884
0.986571
0.987871
0.987058
0.982835
0.98015
0.979887
0.980265
0.981363
0.984094
0.991427
0.997692
1.00067
1.00229
1.00374
1.00507
1.00382
0.999216
0.996651
0.996492
0.997039
0.998373
1.00297
1.01091
1.01609
1.01848
1.02003
1.02152
1.02231
1.01935
1.01413
1.01138
1.01113
1.01184
1.01407
1.02116
1.02778
1.03076
1.03197
1.03285
1.03339
1.03238
1.02658
1.01668
1.01496
1.18092
1.57129
0.910126
0.916986
0.919758
0.92125
0.9222
0.922937
0.921426
0.919566
0.919651
0.920389
0.921204
0.921989
0.924009
0.930217
0.9351
0.937238
0.938477
0.939298
0.937581
0.934358
0.93377
0.934539
0.935542
0.93648
0.937736
0.942459
0.949418
0.952878
0.954628
0.955952
0.95602
0.952312
0.949146
0.948964
0.949962
0.951098
0.952172
0.954479
0.96139
0.967202
0.969729
0.971347
0.972772
0.97294
0.968829
0.965105
0.96456
0.965381
0.966541
0.968231
0.973334
0.98104
0.98535
0.987294
0.988552
0.989682
0.98925
0.984683
0.981143
0.980782
0.981773
0.983182
0.985932
0.992865
0.999339
1.00268
1.00459
1.00611
1.00741
1.00624
1.00114
0.997473
0.996962
0.997933
0.999375
1.00344
1.01145
1.0176
1.02046
1.02195
1.02324
1.02402
1.02174
1.01604
1.01214
1.01128
1.01197
1.01391
1.02026
1.02718
1.03058
1.03195
1.03293
1.0333
1.03275
1.02587
1.01761
1.16985
1.57003
0.908645
0.914012
0.919885
0.922731
0.924121
0.925084
0.925349
0.922949
0.921195
0.921056
0.92138
0.922153
0.923264
0.926135
0.933181
0.937985
0.940041
0.941371
0.941961
0.939431
0.936425
0.935931
0.936222
0.936722
0.937649
0.939291
0.944973
0.951969
0.955235
0.956815
0.95795
0.957893
0.954343
0.951529
0.951264
0.951663
0.952417
0.953633
0.956535
0.963882
0.969543
0.971933
0.973286
0.974309
0.974517
0.970919
0.967422
0.966993
0.967807
0.968904
0.970382
0.974992
0.982412
0.986478
0.988289
0.989635
0.990831
0.990864
0.987132
0.983808
0.983315
0.983988
0.985175
0.987538
0.994118
1.00098
1.00447
1.00619
1.00721
1.0082
1.00789
1.00368
0.999853
0.9991
0.999892
1.00119
1.00447
1.01201
1.01841
1.02141
1.02297
1.02407
1.02467
1.02328
1.01808
1.01359
1.01219
1.01248
1.01386
1.01937
1.02632
1.03003
1.03168
1.03263
1.0332
1.03134
1.02731
1.16404
1.56948
0.909099
0.911837
0.917784
0.923379
0.925603
0.926733
0.927622
0.927008
0.923595
0.921932
0.922182
0.922984
0.923943
0.925287
0.9293
0.936714
0.940972
0.942806
0.943975
0.944198
0.940783
0.937248
0.936716
0.93743
0.938382
0.939461
0.941542
0.947815
0.954298
0.957172
0.958754
0.960122
0.960177
0.956077
0.952541
0.9523
0.953282
0.95444
0.955672
0.958498
0.96569
0.971098
0.97345
0.975203
0.976632
0.976828
0.973095
0.969367
0.968665
0.969167
0.970047
0.971543
0.975977
0.983465
0.987909
0.990036
0.991794
0.993207
0.993439
0.989879
0.98589
0.98493
0.985701
0.986829
0.988586
0.994232
1.00109
1.00479
1.00677
1.00863
1.01011
1.01049
1.00691
1.00257
1.00116
1.0015
1.00242
1.00449
1.01111
1.01801
1.02144
1.02309
1.02452
1.02574
1.02543
1.02077
1.01534
1.01306
1.01298
1.01379
1.01796
1.02481
1.02901
1.03097
1.03219
1.03181
1.03479
1.16521
1.57003
0.910163
0.912035
0.914723
0.921531
0.926062
0.928025
0.929127
0.929817
0.927864
0.92423
0.923485
0.924152
0.925102
0.9261
0.927574
0.93237
0.93959
0.943113
0.944761
0.945852
0.945803
0.941958
0.93883
0.93867
0.93947
0.940488
0.941612
0.943866
0.950514
0.956663
0.959348
0.96074
0.961672
0.961509
0.957913
0.954977
0.95473
0.955241
0.956019
0.957244
0.960423
0.968039
0.973581
0.975904
0.977196
0.978224
0.978599
0.975087
0.970946
0.96996
0.9707
0.971859
0.973476
0.977762
0.985414
0.990292
0.992403
0.993681
0.994787
0.995354
0.992263
0.987858
0.9863
0.986732
0.987869
0.989407
0.994459
1.00236
1.00713
1.00922
1.0106
1.01189
1.01262
1.00965
1.00459
1.00203
1.00199
1.00303
1.00478
1.01035
1.01808
1.02267
1.02471
1.026
1.02697
1.02705
1.02322
1.01696
1.01352
1.01296
1.0135
1.01628
1.02285
1.02769
1.03056
1.0311
1.03776
1.17116
1.57132
0.911428
0.913047
0.913942
0.917519
0.924549
0.928642
0.930411
0.93156
0.931869
0.928616
0.925533
0.925365
0.925995
0.926805
0.927791
0.929483
0.935045
0.941941
0.945053
0.946571
0.947856
0.947787
0.943859
0.940908
0.940807
0.941583
0.942501
0.943545
0.945875
0.952452
0.958196
0.960679
0.962148
0.963517
0.963786
0.960084
0.956433
0.955941
0.956896
0.95814
0.959447
0.962274
0.969265
0.974467
0.976703
0.978083
0.979326
0.980015
0.977434
0.973567
0.972524
0.973192
0.97432
0.975651
0.979097
0.986204
0.991035
0.993235
0.994644
0.99587
0.996647
0.994598
0.990176
0.988101
0.988455
0.989712
0.991429
0.995604
1.00298
1.00795
1.01035
1.01184
1.01293
1.01371
1.01192
1.00702
1.00384
1.00343
1.00433
1.00588
1.01053
1.01808
1.02311
1.02546
1.02678
1.02753
1.02769
1.025
1.01869
1.01417
1.01289
1.013
1.01498
1.02107
1.02674
1.02903
1.03835
1.1795
1.5727
0.912321
0.913872
0.914618
0.916182
0.920622
0.927459
0.931065
0.932712
0.933651
0.933395
0.929488
0.926742
0.926764
0.927688
0.928707
0.929776
0.931829
0.937852
0.944323
0.947289
0.948693
0.949726
0.949529
0.94552
0.942665
0.9424
0.943031
0.943911
0.945122
0.947698
0.954292
0.960106