/*--------------------------------*- C++ -*----------------------------------*\
  =========                 |
  \\      /  F ield         | OpenFOAM: The Open Source CFD Toolbox
   \\    /   O peration     | Website:  https://openfoam.org
    \\  /    A nd           | Version:  12
     \\/     M anipulation  |
\*---------------------------------------------------------------------------*/
FoamFile
{
    format      ascii;
    class       volVectorField;
    location    "6.8";
    object      U;
}
// * * * * * * * * * * * * * * * * * * * * * * * * * * * * * * * * * * * * * //

dimensions      [0 1 -1 0 0 0 0];

internalField   nonuniform List<vector> 
9801
(
(1.14131 -0.0688641 0)
(1.14569 -0.0645825 0)
(1.14593 -0.0622731 0)
(1.14376 -0.0600407 0)
(1.14033 -0.05743 0)
(1.13643 -0.0544639 0)
(1.13294 -0.0513093 0)
(1.13001 -0.0484292 0)
(1.12726 -0.0462633 0)
(1.12473 -0.0444426 0)
(1.12446 -0.0423441 0)
(1.12829 -0.0403602 0)
(1.13071 -0.0380184 0)
(1.12973 -0.0357342 0)
(1.12701 -0.0335146 0)
(1.12283 -0.0311417 0)
(1.11841 -0.0283746 0)
(1.11483 -0.0255923 0)
(1.11178 -0.0234027 0)
(1.10882 -0.021795 0)
(1.10638 -0.0201278 0)
(1.10781 -0.0181287 0)
(1.11229 -0.0158633 0)
(1.11326 -0.0136197 0)
(1.11123 -0.0116665 0)
(1.10744 -0.00977474 0)
(1.1021 -0.00762854 0)
(1.09746 -0.00504071 0)
(1.09393 -0.0025676 0)
(1.09088 -0.000861615 0)
(1.08781 0.000371075 0)
(1.0861 0.00189546 0)
(1.08972 0.00368235 0)
(1.09321 0.00570839 0)
(1.0924 0.00755734 0)
(1.08922 0.00901192 0)
(1.08387 0.0105576 0)
(1.07766 0.012556 0)
(1.07306 0.0150753 0)
(1.06942 0.0171352 0)
(1.0662 0.0182697 0)
(1.06303 0.0191849 0)
(1.06354 0.0206581 0)
(1.06874 0.0225072 0)
(1.06978 0.0241276 0)
(1.06675 0.0253711 0)
(1.06139 0.0263501 0)
(1.05396 0.0274935 0)
(1.04767 0.0295199 0)
(1.04326 0.0315783 0)
(1.0395 0.0329315 0)
(1.03576 0.0335916 0)
(1.03358 0.0344214 0)
(1.03867 0.0359348 0)
(1.04291 0.0376002 0)
(1.04109 0.0387419 0)
(1.03616 0.0394678 0)
(1.02715 0.0399099 0)
(1.01774 0.0408739 0)
(1.01127 0.0425512 0)
(1.00618 0.0439542 0)
(1.00193 0.0448204 0)
(0.998105 0.0453511 0)
(1.00099 0.0465791 0)
(1.00823 0.047903 0)
(1.00851 0.0486652 0)
(1.00417 0.0489166 0)
(0.99551 0.0490332 0)
(0.981154 0.0489959 0)
(0.970979 0.0501188 0)
(0.964764 0.0518586 0)
(0.95951 0.0532775 0)
(0.954954 0.0540383 0)
(0.955733 0.0548555 0)
(0.963481 0.0551824 0)
(0.965405 0.0552289 0)
(0.961696 0.0556139 0)
(0.954421 0.0570513 0)
(0.937512 0.0587746 0)
(0.919255 0.0607061 0)
(0.907896 0.0628517 0)
(0.900538 0.0638722 0)
(0.894369 0.064079 0)
(0.897082 0.0631384 0)
(0.907433 0.0632495 0)
(0.906894 0.0653347 0)
(0.900065 0.0676916 0)
(0.88987 0.0703246 0)
(0.86965 0.0717913 0)
(0.839108 0.0711796 0)
(0.816435 0.0687209 0)
(0.802991 0.0657688 0)
(0.79478 0.0632629 0)
(0.800263 0.0605495 0)
(0.796301 0.0546865 0)
(0.77274 0.0467465 0)
(0.73961 0.0331453 0)
(0.342187 -0.0474587 0)
(-0.573201 -0.031896 0)
(1.22065 -0.117571 0)
(1.2217 -0.113512 0)
(1.21931 -0.110436 0)
(1.21572 -0.10775 0)
(1.21172 -0.105451 0)
(1.20566 -0.102564 0)
(1.19923 -0.0995449 0)
(1.19447 -0.0968082 0)
(1.19068 -0.0946152 0)
(1.18766 -0.0925776 0)
(1.18852 -0.0898685 0)
(1.1918 -0.0873487 0)
(1.19117 -0.0844184 0)
(1.1883 -0.0815543 0)
(1.18457 -0.0792942 0)
(1.18003 -0.0770373 0)
(1.17281 -0.0741761 0)
(1.16665 -0.0713653 0)
(1.16212 -0.0689262 0)
(1.15842 -0.0670053 0)
(1.15568 -0.0650163 0)
(1.15755 -0.0624 0)
(1.15986 -0.0595399 0)
(1.15819 -0.0565927 0)
(1.15483 -0.0541521 0)
(1.15091 -0.0522778 0)
(1.14475 -0.0498545 0)
(1.13678 -0.0469205 0)
(1.13114 -0.0442225 0)
(1.12689 -0.0421159 0)
(1.12326 -0.0405218 0)
(1.12147 -0.0385395 0)
(1.12459 -0.0359294 0)
(1.12564 -0.03305 0)
(1.12315 -0.0304653 0)
(1.11939 -0.028636 0)
(1.11465 -0.0268727 0)
(1.10584 -0.0242215 0)
(1.09822 -0.0213233 0)
(1.09284 -0.0188575 0)
(1.08874 -0.0171474 0)
(1.08528 -0.0157302 0)
(1.08554 -0.0135178 0)
(1.08918 -0.0105166 0)
(1.08876 -0.00772253 0)
(1.08532 -0.00568988 0)
(1.08136 -0.00454035 0)
(1.0735 -0.00280855 0)
(1.06354 -0.000110738 0)
(1.05698 0.00247823 0)
(1.05218 0.00453686 0)
(1.04804 0.00587008 0)
(1.04548 0.00728836 0)
(1.04907 0.00992451 0)
(1.05163 0.0130315 0)
(1.04931 0.0154676 0)
(1.04519 0.016582 0)
(1.03889 0.0176164 0)
(1.0272 0.0193526 0)
(1.01825 0.0219069 0)
(1.01225 0.0242041 0)
(1.0076 0.025764 0)
(1.00325 0.0267318 0)
(1.00468 0.028815 0)
(1.0105 0.0320004 0)
(1.00982 0.0348749 0)
(1.00566 0.0363837 0)
(1.00014 0.0373536 0)
(0.987223 0.0378946 0)
(0.974436 0.0389942 0)
(0.966873 0.0409215 0)
(0.960976 0.0422715 0)
(0.956076 0.0427647 0)
(0.956354 0.0448789 0)
(0.9638 0.0486154 0)
(0.964776 0.0522465 0)
(0.960423 0.054181 0)
(0.954467 0.0549571 0)
(0.941358 0.0548583 0)
(0.922117 0.0535865 0)
(0.90968 0.0538983 0)
(0.901764 0.0545898 0)
(0.895397 0.0545905 0)
(0.895819 0.0571452 0)
(0.902407 0.0622794 0)
(0.902483 0.0683664 0)
(0.896778 0.0715915 0)
(0.888414 0.0717019 0)
(0.872461 0.0692995 0)
(0.842659 0.0636919 0)
(0.815832 0.0599126 0)
(0.79857 0.0588731 0)
(0.786899 0.0587465 0)
(0.784616 0.0635427 0)
(0.779168 0.0631242 0)
(0.76034 0.0581384 0)
(0.737535 0.0499203 0)
(0.346415 -0.040088 0)
(-0.578171 -0.0317104 0)
(1.21583 -0.113864 0)
(1.21658 -0.109904 0)
(1.21453 -0.107771 0)
(1.21112 -0.105202 0)
(1.20706 -0.102765 0)
(1.20124 -0.100014 0)
(1.19479 -0.0974428 0)
(1.19005 -0.0949016 0)
(1.1862 -0.092385 0)
(1.18312 -0.089936 0)
(1.1838 -0.0868279 0)
(1.18681 -0.0841046 0)
(1.18638 -0.0817314 0)
(1.18375 -0.0793213 0)
(1.1801 -0.0770213 0)
(1.1756 -0.0746551 0)
(1.16867 -0.0721956 0)
(1.1626 -0.0699836 0)
(1.15799 -0.0676233 0)
(1.15412 -0.0652957 0)
(1.15123 -0.0629223 0)
(1.15283 -0.0598589 0)
(1.15523 -0.0571013 0)
(1.15393 -0.054675 0)
(1.15076 -0.0523538 0)
(1.14677 -0.0502394 0)
(1.14088 -0.0478729 0)
(1.13326 -0.0458139 0)
(1.12771 -0.0438252 0)
(1.12318 -0.0416001 0)
(1.11933 -0.0394924 0)
(1.11721 -0.0370115 0)
(1.12019 -0.0338952 0)
(1.12161 -0.0312293 0)
(1.1194 -0.0289489 0)
(1.11568 -0.0269976 0)
(1.11092 -0.0250263 0)
(1.1026 -0.0230743 0)
(1.09544 -0.0214473 0)
(1.09006 -0.0195244 0)
(1.08561 -0.0174004 0)
(1.0818 -0.0153897 0)
(1.08145 -0.012393 0)
(1.08545 -0.00895432 0)
(1.08548 -0.00634533 0)
(1.08221 -0.00427559 0)
(1.0781 -0.00280328 0)
(1.07047 -0.00117924 0)
(1.0611 -8.08604e-05 0)
(1.05475 0.00127606 0)
(1.04958 0.00310355 0)
(1.04519 0.00500753 0)
(1.04216 0.00705369 0)
(1.04526 0.0104845 0)
(1.04846 0.0138992 0)
(1.04657 0.0165034 0)
(1.04254 0.0181421 0)
(1.03646 0.0196594 0)
(1.02508 0.0201472 0)
(1.01595 0.0208895 0)
(1.00954 0.0224739 0)
(1.00455 0.0242455 0)
(1.00022 0.025966 0)
(1.00118 0.028628 0)
(1.00713 0.0324228 0)
(1.0072 0.0357131 0)
(1.00341 0.0378283 0)
(0.998293 0.0391762 0)
(0.98623 0.0392434 0)
(0.972099 0.038124 0)
(0.96351 0.0388822 0)
(0.957201 0.0405419 0)
(0.952149 0.0419298 0)
(0.951662 0.0446485 0)
(0.958717 0.0495711 0)
(0.960719 0.0540456 0)
(0.956893 0.0568596 0)
(0.951402 0.0576841 0)
(0.94028 0.0570021 0)
(0.919921 0.0528913 0)
(0.90537 0.0508354 0)
(0.896864 0.0517101 0)
(0.890129 0.0524021 0)
(0.887248 0.0552045 0)
(0.892429 0.0617877 0)
(0.89477 0.0654294 0)
(0.890469 0.0655691 0)
(0.882928 0.0654953 0)
(0.86961 0.0657679 0)
(0.841362 0.0614652 0)
(0.813813 0.053866 0)
(0.795198 0.0498585 0)
(0.782643 0.0477659 0)
(0.775676 0.0443579 0)
(0.771407 0.0380967 0)
(0.756893 0.0316227 0)
(0.744366 0.0292145 0)
(0.354504 -0.0424194 0)
(-0.579073 -0.0207093 0)
(1.2072 -0.111649 0)
(1.2073 -0.107521 0)
(1.20519 -0.105573 0)
(1.202 -0.103203 0)
(1.19821 -0.100964 0)
(1.19288 -0.0981532 0)
(1.18609 -0.0953288 0)
(1.18131 -0.092999 0)
(1.17752 -0.0908209 0)
(1.17454 -0.0883996 0)
(1.17551 -0.0852161 0)
(1.17823 -0.0823732 0)
(1.17755 -0.079973 0)
(1.17498 -0.0777418 0)
(1.17156 -0.0756526 0)
(1.16747 -0.0735459 0)
(1.16103 -0.0709796 0)
(1.15456 -0.0686216 0)
(1.14996 -0.066354 0)
(1.14615 -0.0640734 0)
(1.14341 -0.0615062 0)
(1.14506 -0.0583394 0)
(1.14718 -0.0556858 0)
(1.14587 -0.0535028 0)
(1.14294 -0.0514446 0)
(1.1392 -0.0495038 0)
(1.13397 -0.0472658 0)
(1.12621 -0.0450217 0)
(1.12047 -0.0429357 0)
(1.11607 -0.0406463 0)
(1.1123 -0.0383418 0)
(1.11031 -0.0355804 0)
(1.11319 -0.0324145 0)
(1.11453 -0.029923 0)
(1.11242 -0.0279652 0)
(1.10893 -0.0262506 0)
(1.10462 -0.0245012 0)
(1.09665 -0.0226 0)
(1.08898 -0.0207604 0)
(1.08374 -0.018587 0)
(1.07944 -0.016256 0)
(1.0757 -0.0139857 0)
(1.07531 -0.0110105 0)
(1.07924 -0.00786466 0)
(1.07939 -0.00550661 0)
(1.07638 -0.00369876 0)
(1.0725 -0.00236447 0)
(1.06578 -0.000907406 0)
(1.05587 2.368e-06 0)
(1.04895 0.00160143 0)
(1.04377 0.00383885 0)
(1.0394 0.00617502 0)
(1.03631 0.00870227 0)
(1.03905 0.0122425 0)
(1.04261 0.0153635 0)
(1.04116 0.0175236 0)
(1.03742 0.0188509 0)
(1.03253 0.0198344 0)
(1.02164 0.0197956 0)
(1.01081 0.019928 0)
(1.00398 0.0217134 0)
(0.998824 0.0239748 0)
(0.9943 0.0262416 0)
(0.994524 0.0294993 0)
(1.00041 0.0333771 0)
(1.00136 0.0362081 0)
(0.998075 0.0380456 0)
(0.993661 0.0388914 0)
(0.984168 0.0391387 0)
(0.96842 0.0373556 0)
(0.95781 0.0372517 0)
(0.951102 0.0389521 0)
(0.945764 0.0404945 0)
(0.943334 0.043067 0)
(0.949131 0.0483138 0)
(0.952639 0.0526249 0)
(0.949881 0.0546211 0)
(0.94489 0.0554359 0)
(0.937032 0.0560059 0)
(0.918266 0.0529936 0)
(0.899881 0.0488995 0)
(0.889392 0.0483677 0)
(0.882338 0.0492622 0)
(0.876888 0.0507246 0)
(0.879115 0.0559304 0)
(0.882716 0.0627489 0)
(0.879621 0.0672344 0)
(0.872762 0.0689633 0)
(0.863394 0.0690231 0)
(0.842033 0.0633602 0)
(0.812321 0.0519634 0)
(0.790477 0.0436139 0)
(0.776075 0.041309 0)
(0.764664 0.0401899 0)
(0.759681 0.033711 0)
(0.751003 0.0249737 0)
(0.745686 0.0211702 0)
(0.36646 -0.03468 0)
(-0.57893 -0.0167037 0)
(1.19809 -0.108271 0)
(1.198 -0.104112 0)
(1.19571 -0.102341 0)
(1.19252 -0.100229 0)
(1.1888 -0.0981562 0)
(1.18362 -0.095391 0)
(1.17676 -0.0925193 0)
(1.17183 -0.0901667 0)
(1.16807 -0.0881298 0)
(1.16515 -0.085839 0)
(1.16656 -0.0824251 0)
(1.16956 -0.0794545 0)
(1.16885 -0.0771878 0)
(1.16623 -0.075139 0)
(1.16286 -0.0732156 0)
(1.15895 -0.0712581 0)
(1.15283 -0.0687621 0)
(1.14587 -0.066292 0)
(1.14112 -0.0640723 0)
(1.13737 -0.062066 0)
(1.13476 -0.0596379 0)
(1.13684 -0.0561463 0)
(1.13919 -0.0531462 0)
(1.1379 -0.0509228 0)
(1.13498 -0.0490576 0)
(1.13138 -0.0473851 0)
(1.12661 -0.0454461 0)
(1.11873 -0.043468 0)
(1.11242 -0.041481 0)
(1.10796 -0.0393984 0)
(1.10425 -0.0373914 0)
(1.10233 -0.0346766 0)
(1.10542 -0.03104 0)
(1.10709 -0.0280783 0)
(1.10515 -0.0259468 0)
(1.10187 -0.0242651 0)
(1.09796 -0.0227127 0)
(1.0907 -0.02116 0)
(1.08198 -0.0199109 0)
(1.07635 -0.0180585 0)
(1.07201 -0.0160448 0)
(1.0683 -0.0140316 0)
(1.06786 -0.0110758 0)
(1.07186 -0.00754077 0)
(1.07242 -0.0046555 0)
(1.06981 -0.00248895 0)
(1.06623 -0.000916662 0)
(1.06095 0.000535499 0)
(1.05079 0.000869785 0)
(1.04212 0.00171899 0)
(1.03663 0.00383589 0)
(1.03223 0.00596425 0)
(1.02906 0.0082465 0)
(1.03147 0.0117142 0)
(1.03546 0.0151381 0)
(1.03463 0.0176606 0)
(1.03136 0.0195702 0)
(1.02737 0.0208356 0)
(1.0187 0.0213119 0)
(1.00569 0.0201748 0)
(0.997174 0.0209308 0)
(0.991876 0.0229405 0)
(0.987263 0.0249725 0)
(0.986371 0.0282929 0)
(0.991939 0.0332645 0)
(0.993873 0.0368429 0)
(0.991194 0.0388328 0)
(0.987154 0.0399948 0)
(0.980691 0.0407652 0)
(0.966145 0.0383523 0)
(0.952335 0.0359676 0)
(0.944301 0.0365502 0)
(0.938664 0.0380563 0)
(0.934388 0.0402356 0)
(0.937366 0.0459287 0)
(0.942752 0.0527746 0)
(0.941701 0.056053 0)
(0.937248 0.0569246 0)
(0.931568 0.0570862 0)
(0.918222 0.0546388 0)
(0.897284 0.0485236 0)
(0.883061 0.0451642 0)
(0.874831 0.0452253 0)
(0.86846 0.0460558 0)
(0.866656 0.0495153 0)
(0.87084 0.0569044 0)
(0.870555 0.0625117 0)
(0.864769 0.0647004 0)
(0.856911 0.0648264 0)
(0.843045 0.06268 0)
(0.817033 0.0519518 0)
(0.791377 0.0395843 0)
(0.773992 0.0321775 0)
(0.763222 0.0294046 0)
(0.758769 0.0217081 0)
(0.756514 0.0133144 0)
(0.755325 0.0106791 0)
(0.375854 -0.0219264 0)
(-0.579763 -0.0131534 0)
(1.18974 -0.105727 0)
(1.18993 -0.101149 0)
(1.18767 -0.0992421 0)
(1.18445 -0.0972297 0)
(1.18071 -0.0952787 0)
(1.17554 -0.0928453 0)
(1.16871 -0.0903754 0)
(1.16359 -0.0882258 0)
(1.15977 -0.0863068 0)
(1.15678 -0.0843227 0)
(1.15824 -0.0807621 0)
(1.16191 -0.0770815 0)
(1.16148 -0.0745878 0)
(1.1589 -0.0726117 0)
(1.15556 -0.0708068 0)
(1.15171 -0.0689613 0)
(1.14565 -0.0667128 0)
(1.13826 -0.064561 0)
(1.13334 -0.0625158 0)
(1.12963 -0.06057 0)
(1.12699 -0.0582684 0)
(1.12915 -0.0546587 0)
(1.13209 -0.0514014 0)
(1.13109 -0.0490237 0)
(1.12831 -0.0469953 0)
(1.1248 -0.0452595 0)
(1.12044 -0.0435613 0)
(1.11259 -0.0419375 0)
(1.10531 -0.0402848 0)
(1.10067 -0.0382001 0)
(1.09696 -0.0361556 0)
(1.09487 -0.0335203 0)
(1.09807 -0.0297614 0)
(1.10036 -0.0266376 0)
(1.09879 -0.0243386 0)
(1.09573 -0.0224108 0)
(1.09203 -0.0208989 0)
(1.08596 -0.0195679 0)
(1.07631 -0.0189286 0)
(1.06952 -0.0176238 0)
(1.06504 -0.0155453 0)
(1.06132 -0.0133527 0)
(1.06061 -0.0100677 0)
(1.06478 -0.00610455 0)
(1.06595 -0.00318295 0)
(1.06377 -0.000995336 0)
(1.06041 0.000745848 0)
(1.05623 0.00203075 0)
(1.04719 0.00233387 0)
(1.03635 0.00209821 0)
(1.0298 0.00334452 0)
(1.02536 0.00539367 0)
(1.02203 0.00789791 0)
(1.02387 0.0120996 0)
(1.02856 0.0163607 0)
(1.02837 0.0187869 0)
(1.0254 0.0202568 0)
(1.02168 0.0211968 0)
(1.01551 0.0219426 0)
(1.00233 0.0210934 0)
(0.991285 0.0207196 0)
(0.985184 0.0218467 0)
(0.980447 0.0235018 0)
(0.978015 0.0263169 0)
(0.982854 0.0322993 0)
(0.986776 0.0375054 0)
(0.984919 0.0395868 0)
(0.980992 0.0401894 0)
(0.976088 0.0405195 0)
(0.964978 0.0392643 0)
(0.948924 0.036129 0)
(0.938353 0.0352108 0)
(0.932046 0.0362093 0)
(0.926996 0.0376623 0)
(0.926209 0.0416814 0)
(0.932616 0.0499042 0)
(0.934677 0.0555671 0)
(0.931246 0.0573113 0)
(0.926153 0.0575722 0)
(0.917659 0.0569977 0)
(0.898638 0.0508848 0)
(0.880514 0.0447979 0)
(0.869906 0.042391 0)
(0.862824 0.0421773 0)
(0.85775 0.0435027 0)
(0.859533 0.049416 0)
(0.861865 0.0566297 0)
(0.858259 0.0611462 0)
(0.851114 0.0631052 0)
(0.842243 0.0629862 0)
(0.825233 0.0566775 0)
(0.800017 0.0420171 0)
(0.778766 0.0295388 0)
(0.765037 0.0225639 0)
(0.75843 0.0166871 0)
(0.759601 0.00820814 0)
(0.761587 0.00486726 0)
(0.383455 -0.0123605 0)
(-0.580919 -0.010126 0)
(1.18316 -0.103413 0)
(1.18367 -0.0985456 0)
(1.18149 -0.096626 0)
(1.1783 -0.0945448 0)
(1.17468 -0.0925682 0)
(1.16999 -0.0903442 0)
(1.16319 -0.0880239 0)
(1.15786 -0.0858606 0)
(1.15402 -0.0838893 0)
(1.1509 -0.0820805 0)
(1.15157 -0.0790202 0)
(1.15567 -0.0752851 0)
(1.15565 -0.0725391 0)
(1.15315 -0.0704627 0)
(1.14989 -0.0685695 0)
(1.14613 -0.0667058 0)
(1.14055 -0.0645744 0)
(1.13292 -0.0624803 0)
(1.12764 -0.0605726 0)
(1.12381 -0.0588908 0)
(1.12082 -0.0571112 0)
(1.12259 -0.0536202 0)
(1.12617 -0.0498247 0)
(1.12556 -0.0472216 0)
(1.12285 -0.0453 0)
(1.11943 -0.0436511 0)
(1.11551 -0.0420728 0)
(1.10835 -0.0404726 0)
(1.10008 -0.0389573 0)
(1.09489 -0.0371913 0)
(1.0911 -0.0354053 0)
(1.08873 -0.0330005 0)
(1.09174 -0.0289054 0)
(1.09464 -0.0252885 0)
(1.09339 -0.0229833 0)
(1.09038 -0.0213229 0)
(1.08678 -0.0199581 0)
(1.08207 -0.0185624 0)
(1.07275 -0.0177722 0)
(1.06435 -0.0167605 0)
(1.05934 -0.0151663 0)
(1.05553 -0.013441 0)
(1.0542 -0.0103958 0)
(1.05837 -0.00559583 0)
(1.06029 -0.00208318 0)
(1.05838 -0.000135822 0)
(1.05515 0.00128411 0)
(1.05137 0.00246802 0)
(1.04467 0.00347891 0)
(1.03307 0.0032292 0)
(1.02479 0.00378955 0)
(1.01996 0.00487314 0)
(1.01615 0.00617182 0)
(1.01647 0.00973122 0)
(1.0219 0.0156225 0)
(1.02297 0.0194954 0)
(1.02035 0.0214329 0)
(1.01668 0.0225469 0)
(1.01183 0.0235306 0)
(1.00076 0.0230077 0)
(0.987985 0.0215932 0)
(0.980167 0.0217534 0)
(0.974946 0.0226415 0)
(0.971103 0.0240314 0)
(0.97321 0.0289536 0)
(0.979595 0.0365848 0)
(0.98001 0.0405392 0)
(0.976585 0.0417041 0)
(0.972152 0.0419374 0)
(0.964185 0.0414676 0)
(0.948348 0.0377316 0)
(0.935101 0.0350694 0)
(0.927393 0.0347235 0)
(0.921965 0.0353747 0)
(0.918063 0.0370583 0)
(0.921815 0.0436149 0)
(0.927657 0.0520636 0)
(0.926692 0.0564738 0)
(0.922144 0.0579193 0)
(0.916353 0.0582555 0)
(0.903554 0.0552516 0)
(0.883172 0.0458609 0)
(0.868378 0.0403817 0)
(0.859548 0.0391084 0)
(0.853228 0.039186 0)
(0.850719 0.0418966 0)
(0.853724 0.0489312 0)
(0.853577 0.0542402 0)
(0.849052 0.0564634 0)
(0.842023 0.0570321 0)
(0.831615 0.0560259 0)
(0.812978 0.0476729 0)
(0.789876 0.0316564 0)
(0.771371 0.0196471 0)
(0.761174 0.0123891 0)
(0.760607 0.00237108 0)
(0.765263 -0.00142814 0)
(0.388485 -0.00365805 0)
(-0.582027 -0.00756388 0)
(1.17817 -0.101475 0)
(1.17896 -0.0965241 0)
(1.17716 -0.0942554 0)
(1.17415 -0.0918991 0)
(1.17068 -0.0899112 0)
(1.16637 -0.0877982 0)
(1.15966 -0.0855304 0)
(1.15407 -0.0835538 0)
(1.1502 -0.0817906 0)
(1.14698 -0.0801907 0)
(1.14678 -0.0773747 0)
(1.15069 -0.07379 0)
(1.15117 -0.0708827 0)
(1.14898 -0.0684592 0)
(1.14589 -0.0662687 0)
(1.14227 -0.0643528 0)
(1.13734 -0.062398 0)
(1.12966 -0.0605991 0)
(1.12387 -0.0588472 0)
(1.11988 -0.0570671 0)
(1.11666 -0.0552976 0)
(1.11738 -0.0520371 0)
(1.12134 -0.0481406 0)
(1.1213 -0.0454875 0)
(1.11886 -0.0434065 0)
(1.11564 -0.0416185 0)
(1.11196 -0.0400899 0)
(1.10579 -0.038553 0)
(1.09686 -0.0373244 0)
(1.09095 -0.0357084 0)
(1.08697 -0.034107 0)
(1.08394 -0.0323263 0)
(1.08595 -0.0284133 0)
(1.08982 -0.0240579 0)
(1.08923 -0.0214947 0)
(1.08649 -0.0196251 0)
(1.08306 -0.0180996 0)
(1.0791 -0.0168392 0)
(1.07087 -0.0160525 0)
(1.06123 -0.0155207 0)
(1.05527 -0.0140933 0)
(1.05115 -0.0126679 0)
(1.04839 -0.0107272 0)
(1.05177 -0.00575339 0)
(1.05547 -0.000877035 0)
(1.05442 0.00155187 0)
(1.05143 0.00307145 0)
(1.04782 0.00411752 0)
(1.04264 0.00490901 0)
(1.03153 0.00440041 0)
(1.02186 0.00404864 0)
(1.0159 0.005073 0)
(1.01157 0.00636838 0)
(1.00918 0.00871768 0)
(1.01395 0.0150382 0)
(1.01788 0.020828 0)
(1.01641 0.0230695 0)
(1.01292 0.0241716 0)
(1.00883 0.0248617 0)
(1.00042 0.0245693 0)
(0.986701 0.0220587 0)
(0.977213 0.021241 0)
(0.971052 0.0221263 0)
(0.966565 0.0230675 0)
(0.96461 0.0255515 0)
(0.97084 0.0330545 0)
(0.975123 0.0397521 0)
(0.973246 0.0424255 0)
(0.969205 0.0433555 0)
(0.96391 0.0438091 0)
(0.950999 0.0407548 0)
(0.934936 0.0352324 0)
(0.924978 0.0333709 0)
(0.918576 0.0336109 0)
(0.91347 0.0343335 0)
(0.911767 0.0376682 0)
(0.918219 0.0470152 0)
(0.921601 0.0544417 0)
(0.918918 0.0576475 0)
(0.91392 0.0585768 0)
(0.90693 0.0584589 0)
(0.890444 0.0524501 0)
(0.870667 0.0424516 0)
(0.858645 0.0379567 0)
(0.851336 0.0365833 0)
(0.845673 0.0365207 0)
(0.845474 0.0406989 0)
(0.847471 0.0478026 0)
(0.845225 0.0519995 0)
(0.839813 0.0532602 0)
(0.832531 0.0531612 0)
(0.821823 0.0490214 0)
(0.804341 0.037688 0)
(0.78332 0.0208713 0)
(0.767214 0.00898869 0)
(0.761363 -0.00166416 0)
(0.765718 -0.00902983 0)
(0.391989 0.00297321 0)
(-0.582653 -0.0057653 0)
(1.17437 -0.0991621 0)
(1.17538 -0.0941188 0)
(1.1739 -0.091929 0)
(1.171 -0.0896539 0)
(1.16763 -0.0876578 0)
(1.16356 -0.0855438 0)
(1.15717 -0.0832132 0)
(1.15133 -0.0812797 0)
(1.14735 -0.0796502 0)
(1.14406 -0.078285 0)
(1.14312 -0.075796 0)
(1.14671 -0.0718651 0)
(1.1476 -0.0687698 0)
(1.14567 -0.0664423 0)
(1.14275 -0.0643605 0)
(1.13924 -0.0625258 0)
(1.13487 -0.060647 0)
(1.12742 -0.0587926 0)
(1.12111 -0.0571857 0)
(1.11696 -0.05559 0)
(1.11355 -0.0541411 0)
(1.11283 -0.0512199 0)
(1.11702 -0.0466991 0)
(1.11792 -0.0436015 0)
(1.11578 -0.0416518 0)
(1.11269 -0.039949 0)
(1.10909 -0.0384361 0)
(1.10371 -0.0368187 0)
(1.09477 -0.0356599 0)
(1.08815 -0.0344959 0)
(1.08387 -0.0330781 0)
(1.08035 -0.031698 0)
(1.08036 -0.0283875 0)
(1.08514 -0.0231694 0)
(1.08586 -0.0199289 0)
(1.08349 -0.0181762 0)
(1.08022 -0.0167501 0)
(1.07649 -0.0155133 0)
(1.06954 -0.0144478 0)
(1.05924 -0.0142639 0)
(1.05232 -0.0133922 0)
(1.04777 -0.0119718 0)
(1.04412 -0.0105254 0)
(1.04488 -0.00674699 0)
(1.0504 -0.000685944 0)
(1.05112 0.00269198 0)
(1.04849 0.00411056 0)
(1.04499 0.00509312 0)
(1.04077 0.00597791 0)
(1.0313 0.0056784 0)
(1.01992 0.00453089 0)
(1.01267 0.00513395 0)
(1.00773 0.00660057 0)
(1.00389 0.00795854 0)
(1.00521 0.0124762 0)
(1.01195 0.0200716 0)
(1.0131 0.0242045 0)
(1.01026 0.0254505 0)
(1.0063 0.0258965 0)
(1.00048 0.0260788 0)
(0.987576 0.0234045 0)
(0.975619 0.020918 0)
(0.968496 0.0211145 0)
(0.963334 0.0223246 0)
(0.959295 0.0236829 0)
(0.960829 0.0286778 0)
(0.968243 0.0378504 0)
(0.969606 0.0430342 0)
(0.966415 0.0447197 0)
(0.962028 0.0450451 0)
(0.954635 0.0441958 0)
(0.938707 0.0377623 0)
(0.924636 0.0324607 0)
(0.916347 0.0318503 0)
(0.910691 0.0325706 0)
(0.906208 0.0335877 0)
(0.907838 0.0389436 0)
(0.914641 0.049105 0)
(0.915564 0.0549184 0)
(0.91177 0.0572077 0)
(0.906393 0.057901 0)
(0.897189 0.057226 0)
(0.878925 0.0485861 0)
(0.861502 0.0382081 0)
(0.850799 0.0343638 0)
(0.844031 0.0334771 0)
(0.839406 0.0340835 0)
(0.840625 0.0392998 0)
(0.841527 0.0448248 0)
(0.838448 0.0469761 0)
(0.833022 0.0470886 0)
(0.825589 0.0465724 0)
(0.814614 0.040408 0)
(0.798879 0.0271324 0)
(0.779336 0.0115265 0)
(0.765085 -0.00156357 0)
(0.765815 -0.0191291 0)
(0.392382 0.00656161 0)
(-0.583334 -0.00496566 0)
(1.17081 -0.096846 0)
(1.17212 -0.0915628 0)
(1.17094 -0.0894513 0)
(1.16815 -0.087328 0)
(1.16492 -0.0853714 0)
(1.16105 -0.0833615 0)
(1.15517 -0.0811487 0)
(1.14914 -0.0793241 0)
(1.14491 -0.0777696 0)
(1.14145 -0.0764631 0)
(1.1394 -0.0743686 0)
(1.14251 -0.0701181 0)
(1.14431 -0.0664545 0)
(1.14269 -0.0641688 0)
(1.13991 -0.0622738 0)
(1.13655 -0.0606075 0)
(1.1326 -0.058936 0)
(1.1256 -0.0571798 0)
(1.11872 -0.0556681 0)
(1.11422 -0.0541353 0)
(1.11066 -0.0527879 0)
(1.10858 -0.0506276 0)
(1.11229 -0.0459158 0)
(1.11462 -0.041882 0)
(1.11287 -0.0397274 0)
(1.10991 -0.0380871 0)
(1.10643 -0.0366243 0)
(1.10186 -0.0351238 0)
(1.09326 -0.0341194 0)
(1.08577 -0.0332691 0)
(1.08103 -0.0320166 0)
(1.07733 -0.0307991 0)
(1.07525 -0.0285855 0)
(1.07963 -0.0232313 0)
(1.08244 -0.0186221 0)
(1.08069 -0.0164712 0)
(1.07756 -0.015094 0)
(1.07398 -0.0139253 0)
(1.06845 -0.0128403 0)
(1.05803 -0.0128801 0)
(1.04989 -0.0125755 0)
(1.04488 -0.0114477 0)
(1.04101 -0.0103421 0)
(1.03895 -0.00802628 0)
(1.04412 -0.00195814 0)
(1.04759 0.00324427 0)
(1.04585 0.0054752 0)
(1.04249 0.006576 0)
(1.0387 0.00751416 0)
(1.0316 0.00786667 0)
(1.01917 0.00634619 0)
(1.01028 0.00600124 0)
(1.0049 0.00702658 0)
(1.00072 0.00825474 0)
(0.998378 0.010362 0)
(1.00429 0.0169298 0)
(1.00934 0.0233198 0)
(1.00797 0.0261332 0)
(1.00424 0.0270106 0)
(0.999889 0.0276681 0)
(0.990373 0.0263661 0)
(0.976143 0.0223974 0)
(0.96663 0.0209677 0)
(0.960725 0.0216207 0)
(0.956077 0.0225964 0)
(0.953202 0.0246267 0)
(0.958819 0.0325008 0)
(0.964796 0.0412274 0)
(0.96387 0.0449419 0)
(0.960088 0.0460235 0)
(0.955298 0.0461743 0)
(0.944617 0.0435583 0)
(0.927279 0.0359981 0)
(0.915657 0.0320087 0)
(0.908899 0.0316146 0)
(0.903729 0.0318008 0)
(0.900046 0.0332872 0)
(0.904186 0.0410553 0)
(0.909519 0.0512258 0)
(0.908371 0.0561317 0)
(0.903812 0.0579505 0)
(0.898267 0.0579176 0)
(0.888005 0.055237 0)
(0.869005 0.0446163 0)
(0.852996 0.0350851 0)
(0.843408 0.0316185 0)
(0.837231 0.0305861 0)
(0.833865 0.0319627 0)
(0.835579 0.0376962 0)
(0.83536 0.0419779 0)
(0.832027 0.042758 0)
(0.826977 0.0417872 0)
(0.820192 0.0392684 0)
(0.810486 0.0306937 0)
(0.795931 0.0176289 0)
(0.777851 0.00257144 0)
(0.767098 -0.0241229 0)
(0.387343 0.00608631 0)
(-0.583966 -0.00421436 0)
(1.16686 -0.0949164 0)
(1.16875 -0.0890008 0)
(1.1681 -0.0867913 0)
(1.16547 -0.0848376 0)
(1.1624 -0.0830028 0)
(1.15878 -0.081227 0)
(1.15347 -0.079341 0)
(1.14717 -0.0777662 0)
(1.14253 -0.0762468 0)
(1.13883 -0.0746785 0)
(1.13584 -0.0729172 0)
(1.13753 -0.0688216 0)
(1.14091 -0.0642699 0)
(1.13996 -0.0618345 0)
(1.13731 -0.0601345 0)
(1.13409 -0.0586144 0)
(1.13042 -0.0571366 0)
(1.12409 -0.0556248 0)
(1.11658 -0.0543654 0)
(1.11161 -0.0529045 0)
(1.10779 -0.051478 0)
(1.10476 -0.049936 0)
(1.10667 -0.0458208 0)
(1.11082 -0.040661 0)
(1.11014 -0.0378223 0)
(1.10738 -0.0361512 0)
(1.10404 -0.0347446 0)
(1.10014 -0.0334274 0)
(1.09245 -0.0326469 0)
(1.08386 -0.0322649 0)
(1.07842 -0.0311099 0)
(1.07438 -0.0297307 0)
(1.07118 -0.0282942 0)
(1.07312 -0.0240012 0)
(1.07824 -0.0181123 0)
(1.07803 -0.0149305 0)
(1.07517 -0.0133859 0)
(1.07171 -0.0122022 0)
(1.06736 -0.0111266 0)
(1.05794 -0.0112433 0)
(1.04819 -0.0117507 0)
(1.04241 -0.010968 0)
(1.03818 -0.00976351 0)
(1.03476 -0.00849801 0)
(1.0367 -0.00402721 0)
(1.04285 0.00303688 0)
(1.04329 0.00678048 0)
(1.04043 0.00838196 0)
(1.0369 0.00935341 0)
(1.03175 0.0100578 0)
(1.02006 0.00852726 0)
(1.00898 0.00675707 0)
(1.00292 0.00679086 0)
(0.998507 0.0072962 0)
(0.994602 0.0082418 0)
(0.995684 0.0126648 0)
(1.00335 0.0216285 0)
(1.00527 0.0266506 0)
(1.00253 0.0287834 0)
(0.998749 0.0296499 0)
(0.99296 0.0298573 0)
(0.979492 0.0259719 0)
(0.966275 0.0217718 0)
(0.95882 0.0210717 0)
(0.953812 0.0217438 0)
(0.949415 0.0225239 0)
(0.948971 0.0259821 0)
(0.957052 0.035932 0)
(0.9606 0.0430148 0)
(0.958246 0.0455751 0)
(0.953965 0.0471703 0)
(0.948119 0.0481452 0)
(0.934599 0.0432007 0)
(0.918174 0.0341491 0)
(0.908213 0.0304413 0)
(0.901896 0.0304012 0)
(0.896885 0.0306767 0)
(0.894697 0.0330092 0)
(0.900556 0.0422073 0)
(0.904348 0.0508331 0)
(0.902236 0.0542264 0)
(0.897368 0.0554674 0)
(0.890973 0.0557413 0)
(0.878829 0.0524332 0)
(0.859988 0.0408535 0)
(0.845472 0.0316326 0)
(0.836551 0.0283688 0)
(0.830902 0.0273676 0)
(0.829192 0.0294383 0)
(0.831495 0.0348863 0)
(0.830998 0.0375324 0)
(0.827766 0.0372712 0)
(0.823224 0.0359799 0)
(0.817197 0.0311606 0)
(0.808669 0.0223298 0)
(0.794634 0.00911291 0)
(0.774875 -0.0186597 0)
(0.379802 0.0010231 0)
(-0.584643 -0.00328755 0)
(1.16243 -0.0934074 0)
(1.16492 -0.0868901 0)
(1.16543 -0.0840923 0)
(1.16302 -0.0822772 0)
(1.16008 -0.0806141 0)
(1.15665 -0.079127 0)
(1.15202 -0.0776571 0)
(1.1453 -0.0764021 0)
(1.14 -0.0748479 0)
(1.13593 -0.0729689 0)
(1.13259 -0.0713175 0)
(1.13229 -0.0680164 0)
(1.13683 -0.0629069 0)
(1.13731 -0.0597052 0)
(1.13489 -0.0579741 0)
(1.13181 -0.0564985 0)
(1.12831 -0.0551022 0)
(1.12279 -0.0537375 0)
(1.11476 -0.0528646 0)
(1.10915 -0.0517435 0)
(1.10504 -0.0503056 0)
(1.10158 -0.0489294 0)
(1.10093 -0.0458862 0)
(1.10593 -0.0401393 0)
(1.10727 -0.0361901 0)
(1.10498 -0.0342515 0)
(1.10182 -0.0328555 0)
(1.09825 -0.0316245 0)
(1.092 -0.0307934 0)
(1.08258 -0.0308971 0)
(1.07612 -0.0301951 0)
(1.07169 -0.0288535 0)
(1.06806 -0.0276051 0)
(1.06697 -0.0248453 0)
(1.07258 -0.0185061 0)
(1.07498 -0.0138313 0)
(1.07289 -0.0116835 0)
(1.06964 -0.0103994 0)
(1.06595 -0.00937272 0)
(1.05865 -0.00923708 0)
(1.04767 -0.0106104 0)
(1.0404 -0.0105884 0)
(1.03561 -0.00939448 0)
(1.03173 -0.00814521 0)
(1.02989 -0.00573856 0)
(1.03589 0.00142644 0)
(1.03977 0.00752945 0)
(1.0381 0.00997096 0)
(1.0347 0.0111178 0)
(1.03087 0.0117603 0)
(1.02249 0.010661 0)
(1.00979 0.00702695 0)
(1.0015 0.00569878 0)
(0.996192 0.00653493 0)
(0.991896 0.00781335 0)
(0.989039 0.00973703 0)
(0.994374 0.0173527 0)
(1.00063 0.0264806 0)
(1.00024 0.0302643 0)
(0.996914 0.0316492 0)
(0.992885 0.0323129 0)
(0.984282 0.0306998 0)
(0.968893 0.0243454 0)
(0.95818 0.0204854 0)
(0.952026 0.0200825 0)
(0.947118 0.0208615 0)
(0.94301 0.0221225 0)
(0.945548 0.0286182 0)
(0.953636 0.0405489 0)
(0.954932 0.0467948 0)
(0.9521 0.0486688 0)
(0.947827 0.0488883 0)
(0.940928 0.0482009 0)
(0.925063 0.0410288 0)
(0.909584 0.032606 0)
(0.900925 0.0296916 0)
(0.895357 0.0294056 0)
(0.890504 0.0295917 0)
(0.889791 0.0333149 0)
(0.895868 0.0437647 0)
(0.897759 0.0516571 0)
(0.894595 0.0548299 0)
(0.88955 0.0556139 0)
(0.883208 0.054766 0)
(0.870646 0.0492797 0)
(0.852156 0.0367791 0)
(0.838662 0.0279099 0)
(0.830497 0.0244822 0)
(0.825546 0.0235869 0)
(0.825345 0.0264926 0)
(0.828 0.0319766 0)
(0.827497 0.0339196 0)
(0.82494 0.0327416 0)
(0.821534 0.029645 0)
(0.816247 0.0237826 0)
(0.809206 0.0150381 0)
(0.788089 -0.00873825 0)
(0.37398 -0.004345 0)
(-0.585133 -0.00168501 0)
(1.15803 -0.0919446 0)
(1.16029 -0.0854587 0)
(1.16266 -0.0817285 0)
(1.16068 -0.0798308 0)
(1.15785 -0.0782656 0)
(1.15455 -0.0769488 0)
(1.15051 -0.0756582 0)
(1.14351 -0.0745721 0)
(1.13718 -0.0731826 0)
(1.13285 -0.0714593 0)
(1.12935 -0.0698356 0)
(1.12749 -0.0673782 0)
(1.13173 -0.0622714 0)
(1.13437 -0.0579424 0)
(1.1326 -0.0557094 0)
(1.12966 -0.054193 0)
(1.12626 -0.0528377 0)
(1.1217 -0.0516364 0)
(1.11369 -0.0512575 0)
(1.10691 -0.050615 0)
(1.10237 -0.0492348 0)
(1.0987 -0.0477335 0)
(1.09622 -0.0456603 0)
(1.09995 -0.0403907 0)
(1.10374 -0.0351725 0)
(1.10248 -0.0325341 0)
(1.09955 -0.0309681 0)
(1.09615 -0.0297257 0)
(1.09149 -0.0287287 0)
(1.08221 -0.0290737 0)
(1.07424 -0.0291573 0)
(1.06932 -0.0281248 0)
(1.06541 -0.0267838 0)
(1.06244 -0.0251136 0)
(1.06557 -0.0199375 0)
(1.07085 -0.0134122 0)
(1.07045 -0.0102029 0)
(1.0675 -0.00868889 0)
(1.06401 -0.00763784 0)
(1.05912 -0.00700052 0)
(1.04854 -0.00856522 0)
(1.03905 -0.00981567 0)
(1.03338 -0.00911197 0)
(1.02905 -0.00769343 0)
(1.02555 -0.00625067 0)
(1.02736 -0.00160008 0)
(1.03452 0.00665239 0)
(1.03567 0.0109499 0)
(1.03283 0.0123208 0)
(1.02927 0.0129782 0)
(1.02428 0.013094 0)
(1.01254 0.00994986 0)
(1.00112 0.00679754 0)
(0.994174 0.00679369 0)
(0.989165 0.00833279 0)
(0.98526 0.00958538 0)
(0.984763 0.0127946 0)
(0.993028 0.0226565 0)
(0.996678 0.0299633 0)
(0.994698 0.0326346 0)
(0.990858 0.0333235 0)
(0.986203 0.0336254 0)
(0.974937 0.0296151 0)
(0.960103 0.0221944 0)
(0.950799 0.0195937 0)
(0.944772 0.0202967 0)
(0.940328 0.0213612 0)
(0.937471 0.0229576 0)
(0.943344 0.0311394 0)
(0.950338 0.0420208 0)
(0.949936 0.0463608 0)
(0.946083 0.0480283 0)
(0.941106 0.049235 0)
(0.932472 0.0481488 0)
(0.916279 0.0388663 0)
(0.902491 0.0302694 0)
(0.894339 0.0278314 0)
(0.888701 0.0280432 0)
(0.884349 0.0286551 0)
(0.885486 0.0337417 0)
(0.89116 0.044056 0)
(0.891826 0.0501702 0)
(0.88837 0.0522437 0)
(0.883267 0.0528429 0)
(0.876369 0.0518583 0)
(0.86328 0.0454142 0)
(0.845632 0.0322017 0)
(0.83285 0.0234314 0)
(0.825223 0.0198586 0)
(0.821086 0.0191846 0)
(0.822463 0.0227711 0)
(0.825813 0.028205 0)
(0.825844 0.0294839 0)
(0.824261 0.027228 0)
(0.821438 0.022889 0)
(0.818458 0.0175414 0)
(0.801997 0.00259341 0)
(0.371918 -0.00569634 0)
(-0.585626 0.0006787 0)