/*--------------------------------*- C++ -*----------------------------------*\
  =========                 |
  \\      /  F ield         | OpenFOAM: The Open Source CFD Toolbox
   \\    /   O peration     | Website:  https://openfoam.org
    \\  /    A nd           | Version:  12
     \\/     M anipulation  |
\*---------------------------------------------------------------------------*/
FoamFile
{
    format      ascii;
    class       volScalarField;
    location    "0.99";
    object      T;
}
// * * * * * * * * * * * * * * * * * * * * * * * * * * * * * * * * * * * * * //

dimensions      [0 0 0 1 0 0 0];

internalField   nonuniform List<scalar> 
22702
(
1
1
0.955134
1
1.01149
1
1.12113
1
1
0.881668
1.1205
1.12146
1
1.10504
0.960456
1
1
1
1.12054
1
1.10461
1
1.11791
0.894984
1.10559
0.884383
1
1.11663
0.897039
0.898561
1
1.12077
1
1
1
1.10159
1.10637
1.1184
1
1
0.880848
1
1.05721
1
1.1165
1
1
1
1
0.898952
1
0.894674
1
1.12047
1
1.12013
1
1
1
1
0.883863
1
1
0.901979
1
0.896475
1
1
1
0.885188
1
1.11867
1.07071
1
1.11983
1.12735
0.898513
1.1196
0.900949
1
1.12068
0.897931
1.12024
1.11944
1
1
1
1
0.975155
0.883982
1.12376
1
1
0.883479
1
1.10466
0.881956
1
1
1
1
1.05721
1.12062
0.882068
1
1
1.02728
1
0.897332
1
1.11983
1.1207
1
1
0.878941
0.880093
0.883491
1
1
1
1
1
0.970115
1
1.0965
1.00906
1.11998
1
1.1215
1.12076
1.10503
1.1206
1
0.884323
1
0.883345
1
1
1
1
1.12088
1
1
1
1
1.12037
1
1.00701
1
1
1
1
0.898815
1
1.00308
1
0.902104
1
1
1
1.12288
1
1.11763
0.878136
0.88815
1.11975
1.11753
1
1.01654
1.06552
1
1.11988
0.899083
1.1016
1
1
1
1
1.10455
1.10092
1
1.12039
0.901812
1.11984
1
0.897431
1
0.897952
0.883619
0.999967
1
1
1.11949
1
1
1.11864
1
1.1203
1.12022
0.894715
1
1
0.896479
1.11861
1
1
1
1.11861
1
0.889997
1
1
1.11853
1.11852
1.11998
1
1.00001
1
1
1
1.10405
1
0.888376
1.12524
1.1186
1.10487
1
1
1
0.892878
1.11856
1.05859
1
1.10506
0.891264
0.890965
1.10508
1.11914
1
1.12072
0.877119
1.09893
1
1
1
1
1.11864
1
1.07236
1.01245
1
1
1.11865
0.879468
0.927607
1
1.11922
0.884025
1.11834
1
1
1
1
1
1
1
0.896143
0.92439
0.889551
1.11845
1
1
1
1
1.11172
1
0.895366
1
0.887955
0.896119
1.11869
0.892692
1.10415
1
1
1
0.999317
0.896004
0.876106
1
1
0.888051
1
1.12071
0.880477
1
1
1.1202
0.876143
1
1.11881
0.888304
1.11868
1
0.89219
0.999356
1
1
1
0.893449
1
1
1
1
1.00456
1.07088
1
0.888103
1
1
1
1
1
1
1
1.12023
1
1.12002
1
1
1
0.885743
1
1.11983
0.892287
1
1.06617
1
1
1.12146
1
1
1
1.11811
1
1
1.11517
1.12093
1
1.02362
1
1
0.881767
1
1
1
0.883597
1
1
1
1
0.884557
1
1
1
1
1
0.880652
1.00002
1.11752
1
0.999995
1.11805
1.11926
1
1
0.899875
0.941881
1.12136
1
1
1
1.11861
0.88567
1
1.11779
1
1
0.904908
0.907186
1
0.899648
0.885766
1
1
1
1
1
1
1
1.11859
1.02705
1.11096
0.882886
0.977336
1.12121
1
1.12067
1.1208
0.886655
0.930389
1
0.883741
1
1.1246
1
1
1
1
1.11865
1
1
1
1
1
1
1
1.04409
1.12144
1
1.11847
1
1
0.899751
1
1
1
1
1.11857
1.09092
1
1
0.897664
1.11834
1.11852
1
1.11852
1.11854
1.11852
1
0.947642
1
1.11867
0.991033
1.11849
1
0.88592
0.999694
1.12173
1
1
1
1
0.895405
1.11852
1.10046
1
1.10525
1.11863
1.12102
1
1.0604
1.10494
1
1
1.08158
1.01926
1.11846
0.97543
1.11847
1
1.11846
1.11852
1.11848
1.11826
1
1.11308
0.978574
0.966468
1
1
1
1
1.11949
1
1
1
1
1
1.12176
1
1
0.998851
1.11851
1.10813
1
1.10066
1.00001
1
1
1.1182
1
0.999009
1.00139
1
1.1186
1
1.1186
1
1
1.08607
1
1.11857
1.00001
1
1.11858
1
1.11853
1
1
1
1.11864
1
1.11858
1
1.11864
1.12109
1.11857
1.11852
1
1.12051
1.12173
1
0.9017
1.10741
1.08219
1
1.11865
1
0.879724
0.887485
1
1
1
1
1
0.879825
1
1.11845
1.03339
1.11822
1
1
1
1
1
1.11849
1
1.12014
1.07152
0.931106
1
1
1.0366
1.03195
1
1
1.04241
1
0.901545
1.1186
1.11856
1
1
1
1.12128
1
1.00001
1.10723
1.11869
0.985152
1
1
0.897207
1.1047
1
1
1
1
1
1.11852
1.1208
1
1.11879
1.11822
1.11866
1
1
1
1
0.8807
1.12012
1
1
1.10381
1.11354
1
1.1069
1.12257
1
1
1
1
1
1.1186
1
1
1
1
1.11968
1
1.11805
0.879791
1
0.890328
1
1
1
0.999028
0.898388
0.999739
1
1
1
1.0179
1
1
0.960209
1
1
1
1
1
1
1
0.999999
0.980113
1
1
0.999277
1
0.894472
1
1
1
1
1.08778
1
1
1
1
0.892882
1
1
1.10782
1.1195
1
1
1
0.966487
1
1
1
1
1
1
0.985179
1.00417
1.10408
1
1
1
1.11863
0.964563
1
1
1
1.11736
1.11806
1
1
1
1
1
1
1
1
1
0.887583
1
1
1.11981
0.888302
1
1.11965
1
0.899221
1
1
0.888397
1
1
1
1
1
1
1
1.11109
1.11326
1
1
1
1
1.1041
1
1.03816
0.899393
1
1
1
1
1
1
1
1.01152
1
1
1.06638
1
1
1
1.09389
1
1
1
1
0.879195
1
1
0.882729
0.880534
1
1
1.11864
1
1.01933
1
1
1
1.08231
0.883763
1
0.881775
1
0.93164
1
1
1
1.11893
1
1
1.11848
1
1
1
1.11849
1
1
1.11874
1
1
0.886414
1
1.03776
1
1
1.12122
1.12095
1.08192
1.1021
1
0.883888
1
1
1.11034
1
0.887259
1
1
1
1.11866
1
1
1
1
1.07317
1
1.09538
1.11915
0.88426
1
1
0.883111
0.884586
1
1
1
1.08507
1.08892
1
1
1
1
1
1
1
1.05336
1.11898
1.00389
1
1.1046
0.885083
1
1
1
1.06611
1
1.02648
1
1.1053
1.11139
1
0.886834
1
1.11994
1
1
1.11879
1.10639
1
1.1209
1
0.890933
1
1
1
1.12038
1.11083
1.10203
1
1.11967
1.11848
1
1.11875
1
1.11168
1
0.881724
0.992213
0.885077
1
1
1
1
1
1.1186
1
1.1186
1
1
1
1.1078
1
0.898073
1.11855
1
0.89322
0.893494
0.890072
1
1.06148
1.00983
1.11271
1.1185
1
1
1
1
1.11856
1
1
1.11853
1.11848
1
1.03897
1.00002
1
0.999088
1.12337
0.95996
1
0.951653
0.899724
0.901763
1.00358
1.11695
1.11085
1.02492
1.11375
1.11842
1
1
1.11939
1.11976
1.11845
1.12029
1
1.11166
0.897458
1.11974
1.119
1.11933
1.11862
0.959401
0.968899
0.978817
1.11884
0.986131
1.11867
1
1
1.11242
1.11857
1
0.885731
1.11906
1.11847
1
1.11869
1.11861
1
1.11854
0.893187
1.1198
1.11837
1.12091
1.1202
1
1
1
1.11856
1.07813
0.888332
1.11841
0.884402
1.11863
1
1
1
1
1.11888
1.11845
1
1
1.11843
0.884618
1.11829
0.895212
1
1.11198
1
0.880981
1.11884
0.914204
1
1.11852
1.11909
1.11846
1
1
1.03647
1.11897
0.89841
1.11852
1
1.1184
0.964801
1.11865
0.886436
1
1.11921
0.900376
1.11241
0.897129
1
1.11867
1
1.12075
1
1.06643
1.10978
1.09147
0.887022
1
1.11885
1
1.11837
1
1.1187
1
1
1.11856
0.992226
1.11908
0.884134
1.10853
1
1.08137
1
1.119
1.11861
1.11913
1
1.10243
1.1185
1.10507
1.0751
1.11753
1
1.08122
1
1.11844
1
1.01472
1
1.10755
1
1.11841
1.10956
1.10799
1
1.11806
0.886687
1
0.880647
1
1
1
1.12064
1
1.11872
1
1
1
1.11866
1.11826
1.09781
1.11844
1.11903
0.89187
1.12099
1.12136
1
1.1032
1.11852
1.11553
1
1.11986
1.12048
1
1.12075
1.11865
1.11911
1.11888
1
1
1
1.11857
0.880198
1
1.11862
1
1
0.886486
1
1
1.11846
1.1186
1
1.11858
1.1197
1.11989
0.99207
1.11867
1
1.11869
1.11842
1.096
1
1
1
1.11812
1.11879
1.11824
0.985432
1
1.11908
1.11883
1.11875
1
1.11866
1.11839
1.11869
1.11953
1
1.11873
1.11877
1.10367
1.11903
1.11919
1
1.11987
1.11251
1.11824
1.119
1.11885
0.886113
1.11856
1.11901
1
1.11874
1.11834
1.1187
1.11854
1
1.11833
1.11845
1
1.11857
1.09796
1
1
1
1.11912
1.12162
1
1
1.06513
1
1.10431
1
1
1.11839
1.10525
1.11876
1.11846
1
1
1
1.08588
1
1.11838
1
1
1.12259
1.1183
1
1.11846
0.871999
1.11859
1.1188
0.902817
1
0.877183
1.10424
1.1177
1.11821
1.11814
0.891566
1.11885
1.1188
0.892297
0.883835
1
1.11885
1.11868
1
1
1.11829
1
1.11807
1
1.10117
1
1.05214
1.11871
1.11906
1.08729
1.11254
1.12107
1.11907
1.11119
1
0.88677
1.11919
1.11855
1.12012
1
1
1
1.11901
1
1.1186
1.11851
0.923864
1
1.11844
0.999981
1
1.00001
1.00001
1.11866
1.11876
0.999562
1
1
1.11839
1.119
1.11845
1.11823
1.11975
0.885598
1.10007
1
1.11209
1.11873
1.11867
1.11717
1
1.11859
1.10993
1.11892
1
1.11855
1.11899
0.95492
1.1186
1.11838
1
1.11892
0.948167
1.11882
0.955637
1.11859
1
1.11746
1.1234
1.11857
1.1187
1.1174
1.11847
1.11882
1.11957
1
0.974833
1.11886
1.11846
0.951164
1.11854
0.994082
1.07773
1.11887
1.1198
1.11949
1
1.11905
1.08027
1.11906
0.976479
1.11911
1.12113
1
0.960035
1
1.11588
1
1.07885
1
1.11661
0.961934
1
1.12026
1.11828
1
1.11863
1.1128
1.11916
1.11828
1.11974
1
1.11986
1
1
1
0.968948
1.11832
1.11816
1.11818
1.11848
1.11995
1.11866
1.12026
1.1187
0.967471
1.00889
1
1
1.12356
1.11861
1.11856
1.1186
1.00001
1.06457
1
1.12054
1.104
1
1
0.917466
1.11832
1
1
0.895043
1.11857
1
1.12046
1.11852
1.12131
1.10849
1.11781
1
0.886923
1.02995
1.1187
1.118
1
1.11796
1.11843
1.06144
1.00329
1.02892
1
1.12069
1.11859
1
1
0.897484
1
1
1.11853
1.11854
1.11852
1.11875
1.11862
1.12029
1.11364
1.11864
1.1185
1
0.998864
1.11844
1.11843
0.999136
1.11855
1.1184
0.89466
0.884848
1.11813
1.11825
1
1
1.00051
1.11845
1.11851
1.11852
1
1.11845
1
0.951687
1.12045
1.11884
1
1.05493
1.11827
1
1.12027
1
1.11872
1.08054
1.11893
1
1.11858
1.11537
0.896948
1.11823
1
1.11878
1.11896
1
0.892908
1.11988
1.09915
0.999382
1.11519
1.11834
1
0.998251
1.11883
0.99935
1.11858
1
1
1.11757
1
1.11749
1.11857
0.998922
1.09964
1
1.1185
1
1
1
1
1.11855
1
1
1.11542
1
1.11874
1
1.07363
1.11961
1.11806
1
1
0.998914
1
1.11867
1.11835
1.11907
1.11874
1.1189
1.11886
1.11861
1
1.1186
1.11824
1
1.11863
1.11869
1
1.11856
0.974668
1.01658
1.11863
1.11861
1.11868
1
1.11853
1
1.11845
1.11872
1
1.11789
1
1
1
1
1.11865
0.887416
0.999389
1
1.11858
1.11797
1
1.11853
1
1.00141
0.893864
1.11654
0.99989
1
1.11906
0.999514
1.11865
1
0.999932
1
1.11877
1.11941
1.11879
1.12032
0.896888
1.11888
1.11878
1.11862
1.03115
1
1
1.05368
1.11854
0.881092
0.894919
1
1.11941
1.1185
1.11913
1
1
1.11835
1.11856
0.999967
1
1.08712
0.873136
1
1.02369
1.12077
1.11782
0.999503
1.11843
1.11946
1
0.999691
1
1.11834
1.1225
1.05221
1
1.10902
1
1.00043
1.11806
0.882719
1.11858
1.11855
0.999145
0.999975
1.10766
1
0.99991
1
1.11925
1
1
0.871675
1.11867
1
1
1
1
1.12105
1.06561
1
1
0.885635
1.1182
1.0658
1
1
1
1.10515
1.11922
1.11925
1
1
1.12055
1
1.11854
1.11888
1
1
1.11185
1.11855
1.11295
1
1
1.11205
1.11891
1
1
1
1.11893
1
1
1
1.11871
1.11935
1.119
1
1.12024
1.00001
0.899608
1.11863
1.1185
1
1.12042
1.11361
1.12051
1
1
1.11934
1
1.06537
1.11873
1
0.897022
1
1.11138
1
1
1.11993
1
1
1
1.04064
1.11881
0.895605
1
1.11162
1
1
1.11845
1
1.11919
1
1
1.11852
1.11863
1
1.00001
1
1
1
1
1
1
1.11896
1.11867
1
1.12038
0.889797
1.11946
1
1.1185
1.11781
1.11868
1.12072
1.12171
1
1
1.11983
1
1.08298
1.11899
1.11847
1
1.11951
1.11918
1
1.10686
1
1.1185
1.07459
1.11908
0.999282
1.11919
1.11155
1.1185
1.11869
1.01034
1.11856
1.11937
1
1.11852
1
1.11855
1
1
1
1
0.998973
1.11844
1.11871
1.09928
1
1.11971
1
1
1
0.876752
1
1.11674
1
1.10195
1.11661
1
1
1
1.11505
1.12217
1
1
1.1189
0.891034
1.01679
1
1.11896
1.11851
1.10232
1.11664
1.11848
1
1.1189
1
1
1
1
1.11824
1.11863
1
1.11196
1.00982
1.11834
1.10357
1
1
1.1041
1
1
0.894429
1.08825
1
1
1.11842
1
1.11947
1.10968
1
1.10858
0.891011
1.11828
1.1185
1.10905
1
0.892222
1
1
1
1.11873
1.09843
1
1.11791
1.11842
1
1.11867
1
1
1
1
1.1185
0.999819
1
1.1117
1
1
1.1178
1.10945
1
1.12008
1.02501
1.00001
1
1.11829
1
1.11824
1
1.00401
1.11859
1
1.11868
1
1
1.03996
1.11887
1
1
1
1
1
0.999248
0.889306
0.8854
1.00557
1
1.00651
1
1.00645
1
1.11864
1
1.0739
1
1.11866
1
1
1
1.11868
1
1.0974
1.11842
1
1.0668
1.11882
1
1
1.12038
1.11834
1
1
1.01068
0.888966
1
1.1189
1
1
1
1
1.02189
1.11859
1
1
1
0.894024
1
1.11854
1.1184
1.12066
1
1
1
1
1.06348
1.11933
1
1
1
1.11934
1.11047
1.0107
1
1
1
1.11817
1.1098
1
0.89706
1.11843
1.1116
1.11833
1.11866
1.11904
1
1
1.11912
1.11901
1.11842
0.898324
1.0111
1.11838
1
1
1
1
1
1.11865
0.892771
1
1
1.11849
1.05841
1
1.11799
1
1
1
0.892966
1
1
1.03431
1.1184
1.116
1
1.11873
1.11777
1
1.01888
1
1.11923
1
1.1197
0.891595
1
1
1
1
1.11873
1.00002
1
1
1
1.11799
1
1
1
1
1.11859
0.89043
1.09629
1.11908
1
1.11652
1
1
1
0.999179
1
1.11826
1
0.940221
1
1
1.00001
1.11877
0.894502
1
1.11962
1
1.1189
1.11079
0.885096
1
1
1.11376
1
1
0.89308
1
1.1198
1
1.1053
0.999808
1.11752
1
1
1
1
1.12008
1
1
1.11041
1
1
1
1
1
1
1
1
1.08061
1
1.03956
1.11878
1
1
1
0.887357
1
1
1
1
1.12003
1.11866
1.0107
1
1
1.11192
1
1
1.11902
1
1
1
1
1
1
1.11827
0.930248
1.11004
1.11175
0.999223
1
1
1
1.06873
1
1
1.11809
1.11854
1
1
1
1
0.875466
1
1
1
1.07703
1
1.11873
1.1193
1
1.11566
1
1
1
1.06323
1
1.12064
1
1.1091
1
1
0.998912
1.11089
1
1
1
1
1
1.11812
1
1
0.897382
1.11971
0.892806
1
1.11913
1
0.998839
1
1.11881
1.11941
1
1.11843
0.966596
1.11038
1.11695
1.00001
1
1
0.889241
1
1
1
1.1181
1.07079
1.11899
1
1
1
1
0.999104
1.11815
1
0.891539
1
1
1
1
1
1
1
1.12024
1.1184
1.12025
1
1
0.999108
1
0.9919
1
1
1
0.884564
0.991754
1
0.889658
0.887339
1
1.1096
1.11859
1
1.11985
1.11865
0.889786
1.08785
1
1
1
0.891153
1.11865
1
0.887866
1
1.11853
1.01924
1
1
1
1
1.11107
1.12017
1
1
1.10966
1
1
1.12015
1.11178
1
1.10851
1.11645
1.11949
0.984332
1.11928
1.00253
0.890218
1.09282
1.11677
1
1
1
0.883789
1
0.887467
1.11955
0.986119
1.11018
0.984336
1
1.11767
1.053
1
1
1.11818
1
1.04884
1.1187
1
1
1.12043
1.11914
0.886827
1.07388
0.99997
1
1.07388
1
1.11987
0.978346
1.12287
1.11812
1
1
1
1
1.11438
1
1
1.1183
0.999897
1.11864
1.09613
1.11383
0.894309
1
1
1
1
1.11873
1.00001
1.11865
1
1.11866
1.11856
1.01615
1.11742
1.03924
1.11822
1
1.07856
0.897276
1.11861
1.11852
1.09414
1.01968
1.11984
1.11035
1.11888
1.11905
1
0.973325
1.01878
1
1.1186
1.06124
1.11852
1.00001
1
1
0.908382
1.11549
1.11956
1.09737
1
1.05001
1
1.11827
1.11744
1
1.11838
1.11916
1
1
1
1.11811
1
1.04956
1.11857
1.08536
1
1.11866
1
1
1
1
1
1
1
1
1
1
0.899123
1
1.11427
0.885531
1.06821
0.999598
1.11557
1
1.0664
1
1.07389
1.10237
1
1.00051
1.11953
0.973523
1
1.11908
1.11499
0.97822
1
1.11831
1.11868
1.1192
1
1.11856
1.11869
1.11816
1
1.05893
1
1.00002
1.11864
1
1.11859
1.01952
1.118
1
1
1.11894
1.11911
0.905401
1
1.11878
1.09075
1.10782
1
1
1.11979
1.11941
0.999492
1
1.11098
0.999086
1.11844
1
1
1
1
1
1.05841
1
1.09038
1.11818
1.08997
1.11859
1
1.00083
1
1
1.11939
1
1.11806
1
1
1
1
1
1
1.01684
1.06536
1
1
0.880092
1
1.11987
0.88988
1.11746
1
1.05999
0.999928
1.11913
1.07325
0.898252
1.0641
1.00001
1.11857
1.1196
1
1.06892
1.11844
1.118
0.999547
1.11963
1.10383
0.880062
1
1
0.999259
1
1.11917
1
0.89522
1.11912
1
1
1.10731
1
1.11838
1
1.11875
1
0.896739
1
1
1.11785
1.11912
1.11886
1
1.1128
1.11848
1.12016
1
1
1.11557
1
0.916873
1
1
1
1.11839
1
1.11847
1.08033
1.11151
1
1.10999
0.999819
1
1
1
1
1
1
0.908272
1
1
1.11022
1
1.1181
1.11524
1
0.897006
0.892113
1
1.11862
1.02191
0.892716
0.885549
1
1.11891
1
1.11844
0.886132
1.00048
1
1
0.999857
1
1
1
0.999976
1.04918
1.11854
1
1
1.11885
1.07186
1
1.10917
1.11149
1.11925
1.04967
1.11707
1
1.11006
1
1.11353
1
1.11864
1.11853
0.999093
1.11843
1.11435
1
1
1
1
1
0.976127
1.12034
1.00001
1.00001
0.880204
0.999995
0.884846
0.878153
1
1.11858
1.1194
1.11859
1
1.1187
1
0.893306
1
1
1.11804
0.949072
1.11923
1
1.11869
1
0.992745
1.11872
1
1
1
1.11833
1
1.1191
0.886952
1
1
1.07107
1
1
1.06424
1
1
1.1183
1
1
1
1
1
1.11788
1.11874
1
1.11877
1.11797
0.888937
1.05315
1.11306
1
1
1.10762
0.999725
1
1
1.11856
1.11472
1.08105
1
1.11838
0.896858
1.11537
0.999894
1
1.11934
1.00001
1.11124
1.09967
1.09243
1
1
1.11861
0.911216
0.874901
1
1.1186
1
1.11844
1
1.06927
1
1
1.10803
1.07977
0.888885
1
0.999532
1
1
1.00724
1.04829
1.11863
1
1.11733
1
1
1
1
1
1
1.01854
0.893773
1
1
1.00813
1
1
1
1
1
1.1187
1
1
1.11864
1.1182
1.08666
1
1
1
0.952016
1.12033
1.08625
1
1
1
1
1.11885
1
1
1
1.11908
1
1
1.08859
1.12187
1.01079
0.924777
1.11534
1.08683
1.11849
1
1.05728
1
1
1
0.880482
1.0006
0.881748
1
0.876543
0.888719
1
0.887607
1
1
1
1.04982
1
1.1185
1.11861
1.00027
1.06249
1.10157
0.873919
0.920579
0.96144
1
1.11151
1.1196
1.11137
1.11875
1.09921
0.965193
1
1.09983
1
1.11789
1
1
0.998975
1.00244
1
1
1
1.11898
1
0.87851
1
1.11888
0.88927
1
1
1.11875
1
1.1093
0.999978
1
1
1.11163
1.1064
1
1.1246
1
1
1.00408
1
1.05598
1
1
0.887804
1
1
1.11215
1
1.1186
1
1.00001
0.879296
1
1
0.884479
1.00031
1
1.11908
0.887104
1.11933
0.887274
1.11879
1
1
1
1
1
1
1
1
1
1
1
1.10819
1
1.11138
1.11926
0.891652
1
1
1
1
1
1
1.10643
1
1
0.89342
1
1
1.11908
1
1
1.04847
1.10128
0.888589
0.886883
0.894715
0.918733
1
0.999004
0.882127
1.00013
1.10773
0.999102
1
1
1.11897
1
1
1
0.921711
1
1.04576
1
1
1.05052
1.11859
1
0.875131
1
1
1
0.999094
1
1.11915
1.11871
1
0.888927
1
1.06316
0.892074
1
0.963998
1
0.998774
0.885107
1
1
1
0.998909
0.87526
1
0.874913
0.99953
1.06082
1.10707
0.879627
0.895104
1
0.997192
1
0.999616
1
1.11715
1.11716
1
1.00279
1.11864
1.11628
1
1
1.11871
1
1
1.00001
1
1.11722
1
1
1.00549
1
0.999596
0.894873
1
1
1
1
1
1.11964
1.00857
1.00002
1
1
1
1
1
1.00001
1
0.890996
1.02644
0.999606
1.11498
1.11845
1
1.0043
1.1185
1.10579
1
1
0.877948
1.11961
1
1.11924
1
1.11863
1.08244
0.888703
1
0.893179
1.1127
0.999907
1
0.893932
0.878867
1
1
1.09493
1
1
0.891214
1
1
1
1.03866
1
0.889559
1.11823
1
1
1
1
1.10904
1
1
1.11458
1.10714
1
1
1
1.11758
0.89048
1
1.11845
1.1185
1
1.09661
1
1.00001
1
1
1.11302
1.00392
1
0.879253
1.07135
1
1
0.99928
1
1
1.11751
1
1
1.00001
1
1.11912
1
1
1
1
1
1
1
1.0557
1
1.11922
1
1
1.119
1
1
1
1.10973
1.11386
1.01335
1
0.99934
1
1
1
1
1.11982
1
1
1.11867
0.891969
1
1
1
1
1
1
1.09314
1
1
1.11985
1.1192
1
1
1
1.11866
1.11923
1
0.999902
1.1202
1
1
1
1.00001
0.882367
1.00938
0.998991
0.99892
1
1
0.873864
1.11931
1
0.880191
1
1.11872
1.11412
0.891717
0.999832
1.11859
1.11873
1.11849
1
1
0.974991
1.11314
1.09856
0.879912
1
1
1
1.11238
1.11849
0.88553
0.999251
1
1.11853
0.887229
1
1.11623
0.892016
0.988339
1.00192
1
1.11681
1
1
1
1
1
1
1.00003
1.10248
1
1
1.12055
1
1
1
1.11839
1
0.891169
1
1
1
1.04306
1
1
1
1
1
0.932343
1
0.888548
1
1.11868
1.00002
0.958011
0.960113
1
1.00135
1.06054
1
1
0.891002
1.11838
1.11873
1.11847
1
0.888716
0.888291
1
1.11816
1
1
1
1
1
1.00001
1
0.893487
1.08014
1
1
0.887461
0.992973
1
1
1
1
0.882394
1
0.893182
1
1
1.11825
1
1
0.887888
1
1.11854
1
0.874674
1
0.892189
1
1.0021
1.11796
1.12489
1
1
1.11985
1
1
1.02641
0.999065
1
0.999458
1
1.11879
1
0.877489
1
1.12043
0.999677
1
1
0.93833
1
0.99972
0.892052
1.11808
1.04156
1
1
0.968076
1
1
1
0.932107
1
1
1
1.11629
1
0.890173
1
1
1
1
0.891094
1.11863
1.11422
0.892375
1
1.11629
1
1
1.11227
1.11956
1.10154
0.890412
0.999361
0.999767
1
1.11844
1
1
1
1
1.11881
1.00001
1
1
1.12094
1
1
1.11852
0.892161
1
1
1
0.894231
1
1
1
0.999626
1
1
1
1
1.09768
1
1.11988
1.11905
1.12156
1.11856
1.11875
1.11824
1
1.11824
1
1.11859
1.10876
1
0.999688
0.89115
1.1032
0.999969
1
1
1
1
0.996984
1
1.02051
1
1
1
0.958013
1.11851
1.11866
1.11937
1.10698
0.999962
1
1.00667
1.11895
0.9994
1.01151
0.999182
0.890393
1
1.00001
1
1
1
1
1
1.11834
0.889825
1.11832
1.1186
0.998602
0.885655
1
1
1
1.11879
0.875643
1.10566
0.888025
1.11857
1.11862
0.892353
1.1136
1.00674
1
1.11913
0.941651
1
0.999651
0.883534
1
0.892252
1
1.11828
1.1106
0.929481
1
1.11869
0.892498
1
0.888307
1
1.11868
1
1
1.11576
1
0.951765
1
0.999916
0.89253
1.12058
0.999852
1
0.879076
1
1
1
1
1.06991
1
1.11848
1
1
1.12288
1
1
1.1184
1
0.886724
1
0.89484
1
1
1
1
1
1.11382
1.07569
1.11851
1
1.1106
1.11085
0.884615
0.875457
1
1
1.11854
1
0.885263
1
0.99489
1
1
1.1188
1
1.11545
0.881492
1.12106
1
0.879052
1
1
1.12019
1.10565
1
1.00001
1
1.11672
1
1
0.87841
0.999819
0.880928
1
1
1
1.10802
1.1172
1.11898
1
1
0.879148
1
1.11319
1
1
1
1.11166
1.11163
1.11863
0.876878
1.11881
1.11859
0.892659
1.11962
1.00001
0.894954
1.0023
1
1
1.11851
0.880077
1.07278
0.883722
1.11857
0.999299
0.889966
1.11913
1
1
1
1
1.11304
1.11979
0.892238
1
1.00001
0.891898
1.00001
1
0.877615
0.875969
1.07909
1.11402
0.999561
1.11861
1
1.11713
0.94439
0.890084
1.11861
1.12172
1
1.11891
1
1
1.11852
1
1.09289
1.11933
1
1
1
1
1.11884
1.10558
1.1187
1
1
1.11921
1.11929
1.11914
1
1.11886
1
1
1
1
1
0.886564
0.955955
0.874154
1
1
1.11881
1
1
1.11856
0.887783
1
1.11853
1.10585
1.11344
0.881656
1
0.875695
1
1.00001
1.11917
1.06041
1.12032
1.10811
1
0.879968
1
1.11123
1.0836
0.890638
1
1
1
0.932758
1
1
1.12105
1
0.891626
1.11861
1
1
1
1
1
1.09264
1.02756
1
1.11925
1
1.11187
1
0.999191
1
1.11858
1.1185
1.11767
1.11908
0.999881
1.12028
1
1.11857
1.11859
1.09539
1
1
0.886755
1.11979
1
1
1.11804
1.1189
1.11349
1
1.11862
1
1
1.00001
1.11814
1.11418
1.03655
1.02764
1.11835
1.11777
0.900854
1
1
1
1
1.00001
1.04618
1
1
1.10057
0.882901
0.999987
1
1.11857
0.999956
0.999942
1.01943
1.10865
1.12006
0.970796
1
0.877927
1
0.995534
1.11852
1.119
1.1173
0.99972
1
1
0.886795
1
1
1.11853
1.01405
1
1
1
1
1
1
1
0.999982
1.11954
1
1
1
1
1
1.08011
1
1.05866
1
1
1.11856
1.11935
0.893392
0.999646
1
1
1
0.890549
1.11992
1.11231
1
1
1
1
1
1
1
1
1.11879
1.12066
0.879987
1.01493
0.893538
1
0.885986
1
1.11842
1.03743
1
1
0.909724
1
1.11377
0.934703
0.999108
0.88845
1
1
1.12012
1.00001
0.99923
0.886112
1.11966
1.12033
1
1
1
1
1.10291
1
1
1.11115
0.999715
1.11916
1.00002
1
1
0.88822
1
1
1.1188
0.88688
0.923108
0.894666
1.1186
0.999792
1
1.11153
0.877701
0.877584
1.00382
1
1
1.11981
1.00001
1.05666
1
1
1.11955
0.892101
1
1
1.00004
1.11943
1.00004
1.11925
1
1.00001
1
1
0.912816
1
0.940014
1
1
1.11785
0.887898
1
0.937021
0.935679
1
1
1.11864
1
1
1
1.11813
1.11677
1.00001
1.11531
1.1202
0.937855
1.11864
1.11717
1
1
1.11639
1
1
1
1
1
1.11969
1.11842
1
1
1
1.1186
1.00006
1
0.892105
0.910383
1
1.00001
1.04926
1
1
0.969727
0.886709
1
1
1
1.11938
1.10923
1.11831
1
1
1
1
0.883917
1
1.11745
1
1.11664
0.891303
1.12145
1
1
1
0.880346
1
1.11863
1.00001
1
0.889755
1.04405
1
0.999898
1.1188
0.883865
0.87364
1
1.11975
0.884433
0.891701
1
0.880903
0.999998
1
1
1
0.879253
1
1
1
1
1.11989
1
1.08899
0.878163
1
1
1
0.893654
1.1185
1
1
0.998963
1.11411
1
1.11832
1.11913
1
1
0.913854
0.876592
1
1
0.892862
1.03562
1.06111
1
1
1.11971
0.999252
1
0.9993
1.12068
1
1
1
1
1
1
1.11903
1
1.0439
1.04144
0.900418
1.10618
1
1.11311
1.11843
1
1
1
0.970849
0.887163
1
1.06537
0.999898
1.10671
1
1
1
1
1
1.00185
1.05717
1.10757
1.11836
1
1.11831
1
0.888045
1
0.999306
0.999929
1
0.887987
1
0.891302
1.00001
1.11909
1.12016
0.886982
1.11976
0.880734
0.998911
1.09203
0.892594
1.08485
1
1
0.999551
1
1
1
1.00002
1
0.885398
1
1
1
1
0.999877
1.11877
0.942545
1
1
1
1.01038
1
1
1
1.07341
0.914917
1
1
1
1.01539
1.12039
1
0.886316
1
1.10849
0.973667
0.885208
1
0.889033
1
1
1.11181
0.999505
1.11335
1
1.00264
1
1
1.1183
1
1
1
1
1.02641
1
1.11865
1.10595
1.11936
0.876467
1.11831
0.999183
1.0978
1
1
0.882757
1
1
0.891817
1.11954
1
1
0.999972
1
1
1
0.889515
0.877069
1
1.1198
1
1.0594
1.1186
0.891133
1.10283
1
1
0.881314
1
1
1.11851
1.11361
1.04309
1
1
1.00033
1.11988
0.876267
0.890675
1.11979
1.11856
1.08486
1.0511
1
0.964812
1
1
1
1.11625
1.11991
1.11919
1
1
1.11935
0.874668
1.10606
0.88707
1
0.890168
1
0.890818
1.11849
0.884116
1
0.996175
0.90092
1
1
1
0.951661
1.1135
1.11891
1.11935
1.11967
1
1
1.11936
1
1
1.11882
1
0.880201
1
0.887682
1
1.11977
1
1
1.00728
1.09225
1
0.999712
0.877729
1.11607
1
0.885928
1.02357
1
1
1.09354
1.11851
1.11855
1
1.11811
1.03127
1
1.0066
1.11862
1
1
1
1
1.11856
1
0.879225
1.11878
0.894282
0.885261
0.9471
1.11797
1.04327
1.11197
1
1.11972
0.999259
1.00001
1.11858
1.11975
1
1.11944
1
1.11875
1
1.11984
1
1.00001
1.00001
1.11878
0.887309
0.891985
0.999343
1
1
1
0.88947
1
1.07676
1
0.884759
1
1.0505
1.1183
1.11901
1
1
1.00001
0.999808
1
1.12016
1.11882
1
1.05076
1.11879
0.958762
1.11872
1.00016
0.88394
1.02714
0.882691
1
1
1.02207
1.1205
1
1
1.01007
0.999617
1
0.884765
1
0.926038
1
1.11905
1
1
0.875028
1.0267
1.01417
0.999577
1.11848
1.11866
0.927871
0.999455
0.88853
0.875733
0.88878
1
1
1
0.999728
0.909964
0.894488
1
1.11861
0.999925
1.11852
1.11856
1.12049
1.11419
1
0.891945
1.11847
0.890279
1
1.11845
1.11968
0.999073
0.945109
1.11866
1.08901
1
0.890058
1
1
1.11965
1
1.00759
1.11848
1
0.878594
0.888377
1
1
0.882824
0.886189
1.11882
1.00002
1
0.879386
0.872426
1.11869
1.11478
1.11164
1.12001
1.0365
0.989025
1.04762
1.12099
1.09383
1
1.06488
1
0.892299
0.9552
1
0.889659
1.11865
1.00685
1.119
1
1.1186
1.11912
1
1.11838
1.11867
0.888917
1.11975
1
1.12257
1
0.924913
0.887295
1.11822
1
1
1
0.88745
1.11854
1.1083
1
0.89177
1
1
0.878874
1.00001
0.88923
1.12016
1
0.948099
0.880849
1
1
1.07189
1
1
1
1.02175
0.887336
1
1
1
1.11777
0.894326
1
1.11851
0.884578
0.882944
1
1
1.12114
1
1.11807
1
1.11862
0.894521
1
1
0.879029
0.948173
0.887349
1
1
1
1
1.11917
0.884286
1
0.890751
1
1.11961
1
1
0.975078
1
1
0.945407
0.999907
1.00001
1
0.894843
0.892699
1
1
1
1
0.935525
1.1058
1.11994
1
0.887546
0.889549
0.971587
0.892639
1
0.946778
1
0.88937
0.98944
1
1
0.894862
1
1.1184
1.11498
0.886973
1
1
1
1.11841
1
1.00949
0.943537
1.04065
0.88849
1.05232
0.890784
1
1
0.910094
0.97338
1
1.00996
1
1
0.875335
1
0.980178
1.01077
0.892682
1
1.09876
0.920025
0.964165
1
1
1
0.894351
1
0.887763
0.889172
1
0.9541
0.888127
1.01589
0.918968
0.887242
1.11863
1
1.11851
1.06622
0.909057
1.11853
0.887579
0.999706
1.11945
1
1
1.11877
1
0.914164
1
1.01464
1
1
1.11844
1
0.927823
0.943868
1.12004
0.980108
1
0.913098
1.11855
1.1196
0.973337
1
1.11859
1.03402
0.955466
1
1.00052
1
0.894114
1.05376
0.929693
0.923906
1
1
0.893312
1.11855
0.986026
0.888742
0.883666
0.958785
1
1.00735
1.11966
1.11867
1
1
1
0.889975
1.05674
1
1.11738
1.10738
0.885158
1
1.025
0.96406
1.07552
1.09947
1
1.00822
1
1.00002
0.873268
0.954218
1
1
0.941469
0.873958
1.00877
1
1
0.883826
1.05185
1
1.12104
1
1.00908
1.06671
1
1.11702
1
1
1.11885
1
0.885713
1.11946
0.905877
1.03391
1
0.892417
0.999974
1
1.00001
1
0.940584
1.00766
0.893929
1.09199
1.12009
0.887194
1
1
1
1
1
0.987303
0.876669
1.01552
0.892
0.888509
1.0206
1
0.999942
1.03338
1
1
0.893566
0.997251
1
1
1.03114
1
1.11965
1
1.11969
1.02447
1.00502
0.890063
1
1
0.885775
1
1
1
1
1.11189
1.01257
0.999446
1
0.886272
1.01446
1
1
1.07643
1
0.874268
1.11804
1
1
1
1.11901
0.876856
0.966355
0.872556
1.08815
1.11967
1
1
1.11863
1
0.875714
1
1
1
1
1
0.926755
1
1.11914
1
1
1.03813
1.11945
0.896269
0.960113
1
1.11841
1
1
1
1
1
1.11865
1.12
0.889441
1.11864
0.879656
1
1
1.11862
1
1.11971
1.00042
1.00799
1.01367
1.11849
1.01975
1.0835
0.880823
1
0.884749
0.992819
1
1.11854
1
1
0.885467
1.1208
1
1.11988
1
1
1
1
1
1
0.885113
1.11921
0.95695
1.11847
1
0.890422
0.896166
0.910274
1.11932
1.11814
0.985736
1
0.93653
1
1.04994
1
1.11955
0.885866
0.893292
0.957103
1
1.11839
1
1.02118
0.893967
1
1.11919
1.11157
0.999677
1
1.1185
0.887984
1.11907
1.11859
1.12023
0.892123
1.0248
1
1
0.882939
1
0.942727
0.947462
1
1.00001
1.11875
1
1.11844
1.02081
1
1.00831
1.12003
1
0.882183
1
0.932055
1
1
1.09266
1
0.938955
1
0.897916
1.01037
0.985471
0.873128
1.1191
1.09563
1.12015
0.892972
0.90438
0.998837
1
1
0.903015
1.11122
0.889349
0.999992
1
1.1187
1.11914
0.965339
1
0.886648
0.910695
1.0776
0.998568
0.882135
1
0.892629
1.03215
0.895578
1
1.00002
0.939453
1.12013
1.1184
0.94842
0.999889
1
1
0.903262
1
0.885962
1
0.88606
0.888421
1
1
1.00001
0.896519
1.11875
1
1
1.00002
1.00001
0.892718
1.11839
1.11851
1
0.893967
1.1204
1
1.02658
1
1
1.1178
0.890062
1
1
0.875201
0.918115
0.893733
0.888994
1
0.900342
0.999207
1.02723
0.887846
1
1
1.03609
1
1.10632
1
1
1.08495
0.901354
1
0.880578
1.03011
1.11861
1
1
0.891958
0.880472
0.879735
0.909371
0.880873
1.0847
0.99983
1
1
1
1
1.11864
0.885139
1
0.979774
0.999917
0.999507
0.999983
0.927086
1.03033
1
1.1186
1.11896
1
1
1.11402
1.00001
1
1.11866
0.892739
1.11543
1
0.884612
1.1185
1.00002
1
0.951063
1
0.883259
1
1.11996
1
1
1.11905
1
1
1.11962
1
1
1
1.12093
1
0.92287
0.916067
1
0.88613
1.1182
1
1
0.994057
1
1.11968
1.06849
1.08987
1
1
0.897167
1
0.891069
1.10956
1.12005
1.11871
1
1.11982
0.887674
1
0.890766
1.09746
1.1092
1.11998
1.11858
0.918265
0.887107
1
1.08262
1.11942
1.11975
1.11865
0.921889
1.04279
1
1.09123
0.921122
1
1
1
1.00001
0.966325
1
1.12053
1
1
1
1
1
1
1.00002
1.11852
1
1.11995
1.09086
0.890983
1.12022
1.01113
1.06302
1
1.119
1
0.886484
1
1
1
1
1.10289
1
0.880755
1.11824
0.881775
1.11889
1.09635
1.06058
1
1.02453
1.05653
0.9988
0.887206
0.920736
1.00001
1
0.972208
1
0.879591
1.11917
0.885768
0.97807
0.950845
1
1
1
1.00394
1
1
0.888687
0.999036
1.12032
1
1.11878
1
0.888815
1
1
1.11853
1.11838
0.880994
1
1.11876
1
0.938118
0.890893
1.1195
1.10721
1
1.02212
1.11844
0.999628
1
1.05086
1.10577
1.11808
0.998759
1
0.999999
1.10227
1
1
1
1.11883
0.999636
1
1
1.11907
1
1
0.89285
1
1
1
1.1196
1
1
0.953605
1.03583
1.10824
0.929932
1
1.11885
1
1.04645
1
1.11941
0.999219
1.11849
1
0.885506
1
1.08077
1
1
1.11111
1.00001
1.11834
1
1.11839
0.900498
0.892344
1.1192
1
1.10814
1
1.11908
1
1
1.00001
1.11802
1.11968
1.03236
1.11874
0.998652
0.875054
1.1192
0.96107
1
1.11515
1
1.11829
1
1.11894
1.11876
0.998902
0.887931
1
1.11859
1
1.01062
1
1
0.999397
0.917364
1.10666
1
1.11313
1
0.960607
0.890012
1.11822
1.11865
0.904662
1
1.1186
1.11939
1.11909
0.906977
1.11848
0.896211
1.11946
1.11941
1
1
1.11875
1
1
1
1
0.890069
1
1
1.11987
1.11861
1
1.11317
1
1.11972
1.11958
1
1.10015
1
0.88346
1.11906
1.09409
1.04055
0.880584
1.11846
1
1
0.887852
1
1
1.11852
1
1
0.931966
1
1.11832
1.00003
1.11124
0.887347
1.11937
1
1.11848
1.11465
0.966561
1
1.11771
0.93117
1.11887
1.08686
1.11871
1.11782
0.999171
1.12054
1.11875
1.1185
1.11856
1.00018
1
0.875303
1
1.12034
0.951162
1.10917
1
1.11681
1
1
1
1
1
1.11808
0.88919
0.889887
1.11873
1.11843
1
1
1
1
1
1.1173
1.10463
1.11853
1.00579
1
1
1
1.00001
1.11834
1.11855
1
1.11903
1.11948
0.890317
1.07943
1
1.11783
1.11941
1.10389
0.999339
1.1187
1.11819
1
1.10982
1
1
1
1
1
1
1.11838
1.11982
1.11093
1.11852
0.887934
0.906052
1.11858
1.11855
1
0.889104
0.980105
1
1.05948
0.887656
1
0.999846
0.999507
0.887157
1
1.1188
1
1
1
1.1188
0.984043
1
1.11843
1.11862
1
1.11918
1
1
1.11863
1
0.888199
1
1.11892
1
1
0.89435
1
1.11883
1
0.887534
0.872428
1
1.11445
1
0.885528
0.967625
1
1.11835
1
1
1
1.11928
1
0.890888
1.01808
1.11916
1.10632
1.11849
1.00817
1.11901
1.11862
1
1
1
1
1
1.1186
1
0.999807
1.11881
1
0.88289
1
1.11864
1.05607
1.01673
1.05531
1.01178
1.11915
0.915377
1.11847
1
0.892916
0.999252
1.11849
0.985006
1.1185
1.11853
1.11248
1
1.11905
1.11864
1.11842
1
1.00001
1
1
1.11943
1.08319
1
1
0.893239
0.999013
1
1.11878
1
1.11838
1.11834
1.11814
0.972151
1.11863
1.11909
1.00167
1.06227
1.11959
1.11829
1
1.10278
0.948485
1.11005
0.990776
1.11852
1
1.11863
1.1185
1
0.892194
0.982972
0.902166
1
1.02047
0.999178
1.11927
1
1
0.999092
1
1.06216
1.11161
1
1
1.11843
1
1
1.08815
1.10903
1.11459
1.11857
1.11827
1
1.1187
0.908772
1.11956
1
0.996829
0.889616
1
1
0.915373
1
1.03533
1
1.11877
1
1.11674
1.07495
0.88561
1
1
1
1
1
1.11869
1.00356
1
1.11997
1
1.11847
1.11847
1
1
0.98771
0.999951
0.882603
0.883862
0.907201
1.02454
1
0.999538
0.888161
1.00001
1
1.11823
0.979946
1.11143
1.101
1
1
1
1
1
1.11833
1.11857
1
1.11887
1
1.11932
1.07753
0.99905
1
1
1
1.06862
1
0.982485
1
1.11667
1
1
1.11854
1
1
1
1
1
1.11883
0.887916
0.998775
1.10305
1.11841
1
1.11866
1
1
1
1
0.901214
1
1.1191
1.10736
1.11842
1.12
0.985509
1
1.09754
1.03143
1.11965
1.1186
1.02325
1.12012
1
1
1