/*--------------------------------*- C++ -*----------------------------------*\
  =========                 |
  \\      /  F ield         | OpenFOAM: The Open Source CFD Toolbox
   \\    /   O peration     | Website:  https://openfoam.org
    \\  /    A nd           | Version:  12
     \\/     M anipulation  |
\*---------------------------------------------------------------------------*/
FoamFile
{
    format      ascii;
    class       surfaceScalarField;
    location    "3.625";
    object      phi;
}
// * * * * * * * * * * * * * * * * * * * * * * * * * * * * * * * * * * * * * //

dimensions      [1 0 -1 0 0 0 0];

internalField   nonuniform List<scalar> 
69079
(
-0.000158582
9.16593e-05
6.71922e-05
0.000127438
3.74269e-08
-0.000127531
-0.000132785
0.000132758
0.000128937
-1.51636e-06
-0.000131239
-1.55147e-06
-0.000131261
7.84421e-05
-0.000146926
6.79827e-05
2.94157e-06
0.000145202
-0.000132165
0.000130406
-0.000130381
2.95705e-08
0.000129795
6.1166e-07
-9.84532e-05
-6.00996e-05
-0.000119461
0.000128271
-8.62932e-06
-0.00012814
0.000125546
2.71774e-06
-0.000127484
-6.18132e-07
3.5111e-06
-0.000112319
0.000108808
0.000129772
1.08589e-08
0.00012917
5.90412e-07
-0.000129856
0.000128218
1.63387e-06
-0.000128433
-1.38704e-06
0.000129497
-0.000128831
-6.77929e-07
0.000128574
9.37926e-07
0.000126339
-0.000128786
2.41512e-06
-0.000139066
1.33437e-05
0.000125722
0.000151276
-9.90675e-05
-5.15658e-05
0.000126912
-1.61028e-05
-0.000110918
-0.000128959
-1.32234e-06
0.000129078
7.99145e-08
2.3444e-07
1.16932e-08
0.000140286
-0.00012365
0.000121523
-0.000126105
4.9022e-06
0.000122906
-0.000133216
1.02574e-05
0.000143433
-2.05082e-05
0.000127875
7.68332e-07
-4.69255e-07
-0.000128672
2.38281e-05
0.000104844
0.000127746
-0.000127844
3.89159e-08
2.45197e-07
-7.67137e-06
0.000120188
-0.000101564
-1.13988e-05
-0.000127667
0.000104856
2.79282e-05
-0.000130193
-0.00013611
1.67602e-05
0.000127123
-0.000127157
1.78431e-08
-6.18073e-06
-0.000111169
0.000129703
-2.323e-05
0.000126737
1.46827e-06
-1.16578e-06
-7.45111e-05
0.000142299
-6.77877e-05
0.000124681
-0.000124662
1.10562e-08
0.000142984
-1.83114e-05
0.000121114
2.18031e-05
0.000142119
-2.1042e-05
0.000119631
-3.73464e-06
-0.000115898
-0.000124279
0.000138511
-2.17712e-05
-0.000130499
0.000131875
-1.3005e-06
-0.000131419
5.69249e-05
7.56743e-05
0.000123761
-0.000123696
3.67295e-09
0.00014183
-1.80221e-05
0.000120241
8.03094e-08
-0.000120324
-8.16209e-05
-4.41064e-05
0.000124198
7.62885e-05
5.11724e-05
-0.000127461
0.000133507
-7.30922e-05
-7.03851e-05
-1.4387e-05
-0.000114285
5.00648e-05
-0.000124576
-0.00010722
0.000110731
0.00012496
6.60545e-07
-2.20172e-06
0.000146344
-0.000146304
-1.53004e-05
-0.000115955
-0.000127203
1.04817e-05
-5.1573e-05
0.000130124
0.000119272
2.25678e-05
0.000140847
-2.15716e-05
0.00012202
-1.48106e-05
-0.000105113
0.000127327
-0.000125019
-2.27225e-06
9.64584e-05
5.50722e-05
0.000115195
-0.000118489
3.30139e-06
-2.79087e-06
0.000117989
-0.000123172
1.13344e-05
0.000111837
0.000123001
2.0556e-05
-1.57509e-06
0.000117973
-0.000140346
2.23704e-05
0.000101643
1.79919e-05
0.000131581
-1.36085e-05
-8.11086e-05
-4.94312e-05
0.000125597
-0.000117457
0.000118678
-1.25014e-06
0.00011696
-0.00013264
1.55708e-05
0.000117976
-1.00994e-06
-9.44077e-05
-4.90891e-05
-6.33699e-06
-0.000102332
0.000108669
-7.06728e-05
0.000138937
-6.82643e-05
0.000149967
-4.48287e-05
-0.00012705
9.58386e-06
0.000121063
2.10477e-05
6.93591e-05
5.25892e-05
-0.000121948
-2.61284e-06
-0.000116333
-1.06997e-05
3.12985e-07
-0.000105998
0.000105685
0.000123727
-3.64961e-06
6.78907e-05
5.99309e-05
-0.000127822
5.42637e-05
-0.000124936
-0.000117246
9.25341e-07
0.000126055
-0.000126048
0.000130087
-8.51121e-06
2.06972e-05
-0.000135037
0.000114158
4.35295e-05
-0.000126238
-0.000125787
-1.02578e-05
0.000114928
-0.000134108
1.91738e-05
0.000117605
-2.65681e-06
7.22252e-06
0.000108818
-0.000115995
-1.16534e-05
0.000135413
-0.000119666
0.000119284
2.15645e-05
-2.10617e-05
-0.000104951
0.000105263
7.50907e-06
-0.000120995
0.000113486
-0.000193827
4.81471e-05
-8.06551e-06
0.000117872
-0.000108082
4.75695e-05
-0.000127247
-0.000108935
-3.50688e-06
0.000112377
0.000121631
-0.000124177
2.83741e-06
-0.000123584
0.000106557
1.70274e-05
-3.945e-06
-0.000127309
0.000114674
1.69074e-05
-5.3282e-06
0.000120005
-0.000130763
0.000130765
-0.000112487
3.28751e-06
-3.61028e-05
0.000112391
0.00015044
-8.92464e-05
-6.05919e-05
-0.000131525
5.2428e-05
7.91539e-05
0.000123754
-5.84652e-07
-0.000123173
0.000112974
-0.000131904
1.8952e-05
0.000116816
-3.82765e-06
0.000122434
-2.31038e-06
0.000114612
-0.000113658
0.000116718
7.02981e-06
7.79758e-05
-0.000123726
4.57499e-05
0.000113908
-0.000137329
2.35165e-05
0.000136391
-2.24332e-05
-1.52901e-06
0.000122785
-7.74477e-05
0.000146176
-6.87279e-05
-9.73177e-05
-2.11559e-05
0.000109791
-0.000130558
2.07736e-05
0.000114337
-4.5414e-06
0.000119229
-0.00012785
8.5176e-06
-0.000122751
2.54667e-05
-3.06538e-05
-0.000100987
0.000112609
-0.000135887
2.32556e-05
-2.01441e-05
-0.000111427
0.00011817
8.53561e-05
-9.16931e-05
-0.000104468
0.000111711
0.000133603
-0.000133629
0.000116392
3.28141e-07
-2.09259e-05
0.000121005
-0.000128567
7.6658e-06
-0.000131758
4.02619e-06
7.21724e-05
7.82686e-05
-0.000128981
2.04664e-05
0.000108514
0.000110773
-0.000134598
2.38877e-05
-0.000109797
0.000134071
-2.32881e-05
-0.000123808
-1.95061e-06
0.000106134
-4.78541e-05
-4.07654e-05
0.000118741
-1.92423e-05
0.000143442
0.000112588
2.38188e-05
-0.000114099
0.000110601
-2.32905e-05
0.000114098
-0.000114091
6.9694e-05
-0.000121472
5.17778e-05
0.000109246
-0.000133232
2.39992e-05
0.000132821
-2.35091e-05
-1.90634e-05
-0.000109764
0.000115622
1.07012e-05
-0.000121693
-2.15647e-05
-0.000113494
1.44149e-05
-0.0001141
9.93162e-05
-8.19484e-05
0.000116755
-4.86863e-05
-0.000113382
3.76263e-06
0.000109595
5.70606e-06
0.000118649
-0.000111316
0.000105286
0.000111149
0.000124603
-3.70417e-06
0.000108053
-0.000132413
2.43625e-05
-2.6087e-05
1.02998e-06
-0.000111621
0.000110603
0.000111495
6.63936e-06
-2.29283e-05
4.68367e-05
8.22622e-05
0.000109344
8.08517e-07
-0.000110149
7.66903e-07
0.00010858
8.36971e-06
0.000118985
-4.69901e-05
-6.00276e-05
0.000107036
-0.000151512
9.25664e-05
5.93753e-05
7.33914e-05
-0.000120364
-1.53502e-06
0.000113299
-0.000111756
-0.000113196
0.00011167
0.000118979
-0.000123944
-0.000117232
0.000121992
-4.75471e-06
0.000102098
-0.000122745
2.06816e-05
0.000110622
-8.58073e-06
-1.01997e-05
-9.90038e-05
0.000109204
6.70149e-05
4.77592e-05
-0.000114774
0.000109241
2.46838e-05
-2.40981e-05
1.68857e-05
-0.000117955
0.00010107
-0.000122628
-6.25718e-06
0.000120604
3.71992e-06
0.000106064
-0.000131313
2.52554e-05
0.000130411
-2.43466e-05
7.52581e-05
-0.000120329
4.50712e-05
0.000113757
-0.000106248
0.000116776
-0.000120053
0.000116892
3.32462e-06
-5.41968e-07
0.000119198
3.44896e-05
-0.000121054
-0.000115569
-1.6612e-06
0.000123547
-4.28743e-06
-7.2679e-05
-4.68334e-05
0.000114658
0.000104711
-0.000129804
2.51114e-05
0.000127308
-1.64713e-05
-0.000129838
-2.71631e-05
0.000103651
-8.973e-05
0.000107961
2.49654e-05
-2.44289e-05
-8.43855e-05
-5.29831e-05
0.000135385
0.000126089
-0.000124598
-1.48385e-06
-1.48635e-05
0.000126385
-0.000111524
9.9809e-05
-0.000120196
2.04256e-05
0.000109484
-9.64898e-06
0.000105316
-0.000106562
1.20107e-06
-4.67546e-06
-0.000118909
-0.000132033
2.02475e-05
0.000111786
-2.36864e-05
-0.000108347
-1.62416e-05
-0.000114523
-4.73986e-05
0.000116758
-0.000143952
7.71458e-05
6.6866e-05
-0.000122142
0.000105719
1.64221e-05
0.000106109
-7.14603e-07
0.000114454
-0.000109201
-5.47074e-06
-0.000136415
0.000120165
-0.000117359
1.28773e-07
-0.000115967
0.000117738
-1.76967e-06
-7.07405e-05
-7.32779e-05
6.97841e-05
-0.000124885
5.51009e-05
-8.1107e-07
-0.000124175
-4.22466e-06
-0.000124756
0.000121043
-7.30505e-07
-0.000121195
5.22844e-06
0.000102727
-0.000128976
2.62598e-05
-2.78171e-05
0.000111689
2.45347e-06
9.78769e-05
-0.000118056
2.01428e-05
-0.000123905
2.70888e-06
0.000108284
-1.048e-05
0.00010855
9.09914e-06
-2.27512e-05
0.000126469
-0.000122507
-5.11169e-06
-2.66631e-06
0.000115024
-0.000111282
0.00012369
-0.000123691
-0.000158629
7.47262e-05
8.36031e-05
-6.99374e-05
0.000119674
-5.18208e-05
-0.000113266
-3.93514e-06
0.000117395
-0.000125285
-2.71296e-06
-7.52178e-05
-4.4732e-05
0.000119855
6.89211e-05
4.26587e-05
-0.00011158
8.4336e-05
-9.45357e-05
3.97994e-06
0.000119604
-0.000123584
0.000104551
2.58444e-05
0.000100706
-0.000127534
2.68511e-05
-2.52418e-05
-0.00013035
0.000115495
-0.000118857
0.000118857
8.10026e-05
4.77979e-05
0.000126316
-2.55778e-05
-2.04986e-05
-0.000115921
0.000101064
7.4086e-05
-0.000121679
4.75931e-05
-5.79034e-06
-0.000136105
0.000149336
-1.22037e-06
0.000119347
-0.000118839
9.51228e-05
-0.000115654
2.05437e-05
0.000107031
-1.17944e-05
0.000125263
-0.000126585
-0.000107703
0.000111683
-7.96166e-05
-7.03392e-05
-7.47807e-05
0.000104629
-4.68172e-05
-0.000125614
2.87764e-06
0.000122031
-0.000126022
4.02927e-06
-6.45935e-05
0.000131608
0.000122427
1.16253e-06
0.000121781
4.76747e-07
-0.000151679
7.30071e-05
7.3891e-05
3.6296e-05
0.000106003
0.000121458
3.25434e-07
7.3353e-05
-0.000106716
3.34832e-05
0.000121818
4.55703e-06
0.000109837
-3.64157e-05
3.35253e-05
9.93896e-05
-0.000125739
2.63593e-05
0.000116903
0.000125318
-2.59205e-05
0.000132201
-2.19063e-05
-0.000109258
-0.00010866
-1.27185e-06
0.000110071
-0.00013888
8.07458e-05
5.81477e-05
0.000106331
1.04957e-05
-2.26336e-05
-4.30194e-05
0.000118278
0.000130129
-0.000130434
-0.000106109
0.000106923
0.000111263
-0.000110489
-7.26179e-05
0.00011933
-5.00163e-05
-2.09945e-06
-0.000121072
9.80176e-05
-0.000124648
2.66223e-05
-0.000114413
0.000117165
-2.75472e-06
0.000124192
-2.61638e-05
-0.000128368
0.000126471
0.000118396
3.21807e-06
2.85937e-06
-0.000114607
0.000111747
-0.000133343
0.000141793
-0.000103294
-8.85299e-06
0.000111432
-0.000119177
4.76189e-06
-0.000108134
-4.08108e-05
0.000103316
-0.00011985
0.000140409
-1.40114e-05
0.000122199
-3.05156e-07
-0.000117094
-2.08401e-06
0.000120155
-0.000120154
9.6687e-05
-0.000123596
2.69551e-05
0.000123232
-2.65056e-05
9.10098e-05
-0.000110979
2.00007e-05
0.000103869
-1.29729e-05
-6.97966e-05
-6.90923e-05
-0.000124473
4.70251e-05
-0.000115485
-1.60965e-06
6.18585e-05
6.90547e-05
0.000121057
5.21891e-06
0.000104983
9.35616e-06
-2.25401e-05
-0.000117105
0.00010742
9.6858e-06
0.000129825
-0.000125262
-0.000102899
0.000114233
0.000104975
-0.000112641
7.70351e-06
0.000111695
-4.36381e-06
-0.000107332
9.53289e-05
-0.000122676
2.72783e-05
0.000122061
-2.68177e-05
-4.21178e-06
-0.00011793
-0.000119482
0.0001238
-4.84632e-06
1.10519e-06
-0.000114495
0.000143822
-2.73183e-05
-5.52683e-05
0.000123159
2.21782e-07
-0.000134294
2.19747e-05
-0.000111313
-1.25588e-05
0.000112982
-4.55759e-06
-0.000108423
9.9206e-05
2.71474e-05
0.000119604
-4.99102e-05
-2.6516e-05
-0.000121034
0.000109893
1.11412e-05
5.75266e-06
-0.000117448
-0.000153291
8.95187e-05
6.37689e-05
-0.000112913
3.15347e-06
0.000109765
-6.94935e-05
-8.37765e-05
3.92892e-06
0.000107742
-0.000111668
-0.000113584
4.60744e-06
0.000108971
-7.21425e-06
-0.000106368
-0.000118146
0.000110935
9.39409e-05
-0.000121416
2.75264e-05
-0.000114074
2.30067e-06
0.000111776
0.00011379
-4.12396e-06
-0.000109669
-3.15271e-06
0.000113199
-0.000110052
0.000110632
0.00012107
-2.70897e-05
0.000114816
-4.38021e-06
-0.000110434
0.000119046
-5.57164e-07
-0.00013045
-1.28372e-05
-0.000117509
-4.49021e-06
0.000114757
-0.000110266
6.72081e-05
4.47195e-05
-0.000111928
-0.000122601
4.9472e-05
-5.75365e-05
-6.61592e-05
-0.000135534
3.16699e-05
9.78194e-05
2.75028e-05
3.45395e-06
-0.000120146
-2.68412e-05
5.38203e-06
0.000106311
-0.000108437
8.05003e-06
0.000100387
9.25775e-05
-0.00012046
2.78453e-05
-5.98423e-06
0.000119941
0.00011428
-4.827e-06
-0.000109449
-0.000119762
-6.03365e-06
0.000119917
-2.73514e-05
-7.15713e-05
0.000109848
-4.91309e-05
0.000126764
-1.12445e-05
-0.000115521
0.000170431
-3.17035e-05
-0.00012218
0.000119615
2.71539e-06
0.00012226
-0.000121488
-0.000122881
7.22472e-06
0.00011566
-4.29663e-06
0.000113549
-0.000109155
-6.56754e-05
0.000118265
8.69987e-05
-0.000106493
1.95647e-05
-1.51408e-05
0.000102171
9.75896e-06
0.000117935
-8.51503e-07
0.000111776
-0.000110752
-1.16545e-05
9.8848e-05
-8.77854e-05
0.000135601
-8.01783e-05
-5.54229e-05
2.53737e-06
-0.00011498
0.000112443
2.51849e-06
-0.000118004
0.000116971
-0.000116971
-0.000110421
0.000111561
-1.13713e-06
0.000111376
-0.000114311
3.32548e-06
-0.000101747
0.000102788
3.73838e-07
0.00011296
-0.000113557
-9.53343e-07
-0.000112354
0.000113246
6.00641e-05
7.34222e-05
-0.000134869
-1.32633e-06
0.000119066
-0.000115504
-1.43662e-06
0.00011694
-0.000123565
-2.86572e-08
0.000111573
-0.000112642
0.000105372
3.35654e-05
9.12336e-05
-0.000119343
2.81372e-05
-5.04199e-05
-5.63727e-05
0.000106791
9.63969e-05
2.78192e-05
-0.000133898
8.34783e-05
0.000115016
-4.09302e-05
-3.14692e-05
-2.71578e-05
-0.000140399
8.01222e-05
6.02787e-05
-6.79058e-05
0.000119798
-5.99601e-05
6.48987e-05
6.23807e-05
-0.000127279
-7.11494e-05
0.000121214
-0.000117926
0.000110191
7.66382e-06
-0.000117488
-5.51321e-07
-0.000114224
1.20903e-07
0.000114237
3.43876e-06
0.000108289
-0.000108047
-2.74725e-06
0.000110799
-0.000101694
8.94712e-05
8.39382e-05
-0.000121075
0.000110403
-0.000119818
-2.37249e-06
0.000111525
-0.000109078
4.61239e-05
-0.000135317
-7.41095e-05
-6.62865e-05
2.04156e-06
0.000112026
-0.000113946
-0.000121729
-6.41839e-06
-0.000142956
8.2958e-05
-2.78719e-06
-0.00012009
0.000125608
-0.000124625
-0.000100387
0.000120854
-0.00011715
0.000115377
-1.38518e-07
0.000113005
-0.000113189
-2.45623e-05
-9.42948e-05
7.59788e-05
-0.000151179
-3.45057e-05
0.000115508
-0.000111284
-5.15747e-08
0.000111215
2.60538e-07
7.62669e-05
-0.000117026
1.63472e-06
-0.000113032
0.000111469
9.51808e-05
2.8104e-05
0.00011246
9.16627e-07
-0.00011303
0.000113422
-7.03987e-07
-0.000112721
-1.07353e-06
0.000113651
0.000112122
-0.000113093
-2.74655e-05
-0.000112105
-1.97126e-06
-1.53721e-06
0.000113595
-0.000121948
0.00012571
-0.000112114
0.000112284
-2.88444e-07
1.20602e-06
0.000110246
0.000109515
3.68242e-06
-0.000111727
-5.63871e-07
-6.32403e-05
-4.94908e-05
0.000112929
-0.000135295
2.9297e-05
7.44249e-05
-0.000113804
-3.16816e-06
8.83157e-05
-0.000118776
3.04907e-05
0.000126796
-0.000120807
-4.61265e-06
-2.06912e-06
0.00012301
0.000116833
-2.8453e-05
4.24374e-05
-0.000117078
9.06634e-05
-0.000104134
1.35482e-05
-1.47e-05
0.000105154
-0.000117415
0.000108154
9.26076e-06
0.000105591
-9.47134e-06
-0.000115118
0.00012133
-6.13992e-05
-3.99121e-05
9.23861e-05
-0.000116899
0.000112675
-3.43059e-06
-0.000113579
-7.33536e-05
-7.95868e-05
-9.65164e-05
1.16952e-06
9.51176e-05
-0.00011528
0.000112087
2.67161e-06
0.000112381
-0.000115037
-3.35944e-06
-0.000118863
0.000126555
2.23591e-06
0.000112549
-0.000114971
0.000136825
-6.68861e-05
-6.99387e-05
5.17966e-06
0.000107804
9.36071e-05
2.84402e-05
-0.000116186
2.87474e-06
0.000112897
-0.000117619
5.00659e-06
-2.77647e-05
8.75138e-05
-0.000116373
2.88447e-05
-3.269e-05
8.84178e-05
-0.000102766
1.44159e-05
-0.000108056
0.000106624
-0.000108479
-4.42998e-06
-1.68237e-05
0.000105502
4.73087e-06
5.15073e-05
8.40939e-05
0.000122592
-0.000120055
0.000114359
-9.36641e-07
-0.000121572
4.93339e-05
0.000111801
-1.19917e-06
-0.000110518
-0.000113812
0.000131291
0.000106466
-8.95807e-05
1.36882e-06
-0.000107468
3.5816e-06
-0.000113825
0.000110342
-3.11312e-06
0.000120275
6.60489e-05
6.18114e-05
-0.00012786
7.31484e-05
6.48841e-05
-0.000142067
-0.000104261
-2.26239e-06
0.000105092
-2.1284e-06
-0.000111498
0.00011414
7.44643e-06
0.000116241
-0.000116462
0.000112018
-0.000113604
0.000115488
-0.000116464
9.76638e-07
-2.34527e-06
0.000114615
1.00587e-06
0.000112727
-0.000113586
0.000113411
-0.000115327
-0.000123095
-6.59036e-05
0.000111948
-5.26314e-05
-7.00025e-05
0.000113879
-5.74046e-05
-0.000138293
3.7906e-05
0.000113965
-0.000112814
-1.09002e-06
-0.000111851
0.000112984
-1.27467e-05
0.000123276
-0.000110533
0.000127319
-7.95601e-05
9.23785e-05
2.87363e-05
-0.000110704
3.43897e-06
0.000107265
8.16235e-05
-0.000137146
5.55932e-05
0.00012168
6.10317e-06
-0.000115506
-0.00013633
7.9229e-05
5.71062e-05
-2.80871e-05
0.000110446
-0.000107587
-0.000116655
-1.30089e-06
-0.000109421
0.000111473
-2.04933e-06
1.2872e-06
-0.000110767
-0.00011697
0.000104929
1.16774e-05
-0.000116653
0.000115242
1.34199e-06
-0.000113392
-3.26742e-06
8.59731e-05
-0.0001168
3.08372e-05
-0.000120379
-1.65237e-07
0.000114815
-2.88341e-05
-0.000134226
8.88562e-05
-0.00011875
0.000113426
5.36732e-06
-0.000117406
-1.25494e-06
-0.000115364
0.000113721
1.69186e-06
-0.000113822
-1.57856e-06
-0.000116459
-0.000113829
0.000112967
7.71192e-07
-0.000117221
8.82283e-06
0.000108399
0.000115274
-0.000112607
-9.69814e-05
-1.45246e-07
-0.000116054
4.61772e-06
0.000111436
-0.000109922
-2.12928e-06
0.000111725
9.09074e-05
-1.46991e-07
0.000109193
-0.000108901
-0.000112067
-2.1188e-06
0.000114174
-0.000115199
4.07973e-06
0.000111032
-6.85044e-05
-9.01826e-05
4.01529e-06
0.000119823
-5.0039e-05
0.000117485
4.48344e-06
0.000108798
2.09104e-06
-0.000110894
6.38915e-07
0.00011226
-0.000112892
-0.00010987
0.000118329
-4.94079e-05
0.000115068
-5.08389e-06
-0.00010999
-0.000114832
2.22374e-06
0.000112613
9.08983e-05
2.90602e-05
-0.000113323
1.2435e-06
0.000112068
0.00010728
3.79693e-06
-0.000111104
-2.83799e-05
0.000119257
-1.98557e-06
-0.000114303
2.29539e-06
0.000111846
6.33916e-06
-1.12799e-06
-0.000113214
-0.000112803
0.000111584
-1.20029e-06
-0.000111558
-0.000165076
0.0001498
0.000113767
-2.23586e-06
-0.000111735
8.50467e-05
-0.000114503
2.95275e-05
-3.29748e-05
0.00012401
-0.000123639
-8.95953e-05
8.80315e-05
2.70513e-07
-0.000113311
2.71824e-06
0.000110592
-6.75646e-05
-7.53614e-05
-0.000108423
9.49029e-05
0.00011348
-0.000112897
-5.83113e-07
-0.000112305
4.14683e-06
-0.00012008
4.61857e-05
-0.000111204
-1.13145e-06
-0.000109652
0.000108027
4.21763e-07
0.000108191
-0.000108489
-0.00011439
3.48896e-06
0.000110905
0.000127316
-0.000139374
0.000119644
-0.000114467
0.000110547
-0.00011493
-8.89262e-05
7.15393e-05
-2.82134e-06
0.000114925
-1.38632e-06
-0.00011344
0.000112252
-0.00011674
0.000114014
0.000118991
-0.000119844
-0.000116886
0.000115603
1.35387e-06
-0.000113717
-3.18973e-06
-0.000119307
0.000115704
3.53512e-06
-0.000116375
-2.98199e-06
-0.000119503
0.000115976
3.50889e-06
-0.000116499
-2.94887e-06
-0.000119481
0.00011614
3.45919e-06
-0.000116547
-2.88941e-06
0.000134861
-8.8109e-05
-1.66197e-07
-0.000111593
0.000111656
-0.000119557
0.000116157
3.3459e-06
-0.000122354
6.87482e-05
5.42229e-05
-0.000116831
-2.81899e-06
-0.000119754
0.000116442
3.28682e-06
0.000114557
0.000125722
-0.000110226
-1.54918e-05
9.16992e-05
1.34739e-05
-0.000105275
-0.000117025
-2.71893e-06
0.000115151
-0.000119734
0.000116673
3.15011e-06
0.000118211
5.06322e-06
-0.000117042
-2.59272e-06
-0.000135919
3.09688e-05
-0.00011226
3.02043e-06
0.000109319
-0.000119646
0.000116657
2.99306e-06
-6.75464e-05
-5.23623e-05
0.0001199
-0.000117283
-2.45003e-06
9.94646e-05
-0.00010207
2.55513e-06
2.83304e-06
-0.000109025
0.000106191
-0.000119858
0.000116878
2.88553e-06
-0.000112871
-4.81397e-06
-0.00011754
-2.32471e-06
-2.46703e-08
-0.000113062
-0.000106817
-9.41603e-06
5.33659e-05
-0.000120918
-0.000115558
-5.27255e-06
0.000102732
-1.13182e-05
-0.000110012
0.000114887
-4.86379e-06
-0.000112029
2.02741e-06
-0.000119776
0.000117147
2.72912e-06
-0.000117469
-2.17453e-06
-4.18931e-06
0.000110818
-0.00010663
2.80837e-06
0.000110158
-0.000112951
-0.000119064
0.000116451
2.58418e-06
-0.000117729
-1.46836e-06
0.000116238
-0.000119049
2.75264e-06
-2.51937e-06
0.000122674
-0.000121475
-0.000119649
0.00011726
2.31645e-06
8.55833e-05
-0.000115842
3.03435e-05
-0.000117974
-1.82459e-06
1.90405e-06
-0.000109044
0.00010714
9.67547e-05
1.38123e-05
-0.000119803
0.000117604
2.17007e-06
0.000116854
-8.13607e-06
-0.00010902
-0.000118154
-1.61201e-06
0.000113947
-2.82503e-05
-2.20211e-05
1.64914e-06
-0.000109206
0.000107559
0.000111221
-0.000114598
3.39434e-06
-3.96781e-07
0.000111633
-0.000119469
0.000117701
1.97789e-06
-0.000117987
-1.44251e-06
-0.000144534
0.00015694
2.28889e-05
2.89967e-06
-0.000109492
0.000106587
3.74055e-06
-0.000110405
0.000106666
-0.000118946
0.000117053
1.78097e-06
2.41846e-06
-0.000113349
0.000111583
-0.000118401
-6.92121e-07
-7.34405e-06
0.000117502
-0.000115356
-2.78591e-06
-0.000118766
0.000117222
1.48718e-06
-0.000118511
-3.86315e-07
-0.000113208
0.000113397
-1.71419e-07
-0.00011433
0.000114509
-3.41888e-07
-9.60751e-07
5.76084e-05
-0.00013115
-2.39807e-06
-0.00011201
-0.000111384
0.000110336
0.00011493
-0.000118591
3.4318e-06
-6.25463e-05
-6.34324e-05
0.000112526
-0.000119085
0.000117911
1.1573e-06
4.81489e-07
0.000110842
-0.000111305
-0.000118611
-6.09825e-07
-1.21211e-07
-0.000111173
0.000111289
-4.04765e-06
0.000109761
-0.000105717
-2.08097e-07
-0.000111376
-0.000112229
0.00011182
-0.000119143
0.000118108
9.46408e-07
-0.000118724
-3.97769e-07
-0.000113826
-3.48496e-07
0.000114211
-0.00011216
1.57382e-07
0.000111943
-0.000118467
0.000117766
7.6746e-07
-0.000111005
-0.000118704
3.61372e-07
-0.000116597
0.000118282
-1.69561e-06
-1.2883e-06
-0.000120415
-0.000118741
0.000118402
4.023e-07
-0.000118743
1.71096e-07
-0.000113539
1.9093e-06
-3.91742e-06
-0.00011843
0.000118371
1.65125e-07
-0.000118858
4.22056e-07
-4.80218e-05
-6.61058e-05
-2.80748e-07
0.00011187
-0.000111586
-0.000112781
0.000112495
0.000110933
-0.000109555
-0.000118224
0.000118312
-8.24401e-08
-0.000113303
-8.02962e-07
0.00011387
-0.000118974
6.5237e-07
7.7202e-07
0.000113556
-0.000114137
-0.000149225
0.00010841
-0.000115245
8.04036e-07
0.000114593
-8.37366e-06
-0.000118285
0.000118492
-3.12897e-07
-0.000119126
8.87132e-07
0.00011496
-3.4872e-07
-0.000117856
0.000118597
-5.08971e-07
-0.000118844
1.04192e-06
5.89671e-07
-0.000121135
0.000108719
-0.000117257
0.000117343
-1.53946e-07
-0.000101257
-5.74006e-05
0.000160259
-7.08039e-06
8.3195e-05
-0.000113485
3.00479e-05
5.8089e-06
-0.00012303
0.000105934
-2.21069e-06
-0.000102324
-3.25718e-05
-0.000115277
6.59604e-06
0.000107837
-4.1374e-06
-0.000104391
-6.83831e-05
-6.43722e-05
0.000132976
-0.000116707
0.000115527
1.19216e-06
-0.000116201
-1.06226e-06
-2.89298e-06
8.68584e-05
3.00254e-05
0.000111368
-0.000110866
-0.000116918
0.000116001
9.16867e-07
0.000111243
9.45267e-05
3.07833e-06
-9.7605e-05
-1.74683e-06
-2.94813e-05
0.000102384
-7.85683e-06
0.000118407
-1.1077e-06
1.01914e-06
-1.81197e-06
0.000114686
-5.18067e-06
-0.000110516
0.000116403
-9.13907e-07
-1.37238e-06
0.000120864
6.15642e-05
7.3942e-05
-0.000135147
7.90772e-05
5.60219e-05
-8.55107e-05
-5.27824e-05
-1.45673e-05
0.000115998
-1.71453e-06
-0.000112133
-0.000119836
-0.000125196
6.9218e-05
-0.000109297
0.000109947
0.000112444
-0.000110294
7.28376e-07
-0.00011316
1.76511e-06
0.000111355
0.000122193
-4.93967e-05
-0.000113408
2.6603e-06
0.000110737
7.00088e-06
-0.000116779
0.000109735
-0.000111345
9.37785e-07
-0.000131158
4.98707e-05
0.000126855
-9.78693e-05
-4.05031e-07
0.000111137
-0.000110807
-4.7528e-06
-0.000109327
0.000113961
7.24632e-05
-0.0001237
5.12368e-05
0.000107603
-0.000111793
0.000115959
-0.000102615
-0.000150005
8.86818e-05
6.13228e-05
-0.000113828
2.38152e-06
0.000111485
-2.62599e-06
-0.000110375
-0.000126335
6.24549e-05
9.91616e-05
6.3987e-06
-0.00010551
0.000108889
-9.28685e-06
-4.87263e-06
2.3036e-06
-0.000119441
7.53476e-06
-1.30659e-06
-0.000111962
0.000115465
-0.000113395
-1.9923e-06
0.000109741
-0.000110427
4.97892e-05
-0.000142505
0.000111437
3.86676e-07
-0.000115694
0.00011612
-3.99135e-07
0.000121536
-0.000123535
-0.000116
-4.69434e-07
-2.45234e-06
-0.000111151
-6.54204e-05
0.000101621
-3.46205e-05
-8.70196e-07
-0.000113506
0.000114396
9.25432e-05
1.31763e-05
-0.000105719
0.00011336
-0.000111186
8.11756e-05
-0.000112844
3.16617e-05
0.000103646
-1.11026e-05
-2.79565e-06
-0.000111995
0.000110388
-0.000108589
0.000106983
-0.000111818
0.00011042
-2.9358e-05
-3.81175e-06
-0.000104892
0.000109427
-0.000112133
0.000109862
-6.69763e-05
0.000130733
-6.37562e-05
-0.000118442
0.000118171
4.28196e-07
-1.83867e-06
0.000111037
-0.000111319
-6.80907e-05
-6.82422e-05
0.000106719
-0.000110146
-3.98255e-06
0.000111084
0.000121225
-8.69124e-05
-6.65274e-05
0.000119561
-5.27623e-05
0.000110856
-0.000119831
3.29699e-06
0.00014997
-1.00172e-05
-9.99686e-05
3.45718e-05
-1.27245e-06
0.000100817
5.19188e-07
0.000116456
-0.000120089
5.6801e-06
0.000114465
-0.000120145
-0.000118058
0.00011858
-3.49739e-07
-9.91406e-07
-0.0001147
9.01699e-07
-1.56472e-06
0.00010687
-0.000105228
-0.000116899
9.49297e-05
1.45367e-05
-0.000117957
0.000118771
-6.47352e-07
-0.000135649
2.84288e-05
0.000108287
-0.000109728
-6.8301e-07
-2.19028e-05
0.000114835
-2.34964e-06
-1.55782e-06
-0.000112384
0.000114111
0.000117427
-5.02193e-05
-0.000115508
1.41303e-06
-0.000109987
0.000105697
0.000108809
-2.4449e-06
0.000112705
6.30463e-06
-0.000115126
0.000109019
-0.000117638
0.000118917
-1.43107e-06
-0.000108441
4.07701e-07
0.00010852
1.14583e-07
0.000125413
-8.27543e-05
-0.000108771
-4.78695e-06
0.0001117
-0.000108582
0.000114377
-2.2333e-06
0.000116115
-1.82527e-06
7.8497e-05
-0.000108696
3.02519e-05
5.83574e-06
0.000108369
-0.000115539
-0.000110548
0.000113323
0.000130167
-0.000119509
0.000108826
-3.02018e-05
4.38981e-06
-0.000114193
0.000110451
-5.68816e-06
0.000114867
-0.000108958
7.59102e-06
0.000107751
-0.000115287
-0.000108664
0.000116674
0.000140855
-0.000111505
-2.93205e-05
4.48676e-06
-0.000108336
0.000103749
-0.000108584
0.000145469
6.61705e-07
0.000107872
-0.000103528
5.0432e-05
9.04303e-05
0.000116164
-1.30876e-06
4.97337e-06
-0.000117004
0.000111348
5.58538e-06
-0.000114934
0.000110785
7.95887e-06
0.000103987
-0.000111938
7.34413e-07
0.00011083
-0.000110297
-0.00011809
0.000107045
-0.000106953
0.000116165
-3.21376e-06
3.79029e-08
0.000109996
-0.000110147
0.00014042
-0.000147465
0.000111415
-0.000118368
1.46833e-06
3.24778e-06
0.000115556
-7.98538e-07
-8.68815e-07
-0.000110687
0.000109884
-0.000109794
-2.05287e-06
0.000106285
-0.000109754
-0.000110615
0.000106061
8.48528e-05
3.00029e-05
-0.000114534
0.000113514
1.06209e-06
0.000117677
-0.000117866
4.30766e-07
0.000118984
-8.97581e-07
-2.95758e-05
0.000111039
6.00482e-07
0.000117924
-0.000118646
4.85115e-07
-0.000117861
0.000118933
-1.03564e-06
0.000118662
-9.55503e-07
9.91804e-06
0.000106812
-0.000116732
-9.75999e-05
0.000107517
1.16021e-05
-0.000109202
-0.000107551
0.000103186
-0.000118364
7.00406e-07
-6.39274e-06
8.90527e-05
-0.000102796
1.3743e-05
-3.96399e-07
0.000117006
0.000108116
-0.000109773
0.000115199
9.41145e-05
-5.06186e-06
-0.000115329
-8.13467e-05
0.000103511
-2.22321e-05
0.000121973
-8.10222e-06
0.000110092
-0.000102125
7.73386e-05
-0.000107757
3.04059e-05
0.000107792
-3.05456e-05
0.000104642
-0.000104983
0.00011763
-6.16987e-06
7.96969e-07
-0.00010884
0.000115624
-7.11691e-06
-9.52383e-05
0.000103996
-9.79409e-05
5.0807e-06
-0.000112907
-0.000114341
4.49962e-07
-9.3175e-07
0.000113165
-0.000113532
0.00011399
3.48014e-06
0.000104408
-0.000107878
0.00010747
-2.35268e-07
-0.00011239
-0.000103411
-7.38265e-06
-3.50855e-07
-0.000140255
-0.000118627
3.36013e-06
6.27308e-07
0.000110145
-0.000110768
-0.000113898
-2.2317e-06
0.00011792
-0.000117918
2.18607e-06
-6.86248e-05
-8.13691e-05
-0.000113721
4.0457e-07
-0.000118656
-2.15043e-06
-5.72774e-05
-7.78664e-05
5.5534e-06
-0.000122083
-0.00010844
-9.15877e-05
-1.6283e-06
0.000106135
-0.000109756
2.68626e-06
-0.000109349
-1.58715e-06
0.000110807
0.000109926
2.19797e-06
-0.000111158
-0.000122032
0.000122051
-0.000105652
9.24969e-05
-1.12088e-06
1.32465e-05
-9.47342e-05
-0.000112446
7.16073e-06
-0.000116208
-1.24891e-06
-0.000116198
-1.15392e-06
-0.000115934
-1.11941e-06
-0.000116097
-1.35196e-06
5.63086e-07
-0.000118484
1.37817e-06
-0.000121386
5.91074e-05
4.75119e-07
-0.000115835
-1.07516e-06
6.8736e-07
0.000113862
4.31471e-07
0.000114063
-0.000115509
1.30288e-06
-0.000116334
-1.49427e-06
3.94878e-07
-0.00013884
7.7744e-05
6.10952e-05
-0.000115803
-1.05161e-06
8.18992e-07
3.64991e-07
-0.000111528
0.000114115
-2.57759e-06
-0.000116346
-1.69518e-06
0.000113815
-0.000122409
8.26914e-06
-0.000115546
-1.05294e-06
3.64634e-07
1.84722e-06
-0.000115324
-1.0588e-06
0.000115459
-0.000114824
-4.84362e-07
-0.000116111
-1.86374e-06
3.80221e-07
-4.28339e-06
-0.000115295
-1.09413e-06
1.24283e-06
-0.00011563
-9.74625e-07
-0.000116038
-2.0366e-06
3.86588e-07
-0.00012634
5.93642e-05
0.000104883
-0.000109006
7.45801e-05
-0.000106363
3.18182e-05
1.39289e-06
1.89401e-06
0.00011367
-3.69675e-07
-0.000112717
7.52168e-07
-0.000116194
-2.22079e-06
0.000110269
-0.000111421
2.47442e-06
-0.000111358
1.57656e-06
-3.00349e-06
1.60003e-06
-3.63221e-05
2.82773e-06
0.000110363
-0.000112037
-0.00011603
-2.49615e-06
1.05185e-06
-0.000109833
-9.17066e-07
0.000110719
2.62961e-06
-0.000115897
-2.77535e-06
2.93762e-06
0.000131452
-0.000115611
-3.00171e-06
2.39955e-06
-0.00011541
-3.2602e-06
1.23184e-06
-0.00011413
1.00038e-05
-0.000108717
2.64609e-06
5.04206e-06
-0.000109585
0.000104546
-0.000115114
-3.57338e-06
0.00012588
-3.79199e-07
-0.000104408
0.000109449
-0.000113308
-1.20315e-06
3.73675e-06
-1.76683e-06
-0.000111994
0.000113332
-0.000113048
-6.39804e-07
0.000115113
-0.000115168
-3.79985e-06
3.20726e-06
-0.000114981
-4.0092e-06
9.39434e-05
1.43394e-05
3.45916e-06
-0.000108918
-1.67672e-06
0.000109024
-0.000114709
-4.30067e-06
0.000112192
0.000115171
5.61585e-07
-2.18713e-05
3.71203e-06
-1.1818e-06
-0.00011824
-0.000117108
0.000116804
-3.01288e-06
-0.000114387
-4.50508e-06
-0.000116868
0.000118907
-2.47714e-06
-0.000118818
1.80306e-06
1.59133e-05
-0.000107604
9.17203e-05
3.92038e-06
-0.000114674
-3.93541e-06
4.02064e-06
-5.62009e-05
-7.63513e-05
0.000132504
-1.05886e-06
-0.000107276
0.000111099
0.000109108
-0.000113104
3.01578e-06
-0.0001157
-3.04214e-07
0.000108478
-0.000107981
-4.25789e-06
0.00011039
-0.000106133
7.888e-07
-0.000108205
-9.58497e-07
0.000113162
1.33055e-06
0.000111107
-0.000113967
-7.0544e-05
0.000136593
-0.000106511
-0.000132247
0.000145128
-2.06042e-06
4.17314e-06
0.000109583
1.61792e-06
0.000111847
-0.000113647
-5.62765e-07
0.000112116