/*--------------------------------*- C++ -*----------------------------------*\
  =========                 |
  \\      /  F ield         | OpenFOAM: The Open Source CFD Toolbox
   \\    /   O peration     | Website:  https://openfoam.org
    \\  /    A nd           | Version:  12
     \\/     M anipulation  |
\*---------------------------------------------------------------------------*/
FoamFile
{
    format      ascii;
    class       volScalarField;
    location    "7.6";
    object      T;
}
// * * * * * * * * * * * * * * * * * * * * * * * * * * * * * * * * * * * * * //

dimensions      [0 0 0 1 0 0 0];

internalField   nonuniform List<scalar> 
22702
(
1
1
0.960855
1
1.01718
1
1.12079
1
1
0.889314
1.12148
1.12062
1
1.11848
0.967627
1
1
1
1.12096
1
1.11862
1
1.11966
0.900295
1.11973
0.88794
1
1.12028
0.8959
0.898208
1
1.11968
1
1
1
1.11048
1.11891
1.11972
1
1
0.88957
1
1.06236
1
1.12049
1
1
1
1
0.896536
1
0.896431
1
1.12121
1
1.11939
1
1
1
1
0.885188
1
1
0.895798
1
0.894572
1
1
1
0.890202
1
1.11864
1.07617
1
1.11866
1.12503
0.896705
1.11922
0.898677
1
1.12058
0.898811
1.12075
1.1212
1
1
1
1
0.982202
0.890415
1.12069
1
1
0.889272
1
1.11881
0.88822
1
1
1
1
1.0631
1.12057
0.88913
1
1
1.03185
1
0.898755
1
1.11838
1.12023
1
1
0.884745
0.884277
0.889939
1
1
1
1
1
0.978307
1
1.10368
1.01221
1.11849
1
1.11835
1.12041
1.1185
1.12134
1
0.890049
1
0.887393
1
1
1
1
1.12004
1
1
1
1
1.11918
1
1.00728
1
1
1
1
0.898005
1
1.00297
1
0.900818
1
1
1
1.12016
1
1.1188
0.885792
0.886402
1.11879
1.11891
1
1.02307
1.07142
1
1.12084
0.897948
1.11074
1
1
1
1
1.11857
1.10036
1
1.12034
0.895673
1.11968
1
0.895399
1
0.897085
0.887956
0.999943
1
1
1.12107
1
1
1.11868
1
1.11919
1.12041
0.892827
1
1
0.896629
1.11876
1
1
1
1.11874
1
0.893702
1
1
1.11849
1.11849
1.11844
1
1.00001
1
1
1
1.1187
1
0.894577
1.12344
1.11861
1.11828
1
1
1
0.893272
1.11828
1.06028
1
1.11889
0.89246
0.893013
1.11888
1.11783
1
1.1196
0.889701
1.10627
1
1
1
1
1.11849
1
1.07321
1.01175
1
1
1.11885
0.888962
0.927296
1
1.11792
0.89273
1.11943
1
1
1
1
1
1
1
0.893523
0.929805
0.891104
1.11852
1
1
1
1
1.11003
1
0.895668
1
0.88959
0.896531
1.11858
0.895568
1.11857
1
1
1
0.999337
0.894116
0.889755
1
1
0.88825
1
1.11994
0.887457
1
1
1.1209
0.885285
1
1.11847
0.889489
1.11875
1
0.892822
0.99933
1
1
1
0.896862
1
1
1
1.00001
1.00449
1.07664
1
0.888621
1
1
1
1
1
1
1
1.12129
1
1.12186
1
1
1
0.890224
1
1.11908
0.894435
1
1.09598
1
1
1.12025
1
1
1
1.11886
1
1
1.11918
1.12033
1
1.02751
1
1
0.886757
1
1
1
0.88999
1
1
1
1
0.884526
1
1
1
1
1
0.885737
1.00002
1.11875
1
1
1.11877
1.11895
1
1
0.899438
0.944533
1.12053
1
1
1
1.11867
0.889473
1
1.11873
1
1
0.912401
0.909655
1
0.894331
0.889933
1
1
1
1
1
1
1
1.11928
1.03149
1.11439
0.885944
0.974402
1.1202
1
1.1189
1.12047
0.888211
0.929785
1
0.888816
1
1.1251
1
1
1
1
1.11872
1
1
1
1
1
1
1
1.04796
1.1201
1
1.11856
1
1
0.89959
1
1
1
1
1.11873
1.09244
1
1
0.896313
1.11856
1.11852
1
1.11853
1.11876
1.11855
1
0.951942
1
1.11827
0.998518
1.11855
1
0.888673
0.999665
1.12074
1
1
1
1
0.896988
1.11835
1.10813
1
1.11968
1.11844
1.12034
1
1.06
1.11871
1
1
1.08541
1.01879
1.11844
0.982357
1.11844
1
1.11845
1.11853
1.11846
1.1185
1
1.11591
0.975241
0.966007
1
1
1
1
1.11971
1
1
1
1
1
1.12051
1
1
0.998877
1.11857
1.10375
1
1.09909
1.00001
1
1
1.11831
1
0.999233
1.00124
1
1.11856
1
1.11869
1
1
1.09024
1
1.119
1.00001
1
1.11917
1
1.11873
1
1
1
1.1186
1
1.11896
1
1.11859
1.12178
1.11878
1.12073
1
1.12138
1.11547
1
0.895374
1.11204
1.088
1
1.11866
1
0.88725
0.889363
1
1
1
1
1
0.889394
1
1.11852
1.03209
1.11827
1
1
1
1
1
1.11853
1
1.11866
1.07342
0.930603
1
1
1.03735
1.03171
1
1
1.04465
1
0.900771
1.1187
1.11867
1
1
1
1.12141
1
1.00001
1.11793
1.11845
0.9864
1
1
0.894922
1.10866
1
1
1
1
1
1.11863
1.12089
1
1.119
1.11871
1.11878
1
1
1
1
0.887325
1.12061
1
1
1.109
1.11819
1
1.11233
1.11926
1
1
1
1
1
1.11863
1
1
1
1
1.11909
1
1.11702
0.886717
1
0.892233
1
1
1
0.99912
0.89793
0.999717
1
1
1
1.01766
1
1
0.961151
1
1
1
1
1
1
1
0.999999
0.981193
1
1
0.999318
1
0.896391
1
1
1
1
1.09068
1
1
1
1
0.895131
1
1
1.11227
1.12068
1
1
1
0.966972
1
1
1
1
1
1
0.986219
1.00451
1.11871
1
1
1
1.11944
0.973052
1
1
1
1.12031
1.11918
1
1
1
1
1
1
1
1
1
0.890622
1
1
1.11958
0.892157
1
1.1196
1
0.899422
1
1
0.890513
1
1
1
1
1
1
1
1.11649
1.1183
1
1
1
1
1.10927
1
1.04201
0.892873
1
1
1
1
1
1
1
1.01249
1
1
1.06514
1
1
1
1.09939
1
1
1
1
0.887016
1
1
0.887583
0.887436
1
1
1.11829
1
1.01362
1
1
1
1.08598
0.885241
1
0.88445
1
0.9333
1
1
1
1.11926
1
1
1.11843
1
1
1
1.11845
1
1
1.11844
1
1
0.8886
1
1.04213
1
1
1.12022
1.1204
1.08224
1.10742
1
0.886871
1
1
1.11383
1
0.887049
1
1
1
1.11843
1
1
1
1
1.07376
1
1.10888
1.11807
0.890684
1
1
0.88994
0.889425
1
1
1
1.08717
1.09212
1
1
1
1
1
1
1
1.0526
1.12219
1.00367
1
1.11733
0.888062
1
1
1
1.06933
1
1.0256
1
1.10925
1.11821
1
0.889187
1
1.11977
1
1
1.11847
1.1119
1
1.12218
1
0.891392
1
1
1
1.11659
1.11646
1.10537
1
1.11911
1.11856
1
1.1186
1
1.11823
1
0.892199
0.993439
0.887953
1
1
1
1
1
1.11881
1
1.11885
1
1
1
1.11331
1
0.898008
1.11843
1
0.898874
0.892372
0.886146
1
1.06234
1.01269
1.11904
1.11853
1
1
1
1
1.11877
1
1
1.11873
1.11865
1
1.04567
1
1
0.999035
1.11909
0.957966
1
0.951052
0.900143
0.901115
0.988197
1.11954
1.11717
1.0261
1.11859
1.11865
1
1
1.11989
1.12056
1.11848
1.12175
1
1.11873
0.898735
1.11948
1.11848
1.11979
1.11935
0.96088
0.971418
0.980799
1.11833
0.989144
1.11864
1
1
1.11911
1.11882
1
0.890235
1.11848
1.11861
1
1.11858
1.1186
1
1.11881
0.896539
1.11997
1.12124
1.12109
1.12028
1
1
1
1.11846
1.0799
0.896663
1.11852
0.885499
1.11831
1
1
1
1
1.11843
1.11865
1
1
1.11867
0.88593
1.11873
0.896145
1
1.11784
1
0.888993
1.11878
0.920284
1
1.11844
1.11935
1.11859
1
1
1.06375
1.11919
0.899848
1.11857
1
1.1186
0.962259
1.11838
0.890733
1
1.11828
0.903232
1.11912
0.898743
1
1.1184
1
1.11936
1
1.07251
1.1146
1.09549
0.88239
1
1.11845
1
1.11872
1
1.11874
1
1
1.1183
0.99646
1.11926
0.889384
1.11132
1
1.08661
1
1.11894
1.11866
1.11861
1
1.10771
1.11845
1.11061
1.07592
1.11517
1
1.08048
1
1.11826
1
1.02094
1
1.11089
1
1.11868
1.11357
1.1135
1
1.11757
0.888855
1
0.886013
1
1
1
1.11869
1
1.11875
1
1
1
1.11877
1.11298
1.09911
1.1185
1.11939
0.892295
1.11726
1.12107
1
1.10323
1.11853
1.11356
1
1.12071
1.11965
1
1.12144
1.11876
1.11887
1.11865
1
1
1
1.11854
0.887579
1
1.11852
1
1
0.88707
1
1
1.11859
1.11846
1
1.11856
1.11607
1.11884
0.994733
1.11853
1
1.11857
1.11856
1.09645
1
1
1
1.11892
1.11861
1.11854
0.984079
1
1.11941
1.11855
1.11842
1
1.11864
1.11835
1.11849
1.11975
1
1.11845
1.1195
1.10416
1.11836
1.11917
1
1.11986
1.11734
1.11856
1.11896
1.11836
0.89051
1.11852
1.11858
1
1.11861
1.11848
1.1186
1.11865
1
1.11846
1.11859
1
1.11858
1.10142
1
1
1
1.11908
1.11867
1
1
1.06857
1
1.11859
1
1
1.11863
1.11891
1.11852
1.11865
1
1
1
1.08603
1
1.11855
1
1
1.11918
1.12152
1
1.11855
0.886958
1.11878
1.11931
0.916706
1
0.884477
1.10473
1.1196
1.11859
1.11887
0.887541
1.11837
1.11905
0.887041
0.885888
1
1.11819
1.11851
1
1
1.11856
1
1.11817
1
1.10486
1
1.05988
1.11845
1.11919
1.08633
1.1068
1.11908
1.11913
1.1114
1
0.885916
1.11764
1.11874
1.12059
1
1
1
1.11944
1
1.11861
1.11802
0.923065
1
1.11857
0.999982
1
1.00001
1.00001
1.1187
1.11905
0.999569
1
1
1.11873
1.11918
1.11849
1.11956
1.11817
0.892489
1.10374
1
1.11776
1.11843
1.11862
1.12007
1
1.11856
1.11568
1.11889
1
1.11897
1.11869
0.960191
1.11857
1.11923
1
1.11849
0.954994
1.11878
0.959748
1.11861
1
1.11855
1.12185
1.11865
1.1187
1.11854
1.11914
1.11873
1.11939
1
0.97894
1.1186
1.11867
0.95456
1.11847
0.995679
1.07801
1.11849
1.11867
1.11928
1
1.11933
1.07792
1.11829
0.979462
1.1191
1.12168
1
0.961973
1
1.1215
1
1.08359
1
1.11199
0.962211
1
1.11932
1.11718
1
1.11837
1.11907
1.11926
1.11703
1.11935
1
1.12084
1
1
1
0.971387
1.11855
1.11874
1.11972
1.11854
1.11738
1.12015
1.11655
1.11879
0.971858
1.00877
1
1
1.1227
1.11864
1.11842
1.1185
1.00001
1.06338
1
1.12124
1.10515
1
1
0.917148
1.11855
1
1
0.899796
1.11846
1
1.12225
1.1186
1.11921
1.1145
1.11848
1
0.883242
1.03031
1.11844
1.11851
1
1.1185
1.11858
1.06062
1.00282
1.02822
1
1.11969
1.11858
1
1
0.889781
1
1
1.11859
1.11857
1.11894
1.11848
1.11859
1.11943
1.1186
1.11904
1.11858
1
0.998971
1.1185
1.11869
0.999098
1.11855
1.11855
0.885739
0.890571
1.11862
1.11851
1
1
1.00028
1.11848
1.11872
1.11848
1
1.11857
1
0.958522
1.12096
1.11796
1
1.05613
1.1186
1
1.11918
1
1.1185
1.08094
1.11854
1
1.11846
1.12124
0.887601
1.11857
1
1.11875
1.12187
1
0.887306
1.11824
1.10039
0.999366
1.11678
1.1185
1
1.00054
1.1182
0.999399
1.11865
1
1
1.11858
1
1.11897
1.11854
0.999006
1.09523
1
1.11852
1
1
1
1
1.1185
1
1
1.12144
1
1.11856
1
1.07936
1.11998
1.1188
1
1
1.00079
1
1.11885
1.11866
1.11858
1.11856
1.11867
1.1185
1.11865
1
1.11866
1.11874
1
1.11862
1.11854
1
1.11852
0.978151
1.01672
1.11863
1.11848
1.11847
1
1.11861
1
1.11847
1.11854
1
1.11873
1
1
1
1
1.11845
0.888574
0.999405
1
1.11845
1.11964
1
1.11841
1
1.00153
0.89468
1.11858
0.999885
1
1.11844
0.999522
1.11854
1
0.999935
1
1.11876
1.11979
1.11835
1.11868
0.897119
1.11823
1.11829
1.11844
1.03151
1
1
1.05306
1.11863
0.886947
0.895293
1
1.11853
1.11863
1.11812
1
1
1.11891
1.11841
0.999966
1
1.08969
0.888794
1
1.02305
1.12078
1.11619
0.999494
1.11856
1.1198
1
0.999703
1
1.11889
1.11896
1.05104
1
1.11173
1
1.00049
1.11897
0.889644
1.11799
1.11857
0.999126
0.999976
1.10434
1
0.999913
1
1.11982
1
1
0.88645
1.11858
1
1
1
1
1.1179
1.07025
1
1
0.887069
1.11846
1.07104
1
1
1
1.11376
1.11647
1.11993
1
1
1.12055
1
1.11864
1.1186
1
1
1.11896
1.11863
1.11336
1
1
1.11908
1.11874
1
1
1
1.11919
1
1
1
1.11866
1.11911
1.11915
1
1.11795
1.00001
0.903073
1.11797
1.11811
1
1.11928
1.11269
1.11951
1
1
1.11979
1
1.06904
1.11907
1
0.890197
1
1.11895
1
1
1.11956
1
1
1
1.0399
1.11927
0.894989
1
1.11886
1
1
1.11888
1
1.1198
1
1
1.11864
1.11863
1
1.00001
1
1
1
1
1
1
1.1183
1.11857
1
1.12203
0.888112
1.11784
1
1.11847
1.12069
1.11859
1.1192
1.12113
1
1
1.11906
1
1.07955
1.11972
1.11863
1
1.11885
1.11784
1
1.10617
1
1.11851
1.08008
1.11848
0.999308
1.11687
1.11062
1.11873
1.11868
1.0111
1.11862
1.1192
1
1.11845
1
1.11868
1
1
1
1
0.998847
1.11852
1.11857
1.09986
1
1.12036
1
1
1
0.887559
1
1.11586
1
1.1084
1.11282
1
1
1
1.11107
1.11905
1
1
1.11824
0.892363
1.0231
1
1.11983
1.11856
1.10877
1.11557
1.11877
1
1.11852
1
1
1
1
1.11887
1.11883
1
1.11772
1.01793
1.11885
1.11106
1
1
1.11148
1
1
0.889335
1.08903
1
1
1.12093
1
1.11936
1.1093
1
1.10927
0.893048
1.11865
1.11851
1.11875
1
0.894049
1
1
1
1.11859
1.09832
1
1.12093
1.11854
1
1.11858
1
1
1
1
1.11873
0.999815
1
1.11893
1
1
1.11868
1.11862
1
1.12077
1.02453
1.00001
1
1.11838
1
1.11834
1
1.00323
1.11854
1
1.11854
1
1
1.04032
1.11891
1
1
1
1
1
0.998963
0.889525
0.883893
1.00556
1
1.00843
1
1.00749
1
1.11849
1
1.07577
1
1.11859
1
1
1
1.1186
1
1.094
1.11839
1
1.06623
1.11861
1
1
1.11851
1.11855
1
1
1.01589
0.884184
1
1.11893
1
1
1
1
1.02128
1.11857
1
1
1
0.893271
1
1.11863
1.11853
1.12069
1
1
1
1
1.06202
1.11988
1
1
1
1.11814
1.11852
1.01726
1
1
1
1.11833
1.1185
1
0.89011
1.11847
1.11858
1.1187
1.11867
1.11911
1
1
1.11944
1.11806
1.11864
0.894544
1.01181
1.11889
1
1
1
1
1
1.1187
0.894857
1
1
1.11847
1.056
1
1.11988
1
1
1
0.891836
1
1
1.0331
1.11842
1.11852
1
1.11772
1.12058
1
1.02314
1
1.12038
1
1.11883
0.892076
1
1
1
1
1.11858
1.00002
1
1
1
1.11491
1
1
1
1
1.11837
0.890031
1.09526
1.1194
1
1.11869
1
1
1
0.999185
1
1.12023
1
0.945072
1
1
1.00001
1.1187
0.894745
1
1.11844
1
1.11878
1.11863
0.895944
1
1
1.11619
1
1
0.892534
1
1.11988
1
1.11377
0.999805
1.11862
1
1
1
1
1.12153
1
1
1.11852
1
1
1
1
1
1
1
1
1.08061
1
1.04144
1.11874
1
1
1
0.88816
1
1
1
1
1.11835
1.11844
1.01905
1
1
1.11885
1
1
1.11885
1
1
1
1
1
1
1.11875
0.935243
1.11849
1.11897
0.999174
1
1
1
1.07278
1
1
1.11887
1.11867
1
1
1
1
0.895609
1
1
1
1.07794
1
1.11857
1.11926
1
1.11896
1
1
1
1.06667
1
1.12083
1
1.11852
1
1
0.998912
1.11851
1
1
1
1
1
1.11936
1.00001
1
0.891749
1.11872
0.893932
1
1.11847
1
0.998891
1
1.11872
1.11974
1
1.11864
0.96898
1.11852
1.12037
1.00001
1
1
0.8881
1
1
1
1.11859
1.07306
1.11865
1
1
1
1
0.999063
1.11863
1
0.890605
1
1
1
1
1
1
1
1.12031
1.11905
1.11885
1
1
0.999118
1
0.995289
1
1
1
0.891365
0.99604
1
0.890298
0.888858
1
1.11867
1.11837
1
1.1186
1.11847
0.888452
1.08135
1
1
1
0.891136
1.11878
1
0.889945
1
1.12052
1.02361
1
1
1
1
1.11853
1.12009
1
1
1.11857
1
1
1.12036
1.11862
1
1.11204
1.11849
1.11947
0.992621
1.11844
1.00255
0.890039
1.09332
1.11872
1
1
1
0.893914
1
0.888875
1.11917
0.990853
1.1185
0.988468
1
1.1185
1.05861
1
1
1.119
1
1.05156
1.11842
1
1
1.11868
1.12047
0.889365
1.0755
0.999969
1
1.07485
1
1.11695
0.986471
1.1216
1.12018
1
1
1
1
1.11943
1
1
1.11903
0.999895
1.11878
1.09681
1.11833
0.89392
1
1
1
1
1.1187
1.00001
1.11857
1
1.11883
1.11869
1.01648
1.11693
1.03969
1.11923
1
1.08312
0.899444
1.11962
1.11858
1.09717
1.02396
1.11965
1.11853
1.11856
1.11814
1
0.975354
1.01958
1
1.1186
1.05871
1.11873
1.00001
1
1
0.896104
1.11817
1.11918
1.09827
1
1.04988
1
1.12019
1.1189
1
1.11863
1.11902
1
1
1
1.11857
1
1.05002
1.11854
1.08376
1
1.11847
1
1
1
1
1
1
1
1
1
1
0.893
1
1.11091
0.889421
1.07164
0.999583
1.11898
1
1.06605
1
1.07962
1.10285
1
1.0004
1.12002
0.974709
1
1.11893
1.11527
0.986343
1
1.1194
1.11881
1.11904
1
1.11852
1.11897
1.11922
1
1.05616
1
1.00002
1.11876
1
1.11877
1.01888
1.11812
1
1
1.11852
1.11944
0.898005
1
1.11837
1.09151
1.11841
1
1
1.11931
1.11818
0.999503
1
1.10414
0.999119
1.11865
1.00003
1
1
1
1
1.05608
1
1.09287
1.11862
1.09164
1.11875
1
1.00061
1
1
1.11971
1
1.1194
1
1
1
1
1
1
1.01623
1.06612
1
1
0.891842
1
1.11842
0.895621
1.12057
1
1.06545
0.999931
1.11894
1.07931
0.896687
1.06777
1.00001
1.11853
1.11894
1
1.0756
1.11811
1.11903
0.999544
1.11846
1.11565
0.889206
1
1
0.999289
1
1.11641
1
0.897354
1.11916
1
1
1.105
1
1.1187
1
1.11885
1
0.901657
1
1
1.11919
1.12056
1.11983
1
1.11906
1.11867
1.11681
1
1
1.11716
1
0.919127
1
1
1
1.11929
1
1.11838
1.08034
1.11891
1
1.11855
0.999825
1
1
1
1
1
1
0.913752
1
1
1.11843
1
1.11968
1.11743
1
0.889061
0.891086
1
1.11895
1.02063
0.89386
0.884979
1
1.11899
1
1.1182
0.891431
1.00048
1
1
0.99986
1
1
1
0.999973
1.05069
1.11867
1
1
1.11868
1.07436
1
1.10539
1.11891
1.1182
1.05191
1.11973
1
1.11862
1
1.11542
1
1.11993
1.11804
0.999042
1.11944
1.11814
1
1
1
1
1
0.978386
1.11965
1.00001
1.00001
0.893706
0.999992
0.883628
0.890399
1
1.11927
1.11835
1.11876
1
1.11851
1
0.893059
1
1
1.11909
0.949914
1.1187
1
1.11903
1
0.996392
1.11838
1
1
1
1.11934
1
1.11877
0.889593
1
1
1.07351
1
1
1.06768
1
1
1.11881
1
1
1
1
1
1.11951
1.11858
1
1.11897
1.11911
0.89274
1.05844
1.11914
1
1
1.10803
0.999722
1
1
1.11854
1.1184
1.0798
1
1.11893
0.892998
1.1097
0.999868
1
1.11894
1.00001
1.11902
1.10137
1.09296
1
1
1.11863
0.91221
0.89447
1
1.11864
1
1.11848
1
1.07273
1
1
1.11838
1.07888
0.890144
1
0.999506
1
1
1.00761
1.0505
1.11862
1
1.12013
1
1
1
1
1
1
1.01873
0.884591
1
1
1.0105
1
1
1
1
1
1.11875
1
1
1.11848
1.11853
1.08714
1
1
1
0.952123
1.11996
1.08485
1
1
1
1
1.11849
1
1
1
1.11863
1
1
1.08771
1.12366
1.01182
0.922902
1.11879
1.08631
1.11832
1
1.06393
1
1
1
0.886349
1.00081
0.892753
1
0.891179
0.882141
1
0.888101
1
1
1
1.05772
1
1.11839
1.11896
1.00042
1.05924
1.1015
0.892489
0.926889
0.968503
1
1.11853
1.12038
1.11852
1.11853
1.1032
0.96628
1
1.10357
1
1.11153
1
1
0.998972
1.00294
1
1
1
1.11896
1
0.889477
1
1.1189
0.891445
1
1
1.11856
1
1.11855
0.999996
1
1
1.11875
1.10838
1
1.12303
1
1
1.00417
1
1.05373
1
1
0.891196
1
1
1.11921
1
1.11819
1
1.00001
0.888696
1
1
0.900098
1.00031
1
1.11975
0.881008
1.11833
0.890264
1.11842
1
1
1
1
1
1
1
1
1
1
1
1.11417
1
1.11895
1.12024
0.889834
1
1
1
1
1
1
1.1157
1
1
0.893433
1
1
1.11964
1
1
1.04892
1.10089
0.890238
0.891844
0.905777
0.920755
1
0.99903
0.898097
1.0001
1.10887
0.999124
1
1
1.11932
1
1
1
0.930168
1
1.04545
1
1
1.05324
1.11851
1
0.892149
1
1
1
0.998973
1
1.11793
1.11861
1
0.889173
1
1.06688
0.892335
1
0.970061
1
0.998855
0.882595
1
1
1
0.998712
0.896543
1
0.891776
0.999555
1.06703
1.10826
0.891022
0.894784
1
0.997282
1
0.99961
1
1.1188
1.11838
1
1.0052
1.11902
1.11862
1
1
1.1186
1
1
1.00001
1
1.12024
1
1
1.00518
1
0.999592
0.902349
1
1
1
1
1
1.11878
1.01159
1.00001
1
1
1
1
1
1.00001
1
0.893144
1.02758
0.9996
1.11617
1.11974
1
1.00451
1.11893
1.10346
1
1
0.890508
1.11865
1
1.11982
1
1.1188
1.08285
0.894511
1
0.893752
1.11108
0.999907
1
0.885581
0.891417
1
1
1.10188
1
1
0.884935
1
1
1
1.04166
1
0.889548
1.1188
1
1
1
1
1.11869
1
1
1.11809
1.10784
1
1
1
1.11944
0.889531
1
1.11897
1.11861
1
1.09711
1
1.00001
1
1
1.10937
1.005
1
0.890747
1.06682
1
1
0.999258
1
1
1.11959
1
1
1.00001
1
1.11916
1
1
1
1
1
1
1
1.05454
1
1.11826
1
1
1.11891
1
1
1
1.11861
1.11794
1.01234
1
0.999292
1
1
1
1
1.12035
1
1
1.11855
0.88966
1
1
1
1
1
1
1.09802
1
1
1.11875
1.11937
1
1
1
1.11892
1.11826
1
0.99991
1.11742
1
1
1
1.00001
0.896331
1.00838
0.998804
0.998852
1
1
0.89254
1.11921
1
0.890686
1
1.1184
1.11412
0.891959
0.999829
1.11865
1.11899
1.11811
1
1
0.977654
1.10795
1.10039
0.89172
1
1
1
1.11836
1.11858
0.884304
0.999234
1
1.11872
0.891562
1
1.1144
0.889007
0.994763
1.00202
1
1.11706
1
1
1
1
1
1
1.00003
1.11115
1
1
1.1184
1
1
1
1.1186
1
0.893381
1
1
1
1.04446
1
1
1
1
1
0.938724
1
0.894184
1
1.1186
1.00002
0.960944
0.964878
1
1.00115
1.06625
1
1
0.892863
1.1186
1.11858
1.11858
1
0.881685
0.88426
1
1.11849
1
1
1
1
1
1.00001
1
0.894778
1.07802
1
1
0.888088
0.998257
1
1
1
1
0.882313
1
0.903926
1
1
1.12143
1
1
0.891067
1
1.11864
1
0.89276
1
0.891273
1
1.00232
1.11827
1.12266
1
1
1.1202
1
1
1.02792
0.999114
1
0.999465
1
1.11941
1
0.896555
1
1.12102
0.999659
1
1
0.937753
1
0.999724
0.886618
1.1191
1.04642
1
1
0.972086
1
1
1
0.936652
1
1
1
1.11855
1
0.895002
1
1
1
1
0.887732
1.1186
1.10723
0.887283
1
1.12066
1
1
1.11863
1.11958
1.10168
0.885441
0.999344
0.999786
1
1.11857
1
1
1
1
1.11845
1.00001
1
1
1.11868
1
1
1.11854
0.890185
1
1
1
0.892292
1
1
1
0.99962
1
1
1
1
1.09677
1
1.11918
1.11899
1.12133
1.11862
1.11843
1.11854
1
1.11847
1
1.11871
1.11856
1
0.999669
0.888891
1.10266
0.99997
1
1
1
1
1.00026
1
1.01984
1
1
1
0.948052
1.11856
1.11832
1.1197
1.10289
0.999965
1
1.00649
1.11893
0.999395
1.01864
0.999152
0.893984
1
1.00001
1
1
1
1
1
1.11867
0.894041
1.11856
1.11844
0.998669
0.887781
1
1
1
1.11841
0.886507
1.10605
0.886594
1.11869
1.12021
0.892249
1.1184
1.00709
1
1.1194
0.940278
1
0.999638
0.892509
1
0.885615
1
1.11853
1.11861
0.929758
1
1.11923
0.8948
1
0.892308
1
1.11846
1
1
1.1194
1
0.957274
1
0.999912
0.886921
1.11784
0.999852
1
0.888886
1
1
1
1
1.0699
1
1.1184
1
1
1.12219
1
1
1.11903
1
0.886589
1
0.89699
1
1
1
1
1
1.11388
1.07157
1.11858
1
1.11848
1.11107
0.881892
0.892196
1
1
1.11816
1
0.884537
1
0.997653
1
1
1.11863
1
1.1192
0.889925
1.12131
1
0.891049
1
1
1.11964
1.11826
1
1.00001
1
1.11528
1
1
0.885243
0.999823
0.894328
1
1
1
1.11891
1.11822
1.11959
1
1
0.890855
1
1.11943
1
1
1
1.11265
1.11854
1.1185
0.8891
1.11957
1.11848
0.890923
1.11959
1.00001
0.892868
1.00484
1
1
1.11869
0.888902
1.07938
0.888426
1.1185
0.999248
0.884361
1.11897
1
1
1
1
1.11844
1.12009
0.892187
1
1.00001
0.889532
1.00001
1
0.892032
0.895608
1.08458
1.11873
0.999561
1.11854
1
1.12081
0.946902
0.89069
1.11848
1.12267
1
1.11852
1
1
1.11864
1
1.09088
1.11967
1
1
1
1
1.11842
1.11735
1.11933
1
1
1.11914
1.1195
1.11881
1
1.11841
1
1
1
1
1
0.893201
0.958356
0.889463
1
1
1.11874
1
1
1.11805
0.88704
1
1.11865
1.11737
1.11429
0.881654
1
0.890652
1
1.00001
1.12
1.05894
1.12047
1.10919
1
0.890669
1
1.11791
1.08693
0.896661
1
1
1
0.941712
1
1
1.12209
1
0.896249
1.11858
1
1
1
1
1
1.0978
1.02835
1
1.11885
1
1.1183
1
0.99926
1
1.11855
1.11945
1.11859
1.11949
0.999878
1.11983
1
1.11858
1.11837
1.10217
1
1
0.892345
1.1193
1
1
1.1197
1.11847
1.11935
1
1.11856
1
1
1.00001
1.11988
1.1192
1.03757
1.02771
1.11857
1.1183
0.905976
1
1
1
1
1
1.04416
1
1
1.10361
0.89744
0.999988
1
1.11871
0.99997
0.999949
1.01936
1.11027
1.11924
0.974435
1
0.889343
1
1.00111
1.11852
1.1192
1.11662
0.999719
1
1
0.894311
1
1
1.11849
1.01435
1
1
1
1
1
1
1
0.999983
1.11951
1
1
1
1
1
1.07754
1
1.05861
1
1
1.11855
1.11875
0.888648
0.999652
1
1
1
0.892336
1.11954
1.11867
1
1
1
1
1
1
1
1
1.1186
1.11731
0.890552
1.01448
0.894108
1
0.887029
1
1.11865
1.0373
1
1
0.906834
1
1.11442
0.942897
0.998988
0.882589
1
1
1.11934
1.00001
0.99919
0.883301
1.11956
1.11985
1
1
1
1
1.11156
1
1
1.11851
0.999697
1.11971
1.00002
1
1
0.890748
1
1
1.11847
0.888726
0.93324
0.897016
1.11855
0.999814
1
1.11925
0.889704
0.887294
1.00431
1
1
1.11992
1.00001
1.05583
1
1
1.12025
0.891271
1
1
1.00004
1.11988
1.00005
1.1153
1
1.00001
1
1
0.913719
1
0.935251
1
1
1.11963
0.889433
1
0.932486
0.940401
1
1
1.11861
1
1
1
1.1189
1.11869
1.00001
1.11848
1.11984
0.93389
1.11846
1.11106
1
1
1.11928
1
1
1
1
1
1.12069
1.11864
1
1
1
1.11836
1.00006
1
0.887216
0.914198
1
1.00001
1.04656
1
1
0.971264
0.895484
1
1
1
1.11892
1.10963
1.11863
1
1
1
1
0.887805
1
1.11564
1
1.11655
0.89003
1.11771
1
1
1
0.890903
1
1.11931
1.00001
1
0.895848
1.04662
1
0.999904
1.12165
0.887139
0.89033
1
1.11965
0.888897
0.884812
1
0.891153
1
1
1
1
0.888961
1
1
1
1
1.11945
1
1.09275
0.887611
1
1
1
0.889757
1.1184
1
1
0.999037
1.11651
1
1.11865
1.11944
1
1
0.914482
0.890295
1
1
0.893226
1.04157
1.0567
1
1
1.12029
0.999233
1
0.999301
1.1199
1
1
1
1
1
1
1.11889
1
1.04483
1.04113
0.906677
1.10627
1
1.11842
1.11865
1
1
1
0.973979
0.890104
1
1.0655
0.999904
1.10881
1
1
1
1
1
1.00192
1.05677
1.11883
1.11888
1
1.11865
1
0.890656
1
0.999244
0.99994
1
0.884068
1
0.891574
1.00001
1.11926
1.11949
0.887617
1.11966
0.891625
0.998911
1.09288
0.890836
1.087
1
1
0.999554
1
1
1
1.00002
1
0.880975
1
1
1
1
0.999886
1.11849
0.941793
1
1
1
1.01078
1
1
1
1.07122
0.925339
1
1
1
1.01344
1.11965
1
0.888168
1
1.11893
0.971533
0.89828
1
0.889597
1
1
1.11266
0.9995
1.11085
1
1.00248
1
1
1.11873
1
1
1
1
1.02608
1
1.11851
1.11897
1.11882
0.890344
1.11872
0.999183
1.09909
1
1
0.881675
1
1
0.892219
1.1189
1
1
0.999989
1
1
1
0.883072
0.886962
1
1.12085
1
1.05874
1.11861
0.88725
1.10156
1
1
0.896436
1
1
1.11859
1.11836
1.04633
1
1
1.00053
1.11946
0.890038
0.892403
1.11923
1.11855
1.08319
1.05084
1
0.970867
1
1
1
1.11037
1.12011
1.11926
1
1
1.11841
0.889939
1.10864
0.885257
1
0.895403
1
0.887817
1.11856
0.887861
1
0.995439
0.898942
1
1
1
0.956171
1.11186
1.11857
1.11952
1.12088
1
1
1.11999
1
1
1.11849
1
0.888981
1
0.890452
1
1.11895
1
1
1.0059
1.09348
1
0.999682
0.889211
1.11855
1
0.887757
1.02515
1
1
1.09368
1.11847
1.11843
1
1.11832
1.03619
1
1.00706
1.11851
1
1
1
1
1.11867
1
0.894708
1.11901
0.887346
0.88945
0.951463
1.11848
1.04486
1.11884
1
1.12085
0.99931
1.00001
1.11872
1.11988
1
1.12055
1
1.11853
1
1.11969
1
1.00001
0.999997
1.11928
0.887865
0.896837
0.999392
1
1
1
0.890096
1
1.08168
1
0.885955
1
1.05204
1.11867
1.11977
1
1
1.00001
0.999837
1
1.11966
1.11852
1
1.05224
1.11885
0.9525
1.11854
1.00006
0.884238
1.0279
0.889669
1
1
1.02207
1.12089
1
1
1.01409
0.999592
1
0.887581
1
0.935904
1
1.1183
1
1
0.88892
1.02903
1.02028
0.999575
1.11856
1.11852
0.935734
0.999454
0.887244
0.890843
0.886935
1
1
1
0.999747
0.916832
0.890267
1
1.11852
0.999929
1.11861
1.11852
1.11966
1.11835
1
0.889025
1.1189
0.890762
1
1.11839
1.11829
0.999054
0.942526
1.11828
1.09158
1
0.889563
1
1
1.11949
1
1.00765
1.1184
1
0.889635
0.88752
1
1
0.888344
0.882562
1.11859
1.00001
1
0.888152
0.884375
1.11886
1.11592
1.11149
1.11918
1.03721
0.99579
1.04993
1.11891
1.09738
1
1.06682
1
0.882565
0.961964
1
0.892527
1.11849
1.00641
1.11889
1
1.1187
1.11976
1
1.11903
1.1185
0.893512
1.11895
1
1.12291
1
0.928192
0.894214
1.11863
1
1
1
0.888599
1.11903
1.11882
1
0.894464
1
1
0.884845
1.00001
0.883565
1.12053
1
0.948101
0.883895
1
1
1.07027
1
1
1
1.02215
0.893277
1
1
1
1.11923
0.886938
1
1.11869
0.889269
0.888328
1
1
1.11934
1
1.11854
1
1.11854
0.894999
1
1
0.889687
0.942612
0.890963
1
1
1
1
1.11886
0.8827
1
0.88509
1
1.11923
1
1
0.981533
1
1
0.946017
0.999909
1.00001
1
0.889522
0.898142
1
1
1
1
0.939156
1.11827
1.11961
1
0.885152
0.889693
0.974894
0.897272
1
0.949333
1
0.887829
0.997115
1
1
0.895704
1
1.11876
1.11456
0.893345
1
1
1
1.11773
1
1.01443
0.952173
1.04181
0.891763
1.04962
0.889767
1
1
0.914929
0.976043
1
1.01472
1
1
0.890668
1
0.983762
1.01486
0.886623
1
1.09787
0.927181
0.963132
1
1
1
0.891618
1
0.888248
0.891726
1
0.955517
0.888088
1.02128
0.924209
0.886285
1.11866
1
1.11857
1.06836
0.917367
1.11859
0.888906
0.999716
1.11963
1
1
1.11831
1
0.917252
1
1.02087
1
1
1.11845
1
0.928504
0.946839
1.12068
0.984073
1
0.925489
1.11873
1.11953
0.974584
1
1.11869
1.03341
0.954443
1
1.00691
1
0.895241
1.05391
0.931799
0.920491
1
1
0.895173
1.11844
0.991575
0.891016
0.885117
0.95888
1
1.00414
1.11979
1.11864
1
1
1
0.894536
1.06098
0.999995
1.11869
1.11332
0.88743
1
1.02559
0.961769
1.07373
1.10836
1
1.01306
1
1.00002
0.886087
0.955179
1
1
0.946531
0.88822
1.01267
1
1.00001
0.886486
1.05813
1
1.11594
1
1.01278
1.06714
1
1.11494
1
1
1.11923
1
0.886875
1.11964
0.898967
1.0347
1
0.891826
0.999975
1
1.00001
1
0.940716
1.00786
0.892418
1.09013
1.12005
0.882235
1
1
1
1
1
0.993205
0.890489
1.01439
0.890938
0.888171
1.02003
1
0.999945
1.0326
1
1
0.891674
0.999018
1
1
1.0381
1
1.11989
1
1.11931
1.02535
1.0047
0.891849
1
1
0.889239
1
1
1
1
1.11893
1.01229
0.999448
1
0.883331
1.01486
1
1
1.0814
1
0.889322
1.11867
1
1
1
1.11861
0.889214
0.963343
0.887697
1.09176
1.119
1
1
1.11833
1
0.883522
1
1
1
1
1
0.930637
1
1.11925
1
1
1.04475
1.11959
0.886896
0.96289
1
1.11861
1
1
1
1
1
1.11852
1.11936
0.882342
1.1185
0.883713
1
1
1.11851
1
1.11948
1.00115
1.00805
1.02073
1.11859
1.02029
1.08423
0.88726
1
0.88421
0.998224
1
1.11852
1
1
0.886583
1.11884
1
1.11922
1
1
1
1
1
1
0.894582
1.11985
0.955901
1.11851
1
0.888353
0.889056
0.914217
1.12095
1.11825
0.994274
1
0.936333
1
1.05125
1
1.11862
0.885812
0.892364
0.956878
1
1.11854
1
1.01939
0.892596
1
1.1203
1.1073
0.999692
1
1.11877
0.892517
1.11946
1.1189
1.11985
0.887019
1.02585
1
1
0.885851
1
0.940914
0.94991
1
1.00001
1.11861
1
1.11976
1.02568
1
1.01169
1.1211
1
0.886539
1
0.932812
1
1
1.09912
1
0.940406
1
0.896269
1.0106
0.987368
0.884757
1.11867
1.09724
1.11953
0.89323
0.907712
0.998855
1
1
0.895363
1.11255
0.894457
0.999991
1
1.11855
1.11922
0.972722
1
0.894862
0.912823
1.08175
0.99308
0.885889
1
0.889176
1.03301
0.89363
1
1.00002
0.947454
1.11915
1.11904
0.95348
0.999888
1
1
0.914167
1
0.88899
1
0.885933
0.893947
1
1
1.00001
0.896245
1.11859
1
1
1.00002
1.00001
0.893531
1.11857
1.1185
1
0.891154
1.11983
1
1.02588
1
1
1.1191
0.886034
1
1
0.890613
0.919797
0.890618
0.888689
1
0.907288
0.999182
1.02934
0.886646
1
1
1.03638
1
1.10616
1
1
1.08469
0.901129
1
0.88992
1.03681
1.11875
1
1
0.89371
0.890472
0.886204
0.921035
0.888938
1.09191
0.999828
1
1
1
1
1.11904
0.888383
1
0.979662
0.999911
0.99962
0.999983
0.92721
1.03662
1
1.11856
1.11843
1
1
1.11448
1.00001
1
1.11833
0.890002
1.11906
1
0.887183
1.11862
1.00001
1
0.947899
1
0.888378
1
1.11926
1
1
1.11929
1
1
1.1179
1
1
1
1.11995
1
0.92583
0.913935
1
0.883673
1.11822
1
1
0.993709
1
1.1204
1.07076
1.09688
1
1
0.893371
1
0.89262
1.11835
1.11892
1.1192
1
1.11982
0.892535
1
0.891649
1.0973
1.10916
1.11948
1.11846
0.927313
0.883248
1
1.07794
1.11932
1.11899
1.11859
0.920825
1.04668
1
1.09323
0.918448
1
1
1
1.00001
0.967464
1
1.11846
1
1
1
1
1
1
1.00002
1.11799
1
1.11914
1.08986
0.892806
1.12062
1.01001
1.06184
1
1.11859
1
0.890364
1
1
1
1
1.1029
1
0.886819
1.11883
0.882155
1.11852
1.09728
1.06593
1
1.02423
1.06018
0.998697
0.890481
0.929833
1.00001
1
0.976295
1
0.880532
1.11921
0.887875
0.978065
0.956696
1
1
1
1.00396
1
1
0.882946
0.999208
1.12078
1
1.11852
1
0.889259
1
1
1.11843
1.11852
0.8866
1
1.11945
1
0.942846
0.885807
1.119
1.10794
1
1.02145
1.11881
0.999621
1
1.05261
1.10551
1.11855
0.998739
1
0.999999
1.10251
1
1
1
1.11859
0.999564
1
1
1.11838
1
1
0.893522
1
1
1
1.11943
1
1
0.956762
1.04176
1.10897
0.931667
1
1.1186
1
1.04507
1
1.12023
0.999235
1.11856
1
0.891636
1
1.08803
1
1
1.11154
1
1.11874
1
1.11817
0.90286
0.891452
1.11942
1
1.10132
1
1.11905
1
1
1.00001
1.11895
1.11888
1.03502
1.1186
0.998688
0.889482
1.11862
0.959966
1
1.11988
1
1.11832
1
1.11901
1.1191
0.998913
0.891369
1
1.11868
1
1.01037
1
1
0.999429
0.916885
1.10717
1
1.11045
1
0.960206
0.882548
1.11865
1.1191
0.899244
1
1.11899
1.1197
1.11946
0.903826
1.11858
0.889269
1.11888
1.11639
1
1
1.11859
1
1
1
1
0.894013
1
1
1.11919
1.11865
1
1.11862
1
1.11971
1.11952
1
1.10074
1
0.886062
1.11862
1.09069
1.03662
0.884443
1.11863
1
1
0.884673
1
1
1.11861
1
1
0.930294
1
1.11864
1.00002
1.1188
0.881988
1.12041
1
1.11875
1.11447
0.969467
1
1.11842
0.929765
1.11985
1.08645
1.11851
1.11846
0.999151
1.12042
1.1184
1.11862
1.11868
1.00021
1
0.891241
1
1.12012
0.95056
1.10937
1
1.11651
1
1
1
1
1
1.11816
0.88567
0.889263
1.11952
1.11855
1
1
1
1
1
1.11763
1.11119
1.11854
1.00856
1
1
1
1.00001
1.11818
1.11862
1
1.11884
1.11943
0.891699
1.0856
1
1.11869
1.11906
1.11786
0.999386
1.11884
1.11882
1
1.1066
1
1
1
1
1
1
1.11871
1.12032
1.11121
1.11857
0.887097
0.906208
1.11862
1.11852
1
0.886808
0.984285
1
1.06077
0.881041
1
0.999841
0.999507
0.889755
1
1.11847
1
1
1
1.11953
0.984257
1
1.11864
1.11853
1
1.11874
1
1
1.11861
1
0.888592
1
1.11838
1
1
0.88963
1
1.11851
1
0.887317
0.889146
1
1.11879
1
0.883439
0.965327
1
1.11859
1
1
1
1.11894
1
0.891539
1.01815
1.11868
1.119
1.11855
1.0144
1.11898
1.11854
1
1
1
1
1
1.11859
1
0.9998
1.11861
1
0.884829
1
1.11858
1.0604
1.01715
1.05948
1.01926
1.12016
0.90968
1.11859
1
0.890621
0.99919
1.11863
0.986722
1.11856
1.11868
1.11922
1
1.11879
1.1186
1.11856
1
1.00001
1
1
1.11881
1.0868
1
1
0.885068
0.999059
1
1.11849
1
1.11852
1.1187
1.11895
0.977847
1.11869
1.11857
1.00207
1.06075
1.11885
1.11875
1
1.11032
0.94777
1.11601
0.998498
1.11871
1
1.11856
1.11885
1
0.893531
0.985551
0.906606
1
1.02443
0.999107
1.11963
1
1
0.999099
1
1.06179
1.11333
1
1
1.11889
1
1
1.08746
1.11836
1.11409
1.11902
1.11854
1
1.11835
0.916275
1.1192
1
0.998652
0.891186
1
1
0.922971
1
1.04161
1
1.119
1
1.1164
1.0785
0.891422
1
1
1
1
1
1.11884
1.00321
1
1.11979
1
1.1187
1.1186
1
1
0.993664
0.999957
0.888169
0.884871
0.916891
1.02584
1
0.999535
0.891647
1.00001
1
1.1184
0.980283
1.11154
1.10428
1
1
1
1
1
1.11868
1.11861
1
1.11907
1
1.11918
1.08239
0.998736
1
1
1
1.07046
1
0.98785
1
1.11833
1
1
1.11851
1
1
1
1
1
1.11865
0.886857
0.998937
1.10737
1.11848
1
1.1186
1
1
1
1
0.896595
1
1.11847
1.11859
1.11863
1.12066
0.987496
1
1.10196
1.03188
1.1196
1.11856
1.02612
1.11976
1
1
1