/*--------------------------------*- C++ -*----------------------------------*\
  =========                 |
  \\      /  F ield         | OpenFOAM: The Open Source CFD Toolbox
   \\    /   O peration     | Website:  https://openfoam.org
    \\  /    A nd           | Version:  12
     \\/     M anipulation  |
\*---------------------------------------------------------------------------*/
FoamFile
{
    format      ascii;
    class       surfaceScalarField;
    location    "9";
    object      phi;
}
// * * * * * * * * * * * * * * * * * * * * * * * * * * * * * * * * * * * * * //

dimensions      [1 0 -1 0 0 0 0];

internalField   nonuniform List<scalar> 
33852
(
0.000251329
2.24281e-05
-0.000273757
-0.000246121
1.32441e-05
0.000232877
-0.000176965
-7.16449e-05
0.000249182
0.000304053
-0.000163969
-0.000140085
0.000293783
-4.29137e-05
-0.000249682
2.72441e-05
-0.000260681
0.000233437
0.000315448
1.46853e-05
-0.000329768
0.000304277
-9.59564e-05
-0.000208321
0.000286413
-3.50841e-05
0.000181638
2.38607e-06
-0.000191558
0.000289515
-0.000366723
7.71218e-05
0.000361684
-4.57491e-05
-4.39602e-05
0.000263285
-0.000219325
-4.3939e-05
0.000318462
-0.000274465
6.10521e-05
-0.000235335
0.000252057
1.2236e-05
-0.000264293
0.000264853
-1.2796e-05
-0.000278433
3.23121e-05
0.000340626
-5.12525e-05
0.000158593
0.000112308
-0.000270901
-2.43557e-05
0.00030331
-0.000279171
0.000271377
-0.000276165
4.78802e-06
-1.75854e-05
0.000273822
-0.000256552
-0.000222509
1.45373e-05
0.000207865
-0.000153284
-0.000183524
0.000337031
-0.000148381
-6.88851e-05
0.000222477
3.72401e-05
0.000267037
-6.09001e-05
-0.000261797
0.000323032
-0.000209787
1.4816e-06
0.000206244
-0.000204808
-1.93325e-05
0.000142045
0.000137388
-0.000279433
0.000342579
1.93464e-05
0.000142618
0.000128347
-0.000270965
-0.000101136
0.000259729
-0.000250489
-3.78001e-06
0.000254269
0.000330781
-5.96612e-05
-0.000271119
-0.000356673
0.000203211
-0.00022683
0.000208781
0.000231645
3.32081e-05
-5.65602e-06
0.000237301
-8.28749e-06
0.000189753
-0.000232625
0.000259869
0.000315618
-5.70268e-05
-0.000259108
-0.000309093
5.51042e-05
0.000253989
0.000239035
-0.000299734
0.000273589
-0.000306321
3.27321e-05
-0.000180237
-5.49362e-05
0.000235173
0.000272133
-0.000272133
0.000148429
-0.000297473
0.000149045
-0.000209795
0.000218635
-7.34964e-06
-0.000268241
0.000237301
3.09401e-05
-0.000200087
0.00024519
-4.72326e-05
-9.16164e-05
-0.000217477
-0.000114658
-0.00025214
-0.000280169
0.000266113
1.40561e-05
0.000330434
1.20272e-05
-0.000250433
7.01963e-05
0.000117908
0.000145909
-0.000263817
1.34681e-05
-0.000267457
0.000253989
-0.000134569
0.000282997
-0.000154788
-5.24887e-05
0.000205781
-0.000274681
0.000245113
2.95681e-05
0.000237553
-0.000268437
3.08841e-05
-0.000187503
-2.33929e-05
0.000151665
0.000115565
-0.00026723
-0.000192361
-2.88739e-05
0.000218323
0.000263985
2.24281e-05
0.000275941
-2.35201e-06
0.000265329
-0.000250741
-1.45881e-05
0.000217052
-6.31613e-05
-0.000155316
-1.82001e-06
0.000239373
0.000366784
-0.000312331
-5.38798e-05
-2.79035e-05
0.000303717
-0.000275468
-0.000101584
0.000219493
0.000343091
2.41213e-05
-0.000373095
0.0003551
1.84271e-05
-0.000216149
2.27345e-05
0.000310325
-0.000320937
1.23387e-05
-0.000208438
0.000272456
-6.40104e-05
-4.45202e-06
1.70824e-05
-0.000319511
0.000302062
0.000235307
-0.00019979
-3.52029e-05
0.000267222
-0.000338838
6.96388e-05
0.000330034
-6.30488e-05
-0.000268941
0.000236573
3.23681e-05
-0.000129388
-0.000132609
0.000261997
-1.86761e-05
-0.000249565
-1.022e-05
-0.000258721
2.32029e-05
0.000210504
-0.00023264
3.03807e-05
-0.00021052
0.000176676
-2.51543e-05
0.000327253
-0.000305264
-0.000279329
0.000273701
5.62802e-06
0.000156129
-0.000296857
0.000140729
-6.00368e-05
-0.000156482
0.000208869
0.000143277
0.0001218
-0.000265077
-0.000249987
0.000225512
-0.000217882
0.000150318
-0.000168813
0.000327181
-0.000158369
0.000185389
7.16523e-05
-0.000257041
0.000255193
2.07481e-05
-0.000192277
0.000148317
4.99897e-05
0.000265622
0.000306792
-0.000290202
9.49462e-05
-0.000236976
0.000135241
0.000117096
-0.000281065
-7.76727e-07
0.000244158
-0.00024371
0.000166489
0.000122836
-0.000289325
0.000144786
9.02478e-05
-3.92002e-06
0.000259113
0.000305459
5.42951e-06
-0.000323851
0.000315191
8.95975e-06
-3.99002e-05
0.000236293
-0.000196393
4.08802e-06
-0.000284257
-2.4494e-05
0.000171342
-0.000146364
-0.00016589
0.000140747
0.000191627
-0.000166635
-0.000269921
0.000264965
4.95602e-06
2.64041e-05
0.000174721
-0.000201125
2.87841e-05
-0.000257265
0.000228481
0.000276137
-0.000262669
0.000115108
0.000212073
0.000216072
-0.000190186
-0.000175813
0.000202217
1.36438e-05
0.000283123
-0.000296752
0.000271607
2.16292e-05
0.000273669
-0.000285608
1.26885e-05
3.86402e-06
0.000267513
-1.84294e-05
0.000292141
0.000330494
1.00662e-05
0.000213718
-0.000257681
0.000316799
-0.000316635
-6.63603e-06
-0.000272693
2.72084e-05
0.000192333
0.000187993
3.98722e-05
-0.000227865
-5.70743e-05
0.000231394
-0.000173789
0.000153609
-0.000270285
0.000116676
0.000279441
-0.000329701
5.02602e-05
-6.38122e-05
0.000249201
-0.000166909
0.000315897
-0.000148989
-0.000313828
-1.00068e-05
-0.000214929
0.000175029
2.78601e-05
-0.000278349
0.000276221
-1.88441e-05
-0.000248613
1.72609e-05
-0.000303324
0.000286108
0.000344989
-0.000158593
-0.000186397
-1.68038e-05
-0.000241026
0.000258122
-0.000266617
-3.30401e-06
0.000224001
2.45841e-05
-0.000248585
0.000284509
-0.000128381
0.000140197
0.000138853
-0.000279049
-0.000197812
-1.09396e-05
0.000258169
-0.000115551
0.000225782
-0.000242555
-6.38122e-05
0.000251805
-0.000208437
0.000249481
-5.60002e-07
-0.000248921
0.000255109
-0.000237441
-0.000327117
0.00029891
-3.08841e-05
0.000203169
-0.000172285
0.000291175
1.18021e-06
-0.000292321
7.57332e-05
0.000134225
-0.000219587
4.79613e-05
-0.000202539
-0.000288564
-4.61897e-06
0.00029421
-1.62616e-06
-0.000286394
0.000146973
-0.000273925
0.000126952
-0.000262807
0.000220635
-0.00029291
0.000265483
0.000279441
-0.000312525
-1.24513e-05
0.00032379
0.000110797
0.000161708
-2.1373e-05
0.000352229
0.000140141
0.000139833
-0.000279973
0.000245029
-0.000250349
5.32002e-06
-0.000210953
0.000180069
0.000279133
-5.43202e-06
0.000351225
-3.27486e-05
-0.000300686
0.000305133
-2.16863e-06
0.000270985
-0.000270985
-0.000364643
0.000225853
0.000138786
-0.000207281
1.99245e-05
1.69183e-05
0.000275157
-0.000278461
3.30401e-06
-5.20938e-06
0.000170996
-0.000166957
-0.000197345
0.000254801
-5.74562e-05
-0.000205997
4.49995e-06
-0.000243784
0.00016526
8.50097e-05
-0.000180265
0.0002614
-8.11332e-05
0.000256285
-0.000287113
3.08281e-05
-0.000249229
5.18842e-05
-2.35159e-05
0.000275657
-0.000252287
-0.000253547
1.35801e-06
0.000252189
0.000231281
-7.28003e-06
-0.000294023
7.561e-06
0.000286766
-0.000266085
0.000266085
-0.000285711
-5.55039e-05
-0.000170586
-0.000194064
-0.000171236
0.000215929
-4.44326e-05
-1.232e-05
-0.000239177
0.000251497
3.10801e-06
0.000210113
-0.000213221
-0.000185957
-2.24714e-05
0.00020882
7.60182e-06
0.000294583
-0.000302158
-0.000236153
-1.34401e-05
0.000249593
1.50361e-05
-0.000251189
-0.000241025
0.000256061
-0.000301507
0.000309103
0.000256117
7.16803e-06
-0.000170519
-3.10185e-05
0.000198715
-0.000145237
-0.000134765
-0.000244329
0.000240549
0.000298564
-3.90544e-07
-0.000298237
-0.000298815
5.52912e-07
0.000298275
1.92911e-05
0.000181217
0.000163773
7.70045e-05
-0.000257269
-0.000159242
0.000310908
0.000250721
-0.000108677
-0.000235145
-1.83681e-05
0.000253513
-0.000204546
-0.000126637
0.000331239
-6.10402e-06
-0.000229125
0.000235229
-2.23803e-05
-0.000184553
-0.000286397
-8.5612e-05
6.31108e-06
-0.00030028
-0.00021264
0.000327848
-0.000115608
0.000281597
0.000288205
-5.16322e-05
0.000271993
-1.57081e-05
-0.000188212
-1.43228e-05
0.000203558
0.00029758
4.63753e-07
-0.000297897
-0.000269011
-3.26885e-05
-0.000218821
0.000247605
-2.52498e-05
0.000310554
-0.000285311
0.000179898
7.5606e-06
-0.000188623
-3.35717e-05
0.000212513
-0.00030125
0.000275986
0.000292672
6.01477e-06
-0.000298237
0.000157445
0.00011886
-0.000276305
0.000290221
4.20093e-06
-0.000294668
-0.000233546
0.000118088
0.000125333
-0.000281741
0.000295427
0.000302513
-0.000156857
-0.000145657
0.000207005
-0.000203897
-0.000232009
-0.000121156
-0.000155009
-4.13261e-06
-0.000294082
0.000298214
-1.0136e-05
0.000276249
0.000289047
-1.99577e-05
-0.000269593
-0.000262927
2.92417e-05
0.000233818
0.000271433
-0.000267569
0.000249621
2.95121e-05
0.000314725
-9.71847e-06
-0.000305033
5.02913e-05
0.000156264
-0.000211142
-0.000101808
0.000201974
-9.79981e-05
0.000252617
-2.91201e-05
-0.000223497
7.67403e-07
0.000291983
-0.000168359
-3.01931e-05
0.000197132
-2.01922e-06
0.000291133
-9.33244e-05
0.000246933
-0.000255417
-5.26402e-06
0.000121184
0.000181329
1.34121e-05
0.000241557
-0.000254969
0.000236097
1.34961e-05
-0.000249593
0.000249509
-0.000242929
0.000256425
6.35874e-05
-0.000201344
0.000138352
-0.000213597
0.00011655
-0.000205809
0.000297279
1.41591e-06
-0.000298709
0.000253849
2.22881e-05
0.000268493
-0.000216441
-5.20522e-05
0.000225518
-0.000246849
2.13305e-05
0.000257909
1.40841e-05
5.87061e-05
0.000296304
0.000267186
-3.89594e-05
-0.000228226
0.000174816
1.274e-05
0.000240297
-0.000253037
0.000192951
-0.000113471
-7.9317e-05
-0.000206658
2.12543e-05
-1.27483e-06
-0.000297893
0.00029917
0.000223453
-0.000171175
-5.38358e-05
0.00034443
-4.14248e-05
0.000275969
-0.000135829
2.31561e-05
0.000238337
-0.000261493
-0.000231141
0.000254297
-2.66914e-05
-0.000229702
0.000256404
0.000156211
-0.000162508
-7.15031e-05
-0.000161127
-0.000261723
4.14346e-05
0.000220288
-3.17521e-05
-0.00022997
6.97161e-06
0.000261717
-3.25193e-05
-0.000229198
1.6658e-05
0.000124556
-0.000189821
0.000308785
-0.000171397
0.000262319
-3.57923e-05
-0.000226526
-0.000319619
0.000168697
-9.83819e-05
-0.000228453
-6.90203e-05
-1.09429e-06
-0.000298789
0.000298962
-2.79056e-05
0.000186718
-0.000159143
0.000307886
6.83328e-06
0.000250097
-0.000248249
-1.84801e-06
-0.000175486
6.14683e-05
0.000260254
-3.07162e-05
-0.000229523
0.000197345
-0.000250769
5.34242e-05
0.000254206
-0.000231206
-2.29992e-05
-0.000252337
0.000240017
0.000143911
0.000100974
-0.000101864
-0.000170269
0.000132496
-0.000261885
-0.000290249
0.0002422
4.80482e-05
0.000216808
3.12476e-05
-0.000248056
-0.000237173
-9.56382e-06
0.00024704
0.000326631
-2.27982e-05
0.000263996
-3.42721e-05
-0.000229724
0.000148738
-0.000241805
9.64463e-05
3.63259e-05
-0.000265637
0.000229311
-0.000253905
0.000121296
0.000249817
-5.24722e-05
0.000294673
-0.000154253
-0.000140421
0.000122248
-0.000289157
1.53441e-05
0.000237665
-0.000253009
-0.000262031
3.54705e-05
0.00022656
-2.78421e-06
-3.77917e-05
-0.000224239
0.000248469
-0.000272027
-0.000264649
3.44737e-05
0.000230175
0.000193257
0.000101416
-0.000149941
0.000290137
-0.000169134
-3.84922e-05
0.000206768
-1.81721e-05
0.000263201
-0.000293522
0.000310864
0.000115995
0.000102655
0.000261325
-0.000261325
0.00031575
-2.33238e-05
-0.000290828
5.32002e-07
0.000248949
0.000254857
1.65761e-05
0.000309752
-0.00027625
-3.31458e-05
-2.26336e-05
0.000266577
-0.000243943
3.00077e-05
-0.000260519
0.000230511
-0.000252139
0.000229506
0.000324977
3.11501e-05
-0.000260598
0.000229447
0.000276809
-3.16961e-05
-7.42952e-06
-0.000293254
0.000299565
0.000270955
3.89794e-05
0.000230245
-0.000266617
3.63721e-05
0.000199878
-0.000201872
-0.000258301
0.000238533
1.97681e-05
0.000169762
-0.000257245
8.74835e-05
-0.000214723
0.000163241
-0.000249145
8.59043e-05
-0.000266169
0.000224813
4.13562e-05
0.000253073
-2.78797e-05
-0.000225194
0.00017657
4.41708e-05
-0.000234837
-2.29601e-05
0.000257797
-0.000236377
-2.28761e-05
0.000259253
-1.94265e-05
0.000255969
-0.000236542
-0.000259345
0.000239919
-3.69217e-05
0.000186376
-0.000235929
-2.24001e-05
0.000258329
-0.00025484
0.000229192
2.56481e-05
2.94001e-06
0.000211289
-0.000214229
-0.000267031
3.79849e-05
0.000229046
0.000270677
4.48002e-06
4.13344e-05
0.000153287
-0.000194046
-3.31199e-05
0.000249928
-2.08542e-05
0.000218597
9.73004e-05
0.000248198
-0.000216953
0.000277365
-0.000278283
0.000277592
-0.000281116
-1.84997e-05
0.000258601
-0.000240101
-0.000261644
0.000243145
3.06687e-05
-0.000201662
-2.96216e-05
-0.000209337
0.000235888
0.000314402
-0.000287168
-2.72668e-05
0.000261297
-3.11081e-05
-0.000230189
3.28739e-05
-0.000262362
0.000229488
-0.000229853
0.000259645
-2.97921e-05
0.000325585
-1.76466e-05
0.000143376
-0.000205626
0.000256929
-0.000109956
-0.000285778
0.000287082
0.000241977
-6.41202e-06
-0.000235565
0.000228537
-0.000181978
-3.78303e-05
0.000218647
2.86578e-05
-0.000211037
-0.000239989
0.000260317
-2.03281e-05
-0.000104066
0.000191027
-8.58638e-05
3.11182e-05
-0.000202015
0.000240169
-0.000263424
2.32552e-05
-0.000115584
0.000258861
-0.000243993
0.000265721
-2.17281e-05
-0.000238953
0.000232541
0.000258626
-0.000245105
-1.35213e-05
0.000264349
-2.46681e-05
-0.000246317
-0.00027201
-1.05159e-05
0.000298937
-5.35766e-05
-9.60067e-06
0.000291015
-0.000281456
-0.000157682
0.0001992
0.000228852
1.79684e-05
-0.000245782
0.000328486
-0.000328633
0.000260955
-0.000245018
-1.59377e-05
-0.000302214
-7.08192e-07
0.00030485
9.58631e-06
3.88738e-05
0.000179613
-0.000218716
0.000218095
-3.61454e-05
-0.000182435
0.000278054
-0.000255789
-2.22648e-05
-0.000208591
3.02196e-05
3.15421e-05
-0.000261891
0.000230348
0.000285044
-0.000292284
2.44721e-05
-0.000259617
-0.000257965
1.87881e-05
0.000266057
-1.64361e-05
0.000151173
-0.000267625
0.000116452
0.000299035
-4.44849e-06
0.000238617
-7.53763e-05
2.12521e-05
0.000177045
-0.000198297
-0.000183877
0.000205129
-0.000236275
0.000257219
-2.09441e-05
0.000261462
-3.31689e-05
-0.000228293
-0.000197009
-5.21362e-05
0.000251581
-1.48401e-06
8.9217e-06
-0.000263447
0.000255067
-0.000343503
0.000235587
0.000106171
0.000266371
-0.000236811
-2.95597e-05
0.000306817
-0.000314706
7.87016e-06
-2.57041e-05
-0.000229097
0.000254801
0.000261493
-7.64403e-06
1.0356e-05
-0.000209624
0.000262411
-3.19033e-05
-0.000230508
-6.90483e-05
-0.000260653
-0.000194685
0.000248025
-5.33402e-05
-0.000266533
0.000249985
1.65481e-05
-0.000318196
1.6701e-05
-1.71653e-05
0.00029617
-0.000279562
-0.000276221
1.65481e-05
0.000249537
-0.000167738
6.5244e-05
0.000273469
1.47967e-05
-0.000288254
-0.000316019
0.000307787
8.24909e-06
3.46641e-05
-0.000263649
0.000228985
-1.74769e-05
0.000281191
-0.000315265
1.64435e-05
-0.000176541
-7.42283e-05
-0.000234019
0.000199326
-2.16721e-05
-0.000216469
0.000238141
-0.000314895
0.00029608
1.8902e-05
-0.000133108
0.000274493
-0.000141758
-8.44482e-06
3.31521e-05
-0.000263453
0.000230301
-0.000208614
2.43411e-05
0.000177449
0.000221523
0.000280576
-0.000281077
3.24317e-07
-0.000236993
-2.20921e-05
0.000224813
-0.000202721
0.000139273
0.000143753
-0.000278517
0.000201
-5.69705e-05
0.000308192
-1.06043e-05
0.000209191
-0.00026893
2.92853e-05
0.00022306
-0.000252345
-0.000321946
0.000138772
0.00029648
2.92363e-05
1.93287e-05
-0.000224355
-2.77845e-05
-0.00013578
-0.000133118
-0.000326159
0.000113505
0.000242873
2.56201e-05
0.000218765
-0.000224869
1.08332e-05
-0.000287998
0.000277222
-0.000242426
0.000269718
-2.72038e-05
0.000281391
-0.000281833
0.00028786
-7.65828e-05
-8.82216e-06
0.000290194
-1.87881e-05
0.000247101
-0.000228313
0.000281496
-0.000290332
-5.6171e-06
-0.000284048
0.000289653
0.000282062
-0.000269489
0.000284301
0.000226314
2.67597e-05
-0.000312484
0.000318173
-6.51874e-06
0.000251288
-2.12364e-05
0.000227869
2.44941e-05
-0.000268913
0.000246057
-2.05381e-05
-0.000259401
3.02849e-05
0.000229116
0.000178305
7.64963e-05
9.49114e-06
0.000280578
-0.00029017
-0.000238141
-2.88401e-05
0.000266981
2.51441e-05
-0.000263285
0.000284117
-0.000162317
-0.000232177
0.000261129
-2.89521e-05
-0.000234697
0.000260709
-2.60121e-05
1.36821e-06
0.000279075
2.45001e-05
-0.000259197
2.38001e-05
-0.000255977
0.000274243
-0.000242897
-3.13799e-05
0.000317807
-9.98449e-06
-0.000306078
-3.37047e-06
-0.000255753
1.1816e-05
0.000243937
-1.7393e-05
-0.000261185
0.000228065
-0.000245337
0.000270145
-2.48081e-05
-0.000263229
1.49801e-05
-2.35906e-05
0.000286002
-0.000262666
2.13641e-05
-0.000266701
-0.000241626
-2.13065e-05
3.26823e-05
-9.0432e-05
0.000260194
0.000280882
-0.000286484
5.05122e-05
0.000237693
0.000282084
-0.000281584
-0.000243181
-2.39401e-05
0.000267121
-0.000260894
7.34723e-06
-0.000294938
1.93954e-05
0.000275897
-0.000268717
2.55361e-05
-8.30109e-06
0.000290404
-0.000268326
0.000243549
2.47772e-05
-0.000232513
0.000210841
0.0002801
-0.000288649
-6.16002e-07
0.000260289
-0.000259673
-0.000301979
-1.61056e-05
-0.000264573
2.35481e-05
-0.00024417
-2.41556e-05
-3.43281e-05
-0.000298023
0.000293995
0.000286674
-0.000158327
0.000295581
-0.000289468
2.30152e-05
4.93903e-06
0.000262131
-0.000254886
-7.17727e-06
0.000307432
-2.02616e-05
-0.000287147
5.90473e-05
-0.000246765
-2.19521e-05
-0.000356766
0.000242192
0.000285197
-0.00027954
2.33801e-05
-0.000190144
-1.56656e-05
-0.000306396
2.57259e-05
0.000280782
-0.000197286
0.000310623
-0.000113929
0.000259841
-0.000238533
-2.13081e-05
-0.000291592
2.94001e-05
0.000222097
-0.000251497
-0.000170579
0.000144067
-0.000172271
0.000251441
-0.000238029
-1.34121e-05
-0.000263873
3.40201e-05
-2.23161e-05
-0.000269837
0.000251469
0.000230427
3.12901e-05
-4.63203e-05
0.000199374
0.000232619
-0.000260499
-1.74424e-05
-3.23042e-06
0.000245426
-0.000243299
-0.000293221
-0.000237049
0.000265189
-2.81401e-05
0.000230096
3.22225e-05
-0.000268521
2.55921e-05
-0.000239905
-2.86161e-05
0.000228954
-0.000260706
-0.000282633
4.73202e-05
-0.000242005
0.000294327
-0.000284115
-0.000288452
1.31064e-05
0.000274536
-4.54094e-06
0.00021809
0.000228551
-0.00026107
0.000296885
-0.0001309
-0.000165985
0.000241444
-0.000261657
0.000270452
-0.000226213
-1.76681e-05
-0.000165341
0.000307275
-0.000143275
2.49649e-05
0.000222662
-0.000247627
-0.000194379
0.000194466
-0.000283709
0.000282417
6.96445e-06
-0.000290705
-0.000302485
0.000146693
0.000155793
0.000259995
-0.000239359
-2.06361e-05
-0.000215741
0.000193649
0.000261943
4.54544e-07
0.000257293
0.000232526
2.16798e-05
-0.000294512
-6.26436e-05
1.03426e-05
0.000233134
-0.000252775
1.7655e-05
-0.000230917
-2.37161e-05
0.000254633
-0.000242295
0.000263191
-2.08965e-05
8.36448e-05
0.000135154
2.01856e-05
-0.000305869
0.000285321
0.000256565
-1.80041e-05
-0.000238561
0.000243881
-0.000254017
1.0136e-05
-0.000226745
0.000207957
0.000223131
-0.000258923
-0.000244693
4.76842e-05
1.59671e-05
-0.000137751
-0.000218881
1.57921e-05
0.000245701
0.000280652
0.00029325
0.00030569
1.76366e-06
0.000249817
-0.000220417
2.51749e-05
0.000225009
-0.000250184
-0.000243178
0.000268865
-2.56873e-05
2.28201e-05
-0.000262725
-0.000112327
0.000295947
9.2355e-06
2.08181e-05
0.000261675
-0.000235103
-2.65721e-05
1.31036e-05
-0.000303572
0.000290413
0.000321827
-3.09733e-05
-0.000290835
0.000249733
1.63241e-05
0.000306104
-0.000292901
-0.000231839
-0.000113104
9.63204e-06
0.000250657
-4.9129e-05
-0.00020239
0.000251519
2.20333e-05
0.000246832
-0.000241686
-2.29629e-05
0.000260737
-2.24001e-05
0.000287836
-0.000268023
2.63369e-05
2.68241e-05
-0.000257965
0.000210617
-0.000207677
2.58161e-05
-0.000262865
0.000279497
0.000121744
-0.000256173
0.000134429
1.88843e-05
3.85554e-05
0.000158557
-0.000204908
-0.000239485
-2.85377e-05
4.00206e-05
0.000166566
-0.000204406
-0.000246691
0.000271066
-2.43747e-05
0.000209866
-0.000248826
1.98857e-05
1.73158e-05
-0.000174594
-3.06446e-05
0.000226704
-0.000257414
-2.88401e-05
0.000244245
-0.000215405
-2.16161e-05
0.000242985
-0.000221369
0.000201657
-0.000250786
-0.000273611
-0.000232905
-2.55081e-05
0.000258413
0.000241234
2.98318e-05
-0.000210414
-2.41717e-05
0.000233022
-2.18821e-05
-0.000224967
-0.000239345
6.28042e-05
0.000259004
-0.000229718
4.75106e-05
-0.000249901
-3.43393e-05
0.000257694
-0.000223354
0.000205675
-0.000240014
0.000261689
-1.1956e-05
-6.06763e-05
-0.000229572
-0.000224879
-1.73747e-05
0.000242726
0.000247109
5.3175e-05
0.000212448
-0.000265623
-0.000261103
0.000177353
-0.000231757
5.44042e-05
6.41138e-05
0.000136507
0.000259457
-0.000240915
-2.47224e-05
-0.000265385
0.000227165
3.82201e-05
-2.87813e-05
-0.000222158
0.00025094
-0.000284398
0.000264161
0.000234501
3.61761e-05
2.18821e-05
0.000234087
-0.000307217
0.000151089
0.000156129
0.000165602
-5.18278e-05
0.000254045
-0.000115192
2.56901e-05
0.000217446
-0.000243136
-0.000286212
0.000287193
9.19906e-06
0.000257377
-0.000245953
0.000208937
3.70161e-05
0.000254832
0.000247199
-1.93596e-05
-0.000246815
-2.02161e-05
-0.000263019
2.0724e-05
-0.000269215
2.24001e-05
2.79601e-05
0.000220024
-0.000247984
0.000242481
-0.000274597
1.32721e-05
0.000246474
-1.45463e-05
1.2735e-05
-0.000249456
-0.000328519
0.000124123
-0.000233135
-2.62109e-05
-0.000252113
0.000252113
0.000259782
-0.000144217
-1.85981e-05
-0.000278193
0.000296832
0.000278277
0.000258749
-0.000135913
0.000224113
2.39205e-05
0.00023468
7.77937e-05
-0.000339829
3.76657e-05
0.000258962
1.76363e-05
-0.000248843
-3.00917e-05
0.000207453
-3.01001e-05
0.000259701
2.95429e-05
0.000218353
-0.000247896
-3.05014e-05
-4.09782e-05
-0.000217818
0.000258797
-0.000233423
-2.14173e-05
3.70571e-05
-0.000196188
0.000158315
-3.30877e-05
0.000221671
-0.000255943
-0.000282065
-8.38634e-06
0.000290324
-0.000193637
0.000158132
0.000166349
8.16763e-05
1.26702e-05
-0.000294709
0.000235075
2.59446e-05
-0.000261019
-0.000196744
-1.29557e-06
0.000232743
-0.000264287
3.15449e-05
-8.42803e-06
-0.000217029
0.000225457
-0.000160653
0.000196711
-0.000249985
-3.46025e-05
0.000256274
0.000218076
-0.000252679
-0.000246289
0.000272245
-2.59561e-05
0.000253547
2.78321e-05
-0.000232062
-2.95821e-05
-0.000298359
0.000316507
-1.81965e-05
2.3412e-05
0.000212462
-0.000250254
-0.000267233
2.09441e-05
-2.12801e-05
-0.000245953
-3.61481e-05
0.00024861
-0.000290022
-1.36732e-05
0.00022082
-0.000256968
0.000248077
-0.000251016
1.54461e-06
2.80002e-06
0.000181413
-0.000184213
0.000255294
0.000234529
2.67681e-05
-2.62361e-05
0.000245001
-0.000218765
3.36001e-05
0.000216609
-0.000250209
0.000244861
2.73841e-05
0.000306545
-0.000143949
-0.000162597
1.59203e-05
0.000239208
-0.000256111
0.000271013
-0.000113568
0.000225569
-0.000256677
-0.00024135
0.000104688
-0.000265469
7.16803e-06
-0.000241635
-2.75801e-05
-0.000241361
-2.48081e-05
0.000310618
-2.75167e-05
-7.67483e-05
0.000243097
-1.1452e-05
-0.000215601
0.000224281
-8.68003e-06
0.000255193
-7.68883e-05
3.37173e-05
-0.000196971
0.000154819
-0.000265245
-1.40001e-07
-4.14962e-05
3.9415e-05
0.00015581
-0.000196176
0.000187201
-0.000163904
0.000257041
-7.05603e-06
0.000251151
-0.000218277
-1.82083e-05
-2.1128e-05
0.000277528
-9.38587e-05
-0.000183274
-1.42801e-05
-0.000191913
0.000206193
0.000258665
-1.53553e-05
-0.00024331
1.98101e-05
0.000238855
-0.000279507
-8.12091e-06
3.76082e-05
-0.000196464
0.000158997
1.36921e-05
0.000247997
-0.000163767
0.000201704
-1.95189e-05
0.000248711
3.30094e-05
0.000187701
-0.000222845
-4.17202e-06
-2.49389e-05
0.000265108
-0.000231955
-3.14693e-05
0.000297282
-0.000281722
-1.5342e-05
1.63717e-05
-0.000237659
0.000221288
-0.00010514
0.000226885
1.93281e-05
-0.00030528
0.000285971
2.52001e-05
-2.79441e-05
2.69165e-05
0.000309
-0.000289703
0.000238891
1.97345e-05
2.15601e-06
0.000231617
-0.000233773
-0.000310612
2.56161e-05
0.000284841
-0.000162177
-0.000144145
0.000209178
-0.000250156
-0.00017151
0.000241924
1.90317e-05
0.000257671
-4.13534e-05
0.000250531
0.000214498
-0.000255851
0.000318455
-0.000318817
-1.06564e-05
0.000287415
-0.000276682
-0.000302805
1.96622e-05
0.000283361
4.20842e-05
-0.000286413
-4.00388e-05
0.000252483
2.62921e-05
-2.21909e-05
0.000307264
-0.00028513
2.43321e-05
3.94411e-05
0.0001592
-0.000197585
0.000249294
-0.000219751
2.83277e-05
-0.000261633
4.36802e-06
-1.99791e-05
0.000306635
-0.000286622
-0.000250987
-0.000266673
3.07441e-05
0.000252141
-0.000236741
-1.54001e-05
1.2264e-05
0.000239877
-0.00027603
-1.3059e-05
0.000255697
-5.51159e-06
0.0003191
-1.201e-05
0.000298721
-0.000287087
-4.69836e-05
0.000247437
-0.000235621
0.000257601
-1.99361e-05
0.000136323
9.0911e-05
-0.00022516
0.000232565
3.03493e-05
0.000226759
-0.000258662
3.71393e-05
0.00027197
-0.000288912
1.68614e-05
0.000251273
-0.000239093
-1.31321e-05
0.000252225
-2.91201e-05
-0.000257265
2.56481e-05
0.000231617
-0.000228005
-2.92601e-05
0.000259765
-0.000233571
-2.61941e-05
0.000258721
-0.000267348
2.4232e-06
0.000286626
1.33604e-06
-0.000287792
0.000246999
-0.000231194
-1.85921e-05
0.000308791
-0.000300799
-7.99277e-06
0.000246416
-9.9584e-05
-0.000266897
2.56761e-05
0.000241221
-3.48881e-05
-0.000232009
-0.000266393
2.51161e-05
0.000241277
-1.23457e-05
-0.000266723
0.000279971
-3.45241e-05
-0.000231869
-0.0002617
1.89213e-05
-0.000266281
2.43881e-05
0.000241893
-0.000284128
-2.16807e-05
-0.000306291
2.76511e-05
0.000278693
-3.34041e-05
-0.000232877
-0.000174335
-0.000258133
2.94001e-05
0.000228733
0.000308877
-0.000309733
-0.000195805
0.000209049
-3.29281e-05
-0.000225205
0.000197524
-0.000279324
8.17531e-05
0.000283781
2.23759e-05
-0.000301953
1.76961e-05
0.000286123
-0.000281152
-4.89528e-06
-0.000257125
0.000231617
2.55081e-05
0.000172623
2.85049e-05
-0.000209451
-0.000266953
2.81681e-05
0.000238785
-0.000227361
-2.97641e-05
-3.67361e-05
-0.000230217
0.000276806
0.000297379
1.91122e-05
-0.000276071
-3.15689e-05
0.000307626
-0.000258679
-1.10604e-05
0.000297931
-0.000287582
1.49653e-05
-0.000301779
0.000286808
-0.000230609
-0.000307331
0.000287366
0.000263005
-2.55429e-05
-0.000280679
1.36081e-05
0.000155277
0.000231899
1.88893e-05
-0.000250412
-0.000196599
0.000158056
0.000236738
1.31517e-05
-0.00024989
-0.00025833
2.66093e-05
0.000231721
-1.09228e-05
0.000247661
5.74002e-06
0.000246877
-3.19817e-05
-0.000226348
0.000299408
-0.00028565
-1.38744e-05
0.000228024
-0.000226666
0.000289637
0.000237685
1.98521e-05
-0.000257537
-1.24236e-05
0.000250108
0.000246636
1.50389e-05
-0.000305421
1.53362e-05
0.00024448
2.18905e-05
3.31122e-05
-0.000202468
-0.000287458
-1.7733e-05
-0.000182869
0.000295177
-0.000147734
0.000182126
-3.25631e-05
3.08897e-05
-0.000201134
0.000168537
-0.000165494
0.000259149
-0.000239236
-1.99137e-05
0.000262094
-0.000273754
-0.000242162
0.000232309
-2.18986e-05
0.000301111
-0.00027927
0.000307886
-0.000292908
0.000242117
1.77241e-05
-0.000224975
0.00024443
-1.94545e-05
1.61001e-05
-0.000241075
-7.00003e-06
0.000260989
-0.000297011
4.86275e-06
0.000292148
-0.000174497
0.000160217
-1.74105e-05
-6.23208e-06
-0.000290784
-1.67584e-05
-0.000285062
4.28402e-06
-0.000300646
0.000135345
-0.000257454
2.36954e-05
0.000233674
0.000238197
1.32441e-05
-3.08096e-05
-0.000226629
-3.33076e-05
-0.00029482
2.0879e-05
-0.000224804
0.000205194
0.000254969
-0.000233465
-2.15041e-05
-0.000196592
0.000218386
-0.000186472
-7.69346e-06
0.000204591
0.000138756
0.000135607
3.84234e-06
0.000269977
0.000279922
-0.000305382
3.04423e-06
0.000242671
-1.98538e-05
0.000298824
-0.00027901
-0.000302254
0.000287443
1.47851e-05
-0.000258301
0.000230077
2.82241e-05
-2.64041e-05
-0.000231897
0.000304919
-0.00030177
0.000267243
-1.99947e-05
0.000304599
-0.000284605
0.000286297
-5.24817e-07
-0.000256873
0.000256873
-0.000268173
0.000295866
-0.000147344
-6.75693e-05
-6.97799e-06
0.000294875
-0.000287814
-0.000297251
0.000290236
0.000291985
-0.00027887
0.000291112
-0.000306358
1.4516e-05
3.49571e-05
-0.000237163
0.000212082
2.28021e-05
-1.45249e-05
-0.000247167
0.000231343
-1.4344e-05
0.000298147
-0.000284093
0.000263481
-1.96001e-05
0.000254224
-0.000235464
-1.87601e-05
-3.1005e-05
-0.000273705
0.000304709
1.43575e-05
-0.000297065
0.000282745
-1.45881e-05
0.000233465
-0.000218877
0.000199909
-0.000295209
0.000282952
-1.92356e-05
0.000304673
-0.000285502
0.00025102
-2.69265e-05
0.000297373
-0.000270436
-0.000295832
0.000268887
1.07156e-05
0.000244749
-0.000255465
0.000305114
-0.000311875
6.77884e-06
1.77949e-05
1.47669e-05
0.00028633
-0.000301244
6.23575e-06
0.000283393
2.30198e-06
-0.000318631
-0.000289792
0.000304725
-0.000242481
0.000243657
8.45603e-06
-0.0002264
0.000242772
-0.000293565
0.000274304
0.000284942
-0.000148719
-8.29473e-05
0.000294397
1.44973e-05
3.16648e-05
-0.000194533
0.000162541
-0.000274624
0.000257293
-0.000219535
0.00024982
0.000243411
1.92865e-05
-0.000262697
0.000236019
2.31309e-05
-0.000301395
0.000283008
0.000312307
-1.79836e-05
0.000237945
-0.000257069
1.91241e-05
-0.000222494
0.000247459
0.000294265
1.80409e-05
-0.000165583
-1.45818e-05
0.000298064
-0.000283427
-0.000142392
-0.000266415
0.000159993
0.000106423
-0.000309102
0.000295379
1.36718e-05
-0.000258699
0.000241826
1.68729e-05
-0.000147418
0.000144616
-0.00030654
0.000288659
1.78586e-05
-0.00021801
0.000178947
-9.69084e-06
0.000253101
2.04863e-05
1.7509e-05
-0.000304341
0.000286697
-0.000300907
-7.1511e-06
0.000307974
-0.000249229
0.000220109
-0.000201153
-8.52603e-05
-0.000272477
0.000251439
0.000303758
-0.000286308
-0.000191297
1.81296e-05
1.50314e-05
0.000284418
-0.000299487
-8.80603e-05
0.000239233
-0.000303236
1.94989e-05
0.00028369
-0.000206713
-2.78048e-06
-0.000298094
-0.000167551
2.05297e-05
0.00030256
-0.000287687
-1.44586e-05
-0.000174078
-0.000299166
-0.000174842
-2.27684e-05
0.000243528
0.000289557
1.71342e-05
0.000252869
5.76127e-05
-0.000286131
-0.000247213
-0.00027056
-2.34784e-05
-0.000274589
0.000300352
-0.000263095
0.000282596
-0.000169108
-4.15258e-05
0.000212483
0.000197569
1.56521e-05
-0.000213221
-1.2497e-05
-0.000285795
0.000298299
1.83597e-05
1.87017e-05
-0.000305349
0.000286777
0.000253345
-1.71361e-05
-0.000236209
1.89457e-05
-0.000304844
0.00028589
2.03561e-05
0.000232989
0.000216385
-2.46121e-05
-0.000191773
1.5736e-05
0.000282735
-0.000298482
-0.000251222
0.000118114
-0.000303618
1.85895e-05
0.000285018
0.00020824
-5.02205e-05
-0.000298802
1.22603e-05
0.000285133
0.000255837
-2.19801e-05
-0.000233857
-0.000303566
0.000106183
0.000234529
1.70521e-05
-0.000251581
0.000280442
1.68565e-05
0.000304172
-0.00028525
1.78347e-05
-0.000299312
0.000233512
1.84916e-05
-0.000252004
-1.89324e-05
-1.42152e-05
0.000298238
-0.000284069
-0.000280453
0.000300137
-0.000278112
0.00029171
-0.000303675
1.13189e-05
0.000249741
-1.62291e-05
1.17409e-05
0.000250041
-1.55121e-05
0.000298621
-0.000282882
3.95922e-05
-0.000238146