/*--------------------------------*- C++ -*----------------------------------*\
  =========                 |
  \\      /  F ield         | OpenFOAM: The Open Source CFD Toolbox
   \\    /   O peration     | Website:  https://openfoam.org
    \\  /    A nd           | Version:  12
     \\/     M anipulation  |
\*---------------------------------------------------------------------------*/
FoamFile
{
    format      ascii;
    class       surfaceScalarField;
    location    "9";
    object      phi;
}
// * * * * * * * * * * * * * * * * * * * * * * * * * * * * * * * * * * * * * //

dimensions      [1 0 -1 0 0 0 0];

internalField   nonuniform List<scalar> 
67988
(
-0.00033864
0.00034037
-1.71683e-06
-0.000297596
0.000297645
0.000204592
-0.000430717
0.000226439
0.000130295
-0.000289945
0.000159936
-0.000144823
-7.86028e-05
0.000221967
-8.84422e-05
0.000256496
-0.000171767
-7.30715e-05
0.000311933
-0.000237923
-7.94923e-05
-0.000191605
0.000271097
0.000188335
-0.000186017
-2.58838e-06
0.00021122
6.69436e-05
-0.000278153
-0.000312927
6.14723e-05
0.000251323
-0.000220648
9.36112e-05
0.000126341
-0.000280629
0.000100306
0.000179273
0.00017271
-0.000289168
0.000116458
0.000170536
-0.000132566
-3.77523e-05
-0.000157471
0.000111643
4.6027e-05
0.000236775
-0.000321116
8.43419e-05
-9.63764e-05
-0.000174021
0.000270397
-0.000174635
0.000254918
-8.00922e-05
-0.000309937
0.000200211
0.000109438
0.000216889
-0.000280001
6.31122e-05
-0.000425209
0.000395281
2.98811e-05
-0.000300915
0.000302305
-1.42777e-06
-0.000216623
0.000291733
-7.51103e-05
0.000102816
0.000177185
-0.000280001
-0.000221906
0.00013025
0.000167077
0.000105532
-0.000272609
0.00030659
-0.00030659
-1.12509e-05
0.000118834
-0.00010804
-0.00033059
0.000198517
0.000132295
3.11327e-05
-0.000218366
0.000187065
0.000314606
-0.000195791
-0.000118816
-0.000343442
0.000253561
8.98806e-05
-0.000191463
-6.58438e-05
0.000257441
0.000241236
-0.000281471
4.07406e-05
0.000259945
-0.000348761
8.65951e-05
-0.000207704
6.19514e-05
7.58803e-06
-0.000245197
0.000237609
0.000219344
4.853e-05
-0.000267619
0.000133925
-0.000320153
0.000186229
-0.000310289
0.000121492
0.000188796
0.000130308
-0.000136321
6.05011e-06
-0.000215741
0.000223329
-0.000156017
-6.53345e-05
-0.000306568
0.000134799
0.000171769
-0.000381901
0.000274702
0.000107192
2.34223e-05
0.000107416
-0.000396461
0.000277649
0.000118851
-7.24447e-05
0.000314812
-0.00027798
6.13566e-05
0.000125705
0.000165878
-0.000292053
-0.000365845
0.00025692
0.000108893
0.000247289
-3.03997e-05
-0.000255742
0.000107192
0.000148922
-0.000325423
0.00032412
1.24175e-06
-0.000445454
0.000240737
0.000204781
-0.000377339
2.36556e-05
0.000353716
0.00024685
-0.000182408
-6.47723e-05
-0.000324145
9.68271e-05
0.000226893
0.000179444
-0.000188637
7.98973e-06
0.000130089
-0.000304361
0.000174273
-0.000211183
-0.000113792
-0.000304165
0.000214229
8.99364e-05
-9.88964e-05
0.000265973
-0.00029136
-1.0364e-05
0.000301739
0.000444051
-0.000285931
-0.000160231
0.000250293
-0.000246177
-4.11602e-06
4.2127e-05
-0.000216592
0.000229485
-0.000345428
0.000118054
0.000258727
5.88643e-05
-0.000317621
8.70488e-05
-0.000218339
0.000132681
0.000168964
-0.00017057
1.64099e-06
-0.00021564
0.000341193
0.000285609
-0.000284751
-6.25643e-07
-6.22452e-05
-0.000315094
6.4102e-05
0.000242488
-0.000318725
0.000228061
9.06644e-05
0.0002239
-0.000290305
6.56644e-05
-4.52235e-05
0.000224445
0.000247885
-0.000250293
2.40801e-06
-0.000297559
0.000297527
0.000127663
-0.000287472
0.000156913
0.000132498
3.54028e-05
-0.000344522
0.000238049
0.000106595
-0.000319464
0.000215488
0.000103542
0.000340827
-0.000161957
-0.000178869
0.00016035
3.8069e-05
-0.000198353
0.000231712
2.92971e-05
-0.000259896
-0.000292558
0.000220536
0.000157953
3.03615e-05
-0.000174327
-0.000138576
8.93203e-05
-0.000276053
0.000186733
0.000238627
4.25486e-05
-0.000281235
-0.000262398
-0.000134051
-0.000260877
1.40281e-05
0.000246849
-4.43802e-05
-0.000201853
0.000246233
-5.21051e-05
0.000310756
1.92047e-05
-0.000275572
0.000256364
-0.00025931
0.000158497
0.000100724
-0.000171304
-0.000159305
0.000130627
7.92156e-05
-0.000209928
-0.000218163
-3.52502e-05
0.000253099
0.000103728
-2.39059e-05
-7.80178e-05
0.000192697
8.09483e-05
-0.000273645
-8.01643e-05
0.000272861
0.000243485
-7.07753e-05
0.000252459
-0.000255074
2.61521e-06
-8.56503e-05
-0.000339957
0.000169359
0.000145248
-0.000377399
5.34996e-05
0.000323935
-0.000269277
0.000264601
4.67602e-06
0.000145044
-0.000214414
6.93673e-05
0.000258005
-1.02434e-06
-0.000257781
0.000276005
-3.9231e-05
-6.6938e-05
-0.000310421
0.000329741
-0.000148986
-0.000180756
-0.000186649
-8.49803e-05
0.000271629
6.6351e-05
3.92308e-05
-7.53103e-05
-0.000205864
0.000282467
7.84329e-05
-0.000217779
0.000139851
-0.000202656
0.000304568
-0.000101912
-0.000272171
-1.05523e-05
0.0002828
-0.000291937
-0.00015337
-0.000304222
0.000438859
-0.000134862
-0.000225065
-4.91962e-05
0.000274261
-0.000233017
-3.91956e-05
-0.000350525
0.00025004
9.97062e-05
0.000284126
-0.00030429
2.02367e-05
0.000207117
-0.000312793
0.000105677
0.000158677
0.000117964
-0.000276641
-0.000222289
8.51193e-05
0.00013841
0.00031594
-0.000329749
1.37627e-05
0.000336759
-0.000146379
-0.000189851
0.000284511
-3.20523e-05
-0.00012669
0.000128077
-1.7303e-06
0.000199893
7.77563e-05
-0.000277649
-8.44763e-05
0.000284369
0.000235929
5.46282e-05
-0.000290557
-0.000197739
-0.000122143
-0.000301367
8.32796e-05
8.67163e-05
0.000187041
-0.000273757
0.0002482
-0.000104713
-0.000143581
-0.000148646
0.000307631
-0.000159588
0.000279161
9.74404e-06
-0.000288905
0.000151514
-7.06688e-05
-8.19082e-05
-8.83683e-05
-0.000181861
0.000270229
0.000184941
-0.000273309
-8.73603e-05
0.000272301
-0.000167151
-9.77456e-05
0.000264897
-8.05787e-05
-0.000225989
0.000238163
2.07065e-05
-0.000259396
0.000294085
-6.70883e-05
-0.000226997
0.000134539
-0.00013021
-4.03082e-06
-0.000112893
-0.000146303
0.000125913
9.03932e-06
-1.17419e-16
-0.000269277
0.000237861
1.2432e-05
0.000272228
-0.000113947
0.000112848
-0.000111295
-1.55797e-06
-0.00025221
-3.91143e-05
0.000115014
-2.12194e-06
0.000227277
-0.000316205
8.89283e-05
0.000237451
-0.000318058
8.06828e-05
4.91495e-05
-0.000141799
8.54962e-05
-0.000362301
8.02143e-05
0.00028191
-0.000165841
-5.37673e-05
0.000220504
2.21037e-06
0.00025668
0.000180181
-0.000276557
-0.000333003
0.000240114
9.30165e-05
-0.000327489
0.000203169
0.00012432
-7.73084e-05
-8.02398e-05
-0.000234017
6.68659e-05
0.000188699
-0.000300417
0.000113178
0.000276641
-0.000276641
-8.06286e-05
-0.000212841
0.000294385
0.000109088
-0.000110907
1.80492e-06
0.000113151
-4.07578e-06
0.000270368
1.40404e-05
0.00024035
-0.000179766
-6.02527e-05
6.68503e-05
-0.000212638
0.000144789
-0.000254886
0.000181268
-0.000181542
-7.39443e-05
0.000112166
-0.000113079
9.46906e-07
0.00011483
-2.56235e-06
0.000300399
-9.65964e-05
-0.000203165
0.000238363
7.36305e-05
-0.000308982
-0.000156269
-0.000171221
0.000278562
-0.000272405
-6.23335e-06
0.000351649
-0.000316496
-3.43098e-05
0.000119444
-0.000113598
-5.95518e-06
0.00011853
9.28758e-07
0.000219932
1.79069e-05
-0.000237875
5.2707e-05
0.000300233
0.00017668
0.000124107
-0.000235765
0.000100201
0.000135739
0.000191115
-6.05627e-05
0.000112031
-0.000113382
1.23499e-06
-0.000193176
-6.42069e-05
0.000258898
0.000246929
-0.000341449
9.43446e-05
0.000114397
-2.46701e-06
0.000230744
0.000211516
-0.000210109
0.000284554
-7.35022e-05
-0.000231145
-0.000165059
0.000396041
-0.00023344
-6.67426e-05
0.000300197
-0.000217184
-0.000164699
-0.000183741
0.000251479
-6.6886e-05
0.000320829
-0.00022379
-9.65522e-05
0.000184979
6.30762e-05
-0.000203855
0.000202988
-0.000297408
-4.12269e-05
0.000201491
7.05578e-05
0.000202217
-0.000282745
8.05283e-05
4.60005e-05
-0.000289722
0.000243462
-0.000178333
-0.000125832
-0.000207463
-0.000174607
0.000382321
0.000111538
-0.000112967
1.52267e-06
0.00011398
-2.28253e-06
-0.000317129
0.000228957
8.81723e-05
0.000267512
-0.000238933
-2.85874e-05
-0.000305984
9.8504e-05
-0.000221505
-5.93434e-05
-0.000126264
-0.000136625
0.000261321
0.000329828
-9.07194e-05
0.000303949
-0.000249497
-5.50166e-05
-0.000128987
0.000335215
-0.000206696
9.87313e-05
-0.000320589
0.000222143
0.000118035
-0.000111994
-6.2228e-06
0.000117091
8.89701e-07
9.31564e-05
-0.000275017
-0.000345666
0.00017192
0.000170898
-0.000216253
4.50966e-05
0.000293663
-7.43027e-05
-0.000169113
0.000102875
6.86513e-05
6.038e-05
0.000141224
-0.000201207
-0.000288042
0.000164686
0.000122059
-1.77925e-05
-0.000295225
-0.000181502
1.67394e-05
-0.000228828
9.12178e-05
0.000137126
-0.000287029
2.61521e-05
-0.000315655
0.000315456
4.68011e-05
-8.81109e-05
-0.000140888
-0.000242679
0.000162573
0.000157224
0.000183603
-0.000228561
0.000140541
-0.000243357
7.65913e-05
0.000167839
0.000324504
-0.000119593
-9.22719e-05
-0.000135869
-0.000235804
9.09621e-05
0.000144231
-9.5633e-05
-0.000144212
0.000224029
5.51322e-05
-0.000242569
8.34785e-05
0.000155998
-8.5636e-05
-0.000150009
0.000243081
9.36795e-05
0.00011005
-0.000111816
1.82423e-06
-0.000250999
8.1048e-05
0.000169541
0.0001103
-0.000111981
1.69348e-06
0.000113319
-3.3717e-06
0.000112826
-2.6211e-06
-7.74642e-05
-0.000167013
-0.000202077
-5.87442e-05
0.000260821
-7.13047e-05
-0.000182327
0.000302874
-6.43493e-05
0.000162913
0.000166828
0.000205847
-0.000294968
8.9323e-05
-0.000257263
0.000182514
-0.000125946
0.000286409
-0.0001585
-0.000185332
0.000207871
-2.26875e-05
0.000129791
0.000116886
0.000117603
-0.000111254
-6.15923e-06
-8.05423e-05
-0.000217084
0.00011704
6.59914e-07
0.000340089
-0.000173769
-0.000166321
0.000226776
-6.63375e-05
-0.000275261
4.18321e-05
-0.000342975
0.000148323
0.000194384
-8.71363e-05
0.000269305
-0.000182169
0.000264225
-3.20905e-05
-0.00023202
4.60322e-05
-0.000271097
-9.05244e-05
0.000271013
-0.000180489
7.88483e-05
-0.000265497
0.00025341
-0.000300235
4.68256e-05
-0.000151313
0.000285237
-0.000222234
-0.000140699
0.000176253
-0.000313616
0.000137263
0.000175828
-0.000127338
-8.99074e-05
-0.000141721
0.000231935
-0.000143394
0.000363246
-0.000219038
6.54374e-05
0.000217815
-0.000283521
-0.000200207
0.000110562
-0.000343102
0.00020029
0.000276274
-0.000100093
-6.46948e-05
-0.000156821
0.000321863
-0.000110569
-0.00018275
-8.85531e-05
0.000271303
-0.000228873
0.000249845
-2.09721e-05
0.00031167
-0.000313499
1.83304e-06
0.000309524
-0.00021768
-9.21162e-05
0.000110199
-0.000300708
0.000293467
-3.58795e-05
-5.98152e-05
0.000250048
0.000140896
-0.000353182
0.000211597
0.000275633
-4.83562e-05
-0.000340718
0.000109832
0.000334856
-0.000115173
-0.000166568
0.000197062
-0.000244254
-7.22577e-05
0.000312281
7.07336e-05
0.000144197
-0.000214774
-0.000179136
-0.00014198
-0.000243184
0.000176546
6.69433e-05
-0.000372158
6.78358e-05
0.000249313
-0.000146497
-0.000328574
4.61247e-05
0.000281667
0.000124844
4.59638e-05
-0.000185907
0.00032073
-0.000297696
-2.30436e-05
-0.000303812
0.000259219
4.38782e-05
5.36418e-05
0.000244079
-0.000108199
-5.84913e-05
-0.00029284
0.000296488
-3.64191e-06
0.000383908
-0.000247542
-0.00013625
-0.000255498
-6.99863e-05
0.00021244
0.000171415
-0.000220361
1.1228e-05
0.000209133
-7.67455e-05
-0.000233543
-0.000133684
-0.000176443
0.000228619
7.83285e-05
-0.000306182
0.000179925
5.2546e-05
-0.000233424
0.000266835
-0.000200084
-0.000218345
0.000173965
-0.000311893
0.000196029
0.000115864
0.00029371
-0.000294228
1.69278e-07
1.60771e-05
9.53253e-05
-0.000111319
-0.000144138
0.000269227
-0.000264741
0.000185249
0.000229246
-2.19625e-05
0.00026731
-1.38984e-05
0.000217008
0.000104037
0.000145203
9.53404e-05
0.000315616
-0.00010388
-0.000211708
-0.000285614
8.88512e-06
0.000276731
-0.000231703
-8.7761e-05
0.000319763
0.00037731
-6.54663e-06
-0.00037106
6.80773e-05
0.000196251
0.000246905
1.69401e-05
-0.000263845
-0.000118664
0.000320881
-8.64363e-05
0.000274681
-0.000188245
-0.000202832
0.000210094
-6.56135e-06
-0.000171501
-0.000147225
-0.000169214
-0.000174228
0.000102577
-0.000333778
0.00023183
0.000203946
0.000101907
-0.000305879
-0.000195777
-7.35563e-05
0.000269333
0.000261548
-7.64952e-05
-0.000186557
-3.64934e-05
-0.000264474
0.000313448
-0.000187677
-0.000125754
-6.08196e-05
0.00031437
9.06364e-05
-0.000282241
8.70042e-05
0.000161202
-0.000248003
-2.1887e-05
-0.000275376
-0.000302226
0.00028763
1.45955e-05
0.000142988
-0.000125006
-0.00012238
0.000253032
-0.000119644
-7.26781e-05
0.000191549
0.000243886
-3.48201e-05
-0.000209446
0.000308083
-0.000208548
-9.04684e-05
0.000271041
-0.000180573
-0.000227058
0.000246275
1.89177e-06
0.000241151
0.000156528
-9.00769e-05
-2.87959e-05
0.000297307
-0.00026854
-5.2717e-05
0.000290187
0.000333985
-0.000234402
-9.98543e-05
-7.70003e-06
0.000301785
-8.15028e-05
-0.000216014
-9.83831e-05
0.000320928
-0.000223136
-0.000266131
6.34746e-05
-8.26214e-06
-0.000243497
0.000251701
0.00020875
-0.000275101
6.62298e-05
0.000104802
8.10705e-05
-0.000185544
0.000253738
6.63533e-05
-0.000318628
-6.265e-05
0.000317544
0.000257629
-0.000239598
0.00032082
-8.16798e-05
-0.000126265
0.000122965
4.818e-06
-7.22403e-05
0.000254549
-0.000182309
0.000118644
0.000190807
-0.000308892
7.93278e-05
0.000221863
-0.000300806
0.000277033
-0.000199277
1.08229e-05
0.000212997
-0.000246903
9.95041e-05
0.00014762
0.000189057
-0.000269221
-7.1971e-05
-0.000242657
0.000314249
9.36184e-05
0.000172887
-0.000266505
-9.30437e-05
8.1868e-05
-0.000273337
0.000188861
-0.000185768
7.58861e-05
0.00010963
-6.43163e-05
0.000272385
-0.000208069
-8.73883e-05
0.000267905
-0.000180517
0.000292852
-6.01574e-05
0.000224309
2.25961e-05
-8.85363e-05
0.000273477
-0.000184941
-0.000210762
0.000313442
-0.000272049
0.000184689
0.000310885
-0.000208534
-0.000102352
-0.000341767
0.000266845
7.4957e-05
-0.000185333
-7.91003e-05
0.000266897
-0.000187797
0.000266772
-0.000248835
0.000315337
-0.000174189
-0.000141149
-0.00025864
7.58901e-05
7.35843e-05
-0.000275661
-4.70343e-05
-0.00029518
-9.13644e-05
0.000278517
-0.000187153
0.000110361
0.000111332
-8.27278e-05
0.000145629
0.000169709
-0.000282365
0.000274463
7.80681e-06
0.000105184
-0.000254461
2.22533e-06
-9.8145e-05
0.00032755
-0.000228005
-6.93563e-05
0.000263761
-0.000194405
0.000269501
-0.000134121
0.000264209
0.000176455
-6.52024e-05
-0.000189981
-0.000121912
0.000461507
-0.000232616
-0.000228896
0.00025681
0.000204786
-0.000290589
0.000300468
-9.19247e-06
-0.000277845
0.000275661
2.18401e-06
0.000106318
-9.02931e-05
-1.46391e-05
-0.000257685
8.92923e-05
0.000168393
-8.60469e-05
0.000277512
-0.000191465
0.000156661
5.90522e-05
-0.000215713
-7.66083e-05
-0.000181077
0.00027176
-0.000192721
-0.000202317
9.96815e-05
0.000102806
-0.000262865
0.000183765
-0.000287505
5.86322e-05
0.000430199
-0.000173301
7.14857e-05
5.10553e-05
-0.000122768
0.000231303
0.000199041
-0.000257069
0.000180461
9.74205e-05
0.000188182
5.8627e-05
-0.000248557
0.000189741
0.000333499
-0.00012094
-0.000211843
0.000157831
0.000153054
-7.39763e-05
-0.000183093
-0.000284106
-8.16639e-05
0.00036578
0.00021648
-0.000129172
-7.69167e-05
0.000261459
-0.000184703
3.73139e-05
-0.000222837
0.000230833
5.09607e-06
0.000156867
-5.18613e-05
-0.000344127
0.000196808
0.000147028
0.000200985
-0.000270341
0.000192926
-0.000200825
7.1559e-06
-0.000183279
-0.000167742
-9.41011e-06
0.00021183
-0.00020302
-0.00011077
0.00018981
-2.55361e-05
0.000257797
-0.000232261
-0.000142073
0.000300749
-7.16792e-05
0.000311555
-0.000240584
0.000176793
0.000103208
0.000230861
7.81203e-06
-0.000238673
-0.000222918
0.000284276
-5.93476e-05
-0.000269612
-0.000273323
0.000239325
3.4158e-05
0.000117239
8.77087e-06
0.000115265
1.92887e-06
8.37368e-05
-0.000218738
0.000135538
0.000198548
0.0001043
-2.63481e-05
0.000257209
0.000247717
-0.000100095
-0.000146777
-0.000252617
2.32401e-06
-0.000198692
0.000253341
-5.55904e-05
-0.000194058
-0.00017174
-9.85036e-05
0.000298659
-0.000200127
0.000316844
-1.15859e-06
-0.000199266
-8.87227e-05
-0.000170156
0.000249666
-8.03926e-05
8.15181e-05
0.000252389
-0.000335327
-8.8934e-05
0.000268879
-0.000179834
-0.00016057
0.000287994
-0.000125355
-0.000166858
0.000288351
0.00030364
-4.67914e-05
-0.000148183
0.000247235
-6.74523e-05
0.000249677
-0.000182225
-7.28195e-05
-0.000243332
0.000313484
0.000183219
-0.000283389
5.44602e-05
0.000228929
-8.82283e-05
-0.000161421
0.000249649
0.000351714
-0.000212024
-0.000252897
0.000185445
0.000110011
5.09055e-06
0.000275698
-0.0002178
-5.64492e-05
0.000113515
-3.42322e-06
-6.71163e-05
-0.000185781
0.00026598
-6.20344e-05
4.80463e-05
-0.000275895
0.000228405
-3.41041e-05
-0.000249285
-0.000213279
-7.65171e-05
0.000291245
-0.000245484
0.000251553
-6.38402e-05
-0.000187713
0.000184437
0.000307758
-4.09119e-05
-0.000243494
0.000235188
-0.000316342
0.000316357
-0.000295761
0.000225221
7.05547e-05
6.93283e-05
-0.000289689
-0.000191635
0.000256904
-0.000186465
-3.42366e-06
0.000189291
-0.000226951
-8.73713e-05
0.000314108
-0.000250769
0.000186929
0.000310565
-6.55802e-05
0.000315337
-0.000138545
0.000272021
-0.000191073
0.000118895
-6.55483e-05
-0.000185221
-0.000251833
0.000177857
-0.000267793
0.000195553
-0.000241165
0.000176849
-0.000275786
-1.71085e-05
-5.74576e-05
0.000199293
-0.000142002
-0.000254281
0.000176437
7.84178e-05
0.000187685
-0.000253233
-0.000261549
0.000174161
-0.000136954
0.000210848
-7.52144e-05
-9.10057e-05
-0.000137784
0.000229249
0.000286553
-0.00012614
-0.000160413
-0.000267933
0.000182953
-0.000131279
0.000213026
6.34376e-05
-0.000276479
-0.000246888
0.000419403
-0.000172507
-0.000109069
0.000283876
-0.000174485
-7.76723e-05
0.000251133
-0.000173461
-9.50177e-05
-0.000141384
0.000236545
-1.04545e-05
0.000122122
0.000168981
0.000109312
-0.000278293
0.000191144
-0.000262317
7.1128e-05
-1.41051e-05
-0.000203315
0.00021742
-0.00026751
0.000301642
-3.42286e-05
-0.000213893
-9.04684e-05
-0.000196799
0.000316146
-0.000445166
0.00019259
0.000252819
-0.000240689
-7.94643e-05
0.000273701
-0.000180545
0.000202743
-2.30086e-05
-0.000179334
-7.98606e-05
-0.000135667
0.000214658
0.000177633
-0.000213126
-6.62455e-05
0.000279371
-0.000192025
-8.42523e-05
0.000276277
0.000115967
2.64379e-06
0.000116929
-9.04514e-07
3.48601e-05
0.000241781
-0.00010893
-0.000193295
-0.000276725
0.000188189
-0.000123559
0.000217177
7.6725e-06
-0.000195745
-0.000189617
-7.87923e-05
0.000268409
5.72044e-05
0.000158191
-0.000215288
0.000103293
-3.18553e-05
0.000189602
-0.000211744
2.1059e-06
-0.000274734
0.000284952
-1.02323e-05
-0.000173825
-0.000143305
-0.00020169
0.000296426
-9.47356e-05
-0.000125088
-0.000170533
0.000295201
-0.000128493
0.000305677
-1.30537e-05
0.000243923
-0.000230869
-0.000250791
3.76657e-05
-7.15998e-05
0.000158675
2.96887e-05
0.000233155
-0.000262904
0.000182953
-0.000108394
-0.000164644
0.000272481
0.000107995
-7.68038e-05
-3.0527e-05
-3.74558e-05
0.000208307
0.000159389
-8.84468e-05
-0.000186845
-8.92083e-05
0.000113334
3.94655e-05
-0.000235148
0.000165313
7.00761e-05
-0.000134736
-0.000179727
0.000314838
0.00015747
-0.000201218
4.2744e-05
-8.32416e-05
-0.00014247
0.000225336
3.28675e-05
-0.000264277
0.000100677
0.000201695
-0.000351678
9.07332e-05
0.000261035
0.000146096
-0.000268422
0.000123984
0.000182323
-3.73232e-05
8.63005e-05
-0.000279569
-9.60309e-05
-0.000106413
0.000180769
-0.000179762
0.00042555
-0.000245929
7.70063e-05
0.000173268
-0.00024987
-0.000151509
0.000293329
-0.000141821
8.92901e-05
-0.000328816
1.52113e-06
-0.000219942
7.03715e-05
-0.000306184
0.000237072
-8.35805e-05
0.000323444
0.000254803
6.92781e-05
-5.6464e-05
-7.43807e-05
0.000130685
-0.000138772
-0.000114925
-0.000129053
-0.000231729
-4.61162e-05
-0.000212663
0.000439228
-0.000226551
0.000110996
6.14277e-06
0.000112497
-1.54683e-06
-0.000179556
-0.000180389
0.000301242
-0.00012006
0.000157302
-9.65779e-05
0.000242061
-0.000293077
5.10162e-05
-0.000219399
-7.61525e-05
0.000295557
6.78443e-05
0.000189953
-0.000132783
0.000178357
-4.64671e-05
0.000141488
0.000192481
-0.000244371
0.000383989
-0.000137582
0.000266763
4.48538e-05
0.000120042
-0.000204876
-0.000139382
0.00018101
0.000111022
-0.000290773
-5.25282e-05
0.000280589
-4.61049e-05
0.00032078
-0.000137337
-0.000201138
0.000337756
0.000270618
-3.92337e-05
-5.00617e-05
-0.000135929
-3.47785e-05
-9.2175e-05
0.000187265
-0.000190764
-0.000152961
0.000249035
-0.000311077
0.000284621
-0.00012796
0.000213629
0.000107139
-6.88811e-05
-0.000158851
0.000228049
0.000232199
-0.000143912
-8.81025e-05
4.37097e-05
-0.000297086
-0.000133368
-0.000249106
0.000282825
-3.33544e-05
-0.000212882
0.000202819
-0.000204597
0.000273925
-0.000175606
-0.000128579
-0.000230693
-5.49195e-05
-8.42326e-05
-0.000148
0.000233435
-0.000176273
-0.000121432
0.000297929
-0.000145745
9.62692e-05
4.97922e-05
-0.000188693
0.000247745
-0.000314611
0.000314604
0.000181609
0.000158481
0.000364884
-3.23823e-05
-0.000332899
-0.000308761
0.00017532
0.000133441
7.65243e-05
0.000190373
-9.97959e-05
0.000341167
-0.000243595
-0.000247873
-1.07393e-06
0.000261555
-2.30401e-05
7.59083e-05
0.000187853
-0.000338458
0.000106657
0.000232018
-0.000187637
-7.26094e-05
-0.000175044
0.000249776
-7.473e-05
7.41438e-05
0.000239243
-0.000252333
-8.31724e-07
0.000253197
-4.95788e-05
-0.000234996
0.000238988
2.23199e-05
-0.000112262
0.000196795
-0.000180673
-0.000170498
0.000352291
0.000162095
-0.00034137
-0.0001587
0.000307359
-0.000148408
-0.000290353
0.000115309
-0.000233526
-0.000145484
-0.000167122
0.000312943
0.000208738
-0.000269576
-0.000203409
5.48242e-05
-0.000232289
0.000177465
0.000203645
-6.20139e-08
-5.51539e-05
-0.000162217
-8.39425e-05
0.000290212
-0.000102328
0.000277271
-0.000176278
3.74816e-05
-0.000236711
-0.000112316
-0.000102153
0.000185025
-0.000263621
7.85963e-05
-0.000266815
-4.77972e-05
-7.56003e-05
-0.000177017
0.000252617
0.000234269
7.23776e-05
-0.000306143
-0.000188094
-0.000156244
8.49873e-05
0.00020964
-0.000294759
-0.00016659
-8.72497e-05
0.000253805
0.000358262
-0.000190503
-0.000167762
0.000236016
-4.48858e-05
-0.000171109
-0.000145097
6.81243e-05
-0.000257825
0.000189701
-0.000141114
0.00040897
-0.000270013
0.00025279
-5.28955e-05
-0.000198523
0.000108891
8.10351e-06
0.000295915
-0.000167718
-0.000128588
0.000254012
-0.000286211
3.2195e-05
0.000179789
-0.000257461
0.000113535
0.00022684
0.000111506
-2.73359e-06
0.00023529
0.000295237
-0.000286824
-8.28941e-06
-8.74392e-05
-0.000143054
0.000230427
-0.000171576
0.000248634
-8.47483e-05
0.000178108
-0.000278377
0.000187013
0.000259086
-0.000257515
-1.57025e-06
-6.45963e-05
0.000245113
-0.000180517
0.000172361
-0.000238021
0.000353342
-0.00013004
-0.000223302
-7.993e-05
0.000290821
0.000269753
-0.000258245
-1.1508e-05
-0.000183989
0.000182869
-0.000247465
-0.00027737
0.000191324
0.000249901
4.20298e-06
0.000134756
0.000123878
-0.000258267
6.71069e-05
-0.000244231
0.0001772
-0.000222629
0.000134401
0.000272469
-3.04081e-05
0.000122882
-0.000247912
0.000124311
-0.000114985
0.000250257
-0.000185572
-9.49689e-05
0.000280541
4.3614e-05
-0.00018181
-0.000176202
-5.96012e-05
-0.000177458
0.000119711
-0.00011795
0.000235708
-0.000117268
-4.55545e-05
-0.000270252
0.000268041
5.88167e-05
-0.000342931
-4.49596e-05
0.000253612
0.000140544
-0.000265425
0.000123785
-0.000242776
-2.4916e-05
9.49176e-05
0.000169174
-0.000264091
-5.34631e-05
-0.000253127
0.000328201
-9.5271e-05
-0.00023311
-5.64362e-05
-0.000233349
1.27482e-05
0.000253921
-9.47247e-05
-0.000140176
0.000234887
-0.000116218
0.000264421
0.000195146
8.71845e-05
-0.000282391
4.62013e-05
-0.000306016
0.000260955
0.000170577
-0.000299549
-0.000218195
0.000284747
-6.64238e-05
-0.000164601
0.000212788
0.000257257
-0.000203567
-2.90884e-05
-0.000260762
7.76803e-05
-0.000322876
0.000242983
-0.000229572
-0.000123623
0.000209595
0.000143747
-0.00030224
0.000175635
0.000113627
-0.00020532
8.32371e-05
0.000251579
-0.00010092
0.000215222
6.86358e-05
0.000209903
-0.000431692
0.000198958
0.000244104
0.000141555
9.6187e-05
0.000201177
-0.00023038
-7.83807e-05
0.000364561
-0.000197196
-5.34025e-05
0.000249995
-6.24402e-05
0.000276669
-0.000124318
-4.81958e-05
0.000172604
-0.000228141
-0.000115966
7.95483e-05
-0.000264405
0.000184857
0.00025264
-7.29439e-05
0.000108074
0.000101627
-0.000208981
-0.00022578
-0.000125826
0.000155331
-0.00028907
0.000133823
-0.000184017
0.000172182
-0.000186287
0.000155069
-0.000292709
0.000137148
2.975e-05
-0.000281625
0.00025344
-0.000119912
-0.000169478
0.000289807
-0.000178175
9.06707e-05
-9.49724e-05
0.000203884
-0.000310273
4.67373e-05
0.000263527
-7.48692e-05
0.000342428
-0.000268639
0.000105677
0.000271339
-4.50704e-05
-0.000252664
-0.000202667
0.000202654
-0.00019712
-0.000143425
-5.0658e-06
-0.000210767
0.000213563
-6.05465e-05
0.000337845
-0.000276644
-0.000217652
0.000123566
-0.000127092
-0.000108079
0.000160186
-0.000310036
0.000150302
-0.000111387
0.000341199
-0.000159045
0.000248002
-8.8616e-05
0.000327869
-6.56688e-05
-0.000263267
0.000323464
-0.00023068
-9.2546e-05
-0.000182233
0.000432215
-0.000250825
0.000124624
0.000275101
-0.000398989
-6.69965e-05
-0.00017924
-0.000234369
0.000149141
0.000334377
1.16598e-05
-0.000345999
0.000155479
0.000143089
4.13691e-05
0.000282028
-2.75616e-05
-0.000288786
0.000246523
-0.000204013
-6.00787e-05
-0.000242592
0.000302121
-0.000216079
0.000110277
-0.00022769
0.000269871
0.000124897
-0.000394475
0.000172376
-0.000158567
2.80146e-05
-0.000129974
-0.000206575
0.000337337
-0.000152281
-7.32607e-06
-0.000105022
-0.000189849
-0.00017296
-0.000159961
0.000272719
-5.96833e-05
0.000201172
-0.000330694
0.000220559
4.27933e-05
-0.00026414
4.87539e-05
-0.00012402
0.000215271
0.000164001
-0.000323335
0.000161341
7.80003e-05
0.000229936
0.000254689
-0.000199865
5.56e-05
-0.000185846
0.000127768
-0.000281737
7.71403e-05
-0.00022023
0.000131428
0.000157866
-0.000319314
0.000160893
-0.000247537
0.00031548
0.000160665
-0.000266737
0.000143729
0.000146245
0.000140309
-0.000193223
-8.20216e-05
-0.000332336
0.000194138
-0.000127224
0.000397002
0.000250865
-0.000279688
0.000269785
-0.000397247
0.000107361
-0.000207676
0.00021897
-0.000117341
0.000416526
-0.000133002
-0.000283569
0.00026988
-0.000145549
-0.000419072
0.000172185
6.29099e-05
4.36556e-05
8.81163e-05
-0.000283893
9.40048e-05
-0.000215484
-0.000291089
0.000101108
-0.000132429
-0.000264243
0.000397455
8.89283e-05
0.000182757
-0.000271685
-0.000192025
0.000290563
1.44169e-05
-0.000305037
-0.000237128
0.000142276
-0.000295186
0.000130493
-0.000131032
-0.000205108
0.000335646
0.000237127
-0.000175555
-6.09231e-05
-4.62367e-05
0.000309864
-0.000263776
-0.000261081
0.000146293
-0.000258008
0.000120126
0.000291267
-0.000203176
-8.86507e-05
0.000203357
-0.000335164
-0.000282807
7.031e-06
0.000225315
-9.05162e-05
6.7314e-06
-0.000251433
0.000244699
-0.000188284
4.91093e-06
-0.000137062
0.000226561
-0.000311893
0.000240129
-7.74905e-05
-0.00023524
-0.000185025
-0.000111562
1.03642e-07
-0.000100254
0.000317835
3.52039e-06
0.000394314
0.000219783
-0.0001893
-4.09922e-05
0.000269949
-0.00014747
0.000224582
0.000263727
-0.000168113
-9.55428e-05
-5.76611e-05
0.000297858
0.000267345
-0.000280001
0.000141615
-0.000234326
-0.000100822
-0.000235924
-0.000152652
0.000233991
-0.000292674
0.00010341
0.000189246
0.000169551
-0.000366426
0.000195999
-0.000152448
0.000233054
-3.1067e-05
0.000250415
-0.000369841
0.000220525
0.00014944
0.000163797
-0.000370316
0.000206917
0.000265349
7.06066e-05
-0.000338132
-6.40235e-05
0.000330196
-0.000335325
0.000249508
8.4722e-05
0.000185918
-0.000128898
-8.94425e-05
-0.000229
-0.000245941
0.000167396
0.000156317
-0.000371654
0.000216037
-9.13487e-05
-0.000134806
0.00022409
-0.000141438
-0.000228339
-0.000213536
4.25251e-05
9.03003e-05
0.000179593
-0.000269893
-9.28204e-05
-0.000177241
0.000270061
0.000223198
-0.000402638
-0.000258301
8.42803e-05
-9.47239e-05
0.000290066
-0.000439845
0.000227179
-1.95146e-05
0.000228243
-7.29821e-05
0.000225519
-0.000155681
-0.000110036
-8.70566e-07
9.71931e-05
-0.000215653
0.000118736
0.000162842
-0.000321201
3.53951e-06
2.64171e-05
-0.00024579
-0.00023682
3.77285e-06
0.000124864
0.000186169
-0.00031133
-0.000290131
0.000144074
-0.000257666
6.44487e-05
7.48926e-05
-0.000230513
0.000157085
-0.000191032
0.00031571
0.000334992
-0.000149577
0.000263649
-0.000249621
-0.000112742
-0.000229517
0.000343058
-0.00017894
0.000340982
0.000127346
-0.000318207
-0.000226337
-8.22375e-05
0.000306548
-0.000301312
0.000219245
-0.000346253
0.000129973
-0.000182478
0.000309165
3.62321e-05
0.000194265
-0.000230497
-0.000319237
0.000135634
-0.00024794
5.03922e-05
-0.000314169
0.000241675
-0.000198733
-0.000136812
-0.000102882
0.000281855
-0.000178919
-0.000150293
-0.000156243
0.000307129
-0.000242782
0.000163993
0.000178949
-0.000277845
-0.000247279
2.9717e-05
0.000218079
0.000177843
-0.000328164
-0.000297065
0.000235994
-2.03145e-05
-0.000127097
0.000147718
2.5742e-05
-0.000257435
0.000232533
-0.000114849
1.73302e-06
-1.68145e-06
-0.000247501
0.000240947
-0.000228462
-0.000171719
0.000367856
-0.000195699
-0.000327415
8.33873e-05
-0.000275339
5.76318e-06
0.000326561
-0.000295994
0.000176334
-0.000217328
0.000137374
-0.000390215
0.000252345
-9.34364e-05
-0.000183205
6.10289e-05
0.000196264
-0.00034483
0.000232402
-9.8573e-05
0.000123235
0.000300956
-0.000145446
0.000218148
-0.00011554
0.000216695
-0.000282017
0.000194993
8.70243e-05
0.000257517
1.74441e-05
-0.000274961
0.000174959
8.01919e-05
-0.000207019
-7.17447e-05
0.000278763
-0.000172207
-0.000179097
0.000231834
-0.000219313
-0.000229153
-0.000116926
3.33129e-06
-2.08445e-06
0.000119581
0.000238679
-0.000312647
-0.00011917
-0.000115416
0.000300441
0.000188882
5.9288e-05
0.000343597
-0.000224377
-0.000117796
-0.000112651
-0.000182659
-0.000143272
0.000338637
-0.000200374
-0.000375161
0.000127503
-0.000275135
-0.000208601
0.00010329
0.000240895
0.000180513
-0.00028338
0.000131199
-0.000263631
0.000141729
0.000120792
2.76921e-05
-0.000216385
0.000140688
0.000129651
-0.000271214
-8.94344e-05
0.000269952
-0.000142905
1.98009e-05
0.00012344
-0.000124708
-0.000209165
-2.76988e-05
0.000313713
-0.000144733
-0.000292486
0.000114139
0.000177883
-0.000274065
9.71607e-05
0.000176904
0.000202049
-0.000190821
-9.22043e-05
-0.000181861
0.000188612
-0.000278055
-0.000414177
0.000271452
0.000205088
0.000196981
-0.000169289
-0.000124724
-0.000164444