/*--------------------------------*- C++ -*----------------------------------*\
  =========                 |
  \\      /  F ield         | OpenFOAM: The Open Source CFD Toolbox
   \\    /   O peration     | Website:  https://openfoam.org
    \\  /    A nd           | Version:  12
     \\/     M anipulation  |
\*---------------------------------------------------------------------------*/
FoamFile
{
    format      ascii;
    class       volVectorField;
    location    "0.6";
    object      U;
}
// * * * * * * * * * * * * * * * * * * * * * * * * * * * * * * * * * * * * * //

dimensions      [0 1 -1 0 0 0 0];

internalField   nonuniform List<vector> 
9801
(
(0.938613 -0.0682934 0)
(0.939517 -0.0651622 0)
(0.940652 -0.0632684 0)
(0.941435 -0.0610474 0)
(0.943618 -0.059025 0)
(0.945262 -0.0569746 0)
(0.94523 -0.055058 0)
(0.943861 -0.0527588 0)
(0.941749 -0.0503611 0)
(0.94087 -0.04824 0)
(0.940352 -0.0462782 0)
(0.940821 -0.0440697 0)
(0.942464 -0.0416545 0)
(0.943778 -0.0393587 0)
(0.943415 -0.0371102 0)
(0.941577 -0.0345512 0)
(0.940254 -0.0323663 0)
(0.939198 -0.0305765 0)
(0.938802 -0.028681 0)
(0.940163 -0.0263286 0)
(0.941608 -0.0238997 0)
(0.941652 -0.0215556 0)
(0.940466 -0.0188774 0)
(0.938691 -0.0164201 0)
(0.937656 -0.0144757 0)
(0.93742 -0.0124185 0)
(0.938322 -0.00996907 0)
(0.939657 -0.00751298 0)
(0.939536 -0.00516204 0)
(0.938023 -0.00256198 0)
(0.936725 -0.00049423 0)
(0.935747 0.00115738 0)
(0.935752 0.00315709 0)
(0.936904 0.00551293 0)
(0.937319 0.00770408 0)
(0.936391 0.0099688 0)
(0.934542 0.0121741 0)
(0.932969 0.0138947 0)
(0.932259 0.0155817 0)
(0.932463 0.017787 0)
(0.933769 0.0202637 0)
(0.934338 0.0226772 0)
(0.933936 0.0250969 0)
(0.932481 0.0275048 0)
(0.931799 0.0295115 0)
(0.931729 0.0314139 0)
(0.933338 0.0334256 0)
(0.936198 0.0349051 0)
(0.937065 0.0352616 0)
(0.936017 0.0349934 0)
(0.933976 0.0352391 0)
(0.931414 0.036618 0)
(0.929505 0.0382908 0)
(0.927957 0.039438 0)
(0.927233 0.0407913 0)
(0.92837 0.0425119 0)
(0.927647 0.0441488 0)
(0.925424 0.0453441 0)
(0.923365 0.04634 0)
(0.921752 0.0474164 0)
(0.919998 0.0482364 0)
(0.918598 0.0486467 0)
(0.918223 0.0495236 0)
(0.919091 0.0508971 0)
(0.918455 0.0524877 0)
(0.916251 0.0541605 0)
(0.913941 0.0552287 0)
(0.911964 0.0561851 0)
(0.910081 0.056814 0)
(0.908465 0.0572031 0)
(0.908329 0.0580829 0)
(0.907705 0.0593429 0)
(0.904939 0.0609244 0)
(0.90189 0.0619107 0)
(0.899208 0.0626097 0)
(0.896954 0.0630134 0)
(0.895675 0.0634508 0)
(0.897059 0.0643015 0)
(0.89633 0.0650047 0)
(0.892583 0.0655808 0)
(0.887369 0.0660061 0)
(0.882982 0.0664034 0)
(0.879492 0.066731 0)
(0.876489 0.0670263 0)
(0.874602 0.0674475 0)
(0.875213 0.0682876 0)
(0.87478 0.0679599 0)
(0.871244 0.0680501 0)
(0.863897 0.0698484 0)
(0.855812 0.0714843 0)
(0.850147 0.0716889 0)
(0.845358 0.0717925 0)
(0.842289 0.0719003 0)
(0.841005 0.072092 0)
(0.835023 0.0711077 0)
(0.822475 0.0681926 0)
(0.802238 0.0543499 0)
(0.669319 0.0116047 0)
(0.252294 0.00799028 0)
(0.991844 -0.0953948 0)
(0.991716 -0.0930229 0)
(0.992344 -0.0917753 0)
(0.993414 -0.0896557 0)
(0.995952 -0.0876833 0)
(0.996574 -0.0855145 0)
(0.996048 -0.0834179 0)
(0.994699 -0.081355 0)
(0.992033 -0.0791209 0)
(0.990254 -0.0772559 0)
(0.989208 -0.0756204 0)
(0.989642 -0.0735088 0)
(0.991126 -0.0712262 0)
(0.991558 -0.0692711 0)
(0.990683 -0.0673658 0)
(0.988795 -0.0653078 0)
(0.986487 -0.0631567 0)
(0.984807 -0.0613885 0)
(0.984284 -0.0595832 0)
(0.985654 -0.0573015 0)
(0.986135 -0.0551068 0)
(0.985361 -0.0531525 0)
(0.983791 -0.0510582 0)
(0.981224 -0.0489031 0)
(0.979535 -0.0472805 0)
(0.978822 -0.0456533 0)
(0.979365 -0.0433451 0)
(0.979727 -0.0411516 0)
(0.978748 -0.0391083 0)
(0.976963 -0.0370423 0)
(0.974842 -0.0350975 0)
(0.973257 -0.033558 0)
(0.972776 -0.0317001 0)
(0.973187 -0.0292845 0)
(0.972717 -0.0272676 0)
(0.971454 -0.0255215 0)
(0.969053 -0.0235468 0)
(0.966561 -0.0216976 0)
(0.965328 -0.020093 0)
(0.965067 -0.0177279 0)
(0.965388 -0.015209 0)
(0.964622 -0.0131017 0)
(0.96316 -0.0112098 0)
(0.960193 -0.00903809 0)
(0.957766 -0.00714798 0)
(0.956134 -0.00548214 0)
(0.954987 -0.00357244 0)
(0.954622 -0.00112904 0)
(0.953637 0.000521129 0)
(0.952063 0.00116808 0)
(0.949596 0.00225753 0)
(0.946125 0.00430289 0)
(0.94365 0.00641678 0)
(0.942124 0.00833482 0)
(0.942032 0.0104114 0)
(0.94223 0.0124694 0)
(0.940752 0.014291 0)
(0.938497 0.0157536 0)
(0.934788 0.0178141 0)
(0.931533 0.0201658 0)
(0.929146 0.0221302 0)
(0.92773 0.0235762 0)
(0.927759 0.0252104 0)
(0.927747 0.0270854 0)
(0.926395 0.0287987 0)
(0.92414 0.0303657 0)
(0.920451 0.0325226 0)
(0.91745 0.0346408 0)
(0.915567 0.0363047 0)
(0.914435 0.0375842 0)
(0.913885 0.0387818 0)
(0.912243 0.0403526 0)
(0.909397 0.0422783 0)
(0.905243 0.0446429 0)
(0.902196 0.0466713 0)
(0.900108 0.0480751 0)
(0.898798 0.0492812 0)
(0.899208 0.0510049 0)
(0.897914 0.0527268 0)
(0.895053 0.053656 0)
(0.88973 0.0548671 0)
(0.884044 0.0569781 0)
(0.880181 0.0589943 0)
(0.877186 0.0599106 0)
(0.875137 0.0607146 0)
(0.875658 0.062692 0)
(0.874268 0.0652574 0)
(0.870745 0.0662954 0)
(0.864843 0.0666839 0)
(0.856016 0.0666046 0)
(0.848084 0.0680668 0)
(0.84241 0.0691675 0)
(0.837841 0.0704469 0)
(0.834156 0.0726657 0)
(0.828266 0.0731877 0)
(0.818102 0.0730823 0)
(0.803136 0.0658576 0)
(0.681199 0.0379974 0)
(0.26986 0.0426857 0)
(0.989281 -0.0931276 0)
(0.988911 -0.0907999 0)
(0.989291 -0.0895744 0)
(0.990348 -0.087317 0)
(0.99261 -0.085063 0)
(0.993197 -0.0830155 0)
(0.99284 -0.0811041 0)
(0.991603 -0.0790558 0)
(0.989061 -0.0768206 0)
(0.987141 -0.0750784 0)
(0.986068 -0.0735707 0)
(0.98645 -0.0714125 0)
(0.987947 -0.0689996 0)
(0.988368 -0.067122 0)
(0.987581 -0.0653019 0)
(0.985801 -0.0632374 0)
(0.983441 -0.0612085 0)
(0.981758 -0.059615 0)
(0.981209 -0.0578144 0)
(0.982457 -0.0553034 0)
(0.982964 -0.0531169 0)
(0.982321 -0.0513186 0)
(0.980851 -0.0493229 0)
(0.978343 -0.0472931 0)
(0.97656 -0.0457289 0)
(0.97571 -0.0440646 0)
(0.976183 -0.0416073 0)
(0.976576 -0.0394234 0)
(0.975767 -0.0375618 0)
(0.974151 -0.0356088 0)
(0.971938 -0.0336663 0)
(0.970228 -0.0321066 0)
(0.96959 -0.0302485 0)
(0.970042 -0.0278024 0)
(0.96974 -0.0258973 0)
(0.968568 -0.0242423 0)
(0.96618 -0.0222656 0)
(0.963659 -0.0205085 0)
(0.962337 -0.0189826 0)
(0.962086 -0.0166016 0)
(0.962534 -0.0141028 0)
(0.961896 -0.0120944 0)
(0.960417 -0.0101888 0)
(0.957522 -0.00808546 0)
(0.954965 -0.00635021 0)
(0.95319 -0.00463916 0)
(0.951983 -0.00287116 0)
(0.951659 -0.000925872 0)
(0.950808 0.000724155 0)
(0.949197 0.00183491 0)
(0.946745 0.00315605 0)
(0.943571 0.0047282 0)
(0.941253 0.0064263 0)
(0.939717 0.00847979 0)
(0.939518 0.0110322 0)
(0.939675 0.013185 0)
(0.938359 0.0148128 0)
(0.936032 0.0163905 0)
(0.932337 0.0181235 0)
(0.929299 0.019859 0)
(0.927012 0.0217908 0)
(0.925578 0.0237226 0)
(0.925471 0.0258626 0)
(0.92536 0.0277179 0)
(0.924074 0.0291914 0)
(0.921694 0.030844 0)
(0.918119 0.0326506 0)
(0.915314 0.0341843 0)
(0.913259 0.0358431 0)
(0.912294 0.0378122 0)
(0.911447 0.0393652 0)
(0.90988 0.0406082 0)
(0.906978 0.0423828 0)
(0.902947 0.0442799 0)
(0.899731 0.0458252 0)
(0.897415 0.04732 0)
(0.896486 0.0490194 0)
(0.896759 0.0507623 0)
(0.895534 0.052375 0)
(0.892865 0.0537797 0)
(0.887592 0.0553035 0)
(0.881774 0.0563239 0)
(0.877606 0.0576294 0)
(0.874487 0.0587031 0)
(0.872208 0.0597268 0)
(0.872149 0.0616194 0)
(0.871167 0.0641592 0)
(0.867923 0.065569 0)
(0.86258 0.0661679 0)
(0.852874 0.065442 0)
(0.844792 0.0652126 0)
(0.83924 0.0656424 0)
(0.83449 0.0661696 0)
(0.830614 0.0665762 0)
(0.826084 0.0661079 0)
(0.819282 0.0658964 0)
(0.811644 0.0626289 0)
(0.694541 0.0404016 0)
(0.29105 0.044968 0)
(0.984453 -0.0917324 0)
(0.983934 -0.089238 0)
(0.984133 -0.088081 0)
(0.985224 -0.0859192 0)
(0.987442 -0.0835741 0)
(0.9879 -0.0814601 0)
(0.987538 -0.079656 0)
(0.986452 -0.0777441 0)
(0.984287 -0.075502 0)
(0.982334 -0.0736135 0)
(0.981223 -0.0722001 0)
(0.981475 -0.0701944 0)
(0.983047 -0.067752 0)
(0.983462 -0.0658019 0)
(0.982761 -0.0640161 0)
(0.981262 -0.0620648 0)
(0.979037 -0.0600072 0)
(0.977313 -0.0583801 0)
(0.976624 -0.056744 0)
(0.977727 -0.0542034 0)
(0.978363 -0.0519174 0)
(0.977825 -0.0501738 0)
(0.976596 -0.0483994 0)
(0.974313 -0.0464328 0)
(0.972414 -0.0447563 0)
(0.971409 -0.0431477 0)
(0.971769 -0.0406891 0)
(0.97228 -0.0384195 0)
(0.971596 -0.0367167 0)
(0.970216 -0.0349946 0)
(0.968082 -0.0329712 0)
(0.966286 -0.0312681 0)
(0.965479 -0.0295097 0)
(0.965943 -0.027091 0)
(0.965785 -0.0252065 0)
(0.96474 -0.0236586 0)
(0.962585 -0.0216483 0)
(0.960118 -0.0197498 0)
(0.958714 -0.0182999 0)
(0.958344 -0.0161478 0)
(0.958889 -0.0136116 0)
(0.958415 -0.0115707 0)
(0.957105 -0.00972284 0)
(0.954581 -0.00770971 0)
(0.95199 -0.0060804 0)
(0.950084 -0.00455823 0)
(0.948739 -0.00276033 0)
(0.948173 -0.000746376 0)
(0.947446 0.000887887 0)
(0.946091 0.00204677 0)
(0.943936 0.00341278 0)
(0.940857 0.00508067 0)
(0.938575 0.0066386 0)
(0.937111 0.00837547 0)
(0.937005 0.0108902 0)
(0.937178 0.0132704 0)
(0.935976 0.0150602 0)
(0.933812 0.0167544 0)
(0.930131 0.0186237 0)
(0.926856 0.02015 0)
(0.924642 0.0216023 0)
(0.92327 0.0232974 0)
(0.923105 0.0256096 0)
(0.92278 0.0277836 0)
(0.921463 0.0294658 0)
(0.919265 0.0310945 0)
(0.915864 0.0327354 0)
(0.912947 0.0340183 0)
(0.910844 0.0354357 0)
(0.909783 0.0376474 0)
(0.908872 0.0397645 0)
(0.907134 0.0412262 0)
(0.904398 0.042672 0)
(0.900659 0.0438253 0)
(0.897662 0.0446293 0)
(0.895241 0.0456189 0)
(0.893852 0.0476356 0)
(0.893417 0.0504432 0)
(0.892166 0.0528447 0)
(0.889856 0.0544424 0)
(0.885536 0.0557801 0)
(0.879539 0.0559425 0)
(0.875345 0.0561269 0)
(0.872075 0.0566429 0)
(0.869304 0.0577356 0)
(0.868102 0.0598406 0)
(0.86706 0.0623785 0)
(0.864294 0.0643588 0)
(0.860217 0.0656903 0)
(0.852344 0.0656607 0)
(0.842991 0.0635694 0)
(0.836666 0.063348 0)
(0.831897 0.0637277 0)
(0.827861 0.0645676 0)
(0.824332 0.0642632 0)
(0.819064 0.0629693 0)
(0.816002 0.0613684 0)
(0.7055 0.046294 0)
(0.312013 0.046333 0)
(0.979565 -0.0894103 0)
(0.978949 -0.0869041 0)
(0.978966 -0.0857895 0)
(0.979975 -0.0837065 0)
(0.982285 -0.0812498 0)
(0.982831 -0.0791145 0)
(0.982449 -0.0773727 0)
(0.981395 -0.0755692 0)
(0.97948 -0.0735065 0)
(0.977577 -0.071629 0)
(0.976417 -0.0701669 0)
(0.9765 -0.0682232 0)
(0.978146 -0.065747 0)
(0.978667 -0.0637892 0)
(0.978054 -0.062081 0)
(0.976776 -0.060298 0)
(0.974716 -0.0582849 0)
(0.972953 -0.0565404 0)
(0.972145 -0.0549413 0)
(0.973061 -0.0524921 0)
(0.973933 -0.0502004 0)
(0.973532 -0.0484718 0)
(0.972456 -0.0468025 0)
(0.970388 -0.0448217 0)
(0.968448 -0.0430543 0)
(0.967348 -0.041588 0)
(0.967564 -0.0393732 0)
(0.968265 -0.037091 0)
(0.967704 -0.0353528 0)
(0.96642 -0.0336215 0)
(0.964396 -0.0315745 0)
(0.962646 -0.0298833 0)
(0.961755 -0.0282823 0)
(0.962181 -0.0260031 0)
(0.962142 -0.0240697 0)
(0.961164 -0.0224588 0)
(0.959241 -0.0204906 0)
(0.95698 -0.0186518 0)
(0.95552 -0.0172088 0)
(0.954918 -0.0152793 0)
(0.955413 -0.0127538 0)
(0.955145 -0.0105815 0)
(0.954036 -0.00878089 0)
(0.952024 -0.00703097 0)
(0.949433 -0.00552188 0)
(0.947307 -0.00410563 0)
(0.945815 -0.00246807 0)
(0.945274 -0.000307776 0)
(0.944734 0.001451 0)
(0.943514 0.00261073 0)
(0.94158 0.00397946 0)
(0.938686 0.00570535 0)
(0.936434 0.00723562 0)
(0.934961 0.00871562 0)
(0.934774 0.0109409 0)
(0.935088 0.0133377 0)
(0.934073 0.01528 0)
(0.932116 0.0170459 0)
(0.928728 0.0190321 0)
(0.925273 0.0206426 0)
(0.922919 0.0219838 0)
(0.921295 0.0233396 0)
(0.920736 0.0254707 0)
(0.920507 0.0277554 0)
(0.919382 0.0295383 0)
(0.917488 0.0310212 0)
(0.91449 0.0325248 0)
(0.911156 0.0338782 0)
(0.908599 0.0353998 0)
(0.907001 0.0376101 0)
(0.906315 0.0403057 0)
(0.904944 0.041926 0)
(0.902902 0.0427576 0)
(0.899638 0.0432606 0)
(0.896163 0.0435824 0)
(0.893285 0.0444509 0)
(0.890797 0.0461574 0)
(0.889465 0.0495129 0)
(0.888655 0.0532071 0)
(0.886896 0.0552927 0)
(0.884046 0.0560541 0)
(0.878754 0.0556316 0)
(0.873559 0.0547028 0)
(0.870067 0.0550575 0)
(0.867089 0.0558777 0)
(0.86503 0.057652 0)
(0.863834 0.0603746 0)
(0.861641 0.062666 0)
(0.858384 0.0641837 0)
(0.853274 0.0652929 0)
(0.844423 0.063917 0)
(0.83672 0.0615594 0)
(0.831715 0.0610677 0)
(0.827863 0.0610202 0)
(0.825177 0.0608137 0)
(0.821094 0.0600371 0)
(0.818947 0.0594108 0)
(0.714755 0.052151 0)
(0.332605 0.0470081 0)
(0.975364 -0.0875065 0)
(0.974598 -0.0849602 0)
(0.974443 -0.0838253 0)
(0.975189 -0.081856 0)
(0.97756 -0.0792509 0)
(0.978398 -0.0770194 0)
(0.978087 -0.0753466 0)
(0.977094 -0.0736791 0)
(0.975261 -0.071776 0)
(0.973301 -0.0699189 0)
(0.972092 -0.0684131 0)
(0.972007 -0.0665401 0)
(0.973731 -0.0640336 0)
(0.974436 -0.0620564 0)
(0.973914 -0.0604537 0)
(0.972745 -0.0587779 0)
(0.970734 -0.0567508 0)
(0.968976 -0.0549535 0)
(0.968132 -0.0533983 0)
(0.968969 -0.0510634 0)
(0.97 -0.0487956 0)
(0.969692 -0.0470464 0)
(0.968662 -0.0453504 0)
(0.966726 -0.0433386 0)
(0.964867 -0.0415885 0)
(0.963752 -0.040219 0)
(0.963864 -0.0382386 0)
(0.964631 -0.0360052 0)
(0.964202 -0.0341423 0)
(0.963006 -0.0323057 0)
(0.961115 -0.0303158 0)
(0.959426 -0.0287096 0)
(0.958482 -0.0271938 0)
(0.95883 -0.0250133 0)
(0.958915 -0.0230079 0)
(0.958061 -0.0212943 0)
(0.956379 -0.0194084 0)
(0.954261 -0.017618 0)
(0.952749 -0.0161161 0)
(0.951958 -0.0143278 0)
(0.952286 -0.0119749 0)
(0.952199 -0.00984284 0)
(0.951264 -0.00809052 0)
(0.94964 -0.00647712 0)
(0.947247 -0.00485946 0)
(0.944953 -0.00342246 0)
(0.94338 -0.00206768 0)
(0.94291 -3.01323e-05 0)
(0.94268 0.00193497 0)
(0.941589 0.0033108 0)
(0.939754 0.00475415 0)
(0.936961 0.00643165 0)
(0.934745 0.00787197 0)
(0.933278 0.00922145 0)
(0.933 0.0112478 0)
(0.933386 0.0135378 0)
(0.932556 0.0154947 0)
(0.930798 0.0172404 0)
(0.92772 0.019209 0)
(0.924179 0.0209238 0)
(0.921605 0.0223911 0)
(0.919808 0.0237975 0)
(0.919007 0.0257279 0)
(0.918933 0.027786 0)
(0.917933 0.0293694 0)
(0.916205 0.0306769 0)
(0.913451 0.0321478 0)
(0.909556 0.0338881 0)
(0.906469 0.0357408 0)
(0.904509 0.0377146 0)
(0.904091 0.0404569 0)
(0.903451 0.0422046 0)
(0.901708 0.0427489 0)
(0.899081 0.0430653 0)
(0.895029 0.0432804 0)
(0.891158 0.0443207 0)
(0.888137 0.0459573 0)
(0.88594 0.0480086 0)
(0.885467 0.0515688 0)
(0.884719 0.0545827 0)
(0.882489 0.0557967 0)
(0.878942 0.0561118 0)
(0.873164 0.0552111 0)
(0.868581 0.0547055 0)
(0.86547 0.0551056 0)
(0.862716 0.0560673 0)
(0.860918 0.0581885 0)
(0.859067 0.0609687 0)
(0.856205 0.0633595 0)
(0.852651 0.0646013 0)
(0.847043 0.0644469 0)
(0.838931 0.0618158 0)
(0.832509 0.0596065 0)
(0.82815 0.0586843 0)
(0.82496 0.0579775 0)
(0.821949 0.0573568 0)
(0.820457 0.0568537 0)
(0.72318 0.0561657 0)
(0.353653 0.0476181 0)
(0.97262 -0.0853972 0)
(0.971691 -0.0827766 0)
(0.971347 -0.0815888 0)
(0.97174 -0.079792 0)
(0.973971 -0.0772432 0)
(0.975158 -0.0749318 0)
(0.974939 -0.0732631 0)
(0.974028 -0.0716576 0)
(0.972272 -0.0698094 0)
(0.970213 -0.0679392 0)
(0.968934 -0.066439 0)
(0.968657 -0.0647298 0)
(0.970364 -0.0622957 0)
(0.971269 -0.0602549 0)
(0.970834 -0.0586367 0)
(0.969728 -0.0569623 0)
(0.967748 -0.0549627 0)
(0.965993 -0.0532295 0)
(0.965089 -0.0517973 0)
(0.965781 -0.0495783 0)
(0.966913 -0.0472519 0)
(0.966696 -0.0454353 0)
(0.965712 -0.0437364 0)
(0.963903 -0.0418447 0)
(0.962077 -0.0401821 0)
(0.960908 -0.038817 0)
(0.960868 -0.0368671 0)
(0.961643 -0.034561 0)
(0.961362 -0.0326736 0)
(0.960312 -0.0309437 0)
(0.958576 -0.0291175 0)
(0.956852 -0.0275207 0)
(0.955813 -0.0259813 0)
(0.956066 -0.0237422 0)
(0.956278 -0.0216895 0)
(0.95556 -0.0200455 0)
(0.954094 -0.0183169 0)
(0.952023 -0.0165003 0)
(0.950415 -0.0149245 0)
(0.949507 -0.0132259 0)
(0.949712 -0.0110458 0)
(0.949707 -0.00906357 0)
(0.948869 -0.00739393 0)
(0.947412 -0.00578872 0)
(0.945229 -0.00407703 0)
(0.942992 -0.00264379 0)
(0.941423 -0.00149467 0)
(0.940961 0.000379951 0)
(0.941042 0.00255592 0)
(0.940101 0.00410224 0)
(0.938321 0.00559373 0)
(0.935499 0.00718719 0)
(0.933227 0.00851503 0)
(0.931754 0.00974447 0)
(0.931464 0.0116885 0)
(0.931948 0.0139444 0)
(0.931264 0.0158351 0)
(0.929686 0.0174505 0)
(0.926874 0.0192395 0)
(0.923184 0.0209901 0)
(0.920408 0.0226138 0)
(0.918547 0.024126 0)
(0.917809 0.0260379 0)
(0.917782 0.027938 0)
(0.916789 0.0293757 0)
(0.915081 0.0304951 0)
(0.912266 0.0319193 0)
(0.907965 0.0338594 0)
(0.904585 0.0357152 0)
(0.902454 0.0373468 0)
(0.902104 0.0398388 0)
(0.902319 0.0420822 0)
(0.900797 0.0430072 0)
(0.898629 0.043595 0)
(0.894629 0.0440405 0)
(0.889966 0.04442 0)
(0.88654 0.0454646 0)
(0.883914 0.0468148 0)
(0.882531 0.0493253 0)
(0.882633 0.0528133 0)
(0.881404 0.0549263 0)
(0.878828 0.0559743 0)
(0.874474 0.0563101 0)
(0.868814 0.0549529 0)
(0.864615 0.0544435 0)
(0.861537 0.0547933 0)
(0.858678 0.0559396 0)
(0.856694 0.0583988 0)
(0.854627 0.0607983 0)
(0.85169 0.0624412 0)
(0.84782 0.0631556 0)
(0.841766 0.0625329 0)
(0.834947 0.05943 0)
(0.82947 0.0569695 0)
(0.825693 0.0556362 0)
(0.822671 0.0547128 0)
(0.821653 0.0544477 0)
(0.73068 0.0578712 0)
(0.375468 0.0476749 0)
(0.971021 -0.0834355 0)
(0.969962 -0.0807356 0)
(0.969445 -0.0794578 0)
(0.969563 -0.0777989 0)
(0.971483 -0.075405 0)
(0.972935 -0.0730559 0)
(0.972817 -0.0713419 0)
(0.971984 -0.0697384 0)
(0.970316 -0.0679135 0)
(0.968197 -0.0660362 0)
(0.966845 -0.0645516 0)
(0.966399 -0.0629908 0)
(0.967959 -0.0606404 0)
(0.969028 -0.0585061 0)
(0.968685 -0.0568123 0)
(0.967645 -0.055134 0)
(0.965731 -0.0532337 0)
(0.963937 -0.0515867 0)
(0.962921 -0.0502444 0)
(0.963288 -0.0481403 0)
(0.964495 -0.0456918 0)
(0.964431 -0.043822 0)
(0.963545 -0.0422154 0)
(0.961913 -0.0404897 0)
(0.960038 -0.0388469 0)
(0.958753 -0.0374029 0)
(0.958427 -0.035486 0)
(0.959197 -0.0330869 0)
(0.9591 -0.0312434 0)
(0.958206 -0.0297164 0)
(0.956646 -0.0280215 0)
(0.954847 -0.0263192 0)
(0.953681 -0.0247424 0)
(0.953797 -0.0224814 0)
(0.954156 -0.0203838 0)
(0.953528 -0.0188472 0)
(0.95218 -0.0172315 0)
(0.950119 -0.0153637 0)
(0.948435 -0.0137749 0)
(0.947451 -0.0121906 0)
(0.947562 -0.0101432 0)
(0.947532 -0.0082533 0)
(0.946719 -0.00660187 0)
(0.945347 -0.00497892 0)
(0.943414 -0.00334426 0)
(0.941331 -0.00197026 0)
(0.939722 -0.000875082 0)
(0.939021 0.000833047 0)
(0.939299 0.00326874 0)
(0.938627 0.00502395 0)
(0.937067 0.00640363 0)
(0.934284 0.00786639 0)
(0.931806 0.0091409 0)
(0.930252 0.0102804 0)
(0.929831 0.0121156 0)
(0.930547 0.0144794 0)
(0.930086 0.01629 0)
(0.928682 0.0177331 0)
(0.92608 0.0193539 0)
(0.922237 0.02106 0)
(0.919335 0.0226206 0)
(0.917454 0.0240387 0)
(0.91677 0.0260502 0)
(0.916868 0.0280923 0)
(0.915939 0.0295516 0)
(0.914243 0.0306503 0)
(0.911254 0.032081 0)
(0.906678 0.0337221 0)
(0.903316 0.0351416 0)
(0.901098 0.0363246 0)
(0.90034 0.038465 0)
(0.901081 0.0414019 0)
(0.900195 0.0434219 0)
(0.898281 0.0443882 0)
(0.895198 0.0449992 0)
(0.890115 0.0445932 0)
(0.885811 0.0447444 0)
(0.882757 0.0458514 0)
(0.880344 0.0473404 0)
(0.879701 0.050634 0)
(0.879646 0.0542632 0)
(0.877885 0.0558472 0)
(0.875186 0.0561459 0)
(0.870666 0.0556922 0)
(0.864952 0.0540658 0)
(0.860458 0.0538568 0)
(0.857061 0.0546799 0)
(0.854201 0.0561668 0)
(0.852204 0.0587993 0)
(0.849918 0.0609278 0)
(0.846827 0.061919 0)
(0.843217 0.0617042 0)
(0.837964 0.0601526 0)
(0.831713 0.0569352 0)
(0.826768 0.0545274 0)
(0.823076 0.0534554 0)
(0.822006 0.0528812 0)
(0.737896 0.057641 0)
(0.397949 0.0475313 0)
(0.969941 -0.0815918 0)
(0.968772 -0.0788213 0)
(0.968078 -0.0775292 0)
(0.967964 -0.0760073 0)
(0.969535 -0.0737601 0)
(0.971199 -0.0713415 0)
(0.971217 -0.0695549 0)
(0.970468 -0.067943 0)
(0.968894 -0.0661678 0)
(0.966731 -0.064337 0)
(0.965288 -0.0628772 0)
(0.964684 -0.061407 0)
(0.965997 -0.0590723 0)
(0.967206 -0.0568172 0)
(0.966985 -0.0550635 0)
(0.966054 -0.0534556 0)
(0.964279 -0.051709 0)
(0.962383 -0.0500859 0)
(0.961223 -0.0487045 0)
(0.961161 -0.0467473 0)
(0.962395 -0.0442433 0)
(0.962555 -0.0423578 0)
(0.961795 -0.0408436 0)
(0.96038 -0.0392251 0)
(0.958451 -0.0374798 0)
(0.957014 -0.0359267 0)
(0.956416 -0.0341876 0)
(0.957149 -0.0318513 0)
(0.957246 -0.0300145 0)
(0.956447 -0.0285625 0)
(0.954983 -0.0268546 0)
(0.95313 -0.0250219 0)
(0.951861 -0.0235245 0)
(0.951811 -0.0214349 0)
(0.952295 -0.0192758 0)
(0.951725 -0.0176923 0)
(0.950407 -0.0160579 0)
(0.948377 -0.0142147 0)
(0.946685 -0.0127244 0)
(0.945634 -0.0112704 0)
(0.945647 -0.0092406 0)
(0.945613 -0.00727593 0)
(0.944813 -0.00564399 0)
(0.943508 -0.00415399 0)
(0.941791 -0.00272817 0)
(0.939847 -0.00137991 0)
(0.938172 -0.000105329 0)
(0.937139 0.00145464 0)
(0.937412 0.0038711 0)
(0.937107 0.00581053 0)
(0.935792 0.00710323 0)
(0.933235 0.00851329 0)
(0.930482 0.00977566 0)
(0.928778 0.0108943 0)
(0.928052 0.0124787 0)
(0.928931 0.0149567 0)
(0.928852 0.0169285 0)
(0.927612 0.0182641 0)
(0.925253 0.0197234 0)
(0.921415 0.0211917 0)
(0.91838 0.0224988 0)
(0.91642 0.023763 0)
(0.915575 0.0257287 0)
(0.915967 0.0283538 0)
(0.915223 0.0301621 0)
(0.913628 0.0313472 0)
(0.910838 0.0325543 0)
(0.906368 0.0334346 0)
(0.90268 0.034276 0)
(0.900196 0.0353992 0)
(0.898445 0.037007 0)
(0.898821 0.0404496 0)
(0.899152 0.0433934 0)
(0.897683 0.0448171 0)
(0.895484 0.0454927 0)
(0.891301 0.045607 0)
(0.885557 0.045033 0)
(0.881538 0.0457129 0)
(0.878873 0.0468724 0)
(0.877178 0.0485493 0)
(0.877679 0.0516437 0)
(0.877192 0.0541664 0)
(0.874909 0.0554065 0)
(0.871716 0.0559397 0)
(0.86624 0.0553925 0)
(0.860142 0.0541757 0)
(0.855862 0.0542989 0)
(0.85279 0.054878 0)
(0.850306 0.0560275 0)
(0.848726 0.0580838 0)
(0.84651 0.0592284 0)
(0.843271 0.0594932 0)
(0.83945 0.0591682 0)
(0.834205 0.0579442 0)
(0.828705 0.0555135 0)
(0.823433 0.0535885 0)
(0.821751 0.0512105 0)
(0.744615 0.0561833 0)
(0.420943 0.0470516 0)
(0.968459 -0.0795785 0)
(0.967313 -0.0768515 0)
(0.966507 -0.075631 0)
(0.966228 -0.0742168 0)
(0.967427 -0.0720941 0)
(0.969275 -0.0695878 0)
(0.969464 -0.067735 0)
(0.968812 -0.0661543 0)
(0.967389 -0.0644912 0)
(0.965233 -0.0627177 0)
(0.963678 -0.0612158 0)
(0.962939 -0.0597778 0)
(0.963985 -0.0574753 0)
(0.965389 -0.0551543 0)
(0.965321 -0.0534219 0)
(0.964517 -0.0519074 0)
(0.962944 -0.0502429 0)
(0.960923 -0.048512 0)
(0.959594 -0.0470671 0)
(0.959209 -0.0453636 0)
(0.960436 -0.0429629 0)
(0.960874 -0.0410071 0)
(0.960245 -0.0394521 0)
(0.958936 -0.0377546 0)
(0.956961 -0.0359105 0)
(0.955426 -0.0344521 0)
(0.954664 -0.033004 0)
(0.955294 -0.0308619 0)
(0.955532 -0.0289159 0)
(0.954795 -0.0273088 0)
(0.95333 -0.0254854 0)
(0.951501 -0.0236979 0)
(0.950221 -0.0223517 0)
(0.950023 -0.0204968 0)
(0.950574 -0.0182575 0)
(0.950089 -0.0165219 0)
(0.9488 -0.0148714 0)
(0.946824 -0.0131604 0)
(0.945095 -0.0117483 0)
(0.943923 -0.0103669 0)
(0.943663 -0.00837607 0)
(0.943693 -0.00631571 0)
(0.943024 -0.00473902 0)
(0.941855 -0.00341145 0)
(0.940314 -0.00209564 0)
(0.938383 -0.000593757 0)
(0.936615 0.00086882 0)
(0.935453 0.00225549 0)
(0.935607 0.00436819 0)
(0.935572 0.00633835 0)
(0.93445 0.00773688 0)
(0.932224 0.00922327 0)
(0.92926 0.0105414 0)
(0.927333 0.0116286 0)
(0.926259 0.0128719 0)
(0.926948 0.0152474 0)
(0.927344 0.017476 0)
(0.926325 0.018907 0)
(0.924432 0.0201825 0)
(0.920873 0.0213711 0)
(0.917512 0.022407 0)
(0.915327 0.0236037 0)
(0.913984 0.0252611 0)
(0.914455 0.0281573 0)
(0.914475 0.0306953 0)
(0.913088 0.0320706 0)
(0.91098 0.033074 0)
(0.906904 0.0335569 0)
(0.902398 0.0339084 0)
(0.899219 0.0350481 0)
(0.897061 0.0363634 0)
(0.89629 0.0386102 0)
(0.897411 0.0421472 0)
(0.896859 0.0444388 0)
(0.894935 0.0455546 0)
(0.891862 0.046397 0)
(0.885964 0.0463281 0)
(0.880911 0.0461205 0)
(0.878152 0.046524 0)
(0.876027 0.046912 0)
(0.875206 0.0486951 0)
(0.87546 0.0519291 0)
(0.873992 0.0539704 0)
(0.871369 0.0552276 0)
(0.867431 0.0561753 0)
(0.861373 0.0554091 0)
(0.85581 0.0541688 0)
(0.852208 0.0541284 0)
(0.849455 0.0542992 0)
(0.847467 0.0548409 0)
(0.845745 0.05602 0)
(0.842924 0.0569679 0)
(0.839526 0.0576499 0)
(0.835436 0.0575843 0)
(0.830908 0.0564882 0)
(0.825646 0.0545408 0)
(0.822565 0.0509385 0)
(0.75014 0.0538647 0)
(0.444166 0.0464728 0)
(0.967191 -0.0777491 0)
(0.966111 -0.0751537 0)
(0.965121 -0.0738505 0)
(0.96468 -0.0724013 0)
(0.96534 -0.0703617 0)
(0.96731 -0.067794 0)
(0.967715 -0.0659352 0)
(0.96718 -0.0644224 0)
(0.965966 -0.0628923 0)
(0.963851 -0.0611271 0)
(0.962121 -0.0595118 0)
(0.961229 -0.0581162 0)
(0.961919 -0.0559692 0)
(0.963499 -0.0536232 0)
(0.96361 -0.0518648 0)
(0.962904 -0.0503423 0)
(0.961443 -0.048631 0)
(0.959401 -0.0468529 0)
(0.957984 -0.0454898 0)
(0.957412 -0.0440144 0)
(0.958498 -0.0417285 0)
(0.959083 -0.0396147 0)
(0.958534 -0.0379088 0)
(0.957286 -0.0361846 0)
(0.955427 -0.0344451 0)
(0.953926 -0.0331187 0)
(0.953075 -0.0318445 0)
(0.953542 -0.0297689 0)
(0.953862 -0.0276622 0)
(0.953183 -0.0259615 0)
(0.951779 -0.0242157 0)
(0.949988 -0.0225578 0)
(0.94865 -0.0212257 0)
(0.948196 -0.0195031 0)
(0.948665 -0.017267 0)
(0.94834 -0.0154355 0)
(0.947235 -0.013857 0)
(0.945464 -0.012243 0)
(0.943634 -0.010744 0)
(0.942306 -0.00933077 0)
(0.941754 -0.00752319 0)
(0.941893 -0.00549005 0)
(0.941417 -0.00394176 0)
(0.940349 -0.00264518 0)
(0.9388 -0.0012332 0)
(0.936741 0.00032633 0)
(0.934939 0.00167994 0)
(0.933746 0.00292881 0)
(0.933858 0.00489569 0)
(0.933972 0.00691948 0)
(0.933014 0.00844934 0)
(0.931126 0.00994872 0)
(0.928178 0.0113139 0)
(0.925964 0.0123842 0)
(0.924597 0.0133577 0)
(0.924677 0.0153596 0)
(0.925567 0.0179403 0)
(0.924926 0.0196075 0)
(0.923437 0.020784 0)
(0.920484 0.0218968 0)
(0.916777 0.0226833 0)
(0.91427 0.0236846 0)
(0.912566 0.0248888 0)
(0.912203 0.0272999 0)
(0.913035 0.0304935 0)
(0.912312 0.032638 0)
(0.910593 0.0337109 0)
(0.907622 0.034512 0)
(0.902602 0.0345244 0)
(0.898816 0.0349494 0)
(0.896443 0.03576 0)
(0.894733 0.0368329 0)
(0.894923 0.0396706 0)
(0.895417 0.0431385 0)
(0.894039 0.0451338 0)
(0.891517 0.0467979 0)
(0.887235 0.0477917 0)
(0.881808 0.0466416 0)
(0.878173 0.0458532 0)
(0.875708 0.0459823 0)
(0.873612 0.0466832 0)
(0.872723 0.0492105 0)
(0.871968 0.052799 0)
(0.869935 0.0550435 0)
(0.867241 0.0560646 0)
(0.863023 0.0563688 0)
(0.85743 0.0548149 0)
(0.852911 0.0530921 0)
(0.849818 0.0524616 0)
(0.847068 0.0524516 0)
(0.844579 0.0532641 0)
(0.841858 0.0547318 0)
(0.838751 0.0561911 0)
(0.835595 0.0569502 0)
(0.832346 0.0564938 0)
(0.828099 0.055304 0)
(0.82509 0.0515805 0)
(0.755994 0.0517545 0)
(0.4676 0.0458998 0)
(0.965785 -0.0759829 0)
(0.964822 -0.073413 0)
(0.963638 -0.0719501 0)
(0.963082 -0.0704778 0)
(0.96333 -0.068654 0)
(0.965415 -0.0661029 0)
(0.966099 -0.0642031 0)
(0.965668 -0.06271 0)
(0.964551 -0.0611942 0)
(0.962433 -0.0593871 0)
(0.960563 -0.0577888 0)
(0.959578 -0.0565086 0)
(0.959983 -0.0545719 0)
(0.961691 -0.0521352 0)
(0.961981 -0.0502525 0)
(0.961326 -0.048699 0)
(0.959918 -0.0470356 0)
(0.957926 -0.0453647 0)
(0.956452 -0.0440439 0)
(0.955717 -0.0426566 0)
(0.956578 -0.0403312 0)
(0.957366 -0.0380642 0)
(0.956945 -0.0363857 0)
(0.955864 -0.0348574 0)
(0.954156 -0.0332935 0)
(0.952531 -0.0318802 0)
(0.951493 -0.0305053 0)
(0.951532 -0.0284693 0)
(0.951937 -0.0263624 0)
(0.951444 -0.0247304 0)
(0.950316 -0.0231762 0)
(0.948668 -0.0215378 0)
(0.947224 -0.0200332 0)
(0.94652 -0.0183433 0)
(0.946876 -0.0161817 0)
(0.946697 -0.0144475 0)
(0.945736 -0.012978 0)
(0.944115 -0.0113108 0)
(0.942208 -0.0096395 0)
(0.940775 -0.00825326 0)
(0.940051 -0.00669328 0)
(0.940134 -0.00482081 0)
(0.939773 -0.00317117 0)
(0.938783 -0.00170221 0)
(0.937296 -0.00024237 0)
(0.935333 0.00116511 0)
(0.933489 0.00237907 0)
(0.932134 0.00352599 0)
(0.931902 0.00546331 0)
(0.93221 0.00769779 0)
(0.931458 0.00926314 0)
(0.929937 0.0106177 0)
(0.927262 0.011935 0)
(0.924753 0.0129935 0)
(0.923125 0.0139433 0)
(0.922375 0.0154073 0)
(0.923364 0.0181718 0)
(0.923415 0.0204114 0)
(0.922198 0.0216153 0)
(0.920017 0.0226848 0)
(0.916317 0.0232944 0)
(0.913325 0.0239378 0)
(0.911384 0.0248823 0)
(0.91015 0.0263375 0)
(0.910654 0.029432 0)
(0.911048 0.0324043 0)
(0.909816 0.0342215 0)
(0.907707 0.035406 0)
(0.903669 0.0357997 0)
(0.899174 0.0351924 0)
(0.896281 0.0353608 0)
(0.89412 0.0360357 0)
(0.892566 0.037544 0)
(0.892615 0.0412324 0)
(0.892206 0.0451061 0)
(0.890549 0.0471582 0)
(0.888088 0.0479414 0)
(0.883922 0.0477275 0)
(0.879155 0.0463302 0)
(0.875695 0.0459371 0)
(0.873048 0.0463841 0)
(0.870808 0.047425 0)
(0.869586 0.0499712 0)
(0.868407 0.0530773 0)
(0.866227 0.0550289 0)
(0.863472 0.0558949 0)
(0.85965 0.0557882 0)
(0.854867 0.0539758 0)
(0.850672 0.0521972 0)
(0.84713 0.0514563 0)
(0.843887 0.0515299 0)
(0.840761 0.0524896 0)
(0.837967 0.0539615 0)
(0.83544 0.0551051 0)
(0.832848 0.0553377 0)
(0.829683 0.0546156 0)
(0.827446 0.0526487 0)
(0.762772 0.0501763 0)
(0.49151 0.0452828 0)
(0.964447 -0.0742401 0)
(0.963433 -0.0715909 0)
(0.962135 -0.0700503 0)
(0.961494 -0.0686052 0)
(0.961442 -0.0669858 0)
(0.963453 -0.0645332 0)
(0.964409 -0.0624946 0)
(0.964094 -0.0609089 0)
(0.963068 -0.0593806 0)
(0.961063 -0.0576405 0)
(0.95912 -0.056136 0)
(0.958038 -0.054929 0)
(0.958037 -0.053187 0)
(0.95968 -0.0506661 0)
(0.960219 -0.0486458 0)
(0.959679 -0.0470947 0)
(0.958508 -0.0456028 0)
(0.956665 -0.044045 0)
(0.955023 -0.0425894 0)
(0.954072 -0.0411947 0)
(0.954465 -0.0390189 0)
(0.955498 -0.0367078 0)
(0.955286 -0.0350625 0)
(0.954385 -0.0336527 0)
(0.952874 -0.0320905 0)
(0.951118 -0.0304507 0)
(0.949926 -0.0290169 0)
(0.949766 -0.0271345 0)
(0.950283 -0.0251237 0)
(0.949911 -0.0236063 0)
(0.948905 -0.0221152 0)
(0.947298 -0.0203246 0)
(0.945749 -0.0187284 0)
(0.944872 -0.0172105 0)
(0.945098 -0.0152234 0)
(0.944984 -0.0135311 0)
(0.944106 -0.0120163 0)
(0.942556 -0.0102728 0)
(0.940706 -0.00863977 0)
(0.939273 -0.00735777 0)
(0.938508 -0.00587363 0)
(0.938533 -0.00399037 0)
(0.93815 -0.00226316 0)
(0.937186 -0.000738991 0)
(0.935839 0.000624745 0)
(0.934136 0.00186378 0)
(0.932199 0.00305305 0)
(0.930616 0.00426231 0)
(0.929866 0.0059784 0)
(0.930394 0.00848348 0)
(0.929988 0.0101501 0)
(0.928736 0.0113068 0)
(0.926462 0.0125092 0)
(0.923694 0.0135144 0)
(0.921758 0.0145179 0)
(0.920446 0.0155839 0)
(0.92068 0.017896 0)
(0.921567 0.0207843 0)
(0.920842 0.0225359 0)
(0.919269 0.0235866 0)
(0.91623 0.0242824 0)
(0.912669 0.0244889 0)
(0.910311 0.025152 0)
(0.908669 0.0260925 0)
(0.907916 0.028069 0)
(0.908701 0.0316077 0)