/*--------------------------------*- C++ -*----------------------------------*\
  =========                 |
  \\      /  F ield         | OpenFOAM: The Open Source CFD Toolbox
   \\    /   O peration     | Website:  https://openfoam.org
    \\  /    A nd           | Version:  12
     \\/     M anipulation  |
\*---------------------------------------------------------------------------*/
FoamFile
{
    format      ascii;
    class       volScalarField;
    location    "20.5";
    object      T;
}
// * * * * * * * * * * * * * * * * * * * * * * * * * * * * * * * * * * * * * //

dimensions      [0 0 0 1 0 0 0];

internalField   nonuniform List<scalar> 
9801
(
0.805385
0.806399
0.809123
0.815676
0.820747
0.822407
0.822817
0.822081
0.819488
0.818509
0.818848
0.819571
0.820753
0.823267
0.830012
0.836275
0.83869
0.839513
0.839714
0.838235
0.835701
0.835415
0.835944
0.836927
0.83847
0.84193
0.848524
0.853522
0.8556
0.856535
0.856873
0.854887
0.852509
0.852561
0.853307
0.854478
0.856243
0.860102
0.866991
0.87182
0.873808
0.874833
0.875139
0.872697
0.870028
0.87006
0.870881
0.872125
0.874008
0.879076
0.886916
0.891359
0.893216
0.894378
0.893969
0.890489
0.888577
0.888872
0.889814
0.891261
0.894617
0.902614
0.90939
0.912396
0.913785
0.914795
0.912259
0.907914
0.90712
0.908254
0.910005
0.912985
0.921063
0.930167
0.934736
0.936918
0.938356
0.937164
0.931524
0.927803
0.928461
0.931003
0.935523
0.948106
0.959509
0.96499
0.968038
0.970446
0.969729
0.962096
0.955259
0.955367
0.96017
0.974377
0.999695
1.02061
1.03031
1.13251
1.54231
0.810812
0.815009
0.816232
0.81743
0.819869
0.822441
0.824151
0.824491
0.82331
0.823114
0.823559
0.824386
0.82582
0.829766
0.833831
0.83683
0.839206
0.840746
0.84158
0.840528
0.839631
0.839806
0.840467
0.841428
0.84272
0.846723
0.851945
0.854976
0.856875
0.858116
0.858549
0.856957
0.856156
0.856554
0.857464
0.85862
0.860091
0.864219
0.869929
0.873295
0.875192
0.876459
0.876834
0.874625
0.873173
0.873563
0.874607
0.875878
0.877594
0.882668
0.889274
0.892984
0.895029
0.896419
0.896129
0.892507
0.890846
0.891424
0.892716
0.894272
0.897282
0.905052
0.911816
0.914918
0.916657
0.917569
0.915045
0.910565
0.909898
0.91119
0.913
0.916003
0.92421
0.933071
0.937524
0.939878
0.941792
0.941788
0.935575
0.931711
0.932728
0.935291
0.939573
0.949832
0.960969
0.967463
0.97159
0.975219
0.976566
0.969574
0.962436
0.963105
0.968225
0.977297
0.995797
1.01519
1.02619
1.13484
1.56555
0.815331
0.821074
0.822924
0.823638
0.824336
0.825914
0.8272
0.826675
0.826351
0.827094
0.828297
0.829667
0.832367
0.837096
0.8399
0.841147
0.842404
0.843757
0.844445
0.843715
0.843807
0.84474
0.845966
0.847257
0.848925
0.853082
0.857182
0.859052
0.860242
0.861288
0.861913
0.861044
0.861204
0.862232
0.863444
0.864753
0.866294
0.870273
0.875143
0.877564
0.878909
0.880003
0.880488
0.878951
0.87859
0.879626
0.88103
0.882562
0.884471
0.889481
0.89512
0.897927
0.899526
0.90072
0.900521
0.897643
0.896705
0.897776
0.899474
0.901356
0.904421
0.911518
0.917587
0.920583
0.922353
0.92371
0.921978
0.917961
0.917309
0.918875
0.921031
0.923851
0.930856
0.939839
0.945067
0.948088
0.950518
0.951469
0.946181
0.941806
0.942501
0.945492
0.949288
0.957274
0.970475
0.979728
0.984723
0.988778
0.991171
0.986603
0.98104
0.980462
0.985139
0.992843
1.00794
1.02889
1.04159
1.15777
1.59399
0.822783
0.829059
0.830797
0.831612
0.831667
0.830863
0.830195
0.830788
0.832178
0.833813
0.835571
0.837645
0.840917
0.844594
0.84665
0.847668
0.848327
0.849118
0.849704
0.84989
0.850969
0.852369
0.853766
0.855073
0.856703
0.860079
0.863324
0.865379
0.866797
0.868006
0.868943
0.868598
0.86913
0.870268
0.871432
0.872645
0.874047
0.877353
0.881739
0.884504
0.886283
0.887701
0.888703
0.887735
0.887701
0.888797
0.890028
0.891391
0.893123
0.897317
0.902328
0.905477
0.90759
0.90927
0.910163
0.908151
0.907305
0.90828
0.909831
0.911652
0.914294
0.92054
0.926804
0.930342
0.932654
0.934686
0.934717
0.930823
0.929344
0.930752
0.933039
0.935782
0.941399
0.950987
0.957433
0.961001
0.963804
0.966036
0.963542
0.957886
0.956696
0.959659
0.963786
0.969634
0.981618
0.993391
1.00025
1.00507
1.00953
1.0085
1.00344
1.00072
1.00316
1.00976
1.02017
1.03816
1.04909
1.18404
1.62188
0.830649
0.837004
0.838426
0.839242
0.839874
0.839356
0.837907
0.838281
0.839767
0.841586
0.843427
0.84557
0.848735
0.852043
0.854251
0.855747
0.856968
0.858084
0.85878
0.858523
0.859259
0.860499
0.861724
0.862812
0.864098
0.867359
0.871791
0.87465
0.876469
0.87799
0.879299
0.878845
0.878195
0.878732
0.879733
0.880916
0.882289
0.8856
0.891094
0.894795
0.896975
0.898715
0.900195
0.899495
0.897924
0.898011
0.899011
0.900371
0.902049
0.906208
0.912564
0.916817
0.919341
0.921329
0.922969
0.92174
0.919238
0.919052
0.920335
0.922163
0.924468
0.930157
0.937958
0.94271
0.945526
0.947886
0.949549
0.946801
0.942988
0.942796
0.94485
0.94762
0.951759
0.961127
0.969957
0.974817
0.978152
0.98122
0.981968
0.976041
0.971358
0.972068
0.976222
0.981212
0.990302
1.00378
1.01374
1.02002
1.02513
1.02776
1.02384
1.01943
1.01747
1.02009
1.02737
1.04106
1.05047
1.19917
1.63986
0.837482
0.844535
0.846707
0.84755
0.848403
0.849127
0.848586
0.848134
0.848632
0.849889
0.851262
0.852678
0.855311
0.860062
0.8636
0.865459
0.866914
0.868294
0.869557
0.869284
0.86839
0.868533
0.869373
0.870556
0.872055
0.875781
0.88191
0.885682
0.887602
0.889134
0.890622
0.890498
0.888008
0.886982
0.887645
0.889068
0.89083
0.894503
0.901533
0.906542
0.908937
0.910634
0.912227
0.91177
0.908295
0.906696
0.907486
0.909197
0.911201
0.915373
0.923263
0.928869
0.931649
0.933603
0.935419
0.935114
0.930951
0.92853
0.929355
0.931449
0.934008
0.939164
0.948271
0.954556
0.957756
0.960082
0.962286
0.961759
0.956252
0.953186
0.954199
0.956931
0.960435
0.9682
0.9793
0.986323
0.990077
0.993112
0.99531
0.991722
0.984981
0.982607
0.984596
0.988872
0.994936
1.00637
1.01836
1.02637
1.03225
1.03745
1.03809
1.03376
1.02907
1.02749
1.02918
1.03803
1.04798
1.2084
1.64975
0.842992
0.849421
0.854124
0.856337
0.857689
0.858922
0.859421
0.858354
0.857923
0.857834
0.858293
0.859207
0.860772
0.865591
0.871963
0.875457
0.877241
0.878585
0.879862
0.879721
0.877337
0.875837
0.876137
0.877445
0.879128
0.88257
0.889858
0.895317
0.897795
0.899392
0.900694
0.900667
0.89747
0.894781
0.894895
0.896269
0.898179
0.901577
0.909076
0.915696
0.918692
0.920479
0.921904
0.921888
0.918392
0.915152
0.914938
0.916537
0.918772
0.922646
0.930707
0.937804
0.941123
0.943076
0.944703
0.945232
0.94162
0.937384
0.936646
0.93854
0.94112
0.945477
0.954536
0.962604
0.966499
0.968744
0.970776
0.971695
0.967263
0.962101
0.96115
0.963369
0.966479
0.971747
0.982625
0.992361
0.99762
1.00092
1.00375
1.00378
0.997358
0.991821
0.990755
0.993229
0.997543
1.00517
1.01739
1.02793
1.03519
1.04065
1.04473
1.04367
1.03956
1.034
1.03079
1.03417
1.042
1.21249
1.65566
0.848875
0.851798
0.858373
0.863158
0.86548
0.866966
0.868187
0.868316
0.866268
0.864613
0.864236
0.864973
0.866145
0.869098
0.876844
0.882821
0.885282
0.886843
0.888081
0.88824
0.885319
0.882339
0.882346
0.883457
0.884936
0.887776
0.894773
0.901668
0.904968
0.906755
0.907926
0.908294
0.905991
0.902465
0.901843
0.902854
0.904362
0.906858
0.913419
0.921025
0.924914
0.92692
0.928282
0.929075
0.9273
0.923152
0.921976
0.922966
0.924792
0.927633
0.934598
0.942677
0.946832
0.948952
0.950573
0.951848
0.950388
0.945335
0.943456
0.944531
0.946649
0.949443
0.956573
0.966133
0.971424
0.974096
0.976129
0.977856
0.976239
0.970039
0.967145
0.96799
0.970603
0.973845
0.981342
0.993228
1.00111
1.00529
1.00848
1.0109
1.00841
1.00074
0.996681
0.996923
0.999811
1.00436
1.01302
1.02453
1.03342
1.03977
1.04494
1.04794
1.04705
1.04279
1.0354
1.03158
1.03204
1.21279
1.65884
0.854349
0.856073
0.86149
0.867137
0.870375
0.872313
0.873781
0.874869
0.873584
0.87004
0.869649
0.870589
0.871837
0.874218
0.880487
0.886972
0.890242
0.892012
0.893098
0.893431
0.891407
0.888607
0.888467
0.889527
0.890911
0.893213
0.898981
0.905164
0.908527
0.910447
0.911748
0.91272
0.912283
0.909113
0.907946
0.908813
0.910224
0.912012
0.916707
0.923762
0.927984
0.930299
0.93199
0.933433
0.933735
0.930249
0.927914
0.928368
0.929818
0.931656
0.935945
0.944105
0.949526
0.952184
0.95404
0.955747
0.956575
0.952908
0.949454
0.949215
0.950621
0.952597
0.956284
0.965539
0.973532
0.977327
0.979641
0.981742
0.982786
0.978319
0.972983
0.971731
0.973104
0.975737
0.979478
0.989276
1.00072
1.00726
1.01095
1.01389
1.01557
1.01152
1.00476
1.00176
1.00225
1.00495
1.00969
1.01869
1.0291
1.03691
1.04282
1.0478
1.04979
1.04869
1.04344
1.03467
1.02516
1.20964
1.66089
0.859202
0.861521
0.866622
0.871239
0.873932
0.875823
0.877358
0.878492
0.877034
0.874774
0.874816
0.875802
0.877043
0.879475
0.885108
0.890192
0.893017
0.894675
0.895687
0.896409
0.895691
0.893684
0.893553
0.894633
0.896024
0.897934
0.90258
0.907743
0.91056
0.912347
0.91385
0.915255
0.916262
0.914415
0.912792
0.913346
0.914629
0.91612
0.91888
0.925126
0.929998
0.932684
0.934675
0.936352
0.937749
0.936277
0.933025
0.932416
0.933144
0.934536
0.936678
0.943239
0.95093
0.955043
0.957326
0.959105
0.960704
0.95952
0.954618
0.95246
0.952791
0.954442
0.956676
0.962631
0.9731
0.979624
0.98298
0.985252
0.987145
0.986199
0.979665
0.975496
0.975194
0.976837
0.979442
0.983892
0.99499
1.00601
1.01189
1.01555
1.01879
1.02052
1.01592
1.00881
1.00567
1.00624
1.00909
1.01415
1.02334
1.03278
1.03966
1.04522
1.04979
1.05068
1.04861
1.04032
1.02629
1.20345
1.66258
0.863113
0.86701
0.871766
0.875173
0.877082
0.878527
0.879766
0.880226
0.878763
0.878095
0.878841
0.880101
0.881496
0.884109
0.889296
0.892895
0.894747
0.896092
0.897358
0.898623
0.899122
0.897741
0.89765
0.8986
0.89984
0.901183
0.904052
0.909298
0.912707
0.914766
0.916561
0.918134
0.919543
0.918915
0.916883
0.916576
0.917188
0.91825
0.919898
0.925169
0.931851
0.935509
0.93765
0.939345
0.94083
0.941075
0.937503
0.934994
0.934907
0.936057
0.937754
0.941847
0.950942
0.957331
0.960406
0.962236
0.963765
0.964452
0.960171
0.955405
0.954568
0.955782
0.957781
0.960661
0.969354
0.979914
0.985239
0.987961
0.989983
0.991554
0.988706
0.981628
0.978093
0.977871
0.979423
0.982179
0.98796
1.00032
1.01117
1.01712
1.02066
1.02349
1.02385
1.01904
1.01246
1.00924
1.00974
1.01274
1.01829
1.02789
1.0366
1.04261
1.04751
1.05041
1.0506
1.04539
1.03245
1.198
1.66444
0.865781
0.871403
0.876106
0.878132
0.879621
0.880821
0.881696
0.881877
0.881025
0.880957
0.882032
0.883391
0.884724
0.886638
0.890874
0.894495
0.896521
0.89827
0.899894
0.901286
0.902355
0.901639
0.900988
0.901231
0.901817
0.902649
0.904255
0.90952
0.915081
0.917924
0.919692
0.921192
0.9226
0.923015
0.92039
0.918428
0.918318
0.919328
0.92088
0.924817
0.932839
0.938188
0.940677
0.942227
0.943605
0.944671
0.942061
0.937715
0.936627
0.937411
0.939007
0.941391
0.948912
0.958071
0.962457
0.964626
0.966184
0.967611
0.96644
0.96036
0.957199
0.95727
0.958856
0.960972
0.965124
0.97602
0.985451
0.98977
0.99252
0.994809
0.996056
0.990887
0.983271
0.980482
0.980982
0.983016
0.985996
0.992179
1.00462
1.01488
1.0203
1.0237
1.02654
1.027
1.02238
1.01576
1.01245
1.01294
1.01608
1.02214
1.03182
1.03964
1.04503
1.04907
1.05061
1.04862
1.03972
1.19473
1.66624
0.867513
0.872998
0.878372
0.881033
0.882032
0.88275
0.883563
0.88417
0.883867
0.884124
0.884923
0.885641
0.886521
0.88753
0.890216
0.895431
0.899126
0.901188
0.90283
0.904214
0.905517
0.905576
0.903679
0.902523
0.902443
0.903298
0.904741
0.90904
0.916637
0.921069
0.923062
0.924395
0.9257
0.926548
0.923863
0.920238
0.919525
0.92041
0.921929
0.924536
0.932163
0.939849
0.943199
0.944857
0.9461
0.947145
0.946382
0.941502
0.938654
0.938824
0.940196
0.942009
0.946159
0.956177
0.963509
0.966622
0.968502
0.970062
0.971011
0.967168
0.96118
0.959278
0.959824
0.961634
0.963981
0.969947
0.982251
0.990628
0.99425
0.996479
0.99844
0.999224
0.993603
0.986659
0.984309
0.984544
0.986109
0.989072
0.996084
1.00854
1.01826
1.02361
1.02705
1.02952
1.02948
1.02526
1.01886
1.01541
1.01574
1.01873
1.02497
1.03449
1.04173
1.04672
1.04972
1.04982
1.04574
1.19502
1.66809
0.86954
0.872352
0.877971
0.882036
0.884037
0.885437
0.886604
0.887639
0.887735
0.887171
0.886886
0.886842
0.887076
0.887847
0.889492
0.895114
0.901386
0.904589
0.906172
0.90745
0.908698
0.909308
0.906495
0.903434
0.903
0.903923
0.905363
0.908463
0.916601
0.923181
0.925901
0.927365
0.928421
0.92901
0.927295
0.923045
0.921527
0.922173
0.923518
0.925219
0.930027
0.939224
0.944595
0.946899
0.948318
0.949495
0.950148
0.946724
0.941829
0.94081
0.941811
0.94351
0.9455
0.951806
0.962315
0.968026
0.970591
0.972332
0.973874
0.974
0.968268
0.962972
0.96197
0.962899
0.964773
0.967274
0.97433
0.986884
0.994317
0.997729
1.00051
1.00302
1.00325
0.996344
0.98908
0.986794
0.987581
0.989695
0.992852
0.999761
1.01162
1.02069
1.02591
1.0294
1.03186
1.03207
1.02799
1.02133
1.01749
1.01755
1.0202
1.02636
1.03578
1.0429
1.04753
1.04943
1.05005
1.19916
1.67027
0.871037
0.872408
0.875655
0.882373
0.886692
0.888794
0.890015
0.891128
0.891808
0.89046
0.888418
0.88728
0.887334
0.888255
0.889637
0.893825
0.902241
0.907128
0.909182
0.910474
0.911546
0.912005
0.909382
0.905386
0.904817
0.905729
0.907006
0.908841
0.915165
0.923585
0.927422
0.929168
0.930306
0.931206
0.931091
0.92751
0.924528
0.924675
0.925865
0.927174
0.928986
0.935839
0.944437
0.948214
0.950056
0.951435
0.952775
0.952645
0.947688
0.944155
0.944043
0.94505
0.946566
0.948927
0.957212
0.967285
0.971853
0.97419
0.976033
0.97792
0.977276
0.970629
0.965914
0.964924
0.965346
0.966966
0.969587
0.978018
0.991314
0.998862
1.00204
1.0041
1.00612
1.0063
1.00008
0.993388
0.991
0.991186
0.992759
0.995755
1.0029
1.01455
1.0232
1.02834
1.03186
1.03408
1.03423
1.03002
1.02279
1.01855
1.01834
1.02049
1.0267
1.03646
1.04381
1.04759
1.05213
1.2066
1.67305
0.872182
0.873188
0.874738
0.880861
0.888291
0.8916
0.893149
0.894276
0.89521
0.894636
0.890906
0.888507
0.88853
0.889551
0.890896
0.893664
0.901631
0.908516
0.911324
0.912935
0.914027
0.914255
0.912454
0.90874
0.907497
0.908348
0.909716
0.911107
0.913875
0.921702
0.927774
0.930214
0.931686
0.933001
0.934264
0.933324
0.929113
0.92733
0.927678
0.928595
0.929769
0.932435
0.94124
0.948726
0.95184
0.953685
0.955275
0.956773
0.95523
0.949382
0.946547
0.946435
0.947223
0.948821
0.95223
0.962409
0.971853
0.976122
0.978785
0.980838
0.982497
0.980309
0.97256
0.967854
0.967149
0.967924
0.969484
0.972029
0.980763
0.993987
1.00107
1.00457
1.00785
1.01043
1.0106
1.00392
0.996259
0.993202
0.993486
0.995382
0.998522
1.00631
1.01775
1.02585
1.03076
1.03407
1.03598
1.03587
1.03111
1.02347
1.01889
1.01828
1.01985
1.02654
1.03707
1.04419
1.05238
1.216
1.67642
0.873758
0.874555
0.875735
0.879522
0.888103
0.893322
0.895502
0.896926
0.897956
0.898114
0.894633
0.890962
0.89083
0.891878
0.893217
0.895096
0.900526
0.908366
0.912068
0.913603
0.914519
0.915448
0.916004
0.913848
0.911412
0.911411
0.912266
0.913246
0.914372
0.918115
0.92636
0.931253
0.933551
0.935167
0.936673
0.937884
0.935544
0.931015
0.929505
0.929638
0.930486
0.931949
0.936602
0.94688
0.953346
0.956171
0.958
0.959512
0.960538
0.956896
0.950519
0.948053
0.94813
0.949234
0.951086
0.955747
0.967667
0.976887
0.980701
0.982693
0.984275
0.985894
0.983378
0.975262
0.970635
0.969473
0.969682
0.971246
0.974027
0.984052
0.998508
1.00637
1.00946
1.01165
1.01343
1.01277
1.00615
0.998716
0.995655
0.995955
0.997929
1.00147
1.01013
1.02127
1.02869
1.03302
1.03577
1.03728
1.03694
1.03191
1.02387
1.0186
1.01735
1.01856
1.02678
1.03766
1.04977
1.22601
1.67989
0.876
0.876617
0.877729
0.880116
0.887305
0.89399
0.896668
0.898044
0.898817
0.899357
0.898698
0.895335
0.894116
0.894917
0.896147
0.897405
0.899463
0.905979
0.911847
0.914325
0.915884
0.917389
0.918788
0.919174
0.916278
0.91414
0.913894
0.914223
0.91508
0.91669
0.922866
0.931451
0.935599
0.937722
0.939208
0.940666
0.941183
0.936717
0.93197
0.930763
0.931189
0.932486
0.934548
0.94194
0.95279
0.958074
0.960404
0.962098
0.963526
0.963682
0.957772
0.951608
0.950034
0.950639
0.951991
0.953937
0.9596
0.972249
0.98053
0.983933
0.986344
0.98839
0.989639
0.985556
0.976585
0.971896
0.971616
0.973126
0.975396
0.97819
0.987581
1.00103
1.00794
1.01103
1.01331
1.0152
1.01468
1.00865
1.00176
0.998761
0.998953
1.00076
1.00435
1.01342
1.02412
1.03084
1.03468
1.03707
1.03841
1.03786
1.03269
1.02416
1.01781
1.01576
1.01727
1.02711
1.04334
1.23474
1.68244
0.878793
0.879277
0.880294
0.881855
0.886415
0.893306
0.896792
0.898403
0.899684
0.900981
0.902004
0.900629
0.898126
0.897782
0.898291
0.898894
0.899795
0.902715
0.910276
0.915657
0.918261
0.919891
0.921316
0.922669
0.922032
0.917858
0.915251
0.914781
0.915522
0.916839
0.919969
0.929356
0.936995
0.940007
0.94169
0.942977
0.944095
0.942322
0.935814
0.93251
0.932713
0.93391
0.935391
0.938282
0.947884
0.957646
0.961552
0.963414
0.964789
0.966255
0.965877
0.959221
0.953832
0.952755
0.953194
0.954441
0.956451
0.963128
0.976355
0.984405
0.987452
0.988866
0.990294
0.992018
0.988771
0.980659
0.976666
0.976187
0.976683
0.97799
0.980498
0.989036
1.00212
1.00985
1.0134
1.0157
1.01754
1.01767
1.01255
1.00535
1.00154
1.00107
1.00255
1.00606
1.01565
1.02628
1.0327
1.03614
1.03819
1.03943
1.0389
1.03378
1.02425
1.01613
1.01357
1.01569
1.0331
1.24019
1.68367
0.881929
0.882156
0.882955
0.883964
0.885691
0.891565
0.897171
0.899803
0.901499
0.902923
0.904248
0.905034
0.902853
0.900363
0.899544
0.899669
0.900545
0.902043
0.907634
0.916167
0.920519
0.922565
0.923884
0.925194
0.926056
0.92246
0.917245
0.916086
0.916796
0.91804
0.919738
0.925817
0.936223
0.941483
0.943561
0.944806
0.945675
0.94601
0.94214
0.936497
0.935168
0.93605
0.937329
0.938635
0.942004
0.952561
0.961154
0.964559
0.966679
0.968403
0.969814
0.968264
0.960811
0.955765
0.955079
0.956124
0.957419
0.959124
0.965221
0.977973
0.985671
0.989151
0.992211
0.994521
0.995947
0.992264
0.983698
0.978511
0.977371
0.978032
0.979383
0.981975
0.991029
1.00433
1.01235
1.01624
1.01878
1.02056
1.02062
1.01544
1.00734
1.00277
1.00208
1.00351
1.00714
1.01732
1.02823
1.03438
1.03746
1.03944
1.04061
1.03985
1.03447
1.02351
1.01413
1.01006
1.01872
1.23988
1.68342
0.884979
0.884566
0.884849
0.885397
0.886374
0.889697
0.896958
0.901576
0.903713
0.905165
0.90645
0.907697
0.907311
0.903285
0.900762
0.900665
0.901591
0.902856
0.905969
0.914904
0.921981
0.924659
0.926168
0.92721
0.92782
0.926159
0.920637
0.918148
0.918734
0.920076
0.921638
0.923972
0.931858
0.940675
0.944119
0.945756
0.947003
0.948271
0.948557
0.943706
0.938797
0.937884
0.938507
0.939588
0.941081
0.945404
0.956799
0.964822
0.967881
0.969435
0.970931
0.972672
0.97126
0.963796
0.959066
0.957974
0.957822
0.958715
0.960583
0.967282
0.981128
0.99017
0.993636
0.995573
0.997148
0.998373
0.995046
0.98646
0.980968
0.979665
0.980496
0.982364
0.985271
0.99384
1.00673
1.01462
1.01822
1.02041
1.02203
1.02216
1.01726
1.00892
1.00388
1.00293
1.00417
1.00817
1.01891
1.03006
1.03594
1.03851
1.04015
1.0411
1.0403
1.03447
1.02196
1.01044
1.00652
1.23335
1.68169
0.887678
0.886092
0.885928
0.886647
0.887677
0.889349
0.89562
0.902699
0.905829
0.907311
0.908524
0.909652
0.910256
0.906779
0.902614
0.902237
0.903199
0.904431
0.906098
0.912273
0.921608
0.925864
0.927603
0.928572
0.929185
0.929211
0.925954
0.921877
0.92128
0.922166
0.923264
0.924481
0.927191
0.93615
0.943907
0.947103
0.94896
0.950379
0.951784
0.951335
0.945368
0.940816
0.940132
0.940841
0.941785
0.943257
0.948215
0.959843
0.967291
0.970544
0.973102
0.975006
0.976434
0.974152
0.965923
0.960398
0.95935
0.960141
0.961566
0.963402
0.969565
0.983037
0.991648
0.99517
0.997409
0.999455
1.00095
0.998048
0.990003
0.984459
0.983081
0.983508
0.984792
0.987547
0.996412
1.0088
1.01604
1.01943
1.0216
1.02348
1.02401
1.01903
1.01069
1.00547
1.00423
1.00507
1.00883
1.01975
1.03081
1.03616
1.03857
1.04051
1.04145
1.04053
1.03347
1.01729
1.00316
1.2217
1.67963
0.890228
0.887628
0.887219
0.887863
0.888893
0.890158
0.894093
0.902511
0.907344
0.909309
0.910427
0.91136
0.911991
0.910132
0.905588
0.904381
0.905258
0.906569
0.908012
0.910429
0.918104
0.925315
0.928035
0.929525
0.930729
0.93191
0.931835
0.927683
0.924248
0.923775
0.924352
0.925181
0.926394
0.929877
0.939867
0.947322
0.950369
0.952247
0.953828
0.955336
0.954305
0.94758
0.943216
0.942255
0.942298
0.943354
0.945103
0.951047
0.963558
0.971633
0.974651
0.976203
0.977546
0.979139
0.977261
0.968928
0.963585
0.962386
0.962437
0.963382
0.96523
0.971684
0.985295
0.994823
0.998739
1.00067
1.00243
1.00377
1.00143
0.99331
0.986871
0.984824
0.985284
0.986893
0.989711
0.998664
1.01088
1.01796
1.02127
1.02337
1.02532
1.02649
1.02225
1.01299
1.00651
1.00462
1.00528
1.00869
1.01966
1.03075
1.03601
1.03861
1.04094
1.04184
1.0405
1.02889
1.01004
1.20893
1.67837
0.893388
0.890012
0.88865
0.889218
0.890283
0.891516
0.893453
0.900248
0.907716
0.910706
0.912154
0.912998
0.913631
0.913428
0.910153
0.907535
0.907682
0.908644
0.909659
0.910698
0.913463
0.921918
0.928427
0.931159
0.932802
0.934154
0.935468
0.934762
0.929701
0.926307
0.925612
0.925787
0.926509
0.92795
0.932871
0.944027
0.951097
0.954127
0.956204
0.95778
0.958963
0.956462
0.948635
0.944191
0.943773
0.944677
0.945977
0.947674
0.953701
0.966382
0.973862
0.976909
0.979181
0.980991
0.982201
0.979427
0.970649
0.964882
0.963798
0.964778
0.966637
0.968676
0.973666
0.986354
0.996218
1.00044
1.00263
1.00429
1.00566
1.00459
0.99771
0.990938
0.987976
0.987424
0.988454
0.990988
0.999934
1.01213
1.01925
1.02311
1.02624
1.02844
1.02908
1.02422
1.01406
1.0067
1.00437
1.00502
1.00827
1.01914
1.03036
1.03588
1.03909
1.04139
1.04209
1.0372
1.02383
1.20096
1.67854
0.896499
0.893406
0.890461
0.890763
0.891873
0.893108
0.894295
0.897187
0.905381
0.911096
0.913225
0.914478
0.915597
0.916621
0.915827
0.911959
0.90997
0.909963
0.910429
0.911111
0.912345
0.916462
0.926051
0.932248
0.934963
0.936651
0.937897
0.938993
0.93705
0.930869
0.927222
0.926576
0.927226
0.928463
0.930304
0.936911
0.948733
0.955187
0.957593
0.958875
0.959817
0.960979
0.958432
0.950887
0.947066
0.946564
0.946919
0.948015
0.949889
0.956555
0.96955
0.97733
0.980124
0.981085
0.981789
0.98341
0.982292
0.975137
0.969828
0.968479
0.968374
0.968511
0.969677
0.973668
0.986003
0.99693
1.00178
1.00467
1.00725
1.00912
1.0088
1.00179
0.993024
0.988593
0.987866
0.988886
0.991563
1.0014
1.01489
1.02265
1.02593
1.02797
1.02965
1.03022
1.0259
1.01516
1.00685
1.00429
1.00473
1.00785
1.01848
1.02976
1.03571
1.03936
1.04163
1.04066
1.03485
1.20045
1.68018
0.898997
0.898125
0.893968
0.892909
0.893524
0.894389
0.895321
0.896466
0.900528
0.90929
0.914317
0.916511
0.917813
0.919023
0.920034
0.918226
0.913766
0.911616
0.911214
0.911573
0.912585
0.914172
0.92022
0.930756
0.936315
0.938627
0.940189
0.941416
0.942186
0.938438
0.931267
0.928495
0.928926
0.930272
0.931701
0.933501
0.940534
0.951902
0.957376
0.959627
0.961459
0.963067
0.96412
0.960874
0.953056
0.948948
0.94873
0.950058
0.9514
0.952708
0.957559
0.969422
0.977042
0.980308
0.983419
0.985947
0.987759
0.987229
0.980132
0.972513
0.968882
0.968009
0.968569
0.970017
0.974472
0.988196
1.00091
1.00625
1.00839
1.01012
1.01141
1.01038
1.00283
0.993559
0.989191
0.988912
0.990427
0.993665
1.00363
1.01657
1.0236
1.02682
1.02917
1.03103
1.03167
1.02684
1.01584
1.00734
1.00452
1.00468
1.00729
1.0174
1.02862
1.0351
1.03934
1.04052
1.04222
1.20636
1.68304
0.90075
0.902243
0.899669
0.895881
0.894975
0.895442
0.896238
0.897137
0.898505
0.904197
0.913474
0.918
0.919987
0.921216
0.92237
0.923054
0.919803
0.914492
0.912443
0.912665
0.9136
0.914808
0.916827
0.924674
0.934915
0.939295
0.941117
0.942327
0.943417
0.944192
0.940129
0.933688
0.931749
0.932111
0.932937
0.934102
0.935989
0.94326
0.954465
0.960108
0.962354
0.963592
0.965273
0.966923
0.964783
0.957353
0.953308
0.952378
0.951525
0.951336
0.952536
0.957345
0.970201
0.980892
0.985636
0.988091
0.990113
0.991833
0.990905
0.982258
0.973414
0.969838
0.969797
0.971254
0.97358
0.978317
0.991233
1.00278
1.00729
1.00918
1.0101
1.0114
1.01157
1.00558
0.996911
0.992611
0.991731
0.992383
0.994771
1.00385
1.01707
1.02491
1.0284
1.03034
1.03161
1.03245
1.02902
1.01788
1.0083
1.00468
1.00438
1.00593
1.01543
1.02697
1.03479
1.03801
1.04592
1.21681
1.68655
0.902503
0.904456
0.904828
0.901318
0.897555
0.896765
0.897151
0.897993
0.89908
0.901025
0.908747
0.917769
0.921495
0.923142
0.924198
0.925292
0.92541
0.920396
0.915247
0.914377
0.91524
0.916396
0.917481
0.919581
0.928318
0.937892
0.941728
0.943608
0.945154
0.946476
0.946995
0.942373
0.936006
0.933996
0.934501
0.935544
0.936104
0.93754
0.944174
0.955352
0.961385
0.964735
0.967733
0.969648
0.97091
0.968463
0.960276
0.954067
0.952037
0.95196
0.952742
0.95423
0.958811
0.97278
0.984451
0.989058
0.99109
0.992081
0.992264
0.991644
0.985264
0.977334
0.974149
0.974226
0.975263
0.976653
0.980046
0.991425
1.00219
1.00686
1.00949
1.01226
1.01422
1.01476
1.00951
1.00019
0.994331
0.992545
0.993021
0.994933
1.003
1.01632
1.02461
1.02871
1.03175
1.03365
1.03421
1.03066
1.01935
1.0087
1.00394
1.00295
1.00385
1.01328
1.0262
1.03354
1.04687
1.22854
1.69014
0.904005
0.906244
0.907278
0.90713
0.902392
0.898727
0.898374
0.89919
0.900262
0.901358
0.903988
0.91329
0.921362
0.924379
0.925975
0.927052
0.928091
0.927291
0.921351
0.917227
0.916835
0.917466
0.918362
0.919552
0.922033
0.931293
0.940671
0.944529
0.946338
0.947792
0.949471
0.950379
0.946025
0.939633
0.937176
0.93612
0.935521
0.936272
0.937945
0.945248
0.958356
0.966158
0.969178
0.970995
0.972588
0.973925
0.971491
0.962102
0.955114
0.953267
0.953761
0.955085
0.956907
0.962125
0.975778
0.986155
0.989874
0.991316
0.992767
0.994357
0.994623
0.989326
0.98142
0.977173
0.976016
0.976176
0.97731
0.98047
0.991851
1.0041
1.01021
1.0129
1.015
1.01706
1.01819
1.01325
1.00244
0.995008
0.992648
0.992924
0.994492
1.00218
1.01697
1.02727
1.03164
1.03336
1.03414
1.03436
1.03099
1.02015
1.00891
1.00293
1.00098
1.00175
1.01262
1.02514
1.04383
1.23977
1.69317
0.905057
0.907938
0.908946
0.910043
0.908884
0.903274
0.900437
0.90055
0.901314
0.902328
0.903563
0.907307
0.917507
0.924612
0.927275
0.928864
0.929972
0.930999
0.929464
0.922945
0.919015
0.918712
0.919604
0.920444
0.921414
0.923924
0.933566
0.943032
0.947221
0.949903
0.951976
0.953426
0.953763
0.94829
0.940232
0.936635
0.936326
0.937117
0.938341
0.940128
0.948024
0.961811
0.968979
0.971649
0.973299
0.974632
0.975199
0.972413
0.963446
0.957314
0.956257
0.957481
0.959764
0.961615
0.964567
0.974826
0.985559
0.990803
0.993141
0.994596
0.99621
0.99754
0.994559
0.986379
0.980015
0.977287
0.977096
0.978334
0.981427
0.992525
1.00541
1.01203
1.0154
1.01759
1.01925
1.01982
1.0142
1.00284
0.995377
0.993232
0.993842
0.99573
1.00296
1.01732
1.02754
1.0318
1.03331
1.03376
1.03391
1.0311
1.02148
1.00975
1.00198
0.998858
1.00016
1.01154
1.03566
1.24918
1.69501
0.905377
0.90962
0.910627
0.9117
0.9126
0.910045
0.904073
0.902018
0.902503
0.903581
0.904705
0.906005
0.910557
0.921055
0.927397
0.929785
0.931327
0.932553
0.933775
0.932217
0.925577
0.921706
0.921016
0.921031
0.921843
0.923141
0.926135
0.936601
0.946949
0.951337
0.95324
0.95457
0.955664
0.955761
0.949247
0.940855
0.938161
0.938513
0.939723
0.941301
0.943861
0.951896
0.964726
0.971124
0.973258
0.973378
0.973834
0.975399
0.975513
0.969654
0.963874
0.962041
0.961795
0.961284
0.961121
0.963075
0.972422
0.984709
0.991404
0.994948
0.998072
1.00028
1.00172
0.998971
0.989173
0.980704
0.977665
0.977666
0.978833
0.981901
0.99399
1.00815
1.01494
1.01733
1.01865
1.01933
1.01962
1.01601
1.00601
0.998371
0.995725
0.995428
0.996169
1.00168
1.01589
1.02695
1.0314
1.03271
1.03333
1.03393
1.03235
1.02372
1.01067
1.00012
0.996262
0.997023
1.02253
1.25471
1.69541
0.903817
0.910797
0.912296
0.913266
0.914296
0.914909
0.910934
0.905459
0.904358
0.905033
0.905983
0.90689
0.908151
0.913307
0.924044
0.930145
0.932622
0.934343
0.93576
0.936903
0.934756
0.927136
0.922603
0.922217
0.923132
0.924339
0.925557
0.928674
0.939665
0.949519
0.953164
0.954873
0.956274
0.957278
0.956881
0.950666
0.94366
0.9417
0.942522
0.944554
0.946102
0.947232
0.951522
0.962182
0.969101
0.972107
0.975346
0.978564
0.980798
0.981297
0.975999
0.968152
0.962794
0.959863
0.958987
0.95989
0.962435
0.97291
0.988339
0.996925
0.999904
1.00161
1.00286
1.00299
0.999301
0.988997
0.980954
0.978709
0.979542
0.981713
0.984936
0.995576
1.00845
1.01482
1.01741
1.01904
1.02087
1.02211
1.01941
1.0095
1.00029
0.995815
0.994903
0.995558
1.00013
1.01422
1.02637
1.03151
1.03311
1.03397
1.03457
1.0333
1.0254
1.0105
0.997971
0.991238
1.00422
1.25319
1.69398
0.89947
0.910251
0.91337
0.914999
0.916038
0.917104
0.917221
0.912339
0.907516
0.906521
0.906896
0.907695
0.908807
0.910308
0.916164
0.927127
0.933136
0.935468
0.936869
0.937896
0.938926
0.936889
0.929304
0.925195
0.924846
0.925478
0.926507
0.927855
0.931463
0.942424
0.951573
0.954956
0.956176
0.956763
0.958302
0.959597
0.956248
0.950033
0.947482
0.947113
0.945956
0.944601
0.945248
0.949334
0.961192
0.972103
0.977854
0.981261
0.983603
0.985233
0.985617
0.979182
0.967919
0.961355
0.960125
0.961064
0.963006
0.966439
0.977182
0.991817
0.998582
1.00077
1.00086
1.00047
1.00128
1.00034
0.993624
0.986874
0.984211
0.983588
0.983795
0.985029
0.992588
1.00596
1.01473
1.0188
1.02093
1.02286
1.02464
1.0233
1.01321
1.0018
0.995937
0.994341
0.994672
0.998807
1.01339
1.02675
1.03184
1.03304
1.03391
1.03431
1.03337
1.02562
1.00882
0.993019
0.990961
1.24424
1.69101
0.895518
0.905342
0.913259
0.9163
0.917836
0.918851
0.920001
0.919742
0.913932
0.908934
0.908127
0.908942
0.910039
0.911028
0.912449
0.918834
0.930065
0.935601
0.9377
0.939264
0.94068
0.941671
0.939014
0.93112
0.92689
0.926777
0.92803
0.929577
0.930749
0.933155
0.942212
0.951145
0.955237
0.958201
0.961453
0.963503
0.964495
0.961721
0.954418
0.948181
0.944944
0.943926
0.944448
0.945728
0.949495
0.963439
0.976738
0.982334
0.984588
0.985931
0.986043
0.984827
0.978936
0.96986
0.965536
0.965399
0.966907
0.968586
0.970514
0.977674
0.989318
0.995705
0.99811
1.00019
1.00304
1.00564
1.00611
0.999845
0.990638
0.984815
0.98199
0.981176
0.982574
0.990119
1.00513
1.01575
1.02094
1.02424
1.02599
1.02693
1.02458
1.0136
1.00131
0.995036
0.993667
0.994277
0.998777
1.01374
1.02676
1.03096
1.03204
1.0333
1.03396
1.03284
1.02381
1.00298
0.988555
1.22988
1.68822
0.895379
0.898886
0.908555
0.91604
0.918947
0.920614
0.921831
0.922916
0.921995
0.915614
0.911149
0.910539
0.910967
0.911842
0.913044