/*--------------------------------*- C++ -*----------------------------------*\
  =========                 |
  \\      /  F ield         | OpenFOAM: The Open Source CFD Toolbox
   \\    /   O peration     | Website:  https://openfoam.org
    \\  /    A nd           | Version:  12
     \\/     M anipulation  |
\*---------------------------------------------------------------------------*/
FoamFile
{
    format      ascii;
    class       volVectorField;
    location    "2.23";
    object      U;
}
// * * * * * * * * * * * * * * * * * * * * * * * * * * * * * * * * * * * * * //

dimensions      [0 1 -1 0 0 0 0];

internalField   nonuniform List<vector> 
22702
(
(2 -2.03098e-13 0)
(2 1.80209e-14 0)
(2.04212 -0.0859464 0)
(2 -1.16401e-09 0)
(1.97839 0.0318995 0)
(2 3.9125e-14 0)
(1.83027 0.228645 0)
(2 4.86969e-15 0)
(2 -1.94729e-13 0)
(2.12118 -0.260409 0)
(1.83017 0.228691 0)
(1.82925 0.228215 0)
(2 -2.12631e-13 0)
(1.83256 0.229272 0)
(2.03256 -0.0742503 0)
(2 -3.00657e-13 0)
(2 -3.48792e-13 0)
(2 9.50421e-15 0)
(1.82974 0.228539 0)
(2 -1.85823e-15 0)
(1.83052 0.228674 0)
(2 -2.02966e-14 0)
(1.83222 0.22913 0)
(2.10828 -0.264851 0)
(1.83228 0.230184 0)
(2.14232 -0.262285 0)
(2 -8.31674e-15 0)
(1.83045 0.228856 0)
(2.0944 -0.262133 0)
(2.10094 -0.258666 0)
(2 -7.10848e-14 0)
(1.82868 0.228438 0)
(2 1.74291e-14 0)
(2 1.02994e-13 0)
(2 9.8041e-14 0)
(1.83813 0.21361 0)
(1.8328 0.229447 0)
(1.83196 0.229022 0)
(2 -1.43924e-13 0)
(2 -1.93675e-13 0)
(2.14616 -0.263052 0)
(2 -2.75339e-14 0)
(1.91416 0.124978 0)
(2 2.35713e-14 0)
(1.83035 0.228726 0)
(2 -3.51882e-13 0)
(2 1.61492e-13 0)
(2 -1.9845e-13 0)
(2 -1.47672e-13 0)
(2.10565 -0.261138 0)
(2 3.37589e-14 0)
(2.10156 -0.261989 0)
(2 -1.29356e-13 0)
(1.83019 0.228592 0)
(2 -1.3803e-13 0)
(1.82869 0.228635 0)
(2 6.7995e-14 0)
(2 1.52149e-09 0)
(2 4.0228e-14 0)
(2 -2.6021e-13 0)
(2.11556 -0.264924 0)
(2 1.82238e-14 0)
(2 -5.99633e-14 0)
(2.09997 -0.26159 0)
(2 -7.02492e-14 0)
(2.11577 -0.266233 0)
(2 -9.45744e-14 0)
(2 -3.79451e-13 0)
(2 1.85271e-13 0)
(2.13042 -0.262187 0)
(2 -1.17496e-13 0)
(1.83047 0.228016 0)
(1.89538 0.150631 0)
(2 1.47344e-09 0)
(1.83041 0.228007 0)
(1.82119 0.23721 0)
(2.11173 -0.265299 0)
(1.82756 0.228144 0)
(2.10507 -0.262405 0)
(2 -1.27933e-13 0)
(1.83073 0.228735 0)
(2.1087 -0.260172 0)
(1.83247 0.229277 0)
(1.83261 0.229657 0)
(2 1.74363e-13 0)
(2 8.95366e-07 0)
(2 3.86873e-14 0)
(2 2.74343e-13 0)
(2.01682 -0.0440041 0)
(2.13009 -0.260059 0)
(1.83095 0.228635 0)
(2 -1.09666e-14 0)
(2 -5.24194e-11 0)
(2.09977 -0.268629 0)
(2 7.57673e-16 0)
(1.83142 0.229093 0)
(2.10446 -0.266723 0)
(2 2.70368e-08 0)
(2 4.62341e-14 0)
(2 -3.2809e-13 0)
(2 -1.46499e-13 0)
(1.91505 0.123555 0)
(1.83036 0.228809 0)
(2.16971 -0.257915 0)
(2 9.88e-11 0)
(2 -1.24674e-09 0)
(1.95719 0.064976 0)
(2 9.26142e-09 0)
(2.10877 -0.260094 0)
(2 -4.54655e-13 0)
(1.82684 0.228295 0)
(1.82968 0.228051 0)
(2 4.75042e-09 0)
(2 -1.09922e-13 0)
(2.11969 -0.272953 0)
(2.11592 -0.271083 0)
(2.12268 -0.260061 0)
(2 7.51536e-14 0)
(2 -1.51706e-07 0)
(2 1.0472e-14 0)
(2 3.20857e-14 0)
(2 1.18875e-07 0)
(2.02474 -0.0573588 0)
(2 -1.04588e-07 0)
(1.8535 0.200424 0)
(1.98162 0.0232665 0)
(1.82722 0.22848 0)
(2 -7.61532e-14 0)
(1.82775 0.228616 0)
(1.82986 0.228256 0)
(1.833 0.229325 0)
(1.82952 0.228596 0)
(2 4.94101e-15 0)
(2.13587 -0.26434 0)
(2 5.29608e-14 0)
(2.10062 -0.270888 0)
(2 -5.94822e-14 0)
(2 -7.74967e-15 0)
(2 -1.41187e-13 0)
(2 -4.02741e-15 0)
(1.82977 0.227982 0)
(2 2.96628e-09 0)
(2 1.9879e-13 0)
(2 -1.82847e-13 0)
(2 -4.88475e-14 0)
(1.83018 0.22853 0)
(2 3.16633e-14 0)
(1.99419 0.0133165 0)
(2 -2.3942e-14 0)
(2 -2.64131e-13 0)
(2 -6.29267e-11 0)
(2 -1.09926e-14 0)
(2.10503 -0.260985 0)
(2 1.38562e-13 0)
(1.9957 0.00898559 0)
(2 2.74251e-14 0)
(2.10307 -0.262373 0)
(2 6.66494e-16 0)
(2 1.57475e-13 0)
(2 3.92517e-14 0)
(1.8312 0.229067 0)
(2 -4.64064e-14 0)
(1.83177 0.228819 0)
(2.10192 -0.280559 0)
(2.11633 -0.264495 0)
(1.83009 0.228436 0)
(1.8305 0.228566 0)
(2 5.1611e-14 0)
(1.9707 0.048149 0)
(1.89962 0.144574 0)
(2 -6.62319e-14 0)
(1.8312 0.228747 0)
(2.10968 -0.264793 0)
(1.84728 0.213654 0)
(2 1.4647e-14 0)
(2 1.86882e-13 0)
(2 -3.95546e-15 0)
(2 1.21618e-14 0)
(1.83054 0.228444 0)
(1.85678 0.198553 0)
(2 1.68699e-13 0)
(1.82976 0.228956 0)
(2.10934 -0.265649 0)
(1.83 0.228528 0)
(2 -1.49734e-13 0)
(2.10153 -0.260823 0)
(2 -3.38313e-14 0)
(2.09436 -0.261435 0)
(2.11866 -0.266664 0)
(2.00009 -0.00013436 0)
(2 1.18195e-13 0)
(2 -2.79759e-15 0)
(1.82969 0.227823 0)
(2 6.38517e-14 0)
(2 -2.0585e-13 0)
(1.83175 0.228795 0)
(2 -1.09271e-13 0)
(1.83071 0.2292 0)
(1.82971 0.229067 0)
(2.10562 -0.289726 0)
(2 -8.14813e-14 0)
(2 -9.67626e-14 0)
(2.10952 -0.261375 0)
(1.83184 0.228879 0)
(2 -1.62841e-13 0)
(2 -9.22731e-14 0)
(2 7.05714e-14 0)
(1.83182 0.22888 0)
(2 -7.44016e-14 0)
(2.11446 -0.26359 0)
(2 -6.20864e-11 0)
(2 1.1327e-13 0)
(1.83152 0.229039 0)
(1.83125 0.229102 0)
(1.82841 0.22851 0)
(2 5.44734e-14 0)
(1.99998 2.47543e-05 0)
(2 -7.56435e-14 0)
(2 -1.68244e-13 0)
(2 -1.51146e-13 0)
(1.83334 0.229599 0)
(2 -2.46161e-14 0)
(2.11318 -0.264832 0)
(1.82376 0.2352 0)
(1.83174 0.228778 0)
(1.83155 0.227947 0)
(2 1.96977e-07 0)
(2 1.69861e-13 0)
(2 8.20393e-15 0)
(2.11685 -0.270735 0)
(1.83145 0.229295 0)
(1.92571 0.114556 0)
(2 6.23696e-14 0)
(1.82893 0.229208 0)
(2.12068 -0.264058 0)
(2.1191 -0.26224 0)
(1.82734 0.228351 0)
(1.83126 0.229766 0)
(2 -1.3654e-14 0)
(1.83201 0.228358 0)
(2.12855 -0.273562 0)
(1.84687 0.206704 0)
(2 3.9777e-14 0)
(2 2.92827e-14 0)
(2 9.0605e-14 0)
(2 -4.13103e-14 0)
(1.83233 0.229127 0)
(2 -2.01242e-14 0)
(1.89618 0.155773 0)
(1.98427 0.0291822 0)
(2 -1.3725e-13 0)
(2 -8.74458e-14 0)
(1.83173 0.22867 0)
(2.10633 -0.273449 0)
(2.08121 -0.15678 0)
(2 -1.46722e-13 0)
(1.83213 0.227602 0)
(2.11217 -0.26257 0)
(1.83203 0.229005 0)
(2 -1.19165e-13 0)
(2 2.5464e-14 0)
(2 -2.22286e-14 0)
(2 1.37234e-13 0)
(2 3.85432e-14 0)
(2 1.18167e-13 0)
(2 -8.94679e-14 0)
(2.11565 -0.265978 0)
(2.06089 -0.1644 0)
(2.12166 -0.262278 0)
(1.83148 0.228881 0)
(2 4.31018e-14 0)
(2 2.5452e-13 0)
(2 -1.89876e-07 0)
(2 -1.03903e-14 0)
(1.84483 0.209683 0)
(2 -1.19192e-07 0)
(2.11629 -0.267217 0)
(2 -1.77713e-13 0)
(2.11741 -0.285252 0)
(2.10988 -0.262629 0)
(1.83197 0.228426 0)
(2.12034 -0.268419 0)
(1.82983 0.228461 0)
(2 -1.4869e-14 0)
(2 -1.28934e-13 0)
(2 -5.13852e-14 0)
(2.00082 -0.00157247 0)
(2.10863 -0.266901 0)
(2.11296 -0.276333 0)
(2 -3.02423e-07 0)
(2 -1.51708e-07 0)
(2.11877 -0.283988 0)
(2 2.46122e-09 0)
(1.8297 0.228048 0)
(2.16542 -0.248054 0)
(2 6.76622e-14 0)
(2 -3.06076e-11 0)
(1.83075 0.228748 0)
(2.09503 -0.278539 0)
(2 -8.22397e-14 0)
(1.83103 0.232682 0)
(2.10806 -0.264819 0)
(1.83156 0.2288 0)
(2 -1.63665e-13 0)
(2.10981 -0.28617 0)
(2.00084 -0.00147167 0)
(2 -3.10625e-14 0)
(2 2.80098e-06 0)
(2 7.57604e-14 0)
(2.11524 -0.264555 0)
(2 -1.41635e-13 0)
(2 -1.71352e-07 0)
(2 -4.01003e-07 0)
(1.99999 9.05916e-06 0)
(1.98798 0.00658522 0)
(1.88975 0.149685 0)
(2 -2.50931e-11 0)
(2.12719 -0.253153 0)
(2 -1.64578e-11 0)
(2 1.76322e-06 0)
(2 -1.23044e-14 0)
(2 -1.62589e-13 0)
(2 -5.76161e-14 0)
(2 2.67984e-14 0)
(2 -8.17532e-13 0)
(1.8299 0.228527 0)
(2 1.78072e-13 0)
(1.82901 0.229444 0)
(2 4.70052e-14 0)
(2 -1.17285e-13 0)
(2 -1.42933e-13 0)
(2.11376 -0.26584 0)
(2 2.96606e-13 0)
(1.83059 0.228567 0)
(2.12231 -0.268193 0)
(2 3.87177e-14 0)
(1.86104 0.213902 0)
(2 7.33546e-14 0)
(2 -5.46736e-14 0)
(1.82914 0.22893 0)
(2 -9.56267e-14 0)
(2 -9.24649e-09 0)
(2 -1.36454e-13 0)
(1.83172 0.227607 0)
(2 4.69642e-10 0)
(2 -1.53409e-14 0)
(1.838 0.219582 0)
(1.82986 0.228597 0)
(2 1.76392e-13 0)
(1.96555 0.0542375 0)
(2 8.41388e-14 0)
(2 -3.81503e-14 0)
(2.10003 -0.269532 0)
(2 -1.55707e-13 0)
(2 -1.84058e-13 0)
(2 -1.40063e-13 0)
(2.09433 -0.27137 0)
(2 3.46745e-14 0)
(2 1.70446e-13 0)
(2 4.00745e-14 0)
(2 1.70989e-14 0)
(2.12118 -0.263523 0)
(2 5.13046e-14 0)
(2 -1.55925e-13 0)
(2 2.81002e-14 0)
(2 -2.26011e-13 0)
(2 -1.46426e-13 0)
(2.11357 -0.266252 0)
(1.99998 3.97761e-05 0)
(1.83091 0.228187 0)
(2 7.36497e-15 0)
(2 -3.96672e-05 0)
(1.8304 0.22824 0)
(1.82988 0.228657 0)
(2 1.1872e-13 0)
(2 1.19901e-13 0)
(2.10267 -0.279486 0)
(2.07692 -0.12007 0)
(1.82998 0.228206 0)
(2 -4.71187e-14 0)
(2 -8.66168e-15 0)
(2 1.70376e-13 0)
(1.8315 0.228789 0)
(2.1278 -0.261467 0)
(2 4.11085e-14 0)
(1.83145 0.228476 0)
(2 -3.51321e-14 0)
(2 -9.60693e-14 0)
(2.11546 -0.209837 0)
(2.10791 -0.205579 0)
(2 -6.78128e-14 0)
(2.11533 -0.268034 0)
(2.11804 -0.263743 0)
(2 3.50216e-14 0)
(2 8.00953e-15 0)
(2 -1.85422e-13 0)
(2 1.12385e-15 0)
(2 -9.81209e-11 0)
(2 4.83233e-14 0)
(2 1.19655e-13 0)
(1.82735 0.228327 0)
(1.95852 0.0613086 0)
(1.83776 0.231816 0)
(2.10224 -0.268295 0)
(2.02111 -0.0692536 0)
(1.83074 0.228281 0)
(2 -1.15363e-12 0)
(1.83016 0.228372 0)
(1.82966 0.22814 0)
(2.13171 -0.263721 0)
(2.08989 -0.146693 0)
(2 5.04438e-13 0)
(2.11848 -0.264175 0)
(2 -9.86663e-14 0)
(1.82351 0.233345 0)
(2 -8.87334e-14 0)
(2 -1.68209e-13 0)
(2 1.69846e-16 0)
(2 1.43509e-14 0)
(1.83183 0.228967 0)
(2 -6.83549e-14 0)
(2 3.81726e-14 0)
(2 1.79472e-14 0)
(2 1.60608e-09 0)
(2 5.77136e-14 0)
(2 -1.67907e-13 0)
(2 -1.65125e-13 0)
(1.93844 0.0966084 0)
(1.83162 0.22915 0)
(2 4.00992e-14 0)
(1.83133 0.229159 0)
(2 1.27364e-13 0)
(2 1.04283e-13 0)
(2.10846 -0.261125 0)
(2 4.98913e-14 0)
(2 -3.07479e-14 0)
(2 -1.5081e-13 0)
(2 -6.90182e-14 0)
(1.83177 0.228804 0)
(1.87161 0.183163 0)
(2 -1.12533e-13 0)
(2 -1.07464e-13 0)
(2.11728 -0.264375 0)
(1.83159 0.228881 0)
(1.83161 0.228955 0)
(2 3.58762e-14 0)
(1.83163 0.229039 0)
(1.83165 0.228778 0)
(1.83122 0.229122 0)
(2 -6.4012e-14 0)
(2.07008 -0.107862 0)
(2 6.81074e-14 0)
(1.83199 0.228984 0)
(2.00096 -0.00888287 0)
(1.83127 0.229205 0)
(2 -1.03427e-14 0)
(2.12452 -0.263804 0)
(2.00034 -0.000658632 0)
(1.82998 0.228924 0)
(2 -8.56012e-14 0)
(2 -6.8604e-14 0)
(2 -5.48033e-11 0)
(2 -2.18043e-11 0)
(2.11112 -0.261924 0)
(1.83166 0.228611 0)
(1.84069 0.210909 0)
(2 2.65e-13 0)
(1.83126 0.2307 0)
(1.83147 0.228828 0)
(1.83005 0.228585 0)
(2 -7.54493e-14 0)
(1.92027 0.116089 0)
(1.82985 0.227476 0)
(2 4.85692e-14 0)
(2 1.11137e-14 0)
(1.88405 0.166352 0)
(1.97984 0.0353787 0)
(1.83157 0.228902 0)
(2.02311 -0.0453871 0)
(1.83142 0.228862 0)
(2 3.23642e-15 0)
(1.83136 0.228953 0)
(1.83126 0.229202 0)
(1.83128 0.228951 0)
(1.83165 0.228903 0)
(2 -7.78496e-14 0)
(1.84127 0.219939 0)
(2.02135 -0.0611238 0)
(2.03517 -0.0717833 0)
(2 2.22174e-13 0)
(2 -4.28607e-07 0)
(2 3.55979e-14 0)
(2 -1.27866e-13 0)
(1.82995 0.230898 0)
(2 1.39946e-13 0)
(2 -4.08285e-14 0)
(2 -1.39011e-13 0)
(2 9.58814e-14 0)
(2 1.62838e-13 0)
(1.82962 0.228904 0)
(2 1.30834e-13 0)
(2 1.57181e-13 0)
(2.0016 -0.00269737 0)
(1.83175 0.228827 0)
(1.86737 0.189671 0)
(2 -2.18702e-14 0)
(1.862 0.193629 0)
(1.99998 2.66738e-05 0)
(2 1.61505e-13 0)
(2 -1.44304e-13 0)
(1.83198 0.228943 0)
(2 1.88782e-13 0)
(2.00194 -0.00181536 0)
(1.99784 0.00400438 0)
(2 -6.31999e-14 0)
(1.83099 0.229515 0)
(2 1.26579e-13 0)
(1.83125 0.229775 0)
(2 2.32131e-13 0)
(2 7.23251e-14 0)
(1.87508 0.178359 0)
(2 1.19407e-13 0)
(1.83131 0.229546 0)
(1.99999 1.30032e-05 0)
(2 -2.58341e-14 0)
(1.83219 0.22789 0)
(2 -8.46871e-14 0)
(1.8318 0.228707 0)
(2 1.93967e-13 0)
(2 2.85433e-06 0)
(2 7.78665e-14 0)
(1.83221 0.228994 0)
(2 5.53889e-14 0)
(1.82929 0.231927 0)
(2 4.50471e-06 0)
(1.83209 0.229105 0)
(1.82873 0.228636 0)
(1.83161 0.228609 0)
(1.83023 0.228741 0)
(2 1.92346e-13 0)
(1.83042 0.228957 0)
(1.83654 0.225025 0)
(2 1.28292e-13 0)
(2.09956 -0.257735 0)
(1.84159 0.217722 0)
(1.87257 0.170083 0)
(2 -3.12138e-14 0)
(1.83189 0.228793 0)
(2 9.65925e-14 0)
(2.10553 -0.26928 0)
(2.1029 -0.268004 0)
(2 1.44829e-13 0)
(2 2.09583e-13 0)
(2 1.70913e-13 0)
(2 -1.2321e-13 0)
(2 1.53164e-09 0)
(2.11429 -0.268523 0)
(2 -6.23433e-14 0)
(1.8315 0.229067 0)
(1.95487 0.0606255 0)
(1.83164 0.229189 0)
(2 -1.74821e-13 0)
(2 6.89239e-11 0)
(2 -1.93108e-13 0)
(2 -1.50795e-13 0)
(2 -5.23652e-08 0)
(1.83126 0.22905 0)
(2 -9.84198e-14 0)
(1.83217 0.22831 0)
(1.89905 0.149476 0)
(2.08765 -0.146115 0)
(2 1.35697e-09 0)
(1.99999 7.37139e-06 0)
(1.95252 0.0747059 0)
(1.96197 0.066135 0)
(2 -1.31487e-13 0)
(2 -1.03031e-13 0)
(1.93908 0.0899307 0)
(2 -1.35311e-13 0)
(2.10418 -0.261343 0)
(1.8315 0.228785 0)
(1.83147 0.228986 0)
(2 -7.06268e-11 0)
(2 8.42414e-14 0)
(2 -2.18912e-14 0)
(1.82687 0.228517 0)
(2 -8.09638e-14 0)
(1.99999 1.60761e-05 0)
(1.83237 0.23015 0)
(1.83179 0.228872 0)
(2.01923 -0.0335566 0)
(2 1.78344e-13 0)
(2 1.66122e-10 0)
(2.10675 -0.264081 0)
(1.84715 0.212251 0)
(2 -4.48132e-15 0)
(2 -3.14942e-14 0)
(2 2.01991e-14 0)
(2 -2.97851e-11 0)
(2 -1.59121e-13 0)
(1.83173 0.228758 0)
(1.83027 0.22877 0)
(2 5.90348e-14 0)
(1.83214 0.227727 0)
(1.82979 0.231163 0)
(1.83164 0.228638 0)
(2 1.36061e-13 0)
(2 -1.59702e-13 0)
(2 -5.74566e-11 0)
(2 -2.34763e-13 0)
(2.15926 -0.253611 0)
(1.82967 0.227996 0)
(2 -4.94029e-11 0)
(2 -1.04313e-14 0)
(1.84625 0.212441 0)
(1.8319 0.228471 0)
(2 -2.27095e-13 0)
(1.84163 0.217534 0)
(1.83077 0.228557 0)
(2 2.16839e-15 0)
(2 -2.18681e-07 0)
(2 9.80138e-11 0)
(2 -2.77948e-14 0)
(2 -5.79858e-14 0)
(1.8311 0.229457 0)
(2 1.19311e-13 0)
(2 -9.58197e-14 0)
(2 1.82987e-13 0)
(2 -7.64351e-14 0)
(1.83099 0.231575 0)
(2 -1.18455e-13 0)
(1.83361 0.232039 0)
(2.12633 -0.260875 0)
(2 1.11859e-13 0)
(2.12149 -0.267135 0)
(2 -1.31493e-13 0)
(2 -1.44918e-07 0)
(2 6.49801e-15 0)
(2.00134 -0.00161901 0)
(2.09623 -0.262082 0)
(2.0003 -0.000502479 0)
(2 5.71234e-14 0)
(2 7.86313e-15 0)
(2 -1.19148e-07 0)
(1.97404 0.0386623 0)
(2 -1.26732e-13 0)
(2 -1.7166e-13 0)
(2.05071 -0.0921873 0)
(2 -2.13322e-07 0)
(2 -3.753e-14 0)
(2 8.96595e-14 0)
(2 -2.1765e-07 0)
(2 5.16548e-07 0)
(2 -9.53989e-08 0)
(2 -2.31157e-13 0)
(2 -1.72051e-06 0)
(2.01322 -0.0442033 0)
(2 -5.25616e-07 0)
(2 -4.25935e-08 0)
(2.00091 -0.00142562 0)
(2 9.70568e-14 0)
(2.11329 -0.262758 0)
(2 -2.92454e-11 0)
(2 -4.3681e-12 0)
(2 -3.38653e-11 0)
(2 1.40985e-13 0)
(1.8733 0.179426 0)
(2 -1.65785e-13 0)
(2 -2.02501e-13 0)
(2 -6.77019e-14 0)
(2 -1.56834e-07 0)
(2.1165 -0.269399 0)
(2 4.96899e-14 0)
(2 1.4528e-09 0)
(1.84172 0.217911 0)
(1.82957 0.228206 0)
(2 -2.6753e-07 0)
(2 -9.75348e-16 0)
(2 -1.11361e-07 0)
(2.04146 -0.0711985 0)
(2 -1.7985e-13 0)
(2 4.33897e-10 0)
(2 -1.76676e-13 0)
(2 1.64532e-13 0)
(2 -3.56381e-14 0)
(2 8.96523e-14 0)
(2.01948 -0.0366767 0)
(1.9919 -0.00115315 0)
(1.83013 0.228493 0)
(2 1.67036e-14 0)
(2 7.54004e-14 0)
(2 2.87013e-14 0)
(1.83001 0.229806 0)
(2.03258 -0.066056 0)
(2 -4.96453e-09 0)
(2 9.0006e-14 0)
(2 3.46013e-15 0)
(1.83172 0.229329 0)
(1.82996 0.228002 0)
(2 -3.41739e-08 0)
(2 5.52503e-06 0)
(2 3.27456e-09 0)
(2 1.00689e-15 0)
(2 1.34729e-09 0)
(2 -1.31928e-13 0)
(2 -2.03219e-11 0)
(2 -8.68262e-14 0)
(2 -1.56655e-13 0)
(2.11733 -0.264138 0)
(2 2.26503e-14 0)
(2 -1.53755e-11 0)
(1.82858 0.227758 0)
(2.11319 -0.264317 0)
(2 -1.35952e-13 0)
(1.82874 0.227945 0)
(2 8.23655e-11 0)
(2.10372 -0.260227 0)
(2 -8.47671e-14 0)
(2 -6.72034e-14 0)
(2.11696 -0.26127 0)
(2 -1.16819e-13 0)
(2 -1.14765e-11 0)
(2 -5.56972e-12 0)
(2 -8.62042e-14 0)
(2 -2.93907e-12 0)
(2 -7.42664e-14 0)
(2 6.4256e-14 0)
(1.83479 0.225363 0)
(1.83186 0.228522 0)
(2 3.15215e-13 0)
(2 -1.344e-13 0)
(2 -9.1921e-14 0)
(2 3.86001e-13 0)
(1.84584 0.212521 0)
(2 2.13769e-13 0)
(1.94415 0.0833092 0)
(2.10467 -0.25965 0)
(2 -2.94562e-08 0)
(2 1.68464e-13 0)
(2 1.95716e-14 0)
(2 -1.51578e-13 0)
(2 3.57009e-14 0)
(2 -4.36697e-14 0)
(2 4.22084e-15 0)
(1.98586 0.0208076 0)
(2 -6.25066e-14 0)
(2 2.66664e-14 0)
(1.90403 0.129495 0)
(2 1.21857e-13 0)
(2 -5.61306e-14 0)
(2 -1.11438e-13 0)
(1.85585 0.189626 0)
(2 -8.39334e-14 0)
(2 1.43662e-14 0)
(2 -5.50694e-14 0)
(2 -8.14026e-14 0)
(2.12514 -0.262262 0)
(2 3.35699e-12 0)
(2 3.16596e-14 0)
(2.11792 -0.277467 0)
(2.12398 -0.263157 0)
(2 2.44166e-14 0)
(2 1.83472e-14 0)
(1.83173 0.22889 0)
(2 -1.31897e-13 0)
(1.96377 -0.0406252 0)
(2 7.22748e-14 0)
(2 -5.42811e-14 0)
(2 -6.75807e-14 0)
(1.88231 0.169032 0)
(2.13607 -0.261379 0)
(2 -2.0561e-13 0)
(2.13046 -0.268959 0)
(2 -6.93914e-14 0)
(2.08461 -0.144821 0)
(2 -4.16877e-14 0)
(2 -1.07709e-13 0)
(2 -2.10986e-14 0)
(1.83001 0.228238 0)
(2 -4.35382e-08 0)
(2 -1.7788e-13 0)
(1.83126 0.228749 0)
(2 -1.59604e-13 0)
(2 -1.42401e-11 0)
(2 1.6146e-09 0)
(1.83112 0.228762 0)
(2 2.36592e-10 0)
(2 4.01286e-14 0)
(1.83199 0.22913 0)
(2 -4.65337e-13 0)
(2 -1.57752e-13 0)
(2.13284 -0.262601 0)
(2 -1.78613e-11 0)
(1.94655 0.0806427 0)
(2 -7.26774e-14 0)
(2 -1.24038e-13 0)
(1.83042 0.228313 0)
(1.83055 0.228229 0)
(1.88797 0.160585 0)
(1.84978 0.209727 0)
(2 -2.51299e-14 0)
(2.12758 -0.264581 0)
(2 -1.83387e-13 0)
(2 9.65154e-14 0)
(1.83907 0.219983 0)
(2 1.96585e-13 0)
(2.11099 -0.26487 0)
(2 -8.83316e-14 0)
(2 2.17336e-14 0)
(2 -1.00241e-14 0)
(1.83139 0.229215 0)
(2 -6.63943e-14 0)
(2 1.48481e-13 0)
(2 7.90794e-14 0)
(2 7.75339e-14 0)
(1.89945 0.147013 0)
(2 7.11022e-14 0)
(1.83875 0.219224 0)
(1.83102 0.228551 0)
(2.11074 -0.267402 0)
(2 -7.25104e-14 0)
(2 -5.94872e-15 0)
(2.16821 -0.259163 0)
(2.14001 -0.26005 0)
(2 9.93635e-15 0)
(2 1.50111e-13 0)
(2 -5.58782e-12 0)
(1.88084 0.171552 0)
(1.87118 0.182599 0)
(2 1.15811e-13 0)
(2 -9.47741e-14 0)
(2 8.74951e-14 0)
(2 5.84816e-14 0)
(2 1.1345e-13 0)
(2 -4.91604e-14 0)
(2 7.28234e-14 0)
(1.92826 0.105869 0)
(1.83206 0.228991 0)
(1.99567 0.00523332 0)
(2 -3.71947e-14 0)
(1.84037 0.227473 0)
(2.12959 -0.262461 0)
(2 -1.43056e-14 0)
(2 3.40124e-14 0)
(2 1.36042e-13 0)
(1.90626 0.138228 0)
(2 1.34394e-13 0)
(1.96573 0.0539319 0)
(2 -2.46332e-14 0)
(1.84559 0.212866 0)
(1.83217 0.228487 0)
(2 1.15321e-14 0)
(2.12361 -0.260825 0)
(2 -4.48139e-14 0)
(1.8294 0.228706 0)
(2 -1.74272e-14 0)
(2 8.30284e-14 0)
(1.83128 0.229597 0)
(1.84184 0.217846 0)
(2 -1.15224e-13 0)
(1.8259 0.23012 0)
(2 -2.68281e-13 0)
(2.05545 -0.26812 0)
(2 5.15102e-14 0)
(2 -2.40929e-13 0)
(2 1.30408e-13 0)
(1.83506 0.229054 0)
(1.83519 0.22519 0)
(1.85162 0.206074 0)
(2 1.66876e-13 0)
(1.83051 0.228028 0)
(1.83142 0.22889 0)
(2 4.67786e-14 0)
(1.831 0.229409 0)
(2 -8.97239e-09 0)
(1.83217 0.228453 0)
(2 -1.29615e-13 0)
(2.11714 -0.263487 0)
(2.00761 -0.0114915 0)
(2.11189 -0.269547 0)
(2 -3.43167e-11 0)
(2 -2.32281e-11 0)
(2 -3.23403e-11 0)
(2 -1.78129e-13 0)
(2 -1.39161e-11 0)
(1.83212 0.228919 0)
(2 -2.26906e-14 0)
(1.83175 0.228782 0)
(2 -3.4761e-11 0)
(2 -1.01699e-10 0)
(2 1.86746e-14 0)
(1.8404 0.219265 0)
(2 2.30489e-14 0)
(2.11275 -0.264826 0)
(1.83114 0.228863 0)
(2 -3.51395e-14 0)
(2.10164 -0.258899 0)
(2.12508 -0.241223 0)
(2.12607 -0.260571 0)
(2 -1.15349e-13 0)
(1.91735 0.120737 0)
(1.98362 0.0154903 0)
(1.83109 0.22952 0)
(1.83128 0.228939 0)
(2 7.6699e-14 0)
(2 -4.30442e-07 0)
(2 -9.94713e-08 0)
(2 6.1243e-14 0)
(1.83137 0.228833 0)
(2 3.61976e-14 0)
(2 -4.62457e-14 0)
(1.83145 0.228835 0)
(1.83168 0.22902 0)
(2 -1.70419e-13 0)
(1.94089 0.0902842 0)
(2 0.000785925 0)
(2 -1.22477e-14 0)
(2.00128 -0.00199188 0)
(1.82955 0.228463 0)
(2.04553 -0.106096 0)
(2 -1.16804e-07 0)
(2.0464 -0.130016 0)
(2.1034 -0.262663 0)
(2.10523 -0.26208 0)
(1.98891 -0.0313839 0)
(1.83138 0.229052 0)
(1.83375 0.226747 0)
(1.96601 0.0495254 0)
(1.831 0.229134 0)
(1.83136 0.229098 0)
(2 7.68897e-14 0)
(2 1.21491e-13 0)
(1.82763 0.228534 0)
(1.82897 0.228001 0)
(1.83148 0.22842 0)
(1.82814 0.22776 0)
(2 1.08607e-13 0)
(1.8313 0.229297 0)
(2.10478 -0.261051 0)
(1.82984 0.229819 0)
(1.83158 0.227746 0)
(1.82836 0.228591 0)
(1.83082 0.228452 0)
(2.05146 -0.0902409 0)
(2.03486 -0.0606056 0)
(2.02413 -0.0512259 0)
(1.83197 0.229145 0)
(2.01141 -0.0389642 0)
(1.83168 0.22838 0)
(2 -1.25498e-13 0)
(2 1.36694e-14 0)
(1.83096 0.229983 0)
(1.83056 0.22882 0)
(2 -1.19555e-13 0)
(2.11368 -0.263239 0)
(1.83055 0.228863 0)
(1.83172 0.229065 0)
(2 2.02904e-13 0)
(1.83217 0.228591 0)
(1.83212 0.228691 0)
(2 1.62641e-13 0)
(1.83142 0.22864 0)
(2.10733 -0.263375 0)
(1.83083 0.230232 0)
(1.82906 0.228551 0)
(1.82959 0.228543 0)
(1.83154 0.228694 0)
(2 2.46505e-13 0)
(2 1.21771e-13 0)
(2 -1.09235e-07 0)
(1.8319 0.22902 0)
(1.89148 0.155772 0)
(2.12452 -0.251845 0)
(1.8312 0.228682 0)
(2.11468 -0.276176 0)
(1.83189 0.229068 0)
(2 8.12434e-15 0)
(2 -1.49418e-14 0)
(2 -7.34572e-14 0)
(2 -1.08834e-13 0)
(1.83096 0.228807 0)
(1.8311 0.228869 0)
(2 3.24608e-14 0)
(2 -1.55888e-13 0)
(1.83122 0.228875 0)
(2.11391 -0.270858 0)
(1.83095 0.229057 0)
(2.11139 -0.264241 0)
(2 -3.59059e-14 0)
(1.83287 0.227591 0)
(2 -9.35085e-14 0)
(2.11919 -0.264557 0)
(1.83106 0.229804 0)
(2.10497 -0.180571 0)
(2 4.19345e-14 0)
(1.83111 0.22884 0)
(1.83025 0.229932 0)
(1.83138 0.229899 0)
(2 -6.03095e-14 0)
(2 6.09654e-14 0)
(1.9272 0.118992 0)
(1.83067 0.229495 0)
(2.10817 -0.267573 0)
(1.83183 0.228945 0)
(2 -4.7471e-14 0)
(1.83005 0.229345 0)
(2.02538 -0.0804827 0)
(1.83173 0.228518 0)
(2.12245 -0.263336 0)
(2 -7.97019e-14 0)
(1.83201 0.228917 0)
(2.10621 -0.232037 0)
(1.83086 0.229994 0)
(2.10415 -0.259073 0)
(2 -1.20205e-13 0)
(1.83146 0.229237 0)
(2 5.68017e-14 0)
(1.83165 0.229095 0)
(2 -1.0637e-13 0)
(1.90436 0.143612 0)
(1.83798 0.221403 0)
(1.86748 0.187863 0)
(2.11018 -0.281001 0)
(2 -2.19904e-14 0)
(1.83152 0.229467 0)
(2 3.32405e-14 0)
(1.8309 0.229502 0)
(2 -1.11752e-07 0)
(1.83169 0.228789 0)
(2 -2.43094e-07 0)
(2 -2.5466e-13 0)
(1.83123 0.228423 0)
(2.00605 -0.00672404 0)
(1.83022 0.229854 0)
(2.08126 -0.266651 0)
(1.84354 0.205107 0)
(2 -1.4899e-13 0)
(1.87537 0.168817 0)
(2 -1.73036e-13 0)
(1.83037 0.228189 0)
(1.8316 0.228842 0)
(1.83072 0.227442 0)
(2 -1.4699e-13 0)
(1.8481 0.210519 0)
(1.83197 0.229524 0)
(1.84446 0.215014 0)
(1.89647 0.150887 0)
(1.83961 0.226806 0)
(2 -1.40505e-13 0)
(1.8889 0.158254 0)
(2 -1.78165e-13 0)
(1.83108 0.228641 0)
(2 -5.8058e-14 0)
(1.97132 0.0407951 0)
(2 2.24095e-13 0)
(1.84329 0.215337 0)
(2 2.91333e-14 0)
(1.8312 0.229483 0)
(1.83963 0.220076 0)
(1.84018 0.219394 0)
(2 -1.31851e-13 0)
(1.82713 0.228669 0)
(2.09342 -0.268441 0)
(2 -2.10487e-13 0)
(2.1264 -0.261475 0)
(2 -1.74581e-13 0)
(2 1.91365e-13 0)
(2 5.09683e-14 0)
(1.82735 0.228195 0)
(2 9.06871e-14 0)
(1.83161 0.229115 0)
(2 -1.68439e-14 0)
(2 -1.40646e-13 0)
(2 -8.96092e-14 0)
(1.83095 0.229363 0)
(1.83246 0.228478 0)
(1.86032 0.187184 0)
(1.83059 0.229696 0)
(1.83 0.230493 0)
(2.12015 -0.265698 0)
(1.82983 0.229524 0)
(1.8324 0.229086 0)
(2 2.61902e-14 0)
(1.8537 0.194942 0)
(1.83151 0.228794 0)
(1.84088 0.220072 0)
(2 -4.68332e-14 0)
(1.83094 0.228664 0)
(1.82865 0.228363 0)
(2 2.58897e-14 0)
(1.8274 0.22996 0)
(1.83107 0.228939 0)
(1.83133 0.228999 0)
(1.83112 0.229774 0)
(2 -2.65047e-14 0)
(2 -6.01696e-14 0)
(2 -8.5619e-14 0)
(1.83173 0.228803 0)
(2.12758 -0.262838 0)
(2 -6.98481e-15 0)
(1.83167 0.229321 0)
(2 2.76233e-14 0)
(2 1.08501e-13 0)
(2.10836 -0.267347 0)
(2 -7.43195e-14 0)
(2 1.17384e-13 0)
(1.83153 0.229219 0)
(1.83176 0.229214 0)
(2 -6.21043e-14 0)
(1.83181 0.228849 0)
(1.83282 0.232773 0)
(1.83071 0.228252 0)
(2.00898 -0.0111981 0)
(1.83126 0.229105 0)
(2 -3.98926e-14 0)
(1.83126 0.229112 0)
(1.83162 0.229176 0)
(1.86266 0.192933 0)
(2 -2.71065e-14 0)
(2 -1.16309e-13 0)
(2 8.51385e-17 0)
(1.83079 0.229885 0)
(1.83126 0.228985 0)
(1.83194 0.228616 0)
(2.02157 -0.0413633 0)
(2 1.2527e-13 0)
(1.82944 0.232245 0)
(1.83146 0.229188 0)
(1.83137 0.228928 0)
(2 -2.59752e-14 0)
(1.83138 0.22896 0)
(1.83118 0.228714 0)
(1.83155 0.229191 0)
(1.82937 0.232621 0)
(2 -1.60514e-13 0)
(1.83159 0.229001 0)
(1.83184 0.226959 0)
(1.85519 0.202297 0)
(1.83209 0.22947 0)
(1.82996 0.231717 0)
(2 -4.10276e-14 0)
(1.82989 0.234582 0)
(1.83359 0.226827 0)
(1.83197 0.228634 0)
(1.82999 0.229407 0)
(1.8321 0.228511 0)
(2.10569 -0.268774 0)
(1.83134 0.229486 0)
(1.83138 0.229869 0)
(2 -2.22073e-14 0)
(1.83181 0.229498 0)
(1.83164 0.228781 0)
(1.83187 0.229299 0)
(1.83186 0.228641 0)
(2 -5.59731e-08 0)
(1.83144 0.228651 0)
(1.83178 0.229248 0)
(2 -1.66924e-07 0)
(1.83197 0.229076 0)
(1.8587 0.197209 0)
(2 -5.05595e-14 0)
(2 4.50553e-14 0)
(2 2.03259e-09 0)
(1.83133 0.230603 0)
(1.83112 0.228689 0)
(2 1.04502e-15 0)
(2 7.57697e-14 0)
(1.90684 0.137204 0)
(2 6.92891e-14 0)
(1.83229 0.229637 0)
(2 1.149e-13 0)
(2 -6.56811e-14 0)
(1.83127 0.229095 0)
(1.83536 0.230528 0)
(1.83165 0.228903 0)
(1.83154 0.229069 0)
(2 -6.06412e-14 0)
(2 1.0678e-13 0)
(2 -1.29477e-13 0)
(1.88395 0.167861 0)
(2 1.31527e-13 0)
(1.83244 0.228201 0)
(2 8.66353e-14 0)
(2 1.13662e-13 0)
(1.82786 0.228413 0)
(1.82911 0.228772 0)
(2 -1.06991e-14 0)
(1.83156 0.229139 0)
(2.13028 -0.273221 0)
(1.8314 0.228622 0)
(1.83115 0.229882 0)
(2.07413 -0.201831 0)
(2 -1.60675e-13 0)
(2.12619 -0.27751 0)
(1.85213 0.204812 0)
(1.83187 0.229824 0)
(1.8326 0.228255 0)
(1.8331 0.228365 0)
(2.08623 -0.270081 0)
(1.83178 0.229357 0)
(1.83137 0.229577 0)
(2.08486 -0.269895 0)
(2.11986 -0.276055 0)
(2 -2.72615e-07 0)
(1.83409 0.229857 0)
(1.83232 0.228624 0)
(2 6.60826e-14 0)
(2 -5.25514e-15 0)
(1.8316 0.228301 0)
(2 1.10296e-14 0)
(1.8319 0.228514 0)
(2 2.38612e-06 0)
(1.85375 0.203878 0)
(2 4.54562e-14 0)
(1.91902 0.120272 0)
(1.83233 0.228255 0)
(1.83045 0.230156 0)
(1.87954 0.17184 0)
(1.84991 0.204021 0)
(1.82928 0.228791 0)
(1.83118 0.229323 0)
(1.84377 0.227934 0)
(2 -1.28681e-13 0)
(2.12242 -0.259981 0)
(1.82786 0.228651 0)
(1.83206 0.229678 0)
(1.82939 0.230971 0)
(2 6.32453e-06 0)
(2 2.63793e-10 0)
(2 1.31088e-09 0)
(1.82871 0.228124 0)
(2 1.55489e-14 0)
(1.83188 0.229339 0)
(1.8323 0.229084 0)
(2.09652 -0.168197 0)
(2 -9.44874e-14 0)
(1.8316 0.228805 0)
(2.00002 -4.6e-05 0)
(2 1.9959e-13 0)
(1.99999 1.88528e-05 0)
(1.99998 2.68018e-05 0)
(1.83171 0.229666 0)
(1.82988 0.228534 0)
(2.00055 -0.000901467 0)
(2 1.27889e-13 0)
(2 -1.28816e-13 0)
(1.83162 0.22917 0)
(1.8305 0.229538 0)
(1.83172 0.228655 0)
(1.82912 0.229512 0)
(1.83172 0.228475 0)
(2.1119 -0.253336 0)
(1.84407 0.212397 0)
(2 1.07506e-13 0)
(1.83273 0.227761 0)
(1.83179 0.228967 0)
(1.83194 0.228806 0)
(1.83375 0.235434 0)
(2 9.45337e-14 0)
(1.83184 0.228909 0)
(1.83606 0.223652 0)
(1.831 0.22936 0)
(2 -4.85916e-14 0)
(1.83121 0.228917 0)
(1.8311 0.22955 0)
(2.04985 -0.0909163 0)
(1.83191 0.22894 0)
(1.83079 0.228922 0)
(2 2.79203e-14 0)
(1.83164 0.22965 0)
(2.0599 -0.107944 0)
(1.83068 0.229165 0)
(2.04744 -0.0924648 0)
(1.83167 0.228998 0)
(2 -1.04595e-07 0)
(1.83126 0.228801 0)
(1.82463 0.233478 0)
(1.83161 0.228797 0)
(1.83164 0.228926 0)
(1.83156 0.228606 0)
(1.82982 0.228297 0)
(1.83148 0.229215 0)
(1.82878 0.228058 0)
(2 -5.66534e-14 0)
(2.02278 -0.0508859 0)
(1.8311 0.22937 0)
(1.83215 0.228797 0)
(2.0599 -0.109335 0)
(1.83147 0.228802 0)
(2.00515 -0.00691446 0)
(1.89428 0.157029 0)
(1.83146 0.229377 0)
(1.83041 0.228198 0)
(1.82992 0.228763 0)
(2 2.34287e-13 0)
(1.83019 0.22966 0)
(1.89297 0.152772 0)
(1.83208 0.22742 0)
(2.0293 -0.0461045 0)
(1.83055 0.229737 0)
(1.82652 0.231048 0)
(2 3.36741e-14 0)
(2.0498 -0.089016 0)
(2 -3.76145e-09 0)
(1.83932 0.225737 0)
(2 9.89791e-14 0)
(1.88313 0.167125 0)
(2 4.56417e-09 0)
(1.84151 0.224307 0)
(2.0399 -0.0803513 0)
(2 2.33814e-13 0)
(1.83154 0.227347 0)
(1.83583 0.227175 0)
(2 7.34861e-15 0)
(1.83155 0.228913 0)
(1.83106 0.229798 0)
(1.83031 0.230249 0)
(1.83851 0.223517 0)
(1.82971 0.229304 0)
(2 -5.44026e-14 0)
(1.82967 0.228414 0)
(2 1.28521e-13 0)
(2 -1.37279e-13 0)
(2 3.59494e-14 0)
(2.03386 -0.0776721 0)
(1.83189 0.228816 0)
(1.83057 0.229723 0)
(1.82906 0.231657 0)
(1.83152 0.229073 0)
(1.83491 0.226494 0)
(1.82958 0.230331 0)
(1.83729 0.230727 0)
(1.83155 0.229045 0)
(2.02871 -0.0751699 0)
(1.98721 0.0231627 0)
(2 3.51816e-09 0)
(2 -1.62779e-13 0)
(1.82585 0.232096 0)
(1.83164 0.229166 0)
(1.8318 0.229022 0)
(1.83179 0.228739 0)
(1.99999 1.56001e-05 0)
(1.91509 0.127404 0)
(2 -1.60461e-07 0)
(1.82748 0.230334 0)
(1.85261 0.200018 0)
(2 -3.24598e-12 0)
(2 -6.16199e-11 0)
(2.08226 -0.186531 0)
(1.83169 0.229093 0)
(2 -1.66541e-14 0)
(2 -1.44852e-13 0)
(2.10179 -0.259515 0)
(1.8315 0.22884 0)
(2 5.95266e-14 0)
(1.83314 0.229011 0)
(1.83171 0.229211 0)
(1.82958 0.228521 0)
(1.83816 0.221995 0)
(1.83105 0.229187 0)
(2 -1.67053e-10 0)
(2.11568 -0.27298 0)
(1.95597 0.0675924 0)
(1.83121 0.228714 0)
(1.83108 0.229119 0)
(2 -6.33176e-14 0)
(1.8299 0.229231 0)
(1.83152 0.229288 0)
(1.91602 0.122764 0)
(1.99908 0.00501801 0)
(1.96243 0.0574879 0)
(2 -8.42818e-14 0)
(1.83171 0.229028 0)
(1.83102 0.229376 0)
(2 -1.20365e-07 0)
(2 -1.83623e-10 0)
(2.08507 -0.272476 0)
(2 -2.47773e-10 0)
(2 -4.68999e-14 0)
(1.83151 0.228919 0)
(1.83162 0.229303 0)
(1.83216 0.228886 0)
(1.83205 0.228498 0)
(1.83131 0.228794 0)
(1.82811 0.230781 0)
(1.83091 0.229217 0)
(1.82866 0.226479 0)
(1.83125 0.229085 0)
(2 1.37811e-13 0)
(2.00143 -0.00259894 0)
(1.8311 0.228734 0)
(1.83201 0.229007 0)
(2.00103 -0.00187815 0)
(1.83158 0.229363 0)
(1.83156 0.229273 0)
(2.09971 -0.270013 0)
(2.11414 -0.263489 0)
(1.82902 0.227839 0)
(1.82893 0.231565 0)
(2 1.0913e-13 0)
(2 1.54988e-13 0)
(1.99952 0.00191545 0)
(1.83158 0.22862 0)
(1.8323 0.228579 0)
(1.83149 0.228849 0)
(2 1.14268e-09 0)
(1.83153 0.229287 0)
(2 -4.22296e-14 0)
(2.0406 -0.0963222 0)
(1.8286 0.23123 0)
(1.82736 0.231595 0)
(2 7.67814e-14 0)
(1.92575 0.114014 0)
(1.83174 0.22878 0)
(2 5.85296e-14 0)
(1.82944 0.230137 0)
(2 -1.04919e-10 0)
(1.83169 0.228931 0)
(1.88292 0.156309 0)
(1.83066 0.229711 0)
(2 1.54928e-11 0)
(1.83148 0.228435 0)
(1.83134 0.232626 0)
(2.08688 -0.271511 0)
(1.83166 0.228131 0)
(2 -1.43053e-07 0)
(1.83136 0.229188 0)
(1.83219 0.228441 0)
(2 7.55584e-09 0)
(2.10473 -0.264765 0)
(1.83217 0.228281 0)
(1.86254 0.205358 0)
(2.00078 -0.00114048 0)
(1.84049 0.219905 0)
(1.83167 0.228985 0)
(2 -5.52911e-12 0)
(1.99439 0.00308209 0)
(1.82877 0.2299 0)
(2.00199 -0.00135101 0)
(1.83176 0.229282 0)
(2 -3.93863e-12 0)
(2 9.08566e-14 0)
(1.83082 0.229694 0)
(2 1.01376e-13 0)
(1.83047 0.229765 0)
(1.83154 0.229313 0)
(2.00139 -0.00221626 0)
(1.86064 0.193934 0)
(2 2.86016e-09 0)
(1.83158 0.22921 0)
(2 1.14668e-09 0)
(2 -5.92951e-13 0)
(2 1.16807e-11 0)
(2 7.4078e-12 0)
(1.8318 0.228721 0)
(2 7.40676e-09 0)
(2 -1.1779e-13 0)
(1.83887 0.223603 0)
(2 1.73488e-13 0)
(1.83199 0.229512 0)
(2 3.07863e-10 0)
(1.89205 0.155529 0)
(1.83136 0.229611 0)
(1.83032 0.229885 0)
(2 6.50098e-10 0)
(2 -8.16695e-14 0)
(1.99743 0.000153569 0)