/*--------------------------------*- C++ -*----------------------------------*\
  =========                 |
  \\      /  F ield         | OpenFOAM: The Open Source CFD Toolbox
   \\    /   O peration     | Website:  https://openfoam.org
    \\  /    A nd           | Version:  12
     \\/     M anipulation  |
\*---------------------------------------------------------------------------*/
FoamFile
{
    format      ascii;
    class       volVectorField;
    location    "5.99";
    object      U;
}
// * * * * * * * * * * * * * * * * * * * * * * * * * * * * * * * * * * * * * //

dimensions      [0 1 -1 0 0 0 0];

internalField   nonuniform List<vector> 
22702
(
(2 -3.86667e-13 0)
(2 -1.37826e-15 0)
(2.04953 -0.090094 0)
(2 -1.08946e-09 0)
(1.97778 0.0266718 0)
(2 -3.38728e-15 0)
(1.82814 0.228558 0)
(2 -3.69792e-14 0)
(2 -3.72952e-13 0)
(2.10037 -0.267115 0)
(1.83009 0.229056 0)
(1.82808 0.228862 0)
(2 3.39771e-14 0)
(1.83148 0.229044 0)
(2.04285 -0.0715434 0)
(2 -9.02047e-14 0)
(2 -5.92338e-14 0)
(2 4.14959e-14 0)
(1.82987 0.228873 0)
(2 -3.24687e-14 0)
(1.83148 0.229167 0)
(2 -2.74625e-13 0)
(1.83156 0.228993 0)
(2.10509 -0.25891 0)
(1.83183 0.230041 0)
(2.13108 -0.262205 0)
(2 -6.01136e-14 0)
(1.83145 0.229349 0)
(2.1122 -0.268925 0)
(2.10898 -0.264352 0)
(2 1.87109e-14 0)
(1.82989 0.229067 0)
(2 1.80524e-14 0)
(2 -2.30438e-14 0)
(2 1.77953e-13 0)
(1.84406 0.215369 0)
(1.83153 0.231232 0)
(1.83155 0.228945 0)
(2 -1.17533e-13 0)
(2 -2.26263e-13 0)
(2.10091 -0.266206 0)
(2 -6.51395e-14 0)
(1.9167 0.126365 0)
(2 1.16682e-14 0)
(1.8312 0.229248 0)
(2 -1.4475e-13 0)
(2 1.92309e-13 0)
(2 -1.00158e-13 0)
(2 -4.33219e-14 0)
(2.10354 -0.262957 0)
(2 -3.65504e-14 0)
(2.09837 -0.26413 0)
(2 4.14292e-14 0)
(1.82975 0.229351 0)
(2 -5.95741e-14 0)
(1.83251 0.228856 0)
(2 1.85108e-13 0)
(2 1.37276e-09 0)
(2 4.82549e-14 0)
(2 -3.48546e-13 0)
(2.13101 -0.25898 0)
(2 -5.88067e-14 0)
(2 -2.50833e-13 0)
(2.11801 -0.268164 0)
(2 1.22577e-13 0)
(2.09911 -0.261646 0)
(2 -3.3398e-13 0)
(2 -9.97778e-14 0)
(2 -4.36785e-14 0)
(2.11793 -0.268104 0)
(2 -1.76138e-13 0)
(1.8311 0.228498 0)
(1.89734 0.151133 0)
(2 1.76371e-09 0)
(1.83043 0.228364 0)
(1.8193 0.236277 0)
(2.10565 -0.264842 0)
(1.82715 0.228275 0)
(2.10694 -0.26416 0)
(2 -3.27881e-13 0)
(1.83011 0.228786 0)
(2.11348 -0.263274 0)
(1.83179 0.228858 0)
(1.82989 0.228892 0)
(2 -4.81613e-14 0)
(2 8.57249e-07 0)
(2 -5.1825e-14 0)
(2 -2.5857e-14 0)
(2.02329 -0.0448981 0)
(2.11211 -0.270267 0)
(1.83099 0.228692 0)
(2 1.56533e-13 0)
(2 -7.25714e-11 0)
(2.10849 -0.2686 0)
(2 9.13021e-14 0)
(1.83143 0.229122 0)
(2.10635 -0.267239 0)
(2 3.05236e-08 0)
(2 9.12564e-15 0)
(2 -5.36664e-14 0)
(2 2.53524e-15 0)
(1.91307 0.127216 0)
(1.82972 0.228717 0)
(2.12529 -0.261792 0)
(2 -1.73161e-09 0)
(2 -1.06272e-09 0)
(1.9596 0.0627442 0)
(2 8.71944e-09 0)
(2.1119 -0.262998 0)
(2 -2.01313e-15 0)
(1.82909 0.229136 0)
(1.82976 0.228784 0)
(2 4.67968e-09 0)
(2 -1.7707e-14 0)
(2.12035 -0.274695 0)
(2.11852 -0.271367 0)
(2.10791 -0.268391 0)
(2 -2.98485e-14 0)
(2 -1.51866e-07 0)
(2 1.01058e-13 0)
(2 -7.3642e-14 0)
(2 9.94236e-08 0)
(2.03106 -0.0547685 0)
(2 -1.08274e-07 0)
(1.85502 0.203343 0)
(1.98341 0.0232378 0)
(1.82819 0.228544 0)
(2 -2.75126e-13 0)
(1.82845 0.228735 0)
(1.82995 0.228615 0)
(1.83132 0.229149 0)
(1.82984 0.228926 0)
(2 1.52076e-13 0)
(2.12268 -0.264317 0)
(2 1.67453e-14 0)
(2.11959 -0.263406 0)
(2 -3.80842e-14 0)
(2 -1.97646e-14 0)
(2 1.1788e-13 0)
(2 9.25231e-14 0)
(1.82979 0.228705 0)
(2 2.84264e-09 0)
(2 2.0611e-13 0)
(2 -1.73295e-13 0)
(2 1.31131e-13 0)
(1.8293 0.228493 0)
(2 5.84944e-14 0)
(1.992 0.0147018 0)
(2 -4.85662e-14 0)
(2 -1.04985e-13 0)
(2 -7.2239e-11 0)
(2 1.42724e-14 0)
(2.1093 -0.265961 0)
(2 -1.18e-13 0)
(1.9951 0.00981336 0)
(2 5.96957e-14 0)
(2.10599 -0.264522 0)
(2 -2.40207e-13 0)
(2 8.60844e-14 0)
(2 -6.81936e-14 0)
(1.83098 0.229236 0)
(2 1.74487e-14 0)
(1.83139 0.229003 0)
(2.12747 -0.278266 0)
(2.12829 -0.263776 0)
(1.83023 0.228043 0)
(1.83146 0.228555 0)
(2 5.01312e-14 0)
(1.96926 0.0443409 0)
(1.90421 0.14064 0)
(2 -1.59567e-14 0)
(1.83258 0.228213 0)
(2.10411 -0.262805 0)
(1.84411 0.215146 0)
(2 -5.13126e-15 0)
(2 -2.65175e-14 0)
(2 6.27114e-15 0)
(2 1.22223e-13 0)
(1.83156 0.228834 0)
(1.85289 0.192756 0)
(2 1.01766e-14 0)
(1.83003 0.22929 0)
(2.11821 -0.265958 0)
(1.83296 0.228479 0)
(2 1.07584e-13 0)
(2.10977 -0.26353 0)
(2 -1.88065e-13 0)
(2.10055 -0.264055 0)
(2.13041 -0.259972 0)
(2.00007 -0.000136727 0)
(2 5.90142e-14 0)
(2 -1.96291e-13 0)
(1.8297 0.228348 0)
(2 -2.58263e-14 0)
(2 1.01391e-13 0)
(1.83147 0.228611 0)
(2 -3.07674e-13 0)
(1.83237 0.228911 0)
(1.83027 0.228835 0)
(2.1175 -0.269988 0)
(2 -6.26482e-14 0)
(2 -2.63673e-13 0)
(2.10916 -0.26441 0)
(1.83154 0.228795 0)
(2 -4.06605e-14 0)
(2 5.97596e-15 0)
(2 -7.74693e-14 0)
(1.83145 0.228979 0)
(2 7.17662e-14 0)
(2.11927 -0.264472 0)
(2 -6.56392e-11 0)
(2 1.76315e-13 0)
(1.83153 0.229084 0)
(1.8313 0.228923 0)
(1.83163 0.229293 0)
(2 2.0588e-14 0)
(1.99999 2.38272e-05 0)
(2 7.14938e-14 0)
(2 5.36067e-14 0)
(2 -3.84392e-13 0)
(1.83206 0.228857 0)
(2 -1.92688e-13 0)
(2.10812 -0.262381 0)
(1.8232 0.235261 0)
(1.83176 0.228738 0)
(1.83173 0.229511 0)
(2 2.02635e-07 0)
(2 2.32152e-13 0)
(2 7.56019e-14 0)
(2.11485 -0.273276 0)
(1.832 0.229183 0)
(1.92545 0.110634 0)
(2 6.04584e-14 0)
(1.83097 0.229694 0)
(2.10377 -0.260823 0)
(2.11126 -0.263583 0)
(1.83111 0.229716 0)
(1.83112 0.230438 0)
(2 9.26388e-14 0)
(1.83003 0.228972 0)
(2.1143 -0.279047 0)
(1.85149 0.20599 0)
(2 -3.2021e-13 0)
(2 -3.18271e-13 0)
(2 4.85919e-15 0)
(2 -3.54187e-13 0)
(1.83175 0.228837 0)
(2 -4.65244e-14 0)
(1.9011 0.146284 0)
(1.98299 0.0313945 0)
(2 -3.36578e-13 0)
(2 1.93027e-13 0)
(1.83163 0.228812 0)
(2.11866 -0.266011 0)
(2.08253 -0.161699 0)
(2 -1.54237e-13 0)
(1.83156 0.228943 0)
(2.12745 -0.264794 0)
(1.83131 0.227942 0)
(2 3.70048e-14 0)
(2 -2.89311e-14 0)
(2 -1.91058e-13 0)
(2 3.00958e-14 0)
(2 -5.07141e-14 0)
(2 -4.31347e-14 0)
(2 -3.8327e-15 0)
(2.10846 -0.263012 0)
(2.08251 -0.166303 0)
(2.11034 -0.262539 0)
(1.83127 0.228828 0)
(2 -1.73445e-15 0)
(2 4.16693e-13 0)
(2 -1.68167e-07 0)
(2 -7.03294e-15 0)
(1.84403 0.209311 0)
(2 -2.57174e-07 0)
(2.10554 -0.261134 0)
(2 -1.14368e-13 0)
(2.11527 -0.28427 0)
(2.10517 -0.262979 0)
(1.83191 0.228892 0)
(2.10886 -0.263839 0)
(1.83156 0.229154 0)
(2 5.15187e-14 0)
(2 -1.09368e-14 0)
(2 5.93528e-14 0)
(2.00085 -0.00162382 0)
(2.10776 -0.261587 0)
(2.11132 -0.279777 0)
(2 -3.01527e-07 0)
(2 -1.50461e-07 0)
(2.11677 -0.285464 0)
(2 2.58323e-09 0)
(1.82971 0.228697 0)
(2.1144 -0.271859 0)
(2 -5.80505e-14 0)
(2 -3.55861e-11 0)
(1.83023 0.228785 0)
(2.11128 -0.281558 0)
(2 -3.80464e-13 0)
(1.83536 0.227173 0)
(2.13323 -0.262353 0)
(1.8315 0.228808 0)
(2 -4.46445e-13 0)
(2.11179 -0.286946 0)
(2.00082 -0.00144726 0)
(2 1.13445e-14 0)
(2 3.10549e-06 0)
(2 -5.64067e-14 0)
(2.09992 -0.262932 0)
(2 -5.31982e-14 0)
(2 -1.74936e-07 0)
(2 -8.68138e-07 0)
(1.99999 1.42339e-05 0)
(1.99508 0.00253068 0)
(1.89583 0.151156 0)
(2 -2.60127e-11 0)
(2.11343 -0.253131 0)
(2 -1.63485e-11 0)
(2 1.52261e-06 0)
(2 3.90017e-14 0)
(2 -3.38952e-14 0)
(2 -7.26492e-15 0)
(2 -1.92231e-13 0)
(2 -9.00672e-13 0)
(1.8299 0.228881 0)
(2 4.89892e-13 0)
(1.82999 0.228832 0)
(2 -3.79962e-14 0)
(2 -5.72917e-15 0)
(2 5.13525e-14 0)
(2.12058 -0.260606 0)
(2 -6.71571e-14 0)
(1.82974 0.228658 0)
(2.09876 -0.261301 0)
(2 1.07065e-13 0)
(1.88324 0.164684 0)
(2 -1.18068e-13 0)
(2 -3.323e-13 0)
(1.82876 0.229443 0)
(2 -1.96899e-14 0)
(2 -8.25438e-09 0)
(2 7.77937e-14 0)
(1.83212 0.227732 0)
(2 4.69054e-10 0)
(2 -4.61881e-14 0)
(1.83526 0.21833 0)
(1.82944 0.229461 0)
(2 -2.38218e-14 0)
(1.96204 0.0580211 0)
(2 -9.11676e-14 0)
(2 5.42262e-14 0)
(2.11867 -0.26626 0)
(2 -1.95703e-13 0)
(2 -9.72206e-14 0)
(2 1.16949e-13 0)
(2.11356 -0.270096 0)
(2 1.94047e-13 0)
(2 1.3481e-13 0)
(2 -6.85592e-14 0)
(2 -1.23037e-13 0)
(2.1139 -0.262544 0)
(2 -2.2388e-14 0)
(2 8.78875e-15 0)
(2 -1.91855e-13 0)
(2 5.79999e-14 0)
(2 6.32e-14 0)
(2.086 -0.275118 0)
(1.99998 3.65542e-05 0)
(1.83141 0.228831 0)
(2 5.57305e-14 0)
(2.00001 -1.66559e-06 0)
(1.83129 0.228234 0)
(1.83021 0.228556 0)
(2 3.02059e-15 0)
(2 1.32104e-13 0)
(2.10392 -0.276499 0)
(2.05165 -0.130521 0)
(1.82907 0.228782 0)
(2 -9.82949e-14 0)
(2 -1.90406e-13 0)
(2 2.09452e-13 0)
(1.83148 0.228753 0)
(2.11568 -0.268082 0)
(2 -1.13588e-15 0)
(1.83138 0.229081 0)
(2 -6.11973e-14 0)
(2 -1.76378e-14 0)
(2.08486 -0.219468 0)
(2.10266 -0.215385 0)
(2 -9.44502e-14 0)
(2.11837 -0.264436 0)
(2.10464 -0.266095 0)
(2 -2.4989e-14 0)
(2 4.21781e-14 0)
(2 -6.03223e-14 0)
(2 -6.04112e-14 0)
(2 -8.75329e-11 0)
(2 1.136e-13 0)
(2 -5.4126e-14 0)
(1.8279 0.228228 0)
(1.95755 0.0652888 0)
(1.84216 0.218425 0)
(2.08758 -0.271583 0)
(2.03431 -0.0596229 0)
(1.82968 0.228988 0)
(2 -5.00716e-13 0)
(1.8294 0.228231 0)
(1.82901 0.228788 0)
(2.10735 -0.266177 0)
(2.06652 -0.152115 0)
(2 4.37373e-13 0)
(2.12481 -0.265326 0)
(2 5.33462e-14 0)
(1.82086 0.236092 0)
(2 -3.04036e-13 0)
(2 -8.73361e-14 0)
(2 8.0018e-14 0)
(2 -1.00197e-14 0)
(1.83153 0.228766 0)
(2 -1.86002e-13 0)
(2 1.58006e-14 0)
(2 -7.31257e-14 0)
(2 1.58748e-09 0)
(2 -8.87437e-14 0)
(2 -2.79106e-13 0)
(2 -5.16493e-13 0)
(1.93732 0.0928791 0)
(1.83125 0.229309 0)
(2 -7.62458e-14 0)
(1.83128 0.228851 0)
(2 3.99375e-13 0)
(2 -1.01813e-13 0)
(2.11012 -0.262858 0)
(2 -2.50718e-14 0)
(2 -5.84191e-14 0)
(2 -1.76546e-13 0)
(2 -1.04831e-13 0)
(1.83146 0.229001 0)
(1.8723 0.182181 0)
(2 -1.61572e-13 0)
(2 -2.48205e-13 0)
(2.11642 -0.264814 0)
(1.83203 0.228951 0)
(1.83166 0.229178 0)
(2 5.59798e-14 0)
(1.83165 0.229164 0)
(1.83159 0.228789 0)
(1.8313 0.228873 0)
(2 5.06355e-14 0)
(2.04812 -0.115941 0)
(2 -2.608e-13 0)
(1.83195 0.228941 0)
(2.00133 -0.00811051 0)
(1.83129 0.228882 0)
(2 -8.62589e-14 0)
(2.1147 -0.265697 0)
(2.00039 -0.00075648 0)
(1.82794 0.228267 0)
(2 -1.25373e-13 0)
(2 -3.81436e-14 0)
(2 -4.85673e-11 0)
(2 -2.25203e-11 0)
(2.11143 -0.261629 0)
(1.832 0.228861 0)
(1.84806 0.210217 0)
(2 3.24314e-14 0)
(1.83292 0.227991 0)
(1.83157 0.228831 0)
(1.82926 0.228767 0)
(2 1.10545e-13 0)
(1.921 0.127325 0)
(1.83103 0.22929 0)
(2 4.37062e-14 0)
(2 -9.80519e-14 0)
(1.88404 0.168268 0)
(1.9795 0.0393315 0)
(1.83144 0.228982 0)
(2.01539 -0.0483812 0)
(1.83144 0.228982 0)
(2 3.78003e-14 0)
(1.83136 0.228887 0)
(1.83141 0.22874 0)
(1.83135 0.228908 0)
(1.83216 0.229127 0)
(2 -5.95565e-14 0)
(1.84201 0.215198 0)
(2.03641 -0.0593408 0)
(2.04595 -0.0811398 0)
(2 1.33468e-14 0)
(2 -3.79161e-07 0)
(2 -1.56067e-13 0)
(2 -1.79648e-13 0)
(1.82937 0.229731 0)
(2 -1.23358e-14 0)
(2 2.22926e-15 0)
(2 4.25135e-14 0)
(2 4.82934e-14 0)
(2 4.51301e-14 0)
(1.82752 0.22833 0)
(2 -1.24581e-14 0)
(2 1.8928e-13 0)
(2.00158 -0.00246254 0)
(1.83174 0.229174 0)
(1.85093 0.212256 0)
(2 -4.6292e-13 0)
(1.85528 0.209124 0)
(1.99998 2.46276e-05 0)
(2 1.63459e-13 0)
(2 -3.75733e-13 0)
(1.83215 0.229426 0)
(2 1.01206e-13 0)
(2.00156 -0.00250657 0)
(1.99874 0.00337058 0)
(2 4.12393e-14 0)
(1.83146 0.228885 0)
(2 6.974e-14 0)
(1.83209 0.229451 0)
(2 3.16447e-14 0)
(2 -7.06822e-15 0)
(1.87299 0.180412 0)
(2 1.10307e-13 0)
(1.83213 0.2293 0)
(1.99999 1.28475e-05 0)
(2 -3.60303e-13 0)
(1.83222 0.228495 0)
(2 -3.13783e-14 0)
(1.83153 0.229 0)
(2 -1.82229e-14 0)
(2 3.08463e-06 0)
(2 3.23466e-14 0)
(1.83166 0.228653 0)
(2 5.19712e-14 0)
(1.82997 0.231327 0)
(2 4.81142e-06 0)
(1.83164 0.228819 0)
(1.82825 0.228204 0)
(1.83172 0.22872 0)
(1.82847 0.228134 0)
(2 7.87099e-14 0)
(1.83029 0.229521 0)
(1.82776 0.229173 0)
(2 1.75062e-13 0)
(2.11497 -0.268122 0)
(1.84188 0.21703 0)
(1.87959 0.172432 0)
(2 -6.99955e-14 0)
(1.83162 0.228683 0)
(2 1.7931e-13 0)
(2.11607 -0.263855 0)
(2.13576 -0.260738 0)
(2 -5.13221e-14 0)
(2 1.4059e-14 0)
(2 1.82262e-14 0)
(2 -4.26219e-13 0)
(2 1.34286e-09 0)
(2.10364 -0.26753 0)
(2 -3.7301e-14 0)
(1.83128 0.228871 0)
(1.95658 0.0654292 0)
(1.83218 0.229174 0)
(2 -1.5159e-13 0)
(2 8.03172e-11 0)
(2 -6.17923e-14 0)
(2 -4.742e-14 0)
(2 -5.46428e-08 0)
(1.83142 0.228745 0)
(2 -1.62113e-13 0)
(1.83066 0.230718 0)
(1.89884 0.147602 0)
(2.06718 -0.154874 0)
(2 1.34154e-09 0)
(2 5.36367e-06 0)
(1.94732 0.0779604 0)
(1.96522 0.060573 0)
(2 -4.09564e-14 0)
(2 -2.08884e-13 0)
(1.94007 0.0938013 0)
(2 4.95367e-14 0)
(2.10605 -0.262539 0)
(1.83172 0.228886 0)
(1.83175 0.228896 0)
(2 -7.65765e-11 0)
(2 1.5845e-13 0)
(2 -2.05826e-14 0)
(1.82826 0.228282 0)
(2 -4.61027e-14 0)
(1.99999 1.52109e-05 0)
(1.83187 0.229762 0)
(1.83212 0.229054 0)
(2.01498 -0.041938 0)
(2 2.16595e-13 0)
(2 1.41807e-10 0)
(2.10117 -0.260976 0)
(1.84665 0.210996 0)
(2 1.28185e-14 0)
(2 -2.56824e-13 0)
(2 2.56339e-14 0)
(2 -3.00833e-11 0)
(2 -2.47375e-13 0)
(1.83158 0.229069 0)
(1.82968 0.229388 0)
(2 -4.83123e-14 0)
(1.83203 0.228369 0)
(1.83043 0.230139 0)
(1.83158 0.228753 0)
(2 1.03027e-13 0)
(2 -5.47752e-14 0)
(2 -6.10907e-11 0)
(2 4.49563e-14 0)
(2.11738 -0.270733 0)
(1.83003 0.229123 0)
(2 -4.70804e-11 0)
(2 5.33702e-16 0)
(1.84692 0.210739 0)
(1.83199 0.228402 0)
(2 1.13478e-13 0)
(1.8411 0.217848 0)
(1.82995 0.229039 0)
(2 5.08774e-15 0)
(2 -2.16214e-07 0)
(2 8.73394e-11 0)
(2 -9.27196e-14 0)
(2 1.90915e-14 0)
(1.83155 0.228912 0)
(2 -6.46159e-14 0)
(2 8.77205e-14 0)
(2 -9.35561e-14 0)
(2 -1.0366e-13 0)
(1.83022 0.231227 0)
(2 -1.14769e-13 0)
(1.8402 0.223674 0)
(2.11472 -0.263802 0)
(2 -1.7683e-13 0)
(2.10859 -0.266806 0)
(2 3.54512e-14 0)
(2 -1.31622e-07 0)
(2 2.68672e-14 0)
(2.00119 -0.00176555 0)
(2.11164 -0.262355 0)
(2.00031 -0.0005967 0)
(2 -6.19956e-14 0)
(2 1.98939e-14 0)
(2 -1.20693e-07 0)
(1.97302 0.0382192 0)
(2 -9.50858e-14 0)
(2 -8.09553e-14 0)
(2.03672 -0.0877853 0)
(2 -2.16104e-07 0)
(2 -1.3011e-14 0)
(2 -3.23611e-14 0)
(2 -2.13534e-07 0)
(2 3.96361e-07 0)
(2 -1.68348e-07 0)
(2 -1.05811e-15 0)
(2 -1.73336e-06 0)
(2.02489 -0.0414651 0)
(2 -5.29539e-07 0)
(2 -3.88284e-08 0)
(2.00102 -0.00135051 0)
(2 -1.77489e-14 0)
(2.10726 -0.2593 0)
(2 -2.99756e-11 0)
(2 -4.53224e-12 0)
(2 -3.85371e-11 0)
(2 5.53874e-14 0)
(1.87396 0.180364 0)
(2 4.05808e-15 0)
(2 4.23156e-14 0)
(2 -1.29193e-13 0)
(2 -1.669e-07 0)
(2.09349 -0.258486 0)
(2 -2.53952e-14 0)
(2 1.4147e-09 0)
(1.84057 0.218343 0)
(1.8307 0.229407 0)
(2 -3.03752e-07 0)
(2 1.7085e-14 0)
(2 -1.18075e-07 0)
(2.04049 -0.0812343 0)
(2 -2.27093e-14 0)
(2 4.25801e-10 0)
(2 3.44212e-14 0)
(2 2.58569e-14 0)
(2 7.14578e-14 0)
(2 1.52059e-13 0)
(2.01799 -0.0373179 0)
(1.9964 0.00187462 0)
(1.83215 0.228833 0)
(2 -7.38112e-14 0)
(2 -9.46262e-14 0)
(2 7.66715e-16 0)
(1.83138 0.230526 0)
(2.0327 -0.0672815 0)
(2 -4.94119e-09 0)
(2 2.62414e-13 0)
(2 -2.42436e-14 0)
(1.83174 0.229208 0)
(1.83025 0.229033 0)
(2 -3.13391e-08 0)
(2 5.19434e-06 0)
(2 3.10072e-09 0)
(2 -7.65575e-14 0)
(2 1.36226e-09 0)
(2 -5.72393e-14 0)
(2 3.49535e-12 0)
(2 -8.75173e-14 0)
(2 -2.3299e-14 0)
(2.1123 -0.261528 0)
(2 -7.26378e-14 0)
(2 -1.2762e-11 0)
(1.82877 0.22868 0)
(2.11996 -0.264056 0)
(2 -1.53482e-13 0)
(1.82886 0.228531 0)
(2 6.66198e-11 0)
(2.11363 -0.267279 0)
(2 -3.71819e-14 0)
(2 1.15833e-14 0)
(2.10809 -0.26651 0)
(2 -2.48134e-13 0)
(2 -1.02906e-11 0)
(2 -5.83284e-12 0)
(2 1.91192e-14 0)
(2 -2.69383e-12 0)
(2 -3.35997e-14 0)
(2 1.27074e-13 0)
(1.835 0.225315 0)
(1.83195 0.228641 0)
(2 4.1003e-13 0)
(2 -5.07096e-14 0)
(2 9.5867e-14 0)
(2 5.44354e-13 0)
(1.84633 0.212305 0)
(2 3.0615e-13 0)
(1.94327 0.0863447 0)
(2.11977 -0.267835 0)
(2 -2.53477e-08 0)
(2 2.65223e-13 0)
(2 -6.32988e-14 0)
(2 -1.31845e-13 0)
(2 1.59444e-13 0)
(2 2.8908e-14 0)
(2 -1.9136e-14 0)
(1.9827 0.0255188 0)
(2 8.11049e-15 0)
(2 -1.44087e-13 0)
(1.9035 0.131136 0)
(2 -4.09801e-15 0)
(2 1.14865e-13 0)
(2 -1.65535e-13 0)
(1.85974 0.19681 0)
(2 -2.22067e-13 0)
(2 -3.34518e-14 0)
(2 -2.85898e-13 0)
(2 -1.5534e-13 0)
(2.12365 -0.266368 0)
(2 2.2191e-12 0)
(2 1.45301e-13 0)
(2.11519 -0.27657 0)
(2.12539 -0.26638 0)
(2 -3.20581e-13 0)
(2 -1.6624e-13 0)
(1.83187 0.22892 0)
(2 -1.32873e-13 0)
(1.9669 -0.00922555 0)
(2 -4.09059e-14 0)
(2 -6.15229e-14 0)
(2 -2.24664e-14 0)
(1.88174 0.170621 0)
(2.1082 -0.269536 0)
(2 1.15901e-14 0)
(2.11542 -0.275976 0)
(2 -3.90128e-14 0)
(2.06778 -0.160361 0)
(2 -4.3645e-13 0)
(2 7.65125e-14 0)
(2 3.79861e-14 0)
(1.83008 0.228098 0)
(2 -3.73885e-08 0)
(2 -4.21805e-13 0)
(1.8315 0.228885 0)
(2 -8.48611e-14 0)
(2 -2.71275e-11 0)
(2 1.6678e-09 0)
(1.83147 0.228967 0)
(2 2.11496e-10 0)
(2 -3.16064e-14 0)
(1.83182 0.229105 0)
(2 -1.61926e-13 0)
(2 -6.57616e-14 0)
(2.10942 -0.266945 0)
(2 -1.75642e-11 0)
(1.94082 0.0854823 0)
(2 -1.15732e-14 0)
(2 4.45083e-14 0)
(1.82953 0.228798 0)
(1.83024 0.228762 0)
(1.88718 0.16201 0)
(1.8498 0.207592 0)
(2 2.39023e-13 0)
(2.11576 -0.267367 0)
(2 7.62229e-14 0)
(2 1.40082e-13 0)
(1.83835 0.220704 0)
(2 1.09401e-13 0)
(2.1297 -0.263143 0)
(2 1.28003e-13 0)
(2 -1.27076e-13 0)
(2 -7.82445e-14 0)
(1.83121 0.22931 0)
(2 -1.27411e-13 0)
(2 4.05619e-14 0)
(2 -1.56602e-13 0)
(2 -1.66657e-13 0)
(1.89883 0.145334 0)
(2 2.15393e-13 0)
(1.85052 0.21168 0)
(1.83071 0.22873 0)
(2.11183 -0.270006 0)
(2 -4.5981e-13 0)
(2 -1.75815e-13 0)
(2.13645 -0.257688 0)
(2.13775 -0.258495 0)
(2 5.63814e-14 0)
(2 -1.41207e-14 0)
(2 -6.55939e-12 0)
(1.88015 0.172809 0)
(1.87096 0.183934 0)
(2 1.69718e-13 0)
(2 -1.24069e-13 0)
(2 1.74938e-14 0)
(2 -9.77733e-14 0)
(2 -2.94282e-14 0)
(2 -8.55804e-14 0)
(2 -1.82037e-13 0)
(1.92722 0.103339 0)
(1.8291 0.228522 0)
(1.98961 0.000611812 0)
(2 -2.09054e-14 0)
(1.83397 0.226982 0)
(2.12582 -0.266442 0)
(2 7.47051e-14 0)
(2 9.17087e-14 0)
(2 -9.79093e-14 0)
(1.90709 0.138815 0)
(2 -5.18433e-14 0)
(1.96816 0.0555157 0)
(2 9.02411e-14 0)
(1.84606 0.210971 0)
(1.83233 0.228407 0)
(2 1.1426e-13 0)
(2.11303 -0.265911 0)
(2 5.17206e-14 0)
(1.83355 0.228921 0)
(2 -1.37334e-13 0)
(2 8.53401e-14 0)
(1.83136 0.228965 0)
(1.84151 0.217614 0)
(2 -1.99336e-14 0)
(1.82614 0.230498 0)
(2 -1.13068e-13 0)
(2.12676 -0.260273 0)
(2 -1.92894e-14 0)
(2 -1.71271e-13 0)
(2 1.95773e-15 0)
(1.8331 0.232363 0)
(1.83531 0.225096 0)
(1.8515 0.205559 0)
(2 2.67024e-13 0)
(1.8298 0.22809 0)
(1.83139 0.228724 0)
(2 1.56391e-13 0)
(1.83095 0.229538 0)
(2 -8.513e-09 0)
(1.83253 0.228189 0)
(2 -1.1627e-13 0)
(2.12739 -0.266197 0)
(2.00702 -0.0197161 0)
(2.12671 -0.261866 0)
(2 -3.33187e-11 0)
(2 -2.39198e-11 0)
(2 -3.60179e-11 0)
(2 -4.36404e-13 0)
(2 -1.4057e-11 0)
(1.83239 0.229301 0)
(2 7.41055e-15 0)
(1.83195 0.229008 0)
(2 -4.28423e-11 0)
(2 -9.77586e-11 0)
(2 2.0945e-14 0)
(1.83967 0.220222 0)
(2 -1.39581e-13 0)
(2.11764 -0.267454 0)
(1.83139 0.2289 0)
(2 -2.7444e-14 0)
(2.1166 -0.26479 0)
(2.10532 -0.247244 0)
(2.12181 -0.255306 0)
(2 -1.14468e-13 0)
(1.91682 0.123207 0)
(1.98232 0.0218384 0)
(1.83123 0.229765 0)
(1.83135 0.228762 0)
(2 -1.1449e-13 0)
(2 -3.1546e-07 0)
(2 -4.97218e-08 0)
(2 1.11083e-13 0)
(1.83146 0.228623 0)
(2 -3.77427e-14 0)
(2 -9.78516e-15 0)
(1.83159 0.228661 0)
(1.83141 0.228744 0)
(2 -3.27204e-13 0)
(1.93751 0.0924596 0)
(1.99977 0.000882542 0)
(2 -3.7496e-14 0)
(2.0012 -0.00208191 0)
(1.82928 0.228723 0)
(2.05524 -0.100023 0)
(2 -1.17606e-07 0)
(2.06419 -0.115418 0)
(2.10531 -0.262847 0)
(2.10731 -0.263939 0)
(2.01177 -0.0262774 0)
(1.83173 0.22891 0)
(1.83413 0.226254 0)
(1.96518 0.0456998 0)
(1.83119 0.229067 0)
(1.83127 0.228771 0)
(2 2.15914e-13 0)
(2 1.78212e-13 0)
(1.82756 0.228648 0)
(1.82948 0.228388 0)
(1.8315 0.228936 0)
(1.82821 0.228984 0)
(2 7.24753e-14 0)
(1.83171 0.229088 0)
(2.12374 -0.266678 0)
(1.82949 0.231327 0)
(1.83164 0.228792 0)
(1.82853 0.228742 0)
(1.83201 0.22851 0)
(2.04237 -0.0962095 0)
(2.03156 -0.0627169 0)
(2.02933 -0.0460146 0)
(1.83186 0.229161 0)
(2.017 -0.0290723 0)
(1.83123 0.228046 0)
(2 -2.15475e-13 0)
(2 -1.2546e-13 0)
(1.83123 0.229827 0)
(1.83079 0.228628 0)
(2 3.13065e-14 0)
(2.12339 -0.265618 0)
(1.83047 0.227518 0)
(1.83163 0.228867 0)
(2 1.54035e-14 0)
(1.83177 0.229036 0)
(1.83168 0.228861 0)
(2 -5.26638e-14 0)
(1.83154 0.228597 0)
(2.10093 -0.259707 0)
(1.83 0.229256 0)
(1.82786 0.228603 0)
(1.82969 0.228894 0)
(1.83074 0.227837 0)
(2 1.14002e-14 0)
(2 2.66563e-14 0)
(2 -1.05569e-07 0)
(1.8318 0.228988 0)
(1.89127 0.156349 0)
(2.1135 -0.252407 0)
(1.83149 0.228979 0)
(2.12262 -0.269699 0)
(1.83187 0.229015 0)
(2 -3.35921e-14 0)
(2 -7.32944e-14 0)
(2 -3.31633e-14 0)
(2 -1.34163e-13 0)
(1.83113 0.229547 0)
(1.83146 0.229142 0)
(2 -2.02499e-14 0)
(2 1.47267e-13 0)
(1.83148 0.229109 0)
(2.11527 -0.269598 0)
(1.83112 0.229706 0)
(2.10504 -0.261979 0)
(2 -1.70122e-14 0)
(1.83313 0.227724 0)
(2 -1.29837e-13 0)
(2.10096 -0.268585 0)
(1.83108 0.229914 0)
(2.08033 -0.200646 0)
(2 2.58464e-14 0)
(1.83135 0.228787 0)
(1.83053 0.230214 0)
(1.83192 0.228647 0)
(2 -2.52882e-13 0)
(2 2.95947e-13 0)
(1.92033 0.120524 0)
(1.83081 0.229898 0)
(2.11898 -0.263033 0)
(1.83202 0.22877 0)
(2 -5.84575e-14 0)
(1.83197 0.228903 0)
(2.04153 -0.0821343 0)
(1.83203 0.229201 0)
(2.10165 -0.265791 0)
(2 -8.89014e-14 0)
(1.83128 0.230059 0)
(2.1161 -0.233762 0)
(1.83129 0.229874 0)
(2.11474 -0.266066 0)
(2 -1.20983e-13 0)
(1.83114 0.229329 0)
(2 -1.01305e-14 0)
(1.83089 0.229437 0)
(2 -1.31819e-14 0)
(1.90236 0.143557 0)
(1.83777 0.22181 0)
(1.86778 0.184464 0)
(2.1327 -0.272258 0)
(2 -1.75581e-13 0)
(1.8309 0.228737 0)
(2 1.32985e-13 0)
(1.83195 0.22892 0)
(2 -1.20284e-07 0)
(1.83171 0.229113 0)
(2 -2.33219e-07 0)
(2 -3.18496e-13 0)
(1.83119 0.228785 0)
(1.99833 -0.0173968 0)
(1.82996 0.229921 0)
(2.1037 -0.270669 0)
(1.86213 0.198344 0)
(2 -1.1313e-13 0)
(1.87978 0.172563 0)
(2 -1.67424e-13 0)
(1.83025 0.228434 0)
(1.83188 0.229051 0)
(1.83096 0.228059 0)
(2 -1.11931e-13 0)
(1.84844 0.208721 0)
(1.83131 0.229388 0)
(1.84342 0.215316 0)
(1.89714 0.148502 0)
(1.83554 0.228963 0)
(2 -1.5264e-13 0)
(1.88888 0.158868 0)
(2 -9.68405e-14 0)
(1.83095 0.229304 0)
(2 -2.46716e-13 0)
(1.97368 0.0454778 0)
(2 2.44318e-13 0)
(1.84426 0.213945 0)
(2 -1.90451e-14 0)
(1.83199 0.228835 0)
(1.83921 0.219984 0)
(1.83982 0.219962 0)
(2 9.92646e-14 0)
(1.82734 0.233547 0)
(2.13703 -0.261997 0)
(2 7.05844e-14 0)
(2.11358 -0.265683 0)
(2 -3.06249e-13 0)
(2 -7.11968e-14 0)
(2 8.1786e-15 0)
(1.8309 0.228248 0)
(2 -1.50362e-13 0)
(1.83165 0.229308 0)
(2 -3.49717e-14 0)
(2 -2.51826e-13 0)
(2 -1.63937e-13 0)
(1.83109 0.22941 0)
(1.84494 0.219377 0)
(1.86601 0.187467 0)
(1.83063 0.22993 0)
(1.83049 0.230293 0)
(2.10847 -0.266585 0)
(1.83159 0.229133 0)
(1.83279 0.229124 0)
(2 6.24619e-15 0)
(1.86045 0.19321 0)
(1.8319 0.228843 0)
(1.83489 0.234978 0)
(2 -2.66526e-13 0)
(1.83317 0.228995 0)
(1.83196 0.228846 0)
(2 -7.72526e-14 0)
(1.82678 0.230466 0)
(1.83097 0.228845 0)
(1.83091 0.228505 0)
(1.83082 0.229914 0)
(2 -1.78436e-13 0)
(2 7.37252e-14 0)
(2 1.95005e-13 0)
(1.83194 0.228875 0)
(2.11943 -0.267621 0)
(2 -1.22829e-13 0)
(1.83149 0.228998 0)
(2 -9.89033e-14 0)
(2 -5.99842e-14 0)
(2.13443 -0.259193 0)
(2 -8.0622e-14 0)
(2 1.04297e-13 0)
(1.83138 0.228822 0)
(1.83155 0.229436 0)
(2 -4.12644e-14 0)
(1.83192 0.22891 0)
(1.83458 0.229818 0)
(1.83023 0.228616 0)
(2.00617 -0.0192963 0)
(1.83138 0.228928 0)
(2 -7.48316e-14 0)
(1.83137 0.229031 0)
(1.83163 0.228959 0)
(1.86046 0.194247 0)
(2 5.90577e-14 0)
(2 -1.20767e-13 0)
(2 6.47752e-14 0)
(1.83134 0.229802 0)
(1.83131 0.228689 0)
(1.83166 0.228984 0)
(2.0159 -0.0339594 0)
(2 -5.45761e-14 0)
(1.83024 0.232125 0)
(1.83136 0.228808 0)
(1.8306 0.228441 0)
(2 -6.86794e-14 0)
(1.83148 0.228794 0)
(1.83131 0.229462 0)
(1.83125 0.228991 0)
(1.82979 0.232748 0)
(2 -9.50885e-14 0)
(1.8317 0.228852 0)
(1.83057 0.230552 0)
(1.85534 0.203182 0)
(1.83148 0.229914 0)
(1.8304 0.231466 0)
(2 4.8648e-14 0)
(1.82908 0.232842 0)
(1.83352 0.22676 0)
(1.83165 0.228997 0)
(1.82996 0.230949 0)
(1.8316 0.229272 0)
(2.13085 -0.262245 0)
(1.83135 0.22907 0)
(1.83116 0.230261 0)
(2 -6.85757e-15 0)
(1.83131 0.228848 0)
(1.83147 0.229037 0)
(1.83141 0.228772 0)
(1.8321 0.228817 0)
(2 -4.59939e-08 0)
(1.83141 0.22911 0)
(1.83133 0.229045 0)
(2 -1.68896e-07 0)
(1.83177 0.228986 0)
(1.8591 0.197356 0)
(2 -2.74842e-13 0)
(2 -7.05367e-14 0)
(2 4.42395e-10 0)
(1.83094 0.230131 0)
(1.83177 0.229393 0)
(2 6.32543e-15 0)
(2 3.34745e-14 0)
(1.90532 0.138492 0)
(2 3.41854e-14 0)
(1.83188 0.228992 0)
(2 1.89282e-13 0)
(2 -3.41554e-14 0)
(1.83134 0.228852 0)
(1.83081 0.229648 0)
(1.83153 0.228926 0)
(1.83132 0.22873 0)
(2 1.91397e-15 0)
(2 2.07885e-14 0)
(2 1.44933e-13 0)
(1.88104 0.171241 0)
(2 2.72191e-13 0)
(1.83176 0.228884 0)
(2 1.62494e-13 0)
(2 1.3632e-14 0)
(1.82797 0.228601 0)
(1.82786 0.228658 0)
(2 -2.90928e-14 0)
(1.83168 0.228938 0)
(2.11999 -0.276837 0)
(1.83153 0.228601 0)
(1.83161 0.229037 0)
(2.09831 -0.206961 0)
(2 -1.05502e-13 0)
(2.12833 -0.272656 0)
(1.85351 0.204562 0)
(1.83218 0.228545 0)
(1.83224 0.228295 0)
(1.8323 0.228484 0)
(2.11356 -0.262613 0)
(1.83127 0.229377 0)
(1.83125 0.229581 0)
(2.11575 -0.262405 0)
(2.11131 -0.279996 0)
(2 -2.46665e-07 0)
(1.83157 0.228977 0)
(1.83172 0.228768 0)
(2 -6.49957e-14 0)
(2 3.28293e-14 0)
(1.83154 0.2289 0)
(2 -3.9972e-13 0)
(1.83454 0.229006 0)
(2 2.20481e-06 0)
(1.85077 0.206067 0)
(2 1.63217e-14 0)
(1.92289 0.117103 0)
(1.83154 0.229318 0)
(1.83077 0.230286 0)
(1.88084 0.173459 0)
(1.84599 0.217418 0)
(1.83262 0.229039 0)
(1.83006 0.228985 0)
(1.8338 0.232636 0)
(2 -2.01519e-14 0)
(2.12291 -0.264556 0)
(1.83039 0.229382 0)
(1.83178 0.228815 0)
(1.82808 0.230975 0)
(2 7.22268e-06 0)
(2 3.7343e-10 0)
(2 1.53023e-09 0)
(1.82829 0.228997 0)
(2 -1.71682e-14 0)
(1.8317 0.228943 0)
(1.83274 0.22925 0)
(2.08407 -0.184804 0)
(2 -5.51615e-14 0)
(1.83171 0.228881 0)
(2.00002 -3.96154e-05 0)
(2 1.47705e-14 0)
(1.99999 1.9678e-05 0)
(1.99998 2.92989e-05 0)
(1.83188 0.228713 0)
(1.83083 0.228432 0)
(2.00053 -0.000912787 0)
(2 -2.20558e-13 0)
(2 -7.49243e-14 0)
(1.83193 0.228962 0)
(1.83054 0.229691 0)
(1.83152 0.229084 0)
(1.83132 0.229121 0)
(1.83077 0.228776 0)
(2.11429 -0.244971 0)
(1.84862 0.223595 0)
(2 1.75596e-13 0)
(1.83303 0.227702 0)
(1.83159 0.229096 0)
(1.83175 0.228874 0)
(1.83471 0.228962 0)
(2 -1.6361e-13 0)
(1.83198 0.228858 0)
(1.83656 0.223524 0)
(1.83073 0.22953 0)
(2 -1.17489e-13 0)
(1.83139 0.228284 0)
(1.83056 0.229604 0)
(2.04101 -0.0972071 0)
(1.83211 0.228854 0)
(1.83132 0.228393 0)
(2 2.01887e-14 0)
(1.8311 0.229134 0)
(2.04694 -0.104339 0)
(1.83065 0.228487 0)
(2.04813 -0.104297 0)
(1.83177 0.228888 0)
(2 -1.28807e-07 0)
(1.83142 0.228871 0)
(1.82508 0.233731 0)
(1.8319 0.22906 0)
(1.83165 0.22912 0)
(1.83141 0.22888 0)
(1.83025 0.22858 0)
(1.83129 0.22929 0)
(1.82874 0.228254 0)
(2 -1.7801e-13 0)
(2.02253 -0.0476281 0)
(1.83069 0.228497 0)
(1.8319 0.229279 0)
(2.05421 -0.103158 0)
(1.83174 0.228842 0)
(2.00113 -0.00752583 0)
(1.89766 0.148346 0)
(1.83099 0.22869 0)
(1.83054 0.228334 0)
(1.82975 0.230175 0)
(2 1.12738e-15 0)
(1.8301 0.229834 0)
(1.89103 0.154589 0)
(1.83043 0.230057 0)
(2.01181 -0.0522135 0)
(1.83021 0.229773 0)
(1.82594 0.229082 0)
(2 -2.87945e-14 0)
(2.05033 -0.0905555 0)
(2 -5.53481e-09 0)
(1.83495 0.228595 0)
(2 1.53031e-13 0)
(1.88392 0.168008 0)
(2 3.59369e-09 0)
(1.83496 0.216523 0)
(2.04756 -0.0852364 0)
(2 -3.91557e-14 0)
(1.83118 0.229722 0)
(1.82686 0.233861 0)
(2 -6.30867e-14 0)
(1.83159 0.230133 0)
(1.83122 0.229868 0)
(1.82993 0.231515 0)
(1.83028 0.235734 0)
(1.8278 0.23243 0)
(2 5.13812e-14 0)
(1.83101 0.229308 0)
(2 -4.28303e-14 0)
(2 5.10792e-14 0)
(2 -4.60961e-14 0)
(2.03563 -0.065326 0)
(1.83182 0.229033 0)
(1.83163 0.228544 0)
(1.8319 0.228306 0)
(1.83177 0.228927 0)
(1.83458 0.227636 0)
(1.83163 0.228297 0)
(1.83537 0.226228 0)
(1.83169 0.229344 0)
(2.03702 -0.0701353 0)
(1.9862 0.0234826 0)
(2 3.58321e-09 0)
(2 1.24372e-13 0)
(1.82516 0.233374 0)
(1.83173 0.229183 0)
(1.8314 0.22908 0)
(1.83175 0.229028 0)
(1.99999 1.65415e-05 0)
(1.91698 0.122769 0)
(2 -1.67819e-07 0)
(1.82711 0.230869 0)
(1.86655 0.202866 0)
(2 -2.79044e-12 0)
(2 -5.49311e-11 0)
(2.09056 -0.1885 0)
(1.83163 0.229018 0)
(2 1.84352e-13 0)
(2 -3.96285e-14 0)
(2.12397 -0.267073 0)
(1.83153 0.228897 0)
(2 6.76339e-14 0)
(1.83129 0.228952 0)
(1.83166 0.228867 0)
(1.83262 0.228939 0)
(1.83808 0.22132 0)
(1.83145 0.228904 0)
(2 -1.46887e-10 0)
(2.12805 -0.26683 0)
(1.95491 0.0666688 0)
(1.83119 0.229028 0)
(1.83139 0.228843 0)
(2 1.06434e-13 0)
(1.83176 0.229132 0)
(1.83128 0.228907 0)
(1.91946 0.12482 0)
(2.00048 0.00471423 0)
(1.96438 0.0584318 0)
(2 3.80522e-14 0)
(1.83102 0.229136 0)
(1.83147 0.228952 0)
(2 -1.18847e-07 0)
(2 -2.21555e-10 0)
(2.11923 -0.263835 0)
(2 -2.42492e-10 0)
(2 -1.16139e-13 0)
(1.83191 0.228973 0)
(1.83163 0.229038 0)
(1.83168 0.228377 0)
(1.83149 0.228959 0)
(1.83122 0.229016 0)
(1.82739 0.229654 0)
(1.83109 0.229128 0)
(1.83164 0.228063 0)
(1.83136 0.228766 0)
(2 1.94034e-13 0)
(2.00153 -0.00273558 0)
(1.831 0.228852 0)
(1.83198 0.228971 0)
(2.00128 -0.00170764 0)
(1.83134 0.228922 0)
(1.83142 0.228924 0)
(2.12337 -0.262716 0)
(2.10854 -0.268211 0)
(1.83112 0.229771 0)
(1.83192 0.228686 0)
(2 -7.56303e-14 0)
(2 2.58328e-13 0)
(1.99942 0.00218714 0)
(1.83154 0.228947 0)
(1.83161 0.228148 0)
(1.83159 0.228936 0)
(2 1.05785e-09 0)
(1.83138 0.228879 0)
(2 -7.54593e-14 0)
(2.05309 -0.0937897 0)
(1.82785 0.231054 0)
(1.83814 0.230815 0)
(2 -1.73982e-13 0)
(1.92007 0.114745 0)
(1.83202 0.229416 0)
(2 -4.93467e-14 0)
(1.82907 0.229529 0)
(2 -1.01136e-10 0)
(1.83188 0.228859 0)
(1.88447 0.157248 0)
(1.83145 0.229125 0)
(2 1.36859e-11 0)
(1.83136 0.229878 0)
(1.82743 0.230072 0)
(2.12009 -0.264371 0)
(1.83145 0.228975 0)
(2 -1.41843e-07 0)
(1.83094 0.230114 0)
(1.82906 0.228052 0)
(2 7.31976e-09 0)
(2.12085 -0.262175 0)
(1.8303 0.23023 0)
(1.85305 0.218123 0)
(2.00086 -0.00125216 0)
(1.84882 0.215278 0)
(1.83148 0.229013 0)
(2 -5.65511e-12 0)
(2.00151 -0.0106113 0)
(1.82943 0.232172 0)
(2.00193 -0.00132947 0)
(1.83158 0.228795 0)
(2 -3.54673e-12 0)
(2 -2.04389e-13 0)
(1.83095 0.229972 0)
(2 2.76413e-13 0)
(1.83083 0.230299 0)
(1.83123 0.228947 0)
(2.00138 -0.00209613 0)
(1.85898 0.191756 0)
(2 3.14649e-09 0)
(1.8313 0.229016 0)
(2 1.59012e-09 0)
(2 -7.85256e-13 0)
(2 1.13855e-11 0)
(2 6.46566e-12 0)
(1.8318 0.229106 0)
(2 7.11616e-09 0)
(2 -1.01926e-13 0)
(1.83392 0.232416 0)
(2 1.08346e-13 0)
(1.83122 0.22907 0)
(2 3.00719e-10 0)
(1.89297 0.155972 0)
(1.83148 0.226776 0)
(1.83194 0.228594 0)
(2 1.02637e-09 0)
(2 -9.0354e-14 0)