/*--------------------------------*- C++ -*----------------------------------*\
  =========                 |
  \\      /  F ield         | OpenFOAM: The Open Source CFD Toolbox
   \\    /   O peration     | Website:  https://openfoam.org
    \\  /    A nd           | Version:  12
     \\/     M anipulation  |
\*---------------------------------------------------------------------------*/
FoamFile
{
    format      ascii;
    class       volVectorField;
    location    "13.6";
    object      U;
}
// * * * * * * * * * * * * * * * * * * * * * * * * * * * * * * * * * * * * * //

dimensions      [0 1 -1 0 0 0 0];

internalField   nonuniform List<vector> 
9801
(
(1.23854 -0.116213 0)
(1.23532 -0.113294 0)
(1.23179 -0.111114 0)
(1.22739 -0.108678 0)
(1.22109 -0.105169 0)
(1.21369 -0.101693 0)
(1.20884 -0.0992815 0)
(1.20482 -0.0972403 0)
(1.20234 -0.0945229 0)
(1.2054 -0.0911195 0)
(1.20845 -0.0883536 0)
(1.2077 -0.086197 0)
(1.20509 -0.0840695 0)
(1.20165 -0.081908 0)
(1.19741 -0.0797893 0)
(1.19213 -0.0769532 0)
(1.18307 -0.0732404 0)
(1.17661 -0.0705745 0)
(1.17225 -0.0685992 0)
(1.16846 -0.0666353 0)
(1.16823 -0.0637102 0)
(1.17292 -0.0606532 0)
(1.17447 -0.0581983 0)
(1.17255 -0.0560724 0)
(1.16933 -0.0539696 0)
(1.16522 -0.0519179 0)
(1.16045 -0.0496644 0)
(1.15128 -0.046328 0)
(1.14277 -0.0436523 0)
(1.1377 -0.0416765 0)
(1.13344 -0.0399513 0)
(1.13063 -0.0376238 0)
(1.13386 -0.034461 0)
(1.13773 -0.03163 0)
(1.13715 -0.0293673 0)
(1.13425 -0.0272411 0)
(1.13022 -0.0253052 0)
(1.1257 -0.0234077 0)
(1.1167 -0.0205652 0)
(1.10608 -0.0181159 0)
(1.0999 -0.0163074 0)
(1.09518 -0.0146898 0)
(1.09118 -0.0128844 0)
(1.09218 -0.00995207 0)
(1.09785 -0.00691499 0)
(1.09881 -0.00435943 0)
(1.09623 -0.00228033 0)
(1.09232 -0.000359875 0)
(1.08767 0.0013239 0)
(1.07802 0.00388136 0)
(1.06471 0.00607125 0)
(1.05691 0.00762892 0)
(1.05166 0.00890103 0)
(1.047 0.0102316 0)
(1.04721 0.0126262 0)
(1.05405 0.0157483 0)
(1.05621 0.0185072 0)
(1.05393 0.0206997 0)
(1.04988 0.0227201 0)
(1.04482 0.0243613 0)
(1.03393 0.0265906 0)
(1.01703 0.0282275 0)
(1.0067 0.0292743 0)
(1.00059 0.0300701 0)
(0.995561 0.030812 0)
(0.996213 0.0329674 0)
(1.00477 0.0362111 0)
(1.00776 0.0389969 0)
(1.00458 0.0412131 0)
(0.999772 0.0431031 0)
(0.99406 0.0446307 0)
(0.980405 0.0466376 0)
(0.957919 0.0475911 0)
(0.943858 0.0477374 0)
(0.936121 0.0479059 0)
(0.930484 0.0482808 0)
(0.934304 0.0503133 0)
(0.944144 0.0531831 0)
(0.945618 0.056038 0)
(0.941159 0.0585012 0)
(0.934666 0.0602544 0)
(0.925872 0.0618792 0)
(0.903429 0.0624011 0)
(0.872493 0.0607482 0)
(0.854282 0.0595533 0)
(0.843808 0.0592895 0)
(0.839447 0.0592024 0)
(0.850727 0.0601207 0)
(0.85738 0.0620926 0)
(0.851402 0.0648688 0)
(0.840659 0.0671425 0)
(0.826212 0.067814 0)
(0.796488 0.0672265 0)
(0.749326 0.0633327 0)
(0.702046 0.0579167 0)
(0.661076 0.0519422 0)
(0.635484 0.000843816 0)
(0.235434 -0.0887121 0)
(-0.904262 -0.0651528 0)
(1.2387 -0.118393 0)
(1.23479 -0.115651 0)
(1.23129 -0.113235 0)
(1.22688 -0.110608 0)
(1.22056 -0.107047 0)
(1.21339 -0.103579 0)
(1.20844 -0.101136 0)
(1.20446 -0.0991796 0)
(1.20202 -0.0965977 0)
(1.20569 -0.0932866 0)
(1.20871 -0.0906724 0)
(1.20755 -0.0885334 0)
(1.20472 -0.0863287 0)
(1.20119 -0.0840721 0)
(1.19699 -0.0817457 0)
(1.19152 -0.0787169 0)
(1.18275 -0.075056 0)
(1.17634 -0.072472 0)
(1.17187 -0.070546 0)
(1.16806 -0.068774 0)
(1.16797 -0.0658878 0)
(1.1731 -0.0628179 0)
(1.17443 -0.0603656 0)
(1.17229 -0.0581748 0)
(1.16897 -0.0560169 0)
(1.16488 -0.053912 0)
(1.16005 -0.0515234 0)
(1.15109 -0.0483427 0)
(1.14251 -0.0457412 0)
(1.13722 -0.0437216 0)
(1.13296 -0.0419768 0)
(1.13007 -0.0397208 0)
(1.13368 -0.0363933 0)
(1.13781 -0.0334989 0)
(1.13706 -0.0312234 0)
(1.13401 -0.029111 0)
(1.13 -0.0272029 0)
(1.12546 -0.0253228 0)
(1.11672 -0.022782 0)
(1.10592 -0.0204903 0)
(1.09935 -0.0185991 0)
(1.09455 -0.0167662 0)
(1.09053 -0.0149851 0)
(1.09159 -0.0118465 0)
(1.09777 -0.0086105 0)
(1.09876 -0.00602395 0)
(1.0961 -0.00395207 0)
(1.09215 -0.00210528 0)
(1.08752 -0.00044942 0)
(1.07827 0.00175384 0)
(1.06481 0.0035252 0)
(1.05643 0.00502397 0)
(1.05097 0.00653372 0)
(1.04634 0.00785193 0)
(1.04611 0.0105169 0)
(1.05332 0.0141157 0)
(1.05592 0.0171247 0)
(1.05377 0.0193779 0)
(1.04968 0.0212871 0)
(1.04464 0.0226939 0)
(1.03447 0.0244411 0)
(1.01741 0.0253339 0)
(1.00619 0.0261455 0)
(0.999745 0.0272182 0)
(0.994727 0.0279477 0)
(0.994325 0.0299311 0)
(1.00248 0.0337669 0)
(1.00612 0.0371812 0)
(1.00356 0.0399766 0)
(0.998961 0.0419022 0)
(0.993421 0.0430844 0)
(0.980836 0.0444981 0)
(0.95848 0.0444036 0)
(0.943436 0.0439608 0)
(0.935208 0.0438858 0)
(0.928951 0.0438926 0)
(0.929344 0.0464275 0)
(0.939215 0.0530129 0)
(0.942798 0.0574134 0)
(0.93922 0.0595529 0)
(0.932675 0.0601448 0)
(0.924717 0.0598237 0)
(0.904583 0.0584738 0)
(0.872843 0.0554365 0)
(0.852948 0.0526877 0)
(0.841666 0.0512452 0)
(0.83415 0.0509871 0)
(0.83908 0.0572161 0)
(0.846817 0.0670958 0)
(0.843703 0.0728859 0)
(0.833824 0.0743072 0)
(0.820387 0.0733723 0)
(0.792443 0.0696728 0)
(0.745459 0.0618331 0)
(0.697495 0.0560118 0)
(0.652799 0.0520271 0)
(0.623665 0.0032672 0)
(0.230641 -0.0718008 0)
(-0.908414 -0.0677595 0)
(1.23919 -0.115285 0)
(1.23474 -0.112467 0)
(1.23107 -0.110071 0)
(1.22649 -0.107501 0)
(1.22 -0.103917 0)
(1.21325 -0.100613 0)
(1.20838 -0.0982938 0)
(1.20438 -0.0965154 0)
(1.20197 -0.0941604 0)
(1.20608 -0.0908319 0)
(1.20913 -0.0879684 0)
(1.20776 -0.0855204 0)
(1.20477 -0.0831405 0)
(1.2011 -0.0808619 0)
(1.19681 -0.0786604 0)
(1.19109 -0.0757649 0)
(1.18258 -0.072326 0)
(1.17635 -0.0699278 0)
(1.17178 -0.0681076 0)
(1.16784 -0.06654 0)
(1.16742 -0.0637703 0)
(1.17277 -0.0602227 0)
(1.17429 -0.0574244 0)
(1.17218 -0.0551203 0)
(1.16882 -0.0529626 0)
(1.1647 -0.0509973 0)
(1.15991 -0.048895 0)
(1.15093 -0.046062 0)
(1.14216 -0.0435077 0)
(1.13668 -0.041421 0)
(1.13232 -0.0396968 0)
(1.12911 -0.0376847 0)
(1.13241 -0.0341004 0)
(1.13711 -0.0306386 0)
(1.13667 -0.0282443 0)
(1.13368 -0.0262344 0)
(1.12971 -0.0245081 0)
(1.12522 -0.0229615 0)
(1.11678 -0.0209671 0)
(1.10532 -0.0188471 0)
(1.09829 -0.0167365 0)
(1.09333 -0.0147712 0)
(1.08918 -0.0131102 0)
(1.08962 -0.0100603 0)
(1.09607 -0.00609531 0)
(1.09767 -0.0031563 0)
(1.09525 -0.00111152 0)
(1.09138 0.000621379 0)
(1.08684 0.00198633 0)
(1.07849 0.00343812 0)
(1.06459 0.00435738 0)
(1.05515 0.00581346 0)
(1.04925 0.00762347 0)
(1.04447 0.0090183 0)
(1.04292 0.0115795 0)
(1.04979 0.0164889 0)
(1.05372 0.0203709 0)
(1.05214 0.0224675 0)
(1.04813 0.024098 0)
(1.04315 0.0250878 0)
(1.03445 0.0259744 0)
(1.01755 0.0253278 0)
(1.00455 0.0255672 0)
(0.997099 0.0270597 0)
(0.991718 0.0282428 0)
(0.988558 0.0304794 0)
(0.995272 0.0367889 0)
(1.00143 0.0419839 0)
(1.00004 0.0441009 0)
(0.995579 0.0452302 0)
(0.990203 0.0457062 0)
(0.979965 0.04594 0)
(0.958527 0.0433984 0)
(0.9407 0.0419094 0)
(0.930564 0.042777 0)
(0.923649 0.0436664 0)
(0.919928 0.0456452 0)
(0.928843 0.0522347 0)
(0.935463 0.05706 0)
(0.932849 0.0582536 0)
(0.926606 0.0586711 0)
(0.919123 0.0590549 0)
(0.903039 0.058586 0)
(0.872255 0.0535857 0)
(0.848321 0.0495144 0)
(0.834463 0.0486275 0)
(0.82517 0.048003 0)
(0.823182 0.0494936 0)
(0.831635 0.0558239 0)
(0.832606 0.0592147 0)
(0.824559 0.0597007 0)
(0.812583 0.0591063 0)
(0.789351 0.0559283 0)
(0.747804 0.0473082 0)
(0.703199 0.0362641 0)
(0.657329 0.023874 0)
(0.635889 -0.0372768 0)
(0.22236 -0.0742449 0)
(-0.915215 -0.05986 0)
(1.2377 -0.112901 0)
(1.233 -0.109988 0)
(1.2292 -0.107685 0)
(1.2244 -0.10524 0)
(1.2175 -0.102006 0)
(1.21105 -0.0991351 0)
(1.20623 -0.0968684 0)
(1.20223 -0.0950638 0)
(1.1997 -0.0927731 0)
(1.20377 -0.0892221 0)
(1.20713 -0.0859723 0)
(1.2059 -0.083342 0)
(1.20291 -0.0809571 0)
(1.19915 -0.078861 0)
(1.19481 -0.0769507 0)
(1.18872 -0.0744793 0)
(1.18025 -0.071669 0)
(1.17417 -0.0694147 0)
(1.16952 -0.0674302 0)
(1.16555 -0.0657714 0)
(1.16453 -0.063036 0)
(1.16988 -0.0590719 0)
(1.17184 -0.0559795 0)
(1.16983 -0.0536542 0)
(1.16648 -0.0515991 0)
(1.16239 -0.0498453 0)
(1.15767 -0.0480211 0)
(1.14867 -0.0455672 0)
(1.13973 -0.043294 0)
(1.13408 -0.0413005 0)
(1.1296 -0.0395254 0)
(1.12603 -0.0376765 0)
(1.12843 -0.0339652 0)
(1.13383 -0.0299158 0)
(1.13379 -0.0274193 0)
(1.13085 -0.0256024 0)
(1.12696 -0.024081 0)
(1.12259 -0.0226809 0)
(1.11446 -0.0206547 0)
(1.10267 -0.0185872 0)
(1.09523 -0.0168022 0)
(1.09009 -0.0151231 0)
(1.08572 -0.0137103 0)
(1.08487 -0.0109387 0)
(1.09123 -0.00624219 0)
(1.09375 -0.00280105 0)
(1.09157 -0.000824874 0)
(1.0878 0.000688704 0)
(1.08341 0.00184112 0)
(1.07624 0.00317713 0)
(1.06231 0.00409248 0)
(1.05172 0.00537182 0)
(1.0453 0.00709324 0)
(1.0402 0.00854352 0)
(1.03697 0.0104532 0)
(1.04246 0.0153122 0)
(1.04805 0.0197898 0)
(1.04703 0.0218321 0)
(1.04316 0.0231714 0)
(1.0384 0.0241177 0)
(1.03141 0.0251674 0)
(1.01539 0.0249347 0)
(1.00032 0.0251785 0)
(0.991739 0.026712 0)
(0.985762 0.0281935 0)
(0.980998 0.0294019 0)
(0.984915 0.033569 0)
(0.993072 0.0390569 0)
(0.992721 0.0418041 0)
(0.988495 0.0432885 0)
(0.983333 0.0442396 0)
(0.975469 0.0449392 0)
(0.956114 0.0425133 0)
(0.935304 0.039708 0)
(0.923388 0.039952 0)
(0.915931 0.0409384 0)
(0.910058 0.0417178 0)
(0.914244 0.046825 0)
(0.923406 0.0556123 0)
(0.922879 0.0601755 0)
(0.917361 0.0617496 0)
(0.91053 0.0620145 0)
(0.899033 0.0612606 0)
(0.872584 0.0537814 0)
(0.844534 0.0445467 0)
(0.827481 0.0407855 0)
(0.81686 0.0402709 0)
(0.809107 0.0404481 0)
(0.811138 0.0472486 0)
(0.813589 0.0577104 0)
(0.807427 0.063031 0)
(0.79686 0.0629474 0)
(0.780532 0.0595393 0)
(0.748314 0.0451033 0)
(0.708503 0.0252568 0)
(0.665923 0.00823717 0)
(0.655238 -0.053441 0)
(0.217093 -0.0686375 0)
(-0.924661 -0.0566077 0)
(1.23474 -0.109762 0)
(1.22992 -0.106932 0)
(1.22614 -0.104716 0)
(1.2213 -0.102282 0)
(1.21419 -0.0993199 0)
(1.20767 -0.0966911 0)
(1.20282 -0.094394 0)
(1.19879 -0.0924584 0)
(1.19598 -0.0901311 0)
(1.19961 -0.0861544 0)
(1.20357 -0.0825788 0)
(1.20256 -0.0801633 0)
(1.19956 -0.0780929 0)
(1.19581 -0.0761671 0)
(1.19154 -0.074275 0)
(1.18546 -0.0718029 0)
(1.17681 -0.0691498 0)
(1.17054 -0.0669336 0)
(1.16579 -0.064862 0)
(1.16175 -0.0631448 0)
(1.15991 -0.0605525 0)
(1.16511 -0.0561907 0)
(1.16794 -0.052807 0)
(1.16608 -0.0506665 0)
(1.16268 -0.0488748 0)
(1.15863 -0.047236 0)
(1.15401 -0.0454105 0)
(1.14517 -0.0430548 0)
(1.13584 -0.0409656 0)
(1.12983 -0.0390436 0)
(1.12518 -0.0372158 0)
(1.12125 -0.0356202 0)
(1.12214 -0.0321838 0)
(1.12841 -0.0274919 0)
(1.12921 -0.0245911 0)
(1.12634 -0.0227874 0)
(1.12249 -0.0213005 0)
(1.11817 -0.019822 0)
(1.11056 -0.0179126 0)
(1.09869 -0.016418 0)
(1.09037 -0.0150829 0)
(1.0848 -0.0134869 0)
(1.08023 -0.0120603 0)
(1.07772 -0.00979309 0)
(1.08338 -0.00477772 0)
(1.08758 -0.000517214 0)
(1.08594 0.00169618 0)
(1.08227 0.00321401 0)
(1.07798 0.00439497 0)
(1.07184 0.00561164 0)
(1.05843 0.00569121 0)
(1.04617 0.00591529 0)
(1.03895 0.00740688 0)
(1.03352 0.00916764 0)
(1.02925 0.0108721 0)
(1.03226 0.0152781 0)
(1.03963 0.0209686 0)
(1.03989 0.0241426 0)
(1.03629 0.0259994 0)
(1.03172 0.0272094 0)
(1.02608 0.0281058 0)
(1.01214 0.0268125 0)
(0.994655 0.0239518 0)
(0.984602 0.0242455 0)
(0.978134 0.0259713 0)
(0.972635 0.0276482 0)
(0.972811 0.0316779 0)
(0.981758 0.0390834 0)
(0.983856 0.0436855 0)
(0.980257 0.0454391 0)
(0.97524 0.0463192 0)
(0.969025 0.046755 0)
(0.954153 0.0446075 0)
(0.930936 0.0387959 0)
(0.916096 0.0362532 0)
(0.907702 0.037261 0)
(0.900944 0.0384007 0)
(0.899152 0.0419768 0)
(0.908547 0.0518627 0)
(0.912405 0.0591855 0)
(0.908068 0.0609961 0)
(0.901448 0.0607459 0)
(0.892984 0.0599574 0)
(0.873444 0.0550491 0)
(0.843436 0.0444307 0)
(0.821461 0.0359422 0)
(0.808699 0.0331316 0)
(0.799541 0.0328062 0)
(0.796043 0.0350501 0)
(0.799397 0.0428743 0)
(0.797127 0.048846 0)
(0.788687 0.0495089 0)
(0.777517 0.0476771 0)
(0.757129 0.0399263 0)
(0.723911 0.0240983 0)
(0.684273 0.00660819 0)
(0.669929 -0.05454 0)
(0.21207 -0.067319 0)
(-0.929707 -0.0531177 0)
(1.23014 -0.106992 0)
(1.22534 -0.104286 0)
(1.22162 -0.102197 0)
(1.21686 -0.100009 0)
(1.2097 -0.097429 0)
(1.20284 -0.0949143 0)
(1.19788 -0.0925621 0)
(1.1938 -0.0905291 0)
(1.19062 -0.0883666 0)
(1.19348 -0.0843483 0)
(1.19828 -0.0801883 0)
(1.19761 -0.0775881 0)
(1.19457 -0.0757126 0)
(1.19086 -0.0740225 0)
(1.18665 -0.0723011 0)
(1.18077 -0.0702894 0)
(1.17195 -0.0681603 0)
(1.16526 -0.0659937 0)
(1.1603 -0.0637976 0)
(1.15617 -0.0619075 0)
(1.15355 -0.0595766 0)
(1.15824 -0.0553313 0)
(1.16219 -0.0514686 0)
(1.16067 -0.049034 0)
(1.15731 -0.0471972 0)
(1.15336 -0.0455855 0)
(1.14886 -0.0439451 0)
(1.1404 -0.0423362 0)
(1.13046 -0.0407776 0)
(1.12399 -0.0387307 0)
(1.11908 -0.036592 0)
(1.11496 -0.0348384 0)
(1.11432 -0.0319364 0)
(1.12093 -0.0273451 0)
(1.12296 -0.0239014 0)
(1.1204 -0.0217653 0)
(1.11664 -0.020173 0)
(1.11239 -0.0187665 0)
(1.10565 -0.0175588 0)
(1.09367 -0.0175499 0)
(1.0842 -0.0164419 0)
(1.07814 -0.0141649 0)
(1.07335 -0.0119478 0)
(1.06988 -0.00969022 0)
(1.07406 -0.00513124 0)
(1.07996 -0.000350573 0)
(1.07928 0.00237036 0)
(1.07584 0.00413495 0)
(1.07165 0.00540809 0)
(1.06648 0.00646701 0)
(1.05436 0.00591761 0)
(1.04007 0.00467268 0)
(1.03166 0.00589079 0)
(1.02601 0.00809269 0)
(1.02136 0.0101644 0)
(1.02199 0.0141422 0)
(1.03013 0.0202552 0)
(1.03219 0.0239962 0)
(1.0291 0.0258553 0)
(1.02475 0.0272519 0)
(1.01993 0.0282071 0)
(1.00959 0.0279405 0)
(0.990594 0.0247445 0)
(0.977484 0.0229035 0)
(0.970476 0.0239025 0)
(0.964817 0.0253129 0)
(0.961982 0.0282233 0)
(0.969519 0.0360866 0)
(0.975234 0.0433032 0)
(0.973058 0.0457834 0)
(0.968269 0.0464503 0)
(0.962861 0.0466787 0)
(0.95267 0.0458833 0)
(0.930572 0.0403636 0)
(0.911446 0.0352035 0)
(0.900646 0.0336605 0)
(0.893441 0.0344853 0)
(0.887869 0.0361515 0)
(0.892037 0.0437379 0)
(0.900584 0.0553952 0)
(0.900162 0.0612782 0)
(0.89452 0.0626125 0)
(0.887423 0.0624473 0)
(0.874905 0.0598282 0)
(0.848554 0.0483002 0)
(0.821481 0.0360135 0)
(0.804267 0.0285045 0)
(0.794142 0.0255814 0)
(0.786575 0.0253233 0)
(0.786204 0.0298969 0)
(0.786725 0.0368503 0)
(0.781373 0.0398192 0)
(0.772985 0.0383551 0)
(0.761756 0.0339999 0)
(0.741873 0.0221996 0)
(0.711619 0.00613228 0)
(0.69076 -0.0470523 0)
(0.205007 -0.06706 0)
(-0.934008 -0.0495408 0)
(1.22492 -0.103898 0)
(1.22045 -0.100835 0)
(1.21681 -0.0987491 0)
(1.21224 -0.0967551 0)
(1.20494 -0.0945711 0)
(1.19744 -0.0923264 0)
(1.19236 -0.0900232 0)
(1.18824 -0.0878873 0)
(1.18481 -0.0858384 0)
(1.18641 -0.0823545 0)
(1.19192 -0.0782368 0)
(1.19206 -0.0752638 0)
(1.18932 -0.0729691 0)
(1.18573 -0.0709264 0)
(1.18161 -0.0691446 0)
(1.17619 -0.0674014 0)
(1.16678 -0.0660102 0)
(1.15915 -0.0642747 0)
(1.15416 -0.062016 0)
(1.15004 -0.059843 0)
(1.14708 -0.0573978 0)
(1.15084 -0.0534 0)
(1.15577 -0.0494555 0)
(1.15498 -0.0467753 0)
(1.15191 -0.0446634 0)
(1.14811 -0.042813 0)
(1.14384 -0.0412074 0)
(1.13622 -0.0399248 0)
(1.12499 -0.0393474 0)
(1.1175 -0.0378234 0)
(1.11258 -0.0355691 0)
(1.10844 -0.0334369 0)
(1.10696 -0.0303956 0)
(1.11302 -0.0258255 0)
(1.11634 -0.0221103 0)
(1.11457 -0.019624 0)
(1.11117 -0.0175095 0)
(1.10707 -0.0158461 0)
(1.10192 -0.0145963 0)
(1.09044 -0.0149609 0)
(1.0783 -0.0154569 0)
(1.07141 -0.0138907 0)
(1.06661 -0.0116676 0)
(1.06276 -0.00931414 0)
(1.06513 -0.00490166 0)
(1.07213 0.000489999 0)
(1.07286 0.00360458 0)
(1.06992 0.00551566 0)
(1.06591 0.00711735 0)
(1.06133 0.00827238 0)
(1.05234 0.00848901 0)
(1.0365 0.00646697 0)
(1.02542 0.00585265 0)
(1.01937 0.00706185 0)
(1.01453 0.00858398 0)
(1.01273 0.011796 0)
(1.02015 0.0191556 0)
(1.02506 0.0253024 0)
(1.0231 0.0277813 0)
(1.01899 0.0289002 0)
(1.01435 0.0294589 0)
(1.00726 0.0295705 0)
(0.990169 0.026403 0)
(0.973695 0.0233092 0)
(0.964411 0.0227928 0)
(0.958349 0.0239294 0)
(0.953405 0.0254844 0)
(0.956218 0.0314467 0)
(0.965759 0.0417599 0)
(0.96736 0.0471003 0)
(0.9634 0.0481019 0)
(0.958144 0.0477738 0)
(0.951068 0.0471193 0)
(0.93408 0.0424556 0)
(0.911343 0.0345625 0)
(0.896479 0.0310239 0)
(0.887841 0.0306655 0)
(0.881287 0.0313733 0)
(0.878551 0.0346132 0)
(0.886787 0.0453395 0)
(0.89259 0.0553181 0)
(0.88975 0.0596733 0)
(0.883222 0.0606913 0)
(0.875013 0.060558 0)
(0.857478 0.0552126 0)
(0.829584 0.0397965 0)
(0.806818 0.0270877 0)
(0.792106 0.0206896 0)
(0.783289 0.0182673 0)
(0.77801 0.0185827 0)
(0.779218 0.0236126 0)
(0.778148 0.0274442 0)
(0.772886 0.0266966 0)
(0.765641 0.0227467 0)
(0.753916 0.0154955 0)
(0.734739 0.00433145 0)
(0.712105 -0.0316131 0)
(0.201116 -0.068821 0)
(-0.938402 -0.0465467 0)
(1.21951 -0.101522 0)
(1.21509 -0.09862 0)
(1.21154 -0.0966994 0)
(1.20719 -0.0947342 0)
(1.20038 -0.0924439 0)
(1.19221 -0.0902302 0)
(1.18686 -0.0880994 0)
(1.18273 -0.0859835 0)
(1.17925 -0.083847 0)
(1.18004 -0.0802657 0)
(1.18571 -0.07598 0)
(1.18663 -0.0729246 0)
(1.18406 -0.0707591 0)
(1.18045 -0.0689791 0)
(1.17633 -0.067381 0)
(1.17156 -0.0657163 0)
(1.16256 -0.0641129 0)
(1.15366 -0.0626003 0)
(1.14829 -0.0608132 0)
(1.14417 -0.0589158 0)
(1.14104 -0.056622 0)
(1.14399 -0.0523694 0)
(1.1496 -0.0478297 0)
(1.14959 -0.0448895 0)
(1.14674 -0.0427989 0)
(1.14297 -0.0411048 0)
(1.13872 -0.0396614 0)
(1.13262 -0.0382715 0)
(1.12116 -0.0376377 0)
(1.11193 -0.0366528 0)
(1.10665 -0.0351357 0)
(1.10251 -0.0334688 0)
(1.10038 -0.0306921 0)
(1.10572 -0.0253993 0)
(1.11028 -0.0207759 0)
(1.10914 -0.0182992 0)
(1.10584 -0.0167013 0)
(1.10182 -0.015386 0)
(1.09744 -0.0141716 0)
(1.08868 -0.0133582 0)
(1.075 -0.0137229 0)
(1.06613 -0.013078 0)
(1.06097 -0.0118531 0)
(1.05679 -0.0103661 0)
(1.05691 -0.00657061 0)
(1.06449 0.0003096 0)
(1.06728 0.00484306 0)
(1.06485 0.00670203 0)
(1.06094 0.00779689 0)
(1.05654 0.00872673 0)
(1.05019 0.00957105 0)
(1.03563 0.00813031 0)
(1.0221 0.00680758 0)
(1.01436 0.00718594 0)
(1.00918 0.00839235 0)
(1.00518 0.0101251 0)
(1.00925 0.0162317 0)
(1.01779 0.0249987 0)
(1.01837 0.0290298 0)
(1.01466 0.0300895 0)
(1.01012 0.0304976 0)
(1.00481 0.0307773 0)
(0.991648 0.0284964 0)
(0.972944 0.0235758 0)
(0.960809 0.0219905 0)
(0.953434 0.0225778 0)
(0.947925 0.0236563 0)
(0.945248 0.0265384 0)
(0.953695 0.0359955 0)
(0.961068 0.0452148 0)
(0.959703 0.0488092 0)
(0.954936 0.049785 0)
(0.949473 0.0499867 0)
(0.938171 0.0478088 0)
(0.915372 0.0386951 0)
(0.89614 0.0310911 0)
(0.884872 0.0282735 0)
(0.877408 0.0275583 0)
(0.871183 0.0281796 0)
(0.871946 0.0341327 0)
(0.880795 0.0473308 0)
(0.883232 0.0560862 0)
(0.878904 0.0596743 0)
(0.872007 0.0604347 0)
(0.862617 0.0589881 0)
(0.842722 0.0496977 0)
(0.815662 0.0323423 0)
(0.795592 0.0199737 0)
(0.782731 0.0138082 0)
(0.774939 0.0115322 0)
(0.771819 0.0126389 0)
(0.773277 0.0175487 0)
(0.771484 0.0191221 0)
(0.767388 0.014788 0)
(0.761197 0.00740967 0)
(0.750293 -0.00118385 0)
(0.732165 -0.0232934 0)
(0.200546 -0.0671768 0)
(-0.941816 -0.0425619 0)
(1.21539 -0.0985257 0)
(1.21127 -0.0954102 0)
(1.20789 -0.0935006 0)
(1.20374 -0.09164 0)
(1.19761 -0.0896402 0)
(1.18876 -0.087655 0)
(1.18277 -0.0856809 0)
(1.17839 -0.0838173 0)
(1.17461 -0.0821075 0)
(1.17429 -0.0789336 0)
(1.18016 -0.0741859 0)
(1.18197 -0.070836 0)
(1.17982 -0.068522 0)
(1.17649 -0.066434 0)
(1.1726 -0.0645735 0)
(1.16838 -0.0629192 0)
(1.1605 -0.0614878 0)
(1.15053 -0.0602853 0)
(1.14432 -0.0586607 0)
(1.13995 -0.0570455 0)
(1.13628 -0.0554596 0)
(1.13758 -0.0517931 0)
(1.14397 -0.0465033 0)
(1.14504 -0.0430934 0)
(1.14253 -0.0409128 0)
(1.13898 -0.0389922 0)
(1.13492 -0.0373484 0)
(1.13006 -0.0358846 0)
(1.11962 -0.0353421 0)
(1.10893 -0.034888 0)
(1.10263 -0.0335485 0)
(1.09816 -0.0321725 0)
(1.09471 -0.0305481 0)
(1.09817 -0.0256941 0)
(1.10472 -0.0196162 0)
(1.10496 -0.0164128 0)
(1.10202 -0.0145591 0)
(1.09824 -0.0130124 0)
(1.09408 -0.0118404 0)
(1.08721 -0.0110644 0)
(1.07359 -0.0118578 0)
(1.0631 -0.012008 0)
(1.0569 -0.0108883 0)
(1.05234 -0.00978279 0)
(1.04961 -0.00774805 0)
(1.0558 -0.00121305 0)
(1.06199 0.00553364 0)
(1.06108 0.00841501 0)
(1.05745 0.00971939 0)
(1.05321 0.0106172 0)
(1.04826 0.0113649 0)
(1.03636 0.0102516 0)
(1.02089 0.0073705 0)
(1.0112 0.00709667 0)
(1.00498 0.00817224 0)
(1.00025 0.00935983 0)
(0.999146 0.0127478 0)
(1.00837 0.021922 0)
(1.01365 0.0291562 0)
(1.01152 0.0315311 0)
(1.00718 0.0319675 0)
(1.0024 0.0322572 0)
(0.993592 0.0316619 0)
(0.975014 0.026289 0)
(0.959385 0.0220186 0)
(0.950554 0.0212346 0)
(0.94435 0.0216151 0)
(0.939129 0.0225121 0)
(0.940623 0.027922 0)
(0.951485 0.0403561 0)
(0.955157 0.0481104 0)
(0.95177 0.0507016 0)
(0.946495 0.0512483 0)
(0.939883 0.0513465 0)
(0.924396 0.0455283 0)
(0.901162 0.0328835 0)
(0.88485 0.0259134 0)
(0.874774 0.0244278 0)
(0.867907 0.0243096 0)
(0.862782 0.0254815 0)
(0.866906 0.0336638 0)
(0.874691 0.0465017 0)
(0.875101 0.0531585 0)
(0.870254 0.0554903 0)
(0.862978 0.0562278 0)
(0.851421 0.0542504 0)
(0.830038 0.0432672 0)
(0.804826 0.0251133 0)
(0.786435 0.0127587 0)
(0.774837 0.00659006 0)
(0.768132 0.0044219 0)
(0.767539 0.00602596 0)
(0.769895 0.00990753 0)
(0.769033 0.00836324 0)
(0.766185 0.000885811 0)
(0.760497 -0.00603817 0)
(0.748025 -0.0181268 0)
(0.20379 -0.0648337 0)
(-0.945163 -0.0392186 0)
(1.21234 -0.0956587 0)
(1.20861 -0.0925015 0)
(1.20534 -0.0906955 0)
(1.20127 -0.0889148 0)
(1.19561 -0.087019 0)
(1.18657 -0.0853654 0)
(1.17978 -0.083677 0)
(1.17508 -0.0819047 0)
(1.17111 -0.0802884 0)
(1.16935 -0.0775438 0)
(1.17502 -0.0725207 0)
(1.17832 -0.0684514 0)
(1.17673 -0.0660538 0)
(1.17362 -0.0640867 0)
(1.16991 -0.0622574 0)
(1.16577 -0.0606014 0)
(1.15901 -0.0590946 0)
(1.14863 -0.058294 0)
(1.14155 -0.0570897 0)
(1.13681 -0.0555787 0)
(1.13281 -0.0542055 0)
(1.13173 -0.0512792 0)
(1.13821 -0.045471 0)
(1.14112 -0.0411455 0)
(1.13921 -0.0387972 0)
(1.13594 -0.0369611 0)
(1.13208 -0.0353857 0)
(1.12781 -0.0340247 0)
(1.11887 -0.0333425 0)
(1.10711 -0.0335917 0)
(1.09977 -0.0327046 0)
(1.09479 -0.0312369 0)
(1.09067 -0.0298702 0)
(1.09065 -0.0264078 0)
(1.09845 -0.0193459 0)
(1.10123 -0.0147527 0)
(1.09899 -0.0128076 0)
(1.09542 -0.0114856 0)
(1.09137 -0.0103795 0)
(1.08608 -0.00940139 0)
(1.07359 -0.010235 0)
(1.06118 -0.0114094 0)
(1.05393 -0.0107328 0)
(1.04878 -0.00932249 0)
(1.04459 -0.0079979 0)
(1.04636 -0.00354476 0)
(1.05532 0.00476912 0)
(1.05746 0.00949794 0)
(1.05462 0.011221 0)
(1.05062 0.0122672 0)
(1.04629 0.0129753 0)
(1.03793 0.0125557 0)
(1.02146 0.00902151 0)
(1.00919 0.00718989 0)
(1.00204 0.00785777 0)
(0.996752 0.00895863 0)
(0.992626 0.010299 0)
(0.996815 0.0166251 0)
(1.00668 0.0271031 0)
(1.00813 0.03221 0)
(1.00478 0.033872 0)
(1.00042 0.0344997 0)
(0.994756 0.034697 0)
(0.980307 0.0304968 0)
(0.961148 0.0226151 0)
(0.949115 0.0192837 0)
(0.941398 0.0193166 0)
(0.935382 0.0202303 0)
(0.931097 0.022177 0)
(0.937292 0.0317781 0)
(0.947311 0.0452504 0)
(0.948097 0.0513572 0)
(0.944078 0.0529836 0)
(0.93876 0.0528539 0)
(0.93075 0.0517573 0)
(0.91092 0.0425808 0)
(0.888277 0.0297885 0)
(0.87459 0.0237338 0)
(0.866101 0.0217448 0)
(0.859498 0.0210312 0)
(0.855518 0.0229479 0)
(0.86121 0.0335196 0)
(0.866982 0.0459433 0)
(0.865519 0.052055 0)
(0.859917 0.0539618 0)
(0.852374 0.0536805 0)
(0.840526 0.0490298 0)
(0.819625 0.0358625 0)
(0.795659 0.0175995 0)
(0.778483 0.0052398 0)
(0.768317 -0.00146988 0)
(0.762848 -0.00348741 0)
(0.764653 -0.000306058 0)
(0.76843 0.00288612 0)
(0.769619 -0.00256448 0)
(0.767705 -0.01021 0)
(0.760029 -0.0162521 0)
(0.20968 -0.0597116 0)
(-0.94812 -0.0356623 0)
(1.20913 -0.0930203 0)
(1.20579 -0.0895927 0)
(1.20258 -0.0878049 0)
(1.19856 -0.0861 0)
(1.19351 -0.0843894 0)
(1.18454 -0.0830626 0)
(1.17699 -0.081731 0)
(1.17208 -0.0802001 0)
(1.16803 -0.0787261 0)
(1.16512 -0.0766533 0)
(1.16938 -0.0717249 0)
(1.17439 -0.0666774 0)
(1.17356 -0.0637834 0)
(1.17062 -0.0617237 0)
(1.16704 -0.0599045 0)
(1.163 -0.0583399 0)
(1.15741 -0.0568754 0)
(1.14705 -0.0562832 0)
(1.13891 -0.055552 0)
(1.1338 -0.0542505 0)
(1.12966 -0.0528989 0)
(1.12676 -0.0508915 0)
(1.13157 -0.0453623 0)
(1.13696 -0.0395426 0)
(1.13613 -0.0366705 0)
(1.13302 -0.0349249 0)
(1.12929 -0.0334378 0)
(1.12518 -0.0321837 0)
(1.11825 -0.0312958 0)
(1.1059 -0.0319057 0)
(1.09712 -0.031683 0)
(1.09168 -0.0304417 0)
(1.08737 -0.0290979 0)
(1.08457 -0.026966 0)
(1.09062 -0.0206128 0)
(1.09686 -0.0139724 0)
(1.09602 -0.0110116 0)
(1.09263 -0.00962049 0)
(1.08867 -0.00853279 0)
(1.08426 -0.00755196 0)
(1.07443 -0.00791284 0)
(1.06028 -0.0100872 0)
(1.05137 -0.0103215 0)
(1.04571 -0.00923387 0)
(1.04116 -0.00801142 0)
(1.03872 -0.0056691 0)
(1.04634 0.0022022 0)
(1.05293 0.00985766 0)
(1.0519 0.0129435 0)
(1.04812 0.0139945 0)
(1.04389 0.0147187 0)
(1.03833 0.0152199 0)
(1.02434 0.0122525 0)
(1.00869 0.00799117 0)
(0.999891 0.00715231 0)
(0.993813 0.00805762 0)
(0.988812 0.00920982 0)
(0.986564 0.0120787 0)
(0.995721 0.0224232 0)
(1.00296 0.0320191 0)
(1.00188 0.0354438 0)
(0.997665 0.0361803 0)
(0.992902 0.0364854 0)
(0.985348 0.0351813 0)
(0.967334 0.0268686 0)
(0.949842 0.019202 0)
(0.939342 0.0174343 0)
(0.932439 0.0180599 0)
(0.926964 0.0188625 0)
(0.924874 0.0219113 0)
(0.934954 0.0344594 0)
(0.943022 0.0466883 0)
(0.94189 0.0509605 0)
(0.936853 0.0523318 0)
(0.930685 0.0533672 0)
(0.920212 0.0517947 0)
(0.898999 0.0391097 0)
(0.87866 0.0251592 0)
(0.865972 0.0193762 0)
(0.857538 0.0181276 0)
(0.851278 0.0180553 0)
(0.848934 0.0209506 0)
(0.855472 0.0321526 0)
(0.859732 0.0425183 0)
(0.857557 0.0467775 0)
(0.851779 0.0478941 0)
(0.843875 0.047313 0)
(0.831212 0.0419377 0)
(0.810756 0.0278671 0)
(0.788171 0.00919851 0)
(0.77208 -0.0036061 0)
(0.763318 -0.0106529 0)
(0.759613 -0.0122378 0)
(0.764538 -0.00776406 0)
(0.770842 -0.00754732 0)
(0.773626 -0.0141725 0)
(0.768988 -0.0173318 0)
(0.21718 -0.0523244 0)
(-0.95117 -0.0324695 0)
(1.20563 -0.0906651 0)
(1.20299 -0.0867659 0)
(1.19988 -0.0849802 0)
(1.19592 -0.0833276 0)
(1.19143 -0.0817838 0)
(1.18296 -0.0807685 0)
(1.17443 -0.0798326 0)
(1.16907 -0.0784824 0)
(1.16485 -0.0769913 0)
(1.1613 -0.0754259 0)
(1.16307 -0.0712437 0)
(1.16971 -0.0650675 0)
(1.17044 -0.061418 0)
(1.16784 -0.0592974 0)
(1.16439 -0.0575718 0)
(1.16043 -0.0561251 0)
(1.15582 -0.0548311 0)
(1.14627 -0.0544247 0)
(1.13665 -0.054193 0)
(1.13079 -0.0529544 0)
(1.12636 -0.0513795 0)
(1.1227 -0.0499116 0)
(1.12416 -0.0457409 0)
(1.13169 -0.0388141 0)
(1.13299 -0.0347959 0)
(1.13029 -0.0328924 0)
(1.1267 -0.031469 0)
(1.12269 -0.0302777 0)
(1.11747 -0.0292943 0)
(1.10585 -0.0299872 0)
(1.09502 -0.0306119 0)
(1.08874 -0.0296395 0)
(1.08413 -0.0282373 0)
(1.0803 -0.02686 0)
(1.08205 -0.0224119 0)
(1.0908 -0.0142868 0)
(1.0928 -0.00965405 0)
(1.09005 -0.00776397 0)
(1.08628 -0.00660636 0)
(1.08215 -0.0056582 0)
(1.07539 -0.00537185 0)
(1.0611 -0.00801404 0)
(1.04955 -0.00977563 0)
(1.04302 -0.00928354 0)
(1.03805 -0.00804486 0)
(1.03388 -0.00672413 0)
(1.03597 -0.00169514 0)
(1.04601 0.00838822 0)
(1.04867 0.0138844 0)
(1.0459 0.0158274 0)
(1.04194 0.0167433 0)
(1.03767 0.0173055 0)
(1.02847 0.0158699 0)
(1.01119 0.00995431 0)
(0.998576 0.00659269 0)
(0.991178 0.00678747 0)
(0.985488 0.00812915 0)
(0.980876 0.00953387 0)
(0.98281 0.0152265 0)
(0.994217 0.0279589 0)
(0.998157 0.0352845 0)
(0.995774 0.037697 0)
(0.99142 0.0383072 0)
(0.986352 0.0388146 0)
(0.974655 0.0360818 0)
(0.953766 0.0257656 0)
(0.939055 0.018887 0)
(0.930786 0.01705 0)
(0.924521 0.0166538 0)
(0.919132 0.0172966 0)
(0.919197 0.0226762 0)
(0.930613 0.0385746 0)
(0.935967 0.0504052 0)
(0.933526 0.0542897 0)
(0.928706 0.0544455 0)
(0.922912 0.0538675 0)
(0.911223 0.0500064 0)
(0.888353 0.0359058 0)
(0.868721 0.0231771 0)
(0.857184 0.0178875 0)
(0.849653 0.0158029 0)
(0.843682 0.0153537 0)
(0.842868 0.019147 0)
(0.849362 0.0305329 0)
(0.852028 0.0393649 0)
(0.849207 0.042581 0)
(0.843347 0.0429855 0)
(0.835634 0.0411872 0)
(0.823473 0.0344755 0)
(0.803756 0.0194487 0)
(0.782421 -7.22905e-05 0)
(0.76759 -0.0137979 0)
(0.760193 -0.020453 0)
(0.758498 -0.0207361 0)
(0.767105 -0.016978 0)
(0.77579 -0.0191406 0)
(0.774632 -0.0209852 0)
(0.225943 -0.042415 0)
(-0.953997 -0.029157 0)
(1.20177 -0.0885714 0)
(1.20006 -0.0841233 0)
(1.19711 -0.0823615 0)
(1.19326 -0.0807567 0)
(1.1891 -0.0793144 0)
(1.18195 -0.07843 0)
(1.17241 -0.0780023 0)
(1.16632 -0.0768699 0)
(1.1618 -0.0752255 0)
(1.158 -0.073701 0)
(1.15693 -0.0706487 0)
(1.16377 -0.0641865 0)
(1.16699 -0.0593461 0)
(1.16502 -0.0570288 0)
(1.16173 -0.0553748 0)
(1.15794 -0.0539925 0)
(1.15383 -0.0527824 0)
(1.14599 -0.0522497 0)
(1.13508 -0.0525724 0)
(1.12804 -0.0516712 0)
(1.12324 -0.0500788 0)
(1.11927 -0.0486216 0)
(1.11758 -0.0459026 0)
(1.12468 -0.0390608 0)
(1.12924 -0.0334023 0)
(1.12755 -0.0309359 0)
(1.12415 -0.0294928 0)
(1.1203 -0.0282894 0)
(1.11602 -0.0272247 0)
(1.10656 -0.0274444 0)
(1.09396 -0.0289937 0)
(1.08634 -0.0287714 0)
(1.08126 -0.0275504 0)
(1.07708 -0.0262982 0)
(1.07487 -0.0239318 0)
(1.08232 -0.0162703 0)
(1.08846 -0.00901152 0)
(1.08739 -0.00601509 0)
(1.08389 -0.00470375 0)
(1.0799 -0.00377593 0)
(1.07527 -0.00309963 0)
(1.06376 -0.00509912 0)
(1.04935 -0.00884662 0)
(1.04072 -0.00946009 0)
(1.03502 -0.00826419 0)
(1.03042 -0.00682802 0)
(1.02769 -0.00443593 0)
(1.03559 0.00434612 0)
(1.04366 0.0138237 0)
(1.04331 0.0174705 0)
(1.03957 0.0184247 0)
(1.03534 0.0190565 0)
(1.03014 0.0193205 0)
(1.01644 0.0149695 0)
(0.999288 0.00841108 0)
(0.989181 0.00662163 0)
(0.982966 0.00717296 0)
(0.977796 0.00807233 0)
(0.97408 0.00985905 0)
(0.981053 0.0188532 0)
(0.991651 0.0320611 0)
(0.992658 0.0375619 0)
(0.988967 0.0393223 0)
(0.984347 0.0403049 0)
(0.978796 0.0405171 0)
(0.964574 0.033863 0)
(0.944294 0.0209787 0)
(0.931031 0.0147963 0)
(0.922401 0.0143006 0)
(0.91633 0.0150337 0)
(0.911519 0.0159529 0)
(0.914623 0.0226426 0)
(0.926549 0.0388438 0)
(0.930576 0.0483705 0)
(0.92731 0.0511063 0)
(0.921675 0.0522478 0)
(0.914504 0.0530852 0)
(0.901161 0.048682 0)
(0.879003 0.0328376 0)
(0.861045 0.0192645 0)
(0.849682 0.0138903 0)
(0.842246 0.0123376 0)
(0.836674 0.0122691 0)
(0.837495 0.0173426 0)
(0.843837 0.0281828 0)
(0.845502 0.0349003 0)
(0.842425 0.0367607 0)
(0.83678 0.0368312 0)
(0.829297 0.0345213 0)
(0.817862 0.0270814 0)
(0.799029 0.0104306 0)
(0.778593 -0.0104032 0)
(0.764745 -0.024027 0)
(0.758565 -0.0298377 0)
(0.760072 -0.0300271 0)
(0.77273 -0.0289062 0)
(0.775704 -0.0281634 0)
(0.234275 -0.0302324 0)