/*--------------------------------*- C++ -*----------------------------------*\
  =========                 |
  \\      /  F ield         | OpenFOAM: The Open Source CFD Toolbox
   \\    /   O peration     | Website:  https://openfoam.org
    \\  /    A nd           | Version:  12
     \\/     M anipulation  |
\*---------------------------------------------------------------------------*/
FoamFile
{
    format      ascii;
    class       surfaceScalarField;
    location    "3";
    object      phi;
}
// * * * * * * * * * * * * * * * * * * * * * * * * * * * * * * * * * * * * * //

dimensions      [1 0 -1 0 0 0 0];

internalField   nonuniform List<scalar> 
33852
(
0.000251329
2.24281e-05
-0.000273757
-0.000246121
1.32441e-05
0.000232877
-0.000175578
-7.16819e-05
0.000246362
0.000304053
-0.000163969
-0.000140085
0.000291938
-4.29023e-05
-0.000249275
2.72441e-05
-0.000260681
0.000233437
0.000315196
1.47588e-05
-0.000329957
0.000304277
-9.59564e-05
-0.000208321
0.000286413
-3.50841e-05
0.000200729
1.79942e-06
-0.000202378
0.000289644
-0.000366704
7.70502e-05
0.000360884
-4.57355e-05
-4.39602e-05
0.000263285
-0.000219325
-4.38702e-05
0.000318208
-0.000274255
6.11554e-05
-0.000237109
0.000252057
1.2236e-05
-0.000264293
0.000264853
-1.2796e-05
-0.000278433
3.23121e-05
0.000340727
-5.11622e-05
0.000158593
0.000112308
-0.000270901
-2.43234e-05
0.000303259
-0.00027893
0.000271377
-0.000276165
4.78802e-06
-1.77164e-05
0.000275084
-0.000257322
-0.000223098
1.45763e-05
0.000208372
-0.000153866
-0.000183448
0.000337248
-0.000145709
-6.91973e-05
0.000214731
3.72401e-05
0.000267037
-6.12257e-05
-0.000263142
0.000324339
-0.000209633
1.76911e-06
0.000207925
-0.000204009
-1.90195e-05
0.000142045
0.000137388
-0.000279433
0.000341464
1.93438e-05
0.000142618
0.000128347
-0.000270965
-0.000101136
0.000259729
-0.000250489
-3.78001e-06
0.000254269
0.000330781
-5.96374e-05
-0.000271128
-0.000357698
0.000203483
-0.000227341
0.000209656
0.000231645
3.32081e-05
-5.65602e-06
0.000237301
-8.07867e-06
0.000208915
-0.000232625
0.000259869
0.000316265
-5.73787e-05
-0.00025862
-0.000309093
5.51042e-05
0.000253989
0.000240174
-0.000301417
0.000273589
-0.000306321
3.27321e-05
-0.000180237
-5.49362e-05
0.000235173
0.000272133
-0.000272133
0.000148429
-0.000297473
0.000149045
-0.000209676
0.000216688
-7.39929e-06
-0.000268241
0.000237301
3.09401e-05
-0.000199671
0.00024621
-4.71332e-05
-9.16164e-05
-0.000217477
-0.000114611
-0.0002521
-0.000280169
0.000266113
1.40561e-05
0.000329559
1.18552e-05
-0.000250433
7.01963e-05
0.000117908
0.000145909
-0.000263817
1.34681e-05
-0.000267457
0.000253989
-0.000134569
0.000282997
-0.000152514
-5.0948e-05
0.000203423
-0.000274681
0.000245113
2.95681e-05
0.000237553
-0.000268437
3.08841e-05
-0.000186104
-2.35704e-05
0.000151665
0.000115565
-0.00026723
-0.000189711
-2.82559e-05
0.000217957
0.000263985
2.24281e-05
0.000275941
-2.35201e-06
0.000265329
-0.000250741
-1.45881e-05
0.000227047
-6.45404e-05
-0.000162485
-1.82001e-06
0.000239373
0.00036695
-0.00031301
-5.39369e-05
-2.84503e-05
0.000303934
-0.000275382
-0.000101584
0.000219493
0.000342711
2.42158e-05
-0.000372071
0.000353804
1.82519e-05
-0.000211906
2.23185e-05
0.000309021
-0.000321271
1.22991e-05
-0.000207608
0.000271691
-6.39989e-05
-4.45202e-06
1.70886e-05
-0.000319181
0.000302105
0.000233574
-0.000198505
-3.52214e-05
0.000269538
-0.000339602
7.00815e-05
0.000332959
-6.34469e-05
-0.000268941
0.000236573
3.23681e-05
-0.000129388
-0.000132609
0.000261997
-1.86761e-05
-0.000249565
-1.022e-05
-0.000258721
2.3056e-05
0.000210823
-0.000233716
3.16321e-05
-0.000222904
0.000191239
-2.49873e-05
0.000327882
-0.000302884
-0.000279329
0.000273701
5.62802e-06
0.000156129
-0.000296857
0.000140729
-5.96697e-05
-0.000150492
0.000210219
0.000143277
0.0001218
-0.000265077
-0.000250064
0.000225731
-0.000212824
0.000153206
-0.000168813
0.000327181
-0.000158369
0.000185389
7.16523e-05
-0.000257041
0.000255193
2.07481e-05
-0.000192277
0.000148317
5.05101e-05
0.000265986
0.000306986
-0.000289877
9.17719e-05
-0.000237476
0.000135241
0.000117096
-0.000281065
-1.24545e-06
0.000245031
-0.00024399
0.000166489
0.000122836
-0.000289325
0.000143853
8.98549e-05
-3.92002e-06
0.000259113
0.00030365
5.42646e-06
-0.000323982
0.000315042
8.95186e-06
-3.99002e-05
0.000236293
-0.000196393
4.08802e-06
-0.000284257
-2.54638e-05
0.000165146
-0.000139669
-0.000157786
0.000132237
0.00021002
-0.000178396
-0.000269921
0.000264965
4.95602e-06
2.64041e-05
0.000174721
-0.000201125
2.87841e-05
-0.000257265
0.000228481
0.000276137
-0.000262669
0.000115108
0.000212073
0.000214869
-0.000191393
-0.000175813
0.000202217
1.37539e-05
0.000282915
-0.000296631
0.000269887
2.17222e-05
0.000271474
-0.000283884
1.23782e-05
3.86402e-06
0.000267513
-1.81227e-05
0.000289609
0.000330705
9.94031e-06
0.000213807
-0.000257686
0.000316392
-0.000316386
-6.63603e-06
-0.000272693
2.81718e-05
0.000198855
0.000187993
3.98722e-05
-0.000227865
-5.47991e-05
0.000218151
-0.000163347
0.000153609
-0.000270285
0.000116676
0.000279441
-0.000329701
5.02602e-05
-6.38122e-05
0.000249201
-0.000166909
0.000315897
-0.000148989
-0.000313939
-1.00358e-05
-0.000214929
0.000175029
2.78601e-05
-0.000278349
0.000276221
-1.88441e-05
-0.000248613
1.71699e-05
-0.00030254
0.000285342
0.000344989
-0.000158593
-0.000186397
-1.68311e-05
-0.000240805
0.000257636
-0.000266617
-3.30401e-06
0.000224001
2.45841e-05
-0.000248585
0.000284509
-0.000128381
0.000140197
0.000138853
-0.000279049
-0.000199254
-1.07639e-05
0.000258169
-0.000115551
0.000225665
-0.000242541
-6.38122e-05
0.000251805
-0.00020751
0.000249481
-5.60002e-07
-0.000248921
0.000255109
-0.000237441
-0.000324672
0.000299689
-3.08841e-05
0.000203169
-0.000172285
0.000291972
1.28866e-06
-0.000293231
7.6792e-05
0.000132044
-0.000208798
4.60357e-05
-0.000198613
-0.000289334
-4.61165e-06
0.000293909
-1.56048e-06
-0.000287755
0.000146973
-0.000273925
0.000126952
-0.000263285
0.000220458
-0.000294419
0.000265869
0.000279441
-0.000312612
-1.24402e-05
0.000325053
0.000110645
0.000161175
-2.13435e-05
0.000352074
0.000140141
0.000139833
-0.000279973
0.000245029
-0.000250349
5.32002e-06
-0.000210953
0.000180069
0.000279133
-5.43202e-06
0.000350894
-3.26044e-05
-0.000302839
0.000304599
-1.61347e-06
0.000270985
-0.000270985
-0.000364699
0.000225909
0.000138795
-0.000205719
1.95881e-05
1.69365e-05
0.000275157
-0.000278461
3.30401e-06
-5.08713e-06
0.000171116
-0.000165882
-0.000197345
0.000254801
-5.74562e-05
-0.000204436
4.50983e-06
-0.000239871
0.000158912
8.09452e-05
-0.000180265
0.000261398
-8.11344e-05
0.000256285
-0.000287113
3.08281e-05
-0.000249229
5.18842e-05
-2.35507e-05
0.00027599
-0.000252334
-0.000253547
1.35801e-06
0.000252189
0.000231281
-7.28003e-06
-0.000294249
7.56175e-06
0.000286675
-0.000266085
0.000266085
-0.000284462
-5.50898e-05
-0.000170706
-0.000193983
-0.000171414
0.000216449
-4.5116e-05
-1.232e-05
-0.000239177
0.000251497
3.10801e-06
0.000210113
-0.000213221
-0.000185593
-2.2679e-05
0.000208235
7.58739e-06
0.000294487
-0.000302073
-0.000236153
-1.34401e-05
0.000249593
1.50361e-05
-0.000251189
-0.000241025
0.000256061
-0.000301382
0.000308972
0.000256117
7.16803e-06
-0.000170633
-3.20015e-05
0.000202577
-0.000145237
-0.000134765
-0.000244329
0.000240549
0.000298632
-4.3952e-07
-0.000298194
-0.000298771
5.90487e-07
0.000298208
1.92434e-05
0.000181217
0.000163773
7.70045e-05
-0.000257269
-0.000159242
0.000310908
0.000250721
-0.000108677
-0.000235145
-1.83681e-05
0.000253513
-0.000204615
-0.000126872
0.000331444
-6.10402e-06
-0.000229125
0.000235229
-2.19259e-05
-0.000183812
-0.000286464
-8.5629e-05
6.30585e-06
-0.000300543
-0.000212609
0.000328092
-0.000115535
0.000281597
0.000288205
-5.16322e-05
0.000271993
-1.57081e-05
-0.000186951
-1.40496e-05
0.000201166
0.000297569
4.28609e-07
-0.000297904
-0.000269495
-3.26829e-05
-0.000218821
0.000247605
-2.52374e-05
0.000310593
-0.00028535
0.000179949
7.73831e-06
-0.000187702
-3.40207e-05
0.000213887
-0.000301284
0.000276052
0.000292535
5.6943e-06
-0.000298057
0.000157445
0.00011886
-0.000276305
0.000289438
4.27164e-06
-0.000294328
-0.000246394
0.000117985
0.000128472
-0.000281841
0.000295467
0.000302513
-0.000156857
-0.000145657
0.000207005
-0.000203897
-0.000232009
-0.000121156
-0.000155009
-4.07298e-06
-0.000294028
0.000298098
-1.0136e-05
0.000276249
0.000292223
-2.05634e-05
-0.000271081
-0.000262995
2.90604e-05
0.000233843
0.000271433
-0.000267569
0.000249621
2.95121e-05
0.000314895
-9.7658e-06
-0.000305118
4.95656e-05
0.000156026
-0.000205604
-9.9625e-05
0.000196031
-9.61657e-05
0.000252617
-2.91201e-05
-0.000223497
6.59512e-07
0.000291877
-0.000178364
-3.16376e-05
0.000209929
-2.08416e-06
0.000290914
-9.33244e-05
0.000246933
-0.000255417
-5.26402e-06
0.000121184
0.000181329
1.34121e-05
0.000241557
-0.000254969
0.000236097
1.34961e-05
-0.000249593
0.000249509
-0.000242929
0.000256425
6.33147e-05
-0.000201755
0.000138467
-0.00021503
0.000115332
-0.000204718
0.000297214
1.37791e-06
-0.000298652
0.000253849
2.22881e-05
0.000268493
-0.000216441
-5.20522e-05
0.000225518
-0.000246849
2.13305e-05
0.000257909
1.40841e-05
5.87159e-05
0.000295096
0.000267186
-3.89594e-05
-0.000228226
0.000174125
1.274e-05
0.000240297
-0.000253037
0.000194171
-0.000114311
-7.98774e-05
-0.000207138
2.14803e-05
-1.28009e-06
-0.000297886
0.000299128
0.000220068
-0.000167358
-5.27126e-05
0.000344597
-4.13274e-05
0.000275969
-0.000135829
2.31561e-05
0.000238337
-0.000261493
-0.000231141
0.000254297
-2.66819e-05
-0.000229738
0.000256433
0.000156505
-0.000161531
-7.75226e-05
-0.000168602
-0.000261723
4.14346e-05
0.000220288
-3.17521e-05
-0.00022997
7.19091e-06
0.000261717
-3.25193e-05
-0.000229198
1.67559e-05
0.000125776
-0.000195171
0.000308785
-0.000171397
0.000262319
-3.57923e-05
-0.000226526
-0.000319172
0.00017755
-0.000100754
-0.000228453
-6.90203e-05
-4.73501e-07
-0.000297115
0.000298096
-2.76774e-05
0.000181596
-0.000153905
0.000308026
6.87994e-06
0.000250097
-0.000248249
-1.84801e-06
-0.00017637
6.18852e-05
0.000260263
-3.07234e-05
-0.000229538
0.000197345
-0.000250769
5.34242e-05
0.000254206
-0.000231206
-2.29992e-05
-0.000252337
0.000240017
0.000144396
0.000101511
-0.000101864
-0.000170269
0.000132496
-0.000261885
-0.000290249
0.0002422
4.80483e-05
0.000216809
3.12477e-05
-0.000248056
-0.000237986
-9.70026e-06
0.000247275
0.000327049
-2.30165e-05
0.000263996
-3.42721e-05
-0.000229724
0.000142111
-0.000232106
9.01022e-05
3.63259e-05
-0.000265637
0.000229311
-0.000253905
0.000121296
0.000249817
-5.24722e-05
0.000294673
-0.000154253
-0.000140421
0.000122248
-0.000289157
1.53441e-05
0.000237665
-0.000253009
-0.000262031
3.54705e-05
0.00022656
-2.77094e-06
-3.77917e-05
-0.000224239
0.000248819
-0.000272238
-0.000264649
3.44737e-05
0.000230175
0.000193257
0.000101416
-0.000149941
0.000290137
-0.000171281
-3.83405e-05
0.000209596
-1.81721e-05
0.000263201
-0.000293057
0.000310208
0.000116738
0.000103272
0.000261325
-0.000261325
0.000313168
-2.24158e-05
-0.000289729
5.32002e-07
0.000248949
0.000254857
1.65761e-05
0.000309742
-0.000276456
-3.32334e-05
-2.26336e-05
0.000266577
-0.000243943
3.00077e-05
-0.000260519
0.000230511
-0.000252139
0.000229506
0.000327885
3.11501e-05
-0.000260598
0.000229447
0.000276809
-3.16961e-05
-7.1658e-06
-0.000292013
0.000299507
0.000270851
3.88904e-05
0.000230245
-0.000266617
3.63721e-05
0.000200646
-0.000201987
-0.000258301
0.000238533
1.97681e-05
0.000169762
-0.000257245
8.74835e-05
-0.000205277
0.000163241
-0.000249145
8.59043e-05
-0.000266169
0.000224813
4.13562e-05
0.000253073
-2.78797e-05
-0.000225194
0.00017511
4.30313e-05
-0.000234837
-2.29601e-05
0.000257797
-0.000236377
-2.28761e-05
0.000259253
-1.94265e-05
0.000255969
-0.000236542
-0.000259345
0.000239919
-3.24168e-05
0.000173561
-0.000235929
-2.24001e-05
0.000258329
-0.00025484
0.000229192
2.56481e-05
2.94001e-06
0.000211289
-0.000214229
-0.000267031
3.79849e-05
0.000229046
0.000270677
4.48002e-06
4.17692e-05
0.000162102
-0.00020401
-3.31194e-05
0.000249928
-2.10151e-05
0.000218597
9.73004e-05
0.0002482
-0.000216952
0.000277725
-0.000279265
0.000277435
-0.000282101
-1.84997e-05
0.000258601
-0.000240101
-0.000261644
0.000243145
3.02009e-05
-0.000201689
-2.95822e-05
-0.000206627
0.000236324
0.000315006
-0.000287567
-2.7441e-05
0.000261297
-3.11081e-05
-0.000230189
3.28739e-05
-0.000262362
0.000229488
-0.000229853
0.000259645
-2.97921e-05
0.000325738
-1.76965e-05
0.000147033
-0.000211545
0.000256929
-0.000109956
-0.000286397
0.00028769
0.000241977
-6.41202e-06
-0.000235565
0.000228537
-0.000180562
-3.71949e-05
0.00021727
2.8648e-05
-0.000209686
-0.000239989
0.000260317
-2.03281e-05
-0.000103432
0.000189751
-8.61363e-05
3.09067e-05
-0.000202197
0.000240169
-0.000263424
2.32552e-05
-0.000115584
0.000258861
-0.000243993
0.000265721
-2.17281e-05
-0.000238953
0.000232541
0.000258626
-0.000245105
-1.35213e-05
0.000264349
-2.46681e-05
-0.000246317
-0.000273383
-1.05595e-05
0.000298602
-5.35641e-05
-9.24771e-06
0.00029004
-0.000280905
-0.000165609
0.000207183
0.000230011
1.79942e-05
-0.00024805
0.000328727
-0.000328744
0.000260955
-0.000245018
-1.59377e-05
-0.000301925
-6.58731e-07
0.000305266
9.72612e-06
3.77445e-05
0.000170501
-0.000208178
0.000213358
-3.4728e-05
-0.000178194
0.000278054
-0.000255789
-2.22648e-05
-0.000209666
3.13051e-05
3.15421e-05
-0.000261891
0.000230348
0.000285106
-0.000291931
2.44721e-05
-0.000259617
-0.000257965
1.87881e-05
0.000266057
-1.64361e-05
0.000151173
-0.000267625
0.000116452
0.000298937
-4.44143e-06
0.000238617
-7.53763e-05
2.12521e-05
0.000177045
-0.000198297
-0.000183877
0.000205129
-0.000236275
0.000257219
-2.09441e-05
0.000261462
-3.31689e-05
-0.000228293
-0.000197009
-5.21362e-05
0.000251581
-1.48401e-06
8.76172e-06
-0.000264583
0.000255946
-0.000342698
0.000236283
0.000106442
0.000266371
-0.000236811
-2.95597e-05
0.000306772
-0.000314612
7.81918e-06
-2.57041e-05
-0.000229097
0.000254801
0.000261493
-7.64403e-06
1.01607e-05
-0.000208847
0.000262411
-3.19033e-05
-0.000230508
-6.90483e-05
-0.000260653
-0.000194685
0.000248025
-5.33402e-05
-0.000266533
0.000249985
1.65481e-05
-0.000318055
1.66865e-05
-1.70872e-05
0.000296762
-0.000279699
-0.000276221
1.65481e-05
0.000249537
-0.000167707
6.45013e-05
0.000273731
1.47854e-05
-0.000288535
-0.000316102
0.000307889
8.21701e-06
3.46641e-05
-0.000263649
0.000228985
-1.74659e-05
0.000281284
-0.000315187
1.64125e-05
-0.000176541
-7.42283e-05
-0.000233492
0.000204407
-2.16721e-05
-0.000216469
0.000238141
-0.000314741
0.000295843
1.89007e-05
-0.000133072
0.000274346
-0.000141828
-8.41569e-06
3.31521e-05
-0.000263453
0.000230301
-0.000202426
2.47803e-05
0.00017765
0.00022152
0.000280444
-0.000280733
2.90908e-07
-0.000236993
-2.20921e-05
0.000224813
-0.000202721
0.000139273
0.000143753
-0.000278517
0.000200859
-5.67901e-05
0.00030817
-1.05956e-05
0.000209209
-0.00026879
2.92853e-05
0.00022306
-0.000252345
-0.000321637
0.000138266
0.000296496
2.92552e-05
1.94431e-05
-0.000224355
-2.77845e-05
-0.000136386
-0.000132766
-0.000326314
0.000113567
0.000242873
2.56201e-05
0.000218765
-0.000224869
1.08939e-05
-0.000287723
0.000276423
-0.0002433
0.000270282
-2.71802e-05
0.000281446
-0.00028189
0.000288188
-7.73212e-05
-8.8749e-06
0.000290319
-1.87881e-05
0.000247101
-0.000228313
0.000281509
-0.00029037
-5.62682e-06
-0.000283939
0.000289582
0.000282114
-0.000269782
0.000284547
0.000226314
2.67597e-05
-0.000307287
0.000316007
-9.17112e-06
0.000250734
-2.12529e-05
0.000225528
2.43666e-05
-0.000268913
0.000246057
-2.05381e-05
-0.000259401
3.02849e-05
0.000229116
0.000178305
7.64963e-05
1.02656e-05
0.000281484
-0.000291594
-0.000238141
-2.88401e-05
0.000266981
2.51441e-05
-0.000263285
0.000284117
-0.000162317
-0.000232177
0.000261129
-2.89521e-05
-0.000234697
0.000260709
-2.60121e-05
1.37342e-06
0.000279073
2.45001e-05
-0.000259197
2.38001e-05
-0.000255977
0.000274267
-0.000242907
-3.1367e-05
0.000317879
-9.98227e-06
-0.000307609
-1.8916e-06
-0.000255753
1.1816e-05
0.000243937
-1.45076e-05
-0.000261185
0.000228065
-0.000245337
0.000270145
-2.48081e-05
-0.000263229
1.49801e-05
-2.35781e-05
0.000286231
-0.000262662
2.13641e-05
-0.000266701
-0.000241628
-2.1353e-05
3.26676e-05
-9.0432e-05
0.000260194
0.000280759
-0.00028634
5.05122e-05
0.000237693
0.000282139
-0.000281657
-0.000243181
-2.39401e-05
0.000267121
-0.000260894
7.34723e-06
-0.00029556
1.95247e-05
0.000276184
-0.000268717
2.55361e-05
-8.31982e-06
0.000290486
-0.000268326
0.000243549
2.47773e-05
-0.000232513
0.000210841
0.000280049
-0.000288494
-6.16002e-07
0.000260289
-0.000259673
-0.000301931
-1.6116e-05
-0.000264573
2.35481e-05
-0.00024417
-2.41555e-05
-3.43281e-05
-0.000297983
0.000293917
0.000286674
-0.000158327
0.000295806
-0.000289928
2.30152e-05
4.9085e-06
0.000262281
-0.000255109
-7.15897e-06
0.000307552
-2.02199e-05
-0.000287319
5.95231e-05
-0.000246765
-2.19521e-05
-0.000356517
0.000241919
0.000285209
-0.000280484
2.33801e-05
-0.000188093
-1.58693e-05
-0.000306373
2.56287e-05
0.000280695
-0.000197054
0.000310955
-0.000113693
0.000259841
-0.000238533
-2.13081e-05
-0.000291658
2.94001e-05
0.000222097
-0.000251497
-0.000163244
0.000137838
-0.000165464
0.000251441
-0.000238029
-1.34121e-05
-0.000263873
3.40201e-05
-2.23161e-05
-0.000269837
0.000251469
0.000230427
3.12901e-05
-4.63922e-05
0.00020242
0.000232619
-0.000260499
-1.74178e-05
-3.11299e-06
0.00024654
-0.000243812
-0.000293378
-0.000237049
0.000265189
-2.81401e-05
0.000230096
3.22225e-05
-0.000268521
2.55921e-05
-0.000239905
-2.86161e-05
0.000228954
-0.000260706
-0.000282555
4.73202e-05
-0.000242005
0.000293853
-0.000283874
-0.00028846
1.3267e-05
0.000275352
-4.55275e-06
0.000217774
0.000228551
-0.00026107
0.000296885
-0.0001309
-0.000165985
0.000240984
-0.000262044
0.000269425
-0.000226213
-1.76681e-05
-0.000165253
0.00030811
-0.000142439
2.49649e-05
0.000222662
-0.000247627
-0.000192832
0.00019287
-0.000283645
0.000282332
6.97226e-06
-0.000290629
-0.000302485
0.000146693
0.000155793
0.000259995
-0.000239359
-2.06361e-05
-0.000215741
0.000193649
0.000261931
3.68397e-07
0.000257293
0.000232526
2.16797e-05
-0.000295624
-6.23396e-05
1.0302e-05
0.000233583
-0.000249881
1.74e-05
-0.000230917
-2.37161e-05
0.000254633
-0.000242295
0.000263191
-2.08965e-05
8.2633e-05
0.000133928
2.01688e-05
-0.000305875
0.00028574
0.000256565
-1.80041e-05
-0.000238561
0.000243881
-0.000254017
1.0136e-05
-0.000226745
0.000207957
0.000223131
-0.000258923
-0.000244693
4.76842e-05
1.59483e-05
-0.000137736
-0.000218754
1.57921e-05
0.000245701
0.000280582
0.000293711
0.00030586
1.70372e-06
0.000249817
-0.000220417
2.51749e-05
0.000225009
-0.000250184
-0.000243178
0.000268865
-2.56873e-05
2.28201e-05
-0.000262725
-0.000114181
0.000296112
9.1392e-06
2.08181e-05
0.000261675
-0.000235103
-2.65721e-05
1.31892e-05
-0.000303694
0.000290611
0.000321661
-3.09363e-05
-0.000290731
0.000249733
1.63241e-05
0.000306248
-0.000293027
-0.000230363
-0.000112314
9.63204e-06
0.000250657
-4.9129e-05
-0.00020239
0.000251519
2.20333e-05
0.000246832
-0.000241686
-2.29629e-05
0.000260737
-2.24001e-05
0.000287758
-0.000268023
2.63369e-05
2.68241e-05
-0.000257965
0.000210617
-0.000207677
2.58161e-05
-0.000262865
0.000281231
0.000121744
-0.000256173
0.000134429
1.78558e-05
3.83129e-05
0.000162122
-0.000200331
-0.000239485
-2.85377e-05
3.97602e-05
0.000162018
-0.000201845
-0.000246691
0.000271066
-2.43747e-05
0.000209866
-0.000248826
1.98857e-05
1.73468e-05
-0.000173822
-3.0471e-05
0.00022669
-0.000257413
-2.88401e-05
0.000244245
-0.000215405
-2.16161e-05
0.000242985
-0.000221369
0.000201657
-0.000250786
-0.000273618
-0.000232905
-2.55081e-05
0.000258413
0.000241234
2.98318e-05
-0.000211532
-2.37615e-05
0.000235821
-2.18821e-05
-0.000224967
-0.000239345
6.28042e-05
0.000259004
-0.000229718
4.75106e-05
-0.000249901
-3.43393e-05
0.000257694
-0.000223354
0.000205675
-0.000240014
0.000261689
-1.1956e-05
-6.06763e-05
-0.000229573
-0.000225402
-1.73786e-05
0.000242762
0.000247109
5.3175e-05
0.000212448
-0.000265623
-0.000261093
0.000177353
-0.000231757
5.44042e-05
6.43246e-05
0.00013677
0.000259457
-0.000240915
-2.47224e-05
-0.000265385
0.000227165
3.82201e-05
-2.87813e-05
-0.000222158
0.00025094
-0.000284736
0.000264161
0.000234501
3.61761e-05
2.18821e-05
0.000234087
-0.000307217
0.000151089
0.000156129
0.000168982
-5.23404e-05
0.000254045
-0.000115192
2.56901e-05
0.000217446
-0.000243136
-0.000286286
0.000286857
9.24619e-06
0.000257377
-0.000245953
0.000208937
3.70161e-05
0.000254832
0.000244998
-1.9648e-05
-0.000246815
-2.02161e-05
-0.000263019
2.0724e-05
-0.000269215
2.24001e-05
2.79601e-05
0.000220024
-0.000247984
0.000242481
-0.000274597
1.32721e-05
0.0002482
-1.37961e-05
1.27448e-05
-0.000251178
-0.000328664
0.00012404
-0.000233135
-2.62109e-05
-0.000252113
0.000252113
0.000259782
-0.000144217
-1.85641e-05
-0.00027855
0.000297221
0.000275872
0.000258749
-0.000135913
0.000224113
2.39205e-05
0.00023468
7.82699e-05
-0.000341389
3.78275e-05
0.000258962
1.76363e-05
-0.000248843
-3.00917e-05
0.000207453
-3.01001e-05
0.000259701
2.95429e-05
0.000218353
-0.000247896
-3.05014e-05
-4.09782e-05
-0.000217818
0.000258797
-0.000233423
-2.14173e-05
3.73183e-05
-0.000198383
0.000160959
-3.30877e-05
0.000221671
-0.000255943
-0.000281987
-8.50367e-06
0.000290478
-0.00019494
0.000162905
0.000166349
8.16763e-05
1.26814e-05
-0.000294678
0.000235075
2.59446e-05
-0.000261019
-0.000198093
-1.31528e-06
0.000232743
-0.000264287
3.15449e-05
-8.42803e-06
-0.000217029
0.000225457
-0.000162002
0.000199286
-0.000249985
-3.46025e-05
0.000256274
0.000218076
-0.000252679
-0.000246289
0.000272245
-2.59561e-05
0.000253547
2.78321e-05
-0.000232062
-2.95821e-05
-0.000298278
0.000316459
-1.82122e-05
2.33783e-05
0.000212462
-0.000250254
-0.000267233
2.09441e-05
-2.12801e-05
-0.000245953
-3.61481e-05
0.00024861
-0.000290037
-1.36495e-05
0.00022082
-0.000256968
0.000247802
-0.00025094
1.79754e-06
2.80002e-06
0.000181413
-0.000184213
0.000255294
0.000234529
2.67681e-05
-2.62361e-05
0.000245001
-0.000218765
3.36001e-05
0.000216609
-0.000250209
0.000244861
2.73841e-05
0.000306545
-0.000143949
-0.000162597
1.56673e-05
0.000239763
-0.000255045
0.000271013
-0.000113568
0.000225569
-0.000256677
-0.000241169
0.000104645
-0.000265469
7.16803e-06
-0.000241635
-2.75801e-05
-0.000241361
-2.48081e-05
0.0003106
-2.75437e-05
-7.67483e-05
0.000243097
-1.1452e-05
-0.000215601
0.000224281
-8.68003e-06
0.000255193
-7.68883e-05
3.43275e-05
-0.000196498
0.000162245
-0.000265245
-1.40001e-07
-4.14962e-05
3.95595e-05
0.000158699
-0.000198367
0.000197698
-0.000163314
0.000257041
-7.05603e-06
0.000251151
-0.000218277
-1.82313e-05
-2.1128e-05
0.000272723
-9.38872e-05
-0.000178483
-1.42801e-05
-0.000191913
0.000206193
0.000258665
-1.53553e-05
-0.00024331
1.98101e-05
0.000238855
-0.000279869
-8.14429e-06
3.74678e-05
-0.000194422
0.000157903
1.36921e-05
0.000247997
-0.000160998
0.000198684
-1.95189e-05
0.000248711
3.27981e-05
0.000187748
-0.000220215
-4.17202e-06
-2.49389e-05
0.000265108
-0.000231955
-3.14693e-05
0.000297142
-0.000281716
-1.53544e-05
1.63717e-05
-0.000237659
0.000221288
-0.00010514
0.000226885
1.9304e-05
-0.000305242
0.000285937
2.52001e-05
-2.79441e-05
2.69165e-05
0.000308952
-0.000289651
0.000238891
1.97345e-05
2.15601e-06
0.000231617
-0.000233773
-0.000310348
2.56384e-05
0.000284706
-0.000162177
-0.000144145
0.000209178
-0.000250156
-0.000164656
0.000241924
1.90317e-05
0.000256542
-4.13534e-05
0.000250531
0.000214498
-0.000255851
0.000318692
-0.000318871
-1.08387e-05
0.00028713
-0.000276239
-0.000302838
1.96508e-05
0.00028328
4.20842e-05
-0.000286413
-3.91215e-05
0.000252483
2.62921e-05
-2.21166e-05
0.000307365
-0.000285276
2.43321e-05
3.95354e-05
0.000161009
-0.000200424
0.000249294
-0.000219751
2.83277e-05
-0.000261633
4.36802e-06
-1.99699e-05
0.000306609
-0.000286634
-0.000250987
-0.000266673
3.07441e-05
0.000252141
-0.000236741
-1.54001e-05
1.2264e-05
0.000239877
-0.000275567
-1.28424e-05
0.000255697
-5.9137e-06
0.000319263
-1.20973e-05
0.000298232
-0.000286564
-4.77835e-05
0.000247437
-0.000235621
0.000257601
-1.99361e-05
0.000132091
8.61223e-05
-0.000218103
0.0002239
3.03493e-05
0.000226759
-0.000258662
3.71393e-05
0.000271273
-0.000288578
1.70394e-05
0.000251273
-0.000239093
-1.31321e-05
0.000252225
-2.91201e-05
-0.000257265
2.56481e-05
0.000231617
-0.000228005
-2.92601e-05
0.000259765
-0.000233571
-2.61941e-05
0.000258721
-0.000266922
2.51266e-06
0.00028955
1.24972e-06
-0.000290827
0.000248406
-0.000233141
-1.85921e-05
0.000308796
-0.000300784
-8.01767e-06
0.000248127
-0.000101072
-0.000266897
2.56761e-05
0.000241221
-3.48881e-05
-0.000232009
-0.000266393
2.51161e-05
0.000241277
-1.23864e-05
-0.000267585
0.0002799
-3.45241e-05
-0.000231869
-0.000261858
1.85175e-05
-0.000266281
2.43881e-05
0.000241893
-0.000284046
-2.17458e-05
-0.000306291
2.76591e-05
0.000278628
-3.34041e-05
-0.000232877
-0.000170181
-0.000258133
2.94001e-05
0.000228733
0.000308905
-0.000308901
-0.000195805
0.000209049
-3.29281e-05
-0.000225205
0.000197468
-0.000279126
8.16526e-05
0.000283739
2.23992e-05
-0.000301953
1.76961e-05
0.000285776
-0.000280973
-4.99991e-06
-0.000257125
0.000231617
2.55081e-05
0.000170069
2.82193e-05
-0.000198339
-0.000266953
2.81681e-05
0.000238785
-0.000227361
-2.97641e-05
-3.67361e-05
-0.000230217
0.000276523
0.000297362
1.90862e-05
-0.000276319
-3.16622e-05
0.000308
-0.000258679
-1.1191e-05
0.00029757
-0.000286269
1.50043e-05
-0.000301932
0.000286932
-0.000230609
-0.000307356
0.00028738
0.000263005
-2.55621e-05
-0.000280731
1.36081e-05
0.000166036
0.000229777
1.85893e-05
-0.000248907
-0.000199797
0.000161641
0.000236738
1.31517e-05
-0.00024989
-0.00025833
2.66093e-05
0.000231721
-1.09228e-05
0.000247661
5.74002e-06
0.000246877
-3.19817e-05
-0.000226348
0.000299487
-0.000285627
-1.38576e-05
0.000228024
-0.000226666
0.000289727
0.000237685
1.98521e-05
-0.000257537
-1.24236e-05
0.000250108
0.000246636
1.50389e-05
-0.000305465
1.54066e-05
0.00024448
2.18905e-05
3.23533e-05
-0.000199734
-0.000287505
-1.77338e-05
-0.000182869
0.000295177
-0.000150921
0.000184257
-3.32516e-05
3.13965e-05
-0.000200452
0.000168762
-0.000162562
0.000259149
-0.000239236
-1.99137e-05
0.000261385
-0.000273986
-0.00024111
0.000231749
-2.18973e-05
0.000301229
-0.000279332
0.000308002
-0.000292989
0.000242117
1.77241e-05
-0.000224975
0.00024443
-1.94545e-05
1.61001e-05
-0.000241075
-7.00003e-06
0.000260989
-0.000297177
4.8797e-06
0.0002923
-0.000174497
0.000160217
-1.74105e-05
-6.27238e-06
-0.000290902
-1.6809e-05
-0.000285114
4.28402e-06
-0.000300519
0.000135513
-0.000257457
2.37253e-05
0.000233716
0.000238197
1.32441e-05
-3.08144e-05
-0.000226643
-3.30773e-05
-0.000291576
2.07622e-05
-0.000225827
0.000205321
0.000254969
-0.000233465
-2.15041e-05
-0.00019659
0.000217303
-0.00018559
-7.33726e-06
0.000203122
0.000135764
0.000138022
3.97855e-06
0.000271151
0.000279925
-0.000305484
3.0721e-06
0.000243328
-1.98434e-05
0.00029872
-0.000278873
-0.000302279
0.000287485
1.47984e-05
-0.000258301
0.000230077
2.82241e-05
-2.64041e-05
-0.000231897
0.000301603
-0.000301584
0.000267587
-1.99869e-05
0.000304543
-0.000284571
0.000286169
-4.5923e-07
-0.000256873
0.000256873
-0.000268204
0.000295859
-0.00014514
-6.66105e-05
-6.98901e-06
0.000295194
-0.000288027
-0.000297459
0.00029045
0.0002922
-0.000279232
0.000290677
-0.000305533
1.48881e-05
3.44337e-05
-0.000240558
0.000215916
2.26266e-05
-1.45069e-05
-0.000246214
0.000229546
-1.43578e-05
0.000298266
-0.000283996
0.000263481
-1.96001e-05
0.000254224
-0.000235464
-1.87601e-05
-3.10254e-05
-0.000273793
0.000304812
1.43952e-05
-0.000297235
0.000282862
-1.45881e-05
0.000233465
-0.000218877
0.000208929
-0.000295301
0.000283219
-1.9251e-05
0.000304695
-0.000285446
0.00025102
-2.68826e-05
0.000297333
-0.000270438
-0.000295728
0.000268849
1.07156e-05
0.000244749
-0.000255465
0.000305273
-0.000312091
6.81227e-06
1.8061e-05
1.52026e-05
0.000286715
-0.000301651
6.32385e-06
0.000283229
2.32829e-06
-0.000318703
-0.000289205
0.000303798
-0.000242481
0.000243657
8.45603e-06
-0.0002264
0.000242772
-0.000293449
0.000274196
0.00028479
-0.00014889
-8.27268e-05
0.000294429
1.45079e-05
3.14427e-05
-0.000197465
0.000166172
-0.000274551
0.000257293
-0.000219535
0.00024982
0.000243411
1.92865e-05
-0.000262697
0.000236019
2.31309e-05
-0.000301381
0.000282861
0.000312378
-1.79632e-05
0.000237945
-0.000257069
1.91241e-05
-0.000222494
0.000247459
0.000294313
1.80497e-05
-0.000167879
-1.45882e-05
0.000298312
-0.00028377
-0.000142709
-0.000266415
0.000159993
0.000106423
-0.000309042
0.000295382
1.36616e-05
-0.000258699
0.000241826
1.68729e-05
-0.000153562
0.00015546
-0.000306366
0.000288557
1.78193e-05
-0.0002166
0.000179753
-9.69084e-06
0.000253101
2.05004e-05
1.75505e-05
-0.000304286
0.000286748
-0.000300423
-7.21647e-06
0.000307718
-0.000249229
0.000220109
-0.000201153
-8.52603e-05
-0.000272745
0.000250896
0.000303906
-0.000286344
-0.000191761
1.80736e-05
1.50764e-05
0.000284451
-0.000299518
-8.80603e-05
0.000239233
-0.000303461
1.94428e-05
0.000284006
-0.000207775
-2.74085e-06
-0.000297702
-0.000167474
2.05297e-05
0.000302903
-0.000288507
-1.44806e-05
-0.000172499
-0.000299235
-0.000175289
-2.27487e-05
0.000243528
0.000289477
1.71393e-05
0.000252869
5.75823e-05
-0.0002849
-0.000247213
-0.00027102
-2.33553e-05
-0.000274634
0.000300271
-0.000262771
0.000282523
-0.000164974
-4.12443e-05
0.00020582
0.000197569
1.56521e-05
-0.000213221
-1.25053e-05
-0.00028572
0.000298208
1.83597e-05
1.85767e-05
-0.000305377
0.000286821
0.000253345
-1.71361e-05
-0.000236209
1.89448e-05
-0.000304777
0.000285828
2.03561e-05
0.000232989
0.000216385
-2.46121e-05
-0.000191773
1.5784e-05
0.000282504
-0.000298252
-0.000250949
0.000117594
-0.000303804
1.86364e-05
0.000285156
0.000221355
-5.1254e-05
-0.000296575
1.24258e-05
0.000285427
0.000255837
-2.19801e-05
-0.000233857
-0.000303516
0.000106325
0.000234529
1.70521e-05
-0.000251581
0.000280155
1.69392e-05
0.000304162
-0.000285217
1.78334e-05
-0.000299497
0.000233512
1.84916e-05
-0.000252004
-1.90036e-05
-1.42592e-05
0.000298315
-0.000284075
-0.000280342
0.000299984
-0.000278293
0.000290774
-0.000303606
1.28667e-05
0.000249741
-1.62291e-05
1.16693e-05
0.000250041
-1.55121e-05
0.000298579
-0.000282782
3.95922e-05
-0.000237631