/*--------------------------------*- C++ -*----------------------------------*\
  =========                 |
  \\      /  F ield         | OpenFOAM: The Open Source CFD Toolbox
   \\    /   O peration     | Website:  https://openfoam.org
    \\  /    A nd           | Version:  12
     \\/     M anipulation  |
\*---------------------------------------------------------------------------*/
FoamFile
{
    format      ascii;
    class       volScalarField;
    location    "3";
    object      T;
}
// * * * * * * * * * * * * * * * * * * * * * * * * * * * * * * * * * * * * * //

dimensions      [0 0 0 1 0 0 0];

internalField   nonuniform List<scalar> 
22702
(
1
1
0.96343
1
1.01762
1
1.1207
1
1
0.885394
1.12055
1.11969
1
1.1185
0.968254
1
1
1
1.12045
1
1.11858
1
1.11858
0.899388
1.11881
0.880436
1
1.12003
0.900571
0.892881
1
1.11927
1
1
1
1.11057
1.11775
1.1187
1
1
0.882199
1
1.06174
1
1.11956
1
1
1
1
0.897027
1
0.901019
1
1.12044
1
1.11968
1
1
1
1
0.89325
1
1
0.910139
1
0.894588
1
1
1
0.887031
1
1.11919
1.07582
1
1.11931
1.12602
0.893399
1.11944
0.898892
1
1.12111
0.897026
1.11952
1.11944
1
1
1
1
0.982216
0.887672
1.11953
1
1
0.893372
1
1.11882
0.892622
1
1
1
1
1.06231
1.12089
0.880945
1
1
1.03218
1
0.897837
1
1.11951
1.12037
1
1
0.885418
0.884519
0.887885
1
1
1
1
1
0.974949
1
1.10286
1.01375
1.12034
1
1.12058
1.12067
1.11839
1.12062
1
0.887038
1
0.895383
1
1
1
1
1.12058
1
1
1
1
1.11849
1
1.0077
1
1
1
1
0.895319
1
1.00297
1
0.899726
1
1
1
1.11939
1
1.11843
0.882845
0.888772
1.12014
1.11966
1
1.02224
1.07178
1
1.12117
0.899014
1.11084
1
1
1
1
1.1186
1.10234
1
1.12044
0.910248
1.12047
1
0.895317
1
0.897985
0.880734
0.999942
1
1
1.12042
1
1
1.11865
1
1.11952
1.12049
0.899952
1
1
0.895336
1.11871
1
1
1
1.11863
1
0.896943
1
1
1.11838
1.11845
1.11946
1
1.00001
1
1
1
1.11862
1
0.89629
1.12491
1.11871
1.11807
1
1
1
0.892904
1.11866
1.05793
1
1.11886
0.897381
0.898103
1.1189
1.11871
1
1.11818
0.890759
1.10599
1
1
1
1
1.11858
1
1.072
1.01225
1
1
1.11877
0.89539
0.927718
1
1.11836
0.887315
1.11795
1
1
1
1
1
1
1
0.894556
0.927277
0.897005
1.11864
1
1
1
1
1.10949
1
0.897749
1
0.887999
0.896705
1.11851
0.896864
1.1186
1
1
1
0.999326
0.897426
0.889543
1
1
0.887271
1
1.12059
0.88382
1
1
1.12098
0.88632
1
1.11787
0.887481
1.11878
1
0.89262
0.999362
1
1
1
0.901687
1
1
0.999999
1
1.00621
1.07578
1
0.890182
1
1
1
1
1
1
1
1.12073
1
1.12158
1
1
1
0.89109
1
1.11826
0.897683
1
1.0986
1
1
1.12107
1
1
1
1.11615
1
1
1.11488
1.12084
1
1.02907
1
1
0.894372
1
1
1
0.897276
1
1
1
1
0.888299
1
1
1
1
1
0.893477
1.00002
1.11893
1
0.999995
1.11955
1.12034
1
1
0.899044
0.945786
1.12049
1
1
1
1.11876
0.886611
1
1.11859
1
1
0.911429
0.906377
1
0.893226
0.892949
1
1
1
1
1
1
1
1.12019
1.0317
1.11126
0.896333
0.974392
1.12098
1
1.11941
1.12009
0.895014
0.934776
1
0.893827
1
1.12499
1
1
1
1
1.1187
1
1
1
1
1
1
1
1.04672
1.11918
1
1.11863
1
1
0.896484
1
1
1
1
1.11857
1.09258
1
1
0.895858
1.11872
1.11848
1
1.11841
1.11866
1.11849
1
0.951159
1
1.1184
0.998084
1.11854
1
0.89576
0.999684
1.12158
1
1
1
1
0.895388
1.11852
1.10842
1
1.11918
1.11863
1.12059
1
1.05914
1.11828
1
1
1.08491
1.01707
1.11835
0.982827
1.11842
1
1.11837
1.11862
1.11841
1.11865
1
1.11214
0.97469
0.966921
1
1
1
1
1.12083
1
1
1
1
1
1.12044
1
1
0.998886
1.11854
1.10409
1
1.10118
1.00001
1
1
1.11848
1
0.999102
1.00135
1
1.11868
1
1.11891
1
1
1.0897
1
1.11897
1.00001
1
1.1186
1
1.11857
1
1
1
1.11861
1
1.1196
1
1.11864
1.1215
1.11853
1.11955
1
1.12069
1.11865
1
0.890489
1.11201
1.08708
1
1.11869
1
0.894751
0.886899
1
1
1
1
1
0.89016
1
1.11864
1.03515
1.11865
1
1
1
1
1
1.1186
1
1.11965
1.07336
0.935317
1
1
1.03586
1.03096
1
1
1.04454
1
0.898132
1.11856
1.1186
1
1
1
1.12124
1
1.00001
1.1177
1.11857
0.986219
1
1
0.898664
1.10851
1
1
1
1
1
1.11856
1.12083
1
1.11856
1.11916
1.11866
1
1
1
1
0.880565
1.12031
1
1
1.10861
1.11827
1
1.11225
1.1198
1
1
1
1
1
1.11866
1
1
1
1
1.12011
1
1.11787
0.894195
1
0.890564
1
1
1
0.99909
0.89124
0.999727
1
1
1
1.01783
1
1
0.961946
1
1
1
1
1
1
1
0.999999
0.980978
1
1
0.999304
1
0.895201
1
1
1
1
1.09043
1
1
1
1
0.900229
1
1
1.11217
1.12091
1
1
1
0.967052
1
1
1
1
1
1
0.986423
1.00604
1.11869
1
1
1
1.11976
0.972194
1
1
1
1.11868
1.12042
1
1
1
1
1
1
1
1
1
0.893701
1
1
1.12025
0.895838
1
1.12003
1
0.895934
1
1
0.893722
1
1
1
1
1
1
1
1.11642
1.11837
1
1
1
1
1.10893
1
1.04011
0.890314
1
1
1
1
1
1
1
1.01146
1
1
1.0647
1
1
1
1.09928
1
1
1
1
0.888648
1
1
0.887607
0.890626
1
1
1.11854
1
0.998194
1
1
1
1.08523
0.885616
1
0.882958
1
0.933976
1
1
1
1.11898
1
1
1.11854
1
1
1
1.11852
1
1
1.11846
1
1
0.894396
1
1.04037
1
1
1.12087
1.12089
1.08262
1.10718
1
0.895681
1
1
1.11379
1
0.883909
1
1
1
1.11859
1
1
1
1
1.07454
1
1.11089
1.11892
0.892373
1
1
0.881385
0.880238
1
1
1
1.08661
1.09131
1
1
1
1
1
1
1
1.0552
1.11999
1.00448
1
1.11731
0.888069
1
1
1
1.06753
1
1.02484
1
1.10914
1.11819
1
0.89543
1
1.12065
1
1
1.11841
1.11212
1
1.12146
1
0.903239
1
1
1
1.11948
1.11633
1.10536
1
1.11934
1.11856
1
1.11869
1
1.11811
1
0.884741
0.99273
0.888256
1
1
1
1
1
1.11841
1
1.11869
1
1
1
1.11309
1
0.896624
1.11861
1
0.896908
0.896269
0.888038
1
1.0625
1.01294
1.11884
1.1186
1
1
1
1
1.1186
1
1
1.11856
1.11852
1
1.04538
1.00002
1
0.999096
1.12082
0.955887
1
0.94896
0.898742
0.898705
0.991022
1.11886
1.11704
1.02753
1.11863
1.11852
1
1
1.12212
1.12057
1.11853
1.12106
1
1.11868
0.89303
1.11948
1.11872
1.12023
1.11845
0.961602
0.96909
0.979346
1.11848
0.989679
1.11848
1
1
1.11893
1.11899
1
0.894639
1.11867
1.11834
1
1.11859
1.11844
1
1.11853
0.89865
1.11897
1.12097
1.12054
1.11787
1
1
1
1.11833
1.07991
0.894603
1.11852
0.888818
1.1183
1
1
1
1
1.1194
1.11855
1
1
1.11853
0.890544
1.11895
0.897292
1
1.1177
1
0.884629
1.11881
0.9187
1
1.1186
1.11925
1.11873
1
1
1.06268
1.11914
0.892066
1.11862
1
1.11853
0.962789
1.11824
0.893695
1
1.11862
0.900202
1.11894
0.896561
1
1.11857
1
1.11898
1
1.07231
1.11452
1.09533
0.883719
1
1.11889
1
1.11846
1
1.11865
1
1
1.1184
0.996379
1.1191
0.890212
1.10566
1
1.08734
1
1.11894
1.11862
1.11871
1
1.10761
1.11813
1.11076
1.07627
1.1187
1
1.08204
1
1.11852
1
1.01827
1
1.11087
1
1.1185
1.11353
1.11331
1
1.1171
0.882483
1
0.894525
1
1
1
1.12012
1
1.11879
1
1
1
1.11868
1.11546
1.09863
1.11882
1.11968
0.889335
1.11632
1.11995
1
1.10277
1.11863
1.11784
1
1.12128
1.11977
1
1.12084
1.11878
1.11892
1.11877
1
1
1
1.11853
0.888763
1
1.11856
1
1
0.893216
1
1
1.11847
1.11861
1
1.11857
1.11951
1.11878
0.992705
1.11852
1
1.11852
1.11863
1.0967
1
1
1
1.11897
1.11894
1.11851
0.985217
1
1.11982
1.11883
1.11869
1
1.11863
1.11861
1.11854
1.12019
1
1.1186
1.1185
1.10439
1.11864
1.11982
1
1.12011
1.11722
1.11855
1.11974
1.11847
0.875487
1.11832
1.11903
1
1.11852
1.11858
1.11849
1.11841
1
1.11869
1.11851
1
1.11842
1.10135
1
1
1
1.11949
1.11761
1
1
1.06692
1
1.11842
1
1
1.11836
1.11884
1.1185
1.11857
1
1
1
1.08704
1
1.11849
1
1
1.12226
1.12122
1
1.11856
0.880371
1.11858
1.1184
0.916047
1
0.879695
1.10476
1.11902
1.11831
1.11825
0.897626
1.1181
1.11877
0.897019
0.889169
1
1.11866
1.11855
1
1
1.11856
1
1.11913
1
1.10481
1
1.05878
1.1185
1.11909
1.08752
1.10821
1.12001
1.11934
1.11317
1
0.888692
1.11893
1.11887
1.12035
1
1
1
1.11999
1
1.11889
1.11827
0.921899
1
1.11852
0.99998
1
1.00001
1.00001
1.11879
1.11885
0.999562
1
1
1.11852
1.11915
1.11861
1.11948
1.11806
0.893803
1.106
1
1.11774
1.11856
1.1186
1.11759
1
1.11857
1.11548
1.11878
1
1.1189
1.11931
0.961458
1.11851
1.11904
1
1.11847
0.952625
1.11897
0.961115
1.11873
1
1.11862
1.12351
1.11861
1.11865
1.11861
1.12058
1.11877
1.11989
1
0.980545
1.11891
1.11854
0.952624
1.11862
0.995373
1.0793
1.11894
1.11954
1.11944
1
1.1192
1.07928
1.11926
0.977867
1.11894
1.12174
1
0.960557
1
1.11736
1
1.08454
1
1.11266
0.960251
1
1.11929
1.11772
1
1.11928
1.11889
1.11976
1.11605
1.11791
1
1.12168
1
1
1
0.97058
1.11871
1.11829
1.11979
1.1186
1.11757
1.11959
1.11777
1.11876
0.973145
1.00915
1
1
1.12383
1.11869
1.11861
1.11866
1.00001
1.06396
1
1.12064
1.10496
1
1
0.917404
1.11864
1
1
0.895167
1.11856
1
1.1199
1.11849
1.12012
1.11456
1.11859
1
0.88415
1.0305
1.11847
1.1186
1
1.1187
1.11849
1.06124
1.00301
1.02955
1
1.11895
1.11865
1
1
0.895305
1
1
1.11863
1.1186
1.11797
1.11857
1.11891
1.12045
1.11864
1.1178
1.11861
1
0.99891
1.11867
1.11852
0.999169
1.11857
1.11857
0.890323
0.889335
1.11872
1.12055
1
1
1.00051
1.11854
1.11804
1.11863
1
1.1185
1
0.957851
1.12062
1.11899
1
1.05913
1.11875
1
1.11935
1
1.11855
1.07828
1.11807
1
1.11853
1.11943
0.893896
1.11851
1
1.11926
1.11972
1
0.887253
1.11811
1.10517
0.999294
1.11405
1.11861
1
1.00083
1.11954
0.999355
1.11848
1
1
1.11857
1
1.11965
1.11853
0.999
1.09499
1
1.11858
1
1
1
1
1.11868
1
1
1.11564
1
1.11837
1
1.07875
1.11816
1.11843
1
1
1.00117
1
1.11886
1.11842
1.11902
1.11849
1.11874
1.11847
1.11846
1
1.1184
1.11845
1
1.1184
1.11858
1
1.11832
0.979432
1.01679
1.11844
1.11857
1.11825
1
1.11844
1
1.11855
1.11852
1
1.1187
1
1
1
1
1.1187
0.887626
0.999402
1
1.1187
1.12058
1
1.11844
1
1.00148
0.889417
1.11863
0.999881
1
1.11873
0.999536
1.11849
1
0.999942
1
1.11843
1.12049
1.11846
1.11906
0.889291
1.11831
1.11871
1.11843
1.0311
1
1
1.05535
1.11889
0.882847
0.892352
1
1.11889
1.11848
1.11891
1
1
1.11914
1.11856
0.999963
1
1.08804
0.88232
1
1.02226
1.12164
1.1176
0.999496
1.11871
1.12014
1
0.999634
1
1.11828
1.1206
1.04964
1
1.11073
1
1.00054
1.11845
0.883767
1.11854
1.11869
0.999135
0.999974
1.10319
1
0.999912
1
1.11946
1
1
0.879819
1.11841
1
1
1
1
1.12012
1.07105
1
1
0.884029
1.11859
1.07144
1
1
1
1.11348
1.11813
1.1197
1
1
1.11927
1
1.11863
1.11899
1
1
1.1191
1.11881
1.11358
1
1
1.11912
1.11863
1
1
1
1.11866
1
1
1
1.11844
1.11979
1.11913
1
1.12001
1.00001
0.908223
1.11838
1.1183
1
1.11985
1.11585
1.12041
1
1
1.11928
1
1.06569
1.11897
1
0.892757
1
1.11902
1
1
1.11777
1
1
1
1.04005
1.11892
0.899075
1
1.11885
1
1
1.11889
1
1.11943
1
1
1.11888
1.11835
1
1.00002
1
1
1
1
1
1
1.12014
1.11834
1
1.11986
0.891747
1.12019
1
1.11856
1.12074
1.11869
1.12095
1.12149
1
1
1.11759
1
1.07742
1.11971
1.11849
1
1.11934
1.12108
1
1.10611
1
1.11853
1.0796
1.11801
0.999289
1.11748
1.10948
1.11899
1.11879
1.01066
1.11853
1.11952
1
1.11859
1
1.11855
1
1
1
1
0.998968
1.11869
1.11874
1.1021
1
1.11989
1
1
1
0.890794
1
1.11608
1
1.10905
1.11228
1
1
1
1.11015
1.12193
1
1
1.11883
0.886293
1.0198
1
1.11955
1.11847
1.1093
1.11612
1.11864
1
1.11874
1
1
1
1
1.11783
1.11869
1
1.11623
1.01685
1.11894
1.11136
1
1
1.1118
1
1
0.903666
1.08602
1
1
1.11808
1
1.11964
1.10905
1
1.10844
0.886413
1.11821
1.11853
1.1187
1
0.899403
1
1
1
1.11839
1.1025
1
1.11598
1.11874
1
1.11853
1
1
1
1
1.11872
0.99981
1
1.11909
1
1
1.11642
1.1186
1
1.12015
1.02549
1.00001
1
1.11885
1
1.11899
1
1.00381
1.11855
1
1.11875
1
1
1.03763
1.11849
1
1
1
1
1
0.999153
0.889723
0.884076
1.00588
1
1.0099
1
1.01141
1
1.11853
1
1.07697
1
1.11887
1
1
1
1.11887
1
1.09794
1.11847
1
1.06478
1.11892
1
1
1.1199
1.11846
1
1
1.01625
0.885705
1
1.11873
1
1
1
1
1.02168
1.11886
1
1
1
0.904957
1
1.11892
1.11864
1.1188
1
1
1
1
1.06136
1.11925
1
1
1
1.11998
1.11855
1.01567
1
1
1
1.11871
1.11858
1
0.889521
1.11851
1.11853
1.11804
1.11811
1.11761
1
1
1.1199
1.11824
1.11854
0.907422
1.01178
1.1187
1
1
1
1
1
1.11871
0.88996
1
1
1.11852
1.05836
1
1.11931
1
1
1
0.895998
1
1
1.03367
1.11858
1.11859
1
1.11766
1.11937
1
1.02021
1
1.11945
1
1.11841
0.886642
1
1
1
1
1.11855
1.00002
1
1
1
1.11799
1
1
1
1
1.11874
0.895352
1.09617
1.11916
1
1.11833
1
1
1
0.999172
1
1.12053
1
0.945916
1
1
1.00001
1.11839
0.89079
1
1.11898
1
1.11788
1.11854
0.895243
1
1
1.11496
1
1
0.901012
1
1.11737
1
1.11378
0.999824
1.1187
1
1
1
1
1.12078
1
1
1.11861
1
1
1
1
1
1
1
1
1.08139
1
1.0411
1.11885
1
1
1
0.893966
1
1
1
1
1.11952
1.11852
1.01688
1
1
1.11881
1
1
1.11861
1
1
1
1
1
1
1.11859
0.938005
1.11852
1.11905
0.999152
1
1
1
1.07323
1
1
1.11843
1.11891
1
1
1
1
0.878247
1
1
1
1.07819
1
1.11864
1.11938
1
1.11886
1
1
1
1.06811
1
1.12034
1
1.11854
1
1
0.998912
1.11857
1
1
1
1
1
1.11785
1.00001
1
0.906592
1.11815
0.910875
1
1.11889
1
0.998812
1
1.11888
1.1184
1
1.11502
0.962483
1.11847
1.119
1.00001
1
1
0.891939
1
1
1
1.11859
1.07075
1.11808
1
1
1
1
0.999064
1.11838
1
0.885759
1
1
1
1
1
1
1
1.12048
1.11787
1.11949
1
1
0.999094
1
0.993741
1
1
1
0.884747
0.994623
1
0.892831
0.893845
1
1.1187
1.11858
1
1.11794
1.11861
0.887949
1.08092
1
1
1
0.885043
1.11865
1
0.883656
1
1.11878
1.02106
1
1
1
1
1.11865
1.11978
1
1
1.11861
1
1
1.12118
1.11852
1
1.10862
1.1186
1.11988
0.989693
1.11901
1.00243
0.886255
1.09326
1.11834
1
1
1
0.8847
1
0.890284
1.11832
0.989102
1.1185
0.987203
1
1.11875
1.05705
1
1
1.11946
1
1.05266
1.11847
1
1
1.1201
1.11722
0.895016
1.07197
0.999972
1
1.07488
1
1.1188
0.987195
1.12096
1.11843
1
1
1
1
1.11427
1
1
1.11799
0.9999
1.11875
1.09781
1.11944
0.89399
1
1
1
1
1.11841
1.00001
1.11879
1
1.11878
1.11826
1.01629
1.12001
1.03882
1.11877
1
1.08428
0.900754
1.11936
1.11861
1.09819
1.0219
1.11958
1.11849
1.11841
1.11841
1
0.981379
1.01888
1
1.11864
1.05787
1.11883
1.00001
1
1
0.905056
1.11806
1.11919
1.09828
1
1.04959
1
1.11935
1.12018
1
1.11873
1.11913
1
1
1
1.11855
1
1.04997
1.11814
1.0849
1
1.1188
1
1
1
1
1
1
1
1
1
1
0.902193
1
1.11055
0.876516
1.07307
0.999593
1.11799
1
1.06436
1
1.07917
1.10595
1
1.00071
1.12048
0.978424
1
1.11983
1.11651
0.985094
1
1.1176
1.11857
1.11929
1
1.11873
1.11898
1.1182
1
1.05856
1
1.00002
1.11859
1
1.11885
1.01912
1.11918
1
1
1.11816
1.11922
0.902487
1
1.1182
1.09057
1.11831
1
1
1.11919
1.11942
0.999492
1
1.10852
0.999078
1.11854
1.00001
1
1
1
1
1.05824
1
1.09327
1.1191
1.09022
1.1183
1
1.00071
1
1
1.12065
1
1.11833
1
1
1
1
1
1
1.01582
1.06482
1
1
0.877692
1
1.11886
0.90011
1.12096
1
1.0641
0.999928
1.11905
1.07869
0.898074
1.06888
1.00001
1.11868
1.11913
1
1.07416
1.11957
1.11816
0.999543
1.11861
1.11555
0.888046
1
1
0.999375
1
1.11835
1
0.90072
1.11836
1
1
1.10539
1
1.11896
1
1.11871
1
0.89736
1
1
1.11892
1.118
1.11926
1
1.11898
1.11863
1.1165
1
1
1.11772
1
0.923072
1
1
1
1.11873
1
1.11844
1.08132
1.1192
1
1.11849
0.999825
1
1
1
1
1
1
0.907923
1
1
1.11858
1
1.11951
1.11781
1
0.889864
0.892061
1
1.11913
1.02198
0.886831
0.887003
1
1.11814
1
1.11985
0.89546
1.00045
1
1
0.999858
1
1
1
0.999976
1.05336
1.11881
1
1
1.11899
1.07244
1
1.1066
1.11849
1.11876
1.05352
1.115
1
1.11853
1
1.11578
1
1.11853
1.11924
0.999079
1.11872
1.11827
1
1
1
1
1
0.977644
1.11937
1.00001
1.00001
0.884813
0.999994
0.887534
0.893378
1
1.11899
1.11824
1.11886
1
1.11841
1
0.893629
1
1
1.11819
0.950762
1.11856
1
1.11878
1
0.995924
1.11822
1
1
1
1.11834
1
1.11821
0.894972
1
1
1.07244
1
1
1.06873
1
1
1.11827
1
1
1
1
1
1.12017
1.1183
1
1.11936
1.11811
0.895151
1.05736
1.11926
1
1
1.10763
0.99971
1
1
1.11862
1.11919
1.0841
1
1.11906
0.891345
1.11102
0.999813
1
1.11805
1.00001
1.11912
1.09904
1.09181
1
1
1.11887
0.9091
0.874443
1
1.11839
1
1.11836
1
1.07365
1
1
1.11833
1.07938
0.886099
1
0.999513
1
1
1.00756
1.05194
1.11888
1
1.11972
1
1
1
1
1
1
1.01924
0.883994
1
1
1.01283
1
1
1
1
1
1.11877
1
1
1.11837
1.11879
1.08782
1
1
1
0.950279
1.11983
1.08547
1
1
1
1
1.11822
1
1
1
1.11827
1
1
1.08862
1.12334
1.01217
0.921986
1.11782
1.08703
1.11875
1
1.0625
1
1
1
0.885012
1.00072
0.885348
1
0.887699
0.886777
1
0.894737
1
1
1
1.05558
1
1.11887
1.11881
1.00036
1.06185
1.10135
0.875897
0.929554
0.96545
1
1.11851
1.12021
1.11853
1.11869
1.10332
0.961402
1
1.10379
1
1.11319
1
1
0.998973
1.00267
1
1
1
1.11921
1
0.87756
1
1.11895
0.897159
1
1
1.11861
1
1.11849
0.999898
1
1
1.11875
1.1116
1
1.12294
1
1
1.00423
1
1.05495
1
1
0.896044
1
1
1.11855
1
1.11859
1
1.00001
0.883983
1
1
0.897948
1.00031
1
1.11956
0.893456
1.11924
0.888096
1.11816
1
1
1
1
1
1
1
1
1
1
1
1.1143
1
1.11898
1.1208
0.884298
1
1
1
1
1
1
1.11561
1
1
0.89346
1
1
1.11974
1
1
1.04805
1.10146
0.893888
0.893347
0.901607
0.923976
1
0.999058
0.890587
1.00011
1.10899
0.99914
1
1
1.11889
1
1
1
0.932259
1
1.04599
1
1
1.05191
1.11839
1
0.877093
1
1
1
0.999107
1
1.1192
1.11848
1
0.884695
1
1.06836
0.888033
1
0.967635
1
0.998711
0.887932
1
1
1
0.998906
0.882169
1
0.883754
0.999547
1.06548
1.10774
0.892209
0.895219
1
0.99743
1
0.999606
1
1.11829
1.11838
1
1.00727
1.11882
1.1187
1
1
1.11845
1
1
1.00001
1
1.11934
1
1
1.005
1
0.999592
0.904615
1
1
1
1
1
1.1188
1.01284
1.00001
1
1
1
1
1
1.00001
1
0.893001
1.03158
0.99959
1.11585
1.11976
1
1.00484
1.11893
1.10617
1
1
0.892924
1.11893
1
1.12024
1
1.1183
1.0823
0.891669
1
0.887802
1.11558
0.999907
1
0.884241
0.894648
1
1
1.10175
1
1
0.887337
1
1
1
1.03975
1
0.886295
1.11825
1
1
1
1
1.11861
1
1
1.11815
1.10725
1
1
1
1.11914
0.8925
1
1.11909
1.11857
1
1.09705
1
1.00001
1
1
1.11318
1.00791
1
0.884517
1.06852
1
1
0.999293
1
1
1.11961
1
1
1.00001
1
1.11917
1
1
1
1
1
1
1
1.05697
1
1.11882
1
1
1.11899
1
1
1
1.11853
1.1179
1.01296
1
0.999318
1
1
1
1
1.11997
1
1
1.11837
0.892425
1
1
1
1
1
1
1.09794
1
1
1.11915
1.11908
1
1
1
1.11898
1.11867
1
0.999905
1.12034
1
1
1
1.00001
0.885925
1.00864
0.998934
0.998811
1
1
0.880618
1.11873
1
0.893503
1
1.11914
1.11424
0.893925
0.999835
1.11889
1.11892
1.11833
1
1
0.979537
1.1087
1.10263
0.894393
1
1
1
1.11892
1.11831
0.893587
0.999242
1
1.11855
0.896399
1
1.11594
0.890534
0.99303
1.00188
1
1.11908
1
1
1
1
1
1
1.00003
1.11131
1
1
1.12053
1
1
1
1.11843
1
0.890527
1
1
1
1.04352
1
1
1
1
1
0.936189
1
0.901638
1
1.11846
1.00002
0.960433
0.95826
1
1.00104
1.0654
1
1
0.887545
1.11838
1.11841
1.11846
1
0.885225
0.894738
1
1.11881
1
1
1
1
1
1.00001
1
0.892258
1.08047
1
1
0.894886
0.997463
1
1
1
1
0.889242
1
0.89591
1
1
1.12081
1
1
0.882605
1
1.11844
1
0.879375
1
0.890641
1
1.00226
1.11873
1.12332
1
1
1.11982
1
1
1.03017
0.999106
1
0.999474
1
1.11936
1
0.878648
1
1.12134
0.999715
1
1
0.94055
1
0.999701
0.889083
1.11816
1.04717
1
1
0.972577
1
1
1
0.938977
1
1
1
1.11864
1
0.892647
1
1
1
1
0.891626
1.1184
1.11329
0.892443
1
1.11694
1
1
1.11846
1.1196
1.10195
0.886942
0.999344
0.999775
1
1.11851
1
1
1
1
1.11844
1.00001
1
1
1.12025
1
1
1.11866
0.890678
1
1
1
0.893302
1
1
1
0.999606
1
1
1
1
1.09222
1
1.11952
1.11949
1.12056
1.11884
1.11874
1.11853
1
1.11869
1
1.1184
1.11857
1
0.999658
0.884673
1.10307
0.999973
1
1
1
1
0.999302
1
1.01961
1
1
1
0.950988
1.11865
1.11845
1.1191
1.1063
0.999964
1
1.00641
1.11887
0.999394
1.01715
0.999208
0.895977
1
1.00001
1
1
1
1
1
1.11896
0.88837
1.11885
1.11856
0.998549
0.884774
1
1
1
1.11875
0.893356
1.10579
0.890004
1.11838
1.11857
0.891361
1.11801
1.00719
1
1.1194
0.93615
1
0.999657
0.877371
1
0.897214
1
1.11861
1.11845
0.929232
1
1.11924
0.898747
1
0.891768
1
1.11868
1
1
1.11667
1
0.946953
1
0.999911
0.899775
1.11868
0.999848
1
0.889555
1
1
1
1
1.06959
1
1.11836
1
1
1.12267
1
1
1.11892
1
0.893498
1
0.8959
1
1
1
1
1
1.11407
1.0712
1.11857
1
1.11859
1.11125
0.889654
0.875576
1
1
1.11897
1
0.890503
1
0.997451
1
1
1.11819
1
1.1196
0.877334
1.11983
1
0.872592
1
1
1.11841
1.11824
1
1.00001
1
1.11969
1
1
0.890528
0.999831
0.889766
1
1
1
1.11895
1.11979
1.11968
1
1
0.894034
1
1.12005
1
1
1
1.11729
1.11849
1.11889
0.892531
1.11927
1.11858
0.893098
1.11926
1.00001
0.890872
1.00588
1
1
1.11903
0.891558
1.07785
0.889714
1.11855
0.999285
0.888796
1.11931
1
1
1
1
1.11869
1.11975
0.89114
1
1.00001
0.892348
1.00001
1
0.888491
0.874505
1.08642
1.11859
0.999573
1.11859
1
1.11961
0.944831
0.886417
1.11863
1.12179
1
1.1189
1
1
1.11856
1
1.09474
1.11942
1
1
1
1
1.11878
1.11741
1.11815
1
1
1.11861
1.12155
1.11835
1
1.11872
1
1
1
1
1
0.889265
0.95159
0.877896
1
1
1.11881
1
1
1.11857
0.883361
1
1.11862
1.11745
1.11367
0.883322
1
0.891253
1
1.00001
1.11978
1.05746
1.12017
1.10917
1
0.893552
1
1.11804
1.08697
0.894681
1
1
1
0.943915
1
1
1.12221
1
0.898752
1.11866
1
1
1
1
1
1.09772
1.02919
1
1.11931
1
1.11901
1
0.999189
1
1.11847
1.11978
1.11819
1.11967
0.999877
1.12005
1
1.11851
1.11829
1.10216
1
1
0.883893
1.11878
1
1
1.11876
1.11887
1.11925
1
1.11864
1
1
1.00001
1.12006
1.11856
1.03638
1.02697
1.11864
1.11863
0.900627
1
1
1
1
1
1.04558
1
1
1.09981
0.892962
0.999988
1
1.11837
0.999968
0.999951
1.02004
1.10733
1.11904
0.973516
1
0.888283
1
0.999185
1.11863
1.1191
1.1201
0.999701
1
1
0.894846
1
1
1.11863
1.0141
1
1
1
1
1
1
1
0.999982
1.11964
1
1
1
1
1
1.07682
1
1.05986
1
1
1.11856
1.11923
0.892939
0.999653
1
1
1
0.891784
1.11986
1.11847
1
1
1
1
1
1
1
1
1.11829
1.11868
0.883202
1.01404
0.892464
1
0.892713
1
1.11865
1.03631
1
1
0.913611
1
1.11369
0.941535
0.998983
0.886532
1
1
1.11946
1.00001
0.999159
0.888153
1.11973
1.12131
1
1
1
1
1.11163
1
1
1.1186
0.999698
1.11935
1.00001
1
1
0.887569
1
1
1.11902
0.886601
0.932907
0.890496
1.1186
0.999791
1
1.12015
0.890656
0.887042
1.00639
1
1
1.11979
1.00001
1.05871
1
1
1.12003
0.891975
1
1
1.00004
1.11956
1.00003
1.11789
1
1.00001
1
1
0.917012
1
0.933554
1
1
1.11787
0.884223
1
0.934531
0.943534
1
1
1.11882
1
1
1
1.1182
1.11866
1.00001
1.11973
1.11995
0.93643
1.1186
1.11204
1
1
1.11984
1
1
1
1
1
1.11884
1.11883
1
1
1
1.11877
1.00006
1
0.885174
0.912945
1
1.00001
1.04669
1
1
0.972777
0.892199
1
1
1
1.11922
1.10982
1.11855
1
1
1
1
0.889371
1
1.11626
1
1.11929
0.891145
1.11778
1
1
1
0.89336
1
1.11912
1.00001
1
0.894528
1.04546
1
0.999901
1.11818
0.884734
0.877176
1
1.11963
0.885728
0.886561
1
0.876345
1
1
1
1
0.891662
1
1
1
1
1.11969
1
1.09289
0.891069
1
1
1
0.888558
1.11829
1
1
0.999005
1.11743
1
1.11916
1.1192
1
1
0.908283
0.889836
1
1
0.890354
1.04086
1.05963
1
1
1.1195
0.99927
1
0.999354
1.12028
1
1
1
1
1
1
1.11873
1
1.04527
1.04086
0.908723
1.10646
1
1.11871
1.11848
1
1
1
0.974826
0.905213
1
1.06581
0.999896
1.10465
1
1
1
1
1
1.00183
1.05522
1.11886
1.11875
1
1.11844
1
0.88969
1
0.999262
0.999933
1
0.883393
1
0.893462
1.00001
1.11921
1.11992
0.883472
1.11991
0.89448
0.998914
1.0914
0.894484
1.08686
1
1
0.999547
1
1
1
1.00002
1
0.889076
1
1
1
1
0.999887
1.11899
0.942745
1
1
1
1.01051
1
1
1
1.071
0.924588
1
1
1
1.01664
1.11901
1
0.887515
1
1.11894
0.975227
0.891858
1
0.888618
1
1
1.11276
0.999498
1.11151
1
1.0026
1
1
1.11843
1
1
1
1
1.0252
1
1.11865
1.11908
1.11867
0.889393
1.1186
0.999184
1.0987
1
1
0.882949
1
1
0.886434
1.11755
1
1
0.999991
1
1
1
0.885708
0.893869
1
1.12042
1
1.05954
1.1186
0.890322
1.10262
1
1
0.890762
1
1
1.11862
1.1185
1.0448
1
1
1.00057
1.11965
0.889953
0.887847
1.11966
1.11858
1.08399
1.0503
1
0.972404
1
1
1
1.11129
1.11987
1.11908
1
1
1.11836
0.880016
1.10731
0.885645
1
0.893233
1
0.885862
1.11855
0.887156
1
0.996388
0.90177
1
1
1
0.954964
1.11064
1.11872
1.11934
1.11979
1
1
1.11959
1
1
1.11923
1
0.892553
1
0.881811
1
1.11923
1
1
1.00791
1.09305
1
0.999662
0.894553
1.11847
1
0.882819
1.02484
1
1
1.09072
1.11854
1.11856
1
1.11892
1.03569
1
1.007
1.11858
1
1
1
1
1.11853
1
0.880678
1.11896
0.885354
0.879128
0.946214
1.11883
1.04344
1.11861
1
1.12013
0.999228
1.00001
1.11837
1.11984
1
1.11945
1
1.11866
1
1.12001
1
1.00001
0.999995
1.11782
0.891051
0.891802
0.999389
1
1
1
0.893332
1
1.08084
1
0.886845
1
1.04899
1.11916
1.11788
1
1
1.00001
0.999813
1
1.11955
1.11858
1
1.05368
1.11883
0.954874
1.11866
1.00001
0.881682
1.02754
0.892446
1
1
1.02218
1.12035
1
1
1.01322
0.999604
1
0.882459
1
0.937294
1
1.11881
1
1
0.892182
1.03135
1.01798
0.99957
1.11855
1.11858
0.932017
0.999464
0.883974
0.89136
0.884434
1
1
1
0.99973
0.909631
0.897478
1
1.11855
0.999925
1.11857
1.11873
1.12017
1.11847
1
0.891037
1.11922
0.88795
1
1.11867
1.11988
0.999081
0.944539
1.11779
1.0893
1
0.886471
1
1
1.11861
1
1.00749
1.11844
1
0.877348
0.891139
1
1
0.88621
0.892635
1.11841
1.00002
1
0.874831
0.880802
1.11768
1.11725
1.11145
1.11937
1.03624
0.995827
1.05236
1.12077
1.09514
1
1.0668
1
0.891702
0.957694
1
0.883749
1.11867
1.00639
1.11886
1
1.11844
1.1194
1
1.11872
1.11873
0.885476
1.1195
1
1.12198
1
0.928159
0.893839
1.11824
1
1
1
0.894029
1.11919
1.11885
1
0.898723
1
1
0.882459
1.00001
0.885811
1.12001
1
0.948369
0.893885
1
1
1.07084
1
1
1
1.02109
0.893918
1
1
1
1.11883
0.885015
1
1.11848
0.881348
0.891699
1
1
1.11955
1
1.11822
1
1.11845
0.894219
1
1
0.892668
0.944134
0.877579
1
1
1
1
1.11882
0.881679
1
0.890616
1
1.1184
1
1
0.979894
1
1
0.945793
0.999905
1.00001
1
0.884272
0.893629
1
1
1
1
0.938193
1.11825
1.11974
1
0.893585
0.896039
0.975381
0.896745
1
0.945785
1
0.895515
0.995739
1
1
0.892902
1
1.11825
1.11629
0.893644
1
1
1
1.11771
1
1.01423
0.9516
1.04111
0.893653
1.05204
0.886678
1
1
0.912458
0.974526
1
1.01328
1
1
0.89062
1
0.982953
1.01544
0.888281
1
1.098
0.926197
0.966729
1
1
1
0.887466
1
0.893441
0.887896
1
0.956839
0.893525
1.01877
0.918593
0.883891
1.1184
1
1.11843
1.06789
0.918454
1.11856
0.880517
0.99971
1.11976
1
1
1.11759
1
0.914188
1
1.01896
1
1
1.11845
1
0.930732
0.94422
1.1206
0.983205
1
0.920935
1.11836
1.11968
0.973474
1
1.11837
1.03441
0.956317
1
1.00716
1
0.898299
1.05482
0.931723
0.922189
1
1
0.901223
1.11855
0.991257
0.889271
0.893842
0.961355
1
1.0058
1.11962
1.11826
1
1
1
0.895807
1.06048
1
1.11893
1.11322
0.883624
1
1.02828
0.965895
1.07269
1.10368
1
1.01383
1
1.00002
0.875365
0.95433
1
1
0.94339
0.875824
1.01367
1
1.00001
0.880324
1.05617
1
1.11819
1
1.01267
1.06811
1
1.11922
1
1
1.1189
1
0.877708
1.11946
0.907983
1.03334
1
0.896369
0.999973
1
1.00001
1
0.933509
1.00784
0.890782
1.09139
1.12028
0.886738
1
1
1
1
1
0.991333
0.890548
1.01694
0.889071
0.892793
1.02414
1
0.999944
1.03292
1
1
0.895642
0.998012
1
1
1.03578
1
1.1197
1
1.11931
1.0276
1.0082
0.896011
1
1
0.882708
1
1
1
1
1.11871
1.01211
0.999437
1
0.884733
1.01432
1
1
1.08046
1
0.885138
1.11876
1
1
1
1.11897
0.884834
0.968054
0.879357
1.09178
1.11876
1
1
1.1183
1
0.88815
1
1
1
1
1
0.932714
1
1.11898
1
1
1.04523
1.11952
0.895945
0.962974
1
1.11901
1
1
1
1
1
1.11851
1.1196
0.89348
1.11851
0.88223
1
1
1.11866
1
1.11987
1.00344
1.00796
1.01779
1.1187
1.0192
1.08433
0.883782
1
0.887612
0.994673
1
1.11859
1
1
0.880464
1.11861
1
1.11962
1
1
1
1
1
1
0.887373
1.11982
0.956778
1.11859
1
0.885398
0.892586
0.915052
1.11935
1.11894
0.99298
1
0.93836
1
1.04886
1
1.11852
0.877408
0.884164
0.95259
1
1.11843
1
1.02516
0.899441
1
1.12051
1.11015
0.999669
1
1.11874
0.893024
1.11893
1.11829
1.12045
0.88754
1.02735
1
1
0.886168
1
0.943747
0.948362
1
1.00001
1.11864
1
1.11845
1.02627
1
1.01334
1.11868
1
0.883626
1
0.929931
1
1
1.09861
1
0.938013
1
0.894734
1.01083
0.988075
0.884683
1.11818
1.09879
1.11913
0.890576
0.90932
0.998884
1
1
0.903378
1.11262
0.885567
0.999992
1
1.11861
1.11915
0.969625
1
0.891315
0.909308
1.08257
0.994308
0.883054
1
0.882957
1.03521
0.893843
1
1.00002
0.945456
1.11942
1.11881
0.954452
0.999883
1
1
0.90758
1
0.886271
1
0.894988
0.892929
1
1
1.00001
0.893942
1.11848
1
1
1.00002
1.00001
0.902372
1.11823
1.11865
1
0.889941
1.11941
1
1.02824
1
1
1.11859
0.885134
1
1
0.890899
0.923657
0.891596
0.891258
1
0.905689
0.999181
1.02738
0.879824
1
1
1.03671
1
1.1064
1
1
1.08773
0.901663
1
0.887638
1.03557
1.11903
1
1
0.895279
0.893149
0.882087
0.91777
0.892534
1.09151
0.999826
1
1
1
1
1.11872
0.882087
1
0.983081
0.999912
0.999561
0.999982
0.926182
1.03566
1
1.11863
1.11838
1
1
1.11431
1.00001
1
1.11845
0.896635
1.11646
1
0.879426
1.11853
1.00002
1
0.948679
1
0.884488
1
1.11922
1
1
1.11922
1
1
1.11882
1
1
1
1.12013
1
0.924164
0.914935
1
0.884825
1.119
1
1
0.99557
1
1.11983
1.07182
1.09743
1
1
0.888795
1
0.894803
1.1185
1.11924
1.11897
1
1.12001
0.893368
1
0.896295
1.09703
1.11291
1.11929
1.11876
0.92026
0.887487
1
1.08574
1.11943
1.11916
1.1186
0.923976
1.04733
1
1.09246
0.922113
1
1
1
1.00001
0.970641
1
1.11779
1
1
1
1
1
1
1.00002
1.11795
1
1.11952
1.0904
0.888209
1.12004
1.00756
1.06336
1
1.11837
1
0.889477
1
1
1
1
1.10268
1
0.88145
1.11825
0.881882
1.11898
1.09606
1.06476
1
1.02462
1.06059
0.998765
0.893069
0.930373
1.00001
1
0.97664
1
0.882044
1.11932
0.880997
0.979015
0.957021
1
1
1
1.00417
1
1
0.894888
0.998918
1.12055
1
1.11866
1
0.889045
1
1
1.11857
1.11826
0.882782
1
1.11921
1
0.940957
0.890031
1.11925
1.10756
1
1.02229
1.11867
0.999612
1
1.05359
1.10575
1.11893
0.998749
1
0.999999
1.10268
1
1
1
1.11845
0.999572
1
1
1.1186
1
1
0.891117
1
1
1
1.11944
1
1
0.959352
1.04072
1.10898
0.933055
1
1.11886
1
1.0434
1
1.11958
0.999226
1.11865
1
0.894458
1
1.08418
1
1
1.11167
1.00001
1.11873
1
1.11782
0.903573
0.893214
1.11958
1
1.10388
1
1.11889
1
1
1.00001
1.11872
1.11912
1.03615
1.11858
0.998792
0.891725
1.11853
0.96201
1
1.11537
1
1.1185
1
1.11915
1.11904
0.998952
0.888636
1
1.11861
1
1.00888
1
1
0.999403
0.927326
1.10722
1
1.11154
1
0.964156
0.885675
1.11816
1.1186
0.907198
1
1.11895
1.11978
1.1193
0.900688
1.11834
0.896059
1.11883
1.121
1
1
1.11864
1
1
1
1
0.888487
1
1
1.11896
1.1186
1
1.11856
1
1.1202
1.11906
1
1.10059
1
0.884127
1.11843
1.08969
1.03738
0.882184
1.11861
1
1
0.89018
1
1
1.11855
1
1
0.932641
1
1.11849
1.00003
1.11907
0.88323
1.12019
1
1.11836
1.11454
0.972124
1
1.11838
0.927398
1.11874
1.0865
1.11873
1.11815
0.999189
1.12058
1.11848
1.11862
1.11836
1.00024
1
0.890077
1
1.12013
0.950707
1.10923
1
1.11668
1
1
1
1
1
1.11794
0.889385
0.88827
1.11913
1.1185
1
1
1
1
1
1.11779
1.10848
1.11859
1.00391
1
1
1
1.00001
1.11831
1.11856
1
1.11915
1.11973
0.895791
1.08636
1
1.11847
1.11945
1.11784
0.999376
1.11873
1.11872
1
1.10609
1
1
1
1
1
1
1.11858
1.12038
1.11117
1.11866
0.889511
0.907217
1.11855
1.11862
1
0.886644
0.984249
1
1.06155
0.882714
1
0.999845
0.999508
0.888789
1
1.11844
1
1
1
1.11958
0.985822
1
1.11853
1.1186
1
1.11888
1
1
1.11855
1
0.887289
1
1.11808
1
1
0.895868
1
1.11779
1
0.886711
0.876426
1
1.11303
1
0.883896
0.966018
1
1.11838
1
1
1
1.11926
1
0.886273
1.01771
1.11884
1.11904
1.11855
1.01474
1.11903
1.11855
1
1
1
1
1
1.11879
1
0.999805
1.11817
1
0.88346
1
1.11876
1.06025
1.01603
1.0598
1.0173
1.11699
0.906571
1.11868
1
0.890578
0.999217
1.11862
0.988905
1.11865
1.1189
1.11414
1
1.11889
1.11882
1.11866
1
1.00001
1
1
1.11906
1.08675
1
1
0.8834
0.999099
1
1.11827
1
1.11843
1.11863
1.11814
0.977831
1.11835
1.1182
1.00254
1.06071
1.11903
1.11878
1
1.11027
0.953253
1.11785
0.995289
1.11825
1
1.11852
1.11847
1
0.899159
0.985191
0.905073
1
1.02415
0.999038
1.11909
1
1
0.99917
1
1.06292
1.1106
1
1
1.11833
1
1
1.08784
1.11853
1.11439
1.11872
1.1182
1
1.11826
0.918928
1.11969
1
0.998371
0.890692
1
1
0.922896
1
1.04093
1
1.11889
1
1.11649
1.0789
0.891968
1
1
1
1
1
1.11911
1.00337
1
1.11936
1
1.11865
1.1185
1
1
0.993012
0.999958
0.8861
0.888123
0.913965
1.02575
1
0.999546
0.889189
1.00001
1
1.1184
0.982118
1.11151
1.10217
1
1
1
1
1
1.11855
1.11864
1
1.11819
1
1.11932
1.08272
0.998963
1
1
1
1.07058
1
0.988077
1
1.119
1
1
1.11847
1
1
1
1
1
1.11883
0.882438
0.998857
1.10728
1.11848
1
1.11859
1
1
1
1
0.899459
1
1.11853
1.11868
1.11867
1.12034
0.989797
1