/*--------------------------------*- C++ -*----------------------------------*\
  =========                 |
  \\      /  F ield         | OpenFOAM: The Open Source CFD Toolbox
   \\    /   O peration     | Website:  https://openfoam.org
    \\  /    A nd           | Version:  12
     \\/     M anipulation  |
\*---------------------------------------------------------------------------*/
FoamFile
{
    format      ascii;
    class       volScalarField;
    location    "3";
    object      T;
}
// * * * * * * * * * * * * * * * * * * * * * * * * * * * * * * * * * * * * * //

dimensions      [0 0 0 1 0 0 0];

internalField   nonuniform List<scalar> 
45568
(
1.40966
1.16659
1.35862
1.2619
1.04688
1.17629
1.24514
1
0.965282
1.32291
0.907827
1.4629
1.28386
1
0.968733
0.778923
1
1
1.10515
1.31283
1
1.36002
1.26846
1
1
1.17914
1
1
0.79469
1.32596
1.0767
1
0.999972
1.25384
1.11367
1.25941
1.04896
1
1.32963
1
1
0.783805
1
1.463
1
1.58772
0.780978
1.50929
1.11228
1
1.43951
1.36843
1
1.27613
0.89273
1.35417
1.45286
1.41165
1.34528
1.05582
1
1.3449
1
1
1.46594
1.10257
1
1.10835
1.24876
1.53244
1.00052
0.884298
1.45738
1.33684
1.45801
1
1
1.20529
1.05526
1
1.38078
1.27994
0.878147
1.41513
1.33878
1.00001
1.43982
1.15269
1.24689
0.962365
1.25659
1
1.28582
1.51625
1
1
1.52754
1.3204
1.10563
1.32854
1.02437
1.31888
1.29537
1
1
1
1
1.35746
1
1.51459
1
0.980373
1.10599
1
1.51894
1
1
1.43786
1.43352
1.30613
1
1.35182
1.35409
1.35741
1
1.35482
1.50516
1.41506
1.53335
1
1.44627
1.47979
1.46825
1
0.785326
1
1
1
1.34325
1.31411
1
1.26125
1.34254
1
0.759246
1
1
1
1
1
1.20952
1
0.818896
1.10908
0.809806
1
1
1.10315
0.773792
1.42009
0.768256
1
1.39134
0.787016
0.898888
0.970268
1.25781
1
1.17752
1
0.781736
1
1.17058
1
1.42902
0.775506
0.769925
1.41434
1.43996
1.45267
1.4252
1.27776
0.782704
0.778698
1.18163
1.25133
1
1.00015
1.2483
0.785772
0.783877
1.30872
1.24763
1.18035
1.32387
1.02207
0.784453
1.06792
0.894359
0.782248
1.09995
1.27675
1.35986
1.64194
1.59259
1.38456
1.25708
1.25589
1.07982
1.41463
1.09996
1
1.4071
1
1.3608
0.782481
0.779934
1
1.31972
1.36474
1.28556
1.09028
1.28319
1.21977
1.45739
1.08615
0.782759
0.77947
1
1.24636
0.952344
1.32655
0.8224
1.4456
1.23471
0.910293
0.972675
1.16088
1
0.867859
0.759218
1.16366
1.43781
1.00001
1.17381
1.15285
1.36162
1.17664
1.12242
1.15698
1
1.17541
1.12482
1.4575
0.781528
1.14047
0.781868
0.779406
0.779572
1.17679
1
1.14467
1.20427
1
1.49651
1.14055
1.21933
1.21807
1.41055
0.781831
1.17015
0.77978
1
1.43565
1.64541
1.08154
1
1.21759
1
1
1
1.67634
1
0.898477
1.46944
1.32975
1.12496
1.09911
1.25106
1.12781
1.09706
1.46617
1.44538
1.3183
1
1
1.41851
1.3321
1.26383
1.10538
1.17106
1.08987
1
1.36309
1.31103
1.07706
1.11353
1.46294
1
1.27849
1.36069
1
1.38911
0.96633
0.971568
1.32742
1.35181
1.1627
0.843498
1.40722
1.35914
0.89718
1.35886
1
1
1.31739
1.25171
1.25549
1.32682
1
1
1.43599
0.849372
1.27989
1
1.56414
1.67866
1.25708
1.43757
1.45592
1.67679
1.42334
1.3605
1.2125
1
1
1
1.02719
1
1
1.07737
1.29636
1
0.939313
1.27246
1.3732
1.00011
1
1.28833
1.38242
1.66745
0.926101
1.27186
1.09584
1.08672
1.08463
1
1.32055
1.08391
1.46988
1.42785
1.38629
0.911186
1
1.09145
1.11267
1
1.34732
1.37127
0.991035
0.989577
0.928397
1
1.4768
0.780561
1
1.06718
1.09124
1
1.19954
1.3134
1
0.952157
1
0.790282
1
1.53392
1
1
1.14993
1
1
1.07604
1
1
1.1143
1
1
1.30072
1
1
1
0.986772
1
0.969792
1.31303
1
1.36457
1.34026
1.47561
1.26781
1
1
1
0.967185
1
1.33761
1.32468
0.908431
1
1.51358
1
1
1
1
1.08995
1.06503
1
1
1.27534
0.785183
1.28029
1
1.33635
1.17723
1.24963
1
1
1.48663
1.29123
1.14926
1.22432
0.999997
0.988448
1.17397
1
1.09731
1.5122
1.30722
1.30717
1
1
0.928008
1
1
0.907993
1.3894
0.924166
0.792729
0.783704
1.0986
1.22046
1
0.86341
1
1.4234
1.37397
1.49282
1.44968
1.23743
1.37562
0.952423
1.0026
1.0404
1
1.3636
1.29281
1
1.07193
1.43877
1
1
1.09217
1
0.771977
1.22223
0.76695
1
1.29306
1.34174
1
1.2638
1.40752
1
1
1.29548
1.34853
1.38384
1.31736
1
1.25539
1.09946
1.27982
1
0.895418
1
1
0.794507
1
1
1
1
1.40857
1.24178
0.931144
1
1
0.987966
1.15343
1
1
1.35844
1.24004
1.34819
1.07373
1
1.17146
0.783432
1
1.17803
1
1.40346
1
1.06924
1.40833
1
1
0.937951
1.14509
1
1
1
0.785748
0.783986
1
1.66962
1
1
1.10186
1
1.35035
0.790733
1.0964
1.27081
1.24638
1
1
1.2775
1
1
1
0.997564
0.974999
1
1.28464
1.13198
0.95125
1.47994
1
0.758599
1.04579
1.2887
0.738503
1.12011
1.42687
1.26467
1.49662
1.05102
0.977196
1.07441
1.06589
1
1.42765
1.13593
1
1.49518
1.08086
1.26239
1.25261
0.909083
0.781612
0.93191
1
1
1.34537
0.781159
0.778461
1.42106
1.14452
1.45302
1
1.227
1
0.962176
1.24757
1.09466
1.41551
1.09769
1.08449
1
1.1935
1
1.58237
1.35721
1.24699
1.53713
0.781876
1
1.1751
0.923783
1
1.32317
1.15344
1.28774
0.964769
1.35906
1.16163
1.31483
1
1.35728
1.68165
1.12605
1.08475
0.781067
1
1.61437
1
1.37264
1
1
0.944854
1.16782
1.42547
1
1.09325
1.14282
1.67071
1.37145
1.20588
1.33665
0.937955
1.09849
1.19184
1.18978
1.08443
1.66858
1.33535
1.0924
1.00018
1.08427
1
1.07749
1.00296
1.48101
1.25091
1.43198
0.982661
1
1.61707
1
1.06714
1.2507
1.28458
1.15464
1.64693
1.17634
1
1
1.37868
1.19293
0.781215
1.35224
0.899999
1
1.40442
0.778657
1.17624
1.41143
1.11596
1.13973
1.47159
1
1
1
1.24603
1
1.29789
1
1
1
1.00001
0.899565
1.26059
1.12926
1
1
0.985968
1.25386
1.59327
0.990322
1.32503
1.24764
1.13276
0.880105
0.904639
1.48969
1.36819
0.997462
1.40287
1
1
1.28065
0.908199
1.3273
1.16506
1.04657
1.29066
1.16222
1.47485
1.38365
1.34019
1.16072
1.40817
1.27224
1.09077
1
1.08556
1.18456
1.44551
1.18761
0.999418
1.34984
1.09424
1.37979
1
1.37473
1.36933
1
1.05505
1.10097
1
1.24847
1.17275
1.50045
1.06297
1
1
1.07401
0.930441
1.2931
1.11703
1.1658
1.16138
1.23044
1.35891
1.33204
1.01032
0.893468
0.983251
1.22503
1.16306
1.04814
1.09214
1.24948
1.29811
1.17973
1.07709
1.43443
1.37261
1.31409
1.1262
1.57196
1.17025
1.10359
1.12245
1.38773
1.28491
1.26576
1.24912
1.13651
1.35033
1.45892
0.856528
1.34993
0.869116
1.49247
1.1992
1.23714
1.3535
1.10919
0.920284
1.15186
1.12793
1.08267
1
0.985046
1
1.04367
1.14692
1.17188
1
1.22432
1
1.65366
1.15151
1.35135
1.42914
1.36115
1.19123
1.17193
1.40801
1.26058
1.348
1.50807
1
1.09483
1
1.363
1
1
1.17686
1.16692
1.3381
1.38573
1.06774
1.17811
1.24929
1.09642
1.31952
1.38468
1.40737
1
1.31636
1.37867
1.12251
0.955791
0.955309
1
0.771029
1.2499
0.777355
1.36251
1.1547
1
1.14198
1.16848
1.38357
1.40652
1
1.16669
1.09601
1.14333
1.1988
1.23181
1.17451
1.10766
1.40588
1.25163
1.23261
1.22161
1.26357
1.3421
1.08835
1.1753
1.26947
1.13046
1.40517
1.38272
1
1
1.42314
1
1.29239
1.34525
0.999227
1.1743
0.767145
1.19198
1.08093
0.772453
1.23089
1.35772
1.11111
1.49292
1.65428
1.1763
1.10654
1.11135
1
0.962717
1.18181
1.10662
1.37007
1.09945
1.09302
1.10256
1
1.10295
1.37138
0.933866
1.26383
0.980118
1.08759
0.958138
1
1.03201
1.08748
1.26521
0.999356
1.06091
0.774966
0.778202
0.979401
1.17661
1.25234
0.950845
0.999976
1.0829
1.29786
0.979516
1.32671
1
1.15601
0.957505
0.772808
1.16831
1.17083
1.32884
1
1
1.1908
1
1.26127
1.32762
1.12653
0.781856
0.784202
1.6947
1.35296
1
0.879846
1.07116
1.33808
0.959169
1.1151
1.04494
1
1.10283
0.994517
1.08312
1.0126
1
1.02123
0.99438
0.759634
1.01865
1.36047
1
1.18486
0.999999
1
1
0.997984
1.37294
1.19116
1
1
1.23952
1.04019
1.04127
1.33486
1.32649
1.31895
1.14427
1.149
0.78614
1
1
1.0801
1.20559
0.783426
0.785095
1.11541
1.29119
1.08995
1.2842
1.05192
1
1
1.30059
1
0.763955
1.15124
1
0.95365
1.29372
1
1.17479
1.20865
1.1694
1.16939
0.96378
1
1.61513
0.784361
1.37922
0.956491
1.36151
1
1.01717
1
1
0.95156
0.952264
1.56553
1.35584
1.21562
1
1.21874
1.10764
1.10108
1.1072
0.780877
0.780876
1.23944
1.12478
0.783378
1.22383
0.994028
1.2157
0.775104
1.13204
1.07433
1
1.26865
1.30189
1.09209
1.10908
1.26298
1.10161
1.0975
0.780106
1.43343
1.13816
1.00143
1.37202
1.06448
1.08872
1.11433
0.939084
0.782324
1.18164
1.26252
1
1
1.17252
1.32102
1.3175
1
1.07098
1.16402
1.37451
1.48545
1.32095
1.43054
1
1.13651
0.984754
1.13124
1.32742
1
1.00794
1.10775
0.978979
1.24053
1.23541
1
1.41411
1.03037
1.41249
1.34629
1.03975
1.07517
0.911723
1.03548
1.11298
1
0.999996
1.24354
1.10597
1.05755
1.07488
1.29284
1.25035
1.07193
1.33071
1.28493
1.09577
1
1.28057
1.40424
1.10931
1.14538
1.13952
1.05233
1.12395
0.969839
1
1.43309
0.949643
1.38089
1
1.10226
0.778478
1.4353
1.38497
1.20583
1.35429
1.04126
1.06756
1.34807
1.03836
1.31661
1.15451
1.1011
1
1
1.09891
1.39541
1
1.45457
1.34025
1.02683
1.08941
1
1.32576
1.02628
1.05221
1.26637
1.25386
1
1.11672
1
1.34559
1
0.959925
1.14376
1.26826
1.0709
1.14025
0.995629
1
1.02442
1.02111
0.780665
1.36009
1.22325
1.38005
1.48349
1.37296
1
1.34851
0.778901
1.34652
1.33309
1.20471
1.36191
1.29484
1.24339
1.21519
0.781417
0.960906
1
1.28259
1.19393
1.11892
1.27906
1.405
1.11318
0.999976
1.18204
1.15807
1.12304
1.12821
1.2486
1
1.15747
1.12643
1.125
1.05387
1.38622
1
1.37928
1
1
1.37155
1.17413
0.939423
1.13218
1.13029
1
1
1.32135
1.32248
1.09729
0.99998
1.07661
1.01054
1.01829
1.0414
0.954546
1.28114
1.04818
1.03347
1
0.980719
1.2661
1.34373
0.959988
0.779365
1.26076
0.947977
0.78177
1
1.07189
1.39663
1.05479
1.23816
1.27772
1
1.36629
1
1.24083
1.28488
1.15001
1.22979
1
0.993974
1.14518
1.00298
1.36087
1.1513
0.934715
1.20154
1.23997
1.35948
1
1.15656
1.15856
1.16433
1.16198
1.17567
1.17264
1.10246
0.938173
1
1.18275
1
1.18203
1.34486
1.29043
1.21488
1.29141
0.794704
1.41034
1.29383
1.29549
1.19381
1.19078
1.36222
1.09117
1.11302
0.782729
0.766104
1.2068
1.20589
1.22088
1
1
1.29101
1.06368
1.06435
1.12015
1.29151
1.36028
1.21958
1
1
0.925302
1.14527
1
1
1.43181
1
1.22953
1.2282
1.23917
1.23776
1.15653
1.12941
1.07447
1.3846
1.17134
1.17528
1.2576
1.25635
1.36107
1.17299
1.1764
0.778406
1.17146
1.05489
1
1.01954
1.07183
0.782425
1.34951
0.850378
0.780883
1.25481
1.35921
1
0.993791
1
1.31717
1.12448
1.34979
1.27546
0.945099
0.911244
1.31537
1.08367
1.36171
1.40107
1.33053
1.17339
1.33023
0.773118
1.3602
1.17805
0.937717
1.34818
1.3487
1.0925
1.35982
1.00016
1.22585
1.3617
1.12645
1.22635
1.3583
1.22266
1.45839
1.3667
1.36032
0.929476
1.12401
1.44883
1.13465
1.35899
1.09607
0.999983
1.36131
1.12233
1.20943
1
1.17371
1.13868
1.09039
1.36241
1.24187
1.11907
1.40892
1.10923
1
1.32684
1.02894
1.46158
1.36123
1.35848
1.42594
1.34873
0.953646
1.39337
1.36134
0.937382
1.33482
1.1535
1.43293
1.32192
1.16541
1.16542
1.36746
1
1
1.15694
1.09014
1.0879
1.36934
1.25294
1.39704
1.03787
1.47241
1.38491
1.24377
1.22269
1
1.53686
1.25912
1.35636
1.39057
1.22668
1.57844
1.36139
1.4961
1.1224
1.10343
1.59703
1
1
1.00001
1.39124
1
1
1
1.39706
1
1.24341
1.05597
1.27755
1.34755
1.27322
0.946839
1.2466
0.783456
0.836872
1.37924
0.993646
0.993015
1.0549
1.23497
1.31745
1.01391
1.16641
1.25032
1
1.3618
0.983507
1.10991
1.17827
1
1
1.1093
1.18023
1.40541
1.31732
1.40406
1.46685
1.1061
1
1.40071
1.44933
1
1
1.41593
1.20256
0.97723
0.972257
1.09773
1.51368
1.11756
1.06521
1.24364
1
1
1.09236
1.24561
0.991946
1.12659
1
1.13009
0.940065
1.14172
1.42256
1.14393
1.18959
1.42028
1.14061
1.34484
1.2335
1.43336
1.25349
1
1.33248
1.36352
0.999999
1
1.27211
1.36004
0.780917
1.4761
1.09197
1.09313
1.31919
1.19228
1.18522
1.2422
1.26449
1.38784
1.14662
1
1.19701
1.07628
1.36202
1.35649
1.25449
1.58796
1.66656
1.27335
1
1.35808
1.21479
1
1.09926
0.774687
1.18485
1.23703
0.951828
1.24028
1.10339
1.28395
1.34497
0.95594
1.05595
1.36003
1.2757
1.0336
1.03418
0.737932
1
1.43456
1.1419
0.914449
1.2451
1.34682
0.773853
1.66819
1.07261
1.34965
1.10643
1.34128
0.947163
1.34932
0.994161
0.999998
1.22689
1.1685
0.814605
1.2266
1.25583
1.22815
1.12295
1.12819
1
1.15844
1.1172
1.15197
1.54327
1
1.46404
1.06675
1.37604
1.16447
1.28642
0.959118
1.18949
1
1
1.37819
1.28341
1.01797
1.15825
1.24139
1.15461
1.32241
1.4293
1.19532
1
1
1.1962
1.10503
1.26922
1.1515
1.08628
1.37478
1
1.13593
1.31638
1.36958
1.36687
1.12705
1.23807
1.47913
1
1
1.00876
1.27645
1.13763
1
1.16791
0.985379
1
1
0.947494
0.998878
1.17477
1.25637
1.37242
1
1
1.66804
1
1
1.09857
1
1.21966
1.13242
1
1.34663
1.10045
1
1
1
0.961847
1.4162
1.22292
1.31863
1
1.25363
1.32314
1.3778
1.36406
1.00001
1
0.988843
0.954781
1.14994
1.15531
1.46723
1.1301
1.10934
1.15657
1.4352
0.999805
1.34978
1
1.33815
1.35483
0.95835
1.3594
1.33318
1.34974
1.30537
1.33594
1.41472
1.28416
1
1.01667
1.41136
1.29717
1.42227
1.01599
1.16444
1.3616
1.41605
0.799676
1
1.20972
1.22263
1.37855
1.05602
1
1.32407
1.52905
1.28797
1
1.13334
1.07727
1
1.28903
1.00001
0.783589
1.17343
1.30102
1.10708
1.30462
1.30761
1
1.10797
1.27785
1.16056
0.952142
1.37449
1.42695
1.24125
0.966109
1.30956
1.35939
1.14182
0.999281
1.11028
1.00944
1.36171
1
0.747623
1.12233
0.96006
1
1.29913
1.34535
1.11423
1.11416
1.21033
0.999999
1.16754
1.34543
1.43768
1.36104
1.05605
1.18609
1.26581
1.36273
1.10133
1.14139
1.49258
1.42073
1.39555
1.0709
1.36017
1.19922
1.41647
1.34869
1
1
1.36117
0.938871
1.26099
0.910408
0.915436
1
1.28683
1
1.194
1
1.17043
1
1.30551
1.16401
1.43849
1.2186
1
1
1.70636
1
0.992492
1.28079
1.35546
1.61796
1.39256
1
1.02144
1.3481
1.02571
1
1.09892
1
1.10467
1
1.00601
1.36014
1.36314
1.31928
1.11027
1
1.07531
1.07935
0.999998
1
1.0711
1.1007
1
1.00066
1.34941
1.09666
1.07044
1.29643
1.34944
1.34108
1.05714
1
0.96826
1.12515
1
1.11136
1.36224
1.34983
0.969952
1.07242
1.09887
1.36181
1.08847
1.19552
1.03926
1.2504
1.47257
1.43468
0.999999
1.26698
1.35946
1
1.0854
1.09687
1.15106
1.16153
0.928666
1.3186
1.40717
1.39371
1.43638
1.09932
0.928209
1.31162
1.18545
1.03535
1.41025
1.33461
1
1
1.27311
0.958759
1
1.24288
1.41417
1.13256
1.26653
1
1.26869
1
1
1
1.2427
1.21104
1
1.06132
1.24509
1.23349
0.967631
1.42147
1.23639
1.37484
0.999992
1.47577
1.17303
1
0.967876
1
1.27284
1.17448
0.977898
1.48655
1.21586
1.3739
1.2261
1.21128
1.20439
1.07521
1.21623
1.20244
1.17135
1.20497
1.20212
1.3518
1.2027
1.2812
1.06653
1
1.36439
1.3362
1.08976
1.06493
1.34684
1.18619
1.20092
1.35192
1.35236
0.936347
1.35589
1
1.14169
1.00001
1.06382
1.30046
1.19421
1.1971
0.779191
1.37481
1.43504
1.35716
1.10233
1
1.07574
1.23138
1.34974
1.50405
1
1.37841
1.35819
1.38226
1.12866
1.66173
1.22127
1
1.35096
1.09317
1.29234
1.22973
1.12017
1.35141
1
1.35225
1
0.923719
0.999161
1
0.936139
1.10946
1
1.3684
1.30734
1.45827
1.40854
1.66209
1.00002
1.15279
1.20485
0.999999
1.42762
0.94204
1.23542
1.20828
1.34987
1.45074
1.36022
1.21611
1.20669
1.00044
1.68889
1.22954
0.936359
1.31944
1.17348
1.5032
1.05937
0.932676
1.15453
1.16897
1.08002
1
1.50414
1.51101
0.980188
1.0865
1.00003
1
1.17453
0.943323
1.15039
1.29627
1.37935
1.05321
1
1.08055
1.35768
0.79926
1.67649
1.0876
1.03808
1.00015
1.17503
1.59494
1.3212
1.16376
1.04199
0.967844
1.16354
1.16632
1.53184
1
1.36025
0.953822
0.959183
1.10451
1.3501
1.44557
1.50546
1
1.25476
1
1
1
1.2398
1
1.12395
1.13542
1.0182
1.24968
0.961385
1.13896
0.945057
1.16559
1
0.940031
0.995298
1
1.00314
1.13468
1
1
1
1.34697
1.52357
1.13029
1.39672
1.13071
1.24565
1.56385
1
1.39257
1
1.41827
1.46438
1.09657
1.3515
1.24608
1.35015
1.10475
1.0999
1.28009
1
1.35042
1
1.43017
1
1
1
0.946635
1.36087
1
1
1.32027
1.21335
0.944018
0.880466
1.24095
1.30972
1.22522
1.03502
1
1.2837
1
1.03106
1.34808
1.03404
1.13694
1.38726
1.24966
1.19967
1.39222
1.19229
0.780071
1.35929
1.36345
1.18232
1.20528
1
1.18386
1.36285
1.60479
0.894592
1.22215
1.00935
1
1.18916
1.67062
1.25221
1.35306
1.35745
1.18762
1.01153
1
1.1966
1
1.36049
1
1.29452
1.24933
1
1.34439
1.19332
1.11522
1.3491
1.29485
1.36052
1
0.991616
1.00094
1.24638
1.31798
1.08612
1.08271
1.35961
1.35977
1.20459
1.23692
1.13264
1.2053
1.36014
1.35936
1
1
1.2008
1
1.35107
1.23936
0.893201
1.22591
1
1
1.20278
0.937527
0.998236
1.14852
1.16342
1.20022
1.06071
0.937535
1.35961
1.3618
1
1.21939
1.1507
1.32812
1.23093
1.11291
1.36009
1.00658
1.04169
1.23238
1.26103
1.36333
0.941831
1.36124
1.28759
1.30023
1.10314
1.35699
1.35948
1
1.3623
1.26429
0.951188
1.32193
1.32175
1.28598
1.2766
1.191
1.15644
1.26733
1.36682
1.34069
1.35023
0.791739
1.34738
1.25479
0.927646
1.09536
1.07031
0.971867
1.28743
1.46063
1.42169
1
1.412
1.15783
1.28484
0.899054
1.05771
1.17536
1.18527
1.36272
1.12987
1.37855
1.37873
0.966282
1.17964
1.36372
1
1.0711
0.959386
0.956027
1
1.35904
0.953739
1.3826
1.37972
1.37923
1.36398
1.4007
1.00011
1.34691
1.33663
1.35236
0.96961
1.2764
0.948731
1.36108
1.08551
1.06791
1.36168
1.10775
1.10386
1.26678
0.975267
1.36147
1.16409
1.14784
1.24288
1.3662
1
1
1.11646
1.12055
0.77332
1.36103
0.899281
0.947044
1.58499
1.10458
1.23229
1.23066
1.08306
1.26694
1.36112
1.12816
1.12391
1.40203
0.998182
1.07199
1.28187
1.08951
1.1415
1.09205
1.3772
1.13579
1
0.999998
1
1
1.38157
1.06388
1.09471
1.24727
1
1.29445
1
1.34806
1
1.12903
1.12736
1.33584
1
1.34907
1.57179
0.997985
1.15604
1.08238
1.22346
1.21523
1.25153
0.962589
1.1657
1
1
0.957392
1.14673
1.25419
1
0.990273
0.957069
1.55379
1.13253
1.16082
1.28563
1.0867
1
0.956161
1.11906
0.991006
1.46438
1.39285
1.33407
1.37133
1.12182
1.00011
1.16826
1.14951
1.06394
0.984169
1
1.14228
1
1
1.08527
0.9779
1.53537
1.1783
1
1.12004
1.18259
1.13198
1.29296
1
1
1
1.29401
1.19609
1.31277
1.01253
1
0.943647
1.19662
0.888613
1.07866
1.28632
1.2163
1.21588
1.2052
1.10569
1.00488
1.67629
0.940121
1.17483
1.30067
1.13865
0.946041
1.03975
1.27162
1.0564
1.34752
1.16103
1.28419
1.39895
1.00529
1
1.15916
1.34793
1
1.1874
1
1.20961
1.20888
1.24813
1.3406
1
0.951794
1.23135
1.11256
1
0.897439
0.957838
0.979847
0.958507
0.944219
0.999988
1
0.961812
1.05272
0.946714
0.965425
1.37512
1.23393
1.0278
1
1
1.48849
1.19164
1.22084
1.19066
1.24634
1.24307
1.3345
1
1.74568
1.21855
1.09407
0.953103
0.96229
1
1.45994
1
1.29284
0.897645
1
1.26192
1.2059
1.34683
1
1.35151
1.21362
1.1944
1.1963
1.3512
0.999993
1.18698
1.34377
1.01021
1.17149
0.999999
1.22076
1.12083
1.00503
1.16187
1.23824
1
1.27863
1
1
1
1.34912
1
1.2531
1.26245
1.11573
1.47252
1.40587
1.15801
0.901065
1.0781
1
1.1281
1.34882
1.34885
0.918344
1.3486
0.915021
1.67569
1.22166
1.34975
1.13424
1.04279
1.17656
1.34884
1.14899
0.999999
1.12802
1.34684
1.4759
1.05962
1.1277
1.13185
1.05855
1
1.20513
1.58066
0.937148
0.931937
1
1
1.31135
1
1.0001
1.30875
1.05136
1
1
1.36391
1.1482
0.944152
1
1.18476
1
1.20427
1.20069
1
1.2064
1.19587
1.30677
1.08736
1.00005
1.34027
1.31895
1
1
1.20014
0.997548
1.1482
1
1.16127
1.20159
1.13646
1.56504
1.08962
1.10484
1.08908
1.11334
1.09225
1.3937
1.40569
0.920724
1.09654
1.15884
1.34506
0.942931
1.20533
1.09642
1.09793
1.09553
1.20959
0.898683
1.06725
1.42127
1.00021
1.34991
1.21742
1.35803
0.991755
1.22115
1
1.18089
1.13542
1.24988
1
1.22603
1.37504
0.998423
1.4901
1
1.12693
1.09853
1.16067
1.23778
1.36296
1
1.31454
1.15296
1
1.27107
0.975948
1.13771
1.2167
1.24614
1
1.21701
1.13547
1.23094
1.26078
1
0.991096
0.974584
1.33634
1.23807
0.78154
1.44501
1.58241
1.42901
1.34889
1.39863
1
1.00001
1.18448
1.36932
1.25259
1.21113
0.993005
0.993118
1.2553
1.17577
1.34794
1.3474
1.21834
1.00049
1.14229
1.00005
1.34711
1.30798
1.14322
1.00046
1.16807
1.29041
1.08901
1.22528
1.2866
0.996764
1.41352
1.2138
1.68749
1.26262
1.34925
1.20169
1.25292
1.34897
1.1468
1.2958
1.20504
1.18671
1.31431
0.984931
1.48085
1.2164
1.04235
1.21882
1.34747
1.21967
1.21808
0.921808
0.931925
1.47221
0.967463
1.12921
1.09644
0.905664
1.14442
0.999959
1.17931
0.933237
0.993676
1.1788
0.990616
1.14387
1
1.09041
1
1.21151
1
0.990789
1.47784
0.98471
1
0.908511
1.16264
1.04611
1.23645
0.986043
1.09895
1.40787
0.980843
1.0657
1.23422
1.03815
1
1
1.37717
1.2566
1.67397
1.22865
0.964591
1
1
0.988043
1.4204
1.14133
1.07685
1.33407
1.01494
1.4912
1.30737
1.06886
1.30378
1.34908
1.3135
0.935847
1.00466
1.27456
0.999999
1.28138
0.973508
1
1
1.14851
1.00001
1.30007
1.31256
1.0726
1
1.0746
1
1
1
0.999998
1.33548
1
1.10495
0.967092
1.09739
1.10609
1
0.941946
1.3446
1.1267
1.31568
0.974698
1.30486
1.34913
1.67453
0.999163
1
1.15293
0.936837
1.27734
1.01686
1
1
1.25524
1
1.49053
1.6796
1.34542
1.34803
1.14253
1
1
1
1.36441
1.29263
1.44278
1.64048
1
1.18957
1.0428
1.23993
1.55205
1.36067
0.986061
1
1.04721
1.1311
1.34941
0.968193
1.17431
1.07311
1.21931
1.12957
1.35662
1
1.03366
0.963218
1.34905
1.04407
1.15186
0.990206
1.29741
1
1.03457
1.02507
1.54288
1.30634
1
1
1.02582
1
1.36287
1
1
1.13346
1.0301
1.10915
1.35071
1.18968
1.53668
1.1947
1.37547
1
1.08202
1
1
1.14115
1.63343
1
1.19675
1.0151
1.06104
1.57842
0.999909
1
1
0.771948
1.20587
1.30373
1
1.28703
1.06012
1.22758
1.18533
1.19694
1
1.3505
1.16683
1
1.12338
1.10312
1.18466
1
1.34907
1.10199
1
1.07863
1
1.27661
1.35019
1.28535
0.988644
1.2462
1.35011
0.957996
1.25271
1.23737
1.16296
1.00001
1.17941
1
1.25414
0.991626
1.10544
0.905662
1.32681
1.32489
1.06385
1
1.43448
0.960449
1
1.00002
1.02838
1.41119
0.999993
1
1.41712
1
1
1.00004
1.07433
1.55993
1.02417
1
1.36796
1
1.00003
0.95728
1.17187
1.67685
1.66795
1
1
1.00001
1.26921
1.05626
1.08253
1.1265
1.26441
1
1.14791
1
1
1.42796
1.11451
1.48069
1
1.31728
1
0.964578
1.0002
1.27229
1
1.34755
1.18262
1.10736
1
1
1
0.988385
1.12417
1
1.34917
1.06722
1.00598
0.998729
1.17603
1
1
0.999696
0.968055
1.12994
1
1.34885
1
1
1
1.465
0.999999
1.25661
1.34521
1.25677
1.05867
1
1.47587
1.05359
1.34744
1.06642
0.994551
1.30005
1.39496
1.07314
1.34965
1.45276
1.45022
1
1.46802
0.985738
1.3803
1.12125
1
1.34882
1.45541
1
1.10765
1.43214
1
1.28154
1.26181
1.28091
1.03924
1
0.999602
1
1
1.00003
1.23074
0.906982
1.27424
1.04536
1.25174
1.36442
0.991661
1.16212
0.905241
1
1.48905
1
1.41884
1.02918
1.42352
1
1
1
1
0.995171
1.49434
1
1.03121
1
1
1
1.60255
1.21919
1.5745
0.90451
1.4114
0.99999
1.57638
1.41537
1.03818
1.34984
1.21653
1.30902
1.18225
1.05758
1
1.40919
1.14213
0.898001
0.901347
1.31524
1
1.41842
0.954281
1.37025
1.00005
1.66347
1.12174
1.32106
1.4253
1.34998
0.763014
1.39191
1
0.90122
1
1
1.30298
1.08767
1.16034
0.972208
1
1.41647
1.65966
1
1
1.1333
1.12407
1.30999
0.999902
1.00446
1.27557
1.34961
1
1.31752
1.1175
1
1.38299
0.994634
1
1.0898
0.904626
0.999227
1.22536
1.12636
1.54506
1
1.01076
1.35009
0.993635
1.12688
1
1.20521
1.34938
0.960387
1
1.53357
1.30893
1.14934
1.64439
0.998487
1
0.899367
1
1.35026
1.09765
1.09216
0.987342
1.39827
1.02355
1.0348
1
1
1.3077
1
1.34661
1.10352
0.953943
1.20417
1
0.898909
1
1.21727
1.37333
1.17594
1.09821
0.769124
1.34954
1.20643
1
1
1.16926
1.17308
1
1.17006
1.58782
1.07432
1.41065
1
1
1
0.991238
1.36579
1.20805
1.09957
1.11106
0.922751
1.05608
1.42841
1
1
1
0.922911
0.982947
1.00016
1.34912
1.00564
1.00138
1.41689
1
1.25099
1.12898
1
1
1
1.68648
1.42328
1.29062
1.01682
1.30981
1.1388
1.33871
1.12303
1.66494
1
1
1
1.3476
1.1503
1
1.37073
1
1.28091
1.28598
1.3517
1.34928
1.34776
1.29955
1
1.35096
1.35512
1.31475
1
1.262
1
1
0.891875
1.33648
1
1
1.09894
1.16518
1.43581
0.975733
1.3436
1.17331
1
1
1
1.25685
1
0.95036
1.31949
1.41727
1.2853
1.16065
1.34976
1.22004
1.24222
1
1
1.14496
1.34421
1
1.14943
1.21327
1.23013
1.34803
1.25115
1.25277
1.02518
1.12597
1.14626
1.10354
1.26589
1.36378
1.24911
1.14591
1.34963
1.34978
1.16224
1.18333
1
1
1.34964
1.29752
0.998913
1.10438
1.35284
1.09321
1.28453
1.00001
1.13752
1.36906
1.34933
1
1.16011
1.1658
1.25455
1.11673
1.34941
1.6893
1.34919
1.68934
1.34995
1.09798
0.938206
1.25282
1.34934
1
1.1836
1.27533
1.34453
1.0361
1
1.35007
0.975583
0.755449
0.902965
1
0.969935
1.08631
1.3497
1.25695
1.12728
1.10205
1.35041
1
0.943053
0.903026
0.970285
1.15629
1
1.15692
1.22807
1
1.34939
1.3197
1.55581
1.13843
1.14739
1.20107
0.999996
0.925456
1
1.41069
1.34968
1.10285
1.03101
1.17122
1.19606
1.32427
1.08732
1.34622
1
1.078
1
1.26278
1.23628
0.987777
1.22979
1.16515
1
1.16251
1.13699
1.14893
1
1
0.966802
1.31112
1.34895
1
1
1.13721
1
1.18506
1.33644
0.997651
1
1.10526
1
0.864556
1.16
1.35264
1.12793
1.19472
1
1.13127
1.20526
1.18478
1.18198
1
1.08904
1.35106
1
1.08771
1.13779
0.980136
1.18487
1.13034
1.18268
1.3493
1.178
1
1
1.00002
1.18791
1
1.20621
1.15997
1
1
1
1.00006
1.34755
1.05964
0.74255
1.34733
0.973012
1.6076
1.15673
0.954048
0.97465
1.08451
1.18528
1
1.15002
1.34897
1.2553
0.900396
1.34843
1.25321
1
1.17266
1.4979
1.34618
1
1.19268
1.19323
1.1872
1.14415
1.1854
1.14194
1.37701
1.35022
1.18573
1.31322
1.44832
1.35075
1.11947
1.38798
1
1.0787
1.23678
1
1
1
0.931783
1
1
1.16709
1
1
1.34972
1
1.15016
1.35005
1
1
0.998437
1
1.37806
1.34967
1.17971
0.961911
1.35006
1.23413
0.943252
1
1
1.29656
1.20391
1
0.969288
1.09068
1.16727
0.967457
0.970542
1.1268
0.956272
0.999994
1.06292
1.34963
1.34994
0.96848
0.957219
1.34997
1
1
0.937811
1
1.15236
1
1.35008
1.17313
1.17122
1
1
1.11997
1.3519
0.932951
1.34947
1.00033
1.33767
1.21526
1
1.15037
1
1.35202
1
1.00829
0.958925
1
1
1
1.31041
1.25494
1
1
1.13077
1.00006
1.31931
1.13228
1
1.18176
0.938868
0.968488
0.999999
1
1.34873
1.34696
1.24599
1
1.1302
1.34562
1.37262
1.34992
1.23483
1.35419
1
1.07413
1
1.66557
1.20002
1.34992
1.29493
1.34839
0.964779
1
1
0.93915
0.999999
1
1.35055
0.959063
0.94993
1.27357
1
1.00063
1
1.33567
1.25283
1
1
1.23784
1
1.13283
0.904696
1.14435
0.932973
1.4108
1.64435
1.04323
1.34486
1.07275
1
1.69772
1
1.37318
1.34924
0.945321
1
1
1.34636
1.24277
1.00721
1
0.748049
1.28748
1.20832
1.00195
1.34366
1.28604
1
1.08802
1.25825
0.968237
1.41601
1.29753
1
1
1.00131
1.16148
1.48346
1.3495
1.35152
1.28743
1.02244
1.07164
1.35009
1.30268
1.28732
1.27689
1
1.00033
1
0.999998
0.890307
0.906303
1.23564
1.16957
1
1.33152
1.2441
1.13016
1.16731
1.12135
1
1.24042
0.904753
1
1
1.05742
1.34903
0.902049
1
1
1
1
0.967775
0.948311
1.35011
1.26742
1.24747
1
0.999999
1.34919
1.34676
1.12175
1.07718
1.19894
1
1.37568
1
1
1.00008
1
1.04525
1.40019
1
1.21062
1
1.35136
1.24252
1.32978
1.00075
1.00007
1
0.896955
1.04989
1
1.42807
1.3478
1
1.21472
1.21134
1.47397
1
1.33869
1
1.00003
1.08444
1.0756
0.997409
1.24743
1
0.992342
0.999066
1.35131
1.34268
1
1.35128
1.02377
1
0.756035
1.32554
1.00319
0.886916
1.40958
1
1.24086
1
1
1
1.3485
1.47942
1
0.999654
1.05667
1.40286
0.93195
1
0.9032
1.34956
1
0.99449
0.903289
1.26751
1
1.26135
1.12418
1
1
1
1
1.37097
1.17097
0.902327
0.999824
1.47903
1.09639
1.35472
1.47001
1
1
1
1.24934
1
1.39954
1.27492
1.35705
1.23929
0.764911
0.834096
1.10563
0.913765
0.759195
1
1.53608
1.55214
1.30133
1
1
1.2414
1.35058
1.03101
1.32552
1.37368
1.32444
1.38018
1.34377
1.38125
1.03422
1.12913
1
1
1
1.33544
0.995804
1
1.13705
0.988503
0.974308
1.30188
1
1.34046
0.968189
1.47244
1
1
0.845752
1.10433
0.947544
1
1.34951
1.35885
0.919639
1.34894
1.23102
1.29257
1.34535
1.34914
1
1
1
1
0.795807
1
1.15174
1.00915
0.750747
1.34976
0.974898
1.1621
1.29295
1.0619
1.13432
1
1.02068
1
0.878304
1.35012
1.35563
1.52079
0.916787
1
1
1
0.90154
1.40114
1
1
1
1
1.36697
1
1
0.766312
1
1
1
1
0.86267
1
1.43679
1.24571
1.04242
1
1
1
0.98564
1.17034
1
1
1.40776
1.12818
1
0.757304
0.747762
1
1
1
0.94348
1.42481
1.1572
1.00543
1
1
1
1.12229
0.978603
1.13775
1.34948
1.3494
1
1
1.38115
1
1.1133
1.35116
0.988126
1.35066
1.55134
1.10983
1.35249
1.46159
1
0.950336
0.813524
1
0.982212
1
1.33534
1.05827
1
0.906023
0.893879
1
1
1
0.996116
1.00176
1.34765
1
1
1
0.990219
1
1.05434
1
1
0.745265
1
1
1
1.48093
1.2263
1
0.740101
1.17817
0.758084
1
1.3521
1.34011
1.4878
1.01702
1.26516
1.18678
1.01584
0.901754
0.996622
0.768526
1.1889
1.44199
1.3454
0.76471
1.39026
1
1
1
1.41932
1.34465
1
1
0.938837
1.2627
1.0423
1.30564
1.18262
1.1507
1.30514
1
0.779265
1.34995
1.07217
1.28552
0.939618
1.5427
0.990455
1.35453
1.36589
1
1.35241
1
1.34939
1.39075
1.13297
1.07379
1.31303
1
1.34912
1
1
1
0.98523
1
1.34952
1
0.94905
1
1.22184
1
0.895476
1
1.33436
1
1
1
1.00005
1.54636
1
1.0765
1.35003
1.354
1
1.38302
1
1
1.24688
1.34843
1.66399
0.765495
0.743101
1
1.19846
1
1.42903
0.896792
1.3492
0.768984
1.3294
1.24721
1.15973
1.34984
1.29368
1.00025
1.00809
1.23841
1.00324
0.745131
0.980306
1
1
1.44876
0.970905
1
1.31906
0.741966
1
1
1
1.36268
1.61218
1.35037
1.07088
1
1.34821
1.2311
0.997967
1.35175
0.99281
1.04358
1.02479
1.03837
1
1.19153
1.00188
1.16742
0.993214
1
1
1.00004
1.34915
1
1.34946
1.03478
0.948961
0.770363
1.22671
1.01885
0.760402
1.00166
1
1.04684
1.04924
1.45365
1.05595
1
1.34896
1.23488
1.25179
1.19931
1.01763
0.901264
1.35585
1
1
1.05417
1.17749
1.08251
1.65892
1
1
0.998075
0.768646
1.19096
1
1.34879
1.08274
1.34924
1
1.50032
1
1
0.752925
1
1
1.34797
1
1
1
1.11636
1
1.0727
1.26584
1.16596
1.28522
1.14447
1.30293
1.3498
1.35046
1.44973
1.01227
1.15818
1.24035
1.22697
1
1.24049
1.03209
1.34361
1.34953
1.17858
1.05337
1.1467
0.767173
0.976172
1.34969
1
0.751127
1.1053
0.998677
1
1
1
0.750054
1.29928
0.989562
1
1.21731
1.23838
1.32024
1
1.15139
1.22978
1.35008
1.0545
1.16259
1.21861
1.24269
1.2829
1.34818
1.38639
1.21176
0.775937
1.24101
1
1
1.34951
1
0.962853
1
1
1.34553
1.34954
0.937363
1
1
1.23873
1.00537
0.952118
1
1.01816
1.21154
1
1.02043
1.01266
0.981174
1.30026
1.25702
1
1
1
1.01161
1.34946
1.39023
0.951723
1.69519
1.31033
1.24781
0.95815
0.749574
1
0.9661
1.16487
1.11467
0.76705
1.49304
1.34173
1
1.16999
1.26655
0.861159
1.34809
0.887332
1.3495
1.16955
0.740766
1
1.3493
0.760878
1.31357
1.37059
1.0144
1
1.51384
1.07525
1.14977
1
1
1.35409
1.01406
0.944915
1.34419
1.24536
1.45659
1.14703
1.17507
1.01206
1.37704
1
0.947906
1.3495
1
1
0.937421
1.24883
1.63923
1
0.751201
1.14782
1.08186
1
1.34852
0.906197
1
1.34122
0.837224
1.10043
0.813278
1.26436
1
1
1
1
1
1.67825
1
1.18435
1
1.24898
0.743157
0.741182
1.42234
1.09991
0.758449
1.26744
1.15579
1.14947
1
1.00077
1.14563
1.02065
1.26943
1
1.34958
1.23302
0.753634
0.795878
1
1
1.02223
1.18486
1.61745
0.779265
0.937751
1.15534
1
1.35079
0.755155
1
1.34962
1.17952
1
1
1.3028
1
1.34766
1
0.768129
1
1
1.18038
0.979634
1
0.995457
1.34857
1
1
1.03293
1
1
1.33208
0.968358
1.31464
1
1.09669
1.00555
1.34979
1.35029
1
1.35375
1.33666
1.17415
1
1
1.20645
1.45038
0.755315
0.995813
1.41069
1.06378
1.34949
0.992269
0.75234
0.980226
1
1
1.12984
1.35275
1.65829
1.0552
0.901981
1.61783
0.762176
0.772616
1
0.995334
0.758947
1.34833
1.36717
1.05575
1
1
1.26415
1
1.32089
0.983845
1
1
0.750578
1.02015
1
1.34795
1
1.16804
0.756702
1
1.16765
1
1
0.90313
1.34826
0.906012
1.34748
0.749096
1.34941
1.35815
1.20138
1.14132
1.34972
1
0.952232
1
0.948299
1.02668
1
0.995934
1.19195
0.745161
0.999304
1.35249
1.06495
0.882204
1
0.756752
1.33721
0.771321
1.14567
1.35269
0.989918
1.18855
1.03904
0.989224
0.743427
0.984371
1.34996
1
1.34914
0.744135
1.00001
0.980115
1.37125
1.07546
1.35353
1.12087
1.54432
1.18705
0.895168