/*--------------------------------*- C++ -*----------------------------------*\
  =========                 |
  \\      /  F ield         | OpenFOAM: The Open Source CFD Toolbox
   \\    /   O peration     | Website:  https://openfoam.org
    \\  /    A nd           | Version:  12
     \\/     M anipulation  |
\*---------------------------------------------------------------------------*/
FoamFile
{
    format      ascii;
    class       volVectorField;
    location    "3";
    object      U;
}
// * * * * * * * * * * * * * * * * * * * * * * * * * * * * * * * * * * * * * //

dimensions      [0 1 -1 0 0 0 0];

internalField   nonuniform List<vector> 
45568
(
(1.39901 0.00857537 0)
(1.78803 -0.00845289 0)
(1.41078 -0.471963 0)
(1.6688 0.0583382 0)
(1.93473 0.0308436 0)
(1.79089 0.160832 0)
(1.71238 0.0697624 0)
(2 2.73091e-13 0)
(2.04168 -0.0604012 0)
(1.61938 -0.0257167 0)
(2.10887 -0.0319149 0)
(1.33444 0.0077506 0)
(1.61115 0.0294947 0)
(2 -8.79979e-14 0)
(2.0406 0.108074 0)
(2.14581 -0.714191 0)
(2 4.98159e-14 0)
(2 -4.71109e-14 0)
(1.87758 0.0341377 0)
(1.61362 -0.0337517 0)
(2 1.90998e-14 0)
(1.40726 -0.468474 0)
(1.63397 0.034824 0)
(2 1.6286e-13 0)
(2 1.40456e-13 0)
(1.78289 0.155075 0)
(2 -1.71025e-13 0)
(2 1.18984e-13 0)
(2.09839 -0.697916 0)
(1.60825 0.0184204 0)
(1.9062 -0.0317775 0)
(2 -2.68188e-14 0)
(2.00003 -5.31021e-05 0)
(1.67721 -0.0613219 0)
(1.88568 0.152828 0)
(1.69879 -0.0774137 0)
(1.93312 0.0220032 0)
(2 -9.80429e-14 0)
(1.60604 0.00981486 0)
(2 -4.37939e-14 0)
(2 3.04932e-14 0)
(2.13443 -0.719782 0)
(2 -1.81479e-13 0)
(1.3344 0.00227174 0)
(2 -3.89684e-13 0)
(1.0241 0.0173979 0)
(2.14718 -0.719777 0)
(1.20652 0.00220329 0)
(1.88584 0.156616 0)
(2 -7.24768e-15 0)
(1.36278 -0.0168839 0)
(1.49152 -0.024333 0)
(2 -9.80512e-15 0)
(1.6489 0.0161537 0)
(2.1342 -0.0284021 0)
(1.41534 -0.473803 0)
(1.33214 0.00759339 0)
(1.43115 0.000439876 0)
(1.54363 -0.0603071 0)
(1.92355 0.0652511 0)
(2 -1.67692e-13 0)
(1.53772 -0.0555515 0)
(2 -7.51935e-14 0)
(2 7.80871e-14 0)
(1.37071 0.0284389 0)
(1.86235 0.312153 0)
(2 -1.88362e-13 0)
(1.8756 0.0244546 0)
(1.70123 -0.0856251 0)
(1.17227 0.00102289 0)
(1.99799 0.0449583 0)
(2.10367 -0.481425 0)
(1.34005 -0.0207954 0)
(1.58869 0.00682695 0)
(1.32451 0.00853919 0)
(2 3.49851e-14 0)
(2 1.76642e-13 0)
(1.75368 0.142566 0)
(1.92728 0.0705502 0)
(2 -5.88267e-14 0)
(1.52032 -0.000973478 0)
(1.64325 0.0760472 0)
(2.10551 -0.458289 0)
(1.40704 -0.0213277 0)
(1.53604 -0.0448371 0)
(2.00002 -6.74284e-06 0)
(1.38504 -0.00348561 0)
(1.81142 0.23732 0)
(1.7117 0.0727468 0)
(2.04269 -0.0681644 0)
(1.68205 0.136157 0)
(2 1.38847e-13 0)
(1.6381 -0.0507745 0)
(1.19448 0.00115113 0)
(2 -3.54184e-13 0)
(2 6.60982e-14 0)
(1.1779 0.0026574 0)
(1.55755 -0.0205435 0)
(1.86131 -0.0417673 0)
(1.60476 0.0176007 0)
(1.96167 -0.0290448 0)
(1.56533 -0.043018 0)
(1.63267 0.225333 0)
(2 1.74534e-13 0)
(2 -1.0033e-13 0)
(2 -7.14118e-14 0)
(2 1.80187e-13 0)
(1.41167 -0.471476 0)
(2 5.96258e-14 0)
(1.21182 -0.00141708 0)
(2 7.38242e-14 0)
(2.02608 -0.085493 0)
(1.88323 -0.166338 0)
(2 1.1218e-13 0)
(1.20297 -0.00286168 0)
(2 3.13337e-13 0)
(2 -2.64199e-13 0)
(1.33379 0.103432 0)
(1.37638 -0.038116 0)
(1.61443 -0.00165441 0)
(2 8.19433e-14 0)
(1.55912 0.00537802 0)
(1.41565 -0.474028 0)
(1.41201 -0.467305 0)
(2 5.10663e-14 0)
(1.55556 0.0060647 0)
(1.25687 -0.00498465 0)
(1.43957 -0.00949843 0)
(1.21206 -0.00521921 0)
(2 -5.94187e-15 0)
(1.37033 0.0100571 0)
(1.2772 -0.00416377 0)
(1.31881 -0.0113347 0)
(2 4.12594e-13 0)
(2.1395 -0.721413 0)
(2 -6.47439e-14 0)
(2 -1.99389e-13 0)
(2 1.26886e-07 0)
(1.52892 -0.0464969 0)
(1.5727 -0.0379606 0)
(2 -2.26069e-14 0)
(1.68193 0.00980583 0)
(1.55564 -0.0793165 0)
(2 -2.03547e-13 0)
(2.17753 -0.727881 0)
(2 -6.00276e-14 0)
(2 -9.44199e-14 0)
(2 1.51936e-13 0)
(2 -1.11983e-13 0)
(2 -2.23664e-13 0)
(1.74999 0.150176 0)
(2 -1.5656e-13 0)
(2.10626 0.673459 0)
(1.85803 -0.0389299 0)
(2.12051 0.643366 0)
(2 1.00206e-13 0)
(2 -7.37973e-14 0)
(1.86673 -0.0313205 0)
(2.12742 0.768675 0)
(1.45732 -0.0108863 0)
(2.13319 0.766679 0)
(2 -2.33034e-14 0)
(1.44399 -0.0130335 0)
(2.12609 0.700034 0)
(1.88207 1.00563 0)
(2.03926 0.0852433 0)
(1.70368 -0.0798567 0)
(2 1.06757e-13 0)
(1.8004 0.467016 0)
(2 1.31466e-13 0)
(2.13905 -0.714222 0)
(2 3.90396e-13 0)
(1.77702 0.195579 0)
(2 -1.51273e-14 0)
(1.38839 -0.0396223 0)
(2.13772 0.731529 0)
(2.14861 0.735384 0)
(1.44167 -0.00875511 0)
(1.38799 0.00110809 0)
(1.35008 0.00971171 0)
(1.39582 -0.0404293 0)
(1.6451 0.0160788 0)
(2.1349 0.709052 0)
(2.14607 0.710422 0)
(1.7632 0.0606963 0)
(1.7064 0.075193 0)
(2 1.28248e-13 0)
(1.99866 0.000241838 0)
(1.6943 0.116773 0)
(2.13582 0.701171 0)
(2.14095 0.701329 0)
(1.65043 -0.0330576 0)
(1.69613 0.117287 0)
(1.76958 0.0598646 0)
(1.57212 0.00814252 0)
(1.96665 -0.0244995 0)
(2.13591 0.705775 0)
(1.93666 0.106404 0)
(1.88599 0.999909 0)
(2.14415 0.70753 0)
(1.86212 0.314163 0)
(1.64646 0.0680039 0)
(1.40857 -0.467174 0)
(0.909478 -0.0315463 0)
(1.01212 0.0195733 0)
(1.48308 -0.00688954 0)
(1.70633 0.0947848 0)
(1.68822 0.0121586 0)
(1.90085 0.00594185 0)
(1.39161 0.0102029 0)
(1.86955 -0.0347467 0)
(2 5.19413e-14 0)
(1.44567 -0.00799285 0)
(2 -9.71883e-14 0)
(1.40802 -0.468991 0)
(2.13655 0.708962 0)
(2.14434 0.713033 0)
(2 -1.15349e-13 0)
(1.59872 -0.00453298 0)
(1.40111 -0.46566 0)
(1.60864 0.0331884 0)
(1.90104 -0.125991 0)
(1.64006 -0.046872 0)
(1.73706 0.140891 0)
(1.33753 -0.0314029 0)
(1.88034 -0.330657 0)
(2.13336 0.714476 0)
(2.14351 0.711166 0)
(2 -9.34844e-14 0)
(1.69389 0.123204 0)
(2.05943 -0.063896 0)
(1.60878 0.0112855 0)
(2.12383 -0.591691 0)
(1.36331 -0.00452805 0)
(1.68606 0.0275018 0)
(2.10791 -0.0255885 0)
(2.0366 0.077486 0)
(1.82204 -0.0301666 0)
(2 -4.4995e-13 0)
(2.17884 0.0407004 0)
(2.15389 0.764536 0)
(1.81575 -0.0295432 0)
(1.36651 -0.0351926 0)
(2.00002 -6.77829e-06 0)
(1.80475 -0.0226297 0)
(1.83287 0.0922185 0)
(1.40537 -0.469107 0)
(1.79717 -0.02049 0)
(1.8447 0.0509884 0)
(1.82471 0.0928128 0)
(2 -1.68537e-13 0)
(1.81286 0.129641 0)
(1.83957 0.0500263 0)
(1.33137 -0.00809465 0)
(2.1363 0.711118 0)
(1.82646 0.162573 0)
(2.13479 0.713006 0)
(2.14239 0.715641 0)
(2.14159 0.715455 0)
(1.81024 0.129397 0)
(2 -1.33837e-13 0)
(1.83226 0.160936 0)
(1.75152 0.153474 0)
(2 2.52001e-13 0)
(1.28773 -0.028196 0)
(1.83769 0.168017 0)
(1.72221 0.126793 0)
(1.72461 0.0195949 0)
(1.43407 0.00142959 0)
(2.13341 0.715117 0)
(1.7821 -0.0118807 0)
(2.14126 0.717753 0)
(2 -5.76933e-14 0)
(1.39074 -0.00319216 0)
(0.899321 -0.0287641 0)
(1.88942 0.270947 0)
(2 8.92879e-14 0)
(1.69959 -0.0496997 0)
(2 5.09985e-14 0)
(2 -3.13527e-13 0)
(2 -1.20239e-13 0)
(0.756938 0.0492114 0)
(2 5.12687e-14 0)
(1.88116 1.00676 0)
(1.29959 -0.00553744 0)
(1.60242 0.00928772 0)
(1.83748 0.232744 0)
(1.86542 0.263422 0)
(1.70128 -0.0544801 0)
(1.83714 0.22856 0)
(1.86669 0.269228 0)
(1.3029 -0.00516533 0)
(1.36758 0.0107711 0)
(1.62939 -0.029267 0)
(2 1.08571e-14 0)
(2 -8.10959e-14 0)
(1.39195 -0.0073598 0)
(1.59157 -0.00955538 0)
(1.66135 -0.061457 0)
(1.88505 -0.163513 0)
(1.78128 0.193722 0)
(1.89698 0.277304 0)
(2 -9.79258e-14 0)
(1.40262 -0.465589 0)
(1.63817 -0.0296622 0)
(1.90487 -0.0415381 0)
(1.85349 0.275708 0)
(1.32905 0.00716252 0)
(2 -3.27426e-14 0)
(1.65162 0.00316596 0)
(1.40571 -0.46715 0)
(2 3.20942e-14 0)
(1.49602 0.0016254 0)
(2.04697 0.106479 0)
(2.03901 0.1002 0)
(1.54362 0.0167295 0)
(1.5235 -0.0518459 0)
(1.79319 -0.0125366 0)
(2.12511 -0.579806 0)
(1.45503 -0.00715193 0)
(1.40895 -0.469559 0)
(2.13454 -0.0326575 0)
(1.40958 -0.470976 0)
(2 -1.66023e-13 0)
(2 6.88933e-14 0)
(1.6137 -0.0313988 0)
(1.70321 -0.104971 0)
(1.66315 -0.0153396 0)
(1.61512 -0.0227952 0)
(2 -8.3923e-14 0)
(2 2.57131e-14 0)
(1.4373 0.00938971 0)
(2.09189 -0.432162 0)
(1.64748 0.0827621 0)
(2 1.01907e-13 0)
(1.14483 0.00399519 0)
(0.752393 0.0474785 0)
(1.71025 0.0923525 0)
(1.39111 -0.00474393 0)
(1.32239 -0.00388195 0)
(0.806739 -0.0438339 0)
(1.43406 0.00722909 0)
(1.40725 -0.468305 0)
(1.70619 -0.0543972 0)
(2 3.0342e-13 0)
(2 1.31946e-13 0)
(2 -2.03246e-13 0)
(1.95401 0.02417 0)
(2 1.93889e-13 0)
(2 6.57162e-06 0)
(1.88797 0.345635 0)
(1.58666 -0.034462 0)
(2 1.41048e-13 0)
(2.08425 0.0433393 0)
(1.62919 0.0398853 0)
(1.52656 -0.00386545 0)
(1.9999 0.000297051 0)
(2 3.16024e-13 0)
(1.60514 0.0318271 0)
(1.51691 -0.00113138 0)
(0.852355 0.0136835 0)
(2.07672 -0.408331 0)
(1.64958 0.0621752 0)
(1.9039 0.0151288 0)
(1.89636 0.0308629 0)
(1.88378 -0.339913 0)
(2 -3.4961e-13 0)
(1.55765 -0.0257659 0)
(1.8982 0.0256232 0)
(1.32185 0.00314275 0)
(1.37012 0.00657251 0)
(1.45224 -0.0105188 0)
(2.10942 0.0310284 0)
(2 -2.00194e-13 0)
(1.89764 0.18973 0)
(1.8616 0.261183 0)
(2 -1.39391e-13 0)
(1.51075 0.00728442 0)
(1.52932 -0.00914712 0)
(2.01519 -0.079768 0)
(1.97992 -0.339969 0)
(2.06101 -0.434446 0)
(2 -5.54871e-14 0)
(1.30697 -0.0147638 0)
(2.12875 -0.737711 0)
(2 4.81965e-14 0)
(1.91929 0.243998 0)
(1.87162 0.327873 0)
(2 1.12364e-13 0)
(1.75668 0.14547 0)
(1.5962 0.0105696 0)
(2 -2.17531e-13 0)
(2.00329 -0.454523 0)
(2 -1.64145e-13 0)
(2.12516 -0.705864 0)
(2 -2.77819e-13 0)
(1.21058 0.00182419 0)
(2 -1.26226e-13 0)
(2 7.87481e-14 0)
(1.81682 0.241057 0)
(2 2.28959e-13 0)
(2 3.69058e-14 0)
(1.8895 0.350522 0)
(2 2.95683e-13 0)
(2 -5.24212e-15 0)
(1.82525 -0.372106 0)
(2 1.78566e-13 0)
(2 1.04882e-13 0)
(1.66626 -0.0376437 0)
(2 -1.62305e-13 0)
(2 -1.02307e-13 0)
(2 -1.01695e-13 0)
(2.02406 -0.182174 0)
(2 -8.20178e-08 0)
(2.04261 0.0848922 0)
(1.61261 -0.0273994 0)
(2 -1.96319e-13 0)
(1.53784 -0.00916307 0)
(1.55571 -0.075176 0)
(1.28656 -0.00678243 0)
(1.67402 -0.0760004 0)
(2 -3.9264e-14 0)
(2 1.71323e-13 0)
(2 -1.1187e-13 0)
(2.04576 0.0750597 0)
(2 -3.27495e-14 0)
(1.45244 -0.460618 0)
(1.4752 -0.449492 0)
(2.11681 0.0291147 0)
(2 -8.18162e-14 0)
(1.21289 -0.0157313 0)
(2 -1.25337e-13 0)
(1.99999 -9.58101e-06 0)
(2 -4.07181e-14 0)
(2 4.53474e-14 0)
(1.87584 0.331694 0)
(1.92558 0.0456072 0)
(2 -2.82226e-14 0)
(2 2.00115e-14 0)
(1.59522 -0.393017 0)
(2.14477 -0.704683 0)
(1.60203 -0.384656 0)
(2 1.498e-13 0)
(1.59117 0.00857236 0)
(1.77492 0.0424797 0)
(1.69329 -0.0941922 0)
(2 7.00726e-15 0)
(2 1.33051e-13 0)
(1.27449 0.00485355 0)
(1.60316 0.0278367 0)
(1.82756 0.167547 0)
(1.71798 0.0224908 0)
(2 7.80307e-06 0)
(2.01447 -0.0731466 0)
(1.78473 0.181284 0)
(2 -1.10431e-14 0)
(1.90155 -0.0231039 0)
(1.24464 -0.00310611 0)
(1.64049 0.031885 0)
(1.61303 -0.00243312 0)
(2 1.08672e-13 0)
(2 -9.20677e-14 0)
(2.03349 -0.45245 0)
(2 -4.56487e-14 0)
(2 -1.13784e-13 0)
(2.10816 -0.0413586 0)
(1.49623 -0.000767132 0)
(2.09502 -0.0234339 0)
(2.11948 0.729615 0)
(2.13078 0.705624 0)
(1.88318 0.0518127 0)
(1.73866 0.140091 0)
(2 2.02047e-14 0)
(1.93174 0.99458 0)
(2 9.54973e-15 0)
(1.39514 0.0124183 0)
(1.48176 -0.0229787 0)
(1.28138 -0.0312998 0)
(1.33376 -0.0016991 0)
(1.68067 0.0254846 0)
(1.48656 0.00172313 0)
(1.99103 -0.474697 0)
(2.01091 -0.0115746 0)
(1.87691 -0.497533 0)
(2 -2.19251e-14 0)
(1.49706 -0.0208909 0)
(1.60529 0.0281891 0)
(2 -1.46673e-13 0)
(1.90016 -0.361718 0)
(1.38836 -0.00436748 0)
(2 -1.34636e-13 0)
(2 2.86041e-13 0)
(1.8949 0.270071 0)
(2 -2.11693e-13 0)
(2.12928 0.757899 0)
(1.70801 0.133296 0)
(2.13842 0.758713 0)
(2 -1.94621e-13 0)
(1.59111 -0.0292269 0)
(1.57117 0.00563058 0)
(2 -9.53902e-14 0)
(1.66731 0.0577757 0)
(1.44008 -0.0122111 0)
(2 5.70262e-14 0)
(2 -3.72398e-15 0)
(1.67575 -0.0369724 0)
(1.51007 0.0132837 0)
(1.44803 0.00293866 0)
(1.58632 -0.0673936 0)
(2 -9.46935e-14 0)
(1.70163 -0.0525054 0)
(1.89517 -0.013166 0)
(1.65053 -0.0391119 0)
(2 -3.60786e-15 0)
(1.88667 1.00398 0)
(2 -1.38007e-13 0)
(2 9.16668e-14 0)
(2.09637 -0.694466 0)
(2 -1.69166e-14 0)
(2 -1.09054e-13 0)
(2 1.13659e-13 0)
(2 -1.60063e-13 0)
(1.45187 -0.00618812 0)
(1.69835 0.0138918 0)
(2.08977 0.0289211 0)
(2 1.08685e-14 0)
(2 6.206e-14 0)
(2.01166 0.0488035 0)
(1.80784 -0.0690226 0)
(2 -3.15017e-14 0)
(2 -1.45537e-13 0)
(1.4089 -0.469893 0)
(1.66849 -0.069311 0)
(1.42298 -0.473843 0)
(1.90983 0.227949 0)
(2 -8.36475e-14 0)
(1.77746 -0.062748 0)
(2.13453 -0.711304 0)
(2 -1.97292e-13 0)
(1.76234 -0.0280933 0)
(2 -1.31891e-13 0)
(1.45022 0.013678 0)
(2 -1.75607e-13 0)
(1.91794 0.238246 0)
(1.39949 -0.120216 0)
(2 -2.51987e-14 0)
(2 -1.64781e-14 0)
(2.02469 0.307113 0)
(1.83083 0.0253654 0)
(2 3.18133e-14 0)
(2 2.67383e-13 0)
(2 9.68736e-15 0)
(2.13518 0.703871 0)
(2.14358 0.701926 0)
(2 -7.22274e-14 0)
(0.84788 0.0147767 0)
(2 -3.61325e-14 0)
(2 -1.4562e-13 0)
(1.89051 -0.0107726 0)
(2 -8.184e-11 0)
(1.52734 0.0118971 0)
(2.13295 -0.706115 0)
(1.90313 -0.0196828 0)
(1.65497 0.0646625 0)
(1.66267 0.0201012 0)
(2 -1.69985e-13 0)
(2 1.17881e-13 0)
(1.63036 -0.109395 0)
(2 7.34827e-14 0)
(2 1.13766e-13 0)
(2 2.32584e-14 0)
(1.99761 0.0385023 0)
(1.88297 0.773737 0)
(2 -2.02445e-14 0)
(1.63032 -0.103905 0)
(1.80783 0.00993772 0)
(2.06685 -0.0587772 0)
(1.30423 0.00609903 0)
(2 3.13574e-14 0)
(2.17444 -0.730515 0)
(1.94334 -0.0474312 0)
(1.61135 -0.108691 0)
(2.192 0.77946 0)
(1.84962 0.0635229 0)
(1.43012 0.0077115 0)
(1.64047 0.0386759 0)
(1.2342 -2.80199e-05 0)
(1.87666 -0.451621 0)
(2.02733 -0.0782744 0)
(1.93326 0.110903 0)
(1.92094 0.0448982 0)
(2 6.74422e-14 0)
(1.36399 -0.125834 0)
(1.83635 0.185223 0)
(2 -1.4729e-13 0)
(1.28109 -0.0140647 0)
(1.90525 -0.0245955 0)
(1.65314 0.190722 0)
(1.70951 0.0782605 0)
(2.10972 0.0187484 0)
(2.12975 -0.710717 0)
(2.08541 0.0291595 0)
(2 -8.37922e-14 0)
(2 -7.93014e-14 0)
(1.42996 -0.475405 0)
(2.13512 0.710485 0)
(2.14136 0.719062 0)
(1.39259 -0.0231887 0)
(1.86003 0.0857839 0)
(1.36151 0.00175496 0)
(2 -4.66786e-14 0)
(1.6926 0.0245704 0)
(2 -1.31482e-14 0)
(2.04968 0.0785239 0)
(1.69521 -0.0963476 0)
(1.86996 0.267625 0)
(1.39889 -0.0110536 0)
(1.86493 0.261867 0)
(1.89211 0.274027 0)
(2 4.10174e-14 0)
(1.80187 0.0186537 0)
(2 5.96338e-14 0)
(1.0398 0.0121884 0)
(1.50553 -0.0876861 0)
(1.7018 -0.0860505 0)
(1.20106 -0.000961186 0)
(2.15041 -0.720265 0)
(2 -8.44637e-14 0)
(1.77916 0.1814 0)
(2.03745 -0.434865 0)
(2 2.80711e-15 0)
(1.55187 0.0196486 0)
(1.8123 0.148871 0)
(1.64168 -0.00333403 0)
(2.0487 0.0730525 0)
(1.41113 -0.471086 0)
(1.74922 -0.49197 0)
(1.63228 0.0267162 0)
(2 -4.82293e-14 0)
(1.51751 -0.0527078 0)
(0.78852 -0.0470249 0)
(1.857 0.076929 0)
(1.89752 -0.20415 0)
(2.14129 -0.714213 0)
(2 6.00062e-14 0)
(0.967904 0.00766961 0)
(2 -7.01239e-14 0)
(1.38492 -0.462432 0)
(2 -1.08728e-13 0)
(2 1.14696e-13 0)
(2.00185 -0.502351 0)
(1.73984 -0.467371 0)
(1.40092 -0.0208137 0)
(2 1.2471e-13 0)
(1.87294 -0.310567 0)
(1.83813 0.168742 0)
(0.838761 0.0219934 0)
(1.5301 -0.00537586 0)
(1.72632 0.0215969 0)
(1.58736 0.00908178 0)
(2.08512 0.0383229 0)
(1.8833 0.0457955 0)
(1.7122 -0.325649 0)
(1.71596 -0.332361 0)
(1.89602 -0.211076 0)
(0.837503 0.0228545 0)
(1.53977 -0.0392195 0)
(1.87859 0.244167 0)
(1.99985 0.000175944 0)
(1.89697 0.0118967 0)
(2 -3.46646e-15 0)
(1.90659 0.0111823 0)
(1.99483 0.0473381 0)
(1.31502 -0.0280774 0)
(1.69741 0.0959142 0)
(1.38331 0.0139185 0)
(2.02059 -0.0841008 0)
(2 -6.00727e-15 0)
(0.958954 0.0100809 0)
(2 -1.89832e-13 0)
(1.92035 -0.24787 0)
(1.70288 -0.0838829 0)
(1.64242 -0.0557426 0)
(1.78897 -0.0591162 0)
(0.816478 0.0242466 0)
(1.7679 -0.0228349 0)
(2 -2.52516e-15 0)
(2 -6.13075e-14 0)
(1.45498 -0.0423043 0)
(1.75714 0.16027 0)
(2.13602 0.713258 0)
(1.54772 -0.0142771 0)
(2.12813 -0.0413363 0)
(2 2.05626e-14 0)
(1.40833 0.012002 0)
(2.14372 0.710436 0)
(1.7759 0.0499078 0)
(1.43595 -0.014218 0)
(1.85032 -0.0470613 0)
(1.83566 0.17811 0)
(1.32026 0.0080977 0)
(2 -4.62394e-09 0)
(2 -1.42743e-13 0)
(2 -5.35509e-14 0)
(1.68481 -0.0527837 0)
(2 2.65938e-13 0)
(1.6501 0.0346048 0)
(2 -5.62525e-14 0)
(2 -2.57171e-13 0)
(2 -2.76052e-14 0)
(1.99999 -1.31646e-05 0)
(2.12909 -0.0490287 0)
(1.67564 -0.0827423 0)
(1.84542 0.197087 0)
(2 3.754e-14 0)
(2 -5.94673e-14 0)
(1.96887 -0.45489 0)
(1.68649 -0.0838236 0)
(0.834681 -0.116441 0)
(2.009 0.0415754 0)
(1.5694 0.00442155 0)
(1.68955 0.0126368 0)
(1.82443 -0.0531741 0)
(2.159 0.0503061 0)
(2.1173 -0.0526303 0)
(1.26647 0.00315104 0)
(1.53237 -0.00772592 0)
(1.93882 -0.485779 0)
(1.45177 0.0164369 0)
(2 1.32897e-13 0)
(2 6.45959e-14 0)
(1.66009 -0.0943373 0)
(2.11948 0.0404527 0)
(1.61361 -0.022562 0)
(1.78005 -0.0528953 0)
(1.87951 -0.467937 0)
(1.6339 -0.038581 0)
(1.74362 0.400486 0)
(1.30502 -0.0375594 0)
(1.51654 0.00381375 0)
(1.575 0.00869082 0)
(1.7905 -0.0246094 0)
(1.44496 -0.00883461 0)
(1.61716 0.201013 0)
(1.89387 0.277859 0)
(2 2.41342e-13 0)
(1.90189 -0.122688 0)
(1.78531 -0.0170719 0)
(1.35614 -0.0348807 0)
(1.78647 -0.0107863 0)
(2.0047 0.000489136 0)
(1.42276 -0.476837 0)
(1.87305 0.267739 0)
(1.52236 -0.00165017 0)
(2 -1.48477e-14 0)
(1.3851 -0.461998 0)
(1.5379 0.00602614 0)
(2 8.15891e-14 0)
(1.93274 -0.0742283 0)
(1.87245 0.271597 0)
(2 8.1705e-14 0)
(1.66561 -0.0202714 0)
(1.8033 0.0113589 0)
(1.22525 -0.000385205 0)
(1.87575 -0.438085 0)
(2 -1.50038e-13 0)
(2 -3.07349e-14 0)
(1.85547 -0.421322 0)
(2.09263 0.014004 0)
(1.60575 -0.103014 0)
(1.85215 -0.0407749 0)
(1.80906 0.013809 0)
(1.75109 0.38541 0)
(1.67201 0.218482 0)
(1.40947 -0.471217 0)
(1.53759 0.021794 0)
(1.99777 -0.0104853 0)
(1.88532 0.998317 0)
(1.88615 0.737788 0)
(1.6826 0.249977 0)
(1.81304 0.0202545 0)
(1.93629 -0.046928 0)
(1.84746 -0.406919 0)
(1.70465 -0.105061 0)
(1.61764 -0.00180343 0)
(1.72347 0.359259 0)
(1.90912 0.290124 0)
(1.34535 -0.155392 0)
(1.46581 0.00421627 0)
(1.59448 0.00993955 0)
(1.83995 0.0559221 0)
(1.09635 -0.00790577 0)
(1.77689 -0.02295 0)
(1.88155 0.0342516 0)
(1.86179 0.213073 0)
(1.4404 0.00641777 0)
(1.63566 -0.0563571 0)
(1.63794 0.182287 0)
(1.70741 0.072506 0)
(1.82478 -0.0496027 0)
(1.50336 -0.00579313 0)
(1.31725 -0.00617561 0)
(2.10219 0.515099 0)
(1.52238 -0.0893919 0)
(2.08766 0.516381 0)
(1.28945 -0.0236353 0)
(1.72061 0.399684 0)
(1.67199 -0.0647277 0)
(1.52194 -0.0868423 0)
(1.87709 -0.14559 0)
(2.06001 0.312813 0)
(1.8296 -0.0364095 0)
(1.78918 -0.386376 0)
(1.89206 -0.344445 0)
(2 6.97638e-14 0)
(2.02781 0.0841396 0)
(2 3.33515e-14 0)
(1.96942 -0.0645204 0)
(1.78107 -0.3666 0)
(1.76176 0.0172307 0)
(2 -1.18624e-13 0)
(1.71439 0.123907 0)
(2 4.24078e-15 0)
(0.888283 -0.0327191 0)
(1.82475 -0.0845232 0)
(1.50075 -0.0110676 0)
(1.37077 0.0099347 0)
(1.48521 -0.000621681 0)
(1.78063 -0.00664687 0)
(1.80037 0.00655252 0)
(1.4064 0.041354 0)
(1.67453 -0.0888756 0)
(1.42377 -0.474408 0)
(1.21424 -0.00949645 0)
(2 -4.26633e-15 0)
(1.90303 0.0204429 0)
(2 -1.21273e-13 0)
(1.48275 -0.0290218 0)
(2 -1.57656e-09 0)
(2 1.95743e-14 0)
(1.73212 0.474999 0)
(1.78151 -0.0503889 0)
(1.57594 0.0103412 0)
(1.45809 -0.060669 0)
(1.91721 0.0326015 0)
(1.73532 0.347557 0)
(1.6946 -0.0792529 0)
(1.8909 -0.131263 0)
(1.55563 0.0209289 0)
(1.45772 -0.058985 0)
(1.45792 -0.00411815 0)
(2 -4.58682e-13 0)
(1.56047 0.00874961 0)
(1.4924 -0.0139368 0)
(1.84516 0.0460014 0)
(2.00024 -0.442946 0)
(1.99556 -0.442619 0)
(2 1.16593e-13 0)
(2.13786 0.771737 0)
(1.70601 -0.0550234 0)
(2.1261 0.764315 0)
(1.48065 -0.00448158 0)
(1.8106 0.231905 0)
(2 2.48349e-14 0)
(1.84584 0.0865132 0)
(1.77164 -0.0507532 0)
(1.4704 0.0518221 0)
(1.45577 -0.00582144 0)
(2 -1.0648e-13 0)
(1.81028 0.0963776 0)
(1.87062 -0.309258 0)
(1.81955 0.158856 0)
(1.72875 -0.0418238 0)
(1.66914 -0.255183 0)
(1.80979 0.126353 0)
(1.87778 -0.148037 0)
(1.45004 0.00601148 0)
(1.6461 -0.226424 0)
(1.66979 0.248475 0)
(1.68068 0.267703 0)
(1.69246 -0.0719301 0)
(1.54212 0.0111328 0)
(1.87377 -0.328467 0)
(1.80994 0.134748 0)
(1.62166 -0.192011 0)
(1.84018 0.0348174 0)
(1.44949 0.00574547 0)
(1.47968 0.000178058 0)
(2 3.10507e-08 0)
(2 7.35499e-08 0)
(1.37094 -0.127547 0)
(2 1.42167e-13 0)
(1.63063 -0.0416012 0)
(1.43161 -0.473803 0)
(2.00084 -0.000665418 0)
(1.80775 0.115537 0)
(2.14384 0.747941 0)
(1.78288 0.00323666 0)
(1.89889 -0.212733 0)
(2.13061 0.74606 0)
(1.68831 0.0191197 0)
(1.55224 0.00543061 0)
(1.85734 0.208095 0)
(1.27042 -0.0140163 0)
(0.879422 -0.0279847 0)
(1.79246 0.101416 0)
(1.86173 0.215908 0)
(1.85169 0.204813 0)
(2 -6.09252e-14 0)
(1.888 0.797805 0)
(1.72405 -0.351769 0)
(1.86641 0.218363 0)
(1.49868 0.0691418 0)
(1.8956 0.184445 0)
(1.90683 0.193578 0)
(1.87083 0.227439 0)
(2 3.16695e-14 0)
(1.87501 0.230339 0)
(1.53874 0.0076407 0)
(2.02965 -0.439365 0)
(1.68851 -0.0718497 0)
(2.04383 -0.0518182 0)
(1.88342 0.254095 0)
(1.9933 -0.42928 0)
(2 7.48416e-14 0)
(1.9112 0.474288 0)
(1.88783 0.258914 0)
(1.63415 0.192207 0)
(2.00008 -0.0669932 0)
(1.86774 0.464858 0)
(2.14996 0.725848 0)
(2.14189 0.719001 0)
(1.8849 0.754029 0)
(1.80859 0.118737 0)
(1.62379 0.359492 0)
(1.99895 -0.46744 0)
(2.00002 -2.42315e-05 0)
(1.88774 0.26476 0)
(1.60314 -0.101669 0)
(1.88165 0.757108 0)
(1.53936 -0.0541676 0)
(2 7.78364e-14 0)
(1.79557 -0.0294444 0)
(1.88505 0.812077 0)
(2.16948 -0.72362 0)
(1.77717 -0.0304325 0)
(1.80236 0.0999038 0)
(1.56788 0.00238646 0)
(2 -7.96447e-12 0)
(2 -3.71615e-13 0)
(1.7551 0.159927 0)
(2 -8.57652e-15 0)
(1.69421 -0.0790595 0)
(1.60834 -0.0205945 0)
(1.84067 0.038907 0)
(2.14174 0.702768 0)
(2.13742 0.704689 0)
(0.753358 0.0306611 0)
(1.41726 -0.478215 0)
(2 1.71222e-14 0)
(1.91193 0.993381 0)
(1.89282 -0.371734 0)
(1.57275 0.0115614 0)
(2.00114 0.441197 0)
(1.85703 0.283012 0)
(1.87321 -0.478989 0)
(2 1.02867e-14 0)
(1.87077 -0.317661 0)
(2.0054 -0.00683114 0)
(1.90144 -0.208088 0)
(1.93285 -0.480781 0)
(2 7.5526e-14 0)
(1.93252 -0.457879 0)
(2.00832 -0.0138689 0)
(2.17521 0.738786 0)
(1.93427 -0.473472 0)
(1.54832 0.0069486 0)
(2 -8.45426e-14 0)
(1.76809 0.169217 0)
(2 -1.16351e-06 0)
(2 9.54537e-14 0)
(2 3.37373e-07 0)
(2.00247 -0.00282397 0)
(1.46724 -0.038984 0)
(1.78619 -0.00211758 0)
(2 -4.4526e-14 0)
(2 -2.70991e-13 0)
(1.69759 0.103209 0)
(1.90767 0.432608 0)
(1.9041 -0.493794 0)
(1.55585 0.0906935 0)
(1.56636 0.095682 0)
(1.59957 -0.00476759 0)
(1.828 0.174771 0)
(1.83228 0.166221 0)
(2.11566 -0.708891 0)
(2 -1.00594e-13 0)
(2 8.63015e-15 0)
(1.89592 -0.348529 0)
(1.75208 0.143657 0)
(2.14535 0.703474 0)
(2.13674 0.705869 0)
(1.85921 0.253411 0)
(1.60721 -0.105154 0)
(1.89478 0.267806 0)
(1.62411 -0.104272 0)
(1.93296 -0.0857507 0)
(2 3.39838e-14 0)
(2 -2.06227e-14 0)
(1.61454 -0.00458372 0)
(2 -1.42614e-14 0)
(2.1789 -0.7228 0)
(1.80893 -0.0641617 0)
(2 5.90094e-14 0)
(2.00425 0.477703 0)
(1.62021 -0.0994287 0)
(2 1.13907e-13 0)
(1.7368 0.364142 0)
(1.72302 0.025987 0)
(1.77881 -0.0589199 0)
(1.74008 0.378051 0)
(1.98542 -0.414308 0)
(2 -1.08519e-15 0)
(0.970312 -0.0230542 0)
(2.12747 0.710063 0)
(1.47566 -0.00936697 0)
(1.99864 0.456224 0)
(1.50133 -0.0386663 0)
(2 7.98581e-08 0)
(1.97661 0.0303567 0)
(2 3.41165e-09 0)
(2 -1.86383e-13 0)
(1.99646 -0.489783 0)
(1.99222 -0.465976 0)
(1.10966 -0.0079006 0)
(1.50725 -0.083101 0)
(1.69189 -0.291226 0)
(2 4.55331e-13 0)
(1.72729 0.127392 0)
(1.81019 -0.400903 0)
(1.81229 -0.418425 0)
(1.8919 0.170157 0)
(2.14401 0.70982 0)
(2.11569 -0.708607 0)
(1.70763 0.0611977 0)
(1.84281 0.0453303 0)
(2.13708 0.706669 0)
(1.68716 0.233593 0)
(1.95604 0.452902 0)
(1.69251 0.257611 0)
(2.12052 -0.717682 0)
(1.84334 0.188818 0)
(1.8695 0.427208 0)
(2 -4.25138e-10 0)
(1.67357 -0.0772243 0)
(1.58714 0.023883 0)
(1.81893 0.482537 0)
(1.80914 0.440613 0)
(1.65304 0.185266 0)
(1.81259 0.454351 0)
(1.81293 0.468271 0)
(2.14358 0.712954 0)
(1.44003 0.0156718 0)
(1.83547 0.0302132 0)
(1.99923 -0.0754534 0)
(1.52731 -0.00333477 0)
(1.93866 -0.0552523 0)
(1.82179 0.498655 0)
(1.80917 0.426877 0)
(2.02201 0.426862 0)
(2.13725 0.708563 0)
(1.74237 -0.345994 0)
(1.66231 0.000216549 0)
(2 2.95251e-11 0)
(2 8.61988e-10 0)
(1.74801 -0.360739 0)
(1.62432 0.0219982 0)
(1.51813 0.268397 0)
(2 -2.19002e-09 0)
(1.91073 0.2346 0)
(1.77844 -0.0535447 0)
(1.487 0.0652961 0)
(1.29419 -0.023165 0)
(1.59745 -0.0123542 0)
(1.35389 -0.155126 0)
(2 -1.9041e-13 0)
(1.83608 0.221068 0)
(1.85185 0.809906 0)
(1.80837 0.00722835 0)
(1.61356 0.022296 0)
(2 1.27482e-13 0)
(1.93201 -0.488794 0)
(1.87647 0.264809 0)
(1.85418 0.832918 0)
(1.70625 0.0575334 0)
(1.6763 -0.0489746 0)
(2 1.30702e-14 0)
(1.38577 -0.132709 0)
(1.94942 0.0312093 0)
(1.39265 -0.117 0)
(1.4239 -0.473581 0)
(1.88456 -0.500439 0)
(1.91634 0.226844 0)
(2.11891 -0.00989105 0)
(1.90661 -0.510917 0)
(1.88925 0.160839 0)
(2 5.03248e-14 0)
(2.00001 -6.62501e-06 0)
(1.66532 -0.0416492 0)
(1.82309 0.414392 0)
(1.93125 -0.0715791 0)
(1.86204 0.457905 0)
(1.58793 -0.14689 0)
(1.68484 0.0791626 0)
(1.86309 0.473697 0)
(1.59514 -0.00950507 0)
(1.60147 -0.163278 0)
(1.83366 0.453748 0)
(2 -6.60529e-14 0)
(1.6471 0.00451468 0)
(1.44321 -0.0119658 0)
(1.8983 0.17067 0)
(1.82964 -0.0401197 0)
(1.82978 -0.0452419 0)
(1.93035 -0.0831753 0)
(1.84787 0.0687621 0)
(1.88517 0.786983 0)
(2 9.23723e-15 0)
(1.41381 -0.00702976 0)
(2.07121 0.0713471 0)
(1.48917 -0.0106785 0)
(2 -1.86843e-13 0)
(1.82025 0.440687 0)
(2.1466 0.712929 0)
(1.35476 0.0681649 0)
(1.47361 -0.0427872 0)
(1.7151 -0.241839 0)
(1.52818 -0.0583112 0)
(1.89624 0.467593 0)
(1.92093 -0.246225 0)
(1.55153 -0.0160776 0)
(1.89458 0.479014 0)
(1.56255 0.0146529 0)
(1.81311 0.191671 0)
(1.8264 -0.412689 0)
(2 8.60791e-08 0)
(2 -3.20345e-14 0)
(1.86946 -0.304405 0)
(1.48371 0.00322868 0)
(2 1.95839e-13 0)
(1.35796 0.00235251 0)
(1.51742 -0.0183936 0)
(1.83574 0.714729 0)
(1.90956 0.0251855 0)
(2 -3.33096e-14 0)
(1.55102 -0.0161166 0)
(1.83572 0.713597 0)
(1.92942 -0.0872181 0)
(1.67604 -0.0750699 0)
(1.6935 0.0936933 0)
(2 -2.76034e-13 0)
(1.85769 -0.278945 0)
(2 -3.68598e-12 0)
(1.42464 -0.473787 0)
(2 1.00956e-13 0)
(1.98505 -0.427133 0)
(1.81257 -0.0648018 0)
(1.67198 0.00777589 0)
(1.88828 -0.375716 0)
(1.81048 -0.0617729 0)
(1.95311 0.46907 0)
(2 1.71553e-13 0)
(1.95792 0.0293346 0)
(1.89478 -0.522687 0)
(2.13655 0.714725 0)
(1.4103 0.469893 0)
(1.71148 0.132475 0)
(1.52831 -0.0196539 0)
(1.2529 0.135278 0)
(1.53746 -0.0280562 0)
(2 -1.08374e-13 0)
(1.54919 -0.0278634 0)
(2.14422 0.711115 0)
(1.55355 -0.0277448 0)
(1.58649 -0.00945499 0)
(1.75029 -0.0778159 0)
(1.40832 0.470465 0)
(1.52778 0.405101 0)
(1.71375 0.154992 0)
(1.71711 0.215024 0)
(2.13625 0.712116 0)
(1.99199 0.473158 0)
(2 -4.0116e-14 0)
(1.63786 -0.0861728 0)
(1.7598 -0.0732431 0)
(1.84351 0.406148 0)
(1.64585 -0.0823925 0)
(1.3855 -0.213418 0)
(1.84574 0.407819 0)
(2.00005 -6.40273e-05 0)
(1.77573 0.152947 0)
(1.79817 -0.242482 0)
(1.83299 0.402029 0)
(1.83131 0.39699 0)
(1.67871 0.104993 0)
(2 -3.84812e-14 0)
(1.78429 -0.0677408 0)
(1.81375 0.366874 0)
(1.81714 0.365244 0)
(1.92667 -0.0849165 0)
(1.44518 0.0012597 0)
(2 -1.6763e-13 0)
(1.4603 -0.00798906 0)
(2 -1.56656e-13 0)
(2 -1.68387e-13 0)
(1.4704 -0.0207398 0)
(1.74039 0.359958 0)
(2.01953 0.443988 0)
(1.79846 0.357381 0)
(1.80249 0.358983 0)
(2 1.50738e-13 0)
(2 6.44269e-14 0)
(1.59745 -0.0160503 0)
(1.58133 -0.0713532 0)
(1.84243 -0.416259 0)
(2.0002 -1.25388e-06 0)
(1.90142 -0.355052 0)
(1.84086 0.749564 0)
(1.83818 0.732648 0)
(1.82863 0.675694 0)
(2.05523 -0.06318 0)
(1.65087 -0.0403497 0)
(1.82615 0.659522 0)
(1.83129 0.69379 0)
(2 1.00195e-13 0)
(1.96519 -0.465433 0)
(1.68158 0.0421158 0)
(1.53397 -0.0920207 0)
(2.04362 -0.061398 0)
(2.14233 0.715376 0)
(1.65163 -0.185378 0)
(1.99896 -0.489783 0)
(2.13559 0.714113 0)
(2 -1.30359e-13 0)
(1.86806 0.439315 0)
(1.47482 0.00670148 0)
(1.92925 -0.0811511 0)
(1.67957 -0.213272 0)
(1.64955 0.0506038 0)
(2 1.85999e-14 0)
(1.53403 -0.00906626 0)
(2 4.05772e-13 0)
(1.67678 -0.208402 0)
(1.63982 0.0532211 0)
(1.79061 0.33079 0)
(1.70313 -0.208938 0)
(2 2.17606e-13 0)
(1.93952 -0.499296 0)
(1.78978 0.329625 0)
(1.84445 0.770911 0)
(1.40505 0.467825 0)
(1.81938 0.15279 0)
(2.07658 -0.0290003 0)
(1.70771 -0.312317 0)
(1.66276 0.243889 0)
(1.40888 0.468541 0)
(2 3.71324e-14 0)
(1.78387 0.317752 0)
(1.77881 0.315973 0)
(1.76067 0.306782 0)
(1.76434 0.306109 0)
(1.75794 0.291528 0)
(1.75879 0.29199 0)
(1.86625 -0.307622 0)
(2.02044 0.459877 0)
(2 1.21514e-13 0)
(1.74244 0.277888 0)
(2 2.56268e-08 0)
(1.74735 0.279336 0)
(1.55691 -0.0108637 0)
(1.6234 -0.0979794 0)
(1.68979 0.28131 0)
(1.62357 -0.0992616 0)
(2.12354 -0.714129 0)
(1.43581 -0.0153784 0)
(1.61989 -0.0956913 0)
(1.61822 -0.0984919 0)
(1.72968 0.264049 0)
(1.73148 0.264537 0)
(1.40764 0.468383 0)
(1.89188 -0.194366 0)
(1.85408 -0.274844 0)
(2.14395 -0.721213 0)
(2.16785 0.723214 0)
(1.72232 0.254844 0)
(1.72564 0.253301 0)
(1.70178 0.235829 0)
(2 -5.61171e-14 0)
(2 -6.5618e-14 0)
(1.62568 -0.0870813 0)
(1.93739 0.0993563 0)
(1.86791 0.450573 0)
(1.85006 -0.269572 0)
(1.62388 -0.0896028 0)
(1.41049 0.470244 0)
(1.70409 0.235153 0)
(2 1.52747e-13 0)
(2 -3.25979e-13 0)
(2.08933 -0.025734 0)
(1.80544 -0.251962 0)
(2 2.03611e-13 0)
(2 1.64006e-13 0)
(1.4124 -0.00801925 0)
(2 2.00662e-13 0)
(1.69253 0.227566 0)
(1.69693 0.228551 0)
(1.67232 0.209443 0)
(1.6769 0.212861 0)
(1.7948 -0.234457 0)
(1.82873 -0.31574 0)
(1.89878 -0.36281 0)
(1.51412 0.00311599 0)
(1.78217 -0.216528 0)
(1.79877 0.104122 0)
(1.66055 0.198429 0)
(1.66306 0.198369 0)
(1.40531 0.469576 0)
(1.77443 -0.211579 0)
(1.80253 0.109789 0)
(2.13905 0.715705 0)
(1.77073 0.194021 0)
(1.87096 -0.449906 0)
(2 -4.11576e-14 0)
(1.97505 -0.0226211 0)
(1.86458 -0.438678 0)
(2.14619 -0.743334 0)
(1.42471 -0.474972 0)
(2.11735 -0.609418 0)
(2.13579 0.708525 0)
(1.67147 0.100953 0)
(1.40816 0.471065 0)
(2 -2.00236e-13 0)
(1.95819 0.466865 0)
(2 3.40247e-14 0)
(1.58965 -0.0734274 0)
(1.84875 0.263434 0)
(1.42395 -0.474271 0)
(1.65533 0.00321562 0)
(2.07395 -0.0210649 0)
(2.11141 0.0307203 0)
(1.59247 0.00897289 0)
(1.84423 -0.417477 0)
(1.4061 0.467677 0)
(1.42085 0.0251422 0)
(1.54618 -0.0848067 0)
(1.77777 0.187607 0)
(1.54817 -0.0817046 0)
(2.13339 -0.760691 0)
(1.40955 0.469135 0)
(1.72752 0.360541 0)
(2.02354 0.44216 0)
(1.4259 -0.475348 0)
(1.42477 -0.47548 0)
(1.8836 0.247885 0)
(1.41196 0.470646 0)
(1.9997 0.000396309 0)
(1.69815 -0.217761 0)
(1.40707 0.468758 0)
(1.84798 0.259426 0)
(1.70228 -0.214439 0)
(1.40982 0.468768 0)
(1.72906 0.13292 0)
(1.31694 -0.00202098 0)
(1.53298 -0.0940391 0)
(1.40536 0.469855 0)
(2.09245 0.0202777 0)
(1.7975 -0.404902 0)
(1.35583 0.00411598 0)
(1.8503 0.0844085 0)
(1.41174 0.468444 0)
(1.91062 0.190466 0)
(2.00003 -3.99457e-05 0)
(1.40549 0.468224 0)