/*--------------------------------*- C++ -*----------------------------------*\
  =========                 |
  \\      /  F ield         | OpenFOAM: The Open Source CFD Toolbox
   \\    /   O peration     | Website:  https://openfoam.org
    \\  /    A nd           | Version:  12
     \\/     M anipulation  |
\*---------------------------------------------------------------------------*/
FoamFile
{
    format      ascii;
    class       volScalarField;
    location    "4.85";
    object      p;
}
// * * * * * * * * * * * * * * * * * * * * * * * * * * * * * * * * * * * * * //

dimensions      [1 -1 -2 0 0 0 0];

internalField   nonuniform List<scalar> 
46253
(
0.99232
1.04611
1.2107
1.04605
1.20665
1.20356
0.985466
0.9319
1.04157
1.04066
0.991152
0.765194
1.01948
1.02017
1.03873
1.03818
1.03722
1.02785
1.02837
1.03424
1.03379
1.19756
1.00009
0.963357
1.0581
1.04379
1.03549
1.03585
1.04421
0.917181
1.00313
1.01184
1.0112
1.0315
1.0307
1.07762
1.02321
1.02249
0.855309
1.00001
0.953955
0.762738
1.01506
1.0143
0.748821
1.02594
1.0255
1.00319
1.00655
1.00579
1.00337
1.00247
1.18723
0.878225
1.21977
0.829184
0.997872
0.997301
1.09838
0.976648
1.08266
0.959873
1.07342
1.00072
1.03915
1.0176
1.01734
1.1929
0.83709
0.705371
0.783868
0.994994
0.993964
0.884558
1.18322
0.972364
0.977996
0.977627
1.06331
1.00927
1.00879
0.988657
1.1885
0.988675
0.878991
1.17956
0.971773
0.971717
0.976353
1.07424
0.999996
0.91828
1.17893
1.00024
1.00024
0.999838
1.17825
1.04906
1.09581
1.07902
0.999996
1.17777
1.1815
1.00005
1.21816
0.976726
0.759846
0.96402
0.964951
0.763943
1.04136
0.991354
0.99059
1.04922
1.06551
0.994698
0.731059
0.981311
1.22186
0.808781
0.999998
1.20066
0.98643
0.985565
1.17609
1.22874
1.0814
0.81924
1.23766
0.974929
0.95067
0.950321
1.20023
1.09965
0.973494
1.02312
0.972155
0.974512
0.806049
1.03428
0.979591
0.941538
0.940629
0.992626
0.980301
1.23
0.972272
0.972884
0.867161
1.07449
0.761814
1.18616
0.973603
0.972082
0.966221
0.690825
0.794528
1.06582
0.969757
1.21613
0.96854
0.75214
0.825971
1.04065
1.08373
0.973804
1.08281
0.972699
1.33192
1.07739
0.971674
0.97091
1.19456
0.960715
1.21369
1.01314
1.21346
1.17729
1.0552
0.728009
1.21434
0.964198
0.966697
0.965249
1.11837
0.970781
0.9706
1.05845
1.11752
1.11704
1.18452
1.10805
0.947427
1.1082
1.12445
1.12443
1.00765
1.1786
0.887439
0.886198
1.0589
1.07879
0.96845
0.9714
1.0804
0.697347
0.958996
0.960533
0.959744
1.07739
1.06555
1.22232
0.966011
1.18042
1.19361
1.18196
0.989672
0.902269
0.953557
1.19483
1.19067
0.95276
1.01015
0.969358
0.969735
0.916909
1.17645
1.17614
0.871156
0.872593
1.0538
0.999999
1.07724
1.07868
1.17604
1.00024
1.12182
1.0265
1.05373
1.06893
1.17592
1.17719
1.19131
1.12219
1.02914
1.18225
1.0661
0.955665
1.18704
0.944819
0.943977
1.06382
0.855344
1.17175
0.857014
0.963205
0.962419
0.843797
0.98591
1.12942
0.97401
0.90191
0.781965
0.994678
1.06513
1.06339
1.05896
1.03762
0.957189
0.935513
0.956089
1.1763
1.08194
1
0.934561
1.17601
1.22512
1.07481
0.874828
0.858913
0.841329
0.840487
1.18247
1.18063
1.04144
0.962895
0.930243
0.810481
0.983094
1.08053
1.08836
1.08471
0.865884
1.01298
1.07846
1.03038
1.17648
1.02878
0.951109
0.929079
1.21317
0.928816
0.820123
1.21109
1.11738
0.948352
0.947143
1.0764
0.994925
1.11748
1.11712
1.17918
1.05896
0.92221
1.09427
0.920768
0.819819
1.0781
1.0801
0.853861
0.781319
1.09334
1.12666
1.06485
0.758882
0.97932
1.0928
1.19119
0.917095
0.917255
1.06649
1.05926
1.11788
1.00867
1.09217
0.920092
0.831671
0.938529
0.937802
1.06565
1.18743
1.18473
1.06356
1.22308
1.08979
0.909168
0.908167
1.01691
0.829567
1.17672
0.808092
1.07652
0.706217
1.04804
0.756538
1.08773
0.932251
1.07583
0.931499
1.07356
0.760639
1.11597
1.13863
1.1164
1.11691
1.13796
1.13775
1.13751
0.904849
1.09916
1.09075
1.0931
1.09484
0.904276
1.13794
1.07579
0.801806
1.17608
1.09112
1.07679
0.958683
0.931812
0.788904
0.926307
0.867686
0.92531
1.09037
1.00019
0.8963
1.24958
1.11853
0.985074
0.895645
0.930073
1.08927
0.946599
0.950951
0.949202
1.11543
0.895042
1.00065
1.02148
1.01654
1.0748
1.17627
1.1301
1.12336
1.07776
0.999999
1.09166
1.0965
1.11806
1.19412
1.11821
0.886432
1.12959
0.961542
1.1928
1.09132
0.84783
1.13034
1
0.891168
1.08889
0.918446
1.08894
1.07355
0.890272
0.91888
1.11303
1.19903
1.07502
1.00097
1.12533
1.12562
0.870344
0.894014
1.1167
1.12332
0.891307
0.786525
1.1364
0.940526
1.11357
0.870911
0.968837
1.10829
1.10706
0.809478
1.06572
0.857716
0.897529
1.06066
0.970364
1
1.12612
0.971766
1.12614
0.91442
0.867451
1.09817
0.861012
0.862316
0.912097
1.09416
0.863675
1.17748
1.11791
1.12978
1.09826
1.11851
1.10782
1.05467
0.949427
0.813485
0.88227
0.829819
0.951565
0.88158
1.06084
1.00337
1.00365
1.07679
1.17586
1.17736
1.07838
1.242
1.06575
0.862741
0.919288
0.756981
0.860999
0.879302
0.974403
0.866654
0.999986
1.08912
0.906213
0.886521
0.779364
0.907243
0.873279
0.872337
0.997615
0.981907
1.13847
0.996471
0.997841
1.07834
0.999999
1.103
0.922863
1.13204
0.843752
0.949638
1.08194
1.11808
0.874637
1.0952
1.03325
0.932356
1.1042
0.893303
1.15195
1.11421
0.894396
1.12479
0.888802
0.897778
0.889111
1.06079
1.06668
1.14375
1.06394
0.866546
0.887965
1.08985
1.07651
0.900466
1.05231
0.968059
0.838878
1.09079
1.10447
0.898428
1.08025
1.07555
1.12062
1.12087
0.723239
1.11622
1.11755
0.86462
0.825868
0.862965
0.982949
1.10708
1.10853
1.10239
1.10287
1.15225
1.13411
1.07817
0.880166
0.75801
1.11433
1.12164
1.08095
1.12905
1.11374
1.12298
0.998879
0.988112
1.04526
0.976351
1.1182
1.10365
0.822315
1.06542
1.1166
1.11499
0.894134
1.11092
1.12097
0.894002
0.972309
1.01268
1.1383
1.01331
1.01298
1.01398
1.00307
1.11941
0.856735
0.856431
0.985016
0.916336
1.1133
1.10894
0.880074
1.0911
1.21514
1.14302
1.12946
1.21323
1.13211
1.11809
0.994051
0.99838
1.08871
1.13774
1.00133
0.867799
1.09196
1.08973
0.937172
1.09397
1.09477
1.08849
1.09061
1.08383
1.08507
1.07709
1.07785
1.07897
0.870037
1.07054
0.926964
1.07226
1.06566
1.09707
1.01266
0.987799
1.06684
1.1382
1.05699
1.09027
1.05787
1.05569
0.872912
1.05073
1.08024
1.05277
1.15594
1.13406
1.04569
1.12606
1.0461
1.12652
0.717531
1.08023
0.832909
0.980051
1.11543
1.11583
1.03627
1.03778
1.13921
0.888068
1.03115
1.03264
0.933979
1.18607
1.19372
1.02153
0.848248
1.02259
1.13446
0.88439
1.01152
0.794609
1.01179
0.846051
0.884467
1.13399
1.11565
1.1153
1.00575
1.00874
0.817379
1.13121
1.1019
0.999567
0.857234
0.9982
0.785088
1.13732
0.985286
0.986009
1.11694
1.11982
1.11751
0.984339
1.12028
0.887218
0.921192
1.006
1.17727
0.974088
1.10227
0.977854
1.1017
1.09384
0.886807
0.885942
0.971741
0.970931
0.862019
0.890794
0.959587
0.896206
0.962127
1.18574
0.951195
0.948793
0.954016
1.11876
0.820816
0.94929
0.945377
1.30173
1.08503
1.08509
1.11811
0.931049
0.865518
0.936005
1.11397
1.00764
0.883305
0.771977
0.935935
0.934578
0.919417
0.917389
0.918945
0.81856
0.833833
1.11004
1.17858
1.22351
0.84204
1.07749
0.803501
0.842745
0.794083
0.991319
0.971032
1.10053
1.11153
1.10202
0.877625
1.10236
1.11551
1.10164
1.07704
1.11586
0.875321
1.11081
1.1095
1.10913
0.84682
0.805324
1.13416
0.947231
1.05084
0.99142
1.05972
1.0746
1.09159
1.13386
1.00002
0.919203
1.10367
0.869712
1.13089
1.00199
0.897896
1.00397
0.801957
1.11858
0.934535
0.943504
1.01352
1.13253
1.06693
1.13888
1.00003
1.10284
1.00556
1.00622
0.914126
0.948361
0.955234
1.10942
0.842549
1.09115
1.09034
1.00855
0.907639
1.12979
1.15307
1.12822
1.13136
0.951551
0.950124
1.11824
1.01067
0.830362
0.857855
1.13915
0.866273
0.83035
1.13826
1.13267
0.865526
0.873926
1.13193
0.829159
1.10871
1.13695
1.04201
1.02572
1.02789
0.870416
1.10514
1.0914
1.1069
0.94184
0.873685
1.11689
0.884076
0.918189
0.813205
1.14859
1.0996
1.09529
1.13559
0.997349
0.998334
1.09619
1.13602
1.07441
0.870543
0.986708
1.04932
1.13664
0.985126
0.869362
0.872528
0.872384
1.07774
0.867277
0.89614
0.805341
0.870832
0.800207
0.959445
1.11727
1.11658
0.957587
1.06461
1.11913
0.873269
0.872192
1.11806
0.829798
0.810282
0.88749
0.805427
0.831929
0.829439
0.829027
0.827074
0.792727
0.796304
1.06034
1.15439
0.850369
1.15536
1.05906
0.868885
0.819406
0.829501
1.13468
1.11752
0.897147
1.18564
0.885433
0.898539
1.12597
1.12665
0.958152
1.12645
1.06488
1.12781
1.09366
0.872749
0.889832
0.858865
1.09013
1.08792
0.859545
1.08696
0.894233
0.891633
0.858219
1.1338
0.898994
0.874244
0.898742
1.08987
1.08994
1.08953
1.08974
0.873473
0.886244
1.12917
0.931806
1.13047
0.828678
1.1289
0.826336
0.971906
1.10234
1.13491
0.814975
0.813183
0.978433
1.18575
1.09866
0.828138
1.04858
1.05719
0.834534
1.10354
1.10546
0.858082
1.10845
1.1344
1.13465
0.887017
0.746432
1.0355
0.890869
1.08211
1.1131
1.17682
1.11463
1.10326
1.11863
1.25392
1.12041
0.993165
0.83195
0.799395
0.764902
0.971291
1.09138
1.12148
0.848721
0.973026
0.979023
1.09803
1.04727
1.05519
1.06082
1.04136
1.04813
1.06461
1.08984
1.05589
1.06831
1.04334
0.87149
1.06323
1.02228
1.03474
1.06869
1.09875
1.07453
1.03459
1.0759
1.11605
1.02415
1.09348
1.07995
1.08192
1.02362
1.08589
1.0872
1.01469
1.08681
1.11631
1.09252
1.01792
1.18921
1.01148
1.0937
1.02369
1.09169
1.02862
1.0115
1.11652
1.12397
1.11892
0.999533
1.014
1.11965
1.11946
1.1249
1.00137
1.04876
1.10706
0.989362
1.13575
0.888697
0.993104
0.982955
0.984433
0.835679
0.971208
0.97125
0.966811
1.09059
0.959724
0.969149
1.0987
0.958455
1.04047
1.09766
1.08762
0.958763
0.846248
1.08325
0.943566
0.944479
0.943936
0.855068
0.947508
1.00145
0.932266
1.09037
0.904902
0.854131
0.928709
0.936057
0.929734
0.865838
0.924855
0.909384
0.907743
0.894605
0.931543
0.92221
0.918048
0.993694
1.04674
1.08635
1.1059
1.03984
1.10034
1.0418
1.03199
0.988609
1.03696
1.2271
0.933883
1.06738
0.912901
0.890116
0.983733
0.989023
1.09999
0.876174
1.00829
1.01621
0.894296
1.04275
1.00932
1.00819
1.00947
1.0124
1.07215
0.820041
0.896396
0.876072
1.11476
0.8871
0.825035
0.793211
0.933475
1.16152
1.04525
1.0127
0.760896
0.999994
1.052
0.973523
0.905164
1.05898
1.00012
1.09454
1.09755
0.869191
0.934531
0.771757
1.00644
0.933201
0.946742
0.987807
0.843143
0.906443
0.841345
0.906301
0.941472
0.74856
0.813134
1.00593
0.892639
1.0115
0.912559
1.12627
1.01091
1.06654
0.873824
0.921311
1.18229
1.12822
1.06225
0.886105
1.13228
1.08955
1.058
0.971075
0.922158
0.800845
1.142
0.964557
1.05589
0.884106
0.871949
1.08177
1.14181
1.09351
0.791734
1.08695
0.795829
0.891737
0.892975
1.22432
1.02013
0.886601
1.13169
0.913004
1.05141
0.935473
1.02889
0.914842
0.815781
1.07344
1.07462
0.886302
0.88546
0.900933
0.866306
0.892288
0.893393
1.07338
1.02409
0.906331
0.863789
0.86312
0.799825
0.935843
1.12943
0.874621
0.935961
0.897799
0.771287
0.891363
1.01259
1.59332
1.09658
1.0974
0.817804
0.879028
1.0819
0.869602
0.890117
0.979052
0.994176
0.833958
0.865246
1.04102
0.898506
1.04129
1.07793
1.08028
0.887961
1.05337
1.09125
1.09854
1.12217
0.891623
1.09347
0.881642
0.747857
0.863143
0.904386
1.13689
1.12481
0.90437
1.04336
1.10671
0.872493
1.09939
1.10902
1.07256
0.949142
1.09982
0.871759
0.907366
1.03743
1.11389
0.967995
1.08723
1.06404
0.890771
1.00035
1.03345
1.08789
1.07474
1.13922
0.88711
1.08119
1.14012
1.14835
0.81306
1.07629
1.14739
1.04943
0.969827
1.05207
1.15482
0.978743
1.06246
1.04145
0.970874
1.07512
0.836122
0.795942
1.09384
1.05974
1.06497
0.920195
1.04456
1.12345
1.01286
0.832435
0.936341
1.00796
1.06326
1.05066
1.0645
1.11857
1.08219
1.04692
1.0587
1.10386
0.859488
0.847127
1.05946
0.85703
1.05348
0.892101
0.870759
1.05343
0.977826
1.15386
0.886715
1.06222
1.05502
1.10574
1.11487
1.12198
0.987901
1.04262
1.04925
1.05007
1.11619
1.11434
1.17673
0.919833
1.11506
1.05806
0.920933
1.11557
1.04415
1.05587
1.13149
0.861841
1.00747
1.0395
1.01931
0.96579
1.04074
1.09584
1.11775
0.946114
1.03284
1.01358
1.03381
1.07128
0.803948
0.985956
1.11908
1.03261
1.05125
1.07429
1.03382
1.11146
1.08609
1.08005
0.886493
1.06853
1.10319
1.1207
1.03391
1.03523
0.821314
1.02852
1.13476
1.02966
1.00139
1.09148
1.02401
1.1349
0.925326
0.924185
0.806236
1.04371
0.820132
0.937182
1.13435
1.02533
0.916045
0.913906
1.00342
1.00532
0.790294
1.00572
1.00442
0.930814
1.00764
1.00792
1.02175
1.03197
1.01455
0.789451
0.974353
1.00724
1.01015
1.01532
1.00524
1.01895
1.00741
1.07077
0.910246
1.00685
1.0119
0.97262
0.827456
0.881248
1.00927
0.99745
0.829389
1.0028
0.959351
1.00298
0.86351
1.08867
0.966075
0.789027
0.832567
0.868588
1.00032
1.01125
0.964496
1.13234
0.961068
1.05754
1.13464
1.07329
1.11099
1.13113
1.09949
0.971011
0.964563
1.13427
0.990113
0.980902
0.991613
1.08813
0.816096
0.947603
1.006
1.00592
0.994523
0.98143
0.955943
0.933149
1.05147
0.784683
1.05773
0.976749
1.02616
0.979287
0.967952
1.08671
0.896824
1.10311
1.03682
1.09427
1.10718
1.18627
0.968412
1.01519
0.971967
1.01708
0.887875
0.946526
1.0037
0.947157
0.84881
1.04361
1.10001
0.955566
0.957039
1.10081
1.09547
1.0882
1.08234
1.08905
1.08315
1.12076
0.835865
1.08644
1.03065
1.04808
0.807805
1.05497
0.96788
0.816079
0.949817
0.786124
1.11508
0.996728
1.03044
0.790028
1.11404
0.768512
1.04649
1.17642
1.17876
1.07765
1.11956
0.838902
0.849849
0.998863
1.1302
1.12044
1.11721
0.916527
0.883216
1.03523
1.10278
1.1904
1.12993
1.12796
0.974172
1.08491
0.942706
0.94182
0.9706
0.979481
0.929631
0.933103
1.08604
0.903506
0.935753
0.972715
0.932279
1.06724
1.07588
1.13132
1.06828
0.96743
0.930303
0.973982
1.06531
1.04525
1.08803
1.09605
1.03399
1.12107
1.13896
0.995794
0.841888
1.03307
0.821529
1.08456
1.00881
1.03331
1.11065
0.909461
0.998282
1.1099
0.920034
0.933566
0.91939
1.12836
1.11211
0.815879
1.05205
1.05076
0.806093
0.74222
0.913391
0.958105
0.923942
1.11078
0.892608
0.895268
0.904832
1.12743
0.912219
1.04096
1.08692
0.916121
1.02932
0.919221
0.851859
1.13387
1.13491
0.907423
0.91166
0.930252
1.13166
0.898024
0.958077
0.90083
0.900022
0.90406
0.923074
0.901081
1.02099
1.05703
1.02246
1.05174
1.01222
0.897301
1.03982
1.17908
0.994037
0.851503
0.999037
1.11856
0.847426
0.971302
0.796421
1.09488
0.811639
0.886229
0.912779
1.09439
1.07194
0.891268
0.910939
1.0746
0.909945
0.888746
1.03911
1.05544
1.14403
0.908879
1.11253
0.791433
0.865109
0.913577
0.76058
1.06285
1.11303
1.07066
0.989525
0.888197
1.07578
0.983967
0.972289
0.984598
0.9926
0.977331
0.977255
0.822915
0.912722
0.958398
0.99424
1.02454
0.875513
0.882632
1.06721
0.88388
1.12918
0.881783
1.07592
0.876547
0.814411
1.06208
0.943211
1.08759
1.04357
0.971287
0.91463
1.14053
1.10621
0.973339
1.02153
1.22994
0.960798
1.1159
0.854654
1.08748
0.870012
1.07836
0.964871
0.869815
1.1221
1.02094
0.96646
0.932481
1.12946
0.954763
0.857663
0.8501
1.0668
1.16347
0.954254
1.00946
1.07087
1.00855
0.876818
1.02257
1.0318
1.01228
0.957293
0.828789
1.08716
0.981562
1.12038
1.07828
0.999992
1.03964
1.11777
1.01023
1.01816
0.84445
0.75829
0.750227
0.966103
0.856874
0.854923
0.853109
0.969248
1.06201
1.04366
0.842736
0.885148
1.01979
0.945453
0.964892
0.7609
0.866328
1.00584
1.11407
0.980773
1.12283
0.827055
1.0559
1.11983
0.817874
1.11779
0.841262
0.844551
0.977767
0.83497
1.12049
1.12082
0.988128
0.987697
0.756254
0.88959
1.12174
1.12877
0.891396
0.960962
0.816361
1.13932
1.07238
0.911276
0.831985
0.839025
1.08375
0.867889
0.964461
0.928607
0.821321
1.14075
0.969938
0.837983
0.96247
0.996973
0.889827
1.00755
1.17695
0.924324
0.877824
0.936984
0.8724
0.936797
0.927398
0.976617
0.725007
0.896564
1.13069
1.06661
1.11481
1.07367
0.868361
0.875027
0.890522
0.876487
1.08346
0.914887
1.11352
1.11542
0.888152
0.907588
1.01809
0.878144
0.909168
1.01932
0.977881
0.991908
0.907461
0.995226
1.0044
1.02695
1.12542
0.809688
1.13874
0.924193
0.953836
0.993864
1.12254
0.907568
0.881203
0.999969
1.08922
0.871523
0.90155
1.08765
1.08028
1.10302
0.901509
1.08126
0.893875
0.922946
0.937706
0.813345
1.03122
0.895901
1.06613
1.18312
0.937795
0.817601
1.17531
0.796491
0.95467
1.07014
0.872286
0.878312
1.16531
1.11817
1.00421
0.932229
0.96229
0.914887
0.913977
1.11769
0.850953
1.03256
1.09946
0.884755
1.3712
1.36084
0.994427
0.866869
0.96147
0.883938
1.10657
0.959104
0.985716
0.854014
1.02689
0.847408
1.05724
0.92699
1.03447
1.05654
1.04135
0.826372
0.952895
0.946561
0.853459
1.03549
1.0463
0.942752
0.830878
0.812541
0.987464
0.872145
0.942927
0.83772
1.05078
1.01349
1.03773
0.873602
1.0796
1.03085
1.03399
0.897033
1.04792
0.762722
1.04154
1.08093
1.13708
1.05187
1.06053
1.1347
1.03449
1.02757
1.05777
1.03254
1.01721
1.08416
0.973745
1.09237
1.08401
0.935797
0.937978
1.00215
1.06557
1.06187
1.01248
0.785808
0.858595
1.04798
1.01894
1.01401
0.933078
0.987842
0.995454
1.14603
1.0664
1.12955
1.08949
0.908528
0.860173
1.00474
1.0429
0.908874
0.842339
0.855398
1.01161
0.847571
0.919745
0.983606
0.924297
1.00292
0.872874
1.0071
0.872551
1.09482
1.09724
0.895133
0.996304
1.12894
1.1016
0.963848
0.907295
0.853998
0.91808
0.985568
0.992498
1.09574
0.847985
1.12949
0.947411
1.05007
1.04873
0.906139
0.809306
0.848829
0.880048
0.986936
0.885972
0.991683
0.840091
1.12944
0.902197
0.888457
0.834781
0.969107
1.0775
0.941551
1.12791
1.08051
0.983397
0.98122
0.913772
0.95284
1.12239
0.907996
0.797408
0.981186
1.08381
0.913767
0.972113
1.10426
0.981162
0.889299
0.798467
0.969565
0.988872
0.909498
0.951953
0.959735
0.950687
0.936763
1.04043
0.923796
0.890733
0.962215
0.951449
1.04177
0.90523
0.962427
0.889094
0.914328
0.954135
0.893781
1.03959
1.02493
0.95822
1.03594
1.05269
1.0132
1.14111
1.03668
1.11777
0.986481
1.03487
1.01752
1.12963
1.02997
0.930512
1.03735
0.914513
1.05351
1.03151
1.08504
1.02032
1.02817
1.10285
0.956369
0.975122
0.91127
0.909184
1.13799
0.939596
0.932046
0.980727
0.837985
1.03455
0.935993
0.959469
0.902928
1.0257
0.94211
0.918386
0.96537
1.08587
0.941626
0.930776
1.02661
0.914112
0.890793
0.915687
1.00429
0.943412
1.11039
0.932573
0.972905
0.916367
1.01876
0.919972
0.934061
1.02556
1.20327
1.0305
1.10248
1.13057
1.02037
0.919355
0.940162
0.921386
1.01374
0.918626
0.952812
1.01467
1.09838
1.125
1.02257
0.897849
0.858846
1.01583
0.976305
1.0964
0.994133
0.914741
0.866408
0.9066
1.11214
0.974716
0.924391
0.987198
0.907529
0.898538
0.908091
1.00717
1.0987
1.01412
0.956987
1.00853
0.891596
1.09124
1.08538
1.10875
0.913988
1.13013
1.12985
0.918949
0.829279
0.991846
0.889736
1.03993
1.09371
1.08918
1.07374
0.936868
1.09142
0.864435
1.08282
0.856457
0.89005
1.04669
0.74423
0.890342
0.823646
1.0011
0.778362
0.871871
1.01105
0.814489
0.878266
1.00294
0.996052
1.09435
0.985902
0.886017
1.1147
1.12873
0.965927
1.10597
0.977057
0.999996
0.990479
0.885007
0.879325
0.97494
0.963471
1.00198
0.78418
1.08698
1.04357
0.939407
1.06533
0.926929
1.00379
1.03747
1.0552
0.862275
1.10393
0.987484
0.870639
0.929518
0.951365
1.01047
1.00574
1.06602
0.999558
1.07601
0.972747
1.00875
0.870624
0.975394
0.884457
0.867008
0.914397
1.10293
1.0002
0.910722
1.03679
0.869626
0.949437
0.921825
0.932858
1.00474
0.817732
0.972819
0.953421
0.756367
0.999991
1.00958
0.980243
0.876457
0.989553
0.888221
0.993488
1.1313
0.861955
0.837105
1.07459
1.14338
1.06083
1.07336
0.994934
1.05155
0.853215
1.04313
0.872521
1.1894
0.861821
1.03741
1.00318
0.942338
0.839006
0.969778
0.968435
0.991644
0.861637
1.08374
1.05741
0.90518
1.02762
1.04484
1.06827
0.908132
1.00836
0.854805
0.98749
0.870951
0.994584
1.11572
0.842144
0.954341
0.832706
1.01448
1.02411
0.871191
1.05463
0.820855
0.86384
1.1196
0.989088
0.904261
1.01938
1.04723
1.02188
0.82184
0.849118
0.990936
1.06539
1.00879
1.03551
1.02493
1.12918
0.875484
0.994174
1.0308
0.968681
1.12832
1.10214
0.892256
0.818376
0.847387
0.749038
0.970406
1.04999
0.978714
1.07756
1.04085
0.813039
0.81141
1.03916
1.03813
1.13558
0.761312
0.981249
1.0377
0.848077
0.927977
1.05109
0.890248
1.07348
0.880725
1.06792
0.996284
1.13066
0.914843
1.01844
0.857202
0.82022
1.04034
1.051
1.12497
0.850992
0.852854
1.00001
0.852483
0.837066
0.97824
0.79233
1.04586
1.03866
1.05191
0.823059
0.982744
0.952157
0.97569
0.948817
0.959856
1.04467
1.01962
1.0409
1.02733
0.82457
0.760768
0.961046
0.76164
0.961243
1.07823
0.85333
1.08248
0.866251
0.962531
1.12938
1.12917
0.859955
1.0376
1.12247
0.912179
0.981586
1.12316
0.875441
1.09585
0.752743
1.02231
1.03485
0.794557
0.953065
0.757309
0.848121
0.951215
0.847135
0.909848
0.910958
1.08746
0.942911
1.177
0.9409
0.988566
1.04288
0.925872
1.04495
1.0471
0.9436
1.04758
1.08668
1.03848
0.748767
0.944984
1.00604
1.05172
0.881719
0.915034
0.942974
0.935374
0.968841
1.00634
1.03562
1.12817
0.795237
1.12185
1.03615
0.751221
1.10098
0.937975
0.938977
1.04734
1.02605
0.915819
0.938211
0.938097
0.877129
1.12592
0.846078
0.845359
1.00127
1.059
1.12487
0.939973
1.01094
0.95969
1.05799
1.13258
1.00191
0.939276
0.911938
0.830263
1.06287
1.13214
1.07418
1.05994
0.928526
1.07107
1.02556
1.06685
0.932034
1.13986
0.832686
0.960144
1.00871
0.931084
0.898371
0.96503
0.958736
1.07355
0.927681
1.05557
1.02206
1.14001
1.10381
1.14298
0.828447
0.9111
1.12936
0.828764
0.947481
1.07394
0.976437
0.914459
0.982102
0.862499
0.91962
0.961224
0.827304
0.913554
1.01699
0.834879
0.901128
1.08216
1.00911
0.899712
0.94633
0.914744
1.00276
0.996551
1.07493
0.833238
1.08563
1.08102
1.12177
0.865177
0.989032
0.92472
1.11634
1.08282
0.844139
1.09958
1.07725
1.07949
0.917781
0.95986
1.12004
0.912842
0.913842
0.842476
0.985179
0.846265
0.947464
0.894574
1.04726
0.91215
1.07528
1.14278
0.881887
0.91096
0.845396
0.985935
0.902315
1.14391
0.925963
0.962685
0.912557
1.08939
0.851331
1.01616
1.09192
0.913776
1.07246
0.942784
0.856118
0.983805
1.25184
0.940103
1.12092
0.911912
0.991528
1.068
1.04533
1.12973
1.07681
1.00401
0.853972
0.909417
1.00316
0.912691
0.852645
0.958139
0.973475
0.910002
1.10644
1.1113
1.13199
0.756716
0.850122
0.884623
0.887034
0.825238
1.06941
1.12766
1.094
0.971014
1.12735
1.06836
0.858767
0.82414
0.899877
1.09679
0.862734
0.860147
0.87969
0.879514
1.00071
0.844885
1.12413
0.859507
0.887144
0.879692
0.845828
0.827129
0.872394
0.907893
1.1278
0.898552
1.10882
1.06342
1.1285
0.85123
0.91481
0.953655
0.882806
1.1222
0.851182
1.1642
1.12801
0.880176
1.12987
1.06834
1.01578
0.880557
1.18116
0.958241
0.851495
0.872267
1.05925
1.12261
1.09079
1.14088
0.888702
1.05682
1.05119
0.863613
0.950927
0.951307
0.865579
1.09763
0.893875
1.08764
1.04323
1.12648
0.894837
0.870962
0.865983
1.03787
0.983907
0.885859
0.963302
1.14216
1.14253
1.08803
1.04011
1.0333
0.82142
0.901619
1.04453
1.12773
1.13651
1.12754
1.13041
0.838713
1.12901
0.893877
0.90616
1.02752
1.0232
0.903626
1.03902
0.835369
0.743143
1.07098
0.84588
0.995973
1.13254
1.053
1.02102
1.03999
1.13341
1.0226
1.03454
1.08154
1.05518
0.889101
0.917503
1.06363
1.03719
1.12974
1.02843
0.820529
1.02133
1.01677
1.04991
0.915002
1.13983
0.896782
1.12919
0.928293
1.01073
0.894033
1.13568
0.805854
1.02414
1.13101
1.00139
0.747909
1.02229
1.09583
1.14053
0.925869
1.12752
0.934621
0.838165
0.923936
0.759488
1.01726
1.01318
1.14063
0.936327
0.858326
1.0744
0.890628
1.00378
0.953177
0.916663
0.909827
0.918477
1.0006
1.01287
0.911768
0.906868
1.12974
1.12805
0.801272
1.04259
0.881525
0.993263
0.927354
1.00301
1.00516
1.04497
0.924819
1.12754
0.86065
0.941015
1.00022
1.04437
0.916344
0.851796
0.826773
1.04322
1.00367
0.938352
0.940721
0.91214
1.04977
1.04047
0.815007
0.842751
0.99656
0.855143
0.805992
1.12989
0.894092
1.09804
1.12841
0.972242
0.953769
1.00139
0.831579
1.10928
1.13898
0.840418
0.98418
1.18216
0.990805
1.09942
0.951353
0.886435
1.12828
1.15885
1.09794
0.953121
1.08323
0.90007
0.834539
1.1289
0.998344
0.968478
0.947942
1.12902
0.751693
1.18788
0.972901
0.923856
1.23347
0.954933
0.923404
1.00465
0.951767
0.878606
0.850646
1.05635
0.983059
0.992338
0.940572
0.951382
0.950839
1.01916
0.881623
1.00883
0.850315
1.17551
1.03183
1.10633
1.11857
0.817519
0.96564
0.962886
0.999414
0.893962
0.831024
1.16885
0.951282
0.994957
0.905377
0.909193
0.873963
0.984256
0.942375
0.832791
1.12773
0.867166
0.960495
1.10205
1.13779
1.12785
0.966168
0.8348
0.971656
0.872049
0.910783
1.1763
0.965687
0.975971
0.937507
0.97016
0.866556
1.13076
1.12041
1.01722
0.964577
0.962168
0.853476
0.937376
1.09647
1.12758
0.862825
0.965434
0.989992
0.973446
0.949617
0.911012
0.909791
0.910897
1.17107
0.961766
0.908554
1.07174
1.08963
0.931465
0.976034
1.05393
1.1293
0.977715
1.14476
1.05931
0.858008
0.855039
1.07278
0.949124
0.963054
0.865338
0.927232
0.950304
1.04582
1.14439
0.961148
0.915448
1.0124
0.972648
0.976957
1.13012
0.950714
0.977978
0.941461
0.914705
0.887578
1.13099
1.08461
0.948371
1.151
1.09911
1.03967
0.825467
0.924874
1.06019
0.861233
0.951989
0.942374
0.844144
1.04755
1.07368
0.899454
0.985444
1.02718
1.07255
1.00376
0.951995
0.939163
0.938616
1.03051
0.932538
1.09618
0.988639
1.08642
0.991435
0.957232
0.987245
1.1296
0.979771
0.943376
0.949226
0.93659
1.09187
0.986004
0.749516
1.10942
1.15479
0.936714
0.925507
0.96267
1.12783
1.09838
0.888742
1.12795
0.93833
0.990108
0.928507
1.12732
1.1301
0.961425
0.925862
1.12802
0.989311
1.12766
0.908938
0.988898
0.814968
1.12785
0.931247
1.12982
0.916931
0.974922
1.11787
0.958471
1.00142
0.907027
0.899766
1.08131
1.07349
1.07242
0.97278
0.999274
0.879352
0.924546
0.976271
0.897008
1.00093
1.12327
0.826202
1.0336
1.11943
1.12931
0.955283
1.00025
0.829932
1.12917
0.969696
1.03422
1.07861
0.892327
0.839008
1.04576
0.839553
1.00242
1.12856
0.894539
1.00048
0.995298
0.879839
0.908451
0.96357
0.918776
0.923641
0.906857
0.976492
1.11164
1.1542
1.00085
0.765921
0.876601
1.07621
1.00461
0.907593
0.750571
0.833604
1.09208
0.896414
1.00483
0.92546
0.975598
1.02623
1.09406
1.01184
0.868885
0.980374
1.01326
0.876247
1.06946
1.13128
1.00151
0.861901
0.926635
1.12946
1.11981
1.12467
1.1285
0.929764
1.01188
1.04865
0.874102
1.06411
0.977885
1.09919
0.874166
0.979017
1.01117
0.841439
1.08329
0.86081
0.931533
0.874485
0.937366
1.05516
1.06741
0.988148
1.1277
1.01485
0.938923
0.913954
1.06603
1.17286
0.859162
0.970808
0.853524
1.04528
0.987498
1.01124
1.01284
1.10684
0.96662
0.94002
1.17383
0.972605
0.868746
0.846547
0.824792
0.926422
1.12755
0.767183
1.07577
1.01858
0.916009
1.04733
1.06721
0.986772
0.972212
0.980343
0.941106
0.750107
1.04813
1.13035
0.918434
0.926232
0.999009
0.857835
1.09187
1.02896
1.01522
0.988721
1.02299
1.12793
0.997292
1.10654
1.02293
1.14286
1.12754
1.00839
1.10923
1.02244
0.917653
1.12787
1.14384
1.00455
0.999916
0.87107
1.09766
0.916064
1.09043
0.974743
1.03205
1.1301
1.02227
1.1051
1.09747
0.94176
1.00198
0.929768
0.997625
1.12841
0.93829
0.943414
1.20218
1.05557
0.961292
1.12816
0.886833
1.03928
1.03423
0.892832
1.12763
1.13129
0.778544
0.911676
1.13099
1.02738
0.984396
1.01062
0.940931
1.03022
0.749339
1.03449
0.902554
0.927396
0.869439
0.815685
0.818103
1.027
1.00953
0.866002
0.930653
0.876376
1.11441
1.06775
1.02812
0.923716
1.0861
1.10971
0.838185
1.1893
1.03996
0.954887
1.04595
1.08287
1.01834
1.0367
0.95765
0.937374
1.05503
1.09703
1.03403
0.953038
1.11911
0.718235
1.01636
0.96298
0.980371
0.921716
0.955101
0.847991
0.755496
0.755354
1.03827
0.761464
1.0331
1.04311
1.10895
0.95536
1.12797
0.973558
0.802894
1.09014
1.08021
1.12857
0.990437
1.10299
0.762008
0.976572
1.0236
1
0.756053
1.0737
1.03557
0.835625
1.06569
1.00222
0.929087
1.04645
1.07276
1.06966
1.08519
1.01748
0.968003
1.02182
0.979955
0.987901
0.938031
1.04518
0.849202
1.08333
0.951654
1.0922
0.926402
0.986444
0.989624
1.07083
1.1307
0.751823
1.12822
0.938114
0.848873
1.01342
0.87405
0.850623
0.902345
0.9577
1.07354
1.04445
1.12938
1.07925
0.969102
1.03093
0.84381
1.06839
0.915703
0.936273
0.980675
1.15037
0.911437
1.0153
0.912739
1.12983
0.804773
1.02954
0.939002
0.85792
0.976634
0.837849
0.931567
0.856327
1.12936
1.0427
0.981024
0.963307
1.05288
0.967239
0.909989
0.828661
0.819261
1.1214
1.00758
0.957664
0.955516
1.0539
0.941023
1.12923
1.12903
0.939013
1.12029
1.12904
0.969971
1.01485
0.784903
0.933751
0.966497
0.967295
0.956828
1.03646
1.12815
1.12931
0.946904
0.844615
0.856978
0.837967
0.970982
1.12792
0.972474
0.753671
0.847523
0.969694
0.84136
0.746168
1.12929
1.01272
0.968248
0.961417
1.03436
0.826162
1.12929
1.12889
1.1211
0.964224
1.05369
0.965829
0.980769
0.962754
0.835914
1.24207
1.12888
0.863284
0.849407
1.05082
1.1287
0.846084
0.867784
0.998911
1.08943
0.837004
0.996758
0.981475
0.919575
0.797625
0.966563
1.03382
1.12789
1.01399
0.965163
1.05346
0.944195
0.844774
1.0005
0.750194
0.855864
0.961929
0.914817
0.966504
0.877873
1.05311
0.986123
1.13044
1.12579
1.13046
1.05205
0.983452
0.752717
1.05494
0.842328
1.04253
1.04308
1.12927
1.03157
0.925193
1.09279
0.92295
0.966823
0.880948
1.02042
0.979442
1.06984
1.00163
1.04159
0.961278
0.975989
0.786373
0.919709
1.13248
0.980145
0.885117
0.89537
0.912719
0.941803
1.07115
0.755603
0.988358
0.805253
1.05809
0.917451
0.992503
1.13249
0.979148
1.00291
0.980574
0.977513
0.925685
0.865745
0.924621
1.00343
0.981611
1.05715
0.868705
0.898832
1.01199
0.904274
0.805374
1.13173
0.990931
0.911541
1.06302
0.950958
1.13106
0.824891
0.835276
1.05645
0.97786
0.979704
1.13014
0.914605
1.12952
0.895221
1.01731
0.897483
0.999469
1.0552
0.755293
1.13824
0.913318
1.16535
0.944403
1.06475
0.952594
1.04667
0.983127
0.989477
0.86192
0.867815
0.880124
0.858583
1.03109
1.09818
0.909556
1.06316
0.830122
0.99004
0.992403
0.938941
1.07549
0.736687
1.05176
0.912902
1.05844
0.99179
1.04978
0.916937
0.967678
0.898882
1.06224
0.930261
1.132
0.913884
1.13325
1.05071
0.977685
0.823734
1.22538
0.993426
0.988165
1.04747
1.05877
1.03671
1.15918
1.03979
0.959568
0.790473
0.928458
0.838693
0.965329
1.07814
1.06287
1.11771
0.937781
0.91103
1.03065
0.914153
1.04626
0.927423
0.836047
1.04082
0.992554
1.06277
0.974313
0.836758
1.05239
1.06112
0.84229
0.79083
0.731371
0.965104
0.93743
1.05018
1.06372
0.794054
1.03926
1.03001
0.943998
1.01926
0.94385
0.926925
0.731443
1.0987
1.02406
1.04389
1.07842
1.04106
0.826078
1.09059
0.992602
1.14951
0.93829
1.05108
1.01449
0.910017
1.00594
1.02997
1.00402
1.01282
0.93995
0.910497
0.96131
0.961374
1.06059
0.887711
0.963513
0.964509
1.03875
0.977405
0.950307
0.976545
1.08563
0.942412
0.950804
0.939407
1.06241
0.92583
0.971373
0.955824
1.05939
0.856269
0.998944
0.758283
0.979722
0.948261
1.06395
0.980932
0.990064
1.13039
0.999813
0.855514
0.9104
0.780446
0.961381
1.04271
0.751198
1.01881
0.982697
0.969187
0.922824
0.999605
1.01046
0.967808
0.966339
1.12911
1.09975
1.02875
1.07203
1.00736
0.911339
0.986497
1.01272
1.13275
1.04453
0.955462
1.03671
0.963291
1.06317
0.960022
0.974946
0.986412
0.951822
1.12801
0.94577
0.974816
0.966652
1.10511