/*--------------------------------*- C++ -*----------------------------------*\
  =========                 |
  \\      /  F ield         | OpenFOAM: The Open Source CFD Toolbox
   \\    /   O peration     | Website:  https://openfoam.org
    \\  /    A nd           | Version:  12
     \\/     M anipulation  |
\*---------------------------------------------------------------------------*/
FoamFile
{
    format      ascii;
    class       volVectorField;
    location    "5.725";
    object      U;
}
// * * * * * * * * * * * * * * * * * * * * * * * * * * * * * * * * * * * * * //

dimensions      [0 1 -1 0 0 0 0];

internalField   nonuniform List<vector> 
46253
(
(0.94357 -0.00477172 0)
(0.885578 0.000459597 0)
(0.783596 0.0014692 0)
(0.885994 0.000544498 0)
(0.787967 0.0022491 0)
(0.793348 0.000896873 0)
(0.985836 -0.0100016 0)
(0.973779 0.0113556 0)
(0.888224 0.000844236 0)
(0.888775 0.00107452 0)
(0.945624 -0.00351409 0)
(1.12027 -0.0714609 0)
(0.904621 0.000574754 0)
(0.903838 0.000438349 0)
(0.915958 0.00917504 0)
(0.89073 0.000601167 0)
(0.891502 0.000734084 0)
(0.899099 0.000648406 0)
(0.898466 0.00053988 0)
(0.893936 0.00050182 0)
(0.894147 0.000810845 0)
(0.792934 0.00307376 0)
(0.924666 -0.0124441 0)
(0.93312 -0.00805653 0)
(0.993454 -0.0299457 0)
(0.887164 0.000728402 0)
(0.89285 0.000370763 0)
(0.893278 0.000460025 0)
(0.886853 0.000537929 0)
(0.9748 0.0136886 0)
(0.94043 0.0425232 0)
(0.91019 0.000684552 0)
(0.910699 0.000545581 0)
(0.895518 0.000748496 0)
(0.896342 0.00103932 0)
(0.836257 -0.00757999 0)
(0.901569 0.000653596 0)
(0.902011 0.000740827 0)
(0.85859 -0.0333465 0)
(0.937436 -0.0314956 0)
(0.676537 -0.015033 0)
(1.11855 -0.0712248 0)
(0.907965 0.000453389 0)
(0.90844 0.000520871 0)
(1.15101 -0.0965817 0)
(0.900298 0.000462951 0)
(0.900545 0.000531679 0)
(0.910328 0.00450306 0)
(0.914103 0.000509917 0)
(0.914521 0.000508293 0)
(0.916509 0.000867857 0)
(0.917306 0.000734967 0)
(0.804987 0.00181359 0)
(0.971111 0.0129782 0)
(0.77097 0.0110261 0)
(1.07197 -0.0356343 0)
(0.920916 0.000207121 0)
(0.921127 0.000230343 0)
(0.871085 0.0632596 0)
(0.760236 -0.00529295 0)
(0.850821 0.00487073 0)
(1.05607 0.0126804 0)
(0.840866 -0.0122861 0)
(0.935344 0.0161602 0)
(0.916755 -0.0205286 0)
(0.90608 0.000457521 0)
(0.906614 0.000554468 0)
(0.799158 0.0009012 0)
(1.06901 -0.0363787 0)
(1.14916 -0.0954982 0)
(0.996718 -0.00783324 0)
(0.922191 0.00058324 0)
(0.922461 0.000703838 0)
(0.850875 -0.0156276 0)
(0.804062 0.00206541 0)
(0.93611 -0.00870476 0)
(0.935415 0.000317121 0)
(0.93635 0.000135565 0)
(0.933354 -0.0211681 0)
(0.912127 0.000393322 0)
(0.912568 0.000500375 0)
(0.928303 0.000514978 0)
(0.801987 0.00255259 0)
(0.928774 0.000396502 0)
(0.83295 -0.0330249 0)
(0.811489 0.00143338 0)
(0.949567 0.000271305 0)
(0.950526 0.000347498 0)
(1.01521 0.00417156 0)
(0.863494 -0.00253253 0)
(0.916592 -0.0108683 0)
(0.702996 0.00899983 0)
(0.813679 0.00136764 0)
(0.918934 0.000386807 0)
(0.935883 -0.0221622 0)
(0.919662 0.000451152 0)
(0.811257 0.00162286 0)
(0.927683 -0.0126182 0)
(0.871402 0.0626253 0)
(0.864453 0.00427366 0)
(0.949268 -0.00651167 0)
(0.812869 0.00169489 0)
(0.8125 0.000532623 0)
(0.940525 0.0412492 0)
(0.775739 0.00620985 0)
(0.821238 -0.0430773 0)
(1.11678 -0.0682275 0)
(0.966598 -4.3794e-05 0)
(0.967444 -0.000134906 0)
(1.11715 -0.0590267 0)
(0.858282 -0.00344947 0)
(0.924582 0.000372059 0)
(0.926146 0.000362432 0)
(0.921564 0.0181384 0)
(0.93003 0.0142399 0)
(1.01045 0.00914359 0)
(1.15064 -0.09094 0)
(0.996305 0.0311842 0)
(0.767312 0.0624925 0)
(1.08394 -0.0333663 0)
(0.940671 0.0156934 0)
(0.79537 0.00131043 0)
(0.930073 -5.21081e-05 0)
(0.929955 3.35111e-06 0)
(0.823226 0.000308673 0)
(0.759597 0.0577106 0)
(0.846737 0.00218135 0)
(1.07737 -0.0456588 0)
(0.758628 0.00989839 0)
(0.938851 4.74465e-05 0)
(0.979273 5.63894e-05 0)
(0.979926 2.49274e-05 0)
(0.793116 0.00275538 0)
(0.997963 -0.0176779 0)
(0.938935 0.000275727 0)
(0.968664 -0.00780115 0)
(0.942863 4.40594e-05 0)
(0.944532 0.000162681 0)
(1.08787 -0.035363 0)
(0.947177 -0.00554625 0)
(0.932768 0.000103445 0)
(0.985529 -0.000789537 0)
(0.988518 -0.000460862 0)
(0.946751 0.0385349 0)
(0.932121 0.000216201 0)
(0.766208 0.00837153 0)
(0.947983 -0.000126649 0)
(0.947888 -6.33784e-05 0)
(0.85313 -0.0205684 0)
(0.859148 -0.00227251 0)
(1.11808 -0.0577638 0)
(0.809305 0.000565723 0)
(0.93974 0.0001831 0)
(0.940352 0.000474376 0)
(0.970325 0.0297636 0)
(1.14882 -0.0952918 0)
(1.09346 -0.0481209 0)
(0.831749 -0.0016326 0)
(0.954782 -0.000193768 0)
(0.773842 0.00840275 0)
(0.955182 -0.000465285 0)
(1.12121 -0.0676774 0)
(1.07442 -0.0384078 0)
(0.955216 0.0216035 0)
(0.934578 -0.0344142 0)
(0.946575 0.000179373 0)
(1.00083 -0.0129704 0)
(0.946933 0.000120064 0)
(0.702266 0.041032 0)
(0.830196 -0.00210328 0)
(0.959374 -2.09317e-05 0)
(0.96021 4.4405e-05 0)
(0.795416 0.00320836 0)
(1.0227 -0.0596883 0)
(0.778634 0.00463504 0)
(1.16481 -0.111014 0)
(1.03626 -0.00916047 0)
(0.803642 0.00249565 0)
(1.0291 -0.0342597 0)
(1.14987 -0.089653 0)
(0.780648 0.00233497 0)
(0.967377 0.0293317 0)
(0.964168 -0.000125431 0)
(0.964874 -0.000273966 0)
(0.847222 0.000561873 0)
(0.952894 0.000402739 0)
(0.953627 0.000504965 0)
(1.15219 -0.0979288 0)
(0.84764 0.00041989 0)
(0.848171 0.000511943 0)
(0.805836 0.00203614 0)
(0.85302 -0.000229211 0)
(1.1234 0.0123278 0)
(0.85416 -8.82287e-05 0)
(0.846191 2.82173e-05 0)
(0.846066 -6.0677e-05 0)
(0.855757 -0.0222064 0)
(0.821722 0.000326059 0)
(1.02756 -0.0019811 0)
(1.0285 -0.00168156 0)
(0.929856 -0.015807 0)
(0.823238 -0.00230228 0)
(0.95652 -0.000306104 0)
(0.957348 -1.07021e-05 0)
(0.852441 -0.00140944 0)
(1.15042 -0.0933226 0)
(0.969186 0.0282113 0)
(0.97145 -0.000195437 0)
(0.972026 -0.000409351 0)
(0.822373 -0.00297695 0)
(0.92829 -0.0235732 0)
(0.76758 0.068728 0)
(0.766384 -0.0372271 0)
(0.811733 0.00123312 0)
(1.04541 0.00727425 0)
(0.81966 0.000577164 0)
(0.952592 0.0383772 0)
(0.769401 -0.00217333 0)
(0.976728 -0.00036318 0)
(0.79782 0.00136745 0)
(0.801532 0.00117883 0)
(0.977545 -0.000407637 0)
(1.16811 -0.0947386 0)
(0.962017 0.000170256 0)
(0.962542 0.000132546 0)
(0.728653 -0.0320295 0)
(0.809903 0.00140794 0)
(0.811157 0.00164742 0)
(1.04163 -0.00140634 0)
(1.04272 -0.00111814 0)
(0.900104 0.0563348 0)
(0.943052 0.0448864 0)
(0.875066 0.00267034 0)
(0.862751 0.00229246 0)
(0.821737 0.000625746 0)
(0.927982 -0.0164943 0)
(0.84164 -0.000567951 0)
(0.924785 -0.02713 0)
(0.904363 0.0553738 0)
(0.891897 0.0579845 0)
(0.81688 0.00154864 0)
(0.812245 0.00157707 0)
(0.818756 0.00117958 0)
(0.841549 -0.000470242 0)
(0.960679 0.0148473 0)
(0.806843 0.00183212 0)
(0.828838 -0.00261434 0)
(0.971506 0.0268721 0)
(0.823233 0.000230824 0)
(0.981879 -0.000317951 0)
(0.982645 -0.000754106 0)
(0.891283 0.057312 0)
(1.05518 -0.00169706 0)
(0.82165 0.00049484 0)
(1.051 -0.00158918 0)
(0.969221 -0.000159247 0)
(0.970049 2.27763e-05 0)
(1.05932 -0.0271573 0)
(0.863093 -0.0134148 0)
(0.830616 0.000128699 0)
(1.02026 0.00272325 0)
(0.698295 -0.0351269 0)
(1.10993 -0.0608805 0)
(0.942961 0.0400071 0)
(1.05889 0.0154186 0)
(0.835557 -0.000774249 0)
(0.932602 0.0117838 0)
(0.917672 0.0176985 0)
(0.973805 -0.000413969 0)
(0.99299 -0.000704247 0)
(0.974392 -5.62898e-05 0)
(0.816007 0.0010914 0)
(0.900896 0.0118889 0)
(0.160335 0.0277906 0)
(0.991014 -0.000717024 0)
(0.814905 0.00176481 0)
(0.766656 0.0116406 0)
(0.822714 -0.000951391 0)
(0.962183 0.0106681 0)
(1.05149 -0.019193 0)
(1.05895 -0.00409552 0)
(1.06127 -0.0033086 0)
(0.809273 0.00100182 0)
(0.814525 0.000759902 0)
(0.92179 -0.0209841 0)
(1.16985 0.00408572 0)
(0.742958 -0.00336805 0)
(1.07754 -0.0309798 0)
(0.954716 0.036058 0)
(0.825139 -0.00615453 0)
(0.87411 0.0617822 0)
(0.873963 0.0612966 0)
(0.892948 -0.0244941 0)
(0.814895 0.00637542 0)
(0.877692 0.0610594 0)
(0.921601 0.0491025 0)
(0.808099 0.00180168 0)
(0.924139 0.0494384 0)
(0.700983 -0.0384961 0)
(0.992063 -0.00024862 0)
(0.778623 0.0711089 0)
(0.995787 -0.000890869 0)
(1.07325 -0.0464836 0)
(0.771012 0.0531114 0)
(0.851435 -0.000577446 0)
(0.980697 -0.000205794 0)
(0.980657 -0.000133067 0)
(0.824631 -0.00319621 0)
(0.943162 0.041247 0)
(0.847176 0.000500883 0)
(0.848316 0.00054861 0)
(1.15436 -0.0371692 0)
(0.934014 -0.0512006 0)
(1.00614 -0.001281 0)
(0.821518 0.000199071 0)
(1.00337 -0.00115583 0)
(1.08706 -0.0381641 0)
(0.879574 0.0602691 0)
(0.856028 -0.00149322 0)
(0.95738 0.0120883 0)
(1.11296 -0.0477357 0)
(0.824602 0.00132645 0)
(0.983016 -0.0203994 0)
(0.985533 -0.0314505 0)
(0.933269 -0.0396805 0)
(0.954243 0.0348143 0)
(0.820043 0.00189698 0)
(0.826131 0.000409698 0)
(1.00019 -0.000208557 0)
(1.0043 -0.00080714 0)
(0.923724 -0.00171342 0)
(0.925575 -0.00184459 0)
(0.850812 -0.000962629 0)
(0.984238 0.00607269 0)
(0.824347 0.00165049 0)
(0.8938 0.0246805 0)
(1.06048 -0.027964 0)
(0.991277 -0.000184957 0)
(0.992787 0.000499765 0)
(0.838405 -0.000169375 0)
(0.807289 0.000902183 0)
(0.809034 0.000810796 0)
(0.939242 0.0186392 0)
(0.763884 0.0395908 0)
(0.813439 0.000946274 0)
(1.01571 -0.000970915 0)
(1.01429 -0.00109092 0)
(0.927118 -0.050183 0)
(1.07287 -0.0342275 0)
(0.803954 0.00247528 0)
(0.957196 -0.0105484 0)
(0.859583 -0.000151845 0)
(1.15301 -0.0924392 0)
(0.921424 0.0304751 0)
(1.12059 -0.0657731 0)
(0.8179 0.00319503 0)
(0.989722 -0.000995942 0)
(0.833057 -0.00512917 0)
(0.989156 -0.000987014 0)
(0.868822 -0.0028952 0)
(1.12017 -0.0655263 0)
(0.856482 -0.000436241 0)
(0.814593 0.00339862 0)
(0.856351 -0.000278879 0)
(0.847128 0.000406274 0)
(0.813557 0.00351794 0)
(0.813364 0.00336692 0)
(0.813621 0.00355611 0)
(1.01312 -0.000575862 0)
(0.81536 0.00283188 0)
(0.822411 0.0034974 0)
(0.82178 0.0033396 0)
(0.822384 0.00356835 0)
(1.01465 -0.00118665 0)
(0.813668 0.00298125 0)
(0.886925 0.060299 0)
(1.08989 -0.0361148 0)
(0.81847 0.000683574 0)
(0.813542 0.0026875 0)
(0.8116 -0.00448882 0)
(0.771551 0.0169409 0)
(0.954182 0.00962095 0)
(1.10111 -0.0448447 0)
(1.00293 -9.80748e-05 0)
(0.963503 0.0110028 0)
(1.00523 0.00033727 0)
(0.812843 0.00105257 0)
(0.953495 0.0286976 0)
(1.02198 -0.000953784 0)
(0.745518 0.060229 0)
(0.847254 0.000443353 0)
(0.957314 0.0367896 0)
(1.02253 -0.00075287 0)
(0.770014 0.0161431 0)
(0.809402 0.000450688 0)
(0.960704 0.0108792 0)
(0.982758 0.0238666 0)
(0.983019 0.0254235 0)
(0.822239 0.00179749 0)
(1.01875 -0.0113627 0)
(0.904705 0.0122401 0)
(0.938725 -0.00176024 0)
(0.935633 -0.00169836 0)
(0.888136 0.0588923 0)
(0.821925 0.000337913 0)
(0.838573 0.0306202 0)
(0.849997 -0.00110505 0)
(0.85408 -0.00156601 0)
(0.963422 0.0290523 0)
(0.820883 0.00099479 0)
(0.8317 0.000299048 0)
(0.846791 0.000215627 0)
(0.793251 0.0657774 0)
(0.847425 0.000519649 0)
(1.02911 -0.0116568 0)
(0.83976 0.0267122 0)
(1.11801 0.0255367 0)
(0.820129 0.0014987 0)
(0.832249 0.000676491 0)
(1.06726 -0.0292068 0)
(0.839401 0.0268257 0)
(0.822808 -0.0109423 0)
(1.02524 -0.00063256 0)
(0.861939 0.00249991 0)
(0.998785 -0.00112977 0)
(0.861936 0.00320373 0)
(0.824848 0.000559853 0)
(1.02582 -0.00116643 0)
(0.997473 -0.00115776 0)
(0.85406 -0.00052968 0)
(1.09929 -0.0218413 0)
(0.826343 -0.00162159 0)
(0.901046 -0.00453066 0)
(0.845748 -2.07312e-05 0)
(0.845267 -7.40038e-05 0)
(1.01904 -0.0217742 0)
(0.988787 0.0117855 0)
(0.848648 0.00064906 0)
(0.844106 -0.000608547 0)
(0.973225 0.00918015 0)
(1.11046 -0.0471297 0)
(0.835096 0.0262353 0)
(0.740244 -0.0079431 0)
(0.853815 -0.00063478 0)
(1.01519 -0.0205944 0)
(0.970779 0.0312535 0)
(0.852149 9.67572e-06 0)
(0.819088 0.00158164 0)
(1.06759 -0.0297109 0)
(0.834945 -0.00125827 0)
(1.05104 -0.0206599 0)
(1.0245 -0.0110568 0)
(0.957403 -0.0429889 0)
(1.10991 -0.00600906 0)
(0.417715 0.112545 0)
(0.841874 0.0324499 0)
(0.940642 -0.00850471 0)
(0.84149 0.0300601 0)
(1.01186 -0.000399711 0)
(1.02382 -0.0195919 0)
(0.814765 0.000668434 0)
(1.0174 -0.0195837 0)
(1.01608 -0.0197995 0)
(1.01414 -6.23942e-05 0)
(0.815959 0.00283168 0)
(1.0162 -0.0206849 0)
(0.805404 0.00176292 0)
(0.839053 0.00765926 0)
(0.840777 0.0276462 0)
(0.821609 0.00338374 0)
(0.838441 0.00760938 0)
(1.16345 -0.00475679 0)
(0.928699 -0.0332761 0)
(0.944874 0.00721656 0)
(1.07887 -0.0468552 0)
(1.0346 -0.000849907 0)
(1.07013 -0.0245532 0)
(0.977092 0.0263837 0)
(1.03438 -0.000925329 0)
(1.04637 0.0179221 0)
(0.944859 -0.00103462 0)
(0.944951 -0.000980719 0)
(0.832267 0.00414273 0)
(0.810204 0.00148404 0)
(0.812884 0.000922239 0)
(0.861272 0.00275529 0)
(0.753934 0.00771487 0)
(0.830991 0.000928079 0)
(1.05643 -0.0179461 0)
(0.713948 -0.0178057 0)
(1.13342 -0.0800933 0)
(1.05512 -0.0191108 0)
(1.05044 -0.0192717 0)
(1.01806 0.019217 0)
(1.0351 -0.0223159 0)
(0.492147 -0.00970355 0)
(0.817476 0.00293587 0)
(1.01226 -0.000331961 0)
(1.03215 -0.0122281 0)
(1.11041 -0.0609251 0)
(1.01156 -0.000388138 0)
(1.03753 -0.00066976 0)
(1.03892 -0.00146861 0)
(0.946244 -0.00316811 0)
(0.863415 -0.0321426 0)
(0.814139 0.00335664 0)
(0.946396 -0.00237754 0)
(0.940158 0.0406602 0)
(0.852836 -0.00325602 0)
(0.957188 -0.0225122 0)
(0.812193 0.00104612 0)
(0.680928 -0.0701729 0)
(0.837964 0.0251839 0)
(0.959258 0.0130994 0)
(1.07013 0.00887523 0)
(0.85416 0.000879712 0)
(0.846581 0.000376636 0)
(1.016 -0.0180258 0)
(0.825429 -5.41457e-05 0)
(0.952934 0.0221106 0)
(0.939455 0.0162369 0)
(0.819573 -0.058252 0)
(1.00105 -0.0139245 0)
(0.829742 0.000126344 0)
(0.82803 0.00069288 0)
(0.999955 -0.0131201 0)
(0.814269 0.00310505 0)
(1.00434 -0.0139185 0)
(1.01847 -0.00880043 0)
(1.00367 -0.0125501 0)
(0.938888 0.0364889 0)
(0.910506 -0.0230172 0)
(0.939606 -0.0138387 0)
(0.838013 -0.00121359 0)
(1.02413 -0.0186363 0)
(1.01392 -0.0130691 0)
(0.820235 0.00157386 0)
(0.83675 -0.00400817 0)
(1.01778 -0.00192118 0)
(0.835089 -0.00124056 0)
(0.974098 -0.000487545 0)
(1.07621 -0.0267529 0)
(0.835405 4.59395e-05 0)
(0.858696 -0.000208621 0)
(1.0196 -0.00145217 0)
(0.852967 0.00243338 0)
(0.861521 -0.00714821 0)
(0.846319 0.0182526 0)
(0.845567 0.0180669 0)
(1.13776 -0.0857624 0)
(0.848165 0.0194726 0)
(0.847085 0.019354 0)
(1.04378 -0.00109525 0)
(1.06034 -0.0214864 0)
(1.04392 -0.00170775 0)
(0.942507 -0.041546 0)
(0.857414 0.0218323 0)
(0.855642 0.0218594 0)
(0.859715 0.0229911 0)
(0.859659 0.0226374 0)
(0.824136 0.000402156 0)
(0.835643 0.0281794 0)
(0.848123 -0.000989 0)
(1.05022 -0.0197005 0)
(1.12581 -0.0789898 0)
(0.84905 0.000490156 0)
(0.847318 0.000102844 0)
(0.851545 -0.00469015 0)
(0.838816 0.0248093 0)
(0.847969 0.00315382 0)
(0.846854 0.00014461 0)
(1.00375 0.0091488 0)
(0.954819 0.037443 0)
(0.949984 -0.0156791 0)
(0.9548 0.0341463 0)
(0.847132 0.00111601 0)
(0.850974 0.00588571 0)
(1.07378 -0.0437754 0)
(0.834657 -0.000766423 0)
(0.847148 0.00194275 0)
(0.841025 0.0090249 0)
(1.02457 0.000129928 0)
(0.841625 0.0114068 0)
(0.846289 0.00056535 0)
(1.02481 0.000167638 0)
(0.959707 0.0335131 0)
(0.93205 0.0266529 0)
(0.814212 0.00312731 0)
(0.930022 0.0270148 0)
(0.929407 0.0267075 0)
(0.92754 0.0271141 0)
(0.907801 0.002587 0)
(0.846805 0.00110337 0)
(1.05402 -0.00148029 0)
(1.0554 -0.00137705 0)
(0.957497 0.0378739 0)
(0.930546 0.00582157 0)
(0.841279 0.00961493 0)
(0.851781 3.98659e-05 0)
(0.84791 -0.000264788 0)
(0.81189 0.00101062 0)
(0.768809 0.048541 0)
(1.14401 -0.054556 0)
(0.838778 0.0261303 0)
(0.768679 0.0559032 0)
(0.837007 0.0314516 0)
(0.822226 0.00388049 0)
(0.943873 0.0403287 0)
(0.942326 0.0424315 0)
(0.816499 0.00284728 0)
(0.8132 0.00316217 0)
(0.949693 0.00534296 0)
(1.01133 -0.0187085 0)
(0.813946 0.00263079 0)
(0.81087 0.000884546 0)
(0.988204 0.0219027 0)
(0.868095 0.0235209 0)
(0.866858 0.0234484 0)
(0.86921 0.0239097 0)
(0.86829 0.0241177 0)
(0.876994 0.0243983 0)
(0.875937 0.0244498 0)
(0.878923 0.0243246 0)
(0.877585 0.0246104 0)
(1.15456 -0.100422 0)
(1.03745 -0.0172889 0)
(0.8861 0.0248772 0)
(0.874615 0.0141233 0)
(0.885436 0.0249413 0)
(0.889505 0.0241463 0)
(0.814317 0.00275164 0)
(0.969234 0.000659752 0)
(0.970771 0.00780672 0)
(0.887522 0.024615 0)
(0.813393 0.00336627 0)
(0.895344 0.0247866 0)
(0.825533 0.000255922 0)
(0.895465 0.0248247 0)
(0.925618 0.0435967 0)
(1.01834 -0.0188439 0)
(0.900535 0.0235278 0)
(0.862903 0.00151621 0)
(0.898324 0.0239855 0)
(0.82519 0.0674455 0)
(0.820667 0.0068273 0)
(0.905085 0.0236277 0)
(0.845253 -1.61708e-05 0)
(0.905138 0.0238987 0)
(0.844918 -0.000157881 0)
(1.13876 -0.0836424 0)
(0.862672 0.0012774 0)
(1.04961 -0.0211275 0)
(0.983721 0.0066847 0)
(0.848262 0.00044989 0)
(0.84795 0.000444444 0)
(0.911589 0.022764 0)
(0.909936 0.0229668 0)
(0.817655 0.00260646 0)
(1.00531 -0.0138504 0)
(0.9157 0.0218879 0)
(0.915228 0.0223515 0)
(0.986924 0.0200958 0)
(0.826309 0.000156997 0)
(0.824267 0.000880004 0)
(0.923855 0.0209388 0)
(1.05808 1.49765e-05 0)
(0.923434 0.0212697 0)
(0.816509 0.00577618 0)
(1.03113 -0.00174552 0)
(0.930554 0.0197159 0)
(1.0974 -0.0452734 0)
(0.929329 0.0199223 0)
(1.06195 -0.000513885 0)
(1.03276 -0.000858497 0)
(0.815437 0.00473425 0)
(0.845794 0.00332043 0)
(0.844441 0.00445215 0)
(0.933897 0.0187293 0)
(0.933492 0.0190841 0)
(0.94292 0.00623675 0)
(0.815687 0.00430452 0)
(0.819031 0.00386637 0)
(0.942375 0.0176803 0)
(1.05263 -0.0165655 0)
(0.941113 0.0176653 0)
(1.11226 -0.0469212 0)
(0.813804 0.00349998 0)
(0.950117 0.0150905 0)
(0.947635 0.0156292 0)
(0.839507 0.00783869 0)
(0.836994 0.00702583 0)
(0.839139 0.00778102 0)
(1.08274 0.0524158 0)
(0.836378 0.00687814 0)
(1.01335 -0.0143765 0)
(1.00802 -0.00172629 0)
(0.93993 0.0434971 0)
(0.818094 0.00107621 0)
(0.955575 0.0129325 0)
(0.853285 0.0056091 0)
(0.954327 0.013607 0)
(0.851615 0.00700875 0)
(0.818401 0.00129693 0)
(1.02391 -0.0114673 0)
(1.02297 -0.0134025 0)
(0.964382 0.0124247 0)
(0.96431 0.0124334 0)
(1.01723 -0.0204498 0)
(1.02511 -0.0100702 0)
(0.967928 0.00916436 0)
(1.0178 -0.010033 0)
(0.965357 0.0102056 0)
(0.810522 0.00137401 0)
(0.982395 0.0247622 0)
(0.972246 0.00696632 0)
(0.972707 0.00775814 0)
(0.846799 0.000540674 0)
(1.06446 -0.0293126 0)
(0.987784 0.00674694 0)
(0.985982 0.00649194 0)
(0.698257 0.0265028 0)
(0.863528 0.00963511 0)
(0.863472 0.00972069 0)
(0.846337 0.000359802 0)
(0.981654 0.00314942 0)
(1.04913 -0.0203075 0)
(0.98131 0.0039934 0)
(0.887288 -0.0128141 0)
(0.905078 0.00193229 0)
(1.0334 -0.0179258 0)
(1.11247 -0.0576808 0)
(0.999188 0.00381438 0)
(0.998547 0.00365594 0)
(1.00532 -0.00258414 0)
(0.993428 -0.00175964 0)
(0.991393 0.000108852 0)
(1.0815 -0.0361944 0)
(1.06936 -0.0351518 0)
(0.852601 0.0211019 0)
(0.86679 -0.0162674 0)
(0.763522 0.0451517 0)
(1.06226 -0.00251988 0)
(0.851292 -0.00202226 0)
(1.08938 -0.0540112 0)
(1.05948 -0.00322623 0)
(1.08487 -0.0466643 0)
(0.921644 0.00587172 0)
(0.953807 -0.00359219 0)
(0.861 0.0230007 0)
(0.852353 0.0209543 0)
(0.860059 0.0230883 0)
(1.03531 -0.000753643 0)
(0.852567 0.00610136 0)
(0.850757 0.0199441 0)
(0.852071 0.00673619 0)
(0.838647 -0.00475759 0)
(0.84936 0.0200304 0)
(1.03544 -0.000490426 0)
(0.859551 -0.00224758 0)
(0.852924 0.0212712 0)
(0.853972 0.021278 0)
(1.07457 -0.027219 0)
(1.07037 -0.0352931 0)
(0.814287 0.0033766 0)
(0.984655 0.022705 0)
(1.15682 -0.100812 0)
(0.957627 0.00283885 0)
(0.833721 -0.00176717 0)
(0.867095 -0.00493526 0)
(0.813789 0.000773135 0)
(0.835247 0.0275943 0)
(0.946442 0.0599039 0)
(0.889526 0.0240305 0)
(0.850512 0.00613636 0)
(1.01428 -0.0199741 0)
(0.83802 0.025791 0)
(0.934838 0.0230901 0)
(0.891196 0.00964586 0)
(0.932412 0.0225848 0)
(1.09012 -0.0443419 0)
(0.846175 0.000236388 0)
(0.766401 0.0136135 0)
(0.677902 -0.0482953 0)
(0.92718 0.0257666 0)
(0.837562 0.0276133 0)
(0.823668 -3.30854e-05 0)
(0.816309 0.0029397 0)
(0.920502 0.0265561 0)
(0.860765 -0.000106449 0)
(0.931736 0.0221665 0)
(0.933583 0.0239847 0)
(0.903447 0.000928404 0)
(0.962886 0.000489185 0)
(0.944861 -0.00395573 0)
(0.822242 0.00387093 0)
(1.04874 -0.0210688 0)
(0.825497 -0.000339522 0)
(0.815745 0.0026536 0)
(0.931415 0.02304 0)
(0.999727 -0.00580764 0)
(0.839403 0.0303841 0)
(0.877412 -0.0205815 0)
(0.839424 0.0315612 0)
(0.839267 0.0294774 0)
(0.98388 0.0243177 0)
(0.97842 0.0259733 0)
(0.814409 0.00305613 0)
(0.930659 0.0224909 0)
(1.07431 -0.0473671 0)
(1.02229 -0.0209023 0)
(0.826113 -0.000799639 0)
(1.03534 -0.0183641 0)
(1.0765 -0.00181054 0)
(0.830917 -0.00135831 0)
(0.838003 0.0286179 0)
(1.0143 -0.0195567 0)
(1.0166 -0.0186253 0)
(0.838128 0.0275277 0)
(1.07678 -0.000960485 0)
(0.817744 -0.0317415 0)
(0.834349 0.0264487 0)
(0.90388 0.00347869 0)
(0.919162 0.0213335 0)
(0.917693 0.0216711 0)
(1.03589 -0.0196324 0)
(0.858328 -0.000240808 0)
(0.825843 -0.0345411 0)
(0.824057 -0.0288654 0)
(0.675259 -0.0239421 0)
(0.92317 0.00372168 0)
(0.84739 0.00046894 0)
(1.03008 -0.0124004 0)
(0.96584 0.00863038 0)
(1.08548 -0.0457965 0)
(0.828962 0.0678233 0)
(0.828539 0.000811978 0)
(0.831636 0.000203048 0)
(0.847569 -0.00229306 0)
(0.94275 0.017371 0)
(0.943367 0.0174826 0)
(0.865206 0.023064 0)
(0.835276 0.0313452 0)
(0.864827 -0.0031403 0)
(1.0436 -0.00157298 0)
(0.953681 0.0153451 0)
(0.917749 -0.044229 0)
(0.8354 0.0319177 0)
(0.952695 0.0153376 0)
(1.04294 -0.00109312 0)
(1.05077 -0.0190189 0)
(1.05006 -0.0194283 0)
(0.815274 -0.000259237 0)
(1.01391 -0.0209366 0)
(1.01729 -0.0129635 0)
(1.08727 -0.0550486 0)
(1.01938 -0.0194705 0)
(1.08497 -0.0477685 0)
(0.974565 0.00937365 0)
(0.84818 0.000592414 0)
(0.848742 0.000594638 0)
(0.972453 0.00938934 0)
(0.835218 -0.000255587 0)
(0.846523 0.000496221 0)
(1.01807 -0.0194709 0)
(1.02032 -0.0210422 0)
(0.84759 0.000490769 0)
(1.07003 -0.00171839 0)
(1.07209 -0.0339598 0)
(1.00564 -0.0157725 0)
(1.07893 -0.0330526 0)
(1.05984 -0.0286387 0)
(1.07176 -0.00282555 0)
(1.08467 -0.0379925 0)
(1.08053 -0.0386762 0)
(1.0887 -0.0503747 0)
(1.08745 -0.0487801 0)
(0.875713 0.000503878 0)
(0.820127 0.0192744 0)
(0.914387 0.00689859 0)
(0.819344 0.0194401 0)
(0.876245 0.000571877 0)
(1.01061 -0.0195738 0)
(1.06776 -0.0307451 0)
(1.07413 -0.0373888 0)
(0.817936 0.00617715 0)
(0.846866 0.000250523 0)
(1.02449 -0.0105541 0)
(0.821149 0.000920916 0)
(1.02907 -0.012764 0)
(1.01507 -0.0103489 0)
(0.84088 0.031767 0)
(0.841756 0.0329518 0)
(0.899289 0.00105742 0)
(0.840979 0.030525 0)
(0.816832 -0.00534152 0)
(0.84104 0.0296513 0)
(0.813098 0.00254622 0)
(1.02397 -0.0198494 0)
(1.02538 -0.0102261 0)
(0.927436 0.00356336 0)
(0.829742 -0.0298406 0)
(0.818772 0.00308894 0)
(1.04702 -0.00142359 0)
(0.861648 0.00947815 0)
(1.00822 -0.0123536 0)
(1.00796 -0.013305 0)
(1.05103 -0.000957449 0)
(0.835896 0.0266827 0)
(1.02301 -0.0143986 0)
(1.01765 -0.0191838 0)
(1.02344 -0.0143378 0)
(0.809722 0.00115883 0)
(0.808667 0.00107934 0)
(0.807831 0.00112939 0)
(0.815541 0.00102 0)
(1.01564 -0.0175702 0)
(1.0181 -0.0139164 0)
(0.833787 -0.000696897 0)
(0.990195 0.0192372 0)
(0.840292 0.0278313 0)
(1.08575 -0.0385443 0)
(0.837358 -0.00088554 0)
(1.08093 -0.0370942 0)
(0.960938 0.00228717 0)
(1.0076 -0.0139341 0)
(0.817397 0.00610254 0)
(1.08531 -0.00182078 0)
(1.08426 -0.00169981 0)
(1.02517 0.00759422 0)
(0.798128 0.0675586 0)
(0.863086 0.0233227 0)
(1.07526 -0.0377912 0)
(0.84605 -0.0300945 0)
(0.841946 -0.0229845 0)
(1.07678 -0.0371517 0)
(0.859639 0.0222697 0)
(0.858581 0.0222226 0)
(1.02077 -0.0207916 0)
(0.886867 -0.0128517 0)
(0.81949 0.00653129 0)
(0.818717 0.00641394 0)
(1.02859 -0.0108789 0)
(1.14644 -0.087998 0)
(0.930744 0.00745269 0)
(1.03568 -0.0185577 0)
(0.794921 0.000650815 0)
(0.852406 0.020548 0)
(0.82486 0.000417756 0)
(0.85156 0.020499 0)
(0.860436 -0.000144585 0)
(0.846749 0.0190524 0)
(0.746803 0.0515062 0)
(0.846228 0.0186891 0)
(0.946632 0.00282873 0)
(1.07319 -0.037573 0)
(1.0916 -0.0431383 0)
(0.93175 0.00529668 0)
(0.881373 -0.0191282 0)
(0.86182 -0.0211373 0)
(0.856152 -0.0243258 0)
(1.07942 -0.0282894 0)
(0.906862 0.00342178 0)
(0.969832 0.00682964 0)
(0.829852 -0.042176 0)
(0.90402 0.0239068 0)
(0.895984 0.0240754 0)
(0.894058 0.0245121 0)
(0.90731 0.0229591 0)
(0.902853 0.023947 0)
(0.840793 0.000245642 0)
(1.13787 0.00192488 0)
(0.895561 0.0243899 0)
(0.885989 0.0246123 0)
(0.906393 0.0232351 0)
(1.05112 -0.0202587 0)
(0.892405 0.0245984 0)
(0.924307 0.0219954 0)
(0.913873 0.0227251 0)
(0.8859 0.0247985 0)
(0.861608 -8.69307e-05 0)
(0.883825 0.0245977 0)
(0.913238 0.0229215 0)
(0.881794 0.0248016 0)
(0.840175 0.00841229 0)
(0.922105 0.0213302 0)
(0.870189 0.059761 0)
(0.876784 0.024658 0)
(0.877001 0.0245888 0)
(0.921043 0.0214447 0)
(0.874051 0.0240089 0)
(0.87337 0.027048 0)
(0.926843 0.020163 0)
(0.871673 0.02432 0)
(0.84751 0.000387246 0)
(0.867986 0.0241618 0)
(0.925725 0.0206045 0)
(0.811714 0.00140351 0)
(0.932367 0.0196244 0)
(0.868193 0.0239612 0)
(0.941876 -0.0122493 0)
(0.821836 0.00367086 0)
(0.919044 -0.00178989 0)
(0.932076 0.0197013 0)
(0.839484 0.00813431 0)
(0.846386 0.0001719 0)
(0.838047 0.00747078 0)
(0.938436 0.0176723 0)
(0.926912 0.0267948 0)
(0.846135 0.000474555 0)
(0.837322 0.00729199 0)
(0.845714 -0.000118415 0)
(0.936506 0.0181929 0)
(0.916674 -0.000515768 0)
(0.875368 -0.0245056 0)
(0.944307 0.0160859 0)
(0.813643 0.00331826 0)
(1.01969 0.000587232 0)
(0.943701 0.0165636 0)
(0.952847 0.0143678 0)
(0.953797 0.0147155 0)
(1.07398 -0.0357269 0)
(0.962134 0.0123763 0)
(0.959716 0.0126077 0)
(0.963172 0.0108157 0)
(0.813532 0.00103656 0)
(0.941548 0.00309601 0)
(0.963823 0.0113023 0)
(0.819094 0.00166841 0)
(0.973914 0.00928372 0)
(1.01031 0.00357754 0)
(0.818919 0.00160137 0)
(0.861121 0.00950968 0)
(0.975946 0.00919562 0)
(1.04813 -0.0191657 0)
(0.893718 -0.0152285 0)
(0.980776 0.00562733 0)
(0.975843 0.00656764 0)
(0.982762 0.00579973 0)
(1.05055 -0.00374812 0)
(0.987157 0.00589946 0)
(0.875903 -0.0195851 0)
(0.993941 0.00269984 0)
(0.811024 0.000881725 0)
(1.00228 -0.006456 0)
(1.05178 -0.00188052 0)
(0.98746 0.00321611 0)
(0.985779 0.0206007 0)
(1.00256 0.0162325 0)
(1.0179 -0.0194798 0)
(0.990932 0.00117639 0)
(1.01307 -0.00925592 0)
(1.01181 -0.00843252 0)
(0.994699 -0.00403134 0)
(0.995908 0.00197889 0)
(1.00538 -0.0018833 0)
(1.00095 -0.000911047 0)
(0.954632 -7.09874e-05 0)
(0.89808 -0.019177 0)
(0.843782 -0.0510242 0)
(0.813483 0.00284843 0)
(0.899228 -0.0188035 0)
(0.818936 0.00309613 0)
(0.895396 -0.0201716 0)
(0.906183 -0.0177717 0)
(0.89154 -0.0222475 0)
(0.944985 0.00051659 0)
(0.760697 0.0534966 0)
(0.905277 0.00384599 0)
(0.827862 0.0131618 0)
(1.09457 -0.0197366 0)
(0.905046 -0.00788368 0)
(0.957926 0.0372759 0)
(0.952983 0.0381181 0)
(0.813479 0.002718 0)
(0.953187 0.00384935 0)
(0.932023 0.0206226 0)
(0.927844 0.0210088 0)
(0.903235 0.00344133 0)
(0.929134 0.001428 0)
(0.934371 0.0204034 0)
(0.931117 0.0207552 0)
(0.933301 0.020632 0)
(0.932545 0.0269516 0)
(1.12886 -0.0321774 0)
(1.08252 -0.0344248 0)
(1.00422 -0.0135586 0)
(1.02228 -0.0193361 0)
(0.815111 0.00308111 0)
(1.02688 -0.00526368 0)
(1.07181 -0.0329123 0)
(1.0852 -0.0451913 0)
(0.996366 0.0184885 0)
(0.817609 -8.93588e-05 0)
(0.904952 0.0257901 0)
(0.931199 0.0275483 0)
(1.12839 -0.0709584 0)
(0.85636 -0.000708177 0)
(0.931063 -0.000568199 0)
(0.66404 -0.0350811 0)
(1.0108 0.00651943 0)
(0.93162 -0.000548003 0)
(0.915575 0.0168422 0)
(0.866784 0.0263724 0)
(0.821302 0.000507123 0)
(1.04015 -0.0115102 0)
(0.998878 0.0166261 0)
(0.936464 0.000313357 0)
(0.936619 0.0200452 0)
(0.987443 0.0207786 0)
(0.986652 0.0224831 0)
(0.917346 -0.0340975 0)
(1.06624 0.00141914 0)
(1.00744 0.00759663 0)
(1.06614 0.000122676 0)
(1.00623 -0.00877317 0)
(0.759263 -0.0420667 0)
(1.12585 -0.068443 0)
(1.07317 -0.0360996 0)
(0.90844 -0.0243678 0)
(1.0182 0.00170351 0)
(0.929488 0.0207624 0)
(1.00198 -0.00474543 0)
(0.818709 0.00254021 0)
(0.929978 0.0209128 0)
(0.888333 0.0268522 0)
(1.03927 -0.0103406 0)
(1.00314 0.0111333 0)
(0.813781 0.0015261 0)
(0.818161 0.00271165 0)
(0.875009 0.00448069 0)
(1.02728 -0.0148362 0)
(0.836598 0.0318424 0)
(0.807212 0.000982223 0)
(0.876636 0.00411739 0)
(0.888455 -0.0207634 0)
(0.99831 0.012381 0)
(1.08463 -0.0492309 0)
(0.826468 -0.000865145 0)
(0.851528 -0.0143486 0)
(0.879615 0.00373718 0)
(1.03474 -0.0141666 0)
(1.03566 -0.00792987 0)
(0.793725 0.00101753 0)
(0.822373 -0.000240386 0)
(0.823434 -0.0639288 0)
(1.08719 -0.0490166 0)
(0.874375 0.0270795 0)
(1.09593 -0.0466831 0)
(1.02387 -0.00952125 0)
(1.02382 -0.00931262 0)
(0.772943 0.00576582 0)
(0.926385 0.0216694 0)
(1.0312 -0.0116417 0)
(0.838389 0.0249254 0)
(0.915087 -0.0164191 0)
(0.88167 0.00329143 0)
(0.993743 0.0164066 0)
(0.925466 -0.00203684 0)
(1.09337 -0.0134633 0)
(1.06772 -0.0312842 0)
(0.867747 0.00474569 0)
(0.868535 0.00643137 0)
(1.02747 -0.00516501 0)
(0.907822 -0.0148641 0)
(1.00914 -0.0101813 0)
(1.01286 -0.0185248 0)
(1.02249 -0.0136979 0)
(1.02226 -0.0112958 0)
(0.868459 0.00547389 0)
(0.924699 -0.00305309 0)
(1.01333 -0.00994647 0)
(1.03557 -0.0225919 0)
(1.01791 -0.0215591 0)
(1.08242 -0.0491738 0)
(0.99122 0.0173418 0)
(0.838576 0.0253483 0)
(1.03203 -0.00584303 0)
(1.10935 -0.0639352 0)
(1.01886 -0.01468 0)
(1.11019 -0.0589182 0)
(1.01355 -0.0138108 0)
(0.931122 0.0275882 0)
(0.25241 0.00561132 0)
(0.855773 0.00762434 0)
(0.854967 0.00774057 0)
(1.06855 -0.0312326 0)
(1.01492 -0.0164258 0)
(0.806624 0.002953 0)
(1.03675 -0.0184569 0)
(1.0202 -0.0159334 0)
(0.899732 0.00219745 0)
(0.920582 0.00167499 0)
(1.07835 -0.0370872 0)
(1.04817 -0.0196721 0)
(0.894704 -0.0123584 0)
(0.990493 0.00395427 0)
(0.909417 0.0258865 0)
(0.869091 0.0104591 0)
(0.866421 0.00994135 0)
(1.03114 -0.00420857 0)
(0.900021 0.0266465 0)
(0.859212 0.00879786 0)
(0.854256 0.00746965 0)
(0.845029 0.0266515 0)
(1.0327 -0.0190083 0)
(0.857779 0.00793494 0)
(1.02656 -0.0188888 0)
(1.14196 -0.0868322 0)
(1.0261 -0.00844093 0)
(0.998238 -0.0132525 0)
(0.814892 0.00355839 0)
(0.843704 0.0264351 0)
(0.994186 -0.0205894 0)
(0.833308 -0.000949974 0)
(0.857621 0.0306592 0)
(1.0254 -0.0177426 0)
(0.864017 0.0315678 0)
(0.856519 0.0306969 0)
(0.871737 0.0113597 0)
(0.928915 -0.0203189 0)
(0.861972 0.031491 0)
(1.01778 -0.019274 0)
(1.06714 -0.0209776 0)
(0.910451 0.0250506 0)
(0.840796 0.00953372 0)
(0.994713 0.00179143 0)
(0.872407 0.0319206 0)
(0.89081 0.0272297 0)
(1.02935 -0.00347993 0)
(0.952351 -0.00956105 0)
(0.914645 0.0245378 0)
(0.86988 0.0320494 0)
(0.880397 0.0318196 0)
(0.832606 0.0309515 0)
(1.00598 -0.0151287 0)
(0.847394 -0.0489946 0)
(0.830597 0.0309141 0)
(0.824924 0.0267272 0)
(1.07899 -0.0358722 0)
(0.879069 0.032055 0)