/*--------------------------------*- C++ -*----------------------------------*\
  =========                 |
  \\      /  F ield         | OpenFOAM: The Open Source CFD Toolbox
   \\    /   O peration     | Website:  https://openfoam.org
    \\  /    A nd           | Version:  12
     \\/     M anipulation  |
\*---------------------------------------------------------------------------*/
FoamFile
{
    format      ascii;
    class       volScalarField;
    location    "3.4";
    object      rho;
}
// * * * * * * * * * * * * * * * * * * * * * * * * * * * * * * * * * * * * * //

dimensions      [1 -3 0 0 0 0 0];

internalField   nonuniform List<scalar> 
22702
(
1.40001
1.40001
1.26964
1.40001
1.45281
1.40001
1.84181
1.40001
1.40001
0.966278
1.8378
1.84221
1.40001
1.84206
1.28615
1.40001
1.40001
1.40001
1.84025
1.40001
1.84216
1.40001
1.84156
1.0274
1.84221
1.04176
1.40001
1.84209
0.995067
1.02905
1.40001
1.84114
1.40001
1.40001
1.40001
1.80866
1.84605
1.84059
1.40001
1.40001
1.01284
1.40001
1.62095
1.40001
1.84121
1.40001
1.40001
1.40001
1.40001
1.01516
1.40001
1.01985
1.40001
1.83665
1.40001
1.83789
1.40001
1.40001
1.40001
1.40001
1.08354
1.40001
1.40001
1.01829
1.40001
1.01613
1.40001
1.40001
1.40001
0.991291
1.40001
1.84224
1.67029
1.40001
1.84182
1.86235
1.01679
1.84089
1.02478
1.40001
1.83934
1.02914
1.83739
1.84264
1.40001
1.40001
1.40001
1.40001
1.33107
0.981711
1.83581
1.40001
1.40001
0.973849
1.40001
1.84185
0.976417
1.40001
1.40001
1.40001
1.40001
1.61936
1.83933
1.00486
1.40001
1.40001
1.50776
1.40001
1.03008
1.40001
1.83996
1.83858
1.40001
1.40001
1.04032
1.04855
0.977364
1.40001
1.40001
1.40001
1.40001
1.40001
1.31419
1.40001
1.78093
1.43256
1.8394
1.40001
1.83562
1.84153
1.84248
1.83595
1.40001
1.06617
1.40001
1.0657
1.40001
1.40001
1.40001
1.40001
1.84026
1.40001
1.40001
1.40001
1.40001
1.84162
1.40001
1.42752
1.40001
1.40001
1.40001
1.40001
1.02502
1.40001
1.41011
1.40001
1.02274
1.40001
1.40001
1.40001
1.83473
1.40001
1.84246
1.06172
1.06346
1.84172
1.84274
1.40001
1.47766
1.65672
1.40001
1.83545
1.02465
1.80936
1.40001
1.40001
1.40001
1.40001
1.84139
1.75511
1.40001
1.83863
1.04577
1.83612
1.40001
1.02328
1.40001
1.01972
1.0425
1.3998
1.40001
1.40001
1.8401
1.40001
1.40001
1.84123
1.40001
1.83628
1.83929
1.03002
1.40001
1.40001
1.02528
1.84131
1.40001
1.40001
1.40001
1.84128
1.40001
1.04118
1.40001
1.40001
1.84151
1.84172
1.83783
1.40001
1.40004
1.40001
1.40001
1.40001
1.84108
1.40001
1.04414
1.85591
1.84161
1.84277
1.40001
1.40001
1.40001
1.01701
1.84131
1.63006
1.40001
1.84361
1.03564
1.04254
1.84355
1.84081
1.40001
1.84818
0.995439
1.79222
1.40001
1.40001
1.40001
1.40001
1.84132
1.40001
1.66494
1.43995
1.40001
1.40001
1.84117
1.06598
1.17794
1.40001
1.84194
1.03087
1.84743
1.40001
1.40001
1.40001
1.40001
1.40001
1.40001
1.40001
1.02713
1.15505
1.04585
1.84192
1.40001
1.40001
1.40001
1.40001
1.79285
1.40001
1.02477
1.40001
0.998252
1.02485
1.84194
1.01955
1.84201
1.40001
1.40001
1.40001
1.39766
1.02411
0.996545
1.4
1.40001
0.99951
1.40001
1.8417
0.989235
1.40001
1.40001
1.83888
1.03606
1.40001
1.84405
1.06115
1.84094
1.40001
1.00333
1.39774
1.40001
1.40001
1.40001
1.02096
1.40001
1.40001
1.4
1.40002
1.41185
1.67103
1.40001
1.06879
1.40001
1.40001
1.40001
1.40001
1.40001
1.40001
1.40001
1.83707
1.40001
1.84005
1.40001
1.40001
1.40001
1.04765
1.40001
1.84155
1.02488
1.40001
1.74123
1.40001
1.40001
1.83694
1.40001
1.40001
1.40001
1.82846
1.40001
1.40001
1.83181
1.8368
1.40001
1.48881
1.40001
1.40001
1.06613
1.40001
1.40001
1.40001
0.977888
1.40001
1.40001
1.40001
1.40001
1.06822
1.40001
1.40001
1.40001
1.40001
1.40001
0.981285
1.40007
1.84268
1.40001
1.40001
1.84258
1.84182
1.40001
1.40001
1.03716
1.21107
1.83806
1.40001
1.40001
1.40001
1.84062
0.985878
1.40001
1.84233
1.40001
1.40001
1.1049
1.08367
1.40001
1.03064
1.04388
1.40001
1.40001
1.40001
1.40001
1.40001
1.40001
1.40001
1.84504
1.51249
1.82232
0.992299
1.30429
1.84256
1.40001
1.84158
1.83766
1.04008
1.18417
1.40001
1.03986
1.40001
1.84794
1.40001
1.40001
1.40001
1.40001
1.84127
1.40001
1.40001
1.40001
1.40001
1.40001
1.40001
1.40001
1.56163
1.83607
1.40001
1.84166
1.40001
1.40001
1.02745
1.40001
1.40001
1.40001
1.40001
1.84134
1.73711
1.40001
1.40001
1.02842
1.84167
1.84158
1.40001
1.84153
1.84142
1.8417
1.40001
1.22963
1.40001
1.84199
1.38364
1.84165
1.40001
1.04741
1.39884
1.83928
1.40001
1.40001
1.40001
1.40001
1.03442
1.84175
1.80037
1.40001
1.83965
1.84086
1.83862
1.40001
1.6055
1.84191
1.40001
1.40001
1.70629
1.46695
1.84164
1.33013
1.84167
1.40001
1.84177
1.84178
1.84176
1.84182
1.40001
1.83434
1.30581
1.27484
1.40001
1.4
1.40001
1.40001
1.83979
1.40001
1.40001
1.40001
1.40001
1.40001
1.83933
1.40001
1.40001
1.39611
1.84177
1.78169
1.40001
1.76286
1.40005
1.40001
1.40001
1.84164
1.40001
1.39768
1.40475
1.40001
1.84152
1.40001
1.84105
1.40001
1.40001
1.72742
1.40001
1.84158
1.40003
1.40001
1.84286
1.40001
1.84148
1.40001
1.40001
1.40001
1.84125
1.40001
1.84229
1.40001
1.8413
1.84217
1.84168
1.84551
1.40001
1.83474
1.8329
1.40001
1.03072
1.81521
1.71866
1.40001
1.84136
1.40001
1.0636
1.07637
1.40001
1.40001
1.40001
1.40001
1.40001
0.979383
1.40001
1.8417
1.5153
1.84179
1.40001
1.40001
1.40001
1.40001
1.40001
1.84189
1.40001
1.84112
1.6645
1.17847
1.40001
1.40001
1.5332
1.51125
1.40001
1.40001
1.55924
1.40001
1.02568
1.84181
1.84167
1.40001
1.40001
1.40001
1.8394
1.40001
1.40003
1.8462
1.8415
1.34836
1.40001
1.40001
1.01518
1.80275
1.40001
1.40001
1.40001
1.40001
1.40001
1.84165
1.83556
1.40001
1.84303
1.84344
1.84139
1.40001
1.40001
1.40001
1.40001
0.997394
1.83752
1.40001
1.40001
1.80508
1.84062
1.40001
1.81784
1.83422
1.40001
1.40001
1.40001
1.40001
1.40001
1.84153
1.40001
1.40001
1.40001
1.40001
1.8417
1.40001
1.84203
1.03237
1.40001
1.0353
1.40001
1.40001
1.40001
1.3968
1.02495
1.39902
1.40001
1.40001
1.40001
1.46464
1.40001
1.40001
1.26786
1.40001
1.40001
1.40001
1.40001
1.40001
1.40001
1.40001
1.4
1.33102
1.4
1.40001
1.39764
1.40001
1.03334
1.40001
1.40001
1.40001
1.40001
1.73105
1.40001
1.40001
1.40001
1.40001
1.032
1.40001
1.40001
1.81675
1.83853
1.4
1.40001
1.40001
1.27661
1.40001
1.40001
1.40001
1.40001
1.40001
1.40001
1.35131
1.41042
1.84107
1.40001
1.40001
1.40001
1.84298
1.30064
1.40001
1.40001
1.40001
1.84197
1.83977
1.40001
1.40001
1.40001
1.40001
1.40001
1.40001
1.40001
1.40001
1.40001
1.05075
1.40001
1.40001
1.8389
1.04168
1.40001
1.83839
1.40001
1.03093
1.40001
1.40001
1.04989
1.40001
1.40001
1.40001
1.40001
1.40001
1.40001
1.40001
1.83264
1.84066
1.40001
1.40001
1.40001
1.40001
1.80544
1.40001
1.53175
1.03397
1.40001
1.40001
1.40001
1.40001
1.40001
1.40001
1.40001
1.43407
1.40001
1.40001
1.62526
1.40001
1.40001
1.40001
1.76135
1.40001
1.40001
1.40001
1.40001
1.03684
1.40001
1.40001
1.02298
1.03804
1.40001
1.40001
1.84108
1.40001
1.37452
1.40001
1.40001
1.40001
1.7072
1.04103
1.40001
1.02569
1.40001
1.1724
1.40001
1.40001
1.40001
1.84179
1.40001
1.40001
1.84191
1.40001
1.40001
1.40001
1.84195
1.40001
1.40001
1.84252
1.40001
1.40001
1.04345
1.40001
1.53023
1.40001
1.40001
1.84058
1.84231
1.69557
1.79234
1.40001
1.04194
1.40001
1.40001
1.82291
1.40001
1.03213
1.40001
1.40001
1.40001
1.84142
1.40001
1.40001
1.40001
1.40001
1.66485
1.40001
1.80371
1.84222
0.953773
1.40001
1.40001
1.04222
1.0691
1.40001
1.40001
1.40001
1.71094
1.7347
1.40001
1.40001
1.40001
1.40001
1.40001
1.40001
1.40001
1.59143
1.84322
1.41241
1.40001
1.83644
1.07243
1.40001
1.40001
1.40001
1.64067
1.40001
1.48942
1.40001
1.80393
1.83915
1.40001
1.04849
1.40001
1.83594
1.40001
1.40001
1.84121
1.81472
1.40001
1.83899
1.40001
0.992452
1.40001
1.40001
1.40001
1.83249
1.83188
1.78797
1.40001
1.84314
1.8408
1.40001
1.84251
1.40001
1.83999
1.40001
1.03357
1.36644
1.04533
1.40001
1.40001
1.40001
1.40001
1.40001
1.8423
1.40001
1.84168
1.40001
1.40001
1.40001
1.82031
1.40001
1.02135
1.84145
1.40001
1.03755
1.04761
1.03453
1.40001
1.61694
1.43035
1.84318
1.84087
1.40001
1.4
1.40001
1.40001
1.84166
1.40001
1.40001
1.84168
1.84104
1.40001
1.54971
1.40001
1.40001
1.39676
1.83407
1.24161
1.40001
1.21682
1.02432
1.02716
1.3488
1.84299
1.8367
1.48817
1.84179
1.84236
1.40001
1.40001
1.84195
1.83981
1.84122
1.83953
1.40001
1.84134
1.02331
1.83882
1.83983
1.84123
1.84652
1.26299
1.29286
1.32796
1.84253
1.35865
1.84352
1.40001
1.40001
1.84349
1.84009
1.40001
1.04235
1.84027
1.84245
1.40001
1.84182
1.84198
1.40001
1.84173
1.03625
1.84313
1.84473
1.83593
1.84694
1.40001
1.40001
1.40001
1.84234
1.68842
1.04712
1.84179
1.03053
1.84243
1.40001
1.40001
1.40001
1.40001
1.84082
1.84211
1.40001
1.40001
1.84146
1.039
1.84151
1.02808
1.40001
1.83821
1.40001
0.975389
1.84334
1.14038
1.40001
1.84096
1.8441
1.84052
1.40001
1.40001
1.62126
1.84369
1.03011
1.84132
1.40001
1.84113
1.27407
1.84263
1.04837
1.40001
1.84013
1.04816
1.84348
1.03306
1.40001
1.84165
1.40001
1.83669
1.40001
1.6587
1.82581
1.74781
1.02576
1.40001
1.84109
1.40001
1.84185
1.40001
1.84195
1.40001
1.40001
1.84229
1.38113
1.84425
0.972878
1.81043
1.40001
1.71402
1.40001
1.84165
1.84155
1.8415
1.40001
1.79415
1.84175
1.8079
1.67336
1.83661
1.40001
1.69209
1.40001
1.84125
1.40001
1.45374
1.40001
1.81039
1.40001
1.84129
1.82173
1.81994
1.40001
1.83844
1.07858
1.40001
1.03501
1.40001
1.40001
1.40001
1.83857
1.40001
1.8427
1.40001
1.40001
1.40001
1.84242
1.82661
1.76599
1.83989
1.84214
1.03421
1.84683
1.83413
1.40001
1.78938
1.84128
1.82133
1.40001
1.83531
1.83888
1.40001
1.84808
1.84194
1.84305
1.84328
1.40001
1.40001
1.40001
1.84199
1.04612
1.40001
1.84243
1.40001
1.40001
1.08112
1.40001
1.40001
1.84174
1.84157
1.40001
1.84183
1.84276
1.84154
1.37153
1.84142
1.40001
1.8415
1.84194
1.75335
1.40001
1.40001
1.40001
1.84147
1.84133
1.84161
1.33564
1.40001
1.84619
1.84125
1.83993
1.40001
1.84148
1.84137
1.84226
1.84828
1.40001
1.84137
1.84593
1.77973
1.84037
1.8474
1.40001
1.83854
1.83693
1.84158
1.83935
1.84091
1.04998
1.84114
1.84057
1.40001
1.84163
1.84152
1.84183
1.84216
1.40001
1.84132
1.8415
1.40001
1.84233
1.7715
1.40001
1.40001
1.40001
1.83997
1.84556
1.40001
1.40001
1.63433
1.40001
1.84167
1.40001
1.40001
1.84272
1.84373
1.8415
1.84153
1.40001
1.40001
1.40001
1.70688
1.40001
1.84156
1.40001
1.40001
1.83608
1.84448
1.40001
1.84154
1.02743
1.8416
1.84475
1.08768
1.40001
1.02525
1.78012
1.84616
1.84148
1.84227
1.0274
1.84091
1.84282
1.03468
1.02164
1.40001
1.83999
1.84191
1.40001
1.40001
1.84167
1.40001
1.84625
1.40001
1.78625
1.40001
1.60342
1.84133
1.84406
1.70606
1.8033
1.83562
1.84051
1.80783
1.40001
1.03269
1.83892
1.84213
1.84295
1.40002
1.40001
1.40001
1.84645
1.40001
1.84171
1.84223
1.14836
1.40001
1.84152
1.39995
1.40001
1.40003
1.40005
1.84208
1.842
1.39853
1.40001
1.40001
1.84197
1.84385
1.84213
1.84714
1.84067
1.04366
1.78005
1.40001
1.8376
1.84148
1.84166
1.84368
1.40001
1.84197
1.83029
1.84348
1.40001
1.84302
1.84024
1.25362
1.8417
1.84108
1.40001
1.84114
1.22097
1.84018
1.25379
1.84186
1.40001
1.84211
1.83996
1.84163
1.84203
1.84218
1.84075
1.84272
1.83947
1.40001
1.32208
1.84036
1.8419
1.2302
1.84128
1.38173
1.67411
1.84095
1.84179
1.84039
1.40001
1.84411
1.68569
1.84031
1.3178
1.84422
1.84626
1.40001
1.26425
1.40001
1.84599
1.40001
1.70364
1.40001
1.81425
1.27493
1.40001
1.8465
1.83471
1.40001
1.84249
1.84357
1.84268
1.84254
1.84859
1.40001
1.83896
1.40001
1.40001
1.40001
1.29707
1.84197
1.84296
1.84826
1.84143
1.84566
1.84851
1.83857
1.8424
1.30001
1.43153
1.40001
1.40001
1.84193
1.84227
1.8411
1.8415
1.40003
1.62788
1.40001
1.84713
1.79059
1.40001
1.40001
1.14832
1.84181
1.40001
1.40001
1.03613
1.84127
1.40001
1.83723
1.84185
1.835
1.82409
1.84198
1.40001
1.03279
1.50877
1.8423
1.84207
1.40001
1.84152
1.84209
1.6184
1.40953
1.49849
1.40001
1.83678
1.8415
1.40001
1.40001
1.03845
1.40001
1.40001
1.84142
1.84222
1.8446
1.84224
1.84166
1.83914
1.84211
1.84518
1.84179
1.40001
1.39632
1.84165
1.84184
1.39672
1.84216
1.84202
1.03913
0.953153
1.84307
1.83765
1.40001
1.40001
1.40083
1.8411
1.84365
1.84118
1.40001
1.84179
1.40001
1.25213
1.84431
1.84048
1.40001
1.59322
1.84227
1.40001
1.83754
1.40001
1.84122
1.68897
1.84088
1.40001
1.84084
1.84299
1.03834
1.84187
1.40001
1.84259
1.84375
1.40001
1.04325
1.84521
1.76445
1.39791
1.83161
1.84162
1.40001
1.39622
1.83781
1.39858
1.84197
1.40001
1.40001
1.84048
1.40001
1.84015
1.84229
1.39656
1.74802
1.40001
1.84217
1.40001
1.40001
1.40001
1.40001
1.84141
1.40001
1.40001
1.84591
1.40001
1.84169
1.40001
1.68248
1.84506
1.84296
1.40001
1.40001
1.39459
1.40001
1.84179
1.84189
1.84334
1.84155
1.84145
1.8411
1.84157
1.40001
1.84183
1.84317
1.40001
1.84149
1.8414
1.40001
1.84263
1.32026
1.45592
1.84188
1.8412
1.84286
1.40001
1.84159
1.40001
1.842
1.84154
1.40001
1.84242
1.40001
1.40001
1.40001
1.40001
1.84116
1.02963
1.39792
1.40001
1.84139
1.84437
1.40001
1.8413
1.40001
1.40582
1.01756
1.84219
1.3996
1.40001
1.84154
1.39841
1.84159
1.40001
1.39977
1.40001
1.84243
1.84494
1.84107
1.84149
1.03754
1.84021
1.84475
1.84253
1.50988
1.40001
1.40001
1.59402
1.84197
1.02387
1.03054
1.40001
1.84111
1.84146
1.84024
1.40001
1.40001
1.84363
1.84128
1.39989
1.40001
1.72461
1.0306
1.40001
1.4798
1.83968
1.83873
1.39825
1.84106
1.84698
1.40001
1.39912
1.40001
1.84404
1.83469
1.58286
1.40001
1.81611
1.40001
1.40195
1.84338
1.03654
1.84035
1.84119
1.39696
1.39992
1.78001
1.40001
1.3997
1.40001
1.84103
1.40001
1.40002
1.0243
1.84185
1.40001
1.40001
1.40001
1.40001
1.83802
1.64677
1.40001
1.40001
1.0325
1.84196
1.64701
1.40001
1.40001
1.40001
1.8202
1.82271
1.84404
1.40001
1.40001
1.84877
1.40001
1.84237
1.84095
1.40001
1.40001
1.84367
1.84041
1.81978
1.40001
1.40001
1.84385
1.84565
1.40001
1.40001
1.40001
1.84538
1.40001
1.40001
1.40001
1.8433
1.84639
1.84479
1.40001
1.83784
1.40004
1.10238
1.84139
1.84285
1.40001
1.83995
1.81688
1.84031
1.40001
1.40001
1.84611
1.40001
1.6472
1.84253
1.40001
1.04461
1.40001
1.84296
1.40001
1.40001
1.84694
1.40001
1.40001
1.40001
1.53786
1.84065
1.08365
1.40002
1.84259
1.40001
1.40001
1.84174
1.40001
1.84397
1.40001
1.40001
1.84169
1.84223
1.40001
1.40005
1.40001
1.40001
1.40001
1.40001
1.40001
1.40001
1.83821
1.8414
1.40001
1.83754
1.02815
1.83918
1.40001
1.84179
1.85023
1.84232
1.83947
1.83747
1.40001
1.40001
1.84655
1.40001
1.67079
1.84414
1.84187
1.40001
1.84539
1.83427
1.40001
1.8031
1.40001
1.84176
1.68837
1.84652
1.39762
1.82982
1.79917
1.84247
1.84255
1.43857
1.84223
1.84423
1.40001
1.84075
1.40001
1.84185
1.40001
1.40001
1.40001
1.40001
1.39572
1.84115
1.84175
1.75973
1.40001
1.84344
1.40001
1.40001
1.40001
1.01422
1.40001
1.83272
1.40001
1.80158
1.83286
1.40001
1.40001
1.40001
1.81421
1.83601
1.40001
1.40001
1.84127
1.04308
1.46371
1.40001
1.8427
1.84179
1.80343
1.83263
1.84172
1.40001
1.84041
1.40001
1.40001
1.40001
1.40001
1.84185
1.84157
1.40001
1.82907
1.45186
1.8411
1.81107
1.40001
1.40001
1.81268
1.40001
1.40001
1.05862
1.70315
1.40001
1.40001
1.84812
1.40001
1.84447
1.80319
1.40001
1.80169
1.04803
1.84253
1.8414
1.84265
1.40001
1.03577
1.40001
1.40001
1.40001
1.84164
1.75488
1.40001
1.8487
1.84185
1.40001
1.84098
1.40001
1.40001
1.40001
1.40001
1.84192
1.39932
1.40001
1.8435
1.40001
1.40001
1.84207
1.8417
1.40001
1.84739
1.48704
1.40002
1.40001
1.84079
1.40001
1.84035
1.40001
1.4124
1.84147
1.40001
1.84131
1.40001
1.40001
1.53452
1.84227
1.40001
1.40001
1.40001
1.40001
1.40001
1.39655
1.0241
1.03521
1.42267
1.40001
1.42142
1.40001
1.42355
1.40001
1.84145
1.40001
1.68349
1.40001
1.8417
1.40001
1.40001
1.40001
1.84133
1.40001
1.74342
1.84104
1.40001
1.63192
1.84129
1.40001
1.40001
1.83828
1.84167
1.40001
1.40001
1.44575
1.02613
1.40001
1.84347
1.40001
1.40001
1.40001
1.40001
1.47447
1.84166
1.40001
1.40001
1.40001
1.00541
1.40001
1.84179
1.84169
1.84906
1.40001
1.40001
1.40001
1.40001
1.62324
1.84939
1.40001
1.40001
1.40001
1.84187
1.84175
1.44615
1.40001
1.40001
1.40001
1.8422
1.84155
1.40001
1.04459
1.84149
1.84274
1.84258
1.84256
1.84376
1.40001
1.40001
1.8468
1.84096
1.84071
1.01285
1.44169
1.84216
1.40001
1.40001
1.40001
1.40001
1.40001
1.84158
1.03911
1.40001
1.40001
1.84058
1.59981
1.40001
1.84773
1.40001
1.40001
1.40001
1.05132
1.40001
1.40001
1.51286
1.84159
1.84071
1.40001
1.84596
1.84727
1.40001
1.46408
1.40001
1.84879
1.40001
1.84147
1.04497
1.40001
1.40001
1.40001
1.40001
1.84134
1.40007
1.40001
1.40001
1.40001
1.82484
1.40001
1.40001
1.40001
1.40001
1.84142
1.05453
1.74838
1.84373
1.40001
1.84279
1.40001
1.40001
1.40001
1.39722
1.40001
1.84496
1.40001
1.19163
1.40001
1.40001
1.40004
1.84236
1.02779
1.40001
1.83972
1.40001
1.84344
1.84191
0.974286
1.40001
1.40001
1.83153
1.40001
1.40001
0.996421
1.40001
1.83483
1.40001
1.8216
1.3993
1.84121
1.40001
1.40001
1.40001
1.40001
1.83743
1.40001
1.40001
1.8414
1.40001
1.40001
1.40001
1.40001
1.40001
1.40001
1.40001
1.40001
1.69401
1.40001
1.54764
1.8396
1.40001
1.40001
1.40001
1.05084
1.40001
1.40001
1.40001
1.40001
1.84126
1.84177
1.4519
1.40001
1.40001
1.84248
1.40001
1.40001
1.84077
1.40001
1.40002
1.40001
1.40001
1.40001
1.40002
1.84183
1.17617
1.84197
1.84341
1.3968
1.40001
1.40001
1.40001
1.6611
1.40001
1.40001
1.84324
1.84075
1.40001
1.40001
1.40001
1.40001
0.972949
1.40001
1.40001
1.40001
1.67969
1.40001
1.84199
1.84479
1.40001
1.84338
1.40001
1.40001
1.40001
1.63964
1.40001
1.83718
1.40001
1.84162
1.40001
1.40001
1.39617
1.84172
1.40001
1.40001
1.40001
1.40001
1.40001
1.8452
1.40003
1.40001
1.05082
1.84398
1.03131
1.40001
1.84056
1.40001
1.39581
1.40001
1.84346
1.84344
1.40001
1.84686
1.2823
1.84222
1.85011
1.40004
1.40001
1.40001
1.02513
1.40001
1.40001
1.40001
1.84198
1.65452
1.8443
1.40001
1.40001
1.40001
1.40001
1.39669
1.843
1.40001
1.04997
1.40001
1.40001
1.40001
1.40001
1.40001
1.40001
1.40001
1.84899
1.8435
1.84358
1.40001
1.40001
1.39689
1.40001
1.36861
1.40001
1.40001
1.40001
1.02729
1.36771
1.40001
1.03002
1.05037
1.40001
1.84276
1.8409
1.40001
1.84426
1.84227
1.03666
1.68288
1.40001
1.40001
1.40001
1.05353
1.84285
1.40001
1.05189
1.40001
1.85037
1.46757
1.40001
1.40001
1.40001
1.40001
1.84135
1.83721
1.40001
1.40001
1.84153
1.40001
1.40001
1.83999
1.84257
1.40001
1.806
1.84054
1.83625
1.36136
1.84041
1.40816
1.04151
1.73864
1.84287
1.40001
1.40001
1.40001
1.02323
1.40001
1.0257
1.84792
1.3599
1.84187
1.34576
1.40001
1.84082
1.60326
1.40001
1.40001
1.84133
1.40001
1.58211
1.84133
1.40001
1.40001
1.83827
1.84731
1.03365
1.6736
1.3999
1.40001
1.67027
1.40001
1.84896
1.33953
1.84974
1.84698
1.40001
1.40001
1.40001
1.40001
1.84091
1.40001
1.40001
1.84278
1.39964
1.84235
1.74702
1.84055
1.03081
1.40001
1.40001
1.40001
1.40001
1.84233
1.40005
1.84127
1.40001
1.84159
1.84361
1.45639
1.8406
1.53454
1.84052
1.40001
1.70325
1.06698
1.84277
1.8417
1.74788
1.46773
1.83722
1.84213
1.84233
1.83986
1.40001
1.30643
1.46777
1.40001
1.84159
1.61764
1.84131
1.40004
1.40001
1.40001
1.08347
1.84952
1.83692
1.75897
1.40001
1.57388
1.40001
1.84165
1.84149
1.40001
1.84229
1.83761
1.40001
1.40001
1.40001
1.84315
1.40001
1.57341
1.84584
1.70743
1.40001
1.84055
1.40001
1.40001
1.40001
1.40001
1.40001
1.40001
1.40001
1.40001
1.40001
1.40001
1.06974
1.40001
1.8191
1.03635
1.65594
1.39853
1.84741
1.40001
1.63136
1.40002
1.68574
1.77972
1.40001
1.40224
1.84649
1.30296
1.40001
1.83856
1.82694
1.3387
1.40001
1.84358
1.84252
1.84314
1.40001
1.84203
1.84309
1.84615
1.40001
1.60457
1.40001
1.40007
1.8422
1.40001
1.84149
1.46428
1.84071
1.40001
1.40001
1.84206
1.84053
1.0759
1.40001
1.84213
1.7317
1.8407
1.40001
1.40001
1.83599
1.84095
1.39826
1.40001
1.78728
1.39702
1.8419
1.40006
1.40001
1.40001
1.40001
1.40001
1.60458
1.40001
1.74374
1.84062
1.7279
1.84169
1.40001
1.40338
1.40001
1.40001
1.83835
1.40001
1.84618
1.40001
1.40001
1.40001
1.40001
1.4
1.40001
1.45775
1.62518
1.40001
1.40001
1.10219
1.40001
1.83987
1.0615
1.84663
1.40001
1.63192
1.39975
1.84261
1.68433
1.04337
1.64205
1.40004
1.84109
1.84021
1.40001
1.66895
1.83981
1.84322
1.3984
1.84389
1.82923
1.03095
1.40001
1.40001
1.39827
1.40001
1.83502
1.40001
1.0472
1.84302
1.40001
1.40001
1.79349
1.40001
1.84134
1.40001
1.84306
1.40001
1.08
1.40001
1.40001
1.84308
1.84961
1.84521
1.40001
1.83925
1.84165
1.84609
1.40001
1.40001
1.82441
1.4
1.12104
1.40001
1.40001
1.40001
1.84062
1.40001
1.84059
1.69006
1.83954
1.40001
1.84209
1.39939
1.40001
1.40001
1.40001
1.40001
1.40001
1.40001
1.12289
1.40001
1.40001
1.84168
1.40001
1.84666
1.84648
1.40001
1.04397
1.03342
1.40001
1.84326
1.47333
1.04729
0.999587
1.40001
1.84406
1.40001
1.84139
1.02524
1.40125
1.40001
1.40001
1.39952
1.40001
1.40001
1.40001
1.39991
1.58199
1.84083
1.40001
1.40001
1.84266
1.66705
1.40001
1.79083
1.84094
1.83963
1.58238
1.84422
1.40001
1.84165
1.40001
1.84298
1.40001
1.84545
1.8398
1.39674
1.84146
1.84702
1.40001
1.40001
1.40001
1.40001
1.40001
1.31555
1.83576
1.40005
1.40003
1.03353
1.39999
1.04409
0.995369
1.40001
1.84432
1.8403
1.8417
1.40001
1.84146
1.40001
1.03254
1.40001
1.40001
1.84421
1.21993
1.8416
1.40001
1.84245
1.40001
1.38152
1.84114
1.40001
1.40001
1.40001
1.84336
1.40001
1.83949
1.02908
1.40001
1.40001
1.65684
1.40001
1.40001
1.64191
1.40001
1.40001
1.84277
1.40001
1.40001
1.40001
1.40001
1.40001
1.84803
1.84253
1.40001
1.84025
1.84339
1.02053
1.60277
1.83894
1.40001
1.40001
1.79863
1.39901
1.40001
1.40001
1.84171
1.84045
1.68239
1.40001
1.84505
1.03754
1.80819
1.39945
1.40001
1.84382
1.40004
1.83987
1.78456
1.73488
1.40001
1.40001
1.84138
1.11994
1.03342
1.40001
1.84196
1.40001
1.84177
1.40001
1.66042
1.40001
1.40001
1.84069
1.68467
1.05321
1.40001
1.39855
1.40001
1.40001
1.42612
1.58103
1.84181
1.40001
1.84681
1.40001
1.40001
1.40001
1.40001
1.40001
1.40001
1.46645
1.04974
1.40001
1.40001
1.4379
1.40001
1.40001
1.40001
1.40001
1.40001
1.84041
1.40001
1.40001
1.84147
1.84073
1.71767
1.40001
1.40001
1.40001
1.21364
1.84111
1.70807
1.40001
1.40001
1.40001
1.40001
1.84167
1.40001
1.40001
1.40001
1.84356
1.40001
1.40001
1.71626
1.85401
1.43368
1.11825
1.84619
1.71034
1.84096
1.40001
1.62516
1.40001
1.40001
1.40001
0.971264
1.40267
0.98967
1.40001
1.01712
1.011
1.40001
1.02392
1.40001
1.40001
1.40001
1.59297
1.40001
1.84323
1.84041
1.40081
1.60504
1.77457
1.02372
1.16184
1.2866
1.40001
1.84224
1.84152
1.84213
1.84211
1.7779
1.27736
1.40001
1.78176
1.40001
1.82282
1.40001
1.40001
1.39652
1.40916
1.40001
1.40001
1.40001
1.83913
1.40001
1.09821
1.40001
1.84323
1.05414
1.40001
1.40001
1.842
1.40001
1.84192
1.3997
1.40001
1.40001
1.84267
1.79056
1.40001
1.85444
1.40001
1.40001
1.41469
1.40001
1.59609
1.40001
1.40001
1.0168
1.40001
1.40001
1.84097
1.4
1.84074
1.40001
1.40004
1.0466
1.40001
1.40001
1.05255
1.40082
1.40001
1.84039
1.05732
1.84193
1.04635
1.84239
1.40001
1.40001
1.40001
1.40001
1.40001
1.40001
1.40001
1.40001
1.40001
1.40001
1.40001
1.82167
1.40001
1.84284
1.84005
1.04056
1.40001
1.40001
1.40001
1.40001
1.40001
1.40001
1.82901
1.40001
1.40001
1.03396
1.40001
1.40001
1.83921
1.40001
1.40001
1.57297
1.77049
1.05188
1.03633
1.07578
1.13936
1.40001
1.39646
1.03082
1.40026
1.81964
1.39693
1.40001
1.40001
1.84264
1.40001
1.40001
1.40001
1.15153
1.40002
1.56632
1.40001
1.40001
1.58162
1.84238
1.40001
1.02165
1.40001
1.40001
1.40001
1.39638
1.40001
1.84009
1.84207
1.40001
1.03473
1.40001
1.63914
1.02985
1.40001
1.2916
1.40001
1.39639
1.00869
1.40001
1.40001
1.40001
1.39544
0.969504
1.40001
1.01722
1.39844
1.62918
1.80399
1.03499
1.04489
1.40001
1.39029
1.40001
1.39862
1.40001
1.84336
1.84168
1.40001
1.41538
1.84324
1.8409
1.40001
1.40001
1.84196
1.40001
1.40001
1.40005
1.40001
1.8408
1.40001
1.40001
1.41895
1.40001
1.39856
1.07376
1.40001
1.40001
1.40001
1.40001
1.40001
1.84411
1.43471
1.40005
1.40001
1.40001
1.40001
1.40001
1.40001
1.40004
1.40001
1.02899
1.50399
1.39858
1.84316
1.84118
1.40001
1.414
1.84313
1.78689
1.40001
1.40001
0.992741
1.84172
1.40001
1.84023
1.40001
1.84291
1.70801
1.02608
1.40001
1.02937
1.80507
1.39968
1.40001
1.04832
0.991872
1.40001
1.40001
1.77096
1.40001
1.4
1.0181
1.40001
1.40001
1.40001
1.54499
1.40001
1.03767
1.84267
1.40001
1.40001
1.40001
1.40001
1.8425
1.40001
1.40001
1.84708
1.79503
1.40001
1.40001
1.40001
1.83823
1.02273
1.40001
1.83966
1.84217
1.40001
1.75478
1.4
1.40004
1.40001
1.40001
1.80579
1.41493
1.40001
1.04112
1.63939
1.40001
1.40001
1.3978
1.40001
1.40001
1.84308
1.40001
1.40001
1.40004
1.40001
1.83812
1.40001
1.40001
1.40001
1.40001
1.40001
1.40001
1.40002
1.60001
1.40001
1.84009
1.40001
1.40001
1.84313
1.40001
1.40001
1.40001
1.84203
1.84661
1.44384
1.40001
1.39758
1.40001
1.40001
1.40001
1.40001
1.83873
1.40001
1.40001
1.84129
1.03121
1.40001
1.40001
1.40001
1.40001
1.40001
1.40001
1.75664
1.40001
1.40001
1.84322
1.84109
1.40001
1.40001
1.40001
1.83909
1.83942
1.40001
1.3997
1.84031
1.40001
1.40001
1.40001
1.40002
1.08867
1.43017
1.39615
1.39549
1.40001
1.40001
1.02279
1.84126
1.40001
0.999957
1.40001
1.8416
1.82332
1.05013
1.39939
1.84075
1.8385
1.84288
1.40001
1.40001
1.3243
1.78925
1.76613
0.993774
1.40001
1.40001
1.40001
1.84054
1.84267
1.02225
1.3972
1.40001
1.84178
1.1101
1.40001
1.84495
1.03805
1.36917
1.40727
1.40001
1.84924
1.40001
1.40001
1.40001
1.40001
1.40001
1.40001
1.40011
1.81126
1.40001
1.40001
1.84154
1.40001
1.40001
1.40001
1.84153
1.40001
1.02979
1.40001
1.40001
1.40001
1.55603
1.40001
1.40001
1.40001
1.40001
1.40001
1.17937
1.40001
1.10056
1.40001
1.84256
1.40007
1.26428
1.27089
1.40002
1.40393
1.62607
1.40001
1.40001
1.01055
1.84246
1.842
1.84129
1.40001
1.03451
1.01737
1.40001
1.8407
1.40001
1.40001
1.40001
1.40001
1.40001
1.40004
1.40001
1.03717
1.68245
1.40001
1.40001
1.05766
1.37805
1.40001
1.40001
1.40001
1.40001
1.01054
1.40001
1.07161
1.40001
1.40001
1.84616
1.40001
1.40001
1.04752
1.40001
1.84185
1.40001
1.01113
1.40001
1.03791
1.40001
1.40872
1.84076
1.85219
1.40001
1.40001
1.83858
1.40001
1.40001
1.50067
1.39696
1.40001
1.39823
1.40001
1.84211
1.40001
0.987298
1.40002
1.84091
1.39906
1.40001
1.40001
1.1875
1.40001
1.39909
1.04733
1.84438
1.56222
1.40001
1.40001
1.29936
1.40001
1.40001
1.40001
1.17596
1.40001
1.40001
1.40001
1.84233
1.40001
1.02417
1.4
1.40001
1.40001
1.40001
1.02649
1.84175
1.80369
1.05055
1.40001
1.8469
1.40001
1.40001
1.842
1.83904
1.77339
1.0283
1.39774
1.39928
1.40001
1.84195
1.40001
1.40001
1.40001
1.40001
1.84067
1.40005
1.40001
1.40001
1.83951
1.40001
1.40001
1.84187
1.03089
1.40001
1.40001
1.40001
1.03358
1.40001
1.4
1.4
1.39869
1.40001
1.40001
1.40001
1.40001
1.74527
1.40001
1.84108
1.84087
1.84904
1.84111
1.84082
1.84097
1.40001
1.84209
1.40001
1.84246
1.84158
1.40001
1.39886
1.0311
1.7794
1.39992
1.40001
1.40001
1.40001
1.40001
1.38383
1.40001
1.47021
1.40001
1.40001
1.40001
1.243
1.84201
1.84234
1.84702
1.78699
1.39987
1.40001
1.4219
1.84111
1.39796
1.45444
1.39728
1.03646
1.40001
1.40003
1.40001
1.40001
1.40001
1.40001
1.40001
1.84061
1.0419
1.84092
1.84161
1.39535
1.0808
1.40001
1.40001
1.40001
1.84222
1.08286
1.78797
1.02572
1.84233
1.84698
1.03836
1.84487
1.42341
1.40001
1.84378
1.18458
1.40001
1.39872
1.05373
1.40001
1.07352
1.40001
1.84107
1.84238
1.15094
1.40001
1.83945
1.02556
1.40001
1.03303
1.40001
1.84084
1.40001
1.40001
1.84655
1.40001
1.22619
1.40001
1.39967
1.06985
1.84462
1.39949
1.40001
1.10157
1.40001
1.40001
1.40001
1.40001
1.63496
1.40001
1.84128
1.40001
1.40001
1.84239
1.40001
1.40001
1.83941
1.40001
1.06779
1.40001
1.0411
1.40002
1.40001
1.40001
1.40001
1.40001
1.82181
1.659
1.8417
1.40001
1.84158
1.81085
1.01225
1.02384
1.40001
1.40001
1.84027
1.40001
1.07178
1.40001
1.38037
1.40001
1.40001
1.84239
1.40001
1.83888
1.05687
1.84374
1.40001
1.03903
1.40001
1.40001
1.84629
1.84084
1.40001
1.40004
1.40001
1.84632
1.40001
1.40001
1.02775
1.39942
1.07062
1.40001
1.40001
1.40001
1.84345
1.84055
1.84007
1.40001
1.40001
0.999985
1.40001
1.84134
1.40001
1.40001
1.40001
1.81982
1.8424
1.84094
1.06758
1.84216
1.84127
1.05654
1.83987
1.40005
1.05407
1.4072
1.40001
1.40001
1.84056
1.07631
1.68542
1.0789
1.8414
1.39729
1.04266
1.84315
1.40001
1.40001
1.40001
1.40001
1.84113
1.83871
1.03771
1.40001
1.40003
1.03548
1.40004
1.40001
1.03074
1.04247
1.70785
1.84149
1.39844
1.84107
1.40001
1.83963
1.21111
1.0457
1.84176
1.85267
1.40001
1.84157
1.40001
1.40001
1.84202
1.40001
1.73265
1.83933
1.40001
1.40001
1.40001
1.40001
1.84087
1.83725
1.84492
1.40001
1.40001
1.84212
1.84238
1.84193
1.40001
1.84071
1.40001
1.40001
1.40001
1.40001
1.40001
1.02851
1.23059
1.02429
1.40001
1.40001
1.84114
1.40001
1.40001
1.83872
1.05181
1.40001
1.84204
1.83735
1.82254
1.0221
1.40001
1.0281
1.40001
1.40003
1.8395
1.62081
1.83984
1.80362
1.40001
0.998985
1.40001
1.84512
1.71308
1.02345
1.40001
1.40001
1.40001
1.20255
1.40001
1.40001
1.84661
1.40001
1.0386
1.84197
1.40001
1.40001
1.40001
1.40001
1.40001
1.75507
1.50079
1.40001
1.84075
1.40001
1.84024
1.40001
1.39756
1.40001
1.8413
1.84148
1.84323
1.84401
1.39958
1.84127
1.40001
1.84149
1.84255
1.77355
1.40001
1.40001
1.03455
1.84239
1.40001
1.40001
1.84635
1.84184
1.83878
1.40001
1.84074
1.40001
1.40001
1.40004
1.84135
1.84067
1.52051
1.50049
1.84101
1.84043
1.09111
1.40001
1.40001
1.40001
1.40001
1.40001
1.55446
1.40001
1.40001
1.767
1.06288
1.39998
1.40001
1.8425
1.39991
1.39981
1.46085
1.81307
1.8405
1.31555
1.40001
1.08993
1.40001
1.39142
1.84193
1.8449
1.83933
1.39902
1.40001
1.40001
1.02843
1.40001
1.40001
1.84158
1.44822
1.40001
1.40001
1.40001
1.40001
1.40001
1.40001
1.40001
1.39994
1.83921
1.40002
1.40001
1.40001
1.40001
1.40001
1.68806
1.40001
1.60794
1.40001
1.40001
1.84171
1.84884
1.04176
1.39882
1.40001
1.4
1.40001
1.03527
1.84215
1.84217
1.40001
1.40001
1.40001
1.40001
1.40001
1.40001
1.40001
1.40001
1.84236
1.83622
1.0198
1.44987
1.03721
1.40001
1.0294
1.40001
1.8422
1.52283
1.40001
1.40001
1.1244
1.40001
1.82309
1.19057
1.3965
1.03904
1.40001
1.40001
1.83755
1.40005
1.39699
1.01782
1.84115
1.84525
1.40001
1.40001
1.40001
1.40001
1.81246
1.40001
1.40001
1.84161
1.39894
1.84256
1.40002
1.40001
1.40001
1.07725
1.40001
1.40001
1.84052
1.04383
1.16225
1.03117
1.84241
1.39937
1.40001
1.8416
1.03927
1.03412
1.41253
1.40001
1.40001
1.83897
1.40005
1.5938
1.40001
1.40001
1.83944
1.03731
1.40001
1.40001
1.40014
1.84249
1.40011
1.82667
1.40001
1.40004
1.40001
1.40001
1.11318
1.40001
1.17822
1.40002
1.40001
1.84564
1.07648
1.40001
1.18018
1.18897
1.40001
1.40001
1.84037
1.40001
1.40001
1.40001
1.84148
1.84157
1.40006
1.83286
1.83916
1.18397
1.84133
1.81877
1.40001
1.40001
1.8397
1.4
1.40001
1.40001
1.40001
1.40001
1.84489
1.8419