/*--------------------------------*- C++ -*----------------------------------*\
  =========                 |
  \\      /  F ield         | OpenFOAM: The Open Source CFD Toolbox
   \\    /   O peration     | Website:  https://openfoam.org
    \\  /    A nd           | Version:  12
     \\/     M anipulation  |
\*---------------------------------------------------------------------------*/
FoamFile
{
    format      ascii;
    class       surfaceScalarField;
    location    "26.5";
    object      phi;
}
// * * * * * * * * * * * * * * * * * * * * * * * * * * * * * * * * * * * * * //

dimensions      [1 0 -1 0 0 0 0];

internalField   nonuniform List<scalar> 
19404
(
-0.000154059
-2.85089e-07
-0.00015667
-2.71442e-07
-0.000157271
-1.25667e-07
-0.000157381
2.73587e-08
-0.000157253
2.16188e-07
-0.000157022
3.07709e-07
-0.00015669
3.55028e-07
-0.000153513
1.00004e-06
-0.000144658
2.43273e-06
-0.000140362
2.14704e-06
-0.000140077
1.49076e-06
-0.000139989
1.17303e-06
-0.000140747
8.01573e-07
-0.000145345
-3.48262e-07
-0.000150904
-1.40689e-06
-0.000153773
-1.37543e-06
-0.000154833
-9.10563e-07
-0.000155044
-6.47555e-07
-0.000154932
-3.30224e-07
-0.000154211
4.64939e-08
-0.000153564
4.01486e-07
-0.000153369
5.11237e-07
-0.000153865
6.01018e-07
-0.000155288
4.28951e-07
-0.000156308
4.07515e-08
-0.000157041
-2.89523e-07
-0.000157547
-5.19798e-07
-0.00015767
-7.20296e-07
-0.000157563
-7.98576e-07
-0.000156382
-2.58189e-07
-0.000155247
-9.75474e-08
-0.000154811
-1.6975e-07
-0.000154668
-2.2016e-07
-0.000154684
-3.2319e-07
-0.000154807
-4.77957e-07
-0.000155556
-6.72099e-07
-0.000160151
-7.34967e-07
-0.000166692
-2.80589e-07
-0.000169228
1.12642e-07
-0.000169752
4.53969e-07
-0.000169791
8.58772e-07
-0.000169229
1.54242e-06
-0.000163951
2.27229e-06
-0.000153987
2.27198e-06
-0.000149527
1.36015e-06
-0.000148925
9.02762e-07
-0.00014893
4.95368e-07
-0.000149039
1.66868e-07
-0.000149535
-8.89186e-08
-0.000152957
-2.86164e-07
-0.000163573
-4.47666e-07
-0.000171439
-2.33999e-07
-0.000173676
-1.23018e-08
-0.000174121
2.02954e-07
-0.000174189
3.94784e-07
-0.00017387
7.49729e-07
-0.000170598
1.43137e-06
-0.000159262
2.14918e-06
-0.000150817
1.50741e-06
-0.000148861
1.11965e-06
-0.000148846
7.02117e-07
-0.000148895
2.14325e-07
-0.000149734
-1.62564e-07
-0.000156969
-4.77813e-07
-0.000170831
-7.55837e-07
-0.0001774
-8.22878e-07
-0.000178821
-7.30965e-07
-0.000179114
-6.17053e-07
-0.00017913
-5.68406e-07
-0.000175628
-3.72006e-07
-0.000163342
7.47446e-09
-0.00015473
4.15727e-08
-0.000152364
-7.50023e-08
-0.000152202
-2.75827e-07
-0.000152448
-5.76143e-07
-0.0001571
-8.51719e-07
-0.000167288
-1.03712e-06
-0.000173371
-1.15778e-06
-0.000175512
-1.13703e-06
-0.000176134
-1.03207e-06
-0.000176342
-1.01909e-06
-0.000175626
-1.02244e-06
-0.000166803
-7.95664e-07
-0.00015569
-4.85922e-07
-0.000151575
-8.88376e-08
-0.000151543
7.26487e-08
-0.000152833
-8.17752e-09
-0.000163654
3.15327e-07
-0.000174828
1.23869e-06
-0.000179293
2.35715e-06
-0.000180723
3.12709e-06
-0.000181152
2.7062e-06
-0.000178464
1.8082e-06
-0.000164671
6.79093e-07
-0.000148036
-4.80267e-07
-0.000135255
-2.10067e-08
-0.000121977
-1.15606e-05
-0.000114318
-5.91957e-05
3.5236e-05
-0.000154708
-3.29344e-07
-0.000156836
-1.25478e-07
-0.000157303
1.27623e-07
-0.000157332
3.83486e-07
-0.000157165
5.68821e-07
-0.000156888
5.72951e-07
-0.000154856
1.18677e-06
-0.000148992
2.73487e-06
-0.000144898
3.51986e-06
-0.000143256
3.40675e-06
-0.000142716
2.70487e-06
-0.00014271
1.9094e-06
-0.000145103
5.11819e-07
-0.000149123
-8.95533e-07
-0.000151989
-1.68257e-06
-0.00015339
-1.68082e-06
-0.000153741
-1.43006e-06
-0.000153677
-8.19195e-07
-0.000153101
-1.99138e-07
-0.000152641
2.27683e-07
-0.000152478
4.23154e-07
-0.000152606
3.59357e-07
-0.000154508
4.11594e-07
-0.000157305
-2.24416e-07
-0.000158393
-3.93162e-07
-0.000158575
-4.149e-07
-0.000158586
-5.914e-07
-0.000158526
-8.06518e-07
-0.000157536
-3.87177e-07
-0.000154903
4.29556e-07
-0.000154088
1.00891e-07
-0.000153961
-3.22213e-07
-0.00015399
-5.89058e-07
-0.000154267
-8.79589e-07
-0.000154607
-1.14826e-06
-0.000155538
-1.40421e-06
-0.000159925
-1.43118e-06
-0.000165672
-8.22438e-07
-0.00016758
3.54819e-07
-0.000167928
1.52891e-06
-0.000167506
2.49388e-06
-0.000166527
3.25516e-06
-0.000163628
3.57145e-06
-0.000156645
3.69935e-06
-0.000151419
2.20519e-06
-0.000150179
1.22316e-06
-0.000150075
6.06014e-07
-0.000150072
1.23318e-07
-0.000150314
-3.42401e-07
-0.000153356
-8.64559e-07
-0.000163431
-9.51726e-07
-0.000170701
-6.74714e-07
-0.0001726
-1.18898e-07
-0.000172952
4.69874e-07
-0.000172701
1.0573e-06
-0.000171844
1.69589e-06
-0.000169129
2.38018e-06
-0.000161008
2.95663e-06
-0.000152967
2.73372e-06
-0.000150294
1.74506e-06
-0.000149918
9.7514e-07
-0.000149934
3.86419e-07
-0.000150381
-8.12624e-08
-0.000156869
-6.08169e-07
-0.000169696
-1.27035e-06
-0.000175791
-1.51667e-06
-0.000177231
-1.29909e-06
-0.000177547
-1.0461e-06
-0.000177545
-8.77296e-07
-0.000174696
-5.97237e-07
-0.000163377
-6.09518e-08
-0.000155088
1.96418e-07
-0.000152782
-2.37718e-08
-0.000152562
-3.54012e-07
-0.000152786
-7.14397e-07
-0.000157162
-1.13633e-06
-0.00016697
-1.39992e-06
-0.000172921
-1.47001e-06
-0.000175171
-1.44221e-06
-0.000175812
-1.41197e-06
-0.000176017
-1.3244e-06
-0.000175252
-1.26281e-06
-0.000166986
-1.09627e-06
-0.000155605
-9.18826e-07
-0.000150298
-9.31866e-07
-0.000149246
-7.33096e-07
-0.000149541
-5.62813e-07
-0.000155835
-4.3552e-07
-0.000167297
9.94872e-07
-0.00017377
2.76376e-06
-0.000175799
3.12381e-06
-0.00017617
2.4854e-06
-0.000173162
1.31747e-06
-0.000159829
-1.1176e-06
-0.000142557
-3.6933e-06
-0.000125968
-4.7949e-06
-0.000111324
-2.21457e-05
-0.000144372
-7.28452e-05
4.0094e-05
-0.00015307
4.74651e-07
-0.000154848
4.79934e-07
-0.000155346
6.20943e-07
-0.000155387
8.3293e-07
-0.000155255
8.66099e-07
-0.000154032
1.09132e-06
-0.000149432
2.2724e-06
-0.00014656
3.1446e-06
-0.000145621
3.5767e-06
-0.000145169
3.5823e-06
-0.000144976
3.30653e-06
-0.000146222
2.38658e-06
-0.000149814
7.42977e-07
-0.000151373
-1.68698e-07
-0.000151712
-1.01785e-06
-0.000151587
-1.60014e-06
-0.000150683
-7.13471e-07
-0.000149949
-4.78481e-07
-0.00014988
-5.78131e-07
-0.000150156
-5.93567e-07
-0.000150634
-6.21326e-07
-0.000151862
-7.32986e-07
-0.000154915
-8.23067e-07
-0.000157706
-5.72287e-07
-0.000158687
-3.99362e-07
-0.000158713
-1.79292e-07
-0.000158453
3.66929e-07
-0.000157208
1.20687e-06
-0.000154856
1.61605e-06
-0.000153053
1.08565e-06
-0.000152487
5.57167e-08
-0.000152453
-8.5337e-07
-0.000152604
-1.42912e-06
-0.000152984
-1.87665e-06
-0.000153299
-2.18251e-06
-0.000153721
-2.30668e-06
-0.000155705
-2.02535e-06
-0.000159979
-7.67566e-07
-0.00016263
1.26751e-06
-0.000163602
2.73893e-06
-0.00016385
3.44712e-06
-0.000163787
3.8228e-06
-0.000163398
4.04192e-06
-0.00015891
4.03869e-06
-0.000152683
2.85959e-06
-0.000150556
1.51977e-06
-0.000150205
6.05911e-07
-0.000150181
-6.89864e-08
-0.000150411
-8.71473e-07
-0.000152589
-1.59163e-06
-0.000160322
-1.89308e-06
-0.000166683
-1.10722e-06
-0.000168742
5.75992e-08
-0.000169197
8.84343e-07
-0.000169012
1.6186e-06
-0.0001685
2.34972e-06
-0.000167042
2.90454e-06
-0.000161391
3.237e-06
-0.000154092
3.01109e-06
-0.000150574
2.10737e-06
-0.000149678
1.29595e-06
-0.000149671
6.79032e-07
-0.00015001
1.22807e-07
-0.000155332
-6.95085e-07
-0.000165822
-1.51811e-06
-0.000171184
-1.73301e-06
-0.000172703
-1.5039e-06
-0.000173089
-1.21272e-06
-0.000173123
-9.42962e-07
-0.000170832
-4.87446e-07
-0.000161016
3.39255e-07
-0.000153442
6.05497e-07
-0.000151294
2.81223e-07
-0.000151158
-1.88484e-07
-0.000151288
-6.96606e-07
-0.000154389
-1.24711e-06
-0.000163361
-1.50086e-06
-0.000169147
-1.35847e-06
-0.000171152
-1.32188e-06
-0.000171847
-1.35905e-06
-0.00017208
-1.35124e-06
-0.000171658
-1.42174e-06
-0.000165236
-1.37681e-06
-0.00015324
-1.68169e-06
-0.000146098
-2.37627e-06
-0.000144092
-2.59401e-06
-0.000143986
-2.35825e-06
-0.000146474
-2.49246e-06
-0.000157515
-1.74904e-06
-0.000166317
5.37913e-07
-0.000168762
1.77091e-06
-0.000169159
1.61634e-06
-0.000166594
5.19259e-07
-0.00015554
-2.54322e-06
-0.000140511
-6.39232e-06
-0.000124728
-1.02273e-05
-0.000110986
-3.11004e-05
-0.00014697
-7.32513e-05
3.70971e-05
-0.000151517
8.00319e-07
-0.00015289
7.88187e-07
-0.000153313
8.58987e-07
-0.000153351
9.28404e-07
-0.000152936
9.845e-07
-0.000149047
1.8364e-06
-0.000145718
2.79776e-06
-0.000145077
3.18667e-06
-0.000144934
3.33018e-06
-0.000144896
3.44804e-06
-0.000146569
3.21044e-06
-0.000150555
2.15613e-06
-0.000152539
1.41371e-06
-0.000152627
3.90315e-07
-0.000151823
1.24402e-07
-0.000148465
4.28811e-07
-0.000147412
1.89759e-07
-0.000147322
-4.82832e-07
-0.000147518
-1.22704e-06
-0.000148415
-1.85655e-06
-0.000149605
-2.29665e-06
-0.000151155
-2.37988e-06
-0.000153655
-2.15296e-06
-0.000155608
-1.13414e-06
-0.000156163
3.57374e-07
-0.000155854
1.69964e-06
-0.000154575
2.71127e-06
-0.000154212
3.19882e-06
-0.000154174
2.49342e-06
-0.000153447
1.41262e-06
-0.000152044
-1.28752e-07
-0.000151654
-1.29531e-06
-0.0001517
-2.66227e-06
-0.000151652
-2.98087e-06
-0.000151358
-3.08151e-06
-0.000150054
-2.4169e-06
-0.000149653
-1.36085e-06
-0.000151669
-4.93021e-07
-0.000156393
1.43788e-06
-0.00015884
3.1494e-06
-0.000160043
3.7819e-06
-0.000160712
3.88654e-06
-0.000160747
3.93973e-06
-0.000159151
3.88589e-06
-0.00015329
3.11091e-06
-0.000150558
1.64705e-06
-0.000150093
5.27978e-07
-0.000150077
-3.54895e-07
-0.000150332
-1.18721e-06
-0.000151111
-1.95686e-06
-0.000155148
-2.35562e-06
-0.000160981
-1.49108e-06
-0.000163432
2.9978e-08
-0.000164084
1.23983e-06
-0.000164058
2.1081e-06
-0.000163748
2.79196e-06
-0.00016334
3.23725e-06
-0.000160157
3.49627e-06
-0.000153216
3.23189e-06
-0.000149443
2.54177e-06
-0.000148411
1.69531e-06
-0.000148267
8.64016e-07
-0.000148524
9.02574e-08
-0.000152576
-8.72384e-07
-0.00016129
-1.77021e-06
-0.000165722
-1.90637e-06
-0.00016693
-1.57265e-06
-0.000167214
-1.14044e-06
-0.000167136
-5.2873e-07
-0.000164778
1.94305e-07
-0.000156443
1.00199e-06
-0.000149826
1.13929e-06
-0.00014791
5.9479e-07
-0.000147697
-4.97722e-08
-0.000147758
-5.69083e-07
-0.000149146
-1.24222e-06
-0.000156804
-1.83748e-06
-0.00016374
-1.53509e-06
-0.000165821
-1.06231e-06
-0.000166355
-9.4112e-07
-0.000166596
-1.05233e-06
-0.000166555
-1.28931e-06
-0.000162415
-1.44114e-06
-0.000151372
-1.92981e-06
-0.000142298
-3.16981e-06
-0.000138124
-4.22507e-06
-0.000137334
-4.68146e-06
-0.000137503
-4.96453e-06
-0.000142147
-5.35248e-06
-0.000150586
-4.23739e-06
-0.000154666
-2.41657e-06
-0.000155406
-1.94389e-06
-0.000154939
-2.73075e-06
-0.00014833
-5.12766e-06
-0.000137909
-8.44881e-06
-0.000126348
-1.19698e-05
-0.000117416
-2.90853e-05
-0.000140174
-7.33e-05
4.01442e-05
-0.000149987
6.54832e-07
-0.000151061
7.25836e-07
-0.000151304
8.77191e-07
-0.000151137
9.89482e-07
-0.000148755
1.70188e-06
-0.000144579
2.74345e-06
-0.000143257
3.15172e-06
-0.000142977
3.21287e-06
-0.000142914
3.1595e-06
-0.000143869
2.95484e-06
-0.000148476
2.52151e-06
-0.0001516
2.10683e-06
-0.000151787
1.56817e-06
-0.000151386
1.46141e-06
-0.000149226
1.78176e-06
-0.000147558
1.78944e-06
-0.000146918
4.25997e-07
-0.000146611
-5.68611e-07
-0.000146598
-1.47254e-06
-0.00014741
-2.53092e-06
-0.000148182
-3.52816e-06
-0.000148211
-3.58426e-06
-0.000148217
-2.41288e-06
-0.000148754
-6.69988e-07
-0.000150578
1.35498e-06
-0.00015148
3.14664e-06
-0.000151774
3.93603e-06
-0.000153125
3.805e-06
-0.000154471
2.42347e-06
-0.000154601
1.26635e-06
-0.000153359
2.10894e-07
-0.000151322
-1.59649e-06
-0.000150409
-2.85781e-06
-0.00014929
-3.42832e-06
-0.000146533
-2.5949e-06
-0.000143709
-1.18741e-06
-0.000143001
-1.90619e-07
-0.000143625
2.74369e-07
-0.000149412
1.14839e-06
-0.000154514
2.67493e-06
-0.000156478
3.50714e-06
-0.000157191
3.67274e-06
-0.000157348
3.6534e-06
-0.00015712
3.54766e-06
-0.000153633
3.30632e-06
-0.000150001
1.86054e-06
-0.000149007
5.5239e-07
-0.000148784
-4.48176e-07
-0.000148786
-1.22258e-06
-0.000148734
-1.68544e-06
-0.000149246
-1.91535e-06
-0.000153291
-1.61652e-06
-0.000156682
-9.28007e-09
-0.000157883
1.56091e-06
-0.000158257
2.45125e-06
-0.000158344
2.97736e-06
-0.000158318
3.29433e-06
-0.00015702
3.4616e-06
-0.000151194
3.36077e-06
-0.000147494
2.43391e-06
-0.000146421
1.39345e-06
-0.000146201
5.34864e-07
-0.000146371
-3.64767e-07
-0.000149539
-1.25231e-06
-0.000156463
-1.91975e-06
-0.000159622
-1.78843e-06
-0.000160463
-1.20921e-06
-0.000160613
-5.65902e-07
-0.000160182
2.80952e-07
-0.000158393
1.0852e-06
-0.000152043
1.68026e-06
-0.000145775
1.62844e-06
-0.000143783
5.41777e-07
-0.000143703
-2.40714e-07
-0.00014377
-8.35903e-07
-0.000144386
-1.56952e-06
-0.000149255
-2.29634e-06
-0.000157499
-1.90337e-06
-0.000160578
-6.88539e-07
-0.000161072
-3.4908e-08
-0.000161295
-4.28095e-08
-0.000161358
-3.58861e-07
-0.000159015
-6.42606e-07
-0.000150189
-1.44838e-06
-0.000139975
-3.04024e-06
-0.000133527
-4.32455e-06
-0.000131213
-6.32348e-06
-0.000131093
-7.66457e-06
-0.000132119
-8.64832e-06
-0.000138637
-9.2095e-06
-0.000145225
-8.36845e-06
-0.000147895
-7.79432e-06
-0.00014825
-8.51977e-06
-0.000146708
-9.92933e-06
-0.000140703
-1.19014e-05
-0.000131035
-1.41746e-05
-0.000120901
-2.5016e-05
-0.000134694
-7.07558e-05
4.81312e-05
-0.000147897
3.64146e-07
-0.000148583
4.92248e-07
-0.000148553
8.58903e-07
-0.000147283
1.67811e-06
-0.000143572
2.69887e-06
-0.000141492
3.20499e-06
-0.000141001
3.28115e-06
-0.000140875
3.06124e-06
-0.000141018
2.59415e-06
-0.000143744
2.14357e-06
-0.00014855
2.03215e-06
-0.000149845
1.82337e-06
-0.00014958
2.03247e-06
-0.000148284
2.7027e-06
-0.000148171
2.99143e-06
-0.000148034
1.97687e-06
-0.000147686
8.05669e-07
-0.000147273
-8.12438e-07
-0.000147279
-2.22438e-06
-0.000147247
-3.57199e-06
-0.000146602
-3.79773e-06
-0.000143014
-2.67064e-06
-0.000140637
-8.89268e-07
-0.000140427
2.22706e-07
-0.000143032
1.2068e-06
-0.000147424
2.92362e-06
-0.000150781
4.00798e-06
-0.000153314
3.71049e-06
-0.000154674
2.28029e-06
-0.000155039
1.17043e-06
-0.000154792
2.24213e-07
-0.00015242
-6.46798e-07
-0.000148533
-2.40257e-06
-0.00014354
-1.98923e-06
-0.000139651
-7.25889e-07
-0.000138019
-5.4036e-09
-0.000137712
4.59563e-07
-0.000137907
6.89307e-07
-0.000142738
9.95188e-07
-0.000150342
1.84706e-06
-0.000153291
2.87571e-06
-0.000154104
3.30162e-06
-0.000154317
3.38366e-06
-0.00015431
3.31035e-06
-0.00015331
3.15789e-06
-0.000149474
2.29256e-06
-0.00014718
7.69539e-07
-0.000146433
-3.7061e-07
-0.000145849
-1.00082e-06
-0.000144981
-1.29009e-06
-0.000144846
-1.21415e-06
-0.000145757
-1.05185e-06
-0.00014999
-1.63039e-07
-0.000152637
1.49271e-06
-0.000153602
2.55518e-06
-0.000154012
2.994e-06
-0.000154127
3.17737e-06
-0.000153728
3.18333e-06
-0.000149408
2.97581e-06
-0.000145559
1.83974e-06
-0.000144491
7.07851e-07
-0.00014427
-2.31485e-07
-0.000144376
-1.02719e-06
-0.000146148
-1.6597e-06
-0.000151285
-1.96708e-06
-0.000153983
-1.36956e-06
-0.000154702
-4.48572e-07
-0.000154817
3.78279e-07
-0.000154457
1.19124e-06
-0.000153626
1.93329e-06
-0.000150019
2.4657e-06
-0.000144034
2.1191e-06
-0.000140627
7.42756e-07
-0.000140255
-4.02707e-07
-0.000140334
-1.71138e-06
-0.000140658
-2.55494e-06
-0.000142263
-3.10724e-06
-0.000149221
-2.99194e-06
-0.00015573
-1.08787e-06
-0.000157839
5.61426e-07
-0.000158173
1.05713e-06
-0.00015834
1.07111e-06
-0.000156991
9.33155e-07
-0.000150057
4.05319e-07
-0.000140164
-1.54018e-06
-0.000132268
-4.10783e-06
-0.00012794
-6.5603e-06
-0.000127018
-9.26993e-06
-0.000126987
-1.12994e-05
-0.000129765
-1.26769e-05
-0.000136445
-1.37348e-05
-0.000140437
-1.39709e-05
-0.000141928
-1.43687e-05
-0.00014225
-1.59841e-05
-0.000141174
-1.72829e-05
-0.000136752
-1.8141e-05
-0.000128819
-2.34341e-05
-0.000127222
-6.67305e-05
6.27128e-05
-0.000145226
2.40665e-07
-0.000145128
5.12673e-07
-0.00014422
1.55799e-06
-0.000142183
2.19889e-06
-0.000140642
2.56365e-06
-0.000140045
2.83147e-06
-0.000139911
2.91915e-06
-0.000139838
2.59377e-06
-0.000140394
1.82738e-06
-0.000143487
1.65694e-06
-0.000146259
1.63947e-06
-0.000146804
2.16464e-06
-0.000146587
3.16605e-06
-0.00014655
3.63875e-06
-0.000147702
2.86498e-06
-0.000149317
1.80574e-06
-0.000149944
4.75024e-07
-0.000149744
-7.49389e-07
-0.000148987
-2.05468e-06
-0.000146854
-3.52412e-06
-0.000141005
-2.35153e-06
-0.000136328
-4.55025e-07
-0.00013501
4.59469e-07
-0.000134838
8.77614e-07
-0.000136146
1.19433e-06
-0.000143371
1.88487e-06
-0.000150857
2.89871e-06
-0.000154031
2.79123e-06
-0.000154785
2.01381e-06
-0.000154891
1.20927e-06
-0.000154773
3.97625e-07
-0.000153325
-6.97377e-08
-0.000144784
4.02866e-07
-0.000136948
9.32714e-07
-0.000134429
6.97346e-07
-0.000134023
5.61325e-07
-0.00013406
4.82432e-07
-0.000134631
5.1976e-07
-0.000138459
6.31499e-07
-0.00014634
1.2551e-06
-0.000150296
2.47536e-06
-0.000151301
3.2023e-06
-0.000151587
3.40888e-06
-0.000151705
3.33095e-06
-0.000151661
2.90306e-06
-0.000149806
2.52219e-06
-0.000146452
1.15654e-06
-0.00014425
2.90828e-08
-0.000142763
-7.60731e-07
-0.000141369
-1.02984e-06
-0.000140622
-8.02243e-07
-0.000140679
-5.3852e-07
-0.000143581
-2.24251e-07
-0.000148438
1.04586e-06
-0.000150436
2.33302e-06
-0.000151065
2.84595e-06
-0.000151267
2.96493e-06
-0.000151224
2.72411e-06
-0.0001487
2.40244e-06
-0.000144226
1.44935e-06
-0.000142591
1.70106e-07
-0.000142201
-1.21706e-06
-0.000142208
-1.73895e-06
-0.000142703
-2.08946e-06
-0.000146197
-2.11522e-06
-0.000149791
-1.07122e-06
-0.000151027
3.26943e-07
-0.00015126
1.43966e-06
-0.000150959
2.25602e-06
-0.000150458
2.96682e-06
-0.00014901
3.30842e-06
-0.000144416
2.85434e-06
-0.000140208
1.21956e-06
-0.000138034
-5.68643e-07
-0.000137534
-2.66219e-06
-0.000137576
-3.79243e-06
-0.000137699
-4.36206e-06
-0.000140968
-4.61358e-06
-0.000149699
-3.18398e-06
-0.000154556
-1.88927e-07
-0.000155483
1.54618e-06
-0.00015566
2.3124e-06
-0.000155216
2.6138e-06
-0.000150954
2.43391e-06
-0.000141876
1.29698e-06
-0.000133775
-2.67021e-06
-0.00012859
-6.16053e-06
-0.000125571
-9.39133e-06
-0.000124882
-1.21442e-05
-0.000125921
-1.4787e-05
-0.000131682
-1.75362e-05
-0.00013654
-1.82629e-05
-0.000138267
-1.81345e-05
-0.000138964
-1.93135e-05
-0.000139088
-2.15144e-05
-0.000138003
-2.2385e-05
-0.000133404
-2.43338e-05
-0.00012481
-6.33933e-05
7.74156e-05
-0.000142757
8.99652e-07
-0.000141248
1.79898e-06
-0.000139436
1.94234e-06
-0.000138712
1.77011e-06
-0.000138574
1.58595e-06
-0.00013897
1.44455e-06
-0.000139768
1.48858e-06
-0.000140191
1.46369e-06
-0.000140738
1.54991e-06
-0.000142051
1.59566e-06
-0.000143107
2.28868e-06
-0.0001435
3.44563e-06
-0.00014381
4.51232e-06
-0.000146039
3.41599e-06
-0.000149466
2.58942e-06
-0.000151564
1.21455e-06
-0.00015207
1.2951e-07
-0.000151974
-5.80063e-07
-0.000150331
-1.22405e-06
-0.000141931
-1.25531e-06
-0.000134248
5.75301e-07
-0.000132221
1.03304e-06
-0.000131914
1.02225e-06
-0.000131955
1.03437e-06
-0.000132809
1.00614e-06
-0.000140269
9.52241e-07
-0.000151337
1.49437e-06
-0.000154419
2.09551e-06
-0.000154629
1.80027e-06
-0.000154517
1.48471e-06
-0.000153956
1.45844e-06
-0.000150451
2.17371e-06
-0.000141485
3.03686e-06
-0.000134239
2.19875e-06
-0.000131963
1.32399e-06
-0.00013181
9.19006e-07
-0.000131841
4.29893e-07
-0.000132381
8.13764e-08
-0.000135206
-1.13395e-07
-0.00014227
4.39601e-07
-0.000147766
2.00504e-06
-0.000149483
3.30215e-06
-0.000149956
3.70712e-06
-0.00015037
3.54348e-06
-0.000150527
2.86253e-06
-0.000150175
2.33264e-06
-0.000146953
1.58608e-06
-0.00014328
-2.2668e-08
-0.00014032
-8.58035e-07
-0.000138342
-9.87556e-07
-0.000137476
-7.90092e-07
-0.000137349
-4.82346e-07
-0.000138498
-2.90392e-07
-0.000144327
4.04949e-07
-0.000148348
1.82212e-06
-0.00014965
2.53543e-06
-0.000150037
2.50048e-06
-0.000150051
2.17948e-06
-0.000149375
1.87303e-06
-0.000145264
1.15092e-06
-0.000141825
-4.53727e-07
-0.000140649
-1.70302e-06
-0.000140338
-2.23848e-06
-0.000140372
-2.33562e-06
-0.000141327
-2.34681e-06
-0.000145394
-1.53944e-06
-0.000148354
3.45387e-07
-0.000149256
1.9675e-06
-0.000149245
3.08118e-06
-0.0001489
3.93817e-06
-0.000148549
4.14927e-06
-0.000146395
3.93738e-06
-0.000142014
2.36879e-06
-0.000138287
-3.70157e-07
-0.000135589
-2.75226e-06
-0.000134623
-4.60764e-06
-0.000134512
-5.68131e-06
-0.000134862
-6.21835e-06
-0.000140168
-6.07861e-06
-0.00014816
-3.26462e-06
-0.00015139
3.66194e-07
-0.000152021
2.3583e-06
-0.000152191
3.20283e-06
-0.00015078
3.37545e-06
-0.00014439
2.36451e-06
-0.00013649
-5.11518e-07
-0.000130899
-4.97128e-06
-0.000127636
-9.30173e-06
-0.000126376
-1.29796e-05
-0.000126613
-1.61686e-05
-0.000128624
-1.897e-05
-0.000133069
-1.989e-05
-0.000135502
-1.94052e-05
-0.000136679
-1.99653e-05
-0.000137193
-2.23633e-05
-0.000137181
-2.43813e-05
-0.000134552
-2.67044e-05
-0.000124896
-6.36583e-05
8.5743e-05
-0.000140699
2.51579e-06
-0.000139751
2.69887e-06
-0.000138074
1.82152e-06
-0.000137104
1.3374e-06
-0.000137001
7.55463e-07
-0.000137485
-1.22666e-07
-0.000138423
-1.17553e-06
-0.000138938
-3.71515e-07
-0.000139191
8.43305e-07
-0.000139338
2.01283e-06
-0.000139959
3.1537e-06
-0.000141196
4.31342e-06
-0.000144132
4.58517e-06
-0.000148621
3.43496e-06
-0.000151793
1.97971e-06
-0.000152755
9.67238e-07
-0.000152822
1.53206e-07
-0.00015263
-5.60667e-07
-0.0001481
6.17467e-08
-0.000136563
1.95154e-06
-0.000131178
2.337e-06
-0.000130392
1.74341e-06
-0.000130338
1.38834e-06
-0.000130419
1.01009e-06
-0.00013142
7.04724e-07
-0.000138528
-8.29767e-08
-0.000150195
1.66206e-07
-0.00015363
1.34886e-06
-0.000153728
2.08742e-06
-0.000153327
2.69413e-06
-0.000151481
3.74273e-06
-0.000147708
4.45885e-06
-0.00014143
3.903e-06
-0.000134783
2.9394e-06
-0.000132219
1.93526e-06
-0.000131832
1.02932e-06
-0.000131825
2.61217e-07
-0.000131933
-2.56531e-07
-0.000132667
-3.55137e-07
-0.000136655
-1.56425e-07
-0.00014381
1.1484e-06
-0.000148027
3.11816e-06
-0.000149654
3.90847e-06
-0.000150339
3.55426e-06
-0.000150601
2.7577e-06
-0.000150587
1.99092e-06
-0.000148915
1.25337e-06
-0.000143769
-6.38597e-08
-0.000139004
-1.09973e-06
-0.000136205
-1.18656e-06
-0.000135173
-8.85381e-07
-0.00013497
-5.636e-07
-0.000135303
-4.2451e-07
-0.000140097
-7.22302e-08
-0.000146467
1.1315e-06
-0.000149009
2.02997e-06
-0.00014979
1.90713e-06
-0.000149972
1.64226e-06
-0.000149944
1.31722e-06
-0.000147731
9.04047e-07
-0.000142905
-1.72476e-07
-0.000139942
-1.74911e-06
-0.000138583
-2.20152e-06
-0.000138095
-2.53721e-06
-0.000138093
-2.45549e-06
-0.00014009
-2.21006e-06
-0.000144566
-7.85064e-07
-0.000147202
1.58054e-06
-0.00014811
3.31715e-06
-0.000148329
4.39483e-06
-0.000148411
4.61967e-06
-0.000148181
4.57705e-06
-0.000145289
3.89788e-06
-0.000140356
1.15166e-06
-0.000136312
-2.31321e-06
-0.000133325
-4.75734e-06
-0.00013203
-6.26255e-06
-0.000131969
-7.49805e-06
-0.000132565
-7.51553e-06
-0.000138742
-6.70836e-06
-0.00014529
-3.10376e-06
-0.000147511
3.88397e-07
-0.000147899
2.21326e-06
-0.00014799
2.88196e-06
-0.000145504
2.88963e-06
-0.000139766
1.05033e-06
-0.000134901
-3.42311e-06
-0.000131665
-8.05181e-06
-0.000129602
-1.25845e-05
-0.000128436
-1.63869e-05
-0.000128218
-1.904e-05
-0.000129052
-2.02128e-05
-0.000131475
-1.99651e-05
-0.000133358
-1.96548e-05
-0.00013498
-2.19016e-05
-0.000135449
-2.54018e-05
-0.000135069
-2.75393e-05
-0.000125375
-6.78584e-05
8.69746e-05
-0.000140217
3.67254e-06
-0.000140103
2.74711e-06
-0.000139737
1.9015e-06
-0.000138866
6.04301e-07
-0.000138606
-6.70249e-07
-0.000138463
-1.95272e-06
-0.000137521
-1.44672e-06
-0.000135204
-7.42409e-07
-0.000134019
6.34403e-07
-0.000133947
1.59305e-06
-0.000135379
2.49115e-06
-0.000140539
3.72048e-06
-0.000148194
4.10769e-06
-0.000152494
3.14903e-06
-0.000153469
2.12362e-06
-0.000153411
1.20318e-06
-0.00015318
7.24265e-07
-0.000150813
8.24068e-07
-0.000142876
2.81719e-06
-0.000135066
3.59488e-06
-0.000131242
2.78116e-06
-0.000130466
2.26374e-06
-0.000130376
1.66231e-06
-0.00013058
8.4667e-07
-0.000132108
-4.52929e-07
-0.000137736
-7.93298e-07
-0.000146348
-2.1435e-07
-0.000149861
1.42399e-06
-0.00015042
3.25393e-06
-0.000149911
4.56144e-06
-0.000148873
5.15934e-06
-0.000147244
5.00083e-06
-0.000143092
4.38991e-06
-0.00013766
3.21997e-06
-0.000134573
1.69988e-06
-0.00013338
3.29857e-07
-0.000132625
-3.15911e-07
-0.000132249
-1.66298e-07
-0.000132117
-4.72161e-08
-0.000132383
4.09818e-08
-0.000137413
2.2511e-07
-0.000145679
1.75756e-06
-0.000149793
3.2637e-06
-0.000151378
2.76602e-06
-0.000151873
1.8124e-06
-0.000151967
1.03643e-06
-0.000151412
4.52555e-07
-0.000145799
2.16948e-07
-0.000138662
-6.97669e-07
-0.000134695
-1.06547e-06
-0.00013336
-7.13799e-07
-0.000133107
-4.15236e-07
-0.000133183
-3.29523e-07
-0.000136038
-2.59812e-07
-0.000144067
3.78251e-07
-0.000149011
1.40665e-06
-0.000150388
1.50386e-06
-0.000150563
1.17983e-06
-0.000150575
9.03906e-07
-0.000149887
6.34251e-07
-0.000145196
3.92178e-07
-0.0001402
-7.82361e-07
-0.000137505
-2.08904e-06
-0.000136116
-2.2357e-06
-0.0001357
-2.242e-06
-0.000135809
-2.22836e-06
-0.000138582
-1.97085e-06
-0.000143314
-1.5463e-07
-0.000146322
2.49113e-06
-0.000147763
4.319e-06
-0.000148613
4.91731e-06
-0.000148908
4.82027e-06
-0.000148687
4.13663e-06
-0.000144945
2.82201e-06
-0.000139212
-5.94019e-07
-0.000134823
-4.28289e-06
-0.000131698
-6.63319e-06
-0.000129513
-7.80482e-06
-0.000129117
-7.88539e-06
-0.000129788
-7.79643e-06
-0.000135455
-6.98349e-06
-0.000140743
-3.66912e-06
-0.000142695
-4.4396e-07
-0.000143232
1.1546e-06
-0.00014331
1.47674e-06
-0.000142082
1.02683e-06
-0.000139738
-2.44889e-06
-0.000137409
-6.44256e-06
-0.000134874
-1.04166e-05
-0.000131605
-1.40881e-05
-0.000127991
-1.75472e-05
-0.00012582
-1.93988e-05
-0.000126037
-2.04205e-05
-0.00012781
-2.08644e-05
-0.000131581
-2.19998e-05
-0.000133397
-2.63257e-05
-0.000134594
-2.82534e-05
-0.000126537
-7.08805e-05
8.40135e-05
-0.000141078
3.55126e-06
-0.000142473
2.49912e-06
-0.000142814
1.20267e-06
-0.000142387
3.64853e-07
-0.000140918
-7.43052e-07
-0.000138209
-2.11557e-06
-0.00013361
-1.07713e-06
-0.000130358
2.29295e-07
-0.000129553
6.47152e-07
-0.000129444
9.39903e-07
-0.000130846
1.16169e-06
-0.000140977
1.40857e-06
-0.000152119
2.47114e-06
-0.000154785
2.08809e-06
-0.000154785
1.91098e-06
-0.00015455
1.63179e-06
-0.000151728
2.06531e-06
-0.000145515
3.88331e-06
-0.000140348
4.74058e-06
-0.000135525
3.72945e-06
-0.000132524
3.24827e-06
-0.000131959
2.16367e-06
-0.000132041
9.12974e-07
-0.000132924
-6.69883e-07
-0.000133325
-9.63267e-07
-0.000135158
-8.68045e-07
-0.0001403
1.85724e-07
-0.000144559
2.37801e-06
-0.000146106
4.4165e-06
-0.000146938
5.72527e-06
-0.000147424
5.29049e-06
-0.000147365
4.7614e-06
-0.000146198
4.15426e-06
-0.000142431
2.9396e-06
-0.000138472
1.27015e-06
-0.000135209
1.66304e-07
-0.000132895
-1.40918e-07
-0.000131593
4.61918e-07
-0.000131198
5.17653e-07
-0.000131176
4.5536e-07
-0.000132346
2.68136e-07
-0.0001424
-2.33266e-08
-0.000151382
1.00424e-06
-0.000153422
1.03633e-06
-0.000153581
5.70175e-07
-0.000153513
2.33218e-07
-0.000152707
4.09528e-07
-0.000147954
7.56184e-07
-0.00013888
6.09178e-07
-0.000133412
-1.03565e-07
-0.000131739
1.73702e-07
-0.000131492
1.44531e-07
-0.000131509
1.31624e-08
-0.000132921
-2.34811e-07
-0.000140703
-2.37142e-07
-0.000148115
5.23427e-07
-0.000150471
8.93635e-07
-0.000150904
6.26119e-07
-0.000150943
4.34807e-07
-0.000150717
4.17485e-07
-0.000147994
8.15538e-07
-0.000141866
7.79281e-07
-0.00013731
-5.63875e-07
-0.000134455
-1.15569e-06
-0.000132858
-1.46762e-06
-0.000132718
-2.00722e-06
-0.00013294
-2.51585e-06
-0.000136212
-2.44205e-06
-0.000141954
-2.91482e-07
-0.000146033
2.7972e-06
-0.000148597
4.69895e-06
-0.000150341
4.37489e-06
-0.000150821
3.90838e-06
-0.000150258
3.29448e-06
-0.000144866
1.81615e-06
-0.000137794
-1.95927e-06
-0.000132346
-5.58566e-06
-0.00012825
-7.486e-06
-0.000126363
-7.89557e-06
-0.000126333
-8.37276e-06
-0.000127256
-8.41481e-06
-0.000132013
-7.6728e-06
-0.000136249
-4.84575e-06
-0.000138658
-2.05263e-06
-0.000140731
-6.54732e-07
-0.000142137
-8.05221e-07
-0.000142966
-2.55628e-06
-0.000142949
-5.78997e-06
-0.000141487
-8.12624e-06
-0.00013706
-1.07465e-05
-0.000129673
-1.43337e-05
-0.000123694
-1.76473e-05
-0.000120993
-2.0173e-05
-0.000121337
-2.22449e-05
-0.000125744
-2.40038e-05
-0.000130798
-2.7973e-05
-0.000133809
-3.00524e-05
-0.000128092
-6.8829e-05
7.9676e-05
-0.000144619
2.55838e-06
-0.000145331
1.94783e-06
-0.000145283
1.17256e-06
-0.000145038
5.43703e-07
-0.000142865
9.70998e-08
-0.00013447
-1.79128e-07
-0.00012849
9.0362e-07
-0.000127252
9.03184e-07
-0.000127061
7.5868e-07
-0.000127107
5.18827e-07
-0.0001286
3.1535e-07
-0.000140151
-1.29155e-06
-0.000152643
-8.4931e-07
-0.00015481
8.92088e-07
-0.000154616
1.59768e-06
-0.000152197
2.92249e-06
-0.000146452
5.02993e-06
-0.00014306
5.88286e-06
-0.000140562
5.13363e-06
-0.00013787
4.41439e-06
-0.000136095
2.91933e-06
-0.000135259
1.16082e-06
-0.000135056
-5.43424e-07
-0.000134491
-1.2291e-06
-0.000132907
-7.08941e-07
-0.000132373
2.05228e-07
-0.000133438
9.24326e-07
-0.000139146
2.37091e-06
-0.000143825
4.62965e-06
-0.000146317
5.69856e-06
-0.000147796
4.88966e-06
-0.000148347
3.81981e-06
-0.000148375
3.1227e-06
-0.000146964
2.30562e-06
-0.000141209
1.98628e-06
-0.000135199
7.47689e-07
-0.000131846
1.23394e-06
-0.000130964
1.19078e-06
-0.000130853
1.01162e-06
-0.000130846
6.92571e-07
-0.000131494
1.8964e-07
-0.000139368
-1.21997e-06
-0.000151495
-2.27029e-06
-0.000154263
-8.74219e-07
-0.000154229
-3.34828e-07
-0.000153896
8.37216e-08
-0.000152847
5.1602e-07
-0.000149296
1.37721e-06
-0.000139922
2.47394e-06
-0.000132671
1.91964e-06
-0.000130587
1.06199e-06
-0.000130392
7.48862e-07
-0.00013041
2.84194e-07
-0.000131141
-3.20272e-07
-0.000137053
-9.13232e-07
-0.000146464
-7.77621e-07
-0.000150285
-1.37735e-07
-0.000150996
4.05331e-08
-0.000151068
1.25347e-07
-0.000150771
4.49759e-07
-0.000149189
1.18623e-06
-0.000143948
2.00506e-06
-0.00013754
2.13121e-06
-0.000133482
4.18936e-07
-0.00013088
-6.27202e-07
-0.00012969
-1.92398e-06
-0.000129622
-3.21334e-06
-0.000130011
-3.83657e-06
-0.00013466
-3.7835e-06
-0.000143192
-1.15048e-06
-0.000149143
2.5886e-06
-0.000151892
3.81779e-06
-0.000152679
3.45956e-06
-0.000152739
3.10766e-06
-0.000150787
2.55014e-06
-0.000142063
1.13875e-06
-0.00013292
-3.03308e-06
-0.000128365
-6.44489e-06
-0.000126182
-7.92238e-06
-0.000125118
-8.83578e-06