/*--------------------------------*- C++ -*----------------------------------*\
  =========                 |
  \\      /  F ield         | OpenFOAM: The Open Source CFD Toolbox
   \\    /   O peration     | Website:  https://openfoam.org
    \\  /    A nd           | Version:  12
     \\/     M anipulation  |
\*---------------------------------------------------------------------------*/
FoamFile
{
    format      ascii;
    class       volVectorField;
    location    "6.45";
    object      U;
}
// * * * * * * * * * * * * * * * * * * * * * * * * * * * * * * * * * * * * * //

dimensions      [0 1 -1 0 0 0 0];

internalField   nonuniform List<vector> 
22702
(
(2 -3.82506e-14 0)
(2 -1.74113e-14 0)
(2.05068 -0.0907731 0)
(2 -1.10192e-09 0)
(1.97612 0.0311773 0)
(2 3.32435e-14 0)
(1.83069 0.228969 0)
(2 -1.56736e-14 0)
(2 -1.57519e-13 0)
(2.10335 -0.265134 0)
(1.82948 0.229115 0)
(1.83165 0.228889 0)
(2 1.85488e-13 0)
(1.83135 0.22889 0)
(2.04813 -0.0723971 0)
(2 -6.44536e-14 0)
(2 -5.42271e-14 0)
(2 -2.71425e-15 0)
(1.82947 0.228997 0)
(2 -2.87972e-14 0)
(1.83165 0.229163 0)
(2 8.82109e-14 0)
(1.83456 0.230001 0)
(2.10775 -0.258497 0)
(1.83214 0.228086 0)
(2.1157 -0.26495 0)
(2 -1.34712e-13 0)
(1.83349 0.228743 0)
(2.09531 -0.263029 0)
(2.10022 -0.25695 0)
(2 1.10019e-14 0)
(1.83133 0.228791 0)
(2 1.32113e-14 0)
(2 7.54666e-14 0)
(2 1.20848e-13 0)
(1.84437 0.215071 0)
(1.83247 0.227919 0)
(1.83405 0.229329 0)
(2 -1.0393e-13 0)
(2 -1.22477e-13 0)
(2.11885 -0.266526 0)
(2 -5.28689e-16 0)
(1.91623 0.12505 0)
(2 2.04191e-13 0)
(1.83384 0.230083 0)
(2 -1.32787e-13 0)
(2 7.50793e-14 0)
(2 -1.8072e-13 0)
(2 -1.4774e-13 0)
(2.10554 -0.261953 0)
(2 -4.1963e-14 0)
(2.11233 -0.261924 0)
(2 2.17945e-13 0)
(1.82925 0.229114 0)
(2 -1.90673e-13 0)
(1.83036 0.228666 0)
(2 6.25943e-14 0)
(2 1.36266e-09 0)
(2 2.09331e-14 0)
(2 -8.08459e-14 0)
(2.12441 -0.265348 0)
(2 4.05367e-14 0)
(2 1.42618e-14 0)
(2.11074 -0.265123 0)
(2 4.59004e-14 0)
(2.10352 -0.259522 0)
(2 -1.98801e-13 0)
(2 -2.05422e-13 0)
(2 -9.29828e-14 0)
(2.10474 -0.26359 0)
(2 -2.20735e-14 0)
(1.82934 0.227929 0)
(1.896 0.151435 0)
(2 9.80646e-10 0)
(1.82792 0.227873 0)
(1.8171 0.234148 0)
(2.09527 -0.25983 0)
(1.82957 0.228702 0)
(2.10358 -0.264914 0)
(2 -6.00337e-14 0)
(1.82963 0.228451 0)
(2.10515 -0.260289 0)
(1.82986 0.228832 0)
(1.83079 0.229145 0)
(2 9.28312e-18 0)
(2 8.72372e-07 0)
(2 -5.32417e-14 0)
(2 6.90132e-14 0)
(2.02151 -0.0459912 0)
(2.10279 -0.264284 0)
(1.83045 0.228454 0)
(2 2.94699e-13 0)
(2 -6.88568e-11 0)
(2.11507 -0.265853 0)
(2 -3.18069e-14 0)
(1.83137 0.229301 0)
(2.12163 -0.270075 0)
(2 2.43761e-08 0)
(2 -1.67664e-14 0)
(2 -1.46496e-13 0)
(2 1.46926e-13 0)
(1.91562 0.126768 0)
(1.82926 0.228485 0)
(2.11369 -0.263382 0)
(2 6.73167e-11 0)
(2 -9.61039e-10 0)
(1.95886 0.0610055 0)
(2 9.04893e-09 0)
(2.10427 -0.26025 0)
(2 -1.48614e-13 0)
(1.82947 0.228693 0)
(1.8295 0.228495 0)
(2 4.63659e-09 0)
(2 -2.17765e-13 0)
(2.12064 -0.274837 0)
(2.11783 -0.273836 0)
(2.10364 -0.265121 0)
(2 1.59284e-14 0)
(2 -1.38465e-07 0)
(2 -3.88584e-14 0)
(2 3.33514e-14 0)
(2 1.12301e-07 0)
(2.0358 -0.0585139 0)
(2 -1.07743e-07 0)
(1.85521 0.202647 0)
(1.98039 0.0221828 0)
(1.8277 0.228325 0)
(2 8.34381e-14 0)
(1.82645 0.228376 0)
(1.8297 0.228765 0)
(1.83138 0.228663 0)
(1.8303 0.228806 0)
(2 3.07858e-13 0)
(2.11183 -0.262168 0)
(2 -3.84221e-14 0)
(2.13564 -0.265955 0)
(2 -1.82917e-14 0)
(2 1.25121e-13 0)
(2 5.07054e-15 0)
(2 -6.48071e-14 0)
(1.82968 0.228403 0)
(2 3.49509e-09 0)
(2 2.12549e-13 0)
(2 -2.76425e-13 0)
(2 3.73429e-14 0)
(1.83017 0.228863 0)
(2 8.26827e-14 0)
(1.99418 0.0158213 0)
(2 -3.61066e-14 0)
(2 -2.36032e-13 0)
(2 -7.03423e-11 0)
(2 -2.81226e-14 0)
(2.10196 -0.260344 0)
(2 -8.36071e-14 0)
(1.99576 0.0097138 0)
(2 -5.89201e-14 0)
(2.10235 -0.263793 0)
(2 3.99985e-15 0)
(2 -4.22333e-14 0)
(2 2.17771e-14 0)
(1.82933 0.228986 0)
(2 4.94192e-14 0)
(1.83345 0.229757 0)
(2.11874 -0.273 0)
(2.12472 -0.265572 0)
(1.82703 0.227379 0)
(1.83084 0.228844 0)
(2 6.0125e-14 0)
(1.9695 0.0462529 0)
(1.90362 0.140124 0)
(2 8.48083e-14 0)
(1.82945 0.228846 0)
(2.10874 -0.26397 0)
(1.84459 0.214656 0)
(2 5.56853e-14 0)
(2 6.41967e-14 0)
(2 2.41331e-15 0)
(2 2.85486e-13 0)
(1.83138 0.229065 0)
(1.86043 0.197738 0)
(2 1.59908e-13 0)
(1.8303 0.228883 0)
(2.12778 -0.266832 0)
(1.8294 0.2288 0)
(2 1.78538e-13 0)
(2.12101 -0.2639 0)
(2 -1.49567e-13 0)
(2.10592 -0.260279 0)
(2.1158 -0.265705 0)
(2.00007 -0.000118253 0)
(2 4.20024e-13 0)
(2 -1.89985e-13 0)
(1.82998 0.228822 0)
(2 1.00637e-13 0)
(2 -2.1711e-13 0)
(1.8314 0.228433 0)
(2 -8.9016e-14 0)
(1.82919 0.228778 0)
(1.83039 0.228671 0)
(2.09952 -0.276383 0)
(2 1.21198e-13 0)
(2 -1.34899e-13 0)
(2.10973 -0.262435 0)
(1.83156 0.228807 0)
(2 -8.70533e-14 0)
(2 2.11438e-15 0)
(2 6.83655e-14 0)
(1.83156 0.228855 0)
(2 9.02053e-14 0)
(2.12796 -0.262218 0)
(2 -6.15464e-11 0)
(2 1.81787e-13 0)
(1.83161 0.229066 0)
(1.83162 0.228913 0)
(1.82933 0.228775 0)
(2 8.82283e-15 0)
(1.99998 2.28619e-05 0)
(2 -1.66494e-14 0)
(2 -1.0729e-13 0)
(2 1.23651e-13 0)
(1.8321 0.229002 0)
(2 -1.10355e-13 0)
(2.12638 -0.265966 0)
(1.82074 0.233551 0)
(1.83146 0.228448 0)
(1.8316 0.228653 0)
(2 1.96697e-07 0)
(2 -1.52625e-14 0)
(2 3.53964e-13 0)
(2.11105 -0.267561 0)
(1.8315 0.229386 0)
(1.92663 0.109123 0)
(2 -2.76163e-15 0)
(1.83078 0.229507 0)
(2.12417 -0.266767 0)
(2.12945 -0.267319 0)
(1.83083 0.229544 0)
(1.83088 0.230844 0)
(2 1.58685e-14 0)
(1.83171 0.232744 0)
(2.12822 -0.270525 0)
(1.85143 0.206885 0)
(2 1.54482e-13 0)
(2 -4.08862e-14 0)
(2 2.2372e-13 0)
(2 1.46611e-13 0)
(1.8316 0.228913 0)
(2 -2.10993e-13 0)
(1.9054 0.145931 0)
(1.98372 0.0265423 0)
(2 1.06631e-14 0)
(2 2.83278e-13 0)
(1.83164 0.228912 0)
(2.12556 -0.264862 0)
(2.07844 -0.169986 0)
(2 4.40961e-14 0)
(1.83056 0.231428 0)
(2.11558 -0.261608 0)
(1.82879 0.229548 0)
(2 -2.02149e-16 0)
(2 1.49439e-14 0)
(2 1.20882e-13 0)
(2 -1.42472e-13 0)
(2 -1.48415e-13 0)
(2 -1.05005e-13 0)
(2 -8.84451e-14 0)
(2.11427 -0.264598 0)
(2.08016 -0.171046 0)
(2.13299 -0.265554 0)
(1.83149 0.228897 0)
(2 1.19066e-13 0)
(2 5.45909e-14 0)
(2 -1.7965e-07 0)
(2 3.54416e-13 0)
(1.84231 0.212363 0)
(2 -1.22946e-07 0)
(2.11628 -0.266061 0)
(2 1.20969e-14 0)
(2.11224 -0.281692 0)
(2.11155 -0.262055 0)
(1.83139 0.229385 0)
(2.10867 -0.262084 0)
(1.83169 0.229119 0)
(2 1.21875e-14 0)
(2 -1.65261e-13 0)
(2 -8.73608e-14 0)
(2.00102 -0.00157698 0)
(2.11976 -0.269068 0)
(2.1216 -0.275147 0)
(2 -2.99424e-07 0)
(2 -1.51985e-07 0)
(2.11317 -0.280243 0)
(2 2.3877e-09 0)
(1.82951 0.228508 0)
(2.11241 -0.26749 0)
(2 -6.24467e-15 0)
(2 -3.22491e-11 0)
(1.82976 0.228611 0)
(2.11569 -0.272416 0)
(2 -6.30379e-14 0)
(1.82969 0.228276 0)
(2.1234 -0.265349 0)
(1.83163 0.22892 0)
(2 1.15437e-13 0)
(2.11125 -0.287054 0)
(2.00093 -0.00160518 0)
(2 -6.98419e-14 0)
(2 3.01856e-06 0)
(2 7.96046e-14 0)
(2.11706 -0.267816 0)
(2 -3.54876e-13 0)
(2 -1.70147e-07 0)
(2 9.92501e-08 0)
(1.99999 1.28132e-05 0)
(1.99439 0.00185087 0)
(1.89698 0.149915 0)
(2 -2.47021e-11 0)
(2.11183 -0.253689 0)
(2 -1.65464e-11 0)
(2 1.62434e-06 0)
(2 -2.03281e-13 0)
(2 -2.50796e-14 0)
(2 1.45835e-14 0)
(2 1.37889e-13 0)
(2 -4.89384e-13 0)
(1.82992 0.228841 0)
(2 3.20358e-13 0)
(1.82955 0.229707 0)
(2 -7.73997e-14 0)
(2 -9.972e-15 0)
(2 -1.14544e-14 0)
(2.12067 -0.258281 0)
(2 3.02408e-14 0)
(1.83119 0.229351 0)
(2.11815 -0.267272 0)
(2 -8.79318e-14 0)
(1.86997 0.184132 0)
(2 -1.17983e-14 0)
(2 4.28303e-14 0)
(1.82888 0.229019 0)
(2 -9.11171e-15 0)
(2 -8.87487e-09 0)
(2 1.37013e-13 0)
(1.83344 0.227924 0)
(2 4.83167e-10 0)
(2 4.15996e-14 0)
(1.84085 0.217599 0)
(1.82899 0.229353 0)
(2 -2.9599e-14 0)
(1.96532 0.0554961 0)
(2 -4.07151e-14 0)
(2 -2.24472e-14 0)
(2.13728 -0.268355 0)
(2 -6.41673e-14 0)
(2 5.3461e-15 0)
(2 -7.572e-14 0)
(2.10728 -0.265761 0)
(2 5.70077e-14 0)
(2 1.25891e-14 0)
(2 7.56973e-14 0)
(2 1.83581e-13 0)
(2.11286 -0.263118 0)
(2 3.63735e-14 0)
(2 3.8248e-14 0)
(2 7.70224e-14 0)
(2 -1.06388e-13 0)
(2 2.16619e-13 0)
(2.10744 -0.273221 0)
(1.99998 4.34161e-05 0)
(1.83248 0.228754 0)
(2 1.09712e-13 0)
(1.99998 -3.33122e-06 0)
(1.82996 0.227711 0)
(1.82725 0.227755 0)
(2 9.62321e-14 0)
(2 1.11731e-13 0)
(2.09798 -0.273252 0)
(2.0515 -0.130045 0)
(1.83123 0.228933 0)
(2 -2.13738e-14 0)
(2 -4.05137e-14 0)
(2 -6.77704e-14 0)
(1.83176 0.2289 0)
(2.1095 -0.264736 0)
(2 -4.06344e-16 0)
(1.83305 0.229447 0)
(2 -1.39758e-13 0)
(2 -1.11262e-13 0)
(2.1112 -0.210759 0)
(2.10022 -0.215969 0)
(2 -2.35854e-13 0)
(2.10642 -0.269274 0)
(2.13047 -0.258154 0)
(2 1.9483e-14 0)
(2 3.98215e-14 0)
(2 1.05234e-13 0)
(2 -2.51079e-14 0)
(2 -9.22786e-11 0)
(2 2.18943e-13 0)
(2 7.92306e-14 0)
(1.83019 0.228266 0)
(1.95757 0.0594119 0)
(1.8432 0.213335 0)
(2.11109 -0.271075 0)
(2.02764 -0.0629029 0)
(1.83023 0.228616 0)
(2 -3.1615e-13 0)
(1.82718 0.227866 0)
(1.83137 0.228939 0)
(2.13403 -0.264313 0)
(2.06627 -0.155493 0)
(2 5.11895e-13 0)
(2.14502 -0.262452 0)
(2 2.5886e-14 0)
(1.8203 0.232851 0)
(2 1.16527e-13 0)
(2 6.66116e-14 0)
(2 1.41241e-13 0)
(2 -3.47326e-14 0)
(1.83141 0.228747 0)
(2 -6.38213e-14 0)
(2 -4.60263e-14 0)
(2 -8.90905e-15 0)
(2 1.50652e-09 0)
(2 -2.58144e-14 0)
(2 -9.29799e-14 0)
(2 9.20902e-14 0)
(1.93755 0.0883587 0)
(1.83148 0.229828 0)
(2 7.19446e-14 0)
(1.83159 0.228923 0)
(2 9.93108e-14 0)
(2 3.34132e-14 0)
(2.10807 -0.26088 0)
(2 1.60964e-14 0)
(2 6.0532e-14 0)
(2 -1.71648e-13 0)
(2 -2.05854e-13 0)
(1.83164 0.228813 0)
(1.87249 0.180384 0)
(2 -2.52716e-13 0)
(2 -1.91776e-13 0)
(2.11124 -0.264916 0)
(1.83147 0.228668 0)
(1.83153 0.228973 0)
(2 -7.47874e-15 0)
(1.83158 0.229058 0)
(1.83131 0.228634 0)
(1.83162 0.228914 0)
(2 -1.02736e-13 0)
(2.0456 -0.111558 0)
(2 1.40825e-13 0)
(1.83166 0.228841 0)
(2.00106 -0.011533 0)
(1.83168 0.228938 0)
(2 -4.51817e-15 0)
(2.14412 -0.264277 0)
(2.00044 -0.00059606 0)
(1.82801 0.228324 0)
(2 1.73562e-13 0)
(2 1.50713e-13 0)
(2 -5.33684e-11 0)
(2 -2.01154e-11 0)
(2.11064 -0.260586 0)
(1.83149 0.229638 0)
(1.84801 0.211139 0)
(2 -1.34653e-13 0)
(1.83128 0.229567 0)
(1.83175 0.22895 0)
(1.82988 0.228465 0)
(2 1.85278e-13 0)
(1.91779 0.120353 0)
(1.83216 0.228689 0)
(2 -8.3072e-14 0)
(2 5.80307e-15 0)
(1.88195 0.170622 0)
(1.9798 0.0357663 0)
(1.83167 0.229012 0)
(2.01602 -0.0466592 0)
(1.83165 0.228976 0)
(2 3.66574e-14 0)
(1.83169 0.228929 0)
(1.83141 0.228787 0)
(1.83162 0.228936 0)
(1.83158 0.228909 0)
(2 -1.46542e-13 0)
(1.83777 0.234232 0)
(2.01814 -0.0563278 0)
(2.03496 -0.0712681 0)
(2 -6.98249e-14 0)
(2 -3.62551e-07 0)
(2 -2.19729e-13 0)
(2 -4.07576e-14 0)
(1.83023 0.230134 0)
(2 3.48937e-14 0)
(2 5.92872e-14 0)
(2 -9.96445e-14 0)
(2 -4.11703e-14 0)
(2 4.78402e-14 0)
(1.82857 0.228635 0)
(2 -6.205e-14 0)
(2 9.87495e-14 0)
(2.00139 -0.00258503 0)
(1.83155 0.22894 0)
(1.85002 0.210231 0)
(2 2.87799e-14 0)
(1.86719 0.181653 0)
(1.99998 2.76014e-05 0)
(2 -4.12846e-14 0)
(2 1.14316e-13 0)
(1.83242 0.22941 0)
(2 -5.42623e-14 0)
(2.0025 -0.00282944 0)
(1.99825 0.00470645 0)
(2 5.45597e-14 0)
(1.83145 0.228697 0)
(2 -1.28858e-13 0)
(1.83183 0.228326 0)
(2 3.01357e-14 0)
(2 2.37714e-14 0)
(1.87538 0.175406 0)
(2 5.60288e-14 0)
(1.8319 0.227988 0)
(1.99999 1.29594e-05 0)
(2 1.10584e-13 0)
(1.83174 0.22811 0)
(2 9.79972e-14 0)
(1.83162 0.228851 0)
(2 2.77991e-14 0)
(2 3.0204e-06 0)
(2 -3.68497e-14 0)
(1.83156 0.228562 0)
(2 3.27886e-14 0)
(1.83281 0.228732 0)
(2 4.47602e-06 0)
(1.83141 0.228862 0)
(1.82891 0.228489 0)
(1.83169 0.228922 0)
(1.83117 0.229042 0)
(2 -8.3057e-14 0)
(1.82928 0.229021 0)
(1.82868 0.237731 0)
(2 4.51945e-15 0)
(2.0951 -0.260489 0)
(1.84182 0.216974 0)
(1.87952 0.171983 0)
(2 -1.11103e-13 0)
(1.83141 0.228457 0)
(2 -1.77925e-14 0)
(2.13306 -0.266884 0)
(2.12226 -0.264154 0)
(2 3.09788e-14 0)
(2 -7.47528e-14 0)
(2 -1.38288e-13 0)
(2 8.03863e-14 0)
(2 1.6059e-09 0)
(2.12005 -0.267134 0)
(2 -1.09027e-13 0)
(1.83158 0.228958 0)
(1.95135 0.0704006 0)
(1.83244 0.229184 0)
(2 -1.89771e-13 0)
(2 6.53746e-11 0)
(2 -4.21418e-14 0)
(2 -1.40208e-14 0)
(2 -5.14074e-08 0)
(1.83142 0.228891 0)
(2 -1.95231e-13 0)
(1.831 0.22894 0)
(1.90011 0.143742 0)
(2.06679 -0.157185 0)
(2 1.33102e-09 0)
(1.99999 6.49467e-06 0)
(1.95251 0.0751015 0)
(1.95567 0.0682925 0)
(2 -2.34555e-14 0)
(2 1.0402e-13 0)
(1.93943 0.0924135 0)
(2 3.19992e-14 0)
(2.1115 -0.262675 0)
(1.83154 0.228872 0)
(1.83147 0.228607 0)
(2 -6.9312e-11 0)
(2 9.34015e-14 0)
(2 1.83647e-13 0)
(1.82895 0.228438 0)
(2 3.59595e-13 0)
(1.99999 1.60193e-05 0)
(1.83176 0.229362 0)
(1.83148 0.229436 0)
(2.01588 -0.0314931 0)
(2 1.81125e-13 0)
(2 1.61575e-10 0)
(2.11135 -0.268602 0)
(1.84563 0.212558 0)
(2 -7.08956e-14 0)
(2 -1.47897e-13 0)
(2 2.84159e-14 0)
(2 -2.89827e-11 0)
(2 -2.80284e-14 0)
(1.83155 0.228874 0)
(1.82934 0.228738 0)
(2 -3.24387e-14 0)
(1.83177 0.229343 0)
(1.83056 0.229249 0)
(1.83158 0.228936 0)
(2 3.73001e-14 0)
(2 3.97318e-15 0)
(2 -6.3894e-11 0)
(2 -9.64637e-14 0)
(2.11275 -0.266012 0)
(1.83176 0.229067 0)
(2 -5.03538e-11 0)
(2 5.92994e-14 0)
(1.84646 0.212555 0)
(1.83183 0.228247 0)
(2 9.94737e-14 0)
(1.84197 0.217294 0)
(1.82672 0.229033 0)
(2 6.14119e-14 0)
(2 -2.25488e-07 0)
(2 9.89547e-11 0)
(2 -6.43683e-14 0)
(2 -2.39438e-14 0)
(1.83145 0.228593 0)
(2 -8.71064e-14 0)
(2 -1.58535e-13 0)
(2 -4.47304e-15 0)
(2 -2.04206e-13 0)
(1.83008 0.230166 0)
(2 -7.94604e-14 0)
(1.83115 0.231135 0)
(2.13288 -0.260898 0)
(2 -1.79457e-13 0)
(2.11074 -0.266749 0)
(2 -5.60458e-15 0)
(2 -1.85263e-07 0)
(2 9.02266e-14 0)
(2.00107 -0.00192327 0)
(2.10313 -0.261322 0)
(2.00032 -0.00054038 0)
(2 1.52279e-13 0)
(2 3.40252e-15 0)
(2 -1.21427e-07 0)
(1.97298 0.0402878 0)
(2 -6.68882e-14 0)
(2 4.92257e-14 0)
(2.04977 -0.0943027 0)
(2 -2.1749e-07 0)
(2 -8.26716e-14 0)
(2 -1.54655e-13 0)
(2 -2.26363e-07 0)
(2 1.36121e-07 0)
(2 -1.35195e-07 0)
(2 1.49372e-13 0)
(2 -1.70508e-06 0)
(2.02248 -0.0468206 0)
(2 -5.23071e-07 0)
(2 -3.53515e-08 0)
(2.00089 -0.00137202 0)
(2 1.66096e-14 0)
(2.11368 -0.26059 0)
(2 -2.89215e-11 0)
(2 -3.98051e-12 0)
(2 -3.653e-11 0)
(2 1.27893e-13 0)
(1.87458 0.17726 0)
(2 -8.44246e-14 0)
(2 1.97424e-13 0)
(2 -1.84467e-14 0)
(2 -1.72871e-07 0)
(2.12547 -0.267569 0)
(2 -5.03021e-14 0)
(2 1.20811e-09 0)
(1.84124 0.216997 0)
(1.83066 0.228834 0)
(2 -3.11671e-07 0)
(2 1.17399e-13 0)
(2 -1.18328e-07 0)
(2.04119 -0.072824 0)
(2 5.87308e-15 0)
(2 4.10014e-10 0)
(2 1.40703e-13 0)
(2 -9.03122e-14 0)
(2 3.74046e-15 0)
(2 -1.45564e-13 0)
(2.01698 -0.0355877 0)
(1.99293 0.00274293 0)
(1.83202 0.229067 0)
(2 1.03426e-13 0)
(2 1.44131e-14 0)
(2 6.87659e-15 0)
(1.83025 0.229388 0)
(2.04167 -0.0706194 0)
(2 -4.96064e-09 0)
(2 4.71105e-14 0)
(2 1.46386e-13 0)
(1.83519 0.229933 0)
(1.82801 0.227574 0)
(2 -3.27866e-08 0)
(2 4.79838e-06 0)
(2 2.89057e-09 0)
(2 -1.17014e-13 0)
(2 1.27689e-09 0)
(2 1.38827e-13 0)
(2 -1.06065e-11 0)
(2 -5.35156e-14 0)
(2 -1.1816e-13 0)
(2.12458 -0.258919 0)
(2 -8.98731e-14 0)
(2 -1.61819e-11 0)
(1.82903 0.228912 0)
(2.13249 -0.264482 0)
(2 -1.77707e-13 0)
(1.82918 0.228917 0)
(2 6.96432e-11 0)
(2.1008 -0.259334 0)
(2 -4.66317e-14 0)
(2 1.35332e-13 0)
(2.12344 -0.258675 0)
(2 -1.45181e-13 0)
(2 -1.15433e-11 0)
(2 -4.68716e-12 0)
(2 6.41116e-14 0)
(2 -2.83498e-12 0)
(2 -5.11363e-14 0)
(2 1.04164e-13 0)
(1.83465 0.22515 0)
(1.83181 0.228435 0)
(2 5.6413e-13 0)
(2 6.49718e-14 0)
(2 6.9771e-14 0)
(2 4.54104e-13 0)
(1.84679 0.211922 0)
(2 2.53466e-13 0)
(1.94752 0.0785637 0)
(2.09959 -0.26467 0)
(2 -3.29425e-08 0)
(2 9.6929e-14 0)
(2 -4.17135e-14 0)
(2 -2.02669e-14 0)
(2 -2.60095e-14 0)
(2 4.48501e-15 0)
(2 -1.41017e-14 0)
(1.98328 0.0256144 0)
(2 -9.20875e-14 0)
(2 -4.34035e-15 0)
(1.90274 0.133358 0)
(2 -2.90186e-14 0)
(2 9.53594e-14 0)
(2 4.70303e-14 0)
(1.86141 0.193537 0)
(2 -1.76574e-14 0)
(2 1.18615e-13 0)
(2 5.63101e-14 0)
(2 -6.36752e-15 0)
(2.13782 -0.266514 0)
(2 3.24275e-12 0)
(2 1.40646e-13 0)
(2.13441 -0.268281 0)
(2.14513 -0.263204 0)
(2 4.75137e-14 0)
(2 -7.8539e-14 0)
(1.83171 0.228877 0)
(2 4.44938e-14 0)
(1.9761 -0.0576014 0)
(2 1.34984e-14 0)
(2 4.96463e-14 0)
(2 7.83766e-14 0)
(1.88325 0.168401 0)
(2.1299 -0.262635 0)
(2 7.1768e-14 0)
(2.12275 -0.27779 0)
(2 -1.68769e-14 0)
(2.08022 -0.147356 0)
(2 -7.15314e-14 0)
(2 1.85782e-13 0)
(2 5.8015e-14 0)
(1.8309 0.228416 0)
(2 -4.10668e-08 0)
(2 -4.69537e-14 0)
(1.8314 0.22887 0)
(2 -2.15854e-13 0)
(2 -2.09402e-11 0)
(2 1.66557e-09 0)
(1.83128 0.22884 0)
(2 2.18432e-10 0)
(2 -9.60901e-15 0)
(1.83166 0.228944 0)
(2 -7.62012e-14 0)
(2 -1.08582e-13 0)
(2.13508 -0.266469 0)
(2 -1.74757e-11 0)
(1.94467 0.0837679 0)
(2 -9.12424e-14 0)
(2 -4.77302e-14 0)
(1.83011 0.228524 0)
(1.83021 0.228927 0)
(1.88601 0.16421 0)
(1.84846 0.209837 0)
(2 2.00542e-13 0)
(2.14945 -0.262059 0)
(2 -1.77125e-13 0)
(2 -1.87335e-14 0)
(1.83931 0.220114 0)
(2 1.19445e-14 0)
(2.1135 -0.268357 0)
(2 2.03946e-13 0)
(2 1.5397e-15 0)
(2 -4.09944e-14 0)
(1.83131 0.22899 0)
(2 -3.13518e-14 0)
(2 1.01847e-13 0)
(2 -6.53846e-14 0)
(2 6.70856e-15 0)
(1.89916 0.146286 0)
(2 -7.64606e-14 0)
(1.83905 0.232029 0)
(1.8294 0.229363 0)
(2.09867 -0.264906 0)
(2 1.89446e-13 0)
(2 7.74342e-14 0)
(2.11698 -0.261227 0)
(2.11625 -0.26295 0)
(2 -1.91584e-14 0)
(2 8.14371e-14 0)
(2 -5.54605e-12 0)
(1.87913 0.174005 0)
(1.87322 0.178494 0)
(2 -2.35619e-14 0)
(2 -2.52813e-14 0)
(2 2.17289e-14 0)
(2 -1.63849e-14 0)
(2 7.16387e-14 0)
(2 -1.59982e-13 0)
(2 -5.33554e-16 0)
(1.92795 0.107085 0)
(1.83172 0.228719 0)
(1.99807 -0.00268465 0)
(2 4.03147e-14 0)
(1.83387 0.226769 0)
(2.11539 -0.261316 0)
(2 -1.07849e-13 0)
(2 -4.67758e-14 0)
(2 -1.18636e-13 0)
(1.90751 0.133078 0)
(2 -1.49113e-13 0)
(1.96398 0.055569 0)
(2 -3.03295e-14 0)
(1.84529 0.212484 0)
(1.83269 0.228267 0)
(2 -7.73955e-14 0)
(2.14129 -0.26459 0)
(2 9.93895e-14 0)
(1.82974 0.228788 0)
(2 1.8769e-14 0)
(2 6.243e-14 0)
(1.83184 0.229502 0)
(1.8426 0.21664 0)
(2 -2.05937e-13 0)
(1.82633 0.229648 0)
(2 -2.12275e-13 0)
(2.10378 -0.269908 0)
(2 -6.96622e-14 0)
(2 -2.49952e-13 0)
(2 -4.54598e-14 0)
(1.82565 0.232212 0)
(1.83465 0.225437 0)
(1.85215 0.204836 0)
(2 1.60298e-13 0)
(1.8301 0.227757 0)
(1.83199 0.228978 0)
(2 2.63369e-13 0)
(1.83116 0.229258 0)
(2 -9.35899e-09 0)
(1.83266 0.228297 0)
(2 5.13152e-14 0)
(2.12067 -0.265973 0)
(2.00299 -0.0147849 0)
(2.11989 -0.267819 0)
(2 -3.36758e-11 0)
(2 -2.2179e-11 0)
(2 -3.42177e-11 0)
(2 4.27664e-15 0)
(2 -1.44378e-11 0)
(1.83179 0.229028 0)
(2 6.67357e-14 0)
(1.83174 0.228913 0)
(2 -3.67966e-11 0)
(2 -1.00812e-10 0)
(2 8.44349e-14 0)
(1.84063 0.218775 0)
(2 5.3924e-15 0)
(2.09776 -0.259008 0)
(1.83167 0.228972 0)
(2 -3.14259e-14 0)
(2.11848 -0.267205 0)
(2.11497 -0.242905 0)
(2.11283 -0.263013 0)
(2 5.03464e-14 0)
(1.91412 0.128086 0)
(1.9825 0.025418 0)
(1.83083 0.229628 0)
(1.83189 0.22899 0)
(2 -1.25829e-13 0)
(2 -3.45893e-07 0)
(2 -1.1683e-07 0)
(2 2.55265e-13 0)
(1.83179 0.2291 0)
(2 7.37043e-14 0)
(2 9.66074e-14 0)
(1.83167 0.229171 0)
(1.83191 0.229015 0)
(2 1.35199e-13 0)
(1.94234 0.0908279 0)
(2.00007 0.000656884 0)
(2 4.44502e-14 0)
(2.0013 -0.00195852 0)
(1.82527 0.228137 0)
(2.04334 -0.111204 0)
(2 -1.23685e-07 0)
(2.05566 -0.124305 0)
(2.1106 -0.262349 0)
(2.10738 -0.261139 0)
(1.98317 -0.0268311 0)
(1.83451 0.230355 0)
(1.83429 0.226684 0)
(1.96365 0.0475306 0)
(1.83124 0.228961 0)
(1.83154 0.229016 0)
(2 9.33737e-14 0)
(2 2.74586e-14 0)
(1.82911 0.228251 0)
(1.82977 0.228651 0)
(1.83134 0.229039 0)
(1.8283 0.228739 0)
(2 1.48793e-13 0)
(1.83179 0.229143 0)
(2.09354 -0.260829 0)
(1.83046 0.231492 0)
(1.83161 0.229535 0)
(1.82899 0.2286 0)
(1.83161 0.229118 0)
(2.05074 -0.0917637 0)
(2.02611 -0.0632993 0)
(2.02674 -0.0527435 0)
(1.83148 0.228984 0)
(2.00974 -0.0241834 0)
(1.83055 0.229442 0)
(2 -9.51657e-14 0)
(2 4.16994e-14 0)
(1.83108 0.229784 0)
(1.83116 0.229162 0)
(2 5.22673e-15 0)
(2.14044 -0.261216 0)
(1.8309 0.227668 0)
(1.8316 0.229032 0)
(2 -1.68508e-13 0)
(1.83128 0.229024 0)
(1.83138 0.228847 0)
(2 1.82591e-13 0)
(1.83182 0.228971 0)
(2.12526 -0.270951 0)
(1.83202 0.228265 0)
(1.83183 0.228644 0)
(1.83032 0.228657 0)
(1.83143 0.228903 0)
(2 -3.825e-15 0)
(2 6.03673e-14 0)
(2 -1.0972e-07 0)
(1.8316 0.228927 0)
(1.88928 0.160204 0)
(2.1151 -0.242268 0)
(1.83118 0.228767 0)
(2.12751 -0.270869 0)
(1.83162 0.228936 0)
(2 -1.20888e-15 0)
(2 -2.27111e-13 0)
(2 8.99184e-14 0)
(2 -5.39181e-14 0)
(1.83031 0.228909 0)
(1.83119 0.228941 0)
(2 6.04335e-14 0)
(2 1.84518e-13 0)
(1.83144 0.228855 0)
(2.13114 -0.262921 0)
(1.83156 0.228485 0)
(2.11261 -0.262404 0)
(2 -2.5987e-14 0)
(1.83276 0.227698 0)
(2 -3.49536e-14 0)
(2.10264 -0.268684 0)
(1.83053 0.229621 0)
(2.09797 -0.18204 0)
(2 6.83065e-14 0)
(1.83186 0.228935 0)
(1.83063 0.230404 0)
(1.8314 0.229825 0)
(2 6.95466e-14 0)
(2 1.99164e-13 0)
(1.91614 0.120916 0)
(1.83093 0.229972 0)
(2.10461 -0.261563 0)
(1.83189 0.22889 0)
(2 4.06221e-15 0)
(1.83214 0.229124 0)
(2.03677 -0.0854019 0)
(1.83137 0.229669 0)
(2.12759 -0.257347 0)
(2 -4.52684e-15 0)
(1.83138 0.229818 0)
(2.09927 -0.238092 0)
(1.83117 0.229827 0)
(2.10468 -0.25998 0)
(2 1.33469e-13 0)
(1.83114 0.228995 0)
(2 3.53195e-15 0)
(1.83026 0.229828 0)
(2 7.4651e-14 0)
(1.90197 0.142499 0)
(1.83761 0.221745 0)
(1.86522 0.187943 0)
(2.1289 -0.271063 0)
(2 -8.61422e-16 0)
(1.83095 0.228789 0)
(2 5.27143e-14 0)
(1.83209 0.228954 0)
(2 -1.15646e-07 0)
(1.83166 0.22914 0)
(2 -2.29656e-07 0)
(2 4.84673e-14 0)
(1.83122 0.229473 0)
(2.00186 -0.0138753 0)
(1.8301 0.229769 0)
(2.09608 -0.272156 0)
(1.84556 0.218462 0)
(2 -1.40098e-14 0)
(1.88186 0.168582 0)
(2 7.44845e-14 0)
(1.83043 0.228049 0)
(1.8318 0.229188 0)
(1.83149 0.228807 0)
(2 -1.30284e-13 0)
(1.84843 0.210134 0)
(1.83126 0.228913 0)
(1.84433 0.214008 0)
(1.89797 0.147983 0)
(1.82642 0.230814 0)
(2 -3.00032e-14 0)
(1.88669 0.16327 0)
(2 1.16354e-13 0)
(1.83151 0.22933 0)
(2 6.95667e-14 0)
(1.9732 0.0381988 0)
(2 1.85528e-13 0)
(1.84381 0.215824 0)
(2 -1.58993e-13 0)
(1.83208 0.229139 0)
(1.83957 0.219689 0)
(1.83951 0.219978 0)
(2 -9.87495e-14 0)
(1.83966 0.226902 0)
(2.11958 -0.264835 0)
(2 -2.53698e-14 0)
(2.13705 -0.263769 0)
(2 -2.52603e-13 0)
(2 -7.80633e-14 0)
(2 9.23581e-15 0)
(1.82984 0.228583 0)
(2 -1.59235e-14 0)
(1.8319 0.229318 0)
(2 5.1866e-14 0)
(2 -8.59748e-14 0)
(2 -5.79155e-14 0)
(1.83136 0.229279 0)
(1.82896 0.235363 0)
(1.86547 0.187234 0)
(1.83025 0.229009 0)
(1.83242 0.229057 0)
(2.10652 -0.268142 0)
(1.83431 0.231867 0)
(1.8293 0.228796 0)
(2 -5.06233e-14 0)
(1.84994 0.213354 0)
(1.83171 0.228963 0)
(1.84367 0.213606 0)
(2 7.37161e-15 0)
(1.8295 0.228804 0)
(1.83065 0.229058 0)
(2 1.50506e-13 0)
(1.82837 0.231058 0)
(1.83111 0.228644 0)
(1.83022 0.229448 0)
(1.83056 0.22935 0)
(2 8.43755e-14 0)
(2 2.39059e-14 0)
(2 8.81443e-14 0)
(1.83172 0.228911 0)
(2.12285 -0.264423 0)
(2 3.6807e-14 0)
(1.83153 0.228987 0)
(2 1.66808e-13 0)
(2 7.68403e-14 0)
(2.12493 -0.265615 0)
(2 -7.6218e-14 0)
(2 5.07837e-14 0)
(1.8314 0.228994 0)
(1.83169 0.228973 0)
(2 -1.3486e-13 0)
(1.83182 0.229051 0)
(1.83002 0.231191 0)
(1.82896 0.22806 0)
(2.00342 -0.0089166 0)
(1.83137 0.229148 0)
(2 -3.69944e-14 0)
(1.83148 0.229009 0)
(1.83166 0.228987 0)
(1.87545 0.178438 0)
(2 4.69706e-15 0)
(2 -5.17089e-14 0)
(2 -5.54536e-14 0)
(1.83222 0.228222 0)
(1.83106 0.229061 0)
(1.83189 0.228734 0)
(2.02152 -0.0425692 0)
(2 6.70885e-14 0)
(1.82946 0.231743 0)
(1.83123 0.2289 0)
(1.83125 0.228867 0)
(2 4.24861e-14 0)
(1.83143 0.228868 0)
(1.83134 0.229245 0)
(1.83134 0.228943 0)
(1.82793 0.232114 0)
(2 -3.64441e-14 0)
(1.83176 0.229166 0)
(1.83211 0.22718 0)
(1.85307 0.20227 0)
(1.83131 0.229448 0)
(1.8282 0.231043 0)
(2 2.68773e-16 0)
(1.83107 0.229409 0)
(1.833 0.22675 0)
(1.83185 0.228814 0)
(1.83293 0.230368 0)
(1.83144 0.229653 0)
(2.12169 -0.264605 0)
(1.83249 0.229638 0)
(1.83141 0.229297 0)
(2 -4.40603e-14 0)
(1.83124 0.228896 0)
(1.83168 0.228882 0)
(1.83135 0.229062 0)
(1.83181 0.22899 0)
(2 -6.06582e-08 0)
(1.83188 0.228885 0)
(1.8313 0.228902 0)
(2 -1.56253e-07 0)
(1.8317 0.229021 0)
(1.85803 0.198813 0)
(2 -1.98455e-13 0)
(2 2.98613e-15 0)
(2 7.8616e-10 0)
(1.83225 0.228885 0)
(1.83246 0.232756 0)
(2 8.93543e-15 0)
(2 1.58865e-13 0)
(1.908 0.134973 0)
(2 1.30606e-13 0)
(1.83209 0.228929 0)
(2 1.13919e-13 0)
(2 8.59997e-14 0)
(1.83159 0.228979 0)
(1.83077 0.229538 0)
(1.83153 0.22901 0)
(1.83164 0.229031 0)
(2 -3.17669e-14 0)
(2 1.26236e-13 0)
(2 1.95455e-13 0)
(1.88535 0.166785 0)
(2 -4.0393e-14 0)
(1.83142 0.229076 0)
(2 1.92471e-13 0)
(2 1.23175e-13 0)
(1.82515 0.22834 0)
(1.8323 0.228881 0)
(2 -5.82752e-15 0)
(1.83157 0.228965 0)
(2.11536 -0.273601 0)
(1.83172 0.228926 0)
(1.83189 0.228304 0)
(2.10002 -0.197017 0)
(2 -1.61948e-13 0)
(2.12427 -0.272114 0)
(1.85239 0.203681 0)
(1.83191 0.227921 0)
(1.83231 0.229633 0)
(1.83198 0.229378 0)
(2.1168 -0.264658 0)
(1.83097 0.228923 0)
(1.83136 0.229711 0)
(2.11726 -0.263855 0)
(2.13541 -0.267578 0)
(2 -2.54203e-07 0)
(1.83153 0.229498 0)
(1.83153 0.22908 0)
(2 -1.5768e-13 0)
(2 -7.90495e-15 0)
(1.83165 0.228926 0)
(2 1.36613e-13 0)
(1.83422 0.2285 0)
(2 2.61923e-06 0)
(1.85285 0.202986 0)
(2 7.47755e-14 0)
(1.91874 0.11935 0)
(1.83129 0.229473 0)
(1.83046 0.230283 0)
(1.88342 0.172459 0)
(1.85435 0.200243 0)
(1.82933 0.228617 0)
(1.83068 0.229138 0)
(1.84659 0.218519 0)
(2 2.47516e-13 0)
(2.12219 -0.263269 0)
(1.82998 0.230645 0)
(1.83189 0.228603 0)
(1.82871 0.230637 0)
(2 6.69707e-06 0)
(2 2.64348e-10 0)
(2 1.29283e-09 0)
(1.82889 0.230317 0)
(2 -5.05713e-14 0)
(1.83187 0.228822 0)
(1.83196 0.229203 0)
(2.08536 -0.16977 0)
(2 -9.09872e-14 0)
(1.83135 0.228983 0)
(2.00002 -3.54219e-05 0)
(2 1.23437e-13 0)
(1.99999 1.92544e-05 0)
(1.99998 2.55423e-05 0)
(1.83192 0.228701 0)
(1.83107 0.228579 0)
(2.00056 -0.000925932 0)
(2 -1.4391e-13 0)
(2 -2.29333e-14 0)
(1.832 0.228887 0)
(1.83081 0.229897 0)
(1.83159 0.228768 0)
(1.83035 0.228542 0)
(1.83056 0.229948 0)
(2.12394 -0.247888 0)
(1.87 0.189312 0)
(2 3.14832e-14 0)
(1.83265 0.227452 0)
(1.83157 0.228965 0)
(1.83198 0.229125 0)
(1.83467 0.221554 0)
(2 -7.46396e-14 0)
(1.83189 0.229043 0)
(1.8364 0.223999 0)
(1.83096 0.229345 0)
(2 1.35704e-13 0)
(1.8302 0.229197 0)
(1.82976 0.230285 0)
(2.04924 -0.0938037 0)
(1.83208 0.22895 0)
(1.83037 0.229137 0)
(2 -1.0456e-13 0)
(1.8311 0.229003 0)
(2.05729 -0.107076 0)
(1.83107 0.228999 0)
(2.05262 -0.0985009 0)
(1.83174 0.228957 0)
(2 -1.08848e-07 0)
(1.83129 0.228862 0)
(1.82596 0.233498 0)
(1.83188 0.229071 0)
(1.83155 0.229179 0)
(1.8313 0.228865 0)
(1.82809 0.227246 0)
(1.83131 0.229118 0)
(1.82917 0.227763 0)
(2 -1.59499e-13 0)
(2.01837 -0.041964 0)
(1.83099 0.228827 0)
(1.8318 0.228988 0)
(2.05129 -0.102505 0)
(1.83154 0.228924 0)
(2.00369 -0.015375 0)
(1.88886 0.153248 0)
(1.83103 0.228888 0)
(1.82762 0.227703 0)
(1.83133 0.230406 0)
(2 1.94122e-13 0)
(1.83031 0.229907 0)
(1.89345 0.15964 0)
(1.83143 0.228893 0)
(2.02163 -0.0451658 0)
(1.83041 0.229634 0)
(1.82594 0.229277 0)
(2 -8.7079e-14 0)
(2.04244 -0.0971601 0)
(2 -7.79806e-09 0)
(1.83559 0.224173 0)
(2 8.93352e-14 0)
(1.88458 0.164341 0)
(2 3.0344e-09 0)
(1.83813 0.233035 0)
(2.04024 -0.0868214 0)
(2 -1.14126e-14 0)
(1.83202 0.228363 0)
(1.83156 0.232145 0)
(2 6.59017e-14 0)
(1.82978 0.229768 0)
(1.8309 0.229796 0)
(1.82693 0.23153 0)
(1.83941 0.22362 0)
(1.83009 0.230514 0)
(2 1.75321e-13 0)
(1.82904 0.22827 0)
(2 2.12948e-13 0)
(2 -3.16077e-14 0)
(2 1.8395e-13 0)
(2.03502 -0.0683381 0)
(1.83223 0.228963 0)
(1.83155 0.228684 0)
(1.83115 0.227706 0)
(1.83157 0.228989 0)
(1.83179 0.22966 0)
(1.83136 0.22807 0)
(1.82861 0.234167 0)
(1.83189 0.229399 0)
(2.03534 -0.069688 0)
(1.98732 0.0234666 0)
(2 3.59917e-09 0)
(2 5.34115e-14 0)
(1.82554 0.230696 0)
(1.83182 0.229083 0)
(1.83113 0.228858 0)
(1.83201 0.228974 0)
(1.99999 1.62502e-05 0)
(1.91987 0.12361 0)
(2 -1.67711e-07 0)
(1.82859 0.230826 0)
(1.85327 0.209919 0)
(2 -3.34699e-12 0)
(2 -5.8712e-11 0)
(2.08631 -0.198065 0)
(1.83177 0.228949 0)
(2 4.02677e-14 0)
(2 7.46939e-14 0)
(2.09778 -0.261397 0)
(1.83187 0.229118 0)
(2 2.72769e-14 0)
(1.83063 0.228639 0)
(1.83136 0.229007 0)
(1.82931 0.228744 0)
(1.8382 0.222087 0)
(1.83136 0.228927 0)
(2 -1.33789e-10 0)
(2.12863 -0.269011 0)
(1.95627 0.069567 0)
(1.83123 0.229361 0)
(1.83129 0.228905 0)
(2 -1.22335e-13 0)
(1.83218 0.228973 0)
(1.83142 0.229013 0)
(1.91552 0.123586 0)
(1.99877 0.00304906 0)
(1.9626 0.0603901 0)
(2 2.95099e-14 0)
(1.83084 0.227996 0)
(1.83139 0.228615 0)
(2 -1.2154e-07 0)
(2 -2.22259e-10 0)
(2.1153 -0.262896 0)
(2 -2.40724e-10 0)
(2 -3.19897e-14 0)
(1.8318 0.229048 0)
(1.83161 0.228989 0)
(1.83166 0.228162 0)
(1.83165 0.228776 0)
(1.8313 0.228872 0)
(1.82906 0.228882 0)
(1.83117 0.229095 0)
(1.83121 0.228583 0)
(1.83148 0.22887 0)
(2 1.48518e-13 0)
(2.00151 -0.00262725 0)
(1.8307 0.228869 0)
(1.83188 0.229022 0)
(2.00119 -0.00201071 0)
(1.83144 0.22901 0)
(1.83154 0.228982 0)
(2.12315 -0.263708 0)
(2.10213 -0.265418 0)
(1.83192 0.227995 0)
(1.82773 0.231043 0)
(2 -7.43545e-15 0)
(2 2.0317e-13 0)
(1.99873 0.00209503 0)
(1.83124 0.229029 0)
(1.83193 0.228769 0)
(1.83182 0.229074 0)
(2 1.0062e-09 0)
(1.83143 0.229 0)
(2 -1.80003e-15 0)
(2.05295 -0.0878351 0)
(1.82834 0.231085 0)
(1.82659 0.23171 0)
(2 -4.81478e-15 0)
(1.92621 0.112873 0)
(1.83106 0.228929 0)
(2 2.67152e-13 0)
(1.82993 0.228217 0)
(2 -1.0489e-10 0)
(1.83166 0.229062 0)
(1.88982 0.158036 0)
(1.83098 0.229814 0)
(2 1.49397e-11 0)
(1.83125 0.229184 0)
(1.83227 0.230959 0)
(2.11556 -0.264118 0)
(1.83175 0.22884 0)
(2 -1.32314e-07 0)
(1.83021 0.230655 0)
(1.8315 0.228662 0)
(2 7.43641e-09 0)
(2.11934 -0.262708 0)
(1.83202 0.227443 0)
(1.85943 0.194152 0)
(2.00077 -0.00115181 0)
(1.83087 0.2248 0)
(1.83166 0.228933 0)
(2 -5.93686e-12 0)
(1.99603 0.00140592 0)
(1.83196 0.228505 0)
(2.00177 -0.00227449 0)
(1.83165 0.228954 0)
(2 -3.7738e-12 0)
(2 8.58233e-14 0)
(1.83079 0.229146 0)
(2 1.08247e-13 0)
(1.83057 0.229032 0)
(1.83135 0.228978 0)
(2.00141 -0.00223896 0)
(1.87384 0.177046 0)
(2 3.19083e-09 0)
(1.83145 0.228966 0)
(2 1.30261e-09 0)
(2 -8.03348e-13 0)
(2 1.1667e-11 0)
(2 5.73165e-12 0)
(1.83198 0.228904 0)
(2 7.30535e-09 0)
(2 -2.36882e-13 0)
(1.83887 0.222767 0)
(2 9.2309e-14 0)
(1.83134 0.228788 0)
(2 3.22431e-10 0)
(1.89204 0.158339 0)
(1.83023 0.22918 0)
(1.83163 0.228418 0)
(2 9.13724e-10 0)
(2 -2.12073e-13 0)
(1.99521 0.00271647 0)
(2 2.32959e-12 0)
(1.83093 0.22856 0)