/*--------------------------------*- C++ -*----------------------------------*\
  =========                 |
  \\      /  F ield         | OpenFOAM: The Open Source CFD Toolbox
   \\    /   O peration     | Website:  https://openfoam.org
    \\  /    A nd           | Version:  12
     \\/     M anipulation  |
\*---------------------------------------------------------------------------*/
FoamFile
{
    format      ascii;
    class       surfaceScalarField;
    location    "22.5";
    object      phi;
}
// * * * * * * * * * * * * * * * * * * * * * * * * * * * * * * * * * * * * * //

dimensions      [1 0 -1 0 0 0 0];

internalField   nonuniform List<scalar> 
19404
(
-0.000131681
1.73461e-06
-0.000131654
1.19427e-06
-0.000135406
-4.78419e-07
-0.000149112
-2.83568e-06
-0.000157431
-2.35697e-06
-0.00015883
-1.15348e-06
-0.000158816
-6.15589e-07
-0.000157474
2.62045e-07
-0.000147353
2.78727e-06
-0.000136065
3.51939e-06
-0.000132909
1.88023e-06
-0.000132803
1.22891e-06
-0.000132892
3.70166e-07
-0.000136939
-1.33638e-06
-0.000150616
-3.27753e-06
-0.000159487
-1.82259e-06
-0.000161126
-8.11837e-07
-0.000161153
-2.1289e-07
-0.000159726
9.91539e-07
-0.000150357
3.20443e-06
-0.000140847
2.84659e-06
-0.000138654
1.42103e-06
-0.000138596
5.62079e-07
-0.000138993
-7.141e-07
-0.000141649
-2.04426e-06
-0.000149122
-3.13865e-06
-0.000156306
-1.47428e-06
-0.000158608
-3.72945e-07
-0.000158828
5.41912e-07
-0.000157929
1.98916e-06
-0.000152829
3.65423e-06
-0.000147775
2.21019e-06
-0.000146573
9.48439e-07
-0.000146606
4.53982e-08
-0.000147634
-1.27059e-06
-0.000149679
-2.55833e-06
-0.000151273
-2.2966e-06
-0.000152773
-1.09539e-06
-0.000154376
-1.88722e-07
-0.000155271
8.94962e-07
-0.000155193
2.0273e-06
-0.000153713
3.34028e-06
-0.000153115
1.97749e-06
-0.000153157
9.3804e-07
-0.000153491
-9.95991e-08
-0.000154568
-1.06581e-06
-0.000155039
-2.26957e-06
-0.000154864
-1.85919e-06
-0.000153735
-8.36849e-07
-0.000153083
-1.64517e-07
-0.000153244
2.75623e-07
-0.000154893
1.0756e-06
-0.000155843
2.23555e-06
-0.000156706
2.05999e-06
-0.000158254
9.61692e-07
-0.000159341
2.8297e-07
-0.000159673
-3.28991e-07
-0.00015937
-9.22128e-07
-0.000157029
-1.35881e-06
-0.000154827
-8.4165e-07
-0.000153577
-3.61867e-07
-0.000153305
-8.6414e-10
-0.000153694
2.59303e-07
-0.000156974
7.92072e-07
-0.000159926
1.46541e-06
-0.000161828
1.40302e-06
-0.00016327
6.49116e-07
-0.000163965
1.96231e-07
-0.000164029
-1.66843e-07
-0.000162479
-4.55916e-07
-0.000156197
-5.47465e-07
-0.000152859
-2.4561e-07
-0.000152257
-1.69658e-07
-0.000152361
-1.28018e-07
-0.000154385
-1.20937e-07
-0.000161177
2.47649e-07
-0.000165863
6.27804e-07
-0.000167819
9.60914e-07
-0.000168668
7.06196e-07
-0.000168954
3.16049e-07
-0.000168488
-4.83e-08
-0.000160838
-2.82985e-07
-0.000151229
-4.07193e-07
-0.000147936
-5.06612e-07
-0.000147962
-7.0981e-07
-0.000149279
-1.00119e-06
-0.000158748
-8.7838e-07
-0.000168114
-4.61833e-07
-0.000171331
1.77264e-07
-0.00017225
8.64887e-07
-0.000172584
9.34509e-07
-0.000169777
6.91206e-07
-0.000158006
2.95608e-07
-0.000144477
-3.85631e-07
-0.000132853
-9.08243e-07
-0.000127715
-2.43296e-07
-0.000128753
-1.14805e-05
-0.00010446
-4.71789e-05
3.44217e-05
-0.000136876
2.83068e-06
-0.00013773
4.33338e-07
-0.000142419
-2.43478e-06
-0.000149581
-3.95063e-06
-0.000155073
-3.16183e-06
-0.000155958
-1.9547e-06
-0.000155162
-8.31964e-08
-0.000150192
2.72742e-06
-0.000144597
4.56204e-06
-0.000140015
4.122e-06
-0.000137691
3.07937e-06
-0.000137351
1.09192e-06
-0.000138368
-9.35074e-07
-0.000142067
-2.77758e-06
-0.000149727
-3.90568e-06
-0.00015586
-2.90254e-06
-0.000157195
-9.13908e-07
-0.000156649
1.2801e-06
-0.000153497
3.59128e-06
-0.000150061
4.63192e-06
-0.000145918
3.72778e-06
-0.000143753
1.78946e-06
-0.000143354
-2.35007e-07
-0.000143726
-1.84428e-06
-0.000144513
-3.13492e-06
-0.000147263
-3.49212e-06
-0.000151823
-2.27927e-06
-0.000154125
2.46237e-07
-0.000154338
2.30657e-06
-0.000153567
4.03744e-06
-0.000153546
4.0803e-06
-0.000153024
2.96379e-06
-0.00015124
1.25927e-06
-0.000150323
-6.30809e-07
-0.000150155
-2.00133e-06
-0.000150071
-2.85184e-06
-0.000149811
-2.49265e-06
-0.000149622
-1.27474e-06
-0.00015045
2.40358e-07
-0.000151998
1.97233e-06
-0.00015315
3.30487e-06
-0.000154734
3.55873e-06
-0.000156352
2.45144e-06
-0.000157177
8.81126e-07
-0.000157233
-2.83824e-07
-0.000156768
-1.41289e-06
-0.000155184
-2.5172e-06
-0.000152994
-2.20782e-06
-0.000151228
-8.22545e-07
-0.000150349
4.16513e-07
-0.000150274
1.16136e-06
-0.000152163
1.82734e-06
-0.000156186
2.62988e-06
-0.000159259
2.42928e-06
-0.000160946
1.20974e-06
-0.000161585
3.11908e-07
-0.000161655
-3.92315e-07
-0.000160727
-9.52222e-07
-0.000156443
-1.35486e-06
-0.000153106
-7.66559e-07
-0.000151593
-3.91663e-10
-0.000151123
4.82212e-07
-0.000151293
7.94462e-07
-0.000154642
1.12287e-06
-0.000160267
1.66485e-06
-0.000163377
1.76622e-06
-0.000164617
7.65967e-07
-0.000164972
3.18701e-07
-0.000165017
-1.18985e-07
-0.00016312
-4.76309e-07
-0.000156145
-5.05912e-07
-0.000151974
-1.91488e-07
-0.000150858
-1.4335e-07
-0.000150802
-8.86032e-08
-0.000151925
-1.32615e-07
-0.000158623
1.67345e-07
-0.000164902
8.03795e-07
-0.000167685
1.08089e-06
-0.000168821
8.53593e-07
-0.000169028
4.19329e-07
-0.0001686
1.4392e-07
-0.000161168
-2.57362e-08
-0.000150986
-3.35199e-07
-0.000146889
-1.03162e-06
-0.000146393
-1.60588e-06
-0.000146736
-1.98867e-06
-0.000152654
-2.25274e-06
-0.00016222
-1.31325e-06
-0.000167166
-7.70262e-08
-0.000168722
5.68094e-07
-0.000169087
4.75322e-07
-0.000166905
1.87029e-07
-0.000155816
-7.71985e-07
-0.000141524
-2.74525e-06
-0.000129224
-4.36084e-06
-0.000121653
-5.10871e-06
-0.000119035
-2.23389e-05
-0.00013348
-5.31752e-05
4.02842e-05
-0.000142927
2.36195e-06
-0.000146105
5.06072e-07
-0.000147113
-1.43746e-06
-0.000147394
-3.59295e-06
-0.000148438
-3.32428e-06
-0.000148641
-1.28559e-06
-0.000146806
1.03105e-06
-0.000145062
2.71767e-06
-0.000144668
4.28214e-06
-0.000144005
3.94274e-06
-0.000143363
2.76152e-06
-0.000143302
9.61537e-07
-0.000143904
-7.14922e-07
-0.000144668
-2.15746e-06
-0.00014577
-3.7754e-06
-0.000147487
-2.10797e-06
-0.000149065
8.16471e-08
-0.000150107
2.15253e-06
-0.000150408
3.58632e-06
-0.000150393
4.0596e-06
-0.000150409
2.82225e-06
-0.000149581
1.63817e-06
-0.000147851
6.94679e-08
-0.000146716
-1.60652e-06
-0.000146043
-2.9499e-06
-0.000144744
-2.23841e-06
-0.000144345
-6.8955e-07
-0.000146132
5.66103e-07
-0.000149222
2.41027e-06
-0.000152097
3.60835e-06
-0.000154968
3.19969e-06
-0.000155996
1.92305e-06
-0.000155918
9.31004e-07
-0.000154408
-6.87341e-08
-0.000151942
-1.24623e-06
-0.00014868
-2.29034e-06
-0.00014544
-9.48669e-07
-0.00014434
2.16697e-07
-0.000144503
8.16279e-07
-0.000146992
1.62774e-06
-0.000151828
2.59552e-06
-0.000157099
2.7026e-06
-0.000159601
1.42277e-06
-0.000160064
4.59532e-07
-0.000159991
-2.35783e-07
-0.000158404
-8.93549e-07
-0.000152931
-1.37301e-06
-0.000147829
-2.0726e-07
-0.00014622
5.92164e-07
-0.000145978
8.24015e-07
-0.000146326
1.05326e-06
-0.000149385
1.27875e-06
-0.000156857
1.61161e-06
-0.000161115
1.34811e-06
-0.000162126
1.02536e-06
-0.000162397
4.28906e-07
-0.000162386
-2.01573e-07
-0.000160366
-3.21095e-07
-0.000153028
2.88939e-07
-0.000148681
7.1564e-07
-0.000147812
4.52263e-07
-0.000147743
2.92424e-07
-0.000148102
2.59596e-07
-0.00015205
2.71697e-07
-0.000160142
6.18742e-07
-0.00016373
1.22279e-06
-0.000164587
9.23716e-07
-0.000164677
5.49594e-07
-0.000164616
3.91914e-07
-0.000161682
4.90208e-07
-0.000153518
7.06602e-07
-0.000148564
3.52416e-07
-0.000147407
-2.72754e-07
-0.000147445
-5.5292e-07
-0.000148075
-8.2302e-07
-0.000154763
-8.7805e-07
-0.00016328
8.54539e-09
-0.000166022
7.22697e-07
-0.000166326
8.73631e-07
-0.00016648
9.22565e-07
-0.000165764
9.23904e-07
-0.000159517
7.70826e-07
-0.000149121
-4.97291e-08
-0.000143523
-1.66834e-06
-0.000142337
-2.86559e-06
-0.000142263
-3.4145e-06
-0.000144735
-3.9549e-06
-0.000154417
-3.71291e-06
-0.000161687
-1.90835e-06
-0.000163696
-6.43806e-07
-0.000164067
-1.23547e-07
-0.000162567
-3.14729e-07
-0.000153155
-1.45773e-06
-0.000140543
-4.21458e-06
-0.000128831
-8.09743e-06
-0.000120038
-1.08634e-05
-0.000117622
-3.01132e-05
-0.000137072
-5.16605e-05
4.0719e-05
-0.000150934
1.24431e-06
-0.000151553
6.2028e-07
-0.000150806
1.0562e-07
-0.000146917
-4.48246e-07
-0.000141677
-1.1745e-06
-0.000139658
5.40553e-07
-0.000139588
1.05316e-06
-0.000141268
1.3764e-06
-0.000144244
2.14059e-06
-0.000146657
2.70924e-06
-0.000148138
1.40101e-06
-0.000148405
4.98285e-07
-0.00014796
-5.70855e-08
-0.000146333
-8.54075e-07
-0.000142391
-1.83082e-07
-0.000140895
6.19275e-07
-0.000141
1.05721e-06
-0.000144036
1.26853e-06
-0.000149763
1.70124e-06
-0.000152567
2.44183e-06
-0.00015324
1.57732e-06
-0.00015325
9.47809e-07
-0.000152323
1.05241e-07
-0.00014895
-6.80823e-07
-0.000142957
-2.04357e-07
-0.000139704
7.40218e-07
-0.000139179
1.06984e-06
-0.000139647
1.2815e-06
-0.000145327
1.17159e-06
-0.000153676
1.73227e-06
-0.000156795
1.4691e-06
-0.000157265
9.51219e-07
-0.000157244
4.35513e-07
-0.000156645
-6.55747e-08
-0.00015211
-5.04152e-07
-0.00014403
7.367e-07
-0.000140929
1.51946e-06
-0.000140587
1.4294e-06
-0.000140686
1.23198e-06
-0.000143402
9.18398e-07
-0.000152867
9.72063e-07
-0.000158919
8.46466e-07
-0.000160216
6.53632e-07
-0.000160344
1.44291e-07
-0.000160211
-3.22911e-07
-0.000156816
6.69994e-08
-0.000147838
1.41247e-06
-0.000143396
1.98865e-06
-0.000142978
1.46436e-06
-0.000143027
9.37442e-07
-0.000143604
4.91066e-07
-0.000147801
5.08605e-08
-0.000156973
-1.47361e-08
-0.000161197
3.68984e-07
-0.000161706
4.2731e-07
-0.000161651
5.14759e-07
-0.000160692
9.38266e-07
-0.00015656
1.60286e-06
-0.000149367
1.963e-06
-0.00014554
1.45074e-06
-0.000145012
3.66723e-07
-0.000145059
-2.32553e-07
-0.000145504
-6.66774e-07
-0.000149324
-9.42757e-07
-0.000157661
-6.75414e-07
-0.000161366
2.68062e-07
-0.000161749
1.01411e-06
-0.000161658
1.40846e-06
-0.000161027
1.74444e-06
-0.000158274
1.81315e-06
-0.000151249
1.54161e-06
-0.000145816
2.50672e-07
-0.000144435
-1.01974e-06
-0.000144424
-1.51146e-06
-0.000144682
-1.82363e-06
-0.000148906
-2.06778e-06
-0.000157201
-1.22512e-06
-0.000160452
3.14436e-07
-0.000160949
1.22173e-06
-0.000161058
1.53626e-06
-0.000160847
1.49877e-06
-0.000157489
1.25165e-06
-0.000148432
2.08649e-07
-0.000140873
-1.84735e-06
-0.000137893
-3.90057e-06
-0.000137651
-5.17872e-06
-0.000137964
-5.7755e-06
-0.000142733
-6.19974e-06
-0.000149898
-5.15164e-06
-0.00015313
-3.12934e-06
-0.000154048
-1.95046e-06
-0.000153969
-1.93891e-06
-0.000148487
-2.70016e-06
-0.000137938
-5.52663e-06
-0.000126725
-9.82036e-06
-0.000118398
-1.27518e-05
-0.000118036
-3.00873e-05
-0.000137353
-5.17045e-05
4.2177e-05
-0.000152847
1.89294e-08
-0.00015347
4.39635e-07
-0.000153028
5.70733e-07
-0.000146307
2.02327e-06
-0.00013771
3.38323e-06
-0.000136709
2.21263e-06
-0.000136694
1.46482e-06
-0.000137569
9.61427e-07
-0.000142255
3.62612e-07
-0.000147985
-5.35656e-07
-0.000149019
8.77334e-08
-0.00014891
1.15922e-07
-0.000148254
2.29444e-07
-0.000143292
1.55744e-06
-0.000138698
2.53167e-06
-0.000138329
2.68797e-06
-0.000138472
1.89774e-06
-0.000140911
1.058e-06
-0.000147997
3.84624e-07
-0.000153094
-3.94293e-07
-0.000153657
2.2416e-07
-0.000153545
8.56973e-08
-0.000152232
1.58233e-07
-0.000145433
1.40133e-06
-0.000138931
2.54298e-06
-0.000137086
2.72062e-06
-0.000137021
2.31325e-06
-0.000137502
1.44637e-06
-0.000143702
6.36368e-07
-0.000153754
-9.13582e-07
-0.000156823
-4.1293e-07
-0.00015698
-2.55045e-07
-0.000156889
-3.45536e-07
-0.0001549
1.87617e-07
-0.00014645
2.05622e-06
-0.00013991
3.04322e-06
-0.000138632
2.796e-06
-0.000138598
2.02138e-06
-0.00013876
1.32877e-06
-0.000142036
4.48724e-07
-0.000152712
-1.41437e-06
-0.000158422
-8.19054e-07
-0.000159034
-4.44916e-07
-0.000158892
-1.10213e-07
-0.000156991
9.18643e-07
-0.000150832
2.43363e-06
-0.000144331
3.14111e-06
-0.000141767
2.70128e-06
-0.000141466
1.62629e-06
-0.000141497
5.39432e-07
-0.00014213
-3.79291e-07
-0.000146109
-1.17162e-06
-0.000153947
-1.20491e-06
-0.000157407
-4.09309e-07
-0.000157816
5.64424e-07
-0.000157419
1.62056e-06
-0.000156028
2.5371e-06
-0.000153235
2.83001e-06
-0.000148449
2.5898e-06
-0.000144646
1.39669e-06
-0.00014339
-1.91314e-08
-0.000143247
-8.34976e-07
-0.000143328
-1.37087e-06
-0.000145156
-1.7668e-06
-0.000151428
-1.42474e-06
-0.000155524
-2.78733e-08
-0.000156536
1.31294e-06
-0.000156668
2.04221e-06
-0.000156499
2.4058e-06
-0.000155558
2.41149e-06
-0.000150714
1.80037e-06
-0.000144345
1.73022e-07
-0.000141669
-1.48122e-06
-0.00014132
-2.42342e-06
-0.000141344
-2.74329e-06
-0.000142444
-2.84645e-06
-0.000148953
-2.28297e-06
-0.00015427
-2.75085e-07
-0.000155607
1.32837e-06
-0.000155824
1.93556e-06
-0.000155983
1.89883e-06
-0.000154903
1.5271e-06
-0.000148901
6.56737e-07
-0.000140298
-1.75716e-06
-0.000134714
-4.09853e-06
-0.000132959
-5.87245e-06
-0.000132903
-7.26888e-06
-0.00013408
-7.94573e-06
-0.000139869
-7.90474e-06
-0.000145173
-6.40534e-06
-0.00014731
-4.98867e-06
-0.000147682
-4.66612e-06
-0.000146717
-4.99006e-06
-0.000140261
-6.84203e-06
-0.000130628
-1.10739e-05
-0.000120747
-1.40369e-05
-0.00011709
-2.9044e-05
-0.000137437
-4.98604e-05
4.39645e-05
-0.000150387
-1.36583e-06
-0.000150121
6.26692e-07
-0.000147971
3.08914e-06
-0.000142676
5.0305e-06
-0.000138783
4.86655e-06
-0.000137642
3.60358e-06
-0.000137555
2.05119e-06
-0.000139541
6.0429e-08
-0.000143408
-1.79604e-06
-0.000146085
-1.85195e-06
-0.000146662
-1.67045e-06
-0.000146236
-7.21653e-08
-0.000143287
1.99475e-06
-0.00014008
3.33617e-06
-0.000138918
4.12456e-06
-0.000138848
4.16621e-06
-0.000139486
2.39056e-06
-0.00014331
3.75375e-07
-0.000148317
-1.14731e-06
-0.000151083
-1.45273e-06
-0.000151596
-1.36794e-06
-0.000151001
-6.08588e-07
-0.000146233
1.62883e-06
-0.000140429
3.26343e-06
-0.000137521
3.7868e-06
-0.000136983
3.83699e-06
-0.000137016
3.15056e-06
-0.000139029
1.59248e-06
-0.000145869
-7.02881e-07
-0.000151576
-1.88096e-06
-0.000154026
-1.83163e-06
-0.000154232
-1.33304e-06
-0.000153201
-1.20323e-07
-0.000147471
2.30781e-06
-0.000142086
3.54709e-06
-0.000139681
3.57386e-06
-0.000138763
3.11138e-06
-0.00013855
2.14509e-06
-0.000139023
9.11071e-07
-0.000143365
-1.18879e-06
-0.000150373
-1.58147e-06
-0.000153815
-1.61698e-06
-0.000154359
-4.94605e-07
-0.000153596
1.09478e-06
-0.0001506
2.78853e-06
-0.000147027
3.42266e-06
-0.000143902
3.14426e-06
-0.000141925
2.60581e-06
-0.000141243
1.30977e-06
-0.000141233
-2.21308e-07
-0.000141621
-1.39207e-06
-0.000143842
-1.7242e-06
-0.000148391
-1.51046e-06
-0.000151001
-1.23902e-07
-0.000151824
1.43035e-06
-0.000151741
2.7017e-06
-0.00015154
3.08146e-06
-0.000151081
2.87875e-06
-0.000148343
2.45816e-06
-0.000144491
1.03331e-06
-0.000142629
-3.74083e-07
-0.000142007
-1.53022e-06
-0.000141747
-1.78302e-06
-0.000141867
-1.67956e-06
-0.000144539
-1.36829e-06
-0.000149202
1.1228e-07
-0.000151193
1.66194e-06
-0.000152103
2.44437e-06
-0.000152708
2.48752e-06
-0.000152785
1.96493e-06
-0.000151337
1.57041e-06
-0.000145037
3.50434e-07
-0.000140105
-1.65323e-06
-0.000138338
-2.94895e-06
-0.000137771
-3.23899e-06
-0.000137819
-3.06756e-06
-0.000140206
-2.89864e-06
-0.000147062
-1.571e-06
-0.000151178
6.74712e-07
-0.00015248
1.84111e-06
-0.00015289
1.93854e-06
-0.000152912
1.54435e-06
-0.000149902
1.02263e-06
-0.000142048
-8.50271e-07
-0.000134945
-3.67296e-06
-0.000130632
-5.91633e-06
-0.000129369
-7.58744e-06
-0.000129332
-8.8504e-06
-0.000131389
-9.39327e-06
-0.000136716
-9.23319e-06
-0.000140329
-8.40653e-06
-0.000142077
-7.95001e-06
-0.000142532
-8.44437e-06
-0.000141067
-9.59384e-06
-0.000136002
-1.23034e-05
-0.000128056
-1.55264e-05
-0.00012184
-2.60481e-05
-0.000134136
-4.94784e-05
4.99645e-05
-0.000140173
-1.44059e-06
-0.000142296
1.43362e-06
-0.000142627
4.27523e-06
-0.000142469
5.80836e-06
-0.000142
5.63637e-06
-0.000141496
3.78373e-06
-0.000141811
1.48444e-06
-0.000142537
-5.23423e-07
-0.000142618
-2.20313e-06
-0.000142452
-2.56176e-06
-0.000140933
-1.13617e-06
-0.000138368
8.86293e-07
-0.00013735
2.18895e-06
-0.000137323
3.36332e-06
-0.000137938
4.07128e-06
-0.000141139
3.89496e-06
-0.000144788
2.23094e-06
-0.000146859
7.28886e-07
-0.000147715
-1.0158e-06
-0.000147828
-1.81961e-06
-0.000147319
-1.56793e-06
-0.000142868
5.6584e-07
-0.000138735
2.2398e-06
-0.000137214
2.92134e-06
-0.000136899
3.6087e-06
-0.000136871
3.75382e-06
-0.000138461
2.58323e-06
-0.000143905
3.46738e-07
-0.00014782
-4.67611e-07
-0.000149484
-1.67604e-06
-0.000149696
-1.66953e-06
-0.000149125
-5.90233e-07
-0.000145046
2.03459e-06
-0.000141217
3.03943e-06
-0.000139768
3.02645e-06
-0.000139176
2.9537e-06
-0.000138933
2.80131e-06
-0.000139421
9.568e-07
-0.000141255
-7.18349e-07
-0.000144371
-1.07148e-06
-0.000146787
-1.34525e-06
-0.000147759
-6.00623e-07
-0.000147833
1.0099e-06
-0.000146817
2.73018e-06
-0.000146031
3.21151e-06
-0.000145126
2.9332e-06
-0.000143876
2.76239e-06
-0.000143074
1.32707e-06
-0.000142595
-2.93927e-08
-0.000142087
-1.23016e-06
-0.0001415
-1.3139e-06
-0.000141498
-1.22837e-06
-0.000142493
-5.21715e-07
-0.000144746
8.80084e-07
-0.000146121
2.37583e-06
-0.000147422
3.22108e-06
-0.00014891
2.75397e-06
-0.000149334
2.04182e-06
-0.000149053
1.56373e-06
-0.000145976
6.97338e-07
-0.00014256
-8.59572e-07
-0.000140506
-1.83332e-06
-0.000138998
-1.64375e-06
-0.000138334
-1.04611e-06
-0.000138804
-6.28569e-07
-0.000143285
1.11351e-07
-0.000147564
1.60986e-06
-0.000149491
2.41136e-06
-0.000150644
2.2405e-06
-0.000151181
1.63926e-06
-0.000151123
1.08343e-06
-0.000147457
5.04507e-07
-0.000140577
-1.05017e-06
-0.000136088
-2.83659e-06
-0.000134292
-3.00072e-06
-0.000133995
-3.19423e-06
-0.000134303
-3.27577e-06
-0.000139066
-3.06148e-06
-0.000146557
-1.33407e-06
-0.000150292
7.11693e-07
-0.000151427
1.39555e-06
-0.000151637
1.27399e-06
-0.000151025
1.03085e-06
-0.000145638
3.26823e-07
-0.000137509
-2.08947e-06
-0.000131368
-5.04368e-06
-0.000127741
-7.38097e-06
-0.000126866
-8.69689e-06
-0.000127139
-9.96516e-06
-0.000130353
-1.11317e-05
-0.000135029
-1.13824e-05
-0.000137665
-1.11445e-05
-0.000138992
-1.1446e-05
-0.000139418
-1.29082e-05
-0.000137895
-1.48599e-05
-0.000133643
-1.73585e-05
-0.000127688
-2.30032e-05
-0.000130557
-5.01189e-05
5.75872e-05
-0.000131492
-6.13809e-08
-0.000132563
6.35341e-07
-0.000137138
2.53749e-06
-0.000141945
4.60331e-06
-0.000145671
4.51623e-06
-0.000147036
3.32083e-06
-0.000146825
2.07921e-06
-0.000145488
4.88266e-07
-0.000142475
-1.12612e-06
-0.000136909
-1.44585e-06
-0.000132872
3.98182e-07
-0.00013186
1.0296e-06
-0.000131857
1.46126e-06
-0.000133086
1.95739e-06
-0.000138364
2.56113e-06
-0.000146437
2.66782e-06
-0.000149282
1.45228e-06
-0.000149295
1.10337e-06
-0.000148562
6.16624e-07
-0.000146246
-1.39971e-07
-0.00013982
3.33164e-07
-0.00013495
2.0398e-06
-0.000134114
2.19337e-06
-0.000134122
2.05741e-06
-0.000134937
1.788e-06
-0.000137428
1.74046e-06
-0.000142859
5.41034e-07
-0.000147213
3.19618e-09
-0.000148312
-1.23902e-07
-0.00014821
-2.0338e-07
-0.000146706
7.26433e-07
-0.000142763
2.66311e-06
-0.000139943
3.24123e-06
-0.000138616
2.64863e-06
-0.000138511
2.4696e-06
-0.000138817
1.66355e-06
-0.000140837
-3.58815e-08
-0.0001419
-1.06047e-06
-0.000142166
-8.24962e-07
-0.000142545
-9.1467e-07
-0.000143091
-3.29297e-08
-0.000143035
1.47794e-06
-0.000142681
2.9301e-06
-0.000143012
3.68292e-06
-0.000144126
2.89486e-06
-0.000144885
2.33244e-06
-0.000145118
1.28789e-06
-0.000144632
1.92616e-07
-0.000143697
-1.25465e-06
-0.00014202
-1.32164e-06
-0.000139548
-9.2149e-07
-0.000137967
7.7719e-08
-0.000137881
7.79189e-07
-0.000139963
1.45944e-06
-0.000143457
2.60793e-06
-0.00014618
3.1494e-06
-0.000148236
2.367e-06
-0.000149324
1.44517e-06
-0.000149383
7.43314e-07
-0.000148093
2.47578e-07
-0.00014273
-3.84957e-07
-0.000137826
-1.20684e-06
-0.000135492
-8.43725e-07
-0.000134904
-7.30205e-07
-0.000134977
-6.17536e-07
-0.000138177
-3.74357e-07
-0.000144997
6.3284e-07
-0.000148679
1.81916e-06
-0.000150101
1.89913e-06
-0.000150612
1.48968e-06
-0.000150674
1.12881e-06
-0.000149124
6.68104e-07
-0.000141747
3.21456e-07
-0.000135222
-1.61224e-06
-0.000132001
-2.68455e-06
-0.000131405
-3.05358e-06
-0.00013143
-3.80379e-06
-0.000132834
-4.28794e-06
-0.000139941
-4.05881e-06
-0.000147039
-2.16012e-06
-0.000149765
-1.50392e-07
-0.000150387
5.28799e-07
-0.000150535
6.11099e-07
-0.000148654
7.02425e-07
-0.000141553
4.61582e-08
-0.000133516
-2.58165e-06
-0.000128499
-5.95418e-06
-0.000126154
-8.42349e-06
-0.000125759
-1.0268e-05
-0.000126544
-1.25318e-05
-0.000130412
-1.35672e-05
-0.000134352
-1.35638e-05
-0.000136219
-1.3443e-05
-0.000137088
-1.44484e-05
-0.000137198
-1.68334e-05
-0.000136078
-1.88443e-05
-0.000132323
-2.16899e-05
-0.000128341
-5.01256e-05
6.33739e-05
-0.000126085
1.12204e-06
-0.000126215
1.05745e-06
-0.00013064
1.19629e-06
-0.000143525
1.37233e-06
-0.000150177
2.55469e-06
-0.000151019
2.14584e-06
-0.000150888
1.91144e-06
-0.000149294
1.61945e-06
-0.000141112
7.82751e-07
-0.000131444
1.93339e-06
-0.000128855
1.82262e-06
-0.000128605
1.384e-06
-0.000128655
1.24814e-06
-0.000129916
1.14447e-06
-0.000138832
4.22998e-07
-0.000148403
-1.35905e-07
-0.000150585
9.80093e-07
-0.000150648
1.00548e-06
-0.000150174
1.08479e-06
-0.000144107
2.38057e-06
-0.00013576
3.83623e-06
-0.000133246
2.84231e-06
-0.000132856
2.20043e-06
-0.000132822
1.7618e-06
-0.000133927
3.22744e-07
-0.000138399
-1.5811e-06
-0.000143568
-1.52653e-06
-0.000146447
-4.39754e-07
-0.000146442
5.04531e-07
-0.000144983
2.06971e-06
-0.000141421
3.90256e-06
-0.000139942
4.64892e-06
-0.000139861
3.44143e-06
-0.000139705
2.83073e-06
-0.000140051
1.28158e-06
-0.000141753
-3.113e-07
-0.000142309
-1.81324e-06
-0.00014204
-1.64087e-06
-0.000140757
-1.21265e-06
-0.00013914
2.31688e-07
-0.000138653
1.39452e-06
-0.000139406
2.57255e-06
-0.000140598
3.72969e-06
-0.000142728
3.64745e-06
-0.000145366
2.66234e-06
-0.000146738
1.34714e-06
-0.000146985
4.13997e-07
-0.000146244
-4.26446e-07
-0.000143241
-1.32451e-06
-0.000138819
-9.62435e-07
-0.000135608
1.10619e-07
-0.000134628
6.2798e-07
-0.000134591
9.21138e-07
-0.000136687
1.23946e-06
-0.000142589
1.98177e-06
-0.000147308
2.19891e-06
-0.000149161
1.62974e-06
-0.000149537
1.17086e-06
-0.000149585
6.28278e-07
-0.000148769
2.86532e-07
-0.00014217
4.13312e-07
-0.00013496
4.52569e-07
-0.000132609
-2.11284e-08
-0.000132465
-6.48989e-07
-0.000132521
-1.17233e-06
-0.000134481
-1.58558e-06
-0.000142363
-1.17587e-06
-0.000148714
3.6109e-07
-0.000150269
1.43572e-06
-0.000150364
1.5139e-06
-0.000150384
1.43987e-06
-0.000149473
1.68092e-06
-0.000143753
1.78046e-06
-0.000135848
3.59276e-07
-0.00013206
-2.00636e-06
-0.000130565
-3.21059e-06
-0.000130318
-4.26623e-06
-0.000130514
-5.47791e-06
-0.000133567
-6.20897e-06
-0.000141406
-5.50575e-06
-0.000146837
-2.70089e-06
-0.000148478
-7.41241e-07
-0.000148781
1.48698e-07
-0.000148452
7.23751e-07
-0.000145273
6.92538e-07
-0.000138652
-6.28221e-07
-0.000132169
-3.81616e-06
-0.000128029
-7.63574e-06
-0.000125738
-1.07595e-05
-0.000125433
-1.28594e-05
-0.000126343
-1.50996e-05
-0.000130275
-1.54855e-05
-0.000133523
-1.49508e-05
-0.000135211
-1.51402e-05
-0.000135934
-1.72065e-05
-0.000135902
-1.96186e-05
-0.00013457
-2.14897e-05
-0.000127257
-4.96932e-05
6.69519e-05
-0.000125698
2.05675e-06
-0.000125687
1.48679e-06
-0.000128813
6.38898e-07
-0.000142632
-7.21814e-07
-0.000150591
-2.04799e-07
-0.000151284
9.3377e-07
-0.000151127
1.3968e-06
-0.000148588
2.2146e-06
-0.000138377
3.94969e-06
-0.000130736
4.12736e-06
-0.000128732
2.76125e-06
-0.00012863
2.00697e-06
-0.000128864
9.80865e-07
-0.000131729
-8.74054e-07
-0.000139294
-2.43045e-06
-0.000147006
-1.52603e-06
-0.000148931
-3.70429e-08
-0.00014878
1.60193e-06
-0.000146073
3.51715e-06
-0.000140476
5.20485e-06
-0.000136092
4.80762e-06
-0.000134282
3.77364e-06
-0.000134287
2.15948e-06
-0.000135998
8.44769e-08
-0.000138453
-1.80225e-06
-0.000138907
-2.78272e-06
-0.000139627
-2.50854e-06
-0.000140821
-6.46989e-07
-0.000141171
1.80772e-06
-0.000140625
3.72582e-06
-0.000140301
5.17373e-06
-0.000140386
4.9843e-06
-0.000141257
3.71287e-06
-0.000142661
1.8299e-06
-0.000143215
3.38859e-07
-0.000143036
-1.00998e-06
-0.000142465
-2.08312e-06
-0.00013971
-1.64072e-06
-0.000135963
2.65869e-08
-0.000134482
1.09165e-06
-0.000134412
1.66274e-06
-0.000136148
2.25955e-06
-0.000140547
3.25008e-06
-0.000145204
2.90276e-06
-0.000147561
1.80223e-06
-0.00014808
1.08648e-06
-0.000148081
3.83004e-07
-0.000146974
-3.41128e-07
-0.000140465
-1.13689e-07
-0.000134089
8.07023e-07
-0.000132138
8.42844e-07
-0.000131931
5.60985e-07
-0.000132064
3.24054e-07
-0.000134595
5.34316e-08
-0.000143295
4.24727e-07
-0.000148923
8.44503e-07
-0.000149794
1.00748e-06
-0.000149819
1.16557e-06
-0.000149641
1.0659e-06
-0.000147757
1.75095e-06
-0.000141297
2.5764e-06
-0.000134769
1.45407e-06
-0.000132142
2.42437e-07
-0.000131629
-7.4901e-07
-0.000131681
-1.68275e-06
-0.000132598
-3.07617e-06
-0.000138651
-3.47419e-06
-0.000146704
-2.00613e-06
-0.000149143
5.29193e-07
-0.000149332
1.78741e-06
-0.000148954
2.55764e-06
-0.000148282
3.07741e-06
-0.000146032
2.96494e-06
-0.000139638
1.70932e-06
-0.000134236
-1.14376e-06
-0.000131984
-3.62148e-06
-0.000131262
-5.25371e-06
-0.000130883
-6.57994e-06
-0.000130964
-6.65853e-06
-0.000133447
-6.98104e-06
-0.000139905
-5.68338e-06
-0.000144086
-2.85909e-06
-0.000145697
-9.43449e-07
-0.000146072
-1.85035e-07
-0.000145863
1.44665e-07
-0.000143377
-5.34537e-07
-0.000138252
-2.7959e-06
-0.000132353
-5.86096e-06
-0.000127616
-9.70525e-06
-0.000124817
-1.30329e-05
-0.000124614
-1.49889e-05
-0.000125538
-1.69085e-05
-0.000129624
-1.68909e-05
-0.000133085
-1.62176e-05
-0.000135067
-1.74505e-05
-0.000135519
-2.01734e-05
-0.000136047
-2.1617e-05
-0.000126869
-4.92015e-05
6.90908e-05
-0.000127427
2.85627e-06
-0.000128016
1.42813e-06
-0.000133041
-1.01773e-06
-0.00014122
-2.28881e-06
-0.000146873
-1.72804e-06
-0.000147945
-7.993e-08
-0.00014734
1.97844e-06
-0.000143016
4.24919e-06
-0.000137178
5.54295e-06
-0.000132772
4.87264e-06
-0.000131426
3.68767e-06
-0.000131402
1.74223e-06
-0.00013339
-6.0172e-07
-0.00013551
-2.26726e-06
-0.000137259
-2.77511e-06
-0.000139951
-2.10806e-06
-0.000141923
4.79935e-07
-0.000142105
3.0039e-06
-0.000141003
4.85213e-06
-0.000140278
5.78555e-06
-0.000139343
5.39651e-06
-0.00013884
3.10476e-06
-0.000139247
9.3796e-07
-0.000139812
-8.07131e-07
-0.000139738
-2.15925e-06
-0.00013872
-2.61782e-06
-0.000135232
-8.85877e-07
-0.000133922
6.65667e-07
-0.000134392
1.59641e-06
-0.000136624
2.94094e-06
-0.000139359
4.40063e-06
-0.000143082
4.41259e-06
-0.000145442
2.69245e-06
-0.000146041
1.67926e-06
-0.000145896
6.91202e-07
-0.00014469
-2.90622e-07
-0.000140156
-1.31645e-06
-0.000134282
3.96517e-07
-0.00013182
9.12969e-07
-0.000131394
1.12247e-06
-0.000131451
1.20637e-06
-0.000133988
1.28771e-06
-0.000142794
1.84672e-06
-0.00014851
1.25826e-06
-0.000149372
1.1246e-06
-0.0001493
1.02806e-06
-0.000148906
1.07796e-06
-0.000145925
1.18977e-06
-0.00013786
2.57684e-06
-0.000132432
2.10954e-06
-0.000131031
1.08621e-06
-0.000130905
5.26613e-07
-0.000131012
-6.63655e-08
-0.000133748
-1.48333e-06
-0.000142992
-2.53653e-06
-0.000148566
-7.08692e-07
-0.000149496
5.78896e-07
-0.000149439
1.53738e-06
-0.000148139
2.85386e-06
-0.00014591
3.83225e-06
-0.000142023
3.62323e-06
-0.000136585
2.46728e-06
-0.00013379
3.94607e-07
-0.000133286
-1.56096e-06
-0.000133625
-3.35387e-06
-0.000133844
-4.50792e-06
-0.000134515
-4.16023e-06
-0.000139695
-3.87113e-06
-0.000144972
-8.47046e-07
-0.000146749
2.01604e-06
-0.000147092
3.35019e-06
-0.000147239
3.79735e-06
-0.000147312
3.1325e-06
-0.000145384
2.29141e-06
-0.000139482
4.84471e-07
-0.000134861
-2.69309e-06
-0.000132053
-5.20804e-06
-0.000130042
-6.61813e-06
-0.00012907
-6.57492e-06
-0.000129142
-6.81478e-06
-0.000131583
-6.96957e-06
-0.000137989
-5.9586e-06
-0.000142626
-3.68598e-06
-0.000144815
-2.30277e-06
-0.000145271
-2.04299e-06
-0.000145018
-1.87931e-06
-0.000142927
-3.05078e-06
-0.000138208
-4.89146e-06
-0.000131488
-7.5532e-06
-0.000125996
-1.12976e-05
-0.000123296
-1.47846e-05
-0.000123308
-1.68326e-05
-0.000124643
-1.88405e-05
-0.000129814
-1.85842e-05
-0.0001339
-1.87051e-05
-0.000135756
-2.10093e-05
-0.000137071
-2.2215e-05
-0.000126929
-4.73502e-05
7.11279e-05
-0.000131741
2.55775e-06
-0.000134246
3.36063e-07
-0.000136543
-7.32721e-07
-0.00013855
-2.14922e-06
-0.000139913
-1.43614e-06
-0.000140472
8.75693e-07
-0.000139516
2.86827e-06
-0.000138316
4.22321e-06
-0.000137763
5.1173e-06
-0.000136897
5.13388e-06
-0.000136509
2.97972e-06
-0.000137166
8.30331e-07
-0.00013747
-8.3303e-07
-0.000137282
-1.81522e-06
-0.000135623
-2.02232e-06
-0.0001338
6.12951e-08
-0.00013376
1.32198e-06
-0.000135571
2.48462e-06
-0.00013747
3.85985e-06
-0.000140254
5.20787e-06
-0.000143382
3.41399e-06
-0.000144268
1.95457e-06
-0.000143957
1.06647e-06
-0.000142842
-1.11305e-07
-0.000140021
-1.46966e-06
-0.000134203
-4.81702e-07
-0.000130623
8.68493e-07
-0.000129896
1.22588e-06
-0.000129923
1.47136e-06
-0.000132744
1.7212e-06
-0.000141576
2.40809e-06
-0.000147613
1.95644e-06
-0.000148664
1.67412e-06
-0.000148626
1.37066e-06
-0.000148166
1.32903e-06
-0.000144645
9.1446e-07
-0.00013579
2.01285e-06
-0.00013079
2.16974e-06
-0.000129925
1.50914e-06
-0.000129866
1.19996e-06
-0.000130006
9.17676e-07
-0.000133356
1.26644e-07
-0.000143998
-1.86489e-06
-0.000149091
-2.6273e-07
-0.00014964
5.98483e-07
-0.000149628
1.10652e-06
-0.000148103
2.31747e-06
-0.000143447
4.01678e-06
-0.000137784
4.44588e-06
-0.000133216
3.14834e-06
-0.00013195
1.61027e-06
-0.000131961
-1.19765e-07
-0.000133166
-2.1281e-06
-0.000134912
-3.66952e-06
-0.00013918
-3.33619e-06
-0.000144367
-1.9377e-06
-0.000146121
9.74555e-07
-0.000145949
2.96433e-06
-0.00014462
4.5785e-06
-0.000144383
4.85078e-06
-0.000144095
3.93976e-06
-0.000141677
2.9142e-06
-0.000138112
5.44658e-07
-0.000135893
-2.14171e-06
-0.000134589
-3.88681e-06
-0.000133162
-4.60377e-06
-0.00013204
-4.11625e-06
-0.000132423
-3.50802e-06
-0.000137191
-2.71577e-06
-0.000142861
9.77236e-08
-0.000145537
2.73862e-06
-0.00014723
3.73783e-06
-0.000148203
2.72977e-06
-0.000148198
2.10121e-06
-0.000145797
1.51395e-06
-0.000139226
-1.09471e-07
-0.000133269
-3.15638e-06
-0.000129691
-5.4243e-06
-0.000127566
-6.20151e-06
-0.000127034