/*--------------------------------*- C++ -*----------------------------------*\
  =========                 |
  \\      /  F ield         | OpenFOAM: The Open Source CFD Toolbox
   \\    /   O peration     | Website:  https://openfoam.org
    \\  /    A nd           | Version:  12
     \\/     M anipulation  |
\*---------------------------------------------------------------------------*/
FoamFile
{
    format      ascii;
    class       surfaceScalarField;
    location    "4.26";
    object      phi;
}
// * * * * * * * * * * * * * * * * * * * * * * * * * * * * * * * * * * * * * //

dimensions      [1 0 -1 0 0 0 0];

internalField   nonuniform List<scalar> 
33852
(
0.000251329
2.24281e-05
-0.000273757
-0.000246121
1.32441e-05
0.000232877
-0.000176818
-7.2191e-05
0.000245662
0.000304053
-0.000163969
-0.000140085
0.000292439
-4.29181e-05
-0.000250216
2.72441e-05
-0.000260681
0.000233437
0.000314437
1.46929e-05
-0.000329356
0.000304277
-9.59564e-05
-0.000208321
0.000286413
-3.50841e-05
0.000202642
1.95235e-06
-0.000187606
0.000289576
-0.000366857
7.71585e-05
0.000360053
-4.56296e-05
-4.39602e-05
0.000263285
-0.000219325
-4.38659e-05
0.000318472
-0.000274537
6.02802e-05
-0.000237778
0.000252057
1.2236e-05
-0.000264293
0.000264853
-1.2796e-05
-0.000278433
3.23121e-05
0.000340831
-5.11606e-05
0.000158593
0.000112308
-0.000270901
-2.44007e-05
0.000303309
-0.000278835
0.000271377
-0.000276165
4.78802e-06
-1.77616e-05
0.000275553
-0.000257916
-0.000226465
1.50469e-05
0.000211478
-0.000153411
-0.000182383
0.00033607
-0.000152395
-7.41248e-05
0.000212248
3.72401e-05
0.000267037
-6.12676e-05
-0.000263591
0.000323783
-0.000206043
1.99171e-06
0.000211564
-0.000206165
-1.94755e-05
0.000142045
0.000137388
-0.000279433
0.000340941
1.92404e-05
0.000142618
0.000128347
-0.000270965
-0.000101136
0.000259729
-0.000250489
-3.78001e-06
0.000254269
0.000330976
-5.96836e-05
-0.000271281
-0.000355827
0.000202582
-0.000227827
0.000209982
0.000231645
3.32081e-05
-5.65602e-06
0.000237301
-8.55163e-06
0.000226576
-0.000232625
0.000259869
0.000315219
-5.69274e-05
-0.000258475
-0.000309093
5.51042e-05
0.000253989
0.000240144
-0.000302345
0.000273589
-0.000306321
3.27321e-05
-0.000180237
-5.49362e-05
0.000235173
0.000272133
-0.000272133
0.000148429
-0.000297473
0.000149045
-0.000212317
0.00021872
-7.10585e-06
-0.000268241
0.000237301
3.09401e-05
-0.00020128
0.000247894
-4.7441e-05
-9.16164e-05
-0.000217477
-0.000114667
-0.000252323
-0.000280169
0.000266113
1.40561e-05
0.000329477
1.18712e-05
-0.000250433
7.01963e-05
0.000117908
0.000145909
-0.000263817
1.34681e-05
-0.000267457
0.000253989
-0.000134569
0.000282997
-0.000154269
-5.30487e-05
0.000208107
-0.000274681
0.000245113
2.95681e-05
0.000237553
-0.000268437
3.08841e-05
-0.000179952
-2.25794e-05
0.000151665
0.000115565
-0.00026723
-0.000192204
-2.89784e-05
0.000218288
0.000263985
2.24281e-05
0.000275941
-2.35201e-06
0.000265329
-0.000250741
-1.45881e-05
0.000232683
-6.47998e-05
-0.000158339
-1.82001e-06
0.000239373
0.000366327
-0.00031246
-5.38909e-05
-2.81494e-05
0.000303625
-0.000275214
-0.000101584
0.000219493
0.000342799
2.42273e-05
-0.000371073
0.000353545
1.80653e-05
-0.000215973
2.27631e-05
0.000308856
-0.00032135
1.22739e-05
-0.000207652
0.00027227
-6.44142e-05
-4.45202e-06
1.70799e-05
-0.000318751
0.000301629
0.000235184
-0.000198558
-3.55909e-05
0.000270115
-0.000339964
7.0227e-05
0.000333632
-6.35432e-05
-0.000268941
0.000236573
3.23681e-05
-0.000129388
-0.000132609
0.000261997
-1.86761e-05
-0.000249565
-1.022e-05
-0.000258721
2.37035e-05
0.000209358
-0.000233648
3.02702e-05
-0.000212114
0.000195133
-2.5033e-05
0.000328736
-0.000302695
-0.000279329
0.000273701
5.62802e-06
0.000156129
-0.000296857
0.000140729
-5.83252e-05
-0.000144974
0.0002015
0.000143277
0.0001218
-0.000265077
-0.000250042
0.000225752
-0.000207168
0.000146793
-0.000168813
0.000327181
-0.000158369
0.000185389
7.16523e-05
-0.000257041
0.000255193
2.07481e-05
-0.000192277
0.000148317
5.02679e-05
0.000265364
0.00030653
-0.000289413
9.73716e-05
-0.000252256
0.000135241
0.000117096
-0.000281065
-1.65718e-06
0.000243628
-0.000241922
0.000166489
0.000122836
-0.000289325
0.000145082
9.06096e-05
-3.92002e-06
0.000259113
0.000303376
5.43971e-06
-0.000324012
0.000314989
8.99912e-06
-3.99002e-05
0.000236293
-0.000196393
4.08802e-06
-0.000284257
-2.48309e-05
0.000164229
-0.000144079
-0.000161789
0.00013107
0.000210294
-0.000167054
-0.000269921
0.000264965
4.95602e-06
2.64041e-05
0.000174721
-0.000201125
2.87841e-05
-0.000257265
0.000228481
0.000276137
-0.000262669
0.000115108
0.000212073
0.000213304
-0.000189827
-0.000175813
0.000202217
1.36736e-05
0.000282469
-0.000296493
0.000269937
2.16978e-05
0.000270939
-0.000283276
1.23026e-05
3.86402e-06
0.000267513
-1.79788e-05
0.000289206
0.000330831
9.9482e-06
0.000213705
-0.000257626
0.000316579
-0.000316565
-6.63603e-06
-0.000272693
2.83337e-05
0.000208454
0.000187993
3.98722e-05
-0.000227865
-5.44079e-05
0.000208597
-0.000165636
0.000153609
-0.000270285
0.000116676
0.000279441
-0.000329701
5.02602e-05
-6.38122e-05
0.000249201
-0.000166909
0.000315897
-0.000148989
-0.000313935
-1.00964e-05
-0.000214929
0.000175029
2.78601e-05
-0.000278349
0.000276221
-1.88441e-05
-0.000248613
1.72539e-05
-0.000303024
0.000285825
0.000344989
-0.000158593
-0.000186397
-1.68585e-05
-0.000240625
0.000257197
-0.000266617
-3.30401e-06
0.000224001
2.45841e-05
-0.000248585
0.000284509
-0.000128381
0.000140197
0.000138853
-0.000279049
-0.000200718
-1.09917e-05
0.000258169
-0.000115551
0.000225652
-0.000242546
-6.38122e-05
0.000251805
-0.000207501
0.000249481
-5.60002e-07
-0.000248921
0.000255109
-0.000237441
-0.000324577
0.000300439
-3.08841e-05
0.000203169
-0.000172285
0.000291776
1.27648e-06
-0.000293456
7.27164e-05
0.000128769
-0.000204256
4.62154e-05
-0.000199987
-0.000288669
-4.51264e-06
0.00029339
-1.60553e-06
-0.000287228
0.000146973
-0.000273925
0.000126952
-0.000263644
0.000220761
-0.000293662
0.000265831
0.000279441
-0.000312916
-1.23957e-05
0.000325368
0.000110868
0.000161471
-2.13311e-05
0.000352122
0.000140141
0.000139833
-0.000279973
0.000245029
-0.000250349
5.32002e-06
-0.000210953
0.000180069
0.000279133
-5.43202e-06
0.00035086
-3.27244e-05
-0.000303521
0.000303789
-1.88176e-06
0.000270985
-0.000270985
-0.000364276
0.000225711
0.000138596
-0.000199418
1.86714e-05
1.68748e-05
0.000275157
-0.000278461
3.30401e-06
-4.94631e-06
0.000166951
-0.000162352
-0.000197345
0.000254801
-5.74562e-05
-0.000205882
4.52362e-06
-0.000247274
0.000156991
7.92795e-05
-0.000180264
0.000261399
-8.11331e-05
0.000256285
-0.000287113
3.08281e-05
-0.000249229
5.18842e-05
-2.35828e-05
0.000275732
-0.000252678
-0.000253547
1.35801e-06
0.000252189
0.000231281
-7.28003e-06
-0.000294401
7.56658e-06
0.000286804
-0.000266085
0.000266085
-0.000284385
-5.50647e-05
-0.000170418
-0.000193837
-0.000171672
0.000215972
-4.44341e-05
-1.232e-05
-0.000239177
0.000251497
3.10801e-06
0.000210113
-0.000213221
-0.000184247
-2.24973e-05
0.000206845
7.60122e-06
0.000294629
-0.000302198
-0.000236153
-1.34401e-05
0.000249593
1.50361e-05
-0.000251189
-0.000241025
0.000256061
-0.000301408
0.000309039
0.000256117
7.16803e-06
-0.000167965
-3.21241e-05
0.00020392
-0.000145237
-0.000134765
-0.000244329
0.000240549
0.000298549
-3.96114e-07
-0.000298152
-0.000298852
6.11321e-07
0.000298227
1.91912e-05
0.000181217
0.000163773
7.70043e-05
-0.000257269
-0.000159242
0.000310908
0.000250721
-0.000108677
-0.000235145
-1.83681e-05
0.000253513
-0.000204525
-0.000126776
0.000331133
-6.10402e-06
-0.000229125
0.000235229
-2.14432e-05
-0.000181023
-0.000285841
-8.5207e-05
6.2999e-06
-0.000300692
-0.000212795
0.00032671
-0.000115154
0.000281597
0.000288205
-5.16322e-05
0.000271993
-1.57081e-05
-0.000187768
-1.40449e-05
0.000200757
0.000297599
4.59779e-07
-0.000297748
-0.000270166
-3.27865e-05
-0.000218821
0.000247605
-2.52136e-05
0.000310562
-0.000285329
0.000177965
7.85144e-06
-0.000186823
-3.38754e-05
0.000212387
-0.00030133
0.000276153
0.000292654
5.83278e-06
-0.000298185
0.000157445
0.00011886
-0.000276305
0.000290057
4.30916e-06
-0.000294627
-0.000250246
0.000122778
0.000131249
-0.000281733
0.000295508
0.000302513
-0.000156857
-0.000145657
0.000207005
-0.000203897
-0.000232009
-0.000121156
-0.000155009
-4.04791e-06
-0.000294146
0.000298145
-1.0136e-05
0.000276249
0.000289156
-1.99259e-05
-0.000269628
-0.000262889
2.9222e-05
0.000233868
0.000271433
-0.000267569
0.000249621
2.95121e-05
0.000314793
-9.73812e-06
-0.000305013
4.94785e-05
0.000151686
-0.00020424
-0.000102303
0.000196234
-9.7528e-05
0.000252617
-2.91201e-05
-0.000223497
7.62825e-07
0.000291926
-0.000179758
-3.20854e-05
0.000214843
-1.93985e-06
0.000290914
-9.33244e-05
0.000246933
-0.000255417
-5.26402e-06
0.000121184
0.000181329
1.34121e-05
0.000241557
-0.000254969
0.000236097
1.34961e-05
-0.000249593
0.000249509
-0.000242929
0.000256425
6.38337e-05
-0.000203496
0.000139419
-0.00021989
0.000117908
-0.000201525
0.000297242
1.42673e-06
-0.000298677
0.000253849
2.22881e-05
0.000268493
-0.000216441
-5.20522e-05
0.000225518
-0.000246849
2.13305e-05
0.000257909
1.40841e-05
5.75136e-05
0.000296184
0.000267186
-3.89594e-05
-0.000228226
0.000173888
1.274e-05
0.000240297
-0.000253037
0.000196093
-0.000115222
-8.13066e-05
-0.000205891
2.13556e-05
-1.23331e-06
-0.000298
0.000299228
0.000219219
-0.000171568
-5.4259e-05
0.000344649
-4.12668e-05
0.000275969
-0.000135829
2.31561e-05
0.000238337
-0.000261493
-0.000231141
0.000254297
-2.66861e-05
-0.000229708
0.00025641
0.000152788
-0.000158039
-7.48861e-05
-0.000168031
-0.000261723
4.14346e-05
0.000220288
-3.17521e-05
-0.00022997
6.81166e-06
0.000261717
-3.25193e-05
-0.000229198
1.68045e-05
0.000130624
-0.000205475
0.000308785
-0.000171397
0.000262319
-3.57923e-05
-0.000226526
-0.00031909
0.000171062
-9.82931e-05
-0.000228453
-6.90203e-05
-1.10069e-06
-0.000298988
0.000299154
-2.7263e-05
0.000180995
-0.000154311
0.000308063
6.8818e-06
0.000250097
-0.000248249
-1.84801e-06
-0.000176816
6.18085e-05
0.000260249
-3.07159e-05
-0.00022953
0.000197345
-0.000250769
5.34242e-05
0.000254206
-0.000231206
-2.29992e-05
-0.000252337
0.000240017
0.0001448
0.000101359
-0.000101864
-0.000170269
0.000132496
-0.000261885
-0.000290249
0.000242201
4.80483e-05
0.000216808
3.12478e-05
-0.000248056
-0.000237962
-9.4494e-06
0.000247701
0.000326954
-2.31271e-05
0.000263996
-3.42721e-05
-0.000229724
0.000142947
-0.000238785
9.12744e-05
3.63259e-05
-0.000265637
0.000229311
-0.000253905
0.000121296
0.000249817
-5.24722e-05
0.000294673
-0.000154253
-0.000140421
0.000122248
-0.000289157
1.53441e-05
0.000237665
-0.000253009
-0.000262031
3.54705e-05
0.00022656
-2.70632e-06
-3.77917e-05
-0.000224239
0.000248162
-0.000271857
-0.000264649
3.44737e-05
0.000230175
0.000193257
0.000101416
-0.000149941
0.000290137
-0.00016891
-3.8132e-05
0.000208827
-1.81721e-05
0.000263201
-0.000293402
0.000310677
0.000113642
0.000100911
0.000261325
-0.000261325
0.000314781
-2.00646e-05
-0.000292094
5.32002e-07
0.000248949
0.000254857
1.65761e-05
0.000310599
-0.000277005
-3.33972e-05
-2.26336e-05
0.000266577
-0.000243943
3.00077e-05
-0.000260519
0.000230511
-0.000252139
0.000229506
0.000329289
3.11501e-05
-0.000260598
0.000229447
0.000276809
-3.16961e-05
-7.18689e-06
-0.000291901
0.000299887
0.000271258
3.92147e-05
0.000230245
-0.000266617
3.63721e-05
0.000201078
-0.000201973
-0.000258301
0.000238533
1.97681e-05
0.000169762
-0.000257245
8.74835e-05
-0.000207897
0.000163241
-0.000249145
8.59043e-05
-0.000266169
0.000224813
4.13562e-05
0.000253073
-2.78797e-05
-0.000225194
0.000164127
4.05542e-05
-0.000234837
-2.29601e-05
0.000257797
-0.000236377
-2.28761e-05
0.000259253
-1.94265e-05
0.000255969
-0.000236542
-0.000259345
0.000239919
-3.52057e-05
0.000171235
-0.000235929
-2.24001e-05
0.000258329
-0.00025484
0.000229192
2.56481e-05
2.94001e-06
0.000211289
-0.000214229
-0.000267031
3.79849e-05
0.000229046
0.000270677
4.48002e-06
4.16534e-05
0.000166376
-0.000198551
-3.31199e-05
0.000249928
-2.09356e-05
0.000218597
9.73004e-05
0.000248199
-0.000216953
0.000277043
-0.000278737
0.000276968
-0.000281447
-1.84997e-05
0.000258601
-0.000240101
-0.000261644
0.000243145
3.06623e-05
-0.000202536
-3.02225e-05
-0.000201426
0.000231869
0.000315764
-0.000287629
-2.75138e-05
0.000261297
-3.11081e-05
-0.000230189
3.28739e-05
-0.000262362
0.000229488
-0.000229853
0.000259645
-2.97921e-05
0.000325948
-1.76835e-05
0.000152456
-0.000207621
0.000256929
-0.000109956
-0.000286387
0.000287315
0.000241977
-6.41202e-06
-0.000235565
0.000228537
-0.000178956
-3.66786e-05
0.000215534
2.86087e-05
-0.000209206
-0.000239989
0.000260317
-2.03281e-05
-0.000102422
0.000188834
-8.55266e-05
3.07078e-05
-0.000199534
0.000240169
-0.000263424
2.32552e-05
-0.000115584
0.000258861
-0.000243993
0.000265721
-2.17281e-05
-0.000238953
0.000232541
0.000258626
-0.000245105
-1.35213e-05
0.000264349
-2.46681e-05
-0.000246317
-0.000273319
-1.05313e-05
0.00029723
-5.34056e-05
-9.56236e-06
0.00029111
-0.000281106
-0.000159096
0.000210194
0.000231073
1.77115e-05
-0.00024731
0.00032842
-0.000328362
0.000260955
-0.000245018
-1.59377e-05
-0.00030171
-7.07267e-07
0.00030606
9.78339e-06
3.72466e-05
0.000166269
-0.000205485
0.000208109
-3.32231e-05
-0.000177061
0.000278054
-0.000255789
-2.22648e-05
-0.000205697
3.13503e-05
3.15421e-05
-0.000261891
0.000230348
0.000285451
-0.000291875
2.44721e-05
-0.000259617
-0.000257965
1.87881e-05
0.000266057
-1.64361e-05
0.000151173
-0.000267625
0.000116452
0.000299067
-4.42555e-06
0.000238617
-7.53763e-05
2.12521e-05
0.000177045
-0.000198297
-0.000183877
0.000205129
-0.000236275
0.000257219
-2.09441e-05
0.000261462
-3.31689e-05
-0.000228293
-0.000197009
-5.21362e-05
0.000251581
-1.48401e-06
8.75529e-06
-0.000265623
0.000256757
-0.000343342
0.000236897
0.000106732
0.000266371
-0.000236811
-2.95597e-05
0.000306883
-0.000314687
7.82638e-06
-2.57041e-05
-0.000229097
0.000254801
0.000261493
-7.64403e-06
1.02809e-05
-0.000208193
0.000262411
-3.19033e-05
-0.000230508
-6.90483e-05
-0.000260653
-0.000194685
0.000248025
-5.33402e-05
-0.000266533
0.000249985
1.65481e-05
-0.000318094
1.67109e-05
-1.70325e-05
0.000297047
-0.00027993
-0.000276221
1.65481e-05
0.000249537
-0.000166306
6.38886e-05
0.000273861
1.47845e-05
-0.000288599
-0.000316037
0.000307787
8.26705e-06
3.46641e-05
-0.000263649
0.000228985
-1.74856e-05
0.000281396
-0.000315265
1.6395e-05
-0.000176541
-7.42283e-05
-0.000230445
0.000203686
-2.16721e-05
-0.000216469
0.000238141
-0.000314955
0.000295972
1.89339e-05
-0.000133133
0.000274211
-0.000140719
-8.38682e-06
3.31521e-05
-0.000263453
0.000230301
-0.000198296
2.45974e-05
0.000174351
0.000221526
0.000280191
-0.000280138
2.69746e-07
-0.000236993
-2.20921e-05
0.000224813
-0.000202721
0.000139273
0.000143753
-0.000278517
0.000202407
-5.74828e-05
0.000308251
-1.05717e-05
0.000209247
-0.000268825
2.92853e-05
0.00022306
-0.000252345
-0.000321271
0.000137603
0.000296659
2.92984e-05
1.94227e-05
-0.000224355
-2.77845e-05
-0.0001365
-0.000132813
-0.000327418
0.000113873
0.000242873
2.56201e-05
0.000218765
-0.000224869
1.09054e-05
-0.000287353
0.000276798
-0.000242292
0.000270132
-2.72246e-05
0.000281377
-0.000281831
0.000286742
-7.71668e-05
-8.84482e-06
0.000290163
-1.87881e-05
0.000247101
-0.000228313
0.000281499
-0.000290395
-5.63244e-06
-0.000283952
0.000289574
0.000282031
-0.000269778
0.000284619
0.000226314
2.67597e-05
-0.000312584
0.000318346
-6.60682e-06
0.000252666
-2.16824e-05
0.000227639
2.42505e-05
-0.000268913
0.000246057
-2.05381e-05
-0.000259401
3.02849e-05
0.000229116
0.000178305
7.64963e-05
9.63589e-06
0.000280605
-0.000290126
-0.000238141
-2.88401e-05
0.000266981
2.51441e-05
-0.000263285
0.000284117
-0.000162317
-0.000232177
0.000261129
-2.89521e-05
-0.000234697
0.000260709
-2.60121e-05
1.46607e-06
0.000279341
2.45001e-05
-0.000259197
2.38001e-05
-0.000255977
0.000274281
-0.000242894
-3.13813e-05
0.000317828
-1.00061e-05
-0.000306156
-3.11263e-06
-0.000255753
1.1816e-05
0.000243937
-1.73152e-05
-0.000261185
0.000228065
-0.000245337
0.000270145
-2.48081e-05
-0.000263229
1.49801e-05
-2.36001e-05
0.00028609
-0.000262479
2.13641e-05
-0.000266701
-0.000241628
-2.13056e-05
3.26721e-05
-9.0432e-05
0.000260194
0.000280813
-0.000286437
5.05122e-05
0.000237693
0.000282034
-0.000281493
-0.000243181
-2.39401e-05
0.000267121
-0.000260894
7.34723e-06
-0.000295448
1.93681e-05
0.000275444
-0.000268717
2.55361e-05
-8.27818e-06
0.000290339
-0.000268326
0.000243549
2.47772e-05
-0.000232513
0.000210841
0.000280099
-0.000288559
-6.16002e-07
0.000260289
-0.000259673
-0.000301903
-1.61327e-05
-0.000264573
2.35481e-05
-0.00024417
-2.41556e-05
-3.43281e-05
-0.000298129
0.000294045
0.000286674
-0.000158327
0.000295562
-0.000289813
2.30152e-05
4.89903e-06
0.000262014
-0.000254876
-7.14098e-06
0.000307497
-2.02322e-05
-0.00028726
5.95749e-05
-0.000246765
-2.19521e-05
-0.000357015
0.000242345
0.00028483
-0.000279386
2.33801e-05
-0.000188706
-1.5962e-05
-0.000306611
2.5585e-05
0.000280997
-0.000197421
0.000311113
-0.00011372
0.000259841
-0.000238533
-2.13081e-05
-0.000291832
2.94001e-05
0.000222097
-0.000251497
-0.000163033
0.000134776
-0.000163325
0.000251441
-0.000238029
-1.34121e-05
-0.000263873
3.40201e-05
-2.23161e-05
-0.000269837
0.000251469
0.000230427
3.12901e-05
-4.5788e-05
0.000197002
0.000232619
-0.000260499
-1.74084e-05
-2.83527e-06
0.00024715
-0.000242913
-0.000293314
-0.000237049
0.000265189
-2.81401e-05
0.000230096
3.22225e-05
-0.000268521
2.55921e-05
-0.000239905
-2.86161e-05
0.000228954
-0.000260706
-0.000282593
4.73202e-05
-0.000242005
0.000294403
-0.000283823
-0.000288922
1.3171e-05
0.000275866
-5.33181e-06
0.000213896
0.000228551
-0.00026107
0.000296885
-0.0001309
-0.000165985
0.000241293
-0.000261648
0.000270275
-0.000226213
-1.76681e-05
-0.000164795
0.000307076
-0.000142063
2.49649e-05
0.000222662
-0.000247627
-0.000193244
0.000193446
-0.000283743
0.000282467
6.99672e-06
-0.000290739
-0.000302485
0.000146693
0.000155793
0.000259995
-0.000239359
-2.06361e-05
-0.000215741
0.000193649
0.000261612
3.66811e-07
0.000257293
0.000232526
2.16797e-05
-0.000295992
-6.14256e-05
1.03446e-05
0.000232903
-0.000250525
1.7528e-05
-0.000230917
-2.37161e-05
0.000254633
-0.000242295
0.000263191
-2.08965e-05
8.29845e-05
0.00013453
2.03001e-05
-0.000305958
0.000285701
0.000256565
-1.80041e-05
-0.000238561
0.000243881
-0.000254017
1.0136e-05
-0.000226745
0.000207957
0.000223131
-0.000258923
-0.000244693
4.76842e-05
1.59852e-05
-0.000137853
-0.000219096
1.57921e-05
0.000245701
0.000280546
0.00029336
0.000305818
1.72858e-06
0.000249817
-0.000220417
2.51749e-05
0.000225009
-0.000250184
-0.000243178
0.000268865
-2.56873e-05
2.28201e-05
-0.000262725
-0.000120162
0.000296709
9.13168e-06
2.08181e-05
0.000261675
-0.000235103
-2.65721e-05
1.31535e-05
-0.000303748
0.000290537
0.000321614
-3.09465e-05
-0.00029071
0.000249733
1.63241e-05
0.00030612
-0.000292911
-0.000230341
-0.000112322
9.63204e-06
0.000250657
-4.9129e-05
-0.00020239
0.000251519
2.20333e-05
0.000246832
-0.000241686
-2.29629e-05
0.000260737
-2.24001e-05
0.000287825
-0.000268023
2.63369e-05
2.68241e-05
-0.000257965
0.000210617
-0.000207677
2.58161e-05
-0.000262865
0.000279732
0.000121744
-0.000256173
0.000134429
1.89802e-05
3.8003e-05
0.000161258
-0.00019841
-0.000239485
-2.85377e-05
4.03285e-05
0.000162857
-0.000204169
-0.000246691
0.000271066
-2.43747e-05
0.000209866
-0.000248826
1.98857e-05
1.73421e-05
-0.000174558
-3.0427e-05
0.0002267
-0.000257414
-2.88401e-05
0.000244245
-0.000215405
-2.16161e-05
0.000242985
-0.000221369
0.000201657
-0.000250786
-0.000273511
-0.000232905
-2.55081e-05
0.000258413
0.000241234
2.98318e-05
-0.000211486
-2.35307e-05
0.000235067
-2.18821e-05
-0.000224967
-0.000239345
6.28042e-05
0.000259004
-0.000229718
4.75106e-05
-0.000249901
-3.43393e-05
0.000257694
-0.000223354
0.000205675
-0.000240014
0.000261689
-1.1956e-05
-6.06764e-05
-0.000229572
-0.000224679
-1.72595e-05
0.000242063
0.000247109
5.3175e-05
0.000212448
-0.000265623
-0.000261099
0.000177353
-0.000231757
5.44042e-05
6.43125e-05
0.000136921
0.000259457
-0.000240915
-2.47224e-05
-0.000265385
0.000227165
3.82201e-05
-2.87813e-05
-0.000222158
0.00025094
-0.000284702
0.000264161
0.000234501
3.61761e-05
2.18821e-05
0.000234087
-0.000307217
0.000151089
0.000156129
0.00016422
-5.12752e-05
0.000254045
-0.000115192
2.56901e-05
0.000217446
-0.000243136
-0.000286254
0.000286615
9.25832e-06
0.000257377
-0.000245953
0.000208937
3.70161e-05
0.000254832
0.000246774
-1.94909e-05
-0.000246815
-2.02161e-05
-0.000263019
2.0724e-05
-0.000269215
2.24001e-05
2.79601e-05
0.000220024
-0.000247984
0.000242481
-0.000274597
1.32721e-05
0.000247843
-1.45382e-05
1.25781e-05
-0.000250161
-0.000328714
0.00012402
-0.000233135
-2.62109e-05
-0.000252113
0.000252113
0.000259782
-0.000144217
-1.87844e-05
-0.000277743
0.000296553
0.000273953
0.000258749
-0.000135913
0.000224113
2.39205e-05
0.00023468
7.84421e-05
-0.000342251
3.7699e-05
0.000258962
1.76363e-05
-0.000248843
-3.00917e-05
0.000207453
-3.01001e-05
0.000259701
2.95429e-05
0.000218353
-0.000247896
-3.05014e-05
-4.09782e-05
-0.000217818
0.000258797
-0.000233423
-2.14173e-05
3.75266e-05
-0.000197015
0.000159625
-3.30877e-05
0.000221671
-0.000255943
-0.000282173
-8.47429e-06
0.000290512
-0.00019213
0.000163992
0.000166349
8.16763e-05
1.28858e-05
-0.000295068
0.000235075
2.59446e-05
-0.000261019
-0.000198224
-1.09763e-06
0.000232743
-0.000264287
3.15449e-05
-8.42803e-06
-0.000217029
0.000225457
-0.000161183
0.000197647
-0.000249985
-3.46025e-05
0.000256274
0.000218076
-0.000252679
-0.000246289
0.000272245
-2.59561e-05
0.000253547
2.78321e-05
-0.000232062
-2.95821e-05
-0.000298253
0.000316511
-1.82024e-05
2.33574e-05
0.000212462
-0.000250254
-0.000267233
2.09441e-05
-2.12801e-05
-0.000245953
-3.61481e-05
0.00024861
-0.00029022
-1.36568e-05
0.00022082
-0.000256968
0.000246815
-0.000250538
1.67345e-06
2.80002e-06
0.000181413
-0.000184213
0.000255294
0.000234529
2.67681e-05
-2.62361e-05
0.000245001
-0.000218765
3.36001e-05
0.000216609
-0.000250209
0.000244861
2.73841e-05
0.000306545
-0.000143949
-0.000162597
1.55308e-05
0.000238634
-0.000254147
0.000271013
-0.000113568
0.000225569
-0.000256677
-0.000241038
0.00010476
-0.000265469
7.16803e-06
-0.000241635
-2.75801e-05
-0.000241361
-2.48081e-05
0.000310599
-2.74943e-05
-7.67483e-05
0.000243097
-1.1452e-05
-0.000215601
0.000224281
-8.68003e-06
0.000255193
-7.68883e-05
3.39776e-05
-0.000193843
0.000163381
-0.000265245
-1.40001e-07
-4.14962e-05
3.98911e-05
0.000158346
-0.000197578
0.000198103
-0.000160172
0.000257041
-7.05603e-06
0.000251151
-0.000218277
-1.82856e-05
-2.1128e-05
0.000268234
-9.37485e-05
-0.000178201
-1.42801e-05
-0.000191913
0.000206193
0.000258665
-1.53553e-05
-0.00024331
1.98101e-05
0.000238855
-0.00027955
-8.02283e-06
3.66467e-05
-0.000195552
0.000158077
1.36921e-05
0.000247997
-0.000162059
0.000198433
-1.95189e-05
0.000248711
3.2805e-05
0.000188115
-0.000220462
-4.17202e-06
-2.49389e-05
0.000265108
-0.000231955
-3.14693e-05
0.000297381
-0.0002822
-1.53621e-05
1.63717e-05
-0.000237659
0.000221288
-0.00010514
0.000226885
1.93426e-05
-0.000305227
0.000285894
2.52001e-05
-2.79441e-05
2.69165e-05
0.000308991
-0.000289656
0.000238891
1.97345e-05
2.15601e-06
0.000231617
-0.000233773
-0.000310453
2.56322e-05
0.000284725
-0.000162177
-0.000144145
0.000209178
-0.000250156
-0.000162888
0.000241924
1.90317e-05
0.000255309
-4.13534e-05
0.000250531
0.000214498
-0.000255851
0.000318411
-0.000318539
-1.06309e-05
0.000286902
-0.000275546
-0.000302847
1.96323e-05
0.000283247
4.20842e-05
-0.000286413
-3.85506e-05
0.000252483
2.62921e-05
-2.21631e-05
0.000307457
-0.000285188
2.43321e-05
3.92437e-05
0.000161772
-0.00019935
0.000249294
-0.000219751
2.83277e-05
-0.000261633
4.36802e-06
-1.99351e-05
0.000306484
-0.00028654
-0.000250987
-0.000266673
3.07441e-05
0.000252141
-0.000236741
-1.54001e-05
1.2264e-05
0.000239877
-0.000276033
-1.28978e-05
0.000255697
-6.88338e-06
0.000319479
-1.19397e-05
0.000298862
-0.000287142
-4.60267e-05
0.000247437
-0.000235621
0.000257601
-1.99361e-05
0.000138455
9.01697e-05
-0.000233009
0.000221851
3.03493e-05
0.000226759
-0.000258662
3.71393e-05
0.000271355
-0.000288319
1.70771e-05
0.000251273
-0.000239093
-1.31321e-05
0.000252225
-2.91201e-05
-0.000257265
2.56481e-05
0.000231617
-0.000228005
-2.92601e-05
0.000259765
-0.000233571
-2.61941e-05
0.000258721
-0.000267321
2.35467e-06
0.000289943
1.1887e-06
-0.000291579
0.000248605
-0.00023256
-1.85921e-05
0.000308794
-0.000300884
-7.9891e-06
0.000260066
-0.00010484
-0.000266897
2.56761e-05
0.000241221
-3.48881e-05
-0.000232009
-0.000266393
2.51161e-05
0.000241277
-1.22288e-05
-0.000267674
0.000279937
-3.45241e-05
-0.000231869
-0.00026178
1.91601e-05
-0.000266281
2.43881e-05
0.000241893
-0.000284256
-2.16225e-05
-0.00030613
2.76391e-05
0.000278568
-3.34041e-05
-0.000232877
-0.000166701
-0.000258133
2.94001e-05
0.000228733
0.000309186
-0.00030903
-0.000195805
0.000209049
-3.29281e-05
-0.000225205
0.000197494
-0.000279209
8.1651e-05
0.000283882
2.22951e-05
-0.000301953
1.76961e-05
0.000285341
-0.000281214
-4.66979e-06
-0.000257125
0.000231617
2.55081e-05
0.000154404
2.4997e-05
-0.000179862
-0.000266953
2.81681e-05
0.000238785
-0.000227361
-2.97641e-05
-3.67361e-05
-0.000230217
0.000276672
0.000297408
1.91346e-05
-0.000276278
-3.17447e-05
0.000307791
-0.000258679
-1.0974e-05
0.000297602
-0.000286432
1.49949e-05
-0.000301754
0.000286779
-0.000230609
-0.000307156
0.000287198
0.000263005
-2.55448e-05
-0.000280552
1.36081e-05
0.000168871
0.000230205
1.82673e-05
-0.000248649
-0.000197709
0.000161376
0.000236738
1.31517e-05
-0.00024989
-0.00025833
2.66093e-05
0.000231721
-1.09228e-05
0.000247661
5.74002e-06
0.000246877
-3.19817e-05
-0.000226348
0.000299334
-0.000285545
-1.38294e-05
0.000228024
-0.000226666
0.000289589
0.000237685
1.98521e-05
-0.000257537
-1.24236e-05
0.000250108
0.000246636
1.50389e-05
-0.000305523
1.53831e-05
0.00024448
2.18905e-05
3.36831e-05
-0.000206382
-0.000287441
-1.77712e-05
-0.000182869
0.000295177
-0.000147171
0.000184907
-3.24647e-05
3.21177e-05
-0.000202864
0.000169841
-0.00016551
0.000259149
-0.000239236
-1.99137e-05
0.000261062
-0.000272532
-0.000239765
0.000230779
-2.18547e-05
0.000301132
-0.000279294
0.000307925
-0.000292869
0.000242117
1.77241e-05
-0.000224975
0.00024443
-1.94545e-05
1.61001e-05
-0.000241075
-7.00003e-06
0.000260989
-0.000297222
4.88933e-06
0.000292337
-0.000174497
0.000160217
-1.74105e-05
-6.25627e-06
-0.000290905
-1.67885e-05
-0.000284963
4.28402e-06
-0.000300813
0.000136033
-0.00025746
2.37265e-05
0.000233713
0.000238197
1.32441e-05
-3.08085e-05
-0.000226637
-3.3011e-05
-0.000290664
2.02524e-05
-0.000225376
0.000205568
0.000254969
-0.000233465
-2.15041e-05
-0.000196161
0.000218218
-0.000185801
-7.29367e-06
0.000204262
0.000134776
0.000135141
4.00857e-06
0.000270894
0.000279814
-0.000305325
3.33304e-06
0.000244201
-1.9841e-05
0.000298677
-0.000278874
-0.000302151
0.000287373
1.47588e-05
-0.000258301
0.000230077
2.82241e-05
-2.64041e-05
-0.000231897
0.000300311
-0.000300737
0.000267131
-2.00569e-05
0.000304398
-0.000284228
0.000285899
-7.38474e-07
-0.000256873
0.000256873
-0.000268111
0.000295801
-0.000147764
-6.76853e-05
-6.66446e-06
0.000295471
-0.000288009
-0.000297456
0.000290629
0.000291867
-0.000278789
0.000290565
-0.00030607
1.46658e-05
3.46027e-05
-0.000238286
0.000215221
2.30689e-05
-1.45573e-05
-0.000246288
0.000229257
-1.44248e-05
0.000298099
-0.000283664
0.000263481
-1.96001e-05
0.000254224
-0.000235464
-1.87601e-05
-3.09824e-05
-0.000273715
0.00030469
1.42889e-05
-0.000296989
0.000282832
-1.45881e-05
0.000233465
-0.000218877
0.000210527
-0.000296088
0.00028392
-1.9218e-05
0.000304513
-0.000285344
0.00025102
-2.68976e-05
0.000297361
-0.000270458
-0.000295788
0.000268849
1.07156e-05
0.000244749
-0.000255465
0.000305269
-0.000312069
6.81547e-06
1.79902e-05
1.47633e-05
0.000286578
-0.000300779
6.31555e-06
0.000282605
2.41004e-06
-0.000318777
-0.000290246
0.000305313
-0.000242481
0.000243657
8.45603e-06
-0.0002264
0.000242772
-0.000293454
0.000274089
0.00028509
-0.000155342
-8.38429e-05
0.000294456
1.44964e-05
3.16854e-05
-0.000196944
0.000166175
-0.000274651
0.000257293
-0.000219535
0.00024982
0.000243411
1.92865e-05
-0.000262697
0.000236019
2.31309e-05
-0.000301679
0.000283052
0.000312375
-1.80225e-05
0.000237945
-0.000257069
1.91241e-05
-0.000222494
0.000247459
0.000294212
1.80114e-05
-0.000165441
-1.46093e-05
0.000298116
-0.000283698
-0.000142953
-0.000266415
0.000159993
0.000106423
-0.000309073
0.000295374
1.36856e-05
-0.000258699
0.000241826
1.68729e-05
-0.000142404
0.000157252
-0.000306335
0.000288581
1.78913e-05
-0.000217713
0.000179094
-9.69084e-06
0.000253101
2.05189e-05
1.76266e-05
-0.000304456
0.000286866
-0.000300863
-7.16335e-06
0.000307876
-0.000249229
0.000220109
-0.000201153
-8.52603e-05
-0.000272462
0.000253226
0.000303998
-0.000286408
-0.000190975
1.7945e-05
1.50388e-05
0.000284421
-0.000299582
-8.80603e-05
0.000239233
-0.000303054
1.9552e-05
0.000283518
-0.000207543
-2.81894e-06
-0.000298055
-0.000166466
2.05297e-05
0.000302618
-0.000287751
-1.45185e-05
-0.000174587
-0.000299105
-0.000174353
-2.24581e-05
0.000243528
0.000289383
1.71394e-05
0.000252869
5.7722e-05
-0.00028518
-0.000247213
-0.000270796
-2.32304e-05
-0.000274606
0.000300207
-0.000263139
0.000282587
-0.000162362
-4.12066e-05
0.000203604
0.000197569
1.56521e-05
-0.000213221
-1.24849e-05
-0.000285854
0.000298362
1.83597e-05
1.86286e-05
-0.000305399
0.000286867
0.000253345
-1.71361e-05
-0.000236209
1.89441e-05
-0.000304798
0.000285913
2.03561e-05
0.000232989
0.000216385
-2.46121e-05
-0.000191773
1.58734e-05
0.00028238
-0.000298235
-0.000250331
0.000118246
-0.000303762
1.85966e-05
0.000285116
0.000210117
-4.60591e-05
-0.000295799
1.47585e-05
0.000283925
0.000255837
-2.19801e-05
-0.000233857
-0.00030271
0.000106333
0.000234529
1.70521e-05
-0.000251581
0.000280082
1.682e-05
0.000304195
-0.000285245
1.78444e-05
-0.000299799
0.000233512
1.84916e-05
-0.000252004
-1.89136e-05
-1.42436e-05
0.000298404
-0.000284198
-0.000280424
0.000300152
-0.00027799
0.000290809
-0.000302653
1.10784e-05
0.000249741
-1.62291e-05
1.17028e-05
0.000250041
-1.55121e-05
0.000298599
-0.000282836