/*--------------------------------*- C++ -*----------------------------------*\
  =========                 |
  \\      /  F ield         | OpenFOAM: The Open Source CFD Toolbox
   \\    /   O peration     | Website:  https://openfoam.org
    \\  /    A nd           | Version:  12
     \\/     M anipulation  |
\*---------------------------------------------------------------------------*/
FoamFile
{
    format      ascii;
    class       volVectorField;
    location    "20.1";
    object      U;
}
// * * * * * * * * * * * * * * * * * * * * * * * * * * * * * * * * * * * * * //

dimensions      [0 1 -1 0 0 0 0];

internalField   nonuniform List<vector> 
9801
(
(1.24749 -0.124224 0)
(1.2415 -0.121166 0)
(1.22999 -0.11051 0)
(1.20373 -0.0987457 0)
(1.18564 -0.0935738 0)
(1.18106 -0.091258 0)
(1.17896 -0.0906367 0)
(1.18053 -0.0923451 0)
(1.1999 -0.0988207 0)
(1.21919 -0.101161 0)
(1.22227 -0.0974983 0)
(1.21832 -0.0936688 0)
(1.21365 -0.0892844 0)
(1.19995 -0.0793641 0)
(1.17418 -0.0698448 0)
(1.15799 -0.066144 0)
(1.15369 -0.065224 0)
(1.15065 -0.0659102 0)
(1.15032 -0.0687747 0)
(1.16008 -0.0727552 0)
(1.17589 -0.0719552 0)
(1.18198 -0.0678658 0)
(1.17952 -0.0635662 0)
(1.17557 -0.0583571 0)
(1.16569 -0.0489 0)
(1.1481 -0.0425379 0)
(1.13555 -0.0408598 0)
(1.13055 -0.0411268 0)
(1.12673 -0.0427823 0)
(1.12481 -0.0461757 0)
(1.12343 -0.0474102 0)
(1.125 -0.0445853 0)
(1.1298 -0.0395157 0)
(1.13173 -0.0341438 0)
(1.13025 -0.0293774 0)
(1.12702 -0.0233139 0)
(1.12027 -0.0182935 0)
(1.11041 -0.0160233 0)
(1.10259 -0.0166649 0)
(1.0969 -0.017775 0)
(1.0919 -0.0199122 0)
(1.08587 -0.0205713 0)
(1.08041 -0.0186063 0)
(1.07695 -0.0150195 0)
(1.0794 -0.010059 0)
(1.08324 -0.00451836 0)
(1.08302 -0.000187297 0)
(1.08094 0.00352684 0)
(1.07739 0.00588661 0)
(1.07248 0.00795103 0)
(1.0618 0.00849781 0)
(1.05073 0.00719999 0)
(1.0423 0.00578572 0)
(1.03452 0.0064994 0)
(1.02801 0.00856201 0)
(1.02362 0.0110129 0)
(1.02934 0.0150702 0)
(1.0373 0.0193414 0)
(1.03779 0.0233097 0)
(1.03485 0.0265662 0)
(1.03036 0.0290404 0)
(1.02394 0.0314553 0)
(1.0086 0.0328013 0)
(0.991009 0.0317509 0)
(0.980132 0.0302086 0)
(0.972198 0.0302927 0)
(0.965133 0.0313349 0)
(0.963874 0.0335009 0)
(0.974884 0.0370405 0)
(0.98177 0.0408568 0)
(0.980477 0.0443661 0)
(0.97589 0.0472028 0)
(0.970266 0.0493628 0)
(0.960841 0.0516673 0)
(0.937798 0.0523198 0)
(0.91302 0.0503412 0)
(0.898564 0.0486906 0)
(0.889603 0.0488 0)
(0.884051 0.0494273 0)
(0.89288 0.0515126 0)
(0.904607 0.0547328 0)
(0.904839 0.0583281 0)
(0.899052 0.0615361 0)
(0.891312 0.0634781 0)
(0.881419 0.0645816 0)
(0.85571 0.0650202 0)
(0.813954 0.0616849 0)
(0.784967 0.0579338 0)
(0.768912 0.0563868 0)
(0.75926 0.0550521 0)
(0.769488 0.05346 0)
(0.783598 0.0530166 0)
(0.779028 0.0542056 0)
(0.762663 0.0534875 0)
(0.736807 0.0498188 0)
(0.678886 0.0422875 0)
(0.598145 0.007685 0)
(0.023684 -0.128013 0)
(-1.19789 -0.0974715 0)
(1.23938 -0.131046 0)
(1.2309 -0.116134 0)
(1.21641 -0.0947981 0)
(1.20377 -0.0860516 0)
(1.19468 -0.0881445 0)
(1.18854 -0.0949445 0)
(1.18512 -0.104083 0)
(1.18694 -0.11493 0)
(1.19651 -0.119375 0)
(1.20966 -0.113026 0)
(1.21213 -0.10409 0)
(1.20984 -0.0946355 0)
(1.20209 -0.0795073 0)
(1.19099 -0.0657705 0)
(1.17928 -0.0611442 0)
(1.16798 -0.0673506 0)
(1.16068 -0.0761507 0)
(1.15557 -0.0835949 0)
(1.1524 -0.0885479 0)
(1.15527 -0.0887696 0)
(1.16521 -0.0818327 0)
(1.16992 -0.0697224 0)
(1.16956 -0.0578538 0)
(1.16472 -0.044197 0)
(1.16054 -0.0373896 0)
(1.15592 -0.0382554 0)
(1.14491 -0.0464856 0)
(1.13606 -0.0560392 0)
(1.12974 -0.0619604 0)
(1.12443 -0.0620034 0)
(1.11998 -0.0586319 0)
(1.11711 -0.0513249 0)
(1.12019 -0.0387999 0)
(1.12342 -0.026567 0)
(1.12357 -0.0174702 0)
(1.12283 -0.0129342 0)
(1.12113 -0.0138899 0)
(1.11674 -0.0190351 0)
(1.10898 -0.0272894 0)
(1.09987 -0.0336303 0)
(1.09144 -0.0340704 0)
(1.0833 -0.0299627 0)
(1.07646 -0.0243538 0)
(1.0716 -0.0178119 0)
(1.07204 -0.00776697 0)
(1.07667 0.00301718 0)
(1.07966 0.00909905 0)
(1.08082 0.00950245 0)
(1.07893 0.00709216 0)
(1.0744 0.0047174 0)
(1.06706 0.000898953 0)
(1.05325 -0.00456709 0)
(1.04056 -0.00420991 0)
(1.0316 -0.000203098 0)
(1.02518 0.00381448 0)
(1.02043 0.00747597 0)
(1.02309 0.0154407 0)
(1.03123 0.0246768 0)
(1.034 0.0298512 0)
(1.03298 0.031934 0)
(1.02922 0.0321665 0)
(1.02432 0.0313253 0)
(1.01385 0.0280537 0)
(0.994009 0.0224713 0)
(0.978904 0.0221467 0)
(0.969922 0.02415 0)
(0.963266 0.0255898 0)
(0.959628 0.028855 0)
(0.967652 0.0372748 0)
(0.97596 0.0452766 0)
(0.976952 0.0496444 0)
(0.973625 0.0519791 0)
(0.968028 0.0526534 0)
(0.960795 0.0520601 0)
(0.941996 0.0480092 0)
(0.914535 0.0429557 0)
(0.897206 0.0414068 0)
(0.88743 0.0411061 0)
(0.880218 0.0416807 0)
(0.883186 0.0482254 0)
(0.896478 0.0591108 0)
(0.901143 0.0648108 0)
(0.89708 0.0661624 0)
(0.888979 0.0657379 0)
(0.879236 0.0645152 0)
(0.857664 0.06069 0)
(0.816423 0.0535201 0)
(0.784186 0.0469729 0)
(0.765892 0.0427209 0)
(0.753967 0.0403047 0)
(0.75249 0.0439662 0)
(0.761621 0.0599807 0)
(0.75915 0.0700834 0)
(0.745539 0.0689302 0)
(0.722436 0.064823 0)
(0.669855 0.0563677 0)
(0.600169 0.0178422 0)
(0.0184205 -0.129635 0)
(-1.2031 -0.104067 0)
(1.22751 -0.120035 0)
(1.21721 -0.0923324 0)
(1.21112 -0.0821645 0)
(1.2058 -0.0817571 0)
(1.20061 -0.085387 0)
(1.19808 -0.0951312 0)
(1.19766 -0.107548 0)
(1.1969 -0.115951 0)
(1.19583 -0.117565 0)
(1.19581 -0.111305 0)
(1.19681 -0.0946684 0)
(1.19612 -0.0747771 0)
(1.19362 -0.0609186 0)
(1.18945 -0.058796 0)
(1.18405 -0.0619259 0)
(1.17806 -0.0677543 0)
(1.1713 -0.0758431 0)
(1.16416 -0.0836955 0)
(1.15886 -0.0868025 0)
(1.1539 -0.08516 0)
(1.15057 -0.0762305 0)
(1.15199 -0.0593272 0)
(1.15567 -0.0422544 0)
(1.15829 -0.0340306 0)
(1.16001 -0.0363163 0)
(1.15798 -0.0408813 0)
(1.15285 -0.0441852 0)
(1.14578 -0.0499779 0)
(1.13617 -0.0559869 0)
(1.12515 -0.0576639 0)
(1.11492 -0.0525238 0)
(1.10914 -0.0444229 0)
(1.10706 -0.0346357 0)
(1.11096 -0.0204583 0)
(1.11867 -0.0108485 0)
(1.12459 -0.0131306 0)
(1.12432 -0.0180075 0)
(1.12013 -0.0207202 0)
(1.11482 -0.0234274 0)
(1.10539 -0.0275403 0)
(1.09007 -0.0294813 0)
(1.07698 -0.0243298 0)
(1.06958 -0.0166037 0)
(1.06561 -0.0102925 0)
(1.0637 -0.00345539 0)
(1.06989 0.0059485 0)
(1.07948 0.00915481 0)
(1.08316 0.00626375 0)
(1.08035 0.00389821 0)
(1.07524 0.0021503 0)
(1.0694 0.000648535 0)
(1.05602 -0.00143672 0)
(1.03727 -0.000879979 0)
(1.02587 0.00431277 0)
(1.01971 0.00962768 0)
(1.01542 0.0137725 0)
(1.01462 0.0194768 0)
(1.02439 0.0279334 0)
(1.03179 0.0311301 0)
(1.03236 0.0297207 0)
(1.02902 0.0283794 0)
(1.02353 0.0273766 0)
(1.0153 0.0260047 0)
(0.995818 0.0230037 0)
(0.975909 0.022101 0)
(0.964609 0.0250622 0)
(0.957462 0.0289002 0)
(0.952468 0.0320071 0)
(0.955486 0.0393904 0)
(0.967696 0.0486256 0)
(0.972434 0.0515639 0)
(0.97012 0.0508539 0)
(0.964939 0.0493404 0)
(0.958142 0.0483742 0)
(0.943051 0.045152 0)
(0.913791 0.0397458 0)
(0.891725 0.0390341 0)
(0.879382 0.0415379 0)
(0.871612 0.0432064 0)
(0.868652 0.0464102 0)
(0.882105 0.0554577 0)
(0.892274 0.0605155 0)
(0.890342 0.059964 0)
(0.882913 0.059036 0)
(0.873727 0.058528 0)
(0.855774 0.0574592 0)
(0.817285 0.0506219 0)
(0.780732 0.0427687 0)
(0.757262 0.0370237 0)
(0.743178 0.0340286 0)
(0.7344 0.0317088 0)
(0.73971 0.0360044 0)
(0.74251 0.0391777 0)
(0.733204 0.0349767 0)
(0.714885 0.0300097 0)
(0.672676 0.0214003 0)
(0.618712 -0.0120267 0)
(0.0190134 -0.149516 0)
(-1.21542 -0.0938962 0)
(1.21363 -0.111183 0)
(1.20651 -0.103557 0)
(1.20573 -0.095133 0)
(1.20749 -0.0907007 0)
(1.20878 -0.0920615 0)
(1.2079 -0.0965899 0)
(1.2049 -0.101204 0)
(1.20095 -0.103553 0)
(1.194 -0.102736 0)
(1.18527 -0.0938295 0)
(1.18206 -0.0847401 0)
(1.18167 -0.076481 0)
(1.1857 -0.0702788 0)
(1.19067 -0.0682328 0)
(1.18894 -0.0695556 0)
(1.18385 -0.0716228 0)
(1.17786 -0.0748011 0)
(1.16999 -0.0781452 0)
(1.15763 -0.0774784 0)
(1.14598 -0.0705534 0)
(1.14031 -0.0630158 0)
(1.13858 -0.0563706 0)
(1.14424 -0.0481751 0)
(1.15872 -0.0448968 0)
(1.16321 -0.0455593 0)
(1.15959 -0.0472641 0)
(1.15467 -0.0488999 0)
(1.14939 -0.0510743 0)
(1.13879 -0.0527829 0)
(1.11958 -0.0475288 0)
(1.10721 -0.0386448 0)
(1.10276 -0.0329435 0)
(1.10025 -0.0286803 0)
(1.10264 -0.0236727 0)
(1.1191 -0.0217009 0)
(1.1273 -0.0229123 0)
(1.12487 -0.0249806 0)
(1.12011 -0.0266917 0)
(1.11505 -0.0272727 0)
(1.10446 -0.0262346 0)
(1.08316 -0.0192246 0)
(1.06903 -0.0115788 0)
(1.06375 -0.00776398 0)
(1.06013 -0.00533436 0)
(1.05819 -0.00253462 0)
(1.06697 -0.000444198 0)
(1.08145 -0.000605316 0)
(1.08362 -0.00170994 0)
(1.07958 -0.0024844 0)
(1.07417 -0.00250919 0)
(1.06748 -0.00123082 0)
(1.05062 0.00381295 0)
(1.02959 0.00970226 0)
(1.01909 0.0127039 0)
(1.01406 0.0143326 0)
(1.0096 0.0156578 0)
(1.00786 0.0174972 0)
(1.01896 0.0200302 0)
(1.03133 0.0217282 0)
(1.03076 0.0220133 0)
(1.0255 0.0223867 0)
(1.01981 0.0234538 0)
(1.01168 0.0256242 0)
(0.991378 0.0278443 0)
(0.968518 0.0291981 0)
(0.956847 0.0305046 0)
(0.950252 0.032024 0)
(0.944704 0.0330982 0)
(0.944417 0.0352514 0)
(0.958564 0.0401659 0)
(0.966845 0.043338 0)
(0.963948 0.0444405 0)
(0.957957 0.0453977 0)
(0.951237 0.0463854 0)
(0.939009 0.0473356 0)
(0.909633 0.0441392 0)
(0.883506 0.0408824 0)
(0.869903 0.0407129 0)
(0.86163 0.0413319 0)
(0.855549 0.0418145 0)
(0.863225 0.0470387 0)
(0.876813 0.0570199 0)
(0.877253 0.0621982 0)
(0.870644 0.0635634 0)
(0.862285 0.0635613 0)
(0.848755 0.0629713 0)
(0.818481 0.0551564 0)
(0.780097 0.0407295 0)
(0.752016 0.0289814 0)
(0.733615 0.0232884 0)
(0.721054 0.020984 0)
(0.715543 0.0236845 0)
(0.715286 0.0317724 0)
(0.708334 0.030386 0)
(0.694023 0.0238943 0)
(0.664083 0.0146313 0)
(0.637339 -0.0181336 0)
(0.0263085 -0.145054 0)
(-1.23338 -0.088684 0)
(1.20955 -0.101948 0)
(1.20372 -0.100525 0)
(1.20294 -0.102396 0)
(1.20627 -0.105853 0)
(1.20949 -0.106802 0)
(1.20761 -0.105146 0)
(1.20302 -0.102253 0)
(1.19617 -0.0940294 0)
(1.18489 -0.0824894 0)
(1.17858 -0.076409 0)
(1.17695 -0.0751701 0)
(1.17811 -0.0751531 0)
(1.18436 -0.0771961 0)
(1.19042 -0.0798743 0)
(1.18933 -0.0811255 0)
(1.18417 -0.0811545 0)
(1.17827 -0.0800084 0)
(1.16476 -0.0724636 0)
(1.14897 -0.0601912 0)
(1.14038 -0.0521943 0)
(1.13762 -0.048676 0)
(1.13658 -0.0477467 0)
(1.14533 -0.0506207 0)
(1.1588 -0.0555438 0)
(1.16237 -0.0561709 0)
(1.15879 -0.0550226 0)
(1.15344 -0.0547183 0)
(1.14628 -0.0532105 0)
(1.12704 -0.0425616 0)
(1.10937 -0.0312644 0)
(1.10162 -0.027726 0)
(1.09811 -0.0269695 0)
(1.09516 -0.0266006 0)
(1.10156 -0.028436 0)
(1.11931 -0.0330762 0)
(1.12586 -0.0332039 0)
(1.12231 -0.0310364 0)
(1.11706 -0.0294629 0)
(1.10939 -0.0251453 0)
(1.09202 -0.0140775 0)
(1.07397 -0.00493877 0)
(1.06419 -0.0033779 0)
(1.05925 -0.00407363 0)
(1.05495 -0.00472154 0)
(1.05356 -0.00610068 0)
(1.06527 -0.00875054 0)
(1.0784 -0.0095102 0)
(1.0783 -0.00617888 0)
(1.07378 -0.00255304 0)
(1.06809 0.002254 0)
(1.05837 0.009109 0)
(1.0421 0.0163278 0)
(1.02523 0.0187599 0)
(1.0151 0.0171532 0)
(1.0091 0.0153573 0)
(1.00401 0.0141031 0)
(1.00186 0.0127681 0)
(1.01201 0.012294 0)
(1.02253 0.0158617 0)
(1.02176 0.0216022 0)
(1.01706 0.0262985 0)
(1.01127 0.0304577 0)
(1.00319 0.0343848 0)
(0.986076 0.0365108 0)
(0.963696 0.0342751 0)
(0.949958 0.0315165 0)
(0.942727 0.0301616 0)
(0.936791 0.0292854 0)
(0.934334 0.0288793 0)
(0.945843 0.0326265 0)
(0.955535 0.0394813 0)
(0.953555 0.0441928 0)
(0.947991 0.0470053 0)
(0.941473 0.0491289 0)
(0.931233 0.050984 0)
(0.906858 0.0481175 0)
(0.878201 0.0394643 0)
(0.862285 0.0347307 0)
(0.853363 0.0341038 0)
(0.845922 0.0339245 0)
(0.845957 0.0365272 0)
(0.858705 0.047323 0)
(0.863641 0.0568147 0)
(0.858145 0.0602616 0)
(0.849843 0.0608608 0)
(0.838733 0.0609854 0)
(0.816614 0.0561322 0)
(0.781798 0.0431554 0)
(0.750009 0.0270602 0)
(0.727872 0.0133519 0)
(0.714587 0.00741406 0)
(0.70454 0.00517316 0)
(0.702204 0.00682541 0)
(0.700505 0.0054404 0)
(0.693295 -0.00359322 0)
(0.675435 -0.0117082 0)
(0.661084 -0.0238924 0)
(0.0349145 -0.129703 0)
(-1.24536 -0.0831874 0)
(1.21224 -0.0947736 0)
(1.20875 -0.10168 0)
(1.20902 -0.113896 0)
(1.2061 -0.117965 0)
(1.2013 -0.116672 0)
(1.19743 -0.107511 0)
(1.19224 -0.0897424 0)
(1.18688 -0.0714613 0)
(1.18434 -0.0620188 0)
(1.18193 -0.0616096 0)
(1.18029 -0.0654836 0)
(1.18376 -0.0750259 0)
(1.18788 -0.0844103 0)
(1.1878 -0.0883367 0)
(1.1838 -0.0877587 0)
(1.17855 -0.0856478 0)
(1.16587 -0.0730697 0)
(1.15066 -0.0554811 0)
(1.14177 -0.0450343 0)
(1.13752 -0.0413196 0)
(1.13419 -0.040834 0)
(1.1396 -0.0456586 0)
(1.15146 -0.0570359 0)
(1.15686 -0.0629424 0)
(1.15717 -0.0618529 0)
(1.15361 -0.0595094 0)
(1.14755 -0.0558684 0)
(1.13103 -0.0409085 0)
(1.1141 -0.0253666 0)
(1.10471 -0.0202905 0)
(1.09929 -0.0205872 0)
(1.09494 -0.0216929 0)
(1.09332 -0.0252184 0)
(1.10433 -0.0343309 0)
(1.1162 -0.0390363 0)
(1.11831 -0.0366654 0)
(1.11533 -0.0322703 0)
(1.1097 -0.0253256 0)
(1.09665 -0.0128278 0)
(1.0809 -0.00232131 0)
(1.06888 0.000432126 0)
(1.0612 -0.00105366 0)
(1.05553 -0.00321752 0)
(1.05063 -0.00588706 0)
(1.04988 -0.00996843 0)
(1.06062 -0.0130057 0)
(1.06767 -0.0109711 0)
(1.06709 -0.00470489 0)
(1.06338 0.00280908 0)
(1.05719 0.0106904 0)
(1.04879 0.0161541 0)
(1.03587 0.0169818 0)
(1.02151 0.0147929 0)
(1.01137 0.0127764 0)
(1.00467 0.0113472 0)
(0.998832 0.0102215 0)
(0.995252 0.00919213 0)
(1.00152 0.0109102 0)
(1.00912 0.0167976 0)
(1.00907 0.0233477 0)
(1.00551 0.0299909 0)
(1.00055 0.0352344 0)
(0.99428 0.0380249 0)
(0.981802 0.0370537 0)
(0.961223 0.0303156 0)
(0.945853 0.0254817 0)
(0.937071 0.0237874 0)
(0.930441 0.0234648 0)
(0.925312 0.0237497 0)
(0.931106 0.0289645 0)
(0.94151 0.0393605 0)
(0.941957 0.0458562 0)
(0.937329 0.0494599 0)
(0.931363 0.0526689 0)
(0.923831 0.0547344 0)
(0.907467 0.0517826 0)
(0.879488 0.0417504 0)
(0.858675 0.0318877 0)
(0.8472 0.0255854 0)
(0.839021 0.0240445 0)
(0.833157 0.0248342 0)
(0.83797 0.0338552 0)
(0.846452 0.0497639 0)
(0.845823 0.0603381 0)
(0.83923 0.0645067 0)
(0.830597 0.0649776 0)
(0.816331 0.0622757 0)
(0.789422 0.0483762 0)
(0.756984 0.028863 0)
(0.730674 0.0120606 0)
(0.711919 -0.00163639 0)
(0.700489 -0.00779269 0)
(0.693389 -0.00950801 0)
(0.694014 -0.00974026 0)
(0.693834 -0.0186973 0)
(0.685149 -0.0294988 0)
(0.677761 -0.0337825 0)
(0.0450139 -0.118783 0)
(-1.25244 -0.0789765 0)
(1.21785 -0.0966178 0)
(1.21487 -0.112456 0)
(1.20954 -0.120591 0)
(1.20497 -0.120096 0)
(1.19238 -0.113254 0)
(1.17893 -0.0969345 0)
(1.17362 -0.0815358 0)
(1.17206 -0.068438 0)
(1.17496 -0.057667 0)
(1.18306 -0.0564183 0)
(1.19052 -0.067088 0)
(1.19235 -0.0800316 0)
(1.19085 -0.0883378 0)
(1.18692 -0.0904891 0)
(1.18101 -0.0897698 0)
(1.16243 -0.0782672 0)
(1.14525 -0.0599898 0)
(1.13697 -0.0489468 0)
(1.13203 -0.044039 0)
(1.12843 -0.0408819 0)
(1.1323 -0.0402213 0)
(1.14833 -0.0484855 0)
(1.15642 -0.0564349 0)
(1.15533 -0.0595413 0)
(1.15194 -0.0602953 0)
(1.147 -0.0583641 0)
(1.13141 -0.0457385 0)
(1.11418 -0.0315499 0)
(1.10497 -0.0258805 0)
(1.09946 -0.0242223 0)
(1.09456 -0.0236426 0)
(1.09148 -0.0246671 0)
(1.0956 -0.0302684 0)
(1.10595 -0.0350365 0)
(1.11041 -0.0351958 0)
(1.10893 -0.0319019 0)
(1.10526 -0.0249684 0)
(1.0974 -0.0142173 0)
(1.08671 -0.00674729 0)
(1.07533 -0.00558661 0)
(1.06672 -0.00651334 0)
(1.06032 -0.00759894 0)
(1.05407 -0.0100258 0)
(1.04909 -0.0128389 0)
(1.0477 -0.0146607 0)
(1.05111 -0.0124646 0)
(1.05415 -0.00419505 0)
(1.05367 0.00319882 0)
(1.05094 0.0110341 0)
(1.04707 0.0160365 0)
(1.04284 0.0166292 0)
(1.03485 0.0158491 0)
(1.02039 0.0111477 0)
(1.00926 0.0064516 0)
(1.00133 0.00398963 0)
(0.994397 0.00439478 0)
(0.988654 0.00566364 0)
(0.988023 0.0121507 0)
(0.99502 0.0244722 0)
(0.997535 0.0323746 0)
(0.995463 0.0352624 0)
(0.99201 0.0361913 0)
(0.98772 0.0359554 0)
(0.981356 0.0349111 0)
(0.96439 0.0292362 0)
(0.944838 0.0218736 0)
(0.932878 0.0179003 0)
(0.924415 0.017848 0)
(0.917567 0.0194959 0)
(0.915089 0.0252156 0)
(0.92473 0.0397187 0)
(0.930811 0.0514918 0)
(0.928698 0.0552197 0)
(0.923639 0.0550673 0)
(0.918092 0.0537568 0)
(0.909277 0.0513976 0)
(0.887485 0.0407995 0)
(0.862097 0.0274093 0)
(0.844549 0.019724 0)
(0.833177 0.0171836 0)
(0.825004 0.0178105 0)
(0.820174 0.0221177 0)
(0.826365 0.0360345 0)
(0.833119 0.0503835 0)
(0.831736 0.0577265 0)
(0.825183 0.0599491 0)
(0.816162 0.0592023 0)
(0.799149 0.0526147 0)
(0.77198 0.0348173 0)
(0.743029 0.0125389 0)
(0.718863 -0.00470366 0)
(0.701618 -0.0160329 0)
(0.691876 -0.0199714 0)
(0.688595 -0.0213324 0)
(0.693325 -0.0263381 0)
(0.693057 -0.0382413 0)
(0.690114 -0.0426988 0)
(0.0523278 -0.110959 0)
(-1.25757 -0.0760596 0)
(1.22535 -0.098204 0)
(1.21997 -0.103632 0)
(1.21219 -0.112844 0)
(1.19538 -0.113385 0)
(1.17424 -0.101366 0)
(1.16297 -0.0899019 0)
(1.15891 -0.0846653 0)
(1.15669 -0.0791687 0)
(1.16506 -0.0702406 0)
(1.18851 -0.0645116 0)
(1.19997 -0.0679517 0)
(1.19799 -0.0728035 0)
(1.19353 -0.0771601 0)
(1.18645 -0.0821624 0)
(1.16833 -0.078536 0)
(1.144 -0.064595 0)
(1.13231 -0.0579085 0)
(1.12789 -0.0552287 0)
(1.12438 -0.0523737 0)
(1.12337 -0.0496871 0)
(1.1351 -0.0510438 0)
(1.15266 -0.0549161 0)
(1.15766 -0.0554073 0)
(1.15463 -0.0545112 0)
(1.15034 -0.052015 0)
(1.13755 -0.0415541 0)
(1.11999 -0.0312135 0)
(1.10787 -0.0284939 0)
(1.10095 -0.0283365 0)
(1.09607 -0.0285275 0)
(1.09266 -0.031101 0)
(1.09219 -0.0363454 0)
(1.09536 -0.0387677 0)
(1.10015 -0.0354571 0)
(1.10098 -0.0279078 0)
(1.09883 -0.0192615 0)
(1.09374 -0.0091533 0)
(1.0889 -0.00359319 0)
(1.08418 -0.00272971 0)
(1.07624 -0.00559529 0)
(1.06775 -0.0114819 0)
(1.06081 -0.016894 0)
(1.05453 -0.0201291 0)
(1.04765 -0.0200709 0)
(1.0407 -0.0166279 0)
(1.03702 -0.00710935 0)
(1.04063 0.00795002 0)
(1.04354 0.0170551 0)
(1.04322 0.0195011 0)
(1.04286 0.0194864 0)
(1.03999 0.0180565 0)
(1.03537 0.0154767 0)
(1.02469 0.00747511 0)
(1.01002 -0.000871912 0)
(0.998086 -0.0028579 0)
(0.987616 0.000304267 0)
(0.979398 0.00635721 0)
(0.974541 0.0117463 0)
(0.978843 0.023681 0)
(0.987727 0.0358451 0)
(0.990134 0.0398354 0)
(0.988768 0.038859 0)
(0.985367 0.0361273 0)
(0.980391 0.0342776 0)
(0.970119 0.0295407 0)
(0.948865 0.0191954 0)
(0.92991 0.013834 0)
(0.917113 0.0152879 0)
(0.908345 0.0198245 0)
(0.90265 0.0237708 0)
(0.905727 0.0333406 0)
(0.917825 0.0484601 0)
(0.922477 0.0564421 0)
(0.920495 0.0565156 0)
(0.915834 0.0539554 0)
(0.909573 0.0519317 0)
(0.896484 0.0454506 0)
(0.871185 0.0306558 0)
(0.846979 0.0192376 0)
(0.830027 0.0148227 0)
(0.818809 0.014779 0)
(0.811207 0.0157298 0)
(0.808806 0.0209411 0)
(0.816394 0.035868 0)
(0.82166 0.0488238 0)
(0.819594 0.05377 0)
(0.812699 0.0537014 0)
(0.802605 0.0514299 0)
(0.78554 0.0418997 0)
(0.759463 0.024561 0)
(0.731001 0.00300725 0)
(0.708796 -0.0150387 0)
(0.694176 -0.0271734 0)
(0.686532 -0.0303778 0)
(0.689467 -0.0344113 0)
(0.696882 -0.0439779 0)
(0.698485 -0.0486219 0)
(0.0590519 -0.10556 0)
(-1.2625 -0.0742333 0)
(1.23085 -0.0992965 0)
(1.22372 -0.0997141 0)
(1.21319 -0.101243 0)
(1.18445 -0.0935038 0)
(1.16249 -0.0841333 0)
(1.15559 -0.081355 0)
(1.15241 -0.0799364 0)
(1.14986 -0.0785715 0)
(1.15689 -0.0779541 0)
(1.18702 -0.0792923 0)
(1.20083 -0.0784505 0)
(1.19804 -0.0765771 0)
(1.19347 -0.0751362 0)
(1.1819 -0.0688762 0)
(1.15624 -0.0566701 0)
(1.13758 -0.0513233 0)
(1.12967 -0.0506869 0)
(1.1257 -0.0515156 0)
(1.12252 -0.0538788 0)
(1.12436 -0.0607644 0)
(1.13525 -0.0671646 0)
(1.14754 -0.0642593 0)
(1.14963 -0.056745 0)
(1.14704 -0.0485331 0)
(1.13905 -0.0359052 0)
(1.12786 -0.0255618 0)
(1.1178 -0.022514 0)
(1.10875 -0.02483 0)
(1.10308 -0.0289 0)
(1.09972 -0.0359159 0)
(1.09763 -0.0438748 0)
(1.0923 -0.0466461 0)
(1.08719 -0.0438877 0)
(1.08505 -0.0322726 0)
(1.08641 -0.015647 0)
(1.08699 -0.00283054 0)
(1.0851 0.00259218 0)
(1.08439 0.00241224 0)
(1.08368 -0.0017773 0)
(1.07974 -0.00849076 0)
(1.07225 -0.0180422 0)
(1.06254 -0.0253938 0)
(1.05213 -0.0266364 0)
(1.03991 -0.0212949 0)
(1.02955 -0.0118162 0)
(1.02431 -0.00467332 0)
(1.02547 0.00615776 0)
(1.0347 0.0194598 0)
(1.04043 0.0238329 0)
(1.0423 0.0205068 0)
(1.04043 0.0159564 0)
(1.03583 0.0126215 0)
(1.02884 0.008282 0)
(1.01236 0.000734576 0)
(0.992887 -0.00177669 0)
(0.97816 0.00312905 0)
(0.969569 0.00949951 0)
(0.964259 0.0142206 0)
(0.964317 0.0210433 0)
(0.977071 0.0321228 0)
(0.986725 0.0379235 0)
(0.987898 0.0370311 0)
(0.984354 0.0351309 0)
(0.979388 0.0335214 0)
(0.972376 0.0310728 0)
(0.953674 0.024401 0)
(0.928375 0.0179113 0)
(0.911177 0.0168606 0)
(0.901691 0.0186321 0)
(0.895362 0.0206091 0)
(0.891839 0.0244331 0)
(0.902313 0.0367894 0)
(0.916796 0.0491296 0)
(0.919648 0.052798 0)
(0.91505 0.0527769 0)
(0.908802 0.0518591 0)
(0.900584 0.0503892 0)
(0.881166 0.0420351 0)
(0.851909 0.0275795 0)
(0.830139 0.0191314 0)
(0.816454 0.0145059 0)
(0.807404 0.0123515 0)
(0.800657 0.0121993 0)
(0.80122 0.016904 0)
(0.810849 0.0290329 0)
(0.815798 0.0373904 0)
(0.812588 0.0401737 0)
(0.804475 0.0411071 0)
(0.791794 0.0397269 0)
(0.772619 0.0310924 0)
(0.747621 0.0148411 0)
(0.721773 -0.00800648 0)
(0.701648 -0.0276512 0)
(0.689132 -0.0392338 0)
(0.686131 -0.0460777 0)
(0.696496 -0.0558351 0)
(0.703961 -0.0590631 0)
(0.0644085 -0.0963392 0)
(-1.26701 -0.0725183 0)
(1.22874 -0.104605 0)
(1.22126 -0.100919 0)
(1.20233 -0.0874815 0)
(1.17524 -0.0747451 0)
(1.16071 -0.0708163 0)
(1.15495 -0.0718718 0)
(1.15172 -0.0735509 0)
(1.15083 -0.0785237 0)
(1.1615 -0.0894127 0)
(1.1819 -0.0940737 0)
(1.19203 -0.087377 0)
(1.19032 -0.0794867 0)
(1.18429 -0.0686522 0)
(1.16869 -0.0515027 0)
(1.15142 -0.0417961 0)
(1.1396 -0.042141 0)
(1.13359 -0.0463748 0)
(1.12996 -0.0534281 0)
(1.12986 -0.0649345 0)
(1.12902 -0.073407 0)
(1.12741 -0.0746209 0)
(1.12986 -0.0653131 0)
(1.13193 -0.0469585 0)
(1.13125 -0.028482 0)
(1.12794 -0.0161107 0)
(1.12437 -0.0138362 0)
(1.12059 -0.0179727 0)
(1.11502 -0.0275517 0)
(1.10881 -0.0391009 0)
(1.10328 -0.0484088 0)
(1.09805 -0.050924 0)
(1.08907 -0.0478164 0)
(1.07614 -0.0378923 0)
(1.06938 -0.0268414 0)
(1.06854 -0.0136326 0)
(1.07399 0.00186449 0)
(1.08067 0.00771418 0)
(1.08617 0.00244389 0)
(1.08592 -0.00513122 0)
(1.0824 -0.0105928 0)
(1.077 -0.0158612 0)
(1.06475 -0.0229476 0)
(1.04604 -0.0242914 0)
(1.02911 -0.0158718 0)
(1.01984 -0.00729711 0)
(1.01475 -0.00191404 0)
(1.01309 0.00382947 0)
(1.02581 0.013932 0)
(1.04121 0.019573 0)
(1.04363 0.0178765 0)
(1.04015 0.0151823 0)
(1.0354 0.0135085 0)
(1.02914 0.0118999 0)
(1.01268 0.00892861 0)
(0.986514 0.00625317 0)
(0.969749 0.00671768 0)
(0.96252 0.00841306 0)
(0.95791 0.00947958 0)
(0.955331 0.0118299 0)
(0.966806 0.0198447 0)
(0.984232 0.0300033 0)
(0.987424 0.0338586 0)
(0.983253 0.0344652 0)
(0.97804 0.0345377 0)
(0.971779 0.0355552 0)
(0.956892 0.035743 0)
(0.929747 0.0291564 0)
(0.909965 0.0231994 0)
(0.899048 0.0197242 0)
(0.892107 0.0179309 0)
(0.886778 0.017159 0)
(0.887843 0.0194358 0)
(0.903854 0.0332227 0)
(0.913863 0.0457851 0)
(0.912157 0.050241 0)
(0.906308 0.0521194 0)
(0.899563 0.0536157 0)
(0.887552 0.0537998 0)
(0.86248 0.0436767 0)
(0.8357 0.027175 0)
(0.818454 0.0167289 0)
(0.807032 0.0108531 0)
(0.799159 0.00634189 0)
(0.793275 0.00371775 0)
(0.796452 0.00799264 0)
(0.804036 0.0207873 0)
(0.80478 0.0303112 0)
(0.799728 0.0340982 0)
(0.791681 0.0351169 0)
(0.778997 0.0314271 0)
(0.761649 0.0209934 0)
(0.740079 0.00232768 0)
(0.717945 -0.0236759 0)
(0.699072 -0.0433203 0)
(0.688553 -0.0551092 0)
(0.691913 -0.0681788 0)
(0.70361 -0.0730857 0)
(0.0686505 -0.0853932 0)
(-1.27094 -0.0712359 0)
(1.21683 -0.105193 0)
(1.20706 -0.0891646 0)
(1.18939 -0.0673911 0)
(1.17458 -0.0618447 0)
(1.1646 -0.0641568 0)
(1.15975 -0.0678969 0)
(1.15789 -0.07756 0)
(1.15991 -0.09078 0)
(1.16328 -0.0990302 0)
(1.16892 -0.0974285 0)
(1.17229 -0.0867245 0)
(1.17214 -0.0693289 0)
(1.16663 -0.0480681 0)
(1.15896 -0.0352633 0)
(1.15283 -0.034301 0)
(1.14653 -0.0401854 0)
(1.14194 -0.0521449 0)
(1.13926 -0.0666379 0)
(1.1353 -0.076244 0)
(1.12989 -0.0773983 0)
(1.12053 -0.0706591 0)
(1.11191 -0.0568458 0)
(1.10993 -0.0408302 0)
(1.11269 -0.0234755 0)
(1.11566 -0.0135724 0)
(1.12105 -0.0139876 0)
(1.1243 -0.0221524 0)
(1.12179 -0.0311519 0)
(1.11662 -0.0399141 0)
(1.10887 -0.0477239 0)
(1.0955 -0.0493885 0)
(1.07708 -0.0397696 0)
(1.065 -0.0272593 0)
(1.05934 -0.0203726 0)
(1.05602 -0.0155125 0)
(1.06293 -0.00803829 0)
(1.08282 -0.00189396 0)
(1.09055 -0.00298243 0)
(1.0879 -0.00569155 0)
(1.08323 -0.00783073 0)
(1.07773 -0.0102238 0)
(1.06339 -0.0123148 0)
(1.03627 -0.0111979 0)
(1.01893 -0.00853371 0)
(1.01271 -0.00618013 0)
(1.00875 -0.00414078 0)
(1.00647 -0.00162252 0)
(1.01758 0.00303599 0)
(1.03896 0.00899048 0)
(1.04361 0.0122439 0)
(1.03929 0.0133964 0)
(1.0341 0.0145236 0)
(1.0272 0.0168385 0)
(1.01192 0.0206262 0)
(0.985929 0.0195097 0)
(0.968091 0.015176 0)
(0.960514 0.0118124 0)
(0.955552 0.00983665 0)
(0.951437 0.00789869 0)
(0.956108 0.00819938 0)
(0.974997 0.018553 0)
(0.9828 0.0277296 0)
(0.979561 0.0322498 0)
(0.973828 0.0369612 0)
(0.96743 0.0415661 0)
(0.95833 0.044589 0)
(0.938191 0.0396403 0)
(0.914783 0.0270767 0)
(0.901195 0.0193707 0)
(0.893367 0.0147535 0)
(0.887399 0.0101074 0)
(0.881875 0.00761513 0)
(0.884573 0.0136614 0)
(0.898845 0.0342335 0)
(0.903803 0.0500175 0)
(0.90065 0.056227 0)
(0.894868 0.058747 0)
(0.887511 0.0600765 0)
(0.873841 0.0563813 0)
(0.850307 0.0394179 0)
(0.827789 0.0190563 0)
(0.812303 0.00599598 0)
(0.80093 -0.000942225 0)
(0.793095 -0.00396504 0)
(0.786852 -0.00355098 0)
(0.788528 0.00499454 0)
(0.793439 0.0177664 0)
(0.792874 0.0246857 0)
(0.788336 0.0265369 0)
(0.781214 0.0264285 0)
(0.770807 0.0204881 0)
(0.757116 0.00700584 0)
(0.739941 -0.0149753 0)
(0.718872 -0.0405627 0)
(0.699063 -0.0580048 0)
(0.689947 -0.0733489 0)
(0.699768 -0.0910737 0)
(0.0702054 -0.077448 0)
(-1.27465 -0.0704532 0)
(1.19926 -0.0984504 0)
(1.18657 -0.0718993 0)
(1.17835 -0.0635981 0)
(1.17297 -0.0631065 0)
(1.16872 -0.065504 0)
(1.16911 -0.0766127 0)
(1.16978 -0.0891483 0)
(1.166 -0.0954998 0)
(1.16175 -0.095174 0)
(1.15792 -0.0886141 0)
(1.15378 -0.0735091 0)
(1.1507 -0.0563187 0)
(1.14861 -0.0439296 0)
(1.14837 -0.0386875 0)
(1.1526 -0.0395593 0)
(1.15466 -0.0483982 0)
(1.15169 -0.0586978 0)
(1.14646 -0.067333 0)
(1.13973 -0.0716735 0)
(1.12373 -0.0679203 0)
(1.10707 -0.0549143 0)
(1.09946 -0.0439797 0)
(1.09612 -0.0374161 0)
(1.098 -0.0290573 0)
(1.11248 -0.0216993 0)
(1.12679 -0.0239443 0)
(1.12831 -0.0295052 0)
(1.12417 -0.0326586 0)
(1.11927 -0.0352138 0)
(1.10896 -0.0377013 0)
(1.08407 -0.035434 0)
(1.06381 -0.0276243 0)
(1.05617 -0.0233218 0)
(1.05228 -0.0202073 0)
(1.04978 -0.0169457 0)
(1.05818 -0.013353 0)
(1.08293 -0.0137056 0)
(1.09136 -0.0131793 0)
(1.08772 -0.0112848 0)
(1.08227 -0.00984706 0)
(1.07474 -0.00724564 0)
(1.05683 -0.00160095 0)
(1.03136 0.00278829 0)
(1.01584 0.00153911 0)
(1.01004 -0.00086147 0)
(1.00622 -0.00289169 0)
(1.00385 -0.0055799 0)
(1.01221 -0.00889107 0)
(1.03181 -0.00430917 0)
(1.03853 0.00330477 0)
(1.03535 0.00905794 0)
(1.02955 0.0158524 0)
(1.02105 0.0242164 0)
(1.0097 0.030183 0)
(0.991454 0.0283141 0)
(0.973175 0.0188797 0)
(0.963422 0.0113355 0)
(0.957813 0.00568002 0)
(0.953105 0.00107916 0)
(0.949844 -0.000657372 0)
(0.956779 0.00672549 0)
(0.968577 0.0264033 0)
(0.970851 0.039983 0)
(0.967711 0.0457846 0)
(0.962484 0.0483688 0)
(0.956844 0.0491304 0)
(0.947527 0.046158 0)
(0.927778 0.0319183 0)
(0.908701 0.0152563 0)
(0.896206 0.00630026 0)
(0.886958 0.00294924 0)
(0.87962 0.00270066 0)
(0.873956 0.00447489 0)
(0.875724 0.0162581 0)
(0.887769 0.0400609 0)
(0.89216 0.0559166 0)
(0.889239 0.0608947 0)
(0.884007 0.0600395 0)
(0.87785 0.0573965 0)
(0.866008 0.0499505 0)
(0.84427 0.0311128 0)
(0.822539 0.010739 0)
(0.805862 -0.00134406 0)
(0.792416 -0.00600182 0)
(0.783498 -0.00649474 0)
(0.777964 -0.00531091 0)
(0.780705 0.00337812 0)
(0.784951 0.0139333 0)
(0.78468 0.0178928 0)
(0.781683 0.0166191 0)
(0.776115 0.0138704 0)
(0.768018 0.00530095 0)
(0.757054 -0.00949122 0)
(0.741377 -0.0296685 0)
(0.719166 -0.0524346 0)
(0.697251 -0.067122 0)
(0.695913 -0.107769 0)
(0.066784 -0.0737995 0)
(-1.27813 -0.0702777 0)
(1.18491 -0.0823546 0)
(1.17613 -0.0721331 0)
(1.17335 -0.0676656 0)
(1.17252 -0.0666803 0)
(1.17811 -0.0757449 0)
(1.17874 -0.0856995 0)
(1.17367 -0.0892984 0)
(1.16795 -0.0884705 0)
(1.15604 -0.082765 0)
(1.14445 -0.0708341 0)
(1.13904 -0.0593399 0)
(1.13686 -0.0510193 0)
(1.13832 -0.0451222 0)
(1.14949 -0.0443274 0)
(1.1592 -0.0525952 0)
(1.15913 -0.0588601 0)
(1.15456 -0.0623147 0)
(1.14891 -0.0642381 0)
(1.13384 -0.0625781 0)
(1.10978 -0.0521364 0)
(1.09564 -0.0428508 0)
(1.09102 -0.0384562 0)
(1.08846 -0.0347425 0)
(1.09336 -0.0307773 0)
(1.11787 -0.0317882 0)
(1.13128 -0.0359851 0)
(1.12837 -0.0364778 0)
(1.12283 -0.0363222 0)
(1.11689 -0.0355071 0)
(1.10042 -0.0303745 0)
(1.07311 -0.0192634 0)
(1.05785 -0.0159361 0)
(1.05234 -0.0164501 0)
(1.04897 -0.0169984 0)
(1.04772 -0.0180535 0)
(1.06111 -0.0232557 0)
(1.08088 -0.0258005 0)
(1.08697 -0.0211892 0)
(1.08381 -0.0166984 0)
(1.07792 -0.0108268 0)
(1.06603 0.000403505 0)
(1.05023 0.0102472 0)
(1.03266 0.011319 0)
(1.01933 0.00643023 0)
(1.01238 0.000524075 0)
(1.00803 -0.00669416 0)
(1.00605 -0.0150881 0)
(1.00723 -0.0191502 0)
(1.01703 -0.0118229 0)
(1.02414 0.00461438 0)
(1.02382 0.0166806 0)
(1.01949 0.0250479 0)
(1.0136 0.0303149 0)
(1.00893 0.0321524 0)
(1.00118 0.0300041 0)
(0.985588 0.0183624 0)
(0.971179 0.00453092 0)
(0.961031 -0.00251338 0)
(0.952957 -0.0041317 0)
(0.94585 -0.0025154 0)
(0.941012 0.00139751 0)
(0.946254 0.0168787 0)
(0.957718 0.0384271 0)
(0.960613 0.0489364 0)
(0.958629 0.0516264 0)
(0.955522 0.049965 0)
(0.950952 0.0475143 0)
(0.941558 0.0404998 0)
(0.921199 0.0233073 0)
(0.902277 0.00875844 0)
(0.88853 0.00291193 0)
(0.876554 0.00280791 0)
(0.867819 0.00512795 0)
(0.862276 0.00727415 0)
(0.864932 0.0180032 0)
(0.878413 0.0390678 0)
(0.885904 0.0508792 0)
(0.884748 0.0530038 0)
(0.87881 0.0525719 0)
(0.871343 0.0506068 0)
(0.858675 0.0444209 0)
(0.836655 0.0288357 0)
(0.811784 0.0106845 0)
(0.793457 -0.000336046 0)
(0.781856 -0.00630676 0)
(0.774638 -0.0086679 0)
(0.770647 -0.00786433 0)
(0.775888 -0.000655829 0)
(0.782617 0.00553837 0)
(0.784006 0.00599447 0)
(0.780765 0.00429709 0)
(0.774782 0.00130331 0)
(0.766584 -0.00820616 0)
(0.75723 -0.0225545 0)
(0.740184 -0.0411504 0)