/*--------------------------------*- C++ -*----------------------------------*\
  =========                 |
  \\      /  F ield         | OpenFOAM: The Open Source CFD Toolbox
   \\    /   O peration     | Website:  https://openfoam.org
    \\  /    A nd           | Version:  12
     \\/     M anipulation  |
\*---------------------------------------------------------------------------*/
FoamFile
{
    format      ascii;
    class       volScalarField;
    location    "9.04";
    object      rho;
}
// * * * * * * * * * * * * * * * * * * * * * * * * * * * * * * * * * * * * * //

dimensions      [1 -3 0 0 0 0 0];

internalField   nonuniform List<scalar> 
22702
(
1.40001
1.40001
1.253
1.40001
1.45197
1.40001
1.83817
1.40001
1.40001
1.0082
1.83828
1.83739
1.40001
1.84115
1.27062
1.40001
1.40001
1.40001
1.83935
1.40001
1.84202
1.40001
1.8412
1.02241
1.84396
1.01067
1.40001
1.83743
1.01883
1.02425
1.40001
1.83773
1.40001
1.40001
1.40001
1.80944
1.84503
1.84086
1.40001
1.40001
0.9977
1.40001
1.61547
1.40001
1.83706
1.40001
1.40001
1.40001
1.40001
1.02909
1.40001
1.02349
1.40001
1.83779
1.40001
1.83833
1.40001
1.40001
1.40001
1.40001
1.00668
1.40001
1.40001
1.02502
1.40001
1.033
1.40001
1.40001
1.40001
1.01528
1.40001
1.84072
1.67005
1.40001
1.8409
1.86504
1.03475
1.83888
1.02485
1.40001
1.83703
1.03014
1.8406
1.83981
1.40001
1.40001
1.40001
1.40001
1.31923
1.00462
1.84056
1.40001
1.40001
1.06894
1.40001
1.84314
1.0602
1.40001
1.40001
1.40001
1.40001
1.61506
1.83778
1.01591
1.40001
1.40001
1.50288
1.40001
1.02739
1.40001
1.83974
1.83862
1.40001
1.40001
1.01612
1.02352
1.00211
1.40001
1.40001
1.40001
1.40001
1.40001
1.29894
1.40001
1.77944
1.43157
1.83883
1.40001
1.83913
1.83916
1.84154
1.83718
1.40001
0.982553
1.40001
1.07048
1.40001
1.40001
1.40001
1.40001
1.8383
1.40001
1.40001
1.40001
1.40001
1.84444
1.40001
1.42677
1.40001
1.40001
1.40001
1.40001
1.0293
1.40001
1.40988
1.40001
1.0283
1.40001
1.40001
1.40001
1.83932
1.40001
1.84222
1.04071
1.01576
1.83914
1.83959
1.40001
1.47759
1.65551
1.40001
1.8391
1.01869
1.81006
1.40001
1.40001
1.40001
1.40001
1.84126
1.75352
1.40001
1.8383
1.02828
1.83915
1.40001
1.03275
1.40001
1.02933
1.01686
1.39981
1.40001
1.40001
1.83974
1.40001
1.40001
1.84212
1.40001
1.84148
1.83821
1.02583
1.40001
1.40001
1.02763
1.84157
1.40001
1.40001
1.40001
1.84151
1.40001
1.02777
1.40001
1.40001
1.84185
1.84167
1.84127
1.40001
1.40004
1.40001
1.40001
1.40001
1.84234
1.40001
1.02886
1.85504
1.84205
1.84096
1.40001
1.40001
1.40001
1.01032
1.84126
1.62565
1.40001
1.84354
1.03076
1.02861
1.84358
1.84098
1.40001
1.84465
1.0003
1.79171
1.40001
1.40001
1.40001
1.40001
1.8418
1.40001
1.66347
1.44144
1.40001
1.40001
1.84129
1.04987
1.14519
1.40001
1.84023
1.03281
1.84695
1.40001
1.40001
1.40001
1.40001
1.40001
1.40001
1.40001
1.02338
1.13808
1.03361
1.84155
1.40001
1.40001
1.40001
1.40001
1.7973
1.40001
1.01823
1.40001
1.00164
1.02477
1.8412
1.03511
1.84176
1.40001
1.40001
1.40001
1.39769
1.034
1.02226
1.4
1.40001
1.00013
1.40001
1.83919
1.01205
1.40001
1.40001
1.83681
1.05236
1.40001
1.84739
1.02475
1.84118
1.40001
1.00958
1.39768
1.40001
1.40001
1.40001
1.02229
1.40001
1.40001
1.40001
1.40002
1.41059
1.67163
1.40001
1.03273
1.40001
1.40001
1.40001
1.40001
1.40001
1.40001
1.40001
1.8372
1.40001
1.83866
1.40001
1.40001
1.40001
1.03393
1.40001
1.84398
1.03619
1.40001
1.74503
1.40001
1.40001
1.83816
1.40001
1.40001
1.40001
1.83027
1.40001
1.40001
1.83778
1.83769
1.40001
1.49071
1.40001
1.40001
1.06669
1.40001
1.40001
1.40001
1.07034
1.40001
1.40001
1.40001
1.40001
1.0294
1.40001
1.40001
1.40001
1.40001
1.40001
1.023
1.40008
1.84124
1.40001
1.4
1.83994
1.83868
1.40001
1.40001
1.03074
1.22018
1.8386
1.40001
1.40001
1.40001
1.84084
1.02107
1.40001
1.84217
1.40001
1.40001
1.09982
1.08855
1.40001
1.03015
1.03701
1.40001
1.40001
1.40001
1.40001
1.40001
1.40001
1.40001
1.83875
1.50398
1.8323
1.02931
1.30247
1.83863
1.40001
1.84253
1.83914
1.03452
1.17799
1.40001
1.02743
1.40001
1.85031
1.40001
1.40001
1.40001
1.40001
1.84176
1.40001
1.40001
1.40001
1.40001
1.40001
1.40001
1.40001
1.56131
1.84007
1.40001
1.8417
1.40001
1.40001
1.02998
1.40001
1.40001
1.40001
1.40001
1.84151
1.73639
1.40001
1.40001
1.02835
1.84163
1.84184
1.40001
1.84187
1.84206
1.84169
1.40001
1.24411
1.40001
1.84193
1.38916
1.84166
1.40001
1.03432
1.39885
1.83686
1.40001
1.40001
1.40001
1.40001
1.02754
1.84132
1.80077
1.40001
1.84172
1.84146
1.83832
1.40001
1.60317
1.84304
1.40001
1.40001
1.70827
1.46617
1.84195
1.33292
1.84184
1.40001
1.84172
1.84167
1.84168
1.84131
1.40001
1.81918
1.30478
1.27856
1.40001
1.4
1.40001
1.40001
1.84718
1.40001
1.40001
1.40001
1.40001
1.40001
1.83706
1.40001
1.40001
1.39618
1.84177
1.7807
1.40001
1.76466
1.40005
1.40001
1.40001
1.84071
1.40001
1.39729
1.40388
1.40001
1.84187
1.40001
1.84217
1.40001
1.40001
1.72691
1.40001
1.84235
1.40003
1.40001
1.8425
1.40001
1.84153
1.40001
1.40001
1.40001
1.84197
1.40001
1.84617
1.40001
1.84177
1.83717
1.8415
1.8391
1.40001
1.83645
1.83409
1.40001
1.02712
1.81566
1.71674
1.40001
1.84206
1.40001
1.05423
1.0283
1.40001
1.40001
1.40001
1.40001
1.40001
1.04888
1.40001
1.84159
1.51228
1.84078
1.40001
1.40001
1.40001
1.40001
1.40001
1.84155
1.40001
1.84092
1.66271
1.19164
1.40001
1.40002
1.53078
1.51062
1.40001
1.40001
1.55543
1.40001
1.02691
1.84191
1.84214
1.40001
1.40001
1.40001
1.83651
1.40001
1.40003
1.84254
1.84103
1.347
1.40001
1.40001
1.02844
1.80101
1.40001
1.40001
1.40001
1.40001
1.40001
1.84164
1.83663
1.40001
1.8415
1.84629
1.84138
1.40001
1.40001
1.40001
1.40001
1.012
1.8393
1.40001
1.40001
1.80233
1.84012
1.40001
1.81597
1.83986
1.40001
1.40001
1.40001
1.40001
1.40001
1.84204
1.40001
1.40001
1.40001
1.40001
1.84952
1.40001
1.83406
1.02915
1.40001
1.03541
1.40001
1.40001
1.40001
1.39701
1.03394
1.39901
1.40001
1.40001
1.40001
1.46281
1.40001
1.40001
1.26959
1.40001
1.40001
1.40001
1.40001
1.40001
1.40001
1.40001
1.4
1.32537
1.4
1.40001
1.39763
1.40001
1.02622
1.40001
1.40001
1.40001
1.40001
1.73076
1.40001
1.40001
1.40001
1.40001
1.02674
1.40001
1.40001
1.81645
1.83953
1.4
1.40001
1.40001
1.28342
1.40001
1.40001
1.40001
1.40001
1.40001
1.40001
1.34693
1.4092
1.84238
1.40001
1.40001
1.40001
1.84087
1.28797
1.40001
1.40001
1.40001
1.8401
1.83584
1.40001
1.40001
1.40001
1.40001
1.40001
1.40001
1.40001
1.40001
1.40001
1.03611
1.40001
1.40001
1.83895
1.02855
1.40001
1.83781
1.40001
1.0294
1.40001
1.40001
1.03474
1.40001
1.40001
1.40001
1.40001
1.40001
1.40001
1.40001
1.83301
1.84051
1.40001
1.40001
1.40001
1.40001
1.80393
1.40001
1.53022
1.03206
1.40001
1.40001
1.40001
1.40001
1.40001
1.40001
1.40001
1.42982
1.40001
1.40001
1.63951
1.40001
1.40001
1.40001
1.76332
1.40001
1.40001
1.40001
1.40001
1.02573
1.40001
1.40001
1.01846
1.02567
1.40001
1.40001
1.84174
1.40001
1.37722
1.40001
1.40001
1.40001
1.70909
1.04204
1.40001
1.0299
1.40001
1.17178
1.40001
1.40001
1.40001
1.84194
1.40001
1.40001
1.84208
1.40001
1.40001
1.40001
1.84207
1.40001
1.40001
1.84213
1.40001
1.40001
1.03679
1.40001
1.52823
1.40001
1.40001
1.83808
1.83903
1.69646
1.7937
1.40001
1.02789
1.40001
1.40001
1.82254
1.40001
1.03531
1.40001
1.40001
1.40001
1.84165
1.40001
1.40001
1.40001
1.40001
1.66417
1.40001
1.80476
1.84175
1.04552
1.40001
1.40001
1.01828
1.01881
1.40001
1.40001
1.40001
1.7131
1.7337
1.40001
1.40001
1.40001
1.40001
1.40001
1.40001
1.40001
1.59021
1.83827
1.40918
1.40001
1.83682
0.999162
1.40001
1.40001
1.40001
1.64081
1.40001
1.48815
1.40001
1.80364
1.84028
1.40001
1.03605
1.40001
1.83894
1.40001
1.40001
1.84187
1.81474
1.40001
1.84079
1.40001
1.01461
1.40001
1.40001
1.40001
1.84349
1.83324
1.78819
1.40001
1.84432
1.84111
1.40001
1.84258
1.40001
1.84033
1.40001
1.03346
1.3705
1.02897
1.40001
1.40001
1.40001
1.40001
1.40001
1.84205
1.40001
1.84164
1.40001
1.40001
1.40001
1.82034
1.40001
1.02711
1.84154
1.40001
1.01398
1.05777
1.04021
1.40001
1.61666
1.43008
1.8438
1.84112
1.40001
1.4
1.40001
1.40001
1.84176
1.40001
1.40001
1.84175
1.84117
1.40001
1.55862
1.39996
1.40001
1.39667
1.83949
1.24546
1.40001
1.21511
1.0244
1.02702
1.34742
1.84068
1.83595
1.48696
1.84172
1.84168
1.40001
1.40001
1.83815
1.83975
1.84106
1.84026
1.40001
1.8423
1.03277
1.83705
1.8394
1.83865
1.84137
1.26761
1.29221
1.32239
1.84213
1.35137
1.843
1.40001
1.40001
1.84399
1.8414
1.40001
1.03107
1.84185
1.8418
1.40001
1.84135
1.84138
1.40001
1.84175
1.01812
1.84549
1.83818
1.83746
1.8442
1.40001
1.40001
1.40001
1.84193
1.68749
1.03191
1.84221
1.01952
1.8422
1.40001
1.40001
1.40001
1.40001
1.83863
1.84287
1.40001
1.40001
1.84286
1.02846
1.84227
1.02459
1.40001
1.83904
1.40001
1.00581
1.84246
1.13735
1.40001
1.84128
1.84363
1.84138
1.40001
1.40001
1.6168
1.8435
1.02982
1.84166
1.40001
1.84282
1.27081
1.84088
1.03926
1.40001
1.84217
1.05999
1.844
1.02649
1.40001
1.84138
1.40001
1.84056
1.40001
1.6607
1.82565
1.74676
1.01694
1.40001
1.84199
1.40001
1.84248
1.40001
1.84202
1.40001
1.40001
1.84154
1.3807
1.8447
1.00143
1.79805
1.40001
1.71639
1.40001
1.8415
1.84183
1.84129
1.40001
1.79674
1.84188
1.80852
1.67325
1.83777
1.40001
1.69374
1.40001
1.84125
1.40001
1.45404
1.40001
1.81016
1.40001
1.84238
1.82188
1.82128
1.40001
1.83323
1.02275
1.40001
1.02677
1.40001
1.40001
1.40001
1.83975
1.40001
1.84247
1.40001
1.40001
1.40001
1.84346
1.83451
1.76613
1.84041
1.84553
1.03714
1.84344
1.83965
1.40001
1.78406
1.84166
1.8261
1.40001
1.83914
1.83852
1.40001
1.85028
1.84193
1.84301
1.84237
1.40001
1.40001
1.40001
1.84209
1.01056
1.40001
1.84192
1.40001
1.40001
1.02295
1.40001
1.40001
1.84183
1.84231
1.40001
1.84161
1.84886
1.84248
1.37239
1.84185
1.40001
1.84187
1.84151
1.75344
1.40001
1.40001
1.40001
1.84248
1.84162
1.84172
1.33945
1.40001
1.84082
1.84149
1.83926
1.40001
1.84145
1.8415
1.84144
1.84523
1.40001
1.84102
1.84749
1.7741
1.8428
1.84484
1.40001
1.84321
1.83678
1.84174
1.83912
1.84086
1.04593
1.84202
1.84268
1.40001
1.8418
1.84138
1.84202
1.84168
1.40001
1.84097
1.84191
1.40001
1.84191
1.77245
1.40001
1.40001
1.40001
1.84361
1.84085
1.40001
1.40001
1.63434
1.40001
1.84183
1.40001
1.40001
1.84211
1.84371
1.84165
1.84127
1.40001
1.40001
1.40001
1.70166
1.40001
1.84207
1.40001
1.40001
1.83877
1.83816
1.40001
1.84188
1.03338
1.84153
1.84395
1.10145
1.40001
1.03081
1.77479
1.84294
1.84338
1.84355
1.02375
1.84133
1.84364
1.03031
1.0221
1.40001
1.84302
1.84154
1.40001
1.40001
1.84149
1.40001
1.84781
1.40001
1.786
1.40001
1.6105
1.84136
1.84333
1.70372
1.79367
1.84027
1.83922
1.81352
1.40001
1.0075
1.84342
1.84278
1.84191
1.40002
1.40001
1.40001
1.84717
1.40001
1.84243
1.84115
1.14863
1.40001
1.84175
1.39994
1.40001
1.40003
1.40005
1.84246
1.84351
1.39853
1.40001
1.40001
1.84219
1.84379
1.84144
1.84714
1.84004
1.05499
1.77454
1.40001
1.83887
1.84175
1.84144
1.84504
1.40001
1.84163
1.82983
1.84309
1.40001
1.84243
1.84124
1.25675
1.84159
1.84043
1.40001
1.84104
1.2303
1.84137
1.25169
1.84186
1.40001
1.84161
1.84327
1.8418
1.84199
1.84145
1.83674
1.84246
1.83919
1.40001
1.32369
1.84135
1.84173
1.23222
1.84159
1.37762
1.68913
1.84183
1.84019
1.83913
1.40001
1.84465
1.69144
1.84178
1.31863
1.84412
1.84351
1.40001
1.26059
1.40001
1.83486
1.40001
1.704
1.40001
1.83144
1.26941
1.40001
1.84615
1.83692
1.40001
1.8423
1.8439
1.8485
1.83274
1.84776
1.40001
1.83882
1.40001
1.40001
1.40001
1.29729
1.84183
1.84325
1.84783
1.84184
1.84127
1.84655
1.844
1.84239
1.30057
1.43065
1.40001
1.40001
1.84371
1.84214
1.84128
1.84177
1.40003
1.62779
1.40001
1.84899
1.77644
1.40001
1.40001
1.13138
1.84155
1.40001
1.40001
1.02157
1.84174
1.40001
1.8388
1.84212
1.84014
1.82509
1.84173
1.40001
1.02542
1.50806
1.84232
1.84186
1.40001
1.84121
1.84177
1.61465
1.40872
1.49856
1.40001
1.84061
1.84207
1.40001
1.40001
1.02821
1.40001
1.40001
1.84172
1.84203
1.84237
1.84151
1.84203
1.83763
1.84187
1.84247
1.84176
1.40001
1.39647
1.84085
1.84238
1.39684
1.84194
1.84158
1.03674
1.05166
1.83926
1.8412
1.40001
1.40001
1.40083
1.8411
1.84195
1.8419
1.40001
1.84191
1.40001
1.23993
1.8434
1.83419
1.40001
1.59444
1.8419
1.40001
1.83765
1.40001
1.84104
1.69195
1.84062
1.40001
1.84225
1.84887
1.0282
1.84164
1.40001
1.84256
1.83857
1.40001
1.04584
1.84182
1.76352
1.39767
1.82991
1.84142
1.40001
1.39884
1.83862
1.39735
1.8422
1.40001
1.40001
1.84106
1.40001
1.84041
1.84172
1.39662
1.74887
1.40001
1.84149
1.40001
1.40001
1.40001
1.40001
1.84175
1.40001
1.40001
1.84596
1.40001
1.84192
1.40001
1.6834
1.84648
1.8435
1.40001
1.40001
1.39852
1.40001
1.84232
1.84191
1.84189
1.84187
1.84071
1.84101
1.84186
1.40001
1.84158
1.84087
1.40001
1.84176
1.84115
1.40001
1.84102
1.32156
1.4607
1.84182
1.84142
1.84127
1.40001
1.84204
1.40001
1.84181
1.84172
1.40001
1.84012
1.40001
1.40001
1.40001
1.40001
1.84086
1.028
1.39794
1.40001
1.84158
1.83738
1.40001
1.84133
1.40001
1.40546
1.02758
1.84143
1.39958
1.40001
1.8406
1.39843
1.84212
1.40001
1.39977
1.40001
1.84215
1.84484
1.84052
1.84328
1.03664
1.84138
1.84196
1.84148
1.5061
1.40001
1.40001
1.59348
1.84226
1.02802
1.0362
1.40001
1.84115
1.8416
1.84045
1.40001
1.40001
1.84346
1.84112
1.39988
1.40001
1.71736
1.03497
1.40001
1.47935
1.83795
1.84007
1.39826
1.8417
1.84179
1.40001
1.39845
1.40001
1.84109
1.83945
1.57719
1.40001
1.81085
1.40001
1.40095
1.84304
0.987201
1.83916
1.84142
1.39698
1.39992
1.78126
1.40001
1.3997
1.40001
1.84123
1.40001
1.40002
1.03535
1.84168
1.40001
1.40001
1.40001
1.40001
1.84383
1.64797
1.40001
1.40001
1.03486
1.84149
1.64969
1.40001
1.40001
1.40001
1.82128
1.82613
1.84235
1.40001
1.40001
1.84768
1.40001
1.8417
1.84174
1.40001
1.40001
1.84311
1.84179
1.81473
1.40001
1.40001
1.84352
1.84629
1.40001
1.40001
1.40001
1.84578
1.40001
1.40001
1.40001
1.84256
1.84659
1.84484
1.40001
1.84077
1.40004
1.09773
1.83997
1.84273
1.40001
1.83936
1.8306
1.83728
1.40001
1.40001
1.84596
1.40001
1.64306
1.84414
1.40001
1.04366
1.40001
1.84303
1.40001
1.40001
1.84657
1.40001
1.40001
1.40001
1.54369
1.84259
1.08131
1.40002
1.84304
1.40001
1.40001
1.84261
1.40001
1.84366
1.40001
1.40001
1.84171
1.84191
1.40001
1.40006
1.40001
1.40001
1.40001
1.40001
1.40001
1.40001
1.83832
1.84178
1.40001
1.8388
1.02529
1.83468
1.40001
1.84229
1.8503
1.84171
1.84924
1.84105
1.40001
1.40001
1.84487
1.40001
1.67972
1.84304
1.84121
1.40001
1.84464
1.83858
1.40001
1.78929
1.40001
1.84206
1.68574
1.84424
1.39762
1.83662
1.80403
1.84103
1.84194
1.4382
1.84136
1.84391
1.40001
1.84141
1.40001
1.84143
1.40001
1.40001
1.40001
1.40001
1.39612
1.84189
1.8417
1.76064
1.40001
1.84405
1.40001
1.40001
1.40001
0.990764
1.40001
1.83377
1.40001
1.79987
1.83128
1.40001
1.40001
1.40001
1.82163
1.83859
1.40001
1.40001
1.84021
1.04186
1.46936
1.40001
1.84245
1.84181
1.80219
1.83295
1.84164
1.40001
1.84267
1.40001
1.40001
1.40001
1.40001
1.84355
1.84219
1.40001
1.83146
1.45506
1.84184
1.8117
1.40001
1.40001
1.81286
1.40001
1.40001
1.04574
1.70426
1.40001
1.40001
1.84334
1.40001
1.84415
1.80543
1.40001
1.80456
1.04154
1.84193
1.84161
1.84246
1.40001
1.02319
1.40001
1.40001
1.40001
1.84133
1.75311
1.40001
1.84971
1.84183
1.40001
1.84157
1.40001
1.40001
1.40001
1.40001
1.84188
1.39935
1.40001
1.84309
1.40001
1.40001
1.84202
1.84226
1.40001
1.85092
1.48727
1.40003
1.40001
1.84086
1.40001
1.84064
1.40001
1.41205
1.84172
1.40001
1.8418
1.40001
1.40001
1.53411
1.84246
1.40001
1.40001
1.40001
1.40001
1.40001
1.39638
1.03785
1.03285
1.41998
1.40001
1.41588
1.40001
1.41367
1.40001
1.84171
1.40001
1.68237
1.40001
1.84156
1.40001
1.40001
1.40001
1.84154
1.40001
1.74216
1.84289
1.40001
1.63309
1.84079
1.40001
1.40001
1.84016
1.8417
1.40001
1.40001
1.44752
1.02057
1.40001
1.84361
1.40001
1.40001
1.40001
1.40001
1.47455
1.84232
1.40001
1.40001
1.40001
1.0278
1.40001
1.84169
1.84264
1.84923
1.40001
1.40001
1.40001
1.40001
1.6244
1.84831
1.40001
1.40001
1.40001
1.84342
1.84165
1.44595
1.40001
1.40001
1.40001
1.84068
1.84168
1.40001
1.0441
1.84268
1.8418
1.8422
1.84182
1.84071
1.40001
1.40001
1.84882
1.84057
1.84206
1.02656
1.44011
1.84242
1.40001
1.40001
1.40001
1.40001
1.40001
1.84191
1.03959
1.40001
1.40001
1.84136
1.60028
1.40001
1.8478
1.40001
1.40001
1.40001
1.03016
1.40001
1.40001
1.51394
1.84246
1.84256
1.40001
1.83889
1.84736
1.40001
1.46886
1.40001
1.84318
1.40001
1.84292
1.04284
1.40001
1.40001
1.40001
1.40001
1.84159
1.40008
1.40001
1.40001
1.40001
1.82278
1.40001
1.40001
1.40001
1.40001
1.84143
1.03583
1.74925
1.84475
1.40001
1.8417
1.40001
1.40001
1.40001
1.39717
1.40001
1.84357
1.40001
1.20949
1.40001
1.40001
1.40004
1.84275
1.02324
1.40001
1.83935
1.40001
1.8449
1.84163
1.0074
1.40001
1.40001
1.83544
1.40001
1.40001
1.01129
1.40001
1.83827
1.40001
1.82177
1.3993
1.84176
1.40001
1.40001
1.40001
1.40001
1.83856
1.40001
1.40001
1.84248
1.40001
1.40001
1.40001
1.40001
1.40001
1.40001
1.40001
1.40001
1.69293
1.40001
1.54612
1.83906
1.40001
1.40001
1.40001
1.04182
1.40001
1.40001
1.40001
1.40001
1.84021
1.84162
1.46246
1.40001
1.40001
1.84264
1.40001
1.40001
1.84263
1.40001
1.40002
1.40001
1.40001
1.40001
1.40002
1.84326
1.18531
1.84172
1.84305
1.39676
1.40001
1.40001
1.40001
1.65783
1.40001
1.40001
1.8423
1.84189
1.40001
1.40001
1.40001
1.40001
1.00113
1.40001
1.40001
1.40001
1.68176
1.40001
1.84176
1.84492
1.40001
1.84315
1.40001
1.40001
1.40001
1.63972
1.40001
1.83831
1.40001
1.84151
1.40001
1.40001
1.39615
1.8418
1.40001
1.40001
1.40001
1.40001
1.40001
1.84416
1.40003
1.40001
1.03818
1.84068
1.0524
1.40001
1.8416
1.40001
1.39595
1.40001
1.84321
1.84909
1.40001
1.83649
1.2888
1.84151
1.84794
1.40004
1.40001
1.40001
1.02505
1.40001
1.40001
1.40001
1.84153
1.65778
1.84679
1.40001
1.40001
1.40001
1.40001
1.3967
1.84212
1.40001
1.03956
1.40001
1.40001
1.40001
1.40001
1.40001
1.40001
1.40001
1.85129
1.84343
1.84512
1.40001
1.40001
1.39686
1.40001
1.37999
1.40001
1.40001
1.40001
1.04682
1.38041
1.40001
1.02917
1.04243
1.40001
1.84237
1.84135
1.40001
1.84213
1.8419
1.0295
1.69263
1.40001
1.40001
1.40001
1.04332
1.8428
1.40001
1.03301
1.40001
1.85079
1.47705
1.40001
1.40001
1.40001
1.40001
1.84273
1.83744
1.40001
1.40001
1.84169
1.40001
1.40001
1.84096
1.84177
1.40001
1.82329
1.84273
1.84029
1.35181
1.83843
1.40848
1.03735
1.73962
1.84175
1.40001
1.40001
1.40001
1.04142
1.40001
1.04092
1.84892
1.35192
1.84175
1.34892
1.40001
1.84176
1.60391
1.40001
1.40001
1.84225
1.40001
1.57643
1.84131
1.40001
1.40001
1.83785
1.84719
1.03361
1.64929
1.3999
1.40001
1.67283
1.40001
1.84556
1.34044
1.85196
1.8414
1.40001
1.40001
1.40001
1.40001
1.82553
1.40001
1.40001
1.84338
1.39964
1.84134
1.74908
1.84463
1.03572
1.40001
1.40001
1.40001
1.40001
1.84142
1.40005
1.84176
1.40001
1.84159
1.84124
1.45713
1.83612
1.53736
1.84011
1.40001
1.70208
1.06947
1.84155
1.84183
1.7557
1.48024
1.8379
1.84166
1.84194
1.84097
1.40001
1.3142
1.46893
1.40001
1.8419
1.61382
1.84099
1.40004
1.40001
1.40001
1.06876
1.8398
1.83801
1.75733
1.40001
1.56776
1.40001
1.84618
1.84598
1.40001
1.84202
1.83858
1.40001
1.40001
1.40001
1.8418
1.40001
1.57434
1.84684
1.70742
1.40001
1.84012
1.40001
1.40001
1.40001
1.40001
1.40001
1.40001
1.40001
1.40001
1.40001
1.40001
1.04995
1.40001
1.8141
1.04241
1.65488
1.39857
1.84079
1.40001
1.63007
1.40002
1.68562
1.77308
1.40001
1.40174
1.85044
1.31235
1.40001
1.84765
1.82117
1.33245
1.40001
1.84376
1.84188
1.84306
1.40001
1.84139
1.84174
1.84582
1.40001
1.6028
1.40001
1.40006
1.84111
1.40001
1.84192
1.46638
1.84051
1.40001
1.40001
1.84023
1.84802
1.07224
1.40001
1.84196
1.73084
1.84115
1.40001
1.40001
1.83836
1.84076
1.39824
1.40001
1.78528
1.39683
1.84217
1.4001
1.40001
1.40001
1.40001
1.40001
1.60259
1.40001
1.73661
1.84316
1.72666
1.8425
1.40001
1.40389
1.40001
1.40001
1.84128
1.40001
1.84631
1.40001
1.40001
1.40001
1.40001
1.4
1.40001
1.45689
1.62608
1.40001
1.40001
1.05008
1.40001
1.83969
1.05774
1.84802
1.40001
1.62588
1.39976
1.84245
1.68392
1.04323
1.6416
1.40004
1.84151
1.84109
1.40001
1.66845
1.84432
1.84354
1.39841
1.8345
1.82964
1.04067
1.40001
1.40001
1.39815
1.40001
1.83928
1.40001
1.03648
1.84297
1.40001
1.40001
1.7982
1.40001
1.84377
1.40001
1.84307
1.40001
1.08302
1.40001
1.40001
1.84474
1.8445
1.84355
1.40001
1.84445
1.84142
1.84579
1.40001
1.40001
1.83205
1.4
1.11237
1.40001
1.40001
1.40001
1.84044
1.40001
1.8412
1.69068
1.84428
1.40001
1.84161
1.3994
1.40001
1.40001
1.40001
1.40001
1.40001
1.40001
1.11526
1.40001
1.40001
1.84187
1.40001
1.8462
1.8378
1.40001
1.03669
1.03698
1.40001
1.84361
1.473
1.04099
1.00011
1.40001
1.84365
1.40001
1.84323
1.03052
1.40108
1.40001
1.40001
1.39951
1.40001
1.40001
1.40001
1.39991
1.57463
1.84182
1.40001
1.40001
1.84258
1.66268
1.40001
1.79144
1.84331
1.8405
1.57729
1.82964
1.40001
1.84154
1.40001
1.84624
1.40001
1.84561
1.83998
1.39692
1.84311
1.83883
1.40001
1.40001
1.40001
1.40001
1.40001
1.31656
1.83682
1.40005
1.40003
1.0144
1.39999
1.04674
0.993012
1.40001
1.84249
1.841
1.84103
1.40001
1.84172
1.40001
1.03868
1.40001
1.40001
1.84384
1.21991
1.8427
1.40001
1.84427
1.40001
1.37849
1.84177
1.40001
1.40001
1.40001
1.84297
1.40001
1.84226
1.03852
1.40001
1.40001
1.6602
1.40001
1.40001
1.64148
1.40001
1.40001
1.84173
1.40001
1.40001
1.40001
1.40001
1.40001
1.84178
1.84203
1.40001
1.84006
1.84376
1.04134
1.60379
1.84502
1.40001
1.40001
1.79701
1.39895
1.40001
1.40001
1.84107
1.84455
1.6909
1.40001
1.84171
1.02666
1.80742
1.39964
1.40001
1.84367
1.40004
1.84413
1.76668
1.73483
1.40001
1.40001
1.84179
1.10575
1.01404
1.40001
1.84185
1.40001
1.84148
1.40001
1.65825
1.40001
1.40001
1.84078
1.68648
1.03764
1.40001
1.39859
1.40001
1.40001
1.42629
1.57487
1.84167
1.40001
1.84667
1.40001
1.40001
1.40001
1.40001
1.40001
1.40001
1.46385
1.03988
1.40001
1.40001
1.42679
1.40001
1.40001
1.40001
1.40001
1.40001
1.84132
1.40001
1.40001
1.84203
1.84149
1.71138
1.40001
1.40001
1.40001
1.21981
1.84407
1.7085
1.40001
1.40001
1.40001
1.40001
1.84225
1.40001
1.40001
1.40001
1.83995
1.40001
1.40001
1.7141
1.85544
1.42934
1.12531
1.83907
1.71261
1.8417
1.40001
1.62558
1.40001
1.40001
1.40001
1.01438
1.40216
1.0047
1.40001
1.03157
1.0134
1.40001
1.0382
1.40001
1.40001
1.40001
1.59408
1.40001
1.84102
1.84166
1.40178
1.60698
1.77169
1.01189
1.16344
1.29489
1.40001
1.84185
1.8409
1.8418
1.84153
1.7799
1.28379
1.40001
1.78208
1.40001
1.82317
1.40001
1.40001
1.39643
1.41037
1.40001
1.40001
1.40001
1.83973
1.40001
1.04197
1.40001
1.84304
1.03703
1.40001
1.40001
1.84145
1.40001
1.84131
1.40054
1.40001
1.40001
1.8427
1.78911
1.40001
1.85739
1.40001
1.40001
1.41458
1.40001
1.59421
1.40001
1.40001
1.04048
1.40001
1.40001
1.84381
1.4
1.84383
1.40001
1.40004
1.04022
1.40001
1.40001
1.05068
1.40082
1.40001
1.84076
1.04221
1.84088
1.03562
1.84188
1.40001
1.40001
1.40001
1.40001
1.40001
1.40001
1.40001
1.40001
1.40001
1.40001
1.40001
1.82355
1.40001
1.84298
1.83947
1.04043
1.40001
1.40001
1.40001
1.40001
1.40001
1.40001
1.82977
1.40001
1.40001
1.03817
1.40001
1.40001
1.84111
1.40001
1.40001
1.57244
1.77087
1.03125
1.03313
1.09548
1.14161
1.40001
1.39666
1.038
1.40034
1.80559
1.39686
1.40001
1.40001
1.84262
1.40001
1.40001
1.40001
1.16726
1.40002
1.5654
1.40001
1.40001
1.5811
1.84154
1.40001
1.04486
1.40001
1.40001
1.40001
1.39663
1.40001
1.83963
1.84161
1.40001
1.04117
1.40001
1.63996
1.03561
1.40001
1.2936
1.40001
1.39657
1.01291
1.40001
1.40001
1.40001
1.3957
1.00264
1.40001
1.03884
1.39843
1.63686
1.79359
1.03476
1.02296
1.40001
1.39013
1.40001
1.39864
1.40001
1.84075
1.8432
1.40001
1.41085
1.84238
1.84163
1.40001
1.40001
1.84162
1.40001
1.40001
1.40005
1.40001
1.84463
1.40001
1.40001
1.41902
1.40001
1.39856
1.07874
1.40001
1.40001
1.40001
1.40001
1.40001
1.84426
1.43311
1.40006
1.40001
1.40001
1.40001
1.40001
1.40001
1.40004
1.40001
1.04565
1.48975
1.39861
1.83775
1.83808
1.40001
1.41305
1.84194
1.78234
1.40001
1.40001
1.02242
1.84191
1.40001
1.83973
1.40001
1.84073
1.70148
1.03741
1.40001
1.0311
1.82493
1.39968
1.40001
1.03985
1.00545
1.40001
1.40001
1.77182
1.40001
1.4
1.02276
1.40001
1.40001
1.40001
1.54147
1.40001
1.04078
1.84286
1.40001
1.40001
1.40001
1.40001
1.84235
1.40001
1.40001
1.838
1.79512
1.40001
1.40001
1.40001
1.84665
1.01796
1.40001
1.83977
1.84173
1.40001
1.75433
1.4
1.40003
1.40001
1.40001
1.8011
1.41096
1.40001
1.03656
1.63534
1.40001
1.40001
1.39735
1.40001
1.40001
1.8361
1.40001
1.40001
1.40004
1.40001
1.83883
1.40001
1.40001
1.40001
1.40001
1.40001
1.40001
1.40002
1.60069
1.40001
1.84352
1.40001
1.40001
1.84318
1.40001
1.40001
1.40001
1.84149
1.83835
1.44446
1.40001
1.39752
1.40001
1.40001
1.40001
1.40001
1.83946
1.40001
1.40001
1.8418
1.03893
1.40001
1.40001
1.40001
1.40001
1.40001
1.40001
1.75919
1.40001
1.40001
1.84065
1.84163
1.40001
1.40001
1.40001
1.83932
1.84054
1.40001
1.3997
1.83994
1.40001
1.40001
1.40001
1.40002
1.04786
1.42912
1.3959
1.39582
1.40001
1.40001
1.04479
1.84268
1.40001
1.05391
1.40001
1.8419
1.82292
1.02772
1.39941
1.84176
1.83937
1.84273
1.40001
1.40001
1.32619
1.8029
1.76281
1.0277
1.40001
1.40001
1.40001
1.84234
1.84228
1.034
1.39723
1.40001
1.84139
1.06434
1.40001
1.82916
1.03437
1.37331
1.40693
1.40001
1.83692
1.40001
1.40001
1.40001
1.40001
1.40001
1.40001
1.40012
1.81003
1.40001
1.40001
1.84241
1.40001
1.40001
1.40001
1.84178
1.40001
1.04431
1.40001
1.40001
1.40001
1.55576
1.40001
1.40001
1.40001
1.40001
1.40001
1.19412
1.40001
1.0642
1.40001
1.84222
1.40008
1.25702
1.27217
1.40002
1.40434
1.63491
1.40001
1.40001
1.03392
1.84211
1.84216
1.84172
1.40001
1.03149
1.01897
1.40001
1.84117
1.40001
1.40001
1.40001
1.40001
1.40001
1.40004
1.40001
1.03333
1.68199
1.40001
1.40001
1.03879
1.38731
1.40001
1.40001
1.40001
1.40001
1.01259
1.40001
1.09381
1.40001
1.40001
1.84914
1.40001
1.40001
1.03915
1.40001
1.84219
1.40001
1.01316
1.40001
1.02774
1.40001
1.40807
1.84358
1.856
1.40001
1.40001
1.83926
1.40001
1.40001
1.48951
1.39674
1.40001
1.39829
1.40001
1.84215
1.40001
1.00676
1.40002
1.8394
1.39902
1.40001
1.40001
1.19643
1.40001
1.399
1.0361
1.84372
1.56286
1.40001
1.40001
1.3044
1.40001
1.40001
1.40001
1.19201
1.40001
1.40001
1.40001
1.84159
1.40001
1.03435
1.4
1.40001
1.40001
1.40001
1.03092
1.84189
1.80245
1.03644
1.40001
1.84825
1.40001
1.40001
1.84186
1.83935
1.77355
1.02895
1.39767
1.3993
1.40001
1.84164
1.40001
1.40001
1.40001
1.40001
1.84054
1.40005
1.40001
1.40001
1.83928
1.40001
1.40001
1.84181
1.04006
1.40001
1.40001
1.40001
1.03522
1.40001
1.4
1.4
1.39865
1.40001
1.40001
1.40001
1.40001
1.74291
1.40001
1.84059
1.84101
1.85067
1.84101
1.84086
1.84161
1.40001
1.8418
1.40001
1.84204
1.84141
1.40001
1.39882
1.04196
1.77931
1.39991
1.40001
1.40001
1.40001
1.40001
1.3922
1.40001
1.47387
1.40001
1.40001
1.40001
1.25036
1.84179
1.84073
1.84939
1.77862
1.39988
1.40001
1.42232
1.84174
1.39791
1.45594
1.39749
1.02944
1.40001
1.40003
1.40001
1.40001
1.40001
1.40001
1.40001
1.8423
1.04191
1.84182
1.8416
1.39578
1.04082
1.40001
1.40001
1.40001
1.84118
1.02779
1.78827
1.0285
1.84204
1.84656
1.02723
1.83881
1.42251
1.40001
1.84412
1.18925
1.40001
1.39872
1.04455
1.40001
1.04955
1.40001
1.84152
1.84163
1.13599
1.40001
1.84066
1.03452
1.40001
1.03436
1.40001
1.84141
1.40001
1.40001
1.83935
1.40001
1.24474
1.40001
1.39965
1.05161
1.84163
1.39949
1.40001
1.00095
1.40001
1.40001
1.40001
1.40001
1.63002
1.40001
1.84143
1.40001
1.40001
1.85101
1.40001
1.40001
1.84008
1.40001
1.04809
1.40001
1.01911
1.40002
1.40001
1.40001
1.40001
1.40001
1.82235
1.65507
1.84198
1.40001
1.84198
1.81058
1.0126
1.04473
1.40001
1.40001
1.84006
1.40001
1.05095
1.40001
1.38324
1.40001
1.40001
1.84198
1.40001
1.84632
1.04104
1.85483
1.40001
1.04472
1.40001
1.40001
1.8449
1.84037
1.40001
1.40005
1.40001
1.84017
1.40001
1.40001
0.993365
1.39943
1.036
1.40001
1.40001
1.40001
1.84336
1.84189
1.84078
1.40001
1.40001
1.0509
1.40001
1.8447
1.40001
1.40001
1.40001
1.82499
1.84234
1.84105
1.05666
1.84204
1.84161
1.05818
1.8414
1.40005
1.05312
1.41315
1.40001
1.40001
1.84255
1.06239
1.68344
1.05901
1.84155
1.39725
1.03752
1.84295
1.40001
1.40001
1.40001
1.40001
1.84232
1.8387
1.02418
1.40001
1.40003
1.03922
1.40004
1.40001
1.04161
1.01901
1.71255
1.84235
1.39848
1.84184
1.40001
1.84669
1.21417
1.03897
1.84159
1.85229
1.40001
1.84123
1.40001
1.40001
1.84188
1.40001
1.73671
1.84079
1.40001
1.40001
1.40001
1.40001
1.84153
1.83645
1.8407
1.40001
1.40001
1.84093
1.8383
1.84097
1.40001
1.84157
1.40001
1.40001
1.40001
1.40001
1.40001
1.04047
1.24726
1.03195
1.40001
1.40001
1.84057
1.40001
1.40001
1.83819
1.03798
1.40001
1.84195
1.83665
1.82285
1.01803
1.40001
1.0616
1.40001
1.40003
1.83951
1.6061
1.83909
1.80283
1.40001
1.00572
1.40001
1.83971
1.71766
1.02665
1.40001
1.40001
1.40001
1.17522
1.40001
1.40001
1.84556
1.40001
1.02751
1.84181
1.40001
1.40001
1.40001
1.40001
1.40001
1.7587
1.501
1.40001
1.84065
1.40001
1.84248
1.40001
1.39793
1.40001
1.84087
1.84849
1.84178
1.84332
1.39958
1.84006
1.40001
1.84154
1.84057
1.7751
1.40001
1.40001
1.04801
1.83959
1.40001
1.40001
1.84418
1.84109
1.84498
1.40001
1.84145
1.40001
1.40001
1.40004
1.84637
1.84287
1.52459
1.49782
1.84214
1.84352
1.09432
1.40001
1.40001
1.40001
1.40001
1.40001
1.55858
1.40001
1.40001
1.77705
1.04007
1.39998
1.40001
1.84215
1.39989
1.39982
1.46855
1.80897
1.83838
1.30703
1.40001
1.01317
1.40001
1.39455
1.84184
1.84518
1.83058
1.399
1.40001
1.40001
1.03037
1.40001
1.40001
1.84216
1.44762
1.40001
1.40001
1.40001
1.40001
1.40001
1.40001
1.40001
1.39995
1.83956
1.40002
1.40001
1.40001
1.40001
1.40001
1.68488
1.40001
1.61046
1.40001
1.40001
1.84173
1.85016
1.03535
1.39878
1.40001
1.4
1.40001
1.0275
1.84137
1.84176
1.40001
1.40001
1.40001
1.40001
1.40001
1.40001
1.40001
1.40001
1.84149
1.83752
1.0347
1.4469
1.03606
1.40001
1.02517
1.40001
1.84161
1.50981
1.40001
1.40001
1.11687
1.40001
1.82456
1.18906
1.39678
1.0337
1.40001
1.40001
1.83765
1.40005
1.39718
1.02124
1.84155
1.84427
1.40001
1.40001
1.40001
1.40001
1.81252
1.40001
1.40001
1.84196
1.399
1.84064
1.40005
1.40001
1.40001
1.04524
1.40001
1.40001
1.84241
1.02572
1.1639
1.02955
1.8424
1.39933
1.40001
1.8448
1.03459
1.03308
1.4109
1.40001
1.40001
1.83993
1.40005
1.59955
1.40001
1.40001
1.83947
1.03437
1.40001
1.40001
1.40015
1.84057
1.40008
1.83675
1.40001
1.40004
1.40001
1.40001
1.13653
1.40001
1.18417
1.40002
1.40001
1.8442
1.0451
1.40001
1.18059
1.17445
1.40001
1.40001
1.84129
1.40001
1.40001
1.40001
1.84235
1.84104
1.40006
1.82784
1.83987
1.1784
1.84153
1.82072
1.40001
1.40001
1.84373
1.4
1.40001
1.40001
1.40001
1.40001
1.8476
1.84241
1.40001
1.40001
1.40001
1.84169
1.40022
1.40001
1.03766
1.13039