/*--------------------------------*- C++ -*----------------------------------*\
  =========                 |
  \\      /  F ield         | OpenFOAM: The Open Source CFD Toolbox
   \\    /   O peration     | Website:  https://openfoam.org
    \\  /    A nd           | Version:  12
     \\/     M anipulation  |
\*---------------------------------------------------------------------------*/
FoamFile
{
    format      ascii;
    class       volScalarField;
    location    "1.2";
    object      p;
}
// * * * * * * * * * * * * * * * * * * * * * * * * * * * * * * * * * * * * * //

dimensions      [1 -1 -2 0 0 0 0];

internalField   nonuniform List<scalar> 
46253
(
0.957453
1
1.16678
1
1.16116
1.15689
0.981152
0.862667
1
1
0.958424
0.85107
0.999992
0.999995
1
1
1
1
1
1
1
1.14781
1
0.944329
0.995698
1
1
1
1
0.849093
0.99785
1.00038
1.00014
1
1
1
0.999998
0.999996
0.960294
1
0.995357
0.853992
0.999998
1
0.834046
1
0.999999
1
1.00835
1.0194
1.02632
1.02398
1.12845
1.05998
1.1805
0.884408
1.04111
1.04163
1.06946
0.997953
1
1.00015
1
1
1
0.999993
0.99999
1.13957
0.879215
0.840177
0.978479
1.04162
1.04343
1.00759
1.11908
0.944591
1.0848
1.08495
1
1.00133
1.00602
1.04785
1.13145
1.05696
0.996051
1.10688
1.0839
1.08444
0.884701
1
1
0.995892
1.10622
1.03404
1
1.04178
1.09215
1
1.06787
1
1
1.06412
1.10967
0.995656
1.17757
0.996745
0.855483
1.0805
1.08
0.859204
1.00803
1.04625
1.04496
1
1
1.11296
0.816371
0.99857
1.18964
0.891813
1
1.15273
1.0629
1.06156
0.999964
1.19795
1
0.880944
1.20222
1.0856
1.07479
1.07447
1.15216
0.97485
1.08552
1
1.08446
1.08445
0.883084
1
1.08474
1.07078
1.07074
0.990075
1.08298
1.1925
1.08393
1.08369
0.965995
1
0.857885
1.12562
1.08549
1.08499
0.971354
0.838399
0.878367
1
1.08407
1.17559
1.08361
0.85129
0.88715
1
0.998997
1.08416
0.975065
1.08413
1.30517
1
1.08256
1.08214
1.14293
1.01957
1.17167
1.05259
1.00581
1.06041
1.0083
0.816817
1.17216
0.969
1.08149
1.0811
1
1.0841
1.08442
0.828073
1
1
1.12277
1
1.00064
1
1
1
1.01207
1
1.04498
1.04429
1
1
1.08308
1.08321
1
0.827893
0.965391
1.07832
1.078
1
1
1.19073
1.00791
1.10712
0.99276
1
0.986905
1.0417
1.07607
1.14296
1.1358
1.07565
1.05308
1.08175
1.08194
1.01993
0.999999
1.00087
1.03546
1.03535
1.03591
1
1
1
0.999978
1
1
1
1.03446
1.04715
0.999979
1.02858
1
1
1
1.11435
1
0.965078
1
1.07212
1.07154
1.04443
1.02685
1
1.02653
1.07895
1.07878
0.882743
0.995989
1
0.939487
0.997842
0.858822
0.992099
1.00416
1
1
1
1.07717
1.0686
1.0769
1.00087
1
1
1.06788
0.999993
1.18721
1
1.07766
0.896751
1.01825
1.01768
1.11451
1.10715
1
1.00083
0.999639
0.89194
0.983779
1
1.06356
1.06301
1.04076
1
1.05798
1.01554
1.00654
1.01324
1.003
1.06521
1.18073
1.06452
0.881622
1.17938
1
1.07343
1.07298
1
0.991346
1
1
1.01382
1
1.06232
1
1.06195
0.870834
1.05583
1
1.08533
0.866951
1
0.98135
0.994191
0.938465
0.981291
1
1
1.05967
1.05912
1.00057
1.00038
1
1
1
1.0004
0.881761
1.0697
1.06926
1
1.12859
1.1227
1
1.19173
1
1.05595
1.05511
1
0.877669
1.02617
1.02898
1
0.815255
1
0.851078
1
1.06675
1
1.0664
1
0.850313
1
1
1
1
1
1
1
1.05284
1
1
1
1
1.05278
1
1.05115
0.882291
1.00001
1
1
1.03704
1.00271
0.874246
1.06344
0.918913
1.06317
1
1
1.04949
1.21923
1
0.983883
1.04874
1.00025
1
0.892184
0.959021
0.959592
1
0.983448
1
0.98193
0.980452
1.05069
0.999982
1.09814
1
1
1
1
1
1
1.16016
1
0.986178
1.09351
1.00055
1
1
0.884056
1.09417
1
1.04634
1
1.06106
1
1
1.0458
1.06067
1
1.0151
1
1
1
1
0.963749
1.1573
1
1
1.04471
0.86876
1.09946
0.999646
1
0.967052
0.973917
1
1
0.886438
1
0.898119
0.985487
1
1.00065
1
1.09561
0.987441
1.09494
1.05802
0.962575
1
0.961074
0.961458
1.05769
1
0.959572
1.06136
1
1.09474
1
1
1.00226
1
0.981625
0.883963
1.04117
0.900449
0.964134
1.04046
1.00385
0.968097
0.96729
1
0.999993
1
1
1.20758
1
0.905452
1.04262
0.846712
0.90678
0.964824
0.99883
0.964081
1
1
1.05392
0.983821
0.85995
1.05353
1.03694
1.03644
0.964021
0.996043
1
0.962599
0.994574
1
1
1
0.996822
1.09473
0.922648
1.00028
1
1
0.973994
1
1
1.00019
1.14218
0.98419
1
1
0.985412
1
0.985237
0.99404
0.986134
1
0.962666
0.975951
1
0.96223
0.98556
1
1
1.05165
1
0.934999
0.898858
1
1
1.05134
1
1
1.07125
1.07064
0.851538
1.07332
1.07351
1.03202
0.895363
1.03063
0.998002
1.07527
1.07599
1.07437
1.07411
1
1.09822
1
0.963734
0.854796
1
1
1
1.09163
1
1
0.938119
0.985584
1
0.9791
1
1
0.879216
1
1
1
1.04768
1
1
1.04733
0.975578
1.01687
1
1.01911
1.0197
1.02252
1.12158
1
1.0284
1.02826
0.982761
0.953563
1
1
1.00721
1
1.18072
1.01175
1.09304
1.18236
1.1
1
0.99067
0.994936
1
1
0.869519
0.964053
1
1
0.953265
1.07191
1.07173
1.0688
1.06986
1.06711
1.06795
1.06414
1.06399
0.841689
0.966641
1.06037
1.00206
1.06132
1.05744
1
0.943745
0.946483
1.05813
1
1.05417
1
1.05459
1
0.971559
1.04989
1
1.05038
1.12265
1
1.04628
1
1.04741
1
0.833701
1
0.892029
0.945647
1
1
1.04331
1.04356
1
0.980075
1.03843
1.03868
0.95277
1
1
1.03257
1.02324
1.03266
1
1.04266
1.02849
0.874126
1.02989
1.02243
1.04216
1
1
1
1.0259
1.02605
1.10557
1
1
1.02108
0.910904
1.02086
0.866905
1
1.01567
1.01515
1
1
1
1.00137
1
0.985942
0.977633
0.999882
1
1.00997
1
1.00983
1
1
0.987899
0.988511
1.00539
1.00567
0.960749
0.992458
1.00227
0.992928
1.00264
1
0.96045
0.996827
0.996824
1
0.889957
0.992236
0.992236
1.27257
1
1
1
0.988288
0.963842
0.989105
1.07837
0.953065
0.96055
0.861104
0.985394
0.985739
0.977698
0.981851
0.981469
0.87815
0.87883
1.07462
0.972086
1.19046
1.01969
1
0.866362
1.01967
0.879803
0.941226
0.936044
1.07382
1.07516
1.0746
1.03933
1
1.07479
1
1
1.07474
1.03832
1
1.07536
1.07556
0.89417
0.901954
1
0.957099
1.01489
0.954464
1
1
1
1.09821
1
1.00246
1
0.965525
1.09422
1.01646
0.999664
1.01871
0.877183
1
0.999801
0.995029
1.02193
1.09657
1
1
1
1
1.0205
1.01832
1.00222
0.936698
0.935633
1
0.891327
1
1
1.0205
0.976721
1.09766
0.920658
1.0972
1.09778
0.958708
0.962767
1
1.02198
0.87419
0.959389
1
0.963604
1.01431
1
1.09784
0.960388
0.973993
1.09578
1.01345
1.12517
1.10035
1
1.03761
1.0378
0.9662
1
1.11642
1.11673
0.995755
0.999729
1
0.983943
0.891441
0.865001
1.11698
1
1
1
1.01982
1.02017
1.07181
1.10252
1
1.03436
1.01371
1
1.10325
1.01442
1.03389
0.964744
0.962032
1
0.962919
0.984082
0.868098
0.964958
0.874852
0.999398
1
1
1.00027
1
1
0.971467
0.967115
1
1.01035
0.907631
0.979749
0.891701
0.880864
1.01023
0.888067
0.897109
0.872342
0.872061
1
1.10198
1.11416
1.10304
1
0.962653
0.910135
0.889236
1
1
0.98498
1
0.985322
0.985425
1.09583
1.09625
0.974213
1.09549
1
1.09572
1
0.968803
0.991533
1.02409
1.10824
1
1.02961
1
0.970365
0.969666
1.02927
1.09793
0.964544
0.961292
0.965785
1
1
1
1
0.963652
0.985097
1
0.950302
1.0954
0.886566
1
0.89854
0.951055
0.976778
1
1.00714
1.00625
0.998821
1.15376
1.07295
0.887965
1.02019
1.0249
0.887898
1.07395
1.07481
0.959679
1.07418
1
1
0.989936
0.827963
0.982906
0.957978
1
1.07479
1
1.07541
1
1.07253
1.22317
1.07262
0.955504
0.873309
0.877058
0.941964
1.05758
1.09395
1.09674
0.890179
0.947781
0.951807
1.1253
1.04886
1.05193
1.05547
1.04427
1.04919
1
1.00548
1.05292
1.05917
1.04463
0.96268
1.05613
1.03073
1.04045
1.05944
1
1.06267
1.04173
1.06347
1
1.03446
1.06669
1.06478
1.06583
1.03583
1.06855
1.07009
1.03177
1.06836
1
1.07092
1.03194
1
1.02677
1.07175
1
1
1.00226
1.02673
1
1
1
1.02251
1.02292
1
1
1
1.02389
1.00171
1.0871
1.01657
1
0.925527
1.01759
1.01099
1.01148
0.871787
1.00743
1.00829
1.00411
1
0.944395
1.00406
1
0.997953
0.950022
1
1
0.997863
0.896402
1.08648
0.993937
0.994958
0.99097
1.02529
0.991063
1.07215
0.987067
1
0.975053
1.02434
0.986825
0.954366
0.943255
0.963792
0.98271
0.971798
0.971907
0.931263
0.983068
0.979317
0.980275
0.955615
1.08097
1.11278
1
1.07877
1
1.06235
1.07245
1.04834
1
1.19565
1.10555
1
1.00778
1.00417
0.983113
0.985861
1
0.834043
1.02565
1.02956
1.15605
0.974551
1.02254
1.02707
1.02328
1.01619
1.00357
0.876951
0.98435
0.960912
1
0.936844
0.907872
0.879301
0.947249
1
1.04626
1.01715
0.844005
1
0.997534
0.996358
0.935392
0.996635
1
1.07182
1
0.909021
0.947194
0.835385
1.02182
0.952524
0.956124
1.01832
1.02121
0.936022
1.02105
0.973775
1.045
0.846287
0.904919
1.03341
0.926833
1.02895
0.976688
1
1.02842
1.05874
0.91468
0.944563
1
1
1
0.977493
1.10044
1
1
1.04234
0.946196
0.873892
1
0.996072
1
0.976421
0.917889
1
1
1.13208
0.876253
1.06876
0.874851
0.994099
0.994375
1.18501
1.02926
0.986901
1.09377
0.95532
1
0.95278
0.99438
1.00848
0.905836
1
1
0.934412
1.00465
0.971911
0.963186
0.989335
0.989695
1
0.993811
0.970929
0.962107
0.961609
0.87416
0.954697
1.09233
0.916353
0.882891
0.965688
0.859468
0.966922
1.01751
1
1
1
0.91011
0.966094
1
0.965054
0.965634
1.024
0.93975
0.88649
0.964505
1.05427
0.930717
1.04312
1
1
0.92247
1.04949
1
1
1.08933
0.958386
1
0.958713
0.849987
1.00299
0.996057
1
1.0911
0.981421
1
1.08198
0.969
1.07615
1.08314
1
1.02595
1.07691
0.971524
0.965696
1.04013
1
0.994723
1.06874
1.05574
0.926641
1
1.03816
1.06953
1.06065
1.10418
0.979872
1.11445
1.10618
1.10958
0.880101
1.0617
1.10882
1.04656
0.997394
1
1.09066
1.00081
1.05269
0.99037
0.945852
1.06167
1.01665
0.869694
1.07184
1.05302
1.05385
1.11311
0.990625
1
1.01419
1.01664
1.04553
1.02114
0.999992
1.0445
0.999991
1
1
1.04593
1.00162
1
0.910111
1.00376
1.00082
0.911122
1.04575
0.989756
0.963446
1.03007
1.00274
1.09039
0.99067
1
1.02662
1
1
1
1.0037
1.04702
1.04774
1.0481
1
1
1.00746
1.00161
1.08296
1
0.943601
1
1.04727
1
0.974246
0.901494
1.01737
1.04921
1.07008
0.99516
1.04912
1
1
1.02781
1.0502
1.02126
1.05043
1.05941
0.893396
1.02699
1
1.04944
1
1
1.04967
1
1.06724
1.06555
0.98452
1.05921
1
1
1.04938
1.0495
0.88112
1.0486
1
1.04892
1.0157
1
1.0472
1
0.943885
0.944957
0.901794
1.03769
0.882619
0.936824
1
1.04751
0.950421
0.94849
1.01809
1.02264
0.863198
1.02334
1.01655
0.949247
1.02151
1.0218
0.986456
1.03652
1.04576
1.02001
1.03993
1.01904
1.04405
1.04591
1.01998
0.985307
1.02251
1
0.959014
1.02185
1.04448
1.05029
0.901743
0.992096
1.02089
1.04108
1.0115
1.04228
1.00547
1.04254
0.901776
1
1.02396
0.867942
1.01068
0.988835
1.04105
1.02239
1.10595
1
0.998308
1.0527
1
1
1.10693
1
1
0.944011
0.886716
1
1.03778
1.03593
1.03829
1
0.894001
1.02984
1.02318
1.02266
1.0089
1.03612
1.0616
1.05611
1.03823
0.892245
1.03983
1.03452
1.0327
1.03464
1.03059
1
0.894508
1
1.00418
1
1.09095
1.00587
1.03098
1.02201
1.09656
1.02216
0.985953
1.02396
1.01593
1.23498
0.907347
1.04512
1
1.02838
1.02802
1
1.07222
1
1
1
1
1.08138
0.917205
1
0.983444
1.07879
0.888222
1.05122
1.04647
0.892651
1.02452
0.866183
1
1.05846
0.983293
0.899857
1.08108
0.954672
1.03969
0.999999
1
1.0654
1.09917
0.898581
0.883353
1.00625
1
1.08082
1.1077
0.942195
0.961833
1.03915
1.09578
1.13547
1
1.08358
1.03958
1
1.0225
1.02242
0.974502
1.06233
1.01688
1.02075
1
0.987656
1.02057
1.04325
1.03201
0.999998
1.06339
1.08294
0.999999
0.982238
1.01789
1.04684
1.05757
1.08033
1.0638
1.06949
1.03826
1.08181
1
1.01708
1.01699
1.04992
1.00947
1
1.01854
1.05018
1.05048
1.01254
1.0384
1.0284
1.01388
1.00053
1.01377
1
1.07984
1.00872
1.0413
1.06673
0.891967
0.85917
0.946582
0.933895
0.944014
1.087
0.982556
0.935427
0.958966
1.08443
1.01297
1.07686
1.08916
0.951302
1.03411
1.00417
0.897414
1.08348
1.08107
0.959699
0.958312
0.970947
1.08372
1.00669
0.944502
1.00703
0.996019
1.00747
0.946884
0.994814
1.04666
1.08355
1.04685
1.08376
0.993427
1.00588
0.994568
0.983234
1.06916
0.896377
1.02195
1.08155
0.902861
0.978801
0.877408
1.07379
0.907374
1.01808
0.999977
1.07361
1.08644
1.01025
0.949947
1
0.998598
1.00505
1.04135
1.05193
1.08282
0.972634
1
0.835254
0.900922
0.978005
0.856828
1.08604
1
1.08716
1.02841
1.00793
1
1.052
0.975644
1.04272
1.04029
0.979969
1.03256
0.908067
0.952396
1.02224
1.04048
1.06886
1.03406
1.03213
1
1.0246
1
0.961364
1.06456
1.03116
0.888252
1.054
1.01559
1
1.06218
1.03324
0.980253
1.0815
1.00573
1.03371
1.03343
1.19853
0.957324
1
1.03259
1.07078
1.03411
1
1.02944
1.0325
1
1.03297
1.02966
1.07907
1.09954
1.02742
1.03277
0.918019
1
1
1.02752
1.03062
1
1.02749
0.976259
1.03199
1.03625
1.0363
0.965235
0.897885
1
1.01932
1.09412
1
1
1.04129
1.09258
1.04022
0.977587
1.02685
0.849008
0.850491
1.02354
0.920744
1.02783
1.02454
1.02466
1.05391
1.05689
1.02489
0.993962
0.977046
1.01185
1.01006
0.952463
0.830374
1.03245
1.08109
1.02146
1.09478
1.0218
1.03847
1.0938
0.878412
1
1.02381
1.01244
0.948048
0.898247
1
1
1.063
1.06105
0.897168
0.989925
1
1
0.989162
1.01283
1.00523
1.00024
0.999996
1.00064
1.01434
1.01829
1.0659
0.984942
1.01664
1.00077
1.01318
1.08521
1.01581
1.00465
0.884745
1.03323
1.0617
1.02064
1.14595
1.01593
0.963236
1.00985
0.924193
1.00931
1.01601
0.934086
0.930267
1.14999
0.999999
1.00218
1.0815
1
0.92131
0.927151
0.935423
0.92934
1.06592
0.980328
1.08015
1
0.933432
1.01039
1.00011
0.888853
0.957425
0.999544
1.05084
1.02979
1.01128
0.942186
1.01779
1.00095
1.0948
0.877221
1.00198
0.942498
1.00945
0.955548
1.09342
0.96344
0.962615
1
1
0.965316
0.942788
1.07071
1
1.07598
0.942884
1
1.00623
0.884169
0.892861
0.908688
1.00171
1.00518
0.987268
1
0.899113
0.905882
1
0.874915
1.04862
0.986328
0.967698
0.985748
1
1
1.0089
0.936963
1.01385
0.88311
0.882778
1.09249
0.900334
1.04967
1
1.02354
1
1
1.01738
0.959919
0.993268
1.01327
1.07911
1.04214
1.0098
0.913344
1.04784
0.903627
1.05229
0.943639
1.04955
1.01134
1.04786
0.882125
0.93357
1.04672
0.905694
1.05017
1.04744
1.03212
0.902131
0.888259
0.881231
1.03422
1.02438
0.910809
1.04373
1.04501
1.05011
1.03261
1
1.04908
1.04996
0.969346
1.04772
0.949213
1.04774
1
1
1.04268
1.00002
1
1.04951
1.04827
1.00873
1.04923
1.04626
1
1.04915
1.07139
1
0.957727
1.01735
1.04161
0.999995
1
0.973166
0.862055
0.909127
1.00019
1.04627
1.0453
0.957135
1.07499
1.00272
1.03162
0.999995
1
1
0.977153
1.03117
1.04307
1.00262
0.979266
0.90416
1.03169
0.97292
0.901081
0.950563
1.03684
1.01536
1.04171
0.970126
1.04347
0.972405
1
1.07539
1.01526
1.01929
1
1
0.990091
1.01377
0.913061
0.950723
1.01315
1.03912
1
0.908145
1
0.965058
1.01468
1.0134
0.997999
0.879008
0.91186
0.961467
1.03712
0.97854
1.03955
0.974502
1
0.997152
0.980643
0.884411
1.03177
1.0652
0.965285
1
1
1.05456
1.0352
1.00212
1.02573
1.0951
0.976204
0.870954
1.07349
1
1.00092
0.984799
1
1.03521
0.935884
0.871292
1.03231
1.06982
0.980279
0.975388
1.02872
0.9722
1.00313
0.999978
1.01029
1.0072
1.02855
0.963771
0.999976
1.01232
0.976329
0.989507
0.980754
1.02642
0.990741
1.0028
1
1.01144
1.00059
1.00231
1.01636
1.01253
1.00042
1.09293
1.01436
1.03863
1.01435
1
1.02186
1.0194
1.05926
0.979944
1.01496
1.02027
1.06679
1
0.999939
1.07978
1.03281
1.0623
1.01165
0.945694
1.08129
1.02128
1.08515
1.02173
0.922664
0.997974
1.02956
0.974469
0.942896
1.04293
1.02313
0.953674
1.04746
1
1.02139
1.01986
1.04291
0.986122
0.887165
0.950863
1.00365
1.0231
1.08258
0.962435
1.02238
1.01409
1.04372
1.0149
0.958476
1.00465
1.16946
1.00429
1
0.999999
1.04382
0.950812
1.00315
1.01504
1.00449
1.01351
1.06676
1.04393
1.07578
1.09513
1.03213
1.00649
0.902137
1.04395
0.986205
1.07383
0.99663
1.00662
0.980501
1.00882
1.08544
0.985383
0.98804
1.02307
1.00955
1.00602
0.977851
1.04544
1.08291
1.07049
0.975571
1.04558
1.01279
1.08327
1
1
0.979202
1
1
0.938091
0.882789
0.995239
1.00777
1.02501
1.07208
1.0711
1.00002
0.966756
1.07124
0.921328
1.09238
0.903733
1.00454
1.01002
0.848634
1.00588
0.883796
1.04522
0.866567
0.922647
1.01332
0.890439
1.03367
1.04538
1.00321
1.07187
1.02569
1.02797
1.0817
1
0.982088
1.07889
0.989415
1
1.00042
1.01876
1.0293
0.986825
0.978139
1.04496
0.891331
1
1.04482
1.03108
1.1011
0.983197
1.04493
1.04994
1.00247
1.03369
1.07588
0.994069
1.03299
0.957892
0.96891
1.00635
0.9709
0.997806
1.0442
1.06355
1.03394
1.00602
1.03243
1.08013
0.931187
1.03342
0.938119
1
1.04442
0.985025
0.999749
0.923253
0.965443
0.955773
0.964842
0.970134
0.889426
0.985678
0.975615
0.898084
1
1.00857
0.991363
0.926077
0.998816
0.934649
1.04316
1
1.02865
1.02558
1
1.07733
1
1
1.04345
1.04765
1.02399
1.05135
0.926188
1
1.03054
0.999092
1.00451
1.02269
1.02635
0.975536
0.983622
0.996596
0.914789
1.05982
1
0.94409
1.02336
1
1.00002
0.956471
1.01051
1.0248
1.04235
0.9789
1.0158
1.08122
1.05887
1.07145
1.0594
1.01455
1.01907
0.979611
1
1.01868
0.915334
1.08072
1.04244
0.942006
1.01609
1.00348
1.01687
1.0211
0.908293
1.00884
1.05745
1.0179
1.0273
1.02081
1
1.06505
1.01494
1.02506
0.973359
1
1.07581
1.06332
1.01372
0.909121
0.844509
1.08612
1
1.04054
1.103
1.03452
0.893257
1.01214
1.02945
1.03115
0.98353
0.846749
1.04068
1.0279
0.893902
1.00966
1.00211
0.895556
1.06009
1.00647
1.0121
1.00173
1
0.948243
0.991752
0.973678
0.927574
0.995153
1.0388
1.09433
0.903117
0.976224
1.01496
0.976503
0.892486
1.03075
0.898688
1.03799
0.996132
0.987577
1.02056
0.989432
1.02553
1.04245
1.07078
0.996489
1.03665
0.989093
1.02775
0.987601
0.884172
0.908723
1.05417
0.909622
1.07205
1
0.977518
1
0.906742
1.06439
1
1
0.910489
1.04991
1
0.95264
1.01179
1.09391
0.95995
1.07275
0.843777
1
0.940396
0.912898
1.07543
0.900886
0.972213
1.07527
0.973058
0.979824
0.984301
1
1.03874
1.02732
1.0734
1.01817
1.05123
0.943922
0.974408
1.03988
1.07405
1.04026
1
0.979625
0.836605
1.07132
1.04557
1.04756
0.992639
0.940868
1.07148
0.950672
0.99438
1.04578
0.949574
1
0.913445
1.09486
0.932417
0.866527
1.0761
1.06929
1.00003
0.933791
1.07256
1.00097
1.06929
1.03032
0.98897
1.08293
0.96897
0.96996
1.04499
1.04673
1.08218
1.06701
1.03315
1.05787
1.04373
1
1.04521
1.06737
0.986956
0.913453
1.05067
1
1
1.04875
1.06492
1.05301
1.00966
1.05137
1.06515
1.08493
0.931068
0.969771
1.0036
1.06283
1.00146
0.945931
0.94449
1.06005
1.06311
1.04218
1.02157
1.08241
1.07568
1.05709
0.913226
1.05991
1
0.9696
0.978613
1.05511
0.995636
0.979655
1.02218
0.919969
1.06066
1.0224
0.96842
1.00296
1.07131
0.970351
0.994829
1
1.00401
0.997083
0.941502
1.00358
1.0227
1.01959
1.05814
0.969307
1.06491
1.06308
1.08117
0.913998
1.06776
1.05657
1.08147
1
0.974726
1.07484
1.06216
0.998343
1.05731
0.99893
1.08148
1.00216
0.987056
0.972793
1.04159
0.976289
1.00293
1.05414
1.03041
0.949326
1.06031
1.08257
0.923019
0.950953
0.975267
1.0419
1.05433
1.07814
0.936533
1.00462
0.978055
1.06723
1.03506
1.02302
1.07
0.978369
1
0.957198
0.979651
1.01046
1.22101
1.01326
1.0919
1.05075
1.01232
1.06831
1.04131
1.083
1
1.03227
0.978435
1.05182
1.10779
0.95284
0.983145
1.01594
1.04048
0.955449
1.07896
1.13591
1.0831
0.828751
0.982382
1.04804
1.04859
0.922294
1.00591
1
1.07215
1.06043
1
1.00025
0.986126
0.921813
1.06536
1.07505
0.985546
0.971911
1.04208
0.988809
1.02053
0.90991
1.08149
0.970326
1.04271
0.916922
0.911482
1.02124
0.987616
0.982946
1
0.996107
1
1
1.09783
0.915482
0.936057
1.07488
1.03988
1.09436
0.916059
1
1
1.04064
1.10008
1.09473
1.01109
0.994214
1.1095
1.07125
0.980744
0.992811
1
1.08157
1
1.02452
0.995886
1
0.995719
1.03331
1.04781
0.989253
1.03506
1.07408
0.994614
1.06095
0.999986
1.08391
0.996662
1.03139
1.03196
0.999969
1.01075
0.995992
0.999613
1.08178
1.008
1.00849
0.995879
1.00699
0.903699
1.00159
0.999987
1
1.0804
1
1.08362
1.02601
1
0.926723
0.999973
1.03656
1.03247
0.980276
0.999981
1.02662
0.827221
1
0.895194
1.01739
1.08419
1
1.03277
1.03902
1
1.04392
1.00588
1.00847
1.00557
0.92351
1.00477
1.0108
1.02514
1
1.03554
0.898215
1.03339
1.04345
1.00316
1.00363
1.00107
0.935671
1
1.00802
1.04484
0.935291
1.00002
0.882119
1.04416
1
0.965373
0.833083
1.032
1.07267
1.08617
1.00705
1
0.925206
0.906284
1.0079
0.830263
1.04358
1.01153
1.08341
1.00384
0.903898
1.09582
0.925119
1.0454
0.987901
1.00663
0.940136
0.939073
0.965421
1.0449
0.970378
0.935751
1
1
0.882699
1.00759
1.04494
1.07081
1.01293
1.04487
1.04564
1
1.01204
1.09671
0.912306
1.01425
1.04464
1.03392
0.943184
0.903671
0.902524
1.04027
1.04498
1.02112
1.01321
0.942576
0.989153
0.973467
0.884865
0.957684
1.0438
0.906799
0.877044
0.999999
1.04573
1.07196
1
1.03366
1.01582
1.04484
0.973944
1.07941
1.08551
0.956497
1.02125
1
1.04263
1.07214
1.01923
1.04677
1
1.15995
1.07171
1.01503
1.06013
0.967924
1.0155
1
1.04398
0.994778
1.01808
1
0.834949
1
1.05018
0.952641
1.19563
1.01903
0.950051
1.01992
1.02077
1.03793
0.899007
1.05268
1.0409
1.04275
0.957108
1.01807
1.01999
1.01986
1.03875
1.01378
0.910921
1
1.03418
1.07938
1.09284
0.922135
1.02115
1.0236
1.01616
0.975451
0.970672
1.113
0.966039
1.01432
0.964353
0.936219
0.911299
1.04108
0.960156
0.92325
1
1.02876
1.02253
1.07573
1.00054
1
1.01997
0.924417
1.00473
1.03011
0.969063
0.999999
1.02606
1.04002
0.999875
1.02379
1.02313
1
1.09338
1.02028
1.02525
1.06585
1.02492
0.999232
1.07447
1
0.907098
1.02314
0.920408
1.03981
1.07568
0.95743
0.960167
0.954679
1.13965
1.05571
0.960908
0.997621
1.06349
0.992675
1.0269
0.985079
1
1.02955
1.04916
1.05173
1.02617
0.910451
1.05973
1.07456
0.95837
0.918733
0.993932
1.00535
1.04334
1.0117
0.974451
0.951065
0.979192
0.979043
1.02887
1
1.07449
1.02582
1.07207
0.951655
0.92105
1
1.06763
1.00439
1.12112
1.07169
1.03661
0.907407
1.00126
1.05198
0.919919
1.0747
1.0701
0.968082
1.04342
1.06014
0.96723
1.02907
1.02664
1.00044
1.01194
1.00876
1.07251
1.06847
1.03357
1.0014
1.07503
1.03335
1.06844
1.01229
0.968705
1.03182
1
1.02817
1.07031
1.00758
1.06591
1
1.03264
0.913701
1.07802
1.12459
1.06864
1.06397
1.01162
1
1.07605
0.922265
1
1.06611
1.03558
1.06145
1
1
1.01008
1.06404
1
1.03476
1
1.05822
1.03118
0.906666
1
1.06189
1
1.05524
1.03556
1.08778
0.970514
1.03778
1.0591
1.05296
1
1
1
1.01647
1.03708
0.928645
1.05576
0.989063
1.04903
1.0356
1.00571
0.966438
1.03852
1.08831
1
1.02628
1.0131
0.967181
1
1.01534
1.03958
1
1.05335
0.9398
0.979992
0.941254
1.04006
1.09776
1.04363
1.03488
1.01494
0.926288
1.0497
1.00105
1.11669
0.999847
0.977417
1.01989
1
1.12189
1.0394
0.920082
1.0413
1.06447
1.00478
0.982385
0.916683
0.896984
1
1.04448
1.03795
1.00638
1.01827
1.02604
1
1.00465
1.03607
0.993771
1.04217
1.04134
1.01228
0.999999
1.03726
1.03201
1.00504
1
1.00625
1
1
1.00219
1.04144
1
1.03706
1.05553
1.00686
1
0.911192
0.994743
1.04041
1.02701
1
1.03256
1.00347
0.925279
1.0303
1.04903
1.08209
1.0243
1
1.04418
1.01301
1.01167
1
1.11102
1.02244
0.937289
1.02728
1.05225
1.02323
1.03974
1.0435
1
0.974765
1.01218
1.11199
1.00403
1.02258
1.01629
0.908258
1.00405
1
0.911984
1
1.04276
0.981941
1
1
1.0131
0.978001
1.00756
0.99636
0.83921
1
1
0.937602
1.00132
1.02901
0.981906
1.07164
0.984608
1.04213
1.01244
1.04681
1
1.0282
1.07729
1.04635
1.01739
1.09108
1.00353
1
1.04491
0.941813
1
1.15019
1.03181
1.01571
1.00064
1.07508
0.982748
1
1.01739
1.02285
1
1.04427
1.07683
1.0757
0.995255
1.03106
0.919669
1.02014
1
1.02198
1.02534
1.16857
1.04864
1.01404
1
0.921372
1.01301
1.04924
0.919258
1
1
0.920842
1.06484
1
1.08143
0.98754
1.03538
1.03502
1.04697
0.837743
1.04881
0.933808
0.95214
0.9793
0.960699
0.961924
0.991858
1.03446
0.978626
0.922751
0.915489
1.08632
1.05295
1.04637
0.952083
1
1.07821
0.907299
1
1.05053
1.00168
0.990789
1
1.0383
1.05031
0.997461
0.927568
1.01393
1.07079
1.04894
1.00071
1.09364
0.820707
1.03728
0.997872
0.992778
0.933834
1.00551
1.02076
0.870514
0.868116
0.991274
0.845305
1.04854
1.03705
1
1.01539
1
1.01437
0.900408
1.07052
1.06393
1
1.03301
1.00653
0.916403
1.00166
1.04124
0.996429
0.840032
0.999999
0.992992
0.909811
1.05344
1.0221
0.998396
1.05208
1.05444
1
1.06085
1.03602
0.990933
1.03995
1.01337
1.03209
1.00116
1.05197
0.930282
1.0649
1.00466
1.0726
0.995935
1.02331
0.915144
1
1
0.856813
1
1.00162
0.930725
1.00503
0.980926
0.974051
0.939732
0.980591
1
1.00626
1
1
1.03457
1.04392
0.978318
1.05407
0.921687
1.00014
1.02389
1.11764
0.929504
1.00572
1.00129
1
0.907715
1.04306
0.960615
0.974088
0.99641
0.973876
1.01618
0.972512
1
0.986638
0.986262
0.99676
1.05328
1.00874
0.930818
1.019
0.916743
1
1.06684
1.00923
0.991563
1.05306
0.924252
1
1
0.961472
1
1
0.999853
1.0211
0.903013
0.935429
0.998686
1.00718
0.991058
1.04654
1
1
0.999067
0.916079
0.97501
0.970414
1.01241
1
0.97941
0.861115
0.978404
0.919942
0.90046
0.857544
1
1.01984
1.00043
0.987352
1.04592
0.963921
1
1
1.09227
0.97789
1.04384
0.985801
1.00045
1.01353
0.969791
1.2067
1
0.983675
0.970488
1.04349
1
0.976764
0.908871
1.02941
1.06216
0.963414
0.994709
0.997928
0.948918
0.873583
1.01097
1.03779
1
1.02022
0.977818
1.05378
1.00031
0.970607
1.00297
0.839846
0.9825
1.01245
1.02869
0.922115
0.989457
1.05384
1.01262
1
1.003
1
1.05343
1.00181
0.863405
1.05363
0.969176
1.04977
0.99404
1
1.03531
0.940603
1.06411
0.946817
0.933119
0.988945
0.994201
1.01517
1.09557
1.03435
1.04905
0.975612
0.98098
0.865791
0.928726
1
1.01415
0.924419
0.934829
0.956267
0.923623
1.0159
0.846594
1.01407
0.926414
1.05444
1.00652
0.892963
1
1.03399
1.01117
1.02131
0.996492
0.936377
0.905526
0.928584
1.00703
0.99759
1.05463
0.914337
1.00286
1.0027
0.93476
0.877276
1.09562
0.892747
0.986452
1.01389
0.993569
1.09482
0.895545
0.964786
1.05286
1.02048
0.986761
1
0.988748
1
0.930031
1.06673
1.002
1.01316
1.05375
0.830684
1
1.00511
1.13304
0.98498
1.01035
0.995133
1.04482
0.998394
1.02005
1.01621
0.999881
0.926175
1.01624
1
1.07525
0.897582
1.05559
0.915677
1.02562
0.960144
0.984357
1.0621
0.871795
1.05333
0.932896
1.04744
1.02081
1.04774
1.00447
0.998814
0.933192
1.05582
1.00997
1.0986
0.895824
1.09748
1.05281
0.996517
0.91239
1.18617
0.994379
1.02462
1.04634
1.04585
1.03366
1.12906
1.05052
0.972801
0.885411
1.00887
0.902997
0.991689
1.06361
1.05127
1
0.940954
0.943952
1.02477
1.02767
1.0424
0.944206
0.916083
1.03336
0.960169
1.05596
0.936862
0.921266
1.04795
1.05157
0.90112
0.88539
0.85569
0.991392
1.0154
1.04923
1.05583
0.91588
1.00941
1.02624
1.00064
1.01235
1.02648
1.00455
0.86962
1.07636
1.06275
1.05154
1.06366
1.00108
0.935535
1.06391
0.950381
1.11839
1.01447
1.04935
0.958766
0.942114
1.05387
1.03489
1.00445
1.01522
0.988547
0.979523
0.985315
0.985326
1.05647
0.924037
1.0229
1.01972
1.04459
1.02509
1.01746
1.02796
1.06066
0.932893
1.01453
1.01168
1.0554
0.936361
0.974514
0.991633
1.0564
0.972242
1.03451
0.838099
0.984176
0.989941
1.05528
0.984991
1.03077
1
1.03691
0.973961
0.925256
0.919236
0.986149
1.05158
0.91897
0.975718
0.989642
0.998517
0.947488
1.0009
1.0393
0.977702
0.978909
1
1.07715
0.978736
1.09783
1.03285
0.961744
0.99179
1.0417
1.10382
1.05212
0.978912
1.03863
1.02187
1.05353
1.01899
1.02407
0.921041
1.01623
1
1.01334
1.02729
0.986884
1
1.03249
0.962181
1.02742
1.02969
0.998135
1.01668
0.846646
0.997723
1.04391
1
1.05524
1.05652
1.04598
1.03359
0.943536
1.01659
0.981214
1.00282
0.974319
0.943784
0.963088
0.904151
0.907157
0.998843
1.00477
1.03603
0.980308
0.987128
0.920787
1.0196
0.959739
0.979901
1.02641
1.03843
1
0.937579
0.982803
0.996701
1.05926
1.04604
0.938861
1.00803
0.961664
1.05934
1.04088
0.977128
1.0308
1
0.989713
0.971312
0.941305
0.832428
0.960134
1
1.00062
1.00614
1.02445
1.00661
1.036
0.985522
1.05731
1.00497
1.04321
0.979305
1.10748
0.978463
0.905897
1.01182
1.00429
1
1.02985
1.04815
0.980471
1.10563
0.982705
1.07936
1
0.978753
0.991815
1.03206
1
0.897506
1.0132
1.01318
1.01708
0.962074
0.931241
1.01636
1.04542
1.00729
1.01354
1
0.936208
0.983707
1.00259
1.08444
1.08155
1
0.974604
0.976424
1.06159
1.05915
1.0093
1.06131
0.979325
1.05901
1
1.097
0.962652
0.897638
0.980021
1.0378
0.924044
0.98051
0.974785
1.04749
1
0.98077
1.02089
1
1.01191
0.92577
1.01539
0.978701
1
1.02781
1.00995
0.927448
0.959807
1.08427
1.02292
1.03037
0.95213
0.989227
0.980195
0.988452
0.899934
1.02924
1
1.01319
1.06097
1.004
1.04929
0.987577
0.983172
0.907672
0.927141
1.06255
0.975192
1.0617
1.01673
1.04382
1.0533
0.988553
0.98839
0.984871
1
0.928286
1.07995
1.01828
1.02904
0.956524
0.986338
0.969806
0.986457
1.05324
0.986043
1.13016
1
0.960562
0.986461
0.99694
0.986568
1.05863
1.05588
1
1.01737
0.985836
1.07561
1.03377
0.916326
1
1.05055
0.925038
0.978825
1.02231
0.999995
1.05896
0.922658
0.986151
1.01587
1
1
1.05459
0.97116
0.998847
1.01769
1.0218
1.05093
1.04329
1.05665
1.02124
0.989393
0.834123
0.997597
1.0396
1.04996
1.07234
1
0.910323
0.913445
0.965654
1.05323
0.986331
1.10691
0.954797
1
1.02119
0.965168
0.938238
0.912032
0.893027
1.08698
1.04497
1.05531
1.12531
0.933499
1.10788
0.985511
1.02808
1.00398
1
0.940423
0.972868
1.0638
1.0634
0.987237
0.991971
0.986377
1
0.997435
1.07282
0.928986
1.02852
0.890085
0.93569
1.05439
1.1025
1.10774
1.00678
1.003
0.976669
1.00008
1.1345
1.00319
1.04451
1.00976
1
1.02682
1.04232
0.958933
1.0668
1.01468
1.07809
0.930181
1.05518
1
1.00012
0.975567
0.915243
1.03456
1.05486
1.02991
0.906947
1
0.901474
1.01425
1.0011
1.06008
1.05434
1.11154
1.07713
1.07027
1.06284
1.01754
0.927146
0.999207
1.04897
1.05651
0.926162
1.04772
1.00251
0.924992
1.09454
0.980406
1.00284
1.01481
1.02885
1
1.02257
1.05361
0.919486
1.00567
1.06503
1.03343
0.928397
0.905935
0.97344
0.884981
1.20843
1.03625
1.05535
1
1.07031
1.10725
1.0089
1.05537
0.979112
0.964578
1.03942
0.937438
1.07694
1.04716
0.988921
1.10493
0.9355
0.903985
1.0195
1.05009
1.02782
1.01377
1.05
1.01193
1
1.06131
0.988395
1
1.03533
0.918065
1.01657
0.955943
1
1.02115
1.00406
0.975835
0.921082
0.905715
0.966771
1.0558
0.978407
1.02103
1.02241
1.0626
1.05615
1.00343
1.05178
1.03923
1.03058
1.14104
1.05019
0.879951
1.05172
1.02159
1.10678
0.929588
1.06163
1.03273
1.00388
1
1.0236
0.83462
0.952694
1.05726
1.03368
1.05397
1.05156
1.03827
0.921644
1.05325
1
0.971726
1.02654
1.00399
0.99553
1.05625
1.07472
1.02478
0.963357
0.983544
0.977732
1.05661
1.05167
1.04316
1
0.912877
1.05979
1.04935
1.05129
1.07623
0.986826
1.03664
1.07332
1.02947
1.06488
1.05083
1.02574
1.03098
0.924283
0.909748
0.967032
0.888951
1.02655
0.926086
1.0517
1.0421
0.970328
1.0537
1.06635
1.05088
1.03237
1.03931
1.06875
1.04653
0.962885
0.987997
0.965131
1.04987
0.910208
0.926584
1.1301
1.08234
1.05145
1.06197
0.913637
1
1.00503
1.05153
1.06189
1.04939
0.971468
1.03491
1.0357
1.04143
0.965779
1.01954
1.06107
1.04729
1.04563
1.07968
0.961071
1.04272
1
0.999998
1.02898
0.992126
1.04891
1.05564
1.05285
0.993878
1.04969
0.980394
1.05082
0.930058
1.03186
1.02377
1.01051
1.03861
0.987326
1.00649
1
0.89408
0.913419
0.983572
1.04117
1.0526
1.0003
0.931749
0.985645
1
0.921639
1.04555
0.97537
1.04887
0.96771
0.992297
0.921371
1.0145
1.03988
1.04965
1.01053
0.930602
1.05184
0.984892
1.04199
1.1331
1.01403
1
0.935486
1.02341
0.835553
1.04682
1.0211
0.973376
1.00276
0.930935
1.00943
0.910952
0.924939
0.981355
1.04373
1.00218
1.00225
1.04758
1.00292
1.03394
1.07203
1.13567
1
1.00538
1.00175
1.07159
1.05376
1.07603
1.0573
1.05088
1.04835
1.01307
1.04852
0.97073
0.998995
0.984641
1
1
0.995993
1.01979
1.04462
1
0.922593
0.994748
1.02616
1.05472
1
1.00432
1.05387
0.956214
1.00379
1.04791
0.989927
1.13269
1.01649
0.916089
1.03937
1.04503
1.07874
1.0431