/*--------------------------------*- C++ -*----------------------------------*\
  =========                 |
  \\      /  F ield         | OpenFOAM: The Open Source CFD Toolbox
   \\    /   O peration     | Website:  https://openfoam.org
    \\  /    A nd           | Version:  12
     \\/     M anipulation  |
\*---------------------------------------------------------------------------*/
FoamFile
{
    format      ascii;
    class       surfaceScalarField;
    location    "17.7";
    object      phi;
}
// * * * * * * * * * * * * * * * * * * * * * * * * * * * * * * * * * * * * * //

dimensions      [1 0 -1 0 0 0 0];

internalField   nonuniform List<scalar> 
19404
(
-0.000137797
-4.77046e-07
-0.000139885
-3.24983e-07
-0.000141798
1.63303e-07
-0.000142478
3.88483e-07
-0.000142559
6.05329e-07
-0.000142441
6.79208e-07
-0.000142185
6.58593e-07
-0.000140936
5.12195e-07
-0.000140037
3.22384e-07
-0.000139921
5.39898e-08
-0.000139996
-4.49273e-07
-0.000140151
-4.77693e-07
-0.000140454
-3.3517e-07
-0.000141457
1.26638e-08
-0.000143032
3.9329e-07
-0.000143953
5.54572e-07
-0.000144366
6.30719e-07
-0.000144516
6.56284e-07
-0.000144495
5.12987e-07
-0.000144229
2.99022e-07
-0.000143407
5.78939e-08
-0.000143098
-1.84645e-07
-0.000142869
-4.34689e-07
-0.000142642
-2.64559e-07
-0.000142524
-7.32848e-08
-0.000142905
1.02749e-07
-0.000144804
4.54588e-07
-0.000146301
6.35723e-07
-0.000146962
6.42832e-07
-0.000147243
5.80832e-07
-0.000147316
4.21927e-07
-0.000147243
2.25944e-07
-0.000146167
2.27483e-08
-0.00014484
-2.41179e-07
-0.000144253
-2.73337e-07
-0.00014399
-1.63328e-07
-0.000143931
-5.30932e-08
-0.00014471
4.48192e-08
-0.0001476
3.56626e-07
-0.000149661
5.14207e-07
-0.000150385
5.12935e-07
-0.000150627
4.79038e-07
-0.000150642
3.53922e-07
-0.000150267
2.3528e-07
-0.000147567
1.19105e-07
-0.00014584
-3.59624e-08
-0.000145416
-6.3e-08
-0.000145355
-6.18138e-08
-0.000145497
-1.06597e-07
-0.000147617
8.22595e-09
-0.000151403
3.24276e-07
-0.00015324
3.70369e-07
-0.000153804
4.32288e-07
-0.000153967
4.44275e-07
-0.000153969
3.92956e-07
-0.00015241
2.84134e-07
-0.000148346
2.23115e-07
-0.000146713
3.69219e-08
-0.000146514
-3.43447e-08
-0.000146552
-1.51344e-07
-0.000147534
-2.0283e-07
-0.000152014
3.28607e-08
-0.000155781
2.63091e-07
-0.000157062
3.98025e-07
-0.000157431
4.08684e-07
-0.000157528
4.24803e-07
-0.000157007
3.6229e-07
-0.000152241
3.15089e-07
-0.00014779
1.80531e-07
-0.000146719
-1.97994e-08
-0.000146777
-1.42384e-07
-0.000147375
-3.05237e-07
-0.000152206
-1.7873e-07
-0.000157907
8.80695e-08
-0.000160202
2.53594e-07
-0.000160884
4.07399e-07
-0.000161086
4.85975e-07
-0.000160803
4.45415e-07
-0.000155608
1.78125e-07
-0.000147795
-8.08637e-08
-0.000144878
-1.96496e-07
-0.000144928
-3.78964e-07
-0.000145749
-6.91877e-07
-0.000152665
-5.39033e-07
-0.00015995
-1.90104e-07
-0.000162594
2.01129e-07
-0.000163411
5.80043e-07
-0.000163738
6.93142e-07
-0.000162412
5.27929e-07
-0.000152702
5.13025e-07
-0.000140901
-2.75567e-07
-0.000135007
-1.01235e-06
-0.000134887
-1.70772e-06
-0.000138732
-2.08801e-06
-0.000151224
-2.87567e-06
-0.000155912
-6.14791e-06
-0.000154027
-7.63949e-06
-9.80342e-05
-3.11369e-05
3.28389e-05
-0.000138359
-5.90029e-07
-0.000139705
-4.59009e-07
-0.000141686
2.70742e-07
-0.000142756
8.49864e-07
-0.000143283
1.3279e-06
-0.000143364
1.22121e-06
-0.000143225
1.00427e-06
-0.000142797
7.3735e-07
-0.00014189
3.76909e-07
-0.00014134
-1.07452e-07
-0.000140972
-5.17629e-07
-0.000140672
-5.07397e-07
-0.000140545
-2.16947e-07
-0.00014106
9.89483e-08
-0.000142963
6.57162e-07
-0.000144541
1.07105e-06
-0.000145317
1.19377e-06
-0.000145659
9.27984e-07
-0.000145663
6.22628e-07
-0.000145582
3.7227e-07
-0.000145057
9.66875e-08
-0.000144045
-2.28883e-07
-0.000143197
-5.00969e-07
-0.000142657
-1.08347e-07
-0.000142436
1.66827e-07
-0.000142675
3.48665e-07
-0.000144772
7.17051e-07
-0.000146899
1.07059e-06
-0.000147918
1.04683e-06
-0.000148315
7.76987e-07
-0.000148378
5.24126e-07
-0.000148312
2.57722e-07
-0.000147514
3.86794e-08
-0.000145574
-1.20921e-07
-0.000144535
-2.25356e-07
-0.000144099
1.56485e-08
-0.000144003
1.8828e-07
-0.000144559
2.59486e-07
-0.000147666
5.57208e-07
-0.000150036
8.38178e-07
-0.000150932
8.70699e-07
-0.000151225
7.24351e-07
-0.000151274
5.48934e-07
-0.000151054
3.83224e-07
-0.000148719
2.91329e-07
-0.000146514
7.4883e-08
-0.000145766
-1.85635e-08
-0.000145546
4.60048e-08
-0.000145583
5.26096e-08
-0.000147374
1.25368e-07
-0.000151328
4.84735e-07
-0.000153404
7.22896e-07
-0.000154112
7.91436e-07
-0.000154316
7.51423e-07
-0.000154338
6.54962e-07
-0.000153154
4.90413e-07
-0.000149221
4.04547e-07
-0.000147179
8.23522e-08
-0.000146741
-3.22846e-08
-0.000146748
-1.11657e-07
-0.000147362
-1.85129e-07
-0.000151522
8.76043e-09
-0.000155369
4.72494e-07
-0.000156853
7.81012e-07
-0.000157349
8.18589e-07
-0.000157471
8.01547e-07
-0.000157167
6.79969e-07
-0.000152954
5.22258e-07
-0.000148297
1.44212e-07
-0.000146899
-8.27951e-08
-0.000146784
-2.61269e-07
-0.00014706
-3.99846e-07
-0.000150755
-5.16694e-07
-0.00015659
7.42675e-08
-0.000159394
6.06022e-07
-0.000160318
7.56289e-07
-0.000160588
7.68499e-07
-0.000160538
6.40543e-07
-0.000156256
4.31615e-07
-0.000148178
-6.12242e-08
-0.000144811
-5.26805e-07
-0.000144333
-9.07964e-07
-0.000144568
-1.23066e-06
-0.000148942
-1.43739e-06
-0.000156544
-5.9738e-07
-0.00016041
3.68533e-07
-0.000161794
6.97007e-07
-0.000162077
6.32484e-07
-0.000161383
4.50827e-07
-0.000153647
4.46458e-07
-0.000141953
-9.61997e-07
-0.000133844
-2.79619e-06
-0.000131874
-4.56732e-06
-0.000132577
-5.10749e-06
-0.00013933
-6.67589e-06
-0.000143311
-1.14301e-05
-0.000142741
-1.35202e-05
-0.000118746
-3.57499e-05
4.12739e-05
-0.000137869
-2.1383e-07
-0.000137932
4.38157e-08
-0.000139446
4.81833e-07
-0.000141669
1.25049e-06
-0.000143074
1.41115e-06
-0.000143695
1.12804e-06
-0.00014372
8.83632e-07
-0.00014359
6.23276e-07
-0.000143322
3.67095e-07
-0.000142156
1.66417e-07
-0.000140494
-2.33067e-07
-0.000139561
1.12201e-07
-0.000139242
3.13657e-07
-0.000139361
4.30456e-07
-0.000141426
6.7057e-07
-0.000144315
1.08534e-06
-0.000145819
1.0895e-06
-0.000146201
8.44314e-07
-0.000146184
5.95291e-07
-0.000146086
3.44586e-07
-0.000145878
1.02372e-07
-0.000143965
7.63135e-09
-0.000141871
2.69928e-07
-0.000141235
4.829e-07
-0.000141092
5.49044e-07
-0.000141314
5.53106e-07
-0.000143805
6.87402e-07
-0.000147016
1.02307e-06
-0.000148359
8.63067e-07
-0.000148676
7.33929e-07
-0.000148662
4.8853e-07
-0.000148621
2.48787e-07
-0.000147971
1.07041e-07
-0.00014502
2.71696e-07
-0.000143378
4.42159e-07
-0.000142974
4.80693e-07
-0.000142886
4.52363e-07
-0.000143349
4.0872e-07
-0.000146643
5.19344e-07
-0.000149712
8.28892e-07
-0.00015079
8.97228e-07
-0.000151055
7.60123e-07
-0.000151094
6.04969e-07
-0.000150988
4.56338e-07
-0.000149089
4.01719e-07
-0.00014604
3.75583e-07
-0.000144881
3.32967e-07
-0.00014457
3.30601e-07
-0.00014455
2.82704e-07
-0.00014575
2.21582e-07
-0.000149914
4.74361e-07
-0.00015256
8.74375e-07
-0.000153451
9.7146e-07
-0.000153671
8.84153e-07
-0.000153703
7.81759e-07
-0.000153071
6.33885e-07
-0.000149402
4.86742e-07
-0.000146705
1.20151e-07
-0.000145807
6.10788e-08
-0.000145615
5.78773e-08
-0.000145783
1.32533e-08
-0.000148734
4.13862e-08
-0.000153346
5.94704e-07
-0.000155427
1.01646e-06
-0.000156078
1.02774e-06
-0.000156241
9.45667e-07
-0.000156162
7.75554e-07
-0.000153093
6.37043e-07
-0.000148008
1.60775e-07
-0.000145764
-3.03866e-07
-0.000145237
-4.26769e-07
-0.00014529
-4.88216e-07
-0.00014712
-6.45942e-07
-0.000153385
-1.79319e-07
-0.000157055
6.75233e-07
-0.000158121
1.00855e-06
-0.000158369
1.01992e-06
-0.000158392
8.91555e-07
-0.000155622
7.04456e-07
-0.000147647
2.05116e-08
-0.000142808
-1.10882e-06
-0.000141624
-1.68534e-06
-0.000141624
-1.89687e-06
-0.000143384
-2.22152e-06
-0.000151252
-1.82776e-06
-0.000156951
-3.75382e-07
-0.000158597
4.12354e-07
-0.000158861
5.94801e-07
-0.000158527
5.14222e-07
-0.000152411
1.57068e-07
-0.000141983
-1.07723e-06
-0.000134041
-3.59249e-06
-0.00013008
-6.20344e-06
-0.00012954
-7.71801e-06
-0.000132674
-9.98666e-06
-0.000136635
-1.55235e-05
-0.000137636
-1.84941e-05
-0.000124556
-3.63538e-05
4.4823e-05
-0.000136528
5.13655e-07
-0.000136382
7.23064e-07
-0.00013726
8.76062e-07
-0.000141008
9.44154e-07
-0.000143198
9.871e-07
-0.000143728
9.61801e-07
-0.00014376
7.43597e-07
-0.000143637
5.15675e-07
-0.000143492
3.3168e-07
-0.000142
4.27359e-07
-0.000138959
8.85993e-07
-0.000138069
9.35047e-07
-0.0001379
8.11201e-07
-0.000137973
6.67789e-07
-0.000140257
6.27411e-07
-0.000144374
6.93564e-07
-0.000145913
8.72867e-07
-0.000146171
7.10625e-07
-0.000146089
5.18588e-07
-0.000145996
3.94062e-07
-0.00014533
4.74509e-07
-0.00014223
8.73703e-07
-0.000140228
1.08456e-06
-0.000139918
9.38047e-07
-0.000139825
7.07843e-07
-0.000140165
5.32627e-07
-0.000143172
4.60989e-07
-0.000147054
6.40146e-07
-0.00014827
7.51428e-07
-0.000148389
6.74763e-07
-0.000148329
5.75927e-07
-0.000148124
6.13402e-07
-0.000146564
7.53265e-07
-0.000143283
9.6918e-07
-0.000141891
9.31295e-07
-0.000141694
7.20173e-07
-0.000141649
4.78835e-07
-0.000142139
3.09786e-07
-0.000145494
2.79385e-07
-0.000149104
5.40389e-07
-0.00015018
7.88954e-07
-0.000150315
8.24922e-07
-0.000150314
8.29079e-07
-0.000150084
8.28344e-07
-0.000147877
8.76986e-07
-0.000144402
8.89669e-07
-0.00014323
6.21037e-07
-0.000143018
3.94955e-07
-0.000142994
2.22538e-07
-0.000143785
8.83736e-08
-0.000147916
2.27028e-07
-0.000151184
7.25508e-07
-0.000152114
1.00479e-06
-0.000152312
1.03493e-06
-0.000152347
9.94834e-07
-0.000151956
9.03933e-07
-0.000148462
8.1263e-07
-0.000144855
5.44218e-07
-0.000143667
1.76347e-07
-0.000143425
7.45204e-08
-0.000143479
2.7996e-09
-0.000145317
-9.03005e-08
-0.000150634
2.84721e-07
-0.000153381
8.67324e-07
-0.000154067
1.07129e-06
-0.0001542
1.04438e-06
-0.000154203
9.26376e-07
-0.00015227
7.75749e-07
-0.00014644
4.04257e-07
-0.000143222
-2.46323e-07
-0.000142452
-6.68913e-07
-0.000142449
-7.33621e-07
-0.000143078
-8.13092e-07
-0.000148413
-6.45398e-07
-0.000153248
3.07213e-07
-0.000154613
9.99517e-07
-0.000154961
1.1799e-06
-0.000155086
1.03461e-06
-0.000154021
7.86115e-07
-0.000147144
2.32142e-07
-0.000140403
-1.07872e-06
-0.00013819
-2.29076e-06
-0.000138008
-2.83041e-06
-0.000138326
-3.06235e-06
-0.000142797
-3.26044e-06
-0.000149466
-2.17779e-06
-0.000152257
-6.56414e-07
-0.000153015
8.77685e-08
-0.000153205
1.01967e-07
-0.000150188
-1.05258e-07
-0.000141004
-1.43949e-06
-0.000132315
-4.31625e-06
-0.000126772
-7.19655e-06
-0.000124649
-1.03494e-05
-0.000125395
-1.24978e-05
-0.000129219
-1.77985e-05
-0.00013196
-2.1383e-05
-0.000128021
-3.36429e-05
4.6304e-05
-0.000135445
1.09868e-06
-0.000135351
1.09283e-06
-0.000136671
9.61301e-07
-0.000140815
6.67235e-07
-0.000142921
5.73386e-07
-0.000143276
5.89639e-07
-0.00014322
5.69087e-07
-0.000143062
5.26799e-07
-0.00014225
7.38631e-07
-0.000139527
1.26556e-06
-0.000137581
1.47143e-06
-0.000137214
1.29509e-06
-0.000137106
1.00584e-06
-0.000137167
7.45171e-07
-0.000139542
4.8672e-07
-0.000143703
4.25419e-07
-0.000145058
5.4772e-07
-0.000145174
6.8124e-07
-0.000145081
7.54225e-07
-0.000144656
9.08727e-07
-0.000142988
1.14304e-06
-0.000140292
1.36535e-06
-0.000139104
1.27737e-06
-0.000138892
1.03017e-06
-0.000138826
7.26616e-07
-0.000139076
4.48053e-07
-0.000141972
2.6791e-07
-0.000145662
4.26867e-07
-0.000146704
7.39782e-07
-0.000146798
9.30801e-07
-0.000146674
1.09134e-06
-0.000146237
1.19242e-06
-0.000144546
1.21359e-06
-0.000141905
1.15524e-06
-0.000140773
9.01315e-07
-0.000140547
6.59032e-07
-0.000140519
4.30831e-07
-0.000140762
1.87515e-07
-0.000143541
1.36117e-07
-0.000146917
4.84066e-07
-0.000147983
9.4187e-07
-0.000148187
1.19573e-06
-0.000148132
1.29425e-06
-0.000147885
1.26483e-06
-0.000146171
1.18935e-06
-0.000143029
9.31516e-07
-0.00014174
4.9928e-07
-0.000141448
2.40059e-07
-0.000141431
1.11766e-07
-0.0001417
-3.36402e-09
-0.000144896
7.67747e-08
-0.000148466
6.72925e-07
-0.000149549
1.16926e-06
-0.000149809
1.35058e-06
-0.000149826
1.329e-06
-0.000149624
1.26228e-06
-0.000146905
1.09593e-06
-0.000142805
6.24071e-07
-0.000141332
6.26719e-08
-0.000141041
-1.64014e-07
-0.000141046
-2.41845e-07
-0.000141968
-3.17061e-07
-0.000146838
-8.12364e-08
-0.000150214
6.60492e-07
-0.000151041
1.14665e-06
-0.000151227
1.25287e-06
-0.000151282
1.225e-06
-0.000150375
1.10142e-06
-0.000144974
7.76427e-07
-0.000140463
-3.67813e-08
-0.000139321
-8.77382e-07
-0.000139198
-1.21684e-06
-0.000139367
-1.29643e-06
-0.000142741
-1.2794e-06
-0.00014885
-4.34835e-07
-0.000151214
7.47868e-07
-0.000151653
1.23472e-06
-0.000151773
1.23156e-06
-0.000151605
1.02542e-06
-0.000147272
6.67934e-07
-0.000139276
-8.12589e-07
-0.00013492
-2.42637e-06
-0.000134237
-3.39549e-06
-0.000134207
-4.16793e-06
-0.000135786
-4.50743e-06
-0.000141952
-4.18947e-06
-0.000146856
-2.63583e-06
-0.000148549
-1.31826e-06
-0.00014887
-7.74686e-07
-0.000148254
-7.12023e-07
-0.000142178
-1.35398e-06
-0.000133631
-4.19634e-06
-0.000126454
-7.833e-06
-0.000122259
-1.10306e-05
-0.000122294
-1.36455e-05
-0.000126229
-1.88083e-05
-0.000129858
-2.32639e-05
-0.000130133
-3.0525e-05
4.70055e-05
-0.000134418
1.33245e-06
-0.000134432
1.22592e-06
-0.000136928
7.64894e-07
-0.000140452
4.73953e-07
-0.000141737
3.98267e-07
-0.000141959
4.69159e-07
-0.000141895
6.04292e-07
-0.000141335
9.40175e-07
-0.000139392
1.45094e-06
-0.000137455
1.60555e-06
-0.000136651
1.50037e-06
-0.000136411
1.27754e-06
-0.000136311
9.94618e-07
-0.000136389
7.02258e-07
-0.000138846
4.12039e-07
-0.000142067
3.85745e-07
-0.000143096
6.25927e-07
-0.000143238
9.29229e-07
-0.000143064
1.24689e-06
-0.000142534
1.46313e-06
-0.000141036
1.48293e-06
-0.000139238
1.35447e-06
-0.000138377
1.11191e-06
-0.00013807
8.81126e-07
-0.00013797
6.71221e-07
-0.000138003
4.4492e-07
-0.000140056
2.71231e-07
-0.000143127
5.25717e-07
-0.00014422
1.00175e-06
-0.000144449
1.31834e-06
-0.000144371
1.51598e-06
-0.000144136
1.53698e-06
-0.000143001
1.37114e-06
-0.000140852
1.11836e-06
-0.000139809
7.01893e-07
-0.000139355
4.31704e-07
-0.00013916
3.3655e-07
-0.000139159
2.7732e-07
-0.000140755
2.52031e-07
-0.000144007
6.94618e-07
-0.000145385
1.27931e-06
-0.000145795
1.55504e-06
-0.000145883
1.57208e-06
-0.00014585
1.44709e-06
-0.000144879
1.25158e-06
-0.000142049
8.92223e-07
-0.000140402
2.85171e-07
-0.000139776
-4.40185e-08
-0.000139514
-2.76565e-08
-0.000139534
3.73635e-08
-0.000141454
1.12485e-07
-0.000145424
7.24815e-07
-0.000147002
1.36307e-06
-0.000147399
1.60093e-06
-0.000147516
1.58733e-06
-0.000147493
1.47577e-06
-0.000145914
1.25035e-06
-0.000141521
6.6949e-07
-0.000139182
1.36338e-08
-0.000138733
-4.34414e-07
-0.000138676
-5.96738e-07
-0.000139061
-6.1712e-07
-0.000142953
-4.15491e-07
-0.00014719
4.44618e-07
-0.000148379
1.23132e-06
-0.000148658
1.56421e-06
-0.000148728
1.56315e-06
-0.000148519
1.42701e-06
-0.000144976
1.19688e-06
-0.000139178
4.82876e-08
-0.00013673
-9.11047e-07
-0.00013656
-1.60299e-06
-0.000136603
-1.9593e-06
-0.000137924
-2.05357e-06
-0.000143693
-1.52973e-06
-0.000148108
9.19192e-08
-0.000149262
1.21735e-06
-0.000149435
1.52078e-06
-0.000149495
1.48918e-06
-0.000147404
1.23623e-06
-0.000140239
1.82938e-07
-0.000134291
-2.10374e-06
-0.000131829
-3.60583e-06
-0.000131518
-4.94094e-06
-0.000131705
-5.48025e-06
-0.000134787
-5.73791e-06
-0.000140382
-4.95174e-06
-0.000143603
-3.423e-06
-0.000144697
-2.43028e-06
-0.000145048
-2.20217e-06
-0.000143331
-1.96787e-06
-0.000137138
-3.83885e-06
-0.000129737
-7.20849e-06
-0.000123616
-1.12774e-05
-0.000121234
-1.42861e-05
-0.000123677
-1.74489e-05
-0.000128109
-2.49719e-05
-0.0001323
-2.89074e-05
4.73943e-05
-0.000133757
1.21007e-06
-0.000134252
1.0712e-06
-0.000137407
7.78903e-07
-0.00013961
5.11587e-07
-0.000140124
6.10503e-07
-0.000140156
7.57829e-07
-0.000139831
1.18226e-06
-0.000138762
1.58846e-06
-0.000137338
1.55722e-06
-0.000136434
1.40068e-06
-0.000136025
1.26298e-06
-0.000135844
1.07408e-06
-0.000135735
8.35422e-07
-0.000135783
6.13517e-07
-0.000137742
4.49728e-07
-0.000140011
6.54277e-07
-0.00014076
1.0813e-06
-0.000140938
1.50608e-06
-0.000140846
1.6694e-06
-0.00014064
1.62501e-06
-0.000139856
1.46685e-06
-0.000138388
1.15806e-06
-0.000137637
7.98782e-07
-0.00013726
6.00732e-07
-0.000137025
4.68306e-07
-0.000136953
4.44285e-07
-0.000137894
4.08141e-07
-0.000140566
8.20295e-07
-0.000141842
1.43467e-06
-0.000142354
1.7709e-06
-0.000142564
1.66693e-06
-0.00014253
1.53888e-06
-0.000142184
1.36181e-06
-0.000140271
1.04943e-06
-0.000138764
5.37596e-07
-0.000138042
2.39975e-07
-0.000137583
2.64675e-07
-0.000137471
4.56543e-07
-0.000138022
5.17247e-07
-0.00014121
8.98929e-07
-0.000143266
1.53025e-06
-0.000144005
1.80757e-06
-0.000144316
1.68913e-06
-0.000144382
1.49569e-06
-0.000144202
1.25302e-06
-0.000141939
9.11745e-07
-0.000139066
2.13371e-07
-0.000137852
-8.49432e-08
-0.000137364
-5.29079e-08
-0.000137288
1.14262e-07
-0.000138269
2.10522e-07
-0.000142466
6.54622e-07
-0.000144971
1.41362e-06
-0.000145674
1.76114e-06
-0.000145893
1.74225e-06
-0.000145908
1.54726e-06
-0.00014547
1.3377e-06
-0.000141667
9.48315e-07
-0.000137981
-3.70167e-08
-0.00013683
-5.77957e-07
-0.000136638
-7.79165e-07
-0.000136684
-8.16133e-07
-0.00013882
-7.35283e-07
-0.000144019
6.75907e-08
-0.000146429
1.28125e-06
-0.000146851
1.82609e-06
-0.000146945
1.92805e-06
-0.00014697
1.68127e-06
-0.000145391
1.36868e-06
-0.000139812
4.55928e-07
-0.000135905
-1.06704e-06
-0.000134814
-2.00998e-06
-0.000134708
-2.49571e-06
-0.000134866
-2.54518e-06
-0.000137845
-2.49765e-06
-0.000144135
-1.18373e-06
-0.000147155
7.24664e-07
-0.000147803
1.60007e-06
-0.000147921
1.76373e-06
-0.000147593
1.63448e-06
-0.000143373
1.12182e-06
-0.000136325
-9.54913e-07
-0.000131665
-3.53548e-06
-0.000129836
-5.02751e-06
-0.000129776
-5.98732e-06
-0.000130297
-6.62027e-06
-0.000134224
-6.73041e-06
-0.000138855
-5.74825e-06
-0.000141476
-4.59268e-06
-0.000142649
-4.10335e-06
-0.000142875
-4.17724e-06
-0.000140463
-3.88674e-06
-0.000135116
-6.90691e-06
-0.000128269
-1.04424e-05
-0.000121787
-1.4397e-05
-0.0001216
-1.72185e-05
-0.000126603
-2.5993e-05
-0.000133869
-2.77374e-05
4.77191e-05
-0.000133117
8.89627e-07
-0.000134595
6.8757e-07
-0.000137373
7.30353e-07
-0.000138391
8.54526e-07
-0.000138512
1.09736e-06
-0.000138298
1.56633e-06
-0.000137798
1.82493e-06
-0.000137278
1.79444e-06
-0.000136523
1.47592e-06
-0.000135879
1.20558e-06
-0.00013561
9.30569e-07
-0.000135459
7.32109e-07
-0.00013531
5.64194e-07
-0.000135223
5.3288e-07
-0.000136161
5.53316e-07
-0.000138011
1.08755e-06
-0.000138809
1.70019e-06
-0.000139267
2.04482e-06
-0.000139577
1.8774e-06
-0.000139574
1.66425e-06
-0.000139405
1.44052e-06
-0.000138234
1.12155e-06
-0.000137018
6.48811e-07
-0.000136389
3.83839e-07
-0.000135872
3.41189e-07
-0.000135603
5.60843e-07
-0.000135805
6.90155e-07
-0.000138245
1.02701e-06
-0.000140273
1.63738e-06
-0.000141122
1.90912e-06
-0.000141538
1.74511e-06
-0.000141592
1.52232e-06
-0.000141533
1.31803e-06
-0.000140485
1.03001e-06
-0.000138061
5.19875e-07
-0.000136577
3.14435e-07
-0.000135865
3.792e-07
-0.000135613
5.60866e-07
-0.000135781
6.68312e-07
-0.000138681
8.99386e-07
-0.000141972
1.51519e-06
-0.000143177
1.87714e-06
-0.000143512
1.74403e-06
-0.00014355
1.52381e-06
-0.000143525
1.27559e-06
-0.000142364
1.0097e-06
-0.000138453
5.64765e-07
-0.000136099
2.67789e-07
-0.000135473
1.65598e-07
-0.000135365
1.38323e-07
-0.0001358
1.00718e-07
-0.000139631
3.29121e-07
-0.00014352
1.18976e-06
-0.000144707
1.75835e-06
-0.00014496
1.81196e-06
-0.000145027
1.64406e-06
-0.000144987
1.41452e-06
-0.000142674
1.06762e-06
-0.000138042
4.27144e-07
-0.000135659
-5.48984e-07
-0.000135052
-7.19532e-07
-0.000134987
-8.46852e-07
-0.000135487
-8.71405e-07
-0.000139996
-5.26712e-07
-0.000144533
8.20802e-07
-0.000145859
1.8534e-06
-0.000146105
2.06962e-06
-0.000146221
1.82493e-06
-0.000145992
1.43514e-06
-0.000142196
1.00262e-06
-0.000136848
-5.44187e-07
-0.000133955
-2.1235e-06
-0.000132962
-2.65677e-06
-0.000132879
-2.82383e-06
-0.000133361
-2.93562e-06
-0.000138169
-2.66339e-06
-0.000144009
-8.89916e-07
-0.000146352
9.2741e-07
-0.000146961
1.59228e-06
-0.000147127
1.55074e-06
-0.000146311
1.31788e-06
-0.000140354
5.166e-07
-0.000133477
-1.85145e-06
-0.000129814
-4.59805e-06
-0.000128534
-6.04003e-06
-0.000128521
-7.0406e-06
-0.000129576
-7.68551e-06
-0.000133742
-7.72077e-06
-0.000137491
-6.84955e-06
-0.000139606
-6.20339e-06
-0.000140664
-6.20747e-06
-0.000140583
-6.41714e-06
-0.000138239
-6.89535e-06
-0.000133765
-1.02417e-05
-0.000127542
-1.34303e-05
-0.000122215
-1.66745e-05
-0.000123317
-2.5874e-05
-0.000134908
-2.78367e-05
4.87518e-05
-0.000133018
5.92634e-07
-0.000134315
3.24418e-07
-0.000136154
6.42986e-07
-0.000136893
1.27105e-06
-0.000137034
1.85575e-06
-0.000136993
2.23236e-06
-0.000137103
1.98062e-06
-0.000137
1.73949e-06
-0.000136608
1.56623e-06
-0.000135841
1.12168e-06
-0.000135484
7.20077e-07
-0.000135162
2.66545e-07
-0.000134617
4.06716e-07
-0.00013415
7.07887e-07
-0.000134223
9.13681e-07
-0.000136083
1.28821e-06
-0.000138001
1.9239e-06
-0.000139028
2.13032e-06
-0.000139427
1.9307e-06
-0.000139425
1.69419e-06
-0.000139349
1.44996e-06
-0.000138713
1.1887e-06
-0.000136955
7.07945e-07
-0.000135402
3.9058e-07
-0.000134501
5.95756e-07
-0.000134141
7.9671e-07
-0.000134117
8.85206e-07
-0.000136066
1.02616e-06
-0.000139583
1.52059e-06
-0.000141046
1.85195e-06
-0.000141341
1.82048e-06
-0.000141317
1.57835e-06
-0.000141272
1.36128e-06
-0.000140696
1.09732e-06
-0.000137626
8.66878e-07
-0.000135028
6.86103e-07
-0.000134231
6.50872e-07
-0.00013405
5.82134e-07
-0.000134177
5.07967e-07
-0.000136665
6.85196e-07
-0.000141076
1.17476e-06
-0.000142875
1.75877e-06
-0.000143173
1.76891e-06
-0.000143158
1.6274e-06
-0.000143132
1.44652e-06
-0.000142386
1.32569e-06
-0.000138311
1.2213e-06
-0.000134946
5.89084e-07
-0.000134045
4.2278e-07
-0.000133985
1.5575e-07
-0.000134116
-6.94544e-08
-0.000136819
-1.16837e-07
-0.00014199
5.56955e-07
-0.000144212
1.57758e-06
-0.000144597
1.88238e-06
-0.00014461
1.7711e-06
-0.000144591
1.63615e-06
-0.000143541
1.47317e-06
-0.000138832
1.20248e-06
-0.00013526
-3.71746e-08
-0.000133886
-5.25712e-07
-0.000133649
-8.42006e-07
-0.000133702
-9.73513e-07
-0.000135618
-1.05462e-06
-0.00014158
-3.55561e-07
-0.000145078
1.27059e-06
-0.000146009
2.03648e-06
-0.000146188
1.8803e-06
-0.000146217
1.61034e-06
-0.000144753
1.59441e-06
-0.000138822
7.67736e-07
-0.000133975
-1.22575e-06
-0.000131714
-2.56966e-06
-0.000131288
-2.84341e-06
-0.00013132
-3.3335e-06
-0.00013285
-3.65217e-06
-0.000139228
-3.12109e-06
-0.000144566
-9.25696e-07
-0.000146427
7.37284e-07
-0.000146794
1.24327e-06
-0.000146823
1.28147e-06
-0.000144652
9.51397e-07
-0.000137899
-6.22594e-09
-0.000131727
-2.83241e-06
-0.000128527
-5.61058e-06
-0.000127592
-7.10089e-06
-0.000127625
-8.1811e-06
-0.000129371
-8.86805e-06
-0.0001337
-8.83175e-06
-0.00013687
-8.13249e-06
-0.000138507
-7.91859e-06
-0.000139057
-8.23077e-06
-0.000138743
-8.68963e-06
-0.000136577
-1.06088e-05
-0.000132603
-1.3215e-05
-0.000126669
-1.62004e-05
-0.000122916
-2.37526e-05
-0.000135073
-2.90811e-05
5.06346e-05
-0.000133341
3.65339e-07
-0.000133187
3.92469e-07
-0.000133668
8.57719e-07
-0.000135069
1.55624e-06
-0.000136074
2.23162e-06
-0.000136921
2.35435e-06
-0.00013721
2.16863e-06
-0.000137173
1.811e-06
-0.000137018
1.50614e-06
-0.000136488
1.16923e-06
-0.000135729
6.26824e-07
-0.000134502
3.14171e-07
-0.000133196
7.70123e-07
-0.000132693
1.05183e-06
-0.000132605
1.14892e-06
-0.000134236
1.28327e-06
-0.000137694
1.69081e-06
-0.000139205
2.05264e-06
-0.000139534
1.87009e-06
-0.000139493
1.62315e-06
-0.000139409
1.37473e-06
-0.000139152
1.10722e-06
-0.000136793
8.75571e-07
-0.000134013
9.99017e-07
-0.00013316
1.01802e-06
-0.000132955
9.52489e-07
-0.000132987
8.68421e-07
-0.000134657
8.9573e-07
-0.000138971
1.24959e-06
-0.000140977
1.70438e-06
-0.000141303
1.76701e-06
-0.00014129
1.6564e-06
-0.000141213
1.4717e-06
-0.000140774
1.42107e-06
-0.000137482
1.42179e-06
-0.000134168
1.13226e-06
-0.00013331
8.21273e-07
-0.000133243
6.00313e-07
-0.00013328
3.08358e-07
-0.000135015
1.21888e-07
-0.000139986
5.70259e-07
-0.000142488
1.41769e-06
-0.00014291
1.7842e-06
-0.000142915
1.82131e-06
-0.000142817
1.84699e-06
-0.000142092
1.9047e-06
-0.000138671
1.73773e-06
-0.000134994
1.11222e-06
-0.000133732
4.61228e-07
-0.000133542
9.30321e-08
-0.000133552
-2.22717e-07
-0.000134531
-5.41864e-07
-0.000139612
-2.42354e-07
-0.000143373
1.03169e-06
-0.00014422
1.92291e-06
-0.000144355
2.08653e-06
-0.000144343
2.11532e-06
-0.000143969
2.0371e-06
-0.000140524
1.93527e-06
-0.000135609
7.9037e-07
-0.000133422
-5.11238e-07
-0.00013285
-9.09273e-07
-0.000132865
-1.27152e-06
-0.000133181
-1.50464e-06
-0.000137433
-1.54284e-06
-0.000143578
-6.78904e-08
-0.000145839
1.66754e-06
-0.000146172
2.0426e-06
-0.000146265
2.06443e-06
-0.000145965
2.11685e-06
-0.000141853
2.05562e-06
-0.000135047
4.78348e-07
-0.00013177
-1.90103e-06
-0.000130715
-2.97544e-06
-0.000130609
-3.84195e-06
-0.000130708
-4.18638e-06
-0.0001332
-4.49124e-06
-0.000139891
-3.56064e-06
-0.000144099
-1.11997e-06
-0.000145443
4.76569e-07
-0.000145696
9.39371e-07
-0.00014561
1.03555e-06
-0.000142957
5.74983e-07
-0.000136248
-8.16528e-07
-0.000130566
-3.76286e-06
-0.000127687
-6.7102e-06
-0.000126926
-8.27527e-06
-0.000127059
-9.51209e-06
-0.000129373
-1.01435e-05
-0.000133511
-9.90332e-06
-0.000136099
-9.33352e-06
-0.000137372
-9.36444e-06
-0.000137866
-1.00064e-05
-0.000137411
-1.13362e-05
-0.000135566
-1.35211e-05
-0.000131318
-1.58095e-05
-0.000125732
-2.14382e-05
-0.000133925
-2.98363e-05
5.31215e-05
-0.00013268
4.38836e-07
-0.000131694
1.00417e-06
-0.000131588
1.26547e-06
-0.000133146
1.53455e-06
-0.000135965
2.06114e-06
-0.000137336
2.36861e-06
-0.000137716
2.09897e-06
-0.000137697
1.78103e-06
-0.000137604
1.48541e-06
-0.000137365
1.17204e-06
-0.000135516
7.80521e-07
-0.000132824
1.15527e-06
-0.000131904
1.24441e-06
-0.000131658
1.23076e-06
-0.000131638
1.17701e-06
-0.000133138
1.19155e-06
-0.000137459
1.42756e-06
-0.000139444
1.73653e-06
-0.000139695
1.6922e-06
-0.000139629
1.56865e-06
-0.000139529
1.30891e-06
-0.000139181
1.26326e-06
-0.000136235
1.68744e-06
-0.00013319
1.63584e-06
-0.000132535
1.26734e-06
-0.00013245
1.01074e-06
-0.000132444
7.69185e-07
-0.000133769
5.70663e-07
-0.000138219
8.1245e-07
-0.000140737
1.43814e-06
-0.000141105
1.702e-06
-0.000141101
1.76145e-06
-0.000140957
1.80013e-06
-0.000140307
1.93455e-06
-0.000137642
1.87192e-06
-0.000134316
1.51481e-06
-0.000133335
9.86686e-07
-0.000133186
5.53586e-07
-0.000133166
1.84553e-07
-0.000133783
-1.83436e-07
-0.000138018
-2.06707e-08
-0.000141561
9.93743e-07
-0.000142286
1.83862e-06
-0.000142354
2.17879e-06
-0.000142193
2.35319e-06
-0.000141866
2.39207e-06
-0.00013989
2.15458e-06
-0.000135896
1.4898e-06
-0.000134044
4.83206e-07
-0.00013366
-1.57889e-07
-0.000133568
-5.97684e-07
-0.00013363
-6.80945e-07
-0.000136167
-7.77998e-07
-0.000141428
2.54372e-07
-0.000143443
1.83909e-06
-0.000143733
2.44671e-06
-0.000143776
2.62191e-06
-0.000143711
2.50307e-06
-0.000142501
2.28759e-06
-0.000137516
1.57167e-06
-0.000133839
-1.16447e-07
-0.000132696
-1.20012e-06
-0.000132498
-1.93553e-06
-0.000132541
-1.92019e-06
-0.000133503
-2.08894e-06
-0.00013954
-1.56942e-06
-0.000144274
7.00167e-07
-0.00014532
2.15666e-06
-0.00014541
2.56906e-06
-0.000145388
2.69286e-06
-0.000144684
2.42906e-06
-0.00013971
1.84827e-06
-0.000133973
-3.91323e-07
-0.000131262
-2.7738e-06
-0.000130198
-3.96876e-06
-0.00013011
-4.65447e-06
-0.000130285
-4.95068e-06
-0.000133376
-5.14893e-06
-0.000139715
-3.77371e-06
-0.000143308
-1.26413e-06
-0.000144542
8.53018e-08
-0.000144742
4.49757e-07
-0.000144475
5.72932e-07
-0.000141478
-2.66887e-07
-0.000135314
-1.91841e-06
-0.000129922
-4.9628e-06
-0.000127012
-7.92487e-06
-0.00012625
-9.59554e-06
-0.000126483
-1.06958e-05
-0.000129328
-1.13623e-05
-0.000133463
-1.09307e-05
-0.000135792
-1.04434e-05
-0.000136873
-1.07404e-05
-0.000137288
-1.19177e-05
-0.000136872
-1.38915e-05
-0.000134791
-1.57517e-05
-0.000129593
-1.97328e-05
-0.000132147
-3.09047e-05
5.5542e-05
-0.000131245
1.09347e-06
-0.000130716
1.29849e-06
-0.000130596
1.38556e-06
-0.000131912
1.48816e-06
-0.000136179
1.76302e-06
-0.000138114
2.04996e-06
-0.000138297
1.96059e-06
-0.000138188
1.76516e-06
-0.000138069
1.52487e-06
-0.000137593
1.2294e-06
-0.00013433
1.76997e-06
-0.000131812
1.80306e-06
-0.000131387
1.49004e-06
-0.000131285
1.28068e-06
-0.000131297
1.09307e-06
-0.00013272
1.04832e-06
-0.000137113
9.84598e-07
-0.000139419
1.40356e-06
-0.000139755
1.61842e-06
-0.000139698
1.6132e-06
-0.000139455
1.80862e-06
-0.00013843
2.11099e-06
-0.000135925
2.16733e-06
-0.000133329
1.77911e-06
-0.000132579
1.44561e-06
-0.000132464
1.04847e-06
-0.000132425
6.92244e-07
-0.000133066
3.01927e-07
-0.00013694
3.62492e-07
-0.000140012
1.11982e-06
-0.000140644
1.77439e-06
-0.000140671
2.09637e-06
-0.000140452
2.34282e-06
-0.000140043
2.39647e-06
-0.000138401
2.19383e-06
-0.000135344
1.68314e-06
-0.000133896
9.39581e-07
-0.000133554
3.72741e-07
-0.000133418
-5.11262e-08
-0.000133422
-1.54144e-07
-0.000135221
-2.03683e-07
-0.000139533
5.49963e-07
-0.000141262
1.87518e-06
-0.000141579
2.51997e-06
-0.00014165
2.70732e-06
-0.000141633
2.52087e-06
-0.000141267
2.36118e-06
-0.000138111
1.92559e-06
-0.000135072
7.07985e-07
-0.000133884
-2.90779e-07
-0.000133331
-7.31711e-07
-0.000133131
-7.03277e-07
-0.000133446
-6.88284e-07
-0.000137542
-3.70375e-07
-0.000141879
1.1819e-06
-0.000143198
2.5003e-06
-0.000143475
2.77914e-06
-0.00014358
2.65515e-06
-0.000143515
2.4168e-06
-0.000140964
2.14161e-06
-0.000135826
8.07141e-07
-0.000133199
-1.03842e-06
-0.000132098
-1.95788e-06
-0.000131585
-2.14381e-06
-0.00013164
-2.13739e-06
-0.000133617
-2.26851e-06
-0.000140096
-1.31332e-06
-0.000143776
1.14208e-06
-0.000144915
2.59013e-06
-0.000145281
2.76371e-06
-0.000145361
2.44838e-06
-0.000144369
2.29384e-06
-0.000138528
1.60442e-06
-0.000133034
-1.08004e-06
-0.000130572
-3.52245e-06
-0.000129565
-4.68682e-06
-0.000129278
-5.16708e-06
-0.000129498
-5.34291e-06
-0.000132793
-5.42145e-06
-0.0001389
-4.02012e-06
-0.000142221
-1.79489e-06
-0.000143414
-6.56217e-07
-0.000143577
-4.78545e-07
-0.00014331
-3.04801e-07
-0.00014063
-1.63445e-06
-0.000134625