/*--------------------------------*- C++ -*----------------------------------*\
  =========                 |
  \\      /  F ield         | OpenFOAM: The Open Source CFD Toolbox
   \\    /   O peration     | Website:  https://openfoam.org
    \\  /    A nd           | Version:  12
     \\/     M anipulation  |
\*---------------------------------------------------------------------------*/
FoamFile
{
    format      ascii;
    class       volVectorField;
    location    "17.7";
    object      U;
}
// * * * * * * * * * * * * * * * * * * * * * * * * * * * * * * * * * * * * * //

dimensions      [0 1 -1 0 0 0 0];

internalField   nonuniform List<vector> 
9801
(
(1.17283 -0.0654455 0)
(1.17018 -0.0626071 0)
(1.16482 -0.0586891 0)
(1.15894 -0.0550242 0)
(1.15495 -0.0528269 0)
(1.15156 -0.0512085 0)
(1.14827 -0.0497589 0)
(1.14568 -0.0480978 0)
(1.14777 -0.0466645 0)
(1.15562 -0.0448011 0)
(1.15909 -0.0418679 0)
(1.15786 -0.0392 0)
(1.15468 -0.0368348 0)
(1.15004 -0.0345299 0)
(1.14319 -0.0313379 0)
(1.137 -0.0281424 0)
(1.1331 -0.0256265 0)
(1.12972 -0.0239877 0)
(1.12639 -0.0227982 0)
(1.1238 -0.0214267 0)
(1.12643 -0.0203009 0)
(1.13285 -0.0190691 0)
(1.13506 -0.0168282 0)
(1.13367 -0.0145913 0)
(1.13047 -0.0125871 0)
(1.12633 -0.0105602 0)
(1.11838 -0.00725246 0)
(1.11074 -0.00443681 0)
(1.1064 -0.00258169 0)
(1.10265 -0.00130162 0)
(1.09901 -0.000501022 0)
(1.09647 0.000541469 0)
(1.10141 0.00115159 0)
(1.10858 0.00233957 0)
(1.10924 0.0042522 0)
(1.10633 0.0060615 0)
(1.10185 0.00764341 0)
(1.09319 0.0100401 0)
(1.08291 0.0126006 0)
(1.07684 0.0144048 0)
(1.0725 0.0156044 0)
(1.06848 0.0163158 0)
(1.06485 0.0169367 0)
(1.06775 0.0180853 0)
(1.07699 0.0194728 0)
(1.07919 0.0211628 0)
(1.07604 0.0224236 0)
(1.07062 0.0232121 0)
(1.06106 0.0238917 0)
(1.04965 0.0249631 0)
(1.04108 0.02661 0)
(1.0353 0.028195 0)
(1.03073 0.0294167 0)
(1.02638 0.0300432 0)
(1.02536 0.0311354 0)
(1.03471 0.032614 0)
(1.04036 0.033956 0)
(1.0384 0.0346601 0)
(1.03339 0.0348417 0)
(1.02401 0.0348998 0)
(1.00824 0.0346592 0)
(0.995693 0.0358496 0)
(0.987338 0.0376627 0)
(0.981361 0.0392454 0)
(0.976354 0.0401559 0)
(0.973258 0.0408994 0)
(0.981206 0.0421933 0)
(0.989852 0.0429851 0)
(0.989549 0.0428062 0)
(0.984776 0.0438455 0)
(0.976901 0.0457316 0)
(0.957738 0.0475175 0)
(0.937397 0.0495511 0)
(0.924217 0.0518785 0)
(0.915995 0.0534647 0)
(0.909225 0.0542371 0)
(0.906118 0.0537656 0)
(0.918256 0.0530913 0)
(0.927595 0.0544109 0)
(0.924853 0.0567378 0)
(0.917771 0.059148 0)
(0.90767 0.061597 0)
(0.88636 0.0634351 0)
(0.854666 0.0644751 0)
(0.831271 0.0643623 0)
(0.818378 0.0629866 0)
(0.809292 0.0609009 0)
(0.814971 0.0573775 0)
(0.831363 0.0571964 0)
(0.830857 0.0602187 0)
(0.820919 0.0646216 0)
(0.807297 0.0664337 0)
(0.78271 0.06589 0)
(0.738259 0.0616424 0)
(0.685944 0.055999 0)
(0.635606 0.0510433 0)
(0.593688 0.0012005 0)
(0.173938 -0.086894 0)
(-1.00743 -0.0600738 0)
(1.24509 -0.118211 0)
(1.23911 -0.115121 0)
(1.2311 -0.110614 0)
(1.22338 -0.107054 0)
(1.21815 -0.104497 0)
(1.21394 -0.102429 0)
(1.21028 -0.100884 0)
(1.20902 -0.0989303 0)
(1.21488 -0.0977212 0)
(1.21767 -0.0957949 0)
(1.2152 -0.0917774 0)
(1.21111 -0.0880015 0)
(1.20646 -0.0853581 0)
(1.20137 -0.0828606 0)
(1.19207 -0.079205 0)
(1.1835 -0.0756392 0)
(1.17793 -0.0727473 0)
(1.17355 -0.0705285 0)
(1.16979 -0.0689928 0)
(1.16859 -0.0672656 0)
(1.17497 -0.0663251 0)
(1.17804 -0.0648244 0)
(1.17546 -0.0617073 0)
(1.17113 -0.0586589 0)
(1.16626 -0.0562972 0)
(1.1596 -0.0531573 0)
(1.1481 -0.0483457 0)
(1.13983 -0.0447826 0)
(1.13449 -0.0424386 0)
(1.13015 -0.040775 0)
(1.12626 -0.0395687 0)
(1.12608 -0.0383277 0)
(1.134 -0.0384284 0)
(1.13649 -0.0366325 0)
(1.13339 -0.0332391 0)
(1.12865 -0.0303973 0)
(1.12341 -0.0280378 0)
(1.11224 -0.0241196 0)
(1.09999 -0.0199518 0)
(1.09281 -0.0172396 0)
(1.08775 -0.0154586 0)
(1.08339 -0.014253 0)
(1.07976 -0.0131286 0)
(1.0832 -0.0114817 0)
(1.091 -0.00944887 0)
(1.09094 -0.00677761 0)
(1.08704 -0.00467046 0)
(1.08248 -0.00352779 0)
(1.0746 -0.00216595 0)
(1.05983 0.00054338 0)
(1.04859 0.00450191 0)
(1.0415 0.00764355 0)
(1.03603 0.00961359 0)
(1.03123 0.0106217 0)
(1.02987 0.011994 0)
(1.03859 0.0144467 0)
(1.04321 0.0172562 0)
(1.04088 0.0194266 0)
(1.03628 0.0206289 0)
(1.03048 0.0211981 0)
(1.01609 0.0212712 0)
(1.0001 0.0229496 0)
(0.990027 0.026201 0)
(0.982974 0.0285807 0)
(0.977349 0.0297514 0)
(0.973854 0.0310396 0)
(0.981705 0.0337697 0)
(0.990102 0.0373457 0)
(0.988605 0.0407999 0)
(0.98365 0.0423241 0)
(0.977769 0.0427755 0)
(0.963791 0.0419747 0)
(0.941841 0.0405187 0)
(0.927127 0.0417652 0)
(0.917785 0.0430731 0)
(0.910564 0.0434525 0)
(0.906609 0.0449554 0)
(0.915476 0.0489305 0)
(0.923377 0.0544591 0)
(0.922098 0.0592443 0)
(0.916018 0.0616253 0)
(0.907946 0.0614136 0)
(0.890261 0.0579346 0)
(0.8578 0.0530787 0)
(0.83397 0.0514246 0)
(0.819958 0.0505271 0)
(0.810256 0.0498325 0)
(0.808412 0.0509188 0)
(0.818774 0.0611611 0)
(0.821522 0.071427 0)
(0.813526 0.0748524 0)
(0.800664 0.0740653 0)
(0.777647 0.0703481 0)
(0.733759 0.0623354 0)
(0.679829 0.0547401 0)
(0.626765 0.0509968 0)
(0.585544 0.00117015 0)
(0.161919 -0.0849155 0)
(-1.02341 -0.0825561 0)
(1.24098 -0.11555 0)
(1.23476 -0.112622 0)
(1.22697 -0.10779 0)
(1.21939 -0.104079 0)
(1.21401 -0.101214 0)
(1.20957 -0.0988269 0)
(1.20575 -0.0970662 0)
(1.20477 -0.0950554 0)
(1.2098 -0.0934174 0)
(1.21202 -0.0918642 0)
(1.21038 -0.0894492 0)
(1.20698 -0.0863026 0)
(1.2025 -0.0832357 0)
(1.19736 -0.0801653 0)
(1.1882 -0.0763305 0)
(1.17994 -0.0730171 0)
(1.17442 -0.0701733 0)
(1.16986 -0.0677189 0)
(1.1659 -0.0659114 0)
(1.16512 -0.0641264 0)
(1.17081 -0.0628621 0)
(1.17301 -0.0616053 0)
(1.17088 -0.0596285 0)
(1.16707 -0.0572005 0)
(1.16252 -0.0547449 0)
(1.15528 -0.0508842 0)
(1.14465 -0.0462407 0)
(1.13736 -0.0430986 0)
(1.13185 -0.0406818 0)
(1.12715 -0.0387975 0)
(1.12314 -0.0373314 0)
(1.12391 -0.0361999 0)
(1.12995 -0.0354999 0)
(1.13144 -0.0340222 0)
(1.12903 -0.0316287 0)
(1.12496 -0.0289467 0)
(1.11968 -0.025919 0)
(1.1086 -0.0216604 0)
(1.09817 -0.0186958 0)
(1.09145 -0.0168591 0)
(1.08602 -0.015259 0)
(1.08117 -0.0136339 0)
(1.07727 -0.0120608 0)
(1.0805 -0.01012 0)
(1.0876 -0.00786255 0)
(1.08765 -0.00514748 0)
(1.08412 -0.0027735 0)
(1.07969 -0.000987707 0)
(1.07141 0.00101852 0)
(1.05718 0.00234217 0)
(1.04714 0.00379738 0)
(1.04026 0.00602411 0)
(1.03439 0.00871517 0)
(1.02929 0.0108707 0)
(1.02759 0.0131516 0)
(1.03616 0.0161275 0)
(1.04124 0.0190113 0)
(1.03919 0.0211771 0)
(1.03461 0.0225829 0)
(1.02876 0.023577 0)
(1.01435 0.0236935 0)
(0.997381 0.0233053 0)
(0.987122 0.0248074 0)
(0.980016 0.0272479 0)
(0.97433 0.0294992 0)
(0.970655 0.031856 0)
(0.977566 0.0359299 0)
(0.986518 0.0405467 0)
(0.985888 0.0439589 0)
(0.981079 0.0456696 0)
(0.975362 0.0461031 0)
(0.962875 0.0450079 0)
(0.939511 0.0406676 0)
(0.922592 0.0390629 0)
(0.91287 0.0403014 0)
(0.905455 0.0418801 0)
(0.900177 0.0442125 0)
(0.905967 0.0505173 0)
(0.915736 0.0572222 0)
(0.916256 0.0590869 0)
(0.910925 0.0584397 0)
(0.903631 0.0579403 0)
(0.888227 0.0572858 0)
(0.85635 0.0519665 0)
(0.82978 0.0467807 0)
(0.813592 0.0458426 0)
(0.803175 0.0457163 0)
(0.795664 0.0460632 0)
(0.801128 0.0501315 0)
(0.808135 0.0548008 0)
(0.803307 0.0561734 0)
(0.791832 0.0560885 0)
(0.772463 0.0539552 0)
(0.733705 0.0456179 0)
(0.684595 0.0340997 0)
(0.631434 0.0219267 0)
(0.598938 -0.0457355 0)
(0.152726 -0.0942852 0)
(-1.02951 -0.0746339 0)
(1.23156 -0.114217 0)
(1.22556 -0.111405 0)
(1.2179 -0.1062 0)
(1.21113 -0.102848 0)
(1.20597 -0.100342 0)
(1.20151 -0.0980935 0)
(1.19764 -0.0960385 0)
(1.19724 -0.0937017 0)
(1.20158 -0.0917479 0)
(1.20256 -0.0896911 0)
(1.20074 -0.0874043 0)
(1.19786 -0.084863 0)
(1.19399 -0.0822817 0)
(1.18931 -0.0793844 0)
(1.18029 -0.0751622 0)
(1.17273 -0.0721162 0)
(1.1676 -0.0699875 0)
(1.1631 -0.0680809 0)
(1.15919 -0.0661528 0)
(1.1591 -0.0639996 0)
(1.16401 -0.0621278 0)
(1.16496 -0.0598714 0)
(1.16266 -0.057559 0)
(1.15918 -0.0553229 0)
(1.1551 -0.0529994 0)
(1.14702 -0.0493481 0)
(1.13738 -0.0459049 0)
(1.13126 -0.0438485 0)
(1.12628 -0.0422903 0)
(1.12172 -0.0407462 0)
(1.11826 -0.0388664 0)
(1.11996 -0.0370411 0)
(1.12408 -0.0346811 0)
(1.1241 -0.031305 0)
(1.12179 -0.0282622 0)
(1.11822 -0.0258728 0)
(1.1134 -0.0236454 0)
(1.10264 -0.0214915 0)
(1.09282 -0.0198282 0)
(1.08659 -0.0182302 0)
(1.08139 -0.0166348 0)
(1.07658 -0.0149718 0)
(1.07282 -0.0129536 0)
(1.07545 -0.0100783 0)
(1.08128 -0.00661879 0)
(1.08157 -0.00333944 0)
(1.07865 -0.000664215 0)
(1.07451 0.00125952 0)
(1.06746 0.00297739 0)
(1.05273 0.00325695 0)
(1.04133 0.00398838 0)
(1.03478 0.00557229 0)
(1.02937 0.00730146 0)
(1.02442 0.00912036 0)
(1.02289 0.0114854 0)
(1.03063 0.0148514 0)
(1.03582 0.0183013 0)
(1.03418 0.0207733 0)
(1.02994 0.0225972 0)
(1.02452 0.024231 0)
(1.01131 0.0252978 0)
(0.992476 0.0246738 0)
(0.980719 0.0254221 0)
(0.973741 0.0269166 0)
(0.968014 0.0280624 0)
(0.963754 0.0294303 0)
(0.969017 0.0327778 0)
(0.978512 0.0374038 0)
(0.979089 0.0404714 0)
(0.974875 0.0423847 0)
(0.969452 0.0436408 0)
(0.959558 0.0448284 0)
(0.936361 0.0419866 0)
(0.91543 0.0386678 0)
(0.904064 0.0388247 0)
(0.8967 0.0398152 0)
(0.890497 0.0407846 0)
(0.892518 0.0445921 0)
(0.903277 0.0521086 0)
(0.905464 0.0573303 0)
(0.900613 0.0601884 0)
(0.893837 0.0615496 0)
(0.883205 0.0618525 0)
(0.857567 0.0546631 0)
(0.826034 0.0428475 0)
(0.805874 0.0371283 0)
(0.793582 0.0365678 0)
(0.78397 0.0365183 0)
(0.781098 0.0395154 0)
(0.785368 0.0497934 0)
(0.782478 0.0579949 0)
(0.772619 0.0593461 0)
(0.75868 0.0571945 0)
(0.729381 0.046199 0)
(0.689655 0.0252093 0)
(0.642485 0.00572552 0)
(0.62372 -0.064426 0)
(0.14617 -0.0913612 0)
(-1.03867 -0.0709932 0)
(1.22286 -0.109759 0)
(1.21636 -0.107622 0)
(1.20798 -0.103703 0)
(1.20153 -0.100837 0)
(1.19664 -0.0981582 0)
(1.19242 -0.0956204 0)
(1.18888 -0.0930032 0)
(1.18948 -0.0896661 0)
(1.1941 -0.0867738 0)
(1.19486 -0.0844087 0)
(1.19278 -0.082197 0)
(1.18965 -0.0802254 0)
(1.18581 -0.0785274 0)
(1.18086 -0.0763647 0)
(1.1716 -0.073097 0)
(1.16453 -0.0705998 0)
(1.15948 -0.0686468 0)
(1.15506 -0.0667782 0)
(1.15125 -0.0646544 0)
(1.15146 -0.0613169 0)
(1.15655 -0.0576249 0)
(1.15775 -0.0548221 0)
(1.15555 -0.0525303 0)
(1.15214 -0.0505967 0)
(1.1482 -0.0489551 0)
(1.1403 -0.0471544 0)
(1.13037 -0.0455834 0)
(1.12392 -0.0438294 0)
(1.1188 -0.041999 0)
(1.11427 -0.040222 0)
(1.11055 -0.0378493 0)
(1.11194 -0.0330756 0)
(1.11694 -0.0281545 0)
(1.11792 -0.0253469 0)
(1.11572 -0.0233383 0)
(1.11211 -0.0217089 0)
(1.10782 -0.020759 0)
(1.09818 -0.0204275 0)
(1.08687 -0.0205113 0)
(1.07974 -0.0191816 0)
(1.07422 -0.017157 0)
(1.06935 -0.0149932 0)
(1.0653 -0.0125788 0)
(1.06705 -0.00765943 0)
(1.07368 -0.00206852 0)
(1.07503 0.00107634 0)
(1.07245 0.00287141 0)
(1.06841 0.00408804 0)
(1.06312 0.00500414 0)
(1.04979 0.00433933 0)
(1.0357 0.00306845 0)
(1.02789 0.00393961 0)
(1.02221 0.00546553 0)
(1.01718 0.00702929 0)
(1.01449 0.0097751 0)
(1.02078 0.0156611 0)
(1.02707 0.0214144 0)
(1.02651 0.0248166 0)
(1.0228 0.0270959 0)
(1.01807 0.0285903 0)
(1.00876 0.0291776 0)
(0.989744 0.0252291 0)
(0.974649 0.022059 0)
(0.966646 0.0224048 0)
(0.960579 0.0235935 0)
(0.955281 0.0252157 0)
(0.95692 0.0298879 0)
(0.96636 0.0378012 0)
(0.968782 0.0431423 0)
(0.965505 0.0459468 0)
(0.960562 0.0477351 0)
(0.953819 0.0487602 0)
(0.936297 0.0455814 0)
(0.911319 0.0378882 0)
(0.89629 0.0341981 0)
(0.888041 0.034628 0)
(0.88113 0.0353753 0)
(0.87803 0.0383465 0)
(0.886445 0.047771 0)
(0.892602 0.0569002 0)
(0.88957 0.0603307 0)
(0.882968 0.0606698 0)
(0.875004 0.0600739 0)
(0.857396 0.0558624 0)
(0.826462 0.0445029 0)
(0.800336 0.0335859 0)
(0.784744 0.0277996 0)
(0.774486 0.0269562 0)
(0.767486 0.0275472 0)
(0.768837 0.0333459 0)
(0.769366 0.0410903 0)
(0.762598 0.0435078 0)
(0.752123 0.0419247 0)
(0.735517 0.0361245 0)
(0.705528 0.0224063 0)
(0.664261 0.00554964 0)
(0.642462 -0.0585554 0)
(0.141271 -0.0904861 0)
(-1.04514 -0.067447 0)
(1.21556 -0.106282 0)
(1.20896 -0.10435 0)
(1.19988 -0.101324 0)
(1.19295 -0.0988695 0)
(1.18809 -0.0962646 0)
(1.18396 -0.0938085 0)
(1.18055 -0.0912878 0)
(1.18179 -0.0875503 0)
(1.18706 -0.0839068 0)
(1.18786 -0.0815954 0)
(1.18577 -0.079587 0)
(1.18267 -0.0775943 0)
(1.17888 -0.075963 0)
(1.17387 -0.0741515 0)
(1.16422 -0.0718344 0)
(1.15682 -0.0697978 0)
(1.15166 -0.0678128 0)
(1.14727 -0.0658056 0)
(1.14344 -0.0637429 0)
(1.14313 -0.0600539 0)
(1.14884 -0.0550149 0)
(1.15085 -0.051716 0)
(1.14891 -0.0496861 0)
(1.14567 -0.0479297 0)
(1.14184 -0.0466015 0)
(1.13555 -0.0456669 0)
(1.12481 -0.0461934 0)
(1.11721 -0.0452805 0)
(1.11159 -0.0427091 0)
(1.10676 -0.0396588 0)
(1.10263 -0.0370343 0)
(1.10223 -0.0324826 0)
(1.10867 -0.0258675 0)
(1.11134 -0.0223487 0)
(1.1094 -0.0211493 0)
(1.10582 -0.0204475 0)
(1.10181 -0.0200158 0)
(1.09462 -0.0199339 0)
(1.08192 -0.0210846 0)
(1.07269 -0.0201347 0)
(1.06651 -0.0174 0)
(1.06138 -0.014353 0)
(1.05707 -0.0118888 0)
(1.0572 -0.00777794 0)
(1.06495 -0.0017106 0)
(1.06793 0.00216315 0)
(1.06578 0.00418132 0)
(1.0619 0.00548025 0)
(1.0575 0.00633746 0)
(1.04752 0.00596656 0)
(1.03169 0.00333573 0)
(1.02108 0.00261709 0)
(1.01465 0.00435508 0)
(1.00937 0.00658514 0)
(1.00532 0.00908337 0)
(1.009 0.0149266 0)
(1.01694 0.0219709 0)
(1.01799 0.0257831 0)
(1.01485 0.0280033 0)
(1.01032 0.0294343 0)
(1.00443 0.0299637 0)
(0.98916 0.0269094 0)
(0.970249 0.0218024 0)
(0.959202 0.0199612 0)
(0.952419 0.0211701 0)
(0.946676 0.022864 0)
(0.944349 0.0265167 0)
(0.952688 0.0356996 0)
(0.958553 0.0436505 0)
(0.956682 0.0466212 0)
(0.952047 0.0476874 0)
(0.946557 0.0480024 0)
(0.935631 0.0468053 0)
(0.911878 0.0395094 0)
(0.891787 0.0328642 0)
(0.880393 0.0302939 0)
(0.872743 0.0310062 0)
(0.866545 0.0325998 0)
(0.868692 0.03957 0)
(0.878043 0.0522807 0)
(0.879607 0.0601595 0)
(0.874638 0.0624962 0)
(0.867594 0.0626463 0)
(0.856787 0.0610801 0)
(0.832544 0.0501802 0)
(0.802687 0.0349969 0)
(0.781474 0.0247236 0)
(0.768628 0.0190653 0)
(0.75963 0.0177082 0)
(0.755654 0.0199556 0)
(0.756729 0.0268978 0)
(0.753623 0.0314697 0)
(0.746375 0.0307935 0)
(0.736695 0.026721 0)
(0.720012 0.0169227 0)
(0.69259 0.00314019 0)
(0.669447 -0.0484502 0)
(0.136128 -0.0900906 0)
(-1.0504 -0.062653 0)
(1.20976 -0.10268 0)
(1.20354 -0.101008 0)
(1.19428 -0.0989128 0)
(1.18592 -0.0977675 0)
(1.18091 -0.0954683 0)
(1.1768 -0.0926955 0)
(1.17336 -0.0898095 0)
(1.17399 -0.0852476 0)
(1.18068 -0.0795787 0)
(1.18279 -0.0765379 0)
(1.18051 -0.0752963 0)
(1.17712 -0.0743755 0)
(1.17331 -0.073404 0)
(1.16847 -0.0721802 0)
(1.15884 -0.0712891 0)
(1.15046 -0.0699861 0)
(1.14507 -0.0676135 0)
(1.14057 -0.0648407 0)
(1.13667 -0.0623321 0)
(1.13504 -0.0587385 0)
(1.1409 -0.0526201 0)
(1.14497 -0.0480144 0)
(1.14362 -0.0460333 0)
(1.14033 -0.0450694 0)
(1.13647 -0.0443476 0)
(1.13184 -0.043631 0)
(1.12187 -0.0437351 0)
(1.11151 -0.0439042 0)
(1.10486 -0.0419998 0)
(1.09977 -0.038947 0)
(1.09554 -0.0360345 0)
(1.09327 -0.0325621 0)
(1.09957 -0.0260078 0)
(1.10527 -0.0204908 0)
(1.10435 -0.0182218 0)
(1.10092 -0.0172491 0)
(1.09695 -0.0166411 0)
(1.09177 -0.0161617 0)
(1.07958 -0.0176079 0)
(1.06685 -0.0189273 0)
(1.05921 -0.017429 0)
(1.05398 -0.0145913 0)
(1.04961 -0.0118495 0)
(1.04822 -0.00817741 0)
(1.05568 -0.00227936 0)
(1.06082 0.00241789 0)
(1.0596 0.0049598 0)
(1.05609 0.0068491 0)
(1.05177 0.00821596 0)
(1.04538 0.00885569 0)
(1.03042 0.00577904 0)
(1.01594 0.00335796 0)
(1.00762 0.00410738 0)
(1.00195 0.00632469 0)
(0.997281 0.00855454 0)
(0.997505 0.0131484 0)
(1.00644 0.0212316 0)
(1.01036 0.0264094 0)
(1.00819 0.0282983 0)
(1.00396 0.0291902 0)
(0.99898 0.0295325 0)
(0.989595 0.0283762 0)
(0.969929 0.0224492 0)
(0.954215 0.0190768 0)
(0.945055 0.019759 0)
(0.938726 0.0220064 0)
(0.933888 0.0244453 0)
(0.937635 0.0315612 0)
(0.948001 0.042491 0)
(0.949978 0.0477955 0)
(0.946149 0.0485302 0)
(0.940813 0.0478463 0)
(0.933972 0.0468003 0)
(0.916646 0.0409265 0)
(0.892295 0.0312144 0)
(0.875838 0.0267938 0)
(0.866211 0.0265479 0)
(0.859315 0.0276179 0)
(0.855179 0.0307124 0)
(0.861968 0.0412767 0)
(0.869764 0.05311 0)
(0.86872 0.0589288 0)
(0.862738 0.0604119 0)
(0.855059 0.0601744 0)
(0.840245 0.0561213 0)
(0.813076 0.0409845 0)
(0.786594 0.0246855 0)
(0.768087 0.0153539 0)
(0.756791 0.0108857 0)
(0.749106 0.00987263 0)
(0.747821 0.0128064 0)
(0.748475 0.0178008 0)
(0.744959 0.0182228 0)
(0.739052 0.0134925 0)
(0.729796 0.00657995 0)
(0.713169 -0.00348054 0)
(0.693126 -0.0337675 0)
(0.135103 -0.0888495 0)
(-1.05553 -0.0588272 0)
(1.20491 -0.0995298 0)
(1.19907 -0.0979517 0)
(1.19139 -0.0954168 0)
(1.18177 -0.0945062 0)
(1.1754 -0.0932638 0)
(1.17097 -0.0915082 0)
(1.16719 -0.0895443 0)
(1.16582 -0.0860399 0)
(1.17275 -0.0788608 0)
(1.17791 -0.0732426 0)
(1.17668 -0.0710968 0)
(1.17329 -0.0701914 0)
(1.16941 -0.0693032 0)
(1.16481 -0.0682111 0)
(1.15647 -0.0674559 0)
(1.14668 -0.067295 0)
(1.13963 -0.0662537 0)
(1.13472 -0.0640862 0)
(1.13068 -0.0615605 0)
(1.12788 -0.0584184 0)
(1.13229 -0.0523139 0)
(1.13913 -0.0462189 0)
(1.13946 -0.0433343 0)
(1.13657 -0.0418505 0)
(1.13282 -0.0407027 0)
(1.12876 -0.0397596 0)
(1.12107 -0.0400073 0)
(1.10817 -0.0411164 0)
(1.09881 -0.0404038 0)
(1.09341 -0.0382019 0)
(1.08924 -0.0355101 0)
(1.08622 -0.0324377 0)
(1.0904 -0.0272815 0)
(1.09862 -0.0216839 0)
(1.0995 -0.0184652 0)
(1.09646 -0.0165257 0)
(1.09243 -0.0149542 0)
(1.08801 -0.0136746 0)
(1.0788 -0.0139076 0)
(1.06356 -0.0160594 0)
(1.05318 -0.016022 0)
(1.04756 -0.0145197 0)
(1.04323 -0.0125204 0)
(1.04079 -0.00941188 0)
(1.04678 -0.00333126 0)
(1.05406 0.00262302 0)
(1.0541 0.00557906 0)
(1.05085 0.00719606 0)
(1.04655 0.00829747 0)
(1.04177 0.00903319 0)
(1.03058 0.00808762 0)
(1.01336 0.00503948 0)
(1.0019 0.0047234 0)
(0.995518 0.00635371 0)
(0.990608 0.00835672 0)
(0.987959 0.0114695 0)
(0.995566 0.0189813 0)
(1.00372 0.0262301 0)
(1.00344 0.0288587 0)
(0.999412 0.0293287 0)
(0.994598 0.0292965 0)
(0.988604 0.0291828 0)
(0.97207 0.0256347 0)
(0.951974 0.0206075 0)
(0.939653 0.0196864 0)
(0.932565 0.021031 0)
(0.927154 0.0226826 0)
(0.9254 0.0265068 0)
(0.935323 0.0365681 0)
(0.943367 0.0454243 0)
(0.94225 0.0482942 0)
(0.937411 0.0487218 0)
(0.931783 0.048435 0)
(0.920778 0.0456832 0)
(0.897147 0.0357714 0)
(0.875628 0.0274331 0)
(0.862712 0.0243122 0)
(0.854511 0.0239557 0)
(0.847984 0.0246948 0)
(0.846846 0.0296835 0)
(0.855895 0.043109 0)
(0.860953 0.0536048 0)
(0.858033 0.0579033 0)
(0.85127 0.0586853 0)
(0.842706 0.0576363 0)
(0.825603 0.0506567 0)
(0.798004 0.0335959 0)
(0.773771 0.017893 0)
(0.757491 0.0086454 0)
(0.747766 0.00381256 0)
(0.741709 0.0022619 0)
(0.742294 0.00542445 0)
(0.742659 0.00856848 0)
(0.740051 0.00520629 0)
(0.735501 -0.00357554 0)
(0.726436 -0.011716 0)
(0.712179 -0.0280325 0)
(0.137666 -0.0860553 0)
(-1.05976 -0.0549314 0)
(1.20169 -0.0952292 0)
(1.1961 -0.0934411 0)
(1.19034 -0.0914493 0)
(1.18032 -0.0914032 0)
(1.17212 -0.0902486 0)
(1.16699 -0.088713 0)
(1.16299 -0.0871589 0)
(1.15973 -0.0854229 0)
(1.16337 -0.0803947 0)
(1.1719 -0.072945 0)
(1.17292 -0.0688389 0)
(1.1701 -0.0668372 0)
(1.16645 -0.0653394 0)
(1.16245 -0.0640016 0)
(1.15603 -0.0636243 0)
(1.14503 -0.0646037 0)
(1.13574 -0.0639021 0)
(1.12993 -0.0622376 0)
(1.12555 -0.0603533 0)
(1.12194 -0.0584525 0)
(1.1239 -0.0541344 0)
(1.13279 -0.0474146 0)
(1.13527 -0.0430392 0)
(1.13284 -0.0407283 0)
(1.12912 -0.0392032 0)
(1.12488 -0.0378694 0)
(1.11921 -0.0366589 0)
(1.10672 -0.0374294 0)
(1.09491 -0.0374129 0)
(1.08856 -0.0360975 0)
(1.08419 -0.0346128 0)
(1.08053 -0.0329003 0)
(1.08282 -0.028851 0)
(1.09174 -0.0226019 0)
(1.09429 -0.0183307 0)
(1.09185 -0.0158526 0)
(1.08799 -0.0141049 0)
(1.08363 -0.0126861 0)
(1.07721 -0.0115012 0)
(1.06271 -0.0128105 0)
(1.04999 -0.0137348 0)
(1.04303 -0.0129232 0)
(1.03835 -0.011903 0)
(1.03455 -0.0105851 0)
(1.03787 -0.00567532 0)
(1.04728 0.00197879 0)
(1.04949 0.00623233 0)
(1.0467 0.00801262 0)
(1.04261 0.00928882 0)
(1.0381 0.0103054 0)
(1.03026 0.0107757 0)
(1.01287 0.00805176 0)
(0.998624 0.00632463 0)
(0.990781 0.00661067 0)
(0.985549 0.00744719 0)
(0.981394 0.00889745 0)
(0.984908 0.014124 0)
(0.996282 0.0231604 0)
(0.999355 0.028143 0)
(0.996115 0.0297435 0)
(0.991575 0.0305613 0)
(0.986382 0.0312193 0)
(0.974385 0.0303784 0)
(0.952786 0.0249652 0)
(0.937539 0.0215053 0)
(0.929205 0.0205115 0)
(0.923334 0.020615 0)
(0.918459 0.0214319 0)
(0.92191 0.02727 0)
(0.934033 0.0393318 0)
(0.93796 0.0463586 0)
(0.934575 0.0484794 0)
(0.929191 0.0490292 0)
(0.922429 0.049541 0)
(0.906029 0.0445081 0)
(0.881009 0.0315345 0)
(0.863028 0.0236962 0)
(0.851885 0.0211019 0)
(0.844654 0.0204236 0)
(0.83894 0.0210392 0)
(0.841521 0.0271887 0)
(0.851125 0.0402623 0)
(0.853871 0.0484317 0)
(0.849784 0.0515621 0)
(0.842513 0.0529453 0)
(0.831693 0.0522744 0)
(0.812346 0.0446054 0)
(0.786038 0.0268003 0)
(0.764234 0.0103299 0)
(0.74918 0.000460878 0)
(0.740677 -0.00479783 0)
(0.736543 -0.00654943 0)
(0.73923 -0.00302486 0)
(0.74079 -0.00254391 0)
(0.739782 -0.0101643 0)
(0.735466 -0.017848 0)
(0.726288 -0.0261923 0)
(0.142271 -0.0816462 0)
(-1.06339 -0.0515513 0)
(1.198 -0.093299 0)
(1.1925 -0.0906538 0)
(1.18805 -0.0882767 0)
(1.17945 -0.0876087 0)
(1.17015 -0.0872025 0)
(1.1646 -0.0858227 0)
(1.16042 -0.0841504 0)
(1.15681 -0.0826806 0)
(1.1566 -0.0798031 0)
(1.16469 -0.0743687 0)
(1.16829 -0.0694387 0)
(1.16634 -0.0662962 0)
(1.16283 -0.0639729 0)
(1.15874 -0.0620196 0)
(1.1542 -0.060379 0)
(1.14453 -0.0604535 0)
(1.13344 -0.0610953 0)
(1.12666 -0.0596913 0)
(1.12212 -0.0577377 0)
(1.11836 -0.0559498 0)
(1.11786 -0.0529748 0)
(1.12596 -0.0478005 0)
(1.13037 -0.0434099 0)
(1.12877 -0.0405994 0)
(1.12528 -0.0383741 0)
(1.1212 -0.0363687 0)
(1.11666 -0.0347028 0)
(1.10623 -0.0341042 0)
(1.093 -0.0348716 0)
(1.08547 -0.0340793 0)
(1.08078 -0.0328194 0)
(1.07678 -0.0315499 0)
(1.07657 -0.0285196 0)
(1.08494 -0.0226403 0)
(1.08917 -0.0179743 0)
(1.08751 -0.0152854 0)
(1.08407 -0.0130553 0)
(1.07997 -0.011204 0)
(1.0752 -0.0097495 0)
(1.06321 -0.0100408 0)
(1.04864 -0.0121135 0)
(1.04035 -0.0121281 0)
(1.03495 -0.0110203 0)
(1.03052 -0.00999841 0)
(1.02951 -0.00744858 0)
(1.0389 0.000131625 0)
(1.0449 0.00669382 0)
(1.04342 0.00947779 0)
(1.03961 0.0108528 0)
(1.03522 0.011993 0)
(1.0293 0.0130537 0)
(1.01442 0.0113874 0)
(0.997595 0.00772877 0)
(0.988269 0.00677612 0)
(0.982504 0.00701692 0)
(0.977555 0.00744462 0)
(0.975754 0.00953574 0)
(0.98565 0.0183403 0)
(0.993551 0.0272708 0)
(0.992356 0.0310126 0)
(0.988282 0.0325789 0)
(0.983632 0.0339428 0)
(0.976454 0.03443 0)
(0.958315 0.0290749 0)
(0.938962 0.0213328 0)
(0.927951 0.0185451 0)
(0.92107 0.0177842 0)
(0.915246 0.0177667 0)
(0.911507 0.0195635 0)
(0.919687 0.030071 0)
(0.929784 0.0435229 0)
(0.930222 0.0497119 0)
(0.926085 0.0519629 0)
(0.920879 0.0524743 0)
(0.912314 0.0520904 0)
(0.891583 0.0426587 0)
(0.867509 0.0281759 0)
(0.852604 0.020613 0)
(0.843396 0.0174316 0)
(0.836637 0.0154762 0)
(0.831579 0.0160413 0)
(0.835912 0.0246605 0)
(0.843186 0.0388034 0)
(0.843232 0.0474761 0)
(0.838217 0.0509581 0)
(0.830824 0.0516302 0)
(0.819942 0.0482739 0)
(0.801605 0.0374972 0)
(0.777216 0.0183529 0)
(0.756716 0.00116724 0)
(0.742635 -0.00983499 0)
(0.735262 -0.0148617 0)
(0.733069 -0.0149322 0)
(0.737923 -0.0102888 0)
(0.741951 -0.0132814 0)
(0.742243 -0.0223085 0)
(0.736641 -0.0264073 0)
(0.148778 -0.0766806 0)
(-1.06664 -0.0485106 0)
(1.19496 -0.0913881 0)
(1.18986 -0.0882437 0)
(1.1857 -0.085946 0)
(1.17905 -0.0845158 0)
(1.16868 -0.0839099 0)
(1.16231 -0.0828205 0)
(1.15814 -0.0813285 0)
(1.15455 -0.0799661 0)
(1.15302 -0.0776415 0)
(1.1588 -0.0734672 0)
(1.16312 -0.0693034 0)
(1.16223 -0.0658616 0)
(1.15932 -0.062913 0)
(1.1556 -0.0604108 0)
(1.15146 -0.0585843 0)
(1.14462 -0.057414 0)
(1.13206 -0.0579473 0)
(1.12393 -0.0572553 0)
(1.1193 -0.0557919 0)
(1.11543 -0.0544418 0)
(1.11341 -0.0521289 0)
(1.1198 -0.0472191 0)
(1.12543 -0.0424896 0)
(1.1247 -0.03946 0)
(1.12163 -0.0370311 0)
(1.11781 -0.0350707 0)
(1.11362 -0.0334006 0)
(1.1057 -0.0320539 0)
(1.092 -0.032535 0)
(1.08317 -0.0325646 0)
(1.07807 -0.0317112 0)
(1.07391 -0.0308924 0)
(1.07124 -0.029114 0)
(1.07744 -0.0230739 0)
(1.08427 -0.0163489 0)
(1.08402 -0.0130498 0)
(1.08093 -0.0112016 0)
(1.07708 -0.0095914 0)
(1.07287 -0.0083481 0)
(1.06426 -0.0080673 0)
(1.04868 -0.0105675 0)
(1.03828 -0.0118178 0)
(1.0324 -0.0113807 0)
(1.02766 -0.010443 0)
(1.02383 -0.00901695 0)
(1.0286 -0.00293201 0)
(1.03834 0.00636345 0)
(1.03969 0.0111053 0)
(1.03667 0.0131675 0)
(1.0327 0.0145531 0)
(1.02821 0.0155378 0)
(1.01772 0.0143392 0)
(0.999519 0.00880731 0)
(0.987283 0.00543282 0)
(0.980461 0.00500994 0)
(0.975014 0.00551738 0)
(0.970389 0.00631516 0)
(0.972728 0.0120731 0)
(0.984099 0.025146 0)
(0.987659 0.0330718 0)
(0.985089 0.0357452 0)
(0.980718 0.036313 0)
(0.975776 0.036622 0)
(0.965653 0.0338963 0)
(0.94535 0.0236621 0)
(0.929158 0.0159965 0)
(0.919516 0.014148 0)
(0.912725 0.0145186 0)
(0.907061 0.0151969 0)
(0.905521 0.0193785 0)
(0.916204 0.0343852 0)
(0.923397 0.047719 0)
(0.921898 0.0525909 0)
(0.917007 0.0539341 0)
(0.911508 0.0538807 0)
(0.901541 0.0514861 0)
(0.880074 0.0377247 0)
(0.858671 0.0213656 0)
(0.844708 0.0133924 0)
(0.835091 0.011302 0)
(0.828455 0.010922 0)
(0.824094 0.0127709 0)
(0.828681 0.0233099 0)
(0.834415 0.0364072 0)
(0.833873 0.043038 0)
(0.829044 0.0450757 0)
(0.821594 0.0450753 0)
(0.810664 0.0403967 0)
(0.793675 0.0286198 0)
(0.770516 0.00861064 0)
(0.750499 -0.0093473 0)
(0.737647 -0.0209092 0)
(0.731514 -0.0247561 0)
(0.732156 -0.023066 0)
(0.740727 -0.0204891 0)
(0.746864 -0.0262775 0)
(0.744663 -0.0294908 0)
(0.156514 -0.0695583 0)
(-1.07003 -0.0458892 0)
(1.1919 -0.0897446 0)
(1.18705 -0.0866469 0)
(1.18301 -0.0844461 0)
(1.17751 -0.0826477 0)
(1.16725 -0.0812145 0)
(1.15978 -0.0800429 0)
(1.1552 -0.0785287 0)
(1.15142 -0.0771624 0)
(1.14933 -0.0750667 0)
(1.1545 -0.0710371 0)
(1.15894 -0.0672088 0)
(1.15841 -0.0643093 0)
(1.15585 -0.0617221 0)
(1.15243 -0.059435 0)
(1.14838 -0.0576109 0)
(1.14319 -0.0559423 0)
(1.13139 -0.0552443 0)
(1.12148 -0.0548978 0)
(1.11629 -0.0538095 0)
(1.11229 -0.05267 0)
(1.10923 -0.0511316 0)
(1.1136 -0.0465521 0)
(1.12069 -0.0408157 0)
(1.12103 -0.0375081 0)
(1.11834 -0.0353105 0)
(1.11477 -0.0333552 0)
(1.11073 -0.0317736 0)
(1.10503 -0.0304733 0)
(1.09233 -0.0310287 0)
(1.08151 -0.0317483 0)
(1.07546 -0.0311014 0)
(1.07086 -0.0299707 0)
(1.06701 -0.028897 0)
(1.06893 -0.0245685 0)
(1.07796 -0.0162735 0)
(1.08033 -0.0112997 0)
(1.0779 -0.0091143 0)
(1.07434 -0.00767035 0)
(1.0703 -0.00663097 0)
(1.06455 -0.00606294 0)
(1.05057 -0.00865348 0)
(1.03732 -0.0116066 0)
(1.02991 -0.0118505 0)
(1.02447 -0.0107879 0)
(1.02 -0.00957978 0)
(1.01874 -0.00633569 0)
(1.02852 0.00398165 0)
(1.03485 0.0124996 0)
(1.03366 0.0155927 0)
(1.02986 0.0166203 0)
(1.02565 0.0172657 0)
(1.01986 0.0171821 0)
(1.00461 0.0121938 0)
(0.988203 0.00575449 0)
(0.978409 0.00381097 0)
(0.971823 0.00444162 0)
(0.966623 0.00572696 0)
(0.963106 0.00771851 0)
(0.970313 0.0174901 0)
(0.980521 0.0307763 0)
(0.981767 0.0364869 0)
(0.978695 0.0382014 0)
(0.974272 0.038419 0)
(0.96864 0.038241 0)
(0.954235 0.0322124 0)
(0.933683 0.020145 0)
(0.919695 0.0136058 0)
(0.910588 0.0122764 0)
(0.903366 0.0133678 0)
(0.897919 0.0148902 0)
(0.898767 0.0219204 0)
(0.910559 0.0391517 0)
(0.915842 0.0508119 0)
(0.913619 0.0543252 0)
(0.909362 0.0536388 0)
(0.903679 0.0526249 0)
(0.893071 0.0487471 0)
(0.870686 0.0340116 0)
(0.849171 0.0191633 0)
(0.835546 0.0121304 0)
(0.826307 0.00927363 0)
(0.819816 0.00871315 0)
(0.816305 0.0107995 0)
(0.821623 0.0213534 0)
(0.826761 0.0327468 0)
(0.825989 0.0376693 0)
(0.821267 0.0382581 0)
(0.813932 0.0371077 0)
(0.803505 0.0311619 0)
(0.787139 0.0194279 0)
(0.764555 -0.000896488 0)
(0.745451 -0.0196033 0)
(0.734244 -0.0312133 0)
(0.729561 -0.034066 0)
(0.734534 -0.0326985 0)
(0.746635 -0.0338088 0)
(0.748685 -0.0352351 0)
(0.164859 -0.0589769 0)
(-1.07325 -0.0428949 0)
(1.18858 -0.0875895 0)
(1.18389 -0.0847235 0)
(1.18008 -0.082831 0)
(1.1753 -0.081206 0)
(1.16558 -0.0795679 0)
(1.15713 -0.0781211 0)
(1.15204 -0.0763834 0)
(1.14804 -0.0748696 0)
(1.14519 -0.0729652 0)
(1.1496 -0.0687625 0)
(1.15517 -0.0645288 0)
(1.15494 -0.0619264 0)
(1.15252 -0.0597174 0)
(1.14924 -0.0577179 0)
(1.14535 -0.0560422 0)
(1.14096 -0.0545472 0)
(1.13091 -0.0535559 0)
(1.11977 -0.0533023 0)
(1.11365 -0.052331 0)
(1.10925 -0.0510715 0)
(1.1055 -0.0499239 0)
(1.10654 -0.046379 0)
(1.11486 -0.0394306 0)
(1.11742 -0.0349966 0)
(1.11519 -0.032885 0)
(1.11192 -0.0311811 0)
(1.10813 -0.0298042 0)
(1.10383 -0.0287352 0)
(1.09348 -0.0293166 0)
(1.08084 -0.0311287 0)
(1.07316 -0.0310299 0)
(1.06782 -0.0297215 0)
(1.06349 -0.0282593 0)
(1.06117 -0.0258067 0)
(1.06889 -0.0176327 0)
(1.07575 -0.00979786 0)
(1.0751 -0.00676555 0)
(1.07171 -0.00559265 0)
(1.06784 -0.0047553 0)
(1.06366 -0.00418716 0)
(1.0538 -0.00586193 0)
(1.03832 -0.0105388 0)
(1.02784 -0.0121538 0)
(1.02124 -0.0111193 0)
(1.01622 -0.0094757 0)
(1.01231 -0.00775367 0)
(1.01621 -0.00128342 0)
(1.02747 0.0105275 0)
(1.0303 0.0165072 0)
(1.02765 0.018384 0)
(1.02354 0.0188842 0)
(1.01917 0.0193847 0)
(1.01046 0.0176257 0)
(0.992368 0.00975524 0)
(0.977916 0.00449704 0)
(0.96952 0.00380437 0)
(0.963276 0.00472551 0)
(0.958262 0.00601682 0)
(0.956678 0.00978798 0)
(0.967787 0.02312 0)
(0.976265 0.0348976 0)
(0.975767 0.0387862 0)
(0.971675 0.0396227 0)
(0.966964 0.0396688 0)
(0.960677 0.0383211 0)
(0.944008 0.0285896 0)
(0.923531 0.0162238 0)
(0.909881 0.0116601 0)
(0.900643 0.0115673 0)
(0.89449 0.0121665 0)
(0.889697 0.0129955 0)
(0.893776 0.0203787 0)
(0.907198 0.0370869 0)
(0.91226 0.0463852 0)
(0.908907 0.0493855 0)
(0.90321 0.050818 0)
(0.896576 0.0512277 0)
(0.883955 0.0474395 0)
(0.860897 0.0321192 0)
(0.839995 0.0171666 0)
(0.826688 0.0102529 0)
(0.818022 0.00721038 0)
(0.81201 0.00607521 0)
(0.810079 0.00811986 0)
(0.816787 0.0178058 0)
(0.821703 0.0265519 0)
(0.820362 0.0296592 0)
(0.815203 0.0300101 0)
(0.80787 0.0289644 0)
(0.797461 0.0228308 0)
(0.781819 0.0101204 0)
(0.760716 -0.0115956 0)
(0.742522 -0.0304108 0)
(0.73251 -0.0411582 0)
(0.729884 -0.0440302 0)
(0.74085 -0.0466801 0)
(0.747861 -0.0452924 0)