/*--------------------------------*- C++ -*----------------------------------*\
  =========                 |
  \\      /  F ield         | OpenFOAM: The Open Source CFD Toolbox
   \\    /   O peration     | Website:  https://openfoam.org
    \\  /    A nd           | Version:  12
     \\/     M anipulation  |
\*---------------------------------------------------------------------------*/
FoamFile
{
    format      ascii;
    class       volVectorField;
    location    "9.63";
    object      U;
}
// * * * * * * * * * * * * * * * * * * * * * * * * * * * * * * * * * * * * * //

dimensions      [0 1 -1 0 0 0 0];

internalField   nonuniform List<vector> 
22702
(
(2 -1.66002e-13 0)
(2 -3.57332e-15 0)
(2.04474 -0.0942042 0)
(2 -1.16064e-09 0)
(1.97708 0.035147 0)
(2 -5.33351e-14 0)
(1.83051 0.228617 0)
(2 -4.95836e-14 0)
(2 -1.29304e-13 0)
(2.12418 -0.261557 0)
(1.82969 0.229005 0)
(1.83155 0.228895 0)
(2 -5.25107e-14 0)
(1.83143 0.228697 0)
(2.0364 -0.0729614 0)
(2 -5.05088e-14 0)
(2 -5.94799e-14 0)
(2 -4.27247e-14 0)
(1.82977 0.22893 0)
(2 -3.7777e-14 0)
(1.8316 0.229186 0)
(2 -1.44056e-13 0)
(1.83142 0.229036 0)
(2.10506 -0.261256 0)
(1.8325 0.228776 0)
(2.07997 -0.272368 0)
(2 -2.14761e-14 0)
(1.83137 0.228987 0)
(2.11933 -0.264202 0)
(2.10385 -0.261229 0)
(2 4.67513e-14 0)
(1.83143 0.2288 0)
(2 7.39291e-15 0)
(2 -2.59883e-14 0)
(2 -3.23847e-14 0)
(1.84454 0.214833 0)
(1.83268 0.227624 0)
(1.83119 0.228681 0)
(2 -1.19656e-13 0)
(2 -6.32169e-14 0)
(2.10614 -0.264977 0)
(2 1.2647e-14 0)
(1.9152 0.126762 0)
(2 -3.68723e-16 0)
(1.8315 0.229212 0)
(2 -5.72577e-14 0)
(2 -1.9761e-13 0)
(2 -1.08241e-13 0)
(2 -3.09574e-13 0)
(2.10663 -0.260337 0)
(2 5.61795e-14 0)
(2.11464 -0.26304 0)
(2 4.25832e-14 0)
(1.8294 0.229086 0)
(2 -1.35916e-13 0)
(1.83055 0.228381 0)
(2 -1.67034e-13 0)
(2 1.44422e-09 0)
(2 -7.5471e-14 0)
(2 -3.4352e-13 0)
(2.12757 -0.26459 0)
(2 -8.44914e-14 0)
(2 -1.92395e-13 0)
(2.12626 -0.268443 0)
(2 9.55476e-14 0)
(2.09291 -0.255001 0)
(2 -3.74332e-14 0)
(2 1.7181e-14 0)
(2 3.86692e-14 0)
(2.11599 -0.267392 0)
(2 -1.44291e-13 0)
(1.83097 0.228576 0)
(1.89688 0.150364 0)
(2 1.38567e-09 0)
(1.8303 0.228604 0)
(1.81966 0.23562 0)
(2.08442 -0.263434 0)
(1.82959 0.228802 0)
(2.10784 -0.264871 0)
(2 -2.37666e-13 0)
(1.82997 0.228591 0)
(2.1143 -0.259756 0)
(1.83058 0.228731 0)
(1.83001 0.228907 0)
(2 -9.28292e-15 0)
(2 1.06793e-06 0)
(2 -7.10853e-16 0)
(2 -9.28203e-15 0)
(2.0214 -0.0456031 0)
(2.11969 -0.268771 0)
(1.83026 0.228625 0)
(2 -2.42071e-13 0)
(2 -6.64814e-11 0)
(2.12299 -0.260456 0)
(2 9.0959e-15 0)
(1.83133 0.229324 0)
(2.12368 -0.26208 0)
(2 2.38657e-08 0)
(2 1.4651e-14 0)
(2 8.34208e-16 0)
(2 4.08791e-15 0)
(1.91437 0.126208 0)
(1.82956 0.228807 0)
(2.0835 -0.273114 0)
(2 5.44928e-10 0)
(2 -1.2371e-09 0)
(1.95962 0.0647768 0)
(2 9.51898e-09 0)
(2.1123 -0.263105 0)
(2 -2.41356e-14 0)
(1.83006 0.228851 0)
(1.82969 0.228993 0)
(2 4.64795e-09 0)
(2 -1.4008e-13 0)
(2.09649 -0.277904 0)
(2.0917 -0.278854 0)
(2.12248 -0.266849 0)
(2 1.32091e-13 0)
(2 -1.50449e-07 0)
(2 9.23374e-15 0)
(2 -2.08512e-13 0)
(2 1.2765e-07 0)
(2.02857 -0.055888 0)
(2 -1.1109e-07 0)
(1.85573 0.201164 0)
(1.98187 0.0269491 0)
(1.82864 0.228766 0)
(2 -2.02215e-13 0)
(1.82839 0.228727 0)
(1.83003 0.228792 0)
(1.83136 0.228683 0)
(1.82988 0.228956 0)
(2 -1.75204e-13 0)
(2.11447 -0.269267 0)
(2 -8.91034e-15 0)
(2.12206 -0.261421 0)
(2 3.91178e-14 0)
(2 -2.46231e-13 0)
(2 -9.72186e-14 0)
(2 -6.89594e-14 0)
(1.82998 0.228719 0)
(2 2.9756e-09 0)
(2 -1.14864e-13 0)
(2 -2.30086e-13 0)
(2 -8.45138e-14 0)
(1.82966 0.229161 0)
(2 -1.98807e-14 0)
(1.99509 0.0133136 0)
(2 1.14978e-13 0)
(2 -2.51264e-13 0)
(2 -7.07338e-11 0)
(2 -2.16888e-15 0)
(2.10634 -0.260725 0)
(2 -3.16461e-14 0)
(1.99593 0.00887349 0)
(2 -2.64564e-14 0)
(2.10611 -0.265114 0)
(2 -4.61684e-14 0)
(2 6.19118e-14 0)
(2 -3.57917e-14 0)
(1.83003 0.229028 0)
(2 -2.13717e-14 0)
(1.83151 0.228987 0)
(2.10426 -0.280783 0)
(2.11306 -0.269122 0)
(1.82922 0.228384 0)
(1.8309 0.228829 0)
(2 4.81987e-14 0)
(1.96962 0.0393473 0)
(1.90352 0.14159 0)
(2 -2.54652e-13 0)
(1.82864 0.228534 0)
(2.10754 -0.264812 0)
(1.84458 0.214692 0)
(2 4.41013e-15 0)
(2 -1.43267e-14 0)
(2 -1.19515e-14 0)
(2 -9.48871e-14 0)
(1.83143 0.228916 0)
(1.8582 0.201909 0)
(2 -1.6276e-13 0)
(1.82989 0.228954 0)
(2.12299 -0.26644 0)
(1.82917 0.228529 0)
(2 -9.01347e-14 0)
(2.11555 -0.260038 0)
(2 -5.72735e-14 0)
(2.10777 -0.26483 0)
(2.08532 -0.273752 0)
(2.00009 -0.000127478 0)
(2 -6.23923e-14 0)
(2 -2.20341e-14 0)
(1.82985 0.227579 0)
(2 2.37265e-14 0)
(2 -1.27059e-13 0)
(1.83157 0.22881 0)
(2 -1.80256e-13 0)
(1.83082 0.228569 0)
(1.83002 0.228838 0)
(2.11066 -0.270368 0)
(2 -1.552e-14 0)
(2 -4.05736e-14 0)
(2.10915 -0.266468 0)
(1.83174 0.22902 0)
(2 5.67258e-15 0)
(2 -3.32843e-14 0)
(2 -1.68077e-13 0)
(1.83164 0.229034 0)
(2 -7.49885e-14 0)
(2.13438 -0.265617 0)
(2 -6.35778e-11 0)
(2 -4.44818e-14 0)
(1.83172 0.229191 0)
(1.83124 0.22894 0)
(1.83056 0.228587 0)
(2 -2.27281e-14 0)
(1.99998 2.5198e-05 0)
(2 6.03219e-14 0)
(2 -1.61459e-14 0)
(2 -5.46051e-14 0)
(1.83202 0.22905 0)
(2 -1.79665e-13 0)
(2.11091 -0.263445 0)
(1.82284 0.234375 0)
(1.83172 0.228892 0)
(1.83136 0.228525 0)
(2 1.97474e-07 0)
(2 -4.59547e-14 0)
(2 -2.56924e-13 0)
(2.10684 -0.268224 0)
(1.83236 0.228596 0)
(1.92362 0.121302 0)
(2 2.95934e-14 0)
(1.83079 0.229532 0)
(2.11852 -0.260636 0)
(2.12821 -0.26716 0)
(1.83088 0.229629 0)
(1.83244 0.228063 0)
(2 -4.77878e-14 0)
(1.83064 0.231537 0)
(2.15009 -0.263318 0)
(1.85075 0.207139 0)
(2 -2.29859e-13 0)
(2 -5.51787e-14 0)
(2 1.84127e-14 0)
(2 -1.88946e-13 0)
(1.83167 0.229018 0)
(2 -1.68208e-13 0)
(1.90414 0.136494 0)
(1.98316 0.0289175 0)
(2 -2.3492e-13 0)
(2 -6.67729e-14 0)
(1.83169 0.228919 0)
(2.12721 -0.261314 0)
(2.06018 -0.173057 0)
(2 -1.62586e-13 0)
(1.8325 0.227545 0)
(2.13384 -0.261314 0)
(1.82899 0.232352 0)
(2 5.31876e-14 0)
(2 -4.45751e-14 0)
(2 -7.23705e-14 0)
(2 1.09466e-13 0)
(2 -5.98755e-14 0)
(2 -6.6414e-15 0)
(2 -2.2418e-13 0)
(2.11089 -0.263617 0)
(2.07484 -0.178715 0)
(2.12705 -0.265817 0)
(1.83125 0.229001 0)
(2 -2.80055e-13 0)
(2 3.02353e-13 0)
(2 -1.58475e-07 0)
(2 -1.79273e-13 0)
(1.84365 0.210426 0)
(2 -1.37009e-07 0)
(2.10856 -0.265393 0)
(2 9.61838e-14 0)
(2.12664 -0.283523 0)
(2.10628 -0.265548 0)
(1.83239 0.228764 0)
(2.11624 -0.256412 0)
(1.83161 0.229146 0)
(2 -5.3512e-15 0)
(2 -4.18421e-14 0)
(2 -8.90673e-14 0)
(2.00091 -0.0015976 0)
(2.11751 -0.268398 0)
(2.14954 -0.264817 0)
(2 -3.03792e-07 0)
(2 -1.48694e-07 0)
(2.11432 -0.279418 0)
(2 2.39914e-09 0)
(1.82992 0.22874 0)
(2.09094 -0.27488 0)
(2 2.51626e-14 0)
(2 -3.49511e-11 0)
(1.82967 0.228677 0)
(2.13027 -0.276451 0)
(2 -1.03091e-13 0)
(1.83115 0.228063 0)
(2.11185 -0.270547 0)
(1.83139 0.228856 0)
(2 -1.06409e-14 0)
(2.12049 -0.29055 0)
(2.00076 -0.00146269 0)
(2 5.94027e-14 0)
(2 2.72033e-06 0)
(2 -1.83686e-14 0)
(2.11662 -0.262458 0)
(2 -1.01661e-13 0)
(2 -1.73732e-07 0)
(2 -3.43883e-07 0)
(1.99999 8.65895e-06 0)
(1.98775 -0.00176919 0)
(1.89733 0.148925 0)
(2 -2.43637e-11 0)
(2.0938 -0.258537 0)
(2 -1.372e-11 0)
(2 1.38901e-06 0)
(2 -6.03148e-14 0)
(2 -3.3711e-13 0)
(2 -1.65066e-14 0)
(2 -8.02871e-14 0)
(2 -8.48931e-13 0)
(1.82953 0.228848 0)
(2 2.83636e-13 0)
(1.82929 0.228803 0)
(2 -7.1304e-14 0)
(2 -2.17731e-13 0)
(2 1.01822e-13 0)
(2.11892 -0.262795 0)
(2 4.31694e-14 0)
(1.83041 0.229384 0)
(2.1199 -0.267821 0)
(2 -8.83358e-14 0)
(1.86274 0.209695 0)
(2 -1.10197e-13 0)
(2 -1.3896e-13 0)
(1.82865 0.22916 0)
(2 3.48577e-14 0)
(2 -1.06479e-08 0)
(2 6.61068e-14 0)
(1.83152 0.227865 0)
(2 4.81984e-10 0)
(2 -1.09957e-13 0)
(1.83412 0.220803 0)
(1.82934 0.229026 0)
(2 -2.34201e-13 0)
(1.96373 0.0567358 0)
(2 1.12306e-14 0)
(2 1.39393e-14 0)
(2.12241 -0.258085 0)
(2 -1.2627e-13 0)
(2 -7.31966e-14 0)
(2 8.96422e-14 0)
(2.13214 -0.262679 0)
(2 -8.34907e-14 0)
(2 1.79323e-13 0)
(2 -1.39423e-13 0)
(2 -3.00621e-14 0)
(2.08711 -0.268373 0)
(2 1.13704e-13 0)
(2 3.25322e-14 0)
(2 4.74136e-14 0)
(2 -1.40754e-13 0)
(2 -5.17848e-14 0)
(2.16057 -0.266216 0)
(1.99998 3.16532e-05 0)
(1.83141 0.228783 0)
(2 4.52946e-14 0)
(2.00001 -1.95086e-05 0)
(1.83075 0.228405 0)
(1.82925 0.228559 0)
(2 -9.35147e-14 0)
(2 -1.97069e-13 0)
(2.10822 -0.283553 0)
(2.06225 -0.122903 0)
(1.83044 0.228962 0)
(2 -1.1154e-13 0)
(2 6.96776e-14 0)
(2 -4.19951e-14 0)
(1.8315 0.228718 0)
(2.11339 -0.268017 0)
(2 1.12934e-13 0)
(1.83146 0.228903 0)
(2 1.05989e-13 0)
(2 3.61077e-14 0)
(2.10869 -0.210487 0)
(2.08336 -0.211729 0)
(2 -1.37261e-13 0)
(2.10824 -0.264104 0)
(2.12477 -0.259718 0)
(2 3.19588e-15 0)
(2 -1.12374e-14 0)
(2 7.89518e-14 0)
(2 1.52698e-13 0)
(2 -9.18538e-11 0)
(2 -1.52889e-13 0)
(2 -1.67221e-13 0)
(1.82875 0.228713 0)
(1.95771 0.0662812 0)
(1.83386 0.221188 0)
(2.16193 -0.260582 0)
(2.02053 -0.0669591 0)
(1.8305 0.228747 0)
(2 -5.55957e-14 0)
(1.82912 0.228686 0)
(1.83043 0.228928 0)
(2.10935 -0.262477 0)
(2.06517 -0.158871 0)
(2 9.25611e-13 0)
(2.13471 -0.259968 0)
(2 5.68684e-15 0)
(1.82326 0.234283 0)
(2 -1.55726e-13 0)
(2 8.22531e-14 0)
(2 -1.10827e-13 0)
(2 3.86507e-14 0)
(1.83176 0.229009 0)
(2 -1.6146e-13 0)
(2 -6.92656e-14 0)
(2 -6.95749e-14 0)
(2 1.41978e-09 0)
(2 -2.73402e-14 0)
(2 -3.45264e-14 0)
(2 -4.70482e-14 0)
(1.9357 0.0866257 0)
(1.83051 0.229152 0)
(2 -3.46731e-14 0)
(1.83123 0.229014 0)
(2 -3.85987e-14 0)
(2 -3.1336e-13 0)
(2.11195 -0.260507 0)
(2 -5.47607e-14 0)
(2 -2.88562e-13 0)
(2 -2.55951e-13 0)
(2 3.99972e-14 0)
(1.83159 0.22899 0)
(1.87245 0.180008 0)
(2 -1.51706e-13 0)
(2 -1.64117e-13 0)
(2.10917 -0.260511 0)
(1.83161 0.228632 0)
(1.83171 0.22909 0)
(2 -8.75002e-14 0)
(1.83178 0.229122 0)
(1.83153 0.228673 0)
(1.83124 0.22895 0)
(2 4.26372e-14 0)
(2.05888 -0.110355 0)
(2 -1.1077e-13 0)
(1.83217 0.228831 0)
(1.99906 -0.00730614 0)
(1.83122 0.228996 0)
(2 -3.78199e-14 0)
(2.12439 -0.26214 0)
(2.00039 -0.000662159 0)
(1.82897 0.228547 0)
(2 5.72307e-15 0)
(2 -1.55809e-13 0)
(2 -6.46806e-11 0)
(2 -1.91711e-11 0)
(2.11094 -0.261463 0)
(1.83233 0.228628 0)
(1.84788 0.211708 0)
(2 -4.86407e-14 0)
(1.83141 0.229654 0)
(1.83152 0.228646 0)
(1.83011 0.22885 0)
(2 1.28092e-13 0)
(1.91707 0.115266 0)
(1.83172 0.229161 0)
(2 -1.96688e-14 0)
(2 -1.92762e-13 0)
(1.88122 0.171221 0)
(1.97673 0.0391183 0)
(1.83155 0.229142 0)
(2.02274 -0.0473459 0)
(1.83148 0.229052 0)
(2 -2.30848e-14 0)
(1.83138 0.228938 0)
(1.8314 0.228844 0)
(1.8313 0.228904 0)
(1.83161 0.228635 0)
(2 -5.31282e-14 0)
(1.83561 0.232256 0)
(2.01396 -0.0675516 0)
(2.03036 -0.0809777 0)
(2 8.53866e-14 0)
(2 -3.71288e-07 0)
(2 -5.58883e-14 0)
(2 -6.31654e-14 0)
(1.83159 0.228414 0)
(2 5.24416e-14 0)
(2 7.98275e-14 0)
(2 -1.15701e-13 0)
(2 1.08316e-13 0)
(2 1.19828e-13 0)
(1.82919 0.228708 0)
(2 1.3361e-13 0)
(2 1.07282e-13 0)
(2.00149 -0.00238843 0)
(1.83174 0.229071 0)
(1.84984 0.220479 0)
(2 -7.08734e-14 0)
(1.86887 0.180113 0)
(1.99998 2.57431e-05 0)
(2 4.33136e-14 0)
(2 -6.49809e-14 0)
(1.83179 0.228914 0)
(2 1.44658e-13 0)
(2.00186 -0.00292974 0)
(1.99848 0.00456187 0)
(2 4.42644e-15 0)
(1.8315 0.228918 0)
(2 -1.08112e-13 0)
(1.83209 0.229505 0)
(2 -1.72051e-13 0)
(2 2.28613e-14 0)
(1.87508 0.17659 0)
(2 -2.19984e-13 0)
(1.83202 0.230187 0)
(1.99999 1.29623e-05 0)
(2 -1.42384e-13 0)
(1.83215 0.229843 0)
(2 -2.00605e-13 0)
(1.83167 0.229016 0)
(2 -2.85596e-13 0)
(2 3.00572e-06 0)
(2 -2.54329e-13 0)
(1.83169 0.228988 0)
(2 -1.80099e-15 0)
(1.82959 0.230886 0)
(2 4.24198e-06 0)
(1.83167 0.229034 0)
(1.82841 0.228066 0)
(1.83174 0.228794 0)
(1.82931 0.228714 0)
(2 -1.62449e-13 0)
(1.82968 0.229106 0)
(1.83735 0.224243 0)
(2 -1.18223e-14 0)
(2.10293 -0.261589 0)
(1.84152 0.217755 0)
(1.87948 0.171923 0)
(2 2.25685e-13 0)
(1.83176 0.228947 0)
(2 -6.49093e-16 0)
(2.12509 -0.259953 0)
(2.11043 -0.266892 0)
(2 1.44778e-14 0)
(2 6.20743e-14 0)
(2 5.41498e-14 0)
(2 -2.60251e-14 0)
(2 2.12173e-09 0)
(2.12186 -0.261094 0)
(2 9.48388e-14 0)
(1.83123 0.22908 0)
(1.95365 0.0657726 0)
(1.83177 0.228748 0)
(2 -1.47344e-13 0)
(2 7.74173e-11 0)
(2 -8.58611e-14 0)
(2 -3.32233e-14 0)
(2 -5.31779e-08 0)
(1.83146 0.228813 0)
(2 -2.77135e-13 0)
(1.83019 0.22926 0)
(1.8999 0.143668 0)
(2.07477 -0.156076 0)
(2 1.23707e-09 0)
(1.99999 8.16508e-06 0)
(1.94766 0.0739037 0)
(1.95696 0.0675742 0)
(2 1.33133e-13 0)
(2 5.30041e-14 0)
(1.93765 0.0928023 0)
(2 1.83449e-13 0)
(2.10543 -0.26138 0)
(1.83189 0.229179 0)
(1.83172 0.229188 0)
(2 -6.28689e-11 0)
(2 -1.71693e-13 0)
(2 -1.11502e-13 0)
(1.82874 0.228113 0)
(2 -1.55586e-13 0)
(1.99999 1.59449e-05 0)
(1.83213 0.227733 0)
(1.83232 0.228788 0)
(2.02649 -0.0253573 0)
(2 -1.88985e-14 0)
(2 1.90485e-10 0)
(2.10775 -0.261283 0)
(1.84671 0.2122 0)
(2 -3.48839e-13 0)
(2 3.66049e-14 0)
(2 5.69197e-14 0)
(2 -2.55484e-11 0)
(2 -1.78904e-14 0)
(1.83164 0.229011 0)
(1.82975 0.22884 0)
(2 -2.81154e-13 0)
(1.83166 0.229392 0)
(1.82995 0.231207 0)
(1.8317 0.228832 0)
(2 -2.53705e-14 0)
(2 1.32022e-13 0)
(2 -6.98116e-11 0)
(2 3.08082e-14 0)
(2.08398 -0.276392 0)
(1.8305 0.228862 0)
(2 -4.75279e-11 0)
(2 8.90992e-14 0)
(1.84623 0.212804 0)
(1.83216 0.228402 0)
(2 -1.96674e-13 0)
(1.84185 0.217487 0)
(1.8288 0.228968 0)
(2 -2.25703e-13 0)
(2 -2.1082e-07 0)
(2 8.28801e-11 0)
(2 -1.76511e-13 0)
(2 -4.8768e-14 0)
(1.83156 0.22907 0)
(2 -9.92391e-15 0)
(2 -9.38056e-14 0)
(2 1.68956e-13 0)
(2 -2.53927e-13 0)
(1.83234 0.228579 0)
(2 -2.26627e-13 0)
(1.82729 0.230087 0)
(2.13228 -0.26029 0)
(2 -1.77741e-13 0)
(2.11484 -0.263851 0)
(2 1.80392e-14 0)
(2 -1.06871e-07 0)
(2 -1.08796e-14 0)
(2.00104 -0.0018468 0)
(2.10679 -0.266065 0)
(2.00029 -0.000587688 0)
(2 -5.75851e-14 0)
(2 -2.37105e-14 0)
(2 -1.20679e-07 0)
(1.97485 0.038458 0)
(2 -8.47052e-14 0)
(2 -1.98323e-16 0)
(2.05336 -0.0756889 0)
(2 -2.13882e-07 0)
(2 -3.94781e-14 0)
(2 -4.87191e-14 0)
(2 -2.09548e-07 0)
(2 -1.66852e-08 0)
(2 -3.34233e-08 0)
(2 -9.27886e-14 0)
(2 -1.72658e-06 0)
(2.014 -0.0524317 0)
(2 -4.21916e-07 0)
(2 -3.68885e-08 0)
(2.00092 -0.00125729 0)
(2 4.35046e-14 0)
(2.10945 -0.263657 0)
(2 -2.67971e-11 0)
(2 -4.27226e-12 0)
(2 -4.76432e-11 0)
(2 1.7694e-13 0)
(1.87449 0.176357 0)
(2 -9.83219e-15 0)
(2 -7.85028e-14 0)
(2 -1.55875e-14 0)
(2 -1.83488e-07 0)
(2.12718 -0.269542 0)
(2 3.61551e-14 0)
(2 1.69684e-09 0)
(1.84144 0.217532 0)
(1.82977 0.228512 0)
(2 -3.11578e-07 0)
(2 -1.46792e-13 0)
(2 -1.10381e-07 0)
(2.04075 -0.0762748 0)
(2 -1.23024e-13 0)
(2 4.86229e-10 0)
(2 -1.3718e-13 0)
(2 -1.1038e-14 0)
(2 -1.08344e-13 0)
(2 -1.19074e-13 0)
(2.0165 -0.0193832 0)
(1.98876 -0.00139747 0)
(1.83197 0.229026 0)
(2 3.86191e-14 0)
(2 -1.97769e-13 0)
(2 3.94453e-14 0)
(1.83023 0.23 0)
(2.03319 -0.070176 0)
(2 -4.95632e-09 0)
(2 -4.74008e-14 0)
(2 -3.87364e-14 0)
(1.83175 0.229001 0)
(1.82984 0.228392 0)
(2 -3.06926e-08 0)
(2 4.56096e-06 0)
(2 3.71454e-09 0)
(2 -1.91627e-13 0)
(2 1.22945e-09 0)
(2 7.61481e-14 0)
(2 -2.22281e-11 0)
(2 7.61726e-14 0)
(2 -1.245e-13 0)
(2.12873 -0.263445 0)
(2 -1.31521e-14 0)
(2 -1.4366e-11 0)
(1.82874 0.228189 0)
(2.13568 -0.264484 0)
(2 -2.06655e-13 0)
(1.82901 0.228285 0)
(2 5.86719e-11 0)
(2.10688 -0.260812 0)
(2 -5.53752e-14 0)
(2 -1.32216e-13 0)
(2.1327 -0.26099 0)
(2 -4.44787e-14 0)
(2 -1.10168e-11 0)
(2 -5.10551e-12 0)
(2 -2.5372e-13 0)
(2 -2.32286e-12 0)
(2 -4.10655e-14 0)
(2 -2.46426e-13 0)
(1.83479 0.225392 0)
(1.83206 0.228632 0)
(2 4.74224e-13 0)
(2 -2.51113e-13 0)
(2 -2.48192e-13 0)
(2 5.22e-13 0)
(1.84667 0.212446 0)
(2 3.622e-13 0)
(1.94701 0.0818972 0)
(2.10375 -0.262845 0)
(2 -3.16095e-08 0)
(2 3.21924e-13 0)
(2 -3.38737e-14 0)
(2 -9.20788e-14 0)
(2 -3.24827e-14 0)
(2 -1.64128e-13 0)
(2 -7.90299e-14 0)
(1.98418 0.0275686 0)
(2 4.79152e-14 0)
(2 -1.0778e-13 0)
(1.90704 0.12513 0)
(2 6.65706e-14 0)
(2 -1.05801e-13 0)
(2 -7.2359e-14 0)
(1.86091 0.191985 0)
(2 -4.23282e-14 0)
(2 -8.30324e-14 0)
(2 -1.60284e-13 0)
(2 -6.94395e-14 0)
(2.12942 -0.257792 0)
(2 4.19451e-12 0)
(2 -1.35406e-13 0)
(2.12455 -0.280604 0)
(2.12767 -0.257709 0)
(2 -4.25693e-14 0)
(2 -8.33216e-14 0)
(1.83178 0.228714 0)
(2 1.65353e-13 0)
(1.99288 -0.0391506 0)
(2 2.3078e-14 0)
(2 1.09546e-13 0)
(2 4.06788e-14 0)
(1.8831 0.170049 0)
(2.13499 -0.25692 0)
(2 -1.2181e-13 0)
(2.12487 -0.269835 0)
(2 -8.29659e-14 0)
(2.08182 -0.148001 0)
(2 1.50907e-14 0)
(2 5.71109e-14 0)
(2 9.44405e-14 0)
(1.8299 0.227701 0)
(2 -4.24065e-08 0)
(2 -4.26569e-13 0)
(1.83131 0.229015 0)
(2 -1.29689e-13 0)
(2 -3.1705e-11 0)
(2 1.72957e-09 0)
(1.83155 0.229162 0)
(2 2.40497e-10 0)
(2 7.8017e-14 0)
(1.83233 0.229194 0)
(2 -7.26219e-14 0)
(2 -9.42652e-14 0)
(2.10828 -0.263781 0)
(2 -1.63998e-11 0)
(1.94019 0.0855093 0)
(2 -1.32624e-13 0)
(2 -9.5784e-14 0)
(1.83029 0.228714 0)
(1.83054 0.228885 0)
(1.8852 0.164329 0)
(1.84862 0.209711 0)
(2 -9.68267e-14 0)
(2.1227 -0.261078 0)
(2 -1.28632e-13 0)
(2 3.90273e-14 0)
(1.83915 0.220177 0)
(2 1.494e-13 0)
(2.10155 -0.267112 0)
(2 5.72167e-14 0)
(2 -8.38511e-14 0)
(2 -2.1299e-14 0)
(1.83148 0.229021 0)
(2 1.58322e-14 0)
(2 1.11502e-13 0)
(2 -3.86085e-14 0)
(2 -6.30878e-15 0)
(1.89905 0.145545 0)
(2 -5.82632e-14 0)
(1.82981 0.221272 0)
(1.83062 0.229841 0)
(2.12814 -0.264468 0)
(2 -1.42776e-13 0)
(2 -3.73185e-14 0)
(2.07124 -0.274749 0)
(2.07227 -0.272041 0)
(2 -1.54708e-13 0)
(2 -8.01893e-14 0)
(2 -6.92552e-12 0)
(1.87877 0.174846 0)
(1.87325 0.179255 0)
(2 9.21478e-14 0)
(2 -9.10955e-14 0)
(2 -1.72226e-14 0)
(2 7.79971e-14 0)
(2 8.50754e-14 0)
(2 -7.39687e-14 0)
(2 -6.03513e-14 0)
(1.92672 0.104712 0)
(1.83 0.228844 0)
(1.99912 0.00085676 0)
(2 -3.69069e-14 0)
(1.83404 0.226818 0)
(2.11641 -0.267047 0)
(2 2.08917e-14 0)
(2 3.61506e-14 0)
(2 7.40352e-14 0)
(1.90794 0.134109 0)
(2 5.97521e-14 0)
(1.96725 0.0564669 0)
(2 -6.97695e-14 0)
(1.84558 0.212996 0)
(1.8324 0.228009 0)
(2 -1.97602e-14 0)
(2.12589 -0.264968 0)
(2 -3.70967e-15 0)
(1.82993 0.228592 0)
(2 -1.27206e-14 0)
(2 -1.18667e-14 0)
(1.83162 0.228957 0)
(1.84261 0.216512 0)
(2 -5.64732e-14 0)
(1.82589 0.229833 0)
(2 2.89701e-14 0)
(2.12182 -0.263469 0)
(2 -2.22823e-14 0)
(2 3.89604e-14 0)
(2 -1.96224e-15 0)
(1.83121 0.228392 0)
(1.83479 0.225557 0)
(1.85188 0.204198 0)
(2 -1.04109e-13 0)
(1.83013 0.227414 0)
(1.83149 0.228687 0)
(2 -2.08934e-13 0)
(1.83151 0.229282 0)
(2 -8.95902e-09 0)
(1.83218 0.228064 0)
(2 -3.53955e-14 0)
(2.12809 -0.259221 0)
(2.00688 -0.0231113 0)
(2.11546 -0.267129 0)
(2 -3.40013e-11 0)
(2 -2.27728e-11 0)
(2 -3.72994e-11 0)
(2 -1.9069e-13 0)
(2 -1.32313e-11 0)
(1.83205 0.229162 0)
(2 -2.10351e-14 0)
(1.83185 0.229123 0)
(2 -3.39523e-11 0)
(2 -8.31039e-11 0)
(2 7.73843e-14 0)
(1.84056 0.21892 0)
(2 1.82325e-14 0)
(2.10025 -0.257948 0)
(1.83126 0.228988 0)
(2 7.01125e-14 0)
(2.1298 -0.275035 0)
(2.11983 -0.241698 0)
(2.11557 -0.261689 0)
(2 -5.43984e-14 0)
(1.91366 0.12655 0)
(1.97969 0.0249215 0)
(1.83057 0.22946 0)
(1.83155 0.228682 0)
(2 1.45067e-13 0)
(2 -3.0061e-07 0)
(2 -4.41567e-08 0)
(2 -1.23928e-13 0)
(1.83111 0.22874 0)
(2 4.56054e-14 0)
(2 3.38123e-14 0)
(1.83109 0.22876 0)
(1.83189 0.228628 0)
(2 -1.6633e-13 0)
(1.93754 0.0921935 0)
(1.99975 0.00104306 0)
(2 3.32806e-14 0)
(2.00108 -0.00194464 0)
(1.82822 0.228466 0)
(2.0303 -0.110641 0)
(2 -1.19962e-07 0)
(2.04431 -0.130336 0)
(2.10312 -0.261021 0)
(2.10944 -0.264702 0)
(2.0033 -0.0671164 0)
(1.83153 0.229186 0)
(1.83391 0.226447 0)
(1.96152 0.0426483 0)
(1.83133 0.228936 0)
(1.83162 0.228727 0)
(2 -8.55423e-14 0)
(2 -5.17071e-14 0)
(1.82852 0.228556 0)
(1.82946 0.227831 0)
(1.83147 0.229143 0)
(1.82817 0.228128 0)
(2 -1.61878e-13 0)
(1.83134 0.228916 0)
(2.0909 -0.26438 0)
(1.82932 0.230697 0)
(1.83105 0.229154 0)
(1.82888 0.228414 0)
(1.83203 0.228387 0)
(2.0583 -0.0819327 0)
(2.03799 -0.0753942 0)
(2.01738 -0.0490871 0)
(1.83225 0.229193 0)
(2.00813 -0.0269229 0)
(1.83152 0.22863 0)
(2 1.38836e-13 0)
(2 8.29406e-14 0)
(1.8306 0.229584 0)
(1.83115 0.228619 0)
(2 -6.82931e-14 0)
(2.13718 -0.262787 0)
(1.83082 0.228204 0)
(1.83212 0.228921 0)
(2 -8.94222e-14 0)
(1.83219 0.228813 0)
(1.83146 0.229286 0)
(2 -1.08353e-13 0)
(1.83141 0.228717 0)
(2.12678 -0.272801 0)
(1.83052 0.228804 0)
(1.82941 0.228547 0)
(1.83009 0.228942 0)
(1.83114 0.227627 0)
(2 -2.11458e-13 0)
(2 -1.19199e-13 0)
(2 -9.50209e-08 0)
(1.83227 0.228962 0)
(1.88947 0.160055 0)
(2.11453 -0.248491 0)
(1.83159 0.229256 0)
(2.12259 -0.276025 0)
(1.83226 0.228959 0)
(2 -3.3001e-14 0)
(2 1.46357e-14 0)
(2 -3.05949e-14 0)
(2 -6.56356e-14 0)
(1.83 0.229348 0)
(1.83164 0.229468 0)
(2 -3.28167e-14 0)
(2 1.24425e-13 0)
(1.83178 0.229258 0)
(2.12085 -0.266367 0)
(1.8313 0.22907 0)
(2.10656 -0.265989 0)
(2 3.83726e-14 0)
(1.83277 0.227726 0)
(2 -1.24899e-14 0)
(2.12287 -0.259906 0)
(1.831 0.229356 0)
(2.10293 -0.182075 0)
(2 -8.3456e-14 0)
(1.83139 0.228872 0)
(1.83044 0.230071 0)
(1.83182 0.229146 0)
(2 -2.1439e-13 0)
(2 -1.10121e-13 0)
(1.92216 0.122738 0)
(1.83083 0.229827 0)
(2.10608 -0.267076 0)
(1.83183 0.228684 0)
(2 2.65519e-14 0)
(1.83184 0.229165 0)
(2.03468 -0.0962637 0)
(1.83152 0.230081 0)
(2.12792 -0.261804 0)
(2 -6.90038e-14 0)
(1.8312 0.229337 0)
(2.08791 -0.241297 0)
(1.83073 0.229576 0)
(2.11159 -0.264379 0)
(2 1.03831e-13 0)
(1.8315 0.228968 0)
(2 2.94706e-14 0)
(1.82989 0.229077 0)
(2 -6.17529e-14 0)
(1.9015 0.142117 0)
(1.83798 0.221637 0)
(1.86739 0.187545 0)
(2.10166 -0.284383 0)
(2 -4.82078e-14 0)
(1.83095 0.228737 0)
(2 -1.09983e-13 0)
(1.83191 0.228968 0)
(2 -1.22789e-07 0)
(1.83118 0.229 0)
(2 -2.24999e-07 0)
(2 2.2777e-14 0)
(1.8312 0.22887 0)
(2.00241 -0.00578451 0)
(1.8306 0.230092 0)
(2.12539 -0.259438 0)
(1.84726 0.212075 0)
(2 3.28987e-14 0)
(1.88142 0.170142 0)
(2 -1.77893e-13 0)
(1.83028 0.227879 0)
(1.83128 0.228871 0)
(1.83052 0.228232 0)
(2 7.61388e-16 0)
(1.84851 0.210174 0)
(1.83154 0.229072 0)
(1.84429 0.213881 0)
(1.89714 0.146464 0)
(1.8342 0.228989 0)
(2 -2.70936e-14 0)
(1.887 0.163378 0)
(2 -1.45563e-13 0)
(1.83103 0.229386 0)
(2 -1.008e-13 0)
(1.97203 0.0388 0)
(2 -2.18386e-14 0)
(1.84394 0.215107 0)
(2 2.49168e-15 0)
(1.83189 0.229249 0)
(1.83899 0.22034 0)
(1.83958 0.219858 0)
(2 -6.90468e-14 0)
(1.83676 0.22989 0)
(2.09124 -0.261989 0)
(2 1.07602e-14 0)
(2.12877 -0.258319 0)
(2 -1.82481e-13 0)
(2 -8.65755e-14 0)
(2 1.88706e-14 0)
(1.83065 0.228977 0)
(2 -6.00428e-14 0)
(1.83136 0.229383 0)
(2 3.36415e-15 0)
(2 -6.19853e-14 0)
(2 2.56536e-14 0)
(1.83163 0.229569 0)
(1.82728 0.233979 0)
(1.86822 0.185181 0)
(1.83086 0.230034 0)
(1.83117 0.229737 0)
(2.11504 -0.269935 0)
(1.83465 0.229274 0)
(1.83121 0.22892 0)
(2 -2.93672e-13 0)
(1.84921 0.214727 0)
(1.83128 0.228704 0)
(1.84416 0.213123 0)
(2 -8.01707e-14 0)
(1.82876 0.228596 0)
(1.83108 0.228899 0)
(2 -4.62896e-14 0)
(1.82815 0.230501 0)
(1.83069 0.228701 0)
(1.83124 0.229066 0)
(1.83115 0.229342 0)
(2 -1.0728e-13 0)
(2 -1.5347e-13 0)
(2 -1.46907e-13 0)
(1.83182 0.229004 0)
(2.10926 -0.267199 0)
(2 -8.82903e-14 0)
(1.83158 0.229046 0)
(2 -1.76962e-13 0)
(2 1.32157e-13 0)
(2.12942 -0.266201 0)
(2 -6.77074e-14 0)
(2 7.52501e-14 0)
(1.83182 0.229004 0)
(1.83161 0.229102 0)
(2 -5.43614e-15 0)
(1.83158 0.228732 0)
(1.83015 0.231968 0)
(1.83037 0.228824 0)
(2.00976 -0.0165441 0)
(1.83105 0.228803 0)
(2 9.62715e-15 0)
(1.83115 0.22886 0)
(1.83176 0.228687 0)
(1.87456 0.178082 0)
(2 6.37221e-15 0)
(2 -2.45081e-14 0)
(2 2.47402e-14 0)
(1.83179 0.2292 0)
(1.83117 0.228716 0)
(1.83193 0.228736 0)
(2.01197 -0.033822 0)
(2 -1.7737e-13 0)
(1.82948 0.231898 0)
(1.83122 0.228709 0)
(1.83159 0.228716 0)
(2 -5.92328e-14 0)
(1.83138 0.228672 0)
(1.83121 0.229372 0)
(1.8312 0.228914 0)
(1.8282 0.232289 0)
(2 -5.43238e-14 0)
(1.83164 0.228997 0)
(1.82962 0.231724 0)
(1.85401 0.202294 0)
(1.83136 0.2291 0)
(1.82842 0.231193 0)
(2 -5.13555e-14 0)
(1.82974 0.232664 0)
(1.83336 0.22696 0)
(1.83169 0.228587 0)
(1.83003 0.230756 0)
(1.83166 0.229004 0)
(2.10649 -0.272317 0)
(1.83161 0.228977 0)
(1.83104 0.229472 0)
(2 -5.41421e-14 0)
(1.83145 0.228828 0)
(1.83171 0.228582 0)
(1.8313 0.229032 0)
(1.83161 0.229121 0)
(2 -5.69056e-08 0)
(1.83159 0.228812 0)
(1.83137 0.228782 0)
(2 -1.72205e-07 0)
(1.83242 0.228993 0)
(1.85655 0.19978 0)
(2 -4.78621e-14 0)
(2 -3.53636e-14 0)
(2 1.04997e-10 0)
(1.83086 0.230255 0)
(1.83225 0.229766 0)
(2 4.98738e-14 0)
(2 7.66799e-15 0)
(1.90773 0.136601 0)
(2 -6.9675e-14 0)
(1.83197 0.228987 0)
(2 -8.30062e-14 0)
(2 6.0588e-14 0)
(1.83165 0.228985 0)
(1.83077 0.229531 0)
(1.83147 0.228747 0)
(1.83177 0.228578 0)
(2 5.50783e-14 0)
(2 -1.32728e-13 0)
(2 1.31758e-13 0)
(1.88555 0.168744 0)
(2 -2.67506e-14 0)
(1.83143 0.229606 0)
(2 -1.24338e-13 0)
(2 -1.11824e-13 0)
(1.82781 0.228544 0)
(1.82993 0.228715 0)
(2 -2.56034e-14 0)
(1.83176 0.228891 0)
(2.12643 -0.278028 0)
(1.8315 0.228704 0)
(1.83221 0.228138 0)
(2.11146 -0.198955 0)
(2 1.2016e-13 0)
(2.1022 -0.284565 0)
(1.85326 0.204025 0)
(1.83249 0.228524 0)
(1.83119 0.229933 0)
(1.83106 0.230024 0)
(2.13045 -0.257926 0)
(1.83149 0.229094 0)
(1.83179 0.229601 0)
(2.12453 -0.26002 0)
(2.13215 -0.2782 0)
(2 -2.62799e-07 0)
(1.83152 0.229582 0)
(1.83184 0.228613 0)
(2 -1.55737e-13 0)
(2 -6.52289e-15 0)
(1.83135 0.228981 0)
(2 -1.14367e-13 0)
(1.83363 0.228455 0)
(2 2.69403e-06 0)
(1.85289 0.203883 0)
(2 1.10908e-13 0)
(1.92196 0.116565 0)
(1.83166 0.229055 0)
(1.83046 0.229694 0)
(1.88221 0.173264 0)
(1.85501 0.198691 0)
(1.83093 0.229221 0)
(1.83129 0.229503 0)
(1.84654 0.217688 0)
(2 -1.91978e-13 0)
(2.11419 -0.268242 0)
(1.82997 0.23071 0)
(1.8319 0.22873 0)
(1.82992 0.231018 0)
(2 7.36856e-06 0)
(2 3.65238e-10 0)
(2 1.56789e-09 0)
(1.83028 0.230056 0)
(2 2.43842e-14 0)
(1.83167 0.229063 0)
(1.83188 0.228949 0)
(2.085 -0.174341 0)
(2 8.70234e-14 0)
(1.83123 0.229057 0)
(2.00002 -4.72923e-05 0)
(2 -1.37442e-13 0)
(1.99999 1.81815e-05 0)
(1.99998 2.7194e-05 0)
(1.83198 0.228756 0)
(1.83013 0.228452 0)
(2.00055 -0.000935813 0)
(2 -7.31512e-14 0)
(2 -1.26885e-14 0)
(1.83189 0.228897 0)
(1.83085 0.230037 0)
(1.83168 0.228886 0)
(1.83201 0.228327 0)
(1.83083 0.229489 0)
(2.09458 -0.26044 0)
(1.86749 0.190186 0)
(2 4.94558e-14 0)
(1.83288 0.227619 0)
(1.83155 0.228815 0)
(1.83161 0.228757 0)
(1.83708 0.224521 0)
(2 -4.95446e-14 0)
(1.83169 0.228722 0)
(1.8361 0.224039 0)
(1.83108 0.229527 0)
(2 -1.71245e-13 0)
(1.83091 0.228374 0)
(1.83054 0.229388 0)
(2.0516 -0.0941923 0)
(1.8316 0.228809 0)
(1.83053 0.228296 0)
(2 -1.11132e-14 0)
(1.83132 0.228579 0)
(2.05958 -0.109999 0)
(1.83103 0.22862 0)
(2.04407 -0.0906788 0)
(1.83178 0.228817 0)
(2 -1.17015e-07 0)
(1.83147 0.22895 0)
(1.82335 0.234997 0)
(1.83134 0.228855 0)
(1.83129 0.228966 0)
(1.83144 0.228958 0)
(1.82959 0.22808 0)
(1.83131 0.229096 0)
(1.82894 0.227438 0)
(2 -5.76411e-14 0)
(2.02319 -0.0480097 0)
(1.83097 0.228646 0)
(1.83181 0.229106 0)
(2.05868 -0.107668 0)
(1.8311 0.228779 0)
(2.005 -0.0194181 0)
(1.89668 0.151792 0)
(1.83106 0.228738 0)
(1.82995 0.228582 0)
(1.82966 0.229692 0)
(2 6.82067e-14 0)
(1.83067 0.230159 0)
(1.89053 0.151231 0)
(1.83058 0.230009 0)
(2.03767 -0.0516756 0)
(1.83055 0.229877 0)
(1.82786 0.230961 0)
(2 1.10763e-13 0)
(2.04891 -0.0833236 0)
(2 -2.32213e-09 0)
(1.83757 0.223722 0)
(2 -4.63113e-14 0)
(1.88433 0.165169 0)
(2 3.37039e-09 0)
(1.83748 0.233632 0)
(2.0456 -0.0864357 0)
(2 9.80668e-14 0)
(1.83177 0.227649 0)
(1.82716 0.232618 0)
(2 -3.68175e-14 0)
(1.83082 0.231336 0)
(1.83052 0.229629 0)
(1.83019 0.23234 0)
(1.82927 0.22831 0)
(1.83047 0.232526 0)
(2 8.14699e-14 0)
(1.8292 0.22841 0)
(2 -1.03376e-13 0)
(2 -3.77215e-14 0)
(2 6.74228e-14 0)
(2.03737 -0.0709953 0)
(1.83186 0.228983 0)
(1.83119 0.228141 0)
(1.83145 0.228312 0)
(1.83163 0.228868 0)
(1.83401 0.228281 0)
(1.83147 0.227855 0)
(1.82818 0.233679 0)
(1.83121 0.229293 0)
(2.03395 -0.0681687 0)
(1.98995 0.0214993 0)
(2 3.33265e-09 0)
(2 1.67361e-13 0)
(1.82515 0.23255 0)
(1.83156 0.229168 0)
(1.83166 0.228842 0)
(1.83126 0.229026 0)
(1.99999 1.63452e-05 0)
(1.91972 0.121322 0)
(2 -1.69243e-07 0)
(1.82887 0.230915 0)
(1.85702 0.197397 0)
(2 -3.0937e-12 0)
(2 -4.69039e-11 0)
(2.09388 -0.192478 0)
(1.83173 0.228715 0)
(2 -9.17726e-14 0)
(2 4.29244e-14 0)
(2.10804 -0.269149 0)
(1.83127 0.229005 0)
(2 -3.56823e-14 0)
(1.83105 0.228912 0)
(1.83113 0.22895 0)
(1.831 0.229009 0)
(1.83779 0.222016 0)
(1.83137 0.229147 0)
(2 -9.1175e-11 0)
(2.09984 -0.280551 0)
(1.95637 0.0679027 0)
(1.83128 0.22883 0)
(1.83142 0.229018 0)
(2 -9.46515e-14 0)
(1.83189 0.22905 0)
(1.83155 0.228965 0)
(1.91293 0.123461 0)
(2.00065 0.00440149 0)
(1.96672 0.0562394 0)
(2 -8.50267e-14 0)
(1.83002 0.228367 0)
(1.83164 0.229003 0)
(2 -1.20552e-07 0)
(2 -2.15532e-10 0)
(2.12536 -0.259342 0)
(2 -2.35338e-10 0)
(2 -1.13935e-13 0)
(1.83137 0.228828 0)
(1.83172 0.229023 0)
(1.83194 0.227853 0)
(1.83179 0.228801 0)
(1.83139 0.228824 0)
(1.82796 0.231069 0)
(1.83122 0.229135 0)
(1.83145 0.228025 0)
(1.83131 0.228865 0)
(2 -1.38428e-13 0)
(2.00164 -0.00231805 0)
(1.83108 0.229077 0)
(1.83194 0.229052 0)
(2.0011 -0.00166109 0)
(1.83157 0.228981 0)
(1.8317 0.228713 0)
(2.10086 -0.271452 0)
(2.12104 -0.264393 0)
(1.83189 0.227685 0)
(1.83266 0.227468 0)
(2 -1.38714e-13 0)
(2 -5.46841e-14 0)
(1.99926 0.00244159 0)
(1.83143 0.229 0)
(1.8321 0.228037 0)
(1.83119 0.229045 0)
(2 1.06678e-09 0)
(1.83177 0.228968 0)
(2 -2.54301e-14 0)
(2.05383 -0.0984324 0)
(1.82948 0.231514 0)
(1.83693 0.22999 0)
(2 -1.08831e-13 0)
(1.92175 0.1103 0)
(1.83082 0.228715 0)
(2 -2.50161e-13 0)
(1.82842 0.229631 0)
(2 -1.03166e-10 0)
(1.83158 0.228888 0)
(1.88963 0.159336 0)
(1.83179 0.228847 0)
(2 1.06673e-11 0)
(1.8313 0.229677 0)
(1.83307 0.23009 0)
(2.12077 -0.264583 0)
(1.83123 0.229071 0)
(2 -1.26199e-07 0)
(1.83031 0.229912 0)
(1.82971 0.228657 0)
(2 7.13061e-09 0)
(2.09949 -0.268308 0)
(1.8299 0.230301 0)
(1.85734 0.199003 0)
(2.00077 -0.00118691 0)
(1.83541 0.221686 0)
(1.83169 0.228625 0)
(2 -5.02878e-12 0)
(1.99854 -0.00803587 0)
(1.82946 0.232344 0)
(2.00142 -0.00192045 0)
(1.83125 0.228939 0)
(2 -3.75941e-12 0)
(2 1.35641e-14 0)
(1.83124 0.229735 0)
(2 -1.38989e-13 0)
(1.83046 0.229846 0)
(1.83123 0.228978 0)
(2.00126 -0.00215541 0)
(1.86365 0.183619 0)
(2 3.07315e-09 0)
(1.83137 0.228854 0)
(2 1.05778e-09 0)
(2 -6.27482e-13 0)
(2 9.55123e-12 0)
(2 6.43472e-12 0)
(1.83129 0.229073 0)
(2 6.92054e-09 0)
(2 -2.02077e-13 0)
(1.83003 0.232641 0)
(2 2.10446e-14 0)
(1.83116 0.228748 0)
(2 2.78011e-10 0)
(1.89142 0.158342 0)
(1.83066 0.228764 0)