/*--------------------------------*- C++ -*----------------------------------*\
  =========                 |
  \\      /  F ield         | OpenFOAM: The Open Source CFD Toolbox
   \\    /   O peration     | Website:  https://openfoam.org
    \\  /    A nd           | Version:  12
     \\/     M anipulation  |
\*---------------------------------------------------------------------------*/
FoamFile
{
    format      ascii;
    class       surfaceScalarField;
    location    "4.5";
    object      phi;
}
// * * * * * * * * * * * * * * * * * * * * * * * * * * * * * * * * * * * * * //

dimensions      [1 0 -1 0 0 0 0];

internalField   nonuniform List<scalar> 
33852
(
0.000251329
2.24281e-05
-0.000273757
-0.000246121
1.32441e-05
0.000232877
-0.00017221
-6.99249e-05
0.000242445
0.000304053
-0.000163969
-0.000140085
0.000293075
-4.23384e-05
-0.0002496
2.72441e-05
-0.000260681
0.000233437
0.000314772
1.46704e-05
-0.000329722
0.000304277
-9.59564e-05
-0.000208321
0.000286413
-3.50841e-05
0.000200731
1.88125e-06
-0.000203873
0.000289901
-0.000367288
7.73707e-05
0.000360413
-4.56296e-05
-4.39602e-05
0.000263285
-0.000219325
-4.38586e-05
0.000318193
-0.000274282
5.93073e-05
-0.000232473
0.000252057
1.2236e-05
-0.000264293
0.000264853
-1.2796e-05
-0.000278433
3.23121e-05
0.000340869
-5.12071e-05
0.000158593
0.000112308
-0.000270901
-2.43033e-05
0.000303402
-0.000279068
0.000271377
-0.000276165
4.78802e-06
-1.76609e-05
0.000274284
-0.000257816
-0.000225628
1.44204e-05
0.000206809
-0.000153318
-0.000183258
0.000337009
-0.000133185
-6.01546e-05
0.000197721
3.72401e-05
0.000267037
-6.09433e-05
-0.000261722
0.000322906
-0.000213978
1.61967e-06
0.000214072
-0.000208558
-1.91265e-05
0.000142045
0.000137388
-0.000279433
0.000341494
1.92707e-05
0.000142618
0.000128347
-0.000270965
-0.000101136
0.000259729
-0.000250489
-3.78001e-06
0.000254269
0.000330932
-5.96312e-05
-0.000271177
-0.000356985
0.000203369
-0.00022782
0.000209104
0.000231645
3.32081e-05
-5.65602e-06
0.000237301
-8.36165e-06
0.000204983
-0.000232625
0.000259869
0.000315419
-5.71931e-05
-0.000258868
-0.000309093
5.51042e-05
0.000253989
0.000239121
-0.000299862
0.000273589
-0.000306321
3.27321e-05
-0.000180237
-5.49362e-05
0.000235173
0.000272133
-0.000272133
0.000148429
-0.000297473
0.000149045
-0.000212556
0.000220097
-7.60055e-06
-0.000268241
0.000237301
3.09401e-05
-0.000201123
0.00024422
-4.69305e-05
-9.16164e-05
-0.000217477
-0.0001148
-0.000252486
-0.000280169
0.000266113
1.40561e-05
0.000329966
1.19049e-05
-0.000250433
7.01963e-05
0.000117908
0.000145909
-0.000263817
1.34681e-05
-0.000267457
0.000253989
-0.000134569
0.000282997
-0.00015216
-4.86379e-05
0.000216981
-0.000274681
0.000245113
2.95681e-05
0.000237553
-0.000268437
3.08841e-05
-0.00018501
-2.36809e-05
0.000151665
0.000115565
-0.00026723
-0.000190476
-2.89614e-05
0.00021588
0.000263985
2.24281e-05
0.000275941
-2.35201e-06
0.000265329
-0.000250741
-1.45881e-05
0.000215673
-6.23881e-05
-0.000155736
-1.82001e-06
0.000239373
0.000366765
-0.000312682
-5.39708e-05
-2.83126e-05
0.000303915
-0.000275176
-0.000101584
0.000219493
0.00034275
2.41474e-05
-0.00037334
0.000355201
1.85271e-05
-0.000215889
2.30015e-05
0.00030873
-0.00031996
1.23441e-05
-0.000208559
0.000271377
-6.44673e-05
-4.45202e-06
1.7072e-05
-0.000319133
0.000302107
0.00023532
-0.000200285
-3.55796e-05
0.000269282
-0.000341279
7.01583e-05
0.000331162
-6.32458e-05
-0.000268941
0.000236573
3.23681e-05
-0.000129388
-0.000132609
0.000261997
-1.86761e-05
-0.000249565
-1.022e-05
-0.000258721
2.34094e-05
0.000209597
-0.000231121
3.10764e-05
-0.000218581
0.000183278
-2.51563e-05
0.000328476
-0.000304291
-0.000279329
0.000273701
5.62802e-06
0.000156129
-0.000296857
0.000140729
-6.01816e-05
-0.000155241
0.000210439
0.000143277
0.0001218
-0.000265077
-0.000250213
0.000225862
-0.000220174
0.000153432
-0.000168813
0.000327181
-0.000158369
0.000185389
7.16523e-05
-0.000257041
0.000255193
2.07481e-05
-0.000192277
0.000148317
5.03005e-05
0.000265331
0.000306944
-0.000289783
8.2576e-05
-0.000216752
0.000135241
0.000117096
-0.000281065
-8.02683e-07
0.000244629
-0.000244246
0.000166489
0.000122836
-0.000289325
0.000144117
8.9981e-05
-3.92002e-06
0.000259113
0.000304906
5.43126e-06
-0.000323956
0.000315084
8.92705e-06
-3.99002e-05
0.000236293
-0.000196393
4.08802e-06
-0.000284257
-2.57847e-05
0.000163582
-0.000129133
-0.000150206
0.000135072
0.000206631
-0.000178527
-0.000269921
0.000264965
4.95602e-06
2.64041e-05
0.000174721
-0.000201125
2.87841e-05
-0.000257265
0.000228481
0.000276137
-0.000262669
0.000115108
0.000212073
0.00021106
-0.000188095
-0.000175813
0.000202217
1.36363e-05
0.000283292
-0.000296562
0.000271428
2.17268e-05
0.000272772
-0.000283451
1.24043e-05
3.86402e-06
0.000267513
-1.81733e-05
0.000291531
0.000330586
1.00433e-05
0.000213886
-0.000257777
0.000316427
-0.000316446
-6.63603e-06
-0.000272693
2.7575e-05
0.000188477
0.000187993
3.98722e-05
-0.000227865
-5.53695e-05
0.000221508
-0.000165447
0.000153609
-0.000270285
0.000116676
0.000279441
-0.000329701
5.02602e-05
-6.38122e-05
0.000249201
-0.000166909
0.000315897
-0.000148989
-0.00031386
-9.98051e-06
-0.000214929
0.000175029
2.78601e-05
-0.000278349
0.000276221
-1.88441e-05
-0.000248613
1.72645e-05
-0.000303031
0.000285806
0.000344989
-0.000158593
-0.000186397
-1.67881e-05
-0.000240989
0.000257581
-0.000266617
-3.30401e-06
0.000224001
2.45841e-05
-0.000248585
0.000284509
-0.000128381
0.000140197
0.000138853
-0.000279049
-0.000201046
-1.05237e-05
0.000258169
-0.000115551
0.000225777
-0.000242555
-6.38122e-05
0.000251805
-0.000209901
0.000249481
-5.60002e-07
-0.000248921
0.000255109
-0.000237441
-0.000326465
0.000300284
-3.08841e-05
0.000203169
-0.000172285
0.000291766
1.17311e-06
-0.000293004
8.31577e-05
0.00013751
-0.000212482
4.48651e-05
-0.00018617
-0.000288526
-4.69153e-06
0.000294073
-1.61245e-06
-0.000286794
0.000146973
-0.000273925
0.000126952
-0.000262634
0.000219364
-0.000294533
0.000266171
0.000279441
-0.000312975
-1.24732e-05
0.000324891
0.000110266
0.000160834
-2.14162e-05
0.000352275
0.000140141
0.000139833
-0.000279973
0.000245029
-0.000250349
5.32002e-06
-0.000210953
0.000180069
0.000279133
-5.43202e-06
0.000350965
-3.25806e-05
-0.000300832
0.00030387
-1.14489e-06
0.000270985
-0.000270985
-0.00036443
0.000225796
0.00013871
-0.000201124
1.92699e-05
1.69312e-05
0.000275157
-0.000278461
3.30401e-06
-5.30261e-06
0.000169273
-0.000163406
-0.000197345
0.000254801
-5.74562e-05
-0.000207643
4.55087e-06
-0.000214706
0.000147698
7.63283e-05
-0.000180264
0.0002614
-8.11326e-05
0.000256285
-0.000287113
3.08281e-05
-0.000249229
5.18842e-05
-2.3644e-05
0.000275799
-0.00025238
-0.000253547
1.35801e-06
0.000252189
0.000231281
-7.28003e-06
-0.000294105
7.54757e-06
0.000286768
-0.000266085
0.000266085
-0.000285979
-5.55112e-05
-0.000170607
-0.000193814
-0.000170711
0.000215315
-4.46654e-05
-1.232e-05
-0.000239177
0.000251497
3.10801e-06
0.000210113
-0.000213221
-0.000185196
-2.24469e-05
0.000209461
7.62242e-06
0.000294358
-0.000301965
-0.000236153
-1.34401e-05
0.000249593
1.50361e-05
-0.000251189
-0.000241025
0.000256061
-0.000301232
0.000308982
0.000256117
7.16803e-06
-0.000168913
-3.18895e-05
0.000202667
-0.000145237
-0.000134765
-0.000244329
0.000240549
0.00029869
-4.92963e-07
-0.000298219
-0.00029878
6.69639e-07
0.000298177
1.93725e-05
0.000181217
0.000163773
7.70045e-05
-0.000257269
-0.000159242
0.000310908
0.000250721
-0.000108677
-0.000235145
-1.83681e-05
0.000253513
-0.000204568
-0.000126899
0.00033129
-6.10402e-06
-0.000229125
0.000235229
-2.1419e-05
-0.000179982
-0.000286449
-8.57167e-05
6.32914e-06
-0.000300367
-0.000212523
0.000328174
-0.000115795
0.000281597
0.000288205
-5.16322e-05
0.000271993
-1.57081e-05
-0.000187615
-1.40106e-05
0.000201049
0.000297298
3.59761e-07
-0.000298031
-0.000268537
-3.25019e-05
-0.000218821
0.000247605
-2.52498e-05
0.000310566
-0.000285277
0.000178572
7.6573e-06
-0.000187074
-3.37189e-05
0.000212701
-0.000301222
0.000276038
0.000290882
5.29728e-06
-0.000296691
0.000157445
0.00011886
-0.000276305
0.00028915
4.95981e-06
-0.000291571
-0.000236021
0.000106134
0.000119875
-0.00028181
0.00029546
0.000302513
-0.000156857
-0.000145657
0.000207005
-0.000203897
-0.000232009
-0.000121156
-0.000155009
-4.10907e-06
-0.000294043
0.000298182
-1.0136e-05
0.000276249
0.000288788
-2.11757e-05
-0.000268626
-0.000263015
2.88435e-05
0.000233912
0.000271433
-0.000267569
0.000249621
2.95121e-05
0.000315071
-9.79049e-06
-0.000305249
5.05136e-05
0.000162324
-0.000213227
-9.45909e-05
0.000188504
-9.34086e-05
0.000252617
-2.91201e-05
-0.000223497
7.15559e-07
0.000290453
-0.000178337
-3.16044e-05
0.00021022
-1.44223e-06
0.000292603
-9.33244e-05
0.000246933
-0.000255417
-5.26402e-06
0.000121184
0.000181329
1.34121e-05
0.000241557
-0.000254969
0.000236097
1.34961e-05
-0.000249593
0.000249509
-0.000242929
0.000256425
6.32517e-05
-0.000202026
0.000137488
-0.0002083
0.000111607
-0.000202949
0.000297284
1.40971e-06
-0.000298755
0.000253849
2.22881e-05
0.000268493
-0.000216441
-5.20522e-05
0.000225518
-0.000246849
2.13305e-05
0.000257909
1.40841e-05
5.85862e-05
0.000296395
0.000267186
-3.89594e-05
-0.000228226
0.00017335
1.274e-05
0.000240297
-0.000253037
0.00019545
-0.000114751
-8.10169e-05
-0.000205869
2.14354e-05
-1.20301e-06
-0.000297451
0.000298909
0.000217559
-0.000169717
-5.27147e-05
0.000344814
-4.1329e-05
0.000275969
-0.000135829
2.31561e-05
0.000238337
-0.000261493
-0.000231141
0.000254297
-2.66855e-05
-0.000229749
0.00025639
0.000154514
-0.000159025
-8.23802e-05
-0.000172553
-0.000261723
4.14346e-05
0.000220288
-3.17521e-05
-0.00022997
7.01666e-06
0.000261717
-3.25193e-05
-0.000229198
1.67111e-05
0.000115381
-0.000178228
0.000308785
-0.000171397
0.000262319
-3.57923e-05
-0.000226526
-0.00031917
0.000190723
-0.000106654
-0.000228453
-6.90203e-05
-5.26982e-07
-0.000295833
0.000295462
-2.78232e-05
0.000187646
-0.000144504
0.000308142
6.88464e-06
0.000250097
-0.000248249
-1.84801e-06
-0.000176892
6.21214e-05
0.000260271
-3.07272e-05
-0.00022953
0.000197345
-0.000250769
5.34242e-05
0.000254205
-0.000231206
-2.29992e-05
-0.000252337
0.000240017
0.000142187
0.000100362
-0.000101864
-0.000170269
0.000132496
-0.000261885
-0.000290249
0.000242201
4.80482e-05
0.000216809
3.1247e-05
-0.000248056
-0.000237579
-9.66364e-06
0.000247161
0.000327143
-2.29573e-05
0.000263996
-3.42721e-05
-0.000229724
0.000136062
-0.000219126
8.64281e-05
3.63259e-05
-0.000265637
0.000229311
-0.000253905
0.000121296
0.000249817
-5.24722e-05
0.000294673
-0.000154253
-0.000140421
0.000122248
-0.000289157
1.53441e-05
0.000237665
-0.000253009
-0.000262031
3.54705e-05
0.00022656
-2.79356e-06
-3.77917e-05
-0.000224239
0.00024838
-0.000271985
-0.000264649
3.44737e-05
0.000230175
0.000193257
0.000101416
-0.000149941
0.000290137
-0.000165738
-3.80382e-05
0.000206811
-1.81721e-05
0.000263201
-0.000293164
0.000310497
0.000114493
0.000101397
0.000261325
-0.000261325
0.000316336
-2.31749e-05
-0.000290372
5.32002e-07
0.000248949
0.000254857
1.65761e-05
0.000309754
-0.000276438
-3.31564e-05
-2.26336e-05
0.000266577
-0.000243943
3.00077e-05
-0.000260519
0.000230511
-0.000252139
0.000229506
0.000326831
3.11501e-05
-0.000260598
0.000229447
0.000276809
-3.16961e-05
-7.29824e-06
-0.000291866
0.000299628
0.000270898
3.89449e-05
0.000230245
-0.000266617
3.63721e-05
0.000200835
-0.000202958
-0.000258301
0.000238533
1.97681e-05
0.000169762
-0.000257245
8.74835e-05
-0.000210266
0.000163241
-0.000249145
8.59043e-05
-0.000266169
0.000224813
4.13562e-05
0.000253073
-2.78797e-05
-0.000225194
0.000177164
4.29253e-05
-0.000234837
-2.29601e-05
0.000257797
-0.000236377
-2.28761e-05
0.000259253
-1.94265e-05
0.000255969
-0.000236542
-0.000259345
0.000239919
-2.89266e-05
0.000176
-0.000235929
-2.24001e-05
0.000258329
-0.00025484
0.000229192
2.56481e-05
2.94001e-06
0.000211289
-0.000214229
-0.000267031
3.79849e-05
0.000229046
0.000270677
4.48002e-06
4.16838e-05
0.00015984
-0.000210715
-3.31196e-05
0.000249928
-2.08702e-05
0.000218597
9.73004e-05
0.000248201
-0.000216954
0.000277421
-0.000278783
0.000277452
-0.000281094
-1.84997e-05
0.000258601
-0.000240101
-0.000261644
0.000243145
2.97605e-05
-0.000200777
-2.92197e-05
-0.000208921
0.000241576
0.000315331
-0.000287767
-2.74061e-05
0.000261297
-3.11081e-05
-0.000230189
3.28739e-05
-0.000262362
0.000229488
-0.000229853
0.000259645
-2.97921e-05
0.000325647
-1.77153e-05
0.000137503
-0.000201681
0.000256929
-0.000109956
-0.000286329
0.000287577
0.000241977
-6.41202e-06
-0.000235565
0.000228537
-0.000183914
-3.7067e-05
0.0002183
2.78766e-05
-0.000211557
-0.000239989
0.000260317
-2.03281e-05
-0.000102048
0.000191743
-8.54246e-05
3.06188e-05
-0.000196778
0.000240169
-0.000263424
2.32552e-05
-0.000115584
0.000258861
-0.000243993
0.000265721
-2.17281e-05
-0.000238953
0.000232541
0.000258626
-0.000245105
-1.35213e-05
0.000264349
-2.46681e-05
-0.000246317
-0.000271936
-1.04256e-05
0.000298643
-5.37755e-05
-8.26223e-06
0.000294526
-0.000286299
-0.000174228
0.000210649
0.000232121
1.73102e-05
-0.00024834
0.000328236
-0.000328254
0.000260955
-0.000245018
-1.59377e-05
-0.000301953
-7.68512e-07
0.000305704
9.67789e-06
3.79975e-05
0.00017032
-0.000208591
0.000217412
-3.46033e-05
-0.000176947
0.000278054
-0.000255789
-2.22648e-05
-0.000209418
3.13021e-05
3.15421e-05
-0.000261891
0.000230348
0.000285115
-0.00029169
2.44721e-05
-0.000259617
-0.000257965
1.87881e-05
0.000266057
-1.64361e-05
0.000151173
-0.000267625
0.000116452
0.000298894
-4.46804e-06
0.000238617
-7.53763e-05
2.12521e-05
0.000177045
-0.000198297
-0.000183877
0.000205129
-0.000236275
0.000257219
-2.09441e-05
0.000261462
-3.31689e-05
-0.000228293
-0.000197009
-5.21362e-05
0.000251581
-1.48401e-06
9.06927e-06
-0.000264611
0.00025659
-0.000344738
0.000236643
0.000106697
0.000266371
-0.000236811
-2.95597e-05
0.000306854
-0.000314641
7.72439e-06
-2.57041e-05
-0.000229097
0.000254801
0.000261493
-7.64403e-06
1.03738e-05
-0.000210292
0.000262411
-3.19033e-05
-0.000230508
-6.90483e-05
-0.000260653
-0.000194685
0.000248025
-5.33402e-05
-0.000266533
0.000249985
1.65481e-05
-0.000317944
1.67324e-05
-1.72916e-05
0.000297145
-0.000279779
-0.000276221
1.65481e-05
0.000249537
-0.000165217
6.39763e-05
0.00027355
1.47389e-05
-0.000288294
-0.000316108
0.000307879
8.1503e-06
3.46641e-05
-0.000263649
0.000228985
-1.74336e-05
0.000281286
-0.000315163
1.63445e-05
-0.000176541
-7.42283e-05
-0.00023769
0.000210104
-2.16721e-05
-0.000216469
0.000238141
-0.000314501
0.000295914
1.89359e-05
-0.000133692
0.000275842
-0.000141181
-8.33147e-06
3.31521e-05
-0.000263453
0.000230301
-0.000201483
2.4757e-05
0.000176255
0.000221501
0.00028
-0.000280402
3.09394e-07
-0.000236993
-2.20921e-05
0.000224813
-0.000202721
0.000139273
0.000143753
-0.000278517
0.000199507
-5.7058e-05
0.000307601
-1.06767e-05
0.000209205
-0.000268835
2.92853e-05
0.00022306
-0.000252345
-0.000320949
0.000138314
0.000296234
2.92594e-05
1.94825e-05
-0.000224355
-2.77845e-05
-0.000136463
-0.000132959
-0.000326204
0.000113391
0.000242873
2.56201e-05
0.000218765
-0.000224869
1.07985e-05
-0.000286983
0.000276218
-0.000242341
0.000269835
-2.72998e-05
0.000281441
-0.000281946
0.000288652
-7.69207e-05
-8.98974e-06
0.000290441
-1.87881e-05
0.000247101
-0.000228313
0.000281509
-0.000290426
-5.67658e-06
-0.000284086
0.000289882
0.000282231
-0.000269603
0.000284339
0.000226314
2.67597e-05
-0.000310346
0.00031678
-8.96045e-06
0.000253684
-2.15197e-05
0.000227996
2.41993e-05
-0.000268913
0.000246057
-2.05381e-05
-0.000259401
3.02849e-05
0.000229116
0.000178305
7.64963e-05
9.72412e-06
0.000281205
-0.00029323
-0.000238141
-2.88401e-05
0.000266981
2.51441e-05
-0.000263285
0.000284117
-0.000162317
-0.000232177
0.000261129
-2.89521e-05
-0.000234697
0.000260709
-2.60121e-05
1.35728e-06
0.000278696
2.45001e-05
-0.000259197
2.38001e-05
-0.000255977
0.000274257
-0.000242955
-3.13447e-05
0.000317806
-9.97103e-06
-0.000308552
1.01542e-06
-0.000255753
1.1816e-05
0.000243937
-1.5423e-05
-0.000261185
0.000228065
-0.000245337
0.000270145
-2.48081e-05
-0.000263229
1.49801e-05
-2.3544e-05
0.000286026
-0.000262762
2.13641e-05
-0.000266701
-0.000241534
-2.13608e-05
3.28045e-05
-9.0432e-05
0.000260194
0.000280858
-0.000286114
5.05122e-05
0.000237693
0.00028214
-0.000282144
-0.000243181
-2.39401e-05
0.000267121
-0.000260894
7.34723e-06
-0.000295197
1.95436e-05
0.000275684
-0.000268717
2.55361e-05
-8.6034e-06
0.000290254
-0.000268326
0.000243549
2.47772e-05
-0.000232513
0.000210841
0.000278955
-0.000288203
-6.16002e-07
0.000260289
-0.000259673
-0.000301809
-1.61432e-05
-0.000264573
2.35481e-05
-0.00024417
-2.41556e-05
-3.43281e-05
-0.00029798
0.000293995
0.000286674
-0.000158327
0.000294552
-0.00028977
2.30152e-05
4.94221e-06
0.000261102
-0.000253853
-7.06147e-06
0.000307363
-2.0124e-05
-0.000287116
5.91785e-05
-0.000246765
-2.19521e-05
-0.0003573
0.000242687
0.000284919
-0.000276248
2.33801e-05
-0.00019198
-1.62476e-05
-0.000306521
2.56403e-05
0.000280588
-0.000196813
0.00031087
-0.00011347
0.000259841
-0.000238533
-2.13081e-05
-0.000291498
2.94001e-05
0.000222097
-0.000251497
-0.000169472
0.000149171
-0.000160142
0.000251441
-0.000238029
-1.34121e-05
-0.000263873
3.40201e-05
-2.23161e-05
-0.000269837
0.000251469
0.000230427
3.12901e-05
-4.60013e-05
0.000201111
0.000232619
-0.000260499
-1.74328e-05
-3.21299e-06
0.000245957
-0.000243155
-0.000293375
-0.000237049
0.000265189
-2.81401e-05
0.000230096
3.22225e-05
-0.000268521
2.55921e-05
-0.000239905
-2.86161e-05
0.000228954
-0.000260706
-0.000282506
4.73202e-05
-0.000242005
0.000294574
-0.00028574
-0.000288853
1.34728e-05
0.000275949
-3.44874e-06
0.000224245
0.000228551
-0.00026107
0.000296885
-0.0001309
-0.000165985
0.000241113
-0.000261955
0.00026942
-0.000226213
-1.76681e-05
-0.000165263
0.000306411
-0.000143202
2.49649e-05
0.000222662
-0.000247627
-0.00019428
0.00019443
-0.000283463
0.000282681
7.05367e-06
-0.000290324
-0.000302485
0.000146693
0.000155793
0.000259995
-0.000239359
-2.06361e-05
-0.000215741
0.000193649
0.000262061
3.50826e-07
0.000257293
0.000232526
2.16798e-05
-0.000295159
-6.27355e-05
1.00916e-05
0.000231534
-0.000249041
1.77296e-05
-0.000230917
-2.37161e-05
0.000254633
-0.000242295
0.000263191
-2.08965e-05
8.32375e-05
0.000135061
2.02092e-05
-0.000306015
0.000285901
0.000256565
-1.80041e-05
-0.000238561
0.000243881
-0.000254017
1.0136e-05
-0.000226745
0.000207957
0.000223131
-0.000258923
-0.000244693
4.76842e-05
1.59781e-05
-0.000137869
-0.000219018
1.57921e-05
0.000245701
0.000280095
0.000293812
0.000305903
1.67099e-06
0.000249817
-0.000220417
2.51749e-05
0.000225009
-0.000250184
-0.000243178
0.000268865
-2.56873e-05
2.28201e-05
-0.000262725
-0.00010064
0.000296485
9.17809e-06
2.08181e-05
0.000261675
-0.000235103
-2.65721e-05
1.31624e-05
-0.000303823
0.000290722
0.000321638
-3.09517e-05
-0.000290714
0.000249733
1.63241e-05
0.000306211
-0.000293133
-0.000231748
-0.00011307
9.63204e-06
0.000250657
-4.9129e-05
-0.00020239
0.000251519
2.20333e-05
0.000246832
-0.000241686
-2.29629e-05
0.000260737
-2.24001e-05
0.000288199
-0.000268023
2.63369e-05
2.68241e-05
-0.000257965
0.000210617
-0.000207677
2.58161e-05
-0.000262865
0.00027928
0.000121744
-0.000256173
0.000134429
1.68451e-05
3.85991e-05
0.000163425
-0.000201878
-0.000239485
-2.85377e-05
3.97454e-05
0.0001599
-0.000199763
-0.000246691
0.000271066
-2.43747e-05
0.000209866
-0.000248826
1.98857e-05
1.73051e-05
-0.000175835
-3.07322e-05
0.00022669
-0.000257414
-2.88401e-05
0.000244245
-0.000215405
-2.16161e-05
0.000242985
-0.000221369
0.000201657
-0.000250786
-0.00027379
-0.000232905
-2.55081e-05
0.000258413
0.000241234
2.98318e-05
-0.00020888
-2.4299e-05
0.000232376
-2.18821e-05
-0.000224967
-0.000239345
6.28042e-05
0.000259004
-0.000229718
4.75106e-05
-0.000249901
-3.43393e-05
0.000257694
-0.000223354
0.000205675
-0.000240014
0.000261689
-1.1956e-05
-6.06763e-05
-0.000229572
-0.000225028
-1.77592e-05
0.000242572
0.000247109
5.3175e-05
0.000212448
-0.000265623
-0.000261097
0.000177353
-0.000231757
5.44042e-05
6.38098e-05
0.000135351
0.000259457
-0.000240915
-2.47224e-05
-0.000265385
0.000227165
3.82201e-05
-2.87813e-05
-0.000222158
0.00025094
-0.0002842
0.000264161
0.000234501
3.61761e-05
2.18821e-05
0.000234087
-0.000307217
0.000151089
0.000156129
0.000165822
-5.15888e-05
0.000254045
-0.000115192
2.56901e-05
0.000217446
-0.000243136
-0.000286431
0.000287016
9.1982e-06
0.000257377
-0.000245953
0.000208937
3.70161e-05
0.000254832
0.000246119
-1.98342e-05
-0.000246815
-2.02161e-05
-0.000263019
2.0724e-05
-0.000269215
2.24001e-05
2.79601e-05
0.000220024
-0.000247984
0.000242481
-0.000274597
1.32721e-05
0.000246483
-1.37995e-05
1.26456e-05
-0.000250214
-0.000328535
0.000123914
-0.000233135
-2.62109e-05
-0.000252113
0.000252113
0.000259782
-0.000144217
-1.85482e-05
-0.000278209
0.000297046
0.000271639
0.000258749
-0.000135913
0.000224113
2.39205e-05
0.00023468
7.78461e-05
-0.000340424
3.77034e-05
0.000258962
1.76363e-05
-0.000248843
-3.00917e-05
0.000207453
-3.01001e-05
0.000259701
2.95429e-05
0.000218353
-0.000247896
-3.05014e-05
-4.09782e-05
-0.000217818
0.000258797
-0.000233423
-2.14173e-05
3.68871e-05
-0.000193852
0.000157951
-3.30877e-05
0.000221671
-0.000255943
-0.000282094
-8.40834e-06
0.000290453
-0.000193145
0.000162297
0.000166349
8.16763e-05
1.27922e-05
-0.000294826
0.000235075
2.59446e-05
-0.000261019
-0.000198425
-1.28688e-06
0.000232743
-0.000264287
3.15449e-05
-8.42803e-06
-0.000217029
0.000225457
-0.000158044
0.000195316
-0.000249985
-3.46025e-05
0.000256274
0.000218076
-0.000252679
-0.000246289
0.000272245
-2.59561e-05
0.000253547
2.78321e-05
-0.000232062
-2.95821e-05
-0.000298254
0.000316449
-1.81918e-05
2.33875e-05
0.000212462
-0.000250254
-0.000267233
2.09441e-05
-2.12801e-05
-0.000245953
-3.61481e-05
0.00024861
-0.000290046
-1.36681e-05
0.00022082
-0.000256968
0.000248862
-0.000252036
1.94168e-06
2.80002e-06
0.000181413
-0.000184213
0.000255294
0.000234529
2.67681e-05
-2.62361e-05
0.000245001
-0.000218765
3.36001e-05
0.000216609
-0.000250209
0.000244861
2.73841e-05
0.000306545
-0.000143949
-0.000162597
1.55556e-05
0.000239185
-0.000253858
0.000271013
-0.000113568
0.000225569
-0.000256677
-0.000241228
0.000105394
-0.000265469
7.16803e-06
-0.000241635
-2.75801e-05
-0.000241361
-2.48081e-05
0.000310603
-2.7495e-05
-7.67483e-05
0.000243097
-1.1452e-05
-0.000215601
0.000224281
-8.68003e-06
0.000255193
-7.68883e-05
3.44882e-05
-0.000197725
0.000162885
-0.000265245
-1.40001e-07
-4.14962e-05
3.95072e-05
0.000154412
-0.000193951
0.000197936
-0.000163703
0.000257041
-7.05603e-06
0.000251151
-0.000218277
-1.82323e-05
-2.1128e-05
0.000273265
-9.62011e-05
-0.000183145
-1.42801e-05
-0.000191913
0.000206193
0.000258665
-1.53553e-05
-0.00024331
1.98101e-05
0.000238855
-0.000279577
-7.98833e-06
3.6685e-05
-0.000199035
0.000157499
1.36921e-05
0.000247997
-0.000167442
0.000200935
-1.95189e-05
0.000248711
3.2808e-05
0.000187837
-0.000222327
-4.17202e-06
-2.49389e-05
0.000265108
-0.000231955
-3.14693e-05
0.000296967
-0.000281516
-1.53563e-05
1.63717e-05
-0.000237659
0.000221288
-0.00010514
0.000226885
1.93463e-05
-0.00030471
0.00028508
2.52001e-05
-2.79441e-05
2.69165e-05
0.000307783
-0.000288884
0.000238891
1.97345e-05
2.15601e-06
0.000231617
-0.000233773
-0.000310852
2.56609e-05
0.000285193
-0.000162177
-0.000144145
0.000209178
-0.000250156
-0.000164831
0.000241924
1.90317e-05
0.000257949
-4.13534e-05
0.000250531
0.000214498
-0.000255851
0.000318343
-0.000318587
-1.07991e-05
0.00028704
-0.000276298
-0.000302885
1.9581e-05
0.000283389
4.20842e-05
-0.000286413
-3.93594e-05
0.000252483
2.62921e-05
-2.19777e-05
0.000307195
-0.000285051
2.43321e-05
3.97814e-05
0.00016308
-0.000202821
0.000249294
-0.000219751
2.83277e-05
-0.000261633
4.36802e-06
-2.0012e-05
0.000306811
-0.000288034
-0.000250987
-0.000266673
3.07441e-05
0.000252141
-0.000236741
-1.54001e-05
1.2264e-05
0.000239877
-0.000275217
-1.27759e-05
0.000255697
-5.20954e-06
0.000320008
-1.19165e-05
0.0002986
-0.000286293
-4.67604e-05
0.000247437
-0.000235621
0.000257601
-1.99361e-05
0.000121148
7.88704e-05
-0.000199707
0.000208834
3.03493e-05
0.000226759
-0.000258662
3.71393e-05
0.000272016
-0.000289228
1.6951e-05
0.000251273
-0.000239093
-1.31321e-05
0.000252225
-2.91201e-05
-0.000257265
2.56481e-05
0.000231617
-0.000228005
-2.92601e-05
0.000259765
-0.000233571
-2.61941e-05
0.000258721
-0.000266589
2.58657e-06
0.000287974
1.27324e-06
-0.000289783
0.000247093
-0.000230989
-1.85921e-05
0.00030885
-0.000300818
-7.98857e-06
0.000238499
-9.69669e-05
-0.000266897
2.56761e-05
0.000241221
-3.48881e-05
-0.000232009
-0.000266393
2.51161e-05
0.000241277
-1.2222e-05
-0.00026722
0.000280256
-3.45241e-05
-0.000231869
-0.000261832
1.8762e-05
-0.000266281
2.43881e-05
0.000241893
-0.000284083
-2.18314e-05
-0.000306328
2.76745e-05
0.000278601
-3.34041e-05
-0.000232877
-0.000168651
-0.000258133
2.94001e-05
0.000228733
0.000309397
-0.000309275
-0.000195805
0.000209049
-3.29281e-05
-0.000225205
0.000197551
-0.000279225
8.16975e-05
0.000283614
2.23442e-05
-0.000301953
1.76961e-05
0.000286302
-0.000281721
-5.08186e-06
-0.000257125
0.000231617
2.55081e-05
0.000175861
2.91178e-05
-0.000199452
-0.000266953
2.81681e-05
0.000238785
-0.000227361
-2.97641e-05
-3.67361e-05
-0.000230217
0.000277567
0.000297471
1.91008e-05
-0.000276142
-3.16531e-05
0.000308011
-0.000258679
-1.10617e-05
0.00029779
-0.000287063
1.49166e-05
-0.000302143
0.000287104
-0.000230609
-0.000308334
0.000287105
0.000263005
-2.55712e-05
-0.000280797
1.36081e-05
0.00016626
0.00022871
1.86444e-05
-0.000249471
-0.000194378
0.000160342
0.000236738
1.31517e-05
-0.00024989
-0.00025833
2.66093e-05
0.000231721
-1.09228e-05
0.000247661
5.74002e-06
0.000246877
-3.19817e-05
-0.000226348
0.000299598
-0.000285628
-1.38277e-05
0.000228024
-0.000226666
0.000289846
0.000237685
1.98521e-05
-0.000257537
-1.24236e-05
0.000250108
0.000246636
1.50389e-05
-0.000305605
1.54424e-05
0.00024448
2.18905e-05
3.27888e-05
-0.000204621
-0.000287546
-1.78755e-05
-0.000182869
0.000295177
-0.000148843
0.000185964
-3.26534e-05
3.0219e-05
-0.000205336
0.00017171
-0.000170155
0.000259149
-0.000239236
-1.99137e-05
0.00026062
-0.000272919
-0.000242401
0.000232159
-2.18987e-05
0.000301218
-0.000279349
0.000308559
-0.000293575
0.000242117
1.77241e-05
-0.000224975
0.00024443
-1.94545e-05
1.61001e-05
-0.000241075
-7.00003e-06
0.000260989
-0.000297315
4.84463e-06
0.000292323
-0.000174497
0.000160217
-1.74105e-05
-6.22082e-06
-0.000291033
-1.67147e-05
-0.000285363
4.28402e-06
-0.00030103
0.000134967
-0.000257464
2.38101e-05
0.000233676
0.000238197
1.32441e-05
-3.08149e-05
-0.000226685
-3.32039e-05
-0.000293105
2.09339e-05
-0.00022798
0.000207162
0.000254969
-0.000233465
-2.15041e-05
-0.000198553
0.000219573
-0.000185176
-7.63843e-06
0.00020401
0.000132117
0.000133968
3.89182e-06
0.000270016
0.00027997
-0.000305558
3.45461e-06
0.000243615
-1.98432e-05
0.000298664
-0.000278818
-0.000301674
0.000286937
1.47933e-05
-0.000258301
0.000230077
2.82241e-05
-2.64041e-05
-0.000231897
0.00030178
-0.000300337
0.000267357
-1.99699e-05
0.00030444
-0.000284406
0.00028599
-4.68991e-07
-0.000256873
0.000256873
-0.000268206
0.000295832
-0.000147631
-6.79388e-05
-6.96162e-06
0.000294715
-0.000287629
-0.000298035
0.000290857
0.000291785
-0.000278805
0.00029126
-0.000306284
1.45089e-05
3.45583e-05
-0.000239008
0.00021659
2.20649e-05
-1.45462e-05
-0.000248512
0.000230348
-1.44109e-05
0.000298107
-0.000283871
0.000263481
-1.96001e-05
0.000254224
-0.000235464
-1.87601e-05
-3.10356e-05
-0.0002738
0.000304778
1.44499e-05
-0.000297256
0.000283081
-1.45881e-05
0.000233465
-0.000218877
0.000207967
-0.000295094
0.000283299
-1.9276e-05
0.000304486
-0.000285049
0.00025102
-2.69741e-05
0.000296993
-0.00027138
-0.000296886
0.000268662
1.07156e-05
0.000244749
-0.000255465
0.000304907
-0.000311874
6.8684e-06
1.78947e-05
1.45583e-05
0.000286091
-0.000301591
6.29255e-06
0.000281893
2.31676e-06
-0.000318627
-0.00029029
0.000304899
-0.000242481
0.000243657
8.45603e-06
-0.0002264
0.000242772
-0.000293369
0.000274436
0.000284862
-0.000140721
-7.89576e-05
0.000293631
1.45252e-05
3.15177e-05
-0.000192599
0.000162877
-0.000274304
0.000257293
-0.000219535
0.00024982
0.000243411
1.92865e-05
-0.000262697
0.000236019
2.31309e-05
-0.000301521
0.000283269
0.000312668
-1.79699e-05
0.000237945
-0.000257069
1.91241e-05
-0.000222494
0.000247459
0.000295339
1.80289e-05
-0.000162193
-1.44961e-05
0.000298535
-0.0002836
-0.000142075
-0.000266415
0.000159993
0.000106423
-0.000309178
0.000295503
1.36937e-05
-0.000258699
0.000241826
1.68729e-05
-0.000157156
0.000158305
-0.000305252
0.000288371
1.782e-05
-0.000217906
0.000175619
-9.69084e-06
0.000253101
2.05166e-05
1.75406e-05
-0.000305079
0.000287659
-0.000301409
-7.24397e-06
0.000309015
-0.000249229
0.000220109
-0.000201153
-8.52603e-05
-0.000272634
0.000251895
0.000304945
-0.000287161
-0.000191316
1.81431e-05
1.51446e-05
0.000285655
-0.000298998
-8.80603e-05
0.000239233
-0.000303679
1.94556e-05
0.000284415
-0.000209675
-2.45016e-06
-0.00029717
-0.000164641
2.05297e-05
0.000302804
-0.000287667
-1.44855e-05
-0.000176884
-0.000299286
-0.000175004
-2.26039e-05
0.000243528
0.000288443
1.7173e-05
0.000252869
5.80225e-05
-0.000286528
-0.000247213
-0.00027109
-2.33892e-05
-0.000274679
0.000300193
-0.000262559
0.000282553
-0.000161803
-4.10699e-05
0.000202787
0.000197569
1.56521e-05
-0.000213221
-1.25495e-05
-0.000285875
0.0002985
1.83597e-05
1.85404e-05
-0.000305559
0.000287045
0.000253345
-1.71361e-05
-0.000236209
1.88231e-05
-0.000303599
0.000285298
2.03561e-05
0.000232989
0.000216385
-2.46121e-05
-0.000191773
1.56346e-05
0.000282321
-0.000298058
-0.000251612
0.000118418
-0.00030374
1.86127e-05
0.000284825
0.0002297
-5.2939e-05
-0.000294304
1.10604e-05
0.000285189
0.000255837
-2.19801e-05
-0.000233857
-0.000303458
0.000106232
0.000234529
1.70521e-05
-0.000251581
0.000280238
1.68092e-05
0.000303784
-0.000284106
1.7719e-05
-0.000299326
0.000233512
1.84916e-05
-0.000252004
-1.91102e-05
-1.41478e-05
0.000298225
-0.000284296
-0.000280277
0.00029969
-0.000277233
0.000291666
-0.000301502
1.23027e-05
0.000249741
-1.62291e-05
1.15939e-05
0.000250041
-1.55121e-05
0.000298835
-0.000283053
3.95922e-05
-0.000238239
2.21481e-05
-0.000253065