/*--------------------------------*- C++ -*----------------------------------*\
  =========                 |
  \\      /  F ield         | OpenFOAM: The Open Source CFD Toolbox
   \\    /   O peration     | Website:  https://openfoam.org
    \\  /    A nd           | Version:  12
     \\/     M anipulation  |
\*---------------------------------------------------------------------------*/
FoamFile
{
    format      ascii;
    class       volScalarField;
    location    "4.5";
    object      rho;
}
// * * * * * * * * * * * * * * * * * * * * * * * * * * * * * * * * * * * * * //

dimensions      [1 -3 0 0 0 0 0];

internalField   nonuniform List<scalar> 
22702
(
1.40001
1.40001
1.26425
1.40001
1.45268
1.40001
1.83861
1.40001
1.40001
1.03377
1.83783
1.83835
1.40001
1.84146
1.28043
1.40001
1.40001
1.40001
1.83833
1.40001
1.84226
1.40001
1.84105
1.0264
1.84216
1.03575
1.40001
1.83872
1.02699
1.02722
1.40001
1.83857
1.40001
1.40001
1.40001
1.80953
1.84405
1.84064
1.40001
1.40001
1.03454
1.40001
1.6204
1.40001
1.83793
1.40001
1.40001
1.40001
1.40001
1.02601
1.40001
1.02539
1.40001
1.83777
1.40001
1.8386
1.40001
1.40001
1.40001
1.40001
1.03619
1.40001
1.40001
1.02676
1.40001
1.02594
1.40001
1.40001
1.40001
1.03527
1.40001
1.84139
1.67148
1.40001
1.84141
1.86251
1.02638
1.84
1.02461
1.40001
1.83755
1.02895
1.83926
1.8395
1.40001
1.40001
1.40001
1.40001
1.32952
1.03532
1.83921
1.40001
1.40001
1.03423
1.40001
1.84237
1.03449
1.40001
1.40001
1.40001
1.40001
1.62067
1.83804
1.03593
1.40001
1.40001
1.50617
1.40001
1.02803
1.40001
1.83967
1.83858
1.40001
1.40001
1.0269
1.03041
1.035
1.40001
1.40001
1.40001
1.40001
1.40001
1.31071
1.40001
1.77872
1.43671
1.84007
1.40001
1.83993
1.8382
1.84203
1.83806
1.40001
1.03566
1.40001
1.03392
1.40001
1.40001
1.40001
1.40001
1.83837
1.40001
1.40001
1.40001
1.40001
1.84192
1.40001
1.42463
1.40001
1.40001
1.40001
1.40001
1.02714
1.40001
1.41024
1.40001
1.02408
1.40001
1.40001
1.40001
1.83824
1.40001
1.84165
1.02615
1.03629
1.84098
1.84111
1.40001
1.47438
1.65435
1.40001
1.83866
1.02381
1.81039
1.40001
1.40001
1.40001
1.40001
1.84137
1.76426
1.40001
1.83814
1.02582
1.83882
1.40001
1.02415
1.40001
1.02493
1.03587
1.39979
1.40001
1.40001
1.83923
1.40001
1.40001
1.84176
1.40001
1.83932
1.83831
1.03362
1.40001
1.40001
1.02868
1.84169
1.40001
1.40001
1.40001
1.84177
1.40001
1.03385
1.40001
1.40001
1.84169
1.84169
1.83975
1.40001
1.40004
1.40001
1.40001
1.40001
1.842
1.40001
1.02647
1.85473
1.84182
1.8423
1.40001
1.40001
1.40001
1.0132
1.84222
1.6144
1.40001
1.84327
1.02814
1.02982
1.84339
1.84328
1.40001
1.84259
1.02559
1.79029
1.40001
1.40001
1.40001
1.40001
1.8418
1.40001
1.66045
1.44241
1.40001
1.40001
1.84178
1.03526
1.1585
1.40001
1.84265
1.03455
1.841
1.40001
1.40001
1.40001
1.40001
1.40001
1.40001
1.40001
1.02683
1.15786
1.03276
1.84145
1.40001
1.40001
1.40001
1.40001
1.7918
1.40001
1.0245
1.40001
1.00633
1.02705
1.84171
1.02595
1.84218
1.40001
1.40001
1.40001
1.39769
1.02473
1.02611
1.4
1.40001
1.0041
1.40001
1.83849
1.03569
1.40001
1.40001
1.83763
1.02685
1.40001
1.84024
1.03621
1.8418
1.40001
1.01157
1.39775
1.40001
1.40001
1.40001
1.02463
1.40001
1.40001
1.40001
1.40002
1.41156
1.67234
1.40001
1.04462
1.40001
1.40001
1.40001
1.40001
1.40001
1.40001
1.40001
1.83816
1.40001
1.83975
1.40001
1.40001
1.40001
1.03773
1.40001
1.84197
1.02614
1.40001
1.74443
1.40001
1.40001
1.83919
1.40001
1.40001
1.40001
1.82884
1.40001
1.40001
1.83403
1.83851
1.40001
1.49038
1.40001
1.40001
1.03401
1.40001
1.40001
1.40001
1.03407
1.40001
1.40001
1.40001
1.40001
1.0342
1.40001
1.40001
1.40001
1.40001
1.40001
1.03436
1.40007
1.84143
1.40001
1.4
1.84124
1.84088
1.40001
1.40001
1.03708
1.20998
1.83774
1.40001
1.40001
1.40001
1.8417
1.03511
1.40001
1.8416
1.40001
1.40001
1.09702
1.09452
1.40001
1.02576
1.03773
1.40001
1.40001
1.40001
1.40001
1.40001
1.40001
1.40001
1.83968
1.51041
1.81441
1.03687
1.30887
1.83779
1.40001
1.84143
1.83799
1.03523
1.17007
1.40001
1.03472
1.40001
1.85164
1.40001
1.40001
1.40001
1.40001
1.84175
1.40001
1.40001
1.40001
1.40001
1.40001
1.40001
1.40001
1.56354
1.83908
1.40001
1.84142
1.40001
1.40001
1.02763
1.40001
1.40001
1.40001
1.40001
1.84174
1.73761
1.40001
1.40001
1.02518
1.84164
1.84171
1.40001
1.84172
1.84168
1.84152
1.40001
1.22801
1.40001
1.84156
1.38262
1.84149
1.40001
1.03459
1.39887
1.8384
1.40001
1.40001
1.40001
1.40001
1.03101
1.84211
1.80111
1.40001
1.84082
1.84168
1.83799
1.40001
1.61488
1.84224
1.40001
1.40001
1.70566
1.46599
1.84172
1.33083
1.84176
1.40001
1.84183
1.84188
1.84182
1.84161
1.40001
1.81927
1.31399
1.2826
1.40001
1.4
1.40001
1.40001
1.84666
1.40001
1.40001
1.40001
1.40001
1.40001
1.83843
1.40001
1.40001
1.39612
1.84174
1.78996
1.40001
1.77361
1.40005
1.40001
1.40001
1.84178
1.40001
1.39702
1.40453
1.40001
1.84185
1.40001
1.84157
1.40001
1.40001
1.72932
1.40001
1.84132
1.40003
1.40001
1.84093
1.40001
1.84173
1.40001
1.40001
1.40001
1.84185
1.40001
1.84293
1.40001
1.84175
1.83851
1.84174
1.83977
1.40001
1.83744
1.84298
1.40001
1.02622
1.81451
1.71917
1.40001
1.84184
1.40001
1.03452
1.03611
1.40001
1.40001
1.40001
1.40001
1.40001
1.03536
1.40001
1.84137
1.51032
1.84173
1.40001
1.40001
1.40001
1.40001
1.40001
1.8419
1.40001
1.8441
1.66482
1.1748
1.40001
1.40001
1.52709
1.50873
1.40001
1.40001
1.56097
1.40001
1.02273
1.84147
1.84146
1.40001
1.40001
1.40001
1.83862
1.40001
1.40003
1.84414
1.84203
1.34442
1.40001
1.40001
1.02557
1.80222
1.40001
1.40001
1.40001
1.40001
1.40001
1.84171
1.83751
1.40001
1.84118
1.84193
1.8418
1.40001
1.40001
1.40001
1.40001
1.03575
1.83788
1.40001
1.40001
1.80245
1.84051
1.40001
1.81571
1.83915
1.40001
1.40001
1.40001
1.40001
1.40001
1.84175
1.40001
1.40001
1.40001
1.40001
1.84652
1.40001
1.83219
1.03609
1.40001
1.03764
1.40001
1.40001
1.40001
1.39684
1.02762
1.39904
1.40001
1.40001
1.40001
1.46039
1.40001
1.40001
1.26229
1.40001
1.40001
1.40001
1.40001
1.40001
1.40001
1.40001
1.4
1.33049
1.4
1.40001
1.39758
1.40001
1.03065
1.40001
1.40001
1.40001
1.40001
1.7312
1.40001
1.40001
1.40001
1.40001
1.02472
1.40001
1.40001
1.81605
1.83826
1.4
1.40001
1.40001
1.28092
1.40001
1.40001
1.40001
1.40001
1.40001
1.40001
1.34655
1.41152
1.84188
1.40001
1.40001
1.40001
1.84428
1.29185
1.40001
1.40001
1.40001
1.83952
1.83755
1.40001
1.40001
1.40001
1.40001
1.40001
1.40001
1.40001
1.40001
1.40001
1.03589
1.40001
1.40001
1.83872
1.03452
1.40001
1.83862
1.40001
1.0265
1.40001
1.40001
1.03503
1.40001
1.40001
1.40001
1.40001
1.40001
1.40001
1.40001
1.83317
1.84087
1.40001
1.40001
1.40001
1.40001
1.80366
1.40001
1.53784
1.0265
1.40001
1.40001
1.40001
1.40001
1.40001
1.40001
1.40001
1.43207
1.40001
1.40001
1.62612
1.40001
1.40001
1.40001
1.76711
1.40001
1.40001
1.40001
1.40001
1.03624
1.40001
1.40001
1.02325
1.03604
1.40001
1.40001
1.8416
1.40001
1.377
1.40001
1.40001
1.40001
1.70787
1.03234
1.40001
1.0281
1.40001
1.17116
1.40001
1.40001
1.40001
1.84121
1.40001
1.40001
1.84183
1.40001
1.40001
1.40001
1.84186
1.40001
1.40001
1.8416
1.40001
1.40001
1.03461
1.40001
1.53627
1.40001
1.40001
1.83818
1.8377
1.69512
1.796
1.40001
1.03542
1.40001
1.40001
1.82208
1.40001
1.03537
1.40001
1.40001
1.40001
1.84202
1.40001
1.40001
1.40001
1.40001
1.66647
1.40001
1.81478
1.83953
1.03477
1.40001
1.40001
1.03703
1.03625
1.40001
1.40001
1.40001
1.71307
1.73609
1.40001
1.40001
1.40001
1.40001
1.40001
1.40001
1.40001
1.58814
1.83826
1.40879
1.40001
1.83669
1.03533
1.40001
1.40001
1.40001
1.64306
1.40001
1.489
1.40001
1.80358
1.83979
1.40001
1.03455
1.40001
1.83843
1.40001
1.40001
1.84196
1.81418
1.40001
1.8401
1.40001
1.02817
1.40001
1.40001
1.40001
1.84808
1.83322
1.78917
1.40001
1.84062
1.84176
1.40001
1.84257
1.40001
1.83989
1.40001
1.03517
1.36728
1.03681
1.40001
1.40001
1.40001
1.40001
1.40001
1.84172
1.40001
1.84173
1.40001
1.40001
1.40001
1.81956
1.40001
1.02537
1.84187
1.40001
1.02561
1.04848
1.03265
1.40001
1.6147
1.43117
1.84322
1.84184
1.40001
1.4
1.40001
1.40001
1.8417
1.40001
1.40001
1.84165
1.84172
1.40001
1.55318
1.40003
1.40001
1.39674
1.83847
1.2439
1.40001
1.21874
1.02381
1.0237
1.3297
1.84095
1.83568
1.48796
1.84191
1.84191
1.40001
1.40001
1.83829
1.83931
1.84198
1.83679
1.40001
1.84188
1.02724
1.84398
1.84056
1.84152
1.84217
1.2581
1.29355
1.32801
1.8417
1.35358
1.84132
1.40001
1.40001
1.84355
1.84155
1.40001
1.03462
1.84
1.84172
1.40001
1.84193
1.8418
1.40001
1.84168
1.02565
1.84468
1.83839
1.83803
1.84114
1.40001
1.40001
1.40001
1.84163
1.68726
1.0482
1.8418
1.02493
1.84163
1.40001
1.40001
1.40001
1.40001
1.84134
1.84199
1.40001
1.40001
1.84186
1.03312
1.84123
1.02772
1.40001
1.8387
1.40001
1.03281
1.84296
1.12078
1.40001
1.84185
1.84411
1.84127
1.40001
1.40001
1.61094
1.84339
1.02574
1.84159
1.40001
1.84191
1.2687
1.84087
1.03733
1.40001
1.84169
1.0704
1.84356
1.02788
1.40001
1.84192
1.40001
1.84068
1.40001
1.6585
1.8254
1.74814
1.02603
1.40001
1.84139
1.40001
1.84179
1.40001
1.84194
1.40001
1.40001
1.84201
1.37848
1.84427
1.02932
1.79995
1.40001
1.71419
1.40001
1.84093
1.8418
1.8406
1.40001
1.79766
1.84145
1.80899
1.67202
1.83943
1.40001
1.69305
1.40001
1.84181
1.40001
1.46036
1.40001
1.80984
1.40001
1.84184
1.82107
1.82052
1.40001
1.83654
1.03605
1.40001
1.03635
1.40001
1.40001
1.40001
1.83809
1.40001
1.84227
1.40001
1.40001
1.40001
1.84263
1.83056
1.76397
1.84264
1.84201
1.03642
1.84534
1.83763
1.40001
1.77824
1.84177
1.8304
1.40001
1.83846
1.83864
1.40001
1.84686
1.84224
1.84121
1.84291
1.40001
1.40001
1.40001
1.84168
1.03128
1.40001
1.84184
1.40001
1.40001
1.03626
1.40001
1.40001
1.84174
1.84172
1.40001
1.84176
1.83757
1.84169
1.3686
1.8416
1.40001
1.84158
1.84186
1.75828
1.40001
1.40001
1.40001
1.84309
1.84163
1.84184
1.33856
1.40001
1.84809
1.8417
1.84143
1.40001
1.84156
1.84174
1.84177
1.84904
1.40001
1.84201
1.84448
1.78247
1.84201
1.84816
1.40001
1.84515
1.83681
1.8419
1.84334
1.84122
1.03629
1.84197
1.84275
1.40001
1.8414
1.84179
1.84182
1.84206
1.40001
1.8417
1.84141
1.40001
1.84165
1.7709
1.40001
1.40001
1.40001
1.84436
1.83823
1.40001
1.40001
1.64078
1.40001
1.84204
1.40001
1.40001
1.84182
1.84331
1.84133
1.84185
1.40001
1.40001
1.40001
1.70803
1.40001
1.84151
1.40001
1.40001
1.83827
1.83842
1.40001
1.84182
1.02449
1.84171
1.84346
1.10521
1.40001
1.02651
1.78311
1.84338
1.84097
1.84067
1.03554
1.84182
1.84268
1.03509
1.02224
1.40001
1.84188
1.84168
1.40001
1.40001
1.84187
1.40001
1.83837
1.40001
1.78663
1.40001
1.60728
1.84155
1.84391
1.70492
1.79731
1.83793
1.84247
1.8251
1.40001
1.03596
1.84264
1.84199
1.84639
1.40002
1.40001
1.40001
1.84087
1.40001
1.84182
1.84163
1.14466
1.40001
1.84194
1.39994
1.40001
1.40003
1.40005
1.84196
1.84112
1.39846
1.40001
1.40001
1.84179
1.84361
1.84192
1.84197
1.84218
1.04694
1.79619
1.40001
1.83852
1.84138
1.8416
1.83928
1.40001
1.84175
1.82976
1.84298
1.40001
1.84163
1.84225
1.2569
1.84167
1.84172
1.40001
1.84164
1.23585
1.84148
1.25329
1.84183
1.40001
1.84165
1.84266
1.84179
1.84204
1.84169
1.83885
1.84241
1.8407
1.40001
1.32112
1.84147
1.84166
1.2378
1.84178
1.37748
1.66901
1.84153
1.84129
1.8436
1.40001
1.84424
1.69324
1.84083
1.32084
1.84396
1.84917
1.40001
1.2689
1.40001
1.83765
1.40001
1.70451
1.40001
1.81426
1.27045
1.40001
1.84222
1.83826
1.40001
1.84078
1.8435
1.84175
1.83355
1.84343
1.40001
1.83835
1.40001
1.40001
1.40001
1.2906
1.8418
1.84249
1.84587
1.84183
1.83906
1.84563
1.83708
1.84222
1.29387
1.43107
1.40001
1.40001
1.84577
1.84202
1.84164
1.84174
1.40003
1.63021
1.40001
1.84648
1.78849
1.40001
1.40001
1.13314
1.8419
1.40001
1.40001
1.02547
1.84165
1.40001
1.83781
1.84192
1.83775
1.82497
1.84169
1.40001
1.0312
1.50953
1.84202
1.84162
1.40001
1.84213
1.84176
1.61523
1.40947
1.50241
1.40001
1.84027
1.84157
1.40001
1.40001
1.03735
1.40001
1.40001
1.84181
1.84191
1.84213
1.8418
1.8417
1.84253
1.84212
1.8406
1.84164
1.40001
1.39623
1.84201
1.84172
1.39702
1.84183
1.84183
1.03354
1.03475
1.84243
1.84286
1.40001
1.40001
1.40157
1.84195
1.8418
1.84167
1.40001
1.84177
1.40001
1.25452
1.84708
1.83846
1.40001
1.59758
1.84172
1.40001
1.83916
1.40001
1.84198
1.68612
1.84252
1.40001
1.84179
1.84494
1.03588
1.84187
1.40001
1.84159
1.83868
1.40001
1.035
1.84072
1.78068
1.39769
1.82605
1.84182
1.40001
1.39675
1.84344
1.39772
1.8418
1.40001
1.40001
1.84346
1.40001
1.84357
1.84176
1.39641
1.75196
1.40001
1.84175
1.40001
1.40001
1.40001
1.40001
1.84179
1.40001
1.40001
1.83598
1.40001
1.84122
1.40001
1.68296
1.84508
1.84234
1.40001
1.40001
1.39569
1.40001
1.84217
1.84207
1.84161
1.84145
1.84216
1.84178
1.8414
1.40001
1.84207
1.84154
1.40001
1.84169
1.84192
1.40001
1.84177
1.32113
1.45859
1.84213
1.8417
1.84121
1.40001
1.84141
1.40001
1.84174
1.84179
1.40001
1.84207
1.40001
1.40001
1.40001
1.40001
1.84175
1.02599
1.39786
1.40001
1.84186
1.84714
1.40001
1.84165
1.40001
1.40548
1.0317
1.84166
1.39961
1.40001
1.84167
1.39834
1.84127
1.40001
1.39978
1.40001
1.84073
1.84524
1.84221
1.84134
1.03046
1.84086
1.84157
1.8421
1.50959
1.40001
1.40001
1.58959
1.84167
1.02386
1.03138
1.40001
1.84201
1.84164
1.843
1.40001
1.40001
1.84262
1.84202
1.39988
1.40001
1.72459
1.02989
1.40001
1.47734
1.83867
1.84144
1.39826
1.84183
1.84871
1.40001
1.39903
1.40001
1.84393
1.83886
1.57855
1.40001
1.82454
1.40001
1.40258
1.8423
1.03532
1.84148
1.84189
1.39697
1.39992
1.7819
1.40001
1.3997
1.40001
1.8425
1.40001
1.40002
1.0243
1.84137
1.40001
1.40001
1.40001
1.40001
1.84672
1.65165
1.40001
1.40001
1.03574
1.8418
1.65208
1.40001
1.40001
1.40001
1.8215
1.82821
1.84223
1.40001
1.40001
1.842
1.40001
1.84184
1.84147
1.40001
1.40001
1.84339
1.84162
1.82032
1.40001
1.40001
1.84351
1.84274
1.40001
1.40001
1.40001
1.84279
1.40001
1.40001
1.40001
1.84151
1.84088
1.84425
1.40001
1.84718
1.40004
1.08709
1.84164
1.84153
1.40001
1.84223
1.82128
1.83811
1.40001
1.40001
1.84489
1.40001
1.63213
1.84105
1.40001
1.03652
1.40001
1.84357
1.40001
1.40001
1.8435
1.40001
1.40001
1.40001
1.54112
1.84094
1.06289
1.40002
1.84296
1.40001
1.40001
1.84119
1.40001
1.84502
1.40001
1.40001
1.84166
1.84178
1.40001
1.40006
1.40001
1.40001
1.40001
1.40001
1.40001
1.40001
1.84403
1.84146
1.40001
1.83798
1.03404
1.84103
1.40001
1.84139
1.84662
1.84158
1.84763
1.83732
1.40001
1.40001
1.84228
1.40001
1.67238
1.84594
1.84176
1.40001
1.84422
1.84452
1.40001
1.79363
1.40001
1.84148
1.68622
1.84177
1.39754
1.83464
1.8005
1.84283
1.8423
1.4366
1.84157
1.845
1.40001
1.84162
1.40001
1.84174
1.40001
1.40001
1.40001
1.40001
1.39659
1.84178
1.84173
1.77071
1.40001
1.84423
1.40001
1.40001
1.40001
1.02605
1.40001
1.83133
1.40001
1.80126
1.82512
1.40001
1.40001
1.40001
1.82512
1.83847
1.40001
1.40001
1.84063
1.0349
1.47396
1.40001
1.84552
1.84175
1.80271
1.83063
1.84164
1.40001
1.84105
1.40001
1.40001
1.40001
1.40001
1.84206
1.84212
1.40001
1.83087
1.45165
1.84153
1.81225
1.40001
1.40001
1.81371
1.40001
1.40001
1.03134
1.71034
1.40001
1.40001
1.84436
1.40001
1.84526
1.80229
1.40001
1.8014
1.03336
1.8414
1.84186
1.84231
1.40001
1.0263
1.40001
1.40001
1.40001
1.84155
1.75937
1.40001
1.84543
1.84182
1.40001
1.84147
1.40001
1.40001
1.40001
1.40001
1.84174
1.39934
1.40001
1.84356
1.40001
1.40001
1.8451
1.84196
1.40001
1.84494
1.48972
1.40003
1.40001
1.84152
1.40001
1.84143
1.40001
1.41413
1.84158
1.40001
1.84163
1.40001
1.40001
1.54022
1.84125
1.40001
1.40001
1.40001
1.40001
1.40001
1.39614
1.03452
1.03273
1.42086
1.40001
1.41844
1.40001
1.41996
1.40001
1.84162
1.40001
1.66993
1.40001
1.8416
1.40001
1.40001
1.40001
1.84159
1.40001
1.75023
1.84189
1.40001
1.63374
1.8422
1.40001
1.40001
1.83865
1.84179
1.40001
1.40001
1.44733
1.02414
1.40001
1.84269
1.40001
1.40001
1.40001
1.40001
1.47538
1.84169
1.40001
1.40001
1.40001
1.03234
1.40001
1.84171
1.8418
1.84399
1.40001
1.40001
1.40001
1.40001
1.62511
1.84432
1.40001
1.40001
1.40001
1.8415
1.84186
1.44817
1.40001
1.40001
1.40001
1.84181
1.84179
1.40001
1.03724
1.84159
1.84192
1.84278
1.84149
1.84324
1.40001
1.40001
1.84449
1.84339
1.84176
1.02892
1.44057
1.84161
1.40001
1.40001
1.40001
1.40001
1.40001
1.84176
1.0326
1.40001
1.40001
1.84164
1.59639
1.40001
1.8434
1.40001
1.40001
1.40001
1.0317
1.40001
1.40001
1.51555
1.84149
1.84197
1.40001
1.84478
1.84228
1.40001
1.47248
1.40001
1.84347
1.40001
1.84195
1.03714
1.40001
1.40001
1.40001
1.40001
1.84152
1.40007
1.40001
1.40001
1.40001
1.83105
1.40001
1.40001
1.40001
1.40001
1.84194
1.03366
1.75285
1.84435
1.40001
1.84133
1.40001
1.40001
1.40001
1.39712
1.40001
1.84497
1.40001
1.205
1.40001
1.40001
1.40004
1.84139
1.03255
1.40001
1.84339
1.40001
1.84037
1.84198
1.0323
1.40001
1.40001
1.82848
1.40001
1.40001
1.0263
1.40001
1.83926
1.40001
1.82229
1.39932
1.84231
1.40001
1.40001
1.40001
1.40001
1.83909
1.40001
1.40001
1.84156
1.40001
1.40001
1.40001
1.40001
1.40001
1.40001
1.40001
1.40001
1.68938
1.40001
1.54806
1.84118
1.40001
1.40001
1.40001
1.03439
1.40001
1.40001
1.40001
1.40001
1.84358
1.8415
1.45232
1.40001
1.40001
1.84284
1.40001
1.40001
1.84129
1.40001
1.40002
1.40001
1.40001
1.40001
1.40002
1.84223
1.17894
1.84163
1.84349
1.3971
1.40001
1.40001
1.40001
1.66167
1.40001
1.40001
1.84209
1.84163
1.40001
1.40001
1.40001
1.40001
1.03335
1.40001
1.40001
1.40001
1.68123
1.40001
1.84156
1.84505
1.40001
1.84314
1.40001
1.40001
1.40001
1.63862
1.40001
1.83837
1.40001
1.84183
1.40001
1.40001
1.39614
1.84184
1.40001
1.40001
1.40001
1.40001
1.40001
1.84006
1.40003
1.40001
1.02965
1.8409
1.02863
1.40001
1.84084
1.40001
1.39611
1.40001
1.84289
1.84564
1.40001
1.83647
1.26982
1.84152
1.84528
1.40004
1.40001
1.40001
1.03289
1.40001
1.40001
1.40001
1.84192
1.65634
1.84113
1.40001
1.40001
1.40001
1.40001
1.39682
1.84064
1.40001
1.03761
1.40001
1.40001
1.40001
1.40001
1.40001
1.40001
1.40001
1.84783
1.84223
1.84651
1.40001
1.40001
1.39693
1.40001
1.37904
1.40001
1.40001
1.40001
1.03441
1.377
1.40001
1.03507
1.03379
1.40001
1.84233
1.84171
1.40001
1.84101
1.84154
1.0351
1.69084
1.40001
1.40001
1.40001
1.03727
1.84194
1.40001
1.03241
1.40001
1.84699
1.47687
1.40001
1.40001
1.40001
1.40001
1.8416
1.83977
1.40001
1.40001
1.84198
1.40001
1.40001
1.8392
1.84198
1.40001
1.7989
1.84194
1.83941
1.36206
1.84117
1.40875
1.03443
1.73981
1.84134
1.40001
1.40001
1.40001
1.03443
1.40001
1.03416
1.84518
1.35943
1.84169
1.348
1.40001
1.84239
1.60234
1.40001
1.40001
1.8441
1.40001
1.58012
1.84276
1.40001
1.40001
1.83799
1.83695
1.03426
1.66103
1.3999
1.40001
1.66627
1.40001
1.84326
1.33586
1.85018
1.84494
1.40001
1.40001
1.40001
1.40001
1.83868
1.40001
1.40001
1.84234
1.39965
1.84157
1.76135
1.84068
1.03345
1.40001
1.40001
1.40001
1.40001
1.84146
1.40005
1.84162
1.40001
1.84183
1.84343
1.45727
1.84739
1.53989
1.84188
1.40001
1.7026
1.06155
1.8457
1.84171
1.7642
1.47603
1.84031
1.84155
1.84165
1.84065
1.40001
1.30863
1.46636
1.40001
1.84189
1.6148
1.84188
1.40004
1.40001
1.40001
1.06399
1.84465
1.8404
1.75897
1.40001
1.56913
1.40001
1.84456
1.84457
1.40001
1.84142
1.84089
1.40001
1.40001
1.40001
1.84054
1.40001
1.57537
1.84101
1.70677
1.40001
1.84116
1.40001
1.40001
1.40001
1.40001
1.40001
1.40001
1.40001
1.40001
1.40001
1.40001
1.05606
1.40001
1.81232
1.03636
1.66132
1.39859
1.84497
1.40001
1.6331
1.40002
1.68366
1.77734
1.40001
1.4022
1.84345
1.30529
1.40001
1.84156
1.82867
1.33502
1.40001
1.84326
1.8414
1.84394
1.40001
1.84187
1.84245
1.84072
1.40001
1.59796
1.40001
1.40006
1.84167
1.40001
1.84178
1.46681
1.84067
1.40001
1.40001
1.84341
1.8416
1.06423
1.40001
1.84121
1.73209
1.84085
1.40001
1.40001
1.83964
1.84163
1.39825
1.40001
1.79001
1.39683
1.84177
1.40007
1.40001
1.40001
1.40001
1.40001
1.59786
1.40001
1.74027
1.84255
1.72896
1.84281
1.40001
1.40312
1.40001
1.40001
1.83953
1.40001
1.84064
1.40001
1.40001
1.40001
1.40001
1.4
1.40001
1.45633
1.62964
1.40001
1.40001
1.03364
1.40001
1.84353
1.06355
1.8442
1.40001
1.62762
1.39975
1.84133
1.68313
1.04063
1.64226
1.40004
1.84194
1.84312
1.40001
1.66887
1.84393
1.84132
1.39842
1.84764
1.82966
1.03448
1.40001
1.40001
1.39772
1.40001
1.84108
1.40001
1.04848
1.84325
1.40001
1.40001
1.78917
1.40001
1.84239
1.40001
1.84159
1.40001
1.06932
1.40001
1.40001
1.84091
1.84082
1.84527
1.40001
1.84178
1.84159
1.83692
1.40001
1.40001
1.82921
1.4
1.1285
1.40001
1.40001
1.40001
1.84193
1.40001
1.84156
1.68812
1.84047
1.40001
1.84161
1.39938
1.40001
1.40001
1.40001
1.40001
1.40001
1.40001
1.09751
1.40001
1.40001
1.84158
1.40001
1.84508
1.84462
1.40001
1.04179
1.03423
1.40001
1.84332
1.47292
1.03288
1.00519
1.40001
1.84193
1.40001
1.84358
1.03843
1.40141
1.40001
1.40001
1.39951
1.40001
1.40001
1.40001
1.39992
1.58081
1.84143
1.40001
1.40001
1.84278
1.66225
1.40001
1.79436
1.84288
1.84197
1.58161
1.8394
1.40001
1.84189
1.40001
1.82807
1.40001
1.84502
1.84123
1.3967
1.84069
1.8428
1.40001
1.40001
1.40001
1.40001
1.40001
1.31873
1.83953
1.40005
1.40003
1.03226
1.39999
1.03451
1.02989
1.40001
1.84154
1.84197
1.84182
1.40001
1.84151
1.40001
1.03495
1.40001
1.40001
1.84126
1.22413
1.84259
1.40001
1.8408
1.40001
1.37857
1.84131
1.40001
1.40001
1.40001
1.84135
1.40001
1.84198
1.03407
1.40001
1.40001
1.65799
1.40001
1.40001
1.64086
1.40001
1.40001
1.8415
1.40001
1.40001
1.40001
1.40001
1.40001
1.84635
1.8417
1.40001
1.84132
1.84107
1.03789
1.60216
1.84168
1.40001
1.40001
1.79801
1.39904
1.40001
1.40001
1.84195
1.84076
1.70285
1.40001
1.84168
1.04599
1.81244
1.39962
1.40001
1.84259
1.40004
1.84078
1.76274
1.73718
1.40001
1.40001
1.84169
1.11071
1.03307
1.40001
1.84175
1.40001
1.84268
1.40001
1.66464
1.40001
1.40001
1.8407
1.68381
1.0365
1.40001
1.39818
1.40001
1.40001
1.42548
1.58027
1.84168
1.40001
1.84164
1.40001
1.40001
1.40001
1.40001
1.40001
1.40001
1.46678
1.03513
1.40001
1.40001
1.42978
1.40001
1.40001
1.40001
1.40001
1.40001
1.84214
1.40001
1.40001
1.84147
1.84172
1.71743
1.40001
1.40001
1.40001
1.22707
1.84283
1.7086
1.40001
1.40001
1.40001
1.40001
1.8412
1.40001
1.40001
1.40001
1.84455
1.40001
1.40001
1.72035
1.85444
1.43187
1.13621
1.84471
1.71272
1.84031
1.40001
1.62182
1.40001
1.40001
1.40001
1.03304
1.40259
1.02843
1.40001
1.03855
1.02252
1.40001
1.03677
1.40001
1.40001
1.40001
1.59667
1.40001
1.84188
1.84172
1.40091
1.60935
1.76914
1.03449
1.15578
1.27848
1.40001
1.84181
1.83941
1.84179
1.84173
1.7792
1.263
1.40001
1.78227
1.40001
1.82601
1.40001
1.40001
1.39656
1.40892
1.40001
1.40001
1.40001
1.84092
1.40001
1.03421
1.40001
1.84286
1.02841
1.40001
1.40001
1.8417
1.40001
1.84181
1.39911
1.40001
1.40001
1.84258
1.80682
1.40001
1.85455
1.40001
1.40001
1.41464
1.40001
1.59783
1.40001
1.40001
1.03634
1.40001
1.40001
1.84296
1.4
1.8405
1.40001
1.40004
1.03148
1.40001
1.40001
1.02744
1.40082
1.40001
1.84025
1.03469
1.84539
1.03694
1.84121
1.40001
1.40001
1.40001
1.40001
1.40001
1.40001
1.40001
1.40001
1.40001
1.40001
1.40001
1.824
1.40001
1.84344
1.83917
1.035
1.40001
1.40001
1.40001
1.40001
1.40001
1.40001
1.82949
1.40001
1.40001
1.03541
1.40001
1.40001
1.83966
1.40001
1.40001
1.56994
1.77105
1.0347
1.03866
1.08578
1.13083
1.40001
1.39656
1.02878
1.40026
1.80414
1.3969
1.40001
1.40001
1.84136
1.40001
1.40001
1.40001
1.16067
1.40002
1.56065
1.40001
1.40001
1.57665
1.84117
1.40001
1.03792
1.40001
1.40001
1.40001
1.3967
1.40001
1.84218
1.84166
1.40001
1.03674
1.40001
1.63953
1.03425
1.40001
1.28044
1.40001
1.39602
1.024
1.40001
1.40001
1.40001
1.39572
1.03453
1.40001
1.03846
1.39842
1.63318
1.80393
1.03828
1.03156
1.40001
1.39136
1.40001
1.39862
1.40001
1.84191
1.84103
1.40001
1.40997
1.84145
1.84221
1.40001
1.40001
1.84167
1.40001
1.40001
1.40005
1.40001
1.84267
1.40001
1.40001
1.4186
1.40001
1.39859
1.08262
1.40001
1.40001
1.40001
1.40001
1.40001
1.84481
1.42941
1.40006
1.40001
1.40001
1.40001
1.40001
1.40001
1.40004
1.40001
1.03721
1.49704
1.39862
1.82368
1.83997
1.40001
1.41667
1.84161
1.79095
1.40001
1.40001
1.03279
1.84178
1.40001
1.83964
1.40001
1.8406
1.7095
1.03353
1.40001
1.03411
1.80904
1.39968
1.40001
1.03528
1.03665
1.40001
1.40001
1.77407
1.40001
1.4
1.02968
1.40001
1.40001
1.40001
1.53975
1.40001
1.03487
1.8424
1.40001
1.40001
1.40001
1.40001
1.84202
1.40001
1.40001
1.84288
1.79559
1.40001
1.40001
1.40001
1.84252
1.03123
1.40001
1.84158
1.84201
1.40001
1.75385
1.4
1.40003
1.40001
1.40001
1.80966
1.41093
1.40001
1.02928
1.64728
1.40001
1.40001
1.39749
1.40001
1.40001
1.8435
1.40001
1.40001
1.40004
1.40001
1.84119
1.40001
1.40001
1.40001
1.40001
1.40001
1.40001
1.40002
1.59555
1.40001
1.84135
1.40001
1.40001
1.84324
1.40001
1.40001
1.40001
1.84189
1.84413
1.44659
1.40001
1.3976
1.40001
1.40001
1.40001
1.40001
1.83912
1.40001
1.40001
1.84174
1.0352
1.40001
1.40001
1.40001
1.40001
1.40001
1.40001
1.75753
1.40001
1.40001
1.84265
1.84135
1.40001
1.40001
1.40001
1.8415
1.84319
1.40001
1.3997
1.84184
1.40001
1.40001
1.40001
1.40002
1.03054
1.43067
1.39631
1.396
1.40001
1.40001
1.0296
1.84106
1.40001
1.037
1.40001
1.84065
1.82394
1.03423
1.39942
1.84161
1.84138
1.84148
1.40001
1.40001
1.32302
1.79585
1.76706
1.03783
1.40001
1.40001
1.40001
1.84046
1.84183
1.02989
1.39732
1.40001
1.84169
1.03337
1.40001
1.83738
1.03599
1.37161
1.40676
1.40001
1.845
1.40001
1.40001
1.40001
1.40001
1.40001
1.40001
1.40011
1.81217
1.40001
1.40001
1.84641
1.40001
1.40001
1.40001
1.84177
1.40001
1.03703
1.40001
1.40001
1.40001
1.55084
1.40001
1.40001
1.40001
1.40001
1.40001
1.1783
1.40001
1.03166
1.40001
1.84178
1.40007
1.26499
1.26523
1.40002
1.40415
1.63182
1.40001
1.40001
1.03425
1.8418
1.84173
1.84178
1.40001
1.02394
1.02717
1.40001
1.84165
1.40001
1.40001
1.40001
1.40001
1.40001
1.40004
1.40001
1.03414
1.68607
1.40001
1.40001
1.03484
1.38529
1.40001
1.40001
1.40001
1.40001
1.02143
1.40001
1.07617
1.40001
1.40001
1.84176
1.40001
1.40001
1.03213
1.40001
1.84173
1.40001
1.03469
1.40001
1.03658
1.40001
1.40779
1.84066
1.85227
1.40001
1.40001
1.83975
1.40001
1.40001
1.49688
1.39682
1.40001
1.39815
1.40001
1.84395
1.40001
1.02996
1.40002
1.83648
1.39878
1.40001
1.40001
1.18837
1.40001
1.39903
1.03551
1.84145
1.55935
1.40001
1.40001
1.30294
1.40001
1.40001
1.40001
1.18723
1.40001
1.40001
1.40001
1.84161
1.40001
1.03338
1.4
1.40001
1.40001
1.40001
1.02839
1.84174
1.81139
1.03834
1.40001
1.83953
1.40001
1.40001
1.84156
1.84022
1.77311
1.02941
1.39772
1.39925
1.40001
1.84179
1.40001
1.40001
1.40001
1.40001
1.84234
1.40004
1.40001
1.40001
1.83949
1.40001
1.40001
1.84191
1.03706
1.40001
1.40001
1.40001
1.03377
1.40001
1.4
1.4
1.39862
1.40001
1.40001
1.40001
1.40001
1.75477
1.40001
1.83966
1.84136
1.84986
1.84187
1.84176
1.84178
1.40001
1.84128
1.40001
1.84178
1.8417
1.40001
1.39882
1.03592
1.77891
1.3999
1.40001
1.40001
1.40001
1.40001
1.39646
1.40001
1.46861
1.40001
1.40001
1.40001
1.24172
1.8419
1.84269
1.84128
1.77384
1.39988
1.40001
1.42313
1.8416
1.39794
1.45471
1.39702
1.03583
1.40001
1.40003
1.40001
1.40001
1.40001
1.40001
1.40001
1.84188
1.03342
1.8417
1.84176
1.39514
1.03615
1.40001
1.40001
1.40001
1.84176
1.03612
1.78986
1.02685
1.84174
1.83992
1.03524
1.84237
1.4246
1.40001
1.84451
1.18332
1.40001
1.39879
1.03492
1.40001
1.03501
1.40001
1.84175
1.84196
1.13724
1.40001
1.84056
1.03548
1.40001
1.03779
1.40001
1.84179
1.40001
1.40001
1.83225
1.40001
1.2297
1.40001
1.3997
1.03388
1.84258
1.39949
1.40001
1.03547
1.40001
1.40001
1.40001
1.40001
1.64231
1.40001
1.84198
1.40001
1.40001
1.84992
1.40001
1.40001
1.84143
1.40001
1.03194
1.40001
1.0289
1.40002
1.40001
1.40001
1.40001
1.40001
1.82309
1.66099
1.84178
1.40001
1.8417
1.81145
1.01981
1.03524
1.40001
1.40001
1.8428
1.40001
1.0331
1.40001
1.38333
1.40001
1.40001
1.8412
1.40001
1.84251
1.03606
1.85334
1.40001
1.03597
1.40001
1.40001
1.84166
1.84016
1.40001
1.40005
1.40001
1.8375
1.40001
1.40001
1.03053
1.39939
1.03374
1.40001
1.40001
1.40001
1.84341
1.84216
1.83973
1.40001
1.40001
1.03774
1.40001
1.84002
1.40001
1.40001
1.40001
1.82267
1.84187
1.84189
1.03606
1.84371
1.84171
1.03857
1.83959
1.40005
1.03965
1.41235
1.40001
1.40001
1.84235
1.0365
1.68196
1.03654
1.84171
1.39745
1.03076
1.84371
1.40001
1.40001
1.40001
1.40001
1.84204
1.84014
1.03773
1.40001
1.40003
1.03523
1.40004
1.40001
1.04204
1.03126
1.7088
1.84231
1.39849
1.84175
1.40001
1.84588
1.21539
1.03347
1.84179
1.85019
1.40001
1.84165
1.40001
1.40001
1.84175
1.40001
1.74178
1.83936
1.40001
1.40001
1.40001
1.40001
1.84203
1.83681
1.84377
1.40001
1.40001
1.84359
1.83865
1.84103
1.40001
1.84203
1.40001
1.40001
1.40001
1.40001
1.40001
1.03472
1.23416
1.03626
1.40001
1.40001
1.84226
1.40001
1.40001
1.84215
1.02254
1.40001
1.84178
1.83693
1.82233
1.02157
1.40001
1.03639
1.40001
1.40003
1.84015
1.6118
1.83942
1.80442
1.40001
1.03706
1.40001
1.84331
1.7168
1.03164
1.40001
1.40001
1.40001
1.1955
1.40001
1.40001
1.8484
1.40001
1.02966
1.84187
1.40001
1.40001
1.40001
1.40001
1.40001
1.75601
1.50395
1.40001
1.84162
1.40001
1.84038
1.40001
1.3974
1.40001
1.84174
1.84566
1.8409
1.84544
1.39958
1.83963
1.40001
1.84172
1.84313
1.77487
1.40001
1.40001
1.03455
1.8399
1.40001
1.40001
1.84254
1.84153
1.84115
1.40001
1.84143
1.40001
1.40001
1.40004
1.84459
1.84358
1.52909
1.49977
1.84171
1.84152
1.07776
1.40001
1.40001
1.40001
1.40001
1.40002
1.5618
1.40001
1.40001
1.77245
1.03086
1.39998
1.40001
1.84169
1.39989
1.39982
1.46724
1.80385
1.83909
1.30728
1.40001
1.0356
1.40001
1.39857
1.84196
1.84448
1.84394
1.39902
1.40001
1.40001
1.03463
1.40001
1.40001
1.84194
1.44818
1.40001
1.40001
1.40001
1.40001
1.40001
1.40001
1.40001
1.39995
1.84038
1.40002
1.40001
1.40001
1.40001
1.40001
1.6776
1.40001
1.60952
1.40001
1.40001
1.84175
1.84642
1.03096
1.39876
1.40001
1.4
1.40001
1.0375
1.84006
1.84164
1.40001
1.40001
1.40001
1.40001
1.40001
1.40001
1.40001
1.40001
1.84118
1.84425
1.03341
1.44971
1.03415
1.40001
1.03029
1.40001
1.84152
1.52431
1.40001
1.40001
1.09886
1.40001
1.82283
1.20686
1.39683
1.0297
1.40001
1.40001
1.83839
1.40005
1.39731
1.0166
1.83971
1.84411
1.40001
1.40001
1.40001
1.40001
1.81288
1.40001
1.40001
1.84183
1.39896
1.84085
1.40011
1.40001
1.40001
1.03594
1.40001
1.40001
1.84182
1.03076
1.17027
1.02896
1.8418
1.39933
1.40001
1.84089
1.0386
1.03525
1.41179
1.40001
1.40001
1.83935
1.40004
1.60704
1.40001
1.40001
1.8395
1.03387
1.40001
1.40001
1.40014
1.8404
1.40015
1.83748
1.40001
1.40004
1.40001
1.40001
1.11568
1.40001
1.16995
1.40003
1.40001
1.83998
1.03734
1.40001
1.17665
1.19195
1.40001
1.40001
1.84165
1.40001
1.40001
1.40001
1.84185
1.84211
1.40006
1.8397
1.83907
1.17796
1.84195
1.83173
1.40001
1.40001
1.84239
1.4
1.40001
1.40001
1.40001
1.40001
1.84473
1.84209
1.40001
1.40001
1.40001
1.84157
1.40021
1.40001
1.03619
1.10812