/*--------------------------------*- C++ -*----------------------------------*\
  =========                 |
  \\      /  F ield         | OpenFOAM: The Open Source CFD Toolbox
   \\    /   O peration     | Website:  https://openfoam.org
    \\  /    A nd           | Version:  12
     \\/     M anipulation  |
\*---------------------------------------------------------------------------*/
FoamFile
{
    format      ascii;
    class       volVectorField;
    location    "4.5";
    object      U;
}
// * * * * * * * * * * * * * * * * * * * * * * * * * * * * * * * * * * * * * //

dimensions      [0 1 -1 0 0 0 0];

internalField   nonuniform List<vector> 
45568
(
(1.40525 0.0105234 0)
(1.76975 -0.00751365 0)
(1.41025 -0.472315 0)
(1.58156 0.0502362 0)
(1.94428 0.03023 0)
(1.78808 0.157038 0)
(1.67016 0.069488 0)
(2 4.36411e-13 0)
(2.04128 -0.0582322 0)
(1.57542 -0.0226174 0)
(1.73277 0.392414 0)
(1.36122 0.00329706 0)
(1.55286 0.0218539 0)
(2 -1.15139e-13 0)
(2.03807 0.105284 0)
(2.14119 -0.707888 0)
(2 8.67378e-14 0)
(2 -2.39087e-13 0)
(1.87698 0.0312689 0)
(1.5839 -0.0240515 0)
(2 1.10802e-14 0)
(1.40685 -0.468984 0)
(1.63345 0.0325688 0)
(2 -1.03167e-13 0)
(2 -3.8619e-14 0)
(1.78386 0.154927 0)
(2 2.21635e-13 0)
(2 1.87704e-14 0)
(2.10345 -0.703133 0)
(1.57288 0.02551 0)
(1.90628 -0.0299036 0)
(2 1.76319e-14 0)
(2.00623 -0.00979594 0)
(1.54267 -0.050552 0)
(1.911 0.209202 0)
(1.67371 -0.0772077 0)
(1.94214 0.0217904 0)
(2 1.95701e-13 0)
(1.57861 0.00655054 0)
(2 -5.08634e-14 0)
(2 1.2424e-15 0)
(2.12292 -0.721466 0)
(2 1.06888e-13 0)
(1.3565 0.00370987 0)
(2 3.39034e-14 0)
(1.07423 0.0161944 0)
(2.13487 -0.718881 0)
(1.21889 0.00197542 0)
(1.64267 -0.110166 0)
(2 -2.51533e-13 0)
(1.25755 0.000130464 0)
(1.50177 -0.0256617 0)
(2 3.64494e-14 0)
(1.63074 0.0159346 0)
(1.35414 -0.0078522 0)
(1.41569 -0.475027 0)
(1.34366 0.0103698 0)
(1.45257 -0.000250303 0)
(1.47644 -0.0537829 0)
(1.89071 0.0626382 0)
(2 -1.25579e-14 0)
(1.47594 -0.0523576 0)
(2 -9.43587e-15 0)
(2 8.81751e-14 0)
(1.39848 0.000675691 0)
(1.86968 0.312955 0)
(2 1.55894e-13 0)
(1.87219 0.0213701 0)
(1.6833 -0.0764984 0)
(1.20592 0.00280749 0)
(2.00065 0.0484792 0)
(2.10449 -0.483914 0)
(1.26121 -0.00112056 0)
(1.57119 0.00211964 0)
(1.3373 0.0115072 0)
(2 2.10595e-13 0)
(2 9.0382e-14 0)
(1.74163 0.133221 0)
(1.88791 0.0659228 0)
(2 1.83032e-13 0)
(1.50326 0.000813194 0)
(1.61115 0.0701575 0)
(2.10923 -0.458616 0)
(1.26592 -0.00118485 0)
(1.42747 -0.0298781 0)
(2.00002 -6.92652e-06 0)
(1.41291 0.00350527 0)
(1.80979 0.231393 0)
(1.6723 0.0684554 0)
(2.0456 -0.063425 0)
(1.69025 0.121511 0)
(2 -5.39357e-14 0)
(1.58867 -0.0483105 0)
(1.20791 0.000792977 0)
(2 -1.88344e-13 0)
(2 1.54042e-13 0)
(1.20663 0.00585662 0)
(1.55619 -0.0197373 0)
(1.86135 -0.0389046 0)
(1.57175 0.0229067 0)
(1.9669 -0.0297977 0)
(1.42767 -0.0271368 0)
(0.984826 0.0210681 0)
(2 -7.6038e-14 0)
(2 -2.98573e-14 0)
(2 1.87658e-13 0)
(2 5.23094e-14 0)
(1.41089 -0.472327 0)
(2 2.73095e-14 0)
(1.23021 0.00121752 0)
(2 -1.61057e-12 0)
(2.0265 -0.0831574 0)
(1.64106 0.135343 0)
(2 3.60233e-14 0)
(1.22243 0.000730536 0)
(2 2.73536e-13 0)
(2 -4.08547e-13 0)
(0.982098 0.0200774 0)
(1.34307 -0.0290369 0)
(1.61586 -0.00605983 0)
(2 -2.4285e-13 0)
(1.54381 0.00621565 0)
(1.41601 -0.473807 0)
(1.41229 -0.467864 0)
(2 2.88334e-15 0)
(1.54195 0.00851469 0)
(1.21041 0.00838433 0)
(1.43384 -0.00556997 0)
(1.06978 0.00562685 0)
(2 -3.80857e-14 0)
(1.38285 0.00789543 0)
(1.30341 -0.00503764 0)
(1.16749 -0.0126227 0)
(2 1.12519e-14 0)
(2.1411 -0.71284 0)
(2 1.94251e-13 0)
(2 5.58831e-14 0)
(2 1.24354e-07 0)
(1.42316 -0.031431 0)
(1.43123 -0.0257169 0)
(2 -1.78967e-13 0)
(1.66321 0.00544977 0)
(1.54857 -0.0633529 0)
(2 -1.38243e-13 0)
(2.17957 -0.719836 0)
(2 -8.51511e-14 0)
(2 -1.62527e-13 0)
(2 -2.23209e-13 0)
(2 2.06962e-13 0)
(2 -5.58559e-15 0)
(1.73419 0.14445 0)
(2 1.75368e-14 0)
(2.11221 0.670853 0)
(1.85847 -0.0385886 0)
(2.12396 0.634091 0)
(2 -1.8647e-13 0)
(2 1.64517e-13 0)
(1.86223 -0.0275869 0)
(2.12794 0.766661 0)
(1.40194 0.00240423 0)
(2.13315 0.765357 0)
(2 1.36313e-13 0)
(1.45013 -0.0140913 0)
(2.12565 0.700107 0)
(1.87463 1.00112 0)
(2.03864 0.0845015 0)
(1.67632 -0.0778211 0)
(2 -7.96117e-14 0)
(1.392 -0.00708451 0)
(2 7.91559e-14 0)
(2.14218 -0.706162 0)
(2 1.52093e-13 0)
(1.79547 0.194594 0)
(2 1.67792e-13 0)
(1.3581 -0.0294216 0)
(2.13772 0.732504 0)
(2.14691 0.736741 0)
(1.43514 -0.00520359 0)
(1.40787 0.00514235 0)
(1.35089 0.00322602 0)
(1.35029 -0.0329125 0)
(1.6278 0.0162902 0)
(2.13609 0.70947 0)
(2.14686 0.710382 0)
(1.76967 0.0579493 0)
(1.6758 0.0745193 0)
(2 1.11939e-13 0)
(2.03215 -0.0402308 0)
(1.68869 0.103052 0)
(2.13611 0.70217 0)
(2.14058 0.701022 0)
(1.58222 -0.0309497 0)
(1.69044 0.104959 0)
(1.77536 0.0560619 0)
(1.56919 0.00486039 0)
(1.96692 -0.0230287 0)
(2.1355 0.706533 0)
(1.84399 0.0943279 0)
(1.89099 0.994049 0)
(2.14485 0.704934 0)
(1.86748 0.312537 0)
(1.59234 0.0575915 0)
(1.4098 -0.467742 0)
(0.944112 -0.0297724 0)
(1.06023 0.0175658 0)
(1.48638 -0.00677969 0)
(1.68796 0.0866822 0)
(1.66573 0.00718731 0)
(1.91599 0.0066335 0)
(1.39836 0.0128458 0)
(1.86974 -0.0305041 0)
(2 -1.35802e-14 0)
(1.45376 -0.0105162 0)
(2 4.29361e-14 0)
(1.4072 -0.467231 0)
(2.1352 0.711199 0)
(2.14501 0.708873 0)
(2 -2.32959e-13 0)
(1.57006 -0.00751775 0)
(1.39956 -0.463704 0)
(1.54702 0.0218335 0)
(1.83156 -0.112913 0)
(1.5808 -0.0421058 0)
(1.72819 0.137469 0)
(1.33393 -0.021398 0)
(1.61759 0.0610006 0)
(2.1364 0.711273 0)
(2.14564 0.709758 0)
(2 1.41824e-13 0)
(1.68944 0.11688 0)
(2.06352 -0.0680407 0)
(1.58113 0.00936806 0)
(2.1277 -0.575421 0)
(1.38772 0.00506468 0)
(1.61964 0.0254824 0)
(1.92918 0.254209 0)
(2.03594 0.0776717 0)
(1.78371 -0.0255923 0)
(2 -2.48445e-13 0)
(1.33825 -0.00445568 0)
(2.15286 0.766068 0)
(1.77888 -0.026658 0)
(1.34921 -0.0303748 0)
(2.00002 -6.70183e-06 0)
(1.78028 -0.0205094 0)
(1.75132 0.0893022 0)
(1.40593 -0.468947 0)
(1.77705 -0.0203389 0)
(1.79713 0.0599373 0)
(1.74445 0.0905465 0)
(2 -2.52316e-13 0)
(1.80032 0.123686 0)
(1.79348 0.0584022 0)
(1.1774 -0.0124786 0)
(2.13419 0.714592 0)
(1.82158 0.161282 0)
(2.13316 0.714567 0)
(2.14162 0.719632 0)
(2.14169 0.71598 0)
(1.79513 0.122788 0)
(2 -1.52702e-13 0)
(1.82449 0.161328 0)
(1.73972 0.148524 0)
(2 2.2691e-13 0)
(1.27585 -0.00915714 0)
(1.83134 0.167856 0)
(1.73655 0.120194 0)
(1.67428 0.0204082 0)
(1.45412 -0.000129471 0)
(2.13301 0.712684 0)
(1.76571 -0.0130179 0)
(2.14085 0.714948 0)
(2 -2.36139e-14 0)
(1.41645 0.00382832 0)
(0.935801 -0.0269118 0)
(1.62957 -0.110447 0)
(2 -1.40176e-13 0)
(1.71262 -0.0500419 0)
(2 -1.44315e-14 0)
(2 6.31027e-15 0)
(2 -3.14842e-13 0)
(0.789031 0.0355431 0)
(2 -1.10275e-13 0)
(1.87282 1.00491 0)
(1.32627 -0.00750302 0)
(1.57962 0.00446042 0)
(1.84476 0.22729 0)
(1.86204 0.260668 0)
(1.6226 -0.0516665 0)
(1.84269 0.222844 0)
(1.86234 0.268442 0)
(1.32268 -0.00565322 0)
(1.3779 0.00660848 0)
(1.57781 -0.0253215 0)
(2 1.44821e-14 0)
(2 1.53848e-13 0)
(1.39298 -0.00679339 0)
(1.56056 -0.0115129 0)
(1.53512 -0.050182 0)
(1.62616 0.163418 0)
(1.79289 0.189316 0)
(1.61729 -0.098352 0)
(2 -1.39261e-14 0)
(1.40363 -0.466664 0)
(1.58173 -0.0289893 0)
(1.90441 -0.0400469 0)
(1.8504 0.260835 0)
(1.31332 0.00205632 0)
(2 1.25582e-13 0)
(1.65348 0.00217712 0)
(1.40655 -0.468517 0)
(2 -7.78629e-14 0)
(1.48436 0.00131598 0)
(2.04441 0.10419 0)
(2.03689 0.0975103 0)
(1.54607 0.0172052 0)
(1.47213 -0.0497025 0)
(1.77701 -0.0127424 0)
(2.12108 -0.569259 0)
(1.44539 -0.00426562 0)
(1.40978 -0.470377 0)
(1.34094 -0.0143469 0)
(1.41077 -0.470683 0)
(2 -4.1887e-14 0)
(2 1.14458e-14 0)
(1.58044 -0.023564 0)
(1.68346 -0.10452 0)
(1.62811 -0.0183628 0)
(1.57429 -0.0218608 0)
(2 3.8098e-13 0)
(2 3.01167e-14 0)
(1.42372 0.00350446 0)
(2.09455 -0.429657 0)
(1.62094 0.0747962 0)
(2 3.60819e-13 0)
(1.07412 0.00650007 0)
(0.793667 0.0450174 0)
(1.68275 0.0905341 0)
(1.41294 0.00289476 0)
(1.33024 -0.00629465 0)
(0.848553 -0.0397255 0)
(1.42999 0.00441021 0)
(1.40809 -0.46951 0)
(1.71959 -0.0552021 0)
(2 4.44526e-14 0)
(2 -1.82395e-13 0)
(2 5.60994e-13 0)
(1.95899 0.0247009 0)
(2 1.44774e-13 0)
(1.99915 0.00104556 0)
(1.61611 -0.0607016 0)
(1.59742 -0.0322212 0)
(2 3.22319e-14 0)
(2.08353 0.043846 0)
(1.62814 0.0367229 0)
(1.5134 -0.00298684 0)
(2.01519 0.0328506 0)
(2 1.6026e-13 0)
(1.53437 0.0251239 0)
(1.49839 0.00338741 0)
(0.871775 0.0126744 0)
(2.08137 -0.411407 0)
(1.58547 0.0536376 0)
(1.90101 0.0129958 0)
(1.89463 0.0299667 0)
(1.61721 0.0592572 0)
(2 1.23437e-14 0)
(1.56343 -0.0252956 0)
(1.90165 0.0243653 0)
(1.34669 0.00233099 0)
(1.37808 0.00906819 0)
(1.45058 -0.0111611 0)
(1.74508 -0.463384 0)
(2 1.02359e-13 0)
(1.65971 -0.157964 0)
(1.85734 0.247468 0)
(2 -2.25618e-13 0)
(1.51243 0.00714053 0)
(1.51444 -0.00577314 0)
(2.01292 -0.0789595 0)
(1.62559 0.167443 0)
(1.62857 0.177033 0)
(2 1.43675e-14 0)
(1.25802 0.00205206 0)
(2.13222 -0.751993 0)
(2 3.14037e-14 0)
(1.65793 -0.126716 0)
(1.61015 -0.0712414 0)
(2 2.25566e-13 0)
(1.74506 0.138647 0)
(1.59553 0.00391494 0)
(2 -1.05273e-13 0)
(1.99182 -0.446802 0)
(2 -3.06769e-13 0)
(2.12327 -0.70505 0)
(2 -8.43516e-14 0)
(1.27879 0.00118249 0)
(2 -9.90623e-14 0)
(2 -2.55542e-13 0)
(1.81359 0.235566 0)
(2 -4.72387e-14 0)
(2 -1.8132e-13 0)
(1.61517 -0.059436 0)
(2 -2.38545e-13 0)
(2 1.55158e-13 0)
(1.36716 0.0114216 0)
(2 -1.79324e-13 0)
(2 -3.32916e-13 0)
(1.58449 -0.0339481 0)
(2 -1.79302e-13 0)
(2 2.3326e-15 0)
(2 -1.31789e-13 0)
(1.3757 0.0123797 0)
(2 -8.12579e-08 0)
(2.0444 0.0849436 0)
(1.58767 -0.0220163 0)
(2 -2.30655e-13 0)
(1.51455 -0.00570491 0)
(1.52981 -0.0621228 0)
(1.31249 -0.00886668 0)
(1.66454 -0.0684486 0)
(2 -5.89968e-14 0)
(2 -1.75433e-13 0)
(2 1.7465e-13 0)
(2.04599 0.0748469 0)
(2 2.73639e-14 0)
(1.452 -0.459766 0)
(1.47367 -0.449044 0)
(1.56051 -0.236369 0)
(2 -1.56037e-13 0)
(1.04405 0.014545 0)
(2 2.37391e-13 0)
(1.99999 -9.43806e-06 0)
(2 -4.49915e-14 0)
(2 4.55633e-14 0)
(1.61258 -0.0810581 0)
(1.89996 0.0434069 0)
(2 -3.82097e-13 0)
(2 -3.2826e-16 0)
(1.59452 -0.393007 0)
(2.13091 -0.71275 0)
(1.60215 -0.384582 0)
(2 5.77597e-14 0)
(1.57354 0.00226254 0)
(1.7816 0.0386757 0)
(1.68637 -0.0878433 0)
(2 1.80945e-13 0)
(2 1.75486e-14 0)
(1.28932 0.00683193 0)
(1.54315 0.0188487 0)
(1.82603 0.163817 0)
(1.67233 0.0201202 0)
(2 7.80426e-06 0)
(2.01529 -0.0723544 0)
(1.78486 0.183634 0)
(2 -2.7498e-14 0)
(1.90083 -0.0198048 0)
(1.20874 0.00615002 0)
(1.58193 0.0351189 0)
(1.61595 -0.00367892 0)
(2 -1.47574e-14 0)
(2 -1.41069e-13 0)
(1.61402 0.171904 0)
(2 -2.06671e-14 0)
(2 -2.97954e-14 0)
(1.6945 0.431253 0)
(1.48613 0.00161607 0)
(2.09653 -0.0259862 0)
(2.11871 0.728034 0)
(2.12797 0.710698 0)
(1.8862 0.0493768 0)
(1.7246 0.132915 0)
(2 -3.72945e-14 0)
(1.90393 1.00173 0)
(2 2.36632e-14 0)
(1.34183 0.00635158 0)
(1.49134 -0.025061 0)
(1.30018 -0.0101244 0)
(1.33642 -0.00426889 0)
(1.61829 0.0232898 0)
(1.49788 0.00269627 0)
(1.98653 -0.466911 0)
(2.01081 -0.0120731 0)
(1.88992 -0.488685 0)
(2 -1.452e-13 0)
(1.50458 -0.0220156 0)
(1.55714 0.0182777 0)
(2 -7.4807e-14 0)
(1.6057 0.0576006 0)
(1.41517 0.00170372 0)
(2 2.00748e-14 0)
(2 -4.17505e-11 0)
(1.63836 -0.0752055 0)
(2 -1.06034e-14 0)
(2.12895 0.757194 0)
(1.70842 0.128877 0)
(2.13754 0.758586 0)
(2 5.48725e-14 0)
(1.5978 -0.026953 0)
(1.55852 0.00463733 0)
(2 9.15367e-15 0)
(1.57642 0.0487347 0)
(1.45526 -0.0105496 0)
(2 -1.16744e-13 0)
(2 -7.19013e-14 0)
(1.58543 -0.0337581 0)
(1.51099 0.0129342 0)
(1.45073 0.00282941 0)
(1.54025 -0.0633985 0)
(2 4.036e-14 0)
(1.61218 -0.0523242 0)
(1.90322 -0.0121058 0)
(1.59874 -0.0395495 0)
(2 5.49946e-15 0)
(1.88449 1.00247 0)
(2 4.12378e-14 0)
(2 -1.69698e-14 0)
(2.10494 -0.703118 0)
(2 7.40173e-14 0)
(2 -7.70173e-14 0)
(2 2.21481e-14 0)
(2 -8.64464e-14 0)
(1.44191 -0.00368802 0)
(1.67443 0.0116898 0)
(2.08798 0.0278217 0)
(2 -3.3757e-14 0)
(2 -2.9428e-13 0)
(2.0198 0.0455936 0)
(1.7195 -0.0656221 0)
(2 -4.21681e-14 0)
(2 -3.67999e-13 0)
(1.41042 -0.471813 0)
(1.68495 -0.0690941 0)
(1.42299 -0.473862 0)
(1.65031 -0.130999 0)
(2 2.62005e-14 0)
(1.69194 -0.0660634 0)
(2.13042 -0.698166 0)
(2 1.06838e-14 0)
(1.76074 -0.0283627 0)
(2 1.22733e-13 0)
(1.44002 0.00293324 0)
(2 1.46879e-14 0)
(1.65197 -0.128734 0)
(1.39845 -0.113976 0)
(2 -1.12785e-13 0)
(2 5.76308e-13 0)
(2.03791 0.301755 0)
(1.80268 0.0343192 0)
(2 1.10338e-13 0)
(2 3.80948e-13 0)
(2 1.28328e-13 0)
(2.13459 0.703012 0)
(2.14358 0.701155 0)
(2 7.98967e-14 0)
(0.867034 0.0137413 0)
(2 -1.94573e-13 0)
(2 -2.63949e-13 0)
(1.90228 -0.00901412 0)
(2 -8.25557e-11 0)
(1.5352 0.00615067 0)
(2.12154 -0.709318 0)
(1.90142 -0.0169772 0)
(1.59167 0.0550489 0)
(1.66324 0.0217395 0)
(2 -1.79692e-13 0)
(2 -2.93533e-12 0)
(1.62384 -0.0994951 0)
(2 -5.18183e-14 0)
(2 -2.3655e-13 0)
(2 3.77766e-13 0)
(2.0023 0.0385284 0)
(1.8797 0.763524 0)
(2 8.14428e-14 0)
(1.62318 -0.0932645 0)
(1.82339 0.00409067 0)
(2.06554 -0.0604074 0)
(1.31146 0.00100486 0)
(2 6.05106e-14 0)
(2.17921 -0.721684 0)
(1.94523 -0.0488541 0)
(1.60484 -0.103133 0)
(1.93415 1.01191 0)
(1.767 0.0681593 0)
(1.42496 0.00364583 0)
(1.64183 0.036282 0)
(1.25131 -0.00144422 0)
(1.88196 -0.45346 0)
(2.02993 -0.0768421 0)
(1.83765 0.0992274 0)
(1.89609 0.0428075 0)
(2 -3.13218e-13 0)
(1.36303 -0.119779 0)
(1.83872 0.18277 0)
(2 -1.83396e-14 0)
(1.26309 0.000561704 0)
(1.90104 -0.0250671 0)
(1.66026 0.18101 0)
(1.67305 0.0764356 0)
(1.36423 -0.0112077 0)
(2.14044 -0.706463 0)
(2.08868 0.0241787 0)
(2 4.08123e-13 0)
(2 -1.70302e-13 0)
(1.15643 -0.235379 0)
(2.13615 0.711723 0)
(2.14177 0.719088 0)
(1.26102 0.000487348 0)
(1.68971 -0.123045 0)
(1.38893 0.00681318 0)
(2 -2.82694e-14 0)
(1.69342 0.0219097 0)
(2 5.77085e-14 0)
(2.05166 0.0803658 0)
(1.68758 -0.0889257 0)
(1.868 0.265107 0)
(1.40492 -0.0115482 0)
(1.86266 0.260987 0)
(1.62841 -0.110091 0)
(2 -2.93506e-13 0)
(1.68626 -0.119338 0)
(2 1.48566e-13 0)
(1.07457 0.0163324 0)
(1.52373 -0.0696639 0)
(1.68229 -0.0733864 0)
(1.27168 0.00089171 0)
(2.14764 -0.718546 0)
(2 5.54222e-13 0)
(1.78567 0.185612 0)
(1.62907 0.185362 0)
(2 7.18158e-14 0)
(1.55293 0.0212163 0)
(1.80781 0.144194 0)
(1.6412 -0.00314971 0)
(2.05126 0.0731136 0)
(1.40976 -0.471063 0)
(1.3884 0.00326396 0)
(1.58109 0.0328349 0)
(2 6.23654e-14 0)
(1.47189 -0.0503288 0)
(0.847526 -0.0393935 0)
(1.75732 0.0780226 0)
(1.65536 0.150358 0)
(2.14688 -0.716532 0)
(2 1.77755e-14 0)
(0.966576 0.00443807 0)
(2 8.08643e-15 0)
(1.38827 -0.462493 0)
(2 -1.79334e-13 0)
(2 -2.62194e-13 0)
(1.82596 -0.16624 0)
(1.37829 0.013605 0)
(1.26863 -0.00230052 0)
(2 -2.33095e-13 0)
(1.61881 0.068256 0)
(1.8368 0.168476 0)
(0.863987 0.0208483 0)
(1.51376 -0.00320079 0)
(1.72211 0.023767 0)
(1.56862 0.00561513 0)
(2.08579 0.0374276 0)
(1.881 0.0473455 0)
(1.71404 -0.322169 0)
(1.7145 -0.326043 0)
(1.65451 0.143115 0)
(0.863917 0.0204424 0)
(1.41894 -0.0283368 0)
(1.86909 0.221153 0)
(1.98433 -0.00321208 0)
(1.90814 0.0127757 0)
(2 -6.44497e-14 0)
(1.91688 0.0102734 0)
(1.9927 0.0490582 0)
(1.27299 -0.00779904 0)
(1.68745 0.0958112 0)
(1.34322 0.00707504 0)
(2.02175 -0.0830138 0)
(2 2.02037e-14 0)
(0.959762 0.00590162 0)
(2 -7.84502e-14 0)
(1.67203 0.128305 0)
(1.682 -0.0762838 0)
(1.60871 -0.0540606 0)
(1.79607 -0.0598438 0)
(0.801075 0.0113449 0)
(1.76159 -0.0229812 0)
(2 1.34229e-13 0)
(2 -5.1729e-14 0)
(1.45364 -0.0393579 0)
(1.75418 0.160555 0)
(2.1362 0.711472 0)
(1.53336 -0.017297 0)
(1.5306 0.261391 0)
(2 3.55468e-14 0)
(1.41338 0.0138553 0)
(2.14163 0.71193 0)
(1.78283 0.0466633 0)
(1.4488 -0.00802881 0)
(1.85009 -0.0449934 0)
(1.83721 0.176013 0)
(1.35704 0.00350341 0)
(2 -6.00669e-09 0)
(2 -5.66845e-14 0)
(2 -4.66564e-14 0)
(1.55309 -0.0453164 0)
(2 -8.99418e-14 0)
(1.58221 0.0371168 0)
(2 -2.10938e-13 0)
(2 4.68326e-14 0)
(2 1.15181e-14 0)
(1.99999 -1.295e-05 0)
(1.60972 0.268161 0)
(1.62458 -0.0710208 0)
(1.8463 0.194533 0)
(2 -1.97498e-11 0)
(2 1.28797e-14 0)
(1.96068 -0.447684 0)
(1.61787 -0.0690223 0)
(0.821545 -0.0571621 0)
(2.01642 0.0389119 0)
(1.56345 0.00582539 0)
(1.67381 0.00666382 0)
(1.76931 -0.0492957 0)
(1.36845 -0.0115835 0)
(1.35772 0.0116037 0)
(1.28008 0.00535295 0)
(1.51332 -0.0040223 0)
(1.94523 -0.480352 0)
(1.43984 0.00320784 0)
(2 4.47736e-14 0)
(2 1.18766e-13 0)
(1.66339 -0.0815156 0)
(1.7847 -0.499011 0)
(1.57499 -0.0219063 0)
(1.72038 -0.0566018 0)
(1.88263 -0.466524 0)
(1.57582 -0.0399276 0)
(1.74314 0.387544 0)
(1.32756 -0.018712 0)
(1.50033 0.00767899 0)
(1.56006 0.00734989 0)
(1.78425 -0.0251788 0)
(1.45066 -0.00810451 0)
(1.64416 0.185523 0)
(1.61613 -0.0967294 0)
(2 -9.52486e-14 0)
(1.83404 -0.107309 0)
(1.77653 -0.0135417 0)
(1.34462 -0.0269186 0)
(1.78065 -0.00843928 0)
(1.9364 0.12154 0)
(1.42249 -0.477101 0)
(1.88914 0.284967 0)
(1.50774 0.000781614 0)
(2 -1.78311e-13 0)
(1.38588 -0.461095 0)
(1.52391 0.00882697 0)
(2 2.052e-13 0)
(1.883 -0.0683842 0)
(1.86297 0.268265 0)
(2 -1.32124e-13 0)
(1.62875 -0.0228317 0)
(1.79541 0.0133705 0)
(1.24034 -0.00178472 0)
(1.87438 -0.429688 0)
(2 -2.8932e-13 0)
(2 1.47647e-13 0)
(1.8585 -0.41392 0)
(2.08849 0.0152123 0)
(1.59424 -0.0944797 0)
(1.84829 -0.0375789 0)
(1.79541 0.0184714 0)
(1.7512 0.375512 0)
(1.67257 0.217366 0)
(1.40987 -0.471199 0)
(1.53934 0.0219392 0)
(1.98309 -0.00706806 0)
(1.89015 0.999186 0)
(1.88542 0.727661 0)
(1.67719 0.243604 0)
(1.79452 0.0240299 0)
(1.94076 -0.0474968 0)
(1.84597 -0.397228 0)
(1.68619 -0.102085 0)
(1.62349 0.000339111 0)
(1.72998 0.35057 0)
(1.64949 -0.0882197 0)
(1.35221 -0.150715 0)
(1.46768 0.0052277 0)
(1.58987 0.00630239 0)
(1.78413 0.063065 0)
(1.12638 -0.00598387 0)
(1.77081 -0.0235446 0)
(1.87761 0.0348817 0)
(1.65226 -0.087564 0)
(1.44326 0.00637923 0)
(1.59555 -0.0479711 0)
(1.64793 0.174736 0)
(1.67486 0.0722928 0)
(1.77217 -0.0476816 0)
(1.50267 -0.0063482 0)
(1.33495 -0.0083871 0)
(2.10479 0.52109 0)
(1.53378 -0.078916 0)
(2.08311 0.524953 0)
(1.27317 -0.00703283 0)
(1.38587 -0.00545448 0)
(1.68784 -0.0644959 0)
(1.52759 -0.0768531 0)
(1.84063 -0.134841 0)
(2.05336 0.324909 0)
(1.78064 -0.0297818 0)
(1.78651 -0.376344 0)
(1.61581 0.0604034 0)
(2 -1.07205e-13 0)
(2.02869 0.0871549 0)
(2 6.33369e-14 0)
(1.97 -0.0611721 0)
(1.78296 -0.359933 0)
(1.62665 0.165599 0)
(2 -2.92396e-14 0)
(1.72762 0.116476 0)
(2 -2.61115e-14 0)
(0.924808 -0.032881 0)
(1.68457 0.125543 0)
(1.50036 -0.010502 0)
(1.38034 0.0131803 0)
(1.48292 0.000674347 0)
(1.78066 -0.00368931 0)
(1.79843 0.00819381 0)
(1.41109 0.042177 0)
(1.63983 -0.0781036 0)
(1.42378 -0.474441 0)
(1.06175 0.00764609 0)
(2 3.96393e-14 0)
(1.89999 0.0169379 0)
(2 1.21676e-13 0)
(1.48463 -0.025234 0)
(2 -1.42669e-09 0)
(2 -3.8042e-13 0)
(1.37507 -0.00613898 0)
(1.73041 -0.0538107 0)
(1.55771 0.00960712 0)
(1.4799 -0.0521764 0)
(1.91622 0.0320713 0)
(1.7353 0.336584 0)
(1.60815 -0.0668576 0)
(1.83061 -0.117713 0)
(1.5051 0.0128553 0)
(1.47 -0.047155 0)
(1.44045 -0.00198814 0)
(2 -3.25324e-13 0)
(1.56416 0.00898833 0)
(1.48404 -0.00816271 0)
(1.80009 0.054009 0)
(1.99009 -0.429607 0)
(1.9833 -0.429174 0)
(2 -4.11815e-13 0)
(2.13855 0.770513 0)
(1.63244 -0.0545495 0)
(2.12454 0.766636 0)
(1.48132 -0.00344309 0)
(1.81006 0.225819 0)
(2 -2.48421e-13 0)
(1.75498 0.0851377 0)
(1.77803 -0.0525879 0)
(1.40152 -0.00583543 0)
(1.44931 -0.00568882 0)
(2 -9.38987e-14 0)
(1.74234 0.0948751 0)
(1.62848 0.0540287 0)
(1.81721 0.155026 0)
(1.736 -0.0434865 0)
(1.6699 -0.250053 0)
(1.79616 0.117971 0)
(1.83347 -0.124588 0)
(1.446 0.00151636 0)
(1.64692 -0.217946 0)
(1.66995 0.247367 0)
(1.68201 0.26388 0)
(1.66976 -0.0696061 0)
(1.53544 0.00907478 0)
(1.61258 0.0626472 0)
(1.79684 0.130097 0)
(1.62356 -0.186169 0)
(1.80249 0.0442657 0)
(1.44253 0.00091832 0)
(1.49559 0.00216341 0)
(2 3.01752e-08 0)
(2 9.44342e-08 0)
(1.37159 -0.122074 0)
(2 8.15955e-14 0)
(1.56159 -0.0373003 0)
(1.22374 -0.294781 0)
(2.37894 0.0461764 0)
(1.78686 0.106837 0)
(2.14315 0.748033 0)
(1.78114 0.00520752 0)
(1.65729 0.138303 0)
(2.13017 0.745764 0)
(1.68948 0.0182728 0)
(1.53799 0.00805282 0)
(1.85683 0.204709 0)
(1.13927 -0.00643577 0)
(0.913726 -0.029154 0)
(1.74767 0.103202 0)
(1.86306 0.210059 0)
(1.8548 0.198939 0)
(2 -2.39293e-13 0)
(1.89364 0.784835 0)
(1.7179 -0.343001 0)
(1.86535 0.215209 0)
(1.50404 0.0635128 0)
(1.64672 -0.161023 0)
(1.65624 -0.156346 0)
(1.86693 0.221614 0)
(2 2.7782e-14 0)
(1.86976 0.223852 0)
(1.52114 0.00866563 0)
(1.60229 0.174005 0)
(1.66867 -0.0676602 0)
(2.04377 -0.0520793 0)
(1.65042 -0.0733309 0)
(1.98346 -0.419099 0)
(2 -1.33496e-13 0)
(1.90456 0.465184 0)
(1.65519 -0.113947 0)
(1.65072 0.18156 0)
(2.00248 -0.0658224 0)
(1.87359 0.45733 0)
(2.14967 0.725956 0)
(2.14069 0.718877 0)
(1.88428 0.741496 0)
(1.78769 0.112975 0)
(1.631 0.357542 0)
(1.98866 -0.457304 0)
(2.00359 0.00134895 0)
(1.63976 -0.110874 0)
(1.58894 -0.0894013 0)
(1.88047 0.740461 0)
(1.54 -0.0517712 0)
(2 1.85869e-13 0)
(1.79209 -0.0291567 0)
(1.89289 0.822573 0)
(2.16052 -0.722348 0)
(1.77467 -0.0312277 0)
(1.74897 0.0981298 0)
(1.57125 0.00181535 0)
(2 -7.99171e-12 0)
(2 5.10173e-13 0)
(1.75815 0.162293 0)
(2 4.35113e-15 0)
(1.67362 -0.0776909 0)
(1.57213 -0.0201617 0)
(1.80165 0.0504541 0)
(2.14195 0.702938 0)
(2.13812 0.704361 0)
(0.78248 0.0178143 0)
(1.4173 -0.478449 0)
(2 4.35987e-14 0)
(1.90134 1.00688 0)
(1.60079 0.0488021 0)
(1.55579 0.00898532 0)
(1.98063 0.432987 0)
(1.8552 0.267153 0)
(1.89073 -0.476075 0)
(2 -2.20414e-13 0)
(1.60071 0.048555 0)
(2.0056 -0.00687462 0)
(1.65695 0.146701 0)
(1.92629 -0.463363 0)
(2 1.12778e-13 0)
(1.92403 -0.446655 0)
(2.00819 -0.0134654 0)
(2.16904 0.738506 0)
(1.91868 -0.459227 0)
(1.53551 0.00904485 0)
(2 -2.32655e-14 0)
(1.77293 0.167771 0)
(2 -1.08222e-06 0)
(2 2.89169e-14 0)
(2 3.10095e-07 0)
(2.00244 -0.0028146 0)
(1.46558 -0.0357981 0)
(1.78358 0.00126255 0)
(2 2.90987e-15 0)
(2 -5.74755e-14 0)
(1.68289 0.100103 0)
(1.89036 0.424634 0)
(1.88651 -0.487529 0)
(1.56592 0.0828979 0)
(1.57522 0.083357 0)
(1.57405 -0.00880591 0)
(1.82735 0.170756 0)
(1.8314 0.164662 0)
(2.12608 -0.70536 0)
(2 1.86006e-13 0)
(2 -2.39884e-14 0)
(1.61217 0.0615577 0)
(1.74788 0.133906 0)
(2.14401 0.702202 0)
(2.13538 0.705431 0)
(1.85487 0.240953 0)
(1.59603 -0.0992328 0)
(1.63094 -0.104103 0)
(1.62149 -0.0969886 0)
(1.86584 -0.0811203 0)
(2 2.62609e-14 0)
(2 5.50969e-13 0)
(1.62257 -0.00306652 0)
(2 2.16735e-13 0)
(2.17114 -0.7273 0)
(1.72617 -0.0590454 0)
(2 6.33014e-14 0)
(2.01118 0.513766 0)
(1.62105 -0.0912825 0)
(2 6.2263e-13 0)
(1.73387 0.354729 0)
(1.72194 0.027656 0)
(1.70864 -0.0619453 0)
(1.73825 0.366822 0)
(1.97745 -0.405132 0)
(2 4.77921e-14 0)
(1.00284 -0.026763 0)
(2.12846 0.709263 0)
(1.47174 -0.00676889 0)
(1.98391 0.440263 0)
(1.40615 -0.0324355 0)
(2 8.40385e-08 0)
(1.98336 0.027654 0)
(2 3.34867e-09 0)
(2 2.06478e-15 0)
(1.98915 -0.482906 0)
(1.98715 -0.458504 0)
(1.13752 -0.00547199 0)
(1.51842 -0.0682833 0)
(1.69006 -0.280225 0)
(2 8.5704e-13 0)
(1.74144 0.12152 0)
(1.8216 -0.394347 0)
(1.82565 -0.409671 0)
(1.63329 -0.167773 0)
(2.14371 0.709588 0)
(2.12348 -0.726206 0)
(1.64922 0.0640231 0)
(1.84399 0.0476636 0)
(2.13583 0.707195 0)
(1.68294 0.226132 0)
(1.94451 0.445532 0)
(1.6862 0.252888 0)
(2.13267 -0.73976 0)
(1.84483 0.186921 0)
(1.85977 0.41714 0)
(2 -4.38526e-10 0)
(1.66758 -0.0673333 0)
(1.58405 0.0236896 0)
(1.81458 0.471652 0)
(1.80978 0.431402 0)
(1.65977 0.178675 0)
(1.81081 0.445244 0)
(1.81271 0.457865 0)
(2.1432 0.717355 0)
(1.4265 0.00579053 0)
(1.80186 0.0391858 0)
(2.00341 -0.0738236 0)
(1.51383 -0.00202253 0)
(1.89898 -0.0499589 0)
(1.81916 0.486358 0)
(1.80901 0.420529 0)
(1.90478 0.188569 0)
(2.13698 0.710168 0)
(1.73459 -0.337831 0)
(1.59532 0.0474509 0)
(2 -1.10044e-09 0)
(2 -3.07322e-09 0)
(1.74357 -0.357193 0)
(1.57814 0.0301258 0)
(1.00883 0.0169661 0)
(2 -2.83976e-09 0)
(1.65649 -0.127836 0)
(1.78507 -0.0553813 0)
(1.49574 0.0593282 0)
(1.29441 -0.0105468 0)
(1.57544 -0.0120089 0)
(1.36292 -0.15233 0)
(2 -5.23001e-14 0)
(1.83504 0.212776 0)
(1.8519 0.791026 0)
(1.81184 -0.0018108 0)
(1.57684 0.028787 0)
(2 -1.78835e-13 0)
(1.92998 -0.479029 0)
(1.85925 0.255286 0)
(1.85248 0.819176 0)
(1.64779 0.0610742 0)
(1.68862 -0.0486549 0)
(2 6.67399e-14 0)
(1.38752 -0.125859 0)
(1.95238 0.02901 0)
(1.39043 -0.111542 0)
(1.42384 -0.473571 0)
(1.88049 -0.492733 0)
(1.6512 -0.139263 0)
(2.12421 -0.0180748 0)
(1.88818 -0.502753 0)
(1.60806 -0.188841 0)
(2 5.9138e-14 0)
(2.00001 -6.61086e-06 0)
(1.58556 -0.034676 0)
(1.82487 0.402701 0)
(1.88479 -0.0639379 0)
(1.85537 0.448063 0)
(1.58513 -0.140837 0)
(1.65009 0.0735953 0)
(1.85502 0.460614 0)
(1.56043 -0.011691 0)
(1.59753 -0.15492 0)
(1.83091 0.444781 0)
(2 1.85174e-14 0)
(1.64871 0.00394514 0)
(1.45602 -0.0128139 0)
(1.63095 -0.163778 0)
(1.77594 -0.0386218 0)
(1.7745 -0.0419668 0)
(1.87261 -0.0727712 0)
(1.75319 0.0683634 0)
(1.88244 0.770634 0)
(2 -4.7394e-14 0)
(1.41731 -0.00266135 0)
(2.07 0.0758199 0)
(1.49329 -0.00841422 0)
(2 -1.24784e-13 0)
(1.81885 0.431712 0)
(2.14504 0.709913 0)
(1.35486 0.0652338 0)
(1.39545 -0.0292412 0)
(1.72273 -0.242555 0)
(1.47702 -0.0553591 0)
(1.88956 0.456611 0)
(1.67297 0.128563 0)
(1.53654 -0.0176408 0)
(1.89142 0.470911 0)
(1.56225 0.0155608 0)
(1.81574 0.188392 0)
(1.82302 -0.4044 0)
(2 8.65135e-08 0)
(2 -1.93085e-13 0)
(1.73839 -0.107375 0)
(1.47153 0.00291733 0)
(2 8.45747e-14 0)
(1.38219 0.00799381 0)
(1.51911 -0.018068 0)
(1.83556 0.697014 0)
(1.89827 0.0225088 0)
(2 6.5421e-14 0)
(1.54554 -0.0154274 0)
(1.83675 0.698643 0)
(1.86702 -0.0795405 0)
(1.66553 -0.0676931 0)
(1.67946 0.0909037 0)
(2 1.38642e-13 0)
(1.85294 -0.268581 0)
(2 -3.8906e-12 0)
(1.42457 -0.473837 0)
(2 1.89259e-13 0)
(1.97888 -0.418559 0)
(1.73679 -0.0557427 0)
(1.66444 0.00117476 0)
(1.59186 0.0498786 0)
(1.74844 -0.0551262 0)
(1.94214 0.462995 0)
(2 1.74714e-13 0)
(1.96604 0.0274564 0)
(1.89849 -0.518853 0)
(2.13738 0.711355 0)
(1.4077 0.469506 0)
(1.71374 0.127811 0)
(1.4829 -0.0215916 0)
(1.25611 0.127353 0)
(1.48853 -0.0227714 0)
(2 -2.02733e-13 0)
(1.47153 -0.0244276 0)
(2.14209 0.710922 0)
(1.46845 -0.0230308 0)
(1.56022 -0.0102215 0)
(1.64102 -0.0701256 0)
(1.40598 0.468311 0)
(1.52507 0.409567 0)
(1.46517 -0.0252749 0)
(1.46232 -0.0245373 0)
(2.13553 0.714463 0)
(1.97976 0.462662 0)
(2 -1.76051e-13 0)
(1.63373 -0.0722377 0)
(1.64857 -0.071802 0)
(1.48662 -0.0242393 0)
(1.62246 -0.0706089 0)
(1.35466 -0.169658 0)
(1.48993 -0.0268362 0)
(2.00005 -6.37953e-05 0)
(1.7798 0.150691 0)
(1.79606 -0.232045 0)
(1.48445 -0.0348388 0)
(1.47388 -0.0346171 0)
(1.66501 0.101555 0)
(2 1.83847e-13 0)
(1.79389 -0.0686825 0)
(1.80854 0.357601 0)
(1.81047 0.358534 0)
(1.86899 -0.0748251 0)
(1.4481 0.00226722 0)
(2 -6.63169e-14 0)
(1.4631 -0.00738633 0)
(2 6.1515e-14 0)
(2 -1.03984e-13 0)
(1.47316 -0.018657 0)
(1.73862 0.346599 0)
(1.85246 0.171704 0)
(1.79901 0.338333 0)
(1.80286 0.337703 0)
(2 3.70219e-15 0)
(2 1.59696e-13 0)
(1.57636 -0.013467 0)
(1.53987 -0.0620654 0)
(1.83432 -0.400383 0)
(1.99137 0.00176185 0)
(1.60791 0.0594011 0)
(1.84403 0.736697 0)
(1.83969 0.720848 0)
(1.82957 0.6631 0)
(2.06013 -0.0673446 0)
(1.60284 -0.0433084 0)
(1.82464 0.642957 0)
(1.83424 0.68007 0)
(2 1.13216e-13 0)
(1.96531 -0.45959 0)
(1.58658 0.0434067 0)
(1.53923 -0.0782573 0)
(2.05075 -0.0586932 0)
(2.14116 0.712162 0)
(1.66697 -0.174184 0)
(1.99254 -0.449653 0)
(2.13648 0.709952 0)
(2 4.3839e-15 0)
(1.86453 0.430233 0)
(1.45962 0.00562416 0)
(1.87389 -0.0678442 0)
(1.68268 -0.203399 0)
(1.60375 0.0481273 0)
(2 -1.03391e-14 0)
(1.51397 -0.00594663 0)
(2 1.9165e-13 0)
(1.67959 -0.198126 0)
(1.59978 0.0478104 0)
(1.78353 0.312595 0)
(1.71029 -0.206289 0)
(2 7.95418e-14 0)
(1.94414 -0.494617 0)
(1.78631 0.313647 0)
(1.84712 0.753442 0)
(1.40591 0.467798 0)
(1.81492 0.14921 0)
(2.07874 -0.0284759 0)
(1.71025 -0.309996 0)
(1.66234 0.235596 0)
(1.40989 0.470655 0)
(2 2.72594e-13 0)
(1.77619 0.301122 0)
(1.77307 0.300379 0)
(1.76206 0.290093 0)
(1.76446 0.291047 0)
(1.75587 0.281091 0)
(1.75826 0.281618 0)
(1.85602 -0.282459 0)
(1.73821 0.0267591 0)
(2 -1.68231e-13 0)
(1.74808 0.269904 0)
(2 3.63668e-08 0)
(1.75022 0.269682 0)
(1.54594 -0.0133128 0)
(1.62952 -0.0812227 0)
(1.69225 0.278466 0)
(1.6228 -0.0885266 0)
(2.1326 -0.709061 0)
(1.45371 -0.0111842 0)
(1.62647 -0.0778505 0)
(1.62216 -0.0843589 0)
(1.73842 0.259487 0)
(1.74235 0.259282 0)
(1.40682 0.469779 0)
(1.65084 0.1504 0)
(1.85989 -0.261358 0)
(2.14509 -0.719695 0)
(2.16827 0.722654 0)
(1.72351 0.246334 0)
(1.72756 0.246771 0)
(1.71299 0.230371 0)
(2 4.17962e-14 0)
(2 -5.97715e-14 0)
(1.62607 -0.0734996 0)
(1.84357 0.0885334 0)
(1.87173 0.441418 0)
(1.84038 -0.260957 0)
(1.63326 -0.0753842 0)
(1.4091 0.469912 0)
(1.7155 0.229044 0)
(2 -2.04065e-14 0)
(2 -3.19431e-13 0)
(2.09327 -0.0275411 0)
(1.82058 -0.24497 0)
(2 -1.14803e-13 0)
(2 -5.60743e-14 0)
(1.41895 -0.00479437 0)
(2 -2.31973e-14 0)
(1.69923 0.216384 0)
(1.70287 0.217371 0)
(1.68377 0.205194 0)
(1.68758 0.202602 0)
(1.80232 -0.230589 0)
(1.82015 -0.301125 0)
(1.60499 0.0540295 0)
(1.4959 0.00689613 0)
(1.77872 -0.211472 0)
(1.76196 0.103151 0)
(1.66666 0.181879 0)
(1.66874 0.183682 0)
(1.40491 0.467677 0)
(1.77408 -0.209191 0)
(1.77209 0.105099 0)
(2.14103 0.720995 0)
(1.7904 0.194601 0)
(1.88012 -0.445363 0)
(2 -7.74131e-14 0)
(1.97109 -0.021095 0)
(1.85866 -0.424327 0)
(2.14206 -0.744909 0)
(1.42442 -0.475121 0)
(2.11902 -0.663483 0)
(2.13499 0.71466 0)
(1.65326 0.0941451 0)
(1.40936 0.468959 0)
(2 -8.54781e-14 0)
(1.94324 0.460259 0)
(2 3.52424e-14 0)
(1.55256 -0.0671387 0)
(1.84682 0.25149 0)
(1.42378 -0.473931 0)
(1.65496 0.00259093 0)
(2.06888 -0.0160581 0)
(1.75001 -0.47861 0)
(1.59955 0.00165689 0)
(1.85112 -0.41448 0)
(1.40901 0.469238 0)
(1.42383 0.0261144 0)
(1.53558 -0.071506 0)
(1.78959 0.189808 0)
(1.53392 -0.0720665 0)
(2.15066 -0.753147 0)
(1.41179 0.470689 0)
(1.73151 0.352069 0)
(1.79706 0.0827948 0)
(1.35599 -0.389032 0)
(1.43699 -0.490773 0)
(1.86176 0.21417 0)
(1.40979 0.469979 0)
(1.9997 0.000396491 0)
(1.71068 -0.21507 0)
(1.40356 0.469094 0)
(1.846 0.248235 0)
(1.71115 -0.211804 0)
(1.41199 0.471733 0)
(1.72554 0.131986 0)
(1.23797 -0.00478836 0)
(1.39601 -0.000598975 0)
(1.4079 0.470181 0)
(2.08562 0.0168795 0)
(1.79037 -0.392231 0)
(1.34527 0.00424542 0)
(1.74902 0.082269 0)
(1.41064 0.469653 0)
(1.65066 -0.155356 0)