/*--------------------------------*- C++ -*----------------------------------*\
  =========                 |
  \\      /  F ield         | OpenFOAM: The Open Source CFD Toolbox
   \\    /   O peration     | Website:  https://openfoam.org
    \\  /    A nd           | Version:  12
     \\/     M anipulation  |
\*---------------------------------------------------------------------------*/
FoamFile
{
    format      ascii;
    class       volScalarField;
    location    "4.9";
    object      rho;
}
// * * * * * * * * * * * * * * * * * * * * * * * * * * * * * * * * * * * * * //

dimensions      [1 -3 0 0 0 0 0];

internalField   nonuniform List<scalar> 
22702
(
1.40001
1.40001
1.26588
1.40001
1.4596
1.40001
1.84022
1.40001
1.40001
0.982104
1.8377
1.83906
1.40001
1.84297
1.28266
1.40001
1.40001
1.40001
1.83854
1.40001
1.84424
1.40001
1.84123
1.01844
1.83507
1.04516
1.40001
1.84065
0.993425
1.01548
1.40001
1.83646
1.40001
1.40001
1.40001
1.80614
1.83396
1.84103
1.40001
1.40001
0.993259
1.40001
1.61966
1.40001
1.83926
1.40001
1.40001
1.40001
1.40001
1.02756
1.40001
1.03274
1.40001
1.83753
1.40001
1.83431
1.40001
1.40001
1.40001
1.40001
1.05022
1.40001
1.40001
1.01859
1.40001
1.03242
1.40001
1.40001
1.40001
1.0155
1.40001
1.84098
1.67105
1.40001
1.84082
1.86027
1.02
1.83792
1.02767
1.40001
1.83726
1.03175
1.84219
1.84498
1.40001
1.40001
1.40001
1.40001
1.32279
0.99999
1.83885
1.40001
1.40001
1.02223
1.40001
1.84367
1.02149
1.40001
1.40001
1.40001
1.40001
1.6195
1.83831
1.03516
1.40001
1.40001
1.50769
1.40001
1.03387
1.40001
1.83372
1.83907
1.40001
1.40001
1.01854
1.01713
0.990935
1.40001
1.40001
1.40001
1.40001
1.40001
1.3046
1.40001
1.78465
1.43989
1.83869
1.40001
1.83817
1.83836
1.84127
1.83885
1.40001
1.03501
1.40001
1.06699
1.40001
1.40001
1.40001
1.40001
1.83867
1.40001
1.40001
1.40001
1.40001
1.84131
1.40001
1.42181
1.40001
1.40001
1.40001
1.40001
1.02695
1.40001
1.41009
1.40001
1.02513
1.40001
1.40001
1.40001
1.83788
1.40001
1.84129
1.02121
1.04912
1.84086
1.84139
1.40001
1.47384
1.65283
1.40001
1.84012
1.0285
1.80295
1.40001
1.40001
1.40001
1.40001
1.84472
1.77125
1.40001
1.83798
1.05074
1.83584
1.40001
1.04226
1.40001
1.02553
1.04549
1.39978
1.40001
1.40001
1.83944
1.40001
1.40001
1.84181
1.40001
1.83612
1.83846
1.03202
1.40001
1.40001
1.02343
1.84203
1.40001
1.40001
1.40001
1.842
1.40001
1.03287
1.40001
1.40001
1.84176
1.84171
1.83435
1.40001
1.40004
1.40001
1.40001
1.40001
1.83776
1.40001
1.05524
1.85396
1.84196
1.83666
1.40001
1.40001
1.40001
1.0086
1.84111
1.60939
1.40001
1.84235
1.03144
1.03192
1.84471
1.83968
1.40001
1.84483
1.03629
1.79726
1.40001
1.40001
1.40001
1.40001
1.84145
1.40001
1.66926
1.44133
1.40001
1.40001
1.84194
1.04777
1.15646
1.40001
1.83798
1.03309
1.84732
1.40001
1.40001
1.40001
1.40001
1.40001
1.40001
1.40001
1.03357
1.17504
1.03221
1.84171
1.40001
1.40001
1.40001
1.40001
1.79122
1.40001
1.02889
1.40001
1.00663
1.02288
1.84084
1.03562
1.84401
1.40001
1.40001
1.40001
1.39767
1.04572
1.02859
1.4
1.40001
1.00024
1.40001
1.83864
1.02698
1.40001
1.40001
1.838
1.01915
1.40001
1.84362
1.04921
1.84063
1.40001
1.01427
1.39781
1.40001
1.40001
1.40001
1.03513
1.40001
1.40001
1.40001
1.40002
1.40745
1.67106
1.40001
1.04021
1.40001
1.40001
1.40001
1.40001
1.40001
1.40001
1.40001
1.83912
1.40001
1.84065
1.40001
1.40001
1.40001
1.04141
1.40001
1.84211
1.04518
1.40001
1.77608
1.40001
1.40001
1.83976
1.40001
1.40001
1.40001
1.82947
1.40001
1.40001
1.82685
1.83921
1.40001
1.48616
1.40001
1.40001
1.06295
1.40001
1.40001
1.40001
1.02507
1.40001
1.40001
1.40001
1.40001
1.0214
1.40001
1.40001
1.40001
1.40001
1.40001
1.01528
1.40007
1.84111
1.40001
1.40001
1.84109
1.841
1.40001
1.40001
1.0328
1.19836
1.83726
1.40001
1.40001
1.40001
1.83989
1.01572
1.40001
1.84119
1.40001
1.40001
1.09185
1.07457
1.40001
1.0224
1.04527
1.40001
1.40001
1.40001
1.40001
1.40001
1.40001
1.40001
1.84119
1.51437
1.83004
1.01992
1.30494
1.83788
1.40001
1.84049
1.83784
1.03418
1.1518
1.40001
1.03423
1.40001
1.84844
1.40001
1.40001
1.40001
1.40001
1.84207
1.40001
1.40001
1.40001
1.40001
1.40001
1.40001
1.40001
1.55529
1.83887
1.40001
1.84177
1.40001
1.40001
1.02438
1.40001
1.40001
1.40001
1.40001
1.84189
1.73458
1.40001
1.40001
1.02761
1.84178
1.84171
1.40001
1.8417
1.84179
1.84178
1.40001
1.22547
1.40001
1.84077
1.3867
1.84178
1.40001
1.03471
1.39887
1.83814
1.40001
1.40001
1.40001
1.40001
1.03659
1.84088
1.79722
1.40001
1.83717
1.83988
1.83802
1.40001
1.61605
1.84532
1.40001
1.40001
1.70871
1.45916
1.84178
1.32713
1.84174
1.40001
1.8416
1.84152
1.84164
1.84158
1.40001
1.83392
1.30269
1.27279
1.40001
1.4
1.40001
1.40001
1.84084
1.40001
1.40001
1.40001
1.40001
1.40001
1.8368
1.40001
1.40001
1.39613
1.8417
1.77908
1.40001
1.76552
1.40005
1.40001
1.40001
1.84159
1.40001
1.39748
1.40481
1.40001
1.8417
1.40001
1.84257
1.40001
1.40001
1.72893
1.40001
1.84224
1.40003
1.40001
1.84124
1.40001
1.84185
1.40001
1.40001
1.40001
1.84166
1.40001
1.84706
1.40001
1.84186
1.83941
1.84224
1.84475
1.40001
1.83727
1.83355
1.40001
1.01624
1.81543
1.71521
1.40001
1.84197
1.40001
1.05364
1.05047
1.40001
1.40001
1.40001
1.40001
1.40001
1.02231
1.40001
1.84178
1.51928
1.84144
1.40001
1.40001
1.40001
1.40001
1.40001
1.84141
1.40001
1.83936
1.65762
1.16018
1.40001
1.40001
1.53403
1.51088
1.40001
1.40001
1.55686
1.40001
1.02153
1.84176
1.84201
1.40001
1.40001
1.40001
1.83919
1.40001
1.40003
1.83485
1.84075
1.34964
1.40001
1.40001
1.02879
1.80368
1.40001
1.40001
1.40001
1.40001
1.40001
1.84172
1.83752
1.40001
1.83983
1.8464
1.84217
1.40001
1.40001
1.40001
1.40001
1.03326
1.83819
1.40001
1.40001
1.80159
1.84064
1.40001
1.81521
1.83803
1.40001
1.40001
1.40001
1.40001
1.40001
1.84192
1.40001
1.40001
1.40001
1.40001
1.83972
1.40001
1.83815
1.03148
1.40001
1.03612
1.40001
1.40001
1.40001
1.39673
1.01875
1.39902
1.40001
1.40001
1.40001
1.45913
1.40001
1.40001
1.26871
1.40001
1.40001
1.40001
1.40001
1.40001
1.40001
1.40001
1.4
1.32687
1.4
1.40001
1.39764
1.40001
1.03022
1.40001
1.40001
1.40001
1.40001
1.73095
1.40001
1.40001
1.40001
1.40001
1.0489
1.40001
1.40001
1.81752
1.83975
1.4
1.40001
1.40001
1.27096
1.40001
1.40001
1.40001
1.40001
1.40001
1.40001
1.35644
1.41089
1.84161
1.40001
1.40001
1.40001
1.8454
1.29409
1.40001
1.40001
1.40001
1.84114
1.83841
1.40001
1.40001
1.40001
1.40001
1.40001
1.40001
1.40001
1.40001
1.40001
1.05096
1.40001
1.40001
1.83842
1.03433
1.40001
1.83865
1.40001
1.02414
1.40001
1.40001
1.05703
1.40001
1.40001
1.40001
1.40001
1.40001
1.40001
1.40001
1.83324
1.8408
1.40001
1.40001
1.40001
1.40001
1.80337
1.40001
1.54306
1.01965
1.40001
1.40001
1.40001
1.40001
1.40001
1.40001
1.40001
1.43991
1.40001
1.40001
1.62817
1.40001
1.40001
1.40001
1.76291
1.40001
1.40001
1.40001
1.40001
1.0305
1.40001
1.40001
1.02467
1.03114
1.40001
1.40001
1.83987
1.40001
1.36919
1.40001
1.40001
1.40001
1.70998
1.04515
1.40001
1.02711
1.40001
1.16551
1.40001
1.40001
1.40001
1.84048
1.40001
1.40001
1.84113
1.40001
1.40001
1.40001
1.84116
1.40001
1.40001
1.8426
1.40001
1.40001
1.03368
1.40001
1.54031
1.40001
1.40001
1.8389
1.8375
1.6965
1.79593
1.40001
1.03425
1.40001
1.40001
1.82155
1.40001
1.0301
1.40001
1.40001
1.40001
1.8432
1.40001
1.40001
1.40001
1.40001
1.66167
1.40001
1.8134
1.84017
1.00257
1.40001
1.40001
1.04676
1.04676
1.40001
1.40001
1.40001
1.71428
1.73361
1.40001
1.40001
1.40001
1.40001
1.40001
1.40001
1.40001
1.58455
1.84434
1.40452
1.40001
1.82864
1.03983
1.40001
1.40001
1.40001
1.64376
1.40001
1.48452
1.40001
1.80441
1.83935
1.40001
1.0343
1.40001
1.83454
1.40001
1.40001
1.84151
1.81395
1.40001
1.84223
1.40001
1.00346
1.40001
1.40001
1.40001
1.83804
1.83304
1.78799
1.40001
1.83975
1.84162
1.40001
1.84407
1.40001
1.83948
1.40001
1.03131
1.3609
1.03533
1.40001
1.40001
1.40001
1.40001
1.40001
1.84274
1.40001
1.84224
1.40001
1.40001
1.40001
1.81944
1.40001
1.01388
1.84093
1.40001
1.01787
1.04842
1.03647
1.40001
1.62127
1.43597
1.84255
1.84097
1.40001
1.4
1.40001
1.40001
1.84232
1.40001
1.40001
1.84229
1.84235
1.40001
1.55081
1.40001
1.40001
1.39673
1.83744
1.24957
1.40001
1.21113
1.02263
1.02287
1.32025
1.84163
1.83532
1.48203
1.84241
1.84219
1.40001
1.40001
1.8386
1.83949
1.84166
1.83714
1.40001
1.84142
1.00935
1.84568
1.84058
1.84102
1.84909
1.25178
1.29854
1.3267
1.84212
1.3577
1.83999
1.40001
1.40001
1.84286
1.84252
1.40001
1.03496
1.83935
1.84241
1.40001
1.84088
1.84189
1.40001
1.84219
1.03798
1.84624
1.84224
1.83881
1.84472
1.40001
1.40001
1.40001
1.84237
1.68555
1.06876
1.84176
1.03155
1.84161
1.40001
1.40001
1.40001
1.40001
1.84208
1.84263
1.40001
1.40001
1.84283
1.04002
1.84194
1.02386
1.40001
1.83862
1.40001
0.98162
1.84304
1.13022
1.40001
1.84075
1.84398
1.84204
1.40001
1.40001
1.62113
1.84371
1.01767
1.84163
1.40001
1.84245
1.27655
1.84464
1.04758
1.40001
1.83906
1.05063
1.84295
1.02411
1.40001
1.84261
1.40001
1.83947
1.40001
1.65484
1.82589
1.74922
1.04144
1.40001
1.84193
1.40001
1.8423
1.40001
1.84209
1.40001
1.40001
1.84069
1.37926
1.84386
0.972418
1.81411
1.40001
1.71157
1.40001
1.84064
1.84204
1.83984
1.40001
1.79812
1.84205
1.80897
1.66762
1.83251
1.40001
1.69537
1.40001
1.84067
1.40001
1.46008
1.40001
1.80853
1.40001
1.84191
1.82106
1.81991
1.40001
1.83384
1.05175
1.40001
1.03311
1.40001
1.40001
1.40001
1.83147
1.40001
1.84344
1.40001
1.40001
1.40001
1.84401
1.82196
1.76013
1.84273
1.84596
1.03884
1.836
1.83768
1.40001
1.78403
1.84159
1.81296
1.40001
1.83905
1.83434
1.40001
1.84732
1.84258
1.84048
1.84318
1.40001
1.40001
1.40001
1.84006
1.03342
1.40001
1.84198
1.40001
1.40001
1.05209
1.40001
1.40001
1.84267
1.84095
1.40001
1.84155
1.83359
1.84146
1.36522
1.8421
1.40001
1.8421
1.84236
1.76701
1.40001
1.40001
1.40001
1.8424
1.84157
1.84213
1.33757
1.40001
1.84858
1.8422
1.84186
1.40001
1.8425
1.84081
1.84069
1.84842
1.40001
1.84252
1.84195
1.78285
1.83876
1.84638
1.40001
1.84941
1.83745
1.8427
1.84377
1.83966
1.05466
1.84179
1.83984
1.40001
1.84238
1.84181
1.84284
1.84015
1.40001
1.84337
1.84003
1.40001
1.84259
1.77301
1.40001
1.40001
1.40001
1.84198
1.84239
1.40001
1.40001
1.64068
1.40001
1.83848
1.40001
1.40001
1.84229
1.83815
1.84177
1.84199
1.40001
1.40001
1.40001
1.71321
1.40001
1.84307
1.40001
1.40001
1.83724
1.84202
1.40001
1.84172
1.02059
1.84203
1.8465
1.12547
1.40001
1.04064
1.7834
1.84928
1.84588
1.84583
1.0413
1.84183
1.84426
1.04877
1.03227
1.40001
1.8401
1.84173
1.40001
1.40001
1.84218
1.40001
1.83914
1.40001
1.78708
1.40001
1.60135
1.8434
1.84372
1.71193
1.7949
1.83172
1.84394
1.80523
1.40001
1.04297
1.83947
1.8398
1.84793
1.40002
1.40001
1.40001
1.84072
1.40001
1.84107
1.84168
1.14143
1.40001
1.84002
1.39994
1.40001
1.40003
1.40005
1.84006
1.84135
1.39846
1.40001
1.40001
1.8415
1.84379
1.8424
1.84536
1.841
1.06853
1.78948
1.40001
1.83845
1.84159
1.84343
1.84345
1.40001
1.84178
1.82977
1.84293
1.40001
1.84123
1.8432
1.24755
1.84187
1.84237
1.40001
1.84296
1.21631
1.84246
1.2564
1.84171
1.40001
1.84079
1.84276
1.84238
1.84182
1.84073
1.83983
1.84214
1.84056
1.40001
1.32762
1.84243
1.84194
1.22784
1.84168
1.38219
1.68661
1.84162
1.84078
1.8459
1.40001
1.84417
1.68896
1.84451
1.31197
1.84342
1.84961
1.40001
1.26275
1.40001
1.83815
1.40001
1.70445
1.40001
1.81064
1.26921
1.40001
1.83779
1.84578
1.40001
1.84047
1.84323
1.84837
1.84383
1.84892
1.40001
1.83991
1.40001
1.40001
1.40001
1.2979
1.84188
1.83988
1.83908
1.84187
1.84226
1.84072
1.83395
1.84344
1.30026
1.42955
1.40001
1.40001
1.84416
1.84271
1.84193
1.84198
1.40003
1.62543
1.40001
1.84762
1.80029
1.40001
1.40001
1.12888
1.84274
1.40001
1.40001
1.00762
1.84159
1.40001
1.84269
1.84127
1.83135
1.82485
1.84263
1.40001
1.04651
1.50379
1.84067
1.84109
1.40001
1.84298
1.84151
1.63162
1.41042
1.49434
1.40001
1.83976
1.84213
1.40001
1.40001
1.05067
1.40001
1.40001
1.84197
1.84197
1.84233
1.84008
1.84079
1.8433
1.84236
1.84234
1.84161
1.40001
1.39601
1.84182
1.8405
1.39708
1.8413
1.84205
1.05259
1.00718
1.84312
1.84942
1.40001
1.40001
1.40141
1.84012
1.84161
1.84166
1.40001
1.84168
1.40001
1.25992
1.84879
1.84845
1.40001
1.60767
1.84167
1.40001
1.8411
1.40001
1.8413
1.70335
1.84034
1.40001
1.84292
1.84532
1.05123
1.84382
1.40001
1.84298
1.84469
1.40001
1.05347
1.84147
1.77897
1.39747
1.82317
1.84216
1.40001
1.3965
1.84226
1.39795
1.84287
1.40001
1.40001
1.8415
1.40001
1.84285
1.84074
1.39659
1.75194
1.40001
1.8409
1.40001
1.40001
1.40001
1.40001
1.8416
1.40001
1.40001
1.84191
1.40001
1.84386
1.40001
1.67874
1.84025
1.8401
1.40001
1.40001
1.39654
1.40001
1.84277
1.84249
1.84234
1.84219
1.8415
1.84291
1.84262
1.40001
1.84064
1.84255
1.40001
1.84276
1.83986
1.40001
1.84079
1.32341
1.45817
1.84294
1.83967
1.84265
1.40001
1.84142
1.40001
1.84183
1.84244
1.40001
1.84283
1.40001
1.40001
1.40001
1.40001
1.84132
1.05122
1.39794
1.40001
1.8412
1.84709
1.40001
1.84175
1.40001
1.40529
1.0261
1.84132
1.3996
1.40001
1.84153
1.39834
1.84358
1.40001
1.39977
1.40001
1.84254
1.8466
1.84203
1.84154
1.02174
1.84329
1.84356
1.84166
1.51192
1.40001
1.40001
1.59079
1.84123
1.04344
1.02545
1.40001
1.84178
1.84256
1.84484
1.40001
1.40001
1.84153
1.8432
1.39988
1.40001
1.72123
1.01912
1.40001
1.47346
1.84013
1.84824
1.39825
1.84095
1.84966
1.40001
1.3992
1.40001
1.83969
1.83797
1.581
1.40001
1.80907
1.40001
1.40265
1.83957
1.00216
1.84138
1.84115
1.39708
1.39992
1.78382
1.40001
1.39971
1.40001
1.84433
1.40001
1.40002
1.03047
1.84395
1.40001
1.40001
1.40001
1.40001
1.83949
1.65423
1.40001
1.40001
1.02658
1.84293
1.65439
1.40001
1.40001
1.40001
1.82018
1.83172
1.84126
1.40001
1.40001
1.84593
1.40001
1.84216
1.84158
1.40001
1.40001
1.84401
1.84174
1.82115
1.40001
1.40001
1.84359
1.8433
1.40001
1.40001
1.40001
1.84382
1.40001
1.40001
1.40001
1.84105
1.83963
1.84354
1.40001
1.83891
1.40003
1.09347
1.84154
1.84191
1.40001
1.84312
1.83431
1.83498
1.40001
1.40001
1.84635
1.40001
1.6487
1.84105
1.40001
1.05558
1.40001
1.84369
1.40001
1.40001
1.83805
1.40001
1.40001
1.40001
1.53771
1.842
1.07242
1.40002
1.84308
1.40001
1.40001
1.84221
1.40001
1.84656
1.40001
1.40001
1.84083
1.84286
1.40001
1.40006
1.40001
1.40001
1.40001
1.40001
1.40001
1.40001
1.84703
1.84421
1.40001
1.84291
1.03571
1.84916
1.40001
1.842
1.84751
1.84046
1.84351
1.83979
1.40001
1.40001
1.83781
1.40001
1.67003
1.84611
1.84239
1.40001
1.84098
1.83521
1.40001
1.79399
1.40001
1.84188
1.68224
1.83788
1.39745
1.83678
1.80036
1.84119
1.84254
1.43538
1.84269
1.84401
1.40001
1.84159
1.40001
1.84332
1.40001
1.40001
1.40001
1.40001
1.39671
1.84116
1.84274
1.7723
1.40001
1.84586
1.40001
1.40001
1.40001
1.03723
1.40001
1.82906
1.40001
1.79866
1.82362
1.40001
1.40001
1.40001
1.80686
1.8373
1.40001
1.40001
1.84368
1.03027
1.47224
1.40001
1.84691
1.84192
1.80137
1.82678
1.84195
1.40001
1.84346
1.40001
1.40001
1.40001
1.40001
1.84102
1.84346
1.40001
1.83065
1.45343
1.84244
1.81007
1.40001
1.40001
1.81122
1.40001
1.40001
1.04437
1.71506
1.40001
1.40001
1.84757
1.40001
1.84481
1.80305
1.40001
1.80382
1.0295
1.84219
1.83997
1.83851
1.40001
1.03702
1.40001
1.40001
1.40001
1.84305
1.75963
1.40001
1.84734
1.84194
1.40001
1.84256
1.40001
1.40001
1.40001
1.40001
1.84195
1.39928
1.40001
1.84414
1.40001
1.40001
1.84239
1.83624
1.40001
1.84328
1.47985
1.40003
1.40001
1.84307
1.40001
1.84207
1.40001
1.41468
1.84209
1.40001
1.84104
1.40001
1.40001
1.52485
1.84311
1.40001
1.40001
1.40001
1.40001
1.40001
1.39649
1.04896
1.04768
1.42106
1.40001
1.42213
1.40001
1.41875
1.40001
1.84192
1.40001
1.6678
1.40001
1.84059
1.40001
1.40001
1.40001
1.84068
1.40001
1.75158
1.84226
1.40001
1.62652
1.84144
1.40001
1.40001
1.83205
1.84188
1.40001
1.40001
1.44929
1.04211
1.40001
1.84412
1.40001
1.40001
1.40001
1.40001
1.47633
1.84079
1.40001
1.40001
1.40001
1.01881
1.40001
1.84083
1.8411
1.8432
1.40001
1.40001
1.40001
1.40001
1.62411
1.84181
1.40001
1.40001
1.40001
1.84728
1.84516
1.45246
1.40001
1.40001
1.40001
1.84147
1.84529
1.40001
1.05417
1.84006
1.84198
1.83965
1.83997
1.84019
1.40001
1.40001
1.84554
1.83957
1.84221
1.01362
1.44079
1.84189
1.40001
1.40001
1.40001
1.40001
1.40001
1.84203
1.02791
1.40001
1.40001
1.84238
1.60642
1.40001
1.84574
1.40001
1.40001
1.40001
1.04183
1.40001
1.40001
1.51643
1.84098
1.83995
1.40001
1.83829
1.84899
1.40001
1.47277
1.40001
1.84188
1.40001
1.84227
1.03101
1.40001
1.40001
1.40001
1.40001
1.8418
1.40007
1.40001
1.40001
1.40001
1.82472
1.40001
1.40001
1.40001
1.40001
1.84097
1.0413
1.74539
1.84579
1.40001
1.84035
1.40001
1.40001
1.40001
1.39709
1.40001
1.84641
1.40001
1.20174
1.40001
1.40001
1.40004
1.84038
1.02906
1.40001
1.83869
1.40001
1.83963
1.84397
0.999981
1.40001
1.40001
1.81953
1.40001
1.40001
1.0094
1.40001
1.83792
1.40001
1.82021
1.39936
1.84168
1.40001
1.40001
1.40001
1.40001
1.84432
1.40001
1.40001
1.84121
1.40001
1.40001
1.40001
1.40001
1.40001
1.40001
1.40001
1.40001
1.69308
1.40001
1.54642
1.84207
1.40001
1.40001
1.40001
1.04685
1.40001
1.40001
1.40001
1.40001
1.84021
1.84175
1.45604
1.40001
1.40001
1.84355
1.40001
1.40001
1.84229
1.40001
1.40002
1.40001
1.40001
1.40001
1.40002
1.84092
1.18134
1.84543
1.84432
1.39723
1.40001
1.40001
1.40001
1.66391
1.40001
1.40001
1.84
1.84076
1.40001
1.40001
1.40001
1.40001
0.998074
1.40001
1.40001
1.40001
1.68009
1.40001
1.84004
1.844
1.40001
1.84312
1.40001
1.40001
1.40001
1.63832
1.40001
1.83916
1.40001
1.84127
1.40001
1.40001
1.39619
1.84289
1.40001
1.40001
1.40001
1.40001
1.40001
1.84515
1.40003
1.40001
1.04248
1.84182
1.06102
1.40001
1.84437
1.40001
1.39607
1.40001
1.84229
1.83803
1.40001
1.83986
1.27059
1.83795
1.84352
1.40004
1.40001
1.40001
1.03463
1.40001
1.40001
1.40001
1.84307
1.65383
1.84018
1.40001
1.40001
1.40001
1.40001
1.39676
1.84218
1.40001
1.03326
1.40001
1.40001
1.40001
1.40001
1.40001
1.40001
1.40001
1.84593
1.84046
1.84653
1.40001
1.40001
1.3969
1.40001
1.37597
1.40001
1.40001
1.40001
1.03438
1.3748
1.40001
1.029
1.04362
1.40001
1.83936
1.84203
1.40001
1.83992
1.84179
1.03415
1.69102
1.40001
1.40001
1.40001
1.03412
1.84253
1.40001
1.03455
1.40001
1.83925
1.47265
1.40001
1.40001
1.40001
1.40001
1.845
1.84183
1.40001
1.40001
1.83807
1.40001
1.40001
1.83922
1.84138
1.40001
1.81573
1.83929
1.83775
1.34862
1.84148
1.40882
1.03239
1.73888
1.83938
1.40001
1.40001
1.40001
1.03289
1.40001
1.0459
1.84859
1.34988
1.84318
1.3496
1.40001
1.83999
1.60117
1.40001
1.40001
1.84355
1.40001
1.58083
1.84135
1.40001
1.40001
1.83686
1.84702
1.05447
1.66287
1.3999
1.40001
1.67423
1.40001
1.83998
1.34324
1.84792
1.84342
1.40001
1.40001
1.40001
1.40001
1.82668
1.40001
1.40001
1.84181
1.39964
1.84346
1.75088
1.84798
1.02874
1.40001
1.40001
1.40001
1.40001
1.84245
1.40005
1.84071
1.40001
1.84253
1.84013
1.45722
1.84223
1.53569
1.84281
1.40001
1.70489
1.04631
1.85139
1.8416
1.74925
1.474
1.84199
1.83691
1.83938
1.84365
1.40001
1.30624
1.46903
1.40001
1.84163
1.60842
1.84129
1.40004
1.40001
1.40001
1.07469
1.84128
1.84069
1.76408
1.40001
1.55465
1.40001
1.83725
1.83897
1.40001
1.84318
1.84071
1.40001
1.40001
1.40001
1.84252
1.40001
1.5758
1.83503
1.70846
1.40001
1.84171
1.40001
1.40001
1.40001
1.40001
1.40001
1.40001
1.40001
1.40001
1.40001
1.40001
1.04206
1.40001
1.80824
1.04704
1.66323
1.39857
1.83632
1.40001
1.62181
1.40002
1.68098
1.78326
1.40001
1.40199
1.84948
1.31029
1.40001
1.8499
1.82952
1.33131
1.40001
1.83941
1.84348
1.8429
1.40001
1.841
1.84447
1.8457
1.40001
1.59972
1.40001
1.40006
1.84183
1.40001
1.84209
1.46566
1.84433
1.40001
1.40001
1.84046
1.83848
1.08716
1.40001
1.8404
1.73155
1.83544
1.40001
1.40001
1.8383
1.8453
1.39825
1.40001
1.79172
1.39691
1.84319
1.40009
1.40001
1.40001
1.40001
1.40001
1.59804
1.40001
1.74105
1.83815
1.72976
1.84148
1.40001
1.40285
1.40001
1.40001
1.83804
1.40001
1.84598
1.40001
1.40001
1.40001
1.40001
1.4
1.40001
1.45817
1.63553
1.40001
1.40001
1.06536
1.40001
1.84129
1.04164
1.84936
1.40001
1.61673
1.39974
1.84081
1.68264
1.06151
1.6422
1.40004
1.84161
1.84369
1.40001
1.66922
1.84152
1.84366
1.39841
1.83941
1.82281
1.05362
1.40001
1.40001
1.39788
1.40001
1.83819
1.40001
1.07101
1.83907
1.40001
1.40001
1.78966
1.40001
1.83829
1.40001
1.84241
1.40001
1.05709
1.40001
1.40001
1.84432
1.8397
1.85504
1.40001
1.84234
1.84269
1.83751
1.40001
1.40001
1.8408
1.4
1.13505
1.40001
1.40001
1.40001
1.84318
1.40001
1.8417
1.69311
1.83851
1.40001
1.83944
1.39939
1.40001
1.40001
1.40001
1.40001
1.40001
1.40001
1.09486
1.40001
1.40001
1.84569
1.40001
1.84392
1.85064
1.40001
1.04842
1.02785
1.40001
1.84357
1.47517
1.02788
1.01471
1.40001
1.84292
1.40001
1.84262
1.02034
1.40134
1.40001
1.40001
1.3995
1.40001
1.40001
1.40001
1.39992
1.58568
1.84201
1.40001
1.40001
1.84215
1.65696
1.40001
1.79671
1.84492
1.84038
1.5844
1.849
1.40001
1.83955
1.40001
1.82656
1.40001
1.84144
1.84092
1.39667
1.84348
1.85253
1.40001
1.40001
1.40001
1.40001
1.40001
1.30418
1.84011
1.40005
1.40003
1.03132
1.39999
1.0416
1.04204
1.40001
1.84379
1.84175
1.84191
1.40001
1.84038
1.40001
1.02909
1.40001
1.40001
1.84396
1.22884
1.83968
1.40001
1.84341
1.40001
1.3815
1.84037
1.40001
1.40001
1.40001
1.84181
1.40001
1.84128
1.05095
1.40001
1.40001
1.65631
1.40001
1.40001
1.64076
1.40001
1.40001
1.84227
1.40001
1.40001
1.40001
1.40001
1.40001
1.85004
1.83963
1.40001
1.84024
1.8437
1.03749
1.60439
1.84724
1.40001
1.40001
1.79787
1.39907
1.40001
1.40001
1.84146
1.84683
1.68376
1.40001
1.84301
1.05099
1.82566
1.39948
1.40001
1.8402
1.40004
1.83837
1.77883
1.73402
1.40001
1.40001
1.84048
1.11026
1.0239
1.40001
1.84119
1.40001
1.84065
1.40001
1.66496
1.40001
1.40001
1.83651
1.68391
1.03568
1.40001
1.39845
1.40001
1.40001
1.4249
1.58473
1.8405
1.40001
1.84645
1.40001
1.40001
1.40001
1.40001
1.40001
1.40001
1.46662
1.02338
1.40001
1.40001
1.43087
1.40001
1.40001
1.40001
1.40001
1.40001
1.84246
1.40001
1.40001
1.84034
1.84417
1.72015
1.40001
1.40001
1.40001
1.21902
1.84745
1.70847
1.40001
1.40001
1.40001
1.40001
1.84151
1.40001
1.40001
1.40001
1.83941
1.40001
1.40001
1.72262
1.85506
1.4427
1.13667
1.83778
1.71618
1.83968
1.40001
1.61729
1.40001
1.40001
1.40001
1.02052
1.40237
0.978987
1.40001
1.01244
1.01803
1.40001
1.04157
1.40001
1.40001
1.40001
1.59962
1.40001
1.84112
1.84301
1.40165
1.61078
1.78854
1.02291
1.15769
1.28788
1.40001
1.83771
1.84032
1.83906
1.84052
1.77916
1.25872
1.40001
1.78227
1.40001
1.83277
1.40001
1.40001
1.39653
1.40983
1.40001
1.40001
1.40001
1.8398
1.40001
1.06387
1.40001
1.84299
1.05141
1.40001
1.40001
1.84055
1.40001
1.83936
1.40015
1.40001
1.40001
1.84259
1.80823
1.40001
1.85287
1.40001
1.40001
1.41439
1.40001
1.58976
1.40001
1.40001
1.03969
1.40001
1.40001
1.83813
1.4
1.84159
1.40001
1.40004
1.04591
1.40001
1.40001
1.08622
1.40082
1.40001
1.84019
1.04743
1.84177
1.039
1.84107
1.40001
1.40001
1.40001
1.40001
1.40001
1.40001
1.40001
1.40001
1.40001
1.40001
1.40001
1.82425
1.40001
1.84365
1.84068
1.02105
1.40001
1.40001
1.40001
1.40001
1.40001
1.40001
1.82755
1.40001
1.40001
1.02924
1.40001
1.40001
1.84017
1.40001
1.40001
1.56798
1.77268
1.03485
1.03484
1.08097
1.11069
1.40001
1.39658
1.05749
1.40029
1.80162
1.39701
1.40001
1.40001
1.84371
1.40001
1.40001
1.40001
1.16776
1.40002
1.56451
1.40001
1.40001
1.58437
1.84318
1.40001
1.02647
1.40001
1.40001
1.40001
1.39686
1.40001
1.84043
1.84064
1.40001
1.03507
1.40001
1.64037
1.00869
1.40001
1.28353
1.40001
1.39607
1.0159
1.40001
1.40001
1.40001
1.39641
0.999834
1.40001
1.0099
1.39843
1.63748
1.79487
1.03052
1.03402
1.40001
1.39165
1.40001
1.39863
1.40001
1.84303
1.84047
1.40001
1.41018
1.84353
1.84002
1.40001
1.40001
1.84098
1.40001
1.40001
1.40005
1.40001
1.84651
1.40001
1.40001
1.41839
1.40001
1.3986
1.06146
1.40001
1.40001
1.40001
1.40001
1.40001
1.8435
1.43204
1.40006
1.40001
1.40001
1.40001
1.40001
1.40001
1.40004
1.40001
1.03292
1.49057
1.39859
1.82752
1.84122
1.40001
1.41647
1.84365
1.77678
1.40001
1.40001
1.03637
1.84174
1.40001
1.84061
1.40001
1.84415
1.70165
1.03281
1.40001
1.00948
1.82374
1.39968
1.40001
1.02492
1.04278
1.40001
1.40001
1.76831
1.40001
1.4
1.03086
1.40001
1.40001
1.40001
1.54386
1.40001
1.02179
1.84106
1.40001
1.40001
1.40001
1.40001
1.83736
1.40001
1.40001
1.84045
1.79538
1.40001
1.40001
1.40001
1.84765
1.03551
1.40001
1.84134
1.84284
1.40001
1.75167
1.4
1.40003
1.40001
1.40001
1.83315
1.4145
1.40001
1.04471
1.63922
1.40001
1.40001
1.39835
1.40001
1.40001
1.8546
1.40001
1.40001
1.40004
1.40001
1.84161
1.40001
1.40001
1.40001
1.40001
1.40001
1.40001
1.40001
1.59613
1.40001
1.83833
1.40001
1.40001
1.84303
1.40001
1.40001
1.40001
1.83605
1.85181
1.44404
1.40001
1.39761
1.40001
1.40001
1.40001
1.40001
1.84019
1.40001
1.40001
1.84074
1.02556
1.40001
1.40001
1.40001
1.40001
1.40001
1.40001
1.75838
1.40001
1.40001
1.83887
1.84156
1.40001
1.40001
1.40001
1.84098
1.83987
1.40001
1.39972
1.84075
1.40001
1.40001
1.40001
1.40002
1.07101
1.42904
1.39609
1.3959
1.40001
1.40001
1.02168
1.84071
1.40001
1.02789
1.40001
1.84275
1.82389
1.03554
1.39942
1.84041
1.84122
1.8415
1.40001
1.40001
1.32747
1.81847
1.76663
1.03117
1.40001
1.40001
1.40001
1.84179
1.84225
1.04303
1.39738
1.40001
1.84346
1.08032
1.40001
1.83164
1.04359
1.3713
1.40634
1.40001
1.84692
1.40001
1.40001
1.40001
1.40001
1.40001
1.40001
1.40011
1.80473
1.40001
1.40001
1.84058
1.40001
1.40001
1.40001
1.84229
1.40001
1.03187
1.40001
1.40001
1.40001
1.55569
1.40001
1.40001
1.40001
1.40001
1.40001
1.16591
1.40001
1.08321
1.40001
1.84394
1.40007
1.23545
1.24458
1.40002
1.40381
1.63586
1.40001
1.40001
1.03842
1.84316
1.84409
1.84208
1.40001
1.02138
1.02657
1.40001
1.84449
1.40001
1.40001
1.40001
1.40001
1.40001
1.40004
1.40001
1.04008
1.68912
1.40001
1.40001
1.0434
1.38088
1.40001
1.40001
1.40001
1.40001
1.01504
1.40001
1.09289
1.40001
1.40001
1.84861
1.40001
1.40001
1.03355
1.40001
1.84179
1.40001
1.02039
1.40001
1.04835
1.40001
1.40797
1.84547
1.85024
1.40001
1.40001
1.84016
1.40001
1.40001
1.49541
1.39692
1.40001
1.39814
1.40001
1.84371
1.40001
0.996858
1.40002
1.83624
1.39877
1.40001
1.40001
1.20413
1.40001
1.399
1.0303
1.84268
1.55879
1.40001
1.40001
1.28491
1.40001
1.40001
1.40001
1.19531
1.40001
1.40001
1.40001
1.84146
1.40001
1.03219
1.4
1.40001
1.40001
1.40001
1.0142
1.84143
1.80066
1.04247
1.40001
1.84891
1.40001
1.40001
1.83936
1.84047
1.77332
1.03006
1.39773
1.39925
1.40001
1.84248
1.40001
1.40001
1.40001
1.40001
1.84149
1.40004
1.40001
1.40001
1.83809
1.40001
1.40001
1.84068
1.03605
1.40001
1.40001
1.40001
1.02551
1.40001
1.4
1.4
1.39861
1.40001
1.40001
1.40001
1.40001
1.76911
1.40001
1.83952
1.84005
1.84964
1.84115
1.84202
1.8439
1.40001
1.84371
1.40001
1.84176
1.8416
1.40001
1.3989
1.03554
1.77977
1.39991
1.40001
1.40001
1.40001
1.40001
1.39194
1.40001
1.46592
1.40001
1.40001
1.40001
1.22391
1.841
1.84041
1.84279
1.77282
1.39989
1.40001
1.42287
1.84336
1.3979
1.45305
1.39692
1.0307
1.40001
1.40002
1.40001
1.40001
1.40001
1.40001
1.40001
1.83938
1.02998
1.83958
1.84238
1.39505
1.04871
1.40001
1.40001
1.40001
1.84166
1.04289
1.79033
1.02283
1.84212
1.84475
1.0489
1.84857
1.42418
1.40001
1.84566
1.18803
1.40001
1.39878
1.0564
1.40001
1.04904
1.40001
1.84275
1.83835
1.15923
1.40001
1.84021
1.03001
1.40001
1.02931
1.40001
1.84086
1.40001
1.40001
1.83212
1.40001
1.22815
1.40001
1.39972
1.04878
1.83626
1.39948
1.40001
1.05213
1.40001
1.40001
1.40001
1.40001
1.64555
1.40001
1.84385
1.40001
1.40001
1.84507
1.40001
1.40001
1.84179
1.40001
1.05128
1.40001
1.02767
1.40002
1.40001
1.40001
1.40001
1.40001
1.82351
1.66023
1.84113
1.40001
1.84103
1.80924
1.01502
1.03632
1.40001
1.40001
1.84465
1.40001
1.04954
1.40001
1.38305
1.40001
1.40001
1.84259
1.40001
1.84712
1.0489
1.84585
1.40001
1.03612
1.40001
1.40001
1.83672
1.82845
1.40001
1.40005
1.40001
1.85195
1.40001
1.40001
1.03848
1.3994
1.08031
1.40001
1.40001
1.40001
1.8364
1.83742
1.8402
1.40001
1.40001
1.03394
1.40001
1.85471
1.40001
1.40001
1.40001
1.81398
1.84154
1.84094
1.03021
1.84464
1.8415
1.06409
1.8395
1.40005
1.06644
1.40689
1.40001
1.40001
1.84066
1.03654
1.68185
1.0424
1.84137
1.39749
1.03662
1.84325
1.40001
1.40001
1.40001
1.40001
1.83995
1.84024
1.04687
1.40001
1.40003
1.03419
1.40004
1.40001
1.01642
1.02855
1.70955
1.84713
1.39849
1.8416
1.40001
1.83695
1.19578
1.03158
1.84167
1.84899
1.40001
1.83952
1.40001
1.40001
1.84165
1.40001
1.73982
1.83961
1.40001
1.40001
1.40001
1.40001
1.84058
1.82823
1.83598
1.40001
1.40001
1.8377
1.83872
1.84028
1.40001
1.84041
1.40001
1.40001
1.40001
1.40001
1.40001
1.0254
1.24935
1.01842
1.40001
1.40001
1.84235
1.40001
1.40001
1.84104
1.03192
1.40001
1.84209
1.83786
1.82528
1.02399
1.40001
1.02172
1.40001
1.40003
1.84142
1.61774
1.83969
1.80196
1.40001
1.03881
1.40001
1.84933
1.7123
1.02694
1.40001
1.40001
1.40001
1.20514
1.40001
1.40001
1.84838
1.40001
1.02841
1.84158
1.40001
1.40001
1.40001
1.40001
1.40001
1.75495
1.50081
1.40001
1.84099
1.40001
1.84574
1.40001
1.39721
1.40001
1.84172
1.84105
1.84078
1.84456
1.39962
1.8394
1.40001
1.84177
1.84002
1.77009
1.40001
1.40001
1.0359
1.83869
1.40001
1.40001
1.84666
1.83946
1.83793
1.40001
1.84101
1.40001
1.40001
1.40003
1.83997
1.84717
1.52997
1.49487
1.84135
1.83939
1.10448
1.40001
1.40001
1.40001
1.40001
1.40002
1.55939
1.40001
1.40001
1.77144
1.07897
1.39998
1.40001
1.842
1.39992
1.39983
1.46333
1.80033
1.83669
1.29348
1.40001
1.06662
1.40001
1.39403
1.8408
1.84429
1.85141
1.39912
1.40001
1.40001
1.05161
1.40001
1.40001
1.84082
1.44937
1.40001
1.40001
1.40001
1.40001
1.40001
1.40001
1.40001
1.39995
1.84119
1.40002
1.40001
1.40001
1.40001
1.40001
1.67505
1.40001
1.60525
1.40001
1.40001
1.84126
1.84241
1.03372
1.39878
1.40001
1.4
1.40001
1.04016
1.83931
1.83956
1.40001
1.40001
1.40001
1.40001
1.40001
1.40001
1.40001
1.40001
1.8403
1.8389
1.03316
1.45084
1.04031
1.40001
1.03349
1.40001
1.8421
1.53006
1.40001
1.40001
1.07418
1.40001
1.82514
1.20594
1.3966
1.03231
1.40001
1.40001
1.83941
1.40005
1.39719
1.0091
1.83995
1.8475
1.40001
1.40001
1.40001
1.40001
1.81056
1.40001
1.40001
1.83809
1.39899
1.84056
1.40011
1.40001
1.40001
1.0607
1.40001
1.40001
1.84199
1.03422
1.18596
1.01753
1.84116
1.39931
1.40001
1.8554
1.03234
1.02654
1.4034
1.40001
1.40001
1.84014
1.40004
1.6122
1.40001
1.40001
1.8407
1.04399
1.40001
1.40001
1.40013
1.84024
1.40019
1.82502
1.40001
1.40004
1.40001
1.40001
1.09476
1.40001
1.16058
1.40003
1.40001
1.84605
1.05988
1.40001
1.1866
1.1913
1.40001
1.40001
1.8418
1.40001
1.40001
1.40001
1.84137
1.83955
1.40006
1.84087
1.83942
1.17452
1.84107
1.82194
1.40001
1.40001
1.83197
1.4
1.40001
1.40001
1.40001
1.40001
1.84446
1.8438
1.40001
1.40001
1.40001