/*--------------------------------*- C++ -*----------------------------------*\
  =========                 |
  \\      /  F ield         | OpenFOAM: The Open Source CFD Toolbox
   \\    /   O peration     | Website:  https://openfoam.org
    \\  /    A nd           | Version:  12
     \\/     M anipulation  |
\*---------------------------------------------------------------------------*/
FoamFile
{
    format      ascii;
    class       volVectorField;
    location    "4.9";
    object      U;
}
// * * * * * * * * * * * * * * * * * * * * * * * * * * * * * * * * * * * * * //

dimensions      [0 1 -1 0 0 0 0];

internalField   nonuniform List<vector> 
22702
(
(2 -2.82067e-13 0)
(2 -1.32701e-14 0)
(2.0479 -0.0960823 0)
(2 -1.16288e-09 0)
(1.97707 0.0311862 0)
(2 1.7917e-14 0)
(1.83014 0.228813 0)
(2 -1.91906e-14 0)
(2 -3.47098e-13 0)
(2.06523 -0.267277 0)
(1.82978 0.228661 0)
(1.82989 0.228461 0)
(2 6.9167e-14 0)
(1.83223 0.229116 0)
(2.0436 -0.0771593 0)
(2 -3.3044e-14 0)
(2 9.47352e-14 0)
(2 1.55123e-14 0)
(1.82934 0.228778 0)
(2 -2.31698e-14 0)
(1.83244 0.22974 0)
(2 -1.02692e-13 0)
(1.83065 0.228799 0)
(2.10373 -0.259583 0)
(1.82937 0.227471 0)
(2.12357 -0.265678 0)
(2 -8.69556e-14 0)
(1.83051 0.228761 0)
(2.08064 -0.256515 0)
(2.10127 -0.256353 0)
(2 -4.66723e-14 0)
(1.82835 0.228783 0)
(2 5.00547e-14 0)
(2 9.55317e-14 0)
(2 -8.91851e-14 0)
(1.84188 0.214678 0)
(1.82753 0.228668 0)
(1.83047 0.228624 0)
(2 9.7365e-14 0)
(2 2.09816e-13 0)
(2.07996 -0.268803 0)
(2 -1.1885e-13 0)
(1.91618 0.121609 0)
(2 -6.4938e-14 0)
(1.83026 0.228533 0)
(2 -1.64163e-13 0)
(2 8.8212e-14 0)
(2 -2.69262e-13 0)
(2 -6.29572e-14 0)
(2.11059 -0.263555 0)
(2 1.26929e-13 0)
(2.11615 -0.265981 0)
(2 -4.98165e-14 0)
(1.82978 0.228608 0)
(2 -2.29162e-13 0)
(1.82748 0.229203 0)
(2 1.10921e-13 0)
(2 1.37244e-09 0)
(2 -5.67541e-14 0)
(2 -1.68067e-13 0)
(2.12973 -0.261046 0)
(2 2.60321e-14 0)
(2 -3.09947e-14 0)
(2.10026 -0.265088 0)
(2 8.20721e-14 0)
(2.11521 -0.257501 0)
(2 -2.69521e-13 0)
(2 -7.05083e-14 0)
(2 -4.88322e-14 0)
(2.09683 -0.271258 0)
(2 -5.85788e-14 0)
(1.83097 0.22851 0)
(1.89801 0.148915 0)
(2 1.10349e-09 0)
(1.83091 0.228489 0)
(1.82154 0.236701 0)
(2.10567 -0.25803 0)
(1.82853 0.228246 0)
(2.11063 -0.264984 0)
(2 -1.37131e-13 0)
(1.82993 0.228702 0)
(2.10999 -0.263569 0)
(1.83154 0.229096 0)
(1.83267 0.22939 0)
(2 2.93629e-14 0)
(2 7.80388e-07 0)
(2 8.69056e-15 0)
(2 -1.27665e-13 0)
(2.02187 -0.0426673 0)
(2.0839 -0.267454 0)
(1.82964 0.228407 0)
(2 5.38434e-15 0)
(2 -5.99069e-11 0)
(2.1056 -0.267005 0)
(2 4.51974e-14 0)
(1.8319 0.229602 0)
(2.10488 -0.267558 0)
(2 2.93863e-08 0)
(2 -6.18841e-14 0)
(2 -1.6604e-13 0)
(2 7.27956e-14 0)
(1.91682 0.122375 0)
(1.82987 0.228493 0)
(2.11722 -0.261789 0)
(2 -1.52517e-09 0)
(2 -9.20239e-10 0)
(1.95946 0.0600727 0)
(2 1.01109e-08 0)
(2.11046 -0.265666 0)
(2 -2.34385e-13 0)
(1.82625 0.228056 0)
(1.82972 0.228644 0)
(2 4.42566e-09 0)
(2 -2.03271e-13 0)
(2.11459 -0.276121 0)
(2.10747 -0.275125 0)
(2.07695 -0.262321 0)
(2 1.09361e-13 0)
(2 -1.46573e-07 0)
(2 4.13075e-14 0)
(2 -1.07277e-13 0)
(2 1.04225e-07 0)
(2.02742 -0.0548277 0)
(2 -9.74015e-08 0)
(1.85849 0.202153 0)
(1.98609 0.0255315 0)
(1.82892 0.228517 0)
(2 -8.93879e-14 0)
(1.82864 0.22841 0)
(1.82936 0.228895 0)
(1.83151 0.228674 0)
(1.83084 0.228809 0)
(2 -1.03465e-13 0)
(2.11625 -0.259251 0)
(2 -3.15779e-14 0)
(2.14373 -0.266496 0)
(2 -4.07672e-14 0)
(2 2.20464e-14 0)
(2 8.78156e-15 0)
(2 -6.73493e-14 0)
(1.82976 0.228823 0)
(2 3.47217e-09 0)
(2 7.86772e-15 0)
(2 -1.13822e-13 0)
(2 -5.48249e-14 0)
(1.83102 0.228897 0)
(2 -9.69293e-15 0)
(1.99332 0.0139093 0)
(2 3.87571e-14 0)
(2 -2.56163e-13 0)
(2 -6.45225e-11 0)
(2 3.52537e-14 0)
(2.11051 -0.26381 0)
(2 -2.77262e-14 0)
(1.99516 0.00840974 0)
(2 -1.02561e-14 0)
(2.10977 -0.265034 0)
(2 -1.91508e-13 0)
(2 -1.03014e-13 0)
(2 -3.16406e-14 0)
(1.8295 0.22878 0)
(2 -4.84651e-14 0)
(1.83114 0.22865 0)
(2.11803 -0.276535 0)
(2.12864 -0.261594 0)
(1.83056 0.228465 0)
(1.83098 0.228675 0)
(2 -2.66611e-14 0)
(1.96983 0.0452998 0)
(1.9013 0.143537 0)
(2 4.53661e-14 0)
(1.83085 0.229075 0)
(2.11027 -0.263716 0)
(1.83876 0.214733 0)
(2 8.73696e-14 0)
(2 3.3381e-15 0)
(2 1.23413e-14 0)
(2 1.6571e-14 0)
(1.8329 0.229535 0)
(1.86804 0.187525 0)
(2 -1.10179e-13 0)
(1.82949 0.228352 0)
(2.12807 -0.272995 0)
(1.82837 0.228921 0)
(2 1.31904e-13 0)
(2.1212 -0.263485 0)
(2 1.14548e-13 0)
(2.10937 -0.262994 0)
(2.12664 -0.261794 0)
(2.00008 -0.000144478 0)
(2 -6.68236e-14 0)
(2 -2.94419e-14 0)
(1.82941 0.229277 0)
(2 7.31069e-14 0)
(2 -7.08283e-14 0)
(1.83146 0.229149 0)
(2 -1.45786e-14 0)
(1.82777 0.228956 0)
(1.82954 0.228307 0)
(2.10696 -0.282728 0)
(2 -1.55194e-13 0)
(2 -3.46607e-13 0)
(2.10955 -0.266618 0)
(1.83175 0.228987 0)
(2 -1.1084e-13 0)
(2 -9.19017e-14 0)
(2 -1.1702e-13 0)
(1.83177 0.228898 0)
(2 4.70955e-14 0)
(2.11702 -0.265254 0)
(2 -6.09953e-11 0)
(2 3.21882e-14 0)
(1.83154 0.228979 0)
(1.83131 0.228866 0)
(1.82665 0.228212 0)
(2 -1.59787e-14 0)
(1.99999 2.50588e-05 0)
(2 6.45343e-14 0)
(2 -6.57315e-14 0)
(2 -1.19103e-13 0)
(1.8299 0.228296 0)
(2 -6.52919e-14 0)
(2.13203 -0.27054 0)
(1.8243 0.235318 0)
(1.83153 0.229212 0)
(1.82936 0.228507 0)
(2 1.98768e-07 0)
(2 -1.41961e-14 0)
(2 -1.11306e-13 0)
(2.10685 -0.272513 0)
(1.83195 0.229156 0)
(1.91888 0.129712 0)
(2 4.12548e-14 0)
(1.83082 0.228987 0)
(2.11628 -0.265352 0)
(2.11612 -0.265542 0)
(1.83198 0.229693 0)
(1.8309 0.229594 0)
(2 6.20371e-14 0)
(1.83062 0.231779 0)
(2.13039 -0.270578 0)
(1.85413 0.207492 0)
(2 1.0887e-13 0)
(2 -3.22692e-13 0)
(2 -1.64059e-13 0)
(2 -8.18666e-14 0)
(1.83124 0.228881 0)
(2 -3.01814e-13 0)
(1.90134 0.148024 0)
(1.98245 0.0307208 0)
(2 1.05114e-13 0)
(2 -2.47797e-14 0)
(1.83191 0.228818 0)
(2.12785 -0.265964 0)
(2.06907 -0.165446 0)
(2 -3.45049e-13 0)
(1.83051 0.23069 0)
(2.1166 -0.265369 0)
(1.83116 0.228062 0)
(2 4.70707e-14 0)
(2 7.9265e-14 0)
(2 1.92135e-13 0)
(2 -7.58115e-14 0)
(2 -1.47328e-13 0)
(2 -1.17085e-13 0)
(2 -4.3025e-14 0)
(2.11399 -0.262399 0)
(2.09249 -0.163159 0)
(2.11691 -0.265033 0)
(1.83146 0.229019 0)
(2 2.6818e-15 0)
(2 -1.50042e-13 0)
(2 -1.65481e-07 0)
(2 -1.03123e-13 0)
(1.84347 0.212378 0)
(2 -2.02525e-07 0)
(2.10952 -0.26122 0)
(2 -1.33258e-14 0)
(2.12028 -0.275196 0)
(2.1087 -0.265474 0)
(1.83175 0.229009 0)
(2.11986 -0.265979 0)
(1.83223 0.229795 0)
(2 9.34071e-14 0)
(2 -3.47329e-13 0)
(2 -2.09101e-13 0)
(2.00097 -0.0014678 0)
(2.12389 -0.272057 0)
(2.12378 -0.273204 0)
(2 -2.92748e-07 0)
(2 -1.57081e-07 0)
(2.11525 -0.279661 0)
(2 2.40569e-09 0)
(1.82916 0.228796 0)
(2.10886 -0.26729 0)
(2 -8.25643e-14 0)
(2 -3.48432e-11 0)
(1.83038 0.228851 0)
(2.11643 -0.272494 0)
(2 -1.19372e-13 0)
(1.83358 0.226733 0)
(2.12976 -0.262947 0)
(1.83114 0.228644 0)
(2 -2.56556e-14 0)
(2.11233 -0.281645 0)
(2.00075 -0.00138922 0)
(2 -1.26448e-13 0)
(2 3.1576e-06 0)
(2 -1.11903e-13 0)
(2.1175 -0.267181 0)
(2 -2.69768e-13 0)
(2 -1.65948e-07 0)
(2 1.64973e-07 0)
(1.99999 1.52788e-05 0)
(1.99175 0.0103876 0)
(1.89793 0.148199 0)
(2 -2.44665e-11 0)
(2.09893 -0.249076 0)
(2 -1.55681e-11 0)
(2 1.79581e-06 0)
(2 -5.68827e-15 0)
(2 -1.02547e-13 0)
(2 5.25451e-15 0)
(2 -5.64766e-14 0)
(2 -5.52878e-13 0)
(1.83062 0.228845 0)
(2 1.57918e-13 0)
(1.82968 0.228495 0)
(2 5.58096e-14 0)
(2 2.95665e-13 0)
(2 7.28157e-14 0)
(2.12321 -0.258757 0)
(2 5.60689e-14 0)
(1.83142 0.22914 0)
(2.12696 -0.270253 0)
(2 -5.5254e-14 0)
(1.8881 0.180234 0)
(2 -1.53492e-13 0)
(2 -4.50298e-14 0)
(1.8296 0.229301 0)
(2 5.99985e-14 0)
(2 -8.28312e-09 0)
(2 1.12597e-13 0)
(1.83048 0.227461 0)
(2 3.97183e-10 0)
(2 -3.11589e-14 0)
(1.83232 0.22898 0)
(1.83009 0.229434 0)
(2 3.1089e-15 0)
(1.96354 0.0565388 0)
(2 -2.39987e-14 0)
(2 5.00463e-14 0)
(2.13896 -0.267802 0)
(2 -2.92577e-15 0)
(2 -1.26432e-14 0)
(2 -8.67973e-14 0)
(2.10636 -0.270059 0)
(2 9.43674e-14 0)
(2 8.70847e-14 0)
(2 6.1185e-15 0)
(2 -9.67085e-14 0)
(2.09685 -0.262115 0)
(2 -4.48803e-15 0)
(2 -1.52568e-13 0)
(2 1.04948e-14 0)
(2 4.0359e-14 0)
(2 2.59718e-13 0)
(2.10332 -0.270382 0)
(1.99998 4.37798e-05 0)
(1.83099 0.228561 0)
(2 -3.37374e-14 0)
(1.99999 -3.55272e-06 0)
(1.8309 0.228535 0)
(1.83056 0.22874 0)
(2 9.44317e-14 0)
(2 2.347e-14 0)
(2.09812 -0.277538 0)
(2.05173 -0.127287 0)
(1.82974 0.228744 0)
(2 7.56338e-15 0)
(2 -2.05328e-14 0)
(2 4.7357e-14 0)
(1.83097 0.228314 0)
(2.09799 -0.265223 0)
(2 8.37934e-14 0)
(1.83118 0.228598 0)
(2 -3.44541e-14 0)
(2 -4.89318e-14 0)
(2.09559 -0.205352 0)
(2.08692 -0.212441 0)
(2 -1.41812e-13 0)
(2.10533 -0.265728 0)
(2.12624 -0.254554 0)
(2 -8.60091e-14 0)
(2 -4.61882e-14 0)
(2 -7.64741e-15 0)
(2 6.21464e-14 0)
(2 -9.72198e-11 0)
(2 -7.36934e-14 0)
(2 -5.04693e-14 0)
(1.83056 0.22832 0)
(1.95741 0.064033 0)
(1.84619 0.208728 0)
(2.10515 -0.267077 0)
(2.03089 -0.0521813 0)
(1.82983 0.229021 0)
(2 -1.0624e-12 0)
(1.83052 0.228475 0)
(1.82971 0.228665 0)
(2.11883 -0.262281 0)
(2.05715 -0.155746 0)
(2 3.59474e-13 0)
(2.11801 -0.264013 0)
(2 7.61999e-14 0)
(1.82213 0.235187 0)
(2 -1.99432e-13 0)
(2 -4.583e-14 0)
(2 -2.07077e-13 0)
(2 5.22818e-14 0)
(1.83172 0.228994 0)
(2 1.33038e-13 0)
(2 -3.36922e-14 0)
(2 7.59147e-15 0)
(2 1.53249e-09 0)
(2 -6.20638e-14 0)
(2 -1.23982e-13 0)
(2 2.14304e-14 0)
(1.93408 0.0962113 0)
(1.82937 0.228536 0)
(2 -6.47806e-14 0)
(1.8314 0.22884 0)
(2 5.92521e-14 0)
(2 4.24755e-14 0)
(2.10519 -0.259457 0)
(2 -2.19364e-14 0)
(2 3.28367e-14 0)
(2 -2.67689e-13 0)
(2 -8.46822e-14 0)
(1.83176 0.228964 0)
(1.87055 0.183026 0)
(2 -1.60381e-13 0)
(2 -5.28132e-14 0)
(2.1088 -0.262427 0)
(1.83154 0.229196 0)
(1.83163 0.229107 0)
(2 -1.399e-13 0)
(1.83162 0.229119 0)
(1.83147 0.229187 0)
(1.83132 0.22882 0)
(2 -1.92876e-13 0)
(2.05641 -0.11076 0)
(2 -9.91925e-14 0)
(1.83145 0.228333 0)
(2.00311 -0.0139872 0)
(1.83136 0.228828 0)
(2 7.31695e-14 0)
(2.11892 -0.264532 0)
(2.00045 -0.000673704 0)
(1.83003 0.228693 0)
(2 -1.3987e-13 0)
(2 2.16382e-14 0)
(2 -5.75983e-11 0)
(2 -1.89582e-11 0)
(2.11391 -0.266511 0)
(1.83186 0.229088 0)
(1.84554 0.211619 0)
(2 -1.18058e-13 0)
(1.82939 0.225739 0)
(1.83093 0.228284 0)
(1.8297 0.228588 0)
(2 3.95288e-14 0)
(1.91962 0.128467 0)
(1.83352 0.230029 0)
(2 -3.55672e-13 0)
(2 7.76801e-14 0)
(1.88402 0.166213 0)
(1.97761 0.0396828 0)
(1.83152 0.228915 0)
(2.0221 -0.0434881 0)
(1.83152 0.228953 0)
(2 4.64008e-14 0)
(1.83135 0.228983 0)
(1.83157 0.229102 0)
(1.83136 0.228984 0)
(1.83152 0.229088 0)
(2 -3.03902e-14 0)
(1.84325 0.217248 0)
(2.02424 -0.0489913 0)
(2.03533 -0.0853993 0)
(2 9.76488e-14 0)
(2 -3.4372e-07 0)
(2 -1.10498e-13 0)
(2 -6.52518e-14 0)
(1.83141 0.231592 0)
(2 3.81319e-14 0)
(2 7.69425e-14 0)
(2 1.21949e-13 0)
(2 -3.12655e-14 0)
(2 -4.82575e-14 0)
(1.82917 0.228831 0)
(2 -7.40383e-14 0)
(2 -3.1055e-14 0)
(2.00148 -0.00253967 0)
(1.83168 0.22915 0)
(1.84748 0.20854 0)
(2 9.89472e-14 0)
(1.85605 0.209831 0)
(1.99999 2.43994e-05 0)
(2 -1.34367e-13 0)
(2 -4.78909e-14 0)
(1.83171 0.228959 0)
(2 -1.75395e-13 0)
(2.00205 -0.00274557 0)
(1.99844 0.00419248 0)
(2 -2.15499e-14 0)
(1.83182 0.228904 0)
(2 -1.00397e-13 0)
(1.8324 0.228093 0)
(2 -5.13916e-14 0)
(2 6.28784e-14 0)
(1.87615 0.179584 0)
(2 -3.31814e-14 0)
(1.8322 0.228092 0)
(1.99999 1.26433e-05 0)
(2 -2.68803e-13 0)
(1.83204 0.228471 0)
(2 1.11615e-13 0)
(1.83178 0.229066 0)
(2 -6.59362e-14 0)
(2 3.03323e-06 0)
(2 -1.19936e-13 0)
(1.83131 0.229026 0)
(2 -4.50596e-14 0)
(1.83221 0.227001 0)
(2 4.82882e-06 0)
(1.83152 0.228862 0)
(1.83036 0.229118 0)
(1.83191 0.229063 0)
(1.83252 0.229138 0)
(2 -1.22892e-13 0)
(1.83018 0.228313 0)
(1.82971 0.233868 0)
(2 -1.44367e-13 0)
(2.10026 -0.257509 0)
(1.84279 0.216912 0)
(1.87815 0.172748 0)
(2 -1.08823e-13 0)
(1.83155 0.229151 0)
(2 7.07414e-16 0)
(2.13233 -0.264575 0)
(2.13042 -0.261302 0)
(2 8.40099e-14 0)
(2 7.46397e-14 0)
(2 3.30831e-14 0)
(2 5.34164e-15 0)
(2 9.96685e-10 0)
(2.10515 -0.26844 0)
(2 4.23356e-14 0)
(1.8314 0.228856 0)
(1.95756 0.0668424 0)
(1.83158 0.229076 0)
(2 -5.41861e-14 0)
(2 9.1469e-11 0)
(2 -4.33735e-14 0)
(2 -1.8621e-13 0)
(2 -5.01528e-08 0)
(1.83154 0.229221 0)
(2 -3.05978e-13 0)
(1.83073 0.23175 0)
(1.89719 0.148397 0)
(2.0651 -0.155722 0)
(2 1.3015e-09 0)
(1.99999 5.93208e-06 0)
(1.95007 0.0768038 0)
(1.96142 0.0623817 0)
(2 3.85541e-14 0)
(2 -5.91594e-14 0)
(1.93558 0.0907506 0)
(2 -1.22249e-14 0)
(2.10247 -0.26122 0)
(1.83193 0.228625 0)
(1.83194 0.22853 0)
(2 -5.66975e-11 0)
(2 1.1234e-13 0)
(2 1.16392e-13 0)
(1.8302 0.229116 0)
(2 -3.71916e-14 0)
(1.99999 1.53466e-05 0)
(1.82726 0.228293 0)
(1.83186 0.228955 0)
(2.01731 -0.0377525 0)
(2 5.31386e-14 0)
(2 2.0774e-10 0)
(2.11103 -0.265269 0)
(1.84763 0.211934 0)
(2 -8.69274e-14 0)
(2 3.27466e-14 0)
(2 6.24255e-14 0)
(2 -2.85188e-11 0)
(2 1.84265e-13 0)
(1.83171 0.229123 0)
(1.8305 0.228459 0)
(2 1.63266e-13 0)
(1.83164 0.229059 0)
(1.83164 0.227308 0)
(1.83193 0.228998 0)
(2 -1.84674e-14 0)
(2 7.21395e-14 0)
(2 -6.64683e-11 0)
(2 -2.0156e-13 0)
(2.11485 -0.262823 0)
(1.83017 0.228838 0)
(2 -4.77681e-11 0)
(2 -4.87404e-14 0)
(1.84712 0.210744 0)
(1.83225 0.228594 0)
(2 -3.2832e-13 0)
(1.8412 0.217794 0)
(1.82874 0.228353 0)
(2 4.05871e-14 0)
(2 -2.09735e-07 0)
(2 9.43464e-11 0)
(2 -3.6904e-14 0)
(2 -1.85205e-13 0)
(1.83177 0.228697 0)
(2 -1.34133e-13 0)
(2 -8.75722e-14 0)
(2 1.23056e-13 0)
(2 -2.80508e-15 0)
(1.82994 0.231603 0)
(2 -2.80991e-13 0)
(1.84036 0.224757 0)
(2.11554 -0.267271 0)
(2 -1.84628e-13 0)
(2.11943 -0.262722 0)
(2 6.32313e-14 0)
(2 -1.24718e-07 0)
(2 5.47879e-14 0)
(2.00109 -0.00193466 0)
(2.1024 -0.262379 0)
(2.00032 -0.000605545 0)
(2 -8.61691e-14 0)
(2 5.6592e-14 0)
(2 -1.17534e-07 0)
(1.976 0.0365547 0)
(2 -2.45889e-14 0)
(2 4.31809e-14 0)
(2.04399 -0.0843393 0)
(2 -2.08765e-07 0)
(2 -1.10586e-13 0)
(2 -1.81128e-13 0)
(2 -2.07277e-07 0)
(2 4.18277e-07 0)
(2 -1.38011e-07 0)
(2 -3.76131e-13 0)
(2 -1.69405e-06 0)
(2.02434 -0.0424929 0)
(2 -4.96775e-07 0)
(2 -4.34925e-08 0)
(2.00086 -0.00128029 0)
(2 1.85433e-15 0)
(2.11213 -0.264326 0)
(2 -2.82516e-11 0)
(2 -4.51535e-12 0)
(2 -3.45715e-11 0)
(2 8.079e-14 0)
(1.87363 0.180156 0)
(2 4.31667e-14 0)
(2 3.24233e-13 0)
(2 -9.03736e-14 0)
(2 -1.78462e-07 0)
(2.13001 -0.269059 0)
(2 -1.19577e-14 0)
(2 1.48317e-09 0)
(1.84211 0.218177 0)
(1.83041 0.228691 0)
(2 -3.23994e-07 0)
(2 8.61048e-14 0)
(2 -1.07565e-07 0)
(2.03086 -0.0891811 0)
(2 3.01642e-14 0)
(2 4.21409e-10 0)
(2 3.08224e-14 0)
(2 2.43541e-14 0)
(2 -1.21804e-13 0)
(2 2.39375e-14 0)
(2.01674 -0.0295027 0)
(1.99628 0.00873594 0)
(1.83177 0.22895 0)
(2 -1.73113e-13 0)
(2 7.61473e-14 0)
(2 -1.49935e-13 0)
(1.83215 0.227512 0)
(2.03539 -0.0697424 0)
(2 -5.06739e-09 0)
(2 5.22505e-14 0)
(2 -1.9717e-14 0)
(1.8306 0.22865 0)
(1.83059 0.228483 0)
(2 -2.93278e-08 0)
(2 5.29001e-06 0)
(2 2.9498e-09 0)
(2 8.08647e-14 0)
(2 1.33323e-09 0)
(2 2.61452e-14 0)
(2 -1.38984e-12 0)
(2 -1.53562e-14 0)
(2 -1.40624e-13 0)
(2.13072 -0.259904 0)
(2 -7.90747e-14 0)
(2 -1.506e-11 0)
(1.82898 0.22864 0)
(2.11821 -0.26505 0)
(2 -2.54594e-13 0)
(1.82907 0.227906 0)
(2 6.95095e-11 0)
(2.10902 -0.263631 0)
(2 2.24903e-16 0)
(2 -6.90127e-15 0)
(2.13528 -0.264072 0)
(2 -4.32393e-14 0)
(2 -1.13381e-11 0)
(2 -5.04024e-12 0)
(2 4.83267e-14 0)
(2 -3.2324e-12 0)
(2 -9.4559e-14 0)
(2 1.85567e-14 0)
(1.83493 0.224951 0)
(1.83215 0.228574 0)
(2 2.05433e-13 0)
(2 8.97687e-14 0)
(2 1.27744e-13 0)
(2 2.80149e-13 0)
(1.84584 0.212626 0)
(2 6.66134e-14 0)
(1.94581 0.0783418 0)
(2.10171 -0.260021 0)
(2 -3.21545e-08 0)
(2 1.3212e-13 0)
(2 -7.81479e-14 0)
(2 -6.12051e-14 0)
(2 -4.78524e-14 0)
(2 4.61445e-14 0)
(2 -3.8917e-14 0)
(1.98756 0.0156473 0)
(2 -2.54214e-14 0)
(2 -9.2225e-14 0)
(1.90253 0.125473 0)
(2 -5.27937e-14 0)
(2 9.12005e-14 0)
(2 -4.97175e-15 0)
(1.86144 0.196061 0)
(2 -3.14875e-13 0)
(2 1.04608e-13 0)
(2 -1.18291e-13 0)
(2 -1.27377e-13 0)
(2.11526 -0.26651 0)
(2 3.50284e-12 0)
(2 1.32561e-13 0)
(2.12083 -0.270598 0)
(2.11596 -0.265516 0)
(2 -1.4532e-13 0)
(2 -1.1294e-13 0)
(1.831 0.228251 0)
(2 4.66526e-14 0)
(1.9778 -0.0413367 0)
(2 5.91257e-14 0)
(2 2.95768e-14 0)
(2 6.96376e-14 0)
(1.88298 0.166617 0)
(2.12746 -0.271676 0)
(2 -2.36663e-13 0)
(2.12378 -0.279707 0)
(2 -1.17011e-13 0)
(2.06838 -0.151306 0)
(2 2.15413e-14 0)
(2 -4.32573e-14 0)
(2 -6.75101e-14 0)
(1.83051 0.229181 0)
(2 -4.37014e-08 0)
(2 -2.85682e-13 0)
(1.83152 0.228686 0)
(2 -8.5768e-14 0)
(2 -4.15788e-11 0)
(2 1.66244e-09 0)
(1.83151 0.228914 0)
(2 2.54706e-10 0)
(2 1.63138e-13 0)
(1.83182 0.229191 0)
(2 -2.14705e-13 0)
(2 -8.54557e-16 0)
(2.11855 -0.263169 0)
(2 -1.78702e-11 0)
(1.94648 0.0759873 0)
(2 1.94589e-14 0)
(2 9.44911e-14 0)
(1.83039 0.228816 0)
(1.82953 0.229094 0)
(1.88868 0.159926 0)
(1.85009 0.207649 0)
(2 2.44701e-14 0)
(2.11814 -0.263 0)
(2 8.65994e-14 0)
(2 -8.58294e-15 0)
(1.83856 0.220784 0)
(2 2.94145e-14 0)
(2.11115 -0.266998 0)
(2 4.3223e-14 0)
(2 -4.82134e-14 0)
(2 1.38492e-14 0)
(1.83168 0.229339 0)
(2 -9.10978e-15 0)
(2 -8.50715e-14 0)
(2 -1.20184e-15 0)
(2 -6.76185e-14 0)
(1.89725 0.149631 0)
(2 3.27131e-14 0)
(1.84867 0.21471 0)
(1.83053 0.22966 0)
(2.08602 -0.268191 0)
(2 6.2995e-14 0)
(2 -5.17153e-14 0)
(2.12546 -0.260578 0)
(2.12574 -0.263562 0)
(2 9.94745e-15 0)
(2 1.28325e-14 0)
(2 -6.63368e-12 0)
(1.88049 0.169135 0)
(1.87275 0.181177 0)
(2 -9.34078e-14 0)
(2 6.69039e-14 0)
(2 6.20624e-14 0)
(2 -6.85966e-14 0)
(2 -1.35134e-15 0)
(2 -7.3383e-14 0)
(2 -7.46093e-14 0)
(1.92498 0.114019 0)
(1.83323 0.22912 0)
(1.99295 0.00963801 0)
(2 9.20375e-14 0)
(1.82959 0.226368 0)
(2.12196 -0.260536 0)
(2 1.53987e-14 0)
(2 -1.61578e-14 0)
(2 -1.65472e-13 0)
(1.90768 0.136649 0)
(2 -1.27419e-13 0)
(1.96326 0.0583987 0)
(2 7.80217e-14 0)
(1.84715 0.212109 0)
(1.83193 0.228063 0)
(2 1.27525e-13 0)
(2.11878 -0.264961 0)
(2 -9.32444e-14 0)
(1.82786 0.228836 0)
(2 -5.93056e-14 0)
(2 -1.11251e-13 0)
(1.83167 0.229149 0)
(1.84175 0.217678 0)
(2 -1.11498e-13 0)
(1.82544 0.229831 0)
(2 -1.20228e-13 0)
(2.08 -0.270512 0)
(2 -3.61365e-14 0)
(2 -1.36314e-13 0)
(2 -5.11685e-14 0)
(1.82999 0.232993 0)
(1.83493 0.224896 0)
(1.8513 0.206156 0)
(2 8.16142e-14 0)
(1.82986 0.229982 0)
(1.83177 0.228772 0)
(2 -2.40356e-13 0)
(1.83151 0.22981 0)
(2 -9.62585e-09 0)
(1.83197 0.228061 0)
(2 7.42789e-14 0)
(2.11541 -0.265683 0)
(2.00227 -0.0198742 0)
(2.12332 -0.268096 0)
(2 -3.45434e-11 0)
(2 -2.43602e-11 0)
(2 -3.67461e-11 0)
(2 -3.66544e-13 0)
(2 -1.51426e-11 0)
(1.83218 0.229185 0)
(2 6.50105e-14 0)
(1.83202 0.229104 0)
(2 -3.60354e-11 0)
(2 -9.03996e-11 0)
(2 -5.81864e-14 0)
(1.83971 0.219752 0)
(2 -2.48284e-15 0)
(2.10043 -0.258644 0)
(1.83143 0.228587 0)
(2 -6.3426e-14 0)
(2.10029 -0.263096 0)
(2.10055 -0.242552 0)
(2.11203 -0.266798 0)
(2 -8.48274e-15 0)
(1.91772 0.120308 0)
(1.98401 0.0153034 0)
(1.83071 0.229302 0)
(1.83145 0.228509 0)
(2 -1.03778e-13 0)
(2 -3.61998e-07 0)
(2 -7.06065e-08 0)
(2 1.15086e-13 0)
(1.83149 0.228878 0)
(2 1.36791e-13 0)
(2 8.64119e-14 0)
(1.83144 0.228876 0)
(1.83201 0.229024 0)
(2 -1.82933e-13 0)
(1.9415 0.0932546 0)
(1.99999 0.000535317 0)
(2 2.22326e-13 0)
(2.00118 -0.00195155 0)
(1.82893 0.228524 0)
(2.05139 -0.103968 0)
(2 -1.15899e-07 0)
(2.05937 -0.124148 0)
(2.10334 -0.259902 0)
(2.10259 -0.262637 0)
(1.97454 -0.0499338 0)
(1.83097 0.228814 0)
(1.83367 0.226369 0)
(1.9655 0.0560145 0)
(1.83183 0.229065 0)
(1.83165 0.229043 0)
(2 1.30918e-13 0)
(2 1.3696e-13 0)
(1.83015 0.228767 0)
(1.82928 0.229076 0)
(1.83129 0.228552 0)
(1.82838 0.228301 0)
(2 1.60201e-13 0)
(1.83109 0.22885 0)
(2.09476 -0.261463 0)
(1.83162 0.228154 0)
(1.83072 0.229219 0)
(1.82995 0.227381 0)
(1.83256 0.227995 0)
(2.04027 -0.0967114 0)
(2.03913 -0.0689846 0)
(2.02514 -0.0425651 0)
(1.83151 0.228907 0)
(2.01524 -0.0313141 0)
(1.83023 0.228671 0)
(2 2.85706e-13 0)
(2 2.16813e-13 0)
(1.83058 0.229527 0)
(1.83118 0.228823 0)
(2 -2.20617e-13 0)
(2.11841 -0.264716 0)
(1.83079 0.2292 0)
(1.83194 0.229083 0)
(2 -1.74037e-14 0)
(1.83145 0.229429 0)
(1.83162 0.228882 0)
(2 -1.46001e-14 0)
(1.83167 0.229047 0)
(2.11871 -0.269632 0)
(1.83217 0.228041 0)
(1.83218 0.229007 0)
(1.83077 0.228671 0)
(1.83171 0.226772 0)
(2 5.30473e-14 0)
(2 -7.83412e-14 0)
(2 -1.05213e-07 0)
(1.832 0.229011 0)
(1.89051 0.157511 0)
(2.12095 -0.243229 0)
(1.83176 0.22911 0)
(2.12514 -0.272563 0)
(1.83166 0.228922 0)
(2 2.94134e-14 0)
(2 -6.21564e-14 0)
(2 6.40905e-14 0)
(2 -5.40585e-14 0)
(1.83127 0.227767 0)
(1.83183 0.229398 0)
(2 -4.9712e-14 0)
(2 6.88061e-14 0)
(1.83191 0.229271 0)
(2.12747 -0.268286 0)
(1.83147 0.228605 0)
(2.10925 -0.263201 0)
(2 1.85222e-14 0)
(1.83267 0.227695 0)
(2 -4.33186e-16 0)
(2.06227 -0.261582 0)
(1.83058 0.229419 0)
(2.09305 -0.187448 0)
(2 2.31268e-14 0)
(1.83147 0.228542 0)
(1.83011 0.229721 0)
(1.8326 0.22833 0)
(2 -3.76441e-13 0)
(2 -2.09566e-14 0)
(1.92587 0.121425 0)
(1.83056 0.229482 0)
(2.10024 -0.261051 0)
(1.8318 0.228805 0)
(2 -4.73856e-14 0)
(1.83189 0.229695 0)
(2.04789 -0.0900279 0)
(1.83292 0.227377 0)
(2.12806 -0.256837 0)
(2 -7.53788e-14 0)
(1.83028 0.231118 0)
(2.08836 -0.232529 0)
(1.83063 0.229578 0)
(2.10931 -0.26535 0)
(2 -7.03228e-14 0)
(1.8314 0.229209 0)
(2 -1.02288e-13 0)
(1.82939 0.228801 0)
(2 2.1193e-13 0)
(1.89976 0.144983 0)
(1.83825 0.222042 0)
(1.86938 0.185772 0)
(2.13991 -0.272927 0)
(2 -4.17292e-13 0)
(1.83102 0.228732 0)
(2 1.69114e-14 0)
(1.832 0.229294 0)
(2 -1.08998e-07 0)
(1.83144 0.229126 0)
(2 -2.48028e-07 0)
(2 -1.21967e-13 0)
(1.83086 0.229097 0)
(2.00334 -0.00728095 0)
(1.83014 0.229703 0)
(2.05435 -0.267375 0)
(1.85891 0.215529 0)
(2 4.97874e-14 0)
(1.88058 0.169855 0)
(2 -7.12174e-14 0)
(1.83091 0.2295 0)
(1.8316 0.228968 0)
(1.83049 0.229369 0)
(2 7.25914e-14 0)
(1.84873 0.209929 0)
(1.83077 0.228722 0)
(1.84388 0.215042 0)
(1.89544 0.153329 0)
(1.83035 0.231978 0)
(2 2.84665e-14 0)
(1.88861 0.161717 0)
(2 -3.58438e-14 0)
(1.83092 0.229139 0)
(2 -1.23807e-13 0)
(1.9747 0.0346872 0)
(2 1.17373e-13 0)
(1.84331 0.215467 0)
(2 9.43732e-15 0)
(1.83181 0.229562 0)
(1.83984 0.219938 0)
(1.83936 0.219689 0)
(2 4.51805e-14 0)
(1.83334 0.225513 0)
(2.12969 -0.264483 0)
(2 1.20267e-13 0)
(2.11678 -0.266178 0)
(2 -2.14582e-13 0)
(2 -1.92808e-13 0)
(2 5.68272e-15 0)
(1.82551 0.228081 0)
(2 -6.26931e-14 0)
(1.83156 0.229153 0)
(2 1.30596e-14 0)
(2 9.37594e-14 0)
(2 -4.63694e-14 0)
(1.83154 0.229798 0)
(1.82692 0.231924 0)
(1.85626 0.189585 0)
(1.83158 0.228832 0)
(1.83201 0.227767 0)
(2.1208 -0.264804 0)
(1.83247 0.232827 0)
(1.83002 0.228926 0)
(2 -7.56297e-15 0)
(1.84835 0.204891 0)
(1.83151 0.228683 0)
(1.83333 0.219531 0)
(2 -3.47315e-13 0)
(1.83063 0.228684 0)
(1.82756 0.22866 0)
(2 -3.69805e-14 0)
(1.82835 0.231072 0)
(1.8313 0.229147 0)
(1.83048 0.228094 0)
(1.83087 0.229436 0)
(2 -1.84672e-13 0)
(2 5.26168e-14 0)
(2 1.20974e-13 0)
(1.83096 0.229596 0)
(2.11763 -0.264247 0)
(2 -6.0274e-14 0)
(1.83127 0.229121 0)
(2 2.63451e-14 0)
(2 1.98811e-13 0)
(2.13162 -0.261332 0)
(2 1.15236e-14 0)
(2 1.77512e-13 0)
(1.83179 0.228894 0)
(1.83193 0.229572 0)
(2 -2.09294e-14 0)
(1.8317 0.228903 0)
(1.82351 0.230592 0)
(1.83122 0.228711 0)
(2.00486 -0.0216615 0)
(1.83144 0.22888 0)
(2 -1.45557e-13 0)
(1.83152 0.228838 0)
(1.83191 0.228541 0)
(1.87325 0.180467 0)
(2 -8.14188e-14 0)
(2 1.18264e-13 0)
(2 -8.28487e-14 0)
(1.83142 0.228304 0)
(1.83107 0.229031 0)
(1.83194 0.228742 0)
(2.01245 -0.0406912 0)
(2 -8.48542e-14 0)
(1.82883 0.231663 0)
(1.83165 0.228801 0)
(1.83175 0.228594 0)
(2 1.25335e-13 0)
(1.83184 0.228825 0)
(1.83094 0.229116 0)
(1.83106 0.229083 0)
(1.82789 0.232088 0)
(2 3.5693e-14 0)
(1.83184 0.229122 0)
(1.83155 0.229358 0)
(1.85301 0.20208 0)
(1.83019 0.230562 0)
(1.82815 0.231112 0)
(2 -4.14636e-15 0)
(1.83116 0.228759 0)
(1.83413 0.227019 0)
(1.83229 0.228581 0)
(1.8309 0.2283 0)
(1.83034 0.229957 0)
(2.13489 -0.258789 0)
(1.83179 0.229136 0)
(1.83049 0.230453 0)
(2 -4.56043e-14 0)
(1.83213 0.229028 0)
(1.83196 0.228946 0)
(1.8323 0.228824 0)
(1.83066 0.22861 0)
(2 -5.31868e-08 0)
(1.83223 0.228978 0)
(1.83067 0.228463 0)
(2 -1.56517e-07 0)
(1.83205 0.229171 0)
(1.8598 0.196483 0)
(2 2.70238e-13 0)
(2 2.95075e-14 0)
(2 1.6259e-09 0)
(1.83185 0.229329 0)
(1.83004 0.232108 0)
(2 3.51321e-14 0)
(2 -5.57318e-15 0)
(1.90921 0.13286 0)
(2 -1.31738e-13 0)
(1.83036 0.228524 0)
(2 3.33503e-14 0)
(2 6.84115e-14 0)
(1.83171 0.229201 0)
(1.82846 0.228735 0)
(1.8318 0.229096 0)
(1.83173 0.22885 0)
(2 -4.94026e-14 0)
(2 6.80738e-14 0)
(2 8.16922e-15 0)
(1.88714 0.166324 0)
(2 1.32125e-13 0)
(1.83229 0.228318 0)
(2 1.67099e-13 0)
(2 9.53666e-14 0)
(1.82925 0.228731 0)
(1.83206 0.229356 0)
(2 1.05253e-15 0)
(1.83139 0.229062 0)
(2.11982 -0.280228 0)
(1.83178 0.229015 0)
(1.83235 0.228329 0)
(2.1098 -0.195445 0)
(2 8.22064e-14 0)
(2.13788 -0.272375 0)
(1.85217 0.204114 0)
(1.83262 0.227245 0)
(1.833 0.227203 0)
(1.83238 0.227238 0)
(2.12311 -0.263815 0)
(1.83069 0.228706 0)
(1.8317 0.23005 0)
(2.12913 -0.260545 0)
(2.12675 -0.268912 0)
(2 -2.72495e-07 0)
(1.83059 0.229807 0)
(1.83155 0.228953 0)
(2 8.13559e-14 0)
(2 -7.74442e-14 0)
(1.83157 0.228688 0)
(2 7.68326e-14 0)
(1.82818 0.23031 0)
(2 2.52841e-06 0)
(1.85319 0.205538 0)
(2 -7.45923e-14 0)
(1.91889 0.118469 0)
(1.83195 0.228096 0)
(1.83003 0.229689 0)
(1.8831 0.17226 0)
(1.83999 0.215012 0)
(1.82598 0.228413 0)
(1.83095 0.229602 0)
(1.83845 0.215937 0)
(2 3.90135e-14 0)
(2.12234 -0.257665 0)
(1.8303 0.230359 0)
(1.83109 0.229795 0)
(1.82973 0.231133 0)
(2 6.38723e-06 0)
(2 2.62739e-10 0)
(2 1.4793e-09 0)
(1.82909 0.230426 0)
(2 -4.87658e-14 0)
(1.83166 0.22915 0)
(1.83169 0.228796 0)
(2.07958 -0.180201 0)
(2 3.63899e-14 0)
(1.83053 0.228307 0)
(2.00002 -4.11966e-05 0)
(2 -9.68757e-15 0)
(1.99999 1.78541e-05 0)
(1.99998 2.70993e-05 0)
(1.83099 0.229652 0)
(1.83123 0.228754 0)
(2.00055 -0.000925816 0)
(2 -2.12248e-14 0)
(2 -9.59712e-14 0)
(1.83164 0.229332 0)
(1.83059 0.229548 0)
(1.83194 0.228681 0)
(1.83158 0.229209 0)
(1.8315 0.229866 0)
(2.12737 -0.247735 0)
(1.86192 0.198846 0)
(2 9.32168e-14 0)
(1.83248 0.227555 0)
(1.83191 0.229113 0)
(1.83269 0.228042 0)
(1.8372 0.224142 0)
(2 -6.44694e-14 0)
(1.83185 0.228902 0)
(1.83619 0.223673 0)
(1.8308 0.229354 0)
(2 -1.34128e-13 0)
(1.83067 0.228357 0)
(1.83121 0.229011 0)
(2.04244 -0.0934161 0)
(1.83207 0.228747 0)
(1.83107 0.228381 0)
(2 -6.24115e-14 0)
(1.83216 0.229111 0)
(2.04533 -0.121135 0)
(1.83111 0.228616 0)
(2.0531 -0.0909834 0)
(1.83161 0.229004 0)
(2 -1.10056e-07 0)
(1.83147 0.229096 0)
(1.82573 0.232366 0)
(1.83165 0.228913 0)
(1.83142 0.229101 0)
(1.83145 0.228734 0)
(1.83065 0.228458 0)
(1.83118 0.229208 0)
(1.83023 0.227395 0)
(2 -1.63237e-13 0)
(2.02551 -0.05351 0)
(1.83116 0.228572 0)
(1.8317 0.229121 0)
(2.04696 -0.113453 0)
(1.83146 0.228686 0)
(2.00718 -0.0105833 0)
(1.8886 0.151556 0)
(1.83101 0.228906 0)
(1.83084 0.228448 0)
(1.83115 0.227224 0)
(2 1.07509e-14 0)
(1.83029 0.229563 0)
(1.89055 0.167356 0)
(1.83202 0.227943 0)
(2.02158 -0.0483693 0)
(1.83022 0.229533 0)
(1.82487 0.2302 0)
(2 2.90279e-14 0)
(2.04156 -0.0874088 0)
(2 -2.97923e-09 0)
(1.83307 0.22435 0)
(2 3.07483e-14 0)
(1.88423 0.166374 0)
(2 4.51796e-09 0)
(1.83351 0.22686 0)
(2.0452 -0.0824914 0)
(2 1.00895e-14 0)
(1.8284 0.230624 0)
(1.83754 0.22521 0)
(2 -8.8186e-14 0)
(1.82977 0.229086 0)
(1.83081 0.229617 0)
(1.83201 0.228329 0)
(1.83713 0.228433 0)
(1.83137 0.228736 0)
(2 -2.81815e-14 0)
(1.83072 0.228859 0)
(2 -9.49206e-14 0)
(2 1.76849e-14 0)
(2 -2.43077e-14 0)
(2.03783 -0.0669064 0)
(1.83155 0.229189 0)
(1.8307 0.229992 0)
(1.8287 0.232278 0)
(1.83148 0.228889 0)
(1.83019 0.229834 0)
(1.82874 0.231047 0)
(1.82747 0.231866 0)
(1.83162 0.229297 0)
(2.03606 -0.0642234 0)
(1.98634 0.0212931 0)
(2 3.29937e-09 0)
(2 9.87681e-15 0)
(1.82396 0.231787 0)
(1.83146 0.228961 0)
(1.83138 0.22896 0)
(1.8317 0.228692 0)
(1.99999 1.59177e-05 0)
(1.91761 0.127838 0)
(2 -1.71443e-07 0)
(1.82911 0.231421 0)
(1.85071 0.218013 0)
(2 -3.61726e-12 0)
(2 -5.63867e-11 0)
(2.08749 -0.18216 0)
(1.83222 0.228594 0)
(2 2.64781e-13 0)
(2 -7.68409e-14 0)
(2.09151 -0.260303 0)
(1.83143 0.228764 0)
(2 1.54855e-13 0)
(1.83285 0.22915 0)
(1.83131 0.228476 0)
(1.82593 0.228181 0)
(1.83813 0.221389 0)
(1.83217 0.22851 0)
(2 -9.73354e-11 0)
(2.13667 -0.264713 0)
(1.96113 0.0628579 0)
(1.83069 0.228727 0)
(1.83155 0.228944 0)
(2 -4.53958e-14 0)
(1.8321 0.229694 0)
(1.83136 0.229057 0)
(1.9176 0.123981 0)
(1.99853 0.00673797 0)
(1.96329 0.0578103 0)
(2 2.14316e-14 0)
(1.82951 0.228403 0)
(1.83198 0.228884 0)
(2 -1.23497e-07 0)
(2 -1.91109e-10 0)
(2.12865 -0.25961 0)
(2 -2.21486e-10 0)
(2 4.68969e-14 0)
(1.8315 0.22884 0)
(1.8313 0.229149 0)
(1.83167 0.228492 0)
(1.83099 0.229196 0)
(1.83123 0.229125 0)
(1.8278 0.22874 0)
(1.83163 0.229217 0)
(1.83171 0.229156 0)
(1.83148 0.228954 0)
(2 1.0363e-13 0)
(2.00142 -0.00278014 0)
(1.8314 0.228668 0)
(1.83107 0.229483 0)
(2.00127 -0.00166555 0)
(1.83109 0.22929 0)
(1.8318 0.228745 0)
(2.13265 -0.260026 0)
(2.0895 -0.273603 0)
(1.83248 0.22831 0)
(1.83159 0.227851 0)
(2 -1.58642e-13 0)
(2 4.10721e-13 0)
(1.99911 0.00235531 0)
(1.83059 0.228389 0)
(1.83094 0.228138 0)
(1.83147 0.228822 0)
(2 9.1479e-10 0)
(1.8313 0.229167 0)
(2 5.47367e-14 0)
(2.05595 -0.0909005 0)
(1.82928 0.231757 0)
(1.83402 0.228619 0)
(2 -3.50109e-14 0)
(1.9255 0.109781 0)
(1.83123 0.228909 0)
(2 -1.25893e-13 0)
(1.82948 0.228102 0)
(2 -1.0132e-10 0)
(1.83119 0.229049 0)
(1.89005 0.166842 0)
(1.83141 0.229404 0)
(2 1.19368e-11 0)
(1.83164 0.228405 0)
(1.83185 0.229878 0)
(2.13081 -0.258584 0)
(1.83252 0.228696 0)
(2 -1.35623e-07 0)
(1.83115 0.227676 0)
(1.83317 0.228811 0)
(2 7.04495e-09 0)
(2.13127 -0.258376 0)
(1.8316 0.229686 0)
(1.85748 0.195728 0)
(2.00065 -0.00127529 0)
(1.83173 0.227044 0)
(1.83208 0.228835 0)
(2 -5.74926e-12 0)
(2.00099 -0.00271798 0)
(1.83056 0.229876 0)
(2.00181 -0.00251937 0)
(1.83233 0.228891 0)
(2 -3.84457e-12 0)
(2 -7.75389e-14 0)
(1.83156 0.228654 0)
(2 7.59719e-14 0)
(1.8303 0.228085 0)
(1.83101 0.229114 0)
(2.00129 -0.00224473 0)
(1.87556 0.176017 0)
(2 3.03717e-09 0)
(1.83138 0.229067 0)
(2 1.19893e-09 0)
(2 -8.72235e-13 0)
(2 9.9215e-12 0)
(2 5.66552e-12 0)
(1.83151 0.228828 0)
(2 6.81851e-09 0)
(2 3.2791e-13 0)
(1.83669 0.222889 0)
(2 3.45996e-14 0)
(1.8326 0.228973 0)
(2 2.94382e-10 0)
(1.88994 0.158612 0)
(1.82916 0.231924 0)
(1.83098 0.230267 0)
(2 6.07339e-10 0)
(2 -2.50257e-13 0)