/*--------------------------------*- C++ -*----------------------------------*\
  =========                 |
  \\      /  F ield         | OpenFOAM: The Open Source CFD Toolbox
   \\    /   O peration     | Website:  https://openfoam.org
    \\  /    A nd           | Version:  12
     \\/     M anipulation  |
\*---------------------------------------------------------------------------*/
FoamFile
{
    format      ascii;
    class       volVectorField;
    location    "7.08";
    object      U;
}
// * * * * * * * * * * * * * * * * * * * * * * * * * * * * * * * * * * * * * //

dimensions      [0 1 -1 0 0 0 0];

internalField   nonuniform List<vector> 
22702
(
(2 -2.05359e-13 0)
(2 -5.57401e-14 0)
(2.05217 -0.0852692 0)
(2 -1.13641e-09 0)
(1.97648 0.0306995 0)
(2 1.85902e-14 0)
(1.82778 0.228105 0)
(2 3.71089e-15 0)
(2 -1.52422e-13 0)
(2.10771 -0.268977 0)
(1.82939 0.228196 0)
(1.82716 0.228226 0)
(2 -2.12588e-13 0)
(1.83145 0.228974 0)
(2.04233 -0.0737404 0)
(2 -1.40601e-13 0)
(2 8.15435e-15 0)
(2 -2.12739e-14 0)
(1.82923 0.22857 0)
(2 -5.46352e-14 0)
(1.83143 0.229453 0)
(2 -6.53154e-14 0)
(1.8313 0.229226 0)
(2.1142 -0.2646 0)
(1.83182 0.229614 0)
(2.11662 -0.266289 0)
(2 -6.89764e-15 0)
(1.82981 0.228706 0)
(2.10317 -0.263825 0)
(2.11246 -0.266149 0)
(2 1.65374e-14 0)
(1.82813 0.228827 0)
(2 -8.01655e-15 0)
(2 -4.55566e-14 0)
(2 -1.24774e-13 0)
(1.84489 0.214557 0)
(1.83103 0.230765 0)
(1.83112 0.229013 0)
(2 3.94343e-14 0)
(2 4.02659e-14 0)
(2.1094 -0.267192 0)
(2 1.48629e-14 0)
(1.91699 0.126036 0)
(2 -5.69134e-14 0)
(1.83031 0.229409 0)
(2 -1.82328e-13 0)
(2 -1.14982e-13 0)
(2 -5.57668e-14 0)
(2 -1.74197e-13 0)
(2.12118 -0.267555 0)
(2 -1.18745e-14 0)
(2.11236 -0.263717 0)
(2 -8.54566e-15 0)
(1.82995 0.228006 0)
(2 -7.50312e-14 0)
(1.83061 0.229468 0)
(2 -6.36294e-14 0)
(2 1.54704e-09 0)
(2 6.6545e-14 0)
(2 -1.44869e-13 0)
(2.11884 -0.266349 0)
(2 -1.00629e-13 0)
(2 7.06093e-14 0)
(2.1148 -0.26197 0)
(2 -9.04266e-15 0)
(2.10956 -0.25888 0)
(2 -1.41328e-13 0)
(2 -1.70971e-13 0)
(2 -1.77214e-14 0)
(2.11604 -0.264949 0)
(2 -4.34281e-14 0)
(1.83059 0.228739 0)
(1.8959 0.152647 0)
(2 1.49507e-09 0)
(1.83041 0.22882 0)
(1.8205 0.236218 0)
(2.11282 -0.263776 0)
(1.82737 0.227966 0)
(2.11673 -0.2603 0)
(2 3.25606e-14 0)
(1.82938 0.228746 0)
(2.10875 -0.262315 0)
(1.83183 0.229473 0)
(1.83182 0.229729 0)
(2 6.98694e-14 0)
(2 1.0935e-06 0)
(2 -2.00118e-15 0)
(2 1.37107e-13 0)
(2.02795 -0.0435693 0)
(2.11315 -0.265016 0)
(1.83061 0.228575 0)
(2 -1.17238e-13 0)
(2 -5.54231e-11 0)
(2.10848 -0.264923 0)
(2 -4.5621e-14 0)
(1.83177 0.229196 0)
(2.10812 -0.264042 0)
(2 2.32846e-08 0)
(2 -1.30653e-13 0)
(2 -1.70597e-13 0)
(2 -2.13106e-13 0)
(1.9149 0.127794 0)
(1.82934 0.228915 0)
(2.11682 -0.264932 0)
(2 8.04666e-10 0)
(2 -1.03182e-09 0)
(1.95874 0.057646 0)
(2 9.04122e-09 0)
(2.11323 -0.261865 0)
(2 -1.23236e-13 0)
(1.82705 0.228233 0)
(1.82955 0.229074 0)
(2 4.2496e-09 0)
(2 -2.05564e-14 0)
(2.11638 -0.279217 0)
(2.10783 -0.279265 0)
(2.11163 -0.267691 0)
(2 8.55895e-14 0)
(2 -1.55067e-07 0)
(2 1.37009e-15 0)
(2 -7.68481e-14 0)
(2 1.04327e-07 0)
(2.03629 -0.0590922 0)
(2 -1.09677e-07 0)
(1.85595 0.200754 0)
(1.97892 0.0186976 0)
(1.82811 0.22839 0)
(2 -8.1397e-14 0)
(1.82795 0.22857 0)
(1.82942 0.228946 0)
(1.83125 0.229102 0)
(1.83008 0.228799 0)
(2 8.6185e-16 0)
(2.11968 -0.263848 0)
(2 -6.36521e-15 0)
(2.11996 -0.2632 0)
(2 -4.10421e-14 0)
(2 -3.96548e-14 0)
(2 4.19152e-14 0)
(2 4.2177e-14 0)
(1.82981 0.229044 0)
(2 3.0581e-09 0)
(2 -6.99647e-14 0)
(2 -1.27387e-13 0)
(2 4.48547e-14 0)
(1.83189 0.229281 0)
(2 5.87768e-14 0)
(1.99469 0.0134357 0)
(2 4.81136e-14 0)
(2 -2.36539e-13 0)
(2 -6.50449e-11 0)
(2 1.20114e-15 0)
(2.1299 -0.268643 0)
(2 -4.16867e-14 0)
(1.99528 0.00833578 0)
(2 -1.07688e-14 0)
(2.10692 -0.262483 0)
(2 -6.78542e-14 0)
(2 1.87963e-14 0)
(2 -3.53399e-14 0)
(1.83014 0.228952 0)
(2 2.10514e-14 0)
(1.83125 0.228948 0)
(2.11506 -0.279743 0)
(2.116 -0.266915 0)
(1.82901 0.228297 0)
(1.83003 0.228641 0)
(2 1.51252e-14 0)
(1.96607 0.0480708 0)
(1.90365 0.141123 0)
(2 -8.09143e-14 0)
(1.83286 0.228996 0)
(2.11865 -0.263109 0)
(1.84411 0.214839 0)
(2 -4.03544e-14 0)
(2 7.24434e-14 0)
(2 -3.67379e-14 0)
(2 -9.3751e-14 0)
(1.83149 0.228753 0)
(1.86276 0.188369 0)
(2 -3.61398e-14 0)
(1.83022 0.228619 0)
(2.12261 -0.262681 0)
(1.83246 0.229148 0)
(2 -6.89144e-14 0)
(2.10526 -0.261985 0)
(2 -1.71221e-13 0)
(2.11331 -0.267203 0)
(2.11485 -0.265559 0)
(2.00009 -0.000147004 0)
(2 1.76826e-14 0)
(2 -9.9458e-14 0)
(1.82986 0.229724 0)
(2 1.28251e-14 0)
(2 -1.93474e-13 0)
(1.83229 0.229268 0)
(2 -2.26814e-13 0)
(1.83097 0.229418 0)
(1.82966 0.229003 0)
(2.10494 -0.279843 0)
(2 -5.30158e-15 0)
(2 -4.22499e-13 0)
(2.10151 -0.264953 0)
(1.83204 0.22921 0)
(2 -1.85804e-13 0)
(2 -1.21221e-13 0)
(2 -4.02842e-14 0)
(1.8319 0.229137 0)
(2 -2.59475e-13 0)
(2.1113 -0.261349 0)
(2 -6.1563e-11 0)
(2 -1.50309e-13 0)
(1.83153 0.228974 0)
(1.83121 0.229036 0)
(1.82907 0.228782 0)
(2 4.69382e-14 0)
(1.99999 2.47813e-05 0)
(2 -3.26826e-14 0)
(2 -7.97262e-15 0)
(2 -3.08377e-13 0)
(1.83164 0.22887 0)
(2 -5.39746e-14 0)
(2.11657 -0.262106 0)
(1.82187 0.233845 0)
(1.8323 0.22928 0)
(1.8317 0.22952 0)
(2 1.99857e-07 0)
(2 1.28808e-14 0)
(2 2.78489e-14 0)
(2.11504 -0.271677 0)
(1.83188 0.229187 0)
(1.92757 0.126778 0)
(2 3.61436e-15 0)
(1.83085 0.229461 0)
(2.10851 -0.261279 0)
(2.10855 -0.261524 0)
(1.83089 0.229495 0)
(1.83135 0.229402 0)
(2 2.1975e-14 0)
(1.8298 0.2324 0)
(2.1356 -0.267672 0)
(1.85053 0.207226 0)
(2 -6.507e-14 0)
(2 -2.86985e-13 0)
(2 3.20875e-14 0)
(2 -1.20188e-13 0)
(1.83205 0.228824 0)
(2 -1.12561e-13 0)
(1.9066 0.13598 0)
(1.98217 0.0304099 0)
(2 -1.46764e-13 0)
(2 -1.84212e-14 0)
(1.83222 0.229214 0)
(2.11944 -0.263868 0)
(2.06493 -0.162349 0)
(2 1.82566e-14 0)
(1.83103 0.230579 0)
(2.11744 -0.264909 0)
(1.83036 0.229163 0)
(2 -1.32901e-13 0)
(2 6.77536e-15 0)
(2 -8.65117e-14 0)
(2 4.97731e-15 0)
(2 2.41002e-14 0)
(2 -1.98391e-14 0)
(2 5.77751e-14 0)
(2.1167 -0.263952 0)
(2.08755 -0.164161 0)
(2.11025 -0.261478 0)
(1.83143 0.228902 0)
(2 -1.00517e-13 0)
(2 4.10164e-13 0)
(2 -1.89904e-07 0)
(2 -9.62056e-14 0)
(1.84951 0.214592 0)
(2 -2.15992e-07 0)
(2.11613 -0.259804 0)
(2 -8.28939e-14 0)
(2.10952 -0.281429 0)
(2.10356 -0.266299 0)
(1.83184 0.229125 0)
(2.11486 -0.260375 0)
(1.83148 0.229482 0)
(2 -2.37881e-14 0)
(2 -1.4234e-13 0)
(2 -2.01182e-13 0)
(2.00088 -0.00165819 0)
(2.1048 -0.262779 0)
(2.12843 -0.270722 0)
(2 -3.25291e-07 0)
(2 -1.47581e-07 0)
(2.11449 -0.283124 0)
(2 2.37532e-09 0)
(1.82944 0.228964 0)
(2.11594 -0.266015 0)
(2 -2.78548e-14 0)
(2 -3.54937e-11 0)
(1.8295 0.228811 0)
(2.11277 -0.275291 0)
(2 -1.87392e-13 0)
(1.83635 0.226466 0)
(2.11443 -0.266258 0)
(1.83191 0.228965 0)
(2 -1.26449e-13 0)
(2.10743 -0.285145 0)
(2.00088 -0.00149029 0)
(2 1.57901e-13 0)
(2 2.94506e-06 0)
(2 -5.91465e-14 0)
(2.10977 -0.260467 0)
(2 -8.30463e-14 0)
(2 -1.82177e-07 0)
(2 -1.0565e-06 0)
(1.99999 1.2445e-05 0)
(1.99692 0.00550871 0)
(1.89545 0.151609 0)
(2 -2.34979e-11 0)
(2.11131 -0.249222 0)
(2 -1.59005e-11 0)
(2 1.71913e-06 0)
(2 1.46619e-13 0)
(2 -1.14627e-13 0)
(2 -2.27952e-14 0)
(2 -1.28564e-15 0)
(2 -1.01499e-12 0)
(1.82963 0.228882 0)
(2 4.32633e-13 0)
(1.82966 0.229274 0)
(2 2.76892e-14 0)
(2 -1.23035e-13 0)
(2 3.08706e-14 0)
(2.11901 -0.262404 0)
(2 6.40773e-14 0)
(1.83184 0.229378 0)
(2.10248 -0.264716 0)
(2 1.69034e-14 0)
(1.86659 0.189765 0)
(2 -8.65947e-14 0)
(2 -1.66374e-13 0)
(1.83016 0.228379 0)
(2 -1.85205e-15 0)
(2 -1.14633e-08 0)
(2 -1.38068e-14 0)
(1.83189 0.227337 0)
(2 5.46804e-10 0)
(2 -3.4638e-14 0)
(1.83518 0.224757 0)
(1.83052 0.228135 0)
(2 -5.22301e-14 0)
(1.96376 0.0594828 0)
(2 -1.34726e-13 0)
(2 2.26421e-14 0)
(2.11785 -0.264389 0)
(2 -6.78137e-14 0)
(2 -4.82548e-14 0)
(2 6.27553e-14 0)
(2.11036 -0.266505 0)
(2 2.33742e-14 0)
(2 -9.07182e-15 0)
(2 6.29819e-14 0)
(2 -5.01192e-15 0)
(2.10399 -0.258789 0)
(2 -9.13534e-14 0)
(2 -5.12448e-14 0)
(2 5.04059e-14 0)
(2 -1.43685e-13 0)
(2 -4.66221e-14 0)
(2.11538 -0.266322 0)
(1.99998 4.20274e-05 0)
(1.83085 0.228687 0)
(2 -7.16127e-15 0)
(1.99998 -6.66749e-06 0)
(1.83007 0.22855 0)
(1.82875 0.228394 0)
(2 -1.97442e-14 0)
(2 7.95003e-15 0)
(2.08378 -0.27277 0)
(2.0566 -0.127015 0)
(1.83024 0.22912 0)
(2 5.74123e-14 0)
(2 -1.20703e-13 0)
(2 -6.92062e-14 0)
(1.83171 0.228678 0)
(2.11457 -0.264392 0)
(2 9.35251e-14 0)
(1.83116 0.228748 0)
(2 -1.44785e-13 0)
(2 -1.81754e-13 0)
(2.08235 -0.221442 0)
(2.09835 -0.222606 0)
(2 -1.78278e-13 0)
(2.10674 -0.2613 0)
(2.11546 -0.264827 0)
(2 1.05864e-13 0)
(2 -6.78392e-15 0)
(2 3.09646e-14 0)
(2 -1.29581e-13 0)
(2 -9.44309e-11 0)
(2 -5.40192e-14 0)
(2 -4.37537e-14 0)
(1.82868 0.228366 0)
(1.95711 0.0609636 0)
(1.84652 0.208703 0)
(2.11556 -0.265223 0)
(2.0345 -0.053075 0)
(1.83014 0.228814 0)
(2 1.12616e-14 0)
(1.83017 0.229057 0)
(1.83042 0.2292 0)
(2.1168 -0.263283 0)
(2.06087 -0.155543 0)
(2 4.66287e-13 0)
(2.11789 -0.264756 0)
(2 1.76733e-13 0)
(1.82045 0.234428 0)
(2 -2.63617e-13 0)
(2 9.05017e-14 0)
(2 -6.73585e-14 0)
(2 7.29346e-15 0)
(1.83222 0.229144 0)
(2 -1.34019e-13 0)
(2 -6.78651e-14 0)
(2 -7.17074e-15 0)
(2 1.51848e-09 0)
(2 -8.07221e-14 0)
(2 -1.3734e-13 0)
(2 -1.62274e-13 0)
(1.93678 0.0924245 0)
(1.83046 0.228821 0)
(2 1.1126e-13 0)
(1.83132 0.228922 0)
(2 1.51114e-13 0)
(2 2.24896e-14 0)
(2.10408 -0.262236 0)
(2 -6.00841e-14 0)
(2 -5.14923e-14 0)
(2 -2.70145e-13 0)
(2 -6.12028e-14 0)
(1.8318 0.229144 0)
(1.87149 0.181722 0)
(2 -2.07672e-13 0)
(2 -2.29229e-13 0)
(2.10874 -0.259695 0)
(1.83194 0.229343 0)
(1.83155 0.229035 0)
(2 2.11276e-13 0)
(1.83158 0.229024 0)
(1.83206 0.229404 0)
(1.83123 0.229009 0)
(2 6.70956e-14 0)
(2.05416 -0.110034 0)
(2 -1.51659e-13 0)
(1.83177 0.228629 0)
(1.99751 -0.013085 0)
(1.83126 0.229027 0)
(2 -1.03409e-13 0)
(2.11915 -0.265407 0)
(2.00041 -0.000630169 0)
(1.82904 0.228598 0)
(2 -4.38462e-14 0)
(2 -2.78417e-13 0)
(2 -4.97367e-11 0)
(2 -2.0569e-11 0)
(2.11643 -0.259737 0)
(1.83186 0.22922 0)
(1.84749 0.21208 0)
(2 5.2357e-14 0)
(1.83231 0.227943 0)
(1.83163 0.228629 0)
(1.8294 0.22903 0)
(2 -2.31e-14 0)
(1.91714 0.127297 0)
(1.83118 0.229426 0)
(2 1.36556e-13 0)
(2 -6.59839e-14 0)
(1.88429 0.166135 0)
(1.97741 0.040597 0)
(1.83143 0.228937 0)
(2.02694 -0.0418766 0)
(1.83138 0.228997 0)
(2 3.84583e-14 0)
(1.83126 0.229068 0)
(1.83142 0.228986 0)
(1.83125 0.229048 0)
(1.83152 0.229135 0)
(2 1.27458e-13 0)
(1.83226 0.226181 0)
(2.03511 -0.0550195 0)
(2.04154 -0.0809474 0)
(2 -7.79637e-14 0)
(2 -3.74049e-07 0)
(2 1.2927e-13 0)
(2 -1.1292e-13 0)
(1.83014 0.22866 0)
(2 1.53016e-13 0)
(2 4.15686e-14 0)
(2 -5.69167e-14 0)
(2 1.04278e-13 0)
(2 4.67778e-15 0)
(1.8299 0.228718 0)
(2 3.02795e-14 0)
(2 1.30158e-13 0)
(2.00143 -0.00245312 0)
(1.83161 0.2291 0)
(1.84612 0.229004 0)
(2 -2.97424e-13 0)
(1.86134 0.194645 0)
(1.99998 2.73512e-05 0)
(2 4.17478e-14 0)
(2 -1.16786e-13 0)
(1.83104 0.228674 0)
(2 -3.01165e-14 0)
(2.00245 -0.00299394 0)
(1.99823 0.0044095 0)
(2 2.37731e-14 0)
(1.83145 0.228988 0)
(2 -1.95283e-14 0)
(1.83229 0.228646 0)
(2 6.79794e-14 0)
(2 4.5036e-14 0)
(1.87377 0.180599 0)
(2 1.47259e-13 0)
(1.83222 0.228391 0)
(1.99999 1.26652e-05 0)
(2 -1.96289e-13 0)
(1.83222 0.228591 0)
(2 1.44766e-13 0)
(1.83176 0.229184 0)
(2 -4.98749e-14 0)
(2 3.18354e-06 0)
(2 -1.67236e-14 0)
(1.83225 0.229013 0)
(2 -4.31934e-14 0)
(1.83193 0.227868 0)
(2 4.5492e-06 0)
(1.83211 0.228923 0)
(1.83024 0.229024 0)
(1.83183 0.229102 0)
(1.83068 0.228877 0)
(2 8.71341e-14 0)
(1.83089 0.227706 0)
(1.82944 0.234999 0)
(2 1.15778e-13 0)
(2.10618 -0.264976 0)
(1.84182 0.217303 0)
(1.87805 0.172508 0)
(2 -2.01559e-13 0)
(1.83237 0.229155 0)
(2 8.47348e-14 0)
(2.11679 -0.262356 0)
(2.11574 -0.264864 0)
(2 -4.20095e-14 0)
(2 -2.41168e-14 0)
(2 1.02871e-13 0)
(2 -1.46141e-13 0)
(2 2.0847e-09 0)
(2.10795 -0.263601 0)
(2 2.69391e-14 0)
(1.83135 0.228933 0)
(1.95501 0.0749338 0)
(1.83116 0.228973 0)
(2 -7.16854e-14 0)
(2 8.10294e-11 0)
(2 1.82109e-14 0)
(2 1.19342e-14 0)
(2 -5.27827e-08 0)
(1.83142 0.22899 0)
(2 -2.57196e-13 0)
(1.82911 0.230506 0)
(1.90004 0.14637 0)
(2.06706 -0.155907 0)
(2 1.29108e-09 0)
(1.99999 7.30272e-06 0)
(1.94568 0.0803597 0)
(1.96067 0.0658014 0)
(2 -7.21953e-14 0)
(2 -1.00087e-13 0)
(1.93726 0.0932145 0)
(2 1.03659e-13 0)
(2.10081 -0.261153 0)
(1.83175 0.228941 0)
(1.83167 0.228837 0)
(2 -7.18783e-11 0)
(2 5.60167e-14 0)
(2 -1.90455e-13 0)
(1.83111 0.22911 0)
(2 1.86635e-14 0)
(1.99999 1.52343e-05 0)
(1.83054 0.23038 0)
(1.83189 0.229175 0)
(2.00874 -0.0324742 0)
(2 -1.095e-13 0)
(2 1.48284e-10 0)
(2.10029 -0.259151 0)
(1.84698 0.21082 0)
(2 -1.00267e-13 0)
(2 1.41513e-13 0)
(2 -3.18384e-14 0)
(2 -2.85187e-11 0)
(2 -7.92699e-14 0)
(1.83159 0.229135 0)
(1.83241 0.228272 0)
(2 -1.37521e-14 0)
(1.83198 0.229228 0)
(1.83137 0.228119 0)
(1.83187 0.229088 0)
(2 2.86683e-14 0)
(2 -2.15137e-14 0)
(2 -6.2644e-11 0)
(2 2.96614e-14 0)
(2.1153 -0.265173 0)
(1.83071 0.229223 0)
(2 -4.85003e-11 0)
(2 1.26295e-14 0)
(1.84751 0.21173 0)
(1.83233 0.228488 0)
(2 -1.24497e-13 0)
(1.84181 0.217913 0)
(1.82915 0.229137 0)
(2 5.22923e-14 0)
(2 -2.15566e-07 0)
(2 9.16885e-11 0)
(2 1.85135e-14 0)
(2 -4.55007e-14 0)
(1.83146 0.228914 0)
(2 1.00725e-13 0)
(2 -2.28185e-13 0)
(2 5.37418e-14 0)
(2 -7.7024e-14 0)
(1.83279 0.229496 0)
(2 -1.03535e-13 0)
(1.83608 0.225224 0)
(2.11735 -0.265028 0)
(2 -2.37085e-13 0)
(2.11798 -0.264295 0)
(2 4.18476e-14 0)
(2 -1.40401e-07 0)
(2 2.85666e-15 0)
(2.00118 -0.0017062 0)
(2.12021 -0.271736 0)
(2.00035 -0.000603581 0)
(2 9.80436e-14 0)
(2 -2.24993e-14 0)
(2 -1.19097e-07 0)
(1.97685 0.0384406 0)
(2 -6.77982e-14 0)
(2 -2.952e-14 0)
(2.04017 -0.0849617 0)
(2 -2.13371e-07 0)
(2 -3.59027e-15 0)
(2 -5.05265e-14 0)
(2 -2.15236e-07 0)
(2 9.32134e-08 0)
(2 -5.32358e-08 0)
(2 -1.56483e-13 0)
(2 -1.69963e-06 0)
(2.02675 -0.049233 0)
(2 -4.85344e-07 0)
(2 -3.73576e-08 0)
(2.00089 -0.00137769 0)
(2 6.10867e-14 0)
(2.11518 -0.261053 0)
(2 -2.94046e-11 0)
(2 -4.15718e-12 0)
(2 -8.71139e-11 0)
(2 1.0833e-13 0)
(1.87347 0.179894 0)
(2 7.77374e-14 0)
(2 -1.35081e-14 0)
(2 5.18867e-14 0)
(2 -1.69988e-07 0)
(2.0977 -0.261646 0)
(2 7.41593e-14 0)
(2 1.54941e-09 0)
(1.84063 0.218327 0)
(1.83007 0.22894 0)
(2 -2.86728e-07 0)
(2 -2.18339e-13 0)
(2 -1.18137e-07 0)
(2.02822 -0.0792843 0)
(2 -7.25789e-14 0)
(2 4.49415e-10 0)
(2 -7.91035e-14 0)
(2 -4.9903e-14 0)
(2 4.32285e-14 0)
(2 -2.01775e-14 0)
(2.01188 -0.0259118 0)
(1.99515 0.0110834 0)
(1.83182 0.228746 0)
(2 -7.77292e-14 0)
(2 9.57824e-14 0)
(2 -3.13619e-14 0)
(1.83198 0.227529 0)
(2.04186 -0.0661484 0)
(2 -4.94605e-09 0)
(2 2.17753e-13 0)
(2 -7.45515e-14 0)
(1.83122 0.2288 0)
(1.82883 0.227573 0)
(2 -2.84238e-08 0)
(2 4.60566e-06 0)
(2 3.47984e-09 0)
(2 2.72988e-16 0)
(2 1.20972e-09 0)
(2 4.0061e-14 0)
(2 -1.32685e-11 0)
(2 -8.96894e-14 0)
(2 -1.21103e-13 0)
(2.11299 -0.262204 0)
(2 1.77768e-13 0)
(2 -1.50975e-11 0)
(1.82977 0.228944 0)
(2.11575 -0.261965 0)
(2 -2.43771e-13 0)
(1.82983 0.227577 0)
(2 6.57239e-11 0)
(2.12503 -0.265759 0)
(2 -9.59432e-14 0)
(2 7.47252e-14 0)
(2.11264 -0.265623 0)
(2 -1.50094e-13 0)
(2 -1.16745e-11 0)
(2 -5.06052e-12 0)
(2 -4.377e-14 0)
(2 -2.21866e-12 0)
(2 -6.19164e-14 0)
(2 -5.25668e-14 0)
(1.83461 0.22521 0)
(1.83214 0.228666 0)
(2 4.94176e-13 0)
(2 -2.04558e-14 0)
(2 -6.64175e-14 0)
(2 5.00096e-13 0)
(1.84624 0.2128 0)
(2 3.81445e-13 0)
(1.94793 0.0760552 0)
(2.10667 -0.263598 0)
(2 -2.98232e-08 0)
(2 2.8216e-13 0)
(2 1.0432e-13 0)
(2 -9.41793e-14 0)
(2 1.88093e-13 0)
(2 -3.85898e-14 0)
(2 -1.45662e-14 0)
(1.9839 0.0220158 0)
(2 8.0626e-14 0)
(2 5.99821e-14 0)
(1.90441 0.120734 0)
(2 -1.39153e-13 0)
(2 6.59335e-14 0)
(2 2.3425e-14 0)
(1.8608 0.194725 0)
(2 -2.5771e-13 0)
(2 -2.03926e-13 0)
(2 2.34197e-14 0)
(2 -5.68461e-15 0)
(2.11501 -0.264293 0)
(2 8.14336e-12 0)
(2 -1.84952e-13 0)
(2.12319 -0.275029 0)
(2.11482 -0.264135 0)
(2 -1.54619e-13 0)
(2 -1.14173e-13 0)
(1.83163 0.228626 0)
(2 5.92265e-14 0)
(1.9584 -0.0106185 0)
(2 8.72161e-15 0)
(2 -1.49731e-13 0)
(2 -1.43552e-13 0)
(1.88308 0.167654 0)
(2.10817 -0.275168 0)
(2 -2.71456e-13 0)
(2.11442 -0.278833 0)
(2 -8.24108e-14 0)
(2.05529 -0.155762 0)
(2 -1.46263e-13 0)
(2 8.94738e-14 0)
(2 1.45714e-13 0)
(1.83106 0.230335 0)
(2 -4.04272e-08 0)
(2 -9.95268e-14 0)
(1.8314 0.228893 0)
(2 -7.26813e-14 0)
(2 -1.09398e-11 0)
(2 1.72922e-09 0)
(1.83132 0.228945 0)
(2 2.15207e-10 0)
(2 -1.4025e-13 0)
(1.83192 0.228921 0)
(2 -1.99015e-13 0)
(2 -9.67325e-14 0)
(2.11911 -0.265571 0)
(2 -1.73457e-11 0)
(1.94814 0.076385 0)
(2 6.22747e-14 0)
(2 4.52455e-14 0)
(1.83048 0.228743 0)
(1.82912 0.229252 0)
(1.88799 0.164754 0)
(1.84951 0.207977 0)
(2 -1.19738e-13 0)
(2.11687 -0.263871 0)
(2 -5.27662e-14 0)
(2 4.88696e-14 0)
(1.83895 0.220641 0)
(2 6.48651e-14 0)
(2.12057 -0.267091 0)
(2 9.81953e-14 0)
(2 -1.06195e-13 0)
(2 1.35767e-14 0)
(1.83115 0.229088 0)
(2 -4.93403e-14 0)
(2 7.26487e-14 0)
(2 -8.24218e-14 0)
(2 1.31909e-14 0)
(1.89774 0.148535 0)
(2 1.76182e-13 0)
(1.84118 0.207395 0)
(1.83149 0.22972 0)
(2.10977 -0.266797 0)
(2 -2.23023e-13 0)
(2 6.95484e-15 0)
(2.11867 -0.261198 0)
(2.1173 -0.264732 0)
(2 -6.6103e-14 0)
(2 2.70304e-14 0)
(2 -6.69458e-12 0)
(1.88059 0.170547 0)
(1.87252 0.181294 0)
(2 1.70435e-13 0)
(2 1.40285e-14 0)
(2 1.91544e-13 0)
(2 5.06642e-14 0)
(2 1.60308e-14 0)
(2 -1.31768e-14 0)
(2 9.02748e-15 0)
(1.92451 0.11235 0)
(1.83177 0.229255 0)
(1.99485 0.00443912 0)
(2 -1.23161e-15 0)
(1.83378 0.226814 0)
(2.11904 -0.264608 0)
(2 -1.38433e-14 0)
(2 -1.29086e-13 0)
(2 6.90868e-14 0)
(1.90834 0.134165 0)
(2 4.84409e-14 0)
(1.96772 0.0566686 0)
(2 -1.39043e-14 0)
(1.84617 0.211162 0)
(1.83237 0.228325 0)
(2 -2.03924e-14 0)
(2.11781 -0.266208 0)
(2 6.35623e-14 0)
(1.83192 0.229234 0)
(2 -5.98791e-14 0)
(2 -1.12432e-13 0)
(1.83147 0.228922 0)
(1.84186 0.217948 0)
(2 1.34743e-13 0)
(1.82614 0.229652 0)
(2 1.61889e-14 0)
(2.1055 -0.26459 0)
(2 -6.21074e-14 0)
(2 -6.72787e-14 0)
(2 -1.11763e-13 0)
(1.82916 0.23141 0)
(1.83467 0.225228 0)
(1.85191 0.205707 0)
(2 -8.07313e-15 0)
(1.82864 0.230429 0)
(1.8317 0.228934 0)
(2 -1.20734e-14 0)
(1.83084 0.229348 0)
(2 -1.00185e-08 0)
(1.83234 0.228251 0)
(2 -1.21089e-14 0)
(2.11542 -0.264161 0)
(2.00245 -0.0248918 0)
(2.12426 -0.261958 0)
(2 -3.45322e-11 0)
(2 -2.23886e-11 0)
(2 -3.54707e-11 0)
(2 -7.39549e-14 0)
(2 -1.46841e-11 0)
(1.8324 0.229391 0)
(2 -9.58596e-15 0)
(1.83239 0.229293 0)
(2 -4.12451e-11 0)
(2 -9.62922e-11 0)
(2 1.66895e-14 0)
(1.8398 0.219891 0)
(2 8.11317e-14 0)
(2.11834 -0.263067 0)
(1.83139 0.22897 0)
(2 -5.63611e-14 0)
(2.10911 -0.263696 0)
(2.09565 -0.247028 0)
(2.10827 -0.255812 0)
(2 -1.01149e-13 0)
(1.91731 0.126057 0)
(1.98843 0.0212007 0)
(1.83087 0.229594 0)
(1.83151 0.228995 0)
(2 -1.95984e-13 0)
(2 -3.49077e-07 0)
(2 -1.08999e-07 0)
(2 2.44658e-13 0)
(1.83159 0.228908 0)
(2 3.33053e-14 0)
(2 2.36367e-13 0)
(1.83166 0.228886 0)
(1.83179 0.228993 0)
(2 -2.26038e-13 0)
(1.93941 0.093919 0)
(1.99967 0.00102039 0)
(2 -1.10595e-13 0)
(2.00109 -0.00196975 0)
(1.82837 0.228785 0)
(2.05753 -0.104378 0)
(2 -1.23381e-07 0)
(2.07186 -0.113621 0)
(2.10501 -0.261499 0)
(2.10119 -0.261466 0)
(2.00046 -0.00767659 0)
(1.83118 0.229227 0)
(1.83385 0.226678 0)
(1.96474 0.0551488 0)
(1.83132 0.229029 0)
(1.83155 0.229051 0)
(2 -1.02577e-13 0)
(2 -8.32782e-14 0)
(1.8291 0.228643 0)
(1.82992 0.229866 0)
(1.83152 0.22932 0)
(1.82936 0.228748 0)
(2 2.09972e-13 0)
(1.83162 0.229089 0)
(2.11947 -0.267251 0)
(1.83135 0.228982 0)
(1.83066 0.22897 0)
(1.82986 0.227528 0)
(1.83173 0.230079 0)
(2.03494 -0.0889449 0)
(2.03777 -0.0757839 0)
(2.02505 -0.0431181 0)
(1.83181 0.228932 0)
(2.01477 -0.0247097 0)
(1.83089 0.229441 0)
(2 1.12935e-14 0)
(2 1.4655e-14 0)
(1.83095 0.22974 0)
(1.83139 0.229223 0)
(2 6.37091e-14 0)
(2.11883 -0.264523 0)
(1.83077 0.228964 0)
(1.83181 0.228956 0)
(2 -8.51586e-14 0)
(1.83187 0.229159 0)
(1.83171 0.22914 0)
(2 -1.28698e-13 0)
(1.83172 0.22895 0)
(2.1002 -0.262248 0)
(1.8318 0.228614 0)
(1.83046 0.228923 0)
(1.83035 0.228768 0)
(1.83007 0.231084 0)
(2 7.90329e-14 0)
(2 1.14123e-13 0)
(2 -1.0018e-07 0)
(1.83191 0.228872 0)
(1.89132 0.159611 0)
(2.12515 -0.245869 0)
(1.83133 0.228876 0)
(2.12656 -0.267265 0)
(1.83185 0.228792 0)
(2 -4.73714e-15 0)
(2 7.92142e-14 0)
(2 -2.59994e-14 0)
(2 -8.89303e-14 0)
(1.83204 0.22832 0)
(1.83127 0.229056 0)
(2 3.00521e-14 0)
(2 1.27424e-13 0)
(1.8313 0.228974 0)
(2.1229 -0.265157 0)
(1.83119 0.22846 0)
(2.11402 -0.263667 0)
(2 -3.21171e-14 0)
(1.83233 0.227857 0)
(2 3.87088e-14 0)
(2.1061 -0.265197 0)
(1.83086 0.229637 0)
(2.07285 -0.196385 0)
(2 -7.77577e-14 0)
(1.83141 0.228918 0)
(1.83028 0.229887 0)
(1.83197 0.228892 0)
(2 -1.58779e-13 0)
(2 -1.73587e-13 0)
(1.92112 0.11014 0)
(1.83058 0.229555 0)
(2.1194 -0.270472 0)
(1.83187 0.228763 0)
(2 -8.16815e-14 0)
(1.83219 0.228606 0)
(2.0481 -0.0849585 0)
(1.832 0.229641 0)
(2.1119 -0.262744 0)
(2 -3.69325e-14 0)
(1.83171 0.229367 0)
(2.10567 -0.234275 0)
(1.831 0.229747 0)
(2.10798 -0.264708 0)
(2 -4.89153e-14 0)
(1.83117 0.229145 0)
(2 -5.03481e-14 0)
(1.83004 0.229002 0)
(2 -1.16334e-13 0)
(1.90211 0.143772 0)
(1.83773 0.221743 0)
(1.86808 0.18556 0)
(2.12885 -0.276305 0)
(2 -5.40297e-14 0)
(1.83096 0.228805 0)
(2 6.64811e-14 0)
(1.83172 0.228942 0)
(2 -1.15497e-07 0)
(1.83185 0.229154 0)
(2 -2.4187e-07 0)
(2 -1.46804e-14 0)
(1.83142 0.229282 0)
(2.00366 -0.0147816 0)
(1.83054 0.229978 0)
(2.10041 -0.262269 0)
(1.84224 0.230965 0)
(2 1.03529e-14 0)
(1.87749 0.17325 0)
(2 -6.27598e-14 0)
(1.83084 0.230141 0)
(1.83196 0.228972 0)
(1.83094 0.23026 0)
(2 3.49601e-14 0)
(1.84865 0.209857 0)
(1.83097 0.228722 0)
(1.84364 0.214752 0)
(1.89708 0.151626 0)
(1.82534 0.233015 0)
(2 1.00369e-13 0)
(1.88591 0.165331 0)
(2 -9.34275e-15 0)
(1.83124 0.229206 0)
(2 2.19664e-14 0)
(1.97792 0.0323869 0)
(2 -1.04168e-13 0)
(1.84436 0.214203 0)
(2 1.03048e-13 0)
(1.83203 0.228444 0)
(1.83956 0.220258 0)
(1.83961 0.219955 0)
(2 7.97933e-14 0)
(1.8415 0.224975 0)
(2.1138 -0.265685 0)
(2 1.71475e-13 0)
(2.11571 -0.264719 0)
(2 -1.43659e-13 0)
(2 -4.98823e-14 0)
(2 -9.61954e-15 0)
(1.82763 0.227983 0)
(2 9.67839e-14 0)
(1.83173 0.229234 0)
(2 1.62418e-14 0)
(2 5.80077e-14 0)
(2 1.14902e-13 0)
(1.8309 0.229291 0)
(1.84437 0.220059 0)
(1.85789 0.206143 0)
(1.83076 0.228595 0)
(1.83206 0.227569 0)
(2.11877 -0.264472 0)
(1.8317 0.232457 0)
(1.83142 0.22896 0)
(2 -8.18455e-14 0)
(1.86247 0.19634 0)
(1.83179 0.228792 0)
(1.83204 0.220355 0)
(2 8.93157e-14 0)
(1.8328 0.229301 0)
(1.82939 0.228418 0)
(2 6.34959e-15 0)
(1.83272 0.232579 0)
(1.83154 0.228998 0)
(1.83093 0.228493 0)
(1.83083 0.229635 0)
(2 -1.61179e-13 0)
(2 4.02917e-14 0)
(2 -9.077e-14 0)
(1.83175 0.228711 0)
(2.11928 -0.258666 0)
(2 -3.42751e-14 0)
(1.8316 0.228963 0)
(2 -1.70394e-14 0)
(2 6.59377e-14 0)
(2.11945 -0.266464 0)
(2 -1.3275e-13 0)
(2 1.99463e-14 0)
(1.83181 0.228937 0)
(1.83188 0.228834 0)
(2 -1.64397e-13 0)
(1.83192 0.228911 0)
(1.83105 0.22887 0)
(1.83107 0.228927 0)
(1.99881 -0.0224737 0)
(1.8314 0.228926 0)
(2 1.3318e-14 0)
(1.83133 0.22898 0)
(1.83173 0.228678 0)
(1.85623 0.200322 0)
(2 -3.35108e-14 0)
(2 4.47833e-14 0)
(2 7.5659e-14 0)
(1.8314 0.228093 0)
(1.83153 0.22917 0)
(1.83191 0.228749 0)
(2.01552 -0.0294005 0)
(2 1.33694e-13 0)
(1.82474 0.230566 0)
(1.83164 0.228929 0)
(1.83124 0.228089 0)
(2 4.33234e-14 0)
(1.83168 0.228991 0)
(1.83098 0.228879 0)
(1.83132 0.229043 0)
(1.8246 0.231331 0)
(2 1.04153e-13 0)
(1.83212 0.228788 0)
(1.83066 0.230663 0)
(1.84774 0.200209 0)
(1.83152 0.228874 0)
(1.82515 0.230628 0)
(2 -6.58646e-14 0)
(1.83073 0.229022 0)
(1.83361 0.226762 0)
(1.83188 0.228662 0)
(1.8321 0.228735 0)
(1.83146 0.22943 0)
(2.12403 -0.261049 0)
(1.83135 0.229056 0)
(1.83176 0.228636 0)
(2 -5.56861e-14 0)
(1.83158 0.229094 0)
(1.83192 0.228603 0)
(1.83126 0.229072 0)
(1.8314 0.2293 0)
(2 -4.35255e-08 0)
(1.83211 0.228728 0)
(1.83204 0.228642 0)
(2 -1.71027e-07 0)
(1.8319 0.228947 0)
(1.85883 0.198418 0)
(2 7.67237e-14 0)
(2 -4.22596e-14 0)
(2 8.75199e-11 0)
(1.83219 0.228331 0)
(1.83135 0.232605 0)
(2 6.75758e-14 0)
(2 -1.14923e-13 0)
(1.90885 0.131888 0)
(2 -1.07284e-14 0)
(1.83135 0.228971 0)
(2 -2.29636e-13 0)
(2 -7.71433e-14 0)
(1.83159 0.229045 0)
(1.83087 0.229597 0)
(1.83178 0.229212 0)
(1.83162 0.229077 0)
(2 -1.25173e-14 0)
(2 -5.23718e-14 0)
(2 7.10182e-14 0)
(1.8808 0.164872 0)
(2 -1.33796e-13 0)
(1.8311 0.228559 0)
(2 1.43656e-13 0)
(2 1.74359e-13 0)
(1.8283 0.22867 0)
(1.83054 0.229042 0)
(2 -4.67129e-14 0)
(1.83179 0.228799 0)
(2.12816 -0.271825 0)
(1.83167 0.228889 0)
(1.83189 0.228376 0)
(2.10942 -0.196716 0)
(2 8.05583e-14 0)
(2.13478 -0.274596 0)
(1.84839 0.201303 0)
(1.83156 0.228769 0)
(1.8323 0.228407 0)
(1.83213 0.228498 0)
(2.11172 -0.267124 0)
(1.83097 0.22881 0)
(1.83142 0.229545 0)
(2.11307 -0.265979 0)
(2.11979 -0.274097 0)
(2 -2.51465e-07 0)
(1.83189 0.227887 0)
(1.83185 0.229109 0)
(2 -7.60337e-14 0)
(2 -1.27993e-14 0)
(1.83169 0.229003 0)
(2 -1.31991e-13 0)
(1.82812 0.230018 0)
(2 2.36126e-06 0)
(1.8508 0.206605 0)
(2 1.1414e-14 0)
(1.92009 0.118982 0)
(1.83173 0.229063 0)
(1.83049 0.229855 0)
(1.88139 0.168893 0)
(1.84467 0.220538 0)
(1.82956 0.228678 0)
(1.82954 0.228807 0)
(1.83104 0.22764 0)
(2 -5.50041e-14 0)
(2.11532 -0.265544 0)
(1.83163 0.227366 0)
(1.83187 0.228714 0)
(1.82905 0.230311 0)
(2 7.04126e-06 0)
(2 3.19376e-10 0)
(2 1.47011e-09 0)
(1.82937 0.230808 0)
(2 2.22416e-14 0)
(1.83181 0.228825 0)
(1.83133 0.228638 0)
(2.06726 -0.186717 0)
(2 -4.2132e-14 0)
(1.83134 0.2292 0)
(2.00003 -5.12688e-05 0)
(2 -3.84501e-14 0)
(1.99999 1.89183e-05 0)
(1.99998 2.83135e-05 0)
(1.83187 0.228801 0)
(1.83314 0.22951 0)
(2.00052 -0.00086312 0)
(2 -3.41699e-14 0)
(2 6.29629e-15 0)
(1.83164 0.22902 0)
(1.83053 0.229729 0)
(1.83116 0.229115 0)
(1.83144 0.229048 0)
(1.83071 0.229943 0)
(2.1213 -0.252991 0)
(1.84971 0.209391 0)
(2 -4.67519e-14 0)
(1.8325 0.227654 0)
(1.83177 0.22912 0)
(1.83179 0.229173 0)
(1.83597 0.224671 0)
(2 -1.23631e-13 0)
(1.83188 0.228891 0)
(1.83587 0.224071 0)
(1.83101 0.229535 0)
(2 -8.00514e-14 0)
(1.83104 0.228717 0)
(1.83089 0.228724 0)
(2.04943 -0.100903 0)
(1.8319 0.228827 0)
(1.83097 0.228457 0)
(2 7.65765e-14 0)
(1.83152 0.228958 0)
(2.05573 -0.118399 0)
(1.83142 0.229134 0)
(2.05108 -0.0954668 0)
(1.83173 0.228909 0)
(2 -1.02824e-07 0)
(1.83144 0.228969 0)
(1.82616 0.231939 0)
(1.83195 0.228939 0)
(1.83181 0.229145 0)
(1.83153 0.228907 0)
(1.82866 0.22789 0)
(1.83148 0.229241 0)
(1.82995 0.22752 0)
(2 -1.48634e-13 0)
(2.02155 -0.0425519 0)
(1.83124 0.228983 0)
(1.8317 0.229123 0)
(2.04927 -0.104549 0)
(1.83154 0.228852 0)
(2.0088 -0.0153358 0)
(1.89514 0.153437 0)
(1.83118 0.228956 0)
(1.82994 0.228613 0)
(1.83202 0.229177 0)
(2 -2.77195e-14 0)
(1.83035 0.229951 0)
(1.89414 0.161348 0)
(1.83133 0.22837 0)
(2.02013 -0.0536048 0)
(1.83067 0.229881 0)
(1.82664 0.23113 0)
(2 -3.27672e-15 0)
(2.04323 -0.0925154 0)
(2 -7.10135e-10 0)
(1.83107 0.234165 0)
(2 1.09955e-13 0)
(1.8845 0.163991 0)
(2 2.81689e-09 0)
(1.84498 0.21125 0)
(2.04093 -0.0896224 0)
(2 -5.25365e-14 0)
(1.83164 0.22987 0)
(1.83416 0.231138 0)
(2 -7.10004e-14 0)
(1.83071 0.228379 0)
(1.83072 0.229735 0)
(1.82723 0.231054 0)
(1.82908 0.231056 0)
(1.82791 0.232749 0)
(2 -4.55283e-14 0)
(1.82932 0.22849 0)
(2 -1.47224e-13 0)
(2 -2.69085e-13 0)
(2 1.15789e-13 0)
(2.03149 -0.0638684 0)
(1.83212 0.22916 0)
(1.8318 0.228347 0)
(1.83058 0.228325 0)
(1.83181 0.228784 0)
(1.82758 0.23076 0)
(1.83077 0.229829 0)
(1.83514 0.226842 0)
(1.83181 0.229222 0)
(2.03403 -0.0655671 0)
(1.9894 0.0222799 0)
(2 3.51787e-09 0)
(2 -1.01605e-13 0)
(1.82299 0.231777 0)
(1.83182 0.228978 0)
(1.83146 0.228928 0)
(1.83159 0.229052 0)
(1.99999 1.67597e-05 0)
(1.9168 0.127322 0)
(2 -1.68712e-07 0)
(1.83256 0.231801 0)
(1.84455 0.217546 0)
(2 -2.76953e-12 0)
(2 -5.75647e-11 0)
(2.08813 -0.192671 0)
(1.83185 0.228679 0)
(2 -1.73941e-13 0)
(2 -1.01202e-13 0)
(2.11579 -0.265678 0)
(1.83122 0.22894 0)
(2 -2.0542e-13 0)
(1.83199 0.229001 0)
(1.83125 0.229072 0)
(1.82973 0.228415 0)
(1.83821 0.221649 0)
(1.83126 0.228922 0)
(2 -1.391e-10 0)
(2.13146 -0.269597 0)
(1.95925 0.065162 0)
(1.83149 0.229013 0)
(1.83129 0.22885 0)
(2 -1.22629e-13 0)
(1.83169 0.22922 0)
(1.83163 0.228922 0)
(1.91416 0.121523 0)
(1.99897 0.00559982 0)
(1.96827 0.0542137 0)
(2 5.04291e-14 0)
(1.83045 0.228802 0)
(1.83152 0.228858 0)
(2 -1.21346e-07 0)
(2 -2.14026e-10 0)
(2.10949 -0.266944 0)
(2 -2.36339e-10 0)
(2 8.80504e-14 0)
(1.83188 0.22884 0)
(1.83171 0.228882 0)
(1.83144 0.2288 0)
(1.83116 0.228969 0)
(1.8312 0.228795 0)
(1.82861 0.228314 0)
(1.83123 0.229137 0)
(1.83095 0.229345 0)
(1.83136 0.228949 0)
(2 7.66621e-15 0)
(2.00169 -0.00234738 0)
(1.83126 0.22897 0)
(1.83188 0.22879 0)
(2.00128 -0.00175969 0)
(1.83157 0.22897 0)
(1.83178 0.2287 0)
(2.11548 -0.261819 0)
(2.10895 -0.264664 0)
(1.83052 0.230313 0)
(1.83309 0.227515 0)
(2 -1.23418e-13 0)
(2 3.28061e-13 0)
(1.99898 0.00233607 0)
(1.83136 0.229286 0)
(1.83196 0.229248 0)
(1.83147 0.228966 0)
(2 9.8299e-10 0)
(1.83173 0.228928 0)
(2 -7.21561e-14 0)
(2.05672 -0.0982439 0)
(1.82999 0.231936 0)
(1.83716 0.231512 0)
(2 -1.03226e-13 0)
(1.92093 0.109758 0)
(1.83113 0.22926 0)
(2 -4.44616e-15 0)
(1.8288 0.226817 0)
(2 -1.06311e-10 0)
(1.83214 0.228928 0)
(1.88463 0.162068 0)
(1.83149 0.229401 0)
(2 1.4021e-11 0)
(1.83188 0.228618 0)
(1.83042 0.22897 0)
(2.11122 -0.267249 0)
(1.83142 0.229176 0)
(2 -1.27009e-07 0)
(1.83197 0.228332 0)
(1.83186 0.229115 0)
(2 7.12852e-09 0)
(2.11561 -0.258683 0)
(1.82961 0.230182 0)
(1.86367 0.193928 0)
(2.00079 -0.00107909 0)
(1.84045 0.226139 0)
(1.83187 0.228584 0)
(2 -5.68272e-12 0)
(2.00096 -0.00548956 0)
(1.83198 0.229187 0)
(2.00167 -0.00170272 0)
(1.83144 0.228799 0)
(2 -3.36e-12 0)
(2 -7.08962e-14 0)
(1.83125 0.228645 0)
(2 3.0078e-14 0)
(1.83139 0.228063 0)
(1.83138 0.229109 0)
(2.00128 -0.00228383 0)
(1.87767 0.177042 0)
(2 3.31125e-09 0)
(1.8316 0.228865 0)
(2 3.19298e-10 0)
(2 -4.44325e-13 0)
(2 1.06229e-11 0)
(2 5.80892e-12 0)
(1.83176 0.229081 0)
(2 6.9147e-09 0)
(2 2.98269e-14 0)
(1.83238 0.231716 0)
(2 1.0216e-13 0)
(1.8315 0.22871 0)
(2 3.30685e-10 0)
(1.89 0.159023 0)
(1.83136 0.228191 0)
(1.83177 0.228221 0)
(2 1.07465e-09 0)
(2 -1.56463e-13 0)