/*--------------------------------*- C++ -*----------------------------------*\
  =========                 |
  \\      /  F ield         | OpenFOAM: The Open Source CFD Toolbox
   \\    /   O peration     | Website:  https://openfoam.org
    \\  /    A nd           | Version:  12
     \\/     M anipulation  |
\*---------------------------------------------------------------------------*/
FoamFile
{
    format      ascii;
    class       volScalarField;
    location    "27.7";
    object      rho;
}
// * * * * * * * * * * * * * * * * * * * * * * * * * * * * * * * * * * * * * //

dimensions      [1 -3 0 0 0 0 0];

internalField   nonuniform List<scalar> 
9801
(
1.18494
1.15312
1.13958
1.14105
1.14463
1.14986
1.16445
1.19982
1.22405
1.23052
1.2327
1.22677
1.20639
1.19622
1.19704
1.2005
1.20674
1.21514
1.22446
1.2366
1.25884
1.28749
1.30281
1.30737
1.30895
1.31059
1.31013
1.30778
1.30797
1.30973
1.31241
1.31621
1.32193
1.33883
1.36722
1.3889
1.40068
1.40784
1.41373
1.41514
1.40918
1.40245
1.40038
1.40227
1.40566
1.41227
1.4344
1.46025
1.47404
1.48189
1.48683
1.4859
1.48334
1.4827
1.48478
1.48902
1.49511
1.5049
1.53256
1.56479
1.582
1.59042
1.59466
1.59094
1.57987
1.57216
1.57166
1.57718
1.58716
1.60035
1.63464
1.6915
1.7286
1.74727
1.75903
1.76607
1.75467
1.7207
1.70143
1.70587
1.72056
1.74598
1.81769
1.896
1.94015
1.96905
1.99398
2.01341
1.99432
1.94919
1.92738
1.94217
1.98717
2.09077
2.25235
2.40279
2.53606
4.59188
22.4917
1.17859
1.1698
1.16207
1.16092
1.16263
1.16812
1.18512
1.20868
1.22427
1.23316
1.23792
1.23377
1.21636
1.20743
1.20841
1.21189
1.21668
1.22209
1.22865
1.24116
1.26296
1.28219
1.29667
1.30666
1.31303
1.3179
1.32031
1.3133
1.30722
1.30816
1.31197
1.3168
1.32234
1.3401
1.37623
1.39659
1.40556
1.41214
1.41724
1.41471
1.40309
1.39849
1.40009
1.40431
1.40939
1.41818
1.44368
1.46807
1.47985
1.48684
1.49272
1.49134
1.47801
1.47533
1.48047
1.48679
1.49422
1.50421
1.53314
1.56446
1.58029
1.58961
1.59828
1.60411
1.59066
1.56788
1.56515
1.57355
1.58467
1.5975
1.6318
1.68578
1.71845
1.73605
1.74917
1.76138
1.75916
1.72246
1.69926
1.70387
1.71952
1.74159
1.79653
1.87037
1.919
1.95172
1.98032
2.00575
1.99683
1.94825
1.92211
1.9356
1.97889
2.04839
2.16451
2.28244
2.37268
4.32222
22.5383
1.15022
1.1514
1.15518
1.1594
1.16573
1.17776
1.19584
1.21048
1.21859
1.22296
1.2211
1.21579
1.21015
1.20742
1.20995
1.21544
1.22134
1.22658
1.23188
1.24235
1.26001
1.27499
1.28706
1.29852
1.30716
1.3134
1.31737
1.31055
1.30088
1.30005
1.3038
1.30919
1.3156
1.33642
1.37396
1.39543
1.40451
1.41067
1.41438
1.40495
1.38645
1.38124
1.38507
1.39179
1.39908
1.41093
1.43784
1.46109
1.47164
1.47796
1.48365
1.48275
1.46832
1.46288
1.46692
1.47345
1.4809
1.48916
1.51269
1.546
1.56575
1.57728
1.58675
1.59448
1.58736
1.56337
1.55601
1.5624
1.57284
1.5844
1.60921
1.65803
1.69474
1.71548
1.73026
1.74303
1.74468
1.71247
1.68658
1.6869
1.70106
1.71944
1.7557
1.83118
1.89125
1.92361
1.94861
1.97045
1.96692
1.92996
1.90244
1.90202
1.93247
1.98648
2.07877
2.1857
2.24547
4.20266
22.1369
1.12207
1.13244
1.15067
1.16174
1.16986
1.18001
1.19324
1.20171
1.20467
1.2028
1.20308
1.2086
1.21354
1.21207
1.21422
1.21915
1.22382
1.22757
1.22994
1.23372
1.24574
1.26266
1.27577
1.28642
1.29508
1.30192
1.30679
1.29821
1.28851
1.28957
1.29464
1.30093
1.30999
1.33483
1.36625
1.38292
1.39041
1.39342
1.39183
1.38015
1.36561
1.36361
1.36866
1.37587
1.38517
1.39941
1.42408
1.44489
1.45503
1.46155
1.46749
1.46978
1.45806
1.44752
1.44685
1.45077
1.45722
1.46492
1.48449
1.52193
1.54788
1.56138
1.57124
1.57968
1.57961
1.55546
1.53936
1.5411
1.54952
1.55974
1.57645
1.62041
1.66211
1.68386
1.69789
1.70948
1.71682
1.69797
1.66679
1.65801
1.66867
1.68589
1.70891
1.76334
1.8272
1.86451
1.88914
1.91234
1.92192
1.90002
1.87279
1.86161
1.87442
1.91074
1.9685
2.05372
2.09698
4.16141
21.7109
1.11459
1.12169
1.13888
1.15793
1.16854
1.17496
1.17802
1.17756
1.17888
1.1833
1.1949
1.2062
1.21392
1.21816
1.21647
1.21607
1.21609
1.21381
1.21332
1.21543
1.22731
1.25245
1.2682
1.27637
1.28242
1.28797
1.28841
1.27767
1.27508
1.27899
1.28438
1.29091
1.30394
1.32587
1.34437
1.35478
1.36039
1.36317
1.36431
1.36029
1.35152
1.34905
1.35156
1.35519
1.3598
1.36768
1.38909
1.41594
1.43201
1.44152
1.44876
1.455
1.45105
1.43354
1.42368
1.42394
1.42874
1.4356
1.44996
1.48816
1.52248
1.53912
1.54921
1.55763
1.56312
1.54736
1.52196
1.51574
1.52289
1.53275
1.54497
1.57767
1.62315
1.64927
1.66406
1.67637
1.6874
1.68169
1.65008
1.6298
1.63205
1.64802
1.66748
1.70027
1.76043
1.81217
1.84392
1.86849
1.88833
1.88336
1.85867
1.83779
1.83232
1.85021
1.89109
1.95687
1.99563
4.0972
21.3749
1.11475
1.12307
1.13299
1.14261
1.15019
1.15009
1.14454
1.14534
1.15529
1.17706
1.19682
1.20933
1.21708
1.2227
1.21965
1.20707
1.19599
1.19177
1.19349
1.19737
1.21193
1.24332
1.26146
1.26855
1.27329
1.27632
1.26789
1.25832
1.26008
1.26523
1.27094
1.2787
1.29302
1.30826
1.31769
1.32415
1.32955
1.33466
1.3399
1.3437
1.33898
1.33265
1.33026
1.33054
1.3333
1.33868
1.35539
1.39136
1.41678
1.42885
1.43627
1.4424
1.44365
1.42292
1.40104
1.39804
1.40354
1.41146
1.42437
1.45956
1.50027
1.52073
1.53157
1.54015
1.5477
1.54349
1.5156
1.49826
1.50001
1.50946
1.52012
1.54085
1.58528
1.62111
1.6389
1.65107
1.66235
1.66716
1.64738
1.6221
1.61237
1.61826
1.63363
1.65333
1.69386
1.75351
1.79918
1.83054
1.85733
1.87316
1.86117
1.83809
1.82293
1.82366
1.83882
1.88668
1.92333
4.0484
21.1822
1.12534
1.13165
1.13366
1.13215
1.11785
1.10859
1.1098
1.11623
1.13674
1.17684
1.20385
1.21434
1.21986
1.22343
1.2176
1.19071
1.17265
1.17174
1.17587
1.18353
1.2043
1.23823
1.25726
1.26404
1.26827
1.26709
1.2543
1.24577
1.24679
1.2517
1.25758
1.2646
1.27564
1.28847
1.29707
1.30291
1.30933
1.31704
1.32371
1.32914
1.32707
1.31535
1.30987
1.31122
1.31607
1.32231
1.3351
1.37107
1.40205
1.41553
1.42308
1.42905
1.43235
1.41742
1.39092
1.38224
1.38713
1.395
1.40734
1.43689
1.4794
1.5044
1.51666
1.52565
1.53403
1.53889
1.51993
1.49457
1.48764
1.49267
1.50121
1.5127
1.54457
1.59248
1.62182
1.63735
1.6497
1.66058
1.65658
1.63227
1.61275
1.6047
1.60841
1.62317
1.64651
1.69458
1.7525
1.7966
1.82879
1.85645
1.86544
1.85233
1.83245
1.81596
1.81218
1.83252
1.85844
4.01644
21.1108
1.13481
1.1414
1.13536
1.11043
1.08865
1.08578
1.08912
1.09601
1.12163
1.17653
1.20688
1.21548
1.22045
1.22087
1.20248
1.17194
1.1619
1.16382
1.16823
1.17673
1.20023
1.23469
1.25276
1.25953
1.26189
1.25738
1.24969
1.24451
1.24381
1.24584
1.24885
1.2522
1.25629
1.26632
1.28121
1.29171
1.29981
1.3072
1.31324
1.31845
1.31872
1.30396
1.2948
1.29713
1.30347
1.31181
1.32578
1.35941
1.39027
1.40386
1.4111
1.41675
1.42112
1.41522
1.39205
1.37857
1.37965
1.38682
1.39569
1.41566
1.45683
1.49065
1.50686
1.51674
1.52567
1.53446
1.53114
1.50312
1.48454
1.47997
1.48478
1.49379
1.5105
1.55496
1.60238
1.62889
1.64502
1.65875
1.66822
1.65417
1.62305
1.60433
1.60092
1.60823
1.62363
1.64849
1.69766
1.75103
1.79244
1.8254
1.85268
1.85762
1.849
1.82834
1.8039
1.79487
1.78467
3.97488
21.1044
1.13553
1.14228
1.12195
1.09092
1.08136
1.0836
1.08757
1.09685
1.13357
1.18068
1.20289
1.21217
1.21557
1.20432
1.18009
1.16497
1.16242
1.16484
1.17059
1.1839
1.20595
1.22696
1.24096
1.24744
1.24812
1.24832
1.25225
1.25178
1.24646
1.24522
1.24462
1.2437
1.24471
1.24944
1.26641
1.28719
1.29866
1.30544
1.31081
1.31575
1.31799
1.30388
1.29016
1.29062
1.2965
1.30397
1.31858
1.35082
1.38141
1.39556
1.40285
1.40905
1.41503
1.41647
1.40229
1.38573
1.38147
1.38402
1.3902
1.39905
1.42795
1.47272
1.49901
1.51186
1.52135
1.52999
1.53619
1.51825
1.48667
1.47266
1.47137
1.47895
1.48947
1.51465
1.56847
1.61568
1.64197
1.65828
1.6718
1.67547
1.65347
1.6227
1.60645
1.60329
1.60978
1.62552
1.65399
1.70418
1.75393
1.79255
1.8233
1.84658
1.84742
1.84015
1.81778
1.78691
1.72874
3.91663
21.1329
1.13275
1.12795
1.10037
1.08745
1.08559
1.08753
1.09292
1.11742
1.15381
1.17728
1.1909
1.19658
1.19047
1.17709
1.1699
1.16829
1.16986
1.17688
1.18888
1.19889
1.20655
1.21609
1.22307
1.22763
1.23187
1.24203
1.25153
1.25671
1.25637
1.24834
1.24169
1.23696
1.23664
1.2403
1.2535
1.28262
1.30042
1.30789
1.31309
1.31787
1.32117
1.31039
1.29407
1.29046
1.29407
1.29994
1.30875
1.33518
1.37131
1.3909
1.40035
1.40765
1.41452
1.42047
1.41528
1.39549
1.38282
1.38042
1.38468
1.39139
1.40418
1.44464
1.48792
1.50908
1.5199
1.52825
1.53598
1.5321
1.49815
1.47187
1.46593
1.46871
1.47714
1.48996
1.52614
1.58806
1.63262
1.65548
1.67048
1.68255
1.68255
1.65508
1.62194
1.60473
1.60367
1.61345
1.63128
1.66164
1.71121
1.75692
1.79125
1.81773
1.83211
1.83285
1.82482
1.79426
1.72008
3.83724
21.2146
1.12156
1.09707
1.08573
1.08726
1.09059
1.09687
1.12046
1.14985
1.16691
1.17501
1.17723
1.16906
1.16039
1.16208
1.16712
1.17564
1.18909
1.2002
1.20579
1.20588
1.20299
1.20187
1.20529
1.21104
1.22497
1.24167
1.25209
1.25822
1.26282
1.25677
1.23878
1.22855
1.22833
1.23311
1.2451
1.27732
1.30269
1.31294
1.31861
1.32318
1.32731
1.32122
1.30115
1.29205
1.29264
1.2977
1.30429
1.31928
1.3564
1.3883
1.40263
1.41017
1.4165
1.42235
1.42472
1.40894
1.38776
1.38034
1.382
1.38827
1.39584
1.4159
1.46583
1.50263
1.51757
1.52608
1.534
1.53763
1.51775
1.4822
1.46566
1.46443
1.46995
1.47982
1.49865
1.5439
1.60488
1.64465
1.66517
1.67816
1.68548
1.68223
1.65664
1.62665
1.6107
1.60968
1.61848
1.63621
1.66915
1.7194
1.76121
1.78933
1.80732
1.81381
1.81541
1.79946
1.73856
3.77231
21.316
1.10443
1.08311
1.08146
1.08601
1.09837
1.12321
1.14607
1.16066
1.16798
1.16736
1.15495
1.14625
1.14857
1.15909
1.17636
1.19507
1.20767
1.21472
1.2119
1.1988
1.18923
1.18809
1.19283
1.20872
1.22869
1.24371
1.25394
1.26059
1.26575
1.26115
1.23395
1.21924
1.22052
1.22635
1.23834
1.27118
1.30449
1.3185
1.32402
1.32821
1.33148
1.32945
1.31051
1.2949
1.29441
1.29956
1.30655
1.31497
1.33626
1.37685
1.4016
1.41105
1.41576
1.42104
1.42809
1.4273
1.40469
1.38794
1.38477
1.38754
1.39303
1.40099
1.432
1.48387
1.51227
1.52445
1.53297
1.54008
1.53647
1.50607
1.47688
1.46849
1.47201
1.48062
1.49045
1.50527
1.54754
1.60628
1.64307
1.66223
1.67597
1.68643
1.68517
1.66164
1.63202
1.61495
1.6137
1.62312
1.64071
1.67735
1.72723
1.76286
1.78362
1.79251
1.79684
1.79272
1.75402
3.73671
21.3961
1.09749
1.08805
1.09053
1.10398
1.12491
1.13929
1.14672
1.15315
1.15149
1.14301
1.13808
1.1402
1.15335
1.17591
1.19777
1.20969
1.21579
1.21576
1.20032
1.1802
1.17424
1.1768
1.18804
1.21463
1.23746
1.25068
1.25873
1.26429
1.26842
1.25711
1.22583
1.21425
1.21666
1.222
1.23165
1.2609
1.30116
1.32074
1.32826
1.33234
1.33511
1.33681
1.32778
1.30921
1.30396
1.30817
1.31401
1.317
1.32322
1.34751
1.38637
1.40569
1.41546
1.42524
1.43404
1.44148
1.43267
1.40386
1.38856
1.38534
1.38816
1.39421
1.40641
1.45029
1.49969
1.52213
1.53256
1.53996
1.54294
1.5351
1.50729
1.48424
1.47799
1.47868
1.48188
1.49001
1.50473
1.54686
1.60602
1.64414
1.66463
1.679
1.68798
1.68529
1.6642
1.63696
1.62053
1.61942
1.62841
1.64447
1.68405
1.72979
1.75781
1.77107
1.77595
1.7761
1.76129
3.72935
21.4453
1.10361
1.10673
1.11631
1.12899
1.13674
1.14087
1.13762
1.12288
1.11759
1.12187
1.13114
1.14954
1.17914
1.20392
1.2148
1.21996
1.21971
1.19859
1.17055
1.16212
1.16473
1.17129
1.19022
1.22723
1.25222
1.26161
1.26644
1.26899
1.26592
1.24603
1.22312
1.21555
1.21788
1.22318
1.23046
1.24982
1.29136
1.31917
1.32822
1.33262
1.33827
1.34482
1.34867
1.33669
1.32109
1.31656
1.31483
1.3128
1.31413
1.32212
1.35692
1.39744
1.41897
1.4333
1.44284
1.45027
1.45173
1.42498
1.39353
1.3831
1.38406
1.38948
1.39678
1.41612
1.46694
1.50871
1.52752
1.53787
1.54578
1.5507
1.54172
1.51276
1.48845
1.47961
1.47974
1.48281
1.48904
1.5027
1.54628
1.60611
1.64304
1.66343
1.67855
1.68717
1.68378
1.66481
1.64148
1.6263
1.62431
1.6318
1.64621
1.68423
1.72337
1.74503
1.75285
1.75511
1.76232
3.75159
21.4771
1.11697
1.13238
1.13845
1.14112
1.14316
1.13168
1.10525
1.09515
1.09815
1.10796
1.13292
1.17747
1.20922
1.21973
1.22395
1.22532
1.20683
1.16777
1.15086
1.15163
1.15658
1.16669
1.19496
1.24049
1.26382
1.27158
1.27579
1.27313
1.25752
1.24076
1.22752
1.22126
1.22411
1.23116
1.24006
1.24941
1.27248
1.30806
1.32682
1.33569
1.34443
1.3535
1.36062
1.36224
1.34428
1.32213
1.30894
1.30452
1.30774
1.31431
1.33223
1.38194
1.42302
1.43929
1.44829
1.45499
1.45904
1.44318
1.4051
1.38551
1.38437
1.38893
1.39461
1.40127
1.4218
1.47128
1.51147
1.5319
1.54361
1.55128
1.55768
1.55357
1.52493
1.49697
1.48354
1.47827
1.47956
1.48825
1.50596
1.55492
1.61181
1.64471
1.66246
1.67604
1.68258
1.67953
1.66761
1.64861
1.63128
1.62503
1.62835
1.64062
1.67605
1.71147
1.72835
1.73212
1.75559
3.80391
21.5038
1.13386
1.14818
1.15052
1.14943
1.13612
1.10286
1.08536
1.08514
1.08943
1.10003
1.14637
1.20389
1.22282
1.22878
1.23118
1.21624
1.17633
1.15077
1.14688
1.15009
1.15465
1.16525
1.20152
1.24702
1.26796
1.27493
1.27075
1.25702
1.25072
1.24738
1.24026
1.23654
1.2392
1.24579
1.251
1.25132
1.25666
1.28153
1.31769
1.33869
1.35149
1.36066
1.36722
1.37209
1.36367
1.33019
1.30655
1.30283
1.30671
1.3131
1.32323
1.35934
1.41521
1.44029
1.44826
1.45171
1.45212
1.44812
1.42939
1.40263
1.39085
1.3902
1.39131
1.39319
1.39894
1.41987
1.47152
1.51594
1.5388
1.55265
1.56383
1.57047
1.56378
1.52898
1.49442
1.47965
1.4796
1.48748
1.49948
1.51853
1.56446
1.61126
1.63779
1.654
1.66883
1.67834
1.68204
1.67666
1.65472
1.62963
1.61748
1.61748
1.62901
1.66602
1.69974
1.71217
1.7422
3.87589
21.5355
1.13691
1.15148
1.15364
1.14822
1.11679
1.08947
1.08496
1.08772
1.09186
1.11059
1.16949
1.21073
1.22479
1.23022
1.22187
1.18733
1.15932
1.14996
1.14903
1.1531
1.16758
1.19053
1.21286
1.23672
1.2538
1.25595
1.24809
1.24428
1.24883
1.25778
1.26474
1.26525
1.261
1.25777
1.25192
1.24806
1.24879
1.25644
1.29175
1.33386
1.35517
1.36599
1.37191
1.37575
1.37378
1.34444
1.31353
1.30686
1.31166
1.32007
1.32915
1.34177
1.38083
1.42096
1.43598
1.44189
1.44631
1.45028
1.45145
1.43256
1.40337
1.38862
1.38489
1.38666
1.39215
1.40087
1.42381
1.47809
1.52823
1.55239
1.56253
1.56686
1.57176
1.56872
1.53751
1.50588
1.4936
1.49393
1.49948
1.50907
1.52411
1.56351
1.60438
1.63101
1.65207
1.67023
1.68258
1.69076
1.68404
1.65322
1.61935
1.60387
1.60352
1.61699
1.65981
1.68913
1.72327
3.95614
21.5798
1.13212
1.14027
1.13941
1.13043
1.10855
1.09313
1.09012
1.09429
1.10691
1.14124
1.18226
1.20861
1.21716
1.21098
1.18663
1.17078
1.16196
1.15683
1.16108
1.178
1.19832
1.20899
1.21208
1.21016
1.21146
1.22353
1.23577
1.24576
1.25802
1.27561
1.29022
1.29647
1.28873
1.26516
1.24573
1.23873
1.24101
1.24674
1.26578
1.31825
1.35549
1.36733
1.37243
1.37436
1.37056
1.3593
1.3375
1.32367
1.32312
1.32647
1.32945
1.33352
1.34256
1.37819
1.41736
1.43713
1.44728
1.45427
1.4602
1.45664
1.4296
1.40038
1.38963
1.39027
1.39505
1.4021
1.40891
1.42526
1.47606
1.5268
1.5504
1.56214
1.57212
1.58119
1.5809
1.5511
1.51835
1.50388
1.50161
1.50352
1.50944
1.52425
1.56209
1.60501
1.63699
1.6606
1.6765
1.68883
1.69557
1.68242
1.64259
1.6043
1.58911
1.58799
1.61074
1.65444
1.69642
4.03441
21.6457
1.12053
1.12757
1.12853
1.1218
1.10804
1.10385
1.10731
1.11785
1.13729
1.15883
1.17872
1.18893
1.187
1.17168
1.16332
1.16575
1.17046
1.17974
1.19413
1.20511
1.21118
1.2127
1.1968
1.17693
1.17479
1.18715
1.21825
1.25116
1.28107
1.30105
1.30942
1.31242
1.30267
1.26524
1.23616
1.23242
1.23641
1.24292
1.25476
1.29831
1.34965
1.36695
1.3715
1.37164
1.37135
1.37198
1.36676
1.34897
1.33459
1.32867
1.32539
1.32381
1.32607
1.33594
1.37619
1.42216
1.44314
1.4511
1.45442
1.45779
1.45868
1.43851
1.41308
1.40308
1.40183
1.40207
1.403
1.40898
1.42438
1.47512
1.53344
1.56293
1.57526
1.58378
1.5904
1.58681
1.55867
1.52875
1.51259
1.50613
1.50611
1.51179
1.52798
1.569
1.61643
1.64875
1.66812
1.68021
1.6904
1.69065
1.66981
1.62594
1.58742
1.57335
1.57659
1.60754
1.65835
4.0916
21.7242
1.11601
1.12783
1.13096
1.1263
1.12006
1.12276
1.13048
1.14191
1.14996
1.15545
1.16028
1.15951
1.15922
1.16264
1.16657
1.17124
1.18884
1.21263
1.22393
1.22664
1.22088
1.19848
1.16707
1.15718
1.16024
1.16883
1.19922
1.26183
1.3062
1.31966
1.32415
1.32116
1.29805
1.25712
1.23666
1.23465
1.23859
1.24784
1.26577
1.29144
1.32762
1.35476
1.3645
1.36844
1.37265
1.37928
1.38412
1.37912
1.35593
1.33453
1.32249
1.31646
1.3164
1.32037
1.33311
1.38111
1.42705
1.44571
1.45514
1.46362
1.46998
1.46919
1.44922
1.42127
1.40606
1.40144
1.40234
1.4059
1.41214
1.42705
1.4806
1.5399
1.56789
1.5802
1.58912
1.59412
1.58746
1.56491
1.5405
1.52211
1.51285
1.51226
1.51829
1.53328
1.57784
1.62552
1.65354
1.66911
1.67969
1.6854
1.67736
1.65342
1.61003
1.57292
1.55773
1.56603
1.61679
4.11127
21.7987
1.12096
1.13556
1.14054
1.14258
1.14028
1.14162
1.14583
1.15
1.15284
1.14385
1.13074
1.1299
1.13834
1.15442
1.17273
1.19687
1.22118
1.23382
1.23841
1.23969
1.22302
1.1743
1.15006
1.14869
1.15317
1.16142
1.19801
1.27748
1.31437
1.32417
1.32658
1.3133
1.2831
1.25819
1.2447
1.24478
1.25423
1.27222
1.28526
1.29004
1.2954
1.3168
1.34479
1.36279
1.37543
1.38493
1.39202
1.39652
1.38541
1.34952
1.32202
1.3131
1.31357
1.31748
1.32233
1.33878
1.39025
1.43875
1.46003
1.46852
1.47284
1.47765
1.47963
1.4616
1.4317
1.41404
1.40912
1.41118
1.41845
1.42736
1.44007
1.48432
1.53803
1.56473
1.57721
1.58661
1.59244
1.59123
1.57767
1.5529
1.52848
1.51431
1.51061
1.51522
1.53162
1.57996
1.62721
1.65308
1.66584
1.6738
1.67288
1.66395
1.64147
1.59932
1.5621
1.5399
1.57227
4.09139
21.8555
1.13027
1.15387
1.15871
1.16046
1.15589
1.15265
1.15318
1.15271
1.14346
1.12759
1.12007
1.12196
1.12841
1.14483
1.18333
1.22478
1.24207
1.246
1.24505
1.23621
1.20214
1.16587
1.15241
1.1522
1.1578
1.17804
1.2262
1.27804
1.30872
1.31737
1.30909
1.28541
1.27186
1.26817
1.26731
1.27302
1.2816
1.28881
1.29102
1.28258
1.275
1.27855
1.3042
1.34697
1.37658
1.39225
1.4006
1.4059
1.40588
1.37455
1.33267
1.31691
1.31622
1.31964
1.32571
1.33453
1.34982
1.39365
1.44158
1.46515
1.47626
1.48234
1.48943
1.49464
1.48087
1.45041
1.42962
1.4225
1.42282
1.42577
1.42975
1.43958
1.47891
1.52882
1.55758
1.57496
1.58914
1.5959
1.59771
1.58965
1.56099
1.52816
1.50906
1.50391
1.50756
1.52553
1.5789
1.6263
1.64965
1.65977
1.6644
1.66129
1.65459
1.63342
1.59491
1.54951
1.53238
4.03779
21.8899
1.13977
1.16392
1.16792
1.17044
1.16747
1.15862
1.15256
1.1477
1.13687
1.12169
1.11721
1.12028
1.12797
1.14626
1.19
1.23297
1.25074
1.25604
1.25477
1.22963
1.19556
1.17335
1.16531
1.17039
1.1878
1.21312
1.23493
1.25845
1.27505
1.27791
1.27302
1.2716
1.27506
1.28535
1.30352
1.3122
1.31138
1.30134
1.28266
1.26319
1.25722
1.26044
1.27027
1.31304
1.37166
1.39694
1.40461
1.41002
1.40998
1.39474
1.36234
1.33533
1.3262
1.32661
1.3301
1.33566
1.34179
1.35067
1.3848
1.43684
1.46996
1.48607
1.49578
1.50573
1.51339
1.50465
1.4696
1.43964
1.42643
1.42408
1.42594
1.43045
1.44142
1.47822
1.52624
1.55804
1.57713
1.58998
1.59809
1.60381
1.59701
1.56113
1.52165
1.50252
1.49885
1.50306
1.52205
1.57376
1.62022
1.64364
1.65262
1.65384
1.65216
1.64762
1.63045
1.58621
1.52596
3.94435
21.9308
1.14201
1.16571
1.16909
1.16775
1.16646
1.16508
1.16121
1.15477
1.1402
1.12508
1.12277
1.12723
1.1326
1.14396
1.18397
1.22976
1.24531
1.24735
1.24081
1.22587
1.20688
1.19461
1.19532
1.20505
1.22026
1.2295
1.23388
1.22952
1.22433
1.23157
1.24786
1.26827
1.29592
1.32214
1.33334
1.33667
1.33371
1.30863
1.26445
1.24428
1.24428
1.2496
1.25736
1.28196
1.34745
1.39318
1.40618
1.41093
1.40672
1.39858
1.39061
1.3671
1.34334
1.33445
1.33499
1.33898
1.33946
1.33753
1.34305
1.37175
1.43287
1.47954
1.50288
1.51629
1.52448
1.52877
1.51585
1.47499
1.44498
1.43327
1.43162
1.4362
1.44223
1.45033
1.47752
1.52484
1.55953
1.58047
1.59331
1.60192
1.60663
1.59303
1.55363
1.51673
1.50047
1.49732
1.49909
1.5181
1.56616
1.61354
1.63701
1.64646
1.64775
1.64614
1.64208
1.6196
1.55672
3.86883
21.9858
1.12918
1.14919
1.15422
1.15886
1.16723
1.1728
1.17587
1.17232
1.15314
1.13468
1.12995
1.13132
1.13432
1.13887
1.15987
1.2046
1.22655
1.2317
1.23396
1.23382
1.23168
1.23054
1.23141
1.23192
1.23336
1.23263
1.21527
1.19794
1.19687
1.2046
1.22397
1.27003
1.32512
1.3507
1.35708
1.35643
1.34553
1.30413
1.2575
1.24209
1.24386
1.24958
1.26159
1.28685
1.31886
1.36104
1.38752
1.39522
1.39397
1.3895
1.39234
1.39756
1.38709
1.36563
1.3535
1.34682
1.33918
1.33325
1.33392
1.33955
1.37126
1.44698
1.49817
1.51556
1.52156
1.5257
1.52571
1.51435
1.48857
1.4653
1.45264
1.4467
1.44205
1.44263
1.4508
1.48103
1.53321
1.56951
1.58845
1.59851
1.60477
1.60032
1.58004
1.54547
1.51129
1.49425
1.49002
1.49493
1.51218
1.56
1.61027
1.63487
1.6418
1.64057
1.63943
1.63153
1.60798
3.83832
22.0461
1.10562
1.11994
1.14596
1.16383
1.17653
1.18643
1.19176
1.19004
1.16719
1.14397
1.13329
1.12898
1.12961
1.13316
1.1432
1.17629
1.21453
1.23144
1.24116
1.2492
1.25425
1.25673
1.25605
1.25074
1.23762
1.21442
1.18955
1.18014
1.18311
1.19037
1.20545
1.26597
1.3346
1.35601
1.36235
1.36261
1.34023
1.30359
1.27027
1.25305
1.25337
1.26202
1.2837
1.30115
1.30686
1.31288
1.33165
1.35889
1.37695
1.38821
1.401
1.41447
1.42401
1.41998
1.39188
1.36219
1.34396
1.3366
1.33676
1.34249
1.35282
1.38671
1.45412
1.49536
1.50866
1.51534
1.5222
1.53004
1.52919
1.50906
1.4818
1.45891
1.44527
1.44243
1.44658
1.45578
1.4926
1.5451
1.57527
1.589
1.59632
1.5963
1.58635
1.5717
1.54281
1.50944
1.49082
1.48436
1.48811
1.50136
1.55351
1.60721
1.62995
1.63319
1.63303
1.62803
1.64312
3.86996
22.1202
1.08938
1.09826
1.13985
1.18012
1.19872
1.20504
1.20653
1.20124
1.17737
1.14299
1.12633
1.12569
1.12923
1.13574
1.14538
1.16497
1.20091
1.234
1.24993
1.25929
1.267
1.26946
1.26555
1.25774
1.24291
1.2106
1.18614
1.18124
1.18547
1.19426
1.22108
1.27057
1.32235
1.34577
1.34816
1.33259
1.316
1.30943
1.29842
1.28651
1.28406
1.29031
1.29934
1.30452
1.29796
1.28165
1.28076
1.30023
1.34824
1.3901
1.41628
1.43649
1.44977
1.45771
1.44334
1.39589
1.35725
1.34203
1.34011
1.34696
1.35667
1.36587
1.39194
1.44828
1.48973
1.50959
1.52287
1.53398
1.54117
1.54121
1.52612
1.49341
1.46326
1.44854
1.44618
1.44996
1.46012
1.4994
1.54682
1.57194
1.58279
1.5876
1.58268
1.57918
1.57425
1.54885
1.51267
1.48699
1.47474
1.47177
1.48732
1.54682
1.60167
1.62093
1.62383
1.61912
1.65604
3.94633
22.2047
1.08325
1.09122
1.13619
1.19258
1.20892
1.21335
1.21148
1.1931
1.16105
1.13803
1.1301
1.13074
1.13862
1.15594
1.17494
1.18535
1.19039
1.20953
1.24109
1.2615
1.27016
1.27006
1.2679
1.2644
1.25296
1.22529
1.20089
1.19905
1.20727
1.22477
1.24516
1.26082
1.27941
1.29751
1.30815
1.31256
1.31653
1.32009
1.32677
1.3334
1.33096
1.32141
1.31054
1.29483
1.27392
1.26126
1.26007
1.26499
1.29723
1.37237
1.42728
1.45049
1.46267
1.46748
1.46338
1.43782
1.38568
1.35512
1.34955
1.35751
1.36774
1.37381
1.37583
1.38671
1.4311
1.47886
1.50932
1.52859
1.54108
1.54823
1.55018
1.53655
1.49524
1.45945
1.44519
1.44469
1.44843
1.45933
1.50001
1.54468
1.56853
1.57819
1.58161
1.58041
1.58091
1.58005
1.55516
1.50998
1.47261
1.45881
1.45998
1.47733
1.54066
1.59418
1.61098
1.60705
1.65374
4.03983
22.2922
1.08543
1.11624
1.15961
1.19052
1.20652
1.20736
1.18799
1.16463
1.1496
1.14289
1.14236
1.15455
1.17638
1.19298
1.20014
1.19034
1.17969
1.17871
1.19766
1.23604
1.25387
1.2608
1.26743
1.27291
1.2727
1.25565
1.23582
1.23069
1.23497
1.24262
1.24751
1.24494
1.23437
1.23603
1.26009
1.29674
1.32326
1.34376
1.35969
1.36842
1.37054
1.35432
1.31638
1.27854
1.25768
1.2526
1.2544
1.26209
1.28268
1.33376
1.41108
1.4493
1.46105
1.45756
1.44441
1.43649
1.4251
1.40154
1.38809
1.38551
1.3843
1.37727
1.36684
1.36495
1.37615
1.4185
1.47722
1.5166
1.53683
1.54695
1.55092
1.54937
1.52811
1.48643
1.45468
1.44417
1.44564
1.45047
1.46272
1.49515
1.53515
1.56185
1.5735
1.57654
1.57917
1.58313
1.58303
1.55508
1.5018
1.46572
1.45346
1.45256
1.47165
1.53641
1.58207
1.5867
1.63443
4.14037
22.3766
1.11566
1.14861
1.15653
1.16347
1.16303
1.15749
1.15361
1.15148
1.1519
1.16102
1.18552
1.20457
1.21306
1.21564
1.20207
1.17438
1.15482
1.1506
1.15525
1.1875
1.23606
1.26213
1.27604
1.28386
1.28921
1.28654
1.27087
1.25814
1.25228
1.24714
1.2312
1.21312
1.20788
1.21096
1.22135
1.26128
1.32348
1.36384
1.38138
1.38892
1.39215
1.38164
1.33584
1.28163
1.25907
1.25503
1.26004
1.28489
1.31575
1.33392
1.35818
1.3996
1.42223
1.42644
1.42867
1.43468
1.44455
1.4537
1.44259
1.41874
1.39545
1.37387
1.36132
1.3584
1.36223
1.37378
1.41744
1.48424
1.52073
1.53167
1.53363
1.5332
1.53184
1.52124
1.49302
1.46557
1.45337
1.4513
1.45188
1.45726
1.47872
1.52372
1.55658
1.57055
1.57725
1.58055
1.58497
1.5844
1.55224
1.50065
1.46397
1.45066
1.44832
1.46553
1.52418
1.5497
1.60065
4.24985
22.4537
1.14835
1.16034
1.14446
1.11016
1.09783
1.10585
1.12747
1.15004
1.17861
1.214
1.23376
1.23791
1.23498
1.21952
1.17764
1.14379
1.13531
1.13804
1.1439
1.15722
1.20706
1.26421
1.28681
1.29623
1.30197
1.30425
1.29698
1.28228
1.26445
1.23901
1.21208
1.19777
1.19679
1.20059
1.20598
1.22904
1.30218
1.36455
1.38449
1.39145
1.3875
1.36507
1.33907
1.31013
1.28608
1.28137
1.2942
1.31825
1.32945
1.33118
1.32453
1.32439
1.35455
1.39522
1.42162
1.44093
1.46398
1.47983
1.48328
1.46627
1.42824
1.3884
1.36541
1.36023
1.36392
1.36997
1.37799
1.41713
1.47581
1.505
1.51842
1.52732
1.53322
1.5367
1.53102
1.50382
1.46856
1.44866
1.44109
1.43775
1.4415
1.47238
1.52883
1.5645
1.57801
1.58358
1.58664
1.58936
1.58049
1.54763
1.50191
1.46222
1.44338
1.43757
1.45218
1.49508
1.55658
4.35257
22.5236
1.16106
1.14636
1.09591
1.06621
1.06252
1.06935
1.09248
1.15191
1.22689
1.26469
1.27217
1.26635
1.2468
1.20106
1.14807
1.12766
1.12746
1.13249
1.13993
1.15303
1.18418
1.2455
1.28788
1.30119
1.30575
1.30808
1.30892
1.30541
1.28645
1.24884
1.21669
1.20232
1.20133
1.20535
1.21783
1.24128
1.26857
1.31745
1.35566
1.36887
1.36888
1.35917
1.3525
1.34954
1.34421
1.33885
1.33853
1.33978
1.33707
1.31842
1.29509
1.29028
1.30089
1.34196
1.40008
1.44716
1.47535
1.48728
1.49193
1.49061
1.46954
1.42448
1.3893
1.37435
1.3696
1.36728
1.36895
1.3762
1.41303
1.47073
1.50834
1.52636
1.53419
1.54008
1.54383
1.5361
1.50583
1.46236
1.43664
1.42919
1.43192
1.44259
1.47918
1.54144
1.57356
1.58315
1.58415
1.58655
1.58519
1.57106
1.54697
1.50518
1.46033
1.43307
1.4199
1.42741
1.50577
4.41989
22.5798
1.16003
1.09189
1.05235
1.04404
1.04665
1.05338
1.06932
1.15011
1.25285
1.27987
1.28535
1.28412
1.25287
1.18602
1.14414
1.1299
1.12993
1.13644
1.15646
1.18175
1.19701
1.21181
1.24849
1.28091
1.29346
1.29871
1.30438
1.30995
1.31109
1.28568
1.24603
1.22494
1.22142
1.22442
1.23331
1.24417
1.24909
1.25835
1.29324
1.33275
1.3532
1.3609
1.37052
1.38595
1.39921
1.39874
1.3808
1.35816
1.32993
1.29819
1.28229
1.28138
1.28667
1.30124
1.35627
1.43716
1.47496
1.48543
1.48754
1.48118
1.47123
1.45809
1.43163
1.40061
1.37817
1.36865
1.36818
1.37079
1.37669
1.4063
1.46405
1.50611
1.52619
1.53543
1.54127
1.54348
1.53921
1.50548
1.45813
1.43469
1.43031
1.44101
1.45546
1.48819
1.54296
1.57144
1.57727
1.5773
1.57836
1.57352
1.56667
1.55038
1.50779
1.45807
1.42563
1.39582
1.43907
4.43262
22.631
1.14648
1.06345
1.04265
1.04182
1.0452
1.05354
1.09513
1.18262
1.24954
1.27553
1.27934
1.25976
1.21905
1.18429
1.1579
1.14905
1.15514
1.1728
1.19165
1.19865
1.19738
1.19237
1.19417
1.22115
1.2671
1.29632
1.31177
1.32054
1.32664
1.31974
1.28626
1.25416
1.23957
1.23663
1.237
1.23589
1.2373
1.24065
1.24619
1.27214
1.32152
1.36573
1.39327
1.4144
1.4281
1.43342
1.42539
1.38528
1.33255
1.30041
1.28898
1.29079
1.30597
1.32639
1.34854
1.38749
1.43824
1.45963
1.46404
1.46605
1.46913
1.47416
1.4729
1.45207
1.41992
1.39343
1.37773
1.37046
1.3673
1.3692
1.39067
1.4541
1.50697
1.52981
1.54173
1.54968
1.54533
1.53968
1.50976
1.46632
1.44542
1.44504
1.44817
1.45295
1.48146
1.53148
1.55783
1.56452
1.56823
1.5758
1.57063
1.56246
1.54935
1.50784
1.45785
1.40435
1.38136
4.36457
22.6889
1.12546
1.06589
1.04913
1.0499
1.06095
1.09928
1.14652
1.18235
1.21668
1.23259
1.22904
1.21772
1.20914
1.20089
1.19592
1.19745
1.20138
1.205
1.20528
1.19534
1.18011
1.1726
1.17304
1.18001
1.22308
1.29295
1.32243
1.33104
1.33475
1.32971
1.31386
1.28544
1.255
1.23865
1.23398
1.23608
1.24131
1.24351
1.24262
1.2462
1.26671
1.32614
1.38469
1.41477
1.42793
1.43097
1.42393
1.39929
1.35961
1.32871
1.31994
1.32724
1.33813
1.3457
1.34515
1.34362
1.36084
1.40222
1.43281
1.45255
1.4701
1.48466
1.49321
1.49293
1.47143
1.42735
1.38738
1.3654
1.35559
1.35369
1.35753
1.39094
1.46979
1.52692
1.54628
1.55094
1.54796
1.54721
1.54638
1.51827
1.47584
1.45157
1.44469
1.44769
1.45088
1.47033
1.51835
1.5473
1.55835
1.56616
1.56882
1.55972
1.55674
1.54248
1.50339
1.44014
1.38144
4.22976
22.7545
1.12306
1.0839
1.07863
1.08867
1.11564
1.14642
1.16128
1.16874
1.16664
1.16503
1.17666
1.1947
1.21307
1.23472
1.24838
1.24976
1.24181
1.22415
1.19667
1.16786
1.15788
1.15914
1.16394
1.17682
1.20761
1.2612
1.31121
1.32901
1.33274
1.32111
1.30308
1.29461
1.28375
1.26204
1.25061
1.25131
1.25824
1.26335
1.25932
1.25653
1.259
1.26862
1.31115
1.36889
1.39703
1.40515
1.40542
1.40417
1.40018
1.39247
1.38177
1.37021
1.36119
1.34963
1.32895
1.3159
1.31777
1.33757
1.38395
1.4373
1.47816
1.49877
1.50531
1.50651
1.49578
1.46323
1.4112
1.36904
1.35378
1.35212
1.35732
1.37828
1.41731
1.48103
1.52919
1.54617
1.54655
1.54602
1.55035
1.55151
1.52726
1.48716
1.4625
1.45167
1.44455
1.44347
1.46119
1.50685
1.5365
1.55082
1.55974
1.55541
1.55098
1.5473
1.53055
1.48529
1.41947
4.07318
22.8384
1.13462
1.12448
1.12983
1.14297
1.1537
1.15777
1.15735
1.1356
1.1189
1.11887
1.13134
1.16968
1.22904
1.26821
1.28175
1.28495
1.27768
1.24404
1.18467
1.15829
1.15586
1.15934
1.17081
1.20632
1.23904
1.25014
1.25978
1.27403
1.2823
1.28717
1.29206
1.29857
1.30603
1.31021
1.30922
1.30372
1.2946
1.28174
1.26684
1.25643
1.24965
1.24347
1.24675
1.28325
1.34763
1.38317
1.39679
1.4129
1.43902
1.45034
1.4402
1.41342
1.38004
1.33967
1.30999
1.30067
1.30374
1.31193
1.33468
1.40634
1.47423
1.4967
1.50256
1.5023
1.48628
1.46129
1.44054
1.40345
1.37282
1.36531
1.37396
1.39565
1.40488
1.4158
1.4649
1.51428
1.53579
1.54295
1.54697
1.55275
1.55945
1.54111
1.50182
1.47034
1.44893
1.43819
1.43436
1.45139
1.49371
1.52508
1.54466
1.55285
1.54515
1.54189
1.53676
1.51373
1.48018
3.94921
22.9245
1.15954
1.16633
1.17245
1.17414
1.17296
1.16013
1.12442
1.10433
1.10182
1.10526
1.1122
1.144
1.22791
1.27512
1.28615
1.28871
1.27165
1.22955
1.19098
1.16897
1.16671
1.17746
1.21346
1.24712
1.2556
1.24434
1.21037
1.19469
1.20615
1.24681
1.28329
1.30608
1.33588
1.3645
1.37596
1.36761
1.33462
1.29487
1.26458
1.24534
1.23242
1.2258
1.22552
1.23161
1.26633
1.33544
1.39211
1.43571
1.46585
1.4767
1.47474
1.45801
1.40948
1.34594
1.31162