/*--------------------------------*- C++ -*----------------------------------*\
  =========                 |
  \\      /  F ield         | OpenFOAM: The Open Source CFD Toolbox
   \\    /   O peration     | Website:  https://openfoam.org
    \\  /    A nd           | Version:  12
     \\/     M anipulation  |
\*---------------------------------------------------------------------------*/
FoamFile
{
    format      ascii;
    class       surfaceScalarField;
    location    "22.7";
    object      phi;
}
// * * * * * * * * * * * * * * * * * * * * * * * * * * * * * * * * * * * * * //

dimensions      [1 0 -1 0 0 0 0];

internalField   nonuniform List<scalar> 
19404
(
-0.000121756
4.51041e-07
-0.00011978
5.08673e-07
-0.00011975
-1.14586e-07
-0.000120704
-1.3015e-06
-0.000124994
-1.36193e-06
-0.000132775
-3.13889e-07
-0.000136809
6.91749e-07
-0.000136931
1.4534e-06
-0.000136711
1.82478e-06
-0.000135612
1.66757e-06
-0.000131052
1.49482e-06
-0.000126462
5.68113e-07
-0.000126235
1.5098e-07
-0.000126627
-1.00174e-06
-0.00012879
-1.67523e-06
-0.000131384
-9.56334e-07
-0.000134348
-3.14519e-07
-0.000136974
3.45299e-07
-0.000137532
1.15356e-06
-0.000137339
1.8058e-06
-0.000136594
1.7739e-06
-0.000133657
1.5933e-06
-0.000131648
9.3601e-07
-0.000131622
-2.39754e-07
-0.000132527
-1.34885e-06
-0.000136051
-1.86906e-06
-0.00013802
-6.00439e-07
-0.000138192
2.70105e-07
-0.000137747
5.09919e-07
-0.000137275
9.70603e-07
-0.00013721
1.41864e-06
-0.000137373
1.67774e-06
-0.000137364
1.44145e-06
-0.000137146
1.19884e-06
-0.000137118
2.75419e-07
-0.000137358
-7.50743e-07
-0.000139208
-1.54456e-06
-0.000141871
-1.50813e-06
-0.00014179
-5.20891e-07
-0.000140966
6.86553e-07
-0.000139483
7.27856e-07
-0.000138798
1.28607e-06
-0.000138764
1.4114e-06
-0.00013954
1.30501e-06
-0.000141924
9.74097e-07
-0.000142902
8.87861e-07
-0.000143306
3.81601e-07
-0.000143418
-2.9361e-07
-0.000143832
-8.99006e-07
-0.000144409
-1.30548e-06
-0.000143553
-6.25975e-07
-0.000141923
2.05212e-07
-0.000141048
5.58824e-07
-0.00014088
8.23818e-07
-0.000141038
8.74685e-07
-0.000143841
8.42107e-07
-0.000147752
9.33014e-07
-0.000149277
8.49536e-07
-0.000149718
5.98115e-07
-0.000149585
1.66291e-07
-0.000148465
-4.07141e-07
-0.000146824
-1.19083e-06
-0.000144347
-1.04823e-06
-0.00014268
4.29946e-07
-0.000142262
2.14708e-07
-0.000142308
4.31055e-07
-0.000143027
3.02562e-07
-0.000148566
7.44233e-07
-0.000153044
8.24781e-07
-0.000154267
8.25905e-07
-0.000154503
6.53333e-07
-0.000154146
2.74176e-07
-0.000151413
-4.04331e-07
-0.000146369
-9.32679e-07
-0.000142402
-7.42821e-07
-0.000141311
-3.92941e-07
-0.000141284
3.12403e-07
-0.000141972
2.64117e-08
-0.000148834
5.62673e-08
-0.00015545
1.12712e-07
-0.000157382
3.99677e-07
-0.000157852
6.54329e-07
-0.000157926
6.07635e-07
-0.000156466
2.11934e-07
-0.000148361
-6.98536e-07
-0.000139248
6.57012e-08
-0.000135619
-5.4764e-08
-0.000135581
-5.31191e-07
-0.000137292
-1.19722e-06
-0.000148748
-1.67099e-06
-0.000157519
-1.33681e-06
-0.00016007
-1.33825e-07
-0.000160557
4.20277e-07
-0.000159916
3.36468e-08
-0.000151792
-3.77695e-07
-0.000138167
-3.0643e-07
-0.000120299
-5.47041e-06
-0.000114828
-3.37742e-05
1.74936e-05
-0.000138022
2.2718e-06
-0.000133294
2.51853e-06
-0.000131286
5.22869e-07
-0.000131141
-1.32709e-06
-0.000131296
-2.40144e-06
-0.000134444
-2.78994e-06
-0.000139646
-1.39048e-06
-0.000142631
1.09544e-06
-0.000143309
2.17336e-06
-0.000143112
2.7188e-06
-0.000142812
3.1819e-06
-0.000141334
2.44316e-06
-0.000137134
1.81438e-06
-0.000135133
-6.53416e-07
-0.000134982
-2.0467e-06
-0.000135042
-2.40994e-06
-0.000136299
-2.61819e-06
-0.000138561
-1.09155e-06
-0.000141192
8.48966e-07
-0.000143055
2.31899e-06
-0.000143542
2.98539e-06
-0.0001435
3.13983e-06
-0.000143551
2.69506e-06
-0.000142586
1.59195e-06
-0.00014054
-4.15292e-07
-0.000139656
-2.4235e-06
-0.000139262
-2.27409e-06
-0.000139469
-1.88047e-06
-0.000139579
-3.44489e-07
-0.000139532
7.82877e-07
-0.000140103
1.50169e-06
-0.000142575
2.27735e-06
-0.000144691
2.8481e-06
-0.000145948
2.58973e-06
-0.000146434
1.6275e-06
-0.000146199
5.5234e-07
-0.000144927
-9.40873e-07
-0.000143054
-2.30443e-06
-0.000142011
-2.0555e-06
-0.000141343
-8.0887e-07
-0.000140701
6.10339e-07
-0.000140424
1.41556e-06
-0.000140541
1.69809e-06
-0.000143127
1.86284e-06
-0.000147115
2.00376e-06
-0.000148883
1.7521e-06
-0.00014935
1.19976e-06
-0.000149394
5.82125e-07
-0.000148547
-2.09205e-07
-0.000145752
-1.58005e-06
-0.00014368
-1.38468e-06
-0.000142224
3.38021e-08
-0.000141476
6.24796e-07
-0.000141331
9.62999e-07
-0.000141554
1.11859e-06
-0.000144785
1.23801e-06
-0.000149252
1.44735e-06
-0.000151323
1.29147e-06
-0.00015195
9.37919e-07
-0.000152037
4.53987e-07
-0.000151583
6.21166e-08
-0.000147888
-8.27109e-07
-0.000144589
-1.17674e-06
-0.000143009
-2.17117e-07
-0.000142375
4.1061e-07
-0.000142349
6.8005e-07
-0.00014309
6.91583e-07
-0.000148115
9.76143e-07
-0.000152788
1.192e-06
-0.000154607
1.12007e-06
-0.000155039
8.80661e-07
-0.000155104
5.46937e-07
-0.000153588
6.46032e-08
-0.000146926
-6.07324e-07
-0.000142906
-8.95077e-07
-0.000141548
-4.26577e-07
-0.000141276
-1.95196e-07
-0.000141662
-2.30691e-07
-0.000146576
-1.90326e-07
-0.000153573
3.31826e-07
-0.000156571
7.99322e-07
-0.000157475
8.4404e-07
-0.000157679
6.03264e-07
-0.000156851
3.95385e-07
-0.000148679
-3.15151e-07
-0.000139677
-1.11772e-06
-0.000136084
-1.64163e-06
-0.000135566
-1.97727e-06
-0.000136012
-2.45452e-06
-0.000142171
-3.21362e-06
-0.000150461
-2.55744e-06
-0.000153839
-1.22466e-06
-0.000154382
-1.00965e-06
-0.000153872
-1.61549e-06
-0.000145691
-2.93918e-06
-0.000131032
-4.01206e-06
-0.000112689
-1.14065e-05
-0.000122669
-4.86161e-05
2.94312e-05
-0.000138443
2.75245e-06
-0.000136839
2.42921e-06
-0.000134822
1.26694e-06
-0.000133255
-3.10064e-07
-0.000132937
-1.69759e-06
-0.000132903
-2.52825e-06
-0.000135204
-1.9868e-06
-0.000139578
-3.35914e-07
-0.000141667
1.80135e-06
-0.000142075
2.84234e-06
-0.000142121
3.01531e-06
-0.000142143
2.50548e-06
-0.000141339
1.92116e-06
-0.000137587
9.40926e-07
-0.000135651
-1.20281e-06
-0.00013536
-2.43971e-06
-0.000134925
-2.06201e-06
-0.000135105
-1.13313e-06
-0.000137672
-9.36531e-08
-0.000140697
1.65611e-06
-0.000142556
2.90737e-06
-0.000144294
2.96881e-06
-0.000144989
2.34122e-06
-0.000144901
1.67207e-06
-0.000142795
9.34645e-07
-0.000139682
-7.83367e-07
-0.000137994
-2.35442e-06
-0.000137056
-1.52669e-06
-0.000136837
-6.38883e-07
-0.000137239
2.263e-07
-0.000138317
9.89137e-07
-0.000141368
1.77932e-06
-0.000145397
2.63417e-06
-0.000147526
2.09182e-06
-0.000147918
1.56093e-06
-0.000147881
9.53003e-07
-0.000146128
3.9152e-07
-0.000142245
-5.88492e-07
-0.000139216
-1.1911e-06
-0.000138214
-2.5659e-07
-0.000138195
1.3473e-07
-0.000138532
6.83323e-07
-0.000139182
1.05403e-06
-0.000142414
1.43627e-06
-0.000147535
1.75056e-06
-0.000149699
1.3669e-06
-0.000150008
1.14733e-06
-0.00015006
8.00235e-07
-0.000149332
2.62033e-07
-0.000144476
-1.6414e-07
-0.000140778
1.37213e-07
-0.000139805
2.31836e-07
-0.000139589
3.87937e-07
-0.000139668
6.12633e-07
-0.000140147
7.7834e-07
-0.00014384
9.31077e-07
-0.000149085
1.19917e-06
-0.000151401
1.04581e-06
-0.000151977
8.42377e-07
-0.000152023
4.5353e-07
-0.000151508
2.0583e-07
-0.000146478
2.75359e-07
-0.000141797
3.49172e-07
-0.000140539
1.36461e-07
-0.000140239
1.41048e-07
-0.000140308
2.95154e-07
-0.000141069
3.68604e-07
-0.000146015
4.47415e-07
-0.000151601
7.61372e-07
-0.000153962
9.5732e-07
-0.000154529
9.20577e-07
-0.000154552
7.09824e-07
-0.000152787
6.11772e-07
-0.00014542
3.74519e-07
-0.000140434
-1.00644e-07
-0.000139066
-6.26051e-07
-0.000138797
-7.36955e-07
-0.000138886
-7.55633e-07
-0.00014198
-8.09656e-07
-0.000150218
-3.04577e-07
-0.000154681
5.80595e-07
-0.000155546
8.39366e-07
-0.000155734
8.13959e-07
-0.000154927
7.08872e-07
-0.00014783
4.32555e-07
-0.000138136
-7.91783e-07
-0.000132984
-2.45989e-06
-0.000131843
-3.61628e-06
-0.000131788
-4.09492e-06
-0.000134106
-4.78866e-06
-0.000142573
-4.74649e-06
-0.000147618
-3.46689e-06
-0.000148812
-3.08573e-06
-0.000148768
-3.82867e-06
-0.000142528
-5.44812e-06
-0.000129719
-7.54489e-06
-0.000112713
-1.7113e-05
-0.000126985
-5.06625e-05
3.64863e-05
-0.000139258
2.19333e-06
-0.000139265
1.77202e-06
-0.000138908
1.22233e-06
-0.000136817
7.65692e-07
-0.000132472
2.31636e-07
-0.000130028
-6.88123e-07
-0.000129969
-4.23771e-07
-0.000131367
-1.7847e-07
-0.00013734
1.56034e-07
-0.000141916
1.39368e-06
-0.000143002
2.29076e-06
-0.000143067
1.82965e-06
-0.000142981
1.46357e-06
-0.00014188
1.01276e-06
-0.000137861
6.29115e-07
-0.000133052
-5.65205e-07
-0.000130875
3.18609e-08
-0.000130639
3.62767e-09
-0.000131231
-5.19508e-08
-0.000136374
1.4472e-08
-0.000142998
1.18142e-06
-0.000145445
2.128e-06
-0.000145837
1.64293e-06
-0.000145818
1.2937e-06
-0.000145453
9.24793e-07
-0.000141515
2.66761e-07
-0.000134753
1.64826e-07
-0.0001326
3.56699e-07
-0.000132471
9.70641e-08
-0.000132802
-9.55463e-08
-0.000134608
-2.25793e-07
-0.000140518
2.98128e-07
-0.000146245
1.35321e-06
-0.000148059
1.51642e-06
-0.000148205
1.22795e-06
-0.000148152
9.24418e-07
-0.000147332
8.09869e-07
-0.000140789
1.14261e-06
-0.000134946
1.35433e-06
-0.000134151
7.97151e-07
-0.000134264
2.11487e-07
-0.00013492
-3.20471e-07
-0.000136696
-3.96466e-07
-0.000142014
1.06626e-08
-0.000147802
8.26014e-07
-0.000149694
1.05471e-06
-0.000149859
1.01691e-06
-0.000149803
9.91924e-07
-0.000148297
1.24814e-06
-0.000142113
1.59276e-06
-0.000137383
1.49069e-06
-0.000136647
7.21886e-07
-0.000136679
1.14139e-07
-0.000136894
-1.73355e-07
-0.000137889
-2.97625e-07
-0.00014273
-1.34127e-07
-0.000148992
4.59755e-07
-0.000150785
7.95108e-07
-0.000150844
9.11951e-07
-0.000150782
1.11231e-06
-0.000149528
1.37858e-06
-0.000144174
1.57957e-06
-0.000138656
1.33557e-06
-0.000137127
3.01697e-07
-0.000137159
-2.56822e-07
-0.000137244
-5.29635e-07
-0.000138285
-6.77807e-07
-0.000143738
-5.33193e-07
-0.000149615
6.70134e-08
-0.000151312
6.307e-07
-0.000151588
1.09489e-06
-0.000151546
1.37736e-06
-0.000150207
1.47702e-06
-0.00014366
1.27879e-06
-0.00013719
4.16991e-07
-0.00013525
-9.39225e-07
-0.000135193
-1.48729e-06
-0.000135277
-1.68213e-06
-0.000137103
-1.83652e-06
-0.000144333
-1.50747e-06
-0.000149411
-2.23545e-07
-0.000150561
8.39073e-07
-0.000150746
1.2362e-06
-0.000150633
1.20008e-06
-0.000146845
9.43085e-07
-0.000137665
-2.08712e-07
-0.00013017
-2.68546e-06
-0.000127163
-4.52402e-06
-0.000126833
-6.12547e-06
-0.000127166
-6.78195e-06
-0.000131461
-7.25412e-06
-0.000136452
-6.56777e-06
-0.000138167
-6.01652e-06
-0.000138429
-7.0002e-06
-0.00013552
-8.37993e-06
-0.000128194
-9.88274e-06
-0.000118045
-1.75141e-05
-0.000123848
-4.76209e-05
4.3452e-05
-0.000139633
9.89465e-07
-0.000139486
1.29667e-06
-0.000139288
1.01784e-06
-0.000138144
9.51122e-07
-0.000133201
1.62809e-06
-0.000129221
1.84599e-06
-0.000128983
1.0671e-06
-0.000129081
3.29011e-07
-0.000132046
-1.43165e-07
-0.000139411
-4.85294e-07
-0.000142735
6.01878e-07
-0.00014294
1.13908e-06
-0.000142822
1.03396e-06
-0.000142318
1.03141e-06
-0.0001374
1.50182e-06
-0.000130947
2.10665e-06
-0.000129366
1.54717e-06
-0.000129292
8.89063e-07
-0.000129364
2.91839e-07
-0.000132026
-2.65774e-07
-0.000140831
-8.99146e-07
-0.000145174
2.60244e-07
-0.000145546
8.95882e-07
-0.000145465
8.98424e-07
-0.000144907
1.09177e-06
-0.000139703
1.81819e-06
-0.00013284
2.30584e-06
-0.000131059
1.58651e-06
-0.000130979
8.12938e-07
-0.000130977
1.44272e-07
-0.000131748
-3.28768e-07
-0.000137172
-9.08262e-07
-0.000144913
-5.31089e-07
-0.000146921
6.05928e-07
-0.000146934
1.04289e-06
-0.000146575
1.55988e-06
-0.000144436
2.21e-06
-0.000139008
2.59725e-06
-0.000134694
2.3852e-06
-0.000133344
1.1184e-06
-0.000133044
3.35839e-07
-0.000133062
-3.09797e-07
-0.000133805
-9.53425e-07
-0.000138643
-1.29221e-06
-0.00014515
-4.56729e-07
-0.000146978
7.54382e-07
-0.000147112
1.44313e-06
-0.000146729
1.96935e-06
-0.000145238
2.31606e-06
-0.000141268
2.33592e-06
-0.000136825
1.87177e-06
-0.000135012
6.99714e-07
-0.000134833
-1.16427e-07
-0.000134889
-5.86854e-07
-0.000135389
-9.62099e-07
-0.000139022
-9.89702e-07
-0.000144885
-2.38841e-07
-0.000146965
8.88425e-07
-0.000147269
1.62997e-06
-0.000147143
2.04188e-06
-0.000146451
2.25478e-06
-0.000143185
2.09116e-06
-0.000137706
1.39228e-06
-0.00013502
9.66156e-08
-0.000134709
-7.58896e-07
-0.000134742
-1.19153e-06
-0.000135097
-1.38667e-06
-0.000138789
-1.35361e-06
-0.000144506
-4.24416e-07
-0.000146724
7.74865e-07
-0.00014723
1.50636e-06
-0.000147328
1.84435e-06
-0.000147024
1.95643e-06
-0.000143041
1.73048e-06
-0.00013583
5.27976e-07
-0.000132286
-1.19372e-06
-0.00013188
-2.22392e-06
-0.000131889
-2.76189e-06
-0.000132415
-2.91655e-06
-0.000136906
-2.72265e-06
-0.000143243
-1.31339e-06
-0.000145649
3.90195e-07
-0.000146052
1.2872e-06
-0.000146219
1.46118e-06
-0.000144873
1.27064e-06
-0.000138216
5.37235e-07
-0.000129899
-2.14241e-06
-0.000124424
-4.67061e-06
-0.000122839
-6.81906e-06
-0.000122765
-8.42208e-06
-0.000124296
-9.22359e-06
-0.000129002
-9.3643e-06
-0.000132117
-9.00882e-06
-0.000133245
-9.88804e-06
-0.000133223
-1.17713e-05
-0.000129906
-1.32614e-05
-0.00012302
-1.72981e-05
-0.000121014
-4.49941e-05
5.09836e-05
-0.00013834
-2.78441e-07
-0.000138314
6.7371e-07
-0.000137748
1.1134e-06
-0.000134585
2.05606e-06
-0.0001312
2.79685e-06
-0.000130376
2.85362e-06
-0.00013011
2.30163e-06
-0.000130131
1.14252e-06
-0.000131434
-1.89424e-07
-0.000135252
-9.68702e-07
-0.000139312
-9.57948e-07
-0.000140462
1.1153e-08
-0.00014046
7.67819e-07
-0.00013896
1.66891e-06
-0.000134533
2.73489e-06
-0.000131016
3.22567e-06
-0.000129952
2.49648e-06
-0.000129706
1.57974e-06
-0.000129829
6.95674e-07
-0.000131889
-4.83124e-07
-0.000136757
-1.40691e-06
-0.000141067
-1.28902e-06
-0.000142219
-1.04335e-07
-0.000142215
1.07118e-06
-0.000140894
2.03385e-06
-0.000137456
2.89164e-06
-0.000133634
3.187e-06
-0.000131591
2.57154e-06
-0.000131142
1.29105e-06
-0.000131091
3.32144e-07
-0.000131501
-4.37723e-07
-0.000134313
-1.11538e-06
-0.000139444
-1.30296e-06
-0.00014195
-2.79362e-07
-0.000142487
1.20475e-06
-0.000142166
2.22089e-06
-0.000141273
2.72325e-06
-0.000138919
2.82768e-06
-0.000135532
2.42699e-06
-0.000133621
1.46493e-06
-0.000133035
4.94856e-07
-0.000132881
-2.94106e-07
-0.000132916
-8.84519e-07
-0.000134349
-1.18614e-06
-0.000138914
-7.27149e-07
-0.000141723
6.14656e-07
-0.000142578
1.67847e-06
-0.000142682
2.17418e-06
-0.00014258
2.4064e-06
-0.000141044
2.42582e-06
-0.000137128
1.75569e-06
-0.000134563
5.9627e-07
-0.00013379
-3.20785e-07
-0.000133569
-7.26193e-07
-0.000133601
-8.47634e-07
-0.000134436
-8.50887e-07
-0.000138737
-3.76652e-07
-0.000141991
9.08702e-07
-0.000143134
1.92807e-06
-0.000143526
2.29868e-06
-0.000143562
2.19897e-06
-0.000142729
2.05357e-06
-0.000138129
1.48366e-06
-0.000134066
-5.58406e-08
-0.000132819
-1.16348e-06
-0.000132532
-1.54434e-06
-0.000132533
-1.52172e-06
-0.000133576
-1.45783e-06
-0.0001387
-7.93562e-07
-0.00014234
7.03556e-07
-0.000143399
1.71242e-06
-0.000143776
2.0837e-06
-0.000143866
1.95816e-06
-0.000142812
1.65757e-06
-0.000136886
7.34522e-07
-0.000131419
-1.25308e-06
-0.000129211
-2.70108e-06
-0.000128769
-3.57856e-06
-0.000128811
-3.56357e-06
-0.000130126
-3.64197e-06
-0.000135908
-2.89009e-06
-0.000140741
-9.33657e-07
-0.000142437
5.99012e-07
-0.000142872
1.08768e-06
-0.000142893
1.01019e-06
-0.000139933
8.92731e-07
-0.000132269
-1.13975e-06
-0.000125334
-4.06394e-06
-0.00012101
-6.84879e-06
-0.000120006
-8.75768e-06
-0.000120103
-1.05911e-05
-0.000122667
-1.12862e-05
-0.00012676
-1.14497e-05
-0.000128944
-1.20178e-05
-0.000129595
-1.43129e-05
-0.000128963
-1.65253e-05
-0.000126922
-1.77484e-05
-0.000120565
-4.15718e-05
5.64063e-05
-0.000133248
-1.08865e-06
-0.000133889
-3.9006e-07
-0.000133199
1.18495e-06
-0.000131649
2.32098e-06
-0.0001312
3.118e-06
-0.000131062
3.14704e-06
-0.000131524
2.65455e-06
-0.0001328
1.72043e-06
-0.000133549
7.48162e-07
-0.000134081
-4.86115e-07
-0.00013484
-7.82363e-07
-0.000135558
-5.13382e-07
-0.000135434
4.09111e-07
-0.000133804
1.57033e-06
-0.000132426
2.37873e-06
-0.000131657
3.15901e-06
-0.000131094
2.75644e-06
-0.00013096
1.91454e-06
-0.000132009
1.00266e-06
-0.000133693
1.13442e-07
-0.000134854
-1.02215e-06
-0.000135822
-7.22375e-07
-0.000136623
2.98133e-07
-0.000136777
1.09743e-06
-0.000136097
1.76134e-06
-0.000135107
2.33485e-06
-0.000134076
2.82466e-06
-0.00013299
2.51827e-06
-0.000132279
1.29371e-06
-0.000132013
6.25754e-07
-0.000132187
8.79446e-08
-0.000133228
-7.0445e-07
-0.000134503
-4.09587e-07
-0.000135941
5.49098e-07
-0.000137161
1.25271e-06
-0.000138017
1.70598e-06
-0.00013823
1.97315e-06
-0.0001381
2.11067e-06
-0.000136368
2.20994e-06
-0.000134513
1.19171e-06
-0.000133426
5.07052e-07
-0.000132849
-5.69446e-08
-0.000132431
-1.9852e-07
-0.000132431
-8.18252e-08
-0.000133488
1.27249e-07
-0.000136132
1.00008e-06
-0.00013829
1.53519e-06
-0.000139807
1.63979e-06
-0.000140287
1.71122e-06
-0.000140217
1.68289e-06
-0.000138186
1.65208e-06
-0.000135004
5.71678e-07
-0.000133302
-2.47214e-07
-0.000132224
-4.64227e-07
-0.000131553
-2.876e-07
-0.000131537
-6.48288e-08
-0.000133269
1.34351e-07
-0.000137529
9.03787e-07
-0.000139898
1.74614e-06
-0.00014104
1.9204e-06
-0.000141527
1.71019e-06
-0.000141517
1.42269e-06
-0.000139531
1.33426e-06
-0.000134523
2.11186e-07
-0.000131528
-1.13821e-06
-0.000130257
-1.4486e-06
-0.000129786
-1.32551e-06
-0.000129862
-1.19108e-06
-0.000132599
-1.00252e-06
-0.000138286
7.85718e-08
-0.000140992
1.44439e-06
-0.000141822
1.92078e-06
-0.000142139
1.76492e-06
-0.000142147
1.38133e-06
-0.000139431
8.90902e-07
-0.000132821
-4.83272e-07
-0.000128067
-2.73972e-06
-0.000126055
-3.32412e-06
-0.0001258
-3.91544e-06
-0.00012596
-4.19294e-06
-0.000128802
-4.23654e-06
-0.000135289
-3.11826e-06
-0.000139554
-1.15061e-06
-0.000141098
1.80826e-09
-0.000141451
2.38072e-07
-0.000140986
2.54554e-07
-0.000136283
-5.03712e-07
-0.000128678
-2.77822e-06
-0.00012263
-5.87229e-06
-0.000119053
-8.72651e-06
-0.00011841
-1.06827e-05
-0.000118852
-1.2542e-05
-0.000122339
-1.33076e-05
-0.000126069
-1.36864e-05
-0.000127868
-1.55623e-05
-0.000127993
-1.82193e-05
-0.00012814
-1.91992e-05
-0.000120781
-3.91304e-05
5.92145e-05
-0.000128589
-6.83177e-07
-0.000127568
-7.66715e-07
-0.000127529
1.11204e-08
-0.000128224
9.81136e-07
-0.000129409
1.99817e-06
-0.000131424
2.91028e-06
-0.000133977
2.58838e-06
-0.000134994
2.30925e-06
-0.000134909
1.75788e-06
-0.000134348
1.09845e-06
-0.000133613
8.67871e-08
-0.000131489
2.64023e-07
-0.000129735
8.04312e-07
-0.000129376
8.32807e-07
-0.000129811
8.68969e-07
-0.00013075
1.32324e-06
-0.000131235
1.93303e-06
-0.000132504
1.82009e-06
-0.000134424
1.32699e-06
-0.000134681
1.00042e-06
-0.000134423
1.03547e-06
-0.000133559
1.30119e-06
-0.000132974
1.46024e-06
-0.000132734
1.38457e-06
-0.000132751
1.32679e-06
-0.000133189
9.6747e-07
-0.000133779
9.43427e-07
-0.000133662
1.13332e-06
-0.000133057
1.10575e-06
-0.000132675
7.52642e-07
-0.000132451
5.57858e-07
-0.000132284
8.44747e-07
-0.000132271
1.2681e-06
-0.000132656
1.73286e-06
-0.000134224
1.49653e-06
-0.000135678
1.54515e-06
-0.000136274
1.23973e-06
-0.000136427
9.54492e-07
-0.00013633
7.00157e-07
-0.000135165
7.2942e-07
-0.000133604
5.21063e-07
-0.000131975
5.01102e-07
-0.000130858
7.56037e-07
-0.00013062
1.02985e-06
-0.00013102
1.12554e-06
-0.000133715
1.5776e-06
-0.000136584
1.51338e-06
-0.000138255
1.44729e-06
-0.000138944
1.18318e-06
-0.00013908
9.94909e-07
-0.000138679
8.61782e-07
-0.000135481
5.6788e-07
-0.000132106
8.63971e-08
-0.000130212
7.58725e-08
-0.000129461
1.63678e-07
-0.000129362
2.73409e-07
-0.000130026
3.81013e-07
-0.000134447
6.95349e-07
-0.000138395
1.31667e-06
-0.000139971
1.52686e-06
-0.000140493
1.36932e-06
-0.000140563
1.13335e-06
-0.000140152
9.74457e-07
-0.000135722
7.03694e-07
-0.000130534
-3.88212e-07
-0.000128048
-7.17489e-07
-0.000127451
-1.13461e-06
-0.000127398
-1.311e-06
-0.000128316
-1.37372e-06
-0.000133916
-1.03527e-06
-0.000139217
3.57914e-07
-0.000141055
1.38245e-06
-0.000141527
1.50726e-06
-0.000141641
1.27762e-06
-0.000140959
1.08624e-06
-0.000135113
7.64356e-07
-0.000128454
-1.21878e-06
-0.000125098
-3.15339e-06
-0.000123876
-3.96047e-06
-0.000123885
-4.53301e-06
-0.000124329
-4.96401e-06
-0.000128742
-5.13489e-06
-0.000135083
-3.94691e-06
-0.000138489
-2.13762e-06
-0.000139659
-1.16158e-06
-0.000139926
-9.19219e-07
-0.000138758
-3.82421e-07
-0.000133361
-1.88926e-06
-0.000126121
-4.03404e-06
-0.000120693
-7.32943e-06
-0.000117884
-1.04274e-05
-0.000117616
-1.2734e-05
-0.000118638
-1.49595e-05
-0.000123024
-1.55081e-05
-0.000126419
-1.66151e-05
-0.000127769
-1.90652e-05
-0.000128647
-2.02546e-05
-0.000121125
-3.75107e-05
6.05396e-05
-0.000125242
2.14645e-08
-0.000123416
-1.44645e-07
-0.000123192
-5.04433e-08
-0.000123567
-9.43036e-08
-0.0001259
-1.06769e-07
-0.000130993
9.79661e-07
-0.000135479
2.41852e-06
-0.000136889
2.5047e-06
-0.00013684
2.28983e-06
-0.000136503
2.21041e-06
-0.000134116
2.37548e-06
-0.000130359
1.83156e-06
-0.000127928
8.95292e-07
-0.000127367
6.20577e-07
-0.000127313
2.9855e-07
-0.000128019
-1.98475e-07
-0.000130424
-4.45368e-07
-0.000132685
8.6055e-07
-0.000134014
1.53177e-06
-0.000134049
1.99958e-06
-0.00013336
2.72788e-06
-0.000132697
2.92526e-06
-0.000132571
2.33818e-06
-0.000132477
1.85526e-06
-0.00013238
1.26757e-06
-0.000132423
6.14214e-07
-0.000132885
-2.71925e-07
-0.000132948
-2.56714e-07
-0.000132779
2.60842e-07
-0.000131819
8.02811e-07
-0.000130996
1.24341e-06
-0.000130888
1.63554e-06
-0.0001315
2.20835e-06
-0.000132517
2.62339e-06
-0.000134152
2.00882e-06
-0.000135605
1.50032e-06
-0.000136145
1.10215e-06
-0.000136202
6.41892e-07
-0.000135991
2.58381e-07
-0.000134389
1.29098e-07
-0.000131857
4.16698e-07
-0.000129899
7.72454e-07
-0.000129144
1.0614e-06
-0.00012907
1.26387e-06
-0.000129846
1.33988e-06
-0.000133627
1.64668e-06
-0.000136823
1.65708e-06
-0.000138152
1.50472e-06
-0.000138496
1.15452e-06
-0.000138536
9.17963e-07
-0.000138394
7.51997e-07
-0.000135297
8.17994e-07
-0.000130204
7.64429e-07
-0.00012816
4.83334e-07
-0.00012775
1.7081e-07
-0.000127718
1.09029e-08
-0.000128265
-2.28733e-09
-0.000132492
4.81095e-08
-0.000137886
6.83717e-07
-0.000139893
1.30718e-06
-0.000140191
1.36139e-06
-0.000140228
1.25729e-06
-0.00014004
1.28368e-06
-0.000136754
1.43877e-06
-0.000130312
9.67483e-07
-0.000126935
-4.90531e-07
-0.000126002
-1.10047e-06
-0.000126041
-1.67783e-06
-0.000126271
-2.09229e-06
-0.000129582
-2.31972e-06
-0.000136836
-1.4689e-06
-0.000140515
4.87402e-07
-0.0001412
1.35902e-06
-0.000141316
1.46177e-06
-0.000141173
1.59894e-06
-0.000138421
1.51561e-06
-0.00013103
9.23162e-07
-0.000125814
-1.81e-06
-0.000123418
-3.80721e-06
-0.000122774
-4.69264e-06
-0.000122832
-5.61904e-06
-0.00012411
-6.40171e-06
-0.000129563
-6.45689e-06
-0.000134977
-4.82967e-06
-0.000137389
-3.08427e-06
-0.000138168
-2.1698e-06
-0.000138209
-1.7624e-06
-0.00013613
-1.48944e-06
-0.000130996
-3.02961e-06
-0.000124688
-5.5933e-06
-0.0001199
-9.27596e-06
-0.000117369
-1.2885e-05
-0.000117238
-1.52037e-05
-0.000119093
-1.74268e-05
-0.000123982
-1.79232e-05
-0.000126812
-1.98877e-05
-0.000128492
-2.10757e-05
-0.000121449
-3.59341e-05
6.16273e-05
-0.000124918
2.11e-06
-0.000123061
3.92149e-07
-0.000122901
4.7468e-08
-0.000122808
-3.56693e-07
-0.000123235
-7.22148e-07
-0.000127644
-9.15008e-07
-0.000134217
6.4787e-07
-0.000136114
2.37098e-06
-0.000135945
2.94023e-06
-0.000135326
3.66236e-06
-0.000134166
3.50511e-06
-0.000131617
2.91273e-06
-0.00012893
1.70591e-06
-0.000128162
5.50601e-07
-0.000128122
-3.16046e-07
-0.000128035
-1.03378e-06
-0.00012803
-9.69299e-07
-0.000129023
-5.08818e-07
-0.000131032
7.00822e-07
-0.000132698
2.22391e-06
-0.000133505
3.35432e-06
-0.000133529
3.73784e-06
-0.000133647
3.20271e-06
-0.0001337
2.3923e-06
-0.00013351
1.56153e-06
-0.000133064
6.21073e-07
-0.000132255
-3.20992e-07
-0.000131009
-5.05785e-07
-0.000129703
-1.99375e-07
-0.000128745
4.43859e-07
-0.000128379
9.70875e-07
-0.000128601
1.3336e-06
-0.000130801
1.95871e-06
-0.000133765
2.83375e-06
-0.000135443
2.48087e-06
-0.000136294
1.95975e-06
-0.000136628
1.33433e-06
-0.000136598
8.41333e-07
-0.000135962
5.09895e-07
-0.000132014
6.14048e-07
-0.000128641
6.64308e-07
-0.000127528
5.94331e-07
-0.000127304
5.74785e-07
-0.000127337
5.69098e-07
-0.000128712
7.02805e-07
-0.000133813
1.11697e-06
-0.000137398
1.61721e-06
-0.000138235
1.47822e-06
-0.000138253
1.41361e-06
-0.000138239
1.33839e-06
-0.000137773
1.44613e-06
-0.000134547
1.7589e-06
-0.000129579
1.21609e-06
-0.000127132
5.33682e-07
-0.000126732
8.46714e-08
-0.000126771
-3.35267e-07
-0.000127257
-9.57066e-07
-0.000130922
-1.08569e-06
-0.000136969
-1.73804e-07
-0.000139349
1.06379e-06
-0.000139679
1.6735e-06
-0.000139639
2.06832e-06
-0.000139279
2.33783e-06
-0.000137399
2.35133e-06
-0.000131674
1.79415e-06
-0.000127336
9.85438e-08
-0.000125927
-1.22661e-06
-0.000125621
-2.17862e-06
-0.000125658
-3.12535e-06
-0.000126508
-3.31668e-06
-0.000131981
-3.25368e-06
-0.000137843
-1.05261e-06
-0.00013974
1.07329e-06
-0.000140057
1.95925e-06
-0.000140127
2.31985e-06
-0.0001397
2.34342e-06
-0.000135689
2.19177e-06
-0.00012879
1.81848e-07
-0.000124777
-2.91384e-06
-0.000123135
-4.91556e-06
-0.000122662
-6.1449e-06
-0.000122706
-7.07666e-06
-0.000124209
-7.50247e-06
-0.00012916
-7.13562e-06
-0.000133149
-5.33952e-06
-0.00013496
-3.76296e-06
-0.000135718
-3.02111e-06
-0.000135691
-2.83984e-06
-0.000133832
-2.86684e-06
-0.000129817
-5.11555e-06
-0.000124407
-7.93084e-06
-0.000119569
-1.18312e-05
-0.000116762
-1.55725e-05
-0.0001168
-1.74511e-05
-0.000119587
-1.9515e-05
-0.000124378
-2.09025e-05
-0.000127117
-2.23176e-05
-0.000122566
-3.33397e-05
6.26073e-05
-0.00012827
3.33995e-06
-0.000124443
1.5181e-06
-0.000123684
2.59822e-07
-0.00012349
-4.25147e-07
-0.000123377
-8.29238e-07
-0.000123729
-9.91473e-07
-0.000127719
-6.69781e-07
-0.00013281
9.21659e-07
-0.000134803
2.93616e-06
-0.000135072
3.85806e-06
-0.000134961
3.66878e-06
-0.000134517
3.46067e-06
-0.000132233
2.8247e-06
-0.000129989
1.32291e-06
-0.000128821
-1.21601e-07
-0.000127427
-8.73332e-07
-0.000125907
-6.46408e-07
-0.00012541
-3.91401e-07
-0.000125753
-1.42841e-07
-0.000128622
5.00831e-07
-0.000132283
2.22524e-06
-0.000134743
3.68388e-06
-0.00013579
3.23702e-06
-0.000136003
3.02396e-06
-0.000135776
2.43411e-06
-0.000134445
1.63162e-06
-0.000131926
4.17297e-07
-0.000128639
-1.33284e-07
-0.000126347
1.77927e-07
-0.000125694
3.30853e-07
-0.000125561
3.57336e-07
-0.000125958
4.05186e-07
-0.000129293
7.70249e-07
-0.000134635
1.9972e-06
-0.000137186
2.54361e-06
-0.000137357
2.21915e-06
-0.000137305
2.15674e-06
-0.000136987
1.91069e-06
-0.000135341
1.53434e-06
-0.00013088
1.34412e-06
-0.000127235
9.66543e-07
-0.000126103
5.97688e-07
-0.000125981
3.52869e-07
-0.000126011
5.631e-08
-0.000127345
-6.35879e-07
-0.000132938
-4.37215e-07
-0.00013722
9.6731e-07
-0.000138198
1.6814e-06
-0.000138288
2.17955e-06
-0.000138034
2.65975e-06
-0.000137227
2.94756e-06
-0.000134716
2.56721e-06
-0.000130185
1.75353e-06
-0.000127629
5.58791e-07
-0.000127047
-4.59734e-07
-0.000126994
-1.41524e-06
-0.000127027
-1.93853e-06
-0.000128152
-1.94431e-06
-0.000133518
-1.33038e-06
-0.000137471
7.68849e-07
-0.000138313
2.16432e-06
-0.000138342
2.81636e-06
-0.000138198
3.13781e-06
-0.000137855
2.67269e-06
-0.000135144
2.32694e-06
-0.000130021
8.24995e-07
-0.000127243
-1.32213e-06
-0.000126289
-2.69094e-06
-0.000125724
-3.58306e-06
-0.000125723
-3.46021e-06
-0.000126489
-3.58731e-06
-0.000131928
-2.9679e-06
-0.000136798
-3.78911e-07
-0.000138554
1.73955e-06
-0.000139011
2.50572e-06
-0.00013913
2.52586e-06
-0.000138745
2.2493e-06
-0.000134492
1.38385e-06
-0.000128482
-8.81065e-07
-0.000124717
-3.92676e-06
-0.000122619
-6.06816e-06
-0.000121838
-7.15729e-06
-0.000121873
-7.5753e-06
-0.000123306
-8.01844e-06
-0.000127729
-7.53709e-06
-0.000131351
-6.02114e-06
-0.000133339
-4.84501e-06
-0.000134242
-4.57208e-06
-0.000134241
-4.70129e-06
-0.00013286
-5.25374e-06
-0.000129545
-7.56059e-06
-0.000124223
-1.02668e-05
-0.000118822
-1.43331e-05
-0.000115771
-1.77195e-05
-0.000116096
-1.94247e-05
-0.000120477
-2.17061e-05
-0.000124523
-2.42784e-05
-0.000124626
-3.02381e-05
6.29509e-05
-0.000133369
3.54608e-06
-0.000128593
3.00365e-06
-0.000125538
1.52506e-06
-0.000124151
1.10808e-07
-0.000123231
-4.89713e-07
-0.000122892
-5.22607e-07
-0.000122899
-4.69018e-07
-0.000126038
-1.61059e-07
-0.00013239
1.0147e-06
-0.000135178
2.99655e-06
-0.000135847
3.6224e-06
-0.00013577
3.28713e-06
-0.000135455
3.11735e-06
-0.000133016
2.68261e-06
-0.000129349
1.36248e-06
-0.000126454
-3.82214e-08
-0.00012423
-1.29209e-07
-0.000123431
-5.6679e-08
-0.000123272
-9.91486e-08
-0.000123851
-1.50306e-07
-0.000128969
9.48708e-08
-0.000134955
1.88579e-06
-0.00013725
3.10252e-06
-0.000137585
2.85859e-06
-0.000137491
2.74985e-06
-0.000136632
2.69189e-06
-0.000132479
2.34879e-06
-0.000127635
1.0642e-06
-0.000125172
5.67879e-07
-0.000124537
4.10536e-07
-0.000124407
2.33226e-07
-0.000124405
7.72528e-08
-0.000126562
-2.42629e-07
-0.000133693
-9.54759e-08
-0.000137309
1.80351e-06
-0.000138056
2.35691e-06
-0.000138059
2.5774e-06
-0.0001378
2.88051e-06
-0.000135942
3.22994e-06
-0.000131315
2.83744e-06
-0.000127472
1.51672e-06
-0.000126434
5.97422e-07
-0.00012634
-2.09696e-07
-0.00012652
-1.04305e-06
-0.000126748
-1.41696e-06
-0.000129208
-1.33742e-06
-0.000134458
-1.02289e-07
-0.000136628
1.95745e-06
-0.000136884
2.94475e-06
-0.000136707
3.63247e-06
-0.000136651
3.39858e-06
-0.000136337
3.02248e-06
-0.000133509
2.38126e-06
-0.000129902
7.76015e-07
-0.000128074
-8.25712e-07
-0.000127173
-1.7548e-06
-0.000126597
-2.07729e-06
-0.000126555
-1.93061e-06
-0.000127988
-1.68526e-06
-0.000133339
-5.08876e-07
-0.000136633
1.81294e-06
-0.000137711
3.07173e-06
-0.00013809
3.23824e-06
-0.000138234
2.87969e-06
-0.000137997
2.4141e-06
-0.000134492
1.79856e-06
-0.000129649
-2.32624e-07
-0.000126919
-2.40579e-06
-0.000125177
-3.55512e-06
-0.000123994
-3.50695e-06
-0.000123931
-3.50868e-06
-0.00012513
-3.6486e-06
-0.000131283
-2.95767e-06
-0.000136242
-2.80276e-07
-0.000138056
1.61344e-06
-0.000138866
2.10923e-06
-0.000139029
1.69505e-06
-0.000138617
1.39295e-06
-0.000134257
7.50773e-07
-0.000127813
-1.23699e-06
-0.000123531
-4.33749e-06
-0.000121377