/*--------------------------------*- C++ -*----------------------------------*\
  =========                 |
  \\      /  F ield         | OpenFOAM: The Open Source CFD Toolbox
   \\    /   O peration     | Website:  https://openfoam.org
    \\  /    A nd           | Version:  12
     \\/     M anipulation  |
\*---------------------------------------------------------------------------*/
FoamFile
{
    format      ascii;
    class       volScalarField;
    location    "0.19";
    object      p;
}
// * * * * * * * * * * * * * * * * * * * * * * * * * * * * * * * * * * * * * //

dimensions      [1 -1 -2 0 0 0 0];

internalField   nonuniform List<scalar> 
23795
(
1
1
1
1
1
1.96716
1.96853
1
1
1
1
1.50247
1
7.46715
1.6985
1
1
1
1
1.7127
1
1
1
1
5.28138
1
1
1.96675
1
1
1.95395
1
1
1
1.7425
1
1
1.96698
1
1
1
2.0049
1
1
1.95602
1
5.69428
1.95249
1
7.60344
7.03893
1.96441
1
1.67624
1
1
1
1
2.02609
1.97355
1
1
1
1
1
4.32561
1
1
1.91976
1.72266
1.90395
1
1
2.00355
1
1.81212
1.89939
1
1
1.75803
1.96229
1
1.8742
1
1
2.00969
1
1
1
1
1.96886
1
1.95228
1
1
1.88098
1
1
1
1.5533
1.95267
1
1.99734
1
1.8565
1.10068
1.96332
1
1
1.95827
1
2.12893
1
1.95163
1
1
1
1.96408
1
1
1
1.94918
1.97065
1
1.96291
1
1
1
1
1
1
1
1
1
1.96806
1.68733
2.04367
1
2.05394
1
1
1.82143
1.95404
1
1.96738
1
1
1
1
1
1
1.98689
1
1.9722
1
1
1.96335
1
1
1
1.96637
1.9665
1
8.63895
1
1
1.78825
1
1.96081
1.96069
1
1.55872
1
2.03966
1.96455
1
1
1
1
1
1.79
1
1
1
1
1
1.95929
1
1
1.97811
1
1
1
1
1.96124
1
1
1
1.95964
1
4.36632
1.95454
1
1
1
1
1.96388
1
1
1
1
1
1
1
1
1
1
1.96101
4.26872
4.26789
2.12014
1
1
1.97893
1
1
1.8183
1
1
1.81503
1.96449
1
1
1
2.00792
1
1.96479
1
1.9648
1
1
1.96788
1
1
1
1
1
1
1
1.82922
1
1.96886
1
1.95927
2.07022
1
1.29537
4.09448
1
1
1
1
1
1
1
1.97888
1.99893
13.8253
2.01224
1
1.95419
1
1
1
1.98795
1
1
1
1
1.95754
1
1
1
1
1
1.57948
1
1.98275
1
1
1
1.82876
1.99071
1
1
1.95565
3.50982
1
1.95657
1
1
1
1
1.96593
1
1
1
1
1
1
1.96468
1
1.85231
1
1.64603
1
1
1
1
1
1
1.96244
1
1
1.96372
1.98409
1
1.67166
1
1
1
1
1.83135
1.95513
1
1
1
1
2.06337
1
1
1
1
1
1
1.94921
1
1
1.96078
1
1
2.06428
1
2.00334
1
1
1
1.98471
1
1
1
2.06463
1
1
1
1.95319
1
1
1
1
1
1.73733
1
2.04783
1
2.11919
1
1.96513
2.01268
1
1
1
1
1
1
1
1
1
1.76126
1
1.95618
1
3.45347
1
1
1
1.8652
1
1
1.99012
1
1
1
1.99463
1
4.11631
1
1
2.00143
1
1.00811
1
1
1
1
1
1
1
1.99749
1.96777
1.60472
4.71228
1
2.12841
1
1.82493
1
1
1.96454
1
1
1.82878
8.47244
1
1
1.95133
1
1
1
1
1
1.95834
1.41374
1
1
1
1
1.9563
1.96255
1
1
1
1.95877
1
1
1
1
1.97002
1
3.70004
1
1
1.96141
1
1
1
1
2.01826
1
1
1.99767
1
1.95153
1
1
2.01269
1
1
1
1
1.96171
1
1.96638
1
1
1
1
4.69688
1.78889
1
1.95366
1
1
1
1
1
1.77578
2.05214
1.96819
1
1
1.95986
1
1.55193
1
1
1
1
1
1
1
1
1
1
1
1
1
1.99979
1
1.97857
1.7173
1.97012
1
1.99657
1
1
1
1.82626
1
1
1
1.77873
1
1
1
1
1
1
1
1
1
1
1.96427
1.97208
1
1
1
1
1
1
1
1
2.0042
1.96558
1
1.97008
2.04817
1
1
1
1
1
2.01501
1
1.99054
1
1
1
1.9595
1.79476
1
1
1
1.95938
2.01033
1
1
1
1.64135
0.999991
1
1
1
1
1
1
1
1
1.98729
1
1
1
1
1
1.88789
1.94887
1
1
1.98968
1
1
1
1
1
1
1
1
1.86828
1
1
1
1
1
1.98988
1
1
1
1
1
1
1
1
1
1.99712
1
1
1
1
1
1.96491
1
1
1
1
1
1.95676
1.44718
1
1
1
1
1
1
1
1
2.01849
1.94375
1
1
1
1
1
1
1
1
1
1
1
1.47633
1
1
2.10354
1
1
1
1
1
1
1
1
1
1
1
2.45726
1
1
1
1
1
1
1
1
1
1
1
1
1.92963
1
1
1
1
1.96072
1
1.78442
1
1.91754
1
1
1
1.94929
1
1
1
1
1
1
1
2.03212
1
1
1
1
1
1.97084
1
1.96207
1
1.88671
2.00642
1
1
1.97129
1
1
1.94748
1
1
1
1
1
1
1
1.96022
1.9538
1
1
1
1
1
1
1
1
1
1
1
1
1
1
1
1
1
1.91833
1
1
1
1
1
1.87057
1
2.01815
2.0371
1
1
1
1
1
1
1
1
1
1
1
1
1
2.07773
1
1
1
1
1
1
1.89316
1
2.02773
1
2.04536
1
1
1
1
1
1
1
1
1
1
1
1.7979
1
1
1
1
1
1
1
1
1.23018
1
1
1.97598
1
1
1
1
1
1.98588
1
1
1
1
1
1
1
2.10996
1
1
1
1
1
1
1
1
1
1
1
1
1
2.06661
1
1.89807
1
1
1
1
1.95012
1.82093
1
1
1.87245
1.96928
1
1
1.85929
1
0.99991
1
1
1
1
1.86725
1
1
4.22457
1.85113
1.98331
1
1
1
1.82932
1
1
1
3.92769
1
2.00523
1
1
2.05654
1
1
1
1
1
1.7649
1
1
1
1
1
1
1
1
1
1
1
1
1
1
1.66313
1
1.98124
1
2.03855
1
1.7227
1
1
1
1
1
1
1
1
1
1
1
1
0.999984
1
1
1
1
1.97132
1
1.9622
1
1
1
1.95461
1
1
1
1.9796
1
1
1
1
1
2.02196
1
1
1
1
1
1.94988
1
1
1
1
1
1
1
1
1
1
1.96107
1
1.97726
1
1
1.97477
1
1
1.75287
1
3.9928
1.65558
1
1
1
1
1
1
1
1
1
1
1
1.85271
1
1
1
1
2.04571
1
1
1
1
1
1
1
1.53758
1
1
1
1
1
1.98296
1
1
1
1
1
2.0284
1
1
1.98158
1
1.97927
2.01236
1
1
1
1
1
1
1
1
1
1
1
1.91488
1.94877
1
1.90364
1
1
1
1
1
1
2.00632
1.96677
1
1.96137
1
1
1
1
1
1.9583
1
1
1
1
1
1
1
1
1
1
1
1
1
1
1
1
1
1
1
1
1
0.999999
2.04765
1
1
1.96305
1
1
1
1
1.96142
1
1
1
1.94108
1
1
1
1
1
1
1
1
1
1
1
1
1
1
1
1.82385
1
1
1
1
0.999989
1
1
4.16485
1
1.96887
2.12778
1
1
1
1
1
1
1.90755
1
1
1.79367
1
1
1
1
3.73672
1
1
1
1
1
1
1
1
1
1
1
1
1
1
1
2.01085
8.5714
1
1
1
1
1
1
1
1.9963
1
1
1
1
1
1
1
1
1
1
1
1.22171
1
2.00343
1
1
1
1
1
1
1
1.96154
1.96572
1
1
1.72031
1
1
1.96237
1
1
1
1
1
1
1
1
1
1
1
1
1
1
1
1
1
1
1.73388
1
1
1.96379
1
1
1
1
1
1
1
1
1
1
1
1
1
1
1
1
1
1
1
1
1
1
1.95336
1
1
1
1
1
1
1
1
1
1
1
1.96281
1
1
1.9635
1
1
1
1
1
1
1.67281
1
1
1
1
1
1
1
1
1
1
1
1
1
1
1
1
1
1
1
1
1.96364
1
1
1
1
1
1
1.78191
1
1
1
1
1
1
1
1
1
1
1
1
1
1
1
1
1
1
1
1
1
1
1
1
1
1.98843
1
1
1
1
1
1
1.96813
1.96006
1
1.99314
1
1
1
1
1.97993
1.95914
1.76066
1
1
1.963
1.97961
1
1
1
1
1
1
1
1
1.96313
1
1
1.51645
1
1
1
1
1
1
1
1.9542
1.97781
1
1
1.90821
1
1
1
3.69155
1
1
1
1
1
1
1
1
1
1
1.96041
1
1.96249
1
1
1
1
1
2.00249
1
1.96502
1
1
1
1
1
1
1
1.66233
1
1.95263
1
0.999986
1
1
1
1
0.999564
1
1
1.78088
1
1
1
1
1
1
1
1.95602
1
1
1
1.9601
1
1.84638
1
1
1
1
1
1.96128
1
1
1
1
1
1.97256
1.70042
1
1
1
1
1
1
1
1
1
1
1.24936
1.46774
1
1
1.71698
1
1
1
1
1
1
1
1
1
1
1.95196
1
1
1
1
1.98517
1
1
1
1
1
1
1
1
1
1
1
1
1
1
1
1
1
1
1
1
1
1
1
1
1
1.95173
1
1
1
1
1
1
5.48091
1
1
1
1
1
1
1
1
1
1
1
1
1
1
1
1
1
1
1
1
1
1.93756
1
2.00875
1
1
1
1.94949
1
2.01434
1
2.01661
1
1.96095
1.85553
1.97201
1
1
1.72309
1
1
1
1
1
1
1
1
1
1.85144
1.97519
1
1
1
1
1
1
1
1
1
1
1
1
1
1
1
1
1
1
1.98473
1
1
1
2.01964
1
1.53619
0.999928
1
1
1.84686
1
1
1
1
1
1
1
1
1
1.95493
1.95816
1.96416
1
1
1
1.80327
1
1
1
1
1
1
1
1
1
1
1
1
1
1.70813
1
1
1
1
1
2.00371
1
1
1
1
1
1
1
1
1
1
1
1.95691
1.28891
1
1
1
1.98561
1
1
1
1
1
1
1
1
1
1
1
1
1.95734
1
0.999996
1.9648
1
1
1
1
1
1
1
1
1
1
1.96102
1
1.88486
1
1
2.02837
1
1.99829
1
1
1
1
2.0055
1
2.05425
1.96499
1
1.963
1.48516
1
1.9661
1
1
1.96203
1
1
1
1.99908
1
1
2.02307
1
1
1
1
1
2.02271
1
1
1
2.01513
1
1
1.95036
1
1.98826
1
1.57981
1
1
1
1
1
1
1
1
1
4.47879
4.39711
1
1
1
1
1
1
1
1
1
1.45829
1
1
1
1
1
2.01367
2.01114
1
1
2.00955
2.06509
2.0165
1
1
1
1
1
1
2.00936
1.97741
1
1
1
1
1
1.98053
1.0005
1
1
2.02944
1
1
1.96685
1
1
1
1
1
1
1
1
1
1
1
1.96366
1
1
1
1
1
1
1
1
1
1
1
1
1
1
1
1
1
1
0.999924
1
1
1
1
1
1
1.96474
1.38623
1.55175
1.28493
1
1.96336
1.95624
1
1
1.96258
1.95843
1
1
1
1.96176
1.96202
1
1
1
1.83247
1.96286
1
1
1
1
1
1
1
1
1.97679
1.99674
1
1
1
1
1
1
1
1
1
1
1
1.96272
1
1
1
1.95965
1
1
1
1
1
1
1
1
1
1
1
1
1
1
1
1
1.9606
1
1
1
1
1
1.96299
1
1
1
1
1
1
1.80442
1.7832
1
1
1
1
1
1
1
1
1
1.96322
1
1
1
1
1
1
1
1
1
1.98273
1
1
1
1.98579
1
1
1.98627
1
1.97767
1
1.98061
1
1
1
1.95945
1
1
1
1
1
2.03643
1
1
1
1
0.999986
1.98285
1
1
2.01011
1.95961
1.95851
1
1.96302
1.97859
1
1
1.98123
1
2.0082
1
1
1
1
1
1
1
1
1
1
1
1
1.943
1
1
1
1
1
1
1
1
1.9612
1
1
2.0159
1
1.99588
1.97823
1
1.96065
2.0083
2.007
1
1.95718
2.01482
1
1
1
1
1
1
1
1
1
1.96447
1.96074
1.98935
2.01013
1
1
1
1
1
1
1
1
1
1
1
1
1
1
1
1.99056
1
1.95759
1.86136
1
1
1
1
0.999994
1
1
1.60505
1
1.94677
1
1
1.99985
1
1
1
2.04702
1
1
1
1
1.98248
1.81618
5.31101
1
1
1
1
1
1
1
1
1
1
1
1
1
1
1
1.96497
1
1
1
0.999947
1
1
1.95738
1
1
1
1
1.96589
1.96177
1
1
1
1
1.99678
1
1
1
1
1
1
1
1
1
1
1
1
1
1
1.96609
1.95803
1.98102
1.96209
1
1.99756
1
2.04908
1
1
1
1
1
2.06547
1
1
1
1.96289
1
1
1.96314
1
1.97876
1
1
1
1.96503
1.96935
1.95939
1
1
1
1
1
1
1.96122
1
1
1
1.96883
1.9622
1.96939
2.01849
1.80718
1
1
1
2.00139
1
1
1.95953
1
1
1
1.94893
1
1.99707
1
1
1
1
1
1
1
2.00186
1
1
1
1
1
1
1
1
1
1
1
1.95312
1
1
1
1
1
1
1
1
1.98592
1
1
1
1
1
1
1
1.94462
1
1.98572
1
1
1
1
1
1
1
1
1
1
1
1
1
1
1
1
1
1
1
1
1
1
1
1
1
1
1
1
1
1.8974
1
1.96677
2.05508
1
2.01228
1
1
1.74748
1
1
1
1
1.96242
1
11.1735
0.999973
1
1
1
2.0278
1
1
1
1
1
1.99661
1
1.96227
1
1
1.96195
1
1
1
1
1
1
1
1.95853
1
1
1
1
1
1
1
1
1
1.9996
1
1
1
11.7458
1.96151
1
1.96032
2.11142
1.99784
1
1
1
1.9612
1.95868
1
1
1.96405
1.98376
1
1
1
1.96316
1
1
1
1
2.00614
1
1
1.96566
1
1.11688
1
2.01443
1.96034
1
1
1.79638
2.00758
1
1.99065
1
1
1.96149
1
1
1
1
2.05789
1
1.95746
1
1.95965
1.96936
1
1
1
1
1.96783
1
1
8.8295
1.96415
1
1.38616
1
1
1
1
1.99085
1
8.64687
1
1
1
1
1
1
1
1.98215
1
1
1
1
1
1
1.95775
1
1
1
1
1
1
1
1
1
1.98587
1
1
1
1.96054
1
1
2.08406
1
1
1.9567
1
1.94612
1
2.03079
1
1.97
1
1
1.9633
1
2.02658
1
2.00798
1
1
1
1
1
1.9651
1
1
1
1
1
1
1.92322
1
1
1
1.59326
1.9481
1
1
1
1
1
1
1
2.01306
1
2.01697
1
1
1
1
1
1
1
1
1
1.96039
1
1.96168
1
1
1.97413
1
1
2.00139
1
1
1
1
2.01441
1
5.03995
1.97016
1
1
1
1
1
1
1
1
1
1
1
2.02369
1
1
1
1
1.9692
1
1
2.01849
1
1
1
1
1
1
1
1.99261
1
1
1
1
1
1
1
1
1
1
1.9625
1
1
1
1.95397
1
1
1
1
1
1
1
1.99214
1.96324
1
1
1
1
1
1
1
1
1
1
1
1.93567
1
1.96246
1
1
1
1.99755
1
1
1
1
1.98205
1
1
1
1
1
1.95882
1.99268
1
1
1.95519
1
1
1
1
1
1
1
1
1
1
1.99288
1
1
1
1
1
1
1
1
1
1
1
1
1
1
1
1
1
1
1
1
1
0.999991
1.95699
1
1
1
1
1
1
1
1
1
1
5.20962
1
1
1.96873
1
1
1
1
1
1
1
1
1
1
1.99289
2.00667
1
1
1
1.95659
1
1
1
1
1.81329
1
1
1.96201
1
1
1
1.68387
1.95928
1
2.028
1.24431
1
1.94227
1.82127
1
1
1
1.9641
1
1.99334
1
1
1.96409
1
1
1
1
1
1
1
1
1
0.999988
1
1
1
1
1
1
1
1
1
1.95934
1
1
1
1.00003
1.95945
1
1
1
1
12.6086
1
1
1.03688
1
1
1
1.95842
1
1
2.02031
1
1
1.96029
1.99236
1
1
1
1
1
1.95431
1
1
1
1
1
1
1.98538
1.95926
1.99644
1
1
1.9957
1.99794
1
1.95948
1
1
2.01491
1
1
1
1.9691
1
2.00481
1
1
2.02544
1
1
1
2.00363
1
1
1
1
1
1.73807
1
1.95716
1
1
1
1
1
1.84323
1
1
1
1
1
1.96053
1
1
1
1
1
1
1.9647
1.34265
1
1
1.99369
1
1
1
1
1
1
1
1
1
1
1
1
1.9629
1
1
1
1
1
1
1
1
1
1
1
1
1
1
1.96101
1
1
1
1.87732
1
1
1.95876
1
1
1
1
1
1
1
1
1
1.86677
1.90135
1
1
1.38182
1
1
1
1
1.96069
1
1
1
1
1
1.95581
1
1
1
1
1
1
4.37392
1
1
1.96942
1
1
1.9182
1
1
1
1
1
1.96395
1
1.77422
1
1
1
1
1.96649
1
1
1
1
1
1
1
1
1
1
1
1
1
1
1
1
1
1
1.96265
1
2.01119
1
1
1
1
1
1
1
1
1
1
1.96131
1
1
1.96552
1
1
1
1
1.96572
1
1
1
1
4.62551
1
1
1.96553
1
1
1.96126
1
1
1
1.9715
1.96701
1
1
1
1
1
1
1
1
1
5.01494
1.76352
1.82229
1
1
1
1.96224
1
1
1.95919
1.96072
1.95276
1
1.96004
1
1.96274
1
1
1
1
1
1.95879
10.7454
1
1
1
2.00311
1
1
1
1
1
1
1.95636
1
1
1
4.30487
2.01943
1
1
4.54309
1
1
1
1.99273
1
1
1
1
1.96206
1
2.00382
1
1
1.98399
1
1
1
1
1.96123
1
1
1
1
1
1
1
1
1
1
1
1
1.95392
1
1
1
1
1.99657
1
1
1.96765
1
1
0.999901
2.01434
1
1
1
1
1
1.99088
1
1
1
1.96731
1
1
1
1
2.00096
1
1.77985
1
1
1
1
1.99142
1
1
1.96304
1.94777
1.97652
1
1
1
1
1
1.96098
1
1.43462
1
2.02676
1
1
1
1
1
1.98791
1
1
0.999986
1
1
1.96542
1
2.11893
2.03159
1
1
1
1
1
1
1
1
1.96479
1
1.96049
1
1
1
1
1
1
1
1
1
1
2.00654
1
1
1
1
1
1
2.00516
1.97328
1
1
1
1
1.99416
1
1
1
1
1
1.95998
1
1
1
1
1
1
1.97209
1.95834
1
1
1.97047
1
1
1
1
1
1
1
1
1
1
1
1
2.03362
1
1.92083
1
1
1.96055
1
1
1.96084
1
1
2.0472
1
1
1
1
1
1
1
1
1
2.01573
1
1
1
1
2.0143
1
1
1.9359
1
1
1
1
1
1.96297
1
1.96011
1
1
1
1
1
1
1
1
1
1
1
1
1.77844
1.9631
1
1
1
1
1
1.96307
1
1
1
1.96146
1
1
1
1
1
1
1
1
1.80431
1
1
1
2.0182
1
1.96157
1
1
1
1.96235
1
1
1
1
1
1
1
1
1.01476
1.96356
1
1
1
1
1
1
1
2.01215
1
1
1
1
2.02939
1
1
1.78108
1
1
1
1
1.9627
1
1
1
1
1.96365
1
1
1.9637
1
1.95796
1
1
1
1
1
1
1
1
1
1
2.00039
1
1
2.00159
1
1
1
1
1
1.97748
1.81437
1
1
1
1
1
1
1
1
1.99025
1
1
1.96419
1
1
1
1
1.96482
1
1.95704
1
1
1
1
1
1.96292
1.96174
1
1
1
1.96276
1.96473
1
1
1
1
1
1
1.95647
1
1
1
1
1
1
1
1.96032
1
1.96805
1
1.96473
1.96572
1
1.96363
1
1.96161
1
1
1.96373
1
1
1
1
1
1.9618
1
1
1
1
1
1
1.96033
1
1
1
1
1
1.95918
1
1
1
1
1
1.95957
1
1
1
1
1
1
1.96374
1
1
1
1
1
1.96767
1
1.95813
1.96576
1
1
1.96019
1
1.96601
1
1.90495
1
1
1.9394
1.66133
1
1
1
1
1.96031
1
1
1.95776
1
2.02406
1
1
1
1
1.9756
1
1
1.99791
1
1
1
1
1
1
1.9596
1
1
1
1
1
1
1
1
1
2.01795
1
1
1
1
4.96059
1
1.96054
1
1.96105
1
1.96429
1
1.96436
1
1
2.00686
1
0.99979
1
1
1
1
1
1.96241
1.95881
1
1
2.02621
1.96151
0.999985
1
1
1.96359
1
1
1.99527
1
1
1
1
1
1
1
1
1.95815
1
1.95967
1
1
1
1
1
1.90525
1
1
1
0.999937
1
1
1.96464
1
1
1
1.92842
1
1
1
1
1
1
1.98781
1
1
1
1.96085
1
1
1
1.96089
1
1
1.96365
1
1
1
1.9641
1
1.90901
1
1
1
1.96628
1
1
1
1
1
1.98709
1
1
1
1
1
1
1
1
2.01822
10.2615
1
1.96483
1
1.96517
1
1
2.01114
1
1
1
1
1
1.96154
1
1
1
1
1.96409
1.96143
1.95987
1
1
2.01648
1
1.9032
1
1.99361
1.95586
1
1
1.96965
1
1
1
1
1
1
1
1
1
1
1
1
1
1
1
1
1
1
1
1
1
1
1
1
1
1.96509
1
1
1.9588
1
1.94582
1
1
1.96366
1
1
1
1
1
1
1
1.96571
1
1
1
1
1
1
1
1
1
1
1.9628
1
1.45285
1
1.96202
1
1
1
1
1
1
1
1.91177
2.00407
1
1
1
1
1.99955
1
1
1.99671
1.68819
1
1.94358
1
1
1
1
1
1.95844
1
1
1
1
1
1
1.32885
2.03078
1
1
1
1
1
1
1
1
1
1
1
1
1
1.86611
1
1
1
1
1
1
1
1.96119
1
1.98661
1
1
1.99102
1
1
1
1
1.9456
1
2.01638
1.98219
1.08212
1
1
1
1
1
1
1
1.9568
1
1
2.04485
1
1
1
1.96429
1
1.96681
1
1
1.89936
1
5.00508
1.96486
1
1
1
1
1.88377
1
1
1
1
2.00927
1
2.03992
1
1.95743
1
1
1
1.96559
1
1
1
1
1.46538
4.64525
1
1.47247
1
1
2.00117
1
1
0.999986
1
1.96435
1.90773
1
1
1
1
1.96335
1.96606
1
1
1
1
1
1
1
1
1
1
1
1
1
1
1
1.96133
1
1.95821
1
1
2.01153
1
1
1
1
1
1
1
1
1
1
1.95341
1
1
1.96316
1
1
1
1
1
1
2.03159
1
1
1
1
1
1
1.83284
1
1
1
1
1
1.84584
1
1
1
1.96055
1
1
1
1
1
1.99301
1
1
0.999988
1
1
1
1
1
1
1
1
10.5182
1
1
2.0551
1
1.9616
1
1.8481
1
1
1
1
1
1
1
1
1.99305
1.95929
1
1
1
1
1
1
2.0166
1
1.96216
1
1
1
1
1
1
1
1
1.96358
1.96104
1
1
2.01118
1.96375
1.95937
1
1
1
1
1
1
1
1
0.999997
1
1.04529
1.86668
1
1
1
1
1
1.95884
1
1
1.96734
1
1.68083
1
1
1
1.8831
1
1
1
1
1.99494
1.96354
1
0.999863
1
1
0.999954
1
1
1
1
1
1
1
1
1
1
1.96452
1
1.9093
1
1
1.96383
1
1
1
1
1
0.999838
1
1
1
1
1
1.96411
1
1
1
1
1
1
1
1
0.999907
1
1
1
1
1.96035
1
1
1
1.95978
1
1
1
1
1
1.96018
1
1.96644
1
1.8526
1
1
1
1.96141
1
1
2.01842
1
1
1
1
1
1
1
1
1
0.999947
1
1
1.94274
1.96432
1.81807
1.96352
1.8167
1.80879
1
1
1
1.96012
1.95845
1
1
1
1
2.00532
1.8368
1
1
1
1
1
1
1
1
1.93291
1
1.95869
1
1.96424
1
1
1
1
1.97787
1
1.95766
1
1
1
1
1
2.0696
1
1
1.88767
1
1
1
1
1
1
2.0034
1
1.23899
1
1
1
1
1
1
1.83228
2.02324
1
1
1
1.96387
1
1
1
1.9606
2.00536
1
1
1
1
1.9029
1
1
1
1.85828
1
2.10776
2.0029
1
1
1
1
1
1
1
1.96109
1
1
1
1
1.00491
1
1
1
1.95595
1
1
1
1
1
1
1
1
1
1
1
1.07966
1
1
1
1
2.11326
1
1
1
1
1
0.999999
1
1
1
1
1
1
1
1
1
1
1.95676
1
1
1
1
1
1
1
1
1
1
1
1.82968
1
2.01096
1
1
1
1
1
1
1
1
1
1.76195
1.96417
1
1
1
1
1
1
1
1
1
1
1
1
1
1.36585
1
1
1
1
1
1.95701
1
1
2.01815
1
1
1.88733
1
1
1
0.999917
2.01362
1.83144
1
1
1
1
1
1
1.99607
1
1
1
1
1
1.92594
1.9759
1
1
1.91535
1
2.01105
1
1
1
1
1
1
1
1
1.96012
1
1
1
1.89781
1
1
1.51551
1
1.97416
1
2.02467
1
1.74951
1
1
1
1.92204
1
1
1
1.03224
1.98087
1.95942
1
1
1
1.81955
1
1
1
1
1
1.96113
1.75094
1
1
1
1.91134
1
1
1
2.0142
1
1
1
2.03057
1
1
1
1
1
1
1
1
1
1.83554
1
1
1
1
1
1
1
1
1
1
0.999998
1
1
1
1
1
1.53513
1
2.00351
1
1
1
1
1
1.81894
1.8562
1
1
1
1
1
1
1
1
1.96333
1
1.41339
1
1
1
1
1.99982
1.93187
1
1.83465
1
1
1.9318
1
1
1
1
1.91273
1.95372
1.96797
1
1
1
1
1
1
1
1
1
1
1
2.02777
1
1
1
1
0.999999
1.95784
0.999989
1
1.98689
1
1
1
1
1
1
1
1
1
1
1
1
1
1.96549
1
1
1
1.84225
1
1
1
1
1
1
1
1
1.8478
1
1
1
1
1
1
1
1
1
1
2.0033
1
1
1
1.96103
1
1
1.96312
1
1
1
1.96283
1
1.96115
1
1
1
1
1.00919
1
1.82804
1
2.01742
1
1
1
0.999933
1
2.00588
1
1
1
1
1
1
1
1
1
1
1
1
1
1
1
1
1
1
1
1
1
1
1
1
1
8.74022
1
1.96469
1
1
1
1
1
1
1
1
1
1
1
1
1
1
1.82806
1
1
1
1
1
1
1
1
1.96369
1
1
1.95905
1
2.00858
1.96194
1
1
1
1
1
1
1
1
1.96148
1
1.87697
1
1
1
1
1
1
1
1
1.97457
1.8603
1
1
1
1
1
1
1
1
1
1
2.00343
1.65559
1
1.89872
1
1
1
1.90538
1
1
1
1
1
1
1.96456
1.8799
1
1.96174
1
1
1
1
1
1.96163
1
1
1
1
1
1
1
1
1
1
1
1
1
1
1
1
1.88919
2.00438
1
1
1
1
1
1
1
1
1
1
1
1
1
1
1
1
1
1
1
1
1.99824
0.999997
1
1
1
1
1
1
1.85559
1
1
1
1
1.96255
2.00549
1
1
1
1
1
1
1.963
1
1
1
1.98328
1.99566
1
1
1
1
1
1
1
1
1
1
1
1
1
1
1
1
1
2.02003
1.96463
1
2.02258
1
1
1
1
1
1
1
1
1
1
1
1
1
1.00018
1
1
1
1
1
1.95978
1
1
1
1
1.9623
1
1.89597
1
1
1
1
1
1
1.99942
1
1
1
1
1
1
1
1
1
1
1
1
1
1
1
1
1
1.9599
1
1
1
1
1
1
1
2.02157
1
1
1
1
1
1
1
1
1.9568
1
1
1
1
1
1
1
1
1
1
1
1
1
1
0.999925
1
1
1
2.02798
1
1
1
1
1
1
1
1
1
1
1
1.00261
1.96069
1
1
1
1
1.96264
1
1
1
2.02948
1
1
1
1
1
1
1
1
1
1
1
1
1
1
1.98088
1
1
4.5789
1.96185
1
1
1
1
1
1
1
1
1
1
2.0315
1.80674
1
1
1
1
1
1.96528
1.79206
1
1
1.96149
1
1
1
1
1.81472
1
1
1
1
1.99954
1.72648
2.06856
1
1
1
1
8.97865
1
4.5551
1
1
1
1
1
1
1
1
1
1
1
1
1
0.999995
1.96012
1
1
1
1
1
1
1
1
1
1
2.00901
1
1
1
1
1
1
1
1
1
1
1
2.0013
1
1
1
1
1
1
1.99887
1
1
1.9626
1
1.95519
1
1
1
1
1
1
1
1.99328
1.8414
1
1
2.06193
1
1
1
2.07042
1
1
1.42804
1
1
1
1.96138
1
1.97321
1
1
1
1
1.90485
1
1
1
1
1
1
1
1
1
1
1
1
1.96011
1
1
1
1
2.0033
1
1
1
1.96562
1
2.00408
1.96073
1
1
1
1
1.99846
1
1
1
1.93062
1
1
1
2.11139
1
1
1
1.95934
1
1
1.90655
1.96189
1
1
1
1
1
1
1.99917
1
1
1
1
1
2.00581
1
1
1
1
1
1
1.95514
1
1
1
1.7171
1
1
1
1.95841
1
1
1
1
1
1
1
1
1
1
1.99178
2.01348
1
1
1.07551
1
1
1
1
1
1
1
1
1
1
1
1
1
1
1
1
1
1
1.76487
1
1
1.8494
1
1
1
1
1
1.80497
1.99506
1
1
1
1
1
1.95915
1
1
1
1
1
1.98826
1
1
1
1
1.96016
1
0.999935
1
1
1
1
1.96211
0.99997
1
1.95837
1
1.97415
1
1.91577
1.90439
1
1
1
1
1
1
1
1
1
1
1
1
1
1
1
1
1
1
1
2.00061
1
1.95615
1
1.25731
1
1
1
1
4.27132
1
2.05516
1.94453
1
1
1.96177
1
1
1
1
1.83868
1.3337
1
1.9585
1.93151
1
1
1
1
1
1
2.02708
1.95576
1
1
4.62555
1
1
1
1
1
1
1
1
1
1
2.05999
1
1
1.95887
1.96681
1
1
2.06078
1
1
1
1
1.90746
1
1
1.9641
2.00657
1
1.0005
1
1.94306
1.96449
1
1
1
1
1
1.96468
1
1
1
1.94061
1
1.99988
1
1
1
1
1
1
1
10.4605
1
1
1
1
1
1
2.04052
1
1
1
0.999942
1
1
1.48898
2.01085
1
1
1
1
1
1
1
1
1.93446
1
1
1
1
1
1
1
1
1
1
1
1
1
1
1
1
1
1
1
1
1
1
2.03221
1.96741
1
1
1
1
1
1
1.42707
1
1
1
2.04301
1
1
1.00718
1
1
1
1
1
1
1
1
1
1
1
1.90969
1
1
1.95973
1
1
1
1
1.94692
1.98157
1
1
1
1
1.96076
1
1
1
1
1
1
2.11046
1
1.96672
1
1
1
1
2.01223
1
1
1
1
1
1
1
1
2.08375
1
1.96984
1
1.11305
1
1
1
1
1
1
1
1
1
1
1
1
1
1
1
1.95747
1.99328
1
1
1.65204
1
4.55895
1
1
1.99865
1
1
1
0.999965
1
1.89002
1.96187
1
1
1
1
1.96791
2.00827
1.96007
1
1
1
1
1
1
2.01482
2.0691
1
1
1
1.96136
1
1
1.95853
1
1
1
1
1.95852
1
2.01637
1
1
1.76854
1.79853
1
1
1
1
1
1
1
1
1
1
4.65128
1
2.01524
1
1.96284
1
1
1.96105
1
1
1
1
1
1.02922
0.999884
1
1
1
1
1.97901
1
0.999803
1.87247
1.96124
1
1
1
1
1
1
1.96213
1
1
1
1
1
1
1
1
1
1
2.0018
1
1
1
1
1
1
1.99349
1
1
1.55195
1
1
1
1
1
1
1
1
1
1
1
1
1
1
1
2.05771
1
1
1
1.82242
1
1
1
1.07244
1
1
1
1
1
1.9571
2.051
1
1.96242
1
1
1
1.91116
1
1.96532
1
1
1
10.5709
1
1
1
1
1
1
1
1
1
1
1
1
0.999878
1
1
1
1
1
1
1
1
1
1
1
1
1
1
1
1
1
1.83705
1
1
1
1
1
1.80923
1.96771
1
1
1
2.03295
1
1
1
1
1.95543
1
1
1
1
1
1
1
1
1
1
1
1.90347
1
1
1
1
1
1
1
1
1
2.08023
1
1.98405
1
1
1
1.95759
1
4.58786
1
1
1
1.99658
1
4.62404
1
1.95959
1
1
1
1
1
1
0.999822
0.999863
1
1
1
0.99995
1.99171
1
1
1
1
1
2.05008
1
1.30002
2.05113
1
1
1.86695
1.95235
1
1.89541
1
1
1
1
1
1
1
1
2.00525
1
1.88596
1
1
1
1
2.00315
1
1
1
1.69244
1.96321
1
1
1
1
1
1
1
1
0.999899
1
1
1
1
1
1
1
1
1
1
1
1
1
1
1
1
1
1
1
1
1
2.05152
1
1
1
1
1
1
1
1
1
1
0.999996
1
1
1
1.8231
1
1
1
1
1.05636
1
1
1
1
1
1
1
1
1
1
1
1
2.09027
1.95708
1
1
1
1
1
1
2.01633
1
1
1
1
1
1
1
1
1
1
1
1
1
1.74252
1
1.95565
1
2.10579
1
1
1
1
1
1
1
1
2.00254
4.51537
1
1
1
1
1
1
1
1
1
1.00013
1.98239
1
1
1
1
1
1
1
1
1
1
2.05049
1
1
1
1
1
1
1
1
1
1
1
2.07006
1
2.04001
1
1
1
1
1
1
1
1.96918
1.90754
1
1
1
1.96307
1
1
1
1
1
1.95838
1
1
1
1
1
1
1
1
1
1
1
1
1.95686
1
1
1
1
1
1
1
1
1
1
1.96259
0.999869
1
1
1
1
4.6152
1
0.999999
1
1
1
1
1
1
1
1
1
1
1
1
1
1
1
1
1
1
1
1
1
1.72345
1
1
1
1.82157
1
1
1
1
1
1.95992
1.99252
1
1
1
1
1
1
1
1
1
1
1
1
1
1
1
1
1
1
1
1
1
1
1.14378
1
1.00914
1
1
1
1
1
1
1.96501
1.96314
1
1
1.96489
1
1
1.99176
1
1
1.81527
1
1
1
1.96839
1.99279
1
1
1.95608
1
1
1.9639
1
1
1
1
1
1
1
1
1
1
1
1
0.999811
1
1
2.00742
1.96222
1
1
1
1
1
1
1
1
1
1
1
1
1
1
1.73719
1
1
1
1
1
1
1
1
1
1.96811
1
1
1
1
2.00396
1
1
1
1
1
1.96108
1
1
1
1
1
1
1
1
1.96099
1
2.02036
1
1
10.3868
1
1
1
1
1
1
1
1
1
1
1
1
1
1.3399
1
1
1
1
1
1
1
1.96317
1.00665
1.89881
1
1
1.9607
1
1
1
1
1.96407
1
1
1
1
1
1
1.96576
1
1.04326
1
1
1
1
1
1
7.46939
1
1.96348
1
1
1.81443
1
1
1
1.96117
2.09534
1
1
1
1
1
1
1
2.05362
2.04451
1
2.0686
1
1
0.999943
1
1
1
1
1
1
1
1
1
1
1
1.82315
1
1.08939
1.95862
1
1
1
1
1.71901
1
1
1
1.58261
1
1
1
1
1
1
1
1.99997
1
1
1
0.999967
1
1
1
1.95346
1
1
1
1
1.8209
1
1
1
1.85834
1
1
1
1
1.79645
1
1.84066
1
1
1.00425
1
1
1
1
8.3009
1.96258
1
1
9.13549
1
1
1.96279
1
1
1
1
1
1
1
2.00819
1
1
1
1.96209
9.29895
1
1
1
1.99984
1
1
1
1
1.95924
1
1
1
1
1
1
1
1
1
1
1
1
1
1
1
1
1
1
1.96456
1
1
1
1
0.999949
1
1
1
1
1
1
1
1
1
1
1
1
1
1
1
1
1
1
1
1
1
1
9.21825
1
1.96542
1.9605
1
1
1
1.72993
1
1
1
4.58137
1
1.96317
1
1
1.95957
1
1
1.99296
1
1
1.84625
1
1
1
1
1
1
1.07088
2.00204
1
1
1
2.01303
1
1
1
1
1
1
1
1
1.99162
1
1
1
1
1
1
1
1
1
1.96083
1
1
1
1
1
0.999983
1
1
1
1
1
1.00043
1
1
1
1
1.96713
1
1
1
1
1
2.00938
1
1
1
1
8.95725
1
4.72833
1
1
1
1
1
1
1
1
1
1
1
2.00322
1
1
1
1.04127
1
1
1
1
2.01328
1
1
1
1
1
1.34791
1
1.90354
1.99757
1
1
1
1
1.96283
1
1
1
1
1
1
1
1
2.01868
1
1
1
1
1.69998
1
1
1
1
1
1
1
1
1
1
1
1
1
1
1
1
1
1.96683
1
1
1.96523
1
2.07793
1
1
1
1
1
1
1
1
1
1
1
1
1
1
1
1
1
1
0.999932
4.67916
1
1
1
1
1
2.00208
1
1.43082
1
9.14614
1
1.057
1
1
1.99876
1
1
1
1
1
1
1
1
1
1
1.82577
1
1
1
1
1
2.01059
1
1
1
1
1
1
1
1
9.06333
1
1
1
1
1
1
1
2.01564
1
1
1.31263
1
1
1
1
0.999988
1
1
1
1
1
1
1
1
1
1
1
1
1
1.95058
1
1
1
1
1
1
1
1
1
1
1
1
1
1
1
1
1
1
1
1
1
1
1
1
1.84244
1
1
1
1.96461
1.96415
1
1
1
1
1
1
1
1.95856
1
1
1
1
1.44012
1
1
2.00804
1
1.78131
1
2.0231
2.06021
1.96999
1
1
1
1.96187
1
1
1
1
1
1
1
1
1
0.999996
1
1
1
1
1
1.89583
1
1
1
1
1
1.9566
1
1
1
1
1
1
1
1
1
1
1
1
1
1
1
1.00238
1
1
1
1
1
1
1.95942
1
1
1.43085
0.999941
1
1
4.70814
1
1
1
1
1
1
1
1
1
1
1
1.96493
1
1.99298
1
1
1
1
1
1
1
1
1
1
1
1.99374
1
1
2.06367
1.9622
1
1
1
1
1
1.75693
1
1
1
1
1.27291
1.96009
2.01254
1
1
1
1
1
1
1
1
1
1
1
1
1
1
1
1
1
0.99996
1
1.97093
1
1
1.88286
1.96043
1
1
1
1
1
1.96552
1.96313
1
1.96493
1
1
1.99584
1
1
1
1
1
1
1
1.98138
1
1
1
1
1
1
1
1.96358
1
1
1
1
1
1
1.95836
1
1.96728
1.96349
1.96271
1
1
1
1
1
1
1
1
1
1
1
1
2.06987
1
1
1
1
2.01045
1
1
1.95973
1
1
1
1
1
1
1
1.74488
1
1
1
1.00182
1
1
1
1
2.06465
1
1
1
1
1
1
1
1
2.01642
1
1
1
1
1
1
1
1
1
1
1.71385
1
1
2.08363
1
1
1
1
1.95643
1
1
1
1
1
1
1
1
1
0.999999
1
1
1
1
2.06906
1
1
1
1
2.06765
1
1
1
1
1
1
1.99622
1
1
1
1
1
1
1.96333
1
1
4.61381
1
1
1
1
1
1
1
1
1.96247
1
1.82907
1
1
1.95751
1
1.95732
1.95376
1
1
1
1
1
1
1.218
1
1
1
1.9587
1
1.95923
1
1.96854
1
1
1.95965
1
1
1
1
1
1
1
1
1
1.84409
1
1
1
1
1
1
1
1
1
1
1
1
1
1
1
1
1
1.88677
1
1
1.9555
1
2.0738
1
1
1
1
1
1
1
1
1
1
1
2.00489
1
1
1
1
1
1
1
1
1
1
1
1
1
0.999977
1.83052
1
1.84995
1
1
1
1
1
1
1
1
1
1
1.98947
1
1
2.07356
1
1
1
1
1
1.96174
1
1
1
1
1
1
1
1
1
1.96444
1
1
1
1
1
1
1
1
1
1.96401
1
1
0.999991
1
1
1
1
1
1
1
1.73127
1
1
1
1
1.85435
1
1
1
1
1
1
1
1
1
1
1
1
1
1
1
1.22946
1
1.96232
1
1
4.63708
1.99846
1
1
1
1
1
1
1.97484
1
1
1
1
1
1
1
1.8485
1
1
2.07249
1
1
1
1.95664
1
1
1
1
1
1.95881
1
1
1
0.999988
1
1.98167
1
1
1
1.9833
1
1
1.95885
1
1
1
9.17578
1
1.884
1
1
1
1
1
2.00197
1.97278
1
1
1
1.80115
1
1
1
1
1
8.88933
2.01444
1
0.999969
1
1
1.95702
1
1
1
1
1
1
1
1
1
1
1.96353
1
1
1
1.82276
1.96209
1
1.95685
1
1
1.96227
1
1
1
1.82882
1
1
1
1
1
1
0.999968
1
1
1
1
1
1
1
1
1
1
1
1
1.96752
1.95759
1
1
1
1
1
1
1
1
1
1
1.96571
1
1
1
1
1
1
1
1.69114
1.96927
2.05579
1
2.04683
1
1
1
1.99366
1.96461
1.96339
2.06433
1
1.95672
1.72298
1
1
1
1
1
1
1.70915
1
1
1
1.20216
1.9701
1
1
1
1
1
1
1
1
1
4.68108
1
1
1
1
1
1
1
1
1
1
1.72042
1
1
1
1
1
1
1
1.98266
1
1
1
1
1
1
1
1.89291
1
9.04489
1.96063
1
1
1
1
1
1
1
1
1
1
1
1
1
1
1
1
1
2.01303
1.99544
1.95803
1
1
1
1
1
1
1
1
2.10325
1
1
1.82643
9.20538
1.96109
1
1
1
1
2.00438
1.96275
1
1
1.96795
1
1
1
1
1.97239
1
1
1
1.91269
1
1
1
1
1
1
1
1
1.84601
1
1
1
1
1
1
1
1.76703
1
1
1
1
1
1
1
1
1
1
2.00541
1
1
1.45197
1
2.07353
1
1
1
1
1
1
1
1
1
1
1.95629
1
1
2.0858
1.8172
0.999889
1
1
1
1
1.80252
1
1
1
1
1.96382
1
1
1.96119
1
1
1
1
1
1
1
2.0207
1
1.85291
1.96295
1
2.04557
1
1
1.96634
1
1
1
1
1
1
1
1
1.96153
1
1
1
1
1.96621
1
1
1
1
1
1
1.96143
8.60754
1
1
1
2.02331
1
1
1
1
1
2.01594
1
1
1
1
1
1
1.49389
1
1
1
1
1
1.95972
1.96383
1
1
1.96205
1
1
1
1
1
1
1
1
1
1
1.96394
1
1
1
1
1
0.999998
1
1
1
1
2.037
1
1
1
1
1
1
1
1
1
1.96274
1
1
1
1.98711
1.7994
1
1.95816
2.07265
1
1
1
1
1
1
2.07139
1
1
1
1
1
1
1
1
2.00164
2.04193
1
1
1
1
1
1
1
1
1
1
1
1.96486
1
1
1.73416
1
1
1.96168
2.16937
1
1
1
1
1.96643
1
2.00349
1
1
1
1
1.82138
1.96189
1
1
1
1
1
1
1
1
1
1
1.95251
1
1
1
1
1
1
1.8717
1
1
1
1
1
1
1.78608
1
1
1
1
1.0178
1.993
1
1
1.95507
1.85817
1
1
1
1
1
1.9912
1.96398
1
1
0.999985
1
1.89979
1.9668
1
1
1
1
1
1
1
1
1
1.81093
1
1.97816
1.8918
1.00025
1
1
1
1
1
1
1.96126
1
1
2.0507
1
1
1
1
1
2.00108
1
1.96297
1
1
1
1
1
1
1
1
1.99553
1
1
1.95813
1
1
1
1
1
1
1
1
1
1.96072
1
1
1
1
1
1
1.95531
1
1.98364
1
1
1
1
1.96096
1
1
0.999944
1.96362
1.79165
2.02341
2.02355
1
1
1
1
1
1
1.96533
1
1
1
1
1
1
1
9.08487
1
1
1.96239
1.96017
1
2.02796
1
1
1.96593
1
1.80203
1
1
1
1
1
1.96178
1
1
1
1
1
1
1
1.96212
1
1
1
1
1
9.12394
1
1
1
1.90029
1
1
1.70514
1
1
1
1
1
1.43395
1
2.02261
1
1
1
1
1
1
1
1.67625
1
1
1
1
1
1
1
1
1
1.69925
4.65314
1.95871
1
1
1
1.43499
1
1
1.96266
1
1
1
1
2.00062
1.968
1
1
1
0.999999
1
2.09599
1
1
1
1
1
1
1
1
1
1
1
1
1
1
1
1.96018
1
1
0.999987
1
1
2.00739
1
1
1
1
1.96455
2.01089
1
1
1
1
1
1
1.71541
1
1
1
1
4.16102
1
1
1
1
1
1.79493
1
1
1.97051
1
1
1
1
1
0.999935
1
1
1
1.86417
1
1
1.02101
1.43762
1
1
1.96101
1
1
1
1
1
1
1
1
1
1
1
1.99643
1
1
1.9558
1
1
1
1.9568
1
1
1
0.999992
1
1
1
1.89098
1
1.95962
1.94769
1
1
2.00756
1
1.83565
1.95656
1
1
1
1.88534
1.9892
1
1
1
1
1
1
1.96692
1
1
1
1.83493
1
1
0.999976
1
1
2.00683
1
1
1
1.89261
1
1.96025
1
1.83128
0.999895
1.96142
1
1
1
1
1
1
1
1.13959
1.96391
1.89572
1
2.01244
1
1
1
1.96195
1.28501
1.9938
1.98006
1
1
1
1
1
1
1.95926
1.89127
1.96166
1
1.83857
1.88849
1
1
1
1
1.841
1.95164
1.80777
1
1
1
1
1
1
1.96278
1
1
1
1
1
2.00005
1
1
1
1
1
1
1
1.96357
1
1.96618
1
1.96219
1.99629
4.65676
0.999999
1
1
1
1
1.96255
1.86164
1
1.77991
1
1
1.81547
1.99489
1.8502
1
1
1
1.8107
1
1
1.70366
1
1.95846
1
1
1
1
1
1
1.9598
9.18329
1.84717
1
1
1
1
1
1.48857
1
1.87787
1
1.99097
1
1
1
1
1.94281
1
1
1
1
1
1
1
1
1
9.1933
1
1
1
1
1
1
1.42814
1
1
2.02173
1
1
1.85596
1.86461
1
1
1
1
1
1
1.96408
1
1
1
1
1
1
1
1
1
1
1
1
1.8596
1.96273
1.74496
1
1.99949
1.99359
1
1
1
1
1
1.135
1
1.41118
1
1.99735
1.95273
1
1
1
1
2.01251
1
0.999983
1
1
1.95599
1.88596
1
2.01343
1
1
0.999996
1.96491
1
1
1
1
1.96219
1.96789
1
1
1
1
1
1
1.86143
1
1
1.86158
1
1
1
1
1.95996
1
1
2.09439
1
1.89227
1
1.98386
2.02039
1.96769
1
1
1
1
1.86548
1
1.98402
1.89275
1.83948
1
1
1.96347
1
1
1.90344
1
1
1
1
1
1
1
1
1
1
1
1.95879
1
1
1
1.01737
1
1
1
1
1
1
1
1.9881
1
1.95799
1
1
1.95955
1
1.65109
1
1
2.03389
1
1
1
1
1
1
1
1
1
1
1
1.96118
2.03617
1
1
1.96011
1
1.91312
1.77543
1
1
1
1
1.99503
1
1.96459
1
1
1
1
1
1
1
2.02747
1.964
1
1.96216
1
1.95477
1.76389
2.03868
1
1
1
1
1.9556
2.01567
1
1
1
1
1
1
1.96355
1.94471
2.01528
2.06447
1
1.87754
1
1
1.98423
1
1
1.95439
1
1
1
1
1
1.96146
1
1
1.85254
1
1
1
2.02306
1.96802
1.89272
1.95592
1
1
1
1.96539
1.5996
1
0.999999
1.00018
1.96099
1.78257
1
1
1.9622
1
1
1
1.88188
2.24534
1
1.43794
1.88076
1.9634
1.96233
1
1
1.96372
1
1.00121
1
1
1.96001
1
1
1
1.89018
1
1
1
1
1.84485
1.88657
1
1.91974
1
1
1.96403
1
1
1
1.96392
1.952
1
1.96017
1
1.96023
1
1
1
1
0.999999
1
1
1
1
1
1.97028
1
1
1
1
1.85532
0.99997
1
1
1
1
1.1478
1
1
1
1
1.76901
1.76264
1
1.95946
1
1
1
1
1
1
1.95879
1
1.95868
4.66402
1
1
2.07574
1.86336
1
1
1
1.82299
1
2.00341
1
1
1.95914
1.95879
1
2.01912
1
1
1
1
1
1.96163
1
1
1.95952
1.88313
1
1
1
1
1
1.88119
1
1
1.95112
1.96364
4.65632
1.96236
1.99385
1
1
1
1
1
1.82981
1
1
1
1
1
1
1
1
1.96173
1
1
1
1
1
1
1
9.10439
1.854
1
1
1
1
1
1.94276
2.02414
0.999935
1.84688
1
1.96859
1.0175
1
1
1.79673
1.96198
1
1
1
1.96136
1.96551
1
1
1
1.8546
1
1
1.9592
1
1
1
1
1
1
1.95483
1
1
1.94997
1.70187
1.96711
1
1
1
1
1.96311
1
1
1.94283
1.96316
1.96119
1
1
1
1.96436
1.96335
2.01244
1
1
1
1.96738
1.8916
1
1
1
1
1.96553
1
1
0.999967
1.96603
1.77766
0.999983
1.96597
2.03676
1
1.9644
1
1
1.96046
1
1
1.96309
1
1
1
1
1
1
1
1
1
1.81363
1
1
1.9641
1
1
1
1
1.83661
1
1.95906
1.99784
1
1
1
1.96079
1
2.00639
1.96525
1.81507
1.15119
1
1.71557
1.96246
1
1
1
1
1
1
1
1.96338
1.78531
0.999895
0.999992
1
1.84255
1.96547
1
1
1.96518
1.8238
1
1.96233
1
1.95727
1
1
1.79605
1.95769
1
1
1.76723
1
1.79097
1
1
1.95927
1
1
1
1.96149
1
1
1
1.99391
2.01504
1
1
1.96439
1
1
1
0.999991
1
2.07021
2.03958
1.90095
1
1
2.01651
1.99628
1
1
1.86482
1
1
1.95609
1
1
1
1.96681
1
1
1.96187
1
1
1
1
1
1
1.83067
1.98343
1
1.95894
1.96021
1
1
2.07769
1
1.71845
1.96383
1.96227
2.10914
1
1
1
1
1
1
1.95821
1.82945
1.99162
1.9614
1
0.999995
1
1.96821
1.83297
1.86736
1.992
1.96281
1.99043
1
1.97244
1
1
1.96432
1.95991
1
1.96049
1
1
1.96389
1
2.01701
1.829
1
1
1.83193
1
1.96326
1
1.85264
1.78002
1.9596
1
4.55203
1.96465
1
1
1
1.96604
0.999943
1
1.96399
1
1
1.78098
1
1
1
1.94811
1.81825
1.96069
1
1.99264
1
1
1
1
1
1
1
1
1.82654
1.73704
1
1
1
1
1.96641
1
2.00826
1
1
1
1
1
1
1
1
1
1
1.96913
1
1
1.95013
1.79112
1.96453
1
1.74926
1
1.96578
1.97172
1.96091
1
1
2.00039
1.99458
1
1
2.0027
4.63762
1.96387
1
1
1
1
1.95883
1
1
1.84412
1.96223
0.999971
1.98704
1
1.96466
1.96228
1.95879
1
1
1
1
1
1
1.83826
1.96034
1.96592
1.95747
1
1.93497
1.72986
1.96557
1
1
1
1
1
1
1.92099
1.95313
0.99995
1.95939
1.96265
1
1
1
1.96098
1.86138
1
1
1
1
1.98946
1
1.98168
1
1
1
1.8041
1
1
1
1
1
1
1
1
1
1
1
1
1
1
1
1
1
1.96199
1.95919
1.95674
1.96023
1
1
2.00862
1.95823
1.96093
1.81428
1
1
1
1
1.96448
1
1
1
1.96462
1
1
1.96515
1
1
1
1
2.09013
1.95906
1
1.96141
1.79427
1
1
1
1
0.999934
2.00913
1
1
1
1.94364
1.90689
1
1.96148
1
1.96164
1.96242
1
1.99022
1.96692
1.96492
1
1
1
1
1
1
1
1
1
1
1.78958
1
1
1.96305
1.82892
1
1
1
1
1
1
1.96377
1
1
1
1.95698
1
1
1.96027
1.927
1.95667
1
1
1
1.96117
1.95868
1
1
1.95357
1
1
1
1.78936
1.96073
1
1
1
1
1.95557
1
1
1
1
1
1.4351
1
1
1
1.96494
1.73017
1
1.96147
1.96405
1.96036
1
1
1
1
1
1
1
1.96927
1
1
1
1.43539
1.96162
7.47648
1
1.95906
1
1
1.96041
1
1.96812