/*--------------------------------*- C++ -*----------------------------------*\
  =========                 |
  \\      /  F ield         | OpenFOAM: The Open Source CFD Toolbox
   \\    /   O peration     | Website:  https://openfoam.org
    \\  /    A nd           | Version:  12
     \\/     M anipulation  |
\*---------------------------------------------------------------------------*/
FoamFile
{
    format      ascii;
    class       volVectorField;
    location    "0.19";
    object      U;
}
// * * * * * * * * * * * * * * * * * * * * * * * * * * * * * * * * * * * * * //

dimensions      [0 1 -1 0 0 0 0];

internalField   nonuniform List<vector> 
23795
(
(1.50704e-14 -2.82746e-14 0)
(-9.03638e-14 9.19298e-15 0)
(8.16001e-15 2.87162e-14 0)
(-1.28984e-13 -2.72598e-13 0)
(-1.47427e-13 1.39238e-14 0)
(0.508844 -0.00404536 0)
(0.510255 -0.00377803 0)
(1.49655e-13 -2.99769e-14 0)
(1.66677e-13 -1.26398e-15 0)
(4.40628e-14 -2.98395e-15 0)
(-3.04425e-14 4.06129e-14 0)
(0.733201 0.00233269 0)
(-1.34415e-13 -1.77261e-13 0)
(-0.459395 0.00912405 0)
(0.522944 0.238852 0)
(2.09222e-13 4.7643e-14 0)
(-1.8311e-14 -5.30584e-15 0)
(1.32583e-13 1.48517e-13 0)
(-1.53717e-14 -4.29186e-14 0)
(0.545442 0.244688 0)
(-1.60723e-13 -2.51534e-14 0)
(-1.87619e-13 -7.42056e-14 0)
(1.57284e-13 -1.13102e-13 0)
(9.44781e-14 -1.09031e-13 0)
(-0.173427 0.21312 0)
(4.50782e-11 2.41506e-11 0)
(-6.582e-14 7.37847e-14 0)
(0.507971 -0.000723264 0)
(-7.09307e-14 -2.09639e-13 0)
(1.75469e-13 -4.92456e-14 0)
(0.506469 -0.00190205 0)
(1.56763e-13 -8.66489e-15 0)
(-9.81786e-14 1.21166e-13 0)
(-5.05082e-14 1.49643e-13 0)
(0.551351 0.0432007 0)
(9.10693e-14 3.40702e-14 0)
(5.20335e-15 -4.55538e-14 0)
(0.510607 -0.000973946 0)
(2.63629e-13 3.23004e-14 0)
(-1.07447e-13 5.73758e-14 0)
(-3.98373e-14 1.41625e-13 0)
(0.533869 0.0203454 0)
(-7.96076e-14 1.82991e-14 0)
(1.66735e-13 4.12711e-14 0)
(0.505222 -0.00200596 0)
(-1.34793e-13 -4.25789e-14 0)
(-0.245848 0.0874142 0)
(0.506678 -0.0023629 0)
(1.91251e-13 -1.6263e-13 0)
(-0.421881 -0.00578681 0)
(-0.357692 -0.0260885 0)
(0.507552 0.000256505 0)
(1.55819e-13 1.77358e-14 0)
(0.514813 0.204364 0)
(4.69021e-09 -1.23637e-10 0)
(6.78116e-15 -3.02832e-14 0)
(2.42611e-14 -2.33511e-13 0)
(9.77062e-14 7.72887e-14 0)
(0.530808 0.0257692 0)
(0.510288 0.00727623 0)
(9.7165e-14 -1.10178e-13 0)
(1.02954e-10 1.78784e-10 0)
(-1.93845e-14 -4.53597e-14 0)
(-9.81912e-13 2.94156e-13 0)
(6.14882e-14 4.89191e-14 0)
(-0.000936953 0.0785415 0)
(-7.14605e-14 6.50492e-14 0)
(-8.99084e-14 6.42262e-14 0)
(0.499223 -0.0186043 0)
(0.420254 -0.00642393 0)
(0.489837 0.01743 0)
(4.26647e-14 -1.01275e-14 0)
(-2.75386e-14 7.86102e-14 0)
(0.529377 0.00572611 0)
(4.09582e-14 1.45108e-13 0)
(0.441441 -0.00407263 0)
(0.492058 0.0225338 0)
(1.61588e-13 -6.72202e-15 0)
(-2.53804e-15 -4.33349e-14 0)
(0.553479 0.0412603 0)
(0.507927 -0.000787813 0)
(2.13362e-13 -5.44912e-14 0)
(0.49323 0.00517887 0)
(9.96471e-14 -3.7695e-14 0)
(-6.93778e-14 6.7892e-14 0)
(0.530859 0.00436715 0)
(4.54259e-14 -6.69768e-14 0)
(-5.07338e-14 5.77663e-15 0)
(-1.66574e-13 7.408e-14 0)
(-4.8575e-14 -1.32344e-13 0)
(0.507316 0.000475328 0)
(-2.4104e-14 -7.3633e-15 0)
(0.512871 -4.89777e-05 0)
(6.49074e-14 -4.13746e-14 0)
(-5.07892e-14 4.97116e-14 0)
(0.487567 0.0153176 0)
(1.61603e-14 1.39681e-15 0)
(-1.81127e-13 -1.27532e-13 0)
(8.34564e-14 2.67166e-15 0)
(0.67623 0.0990712 0)
(0.507001 -0.00185926 0)
(2.59964e-13 -3.16784e-13 0)
(0.467232 0.0101307 0)
(4.81249e-14 1.13644e-13 0)
(0.553766 -0.0353345 0)
(0.0653674 -0.00945809 0)
(0.506456 0.0019768 0)
(-8.13583e-14 1.45359e-13 0)
(-1.25555e-14 6.75749e-14 0)
(0.507096 -8.24899e-05 0)
(7.47548e-14 -7.97963e-14 0)
(0.473663 -0.011597 0)
(4.09905e-14 -1.41214e-13 0)
(0.507127 -0.00201464 0)
(-4.49376e-15 -3.00272e-14 0)
(2.17897e-13 6.70092e-14 0)
(-5.19037e-14 -3.0439e-14 0)
(0.507959 0.0015124 0)
(-6.49329e-14 7.59104e-14 0)
(-2.16513e-13 8.78009e-14 0)
(4.17316e-14 8.61717e-15 0)
(0.50835 -0.0029081 0)
(0.510527 0.00100399 0)
(6.58036e-14 -5.92126e-14 0)
(0.506648 0.000795126 0)
(2.15541e-14 -4.6049e-14 0)
(-2.08527e-13 -2.22103e-13 0)
(1.72079e-13 5.45174e-14 0)
(-1.34898e-13 1.01279e-13 0)
(4.02667e-14 -1.87433e-14 0)
(-1.16195e-13 -4.61195e-14 0)
(-2.37636e-13 -9.51223e-14 0)
(1.09019e-15 -1.05003e-13 0)
(8.04702e-14 -1.1415e-13 0)
(0.509354 -0.00403392 0)
(0.202543 0.0261457 0)
(0.39124 0.0990407 0)
(1.76778e-13 2.35748e-15 0)
(0.582859 0.0384025 0)
(4.14153e-14 -2.09317e-14 0)
(8.87085e-15 -5.36574e-14 0)
(0.457233 0.0533991 0)
(0.506178 -0.000129809 0)
(2.42748e-13 -2.81944e-13 0)
(0.508322 0.00293464 0)
(-1.41372e-13 -5.65876e-14 0)
(-1.01528e-13 1.28909e-14 0)
(-3.75907e-14 -1.00472e-13 0)
(-2.9301e-14 -4.50193e-14 0)
(2.35794e-14 2.30534e-14 0)
(-1.99314e-13 4.49378e-14 0)
(0.513502 0.0180127 0)
(9.3316e-14 -2.33616e-14 0)
(0.514108 0.11979 0)
(1.15255e-13 -6.23283e-14 0)
(8.32937e-14 1.55234e-13 0)
(0.508109 4.22803e-05 0)
(3.97615e-14 -8.33878e-14 0)
(-1.20157e-13 -7.58551e-14 0)
(-4.80098e-14 1.57588e-14 0)
(0.508692 0.000100167 0)
(0.50863 -0.00127506 0)
(1.36222e-13 1.2944e-13 0)
(-0.531272 0.0416516 0)
(7.96236e-14 -1.5158e-13 0)
(-7.78873e-14 3.32275e-14 0)
(0.579974 0.0186082 0)
(1.46088e-13 -6.05873e-14 0)
(0.508893 -0.000582648 0)
(0.484643 -0.0338682 0)
(1.0224e-13 1.52489e-13 0)
(0.688137 0.0108885 0)
(-2.47225e-14 5.65351e-14 0)
(0.514353 0.0137673 0)
(0.508031 -0.000131214 0)
(-2.20734e-14 -8.72266e-14 0)
(-1.20669e-13 -3.6104e-14 0)
(1.88941e-13 -3.34534e-14 0)
(9.85219e-14 6.2397e-14 0)
(1.40038e-13 1.02598e-13 0)
(0.428451 0.124416 0)
(-1.51077e-14 2.51989e-14 0)
(4.27527e-14 2.15689e-14 0)
(-2.31449e-14 9.78027e-14 0)
(1.65408e-13 -3.61738e-14 0)
(-2.44731e-14 -6.96425e-14 0)
(0.508558 0.000701994 0)
(9.30406e-15 9.12747e-14 0)
(-1.03071e-13 -1.35847e-13 0)
(0.46861 0.11329 0)
(-4.56844e-14 -4.65365e-14 0)
(1.60039e-13 2.44614e-13 0)
(2.70309e-14 -1.15181e-13 0)
(2.91691e-14 1.85199e-14 0)
(0.508651 -3.40939e-05 0)
(1.07455e-13 2.09361e-13 0)
(3.38099e-14 5.75936e-14 0)
(1.6239e-14 -5.11112e-14 0)
(0.567076 0.0214302 0)
(-3.7438e-14 -1.37129e-13 0)
(-0.468157 0.297157 0)
(0.50563 0.000196722 0)
(6.18434e-15 -1.9326e-15 0)
(3.48557e-15 -7.90851e-14 0)
(2.33377e-14 8.36878e-15 0)
(4.54274e-16 1.14705e-14 0)
(0.507803 -0.000301605 0)
(1.41436e-13 8.12556e-14 0)
(6.24734e-14 -3.48235e-14 0)
(-1.56174e-14 4.81184e-14 0)
(5.10186e-14 -1.04948e-13 0)
(-1.29553e-13 -6.32179e-14 0)
(-1.86149e-14 4.4938e-14 0)
(-2.63355e-14 1.31485e-15 0)
(-9.44384e-14 -3.55761e-14 0)
(1.85342e-13 -6.79466e-14 0)
(-1.68362e-13 5.49884e-15 0)
(0.508526 -0.00064259 0)
(-0.0460234 0.0253651 0)
(-0.0819695 -0.0492061 0)
(0.547003 -0.00847601 0)
(1.87746e-14 2.20975e-14 0)
(-1.92628e-14 5.59181e-14 0)
(0.512468 0.00679674 0)
(4.85902e-14 -1.27962e-14 0)
(-2.64023e-05 -3.82859e-05 0)
(0.467911 0.0342371 0)
(2.31218e-14 -8.80853e-14 0)
(-2.62442e-15 -1.15902e-13 0)
(0.586507 -0.0244927 0)
(0.508376 -0.0030776 0)
(4.45499e-14 -8.55099e-14 0)
(-1.72048e-13 -5.20603e-14 0)
(-7.34497e-14 2.13721e-14 0)
(0.518316 0.0294353 0)
(-4.73811e-14 5.2805e-14 0)
(0.508372 -0.0035072 0)
(-4.60381e-15 -1.05886e-13 0)
(0.508873 -0.00204373 0)
(-2.29508e-14 -1.90014e-13 0)
(6.63348e-14 2.93055e-14 0)
(0.511574 -0.000500284 0)
(8.20318e-14 -9.04718e-15 0)
(-1.07924e-13 4.57602e-14 0)
(1.4559e-13 6.45106e-15 0)
(4.67024e-14 -8.39419e-15 0)
(4.31286e-14 1.10565e-13 0)
(2.73639e-13 9.17352e-14 0)
(-1.53135e-13 1.20501e-13 0)
(0.538639 0.0340941 0)
(-1.6896e-13 2.17622e-14 0)
(0.508098 -0.00302845 0)
(-6.96224e-14 8.88444e-14 0)
(0.503669 0.00271736 0)
(0.473617 0.0402108 0)
(1.02138e-13 -7.07699e-14 0)
(0.788563 0.0283328 0)
(0.0472425 0.0319848 0)
(6.91467e-14 9.51217e-15 0)
(3.21522e-15 1.10521e-14 0)
(3.85858e-15 1.98122e-14 0)
(1.43691e-14 2.80702e-14 0)
(1.47439e-09 6.98142e-11 0)
(2.53625e-14 1.26769e-13 0)
(6.84577e-14 -1.31523e-13 0)
(0.544173 0.04929 0)
(0.554195 -0.00290679 0)
(-0.921785 0.0585852 0)
(0.534832 0.030541 0)
(1.67609e-15 1.30295e-13 0)
(0.511009 0.000308515 0)
(-2.92761e-14 -4.3378e-14 0)
(-9.48026e-14 -1.92865e-13 0)
(-4.87946e-14 1.02599e-13 0)
(0.532913 0.0248495 0)
(-1.20869e-15 -8.98418e-14 0)
(-4.85347e-14 7.24695e-14 0)
(2.29119e-14 -1.55904e-14 0)
(-1.59098e-14 5.80618e-14 0)
(0.507839 -0.000349104 0)
(-2.84108e-14 -1.88794e-14 0)
(-1.4234e-13 -5.5553e-15 0)
(5.94779e-14 -3.68126e-15 0)
(-2.59852e-14 -8.30548e-14 0)
(2.01223e-14 5.44607e-14 0)
(0.736013 -0.0243966 0)
(-1.9853e-14 -8.7058e-15 0)
(0.561872 0.000915912 0)
(2.13279e-13 4.09853e-14 0)
(6.84762e-15 -6.70602e-15 0)
(2.27619e-13 -7.06903e-14 0)
(0.461392 0.0521131 0)
(0.485304 -0.0387164 0)
(1.08149e-13 -9.23641e-14 0)
(7.01818e-14 9.8097e-15 0)
(0.504658 -0.00221045 0)
(0.08482 0.0336132 0)
(-1.02337e-13 -1.3423e-14 0)
(0.50526 -0.00218449 0)
(-1.51621e-13 4.7042e-14 0)
(-6.67716e-14 1.66113e-13 0)
(-1.01521e-13 1.24301e-13 0)
(3.27578e-14 1.00334e-13 0)
(0.508117 -0.000588035 0)
(7.64742e-14 -2.23127e-14 0)
(-6.97112e-14 1.17472e-13 0)
(3.7682e-14 -1.23951e-13 0)
(6.85322e-15 3.02814e-14 0)
(2.0081e-13 1.50583e-13 0)
(2.99052e-15 5.53397e-14 0)
(0.508136 -0.00052325 0)
(-2.67004e-14 7.16103e-14 0)
(0.529022 0.0466655 0)
(-1.27917e-13 1.95298e-14 0)
(0.541808 0.203047 0)
(-7.87436e-14 -6.33503e-14 0)
(2.22027e-13 -1.07845e-13 0)
(2.43704e-13 -1.21307e-14 0)
(6.76826e-14 -2.47401e-15 0)
(2.3309e-13 4.37295e-14 0)
(-2.64835e-14 -8.72015e-14 0)
(0.508125 -0.00049235 0)
(-1.59828e-13 7.63588e-14 0)
(3.20377e-14 -1.37689e-13 0)
(0.508068 -0.000869692 0)
(0.494803 -0.0146786 0)
(-8.02476e-14 7.59977e-14 0)
(0.528493 0.216294 0)
(-6.38922e-14 -1.49063e-13 0)
(-8.02852e-14 -1.37713e-14 0)
(1.19423e-14 -3.41146e-14 0)
(9.67459e-14 1.33201e-13 0)
(0.14124 0.0416547 0)
(0.507369 0.00209447 0)
(-2.06126e-13 -3.88722e-14 0)
(1.13293e-14 -3.30602e-14 0)
(4.15127e-14 -2.93292e-14 0)
(1.45682e-13 1.61894e-13 0)
(0.46955 0.0726827 0)
(-3.46128e-14 7.06187e-15 0)
(8.88851e-14 1.22822e-14 0)
(5.77272e-14 2.1637e-14 0)
(-5.3139e-14 -2.84959e-13 0)
(-2.09898e-13 8.77504e-14 0)
(-1.20051e-13 4.29776e-14 0)
(0.508251 -0.00141335 0)
(-1.98912e-13 -9.52062e-14 0)
(-9.55011e-14 1.91852e-14 0)
(0.507756 -0.000767208 0)
(5.63136e-14 -2.28769e-13 0)
(1.74396e-13 2.43385e-13 0)
(0.553768 -0.00555883 0)
(-1.27186e-13 -1.86508e-13 0)
(0.525545 0.0124443 0)
(4.63649e-15 -5.76551e-14 0)
(-2.5021e-14 -1.04826e-13 0)
(1.38004e-13 1.62412e-13 0)
(0.538133 0.0494914 0)
(8.79992e-14 -8.60876e-14 0)
(6.7975e-14 1.45439e-14 0)
(8.98655e-14 5.97166e-14 0)
(0.456288 0.0240427 0)
(2.03215e-12 5.20667e-12 0)
(2.23883e-14 1.1451e-13 0)
(-1.25538e-13 7.48146e-14 0)
(0.57254 0.00965363 0)
(6.49521e-14 -1.21221e-14 0)
(2.55809e-12 -6.00421e-12 0)
(-1.55084e-13 -1.06445e-13 0)
(-2.93807e-09 -4.20438e-08 0)
(5.81443e-14 -2.9038e-13 0)
(0.617349 -0.0460957 0)
(1.49179e-14 7.54073e-14 0)
(0.536755 -0.00129417 0)
(8.92104e-14 -2.01674e-14 0)
(0.553916 -0.0138751 0)
(-9.56023e-14 -1.65306e-14 0)
(0.509134 -0.00117495 0)
(0.53005 0.0188445 0)
(-5.26154e-14 4.6034e-14 0)
(2.84587e-14 3.99811e-14 0)
(7.61302e-15 3.93601e-14 0)
(-2.34055e-13 9.30371e-15 0)
(-9.15121e-15 1.00428e-14 0)
(3.26069e-13 -1.89844e-13 0)
(1.24144e-13 1.39693e-13 0)
(8.68346e-14 3.16938e-14 0)
(-6.85474e-14 6.91365e-14 0)
(0.423191 0.00946125 0)
(-1.91305e-13 -5.71232e-14 0)
(0.505343 -0.00188366 0)
(-1.3874e-13 1.22924e-14 0)
(0.152814 0.1854 0)
(-6.90087e-14 1.17546e-14 0)
(4.18787e-14 -1.40441e-13 0)
(5.38787e-14 4.86654e-14 0)
(0.524395 0.0181516 0)
(-5.05275e-14 6.83951e-14 0)
(1.05468e-13 -2.51092e-13 0)
(0.412237 -0.0273064 0)
(-3.6404e-14 -6.77435e-14 0)
(2.56322e-13 -5.76971e-14 0)
(1.53298e-13 -4.69319e-14 0)
(0.52306 0.021274 0)
(-9.29482e-14 4.01414e-15 0)
(-0.0691181 0.222146 0)
(3.11411e-15 3.789e-14 0)
(-3.62967e-14 -1.59176e-13 0)
(0.480475 0.00156896 0)
(2.82879e-14 1.34454e-13 0)
(0.00661839 0.00579665 0)
(1.74182e-13 1.20846e-14 0)
(-1.21648e-13 1.49484e-13 0)
(7.04871e-14 -4.63564e-14 0)
(-1.46187e-15 7.88235e-14 0)
(7.72878e-15 -7.77331e-14 0)
(2.71995e-14 5.43069e-14 0)
(2.13685e-13 1.20952e-13 0)
(0.514812 -0.00664648 0)
(0.507664 0.004499 0)
(0.63422 0.0605675 0)
(-0.131832 -0.00591549 0)
(-1.04524e-14 -9.14021e-14 0)
(0.556822 -0.00727576 0)
(3.37196e-14 3.17349e-14 0)
(0.449001 0.0639526 0)
(-5.60522e-14 1.13884e-14 0)
(-4.73467e-14 2.07837e-13 0)
(0.508032 -0.00199438 0)
(1.29435e-13 -8.22601e-14 0)
(-5.423e-14 1.38087e-13 0)
(0.45438 0.0435405 0)
(-1.30213 0.682067 0)
(2.95814e-15 1.36247e-14 0)
(-9.69103e-15 3.66382e-14 0)
(0.570984 0.00411373 0)
(6.61976e-14 4.24891e-14 0)
(1.06433e-13 -7.0265e-14 0)
(1.73585e-13 -3.52327e-14 0)
(-1.42797e-14 3.27256e-14 0)
(-1.0113e-13 -1.90677e-14 0)
(0.508445 -0.000220567 0)
(0.248056 -0.036523 0)
(2.85604e-13 9.24148e-15 0)
(-3.34382e-15 8.24492e-14 0)
(-7.85589e-14 -3.18437e-14 0)
(-5.67816e-15 -8.42296e-14 0)
(0.506866 0.00065157 0)
(0.507062 -0.000107316 0)
(1.36127e-13 -4.73929e-14 0)
(3.07187e-13 -2.65232e-13 0)
(1.22421e-13 2.418e-14 0)
(0.496102 -0.00457771 0)
(-1.08305e-13 1.97395e-14 0)
(-4.7352e-14 -1.348e-15 0)
(-3.52718e-14 1.60975e-14 0)
(-8.57626e-14 6.1306e-14 0)
(0.509183 -0.00345247 0)
(8.78726e-14 6.01585e-14 0)
(0.063722 -0.239115 0)
(-1.10413e-13 -7.69524e-14 0)
(9.08067e-14 1.04176e-13 0)
(0.508354 -0.000272741 0)
(1.78307e-13 -1.35583e-13 0)
(3.94043e-15 -9.18379e-14 0)
(2.99283e-13 1.56065e-13 0)
(2.57239e-11 -1.38611e-11 0)
(0.508931 0.0257846 0)
(3.12785e-13 1.13024e-13 0)
(-3.58065e-15 -1.67424e-13 0)
(0.48987 -0.0405453 0)
(-5.28943e-14 1.02334e-13 0)
(0.577839 0.0180839 0)
(6.57074e-15 2.28197e-14 0)
(2.20366e-13 5.04108e-14 0)
(0.524554 0.0148476 0)
(-2.04675e-14 8.37417e-14 0)
(-2.39235e-14 5.62321e-14 0)
(-4.19321e-14 5.01373e-14 0)
(-1.64159e-13 6.97529e-14 0)
(0.509279 0.000349231 0)
(6.58898e-15 -5.4945e-14 0)
(0.502639 0.00134925 0)
(-8.8583e-14 -1.46733e-13 0)
(-4.60404e-15 -7.37896e-16 0)
(-3.93763e-14 1.40379e-13 0)
(-7.05999e-14 -1.31178e-13 0)
(-0.0819082 0.143241 0)
(0.425661 0.118483 0)
(3.70387e-14 -1.67813e-14 0)
(0.506308 -0.00132065 0)
(-9.00061e-14 -2.66371e-14 0)
(5.86485e-14 2.60955e-16 0)
(3.8738e-14 1.5793e-13 0)
(1.20937e-13 -5.3251e-14 0)
(-2.36085e-15 -7.35668e-14 0)
(0.442745 0.162436 0)
(0.491589 0.0585846 0)
(0.499082 -0.0428641 0)
(3.03e-14 -9.04876e-15 0)
(-8.78347e-14 7.7309e-14 0)
(0.506927 -0.000255754 0)
(7.58257e-14 -1.63446e-14 0)
(0.671236 0.0263067 0)
(3.42882e-14 -3.93394e-14 0)
(1.93739e-13 -3.01681e-14 0)
(-3.40943e-14 1.26488e-13 0)
(-6.86381e-14 -3.67714e-14 0)
(-1.44694e-13 1.47282e-14 0)
(1.01038e-13 8.9635e-15 0)
(2.74311e-14 -1.56326e-14 0)
(2.72168e-14 3.14169e-14 0)
(1.73692e-13 -4.33419e-14 0)
(-1.37264e-13 -9.82655e-14 0)
(3.53228e-14 3.9644e-14 0)
(-5.5138e-14 -2.75496e-14 0)
(5.20537e-14 -9.85412e-14 0)
(0.513557 0.0259998 0)
(-1.71968e-13 4.59932e-14 0)
(0.502791 0.00301974 0)
(0.682068 0.037896 0)
(0.557526 0.0507423 0)
(-3.37633e-14 -3.4661e-14 0)
(0.478763 -0.0451455 0)
(2.82859e-14 4.36813e-14 0)
(5.9249e-14 8.39135e-14 0)
(6.61587e-10 1.13382e-10 0)
(0.454213 0.0465387 0)
(1.13038e-13 1.12027e-13 0)
(1.12631e-13 -2.49889e-13 0)
(1.50089e-13 -3.55619e-14 0)
(0.43377 0.160952 0)
(-9.20076e-15 1.09573e-13 0)
(-9.84875e-14 1.98271e-16 0)
(2.05147e-13 1.12933e-13 0)
(1.47036e-13 -2.40359e-13 0)
(3.64737e-14 3.22263e-14 0)
(-2.54566e-14 -6.06375e-14 0)
(-9.34771e-15 -4.03643e-14 0)
(-2.27716e-15 1.19534e-13 0)
(9.06267e-14 2.52795e-13 0)
(-8.41183e-16 -1.82162e-13 0)
(0.460094 -0.0135386 0)
(0.510511 0.00134953 0)
(7.69805e-14 1.29893e-13 0)
(-6.5885e-14 -3.37266e-16 0)
(-1.53765e-13 7.77282e-14 0)
(1.85902e-13 1.547e-13 0)
(-1.60624e-13 -9.66391e-14 0)
(1.77971e-13 -2.78436e-15 0)
(1.55749e-13 -9.79981e-14 0)
(1.0441e-13 -1.58589e-13 0)
(0.529346 0.0125155 0)
(0.508042 0.000364113 0)
(1.24544e-13 1.87512e-13 0)
(0.509371 -0.000637414 0)
(0.535799 0.00440048 0)
(3.03953e-14 -1.39996e-13 0)
(4.85411e-14 -1.18357e-13 0)
(6.90951e-14 -8.12795e-14 0)
(3.22584e-14 5.2137e-15 0)
(-1.35915e-15 9.29085e-14 0)
(0.519429 0.0429471 0)
(-2.4322e-14 3.10722e-14 0)
(0.51302 0.113695 0)
(3.24721e-14 9.61127e-14 0)
(-3.74443e-14 -4.4026e-15 0)
(8.33351e-14 -1.87063e-14 0)
(0.509077 -0.00067716 0)
(0.506736 -0.118833 0)
(-1.30179e-13 -1.32919e-15 0)
(-2.94172e-14 9.76451e-14 0)
(1.24458e-13 -4.88135e-14 0)
(0.508939 -0.000433516 0)
(0.504051 0.00443194 0)
(4.44317e-15 1.27128e-13 0)
(-7.97816e-14 -7.2988e-15 0)
(1.3501e-13 -7.88006e-15 0)
(0.729419 0.00544847 0)
(-7.93967e-06 5.025e-07 0)
(2.28868e-13 7.51672e-14 0)
(-2.40235e-14 -5.5888e-14 0)
(2.25903e-13 -8.53736e-14 0)
(1.59118e-13 1.41904e-14 0)
(-1.83931e-14 -1.13159e-14 0)
(8.35695e-13 1.91696e-12 0)
(-9.25585e-14 -2.22946e-13 0)
(-6.18883e-14 1.34797e-13 0)
(0.486599 -0.02942 0)
(2.42376e-13 -2.22952e-13 0)
(8.1911e-14 1.28652e-13 0)
(2.26412e-13 -1.74889e-13 0)
(2.11243e-13 -6.53425e-14 0)
(-1.52858e-14 -7.84079e-14 0)
(0.518556 0.100591 0)
(0.53944 -0.0167075 0)
(4.86582e-14 3.96888e-14 0)
(5.52549e-15 5.44742e-14 0)
(0.52062 0.0210817 0)
(1.11853e-13 -5.15087e-15 0)
(4.6224e-14 -1.83134e-13 0)
(5.13526e-14 1.03364e-13 0)
(-9.90328e-14 -6.34487e-14 0)
(-8.96867e-14 7.75543e-14 0)
(1.53875e-13 1.01856e-13 0)
(3.65781e-14 -6.21309e-14 0)
(8.83008e-15 3.51883e-14 0)
(0.120291 0.0177553 0)
(1.25123e-13 -1.99932e-14 0)
(2.5255e-13 8.75043e-14 0)
(2.83382e-13 -1.22164e-13 0)
(-9.10273e-14 1.91939e-14 0)
(5.25759e-14 -8.15045e-14 0)
(0.464955 -0.0224607 0)
(-1.31733e-13 6.34435e-14 0)
(-4.73519e-14 9.19617e-14 0)
(9.69734e-14 6.17171e-14 0)
(-8.10695e-14 2.4439e-13 0)
(5.21988e-14 1.24202e-15 0)
(-8.32809e-14 8.66977e-14 0)
(-6.44657e-14 9.64115e-15 0)
(1.38503e-13 -1.79759e-14 0)
(1.09395e-13 -6.87838e-14 0)
(0.283714 -0.0277794 0)
(7.94924e-14 -2.90858e-14 0)
(6.43846e-14 -2.68412e-14 0)
(6.67363e-14 -5.73671e-14 0)
(-3.37357e-15 5.10758e-14 0)
(-1.24611e-14 7.0994e-14 0)
(0.507454 0.0005283 0)
(1.20551e-13 -1.39671e-14 0)
(-3.21374e-14 1.24334e-14 0)
(-1.14026e-13 8.00992e-14 0)
(1.16779e-13 -9.70279e-14 0)
(-1.13459e-13 1.1647e-12 0)
(0.502171 -0.0032612 0)
(0.631087 0.343468 0)
(1.77269e-14 -5.40533e-14 0)
(1.17997e-13 -7.80791e-15 0)
(5.13912e-14 1.68799e-14 0)
(1.72909e-14 -9.9422e-14 0)
(7.89702e-14 6.87916e-14 0)
(1.64101e-13 -2.24548e-14 0)
(1.9274e-13 -5.432e-14 0)
(2.27658e-13 -1.44301e-13 0)
(0.519892 0.0158064 0)
(0.54819 0.0182374 0)
(-3.40268e-14 -8.22286e-14 0)
(-3.32428e-14 5.78768e-14 0)
(-3.54574e-14 7.84605e-14 0)
(7.93813e-14 -8.06041e-15 0)
(1.34394e-13 -7.17852e-15 0)
(3.16875e-15 -8.06904e-14 0)
(-4.28464e-14 -1.21996e-13 0)
(2.32064e-13 -4.9238e-15 0)
(2.54556e-13 -1.13388e-13 0)
(2.25835e-14 -7.94714e-14 0)
(1.60027e-13 -7.287e-14 0)
(0.728442 -0.150745 0)
(8.92154e-14 -6.11945e-14 0)
(-1.69679e-15 -2.67623e-14 0)
(0.30248 0.0864001 0)
(-6.27174e-14 -1.06404e-13 0)
(-5.07049e-14 2.06981e-14 0)
(1.18581e-13 -2.90676e-14 0)
(2.98798e-14 8.86614e-14 0)
(-6.42907e-14 1.78612e-14 0)
(1.44499e-13 -8.08101e-14 0)
(1.31923e-13 1.98728e-13 0)
(-7.4136e-15 1.97606e-14 0)
(1.21522e-13 -3.91621e-14 0)
(7.51862e-14 -6.50694e-14 0)
(6.70472e-14 5.09526e-14 0)
(0.304603 0.486254 0)
(1.13685e-13 -5.34913e-14 0)
(-5.61963e-14 -2.09214e-13 0)
(-3.07036e-14 8.83009e-14 0)
(1.72403e-13 1.17169e-13 0)
(-9.58194e-14 -1.93291e-14 0)
(9.65936e-14 -1.42685e-13 0)
(2.28212e-14 -4.4191e-14 0)
(4.85239e-14 -3.64888e-14 0)
(3.24412e-14 -5.40445e-14 0)
(-1.35976e-13 8.59043e-14 0)
(1.5287e-14 -3.24579e-14 0)
(5.91214e-14 -2.58685e-13 0)
(0.16633 -0.0225106 0)
(-1.73484e-14 -9.27167e-14 0)
(8.2074e-14 4.11403e-14 0)
(-2.18989e-13 -8.68827e-14 0)
(-1.20817e-13 -2.77288e-14 0)
(0.508128 -0.000316894 0)
(5.77434e-14 -8.22239e-14 0)
(0.598906 -0.0140503 0)
(1.80394e-13 1.13628e-14 0)
(0.51603 0.124752 0)
(-2.70332e-14 1.02529e-13 0)
(-5.8463e-14 1.03074e-13 0)
(-7.57896e-14 5.92607e-14 0)
(0.506479 -0.000795754 0)
(-1.50718e-13 1.23671e-13 0)
(2.68645e-14 3.96993e-14 0)
(-1.51552e-13 -8.75384e-14 0)
(6.1194e-14 3.14805e-14 0)
(3.36019e-14 3.75477e-14 0)
(-4.87017e-14 4.8146e-14 0)
(-5.3174e-14 -1.44323e-14 0)
(0.614282 0.0462532 0)
(4.87033e-14 1.93194e-13 0)
(-7.79022e-14 -4.66292e-14 0)
(2.40712e-13 1.11669e-13 0)
(-5.01287e-14 7.17708e-14 0)
(-2.36146e-14 -5.30428e-14 0)
(0.499131 0.00116066 0)
(-8.32725e-14 -8.13473e-14 0)
(0.511128 0.000536692 0)
(3.08329e-14 -3.33464e-14 0)
(0.0544516 0.0121422 0)
(0.218988 0.0133223 0)
(-1.62208e-13 1.47917e-13 0)
(8.37339e-14 -2.07603e-14 0)
(0.509952 0.000371619 0)
(-4.51089e-14 -6.68486e-14 0)
(-9.98004e-14 9.40196e-14 0)
(0.459557 -0.0207303 0)
(-1.49614e-14 -6.46944e-14 0)
(7.4491e-14 5.03866e-14 0)
(1.3617e-14 -1.11539e-13 0)
(-2.14356e-13 -5.51861e-14 0)
(5.03743e-14 -5.94547e-14 0)
(-6.0235e-14 2.92086e-14 0)
(1.3116e-13 7.49931e-14 0)
(0.532226 0.00350432 0)
(0.506389 -0.00152043 0)
(-3.78609e-14 -2.50724e-14 0)
(9.61292e-14 -5.59913e-14 0)
(9.11597e-14 -4.45894e-15 0)
(8.13004e-14 -6.41055e-14 0)
(5.44593e-14 -4.54653e-14 0)
(2.64013e-14 4.38195e-14 0)
(-1.09561e-13 4.98978e-14 0)
(6.25043e-14 3.77983e-14 0)
(2.10153e-10 4.21083e-11 0)
(-1.64129e-14 8.34606e-14 0)
(-8.41835e-14 -6.30701e-14 0)
(-1.52667e-13 -1.03425e-13 0)
(1.02076e-09 -2.32785e-10 0)
(2.7757e-14 -4.77733e-14 0)
(8.6686e-14 8.05319e-15 0)
(8.5674e-14 -7.17965e-14 0)
(8.32188e-14 1.52293e-14 0)
(0.366543 -0.00501923 0)
(5.57615e-14 1.21048e-13 0)
(7.45963e-14 2.07704e-13 0)
(9.28604e-14 1.91162e-14 0)
(-2.83593e-13 -9.36085e-14 0)
(-6.40424e-14 1.14268e-13 0)
(0.554527 0.038889 0)
(1.28616e-13 3.45774e-15 0)
(0.4917 -0.0114238 0)
(0.471516 0.0441369 0)
(8.09358e-14 -4.84388e-14 0)
(2.16547e-13 -1.40481e-13 0)
(8.76281e-14 1.27158e-13 0)
(-1.97267e-14 -6.68639e-14 0)
(4.97563e-14 1.42019e-13 0)
(-1.28555e-14 -1.58165e-13 0)
(1.59679e-13 3.59282e-14 0)
(7.91047e-14 6.75206e-14 0)
(-9.35978e-15 -8.92429e-14 0)
(8.8722e-14 -1.53696e-14 0)
(-3.78603e-15 5.60969e-14 0)
(8.06314e-14 1.18251e-13 0)
(-6.06982e-14 -2.23577e-15 0)
(0.369299 -0.0242528 0)
(1.79795e-14 9.68307e-14 0)
(-9.89104e-14 -2.05071e-15 0)
(-3.71242e-14 -1.38787e-14 0)
(-3.71419e-14 1.25651e-14 0)
(6.52081e-14 -6.6373e-14 0)
(-9.52065e-15 -2.6603e-14 0)
(0.57305 0.0107001 0)
(3.50867e-14 -7.29134e-15 0)
(0.507867 0.000880748 0)
(-1.05868e-13 -8.0739e-15 0)
(0.585973 0.0180393 0)
(-1.39057e-13 -2.45091e-14 0)
(-9.46011e-15 -7.44175e-14 0)
(-1.91908e-14 1.38272e-14 0)
(1.48579e-14 -6.20323e-15 0)
(7.08583e-14 9.1309e-14 0)
(-7.54803e-14 2.45646e-13 0)
(-1.02733e-14 -1.15884e-14 0)
(-4.75993e-14 -1.85319e-15 0)
(8.28934e-14 1.5833e-13 0)
(-3.9857e-14 6.20674e-14 0)
(-3.32104e-14 5.73501e-14 0)
(0.44204 0.0791209 0)
(1.40285e-13 3.23806e-14 0)
(6.71499e-14 1.17544e-13 0)
(3.64649e-14 2.91601e-14 0)
(-1.68266e-13 -7.09159e-14 0)
(1.50369e-14 2.56207e-14 0)
(-1.9908e-14 6.32814e-14 0)
(-4.43449e-14 -6.18709e-14 0)
(1.19042e-13 3.82144e-14 0)
(0.149133 0.0661475 0)
(-6.81617e-14 -2.45791e-13 0)
(9.72056e-14 2.87299e-14 0)
(0.495002 0.00327217 0)
(1.40291e-13 1.17569e-13 0)
(3.30376e-14 -5.30825e-14 0)
(6.73358e-14 -6.06459e-14 0)
(-7.17591e-14 -1.12569e-13 0)
(-1.23632e-14 9.7271e-15 0)
(0.523139 0.0632979 0)
(3.80477e-14 9.33295e-14 0)
(-1.194e-13 -5.37617e-14 0)
(-1.822e-14 -4.62858e-14 0)
(-1.9094e-14 -1.65884e-14 0)
(1.33881e-13 3.3854e-15 0)
(1.49209e-13 -1.255e-15 0)
(2.63404e-13 1.86663e-14 0)
(0.485215 0.0277038 0)
(-1.11309e-13 1.57909e-14 0)
(2.38978e-15 -6.72348e-14 0)
(9.78788e-14 -4.70357e-14 0)
(3.90763e-14 -7.11844e-14 0)
(1.6765e-13 1.1804e-13 0)
(-9.59436e-14 4.12534e-14 0)
(1.6444e-13 1.4181e-13 0)
(1.71903e-14 2.00515e-14 0)
(2.33542e-10 -7.95459e-11 0)
(1.1665e-13 -2.29175e-13 0)
(-3.6153e-14 -1.03612e-13 0)
(8.16606e-14 6.58241e-14 0)
(-2.27889e-13 2.7709e-15 0)
(0.481466 0.0569441 0)
(7.62405e-14 -1.45548e-13 0)
(0.517669 -0.00935989 0)
(-1.53802e-13 8.98997e-14 0)
(-1.00891e-13 1.13719e-13 0)
(2.31557e-13 -4.72529e-14 0)
(7.20608e-14 -5.37794e-14 0)
(0.505518 -0.0039834 0)
(0.447212 0.0635691 0)
(3.49338e-09 1.54096e-10 0)
(3.90439e-14 -9.79999e-14 0)
(0.48947 0.035803 0)
(0.51178 -0.000557484 0)
(-5.58574e-14 -3.59408e-14 0)
(8.47068e-14 -5.87181e-14 0)
(0.478224 0.0388892 0)
(-9.90231e-14 6.5396e-14 0)
(-6.60012e-05 3.19575e-05 0)
(-2.35347e-14 -5.79825e-14 0)
(-1.1068e-13 -1.92687e-14 0)
(-8.30142e-14 4.66898e-15 0)
(2.67888e-14 -5.81919e-14 0)
(0.48604 0.0363937 0)
(-3.72839e-14 -7.24282e-15 0)
(-9.15557e-14 -7.33035e-14 0)
(-0.0683755 0.181531 0)
(0.475326 0.0409215 0)
(0.538696 0.0698287 0)
(-9.84506e-14 1.0023e-13 0)
(1.40408e-13 -4.42595e-14 0)
(4.16549e-14 -3.41513e-14 0)
(0.456929 0.0381466 0)
(1.62508e-09 -2.27899e-10 0)
(1.05551e-13 -9.06346e-14 0)
(3.8506e-10 2.22795e-10 0)
(0.42299 0.195753 0)
(9.28529e-14 -1.78417e-14 0)
(0.534289 0.0233699 0)
(5.96233e-14 1.64953e-13 0)
(-5.97448e-15 1.14428e-13 0)
(0.414137 0.0488548 0)
(6.08254e-14 2.68869e-13 0)
(2.45597e-15 5.88537e-14 0)
(4.42503e-14 2.21743e-14 0)
(1.35086e-13 1.51021e-14 0)
(6.42821e-14 1.22032e-13 0)
(0.453433 0.196394 0)
(3.12204e-14 1.97939e-13 0)
(1.13854e-13 -1.93631e-14 0)
(4.43233e-14 -3.7866e-14 0)
(1.72671e-13 1.95705e-14 0)
(-8.37363e-16 1.57421e-13 0)
(3.7941e-14 -1.44004e-13 0)
(3.48954e-14 -7.04191e-14 0)
(7.27903e-14 -4.89716e-14 0)
(7.71795e-14 7.98326e-14 0)
(4.97819e-14 1.21884e-13 0)
(1.68046e-14 -1.66766e-13 0)
(4.78941e-14 8.33521e-14 0)
(-2.92081e-14 5.73041e-14 0)
(-6.47628e-14 5.86786e-14 0)
(0.449616 -0.00825671 0)
(-2.62742e-14 -1.33677e-14 0)
(0.503886 0.0216411 0)
(9.11753e-15 8.69167e-14 0)
(0.506583 0.0310926 0)
(-1.84852e-14 -7.35195e-14 0)
(0.495388 0.18583 0)
(2.70668e-14 7.34765e-14 0)
(-6.91377e-14 -4.24807e-14 0)
(-4.72412e-14 -7.73194e-14 0)
(8.22714e-14 -7.35379e-14 0)
(-1.36049e-14 -1.35456e-14 0)
(-5.60898e-14 1.58351e-14 0)
(6.50887e-14 6.86585e-14 0)
(2.41076e-14 6.67692e-14 0)
(1.10965e-13 1.3037e-13 0)
(1.18018e-13 -4.78209e-14 0)
(-1.29909e-13 -1.25262e-13 0)
(-7.5852e-14 2.26874e-14 0)
(-1.18136e-05 2.70624e-06 0)
(-8.29324e-14 2.25035e-13 0)
(1.66453e-13 5.48517e-14 0)
(8.02381e-14 3.17206e-15 0)
(-6.95704e-14 -9.12147e-15 0)
(0.505487 0.00273598 0)
(3.8156e-14 1.40276e-13 0)
(0.508439 0.000111606 0)
(-4.83015e-14 2.20995e-13 0)
(-3.67915e-14 -6.37664e-14 0)
(2.57764e-14 -1.8523e-13 0)
(0.505944 -0.00141981 0)
(4.57981e-14 1.50741e-14 0)
(1.06992e-13 -8.77711e-14 0)
(-1.40018e-13 -6.7711e-14 0)
(0.517218 0.00291904 0)
(-3.90796e-13 3.36642e-14 0)
(1.44453e-15 3.64652e-14 0)
(6.43197e-14 -1.39709e-13 0)
(-9.86794e-14 1.22993e-13 0)
(1.47959e-13 1.37643e-13 0)
(0.493096 0.0462238 0)
(5.73859e-14 -2.876e-14 0)
(-5.33219e-14 5.33647e-14 0)
(8.71683e-14 1.68111e-13 0)
(3.2804e-14 -3.31519e-14 0)
(6.31142e-15 1.8105e-13 0)
(0.508011 -0.00102842 0)
(7.2925e-14 1.03997e-13 0)
(3.54459e-14 6.56878e-14 0)
(7.54176e-14 -2.36374e-14 0)
(8.65181e-14 1.23873e-13 0)
(7.98909e-14 -3.49162e-14 0)
(-5.88472e-14 4.58721e-14 0)
(1.36898e-13 8.77406e-14 0)
(-1.16295e-13 -5.20653e-14 0)
(5.75328e-14 -1.81339e-13 0)
(6.88958e-14 -2.32793e-14 0)
(0.47987 -0.0445522 0)
(4.25928e-14 7.95792e-14 0)
(0.500915 0.0167777 0)
(1.72946e-14 3.58026e-14 0)
(3.01106e-14 -1.42783e-13 0)
(0.5016 0.0113666 0)
(2.4296e-14 1.50144e-13 0)
(6.2481e-16 -2.75132e-14 0)
(0.573531 -0.046088 0)
(-4.33916e-14 -5.21018e-14 0)
(0.39237 0.202415 0)
(0.523232 0.255464 0)
(9.67581e-15 -9.30399e-14 0)
(8.02089e-14 6.53044e-14 0)
(-1.08535e-13 -8.4082e-14 0)
(-4.40727e-14 5.87725e-14 0)
(1.15059e-13 -3.18187e-15 0)
(1.07339e-14 7.64846e-15 0)
(-4.29474e-14 -1.31175e-13 0)
(-2.24014e-14 7.42914e-14 0)
(6.98726e-15 -1.55681e-13 0)
(6.73549e-14 2.8935e-14 0)
(6.90225e-14 5.29757e-14 0)
(0.522646 0.0161495 0)
(1.1255e-14 1.44899e-13 0)
(2.45232e-14 1.16775e-13 0)
(-6.30198e-16 -4.42884e-14 0)
(8.23971e-14 1.17286e-13 0)
(0.151108 0.0764983 0)
(1.1347e-13 -2.16378e-13 0)
(-4.71448e-14 7.00363e-14 0)
(2.63838e-13 -7.60768e-14 0)
(3.67136e-14 -1.42681e-13 0)
(4.45137e-16 -1.09228e-13 0)
(-4.37162e-14 -1.29365e-14 0)
(6.58364e-15 -1.18373e-13 0)
(0.72407 0.215078 0)
(3.58117e-14 -9.64747e-14 0)
(-1.50189e-14 3.43649e-14 0)
(-9.8286e-15 -2.47316e-13 0)
(-5.93968e-14 1.14974e-13 0)
(-1.42677e-13 1.595e-13 0)
(0.494272 0.0351738 0)
(1.13734e-13 -9.2072e-14 0)
(-1.43847e-13 -5.56907e-15 0)
(-4.95789e-14 -1.8886e-13 0)
(1.41183e-13 -8.51858e-14 0)
(2.8846e-14 -3.4522e-14 0)
(0.492891 0.00866401 0)
(2.66604e-13 2.14915e-13 0)
(-2.17555e-13 8.19587e-14 0)
(0.458807 0.143216 0)
(-2.40205e-14 -1.55592e-13 0)
(0.504551 0.0194667 0)
(0.248533 0.0512985 0)
(5.27257e-14 -2.11086e-14 0)
(-1.92035e-16 1.67264e-15 0)
(-7.08438e-14 -5.70115e-14 0)
(-3.08481e-14 4.56775e-14 0)
(2.56343e-13 -9.5065e-16 0)
(3.42604e-14 -8.91885e-14 0)
(-6.86237e-14 7.00388e-14 0)
(5.732e-15 2.40746e-14 0)
(2.33208e-16 -9.1603e-14 0)
(-5.16495e-14 -1.37224e-13 0)
(-1.28295e-15 -4.2361e-14 0)
(0.43374 -0.00406244 0)
(0.504934 -0.00597146 0)
(-1.63628e-13 -1.42181e-14 0)
(0.496597 0.0232544 0)
(1.34105e-14 -1.41803e-15 0)
(6.80768e-14 8.86543e-15 0)
(4.65624e-14 1.56704e-14 0)
(1.69941e-09 1.86718e-10 0)
(-8.83873e-14 -1.73983e-13 0)
(8.59552e-14 -6.85843e-14 0)
(0.521406 -0.0317319 0)
(0.507567 0.00052904 0)
(8.81767e-14 6.30239e-14 0)
(0.495245 0.00225421 0)
(5.68071e-14 1.12523e-13 0)
(3.35582e-14 -6.82943e-14 0)
(-1.8562e-14 6.45397e-14 0)
(6.43595e-14 -1.73095e-14 0)
(-4.26783e-14 1.32449e-13 0)
(0.495085 -0.00419813 0)
(-2.78227e-14 -8.56757e-14 0)
(-4.67144e-14 5.98514e-15 0)
(3.62197e-14 -1.04664e-13 0)
(5.02381e-14 -5.61452e-14 0)
(-1.62819e-13 2.07827e-16 0)
(5.83886e-15 -8.9515e-14 0)
(-1.16321e-15 7.63255e-14 0)
(2.31578e-13 1.32552e-13 0)
(-1.07543e-13 -5.70564e-15 0)
(-3.43667e-14 -9.93878e-14 0)
(9.43282e-14 6.46964e-14 0)
(1.10182e-13 7.10504e-14 0)
(-2.10067e-15 6.47916e-14 0)
(-1.22724e-13 5.05887e-14 0)
(-9.79595e-14 -2.2225e-14 0)
(4.14803e-14 4.76391e-14 0)
(2.65874e-13 1.19988e-13 0)
(-9.55657e-14 -1.46484e-13 0)
(5.05676e-14 -3.92542e-14 0)
(-8.34243e-14 -9.0693e-15 0)
(8.37282e-11 3.0193e-11 0)
(-9.21686e-07 -3.9056e-07 0)
(0.548886 0.0196772 0)
(-1.46055e-14 -1.85671e-14 0)
(2.47185e-14 -2.11228e-13 0)
(0.105051 0.0115872 0)
(-1.52889e-13 4.29723e-15 0)
(3.11386e-14 -8.19061e-14 0)
(1.07416e-13 2.23566e-13 0)
(6.30442e-14 -1.5085e-13 0)