/*--------------------------------*- C++ -*----------------------------------*\
  =========                 |
  \\      /  F ield         | OpenFOAM: The Open Source CFD Toolbox
   \\    /   O peration     | Website:  https://openfoam.org
    \\  /    A nd           | Version:  12
     \\/     M anipulation  |
\*---------------------------------------------------------------------------*/
FoamFile
{
    format      ascii;
    class       volScalarField;
    location    "9.58";
    object      rho;
}
// * * * * * * * * * * * * * * * * * * * * * * * * * * * * * * * * * * * * * //

dimensions      [1 -3 0 0 0 0 0];

internalField   nonuniform List<scalar> 
22702
(
1.40001
1.40001
1.26135
1.40001
1.45298
1.40001
1.84062
1.40001
1.40001
1.01458
1.83882
1.83992
1.40001
1.84211
1.2796
1.40001
1.40001
1.40001
1.83907
1.40001
1.84194
1.40001
1.84602
1.02504
1.84166
1.01958
1.40001
1.8479
1.01315
1.02601
1.40001
1.83912
1.40001
1.40001
1.40001
1.80924
1.84511
1.84449
1.40001
1.40001
1.01537
1.40001
1.6202
1.40001
1.84635
1.40001
1.40001
1.40001
1.40001
1.01599
1.40001
1.01879
1.40001
1.83832
1.40001
1.83817
1.40001
1.40001
1.40001
1.40001
1.06951
1.40001
1.40001
1.01029
1.40001
1.02592
1.40001
1.40001
1.40001
1.02341
1.40001
1.8426
1.66944
1.40001
1.84007
1.85745
1.03092
1.84029
1.01939
1.40001
1.83707
1.02972
1.84021
1.84583
1.40001
1.40001
1.40001
1.40001
1.32541
1.01961
1.83713
1.40001
1.40001
1.01599
1.40001
1.84205
1.01343
1.40001
1.40001
1.40001
1.40001
1.61954
1.8376
1.02025
1.40001
1.40001
1.5096
1.40001
1.02751
1.40001
1.83761
1.83862
1.40001
1.40001
1.02677
1.03775
1.01727
1.40001
1.40001
1.40001
1.40001
1.40001
1.30815
1.40001
1.77847
1.4424
1.83427
1.40001
1.83026
1.83864
1.84222
1.83883
1.40001
1.04326
1.40001
1.04343
1.40001
1.40001
1.40001
1.40001
1.83799
1.40001
1.40001
1.40001
1.40001
1.83816
1.40001
1.42739
1.40001
1.40001
1.40001
1.40001
1.01991
1.40001
1.41136
1.40001
1.02295
1.40001
1.40001
1.40001
1.83431
1.40001
1.84472
1.03355
1.05936
1.84076
1.84533
1.40001
1.47228
1.6549
1.40001
1.8379
1.01717
1.80986
1.40001
1.40001
1.40001
1.40001
1.8417
1.76622
1.40001
1.83809
1.00902
1.83786
1.40001
1.02447
1.40001
1.01922
1.02652
1.3998
1.40001
1.40001
1.84032
1.40001
1.40001
1.84204
1.40001
1.83576
1.8379
1.03676
1.40001
1.40001
1.03355
1.84181
1.40001
1.40001
1.40001
1.8415
1.40001
1.03771
1.40001
1.40001
1.84188
1.84197
1.83643
1.40001
1.40004
1.40001
1.40001
1.40001
1.84141
1.40001
1.02518
1.85284
1.84224
1.84256
1.40001
1.40001
1.40001
1.01214
1.84249
1.61044
1.40001
1.84324
1.0232
1.02737
1.84321
1.84629
1.40001
1.83959
1.00387
1.79078
1.40001
1.40001
1.40001
1.40001
1.84111
1.40001
1.66489
1.4429
1.40001
1.40001
1.84206
1.03253
1.15859
1.40001
1.84186
1.04463
1.83923
1.40001
1.40001
1.40001
1.40001
1.40001
1.40001
1.40001
1.01685
1.13604
1.03261
1.84199
1.40001
1.40001
1.40001
1.40001
1.7911
1.40001
1.01859
1.40001
1.00855
1.03013
1.84323
1.019
1.84194
1.40001
1.40001
1.40001
1.39756
1.02464
1.01016
1.4
1.40001
1.00484
1.40001
1.8383
1.00581
1.40001
1.40001
1.83794
1.03525
1.40001
1.84538
1.06793
1.84174
1.40001
1.00995
1.39771
1.40001
1.40001
1.40001
1.01937
1.40001
1.40001
1.4
1.40001
1.41735
1.66982
1.40001
1.05848
1.40001
1.40001
1.40001
1.40001
1.40001
1.40001
1.40001
1.83904
1.40001
1.8392
1.40001
1.40001
1.40001
1.05125
1.40001
1.83915
1.01869
1.40001
1.74123
1.40001
1.40001
1.83809
1.40001
1.40001
1.40001
1.83304
1.40001
1.40001
1.83669
1.83792
1.40001
1.49657
1.40001
1.40001
1.03876
1.40001
1.40001
1.40001
1.03225
1.40001
1.40001
1.40001
1.40001
1.05789
1.40001
1.40001
1.40001
1.40001
1.40001
1.03086
1.40008
1.84499
1.40001
1.39997
1.84414
1.84173
1.40001
1.40001
1.03224
1.2241
1.83852
1.40001
1.40001
1.40001
1.84138
1.02211
1.40001
1.84412
1.40001
1.40001
1.07427
1.08331
1.40001
1.03119
1.05081
1.40001
1.40001
1.40001
1.40001
1.40001
1.40001
1.40001
1.84241
1.51046
1.8259
1.03159
1.31292
1.83815
1.40001
1.83817
1.84006
1.03612
1.18925
1.40001
1.04373
1.40001
1.84956
1.40001
1.40001
1.40001
1.40001
1.84147
1.40001
1.40001
1.40001
1.40001
1.40001
1.40001
1.40001
1.5548
1.83776
1.40001
1.84187
1.40001
1.40001
1.03046
1.40001
1.40001
1.40001
1.40001
1.84179
1.73702
1.40001
1.40001
1.02967
1.84273
1.84203
1.40001
1.84204
1.84249
1.84192
1.40001
1.24235
1.40001
1.84088
1.38326
1.84192
1.40001
1.04237
1.39884
1.83659
1.40001
1.40001
1.40001
1.40001
1.03174
1.84269
1.80093
1.40001
1.84033
1.84089
1.83785
1.40001
1.60604
1.84135
1.40001
1.40001
1.70558
1.46321
1.84186
1.32499
1.84193
1.40001
1.84216
1.84247
1.84213
1.84298
1.40001
1.81918
1.32164
1.28632
1.40001
1.4
1.40001
1.40001
1.84741
1.40001
1.40001
1.40001
1.40001
1.40001
1.83696
1.40001
1.40001
1.39618
1.84217
1.78156
1.40001
1.76821
1.40005
1.40001
1.40001
1.84261
1.40001
1.39739
1.40425
1.40001
1.84226
1.40001
1.83983
1.40001
1.40001
1.72909
1.40001
1.83917
1.40003
1.40001
1.83798
1.40001
1.84206
1.40001
1.40001
1.40001
1.84129
1.40001
1.8466
1.40001
1.84109
1.83726
1.84224
1.84659
1.40001
1.83693
1.83888
1.40001
1.02785
1.81441
1.71698
1.40001
1.84178
1.40001
1.03355
1.07582
1.40001
1.40001
1.40001
1.40001
1.40001
1.00794
1.40001
1.84181
1.52093
1.84289
1.40001
1.40001
1.40001
1.40001
1.40001
1.84253
1.40001
1.84117
1.66061
1.19499
1.40001
1.40001
1.52907
1.514
1.40001
1.40001
1.56199
1.40001
1.02157
1.84149
1.84139
1.40001
1.40001
1.40001
1.8371
1.40001
1.40003
1.84537
1.84382
1.33541
1.40001
1.40001
1.015
1.80246
1.40001
1.40001
1.40001
1.40001
1.40001
1.8421
1.83638
1.40001
1.83818
1.84529
1.84224
1.40001
1.40001
1.40001
1.40001
1.0043
1.8403
1.40001
1.40001
1.80291
1.84035
1.40001
1.81608
1.83094
1.40001
1.40001
1.40001
1.40001
1.40001
1.84183
1.40001
1.40001
1.40001
1.40001
1.84832
1.40001
1.83129
1.03168
1.40001
1.03696
1.40001
1.40001
1.40001
1.39722
1.03191
1.39906
1.40001
1.40001
1.40001
1.45755
1.40001
1.40001
1.25108
1.40001
1.40001
1.40001
1.40001
1.40001
1.40001
1.40001
1.4
1.33534
1.4
1.40001
1.39759
1.40001
1.03275
1.40001
1.40001
1.40001
1.40001
1.7318
1.40001
1.40001
1.40001
1.40001
1.02014
1.40001
1.40001
1.81598
1.84002
1.4
1.40001
1.40001
1.27398
1.40001
1.40001
1.40001
1.40001
1.40001
1.40001
1.34887
1.41934
1.84153
1.40001
1.40001
1.40001
1.84279
1.29311
1.40001
1.40001
1.40001
1.84781
1.84012
1.40001
1.40001
1.40001
1.40001
1.40001
1.40001
1.40001
1.40001
1.40001
1.05113
1.40001
1.40001
1.83833
1.0411
1.40001
1.8374
1.40001
1.02528
1.40001
1.40001
1.04726
1.40001
1.40001
1.40001
1.40001
1.40001
1.40001
1.40001
1.83289
1.84048
1.40001
1.40001
1.40001
1.40001
1.80403
1.40001
1.53835
1.03286
1.40001
1.40001
1.40001
1.40001
1.40001
1.40001
1.40001
1.43429
1.40001
1.40001
1.63978
1.40001
1.40001
1.40001
1.76153
1.40001
1.40001
1.40001
1.40001
1.03945
1.40001
1.40001
1.04314
1.04207
1.40001
1.40001
1.84081
1.40001
1.3873
1.40001
1.40001
1.40001
1.70632
1.00811
1.40001
1.00403
1.40001
1.16491
1.40001
1.40001
1.40001
1.84221
1.40001
1.40001
1.84174
1.40001
1.40001
1.40001
1.84137
1.40001
1.40001
1.84138
1.40001
1.40001
1.03878
1.40001
1.53522
1.40001
1.40001
1.8375
1.83918
1.69656
1.7962
1.40001
1.04098
1.40001
1.40001
1.82208
1.40001
1.02739
1.40001
1.40001
1.40001
1.84211
1.40001
1.40001
1.40001
1.40001
1.66488
1.40001
1.80362
1.84251
1.02
1.40001
1.40001
1.03269
1.03521
1.40001
1.40001
1.40001
1.71356
1.73388
1.40001
1.40001
1.40001
1.40001
1.40001
1.40001
1.40001
1.59127
1.84708
1.40498
1.40001
1.83635
1.05188
1.40001
1.40001
1.40001
1.63942
1.40001
1.48485
1.40001
1.80363
1.84037
1.40001
1.04081
1.40001
1.83759
1.40001
1.40001
1.84026
1.8148
1.40001
1.8408
1.40001
1.02321
1.40001
1.40001
1.40001
1.84562
1.8331
1.78931
1.40001
1.84252
1.84149
1.40001
1.84286
1.40001
1.84045
1.40001
1.04344
1.36436
1.04762
1.40001
1.40001
1.40001
1.40001
1.40001
1.8419
1.40001
1.84192
1.40001
1.40001
1.40001
1.81977
1.40001
1.02377
1.84172
1.40001
1.03035
1.03762
1.01809
1.40001
1.62099
1.43004
1.84339
1.84127
1.40001
1.4
1.40001
1.40001
1.84193
1.40001
1.40001
1.84203
1.84149
1.40001
1.5529
1.39968
1.40001
1.39692
1.8283
1.25456
1.40001
1.22606
1.02961
1.01983
1.30784
1.84739
1.83626
1.49014
1.84169
1.8414
1.40001
1.40001
1.83609
1.83969
1.84165
1.83871
1.40001
1.84231
1.03408
1.83857
1.83988
1.83868
1.84633
1.24021
1.28738
1.33348
1.84126
1.36749
1.84289
1.40001
1.40001
1.84383
1.8414
1.40001
1.04404
1.8428
1.84121
1.40001
1.84105
1.84118
1.40001
1.84227
1.02779
1.84463
1.84573
1.83822
1.84625
1.40001
1.40001
1.40001
1.84135
1.68673
1.04194
1.84142
1.04646
1.84095
1.40001
1.40001
1.40001
1.40001
1.83934
1.84207
1.40001
1.40001
1.84205
1.0453
1.84188
1.02905
1.40001
1.83874
1.40001
1.01578
1.84347
1.10256
1.40001
1.84137
1.84465
1.84261
1.40001
1.40001
1.61851
1.84391
1.03938
1.84196
1.40001
1.84135
1.27583
1.84086
1.05089
1.40001
1.83936
1.07002
1.8439
1.03435
1.40001
1.84219
1.40001
1.83678
1.40001
1.65771
1.82517
1.74802
1.00137
1.40001
1.8417
1.40001
1.84169
1.40001
1.8421
1.40001
1.40001
1.84097
1.38081
1.84429
1.01693
1.79013
1.40001
1.71477
1.40001
1.84167
1.84189
1.84157
1.40001
1.79729
1.84185
1.8094
1.66976
1.836
1.40001
1.69534
1.40001
1.84066
1.40001
1.46467
1.40001
1.80958
1.40001
1.84132
1.82094
1.82036
1.40001
1.83648
1.06623
1.40001
1.03184
1.40001
1.40001
1.40001
1.83532
1.40001
1.84237
1.40001
1.40001
1.40001
1.84306
1.82897
1.76687
1.83943
1.84349
1.03493
1.84668
1.83612
1.40001
1.78277
1.84197
1.8383
1.40001
1.83764
1.8383
1.40001
1.84469
1.8419
1.84205
1.84325
1.40001
1.40001
1.40001
1.8417
1.0266
1.40001
1.84203
1.40001
1.40001
1.07561
1.40001
1.40001
1.84144
1.84175
1.40001
1.84177
1.84063
1.83931
1.36253
1.8418
1.40001
1.84122
1.84218
1.75853
1.40001
1.40001
1.40001
1.84174
1.84134
1.84164
1.34305
1.40001
1.85068
1.84155
1.84145
1.40001
1.84202
1.84102
1.84127
1.85052
1.40001
1.84169
1.83947
1.78628
1.83949
1.84861
1.40001
1.83961
1.83662
1.84175
1.83965
1.83987
1.04836
1.84019
1.84079
1.40001
1.84191
1.84109
1.84141
1.84106
1.40001
1.84261
1.84156
1.40001
1.84151
1.77105
1.40001
1.40001
1.40001
1.83994
1.84468
1.40001
1.40001
1.63785
1.40001
1.84152
1.40001
1.40001
1.84153
1.84331
1.84187
1.84116
1.40001
1.40001
1.40001
1.71391
1.40001
1.84127
1.40001
1.40001
1.82816
1.84571
1.40001
1.84219
1.05077
1.84229
1.84495
1.0854
1.40001
1.01366
1.78634
1.84655
1.8401
1.83975
1.02864
1.84127
1.8426
1.02621
1.04198
1.40001
1.84141
1.84262
1.40001
1.40001
1.84214
1.40001
1.84711
1.40001
1.78672
1.40001
1.60056
1.84165
1.84447
1.70888
1.81072
1.83402
1.84434
1.81113
1.40001
1.04874
1.83926
1.84253
1.84863
1.40002
1.40001
1.40001
1.84485
1.40001
1.84177
1.84077
1.14007
1.40001
1.84133
1.39995
1.40001
1.40004
1.40005
1.84272
1.84041
1.39844
1.40001
1.40001
1.84182
1.84384
1.84217
1.84733
1.83945
1.04161
1.79901
1.40001
1.83851
1.84174
1.842
1.8441
1.40001
1.84188
1.82994
1.84289
1.40001
1.84171
1.84117
1.23843
1.84168
1.84123
1.40001
1.84169
1.21019
1.84158
1.25619
1.84213
1.40001
1.84189
1.84106
1.84188
1.84211
1.84177
1.84198
1.84237
1.83858
1.40001
1.32982
1.84165
1.84217
1.22229
1.84183
1.38504
1.66725
1.8414
1.84019
1.83998
1.40001
1.84441
1.692
1.83953
1.29875
1.84376
1.84733
1.40001
1.26183
1.40001
1.84501
1.40001
1.70585
1.40001
1.80987
1.27362
1.40001
1.846
1.83347
1.40001
1.84144
1.84363
1.83689
1.83396
1.8423
1.40001
1.83807
1.40001
1.40001
1.40001
1.29729
1.84248
1.84238
1.84759
1.8422
1.84426
1.84833
1.83627
1.84244
1.29856
1.43084
1.40001
1.40001
1.84124
1.84221
1.84193
1.84163
1.40003
1.62997
1.40001
1.84517
1.79609
1.40001
1.40001
1.14296
1.84207
1.40001
1.40001
1.0311
1.84181
1.40001
1.84323
1.84116
1.83353
1.82525
1.84196
1.40001
1.01462
1.50841
1.8415
1.84198
1.40001
1.84191
1.84126
1.62161
1.40895
1.50357
1.40001
1.83844
1.84146
1.40001
1.40001
1.03235
1.40001
1.40001
1.84204
1.8422
1.84518
1.84214
1.84155
1.84011
1.84179
1.84258
1.84222
1.40001
1.39598
1.84125
1.8415
1.39711
1.84201
1.84149
1.02271
1.01351
1.84381
1.84936
1.40001
1.40001
1.40081
1.84137
1.84431
1.84187
1.40001
1.84187
1.40001
1.24535
1.84883
1.84911
1.40001
1.60935
1.84326
1.40001
1.83769
1.40001
1.8418
1.68266
1.84233
1.40001
1.84033
1.84936
1.03368
1.84225
1.40001
1.8408
1.84709
1.40001
1.0288
1.84181
1.77209
1.39773
1.8245
1.84133
1.40001
1.39705
1.8364
1.39825
1.84152
1.40001
1.40001
1.84042
1.40001
1.84036
1.84136
1.39662
1.74864
1.40001
1.84114
1.40001
1.40001
1.40001
1.40001
1.84158
1.40001
1.40001
1.8326
1.40001
1.8424
1.40001
1.68455
1.83841
1.84213
1.40001
1.40001
1.38869
1.40001
1.84258
1.84153
1.8405
1.84166
1.84045
1.84142
1.84164
1.40001
1.84134
1.84208
1.40001
1.84104
1.84141
1.40001
1.84298
1.33026
1.45752
1.84142
1.84135
1.84064
1.40001
1.84143
1.40001
1.8417
1.84139
1.40001
1.84227
1.40001
1.40001
1.40001
1.40001
1.84244
1.01641
1.39793
1.40001
1.84173
1.85067
1.40001
1.84178
1.40001
1.4056
1.03267
1.84168
1.39958
1.40001
1.84276
1.39844
1.84239
1.40001
1.39979
1.40001
1.84263
1.84379
1.84083
1.84188
1.04178
1.84015
1.83912
1.84121
1.50773
1.40001
1.40001
1.59167
1.84197
1.01286
1.036
1.40001
1.84022
1.84151
1.84012
1.40001
1.40001
1.84038
1.84098
1.39988
1.40001
1.7348
1.04987
1.40001
1.47942
1.83704
1.83628
1.39824
1.84192
1.85162
1.40001
1.39898
1.40001
1.84458
1.83037
1.58107
1.40001
1.80968
1.40001
1.40225
1.84381
1.01822
1.84114
1.84171
1.39703
1.39992
1.78742
1.40001
1.39969
1.40001
1.84323
1.40001
1.40002
1.03557
1.84172
1.40001
1.40001
1.40001
1.40001
1.84453
1.64887
1.40001
1.40001
1.02877
1.84196
1.64896
1.40001
1.40001
1.40001
1.82074
1.8221
1.84356
1.40001
1.40001
1.85006
1.40001
1.84166
1.84136
1.40001
1.40001
1.84351
1.84223
1.8234
1.40001
1.40001
1.84373
1.84166
1.40001
1.40001
1.40001
1.84226
1.40001
1.40001
1.40001
1.84276
1.84443
1.8444
1.40001
1.84457
1.40004
1.11473
1.84096
1.8405
1.40001
1.84102
1.8199
1.83814
1.40001
1.40001
1.84603
1.40001
1.63184
1.84021
1.40001
1.02942
1.40001
1.84362
1.40001
1.40001
1.83812
1.40001
1.40001
1.40001
1.54469
1.84041
1.08815
1.40002
1.84298
1.40001
1.40001
1.84196
1.40001
1.84699
1.40001
1.40001
1.84308
1.84182
1.40001
1.40006
1.40001
1.40001
1.40001
1.40001
1.40001
1.40001
1.84691
1.84115
1.40001
1.8426
1.0356
1.84841
1.40001
1.84112
1.85032
1.84259
1.84846
1.83914
1.40001
1.40001
1.83646
1.40001
1.66738
1.84676
1.84129
1.40001
1.84272
1.8426
1.40001
1.79232
1.40001
1.84149
1.68906
1.83827
1.39736
1.83245
1.7998
1.84229
1.84274
1.43735
1.84193
1.84424
1.40001
1.84209
1.40001
1.84225
1.40001
1.40001
1.40001
1.40001
1.39641
1.84189
1.8418
1.75662
1.40001
1.84443
1.40001
1.40001
1.40001
1.00494
1.40001
1.83138
1.40001
1.80259
1.83604
1.40001
1.40001
1.40001
1.80598
1.82875
1.40001
1.40001
1.8419
1.04467
1.46467
1.40001
1.84735
1.84219
1.8032
1.82971
1.84209
1.40001
1.83948
1.40001
1.40001
1.40001
1.40001
1.8405
1.84201
1.40001
1.83467
1.44771
1.84131
1.81213
1.40001
1.40001
1.81358
1.40001
1.40001
1.0288
1.71139
1.40001
1.40001
1.8464
1.40001
1.84478
1.80388
1.40001
1.80314
1.0432
1.842
1.84107
1.84215
1.40001
1.02193
1.40001
1.40001
1.40001
1.84188
1.77698
1.40001
1.83263
1.84246
1.40001
1.8418
1.40001
1.40001
1.40001
1.40001
1.84243
1.39936
1.40001
1.84353
1.40001
1.40001
1.84395
1.84172
1.40001
1.84247
1.48589
1.40002
1.40001
1.84342
1.40001
1.84357
1.40001
1.41305
1.84209
1.40001
1.84288
1.40001
1.40001
1.54333
1.84261
1.40001
1.40001
1.40001
1.40001
1.40001
1.39639
1.03562
1.02492
1.42078
1.40001
1.41946
1.40001
1.42558
1.40001
1.8421
1.40001
1.68294
1.40001
1.8429
1.40001
1.40001
1.40001
1.84233
1.40001
1.75267
1.84061
1.40001
1.63432
1.84162
1.40001
1.40001
1.8356
1.84069
1.40001
1.40001
1.44741
1.00153
1.40001
1.84255
1.40001
1.40001
1.40001
1.40001
1.47653
1.84168
1.40001
1.40001
1.40001
1.02745
1.40001
1.84294
1.84195
1.8493
1.40001
1.40001
1.40001
1.40001
1.62181
1.84936
1.40001
1.40001
1.40001
1.84119
1.84169
1.44702
1.40001
1.40001
1.40001
1.84321
1.8418
1.40001
1.03276
1.84193
1.84183
1.84272
1.84055
1.84434
1.40001
1.40001
1.8443
1.84653
1.84147
1.01987
1.44023
1.84309
1.40001
1.40001
1.40001
1.40001
1.40001
1.84204
1.03938
1.40001
1.40001
1.84152
1.59699
1.40001
1.84514
1.40001
1.40001
1.40001
1.03841
1.40001
1.40001
1.51732
1.84195
1.84114
1.40001
1.84571
1.84406
1.40001
1.46703
1.40001
1.84326
1.40001
1.83967
1.04587
1.40001
1.40001
1.40001
1.40001
1.84148
1.40007
1.40001
1.40001
1.40001
1.83092
1.40001
1.40001
1.40001
1.40001
1.84135
1.0398
1.74748
1.84392
1.40001
1.84162
1.40001
1.40001
1.40001
1.39708
1.40001
1.84492
1.40001
1.20255
1.40001
1.40001
1.40004
1.84143
1.03726
1.40001
1.84048
1.40001
1.83938
1.84151
1.02663
1.40001
1.40001
1.82915
1.40001
1.40001
1.02078
1.40001
1.83766
1.40001
1.82217
1.39942
1.8427
1.40001
1.40001
1.40001
1.40001
1.83921
1.40001
1.40001
1.8416
1.40001
1.40001
1.40001
1.40001
1.40001
1.40001
1.40001
1.40001
1.68885
1.40001
1.5428
1.84123
1.40001
1.40001
1.40001
1.03984
1.40001
1.40001
1.40001
1.40001
1.84106
1.84156
1.44707
1.40001
1.40001
1.84282
1.40001
1.40001
1.84167
1.40001
1.40002
1.40001
1.40001
1.40001
1.40002
1.84099
1.18721
1.8417
1.84357
1.39669
1.40001
1.40001
1.40001
1.66101
1.40001
1.40001
1.84358
1.84261
1.40001
1.40001
1.40001
1.40001
1.02626
1.40001
1.40001
1.40001
1.67886
1.40001
1.84236
1.84471
1.40001
1.84318
1.40001
1.40001
1.40001
1.63833
1.40001
1.83884
1.40001
1.8418
1.40001
1.40001
1.39616
1.84177
1.40001
1.40001
1.40001
1.40001
1.40001
1.84323
1.40003
1.40001
1.02261
1.84016
1.03352
1.40001
1.8398
1.40001
1.39566
1.40001
1.84297
1.84157
1.40001
1.84734
1.2499
1.84149
1.84635
1.40004
1.40001
1.40001
1.03002
1.40001
1.40001
1.40001
1.84213
1.65598
1.84143
1.40001
1.40001
1.40001
1.40001
1.39685
1.8437
1.40001
1.04667
1.40001
1.40001
1.40001
1.40001
1.40001
1.40001
1.40001
1.84674
1.83973
1.84448
1.40001
1.40001
1.39698
1.40001
1.37245
1.40001
1.40001
1.40001
1.03018
1.37011
1.40001
1.05579
1.03712
1.40001
1.84222
1.84191
1.40001
1.84033
1.84154
1.0403
1.69116
1.40001
1.40001
1.40001
1.0446
1.84291
1.40001
1.03844
1.40001
1.8497
1.46799
1.40001
1.40001
1.40001
1.40001
1.84162
1.84021
1.40001
1.40001
1.84165
1.40001
1.40001
1.84122
1.84195
1.40001
1.80352
1.84107
1.83779
1.35487
1.83954
1.40879
1.04299
1.73937
1.84175
1.40001
1.40001
1.40001
1.03907
1.40001
1.0348
1.83864
1.35744
1.84148
1.35271
1.40001
1.84287
1.60028
1.40001
1.40001
1.84141
1.40001
1.58374
1.84003
1.40001
1.40001
1.83456
1.83452
1.0359
1.65823
1.39989
1.40001
1.66608
1.40001
1.84786
1.35055
1.84464
1.84566
1.40001
1.40001
1.40001
1.40001
1.82796
1.40001
1.40001
1.84023
1.39963
1.84214
1.75196
1.84324
1.03799
1.40001
1.40001
1.40001
1.40001
1.842
1.40005
1.84297
1.40001
1.84138
1.84363
1.4553
1.83521
1.53744
1.84169
1.40001
1.70521
1.08334
1.84511
1.8423
1.74551
1.47389
1.83974
1.84155
1.8416
1.83997
1.40001
1.32085
1.46641
1.40001
1.84234
1.61407
1.84089
1.40004
1.40001
1.40001
1.05611
1.84322
1.83916
1.75782
1.40001
1.56797
1.40001
1.84672
1.84789
1.40001
1.8435
1.8394
1.40001
1.40001
1.40001
1.84406
1.40001
1.57803
1.84022
1.70775
1.40001
1.84079
1.40001
1.40001
1.40001
1.40001
1.40001
1.40001
1.40001
1.40001
1.40001
1.40001
1.05829
1.40001
1.82236
1.04759
1.65733
1.39854
1.84042
1.40001
1.63675
1.40002
1.68575
1.78067
1.40001
1.40194
1.84908
1.30994
1.40001
1.84514
1.82884
1.34156
1.40001
1.84213
1.84232
1.84353
1.40001
1.84136
1.84214
1.84165
1.40001
1.59331
1.40001
1.40006
1.84187
1.40001
1.84129
1.46629
1.84401
1.40001
1.40001
1.84454
1.84544
1.04337
1.40001
1.84207
1.72976
1.84074
1.40001
1.40001
1.83826
1.84157
1.39828
1.40001
1.78955
1.39704
1.84297
1.40007
1.40001
1.40001
1.40001
1.40001
1.59828
1.40001
1.73858
1.84018
1.72904
1.83967
1.40001
1.40249
1.40001
1.40001
1.83961
1.40001
1.84152
1.40001
1.40001
1.40001
1.40001
1.4
1.40001
1.45678
1.63293
1.40001
1.40001
1.04216
1.40001
1.83917
1.07585
1.84469
1.40001
1.62941
1.39975
1.84104
1.68353
1.0397
1.64358
1.40004
1.84176
1.84021
1.40001
1.66865
1.83882
1.84163
1.3984
1.84842
1.82911
1.03862
1.40001
1.40001
1.39827
1.40001
1.83833
1.40001
1.04389
1.83908
1.40001
1.40001
1.78958
1.40001
1.84112
1.40001
1.84304
1.40001
1.08618
1.40001
1.40001
1.84409
1.84468
1.84468
1.40001
1.84086
1.84216
1.84817
1.40001
1.40001
1.83133
1.4
1.13938
1.40001
1.40001
1.40001
1.84202
1.40001
1.842
1.68684
1.84253
1.40001
1.8416
1.39939
1.40001
1.40001
1.40001
1.40001
1.40001
1.40001
1.11648
1.40001
1.40001
1.84173
1.40001
1.84735
1.84235
1.40001
1.02021
1.04241
1.40001
1.84327
1.47475
1.04355
1.00277
1.40001
1.84118
1.40001
1.83989
1.03675
1.40147
1.40001
1.40001
1.39953
1.40001
1.40001
1.40001
1.39992
1.58143
1.84279
1.40001
1.40001
1.84274
1.66076
1.40001
1.79579
1.84
1.83743
1.58366
1.83754
1.40001
1.84194
1.40001
1.84372
1.40001
1.8371
1.84382
1.39682
1.84108
1.84574
1.40001
1.40001
1.40001
1.40001
1.40001
1.29904
1.83879
1.40005
1.40003
1.02763
1.39999
1.02728
1.00207
1.40001
1.84361
1.84052
1.84137
1.40001
1.84172
1.40001
1.0423
1.40001
1.40001
1.84017
1.23583
1.84018
1.40001
1.84322
1.40001
1.39291
1.84202
1.40001
1.40001
1.40001
1.84242
1.40001
1.84143
1.03596
1.40001
1.40001
1.65719
1.40001
1.40001
1.64161
1.40001
1.40001
1.84166
1.40001
1.40001
1.40001
1.40001
1.40001
1.84714
1.84036
1.40001
1.84054
1.84212
1.02859
1.60025
1.8408
1.40001
1.40001
1.79766
1.39902
1.40001
1.40001
1.84153
1.84335
1.68337
1.40001
1.84327
1.02997
1.80349
1.39957
1.40001
1.83963
1.40004
1.84158
1.75777
1.73637
1.40001
1.40001
1.84176
1.10778
1.03146
1.40001
1.84247
1.40001
1.84321
1.40001
1.6642
1.40001
1.40001
1.84064
1.68541
1.04164
1.40001
1.39861
1.40001
1.40001
1.4258
1.58039
1.8418
1.40001
1.8465
1.40001
1.40001
1.40001
1.40001
1.40001
1.40001
1.4663
1.04952
1.40001
1.40001
1.43294
1.40001
1.40001
1.40001
1.40001
1.40001
1.84216
1.40001
1.40001
1.84193
1.84244
1.72074
1.40001
1.40001
1.40001
1.23738
1.84448
1.70962
1.40001
1.40001
1.40001
1.40001
1.84187
1.40001
1.40001
1.40001
1.84805
1.40001
1.40001
1.7188
1.85856
1.43827
1.16134
1.84033
1.71567
1.84094
1.40001
1.62302
1.40001
1.40001
1.40001
1.02742
1.4025
1.0168
1.40001
1.03877
1.01528
1.40001
1.02932
1.40001
1.40001
1.40001
1.594
1.40001
1.84034
1.84168
1.4008
1.6072
1.76988
1.03082
1.18758
1.28224
1.40001
1.84163
1.84036
1.84153
1.84174
1.77856
1.26951
1.40001
1.78249
1.40001
1.82924
1.40001
1.40001
1.39661
1.40942
1.40001
1.40001
1.40001
1.83959
1.40001
1.04245
1.40001
1.84279
1.02806
1.40001
1.40001
1.84191
1.40001
1.84157
1.40019
1.40001
1.40001
1.84253
1.78623
1.40001
1.84962
1.40001
1.40001
1.41478
1.40001
1.5956
1.40001
1.40001
1.02767
1.40001
1.40001
1.83983
1.4
1.84125
1.40001
1.40004
1.03221
1.40001
1.40001
1.033
1.40083
1.40001
1.84009
1.02593
1.84624
1.04488
1.84206
1.40001
1.40001
1.40001
1.40001
1.40001
1.40001
1.40001
1.40001
1.40001
1.40001
1.40001
1.82368
1.40001
1.84358
1.83905
1.04486
1.40001
1.40001
1.40001
1.40001
1.40001
1.40001
1.82929
1.40001
1.40001
1.04386
1.40001
1.40001
1.83998
1.40001
1.40001
1.572
1.77213
1.03886
1.03726
1.10032
1.14887
1.40001
1.39665
1.02657
1.40027
1.80797
1.39691
1.40001
1.40001
1.84329
1.40001
1.40001
1.40001
1.18139
1.40002
1.56232
1.40001
1.40001
1.57879
1.8422
1.40001
1.03981
1.40001
1.40001
1.40001
1.39648
1.40001
1.84283
1.8409
1.40001
1.0298
1.40001
1.63961
1.02538
1.40001
1.28171
1.40001
1.39601
1.02099
1.40001
1.40001
1.40001
1.39571
1.02694
1.40001
1.04188
1.39842
1.6282
1.80089
1.03774
1.03864
1.40001
1.39099
1.40001
1.39866
1.40001
1.84198
1.84105
1.40001
1.41309
1.84289
1.84199
1.40001
1.40001
1.84092
1.40001
1.40001
1.40005
1.40001
1.83711
1.40001
1.40001
1.418
1.40001
1.39854
1.10022
1.40001
1.40001
1.40001
1.40001
1.40001
1.83937
1.43433
1.40005
1.40001
1.40001
1.40001
1.40001
1.40001
1.40004
1.40001
1.03768
1.49892
1.39858
1.84629
1.83383
1.40001
1.41556
1.84269
1.78245
1.40001
1.40001
1.00834
1.84016
1.40001
1.83958
1.40001
1.84208
1.701
1.02774
1.40001
1.02538
1.81811
1.39967
1.40001
1.05066
1.00563
1.40001
1.40001
1.77226
1.40001
1.4
1.02469
1.40001
1.40001
1.40001
1.54595
1.40001
1.04166
1.8412
1.40001
1.40001
1.40001
1.40001
1.84179
1.40001
1.40001
1.84581
1.79644
1.40001
1.40001
1.40001
1.84577
1.03319
1.40001
1.84117
1.84198
1.40001
1.7542
1.4
1.40004
1.40001
1.40001
1.81233
1.42072
1.40001
1.03549
1.6305
1.40001
1.40001
1.39751
1.40001
1.40001
1.84635
1.40001
1.40001
1.40004
1.40001
1.8404
1.40001
1.40001
1.40001
1.40001
1.40001
1.40001
1.40001
1.59471
1.40001
1.84306
1.40001
1.40001
1.84353
1.40001
1.40001
1.40001
1.84181
1.84136
1.44581
1.40001
1.39766
1.40001
1.40001
1.40001
1.40001
1.84043
1.40001
1.40001
1.8424
1.03958
1.40001
1.40001
1.40001
1.40001
1.40001
1.40001
1.75792
1.40001
1.40001
1.84568
1.84191
1.40001
1.40001
1.40001
1.84075
1.84134
1.40001
1.39973
1.84598
1.40001
1.40001
1.40001
1.40002
1.04005
1.42964
1.39635
1.39569
1.40001
1.40001
1.05421
1.84238
1.40001
1.02696
1.40001
1.84427
1.82348
1.03912
1.39939
1.84239
1.84097
1.84047
1.40001
1.40001
1.33252
1.79847
1.76309
1.01108
1.40001
1.40001
1.40001
1.84294
1.84115
1.02853
1.39719
1.40001
1.84242
1.0481
1.40001
1.83005
1.0308
1.37267
1.40673
1.40001
1.84266
1.40001
1.40001
1.40001
1.40001
1.40001
1.40001
1.40011
1.81116
1.40001
1.40001
1.84138
1.40001
1.40001
1.40001
1.84099
1.40001
1.03807
1.40001
1.40001
1.40001
1.55488
1.40001
1.40001
1.40001
1.40001
1.40001
1.19427
1.40001
1.04498
1.40001
1.84056
1.40006
1.26771
1.26491
1.40002
1.40473
1.6276
1.40001
1.40001
1.02613
1.84033
1.84045
1.84117
1.40001
1.04113
1.02646
1.40001
1.84232
1.40001
1.40001
1.40001
1.40001
1.40001
1.40004
1.40001
1.0331
1.68103
1.40001
1.40001
1.04049
1.3664
1.40001
1.40001
1.40001
1.40001
1.01754
1.40001
1.07525
1.40001
1.40001
1.84066
1.40001
1.40001
1.03903
1.40001
1.84239
1.40001
1.03393
1.40001
1.02678
1.40001
1.40804
1.8415
1.84669
1.40001
1.40001
1.83935
1.40001
1.40001
1.49524
1.39703
1.40001
1.39827
1.40001
1.84509
1.40001
1.02962
1.40002
1.83808
1.39873
1.40001
1.40001
1.18083
1.40001
1.39911
1.04495
1.84044
1.56256
1.40001
1.40001
1.30386
1.40001
1.40001
1.40001
1.19891
1.40001
1.40001
1.40001
1.84177
1.40001
1.03007
1.4
1.40001
1.40001
1.40001
1.02161
1.84234
1.82211
1.04907
1.40001
1.84267
1.40001
1.40001
1.84156
1.83953
1.7734
1.01658
1.3978
1.39927
1.40001
1.8415
1.40001
1.40001
1.40001
1.40001
1.84205
1.40005
1.40001
1.40001
1.83556
1.40001
1.40001
1.84138
1.02827
1.40001
1.40001
1.40001
1.03115
1.40001
1.4
1.4
1.39861
1.40001
1.40001
1.40001
1.40001
1.74069
1.40001
1.84065
1.84125
1.84912
1.8408
1.84061
1.84229
1.40001
1.84331
1.40001
1.84219
1.84177
1.40001
1.39886
1.02492
1.78017
1.3999
1.40001
1.40001
1.40001
1.40001
1.39565
1.40001
1.47244
1.40001
1.40001
1.40001
1.23162
1.84126
1.84268
1.84472
1.78443
1.39988
1.40001
1.42165
1.84161
1.39795
1.44691
1.39726
1.03171
1.40001
1.40003
1.40001
1.40001
1.40001
1.40001
1.40001
1.84343
1.03855
1.84354
1.84144
1.39524
1.06312
1.40001
1.40001
1.40001
1.84112
1.0659
1.7906
1.01858
1.84219
1.84562
1.02258
1.84071
1.42346
1.40001
1.84403
1.19547
1.40001
1.39877
1.03437
1.40001
1.03157
1.40001
1.84223
1.8416
1.14744
1.40001
1.8399
1.03238
1.40001
1.0462
1.40001
1.84138
1.40001
1.40001
1.82961
1.40001
1.22833
1.40001
1.39967
1.03169
1.83877
1.39948
1.40001
1.05888
1.40001
1.40001
1.40001
1.40001
1.63766
1.40001
1.8407
1.40001
1.40001
1.84805
1.40001
1.40001
1.84137
1.40001
1.03108
1.40001
1.03607
1.40002
1.40001
1.40001
1.40001
1.40001
1.82268
1.65864
1.84219
1.40001
1.84183
1.81031
1.01546
1.04025
1.40001
1.40001
1.84132
1.40001
1.03108
1.40001
1.37366
1.40001
1.40001
1.84227
1.40001
1.84256
1.04309
1.84907
1.40001
1.03861
1.40001
1.40001
1.84689
1.83979
1.40001
1.40005
1.40001
1.84609
1.40001
1.40001
1.01356
1.39944
1.04334
1.40001
1.40001
1.40001
1.84365
1.84156
1.8413
1.40001
1.40001
1.02195
1.40001
1.8453
1.40001
1.40001
1.40001
1.83543
1.84161
1.84078
1.07114
1.84538
1.84175
1.04237
1.84072
1.40005
1.05972
1.39631
1.40001
1.40001
1.843
1.07944
1.6844
1.06996
1.84192
1.39724
1.04108
1.84335
1.40001
1.40001
1.40001
1.40001
1.84215
1.83873
1.0329
1.40001
1.40003
1.03908
1.40004
1.40001
1.06155
1.03575
1.71078
1.84165
1.39842
1.84177
1.40001
1.84988
1.22461
1.04028
1.84175
1.84993
1.40001
1.84387
1.40001
1.40001
1.84239
1.40001
1.73715
1.84121
1.40001
1.40001
1.40001
1.40001
1.84136
1.83652
1.84278
1.40001
1.40001
1.84434
1.83693
1.84209
1.40001
1.84093
1.40001
1.40001
1.40001
1.40001
1.40001
1.02941
1.22791
1.03853
1.40001
1.40001
1.84058
1.40001
1.40001
1.84426
1.03696
1.40001
1.84187
1.83697
1.82253
1.01591
1.40001
1.0493
1.40001
1.40003
1.84029
1.60732
1.8389
1.80385
1.40001
1.01066
1.40001
1.84206
1.71661
1.03305
1.40001
1.40001
1.40001
1.1853
1.40001
1.40001
1.84551
1.40001
1.03026
1.84187
1.40001
1.40001
1.40001
1.40001
1.40001
1.7563
1.49935
1.40001
1.84154
1.40001
1.84298
1.40001
1.3975
1.40001
1.84168
1.84809
1.84112
1.84566
1.3996
1.8395
1.40001
1.84149
1.84336
1.77315
1.40001
1.40001
1.03742
1.84012
1.40001
1.40001
1.84599
1.84402
1.84261
1.40001
1.84214
1.40001
1.40001
1.40003
1.84711
1.8397
1.52296
1.49734
1.84286
1.84146
1.07555
1.40001
1.40001
1.40001
1.40001
1.40001
1.56025
1.40001
1.40001
1.76575
1.03872
1.39998
1.40001
1.84268
1.39989
1.39983
1.46757
1.81718
1.83856
1.30141
1.40001
1.04199
1.40001
1.39115
1.84147
1.84488
1.84039
1.39909
1.40001
1.40001
1.01993
1.40001
1.40001
1.84158
1.44722
1.40001
1.40001
1.40001
1.40001
1.40001
1.40001
1.40001
1.39995
1.84006
1.40002
1.40001
1.40001
1.40001
1.40001
1.68519
1.40001
1.61543
1.40001
1.40001
1.84192
1.84503
1.03917
1.3988
1.40001
1.4
1.40001
1.04061
1.841
1.84175
1.40001
1.40001
1.40001
1.40001
1.40001
1.40001
1.40001
1.40001
1.84173
1.83789
1.03192
1.45003
1.03007
1.40001
1.03444
1.40001
1.84156
1.52863
1.40001
1.40001
1.12812
1.40001
1.82324
1.18591
1.39676
1.04106
1.40001
1.40001
1.83807
1.40005
1.39715
1.00829
1.8407
1.84303
1.40001
1.40001
1.40001
1.40001
1.81279
1.40001
1.40001
1.84186
1.39898
1.84135
1.4001
1.40001
1.40001
1.03318
1.40001
1.40001
1.84139
1.03636
1.15163
1.02776
1.8416
1.39933
1.40001
1.84359
1.04068
1.03689
1.41447
1.40001
1.40001
1.84069
1.40004
1.59537
1.40001
1.40001
1.84023
1.0271
1.40001
1.40001
1.40014
1.84037
1.40015
1.82775
1.40001
1.40004
1.40001
1.40001
1.136
1.40001
1.16803
1.40003
1.40001
1.84353
1.03534
1.40001
1.14918
1.18433
1.40001
1.40001
1.84163
1.40001
1.40001
1.40001
1.84419
1.84223
1.40006
1.82865
1.83979
1.16142
1.84155
1.82107
1.40001
1.40001
1.84115
1.4
1.40001
1.40001
1.40001
1.40001
1.8497
1.84166
1.40001
1.40001
1.40001
1.84153
1.40021
1.40001
1.04685