/*--------------------------------*- C++ -*----------------------------------*\
  =========                 |
  \\      /  F ield         | OpenFOAM: The Open Source CFD Toolbox
   \\    /   O peration     | Website:  https://openfoam.org
    \\  /    A nd           | Version:  12
     \\/     M anipulation  |
\*---------------------------------------------------------------------------*/
FoamFile
{
    format      ascii;
    class       volScalarField;
    location    "30";
    object      T;
}
// * * * * * * * * * * * * * * * * * * * * * * * * * * * * * * * * * * * * * //

dimensions      [0 0 0 1 0 0 0];

internalField   nonuniform List<scalar> 
9801
(
0.739106
0.739481
0.750387
0.791004
0.818825
0.828173
0.833569
0.83577
0.829475
0.801688
0.76859
0.75261
0.74903
0.749012
0.750084
0.75421
0.778934
0.83526
0.864696
0.871787
0.873788
0.86605
0.832608
0.786961
0.757972
0.747161
0.745224
0.745743
0.749252
0.763667
0.805162
0.854137
0.873759
0.877369
0.875561
0.85693
0.821492
0.796431
0.788263
0.787442
0.789049
0.795502
0.81294
0.837017
0.850463
0.854404
0.854954
0.848181
0.827162
0.809336
0.804302
0.804934
0.811724
0.832601
0.862422
0.881555
0.889884
0.892584
0.888672
0.874184
0.854105
0.838911
0.830696
0.828022
0.828908
0.835453
0.845822
0.856612
0.868758
0.882077
0.89208
0.896378
0.8964
0.892418
0.886378
0.8792
0.871741
0.868392
0.869114
0.872346
0.878421
0.887306
0.898025
0.91193
0.92559
0.932637
0.9339
0.933332
0.933366
0.934541
0.927557
0.914835
0.906898
0.908654
0.91986
0.956678
0.991856
1.13567
1.47606
0.748131
0.751752
0.775234
0.807509
0.823657
0.83089
0.833795
0.830518
0.814019
0.790057
0.771129
0.761062
0.757432
0.757744
0.763645
0.780039
0.804606
0.835364
0.858477
0.863904
0.859365
0.844879
0.824199
0.797138
0.772639
0.761554
0.760635
0.765181
0.779552
0.798255
0.816802
0.842878
0.861108
0.86338
0.857155
0.845972
0.829472
0.810089
0.801689
0.801801
0.804991
0.810504
0.819206
0.834634
0.847232
0.850744
0.849851
0.845479
0.83818
0.826935
0.82282
0.826341
0.836485
0.846791
0.857452
0.872429
0.88026
0.880847
0.877344
0.8736
0.868482
0.857922
0.848152
0.844929
0.845801
0.849111
0.853235
0.8595
0.868776
0.880682
0.892343
0.900529
0.904145
0.904158
0.902177
0.896099
0.887078
0.880999
0.879939
0.881756
0.886076
0.891782
0.89902
0.909625
0.923815
0.934286
0.938071
0.939249
0.940843
0.943681
0.938247
0.927671
0.920166
0.920068
0.928046
0.951844
0.986092
1.13146
1.4998
0.767512
0.784227
0.80535
0.820871
0.829149
0.831281
0.827299
0.81582
0.802458
0.789984
0.77966
0.774256
0.774085
0.780725
0.797367
0.81148
0.822562
0.834148
0.843119
0.846885
0.84423
0.838319
0.831089
0.816861
0.798044
0.78814
0.788137
0.798494
0.814587
0.823667
0.828517
0.831572
0.840932
0.851675
0.855329
0.855116
0.849225
0.835704
0.824527
0.821818
0.823786
0.828103
0.831569
0.83547
0.843826
0.852081
0.855153
0.855191
0.855088
0.854494
0.853724
0.85607
0.860286
0.864362
0.867215
0.869492
0.872328
0.876262
0.881754
0.885297
0.885128
0.882512
0.876494
0.871147
0.869138
0.869079
0.870182
0.873589
0.880256
0.889537
0.904339
0.918651
0.924518
0.924382
0.920759
0.91444
0.907324
0.90148
0.899864
0.901226
0.90366
0.907967
0.913889
0.921686
0.937337
0.953005
0.959605
0.9611
0.962709
0.967201
0.965458
0.960806
0.957462
0.95755
0.960684
0.980027
0.999071
1.15768
1.53984
0.800535
0.821103
0.829791
0.833655
0.833578
0.828542
0.819836
0.811541
0.803861
0.796462
0.793553
0.795389
0.804287
0.818432
0.828527
0.835044
0.83651
0.831793
0.827997
0.831714
0.839977
0.843456
0.843114
0.839459
0.832326
0.829731
0.833651
0.841218
0.846907
0.84813
0.838144
0.828402
0.827305
0.839092
0.858446
0.866087
0.866592
0.865401
0.858954
0.85215
0.850264
0.85057
0.850208
0.847251
0.846118
0.851017
0.860823
0.868387
0.874613
0.882816
0.891072
0.895223
0.894642
0.891663
0.887411
0.879082
0.872402
0.872318
0.878628
0.890624
0.898891
0.901836
0.904212
0.906755
0.908111
0.90507
0.901068
0.900936
0.90417
0.910025
0.915991
0.927304
0.938871
0.942488
0.941983
0.940316
0.939898
0.940151
0.938267
0.936695
0.936388
0.936427
0.937754
0.941772
0.949085
0.965074
0.979882
0.987912
0.993672
1.00188
1.00587
1.00424
1.00201
0.998015
0.996355
1.00716
1.01644
1.18658
1.58636
0.829713
0.839661
0.842634
0.840692
0.832693
0.824838
0.820511
0.817345
0.814734
0.814261
0.818717
0.829504
0.840514
0.846528
0.849702
0.847722
0.837055
0.826042
0.822064
0.82373
0.83638
0.850271
0.856921
0.862402
0.872703
0.879411
0.878406
0.875709
0.870442
0.855698
0.842039
0.835766
0.833984
0.836637
0.853532
0.875693
0.886841
0.8927
0.894708
0.889851
0.880765
0.873707
0.866224
0.86008
0.85778
0.858371
0.864372
0.877111
0.894501
0.911058
0.921211
0.927038
0.928938
0.92695
0.914729
0.895241
0.883938
0.880538
0.881199
0.888148
0.904935
0.922034
0.932005
0.939124
0.945263
0.946286
0.940982
0.936075
0.933674
0.930874
0.929619
0.932231
0.943727
0.957659
0.96567
0.971568
0.978252
0.983991
0.984981
0.981061
0.97291
0.963361
0.957446
0.957232
0.961171
0.972168
0.994845
1.0134
1.0257
1.03683
1.04516
1.04342
1.03819
1.03064
1.02157
1.02192
1.02549
1.20761
1.62528
0.846925
0.850722
0.845735
0.83461
0.829466
0.82875
0.829635
0.831416
0.837272
0.848542
0.856832
0.860393
0.862465
0.863187
0.85929
0.848058
0.8364
0.830048
0.828244
0.828926
0.834773
0.851807
0.875487
0.900111
0.913323
0.917239
0.914022
0.899474
0.876237
0.856539
0.848115
0.845781
0.845647
0.846348
0.854575
0.883237
0.907724
0.91645
0.920227
0.920657
0.911913
0.894804
0.879633
0.872917
0.871691
0.872217
0.873932
0.882873
0.908757
0.934324
0.944942
0.951099
0.953426
0.949937
0.932048
0.911345
0.900729
0.897099
0.896282
0.896562
0.905926
0.935727
0.960236
0.970031
0.97723
0.979931
0.977141
0.966528
0.951599
0.942458
0.940418
0.941686
0.946576
0.961524
0.98133
0.998345
1.01066
1.01709
1.02044
1.01412
0.997876
0.979404
0.970578
0.96988
0.97222
0.978998
0.99867
1.02294
1.0397
1.05114
1.0592
1.05908
1.05462
1.04797
1.03595
1.02736
1.02156
1.21956
1.65206
0.857024
0.848043
0.835012
0.829807
0.829748
0.833091
0.840414
0.855289
0.876449
0.887055
0.890043
0.888264
0.880422
0.869006
0.854104
0.842666
0.836788
0.834727
0.834884
0.836029
0.83901
0.852565
0.895644
0.925566
0.934484
0.937902
0.935001
0.915267
0.880846
0.86106
0.855339
0.854714
0.855319
0.857633
0.865039
0.892092
0.921687
0.932251
0.936922
0.938465
0.930498
0.907814
0.889418
0.884172
0.884157
0.885408
0.888074
0.89818
0.927039
0.951155
0.961654
0.967842
0.969599
0.960264
0.939076
0.924006
0.917903
0.916209
0.916136
0.917665
0.927429
0.954858
0.979813
0.991373
0.998009
1.00044
0.993927
0.976146
0.957764
0.950368
0.950307
0.952869
0.95664
0.966952
0.993685
1.01604
1.025
1.02967
1.03149
1.02507
1.0056
0.988611
0.981332
0.980389
0.982461
0.993362
1.01397
1.03112
1.04313
1.05192
1.05735
1.05808
1.0569
1.05353
1.04486
1.03475
1.02346
1.22773
1.6687
0.852341
0.834279
0.830548
0.830953
0.83312
0.83748
0.852542
0.887415
0.905697
0.911287
0.913644
0.911361
0.897475
0.870315
0.849022
0.839595
0.83697
0.837199
0.838251
0.840083
0.846104
0.873499
0.912654
0.934156
0.942972
0.945573
0.934611
0.907362
0.884147
0.871093
0.865981
0.865642
0.866601
0.870768
0.887141
0.91296
0.931365
0.94093
0.945033
0.944195
0.931739
0.910864
0.898464
0.895416
0.896131
0.898549
0.90405
0.923736
0.949374
0.963342
0.970923
0.974718
0.972016
0.955765
0.93973
0.93345
0.932568
0.933138
0.935147
0.944807
0.964462
0.980019
0.990256
0.996989
1.00135
1.00046
0.991256
0.97742
0.966348
0.96075
0.959396
0.960864
0.968046
0.987649
1.0085
1.02123
1.02761
1.03054
1.02698
1.01693
1.00559
0.995861
0.991363
0.993098
1.00369
1.02038
1.03127
1.03797
1.04424
1.04932
1.05067
1.05022
1.05028
1.0498
1.04835
1.04649
1.03934
1.23066
1.67863
0.84182
0.828055
0.827985
0.829914
0.833101
0.844135
0.878521
0.906262
0.916685
0.921152
0.92197
0.910362
0.88646
0.867323
0.854644
0.846411
0.84355
0.84401
0.845742
0.852934
0.877664
0.903478
0.92046
0.933919
0.939606
0.93544
0.923528
0.911437
0.898364
0.887726
0.882835
0.882737
0.88629
0.898266
0.914268
0.926849
0.937026
0.942966
0.944526
0.939988
0.929819
0.917952
0.910708
0.908718
0.909792
0.913997
0.927836
0.949736
0.964182
0.970554
0.973437
0.971655
0.960726
0.948474
0.941824
0.940189
0.941159
0.945631
0.95922
0.974603
0.986432
0.994339
0.996688
0.997944
0.994663
0.986271
0.979958
0.975703
0.970968
0.967075
0.967308
0.974452
0.989661
1.00108
1.00978
1.01783
1.02175
1.02062
1.01454
1.00922
1.0072
1.00704
1.01123
1.02138
1.03165
1.03804
1.04085
1.04327
1.04594
1.04692
1.0452
1.04456
1.04598
1.04932
1.05337
1.05666
1.05745
1.23768
1.68708
0.842063
0.834395
0.833875
0.834958
0.842231
0.872711
0.901131
0.913523
0.919835
0.921263
0.911625
0.893916
0.882559
0.876985
0.872
0.86492
0.860239
0.860019
0.866036
0.889144
0.911202
0.920255
0.924906
0.927005
0.923763
0.918779
0.918723
0.919541
0.918492
0.912227
0.907166
0.908391
0.915737
0.924938
0.930975
0.935278
0.937757
0.938223
0.936572
0.934343
0.932871
0.930475
0.927103
0.926855
0.931108
0.939741
0.951397
0.962998
0.969196
0.970529
0.967197
0.958901
0.951243
0.946013
0.943386
0.944835
0.952954
0.968909
0.97885
0.983437
0.990504
0.994851
0.994962
0.991158
0.983575
0.977602
0.975045
0.974077
0.973654
0.975634
0.983922
0.996289
1.0024
1.00374
1.00344
1.00201
1.00397
1.00844
1.01136
1.01334
1.01617
1.02694
1.03928
1.04531
1.04628
1.04469
1.04417
1.04487
1.04561
1.04448
1.0434
1.0446
1.04761
1.05359
1.06237
1.06739
1.07143
1.25102
1.69515
0.845284
0.84535
0.845446
0.849638
0.875883
0.902523
0.913029
0.917559
0.91835
0.908366
0.891116
0.88357
0.88341
0.88438
0.884402
0.884287
0.882886
0.886189
0.902322
0.917852
0.925273
0.928148
0.926396
0.912669
0.901539
0.90141
0.908352
0.920342
0.926969
0.930023
0.93628
0.940758
0.941638
0.941417
0.941461
0.938448
0.931572
0.925797
0.924699
0.928101
0.933955
0.939612
0.944435
0.951307
0.956284
0.959257
0.962992
0.965836
0.965546
0.961374
0.954846
0.95164
0.9508
0.950031
0.951592
0.960098
0.973807
0.980217
0.980726
0.980873
0.980514
0.982098
0.984106
0.983381
0.979732
0.978395
0.978288
0.979248
0.984098
0.996052
1.00506
1.00808
1.008
1.00199
0.990621
0.985074
0.987451
0.998359
1.01159
1.02291
1.03897
1.05249
1.05873
1.0606
1.05545
1.04772
1.04472
1.04402
1.04212
1.04077
1.04264
1.04718
1.05364
1.06453
1.07493
1.07858
1.08318
1.26182
1.70359
0.853383
0.854767
0.858688
0.882152
0.907956
0.917593
0.920644
0.920579
0.909158
0.886686
0.873771
0.871477
0.874193
0.881119
0.887958
0.894372
0.907161
0.92533
0.935183
0.9371
0.935208
0.930181
0.917768
0.899861
0.890653
0.889778
0.892441
0.901337
0.922595
0.945594
0.956299
0.959767
0.959827
0.955693
0.947704
0.935565
0.923981
0.918756
0.918653
0.921086
0.926735
0.941746
0.960783
0.967407
0.968527
0.967475
0.966514
0.962604
0.956744
0.950932
0.948834
0.950155
0.954149
0.960551
0.971607
0.980505
0.984051
0.981932
0.975406
0.967942
0.964343
0.965744
0.973846
0.982073
0.985391
0.985593
0.98707
0.995595
1.00991
1.01766
1.01962
1.01694
1.00788
0.992801
0.981193
0.977958
0.981139
0.989513
1.00931
1.03806
1.06159
1.07148
1.07436
1.07286
1.06449
1.05426
1.04698
1.04209
1.03809
1.03692
1.042
1.04941
1.06184
1.07446
1.08488
1.08824
1.09063
1.26876
1.7099
0.862728
0.869249
0.887586
0.909353
0.922793
0.92693
0.926511
0.916551
0.895326
0.878601
0.869704
0.866268
0.866688
0.86953
0.879408
0.901602
0.926474
0.9402
0.94679
0.94945
0.948345
0.935321
0.912785
0.899239
0.89301
0.892305
0.895664
0.906859
0.923941
0.943339
0.956995
0.961766
0.962106
0.957496
0.945851
0.934133
0.926199
0.922054
0.922041
0.926538
0.940899
0.957352
0.965494
0.968594
0.969012
0.965251
0.957721
0.951514
0.94902
0.94923
0.950171
0.954622
0.967301
0.984055
0.992673
0.99463
0.988888
0.976056
0.962829
0.955135
0.953122
0.954897
0.962519
0.978001
0.989543
0.996374
1.00876
1.02355
1.02955
1.03069
1.02942
1.02013
1.00222
0.985652
0.976886
0.975554
0.978997
0.98514
1.00404
1.04374
1.06908
1.07661
1.07834
1.07772
1.07073
1.06032
1.0508
1.04266
1.03729
1.03591
1.03885
1.04616
1.05995
1.07617
1.08819
1.09189
1.09332
1.27326
1.71508
0.869459
0.893008
0.906791
0.916073
0.922418
0.923254
0.916181
0.90266
0.891911
0.881915
0.872983
0.870982
0.873304
0.880845
0.893824
0.908803
0.924739
0.939275
0.945797
0.945659
0.936928
0.925731
0.916969
0.908507
0.904999
0.907691
0.915583
0.923484
0.92702
0.930391
0.939641
0.947321
0.948846
0.947072
0.944508
0.939633
0.935208
0.935215
0.941491
0.952734
0.961198
0.964633
0.964333
0.960561
0.953256
0.945974
0.941691
0.941033
0.943784
0.950189
0.960393
0.978176
0.994653
1.00119
1.00287
0.999032
0.983295
0.965902
0.955418
0.951574
0.951224
0.953465
0.95756
0.967676
0.987878
1.01313
1.03648
1.04465
1.04554
1.04159
1.03289
1.01926
1.0003
0.984785
0.978674
0.978455
0.981983
0.988065
1.00542
1.04231
1.06794
1.07512
1.07465
1.07013
1.06594
1.05946
1.05295
1.04772
1.04291
1.04048
1.04149
1.04393
1.04919
1.06605
1.08124
1.08683
1.08958
1.27635
1.71983
0.888792
0.901431
0.906903
0.912064
0.912641
0.907485
0.902635
0.901603
0.900472
0.894218
0.888198
0.886916
0.890152
0.897082
0.905292
0.910584
0.916006
0.922738
0.92713
0.926458
0.924938
0.925671
0.927945
0.931128
0.934416
0.934741
0.93341
0.932024
0.928792
0.923366
0.919664
0.922359
0.931935
0.940765
0.94513
0.947992
0.953994
0.964651
0.971726
0.9735
0.972883
0.968659
0.957127
0.942428
0.932998
0.930138
0.931102
0.934239
0.940023
0.953362
0.981947
1.00861
1.01652
1.01722
1.01119
0.9962
0.974768
0.958291
0.951624
0.950321
0.951643
0.954456
0.958035
0.963399
0.98221
1.02228
1.04467
1.05034
1.05087
1.04992
1.03988
1.02101
1.00387
0.991587
0.986482
0.986844
0.991944
1.00156
1.01862
1.04016
1.05795
1.0648
1.06421
1.06053
1.05832
1.05594
1.05403
1.05348
1.05253
1.04946
1.0467
1.0459
1.04727
1.05655
1.06878
1.0755
1.0814
1.27683
1.72094
0.898297
0.900984
0.900667
0.895665
0.889366
0.888049
0.891564
0.900042
0.906407
0.910718
0.914067
0.913466
0.910035
0.908729
0.910091
0.911652
0.911177
0.907178
0.904746
0.907938
0.915167
0.925785
0.940336
0.957041
0.965194
0.964868
0.954862
0.939496
0.925014
0.912534
0.905799
0.905036
0.90999
0.924189
0.941709
0.960731
0.981786
0.992659
0.995572
0.992998
0.982872
0.964534
0.943404
0.928924
0.922254
0.920887
0.922384
0.926051
0.932542
0.956074
1.00076
1.02107
1.0258
1.02721
1.02194
0.998261
0.971144
0.95751
0.953017
0.952546
0.954244
0.957761
0.963439
0.975175
0.994642
1.01839
1.03991
1.04731
1.04741
1.04131
1.03376
1.02498
1.01277
1.00393
1.00134
1.00251
1.00793
1.01636
1.02741
1.03792
1.04533
1.0487
1.04932
1.04915
1.04903
1.05217
1.05553
1.05881
1.05919
1.05715
1.0515
1.04632
1.04484
1.04926
1.05814
1.06328
1.07206
1.27766
1.72114
0.902428
0.896224
0.886082
0.877598
0.875013
0.876741
0.881487
0.893099
0.911807
0.930548
0.941532
0.94372
0.936646
0.922813
0.91363
0.908027
0.901177
0.894797
0.892797
0.894291
0.899467
0.913621
0.947115
0.969423
0.974798
0.97632
0.973423
0.956444
0.926476
0.90808
0.902873
0.902685
0.90478
0.910433
0.930144
0.970756
0.994055
1.00009
1.0021
0.99946
0.984604
0.959006
0.939668
0.928284
0.922804
0.921823
0.922845
0.926354
0.942544
0.973916
1.00233
1.02055
1.02662
1.02561
1.01208
0.992995
0.977196
0.965098
0.960418
0.960278
0.962716
0.96762
0.977912
0.992103
1.00179
1.00978
1.02098
1.02973
1.03169
1.03118
1.03109
1.029
1.02399
1.02099
1.02112
1.0225
1.02479
1.02896
1.03203
1.03302
1.03326
1.03387
1.03734
1.04088
1.04499
1.05242
1.06152
1.0647
1.06535
1.06162
1.05365
1.04503
1.0396
1.03608
1.03878
1.04493
1.06462
1.28851
1.72272
0.904319
0.884737
0.872647
0.866692
0.865812
0.867757
0.87152
0.881602
0.912922
0.940295
0.949127
0.952274
0.952819
0.945939
0.926531
0.906887
0.897752
0.894574
0.894366
0.896012
0.902895
0.921093
0.944545
0.965231
0.973916
0.974541
0.965102
0.946536
0.929089
0.914875
0.907986
0.906932
0.908168
0.919362
0.948689
0.975744
0.991283
0.99851
0.999876
0.987823
0.966924
0.952571
0.94382
0.935977
0.92988
0.928293
0.931103
0.946674
0.969867
0.983796
0.993181
1.00375
1.00927
1.00784
1.00318
0.998416
0.991421
0.982919
0.976791
0.975453
0.977301
0.982955
0.993293
1.00142
1.00481
1.00515
1.00484
1.00742
1.01524
1.02313
1.02874
1.0343
1.03675
1.03804
1.03835
1.03821
1.03812
1.03739
1.03438
1.02673
1.02284
1.02559
1.03124
1.04001
1.05049
1.05994
1.06647
1.06787
1.06729
1.06163
1.05371
1.04049
1.02407
1.01496
1.01512
1.03083
1.0628
1.29894
1.72636
0.914243
0.879654
0.86976
0.866976
0.866696
0.868908
0.880028
0.897347
0.912624
0.931278
0.945093
0.948587
0.946456
0.939659
0.928558
0.915979
0.905816
0.902374
0.904752
0.913687
0.926385
0.934109
0.936959
0.942017
0.94778
0.949363
0.947696
0.946118
0.940939
0.930443
0.922617
0.921525
0.929242
0.949736
0.965155
0.972777
0.979145
0.982303
0.975596
0.96369
0.95697
0.954391
0.952552
0.949612
0.946101
0.946704
0.957831
0.974408
0.983279
0.986161
0.986958
0.984292
0.983839
0.989627
0.998238
1.0033
1.00439
1.00284
1.00043
0.998663
0.997771
0.99936
1.0032
1.00489
1.00248
0.998192
0.99584
0.99743
1.00422
1.01581
1.02863
1.03885
1.04734
1.04631
1.04323
1.04156
1.03982
1.03497
1.02595
1.01992
1.02016
1.02487
1.03709
1.05123
1.06141
1.06927
1.07029
1.06936
1.06543
1.05606
1.03921
1.0205
1.00625
1.00074
1.00448
1.02342
1.06301
1.30493
1.72943
0.913589
0.886362
0.875933
0.874515
0.878159
0.889411
0.902175
0.907972
0.908657
0.907836
0.911515
0.923419
0.93283
0.936522
0.938011
0.936135
0.931816
0.929658
0.931325
0.934412
0.936776
0.937794
0.933391
0.922253
0.917063
0.921565
0.934486
0.944686
0.947147
0.946584
0.944474
0.948488
0.961129
0.970203
0.973236
0.973943
0.970895
0.95796
0.94754
0.946601
0.950741
0.956285
0.958961
0.960281
0.965185
0.978143
0.988251
0.991214
0.991041
0.987311
0.977598
0.967904
0.965264
0.969009
0.983273
1.00226
1.01309
1.01902
1.02241
1.02155
1.01838
1.01359
1.00812
1.00217
0.996877
0.993757
0.993844
0.998396
1.00617
1.01678
1.02695
1.03612
1.04113
1.03925
1.03431
1.02947
1.02504
1.0201
1.01592
1.01762
1.02487
1.03847
1.05016
1.05803
1.06524
1.0703
1.0707
1.06721
1.05668
1.03936
1.02189
1.00884
1.00158
1.001
1.00935
1.02882
1.06449
1.29891
1.72942
0.921956
0.905837
0.899316
0.899542
0.903953
0.908888
0.91134
0.910224
0.899771
0.886904
0.883504
0.889938
0.911554
0.931361
0.943441
0.955242
0.964207
0.965352
0.959236
0.951902
0.944475
0.933385
0.916682
0.904221
0.900474
0.901762
0.910638
0.929797
0.94445
0.954263
0.97006
0.982142
0.985036
0.98396
0.98015
0.973161
0.958075
0.94
0.933039
0.933263
0.938174
0.949195
0.960457
0.972588
0.990033
1.00257
1.00597
1.0052
1.00037
0.98886
0.972353
0.963816
0.962491
0.964408
0.970264
0.990623
1.01518
1.02515
1.02772
1.02688
1.02623
1.02488
1.018
1.00406
0.995924
0.994582
0.99818
1.00861
1.0205
1.02752
1.03107
1.028
1.02166
1.01507
1.01021
1.00783
1.00727
1.00757
1.01259
1.02709
1.04358
1.05386
1.05844
1.06016
1.06366
1.06603
1.06434
1.05481
1.04056
1.02732
1.01567
1.0082
1.00721
1.01492
1.02968
1.04023
1.06826
1.28903
1.72788
0.927943
0.930856
0.93313
0.929708
0.926488
0.923051
0.915478
0.899552
0.881703
0.872564
0.870899
0.872118
0.878889
0.904563
0.944783
0.974153
0.987328
0.990639
0.987588
0.97593
0.95723
0.930332
0.907456
0.898453
0.896999
0.898482
0.901849
0.909351
0.928729
0.960843
0.986338
0.995953
0.997787
0.997317
0.993456
0.976735
0.950185
0.93636
0.933494
0.93451
0.937392
0.945106
0.960438
0.98071
0.997089
1.00725
1.01056
1.01096
1.00354
0.987672
0.97699
0.970356
0.968771
0.973294
0.984013
0.992998
1.00061
1.01014
1.01554
1.01768
1.01816
1.01716
1.01234
1.00769
1.00448
1.00724
1.01792
1.02725
1.03244
1.03506
1.03306
1.02089
1.00197
0.990486
0.986781
0.98724
0.990008
0.99979
1.02467
1.04655
1.05736
1.06159
1.06208
1.06221
1.06287
1.06095
1.05011
1.0374
1.0293
1.02261
1.01538
1.01372
1.02585
1.04079
1.05158
1.05546
1.06874
1.28317
1.72652
0.931935
0.951109
0.955592
0.955757
0.951078
0.940741
0.920787
0.890601
0.873119
0.868356
0.868506
0.870106
0.873135
0.886614
0.93712
0.98064
0.991077
0.994324
0.993061
0.983879
0.958886
0.928875
0.911104
0.902238
0.900263
0.901331
0.905268
0.913663
0.928558
0.95796
0.985615
0.995851
0.997787
0.996939
0.986702
0.967766
0.951193
0.94151
0.938985
0.941947
0.951781
0.961172
0.967438
0.977157
0.994161
1.00314
1.00449
1.00028
0.994654
0.99185
0.987564
0.985852
0.987701
0.992232
0.995966
0.994811
0.988164
0.983776
0.985849
0.994373
1.00501
1.01035
1.01202
1.01418
1.02228
1.03372
1.04053
1.04195
1.04173
1.04067
1.02985
1.0065
0.986975
0.978864
0.977266
0.978013
0.982151
1.00782
1.04346
1.05897
1.06737
1.06928
1.06535
1.06216
1.05828
1.04747
1.03286
1.02483
1.02213
1.02193
1.02331
1.03454
1.04956
1.05956
1.06582
1.06663
1.07278
1.2786
1.72637
0.937503
0.955646
0.959023
0.96045
0.957784
0.943773
0.91192
0.887102
0.875518
0.871839
0.871779
0.872903
0.87625
0.899984
0.948007
0.975009
0.986022
0.990472
0.987697
0.96946
0.948964
0.934081
0.921266
0.913509
0.911836
0.914743
0.921572
0.927636
0.93413
0.952434
0.976069
0.986299
0.988205
0.986531
0.980041
0.968521
0.958403
0.95421
0.955141
0.962307
0.967842
0.969491
0.970712
0.972898
0.981973
0.989572
0.990759
0.989157
0.989395
0.99289
0.999439
1.00672
1.01001
1.00924
1.00403
0.991053
0.974256
0.96397
0.961577
0.964654
0.978168
0.99659
1.01086
1.02791
1.04497
1.05384
1.05541
1.05355
1.04964
1.03842
1.01649
0.993782
0.980715
0.976372
0.97612
0.97695
0.991227
1.02952
1.05425
1.06498
1.07217
1.07231
1.06791
1.06128
1.05065
1.03529
1.02304
1.01966
1.02251
1.02771
1.03693
1.05206
1.06509
1.07334
1.07714
1.07437
1.07147
1.27637
1.72727
0.942106
0.954082
0.95763
0.959043
0.950214
0.92572
0.903757
0.890853
0.883459
0.880416
0.880273
0.882198
0.896082
0.932268
0.956009
0.966198
0.972082
0.974319
0.96455
0.951641
0.944723
0.939795
0.93508
0.93252
0.933667
0.936868
0.937883
0.937739
0.939345
0.94989
0.965669
0.973442
0.976173
0.977169
0.974854
0.967449
0.966454
0.969521
0.976018
0.9791
0.977241
0.972868
0.967672
0.9649
0.966677
0.976379
0.982796
0.985759
0.991132
1.00258
1.01617
1.02348
1.02452
1.01919
1.00422
0.979165
0.960973
0.953409
0.95194
0.952893
0.957111
0.973895
1.00997
1.04288
1.0584
1.06496
1.06521
1.06136
1.04906
1.02777
1.00636
0.990867
0.981851
0.978598
0.979412
0.988945
1.01648
1.04282
1.05828
1.06707
1.0691
1.06686
1.06282
1.05639
1.04597
1.03099
1.02063
1.01943
1.02483
1.03253
1.04366
1.05902
1.07357
1.08267
1.08546
1.07759
1.06936
1.27528
1.72896
0.947433
0.950344
0.951625
0.94259
0.923595
0.908213
0.899985
0.895285
0.892537
0.891558
0.893203
0.903488
0.932076
0.955771
0.962568
0.964272
0.964232
0.953578
0.940391
0.936186
0.937982
0.941852
0.945176
0.952262
0.956498
0.955349
0.948518
0.9447
0.943642
0.945916
0.95823
0.967427
0.97289
0.97571
0.976381
0.974338
0.976714
0.983104
0.985086
0.981154
0.975012
0.965663
0.958142
0.95511
0.955792
0.964187
0.977879
0.9905
1.00708
1.02128
1.0277
1.03006
1.02907
1.01809
0.991685
0.966745
0.953262
0.948655
0.948555
0.949511
0.952044
0.962575
1.00491
1.04558
1.0603
1.06741
1.06639
1.05535
1.03698
1.01955
1.00564
0.994347
0.98808
0.987904
0.995805
1.01555
1.03341
1.04684
1.05721
1.06304
1.06348
1.0625
1.06008
1.05526
1.04497
1.02986
1.02132
1.02053
1.02514
1.03349
1.04764
1.06597
1.08011
1.08793
1.08959
1.07912
1.06845
1.27303
1.73055
0.95716
0.954281
0.940253
0.917898
0.900832
0.892743
0.892177
0.895218
0.897372
0.902816
0.916026
0.931708
0.951742
0.968849
0.972687
0.97013
0.958104
0.94451
0.936721
0.933239
0.934293
0.941448
0.95542
0.961232
0.961757
0.955784
0.947195
0.939522
0.936447
0.938141
0.953427
0.967497
0.975295
0.9816
0.987856
0.991549
0.990455
0.987107
0.981301
0.972396
0.960072
0.951622
0.948685
0.948798
0.950384
0.956483
0.975682
1.00643
1.02957
1.03754
1.03974
1.0369
1.02696
1.00502
0.978655
0.960609
0.9517
0.948711
0.948705
0.950022
0.956677
0.980386
1.0118
1.03592
1.05163
1.05799
1.05424
1.04102
1.02672
1.01625
1.00856
1.00215
0.999782
1.00381
1.0189
1.03159
1.0391
1.04624
1.05301
1.05653
1.05724
1.05706
1.05418
1.04932
1.04252
1.03096
1.02229
1.02105
1.0242
1.03315
1.04928
1.06889
1.0826
1.08914
1.09075
1.07938
1.06832
1.27086
1.73186
0.96155
0.953546
0.929164
0.910967
0.897772
0.889127
0.887684
0.890681
0.905034
0.921596
0.929716
0.935209
0.948691
0.961259
0.962901
0.959528
0.954364
0.949215
0.943502
0.943349
0.948113
0.95484
0.958742
0.959954
0.956139
0.944844
0.933464
0.928313
0.927708
0.929967
0.94636
0.973425
0.991869
1.00306
1.00792
1.00818
0.998474
0.983503
0.968348
0.954483
0.94608
0.943444
0.943749
0.945211
0.948072
0.953431
0.975748
1.018
1.03742
1.04265
1.04457
1.04069
1.02053
0.994579
0.975959
0.96282
0.955111
0.952805
0.953452
0.959376
0.979172
0.99965
1.01184
1.02338
1.03411
1.03857
1.03667
1.03135
1.02505
1.01847
1.01264
1.01078
1.01257
1.02426
1.03597
1.04132
1.04344
1.04484
1.04569
1.04848
1.05101
1.05123
1.04809
1.04401
1.04041
1.03335
1.02463
1.02181
1.02415
1.03237
1.04703
1.06585
1.07937
1.0854
1.08695
1.07619
1.06633
1.26983
1.73329
0.949401
0.940208
0.928769
0.91519
0.902954
0.898464
0.900818
0.909622
0.919774
0.924011
0.925283
0.927466
0.930862
0.939402
0.949246
0.955567
0.960197
0.964238
0.96656
0.965551
0.963516
0.962232
0.959139
0.950669
0.93638
0.924598
0.919879
0.919645
0.921368
0.924286
0.93886
0.981725
1.01541
1.02625
1.02829
1.0243
1.00539
0.977173
0.954309
0.940979
0.93673
0.936772
0.93836
0.940912
0.945361
0.961791
0.990254
1.01639
1.03452
1.04118
1.04169
1.0293
1.00893
0.993015
0.980818
0.970965
0.96579
0.964449
0.967269
0.981635
0.999708
1.00804
1.01214
1.01512
1.01617
1.01768
1.0208
1.02274
1.02267
1.02105
1.01969
1.02021
1.0282
1.03979
1.04597
1.04684
1.04524
1.0399
1.03665
1.03817
1.04261
1.04434
1.04412
1.04303
1.04248
1.04021
1.03346
1.02873
1.02727
1.02995
1.03784
1.05293
1.06656
1.07506
1.07876
1.07163
1.0631
1.2714
1.73561
0.934413
0.935144
0.936305
0.932072
0.924537
0.921259
0.92212
0.923602
0.924186
0.921277
0.91522
0.91038
0.910341
0.916069
0.93098
0.95051
0.968449
0.983744
0.99087
0.990198
0.982375
0.971015
0.955759
0.934495
0.916678
0.909364
0.908697
0.910674
0.913982
0.918171
0.931605
0.986493
1.02635
1.03443
1.03616
1.03384
1.016
0.978278
0.949629
0.938439
0.93592
0.936283
0.937865
0.942271
0.958714
0.981335
0.995092
1.0058
1.01744
1.02453
1.02402
1.01575
1.00658
0.998525
0.990677
0.984524
0.981743
0.982144
0.990266
1.00543
1.01296
1.01419
1.01194
1.00757
1.00459
1.00438
1.00821
1.01499
1.02153
1.02584
1.02836
1.03266
1.04184
1.04889
1.05092
1.04792
1.03828
1.02996
1.02765
1.02803
1.03257
1.04108
1.0461
1.04831
1.05058
1.05042
1.04607
1.03977
1.03244
1.0256
1.02115
1.0293
1.04943
1.06145
1.06666
1.06637
1.06005
1.27194
1.7366
0.917155
0.931078
0.939565
0.946473
0.951588
0.950462
0.94447
0.936277
0.924989
0.910745
0.900754
0.897561
0.898007
0.90068
0.909541
0.936565
0.975468
0.995307
1.00152
1.00348
1.00024
0.986608
0.955997
0.924748
0.909205
0.904451
0.90462
0.906315
0.909441
0.917347
0.946931
0.991347
1.02235
1.03367
1.03581
1.02779
1.00296
0.975719
0.956018
0.94429
0.940861
0.941533
0.945348
0.957848
0.978592
0.990908
0.995582
0.997561
0.998315
0.99882
1.00009
1.00192
1.00362
1.00387
1.00209
1.00116
1.00129
1.0052
1.01374
1.02086
1.02187
1.0185
1.01165
1.00545
1.00279
1.00218
1.00455
1.01196
1.02268
1.02889
1.03275
1.03831
1.04636
1.05075
1.04894
1.03996
1.02998
1.02476
1.02326
1.02487
1.03131
1.03928
1.04557
1.05018
1.05333
1.05391
1.05221
1.04569
1.03133
1.01556
1.00798
1.01604
1.03417
1.04863
1.05969
1.06289
1.05775
1.26708
1.7352
0.896589
0.914548
0.940365
0.959673
0.968658
0.971078
0.967417
0.952599
0.927189
0.904698
0.896729
0.895509
0.896396
0.899382
0.909166
0.938463
0.975697
0.995069
1.00187
1.00385
0.998429
0.977804
0.949865
0.927278
0.912297
0.906683
0.906581
0.908468
0.916226
0.941824
0.969698
0.986213
1.00238
1.01391
1.01581
1.00768
0.995256
0.983399
0.97106
0.960759
0.956169
0.95666
0.962292
0.976522
0.989062
0.994282
0.994628
0.991194
0.984677
0.980988
0.981822
0.986722
0.996865
1.00585
1.01199
1.01694
1.02035
1.02446
1.02918
1.03066
1.02613
1.01722
1.0125
1.0107
1.00862
1.00872
1.01242
1.01741
1.02126
1.02574
1.03078
1.03799
1.04317
1.04268
1.03822
1.03307
1.02903
1.02623
1.0262
1.02931
1.03352
1.03725
1.03952
1.0423
1.04552
1.04667
1.04524
1.03775
1.02535
1.01292
1.00963
1.01827
1.03369
1.04707
1.05661
1.05909
1.04908
1.26123
1.73299
0.893577
0.90279
0.933024
0.962173
0.970535
0.973464
0.970797
0.953032
0.923551
0.906809
0.900726
0.89919
0.899427
0.904601
0.927582
0.95278
0.968328
0.981944
0.989331
0.987843
0.977609
0.965866
0.954089
0.938567
0.925131
0.919263
0.919878
0.924868
0.942246
0.966012
0.978406
0.98323
0.984545
0.984578
0.985252
0.98704
0.988927
0.989726
0.986569
0.982422
0.980019
0.979606
0.98214
0.9884
0.993058
0.992732
0.989016
0.983141
0.978686
0.97678
0.976467
0.978005
0.98629
1.00388
1.01543
1.02174
1.02512
1.02871
1.03061
1.02887
1.02316
1.01852
1.0185
1.02035
1.02254
1.02273
1.02096
1.01869
1.01698
1.01696
1.01942
1.02503
1.03078
1.03202
1.03088
1.03125
1.03426
1.0364
1.03653
1.03508
1.03383
1.03312
1.03328
1.03273
1.0315
1.03114
1.03033
1.02644
1.01894
1.01667
1.02569
1.03912
1.04659
1.05224
1.05623
1.05229
1.03329
1.26247
1.73078
0.898358
0.913983
0.938886
0.955621
0.964545
0.967616
0.960451
0.938092
0.920626
0.913025
0.910059
0.909477
0.910814
0.928919
0.954494
0.964113
0.967302
0.969338
0.966245
0.958696
0.956859
0.958418
0.958936
0.955677
0.94743
0.942441
0.943114
0.949108
0.963593
0.976469
0.979703
0.977994
0.97141
0.96318
0.960489
0.964115
0.975834
0.988838
0.995625
1.00091
1.00456
1.00401
1.00081
0.996744
0.994004
0.989916
0.98444
0.98079
0.97984
0.979371
0.981606
0.988553
0.99519
1.00011
1.00643
1.013
1.01864
1.02196
1.02285
1.02262
1.02115
1.02396
1.03053
1.03438
1.03501
1.03274
1.02423
1.01604
1.01056
1.00674
1.00592
1.00841
1.01525
1.0224
1.02771
1.03578
1.04393
1.04593
1.04565
1.04381
1.03964
1.0349
1.02888
1.02085
1.01764
1.01794
1.01798
1.01546
1.01491
1.0291
1.04623
1.05218
1.05438
1.05762
1.05881
1.04943
1.02089
1.26224
1.72592
0.91568
0.931745
0.941041
0.947016
0.951255
0.949336
0.936739
0.92647
0.920736
0.917859
0.917598
0.918146
0.930865
0.959247
0.970911
0.972247
0.970517
0.960136
0.942408
0.936379
0.938185
0.947786
0.96003
0.965481
0.970185
0.971147
0.968652
0.967923
0.971877
0.974321
0.973721
0.970758
0.965349
0.958786
0.955062
0.954865
0.958413
0.977863
0.998874
1.00577
1.00856
1.00945
1.00945
1.0057
0.996533
0.991289
0.988344
0.986787
0.987866
0.991606
0.995973
0.99913
1.00018
0.996746
0.994956
0.996229
1.00141
1.00747
1.01184