/*--------------------------------*- C++ -*----------------------------------*\
  =========                 |
  \\      /  F ield         | OpenFOAM: The Open Source CFD Toolbox
   \\    /   O peration     | Website:  https://openfoam.org
    \\  /    A nd           | Version:  12
     \\/     M anipulation  |
\*---------------------------------------------------------------------------*/
FoamFile
{
    format      ascii;
    class       volVectorField;
    location    "30";
    object      U;
}
// * * * * * * * * * * * * * * * * * * * * * * * * * * * * * * * * * * * * * //

dimensions      [0 1 -1 0 0 0 0];

internalField   nonuniform List<vector> 
9801
(
(1.13083 -0.0440571 0)
(1.10881 -0.0411097 0)
(1.09367 -0.0468722 0)
(1.08677 -0.049463 0)
(1.08197 -0.0506487 0)
(1.07502 -0.0497716 0)
(1.0817 -0.051549 0)
(1.13182 -0.0510722 0)
(1.16073 -0.043531 0)
(1.1625 -0.0368412 0)
(1.15947 -0.0317648 0)
(1.15131 -0.0265129 0)
(1.12197 -0.0227763 0)
(1.07055 -0.02813 0)
(1.03618 -0.0399151 0)
(1.02616 -0.046179 0)
(1.02402 -0.0491227 0)
(1.02176 -0.0503897 0)
(1.01767 -0.0493125 0)
(1.04025 -0.0484986 0)
(1.10945 -0.0412561 0)
(1.14344 -0.0328915 0)
(1.14378 -0.0227888 0)
(1.13676 -0.0171937 0)
(1.12369 -0.0147317 0)
(1.10896 -0.0160667 0)
(1.08741 -0.0161884 0)
(1.05536 -0.0124777 0)
(1.03182 -0.0105222 0)
(1.02517 -0.0105181 0)
(1.02408 -0.0100156 0)
(1.02441 -0.00808696 0)
(1.02534 -0.00506916 0)
(1.02612 -0.00237183 0)
(1.03842 -0.00229533 0)
(1.06769 -0.0036 0)
(1.08616 -0.00138011 0)
(1.08718 0.00164421 0)
(1.08145 0.00235899 0)
(1.07457 0.00267279 0)
(1.06707 0.0044095 0)
(1.0552 0.0105318 0)
(1.04066 0.0174753 0)
(1.0321 0.0211165 0)
(1.02794 0.022794 0)
(1.02515 0.0233485 0)
(1.0227 0.0233199 0)
(1.02061 0.0224847 0)
(1.01828 0.0189462 0)
(1.01486 0.0147968 0)
(1.01043 0.0120462 0)
(1.00758 0.0103548 0)
(1.00577 0.0116926 0)
(1.00275 0.018104 0)
(0.998963 0.026783 0)
(0.996753 0.0348323 0)
(0.99737 0.0406227 0)
(1.00066 0.044656 0)
(1.00143 0.0459579 0)
(0.999891 0.0455676 0)
(0.992551 0.0420218 0)
(0.974778 0.0336786 0)
(0.961659 0.0275499 0)
(0.954467 0.0277637 0)
(0.947624 0.0312545 0)
(0.938931 0.0375568 0)
(0.93037 0.0423829 0)
(0.922919 0.0456187 0)
(0.924566 0.0496653 0)
(0.942857 0.0534315 0)
(0.955162 0.0533439 0)
(0.955819 0.0508661 0)
(0.952459 0.0508777 0)
(0.94667 0.0522026 0)
(0.934059 0.0534992 0)
(0.913686 0.0529874 0)
(0.887065 0.0543498 0)
(0.860796 0.0575667 0)
(0.844436 0.0617869 0)
(0.833686 0.064688 0)
(0.824603 0.0650647 0)
(0.823371 0.0622836 0)
(0.848327 0.0561968 0)
(0.865541 0.0569036 0)
(0.863216 0.0610446 0)
(0.855128 0.0667696 0)
(0.845297 0.069923 0)
(0.829933 0.072552 0)
(0.79009 0.0737384 0)
(0.737552 0.0715294 0)
(0.696807 0.0641148 0)
(0.670971 0.053846 0)
(0.654443 0.047596 0)
(0.662294 0.0402655 0)
(0.678767 0.0291199 0)
(0.657297 0.00860303 0)
(0.62366 -0.000918668 0)
(-0.122812 -0.120874 0)
(-1.50713 -0.0902026 0)
(1.19299 -0.09754 0)
(1.17914 -0.0912017 0)
(1.17397 -0.0920096 0)
(1.1721 -0.0914196 0)
(1.17325 -0.0932553 0)
(1.19411 -0.113432 0)
(1.22086 -0.143534 0)
(1.22753 -0.147968 0)
(1.22867 -0.124722 0)
(1.22385 -0.10458 0)
(1.21515 -0.0938627 0)
(1.19084 -0.0698742 0)
(1.1575 -0.0400462 0)
(1.14042 -0.0303218 0)
(1.13346 -0.0354254 0)
(1.13129 -0.048169 0)
(1.1308 -0.0594768 0)
(1.1319 -0.0717229 0)
(1.15041 -0.0978089 0)
(1.17377 -0.127966 0)
(1.1836 -0.129313 0)
(1.18919 -0.0977237 0)
(1.18506 -0.0782638 0)
(1.17799 -0.0644733 0)
(1.1713 -0.0523498 0)
(1.1564 -0.0377724 0)
(1.12815 -0.0178169 0)
(1.10621 -0.0060408 0)
(1.09684 -0.00588054 0)
(1.09326 -0.0118078 0)
(1.09124 -0.0185287 0)
(1.08972 -0.0234521 0)
(1.08965 -0.0291259 0)
(1.1002 -0.0434803 0)
(1.11376 -0.059979 0)
(1.11763 -0.0602839 0)
(1.11696 -0.0487735 0)
(1.11618 -0.0362293 0)
(1.1123 -0.0279741 0)
(1.10525 -0.0228067 0)
(1.0973 -0.0197656 0)
(1.08327 -0.0145897 0)
(1.06835 -0.00730432 0)
(1.05959 -0.000324205 0)
(1.05467 0.00582922 0)
(1.05083 0.0104782 0)
(1.04727 0.0146165 0)
(1.04433 0.0178515 0)
(1.04342 0.0180238 0)
(1.0449 0.0146053 0)
(1.04818 0.00867701 0)
(1.04865 0.00155213 0)
(1.04482 -0.00473216 0)
(1.03792 -0.00718032 0)
(1.02915 -0.00633435 0)
(1.01863 -0.00111869 0)
(1.0114 0.0111938 0)
(1.01017 0.0233158 0)
(1.00831 0.0313574 0)
(1.005 0.0368678 0)
(1.0009 0.0409281 0)
(0.99816 0.0403441 0)
(0.993234 0.0324944 0)
(0.980228 0.0230536 0)
(0.967172 0.0216909 0)
(0.959112 0.0216592 0)
(0.951616 0.0207216 0)
(0.944342 0.0193944 0)
(0.941364 0.0197483 0)
(0.953557 0.0274931 0)
(0.962069 0.0383754 0)
(0.958862 0.0466044 0)
(0.952584 0.0499886 0)
(0.946291 0.052255 0)
(0.940658 0.0520915 0)
(0.926814 0.048349 0)
(0.895374 0.0462668 0)
(0.868885 0.0462234 0)
(0.852992 0.0430036 0)
(0.84175 0.0405134 0)
(0.832227 0.0393068 0)
(0.82804 0.0403658 0)
(0.842552 0.0472381 0)
(0.859302 0.0584315 0)
(0.862498 0.0642697 0)
(0.856746 0.0634395 0)
(0.847335 0.0614966 0)
(0.832109 0.060201 0)
(0.793401 0.0584624 0)
(0.740908 0.0531838 0)
(0.699191 0.0446632 0)
(0.666728 0.0369054 0)
(0.644342 0.0338261 0)
(0.634395 0.0416906 0)
(0.642 0.0484941 0)
(0.627821 0.0320879 0)
(0.60605 0.0241557 0)
(-0.141326 -0.145339 0)
(-1.53174 -0.1378 0)
(1.1998 -0.105672 0)
(1.18161 -0.0842224 0)
(1.17649 -0.0778974 0)
(1.17217 -0.0792656 0)
(1.17753 -0.0847997 0)
(1.20926 -0.100885 0)
(1.22617 -0.115281 0)
(1.22978 -0.129021 0)
(1.2293 -0.130833 0)
(1.22596 -0.12359 0)
(1.21325 -0.0949598 0)
(1.18789 -0.0541097 0)
(1.16772 -0.029363 0)
(1.15055 -0.0169283 0)
(1.13878 -0.0180435 0)
(1.13206 -0.0250938 0)
(1.12955 -0.038506 0)
(1.14185 -0.0671621 0)
(1.16312 -0.0986408 0)
(1.17315 -0.115886 0)
(1.17646 -0.12508 0)
(1.17939 -0.120767 0)
(1.18357 -0.0983398 0)
(1.1826 -0.0712853 0)
(1.17509 -0.0455733 0)
(1.15787 -0.0220487 0)
(1.13504 -0.00614883 0)
(1.1152 0.00252256 0)
(1.10253 0.00285337 0)
(1.09456 -0.00174783 0)
(1.08885 -0.00740286 0)
(1.08479 -0.0118188 0)
(1.0853 -0.0168316 0)
(1.09919 -0.0249629 0)
(1.10921 -0.0359441 0)
(1.11224 -0.0490222 0)
(1.11243 -0.0541078 0)
(1.1139 -0.0511549 0)
(1.11304 -0.0432435 0)
(1.10698 -0.0372732 0)
(1.0981 -0.0288676 0)
(1.07985 -0.0106663 0)
(1.06458 0.00575763 0)
(1.05671 0.0173423 0)
(1.05289 0.0259888 0)
(1.0501 0.0317146 0)
(1.0476 0.0338648 0)
(1.04754 0.0311058 0)
(1.05014 0.0216913 0)
(1.05362 0.00966073 0)
(1.05329 -0.00056552 0)
(1.04905 -0.00872591 0)
(1.04236 -0.0155321 0)
(1.03402 -0.019889 0)
(1.02219 -0.0182786 0)
(1.00979 -0.00878158 0)
(1.00272 0.00374229 0)
(1.00296 0.0240848 0)
(1.00695 0.04303 0)
(1.00645 0.0523319 0)
(1.00279 0.0545803 0)
(0.99901 0.052022 0)
(0.993235 0.0436393 0)
(0.978979 0.0288184 0)
(0.964811 0.0152691 0)
(0.956028 0.00826589 0)
(0.948251 0.00512438 0)
(0.940324 0.00462787 0)
(0.933747 0.00640232 0)
(0.941722 0.0178084 0)
(0.954795 0.0362342 0)
(0.955629 0.0496896 0)
(0.949826 0.0583567 0)
(0.942831 0.061706 0)
(0.936149 0.0626679 0)
(0.921553 0.0606191 0)
(0.894225 0.0507268 0)
(0.869152 0.0400169 0)
(0.850261 0.0343278 0)
(0.837387 0.0320331 0)
(0.827196 0.0310829 0)
(0.819209 0.0310507 0)
(0.827254 0.0396403 0)
(0.848788 0.0506353 0)
(0.855783 0.0540388 0)
(0.84876 0.0553932 0)
(0.838448 0.0570769 0)
(0.821561 0.0603751 0)
(0.785868 0.0606685 0)
(0.737772 0.0521512 0)
(0.694644 0.0376242 0)
(0.658697 0.0231403 0)
(0.634216 0.0156277 0)
(0.61832 0.0120225 0)
(0.620617 -0.0020114 0)
(0.61254 -0.0274553 0)
(0.604948 -0.0330608 0)
(-0.144671 -0.166255 0)
(-1.54774 -0.126437 0)
(1.18434 -0.109135 0)
(1.17556 -0.0964786 0)
(1.1736 -0.0832413 0)
(1.17556 -0.082828 0)
(1.19342 -0.093587 0)
(1.21996 -0.105764 0)
(1.22921 -0.109635 0)
(1.22754 -0.110713 0)
(1.22153 -0.110996 0)
(1.20238 -0.0955746 0)
(1.18096 -0.0690915 0)
(1.16497 -0.0492299 0)
(1.15682 -0.0417167 0)
(1.15077 -0.0388055 0)
(1.14651 -0.0363985 0)
(1.14425 -0.0425683 0)
(1.14845 -0.0615658 0)
(1.15768 -0.0802549 0)
(1.16598 -0.0921146 0)
(1.1679 -0.0981133 0)
(1.16542 -0.0994146 0)
(1.15893 -0.0935301 0)
(1.15384 -0.0762856 0)
(1.15433 -0.0532778 0)
(1.15552 -0.0301348 0)
(1.14915 -0.0152881 0)
(1.13029 -0.00700915 0)
(1.11687 -0.00769014 0)
(1.10744 -0.00937756 0)
(1.09822 -0.0114261 0)
(1.09081 -0.0137032 0)
(1.08581 -0.0151876 0)
(1.08619 -0.0179498 0)
(1.1031 -0.0244954 0)
(1.11268 -0.031036 0)
(1.11124 -0.0360926 0)
(1.1073 -0.0438272 0)
(1.10452 -0.047168 0)
(1.10155 -0.0470501 0)
(1.09532 -0.0402342 0)
(1.07738 -0.0180047 0)
(1.06273 0.00515308 0)
(1.05543 0.0207411 0)
(1.05113 0.0292035 0)
(1.04841 0.0339482 0)
(1.04661 0.0357747 0)
(1.04759 0.0323501 0)
(1.05363 0.0214376 0)
(1.05844 0.00776282 0)
(1.05839 -0.00344315 0)
(1.05443 -0.0124182 0)
(1.04751 -0.0186972 0)
(1.03761 -0.0224602 0)
(1.02082 -0.0187972 0)
(1.00211 -0.00519471 0)
(0.990496 0.00917672 0)
(0.985184 0.0196176 0)
(0.985157 0.0309265 0)
(0.995799 0.0448817 0)
(1.00178 0.0510502 0)
(1.00207 0.0498991 0)
(1.00025 0.0455238 0)
(0.99506 0.0415285 0)
(0.983706 0.0308942 0)
(0.964759 0.013983 0)
(0.949123 0.00253545 0)
(0.937883 -0.000167839 0)
(0.928387 0.00234303 0)
(0.920394 0.00636868 0)
(0.91867 0.0149274 0)
(0.932171 0.0349719 0)
(0.940008 0.0507589 0)
(0.93782 0.0573221 0)
(0.932055 0.0616023 0)
(0.925376 0.0655502 0)
(0.915533 0.0669378 0)
(0.894092 0.0581876 0)
(0.865282 0.0405883 0)
(0.843029 0.0271648 0)
(0.828825 0.0217869 0)
(0.818225 0.020779 0)
(0.808911 0.02077 0)
(0.808843 0.0240875 0)
(0.825324 0.0389241 0)
(0.833748 0.0569123 0)
(0.828766 0.0672872 0)
(0.819075 0.0715705 0)
(0.804204 0.0736533 0)
(0.775103 0.0691993 0)
(0.732718 0.0542212 0)
(0.690643 0.03284 0)
(0.655739 0.0119195 0)
(0.627687 -0.00144166 0)
(0.60679 -0.00542789 0)
(0.597926 -0.01986 0)
(0.595624 -0.0494233 0)
(0.599334 -0.0587155 0)
(-0.144904 -0.164639 0)
(-1.57156 -0.124483 0)
(1.16334 -0.114416 0)
(1.15645 -0.11208 0)
(1.1609 -0.103065 0)
(1.1757 -0.0996872 0)
(1.20095 -0.105477 0)
(1.21893 -0.109811 0)
(1.22007 -0.105948 0)
(1.21687 -0.0975451 0)
(1.20222 -0.0769443 0)
(1.18008 -0.0572301 0)
(1.16416 -0.0494472 0)
(1.15493 -0.0476761 0)
(1.14932 -0.0486057 0)
(1.14536 -0.0532306 0)
(1.14723 -0.0673556 0)
(1.15391 -0.0833391 0)
(1.15814 -0.091575 0)
(1.16201 -0.0966323 0)
(1.16177 -0.0954855 0)
(1.15861 -0.0885604 0)
(1.14992 -0.0720977 0)
(1.13781 -0.0546211 0)
(1.13285 -0.0459285 0)
(1.13232 -0.0416065 0)
(1.13343 -0.0355162 0)
(1.13173 -0.0303719 0)
(1.12576 -0.0276005 0)
(1.11293 -0.0236215 0)
(1.10242 -0.0214229 0)
(1.09428 -0.0181517 0)
(1.08756 -0.0162311 0)
(1.08279 -0.0155481 0)
(1.08689 -0.0165001 0)
(1.10537 -0.0231814 0)
(1.11253 -0.0284285 0)
(1.11025 -0.0308356 0)
(1.10623 -0.0332244 0)
(1.10172 -0.037576 0)
(1.09293 -0.0400036 0)
(1.06884 -0.0289892 0)
(1.0476 -0.00843037 0)
(1.03935 0.00554368 0)
(1.03654 0.0173895 0)
(1.03662 0.0279308 0)
(1.03815 0.0348672 0)
(1.04321 0.0353052 0)
(1.05349 0.0235917 0)
(1.06124 0.00664071 0)
(1.06225 -0.00561551 0)
(1.05917 -0.0133077 0)
(1.05409 -0.0195292 0)
(1.04524 -0.0254856 0)
(1.02533 -0.0241346 0)
(0.99931 -0.010628 0)
(0.98218 0.00337109 0)
(0.973337 0.012653 0)
(0.967816 0.0192252 0)
(0.966808 0.0262384 0)
(0.979273 0.0365222 0)
(0.992376 0.0451407 0)
(0.996561 0.04728 0)
(0.996414 0.0447114 0)
(0.992983 0.0398122 0)
(0.98637 0.03356 0)
(0.969922 0.01939 0)
(0.94704 0.00423229 0)
(0.928774 -0.00314541 0)
(0.915653 -0.00240228 0)
(0.905731 0.00301082 0)
(0.898917 0.00921993 0)
(0.902711 0.0244626 0)
(0.916236 0.048481 0)
(0.920378 0.0633822 0)
(0.917167 0.0685387 0)
(0.911569 0.0692 0)
(0.905259 0.068554 0)
(0.892433 0.0640412 0)
(0.867165 0.0484732 0)
(0.840905 0.0299103 0)
(0.821694 0.0160436 0)
(0.809768 0.0103396 0)
(0.800332 0.00973304 0)
(0.793257 0.0115009 0)
(0.79761 0.0230198 0)
(0.806763 0.0444156 0)
(0.805394 0.0607906 0)
(0.795717 0.0682694 0)
(0.782766 0.0705579 0)
(0.760733 0.0686943 0)
(0.728408 0.055142 0)
(0.692769 0.0333925 0)
(0.659366 0.00708826 0)
(0.631152 -0.0168355 0)
(0.608474 -0.0299857 0)
(0.596913 -0.0441566 0)
(0.600488 -0.075274 0)
(0.609977 -0.0873658 0)
(-0.147386 -0.15848 0)
(-1.5916 -0.123534 0)
(1.15962 -0.107007 0)
(1.15123 -0.109626 0)
(1.1516 -0.117746 0)
(1.17047 -0.123115 0)
(1.19315 -0.118784 0)
(1.2003 -0.106924 0)
(1.20125 -0.0899505 0)
(1.19517 -0.0648146 0)
(1.18483 -0.0428711 0)
(1.1743 -0.0332829 0)
(1.16552 -0.03405 0)
(1.15889 -0.0422977 0)
(1.15636 -0.0598358 0)
(1.15788 -0.0846145 0)
(1.15775 -0.103803 0)
(1.15481 -0.113194 0)
(1.15177 -0.112906 0)
(1.14941 -0.10396 0)
(1.14549 -0.0844909 0)
(1.13824 -0.0593756 0)
(1.13318 -0.039155 0)
(1.13047 -0.0284505 0)
(1.1284 -0.0266946 0)
(1.12654 -0.0280788 0)
(1.12383 -0.0300027 0)
(1.11993 -0.0307925 0)
(1.11316 -0.0326652 0)
(1.10194 -0.0319719 0)
(1.09195 -0.0280746 0)
(1.08447 -0.0227139 0)
(1.07926 -0.0194346 0)
(1.07598 -0.0178384 0)
(1.08668 -0.0204313 0)
(1.10564 -0.0267284 0)
(1.10989 -0.0302111 0)
(1.10692 -0.0321073 0)
(1.10244 -0.0334223 0)
(1.09696 -0.0339798 0)
(1.07581 -0.0271038 0)
(1.04248 -0.00938642 0)
(1.02625 0.0018073 0)
(1.02151 0.00662217 0)
(1.0191 0.0114309 0)
(1.01891 0.0186368 0)
(1.0252 0.0250576 0)
(1.04505 0.0213929 0)
(1.06244 0.00821249 0)
(1.06536 -0.00216108 0)
(1.06232 -0.00978036 0)
(1.05737 -0.0161343 0)
(1.05111 -0.019726 0)
(1.03657 -0.0186013 0)
(1.00728 -0.0114438 0)
(0.979936 -0.00306274 0)
(0.965727 0.00423734 0)
(0.958303 0.0101894 0)
(0.953047 0.0160692 0)
(0.951397 0.0229079 0)
(0.961459 0.0322297 0)
(0.97997 0.0417193 0)
(0.990704 0.0445927 0)
(0.992674 0.0417948 0)
(0.989513 0.0373784 0)
(0.983857 0.0338489 0)
(0.973749 0.0280412 0)
(0.950521 0.0139111 0)
(0.924019 0.00217444 0)
(0.904503 -0.000348056 0)
(0.89191 0.0038803 0)
(0.883779 0.0101901 0)
(0.879276 0.0177487 0)
(0.887586 0.0359389 0)
(0.899987 0.0578677 0)
(0.902051 0.0684112 0)
(0.89832 0.070264 0)
(0.893407 0.0688192 0)
(0.886924 0.0655583 0)
(0.873274 0.0550435 0)
(0.847274 0.0348901 0)
(0.823362 0.0190252 0)
(0.805493 0.00949415 0)
(0.791237 0.00624744 0)
(0.78058 0.00874042 0)
(0.773328 0.0146693 0)
(0.775583 0.0298552 0)
(0.778096 0.0492805 0)
(0.772266 0.0632888 0)
(0.760773 0.0704207 0)
(0.747073 0.069966 0)
(0.726174 0.0602497 0)
(0.701857 0.0389244 0)
(0.676373 0.0104202 0)
(0.6496 -0.0193179 0)
(0.62309 -0.0404832 0)
(0.603652 -0.0589286 0)
(0.602005 -0.089728 0)
(0.618189 -0.10977 0)
(-0.15032 -0.157134 0)
(-1.60461 -0.125814 0)
(1.16472 -0.0998423 0)
(1.157 -0.10739 0)
(1.1575 -0.125255 0)
(1.16492 -0.132027 0)
(1.1711 -0.125917 0)
(1.17397 -0.105276 0)
(1.17277 -0.0759109 0)
(1.16971 -0.0488935 0)
(1.16675 -0.0322217 0)
(1.16299 -0.0275363 0)
(1.1633 -0.0333819 0)
(1.16971 -0.0563027 0)
(1.17158 -0.0837744 0)
(1.16933 -0.103863 0)
(1.1643 -0.115044 0)
(1.15548 -0.119703 0)
(1.14134 -0.115397 0)
(1.12595 -0.0949402 0)
(1.11752 -0.0699407 0)
(1.11453 -0.0498544 0)
(1.11397 -0.0344729 0)
(1.11779 -0.0237629 0)
(1.12204 -0.0212676 0)
(1.12204 -0.0243675 0)
(1.11902 -0.0271715 0)
(1.11484 -0.0288706 0)
(1.10685 -0.0317252 0)
(1.09267 -0.0344085 0)
(1.08226 -0.0337405 0)
(1.07699 -0.0306482 0)
(1.07325 -0.0275949 0)
(1.07167 -0.0266648 0)
(1.08793 -0.0322909 0)
(1.10453 -0.0389084 0)
(1.10579 -0.0400588 0)
(1.10159 -0.0397933 0)
(1.09689 -0.0393284 0)
(1.0832 -0.0309859 0)
(1.05153 -0.00721842 0)
(1.02836 0.00941014 0)
(1.01874 0.013674 0)
(1.01418 0.013923 0)
(1.01022 0.0136241 0)
(1.00815 0.0111151 0)
(1.01944 0.00293559 0)
(1.04874 -0.00586991 0)
(1.0654 -0.00826818 0)
(1.065 -0.00967398 0)
(1.06012 -0.0103552 0)
(1.0535 -0.0106298 0)
(1.04304 -0.00772161 0)
(1.0254 -0.00238358 0)
(0.995825 -0.00105283 0)
(0.966772 -0.00201488 0)
(0.95159 -0.000863559 0)
(0.944901 0.00237535 0)
(0.940146 0.00709838 0)
(0.938056 0.01413 0)
(0.944968 0.0246432 0)
(0.966384 0.0364924 0)
(0.984109 0.0417324 0)
(0.988398 0.0405794 0)
(0.985053 0.0377634 0)
(0.979263 0.0351671 0)
(0.972701 0.0326478 0)
(0.957274 0.0253956 0)
(0.925911 0.013146 0)
(0.898163 0.00765507 0)
(0.882145 0.00886443 0)
(0.872542 0.0130542 0)
(0.865669 0.0177633 0)
(0.862798 0.0254227 0)
(0.873225 0.04374 0)
(0.884545 0.0625127 0)
(0.887283 0.0696623 0)
(0.886439 0.0678686 0)
(0.883755 0.0616844 0)
(0.877394 0.0558366 0)
(0.861889 0.0420122 0)
(0.834592 0.0206273 0)
(0.807413 0.00813919 0)
(0.784687 0.00691635 0)
(0.769171 0.0100108 0)
(0.759192 0.0138523 0)
(0.752493 0.0191425 0)
(0.751975 0.0300509 0)
(0.75181 0.0419864 0)
(0.748433 0.0487638 0)
(0.741771 0.0504622 0)
(0.730648 0.0486529 0)
(0.715996 0.0377305 0)
(0.698827 0.0181183 0)
(0.68007 -0.00985916 0)
(0.653066 -0.0422737 0)
(0.621445 -0.0673048 0)
(0.600218 -0.0954022 0)
(0.620073 -0.138127 0)
(-0.152071 -0.152901 0)
(-1.61236 -0.126026 0)
(1.17661 -0.0958535 0)
(1.16556 -0.111854 0)
(1.16417 -0.124734 0)
(1.16166 -0.1251 0)
(1.15511 -0.114329 0)
(1.14778 -0.0948597 0)
(1.14492 -0.0773597 0)
(1.14433 -0.061678 0)
(1.14736 -0.0484847 0)
(1.15922 -0.0419438 0)
(1.17825 -0.0507671 0)
(1.18597 -0.0652359 0)
(1.18365 -0.0741409 0)
(1.17775 -0.084 0)
(1.16637 -0.0955645 0)
(1.14696 -0.10215 0)
(1.1199 -0.0935438 0)
(1.10294 -0.0793343 0)
(1.09746 -0.0709623 0)
(1.09555 -0.0635465 0)
(1.09798 -0.0537839 0)
(1.1093 -0.0434615 0)
(1.12146 -0.0362968 0)
(1.12357 -0.033585 0)
(1.11876 -0.0336885 0)
(1.11314 -0.0342156 0)
(1.10364 -0.0345639 0)
(1.08626 -0.0322702 0)
(1.07624 -0.0291597 0)
(1.07243 -0.0278886 0)
(1.06885 -0.0276685 0)
(1.07419 -0.0309888 0)
(1.09439 -0.0424925 0)
(1.10229 -0.0475928 0)
(1.10069 -0.0473952 0)
(1.09647 -0.046371 0)
(1.08595 -0.0383227 0)
(1.05937 -0.0168907 0)
(1.03346 8.95112e-05 0)
(1.02006 0.00518457 0)
(1.01435 0.00562185 0)
(1.00972 0.00517944 0)
(1.00725 0.00157883 0)
(1.01145 -0.00875182 0)
(1.02423 -0.0181881 0)
(1.04676 -0.0208001 0)
(1.06079 -0.0170771 0)
(1.05999 -0.011426 0)
(1.05521 -0.00548968 0)
(1.04655 0.00282013 0)
(1.03536 0.00833682 0)
(1.02036 0.0104008 0)
(0.993844 0.00975799 0)
(0.963484 0.00711629 0)
(0.944345 0.0058344 0)
(0.935123 0.00615569 0)
(0.92993 0.00804997 0)
(0.926013 0.0110184 0)
(0.928933 0.0178534 0)
(0.951767 0.0302593 0)
(0.977608 0.0388236 0)
(0.984983 0.0396014 0)
(0.98127 0.0373386 0)
(0.975094 0.0353448 0)
(0.969175 0.0340431 0)
(0.958967 0.0331525 0)
(0.931507 0.0273967 0)
(0.898653 0.0197861 0)
(0.877283 0.015944 0)
(0.86483 0.0161085 0)
(0.856042 0.0191983 0)
(0.848636 0.0229928 0)
(0.847199 0.0318492 0)
(0.861265 0.0509702 0)
(0.87678 0.0648873 0)
(0.884335 0.0659367 0)
(0.885473 0.0595056 0)
(0.881063 0.053245 0)
(0.872832 0.0480778 0)
(0.849485 0.0354393 0)
(0.81214 0.0204171 0)
(0.783045 0.0132157 0)
(0.763262 0.0100233 0)
(0.749884 0.00952909 0)
(0.74079 0.0101539 0)
(0.734272 0.0133741 0)
(0.733497 0.0217442 0)
(0.735434 0.0301004 0)
(0.736234 0.0328369 0)
(0.733908 0.0304413 0)
(0.726255 0.0268026 0)
(0.716421 0.0152703 0)
(0.702043 -0.00624361 0)
(0.681428 -0.034666 0)
(0.648578 -0.0649884 0)
(0.607089 -0.0875894 0)
(0.61748 -0.169099 0)
(-0.155057 -0.151954 0)
(-1.61635 -0.126119 0)
(1.18693 -0.0907024 0)
(1.1757 -0.108681 0)
(1.16907 -0.11405 0)
(1.15396 -0.107402 0)
(1.13926 -0.0963396 0)
(1.13319 -0.0904312 0)
(1.13052 -0.0845319 0)
(1.13001 -0.0770622 0)
(1.13643 -0.0714889 0)
(1.16376 -0.0761076 0)
(1.18753 -0.0833651 0)
(1.19055 -0.0855456 0)
(1.18508 -0.0850942 0)
(1.1791 -0.0834448 0)
(1.16651 -0.0782465 0)
(1.13591 -0.0666681 0)
(1.10493 -0.0574124 0)
(1.09202 -0.0551015 0)
(1.08941 -0.0542192 0)
(1.08869 -0.0533165 0)
(1.09291 -0.0527393 0)
(1.10442 -0.0533175 0)
(1.11698 -0.0534002 0)
(1.1196 -0.0506928 0)
(1.11442 -0.0478863 0)
(1.10778 -0.0452417 0)
(1.09472 -0.0365918 0)
(1.07956 -0.0278608 0)
(1.07143 -0.026281 0)
(1.06698 -0.0270966 0)
(1.06527 -0.0291476 0)
(1.0814 -0.0396606 0)
(1.09761 -0.0480696 0)
(1.09974 -0.0472178 0)
(1.09636 -0.0450891 0)
(1.08896 -0.0364245 0)
(1.0699 -0.0177588 0)
(1.04695 -0.00410922 0)
(1.02843 0.00017969 0)
(1.01759 0.000395337 0)
(1.0124 -0.0012141 0)
(1.01093 -0.0095575 0)
(1.01442 -0.024772 0)
(1.01533 -0.0333485 0)
(1.0199 -0.0347816 0)
(1.03446 -0.027604 0)
(1.04628 -0.0159481 0)
(1.04839 -0.00516844 0)
(1.04599 0.00643851 0)
(1.04102 0.0165318 0)
(1.035 0.0214988 0)
(1.02332 0.0209658 0)
(0.998114 0.015963 0)
(0.966217 0.0119952 0)
(0.94317 0.0103038 0)
(0.930631 0.011528 0)
(0.924177 0.013377 0)
(0.919578 0.0142924 0)
(0.917413 0.0157581 0)
(0.936789 0.0232492 0)
(0.971018 0.0336606 0)
(0.981909 0.0356105 0)
(0.978122 0.03506 0)
(0.972279 0.0353983 0)
(0.966648 0.0372836 0)
(0.95771 0.0397018 0)
(0.936589 0.0393018 0)
(0.903925 0.0309604 0)
(0.87746 0.0234172 0)
(0.860069 0.0194958 0)
(0.84806 0.0194505 0)
(0.839353 0.021347 0)
(0.832308 0.0240775 0)
(0.8382 0.0355657 0)
(0.865695 0.05477 0)
(0.885912 0.0614418 0)
(0.889242 0.0591341 0)
(0.884766 0.0552899 0)
(0.877785 0.0521087 0)
(0.860952 0.0461738 0)
(0.822595 0.0335013 0)
(0.785867 0.0203542 0)
(0.761902 0.0126915 0)
(0.745539 0.00632024 0)
(0.734582 0.00286513 0)
(0.726866 0.00132423 0)
(0.723147 0.00244818 0)
(0.728911 0.00782246 0)
(0.737634 0.0107948 0)
(0.74062 0.0099587 0)
(0.737173 0.00851924 0)
(0.72892 0.00543328 0)
(0.715993 -0.0102079 0)
(0.696159 -0.0334031 0)
(0.66925 -0.059661 0)
(0.63054 -0.0855915 0)
(0.613858 -0.158139 0)
(-0.159987 -0.159288 0)
(-1.61972 -0.127034 0)
(1.19524 -0.0823007 0)
(1.18065 -0.0950518 0)
(1.15898 -0.0947417 0)
(1.14111 -0.0845439 0)
(1.13272 -0.0785323 0)
(1.12959 -0.0759595 0)
(1.1275 -0.0755192 0)
(1.13228 -0.0804502 0)
(1.15126 -0.0995828 0)
(1.16732 -0.114491 0)
(1.17721 -0.113037 0)
(1.17879 -0.101504 0)
(1.17445 -0.0921009 0)
(1.16486 -0.0768524 0)
(1.14483 -0.0511218 0)
(1.12271 -0.0300483 0)
(1.10489 -0.0250415 0)
(1.09567 -0.0304196 0)
(1.09284 -0.0361891 0)
(1.09248 -0.0425335 0)
(1.09905 -0.0524534 0)
(1.11081 -0.0623681 0)
(1.11622 -0.0658126 0)
(1.11418 -0.0641949 0)
(1.10915 -0.0615991 0)
(1.09778 -0.053973 0)
(1.08044 -0.0405813 0)
(1.07056 -0.0327876 0)
(1.0643 -0.0301112 0)
(1.05919 -0.0297932 0)
(1.0657 -0.0325022 0)
(1.08711 -0.0381902 0)
(1.09643 -0.038659 0)
(1.09584 -0.0363318 0)
(1.09067 -0.0281828 0)
(1.07554 -0.011251 0)
(1.05971 1.22127e-05 0)
(1.04538 0.00437989 0)
(1.03278 0.00196813 0)
(1.02521 -0.00545938 0)
(1.02162 -0.0185563 0)
(1.02256 -0.0341125 0)
(1.01838 -0.0424739 0)
(1.01191 -0.0441689 0)
(1.00664 -0.0405907 0)
(1.01186 -0.0256513 0)
(1.02786 -0.00236607 0)
(1.0367 0.0118039 0)
(1.03734 0.0169702 0)
(1.03437 0.0202907 0)
(1.03001 0.0231997 0)
(1.02437 0.02425 0)
(1.00442 0.0220354 0)
(0.969683 0.0173276 0)
(0.942372 0.0168074 0)
(0.927959 0.0175958 0)
(0.921418 0.0174311 0)
(0.91667 0.0166488 0)
(0.913156 0.0145911 0)
(0.928031 0.0117202 0)
(0.965669 0.0155634 0)
(0.980138 0.0235522 0)
(0.9761 0.0288026 0)
(0.969222 0.0337647 0)
(0.960992 0.0401425 0)
(0.952736 0.0462754 0)
(0.938876 0.048475 0)
(0.911517 0.0409805 0)
(0.880962 0.0288975 0)
(0.858009 0.0216098 0)
(0.842827 0.0181581 0)
(0.83296 0.018085 0)
(0.82529 0.0190281 0)
(0.822949 0.023165 0)
(0.851045 0.0401005 0)
(0.884836 0.053592 0)
(0.891359 0.0546892 0)
(0.886233 0.0535981 0)
(0.879003 0.0526817 0)
(0.863729 0.0502993 0)
(0.830013 0.0431554 0)
(0.791818 0.0295534 0)
(0.764285 0.0159873 0)
(0.745985 0.00631337 0)
(0.733174 -0.00186848 0)
(0.72479 -0.00635134 0)
(0.719259 -0.00786761 0)
(0.72324 -0.00680028 0)
(0.737388 -0.00380155 0)
(0.746527 -0.00444949 0)
(0.746325 -0.00690309 0)
(0.739767 -0.00928882 0)
(0.726777 -0.0196288 0)
(0.705744 -0.0372971 0)
(0.682477 -0.0570235 0)
(0.653035 -0.0800124 0)
(0.626086 -0.137533 0)
(-0.164574 -0.164585 0)
(-1.62312 -0.12497 0)
(1.19624 -0.0845696 0)
(1.17193 -0.0832046 0)
(1.14577 -0.0749637 0)
(1.13397 -0.0683243 0)
(1.13027 -0.0674626 0)
(1.12778 -0.06759 0)
(1.13254 -0.0743037 0)
(1.15403 -0.100479 0)
(1.16537 -0.12037 0)
(1.16574 -0.12506 0)
(1.1636 -0.121853 0)
(1.16077 -0.113235 0)
(1.15163 -0.0889728 0)
(1.13399 -0.0505638 0)
(1.12047 -0.0209866 0)
(1.1123 -0.00735085 0)
(1.10694 -0.00703677 0)
(1.10201 -0.0129232 0)
(1.09904 -0.0229469 0)
(1.10157 -0.0385665 0)
(1.10985 -0.0559694 0)
(1.11629 -0.0662032 0)
(1.1172 -0.0680459 0)
(1.11317 -0.0663636 0)
(1.10545 -0.0628984 0)
(1.08433 -0.0536552 0)
(1.06805 -0.0474545 0)
(1.06148 -0.0449877 0)
(1.05615 -0.0424791 0)
(1.0541 -0.040862 0)
(1.06594 -0.0417043 0)
(1.08212 -0.0389124 0)
(1.08642 -0.0312383 0)
(1.08451 -0.0205577 0)
(1.07565 -0.00530913 0)
(1.06548 0.00465967 0)
(1.05846 0.00909008 0)
(1.05172 0.0070265 0)
(1.0449 -0.003173 0)
(1.03907 -0.0212192 0)
(1.03191 -0.0390036 0)
(1.02418 -0.04794 0)
(1.01592 -0.0488569 0)
(1.00407 -0.0436935 0)
(0.995642 -0.0361496 0)
(0.992873 -0.0294642 0)
(1.00615 -0.0105344 0)
(1.02622 0.0105137 0)
(1.03245 0.0198664 0)
(1.03097 0.0231071 0)
(1.02721 0.0253506 0)
(1.02182 0.0291437 0)
(1.00573 0.0349631 0)
(0.969065 0.0354408 0)
(0.939312 0.030151 0)
(0.92656 0.0254393 0)
(0.92059 0.021289 0)
(0.916858 0.01559 0)
(0.918249 0.0038253 0)
(0.929694 -0.0102135 0)
(0.954769 -0.00970062 0)
(0.970173 0.0048607 0)
(0.969286 0.0178525 0)
(0.961975 0.0315564 0)
(0.951961 0.0453059 0)
(0.945805 0.053796 0)
(0.939168 0.0575286 0)
(0.918857 0.0522236 0)
(0.88551 0.0379991 0)
(0.858272 0.0258191 0)
(0.841015 0.0178389 0)
(0.830362 0.0126207 0)
(0.823522 0.0106714 0)
(0.818797 0.00954302 0)
(0.837475 0.0141763 0)
(0.87762 0.0325752 0)
(0.888261 0.0457911 0)
(0.882988 0.0510301 0)
(0.87491 0.0539835 0)
(0.860248 0.0551475 0)
(0.833567 0.0495178 0)
(0.801409 0.0358809 0)
(0.773042 0.017824 0)
(0.751774 0.00316016 0)
(0.73636 -0.005833 0)
(0.725885 -0.0108996 0)
(0.720271 -0.0127349 0)
(0.720155 -0.0148394 0)
(0.734475 -0.0143717 0)
(0.74949 -0.0139466 0)
(0.751289 -0.0162663 0)
(0.744188 -0.0189222 0)
(0.730589 -0.0290941 0)
(0.712198 -0.0438175 0)
(0.694538 -0.0572794 0)
(0.67252 -0.0723074 0)
(0.644338 -0.113793 0)
(-0.166868 -0.165299 0)
(-1.62652 -0.121647 0)
(1.19107 -0.0854843 0)
(1.15612 -0.0699299 0)
(1.13643 -0.0627835 0)
(1.1301 -0.0616933 0)
(1.12702 -0.0617944 0)
(1.13146 -0.067323 0)
(1.15667 -0.0922006 0)
(1.17013 -0.112893 0)
(1.16928 -0.118484 0)
(1.16589 -0.118257 0)
(1.1601 -0.115092 0)
(1.14154 -0.0969551 0)
(1.11887 -0.0673398 0)
(1.10604 -0.0450184 0)
(1.09978 -0.0336172 0)
(1.09779 -0.0234832 0)
(1.0998 -0.0130351 0)
(1.10168 -0.00846275 0)
(1.10815 -0.0116779 0)
(1.11736 -0.0252775 0)
(1.12137 -0.0398955 0)
(1.12014 -0.0504811 0)
(1.1161 -0.0570088 0)
(1.11038 -0.0597694 0)
(1.09673 -0.0576862 0)
(1.07642 -0.0513747 0)
(1.06324 -0.0473962 0)
(1.05665 -0.0471049 0)
(1.05186 -0.0481308 0)
(1.05018 -0.0500223 0)
(1.05443 -0.0463826 0)
(1.06333 -0.0303693 0)
(1.06989 -0.0086219 0)
(1.07237 0.00803341 0)
(1.07041 0.0156753 0)
(1.06592 0.0154459 0)
(1.06129 0.0101122 0)
(1.06043 0.000165846 0)
(1.05851 -0.0106609 0)
(1.0527 -0.0205894 0)
(1.04173 -0.0329398 0)
(1.02563 -0.0420775 0)
(1.00795 -0.0416497 0)
(0.994244 -0.0348811 0)
(0.986684 -0.0285895 0)
(0.98271 -0.0246723 0)
(0.986843 -0.0170583 0)
(1.01255 0.00132206 0)
(1.02748 0.0154272 0)
(1.02634 0.0229791 0)
(1.02141 0.0301713 0)
(1.01393 0.0382781 0)
(0.999024 0.0457593 0)
(0.969317 0.04737 0)
(0.942065 0.0399401 0)
(0.929378 0.0294835 0)
(0.923823 0.0186526 0)
(0.925545 0.00115154 0)
(0.92984 -0.0170475 0)
(0.930019 -0.0264512 0)
(0.935522 -0.0238616 0)
(0.948018 -0.00255995 0)
(0.951861 0.0248839 0)
(0.949016 0.045352 0)
(0.943102 0.0563305 0)
(0.937455 0.0607577 0)
(0.932854 0.062805 0)
(0.922705 0.0611431 0)
(0.894291 0.0473897 0)
(0.862823 0.0294307 0)
(0.844058 0.0174575 0)
(0.834191 0.009384 0)
(0.827744 0.002953 0)
(0.822967 -0.00207977 0)
(0.828209 -0.00416688 0)
(0.854324 0.00960161 0)
(0.871652 0.0332957 0)
(0.870236 0.0482296 0)
(0.862859 0.0548071 0)
(0.850949 0.0567481 0)
(0.83167 0.0521638 0)
(0.807855 0.0415644 0)
(0.784339 0.0283557 0)
(0.762766 0.012375 0)
(0.745386 -0.0010965 0)
(0.732791 -0.0104712 0)
(0.724302 -0.0176192 0)
(0.720137 -0.0223202 0)
(0.728283 -0.0260409 0)
(0.745973 -0.026154 0)
(0.751111 -0.026985 0)
(0.744515 -0.0281456 0)
(0.731914 -0.0333271 0)
(0.717174 -0.045035 0)
(0.704463 -0.0552676 0)
(0.688886 -0.0618436 0)
(0.668948 -0.0973779 0)
(-0.167853 -0.167604 0)
(-1.63009 -0.118225 0)
(1.17779 -0.077565 0)
(1.14532 -0.0560797 0)
(1.13394 -0.0548558 0)
(1.12953 -0.0560456 0)
(1.13128 -0.0622278 0)
(1.1537 -0.0875279 0)
(1.17137 -0.106722 0)
(1.17323 -0.108756 0)
(1.16959 -0.1071 0)
(1.16416 -0.103439 0)
(1.14505 -0.0872463 0)
(1.11875 -0.0632917 0)
(1.10029 -0.0499419 0)
(1.09109 -0.0429172 0)
(1.08655 -0.0376618 0)
(1.08337 -0.0333885 0)
(1.08416 -0.0273582 0)
(1.09522 -0.0182536 0)
(1.11629 -0.0162836 0)
(1.13049 -0.023613 0)
(1.13013 -0.0310218 0)
(1.12557 -0.036835 0)
(1.11851 -0.0441933 0)
(1.10688 -0.0486828 0)
(1.08934 -0.0465294 0)
(1.07247 -0.0434896 0)
(1.0618 -0.0441393 0)
(1.05512 -0.0461484 0)
(1.05023 -0.0467475 0)
(1.04505 -0.0431691 0)
(1.04063 -0.0352867 0)
(1.03947 -0.0245956 0)
(1.04563 -0.00749032 0)
(1.0545 0.00935938 0)
(1.05922 0.0163515 0)
(1.06377 0.0117282 0)
(1.06656 0.000941628 0)
(1.06516 -0.00943834 0)
(1.06077 -0.0151945 0)
(1.05577 -0.017073 0)
(1.04707 -0.0192003 0)
(1.02465 -0.0245456 0)
(0.999297 -0.0274902 0)
(0.984104 -0.0278893 0)
(0.977557 -0.0271493 0)
(0.973716 -0.0269642 0)
(0.973181 -0.025601 0)
(0.98915 -0.0129663 0)
(1.01058 0.0141527 0)
(1.01567 0.0330567 0)
(1.01234 0.0434904 0)
(1.00569 0.0512062 0)
(0.993723 0.0560973 0)
(0.972584 0.0529141 0)
(0.950981 0.040299 0)
(0.938561 0.0242985 0)
(0.933742 0.00684202 0)
(0.936009 -0.0113804 0)
(0.937363 -0.0223331 0)
(0.933767 -0.0274835 0)
(0.928333 -0.0275574 0)
(0.922214 -0.0156636 0)
(0.925104 0.0155044 0)
(0.931147 0.0470406 0)
(0.931959 0.0630422 0)
(0.929428 0.0680838 0)
(0.925999 0.0680108 0)
(0.921222 0.06632 0)
(0.905723 0.0563158 0)
(0.875934 0.0329325 0)
(0.853409 0.0116329 0)
(0.841438 -0.00222304 0)
(0.834272 -0.0107622 0)
(0.829117 -0.0156087 0)
(0.826935 -0.0177878 0)
(0.834442 -0.0111178 0)
(0.846589 0.00930152 0)
(0.850191 0.0313768 0)
(0.845728 0.044552 0)
(0.837796 0.0490896 0)
(0.825123 0.0492299 0)
(0.809261 0.0453993 0)
(0.794695 0.0386267 0)
(0.779339 0.0274385 0)
(0.76157 0.010195 0)
(0.745008 -0.00711089 0)
(0.732148 -0.0196682 0)
(0.723231 -0.0289004 0)
(0.720562 -0.0387846 0)
(0.730513 -0.0436753 0)
(0.741088 -0.0422146 0)
(0.740164 -0.0417377 0)
(0.732926 -0.0421983 0)
(0.72324 -0.0461751 0)
(0.715931 -0.049266 0)
(0.707956 -0.0516773 0)