/*--------------------------------*- C++ -*----------------------------------*\
  =========                 |
  \\      /  F ield         | OpenFOAM: The Open Source CFD Toolbox
   \\    /   O peration     | Website:  https://openfoam.org
    \\  /    A nd           | Version:  12
     \\/     M anipulation  |
\*---------------------------------------------------------------------------*/
FoamFile
{
    format      ascii;
    class       volScalarField;
    location    "5.5";
    object      rho;
}
// * * * * * * * * * * * * * * * * * * * * * * * * * * * * * * * * * * * * * //

dimensions      [1 -3 0 0 0 0 0];

internalField   nonuniform List<scalar> 
22702
(
1.40001
1.40001
1.26115
1.40001
1.45566
1.40001
1.83887
1.40001
1.40001
1.03424
1.83806
1.83843
1.40001
1.84134
1.2833
1.40001
1.40001
1.40001
1.83832
1.40001
1.8421
1.40001
1.8407
1.02632
1.84199
1.03572
1.40001
1.83894
1.02563
1.02809
1.40001
1.83856
1.40001
1.40001
1.40001
1.80916
1.84155
1.84038
1.40001
1.40001
1.03424
1.40001
1.6197
1.40001
1.83814
1.40001
1.40001
1.40001
1.40001
1.02535
1.40001
1.02622
1.40001
1.83803
1.40001
1.83849
1.40001
1.40001
1.40001
1.40001
1.03587
1.40001
1.40001
1.02623
1.40001
1.0258
1.40001
1.40001
1.40001
1.03568
1.40001
1.84184
1.67021
1.40001
1.84188
1.86258
1.02549
1.84013
1.02395
1.40001
1.83735
1.02971
1.8395
1.83977
1.40001
1.40001
1.40001
1.40001
1.32773
1.03543
1.83923
1.40001
1.40001
1.03532
1.40001
1.84231
1.0353
1.40001
1.40001
1.40001
1.40001
1.6187
1.83779
1.0359
1.40001
1.40001
1.50847
1.40001
1.02772
1.40001
1.83974
1.83895
1.40001
1.40001
1.02377
1.02574
1.03511
1.40001
1.40001
1.40001
1.40001
1.40001
1.31185
1.40001
1.77979
1.44272
1.83994
1.40001
1.83975
1.83829
1.84128
1.83806
1.40001
1.03566
1.40001
1.035
1.40001
1.40001
1.40001
1.40001
1.83864
1.40001
1.40001
1.40001
1.40001
1.84207
1.40001
1.42647
1.40001
1.40001
1.40001
1.40001
1.02838
1.40001
1.41078
1.40001
1.02342
1.40001
1.40001
1.40001
1.83832
1.40001
1.84167
1.02461
1.03571
1.84135
1.8413
1.40001
1.47053
1.6547
1.40001
1.83844
1.024
1.81015
1.40001
1.40001
1.40001
1.40001
1.84153
1.76501
1.40001
1.83807
1.02525
1.83872
1.40001
1.02578
1.40001
1.02573
1.03599
1.39978
1.40001
1.40001
1.83954
1.40001
1.40001
1.84187
1.40001
1.83946
1.83801
1.03601
1.40001
1.40001
1.02731
1.84187
1.40001
1.40001
1.40001
1.84178
1.40001
1.03361
1.40001
1.40001
1.84165
1.84152
1.83988
1.40001
1.40004
1.40001
1.40001
1.40001
1.8419
1.40001
1.02595
1.85489
1.84181
1.84118
1.40001
1.40001
1.40001
1.0118
1.8412
1.61362
1.40001
1.84331
1.02889
1.03057
1.84335
1.84145
1.40001
1.8467
1.02413
1.79188
1.40001
1.40001
1.40001
1.40001
1.84185
1.40001
1.65774
1.44332
1.40001
1.40001
1.84186
1.03519
1.16509
1.40001
1.84205
1.03513
1.84551
1.40001
1.40001
1.40001
1.40001
1.40001
1.40001
1.40001
1.02593
1.15669
1.03196
1.84179
1.40001
1.40001
1.40001
1.40001
1.79189
1.40001
1.02474
1.40001
1.00728
1.0258
1.84193
1.02697
1.84202
1.40001
1.40001
1.40001
1.39755
1.02564
1.02348
1.4
1.40001
1.00297
1.40001
1.83858
1.03556
1.40001
1.40001
1.83735
1.02379
1.40001
1.8392
1.03579
1.84195
1.40001
1.0124
1.39772
1.40001
1.40001
1.40001
1.02553
1.40001
1.40001
1.40001
1.40002
1.40984
1.67139
1.40001
1.0484
1.40001
1.40001
1.40001
1.40001
1.40001
1.40001
1.40001
1.83794
1.40001
1.83966
1.40001
1.40001
1.40001
1.03711
1.40001
1.84199
1.02656
1.40001
1.75577
1.40001
1.40001
1.83918
1.40001
1.40001
1.40001
1.82902
1.40001
1.40001
1.83691
1.83862
1.40001
1.49449
1.40001
1.40001
1.03496
1.40001
1.40001
1.40001
1.03527
1.40001
1.40001
1.40001
1.40001
1.04061
1.40001
1.40001
1.40001
1.40001
1.40001
1.03416
1.40007
1.84168
1.40001
1.4
1.84156
1.84119
1.40001
1.40001
1.03798
1.2095
1.8378
1.40001
1.40001
1.40001
1.84184
1.03569
1.40001
1.84172
1.40001
1.40001
1.09609
1.09037
1.40001
1.02623
1.03746
1.40001
1.40001
1.40001
1.40001
1.40001
1.40001
1.40001
1.83978
1.50851
1.81516
1.03626
1.30737
1.83826
1.40001
1.84193
1.83821
1.03555
1.17525
1.40001
1.03536
1.40001
1.84989
1.40001
1.40001
1.40001
1.40001
1.84189
1.40001
1.40001
1.40001
1.40001
1.40001
1.40001
1.40001
1.56325
1.83893
1.40001
1.84172
1.40001
1.40001
1.02914
1.40001
1.40001
1.40001
1.40001
1.84168
1.73799
1.40001
1.40001
1.02563
1.84168
1.84157
1.40001
1.84156
1.84177
1.84164
1.40001
1.22983
1.40001
1.84172
1.38657
1.8416
1.40001
1.03487
1.39883
1.83813
1.40001
1.40001
1.40001
1.40001
1.02884
1.84173
1.80024
1.40001
1.84267
1.84187
1.83789
1.40001
1.60713
1.84195
1.40001
1.40001
1.70677
1.46633
1.84167
1.33085
1.84165
1.40001
1.84151
1.84148
1.84151
1.84156
1.40001
1.82787
1.31152
1.28509
1.40001
1.4
1.40001
1.40001
1.84181
1.40001
1.40001
1.40001
1.40001
1.40001
1.83815
1.40001
1.40001
1.3962
1.84156
1.79947
1.40001
1.76396
1.40005
1.40001
1.40001
1.84149
1.40001
1.39684
1.40446
1.40001
1.84139
1.40001
1.84116
1.40001
1.40001
1.728
1.40001
1.8414
1.40003
1.40001
1.8424
1.40001
1.84168
1.40001
1.40001
1.40001
1.8419
1.40001
1.84198
1.40001
1.84184
1.83841
1.84186
1.83995
1.40001
1.83773
1.83573
1.40001
1.02685
1.81465
1.71832
1.40001
1.84189
1.40001
1.03507
1.03601
1.40001
1.40001
1.40001
1.40001
1.40001
1.03549
1.40001
1.84171
1.50904
1.84155
1.40001
1.40001
1.40001
1.40001
1.40001
1.84154
1.40001
1.84503
1.66393
1.17786
1.40001
1.40001
1.53039
1.51415
1.40001
1.40001
1.55602
1.40001
1.02264
1.8419
1.84193
1.40001
1.40001
1.40001
1.8387
1.40001
1.40003
1.84143
1.84157
1.34275
1.40001
1.40001
1.02402
1.80238
1.40001
1.40001
1.40001
1.40001
1.40001
1.84158
1.83785
1.40001
1.84248
1.842
1.84193
1.40001
1.40001
1.40001
1.40001
1.03586
1.83815
1.40001
1.40001
1.80261
1.84043
1.40001
1.8158
1.83894
1.40001
1.40001
1.40001
1.40001
1.40001
1.84145
1.40001
1.40001
1.40001
1.40001
1.84191
1.40001
1.83853
1.03593
1.40001
1.03613
1.40001
1.40001
1.40001
1.39692
1.02774
1.39904
1.40001
1.40001
1.40001
1.45824
1.40001
1.40001
1.26252
1.40001
1.40001
1.40001
1.40001
1.40001
1.40001
1.40001
1.4
1.3289
1.4
1.40001
1.39755
1.40001
1.02818
1.40001
1.40001
1.40001
1.40001
1.73114
1.40001
1.40001
1.40001
1.40001
1.02514
1.40001
1.40001
1.81618
1.8385
1.4
1.40001
1.40001
1.28576
1.40001
1.40001
1.40001
1.40001
1.40001
1.40001
1.34473
1.4102
1.84205
1.40001
1.40001
1.40001
1.84372
1.29473
1.40001
1.40001
1.40001
1.83959
1.83777
1.40001
1.40001
1.40001
1.40001
1.40001
1.40001
1.40001
1.40001
1.40001
1.03695
1.40001
1.40001
1.83893
1.03453
1.40001
1.83874
1.40001
1.02763
1.40001
1.40001
1.03562
1.40001
1.40001
1.40001
1.40001
1.40001
1.40001
1.40001
1.83322
1.84077
1.40001
1.40001
1.40001
1.40001
1.80365
1.40001
1.53973
1.02738
1.40001
1.40001
1.40001
1.40001
1.40001
1.40001
1.40001
1.43086
1.40001
1.40001
1.63842
1.40001
1.40001
1.40001
1.76255
1.40001
1.40001
1.40001
1.40001
1.03617
1.40001
1.40001
1.02558
1.03607
1.40001
1.40001
1.84176
1.40001
1.37529
1.40001
1.40001
1.40001
1.70889
1.02838
1.40001
1.02321
1.40001
1.17705
1.40001
1.40001
1.40001
1.84156
1.40001
1.40001
1.84181
1.40001
1.40001
1.40001
1.84184
1.40001
1.40001
1.84166
1.40001
1.40001
1.03507
1.40001
1.53965
1.40001
1.40001
1.83848
1.83795
1.69494
1.7962
1.40001
1.03574
1.40001
1.40001
1.82215
1.40001
1.03519
1.40001
1.40001
1.40001
1.84201
1.40001
1.40001
1.40001
1.40001
1.66568
1.40001
1.82359
1.83961
1.03555
1.40001
1.40001
1.03654
1.03611
1.40001
1.40001
1.40001
1.71401
1.73543
1.40001
1.40001
1.40001
1.40001
1.40001
1.40001
1.40001
1.58585
1.83851
1.40686
1.40001
1.83661
1.03587
1.40001
1.40001
1.40001
1.64392
1.40001
1.48809
1.40001
1.80361
1.83966
1.40001
1.0341
1.40001
1.83807
1.40001
1.40001
1.84182
1.81437
1.40001
1.84058
1.40001
1.02799
1.40001
1.40001
1.40001
1.83729
1.83327
1.78918
1.40001
1.84222
1.84174
1.40001
1.84248
1.40001
1.8398
1.40001
1.03565
1.3713
1.03497
1.40001
1.40001
1.40001
1.40001
1.40001
1.84173
1.40001
1.84174
1.40001
1.40001
1.40001
1.81968
1.40001
1.02592
1.84185
1.40001
1.0259
1.05213
1.03381
1.40001
1.6173
1.43233
1.84322
1.84183
1.40001
1.4
1.40001
1.40001
1.84168
1.40001
1.40001
1.84161
1.84172
1.40001
1.55385
1.40001
1.40001
1.39684
1.83828
1.24441
1.40001
1.21528
1.02435
1.02372
1.32536
1.84079
1.83569
1.48703
1.84178
1.84198
1.40001
1.40001
1.83785
1.83959
1.84187
1.83748
1.40001
1.84177
1.02647
1.8427
1.84047
1.84213
1.84134
1.25964
1.29317
1.3264
1.84181
1.35376
1.84157
1.40001
1.40001
1.84348
1.84147
1.40001
1.03496
1.84065
1.84178
1.40001
1.84181
1.84185
1.40001
1.84181
1.02576
1.84116
1.83836
1.8382
1.84475
1.40001
1.40001
1.40001
1.84174
1.68724
1.05198
1.84177
1.02856
1.84179
1.40001
1.40001
1.40001
1.40001
1.84121
1.84192
1.40001
1.40001
1.84177
1.03243
1.84195
1.02654
1.40001
1.8387
1.40001
1.03303
1.84301
1.12125
1.40001
1.84184
1.84416
1.84101
1.40001
1.40001
1.61246
1.84345
1.0259
1.84161
1.40001
1.84201
1.27699
1.84163
1.0378
1.40001
1.84261
1.0667
1.8435
1.02832
1.40001
1.84194
1.40001
1.84028
1.40001
1.65884
1.82544
1.74786
1.02388
1.40001
1.84157
1.40001
1.84175
1.40001
1.84191
1.40001
1.40001
1.84167
1.38042
1.84433
1.02929
1.79376
1.40001
1.71223
1.40001
1.84122
1.84177
1.84105
1.40001
1.79745
1.84129
1.80924
1.67132
1.84025
1.40001
1.69297
1.40001
1.84145
1.40001
1.46418
1.40001
1.80999
1.40001
1.84198
1.82117
1.82052
1.40001
1.83737
1.0361
1.40001
1.03601
1.40001
1.40001
1.40001
1.83832
1.40001
1.84234
1.40001
1.40001
1.40001
1.84255
1.831
1.76218
1.84112
1.84288
1.03568
1.84535
1.83789
1.40001
1.78152
1.84171
1.83611
1.40001
1.83813
1.83834
1.40001
1.84692
1.84209
1.84141
1.84295
1.40001
1.40001
1.40001
1.84168
1.03274
1.40001
1.84186
1.40001
1.40001
1.03575
1.40001
1.40001
1.84171
1.84181
1.40001
1.84164
1.84514
1.8419
1.37156
1.84164
1.40001
1.84164
1.84183
1.75331
1.40001
1.40001
1.40001
1.84142
1.84143
1.84203
1.33462
1.40001
1.84779
1.84121
1.84151
1.40001
1.84131
1.84144
1.84177
1.84849
1.40001
1.84175
1.84385
1.78219
1.84229
1.8476
1.40001
1.84429
1.83683
1.84199
1.84207
1.84246
1.0352
1.84177
1.84178
1.40001
1.84152
1.8419
1.84181
1.84189
1.40001
1.84196
1.84156
1.40001
1.8417
1.77116
1.40001
1.40001
1.40001
1.84134
1.84731
1.40001
1.40001
1.64105
1.40001
1.84151
1.40001
1.40001
1.84192
1.84335
1.84186
1.8419
1.40001
1.40001
1.40001
1.70812
1.40001
1.84204
1.40001
1.40001
1.83792
1.83814
1.40001
1.84175
1.02391
1.84188
1.84074
1.10975
1.40001
1.02475
1.78284
1.84091
1.84231
1.84222
1.03544
1.84113
1.84265
1.03504
1.02567
1.40001
1.84258
1.84172
1.40001
1.40001
1.84205
1.40001
1.83976
1.40001
1.78632
1.40001
1.60663
1.84197
1.84395
1.70501
1.79576
1.83826
1.84277
1.81218
1.40001
1.03591
1.84508
1.84165
1.84689
1.40002
1.40001
1.40001
1.84221
1.40001
1.84192
1.84156
1.14506
1.40001
1.842
1.39994
1.40001
1.40003
1.40005
1.84168
1.841
1.39847
1.40001
1.40001
1.8417
1.84367
1.84174
1.84566
1.84117
1.04251
1.78652
1.40001
1.83849
1.84183
1.84184
1.84233
1.40001
1.84167
1.8298
1.8429
1.40001
1.84138
1.84219
1.25357
1.84174
1.84135
1.40001
1.84124
1.23145
1.84157
1.25021
1.84172
1.40001
1.84164
1.84148
1.84176
1.84193
1.84168
1.8391
1.84229
1.84135
1.40001
1.326
1.84157
1.84168
1.23834
1.84173
1.37771
1.68845
1.84158
1.84174
1.84301
1.40001
1.84431
1.68876
1.84333
1.31657
1.84393
1.84852
1.40001
1.26405
1.40001
1.8358
1.40001
1.70356
1.40001
1.82159
1.26835
1.40001
1.84049
1.84377
1.40001
1.8409
1.84341
1.84852
1.84053
1.84775
1.40001
1.83834
1.40001
1.40001
1.40001
1.29105
1.84166
1.84107
1.84086
1.84176
1.84288
1.84156
1.83851
1.84228
1.29256
1.43067
1.40001
1.40001
1.84313
1.84206
1.84168
1.84172
1.40003
1.62597
1.40001
1.8465
1.79248
1.40001
1.40001
1.12574
1.84191
1.40001
1.40001
1.02591
1.84154
1.40001
1.83797
1.84195
1.8381
1.82496
1.84185
1.40001
1.03393
1.5039
1.84186
1.84168
1.40001
1.842
1.84175
1.62365
1.41149
1.49621
1.40001
1.84002
1.84161
1.40001
1.40001
1.03686
1.40001
1.40001
1.84177
1.84191
1.84138
1.84163
1.84155
1.84101
1.84202
1.84073
1.84169
1.40001
1.39621
1.84101
1.84173
1.39694
1.84172
1.84178
1.03644
1.03552
1.84112
1.84069
1.40001
1.40001
1.40151
1.84183
1.84141
1.84153
1.40001
1.8417
1.40001
1.2536
1.8474
1.84355
1.40001
1.59553
1.84147
1.40001
1.83838
1.40001
1.84175
1.68489
1.84071
1.40001
1.84214
1.83637
1.03613
1.84208
1.40001
1.84206
1.83901
1.40001
1.03633
1.84315
1.78408
1.39773
1.82931
1.84188
1.40001
1.39684
1.84056
1.39809
1.84193
1.40001
1.40001
1.84063
1.40001
1.84212
1.84173
1.39642
1.75774
1.40001
1.84174
1.40001
1.40001
1.40001
1.40001
1.84174
1.40001
1.40001
1.84264
1.40001
1.8413
1.40001
1.68321
1.8417
1.84113
1.40001
1.40001
1.39715
1.40001
1.84218
1.842
1.84164
1.84154
1.84193
1.84156
1.84175
1.40001
1.84187
1.84153
1.40001
1.8418
1.84177
1.40001
1.84085
1.32473
1.45849
1.84191
1.84148
1.84185
1.40001
1.84161
1.40001
1.84178
1.84164
1.40001
1.84169
1.40001
1.40001
1.40001
1.40001
1.84177
1.03396
1.39788
1.40001
1.84182
1.84581
1.40001
1.84185
1.40001
1.40554
1.03099
1.84165
1.3996
1.40001
1.84083
1.39836
1.84141
1.40001
1.39978
1.40001
1.8408
1.84503
1.84182
1.84238
1.03057
1.84298
1.84263
1.84179
1.5097
1.40001
1.40001
1.58821
1.84157
1.02585
1.03166
1.40001
1.84205
1.84164
1.84292
1.40001
1.40001
1.84228
1.84205
1.39989
1.40001
1.71626
1.02761
1.40001
1.47926
1.83848
1.84112
1.39826
1.84154
1.84828
1.40001
1.39889
1.40001
1.84048
1.83868
1.57883
1.40001
1.81394
1.40001
1.40198
1.84111
1.03482
1.84149
1.84179
1.39697
1.39992
1.78124
1.40001
1.3997
1.40001
1.84262
1.40001
1.40002
1.02354
1.84174
1.40001
1.40001
1.40001
1.40001
1.8443
1.6503
1.40001
1.40001
1.03521
1.84186
1.65229
1.40001
1.40001
1.40001
1.82122
1.8264
1.84303
1.40001
1.40001
1.84684
1.40001
1.84192
1.8416
1.40001
1.40001
1.84335
1.84133
1.81989
1.40001
1.40001
1.84349
1.84277
1.40001
1.40001
1.40001
1.8428
1.40001
1.40001
1.40001
1.84191
1.84294
1.84424
1.40001
1.8449
1.40004
1.09374
1.84161
1.84146
1.40001
1.84209
1.83116
1.83818
1.40001
1.40001
1.84483
1.40001
1.64582
1.84088
1.40001
1.03619
1.40001
1.84356
1.40001
1.40001
1.84361
1.40001
1.40001
1.40001
1.54449
1.84102
1.06372
1.40002
1.84292
1.40001
1.40001
1.84198
1.40001
1.84503
1.40001
1.40001
1.84164
1.84184
1.40001
1.40006
1.40001
1.40001
1.40001
1.40001
1.40001
1.40001
1.83972
1.84176
1.40001
1.83826
1.03461
1.84016
1.40001
1.84216
1.84747
1.84173
1.83874
1.83846
1.40001
1.40001
1.84353
1.40001
1.67276
1.84596
1.84179
1.40001
1.84433
1.83846
1.40001
1.79289
1.40001
1.84209
1.68705
1.84378
1.39749
1.83469
1.80057
1.84287
1.84235
1.43604
1.84188
1.84484
1.40001
1.84165
1.40001
1.84179
1.40001
1.40001
1.40001
1.40001
1.39661
1.84158
1.84199
1.76871
1.40001
1.84422
1.40001
1.40001
1.40001
1.02364
1.40001
1.83143
1.40001
1.80119
1.82995
1.40001
1.40001
1.40001
1.8112
1.83812
1.40001
1.40001
1.84179
1.03383
1.47413
1.40001
1.84552
1.84159
1.80289
1.83073
1.84178
1.40001
1.8432
1.40001
1.40001
1.40001
1.40001
1.84322
1.84207
1.40001
1.83099
1.45095
1.8412
1.81268
1.40001
1.40001
1.81353
1.40001
1.40001
1.03154
1.71116
1.40001
1.40001
1.84011
1.40001
1.84524
1.8025
1.40001
1.80149
1.03398
1.84114
1.84146
1.8424
1.40001
1.028
1.40001
1.40001
1.40001
1.84175
1.76024
1.40001
1.84794
1.84172
1.40001
1.84154
1.40001
1.40001
1.40001
1.40001
1.84176
1.39935
1.40001
1.8435
1.40001
1.40001
1.84417
1.84201
1.40001
1.84463
1.4853
1.40003
1.40001
1.8415
1.40001
1.84157
1.40001
1.41506
1.84166
1.40001
1.84158
1.40001
1.40001
1.53921
1.84165
1.40001
1.40001
1.40001
1.40001
1.40001
1.39656
1.03454
1.03711
1.42117
1.40001
1.4188
1.40001
1.42015
1.40001
1.84165
1.40001
1.67135
1.40001
1.84163
1.40001
1.40001
1.40001
1.84157
1.40001
1.74693
1.84212
1.40001
1.63429
1.84224
1.40001
1.40001
1.83874
1.84148
1.40001
1.40001
1.44724
1.02435
1.40001
1.84263
1.40001
1.40001
1.40001
1.40001
1.475
1.84195
1.40001
1.40001
1.40001
1.03229
1.40001
1.84164
1.8417
1.84525
1.40001
1.40001
1.40001
1.40001
1.62248
1.84657
1.40001
1.40001
1.40001
1.84461
1.84165
1.44802
1.40001
1.40001
1.40001
1.84143
1.84175
1.40001
1.03691
1.84182
1.84191
1.84127
1.84233
1.84075
1.40001
1.40001
1.84635
1.84121
1.84171
1.02832
1.44107
1.84156
1.40001
1.40001
1.40001
1.40001
1.40001
1.84186
1.03357
1.40001
1.40001
1.84164
1.59782
1.40001
1.84657
1.40001
1.40001
1.40001
1.03152
1.40001
1.40001
1.51333
1.84185
1.84214
1.40001
1.8403
1.84511
1.40001
1.47235
1.40001
1.84607
1.40001
1.84186
1.03466
1.40001
1.40001
1.40001
1.40001
1.84163
1.40007
1.40001
1.40001
1.40001
1.82655
1.40001
1.40001
1.40001
1.40001
1.84183
1.0333
1.75175
1.84426
1.40001
1.8412
1.40001
1.40001
1.40001
1.39714
1.40001
1.84348
1.40001
1.2082
1.40001
1.40001
1.40004
1.84182
1.03195
1.40001
1.84084
1.40001
1.8419
1.84184
1.03185
1.40001
1.40001
1.82923
1.40001
1.40001
1.02641
1.40001
1.8405
1.40001
1.82232
1.39932
1.84211
1.40001
1.40001
1.40001
1.40001
1.83905
1.40001
1.40001
1.84161
1.40001
1.40001
1.40001
1.40001
1.40001
1.40001
1.40001
1.40001
1.68882
1.40001
1.54732
1.84132
1.40001
1.40001
1.40001
1.03418
1.40001
1.40001
1.40001
1.40001
1.84186
1.84162
1.45299
1.40001
1.40001
1.84282
1.40001
1.40001
1.84173
1.40001
1.40002
1.40001
1.40001
1.40001
1.40002
1.84178
1.1819
1.84162
1.84346
1.39706
1.40001
1.40001
1.40001
1.66121
1.40001
1.40001
1.8409
1.84136
1.40001
1.40001
1.40001
1.40001
1.03257
1.40001
1.40001
1.40001
1.67938
1.40001
1.84168
1.84504
1.40001
1.84309
1.40001
1.40001
1.40001
1.63854
1.40001
1.83864
1.40001
1.84176
1.40001
1.40001
1.39608
1.84167
1.40001
1.40001
1.40001
1.40001
1.40001
1.84183
1.40003
1.40001
1.02898
1.84461
1.02839
1.40001
1.84184
1.40001
1.39597
1.40001
1.84284
1.84349
1.40001
1.83445
1.27635
1.84167
1.84535
1.40004
1.40001
1.40001
1.03356
1.40001
1.40001
1.40001
1.84177
1.65708
1.84109
1.40001
1.40001
1.40001
1.40001
1.39675
1.84224
1.40001
1.03609
1.40001
1.40001
1.40001
1.40001
1.40001
1.40001
1.40001
1.84732
1.84277
1.84039
1.40001
1.40001
1.39689
1.40001
1.37496
1.40001
1.40001
1.40001
1.03492
1.37412
1.40001
1.03574
1.03334
1.40001
1.84238
1.84175
1.40001
1.84284
1.84169
1.03459
1.69036
1.40001
1.40001
1.40001
1.03708
1.84218
1.40001
1.03503
1.40001
1.84112
1.47701
1.40001
1.40001
1.40001
1.40001
1.84177
1.83912
1.40001
1.40001
1.84197
1.40001
1.40001
1.83973
1.84197
1.40001
1.81974
1.84209
1.83955
1.36118
1.84108
1.40877
1.03411
1.73985
1.84125
1.40001
1.40001
1.40001
1.03492
1.40001
1.03413
1.84539
1.35755
1.8415
1.34962
1.40001
1.84227
1.60295
1.40001
1.40001
1.84072
1.40001
1.58139
1.84202
1.40001
1.40001
1.83819
1.84036
1.03432
1.65514
1.3999
1.40001
1.67277
1.40001
1.84666
1.34009
1.85016
1.84016
1.40001
1.40001
1.40001
1.40001
1.83254
1.40001
1.40001
1.8427
1.39965
1.84167
1.75526
1.84235
1.0337
1.40001
1.40001
1.40001
1.40001
1.84157
1.40005
1.84161
1.40001
1.84126
1.84057
1.45646
1.84132
1.53901
1.84148
1.40001
1.70132
1.06149
1.84443
1.84162
1.75643
1.47717
1.83953
1.84166
1.84166
1.84281
1.40001
1.30829
1.4653
1.40001
1.8414
1.60978
1.84168
1.40004
1.40001
1.40001
1.07212
1.84124
1.83981
1.75885
1.40001
1.568
1.40001
1.84508
1.84535
1.40001
1.84228
1.84026
1.40001
1.40001
1.40001
1.84225
1.40001
1.57502
1.84054
1.70567
1.40001
1.84125
1.40001
1.40001
1.40001
1.40001
1.40001
1.40001
1.40001
1.40001
1.40001
1.40001
1.05767
1.40001
1.81108
1.03556
1.66008
1.39857
1.84144
1.40001
1.63354
1.40002
1.68432
1.77868
1.40001
1.40226
1.84588
1.30925
1.40001
1.84398
1.84075
1.33998
1.40001
1.84181
1.84164
1.84403
1.40001
1.84184
1.84251
1.8428
1.40001
1.59979
1.40001
1.40006
1.84159
1.40001
1.84142
1.46541
1.84148
1.40001
1.40001
1.84076
1.84409
1.06683
1.40001
1.84158
1.73253
1.84081
1.40001
1.40001
1.83946
1.84135
1.39825
1.40001
1.78714
1.39695
1.84173
1.40007
1.40001
1.40001
1.40001
1.40001
1.59941
1.40001
1.74678
1.84169
1.73029
1.84227
1.40001
1.40267
1.40001
1.40001
1.83994
1.40001
1.84309
1.40001
1.40001
1.40001
1.40001
1.4
1.40001
1.45563
1.62999
1.40001
1.40001
1.03294
1.40001
1.8405
1.06291
1.84487
1.40001
1.61779
1.39976
1.84114
1.68341
1.03794
1.64263
1.40004
1.84189
1.84131
1.40001
1.66933
1.84403
1.84253
1.3984
1.83866
1.82959
1.03647
1.40001
1.40001
1.39782
1.40001
1.83618
1.40001
1.04782
1.84252
1.40001
1.40001
1.79067
1.40001
1.84185
1.40001
1.84224
1.40001
1.07153
1.40001
1.40001
1.84166
1.83671
1.84447
1.40001
1.8432
1.84172
1.84138
1.40001
1.40001
1.83116
1.4
1.12209
1.40001
1.40001
1.40001
1.84154
1.40001
1.84164
1.68746
1.84311
1.40001
1.84161
1.39939
1.40001
1.40001
1.40001
1.40001
1.40001
1.40001
1.10422
1.40001
1.40001
1.84171
1.40001
1.8452
1.84033
1.40001
1.03273
1.03497
1.40001
1.8433
1.4781
1.03375
1.00675
1.40001
1.84248
1.40001
1.84384
1.03657
1.40155
1.40001
1.40001
1.39952
1.40001
1.40001
1.40001
1.39992
1.58185
1.84136
1.40001
1.40001
1.8428
1.66183
1.40001
1.80777
1.84216
1.84176
1.58217
1.83957
1.40001
1.84189
1.40001
1.83038
1.40001
1.84234
1.84075
1.39668
1.84316
1.84098
1.40001
1.40001
1.40001
1.40001
1.40001
1.31314
1.83906
1.40005
1.40003
1.03228
1.39999
1.03492
1.02852
1.40001
1.84163
1.84159
1.84166
1.40001
1.84185
1.40001
1.03613
1.40001
1.40001
1.84299
1.22465
1.8411
1.40001
1.84238
1.40001
1.37965
1.84169
1.40001
1.40001
1.40001
1.84397
1.40001
1.84172
1.03417
1.40001
1.40001
1.65807
1.40001
1.40001
1.64149
1.40001
1.40001
1.8409
1.40001
1.40001
1.40001
1.40001
1.40001
1.8459
1.84167
1.40001
1.84112
1.84259
1.03694
1.60324
1.84355
1.40001
1.40001
1.79811
1.39903
1.40001
1.40001
1.84189
1.84208
1.68789
1.40001
1.84164
1.03539
1.80812
1.3996
1.40001
1.84211
1.40004
1.84309
1.77854
1.73823
1.40001
1.40001
1.84152
1.10843
1.03209
1.40001
1.84173
1.40001
1.84124
1.40001
1.66396
1.40001
1.40001
1.84073
1.68375
1.03729
1.40001
1.39807
1.40001
1.40001
1.42639
1.58126
1.84157
1.40001
1.84561
1.40001
1.40001
1.40001
1.40001
1.40001
1.40001
1.46665
1.03527
1.40001
1.40001
1.42898
1.40001
1.40001
1.40001
1.40001
1.40001
1.84108
1.40001
1.40001
1.84183
1.84146
1.71621
1.40001
1.40001
1.40001
1.22581
1.84417
1.70785
1.40001
1.40001
1.40001
1.40001
1.84165
1.40001
1.40001
1.40001
1.84268
1.40001
1.40001
1.71796
1.8568
1.43178
1.14213
1.84044
1.71235
1.84042
1.40001
1.62224
1.40001
1.40001
1.40001
1.03463
1.40255
1.02876
1.40001
1.03682
1.02234
1.40001
1.03783
1.40001
1.40001
1.40001
1.59652
1.40001
1.84175
1.84121
1.40145
1.61574
1.7723
1.03405
1.1558
1.27987
1.40001
1.8415
1.83954
1.84148
1.84172
1.77888
1.26909
1.40001
1.7821
1.40001
1.82327
1.40001
1.40001
1.39645
1.4093
1.40001
1.40001
1.40001
1.8407
1.40001
1.03396
1.40001
1.84281
1.02759
1.40001
1.40001
1.8417
1.40001
1.84157
1.39937
1.40001
1.40001
1.84259
1.80775
1.40001
1.85457
1.40001
1.40001
1.41463
1.40001
1.59837
1.40001
1.40001
1.03684
1.40001
1.40001
1.84265
1.4
1.84168
1.40001
1.40004
1.0315
1.40001
1.40001
1.02736
1.40082
1.40001
1.84008
1.0349
1.84165
1.03687
1.84153
1.40001
1.40001
1.40001
1.40001
1.40001
1.40001
1.40001
1.40001
1.40001
1.40001
1.40001
1.82362
1.40001
1.84344
1.83929
1.03512
1.40001
1.40001
1.40001
1.40001
1.40001
1.40001
1.8295
1.40001
1.40001
1.03624
1.40001
1.40001
1.83967
1.40001
1.40001
1.57016
1.77064
1.03453
1.03681
1.09158
1.12689
1.40001
1.39657
1.02887
1.40026
1.80374
1.39689
1.40001
1.40001
1.84165
1.40001
1.40001
1.40001
1.16052
1.40002
1.56079
1.40001
1.40001
1.58258
1.84187
1.40001
1.03682
1.40001
1.40001
1.40001
1.39677
1.40001
1.84044
1.84169
1.40001
1.03658
1.40001
1.63956
1.03572
1.40001
1.28089
1.40001
1.39615
1.02167
1.40001
1.40001
1.40001
1.39599
1.03372
1.40001
1.03674
1.39843
1.6334
1.7948
1.03692
1.03067
1.40001
1.3909
1.40001
1.39865
1.40001
1.84087
1.84181
1.40001
1.41189
1.84165
1.84202
1.40001
1.40001
1.84169
1.40001
1.40001
1.40005
1.40001
1.84295
1.40001
1.40001
1.41806
1.40001
1.39858
1.08509
1.40001
1.40001
1.40001
1.40001
1.40001
1.84495
1.42903
1.40006
1.40001
1.40001
1.40001
1.40001
1.40001
1.40004
1.40001
1.0367
1.49533
1.39862
1.83807
1.84042
1.40001
1.41524
1.84174
1.78397
1.40001
1.40001
1.03172
1.8419
1.40001
1.8398
1.40001
1.84126
1.70553
1.03389
1.40001
1.03546
1.8198
1.39968
1.40001
1.03506
1.03513
1.40001
1.40001
1.77305
1.40001
1.4
1.02869
1.40001
1.40001
1.40001
1.54485
1.40001
1.03574
1.84252
1.40001
1.40001
1.40001
1.40001
1.84217
1.40001
1.40001
1.83966
1.79606
1.40001
1.40001
1.40001
1.84503
1.02951
1.40001
1.84143
1.84195
1.40001
1.75387
1.4
1.40003
1.40001
1.40001
1.82221
1.41156
1.40001
1.02884
1.64295
1.40001
1.40001
1.39754
1.40001
1.40001
1.84447
1.40001
1.40001
1.40004
1.40001
1.8403
1.40001
1.40001
1.40001
1.40001
1.40001
1.40001
1.40002
1.59332
1.40001
1.84282
1.40001
1.40001
1.84319
1.40001
1.40001
1.40001
1.84174
1.84029
1.4447
1.40001
1.39762
1.40001
1.40001
1.40001
1.40001
1.8394
1.40001
1.40001
1.84173
1.03512
1.40001
1.40001
1.40001
1.40001
1.40001
1.40001
1.75797
1.40001
1.40001
1.8408
1.84165
1.40001
1.40001
1.40001
1.84099
1.84124
1.40001
1.39973
1.83814
1.40001
1.40001
1.40001
1.40002
1.02986
1.42923
1.39618
1.3959
1.40001
1.40001
1.0319
1.84136
1.40001
1.03734
1.40001
1.84052
1.82384
1.03399
1.39941
1.84142
1.84059
1.84143
1.40001
1.40001
1.31919
1.80117
1.7713
1.03684
1.40001
1.40001
1.40001
1.84247
1.84196
1.0358
1.39731
1.40001
1.84172
1.03269
1.40001
1.83086
1.0366
1.3687
1.40663
1.40001
1.84191
1.40001
1.40001
1.40001
1.40001
1.40001
1.40001
1.40011
1.81166
1.40001
1.40001
1.84571
1.40001
1.40001
1.40001
1.84173
1.40001
1.03516
1.40001
1.40001
1.40001
1.55558
1.40001
1.40001
1.40001
1.40001
1.40001
1.18047
1.40001
1.03107
1.40001
1.842
1.40006
1.26175
1.2652
1.40002
1.40507
1.63215
1.40001
1.40001
1.03509
1.84171
1.84203
1.84176
1.40001
1.02904
1.02724
1.40001
1.84144
1.40001
1.40001
1.40001
1.40001
1.40001
1.40003
1.40001
1.03133
1.68632
1.40001
1.40001
1.03441
1.3873
1.40001
1.40001
1.40001
1.40001
1.02162
1.40001
1.07722
1.40001
1.40001
1.84625
1.40001
1.40001
1.03536
1.40001
1.84171
1.40001
1.03429
1.40001
1.03677
1.40001
1.40784
1.84189
1.85236
1.40001
1.40001
1.83983
1.40001
1.40001
1.49513
1.39687
1.40001
1.39816
1.40001
1.84401
1.40001
1.02931
1.40002
1.8364
1.39883
1.40001
1.40001
1.19107
1.40001
1.39902
1.03525
1.84296
1.56021
1.40001
1.40001
1.3042
1.40001
1.40001
1.40001
1.18447
1.40001
1.40001
1.40001
1.84164
1.40001
1.0337
1.4
1.40001
1.40001
1.40001
1.02728
1.84172
1.8066
1.03681
1.40001
1.8464
1.40001
1.40001
1.84161
1.84041
1.77229
1.02636
1.39771
1.39924
1.40001
1.84174
1.40001
1.40001
1.40001
1.40001
1.84101
1.40004
1.40001
1.40001
1.83976
1.40001
1.40001
1.84198
1.03698
1.40001
1.40001
1.40001
1.03299
1.40001
1.4
1.4
1.39864
1.40001
1.40001
1.40001
1.40001
1.74379
1.40001
1.83956
1.84146
1.84976
1.8417
1.84173
1.84182
1.40001
1.84234
1.40001
1.84159
1.84168
1.40001
1.39885
1.03639
1.77832
1.39991
1.40001
1.40001
1.40001
1.40001
1.39645
1.40001
1.47106
1.40001
1.40001
1.40001
1.24361
1.84199
1.84085
1.84177
1.7749
1.39988
1.40001
1.42313
1.84238
1.39791
1.45675
1.39703
1.035
1.40001
1.40003
1.40001
1.40001
1.40001
1.40001
1.40001
1.84111
1.03395
1.84121
1.84189
1.3951
1.03582
1.40001
1.40001
1.40001
1.84221
1.03593
1.79038
1.02535
1.84171
1.84327
1.03701
1.84112
1.42483
1.40001
1.84447
1.18927
1.40001
1.39876
1.03558
1.40001
1.03465
1.40001
1.84183
1.84181
1.14134
1.40001
1.8403
1.03468
1.40001
1.03794
1.40001
1.84171
1.40001
1.40001
1.84276
1.40001
1.23305
1.40001
1.39969
1.03396
1.84333
1.39949
1.40001
1.03585
1.40001
1.40001
1.40001
1.40001
1.63654
1.40001
1.84216
1.40001
1.40001
1.84634
1.40001
1.40001
1.84137
1.40001
1.03243
1.40001
1.02816
1.40002
1.40001
1.40001
1.40001
1.40001
1.82308
1.65723
1.84166
1.40001
1.84179
1.81132
1.02033
1.03548
1.40001
1.40001
1.84248
1.40001
1.03374
1.40001
1.38487
1.40001
1.40001
1.84157
1.40001
1.8437
1.03653
1.84878
1.40001
1.03501
1.40001
1.40001
1.84091
1.84012
1.40001
1.40005
1.40001
1.84169
1.40001
1.40001
1.03041
1.39941
1.03331
1.40001
1.40001
1.40001
1.84348
1.84471
1.83999
1.40001
1.40001
1.03633
1.40001
1.84504
1.40001
1.40001
1.40001
1.82702
1.84192
1.84171
1.03593
1.8437
1.84161
1.04446
1.83985
1.40005
1.04382
1.41233
1.40001
1.40001
1.84129
1.03562
1.68241
1.03569
1.84161
1.39743
1.03411
1.84369
1.40001
1.40001
1.40001
1.40001
1.84204
1.84012
1.03749
1.40001
1.40003
1.03641
1.40004
1.40001
1.03952
1.03052
1.71051
1.84197
1.39847
1.84171
1.40001
1.84754
1.21339
1.03401
1.84184
1.85079
1.40001
1.84173
1.40001
1.40001
1.84176
1.40001
1.73597
1.83973
1.40001
1.40001
1.40001
1.40001
1.84162
1.83661
1.84116
1.40001
1.40001
1.84287
1.8384
1.8414
1.40001
1.84168
1.40001
1.40001
1.40001
1.40001
1.40001
1.03548
1.2404
1.0365
1.40001
1.40001
1.84199
1.40001
1.40001
1.84253
1.02578
1.40001
1.8418
1.83683
1.82235
1.02238
1.40001
1.03567
1.40001
1.40003
1.84024
1.60728
1.83905
1.80443
1.40001
1.0374
1.40001
1.84008
1.71634
1.03211
1.40001
1.40001
1.40001
1.19692
1.40001
1.40001
1.84755
1.40001
1.03068
1.8417
1.40001
1.40001
1.40001
1.40001
1.40001
1.75624
1.49709
1.40001
1.8416
1.40001
1.8428
1.40001
1.39719
1.40001
1.8418
1.84095
1.84066
1.84553
1.39958
1.83928
1.40001
1.84159
1.84081
1.77487
1.40001
1.40001
1.03504
1.84005
1.40001
1.40001
1.84421
1.84174
1.84332
1.40001
1.84174
1.40001
1.40001
1.40004
1.84137
1.84254
1.52847
1.49277
1.84132
1.84237
1.08047
1.40001
1.40001
1.40001
1.40001
1.40002
1.5566
1.40001
1.40001
1.77331
1.03082
1.39998
1.40001
1.84164
1.3999
1.39981
1.46944
1.80916
1.83912
1.30789
1.40001
1.03452
1.40001
1.39793
1.84203
1.84448
1.84192
1.39901
1.40001
1.40001
1.03423
1.40001
1.40001
1.84199
1.4483
1.40001
1.40001
1.40001
1.40001
1.40001
1.40001
1.40001
1.39994
1.84073
1.40002
1.40001
1.40001
1.40001
1.40001
1.68049
1.40001
1.60805
1.40001
1.40001
1.84169
1.84653
1.03184
1.39875
1.40001
1.4
1.40001
1.03766
1.83977
1.84166
1.40001
1.40001
1.40001
1.40001
1.40001
1.40001
1.40001
1.40001
1.84138
1.83823
1.034
1.45001
1.03223
1.40001
1.02761
1.40001
1.84135
1.5226
1.40001
1.40001
1.10242
1.40001
1.82283
1.20055
1.39671
1.03573
1.40001
1.40001
1.83813
1.40005
1.39724
1.01543
1.83951
1.84113
1.40001
1.40001
1.40001
1.40001
1.81289
1.40001
1.40001
1.84183
1.39895
1.84107
1.40008
1.40001
1.40001
1.03541
1.40001
1.40001
1.8421
1.03232
1.17049
1.03117
1.84173
1.39932
1.40001
1.84496
1.03717
1.03585
1.41145
1.40001
1.40001
1.83978
1.40005
1.60538
1.40001
1.40001
1.83958
1.03639
1.40001
1.40001
1.40014
1.84038
1.40016
1.83804
1.40001
1.40004
1.40001
1.40001
1.11193
1.40001
1.17762
1.40002
1.40001
1.84152
1.0367
1.40001
1.17416
1.18905
1.40001
1.40001
1.84181
1.40001
1.40001
1.40001
1.84163
1.84156
1.40006
1.83706
1.8394
1.17707
1.84188
1.8201
1.40001
1.40001
1.84255
1.4
1.40001
1.40001
1.40001
1.40001
1.84604
1.84192
1.40001
1.40001
1.40001
1.84162
1.40021