/*--------------------------------*- C++ -*----------------------------------*\
  =========                 |
  \\      /  F ield         | OpenFOAM: The Open Source CFD Toolbox
   \\    /   O peration     | Website:  https://openfoam.org
    \\  /    A nd           | Version:  12
     \\/     M anipulation  |
\*---------------------------------------------------------------------------*/
FoamFile
{
    format      ascii;
    class       volScalarField;
    location    "5.5";
    object      T;
}
// * * * * * * * * * * * * * * * * * * * * * * * * * * * * * * * * * * * * * //

dimensions      [0 0 0 1 0 0 0];

internalField   nonuniform List<scalar> 
22702
(
1
1
0.961355
1
1.0181
1
1.12051
1
1
0.890578
1.12064
1.12064
1
1.11847
0.968057
1
1
1
1.12049
1
1.11866
1
1.11902
0.897306
1.11864
0.888782
1
1.11976
0.896868
0.897344
1
1.12055
1
1
1
1.1106
1.11855
1.11919
1
1
0.890342
1
1.06252
1
1.1198
1
1
1
1
0.897186
1
0.896435
1
1.12052
1
1.12069
1
1
1
1
0.88896
1
1
0.896483
1
0.896764
1
1
1
0.889601
1
1.11873
1.07568
1
1.11876
1.12537
0.897378
1.11969
0.898994
1
1.12074
0.896991
1.11979
1.11967
1
1
1
1
0.981356
0.889805
1.12089
1
1
0.889515
1
1.11872
0.889319
1
1
1
1
1.06224
1.12056
0.888847
1
1
1.03279
1
0.897019
1
1.11983
1.12062
1
1
0.884466
0.885144
0.889837
1
1
1
1
1
0.976593
1
1.1034
1.01448
1.11968
1
1.1198
1.12069
1.11847
1.12086
1
0.889624
1
0.889721
1
1
1
1
1.12079
1
1
1
1
1.11884
1
1.00757
1
1
1
1
0.897436
1
1.00312
1
0.899733
1
1
1
1.12052
1
1.11868
0.884719
0.888883
1.11887
1.11875
1
1.02227
1.07163
1
1.12065
0.899261
1.11083
1
1
1
1
1.11851
1.09985
1
1.1205
0.897172
1.12058
1
0.899019
1
0.89789
0.888882
0.999936
1
1
1.12046
1
1
1.11859
1
1.11975
1.12048
0.898503
1
1
0.897299
1.11856
1
1
1
1.11854
1
0.891281
1
1
1.11852
1.11854
1.11969
1
1.00001
1
1
1
1.11858
1
0.896728
1.12374
1.11856
1.11834
1
1
1
0.891997
1.1184
1.05834
1
1.11893
0.894756
0.893806
1.11893
1.1184
1
1.11979
0.884583
1.10638
1
1
1
1
1.11855
1
1.07119
1.01247
1
1
1.11856
0.889052
0.931438
1
1.11866
0.889652
1.11973
1
1
1
1
1
1
1
0.89511
0.928703
0.891688
1.1186
1
1
1
1
1.10894
1
0.897382
1
0.890374
0.898474
1.11858
0.896561
1.11864
1
1
1
0.999305
0.897849
0.884351
1
1
0.887473
1
1.1206
0.888723
1
1
1.12076
0.884408
1
1.11795
0.888862
1.11859
1
0.893628
0.999348
1
1
1
0.89651
1
1
1
1
1.00516
1.07597
1
0.892926
1
1
1
1
1
1
1
1.12078
1
1.12119
1
1
1
0.889209
1
1.11879
0.896498
1
1.09713
1
1
1.12088
1
1
1
1.11842
1
1
1.11885
1.12082
1
1.02894
1
1
0.889532
1
1
1
0.88985
1
1
1
1
0.890257
1
1
1
1
1
0.888168
1.00002
1.11869
1
0.999998
1.11872
1.11901
1
1
0.900503
0.945378
1.1207
1
1
1
1.11856
0.889416
1
1.11869
1
1
0.909067
0.907206
1
0.897655
0.889347
1
1
1
1
1
1
1
1.11979
1.03276
1.11244
0.888908
0.975429
1.12105
1
1.11883
1.12064
0.89004
0.934664
1
0.889897
1
1.12472
1
1
1
1
1.11856
1
1
1
1
1
1
1
1.04761
1.11999
1
1.11858
1
1
0.898577
1
1
1
1
1.11853
1.09291
1
1
0.89834
1.11857
1.1185
1
1.11849
1.11858
1.11856
1
0.951725
1
1.11854
0.998505
1.11856
1
0.89008
0.999666
1.12065
1
1
1
1
0.89519
1.11851
1.10841
1
1.11877
1.11857
1.12052
1
1.05895
1.11852
1
1
1.08501
1.01892
1.11855
0.982283
1.11855
1
1.11853
1.11851
1.11853
1.11857
1
1.11518
0.976504
0.9687
1
1
1
1
1.11832
1
1
1
1
1
1.12054
1
1
0.998911
1.11849
1.10862
1
1.09913
1.00001
1
1
1.1186
1
0.999077
1.00127
1
1.11847
1
1.11844
1
1
1.09041
1
1.11849
1.00001
1
1.11875
1
1.11852
1
1
1
1.11857
1
1.11838
1
1.11855
1.12072
1.11859
1.11961
1
1.12073
1.11737
1
0.897965
1.11196
1.08801
1
1.11857
1
0.889185
0.888918
1
1
1
1
1
0.889053
1
1.11859
1.03287
1.11858
1
1
1
1
1
1.11853
1
1.11935
1.07404
0.935459
1
1
1.03731
1.03224
1
1
1.0456
1
0.90007
1.11856
1.11857
1
1
1
1.12069
1
1.00001
1.11849
1.11849
0.985734
1
1
0.896787
1.10894
1
1
1
1
1
1.11851
1.12074
1
1.11878
1.1186
1.1186
1
1
1
1
0.888836
1.12069
1
1
1.109
1.11826
1
1.11223
1.12002
1
1
1
1
1
1.11847
1
1
1
1
1.11867
1
1.11673
0.889185
1
0.88916
1
1
1
0.999115
0.897283
0.999724
1
1
1
1.01719
1
1
0.961723
1
1
1
1
1
1
1
0.999999
0.981651
1
1
0.9993
1
0.895657
1
1
1
1
1.09121
1
1
1
1
0.897366
1
1
1.11234
1.12055
1
1
1
0.968711
1
1
1
1
1
1
0.986301
1.00534
1.11862
1
1
1
1.11912
0.971505
1
1
1
1.11962
1.11923
1
1
1
1
1
1
1
1
1
0.8892
1
1
1.11982
0.890532
1
1.11962
1
0.898577
1
1
0.888822
1
1
1
1
1
1
1
1.1165
1.11833
1
1
1
1
1.10927
1
1.04127
0.89715
1
1
1
1
1
1
1
1.01119
1
1
1.06777
1
1
1
1.09913
1
1
1
1
0.889501
1
1
0.885266
0.889672
1
1
1.11854
1
1.00382
1
1
1
1.08557
0.886157
1
0.884338
1
0.935289
1
1
1
1.1189
1
1
1.1186
1
1
1
1.11861
1
1
1.11853
1
1
0.890069
1
1.04124
1
1
1.12101
1.12091
1.08203
1.1074
1
0.889951
1
1
1.11379
1
0.888681
1
1
1
1.11864
1
1
1
1
1.0745
1
1.11341
1.11851
0.88982
1
1
0.889045
0.888892
1
1
1
1.08685
1.09227
1
1
1
1
1
1
1
1.05359
1.1205
1.00427
1
1.11727
0.889348
1
1
1
1.06889
1
1.02549
1
1.10924
1.11802
1
0.890216
1
1.12084
1
1
1.11867
1.11187
1
1.1214
1
0.895147
1
1
1
1.11829
1.11651
1.10569
1
1.11959
1.11858
1
1.11876
1
1.11805
1
0.889596
0.994066
0.888531
1
1
1
1
1
1.11853
1
1.11853
1
1
1
1.11319
1
0.897477
1.11861
1
0.897688
0.894309
0.887979
1
1.06194
1.0116
1.11892
1.1186
1
1
1
1
1.11857
1
1
1.11855
1.11857
1
1.04504
0.999996
1
0.999096
1.12046
0.956334
1
0.94732
0.900385
0.899999
0.989067
1.1189
1.11706
1.02686
1.11861
1.11864
1
1
1.12066
1.12045
1.11857
1.12084
1
1.11853
0.896974
1.11869
1.11855
1.12012
1.11865
0.960889
0.971025
0.980923
1.11856
0.989076
1.11859
1
1
1.11896
1.1186
1
0.889953
1.1189
1.11858
1
1.11856
1.11857
1
1.11859
0.897133
1.11833
1.12059
1.12085
1.11895
1
1
1
1.11856
1.08004
0.894147
1.11859
0.886325
1.11856
1
1
1
1
1.11853
1.11862
1
1
1.11859
0.88765
1.11881
0.897644
1
1.1178
1
0.891348
1.11888
0.91732
1
1.1186
1.11917
1.11836
1
1
1.06037
1.11899
0.898306
1.1185
1
1.1186
0.966205
1.1185
0.889494
1
1.11876
0.899194
1.11896
0.897924
1
1.11862
1
1.11935
1
1.0727
1.11461
1.0954
0.884552
1
1.11872
1
1.11855
1
1.11858
1
1
1.11865
0.996743
1.1192
0.894172
1.10565
1
1.08648
1
1.11874
1.11855
1.11862
1
1.10772
1.11853
1.1106
1.07595
1.11892
1
1.08149
1
1.11864
1
1.0205
1
1.1108
1
1.1186
1.11355
1.1134
1
1.11734
0.888928
1
0.889393
1
1
1
1.12055
1
1.11869
1
1
1
1.11877
1.11591
1.09853
1.1184
1.11874
0.889109
1.11909
1.12072
1
1.10338
1.11856
1.11783
1
1.12081
1.12087
1
1.12004
1.11877
1.11866
1.11887
1
1
1
1.11853
0.887575
1
1.1186
1
1
0.888857
1
1
1.11856
1.11856
1
1.11852
1.11954
1.11876
0.994074
1.11855
1
1.11855
1.1186
1.09635
1
1
1
1.11859
1.11868
1.11863
0.983315
1
1.12053
1.11857
1.11857
1
1.11857
1.11862
1.11858
1.1206
1
1.11853
1.11908
1.1051
1.11866
1.12023
1
1.11903
1.11738
1.11862
1.11871
1.11869
0.888637
1.11867
1.11861
1
1.11858
1.11861
1.11859
1.11857
1
1.11859
1.11859
1
1.11855
1.10121
1
1
1
1.11836
1.11963
1
1
1.06812
1
1.11847
1
1
1.11862
1.11895
1.11861
1.11861
1
1
1
1.08707
1
1.11861
1
1
1.12065
1.1207
1
1.11857
0.884643
1.11861
1.11834
0.913402
1
0.884895
1.10552
1.11849
1.11869
1.11867
0.888769
1.11848
1.11878
0.888646
0.885288
1
1.11873
1.11851
1
1
1.11861
1
1.11874
1
1.10498
1
1.05906
1.11857
1.11911
1.08745
1.10778
1.12063
1.11895
1.11107
1
0.88903
1.11944
1.11851
1.11997
1
1
1
1.11985
1
1.11858
1.11853
0.92503
1
1.1186
0.999983
1
1.00001
1.00001
1.11851
1.11851
0.999561
1
1
1.11854
1.11904
1.11855
1.11947
1.11842
0.890913
1.10512
1
1.11777
1.11861
1.11856
1.11838
1
1.11852
1.11564
1.11883
1
1.11861
1.11875
0.959023
1.11853
1.11865
1
1.11848
0.952262
1.11868
0.958006
1.11853
1
1.1186
1.12185
1.11856
1.11858
1.11862
1.11925
1.11867
1.11981
1
0.980843
1.1187
1.1185
0.954393
1.11857
0.995977
1.08119
1.11872
1.11874
1.11882
1
1.1192
1.08001
1.11904
0.977989
1.1191
1.12189
1
0.962272
1
1.11696
1
1.08419
1
1.11375
0.963539
1
1.11824
1.1188
1
1.11879
1.11895
1.11993
1.11894
1.12005
1
1.12066
1
1
1
0.970443
1.11853
1.11841
1.11858
1.11857
1.11918
1.11874
1.11777
1.11867
0.970853
1.00886
1
1
1.12297
1.11863
1.11854
1.11856
1.00001
1.06335
1
1.11992
1.10588
1
1
0.918697
1.11861
1
1
0.898128
1.11852
1
1.12068
1.1186
1.12075
1.11445
1.11861
1
0.888095
1.03012
1.11868
1.1186
1
1.11859
1.11857
1.06353
1.00319
1.02733
1
1.1195
1.11851
1
1
0.889236
1
1
1.11857
1.11861
1.11847
1.11852
1.11854
1.12007
1.11864
1.11832
1.11857
1
0.998914
1.11856
1.11855
0.999121
1.11857
1.11859
0.88901
0.889648
1.11838
1.1189
1
1
1.00043
1.11857
1.11842
1.11852
1
1.11856
1
0.959032
1.12012
1.11952
1
1.05586
1.11859
1
1.11924
1
1.11853
1.07863
1.1182
1
1.11859
1.11736
0.889036
1.11862
1
1.1188
1.12022
1
0.889007
1.1189
1.10423
0.999344
1.11505
1.11861
1
1.00148
1.11843
0.999418
1.1186
1
1
1.1185
1
1.11881
1.11857
0.998975
1.09726
1
1.11858
1
1
1
1
1.11856
1
1
1.119
1
1.11846
1
1.07896
1.11865
1.1184
1
1
1.00157
1
1.11881
1.11861
1.11862
1.11857
1.11873
1.11858
1.11865
1
1.11856
1.11846
1
1.11867
1.11854
1
1.11842
0.980466
1.01689
1.11858
1.11853
1.11862
1
1.11861
1
1.11858
1.11856
1
1.11851
1
1
1
1
1.11854
0.88802
0.999394
1
1.1186
1.11944
1
1.11856
1
1.00158
0.892476
1.11861
0.999883
1
1.11833
0.99953
1.11848
1
0.999935
1
1.11832
1.11975
1.11855
1.1192
0.895375
1.11889
1.1187
1.11869
1.031
1
1
1.05427
1.11853
0.88525
0.893812
1
1.11873
1.11854
1.11882
1
1
1.1186
1.11861
0.999966
1
1.08718
0.885943
1
1.02295
1.12057
1.11879
0.999502
1.11852
1.12081
1
0.999675
1
1.11824
1.1202
1.05054
1
1.11177
1
1.0005
1.11834
0.889879
1.11856
1.11855
0.999133
0.999975
1.10302
1
0.999912
1
1.11891
1
1
0.884468
1.11859
1
1
1
1
1.1194
1.07051
1
1
0.88877
1.1186
1.07105
1
1
1
1.11362
1.11582
1.12015
1
1
1.11953
1
1.11859
1.11873
1
1
1.11896
1.11845
1.1141
1
1
1.11899
1.11887
1
1
1
1.11887
1
1
1
1.11867
1.11977
1.11918
1
1.11956
1.00001
0.908172
1.11856
1.11852
1
1.12014
1.11608
1.12063
1
1
1.1194
1
1.06943
1.11849
1
0.888972
1
1.11904
1
1
1.11904
1
1
1
1.04084
1.11851
0.898097
1
1.11891
1
1
1.11879
1
1.11943
1
1
1.11856
1.11856
1
1.00001
1
1
1
1
1
1
1.11834
1.11859
1
1.1206
0.890266
1.11869
1
1.11862
1.1205
1.11855
1.1175
1.12118
1
1
1.11895
1
1.07899
1.11965
1.11859
1
1.11925
1.11738
1
1.106
1
1.1186
1.07995
1.11891
0.999281
1.11656
1.11033
1.11892
1.11872
1.01042
1.11858
1.11932
1
1.11852
1
1.11856
1
1
1
1
0.999007
1.11853
1.1186
1.10009
1
1.11931
1
1
1
0.884428
1
1.11612
1
1.10865
1.11449
1
1
1
1.11044
1.12054
1
1
1.11866
0.889565
1.02323
1
1.11957
1.11848
1.10906
1.116
1.11853
1
1.119
1
1
1
1
1.11891
1.11864
1
1.11578
1.01683
1.11851
1.11151
1
1
1.1117
1
1
0.89221
1.08527
1
1
1.11814
1
1.11941
1.10908
1
1.10879
0.89034
1.11851
1.11845
1.11871
1
0.89648
1
1
1
1.11855
1.09819
1
1.12031
1.11855
1
1.11854
1
1
1
1
1.11854
0.999813
1
1.11901
1
1
1.11833
1.11859
1
1.11953
1.02416
1.00001
1
1.11848
1
1.1185
1
1.0042
1.11856
1
1.11851
1
1
1.04105
1.11867
1
1
1
1
1
0.999009
0.889924
0.88922
1.00596
1
1.00781
1
1.00815
1
1.11856
1
1.07689
1
1.11856
1
1
1
1.11855
1
1.09488
1.1186
1
1.06635
1.11868
1
1
1.12027
1.11845
1
1
1.01579
0.884693
1
1.11877
1
1
1
1
1.02166
1.11858
1
1
1
0.891352
1
1.11857
1.11853
1.12111
1
1
1
1
1.0618
1.12141
1
1
1
1.11924
1.11855
1.01596
1
1
1
1.11859
1.11857
1
0.889241
1.11857
1.11861
1.1184
1.11877
1.11822
1
1
1.11976
1.11838
1.11857
0.894784
1.01185
1.11858
1
1
1
1
1
1.11855
0.891925
1
1
1.11855
1.05676
1
1.11964
1
1
1
0.892534
1
1
1.03278
1.11859
1.11861
1
1.11801
1.11899
1
1.02278
1
1.11894
1
1.11874
0.889575
1
1
1
1
1.11856
1.00002
1
1
1
1.11385
1
1
1
1
1.11858
0.891206
1.09574
1.11917
1
1.11839
1
1
1
0.999184
1
1.11929
1
0.944992
1
1
1.00001
1.11853
0.892115
1
1.1185
1
1.11861
1.11861
0.891714
1
1
1.11489
1
1
0.896759
1
1.11754
1
1.11389
0.999803
1.11867
1
1
1
1
1.12028
1
1
1.11856
1
1
1
1
1
1
1
1
1.08048
1
1.04195
1.11855
1
1
1
0.890186
1
1
1
1
1.11854
1.11854
1.01739
1
1
1.11889
1
1
1.11869
1
1
1
1
1
1
1.11851
0.936662
1.1185
1.11901
0.999152
1
1
1
1.07337
1
1
1.11835
1.1185
1
1
1
1
0.891003
1
1
1
1.07771
1
1.11852
1.11937
1
1.11885
1
1
1
1.06748
1
1.12067
1
1.11858
1
1
0.998875
1.11855
1
1
1
1
1
1.11859
1.00001
1
0.893895
1.11923
0.894498
1
1.11849
1
0.998842
1
1.11884
1.11888
1
1.11678
0.96624
1.1185
1.11969
1.00001
1
1
0.890432
1
1
1
1.11856
1.07228
1.11834
1
1
1
1
0.999069
1.11881
1
0.889923
1
1
1
1
1
1
1
1.12016
1.11895
1.11802
1
1
0.99911
1
0.995159
1
1
1
0.889445
0.994943
1
0.889193
0.890892
1
1.11871
1.11857
1
1.11882
1.11856
0.889868
1.08082
1
1
1
0.890032
1.11879
1
0.888961
1
1.11857
1.02404
1
1
1
1
1.1186
1.11988
1
1
1.11858
1
1
1.12017
1.11862
1
1.11328
1.11861
1.12018
0.991193
1.11857
1.00251
0.889742
1.09341
1.11839
1
1
1
0.889623
1
0.890109
1.11939
0.990177
1.11853
0.98788
1
1.11871
1.05812
1
1
1.11835
1
1.05243
1.11866
1
1
1.11879
1.11807
0.889836
1.07222
0.99997
1
1.07579
1
1.11933
0.984953
1.1214
1.11822
1
1
1
1
1.11494
1
1
1.11892
0.999898
1.11869
1.09749
1.11864
0.894503
1
1
1
1
1.11866
1.00001
1.11852
1
1.11859
1.11825
1.01644
1.11882
1.04109
1.11864
1
1.08359
0.897906
1.11922
1.11855
1.09713
1.02413
1.11954
1.1185
1.11851
1.1189
1
0.975623
1.01857
1
1.11847
1.05849
1.1186
1.00001
1
1
0.900945
1.11825
1.11942
1.09823
1
1.04883
1
1.11922
1.11927
1
1.11867
1.11914
1
1
1
1.1188
1
1.04903
1.11822
1.08475
1
1.11844
1
1
1
1
1
1
1
1
1
1
0.896079
1
1.11093
0.888796
1.07307
0.99959
1.1184
1
1.06612
1
1.07925
1.10298
1
1.00061
1.11965
0.976138
1
1.11922
1.11804
0.984974
1
1.11855
1.11867
1.11912
1
1.11858
1.11875
1.11877
1
1.05727
1
1.00002
1.11864
1
1.11859
1.01883
1.11852
1
1
1.11826
1.11905
0.899175
1
1.11867
1.09156
1.11838
1
1
1.11997
1.11842
0.999499
1
1.10589
0.999126
1.11855
1.00001
1
1
1
1
1.05726
1
1.09496
1.11855
1.09099
1.11874
1
1.00054
1
1
1.12002
1
1.11885
1
1
1
1
1
1
1.01579
1.06523
1
1
0.890815
1
1.1184
0.897831
1.1197
1
1.06162
0.99993
1.11865
1.07907
0.894237
1.06854
1.00001
1.11861
1.11848
1
1.07541
1.11908
1.11886
0.99954
1.11782
1.11556
0.888869
1
1
0.999318
1
1.11744
1
0.896622
1.11891
1
1
1.10551
1
1.1186
1
1.1188
1
0.90116
1
1
1.11858
1.11747
1.11948
1
1.1189
1.11854
1.11856
1
1
1.11629
1
0.920299
1
1
1
1.11872
1
1.11852
1.0801
1.11888
1
1.11849
0.999824
1
1
1
1
1
1
0.911865
1
1
1.11854
1
1.11955
1.11799
1
0.888205
0.890783
1
1.11895
1.02219
0.891743
0.886616
1
1.11871
1
1.11923
0.889045
1.00046
1
1
0.999863
1
1
1
0.999975
1.05254
1.1185
1
1
1.11883
1.07348
1
1.11021
1.11871
1.11874
1.05265
1.1177
1
1.11862
1
1.11667
1
1.11873
1.11833
0.999047
1.11886
1.11846
1
1
1
1
1
0.977011
1.12011
1.00001
1.00001
0.892313
0.999994
0.889486
0.886106
1
1.11868
1.1186
1.11864
1
1.11857
1
0.893068
1
1
1.11897
0.950096
1.11837
1
1.11865
1
0.996552
1.11868
1
1
1
1.11908
1
1.11869
0.890114
1
1
1.07255
1
1
1.06824
1
1
1.11843
1
1
1
1
1
1.11971
1.1185
1
1.11889
1.11889
0.890028
1.05822
1.11897
1
1
1.10787
0.999721
1
1
1.11857
1.11862
1.08059
1
1.1187
0.889046
1.11179
0.999876
1
1.11861
1.00001
1.11891
1.10297
1.093
1
1
1.11854
0.912992
0.89132
1
1.11857
1
1.11837
1
1.07406
1
1
1.11837
1.07917
0.890102
1
0.999439
1
1
1.00759
1.05238
1.11855
1
1.11964
1
1
1
1
1
1
1.01929
0.890115
1
1
1.0106
1
1
1
1
1
1.11833
1
1
1.11858
1.11844
1.08728
1
1
1
0.952584
1.11898
1.08535
1
1
1
1
1.11867
1
1
1
1.11871
1
1
1.0879
1.12373
1.0114
0.926553
1.11829
1.08647
1.11883
1
1.06319
1
1
1
0.88833
1.00068
0.895546
1
0.889084
0.884811
1
0.889958
1
1
1
1.05643
1
1.11871
1.11836
1.00041
1.06123
1.10081
0.890044
0.928495
0.967053
1
1.11851
1.11985
1.11851
1.11858
1.10314
0.964082
1
1.10394
1
1.11427
1
1
0.998986
1.00258
1
1
1
1.11907
1
0.890186
1
1.11882
0.895167
1
1
1.11858
1
1.11854
0.999756
1
1
1.1188
1.11093
1
1.12285
1
1
1.0042
1
1.0565
1
1
0.88978
1
1
1.11883
1
1.11858
1
1.00001
0.892982
1
1
0.896656
1.00031
1
1.11937
0.889331
1.11868
0.889126
1.11866
1
1
1
1
1
1
1
1
1
1
1
1.11412
1
1.11903
1.12006
0.889919
1
1
1
1
1
1
1.11565
1
1
0.892821
1
1
1.11964
1
1
1.04823
1.10106
0.890225
0.889266
0.907411
0.919228
1
0.999019
0.895484
1.00012
1.11021
0.99911
1
1
1.11869
1
1
1
0.929927
1
1.04528
1
1
1.05216
1.11861
1
0.889041
1
1
1
0.999074
1
1.11819
1.11857
1
0.88907
1
1.06775
0.890076
1
0.96733
1
0.998836
0.884448
1
1
1
0.998843
0.890275
1
0.889017
0.99955
1.06612
1.10611
0.889284
0.893015
1
0.997272
1
0.999613
1
1.11838
1.11857
1
1.00578
1.11867
1.11857
1
1
1.11856
1
1
1.00001
1
1.11894
1
1
1.00519
1
0.999593
0.905323
1
1
1
1
1
1.1193
1.01068
1.00001
1
1
1
1
1
1.00001
1
0.889972
1.02911
0.999603
1.11982
1.11811
1
1.00426
1.11869
1.10307
1
1
0.887197
1.11875
1
1.11976
1
1.11851
1.08596
0.890029
1
0.89019
1.11414
0.999908
1
0.890214
0.888379
1
1
1.10174
1
1
0.887171
1
1
1
1.0409
1
0.889912
1.11875
1
1
1
1
1.11865
1
1
1.11827
1.10736
1
1
1
1.11911
0.887101
1
1.11871
1.11861
1
1.09689
1
1.00001
1
1
1.11444
1.00565
1
0.894568
1.06876
1
1
0.999263
1
1
1.11998
1
1
1.00001
1
1.11899
1
1
1
1
1
1
1
1.05562
1
1.11885
1
1
1.1189
1
1
1
1.11851
1.11818
1.01269
1
0.999318
1
1
1
1
1.12011
1
1
1.11859
0.890371
1
1
1
1
1
1
1.09793
1
1
1.11827
1.11901
1
1
1
1.11877
1.11848
1
0.999927
1.11752
1
1
1
1.00001
0.893532
1.00832
0.998907
0.998825
1
1
0.887297
1.11886
1
0.889201
1
1.11821
1.1142
0.890774
0.999829
1.11852
1.11877
1.11854
1
1
0.978807
1.10874
1.10098
0.888976
1
1
1
1.11868
1.11862
0.889185
0.999231
1
1.11854
0.891058
1
1.1159
0.89075
0.993357
1.0019
1
1.11824
1
1
1
1
1
1
1.00003
1.11126
1
1
1.1194
1
1
1
1.11856
1
0.889707
1
1
1
1.04436
1
1
1
1
1
0.936759
1
0.892452
1
1.1186
1.00001
0.961748
0.962707
1
1.00137
1.06579
1
1
0.890015
1.1185
1.11862
1.11856
1
0.886545
0.886059
1
1.11844
1
1
1
1
1
1.00001
1
0.892422
1.07979
1
1
0.890045
0.99872
1
1
1
1
0.884377
1
0.902651
1
1
1.11933
1
1
0.888943
1
1.11854
1
0.889728
1
0.891171
1
1.00223
1.11863
1.1226
1
1
1.12009
1
1
1.02907
0.999103
1
0.999473
1
1.11914
1
0.89407
1
1.12047
0.999684
1
1
0.939578
1
0.999718
0.88873
1.11899
1.04676
1
1
0.97437
1
1
1
0.93755
1
1
1
1.11859
1
0.890977
1
1
1
1
0.889427
1.11855
1.10949
0.889314
1
1.11949
1
1
1.11849
1.11969
1.10149
0.887178
0.999346
0.999781
1
1.11858
1
1
1
1
1.11827
1.00001
1
1
1.11887
1
1
1.11862
0.889333
1
1
1
0.893128
1
1
1
0.99961
1
1
1
1
1.09438
1
1.11974
1.11886
1.12126
1.11859
1.11872
1.11856
1
1.11869
1
1.11849
1.11857
1
0.99967
0.889075
1.10297
0.999973
1
1
1
1
1.00134
1
1.02033
1
1
1
0.9578
1.11862
1.1183
1.11844
1.1031
0.999964
1
1.00666
1.11889
0.999403
1.01842
0.999149
0.88969
1
1.00001
1
1
1
1
1
1.11838
0.889971
1.1184
1.11861
0.998561
0.888818
1
1
1
1.1187
0.888976
1.10597
0.887743
1.11853
1.11865
0.89186
1.1184
1.00713
1
1.11922
0.940707
1
0.999646
0.888636
1
0.889963
1
1.11855
1.1186
0.925139
1
1.11925
0.889801
1
0.891383
1
1.11859
1
1
1.11767
1
0.953016
1
0.999911
0.890302
1.11861
0.999853
1
0.889328
1
1
1
1
1.06841
1
1.11864
1
1
1.12099
1
1
1.11863
1
0.891929
1
0.894954
1
1
1
1
1
1.11402
1.07127
1.11855
1
1.11856
1.11112
0.883885
0.888597
1
1
1.1187
1
0.890785
1
0.998037
1
1
1.11866
1
1.11888
0.889008
1.1202
1
0.888545
1
1
1.11832
1.11815
1
1.00001
1
1.1189
1
1
0.886769
0.99983
0.891148
1
1
1
1.11898
1.11945
1.1196
1
1
0.888771
1
1.11924
1
1
1
1.11439
1.1186
1.11861
0.88888
1.11908
1.11853
0.891744
1.11959
1.00001
0.891494
1.0059
1
1
1.1185
0.888746
1.07881
0.888759
1.11854
0.999264
0.888358
1.11904
1
1
1
1
1.1186
1.11992
0.891216
1
1.00001
0.891218
1.00001
1
0.889871
0.892915
1.08597
1.11862
0.99956
1.11856
1
1.11959
0.946806
0.890214
1.1186
1.12232
1
1.1185
1
1
1.11857
1
1.09295
1.11975
1
1
1
1
1.11855
1.11731
1.1184
1
1
1.11882
1.12047
1.11886
1
1.11857
1
1
1
1
1
0.889693
0.955203
0.889006
1
1
1.11877
1
1
1.11894
0.885469
1
1.11856
1.11737
1.11386
0.884221
1
0.88876
1
1.00001
1.11969
1.0587
1.12014
1.10944
1
0.889219
1
1.11816
1.08748
0.893361
1
1
1
0.941472
1
1
1.12155
1
0.89447
1.11853
1
1
1
1
1
1.09749
1.02761
1
1.11876
1
1.11875
1
0.999171
1
1.11868
1.11837
1.11833
1.11951
0.999879
1.11999
1
1.11853
1.11826
1.10219
1
1
0.889272
1.11967
1
1
1.11909
1.11851
1.11892
1
1.11869
1
1
1.00001
1.11834
1.11875
1.03643
1.02685
1.11847
1.11871
0.903703
1
1
1
1
1
1.04402
1
1
1.10355
0.893742
0.999989
1
1.11852
0.999969
0.999945
1.01974
1.10955
1.12017
0.975523
1
0.889585
1
1.00175
1.11863
1.11924
1.11828
0.999716
1
1
0.889767
1
1
1.11862
1.01396
1
1
1
1
1
1
1
0.999982
1.11958
1
1
1
1
1
1.07807
1
1.05806
1
1
1.11855
1.11987
0.892615
0.999641
1
1
1
0.891423
1.11971
1.11851
1
1
1
1
1
1
1
1
1.11871
1.11743
0.891324
1.01441
0.892196
1
0.88615
1
1.11869
1.0367
1
1
0.911011
1
1.114
0.942616
0.999036
0.889114
1
1
1.11924
1.00001
0.999203
0.883899
1.11988
1.11931
1
1
1
1
1.11157
1
1
1.11857
0.999699
1.11918
1.00002
1
1
0.88859
1
1
1.11873
0.888064
0.933134
0.895622
1.11856
0.999803
1
1.11916
0.889361
0.88898
1.00563
1
1
1.12
1.00001
1.0586
1
1
1.11995
0.892307
1
1
1.00004
1.11932
1.00005
1.1165
1
1.00001
1
1
0.914133
1
0.937826
1
1
1.11855
0.889042
1
0.934258
0.941442
1
1
1.11868
1
1
1
1.11868
1.11845
1.00001
1.11803
1.12019
0.935176
1.11857
1.11398
1
1
1.11787
1
1
1
1
1
1.12076
1.11855
1
1
1
1.11861
1.00006
1
0.889962
0.912717
1
1.00001
1.04833
1
1
0.972552
0.893671
1
1
1
1.11979
1.10969
1.11862
1
1
1
1
0.890022
1
1.11439
1
1.11659
0.889303
1.1195
1
1
1
0.889069
1
1.11908
1.00001
1
0.891776
1.04702
1
0.999901
1.1233
0.887115
0.888678
1
1.1196
0.886113
0.890002
1
0.889077
1
1
1
1
0.888818
1
1
1
1
1.11936
1
1.09348
0.889125
1
1
1
0.890278
1.11862
1
1
0.999078
1.1175
1
1.11845
1.11932
1
1
0.914743
0.889208
1
1
0.89101
1.04137
1.05901
1
1
1.12023
0.999247
1
0.999338
1.1203
1
1
1
1
1
1
1.1186
1
1.04514
1.04077
0.904647
1.10619
1
1.11861
1.11848
1
1
1
0.975939
0.8906
1
1.06581
0.999901
1.10482
1
1
1
1
1
1.00229
1.0559
1.11878
1.11839
1
1.11861
1
0.897298
1
0.999315
0.999936
1
0.887228
1
0.893614
1.00001
1.11934
1.12002
0.888813
1.11998
0.889005
0.998911
1.09441
0.889308
1.08925
1
1
0.999552
1
1
1
1.00002
1
0.889741
1
1
1
1
0.999884
1.11874
0.942485
1
1
1
1.01049
1
1
1
1.07278
0.924449
1
1
1
1.01378
1.11999
1
0.888908
1
1.11897
0.972961
0.889596
1
0.889507
1
1
1.11281
0.999498
1.11048
1
1.00256
1
1
1.11863
1
1
1
1
1.02625
1
1.11857
1.1189
1.11948
0.889284
1.11861
0.999171
1.09885
1
1
0.884455
1
1
0.890578
1.11893
1
1
0.999988
1
1
1
0.88401
0.888857
1
1.12006
1
1.05875
1.11854
0.89002
1.10041
1
1
0.89378
1
1
1.11857
1.11855
1.04698
1
1
1.00046
1.11939
0.889131
0.891519
1.11969
1.11859
1.08551
1.04939
1
0.971448
1
1
1
1.1139
1.11947
1.11889
1
1
1.11847
0.889248
1.10805
0.884514
1
0.894832
1
0.889058
1.1186
0.886209
1
0.99637
0.900401
1
1
1
0.955592
1.10887
1.11864
1.11916
1.11959
1
1
1.12011
1
1
1.11863
1
0.889137
1
0.88871
1
1.12003
1
1
1.00786
1.09305
1
0.999667
0.889149
1.11858
1
0.888811
1.02416
1
1
1.09312
1.11877
1.11856
1
1.1187
1.03547
1
1.00683
1.11857
1
1
1
1
1.11853
1
0.886993
1.11888
0.890085
0.889398
0.948383
1.11867
1.0446
1.11861
1
1.11971
0.999265
1.00001
1.11847
1.12011
1
1.11927
1
1.11859
1
1.11963
1
1.00001
0.999996
1.11835
0.887778
0.89436
0.999382
1
1
1
0.88851
1
1.08134
1
0.885527
1
1.0502
1.11845
1.11925
1
1
1.00001
0.999834
1
1.11973
1.11856
1
1.05317
1.11894
0.957197
1.11846
1.00014
0.886624
1.02769
0.889253
1
1
1.02174
1.1204
1
1
1.0131
0.999584
1
0.88876
1
0.935565
1
1.1184
1
1
0.888884
1.03047
1.02007
0.99957
1.11868
1.11856
0.933633
0.99945
0.889153
0.888722
0.888881
1
1
1
0.999728
0.913344
0.894432
1
1.11856
0.999927
1.11856
1.11849
1.1202
1.11854
1
0.889187
1.11868
0.888048
1
1.11841
1.11866
0.999026
0.944487
1.1185
1.09104
1
0.889396
1
1
1.11828
1
1.00734
1.11855
1
0.889423
0.889097
1
1
0.885579
0.884348
1.11859
1.00002
1
0.885424
0.88422
1.1186
1.11577
1.11145
1.11948
1.03671
0.995955
1.05209
1.11911
1.0959
1
1.06612
1
0.885331
0.960335
1
0.889195
1.11854
1.00641
1.1189
1
1.11848
1.11959
1
1.11854
1.11859
0.889977
1.1194
1
1.12299
1
0.922839
0.889593
1.11855
1
1
1
0.889827
1.11864
1.11878
1
0.892594
1
1
0.89072
1.00001
0.883135
1.12002
1
0.948168
0.886115
1
1
1.0718
1
1
1
1.02125
0.889945
1
1
1
1.11932
0.890049
1
1.1185
0.888912
0.888971
1
1
1.1187
1
1.11831
1
1.11855
0.893747
1
1
0.88906
0.943774
0.888509
1
1
1
1
1.11973
0.885828
1
0.889982
1
1.11877
1
1
0.981003
1
1
0.946786
0.999911
1.00001
1
0.890051
0.894228
1
1
1
1
0.938557
1.11817
1.11957
1
0.889824
0.889188
0.973143
0.894106
1
0.947373
1
0.889209
0.996633
1
1
0.893716
1
1.11868
1.11549
0.889704
1
1
1
1.11857
1
1.01478
0.95117
1.04102
0.893443
1.05193
0.888238
1
1
0.912358
0.975091
1
1.01299
1
1
0.888838
1
0.983954
1.01476
0.890062
1
1.10033
0.924722
0.964249
1
1
1
0.894608
1
0.889852
0.890044
1
0.95836
0.889517
1.02146
0.920958
0.88477
1.11847
1
1.11853
1.06731
0.915483
1.11856
0.889064
0.999711
1.11942
1
1
1.11866
1
0.914503
1
1.02159
1
1
1.11863
1
0.930097
0.946312
1.12043
0.984087
1
0.926693
1.11849
1.11957
0.973906
1
1.11854
1.0336
0.955885
1
1.00632
1
0.894067
1.05376
0.92987
0.921392
1
1
0.895026
1.11845
0.990872
0.891042
0.887337
0.961331
1
1.00598
1.11955
1.11864
1
1
1
0.891059
1.06001
0.999998
1.1188
1.10926
0.88839
1
1.02716
0.963014
1.07546
1.10693
1
1.01331
1
1.00002
0.884307
0.955558
1
1
0.945176
0.884445
1.01179
1
1.00001
0.885662
1.05776
1
1.11785
1
1.01168
1.06739
1
1.11623
1
1
1.11893
1
0.884649
1.11972
0.904305
1.03456
1
0.892406
0.999976
1
1.00001
1
0.937448
1.00752
0.891276
1.0895
1.11998
0.88295
1
1
1
1
1
0.991158
0.888777
1.01448
0.89076
0.88977
1.02265
1
0.999942
1.03181
1
1
0.888733
0.999692
1
1
1.03727
1
1.11972
1
1.11958
1.02691
1.00691
0.890702
1
1
0.888944
1
1
1
1
1.11866
1.01225
0.999451
1
0.884217
1.01479
1
1
1.08099
1
0.889199
1.11832
1
1
1
1.11874
0.889236
0.964673
0.884394
1.0922
1.11955
1
1
1.1186
1
0.883999
1
1
1
1
1
0.930221
1
1.11892
1
1
1.04472
1.11955
0.888951
0.962365
1
1.11849
1
1
1
1
1
1.11856
1.11971
0.884902
1.11855
0.883157
1
1
1.11855
1
1.11996
1.00244
1.00816
1.02073
1.11844
1.0196
1.08401
0.884776
1
0.886303
0.997396
1
1.11854
1
1
0.885374
1.11867
1
1.11956
1
1
1
1
1
1
0.891116
1.11955
0.955443
1.11861
1
0.888927
0.887781
0.912155
1.11766
1.11853
0.992965
1
0.939438
1
1.0499
1
1.11873
0.883875
0.889949
0.955581
1
1.11866
1
1.02229
0.896854
1
1.12023
1.10512
0.99968
1
1.11848
0.889559
1.1191
1.11862
1.11851
0.892036
1.02642
1
1
0.88528
1
0.942339
0.948519
1
1.00001
1.11851
1
1.11828
1.02496
1
1.01202
1.12111
1
0.888908
1
0.931449
1
1
1.0995
1
0.939643
1
0.896914
1.01051
0.986824
0.88578
1.11859
1.09746
1.11965
0.891729
0.907179
0.99882
1
1
0.900427
1.11255
0.889812
0.99999
1
1.11855
1.11915
0.973256
1
0.889565
0.909952
1.08205
0.996161
0.884434
1
0.889626
1.03299
0.893633
1
1.00002
0.945032
1.11955
1.1186
0.952031
0.999885
1
1
0.912899
1
0.888807
1
0.887827
0.889642
1
1
1.00001
0.895078
1.11857
1
1
1.00002
1.00001
0.890397
1.11863
1.1186
1
0.890819
1.12011
1
1.02732
1
1
1.11916
0.886643
1
1
0.888995
0.920615
0.89078
0.889333
1
0.90477
0.999175
1.02719
0.885101
1
1
1.03627
1
1.10637
1
1
1.089
0.89706
1
0.888921
1.03656
1.11869
1
1
0.894919
0.889129
0.883258
0.917863
0.888919
1.09186
0.999831
1
1
1
1
1.11866
0.888778
1
0.981629
0.999908
0.999559
0.999982
0.927246
1.03685
1
1.11855
1.11867
1
1
1.11446
1.00001
1
1.1186
0.891927
1.11925
1
0.883861
1.1186
1.00002
1
0.949226
1
0.885722
1
1.1193
1
1
1.11936
1
1
1.11872
1
1
1
1.12039
1
0.921829
0.912041
1
0.883763
1.11855
1
1
0.994452
1
1.11923
1.07175
1.09706
1
1
0.894185
1
0.889534
1.11857
1.11995
1.11897
1
1.11971
0.889778
1
0.889338
1.09758
1.10872
1.11874
1.11873
0.928004
0.885945
1
1.08211
1.11927
1.11952
1.11855
0.921295
1.0468
1
1.09231
0.923654
1
1
1
1.00001
0.96998
1
1.11935
1
1
1
1
1
1
1.00002
1.11807
1
1.11952
1.09068
0.890013
1.12014
1.00978
1.06299
1
1.11848
1
0.890359
1
1
1
1
1.1028
1
0.885184
1.11864
0.882581
1.11862
1.09708
1.06536
1
1.02459
1.0596
0.998836
0.889335
0.932022
1.00001
1
0.977514
1
0.8866
1.1191
0.885196
0.979644
0.958907
1
1
1
1.00407
1
1
0.889435
0.999028
1.12005
1
1.11854
1
0.889339
1
1
1.11854
1.11877
0.885147
1
1.11921
1
0.941897
0.88652
1.11913
1.10759
1
1.02093
1.11849
0.999621
1
1.05308
1.1055
1.11831
0.99877
1
0.999999
1.10234
1
1
1
1.11858
0.999576
1
1
1.11868
1
1
0.892061
1
1
1
1.11925
1
1
0.95847
1.04127
1.10899
0.929857
1
1.11861
1
1.04513
1
1.11907
0.999216
1.11864
1
0.889667
1
1.08167
1
1
1.11142
1
1.11864
1
1.11872
0.904778
0.892425
1.11927
1
1.10203
1
1.11928
1
1
1.00001
1.11834
1.1183
1.03455
1.11872
0.998765
0.888871
1.11867
0.962625
1
1.11813
1
1.1186
1
1.11908
1.11935
0.998917
0.88865
1
1.11858
1
1.01057
1
1
0.999417
0.920395
1.10702
1
1.10881
1
0.963584
0.886355
1.11882
1.11864
0.902515
1
1.11862
1.11948
1.11876
0.901027
1.11848
0.895254
1.11896
1.11992
1
1
1.11857
1
1
1
1
0.889559
1
1
1.11941
1.11859
1
1.11864
1
1.12021
1.11978
1
1.10072
1
0.883834
1.11851
1.09106
1.03801
0.883331
1.11853
1
1
0.887822
1
1
1.11854
1
1
0.934586
1
1.1186
1.00003
1.11868
0.885238
1.11974
1
1.1185
1.11448
0.970366
1
1.11832
0.925347
1.11885
1.08633
1.11856
1.11868
0.999178
1.12
1.11868
1.11863
1.11861
1.00025
1
0.888712
1
1.11998
0.948903
1.10933
1
1.11663
1
1
1
1
1
1.11796
0.886704
0.890085
1.11905
1.11852
1
1
1
1
1
1.11777
1.10892
1.11864
1.00537
1
1
1
1.00001
1.1183
1.11855
1
1.11904
1.1194
0.89368
1.08612
1
1.11856
1.11962
1.1178
0.999444
1.11867
1.11855
1
1.1088
1
1
1
1
1
1
1.11865
1.12011
1.11124
1.1186
0.888447
0.90597
1.11855
1.11865
1
0.887084
0.984895
1
1.06061
0.886394
1
0.999845
0.999501
0.889739
1
1.11869
1
1
1
1.11936
0.985304
1
1.11854
1.11851
1
1.11883
1
1
1.11855
1
0.88817
1
1.11889
1
1
0.892621
1
1.11865
1
0.885017
0.887326
1
1.11688
1
0.884345
0.967273
1
1.11864
1
1
1
1.1197
1
0.890609
1.01866
1.11909
1.11889
1.11851
1.01371
1.11899
1.11853
1
1
1
1
1
1.1185
1
0.9998
1.11936
1
0.883274
1
1.11856
1.05949
1.01862
1.05902
1.01988
1.11903
0.905255
1.11849
1
0.890984
0.999182
1.11859
0.98322
1.11859
1.11863
1.11526
1
1.11917
1.11849
1.1185
1
1.00001
1
1
1.11923
1.08679
1
1
0.889623
0.999026
1
1.11866
1
1.11856
1.11855
1.11842
0.971959
1.11863
1.11869
1.00277
1.06048
1.11964
1.11865
1
1.11045
0.949456
1.11338
0.99772
1.11867
1
1.11856
1.11852
1
0.892802
0.982109
0.905897
1
1.02472
0.999075
1.1192
1
1
0.999036
1
1.06227
1.11201
1
1
1.11862
1
1
1.08724
1.11858
1.11431
1.11898
1.11854
1
1.11847
0.915465
1.11897
1
1.00012
0.891828
1
1
0.922117
1
1.04145
1
1.11898
1
1.11657
1.07842
0.889635
1
1
1
1
1
1.11871
1.00333
1
1.11928
1
1.11859
1.11855
1
1
0.993061
0.999956
0.885766
0.885467
0.914486
1.02464
1
0.999552
0.888253
1.00001
1
1.11857
0.982748
1.11135
1.10001
1
1
1
1
1
1.11862
1.11871
1
1.119
1
1.11981
1.08244
0.998945
1
1
1
1.07144
1
0.988042
1
1.11877
1
1
1.11854
1
1
1
1
1
1.11883
0.885321
0.998875
1.10745
1.11856
1
1.11855
1
1
1
1
0.900073
1
1.11857
1.11858
1.11857
1.11998
0.986931
1
1.10195
1.03223
1.11971
1.11928
1.02356
1.11952
1