/*--------------------------------*- C++ -*----------------------------------*\
  =========                 |
  \\      /  F ield         | OpenFOAM: The Open Source CFD Toolbox
   \\    /   O peration     | Website:  https://openfoam.org
    \\  /    A nd           | Version:  12
     \\/     M anipulation  |
\*---------------------------------------------------------------------------*/
FoamFile
{
    format      ascii;
    class       surfaceScalarField;
    location    "4.62";
    object      phi;
}
// * * * * * * * * * * * * * * * * * * * * * * * * * * * * * * * * * * * * * //

dimensions      [1 0 -1 0 0 0 0];

internalField   nonuniform List<scalar> 
33852
(
0.000251329
2.24281e-05
-0.000273757
-0.000246121
1.32441e-05
0.000232877
-0.000175744
-7.25666e-05
0.000243646
0.000304053
-0.000163969
-0.000140085
0.000287526
-4.21277e-05
-0.000251824
2.72441e-05
-0.000260681
0.000233437
0.000315756
1.4736e-05
-0.00032949
0.000304277
-9.59564e-05
-0.000208321
0.000286413
-3.50841e-05
0.000206278
1.59671e-06
-0.000203435
0.000289759
-0.000366863
7.70259e-05
0.000361989
-4.58719e-05
-4.39602e-05
0.000263285
-0.000219325
-4.38577e-05
0.000318278
-0.000274416
6.08886e-05
-0.000239664
0.000252057
1.2236e-05
-0.000264293
0.000264853
-1.2796e-05
-0.000278433
3.23121e-05
0.000340795
-5.11994e-05
0.000158593
0.000112308
-0.000270901
-2.43781e-05
0.000303208
-0.000278824
0.000271377
-0.000276165
4.78802e-06
-1.78225e-05
0.00027576
-0.000258722
-0.000225273
1.40061e-05
0.000205001
-0.000152994
-0.000183737
0.000337173
-0.000151387
-7.1471e-05
0.000227567
3.72401e-05
0.000267037
-6.08561e-05
-0.000262792
0.000321873
-0.000203811
1.71669e-06
0.000206239
-0.00020894
-1.95552e-05
0.000142045
0.000137388
-0.000279433
0.00034248
1.93741e-05
0.000142618
0.000128347
-0.000270965
-0.000101136
0.000259729
-0.000250489
-3.78001e-06
0.000254269
0.000330773
-5.95492e-05
-0.000271248
-0.000356535
0.00020338
-0.000228571
0.000210159
0.000231645
3.32081e-05
-5.65602e-06
0.000237301
-7.87222e-06
0.000213931
-0.000232625
0.000259869
0.000315356
-5.79215e-05
-0.00026116
-0.000309093
5.51042e-05
0.000253989
0.000238733
-0.000301786
0.000273589
-0.000306321
3.27321e-05
-0.000180237
-5.49362e-05
0.000235173
0.000272133
-0.000272133
0.000148429
-0.000297473
0.000149045
-0.000212169
0.000218716
-7.14263e-06
-0.000268241
0.000237301
3.09401e-05
-0.000201292
0.000243015
-4.77337e-05
-9.16164e-05
-0.000217477
-0.000114719
-0.000252114
-0.000280169
0.000266113
1.40561e-05
0.000329407
1.18715e-05
-0.000250433
7.01963e-05
0.000117908
0.000145909
-0.000263817
1.34681e-05
-0.000267457
0.000253989
-0.000134569
0.000282997
-0.000165685
-5.70836e-05
0.000216804
-0.000274681
0.000245113
2.95681e-05
0.000237553
-0.000268437
3.08841e-05
-0.000180525
-2.31494e-05
0.000151665
0.000115565
-0.00026723
-0.000191908
-2.91737e-05
0.000219162
0.000263985
2.24281e-05
0.000275941
-2.35201e-06
0.000265329
-0.000250741
-1.45881e-05
0.000239948
-6.74749e-05
-0.000168332
-1.82001e-06
0.000239373
0.000365651
-0.00031187
-5.38458e-05
-2.78432e-05
0.000301767
-0.000275112
-0.000101584
0.000219493
0.000342407
2.41619e-05
-0.000370903
0.000354997
1.81989e-05
-0.000216122
2.298e-05
0.000309381
-0.000321772
1.23814e-05
-0.000211015
0.000275537
-6.51879e-05
-4.45202e-06
1.70789e-05
-0.000318872
0.000302031
0.000236975
-0.000200894
-3.5538e-05
0.000269704
-0.000339841
7.01702e-05
0.000332937
-6.35071e-05
-0.000268941
0.000236573
3.23681e-05
-0.000129388
-0.000132609
0.000261997
-1.86761e-05
-0.000249565
-1.022e-05
-0.000258721
2.35843e-05
0.000209993
-0.000234715
3.25719e-05
-0.000230287
0.000200684
-2.52081e-05
0.000330626
-0.000304759
-0.000279329
0.000273701
5.62802e-06
0.000156129
-0.000296857
0.000140729
-5.60856e-05
-0.00013898
0.000202656
0.000143277
0.0001218
-0.000265077
-0.000249971
0.00022578
-0.000197086
0.000144881
-0.000168813
0.000327181
-0.000158369
0.000185389
7.16523e-05
-0.000257041
0.000255193
2.07481e-05
-0.000192277
0.000148317
4.88663e-05
0.000263298
0.000307124
-0.000289677
9.66572e-05
-0.000243822
0.000135241
0.000117096
-0.000281065
-1.18599e-06
0.000245051
-0.000240304
0.000166489
0.000122836
-0.000289325
0.000144987
9.06746e-05
-3.92002e-06
0.000259113
0.000303933
5.36429e-06
-0.00032381
0.000314791
8.96855e-06
-3.99002e-05
0.000236293
-0.000196393
4.08802e-06
-0.000284257
-2.57644e-05
0.000164592
-0.000132531
-0.000152221
0.000133987
0.000217391
-0.000182331
-0.000269921
0.000264965
4.95602e-06
2.64041e-05
0.000174721
-0.000201125
2.87841e-05
-0.000257265
0.000228481
0.000276137
-0.000262669
0.000115108
0.000212073
0.000213075
-0.000191763
-0.000175813
0.000202217
1.34709e-05
0.000283196
-0.000296282
0.000265655
2.23145e-05
0.000271033
-0.00028308
1.23567e-05
3.86402e-06
0.000267513
-1.80257e-05
0.000290109
0.000330733
9.93902e-06
0.000213625
-0.000257552
0.000316179
-0.000316182
-6.63603e-06
-0.000272693
2.94316e-05
0.000210186
0.000187993
3.98722e-05
-0.000227865
-5.15748e-05
0.000202901
-0.000153762
0.000153609
-0.000270285
0.000116676
0.000279441
-0.000329701
5.02602e-05
-6.38122e-05
0.000249201
-0.000166909
0.000315897
-0.000148989
-0.000313885
-1.00664e-05
-0.000214929
0.000175029
2.78601e-05
-0.000278349
0.000276221
-1.88441e-05
-0.000248613
1.73175e-05
-0.000303246
0.000286327
0.000344989
-0.000158593
-0.000186397
-1.68798e-05
-0.000241126
0.000257641
-0.000266617
-3.30401e-06
0.000224001
2.45841e-05
-0.000248585
0.000284509
-0.000128381
0.000140197
0.000138853
-0.000279049
-0.000200885
-1.07196e-05
0.000258169
-0.000115551
0.000225585
-0.000242555
-6.38122e-05
0.000251805
-0.000210627
0.000249481
-5.60002e-07
-0.000248921
0.000255109
-0.000237441
-0.000326403
0.000301848
-3.08841e-05
0.000203169
-0.000172285
0.000291551
1.23681e-06
-0.000293464
7.91662e-05
0.000135103
-0.000213028
5.26758e-05
-0.000217379
-0.000287597
-4.48883e-06
0.000292538
-1.63664e-06
-0.000286372
0.000146973
-0.000273925
0.000126952
-0.000264764
0.000217002
-0.000293975
0.000264135
0.000279441
-0.000312026
-1.23883e-05
0.000324286
0.000110827
0.000161071
-2.13409e-05
0.000352065
0.000140141
0.000139833
-0.000279973
0.000245029
-0.000250349
5.32002e-06
-0.000210953
0.000180069
0.000279133
-5.43202e-06
0.000351088
-3.27485e-05
-0.000301848
0.000302772
-3.13164e-06
0.000270985
-0.000270985
-0.000364781
0.000225967
0.000138685
-0.000203335
1.89132e-05
1.68039e-05
0.000275157
-0.000278461
3.30401e-06
-5.36659e-06
0.000175283
-0.000165197
-0.000197345
0.000254801
-5.74562e-05
-0.000207541
4.67062e-06
-0.000250097
0.000169636
8.77384e-05
-0.000180264
0.000261402
-8.11345e-05
0.000256285
-0.000287113
3.08281e-05
-0.000249229
5.18842e-05
-2.3614e-05
0.000275981
-0.000252499
-0.000253547
1.35801e-06
0.000252189
0.000231281
-7.28003e-06
-0.000294136
7.5885e-06
0.000286624
-0.000266085
0.000266085
-0.000284637
-5.51888e-05
-0.000170733
-0.000194133
-0.000173538
0.000215623
-4.48149e-05
-1.232e-05
-0.000239177
0.000251497
3.10801e-06
0.000210113
-0.000213221
-0.000183909
-2.24746e-05
0.000208555
7.59314e-06
0.000294375
-0.000301962
-0.000236153
-1.34401e-05
0.000249593
1.50361e-05
-0.000251189
-0.000241025
0.000256061
-0.000301237
0.000308821
0.000256117
7.16803e-06
-0.000162707
-3.06411e-05
0.000192185
-0.000145237
-0.000134765
-0.000244329
0.000240549
0.000298622
-3.89306e-07
-0.000298215
-0.000298812
5.5597e-07
0.000298319
1.9276e-05
0.000181217
0.000163773
7.70043e-05
-0.000257269
-0.000159242
0.000310908
0.000250721
-0.000108677
-0.000235145
-1.83681e-05
0.000253513
-0.000204526
-0.000126747
0.000331282
-6.10402e-06
-0.000229125
0.000235229
-2.20111e-05
-0.000187935
-0.000284679
-8.47148e-05
6.27439e-06
-0.000300391
-0.000212634
0.000327894
-0.000115704
0.000281597
0.000288205
-5.16322e-05
0.000271993
-1.57081e-05
-0.000187719
-1.38229e-05
0.000199874
0.000297945
-2.92284e-08
-0.000298128
-0.000270927
-3.22458e-05
-0.000218821
0.000247605
-2.52501e-05
0.00031076
-0.000285495
0.000177817
7.73619e-06
-0.000189543
-3.25489e-05
0.000206712
-0.000301312
0.000276031
0.000291559
5.5614e-06
-0.000297363
0.000157445
0.00011886
-0.000276305
0.000289849
5.60755e-06
-0.000295071
-0.000237576
0.0001106
0.000123068
-0.000281527
0.000295423
0.000302513
-0.000156857
-0.000145657
0.000207005
-0.000203897
-0.000232009
-0.000121156
-0.000155009
-4.05443e-06
-0.000293921
0.000297996
-1.0136e-05
0.000276249
0.000294945
-2.02114e-05
-0.000271666
-0.00026298
2.90569e-05
0.000233818
0.000271433
-0.000267569
0.000249621
2.95121e-05
0.00031475
-9.76814e-06
-0.000304993
4.6694e-05
0.000143668
-0.000196331
-0.000100524
0.000193161
-9.60608e-05
0.000252617
-2.91201e-05
-0.000223497
2.22587e-07
0.000291259
-0.000171985
-3.13316e-05
0.000207168
-1.83847e-06
0.00029163
-9.33244e-05
0.000246933
-0.000255417
-5.26402e-06
0.000121184
0.000181329
1.34121e-05
0.000241557
-0.000254969
0.000236097
1.34961e-05
-0.000249593
0.000249509
-0.000242929
0.000256425
6.37177e-05
-0.00020457
0.000139234
-0.00021895
0.000117314
-0.000202602
0.000297213
1.33632e-06
-0.000298592
0.000253849
2.22881e-05
0.000268493
-0.000216441
-5.20522e-05
0.000225518
-0.000246849
2.13305e-05
0.000257909
1.40841e-05
5.84336e-05
0.0002972
0.000267186
-3.89594e-05
-0.000228226
0.000172449
1.274e-05
0.000240297
-0.000253037
0.000196026
-0.000115616
-8.01491e-05
-0.000204785
2.12937e-05
-1.47219e-06
-0.000297469
0.000298816
0.000216258
-0.000165357
-5.18703e-05
0.000344565
-4.13336e-05
0.000275969
-0.000135829
2.31561e-05
0.000238337
-0.000261493
-0.000231141
0.000254297
-2.66699e-05
-0.000229741
0.000256425
0.000158685
-0.000159825
-7.79615e-05
-0.000168879
-0.000261723
4.14346e-05
0.000220288
-3.17521e-05
-0.00022997
6.75319e-06
0.000261717
-3.25193e-05
-0.000229198
1.66887e-05
0.000126677
-0.000191764
0.000308785
-0.000171397
0.000262319
-3.57923e-05
-0.000226526
-0.000318905
0.000183692
-0.00010388
-0.000228453
-6.90203e-05
-4.95576e-07
-0.000300617
0.000301045
-2.87041e-05
0.000199748
-0.000170355
0.000307922
6.85872e-06
0.000250097
-0.000248249
-1.84801e-06
-0.000177235
6.19079e-05
0.000260244
-3.07176e-05
-0.00022954
0.000197345
-0.000250769
5.34242e-05
0.000254205
-0.000231206
-2.29991e-05
-0.000252337
0.000240017
0.000141309
9.9195e-05
-0.000101864
-0.000170269
0.000132496
-0.000261885
-0.000290249
0.000242201
4.80481e-05
0.000216809
3.12478e-05
-0.000248056
-0.000237017
-9.70697e-06
0.000245372
0.000326196
-2.32154e-05
0.000263996
-3.42721e-05
-0.000229724
0.00013662
-0.000223602
8.7135e-05
3.63259e-05
-0.000265637
0.000229311
-0.000253905
0.000121296
0.000249817
-5.24722e-05
0.000294673
-0.000154253
-0.000140421
0.000122248
-0.000289157
1.53441e-05
0.000237665
-0.000253009
-0.000262031
3.54705e-05
0.00022656
-2.75583e-06
-3.77917e-05
-0.000224239
0.000248604
-0.000272236
-0.000264649
3.44737e-05
0.000230175
0.000193257
0.000101416
-0.000149941
0.000290137
-0.000166313
-3.8195e-05
0.000209272
-1.81721e-05
0.000263201
-0.000293614
0.00031115
0.000114286
0.00010192
0.000261325
-0.000261325
0.000310613
-2.17409e-05
-0.000289603
5.32002e-07
0.000248949
0.000254857
1.65761e-05
0.000309494
-0.000276098
-3.32229e-05
-2.26336e-05
0.000266577
-0.000243943
3.00077e-05
-0.000260519
0.000230511
-0.000252139
0.000229506
0.000330161
3.11501e-05
-0.000260598
0.000229447
0.000276809
-3.16961e-05
-6.67738e-06
-0.000295187
0.000301624
0.000270748
3.91052e-05
0.000230245
-0.000266617
3.63721e-05
0.000200041
-0.000198258
-0.000258301
0.000238533
1.97681e-05
0.000169762
-0.000257245
8.74835e-05
-0.000193367
0.000163241
-0.000249145
8.59043e-05
-0.000266169
0.000224813
4.13562e-05
0.000253073
-2.78797e-05
-0.000225194
0.000168701
4.10792e-05
-0.000234837
-2.29601e-05
0.000257797
-0.000236377
-2.28761e-05
0.000259253
-1.94265e-05
0.000255969
-0.000236542
-0.000259345
0.000239919
-3.03458e-05
0.000170972
-0.000235929
-2.24001e-05
0.000258329
-0.00025484
0.000229192
2.56481e-05
2.94001e-06
0.000211289
-0.000214229
-0.000267031
3.79849e-05
0.000229046
0.000270677
4.48002e-06
4.16137e-05
0.000160865
-0.000195593
-3.31194e-05
0.000249929
-2.08178e-05
0.000218597
9.73004e-05
0.000248198
-0.00021695
0.00027622
-0.000278174
0.000275754
-0.000280168
-1.84997e-05
0.000258601
-0.000240101
-0.000261644
0.000243145
3.16216e-05
-0.000205506
-2.94607e-05
-0.000201856
0.000234636
0.000315653
-0.000287979
-2.76211e-05
0.000261297
-3.11081e-05
-0.000230189
3.28739e-05
-0.000262362
0.000229488
-0.000229853
0.000259645
-2.97921e-05
0.00032568
-1.76425e-05
0.000157525
-0.000217511
0.000256929
-0.000109956
-0.000286397
0.000287009
0.000241977
-6.41202e-06
-0.000235565
0.000228537
-0.000181547
-3.7155e-05
0.000218552
2.83153e-05
-0.000209708
-0.000239989
0.000260317
-2.03281e-05
-0.000102711
0.000192147
-8.43855e-05
3.0695e-05
-0.00019698
0.000240169
-0.000263424
2.32552e-05
-0.000115584
0.000258861
-0.000243993
0.000265721
-2.17281e-05
-0.000238953
0.000232541
0.000258626
-0.000245105
-1.35213e-05
0.000264349
-2.46681e-05
-0.000246317
-0.000272884
-1.0544e-05
0.000301881
-5.30933e-05
-8.66262e-06
0.000289941
-0.00028272
-0.000156289
0.000203384
0.000230443
1.76499e-05
-0.00024793
0.000328572
-0.000328619
0.000260955
-0.000245018
-1.59377e-05
-0.000301013
-7.42047e-07
0.000305528
9.78565e-06
3.75306e-05
0.000167306
-0.000209563
0.00020935
-3.39408e-05
-0.000175249
0.000278054
-0.000255789
-2.22648e-05
-0.000203544
3.06882e-05
3.15421e-05
-0.000261891
0.000230348
0.000285364
-0.0002922
2.44721e-05
-0.000259617
-0.000257965
1.87881e-05
0.000266057
-1.64361e-05
0.000151173
-0.000267625
0.000116452
0.00029881
-4.42023e-06
0.000238617
-7.53763e-05
2.12521e-05
0.000177045
-0.000198297
-0.000183877
0.000205129
-0.000236275
0.000257219
-2.09441e-05
0.000261462
-3.31689e-05
-0.000228293
-0.000197009
-5.21362e-05
0.000251581
-1.48401e-06
8.81513e-06
-0.000266284
0.000257659
-0.000344683
0.000237825
0.000107041
0.000266371
-0.000236811
-2.95597e-05
0.000306761
-0.000314611
7.81718e-06
-2.57041e-05
-0.000229097
0.000254801
0.000261493
-7.64403e-06
1.01127e-05
-0.00020892
0.000262411
-3.19033e-05
-0.000230508
-6.90483e-05
-0.000260653
-0.000194685
0.000248025
-5.33402e-05
-0.000266533
0.000249985
1.65481e-05
-0.000317938
1.66787e-05
-1.68743e-05
0.000294882
-0.000278253
-0.000276221
1.65481e-05
0.000249537
-0.000163245
6.37877e-05
0.000273576
1.48666e-05
-0.000288419
-0.000316112
0.000307833
8.26795e-06
3.46641e-05
-0.000263649
0.000228985
-1.75081e-05
0.000281286
-0.000315226
1.64905e-05
-0.000176541
-7.42283e-05
-0.000231946
0.000205934
-2.16721e-05
-0.000216469
0.000238141
-0.000314803
0.000295913
1.88899e-05
-0.000130679
0.000272705
-0.000140546
-8.40282e-06
3.31521e-05
-0.000263453
0.000230301
-0.000202708
2.44814e-05
0.000171778
0.000221532
0.00028152
-0.000280702
1.93059e-07
-0.000236993
-2.20921e-05
0.000224813
-0.000202721
0.000139273
0.000143753
-0.000278517
0.000199252
-5.714e-05
0.00030801
-1.06849e-05
0.000209311
-0.00026892
2.92853e-05
0.00022306
-0.000252345
-0.000322202
0.000138938
0.000296566
2.92153e-05
1.95412e-05
-0.000224355
-2.77845e-05
-0.000135492
-0.000133003
-0.000326083
0.000113478
0.000242873
2.56201e-05
0.000218765
-0.000224869
1.13025e-05
-0.000289978
0.000279436
-0.00024361
0.00027065
-2.72601e-05
0.000281414
-0.000281825
0.000286676
-7.7773e-05
-8.85471e-06
0.00029024
-1.87881e-05
0.000247101
-0.000228313
0.000281536
-0.000290396
-5.8583e-06
-0.000284066
0.000289886
0.000282101
-0.000269583
0.000284411
0.000226314
2.67597e-05
-0.000305151
0.00031693
-8.23027e-06
0.000251788
-2.13443e-05
0.000226878
2.4185e-05
-0.000268913
0.000246057
-2.05381e-05
-0.000259401
3.02849e-05
0.000229116
0.000178305
7.64963e-05
1.02255e-05
0.000281954
-0.000289156
-0.000238141
-2.88401e-05
0.000266981
2.51441e-05
-0.000263285
0.000284117
-0.000162317
-0.000232177
0.000261129
-2.89521e-05
-0.000234697
0.000260709
-2.60121e-05
1.52728e-06
0.000280195
2.45001e-05
-0.000259197
2.38001e-05
-0.000255977
0.000274284
-0.000242853
-3.13692e-05
0.000317834
-1.00209e-05
-0.000306281
-2.67434e-06
-0.000255753
1.1816e-05
0.000243937
-1.60732e-05
-0.000261185
0.000228066
-0.000245337
0.000270145
-2.48081e-05
-0.000263229
1.49801e-05
-2.36648e-05
0.000286056
-0.000262849
2.13641e-05
-0.000266701
-0.000241642
-2.13748e-05
3.25897e-05
-9.0432e-05
0.000260194
0.000281008
-0.000286681
5.05122e-05
0.000237693
0.000282643
-0.000282193
-0.000243181
-2.39401e-05
0.000267121
-0.000260894
7.34723e-06
-0.000298407
1.98408e-05
0.000276403
-0.000268717
2.55361e-05
-8.52284e-06
0.000291436
-0.000268326
0.000243549
2.47772e-05
-0.000232513
0.000210841
0.000279949
-0.000287442
-6.16002e-07
0.000260289
-0.000259673
-0.000301838
-1.61415e-05
-0.000264573
2.35481e-05
-0.00024417
-2.41555e-05
-3.43281e-05
-0.000297887
0.000293854
0.000286674
-0.000158327
0.000296953
-0.000291358
2.30153e-05
4.89493e-06
0.000262319
-0.000254792
-7.16624e-06
0.000307449
-2.01834e-05
-0.000287298
5.94063e-05
-0.000246765
-2.19521e-05
-0.00035664
0.000241993
0.000284409
-0.000279256
2.33801e-05
-0.000192832
-1.59161e-05
-0.000304742
2.51823e-05
0.000280077
-0.000196683
0.000310908
-0.000114066
0.000259841
-0.000238533
-2.13081e-05
-0.000291599
2.94001e-05
0.000222097
-0.000251497
-0.000154868
0.000153792
-0.000182525
0.000251441
-0.000238029
-1.34121e-05
-0.000263873
3.40201e-05
-2.23161e-05
-0.000269837
0.000251469
0.000230427
3.12901e-05
-4.40787e-05
0.000189289
0.000232619
-0.000260499
-1.73862e-05
-3.13946e-06
0.000248355
-0.00024431
-0.000293492
-0.000237049
0.000265189
-2.81401e-05
0.000230096
3.22225e-05
-0.000268521
2.55921e-05
-0.000239905
-2.86161e-05
0.000228954
-0.000260706
-0.000282783
4.73202e-05
-0.000242005
0.000294066
-0.000282677
-0.000287034
1.29781e-05
0.000276003
-4.78851e-06
0.000217943
0.000228551
-0.00026107
0.000296885
-0.0001309
-0.000165985
0.000242683
-0.000261816
0.000270171
-0.000226213
-1.76681e-05
-0.000167947
0.000311222
-0.00014412
2.49649e-05
0.000222662
-0.000247627
-0.0001915
0.000193687
-0.000283537
0.000282358
7.02042e-06
-0.000290295
-0.000302485
0.000146693
0.000155793
0.000259995
-0.000239359
-2.06361e-05
-0.000215741
0.000193649
0.000261978
4.27446e-07
0.000257293
0.000232526
2.16795e-05
-0.000294668
-6.22536e-05
1.00411e-05
0.000232898
-0.000250377
1.74987e-05
-0.000230917
-2.37161e-05
0.000254633
-0.000242295
0.000263191
-2.08965e-05
8.30695e-05
0.00013485
1.97867e-05
-0.000305864
0.000283597
0.000256565
-1.80041e-05
-0.000238561
0.000243881
-0.000254017
1.0136e-05
-0.000226745
0.000207957
0.000223131
-0.000258923
-0.000244693
4.76842e-05
1.59764e-05
-0.000137636
-0.000218828
1.57921e-05
0.000245701
0.000280761
0.000294676
0.000305734
1.67798e-06
0.000249817
-0.000220417
2.51749e-05
0.000225009
-0.000250184
-0.000243178
0.000268865
-2.56873e-05
2.28201e-05
-0.000262725
-0.000114037
0.000295584
9.05523e-06
2.08181e-05
0.000261675
-0.000235103
-2.65721e-05
1.26248e-05
-0.00030084
0.000289404
0.000320978
-3.0511e-05
-0.000290283
0.000249733
1.63241e-05
0.000306315
-0.000291698
-0.000231309
-0.000112781
9.63204e-06
0.000250657
-4.9129e-05
-0.00020239
0.000251519
2.20333e-05
0.000246832
-0.000241686
-2.29629e-05
0.000260737
-2.24001e-05
0.000288214
-0.000268023
2.63369e-05
2.68241e-05
-0.000257965
0.000210617
-0.000207677
2.58161e-05
-0.000262865
0.000281872
0.000121744
-0.000256173
0.000134429
1.90476e-05
3.82833e-05
0.00015939
-0.000197286
-0.000239485
-2.85377e-05
3.95951e-05
0.00016006
-0.000202545
-0.000246691
0.000271066
-2.43747e-05
0.000209866
-0.000248826
1.98857e-05
1.73937e-05
-0.000175666
-3.08138e-05
0.000226689
-0.000257414
-2.88401e-05
0.000244245
-0.000215405
-2.16161e-05
0.000242985
-0.000221369
0.000201657
-0.000250786
-0.00027361
-0.000232905
-2.55081e-05
0.000258413
0.000241234
2.98318e-05
-0.000211068
-2.37749e-05
0.00023428
-2.18821e-05
-0.000224967
-0.000239345
6.28042e-05
0.000259004
-0.000229718
4.75106e-05
-0.000249901
-3.43393e-05
0.000257694
-0.000223354
0.000205675
-0.000240014
0.000261689
-1.1956e-05
-6.06764e-05
-0.000229572
-0.000222885
-1.77448e-05
0.000240602
0.000247109
5.3175e-05
0.000212448
-0.000265623
-0.000261094
0.000177353
-0.000231757
5.44042e-05
6.35289e-05
0.000134792
0.000259457
-0.000240915
-2.47224e-05
-0.000265385
0.000227165
3.82201e-05
-2.87813e-05
-0.000222158
0.00025094
-0.00028633
0.000264161
0.000234501
3.61761e-05
2.18821e-05
0.000234087
-0.000307217
0.000151089
0.000156129
0.000167638
-5.14885e-05
0.000254045
-0.000115192
2.56901e-05
0.000217446
-0.000243136
-0.000286192
0.000285893
9.2137e-06
0.000257377
-0.000245953
0.000208937
3.70161e-05
0.000254832
0.000246058
-1.95816e-05
-0.000246815
-2.02161e-05
-0.000263019
2.0724e-05
-0.000269215
2.24001e-05
2.79601e-05
0.000220024
-0.000247984
0.000242481
-0.000274597
1.32721e-05
0.000245789
-1.3667e-05
1.26655e-05
-0.000250434
-0.000328559
0.00012407
-0.000233135
-2.62109e-05
-0.000252113
0.000252113
0.000259782
-0.000144217
-1.86484e-05
-0.000278084
0.000296696
0.00027107
0.000258749
-0.000135913
0.000224113
2.39205e-05
0.00023468
7.8503e-05
-0.000343369
3.74371e-05
0.000258962
1.76364e-05
-0.000248843
-3.00917e-05
0.000207453
-3.01001e-05
0.000259701
2.95429e-05
0.000218353
-0.000247896
-3.05014e-05
-4.09782e-05
-0.000217818
0.000258797
-0.000233423
-2.14173e-05
3.74294e-05
-0.000194298
0.000159766
-3.30877e-05
0.000221671
-0.000255943
-0.00028207
-8.19929e-06
0.000290429
-0.000186377
0.000154235
0.000166349
8.16763e-05
1.27643e-05
-0.000294457
0.000235075
2.59446e-05
-0.000261019
-0.000197989
-1.1638e-06
0.000232743
-0.000264287
3.15449e-05
-8.42803e-06
-0.000217029
0.000225457
-0.000158687
0.000198034
-0.000249985
-3.46025e-05
0.000256274
0.000218076
-0.000252679
-0.000246289
0.000272245
-2.59561e-05
0.000253547
2.78321e-05
-0.000232062
-2.95821e-05
-0.000298617
0.000317584
-1.82586e-05
2.31316e-05
0.000212462
-0.000250254
-0.000267233
2.09441e-05
-2.12801e-05
-0.000245953
-3.61481e-05
0.00024861
-0.000288675
-1.28204e-05
0.00022082
-0.000256968
0.000247947
-0.000250109
1.64397e-06
2.80002e-06
0.000181413
-0.000184213
0.000255294
0.000234529
2.67681e-05
-2.62361e-05
0.000245001
-0.000218765
3.36001e-05
0.000216609
-0.000250209
0.000244861
2.73841e-05
0.000306545
-0.000143949
-0.000162597
1.59867e-05
0.000239444
-0.000255202
0.000271013
-0.000113568
0.000225569
-0.000256677
-0.000241189
0.000104751
-0.000265469
7.16803e-06
-0.000241635
-2.75801e-05
-0.000241361
-2.48081e-05
0.000310391
-2.75346e-05
-7.67483e-05
0.000243097
-1.1452e-05
-0.000215601
0.000224281
-8.68003e-06
0.000255193
-7.68883e-05
3.39559e-05
-0.000192397
0.000159747
-0.000265245
-1.40001e-07
-4.14962e-05
3.95727e-05
0.000155166
-0.0001949
0.000192576
-0.000158332
0.000257041
-7.05603e-06
0.000251151
-0.000218277
-1.81957e-05
-2.1128e-05
0.000279013
-9.4249e-05
-0.000183301
-1.42801e-05
-0.000191913
0.000206193
0.000258665
-1.53553e-05
-0.00024331
1.98101e-05
0.000238855
-0.000279821
-8.04469e-06
3.74225e-05
-0.000198253
0.000157459
1.36921e-05
0.000247997
-0.000161467
0.000196553
-1.95189e-05
0.000248711
3.32075e-05
0.000189263
-0.000222145
-4.17202e-06
-2.49389e-05
0.000265108
-0.000231955
-3.14693e-05
0.000296886
-0.00028149
-1.53345e-05
1.63717e-05
-0.000237659
0.000221288
-0.00010514
0.000226885
1.92541e-05
-0.000305118
0.000285924
2.52001e-05
-2.79441e-05
2.69165e-05
0.000308905
-0.000289496
0.000238891
1.97345e-05
2.15601e-06
0.000231617
-0.000233773
-0.000310484
2.57092e-05
0.000284766
-0.000162177
-0.000144145
0.000209178
-0.000250156
-0.000168658
0.000241924
1.90317e-05
0.000256877
-4.13534e-05
0.000250531
0.000214498
-0.000255851
0.000318473
-0.00031873
-1.06712e-05
0.000286708
-0.000276721
-0.000305541
1.98171e-05
0.000284378
4.20842e-05
-0.000286413
-3.85195e-05
0.000252483
2.62921e-05
-2.23122e-05
0.000308414
-0.00028498
2.43321e-05
3.94736e-05
0.000164554
-0.000203908
0.000249294
-0.000219751
2.83277e-05
-0.000261633
4.36802e-06
-1.9967e-05
0.000306422
-0.00028655
-0.000250987
-0.000266673
3.07441e-05
0.000252141
-0.000236741
-1.54001e-05
1.2264e-05
0.000239877
-0.000274029
-1.25847e-05
0.000255697
-6.72025e-06
0.000316787
-1.19637e-05
0.000298951
-0.000287132
-4.8674e-05
0.000247437
-0.000235621
0.000257601
-1.99361e-05
0.000135523
9.03592e-05
-0.000225894
0.000232992
3.03493e-05
0.000226759
-0.000258662
3.71393e-05
0.000270069
-0.000287052
1.66853e-05
0.000251273
-0.000239093
-1.31321e-05
0.000252225
-2.91201e-05
-0.000257265
2.56481e-05
0.000231617
-0.000228005
-2.92601e-05
0.000259765
-0.000233571
-2.61941e-05
0.000258721
-0.000266973
2.43424e-06
0.000289009
1.17329e-06
-0.000290823
0.000248649
-0.000232684
-1.85921e-05
0.000308833
-0.000300809
-7.95388e-06
0.000265411
-0.000107121
-0.000266897
2.56761e-05
0.000241221
-3.48881e-05
-0.000232009
-0.000266393
2.51161e-05
0.000241277
-1.15945e-05
-0.000266634
0.000278287
-3.45241e-05
-0.000231869
-0.000261835
1.81214e-05
-0.000266281
2.43881e-05
0.000241893
-0.00028547
-2.20029e-05
-0.000306922
2.76314e-05
0.000279721
-3.34041e-05
-0.000232877
-0.000170701
-0.000258133
2.94001e-05
0.000228733
0.000308306
-0.000309394
-0.000195805
0.000209049
-3.29281e-05
-0.000225205
0.000197685
-0.000279474
8.17834e-05
0.000285292
2.25032e-05
-0.000301953
1.76961e-05
0.000285905
-0.000280774
-4.74904e-06
-0.000257125
0.000231617
2.55081e-05
0.000163416
2.87651e-05
-0.000192715
-0.000266953
2.81681e-05
0.000238785
-0.000227361
-2.97641e-05
-3.67361e-05
-0.000230217
0.000275437
0.000298602
1.91385e-05
-0.000277267
-3.2238e-05
0.000310259
-0.000258679
-1.08128e-05
0.000297855
-0.000287479
1.50644e-05
-0.000301835
0.000286764
-0.000230609
-0.000307172
0.000287067
0.000263005
-2.53421e-05
-0.000280088
1.36081e-05
0.000165719
0.00023022
1.90748e-05
-0.000250173
-0.000194951
0.000161161
0.000236738
1.31517e-05
-0.00024989
-0.00025833
2.66093e-05
0.000231721
-1.09228e-05
0.000247661
5.74002e-06
0.000246877
-3.19817e-05
-0.000226348
0.000299421
-0.000285569
-1.38826e-05
0.000228024
-0.000226666
0.000289651
0.000237685
1.98521e-05
-0.000257537
-1.24236e-05
0.000250108
0.000246636
1.50389e-05
-0.000305756
1.49808e-05
0.00024448
2.18905e-05
3.19248e-05
-0.000201229
-0.000287328
-1.77423e-05
-0.000182869
0.000295177
-0.000151985
0.00018779
-3.36679e-05
3.10255e-05
-0.000203376
0.000171828
-0.000168163
0.000259149
-0.000239236
-1.99137e-05
0.000260669
-0.000271709
-0.000240283
0.000229923
-2.19273e-05
0.000301774
-0.000279233
0.000307859
-0.000292819
0.000242117
1.77241e-05
-0.000224975
0.00024443
-1.94545e-05
1.61001e-05
-0.000241075
-7.00003e-06
0.000260989
-0.000297192
4.91392e-06
0.000292289
-0.000174497
0.000160217
-1.74105e-05
-6.29604e-06
-0.000290891
-1.68725e-05
-0.000285016
4.28402e-06
-0.000303583
0.000136938
-0.000257466
2.36778e-05
0.00023376
0.000238197
1.32441e-05
-3.08121e-05
-0.000226625
-3.30518e-05
-0.000291432
2.03151e-05
-0.000226646
0.000205127
0.000254969
-0.000233465
-2.15041e-05
-0.000198364
0.000219337
-0.000184245
-7.29817e-06
0.000205873
0.000139209
0.000140474
3.89678e-06
0.000270001
0.000280333
-0.000304206
3.25142e-06
0.000244404
-1.97402e-05
0.00029815
-0.000278528
-0.000302394
0.000287538
1.48158e-05
-0.000258301
0.000230077
2.82241e-05
-2.64041e-05
-0.000231897
0.000299989
-0.000300107
0.000267604
-2.01307e-05
0.000304335
-0.000285272
0.000286343
-4.00658e-07
-0.000256873
0.000256873
-0.000268937
0.000296633
-0.000147747
-6.79724e-05
-6.9148e-06
0.000295332
-0.000288215
-0.000297807
0.000290278
0.000291422
-0.000278493
0.000289863
-0.000305488
1.49157e-05
3.43579e-05
-0.000239791
0.000215692
2.21938e-05
-1.45714e-05
-0.000246341
0.000228122
-1.43489e-05
0.000298286
-0.000283949
0.000263481
-1.96001e-05
0.000254224
-0.000235464
-1.87601e-05
-3.10373e-05
-0.000274111
0.000305488
1.438e-05
-0.000297197
0.000282781
-1.45881e-05
0.000233465
-0.000218877
0.000200497
-0.000295396
0.000283205
-1.9265e-05
0.000304751
-0.000285555
0.00025102
-2.68993e-05
0.000297379
-0.000270307
-0.000295952
0.000269062
1.07156e-05
0.000244749
-0.000255465
0.000305189
-0.000312072
6.8399e-06
1.85521e-05
1.48672e-05
0.000286172
-0.000301069
6.28487e-06
0.000282146
2.37445e-06
-0.000318509
-0.000290639
0.000304936
-0.000242481
0.000243657
8.45603e-06
-0.0002264
0.000242772
-0.000293541
0.000274223
0.000284846
-0.000146179
-8.03171e-05
0.00029453
1.44197e-05
3.17286e-05
-0.000194374
0.000163148
-0.000274645
0.000257293
-0.000219535
0.00024982
0.000243411
1.92865e-05
-0.000262697
0.000236019
2.31309e-05
-0.000301249
0.000282629
0.000312444
-1.79007e-05
0.000237945
-0.000257069
1.91241e-05
-0.000222494
0.000247459
0.000294366
1.79697e-05
-0.000162895
-1.46266e-05
0.000298013
-0.000283664
-0.000141484
-0.000266415
0.000159993
0.000106423
-0.000309713
0.000294922
1.33739e-05
-0.000258699
0.000241826
1.68729e-05
-0.000151141
0.000156266
-0.000306452
0.00028888
1.80056e-05
-0.000218497
0.000180172
-9.69084e-06
0.000253101
2.05437e-05
1.7666e-05
-0.000305008
0.00028735
-0.000300221
-7.11112e-06
0.000307607
-0.000249229
0.000220109
-0.000201153
-8.52603e-05
-0.0002715
0.000252171
0.00030434
-0.000286757
-0.000191786
1.8067e-05
1.50706e-05
0.000284393
-0.000299784
-8.80603e-05
0.000239233
-0.000303371
1.95005e-05
0.000283935
-0.000209303
-2.86613e-06
-0.000297285
-0.00016337
2.05297e-05
0.000303149
-0.000288502
-1.43721e-05
-0.000174521
-0.000299141
-0.000173563
-2.23608e-05
0.000243528
0.000289231
1.72066e-05
0.000252869
5.78676e-05
-0.00028616
-0.000247213
-0.000272788
-2.41016e-05
-0.00027403
0.000300302
-0.000264961
0.000282276
-0.000174257
-4.09025e-05
0.000210133
0.000197569
1.56521e-05
-0.000213221
-1.24813e-05
-0.000285782
0.000298319
1.83597e-05
1.85968e-05
-0.000305419
0.000286773
0.000253345
-1.71361e-05
-0.000236209
1.89678e-05
-0.000305024
0.000286021
2.03561e-05
0.000232989
0.000216385
-2.46121e-05
-0.000191773
1.5826e-05
0.000282637
-0.000298404
-0.000247247
0.000116792
-0.00030346
1.85177e-05
0.000284917
0.000215892
-5.0817e-05
-0.000298353
1.22313e-05
0.000285327
0.000255837
-2.19801e-05
-0.000233857
-0.000302626
0.000105839
0.000234529
1.70521e-05
-0.000251581
0.000280109
1.68442e-05
0.000304362
-0.000285381
1.78123e-05
-0.000299257
0.000233512
1.84916e-05
-0.000252004
-1.9489e-05
-1.42567e-05
0.00029824
-0.000284042
-0.000281833
0.0002993
-0.000278021
0.000291973
-0.000304389
1.28191e-05
0.000249741
-1.62291e-05
1.14944e-05
0.000250041
-1.55121e-05
0.000298737
-0.00028285
3.95922e-05