/*--------------------------------*- C++ -*----------------------------------*\
  =========                 |
  \\      /  F ield         | OpenFOAM: The Open Source CFD Toolbox
   \\    /   O peration     | Website:  https://openfoam.org
    \\  /    A nd           | Version:  12
     \\/     M anipulation  |
\*---------------------------------------------------------------------------*/
FoamFile
{
    format      ascii;
    class       volScalarField;
    location    "8.1";
    object      p;
}
// * * * * * * * * * * * * * * * * * * * * * * * * * * * * * * * * * * * * * //

dimensions      [1 -1 -2 0 0 0 0];

internalField   nonuniform List<scalar> 
9801
(
0.647276
0.648027
0.648875
0.651604
0.655805
0.664293
0.672633
0.678084
0.682191
0.685619
0.688921
0.690509
0.690258
0.691798
0.694844
0.699719
0.709135
0.718123
0.72377
0.728002
0.731766
0.734809
0.734891
0.734892
0.737289
0.740879
0.747088
0.757942
0.767361
0.773161
0.777537
0.781497
0.783975
0.782219
0.782362
0.785384
0.789747
0.797513
0.810248
0.820453
0.826501
0.831079
0.835218
0.835583
0.832111
0.833762
0.837833
0.843222
0.854417
0.869347
0.879223
0.885513
0.890489
0.893853
0.889105
0.886374
0.890004
0.895179
0.903489
0.920533
0.936946
0.94609
0.952694
0.958237
0.956676
0.947796
0.948054
0.953704
0.961856
0.978543
1.00166
1.01728
1.02666
1.03443
1.03853
1.02669
1.01847
1.02345
1.03302
1.05327
1.08632
1.11029
1.12509
1.13671
1.14571
1.13545
1.11645
1.11977
1.13631
1.16876
1.22406
1.27003
1.30521
1.34121
1.37114
1.38012
1.37456
2.22894
7.60743
0.65295
0.654258
0.655241
0.657766
0.661601
0.670597
0.679654
0.685201
0.689105
0.692324
0.695098
0.696295
0.696227
0.697767
0.700553
0.704991
0.715017
0.724733
0.730579
0.734763
0.738265
0.741027
0.741252
0.741157
0.743205
0.746358
0.751773
0.763147
0.773251
0.779263
0.783658
0.787426
0.78984
0.788448
0.788522
0.791239
0.795059
0.802117
0.815491
0.826069
0.832206
0.836812
0.840797
0.841221
0.8382
0.839495
0.843097
0.847784
0.858299
0.873906
0.884196
0.890538
0.895511
0.898851
0.894811
0.892109
0.895089
0.899734
0.906775
0.923473
0.940659
0.950358
0.957192
0.962797
0.962429
0.954045
0.953366
0.958366
0.965382
0.980525
1.0042
1.02049
1.03003
1.03784
1.04276
1.03291
1.02419
1.02805
1.03669
1.05216
1.08348
1.10968
1.12596
1.13871
1.15018
1.14525
1.1256
1.12535
1.14018
1.16503
1.21264
1.25613
1.29018
1.32428
1.3495
1.34877
1.31191
2.13115
7.70339
0.654958
0.656517
0.657632
0.660192
0.6639
0.673129
0.682483
0.687849
0.691543
0.694606
0.697201
0.698334
0.698509
0.700189
0.702989
0.707208
0.717324
0.72751
0.733407
0.7375
0.740883
0.743677
0.744127
0.743535
0.745312
0.748401
0.753402
0.764802
0.775572
0.781824
0.786291
0.790097
0.79289
0.791768
0.791253
0.7937
0.797375
0.803763
0.817155
0.828258
0.83459
0.839321
0.843486
0.844766
0.841641
0.842129
0.845394
0.849798
0.85915
0.874959
0.885897
0.892473
0.897607
0.901782
0.899457
0.895775
0.897785
0.902053
0.908146
0.923275
0.941525
0.952089
0.959209
0.96506
0.966759
0.959215
0.956838
0.961018
0.967537
0.978352
1.00144
1.02052
1.03112
1.0393
1.0458
1.03963
1.02917
1.0307
1.03867
1.04972
1.07673
1.10945
1.129
1.14214
1.15406
1.15431
1.1338
1.12821
1.14158
1.1617
1.20028
1.24871
1.28619
1.31977
1.34878
1.34972
1.3057
2.09126
7.69622
0.658229
0.659647
0.660931
0.663577
0.667195
0.676221
0.685776
0.691228
0.694949
0.698038
0.700675
0.70191
0.702206
0.703898
0.706652
0.710491
0.720033
0.730577
0.736613
0.740693
0.744066
0.74691
0.747395
0.746804
0.748619
0.751792
0.756374
0.767348
0.778875
0.785428
0.7899
0.793667
0.796438
0.795136
0.794255
0.796678
0.800417
0.806171
0.819347
0.831549
0.838284
0.84308
0.847239
0.84884
0.845066
0.844712
0.847909
0.852328
0.860224
0.876475
0.88923
0.896371
0.90166
0.906235
0.905102
0.899378
0.900051
0.904292
0.910011
0.922742
0.942783
0.955258
0.962771
0.968668
0.972061
0.96531
0.959823
0.962785
0.969217
0.977678
0.998953
1.02232
1.0347
1.0431
1.05047
1.04911
1.03543
1.03224
1.03948
1.04976
1.06892
1.10341
1.12816
1.14275
1.155
1.16225
1.14741
1.13347
1.14086
1.15953
1.18595
1.22835
1.26731
1.30072
1.33245
1.3455
1.3137
2.06571
7.71175
0.661511
0.662842
0.664168
0.666846
0.670388
0.67909
0.688835
0.694519
0.698389
0.701611
0.704406
0.705729
0.705747
0.707187
0.709819
0.713308
0.721898
0.732897
0.739413
0.743691
0.747236
0.75033
0.751167
0.750653
0.752323
0.755351
0.759342
0.769137
0.781255
0.788243
0.792782
0.79655
0.799381
0.798408
0.797542
0.799847
0.803481
0.808499
0.820689
0.833896
0.841149
0.84597
0.849978
0.851894
0.848495
0.847639
0.850654
0.855062
0.861796
0.87743
0.891856
0.899586
0.90492
0.909429
0.909622
0.903154
0.902263
0.906092
0.911669
0.921743
0.941943
0.957033
0.965388
0.971517
0.976525
0.973053
0.964109
0.964257
0.970122
0.977602
0.99414
1.02042
1.03645
1.04565
1.05349
1.05713
1.04521
1.0355
1.03919
1.04903
1.06235
1.09198
1.12438
1.14391
1.15749
1.16938
1.16574
1.14631
1.14146
1.15502
1.17586
1.21083
1.25128
1.28411
1.31279
1.33558
1.31566
2.05819
7.72221
0.66456
0.665975
0.667436
0.670149
0.673681
0.682245
0.692259
0.698103
0.702005
0.70525
0.708054
0.709208
0.708735
0.709988
0.712661
0.716166
0.724214
0.735702
0.742745
0.747214
0.750893
0.754148
0.755141
0.754024
0.755229
0.758125
0.761877
0.770564
0.783391
0.791221
0.796075
0.800046
0.803352
0.80286
0.801107
0.80283
0.806288
0.810829
0.821622
0.835621
0.843771
0.848963
0.853293
0.8565
0.854058
0.851265
0.853409
0.857587
0.86342
0.877595
0.893528
0.902212
0.907778
0.912607
0.915126
0.909383
0.905134
0.907767
0.913063
0.921216
0.94015
0.958675
0.968412
0.974706
0.980394
0.981129
0.970858
0.966205
0.970627
0.977645
0.989456
1.01549
1.03793
1.0496
1.05769
1.06386
1.05696
1.04268
1.04074
1.04857
1.05917
1.07883
1.11339
1.14012
1.15705
1.17109
1.17957
1.16597
1.14947
1.15187
1.16751
1.19192
1.22926
1.26327
1.28952
1.31198
1.31367
2.06759
7.73227
0.667867
0.669437
0.670709
0.673385
0.676754
0.684984
0.69554
0.701637
0.705462
0.708558
0.711194
0.712111
0.711335
0.712541
0.715298
0.718945
0.727085
0.739133
0.746585
0.751023
0.754547
0.757599
0.75849
0.756589
0.757287
0.760128
0.764042
0.772436
0.785913
0.794587
0.799635
0.803656
0.807219
0.807774
0.804592
0.804905
0.807973
0.81227
0.82183
0.836837
0.846326
0.851974
0.856604
0.860799
0.860678
0.855844
0.855656
0.859059
0.863952
0.875486
0.893312
0.904117
0.910359
0.915557
0.919945
0.916909
0.909995
0.910236
0.914847
0.920989
0.935521
0.957736
0.971024
0.977993
0.983758
0.986806
0.978476
0.970768
0.972606
0.978822
0.986774
1.00601
1.03442
1.05159
1.06114
1.06888
1.07015
1.05544
1.04585
1.04818
1.05732
1.06983
1.09743
1.13112
1.15388
1.1696
1.18336
1.18554
1.16724
1.15656
1.16316
1.17952
1.2076
1.24369
1.27038
1.28948
1.30162
2.08467
7.7445
0.671561
0.673281
0.674121
0.676646
0.679796
0.687182
0.698142
0.704707
0.70861
0.711699
0.714391
0.715742
0.714979
0.715829
0.718472
0.721986
0.729443
0.741855
0.749927
0.754447
0.757857
0.760802
0.762184
0.760215
0.760069
0.762643
0.766381
0.773941
0.78787
0.797756
0.803171
0.807186
0.810751
0.812424
0.808938
0.80751
0.809904
0.81386
0.821396
0.83718
0.849301
0.855772
0.860458
0.864697
0.866269
0.860773
0.858143
0.860399
0.864817
0.872969
0.891436
0.906516
0.914264
0.919622
0.924462
0.924363
0.916173
0.913652
0.916733
0.921951
0.93079
0.952719
0.971995
0.981288
0.987485
0.992756
0.989043
0.978314
0.975674
0.979552
0.98619
0.99701
1.02383
1.04983
1.06354
1.07248
1.07974
1.07344
1.05531
1.05077
1.05663
1.06663
1.08287
1.11504
1.14457
1.1642
1.17932
1.19216
1.19063
1.17167
1.16373
1.17199
1.1889
1.21912
1.25054
1.27155
1.28735
2.10921
7.75752
0.67546
0.677323
0.677622
0.679856
0.682694
0.688642
0.699724
0.707295
0.7116
0.714949
0.717947
0.720003
0.719343
0.719762
0.722122
0.725242
0.730792
0.742732
0.75199
0.756966
0.760668
0.76397
0.766309
0.764797
0.763946
0.766114
0.769521
0.775054
0.788151
0.799801
0.805907
0.810162
0.813878
0.816576
0.81395
0.811159
0.812789
0.816398
0.821903
0.836087
0.851317
0.859204
0.86412
0.868287
0.870877
0.86616
0.861378
0.862624
0.866706
0.87253
0.8878
0.907415
0.917769
0.923662
0.928523
0.930696
0.923311
0.917381
0.918544
0.922968
0.929041
0.944699
0.969646
0.984125
0.991714
0.997771
0.999964
0.98908
0.97982
0.980179
0.985512
0.993014
1.01008
1.04152
1.06321
1.0745
1.08287
1.08761
1.0748
1.05924
1.05825
1.06517
1.07561
1.09676
1.13019
1.15638
1.17443
1.18928
1.19941
1.19354
1.17512
1.16894
1.17725
1.19492
1.2261
1.25233
1.27168
2.13652
7.76996
0.679316
0.681413
0.681078
0.682897
0.685447
0.689816
0.700431
0.709704
0.714824
0.71855
0.721767
0.724368
0.724165
0.723807
0.725545
0.728112
0.731775
0.741996
0.753409
0.75968
0.763932
0.767577
0.770624
0.770012
0.7683
0.769888
0.772793
0.776509
0.786619
0.800605
0.808394
0.81307
0.817008
0.820443
0.819421
0.815518
0.816366
0.819567
0.823709
0.83364
0.851059
0.861619
0.867109
0.871354
0.874784
0.872324
0.866014
0.866074
0.869659
0.874481
0.884029
0.904738
0.919563
0.926632
0.93158
0.935419
0.931764
0.922473
0.920978
0.924463
0.930002
0.939
0.962401
0.98467
0.995442
1.00217
1.00774
1.003
0.987602
0.98256
0.986068
0.992872
1.00168
1.02543
1.05634
1.07385
1.08394
1.09243
1.09507
1.07756
1.06379
1.06531
1.07359
1.08558
1.11099
1.14249
1.16538
1.18222
1.19677
1.20447
1.19568
1.17696
1.17147
1.17812
1.19682
1.2264
1.25173
2.1671
7.78216
0.68301
0.685406
0.684341
0.685706
0.688139
0.69162
0.700969
0.712109
0.718275
0.722237
0.725537
0.728445
0.729213
0.727663
0.728171
0.730399
0.733562
0.741399
0.754689
0.762881
0.767585
0.771344
0.774696
0.775647
0.773026
0.773012
0.775104
0.778291
0.784903
0.799915
0.810823
0.816462
0.82065
0.824371
0.825332
0.820949
0.820035
0.822404
0.825862
0.831626
0.847643
0.862741
0.870035
0.874759
0.8789
0.879735
0.873325
0.870858
0.873185
0.877068
0.882366
0.89779
0.918437
0.928781
0.934481
0.939374
0.940939
0.931527
0.925439
0.927277
0.931845
0.937633
0.951339
0.978406
0.995731
1.00387
1.00985
1.01406
1.00445
0.990534
0.988809
0.993158
1.00022
1.0117
1.04084
1.06933
1.08446
1.09387
1.10134
1.09917
1.08053
1.0703
1.07342
1.08208
1.09592
1.1243
1.1535
1.17388
1.18927
1.20267
1.20755
1.19641
1.17694
1.17003
1.17527
1.19445
1.22603
2.19114
7.79111
0.686435
0.689204
0.687617
0.68864
0.691003
0.694135
0.701864
0.714199
0.721605
0.725763
0.729034
0.731923
0.733324
0.730953
0.730605
0.732907
0.73615
0.742192
0.755694
0.766013
0.771311
0.775013
0.778296
0.780319
0.777269
0.775252
0.777079
0.780421
0.785242
0.798554
0.81299
0.820211
0.824549
0.828297
0.830811
0.827125
0.823456
0.824407
0.827516
0.831809
0.843032
0.862047
0.873021
0.878791
0.883156
0.886584
0.882479
0.87579
0.875303
0.877867
0.882171
0.89067
0.91267
0.930321
0.938461
0.943599
0.948066
0.944362
0.933188
0.930185
0.932244
0.936914
0.943832
0.964388
0.991585
1.00562
1.01351
1.02015
1.02186
1.00644
0.994482
0.995068
1.00043
1.00771
1.0221
1.05393
1.07899
1.09196
1.10113
1.1091
1.10542
1.08561
1.07682
1.08086
1.0901
1.10654
1.13619
1.16243
1.18084
1.19529
1.207
1.20975
1.19642
1.17467
1.16514
1.1685
1.1953
2.19907
7.79557
0.689821
0.693154
0.69136
0.691905
0.694112
0.697012
0.702959
0.715453
0.724254
0.728732
0.732
0.734893
0.736751
0.734887
0.734075
0.736196
0.739281
0.743837
0.755613
0.768144
0.774352
0.778072
0.7812
0.783609
0.7817
0.778657
0.780137
0.783393
0.787372
0.796859
0.813468
0.823258
0.828195
0.831819
0.834901
0.833434
0.827455
0.826901
0.829793
0.833691
0.8404
0.858564
0.874986
0.882547
0.887257
0.891127
0.890795
0.881584
0.877248
0.879197
0.883157
0.888661
0.904109
0.928558
0.941655
0.948128
0.953137
0.955235
0.94492
0.933996
0.933045
0.936639
0.942188
0.952534
0.980172
1.00514
1.0165
1.02327
1.02908
1.02682
1.00962
1.00012
1.00125
1.00634
1.01394
1.03305
1.06641
1.08923
1.10162
1.11073
1.11678
1.10955
1.09063
1.08338
1.08769
1.09697
1.11599
1.14669
1.1711
1.18767
1.20033
1.20974
1.21026
1.19497
1.1711
1.15479
1.16304
2.18163
7.80086
0.693388
0.697236
0.695559
0.695382
0.697275
0.699965
0.704113
0.715269
0.726081
0.731544
0.735167
0.738277
0.74076
0.739842
0.738452
0.739974
0.742638
0.745777
0.753736
0.768004
0.77641
0.780885
0.784453
0.787599
0.787449
0.783768
0.784115
0.786849
0.790218
0.795328
0.810207
0.824331
0.830915
0.834998
0.8386
0.839936
0.833974
0.830677
0.832691
0.836347
0.840635
0.852285
0.872869
0.884318
0.889917
0.894055
0.896887
0.89094
0.882213
0.881856
0.885509
0.890334
0.897875
0.919867
0.94127
0.950979
0.956779
0.961602
0.959758
0.944598
0.937009
0.939155
0.944457
0.950317
0.963965
0.994133
1.01479
1.02419
1.03107
1.03716
1.03135
1.01212
1.00446
1.00743
1.01391
1.02262
1.0451
1.07725
1.09719
1.10861
1.11771
1.12372
1.11503
1.09522
1.08846
1.09308
1.10294
1.12466
1.15528
1.17768
1.19264
1.20411
1.2109
1.20894
1.19209
1.16207
1.14304
2.14
7.80732
0.696872
0.701061
0.69993
0.698877
0.700207
0.70264
0.705758
0.714187
0.727365
0.734791
0.738831
0.742114
0.745005
0.745504
0.743065
0.743087
0.744871
0.747599
0.752376
0.766053
0.778567
0.784624
0.788502
0.791985
0.794021
0.790502
0.788266
0.789526
0.791925
0.795368
0.805045
0.823005
0.833294
0.838577
0.842595
0.846009
0.843301
0.836629
0.836225
0.838724
0.842113
0.847724
0.865477
0.883834
0.89211
0.897199
0.901692
0.902453
0.892601
0.88732
0.889072
0.892549
0.897003
0.907544
0.9328
0.950439
0.958161
0.963642
0.968542
0.963957
0.949201
0.944544
0.946614
0.950813
0.957009
0.975127
1.00574
1.02368
1.0323
1.03847
1.04331
1.03577
1.01814
1.01233
1.01517
1.02115
1.0308
1.05656
1.08703
1.10498
1.11576
1.12454
1.12904
1.11901
1.10013
1.09365
1.09767
1.10726
1.13084
1.16162
1.18273
1.19602
1.20562
1.20966
1.20647
1.18213
1.14538
2.08575
7.81446
0.700032
0.704503
0.704425
0.702504
0.703066
0.70534
0.708264
0.714035
0.72754
0.737644
0.742545
0.745785
0.748648
0.750363
0.747225
0.745146
0.746797
0.749819
0.753656
0.763782
0.779596
0.788193
0.792673
0.796075
0.799043
0.797337
0.791646
0.790911
0.793312
0.796864
0.80261
0.818961
0.834935
0.842282
0.846685
0.85049
0.851894
0.844612
0.83952
0.840305
0.84318
0.847258
0.857189
0.879386
0.894466
0.901424
0.906203
0.910225
0.906296
0.895094
0.891719
0.893008
0.896386
0.901616
0.917554
0.944782
0.960082
0.967534
0.973351
0.977097
0.967755
0.952475
0.948654
0.951394
0.956125
0.96284
0.983964
1.0142
1.03049
1.03936
1.04688
1.05191
1.04154
1.02292
1.01756
1.02126
1.02797
1.03876
1.06598
1.09445
1.1109
1.12153
1.13054
1.136
1.12482
1.10412
1.09699
1.10068
1.11003
1.1347
1.16537
1.1853
1.19725
1.20447
1.20741
1.19837
1.16827
2.04532
7.82421
0.703087
0.707879
0.708999
0.706964
0.706562
0.708582
0.711379
0.715238
0.726127
0.739064
0.745414
0.748918
0.751793
0.754137
0.752489
0.748951
0.74989
0.752765
0.756142
0.76234
0.777695
0.790142
0.795878
0.799385
0.80229
0.803142
0.797143
0.793965
0.796013
0.799499
0.803519
0.81371
0.833155
0.844688
0.850167
0.853885
0.857053
0.854116
0.84494
0.842835
0.845409
0.849176
0.854198
0.87
0.893112
0.904754
0.910518
0.914733
0.916662
0.906786
0.895569
0.894112
0.897109
0.901709
0.908675
0.930687
0.957337
0.97007
0.976408
0.981294
0.983457
0.971078
0.95642
0.953334
0.955994
0.961022
0.969243
0.995897
1.02664
1.04116
1.04846
1.05444
1.05761
1.04596
1.02858
1.02373
1.02677
1.03296
1.0453
1.07588
1.10412
1.1197
1.12944
1.13752
1.14099
1.12862
1.1077
1.09987
1.10279
1.11148
1.13655
1.16713
1.18603
1.19622
1.20197
1.20084
1.19289
2.03392
7.8362
0.706294
0.711449
0.713462
0.712348
0.7107
0.712021
0.714447
0.717243
0.723846
0.738045
0.7472
0.751807
0.755247
0.758296
0.75901
0.754935
0.754162
0.756279
0.759107
0.76246
0.772752
0.789185
0.797624
0.802056
0.80566
0.808593
0.805655
0.79971
0.800023
0.802823
0.806109
0.810609
0.825847
0.844001
0.852099
0.856679
0.860634
0.862774
0.854812
0.847777
0.848622
0.851897
0.855638
0.862117
0.883046
0.903565
0.912391
0.917597
0.921696
0.921162
0.907434
0.899194
0.900705
0.904944
0.909288
0.916918
0.942043
0.965993
0.976357
0.982641
0.98833
0.989669
0.974321
0.960081
0.959012
0.963866
0.969964
0.979243
1.00697
1.03414
1.04645
1.05386
1.06083
1.06446
1.05156
1.03357
1.02879
1.03274
1.04001
1.05471
1.08573
1.11142
1.12545
1.1348
1.14278
1.14668
1.13335
1.1109
1.10204
1.10425
1.11208
1.13682
1.16674
1.18436
1.19362
1.19511
1.20565
2.04857
7.84965
0.709506
0.71496
0.717333
0.71796
0.715224
0.715061
0.716788
0.719355
0.723266
0.735173
0.748783
0.755343
0.759038
0.762218
0.764651
0.761987
0.758318
0.758633
0.760598
0.763656
0.769138
0.784929
0.799286
0.805854
0.809758
0.813224
0.814435
0.807997
0.804124
0.804942
0.80726
0.810666
0.818188
0.838396
0.853726
0.860463
0.864768
0.868551
0.866923
0.856276
0.852197
0.853693
0.856491
0.860486
0.86989
0.894171
0.912054
0.920107
0.925849
0.930395
0.927771
0.913216
0.906769
0.907348
0.909714
0.913944
0.92444
0.952515
0.97434
0.983896
0.989718
0.995171
0.996323
0.980903
0.969008
0.968353
0.971029
0.975625
0.986195
1.01587
1.04169
1.05385
1.06124
1.06766
1.07116
1.05919
1.04168
1.03671
1.03939
1.04525
1.06036
1.09237
1.11775
1.13165
1.14076
1.14813
1.15137
1.13824
1.11463
1.10381
1.10467
1.11118
1.13512
1.16412
1.18141
1.18656
1.20652
2.08604
7.866
0.712167
0.718264
0.720796
0.72289
0.720456
0.718191
0.719515
0.722128
0.725192
0.732624
0.748116
0.757961
0.762567
0.765604
0.768383
0.768632
0.763005
0.761144
0.763155
0.766184
0.769858
0.779759
0.798196
0.808814
0.813788
0.817099
0.819943
0.817153
0.808511
0.806704
0.809153
0.812613
0.816908
0.829629
0.851518
0.863412
0.868943
0.87267
0.875476
0.86894
0.857889
0.855494
0.857684
0.861146
0.865774
0.879271
0.905938
0.922287
0.929518
0.935014
0.939003
0.931615
0.915075
0.908828
0.910785
0.914867
0.919987
0.932426
0.961304
0.981974
0.991801
0.999072
1.00462
1.00325
0.985798
0.972486
0.971308
0.975415
0.981093
0.993061
1.023
1.04765
1.06003
1.06891
1.07621
1.07928
1.06597
1.04611
1.03944
1.04239
1.0489
1.06495
1.09763
1.12297
1.13661
1.14576
1.15318
1.15666
1.14322
1.11742
1.10403
1.10344
1.10878
1.13186
1.16029
1.17378
1.20016
2.1333
7.88121
0.714315
0.721669
0.72432
0.727008
0.726618
0.722798
0.722875
0.7251
0.727868
0.731708
0.743809
0.758143
0.764741
0.768451
0.771686
0.774259
0.770773
0.765705
0.766438
0.76917
0.772354
0.776911
0.791473
0.808409
0.81587
0.81979
0.823128
0.824845
0.817531
0.811085
0.812212
0.815645
0.819369
0.824303
0.840842
0.861696
0.871285
0.876371
0.880018
0.881199
0.870626
0.86075
0.859965
0.862851
0.867045
0.872855
0.891054
0.917535
0.930846
0.937051
0.940757
0.943449
0.934936
0.919131
0.914552
0.916562
0.920486
0.926123
0.942148
0.9733
0.992529
1.00058
1.0055
1.00964
1.00805
0.990098
0.977496
0.976735
0.980619
0.986551
1.00074
1.03352
1.05806
1.06893
1.07545
1.08097
1.0835
1.07032
1.05053
1.04391
1.04637
1.05276
1.06931
1.10242
1.12858
1.14241
1.15072
1.15693
1.15952
1.14705
1.1199
1.10343
1.10102
1.10502
1.12855
1.15197
1.18493
2.18051
7.89206
0.715808
0.725215
0.728028
0.730898
0.732606
0.729142
0.726764
0.727897
0.73006
0.732704
0.738873
0.755186
0.766984
0.772381
0.77577
0.778949
0.779628
0.773193
0.770548
0.772018
0.774367
0.777195
0.783782
0.802536
0.817021
0.823392
0.827225
0.830599
0.829789
0.820431
0.817058
0.818662
0.821116
0.824184
0.830377
0.851065
0.870794
0.879338
0.884314
0.888004
0.886764
0.873273
0.86568
0.867008
0.870596
0.874079
0.87943
0.899412
0.924134
0.93531
0.941511
0.94682
0.950422
0.940708
0.924842
0.921085
0.924371
0.92887
0.93388
0.949966
0.979473
0.995818
1.00344
1.00926
1.01463
1.01327
0.996222
0.98436
0.984586
0.989578
0.995351
1.00849
1.03931
1.06114
1.07149
1.07881
1.08555
1.0894
1.07711
1.05714
1.04969
1.05176
1.05755
1.07271
1.1049
1.13109
1.14482
1.15301
1.15909
1.16181
1.15074
1.12266
1.10232
1.09723
1.10113
1.12097
1.16143
2.21454
7.89554
0.715897
0.72847
0.731742
0.7347
0.737234
0.736149
0.730886
0.729997
0.731898
0.734711
0.738484
0.749933
0.767205
0.775744
0.77989
0.783018
0.785672
0.782262
0.774847
0.773535
0.77549
0.778539
0.7825
0.793878
0.814854
0.826592
0.83176
0.835412
0.838073
0.83253
0.822353
0.819881
0.821702
0.824948
0.82899
0.838582
0.862403
0.879842
0.887371
0.892263
0.896074
0.892388
0.878353
0.872045
0.871952
0.8735
0.877325
0.884465
0.907991
0.93243
0.943665
0.949763
0.955167
0.957836
0.947216
0.932502
0.928537
0.929023
0.931729
0.937241
0.955664
0.985778
1.00296
1.01108
1.01735
1.02303
1.02217
1.00552
0.992996
0.990938
0.992646
0.997333
1.0117
1.04393
1.06767
1.07926
1.08674
1.09363
1.09786
1.08622
1.0645
1.05482
1.05551
1.05999
1.07278
1.10503
1.13287
1.14712
1.15506
1.16059
1.16317
1.15421
1.1262
1.10071
1.09235
1.09234
1.1319
2.22353
7.89533
0.714141
0.730551
0.735312
0.738259
0.740772
0.741975
0.73701
0.733394
0.734668
0.737393
0.740457
0.746232
0.76231
0.776761
0.783014
0.786312
0.789164
0.790084
0.782645
0.777157
0.778168
0.781176
0.784621
0.789753
0.805776
0.825643
0.834809
0.839365
0.84226
0.842952
0.832852
0.824134
0.824211
0.827408
0.831202
0.835433
0.847794
0.872893
0.88823
0.895176
0.899952
0.903578
0.896984
0.88035
0.874015
0.875634
0.879279
0.883801
0.892943
0.918712
0.941852
0.9523
0.957895
0.96257
0.964811
0.951804
0.934707
0.930278
0.933012
0.937706
0.944042
0.964107
0.994818
1.01225
1.02029
1.02592
1.03143
1.02932
1.00971
0.994408
0.992313
0.996347
1.00235
1.01814
1.05083
1.07547
1.08745
1.09445
1.10066
1.10442
1.09254
1.06895
1.0571
1.05727
1.06217
1.07466
1.10557
1.13381
1.14865
1.15645
1.1614
1.16334
1.15621
1.12929
1.10036
1.08227
1.0994
2.20043
7.88948
0.711306
0.730177
0.737672
0.741359
0.744112
0.74662
0.745096
0.739141
0.738441
0.740528
0.743222
0.746211
0.754538
0.772943
0.78424
0.789406
0.792747
0.7958
0.793764
0.784876
0.782832
0.784966
0.787833
0.7908
0.796621
0.815873
0.833436
0.840709
0.845251
0.84878
0.847884
0.836208
0.830236
0.831239
0.83397
0.837228
0.841562
0.856542
0.881704
0.894642
0.900299
0.904214
0.907382
0.900863
0.886075
0.881459
0.883683
0.887701
0.892005
0.901015
0.926566
0.947997
0.956882
0.962036
0.966125
0.968338
0.957438
0.942257
0.938737
0.94172
0.946649
0.952918
0.972165
1.00178
1.0178
1.02533
1.03003
1.03417
1.03387
1.01724
1.00303
1.00086
1.0042
1.00981
1.0242
1.05606
1.08062
1.09215
1.09897
1.1044
1.10801
1.09892
1.07642
1.06325
1.06191
1.06535
1.07522
1.10458
1.1336
1.14893
1.15633
1.16063
1.16206
1.15606
1.13177
1.09437
1.08266
2.1416
7.88305
0.709614
0.725379
0.73878
0.744559
0.747676
0.750376
0.752013
0.747155
0.742564
0.743002
0.74503
0.747776
0.751858
0.764385
0.783158
0.79247
0.796944
0.800218
0.802359
0.796001
0.788385
0.78771
0.789087
0.791583
0.795233
0.803857
0.825702
0.841916
0.848926
0.853497
0.856859
0.852922
0.839904
0.834745
0.836043
0.838969
0.84206
0.846652
0.863773
0.888315
0.90064
0.90712
0.912228
0.915428
0.907953
0.892952
0.888315
0.889805
0.892035
0.8958
0.905094
0.93119
0.9521
0.961565
0.968571
0.974019
0.976887
0.966602
0.950622
0.946055
0.947832
0.951023
0.956329
0.975149
1.0039
1.0201
1.0284
1.03571
1.04166
1.04296
1.02777
1.01121
1.00676
1.00879
1.01315
1.02526
1.05598
1.08157
1.09401
1.102
1.10933
1.11466
1.10814
1.08426
1.06754
1.06415
1.06701
1.07494
1.10199
1.13156
1.14744
1.15478
1.15894
1.15982
1.15539
1.12698
1.09242
2.07182
7.88637
0.710619
0.718846
0.735823
0.74642
0.750945
0.753613
0.756253
0.75609
0.749143
0.746312
0.747932
0.750836
0.753904
0.758966
0.774847
0.792407
0.800138
0.803859
0.806637
0.806771
0.797269
0.790807
0.79138
0.794073
0.797327
0.80143
0.812714
0.836009
0.850618
0.857059
0.860969
0.863416
0.856738
0.843742
0.839395
0.840294
0.842891
0.846548
0.852638
0.87336
0.898495
0.910177
0.915465
0.919564
0.922641
0.913758
0.897227
0.891175
0.89247
0.895798
0.900112
0.911326
0.940589
0.96265
0.971533
0.976624
0.981338
0.984453
0.973098
0.95533
0.948792
0.949981
0.953871
0.959529
0.979762
1.01196
1.03033
1.03828
1.04394
1.04972
1.05113
1.0352
1.016
1.00907
1.01078
1.01558
1.02604
1.05637
1.08693
1.10226
1.1096
1.11535
1.11942
1.11424
1.09142
1.07169
1.06584
1.06765
1.0736
1.09798
1.12886
1.14604
1.1535
1.15664
1.1577
1.14905
1.12842
2.02912
7.89482
0.712822
0.717059
0.727711
0.744905
0.753212
0.757326
0.760248
0.762991
0.759958
0.75269
0.751998
0.75416
0.756827
0.759447
0.765071
0.783679
0.799733
0.806472
0.810355
0.813419
0.81131
0.800018
0.795957
0.797722
0.800643
0.803635
0.807209
0.819697
0.843447
0.856463
0.862457
0.866684
0.869356
0.86196
0.84809
0.843754
0.845993
0.850002
0.854031
0.859821
0.881172
0.904597
0.914567
0.9197
0.923649
0.92661
0.91886
0.902542
0.896824
0.898986
0.903326
0.908426
0.919854
0.947631
0.967529
0.976111
0.981577
0.985484
0.988132
0.979282
0.961139
0.954047
0.955923
0.960819
0.967912
0.987699
1.01793
1.03534
1.04369
1.04935
1.05351
1.05571
1.04207
1.02194
1.01417
1.01566
1.02069
1.0311
1.05979
1.09012
1.10552
1.11319
1.11888
1.12309
1.11929
1.09775
1.07544
1.0671
1.06755
1.07245
1.09463
1.12536
1.14338
1.15062
1.15425
1.15098
1.15766
2.03026
7.90518
0.715096
0.718148
0.722197
0.73753
0.754109
0.761147
0.764871
0.767865
0.769447
0.762681
0.756581
0.75637
0.757696
0.760088
0.763379
0.771675
0.793146
0.808281
0.814668
0.818751
0.821491
0.816019
0.804508
0.80142
0.802305
0.80391
0.80679
0.811141
0.826801
0.851126
0.86373
0.869686
0.87441
0.877007
0.868698
0.855191
0.851893
0.853078
0.8547
0.857848
0.864471
0.886847
0.909543
0.919813
0.925805
0.931072
0.934655
0.927504
0.911266
0.905714
0.907037
0.90917
0.913005
0.923508
0.950351
0.97078
0.979932
0.985965
0.991523
0.995898
0.988731
0.970829
0.963656
0.964726
0.967579
0.972399
0.988679
1.01819
1.03707
1.046
1.05243
1.05835
1.06269
1.05241
1.03201
1.0226
1.02266
1.02609
1.0327
1.05777
1.0896
1.10718
1.11547
1.12097
1.12533
1.12453
1.10561
1.08073
1.06923
1.06794
1.07088
1.08928
1.12028
1.13909
1.14767
1.14657
1.16956
2.0608
7.91935
0.717498
0.72037
0.722983
0.730165
0.74911
0.763129
0.768813
0.771871
0.774674
0.773729
0.763845
0.758862
0.759793
0.762302
0.765237
0.769198
0.781147
0.803993
0.817182
0.822896
0.826524
0.828318
0.81946
0.806792
0.803724
0.80566
0.808632
0.812111
0.817684
0.83652
0.860551
0.872013
0.877252
0.88122
0.883767
0.873984
0.858473
0.853705
0.855485
0.858764
0.862673
0.87005
0.894238
0.918048
0.928811
0.934064
0.938629
0.942194
0.933687
0.915964
0.908274
0.90902
0.91244
0.916756
0.927326
0.955502
0.97845
0.989035
0.995067
1.00069
1.00443
0.996586
0.977695
0.966971
0.966259
0.969476
0.974089
0.989073
1.02107
1.04387
1.05461
1.06137
1.06771
1.07148
1.0626
1.04033
1.0262
1.02412
1.02775
1.03346
1.05492
1.08837
1.10892
1.11841
1.12441
1.12914
1.13016
1.1139
1.08576
1.06964
1.06635
1.06817
1.08381
1.11402
1.13446
1.13956
1.17
2.11306
7.93577
0.720893
0.723124
0.725542
0.728892
0.73902
0.75891
0.77038
0.775581
0.778676
0.78122
0.776305
0.765549
0.763286
0.76532
0.768217
0.771258
0.775444
0.78983
0.812179
0.823122
0.828184
0.831792
0.833335
0.823385
0.811296
0.809388
0.811874
0.81542
0.819049
0.824663
0.844285
0.866968
0.876774
0.881564
0.884921
0.887026
0.878857
0.864134
0.859587
0.861656
0.865379
0.869831
0.877525
0.901308
0.924056
0.934081
0.939458
0.942444
0.944934
0.939339
0.922563
0.914212
0.914928
0.91868
0.923714
0.934713
0.962118
0.984988
0.995623
1.0012
1.00482
1.00847
1.00366
0.984647
0.972264
0.971001
0.974674
0.980443
0.995064
1.02595
1.04988
1.06124
1.06739
1.07212
1.07557
1.06925
1.04716
1.03116
1.02772
1.03039
1.03587
1.05489
1.0886
1.11191
1.12234
1.12754
1.13102
1.13216
1.11958
1.09056
1.07019
1.06445
1.06523
1.0782
1.108
1.12431
1.16205
2.17032
7.94826
0.725889
0.72621
0.728261
0.730675
0.734509
0.747316
0.767719
0.778119
0.7829
0.786078
0.787346
0.778285
0.769114
0.768547
0.770362
0.772611
0.775533
0.780399
0.797257
0.819178
0.829602
0.834912
0.839192
0.840385
0.829383
0.817729
0.816173
0.818092
0.820159
0.82325
0.829253
0.849917
0.871761
0.881534
0.887062
0.891862
0.894774
0.887203
0.87248
0.867742
0.869374
0.871921
0.875107
0.88182
0.904508
0.927013
0.937109
0.942776
0.948002
0.952272
0.948813
0.932198
0.923084
0.923487
0.926458
0.930076
0.938393
0.963502
0.986692
0.997134
1.00316
1.00837
1.01378
1.01247
0.995529
0.982093
0.979939
0.982219
0.985994
0.996327
1.02488
1.05018
1.06218
1.0688
1.07428
1.07925
1.07677
1.05756
1.03949
1.03413
1.03564
1.03964
1.05425
1.08624
1.11095
1.12208
1.12762
1.13155
1.13353
1.12459
1.09653
1.07158
1.06244
1.06136
1.07358
1.09718
1.14242
2.21795
7.95103
0.732799
0.729316
0.73092
0.733641
0.736378
0.741024
0.756081
0.775854
0.785349
0.790023
0.792589
0.791935
0.780461
0.772223
0.772041
0.774631
0.777605
0.780897
0.786982
0.806
0.827377
0.837268
0.842098
0.84567
0.846585
0.834628
0.822052
0.819351
0.821519
0.824673
0.828318
0.835317
0.85724
0.879699
0.889854
0.894752
0.898692
0.901891
0.894033
0.878316
0.871512
0.87173
0.874519
0.878283
0.885623
0.909572
0.934023
0.94557
0.951154
0.956194
0.960626
0.956535
0.939516
0.928042
0.925999
0.928266
0.931914
0.939845
0.964918
0.990804
1.00418
1.01178
1.01842
1.02327
1.02223
1.00535
0.988086
0.982444
0.983891
0.98751
0.995471
1.02234
1.05158
1.06671
1.07483
1.08179
1.08674
1.08673
1.0692
1.04737
1.03799
1.03786
1.0406
1.05023
1.08058
1.109
1.12236
1.12829
1.13227
1.13488
1.12987
1.10393
1.07411
1.05956
1.05734
1.06356
1.11426
2.24271
7.94903
0.742663
0.734993
0.734768
0.737101
0.739608
0.741994
0.746123
0.761961
0.781639
0.790476
0.795078
0.798089
0.797177
0.785304
0.777791
0.778204
0.780927
0.784095
0.787234
0.792592
0.81175
0.832318
0.841186
0.845678
0.849238
0.851031
0.840718
0.82806
0.825467
0.827855
0.831354
0.834997
0.841254
0.862374
0.884331
0.894211
0.899528
0.903415
0.906479
0.90055
0.8845
0.876538
0.877098
0.880687
0.885374
0.892909
0.915078
0.939353
0.951287
0.957414
0.961245
0.96472
0.963259
0.946865
0.93313
0.930409
0.933426
0.938135
0.945984
0.96906
0.996873
1.01187
1.01897
1.02368
1.02749
1.02826
1.01355
0.993878
0.98612
0.987235
0.991609
0.999384
1.02347
1.05503
1.07335
1.08145
1.08677
1.09118
1.09243
1.07685
1.05218
1.03933
1.03791
1.04118
1.04973
1.07751
1.10794
1.12392
1.13036
1.13345
1.13508
1.13209
1.11059
1.07733
1.05724
1.04568
1.08163
2.22912
7.93756
0.752914
0.744786
0.739146
0.73956
0.740526
0.742424
0.745299
0.750499
0.768558
0.788656
0.797729
0.802725
0.806301
0.804335
0.791555
0.78432
0.784413
0.785889
0.787527
0.790431
0.796341
0.816669
0.837467
0.847032
0.85255
0.857135
0.85884
0.848668
0.835681
0.832681
0.833973
0.835661
0.838817
0.845085
0.866016
0.888337
0.898733
0.904286
0.909352
0.913123
0.909089
0.893495
0.885397
0.885895
0.88838
0.891268
0.896737
0.916716
0.94136
0.953873
0.960072
0.965002
0.969596
0.97046
0.956789
0.94263
0.939592