/*--------------------------------*- C++ -*----------------------------------*\
  =========                 |
  \\      /  F ield         | OpenFOAM: The Open Source CFD Toolbox
   \\    /   O peration     | Website:  https://openfoam.org
    \\  /    A nd           | Version:  12
     \\/     M anipulation  |
\*---------------------------------------------------------------------------*/
FoamFile
{
    format      ascii;
    class       volScalarField;
    location    "9.62";
    object      p;
}
// * * * * * * * * * * * * * * * * * * * * * * * * * * * * * * * * * * * * * //

dimensions      [1 -1 -2 0 0 0 0];

internalField   nonuniform List<scalar> 
22702
(
1
1
0.86963
1
1.0567
1
1.46969
1
1
0.667431
1.4717
1.46919
1
1.47085
0.886933
1
1
1
1.47159
1
1.47207
1
1.46868
0.641924
1.47088
0.647099
1
1.47475
0.659152
0.64786
1
1.47059
1
1
1
1.43501
1.46981
1.46875
1
1
0.668624
1
1.22937
1
1.47344
1
1
1
1
0.654904
1
0.650437
1
1.47184
1
1.47205
1
1
1
1
0.656591
1
1
0.656681
1
0.644207
1
1
1
0.661612
1
1.47299
1.2819
1
1.47275
1.49924
0.650334
1.47005
0.656369
1
1.47083
0.661514
1.46938
1.4717
1
1
1
1
0.932438
0.66753
1.46883
1
1
0.657515
1
1.47231
0.659114
1
1
1
1
1.22855
1.47038
0.676542
1
1
1.11371
1
0.660552
1
1.46943
1.47279
1
1
0.663497
0.663047
0.668078
1
1
1
1
1
0.916992
1
1.39947
1.04114
1.47327
1
1.47062
1.47176
1.47119
1.47323
1
0.661321
1
0.647098
1
1
1
1
1.47186
1
1
1
1
1.46965
1
1.02691
1
1
1
1
0.657978
1
1.01033
1
0.656478
1
1
1
1.46801
1
1.47162
0.622561
0.649782
1.47555
1.47495
1
1.06949
1.26626
1
1.47313
0.656475
1.43581
1
1
1
1
1.47107
1.38816
1
1.47169
0.653064
1.47271
1
0.673073
1
0.654005
0.640408
0.999787
1
1
1.4709
1
1
1.472
1
1.46862
1.47137
0.673385
1
1
0.659729
1.47171
1
1
1
1.47166
1
0.663046
1
1
1.47154
1.47179
1.46915
1
1.00004
1
1
1
1.4716
1
0.65224
1.49216
1.47212
1.47092
1
1
1
0.643789
1.4707
1.22498
1
1.47324
0.64392
0.649796
1.47333
1.46686
1
1.47879
0.672301
1.41552
1
1
1
1
1.47187
1
1.26491
1.04405
1
1
1.47238
0.662178
0.795303
1
1.46868
0.673776
1.47758
1
1
1
1
1
1
1
0.652166
0.786541
0.642234
1.47183
1
1
1
1
1.41635
1
0.653643
1
0.641642
0.659259
1.47111
0.638646
1.47201
1
1
1
0.997536
0.671497
0.645793
0.999999
1
0.634903
1
1.47158
0.677654
1
1
1.47218
0.613844
1
1.47014
0.644761
1.47238
1
0.646998
0.997658
1
1
1
0.652066
1
1
0.999999
1
1.00494
1.28146
1
0.694453
1
1
1
1
1
1
1
1.47295
1
1.47294
1
1
1
0.666996
1
1.46959
0.638119
1
1.38546
1
1
1.47377
1
1
1
1.4575
1
1
1.46134
1.47249
1
1.09775
1
1
0.65316
1
1
1
0.656187
1
1
1
1
0.673033
1
1
1
1
1
0.684248
1.00006
1.47283
1
0.999978
1.47446
1.47583
1
1
0.678753
0.809981
1.47019
1
1
1
1.47221
0.657082
1
1.47188
1
1
0.714184
0.701891
1
0.669451
0.653226
1
1
1
1
1
1
1
1.47504
1.11393
1.43764
0.683617
0.912192
1.47144
1
1.47192
1.4711
0.63612
0.784528
1
0.658164
1
1.49047
1
1
1
1
1.47183
1
1
1
1
1
1
1
1.16674
1.46751
1
1.47202
1
1
0.660824
1
1
1
1
1.47153
1.35396
1
1
0.666932
1.47184
1.47164
1
1.47155
1.47184
1.47195
1
0.820878
1
1.47011
0.990791
1.47192
1
0.637491
0.998835
1.47222
1
1
1
1
0.661136
1.471
1.4269
1
1.47312
1.47181
1.47012
1
1.21558
1.47264
1
1
1.32587
1.06756
1.47165
0.935685
1.47172
1
1.47161
1.47154
1.47164
1.47159
1
1.45854
0.899007
0.873509
1
0.999999
1
1
1.46843
1
1
1
1
1
1.46971
1
1
0.99639
1.47167
1.42878
1
1.3883
1.00004
1
1
1.47123
1
0.996809
1.00432
1
1.47156
1
1.47174
1
1
1.34667
1
1.47263
1.00002
1
1.47249
1
1.47156
1
1
1
1.47197
1
1.47024
1.00001
1.4718
1.47126
1.47176
1.47413
1
1.47186
1.46222
1
0.660967
1.44173
1.33143
1
1.47209
1
0.659564
0.641946
1
1
1
1
1
0.660102
1
1.47189
1.11539
1.47109
1
1
1
1
1
1.47153
1
1.47618
1.27086
0.772858
1
1.00001
1.13268
1.11841
1
1
1.16957
1
0.654171
1.47193
1.47226
1
1
1
1.47071
1
1.00003
1.47077
1.47057
0.952979
1
1
0.654956
1.42733
1
1
1
1
1
1.47158
1.47185
1
1.4738
1.47051
1.47226
1
1
1
1
0.662658
1.47246
1
1
1.42743
1.47034
1
1.44189
1.46742
1
1
1
1
1
1.47176
1
1
1
1
1.47146
1
1.46845
0.66378
1
0.641697
1
1
1
0.997173
0.654129
0.99903
1
1
1
1.06248
1
1
0.872904
1
1
1
1
1
1
1
0.999997
0.926953
0.999999
1
0.997522
1
0.661168
1
1
1
1
1.34891
1
1
1
1
0.642372
1
1
1.44331
1.47358
1
1
1
0.880881
1
1
1
1
1
1
0.962803
1.00745
1.47135
1
1
1
1.47435
0.902082
1
1
1
1.46972
1.47385
1
1.00001
1
1
1
1
1
1
1
0.662526
1
1
1.47235
0.660299
1
1.47109
1
0.660809
1
1
0.660422
1
1
1
1
1
1
1
1.46229
1.47077
1
1
1
1
1.42847
1
1.14831
0.669964
1
1
1
1
1
1
1
1.04231
1
1
1.23548
1
1
1
1.38624
1
1
1
1
0.669233
1
1
0.642974
0.66071
1
1
1.47105
1
1.01629
1
1
1
1.32705
0.660042
1
0.641789
1
0.783907
1
1
1
1.47185
1
1
1.47084
1
1
1
1.47121
1
1
1.47022
1
1
0.634591
1
1.14701
1
1
1.47188
1.47148
1.31273
1.421
1
0.639027
1
1
1.4499
1
0.673638
1
1
1
1.47166
1
1
1
1
1.27266
1
1.4428
1.46948
0.664411
1
1
0.66795
0.644263
1
1
1
1.33216
1.35312
1
1
1
1
1
1
1
1.18813
1.47341
1.00239
1
1.46535
0.655761
1
1
1
1.25822
1
1.09036
1
1.42909
1.46911
1
0.637847
1
1.47308
1
1
1.47036
1.44041
1
1.47481
1
0.650652
1
1
1
1.46331
1.46221
1.4136
1
1.47257
1.47208
1
1.47194
1
1.46928
1
0.669614
0.962661
0.668251
1
1
1
1
1
1.4715
1
1.47221
1
1
1
1.44696
1
0.645166
1.47196
1
0.683501
0.671543
0.663807
1
1.23311
1.03987
1.47359
1.47214
1
0.999999
1
1
1.47175
1
1
1.47177
1.47157
1
1.15955
1.00018
1
0.996728
1.46861
0.847288
1
0.823107
0.656147
0.655694
0.970006
1.47254
1.46457
1.08252
1.47191
1.47114
1
1
1.47635
1.47253
1.47208
1.47012
1
1.47152
0.676075
1.47666
1.47044
1.47275
1.47208
0.866755
0.899274
0.933274
1.47024
0.963584
1.47028
1
1
1.4735
1.47259
1
0.660399
1.46763
1.47053
1
1.47302
1.47323
1
1.47149
0.6666
1.47278
1.47554
1.47298
1.46731
1
1
1
1.47017
1.30081
0.706538
1.47099
0.653642
1.47015
1
1
1
1
1.4731
1.47073
1
1
1.47069
0.6564
1.47205
0.66049
1
1.46819
1
0.664716
1.47365
0.74856
1
1.47207
1.47439
1.46992
1
1
1.22054
1.47328
0.657794
1.47074
1
1.47163
0.885609
1.47179
0.649361
1
1.47243
0.674067
1.47343
0.660652
1
1.47198
1
1.46745
1
1.26861
1.45331
1.36727
0.62444
1
1.47189
1
1.47112
1
1.47238
1
1
1.47095
0.979562
1.47437
0.657005
1.41642
1
1.33234
1
1.47093
1.47199
1.47134
1
1.42183
1.47089
1.43544
1.28144
1.4709
1
1.30988
1
1.47148
1
1.0684
1
1.43564
1
1.4716
1.44893
1.44789
1
1.46495
0.636322
1
0.657857
1
1
1
1.46967
1
1.47254
1
1
1
1.4716
1.4608
1.38594
1.47292
1.47347
0.643962
1.46921
1.46738
1
1.40888
1.47142
1.45159
1
1.47375
1.47087
1
1.47443
1.47211
1.47125
1.47359
1
1
1
1.47091
0.684561
1
1.47168
1
1
0.652517
1
1
1.47119
1.47184
1
1.47179
1.48114
1.47057
0.969971
1.47198
1
1.47207
1.47116
1.37549
1
1
1
1.47397
1.47232
1.47094
0.938386
1
1.48087
1.47207
1.47185
1
1.47159
1.47159
1.47213
1.4812
1
1.47172
1.47765
1.4094
1.47299
1.47947
1
1.47966
1.46613
1.47102
1.47693
1.4718
0.637294
1.47005
1.47325
1
1.47075
1.47137
1.47144
1.47217
1
1.4707
1.47172
1
1.47019
1.3954
1
1
1
1.47448
1.46954
1
1
1.25239
1
1.47155
1
1
1.47115
1.4732
1.47136
1.4715
1
1
1
1.32996
1
1.47194
1
1
1.47357
1.47614
1
1.47101
0.668337
1.47187
1.47236
0.73764
1
0.648357
1.40879
1.47108
1.47318
1.47274
0.658591
1.47104
1.4723
0.654831
0.64173
1
1.47228
1.46981
1
1
1.47141
1
1.46818
1
1.41056
1
1.20877
1.47096
1.47468
1.32628
1.42195
1.46867
1.47526
1.44685
1
0.653863
1.47689
1.4712
1.47926
1.00001
1
1
1.47365
1
1.47212
1.47094
0.762674
1
1.47232
0.99993
1
1.00003
1.00005
1.47059
1.47033
0.998484
1
1
1.47098
1.47359
1.47127
1.47273
1.47139
0.666985
1.39609
1
1.46824
1.47151
1.47209
1.46663
1
1.47154
1.45805
1.47354
1
1.47115
1.47457
0.862663
1.47078
1.47232
1
1.47131
0.841651
1.47261
0.858797
1.47134
1
1.47123
1.48424
1.47183
1.4724
1.47126
1.47512
1.4729
1.47352
1
0.929895
1.47243
1.47178
0.842957
1.47134
0.987621
1.30502
1.47211
1.4738
1.47741
1
1.47406
1.30184
1.47436
0.915676
1.47429
1.48147
1
0.86493
1
1.46356
1
1.32078
1
1.45867
0.863432
1
1.46815
1.47343
1
1.47017
1.4737
1.48142
1.46197
1.47728
1
1.47431
1
1
1
0.889035
1.47196
1.47193
1.47546
1.47102
1.46899
1.4735
1.4753
1.47249
0.896239
1.03055
1
1
1.48499
1.472
1.47155
1.4717
1.00003
1.23522
1
1.47452
1.40497
1
1
0.753544
1.4712
1
1
0.685856
1.4716
1
1.46933
1.47219
1.46786
1.45226
1.47153
1
0.63557
1.1082
1.471
1.47128
1
1.47182
1.4716
1.22053
1.01109
1.10423
1
1.46698
1.47205
1
1
0.644077
1
1
1.47146
1.47149
1.46933
1.471
1.47173
1.47638
1.47219
1.46946
1.47192
1
0.996513
1.47236
1.47101
0.997236
1.47141
1.47158
0.629598
0.661825
1.47019
1.46536
1
1
1.00202
1.47242
1.46936
1.47158
1
1.47117
1
0.857802
1.47981
1.46578
1
1.20599
1.47227
1
1.47185
1
1.47159
1.32405
1.46969
1
1.47327
1.46312
0.644993
1.47122
1
1.47359
1.47332
1
0.634411
1.47152
1.3982
0.997429
1.45643
1.4714
1
0.990742
1.47611
0.997536
1.47109
1
1
1.47383
1
1.47601
1.47186
0.996375
1.36279
1
1.47208
1
1
1
1
1.47199
1
1
1.473
1
1.47054
1
1.29796
1.47711
1.47241
1
1
0.994687
1
1.47238
1.47149
1.47336
1.47103
1.47189
1.47155
1.47105
1
1.47192
1.47109
1
1.47194
1.47192
1
1.46954
0.923699
1.05871
1.47204
1.47198
1.47253
1
1.47144
1
1.47166
1.47151
1
1.47156
1
1
1
1
1.47088
0.642344
0.997871
1
1.47223
1.47773
1
1.47129
1
1.00551
0.670978
1.47122
0.999596
1
1.47006
0.998335
1.47054
1
0.999775
1
1.46987
1.47644
1.47257
1.47332
0.653364
1.47222
1.47444
1.47113
1.11192
1
1
1.19484
1.47154
0.642018
0.648393
1
1.47203
1.4708
1.47503
1
1
1.47278
1.47246
0.999874
1
1.33782
0.666242
1
1.0798
1.4741
1.47449
0.998266
1.47202
1.48141
1
0.9991
1
1.4698
1.46881
1.18767
1
1.4388
1
1.00233
1.47018
0.669344
1.47187
1.47164
0.996951
0.999904
1.40412
1
0.999681
1
1.47333
1
1.00001
0.665366
1.47213
1.00001
1
1
1
1.47504
1.2604
1
1
0.67209
1.47169
1.2615
1
1
1
1.44809
1.4666
1.47196
1
1
1.47009
1
1.47079
1.4724
1
1
1.47325
1.47033
1.45142
1
1
1.47322
1.47136
1
1
1
1.4714
1
1
1
1.4706
1.47299
1.47343
1
1.47578
1.00003
0.726763
1.47142
1.47061
1
1.47549
1.45985
1.47061
1
1
1.47442
1
1.24211
1.47012
1
0.632169
1
1.4737
1
1
1.47685
1
1
1
1.14063
1.47009
0.703883
1.00001
1.47279
1
1
1.47177
1
1.47667
1
1
1.47033
1.47104
1
1.00005
1
1
1
1
1
1
1.46936
1.47228
1
1.47005
0.659222
1.46643
1
1.47239
1.47663
1.47053
1.46467
1.47274
1
1
1.47575
1
1.27673
1.47909
1.4712
1
1.47359
1.46438
1
1.41969
1
1.47223
1.30339
1.47633
0.997642
1.46631
1.42339
1.47461
1.47236
1.03721
1.4712
1.4754
1
1.471
1
1.4718
1
1
1
1
0.997063
1.47208
1.472
1.40398
1
1.47395
1
1
1
0.682592
1
1.4568
1
1.42815
1.45048
1
1
1
1.45261
1.47283
1
1
1.46987
0.656082
1.07441
1
1.47886
1.47177
1.42858
1.4563
1.47177
1
1.47361
1
1
1
1
1.47376
1.47227
1
1.45988
1.0614
1.47194
1.43887
1
1
1.44035
1
1
0.648209
1.33011
1
1
1.47332
1
1.47588
1.42699
1
1.42589
0.65813
1.47087
1.47321
1.47223
1
0.644925
1
1
1
1.4722
1.3752
1
1.47783
1.47203
1
1.47171
1
1
1
1
1.47189
0.999397
1
1.47373
1
1
1.47075
1.47145
1
1.47244
1.09139
1.00002
1
1.47036
1
1.47037
1
1.01295
1.47194
1
1.47118
1
1
1.13934
1.47199
1
1
1
1
1
0.996496
0.647897
0.645127
1.02133
1
1.02818
1
1.03076
1
1.47197
1
1.28352
1
1.47099
1
1
1
1.47154
1
1.36026
1.47314
1
1.24142
1.47245
1
1
1.46951
1.47321
1
1
1.0565
0.623409
1
1.47144
1
1
1
1
1.07284
1.47237
1
1
1
0.664509
1
1.47063
1.47194
1.47338
1
1
1
1
1.23556
1.47121
1
1
1
1.47597
1.47111
1.05586
1
1
1
1.47228
1.47109
1
0.636079
1.47206
1.47188
1.47079
1.47104
1.46929
1
1
1.47844
1.46754
1.47113
0.658515
1.04049
1.472
1
1
1
1
1
1.47198
0.650259
1
1
1.47108
1.20511
1
1.47743
1
1
1
0.657873
1
1
1.11828
1.4718
1.47192
1
1.46629
1.47852
1
1.07302
1
1.47984
1
1.46971
0.653465
1
1
1
1
1.47224
1.00007
1
1
1
1.45466
1
1
1
1
1.47183
0.655777
1.37451
1.47474
1
1.47111
1
1
1
0.99709
1
1.47579
1
0.814048
1
1
1.00004
1.47124
0.671246
1
1.4742
1
1.47218
1.47121
0.671862
1
1
1.46373
1
1
0.650948
1
1.46611
1
1.45
0.999328
1.47091
1
1
1
1
1.47246
1
1
1.47146
1
1
1
1
1
1
1
1
1.30644
1
1.15122
1.47151
1
1
1
0.647968
1
1
1
1
1.47293
1.47197
1.06137
1
1
1.47266
1
1
1.47188
1
1.00002
1
1
1
1.00001
1.47341
0.787287
1.47133
1.47351
0.997092
1
1
1
1.27429
1
1
1.47003
1.47124
1
1
1
1
0.673967
1
1
1
1.29697
1
1.47084
1.475
1
1.47298
1
1
1
1.24591
1
1.47289
1
1.47114
1
1
0.996206
1.47105
1
1
1
1
1
1.47144
1.00002
1
0.650552
1.47714
0.647837
1
1.47102
1
0.996142
1
1.4723
1.47779
1
1.46043
0.886859
1.47138
1.46651
1.00003
1
1
0.659831
1
1
1
1.47114
1.27505
1.47677
1
1
1
1
0.996781
1.47019
1
0.660568
1
1
1
1
1
1
1
1.47772
1.47403
1.47891
1
1
0.996913
1
0.978062
1
1
1
0.664599
0.977973
1
0.650681
0.650375
1
1.47214
1.47169
1
1.47075
1.47208
0.66072
1.30767
1
1
1
0.66226
1.47154
1
0.660734
1
1.47794
1.07326
1
1
1
1
1.47142
1.47096
1
1
1.47137
1
1
1.47024
1.472
1
1.44711
1.47165
1.47452
0.959669
1.47436
1.00841
0.661371
1.35954
1.47084
1
1
1
0.67665
1
0.647945
1.48019
0.953466
1.47137
0.953009
1
1.47083
1.214
1
1
1.47452
1
1.18988
1.47376
1
1
1.47224
1.47844
0.663289
1.26495
0.999889
1
1.28458
1
1.47379
0.954858
1.47816
1.47032
1
1
1
1
1.45715
1
1
1.47372
0.999635
1.47196
1.38212
1.47043
0.6618
1
1
1
1
1.47196
1.00004
1.47088
1
1.47217
1.46935
1.05767
1.47825
1.13994
1.47199
1
1.31979
0.674575
1.47118
1.47181
1.39118
1.07395
1.47157
1.47134
1.47288
1.47171
1
0.916113
1.06706
1
1.47151
1.21461
1.47116
1.00003
1
1
0.669945
1.47712
1.47363
1.3831
1
1.17717
1
1.47181
1.46838
1
1.47018
1.47329
1
1
1
1.47004
1
1.18078
1.47636
1.32029
1
1.47156
1
1
1
1
1
1
1
1
1
1
0.668937
1
1.43396
0.643126
1.27439
0.998582
1.47577
1
1.23799
1.00001
1.2991
1.40159
1
1.00316
1.47818
0.915836
1
1.47215
1.46082
0.950298
1
1.47205
1.47191
1.4744
1
1.47244
1.47398
1.47233
1
1.21196
1
1.00006
1.47174
1
1.47206
1.0656
1.46961
1
1
1.46976
1.47373
0.662729
1
1.47107
1.35049
1.47061
1
1
1.4747
1.47043
0.998248
1
1.41011
0.996831
1.47003
1.00004
1
1
1
1
1.20978
1
1.35965
1.47317
1.34936
1.474
1
1.00392
1
1
1.47237
1
1.47372
1
1
1
1
0.999999
1
1.05685
1.23408
1
1
0.648465
1
1.47369
0.697553
1.47842
1
1.231
0.999748
1.47141
1.29966
0.682447
1.25004
1.00003
1.47242
1.475
1
1.27935
1.47794
1.47194
0.998399
1.46427
1.45774
0.670457
1
1
0.997989
1
1.46616
1
0.68887
1.47544
1
1
1.41818
1
1.47281
1
1.47145
1
0.681593
1
1
1.47109
1.46902
1.47038
1
1.47131
1.47082
1.46333
1
1
1.46453
0.999999
0.75055
1
1
1
1.47226
1
1.471
1.30182
1.46933
1
1.47127
0.999384
1
1
1
1
1
1
0.720138
1
1
1.47137
1
1.47333
1.4776
1
0.656202
0.652878
1
1.47301
1.07592
0.658338
0.641835
1
1.47232
1
1.47781
0.681619
1.00136
1
1
0.999497
1
1
1
0.999916
1.1871
1.47103
1
1
1.47311
1.27594
1
1.42411
1.47259
1.47143
1.19036
1.46686
1
1.47118
1
1.45318
1
1.47666
1.46977
0.996893
1.47439
1.47318
1
1
1
1
1
0.91087
1.47379
1.00004
1.00003
0.663358
0.999986
0.650591
0.685918
1
1.47204
1.47139
1.47159
1
1.47238
1
0.660844
1
1
1.47386
0.832171
1.47325
1
1.4704
1
0.986795
1.47118
1
1
1
1.47376
1
1.47031
0.661385
1
1
1.27252
1
1
1.24636
1
1
1.47071
1
1
1
1
1
1.46605
1.4733
1
1.47307
1.47148
0.648911
1.21422
1.47096
1
1
1.42309
0.999034
1
1
1.47193
1.47048
1.32134
1
1.47246
0.663057
1.45275
0.999126
1
1.47395
1.00004
1.46987
1.39904
1.359
1
1
1.47184
0.730248
0.665195
1
1.47123
1
1.47046
1
1.27855
1
1
1.47056
1.30055
0.664727
1
0.998265
1
1
1.02634
1.18889
1.47177
1
1.47358
1
1
1
1
1
1
1.06836
0.658857
1
1
1.02724
1
1
1
1
1
1.47097
1
1
1.47194
1.46985
1.32961
1
1
1
0.834395
1.47745
1.3242
1
1
1
1
1.47188
1
1
1
1.46997
1
1
1.33727
1.49013
1.04648
0.753496
1.47544
1.32782
1.4692
1
1.23188
1
1
1
0.694379
1.00276
0.66295
1
0.693658
0.649155
1
0.664638
1
1
1
1.20202
1
1.47228
1.47212
1.00148
1.22552
1.3904
0.663436
0.780351
0.880167
1
1.47115
1.4728
1.47119
1.47199
1.40176
0.868754
1
1.40364
1
1.45072
1
1
0.996387
1.0095
1
1
1
1.4736
1
0.646291
1
1.47309
0.648105
1
1
1.47131
1
1.47114
0.999853
1
1
1.4724
1.43474
1
1.48574
1
1
1.01397
1
1.19953
1
1
0.649644
1
1
1.4727
1
1.47299
1
1.00003
0.647079
1
1
0.663708
1.00089
1
1.47224
0.647706
1.47034
0.672577
1.47152
1
1
1
1
1
1
1
1
1
1
1
1.45087
1
1.47347
1.47328
0.642613
1
1
1
1
1
1
1.45804
1
1
0.656718
1
1
1.4727
1
1
1.17306
1.39406
0.662337
0.645453
0.72992
0.7403
1
0.996285
0.663482
1.00028
1.42448
0.996951
1
1
1.47206
1
1
1
0.78424
1.00001
1.16973
1
1
1.19375
1.47226
1
0.681076
1
1
1
0.996735
1.00001
1.47046
1.4722
1
0.672437
1
1.24795
0.659473
1
0.870442
1
0.99603
0.653123
1
1
1
0.995701
0.675852
1
0.6963
0.998443
1.24751
1.41884
0.656338
0.666863
1
0.991045
1
0.998644
1
1.47067
1.47234
1
1.00514
1.47183
1.47142
1
1
1.47202
1
1
1.00004
1
1.47654
1
1
1.01809
1
0.998574
0.721447
1
1
1
1
1
1.47594
1.03219
1.00005
1
1
1
1
1
1.00003
1
0.647765
1.09134
0.998616
1.4494
1.47268
1
1.01689
1.47182
1.41471
1
1
0.662361
1.471
1
1.47242
1
1.47161
1.31711
0.648398
1
0.660819
1.4288
0.999688
1
0.661733
0.689973
1
1
1.39496
1
0.999998
0.647407
1
1
1
1.14088
1
0.63913
1.47274
1
1
1
1
1.47198
1
1
1.47507
1.42106
1
1
1
1.47739
0.65085
1
1.47301
1.47165
1
1.37178
0.999999
1.00003
1
1
1.43356
1.01458
1
0.648595
1.24786
1
1
0.997004
1
1
1.46725
1
1
1.00003
1
1.47123
1
1
1
1
1
1
1.00001
1.19522
1
1.47198
1
1
1.47293
1
1
1
1.47109
1.4753
1.04411
1
0.997537
1
1
1
1
1.47284
1
1
1.47105
0.652471
1
1
1
1
1
1
1.37902
1
1
1.46931
1.47147
1
1
1
1.4725
1.47325
1
0.999613
1.4665
1
1
1
1.00002
0.654958
1.0304
0.996041
0.995824
1
1
0.683871
1.47019
1
0.664755
1
1.46964
1.45165
0.664686
0.999408
1.47132
1.47146
1.47058
1
1
0.934067
1.42347
1.39359
0.683221
1
1
1
1.47006
1.47094
0.666893
0.997321
1
1.47181
0.643318
1
1.46907
0.656533
0.970457
1.00676
1
1.47767
1
1
1
1
1
1
1.00011
1.43796
1
1
1.47708
1
1
1
1.47176
1
0.648171
1
1
1
1.15409
1
1
1
1
1
0.766271
1
0.646843
1
1.47321
1.00007
0.870031
0.868157
1.00002
1.00336
1.24574
1
1
0.651575
1.47254
1.4733
1.47163
1
0.661148
0.655176
1
1.47047
1
1
1
1
1
1.00003
1
0.660207
1.30019
1
1
0.649961
0.984325
1.00001
1
1
1
0.654108
1
0.713969
1
1
1.48146
1
1
0.652892
1
1.47134
1
0.664516
1
0.66048
1
1.0078
1.47268
1.48628
1
1
1.47276
1
1
1.0949
0.996793
1
0.998157
1
1.47626
1
0.667777
1.00002
1.47014
0.998923
1
1
0.798084
1
0.998978
0.669646
1.47398
1.16031
1
1.00001
0.902676
1
1
1
0.807681
1
1
1
1.47103
1
0.647686
0.999999
1
1
1
0.652417
1.47123
1.42662
0.67073
1
1.47744
1
1
1.47124
1.47232
1.39611
0.648263
0.99768
0.999257
1
1.47113
1
1
1
1
1.47042
1.00004
1
1
1.47338
1
1
1.4722
0.649484
1
1
1
0.659901
1
0.999999
0.999999
0.998642
1
1
1
1
1.37082
1
1.47014
1.4726
1.47867
1.47089
1.47248
1.47025
1
1.47019
1
1.47167
1.4713
1
0.998828
0.664694
1.40095
0.999895
1
1
1
1
1.00566
1
1.07194
1
1
1
0.847874
1.47223
1.46971
1.46944
1.4029
0.999869
1
1.02341
1.47268
0.997922
1.05325
0.997193
0.660016
1
1.00002
1
1
1
1
1
1.47008
0.650672
1.4701
1.47166
0.994993
0.628539
1
1
1
1.47231
0.65877
1.41453
0.653472
1.47167
1.46862
0.663818
1.4724
1.02562
1
1.4754
0.79258
1
0.998706
0.63034
1
0.644401
1
1.47039
1.47123
0.748804
1
1.4716
0.664846
1
0.659792
1
1.47087
1
1
1.47364
1
0.835063
1
0.999697
0.64621
1.47642
0.999483
1
0.655985
1
1
1
1
1.25605
1
1.47266
1
1
1.49073
1
1
1.47261
1
0.642049
1
0.673043
1.00001
1
1
1
1
1.45105
1.27282
1.47157
1
1.47122
1.43656
0.650022
0.673655
1
1
1.47439
1
0.63936
1
0.98473
1
1
1.47194
1
1.46985
0.634666
1.48984
1
0.644769
1
1
1.46811
1.47014
1
1.00004
1
1.47344
1
1
0.684839
0.999388
0.656652
1
1
1
1.47351
1.47381
1.47212
1
1
0.653824
1
1.46898
1
1
1
1.4482
1.4719
1.47094
0.658816
1.47609
1.47147
0.676855
1.47203
1.00004
0.679738
1.0081
1
1
1.47043
0.643642
1.29757
0.633843
1.47151
0.997465
0.666241
1.4746
1
1
1
1
1.47137
1.4728
0.659484
1
1.00002
0.656663
1.00004
1
0.683046
0.663821
1.32681
1.47115
0.998487
1.47097
1
1.47028
0.808918
0.661912
1.47139
1.48042
1
1.47027
1
1
1.4713
1
1.3594
1.47214
1
1
1
1
1.47206
1.46561
1.46987
1
1
1.46943
1.47553
1.4702
1
1.47262
1
1
1
1
1
0.636756
0.84619
0.667157
1
1
1.47239
1
1
1.47667
0.657614
1
1.47147
1.466
1.45064
0.651101
1
0.66718
1
1.00003
1.47196
1.22424
1.47197
1.42815
1
0.692816
1
1.47229
1.32973
0.672118
1
1
1
0.813765
1
1
1.48181
1
0.664016
1.47186
1
1
1
1
1
1.37767
1.10595
1
1.47256
1
1.47029
1
0.997243
1
1.47142
1.46832
1.4715
1.47779
0.999586
1.47102
1
1.47149
1.46972
1.39591
1
1
0.656767
1.47056
1
1
1.4695
1.46947
1.46959
1
1.47127
1
1
1.00003
1.46791
1.47299
1.13255
1.09487
1.47094
1.4723
0.692958
1
1
1
1
1.00002
1.16057
1
1
1.38799
0.660378
0.999969
1
1.4717
0.9999
0.999827
1.06554
1.41907
1.47141
0.890946
1
0.645966
1
1.00228
1.47217
1.47356
1.47494
0.998965
1
1
0.656118
1
1
1.47197
1.04917
1
1
1
1
1
1
1
0.999936
1.47277
1.00002
1
1
1
1
1.28717
1
1.2187
1
1
1.47154
1.47517
0.669551
0.998815
1
1
1
0.661438
1.47025
1.47113
1
1
1
1
1
1
1
1
1.46988
1.47618
0.661488
1.04988
0.660069
1
0.660342
1
1.47166
1.12681
1
1
0.707274
1
1.45007
0.81394
0.996834
0.671878
1
1
1.4704
1.00004
0.9973
0.643066
1.47009
1.48051
1
1
1
1
1.43912
1
1
1.47111
0.998929
1.47133
1.00004
1
1
0.618387
1
1
1.47323
0.658909
0.775599
0.653753
1.47096
0.999308
1
1.47062
0.665838
0.671418
1.00613
1
1
1.47266
1.00004
1.21511
1
1
1.47209
0.664462
1
1
1.00013
1.47193
1.00009
1.47062
1
1.00003
1
1
0.70639
1
0.782053
1.00001
1
1.47111
0.623929
1
0.76333
0.819524
1
1
1.47222
1
1
1
1.47044
1.47063
1.00005
1.4729
1.47248
0.767268
1.47198
1.44188
1
1
1.47273
0.999999
1
1
1
1
1.47192
1.47212
1
1
1
1.4719
1.0002
1
0.651729
0.707779
1
1.00003
1.16954
1
1
0.911385
0.667038
1
1
1
1.47431
1.43
1.47146
1
1
1
1
0.64245
1
1.45332
1
1.4661
0.642932
1.47054
1
1
1
0.640862
1
1.47115
1.00003
1
0.675123
1.16657
1
0.999657
1.46591
0.650884
0.669669
1
1.471
0.657238
0.653522
1
0.647668
1.00001
1
1
1
0.643496
1
1
1
1
1.46977
1
1.35613
0.657086
1
1
1
0.663318
1.47091
1
1
0.996351
1.47363
1
1.46996
1.47174
1
1
0.7344
0.663254
1
1
0.671084
1.14825
1.2137
1
1
1.47292
0.997448
1
0.997785
1.47301
1
1
1
1
1
1
1.47256
1
1.16419
1.14287
0.696636
1.41708
1
1.47142
1.47122
1
1
1
0.903059
0.642942
1
1.22404
0.999639
1.40493
1
1
1
0.999999
1
1.0067
1.20662
1.47297
1.46956
1
1.47051
1
0.655929
1
0.997207
0.999782
1
0.646997
1
0.643427
1.00002
1.47461
1.47124
0.672116
1.48077
0.69668
0.996248
1.35438
0.644938
1.3355
1
1
0.998438
1
1
1
1.00005
1
0.638701
1
1
1
1
0.99958
1.47392
0.789072
1
1
1
1.03701
1
1
1
1.25652
0.756721
1
1
1
1.0424
1.4706
1
0.624233
1
1.47342
0.903793
0.667427
1
0.653007
1
1
1.44495
0.998252
1.44756
1
1.00858
1
1
1.47079
1
1
1
1
1.09147
1
1.47115
1.47342
1.47105
0.6543
1.47076
0.997167
1.38454
1
1
0.648156
1
1
0.675248
1.47009
1
1
0.999972
1
1
1
0.638194
0.661163
1
1.47285
1
1.21384
1.47166
0.677032
1.39476
1
1
0.701282
1
1
1.47136
1.47204
1.16641
1
1
1.00143
1.47226
0.657259
0.661376
1.47021
1.47202
1.32054
1.18367
1
0.898981
1
1
1
1.44624
1.47791
1.47398
1
1
1.46981
0.689754
1.42307
0.632222
1
0.650748
1
0.657223
1.47155
0.645097
1
0.974568
0.691058
1
1
1
0.832008
1.42495
1.47191
1.47107
1.47233
1
1
1.47197
1
1
1.4735
1
0.648443
1
0.625658
1
1.47331
1
1
1.02152
1.35885
1
0.998728
0.686135
1.47152
1.00001
0.628383
1.08685
1
1
1.3517
1.47123
1.47091
1
1.47111
1.12708
1
1.02528
1.47152
1
1
1
1
1.47154
1
0.673988
1.47301
0.677446
0.6322
0.83794
1.47081
1.15892
1.47193
1
1.47284
0.997385
1.00003
1.47155
1.47017
1
1.47227
1
1.47018
1
1.47208
1
1.00004
0.999991
1.47121
0.653275
0.657846
0.998028
0.999999
1
1
0.629563
1
1.30965
1
0.658373
1
1.18224
1.47048
1.47539
1
1
1.00003
0.999343
1
1.47212
1.47122
1
1.18959
1.4723
0.860781
1.47048
1.00023
0.668989
1.09814
0.632272
1
1
1.07839
1.47214
1
1
1.04047
0.998574
1
0.683235
1
0.790069
1
1.47232
1
1
0.66008
1.10558
1.06591
0.998519
1.4726
1.47192
0.743563
0.998124
0.655357
0.675537
0.663068
1
1
1
0.999045
0.740883
0.661226
1
1.47142
0.999742
1.47131
1.47007
1.47133
1.47211
1
0.646968
1.47325
0.675765
1
1.46972
1.47383
0.996763
0.817694
1.4722
1.34275
1
0.662548
1
1
1.46948
1
1.02527
1.47022
1
0.658933
0.647742
1
1
0.656461
0.626393
1.47183
1.00004
1
0.657165
0.677615
1.47027
1.45725
1.43977
1.47058
1.13251
0.981862
1.19158
1.47707
1.36107
1
1.24176
1
0.617764
0.868582
1
0.649523
1.4711
1.02336
1.47315
1
1.47167
1.47178
1
1.47009
1.4717
0.643777
1.47361
1
1.48297
1
0.73655
0.659434
1.47115
1
1
1
0.666325
1.47317
1.47282
1
0.648302
1
1
0.642069
1.00005
0.641439
1.47236
1
0.81834
0.656009
1
1
1.27196
1
1
1
1.07616
0.653094
1
1.00001
1
1.47099
0.674553
1
1.47104
0.628485
0.631035
1
1
1.47708
1
1.47242
1.00001
1.47237
0.660879
1
1
0.66353
0.812205
0.628561
1
1
1
1
1.47924
0.660629
1
0.677665
1
1.47464
1
1
0.929752
1
1
0.824419
0.999681
1.00005
1
0.672205
0.648548
1
1
1
1
0.787931
1.4698
1.47183
1
0.663921
0.672654
0.913571
0.648033
1
0.815524
1
0.622301
0.980714
1
1
0.656182
1
1.47394
1.45592
0.652387
1
1
1
1.46821
1
1.04781
0.851498
1.14727
0.648929
1.19023
0.659649
1
1
0.701069
0.904336
1
1.04793
1
1
0.668775
1
0.938286
1.04579
0.680306
1
1.38192
0.752316
0.882062
1
1
1
0.664808
1
0.669129
0.674038
1
0.852748
0.667071
1.06919
0.748345
0.629658
1.47141
1
1.47152
1.25428
0.739695
1.47161
0.663094
0.999012
1.47162
0.999999
1
1.47446
1
0.72904
1
1.06754
1
1
1.47162
1
0.762333
0.812647
1.47119
0.936305
1
0.778458
1.47149
1.47052
0.900206
1
1.47166
1.12279
0.854653
1
1.01522
1
0.6473
1.20064
0.748172
0.721959
1
1
0.656617
1.4701
0.96332
0.658391
0.647689
0.865492
1
1.03002
1.47242
1.47133
1
1
0.999999
0.648883
1.22184
0.99999
1.47022
1.43749
0.671273
1
1.0862
0.883049
1.26987
1.40057
1
1.04147
1
1.00005
0.677839
0.851464
1
1
0.807694
0.6738
1.04449
1
1.00001
0.642669
1.21346
1
1.47134
1
1.04278
1.25231
1
1.47186
1
1
1.47314
1
0.641207
1.47142
0.681506
1.12316
1
0.65262
0.999909
1
1.00003
1
0.787158
1.02785
0.655682
1.34294
1.47084
0.634274
1
1
1
1
1
0.965412
0.68259
1.04466
0.65943
0.647086
1.07884
1
0.999799
1.12103
1
1
0.639662
0.986388
1
1
1.12913
1
1.47132
1
1.47031
1.08222
1.01511
0.659475
1
1
0.627446
1
1
1
1
1.47151
1.04343
0.998112
1
0.642397
1.05318
0.999999
1
1.30683
1
0.686516
1.4719
1
1.00001
1
1.47343
0.663995
0.876737
0.676431
1.35442
1.47057
1
1
1.47073
1
0.656891
1
1
1
1
1
0.772351
1
1.47353
1
1
1.15623
1.47189
0.657721
0.849371
1
1.47037
1
1
1
1
1
1.47091
1.47023
0.622599
1.47204
0.641508
1
1
1.47201
1
1.47003
0.997519
1.02883
1.06433
1.47004
1.07005
1.32106
0.642352
1
0.645219
0.986464
1
1.47126
1
1
0.65012
1.47454
1
1.46996
1
1
1
1
1
1.00001
0.676562
1.47147
0.829845
1.47172
1
0.668784
0.64992
0.723896
1.47954
1.46996
0.974428
1
0.786062
1
1.17394
1
1.47008
0.635132
0.651214
0.855959
1
1.47097
1
1.07661
0.681421
1
1.47299
1.42878
0.998817
1
1.47092
0.664572
1.47556
1.47217
1.47694
0.666549
1.08286
1
1
0.638002
1
0.795084
0.821669
1
1.00002
1.46943
1
1.47164
1.07866
1
1.04999
1.4724
1
0.667705
1
0.740161
1
1
1.38375
1
0.787791
1
0.659267
1.03719
0.93635
0.682923
1.4732
1.3796
1.47044
0.655868
0.699978
0.995827
0.999999
1
0.693463
1.4437
0.640872
0.99997
1
1.47189
1.47139
0.912512
1
0.646368
0.701535
1.30941
0.959636
0.644157
0.999999
0.654789
1.1155
0.656536
1
1.00006
0.817218
1.47124
1.47092
0.851754
0.99958
1
1
0.749101
1
0.655142
1
0.657089
0.64644
1
1
1.00003
0.657082
1.47112
1
1
1.00007
1.00004
0.665653
1.47058
1.47183
1
0.657731
1.46948
1
1.08445
1
1
1.47112
0.64994
1
1
0.657587
0.73039
0.65784
0.626245
1
0.684462
0.997236
1.08576
0.649533
1
1
1.13209
1
1.41588
1
1
1.33772
0.66273
1
0.66963
1.12909
1.47213
1
1
0.664666
0.691564
0.646193
0.737583
0.689238
1.34998
0.999409
1
1
1
1
1.46986
0.636958
1
0.933787
0.999685
0.998754
0.999939
0.740571
1.12892
1
1.47154
1.47096
1
1
1.45145
1.00004
0.999999
1.47126
0.666175
1.47518
0.999999
0.632764
1.47113
1.00005
1
0.808712
1
0.651373
1
1.47185
1
1
1.47429
1
1
1.46925
1
1
1
1.47096
1
0.73321
0.699393
1
0.634455
1.46975
1
1
0.953118
1
1.47255
1.26307
1.377
1
1
0.673235
1
0.64063
1.47139
1.47235
1.47226
1
1.47144
0.655216
1
0.649162
1.37662
1.44549
1.47285
1.47209
0.779665
0.64665
1
1.30514
1.47137
1.47156
1.47185
0.73577
1.16515
1
1.35574
0.75243
1
1.00002
1
1.00002
0.900476
1
1.47433
1
1
1
1
1
1
1.00006
1.46634
1
1.4732
1.3461
0.656886
1.47274
1.02845
1.23403
1
1.47357
1
0.651258
1
1
1
1
1.40103
1
0.648071
1.47301
0.632981
1.47181
1.37583
1.24381
1
1.08381
1.21967
0.996019
0.662346
0.783348
1.00002
0.999999
0.934191
1
0.648478
1.47086
0.628544
0.919046
0.863764
1
1
1
1.01472
1
1
0.651603
0.996086
1.47136
1
1.4721
1
0.655386
1
1
1.47132
1.47369
0.648528
1
1.47172
1
0.815083
0.635339
1.47148
1.42176
1
1.07177
1.47141
0.998652
1
1.18919
1.41254
1.4721
0.995495
1
0.999998
1.39861
1
1
1
1.4711
0.998482
1
1
1.47114
1
1
0.658171
1
1
1
1.47095
1
1
0.867704
1.14757
1.42844
0.757791
1
1.47225
1
1.15638
1
1.47262
0.997256
1.4713
1
0.648646
1
1.32059
1
1
1.43968
1.00002
1.47144
1
1.46857
0.694862
0.662611
1.47234
1
1.39567
1
1.47081
1
1
1.00005
1.47215
1.46935
1.12151
1.47073
0.995234
0.663475
1.46988
0.850491
1
1.4704
1
1.47077
1
1.47402
1.4712
0.996039
0.649118
1
1.47179
1
1.03852
1
1
0.997966
0.749632
1.41929
1
1.44362
1
0.866822
0.63928
1.47392
1.47138
0.675123
1
1.47266
1.47243
1.47257
0.683998
1.47035
0.657303
1.47098
1.48072
1
1
1.47184
1
1
1
1
0.649503
1
1
1.47104
1.47157
1
1.47204
1
1.47263
1.46984
1
1.39062
1
0.641604
1.47333
1.35106
1.1209
0.636004
1.47093
1
1
0.644565
1
1
1.47142
1
1
0.786575
1
1.47124
1.00009
1.47097
0.64268
1.46968
1
1.47115
1.45336
0.913259
1
1.47222
0.766197
1.4776
1.32703
1.47161
1.4693
0.997374
1.46998
1.47092
1.47193
1.47137
1.00106
1
0.677332
1
1.47107
0.830214
1.42997
1
1.46273
1
1
1
1
1
1.46887
0.640754
0.646758
1.47116
1.47169
1
1
1
1
1
1.4676
1.42409
1.4706
1.02212
1
1
1
1.00003
1.47065
1.47143
1
1.47145
1.4708
0.649603
1.32766
1
1.47134
1.47902
1.46765
0.997715
1.47213
1.4728
1
1.41902
1
1
1
1
1
1
1.47086
1.47106
1.43892
1.47114
0.641852
0.714458
1.47106
1.47133
1
0.636227
0.93035
1
1.22205
0.671179
1
0.999457
0.998292
0.63709
1
1.47093
1
1
1
1.47213
0.94446
1
1.47108
1.47175
1
1.47157
1
1
1.47157
1
0.65488
1
1.47218
1
1
0.657021
1
1.47321
1
0.642321
0.689321
1
1.45767
1
0.630493
0.897098
1
1.47137
1
1
1
1.47777
1
0.667064
1.06109
1.4722
1.47331
1.47104
1.04081
1.47345
1.47139
1
1.00002
1
1
1.00001
1.47175
1
0.999329
1.47745
1
0.643064
1
1.47168
1.22078
1.06015
1.21776
1.06719
1.46507
0.732952
1.47088
1
0.663214
0.997133
1.47109
0.927704
1.4715
1.47198
1.4491
1
1.47245
1.47097
1.47129
1
1.00003
1
1
1.4721
1.32926
1
1
0.673885
0.99632
1
1.47087
1
1.47158
1.47157
1.47001
0.909121
1.47143
1.47102
0.996879
1.22331
1.47253
1.47169
1
1.4341
0.837373
1.46182
0.992208
1.47129
1
1.47135
1.46984
1
0.656595
0.924541
0.699173
1
1.07903
0.996823
1.47136
1
1
0.996855
1
1.22685
1.43678
1
1
1.47227
1
1
1.33632
1.47136
1.45224
1.47129
1.47021
1
1.46979
0.739839
1.4717
1
0.988036
0.645744
1
1
0.773116
1
1.14997
1
1.47228
1
1.46242
1.29233
0.636007
1
1
1
1
1
1.47301
1.01145
1
1.4693
1
1.47131
1.47076
0.999999
1
0.968938
0.999844
0.657801