/*--------------------------------*- C++ -*----------------------------------*\
  =========                 |
  \\      /  F ield         | OpenFOAM: The Open Source CFD Toolbox
   \\    /   O peration     | Website:  https://openfoam.org
    \\  /    A nd           | Version:  12
     \\/     M anipulation  |
\*---------------------------------------------------------------------------*/
FoamFile
{
    format      ascii;
    class       volScalarField;
    location    "0.24";
    object      rho;
}
// * * * * * * * * * * * * * * * * * * * * * * * * * * * * * * * * * * * * * //

dimensions      [1 -3 0 0 0 0 0];

internalField   nonuniform List<scalar> 
22702
(
1.40001
1.40001
1.43162
1.40001
1.40001
1.40001
1.73363
1.40001
1.40001
1.12663
1.82482
1.73344
1.40001
1.40001
1.40666
1.40001
1.40001
1.40001
1.81989
1.40001
1.40001
1.40001
1.75297
0.927169
1.40001
1.12235
1.40001
1.73822
1.14735
1.08841
1.40001
1.73536
1.40001
1.40001
1.40001
1.40001
1.40001
1.75056
1.40001
1.40001
1.12858
1.40001
1.40001
1.40001
1.73757
1.40001
1.40001
1.40001
1.40001
0.963185
1.40001
0.988193
1.40001
1.83258
1.40001
1.73759
1.40001
1.40001
1.40001
1.40001
1.14229
1.40001
1.40001
1.1453
1.40001
1.11439
1.40001
1.40001
1.40001
1.12126
1.40001
1.74429
1.40001
1.40001
1.71832
1.7623
1.12976
1.7337
0.915187
1.40001
1.77555
0.910907
1.74231
1.74391
1.40001
1.40001
1.40001
1.40001
1.39844
1.12038
1.7413
1.40001
1.40001
1.16809
1.40001
1.40001
1.16713
1.40001
1.40001
1.40001
1.40001
1.40001
1.77764
1.11555
1.40001
1.40001
1.40001
1.40001
0.920207
1.40001
1.73118
1.79679
1.40001
1.40001
1.1643
1.16418
1.1205
1.40001
1.40001
1.40001
1.40001
1.40001
1.39746
1.40001
1.40001
1.40001
1.73051
1.40001
1.72995
1.81003
1.40001
1.78994
1.40001
1.12264
1.40001
1.17188
1.40001
1.40001
1.40001
1.40001
1.799
1.40001
1.40001
1.40001
1.40001
1.73243
1.40001
1.42389
1.40001
1.40001
1.40001
1.40001
0.947499
1.40001
1.4104
1.40001
0.91838
1.40001
1.40001
1.40001
1.74071
1.40001
1.74876
1.14004
1.13359
1.7154
1.74093
1.40001
1.40001
1.40001
1.40001
1.73903
0.931252
1.40001
1.40001
1.40001
1.40001
1.40001
1.40001
1.76383
1.40001
1.83945
1.1362
1.73885
1.40001
1.21673
1.40001
1.00401
1.1435
1.40001
1.40001
1.40001
1.8377
1.40001
1.40001
1.71328
1.40001
1.74035
1.83962
0.972091
1.40001
1.40001
0.964387
1.74683
1.40001
1.40001
1.40001
1.74522
1.40001
1.13803
1.40001
1.40001
1.73569
1.70794
1.73281
1.40001
1.40001
1.40001
1.40001
1.40001
1.40001
1.40001
1.12036
1.73555
1.72632
1.40001
1.40001
1.40001
1.40001
0.952596
1.62148
1.61614
1.40001
1.40001
1.11638
1.12325
1.40001
1.40003
1.40001
1.4
1.2353
1.40001
1.40001
1.40001
1.40001
1.40001
1.71689
1.40001
1.40001
1.40001
1.40001
1.40001
1.76799
1.1605
1.3008
1.40001
1.40012
1.16186
1.40001
1.40001
1.40001
1.40001
1.40001
1.40001
1.40001
1.40001
0.967609
1.33112
1.11801
1.70535
1.40001
1.40001
1.40001
1.40001
1.73423
1.40001
0.971085
1.40001
0.886296
0.986361
1.66562
1.07437
1.40001
1.40001
1.40001
1.40001
1.40001
1.22498
1.26504
1.40001
1.40001
0.900344
1.40001
1.80439
1.13515
1.40001
1.40001
1.77887
1.22936
1.40001
1.40001
1.14347
1.77277
1.40001
0.893133
1.40001
1.40001
1.40001
1.40001
0.91419
1.40001
1.40001
1.40001
1.40001
1.52827
1.40001
1.40001
1.19226
1.40001
1.40001
1.40001
1.40001
1.40001
1.40001
1.40001
1.78473
1.40001
1.83879
1.40001
1.40001
1.40001
1.16078
1.40001
1.73238
1.11564
1.40001
1.40001
1.40001
1.40001
1.83919
1.40001
1.40001
1.40001
1.73151
1.40001
1.40001
1.83727
1.83724
1.40001
1.40001
1.40001
1.40001
1.16924
1.40001
1.40001
1.40001
1.16765
1.40001
1.40001
1.40001
1.40001
1.17292
1.40001
1.40001
1.40001
1.40001
1.40001
1.26464
1.40001
1.75599
1.40001
1.40001
1.74375
1.7184
1.40001
1.40001
0.937209
1.40655
1.77223
1.40001
1.40001
1.40001
1.75682
1.12475
1.40001
1.74596
1.40001
1.40001
1.1841
1.26804
1.40001
0.921386
1.12866
1.40001
1.40001
1.40001
1.40001
1.40001
1.40001
1.40001
1.7356
1.40001
1.40001
1.25479
1.36335
1.80234
1.40001
1.71056
1.77129
1.11296
1.32068
1.40001
1.11948
1.40001
1.85276
1.40001
1.40001
1.40001
1.40001
1.73766
1.40001
1.40001
1.40001
1.40001
1.40001
1.40001
1.40001
1.60107
1.74322
1.40001
1.72722
1.40001
1.40001
0.93209
1.40001
1.40001
1.40001
1.40001
1.74313
1.67838
1.40001
1.40001
0.873385
1.7313
1.72597
1.40001
1.73716
1.71486
1.71447
1.40001
1.45472
1.40001
1.73972
1.4
1.72882
1.40001
1.10749
1.40001
1.75582
1.40001
1.40001
1.40001
1.40001
0.956255
1.67187
1.40001
1.40001
1.40001
1.72699
1.77489
1.40001
1.61377
1.40001
1.40001
1.40001
1.70127
1.40001
1.73563
1.39872
1.73026
1.40001
1.72504
1.72467
1.71235
1.7343
1.40001
1.40001
1.41333
1.40212
1.40001
1.40001
1.40001
1.40001
1.40001
1.40001
1.40001
1.40001
1.40001
1.40001
1.75774
1.40001
1.40001
1.40001
1.71713
1.40001
1.40001
1.40001
1.40001
1.40001
1.40001
1.7606
1.40001
1.40001
1.40001
1.40001
1.72595
1.40001
1.51474
1.40001
1.40001
1.50144
1.40001
1.46066
1.40001
1.40001
1.41244
1.40001
1.73249
1.40001
1.40001
1.40001
1.71604
1.40001
1.40001
1.40001
1.71881
1.74697
1.71667
1.74216
1.40001
1.83513
1.40001
1.40001
1.15193
1.4
1.40001
1.40001
1.72369
1.40001
1.1652
1.14672
1.40001
1.40001
1.40001
1.40001
1.40001
1.16713
1.40001
1.72198
1.60598
1.75647
1.40001
1.40001
1.40001
1.40001
1.40001
1.70847
1.40001
1.40001
1.68247
1.34897
1.40001
1.40001
1.40001
1.40001
1.40001
1.40001
1.40001
1.40001
0.959979
1.70513
1.71498
1.40001
1.40001
1.40001
1.75073
1.40001
1.40001
1.40001
1.6444
1.30062
1.40001
1.40001
0.97418
1.4
1.40001
1.40001
1.40001
1.40001
1.40001
1.71836
1.83727
1.40001
1.40212
1.40001
1.74375
1.40001
1.40001
1.40001
1.40001
1.1444
1.76906
1.40001
1.40001
1.40001
1.40001
1.40001
1.40001
1.74
1.40001
1.40001
1.40001
1.40001
1.40001
1.72235
1.40001
1.40001
1.40001
1.40001
1.40001
1.40001
1.40001
1.11979
1.40001
1.14268
1.40001
1.40001
1.40001
1.40001
0.972021
1.40001
1.40001
1.40001
1.40001
1.45799
1.40001
1.40001
1.20463
1.40001
1.40001
1.40001
1.40001
1.40001
1.40001
1.40001
1.4
1.411
1.40001
1.40001
1.40001
1.40001
0.985573
1.40001
1.40001
1.40001
1.40001
1.5907
1.40001
1.40001
1.40001
1.40001
1.13162
1.40001
1.40001
1.4
1.76535
1.40001
1.40001
1.40001
1.36018
1.40001
1.40001
1.40001
1.40001
1.40001
1.40001
1.31455
1.51004
1.40001
1.40001
1.40001
1.40001
1.84612
1.39728
1.40001
1.40001
1.40001
1.74975
1.72073
1.40001
1.40001
1.40001
1.40001
1.40001
1.40001
1.40001
1.40001
1.40001
1.1638
1.40001
1.40001
1.83867
1.13199
1.40001
1.83818
1.40001
0.943622
1.40001
1.40001
1.15201
1.40001
1.40001
1.40001
1.40001
1.40001
1.40001
1.40001
1.40001
1.40001
1.40001
1.40001
1.40001
1.40001
1.40001
1.40001
1.62969
1.07505
1.40001
1.40001
1.40001
1.40001
1.40001
1.40001
1.40001
1.42149
1.40001
1.40001
1.63435
1.40001
1.40001
1.40001
1.40001
1.40001
1.40001
1.40001
1.40001
1.11999
1.40001
1.40001
0.992774
1.11743
1.40001
1.40001
1.72051
1.40001
1.34258
1.40001
1.40001
1.40001
1.69186
1.01248
1.40001
1.02428
1.40001
1.28601
1.40001
1.40001
1.40001
1.84169
1.40001
1.40001
1.77876
1.40001
1.40001
1.40001
1.78373
1.40001
1.40001
1.76931
1.40001
1.40001
1.11032
1.40001
1.61005
1.40001
1.40001
1.79799
1.80859
1.76167
1.40001
1.40001
1.10392
1.40001
1.40001
1.4
1.40001
1.14566
1.40001
1.40001
1.40001
1.80826
1.40001
1.40001
1.40001
1.40001
1.71094
1.40001
1.40001
1.83828
1.13365
1.40001
1.40001
1.09912
1.10266
1.40001
1.40001
1.40001
1.72217
1.65546
1.40001
1.40001
1.40001
1.40001
1.40001
1.40001
1.40001
1.66232
1.73742
1.37775
1.40001
1.40001
1.12427
1.40001
1.40001
1.40001
1.72251
1.40001
1.40001
1.40001
1.4
1.40001
1.40001
1.11102
1.40001
1.74008
1.40001
1.40001
1.72188
1.40001
1.40001
1.8376
1.40001
1.1404
1.40001
1.40001
1.40001
1.40001
1.40001
1.40018
1.40001
1.84306
1.74006
1.40001
1.80583
1.40001
1.40001
1.40001
1.15628
1.41752
1.15023
1.40001
1.40001
1.40001
1.40001
1.40001
1.73004
1.40001
1.7646
1.40001
1.40001
1.40001
1.40001
1.40001
1.05342
1.77158
1.40001
1.14414
1.18471
1.19544
1.40001
1.69447
1.54355
1.40001
1.73873
1.40001
1.40001
1.40001
1.40001
1.72306
1.40001
1.40001
1.74654
1.74943
1.40001
1.40001
1.40001
1.40001
1.40001
1.739
1.33232
1.40001
1.2451
0.990838
0.912461
1.3235
1.75533
1.40001
1.58637
1.40001
1.77138
1.40001
1.40001
1.73922
1.83873
1.40001
1.83437
1.40001
1.40001
1.15334
1.84155
1.83949
1.84073
1.73682
1.25137
1.22666
1.31345
1.76616
1.47561
1.78289
1.40001
1.40001
1.40001
1.7385
1.40001
1.12504
1.8415
1.76935
1.40001
1.78213
1.77688
1.40001
1.71533
1.13773
1.74004
1.73678
1.79432
1.73528
1.40001
1.40001
1.40001
1.76756
1.68662
1.22516
1.78
1.09588
1.74653
1.40001
1.40001
1.40001
1.40001
1.83905
1.77086
1.40001
1.40001
1.7775
1.10492
1.76332
0.98919
1.40001
1.40001
1.40001
1.13264
1.74331
1.16399
1.40001
1.7496
1.75686
1.40001
1.40001
1.40001
1.40001
1.78277
0.947629
1.83081
1.40001
1.40001
1.28139
1.40001
1.11855
1.40001
1.72858
1.24416
1.40001
0.949962
1.40001
1.79042
1.40001
1.74119
1.40001
1.40001
1.40001
1.41869
1.1246
1.40001
1.73302
1.40001
1.40001
1.40001
1.72444
1.40001
1.40001
1.76278
1.39998
1.80447
1.1396
1.40001
1.40001
1.40001
1.40001
1.84101
1.66304
1.83952
1.40001
1.40001
1.74446
1.40001
1.73825
1.74265
1.40001
1.75396
1.40001
1.76436
1.40001
1.56586
1.40001
1.4
1.40001
1.40001
1.4
1.40001
1.40001
1.40001
1.14139
1.40001
1.11538
1.40001
1.40001
1.40001
1.7361
1.40001
1.61746
1.40001
1.40001
1.40001
1.79695
1.40001
1.40001
1.78659
1.788
1.14542
1.81554
1.74015
1.40001
1.40001
1.42503
1.40001
1.40001
1.73935
1.73878
1.40001
1.80761
1.76509
1.78008
1.76314
1.40001
1.40001
1.40001
1.40001
1.17514
1.40001
1.4004
1.40001
1.40001
1.14112
1.40001
1.40001
1.4
1.73907
1.40001
1.72164
1.40001
1.71375
1.36011
1.74825
1.40001
1.73607
1.40001
1.40001
1.40001
1.40001
1.40001
1.77189
1.74224
1.40001
1.42686
1.40001
1.70498
1.74179
1.76775
1.40001
1.74116
1.76319
1.4
1.694
1.40001
1.40001
1.40001
1.64792
1.72574
1.69673
1.40001
1.83291
1.40001
1.40001
1.80034
1.72912
1.17356
1.7348
1.73458
1.40001
1.40001
1.40001
1.40001
1.40001
1.40001
1.40001
1.40001
1.40001
1.76857
1.40461
1.40001
1.40001
1.40001
1.74132
1.73376
1.40001
1.40001
1.71692
1.40001
1.40001
1.40001
1.40001
1.75993
1.40001
1.74047
1.76605
1.40001
1.40001
1.40001
1.60869
1.40001
1.40001
1.40001
1.40001
1.73914
1.73722
1.40001
1.40002
1.14574
1.71852
1.73019
1.31662
1.40001
1.13057
1.66124
1.74234
1.40001
1.40001
1.16557
1.74438
1.74072
1.16304
0.980579
1.40001
1.40001
1.71482
1.40001
1.40001
1.40001
1.40001
1.84258
1.40001
1.39999
1.40001
1.40001
1.71414
1.73534
1.64327
1.40001
1.74017
1.75506
1.40001
1.40001
1.12605
1.40001
1.72057
1.7597
1.40001
1.40001
1.40001
1.83718
1.40001
1.72554
1.71029
1.29529
1.40001
1.40001
1.39995
1.40001
1.40001
1.40001
1.71738
1.7309
1.40001
1.40001
1.40001
1.40001
1.82026
1.40001
1.79129
1.77886
1.14525
1.40001
1.40001
1.40001
1.73996
1.73392
1.83035
1.40001
1.77103
1.40001
1.81151
1.40001
1.78721
1.82196
1.37662
1.81851
1.79179
1.40001
1.40001
1.2662
1.73772
1.40506
1.83662
1.40001
1.40001
1.84239
1.62859
1.72841
1.40001
1.72125
1.79811
1.84207
1.40001
1.46096
1.73507
1.71674
1.22684
1.4016
1.36299
1.39978
1.73541
1.71578
1.84085
1.40001
1.83047
1.39974
1.71374
1.28247
1.77621
1.84915
1.40001
1.24329
1.40001
1.40001
1.40001
1.40001
1.40001
1.40001
1.27569
1.40001
1.40001
1.51182
1.40001
1.83958
1.40001
1.48787
1.40001
1.40001
1.40001
1.75913
1.40001
1.40001
1.40001
1.32673
1.75232
1.71952
1.69343
1.40153
1.74031
1.69357
1.40001
1.71722
1.41067
1.40001
1.40001
1.40001
1.84441
1.45932
1.74947
1.40299
1.40001
1.63711
1.40001
1.80196
1.78972
1.40001
1.40001
1.2057
1.40001
1.40001
1.40001
1.15203
1.40001
1.40001
1.73732
1.40001
1.74113
1.40001
1.40001
1.40001
1.12907
1.51138
1.76063
1.40001
1.40001
1.40001
1.4
1.40001
1.41007
1.40001
1.40001
1.74769
1.71626
1.40001
1.40001
1.16811
1.40001
1.40001
1.47521
1.40259
1.72518
1.40001
1.40001
1.84468
1.40001
1.40001
1.72758
1.40001
1.40001
1.75109
1.40001
1.40001
1.40001
1.40001
1.13145
1.13737
1.40001
1.40001
1.40001
1.40001
1.4017
1.40001
1.71573
1.40016
1.40001
1.4
1.40001
1.47025
1.76881
1.40001
1.40001
1.40001
1.71319
1.40001
1.84151
1.40001
1.40001
1.40001
1.62241
1.40001
1.70991
1.40001
1.16361
1.40001
1.40001
1.83244
1.74062
1.40001
1.13098
1.40001
1.40001
1.40001
1.40001
1.40001
1.40001
1.52076
1.82995
1.40001
1.40001
1.40001
1.40001
1.76668
1.40001
1.7953
1.4
1.39665
1.74346
1.40001
1.4
1.40001
1.40001
1.40001
1.40001
1.41405
1.40001
1.40001
1.40001
1.40001
1.40001
1.40001
1.40001
1.40001
1.71364
1.40001
1.40001
1.47783
1.40001
1.76918
1.40001
1.83448
1.40001
1.76072
1.40001
1.40001
1.40001
1.40001
1.40001
1.40001
1.40001
1.40001
1.40001
1.71891
1.45543
1.40001
1.40001
1.40001
1.40001
1.40001
1.40001
1.40001
1.4
1.40001
1.40001
1.40001
1.40001
1.40001
1.40001
1.40001
1.40001
1.12704
1.39796
1.40001
1.7633
1.40001
1.40001
1.76771
1.40001
1.40546
1.14592
1.40001
1.39957
1.40001
1.40001
1.39828
1.40001
1.40001
1.40001
1.40001
1.40001
1.84575
1.40001
1.84293
0.976062
1.69686
1.40001
1.76492
1.50983
1.40001
1.40001
1.67803
1.4
1.12559
1.00246
1.40001
1.75006
1.75275
1.40001
1.40001
1.40001
1.40001
1.40001
1.39988
1.40001
1.40001
1.15187
1.40001
1.40001
1.75722
1.40001
1.40001
1.41491
1.70695
1.40001
1.40001
1.40001
1.66068
1.73784
1.40001
1.40001
1.82694
1.40001
1.40001
1.70639
1.12538
1.73352
1.75628
1.40001
1.40001
1.78009
1.40001
1.40001
1.40001
1.78552
1.40001
1.40001
1.14049
1.40001
1.40001
1.40001
1.40001
1.40001
1.40001
1.40001
1.40001
1.40001
1.14881
1.40001
1.40001
1.40001
1.40001
1.40001
1.40001
1.83331
1.8396
1.40001
1.40001
1.80515
1.40001
1.80786
1.7402
1.40001
1.40001
1.40001
1.54602
1.66853
1.40001
1.40001
1.40001
1.74763
1.40001
1.40001
1.40001
1.77493
1.40001
1.40001
1.40001
1.7811
1.83982
1.7646
1.40001
1.40001
1.40001
1.18546
1.72569
1.71582
1.40001
1.84425
1.40001
1.73348
1.40001
1.40001
1.78051
1.40001
1.40001
1.72947
1.40001
1.14788
1.40001
1.40001
1.40001
1.40001
1.40001
1.40001
1.40001
1.40001
1.40001
1.77284
1.15763
1.40001
1.40001
1.40001
1.40001
1.76006
1.40001
1.7513
1.40001
1.40001
1.40001
1.71194
1.40001
1.40005
1.40001
1.40001
1.40001
1.40001
1.40001
1.40001
1.40001
1.40001
1.40001
1.73899
0.979451
1.40001
1.40001
1.71414
1.84684
1.40001
1.40001
1.83508
1.40001
1.40001
1.40001
1.40001
1.65113
1.71932
1.76663
1.40001
1.77971
1.40001
1.40001
1.78595
1.40001
1.71673
1.40001
1.40001
1.40001
1.40001
1.75041
1.74118
1.74161
1.40001
1.54637
1.77889
1.40001
1.7523
1.40001
1.72504
1.40001
1.40001
1.40001
1.40001
1.40001
1.40194
1.72215
1.76363
1.40001
1.78845
1.40001
1.40001
1.40001
1.16636
1.40001
1.76772
1.40001
1.40001
1.82787
1.40001
1.40001
1.40001
1.40001
1.73694
1.40001
1.40001
1.71304
1.00653
1.61326
1.40001
1.72261
1.72026
1.40001
1.78623
1.72662
1.40001
1.71425
1.40001
1.40001
1.40001
1.40001
1.68326
1.73844
1.40001
1.40001
1.59297
1.74062
1.40001
1.40001
1.40001
1.40001
1.40001
1.40001
1.14224
1.72492
1.40001
1.40001
1.40001
1.40001
1.78106
1.70449
1.40001
1.68801
0.98939
1.74495
1.40001
1.40001
1.40001
1.10978
1.40001
1.40001
1.40001
1.73544
1.40001
1.40001
1.40001
1.75229
1.40001
1.40001
1.40001
1.40001
1.40001
1.40001
1.75209
1.40001
1.40001
1.40001
1.40001
1.40001
1.83838
1.40001
1.40001
1.79241
1.40001
1.40001
1.40001
1.40001
1.40001
1.40001
1.40001
1.40001
1.7513
1.40001
1.40001
1.40001
1.40001
1.57075
1.73262
1.40001
1.40001
1.40001
1.40001
1.40001
1.40001
1.11236
1.13328
1.42028
1.40001
1.46697
1.40001
1.45529
1.40001
1.74686
1.40001
1.66626
1.40001
1.40001
1.40001
1.40001
1.40001
1.40001
1.40001
1.40001
1.71213
1.40001
1.65485
1.79501
1.40001
1.40001
1.7335
1.40001
1.40001
1.40001
1.47533
1.12323
1.40001
1.75921
1.40001
1.40001
1.40001
1.40001
1.40001
1.73167
1.40001
1.40001
1.40001
1.14582
1.40001
1.40001
1.73699
1.8429
1.40001
1.40001
1.40001
1.40001
1.40001
1.84235
1.40001
1.40001
1.40001
1.51815
1.40001
1.5089
1.40001
1.40001
1.40001
1.74061
1.40001
1.40001
1.1457
1.72638
1.40001
1.68903
1.40333
1.63835
1.40001
1.40001
1.44849
1.40024
1.78354
1.14471
1.44056
1.71514
1.40001
1.40001
1.40001
1.40001
1.40001
1.74444
0.999242
1.40001
1.40001
1.79913
1.63059
1.40001
1.42608
1.40001
1.40001
1.40001
1.13743
1.40001
1.40001
1.40001
1.73092
1.40001
1.40001
1.40546
1.4
1.40001
1.57217
1.40001
1.4
1.40001
1.71661
1.01855
1.40001
1.40001
1.40001
1.40001
1.40001
1.40001
1.40001
1.40001
1.40001
1.40001
1.40001
1.40001
1.40001
1.40001
1.4
1.13744
1.40001
1.73473
1.40001
1.40001
1.40001
1.40001
1.40001
1.40001
1.40001
1.8401
1.40001
1.3594
1.40001
1.40001
1.40004
1.40001
1.14298
1.40001
1.40001
1.40001
1.40001
1.40001
1.1449
1.40001
1.40001
1.40001
1.40001
1.40001
1.13144
1.40001
1.84425
1.40001
1.40001
1.40001
1.40001
1.40001
1.40001
1.40001
1.40001
1.74077
1.40001
1.40001
1.40001
1.40001
1.40001
1.40001
1.40001
1.40001
1.40001
1.40001
1.40001
1.7127
1.40001
1.54421
1.77324
1.40001
1.40001
1.40001
1.14002
1.40001
1.40001
1.40001
1.40001
1.40001
1.4
1.56997
1.40001
1.40001
1.40001
1.40001
1.40001
1.73224
1.40001
1.40001
1.40001
1.40001
1.40001
1.40002
1.71249
1.33839
1.40001
1.40001
1.39711
1.40001
1.40001
1.40001
1.4
1.40001
1.40001
1.70527
1.40001
1.40001
1.40001
1.40001
1.40001
1.14085
1.40001
1.40001
1.40001
1.67555
1.40001
1.40001
1.76953
1.40001
1.40001
1.40001
1.40001
1.40001
1.40001
1.40001
1.79429
1.40001
1.40001
1.40001
1.40001
1.39625
1.40001
1.40001
1.40001
1.40001
1.40001
1.40001
1.40001
1.40001
1.40001
1.14046
1.40001
1.14149
1.40001
1.56611
1.40001
1.40001
1.40001
1.77512
1.69723
1.40001
1.61962
1.17241
1.40001
1.83467
1.40004
1.40001
1.40001
0.980091
1.40001
1.40001
1.40001
1.40001
1.67375
1.40001
1.40001
1.40001
1.40001
1.40001
1.40001
1.40001
1.40001
1.00963
1.40001
1.40001
1.40001
1.40001
1.40001
1.40001
1.40001
1.73054
1.40001
1.76054
1.40001
1.40001
1.40001
1.40001
1.41724
1.40001
1.40001
1.40001
1.17099
1.41759
1.40001
1.01047
1.13722
1.40001
1.40001
1.76879
1.40001
1.40001
1.4
0.987464
1.6982
1.40001
1.40001
1.40001
1.01101
1.77417
1.40001
0.985871
1.40001
1.69468
1.57944
1.40001
1.40001
1.40001
1.40001
1.40001
1.74303
1.40001
1.40001
1.40001
1.40001
1.40001
1.73843
1.40001
1.40001
1.39989
1.40001
1.73984
1.46492
1.83826
1.39998
0.989371
1.72927
1.40001
1.40001
1.40001
1.40001
1.17713
1.40001
1.11667
1.40001
1.41297
1.40001
1.46914
1.40001
1.40001
1.40038
1.40001
1.40001
1.74239
1.40001
1.40113
1.40001
1.40001
1.40001
1.71527
1.40001
1.0443
1.40001
1.40001
1.40001
1.40001
1.40001
1.78924
1.46147
1.77764
1.40001
1.40001
1.40001
1.40001
1.40001
1.40001
1.40001
1.40001
1.40001
1.40001
1.73383
1.76921
1.40001
0.948194
1.40001
1.40001
1.40001
1.40001
1.73905
1.40001
1.40001
1.40001
1.75418
1.66736
1.45763
1.79552
1.54592
1.80094
1.40001
1.40001
1.05489
1.40001
1.71804
1.47863
1.58332
1.74349
1.40001
1.40001
1.70992
1.40001
1.37895
1.46911
1.40001
1.71397
1.61351
1.72918
1.40001
1.40001
1.40001
1.17515
1.40001
1.74249
1.76637
1.40001
1.60959
1.40001
1.40001
1.40001
1.40001
1.40001
1.74246
1.40001
1.40001
1.40001
1.40001
1.40001
1.4
1.40001
1.72632
1.40001
1.79397
1.40001
1.40001
1.40001
1.40001
1.40001
1.40001
1.40001
1.40001
1.40001
1.40001
1.17848
1.40001
1.8308
1.17106
1.40001
1.39913
1.40001
1.40001
1.66206
1.40002
1.40001
1.40425
1.40001
1.40001
1.821
1.41475
1.40001
1.40001
1.74319
1.46792
1.40001
1.68622
1.73295
1.7818
1.40001
1.4877
1.84004
1.40001
1.40001
1.62003
1.40001
1.40001
1.73902
1.40001
1.75725
1.4
1.40001
1.40001
1.40001
1.62787
1.40001
1.15938
1.40001
1.738
1.74536
1.40001
1.40001
1.40001
1.73996
1.59186
1.40001
1.40001
1.40059
1.39863
1.75745
1.40005
1.40001
1.40001
1.40001
1.40001
1.64045
1.40001
1.73667
1.73137
1.73988
1.40001
1.40001
1.40309
1.40001
1.40001
1.74049
1.40001
1.40001
1.40001
1.40001
1.40001
1.40001
1.4
1.40001
1.45663
1.65389
1.40001
1.40001
1.14264
1.40001
1.40001
1.1908
1.82798
1.40001
1.42851
1.39977
1.78248
1.4
0.950075
1.4
1.40004
1.74281
1.77571
1.40001
1.40001
1.70411
1.40001
1.39902
1.40099
1.40001
1.14066
1.40001
1.40001
1.39745
1.40001
1.40006
1.40001
0.943881
1.40001
1.40001
1.40001
1.39989
1.40001
1.72811
1.40001
1.77692
1.40001
1.07713
1.40001
1.40001
1.76523
1.40001
1.40001
1.40001
1.40001
1.70631
1.82198
1.40001
1.40001
1.39994
1.40001
1.01355
1.40001
1.40001
1.40001
1.80612
1.40001
1.76912
1.70814
1.40001
1.40001
1.40001
1.40001
1.40001
1.40001
1.40001
1.40001
1.40001
1.40001
1.12065
1.40001
1.40001
1.40001
1.40001
1.84785
1.40001
1.40001
0.974323
0.960023
1.40001
1.4
1.40242
0.982909
0.902806
1.40001
1.40001
1.40001
1.71784
1.18296
1.40143
1.40001
1.40001
1.39962
1.40001
1.40001
1.40001
1.40001
1.43154
1.40001
1.40001
1.40001
1.77539
1.69171
1.40001
1.73614
1.40001
1.73723
1.45838
1.40001
1.40001
1.40001
1.40001
1.83402
1.40001
1.40001
1.40001
1.39704
1.45594
1.40001
1.40001
1.40001
1.40001
1.40001
1.40001
1.34059
1.7412
1.40002
1.40003
1.15329
1.4
1.13899
1.20188
1.40001
1.73841
1.74507
1.73203
1.40001
1.73096
1.40001
0.952386
1.40001
1.40001
1.40001
1.37183
1.40001
1.40001
1.76277
1.40001
1.43895
1.73896
1.40001
1.40001
1.40001
1.41728
1.40001
1.7256
1.04225
1.40001
1.40001
1.66902
1.40001
1.40001
1.4
1.40001
1.40001
1.74432
1.40001
1.40001
1.40001
1.40001
1.40001
1.40001
1.40001
1.40001
1.74137
1.40001
0.938547
1.40519
1.40001
1.40001
1.40001
1.79183
1.39899
1.40001
1.40001
1.78368
1.40001
1.62201
1.40001
1.74237
1.02413
1.40001
1.39957
1.40001
1.40001
1.40004
1.40001
1.40001
1.72643
1.40001
1.40001
1.40001
1.16737
1.13862
1.40001
1.73238
1.40001
1.67737
1.40001
1.4
1.40001
1.40001
1.40001
1.69809
0.991412
1.40001
1.398
1.40001
1.40001
1.39993
1.4
1.40001
1.40001
1.79434
1.40001
1.40001
1.40001
1.40001
1.40001
1.40001
1.46543
1.10742
1.40001
1.40001
1.52767
1.40001
1.40001
1.40001
1.40001
1.40001
1.58765
1.40001
1.40001
1.72693
1.40001
1.39997
1.40001
1.40001
1.40001
1.18082
1.80779
1.72284
1.40001
1.40001
1.40001
1.40001
1.73593
1.40001
1.40001
1.40001
1.4027
1.40001
1.40001
1.69358
1.85387
1.47748
1.0732
1.40001
1.71387
1.84033
1.40001
1.39999
1.40001
1.40001
1.40001
1.20255
1.40288
1.1592
1.40001
1.15971
0.935136
1.40001
0.853355
1.40001
1.40001
1.40001
1.40001
1.40001
1.74268
1.5426
1.39935
1.61101
1.40001
1.14091
1.27426
1.35558
1.40001
1.40001
1.7482
1.40001
1.40001
1.4
1.1998
1.40001
1.4
1.40001
1.54657
1.40001
1.40001
1.40001
1.39918
1.40001
1.40001
1.40001
1.74111
1.40001
1.14182
1.40001
1.82685
1.12792
1.40001
1.40001
1.40001
1.40001
1.40001
1.39925
1.40001
1.40001
1.40001
1.80702
1.40001
1.78105
1.40001
1.40001
1.40001
1.40001
1.59157
1.40001
1.40001
0.90784
1.40001
1.40001
1.40001
1.4
1.40001
1.40001
1.40001
1.13046
1.40001
1.40001
1.14693
1.40082
1.40001
1.75089
1.1208
1.40001
1.17027
1.7397
1.40001
1.40001
1.40001
1.40001
1.40001
1.40001
1.40001
1.40001
1.40001
1.40001
1.40001
1.40001
1.40001
1.40001
1.76164
1.05723
1.40001
1.40001
1.40001
1.40001
1.40001
1.40001
1.40001
1.40001
1.40001
0.978609
1.40001
1.40001
1.75011
1.40001
1.40001
1.57098
1.76541
1.14294
1.15172
1.20522
1.14042
1.40001
1.40001
1.16125
1.40024
1.79853
1.397
1.40001
1.40001
1.73344
1.40001
1.40001
1.40001
1.27052
1.40001
1.55631
1.40001
1.40001
1.4
1.40001
1.40001
1.12298
1.40001
1.40001
1.40001
1.39966
1.40001
1.40001
1.40001
1.40001
1.15747
1.40001
1.4
1.10527
1.40001
1.35953
1.40001
1.39619
0.935406
1.40001
1.40001
1.40001
1.39941
1.14496
1.40001
1.16947
1.40001
1.73911
1.39995
1.15514
1.14018
1.40001
1.39088
1.40001
1.40001
1.40001
1.40001
1.40001
1.40001
1.53146
1.73167
1.40001
1.40001
1.40001
1.40001
1.40001
1.40001
1.40001
1.40001
1.39996
1.40001
1.40001
1.41875
1.40001
1.39862
1.20226
1.40001
1.40001
1.40001
1.40001
1.40001
1.40001
1.51347
1.40001
1.40001
1.40001
1.40001
1.40001
1.40001
1.40001
1.40001
1.01517
1.59584
1.39865
1.82269
1.3999
1.40001
1.41487
1.73157
1.40001
1.40001
1.40001
1.26237
1.72027
1.40001
1.76239
1.40001
1.40001
1.39994
0.981414
1.40001
1.10174
1.40001
1.40001
1.40001
1.09028
1.23873
1.40001
1.40001
1.40001
1.40001
1.4
0.936608
1.40001
1.40001
1.40001
1.50515
1.40001
1.04426
1.68271
1.40001
1.40001
1.40001
1.40001
1.40001
1.40001
1.40001
1.40001
1.78887
1.40001
1.40001
1.40001
1.40001
1.0077
1.40001
1.74268
1.40001
1.40001
1.76637
1.4
1.40001
1.40001
1.40001
1.56498
1.58123
1.40001
1.12412
1.40001
1.40001
1.40001
1.40001
1.40001
1.40001
1.40001
1.40001
1.40001
1.4
1.40001
1.7425
1.40001
1.40001
1.40001
1.40001
1.40001
1.40001
1.40001
1.58759
1.40001
1.40001
1.40001
1.40001
1.7305
1.40001
1.40001
1.40001
1.40001
1.40001
1.4
1.40001
1.39991
1.40001
1.40001
1.40001
1.40001
1.79041
1.40001
1.40001
1.73452
0.929193
1.40001
1.40001
1.40001
1.40001
1.40001
1.40001
1.4
1.40001
1.40001
1.40001
1.84132
1.40001
1.40001
1.40001
1.74283
1.40001
1.40001
1.39969
1.40001
1.40001
1.40001
1.40001
1.40001
1.1413
1.42834
1.39975
1.39626
1.40001
1.40001
1.19064
1.83986
1.40001
1.25411
1.40001
1.40001
1.51921
1.13999
1.39976
1.40001
1.74249
1.71122
1.40001
1.40001
1.40766
1.40001
1.74746
1.2602
1.40001
1.40001
1.40001
1.40001
1.75412
0.853344
1.39731
1.40001
1.73146
1.15505
1.40001
1.40001
0.931781
1.50466
1.40001
1.40001
1.40001
1.40001
1.40001
1.40001
1.40001
1.40001
1.40001
1.40012
1.40001
1.40001
1.40001
1.40001
1.40001
1.40001
1.40001
1.40001
1.40001
1.0173
1.40001
1.40001
1.40001
1.52371
1.40001
1.40001
1.40001
1.40001
1.40001
1.19918
1.40001
1.15207
1.40001
1.40001
1.40007
1.29356
1.29932
1.40001
1.40377
1.72212
1.40001
1.40001
1.06147
1.40001
1.40001
1.40001
1.40001
0.930897
0.977618
1.40001
1.40001
1.40001
1.40001
1.40001
1.40001
1.40001
1.40001
1.40001
0.954075
1.66735
1.40001
1.40001
1.14408
1.43947
1.40001
1.40001
1.40001
1.40001
0.94569
1.40001
1.20021
1.40001
1.40001
1.39997
1.40001
1.40001
0.997324
1.40001
1.72922
1.40001
1.14335
1.40001
0.941453
1.40001
1.40819
1.40001
1.74799
1.40001
1.40001
1.83914
1.40001
1.40001
1.58237
1.39692
1.40001
1.39815
1.40001
1.72015
1.40001
1.14037
1.40001
1.83561
1.39867
1.40001
1.40001
1.25548
1.40001
1.4
1.1102
1.40001
1.39999
1.40001
1.40001
1.50084
1.40001
1.40001
1.40001
1.28716
1.40001
1.40001
1.40001
1.40001
1.40001
0.989534
1.4
1.40001
1.40001
1.40001
0.921794
1.73759
1.4
1.11042
1.40001
1.40001
1.40001
1.40001
1.40001
1.83814
1.76692
0.928286
1.39996
1.40001
1.40001
1.4
1.40001
1.40001
1.40001
1.40001
1.59396
1.40001
1.40001
1.40001
1.71307
1.40001
1.40001
1.7921
1.11904
1.40001
1.40001
1.40001
0.942628
1.40001
1.4
1.40001
1.40001
1.40001
1.40001
1.40001
1.40001
1.40001
1.40001
1.8385
1.73862
1.78541
1.72501
1.76845
1.40001
1.40001
1.40001
1.40001
1.72536
1.40001
1.40001
1.40001
1.13292
1.7936
1.39991
1.40001
1.40001
1.40001
1.40001
1.57271
1.40001
1.47164
1.40001
1.40001
1.40001
1.25582
1.76185
1.63175
1.40001
1.77375
1.40001
1.40001
1.40001
1.77128
1.40001
1.57274
1.39712
1.14673
1.40001
1.4
1.40001
1.40001
1.40001
1.40001
1.40001
1.40001
1.00174
1.40001
1.4
1.39511
1.14171
1.40001
1.40001
1.40001
1.40001
1.19116
1.70789
0.890738
1.72917
1.40001
0.934302
1.40001
1.42417
1.40001
1.74679
1.21607
1.40001
1.40001
1.10708
1.40001
1.13523
1.40001
1.40001
1.40001
1.05405
1.40001
1.75329
1.1478
1.40001
0.988104
1.40001
1.7368
1.40001
1.40001
1.39999
1.40001
1.26271
1.40001
1.39968
1.13884
1.4
1.3995
1.40001
1.16632
1.40001
1.40001
1.40001
1.40001
1.64033
1.40001
1.40001
1.40001
1.40001
1.85108
1.40001
1.40001
1.74236
1.40001
1.13398
1.40001
1.1416
1.40002
1.40001
1.40001
1.40001
1.40001
1.46849
1.65575
1.4
1.40001
1.40001
1.6661
0.947585
1.12678
1.40001
1.40001
1.40001
1.40001
1.13364
1.40001
1.49666
1.40001
1.40001
1.73747
1.40001
1.40001
1.15395
1.85489
1.40001
1.16002
1.40001
1.40001
1.40001
1.40001
1.40001
1.40001
1.40001
1.40001
1.40001
1.40001
1.15054
1.39936
1.16427
1.40001
1.40001
1.40001
1.40001
1.73322
1.76543
1.40001
1.40001
1.26203
1.40001
1.40001
1.40001
1.40001
1.40001
1.40001
1.40001
1.72905
1.19743
1.74074
1.40025
0.920795
1.77135
1.40001
0.946363
1.42689
1.40001
1.40001
1.40001
1.19145
1.4
1.17435
1.4
1.39762
0.915169
1.77298
1.40001
1.40001
1.40001
1.40001
1.40001
1.83821
0.956808
1.40001
1.40001
0.929938
1.40004
1.40001
1.18793
1.13835
1.40001
1.40001
1.39938
1.72786
1.40001
1.40001
1.24004
0.979949
1.4
1.85154
1.40001
1.40001
1.40001
1.40001
1.72281
1.40001
1.40001
1.76909
1.40001
1.40001
1.40001
1.40001
1.42923
1.40001
1.40001
1.40001
1.40001
1.40001
1.73641
1.73854
1.40001
1.47748
1.40001
1.40001
1.40001
1.40001
1.40001
0.839635
1.26667
1.12701
1.40001
1.40001
1.76289
1.40001
1.40001
1.68873
1.02072
1.40001
1.72115
1.40001
1.73245
1.08174
1.40001
1.20772
1.40001
1.40001
1.78837
1.40001
1.82371
1.47889
1.40001
1.22813
1.40001
1.40001
1.40016
1.15275
1.40001
1.40001
1.40001
1.42456
1.40001
1.40001
1.85016
1.40001
1.1411
1.82273
1.40001
1.40001
1.40001
1.40001
1.40001
1.4
1.50702
1.40001
1.73774
1.40001
1.40001
1.40001
1.39852
1.40001
1.78156
1.40001
1.40001
1.72167
1.40001
1.81529
1.40001
1.7239
1.63884
1.40001
1.40001
1.40001
1.17299
1.73565
1.40001
1.40001
1.7401
1.40001
1.40001
1.40001
1.73659
1.40001
1.40001
1.40001
1.40001
1.40001
1.53246
1.49784
1.4
1.40001
1.2002
1.40001
1.40001
1.40001
1.40001
1.40003
1.39998
1.40001
1.40001
1.7808
1.15604
1.39998
1.40001
1.73623
1.40001
1.40001
1.40001
1.8114
1.73633
1.38045
1.40001
1.17935
1.40001
1.56514
1.78689
1.75945
1.40001
1.40001
1.40001
1.40001
0.918309
1.40001
1.40001
1.77248
1.45033
1.40001
1.40001
1.40001
1.40001
1.40001
1.40001
1.40001
1.39994
1.83904
1.40001
1.40001
1.40001
1.40001
1.40001
1.68203
1.40001
1.40001
1.40001
1.40001
1.40022
1.72395
0.971103
1.3988
1.40001
1.40001
1.40001
0.976641
1.81679
1.40001
1.40001
1.40001
1.40002
1.40001
1.40001
1.40001
1.40001
1.40001
1.73904
1.78569
1.14857
1.44379
0.913146
1.40001
1.0058
1.40001
1.75024
1.62523
1.40001
1.40001
1.23918
1.40001
1.69812
1.42311
1.39656
0.870467
1.40001
1.40001
1.8388
1.40001
1.39722
0.879655
1.83988
1.83734
1.40001
1.40001
1.40001
1.40001
1.40001
1.40001
1.40001
1.40001
1.40001
1.75014
1.40011
1.40001
1.40001
1.12084
1.40001
1.40001
1.78977
0.95321
1.38741
1.06706
1.72428
1.40001
1.40001
1.40001
1.16129
1.12471
1.41407
1.40001
1.40001
1.79342
1.40001
1.40001
1.40001
1.40001
1.78753
0.926099
1.40001
1.40001
1.40014
1.74982
1.40012
1.70769
1.40001
1.40001
1.40001
1.40001
1.28655
1.40001
1.22602
1.40001
1.40001
1.40001
1.12737
1.40001
1.23333
1.08439
1.40001
1.40001
1.78371
1.40001
1.40001
1.40001
1.73434
1.40001
1.40001
1.83262
1.79742
1.26292
1.7771
1.40001
1.40001
1.40001
1.71095
1.40001
1.40001
1.40001
1.40001
1.40001
1.84402
1.40001
1.40001
1.40001
1.40001
1.78669
1.40021