/*--------------------------------*- C++ -*----------------------------------*\
  =========                 |
  \\      /  F ield         | OpenFOAM: The Open Source CFD Toolbox
   \\    /   O peration     | Website:  https://openfoam.org
    \\  /    A nd           | Version:  12
     \\/     M anipulation  |
\*---------------------------------------------------------------------------*/
FoamFile
{
    format      ascii;
    class       volScalarField;
    location    "2.31";
    object      T;
}
// * * * * * * * * * * * * * * * * * * * * * * * * * * * * * * * * * * * * * //

dimensions      [0 0 0 1 0 0 0];

internalField   nonuniform List<scalar> 
22702
(
1
1
0.961624
1
1.01848
1
1.12038
1
1
0.900212
1.12025
1.1206
1
1.11985
0.965948
1
1
1
1.12061
1
1.11716
1
1.11926
0.892588
1.11811
0.877128
1
1.12037
0.896069
0.896163
1
1.12052
1
1
1
1.11109
1.11833
1.11933
1
1
0.89107
1
1.06175
1
1.12024
1
1
1
1
0.899761
1
0.89554
1
1.12014
1
1.12044
1
1
1
1
0.882641
1
1
0.900405
1
0.890157
1
1
1
0.898226
1
1.11878
1.07547
1
1.11829
1.12446
0.890396
1.11963
0.897241
1
1.12126
0.896274
1.1193
1.11995
1
1
1
1
0.982619
0.898668
1.12051
1
1
0.903625
1
1.11786
0.899546
1
1
1
1
1.06107
1.12108
0.880627
1
1
1.03183
1
0.897319
1
1.11922
1.12049
1
1
0.883293
0.885267
0.898646
1
1
1
1
1
0.977231
1
1.10352
1.01133
1.12
1
1.1197
1.12115
1.11955
1.12037
1
0.886933
1
0.894593
1
1
1
1
1.12109
1
1
1
1
1.11836
1
1.0075
1
1
1
1
0.897417
1
1.00314
1
0.89828
1
1
1
1.12022
1
1.11888
0.884446
0.88357
1.11886
1.11938
1
1.02397
1.0718
1
1.12048
0.897543
1.11165
1
1
1
1
1.11958
1.10008
1
1.12059
0.902589
1.12027
1
0.903209
1
0.896789
0.878735
0.99994
1
1
1.11956
1
1
1.11857
1
1.11892
1.12055
0.89523
1
1
0.896197
1.11854
1
1
1
1.11858
1
0.896522
1
1
1.11856
1.11869
1.11893
1
1.00001
1
1
1
1.11713
1
0.899759
1.12328
1.11845
1.117
1
1
1
0.891303
1.11802
1.05789
1
1.11926
0.893821
0.895936
1.11893
1.11858
1
1.12083
0.882018
1.10635
1
1
1
1
1.11863
1
1.07223
1.01228
1
1
1.11881
0.893956
0.92579
1
1.1194
0.897721
1.11978
1
1
1
1
1
1
1
0.896405
0.92214
0.893556
1.11861
1
1
1
1
1.10794
1
0.897621
1
0.891433
0.897854
1.11881
0.890077
1.11566
1
1
1
0.999337
0.901426
0.888527
1
1
0.88786
1
1.12111
0.887507
1
1
1.12098
0.890866
1
1.11802
0.882201
1.11882
1
0.894198
0.999377
1
1
1
0.895982
1
1
1
1
1.00433
1.07578
1
0.887838
1
1
1
1
1
1
1
1.12054
1
1.12036
1
1
1
0.89247
1
1.11861
0.890471
1
1.09807
1
1
1.1212
1
1
1
1.11809
1
1
1.1162
1.12103
1
1.02671
1
1
0.89103
1
1
1
0.905013
1
1
1
1
0.886757
1
1
1
1
1
0.902071
1.00002
1.11904
1
0.999992
1.11914
1.11918
1
1
0.899584
0.947897
1.1209
1
1
1
1.11879
0.896254
1
1.11884
1
1
0.907514
0.907229
1
0.898994
0.892125
1
1
1
1
1
1
1
1.12042
1.03176
1.11155
0.903336
0.973164
1.12143
1
1.11809
1.12033
0.885874
0.936581
1
0.897545
1
1.12508
1
1
1
1
1.11852
1
1
1
1
1
1
1
1.04608
1.11968
1
1.11866
1
1
0.896365
1
1
1
1
1.11857
1.09247
1
1
0.899342
1.11826
1.11853
1
1.11852
1.11835
1.11872
1
0.953682
1
1.11857
0.998704
1.11864
1
0.891462
0.999695
1.12104
1
1
1
1
0.896425
1.11824
1.10917
1
1.11631
1.11878
1.12101
1
1.06029
1.11848
1
1
1.08541
1.01918
1.11862
0.981841
1.11861
1
1.11857
1.11847
1.11859
1.11812
1
1.11356
0.972997
0.964002
1
1
1
1
1.11855
1
1
1
1
1
1.121
1
1
0.998849
1.11852
1.10851
1
1.1003
1.00001
1
1
1.11862
1
0.999137
1.00138
1
1.11854
1
1.11824
1
1
1.09
1
1.11825
1.00001
1
1.11927
1
1.11855
1
1
1
1.11865
1
1.11801
1
1.11859
1.12088
1.11875
1.12026
1
1.12041
1.12027
1
0.899626
1.11199
1.08725
1
1.11852
1
0.888877
0.881025
1
1
1
1
1
0.900788
1
1.11861
1.03503
1.11844
1
1
1
1
1
1.11852
1
1.11998
1.07305
0.938787
1
1
1.03771
1.03221
1
1
1.04546
1
0.899566
1.11903
1.11893
1
1
1
1.12104
1
1.00001
1.11758
1.11821
0.98786
1
1
0.899907
1.10848
1
1
1
1
1
1.11854
1.12089
1
1.11942
1.11801
1.11881
1
1
1
1
0.882141
1.12024
1
1
1.10871
1.11832
1
1.11233
1.11973
1
1
1
1
1
1.1186
1
1
1
1
1.11906
1
1.11756
0.892752
1
0.887279
1
1
1
0.999057
0.896309
0.999744
1
1
1
1.0178
1
1
0.964905
1
1
1
1
1
1
1
0.999999
0.977801
1
1
0.999286
1
0.896276
1
1
1
1
1.09072
1
1
1
1
0.897134
1
1
1.11225
1.12006
1
1
1
0.967175
1
1
1
1
1
1
0.988314
1.00412
1.1154
1
1
1
1.11952
0.971522
1
1
1
1.11996
1.11933
1
1
1
1
1
1
1
1
1
0.892288
1
1
1.11985
0.896032
1
1.11923
1
0.897011
1
1
0.890907
1
1
1
1
1
1
1
1.11648
1.1184
1
1
1
1
1.10899
1
1.04103
0.898784
1
1
1
1
1
1
1
1.01257
1
1
1.06368
1
1
1
1.09958
1
1
1
1
0.893784
1
1
0.887997
0.89579
1
1
1.11874
1
1.01
1
1
1
1.08604
0.886905
1
0.884565
1
0.931966
1
1
1
1.11901
1
1
1.11852
1
1
1
1.11844
1
1
1.11844
1
1
0.886317
1
1.04079
1
1
1.12128
1.12126
1.08255
1.10721
1
0.892066
1
1
1.11389
1
0.888747
1
1
1
1.11871
1
1
1
1
1.07442
1
1.11062
1.11935
0.90597
1
1
0.876949
0.875728
1
1
1
1.08709
1.09177
1
1
1
1
1
1
1
1.05477
1.1206
1.00421
1
1.11836
0.885017
1
1
1
1.06728
1
1.02581
1
1.10918
1.11812
1
0.891883
1
1.12047
1
1
1.11877
1.11213
1
1.12155
1
0.895219
1
1
1
1.12006
1.11643
1.10534
1
1.11937
1.11848
1
1.11873
1
1.11814
1
0.896119
0.99455
0.891571
1
1
1
1
1
1.1183
1
1.11862
1
1
1
1.1132
1
0.891887
1.11857
1
0.904641
0.892718
0.888145
1
1.06223
1.01288
1.11912
1.11852
1
1
1
1
1.11859
1
1
1.1186
1.1184
1
1.04503
1.00004
1
0.99906
1.12025
0.957073
1
0.949169
0.899319
0.899117
0.989096
1.11968
1.11707
1.02666
1.11867
1.11844
1
1
1.12118
1.11996
1.11862
1.12054
1
1.11864
0.896741
1.11909
1.11875
1.11952
1.11851
0.963142
0.972891
0.977695
1.11856
0.988993
1.11853
1
1
1.11911
1.11857
1
0.89696
1.11875
1.11832
1
1.11883
1.11866
1
1.11861
0.901452
1.11832
1.12097
1.12042
1.11794
1
1
1
1.11832
1.08026
0.88786
1.11845
0.889044
1.11837
1
1
1
1
1.1198
1.11851
1
1
1.11853
0.890024
1.11859
0.897858
1
1.11773
1
0.898443
1.11894
0.918112
1
1.11853
1.11915
1.11823
1
1
1.06103
1.11904
0.897004
1.11861
1
1.11834
0.964485
1.11856
0.891013
1
1.11885
0.899505
1.11904
0.895225
1
1.11871
1
1.11911
1
1.07345
1.11459
1.09553
0.875744
1
1.11878
1
1.11815
1
1.11857
1
1
1.11883
0.997035
1.11928
0.903909
1.10408
1
1.08687
1
1.11892
1.11851
1.11898
1
1.10764
1.1186
1.11067
1.07554
1.1194
1
1.08217
1
1.11889
1
1.01881
1
1.11104
1
1.11832
1.11362
1.11336
1
1.11463
0.878334
1
0.891413
1
1
1
1.12
1
1.11876
1
1
1
1.1187
1.11846
1.09916
1.11884
1.11849
0.88789
1.11996
1.12021
1
1.10224
1.11847
1.11458
1
1.12052
1.12054
1
1.12123
1.11876
1.11892
1.11893
1
1
1
1.11846
0.882325
1
1.11856
1
1
0.882471
1
1
1.11862
1.11863
1
1.11847
1.12045
1.11824
0.994937
1.1185
1
1.11849
1.11846
1.09711
1
1
1
1.11872
1.11865
1.11853
0.984213
1
1.12069
1.11859
1.11925
1
1.11855
1.11879
1.11857
1.11929
1
1.11869
1.12023
1.10536
1.11878
1.11854
1
1.12064
1.11737
1.11852
1.11894
1.11885
0.870449
1.11887
1.11885
1
1.11853
1.11854
1.1186
1.11861
1
1.11854
1.11867
1
1.11837
1.10152
1
1
1
1.11878
1.11976
1
1
1.06707
1
1.11645
1
1
1.11842
1.12024
1.11856
1.11845
1
1
1
1.08762
1
1.11881
1
1
1.12087
1.1211
1
1.11851
0.886672
1.11873
1.11824
0.910786
1
0.875134
1.10611
1.11829
1.11932
1.1193
0.899912
1.11881
1.11877
0.895681
0.887723
1
1.11801
1.11868
1
1
1.11866
1
1.12009
1
1.10481
1
1.06012
1.11881
1.11913
1.08812
1.10654
1.11992
1.11973
1.10958
1
0.886612
1.11864
1.11859
1.12107
1
1
1
1.12036
1
1.11863
1.11826
0.921879
1
1.11865
0.999982
1
1.00001
1.00001
1.11849
1.1183
0.999566
1
1
1.11813
1.11905
1.11832
1.11843
1.11886
0.884557
1.10233
1
1.11773
1.11857
1.11852
1.11711
1
1.1185
1.11562
1.11898
1
1.11886
1.11904
0.958877
1.11865
1.11865
1
1.1185
0.951795
1.11876
0.958478
1.11865
1
1.11847
1.12414
1.11854
1.11856
1.11849
1.11955
1.11874
1.11938
1
0.979147
1.11885
1.11859
0.953867
1.11849
0.995495
1.08064
1.11872
1.11842
1.11939
1
1.1192
1.07964
1.11914
0.978962
1.11916
1.12141
1
0.963374
1
1.11715
1
1.08433
1
1.11363
0.965496
1
1.11814
1.11871
1
1.11966
1.11912
1.12052
1.11653
1.12022
1
1.12051
1
1
1
0.972855
1.11846
1.11797
1.11818
1.1185
1.11927
1.11826
1.12043
1.11873
0.973847
1.00866
1
1
1.12445
1.11867
1.11872
1.11861
1.00001
1.06449
1
1.12125
1.10524
1
1
0.924799
1.11848
1
1
0.903914
1.11856
1
1.12042
1.11864
1.12019
1.11457
1.11867
1
0.874908
1.03164
1.11869
1.11859
1
1.11864
1.11862
1.06017
1.00296
1.02817
1
1.11929
1.11888
1
1
0.8889
1
1
1.1185
1.11858
1.11819
1.11829
1.11855
1.121
1.11874
1.11813
1.11855
1
0.99896
1.1189
1.11837
0.999148
1.11853
1.11857
0.8768
0.905177
1.1189
1.11741
1
1
1.00052
1.11862
1.11803
1.11854
1
1.11856
1
0.95506
1.12134
1.11674
1
1.05655
1.11797
1
1.11971
1
1.11867
1.08041
1.11821
1
1.11872
1.11566
0.885335
1.11866
1
1.11891
1.12039
1
0.87737
1.11858
1.09937
0.999302
1.11435
1.11853
1
0.999751
1.12023
0.999299
1.11859
1
1
1.119
1
1.11866
1.11859
0.998928
1.09548
1
1.11862
1
1
1
1
1.11863
1
1
1.11911
1
1.11848
1
1.07855
1.11998
1.11794
1
1
1.00039
1
1.11865
1.11866
1.11919
1.11859
1.11867
1.11854
1.11866
1
1.11866
1.11819
1
1.11872
1.11854
1
1.11805
0.979436
1.01703
1.11871
1.11855
1.1187
1
1.11869
1
1.11862
1.11859
1
1.11859
1
1
1
1
1.11853
0.878424
0.999381
1
1.11861
1.11967
1
1.11867
1
1.00142
0.894779
1.1185
0.999886
1
1.11831
0.999514
1.1185
1
0.999935
1
1.11852
1.11992
1.1187
1.1192
0.892583
1.11895
1.11915
1.11879
1.03187
1
1
1.05492
1.11856
0.87679
0.891936
1
1.11894
1.11839
1.11911
1
1
1.11905
1.11877
0.999965
1
1.08903
0.890494
1
1.021
1.12069
1.11997
0.9995
1.1186
1.12133
1
0.999782
1
1.11835
1.12009
1.05055
1
1.11369
1
1.00083
1.11778
0.886554
1.1188
1.1187
0.999127
0.999973
1.10342
1
0.999912
1
1.12019
1
1
0.87836
1.1187
1
1
1
1
1.12082
1.07106
1
1
0.88948
1.11866
1.07112
1
1
1
1.11362
1.11914
1.11937
1
1
1.11807
1
1.1184
1.11872
1
1
1.119
1.11855
1.1133
1
1
1.11908
1.11835
1
1
1
1.11844
1
1
1
1.11841
1.12056
1.11932
1
1.12034
1.00001
0.90851
1.11855
1.11816
1
1.12044
1.11331
1.12053
1
1
1.11918
1
1.06707
1.11801
1
0.880385
1
1.11902
1
1
1.11982
1
1
1
1.04064
1.11937
0.90561
1
1.11882
1
1
1.11841
1
1.11944
1
1
1.11844
1.11832
1
1.00002
1
1
1
1
1
1
1.11851
1.11875
1
1.12026
0.891225
1.11744
1
1.11898
1.11932
1.11846
1.11981
1.12233
1
1
1.11925
1
1.07788
1.11971
1.11835
1
1.11917
1.11711
1
1.10892
1
1.11894
1.07941
1.11953
0.999293
1.1158
1.11101
1.11886
1.11887
1.01048
1.11856
1.11943
1
1.11871
1
1.11854
1
1
1
1
0.999117
1.11859
1.1186
1.10152
1
1.12057
1
1
1
0.878357
1
1.11602
1
1.10853
1.11358
1
1
1
1.11406
1.1208
1
1
1.11855
0.888638
1.02274
1
1.11967
1.11859
1.10903
1.11583
1.11858
1
1.11886
1
1
1
1
1.1186
1.11861
1
1.11266
1.01672
1.11834
1.11159
1
1
1.11172
1
1
0.901087
1.08445
1
1
1.11971
1
1.11947
1.10915
1
1.10907
0.888177
1.11837
1.11872
1.11865
1
0.896599
1
1
1
1.11843
1.09714
1
1.11975
1.11841
1
1.11853
1
1
1
1
1.11841
0.999812
1
1.11898
1
1
1.11563
1.11887
1
1.1192
1.02531
1.00001
1
1.11816
1
1.11819
1
1.00384
1.11871
1
1.11839
1
1
1.03892
1.11855
1
1
1
1
1
0.998958
0.888495
0.876652
1.00601
1
1.00857
1
1.00877
1
1.11867
1
1.07428
1
1.11853
1
1
1
1.11853
1
1.09305
1.11863
1
1.06607
1.11876
1
1
1.11955
1.11873
1
1
1.01645
0.877368
1
1.11872
1
1
1
1
1.02109
1.11868
1
1
1
0.902344
1
1.11854
1.11861
1.12127
1
1
1
1
1.06297
1.11968
1
1
1
1.12041
1.11783
1.01774
1
1
1
1.11817
1.11788
1
0.877509
1.11864
1.11877
1.11803
1.11947
1.11796
1
1
1.12016
1.11832
1.11857
0.901131
1.01159
1.11802
1
1
1
1
1
1.11844
0.889588
1
1
1.11861
1.05804
1
1.1195
1
1
1
0.893105
1
1
1.03313
1.11862
1.11813
1
1.11754
1.11811
1
1.02301
1
1.11965
1
1.11836
0.889656
1
1
1
1
1.1186
1.00002
1
1
1
1.11255
1
1
1
1
1.11868
0.890383
1.09542
1.1191
1
1.11866
1
1
1
0.999185
1
1.11925
1
0.942318
1
1
1.00001
1.11803
0.895615
1
1.11885
1
1.11787
1.11744
0.896134
1
1
1.1179
1
1
0.892411
1
1.11889
1
1.11389
0.999803
1.11801
1
1
1
1
1.12029
1
1
1.11852
1
1
1
1
1
1
1
1
1.08095
1
1.04133
1.11948
1
1
1
0.887971
1
1
1
1
1.11828
1.11859
1.01828
1
1
1.11879
1
1
1.11846
1
1
1
1
1
1
1.11832
0.931798
1.11796
1.11899
0.999187
1
1
1
1.07241
1
1
1.11785
1.11842
1
1
1
1
0.884686
1
1
1
1.0782
1
1.11844
1.11954
1
1.11882
1
1
1
1.06703
1
1.12029
1
1.11852
1
1
0.998954
1.11821
1
1
1
1
1
1.11813
1.00001
1
0.901859
1.11951
0.889522
1
1.11882
1
0.998855
1
1.11895
1.11892
1
1.11714
0.966884
1.11925
1.11778
1.00001
1
1
0.891972
1
1
1
1.11823
1.07082
1.11752
1
1
1
1
0.999107
1.11847
1
0.890403
1
1
1
1
1
1
1
1.11865
1.11909
1.12023
1
1
0.999133
1
0.996987
1
1
1
0.877681
0.994494
1
0.890324
0.888355
1
1.11889
1.11876
1
1.11827
1.11862
0.890863
1.08572
1
1
1
0.890055
1.11849
1
0.88793
1
1.11824
1.02468
1
1
1
1
1.11748
1.12024
1
1
1.11895
1
1
1.11967
1.11862
1
1.11266
1.11833
1.11979
0.99001
1.11981
1.00258
0.889489
1.09282
1.11887
1
1
1
0.889011
1
0.888424
1.12047
0.990847
1.11815
0.985927
1
1.11828
1.0578
1
1
1.11877
1
1.05108
1.11879
1
1
1.11821
1.12049
0.889472
1.07541
0.999972
1
1.07365
1
1.11972
0.981959
1.12139
1.12047
1
1
1
1
1.11684
1
1
1.11903
0.999904
1.11871
1.09964
1.11575
0.891795
1
1
1
1
1.11861
1.00001
1.11837
1
1.11847
1.11817
1.0166
1.12047
1.03896
1.11844
1
1.08342
0.896221
1.11722
1.11851
1.09748
1.02482
1.11991
1.11928
1.11862
1.11889
1
0.974441
1.01822
1
1.11842
1.06042
1.11875
1.00001
1
1
0.909758
1.118
1.11986
1.09857
1
1.04883
1
1.12132
1.12121
1
1.11823
1.11952
1
1
1
1.11839
1
1.04927
1.11963
1.08532
1
1.11825
1
1
1
1
1
1
1
1
1
1
0.908149
1
1.10986
0.873547
1.07213
0.999596
1.12028
1
1.06548
1
1.07881
1.10536
1
1.00072
1.11924
0.975635
1
1.11682
1.11751
0.981913
1
1.11795
1.11863
1.11935
1
1.11867
1.1187
1.11929
1
1.05895
1
1.00002
1.11866
1
1.11843
1.0182
1.11826
1
1
1.11833
1.11938
0.900616
1
1.11858
1.09061
1.11829
1
1
1.11995
1.11952
0.9995
1
1.10644
0.999066
1.11825
1.00001
1
1
1
1
1.0576
1
1.09099
1.11883
1.09037
1.11892
1
1.00081
1
1
1.11951
1
1.11943
1
1
1
1
1
1
1.01556
1.06545
1
1
0.878791
1
1.11905
0.905122
1.11891
1
1.06085
0.999924
1.11913
1.07888
0.902345
1.06864
1.00001
1.1186
1.11866
1
1.07568
1.11947
1.11878
0.999541
1.11613
1.11713
0.880707
1
1
0.999286
1
1.11889
1
0.902291
1.11933
1
1
1.1077
1
1.11857
1
1.11843
1
0.895189
1
1
1.11836
1.11979
1.11759
1
1.11645
1.11851
1.11687
1
1
1.11613
1
0.923286
1
1
1
1.11839
1
1.11864
1.08077
1.11733
1
1.11862
0.999825
1
1
1
1
1
1
0.906544
1
1
1.11794
1
1.11944
1.11706
1
0.891784
0.887835
1
1.11891
1.02212
0.889023
0.888571
1
1.1186
1
1.11937
0.903744
1.0006
1
1
0.999862
1
1
1
0.999977
1.05078
1.11841
1
1
1.11894
1.07158
1
1.10893
1.12006
1.11869
1.05215
1.11577
1
1.11973
1
1.11561
1
1.11965
1.11822
0.999153
1.11936
1.11944
1
1
1
1
1
0.97747
1.12035
1.00001
1.00001
0.892746
0.999993
0.875133
0.881514
1
1.11902
1.11896
1.11874
1
1.11857
1
0.889394
1
1
1.11934
0.948487
1.11885
1
1.11828
1
0.995091
1.1186
1
1
1
1.11916
1
1.11844
0.889247
1
1
1.07123
1
1
1.06824
1
1
1.11834
1
1
1
1
1
1.11945
1.11879
1
1.11917
1.11883
0.889142
1.05827
1.11615
1
1
1.10755
0.999714
1
1
1.11871
1.11685
1.08116
1
1.1192
0.895292
1.10914
0.999904
1
1.119
1.00001
1.11956
1.10068
1.09238
1
1
1.11857
0.918576
0.882113
1
1.11871
1
1.11813
1
1.07285
1
1
1.11843
1.07962
0.889776
1
0.999471
1
1
1.0075
1.05093
1.11861
1
1.11762
1
1
1
1
1
1
1.01931
0.888654
1
1
1.01093
1
1
1
1
1
1.11861
1
1
1.11855
1.11835
1.08423
1
1
1
0.952102
1.11901
1.08609
1
1
1
1
1.11841
1
1
1
1.11768
1
1
1.08884
1.12271
1.01277
0.927203
1.12147
1.0872
1.11896
1
1.06399
1
1
1
0.892821
1.00039
0.908341
1
0.903231
0.886503
1
0.889842
1
1
1
1.05711
1
1.11898
1.11869
1.00039
1.06226
1.10225
0.875417
0.925334
0.965594
1
1.11911
1.11955
1.11885
1.11855
1.10327
0.962284
1
1.1037
1
1.11599
1
1
0.999
1.00275
1
1
1
1.11936
1
0.875123
1
1.11897
0.89874
1
1
1.11844
1
1.11895
0.999793
1
1
1.11887
1.10856
1
1.12266
1
1
1.00426
1
1.05775
1
1
0.889342
1
1
1.1203
1
1.11776
1
1.00001
0.887333
1
1
0.879423
1.00031
1
1.11902
0.880939
1.11755
0.892808
1.1185
1
1
1
1
1
1
1
1
1
1
1
1.1143
1
1.11904
1.11982
0.887645
1
1
1
1
1
1
1.11547
1
1
0.889152
1
1
1.11927
1
1
1.0468
1.10123
0.891083
0.89135
0.898989
0.917236
1
0.999011
0.891828
1.00015
1.11262
0.99913
1
1
1.11887
1
1
1
0.923972
1
1.04478
1
1
1.05121
1.11849
1
0.88266
1
1
1
0.999084
1
1.118
1.11867
1
0.889808
1
1.06751
0.891252
1
0.96913
1
0.998584
0.887866
1
1
1
0.998853
0.886
1
0.901482
0.999544
1.06572
1.1071
0.894246
0.896459
1
0.997571
1
0.999616
1
1.11796
1.11851
1
1.00583
1.11873
1.11822
1
1
1.11863
1
1
1.00001
1
1.11858
1
1
1.00548
1
0.99959
0.907187
1
1
1
1
1
1.11976
1.01164
1.00002
1
1
1
1
1
1.00001
1
0.889556
1.02822
0.999608
1.11615
1.11928
1
1.00475
1.11873
1.10466
1
1
0.890082
1.11838
1
1.11967
1
1.1182
1.08415
0.889899
1
0.891951
1.10682
0.999914
1
0.888877
0.888061
1
1
1.10129
1
1
0.889242
1
1
1
1.03939
1
0.887695
1.11862
1
1
1
1
1.11879
1
1
1.12138
1.10721
1
1
1
1.11686
0.893115
1
1.11909
1.11855
1
1.09676
1
1.00001
1
1
1.11332
1.00643
1
0.889749
1.07134
1
1
0.999209
1
1
1.11578
1
1
1.00001
1
1.11926
1
1
1
1
1
1
1
1.05654
1
1.11803
1
1
1.11893
1
1
1
1.11902
1.11757
1.01339
1
0.999321
1
1
1
1
1.1197
1
1
1.11864
0.886808
1
1
1
1
1
1
1.09792
1
1
1.11782
1.11887
1
1
1
1.11908
1.11845
1
0.999923
1.11822
1
1
1
1
0.887252
1.00848
0.998908
0.998825
1
1
0.882278
1.11886
1
0.897615
1
1.11803
1.11426
0.892154
0.999832
1.11844
1.11901
1.11806
1
1
0.978694
1.1046
1.09948
0.895719
1
1
1
1.11965
1.11836
0.889417
0.999222
1
1.11851
0.883537
1
1.11969
0.889703
0.993908
1.00189
1
1.11789
1
1
1
1
1
1
1.00003
1.11107
1
1
1.11978
1
1
1
1.11867
1
0.889199
1
1
1
1.04325
1
1
1
1
1
0.933094
1
0.887433
1
1.11894
1.00001
0.960167
0.959503
1
1.00114
1.06562
1
1
0.890338
1.11882
1.11894
1.11865
1
0.886079
0.88967
1
1.11832
1
1
1
1
1
1.00001
1
0.894847
1.08027
1
1
0.888107
0.99757
1
1
1
1
0.887155
1
0.890673
1
1
1.11873
1
1
0.888635
1
1.11865
1
0.873748
1
0.891926
1
1.00229
1.11774
1.12156
1
1
1.1196
1
1
1.02872
0.999074
1
0.999459
1
1.11937
1
0.890248
1
1.12072
0.999714
1
1
0.938086
1
0.999711
0.888771
1.11928
1.0474
1
1
0.974969
1
1
1
0.932245
1
1
1
1.11849
1
0.890806
1
1
1
1
0.885504
1.11873
1.10881
0.891985
1
1.11995
1
1
1.11838
1.11963
1.10159
0.889661
0.999345
0.999783
1
1.11858
1
1
1
1
1.1186
1.00001
1
1
1.11809
1
1
1.11868
0.885905
1
1
1
0.89027
1
1
1
0.9996
1
1
1
1
1.0952
1
1.11951
1.11905
1.1222
1.11876
1.11898
1.11843
1
1.11831
1
1.11859
1.11862
1
0.999657
0.88661
1.10304
0.999972
1
1
1
1
1.00136
1
1.01977
1
1
1
0.957419
1.11863
1.11849
1.11897
1.10811
0.999963
1
1.00612
1.11878
0.999396
1.01881
0.999156
0.907009
1
1.00001
1
1
1
1
1
1.11818
0.887899
1.11825
1.1186
0.998464
0.878344
1
1
1
1.1187
0.883534
1.10572
0.887334
1.11875
1.11917
0.893665
1.1163
1.00692
1
1.11914
0.936554
1
0.999633
0.869256
1
0.900388
1
1.1184
1.11946
0.923582
1
1.11903
0.906415
1
0.891295
1
1.11866
1
1
1.11908
1
0.948385
1
0.999914
0.901479
1.12065
0.999853
1
0.881512
1
1
1
1
1.0688
1
1.11884
1
1
1.12334
1
1
1.11884
1
0.895187
1
0.89989
1
1
1
1
1
1.11403
1.07391
1.11859
1
1.11862
1.11114
0.885508
0.877334
1
1
1.11901
1
0.890549
1
0.99764
1
1
1.1185
1
1.11606
0.869466
1.12156
1
0.870009
1
1
1.11796
1.11869
1
1.00001
1
1.11481
1
1
0.88083
0.999816
0.884553
1
1
1
1.11923
1.11955
1.11942
1
1
0.895605
1
1.12043
1
1
1
1.11153
1.11851
1.11872
0.890953
1.11918
1.11858
0.895539
1.11954
1.00001
0.89714
1.00616
1
1
1.11835
0.89087
1.07871
0.886119
1.11857
0.999261
0.886635
1.11911
1
1
1
1
1.11849
1.11953
0.892188
1
1.00001
0.887996
1.00001
1
0.894411
0.886072
1.08627
1.117
0.999568
1.11872
1
1.11838
0.94932
0.888986
1.11852
1.12048
1
1.11819
1
1
1.11871
1
1.09418
1.11949
1
1
1
1
1.119
1.11789
1.11933
1
1
1.11776
1.12096
1.11878
1
1.11903
1
1
1
1
1
0.887771
0.952514
0.878633
1
1
1.11881
1
1
1.11897
0.884011
1
1.11875
1.11768
1.11415
0.87924
1
0.895137
1
1.00001
1.11937
1.06146
1.12046
1.10895
1
0.893584
1
1.11952
1.08713
0.89439
1
1
1
0.937616
1
1
1.1216
1
0.897762
1.11858
1
1
1
1
1
1.09766
1.02991
1
1.11907
1
1.11698
1
0.999214
1
1.11849
1.1184
1.11828
1.11966
0.999881
1.12046
1
1.11861
1.11846
1.10184
1
1
0.880423
1.11959
1
1
1.11826
1.11825
1.1203
1
1.11889
1
1
1.00001
1.1185
1.11834
1.03625
1.02784
1.11834
1.11851
0.895157
1
1
1
1
1.00001
1.0447
1
1
1.1001
0.884577
0.99999
1
1.11859
0.999967
0.99995
1.01829
1.10553
1.12018
0.97529
1
0.879931
1
1.00121
1.11867
1.11934
1.12031
0.999709
1
1
0.889356
1
1
1.11866
1.01391
1
1
1
1
1
1
1
0.999981
1.11957
1
1
1
1
1
1.07881
1
1.05759
1
1
1.1186
1.11908
0.893354
0.999653
1
1
1
0.892192
1.12
1.11872
1
1
1
1
1
1
1
1
1.11869
1.12026
0.883029
1.0142
0.893985
1
0.892502
1
1.11867
1.03315
1
1
0.916047
1
1.1142
0.939416
0.999054
0.889589
1
1
1.11902
1.00001
0.999183
0.881599
1.11945
1.12129
1
1
1
1
1.11134
1
1
1.11928
0.999687
1.11889
1.00002
1
1
0.869607
1
1
1.11918
0.886965
0.928502
0.895765
1.11849
0.999798
1
1.11805
0.895386
0.890942
1.00545
1
1
1.11958
1.00001
1.05982
1
1
1.1197
0.892831
1
1
1.00004
1.119
1.00004
1.1184
1
1.00001
1
1
0.921255
1
0.93696
1
1
1.11809
0.868884
1
0.937611
0.943178
1
1
1.11884
1
1
1
1.11869
1.11873
1.00002
1.11681
1.11999
0.940636
1.11874
1.11408
1
1
1.11771
1
1
1
1
1
1.11874
1.11883
1
1
1
1.11907
1.00006
1
0.890197
0.91895
1
1.00001
1.04764
1
1
0.971349
0.894424
1
1
1
1.11894
1.10946
1.11857
1
1
1
1
0.878828
1
1.11763
1
1.1174
0.884706
1.11988
1
1
1
0.897429
1
1.11905
1.00001
1
0.895513
1.04556
1
0.999905
1.11997
0.886246
0.882532
1
1.11961
0.890161
0.889579
1
0.869674
1
1
1
1
0.895069
1
1
1
1
1.11906
1
1.09227
0.881222
1
1
1
0.891551
1.11838
1
1
0.999065
1.11811
1
1.11828
1.11912
1
1
0.913151
0.893972
1
1
0.894131
1.04132
1.0592
1
1
1.11877
0.999253
1
0.999344
1.12058
1
1
1
1
1
1
1.119
1
1.04393
1.03998
0.906029
1.10609
1
1.11886
1.11841
1
1
1
0.976151
0.89272
1
1.06596
0.999898
1.10716
1
1
1
1
1
1.00218
1.05596
1.11932
1.11814
1
1.11838
1
0.91075
1
0.999255
0.999935
1
0.880831
1
0.889912
1.00001
1.11924
1.12014
0.887018
1.1203
0.887688
0.998886
1.09169
0.887138
1.08623
1
1
0.999557
1
1
1
1.00002
1
0.882432
1
1
1
1
0.999881
1.11924
0.944958
1
1
1
1.01087
1
1
1
1.06913
0.91906
1
1
1
1.01431
1.12001
1
0.881996
1
1.11921
0.974297
0.905886
1
0.889494
1
1
1.11275
0.999499
1.11259
1
1.00253
1
1
1.11837
1
1
1
1
1.02481
1
1.11848
1.11989
1.11931
0.882103
1.11839
0.999192
1.09982
1
1
0.878493
1
1
0.893485
1.11808
1
1
0.999994
1
1
1
0.879149
0.885921
1
1.12005
1
1.05985
1.11861
0.890645
1.10018
1
1
0.893334
1
1
1.11853
1.11863
1.04531
1
1
1.00035
1.11958
0.882538
0.890976
1.11948
1.11862
1.0841
1.04876
1
0.971718
1
1
1
1.11385
1.11931
1.11905
1
1
1.11899
0.891707
1.10665
0.880463
1
0.891021
1
0.885868
1.11857
0.89118
1
0.99703
0.90482
1
1
1
0.955142
1.1084
1.11853
1.11893
1.12001
1
1
1.11964
1
1
1.11911
1
0.896861
1
0.86894
1
1.11974
1
1
1.00594
1.09416
1
0.999633
0.906271
1.11831
1
0.877524
1.02387
1
1
1.09296
1.11857
1.11854
1
1.11823
1.03615
1
1.00679
1.11862
1
1
1
1
1.1186
1
0.878555
1.11863
0.890469
0.867973
0.951246
1.11822
1.04474
1.12001
1
1.11992
0.999221
1.00001
1.11852
1.11956
1
1.11988
1
1.11899
1
1.11974
1
1.00001
1.00001
1.11792
0.890342
0.893817
0.999408
1
1
1
0.877655
1
1.08141
1
0.887713
1
1.05005
1.1184
1.11739
1
1
1.00001
0.999827
1
1.1199
1.11845
1
1.05355
1.11871
0.957314
1.11839
1.00032
0.88352
1.02585
0.895564
1
1
1.02126
1.12009
1
1
1.01415
0.999594
1
0.877819
1
0.930603
1
1.11836
1
1
0.889259
1.03033
1.01924
0.999567
1.11862
1.11875
0.927612
0.999454
0.883678
0.895836
0.886165
1
1
1
0.999717
0.905528
0.896105
1
1.11861
0.999925
1.11863
1.11848
1.12068
1.11914
1
0.886346
1.11895
0.892861
1
1.11823
1.11849
0.999022
0.948037
1.11858
1.08882
1
0.89104
1
1
1.11888
1
1.00766
1.11885
1
0.872973
0.879693
1
1
0.888364
0.89441
1.11849
1.00001
1
0.871275
0.890541
1.11813
1.11732
1.11156
1.11968
1.03688
0.993401
1.05024
1.12193
1.09225
1
1.06466
1
0.881553
0.956289
1
0.88153
1.11853
1.00663
1.11898
1
1.11861
1.11907
1
1.11835
1.11849
0.888772
1.11941
1
1.1199
1
0.917629
0.889118
1.1186
1
1
1
0.892515
1.11892
1.11916
1
0.893688
1
1
0.881397
1.00001
0.881691
1.11993
1
0.948161
0.898343
1
1
1.07121
1
1
1
1.02184
0.891973
1
1
1
1.11813
0.891673
1
1.1186
0.876483
0.893574
1
1
1.11998
1
1.11763
1
1.11855
0.893038
1
1
0.892821
0.945997
0.869011
1
1
1
1
1.12006
0.880081
1
0.892933
1
1.11807
1
1
0.981574
1
1
0.946197
0.99991
1.00001
1
0.890342
0.89278
1
1
1
1
0.938406
1.11877
1.11992
1
0.889751
0.902206
0.972398
0.890916
1
0.949678
1
0.879497
0.993181
1
1
0.890152
1
1.11921
1.11293
0.890957
1
1
1
1.11877
1
1.01419
0.946244
1.04021
0.889601
1.05222
0.888373
1
1
0.909085
0.974573
1
1.0144
1
1
0.894151
1
0.981836
1.01565
0.892527
1
1.09812
0.920081
0.965611
1
1
1
0.895839
1
0.892604
0.892631
1
0.959147
0.889831
1.02023
0.915582
0.873383
1.11852
1
1.11859
1.06916
0.9204
1.11862
0.882652
0.999722
1.11939
1
1
1.11912
1
0.918976
1
1.02056
1
1
1.11844
1
0.935267
0.945474
1.12065
0.981422
1
0.916624
1.11853
1.11979
0.974367
1
1.1187
1.03507
0.952402
1
1.00659
1
0.893552
1.05328
0.934903
0.927204
1
1
0.895079
1.11812
0.991826
0.890465
0.888329
0.95894
1
1.00424
1.11956
1.11858
1
1
1
0.892715
1.06059
1
1.11852
1.10902
0.888703
1
1.02741
0.9629
1.07568
1.10213
1
1.01273
1
1.00002
0.876733
0.954965
1
1
0.944986
0.874333
1.01188
1
1
0.874473
1.05768
1
1.12007
1
1.01371
1.06846
1
1.11763
1
1
1.11837
1
0.88402
1.11918
0.913094
1.03448
1
0.889729
0.999975
1
1.00001
1
0.935891
1.00754
0.889088
1.09134
1.12042
0.878437
1
1
1
1
1
0.992622
0.893335
1.01505
0.889882
0.887881
1.0208
1
0.999945
1.03328
1
1
0.891939
0.998756
1
1
1.03846
1
1.11975
1
1.11922
1.02695
1.00672
0.892849
1
1
0.878033
1
1
1
1
1.12111
1.0124
0.999442
1
0.883081
1.01453
1
1
1.08126
1
0.8972
1.11875
1
1
1
1.1193
0.886559
0.966289
0.884353
1.0914
1.11862
1
1
1.11846
1
0.894843
1
1
1
1
1
0.932549
1
1.11895
1
1
1.04434
1.1197
0.890863
0.965538
1
1.11838
1
1
1
1
1
1.11869
1.11962
0.891635
1.11861
0.881069
1
1
1.11872
1
1.11949
1.00414
1.00824
1.01941
1.11847
1.01887
1.08506
0.882546
1
0.883794
0.996532
1
1.11877
1
1
0.88499
1.11991
1
1.11973
1
1
1
1
1
1
0.887345
1.11957
0.960342
1.11863
1
0.887559
0.889502
0.917779
1.11996
1.11831
0.990369
1
0.944978
1
1.04948
1
1.11847
0.881853
0.888618
0.95897
1
1.11848
1
1.02059
0.896721
1
1.11974
1.10719
0.999666
1
1.11859
0.889682
1.12011
1.11865
1.11799
0.892873
1.0256
1
1
0.887944
1
0.948584
0.951626
1
1.00001
1.11831
1
1.11816
1.02729
1
1.01188
1.1198
1
0.883726
1
0.923568
1
1
1.0991
1
0.940938
1
0.895903
1.01041
0.988095
0.895722
1.11901
1.09674
1.11973
0.88887
0.909924
0.998696
1
1
0.902613
1.11277
0.887745
0.999989
1
1.11856
1.11911
0.967639
1
0.888155
0.904819
1.08133
0.992651
0.881555
1
0.888171
1.03456
0.894863
1
1.00002
0.944109
1.12001
1.11855
0.949198
0.999879
1
1
0.902904
1
0.891089
1
0.898932
0.888989
1
1
1.00001
0.893819
1.11843
1
1
1.00002
1.00001
0.90333
1.11859
1.11862
1
0.889719
1.12019
1
1.02576
1
1
1.11839
0.889875
1
1
0.885616
0.92701
0.890784
0.875538
1
0.898717
0.999172
1.02874
0.881364
1
1
1.0362
1
1.10601
1
1
1.08825
0.89632
1
0.899434
1.0342
1.11895
1
1
0.894957
0.8861
0.881004
0.909926
0.884636
1.09135
0.999834
1
1
1
1
1.11861
0.877263
1
0.984135
0.999908
0.999597
0.999982
0.926891
1.03618
1
1.11862
1.11866
1
1
1.11292
1.00001
1
1.11871
0.892833
1.11967
1
0.88154
1.11852
1.00002
1
0.952561
1
0.884661
1
1.11964
1
1
1.11942
1
1
1.11958
1
1
1
1.12075
1
0.924358
0.917257
1
0.87888
1.11825
1
1
0.991021
1
1.12006
1.07096
1.09631
1
1
0.889642
1
0.889905
1.11658
1.12008
1.11854
1
1.12005
0.890584
1
0.892505
1.09731
1.11224
1.11825
1.11891
0.917058
0.887743
1
1.08299
1.11951
1.11989
1.11873
0.929128
1.04689
1
1.09285
0.92633
1
1
1
1.00001
0.972198
1
1.11911
1
1
1
1
1
1
1.00002
1.11816
1
1.11955
1.09087
0.890619
1.11972
1.00864
1.06148
1
1.11888
1
0.887939
1
1
1
1
1.10264
1
0.886939
1.11912
0.880038
1.11869
1.09602
1.06531
1
1.02343
1.0603
0.998825
0.90493
0.929317
1.00001
1
0.975728
1
0.885183
1.11945
0.871823
0.981056
0.956332
1
1
1
1.00372
1
1
0.897672
0.99894
1.12028
1
1.11856
1
0.891332
1
1
1.11846
1.119
0.88883
1
1.11895
1
0.942681
0.882882
1.11943
1.10751
1
1.02123
1.11859
0.999615
1
1.05304
1.10592
1.11865
0.998749
1
0.999999
1.10227
1
1
1
1.11847
0.999573
1
1
1.11877
1
1
0.893862
1
1
1
1.11932
1
1
0.961326
1.04108
1.10929
0.938505
1
1.11868
1
1.04356
1
1.11963
0.999205
1.11855
1
0.889575
1
1.08418
1
1
1.11153
1.00001
1.1184
1
1.1181
0.904504
0.889516
1.11928
1
1.1029
1
1.1195
1
1
1.00001
1.11838
1.11786
1.03509
1.11845
0.998882
0.892313
1.11878
0.964158
1
1.11763
1
1.11882
1
1.11897
1.11927
0.9989
0.88735
1
1.11865
1
1.0107
1
1
0.999406
0.924256
1.10725
1
1.10922
1
0.96732
0.880627
1.11905
1.11839
0.913252
1
1.11875
1.11947
1.11917
0.895868
1.11814
0.904561
1.11933
1.12099
1
1
1.11846
1
1
1
1
0.888255
1
1
1.11969
1.1186
1
1.11873
1
1.12
1.11971
1
1.1004
1
0.886535
1.11887
1.09318
1.03536
0.885313
1.11857
1
1
0.885949
1
1
1.11855
1
1
0.936672
1
1.11853
1.00003
1.11729
0.882612
1.11954
1
1.11859
1.11466
0.971388
1
1.11625
0.927025
1.11861
1.08512
1.11862
1.11804
0.999165
1.1197
1.11859
1.11854
1.11863
1.00029
1
0.894563
1
1.12041
0.948374
1.10991
1
1.11676
1
1
1
1
1
1.11793
0.883328
0.900015
1.11885
1.1186
1
1
1
1
1
1.11766
1.10745
1.11845
1.00634
1
1
1
1.00001
1.11829
1.11858
1
1.11895
1.11928
0.891284
1.08609
1
1.11819
1.1194
1.11797
0.99939
1.11862
1.11865
1
1.10725
1
1
1
1
1
1
1.11843
1.12031
1.11128
1.11855
0.88703
0.90645
1.11858
1.11855
1
0.882944
0.98199
1
1.06142
0.888436
1
0.999847
0.999518
0.887995
1
1.11874
1
1
1
1.11919
0.977172
1
1.11866
1.11866
1
1.11929
1
1
1.11868
1
0.886949
1
1.11864
1
1
0.89227
1
1.11891
1
0.884351
0.886585
1
1.11756
1
0.880575
0.97214
1
1.11846
1
1
1
1.11899
1
0.891324
1.01823
1.11942
1.1199
1.11848
1.01214
1.11898
1.11873
1
1
1
1
1
1.11866
1
0.999806
1.11935
1
0.883285
1
1.11866
1.0601
1.02084
1.05961
1.01919
1.11854
0.907027
1.11845
1
0.891183
0.999189
1.1184
0.981667
1.11856
1.11856
1.1131
1
1.11927
1.11867
1.11849
1
1.00001
1
1
1.11962
1.08691
1
1
0.889767
0.998989
1
1.11849
1
1.11847
1.11854
1.11844
0.974859
1.11852
1.11843
1.00392
1.06183
1.11979
1.11866
1
1.11046
0.956607
1.11339
0.99575
1.11863
1
1.11872
1.11837
1
0.89381
0.980512
0.910089
1
1.02434
0.999035
1.11967
1
1
0.999029
1
1.06141
1.11219
1
1
1.11862
1
1
1.08808
1.11634
1.11462
1.11865
1.11861
1
1.11824
0.921527
1.11898
1
0.999324
0.889417
1
1
0.917144
1
1.04125
1
1.11891
1
1.11661
1.07855
0.887613
1
1
1
1
1
1.11911
1.00336
1
1.11865
1
1.11873
1.11854
1
1
0.991655
0.999953
0.884042
0.888938
0.912629
1.02346
1
0.999554
0.889607
1.00001
1
1.11872
0.984566
1.1114
1.10058
1
1
1
1
1
1.1185
1.1187
1
1.11829
1
1.11933
1.08213
0.998877
1
1
1
1.07
1
0.987438
1
1.1198
1
1
1.11866
1
1
1
1
1
1.11873
0.881764
0.998856
1.10708
1.11851
1
1.11874
1
1
1
1
0.901747
1
1.1188
1.11913
1.11875
1.12005
0.989282
1
1.10207
1.03153