/*--------------------------------*- C++ -*----------------------------------*\
  =========                 |
  \\      /  F ield         | OpenFOAM: The Open Source CFD Toolbox
   \\    /   O peration     | Website:  https://openfoam.org
    \\  /    A nd           | Version:  12
     \\/     M anipulation  |
\*---------------------------------------------------------------------------*/
FoamFile
{
    format      ascii;
    class       volScalarField;
    location    "2.3";
    object      rho;
}
// * * * * * * * * * * * * * * * * * * * * * * * * * * * * * * * * * * * * * //

dimensions      [1 -3 0 0 0 0 0];

internalField   nonuniform List<scalar> 
46253
(
1.29316
1.40001
1.40001
1.40001
1.40001
1.40001
1.23453
1.50358
1.40001
1.40001
1.29681
1.1805
1.40001
1.40001
1.40001
1.40001
1.40001
1.40001
1.40001
1.40001
1.40001
1.40001
1.40001
1.27155
1.24189
1.40001
1.40001
1.40001
1.40001
1.50318
1.49537
1.40001
1.40001
1.40001
1.40001
1.40001
1.40001
1.40001
1.49313
1.40001
1.22537
1.17618
1.40001
1.40001
1.1246
1.40001
1.40001
1.40001
1.40001
1.40001
1.40001
1.40001
1.40001
1.4929
1.4
1.24703
1.40001
1.4
1.63139
1.24801
1.40001
1.49638
1.40001
1.40001
1.40001
1.40001
1.40001
1.40001
1.24827
1.12943
1.23318
1.40001
1.40002
1.35517
1.40001
1.26962
1.54652
1.59833
1.40001
1.40001
1.40001
1.4008
1.40001
1.40099
1.24131
1.40001
1.66814
1.66503
1.48869
1.40001
1.40001
1.21548
1.40001
1.40001
1.40001
1.40001
1.40001
1.40001
1.62892
1.40001
1.40001
1.40001
1.40001
1.4902
1.4
1.23339
1.17868
1.62201
1.62033
1.1992
1.51834
1.39993
1.39986
1.40001
1.40001
1.48245
1.15457
1.22728
1.82325
1.25634
1.40001
1.40001
1.39798
1.3962
1.40001
1.82835
1.40001
1.22822
1.39925
1.6849
1.59411
1.59205
1.40001
1.24117
1.72424
1.40001
1.69292
1.69317
1.25036
1.40001
1.48565
1.57791
1.57605
1.47915
1.4907
1.40007
1.67399
1.67269
1.49326
1.40001
1.19585
1.40001
1.71646
1.70633
1.44002
1.13314
1.22652
1.40001
1.65145
1.40001
1.65023
1.18035
1.2437
1.40001
1.24129
1.68497
1.24246
1.68025
2.0418
1.40001
1.64075
1.63944
1.40001
1.2394
1.40001
1.13634
1.60487
1.40001
1.45309
1.15806
1.40001
1.43905
1.62729
1.62558
1.40001
1.65969
1.65695
1.12668
1.40001
1.40001
1.40001
1.40001
1.46592
1.40001
1.40001
1.40001
1.5156
1.40001
1.49801
1.49606
1.40001
1.40001
1.6459
1.64474
1.40001
1.14572
1.43446
1.60966
1.60849
1.40001
1.40001
1.82181
1.22882
1.40001
1.46728
1.40001
1.4741
1.22584
1.59851
1.40001
1.40001
1.59757
1.13312
1.63475
1.63272
1.21781
1.40001
1.40001
1.47522
1.47335
1.56828
1.40001
1.40001
1.40001
1.40001
1.40001
1.40001
1.40001
1.56617
1.58617
1.40001
1.40001
1.40001
1.40001
1.40001
1.40001
1.40001
1.43224
1.40001
1.58222
1.58133
1.58349
1.45278
1.40001
1.4505
1.61627
1.61425
1.26594
1.249
1.40001
1.24777
1.22541
1.20181
1.48197
1.51634
1.40001
1.40001
1.40001
1.6044
1.56744
1.60274
1.40001
1.40001
1.40001
1.56647
1.40001
1.40004
1.40001
1.48825
1.28541
1.42995
1.42728
1.40001
1.40001
1.40001
1.44759
1.19733
1.2595
1.46476
1.40001
1.61923
1.61693
1.22763
1.40001
1.60776
1.53425
1.40001
1.53049
1.22063
1.55765
1.80669
1.55669
1.23442
1.80427
1.40001
1.58849
1.58657
1.40001
1.47883
1.40001
1.40001
1.65674
1.40001
1.54882
1.40001
1.54726
1.24159
1.60546
1.40001
1.48372
1.22711
1.40001
1.23724
1.24164
1.47155
1.45957
1.40001
1.40001
1.53952
1.53874
1.3926
1.39002
1.40001
1.40001
1.40001
1.41557
1.26325
1.57265
1.57103
1.40001
1.40001
1.40001
1.40001
1.83347
1.40001
1.53043
1.52862
1.40001
1.25207
1.40001
1.4946
1.40001
1.15149
1.40001
1.19018
1.40001
1.56278
1.40001
1.56113
1.40001
1.19336
1.40001
1.40001
1.40001
1.40001
1.40001
1.40001
1.40001
1.52075
1.40001
1.40001
1.40001
1.40001
1.51965
1.40001
1.59668
1.24666
1.40001
1.40001
1.40001
1.22632
1.41237
1.23045
1.55326
1.49927
1.55224
1.40001
1.40001
1.51171
1.86656
1.40001
1.46761
1.50996
1.37474
1.40001
1.5082
1.4191
1.41711
1.40001
1.40922
1.40001
1.34813
1.34724
1.59391
1.40001
1.40002
1.40001
1.40001
1.40001
1.40001
1.40001
1.40001
1.77194
1.40001
1.50841
1.40001
1.51452
1.40001
1.40001
1.26574
1.40001
1.40001
1.50325
1.40001
1.54366
1.40001
1.40001
1.502
1.54254
1.40001
1.64359
1.40001
1.40001
1.40001
1.40001
1.3773
1.48527
1.40001
1.40001
1.49584
1.23144
1.40001
1.19071
1.40001
1.38181
1.44451
1.40001
1.40001
1.25474
1.40001
1.28834
1.41228
1.40001
1.51101
1.40001
1.46781
1.5126
1.40001
1.5351
1.37412
1.40001
1.37117
1.37223
1.53371
1.40001
1.3718
1.40001
1.40001
1.40001
1.40001
1.40001
1.63943
1.40001
1.50918
1.23599
1.4885
1.277
1.42669
1.48719
1.56546
1.31841
1.31956
1.40001
1.40001
1.40001
1.40001
1.39862
1.40001
1.29323
1.22217
1.15907
1.29692
1.37875
1.21512
1.37677
1.40001
1.40001
1.52495
1.49855
1.19718
1.52399
1.47902
1.47795
1.30583
1.24994
1.40001
1.3037
1.4878
1.40001
1.40001
1.40001
1.24575
1.40001
1.49601
1.50084
1.40001
1.40001
1.47733
1.40001
1.40001
1.44615
1.1146
1.43904
1.40001
1.40001
1.46522
1.40001
1.51099
1.52016
1.51252
1.40001
1.53835
1.56677
1.40001
1.37416
1.49622
1.40001
1.40001
1.516
1.40001
1.25584
1.27158
1.40001
1.40001
1.51472
1.40001
1.40001
1.40001
1.40001
1.14886
1.40001
1.40001
1.46481
1.27824
1.46354
1.23807
1.40001
1.40001
1.40001
1.40001
1.40001
1.40001
1.40001
1.37821
1.15869
1.40001
1.40001
1.40001
1.40001
1.40001
1.40001
1.25289
1.47253
1.40001
1.45764
1.40001
1.40001
1.23151
1.40001
1.40001
1.40001
1.50665
1.40001
1.40001
1.50594
1.45341
1.52519
1.40001
1.52827
1.52936
1.53292
1.42133
1.40001
1.45745
1.45616
1.46475
1.45103
1.40001
1.40001
1.34292
1.40001
1.80915
1.51332
1.40001
1.80767
1.40004
1.40001
1.47841
1.48741
1.40001
1.40001
1.45459
1.37644
1.40001
1.40001
1.40438
1.40001
1.40001
1.39997
1.39999
1.41027
1.40626
1.64101
1.64008
1.12755
1.40524
1.62617
1.39538
1.62782
1.61581
1.40001
1.25393
1.27225
1.61733
1.40001
1.60441
1.40001
1.60613
1.40001
1.45864
1.59439
1.40001
1.596
1.71515
1.40001
1.58347
1.40001
1.58528
1.40001
1.15917
1.40001
1.28231
1.27056
1.40001
1.40001
1.57404
1.57555
1.40001
1.40303
1.56391
1.56563
1.40537
1.40001
1.40001
1.54871
1.44233
1.55078
1.40001
1.49314
1.53857
1.23534
1.53953
1.44089
1.4919
1.40001
1.40001
1.40001
1.52793
1.52912
1.46482
1.40001
1.40001
1.51592
1.30577
1.51777
1.22722
1.40001
1.5023
1.50429
1.40001
1.40001
1.40001
1.50987
1.40001
1.49799
1.41444
1.49875
1.40001
1.48988
1.40001
1.49071
1.40001
1.40001
1.50145
1.50292
1.47913
1.48068
1.37116
1.51599
1.47263
1.51992
1.47326
1.40001
1.42013
1.45788
1.45829
1.40001
1.26402
1.44864
1.45014
1.9622
1.40001
1.40001
1.40001
1.44178
1.37023
1.44239
1.12445
1.42433
1.37609
1.19905
1.43027
1.43132
1.41389
1.42556
1.4263
1.25237
1.25078
1.40001
1.52784
1.83517
1.4339
1.40001
1.20984
1.43317
1.2382
1.4416
1.26004
1.40001
1.40001
1.40001
1.48316
1.40001
1.40001
1.40001
1.40001
1.40001
1.48228
1.40001
1.40001
1.40001
1.2693
1.26765
1.40001
1.41416
1.13293
1.28621
1.40001
1.40001
1.40001
1.40001
1.40001
1.38776
1.40001
1.3813
1.40001
1.51857
1.38804
1.52134
1.24537
1.40001
1.30916
1.21843
1.53272
1.40001
1.40001
1.40001
1.40001
1.40001
1.52536
1.52102
1.39609
1.25179
1.25737
1.40001
1.28195
1.40001
1.40001
1.524
1.4108
1.40001
1.52049
1.39977
1.40001
1.41729
1.42391
1.40001
1.52783
1.22893
1.3682
1.40001
1.3752
1.42014
1.40001
1.40001
1.37332
1.4578
1.40001
1.41942
1.10464
1.40001
1.40001
1.55898
1.56056
1.38469
1.40001
1.10747
1.10939
1.21868
1.35562
1.40001
1.50376
1.50586
1.22939
1.70533
1.40001
1.40001
1.40001
1.51249
1.51289
1.40001
1.40017
1.40001
1.46967
1.49821
1.40001
1.39999
1.49917
1.4679
1.37532
1.37181
1.40001
1.37688
1.40906
1.21287
1.37796
1.23503
1.46692
1.40001
1.40001
1.46886
1.40001
1.40001
1.43067
1.37555
1.40001
1.41167
1.27585
1.40249
1.25542
1.25985
1.4115
1.26475
1.26235
1.22546
1.22314
1.40001
1.40001
1.43816
1.40001
1.40001
1.3771
1.28957
1.26779
1.40001
1.40001
1.41268
1.40001
1.50785
1.40645
1.3983
1.51869
1.41015
1.40001
1.40001
1.40001
1.40001
1.40724
1.51595
1.44937
1.10958
1.40001
1.46054
1.40001
1.39435
1.39303
1.46026
1.40001
1.38975
1.37741
1.39095
1.40001
1.40001
1.40001
1.40001
1.37941
1.50927
1.40001
1.40067
1.40001
1.26316
1.40001
1.26452
1.28728
1.23843
1.40001
1.40371
1.40201
1.21457
1.76111
1.40001
1.26562
1.51289
1.5121
1.26795
1.40001
1.40001
1.36852
1.11934
1.40001
1.40001
1.50872
1.15573
1.435
1.37575
1.40001
1.40001
1.40001
1.40001
1.40001
1.40001
1.87306
1.40001
1.28666
1.24617
1.2432
1.45607
1.12147
1.12756
1.13859
1.26225
1.43905
1.28678
1.10852
1.58867
1.59954
1.61011
1.57872
1.59069
1.40001
1.59688
1.60114
1.62009
1.58028
1.37236
1.6123
1.54605
1.56892
1.62149
1.40001
1.62745
1.57071
1.63016
1.40001
1.55432
1.6267
1.63365
1.63604
1.55558
1.40088
1.64857
1.54276
1.40035
1.40001
1.40001
1.54432
1.40001
1.53314
1.40001
1.40001
1.40001
1.3957
1.53484
1.40001
1.40001
1.40001
1.5222
1.53403
1.40001
1.40001
1.40001
1.52412
1.39515
1.15586
1.50845
1.40001
1.34604
1.50963
1.49398
1.49507
1.24312
1.48487
1.48648
1.47578
1.40001
1.2713
1.4758
1.40001
1.46142
1.25275
1.40001
1.40001
1.46261
1.29038
1.15112
1.45406
1.45491
1.44517
1.44709
1.44525
1.12424
1.43526
1.40001
1.40833
1.44572
1.43751
1.4067
1.38456
1.37767
1.4292
1.40459
1.40531
1.23501
1.42794
1.41799
1.42044
1.2884
1.15806
1.1386
1.40001
1.16247
1.40001
1.14434
1.16573
1.14963
1.40001
1.82254
1.42719
1.40001
1.39509
1.38739
1.46448
1.47128
1.40001
1.45593
1.53023
1.5403
1.42338
1.43124
1.52455
1.53286
1.52642
1.52387
1.59916
1.24899
1.4061
1.37753
1.40001
1.35543
1.28288
1.2362
1.39176
1.40001
1.58248
1.52415
1.18297
1.40001
1.38257
1.24817
1.36378
1.38212
1.40001
1.39691
1.40001
1.31249
1.39135
1.44598
1.52166
1.40414
1.41112
1.19667
1.43751
1.36976
1.43676
1.4078
1.22302
1.17963
1.26862
1.17261
1.35131
1.53695
1.41155
1.40001
1.53634
1.61332
1.31806
1.38206
1.40001
1.40001
1.40001
1.39746
1.39971
1.40001
1.40001
1.12824
1.38833
1.23327
1.40001
1.23842
1.40001
1.39414
1.32562
1.40001
1.40001
1.12677
1.23144
1.64504
1.23733
1.51645
1.51674
1.40001
1.54277
1.50369
1.40001
1.38103
1.40001
1.40094
1.37262
1.39516
1.28401
1.40001
1.40001
1.35389
1.38667
1.39832
1.37528
1.50255
1.50385
1.40001
1.37177
1.40079
1.37147
1.37323
1.22803
1.40655
1.40001
1.32804
1.23321
1.39079
1.20855
1.39033
1.52545
1.40001
1.40001
1.40001
1.28803
1.38466
1.40001
1.3712
1.38756
1.41744
1.44428
1.26632
1.37948
1.11993
1.23613
1.57563
1.40001
1.40001
1.33677
1.5911
1.40001
1.40001
1.40001
1.37636
1.40001
1.375
1.14667
1.41809
1.38951
1.40001
1.40001
1.38989
1.40001
1.69206
1.4334
1.66121
1.70141
1.40001
1.20273
1.66467
1.38226
1.39252
1.57179
1.40001
1.24754
1.64143
1.60676
1.34124
1.40001
1.56173
1.64333
1.62417
1.4
1.40452
1.12874
1.40001
1.40001
1.26528
1.62652
1.40001
1.58763
1.39534
1.40001
1.40001
1.2294
1.60613
1.36604
1.41602
1.62555
1.42371
1.22927
1.4001
1.60296
1.6088
1.4502
1.36541
1.40001
1.40531
1.42274
1.38806
1.52212
1.40001
1.58526
1.40001
1.40001
1.40001
1.58467
1.40001
1.40001
1.30281
1.34283
1.40001
1.30931
1.58813
1.51618
1.37932
1.40001
1.51007
1.40001
1.50951
1.40001
1.40001
1.40001
1.40001
1.40001
1.44553
1.40001
1.40001
1.40001
1.40001
1.40001
1.40001
1.40151
1.12172
1.40001
1.38546
1.40001
1.40001
1.40001
1.50606
1.28403
1.15745
1.40001
1.17156
1.39286
1.40001
1.40001
1.40001
1.39989
1.40001
1.53145
1.40001
1.6211
1.25495
1.19474
1.40001
1.40001
1.40001
1.40001
1.40001
1.40001
1.64341
1.6392
1.49952
1.61727
1.40001
1.40001
1.39996
1.39999
1.26476
1.41757
1.40001
1.41074
1.51781
1.40001
1.57541
1.40001
1.36378
1.36791
1.27026
1.57005
1.25773
1.3542
1.40001
1.57685
1.37168
1.37207
1.52041
1.52713
1.20987
1.52804
1.51956
1.3978
1.52289
1.52358
1.35695
1.5584
1.56069
1.48832
1.63239
1.52169
1.55452
1.56217
1.52414
1.35536
1.52901
1.40001
1.38373
1.52773
1.55575
1.65908
1.26931
1.50474
1.52529
1.54067
1.417
1.54728
1.20764
1.54849
1.28657
1.40001
1.36408
1.23065
1.41556
1.49311
1.54189
1.52909
1.46604
1.40001
1.46136
1.59942
1.40001
1.40001
1.12278
1.40001
1.40001
1.41346
1.23385
1.40001
1.53138
1.52496
1.53237
1.40001
1.25384
1.35584
1.52608
1.52535
1.1771
1.52608
1.42815
1.35734
1.57376
1.25012
1.57685
1.51862
1.55317
1.51954
1.50914
1.40001
1.24684
1.40001
1.53126
1.40001
1.14734
1.48971
1.50992
1.53143
1.47845
1.53333
1.49788
1.61199
1.51869
1.46471
1.28073
1.57945
1.40001
1.49733
1.49936
1.40001
1.40005
1.40001
1.40001
1.40001
1.40001
1.40001
1.30548
1.40001
1.34948
1.14821
1.24847
1.59386
1.12638
1.25172
1.61445
1.22283
1.40001
1.11856
1.34942
1.26258
1.40001
1.46761
1.38315
1.40001
1.40001
1.63615
1.14005
1.26834
1.26322
1.40418
1.40001
1.40001
1.12387
1.38064
1.37726
1.56847
1.1353
1.40001
1.40001
1.40001
1.59825
1.40001
1.59911
1.59714
1.45175
1.13848
1.57784
1.58598
1.40001
1.49933
1.58758
1.65868
1.35673
1.40001
1.62823
1.40001
1.40001
1.355
1.58083
1.46864
1.61012
1.15061
1.62006
1.63262
1.56415
1.40001
1.40001
1.51265
1.41577
1.40001
1.40783
1.40001
1.15984
1.40001
1.40001
1.55163
1.12577
1.40001
1.56185
1.46504
1.56505
1.40001
1.40001
1.40644
1.57963
1.12875
1.25258
1.14743
1.37026
1.34968
1.36817
1.15282
1.40689
1.35896
1.38129
1.40001
1.55097
1.15689
1.14048
1.37189
1.55429
1.52904
1.29227
1.40001
1.40001
1.38287
1.38359
1.24027
1.40001
1.526
1.27263
1.5338
1.52216
1.53572
1.36669
1.52082
1.56829
1.11777
1.56873
1.13824
1.35353
1.5286
1.36546
1.4808
1.13099
1.29011
1.51998
1.40001
1.29837
1.43552
1.23284
1.64443
1.27346
1.50354
1.53921
1.64392
1.15298
1.51097
1.37816
1.40001
1.53646
1.51251
1.57344
1.59564
1.40001
1.39275
1.40001
1.46483
1.28366
1.41213
1.19896
1.14986
1.40001
1.1452
1.19499
1.50523
1.40001
1.14764
1.45113
1.38993
1.53781
1.45729
1.13393
1.29179
1.36797
1.36403
1.53883
1.1673
1.48071
1.48736
1.40001
1.48875
1.40001
1.37826
1.63136
1.48212
1.24407
1.60512
1.49289
1.40001
1.13951
1.51555
1.41832
1.40001
1.23884
1.51675
1.55029
1.78167
1.40864
1.40001
1.4572
1.67049
1.46655
1.40001
1.50546
1.46813
1.40001
1.54776
1.5066
1.46378
1.7259
1.52962
1.45936
1.31381
1.40001
1.40001
1.49665
1.16696
1.40001
1.17207
1.47411
1.55099
1.55733
1.17959
1.40748
1.25323
1.40001
1.19784
1.68778
1.40001
1.40001
1.57411
1.68456
1.17938
1.33734
1.44495
1.19072
1.17603
1.35829
1.3131
1.44549
1.43348
1.34059
1.60566
1.37948
1.43729
1.51119
1.33608
1.4865
1.48521
1.44817
1.4502
1.17118
1.40001
1.36127
1.69312
1.42767
1.57449
1.68736
1.25358
1.40001
1.42719
1.40361
1.43754
1.27672
1.40001
1.40001
1.36737
1.36589
1.25982
1.50132
1.40001
1.40001
1.50389
1.30977
1.39905
1.40001
1.40001
1.39726
1.41048
1.41085
1.64097
1.48791
1.20158
1.39136
1.40457
1.40001
1.20134
1.39874
1.23189
1.19281
1.3663
1.52124
1.75112
1.57104
1.3815
1.46556
1.339
1.46478
1.57361
1.25186
1.48248
1.42564
1.40001
1.50867
1.40001
1.40001
1.33329
1.32685
1.34642
1.32907
1.64084
1.41786
1.40001
1.40001
1.34369
1.54751
1.21393
1.23857
1.37629
1.21001
1.44514
1.3896
1.54989
1.21706
1.16776
1.37284
1.70476
1.24249
1.40001
1.38419
1.36393
1.21342
1.69017
1.39051
1.37982
1.40001
1.40001
1.37626
1.3745
1.67739
1.40001
1.40001
1.37152
1.40001
1.51965
1.23368
1.22072
1.28354
1.37533
1.52243
1.3471
1.40001
1.21748
1.2872
1.40001
1.22913
1.1215
1.346
1.37504
1.48517
1.40001
1.40001
1.40418
1.35514
1.41237
1.22208
1.22484
1.68836
1.2827
1.40001
1.40001
1.4976
1.40001
1.40001
1.22559
1.37213
1.4296
1.50052
1.40001
1.11751
1.19701
1.29746
1.57904
1.29131
1.59907
1.36281
1.40001
1.40001
1.40001
1.26717
1.34965
1.39176
1.29212
1.40001
1.40001
1.13149
1.28974
1.24677
1.22766
1.47442
1.47103
1.28292
1.40001
1.5578
1.40001
1.47768
1.40001
1.40043
1.40001
1.24122
1.40001
1.46629
1.40001
1.40001
1.40001
1.40001
1.40001
1.40001
1.40001
1.58238
1.40001
1.39979
1.56634
1.40001
1.46982
1.50827
1.40001
1.40566
1.48352
1.54385
1.40001
1.40001
1.33242
1.22948
1.30367
1.40923
1.56773
1.55892
1.40226
1.48502
1.35582
1.40001
1.40001
1.40001
1.40001
1.41139
1.45286
1.55043
1.40116
1.41405
1.29884
1.45465
1.33151
1.2983
1.38688
1.52812
1.22542
1.54523
1.37892
1.5521
1.38348
1.40001
1.40001
1.22426
1.51622
1.40001
1.40001
1.37421
1.22807
1.31638
1.39056
1.22943
1.53417
1.40001
1.28268
1.40001
1.42164
1.21965
1.23024
1.53615
1.26309
1.31315
1.37536
1.52928
1.40215
1.53561
1.45638
1.40001
1.5313
1.40498
1.27216
1.51174
1.63575
1.41806
1.40001
1.40001
1.47504
1.52152
1.54074
1.61766
1.68755
1.41055
1.23159
1.35423
1.40001
1.53991
1.35857
1.40001
1.52259
1.36013
1.22872
1.51296
1.47773
1.41515
1.4346
1.50236
1.43151
1.38705
1.40001
1.40075
1.3916
1.50321
1.42489
1.40001
1.40174
1.44854
1.51227
1.41948
1.54448
1.51717
1.3805
1.40001
1.23074
1.40001
1.38413
1.22516
1.40001
1.40001
1.68477
1.21487
1.56773
1.22586
1.40001
1.40001
1.5841
1.37933
1.41801
1.2291
1.40001
1.32166
1.40001
1.36987
1.65677
1.15378
1.46102
1.22848
1.37727
1.40001
1.59243
1.46613
1.40727
1.30068
1.36959
1.38151
1.44397
1.37477
1.40001
1.60012
1.3936
1.64743
1.40001
1.59527
1.58402
1.40001
1.42601
1.23708
1.39132
1.24342
1.60727
1.12161
1.41097
1.40451
1.5537
1.40001
1.56799
1.40733
1.22723
1.78472
1.26649
1.40001
1.40001
1.40001
1.38367
1.36045
1.56916
1.53892
1.55656
1.40695
1.40001
1.40001
1.69539
1.54804
1.5311
1.29402
1.40001
1.46696
1.40001
1.48546
1.53802
1.47615
1.53874
1.67121
1.46327
1.42462
1.3793
1.54312
1.53223
1.41292
1.40001
1.2854
1.11289
1.44066
1.40001
1.50734
1.34341
1.40001
1.40001
1.41615
1.40001
1.40001
1.37132
1.26129
1.48278
1.51528
1.55184
1.4001
1.58814
1.40001
1.41691
1.40022
1.3124
1.31364
1.30205
1.51687
1.23906
1.17075
1.50854
1.25983
1.39249
1.22969
1.32495
1.51903
1.24382
1.4844
1.3925
1.49981
1.39767
1.20756
1.49141
1.40001
1.40001
1.45314
1.40001
1.47225
1.40001
1.49558
1.4937
1.48562
1.46871
1.45017
1.55393
1.24977
1.40001
1.5786
1.31576
1.34207
1.42889
1.55386
1.58392
1.40973
1.46229
1.40001
1.48071
1.4703
1.39969
1.42963
1.50655
1.32085
1.26053
1.55077
1.22834
1.40852
1.50429
1.47164
1.40565
1.34385
1.46415
1.37107
1.40001
1.55188
1.42211
1.3862
1.33147
1.4247
1.395
1.41327
1.32001
1.24307
1.46038
1.43605
1.26063
1.40001
1.51178
1.47574
1.34109
1.4918
1.34819
1.54482
1.40001
1.4477
1.44089
1.40001
1.40001
1.40001
1.40001
1.54628
1.58906
1.4289
1.60651
1.32877
1.40001
1.44992
1.38494
1.50139
1.47956
1.44292
1.45251
1.45508
1.48728
1.31881
1.40001
1.40001
1.36887
1.54044
1.40001
1.40001
1.37563
1.5153
1.43037
1.53939
1.46177
1.50671
1.40001
1.39894
1.42424
1.39725
1.52099
1.53298
1.46208
1.40001
1.42513
1.30757
1.40001
1.54025
1.3634
1.52433
1.39419
1.52782
1.42655
1.29968
1.16408
1.60995
1.18859
1.54809
1.53673
1.40001
1.4228
1.50583
1.54328
1.44662
1.40001
1.40001
1.42313
1.40854
1.30395
1.18638
1.38512
1.40001
1.52901
1.35273
1.56505
1.24783
1.40715
1.55807
1.56125
1.50744
1.19028
1.5295
1.55277
1.24527
1.39803
1.38699
1.2498
1.6225
1.38798
1.22699
1.38691
1.40001
1.37871
1.44829
1.45047
1.30944
1.37059
1.57478
1.70558
1.29051
1.4541
1.42325
1.45444
1.27232
1.41917
1.2597
1.57085
1.37028
1.34702
1.4331
1.34471
1.4387
1.44033
1.40256
1.44268
1.56837
1.34809
1.46576
1.3458
1.25834
1.27175
1.46044
1.27265
1.63858
1.40001
1.45598
1.40001
1.30274
1.63755
1.40001
1.40001
1.30356
1.58438
1.40001
1.37918
1.4747
1.69182
1.37522
1.40001
1.18976
1.40001
1.34314
1.27616
1.62049
1.26501
1.4444
1.62036
1.44554
1.41618
1.42094
1.40001
1.22173
1.40001
1.60858
1.47609
1.60228
1.38661
1.33123
1.57425
1.61289
1.57493
1.40001
1.33124
1.18389
1.59863
1.39997
1.58979
1.50715
1.37733
1.60008
1.39903
1.45522
1.39995
1.33822
1.40001
1.27758
1.68789
1.34448
1.18135
1.40001
1.58685
1.2678
1.34366
1.16917
1.39611
1.5892
1.38525
1.49622
1.40001
1.43384
1.43365
1.5213
1.59
1.40001
1.57671
1.39374
1.35822
1.58636
1.40001
1.49656
1.5791
1.42662
1.28156
1.59782
1.40001
1.40001
1.59339
1.56684
1.60538
1.23122
1.60147
1.56814
1.40001
1.32702
1.43515
1.53395
1.55481
1.37921
1.27258
1.27233
1.62288
1.55805
1.58354
1.40474
1.40001
1.40001
1.40001
1.2798
1.54545
1.40001
1.41445
1.23499
1.60832
1.47353
1.41567
1.47725
1.31835
1.54736
1.36261
1.41141
1.54843
1.11427
1.42295
1.52231
1.40001
1.24461
1.52747
1.35748
1.31068
1.52148
1.51684
1.61255
1.42117
1.62894
1.62469
1.40001
1.31191
1.15317
1.53425
1.40001
1.40001
1.43681
1.40001
1.62078
1.2689
1.53624
1.34923
1.40001
1.54559
1.42736
1.43517
1.53576
1.44517
1.27931
1.52384
1.3657
1.37569
1.61617
1.40001
1.33262
1.38077
1.44146
1.53724
1.52597
1.40001
1.35628
1.20676
1.41209
1.63199
1.42571
1.40503
1.63638
1.41405
1.40001
1.41172
1.45631
1.25525
1.89094
1.47281
1.69725
1.51609
1.45438
1.17127
1.57569
1.40001
1.40001
1.39389
1.45385
1.51721
1.39183
1.36835
1.46709
1.45553
1.67479
1.37076
1.40001
1.10343
1.40001
1.19184
1.46487
1.5042
1.50573
1.30361
1.40001
1.40001
1.63957
1.65685
1.40001
1.40001
1.48062
1.30068
1.46175
1.64867
1.47802
1.46482
1.49054
1.49003
1.51825
1.2773
1.40001
1.46423
1.49341
1.32687
1.27614
1.2703
1.48588
1.41593
1.40001
1.52374
1.40001
1.40001
1.7154
1.26914
1.36689
1.63267
1.48359
1.69303
1.27
1.40001
1.40001
1.48561
1.71908
1.34592
1.2266
1.50038
1.40001
1.63524
1.4755
1.49511
1.40001
1.40001
1.40001
1.40001
1.51088
1.40001
1.37904
1.46914
1.31697
1.41025
1.47172
1.40001
1.51181
1.40001
1.40001
1.40001
1.52006
1.46086
1.46226
1.40001
1.49635
1.51336
1.30168
1.40001
1.40001
1.28299
1.3765
1.40001
1.28216
1.53042
1.40001
1.40001
1.40001
1.40001
1.40001
1.4461
1.40001
1.3486
1.52937
1.40001
1.55183
1.41083
1.40001
1.44773
1.17851
1.40001
1.27657
1.50881
1.40001
1.40001
1.54937
1.56766
1.40001
1.40001
1.40001
1.28547
1.28387
1.34299
1.54699
1.22925
1.54963
1.40001
1.40001
1.27321
1.54887
1.40001
1.28601
1.54263
1.40001
1.35767
1.40001
1.45947
1.40001
1.35439
1.40001
1.24131
1.40001
1.40001
1.31216
1.17978
1.54678
1.4
1.40001
1.45678
1.40001
1.37367
1.28369
1.55943
1.19413
1.40001
1.14927
1.40001
1.26088
1.29718
1.35024
1.35897
1.40076
1.4214
1.55571
1.37053
1.37351
1.3093
1.40001
1.40392
1.36756
1.40001
1.40001
1.25641
1.28415
1.4413
1.1485
1.5439
1.57074
1.40056
1.40001
1.54876
1.69518
1.29913
1.47081
1.5541
1.33631
1.38284
1.29377
1.2801
1.57194
1.57391
1.27715
1.46833
1.37731
1.4744
1.45175
1.24232
1.42889
1.5476
1.29512
1.24494
1.40001
1.50109
1.40001
1.40001
1.18676
1.48029
1.55432
1.44478
1.40001
1.40001
1.43023
1.48788
1.40001
1.54164
1.40001
1.48141
1.50204
1.40001
1.07799
1.40001
1.47908
1.40001
1.39717
1.26617
1.40001
1.54874
1.24116
1.47912
1.40001
1.18816
1.40001
1.11994
1.39184
1.40027
1.48817
1.38853
1.15471
1.48866
1.47762
1.28114
1.59752
1.53132
1.54272
1.40665
1.4857
1.48694
1.16645
1.48021
1.51869
1.28698
1.40001
1.55509
1.40001
1.68803
1.35595
1.4941
1.49467
1.15246
1.39834
1.42794
1.40001
1.42479
1.50762
1.38684
1.36627
1.30741
1.5331
1.41042
1.30554
1.40001
1.45729
1.49246
1.40001
1.40001
1.40001
1.49203
1.30737
1.48204
1.45898
1.40308
1.40001
1.50136
1.53184
1.45294
1.5012
1.44475
1.40001
1.69221
1.16514
1.49966
1.64058
1.44506
1.4511
1.40001
1.40001
1.30643
1.49974
1.36027
1.66775
1.62352
1.38585
1.38811
1.38439
1.7415
1.64243
1.38806
1.26329
1.40001
1.44239
1.50917
1.40683
1.40001
1.51257
1.40001
1.59913
1.38766
1.30531
1.61837
1.61732
1.51188
1.32299
1.44124
1.46408
1.57928
1.40001
1.53014
1.36983
1.32582
1.46154
1.51062
1.40001
1.62721
1.50619
1.60231
1.36899
1.37027
1.40001
1.63574
1.46268
1.71707
1.40001
1.56648
1.28379
1.44935
1.60238
1.32012
1.6189
1.59299
1.45266
1.58159
1.62082
1.39536
1.5153
1.54645
1.40001
1.4395
1.47512
1.60426
1.58194
1.5556
1.28435
1.65418
1.52379
1.63813
1.45128
1.42983
1.52378
1.40001
1.51319
1.5957
1.47195
1.57088
1.40001
1.52178
1.28927
1.40001
1.72552
1.58411
1.56194
1.48003
1.40001
1.65875
1.33767
1.40001
1.57299
1.53128
1.5498
1.40001
1.40001
1.47759
1.56438
1.40001
1.52922
1.40001
1.53911
1.5217
1.27882
1.40001
1.55181
1.40001
1.52927
1.18685
1.40001
1.43662
1.53878
1.54211
1.51934
1.40001
1.40001
1.40001
1.49369
1.53667
1.33831
1.53144
1.39203
1.50962
1.53567
1.27146
1.42306
1.56273
1.40001
1.40001
1.42733
1.4156
1.42432
1.40001
1.49151
1.566
1.40001
1.5211
1.33984
1.31879
1.3416
1.54633
1.39951
1.49703
1.53355
1.50806
1.33495
1.51296
1.46397
1.44933
1.30131
1.41206
1.50145
1.40001
1.71725
1.54438
1.36606
1.48727
1.63241
1.20895
1.41513
1.36371
1.2503
1.40001
1.49894
1.54418
1.45608
1.49924
1.54474
1.40001
1.20303
1.47405
1.4716
1.55185
1.4879
1.40001
1.40001
1.54152
1.46434
1.45439
1.40001
1.24083
1.40001
1.40001
1.21615
1.54989
1.40001
1.47545
1.6075
1.48636
1.40001
1.30968
1.47901
1.55104
1.45067
1.40001
1.46624
1.52101
1.36408
1.14733
1.59521
1.36352
1.51488
1.40001
1.56041
1.46994
1.2318
1.40001
1.40001
1.43932
1.25752
1.45365
1.39966
1.51235
1.54944
1.55851
1.40001
1.35532
1.46861
1.40001
1.19734
1.44263
1.42636
1.29426
1.52998
1.40001
1.31077
1.40001
1.55934
1.42159
1.40001
1.40001
1.47109
1.45952
1.48883
1.4518
1.18824
1.40001
1.40001
1.34976
1.23463
1.52661
1.47714
1.3968
1.29741
1.55642
1.20571
1.57015
1.40001
1.52373
1.40001
1.56839
1.40001
1.40001
1.3109
1.40001
1.566
1.37908
1.40001
1.08484
1.53404
1.46805
1.27248
1.39894
1.42305
1.40001
1.3794
1.54432
1.40001
1.56489
1.40001
1.40002
1.44954
1.53195
1.36049
1.51721
1.40001
1.3237
1.3968
1.78591
1.59465
1.23363
1.40001
1.35706
1.23376
1.58244
1.35868
1.40001
1.40001
1.36017
1.36246
1.40001
1.12113
1.37402
1.54343
1.3643
1.57378
1.19097
1.57876
1.3622
1.39978
1.46676
1.41163
1.41158
1.36919
1.54108
1.46062
1.34496
1.3253
1.3995
1.40001
1.57143
1.39454
1.40001
1.40001
1.28498
1.40001
1.47007
1.4641
1.4519
1.40001
1.5513
1.60259
1.46237
1.34476
1.26639
1.40001
1.58237
1.46163
1.68398
1.16669
1.54873
1.46411
1.47482
1.33025
1.47231
1.26448
1.17555
1.17544
1.36844
1.18761
1.57835
1.56895
1.40001
1.4534
1.40001
1.20498
1.26716
1.64139
1.62713
1.40001
1.52747
1.23555
1.32577
1.24203
1.5607
1.49281
1.19376
1.40001
1.41656
1.28108
1.60104
1.52046
1.44769
1.40001
1.40001
1.40001
1.40001
1.46848
1.46293
1.55819
1.2037
1.52522
1.26527
1.39999
1.32641
1.63039
1.46866
1.64477
1.44382
1.41483
1.34895
1.40001
1.40001
1.17649
1.40001
1.45814
1.3273
1.21488
1.47849
1.45271
1.36174
1.4706
1.40001
1.4517
1.40001
1.40001
1.29986
1.57007
1.45881
1.60498
1.34573
1.45424
1.32774
1.70867
1.35207
1.21244
1.38555
1.40001
1.28418
1.56742
1.41313
1.44997
1.4749
1.4452
1.14168
1.44592
1.40001
1.45278
1.47093
1.22352
1.40001
1.47977
1.33981
1.42045
1.2745
1.40001
1.12985
1.13823
1.44794
1.40001
1.35963
1.40001
1.40001
1.41746
1.40001
1.40001
1.47524
1.53069
1.26452
1.34758
1.22034
1.47826
1.45104
1.57937
1.40001
1.40001
1.2808
1.3015
1.45066
1.42762
1.48863
1.40001
1.45444
1.18297
1.4511
1.35094
1.29115
1.17739
1.40001
1.52488
1.4765
1.462
1.57692
1.40861
1.40001
1.40001
1.69738
1.44691
1.5812
1.45452
1.48639
1.4857
1.42446
1.39803
1.40001
1.46991
1.45658
1.57832
1.40001
1.44815
1.30929
1.17328
1.40001
1.40682
1.48857
1.23253
1.36958
1.23863
1.4855
1.56334
1.40001
1.52739
1.44874
1.40001
1.44071
1.43113
1.25824
1.18465
1.46773
1.48163
1.43916
1.23597
1.49438
1.40001
1.50167
1.40001
1.26729
1.40001
1.39999
1.48826
1.18039
1.40001
1.43824
1.58765
1.3685
1.40001
1.55966
1.35998
1.40001
1.36722
1.23265
1.49221
1.3569
1.49888
1.35283
1.17279
1.58514
1.44424
1.45761
1.21981
1.34004
1.40001
1.49517
1.3413
1.35408
1.37678
1.37341
1.40001
1.18862
1.50315
1.30487
1.40001
1.53319
1.24599
1.40001
1.43861
1.43683
1.50493
1.47898
1.34279
1.30589
1.35607
1.35857
1.4753
1.40001
1.32258
1.53255
1.4488
1.3657
1.25733
1.40001
1.24272
1.42534
1.40001
1.45982
1.40001
1.28492
1.41667
1.40001
1.5026
1.47323
1.40001
1.43033
1.40001
1.35076
1.34176
1.53045
1.51414
1.40001
1.19104
1.40001
1.55222
1.73922
1.43608
1.40001
1.45973
1.58239
1.47659
1.50755
1.42244
1.28675
1.33847
1.42361
1.40001
1.65285
1.2528
1.40001
1.30056
1.51844
1.30392
1.43909
1.62495
1.1726
1.6013
1.33106
1.40001
1.51124
1.58928
1.54928
1.46893
1.35997
1.40001
1.56594
1.40001
1.25051
1.40001
1.59796
1.48053
1.29372
1.40001
1.48647
1.51624
1.58582
1.40001
1.55893
1.73352
1.5888
1.4378
1.24624
1.56215
1.25737
1.46254
1.63397
1.40001
1.40001
1.35757
1.37453
1.54514
1.36082
1.57854
1.36261
1.29645
1.56126
1.30401
1.40001
1.33891
1.29667
1.59154
1.40001
1.25625
1.24754
1.17444
1.46565
1.47627
1.40001
1.40001
1.36141
1.23482
1.54846
1.49198
1.52346
1.39851
1.45247
1.16905
1.65431
1.36886
1.4667
1.63451
1.24028
1.32324
1.40001
1.33623
1.7095
1.47404
1.40001
1.33576
1.37097
1.13762
1.55633
1.50738
1.52323
1.44372
1.41401
1.30606
1.45721
1.605
1.34011
1.49873
1.49086
1.3818
1.50432
1.48361
1.51234
1.40001
1.34829
1.47833
1.46789
1.40001
1.35544
1.45078
1.45603
1.62184
1.46748
1.53178
1.19039
1.46346
1.44425
1.40001
1.46645
1.52004
1.40001
1.5393
1.46972
1.33861
1.36086
1.45539
1.40001
1.37047
1.3353
1.47822
1.47191
1.38781
1.50155
1.54821
1.4507
1.45066
1.40001
1.65266
1.33584
1.34944
1.47072
1.39116
1.48163
1.55432
1.70519
1.40001
1.45861
1.565
1.49609
1.40001
1.48921
1.50216
1.36305
1.48094
1.40001
1.47609
1.51068
1.45665
1.40001
1.55227
1.39048
1.50499
1.51712
1.4554
1.52557
1.19718
1.49644
1.56363
1.40001
1.40001
1.60992
1.58169
1.5291
1.34634
1.51216
1.33323
1.28681
1.41224
1.38472
1.39209
1.28267
1.2761
1.48006
1.51006
1.53669
1.33025
1.31288
1.3705
1.5384
1.38685
1.42647
1.50249
1.54608
1.40001
1.37083
1.44662
1.4528
1.4
1.56944
1.34655
1.4616
1.39346
1.40017
1.55216
1.42338
1.51639
1.40001
1.43236
1.45983
1.34409
1.17855
1.38992
1.40001
1.2825
1.48313
1.52076
1.51538
1.18009
1.44227
1.61549
1.49913
1.5614
1.32409
1.69616
1.43958
1.28017
1.51032
1.26045
1.40001
1.5138
1.57699
1.41346
1.71017
1.4288
1.40001
1.40001
1.32216
1.45749
1.17598
1.40001
1.28393
1.22779
1.51386
1.51053
1.39509
1.35056
1.50652
1.56724
1.51567
1.52539
1.40001
1.34334
1.43085
1.50377
1.66695
1.40001
1.40001
1.41302
1.41801
1.40001
1.6178
1.5191
1.40001
1.43969
1.61696
1.40001
1.40001
1.40335
1.27129
1.31974
1.16349
1.29864
1.32419
1.44132
1.57546
1.40001
1.41162
1.54088
1.40001
1.22984
1.30191
1.52985
1.42548
1.40001
1.19351
1.22814
1.30242
1.44076
1.13269
1.37578
1.36255
1.40186
1.46206
1.44591
1.30428
1.27687
1.50068
1.40001
1.49244
1.43139
1.50108
1.58429
1.30536
1.32575
1.27781
1.3047
1.40001
1.44755
1.40001
1.53347
1.57712
1.12955
1.30556
1.30502
1.32537
1.40001
1.30323
1.40001
1.20023
1.1934
1.38292
1.30701
1.35334
1.30677
1.39997
1.44262
1.73581
1.40001
1.44663
1.30533
1.22728
1.30219
1.61867
1.60859
1.40001
1.50211
1.30737
1.65338
1.40001
1.30428
1.40001
1.59174
1.29908
1.43751
1.43652
1.40001
1.12038
1.37024
1.30505
1.50038
1.40001
1.40001
1.40001
1.42382
1.47983
1.47476
1.43188
1.59282
1.57007
1.61525
1.49192
1.46384
1.17714
1.22382
1.5711
1.58969
1.4
1.40001
1.28805
1.29234
1.39763