/*--------------------------------*- C++ -*----------------------------------*\
  =========                 |
  \\      /  F ield         | OpenFOAM: The Open Source CFD Toolbox
   \\    /   O peration     | Website:  https://openfoam.org
    \\  /    A nd           | Version:  12
     \\/     M anipulation  |
\*---------------------------------------------------------------------------*/
FoamFile
{
    format      ascii;
    class       volScalarField;
    location    "2.3";
    object      T;
}
// * * * * * * * * * * * * * * * * * * * * * * * * * * * * * * * * * * * * * //

dimensions      [0 0 0 1 0 0 0];

internalField   nonuniform List<scalar> 
46253
(
0.968745
1
1
1
1
1
0.951029
1.03098
1
1
0.969869
0.937978
1
1
1
1
1
1
1
1
1
1
1
0.962327
0.953317
1
1
1
1
1.03096
1.03064
1
1
1
1
1
1
1
1.02763
1
0.948197
0.937035
1
1
0.920308
1
1
1
1
1
1
1
1
1.02854
0.999999
0.958778
1
1
1.06817
0.954901
1
1.02478
1
1
1
1
1
1
0.959132
0.921543
0.950611
1
1
0.985234
1
0.961735
1.04117
1.05492
1
1
1
1.00023
1
1.00028
0.953083
1
1.07309
1.07245
1.02966
1
1
0.945123
1
1
1
1
1
1
1.06685
1
1
1
1
1.02985
1
0.950655
0.937635
1.06094
1.06054
0.943584
1.03415
0.999978
0.999958
1
1
1.02808
0.929773
0.94854
1.11596
0.961611
1
1
0.999411
0.998963
1
1.11569
1
0.953328
0.999774
1.07725
1.05362
1.05307
1
0.953029
1.08738
1
1.07941
1.07944
0.960199
1
1.02452
1.04947
1.049
1.02635
1.02604
1.00002
1.0746
1.07426
1.02771
1
0.943289
1
1.08533
1.08283
1.0161
0.923121
0.952794
1
1.06892
1
1.06856
0.938577
0.958351
1
0.953129
1.07729
0.953417
1.0761
1.17101
1
1.06597
1.06559
1
0.952501
1
0.923684
1.05571
1
1.01399
0.930352
1
1.01529
1.06236
1.06189
1
1.07105
1.07035
0.921142
1
1
1
1
1.0159
1
1
1
1.0334
1
1.0276
1.02704
1
1
1.06737
1.06704
1
0.92689
1.0144
1.05779
1.05746
1
1
1.11764
0.94924
1
1.01771
1
1.02545
0.948285
1.05478
1
1
1.05453
0.923278
1.06432
1.06379
0.945817
1
1
1.02136
1.02085
1.05153
1
1
1
1
1
1
1
1.05042
1.05621
1
1
1
1
1
1
1
1.01332
1
1.05054
1.05033
1.05497
1.01519
1
1.01454
1.05947
1.05898
0.964574
0.955441
1
0.954973
0.948129
0.943975
1.02757
1.03325
1
1
1
1.05635
1.0466
1.05591
1
1
1
1.04629
1
1.00001
1
1.02809
0.970657
1.00877
1.00803
1
1
1
1.01161
0.938443
0.962963
1.0225
1
1.0649
1.06367
0.948854
1
1.06181
1.04178
1
1.04141
0.946699
1.04389
1.11434
1.04363
0.953922
1.10941
1
1.05214
1.05163
1
1.02857
1
1
1.06769
1
1.04155
1
1.04111
0.958989
1.06066
1
1.02728
0.951158
1
0.951862
0.953237
1.02162
1.02159
1
1
1.03895
1.03872
0.997879
0.997169
1
1
1
1.00266
0.96415
1.04806
1.04761
1
1
1
1
1.11641
1
1.03661
1.03615
1
0.959106
1
1.02767
1
0.929203
1
0.941297
1
1.04526
1
1.04482
1
0.942833
1
1
1
1
1
1
1
1.03408
1
1
1
1
1.03376
1
1.05884
0.960045
1
1
1
0.948451
1.00339
0.952558
1.04272
1.03058
1.04246
1
1
1.03157
1.1285
1
1.02371
1.03107
0.99037
1
1.03214
1.0097
1.01111
1
1.003
1
0.985241
0.984964
1.05764
1
1.00001
1
1
1
1
1
1
1.10303
1
1.03061
1
1.02872
1
1
0.964995
1
1
1.02907
1
1.04011
1
1
1.02872
1.03979
1
1.06495
1
1
1
1
0.993579
1.02654
1
1
1.02918
0.951936
1
0.936211
1
0.99499
1.01699
1
1
0.963142
1
0.970662
1.00383
1
1.02843
1
1.01938
1.03282
1
1.03776
0.992738
1
0.991926
0.992221
1.03742
1
0.992109
1
1
1
1
1
1.06482
1
1.03191
0.954113
1.02494
0.967932
1.01223
1.02459
1.04624
0.976371
0.976716
1
1
1
1
0.99971
1
0.971787
0.947159
0.932056
0.97221
0.993934
0.944686
0.993444
1
1
1.0352
1.02787
0.942815
1.03496
1.02238
1.02209
0.9727
0.955731
1
0.972083
1.02866
1
1
1
0.954338
1
1.02998
1.02516
1
1
1.0224
1
1
1.01145
0.916853
1.01145
1
1
1.01877
1
1.03133
1.03381
1.03177
1
1.03865
1.04576
1
0.992741
1.02733
1
1
1.03276
1
0.95744
0.966754
1
1
1.03241
1
1
1
1
0.92755
1
1
1.01852
0.968817
1.01818
0.951919
1
1
1
1
1
1
1
0.993767
0.931666
1
1
1
1
1
1
0.956527
1.02453
1
1.02062
1
1
0.953718
1
1
1
1.03012
1
1
1.02988
1.01996
1.03571
1
1.03647
1.03657
1.03745
1.01109
1
1.01652
1.01616
1.02446
1.01946
1
1
0.982398
1
1.11049
1.02936
1
1.11065
1.00001
1
1.02775
1.03027
1
1
1.02023
0.993395
1
1
1.00755
1
1
0.99999
0.999995
1.00331
1.0019
1.06602
1.06563
0.921876
1.00172
1.06215
0.99618
1.06255
1.05935
1
0.956862
0.962593
1.05976
1
1.05629
1
1.05673
1
1.01704
1.05362
1
1.05404
1.08933
1
1.0507
1
1.05118
1
0.930597
1
0.969602
0.962062
1
1
1.04822
1.04862
1
1.00126
1.04554
1.04601
1.00581
1
1
1.04151
1.01223
1.04207
1
1.02624
1.03885
0.952715
1.03912
1.01184
1.02588
1
1
1
1.036
1.03634
1.02308
1
1
1.03279
0.974205
1.0333
0.950457
1
1.02915
1.02973
1
1
1
1.02884
1
1.02784
1.00439
1.03197
1
1.0258
1
1.02606
1
1
1.02875
1.02916
1.02285
1.02332
0.991713
1.03264
1.02111
1.03374
1.02129
1
1.01041
1.0169
1.01707
1
0.963892
1.01444
1.01482
1.14953
1
1
1
1.01235
0.991559
1.01261
0.917305
1.01253
0.993259
0.943176
1.00908
1.00932
1.00418
1.00781
1.00804
0.959546
0.958987
1
1.03687
1.11705
1.0099
1
0.947998
1.00968
0.95349
1.0171
0.958748
1
1
1
1.02348
1
1
1
1
1
1.02325
1
1
1
0.965579
0.962243
1
1.00877
0.923818
0.966768
1
1
1
1
1
0.994895
1
0.994802
1
1.03386
0.99499
1.03483
0.955517
1
0.972627
0.946032
1.03727
1
1
1
1
1
1.0355
1.0346
0.997902
0.956308
0.957993
1
0.970043
1
1
1.03551
1.00329
1
1.03492
0.999918
1
1.01061
1.01239
1
1.03608
0.95404
0.991067
1
0.992935
1.00602
1
1
0.992525
1.01708
1
1.00578
0.911788
1
1
1.04423
1.04467
0.995807
1
0.912384
0.912818
0.9461
0.985782
1
1.02928
1.03173
0.953677
1.08743
1
1
1
1.0319
1.03202
1
1.00005
1
1.01985
1.02804
1
0.999996
1.02833
1.01936
0.992926
0.99191
1
0.993449
1.00295
0.948563
0.993798
0.9526
1.01955
1
1
1.02012
1
1
1.00917
0.993174
1
1.00341
0.964814
1.00112
0.962727
0.964341
1.00334
0.961388
0.960658
0.949547
0.949112
1
1
1.01564
1
1
0.993579
0.968654
0.961828
1
1
1.00396
1
1.03043
1.00217
0.999477
1.03413
1.00901
1.00001
1
1
1
1.00235
1.03262
1.01908
0.912726
1
1.01736
1
0.998531
0.998128
1.0173
1
0.997169
0.993675
0.997559
1
1
1
1
0.994281
1.03084
1
1.00487
1
0.960829
1
0.961222
0.967226
0.952198
1
1.00116
1.00068
0.944507
1.10115
1
0.961394
1.0331
1.0329
0.96223
1
1
0.991164
0.915698
1
1
1.03068
0.929332
1.01479
0.993146
1
1
1
1
1
1
1.12799
1
0.966871
0.958934
0.954992
1.02081
0.916385
0.918487
0.922075
0.965236
1.01636
0.967043
0.913238
1.0521
1.05499
1.05781
1.04945
1.05262
1
1.05423
1.0554
1.06053
1.04985
0.992042
1.05838
1.04108
1.04687
1.06088
1
1.06252
1.04735
1.06326
1
1.04299
1.06476
1.06397
1.0646
1.04334
1.00023
1.06831
1.03995
1.0001
1
1
1.04037
1
1.03739
1
1
1
0.998734
1.03788
1
1
1
1.03447
1.03765
1
1
1
1.035
0.998578
0.927365
1.03082
1
0.986267
1.03117
1.02691
1.02723
0.959082
1.02444
1.02492
1.02193
1
0.962259
1.02196
1
1.01797
0.956499
1
1
1.01837
0.970017
0.925692
1.01585
1.01607
1.01345
1.01357
1.01354
0.917421
1.01042
1
1.00259
1.01317
1.01107
1.00665
1.00176
0.993706
1.00888
1.0016
1.00179
0.95111
1.00846
1.00548
1.00626
0.96739
0.92792
0.923116
1
0.929205
1
0.923602
0.930136
0.925239
1
1.11457
1.01275
1
0.998678
0.996507
1.02389
1.0257
1
1.02072
1.03699
1.03956
1.01168
1.01391
1.03548
1.03768
1.03598
1.03551
1.05463
0.95941
1.00209
0.993683
1
0.988125
0.966192
0.952975
1.00387
1
1.05105
1.03566
0.938954
1
0.995348
0.955161
0.991428
0.995233
1
0.999194
1
0.976249
1.00318
1.0182
1.0347
1.00683
1.00892
0.940114
1.0109
0.993049
1.0107
1.0025
0.947433
0.939338
0.962526
0.932456
0.987665
1.03871
1.00347
1
1.0386
1.05902
0.97783
0.99675
1
1
1
0.999673
0.999904
1
1
0.918384
0.998454
0.95197
1
0.952213
1
0.998734
0.980224
1
1
0.921053
0.951483
1.06733
0.953357
1.0328
1.03288
1
1.04025
1.02932
1
0.994783
1
1.00218
0.992371
0.998711
0.966584
1
1
0.987675
0.996295
0.999729
0.993064
1.02903
1.02938
1
0.992074
1.00046
0.991794
0.992345
0.950251
1.0037
1
0.980824
0.951263
0.997454
0.947245
0.997318
1.036
1
1
1
0.96796
0.995805
1
0.99187
0.99662
1.01041
1.01806
0.961965
0.994249
0.91572
0.951472
1.0492
1
1
0.983526
1.05337
1
1
1
0.993313
1
0.992956
0.926745
1.00551
0.997178
1
1
0.997301
1
1.07968
1.00977
1.07185
1.08211
1
0.941622
1.07278
0.995288
0.998073
1.04818
1
0.955014
1.06675
1.05749
0.984726
1
1.04541
1.06723
1.0622
0.999999
1.00171
0.919673
1
1
0.961479
1.0628
1
1.05241
1.0036
1
1
0.949414
1.05741
0.990376
1.01017
1.0624
1.00703
0.950646
1.00004
1.05637
1.05806
1.01949
0.990214
1
1.00368
1.00676
0.998722
1.03476
1
1.05177
1
1
1
1.05166
1
1
0.973724
0.983394
1
0.975178
1.05246
1.0327
0.994228
1
1.03103
1
1.03088
1
1
1
1
1
1.01323
1
1
1
1
1
1
0.997277
0.916566
1
1.00014
1
1
1
1.02999
0.971988
0.927313
1
0.931805
1.00355
1
1
1
1.00133
1
1.03691
1
1.06104
0.958696
0.939114
1
1
1
1
1
1
1.06698
1.0656
1.02815
1.06012
1
1
0.999988
0.999994
0.961692
1.00526
1
1.00314
1.03348
1
1.04846
1
0.989726
0.990898
0.963121
1.04779
0.959463
0.986964
1
1.04871
0.992053
0.992151
1.03459
1.03559
0.948111
1.03586
1.03387
1.00506
1.03464
1.03497
0.987809
1.04444
1.04453
1.02595
1.06346
1.03491
1.04286
1.04498
1.03535
0.98735
1.03613
1
0.995583
1.03585
1.04317
1.07043
0.962793
1.02964
1.03572
1.03919
1.00503
1.04094
0.942904
1.04126
0.97149
1
0.991947
0.951148
1.00458
1.02628
1.0395
1.03628
1.02419
1
1.02271
1.05549
1
1
0.916974
1
1
1.00978
0.951009
1
1.03668
1.03496
1.03695
1
0.958491
0.988954
1.03544
1.03514
0.933393
1.03526
1.01418
0.989895
1.04923
0.956095
1.05372
1.03328
1.04303
1.03353
1.03069
1
0.955027
1
1.03705
1
0.92488
1.02337
1.03091
1.03764
1.02797
1.0381
1.02775
1.0582
1.03349
1.02308
0.966168
1.05025
1
1.02744
1.02803
1
1.00001
1
1
1
1
1
0.97351
1
0.985673
0.925115
0.956806
1.0541
0.917834
0.957818
1.05885
0.949211
1
0.915397
0.985651
0.960304
1
1.02051
0.996742
1
1
1.06493
0.922552
0.966704
0.965238
1.00349
1
1
0.917377
0.999157
0.993585
1.04729
0.920989
1
1
1
1.05449
1
1.05477
1.05425
1.01901
0.921887
1.0492
1.05131
1
1.02935
1.05173
1.07033
0.98979
1
1.06305
1
1
0.992583
1.04998
1.02498
1.05826
0.925819
1.06342
1.06667
1.04601
1
1
1.03214
1.00476
1
1.0023
1
0.928121
1
1
1.04224
0.917542
1
1.04493
1.01477
1.04579
1
1
1.00192
1.05033
0.918515
0.95809
0.926741
0.991614
0.985669
0.990955
0.926471
1.00235
0.989151
0.994866
1
1.04206
0.927654
0.922296
0.992124
1.04308
1.03609
0.970174
1
1
0.995326
0.995537
0.95276
1
1.03522
0.962675
1.03733
1.03437
1.03789
0.990598
1.03402
1.04671
0.914784
1.04682
0.921953
0.986717
1.03592
0.99024
1.02206
0.919604
0.970098
1.03415
1
0.974474
1.01601
0.951945
1.06751
0.964142
1.02914
1.03888
1.06719
0.926327
1.03111
0.993907
1
1.03814
1.03153
1.04862
1.05456
1
0.998135
1
1.02317
0.971524
1.00396
0.944576
0.925414
1
0.923896
0.939383
1.02958
1
0.924624
1.02073
0.998583
1.03843
1.02189
0.920201
0.969397
0.991029
0.990995
1.0387
0.930512
1.02293
1.02468
1
1.02504
1
0.99385
1.06392
1.02333
0.955292
1.05705
1.02733
1
0.922078
1.03243
1.00547
1
0.952235
1.03277
1.04246
1.10356
1.00794
1
1.01624
1.07381
1.0189
1
1.0297
1.01936
1
1.04176
1.03001
1.02311
1.0877
1.03619
1.01686
0.975825
1
1
1.02724
0.930497
1
0.932468
1.02127
1.04251
1.04399
0.934854
1.00784
0.957297
1
0.940363
1.0786
1
1
1.04881
1.07764
0.934802
0.981983
1.0129
0.942657
0.937941
0.989502
0.975613
1.01301
1.00961
0.984393
1.05711
0.995722
1.01069
1.03138
0.981601
1.02542
1.02497
1.01875
1.01931
0.932012
1
0.990185
1.08041
1.00802
1.05263
1.0788
0.958007
1
1.00786
1.00115
1.01478
0.964398
1
1
0.99256
0.991967
0.959452
1.02863
1
1
1.02943
0.975141
0.999788
1
1
0.997511
1.00314
1.0033
1.0663
1.02486
0.941023
0.996415
1.00142
1
0.941088
0.999662
0.950563
0.939012
0.992444
1.03441
1.09813
1.04741
0.994822
1.01854
0.983243
1.01832
1.04809
0.956207
1.0242
1.01213
1
1.03056
1
1
0.981583
0.979697
0.985478
0.980342
1.06608
1.00565
1
1
0.984683
1.04113
0.94532
0.952329
0.993438
0.943814
1.01808
0.998394
1.04179
0.946588
0.930969
0.992309
1.08251
0.954854
1
1.00108
0.994507
0.945259
1.07851
0.997505
0.994283
1
1
0.993244
0.993622
1.07542
1
1
0.992766
1
1.0335
0.9512
0.947747
0.966449
0.993015
1.03425
0.984874
1
0.946729
0.967656
1
0.950666
0.916013
0.984577
0.993066
1.02409
1
1
1.00342
0.987239
1.00901
0.948113
0.948837
1.07894
0.966898
1
1
1.02748
1
1
0.948651
0.992161
1.01386
1.02829
1
0.914657
0.939777
0.971178
1.04929
0.969307
1.05548
0.989467
1
1
1
0.962248
0.985654
0.999832
0.969504
1
1
0.919348
0.968711
0.956192
0.949634
1.02115
1.02169
0.96589
1
1.04372
1
1.02209
1
1.00011
1
0.953052
1
1.02017
1
1
1
1
1
1
1
1.05022
1
0.999937
1.04612
1
1.02544
1.03025
1
1.00259
1.02455
1.04002
1
1
0.980519
0.953804
0.97269
1.00477
1.04655
1.04403
1.00162
1.02922
0.993119
1
1
1
1
1.00368
1.01502
1.04179
1.00239
1.00442
0.971246
1.01552
0.980243
0.974928
0.99728
1.03581
0.948536
1.04038
0.994278
1.04222
0.995677
1
1
0.948183
1.03316
1
1
0.997017
0.949301
0.976598
0.998322
0.949737
1.03744
1
0.966777
1
1.00724
0.946695
0.949933
1.03807
0.960933
0.975653
0.992979
1.03612
1.00105
1.03784
1.01604
1
1.03678
1.00183
0.963559
1.0314
1.06497
1.00621
1
1
1.02633
1.03406
1.0393
1.05968
1.07844
1.0034
0.951397
0.989172
1
1.03907
0.992753
1
1.03434
0.989511
0.950526
1.03174
1.02749
1.0048
1.01085
1.02885
1.00999
0.996431
1
1.00034
0.997677
1.0291
1.01129
1
1.00063
1.01477
1.03163
1.0061
1.04024
1.03297
0.994527
1
0.950692
1
0.995582
0.948634
1
1
1.07757
0.945134
1.04705
0.94872
1
1
1.05084
0.995652
1.0057
0.949919
1
0.979334
1
0.991467
1.07088
0.926218
1.0227
0.949
0.994473
1
1.05301
1.02436
1.00364
0.971151
0.991412
0.996177
1.01346
0.993754
1
1.05504
0.999173
1.06748
1
1.05375
1.0508
1
1.00787
0.951944
0.998547
0.95364
1.05693
0.916547
1.00413
1.00275
1.04278
1
1.04659
1.00309
0.948633
1.10857
0.960778
1
1
1
0.996344
0.98892
1.04691
1.03819
1.04353
1.00672
1
1
1.08069
1.04166
1.03658
0.971107
1
1.01998
1
1.0251
1.03788
1.02156
1.03872
1.07432
1.01894
1.01223
0.995525
1.03995
1.0369
1.00392
1
0.968465
0.913131
1.01253
1
1.03015
0.985618
1
1
1.00483
1
1
0.996086
0.96054
1.02432
1.0323
1.04699
1.00003
1.05191
1
1.00587
1.00006
0.975348
0.976825
0.975638
1.03273
0.952282
0.932281
1.03045
0.960053
0.997912
0.954186
0.97911
1.03437
0.953987
1.02393
0.997861
1.02907
0.999328
0.943122
1.02576
1
1
1.01612
1
1.02142
1
1.02787
1.0264
1.02424
1.02042
1.01526
1.04271
0.955885
1
1.05004
0.976711
0.986498
1.01377
1.0427
1.05103
1.00486
1.0177
1
1.02376
1.01996
1.00088
1.00948
1.03089
0.97708
0.959297
1.04192
0.950444
1.00845
1.03031
1.02037
1.00721
0.984674
1.01824
0.997929
1
1.04221
1.00677
0.996214
0.981049
1.00809
0.999561
1.00481
0.976837
0.953727
1.01816
1.01123
0.959731
1
1.03237
1.02235
0.983863
1.02686
0.986025
1.04033
1
1.01361
1.01175
1
1
1
1
1.04073
1.05284
1.00831
1.05698
0.980273
1
1.01421
0.995915
1.02947
1.02381
1.01231
1.018
1.01667
1.02559
0.977315
1
1
0.991975
1.04022
1
1
0.993244
1.03329
1.00872
1.03885
1.01752
1.03049
1
1.00178
1.01217
1.00126
1.03486
1.03818
1.0176
1
1.00741
0.973883
1
1.03908
0.990416
1.03582
1.00069
1.03672
1.00777
0.971912
0.929172
1.05831
0.937135
1.04227
1.03916
1
1.00859
1.03017
1.04093
1.0181
1
1
1.00875
1.00256
0.973211
0.937937
1.00187
1
1.03601
0.990251
1.04686
0.955396
1.00215
1.04496
1.04578
1.03072
0.93934
1.03618
1.04347
0.954512
0.999551
0.996432
0.956054
1.06158
0.996651
0.948732
0.996403
1
0.994922
1.01615
1.01444
0.973822
0.991746
1.04954
1.08307
0.973585
1.01545
1.00823
1.01555
0.963147
1.01068
0.959433
1.04844
0.99164
0.984862
1.00949
0.984115
1.01271
1.01369
1.00645
1.01473
1.04772
0.985176
1.02099
0.98448
0.959506
0.963078
1.01939
0.963292
1.06518
1
1.01601
1
0.976347
1.06491
1
1
0.973426
1.05116
1
0.994244
1.02203
1.07917
0.993048
1
0.93856
1
0.983761
0.964285
1.06049
0.961034
1.01278
1.06045
1.01311
1.00491
1.00646
1
0.947033
1
1.05735
1.02248
1.05587
1.00088
0.980319
1.04886
1.05849
1.04902
1
0.980332
0.936532
1.0547
0.999989
1.05301
1.03029
0.999182
1.05511
1.00397
1.02092
0.999985
0.982324
1
0.964633
1.07837
0.984158
0.935724
1
1.05149
0.961637
0.983917
0.931084
0.999085
1.05214
0.997466
1.02719
1
1.00989
1.00984
1.03388
1.05302
1
1.0488
0.999782
0.993575
1.05211
1
1.02709
1.04942
1.00798
0.965615
1.05507
1
1
1.05395
1.04621
1.05707
0.9498
1.05606
1.04654
1
0.978919
1.01151
1.03731
1.04304
0.994193
0.962672
0.962569
1.06156
1.04389
1.05134
1.00307
1
1
1
0.965205
1.0406
1
1.00419
0.951161
1.05786
1.02181
1.00502
1.02725
0.977755
1.04109
0.990392
1.00334
1.04135
0.913616
1.00661
1.03442
1
0.954161
1.03576
0.987962
0.974432
1.03459
1.0333
1.05896
1.0061
1.06326
1.06214
1
0.975881
0.925767
1.03757
1
1
1.01069
1
1.06112
0.96196
1.03814
0.991438
1
1.04059
1.00822
1.01019
1.03788
1.01309
0.964707
1.03458
0.992338
0.993207
1.05992
1
0.981977
0.994674
1.01206
1.03828
1.0352
1
0.987561
0.942614
1.00394
1.06404
1.00892
1.00308
1.06521
1.00454
1
1.00765
1.01615
0.958026
1.1311
1.02065
1.08145
1.03248
1.01617
0.932451
1.04885
1
1
0.999845
1.01546
1.03277
1.00373
0.991136
1.01907
1.0165
1.07445
0.991839
1
0.912124
1
0.939077
1.01847
1.02927
1.0297
0.972068
1
1
1.06601
1.06988
1
1
1.02277
0.971265
1.01902
1.06872
1.02206
1.01833
1.02557
1.02531
1.03368
0.964093
1
1.01818
1.02632
0.98032
0.963757
0.962316
1.02416
1.00505
1
1.03479
1
1
1.08503
0.961646
0.995227
1.06366
1.02364
1.08045
0.96196
1
1
1.02421
1.08629
0.988779
0.948476
1.02829
1
1.0643
1.0213
1.0268
1
1
1
1
1.03128
1
0.994324
1.01965
0.977867
1.00813
1.02039
1
1.03153
1
1
1
1.03375
1.01726
1.01767
1
1.02767
1.03195
0.971571
1
1
0.966153
0.993578
1
0.966618
1.03657
1
1
1
1
1
1.01316
1
0.986675
1.03627
1
1.04284
1.0036
1
1.01362
0.934841
1
0.964916
1.03111
1
1
1.0422
1.04706
1
1
1
0.966876
0.966382
0.985053
1.041
0.949327
1.04597
1
1
0.963519
1.04201
1
0.967005
1.03984
1
0.989324
1
1.01683
1
0.988413
1
0.954478
1
1
0.974552
0.935192
1.04141
1
1
1.01609
1
0.992877
0.967136
1.04423
0.939814
1
0.924596
1
0.959409
0.971602
0.992163
0.988579
1.00021
1.01166
1.04326
0.993003
0.997134
0.97371
1
1.00141
0.992194
1
1
0.959113
0.966511
1.01438
0.924288
1.04003
1.04724
1.00016
1
1.04131
1.08048
0.97174
1.02001
1.0428
0.983325
0.996569
0.973518
0.965977
1.04795
1.04807
0.965507
1.01932
0.995003
1.0225
1.0162
0.954811
1.00837
1.04108
0.97051
0.955597
1
1.0284
1
1
0.936146
1.02281
1.04284
1.01293
1
1
1.00873
1.02557
1
1.03946
1
1.02306
1.02866
1
0.904667
1
1.02245
1
0.999402
0.96107
1
1.04138
0.95305
1.02241
1
0.937608
1
0.915437
0.999174
1.00005
1.02512
0.998253
0.926845
1.02519
1.02198
0.966332
1.05497
1.03668
1.03977
1.00346
1.02442
1.02469
0.930691
1.02271
1.03416
0.968215
1
1.04326
1
1.07912
0.987782
1.02671
1.02684
0.925863
0.999701
1.00821
1
1.00863
1.03049
0.996448
0.994594
0.977264
1.03718
1.0045
0.972609
1
1.01628
1.02625
1
1
1
1.02617
0.973151
1.02346
1.01675
1.00129
1
1.02865
1.0368
1.01509
1.02865
1.01276
1
1.07971
0.930353
1.02819
1.06572
1.01285
1.01459
1
1
0.974231
1.02825
0.98901
1.07265
1.06129
0.99617
0.996832
0.995741
1.09643
1.0662
0.996818
0.960184
1
1.01239
1.03081
1.00419
1
1.03169
1
1.05552
0.998555
0.973949
1.06065
1.05965
1.03267
0.97915
1.01205
1.01812
1.05014
1
1.03762
0.991542
0.978454
1.01931
1.03117
1
1.06223
1.03
1.05569
0.991307
0.991835
1
1.06527
1.01774
1.08704
1
1.04666
0.966615
1.01403
1.05632
0.978329
1.06007
1.05316
1.01497
1.05069
1.06125
0.998975
1.03245
1.04104
1
1.01243
1.0212
1.05622
1.05017
1.04351
0.966598
1.07004
1.03468
1.06588
1.01557
1.01001
1.03471
1
1.03189
1.05391
1.0203
1.04727
1
1.03415
0.967656
1
1.08935
1.05075
1.04492
1.02263
1
1.07125
0.98508
1
1.04782
1.03664
1.04173
1
1
1.02192
1.04555
1
1.03611
1
1.03891
1.03417
0.965447
1
1.04225
1
1.03614
0.936371
1
1.01197
1.03861
1.03972
1.03333
1
1
1
1.02659
1.03806
0.983625
1.03678
0.999781
1.03076
1.03785
0.962742
1.00685
1.04575
1
1
1.00948
1.00602
1.00718
1
1.02593
1.04664
1
1.03382
0.983218
0.976547
0.983769
1.04064
0.999816
1.02731
1.0373
1.03073
0.982681
1.03166
1.02377
1.01949
0.971445
1.00377
1.02884
1
1.08761
1.04011
0.9907
1.02468
1.0639
0.942852
1.00484
0.989971
0.956284
1
1.0278
1.04007
1.0159
1.02819
1.04111
1
0.941018
1.021
1.02065
1.04216
1.02484
1
1
1.03938
1.01827
1.01544
1
0.95298
1
1
0.945196
1.04162
1
1.0214
1.05731
1.02467
1
0.978338
1.02271
1.0419
1.01445
1
1.01883
1.03448
0.990053
0.924037
1.05387
0.99258
1.03256
1
1.04453
1.01981
0.94997
1
1
1.01124
0.957984
1.01528
0.999897
1.03186
1.04146
1.044
1
0.992842
1.01942
1
0.939366
1.01216
1.00761
0.970261
1.03706
1
0.974111
1
1.04418
1.0067
1
1
1.02114
1.01907
1.02531
1.01508
0.939764
1
1
0.985548
0.951019
1.03573
1.02178
0.999027
0.970159
1.04338
0.942666
1.04731
1
1.03496
1
1.04682
1
1
0.974286
1
1.04603
0.998302
1
0.906224
1.03773
1.02038
0.962901
0.999692
1.0071
1
0.995632
1.04155
1
1.0457
1
1.00001
1.01449
1.03718
0.988952
1.0334
1
0.979169
1.00056
1.10711
1.05381
0.951224
1
0.987866
0.951274
1.05058
0.988366
1
1
0.988985
0.991414
1
0.91636
0.998774
1.04023
0.992022
1.04824
0.939655
1.04962
0.993826
1.00145
1.01889
1.00345
1.0034
0.991289
1.03962
1.01721
0.984198
0.979829
0.999842
1
1.04757
0.999994
1
1
0.96744
1
1.02001
1.01844
1.01697
1
1.0423
1.05591
1.01774
0.984134
0.961158
1
1.05061
1.01779
1.07775
0.933382
1.04164
1.01824
1.02155
0.979807
1.02064
0.960345
0.93398
0.934059
0.991056
0.939186
1.04953
1.04768
1
1.01605
1
0.942733
0.962029
1.06653
1.06286
1
1.03568
0.951188
0.978745
0.95298
1.04475
1.02755
0.940198
1
1.00702
0.965416
1.05611
1.03436
1.01366
1
1
1
1
1.02086
1.01849
1.04411
0.942082
1.0351
0.960841
0.999995
0.979072
1.06382
1.01968
1.06751
1.01261
1.00654
0.985616
1
1
0.934304
1
1.01652
0.979393
0.94576
1.02223
1.01504
0.989923
1.02144
1
1.01684
1
1
0.972149
1.04718
1.01677
1.05725
0.984432
1.01546
0.980497
1.0856
0.98621
0.945138
0.993541
1
0.966156
1.04651
1.00531
1.01431
1.02222
1.01303
0.921908
1.01319
1
1.01716
1.02154
0.947848
1
1.02263
0.982609
1.0061
0.963311
1
0.919053
0.920804
1.01379
1
0.988807
1
1
1.0065
1
1
1.02141
1.03673
0.961061
0.984939
0.947034
1.02225
1.01467
1.04961
1
1
0.965424
0.972308
1.01453
1.00797
1.02501
1
1.01694
0.936333
1.0147
0.986162
0.969335
0.934533
1
1.03513
1.02174
1.018
1.04899
1.00257
1
1
1.08111
1.01463
1.05102
1.01593
1.02527
1.02425
1.00707
0.999576
1
1.01983
1.01605
1.05018
1
1.0139
0.975062
0.932577
1
1.00205
1.02643
0.950195
0.991433
0.953565
1.02419
1.04564
1
1.03577
1.01533
1
1.01444
1.00912
0.958116
0.936682
1.01922
1.02308
1.01428
0.951608
1.02654
1
1.02917
1
0.961436
1
0.999996
1.02577
0.935316
1
1.01113
1.0517
0.991157
1
1.04475
0.98862
1
0.990742
0.950464
1.02593
0.987722
1.02777
0.993102
0.932646
1.05106
1.01412
1.01787
0.948935
0.982719
1
1.02677
0.984502
0.988291
0.993572
0.992792
1
0.938065
1.02953
0.972603
1
1.03531
0.955103
1
1.01335
1.01203
1.0298
1.02281
0.983549
0.974097
0.987404
0.992697
1.02218
1
0.979061
1.03715
1.0164
0.991637
0.959465
1
0.953985
1.00765
1
1.01703
1
0.967447
1.0049
1
1.02914
1.02221
1
1.00902
1
0.987356
0.984836
1.03657
1.03222
1
0.938804
1
1.04238
1.09224
1.01045
1
1.017
1.05061
1.02249
1.03016
1.00654
0.967265
0.983702
1.00687
1
1.06922
0.957355
1
0.971538
1.03354
0.972139
1.01129
1.0617
0.93297
1.05531
0.980035
1
1.03118
1.0524
1.04161
1.01962
0.990023
1
1.04593
1
0.956635
1
1.05444
1.02315
0.970118
1.00001
1.02581
1.03295
1.05157
1
1.04505
1.09114
1.05231
1.01208
0.955157
1.04493
0.958552
1.01864
1.06411
1
1
0.987972
0.994155
1.04136
0.990198
1.04967
0.989442
0.970286
1.04575
0.972118
1
0.982499
0.969965
1.05306
1
0.958312
0.955822
0.933543
1.01948
1.02157
1
1
0.9893
0.950911
1.04228
1.0224
1.03592
1.00118
1.01491
0.931858
1.06945
0.992984
1.0191
1.06418
0.952807
0.978284
1
0.981714
1.08533
1.02093
1
0.981576
0.993159
0.921361
1.04394
1.03154
1.03549
1.01255
1.0045
0.972734
1.01669
1.05638
0.985174
1.02797
1.02586
0.99649
1.02949
1.02381
1.03166
1
0.985243
1.02222
1.0192
1
0.987322
1.02018
1.01604
1.06073
1.01909
1.03682
0.938633
1.01946
1.01274
1
1.02034
1.03372
1
1.0388
1.01974
0.982277
0.989208
1.01663
1
0.992007
0.981447
1.02355
1.02046
0.998008
1.02995
1.04114
1.01593
1.01565
1
1.06968
0.981606
0.993269
1.02147
0.998355
1.02453
1.0428
1.08279
1
1.0181
1.0463
1.02725
1
1.02542
1.02891
0.9898
1.02303
1
1.02158
1.03121
1.01694
1
1.04261
0.998145
1.02964
1.03294
1.01606
1.03617
0.940351
1.02859
1.04535
1
1
1.05791
1.05061
1.03612
0.984622
1.03194
0.980848
0.967288
1.00386
0.99715
0.998425
0.966778
0.963793
1.02347
1.03231
1.03812
0.979983
0.974895
0.991929
1.03997
0.997153
1.00779
1.02896
1.04057
1
0.997262
1.01399
1.01537
0.999999
1.04701
0.984699
1.01743
0.998752
1.00005
1.04221
1.00708
1.03271
1
1.0096
1.01696
0.984003
0.934873
0.99804
1
0.966065
1.02363
1.03387
1.03246
0.934353
1.01212
1.05945
1.02893
1.04474
0.978178
1.08194
1.01214
0.96607
1.03196
0.958997
1
1.03202
1.04916
1.00436
1.08425
1.00845
1
1
0.977621
1.01642
0.933505
1
0.967175
0.94904
1.03292
1.03157
0.999012
0.985808
1.03051
1.04638
1.0338
1.03649
1
0.983792
1.00905
1.03059
1.07312
1
1
1.0041
1.00559
1
1.06049
1.03477
1
1.01212
1.06045
1
1
1.00104
0.962781
0.976915
0.929796
0.970708
0.978244
1.01308
1.04871
1
1.00383
1.04067
1
0.949573
0.971778
1.03766
1.00756
1
0.938216
0.948943
0.971937
1.01161
0.920142
0.99519
0.990599
1.00209
1.01817
1.01351
0.97214
0.964902
1.02954
1
1.02702
1.0147
1.02945
1.05112
0.972459
0.978707
0.965351
0.972681
1
1.01588
1
1.03868
1.04961
0.920569
0.972535
0.972362
0.978597
1
0.972223
1
0.940668
0.938213
0.995721
0.972975
0.992631
0.972897
0.999991
1.01226
1.09175
1
1.01326
0.972507
0.94879
0.971594
1.06008
1.05782
1
1.02866
0.973101
1.06907
1
0.972488
1
1.05281
0.970991
1.01115
1.01047
1
0.917209
0.991828
0.972427
1.02819
1
1
1
1.0076
1.02313
1.02199
1.01063
1.05338
1.04756
1.05921
1.02673
1.01853
0.934384
0.947844
1.04789
1.05227
1
1
0.968428
0.969315
0.999538
0.999932
0.971309
1
1.00301
1
1.00981
0.99921
0.983727
0.979307
0.961102
0.916378
1.0454
1
1
0.95347
1
0.971647
1.01471
1.01772
1
0.982178
1.00774
1
1
0.971564
0.999497
0.971588
1.01461
1.0255
0.923724
0.980045
1.03622
0.959778
0.978684
1
1.08161
1
1.01945
1.03659
1.0051
1
1.09401
0.95851
1.0449
1.0218
1
1.01397
1.04831
0.994001
1.06604
1.02566
1
0.972317
1
1
1.02578
1.0162
0.971349
1.0415
1
1.0166
0.975243
1
0.964916
1.03461
1
1
1.05544
0.995901
0.915365
1.06878
1
1.02773
0.995315
1.0141
1
1.05815
0.973472
1.04883
1.01715
0.978435
1
1.00765
0.958092
1.03457
1.01594
1
1.03131
1.05574
0.97304
1.01845
1.03815
1.04231
0.991584
0.959731
1.00297
0.955964
1.05378
1.02057
1
1
1.06886
1.08399
1.02142
1
1.00733
1.00299
1.04856
0.978227
1
1.04777
0.971397
1
0.980669
0.959535
1.01347
1
1.03449
1.02489
1
0.951403
1
1.03222
0.987472
1
1.01994
0.991829
1.02687
0.996483
1
1.03176
0.950465
1.01356
0.98696
0.964934
1.00348
1
1.01205
1.03437
1.03257
1.06324
1
0.945495
1
1.0232
1.03684
1.09464
1
0.955621
1
1.03039
1
0.991129
1.01395
0.991162
0.949483
1
1.04182
0.937119
0.994389
1.0033
1.03905
1.05663
1
1.02256
0.982227
1
1
1.00247
1.03391
1.01921
1.01421
1
1.08098
1.03437
1.00054
0.986269
1.00617
1.04945
1
1.02731
1
0.966691
1.06056
1.05398
0.999946
1.0744
0.976961
1.04118
1.0403
1.03626
1.07165
1
1.04283
1.03905
0.991969
0.967757
1.00635
0.956062
1.04335
0.992297
1
1.02638
1.00072
1
1.00183
1.00918
1.03826
1.04358
1.06654
1.0292
1.00047
0.987277
0.998167
1
0.979824
0.99283
0.917449
1.07581
1.05505
1.0617
0.964161
1
0.962878
1
0.926115
1.0049
1.01142
0.991017
1.04062
1.04923
0.998402
0.960411
1.03059
1
1.02858
1.07646
0.994109
1.04593
1
1
1.03674
0.958743
1.05262
1.05742
1
0.959742
1.03206
1.02154
0.999996
0.977901
1.0395
1.03962
1.02365
1.04285
0.965652
1.02203
1
0.957523
0.973089
0.986182
0.930149
1
1.01733
0.996585
1.00508
1
0.985659
1.04841
1.00941
1.03132
0.999185
1.01043
0.974642
0.928738
0.934655
1.00815
1.02833
0.97882
1.03482
1.0143
1.04525
1.09374
1.02611
1
0.982264
1.04024
0.939696
1.04767
0.998587
1.00313
0.941884
0.978245
1.02295
0.971154
0.975349
1.01369
0.948438
1.01869
1.02781
1.04808
0.939847
1.04568
1
1.09558
1
1.02135
1
1
1
1
1.06759
1.034
1.05056
1.02545
1.05017
1.00233
1.01655
1.01533
1
1
1.00966
1.02421
1.04775
1
0.98735
1.0135
1.02558
1.03722
1
0.933857
1
0.96782
0.939731
1.04825
0.989184
1
1.03137
0.974456
1.04515
0.925768
1
1.05098
1.04396
0.972263
1.00171
1.03665
0.956145
1.04515
0.963332
1.00268
1.05008
0.927987
0.962394
0.97418
0.964864
1.04665
1
1.03986
0.963418
1.01407
1.0539
1
1.03512
1.03553
1.01019
1.04372
0.964447
0.963297
1
1.06769
0.965027
0.962418
0.994491
1.04318
1.04023
1.04218
1
1.04562
1
1.04075
1
1.03886
1.00922
0.944477
0.95
1
1
1
1.04196
1.09006
1.03825
1
1
1.03762
1.01109
1
1.08779
0.963349
1.00001
0.998828
0.982388
0.988788
0.993308
1.00702
1.04262
1.043
1
1.08327
0.95339
1.02885
1
0.983015
1
0.965069
1.04426
0.9639
0.996378
1.04574
1.01011
1.04339
1
1.00378
0.95651
1.05334
1.01279
1
0.961499
1.04024
1
1.06092
0.996321
0.946903
1.04486
1.06874
0.982758
0.962948
1.06502
0.957802
1
1.04208
1
1.00515
1.02961
1
1
1
1.04007
0.975816
0.944428
1.06136
1.05906
1.04508
0.984797
0.995878
0.970445
1.04925
1
0.980478
0.972251
1.0474
0.94064
1.02246
0.998027
1.04159
1.04161
0.970809
0.998643
0.973301
1.0083
0.999514
1
1.0132
1.03929
0.970274
0.952245
1.04636
0.948971
1
1
1.04638
1.02028
0.955494
0.961602
1.02288
1.04434
1
1.01699
1.01471
0.986539
0.998105
1.00569
1.04832
1
0.957479
1.0446
1.00719
0.965244
0.969251
1.04686
1.04421
1.07391
1
1
1.04259
1
1
1.00101
1
1.04253
1.03758
0.97385
1
0.985838
1
0.975594
0.946212
1
0.976151
0.961496
0.997879
1.08872
0.994619
1.03845
1.00671
1.04996
1.00296
1.04786
1.03972
1
1.0547
0.971781
1.04072
1.02478
1
1.05641
1.05561
0.993547
1.00643
1.02675
0.972176
0.94806
0.971823
0.997753
0.974986
1.00757
1
0.997055
1
0.997201
0.943771
1
1
1
0.956165
1
0.992834
0.963141
0.996697
0.921192
1.06313
0.988314
0.987821
1
1.0388
1.04716
0.966279
1
1.05286
1.0358
1
1
1
1
1.03906
1.00571
1
1
0.991195
1
0.940134
1
0.99999
0.975871
1.0119
0.943873
1.00007
1.05045
1
1
1
0.993937
1.01643
0.924377
1
1.07369
1.06918
0.999811
0.95942
1.0554
1.00779
1.02342
1
1.03698
0.975129
1.02666
1.00807
0.971481
1.04945
1.03089
1
1
1.05398
0.953825
1.00511
1
1.00527
1.03807
1.03378
1
1.0884
1.02245
1
1
1.03219
1.04967
0.99514
1.05945
1
1.06709
1.04614
1.04802
0.975696
1.07162
0.93475
1.02342
1
0.999022
0.965243
1.07364
0.976211
0.993633
0.972179
0.967461
0.99637
0.971768
1.01978
1.01959
1.0353
1.01542
0.94419
0.995758
0.936079
1.02772
1
1.03202
1.04443
1.04299
1
1
0.966075
1.07461
1.06703
0.966848
1.02085
0.962747
1
1
1.02724
0.990514
0.964584
1.03739
1.05876
1
0.995424
1.08004
0.971596
1.04255
0.963639
0.970088
0.963494
1.01632
0.999248
1.04113
1.03333
1.05189
0.988689
0.970005
1.02827
0.957589
0.966295
0.972712
1
1.04595
0.968656
1.01758
1
0.952548
1.05448
1.09446
1.07067
1.02414
1.06382
1.04062
0.933013
0.996355