/*--------------------------------*- C++ -*----------------------------------*\
  =========                 |
  \\      /  F ield         | OpenFOAM: The Open Source CFD Toolbox
   \\    /   O peration     | Website:  https://openfoam.org
    \\  /    A nd           | Version:  12
     \\/     M anipulation  |
\*---------------------------------------------------------------------------*/
FoamFile
{
    format      ascii;
    class       volScalarField;
    location    "2";
    object      rho;
}
// * * * * * * * * * * * * * * * * * * * * * * * * * * * * * * * * * * * * * //

dimensions      [1 -3 0 0 0 0 0];

internalField   nonuniform List<scalar> 
46253
(
1.31289
1.40001
1.40001
1.40001
1.40001
1.40001
1.26539
1.43554
1.40001
1.40001
1.31541
1.18592
1.40001
1.40001
1.40001
1.40001
1.40001
1.40001
1.40001
1.40001
1.40001
1.40001
1.40001
1.28689
1.2653
1.40001
1.40001
1.40001
1.40001
1.43757
1.48896
1.40001
1.40001
1.40001
1.40001
1.40001
1.40001
1.40001
1.52252
1.40001
1.24305
1.18467
1.40001
1.40001
1.13825
1.40001
1.40001
1.40001
1.40001
1.40001
1.40001
1.40001
1.40001
1.4466
1.40001
1.24409
1.40001
1.40001
1.62078
1.28781
1.40001
1.46154
1.40001
1.40001
1.40001
1.40001
1.40001
1.40001
1.24655
1.1422
1.26631
1.40001
1.40001
1.43137
1.40001
1.28486
1.39911
1.40005
1.40001
1.40001
1.40001
1.40001
1.40001
1.40001
1.26283
1.40001
1.65498
1.65448
1.41605
1.40001
1.40001
1.23859
1.40001
1.40001
1.40001
1.40001
1.40001
1.40001
1.61896
1.40001
1.40001
1.40001
1.40001
1.484
1.4
1.26023
1.18731
1.61664
1.6132
1.2037
1.47301
1.4
1.4
1.40001
1.40001
1.43815
1.15011
1.27529
1.81516
1.25494
1.40001
1.40001
1.39997
1.39992
1.40001
1.82185
1.40001
1.22583
1.39982
1.50444
1.58915
1.58684
1.40001
1.25878
1.50996
1.40001
1.53471
1.52687
1.25106
1.40001
1.40018
1.57559
1.57343
1.47299
1.4002
1.40002
1.66493
1.66158
1.51746
1.40001
1.20139
1.40001
1.53072
1.52891
1.43277
1.14416
1.22269
1.40001
1.64652
1.40001
1.64623
1.18524
1.23967
1.40001
1.27
1.59947
1.25882
1.66507
2.03704
1.40001
1.63265
1.63202
1.40001
1.25229
1.40001
1.13699
1.46994
1.40001
1.45075
1.15277
1.40001
1.43018
1.62029
1.62025
1.40001
1.65101
1.64878
1.13684
1.40001
1.40001
1.40001
1.40001
1.45686
1.40001
1.40001
1.40001
1.48042
1.40001
1.50351
1.50155
1.40001
1.40001
1.64011
1.63733
1.40001
1.14781
1.42556
1.60248
1.60246
1.40001
1.40001
1.81367
1.25075
1.40001
1.38064
1.40001
1.46862
1.24985
1.59287
1.40001
1.40001
1.59265
1.13362
1.62683
1.62422
1.24786
1.40001
1.40001
1.48085
1.47952
1.56261
1.40001
1.40001
1.40001
1.40001
1.40001
1.40001
1.40001
1.55921
1.58187
1.40001
1.40001
1.40001
1.40001
1.40001
1.40001
1.40001
1.42451
1.40001
1.57908
1.57886
1.57895
1.45962
1.40001
1.45803
1.60975
1.60685
1.26648
1.2582
1.40001
1.26905
1.22369
1.20432
1.47505
1.42203
1.40001
1.40001
1.40001
1.59963
1.56516
1.59726
1.40001
1.40001
1.40001
1.56464
1.40001
1.40001
1.40001
1.44899
1.28468
1.44022
1.43891
1.40001
1.40001
1.40001
1.45719
1.44676
1.25468
1.45865
1.40001
1.60973
1.60857
1.2486
1.40001
1.60035
1.52296
1.40001
1.51893
1.24916
1.55601
1.79999
1.55544
1.23389
1.79751
1.40001
1.58471
1.58293
1.40001
1.47317
1.40001
1.40001
1.55321
1.40001
1.54777
1.40001
1.54684
1.24193
1.59867
1.40001
1.44881
1.22631
1.40001
1.26473
1.26505
1.5332
1.45315
1.40001
1.40001
1.53885
1.53795
1.4049
1.40282
1.40001
1.40001
1.40001
1.46347
1.2608
1.57057
1.5684
1.40001
1.40001
1.40001
1.40001
1.82241
1.40001
1.53056
1.52992
1.40001
1.25308
1.40001
1.50055
1.40001
1.14705
1.40001
1.1883
1.40001
1.56138
1.40001
1.55975
1.40001
1.18863
1.40001
1.40001
1.40001
1.40001
1.40001
1.40001
1.40001
1.52282
1.40001
1.40001
1.40001
1.40001
1.52194
1.40001
1.59131
1.24764
1.40001
1.40001
1.40001
1.25255
1.45265
1.22809
1.55243
1.45014
1.55084
1.40001
1.40001
1.51376
1.86476
1.40001
1.46189
1.51272
1.48203
1.40001
1.4406
1.40975
1.41021
1.40001
1.41125
1.40001
1.36101
1.36095
1.58898
1.40001
1.39999
1.40001
1.40001
1.40001
1.40001
1.40001
1.40001
1.76757
1.40001
1.41305
1.40001
1.45927
1.40001
1.40001
1.26636
1.40001
1.40001
1.50664
1.40001
1.54335
1.40001
1.40001
1.50584
1.54195
1.40001
1.52055
1.40001
1.40001
1.40001
1.40001
1.37288
1.4347
1.40001
1.40001
1.44439
1.22973
1.40001
1.44537
1.40001
1.37752
1.43857
1.40001
1.40001
1.25039
1.40001
1.28769
1.41564
1.40001
1.46291
1.40001
1.40495
1.43868
1.40001
1.53511
1.37451
1.40001
1.37499
1.37661
1.53341
1.40001
1.37572
1.40001
1.40001
1.40001
1.40001
1.40001
1.52133
1.40001
1.44084
1.23359
1.49321
1.27125
1.41999
1.4922
1.44403
1.33538
1.33591
1.40001
1.40001
1.40001
1.40001
1.39936
1.40001
1.28987
1.24896
1.16625
1.29222
1.38001
1.25551
1.38084
1.40001
1.40001
1.5269
1.40924
1.2035
1.52571
1.4862
1.48466
1.32254
1.25284
1.40001
1.32159
1.48059
1.40001
1.40001
1.40001
1.23848
1.40001
1.44993
1.45971
1.40001
1.40001
1.39141
1.40001
1.40001
1.46158
1.12041
1.41197
1.40001
1.40001
1.41388
1.40001
1.4138
1.50218
1.41545
1.40001
1.47632
1.45579
1.40001
1.37242
1.406
1.40001
1.40001
1.51899
1.40001
1.26824
1.26797
1.40001
1.40001
1.5172
1.40001
1.40001
1.40001
1.40001
1.16285
1.40001
1.40001
1.47317
1.27332
1.47218
1.2813
1.40001
1.40001
1.40001
1.40001
1.40001
1.40001
1.40001
1.37739
1.17108
1.40001
1.40001
1.40001
1.40001
1.40001
1.40001
1.26741
1.46714
1.40001
1.45076
1.40001
1.40001
1.23113
1.40001
1.40001
1.40001
1.50968
1.40001
1.40001
1.50882
1.44643
1.51538
1.40001
1.51973
1.52049
1.52443
1.44148
1.40001
1.46456
1.46332
1.4593
1.41816
1.40001
1.40001
1.41616
1.40001
1.80555
1.44593
1.40001
1.80141
1.4001
1.40001
1.47252
1.48088
1.40001
1.40001
1.41555
1.38089
1.40001
1.40001
1.39598
1.40001
1.40001
1.40001
1.40001
1.39775
1.39891
1.64097
1.65152
1.13249
1.38447
1.61772
1.45687
1.61937
1.60611
1.40001
1.26419
1.29314
1.60809
1.40001
1.59612
1.40001
1.59813
1.40001
1.38893
1.58631
1.40001
1.58801
1.70711
1.40001
1.57662
1.40001
1.5781
1.40001
1.16363
1.40001
1.27927
1.29254
1.40001
1.40001
1.56673
1.56842
1.40001
1.40686
1.55606
1.55748
1.39844
1.40001
1.40001
1.54073
1.4524
1.54189
1.40001
1.49749
1.5301
1.23733
1.53122
1.45222
1.4959
1.40001
1.40001
1.40001
1.52021
1.52199
1.44948
1.40001
1.40001
1.51154
1.29807
1.51333
1.22849
1.40001
1.49843
1.49931
1.40001
1.40001
1.40001
1.46332
1.40001
1.41022
1.41418
1.49124
1.40001
1.48415
1.40001
1.48466
1.40001
1.40001
1.41323
1.42565
1.47531
1.47698
1.37484
1.47957
1.46655
1.47839
1.46804
1.40001
1.41311
1.45434
1.45526
1.40001
1.25844
1.44405
1.44579
1.94653
1.40001
1.40001
1.40001
1.43764
1.38039
1.43763
1.11708
1.41189
1.37171
1.20515
1.42763
1.42834
1.41374
1.42028
1.42218
1.25364
1.2497
1.40001
1.41314
1.83482
1.44364
1.40001
1.21168
1.4424
1.24171
1.40706
1.26857
1.40001
1.40001
1.40001
1.48984
1.40001
1.40001
1.40001
1.40001
1.40001
1.48914
1.40001
1.40001
1.40001
1.26857
1.26953
1.40001
1.40463
1.13277
1.30526
1.40001
1.40001
1.40001
1.40001
1.40001
1.45866
1.40001
1.37632
1.40001
1.50973
1.471
1.51416
1.24755
1.40001
1.48037
1.24428
1.52438
1.40001
1.40001
1.40001
1.40001
1.40001
1.51762
1.514
1.46247
1.277
1.27264
1.40001
1.2809
1.40001
1.40001
1.51824
1.40774
1.4
1.3971
1.40017
1.40001
1.40939
1.41659
1.40001
1.52137
1.22772
1.36839
1.40001
1.38055
1.43155
1.40001
1.40001
1.3757
1.38997
1.40001
1.43088
1.1281
1.40001
1.40001
1.55153
1.55286
1.38334
1.40001
1.13166
1.12997
1.24795
1.46317
1.40001
1.41123
1.44481
1.23027
1.6977
1.40001
1.40001
1.40001
1.50662
1.50797
1.40001
1.40004
1.40001
1.47709
1.49403
1.40001
1.40004
1.49534
1.47621
1.38086
1.37463
1.40001
1.37284
1.41189
1.2117
1.37447
1.23517
1.46239
1.40001
1.40001
1.46316
1.40001
1.40001
1.38682
1.37867
1.40001
1.42383
1.27231
1.4054
1.25149
1.25681
1.42267
1.26145
1.25939
1.22938
1.2274
1.40001
1.40001
1.45801
1.40001
1.40001
1.37763
1.28369
1.2738
1.40001
1.40001
1.4152
1.40001
1.41296
1.41414
1.39985
1.43111
1.45049
1.4
1.40001
1.40001
1.40001
1.38499
1.4538
1.44413
1.13374
1.40001
1.46871
1.40001
1.3937
1.39246
1.46755
1.40001
1.38947
1.38119
1.38853
1.40001
1.40001
1.40001
1.40001
1.38002
1.41467
1.40001
1.39354
1.40001
1.2598
1.40001
1.26153
1.30479
1.26601
1.40001
1.41525
1.41358
1.26529
1.75521
1.40001
1.27089
1.49075
1.48259
1.27004
1.40001
1.40001
1.3707
1.11439
1.40001
1.40001
1.4286
1.15518
1.42147
1.37417
1.40001
1.40001
1.40001
1.40001
1.40001
1.40001
1.87086
1.40001
1.30577
1.24635
1.24494
1.44625
1.14481
1.11839
1.13284
1.26125
1.39874
1.30404
1.12885
1.58128
1.59095
1.6017
1.57176
1.58315
1.40001
1.50438
1.59283
1.61335
1.57337
1.37714
1.60346
1.53783
1.56108
1.61532
1.40001
1.6216
1.56307
1.62164
1.40001
1.54553
1.61892
1.49274
1.46046
1.5475
1.40006
1.65093
1.53486
1.40001
1.40001
1.40001
1.53697
1.40001
1.52568
1.40001
1.40001
1.40001
1.40752
1.52714
1.40001
1.40001
1.40001
1.51645
1.52538
1.40001
1.40001
1.40001
1.51731
1.40681
1.13856
1.50243
1.40001
1.34316
1.50339
1.48805
1.48995
1.24295
1.48058
1.48147
1.47103
1.40001
1.28998
1.47175
1.40001
1.45886
1.26668
1.40001
1.40001
1.45949
1.29009
1.13802
1.44989
1.45087
1.4397
1.4557
1.44007
1.13206
1.43244
1.40001
1.40437
1.45512
1.4343
1.39904
1.37593
1.37673
1.42541
1.40375
1.40282
1.26386
1.42536
1.41637
1.41669
1.30724
1.15302
1.13041
1.40001
1.15336
1.40001
1.16417
1.14968
1.14995
1.40001
1.81859
1.47267
1.40001
1.40289
1.40207
1.45846
1.4659
1.40001
1.41621
1.52457
1.53337
1.45772
1.42179
1.51978
1.5261
1.52191
1.51446
1.50586
1.25038
1.4119
1.37435
1.40001
1.35238
1.27584
1.23927
1.3834
1.40001
1.57538
1.51651
1.18331
1.40001
1.39559
1.24079
1.36002
1.39495
1.40001
1.40016
1.40001
1.3115
1.38221
1.4282
1.51599
1.3963
1.4022
1.19938
1.44862
1.36478
1.44679
1.40391
1.25049
1.17984
1.26645
1.18219
1.3468
1.52989
1.4101
1.40001
1.52919
1.60763
1.31388
1.37627
1.40001
1.40001
1.40001
1.40374
1.4001
1.40001
1.40001
1.15223
1.38319
1.23277
1.40001
1.26478
1.40001
1.40082
1.32019
1.40001
1.40001
1.11957
1.23508
1.6454
1.23958
1.5122
1.51316
1.40001
1.53539
1.40926
1.40001
1.38607
1.40001
1.39202
1.38785
1.40263
1.28486
1.40001
1.40001
1.351
1.40002
1.39881
1.37981
1.49602
1.4975
1.40001
1.38689
1.40098
1.37824
1.37472
1.23053
1.39871
1.40001
1.32582
1.2486
1.39155
1.2043
1.39045
1.51771
1.40001
1.40001
1.40001
1.28227
1.38244
1.40001
1.3794
1.38404
1.44249
1.40651
1.26716
1.38134
1.11235
1.26259
1.56797
1.40001
1.40001
1.33063
1.58605
1.40001
1.40001
1.40001
1.37842
1.40001
1.37914
1.15684
1.45478
1.39834
1.40001
1.40001
1.39784
1.40001
1.65923
1.38697
1.65226
1.63698
1.40001
1.2376
1.6547
1.38522
1.39839
1.56385
1.40001
1.24892
1.63845
1.60134
1.33378
1.40001
1.55422
1.64126
1.61852
1.40001
1.4035
1.13132
1.40001
1.40001
1.26784
1.62132
1.40001
1.58134
1.40514
1.40001
1.40001
1.25604
1.59669
1.38095
1.40802
1.61889
1.43593
1.22634
1.4
1.59735
1.59978
1.47372
1.3806
1.40001
1.41439
1.43411
1.42461
1.51756
1.40001
1.57584
1.40001
1.40001
1.40001
1.57805
1.40001
1.40001
1.29552
1.4218
1.40001
1.30353
1.579
1.41439
1.37841
1.40001
1.46086
1.40001
1.45217
1.40001
1.40001
1.40001
1.40001
1.40001
1.426
1.40001
1.40001
1.40001
1.40001
1.40001
1.40001
1.46006
1.12541
1.40001
1.3782
1.40001
1.40001
1.40001
1.43327
1.27967
1.18436
1.40001
1.15918
1.40455
1.40001
1.40001
1.40001
1.43305
1.40001
1.52312
1.40001
1.61303
1.25661
1.19432
1.40001
1.40001
1.40001
1.40001
1.40001
1.40001
1.6303
1.62858
1.40988
1.61039
1.40001
1.40001
1.40001
1.40001
1.26368
1.40009
1.40001
1.40007
1.50841
1.40001
1.42975
1.40001
1.37422
1.37105
1.27264
1.55874
1.26091
1.37412
1.40001
1.42285
1.37908
1.38012
1.51274
1.51865
1.20593
1.51982
1.51097
1.38994
1.51754
1.51867
1.37242
1.55032
1.5531
1.50982
1.52052
1.51535
1.54802
1.55415
1.51673
1.37193
1.52069
1.40001
1.39066
1.51962
1.54907
1.51777
1.2656
1.50566
1.5193
1.53517
1.42833
1.54007
1.21227
1.54143
1.28398
1.40001
1.365
1.23153
1.4276
1.49851
1.53616
1.5223
1.48332
1.40001
1.4101
1.59453
1.40001
1.40001
1.13087
1.40001
1.40001
1.40412
1.24197
1.40001
1.52504
1.52033
1.5259
1.40001
1.2525
1.39997
1.51928
1.51824
1.1461
1.52106
1.48972
1.39749
1.56327
1.26477
1.57215
1.51205
1.54469
1.51373
1.50337
1.40001
1.24922
1.40001
1.43476
1.40001
1.13182
1.40819
1.50439
1.522
1.45214
1.52379
1.4075
1.48423
1.50934
1.45275
1.27399
1.57218
1.40001
1.49368
1.49427
1.40001
1.4
1.40001
1.40001
1.40001
1.40001
1.40001
1.29968
1.40001
1.36536
1.1338
1.24955
1.58922
1.14971
1.25012
1.48527
1.22589
1.40001
1.14772
1.36329
1.27737
1.40001
1.5003
1.38345
1.40001
1.40001
1.6289
1.13147
1.2652
1.2629
1.40625
1.40001
1.40001
1.11711
1.37382
1.37298
1.56079
1.12249
1.40001
1.40001
1.40001
1.51957
1.40001
1.47838
1.48039
1.44539
1.14035
1.5666
1.55488
1.40001
1.51044
1.48726
1.51763
1.38332
1.40001
1.62157
1.40001
1.40001
1.38779
1.57165
1.41111
1.60469
1.1354
1.61285
1.62351
1.55643
1.40001
1.40001
1.50641
1.4283
1.40001
1.41918
1.40001
1.18564
1.40001
1.40001
1.54769
1.15808
1.40001
1.55335
1.45894
1.5557
1.40001
1.40001
1.41819
1.57103
1.15631
1.25418
1.16273
1.37986
1.37058
1.3696
1.13687
1.40857
1.3538
1.39246
1.40001
1.5488
1.1389
1.14558
1.37982
1.5458
1.4482
1.29286
1.40001
1.40001
1.39236
1.38882
1.27153
1.40001
1.52715
1.2926
1.53719
1.4484
1.53655
1.3778
1.44444
1.56725
1.12952
1.57282
1.12728
1.36802
1.52899
1.37576
1.38829
1.1356
1.29055
1.51355
1.40001
1.29273
1.40112
1.23633
1.63989
1.27063
1.50715
1.43804
1.63903
1.13888
1.51611
1.38669
1.40001
1.43612
1.51658
1.56545
1.59115
1.40001
1.39981
1.40001
1.43014
1.28092
1.41267
1.2008
1.14854
1.40001
1.14779
1.19283
1.50989
1.40001
1.14666
1.44469
1.416
1.53197
1.45091
1.15856
1.2907
1.38496
1.37005
1.53338
1.15131
1.48538
1.49621
1.40001
1.49712
1.40001
1.37401
1.62416
1.48785
1.242
1.60021
1.45745
1.40001
1.16332
1.50924
1.41457
1.40001
1.21399
1.51019
1.54288
1.73781
1.41715
1.40001
1.46562
1.63129
1.47348
1.40001
1.49964
1.47558
1.40001
1.54014
1.50115
1.4515
1.72565
1.49127
1.46719
1.31263
1.40001
1.40001
1.49187
1.1825
1.40001
1.18866
1.39329
1.54302
1.54935
1.18612
1.45691
1.25716
1.40001
1.19888
1.67977
1.40001
1.40001
1.56622
1.67562
1.18252
1.35306
1.45226
1.1848
1.1819
1.36968
1.30663
1.45219
1.44307
1.36598
1.6007
1.39898
1.44711
1.51174
1.35259
1.45849
1.46316
1.4428
1.41604
1.1844
1.40001
1.36594
1.68549
1.43496
1.56947
1.67935
1.25247
1.40001
1.4358
1.41603
1.41541
1.27331
1.40001
1.40001
1.4019
1.40152
1.27373
1.49845
1.40001
1.40001
1.49674
1.38578
1.41028
1.40001
1.40001
1.46659
1.41872
1.42095
1.63042
1.49084
1.20232
1.44483
1.41626
1.40001
1.20231
1.40964
1.24259
1.18729
1.42167
1.5164
1.74405
1.56363
1.37747
1.4613
1.33691
1.46021
1.56497
1.26914
1.55392
1.4574
1.40001
1.48818
1.40001
1.40001
1.33282
1.32062
1.342
1.32345
1.62966
1.41656
1.40001
1.40001
1.33865
1.541
1.22085
1.25233
1.39049
1.21712
1.42458
1.39394
1.54333
1.21976
1.18996
1.38516
1.70242
1.24482
1.40001
1.37621
1.41708
1.2158
1.6812
1.39603
1.37537
1.40001
1.40001
1.3823
1.37108
1.63281
1.40001
1.40001
1.36757
1.40001
1.52327
1.24959
1.22059
1.27783
1.38629
1.52445
1.36464
1.40001
1.21831
1.28673
1.40001
1.23219
1.15237
1.36626
1.38085
1.48729
1.40001
1.40001
1.40891
1.37256
1.42998
1.22379
1.22535
1.68054
1.27681
1.40001
1.40001
1.50234
1.40001
1.40001
1.30666
1.36855
1.48149
1.50392
1.40001
1.14517
1.27113
1.29563
1.3992
1.29701
1.59405
1.37731
1.40001
1.40001
1.40001
1.26609
1.36877
1.42124
1.29542
1.40001
1.40001
1.1541
1.29415
1.24727
1.24027
1.48133
1.46306
1.2842
1.40001
1.55199
1.40001
1.48293
1.40001
1.40001
1.40001
1.27065
1.40001
1.50131
1.40001
1.40001
1.40001
1.40001
1.40001
1.40001
1.40001
1.39815
1.40001
1.4
1.55946
1.40001
1.47991
1.40197
1.40001
1.39938
1.45871
1.53764
1.40001
1.40001
1.34764
1.23184
1.30316
1.401
1.56114
1.55307
1.39424
1.45729
1.3626
1.40001
1.40001
1.40001
1.40001
1.41031
1.46023
1.54378
1.39896
1.41238
1.3029
1.4628
1.34637
1.295
1.38035
1.52296
1.17841
1.53864
1.38297
1.54609
1.38661
1.40001
1.4
1.17761
1.50978
1.40001
1.40001
1.40923
1.17952
1.31946
1.38626
1.17578
1.52785
1.40001
1.276
1.40001
1.41495
1.15675
1.17515
1.43393
1.26487
1.31598
1.37293
1.52346
1.40153
1.52964
1.45689
1.40001
1.43256
1.4051
1.27118
1.50647
1.62861
1.41142
1.40001
1.40001
1.44783
1.51671
1.44093
1.48751
1.68121
1.40869
1.22902
1.38807
1.40001
1.43853
1.38419
1.40001
1.51824
1.35746
1.22769
1.50736
1.42857
1.41387
1.42977
1.49619
1.42583
1.40258
1.40001
1.41083
1.40134
1.49733
1.41889
1.40001
1.41375
1.43847
1.41322
1.41757
1.48901
1.41681
1.38934
1.40001
1.32159
1.40001
1.39294
1.18133
1.40001
1.40001
1.67546
1.14877
1.55959
1.1803
1.40001
1.40001
1.57649
1.39954
1.41616
1.18248
1.40001
1.31745
1.40001
1.38457
1.65295
1.20946
1.44207
1.19927
1.37255
1.40001
1.48603
1.45483
1.46436
1.28466
1.38772
1.42259
1.43393
1.37099
1.40001
1.48201
1.39072
1.51627
1.40001
1.47722
1.56436
1.40001
1.42422
1.25271
1.38806
1.50451
1.48229
1.12749
1.40774
1.4281
1.55127
1.40001
1.5589
1.40316
1.51342
1.7803
1.51538
1.40001
1.40001
1.40001
1.37695
1.50471
1.56049
1.51253
1.55094
1.4445
1.40001
1.40001
1.68347
1.53955
1.53292
1.29285
1.40001
1.45701
1.40001
1.47755
1.52863
1.4744
1.53782
1.66484
1.45304
1.45672
1.37192
1.53815
1.5345
1.40888
1.40001
1.30443
1.1374
1.43294
1.40001
1.51287
1.34758
1.40001
1.40001
1.41329
1.40001
1.40001
1.36403
1.26157
1.47424
1.51881
1.54243
1.4
1.43725
1.40001
1.41134
1.4
1.30504
1.3401
1.29976
1.52051
1.21227
1.17379
1.51391
1.26431
1.39997
1.23156
1.3213
1.51293
1.25991
1.49099
1.39995
1.49318
1.40012
1.21903
1.49918
1.40001
1.40001
1.44776
1.40001
1.46624
1.40001
1.48907
1.49981
1.49352
1.46002
1.44213
1.41294
1.26258
1.40001
1.57127
1.39987
1.36943
1.45919
1.41703
1.58763
1.40237
1.46955
1.40001
1.47319
1.47834
1.39303
1.42256
1.50098
1.33759
1.20176
1.55154
1.25326
1.40099
1.4983
1.47935
1.40226
1.33935
1.47096
1.36534
1.40001
1.55527
1.42179
1.39924
1.32932
1.41697
1.39017
1.40882
1.33646
1.25875
1.45273
1.43064
1.27624
1.40001
1.50637
1.46946
1.33767
1.48546
1.34471
1.54175
1.40001
1.4545
1.45009
1.40001
1.40001
1.40001
1.40001
1.54218
1.58317
1.43787
1.3937
1.32442
1.40001
1.45649
1.39771
1.49501
1.46107
1.45116
1.44662
1.44993
1.47975
1.31971
1.40001
1.40001
1.36417
1.5323
1.40001
1.40001
1.39056
1.50925
1.4396
1.53241
1.47218
1.50175
1.40001
1.46377
1.45165
1.46491
1.51496
1.52667
1.4716
1.40001
1.43323
1.30184
1.40001
1.53316
1.35827
1.51898
1.38587
1.52249
1.43383
1.30217
1.14163
1.60411
1.14437
1.54028
1.52886
1.40001
1.45907
1.50065
1.53515
1.4406
1.40001
1.40001
1.45684
1.41652
1.29995
1.18313
1.40423
1.40001
1.52267
1.37074
1.55378
1.26359
1.41656
1.54714
1.54981
1.45555
1.19236
1.52384
1.54362
1.2541
1.40599
1.39759
1.25075
1.61653
1.39892
1.18578
1.40056
1.40001
1.37278
1.45541
1.45944
1.31344
1.38503
1.56374
1.70819
1.28509
1.46303
1.45815
1.46329
1.27515
1.44358
1.276
1.55951
1.3871
1.36661
1.44437
1.35525
1.46773
1.45152
1.45001
1.46007
1.55802
1.36385
1.44568
1.3607
1.2554
1.26355
1.44441
1.2663
1.63034
1.40001
1.46373
1.40001
1.29983
1.63342
1.40001
1.40001
1.2969
1.58427
1.40001
1.38512
1.46925
1.68227
1.3734
1.40001
1.18566
1.40001
1.35365
1.26106
1.61047
1.28128
1.45026
1.61079
1.4505
1.41229
1.42049
1.40001
1.24891
1.40001
1.59831
1.46936
1.39619
1.3788
1.34566
1.56384
1.60005
1.5657
1.40001
1.33762
1.18226
1.59099
1.40001
1.58389
1.50785
1.3707
1.59286
1.39117
1.46604
1.40001
1.35593
1.40001
1.26246
1.68128
1.35726
1.19331
1.40001
1.58139
1.21077
1.35132
1.15844
1.40571
1.58215
1.42602
1.49834
1.40001
1.44082
1.44157
1.40037
1.57952
1.40001
1.57321
1.40059
1.40467
1.57497
1.40001
1.40032
1.57432
1.42553
1.26861
1.58875
1.40001
1.40001
1.58377
1.56294
1.59722
1.2025
1.59286
1.56531
1.40001
1.32162
1.42718
1.50378
1.55547
1.39258
1.29374
1.29073
1.61625
1.55686
1.57376
1.42887
1.40001
1.40001
1.40001
1.26736
1.544
1.40001
1.42363
1.26653
1.6016
1.4678
1.41561
1.45894
1.31093
1.54588
1.36963
1.421
1.44451
1.1415
1.43074
1.50251
1.40001
1.51455
1.42876
1.3786
1.50187
1.51505
1.51073
1.60648
1.42903
1.62215
1.61794
1.40001
1.30872
1.16336
1.53749
1.40001
1.40001
1.44144
1.40001
1.61468
1.2278
1.53928
1.40058
1.40001
1.44203
1.42553
1.43975
1.52906
1.45232
1.50627
1.52641
1.35891
1.3832
1.61064
1.40001
1.32812
1.3867
1.44794
1.52919
1.52752
1.40001
1.36536
1.21255
1.41288
1.62654
1.47134
1.43215
1.63092
1.41338
1.40001
1.40316
1.45979
1.33776
1.88619
1.47082
1.70183
1.51885
1.42194
1.18473
1.5666
1.40001
1.40001
1.39772
1.45649
1.521
1.39237
1.38451
1.47004
1.41907
1.51981
1.38731
1.40001
1.12507
1.40001
1.18392
1.46834
1.5093
1.51081
1.279
1.40001
1.40001
1.63442
1.51756
1.40001
1.40001
1.48089
1.2784
1.45029
1.64486
1.47754
1.46297
1.4975
1.48831
1.51169
1.28779
1.40001
1.46141
1.49926
1.32636
1.28699
1.21364
1.48685
1.41645
1.40001
1.42573
1.40001
1.40001
1.70934
1.28247
1.35936
1.61775
1.48679
1.68488
1.28375
1.40001
1.40001
1.4886
1.71739
1.36917
1.19428
1.50226
1.40001
1.62705
1.47819
1.50014
1.40001
1.40001
1.40001
1.40001
1.51043
1.40001
1.39313
1.47541
1.34912
1.45061
1.47735
1.40001
1.50785
1.40001
1.40001
1.40001
1.5186
1.46632
1.46797
1.40001
1.49039
1.51495
1.28946
1.40001
1.40001
1.28605
1.39231
1.40001
1.28523
1.52543
1.40001
1.40001
1.40001
1.40001
1.40001
1.45351
1.40001
1.34449
1.5237
1.40001
1.54397
1.41043
1.40001
1.45629
1.17241
1.40001
1.27115
1.5039
1.40001
1.40001
1.54197
1.55929
1.40001
1.40001
1.40001
1.28409
1.28917
1.34167
1.49413
1.21292
1.53981
1.40001
1.40001
1.27521
1.54103
1.40001
1.28697
1.49397
1.40001
1.35453
1.40001
1.45721
1.40001
1.34843
1.40001
1.23831
1.40001
1.40001
1.32896
1.17324
1.53859
1.40001
1.40001
1.4555
1.40001
1.36102
1.28531
1.45404
1.18648
1.40001
1.14071
1.40001
1.20202
1.29486
1.36922
1.36687
1.40001
1.46556
1.45129
1.36315
1.36728
1.3266
1.40001
1.40081
1.361
1.40001
1.40001
1.25854
1.28104
1.45823
1.16474
1.46382
1.3985
1.40001
1.40001
1.46199
1.68742
1.29171
1.46889
1.55957
1.33427
1.37841
1.28812
1.28306
1.56322
1.39632
1.37133
1.46694
1.37376
1.44757
1.45992
1.24239
1.40303
1.54506
1.28746
1.24709
1.40001
1.50435
1.40001
1.40001
1.19274
1.47709
1.56649
1.44843
1.40001
1.40001
1.36309
1.46145
1.40001
1.53668
1.40001
1.47885
1.50672
1.40001
1.09397
1.40001
1.47485
1.40001
1.39656
1.20552
1.40001
1.54635
1.24723
1.47731
1.40001
1.17901
1.40001
1.14595
1.38511
1.40021
1.48536
1.38115
1.17626
1.48534
1.48346
1.27492
1.59269
1.52623
1.53717
1.40045
1.48318
1.48379
1.18203
1.48485
1.50928
1.2802
1.40001
1.54885
1.40001
1.68054
1.29259
1.49023
1.49193
1.17576
1.41141
1.43823
1.40001
1.42045
1.50124
1.39456
1.35857
1.30357
1.52687
1.40291
1.30553
1.40001
1.46464
1.48873
1.40001
1.40001
1.40001
1.48822
1.30609
1.47599
1.46471
1.40021
1.40001
1.49818
1.52033
1.45076
1.49816
1.45056
1.40001
1.68132
1.17988
1.49657
1.63397
1.45121
1.44803
1.40001
1.40001
1.30693
1.49551
1.29004
1.51826
1.61265
1.38887
1.39139
1.38821
1.73387
1.58774
1.39283
1.20403
1.40001
1.4399
1.50424
1.44592
1.40001
1.50741
1.40001
1.59008
1.46214
1.30031
1.61166
1.60439
1.45829
1.31744
1.43913
1.46232
1.57034
1.40001
1.45195
1.38142
1.34653
1.45462
1.5056
1.40001
1.6143
1.50266
1.59554
1.38273
1.32643
1.40001
1.63194
1.46013
1.71264
1.40001
1.55933
1.27773
1.4485
1.59308
1.3118
1.60752
1.58521
1.45179
1.5725
1.6149
1.39448
1.51077
1.53778
1.40001
1.43991
1.46914
1.59577
1.57736
1.54815
1.2729
1.65084
1.51785
1.63525
1.42642
1.42281
1.51838
1.40001
1.50867
1.58686
1.46718
1.56883
1.40001
1.5155
1.29511
1.40001
1.72002
1.57882
1.55919
1.4766
1.40001
1.65263
1.33286
1.40001
1.57049
1.52516
1.54942
1.40001
1.40001
1.47464
1.56001
1.40001
1.52295
1.40001
1.54119
1.51645
1.28407
1.40001
1.55244
1.40001
1.53034
1.19004
1.40001
1.43009
1.53195
1.542
1.52346
1.40001
1.40001
1.40001
1.48958
1.52979
1.33111
1.53365
1.45045
1.5132
1.52837
1.26314
1.42661
1.55541
1.40001
1.40001
1.46686
1.45474
1.42656
1.40001
1.48709
1.55875
1.40001
1.52469
1.33095
1.33374
1.33217
1.53894
1.40004
1.5011
1.52645
1.50224
1.32782
1.51522
1.40915
1.47642
1.30861
1.40906
1.49554
1.40001
1.71158
1.53704
1.29495
1.49136
1.62669
1.41695
1.41501
1.29347
1.25679
1.40001
1.50219
1.53628
1.45489
1.49329
1.53741
1.40001
1.4775
1.47973
1.46597
1.54619
1.49425
1.40001
1.40001
1.5342
1.47044
1.45258
1.40001
1.22157
1.40001
1.40001
1.44863
1.54408
1.40001
1.48125
1.59998
1.48205
1.40001
1.30378
1.47207
1.54366
1.46034
1.40001
1.47252
1.50192
1.36632
1.23058
1.586
1.35941
1.50894
1.40001
1.55297
1.46826
1.20328
1.40001
1.40001
1.44886
1.26851
1.46247
1.39998
1.50704
1.5415
1.5509
1.40001
1.3905
1.46607
1.40001
1.49371
1.44979
1.43686
1.29173
1.50767
1.40001
1.28653
1.40001
1.55131
1.41956
1.40001
1.40001
1.47149
1.45263
1.48382
1.44893
1.18263
1.40001
1.40001
1.34615
1.25775
1.52099
1.47936
1.40008
1.30991
1.54913
1.15319
1.56285
1.40001
1.51903
1.40001
1.56092
1.40001
1.40001
1.51475
1.40001
1.5587
1.3729
1.40001
1.10457
1.52884
1.47826
1.29762
1.40012
1.42078
1.40001
1.4337
1.53975
1.40001
1.55618
1.40001
1.4
1.44599
1.52609
1.35364
1.51037
1.40001
1.37455
1.43036
1.78187
1.58521
1.18035
1.40001
1.35726
1.18353
1.54559
1.35156
1.40001
1.40001
1.30225
1.41202
1.40001
1.14803
1.38394
1.5368
1.39635
1.56553
1.18366
1.58548
1.35468
1.39532
1.47447
1.42
1.41958
1.38409
1.53469
1.46752
1.36234
1.32568
1.40011
1.40001
1.56316
1.38862
1.40001
1.40001
1.28796
1.40001
1.40041
1.45932
1.45488
1.40001
1.5449
1.39348
1.45791
1.36008
1.25762
1.40001
1.57041
1.45654
1.677
1.16151
1.54247
1.45898
1.46872
1.35658
1.46908
1.2051
1.18904
1.18706
1.38319
1.18877
1.57141
1.55709
1.40001
1.41345
1.40001
1.20682
1.27818
1.63223
1.61498
1.40001
1.52108
1.21519
1.28918
1.2595
1.5526
1.48401
1.18914
1.40001
1.45111
1.28469
1.59474
1.51406
1.4457
1.40001
1.40001
1.40001
1.40001
1.4447
1.45532
1.55036
1.20567
1.51926
1.20611
1.40001
1.3188
1.61888
1.46641
1.63635
1.44274
1.45765
1.29043
1.40001
1.40001
1.18549
1.40001
1.45671
1.32313
1.21828
1.47695
1.45954
1.35676
1.46984
1.40001
1.45087
1.40001
1.40001
1.36236
1.56129
1.46367
1.59688
1.35912
1.45325
1.36634
1.7033
1.34996
1.21646
1.46447
1.40001
1.29505
1.55898
1.40447
1.46034
1.4687
1.44866
1.16106
1.45549
1.40001
1.46699
1.46318
1.22918
1.40001
1.47498
1.34643
1.431
1.28399
1.40001
1.1563
1.14585
1.44497
1.40001
1.29499
1.40001
1.40001
1.40973
1.40001
1.40001
1.46772
1.52276
1.26133
1.35496
1.22678
1.47397
1.44633
1.57027
1.40001
1.40001
1.29647
1.29555
1.46074
1.43391
1.48552
1.40001
1.44615
1.18649
1.45484
1.3559
1.28776
1.18407
1.40001
1.51705
1.46903
1.45539
1.56802
1.41435
1.40001
1.40001
1.69944
1.43997
1.57651
1.44906
1.4804
1.47944
1.43144
1.39835
1.40001
1.47199
1.45635
1.57303
1.40001
1.45366
1.31014
1.18481
1.40001
1.41172
1.47762
1.21489
1.37704
1.2362
1.48147
1.55534
1.40001
1.51916
1.44319
1.40001
1.45807
1.44038
1.28003
1.18559
1.47042
1.47728
1.45747
1.2409
1.49212
1.40001
1.49548
1.40001
1.23235
1.40001
1.40001
1.4818
1.19119
1.40001
1.44274
1.57931
1.38069
1.40001
1.55249
1.37346
1.40001
1.37531
1.23827
1.48921
1.36919
1.49182
1.36793
1.1816
1.57732
1.43957
1.44792
1.22323
1.35818
1.40001
1.49028
1.33975
1.34684
1.38623
1.34418
1.40001
1.19233
1.49764
1.32719
1.40001
1.53299
1.24875
1.40001
1.4513
1.44063
1.50026
1.47132
1.35444
1.30812
1.35207
1.36421
1.46886
1.40001
1.32119
1.52934
1.45072
1.36104
1.25913
1.40001
1.24709
1.42493
1.40001
1.45266
1.40001
1.28791
1.42488
1.40001
1.49689
1.4648
1.40001
1.42814
1.40001
1.34418
1.38453
1.52529
1.50384
1.40001
1.18564
1.40001
1.44834
1.73316
1.43315
1.40001
1.45449
1.57316
1.47159
1.50273
1.4316
1.28374
1.33339
1.43177
1.40001
1.64585
1.25702
1.40001
1.29602
1.51261
1.31848
1.43386
1.61496
1.18653
1.59046
1.3493
1.40001
1.50555
1.57935
1.4457
1.46172
1.35749
1.40001
1.45835
1.40001
1.25564
1.40001
1.59129
1.47298
1.28797
1.4
1.4733
1.50987
1.57604
1.40001
1.55038
1.72727
1.56531
1.43308
1.25745
1.45563
1.26585
1.45966
1.62516
1.40001
1.40001
1.37839
1.36964
1.53676
1.38731
1.56953
1.38006
1.29637
1.55365
1.31878
1.40001
1.35134
1.28424
1.58179
1.40001
1.26452
1.25919
1.18432
1.46178
1.47282
1.40001
1.40001
1.29309
1.20396
1.54036
1.45824
1.51611
1.43076
1.45104
1.18453
1.55592
1.39654
1.40057
1.62478
1.26989
1.3217
1.40001
1.35074
1.70451
1.47011
1.40001
1.35032
1.36434
1.1647
1.54773
1.49669
1.51621
1.439
1.41388
1.3269
1.45186
1.4015
1.33597
1.49383
1.48746
1.38409
1.50176
1.48144
1.50726
1.40001
1.36427
1.47373
1.46426
1.40001
1.36842
1.4442
1.44901
1.56018
1.46286
1.52473
1.18547
1.45355
1.44112
1.40001
1.45809
1.51465
1.40001
1.53255
1.46419
1.35921
1.30066
1.44912
1.40001
1.30016
1.34775
1.46716
1.46371
1.38091
1.49055
1.5399
1.44342
1.4417
1.40001
1.64876
1.34611
1.36886
1.44524
1.39095
1.46863
1.54744
1.70194
1.40001
1.4703
1.55695
1.4915
1.40001
1.48618
1.49981
1.29047
1.47868
1.40001
1.4717
1.50528
1.44931
1.40001
1.54391
1.39028
1.50104
1.5122
1.45413
1.51971
1.19665
1.48691
1.55456
1.40001
1.40001
1.60305
1.5746
1.52243
1.35019
1.50553
1.34206
1.28236
1.40971
1.37933
1.3924
1.27932
1.28636
1.47455
1.50019
1.52998
1.34041
1.32706
1.29994
1.53113
1.38626
1.42225
1.49911
1.53765
1.40001
1.36398
1.43856
1.45131
1.40001
1.56162
1.35011
1.45776
1.392
1.4
1.54535
1.39804
1.51106
1.40001
1.43098
1.45906
1.34899
1.17535
1.38943
1.40001
1.2675
1.52381
1.51308
1.52763
1.18844
1.4359
1.60888
1.49348
1.55281
1.33791
1.68958
1.43352
1.27593
1.50496
1.26121
1.40001
1.50902
1.56981
1.41156
1.70394
1.42715
1.40001
1.40001
1.338
1.44994
1.26619
1.40001
1.289
1.17891
1.50782
1.50535
1.39348
1.35317
1.50159
1.56017
1.50711
1.51833
1.40001
1.35064
1.42999
1.4921
1.66006
1.40001
1.40001
1.41172
1.39431
1.40001
1.61215
1.51129
1.40001
1.43405
1.61153
1.40001
1.40001
1.4127
1.27748
1.33624
1.19257
1.28598
1.33536
1.43547
1.56737
1.40001
1.41182
1.53501
1.40001
1.20306
1.28757
1.52243
1.42053
1.40001
1.19728
1.20517
1.29271
1.40369
1.14595
1.41351
1.41757
1.3978
1.4541
1.43931
1.32117
1.2764
1.45455
1.40001
1.4567
1.48614
1.49488
1.57109
1.32419
1.3325
1.27659
1.30983
1.40001
1.44162
1.40001
1.52536
1.56967
1.13978
1.31926
1.32483
1.33062
1.40001
1.29726
1.40001
1.2424
1.19514
1.37909
1.32098
1.36979
1.32501
1.40001
1.43638
1.73188
1.40001
1.40205
1.31691
1.23345
1.3172
1.60921
1.60371
1.40001
1.49519
1.31932
1.65274
1.40001
1.29836
1.40001
1.58373
1.30786
1.43333
1.44587
1.40001
1.13862
1.34638
1.31706
1.49281
1.40001
1.40001
1.40001
1.41932
1.47277
1.46903
1.46697
1.54116
1.56305
1.60614
1.45862
1.45598
1.17234
1.23078
1.56276
1.58121
1.40001
1.40001
1.28428
1.29105
1.39789
1.39999
1.32098
1.40001
1.40091
1.40001
1.44319