/*--------------------------------*- C++ -*----------------------------------*\
  =========                 |
  \\      /  F ield         | OpenFOAM: The Open Source CFD Toolbox
   \\    /   O peration     | Website:  https://openfoam.org
    \\  /    A nd           | Version:  12
     \\/     M anipulation  |
\*---------------------------------------------------------------------------*/
FoamFile
{
    format      ascii;
    class       volVectorField;
    location    "2";
    object      U;
}
// * * * * * * * * * * * * * * * * * * * * * * * * * * * * * * * * * * * * * //

dimensions      [0 1 -1 0 0 0 0];

internalField   nonuniform List<vector> 
46253
(
(1.26262 -0.00408165 0)
(1.2 2.55773e-13 0)
(1.2 8.0384e-09 0)
(1.2 8.28929e-14 0)
(1.2 -1.09648e-09 0)
(1.2 1.55414e-10 0)
(1.28954 -0.0293341 0)
(1.16987 0.000809428 0)
(1.2 1.2894e-13 0)
(1.2 -1.76113e-13 0)
(1.26255 -0.00413883 0)
(1.3322 -0.0820329 0)
(1.2 3.3199e-13 0)
(1.2 1.49956e-13 0)
(1.2 -3.85457e-14 0)
(1.2 -4.4719e-14 0)
(1.2 3.55898e-13 0)
(1.2 -1.48774e-13 0)
(1.2 -1.08402e-13 0)
(1.2 1.0086e-13 0)
(1.2 -2.16358e-13 0)
(1.2 6.44676e-12 0)
(1.2 -3.952e-14 0)
(1.27447 -0.00383606 0)
(1.28731 -0.0350042 0)
(1.2 2.32087e-13 0)
(1.2 2.76917e-13 0)
(1.2 1.65665e-13 0)
(1.2 1.82983e-13 0)
(1.1713 0.000553298 0)
(1.14311 0.05258 0)
(1.2 -2.58215e-13 0)
(1.2 -7.98816e-15 0)
(1.2 -4.25121e-13 0)
(1.2 -3.17823e-13 0)
(1.2 -5.35299e-14 0)
(1.2 1.02621e-13 0)
(1.2 3.45577e-13 0)
(1.17498 -0.0310125 0)
(1.2 -6.66002e-14 0)
(1.28422 -0.0654872 0)
(1.33205 -0.0821931 0)
(1.2 9.14056e-14 0)
(1.2 -2.61311e-13 0)
(1.35338 -0.113268 0)
(1.2 -5.6583e-14 0)
(1.2 -2.05743e-14 0)
(1.2 7.60253e-14 0)
(1.2 -3.23804e-13 0)
(1.2 -1.59078e-12 0)
(1.2 5.67508e-12 0)
(1.2 6.09594e-12 0)
(1.2 -6.31241e-14 0)
(1.17918 -0.000203338 0)
(1.2 -8.53089e-08 0)
(1.29551 -0.0443706 0)
(1.2 -6.87624e-10 0)
(1.2 -1.97379e-09 0)
(1.05648 0.0786718 0)
(1.32026 -0.0761832 0)
(1.2 -6.62762e-14 0)
(1.16007 -0.010852 0)
(1.2 2.53614e-14 0)
(1.2 1.62206e-14 0)
(1.2 7.75224e-14 0)
(1.2 3.29679e-13 0)
(1.2 2.456e-13 0)
(1.2 3.00831e-13 0)
(1.29397 -0.043538 0)
(1.35102 -0.111432 0)
(1.29117 -0.0288844 0)
(1.2 1.10735e-08 0)
(1.2 3.86793e-08 0)
(1.11872 -0.0269607 0)
(1.2 2.42001e-13 0)
(1.27472 -0.0035467 0)
(1.20022 -0.000485595 0)
(1.1995 -0.000496876 0)
(1.2 1.33094e-14 0)
(1.2 1.81774e-13 0)
(1.2 1.40252e-13 0)
(1.2 2.05881e-06 0)
(1.2 1.26168e-13 0)
(1.2 4.28796e-06 0)
(1.29273 -0.0431348 0)
(1.2 1.94915e-13 0)
(1.06223 -0.000593989 0)
(1.06436 -0.00228375 0)
(1.16129 -0.00170893 0)
(1.2 2.47681e-15 0)
(1.2 3.20867e-15 0)
(1.28337 -0.0657711 0)
(1.2 8.41499e-14 0)
(1.2 1.24041e-11 0)
(1.2 -5.42007e-14 0)
(1.2 -3.2317e-11 0)
(1.2 2.8292e-14 0)
(1.2 -5.99417e-15 0)
(1.05825 0.0783035 0)
(1.2 -3.49858e-14 0)
(1.2 8.19447e-15 0)
(1.2 1.28735e-13 0)
(1.2 1.8116e-13 0)
(1.14603 0.0518175 0)
(1.2 6.35842e-07 0)
(1.29057 -0.0450215 0)
(1.32844 -0.0808249 0)
(1.08897 -0.00157468 0)
(1.09073 -0.00124555 0)
(1.31619 -0.0683524 0)
(1.15143 -0.0268122 0)
(1.2 -1.69798e-07 0)
(1.2 -6.06318e-07 0)
(1.2 -1.9897e-14 0)
(1.2 -1.66814e-13 0)
(1.17545 0.0001191 0)
(1.34691 -0.106625 0)
(1.31404 -0.077936 0)
(0.931048 0.0823639 0)
(1.28802 -0.037878 0)
(1.2 2.42982e-14 0)
(1.2 -2.69765e-11 0)
(1.20002 -1.45242e-05 0)
(1.20004 -3.77546e-05 0)
(1.2 1.07439e-13 0)
(0.926025 0.0757371 0)
(1.2 -5.20126e-14 0)
(1.30776 -0.0554369 0)
(1.20018 -8.08019e-05 0)
(1.13724 0.0389417 0)
(1.10525 0.000240461 0)
(1.10716 0.000436837 0)
(1.2 -5.69976e-11 0)
(1.28051 -0.0245567 0)
(1.1396 0.0443254 0)
(1.2 1.54411e-13 0)
(1.12411 0.0490906 0)
(1.13003 0.0533856 0)
(1.291 -0.0403332 0)
(1.2 -1.89201e-13 0)
(1.19997 0.000150352 0)
(1.11528 -1.96751e-05 0)
(1.11676 5.13129e-05 0)
(1.15222 0.0487929 0)
(1.19989 0.000116062 0)
(1.19996 3.73801e-06 0)
(1.05965 -0.000199998 0)
(1.05907 0.000454381 0)
(1.17298 -0.0337156 0)
(1.2 -2.46197e-13 0)
(1.3194 -0.0699926 0)
(1.2 -1.12673e-13 0)
(1.12885 0.0547842 0)
(1.1269 0.0584184 0)
(1.1784 0.0375898 0)
(1.35266 -0.110795 0)
(1.30682 -0.0556883 0)
(1.2 1.46211e-13 0)
(1.07127 -0.00239225 0)
(1.2 -1.11331e-07 0)
(1.07153 -0.00246321 0)
(1.32847 -0.0804168 0)
(1.29884 -0.0465514 0)
(1.2 1.38896e-13 0)
(1.29267 -0.0362739 0)
(1.08596 0.0269648 0)
(1.28035 -0.0228046 0)
(1.06291 0.00662934 0)
(0.809952 0.0352276 0)
(1.2 -8.14586e-14 0)
(1.08016 -0.00148609 0)
(1.08119 -0.00176988 0)
(1.2 -1.32638e-12 0)
(1.28553 -0.0594014 0)
(1.2 -8.04516e-08 0)
(1.35853 -0.119119 0)
(1.13704 -0.0308161 0)
(1.2 2.95865e-14 0)
(1.13756 -0.0201586 0)
(1.34404 -0.105002 0)
(1.2 -4.2075e-08 0)
(1.17914 0.0369471 0)
(1.08598 -0.00132753 0)
(1.08634 -0.00191926 0)
(1.2 -1.85461e-13 0)
(1.06807 -0.00257391 0)
(1.06973 -0.00233939 0)
(1.35445 -0.114972 0)
(1.2 6.70676e-15 0)
(1.2 4.48658e-14 0)
(1.2 5.53785e-14 0)
(1.2 -3.63426e-13 0)
(1.16139 -0.0116275 0)
(1.2 -2.76e-13 0)
(1.2 9.6112e-14 0)
(1.2 2.85855e-14 0)
(1.15345 -0.0252101 0)
(1.2 3.17153e-13 0)
(1.16156 -0.00318335 0)
(1.16237 -0.00276875 0)
(1.2 -6.81265e-14 0)
(1.2 9.75664e-15 0)
(1.07568 -0.00152291 0)
(1.07739 -0.00108027 0)
(1.2 -6.63267e-14 0)
(1.3504 -0.109152 0)
(1.18248 0.0351896 0)
(1.09604 -0.000191633 0)
(1.09636 -0.000177053 0)
(1.2 5.62606e-14 0)
(1.2 -1.23294e-13 0)
(0.930238 0.0852962 0)
(1.2855 -0.0597231 0)
(1.2 3.3873e-13 0)
(1.07649 -0.0477561 0)
(1.2 2.78549e-13 0)
(1.15567 0.0476697 0)
(1.28666 -0.0530695 0)
(1.10242 0.000271147 0)
(1.2 -5.25436e-13 0)
(1.2 1.29859e-13 0)
(1.10284 8.71861e-05 0)
(1.36164 -0.120168 0)
(1.08319 -0.00188226 0)
(1.08416 -0.00146695 0)
(1.28729 -0.0588631 0)
(1.2 2.42804e-13 0)
(1.2 8.41363e-14 0)
(1.17268 -0.003467 0)
(1.17376 -0.00296406 0)
(1.09475 0.0690714 0)
(1.2 -7.63658e-14 0)
(1.2 -8.2598e-14 0)
(1.2 -5.63792e-14 0)
(1.2 2.84329e-13 0)
(1.2 -1.1404e-13 0)
(1.2 -1.5139e-13 0)
(1.2 4.98342e-15 0)
(1.09708 0.0687359 0)
(1.08225 0.0721597 0)
(1.2 3.4635e-13 0)
(1.2 -1.65105e-13 0)
(1.2 -1.41541e-13 0)
(1.2 -1.79437e-13 0)
(1.2 -9.78417e-14 0)
(1.2 3.9006e-13 0)
(1.2 -1.91871e-14 0)
(1.1839 0.0346399 0)
(1.2 1.05054e-13 0)
(1.11266 -0.000241977 0)
(1.11315 -0.000223961 0)
(1.08444 0.0718965 0)
(1.18499 -0.00366097 0)
(1.2 1.62474e-13 0)
(1.18592 -0.00319949 0)
(1.09203 -0.00150475 0)
(1.09359 -0.000703945 0)
(1.28462 -0.0324268 0)
(1.29656 -0.0704997 0)
(1.2 2.01107e-14 0)
(1.28691 -0.00890871 0)
(1.27913 -0.0819351 0)
(1.32174 -0.070989 0)
(1.15058 0.0495633 0)
(1.13086 -0.0256097 0)
(1.2 1.03003e-13 0)
(1.2 -1.09554e-13 0)
(1.2 2.58256e-14 0)
(1.09835 7.63296e-05 0)
(1.12158 -0.000646337 0)
(1.09974 0.000453866 0)
(1.2 1.81981e-13 0)
(1.2 -1.07642e-13 0)
(1.2 -6.01053e-15 0)
(1.12232 -0.000746559 0)
(1.2 2.39906e-13 0)
(1.19998 6.83911e-06 0)
(1.2 1.3105e-13 0)
(1.18111 0.000956504 0)
(1.2724 -0.0229446 0)
(1.19653 -0.00324314 0)
(1.19745 -0.00273129 0)
(1.2 2.97061e-13 0)
(1.2 2.48614e-13 0)
(1.2 9.5516e-14 0)
(1.15778 -0.0114796 0)
(1.21958 -0.00377924 0)
(1.28754 -0.0370732 0)
(1.16209 0.0451661 0)
(1.2 -1.34439e-13 0)
(1.0637 0.0770572 0)
(1.06545 0.0763309 0)
(1.28925 -0.0556809 0)
(1.2 1.16197e-13 0)
(1.07008 0.0752218 0)
(1.11912 0.061859 0)
(1.2 2.54292e-13 0)
(1.12266 0.0613592 0)
(1.28686 -0.0595869 0)
(1.12655 -0.000858218 0)
(0.939748 0.0863063 0)
(1.12734 -0.00129344 0)
(1.30297 -0.0523065 0)
(0.947174 0.0761561 0)
(1.2 4.19039e-15 0)
(1.10931 0.00021387 0)
(1.11048 0.000123609 0)
(1.2 -6.44272e-14 0)
(1.15273 0.0506372 0)
(1.2 -1.97845e-14 0)
(1.2 1.54187e-14 0)
(1.19163 -0.0172732 0)
(1.2 6.81892e-15 0)
(1.13166 -0.00151408 0)
(1.2 -2.40884e-13 0)
(1.13224 -0.00202242 0)
(1.29883 -0.0428272 0)
(1.07166 0.0747656 0)
(1.2 -7.46702e-14 0)
(1.18121 0.00137495 0)
(1.30269 -0.0546624 0)
(1.2 -1.10882e-13 0)
(1.28725 -0.0295774 0)
(1.28698 -0.0334525 0)
(1.18332 -0.0268731 0)
(1.16485 0.0435985 0)
(1.2 6.80019e-14 0)
(1.2 -2.7548e-14 0)
(1.13699 -0.00155136 0)
(1.1379 -0.00182716 0)
(1.21648 -0.0031638 0)
(1.21679 -0.00270641 0)
(1.2 8.14577e-14 0)
(1.2 -1.31062e-13 0)
(1.2 3.11462e-13 0)
(1.16508 -0.0103271 0)
(1.28593 -0.0345549 0)
(1.11901 -0.000392277 0)
(1.11977 8.01286e-07 0)
(1.2 -1.76197e-14 0)
(1.2 -1.09287e-13 0)
(1.2 -5.40707e-15 0)
(1.2 -1.36725e-13 0)
(0.929146 0.0605076 0)
(1.2 -4.12185e-14 0)
(1.1423 -0.00174352 0)
(1.14327 -0.00231312 0)
(1.2 1.00196e-13 0)
(1.28956 -0.0402465 0)
(1.2 2.62717e-13 0)
(1.17477 -0.0223062 0)
(1.2 -9.5133e-14 0)
(1.3503 -0.108854 0)
(1.2 5.72119e-14 0)
(1.32454 -0.0775519 0)
(1.2 -4.54615e-13 0)
(1.12401 -0.000802005 0)
(1.2 -4.61378e-14 0)
(1.12462 -0.000558179 0)
(1.2 -7.05729e-14 0)
(1.32595 -0.0774016 0)
(1.2 -1.35704e-13 0)
(1.2 -2.20446e-13 0)
(1.2 -1.24902e-13 0)
(1.2 5.07374e-14 0)
(1.2 -4.06601e-13 0)
(1.2 -4.21431e-13 0)
(1.2 -2.23382e-13 0)
(1.14802 -0.00200053 0)
(1.2 -1.02043e-13 0)
(1.2 -1.01391e-13 0)
(1.2 2.71928e-13 0)
(1.2 1.09928e-13 0)
(1.14887 -0.00253881 0)
(1.2 -2.58378e-13 0)
(1.07599 0.0739025 0)
(1.29489 -0.041396 0)
(1.2 4.71778e-13 0)
(1.2 -3.84255e-14 0)
(1.2 1.13192e-14 0)
(1.28655 -0.0517127 0)
(1.16681 -0.0127944 0)
(1.30401 -0.054553 0)
(1.12932 -0.00138262 0)
(1.18038 0.00059641 0)
(1.13003 -0.00104912 0)
(1.2 -5.07812e-14 0)
(1.2 1.34132e-13 0)
(1.15269 -0.00248356 0)
(0.894243 0.0763247 0)
(1.2 2.12075e-14 0)
(1.16097 0.0458158 0)
(1.15355 -0.00312872 0)
(1.17976 -0.00988622 0)
(1.2 1.24001e-14 0)
(1.17343 -0.00194903 0)
(1.19248 0.0307646 0)
(1.19477 0.0314482 0)
(1.2 2.68941e-14 0)
(1.20178 0.0240564 0)
(1.2 2.99036e-14 0)
(1.23715 -0.00388403 0)
(1.23831 -0.00288893 0)
(1.07819 0.0731634 0)
(1.2 2.29114e-13 0)
(1.20001 8.81974e-06 0)
(1.2 -3.47352e-13 0)
(1.2 2.90467e-14 0)
(1.2 -6.24906e-14 0)
(1.2 1.38732e-13 0)
(1.2 -6.76495e-14 0)
(1.2 2.08564e-13 0)
(0.962294 0.0850548 0)
(1.2 -1.12816e-13 0)
(1.19939 0.0240606 0)
(1.2 -1.15581e-11 0)
(1.16111 -0.0115621 0)
(1.2 -3.24051e-13 0)
(1.2 6.56005e-14 0)
(1.2841 -0.0322669 0)
(1.2 4.70738e-11 0)
(1.2 -2.99988e-14 0)
(1.15853 -0.00269527 0)
(1.2 -1.71512e-13 0)
(1.13398 -0.00182916 0)
(1.2 -1.61625e-13 0)
(1.2 1.64279e-13 0)
(1.15946 -0.00321045 0)
(1.13499 -0.00144662 0)
(1.2 -9.98366e-14 0)
(1.16932 -0.0235729 0)
(1.2 8.13983e-14 0)
(1.2 -7.39162e-14 0)
(1.2 -1.82762e-14 0)
(1.2 2.63668e-14 0)
(1.22158 0.00823151 0)
(1.1722 -0.00365193 0)
(1.2 2.61366e-13 0)
(1.2 -3.44069e-13 0)
(1.17807 -0.00127167 0)
(1.30204 -0.0537903 0)
(1.2 6.90915e-12 0)
(1.21873 -0.0133355 0)
(1.2 -6.86566e-14 0)
(1.2182 0.011427 0)
(1.17616 0.0392248 0)
(1.2 -2.44845e-13 0)
(1.2 -7.19767e-14 0)
(1.29196 -0.0375479 0)
(1.2 1.79495e-13 0)
(1.27015 -0.0221727 0)
(1.19881 0.0252457 0)
(1.2 -2.24486e-13 0)
(1.16132 -0.010735 0)
(1.2 -2.06379e-14 0)
(1.1973 0.000603667 0)
(1.17403 -0.00210307 0)
(1.2 -6.50579e-07 0)
(1.14011 -0.00174723 0)
(1.22322 0.00960599 0)
(1.2 2.3562e-13 0)
(1.22448 0.00980434 0)
(1.22426 0.0105178 0)
(1.1408 -0.00134274 0)
(1.2 -2.59047e-13 0)
(1.22431 0.00974195 0)
(1.2 -1.49899e-13 0)
(1.2 1.20819e-13 0)
(1.2 -1.82951e-10 0)
(1.2 2.73684e-13 0)
(1.2 1.66023e-13 0)
(1.18543 -0.00986237 0)
(1.2 -6.59323e-14 0)
(1.17605 -0.00284262 0)
(1.30322 -0.0522439 0)
(1.16557 -0.00344264 0)
(1.2762 -0.0275211 0)
(1.18784 0.0331738 0)
(1.16632 -0.00379089 0)
(1.1422 -0.023265 0)
(1.25008 -0.00391064 0)
(1.25164 -0.00333869 0)
(1.2 8.26743e-14 0)
(1.2 2.4324e-13 0)
(1.2 4.39601e-13 0)
(1.2 6.86516e-15 0)
(1.20031 -0.000827906 0)
(1.2 -6.58946e-16 0)
(1.26662 -0.0197946 0)
(1.28661 -0.0563159 0)
(1.34163 -0.0947124 0)
(1.26505 -0.0185129 0)
(1.22312 0.0103958 0)
(1.31446 -0.0866336 0)
(1.22257 0.0111687 0)
(1.2 8.5339e-14 0)
(1.2 -4.63558e-13 0)
(1.14535 -0.00235363 0)
(1.20211 0.0231319 0)
(1.32087 -0.0712215 0)
(1.14612 -0.00188451 0)
(1.17089 -0.00328976 0)
(1.17139 -0.00413803 0)
(1.25399 -0.00493712 0)
(1.29165 -0.0712701 0)
(1.2 -8.27497e-14 0)
(1.25497 -0.00398303 0)
(1.1474 0.0509975 0)
(1.2 1.72787e-14 0)
(1.2 -4.09439e-14 0)
(1.2 3.14907e-14 0)
(1.28854 -0.0827441 0)
(1.2 -1.95548e-13 0)
(1.18065 0.00124943 0)
(1.16131 -0.0105016 0)
(1.2 -7.9037e-14 0)
(1.2 1.75334e-13 0)
(1.21129 0.0160494 0)
(1.2 7.48785e-14 0)
(1.2 -4.48406e-14 0)
(1.16251 -0.00824926 0)
(1.36602 -0.130257 0)
(1.20114 0.0238678 0)
(1.2 2.98439e-13 0)
(1.2 -1.51423e-14 0)
(1.20069 0.0245622 0)
(1.2 2.16381e-13 0)
(1.20201 0.0246375 0)
(1.15932 -0.0136123 0)
(1.20146 0.0251817 0)
(1.2 -5.42633e-14 0)
(1.14022 -0.0278966 0)
(1.12798 -0.0240021 0)
(1.2 -1.15735e-13 0)
(1.22353 0.00874915 0)
(1.20536 0.0240211 0)
(1.2 -1.46628e-14 0)
(1.2 -6.89611e-14 0)
(1.15107 -0.00236 0)
(1.2 -1.22962e-13 0)
(1.28152 -0.00596461 0)
(1.27942 -0.0295173 0)
(1.2 -1.22196e-13 0)
(1.2 5.73883e-14 0)
(1.15154 -0.00183215 0)
(1.2 -7.08687e-14 0)
(1.2 -1.51268e-13 0)
(1.2 -2.54265e-13 0)
(1.2 -1.7289e-13 0)
(1.34304 -0.0999283 0)
(1.2 4.342e-14 0)
(1.2 2.54377e-14 0)
(1.17859 -0.00230325 0)
(1.27683 -0.0269814 0)
(1.17922 -0.00286573 0)
(1.3183 -0.0780359 0)
(1.2 -3.1101e-13 0)
(1.2 -1.96121e-13 0)
(1.2 -1.21235e-13 0)
(1.2 3.60472e-14 0)
(1.2 3.42004e-13 0)
(1.2 -4.36386e-09 0)
(1.2 -5.98842e-14 0)
(1.22337 0.00919845 0)
(1.34054 -0.0924979 0)
(1.2 1.9042e-13 0)
(1.2 2.78677e-13 0)
(1.2 -1.09384e-13 0)
(1.2 -1.87066e-13 0)
(1.2 1.38327e-13 0)
(1.2 1.87184e-13 0)
(1.28384 -0.0083023 0)
(1.1577 0.0468979 0)
(1.2 -1.80133e-13 0)
(1.16633 0.0427438 0)
(1.2 -1.71689e-13 0)
(1.2 -4.55884e-14 0)
(1.30469 -0.0532033 0)
(1.2 7.29861e-14 0)
(1.2 -2.71037e-13 0)
(1.2 -2.44222e-13 0)
(1.15547 -0.00325518 0)
(1.2 3.75837e-13 0)
(1.2 -3.16411e-13 0)
(1.15651 -0.00262956 0)
(1.16977 0.0413166 0)
(1.13444 0.0567758 0)
(1.2 4.87159e-14 0)
(1.13209 0.0578591 0)
(1.13111 0.0581871 0)
(1.12833 0.0593296 0)
(1.17114 -0.000550628 0)
(1.2 -2.78733e-13 0)
(1.18351 -0.00313279 0)
(1.18399 -0.00392327 0)
(1.16236 0.0464778 0)
(1.15301 -0.000104119 0)
(1.2 6.72962e-14 0)
(1.2 -2.2697e-13 0)
(1.11062 -0.0204347 0)
(1.2 2.55966e-13 0)
(0.94295 0.0722527 0)
(1.12683 -0.000553457 0)
(1.2 4.29431e-13 0)
(0.942341 0.0769688 0)
(1.19996 3.75161e-05 0)
(1.2 -4.87806e-14 0)
(1.1533 0.0494008 0)
(1.14832 0.0518214 0)
(1.2 -4.87129e-13 0)
(1.2 -3.41662e-13 0)
(1.15454 -0.000735809 0)
(1.22131 0.011621 0)
(1.2 -1.19232e-13 0)
(1.2 6.92614e-14 0)
(1.20258 0.0269516 0)
(1.2 -7.9411e-10 0)
(1.2 6.31413e-11 0)
(1.2 9.00328e-09 0)
(1.2 9.15009e-08 0)
(1.20286 -0.00151951 0)
(1.2006 -0.000165255 0)
(1.05484 0.0731238 0)
(1.04909 0.072145 0)
(1.35925 -0.117752 0)
(1.22151 0.0116383 0)
(1.06946 0.0687932 0)
(1.16938 -0.0110939 0)
(1.06786 0.0689427 0)
(1.0774 0.068039 0)
(1.2 -1.00333e-13 0)
(1.27992 -0.0124502 0)
(1.27016 -0.00509828 0)
(1.07557 0.0682082 0)
(1.2 -4.05063e-13 0)
(1.08405 0.0673967 0)
(1.2 6.63956e-14 0)
(1.08239 0.0677389 0)
(1.2 5.44801e-14 0)
(1.21441 0.0150906 0)
(1.09071 0.0671456 0)
(1.2 1.27663e-13 0)
(1.08935 0.0672156 0)
(1.00122 0.0856771 0)
(1.2 1.69457e-13 0)
(1.0973 0.0660894 0)
(1.2 1.12744e-13 0)
(1.09593 0.0664564 0)
(1.2 8.81288e-14 0)
(1.33978 -0.0976673 0)
(1.2 1.09394e-13 0)
(1.27528 -0.0245971 0)
(1.27094 -0.00486397 0)
(1.2 -7.27123e-14 0)
(1.2 2.59283e-14 0)
(1.10405 0.0652802 0)
(1.10277 0.0654336 0)
(1.2 1.23559e-13 0)
(1.20535 0.0222419 0)
(1.1103 0.0634373 0)
(1.1091 0.0635846 0)
(1.2018 0.0260334 0)
(1.2 -9.86998e-14 0)
(1.2 -3.43404e-14 0)
(1.1202 0.0606732 0)
(1.19056 -0.00270828 0)
(1.11909 0.0608746 0)
(1.2 -3.24775e-13 0)
(1.16331 -0.00376539 0)
(1.12635 0.0583066 0)
(1.29825 -0.0498748 0)
(1.12513 0.0586506 0)
(1.19129 -0.00363552 0)
(1.16366 -0.00350939 0)
(1.2 2.23053e-13 0)
(1.2 3.6138e-14 0)
(1.2 -9.22754e-14 0)
(1.13225 0.0564351 0)
(1.13146 0.0566891 0)
(1.18086 0.00130612 0)
(1.2 -1.83638e-13 0)
(1.2 -1.20662e-13 0)
(1.1384 0.0549295 0)
(1.26164 -0.0160478 0)
(1.13764 0.0550702 0)
(1.3017 -0.0538082 0)
(1.2 -3.06214e-13 0)
(1.14745 0.0516281 0)
(1.14646 0.0518689 0)
(1.2 -3.09681e-13 0)
(1.2 1.02114e-13 0)
(1.2 -1.65898e-13 0)
(1.15971 -0.0115098 0)
(1.2 2.41072e-13 0)
(1.20444 0.0245578 0)
(1.20058 0.0262612 0)
(1.14076 0.0534681 0)
(1.2 3.63018e-13 0)
(1.15535 0.0485212 0)
(1.2 8.04604e-15 0)
(1.15424 0.0489216 0)
(1.2 -2.38745e-13 0)
(1.2 6.83151e-15 0)
(1.20181 0.0227839 0)
(1.19907 0.0178342 0)
(1.16122 0.0461156 0)
(1.16103 0.0462902 0)
(1.22466 0.00954385 0)
(1.17136 -0.00690274 0)
(1.16677 0.0442838 0)
(1.16795 0.000509368 0)
(1.16633 0.0447224 0)
(1.2 -1.16804e-13 0)
(1.19235 0.0312941 0)
(1.1755 0.040082 0)
(1.17497 0.0403027 0)
(1.2 -6.94538e-15 0)
(1.2845 -0.0349819 0)
(1.18005 0.0374214 0)
(1.18014 0.0377871 0)
(0.823775 0.0122293 0)
(1.2 -3.0847e-13 0)
(1.2 -2.84564e-13 0)
(1.2 1.3904e-13 0)
(1.18677 0.0344527 0)
(1.22442 0.00952916 0)
(1.18573 0.0349104 0)
(1.35604 -0.132707 0)
(1.14762 -9.8599e-05 0)
(1.22382 0.00807388 0)
(1.31724 -0.0691913 0)
(1.19079 0.0314143 0)
(1.19018 0.0315 0)
(1.20153 0.0256628 0)
(1.19607 0.0288324 0)
(1.19649 0.0291911 0)
(1.28891 -0.0394923 0)
(1.29194 -0.0424629 0)
(1.2 -1.47761e-13 0)
(1.15206 -0.00455483 0)
(0.923825 0.0653036 0)
(1.19399 -0.00317691 0)
(1.2 -1.21049e-13 0)
(1.31706 -0.0643025 0)
(1.19464 -0.0035372 0)
(1.29643 -0.0480144 0)
(1.14455 6.11554e-05 0)
(1.27983 -0.00355193 0)
(1.2 -1.14274e-12 0)
(1.2 2.56328e-14 0)
(1.2 -1.42495e-12 0)
(1.16878 -0.00338039 0)
(1.2 1.05948e-13 0)
(1.2 -1.50973e-13 0)
(1.2 -1.87792e-14 0)
(1.2 2.97522e-14 0)
(1.2 -1.75224e-13 0)
(1.16942 -0.00284513 0)
(1.2 -1.1607e-13 0)
(1.2 -3.09443e-14 0)
(1.2 -1.15514e-13 0)
(1.2803 -0.0303592 0)
(1.28458 -0.0344715 0)
(1.2 4.77882e-14 0)
(1.19539 0.0287585 0)
(1.36048 -0.119007 0)
(1.26308 -0.00539983 0)
(1.2 -1.10173e-13 0)
(1.2 -1.12506e-13 0)
(1.2 1.29083e-13 0)
(1.2 5.66892e-10 0)
(1.2 2.31498e-14 0)
(1.16926 -0.0133014 0)
(1.2 2.31405e-14 0)
(1.21903 0.01088 0)
(1.2 1.53619e-13 0)
(1.13616 0.055779 0)
(1.16786 -0.00856197 0)
(1.13458 0.0566477 0)
(1.29295 -0.0453286 0)
(1.2 2.4243e-13 0)
(1.17952 -0.0106915 0)
(1.28574 -0.064457 0)
(1.12761 0.0591184 0)
(1.2 -3.74203e-10 0)
(1.2 1.07056e-14 0)
(1.2 -3.72473e-14 0)
(1.2 -6.9276e-14 0)
(1.2 2.53714e-15 0)
(1.1333 0.057425 0)
(1.13418 0.0568193 0)
(1.1708 -0.0103338 0)
(1.28072 -0.00263153 0)
(1.27875 -0.00201676 0)
(1.2 2.71108e-13 0)
(1.27585 -0.0243076 0)
(1.2 8.93204e-14 0)
(1.2 -4.61085e-13 0)
(1.13294 0.0576098 0)
(1.20277 0.0234059 0)
(1.2 8.28678e-08 0)
(1.14261 -0.00463282 0)
(1.19985 1.06707e-05 0)
(1.2 -2.98859e-08 0)
(1.1949 0.0301237 0)
(1.1906 0.032352 0)
(1.2 4.85535e-14 0)
(1.1315 0.0582906 0)
(1.30758 -0.0544095 0)
(1.22586 0.00709112 0)
(1.2 4.84475e-15 0)
(1.22363 0.0113696 0)
(1.20062 -0.0028579 0)
(1.2 -1.39053e-13 0)
(1.2 9.09717e-09 0)
(1.22338 0.00976964 0)
(1.21207 0.0155254 0)
(1.2 2.26684e-10 0)
(1.20128 -0.003043 0)
(1.35853 -0.125505 0)
(1.2 -3.98755e-12 0)
(1.2 8.88905e-14 0)
(1.11382 0.0627948 0)
(1.11252 0.0629608 0)
(1.22194 0.0112372 0)
(1.2 5.76229e-14 0)
(1.35892 -0.125805 0)
(1.35634 -0.123655 0)
(1.28688 -0.0609195 0)
(1.16185 -0.00859018 0)
(1.2 -7.22996e-14 0)
(1.20281 0.0238544 0)
(1.1766 -0.000827032 0)
(1.30396 -0.052754 0)
(1.00668 0.0853832 0)
(1.2 -5.42984e-14 0)
(1.2 1.86142e-13 0)
(1.2 1.41334e-13 0)
(1.14116 0.0537825 0)
(1.14012 0.0540991 0)
(1.2 7.28822e-13 0)
(1.19998 4.02922e-06 0)
(1.2 1.93558e-14 0)
(1.17579 -0.00285928 0)
(1.1503 0.0509726 0)
(1.2 -4.20816e-14 0)
(1.19997 1.77517e-05 0)
(1.1495 0.0510414 0)
(1.17666 -0.00216775 0)
(1.22462 0.0105801 0)
(1.22659 0.00826735 0)
(1.2 -6.70368e-14 0)
(1.22092 0.00883058 0)
(1.20077 0.0242115 0)
(1.31667 -0.0641067 0)
(1.22096 0.00938582 0)
(1.3056 -0.0547402 0)
(1.16949 0.0425227 0)
(1.2 3.42297e-13 0)
(1.2 1.58635e-13 0)
(1.16864 0.0428306 0)
(1.2 1.21745e-13 0)
(1.2 1.16913e-13 0)
(1.21497 0.0144419 0)
(1.21979 0.0109286 0)
(1.2 6.43084e-14 0)
(1.20551 -0.00216651 0)
(1.28232 -0.0334071 0)
(1.20579 0.0216445 0)
(1.29141 -0.0385087 0)
(1.28928 -0.0357574 0)
(1.20604 -0.00259412 0)
(1.28864 -0.0399265 0)
(1.29214 -0.0408553 0)
(1.30454 -0.0552554 0)
(1.30626 -0.0572785 0)
(1.2 -1.51961e-13 0)
(1.2 1.1426e-13 0)
(1.18112 0.00214381 0)
(1.2 1.40333e-15 0)
(1.2 -5.72731e-14 0)
(1.21999 0.0107856 0)
(1.27275 -0.0276955 0)
(1.28471 -0.0348059 0)
(1.2 -4.98067e-14 0)
(1.2 1.10079e-13 0)
(1.20006 0.0252983 0)
(1.2 -4.29779e-14 0)
(1.20022 0.0240304 0)
(1.19873 0.0250459 0)
(1.19995 0.000251564 0)
(1.18259 0.00787097 0)
(1.16924 -0.00264456 0)
(1.20001 3.91245e-06 0)
(1.2 -8.29933e-15 0)
(1.2 7.25127e-08 0)
(1.2 4.60722e-14 0)
(1.21848 0.013147 0)
(1.18356 0.00821291 0)
(1.17219 0.00284154 0)
(1.35715 -0.124133 0)
(1.2 -3.06717e-13 0)
(1.18086 -0.00291809 0)
(1.2 -4.1211e-13 0)
(1.21099 0.0173579 0)
(1.21101 0.0170462 0)
(1.18151 -0.00263891 0)
(1.2 2.19065e-11 0)
(1.21716 0.0149888 0)
(1.22141 0.0115983 0)
(1.21736 0.0148675 0)
(1.2 -1.13413e-14 0)
(1.2 -1.29513e-13 0)
(1.2 1.49096e-13 0)
(1.2 -1.14728e-13 0)
(1.21981 0.0118122 0)
(1.20176 0.0249374 0)
(1.2 -1.55957e-13 0)
(1.20555 0.0246087 0)
(1.2 -1.08408e-10 0)
(1.29047 -0.0405184 0)
(1.2 -1.62845e-13 0)
(1.29078 -0.0398805 0)
(1.2683 -0.00337625 0)
(1.28722 -0.0244457 0)
(1.2 -2.28535e-13 0)
(1.21011 -0.00285385 0)
(1.21021 -0.00342736 0)
(1.3113 -0.0820054 0)
(0.969803 0.0860401 0)
(1.2 6.51137e-12 0)
(1.28575 -0.0356123 0)
(1.15064 -0.0298865 0)
(1.14664 -0.036875 0)
(1.28384 -0.0355999 0)
(1.2 1.28284e-13 0)
(1.2 -3.184e-13 0)
(1.22545 0.00823707 0)
(1.3603 -0.135598 0)
(1.2 -4.50441e-13 0)
(1.2 -3.21397e-13 0)
(1.19517 0.0178869 0)
(1.34158 -0.102559 0)
(1.15755 -0.000894573 0)
(1.22458 0.00847752 0)
(1.2 -1.95786e-14 0)
(1.2 2.39362e-14 0)
(1.2 4.60236e-14 0)
(1.2 -9.51603e-14 0)
(1.2 -1.48031e-14 0)
(1.2 -6.19695e-14 0)
(0.898508 0.0656995 0)
(1.2 -2.02262e-13 0)
(1.26258 -0.0058417 0)
(1.29376 -0.0432445 0)
(1.29398 -0.0462311 0)
(1.17752 0.00212701 0)
(1.35748 -0.122326 0)
(1.35904 -0.13257 0)
(1.35118 -0.121329 0)
(1.28721 -0.0320773 0)
(1.13279 0.000323465 0)
(1.26655 -0.00441663 0)
(1.36099 -0.127626 0)
(1.09397 0.0668343 0)
(1.08752 0.0671911 0)
(1.08037 0.0679455 0)
(1.10069 0.0656806 0)
(1.09265 0.0670091 0)
(1.2 -6.93449e-14 0)
(1.1784 -0.00727551 0)
(1.08606 0.0672629 0)
(1.07256 0.0688504 0)
(1.09937 0.0657614 0)
(1.22627 0.00922157 0)
(1.07893 0.068145 0)
(1.12065 0.0598536 0)
(1.1071 0.0642434 0)
(1.07071 0.0690576 0)
(1.2 1.06833e-13 0)
(1.06689 0.0688249 0)
(1.10599 0.0646485 0)
(1.06561 0.0698047 0)
(1.2 -6.55283e-14 0)
(1.1169 0.0615798 0)
(1.06026 0.077211 0)
(1.14545 0.0331915 0)
(1.15995 0.024013 0)
(1.11596 0.0619091 0)
(1.20001 -1.87253e-05 0)
(1.04889 0.0747996 0)
(1.12316 0.0594829 0)
(1.19999 8.35792e-07 0)
(1.2 1.09836e-14 0)
(1.2 3.92537e-09 0)
(1.12238 0.059867 0)
(1.2 -2.92524e-13 0)
(1.1297 0.0574913 0)
(1.2 4.86387e-09 0)
(1.2 1.54822e-13 0)
(1.2 -8.62563e-14 0)
(1.2141 -0.00244773 0)
(1.12868 0.0577302 0)
(1.2 -1.90419e-13 0)
(1.2 1.23768e-13 0)
(1.2 -1.06675e-13 0)
(1.1356 0.0556098 0)
(1.12713 0.0595933 0)
(1.2 -7.25324e-14 0)
(1.2 6.66964e-14 0)
(1.2 -9.18487e-14 0)
(1.13434 0.0559002 0)
(1.21482 -0.00305159 0)
(1.34407 -0.116957 0)
(1.14441 0.0525344 0)
(1.2 -1.71369e-13 0)
(1.23893 0.00353106 0)
(1.14331 0.0528894 0)
(1.15214 0.0499332 0)
(1.15182 0.0500255 0)
(1.29796 -0.0439273 0)
(1.15915 0.0471017 0)
(1.15814 0.0474859 0)
(1.16413 0.045471 0)
(1.2 2.76733e-13 0)
(1.2751 -0.00240629 0)
(1.16311 0.0454457 0)
(1.2 -4.14499e-13 0)
(1.17284 0.0411818 0)
(1.28346 -0.0114015 0)
(1.2 -1.55434e-13 0)
(1.2 -3.97358e-14 0)
(1.17191 0.0414352 0)
(1.27208 -0.0221915 0)
(1.34113 -0.118465 0)
(1.17819 0.038986 0)
(1.17762 0.039307 0)
(1.1828 0.0359821 0)
(1.18766 -0.00338636 0)
(1.18202 0.0360759 0)
(1.3578 -0.128397 0)
(1.18869 0.0329395 0)
(1.2 -1.15299e-13 0)
(1.20408 0.0221393 0)
(1.18871 -0.00268122 0)
(1.18897 0.033437 0)
(1.20012 0.0265072 0)
(1.21473 0.0199317 0)
(1.22034 0.0109302 0)
(1.19457 0.0303854 0)
(1.20902 0.0208322 0)
(1.20753 0.0211279 0)
(1.28551 -0.00379358 0)
(1.19342 0.0306503 0)
(1.19807 0.0272933 0)
(1.19754 0.0274338 0)
(1.26362 -0.00367135 0)
(1.33843 -0.111442 0)
(1.35885 -0.125518 0)
(1.2 -7.80556e-14 0)
(1.33685 -0.11158 0)
(1.2 -3.03557e-13 0)
(1.34831 -0.111438 0)
(1.33302 -0.111438 0)
(1.34599 -0.114039 0)
(1.2 1.52007e-13 0)
(0.93245 0.0727857 0)
(1.1878 0.00189326 0)
(1.2 1.02068e-14 0)
(1.21298 -0.0316318 0)
(1.2184 -0.0294038 0)
(1.16317 0.0453123 0)
(1.15828 0.0471856 0)
(1.2 -5.4293e-14 0)
(1.15609 -0.000257883 0)
(1.12936 0.0574462 0)
(1.12422 0.0591043 0)
(1.18162 0.000874235 0)
(1.15791 0.000419917 0)
(1.13274 0.056751 0)
(1.12779 0.0578816 0)
(1.1315 0.0569594 0)
(1.13507 0.0566516 0)
(1.17695 -0.0103538 0)
(1.29096 -0.0410878 0)
(1.20029 0.0242515 0)
(1.22112 0.0088041 0)
(1.2 6.97773e-14 0)
(1.23701 0.00498059 0)
(1.27677 -0.0309676 0)
(1.29772 -0.0494502 0)
(1.2116 0.0221494 0)
(1.2 -2.43914e-13 0)
(1.0962 0.0663748 0)
(1.13445 0.0568277 0)
(1.332 -0.0822149 0)
(1.2 4.18357e-14 0)
(1.21963 -0.00316516 0)
(1.28587 -0.0760689 0)
(1.22861 0.0113171 0)
(1.22029 -0.00355576 0)
(1.2 2.48863e-14 0)
(1.19983 7.62025e-05 0)
(1.2 2.38693e-13 0)
(1.25821 -0.0116028 0)
(1.21092 0.0212591 0)
(1.16477 0.000608334 0)
(1.13427 0.0560706 0)
(1.20311 0.0258888 0)
(1.19827 0.0281938 0)
(1.32484 -0.0857471 0)
(1.19269 -0.00378783 0)
(1.22685 0.0127762 0)
(1.19262 -0.00332977 0)
(1.20481 0.0219707 0)
(1.28628 -0.0559192 0)
(1.33349 -0.0803132 0)
(1.28672 -0.0364223 0)
(1.33715 -0.0997368 0)
(1.23665 0.00517501 0)
(1.12566 0.0584285 0)
(1.20322 0.0240004 0)
(1.2 7.96583e-14 0)
(1.12606 0.0584655 0)
(1.07663 0.0699809 0)
(1.25527 -0.0097948 0)
(1.21707 0.0176175 0)
(1.2 2.47016e-13 0)
(1.2 -1.73975e-13 0)
(1.2 -1.42595e-13 0)
(1.20891 0.0210823 0)
(1.19993 4.841e-05 0)
(1.2 8.11867e-14 0)
(1.2 -3.3967e-13 0)
(1.35518 -0.117298 0)
(1.21623 0.0197424 0)
(1.30684 -0.0558182 0)
(1.2 -9.48704e-14 0)
(1.29299 -0.0424174 0)
(1.2 -1.08331e-14 0)
(1.21042 0.0197323 0)
(1.25094 -0.00651668 0)
(1.2 -1.9251e-13 0)
(1.2 -2.80564e-14 0)
(1.36795 -0.13084 0)
(1.30045 -0.0514951 0)
(1.05304 0.0735997 0)
(1.29705 -0.049026 0)
(1.15677 -0.0162745 0)
(1.15503 -0.0156682 0)
(1.19999 -3.35267e-06 0)
(1.12281 0.0593587 0)
(1.2013 0.0250116 0)
(1.2 6.27006e-15 0)
(1.22293 -0.0464637 0)
(1.2 1.51796e-13 0)
(1.20405 0.0245572 0)
(1.22345 -0.00256499 0)
(1.21323 -0.0324522 0)
(1.27804 -0.0277603 0)
(1.2 -1.02847e-13 0)
(1.2 -1.13024e-13 0)
(1.23852 0.00485751 0)
(1.21778 -0.0309569 0)
(1.21042 0.0194382 0)
(1.2222 0.0116118 0)
(1.16007 -0.0218671 0)
(1.15937 -0.0215152 0)
(1.2 -2.42124e-13 0)
(1.22391 -0.00327473 0)
(1.21112 0.0198397 0)
(1.22642 0.00993067 0)
(1.22332 0.00917107 0)
(1.30678 -0.0566716 0)
(1.20304 0.0266403 0)
(1.2 -1.61072e-13 0)
(1.24993 -0.00421788 0)
(1.30827 -0.0599818 0)
(1.21495 0.0158267 0)
(1.31655 -0.0667577 0)
(1.21333 0.0161791 0)
(1.13379 0.056949 0)
(1.2 -9.72443e-15 0)
(1.2 8.03093e-14 0)
(1.2 -1.62626e-13 0)
(1.2741 -0.0279245 0)
(1.21773 0.0127622 0)
(1.2 -8.74323e-14 0)
(1.22328 0.00975855 0)
(1.21799 0.0129863 0)
(1.1686 0.00159213 0)
(1.14374 -3.08549e-05 0)
(1.28464 -0.0368506 0)
(1.22412 0.00976467 0)
(1.35952 -0.13887 0)
(1.28492 -0.00275518 0)
(1.10056 0.0652536 0)
(1.2 2.24504e-13 0)
(1.2 -3.29278e-13 0)
(1.24435 -0.00145856 0)
(1.08955 0.0673784 0)
(1.2 5.058e-13 0)
(1.2 -3.33986e-13 0)
(1.2 -1.38897e-11 0)
(1.22396 0.0104508 0)
(1.2 -2.53048e-13 0)
(1.22384 0.0108358 0)
(1.34304 -0.102343 0)
(1.14983 -0.0269305 0)
(1.21794 -0.0384144 0)
(1.2 -1.2893e-13 0)
(1.2 7.96405e-12 0)
(1.21847 -0.0388077 0)
(1.2 3.3813e-14 0)
(1.0429 0.0725686 0)
(1.21825 0.0138145 0)
(1.04705 0.0721466 0)
(1.05814 0.072488 0)
(1.2 -7.64039e-14 0)
(1.3085 -0.0763829 0)
(1.04559 0.0718196 0)
(1.21437 0.0140925 0)
(1.2178 -0.0399468 0)
(1.10339 0.0643177 0)
(1.2 -2.35934e-13 0)
(1.28574 -0.0659416 0)
(1.05711 0.0719113 0)
(1.07912 0.0697016 0)
(1.24169 0.000286438 0)
(1.2 2.3776e-13 0)
(1.11004 0.0629904 0)
(1.05511 0.0720441 0)
(1.06908 0.0710404 0)
(1.2 3.40861e-07 0)
(1.20535 0.0210486 0)
(1.36022 -0.126445 0)
(1.2 -1.42123e-07 0)
(1.2 9.98612e-13 0)
(1.28438 -0.0350139 0)
(1.06675 0.0711806 0)
(1.2 -4.70912e-11 0)
(1.09283 0.0671974 0)
(1.18551 0.00127471 0)
(1.2 3.62466e-14 0)
(1.2 1.35551e-13 0)
(1.2883 -0.0487732 0)
(1.08182 0.0695564 0)
(1.22807 -0.0034306 0)
(1.13976 -0.00158143 0)
(1.06868 0.0701374 0)
(1.19872 -0.0033064 0)
(1.30944 -0.0585552 0)
(1.20001 -1.4925e-06 0)
(1.08284 0.0691538 0)
(1.07953 0.0696387 0)
(1.18805 0.0019099 0)
(1.2289 -0.00420895 0)
(1.2 2.53331e-13 0)
(1.19358 0.000976703 0)
(1.19886 -0.00295355 0)
(1.20469 0.000249842 0)
(1.13399 0.056457 0)
(1.2 -2.40062e-13 0)
(1.09418 0.0675046 0)
(1.2 7.09834e-14 0)
(1.2 -9.87212e-14 0)
(1.2 -1.63944e-13 0)
(1.09457 0.0667219 0)
(1.2 -3.13719e-14 0)
(1.2 -9.02093e-14 0)
(1.2625 -0.016556 0)
(1.13273 -0.0273444 0)
(1.2 1.30877e-13 0)
(1.26091 -0.0137554 0)
(1.09239 0.0676516 0)
(1.19838 0.0274126 0)
(1.2188 0.0108433 0)
(1.2 9.87673e-14 0)
(1.15343 -0.0243397 0)
(1.2 -1.62077e-13 0)
(1.18585 0.00321254 0)
(1.2 -1.36141e-13 0)
(1.2 -3.56686e-14 0)
(1.2 7.98471e-14 0)
(1.2 3.31178e-14 0)
(1.2 4.5519e-13 0)
(1.1298 -0.027136 0)
(1.2 -2.87129e-13 0)
(1.2 -4.18518e-13 0)
(1.2 -2.26468e-13 0)
(1.2 -8.82922e-14 0)
(1.2 -1.23022e-15 0)
(1.2 -2.51279e-13 0)
(1.1682 -0.0115998 0)
(1.35713 -0.127298 0)
(1.2 -2.45315e-13 0)
(1.21322 0.0191484 0)
(1.2 -1.23607e-13 0)
(1.2 -3.08254e-13 0)
(1.2 -1.30253e-13 0)
(1.11133 -0.0466464 0)
(1.27532 -0.0219058 0)
(1.34355 -0.100302 0)
(1.2 9.67719e-14 0)
(1.33185 -0.107228 0)
(1.18586 0.00111429 0)
(1.2 -1.34433e-13 0)
(1.2 -1.12838e-13 0)
(1.2 -2.26899e-13 0)
(1.21364 0.00501705 0)
(1.2 3.22656e-15 0)
(1.12888 0.058897 0)
(1.2 -1.11289e-13 0)
(1.07322 0.0701954 0)
(1.29097 -0.0407183 0)
(1.31685 -0.0853584 0)
(1.2 -9.6106e-14 0)
(1.2 4.84414e-10 0)
(1.2 5.67896e-14 0)
(1.2 -1.21164e-13 0)
(1.2 1.35809e-11 0)
(1.2 3.84349e-13 0)
(1.06188 0.0703624 0)
(1.06363 0.0704921 0)
(1.20127 0.022911 0)
(1.07479 0.0700963 0)
(1.2 -7.59515e-14 0)
(1.2 -1.99884e-13 0)
(1.2 1.56119e-07 0)
(1.2 5.14732e-08 0)
(1.28611 -0.0363822 0)
(1.2 5.49625e-05 0)
(1.2 -2.4813e-13 0)
(1.19998 4.59985e-05 0)
(1.137 0.0556164 0)
(1.2 -2.20473e-13 0)
(1.18765 0.0168772 0)
(1.2 -2.09806e-13 0)
(1.23407 -0.0574232 0)
(1.23037 -0.058759 0)
(1.2839 -0.0334284 0)
(1.10372 0.0665741 0)
(1.28741 -0.0398593 0)
(1.24114 -0.0595607 0)
(1.2 1.96005e-15 0)
(1.18885 0.0132237 0)