/*--------------------------------*- C++ -*----------------------------------*\
  =========                 |
  \\      /  F ield         | OpenFOAM: The Open Source CFD Toolbox
   \\    /   O peration     | Website:  https://openfoam.org
    \\  /    A nd           | Version:  12
     \\/     M anipulation  |
\*---------------------------------------------------------------------------*/
FoamFile
{
    format      ascii;
    class       volScalarField;
    location    "3.99";
    object      p;
}
// * * * * * * * * * * * * * * * * * * * * * * * * * * * * * * * * * * * * * //

dimensions      [1 -1 -2 0 0 0 0];

internalField   nonuniform List<scalar> 
22702
(
1
1
0.86541
1
1.05738
1
1.47279
1
1
0.635895
1.47261
1.4727
1
1.47082
0.880017
1
1
1
1.47261
1
1.4723
1
1.47525
0.646345
1.47469
0.645088
1
1.47812
0.6731
0.652452
1
1.4704
1
1
1
1.43195
1.47016
1.47439
1
1
0.654478
1
1.22205
1
1.47766
1
1
1
1
0.653556
1
0.6452
1
1.47204
1
1.46833
1
1
1
1
0.678207
1
1
0.689825
1
0.641687
1
1
1
0.630941
1
1.47106
1.28446
1
1.46956
1.49342
0.640457
1.47277
0.65233
1
1.47291
0.660145
1.47069
1.47671
1
1
1
1
0.926251
0.630752
1.46795
1
1
0.658348
1
1.47314
0.664108
1
1
1
1
1.23521
1.47259
0.647411
1
1
1.10883
1
0.657907
1
1.46769
1.47129
1
1
0.658412
0.662583
0.632485
1
1
1
1
1
0.911576
1
1.40069
1.04226
1.46829
1
1.46505
1.4726
1.47139
1.47013
1
0.639296
1
0.676497
1
1
1
1
1.47185
1
1
1
1
1.46845
1
1.02613
1
1
1
1
0.651391
1
1.0102
1
0.656259
1
1
1
1.46652
1
1.47334
0.657696
0.663844
1.47147
1.47419
1
1.07805
1.26442
1
1.46977
0.651162
1.42759
1
1
1
1
1.47115
1.38269
1
1.47194
0.689952
1.46831
1
0.666801
1
0.649779
0.648844
0.999793
1
1
1.47239
1
1
1.47086
1
1.4656
1.47176
0.652004
1
1
0.661673
1.47069
1
1
1
1.47099
1
0.663964
1
1
1.47162
1.47124
1.46629
1
1.00004
1
1
1
1.472
1
0.657961
1.48817
1.47065
1.47072
1
1
1
0.646551
1.47224
1.23644
1
1.47183
0.663883
0.668465
1.47185
1.47538
1
1.47617
0.644932
1.41877
1
1
1
1
1.47146
1
1.26835
1.04413
1
1
1.47078
0.665696
0.776273
1
1.4751
0.642295
1.46798
1
1
1
1
1
1
1
0.650411
0.761467
0.665851
1.47093
1
1
1
1
1.41181
1
0.652829
1
0.634158
0.65797
1.47215
0.655647
1.47181
1
1
1
0.997779
0.665273
0.645121
0.999999
1
0.632297
1
1.47188
0.638534
1
1
1.47213
0.650927
1
1.46972
0.666834
1.47083
1
0.642812
0.997807
1
1
1
0.645405
1
1
0.999999
1.00001
1.01177
1.29899
1
0.682019
1
1
1
1
1
1
1
1.47067
1
1.47121
1
1
1
0.668595
1
1.46948
0.657821
1
1.37459
1
1
1.4708
1
1
1
1.46136
1
1
1.46116
1.47125
1
1.09076
1
1
0.676575
1
1
1
0.653979
1
1
1
1
0.676735
1
1
1
1
1
0.641282
1.00006
1.47315
1
0.999984
1.47284
1.47251
1
1
0.665237
0.830203
1.47224
1
1
1
1.47066
0.637577
1
1.4727
1
1
0.702723
0.69369
1
0.670817
0.670708
1
1
1
1
1
1
1
1.47521
1.10882
1.44246
0.647247
0.906015
1.47382
1
1.46864
1.47158
0.67153
0.785316
1
0.65445
1
1.48115
1
1
1
1
1.47059
1
1
1
1
1
1
1
1.16842
1.46949
1
1.47108
1
1
0.661915
1
1
1
1
1.47109
1.35736
1
1
0.668113
1.47108
1.47158
1
1.47178
1.47108
1.47121
1
0.843934
1
1.47198
0.987036
1.47113
1
0.664637
0.998875
1.47079
1
1
1
1
0.656713
1.47253
1.42605
1
1.4745
1.47154
1.47234
1
1.21362
1.47298
1
1
1.31952
1.06961
1.47142
0.933488
1.47117
1
1.47108
1.47123
1.47112
1.47145
1
1.44512
0.91447
0.890296
1
0.999999
1
1
1.47742
1
1
1
1
1
1.47095
1
1
0.996105
1.47143
1.41427
1
1.39556
1.00004
1
1
1.47225
1
0.996742
1.00505
1
1.47137
1
1.47071
1
1
1.34659
1
1.47022
1.00002
1
1.47044
1
1.47095
1
1
1
1.47108
1
1.46973
1.00001
1.47097
1.47486
1.47147
1.47771
1
1.47064
1.47865
1
0.667263
1.44117
1.35081
1
1.47054
1
0.672686
0.673365
1
1
1
1
1
0.659592
1
1.47098
1.11677
1.47189
1
1
1
1
1
1.47119
1
1.47582
1.27737
0.784897
1
1.00001
1.12621
1.10855
1
1
1.1612
1
0.660668
1.47138
1.47138
1
1
1
1.47064
1
1.00003
1.46807
1.4724
0.942493
1
1
0.657243
1.42735
1
1
1
1
1
1.47112
1.47089
1
1.47129
1.46753
1.47124
1
1
1
1
0.636089
1.47093
1
1
1.42551
1.46859
1
1.44022
1.46497
1
1
1
1
1
1.47141
1
1
1
1
1.47913
1
1.45312
0.665616
1
0.666397
1
1
1
0.996601
0.657844
0.999061
1
1
1
1.06403
1
1
0.867372
1
1
1
1
1
1
1
0.999997
0.940219
0.999999
1
0.997698
1
0.656758
1
1
1
1
1.34929
1
1
1
1
0.663973
1
1
1.44261
1.47076
0.999999
1
1
0.886482
1
1
1
1
1
1
0.951869
1.01661
1.47173
1
1
1
1.46989
0.898935
1
1
1
1.47716
1.47278
1
1.00001
1
1
1
1
1
1
1
0.668517
1
1
1.46902
0.659722
1
1.46767
1
0.65301
1
1
0.667037
1
1
1
1
1
1
1
1.46154
1.46919
1
1
1
1
1.4281
1
1.14804
0.672467
1
1
1
1
1
1
1
1.02805
1
1
1.24633
1
1
1
1.395
1
1
1
1
0.651521
1
1
0.659986
0.653114
1
1
1.47202
1
1.01358
1
1
1
1.32513
0.64475
1
0.636534
1
0.771956
1
1
1
1.47135
1
1
1.47141
1
1
1
1.47178
1
1
1.47216
1
1
0.669112
1
1.14815
1
1
1.47278
1.47384
1.3072
1.42159
1
0.668579
1
1
1.44993
1
0.640695
1
1
1
1.47099
1
1
1
1
1.27932
1
1.43118
1.47516
0.630107
1
1
0.663421
0.660266
1
1
1
1.33205
1.35616
1
1
1
1
1
1
1
1.19194
1.47889
1.00003
1
1.4627
0.64728
1
1
1
1.25558
1
1.09315
1
1.42853
1.46325
1
0.663322
1
1.46833
1
1
1.47247
1.43877
1
1.47336
1
0.65907
1
1
1
1.48128
1.46317
1.4131
1
1.47345
1.4711
1
1.47169
1
1.46452
1
0.640083
0.979059
0.666826
1
1
1
1
1
1.47137
1
1.47077
1
1
1
1.44875
1
0.652771
1.47144
1
0.670797
0.666311
0.651139
1
1.22103
1.03121
1.47369
1.47126
1
0.999999
1
1
1.47168
1
1
1.47167
1.4711
1
1.15162
0.999435
1
0.996681
1.46403
0.85875
1
0.823864
0.659747
0.660488
0.947828
1.47607
1.46079
1.09221
1.47411
1.47153
1
1
1.47333
1.47108
1.4719
1.47252
1
1.46506
0.655244
1.46748
1.47189
1.46746
1.47342
0.858981
0.894611
0.93764
1.47237
0.963917
1.47339
1
1
1.46712
1.47105
1
0.654351
1.473
1.47136
1
1.47351
1.47194
1
1.47161
0.665499
1.47113
1.47952
1.47013
1.47798
1
1
1
1.47172
1.29943
0.680168
1.47153
0.667617
1.47198
1
1
1
1
1.46889
1.47156
1
1
1.47097
0.668682
1.47127
0.655969
1
1.47136
1
0.641548
1.47317
0.733302
1
1.47134
1.47515
1.4733
1
1
1.22982
1.47424
0.663204
1.47163
1
1.47282
0.880387
1.47521
0.666878
1
1.4717
0.682087
1.46808
0.659096
1
1.47108
1
1.46901
1
1.25489
1.45253
1.36795
0.64487
1
1.47157
1
1.46487
1
1.47233
1
1
1.47202
0.982774
1.47413
0.643642
1.4113
1
1.34411
1
1.47189
1.47206
1.47149
1
1.42147
1.47206
1.43676
1.28516
1.47004
1
1.30565
1
1.47181
1
1.07244
1
1.43621
1
1.46452
1.44877
1.44991
1
1.47576
0.669661
1
0.670658
1
1
1
1.46644
1
1.47271
1
1
1
1.47175
1.47709
1.41027
1.47017
1.46947
0.659395
1.48052
1.46609
1
1.40868
1.4705
1.47482
1
1.46912
1.46947
1
1.47485
1.47021
1.4716
1.47264
1
1
1
1.47836
0.661802
1
1.47164
1
1
0.679593
1
1
1.47131
1.47143
1
1.47177
1.48515
1.46944
0.973153
1.47179
1
1.47169
1.47074
1.35962
1
1
1
1.47002
1.4711
1.47204
0.946095
1
1.48191
1.47099
1.47103
1
1.47107
1.47164
1.47126
1.48265
1
1.47187
1.47733
1.40967
1.47109
1.48071
1
1.46535
1.46515
1.47159
1.46966
1.47261
0.6623
1.47244
1.46947
1
1.46994
1.47219
1.46961
1.47117
1
1.4724
1.47258
1
1.47167
1.39339
1
1
1
1.47011
1.48062
1
1
1.25332
1
1.47158
1
1
1.47143
1.47246
1.47132
1.47132
1
1
1
1.32625
1
1.46861
1
1
1.46504
1.48027
1
1.47098
0.626417
1.47147
1.47017
0.716588
1
0.614179
1.4084
1.47454
1.47097
1.47722
0.681951
1.47149
1.4724
0.679595
0.658481
1
1.46709
1.47219
1
1
1.47251
1
1.47603
1
1.4092
1
1.20493
1.47235
1.47501
1.32376
1.40606
1.46404
1.47351
1.42621
1
0.657109
1.48153
1.47156
1.47605
1.00001
1
1
1.47709
1
1.4714
1.472
0.748029
1
1.47252
0.99994
1
1.00003
1.00004
1.47143
1.46956
0.998502
1
1
1.46495
1.47418
1.47377
1.47287
1.4731
0.642993
1.4163
1
1.46915
1.47153
1.47197
1.46884
1
1.4717
1.46054
1.47289
1
1.47254
1.46959
0.84363
1.47087
1.47273
1
1.47108
0.835245
1.47103
0.844443
1.47199
1
1.46874
1.47801
1.47238
1.47234
1.4715
1.47397
1.47236
1.46806
1
0.905921
1.47122
1.47162
0.857372
1.47058
0.98175
1.28124
1.47129
1.47005
1.46924
1
1.47467
1.30456
1.46977
0.910759
1.47352
1.47385
1
0.888342
1
1.45367
1
1.3332
1
1.45997
0.893864
1
1.47693
1.46542
1
1.47341
1.47496
1.4658
1.4645
1.46773
1
1.47036
1
1
1
0.914092
1.47069
1.47146
1.47168
1.47088
1.47912
1.47126
1.47309
1.47286
0.892007
1.03182
1
1
1.47682
1.47245
1.47098
1.47113
1.00003
1.23869
1
1.47416
1.41005
1
1
0.763173
1.47083
1
1
0.668594
1.47225
1
1.47467
1.47153
1.46365
1.4495
1.47049
1
0.637599
1.11024
1.47136
1.47297
1
1.47621
1.4712
1.23556
1.00995
1.10693
1
1.47001
1.47119
1
1
0.682769
1
1
1.47156
1.4717
1.47157
1.47748
1.46981
1.46911
1.47322
1.47841
1.47115
1
0.995971
1.47039
1.4705
0.99691
1.47105
1.47135
0.666189
0.633138
1.47674
1.46831
1
1
1.0011
1.47253
1.47341
1.47194
1
1.47089
1
0.847596
1.47588
1.4603
1
1.20588
1.47214
1
1.47064
1
1.47227
1.28945
1.47378
1
1.471
1.47496
0.679807
1.47131
1
1.46963
1.47863
1
0.655014
1.46933
1.37504
0.997763
1.43655
1.4716
1
0.984732
1.46919
0.998266
1.46939
1
1
1.47034
1
1.46929
1.4711
0.996452
1.37104
1
1.47154
1
1
1
1
1.47096
1
1
1.4654
1
1.47014
1
1.28068
1.47916
1.47057
1
1
0.993413
1
1.46984
1.47148
1.47088
1.47034
1.47033
1.47085
1.47042
1
1.47189
1.47193
1
1.47103
1.47188
1
1.473
0.913994
1.05629
1.47134
1.47259
1.47256
1
1.47194
1
1.47096
1.47013
1
1.46821
1
1
1
1
1.47269
0.63867
0.997851
1
1.47143
1.46608
1
1.47078
1
1.00563
0.654476
1.46662
0.999623
1
1.47382
0.998438
1.47002
1
0.999759
1
1.47525
1.46991
1.47407
1.47434
0.661417
1.47119
1.47557
1.47225
1.11168
1
1
1.19367
1.47009
0.626073
0.652165
1
1.47072
1.47114
1.46822
1
1
1.47248
1.46818
0.999892
1
1.33551
0.638232
1
1.07941
1.47072
1.46049
0.998211
1.47194
1.48241
1
0.998511
1
1.47354
1.46498
1.18218
1
1.44995
1
1.00141
1.47171
0.657566
1.47163
1.47191
0.996913
0.999911
1.41243
1
0.999693
1
1.47164
1
1.00001
0.611986
1.47319
1.00001
1
1
1
1.47919
1.26689
1
1
0.643163
1.47493
1.27054
1
1
1
1.45821
1.45647
1.47255
1
1
1.47841
1
1.47062
1.47123
1
1
1.47796
1.4722
1.45335
1
1
1.47085
1.47426
1
1
1
1.47325
1
1
1
1.47345
1.47533
1.47484
1
1.47706
1.00003
0.713149
1.47207
1.47221
1
1.47159
1.43271
1.47263
1
1
1.47472
1
1.25374
1.46961
1
0.678989
1
1.47638
1
1
1.47609
1
1
1
1.14478
1.46929
0.707536
1.00001
1.47305
1
1
1.47122
1
1.47414
1
1
1.47063
1.47197
1
1.00005
1
1
1
1
1
1
1.47838
1.47239
1
1.4735
0.665127
1.47244
1
1.47131
1.4775
1.47
1.48038
1.47425
1
1
1.47263
1
1.27665
1.4757
1.47118
1
1.47481
1.47529
1
1.42258
1
1.47165
1.31298
1.47368
0.997371
1.44263
1.42124
1.47302
1.4722
1.03903
1.47085
1.47468
1
1.47141
1
1.47194
1
1
1
1
0.996143
1.47177
1.47174
1.38257
1
1.47277
1
1
1
0.651186
1
1.45985
1
1.42197
1.45873
1
1
1
1.43956
1.46591
1
1
1.47243
0.661586
1.07269
1
1.47408
1.47168
1.41905
1.46006
1.47118
1
1.46984
1
1
1
1
1.47001
1.47154
1
1.45255
1.05105
1.47135
1.44411
1
1
1.43722
1
1
0.679512
1.32611
1
1
1.4604
1
1.47506
1.42733
1
1.42574
0.663936
1.47209
1.47333
1.47172
1
0.663309
1
1
1
1.47202
1.40083
1
1.47558
1.4706
1
1.47026
1
1
1
1
1.47045
0.999328
1
1.47982
1
1
1.47462
1.46888
1
1.47449
1.08324
1.00002
1
1.47233
1
1.47179
1
1.01454
1.4718
1
1.47037
1
1
1.14812
1.47302
1
1
1
1
1
0.996511
0.663263
0.632913
1.02249
1
1.02643
1
1.03594
1
1.47187
1
1.29762
1
1.47009
1
1
1
1.47011
1
1.39297
1.47101
1
1.24747
1.47177
1
1
1.46609
1.47329
1
1
1.0554
0.654717
1
1.47286
1
1
1
1
1.07695
1.47141
1
1
1
0.679142
1
1.47057
1.47132
1.48341
1
1
1
1
1.22582
1.47957
1
1
1
1.47222
1.47338
1.05422
1
1
1
1.47255
1.47056
1
0.670388
1.47124
1.47132
1.47259
1.47344
1.47598
1
1
1.47401
1.47566
1.47089
0.68388
1.04164
1.47157
1
1
1
1
1
1.47047
0.655531
1
1
1.47046
1.21321
1
1.47331
1
1
1
0.656023
1
1
1.12373
1.47155
1.46688
1
1.47794
1.46873
1
1.0775
1
1.47361
1
1.47064
0.661264
1
1
1
1
1.4705
1.00006
1
1
1
1.45535
1
1
1
1
1.47159
0.655165
1.36723
1.47375
1
1.47236
1
1
1
0.997123
1
1.47374
1
0.788094
1
1
1.00003
1.46519
0.653689
1
1.46969
1
1.47564
1.46997
0.662962
1
1
1.44856
1
1
0.666305
1
1.47134
1
1.45608
0.999314
1.47474
1
1
1
1
1.47484
1
1
1.47007
1
1
1
1
1
1
1
1
1.30453
1
1.14935
1.47029
1
1
1
0.660922
1
1
1
1
1.47907
1.47196
1.05384
1
1
1.47577
1
1
1.47189
1
1.00002
1
1
1
1.00001
1.47058
0.764536
1.47563
1.47975
0.996727
1
1
1
1.27482
1
1
1.47165
1.46968
1
1
1
1
0.645948
1
1
1
1.29053
1
1.47006
1.47548
1
1.47662
1
1
1
1.24547
1
1.4709
1
1.46951
1
1
0.996151
1.47465
1
1
1
1
1
1.46872
1.00002
1
0.683759
1.47047
0.670661
1
1.47133
1
0.995923
1
1.4729
1.46744
1
1.47421
0.888439
1.46736
1.48026
1.00003
1
1
0.664934
1
1
1
1.46721
1.26458
1.48109
1
1
1
1
0.996867
1.47372
1
0.671083
1
1
1
1
1
1
1
1.47944
1.46965
1.46764
1
1
0.996878
1
0.98107
1
1
1
0.641539
0.977298
1
0.667283
0.65855
1
1.47252
1.47089
1
1.46889
1.47106
0.668395
1.30493
1
1
1
0.67304
1.47189
1
0.670066
1
1.46804
1.08186
1
1
1
1
1.47063
1.46953
1
1
1.46857
1
1
1.47281
1.47142
1
1.42562
1.46553
1.47081
0.96676
1.46934
1.00847
0.668339
1.358
1.46622
1
1
1
0.640405
1
0.661727
1.48147
0.966606
1.47004
0.932055
1
1.47282
1.21715
1
1
1.46987
1
1.1868
1.46969
1
1
1.46699
1.46406
0.658369
1.27639
0.999898
1
1.26988
1
1.47966
0.929577
1.47537
1.46964
1
1
1
1
1.47284
1
1
1.47038
0.999646
1.47237
1.37093
1.46928
0.665562
1
1
1
1
1.47203
1.00004
1.47031
1
1.47076
1.47256
1.05772
1.47549
1.14326
1.47315
1
1.32869
0.694122
1.4718
1.47145
1.36863
1.07728
1.46926
1.47039
1.4709
1.47177
1
0.92334
1.0676
1
1.4717
1.22377
1.47085
1.00003
1
1
0.713723
1.47639
1.46928
1.38304
1
1.17346
1
1.48488
1.48382
1
1.46838
1.46987
1
1
1
1.47398
1
1.18223
1.48425
1.32249
1
1.4707
1
1
1
1
1
1
1
1
1
1
0.702917
1
1.45311
0.661273
1.27523
0.99857
1.47631
1
1.24736
1.00001
1.28773
1.40356
1
1.00186
1.47111
0.91982
1
1.47102
1.46702
0.933097
1
1.47178
1.47267
1.47385
1
1.47133
1.47165
1.47033
1
1.20641
1
1.00006
1.47191
1
1.47109
1.06744
1.47388
1
1
1.47539
1.47959
0.694588
1
1.47023
1.353
1.47209
1
1
1.46963
1.47228
0.998225
1
1.42003
0.99693
1.47032
1.00006
1
1
1
1
1.21179
1
1.36499
1.46957
1.35008
1.46922
1
1.00384
1
1
1.47197
1
1.47095
1
1
1
1
0.999999
1
1.05707
1.24374
1
1
0.656852
1
1.46854
0.68675
1.4728
1
1.22599
0.999746
1.47121
1.29839
0.674555
1.24892
1.00003
1.47137
1.46949
1
1.28746
1.47059
1.47242
0.998394
1.47925
1.4568
0.630562
1
1
0.997788
1
1.47402
1
0.668531
1.46795
1
1
1.41198
1
1.47
1
1.47232
1
0.705592
1
1
1.47046
1.47437
1.4686
1
1.4743
1.47156
1.47533
1
1
1.45675
0.999999
0.734888
1
1
1
1.4722
1
1.47126
1.30134
1.47293
1
1.47489
0.999375
1
1
1
1
1
1
0.737259
1
1
1.47551
1
1.47487
1.47232
1
0.652623
0.663836
1
1.47263
1.07667
0.663096
0.638069
1
1.4684
1
1.46947
0.679029
1.00107
1
1
0.999511
1
1
1
0.999916
1.18792
1.47005
1
1
1.47254
1.2751
1
1.43348
1.47362
1.46876
1.18807
1.45523
1
1.4733
1
1.47289
1
1.47896
1.47541
0.996893
1.47025
1.47034
1
1
1
1
1
0.912414
1.46923
1.00004
1.00003
0.661643
0.999985
0.654864
0.646042
1
1.47438
1.47069
1.47134
1
1.47175
1
0.666786
1
1
1.46972
0.820389
1.47452
1
1.472
1
0.991631
1.46987
1
1
1
1.47159
1
1.47155
0.656818
1
1
1.26468
1
1
1.24862
1
1
1.47203
1
1
1
1
1
1.47673
1.47197
1
1.47134
1.47267
0.647168
1.21527
1.47311
1
1
1.42367
0.998941
1
1
1.47105
1.46885
1.30428
1
1.47403
0.653846
1.41209
0.999349
1
1.47035
1.00003
1.47245
1.38508
1.35572
1
1
1.47089
0.748957
0.643816
1
1.47158
1
1.47205
1
1.27675
1
1
1.47186
1.29781
0.67313
1
0.998625
1
1
1.02549
1.18126
1.47157
1
1.47287
1
1
1
1
1
1
1.06739
0.668415
1
1
1.03117
1
1
1
1
1
1.47135
1
1
1.47185
1.47178
1.33355
1
1
1
0.833005
1.47021
1.32367
1
1
1
1
1.47118
1
1
1
1.47633
1
1
1.3354
1.48574
1.0349
0.747657
1.47372
1.32702
1.47345
1
1.23395
1
1
1
0.64
1.00296
0.643375
1
0.659593
0.635822
1
0.655128
1
1
1
1.20184
1
1.47098
1.47092
1.00085
1.21648
1.37941
0.645137
0.744144
0.882179
1
1.46936
1.47388
1.47298
1.47075
1.40208
0.881515
1
1.4048
1
1.46474
1
1
0.996336
1.00961
1
1
1
1.47059
1
0.656359
1
1.47301
0.664516
1
1
1.47078
1
1.46966
0.999761
1
1
1.47184
1.41493
1
1.48191
1
1
1.01435
1
1.20689
1
1
0.644123
1
1
1.47406
0.999998
1.47697
1
1.00003
0.639039
1
1
0.653223
1.00089
1
1.47258
0.670791
1.47643
0.654807
1.47106
1
1
1
1
1
1
1
1
1
1
1
1.45016
1
1.47496
1.47138
0.660344
1
1
1
1
1
1
1.46446
1
1
0.666636
1
1
1.47186
1
1
1.18138
1.39073
0.651437
0.681817
0.691292
0.758659
1
0.996524
0.648066
1.00027
1.44156
0.996882
1
1
1.4742
1
1
1
0.742986
1.00001
1.17086
1
1
1.18166
1.47026
1
0.646401
1
1
1
0.996617
1
1.46884
1.47108
1
0.636982
1
1.2467
0.652105
1
0.895982
1
0.99674
0.64194
1
1
1
0.996006
0.648237
1
0.649382
0.998363
1.23986
1.42986
0.670891
0.655469
1
0.989687
1
0.998687
1
1.47516
1.47469
1
1.01409
1.47345
1.46854
1
1
1.4711
1
1
1.00004
1
1.46895
1
1
1.01871
1
0.99859
0.69234
1
1
1
1
1
1.46682
1.03188
1.00005
1
1
1
1
1
1.00003
1
0.649
1.10042
0.99863
1.46956
1.46179
1
1.0139
1.47316
1.41756
1
1
0.642328
1.47025
1
1.47115
1
1.47325
1.323
0.650356
1
0.653536
1.44228
0.999679
1
0.666456
0.644296
1
1
1.4088
1
0.999998
0.640841
1
1
1
1.14632
1
0.659924
1.47017
1
1
1
1
1.47031
1
1
1.46822
1.42127
1
1
1
1.47949
0.652752
1
1.47123
1.47061
1
1.37516
0.999999
1.00003
1
1
1.45124
1.0138
1
0.634407
1.26009
1
1
0.997441
1
1
1.45919
1
1
1.00003
1
1.47008
1
1
1
1
1
1
1.00001
1.20307
1
1.47699
1
1
1.4735
1
1
1
1.46867
1.47287
1.04731
1
0.997618
1
1
1
1
1.47148
1
1
1.47143
0.663072
1
1
1
1
1
1
1.37806
1
1
1.46362
1.47169
1
1
1
1.47144
1.46864
1
0.999689
1.4631
1
1
1
1.00002
0.655363
1.03064
0.996305
0.995743
1
1
0.641137
1.47298
1
0.652467
1
1.46909
1.45153
0.65144
0.999394
1.46961
1.47114
1.47264
1
1
0.920693
1.39843
1.39196
0.648036
1
1
1
1.46871
1.47172
0.653059
0.997284
1
1.47195
0.669428
1
1.46595
0.659357
0.952231
1.00701
1
1.47506
1
1
1
1
1
1
1.00011
1.44574
1
1
1.46699
1
1
1
1.47158
1
0.649099
1
1
1
1.16112
1
1
1
1
1
0.796567
1
0.669571
1
1.47301
1.00007
0.869711
0.881517
1.00002
1.00341
1.23672
1
1
0.659268
1.47245
1.47317
1.47203
1
0.661409
0.64813
1
1.47275
1
1
1
1
1
1.00003
1
0.655549
1.29706
1
1
0.65633
0.976709
1.00001
1
1
1
0.64579
1
0.687503
1
1
1.46651
1
1
0.664227
1
1.47161
1
0.644527
1
0.653933
1
1.0084
1.47295
1.48041
1
1
1.47079
1
1
1.10154
0.996747
1
0.998277
1
1.47343
1
0.641096
1.00002
1.47236
0.998873
1
1
0.78747
1
0.999066
0.666894
1.47043
1.16729
1
1.00001
0.915395
1
1
1
0.765253
1
1
1
1.46709
1
0.649901
0.999999
1
1
1
0.654346
1.47156
1.44503
0.668514
1
1.47171
1
1
1.46834
1.47041
1.39314
0.651739
0.997709
0.999205
1
1.47136
1
1
1
1
1.47311
1.00004
1
1
1.4677
1
1
1.47273
0.650817
1
1
1
0.659561
1
0.999999
0.999999
0.998609
1
1
1
1
1.34617
1
1.47343
1.47121
1.47822
1.4707
1.47078
1.47192
1
1.46816
1
1.47156
1.47326
1
0.998824
0.634604
1.4028
0.999884
1
1
1
1
0.992439
1
1.07575
1
1
1
0.855709
1.47265
1.47215
1.48279
1.41095
0.999875
1
1.02075
1.47051
0.997878
1.061
0.997487
0.673843
1
1.00003
1
1
1
1
1
1.46867
0.6552
1.46832
1.47208
0.99546
0.673239
1
1
1
1.47048
0.679237
1.41399
0.650121
1.47157
1.48317
0.650178
1.46962
1.02295
1
1.47385
0.790055
1
0.998772
0.656894
1
0.670411
1
1.47214
1.47058
0.755308
1
1.47148
0.672015
1
0.661635
1
1.47076
1
1
1.46075
1
0.838748
1
0.999643
0.671618
1.47585
0.999494
1
0.665983
1
1
1
1
1.24517
1
1.47112
1
1
1.47988
1
1
1.4712
1
0.662541
1
0.661018
1.00001
1
1
1
1
1.45003
1.27149
1.47043
1
1.47508
1.43704
0.63757
0.643343
1
1
1.46347
1
0.65848
1
0.97433
1
1
1.47221
1
1.47306
0.646529
1.48153
1
0.644527
1
1
1.46628
1.46605
1
1.00004
1
1.45512
1
1
0.654171
0.999416
0.673425
1
1
1
1.47296
1.47465
1.47086
1
1
0.646198
1
1.47453
1
1
1
1.46784
1.47081
1.47056
0.681632
1.47282
1.47188
0.682112
1.471
1.00004
0.691146
1.0076
1
1
1.47435
0.684007
1.29608
0.678572
1.47203
0.997311
0.662523
1.47318
1
1
1
1
1.47009
1.47066
0.652686
1
1.00002
0.663661
1.00004
1
0.655798
0.641406
1.32192
1.47153
0.998428
1.47103
1
1.48804
0.824544
0.666598
1.47201
1.48663
1
1.46949
1
1
1.47162
1
1.35404
1.47083
1
1
1
1
1.4734
1.46511
1.47948
1
1
1.48071
1.47329
1.47108
1
1.47339
1
1
1
1
1
0.646731
0.827573
0.63999
1
1
1.47007
1
1
1.47451
0.665223
1
1.47156
1.46729
1.44998
0.620084
1
0.674116
1
1.00003
1.47194
1.20305
1.47227
1.42967
1
0.653384
1
1.47037
1.33302
0.659106
1
1
1
0.801456
1
1
1.4775
1
0.670263
1.4719
1
1
1
1
1
1.37611
1.10051
1
1.47126
1
1.46951
1
0.996938
1
1.47266
1.47552
1.47531
1.47574
0.999567
1.47225
1
1.47185
1.47316
1.40629
1
1
0.641107
1.47016
1
1
1.47845
1.46971
1.47135
1
1.47006
1
1
1.00003
1.4776
1.47319
1.12207
1.10197
1.47274
1.46943
0.705729
1
1
1
1
1.00001
1.16579
1
1
1.39731
0.66315
0.999968
1
1.47165
0.999897
0.999793
1.06669
1.43017
1.46886
0.920766
1
0.684898
1
0.99334
1.47204
1.47509
1.48221
0.999095
1
1
0.650526
1
1
1.47175
1.04795
1
1
1
1
1
1
1
0.999937
1.47013
1.00002
1
1
1
1
1.30968
1
1.21766
1
1
1.47131
1.47914
0.666505
0.998816
1
1
1
0.655542
1.47329
1.468
1
1
1
1
1
1
1
1
1.47129
1.46775
0.639665
1.05124
0.655237
1
0.663599
1
1.47078
1.12334
1
1
0.728714
1
1.44998
0.803282
0.996708
0.666611
1
1
1.47012
1.00004
0.997028
0.641447
1.47383
1.47709
1
1
1
1
1.44648
1
1
1.46828
0.998992
1.47266
1.00005
1
1
0.6656
1
1
1.4699
0.664069
0.772655
0.658352
1.47187
0.999359
1
1.47426
0.667227
0.636452
1.02005
1
1
1.47137
1.00004
1.21204
1
1
1.47208
0.658146
1
1
1.00014
1.47331
1.00007
1.46065
1
1.00003
1
1
0.736939
1
0.786092
1.00001
1
1.46818
0.661748
1
0.79488
0.793141
1
1
1.47098
1
1
1
1.47337
1.46587
1.00005
1.45432
1.47115
0.805034
1.47106
1.46177
1
1
1.46238
0.999999
1
1
1
1
1.4803
1.47303
1
1
1
1.47103
1.00021
1
0.666407
0.721012
1
1.00003
1.17286
1
1
0.889615
0.660077
1
1
1
1.47864
1.43047
1.47075
1
1
1
1
0.672391
1
1.4656
1
1.46755
0.655171
1.47886
1
1
1
0.651473
1
1.47155
1.00003
1
0.6577
1.16785
1
0.999662
1.47058
0.645169
0.640608
1
1.47278
0.671251
0.668654
1
0.650463
1
1
1
1
0.676941
1
1
1
1
1.46961
1
1.3582
0.673609
1
1
1
0.657699
1.472
1
1
0.99694
1.47207
1
1.47016
1.47216
1
1
0.739738
0.645125
1
1
0.651273
1.13966
1.21665
1
1
1.47461
0.997373
1
0.997766
1.47129
1
1
1
1
1
1
1.47015
1
1.16393
1.1556
0.701101
1.41679
1
1.46637
1.4714
1
1
1
0.91868
0.670318
1
1.22267
0.999686
1.42022
1
1
1
0.999999
1
1.00649
1.21705
1.47126
1.4755
1
1.47078
1
0.654517
1
0.997453
0.999783
1
0.629957
1
0.656846
1.00002
1.47542
1.4713
0.631136
1.4786
0.655965
0.99617
1.36641
0.677423
1.34749
1
1
0.998416
1
1
1
1.00006
1
0.666493
1
1
1
1
0.999601
1.47252
0.825396
1
1
1
1.03713
1
1
1
1.27399
0.753925
1
1
1
1.05772
1.4707
1
0.668835
1
1.47377
0.884956
0.659349
1
0.655701
1
1
1.445
0.998221
1.43563
1
1.00899
1
1
1.47219
1
1
1
1
1.09213
1
1.47086
1.47136
1.46925
0.674126
1.47112
0.997072
1.38299
1
1
0.618329
1
1
0.6546
1.47754
1
1
0.999944
1
1
1
0.64184
0.681014
1
1.47174
1
1.22033
1.4714
0.666205
1.39416
1
1
0.665193
1
1
1.47189
1.47391
1.16875
1
1
1.00118
1.47121
0.671382
0.657953
1.47458
1.47058
1.32713
1.18459
1
0.901204
1
1
1
1.43733
1.46783
1.46936
1
1
1.47403
0.647197
1.41592
0.63964
1
0.657938
1
0.642941
1.47106
0.641981
1
0.981993
0.710069
1
1
1
0.852296
1.45092
1.47135
1.47211
1.47531
1
1
1.47113
1
1
1.47007
1
0.662255
1
0.660556
1
1.47096
1
1
1.02235
1.35935
1
0.998703
0.665836
1.46697
1.00001
0.663955
1.09004
1
1
1.35781
1.4721
1.47165
1
1.47696
1.11713
1
1.02688
1.4711
1
1
1
1
1.47181
1
0.649346
1.47014
0.672491
0.653044
0.816055
1.47661
1.16328
1.47242
1
1.47349
0.99718
1.00003
1.47183
1.47285
1
1.4752
1
1.4726
1
1.47157
1
1.00004
0.999952
1.47201
0.649862
0.658102
0.997998
0.999999
1
1
0.675111
1
1.30646
1
0.667423
1
1.17963
1.4692
1.47082
1
1
1.00003
0.999415
1
1.47113
1.47114
1
1.19488
1.47159
0.82797
1.47112
1.00042
0.632097
1.09604
0.658497
1
1
1.08003
1.4719
1
1
1.04612
0.998549
1
0.661978
1
0.785449
1
1.46873
1
1
0.672496
1.10474
1.05427
0.998505
1.47065
1.47077
0.778185
0.998012
0.631578
0.665627
0.641356
1
1
1
0.999064
0.72773
0.662933
1
1.47128
0.999737
1.47035
1.47318
1.47131
1.4705
1
0.667972
1.47157
0.684106
1
1.4695
1.47184
0.99653
0.805569
1.47135
1.32814
1
0.66576
1
1
1.47883
1
1.02716
1.47341
1
0.647271
0.656318
1
1
0.659807
0.672537
1.47179
1.00004
1
0.641899
0.633278
1.47765
1.45941
1.43899
1.47113
1.12157
0.976315
1.18526
1.46704
1.35427
1
1.22643
1
0.671959
0.853455
1
0.646824
1.47282
1.02227
1.47301
1
1.47152
1.47196
1
1.47163
1.47152
0.652383
1.47575
1
1.47244
1
0.745016
0.64978
1.47183
1
1
1
0.652502
1.47194
1.47162
1
0.644298
1
1
0.64474
1.00005
0.643307
1.47167
1
0.824653
0.662779
1
1
1.26634
1
1
1
1.08146
0.648473
1
1.00001
1
1.47352
0.667649
1
1.47217
0.670479
0.670683
1
1
1.47494
1
1.47467
1.00001
1.4715
0.658392
1
1
0.652392
0.788218
0.662558
1
1
1
1
1.47125
0.622276
1
0.664089
1
1.47581
1
1
0.932861
1
1
0.825834
0.999702
1.00005
1
0.671341
0.648772
1
1
1
1
0.802454
1.46704
1.47242
1
0.664517
0.681857
0.890199
0.648401
1
0.852962
1
0.665897
0.985696
1
1
0.652634
1
1.47503
1.46373
0.646293
1
1
1
1.46764
1
1.04162
0.807932
1.14061
0.657936
1.18784
0.658674
1
1
0.713353
0.889748
1
1.04787
1
1
0.660845
1
0.932563
1.0377
0.664577
1
1.37551
0.735566
0.880993
1
1
1
0.671017
1
0.65275
0.648553
1
0.863168
0.662017
1.06349
0.756617
0.658473
1.47174
1
1.47143
1.25476
0.719605
1.47043
0.642777
0.999048
1.47262
0.999999
1
1.47523
1
0.743977
1
1.05803
1
1
1.47149
1
0.782209
0.818842
1.47229
0.917171
1
0.741035
1.47197
1.47299
0.897554
1
1.47162
1.12375
0.862229
1
1.01196
1
0.645792
1.20013
0.788496
0.768444
1
1
0.64719
1.46942
0.966834
0.665754
0.634457
0.852176
1
0.991123
1.47111
1.47139
1
1
0.999999
0.646822
1.21375
1
1.46635
1.42394
0.64329
1.00002
1.09126
0.887086
1.28304
1.40834
1
1.0408
1
1.00005
0.631709
0.853527
1
1
0.804032
0.633236
1.03227
1
1.00002
0.664801
1.21126
1
1.45831
1
1.02408
1.254
1
1.46088
1
1
1.4716
1
0.659501
1.47183
0.71468
1.11631
1
0.651536
0.999919
1
1.00003
1
0.792142
1.02651
0.64975
1.35021
1.4723
0.640255
1
1
1
1
1
0.97453
0.65063
1.05787
0.661782
0.66494
1.08374
1
0.999795
1.11798
1
1
0.675749
1.00044
1
1
1.1275
1
1.47117
1
1.47233
1.08935
1.01799
0.649741
1
1
0.663941
1
1
1
1
1.47346
1.04531
0.99804
1
0.630261
1.05225
0.999999
1
1.30709
1
0.646563
1.47439
1
1.00001
1
1.46959
0.629637
0.874642
0.63577
1.35127
1.47663
1
1
1.47203
1
0.648719
1
1
1
1
1
0.761147
1
1.46971
1
1
1.16442
1.47017
0.646511
0.882034
1
1.4721
1
1
1
1
1
1.47118
1.47258
0.673633
1.47154
0.639444
1
1
1.47193
1
1.47443
1.00955
1.02745
1.0608
1.47329
1.07313
1.3154
0.650289
1
0.647708
0.982072
1
1.47211
1
1
0.663274
1.47301
1
1.47334
1
1
1
1
1
1.00001
0.646967
1.47228
0.871331
1.47088
1
0.638184
0.639392
0.713262
1.46636
1.47321
0.958104
1
0.797305
1
1.1724
1
1.47191
0.658909
0.663168
0.851447
1
1.47215
1
1.08538
0.678349
1
1.47115
1.40846
0.998864
1
1.47205
0.651032
1.4771
1.47038
1.4716
0.668627
1.08167
1
1
0.644794
1
0.831275
0.85191
1
1.00002
1.47241
1
1.47755
1.08771
1
1.02664
1.47962
1
0.633557
1
0.775181
1
1
1.38531
1
0.825262
1
0.660422
1.03654
0.954357
0.637142
1.47122
1.38509
1.47213
0.656522
0.717991
0.995614
0.999999
1
0.672129
1.44394
0.649383
0.999969
1
1.4721
1.47291
0.890131
1
0.644361
0.730957
1.3122
0.969928
0.640287
0.999999
0.668356
1.10914
0.649761
1
1.00006
0.800604
1.47072
1.47134
0.821152
0.999601
1
1
0.70939
1
0.647674
1
0.672474
0.646013
1
1
1.00004
0.650314
1.47092
1
1
1.00006
1.00004
0.673769
1.47138
1.47258
1
0.653497
1.47096
1
1.09265
1
1
1.47288
0.647447
1
1
0.673608
0.757552
0.651485
0.664585
1
0.683559
0.997149
1.08382
0.66503
1
1
1.12748
1
1.41716
1
1
1.31411
0.700009
1
0.657142
1.12244
1.47089
1
1
0.665002
0.661225
0.65103
0.71006
0.664349
1.35026
0.999426
1
1
1
1
1.47314
0.670085
1
0.931974
0.999689
0.998574
0.999941
0.764424
1.13037
1
1.47222
1.47194
1
1
1.45364
1.00004
0.999999
1.47194
0.654744
1.47147
0.999999
0.638273
1.47147
1.00005
1
0.844643
1
0.652394
1
1.47136
1
1
1.47566
1
1
1.47635
1
1
1
1.46726
1
0.767881
0.74028
1
0.636892
1.47107
1
1
0.968213
1
1.4722
1.26881
1.36435
1
1
0.689281
1
0.682738
1.47102
1.46753
1.47069
1
1.47231
0.646512
1
0.687695
1.37743
1.42411
1.47052
1.47095
0.751886
0.652468
1
1.29901
1.47311
1.46836
1.47171
0.7697
1.1668
1
1.35519
0.759545
1
1.00002
1
1.00002
0.884588
1
1.47741
1
1
1
1
1
1
1.00006
1.46872
1
1.47592
1.34791
0.651531
1.47123
1.02904
1.2331
1
1.47249
1
0.65796
1
1
1
1
1.40172
1
0.638171
1.4743
0.641572
1.47095
1.37557
1.24043
1
1.08716
1.21331
0.995881
0.67514
0.764502
1.00002
0.999999
0.90221
1
0.656687
1.47291
0.655572
0.933127
0.838549
1
1
1
1.01384
1
1
0.675834
0.996305
1.47363
1
1.47193
1
0.650333
1
1
1.47414
1.4715
0.639663
1
1.47153
1
0.804532
0.665272
1.46946
1.42273
1
1.08122
1.47162
0.998665
1
1.19469
1.41171
1.47412
0.995992
1
0.999998
1.39954
1
1
1
1.47105
0.998503
1
1
1.47194
1
1
0.656875
1
1
1
1.47094
1
1
0.838319
1.13528
1.42873
0.779806
1
1.47109
1
1.16019
1
1.47398
0.997211
1.47175
1
0.643781
1
1.30981
1
1
1.43725
1.00001
1.47181
1
1.47494
0.694277
0.666108
1.47098
1
1.39891
1
1.47158
1
1
1.00005
1.47014
1.46829
1.11686
1.47217
0.995608
0.669138
1.47169
0.878769
1
1.47263
1
1.47212
1
1.47425
1.47137
0.996381
0.653626
1
1.47174
1
1.0199
1
1
0.997961
0.746131
1.41823
1
1.41619
1
0.871632
0.644362
1.47157
1.47169
0.706019
1
1.47211
1.47014
1.47268
0.700879
1.4715
0.690615
1.47229
1.47578
1
1
1.47136
1
1
1
1
0.65261
1
1
1.47165
1.47168
1
1.4769
1
1.46851
1.47166
1
1.39022
1
0.633325
1.47234
1.35183
1.12784
0.641599
1.46987
1
1
0.656743
1
1
1.47119
1
1
0.791592
1
1.47158
1.00009
1.4717
0.65274
1.47489
1
1.47226
1.45256
0.879331
1
1.46716
0.759958
1.4705
1.32621
1.47155
1.47664
0.997316
1.47255
1.47224
1.4715
1.47149
0.999802
1
0.649566
1
1.46981
0.821905
1.4294
1
1.463
1
1
1
1
1
1.46903
0.651011
0.667612
1.47198
1.4716
1
1
1
1
1
1.46771
1.43053
1.4715
1.01754
1
1
1
1.00004
1.47068
1.47183
1
1.47016
1.47279
0.657587
1.34096
1
1.46928
1.47808
1.46877
0.997847
1.47201
1.47182
1
1.44193
1
1
1
1
1
1
1.47153
1.47242
1.43612
1.4726
0.652985
0.703555
1.47219
1.47196
1
0.661064
0.94167
1
1.22095
0.662637
1
0.999459
0.998266
0.655877
1
1.47037
1
1
1
1.47087
0.945131
1
1.47173
1.47161
1
1.46952
1
1
1.47181
1
0.650019
1
1.47755
1
1
0.658117
1
1.47247
1
0.637174
0.635158
1
1.447
1
0.631129
0.870757
1
1.47163
1
1
1
1.47818
1
0.661215
1.06543
1.47022
1.47032
1.47168
1.04253
1.47335
1.47193
1
1.00002
1
1
1.00001
1.47223
1
0.999294
1.47287
1
0.638939
1
1.47107
1.21259
1.05615
1.20989
1.06158
1.47839
0.72164
1.47249
1
0.657838
0.997086
1.47181
0.949869
1.47271
1.47091
1.45215
1
1.4733
1.47204
1.47233
1
1.00004
1
1
1.46882
1.33022
1
1
0.671652
0.996982
1
1.47152
1
1.47156
1.47091
1.47493
0.893639
1.47211
1.4707
1.00692
1.21639
1.46866
1.47122
1
1.43914
0.828519
1.44229
0.980341
1.47167
1
1.47053
1.47276
1
0.645857
0.945135
0.697788
1
1.08633
0.997008
1.47357
1
1
0.996228
1
1.23329
1.44724
1
1
1.46961
1
1
1.33183
1.47085
1.45203
1.47246
1.47183
1
1.47295
0.733318
1.47126
1
0.999273
0.660216
1
1
0.734698
1
1.13683
1
1.47379
1
1.46266
1.29309
0.645978
1
1
1
1
1
1.47116
1.01152
1
1.46934
1