/*--------------------------------*- C++ -*----------------------------------*\
  =========                 |
  \\      /  F ield         | OpenFOAM: The Open Source CFD Toolbox
   \\    /   O peration     | Website:  https://openfoam.org
    \\  /    A nd           | Version:  12
     \\/     M anipulation  |
\*---------------------------------------------------------------------------*/
FoamFile
{
    format      ascii;
    class       volScalarField;
    location    "7.26";
    object      p;
}
// * * * * * * * * * * * * * * * * * * * * * * * * * * * * * * * * * * * * * //

dimensions      [1 -1 -2 0 0 0 0];

internalField   nonuniform List<scalar> 
22702
(
1
1
0.870883
1
1.0568
1
1.47781
1
1
0.640667
1.47086
1.47891
1
1.47245
0.898423
1
1
1
1.47126
1
1.47178
1
1.47333
0.66951
1.46813
0.675912
1
1.47115
0.659345
0.658894
1
1.47489
1
1
1
1.43523
1.47048
1.47338
1
1
0.695041
1
1.22846
1
1.47082
1
1
1
1
0.660753
1
0.665018
1
1.47026
1
1.46907
1
1
1
1
0.653752
1
1
0.652027
1
0.645188
1
1
1
0.674039
1
1.4721
1.28217
1
1.47187
1.4966
0.651163
1.47094
0.660082
1
1.47023
0.660951
1.47549
1.47592
1
1
1
1
0.921577
0.666927
1.47387
1
1
0.63157
1
1.47151
0.634842
1
1
1
1
1.22757
1.4706
0.680122
1
1
1.1119
1
0.662856
1
1.4704
1.47281
1
1
0.628816
0.622896
0.652341
1
1
1
1
1
0.912958
1
1.40126
1.04326
1.46858
1
1.46927
1.47202
1.47151
1.47165
1
0.684806
1
0.636346
1
1
1
1
1.47284
1
1
1
1
1.47176
1
1.02773
1
1
1
1
0.657332
1
1.01102
1
0.656565
1
1
1
1.4729
1
1.47277
0.617361
0.671312
1.47132
1.47113
1
1.07339
1.26079
1
1.46778
0.660826
1.43626
1
1
1
1
1.47289
1.39324
1
1.47053
0.648459
1.46758
1
0.647903
1
0.657441
0.674501
0.999765
1
1
1.47368
1
1
1.47137
1
1.47362
1.4702
0.659455
1
1
0.651993
1.47143
1
1
1
1.47134
1
0.65986
1
1
1.47159
1.4715
1.47152
1
1.00004
1
1
1
1.47119
1
0.645982
1.48826
1.47175
1.47293
1
1
1
0.650003
1.47075
1.2217
1
1.47338
0.657624
0.659928
1.47359
1.47077
1
1.48096
0.684804
1.41466
1
1
1
1
1.47063
1
1.27281
1.04168
1
1
1.47171
0.62665
0.785944
1
1.4733
0.671255
1.47817
1
1
1
1
1
1
1
0.665722
0.789079
0.661858
1.47138
1
1
1
1
1.42087
1
0.662632
1
0.638595
0.654007
1.47243
0.660053
1.47226
1
1
1
0.997463
0.648672
0.676715
0.999999
1
0.641653
1
1.47247
0.682094
1
1
1.4697
0.622547
1
1.47379
0.660773
1.47184
1
0.643329
0.997646
1
1
1
0.667111
1
1
1
1.00001
1.01008
1.28588
1
0.672678
1
1
1
1
1
1
1
1.47037
1
1.47438
1
1
1
0.669758
1
1.47139
0.654477
1
1.36946
1
1
1.47166
1
1
1
1.46371
1
1
1.46681
1.47076
1
1.09224
1
1
0.631583
1
1
1
0.625744
1
1
1
1
0.634357
1
1
1
1
1
0.675693
1.00006
1.47237
1
0.999992
1.47138
1.47122
1
1
0.668945
0.80375
1.47393
1
1
1
1.47164
0.679589
1
1.47299
1
1
0.702294
0.706577
1
0.644873
0.659717
1
1
1
1
1
1
1
1.46869
1.1164
1.4398
0.668246
0.899041
1.47325
1
1.47195
1.47394
0.656938
0.767047
1
0.672321
1
1.48564
1
1
1
1
1.47118
1
1
1
1
1
1
1
1.17325
1.4739
1
1.47133
1
1
0.657034
1
1
1
1
1.47153
1.3573
1
1
0.651212
1.47235
1.47167
1
1.47169
1.47186
1.47148
1
0.82618
1
1.47155
0.981482
1.4714
1
0.665905
0.998791
1.47008
1
1
1
1
0.665391
1.47194
1.42666
1
1.46898
1.47165
1.47295
1
1.2125
1.47093
1
1
1.32476
1.06351
1.47163
0.912517
1.47166
1
1.47166
1.47142
1.47156
1.47258
1
1.46748
0.904693
0.886677
1
0.999999
1
1
1.47107
1
1
1
1
1
1.47074
1
1
0.995985
1.47176
1.40478
1
1.3864
1.00004
1
1
1.47193
1
0.997122
1.00452
1
1.47126
1
1.47061
1
1
1.34609
1
1.47113
1.00002
1
1.47277
1
1.47165
1
1
1
1.47074
1
1.47001
1.00001
1.47087
1.46886
1.47171
1.47263
1
1.4705
1.46069
1
0.64463
1.44096
1.33645
1
1.47134
1
0.631129
0.652124
1
1
1
1
1
0.643492
1
1.47129
1.10801
1.47251
1
1
1
1
1
1.47157
1
1.4722
1.27696
0.76479
1
1.00001
1.13423
1.1169
1
1
1.16777
1
0.657458
1.47192
1.4717
1
1
1
1.46979
1
1.00003
1.47549
1.47216
0.950974
1
1
0.661585
1.42741
1
1
1
1
1
1.47171
1.47064
1
1.47341
1.47111
1.47188
1
1
1
1
0.685296
1.4735
1
1
1.42715
1.47093
1
1.4414
1.47308
1
1
1
1
1
1.47113
1
1
1
1
1.46773
1
1.46753
0.68551
1
0.63278
1
1
1
0.996957
0.650825
0.99906
1
1
1
1.05982
1
1
0.865761
1
1
1
1
1
1
1
0.999997
0.931718
0.999999
1
0.997543
1
0.662806
1
1
1
1
1.34939
1
1
1
1
0.652988
1
1
1.44264
1.47242
0.999999
1
1
0.890478
1
1
1
1
1
1
0.945998
1.01078
1.47135
1
1
1
1.46923
0.889286
1
1
1
1.47333
1.46866
1
1.00001
1
1
1
1
1
1
1
0.666219
1
1
1.47051
0.662714
1
1.47079
1
0.655527
1
1
0.66363
1
1
1
1
1
1
1
1.46258
1.47138
1
1
1
1
1.42779
1
1.14462
0.642402
1
1
1
1
1
1
1
1.03416
1
1
1.25122
1
1
1
1.38735
1
1
1
1
0.685615
1
1
0.64416
0.681277
1
1
1.47159
1
1.02721
1
1
1
1.32602
0.646357
1
0.643405
1
0.780286
1
1
1
1.47286
1
1
1.47161
1
1
1
1.47176
1
1
1.47182
1
1
0.661546
1
1.14663
1
1
1.47312
1.47256
1.3081
1.42138
1
0.670048
1
1
1.44886
1
0.664727
1
1
1
1.47157
1
1
1
1
1.27756
1
1.45835
1.47153
0.637952
1
1
0.672796
0.663721
1
1
1
1.33417
1.3544
1
1
1
1
1
1
1
1.19137
1.47433
1.00704
1
1.46605
0.681552
1
1
1
1.25454
1
1.08949
1
1.42822
1.4693
1
0.66496
1
1.46814
1
1
1.47064
1.44027
1
1.4736
1
0.628191
1
1
1
1.46209
1.46233
1.41162
1
1.47354
1.47127
1
1.47171
1
1.46921
1
0.675463
0.97933
0.671119
1
1
1
1
1
1.47136
1
1.47128
1
1
1
1.44669
1
0.66532
1.47152
1
0.66248
0.666454
0.661667
1
1.22352
1.03511
1.47318
1.47124
1
0.999999
1
1
1.47181
1
1
1.47173
1.47132
1
1.15883
1.00014
1
0.99672
1.47041
0.849762
1
0.8217
0.65871
0.657333
0.940028
1.47201
1.46401
1.09086
1.47221
1.47121
1
1
1.46667
1.47303
1.47176
1.47098
1
1.47161
0.665733
1.47052
1.47323
1.47462
1.47641
0.869205
0.888432
0.924371
1.4718
0.95622
1.47328
1
1
1.47336
1.47149
1
0.667905
1.47249
1.47152
1
1.47147
1.47181
1
1.47168
0.654798
1.47156
1.46953
1.47262
1.47725
1
1
1
1.47151
1.3002
0.707476
1.47173
0.660814
1.47162
1
1
1
1
1.46786
1.47208
1
1
1.47142
0.660701
1.47176
0.659019
1
1.46807
1
0.643095
1.47343
0.73201
1
1.47139
1.47492
1.47248
1
1
1.20233
1.47397
0.652722
1.47126
1
1.46966
0.873555
1.47181
0.657681
1
1.46975
0.689637
1.47335
0.653792
1
1.47172
1
1.47359
1
1.26639
1.45301
1.36539
0.622753
1
1.47112
1
1.47119
1
1.47165
1
1
1.47228
0.966391
1.47415
0.62224
1.42736
1
1.32862
1
1.47222
1.47148
1.47274
1
1.42206
1.47117
1.43512
1.28249
1.46776
1
1.30294
1
1.47183
1
1.06779
1
1.43487
1
1.46962
1.44754
1.44832
1
1.46283
0.651948
1
0.680029
1
1
1
1.47029
1
1.47206
1
1
1
1.47177
1.4572
1.39303
1.46879
1.4698
0.634923
1.47782
1.47398
1
1.41273
1.47148
1.44939
1
1.46799
1.4713
1
1.47712
1.47102
1.47231
1.47283
1
1
1
1.47027
0.667319
1
1.47129
1
1
0.65034
1
1
1.47129
1.47084
1
1.47128
1.47687
1.4715
0.983745
1.47201
1
1.47188
1.47122
1.38382
1
1
1
1.4709
1.47134
1.47116
0.946509
1
1.47768
1.47133
1.47025
1
1.47164
1.47205
1.47107
1.4806
1
1.47235
1.46996
1.40734
1.47012
1.47982
1
1.46481
1.4663
1.47117
1.46885
1.471
0.674505
1.47066
1.46951
1
1.47107
1.47127
1.47157
1.47198
1
1.471
1.47115
1
1.47164
1.39183
1
1
1
1.46939
1.4777
1
1
1.25255
1
1.47106
1
1
1.47147
1.47324
1.47166
1.47112
1
1
1
1.32474
1
1.4719
1
1
1.46688
1.46953
1
1.47144
0.673324
1.47165
1.47288
0.742695
1
0.636476
1.40565
1.47606
1.47088
1.47038
0.628052
1.47068
1.47359
0.622228
0.642696
1
1.47013
1.47228
1
1
1.47121
1
1.47722
1
1.4092
1
1.2102
1.4717
1.47465
1.32474
1.42494
1.47132
1.47126
1.45259
1
0.679444
1.4697
1.47156
1.47497
1.00001
1
1
1.47803
1
1.4711
1.47139
0.756397
1
1.47193
0.999934
1
1.00003
1.00004
1.47216
1.47211
0.998534
1
1
1.47078
1.47369
1.47225
1.47461
1.47131
0.654762
1.4033
1
1.46836
1.4714
1.47168
1.46546
1
1.47136
1.45764
1.47244
1
1.47122
1.46995
0.851693
1.47129
1.47066
1
1.47178
0.822708
1.47136
0.862021
1.47124
1
1.47131
1.47469
1.4714
1.47164
1.47138
1.46986
1.47182
1.47131
1
0.930046
1.47109
1.4717
0.835421
1.47157
0.976721
1.28367
1.4712
1.47164
1.47031
1
1.47435
1.3041
1.46981
0.920302
1.47358
1.47995
1
0.864947
1
1.47348
1
1.32021
1
1.44556
0.878488
1
1.46922
1.46319
1
1.47073
1.4735
1.46793
1.46029
1.46506
1
1.47062
1
1
1
0.904559
1.4717
1.47185
1.47662
1.47149
1.47621
1.47769
1.47287
1.47205
0.909369
1.03019
1
1
1.47639
1.47164
1.47173
1.47131
1.00003
1.24224
1
1.47617
1.41831
1
1
0.760497
1.47116
1
1
0.667922
1.47149
1
1.47539
1.4719
1.47122
1.4525
1.4719
1
0.63458
1.1128
1.47232
1.47132
1
1.47034
1.47112
1.22484
1.00942
1.10294
1
1.4741
1.47127
1
1
0.621223
1
1
1.47148
1.47145
1.47402
1.4709
1.47107
1.47144
1.47247
1.47413
1.47137
1
0.996117
1.47144
1.4698
0.996971
1.47127
1.47114
0.628668
0.649054
1.47447
1.47941
1
1
1.00089
1.47205
1.47341
1.47137
1
1.47128
1
0.875652
1.47613
1.47224
1
1.20731
1.47307
1
1.46908
1
1.47227
1.31409
1.47074
1
1.47088
1.47763
0.625127
1.47099
1
1.46912
1.47468
1
0.636411
1.46702
1.39601
0.99776
1.45144
1.4712
1
0.997104
1.46734
0.998089
1.47107
1
1
1.47022
1
1.46843
1.47111
0.996636
1.36422
1
1.47108
1
1
1
1
1.47122
1
1
1.46332
1
1.4709
1
1.29278
1.47484
1.47161
1
1
0.997509
1
1.47088
1.47141
1.46987
1.47108
1.47056
1.47226
1.47119
1
1.47207
1.4733
1
1.47158
1.47196
1
1.47212
0.930897
1.057
1.47202
1.47181
1.4718
1
1.47102
1
1.47135
1.4716
1
1.47262
1
1
1
1
1.47189
0.632493
0.997925
1
1.47142
1.47584
1
1.47153
1
1.00542
0.654204
1.47142
0.999583
1
1.47086
0.998392
1.47107
1
0.99977
1
1.46938
1.47103
1.47267
1.47331
0.649255
1.47052
1.4694
1.47177
1.10786
1
1
1.1911
1.47101
0.631227
0.650693
1
1.47082
1.47162
1.47525
1
1
1.46954
1.47278
0.999882
1
1.34197
0.674559
1
1.07779
1.47004
1.47386
0.998237
1.47112
1.47888
1
0.999119
1
1.47429
1.4708
1.1863
1
1.44942
1
1.00197
1.47333
0.696055
1.47072
1.47132
0.997002
0.999915
1.41427
1
0.999703
1
1.47116
1
1.00001
0.658252
1.47144
1.00001
1
1
1
1.46817
1.26601
1
1
0.665052
1.47239
1.26648
1
1
1
1.44944
1.45076
1.47795
1
1
1.47802
1
1.47185
1.47134
1
1
1.47328
1.47145
1.44996
1
1
1.47314
1.47263
1
1
1
1.47214
1
1
1
1.47315
1.47599
1.47461
1
1.47012
1.00003
0.730277
1.47129
1.47114
1
1.47228
1.44629
1.47053
1
1
1.47415
1
1.24081
1.47234
1
0.623254
1
1.47469
1
1
1.46894
1
1
1
1.13852
1.47002
0.711217
1.00001
1.47271
1
1
1.47191
1
1.47449
1
1
1.47203
1.47174
1
1.00005
1
1
1
1
1
1
1.47862
1.47142
1
1.4754
0.663284
1.47913
1
1.47141
1.47954
1.47173
1.4646
1.47206
1
1
1.46864
1
1.28821
1.4761
1.47129
1
1.47324
1.4639
1
1.41753
1
1.47182
1.29676
1.46985
0.997548
1.45903
1.42676
1.47228
1.47272
1.03533
1.47158
1.4736
1
1.47163
1
1.47158
1
1
1
1
0.9966
1.47124
1.4714
1.37744
1
1.47317
1
1
1
0.666626
1
1.45891
1
1.42611
1.45672
1
1
1
1.4475
1.46729
1
1
1.4714
0.653436
1.08083
1
1.47558
1.47177
1.42748
1.45766
1.47167
1
1.4702
1
1
1
1
1.47118
1.47246
1
1.45976
1.05691
1.47162
1.43974
1
1
1.44063
1
1
0.652764
1.3208
1
1
1.47577
1
1.47388
1.42986
1
1.43135
0.650861
1.47133
1.47191
1.47208
1
0.650524
1
1
1
1.47208
1.37914
1
1.47484
1.4719
1
1.47166
1
1
1
1
1.47163
0.999403
1
1.47409
1
1
1.47262
1.47194
1
1.47642
1.08975
1.00002
1
1.47153
1
1.47109
1
1.01454
1.47199
1
1.4713
1
1
1.14494
1.47234
1
1
1
1
1
0.995495
0.658588
0.649572
1.02
1
1.01497
1
1.01935
1
1.47202
1
1.2921
1
1.47199
1
1
1
1.47196
1
1.3825
1.47062
1
1.24459
1.47053
1
1
1.47043
1.47188
1
1
1.05022
0.623211
1
1.47346
1
1
1
1
1.07582
1.471
1
1
1
0.646401
1
1.47211
1.47092
1.47886
1
1
1
1
1.23227
1.48031
1
1
1
1.47117
1.47169
1.05035
1
1
1
1.47292
1.47144
1
0.623998
1.4712
1.47219
1.47175
1.47291
1.47461
1
1
1.47532
1.4703
1.4714
0.650627
1.04044
1.47296
1
1
1
1
1
1.47148
0.649964
1
1
1.47111
1.20372
1
1.47754
1
1
1
0.656244
1
1
1.12024
1.47102
1.47159
1
1.47783
1.47341
1
1.07931
1
1.48084
1
1.47113
0.654258
1
1
1
1
1.47165
1.00006
1
1
1
1.45324
1
1
1
1
1.47109
0.658593
1.36667
1.47526
1
1.47167
1
1
1
0.99729
1
1.47354
1
0.80782
1
1
1.00004
1.4728
0.655788
1
1.47546
1
1.47107
1.4709
0.646077
1
1
1.45416
1
1
0.63186
1
1.46744
1
1.45055
0.999304
1.47091
1
1
1
1
1.46988
1
1
1.47096
1
1
1
1
1
1
1
1
1.30402
1
1.14985
1.4698
1
1
1
0.659889
1
1
1
1
1.47523
1.47124
1.05476
1
1
1.47245
1
1
1.47242
1
1.00002
1
1
1
1.00001
1.47143
0.786653
1.47165
1.47413
0.997048
1
1
1
1.27525
1
1
1.4732
1.47146
1
1
1
1
0.65403
1
1
1
1.2941
1
1.47149
1.47462
1
1.47301
1
1
1
1.24442
1
1.47244
1
1.47105
1
1
0.996065
1.47167
1
1
1
1
1
1.47392
1.00002
1
0.651328
1.47468
0.633871
1
1.47034
1
0.996127
1
1.47257
1.46938
1
1.47881
0.877713
1.47144
1.4794
1.00003
1
1
0.665247
1
1
1
1.47281
1.27197
1.47576
1
1
1
1
0.99681
1.46906
1
0.65487
1
1
1
1
1
1
1
1.47959
1.47135
1.47225
1
1
0.99698
1
0.976522
1
1
1
0.648751
0.970946
1
0.666777
0.658212
1
1.47197
1.47165
1
1.4675
1.47107
0.657213
1.30863
1
1
1
0.656203
1.47229
1
0.652333
1
1.47839
1.07486
1
1
1
1
1.47099
1.47489
1
1
1.47189
1
1
1.46809
1.47249
1
1.42422
1.471
1.46636
0.964729
1.4694
1.0085
0.654205
1.35827
1.47214
1
1
1
0.661281
1
0.659367
1.46996
0.961303
1.47154
0.944736
1
1.4715
1.21428
1
1
1.47002
1
1.19036
1.47337
1
1
1.46869
1.47696
0.661957
1.28629
0.99989
1
1.27843
1
1.47935
0.945315
1.48112
1.47671
1
1
1
1
1.4633
1
1
1.47194
0.999632
1.47193
1.37443
1.47305
0.650711
1
1
1
1
1.47169
1.00005
1.47158
1
1.47151
1.47346
1.05815
1.47311
1.14563
1.47175
1
1.31963
0.680108
1.46757
1.4713
1.36559
1.0767
1.47472
1.47158
1.47099
1.47042
1
0.910471
1.06814
1
1.47116
1.22164
1.47143
1.00003
1
1
0.687241
1.47657
1.47468
1.37989
1
1.17126
1
1.4689
1.46767
1
1.46948
1.4738
1
1
1
1.4687
1
1.17688
1.47609
1.31875
1
1.46911
1
1
1
1
1
1
1
1
1
1
0.685929
1
1.45627
0.687094
1.27582
0.998543
1.46905
1
1.24373
1.00001
1.29419
1.40328
1
1.00166
1.47486
0.906822
1
1.4669
1.46185
0.946171
1
1.47332
1.47208
1.47282
1
1.47096
1.47165
1.46944
1
1.20424
1
1.00006
1.47162
1
1.47156
1.06676
1.46958
1
1
1.47338
1.46939
0.671611
1
1.47203
1.35118
1.47024
1
1
1.4721
1.47128
0.998246
1
1.41406
0.997017
1.47154
1.00007
1
1
1
1
1.20532
1
1.36698
1.46974
1.35159
1.47338
1
1.00173
1
1
1.46508
1
1.46856
1
1
1
1
0.999999
1
1.05753
1.24237
1
1
0.685268
1
1.47628
0.700778
1.47535
1
1.23668
0.999751
1.4713
1.30072
0.652982
1.2531
1.00003
1.47151
1.46985
1
1.28204
1.46874
1.47045
0.998381
1.47787
1.45827
0.652958
1
1
0.997661
1
1.46463
1
0.666268
1.47422
1
1
1.41708
1
1.47037
1
1.47284
1
0.680682
1
1
1.47201
1.47918
1.4661
1
1.46766
1.47158
1.47614
1
1
1.45435
0.999999
0.74412
1
1
1
1.47215
1
1.47161
1.3032
1.47014
1
1.47164
0.999378
1
1
1
1
1
1
0.715416
1
1
1.47158
1
1.47564
1.47781
1
0.663742
0.656363
1
1.47315
1.07591
0.648912
0.632359
1
1.46956
1
1.46925
0.648574
1.00188
1
1
0.99951
1
1
1
0.99991
1.18332
1.4717
1
1
1.47233
1.27717
1
1.41985
1.469
1.46908
1.1863
1.4746
1
1.47025
1
1.47549
1
1.47638
1.47237
0.997015
1.47153
1.47885
1
1
1
1
1
0.918703
1.47569
1.00004
1.00003
0.69987
0.999981
0.644773
0.695334
1
1.47248
1.47063
1.47154
1
1.47165
1
0.651111
1
1
1.46836
0.839165
1.47373
1
1.47241
1
0.980947
1.47197
1
1
1
1.4728
1
1.47169
0.660112
1
1
1.27228
1
1
1.24674
1
1
1.4714
1
1
1
1
1
1.46941
1.47135
1
1.47073
1.46974
0.661811
1.21164
1.4679
1
1
1.42342
0.99899
1
1
1.47138
1.47434
1.29615
1
1.47092
0.672862
1.4499
0.999721
1
1.4719
1.00003
1.47031
1.40272
1.35765
1
1
1.47153
0.734002
0.67572
1
1.47272
1
1.47204
1
1.28201
1
1
1.47035
1.29833
0.657266
1
0.998476
1
1
1.02601
1.18856
1.47182
1
1.47454
1
1
1
1
1
1
1.0679
0.650882
1
1
1.0296
1
1
1
1
1
1.47048
1
1
1.47161
1.47202
1.33489
1
1
1
0.840382
1.4702
1.32133
1
1
1
1
1.47201
1
1
1
1.475
1
1
1.33614
1.49217
1.03009
0.762653
1.47013
1.32664
1.47352
1
1.23186
1
1
1
0.688825
1.00252
0.69093
1
0.685886
0.646015
1
0.658072
1
1
1
1.20731
1
1.4693
1.47063
1.00076
1.21584
1.39951
0.669787
0.776498
0.884457
1
1.47137
1.47062
1.47164
1.47117
1.40107
0.868616
1
1.40439
1
1.45884
1
1
0.996546
1.00901
1
1
1
1.47122
1
0.680349
1
1.4724
0.653041
1
1
1.47128
1
1.47109
0.999614
1
1
1.4718
1.41646
1
1.48739
1
1
1.01477
1
1.20442
1
1
0.665939
1
1
1.46884
0.999998
1.47119
1
1.00003
0.660313
1
1
0.680756
1.00089
1
1.47113
0.643636
1.47367
0.67319
1.4719
1
1
1
1
1
1
1
1
1
1
1
1.45135
1
1.47468
1.47083
0.653249
1
1
1
1
1
1
1.45786
1
1
0.655195
1
1
1.47141
1
1
1.17539
1.39105
0.660998
0.638514
0.728087
0.750861
1
0.996557
0.694978
1.00028
1.44118
0.996828
1
1
1.47314
1
1
1
0.754706
1.00001
1.16673
1
1
1.18179
1.47163
1
0.693119
1
1
1
0.996401
1.00001
1.47251
1.47118
1
0.667852
1
1.24941
0.657141
1
0.887332
1
0.99593
0.65408
1
1
1
0.995615
0.65597
1
0.689419
0.99842
1.24574
1.43222
0.663326
0.65793
1
0.990721
1
0.998578
1
1.47264
1.4714
1
1.01518
1.47233
1.47072
1
1
1.47132
1
1
1.00004
1
1.47147
1
1
1.01866
1
0.998562
0.721205
1
1
1
1
1
1.47624
1.02758
1.00005
1
1
1
1
1
1.00003
1
0.661398
1.09459
0.998608
1.48059
1.46784
1
1.01558
1.47219
1.41436
1
1
0.694971
1.47164
1
1.4707
1
1.47329
1.33486
0.655952
1
0.655772
1.42774
0.999671
1
0.650427
0.705381
1
1
1.39649
1
0.999998
0.647618
1
1
1
1.14876
1
0.656986
1.4719
1
1
1
1
1.47236
1
1
1.47707
1.42179
1
1
1
1.46776
0.667808
1
1.47169
1.47126
1
1.37456
0.999999
1.00003
1
1
1.43919
1.01589
1
0.656216
1.25068
1
1
0.99717
1
1
1.47101
1
1
1.00004
1
1.47381
1
1
1
1
1
1
1.00001
1.19797
1
1.46975
1
1
1.47291
1
1
1
1.47183
1.47445
1.04695
1
0.997579
1
1
1
1
1.47069
1
1
1.4727
0.649459
1
1
1
1
1
1
1.38032
1
1
1.47285
1.47242
1
1
1
1.47255
1.47452
1
0.999749
1.4673
1
1
1
1.00002
0.680138
1.02994
0.996152
0.996097
1
1
0.687825
1.47287
1
0.686869
1
1.46901
1.45137
0.658665
0.999382
1.47151
1.47338
1.47136
1
1
0.923439
1.42346
1.38338
0.704223
1
1
1
1.47344
1.47174
0.65323
0.997244
1
1.47164
0.682334
1
1.47112
0.651796
0.971959
1.0063
1
1.47487
1
1
1
1
1
1
1.0001
1.43946
1
1
1.47733
1
1
1
1.4715
1
0.65721
1
1
1
1.16176
1
1
1
1
1
0.78975
1
0.676676
1
1.4715
1.00006
0.854046
0.860778
1.00002
1.0047
1.24574
1
1
0.657676
1.47169
1.47145
1.47158
1
0.650064
0.673665
1
1.47199
1
1
1
1
1
1.00003
1
0.667432
1.29597
1
1
0.661661
0.982196
1.00001
1
1
1
0.658519
1
0.713493
1
1
1.46861
1
1
0.654797
1
1.4715
1
0.676967
1
0.660062
1
1.00802
1.4704
1.48558
1
1
1.47207
1
1
1.09226
0.996918
1
0.998194
1
1.47423
1
0.65964
1.00002
1.46881
0.998906
1
1
0.78029
1
0.999089
0.65929
1.46903
1.15958
1
1.00001
0.88741
1
1
1
0.776019
1
1
1
1.47119
1
0.655127
0.999999
1
1
1
0.642626
1.47187
1.42841
0.660503
1
1.46996
1
1
1.47095
1.47203
1.39504
0.649839
0.997737
0.99929
1
1.47123
1
1
1
1
1.4707
1.00004
1
1
1.4702
1
1
1.47094
0.639671
1
1
1
0.653079
1
0.999999
0.999999
0.998647
1
1
1
1
1.36107
1
1.4716
1.46975
1.47989
1.47123
1.47061
1.47154
1
1.46945
1
1.47156
1.47108
1
0.998861
0.654728
1.40031
0.999908
1
1
1
1
0.991873
1
1.07324
1
1
1
0.842733
1.47088
1.47194
1.46792
1.40411
0.999874
1
1.02313
1.47061
0.997957
1.05597
0.997232
0.649165
1
1.00003
1
1
1
1
1
1.47214
0.652644
1.4722
1.47153
0.995362
0.64446
1
1
1
1.4709
0.641969
1.41456
0.643975
1.47178
1.46664
0.664033
1.47257
1.02388
1
1.47485
0.803661
1
0.998764
0.660895
1
0.652342
1
1.47148
1.47048
0.750604
1
1.47168
0.651268
1
0.663889
1
1.47098
1
1
1.47212
1
0.836423
1
0.999673
0.655121
1.47491
0.999485
1
0.659225
1
1
1
1
1.24819
1
1.47259
1
1
1.47782
1
1
1.47239
1
0.659151
1
0.65932
1.00001
1
1
1
1
1.45044
1.26676
1.47186
1
1.4714
1.43668
0.656903
0.689981
1
1
1.47562
1
0.658355
1
0.984622
1
1
1.47201
1
1.46837
0.677004
1.47759
1
0.689875
1
1
1.46779
1.47002
1
1.00004
1
1.47859
1
1
0.662414
0.99943
0.690874
1
1
1
1.47343
1.47179
1.47066
1
1
0.687527
1
1.47526
1
1
1
1.44
1.4719
1.47087
0.644071
1.47342
1.47154
0.659528
1.4716
1.00004
0.672826
1.00557
1
1
1.47085
0.637478
1.29782
0.639175
1.47172
0.997325
0.656495
1.4728
1
1
1
1
1.47128
1.47162
0.665039
1
1.00002
0.648696
1.00004
1
0.687848
0.676281
1.32398
1.46916
0.998418
1.47112
1
1.46479
0.819694
0.654902
1.47149
1.484
1
1.47167
1
1
1.47269
1
1.35415
1.47127
1
1
1
1
1.47136
1.4662
1.47369
1
1
1.47093
1.4673
1.47388
1
1.47148
1
1
1
1
1
0.65977
0.83691
0.700499
1
1
1.47024
1
1
1.4734
0.650405
1
1.47202
1.46632
1.45288
0.655652
1
0.655964
1
1.00003
1.47038
1.23143
1.47106
1.42986
1
0.695382
1
1.47343
1.33345
0.659139
1
1
1
0.821754
1
1
1.47905
1
0.658872
1.47117
1
1
1
1
1
1.37822
1.10437
1
1.47015
1
1.4727
1
0.997307
1
1.47187
1.47165
1.47311
1.47568
0.999589
1.47155
1
1.47135
1.47272
1.39772
1
1
0.643341
1.47603
1
1
1.47702
1.47135
1.47047
1
1.47192
1
1
1.00003
1.47148
1.46821
1.12833
1.09979
1.47146
1.47127
0.697197
1
1
1
1
1.00001
1.16134
1
1
1.39059
0.687171
0.999974
1
1.47173
0.999887
0.999809
1.06754
1.43917
1.47257
0.90857
1
0.678294
1
0.992356
1.47106
1.47504
1.47795
0.999093
1
1
0.663908
1
1
1.47132
1.04842
1
1
1
1
1
1
1
0.999942
1.47161
1.00002
1
1
1
1
1.29777
1
1.21452
1
1
1.47168
1.47815
0.655071
0.998778
1
1
1
0.665949
1.47236
1.4712
1
1
1
1
1
1
1
1
1.47344
1.46428
0.65942
1.05036
0.665738
1
0.67416
1
1.47211
1.12955
1
1
0.691161
1
1.45336
0.831077
0.996878
0.645881
1
1
1.47004
1.00004
0.997452
0.636768
1.47335
1.47403
1
1
1
1
1.43993
1
1
1.47103
0.999014
1.47155
1.00008
1
1
0.633421
1
1
1.47128
0.653212
0.800317
0.655344
1.47174
0.999374
1
1.47263
0.668952
0.695458
1.0093
1
1
1.47193
1.00004
1.20706
1
1
1.47011
0.655246
1
1
1.00013
1.47096
1.00014
1.45556
1
1.00003
1
1
0.702765
1
0.791724
1.00002
1
1.47379
0.648606
1
0.776659
0.790339
1
1
1.47142
1
1
1
1.4726
1.47086
1.00005
1.45678
1.47232
0.785549
1.47123
1.44755
1
1
1.46648
0.999999
1
1
1
1
1.47872
1.47198
1
1
1
1.47194
1.0002
1
0.658302
0.721406
1
1.00003
1.17433
1
1
0.907423
0.648854
1
1
1
1.47766
1.43141
1.47128
1
1
1
1
0.672121
1
1.44974
1
1.46096
0.633939
1.47842
1
1
1
0.672556
1
1.47172
1.00003
1
0.658174
1.1708
1
0.999688
1.48516
0.65247
0.696945
1
1.47243
0.658872
0.655831
1
0.686522
0.999996
1
1
1
0.643932
1
1
1
1
1.47042
1
1.35912
0.643765
1
1
1
0.653618
1.47185
1
1
0.996871
1.4738
1
1.47222
1.472
1
1
0.722642
0.689552
1
1
0.65547
1.14536
1.2152
1
1
1.47656
0.997395
1
0.997919
1.47271
1
1
1
1
1
1
1.47005
1
1.16308
1.14181
0.685071
1.41415
1
1.47125
1.47181
1
1
1
0.906693
0.650962
1
1.22433
0.999684
1.4106
1
1
1
0.999999
1
1.00765
1.20493
1.47276
1.47217
1
1.47097
1
0.641983
1
0.997446
0.99979
1
0.62892
1
0.656413
1.00002
1.47511
1.47208
0.662436
1.47722
0.701662
0.995964
1.34726
0.638503
1.34037
1
1
0.998407
1
1
1
1.00006
1
0.648806
1
1
1
1
0.999589
1.47091
0.799882
1
1
1
1.03891
1
1
1
1.27379
0.771567
1
1
1
1.05103
1.47763
1
0.635108
1
1.47349
0.888693
0.663231
1
0.660361
1
1
1.44502
0.998204
1.42885
1
1.00904
1
1
1.47159
1
1
1
1
1.0876
1
1.47132
1.47233
1.47126
0.646074
1.47061
0.997061
1.38839
1
1
0.633343
1
1
0.650878
1.47603
1
1
0.999939
1
1
1
0.637677
0.645694
1
1.46814
1
1.21679
1.47117
0.65111
1.38345
1
1
0.701113
1
1
1.47142
1.47207
1.16844
1
1
1.00165
1.47067
0.640663
0.652501
1.47257
1.47148
1.32747
1.18378
1
0.873771
1
1
1
1.43941
1.47147
1.4693
1
1
1.47254
0.700796
1.42152
0.636134
1
0.661924
1
0.646454
1.47149
0.650624
1
0.983566
0.695258
1
1
1
0.849085
1.42901
1.47032
1.47182
1.47035
1
1
1.47297
1
1
1.46965
1
0.657355
1
0.639645
1
1.47239
1
1
1.01941
1.36158
1
0.998981
0.673615
1.47251
1.00001
0.647854
1.08688
1
1
1.35144
1.47239
1.47127
1
1.47051
1.11834
1
1.02456
1.47142
1
1
1
1
1.4715
1
0.677746
1.47023
0.647679
0.666925
0.82933
1.471
1.15277
1.46974
1
1.46855
0.997303
1.00003
1.47184
1.47288
1
1.47085
1
1.47162
1
1.47083
1
1.00004
0.999973
1.47373
0.661396
0.664411
0.997845
0.999999
1
1
0.626773
1
1.30734
1
0.662019
1
1.18067
1.4721
1.47795
1
1
1.00003
0.99949
1
1.47186
1.47224
1
1.18719
1.4735
0.844174
1.4715
1.00047
0.667624
1.09657
0.64442
1
1
1.0782
1.47064
1
1
1.04019
0.998513
1
0.677358
1
0.793668
1
1.4734
1
1
0.648181
1.10802
1.06669
0.998489
1.47125
1.4712
0.782395
0.998053
0.639608
0.672379
0.648672
1
1
1
0.999082
0.744221
0.651577
1
1.47155
0.999751
1.4714
1.47066
1.47192
1.47214
1
0.641365
1.47021
0.677051
1
1.47233
1.47097
0.996674
0.8206
1.47154
1.32818
1
0.659628
1
1
1.47306
1
1.02673
1.47315
1
0.695438
0.636263
1
1
0.666992
0.634328
1.47017
1.00004
1
0.659431
0.680764
1.47894
1.45127
1.43773
1.47008
1.12915
0.983825
1.19083
1.46832
1.36022
1
1.22883
1
0.621224
0.866283
1
0.631624
1.4719
1.02204
1.47325
1
1.47106
1.47146
1
1.47223
1.47126
0.659529
1.47425
1
1.48368
1
0.741787
0.66104
1.47099
1
1
1
0.662707
1.46974
1.47223
1
0.666915
1
1
0.659238
1.00004
0.642178
1.4709
1
0.809075
0.65473
1
1
1.26773
1
1
1
1.07879
0.661889
1
1.00001
1
1.4751
0.652354
1
1.472
0.635401
0.638248
1
1
1.46798
1
1.47485
1.00001
1.47172
0.658757
1
1
0.689625
0.8092
0.651331
1
1
1
1
1.47594
0.644402
1
0.655473
1
1.47895
1
1
0.909193
1
1
0.830844
0.999695
1.00005
1
0.65043
0.662405
1
1
1
1
0.775937
1.46997
1.47113
1
0.658863
0.639261
0.895645
0.663749
1
0.835177
1
0.629323
0.98699
1
1
0.65078
1
1.4702
1.46821
0.66295
1
1
1
1.47303
1
1.05001
0.829901
1.14634
0.656787
1.18536
0.659056
1
1
0.699302
0.912326
1
1.03943
1
1
0.665068
1
0.926727
1.04532
0.651639
1
1.38602
0.732804
0.881274
1
1
1
0.646637
1
0.66059
0.656287
1
0.86722
0.659178
1.07261
0.756298
0.621309
1.47117
1
1.47204
1.25135
0.724758
1.47164
0.647317
0.999068
1.4717
0.999999
1
1.47024
1
0.723993
1
1.07505
1
1
1.47143
1
0.77128
0.810018
1.47009
0.928632
1
0.772385
1.47197
1.47224
0.910852
1
1.4718
1.11969
0.851793
1
1.01764
1
0.661112
1.19413
0.754253
0.743891
1
1
0.66759
1.47201
0.955499
0.649682
0.660692
0.842929
1
1.0095
1.47188
1.47285
1
1
0.999999
0.663063
1.21434
0.999988
1.46936
1.42548
0.670638
1.00001
1.09229
0.876389
1.28157
1.42487
1
1.04259
1
1.00005
0.679835
0.842197
1
1
0.810524
0.678747
1.03797
1
1
0.620962
1.21279
1
1.45827
1
1.03317
1.25418
1
1.46283
1
1
1.47046
1
0.635997
1.47194
0.672184
1.12266
1
0.658912
0.99992
1
1.00003
1
0.790492
1.02534
0.654062
1.34775
1.47044
0.632126
1
1
1
1
1
0.964936
0.681337
1.05302
0.648832
0.660894
1.06247
1
0.999808
1.11679
1
1
0.637797
0.992578
1
1
1.1254
1
1.47219
1
1.4721
1.093
1.01788
0.66485
1
1
0.641176
1
1
1
1
1.46947
1.0452
0.998106
1
0.640256
1.0534
0.999999
1
1.30442
1
0.698127
1.47291
1
1.00001
1
1.4703
0.690529
0.869684
0.683344
1.35403
1.47545
1
1
1.47176
1
0.663669
1
1
1
1
1
0.786561
1
1.46975
1
1
1.15413
1.47194
0.671522
0.864662
1
1.4722
1
1
1
1
1
1.47128
1.47228
0.62959
1.47182
0.632122
1
1
1.47129
1
1.47337
1.00382
1.02648
1.07038
1.47085
1.074
1.3222
0.640829
1
0.645488
0.989741
1
1.47186
1
1
0.63985
1.47305
1
1.47229
1
1
1
1
1
1.00001
0.657908
1.47029
0.852794
1.47129
1
0.66112
0.659099
0.716914
1.46435
1.47099
0.966919
1
0.775095
1
1.16792
1
1.47087
0.633439
0.659703
0.849024
1
1.47149
1
1.06581
0.664673
1
1.47188
1.40222
0.998864
1
1.47183
0.656051
1.46917
1.47126
1.46806
0.649267
1.08919
1
1
0.644214
1
0.812863
0.845634
1
1.00002
1.47063
1
1.47784
1.07286
1
1.03319
1.47809
1
0.682974
1
0.776879
1
1
1.38613
1
0.798627
1
0.654144
1.037
0.949255
0.678324
1.47037
1.37487
1.47208
0.648653
0.697423
0.995924
0.999999
1
0.684197
1.44348
0.656967
0.99997
1
1.4717
1.47251
0.901256
1
0.658509
0.705753
1.30564
0.970954
0.633651
0.999999
0.647632
1.11101
0.65953
1
1.00006
0.79631
1.47032
1.4726
0.820611
0.999591
1
1
0.746797
1
0.660681
1
0.645647
0.6606
1
1
1.00003
0.654965
1.47134
1
1
1.00007
1.00004
0.649478
1.47185
1.47137
0.999999
0.654424
1.47232
1
1.09104
1
1
1.47472
0.657518
1
1
0.642066
0.729704
0.663183
0.634921
1
0.680887
0.997115
1.09621
0.636074
1
1
1.13174
1
1.41401
1
1
1.32073
0.66708
1
0.68966
1.13115
1.47155
1
1
0.660204
0.680215
0.63358
0.713698
0.6613
1.34901
0.999393
1
1
1
1
1.47109
0.638931
1
0.928394
0.999672
0.998886
0.999942
0.748001
1.1237
1
1.47142
1.47145
1
1
1.45279
1.00004
0.999999
1.47178
0.66372
1.47335
0.999999
0.637969
1.47145
1.00005
1
0.826308
1
0.654496
1
1.47069
1
1
1.47584
1
1
1.47621
1
1
1
1.47219
1
0.740937
0.715528
1
0.635334
1.47053
1
1
0.967191
1
1.47414
1.26799
1.37526
1
1
0.667945
1
0.637578
1.47283
1.4731
1.47128
1
1.47049
0.660997
1
0.651852
1.37577
1.42513
1.47077
1.47096
0.775973
0.641636
1
1.31615
1.47185
1.47329
1.47127
0.752509
1.16407
1
1.35718
0.737629
1
1.00002
1
1.00002
0.882856
1
1.47312
1
1
1
1
1
1
1.00006
1.4693
1
1.47471
1.34688
0.657712
1.47069
1.02006
1.22124
1
1.47135
1
0.652291
1
1
1
1
1.39996
1
0.648132
1.47081
0.630214
1.47212
1.37499
1.24193
1
1.08387
1.21561
0.995621
0.653846
0.7777
1.00002
0.999999
0.915086
1
0.619425
1.47156
0.6238
0.926264
0.865999
1
1
1
1.01263
1
1
0.644332
0.997074
1.4708
1
1.47179
1
0.659289
1
1
1.47143
1.47191
0.646291
1
1.47177
1
0.829048
0.630454
1.47242
1.42288
1
1.07428
1.47188
0.998674
1
1.18567
1.41091
1.47363
0.996017
1
0.999998
1.39847
1
1
1
1.47136
0.998505
1
1
1.47134
1
1
0.667538
1
1
1
1.47256
1
1
0.850716
1.14687
1.4302
0.753829
1
1.47169
1
1.16292
1
1.46955
0.997225
1.47115
1
0.661371
1
1.31203
1
1
1.43947
1.00001
1.47152
1
1.47475
0.690151
0.649548
1.47055
1
1.39618
1
1.47152
1
1
1.00005
1.47202
1.47446
1.11236
1.47199
0.995903
0.655076
1.47335
0.85768
1
1.4698
1
1.47157
1
1.47356
1.47203
0.996297
0.659206
1
1.47196
1
1.02659
1
1
0.997947
0.761547
1.4202
1
1.41919
1
0.861354
0.64189
1.47159
1.47106
0.674138
1
1.46942
1.46792
1.46913
0.694492
1.47048
0.646513
1.47084
1.47052
1
1
1.47034
1
1
1
1
0.65528
1
1
1.47137
1.47191
1
1.47152
1
1.46751
1.47273
1
1.38967
1
0.645077
1.47169
1.34629
1.13
0.644422
1.47178
1
1
0.644704
1
1
1.47156
1
1
0.806587
1
1.47132
1.00008
1.47027
0.642671
1.46958
1
1.47231
1.45251
0.890265
1
1.47486
0.76354
1.47051
1.32401
1.47057
1.47472
0.997161
1.47464
1.47159
1.47117
1.47313
1.00087
1
0.676199
1
1.47234
0.834116
1.43167
1
1.4618
1
1
1
1
1
1.46869
0.637849
0.642589
1.47182
1.47146
1
1
1
1
1
1.46824
1.43783
1.47155
1.01593
1
1
1
1.00003
1.47037
1.47163
1
1.46889
1.47086
0.654433
1.32513
1
1.47318
1.476
1.46806
0.998037
1.47193
1.46971
1
1.43224
1
1
1
1
1
1
1.47207
1.46992
1.43785
1.4711
0.644284
0.702857
1.47152
1.47153
1
0.624467
0.949454
1
1.22185
0.642879
1
0.999446
0.998241
0.663046
1
1.47211
1
1
1
1.47069
0.929347
1
1.4715
1.47076
1
1.47122
1
1
1.47125
1
0.654986
1
1.47543
1
1
0.65473
1
1.47088
1
0.640776
0.687446
1
1.45215
1
0.635179
0.876124
1
1.47156
1
1
1
1.47718
1
0.650982
1.06429
1.47222
1.47235
1.47145
1.04936
1.47332
1.47174
1
1.00002
1
1
1.00001
1.47087
1
0.999268
1.47768
1
0.642899
1
1.47127
1.21222
1.05581
1.21691
1.05808
1.47637
0.695842
1.47121
1
0.656262
0.99712
1.47155
0.930223
1.4713
1.47178
1.46156
1
1.47168
1.47094
1.47127
1
1.00004
1
1
1.47278
1.33061
1
1
0.644974
0.996432
1
1.47183
1
1.47158
1.47166
1.47616
0.908746
1.47156
1.47011
1.0089
1.22154
1.47319
1.47308
1
1.43438
0.822715
1.44936
0.990998
1.4727
1
1.4712
1.47128
1
0.66704
0.927185
0.714219
1
1.08148
0.996857
1.47141
1
1
0.995985
1
1.22241
1.45767
1
1
1.47054
1
1
1.3344
1.47266
1.45082
1.47417
1.47259
1
1.47232
0.745233
1.46946
1
0.999752
0.656773
1
1
0.770732
1
1.14405
1
1.47377
1
1.46185
1.28915
0.662608
1
1
1
1
1
1.47085
1.01142
1
1.4752
1
1.47144
1.47155
0.999999
1
0.966715
0.999835
0.669156