/*--------------------------------*- C++ -*----------------------------------*\
  =========                 |
  \\      /  F ield         | OpenFOAM: The Open Source CFD Toolbox
   \\    /   O peration     | Website:  https://openfoam.org
    \\  /    A nd           | Version:  12
     \\/     M anipulation  |
\*---------------------------------------------------------------------------*/
FoamFile
{
    format      ascii;
    class       volScalarField;
    location    "7.26";
    object      rho;
}
// * * * * * * * * * * * * * * * * * * * * * * * * * * * * * * * * * * * * * //

dimensions      [1 -3 0 0 0 0 0];

internalField   nonuniform List<scalar> 
22702
(
1.40001
1.40001
1.26623
1.40001
1.45391
1.40001
1.84413
1.40001
1.40001
1.01458
1.83808
1.84476
1.40001
1.84265
1.29467
1.40001
1.40001
1.40001
1.83851
1.40001
1.842
1.40001
1.84256
1.0398
1.83855
1.05656
1.40001
1.83956
1.02987
1.02829
1.40001
1.84155
1.40001
1.40001
1.40001
1.80927
1.84053
1.84235
1.40001
1.40001
1.07601
1.40001
1.61896
1.40001
1.83908
1.40001
1.40001
1.40001
1.40001
1.02978
1.40001
1.03564
1.40001
1.83777
1.40001
1.83651
1.40001
1.40001
1.40001
1.40001
1.03108
1.40001
1.40001
1.0216
1.40001
1.01271
1.40001
1.40001
1.40001
1.05395
1.40001
1.8421
1.66921
1.40001
1.84181
1.86206
1.01853
1.83905
1.0274
1.40001
1.83669
1.03066
1.84364
1.84424
1.40001
1.40001
1.40001
1.40001
1.31839
1.04626
1.8403
1.40001
1.40001
1.00597
1.40001
1.84176
1.0097
1.40001
1.40001
1.40001
1.40001
1.61812
1.83729
1.06146
1.40001
1.40001
1.50766
1.40001
1.03265
1.40001
1.83834
1.83982
1.40001
1.40001
1.00325
0.996565
1.02959
1.40001
1.40001
1.40001
1.40001
1.40001
1.30954
1.40001
1.77847
1.44058
1.83717
1.40001
1.83746
1.83858
1.84184
1.83841
1.40001
1.06614
1.40001
1.01133
1.40001
1.40001
1.40001
1.40001
1.83931
1.40001
1.40001
1.40001
1.40001
1.84161
1.40001
1.4275
1.40001
1.40001
1.40001
1.40001
1.02735
1.40001
1.41095
1.40001
1.02279
1.40001
1.40001
1.40001
1.83967
1.40001
1.84275
0.99061
1.0509
1.84086
1.84085
1.40001
1.47017
1.64929
1.40001
1.83561
1.02781
1.81021
1.40001
1.40001
1.40001
1.40001
1.84303
1.77099
1.40001
1.83724
1.01604
1.83557
1.40001
1.01472
1.40001
1.02637
1.05478
1.39977
1.40001
1.40001
1.84045
1.40001
1.40001
1.84159
1.40001
1.84181
1.83699
1.02983
1.40001
1.40001
1.02055
1.84169
1.40001
1.40001
1.40001
1.84165
1.40001
1.03607
1.40001
1.40001
1.84191
1.84175
1.83981
1.40001
1.40005
1.40001
1.40001
1.40001
1.84144
1.40001
1.01381
1.85448
1.84191
1.84304
1.40001
1.40001
1.40001
1.01771
1.84089
1.61543
1.40001
1.84345
1.03005
1.03383
1.84364
1.8415
1.40001
1.85035
1.06665
1.7906
1.40001
1.40001
1.40001
1.40001
1.84097
1.40001
1.66202
1.4412
1.40001
1.40001
1.84191
1.00051
1.17666
1.40001
1.84366
1.05047
1.84747
1.40001
1.40001
1.40001
1.40001
1.40001
1.40001
1.40001
1.03617
1.17998
1.03752
1.84167
1.40001
1.40001
1.40001
1.40001
1.79334
1.40001
1.03094
1.40001
1.00557
1.02094
1.84247
1.03042
1.84241
1.40001
1.40001
1.40001
1.39746
1.0163
1.0576
1.4
1.40001
1.00949
1.40001
1.83912
1.06346
1.40001
1.40001
1.83634
0.9966
1.40001
1.84399
1.03913
1.84205
1.40001
1.00948
1.39765
1.40001
1.40001
1.40001
1.03814
1.40001
1.40001
1.40001
1.40002
1.40774
1.67267
1.40001
1.05307
1.40001
1.40001
1.40001
1.40001
1.40001
1.40001
1.40001
1.83722
1.40001
1.84034
1.40001
1.40001
1.40001
1.04942
1.40001
1.8414
1.02455
1.40001
1.75244
1.40001
1.40001
1.83865
1.40001
1.40001
1.40001
1.83138
1.40001
1.40001
1.836
1.83782
1.40001
1.48857
1.40001
1.40001
1.00598
1.40001
1.40001
1.40001
0.9993
1.40001
1.40001
1.40001
1.40001
1.00981
1.40001
1.40001
1.40001
1.40001
1.40001
1.05667
1.40007
1.8423
1.40001
1.4
1.84119
1.84059
1.40001
1.40001
1.03948
1.19572
1.84051
1.40001
1.40001
1.40001
1.84187
1.06009
1.40001
1.84297
1.40001
1.40001
1.0858
1.09047
1.40001
1.01235
1.03815
1.40001
1.40001
1.40001
1.40001
1.40001
1.40001
1.40001
1.83722
1.51202
1.81142
1.04828
1.29529
1.83908
1.40001
1.84164
1.84095
1.03456
1.15642
1.40001
1.0518
1.40001
1.84886
1.40001
1.40001
1.40001
1.40001
1.84145
1.40001
1.40001
1.40001
1.40001
1.40001
1.40001
1.40001
1.56662
1.84152
1.40001
1.84162
1.40001
1.40001
1.025
1.40001
1.40001
1.40001
1.40001
1.84183
1.73841
1.40001
1.40001
1.0188
1.84247
1.84195
1.40001
1.84197
1.84203
1.84175
1.40001
1.21945
1.40001
1.84181
1.37916
1.84168
1.40001
1.04423
1.39879
1.83668
1.40001
1.40001
1.40001
1.40001
1.03745
1.84196
1.80151
1.40001
1.83943
1.8419
1.83973
1.40001
1.60451
1.84128
1.40001
1.40001
1.70849
1.46274
1.84196
1.3092
1.84196
1.40001
1.84193
1.84169
1.84182
1.84267
1.40001
1.83961
1.30103
1.28242
1.40001
1.4
1.40001
1.40001
1.84263
1.40001
1.40001
1.40001
1.40001
1.40001
1.83739
1.40001
1.40001
1.39599
1.84201
1.77989
1.40001
1.76411
1.40005
1.40001
1.40001
1.84209
1.40001
1.39715
1.40453
1.40001
1.84155
1.40001
1.84068
1.40001
1.40001
1.72818
1.40001
1.8412
1.40003
1.40001
1.84272
1.40001
1.84192
1.40001
1.40001
1.40001
1.84104
1.40001
1.84129
1.40001
1.84119
1.8358
1.84196
1.84128
1.40001
1.83738
1.83213
1.40001
1.01157
1.81439
1.71937
1.40001
1.84156
1.40001
1.00552
1.02944
1.40001
1.40001
1.40001
1.40001
1.40001
1.01961
1.40001
1.84159
1.5039
1.84262
1.40001
1.40001
1.40001
1.40001
1.40001
1.84181
1.40001
1.84282
1.6643
1.15401
1.40001
1.40002
1.53071
1.51454
1.40001
1.40001
1.56143
1.40001
1.02286
1.84209
1.8419
1.40001
1.40001
1.40001
1.83667
1.40001
1.40003
1.84529
1.84218
1.34821
1.40001
1.40001
1.03052
1.80221
1.40001
1.40001
1.40001
1.40001
1.40001
1.84198
1.83731
1.40001
1.84355
1.84201
1.84211
1.40001
1.40001
1.40001
1.40001
1.06694
1.84047
1.40001
1.40001
1.80191
1.84125
1.40001
1.81474
1.84054
1.40001
1.40001
1.40001
1.40001
1.40001
1.84143
1.40001
1.40001
1.40001
1.40001
1.83873
1.40001
1.84083
1.06733
1.40001
1.00777
1.40001
1.40001
1.40001
1.39696
1.02002
1.39907
1.40001
1.40001
1.40001
1.45857
1.40001
1.40001
1.2609
1.40001
1.40001
1.40001
1.40001
1.40001
1.40001
1.40001
1.4
1.32876
1.4
1.40001
1.39755
1.40001
1.0342
1.40001
1.40001
1.40001
1.40001
1.73116
1.40001
1.40001
1.40001
1.40001
1.02214
1.40001
1.40001
1.81591
1.83968
1.4
1.40001
1.40001
1.28647
1.40001
1.40001
1.40001
1.40001
1.40001
1.40001
1.34326
1.40839
1.84157
1.40001
1.40001
1.40001
1.84005
1.28526
1.40001
1.40001
1.40001
1.84182
1.83742
1.40001
1.40001
1.40001
1.40001
1.40001
1.40001
1.40001
1.40001
1.40001
1.04532
1.40001
1.40001
1.83871
1.03981
1.40001
1.83901
1.40001
1.02455
1.40001
1.40001
1.04239
1.40001
1.40001
1.40001
1.40001
1.40001
1.40001
1.40001
1.83375
1.84164
1.40001
1.40001
1.40001
1.40001
1.80246
1.40001
1.53918
1.01035
1.40001
1.40001
1.40001
1.40001
1.40001
1.40001
1.40001
1.43144
1.40001
1.40001
1.64017
1.40001
1.40001
1.40001
1.76586
1.40001
1.40001
1.40001
1.40001
1.06709
1.40001
1.40001
1.0208
1.06213
1.40001
1.40001
1.84183
1.40001
1.41574
1.40001
1.40001
1.40001
1.70968
1.02329
1.40001
1.01994
1.40001
1.17058
1.40001
1.40001
1.40001
1.84244
1.40001
1.40001
1.8419
1.40001
1.40001
1.40001
1.84202
1.40001
1.40001
1.84203
1.40001
1.40001
1.03949
1.40001
1.54114
1.40001
1.40001
1.83917
1.83855
1.69317
1.79674
1.40001
1.04945
1.40001
1.40001
1.82154
1.40001
1.0435
1.40001
1.40001
1.40001
1.84182
1.40001
1.40001
1.40001
1.40001
1.66486
1.40001
1.83085
1.84134
1.01349
1.40001
1.40001
1.05342
1.04306
1.40001
1.40001
1.40001
1.71723
1.73577
1.40001
1.40001
1.40001
1.40001
1.40001
1.40001
1.40001
1.58387
1.84172
1.40466
1.40001
1.83693
1.06233
1.40001
1.40001
1.40001
1.64341
1.40001
1.48757
1.40001
1.80296
1.83975
1.40001
1.0426
1.40001
1.83557
1.40001
1.40001
1.84097
1.81375
1.40001
1.84058
1.40001
0.996281
1.40001
1.40001
1.40001
1.83085
1.83351
1.78795
1.40001
1.84282
1.8416
1.40001
1.84196
1.40001
1.83967
1.40001
1.05525
1.37686
1.051
1.40001
1.40001
1.40001
1.40001
1.40001
1.84157
1.40001
1.8415
1.40001
1.40001
1.40001
1.81947
1.40001
1.03505
1.84183
1.40001
1.03232
1.04591
1.04052
1.40001
1.61428
1.43246
1.84317
1.84157
1.40001
1.4
1.40001
1.40001
1.84209
1.40001
1.40001
1.84204
1.84164
1.40001
1.55287
1.40015
1.40001
1.39672
1.83732
1.2441
1.40001
1.21464
1.02455
1.02347
1.3289
1.84148
1.83503
1.48725
1.84229
1.84154
1.40001
1.40001
1.83378
1.84006
1.84196
1.83768
1.40001
1.84181
1.03554
1.84008
1.84257
1.84263
1.84636
1.26444
1.2843
1.32124
1.84202
1.35358
1.84309
1.40001
1.40001
1.84335
1.84167
1.40001
1.04665
1.84192
1.84184
1.40001
1.8417
1.84205
1.40001
1.84198
1.02432
1.8413
1.83687
1.83927
1.84627
1.40001
1.40001
1.40001
1.8418
1.68579
1.09177
1.84199
1.03955
1.8419
1.40001
1.40001
1.40001
1.40001
1.83855
1.84231
1.40001
1.40001
1.8417
1.03932
1.84169
1.02743
1.40001
1.83865
1.40001
1.01678
1.8435
1.11838
1.40001
1.84171
1.84484
1.84273
1.40001
1.40001
1.59488
1.84397
1.02079
1.84149
1.40001
1.84009
1.26897
1.84215
1.03579
1.40001
1.84004
1.07174
1.84335
1.02354
1.40001
1.84196
1.40001
1.8423
1.40001
1.65447
1.8252
1.74585
0.996385
1.40001
1.84139
1.40001
1.84149
1.40001
1.84181
1.40001
1.40001
1.84224
1.36395
1.84414
0.990433
1.80253
1.40001
1.71217
1.40001
1.84195
1.84165
1.84234
1.40001
1.79733
1.84123
1.80911
1.66952
1.8408
1.40001
1.68847
1.40001
1.84181
1.40001
1.46474
1.40001
1.80897
1.40001
1.84006
1.82035
1.82094
1.40001
1.83756
1.02931
1.40001
1.0611
1.40001
1.40001
1.40001
1.83724
1.40001
1.84219
1.40001
1.40001
1.40001
1.84202
1.82934
1.77066
1.83944
1.84058
1.01007
1.84741
1.84083
1.40001
1.79143
1.84171
1.82245
1.40001
1.83558
1.83813
1.40001
1.84627
1.84111
1.84202
1.84297
1.40001
1.40001
1.40001
1.84064
1.0471
1.40001
1.84164
1.40001
1.40001
1.02735
1.40001
1.40001
1.84167
1.84117
1.40001
1.84146
1.84657
1.84154
1.38132
1.84223
1.40001
1.8421
1.84148
1.76271
1.40001
1.40001
1.40001
1.84134
1.84149
1.84143
1.34381
1.40001
1.84652
1.84153
1.84061
1.40001
1.84177
1.84199
1.84142
1.84916
1.40001
1.8425
1.84104
1.78272
1.84035
1.84863
1.40001
1.83487
1.8371
1.84143
1.83881
1.8412
1.05477
1.84098
1.83991
1.40001
1.84126
1.84152
1.84178
1.84217
1.40001
1.84125
1.84133
1.40001
1.8419
1.76997
1.40001
1.40001
1.40001
1.83961
1.84666
1.40001
1.40001
1.64155
1.40001
1.84134
1.40001
1.40001
1.84179
1.84333
1.84186
1.84147
1.40001
1.40001
1.40001
1.70684
1.40001
1.84215
1.40001
1.40001
1.83383
1.83666
1.40001
1.84178
1.05396
1.84193
1.84294
1.1299
1.40001
1.01203
1.78078
1.84624
1.84136
1.84086
1.00284
1.84079
1.8436
0.995948
1.01912
1.40001
1.8406
1.84249
1.40001
1.40001
1.84145
1.40001
1.84784
1.40001
1.78576
1.40001
1.60175
1.84198
1.84461
1.70579
1.8015
1.83832
1.84147
1.82302
1.40001
1.05994
1.84044
1.8418
1.84469
1.40002
1.40001
1.40001
1.84631
1.40001
1.84139
1.84162
1.14492
1.40001
1.84212
1.39994
1.40001
1.40004
1.40004
1.84235
1.84216
1.39854
1.40001
1.40001
1.8411
1.84371
1.84244
1.84514
1.84155
1.03278
1.78185
1.40001
1.83892
1.84164
1.84191
1.83537
1.40001
1.84153
1.8293
1.84258
1.40001
1.84098
1.84023
1.24631
1.84149
1.84041
1.40001
1.84193
1.2158
1.84159
1.25697
1.84148
1.40001
1.84153
1.84043
1.8416
1.84179
1.84155
1.83875
1.84199
1.84021
1.40001
1.32715
1.84135
1.84191
1.22911
1.84186
1.37432
1.67127
1.84145
1.84148
1.84015
1.40001
1.84431
1.69031
1.84032
1.31706
1.84362
1.84744
1.40001
1.26
1.40001
1.84157
1.40001
1.70442
1.40001
1.81753
1.27414
1.40001
1.84018
1.83338
1.40001
1.84067
1.84347
1.83874
1.83265
1.8363
1.40001
1.83768
1.40001
1.40001
1.40001
1.301
1.84188
1.84225
1.84708
1.8418
1.84598
1.84709
1.84103
1.84218
1.30603
1.42988
1.40001
1.40001
1.84055
1.84188
1.84197
1.84157
1.40003
1.63329
1.40001
1.84555
1.79419
1.40001
1.40001
1.14927
1.84143
1.40001
1.40001
1.03744
1.84183
1.40001
1.84233
1.8421
1.83802
1.82472
1.84211
1.40001
1.00972
1.5101
1.84228
1.84154
1.40001
1.84071
1.84149
1.61643
1.40948
1.50109
1.40001
1.84245
1.84156
1.40001
1.40001
0.994954
1.40001
1.40001
1.8417
1.84178
1.84422
1.84124
1.84136
1.84068
1.84253
1.8445
1.84165
1.40001
1.39612
1.84162
1.84018
1.39698
1.84164
1.84144
1.00311
1.0259
1.84454
1.85061
1.40001
1.40001
1.4009
1.84223
1.84352
1.8417
1.40001
1.84167
1.40001
1.27114
1.8456
1.84343
1.40001
1.59922
1.84308
1.40001
1.83824
1.40001
1.84242
1.69915
1.84071
1.40001
1.84134
1.84772
0.999275
1.84125
1.40001
1.83956
1.84249
1.40001
1.0119
1.83804
1.77317
1.39777
1.82482
1.84146
1.40001
1.39485
1.83715
1.39812
1.84135
1.40001
1.40001
1.84076
1.40001
1.8389
1.84147
1.39664
1.74549
1.40001
1.8414
1.40001
1.40001
1.40001
1.40001
1.84146
1.40001
1.40001
1.8344
1.40001
1.84123
1.40001
1.67907
1.84522
1.84206
1.40001
1.40001
1.3952
1.40001
1.84101
1.84167
1.84002
1.84128
1.8406
1.84233
1.84135
1.40001
1.84225
1.84344
1.40001
1.84168
1.84213
1.40001
1.84249
1.32802
1.45626
1.84222
1.84198
1.84193
1.40001
1.84121
1.40001
1.84176
1.8418
1.40001
1.84276
1.40001
1.40001
1.40001
1.40001
1.84206
1.00757
1.39793
1.40001
1.84174
1.84534
1.40001
1.84175
1.40001
1.40542
1.02666
1.84158
1.39959
1.40001
1.84128
1.3984
1.84139
1.40001
1.39977
1.40001
1.83992
1.84127
1.84288
1.84264
1.0202
1.84083
1.84012
1.84185
1.50555
1.40001
1.40001
1.58359
1.84132
1.00614
1.02306
1.40001
1.84098
1.84189
1.84546
1.40001
1.40001
1.84014
1.84293
1.39989
1.40001
1.72358
1.05538
1.40001
1.47632
1.8371
1.84498
1.39824
1.8414
1.84746
1.40001
1.39913
1.40001
1.84455
1.8381
1.58108
1.40001
1.82083
1.40001
1.40203
1.84353
1.07861
1.84103
1.84151
1.39701
1.39992
1.7897
1.40001
1.39971
1.40001
1.84136
1.40001
1.40002
1.03691
1.84157
1.40001
1.40001
1.40001
1.40001
1.8385
1.65415
1.40001
1.40001
1.04383
1.84256
1.65458
1.40001
1.40001
1.40001
1.82193
1.82373
1.84577
1.40001
1.40001
1.84711
1.40001
1.842
1.84154
1.40001
1.40001
1.84327
1.84158
1.82126
1.40001
1.40001
1.84314
1.84271
1.40001
1.40001
1.40001
1.84229
1.40001
1.40001
1.40001
1.84306
1.84508
1.84459
1.40001
1.83966
1.40003
1.11652
1.84155
1.84139
1.40001
1.84175
1.82022
1.83725
1.40001
1.40001
1.8441
1.40001
1.63095
1.8423
1.40001
0.997156
1.40001
1.84451
1.40001
1.40001
1.83984
1.40001
1.40001
1.40001
1.53573
1.84033
1.09565
1.40002
1.84275
1.40001
1.40001
1.84187
1.40001
1.84442
1.40001
1.40001
1.8422
1.84192
1.40001
1.40006
1.40001
1.40001
1.40001
1.40001
1.40001
1.40001
1.84873
1.84156
1.40001
1.84253
1.03993
1.84893
1.40001
1.84167
1.84937
1.84196
1.83648
1.83846
1.40001
1.40001
1.83907
1.40001
1.67178
1.84584
1.84162
1.40001
1.84325
1.8362
1.40001
1.79271
1.40001
1.84197
1.68276
1.83997
1.39755
1.82859
1.79974
1.84241
1.84286
1.43495
1.84171
1.84366
1.40001
1.84188
1.40001
1.84183
1.40001
1.40001
1.40001
1.40001
1.39663
1.84153
1.84167
1.7569
1.40001
1.8431
1.40001
1.40001
1.40001
1.04618
1.40001
1.83038
1.40001
1.80095
1.8292
1.40001
1.40001
1.40001
1.82063
1.83436
1.40001
1.40001
1.84186
1.03018
1.47745
1.40001
1.84539
1.842
1.80218
1.82924
1.8419
1.40001
1.84053
1.40001
1.40001
1.40001
1.40001
1.8414
1.84262
1.40001
1.82996
1.45396
1.84173
1.81322
1.40001
1.40001
1.81401
1.40001
1.40001
1.02512
1.70516
1.40001
1.40001
1.84542
1.40001
1.84389
1.80425
1.40001
1.80569
1.02596
1.84137
1.84209
1.8422
1.40001
1.02084
1.40001
1.40001
1.40001
1.84224
1.75835
1.40001
1.84584
1.84206
1.40001
1.84178
1.40001
1.40001
1.40001
1.40001
1.8418
1.39941
1.40001
1.84399
1.40001
1.40001
1.84189
1.8421
1.40001
1.84551
1.48819
1.40003
1.40001
1.8417
1.40001
1.8413
1.40001
1.41458
1.84224
1.40001
1.84157
1.40001
1.40001
1.53946
1.84234
1.40001
1.40001
1.40001
1.40001
1.40001
1.3955
1.03603
1.02675
1.41995
1.40001
1.41254
1.40001
1.41691
1.40001
1.84226
1.40001
1.67805
1.40001
1.84216
1.40001
1.40001
1.40001
1.84211
1.40001
1.76305
1.84114
1.40001
1.63409
1.84088
1.40001
1.40001
1.83775
1.84209
1.40001
1.40001
1.44739
0.996999
1.40001
1.84346
1.40001
1.40001
1.40001
1.40001
1.47454
1.84129
1.40001
1.40001
1.40001
1.01891
1.40001
1.84227
1.84125
1.84801
1.40001
1.40001
1.40001
1.40001
1.62371
1.84866
1.40001
1.40001
1.40001
1.84213
1.84198
1.44757
1.40001
1.40001
1.40001
1.84295
1.84177
1.40001
0.997934
1.84146
1.84236
1.84189
1.84276
1.84429
1.40001
1.40001
1.84626
1.8406
1.84168
1.0215
1.43995
1.843
1.40001
1.40001
1.40001
1.40001
1.40001
1.84168
1.02372
1.40001
1.40001
1.84141
1.59568
1.40001
1.84692
1.40001
1.40001
1.40001
1.02988
1.40001
1.40001
1.51717
1.84134
1.8418
1.40001
1.8457
1.84405
1.40001
1.47596
1.40001
1.85116
1.40001
1.8413
1.03142
1.40001
1.40001
1.40001
1.40001
1.84181
1.40006
1.40001
1.40001
1.40001
1.82796
1.40001
1.40001
1.40001
1.40001
1.84155
1.03397
1.74872
1.84509
1.40001
1.84199
1.40001
1.40001
1.40001
1.39729
1.40001
1.84336
1.40001
1.20002
1.40001
1.40001
1.40004
1.84296
1.02897
1.40001
1.84514
1.40001
1.8415
1.84114
1.01844
1.40001
1.40001
1.82433
1.40001
1.40001
0.999269
1.40001
1.83827
1.40001
1.82292
1.39931
1.84133
1.40001
1.40001
1.40001
1.40001
1.83774
1.40001
1.40001
1.84125
1.40001
1.40001
1.40001
1.40001
1.40001
1.40001
1.40001
1.40001
1.68954
1.40001
1.54559
1.84019
1.40001
1.40001
1.40001
1.0368
1.40001
1.40001
1.40001
1.40001
1.84538
1.84162
1.45185
1.40001
1.40001
1.84251
1.40001
1.40001
1.84232
1.40001
1.40002
1.40001
1.40001
1.40001
1.40002
1.84182
1.17754
1.84194
1.84401
1.39706
1.40001
1.40001
1.40001
1.66276
1.40001
1.40001
1.84346
1.84163
1.40001
1.40001
1.40001
1.40001
1.02888
1.40001
1.40001
1.40001
1.6814
1.40001
1.84175
1.84458
1.40001
1.8431
1.40001
1.40001
1.40001
1.63391
1.40001
1.83944
1.40001
1.8414
1.40001
1.40001
1.39607
1.84197
1.40001
1.40001
1.40001
1.40001
1.40001
1.84377
1.40003
1.40001
1.02215
1.84462
1.00307
1.40001
1.84036
1.40001
1.39614
1.40001
1.84278
1.83942
1.40001
1.84678
1.27292
1.84174
1.84819
1.40004
1.40001
1.40001
1.04136
1.40001
1.40001
1.40001
1.84296
1.65981
1.84605
1.40001
1.40001
1.40001
1.40001
1.39681
1.83938
1.40001
1.03212
1.40001
1.40001
1.40001
1.40001
1.40001
1.40001
1.40001
1.84844
1.84141
1.8424
1.40001
1.40001
1.39698
1.40001
1.37411
1.40001
1.40001
1.40001
1.02485
1.36849
1.40001
1.04587
1.03387
1.40001
1.84212
1.8419
1.40001
1.8383
1.84145
1.03403
1.69378
1.40001
1.40001
1.40001
1.03365
1.84241
1.40001
1.0291
1.40001
1.84796
1.47159
1.40001
1.40001
1.40001
1.40001
1.84125
1.84249
1.40001
1.40001
1.84205
1.40001
1.40001
1.83641
1.84263
1.40001
1.79706
1.84124
1.83528
1.3623
1.83964
1.40848
1.03069
1.73945
1.84239
1.40001
1.40001
1.40001
1.03897
1.40001
1.0365
1.84022
1.35878
1.84182
1.34203
1.40001
1.84179
1.60558
1.40001
1.40001
1.84041
1.40001
1.58288
1.84341
1.40001
1.40001
1.83784
1.8473
1.03942
1.67343
1.3999
1.40001
1.66759
1.40001
1.84972
1.34267
1.84925
1.84535
1.40001
1.40001
1.40001
1.40001
1.83643
1.40001
1.40001
1.84196
1.39964
1.84206
1.75477
1.84291
1.02301
1.40001
1.40001
1.40001
1.40001
1.84187
1.40005
1.84181
1.40001
1.84161
1.84378
1.45723
1.84323
1.54008
1.84152
1.40001
1.70388
1.0607
1.83749
1.84158
1.74515
1.47339
1.84278
1.84187
1.84133
1.84066
1.40001
1.3066
1.4674
1.40001
1.84146
1.6136
1.84169
1.40004
1.40001
1.40001
1.06914
1.84635
1.84314
1.75902
1.40001
1.56465
1.40001
1.84021
1.83835
1.40001
1.83987
1.8427
1.40001
1.40001
1.40001
1.83906
1.40001
1.57205
1.84629
1.70316
1.40001
1.83961
1.40001
1.40001
1.40001
1.40001
1.40001
1.40001
1.40001
1.40001
1.40001
1.40001
1.06771
1.40001
1.82896
1.06881
1.66328
1.39855
1.83991
1.40001
1.6333
1.40002
1.68035
1.78199
1.40001
1.40168
1.84543
1.30293
1.40001
1.83768
1.8343
1.34352
1.40001
1.84302
1.84218
1.84293
1.40001
1.84119
1.84152
1.84002
1.40001
1.59605
1.40001
1.40006
1.84183
1.40001
1.84159
1.46577
1.84009
1.40001
1.40001
1.84352
1.84073
1.0517
1.40001
1.8421
1.7329
1.84057
1.40001
1.40001
1.84056
1.84192
1.39825
1.40001
1.79159
1.39702
1.84167
1.40008
1.40001
1.40001
1.40001
1.40001
1.59705
1.40001
1.74677
1.84024
1.7333
1.84339
1.40001
1.40195
1.40001
1.40001
1.83429
1.40001
1.8393
1.40001
1.40001
1.40001
1.40001
1.4
1.40001
1.45701
1.6321
1.40001
1.40001
1.0641
1.40001
1.84589
1.08422
1.8453
1.40001
1.62616
1.39976
1.84099
1.68642
1.02724
1.64207
1.40004
1.84181
1.84031
1.40001
1.66908
1.83935
1.84065
1.39839
1.84579
1.83
1.03077
1.40001
1.40001
1.3977
1.40001
1.83805
1.40001
1.04338
1.84395
1.40001
1.40001
1.79498
1.40001
1.84079
1.40001
1.8428
1.40001
1.06181
1.40001
1.40001
1.84256
1.84789
1.83627
1.40001
1.83852
1.84171
1.84672
1.40001
1.40001
1.82401
1.4
1.12902
1.40001
1.40001
1.40001
1.84181
1.40001
1.84184
1.68882
1.84071
1.40001
1.84191
1.39938
1.40001
1.40001
1.40001
1.40001
1.40001
1.40001
1.10002
1.40001
1.40001
1.84188
1.40001
1.84589
1.84691
1.40001
1.04177
1.03292
1.40001
1.84326
1.47489
1.02279
1.00156
1.40001
1.83996
1.40001
1.83994
1.02613
1.40186
1.40001
1.40001
1.39952
1.40001
1.40001
1.40001
1.39992
1.57619
1.84182
1.40001
1.40001
1.84255
1.66467
1.40001
1.79758
1.83947
1.83914
1.57895
1.84501
1.40001
1.8406
1.40001
1.84657
1.40001
1.84587
1.84253
1.39702
1.84158
1.84793
1.40001
1.40001
1.40001
1.40001
1.40001
1.3154
1.8432
1.40005
1.40003
1.0799
1.39999
1.02027
1.07844
1.40001
1.84236
1.84075
1.84177
1.40001
1.84186
1.40001
1.02536
1.40001
1.40001
1.8388
1.23309
1.84378
1.40001
1.84264
1.40001
1.37858
1.84198
1.40001
1.40001
1.40001
1.84248
1.40001
1.84176
1.03717
1.40001
1.40001
1.66005
1.40001
1.40001
1.63616
1.40001
1.40001
1.84144
1.40001
1.40001
1.40001
1.40001
1.40001
1.8386
1.84166
1.40001
1.84043
1.83999
1.03965
1.60306
1.83854
1.40001
1.40001
1.7985
1.39899
1.40001
1.40001
1.8416
1.84406
1.6831
1.40001
1.84084
1.05229
1.81967
1.39973
1.40001
1.84212
1.40004
1.84077
1.78063
1.7389
1.40001
1.40001
1.84174
1.12053
1.05268
1.40001
1.84285
1.40001
1.84227
1.40001
1.66909
1.40001
1.40001
1.84068
1.68429
1.03454
1.40001
1.39849
1.40001
1.40001
1.42581
1.5812
1.84201
1.40001
1.84447
1.40001
1.40001
1.40001
1.40001
1.40001
1.40001
1.46661
1.02691
1.40001
1.40001
1.42709
1.40001
1.40001
1.40001
1.40001
1.40001
1.84068
1.40001
1.40001
1.84183
1.84223
1.71648
1.40001
1.40001
1.40001
1.23308
1.84032
1.70545
1.40001
1.40001
1.40001
1.40001
1.84206
1.40001
1.40001
1.40001
1.84464
1.40001
1.40001
1.71905
1.85941
1.42759
1.15037
1.84092
1.71046
1.8429
1.40001
1.62219
1.40001
1.40001
1.40001
1.07145
1.40256
1.06768
1.40001
1.06774
1.0219
1.40001
1.03564
1.40001
1.40001
1.40001
1.59901
1.40001
1.83939
1.84083
1.40077
1.60761
1.77399
1.0482
1.16648
1.28034
1.40001
1.84169
1.83892
1.84191
1.84141
1.77839
1.26301
1.40001
1.78138
1.40001
1.83311
1.40001
1.40001
1.39655
1.40903
1.40001
1.40001
1.40001
1.84069
1.40001
1.05962
1.40001
1.84254
1.02335
1.40001
1.40001
1.84152
1.40001
1.84143
1.3997
1.40001
1.40001
1.842
1.79245
1.40001
1.85448
1.40001
1.40001
1.4147
1.40001
1.59649
1.40001
1.40001
1.0444
1.40001
1.40001
1.83937
1.4
1.84181
1.40001
1.40004
1.03356
1.40001
1.40001
1.05509
1.40083
1.40001
1.84007
1.01908
1.84286
1.0532
1.84203
1.40001
1.40001
1.40001
1.40001
1.40001
1.40001
1.40001
1.40001
1.40001
1.40001
1.40001
1.82369
1.40001
1.84449
1.83882
1.02964
1.40001
1.40001
1.40001
1.40001
1.40001
1.40001
1.82949
1.40001
1.40001
1.03073
1.40001
1.40001
1.83994
1.40001
1.40001
1.56912
1.76919
1.03768
1.01482
1.11431
1.13855
1.40001
1.39656
1.07243
1.40024
1.81545
1.39683
1.40001
1.40001
1.84293
1.40001
1.40001
1.40001
1.14303
1.40002
1.56165
1.40001
1.40001
1.5745
1.84191
1.40001
1.07575
1.40001
1.40001
1.40001
1.39641
1.40001
1.84276
1.8414
1.40001
1.04715
1.40001
1.63856
1.03393
1.40001
1.28335
1.40001
1.39599
1.03112
1.40001
1.40001
1.40001
1.39563
1.03191
1.40001
1.07168
1.39843
1.63509
1.80981
1.04286
1.03074
1.40001
1.39083
1.40001
1.39858
1.40001
1.84295
1.84174
1.40001
1.41279
1.84234
1.84108
1.40001
1.40001
1.84154
1.40001
1.40001
1.40005
1.40001
1.84044
1.40001
1.40001
1.41856
1.40001
1.39857
1.1067
1.40001
1.40001
1.40001
1.40001
1.40001
1.84596
1.42505
1.40006
1.40001
1.40001
1.40001
1.40001
1.40001
1.40004
1.40001
1.03928
1.49082
1.39861
1.84851
1.84022
1.40001
1.41563
1.84223
1.79024
1.40001
1.40001
1.07796
1.84178
1.40001
1.83912
1.40001
1.84331
1.71688
1.03228
1.40001
1.03216
1.8021
1.39968
1.40001
1.02616
1.08964
1.40001
1.40001
1.77413
1.40001
1.4
1.02345
1.40001
1.40001
1.40001
1.54474
1.40001
1.03398
1.84226
1.40001
1.40001
1.40001
1.40001
1.84244
1.40001
1.40001
1.84695
1.79704
1.40001
1.40001
1.40001
1.83986
1.04677
1.40001
1.84159
1.84152
1.40001
1.75423
1.4
1.40004
1.40001
1.40001
1.81448
1.41352
1.40001
1.02776
1.63971
1.40001
1.40001
1.39721
1.40001
1.40001
1.84046
1.40001
1.40001
1.40004
1.40001
1.84269
1.40001
1.40001
1.40001
1.40001
1.40001
1.40001
1.40002
1.59021
1.40001
1.84038
1.40001
1.40001
1.84293
1.40001
1.40001
1.40001
1.84203
1.8441
1.44659
1.40001
1.39758
1.40001
1.40001
1.40001
1.40001
1.83882
1.40001
1.40001
1.84278
1.02524
1.40001
1.40001
1.40001
1.40001
1.40001
1.40001
1.75951
1.40001
1.40001
1.84275
1.84196
1.40001
1.40001
1.40001
1.84211
1.84441
1.40001
1.39975
1.83811
1.40001
1.40001
1.40001
1.40002
1.05625
1.42981
1.39616
1.39611
1.40001
1.40001
1.07011
1.84239
1.40001
1.06907
1.40001
1.83969
1.82367
1.03446
1.39939
1.84168
1.84258
1.84158
1.40001
1.40001
1.32039
1.79912
1.7612
1.08842
1.40001
1.40001
1.40001
1.84342
1.84203
1.03018
1.39725
1.40001
1.84187
1.06017
1.40001
1.8397
1.02754
1.3696
1.4063
1.40001
1.84398
1.40001
1.40001
1.40001
1.40001
1.40001
1.40001
1.40011
1.81298
1.40001
1.40001
1.84703
1.40001
1.40001
1.40001
1.84174
1.40001
1.03457
1.40001
1.40001
1.40001
1.55663
1.40001
1.40001
1.40001
1.40001
1.40001
1.18034
1.40001
1.05309
1.40001
1.84178
1.40006
1.24843
1.25562
1.40002
1.40478
1.63511
1.40001
1.40001
1.03483
1.84197
1.84171
1.84183
1.40001
1.02724
1.05324
1.40001
1.84216
1.40001
1.40001
1.40001
1.40001
1.40001
1.40004
1.40001
1.04171
1.68197
1.40001
1.40001
1.03893
1.37982
1.40001
1.40001
1.40001
1.40001
1.03626
1.40001
1.09828
1.40001
1.40001
1.84027
1.40001
1.40001
1.03219
1.40001
1.84177
1.40001
1.05667
1.40001
1.03659
1.40001
1.408
1.84101
1.85245
1.40001
1.40001
1.84023
1.40001
1.40001
1.48852
1.39692
1.40001
1.3982
1.40001
1.84419
1.40001
1.03311
1.40002
1.83547
1.39889
1.40001
1.40001
1.17056
1.40001
1.39909
1.03767
1.83934
1.55352
1.40001
1.40001
1.28322
1.40001
1.40001
1.40001
1.16599
1.40001
1.40001
1.40001
1.84138
1.40001
1.03056
1.4
1.40001
1.40001
1.40001
1.01632
1.84211
1.80472
1.03896
1.40001
1.83916
1.40001
1.40001
1.84118
1.84098
1.77279
1.02513
1.39774
1.39929
1.40001
1.84154
1.40001
1.40001
1.40001
1.40001
1.84086
1.40005
1.40001
1.40001
1.83944
1.40001
1.40001
1.84126
1.01548
1.40001
1.40001
1.40001
1.02606
1.40001
1.4
1.4
1.39865
1.40001
1.40001
1.40001
1.40001
1.7425
1.40001
1.83993
1.83963
1.84826
1.84152
1.84085
1.84182
1.40001
1.8399
1.40001
1.84184
1.84136
1.40001
1.39887
1.03235
1.77764
1.39991
1.40001
1.40001
1.40001
1.40001
1.38951
1.40001
1.4722
1.40001
1.40001
1.40001
1.23549
1.84121
1.8424
1.83875
1.77867
1.39988
1.40001
1.42297
1.84089
1.39796
1.45304
1.39724
1.02508
1.40001
1.40003
1.40001
1.40001
1.40001
1.40001
1.40001
1.84235
1.02863
1.84241
1.84187
1.39541
1.02099
1.40001
1.40001
1.40001
1.84122
1.01775
1.79047
1.018
1.84203
1.83681
1.04068
1.84259
1.42372
1.40001
1.84475
1.19331
1.40001
1.39877
1.03967
1.40001
1.02771
1.40001
1.84176
1.84078
1.13692
1.40001
1.84078
1.02699
1.40001
1.0415
1.40001
1.84128
1.40001
1.40001
1.84408
1.40001
1.23017
1.40001
1.39968
1.02982
1.84647
1.39949
1.40001
1.03717
1.40001
1.40001
1.40001
1.40001
1.63541
1.40001
1.84282
1.40001
1.40001
1.84558
1.40001
1.40001
1.84223
1.40001
1.03267
1.40001
1.0304
1.40002
1.40001
1.40001
1.40001
1.40001
1.82284
1.65617
1.84221
1.40001
1.84173
1.81043
1.03445
1.07234
1.40001
1.40001
1.84538
1.40001
1.03292
1.40001
1.38226
1.40001
1.40001
1.84212
1.40001
1.83871
1.0575
1.8468
1.40001
1.07185
1.40001
1.40001
1.83863
1.84046
1.40001
1.40005
1.40001
1.84716
1.40001
1.40001
1.04126
1.39943
1.07012
1.40001
1.40001
1.40001
1.84343
1.84311
1.83954
1.40001
1.40001
1.0698
1.40001
1.84445
1.40001
1.40001
1.40001
1.81249
1.84208
1.84117
1.02046
1.84347
1.84187
1.0382
1.84047
1.40005
1.05315
1.40323
1.40001
1.40001
1.84113
1.01315
1.68374
1.01508
1.84208
1.39733
1.03446
1.84297
1.40001
1.40001
1.40001
1.40001
1.84159
1.84027
1.04236
1.40001
1.40003
1.02409
1.40004
1.40001
1.07
1.05267
1.70784
1.83963
1.39842
1.84144
1.40001
1.83779
1.21233
1.03073
1.84179
1.85034
1.40001
1.84195
1.40001
1.40001
1.84282
1.40001
1.73454
1.84003
1.40001
1.40001
1.40001
1.40001
1.84152
1.837
1.84355
1.40001
1.40001
1.84171
1.83479
1.84304
1.40001
1.8416
1.40001
1.40001
1.40001
1.40001
1.40001
1.03716
1.23077
1.08378
1.40001
1.40001
1.84029
1.40001
1.40001
1.84319
1.02753
1.40001
1.84224
1.83711
1.82506
1.03382
1.40001
1.03404
1.40001
1.40003
1.83901
1.62189
1.83908
1.80433
1.40001
1.07856
1.40001
1.84323
1.71661
1.0333
1.40001
1.40001
1.40001
1.21483
1.40001
1.40001
1.84567
1.40001
1.03269
1.84139
1.40001
1.40001
1.40001
1.40001
1.40001
1.75761
1.50231
1.40001
1.84016
1.40001
1.84276
1.40001
1.39733
1.40001
1.84204
1.84271
1.84335
1.84546
1.39959
1.83952
1.40001
1.8417
1.84302
1.77526
1.40001
1.40001
1.01874
1.84373
1.40001
1.40001
1.84682
1.84165
1.84088
1.40001
1.84192
1.40001
1.40001
1.40003
1.84269
1.83878
1.52547
1.49745
1.84185
1.84159
1.08026
1.40001
1.40001
1.40001
1.40001
1.40001
1.5578
1.40001
1.40001
1.76852
1.06451
1.39998
1.40001
1.842
1.39989
1.39981
1.46679
1.8115
1.84007
1.30518
1.40001
1.05839
1.40001
1.38998
1.84139
1.84497
1.84777
1.3991
1.40001
1.40001
1.04169
1.40001
1.40001
1.84164
1.44779
1.40001
1.40001
1.40001
1.40001
1.40001
1.40001
1.40001
1.39995
1.84069
1.40002
1.40001
1.40001
1.40001
1.40001
1.68271
1.40001
1.60771
1.40001
1.40001
1.84202
1.84754
1.02806
1.39878
1.40001
1.4
1.40001
1.04332
1.84073
1.84138
1.40001
1.40001
1.40001
1.40001
1.40001
1.40001
1.40001
1.40001
1.8429
1.83521
1.03417
1.44979
1.04023
1.40001
1.05403
1.40001
1.84229
1.52447
1.40001
1.40001
1.0735
1.40001
1.82546
1.2246
1.39691
1.02215
1.40001
1.40001
1.83858
1.40005
1.39747
1.01032
1.84114
1.84221
1.40001
1.40001
1.40001
1.40001
1.8134
1.40001
1.40001
1.8414
1.39902
1.84078
1.40009
1.40001
1.40001
1.00866
1.40001
1.40001
1.84147
1.02988
1.19196
1.02624
1.8419
1.39938
1.40001
1.84242
1.049
1.07841
1.40702
1.40001
1.40001
1.84018
1.40004
1.59938
1.40001
1.40001
1.8384
1.03063
1.40001
1.40001
1.40014
1.83998
1.40014
1.82666
1.40001
1.40004
1.40001
1.40001
1.08635
1.40001
1.18031
1.40002
1.40001
1.8436
1.02575
1.40001
1.16666
1.17859
1.40001
1.40001
1.84157
1.40001
1.40001
1.40001
1.84256
1.84121
1.40005
1.8274
1.84009
1.17633
1.84143
1.81924
1.40001
1.40001
1.83701
1.4
1.40001
1.40001
1.40001
1.40001
1.84675
1.84227
1.40001
1.40001
1.40001
1.842
1.40021
1.40001
1.03587