/*--------------------------------*- C++ -*----------------------------------*\
  =========                 |
  \\      /  F ield         | OpenFOAM: The Open Source CFD Toolbox
   \\    /   O peration     | Website:  https://openfoam.org
    \\  /    A nd           | Version:  12
     \\/     M anipulation  |
\*---------------------------------------------------------------------------*/
FoamFile
{
    format      ascii;
    class       volVectorField;
    location    "21.5";
    object      U;
}
// * * * * * * * * * * * * * * * * * * * * * * * * * * * * * * * * * * * * * //

dimensions      [0 1 -1 0 0 0 0];

internalField   nonuniform List<vector> 
9801
(
(1.20681 -0.11016 0)
(1.18329 -0.101209 0)
(1.18191 -0.100699 0)
(1.17936 -0.102818 0)
(1.18755 -0.107494 0)
(1.2128 -0.111152 0)
(1.22928 -0.1077 0)
(1.22988 -0.102869 0)
(1.22643 -0.0988645 0)
(1.21833 -0.0907574 0)
(1.19435 -0.0804061 0)
(1.17434 -0.0759251 0)
(1.16892 -0.0751408 0)
(1.16603 -0.076769 0)
(1.16413 -0.0805519 0)
(1.1655 -0.0840732 0)
(1.17253 -0.0833595 0)
(1.17982 -0.0787522 0)
(1.18057 -0.0729958 0)
(1.17837 -0.0672216 0)
(1.17376 -0.0593539 0)
(1.16193 -0.0515764 0)
(1.15127 -0.0485999 0)
(1.14778 -0.0486586 0)
(1.14502 -0.050439 0)
(1.1443 -0.0544003 0)
(1.14384 -0.0567695 0)
(1.1414 -0.0547633 0)
(1.13775 -0.0512803 0)
(1.13386 -0.0464651 0)
(1.13047 -0.039947 0)
(1.12782 -0.0336939 0)
(1.1237 -0.0280022 0)
(1.12055 -0.0254802 0)
(1.11881 -0.0243409 0)
(1.11786 -0.0247672 0)
(1.11739 -0.0266219 0)
(1.11385 -0.0285824 0)
(1.1071 -0.0278974 0)
(1.09953 -0.0244646 0)
(1.09031 -0.0200872 0)
(1.08331 -0.0159104 0)
(1.0786 -0.0118142 0)
(1.07675 -0.00644266 0)
(1.07788 -0.00216296 0)
(1.08011 -0.000105625 0)
(1.08132 0.000323055 0)
(1.07995 5.28218e-05 0)
(1.07581 -0.000558045 0)
(1.06989 -0.000895589 0)
(1.05977 0.000858335 0)
(1.04708 0.00364525 0)
(1.03804 0.0070664 0)
(1.03139 0.0105055 0)
(1.02659 0.0133693 0)
(1.02677 0.0177528 0)
(1.03161 0.0215418 0)
(1.03537 0.0231993 0)
(1.03539 0.0238209 0)
(1.03189 0.0240006 0)
(1.02607 0.0240532 0)
(1.018 0.0243654 0)
(0.998602 0.0262219 0)
(0.983097 0.0283245 0)
(0.974839 0.0305116 0)
(0.968883 0.0320711 0)
(0.965823 0.0346001 0)
(0.973136 0.0384248 0)
(0.979793 0.0414889 0)
(0.980583 0.0434823 0)
(0.977484 0.0447949 0)
(0.971587 0.0454515 0)
(0.964324 0.0457717 0)
(0.944663 0.046616 0)
(0.917151 0.0470478 0)
(0.902214 0.0476162 0)
(0.893769 0.0481696 0)
(0.888163 0.0489193 0)
(0.89533 0.0509796 0)
(0.906895 0.0542458 0)
(0.908233 0.057515 0)
(0.903604 0.0602478 0)
(0.896132 0.0619866 0)
(0.886656 0.0627189 0)
(0.86443 0.0626269 0)
(0.823425 0.0600797 0)
(0.793489 0.0574121 0)
(0.77738 0.0561741 0)
(0.767285 0.0549675 0)
(0.774438 0.053622 0)
(0.790423 0.0537344 0)
(0.789283 0.0559594 0)
(0.776481 0.0577565 0)
(0.757049 0.0563723 0)
(0.719813 0.0516194 0)
(0.650018 0.0446731 0)
(0.563411 0.000806626 0)
(-0.000730728 -0.137173 0)
(-1.25979 -0.105588 0)
(1.21303 -0.102378 0)
(1.19563 -0.104629 0)
(1.18919 -0.114847 0)
(1.18557 -0.123271 0)
(1.18812 -0.12837 0)
(1.20477 -0.124513 0)
(1.21823 -0.1143 0)
(1.21958 -0.103777 0)
(1.21636 -0.0911442 0)
(1.20825 -0.0764395 0)
(1.19816 -0.070018 0)
(1.18597 -0.0768008 0)
(1.17657 -0.0882173 0)
(1.17051 -0.0959733 0)
(1.16564 -0.0990829 0)
(1.16299 -0.0993487 0)
(1.16444 -0.0947442 0)
(1.16917 -0.0824589 0)
(1.17142 -0.0669562 0)
(1.17041 -0.0534364 0)
(1.16722 -0.0443367 0)
(1.16445 -0.0431257 0)
(1.16071 -0.0496294 0)
(1.15392 -0.0613347 0)
(1.14795 -0.0701267 0)
(1.14252 -0.0719545 0)
(1.13841 -0.0696304 0)
(1.13434 -0.0647183 0)
(1.12918 -0.0551552 0)
(1.12478 -0.0424663 0)
(1.12319 -0.0298728 0)
(1.12366 -0.0207257 0)
(1.12523 -0.0188464 0)
(1.1268 -0.0241823 0)
(1.12514 -0.032198 0)
(1.12142 -0.0383097 0)
(1.11656 -0.0404316 0)
(1.11142 -0.0394796 0)
(1.10196 -0.0365592 0)
(1.09094 -0.0287862 0)
(1.08234 -0.018876 0)
(1.07674 -0.010555 0)
(1.07322 -0.00426313 0)
(1.07638 0.00192322 0)
(1.08369 0.00141293 0)
(1.08579 -0.00382309 0)
(1.08412 -0.00788832 0)
(1.08042 -0.00935556 0)
(1.07559 -0.00953351 0)
(1.06862 -0.0085469 0)
(1.05373 -0.00461371 0)
(1.04037 0.00166519 0)
(1.03193 0.00839396 0)
(1.02613 0.0144253 0)
(1.02207 0.0188841 0)
(1.0259 0.0233488 0)
(1.03568 0.0233821 0)
(1.03869 0.0204867 0)
(1.03645 0.01901 0)
(1.03188 0.0188373 0)
(1.0262 0.0188405 0)
(1.01683 0.0193778 0)
(0.996004 0.0219588 0)
(0.979394 0.025409 0)
(0.970475 0.0292948 0)
(0.964354 0.0326935 0)
(0.961082 0.0364898 0)
(0.970358 0.0417852 0)
(0.980522 0.0433491 0)
(0.981542 0.0421038 0)
(0.977552 0.0415157 0)
(0.971376 0.0414882 0)
(0.963979 0.0416836 0)
(0.944231 0.0424895 0)
(0.916482 0.0426088 0)
(0.900071 0.0425154 0)
(0.89063 0.0432792 0)
(0.883609 0.0439647 0)
(0.886955 0.0494368 0)
(0.900916 0.0579018 0)
(0.905807 0.0615091 0)
(0.90192 0.0618746 0)
(0.894453 0.0608788 0)
(0.885187 0.0594846 0)
(0.865028 0.0572155 0)
(0.824424 0.0530002 0)
(0.792391 0.0477097 0)
(0.774015 0.0441977 0)
(0.762146 0.0420572 0)
(0.759398 0.0442621 0)
(0.770302 0.0581905 0)
(0.771764 0.0704933 0)
(0.76135 0.0725713 0)
(0.74366 0.0696588 0)
(0.708371 0.0632092 0)
(0.643638 0.0533843 0)
(0.565447 0.00700042 0)
(-0.0100149 -0.135781 0)
(-1.26483 -0.11221 0)
(1.22204 -0.0969403 0)
(1.20783 -0.104489 0)
(1.20087 -0.119254 0)
(1.1966 -0.127438 0)
(1.19314 -0.12976 0)
(1.19438 -0.125295 0)
(1.20175 -0.107441 0)
(1.20697 -0.0844375 0)
(1.20837 -0.0686289 0)
(1.20568 -0.0652391 0)
(1.20146 -0.067851 0)
(1.19681 -0.0745688 0)
(1.18851 -0.0863569 0)
(1.17868 -0.0964242 0)
(1.17179 -0.100171 0)
(1.16508 -0.0990084 0)
(1.15743 -0.0909292 0)
(1.15346 -0.0774798 0)
(1.15593 -0.0585206 0)
(1.16215 -0.0421709 0)
(1.16693 -0.0374388 0)
(1.16948 -0.0421115 0)
(1.16759 -0.0483413 0)
(1.16328 -0.0548827 0)
(1.1554 -0.0635586 0)
(1.1462 -0.0697778 0)
(1.13497 -0.0699521 0)
(1.1222 -0.0603393 0)
(1.11474 -0.0474107 0)
(1.1115 -0.0365714 0)
(1.11206 -0.0259244 0)
(1.11992 -0.0182653 0)
(1.13023 -0.0190904 0)
(1.13347 -0.0233416 0)
(1.13076 -0.0268091 0)
(1.12612 -0.0299668 0)
(1.1198 -0.0340639 0)
(1.10763 -0.0370361 0)
(1.09044 -0.0320398 0)
(1.0781 -0.0218369 0)
(1.07214 -0.0133216 0)
(1.06795 -0.00696672 0)
(1.06631 -0.0020446 0)
(1.07536 0.000814374 0)
(1.08749 -1.80958e-05 0)
(1.08929 -0.0024623 0)
(1.08616 -0.00444368 0)
(1.08156 -0.00604519 0)
(1.07636 -0.00709496 0)
(1.06338 -0.00536564 0)
(1.04336 0.00171573 0)
(1.03131 0.00829572 0)
(1.02496 0.0130602 0)
(1.01972 0.0165264 0)
(1.01649 0.0192983 0)
(1.02411 0.0209831 0)
(1.0368 0.020705 0)
(1.03965 0.0195231 0)
(1.0363 0.0185845 0)
(1.03116 0.0182056 0)
(1.02538 0.0185797 0)
(1.01236 0.0211178 0)
(0.989117 0.026266 0)
(0.97288 0.0305074 0)
(0.964556 0.0334347 0)
(0.958363 0.0350075 0)
(0.954748 0.0366018 0)
(0.965418 0.0389471 0)
(0.978115 0.0406738 0)
(0.978389 0.0409556 0)
(0.973688 0.0414031 0)
(0.967841 0.0420108 0)
(0.960383 0.0430596 0)
(0.941443 0.0439529 0)
(0.912776 0.0432375 0)
(0.893793 0.0435233 0)
(0.883236 0.044761 0)
(0.875578 0.0451618 0)
(0.874718 0.047128 0)
(0.889895 0.0530405 0)
(0.898289 0.0558718 0)
(0.894738 0.0563547 0)
(0.887178 0.0571253 0)
(0.878202 0.058117 0)
(0.861115 0.0584759 0)
(0.824699 0.0525014 0)
(0.788831 0.0441352 0)
(0.765513 0.0386373 0)
(0.751489 0.0360568 0)
(0.742209 0.0338617 0)
(0.747688 0.0372935 0)
(0.754207 0.0427774 0)
(0.747728 0.0421733 0)
(0.732927 0.0386438 0)
(0.70453 0.0309146 0)
(0.64988 0.0218327 0)
(0.583328 -0.0295219 0)
(-0.0129132 -0.156831 0)
(-1.27764 -0.103073 0)
(1.22471 -0.0967612 0)
(1.21817 -0.101019 0)
(1.21157 -0.113075 0)
(1.20329 -0.121823 0)
(1.19418 -0.124249 0)
(1.18562 -0.117173 0)
(1.18286 -0.106412 0)
(1.18709 -0.088804 0)
(1.19743 -0.0721292 0)
(1.20516 -0.0678337 0)
(1.20568 -0.0706669 0)
(1.20171 -0.0736939 0)
(1.19656 -0.0777885 0)
(1.1863 -0.0861504 0)
(1.1718 -0.0932711 0)
(1.1555 -0.0900279 0)
(1.14564 -0.0799502 0)
(1.14178 -0.0728587 0)
(1.14149 -0.0643845 0)
(1.15387 -0.0512206 0)
(1.17101 -0.0446305 0)
(1.1758 -0.0462705 0)
(1.1727 -0.0497062 0)
(1.16754 -0.0531282 0)
(1.1616 -0.0575083 0)
(1.14756 -0.0626361 0)
(1.12381 -0.0598027 0)
(1.10917 -0.0505974 0)
(1.1042 -0.0448753 0)
(1.10111 -0.0406342 0)
(1.10241 -0.0348178 0)
(1.11756 -0.0283707 0)
(1.13315 -0.0264677 0)
(1.13606 -0.027877 0)
(1.13292 -0.0294953 0)
(1.12821 -0.0306394 0)
(1.12227 -0.0311703 0)
(1.10303 -0.028111 0)
(1.07934 -0.0218144 0)
(1.06908 -0.0178652 0)
(1.06459 -0.015879 0)
(1.0607 -0.0133814 0)
(1.06059 -0.0102974 0)
(1.07336 -0.00751632 0)
(1.08796 -0.00582247 0)
(1.08963 -0.00451515 0)
(1.08568 -0.00384524 0)
(1.08126 -0.00273316 0)
(1.07403 -0.000134753 0)
(1.05709 0.00401416 0)
(1.03658 0.00690768 0)
(1.0252 0.00795429 0)
(1.01921 0.00835878 0)
(1.01408 0.0087807 0)
(1.01162 0.00989447 0)
(1.02019 0.0129002 0)
(1.03378 0.0169245 0)
(1.03596 0.0196277 0)
(1.0323 0.0215079 0)
(1.02747 0.0233934 0)
(1.021 0.025774 0)
(1.00694 0.0284411 0)
(0.983867 0.0295421 0)
(0.967171 0.0290971 0)
(0.958834 0.0287772 0)
(0.952613 0.0283323 0)
(0.948175 0.0279693 0)
(0.955771 0.0309568 0)
(0.968761 0.0380778 0)
(0.970177 0.0427601 0)
(0.965817 0.045155 0)
(0.96017 0.0467978 0)
(0.953208 0.0482035 0)
(0.937171 0.0477511 0)
(0.908698 0.0429417 0)
(0.887169 0.0389342 0)
(0.875222 0.0378355 0)
(0.867121 0.0375731 0)
(0.862085 0.0379103 0)
(0.871317 0.0455657 0)
(0.882323 0.0571945 0)
(0.881391 0.0627467 0)
(0.874948 0.0642551 0)
(0.86693 0.0643571 0)
(0.853868 0.0635749 0)
(0.825243 0.055727 0)
(0.788197 0.0409979 0)
(0.76045 0.0288756 0)
(0.742071 0.023139 0)
(0.729698 0.020981 0)
(0.723628 0.0230758 0)
(0.725243 0.0346831 0)
(0.719979 0.041117 0)
(0.707839 0.0380215 0)
(0.68806 0.0300586 0)
(0.648114 0.0171796 0)
(0.614149 -0.0387937 0)
(-0.0112062 -0.156966 0)
(-1.29695 -0.0984934 0)
(1.22822 -0.102173 0)
(1.22256 -0.10193 0)
(1.2178 -0.105558 0)
(1.20617 -0.109327 0)
(1.18572 -0.106585 0)
(1.1754 -0.101305 0)
(1.17275 -0.0989207 0)
(1.17246 -0.094819 0)
(1.18795 -0.0851256 0)
(1.20667 -0.077854 0)
(1.2083 -0.0778759 0)
(1.20345 -0.0787486 0)
(1.19801 -0.0793869 0)
(1.19031 -0.0808397 0)
(1.1669 -0.0791385 0)
(1.1452 -0.0726882 0)
(1.13821 -0.0691192 0)
(1.13539 -0.0678905 0)
(1.13297 -0.066223 0)
(1.14372 -0.0618952 0)
(1.17008 -0.0560117 0)
(1.17822 -0.0555037 0)
(1.17441 -0.0558933 0)
(1.16871 -0.0557607 0)
(1.16182 -0.0553782 0)
(1.14106 -0.04976 0)
(1.11589 -0.0418165 0)
(1.10455 -0.0405087 0)
(1.10014 -0.0415203 0)
(1.09636 -0.0421823 0)
(1.09518 -0.0425178 0)
(1.11041 -0.0388981 0)
(1.13164 -0.0333465 0)
(1.13488 -0.0312411 0)
(1.1307 -0.0299218 0)
(1.12598 -0.0274214 0)
(1.11602 -0.0213693 0)
(1.09709 -0.0138284 0)
(1.07754 -0.0117738 0)
(1.0663 -0.014537 0)
(1.06049 -0.0167436 0)
(1.05578 -0.0175528 0)
(1.05393 -0.0174392 0)
(1.06465 -0.0135151 0)
(1.08092 -0.00614455 0)
(1.08445 -0.000875333 0)
(1.08153 0.00244905 0)
(1.07702 0.00620261 0)
(1.0693 0.0101948 0)
(1.05458 0.0121017 0)
(1.03522 0.00947582 0)
(1.02143 0.00588723 0)
(1.01392 0.00478755 0)
(1.00825 0.00456955 0)
(1.00391 0.0046792 0)
(1.00859 0.00820472 0)
(1.02261 0.0169332 0)
(1.02736 0.023797 0)
(1.02453 0.0274751 0)
(1.01989 0.0301763 0)
(1.01384 0.0325255 0)
(1.0022 0.0328484 0)
(0.981125 0.0286197 0)
(0.962843 0.0240182 0)
(0.952652 0.0230005 0)
(0.945729 0.0233371 0)
(0.939629 0.0237766 0)
(0.941105 0.0273328 0)
(0.953802 0.0369213 0)
(0.958567 0.0438764 0)
(0.955311 0.0469386 0)
(0.949943 0.0490692 0)
(0.943808 0.0506519 0)
(0.932533 0.0505956 0)
(0.907631 0.0435538 0)
(0.882154 0.0341695 0)
(0.867469 0.030428 0)
(0.85832 0.0307163 0)
(0.850585 0.03147 0)
(0.850684 0.0367547 0)
(0.862691 0.0505736 0)
(0.866864 0.0605426 0)
(0.861737 0.0630337 0)
(0.853975 0.0627115 0)
(0.843992 0.0615596 0)
(0.823647 0.0558545 0)
(0.790463 0.0423613 0)
(0.758227 0.026538 0)
(0.735526 0.0134351 0)
(0.721452 0.00757306 0)
(0.710985 0.00590607 0)
(0.708229 0.00932021 0)
(0.707093 0.0146541 0)
(0.700698 0.0111022 0)
(0.689001 0.00377906 0)
(0.664736 -0.00475803 0)
(0.64229 -0.0320042 0)
(-0.00584008 -0.145745 0)
(-1.31057 -0.0930456 0)
(1.22685 -0.109335 0)
(1.22202 -0.107318 0)
(1.21597 -0.105003 0)
(1.19906 -0.0960637 0)
(1.18094 -0.0884684 0)
(1.17347 -0.0869845 0)
(1.17106 -0.0871019 0)
(1.17026 -0.0882736 0)
(1.18218 -0.090895 0)
(1.20183 -0.089784 0)
(1.20569 -0.0849982 0)
(1.20118 -0.0818671 0)
(1.1963 -0.0792943 0)
(1.18424 -0.0726787 0)
(1.15989 -0.0621522 0)
(1.1425 -0.0593772 0)
(1.13593 -0.0611428 0)
(1.13255 -0.062264 0)
(1.13017 -0.063608 0)
(1.13901 -0.0666891 0)
(1.16365 -0.0675988 0)
(1.17312 -0.0624839 0)
(1.17003 -0.0584067 0)
(1.16539 -0.0546673 0)
(1.15408 -0.0460089 0)
(1.13246 -0.0355307 0)
(1.11414 -0.0330301 0)
(1.10474 -0.0353644 0)
(1.09939 -0.0382328 0)
(1.09517 -0.0408059 0)
(1.0925 -0.0434837 0)
(1.10201 -0.0449433 0)
(1.1216 -0.0389233 0)
(1.12639 -0.0303765 0)
(1.12349 -0.0240654 0)
(1.11811 -0.016757 0)
(1.10845 -0.00992967 0)
(1.09341 -0.00808606 0)
(1.07758 -0.0106987 0)
(1.06596 -0.0146141 0)
(1.05869 -0.0178429 0)
(1.05346 -0.0200197 0)
(1.04949 -0.0215948 0)
(1.05297 -0.0204109 0)
(1.06658 -0.0100581 0)
(1.07258 0.000673842 0)
(1.07099 0.00735161 0)
(1.06706 0.0120121 0)
(1.06112 0.0150031 0)
(1.05087 0.0148768 0)
(1.03499 0.0105178 0)
(1.01914 0.00497159 0)
(1.00952 0.00180192 0)
(1.00354 0.00108927 0)
(0.998382 0.00112606 0)
(0.996466 0.00298849 0)
(1.00599 0.012551 0)
(1.01391 0.0237892 0)
(1.01335 0.0299455 0)
(1.00967 0.0337192 0)
(1.005 0.0361026 0)
(0.99844 0.0369584 0)
(0.982204 0.0323572 0)
(0.960856 0.0239092 0)
(0.947004 0.0188958 0)
(0.938738 0.0186117 0)
(0.932196 0.0195756 0)
(0.928052 0.0218299 0)
(0.935765 0.0316523 0)
(0.944805 0.0439009 0)
(0.944457 0.0494324 0)
(0.940075 0.0513205 0)
(0.934659 0.0521453 0)
(0.927741 0.0520812 0)
(0.910627 0.0471067 0)
(0.883394 0.0356363 0)
(0.862862 0.0266319 0)
(0.849815 0.0233428 0)
(0.840942 0.0242635 0)
(0.834465 0.0268651 0)
(0.839438 0.0379975 0)
(0.849836 0.0546659 0)
(0.85042 0.0638504 0)
(0.844527 0.0656296 0)
(0.83643 0.0648034 0)
(0.823393 0.0609374 0)
(0.797608 0.0472003 0)
(0.764295 0.0286429 0)
(0.736747 0.0130279 0)
(0.716924 0.000455723 0)
(0.705231 -0.00512744 0)
(0.696904 -0.00664927 0)
(0.696062 -0.00376559 0)
(0.695455 -0.00537963 0)
(0.690813 -0.0158262 0)
(0.677483 -0.0247657 0)
(0.666571 -0.0360841 0)
(0.00400074 -0.136919 0)
(-1.31911 -0.0882814 0)
(1.21812 -0.114193 0)
(1.21459 -0.106629 0)
(1.20723 -0.0917601 0)
(1.19399 -0.0788874 0)
(1.18358 -0.0756019 0)
(1.17774 -0.077147 0)
(1.17441 -0.0795333 0)
(1.1749 -0.0860521 0)
(1.18308 -0.0956518 0)
(1.19209 -0.0976021 0)
(1.19631 -0.0905217 0)
(1.19393 -0.0825493 0)
(1.18841 -0.0749277 0)
(1.17266 -0.0611209 0)
(1.15533 -0.052467 0)
(1.14368 -0.052218 0)
(1.13731 -0.0548816 0)
(1.13328 -0.0571215 0)
(1.13245 -0.061909 0)
(1.14207 -0.0713885 0)
(1.15435 -0.074521 0)
(1.15989 -0.0670223 0)
(1.15852 -0.0567649 0)
(1.15366 -0.0449062 0)
(1.14258 -0.0316076 0)
(1.12894 -0.0249272 0)
(1.11608 -0.0267128 0)
(1.10651 -0.0318376 0)
(1.10052 -0.0359816 0)
(1.09589 -0.0394835 0)
(1.09294 -0.0431493 0)
(1.09646 -0.0462136 0)
(1.10623 -0.042447 0)
(1.11115 -0.0311477 0)
(1.11019 -0.0188838 0)
(1.10627 -0.00924082 0)
(1.10093 -0.00452086 0)
(1.09193 -0.00342319 0)
(1.07822 -0.00839604 0)
(1.06639 -0.0139151 0)
(1.0585 -0.0172164 0)
(1.05243 -0.0196449 0)
(1.04743 -0.0213203 0)
(1.04369 -0.020697 0)
(1.04856 -0.0134456 0)
(1.05656 6.74691e-05 0)
(1.05859 0.0104911 0)
(1.05697 0.0167642 0)
(1.05287 0.0189154 0)
(1.04751 0.0184621 0)
(1.03619 0.0134775 0)
(1.01941 0.0059388 0)
(1.00691 0.00208708 0)
(0.99896 0.00111829 0)
(0.992714 0.00225728 0)
(0.987831 0.00383412 0)
(0.988568 0.0101877 0)
(0.998408 0.023401 0)
(1.00232 0.0321397 0)
(1.00102 0.0353774 0)
(0.997666 0.036459 0)
(0.992701 0.036382 0)
(0.983797 0.0339464 0)
(0.963385 0.0245306 0)
(0.944135 0.0174248 0)
(0.932194 0.0159769 0)
(0.923953 0.0182488 0)
(0.917789 0.0207985 0)
(0.917225 0.0270126 0)
(0.928844 0.0411808 0)
(0.935074 0.0509925 0)
(0.933119 0.0530448 0)
(0.928427 0.0518717 0)
(0.922626 0.0502961 0)
(0.91328 0.0474497 0)
(0.890502 0.036272 0)
(0.863197 0.0245196 0)
(0.844158 0.0193704 0)
(0.832845 0.0189853 0)
(0.825147 0.020061 0)
(0.821514 0.0238553 0)
(0.830588 0.0373433 0)
(0.840131 0.0516091 0)
(0.839637 0.0581037 0)
(0.833029 0.0592018 0)
(0.823871 0.0584616 0)
(0.805968 0.0527362 0)
(0.77714 0.036599 0)
(0.746556 0.0164839 0)
(0.722102 0.000525709 0)
(0.704685 -0.0115868 0)
(0.694807 -0.0168959 0)
(0.689585 -0.0185254 0)
(0.691797 -0.0178201 0)
(0.693848 -0.0268986 0)
(0.688791 -0.0393309 0)
(0.682043 -0.0436598 0)
(0.0113969 -0.126915 0)
(-1.32473 -0.0849358 0)
(1.208 -0.117942 0)
(1.20002 -0.103004 0)
(1.19117 -0.0842646 0)
(1.18395 -0.0734 0)
(1.17856 -0.0702434 0)
(1.17463 -0.0710378 0)
(1.17721 -0.0767904 0)
(1.1829 -0.0872321 0)
(1.18542 -0.0947414 0)
(1.18574 -0.0953739 0)
(1.18454 -0.0925735 0)
(1.18197 -0.0855637 0)
(1.17242 -0.0686756 0)
(1.15949 -0.0533142 0)
(1.15002 -0.0481065 0)
(1.14321 -0.0489345 0)
(1.138 -0.051736 0)
(1.13517 -0.0572193 0)
(1.13869 -0.0677417 0)
(1.14331 -0.0744335 0)
(1.14454 -0.0733746 0)
(1.14422 -0.0676124 0)
(1.14278 -0.0552074 0)
(1.13788 -0.0402201 0)
(1.13068 -0.0299906 0)
(1.12377 -0.0263255 0)
(1.117 -0.026685 0)
(1.10944 -0.0302772 0)
(1.10298 -0.0356506 0)
(1.09783 -0.0407449 0)
(1.09343 -0.0430768 0)
(1.09121 -0.0434291 0)
(1.09245 -0.0391273 0)
(1.0946 -0.0294579 0)
(1.09593 -0.0179814 0)
(1.09561 -0.00959978 0)
(1.0928 -0.00622632 0)
(1.08785 -0.00547503 0)
(1.08011 -0.00750692 0)
(1.06869 -0.0122005 0)
(1.05936 -0.0159339 0)
(1.05128 -0.0176485 0)
(1.04411 -0.0169924 0)
(1.03896 -0.0141943 0)
(1.03613 -0.010438 0)
(1.04118 -0.00104722 0)
(1.04751 0.00745934 0)
(1.04933 0.0108843 0)
(1.04833 0.0122807 0)
(1.04423 0.0134897 0)
(1.03766 0.0136245 0)
(1.02265 0.00883155 0)
(1.00639 0.00295212 0)
(0.994609 0.00233882 0)
(0.986037 0.00523699 0)
(0.980128 0.00882636 0)
(0.976661 0.0122895 0)
(0.983516 0.0210986 0)
(0.993292 0.0301785 0)
(0.995093 0.0333051 0)
(0.992658 0.0332719 0)
(0.98823 0.0324684 0)
(0.982482 0.0322019 0)
(0.968514 0.0280544 0)
(0.945028 0.0190009 0)
(0.927195 0.01578 0)
(0.91642 0.0174585 0)
(0.909399 0.02058 0)
(0.904631 0.0239912 0)
(0.911248 0.0336776 0)
(0.92481 0.04656 0)
(0.928336 0.0518921 0)
(0.925061 0.0519554 0)
(0.919477 0.050901 0)
(0.912764 0.0496178 0)
(0.896778 0.043904 0)
(0.867489 0.0313675 0)
(0.844033 0.022587 0)
(0.829643 0.0175805 0)
(0.8203 0.0155787 0)
(0.813137 0.0155608 0)
(0.812439 0.0204517 0)
(0.823409 0.0355498 0)
(0.83014 0.0483066 0)
(0.827378 0.0538066 0)
(0.819617 0.0553953 0)
(0.808759 0.0541755 0)
(0.789419 0.0454002 0)
(0.761719 0.0277102 0)
(0.733807 0.00696394 0)
(0.711785 -0.0101074 0)
(0.69667 -0.023514 0)
(0.688412 -0.028797 0)
(0.687039 -0.0300579 0)
(0.69371 -0.0340355 0)
(0.695923 -0.0461808 0)
(0.69329 -0.0509841 0)
(0.0173635 -0.120657 0)
(-1.32951 -0.0823994 0)
(1.19827 -0.11229 0)
(1.18025 -0.105818 0)
(1.17386 -0.0943608 0)
(1.16997 -0.0848426 0)
(1.16988 -0.0755361 0)
(1.1744 -0.0701168 0)
(1.18382 -0.0726009 0)
(1.18778 -0.077973 0)
(1.18622 -0.0820925 0)
(1.18371 -0.0853281 0)
(1.17882 -0.085752 0)
(1.16653 -0.0809367 0)
(1.15502 -0.0718603 0)
(1.1491 -0.0655954 0)
(1.14488 -0.0599473 0)
(1.14135 -0.0551624 0)
(1.13907 -0.0538792 0)
(1.14044 -0.0571887 0)
(1.14288 -0.061132 0)
(1.1413 -0.0622446 0)
(1.13954 -0.0609871 0)
(1.13519 -0.0529934 0)
(1.1307 -0.0457123 0)
(1.12732 -0.0405453 0)
(1.12416 -0.0362339 0)
(1.12021 -0.0335257 0)
(1.11635 -0.0323501 0)
(1.11129 -0.0336321 0)
(1.10555 -0.0363333 0)
(1.09871 -0.0385554 0)
(1.09186 -0.0380863 0)
(1.0869 -0.0351294 0)
(1.08377 -0.0298378 0)
(1.0832 -0.0234467 0)
(1.08636 -0.0183222 0)
(1.08957 -0.0142901 0)
(1.08862 -0.0117281 0)
(1.08463 -0.0101336 0)
(1.07945 -0.00971887 0)
(1.0718 -0.0121173 0)
(1.05983 -0.0152409 0)
(1.04841 -0.0152646 0)
(1.03876 -0.0115923 0)
(1.03276 -0.00706349 0)
(1.02924 -0.00377402 0)
(1.03181 0.00127969 0)
(1.04107 0.00594971 0)
(1.04473 0.0084829 0)
(1.0435 0.0100077 0)
(1.03981 0.0107222 0)
(1.03493 0.0112664 0)
(1.02623 0.0101396 0)
(1.00694 0.00535016 0)
(0.989767 0.00432333 0)
(0.979533 0.00766986 0)
(0.973162 0.0113756 0)
(0.968568 0.0141171 0)
(0.97157 0.0194664 0)
(0.985341 0.0276106 0)
(0.991242 0.0315552 0)
(0.989188 0.0321024 0)
(0.984633 0.0315383 0)
(0.979567 0.031069 0)
(0.971241 0.0305945 0)
(0.948469 0.0250589 0)
(0.925012 0.0190437 0)
(0.911482 0.0175066 0)
(0.90402 0.018422 0)
(0.898264 0.0197444 0)
(0.897549 0.0240254 0)
(0.91125 0.0362276 0)
(0.922909 0.0466585 0)
(0.92273 0.0498717 0)
(0.917388 0.0501671 0)
(0.911055 0.0504938 0)
(0.901221 0.0505238 0)
(0.878225 0.0417762 0)
(0.850399 0.0265466 0)
(0.831253 0.0172832 0)
(0.818511 0.0126294 0)
(0.810416 0.010171 0)
(0.804274 0.0094391 0)
(0.806763 0.0146834 0)
(0.816788 0.0292387 0)
(0.820052 0.0404422 0)
(0.815738 0.0454698 0)
(0.807573 0.0474086 0)
(0.794911 0.0458361 0)
(0.775525 0.0365614 0)
(0.750869 0.0187628 0)
(0.725949 -0.0040458 0)
(0.705413 -0.0240418 0)
(0.69167 -0.0376861 0)
(0.684764 -0.041528 0)
(0.689253 -0.0448185 0)
(0.698719 -0.052885 0)
(0.700746 -0.0572136 0)
(0.0230308 -0.114448 0)
(-1.33427 -0.0805435 0)
(1.19101 -0.105056 0)
(1.16693 -0.103368 0)
(1.16268 -0.0977404 0)
(1.15937 -0.0924528 0)
(1.15936 -0.0864116 0)
(1.17117 -0.0778232 0)
(1.18714 -0.0741364 0)
(1.19246 -0.0736194 0)
(1.18961 -0.0735938 0)
(1.18598 -0.0738371 0)
(1.1768 -0.0725863 0)
(1.16049 -0.0687386 0)
(1.14966 -0.065776 0)
(1.14418 -0.0641096 0)
(1.13994 -0.0633429 0)
(1.13729 -0.0630557 0)
(1.13805 -0.0629588 0)
(1.13956 -0.0621149 0)
(1.13929 -0.0591699 0)
(1.13709 -0.0545936 0)
(1.13208 -0.0469299 0)
(1.12704 -0.0410966 0)
(1.12451 -0.0376762 0)
(1.12284 -0.0357884 0)
(1.12148 -0.0364261 0)
(1.11904 -0.0384754 0)
(1.11524 -0.04099 0)
(1.11024 -0.0416306 0)
(1.10454 -0.040915 0)
(1.09574 -0.0379863 0)
(1.0862 -0.0324848 0)
(1.08021 -0.0264074 0)
(1.07732 -0.0209797 0)
(1.07884 -0.0149543 0)
(1.08345 -0.0128911 0)
(1.0872 -0.013356 0)
(1.08707 -0.0136218 0)
(1.08369 -0.0142234 0)
(1.0787 -0.0144443 0)
(1.07164 -0.0153343 0)
(1.05688 -0.0161659 0)
(1.04214 -0.0125583 0)
(1.0321 -0.00671194 0)
(1.02608 -0.00230101 0)
(1.02193 0.000372845 0)
(1.02479 0.00400566 0)
(1.03697 0.00741234 0)
(1.0422 0.00868611 0)
(1.04071 0.00900024 0)
(1.03661 0.00932071 0)
(1.03198 0.00946053 0)
(1.02597 0.00972831 0)
(1.007 0.00858529 0)
(0.984792 0.00664932 0)
(0.973528 0.00745353 0)
(0.967555 0.00952425 0)
(0.96277 0.0117795 0)
(0.963256 0.0157905 0)
(0.977301 0.0233254 0)
(0.987625 0.029078 0)
(0.98682 0.030981 0)
(0.98224 0.0321669 0)
(0.977205 0.0331587 0)
(0.970561 0.0339237 0)
(0.953015 0.0317215 0)
(0.926958 0.0242918 0)
(0.910545 0.0193963 0)
(0.901465 0.0167514 0)
(0.895361 0.0155327 0)
(0.890113 0.0151727 0)
(0.895004 0.0213722 0)
(0.910402 0.0377926 0)
(0.916186 0.0487033 0)
(0.913084 0.0530586 0)
(0.907612 0.0546272 0)
(0.901214 0.0553241 0)
(0.887936 0.0528533 0)
(0.861727 0.0388393 0)
(0.836989 0.0226054 0)
(0.821301 0.0126138 0)
(0.810529 0.00664942 0)
(0.802843 0.0024579 0)
(0.7967 0.00201105 0)
(0.799028 0.00969484 0)
(0.805933 0.0249068 0)
(0.806786 0.035971 0)
(0.802101 0.0406732 0)
(0.794248 0.0415927 0)
(0.782461 0.0369751 0)
(0.766163 0.0255957 0)
(0.744918 0.00715734 0)
(0.721795 -0.0182985 0)
(0.701569 -0.0397969 0)
(0.68863 -0.051688 0)
(0.684741 -0.0561451 0)
(0.695134 -0.0641319 0)
(0.703394 -0.0663357 0)
(0.0291447 -0.105602 0)
(-1.33846 -0.0787244 0)
(1.18905 -0.0928456 0)
(1.16354 -0.0927078 0)
(1.16044 -0.0924177 0)
(1.15678 -0.0930131 0)
(1.1546 -0.0934458 0)
(1.16291 -0.0910589 0)
(1.18129 -0.0817992 0)
(1.18753 -0.07427 0)
(1.18566 -0.0692142 0)
(1.18195 -0.0639475 0)
(1.17342 -0.0588605 0)
(1.16077 -0.0577566 0)
(1.15054 -0.0611483 0)
(1.14511 -0.0641582 0)
(1.14055 -0.067552 0)
(1.13656 -0.0706984 0)
(1.13273 -0.0713041 0)
(1.13104 -0.0662496 0)
(1.13031 -0.0562313 0)
(1.12899 -0.0433312 0)
(1.12781 -0.0328097 0)
(1.12588 -0.0301076 0)
(1.12374 -0.0301987 0)
(1.1232 -0.0323351 0)
(1.12192 -0.0362324 0)
(1.11917 -0.0405394 0)
(1.11495 -0.0442063 0)
(1.10863 -0.0465834 0)
(1.09851 -0.0438622 0)
(1.08693 -0.0356522 0)
(1.07709 -0.0269153 0)
(1.07136 -0.0212332 0)
(1.06842 -0.0167128 0)
(1.0743 -0.0109229 0)
(1.08268 -0.00958763 0)
(1.08606 -0.0120971 0)
(1.08565 -0.0144808 0)
(1.08259 -0.0158678 0)
(1.07828 -0.0163325 0)
(1.07075 -0.0166198 0)
(1.05133 -0.0157655 0)
(1.03349 -0.01214 0)
(1.02409 -0.00757577 0)
(1.01854 -0.00379264 0)
(1.01449 -0.000356275 0)
(1.01814 0.00397889 0)
(1.03283 0.00800024 0)
(1.03945 0.00955687 0)
(1.03752 0.00971641 0)
(1.03343 0.00994566 0)
(1.02888 0.0100179 0)
(1.02255 0.0108103 0)
(1.00521 0.0119855 0)
(0.98276 0.0110512 0)
(0.970372 0.00942475 0)
(0.964247 0.00870962 0)
(0.959451 0.0087193 0)
(0.956772 0.00966583 0)
(0.966631 0.0158783 0)
(0.980168 0.0261554 0)
(0.982135 0.0319558 0)
(0.978453 0.0341901 0)
(0.973444 0.0361852 0)
(0.967717 0.0379691 0)
(0.957185 0.0376616 0)
(0.935038 0.0292911 0)
(0.914502 0.0183599 0)
(0.902607 0.0127535 0)
(0.894844 0.0100959 0)
(0.888524 0.00875763 0)
(0.883663 0.0100272 0)
(0.890771 0.0219101 0)
(0.903585 0.0418047 0)
(0.906177 0.0527171 0)
(0.902321 0.0566316 0)
(0.896554 0.0574777 0)
(0.889257 0.0572193 0)
(0.874708 0.0511461 0)
(0.850761 0.0322732 0)
(0.829415 0.0136327 0)
(0.813991 0.00290757 0)
(0.801824 -0.00177374 0)
(0.793728 -0.00353107 0)
(0.787806 -0.00291166 0)
(0.789867 0.00557449 0)
(0.795413 0.0193452 0)
(0.796265 0.0278832 0)
(0.792557 0.0304152 0)
(0.785244 0.0301766 0)
(0.77474 0.0244233 0)
(0.760778 0.0124809 0)
(0.742095 -0.00751219 0)
(0.719449 -0.0340244 0)
(0.698816 -0.0539399 0)
(0.68726 -0.0649694 0)
(0.688204 -0.0762505 0)
(0.700448 -0.0817886 0)
(0.0339596 -0.0944382 0)
(-1.3422 -0.0772888 0)
(1.19276 -0.0822847 0)
(1.16767 -0.0858292 0)
(1.16197 -0.0902749 0)
(1.15727 -0.0950903 0)
(1.15401 -0.0984779 0)
(1.15374 -0.0998126 0)
(1.16396 -0.0911076 0)
(1.17471 -0.0732406 0)
(1.17697 -0.059705 0)
(1.17535 -0.0520966 0)
(1.17204 -0.0495631 0)
(1.16544 -0.0511388 0)
(1.15524 -0.0583853 0)
(1.14728 -0.0664276 0)
(1.14153 -0.071767 0)
(1.13627 -0.0736424 0)
(1.12986 -0.0728066 0)
(1.12207 -0.0679767 0)
(1.1163 -0.0589182 0)
(1.11415 -0.0461282 0)
(1.11711 -0.0324035 0)
(1.1216 -0.0247267 0)
(1.12459 -0.0251717 0)
(1.12596 -0.0305515 0)
(1.12474 -0.0362062 0)
(1.12157 -0.0401878 0)
(1.11697 -0.0437185 0)
(1.10568 -0.0469292 0)
(1.08894 -0.0445263 0)
(1.07456 -0.0364884 0)
(1.06575 -0.0282839 0)
(1.06034 -0.0224167 0)
(1.05785 -0.0170577 0)
(1.06744 -0.0103973 0)
(1.08258 -0.00710406 0)
(1.08678 -0.00870287 0)
(1.08493 -0.01106 0)
(1.08137 -0.0126995 0)
(1.07714 -0.0141479 0)
(1.06755 -0.0146806 0)
(1.04509 -0.0130072 0)
(1.02597 -0.0109164 0)
(1.01789 -0.00887203 0)
(1.01327 -0.00759413 0)
(1.00916 -0.00591589 0)
(1.01175 -0.00272527 0)
(1.02739 0.00379579 0)
(1.03683 0.00897629 0)
(1.03578 0.0113473 0)
(1.03168 0.0123643 0)
(1.027 0.0144243 0)
(1.02037 0.0177364 0)
(1.00581 0.0189925 0)
(0.985368 0.0154007 0)
(0.971476 0.010416 0)
(0.964135 0.00694273 0)
(0.958556 0.00424919 0)
(0.953267 0.0030309 0)
(0.953599 0.00598071 0)
(0.966166 0.0197082 0)
(0.973795 0.0327612 0)
(0.972981 0.0388115 0)
(0.969227 0.0411032 0)
(0.964494 0.0423548 0)
(0.958771 0.0426036 0)
(0.945709 0.036761 0)
(0.923946 0.0219741 0)
(0.906645 0.0104936 0)
(0.894797 0.00577475 0)
(0.885757 0.00497628 0)
(0.878867 0.00553955 0)
(0.874553 0.00861043 0)
(0.8825 0.0243561 0)
(0.894116 0.0454879 0)
(0.896022 0.0557014 0)
(0.892147 0.0584503 0)
(0.886962 0.0572344 0)
(0.880248 0.0551103 0)
(0.86643 0.0474221 0)
(0.842148 0.0290382 0)
(0.819642 0.0114839 0)
(0.803642 0.000943495 0)
(0.792025 -0.00476752 0)
(0.784295 -0.00720974 0)
(0.778832 -0.00670662 0)
(0.781726 0.00142236 0)
(0.78773 0.0129629 0)
(0.789106 0.0187446 0)
(0.786083 0.0191075 0)
(0.779334 0.0178648 0)
(0.76991 0.0111286 0)
(0.757548 -0.00221219 0)
(0.740127 -0.0228942 0)
(0.717776 -0.0483816 0)
(0.696527 -0.0657756 0)
(0.685645 -0.0802259 0)
(0.69548 -0.102203 0)
(0.0353829 -0.0869535 0)
(-1.34576 -0.0768956 0)
(1.19633 -0.0733613 0)
(1.17644 -0.0785699 0)
(1.16616 -0.0894743 0)
(1.16054 -0.0962703 0)
(1.15615 -0.0993762 0)
(1.15225 -0.099999 0)
(1.14902 -0.0968252 0)
(1.15262 -0.0822748 0)
(1.16188 -0.0604064 0)
(1.16686 -0.0470392 0)
(1.16735 -0.0427783 0)
(1.16453 -0.0435855 0)
(1.1608 -0.0484548 0)
(1.15323 -0.0583028 0)
(1.14456 -0.0671383 0)
(1.13608 -0.0715494 0)
(1.12516 -0.0713644 0)
(1.11232 -0.0658926 0)
(1.10356 -0.0582045 0)
(1.09906 -0.0515598 0)
(1.10068 -0.0404028 0)
(1.11382 -0.0266943 0)
(1.12631 -0.0223693 0)
(1.1301 -0.0253342 0)
(1.12861 -0.0298684 0)
(1.12504 -0.034008 0)
(1.1194 -0.0384237 0)
(1.10341 -0.0428573 0)
(1.07859 -0.0416499 0)
(1.06285 -0.0363423 0)
(1.05634 -0.0318202 0)
(1.05235 -0.0281065 0)
(1.0502 -0.0242078 0)
(1.06039 -0.018127 0)
(1.08096 -0.0114077 0)
(1.08744 -0.00918886 0)
(1.08468 -0.00929091 0)
(1.08047 -0.0091561 0)
(1.07604 -0.00775719 0)
(1.06536 -0.00462875 0)
(1.04295 -0.00306242 0)
(1.02467 -0.00436569 0)
(1.01648 -0.00676863 0)
(1.01146 -0.00857906 0)
(1.00708 -0.0105301 0)
(1.0062 -0.0121366 0)
(1.01765 -0.0067061 0)
(1.03014 0.00414358 0)
(1.03101 0.0106012 0)
(1.02724 0.0154471 0)
(1.02186 0.0209538 0)
(1.01638 0.0246648 0)
(1.0092 0.0251617 0)
(0.993821 0.0177122 0)
(0.976731 0.00665727 0)
(0.965081 0.000264934 0)
(0.957342 -0.00198965 0)
(0.95135 -0.00223256 0)
(0.946138 -0.00127458 0)
(0.947524 0.00752298 0)
(0.95993 0.0272046 0)
(0.965752 0.0402256 0)
(0.964702 0.0449928 0)
(0.961196 0.0459533 0)
(0.956963 0.0453702 0)
(0.951388 0.043208 0)
(0.936666 0.032815 0)
(0.914052 0.0162159 0)
(0.896786 0.0063076 0)
(0.884522 0.00289838 0)
(0.875014 0.00251139 0)
(0.868427 0.00329222 0)
(0.864962 0.00648729 0)
(0.874604 0.0222049 0)
(0.887616 0.0422892 0)
(0.891174 0.0505892 0)
(0.887329 0.0525259 0)
(0.880969 0.0527811 0)
(0.872758 0.0515608 0)
(0.857595 0.044292 0)
(0.833905 0.0260269 0)
(0.811181 0.00743337 0)
(0.794516 -0.00350839 0)
(0.782908 -0.00871348 0)
(0.775731 -0.0109557 0)
(0.771462 -0.0105798 0)
(0.776501 -0.00292926 0)
(0.783487 0.0060619 0)
(0.784826 0.00909935 0)
(0.78161 0.00821366 0)
(0.775194 0.00649105 0)
(0.76615 -0.00166868 0)
(0.755406 -0.0163338 0)