/*--------------------------------*- C++ -*----------------------------------*\
  =========                 |
  \\      /  F ield         | OpenFOAM: The Open Source CFD Toolbox
   \\    /   O peration     | Website:  https://openfoam.org
    \\  /    A nd           | Version:  12
     \\/     M anipulation  |
\*---------------------------------------------------------------------------*/
FoamFile
{
    format      ascii;
    class       volVectorField;
    location    "5.39";
    object      U;
}
// * * * * * * * * * * * * * * * * * * * * * * * * * * * * * * * * * * * * * //

dimensions      [0 1 -1 0 0 0 0];

internalField   nonuniform List<vector> 
22702
(
(2 7.66632e-14 0)
(2 1.06097e-14 0)
(2.0379 -0.0916297 0)
(2 -1.1539e-09 0)
(1.97736 0.0338483 0)
(2 -4.22097e-14 0)
(1.82766 0.228355 0)
(2 -6.06227e-14 0)
(2 2.36086e-13 0)
(2.14084 -0.267402 0)
(1.83009 0.228573 0)
(1.82852 0.228775 0)
(2 1.26149e-13 0)
(1.83148 0.229341 0)
(2.03102 -0.0744122 0)
(2 -1.97084e-13 0)
(2 -2.63773e-13 0)
(2 -3.47654e-14 0)
(1.82982 0.228541 0)
(2 5.89983e-15 0)
(1.83153 0.22929 0)
(2 -5.31548e-14 0)
(1.82885 0.228372 0)
(2.11348 -0.265851 0)
(1.83104 0.229514 0)
(2.09801 -0.266973 0)
(2 6.43891e-14 0)
(1.82665 0.228178 0)
(2.13202 -0.268684 0)
(2.11725 -0.268303 0)
(2 6.42173e-14 0)
(1.83029 0.229007 0)
(2 7.4794e-15 0)
(2 -8.80815e-15 0)
(2 -1.50865e-13 0)
(1.84429 0.215437 0)
(1.8339 0.228298 0)
(1.82915 0.229123 0)
(2 -2.45553e-13 0)
(2 -3.03906e-13 0)
(2.14536 -0.267506 0)
(2 -1.70981e-14 0)
(1.91562 0.126653 0)
(2 -1.98328e-13 0)
(1.82639 0.227713 0)
(2 -1.61575e-14 0)
(2 2.28079e-13 0)
(2 -8.77129e-14 0)
(2 -9.45532e-14 0)
(2.11709 -0.265365 0)
(2 -3.67852e-15 0)
(2.11936 -0.267035 0)
(2 -2.35809e-13 0)
(1.8302 0.228522 0)
(2 -5.90917e-14 0)
(1.83125 0.229043 0)
(2 2.09217e-13 0)
(2 1.47116e-09 0)
(2 1.10704e-13 0)
(2 -1.63287e-13 0)
(2.10858 -0.272059 0)
(2 1.18351e-14 0)
(2 1.55057e-13 0)
(2.11106 -0.263221 0)
(2 5.25494e-14 0)
(2.10638 -0.258999 0)
(2 3.08051e-13 0)
(2 -1.63265e-14 0)
(2 -4.22628e-15 0)
(2.11448 -0.260695 0)
(2 9.4975e-14 0)
(1.83051 0.229064 0)
(1.89653 0.150812 0)
(2 1.35548e-09 0)
(1.8326 0.22941 0)
(1.82447 0.238808 0)
(2.11342 -0.26363 0)
(1.82816 0.22821 0)
(2.10099 -0.262887 0)
(2 1.0521e-13 0)
(1.83008 0.228971 0)
(2.11688 -0.261136 0)
(1.83142 0.228946 0)
(1.82954 0.229041 0)
(2 -9.29593e-14 0)
(2 1.00767e-06 0)
(2 3.13477e-14 0)
(2 -1.02945e-13 0)
(2.01833 -0.0525358 0)
(2.12587 -0.262216 0)
(1.83319 0.228613 0)
(2 -1.76709e-13 0)
(2 -4.9761e-11 0)
(2.11505 -0.260442 0)
(2 -2.58566e-14 0)
(1.83186 0.229132 0)
(2.12042 -0.262553 0)
(2 2.51634e-08 0)
(2 3.6853e-15 0)
(2 1.72961e-14 0)
(2 4.59046e-15 0)
(1.9176 0.124542 0)
(1.82961 0.228639 0)
(2.1077 -0.269385 0)
(2 5.02686e-10 0)
(2 -9.83937e-10 0)
(1.95751 0.0648396 0)
(2 9.25318e-09 0)
(2.11311 -0.261643 0)
(2 -6.27862e-14 0)
(1.82835 0.228491 0)
(1.82973 0.228636 0)
(2 4.31035e-09 0)
(2 -3.06708e-14 0)
(2.1292 -0.2767 0)
(2.12856 -0.273012 0)
(2.13086 -0.263451 0)
(2 1.06206e-13 0)
(2 -1.4922e-07 0)
(2 -1.13091e-14 0)
(2 1.47424e-14 0)
(2 1.13364e-07 0)
(2.02354 -0.0573272 0)
(2 -1.02709e-07 0)
(1.85471 0.202723 0)
(1.98125 0.0233404 0)
(1.82975 0.228802 0)
(2 -1.03389e-13 0)
(1.832 0.229309 0)
(1.82966 0.228647 0)
(1.8317 0.22869 0)
(1.83081 0.22884 0)
(2 -1.72576e-14 0)
(2.11845 -0.269124 0)
(2 -9.25532e-14 0)
(2.10998 -0.263132 0)
(2 -4.86183e-14 0)
(2 -4.28521e-14 0)
(2 9.61298e-15 0)
(2 -5.58882e-14 0)
(1.82955 0.228715 0)
(2 2.9519e-09 0)
(2 -3.54351e-14 0)
(2 -8.90058e-15 0)
(2 1.18673e-13 0)
(1.83262 0.229329 0)
(2 9.11961e-14 0)
(1.99509 0.0142078 0)
(2 8.23539e-14 0)
(2 -7.40937e-14 0)
(2 -6.71081e-11 0)
(2 -3.35268e-15 0)
(2.11434 -0.264895 0)
(2 -2.00037e-14 0)
(1.99537 0.00943512 0)
(2 -5.77246e-14 0)
(2.10853 -0.263264 0)
(2 -4.17077e-14 0)
(2 -4.84224e-14 0)
(2 2.27881e-14 0)
(1.8328 0.229163 0)
(2 3.07565e-14 0)
(1.82952 0.22847 0)
(2.11199 -0.281373 0)
(2.10764 -0.271584 0)
(1.83183 0.228999 0)
(1.82893 0.228122 0)
(2 4.17717e-14 0)
(1.97004 0.0468167 0)
(1.90346 0.142121 0)
(2 3.48365e-15 0)
(1.83113 0.228929 0)
(2.09805 -0.264865 0)
(1.84441 0.215155 0)
(2 4.3725e-14 0)
(2 4.08907e-14 0)
(2 2.32931e-14 0)
(2 -1.9513e-13 0)
(1.83149 0.229571 0)
(1.86896 0.191792 0)
(2 5.24605e-14 0)
(1.82976 0.228302 0)
(2.09045 -0.256118 0)
(1.83119 0.229022 0)
(2 1.77413e-13 0)
(2.09897 -0.262351 0)
(2 1.87562e-13 0)
(2.11693 -0.267161 0)
(2.09495 -0.26852 0)
(2.00009 -0.000151526 0)
(2 -3.05278e-13 0)
(2 2.66819e-13 0)
(1.82891 0.229657 0)
(2 7.75647e-14 0)
(2 -5.47172e-14 0)
(1.83195 0.22902 0)
(2 5.47654e-14 0)
(1.83166 0.228873 0)
(1.82956 0.228619 0)
(2.11185 -0.277671 0)
(2 -1.83649e-14 0)
(2 -4.93067e-14 0)
(2.11588 -0.263204 0)
(1.83198 0.229225 0)
(2 -1.16941e-13 0)
(2 -5.75189e-14 0)
(2 2.29764e-14 0)
(1.83192 0.229179 0)
(2 1.2941e-13 0)
(2.1124 -0.270243 0)
(2 -6.26514e-11 0)
(2 7.63997e-16 0)
(1.83168 0.228923 0)
(1.83138 0.228937 0)
(1.83045 0.228727 0)
(2 4.51699e-14 0)
(1.99999 2.52693e-05 0)
(2 4.72688e-14 0)
(2 1.4484e-14 0)
(2 -1.68269e-13 0)
(1.83167 0.228744 0)
(2 -9.11294e-15 0)
(2.0926 -0.25824 0)
(1.82614 0.235754 0)
(1.832 0.229044 0)
(1.83144 0.22833 0)
(2 1.97242e-07 0)
(2 -8.80578e-14 0)
(2 -3.54937e-13 0)
(2.1087 -0.271861 0)
(1.83205 0.229385 0)
(1.91685 0.133105 0)
(2 6.97929e-14 0)
(1.83132 0.229629 0)
(2.09827 -0.262256 0)
(2.09927 -0.266524 0)
(1.83134 0.229644 0)
(1.83147 0.228771 0)
(2 2.50203e-14 0)
(1.8291 0.233434 0)
(2.12742 -0.271699 0)
(1.85146 0.205955 0)
(2 -8.85776e-14 0)
(2 9.50593e-14 0)
(2 -3.18875e-13 0)
(2 -5.2448e-15 0)
(1.8319 0.229066 0)
(2 5.6297e-14 0)
(1.90666 0.134973 0)
(1.98196 0.0300911 0)
(2 -8.46332e-14 0)
(2 -2.16025e-13 0)
(1.8316 0.22916 0)
(2.1305 -0.26563 0)
(2.06393 -0.164109 0)
(2 -6.44735e-14 0)
(1.83088 0.230228 0)
(2.12739 -0.259487 0)
(1.82995 0.229535 0)
(2 -1.22569e-14 0)
(2 6.98577e-15 0)
(2 -1.66347e-13 0)
(2 -9.10793e-14 0)
(2 -7.65481e-14 0)
(2 -1.64469e-13 0)
(2 -1.48544e-16 0)
(2.10287 -0.264746 0)
(2.07294 -0.162366 0)
(2.09298 -0.266068 0)
(1.83129 0.229008 0)
(2 6.79312e-14 0)
(2 1.92241e-13 0)
(2 -1.69589e-07 0)
(2 -3.67006e-13 0)
(1.84886 0.211063 0)
(2 -1.79236e-07 0)
(2.10174 -0.266292 0)
(2 -4.75904e-14 0)
(2.124 -0.281824 0)
(2.10371 -0.261399 0)
(1.8318 0.229438 0)
(2.10742 -0.261549 0)
(1.83172 0.229252 0)
(2 -1.49563e-14 0)
(2 -2.56446e-13 0)
(2 -1.83816e-13 0)
(2.00087 -0.00166103 0)
(2.09937 -0.259915 0)
(2.12687 -0.274717 0)
(2 -3.28382e-07 0)
(2 -1.44387e-07 0)
(2.1175 -0.281418 0)
(2 2.41289e-09 0)
(1.82936 0.228717 0)
(2.11883 -0.263994 0)
(2 -6.89966e-14 0)
(2 -3.38378e-11 0)
(1.83079 0.228923 0)
(2.12231 -0.280723 0)
(2 -1.9721e-13 0)
(1.83545 0.226987 0)
(2.10457 -0.271434 0)
(1.83193 0.229287 0)
(2 -4.21097e-15 0)
(2.11749 -0.284914 0)
(2.00089 -0.00151787 0)
(2 -6.44542e-14 0)
(2 2.91318e-06 0)
(2 2.82286e-14 0)
(2.11162 -0.262291 0)
(2 -9.18977e-14 0)
(2 -1.74536e-07 0)
(2 -4.03309e-07 0)
(1.99999 9.34075e-06 0)
(1.99516 0.000441058 0)
(1.89733 0.148728 0)
(2 -2.29528e-11 0)
(2.1132 -0.249792 0)
(2 -1.59946e-11 0)
(2 1.67297e-06 0)
(2 -5.54333e-14 0)
(2 1.36538e-14 0)
(2 -2.91631e-14 0)
(2 1.44391e-13 0)
(2 -5.15603e-13 0)
(1.83074 0.228909 0)
(2 3.49106e-13 0)
(1.82886 0.228454 0)
(2 -2.60509e-14 0)
(2 2.85624e-14 0)
(2 -4.58029e-15 0)
(2.12096 -0.263313 0)
(2 -2.87784e-14 0)
(1.83232 0.228839 0)
(2.09835 -0.261663 0)
(2 2.52776e-14 0)
(1.87398 0.175912 0)
(2 -3.10262e-14 0)
(2 -9.04075e-14 0)
(1.82996 0.228798 0)
(2 -1.07277e-13 0)
(2 -1.09023e-08 0)
(2 -1.64454e-15 0)
(1.83103 0.226862 0)
(2 5.56483e-10 0)
(2 7.81408e-14 0)
(1.82924 0.229674 0)
(1.82994 0.228728 0)
(2 1.40018e-13 0)
(1.96347 0.0531869 0)
(2 4.73302e-15 0)
(2 -5.11474e-14 0)
(2.11599 -0.263141 0)
(2 -1.64607e-13 0)
(2 -2.25328e-14 0)
(2 -2.00912e-14 0)
(2.11004 -0.25933 0)
(2 -8.1491e-14 0)
(2 1.57402e-13 0)
(2 1.45974e-14 0)
(2 5.36212e-14 0)
(2.12267 -0.260841 0)
(2 -7.06171e-14 0)
(2 -6.1045e-14 0)
(2 -2.16456e-13 0)
(2 1.12808e-13 0)
(2 2.33482e-13 0)
(2.15819 -0.263819 0)
(1.99998 4.17174e-05 0)
(1.82895 0.228423 0)
(2 4.74061e-14 0)
(1.99998 -4.09946e-06 0)
(1.82937 0.228871 0)
(1.83131 0.228744 0)
(2 2.4536e-13 0)
(2 1.70415e-13 0)
(2.10635 -0.283463 0)
(2.065 -0.126068 0)
(1.82912 0.228444 0)
(2 -3.25185e-14 0)
(2 -1.64825e-13 0)
(2 7.62106e-14 0)
(1.83224 0.229309 0)
(2.11035 -0.262528 0)
(2 6.89548e-14 0)
(1.82983 0.228504 0)
(2 -1.13098e-13 0)
(2 -7.48529e-14 0)
(2.10317 -0.221158 0)
(2.10642 -0.219473 0)
(2 -2.92306e-13 0)
(2.10337 -0.258952 0)
(2.11122 -0.265225 0)
(2 3.51123e-14 0)
(2 -4.94585e-14 0)
(2 -1.44022e-13 0)
(2 -1.25058e-13 0)
(2 -9.19735e-11 0)
(2 -5.64903e-14 0)
(2 6.07136e-14 0)
(1.82702 0.228646 0)
(1.95726 0.0656625 0)
(1.84533 0.21025 0)
(2.15454 -0.261066 0)
(2.03275 -0.0640117 0)
(1.82986 0.229032 0)
(2 -6.3055e-13 0)
(1.83329 0.229098 0)
(1.82933 0.228506 0)
(2.10346 -0.269486 0)
(2.07089 -0.155353 0)
(2 8.67532e-13 0)
(2.11499 -0.260276 0)
(2 8.57474e-14 0)
(1.82276 0.236077 0)
(2 -1.65517e-13 0)
(2 1.56503e-14 0)
(2 -1.68237e-13 0)
(2 1.05602e-13 0)
(1.832 0.22925 0)
(2 -2.3635e-13 0)
(2 -8.66968e-14 0)
(2 -4.21661e-14 0)
(2 1.53163e-09 0)
(2 1.823e-14 0)
(2 -2.70434e-13 0)
(2 -2.32354e-15 0)
(1.93859 0.0891116 0)
(1.83169 0.228261 0)
(2 1.61861e-13 0)
(1.83132 0.228947 0)
(2 1.67317e-13 0)
(2 -3.4234e-15 0)
(2.11413 -0.259975 0)
(2 1.33043e-13 0)
(2 -5.71037e-14 0)
(2 -2.35712e-13 0)
(2 -6.35785e-14 0)
(1.8318 0.229198 0)
(1.87232 0.179289 0)
(2 8.02917e-14 0)
(2 4.55691e-14 0)
(2.10224 -0.263085 0)
(1.83175 0.229076 0)
(1.8316 0.228973 0)
(2 -3.10216e-13 0)
(1.83164 0.228989 0)
(1.83183 0.229076 0)
(1.83136 0.228911 0)
(2 -7.64972e-14 0)
(2.0595 -0.111739 0)
(2 2.00346e-13 0)
(1.83157 0.228743 0)
(2.0065 -0.011561 0)
(1.83137 0.228933 0)
(2 -8.4608e-14 0)
(2.09499 -0.262039 0)
(2.00041 -0.000621449 0)
(1.83002 0.22837 0)
(2 1.23486e-13 0)
(2 -3.29185e-14 0)
(2 -6.15844e-11 0)
(2 -2.4075e-11 0)
(2.10615 -0.259422 0)
(1.83185 0.229515 0)
(1.84774 0.210914 0)
(2 -1.04016e-13 0)
(1.82964 0.230683 0)
(1.83223 0.229268 0)
(1.82921 0.228534 0)
(2 3.39748e-14 0)
(1.92011 0.112735 0)
(1.83226 0.228123 0)
(2 4.14508e-14 0)
(2 -1.00602e-13 0)
(1.88068 0.17072 0)
(1.97899 0.040672 0)
(1.83163 0.228889 0)
(2.01984 -0.0477034 0)
(1.83158 0.228916 0)
(2 2.29196e-14 0)
(1.83149 0.22897 0)
(1.83128 0.229065 0)
(1.83144 0.22897 0)
(1.83135 0.228961 0)
(2 -9.36345e-14 0)
(1.83253 0.229128 0)
(2.02821 -0.0592882 0)
(2.03661 -0.072234 0)
(2 2.17526e-14 0)
(2 -3.8975e-07 0)
(2 -1.25882e-13 0)
(2 6.0767e-14 0)
(1.83021 0.228448 0)
(2 4.31251e-14 0)
(2 1.08497e-13 0)
(2 -2.81411e-14 0)
(2 -5.58911e-15 0)
(2 6.16606e-14 0)
(1.82977 0.228272 0)
(2 4.44167e-14 0)
(2 6.77934e-14 0)
(2.00143 -0.00247177 0)
(1.83157 0.229047 0)
(1.84646 0.227559 0)
(2 -3.06118e-14 0)
(1.8634 0.19127 0)
(1.99998 2.81947e-05 0)
(2 1.23692e-13 0)
(2 -2.39105e-14 0)
(1.83068 0.228681 0)
(2 7.98271e-14 0)
(2.00271 -0.00304349 0)
(1.99804 0.00456115 0)
(2 -1.99722e-14 0)
(1.83145 0.228988 0)
(2 -4.4853e-14 0)
(1.83235 0.228675 0)
(2 -5.04299e-14 0)
(2 5.64439e-14 0)
(1.8749 0.177557 0)
(2 9.85272e-15 0)
(1.83212 0.228355 0)
(1.99999 1.26599e-05 0)
(2 1.33951e-13 0)
(1.83189 0.228667 0)
(2 8.94838e-14 0)
(1.83167 0.229185 0)
(2 1.19563e-13 0)
(2 3.09916e-06 0)
(2 9.54682e-14 0)
(1.83196 0.229067 0)
(2 -8.63327e-14 0)
(1.83186 0.227364 0)
(2 4.48278e-06 0)
(1.83194 0.229146 0)
(1.82925 0.228507 0)
(1.83161 0.228975 0)
(1.8274 0.228307 0)
(2 3.14375e-14 0)
(1.83045 0.22853 0)
(1.83022 0.235078 0)
(2 1.50012e-13 0)
(2.11516 -0.266025 0)
(1.84133 0.217729 0)
(1.87772 0.172419 0)
(2 -2.98785e-14 0)
(1.83203 0.229093 0)
(2 1.18162e-13 0)
(2.12592 -0.266193 0)
(2.10242 -0.26985 0)
(2 1.79019e-13 0)
(2 2.32198e-14 0)
(2 6.88063e-14 0)
(2 -2.13483e-14 0)
(2 2.16575e-09 0)
(2.13106 -0.264508 0)
(2 -5.63479e-15 0)
(1.83131 0.228978 0)
(1.95624 0.0684673 0)
(1.831 0.228744 0)
(2 -9.27758e-14 0)
(2 7.33906e-11 0)
(2 -1.63017e-13 0)
(2 -1.8852e-13 0)
(2 -5.27515e-08 0)
(1.83125 0.229093 0)
(2 -9.41324e-14 0)
(1.82918 0.230322 0)
(1.90032 0.143809 0)
(2.07639 -0.152004 0)
(2 1.3344e-09 0)
(1.99999 8.10007e-06 0)
(1.9468 0.0799508 0)
(1.95872 0.0671529 0)
(2 -1.14871e-13 0)
(2 -3.06802e-14 0)
(1.9381 0.0913401 0)
(2 7.26823e-14 0)
(2.1041 -0.260182 0)
(1.83174 0.229051 0)
(1.83169 0.228937 0)
(2 -7.42425e-11 0)
(2 1.04016e-13 0)
(2 -6.92342e-14 0)
(1.82867 0.228375 0)
(2 -7.96157e-14 0)
(1.99999 1.54798e-05 0)
(1.83348 0.228192 0)
(1.83186 0.229417 0)
(2.01081 -0.0267969 0)
(2 7.31529e-14 0)
(2 1.37614e-10 0)
(2.11827 -0.264511 0)
(1.84701 0.210264 0)
(2 -7.74149e-14 0)
(2 -6.77764e-14 0)
(2 7.29531e-14 0)
(2 -2.77357e-11 0)
(2 -1.7824e-13 0)
(1.83154 0.229093 0)
(1.83072 0.228612 0)
(2 2.0561e-14 0)
(1.83173 0.229476 0)
(1.83148 0.227912 0)
(1.83167 0.229091 0)
(2 7.02461e-14 0)
(2 9.67979e-15 0)
(2 -6.51652e-11 0)
(2 -2.17224e-13 0)
(2.10294 -0.267192 0)
(1.83 0.228902 0)
(2 -4.85225e-11 0)
(2 -4.46171e-14 0)
(1.84755 0.211547 0)
(1.83211 0.228252 0)
(2 -2.02258e-13 0)
(1.84164 0.218119 0)
(1.83341 0.228933 0)
(2 1.45239e-13 0)
(2 -2.15306e-07 0)
(2 8.84156e-11 0)
(2 -9.23102e-14 0)
(2 -1.14999e-13 0)
(1.83149 0.228936 0)
(2 5.38633e-14 0)
(2 -1.49084e-13 0)
(2 -1.1645e-13 0)
(2 -6.51896e-14 0)
(1.83228 0.229335 0)
(2 -2.22547e-13 0)
(1.8329 0.226939 0)
(2.11515 -0.261553 0)
(2 -4.99624e-14 0)
(2.11189 -0.267565 0)
(2 -1.09956e-13 0)
(2 -1.42161e-07 0)
(2 -4.08731e-14 0)
(2.00117 -0.00170898 0)
(2.11467 -0.268704 0)
(2.00035 -0.000593991 0)
(2 1.10398e-13 0)
(2 3.19364e-14 0)
(2 -1.17678e-07 0)
(1.97559 0.0363642 0)
(2 5.90975e-15 0)
(2 -1.45285e-13 0)
(2.04918 -0.0930687 0)
(2 -2.16415e-07 0)
(2 -6.14367e-14 0)
(2 -1.05684e-13 0)
(2 -2.16387e-07 0)
(2 3.10653e-07 0)
(2 -7.22388e-08 0)
(2 -1.01864e-13 0)
(2 -1.68674e-06 0)
(2.02452 -0.0516052 0)
(2 -4.7234e-07 0)
(2 -3.84839e-08 0)
(2.00088 -0.00137904 0)
(2 -3.24909e-14 0)
(2.10101 -0.260805 0)
(2 -2.85248e-11 0)
(2 -4.32773e-12 0)
(2 -2.04794e-11 0)
(2 1.68736e-13 0)
(1.87454 0.17662 0)
(2 -1.2288e-13 0)
(2 2.05928e-13 0)
(2 -8.17789e-14 0)
(2 -1.68384e-07 0)
(2.09555 -0.257684 0)
(2 -1.28324e-14 0)
(2 1.61348e-09 0)
(1.84053 0.217864 0)
(1.83013 0.22886 0)
(2 -2.94099e-07 0)
(2 3.03632e-13 0)
(2 -1.13087e-07 0)
(2.03508 -0.0686502 0)
(2 1.26866e-13 0)
(2 4.60832e-10 0)
(2 2.20711e-13 0)
(2 -5.76772e-14 0)
(2 3.55292e-14 0)
(2 4.3812e-14 0)
(2.01098 -0.0287409 0)
(1.99469 0.00109407 0)
(1.83189 0.228997 0)
(2 8.18774e-14 0)
(2 2.18936e-14 0)
(2 3.61315e-14 0)
(1.83119 0.227823 0)
(2.02641 -0.0673064 0)
(2 -4.9444e-09 0)
(2 2.11205e-14 0)
(2 1.89263e-13 0)
(1.82695 0.228144 0)
(1.83027 0.227248 0)
(2 -2.83276e-08 0)
(2 4.64665e-06 0)
(2 3.60043e-09 0)
(2 2.58984e-14 0)
(2 1.18579e-09 0)
(2 1.1569e-14 0)
(2 -2.39756e-11 0)
(2 1.79308e-13 0)
(2 -1.34086e-13 0)
(2.11555 -0.265716 0)
(2 -9.41126e-14 0)
(2 -1.5846e-11 0)
(1.82975 0.228987 0)
(2.10961 -0.262946 0)
(2 -1.75138e-13 0)
(1.82972 0.228118 0)
(2 6.33558e-11 0)
(2.10926 -0.262655 0)
(2 2.22856e-14 0)
(2 4.83971e-14 0)
(2.11404 -0.26708 0)
(2 -6.84301e-15 0)
(2 -1.09053e-11 0)
(2 -5.16446e-12 0)
(2 1.44926e-14 0)
(2 -2.59936e-12 0)
(2 -1.08258e-13 0)
(2 2.44263e-13 0)
(1.83477 0.225183 0)
(1.83187 0.228674 0)
(2 4.20288e-13 0)
(2 1.85828e-14 0)
(2 1.64356e-15 0)
(2 5.54819e-13 0)
(1.8466 0.212676 0)
(2 3.47995e-13 0)
(1.94875 0.08469 0)
(2.11077 -0.263739 0)
(2 -3.29615e-08 0)
(2 2.1738e-13 0)
(2 -7.1571e-14 0)
(2 -9.19487e-14 0)
(2 -9.98529e-14 0)
(2 -2.59175e-14 0)
(2 8.98513e-15 0)
(1.98072 0.026083 0)
(2 1.58713e-14 0)
(2 -1.18563e-13 0)
(1.90674 0.124119 0)
(2 -2.10507e-14 0)
(2 1.5828e-13 0)
(2 -2.42692e-14 0)
(1.8604 0.194764 0)
(2 -5.77321e-14 0)
(2 2.60885e-13 0)
(2 -1.48448e-13 0)
(2 3.79975e-14 0)
(2.12339 -0.260571 0)
(2 1.01012e-12 0)
(2 3.2444e-13 0)
(2.11726 -0.279746 0)
(2.12018 -0.2624 0)
(2 -1.23895e-13 0)
(2 -2.39847e-13 0)
(1.83218 0.229106 0)
(2 -1.22251e-13 0)
(1.98626 -0.0240485 0)
(2 -1.10968e-14 0)
(2 1.30589e-13 0)
(2 1.74939e-13 0)
(1.88251 0.170399 0)
(2.1096 -0.274836 0)
(2 -4.06582e-15 0)
(2.1132 -0.282251 0)
(2 -1.73895e-13 0)
(2.06962 -0.148092 0)
(2 -1.8328e-14 0)
(2 -1.11893e-13 0)
(2 -3.44323e-14 0)
(1.83047 0.229777 0)
(2 -4.16514e-08 0)
(2 -7.88896e-14 0)
(1.83148 0.22868 0)
(2 -1.92206e-13 0)
(2 -2.15607e-11 0)
(2 1.70589e-09 0)
(1.83134 0.228721 0)
(2 2.27104e-10 0)
(2 1.36848e-14 0)
(1.83135 0.228734 0)
(2 -1.09108e-13 0)
(2 5.46135e-14 0)
(2.09736 -0.264161 0)
(2 -1.76279e-11 0)
(1.94284 0.0873337 0)
(2 1.44694e-13 0)
(2 8.05001e-14 0)
(1.82968 0.229019 0)
(1.83026 0.228756 0)
(1.8863 0.164003 0)
(1.84905 0.209553 0)
(2 1.03191e-13 0)
(2.10465 -0.268122 0)
(2 -3.52945e-14 0)
(2 4.43635e-14 0)
(1.83901 0.220468 0)
(2 1.02572e-13 0)
(2.12278 -0.261848 0)
(2 -4.21564e-14 0)
(2 -4.90126e-14 0)
(2 -1.69395e-14 0)
(1.83146 0.229391 0)
(2 1.35922e-13 0)
(2 -1.74156e-14 0)
(2 1.69827e-13 0)
(2 1.90714e-13 0)
(1.89966 0.144636 0)
(2 4.41699e-15 0)
(1.8493 0.203369 0)
(1.83066 0.228866 0)
(2.11446 -0.261672 0)
(2 5.49765e-14 0)
(2 -1.36398e-13 0)
(2.09632 -0.271161 0)
(2.09666 -0.269558 0)
(2 1.44265e-13 0)
(2 1.23618e-13 0)
(2 -6.01256e-12 0)
(1.87794 0.174675 0)
(1.87302 0.1795 0)
(2 -1.51818e-13 0)
(2 -3.19306e-14 0)
(2 -2.33457e-13 0)
(2 1.81411e-13 0)
(2 1.97792e-13 0)
(2 -3.67332e-14 0)
(2 -1.03047e-13 0)
(1.92903 0.105017 0)
(1.82838 0.228662 0)
(1.9943 -0.00381239 0)
(2 -1.56099e-14 0)
(1.8341 0.227205 0)
(2.10843 -0.264916 0)
(2 3.35526e-14 0)
(2 8.67316e-14 0)
(2 -4.81295e-14 0)
(1.90826 0.136174 0)
(2 -1.92683e-14 0)
(1.96687 0.0542803 0)
(2 -8.4674e-15 0)
(1.84553 0.212619 0)
(1.83239 0.228024 0)
(2 -7.85575e-14 0)
(2.08979 -0.265417 0)
(2 6.61373e-14 0)
(1.83159 0.229016 0)
(2 -1.41181e-14 0)
(2 1.10069e-14 0)
(1.83183 0.228739 0)
(1.84264 0.217066 0)
(2 -3.74308e-14 0)
(1.82709 0.229576 0)
(2 -2.0805e-13 0)
(2.12032 -0.268323 0)
(2 1.25018e-13 0)
(2 -1.80539e-13 0)
(2 6.66668e-14 0)
(1.82841 0.231235 0)
(1.83518 0.225319 0)
(1.85206 0.204224 0)
(2 2.47286e-13 0)
(1.83053 0.230897 0)
(1.83191 0.229035 0)
(2 3.20497e-14 0)
(1.83118 0.22969 0)
(2 -9.87441e-09 0)
(1.83232 0.228119 0)
(2 -1.43397e-13 0)
(2.12763 -0.259666 0)
(2.00936 -0.0196123 0)
(2.1272 -0.263747 0)
(2 -3.49844e-11 0)
(2 -2.18276e-11 0)
(2 -3.39178e-11 0)
(2 6.39121e-16 0)
(2 -1.44443e-11 0)
(1.83115 0.228644 0)
(2 1.22639e-13 0)
(1.83132 0.228887 0)
(2 -3.9546e-11 0)
(2 -9.68453e-11 0)
(2 4.15607e-14 0)
(1.84004 0.22016 0)
(2 1.22528e-13 0)
(2.12129 -0.265519 0)
(1.83157 0.228841 0)
(2 -1.30834e-14 0)
(2.1154 -0.26424 0)
(2.10467 -0.244201 0)
(2.10215 -0.25415 0)
(2 -1.60685e-13 0)
(1.91457 0.126987 0)
(1.98244 0.0256438 0)
(1.83075 0.229571 0)
(1.83182 0.229189 0)
(2 9.35154e-14 0)
(2 -3.80448e-07 0)
(2 -1.08446e-07 0)
(2 -1.20633e-13 0)
(1.83148 0.229067 0)
(2 -8.41129e-14 0)
(2 1.39857e-13 0)
(1.83142 0.229009 0)
(1.83175 0.228998 0)
(2 -4.90133e-14 0)
(1.94227 0.0854493 0)
(1.99972 0.000787439 0)
(2 1.89505e-14 0)
(2.0012 -0.00199714 0)
(1.83335 0.229019 0)
(2.05648 -0.103573 0)
(2 -1.2366e-07 0)
(2.06951 -0.129743 0)
(2.10042 -0.2594 0)
(2.11307 -0.26345 0)
(2.00801 -0.0690555 0)
(1.82758 0.227915 0)
(1.83419 0.226329 0)
(1.96616 0.0466072 0)
(1.83155 0.22901 0)
(1.83138 0.228995 0)
(2 -6.37873e-14 0)
(2 -8.13792e-14 0)
(1.8275 0.228655 0)
(1.82934 0.229687 0)
(1.83134 0.228684 0)
(1.82849 0.228025 0)
(2 -4.4018e-14 0)
(1.83129 0.228917 0)
(2.12373 -0.265825 0)
(1.83177 0.228308 0)
(1.83025 0.228782 0)
(1.82989 0.227781 0)
(1.83134 0.230406 0)
(2.04903 -0.0922556 0)
(2.03286 -0.068743 0)
(2.02415 -0.0567918 0)
(1.83129 0.228782 0)
(2.01212 -0.0230318 0)
(1.83053 0.229245 0)
(2 -1.0496e-13 0)
(2 -1.85521e-13 0)
(1.83064 0.229717 0)
(1.83118 0.229084 0)
(2 -1.98591e-14 0)
(2.10961 -0.262051 0)
(1.82974 0.229014 0)
(1.83133 0.228789 0)
(2 -3.9021e-14 0)
(1.83186 0.229223 0)
(1.83167 0.229179 0)
(2 -1.37953e-13 0)
(1.83161 0.229031 0)
(2.1012 -0.258856 0)
(1.83144 0.228954 0)
(1.82677 0.228382 0)
(1.8304 0.228836 0)
(1.82906 0.232219 0)
(2 6.50989e-14 0)
(2 1.18547e-13 0)
(2 -1.02064e-07 0)
(1.83137 0.228689 0)
(1.89018 0.15927 0)
(2.10922 -0.245167 0)
(1.83138 0.228689 0)
(2.12339 -0.269968 0)
(1.83143 0.228675 0)
(2 1.18413e-14 0)
(2 -2.13462e-13 0)
(2 8.60255e-14 0)
(2 -1.2579e-13 0)
(1.83176 0.227414 0)
(1.83132 0.228863 0)
(2 5.14273e-14 0)
(2 1.01186e-13 0)
(1.83143 0.228978 0)
(2.11866 -0.267959 0)
(1.83142 0.228495 0)
(2.09818 -0.261783 0)
(2 4.38103e-14 0)
(1.83308 0.227811 0)
(2 -3.68294e-14 0)
(2.14253 -0.269764 0)
(1.83072 0.229601 0)
(2.09141 -0.196685 0)
(2 -2.29152e-15 0)
(1.83168 0.228968 0)
(1.83013 0.230001 0)
(1.83187 0.229473 0)
(2 -1.15875e-13 0)
(2 8.98195e-14 0)
(1.92248 0.119519 0)
(1.83049 0.229713 0)
(2.10407 -0.264707 0)
(1.83199 0.228785 0)
(2 2.51378e-14 0)
(1.83173 0.229417 0)
(2.04523 -0.0860371 0)
(1.83205 0.229744 0)
(2.11286 -0.266829 0)
(2 -1.00603e-14 0)
(1.83194 0.229064 0)
(2.11442 -0.225323 0)
(1.83078 0.229672 0)
(2.10925 -0.262059 0)
(2 4.97644e-14 0)
(1.83144 0.229293 0)
(2 6.07196e-14 0)
(1.8324 0.228839 0)
(2 2.98361e-13 0)
(1.90199 0.14145 0)
(1.83767 0.221745 0)
(1.86769 0.186797 0)
(2.10289 -0.279444 0)
(2 6.93794e-14 0)
(1.83162 0.229128 0)
(2 1.72841e-13 0)
(1.83169 0.229406 0)
(2 -1.15803e-07 0)
(1.83166 0.229045 0)
(2 -2.31312e-07 0)
(2 -2.61689e-13 0)
(1.83084 0.22905 0)
(2.00175 -0.00764033 0)
(1.83044 0.230059 0)
(2.1363 -0.268858 0)
(1.85774 0.209719 0)
(2 7.70759e-14 0)
(1.88088 0.169219 0)
(2 9.66255e-14 0)
(1.83082 0.229475 0)
(1.83178 0.22909 0)
(1.83069 0.229744 0)
(2 1.79523e-13 0)
(1.84892 0.209759 0)
(1.83105 0.228796 0)
(1.84426 0.2141 0)
(1.89756 0.146768 0)
(1.8272 0.232698 0)
(2 1.01593e-13 0)
(1.8891 0.161796 0)
(2 2.90963e-14 0)
(1.83107 0.228787 0)
(2 6.74214e-16 0)
(1.97342 0.0428165 0)
(2 7.1938e-14 0)
(1.84431 0.214804 0)
(2 2.16407e-14 0)
(1.8319 0.229545 0)
(1.83884 0.220647 0)
(1.83978 0.220393 0)
(2 5.91732e-14 0)
(1.83439 0.229583 0)
(2.09358 -0.266021 0)
(2 4.62617e-14 0)
(2.11288 -0.264382 0)
(2 -2.54577e-13 0)
(2 4.84166e-14 0)
(2 5.85431e-14 0)
(1.82931 0.228288 0)
(2 3.55888e-14 0)
(1.83167 0.229366 0)
(2 -2.30227e-14 0)
(2 -6.15089e-14 0)
(2 -2.00557e-13 0)
(1.83114 0.22947 0)
(1.83184 0.233295 0)
(1.87171 0.190133 0)
(1.83097 0.227707 0)
(1.83147 0.227639 0)
(2.11251 -0.26618 0)
(1.83111 0.232371 0)
(1.83281 0.228796 0)
(2 -9.96558e-15 0)
(1.85589 0.198617 0)
(1.83173 0.228956 0)
(1.8387 0.223076 0)
(2 9.83202e-14 0)
(1.83142 0.22909 0)
(1.83108 0.228931 0)
(2 -2.20588e-13 0)
(1.82819 0.230683 0)
(1.83118 0.228729 0)
(1.83085 0.228488 0)
(1.83094 0.229569 0)
(2 -1.56746e-13 0)
(2 1.684e-14 0)
(2 -6.43303e-14 0)
(1.83173 0.229324 0)
(2.12593 -0.270166 0)
(2 2.65181e-14 0)
(1.83154 0.228905 0)
(2 1.57349e-13 0)
(2 4.61797e-14 0)
(2.11133 -0.272651 0)
(2 -2.34763e-13 0)
(2 5.17473e-14 0)
(1.83147 0.228838 0)
(1.83194 0.228805 0)
(2 -1.72494e-13 0)
(1.83175 0.228816 0)
(1.83062 0.23333 0)
(1.83284 0.229261 0)
(2.00258 -0.00941582 0)
(1.83127 0.22896 0)
(2 4.86301e-14 0)
(1.83131 0.228936 0)
(1.83152 0.228892 0)
(1.87602 0.180329 0)
(2 9.62919e-14 0)
(2 -1.99195e-13 0)
(2 2.87001e-14 0)
(1.83193 0.228043 0)
(1.83155 0.229173 0)
(1.83145 0.229099 0)
(2.01977 -0.0356806 0)
(2 9.1084e-14 0)
(1.82704 0.231115 0)
(1.83168 0.229092 0)
(1.83222 0.229071 0)
(2 -1.88773e-13 0)
(1.8316 0.229184 0)
(1.83097 0.228645 0)
(1.83126 0.22883 0)
(1.82704 0.23189 0)
(2 2.1639e-14 0)
(1.83192 0.228579 0)
(1.83244 0.227341 0)
(1.85187 0.201132 0)
(1.83162 0.228704 0)
(1.8279 0.231192 0)
(2 4.14403e-14 0)
(1.83117 0.228253 0)
(1.83335 0.226793 0)
(1.83138 0.229035 0)
(1.83181 0.22745 0)
(1.83144 0.229359 0)
(2.10363 -0.276456 0)
(1.83137 0.228588 0)
(1.83214 0.228059 0)
(2 4.29883e-14 0)
(1.83151 0.229037 0)
(1.83137 0.228759 0)
(1.83158 0.228844 0)
(1.83199 0.228838 0)
(2 -5.85337e-08 0)
(1.83128 0.229254 0)
(1.8316 0.229154 0)
(2 -1.66001e-07 0)
(1.83134 0.228791 0)
(1.85704 0.199524 0)
(2 -4.86251e-14 0)
(2 -4.59791e-14 0)
(2 6.16988e-10 0)
(1.83186 0.227904 0)
(1.82989 0.231341 0)
(2 -1.3824e-13 0)
(2 -6.19827e-14 0)
(1.90815 0.139067 0)
(2 -2.10406e-13 0)
(1.83165 0.228626 0)
(2 1.11785e-13 0)
(2 -3.05048e-14 0)
(1.83134 0.228901 0)
(1.83135 0.22972 0)
(1.83168 0.229348 0)
(1.83153 0.229095 0)
(2 -3.20709e-14 0)
(2 -8.12097e-14 0)
(2 -6.37457e-14 0)
(1.88089 0.167286 0)
(2 3.31519e-15 0)
(1.83146 0.22902 0)
(2 -1.4417e-13 0)
(2 -2.91489e-15 0)
(1.83189 0.22875 0)
(1.82663 0.228405 0)
(2 2.99662e-14 0)
(1.83171 0.228848 0)
(2.13985 -0.271719 0)
(1.83169 0.22906 0)
(1.83198 0.228783 0)
(2.10493 -0.199681 0)
(2 -7.44677e-14 0)
(2.11339 -0.279593 0)
(1.84909 0.202578 0)
(1.83058 0.230099 0)
(1.83129 0.22951 0)
(1.83144 0.229968 0)
(2.12414 -0.264128 0)
(1.83095 0.228707 0)
(1.83117 0.229375 0)
(2.11922 -0.267532 0)
(2.11444 -0.279247 0)
(2 -2.51227e-07 0)
(1.83132 0.22982 0)
(1.83169 0.22906 0)
(2 -7.25278e-15 0)
(2 1.72526e-14 0)
(1.83119 0.229141 0)
(2 3.715e-14 0)
(1.82681 0.230347 0)
(2 2.27782e-06 0)
(1.85248 0.204622 0)
(2 -1.5315e-13 0)
(1.92122 0.116546 0)
(1.83154 0.22904 0)
(1.83028 0.22982 0)
(1.87961 0.170672 0)
(1.84436 0.205468 0)
(1.83155 0.228836 0)
(1.83156 0.230027 0)
(1.85409 0.210686 0)
(2 3.28096e-14 0)
(2.10593 -0.265683 0)
(1.83033 0.229811 0)
(1.83182 0.228727 0)
(1.83032 0.231464 0)
(2 6.59557e-06 0)
(2 3.79966e-10 0)
(2 1.46784e-09 0)
(1.82934 0.2294 0)
(2 -3.13282e-15 0)
(1.83193 0.228835 0)
(1.83162 0.228611 0)
(2.08653 -0.175848 0)
(2 -2.03351e-14 0)
(1.83148 0.229012 0)
(2.00002 -4.76012e-05 0)
(2 1.31388e-13 0)
(1.99999 1.89102e-05 0)
(1.99998 2.79345e-05 0)
(1.83184 0.228829 0)
(1.83135 0.228951 0)
(2.00053 -0.000891023 0)
(2 8.70833e-14 0)
(2 6.20219e-14 0)
(1.83163 0.229323 0)
(1.83057 0.229992 0)
(1.83166 0.228777 0)
(1.83047 0.230234 0)
(1.83139 0.229415 0)
(2.10263 -0.258808 0)
(1.86541 0.193639 0)
(2 4.38723e-15 0)
(1.83291 0.227873 0)
(1.83177 0.229224 0)
(1.83183 0.229099 0)
(1.83278 0.225746 0)
(2 -9.62899e-14 0)
(1.8318 0.228823 0)
(1.83657 0.223851 0)
(1.83097 0.229503 0)
(2 2.46263e-14 0)
(1.83061 0.229241 0)
(1.83201 0.228542 0)
(2.04682 -0.101832 0)
(1.83208 0.228849 0)
(1.83071 0.229082 0)
(2 -6.1591e-14 0)
(1.8315 0.228816 0)
(2.05027 -0.112607 0)
(1.83144 0.229165 0)
(2.05078 -0.103772 0)
(1.83175 0.228905 0)
(2 -1.30883e-07 0)
(1.83146 0.228918 0)
(1.82653 0.232215 0)
(1.83184 0.229061 0)
(1.83152 0.22898 0)
(1.83162 0.228776 0)
(1.83045 0.228371 0)
(1.83139 0.229155 0)
(1.83087 0.228944 0)
(2 -5.80289e-14 0)
(2.02254 -0.047624 0)
(1.83149 0.229158 0)
(1.83162 0.228937 0)
(2.05139 -0.1042 0)
(1.83146 0.229072 0)
(2.00411 -0.0153367 0)
(1.88657 0.151612 0)
(1.83165 0.22917 0)
(1.83243 0.22905 0)
(1.83183 0.228432 0)
(2 5.18978e-14 0)
(1.83044 0.230182 0)
(1.89151 0.161669 0)
(1.83174 0.228001 0)
(2.02732 -0.0606204 0)
(1.83058 0.22986 0)
(1.82713 0.232155 0)
(2 8.32668e-15 0)
(2.04722 -0.0896925 0)
(2 -2.31385e-09 0)
(1.83265 0.225659 0)
(2 1.00644e-13 0)
(1.88455 0.165942 0)
(2 3.75979e-09 0)
(1.83923 0.231385 0)
(2.04533 -0.087224 0)
(2 -5.18404e-14 0)
(1.83036 0.229931 0)
(1.83488 0.228216 0)
(2 -8.51639e-14 0)
(1.82896 0.22827 0)
(1.83063 0.229753 0)
(1.82838 0.231186 0)
(1.83088 0.234518 0)
(1.82931 0.23156 0)
(2 3.73263e-14 0)
(1.83047 0.228907 0)
(2 -4.98524e-14 0)
(2 -1.08702e-13 0)
(2 1.29544e-13 0)
(2.03381 -0.0642625 0)
(1.83179 0.228889 0)
(1.8318 0.228938 0)
(1.83135 0.229928 0)
(1.83169 0.228874 0)
(1.82792 0.231766 0)
(1.83103 0.230581 0)
(1.83124 0.23063 0)
(1.83171 0.229368 0)
(2.03246 -0.0652267 0)
(1.98737 0.0227921 0)
(2 3.54423e-09 0)
(2 4.4408e-14 0)
(1.82425 0.233372 0)
(1.83182 0.229101 0)
(1.83157 0.228906 0)
(1.83173 0.229098 0)
(1.99999 1.70396e-05 0)
(1.91491 0.133157 0)
(2 -1.64724e-07 0)
(1.82868 0.231123 0)
(1.84218 0.21653 0)
(2 -3.22105e-12 0)
(2 -5.67532e-11 0)
(2.09284 -0.18541 0)
(1.83147 0.22895 0)
(2 -2.18305e-14 0)
(2 3.41728e-14 0)
(2.1199 -0.266444 0)
(1.83138 0.229064 0)
(2 3.77913e-15 0)
(1.83166 0.228911 0)
(1.83156 0.229019 0)
(1.83203 0.228772 0)
(1.83807 0.221864 0)
(1.83141 0.229111 0)
(2 -1.00613e-10 0)
(2.10242 -0.274078 0)
(1.9614 0.0642421 0)
(1.83087 0.22892 0)
(1.83138 0.22902 0)
(2 1.44694e-14 0)
(1.83241 0.228557 0)
(1.83148 0.228802 0)
(1.91877 0.125307 0)
(1.99781 0.00715439 0)
(1.96747 0.0563001 0)
(2 8.21865e-14 0)
(1.83192 0.229831 0)
(1.83158 0.22893 0)
(2 -1.17853e-07 0)
(2 -2.20256e-10 0)
(2.11452 -0.267729 0)
(2 -2.44969e-10 0)
(2 1.45571e-13 0)
(1.83183 0.228992 0)
(1.8317 0.228863 0)
(1.83117 0.229601 0)
(1.83171 0.228918 0)
(1.8314 0.228767 0)
(1.82831 0.229155 0)
(1.8315 0.229057 0)
(1.83006 0.229788 0)
(1.83128 0.229013 0)
(2 1.89929e-13 0)
(2.00139 -0.00245854 0)
(1.83139 0.228679 0)
(1.8317 0.22939 0)
(2.0012 -0.001572 0)
(1.83148 0.228865 0)
(1.83149 0.228754 0)
(2.09707 -0.267529 0)
(2.11478 -0.260389 0)
(1.83209 0.227574 0)
(1.83142 0.229515 0)
(2 2.06134e-14 0)
(2 1.69482e-13 0)
(1.99924 0.00209445 0)
(1.8315 0.228786 0)
(1.83181 0.229646 0)
(1.83153 0.229031 0)
(2 1.06355e-09 0)
(1.83151 0.228801 0)
(2 -1.28371e-14 0)
(2.04794 -0.099432 0)
(1.82987 0.231667 0)
(1.82977 0.233647 0)
(2 -1.74442e-14 0)
(1.92323 0.114112 0)
(1.83105 0.229063 0)
(2 2.91474e-14 0)
(1.82908 0.226229 0)
(2 -1.09572e-10 0)
(1.83194 0.22869 0)
(1.8874 0.16691 0)
(1.83156 0.22968 0)
(2 1.13451e-11 0)
(1.83161 0.228678 0)
(1.83141 0.228701 0)
(2.11539 -0.272923 0)
(1.8312 0.229237 0)
(2 -1.13827e-07 0)
(1.83122 0.227732 0)
(1.82827 0.228302 0)
(2 7.17889e-09 0)
(2.09856 -0.265083 0)
(1.82999 0.230249 0)
(1.8618 0.19266 0)
(2.00096 -0.00128425 0)
(1.82851 0.229052 0)
(1.83139 0.228749 0)
(2 -5.5512e-12 0)
(1.99809 -0.00758179 0)
(1.83171 0.228007 0)
(2.00179 -0.00174465 0)
(1.83135 0.229038 0)
(2 -3.67837e-12 0)
(2 7.69752e-15 0)
(1.83163 0.228382 0)
(2 1.58083e-13 0)
(1.83112 0.227412 0)
(1.83137 0.228868 0)
(2.0013 -0.00239011 0)
(1.87573 0.176356 0)
(2 3.31827e-09 0)
(1.83141 0.228684 0)
(2 -6.43482e-10 0)
(2 -7.37044e-13 0)
(2 9.63002e-12 0)
(2 7.04208e-12 0)
(1.83186 0.229121 0)
(2 6.92122e-09 0)
(2 6.77197e-14 0)
(1.83269 0.232996 0)
(2 8.54307e-14 0)
(1.83116 0.229228 0)
(2 3.12255e-10 0)
(1.89242 0.155439 0)
(1.83323 0.227057 0)
(1.83163 0.228754 0)
(2 9.56593e-10 0)
(2 -3.43519e-13 0)
(1.99718 -0.003413 0)