/*--------------------------------*- C++ -*----------------------------------*\
  =========                 |
  \\      /  F ield         | OpenFOAM: The Open Source CFD Toolbox
   \\    /   O peration     | Website:  https://openfoam.org
    \\  /    A nd           | Version:  12
     \\/     M anipulation  |
\*---------------------------------------------------------------------------*/
FoamFile
{
    format      ascii;
    class       volScalarField;
    location    "27.3";
    object      p;
}
// * * * * * * * * * * * * * * * * * * * * * * * * * * * * * * * * * * * * * //

dimensions      [1 -1 -2 0 0 0 0];

internalField   nonuniform List<scalar> 
9801
(
0.811608
0.758421
0.658301
0.608438
0.594877
0.594397
0.596375
0.603253
0.628922
0.718533
0.821757
0.860078
0.87172
0.877881
0.870386
0.821431
0.743437
0.697161
0.685129
0.685829
0.691484
0.702679
0.716815
0.741927
0.807053
0.8776
0.907768
0.919066
0.926021
0.927216
0.914263
0.870608
0.813689
0.78532
0.779604
0.780972
0.78604
0.800597
0.840987
0.899394
0.937183
0.954732
0.964779
0.971965
0.967047
0.940601
0.912944
0.905577
0.907586
0.914339
0.927766
0.938788
0.946394
0.953481
0.96161
0.972034
0.987216
1.01161
1.03984
1.05666
1.06526
1.06642
1.06037
1.05981
1.05927
1.04865
1.03211
1.02752
1.03434
1.04548
1.06042
1.09276
1.15381
1.21127
1.24456
1.26371
1.27996
1.29455
1.28353
1.22662
1.19107
1.19359
1.20956
1.24253
1.32732
1.41582
1.46977
1.50533
1.5362
1.5584
1.53985
1.49281
1.44929
1.43472
1.46861
1.57542
1.81639
4.85901
31.8319
0.770261
0.710222
0.66241
0.629095
0.61545
0.615948
0.622902
0.640832
0.682409
0.75088
0.813383
0.844697
0.85312
0.847713
0.827829
0.796312
0.759113
0.726525
0.715223
0.716992
0.721729
0.728461
0.738188
0.763076
0.815766
0.868355
0.896869
0.908385
0.912598
0.909252
0.886315
0.856845
0.835282
0.815978
0.808877
0.81098
0.817273
0.834703
0.86365
0.896182
0.92649
0.944896
0.954822
0.957337
0.947912
0.938417
0.93348
0.931726
0.934295
0.939647
0.946395
0.951388
0.953577
0.956957
0.964193
0.975705
0.990268
1.01108
1.03832
1.05838
1.06871
1.0738
1.07888
1.08241
1.08271
1.07126
1.05211
1.04476
1.05025
1.0603
1.07254
1.09946
1.1532
1.2025
1.2308
1.24811
1.26167
1.27203
1.26264
1.21929
1.1909
1.19293
1.20885
1.23902
1.31158
1.39903
1.45615
1.49327
1.52512
1.55069
1.54182
1.50455
1.47043
1.45682
1.47377
1.53677
1.67095
4.44092
32.2372
0.716245
0.69487
0.678645
0.662474
0.652092
0.652359
0.662552
0.686779
0.719765
0.754085
0.782373
0.799743
0.806692
0.805687
0.800849
0.791961
0.779079
0.768138
0.757534
0.749569
0.747415
0.74899
0.753747
0.780108
0.817658
0.845991
0.870324
0.887463
0.89697
0.892602
0.869173
0.857096
0.854229
0.851596
0.846901
0.844048
0.847295
0.860504
0.874878
0.889069
0.905314
0.923804
0.937929
0.943458
0.942452
0.947046
0.954037
0.958894
0.963014
0.964621
0.95802
0.951965
0.954296
0.961057
0.971204
0.983148
0.994611
1.00699
1.02681
1.05282
1.07314
1.08611
1.0948
1.09822
1.0957
1.08733
1.06989
1.06188
1.0663
1.076
1.08785
1.1072
1.14978
1.19845
1.22585
1.24122
1.25168
1.2588
1.25397
1.22153
1.19508
1.19437
1.21023
1.23705
1.2901
1.37591
1.4415
1.47952
1.50935
1.53261
1.53286
1.50921
1.4905
1.48805
1.50168
1.56345
1.63098
4.24709
32.361
0.687835
0.692278
0.695175
0.692785
0.696117
0.703999
0.715288
0.727614
0.74168
0.749404
0.754351
0.762205
0.773945
0.786522
0.794479
0.800656
0.802047
0.794405
0.78215
0.773641
0.771885
0.773366
0.777911
0.803611
0.827928
0.842309
0.85541
0.870751
0.880268
0.872038
0.862114
0.86395
0.867807
0.869235
0.870014
0.872557
0.883035
0.892051
0.896403
0.900247
0.907839
0.915098
0.924071
0.933127
0.942019
0.950091
0.95996
0.968321
0.970707
0.965953
0.960742
0.962298
0.969151
0.97813
0.986829
0.99652
1.00483
1.01097
1.02041
1.04191
1.07173
1.08994
1.09898
1.10318
1.10714
1.11211
1.10762
1.09314
1.09112
1.09834
1.10934
1.12186
1.14274
1.18513
1.217
1.23169
1.24047
1.24769
1.25081
1.23405
1.21216
1.20474
1.21371
1.2345
1.26571
1.32576
1.39606
1.44498
1.47755
1.50657
1.52568
1.5187
1.50198
1.48992
1.49761
1.55236
1.58377
4.13388
32.4738
0.675973
0.684394
0.697331
0.717757
0.735053
0.743685
0.747174
0.749429
0.743707
0.738847
0.740988
0.7505
0.767305
0.785543
0.79903
0.80777
0.814557
0.807095
0.793248
0.78232
0.776112
0.774599
0.783833
0.82294
0.848983
0.859306
0.866032
0.870497
0.86199
0.84741
0.845337
0.849735
0.856028
0.862266
0.867595
0.877056
0.891368
0.907503
0.919709
0.927517
0.931241
0.931654
0.926854
0.923041
0.921598
0.92348
0.930811
0.947498
0.958383
0.962148
0.968922
0.987325
1.00301
1.01336
1.01772
1.01728
1.01562
1.01313
1.01397
1.02196
1.04805
1.07837
1.09477
1.10509
1.11567
1.12856
1.1386
1.1316
1.11673
1.11591
1.12122
1.12833
1.13881
1.16319
1.20464
1.22832
1.23831
1.24491
1.25043
1.24745
1.2299
1.21526
1.21122
1.22187
1.24447
1.27689
1.33846
1.40542
1.45368
1.49061
1.52603
1.54323
1.53646
1.52253
1.50824
1.53106
1.52897
4.02856
32.5093
0.683398
0.696572
0.723514
0.740811
0.749223
0.755165
0.75469
0.742602
0.735782
0.736096
0.741912
0.761561
0.782791
0.796374
0.805953
0.814167
0.819
0.802716
0.777441
0.766919
0.765802
0.770718
0.802773
0.846967
0.870091
0.879869
0.885856
0.879107
0.845939
0.822179
0.816946
0.820325
0.828446
0.838428
0.852772
0.879224
0.910091
0.932027
0.946073
0.955095
0.960728
0.957624
0.939257
0.908194
0.88775
0.88352
0.890196
0.912325
0.94441
0.970714
0.99678
1.02292
1.04515
1.05825
1.05848
1.04108
1.01723
0.999916
0.99519
0.999963
1.01752
1.05867
1.09099
1.10884
1.125
1.14451
1.16104
1.16892
1.14993
1.1279
1.1217
1.12257
1.12716
1.13804
1.17697
1.22259
1.24407
1.25431
1.26383
1.27043
1.26175
1.24509
1.23182
1.22611
1.23178
1.25028
1.28245
1.34282
1.40759
1.45897
1.50361
1.54635
1.56448
1.55524
1.53081
1.52203
1.48007
3.94528
32.6373
0.705097
0.729944
0.744885
0.753881
0.759768
0.754746
0.739948
0.734107
0.736151
0.74086
0.752259
0.780462
0.806286
0.817038
0.823278
0.82624
0.809231
0.773915
0.755581
0.753436
0.75717
0.780925
0.834899
0.872861
0.887123
0.896097
0.898805
0.869607
0.824271
0.802499
0.797531
0.799743
0.807233
0.817615
0.838019
0.883617
0.934367
0.961191
0.971938
0.977814
0.983605
0.98059
0.938977
0.884705
0.861549
0.859195
0.865112
0.881227
0.919381
0.976905
1.03174
1.06741
1.0838
1.09231
1.09162
1.05968
1.00829
0.980015
0.975081
0.980732
0.993028
1.02862
1.0786
1.11351
1.13882
1.1602
1.17675
1.18942
1.18098
1.14464
1.11699
1.10438
1.10372
1.11186
1.13767
1.19838
1.24465
1.26692
1.28246
1.29783
1.30568
1.28947
1.26756
1.24994
1.24013
1.24365
1.26054
1.29107
1.3506
1.41731
1.47737
1.5276
1.56391
1.56577
1.55094
1.52217
1.44115
3.86034
32.7634
0.734403
0.752637
0.759529
0.763786
0.75469
0.737435
0.731403
0.733294
0.737958
0.747114
0.769326
0.800074
0.820254
0.829862
0.833081
0.815252
0.77552
0.750271
0.745282
0.747355
0.763402
0.814883
0.867921
0.888847
0.898471
0.903922
0.883619
0.834063
0.802444
0.792078
0.791497
0.794648
0.799883
0.809487
0.836799
0.907064
0.960964
0.978419
0.986975
0.992415
0.991756
0.970391
0.916801
0.870786
0.854932
0.85532
0.8609
0.871161
0.901357
0.985991
1.06891
1.09903
1.10952
1.11414
1.10394
1.06002
1.00345
0.970657
0.960687
0.96409
0.972892
0.994334
1.04811
1.11039
1.15181
1.17732
1.19322
1.20324
1.19766
1.15884
1.11422
1.09004
1.08553
1.09273
1.10638
1.15115
1.22106
1.2726
1.30367
1.32581
1.34228
1.33895
1.31176
1.28319
1.26372
1.25372
1.25453
1.27104
1.30266
1.36419
1.43051
1.48543
1.52969
1.55076
1.5472
1.52517
1.45065
3.77945
32.9384
0.754395
0.766974
0.767263
0.757306
0.743226
0.738734
0.739832
0.742793
0.752813
0.772649
0.791743
0.805968
0.817555
0.821094
0.803641
0.773542
0.755188
0.748692
0.748369
0.756064
0.798716
0.860153
0.887521
0.897719
0.902431
0.886683
0.839723
0.805262
0.794221
0.794342
0.7977
0.80202
0.807494
0.821954
0.871842
0.936869
0.970241
0.983773
0.990306
0.988598
0.972159
0.942745
0.905766
0.874345
0.860655
0.860726
0.865737
0.872995
0.899883
0.998279
1.08281
1.10872
1.11823
1.11828
1.09352
1.05088
1.00799
0.974898
0.959823
0.957158
0.961506
0.970438
1.00417
1.08718
1.15588
1.18458
1.19892
1.20895
1.20644
1.16616
1.11174
1.08317
1.07711
1.08363
1.09401
1.11501
1.17354
1.25341
1.31072
1.34192
1.36338
1.37896
1.37253
1.34249
1.30651
1.27786
1.26309
1.2634
1.28096
1.31648
1.38065
1.44171
1.48648
1.51465
1.52228
1.51766
1.47768
3.72979
33.1595
0.760586
0.772013
0.759446
0.745258
0.744685
0.748846
0.757519
0.773919
0.789101
0.797841
0.802245
0.804685
0.797425
0.77316
0.751066
0.743987
0.746783
0.752054
0.763201
0.810012
0.867672
0.89061
0.898898
0.90344
0.886031
0.839808
0.804764
0.790298
0.789035
0.792567
0.798472
0.806327
0.826432
0.868111
0.917246
0.954505
0.974807
0.982125
0.978535
0.963207
0.94763
0.929857
0.904222
0.877973
0.867317
0.869589
0.876787
0.889336
0.931548
1.01254
1.07523
1.09919
1.10587
1.09574
1.07087
1.04573
1.01801
0.985609
0.964284
0.958586
0.96115
0.966822
0.980616
1.04947
1.14277
1.18263
1.19686
1.20546
1.2015
1.17282
1.1209
1.08569
1.07615
1.07977
1.08914
1.10469
1.13667
1.20742
1.29222
1.3468
1.37587
1.39563
1.408
1.40092
1.3652
1.31841
1.28344
1.26884
1.272
1.29189
1.33357
1.40026
1.45127
1.48022
1.49161
1.49621
1.48942
3.71611
33.3612
0.749826
0.755167
0.745883
0.747162
0.753795
0.774309
0.798434
0.810761
0.814796
0.813234
0.80667
0.783922
0.751323
0.728617
0.722305
0.725132
0.733213
0.750116
0.803316
0.880558
0.91116
0.918346
0.917237
0.893597
0.846156
0.811252
0.793556
0.787747
0.788219
0.791636
0.800821
0.832417
0.873194
0.902743
0.927987
0.954045
0.964332
0.96155
0.95079
0.945508
0.944275
0.935664
0.910635
0.891048
0.88674
0.891916
0.901235
0.916638
0.95214
1.00449
1.04606
1.06496
1.06971
1.06558
1.05937
1.05228
1.03709
1.00664
0.978415
0.968965
0.971512
0.97841
0.991852
1.03016
1.10955
1.16378
1.18146
1.18949
1.19029
1.17925
1.14591
1.10284
1.08131
1.07983
1.08963
1.10745
1.13145
1.16748
1.24331
1.32435
1.37023
1.39431
1.41102
1.4174
1.4046
1.36582
1.31989
1.2882
1.27973
1.28706
1.30494
1.36149
1.42017
1.44855
1.45994
1.4662
1.47586
3.72814
33.5086
0.722806
0.730091
0.737048
0.757183
0.794145
0.819062
0.829468
0.834513
0.834157
0.819287
0.782932
0.745787
0.721075
0.71255
0.713422
0.717457
0.726585
0.770276
0.847878
0.896189
0.917241
0.923495
0.902387
0.855477
0.823935
0.808471
0.79823
0.793525
0.796169
0.809133
0.84259
0.877565
0.896893
0.905713
0.915424
0.924998
0.933501
0.939181
0.942877
0.947603
0.952891
0.952744
0.934603
0.915553
0.909602
0.912284
0.919175
0.930693
0.952343
0.980582
1.00841
1.02988
1.0413
1.04713
1.05107
1.05545
1.05349
1.03228
1.00095
0.987387
0.989111
0.997328
1.00762
1.02103
1.06449
1.1299
1.16595
1.18094
1.19011
1.19257
1.17409
1.13056
1.09842
1.09056
1.09802
1.1164
1.14265
1.16466
1.19216
1.262
1.33035
1.36563
1.38486
1.3997
1.40213
1.38355
1.34721
1.3159
1.29938
1.30115
1.31216
1.33721
1.39005
1.41864
1.42906
1.43368
1.45148
3.74996
33.6182
0.698012
0.708879
0.738674
0.793994
0.826975
0.837477
0.842922
0.842904
0.824331
0.786359
0.753083
0.731868
0.719548
0.715092
0.716686
0.72882
0.773942
0.825205
0.858608
0.883567
0.89576
0.883325
0.855722
0.838151
0.826839
0.815755
0.811416
0.813311
0.825906
0.852985
0.877924
0.891429
0.898161
0.89749
0.882979
0.879672
0.895288
0.927523
0.949224
0.961049
0.968487
0.972377
0.959355
0.934604
0.923465
0.923632
0.928581
0.936775
0.947774
0.960475
0.97784
1.00077
1.02407
1.03956
1.04814
1.05489
1.06118
1.0576
1.03493
1.0148
1.00868
1.01094
1.01688
1.02353
1.03726
1.08946
1.14828
1.17713
1.19077
1.19524
1.18071
1.15612
1.13118
1.11821
1.12023
1.13593
1.15332
1.16429
1.17559
1.20279
1.26665
1.31801
1.34531
1.36389
1.37724
1.37031
1.35192
1.33416
1.32188
1.31849
1.32501
1.33631
1.36379
1.39241
1.40224
1.40062
1.42525
3.78648
33.7285
0.689307
0.716775
0.774962
0.814786
0.831486
0.84035
0.84424
0.821682
0.776009
0.746053
0.732232
0.729049
0.729941
0.730817
0.743606
0.786314
0.826857
0.844161
0.851057
0.853611
0.833641
0.818806
0.820965
0.830371
0.836615
0.840307
0.842128
0.851727
0.871203
0.887435
0.895803
0.899592
0.892361
0.868952
0.856286
0.857816
0.869572
0.91135
0.957248
0.977206
0.985096
0.988362
0.978108
0.950173
0.933053
0.930239
0.933478
0.939387
0.947195
0.955918
0.964211
0.973735
1.00197
1.03248
1.04862
1.05736
1.06451
1.07164
1.06727
1.04433
1.02717
1.02123
1.02299
1.02906
1.03801
1.06533
1.11983
1.16428
1.18563
1.1934
1.18958
1.18263
1.17193
1.16087
1.15808
1.16248
1.16333
1.16071
1.16503
1.17635
1.20676
1.2578
1.29283
1.31477
1.33392
1.34592
1.3416
1.33818
1.33941
1.33909
1.33892
1.34193
1.34628
1.36351
1.37752
1.37816
1.40499
3.85022
33.8192
0.701022
0.76065
0.802424
0.817467
0.826981
0.831984
0.807855
0.758559
0.733565
0.729098
0.731924
0.735299
0.740491
0.761885
0.806625
0.840854
0.854232
0.857509
0.848366
0.807977
0.778065
0.775188
0.787859
0.813954
0.838023
0.855869
0.878837
0.898449
0.90787
0.910329
0.909387
0.899205
0.874333
0.851424
0.844155
0.846823
0.856096
0.894143
0.955576
0.984751
0.991998
0.994952
0.98832
0.960908
0.940529
0.937764
0.942189
0.950078
0.958533
0.965237
0.961583
0.961169
0.971983
1.00685
1.03931
1.05708
1.06931
1.08053
1.08829
1.07559
1.05068
1.03776
1.03697
1.04204
1.04965
1.06247
1.08839
1.1307
1.16489
1.18307
1.19099
1.19787
1.20628
1.20948
1.20853
1.1989
1.17962
1.16197
1.15574
1.1603
1.17207
1.20408
1.24365
1.26917
1.28778
1.30685
1.31785
1.32939
1.34584
1.35674
1.35568
1.34854
1.33992
1.33531
1.33947
1.35375
1.3907
3.95624
33.8127
0.739345
0.801718
0.817032
0.823198
0.826472
0.799097
0.741532
0.71299
0.70967
0.714776
0.725476
0.739493
0.767802
0.821456
0.859998
0.87103
0.87235
0.866681
0.826634
0.776053
0.757361
0.757324
0.763202
0.781353
0.818329
0.864934
0.908259
0.932842
0.938119
0.931093
0.919166
0.904024
0.879366
0.856782
0.851577
0.85801
0.868617
0.881468
0.924855
0.968929
0.981151
0.981645
0.974263
0.967653
0.960094
0.960396
0.968766
0.978984
0.986304
0.979326
0.960149
0.949233
0.949745
0.966776
1.01324
1.05254
1.07542
1.09145
1.1049
1.112
1.09421
1.06952
1.0595
1.05982
1.06345
1.06752
1.07157
1.08254
1.11359
1.1539
1.18675
1.21216
1.23389
1.2515
1.25815
1.248
1.21598
1.17857
1.15559
1.14794
1.15321
1.16666
1.19852
1.23027
1.25298
1.27451
1.2961
1.31948
1.34475
1.36368
1.3732
1.36448
1.33764
1.31186
1.30163
1.30911
1.36234
4.13779
33.8678
0.785046
0.819758
0.825299
0.828462
0.805217
0.743445
0.701815
0.689934
0.691048
0.697008
0.708723
0.739398
0.812391
0.876752
0.895974
0.898323
0.889535
0.856551
0.800348
0.765109
0.756824
0.758603
0.762811
0.769226
0.789086
0.853037
0.915882
0.942124
0.950478
0.952165
0.943838
0.923084
0.895755
0.877746
0.876315
0.881018
0.879644
0.877359
0.880871
0.912891
0.946239
0.958091
0.969415
0.986475
1.00195
1.0076
1.00795
1.00798
1.00073
0.978187
0.948966
0.933637
0.932199
0.93894
0.971
1.03438
1.08341
1.11408
1.13214
1.14459
1.14502
1.11289
1.08267
1.07151
1.06791
1.06183
1.05463
1.05538
1.06788
1.09962
1.15405
1.20864
1.24844
1.27195
1.28297
1.28592
1.26659
1.216
1.17038
1.15097
1.14738
1.15346
1.16559
1.19045
1.21918
1.24787
1.28133
1.31407
1.34252
1.36381
1.37943
1.37983
1.35019
1.30622
1.27761
1.26522
1.3041
4.28215
34.0106
0.816722
0.832206
0.831974
0.811059
0.757333
0.715417
0.69631
0.690488
0.690894
0.693816
0.700092
0.74739
0.854956
0.904668
0.914392
0.917249
0.904462
0.847919
0.792548
0.769511
0.763015
0.765668
0.771631
0.78006
0.79492
0.833412
0.896938
0.933039
0.946935
0.958037
0.965915
0.964176
0.939584
0.912951
0.898963
0.888549
0.872239
0.855636
0.848894
0.855671
0.892984
0.942435
0.988518
1.02795
1.04654
1.05099
1.04312
1.02479
0.995138
0.959599
0.934851
0.923165
0.922877
0.928124
0.94239
1.00353
1.08967
1.13592
1.15686
1.16907
1.17243
1.15307
1.11143
1.07911
1.06326
1.05576
1.0494
1.04474
1.04702
1.05776
1.08647
1.15893
1.2358
1.27307
1.28689
1.29434
1.28833
1.25715
1.20595
1.17205
1.15972
1.15597
1.15755
1.16508
1.18287
1.21784
1.26718
1.31099
1.34123
1.3608
1.37773
1.38067
1.3603
1.31479
1.26383
1.23566
1.2404
4.32548
34.1735
0.834291
0.842388
0.820786
0.773453
0.731944
0.707417
0.695977
0.693233
0.694812
0.698318
0.711643
0.792149
0.88416
0.912332
0.919789
0.919947
0.88778
0.834389
0.799426
0.781609
0.777468
0.780176
0.785615
0.79221
0.80087
0.817328
0.859168
0.914488
0.95162
0.974301
0.985151
0.990408
0.982483
0.948534
0.909824
0.871461
0.844332
0.833756
0.833973
0.838446
0.854573
0.921063
1.01266
1.0588
1.07475
1.08087
1.07543
1.04012
0.985706
0.949929
0.928925
0.921158
0.92328
0.928759
0.939663
0.978803
1.07025
1.1395
1.16273
1.17209
1.17174
1.15894
1.13643
1.10001
1.07083
1.05818
1.05247
1.04679
1.04531
1.04884
1.05623
1.0892
1.18186
1.25233
1.27805
1.29026
1.29446
1.27589
1.24207
1.20513
1.17974
1.16588
1.15813
1.15713
1.16375
1.1891
1.2506
1.30599
1.3337
1.35135
1.36638
1.36765
1.35314
1.31915
1.26842
1.22063
1.20317
4.26647
34.3071
0.836797
0.82376
0.783598
0.755653
0.731994
0.709979
0.699363
0.699122
0.702897
0.710958
0.756793
0.845718
0.895619
0.913596
0.918104
0.901938
0.857069
0.824179
0.808784
0.799319
0.794762
0.794668
0.797453
0.802013
0.807737
0.81671
0.839368
0.899104
0.960778
0.984965
0.994792
1.00094
1.00372
0.981515
0.910896
0.853258
0.830603
0.827281
0.831676
0.839418
0.85719
0.918363
1.01635
1.06641
1.08083
1.08381
1.06529
1.03062
0.992898
0.955066
0.932665
0.926161
0.928816
0.937412
0.964869
1.00052
1.0378
1.09765
1.13861
1.15142
1.14671
1.1309
1.12364
1.11866
1.1006
1.07991
1.06519
1.05284
1.04542
1.0465
1.05361
1.06862
1.12359
1.20738
1.25101
1.2685
1.27935
1.27745
1.2609
1.23593
1.20923
1.18617
1.1714
1.16722
1.1709
1.18097
1.22494
1.29119
1.32775
1.34319
1.35332
1.34873
1.33254
1.3107
1.27678
1.23089
1.204
4.16501
34.4145
0.815846
0.777848
0.759943
0.749818
0.734703
0.716766
0.707908
0.709181
0.716418
0.751938
0.816303
0.865976
0.893896
0.90375
0.896868
0.865891
0.835661
0.819726
0.814044
0.812
0.811486
0.811896
0.814193
0.819655
0.829536
0.842832
0.856673
0.883179
0.943691
0.983553
0.994094
0.996104
0.99157
0.967776
0.910373
0.855237
0.834964
0.833458
0.837578
0.855386
0.903441
0.952179
0.993306
1.03428
1.05004
1.04661
1.03291
1.01877
1.00932
0.986573
0.959811
0.951631
0.956948
0.974286
1.00056
1.01636
1.02223
1.03401
1.07102
1.10292
1.11545
1.11935
1.12624
1.13366
1.13487
1.11901
1.08999
1.06303
1.04931
1.04874
1.05736
1.07471
1.10422
1.15607
1.20505
1.23097
1.24516
1.25384
1.24998
1.24405
1.2408
1.23181
1.2165
1.2039
1.19994
1.20201
1.20942
1.24973
1.30396
1.32752
1.3341
1.32624
1.30857
1.29845
1.28038
1.24326
1.21428
4.10512
34.5027
0.777684
0.747835
0.742847
0.738391
0.728946
0.720032
0.717949
0.723709
0.759041
0.810185
0.841349
0.86181
0.875221
0.872761
0.854875
0.840022
0.829073
0.821934
0.819728
0.821903
0.827051
0.834635
0.844724
0.856974
0.867743
0.869938
0.867498
0.870654
0.893621
0.943637
0.964142
0.966368
0.962905
0.947523
0.912219
0.875972
0.859525
0.861433
0.876571
0.919191
0.958221
0.971456
0.973911
0.969823
0.976756
0.999815
1.01909
1.02799
1.03264
1.02773
1.01102
1.00037
1.00124
1.00858
1.01501
1.01786
1.01447
1.0048
1.00649
1.03262
1.08066
1.12004
1.1389
1.14806
1.15383
1.15317
1.1335
1.09717
1.07232
1.06581
1.07498
1.09145
1.1068
1.12375
1.14832
1.17618
1.19814
1.21531
1.2303
1.24566
1.26212
1.27585
1.27657
1.255
1.22657
1.20731
1.2014
1.20936
1.24853
1.28977
1.30783
1.30436
1.28634
1.27612
1.27568
1.26567
1.25112
4.03356
34.6006
0.746695
0.731315
0.730229
0.727147
0.723354
0.724156
0.730896
0.767569
0.816131
0.838167
0.845828
0.85087
0.838545
0.821082
0.81827
0.824753
0.830152
0.831865
0.832938
0.838886
0.853338
0.871733
0.886231
0.894284
0.892223
0.878646
0.86208
0.8529
0.854036
0.881217
0.9275
0.947998
0.952427
0.949279
0.929531
0.913217
0.909537
0.917414
0.939957
0.963772
0.974189
0.974366
0.943427
0.914445
0.913273
0.93741
0.99446
1.03204
1.0476
1.06242
1.07281
1.06677
1.04731
1.03124
1.02024
1.00687
0.995377
0.983382
0.979548
0.988082
1.02066
1.08426
1.13376
1.1548
1.16139
1.1631
1.16238
1.14482
1.11689
1.10486
1.10846
1.1159
1.11785
1.11187
1.11047
1.12091
1.14023
1.1696
1.20862
1.24879
1.27837
1.29831
1.31242
1.30184
1.258
1.21975
1.20429
1.20093
1.20872
1.22985
1.26147
1.27759
1.27329
1.26815
1.2707
1.27271
1.27776
4.05621
34.6671
0.72736
0.72598
0.726781
0.728266
0.728134
0.735808
0.773298
0.819164
0.841531
0.848794
0.847412
0.818471
0.788616
0.781777
0.788878
0.807555
0.828703
0.844806
0.860897
0.880182
0.89731
0.908345
0.914501
0.913459
0.893075
0.863163
0.843476
0.835811
0.836687
0.842721
0.876001
0.923547
0.945635
0.9526
0.957582
0.958745
0.965116
0.978303
0.988786
0.992235
0.98193
0.943933
0.905545
0.891057
0.891988
0.899194
0.938198
1.01369
1.07154
1.10515
1.12033
1.12199
1.0916
1.04482
1.01376
0.999128
0.990375
0.985292
0.982358
0.987457
1.00041
1.02703
1.08517
1.13525
1.15424
1.15736
1.15578
1.15957
1.16787
1.16935
1.16189
1.15131
1.13155
1.10604
1.09209
1.09095
1.10001
1.1247
1.18336
1.24286
1.27659
1.29612
1.31229
1.31264
1.28523
1.2442
1.21256
1.19998
1.20346
1.2014
1.20575
1.23226
1.26021
1.27044
1.27469
1.27702
1.31546
4.1658
34.7687
0.709791
0.722645
0.733815
0.740412
0.754952
0.786704
0.821635
0.839939
0.845766
0.844302
0.816788
0.776959
0.758399
0.758002
0.765136
0.783375
0.817793
0.85998
0.904133
0.927904
0.933992
0.931841
0.927075
0.905017
0.869071
0.844883
0.836041
0.836076
0.839109
0.84293
0.850692
0.884575
0.930453
0.960106
0.978796
0.997429
1.00845
1.01225
1.01301
1.00729
0.971442
0.917287
0.886373
0.878752
0.880781
0.886041
0.900745
0.97487
1.07606
1.11596
1.129
1.13213
1.11968
1.08139
1.03146
1.00511
0.99754
0.998429
1.00606
1.01513
1.01819
1.01502
1.02204
1.06583
1.11464
1.13526
1.14672
1.17254
1.20039
1.21112
1.20772
1.19108
1.15463
1.11248
1.08878
1.0822
1.08528
1.09581
1.15072
1.22491
1.26461
1.2845
1.30039
1.30292
1.29017
1.26656
1.23567
1.21045
1.19768
1.18975
1.17744
1.17639
1.21211
1.25898
1.28544
1.28987
1.33705
4.29528
34.9365
0.685574
0.709769
0.739739
0.774989
0.8177
0.845753
0.852016
0.850955
0.841047
0.811084
0.778417
0.759511
0.752645
0.75297
0.757051
0.764473
0.79498
0.87434
0.931898
0.955052
0.960759
0.956642
0.92854
0.888733
0.852527
0.833417
0.830777
0.83459
0.84016
0.846325
0.855392
0.866152
0.894323
0.944179
0.987732
1.01519
1.03034
1.03599
1.02878
1.00245
0.961203
0.916663
0.890655
0.881899
0.88212
0.889956
0.917589
0.960732
1.02914
1.09139
1.11513
1.11473
1.09016
1.07572
1.0665
1.04874
1.03932
1.03914
1.03797
1.03199
1.016
0.999543
0.994914
1.00734
1.05327
1.10778
1.1543
1.19568
1.21777
1.2244
1.22521
1.2178
1.18645
1.13728
1.09944
1.08404
1.08364
1.08835
1.11739
1.18469
1.23485
1.2602
1.27677
1.28203
1.27589
1.27055
1.25517
1.2323
1.21276
1.18751
1.15407
1.1406
1.15024
1.20981
1.28358
1.30943
1.36385
4.41159
35.157
0.660136
0.682885
0.743016
0.826943
0.885719
0.900498
0.893285
0.863261
0.821876
0.779541
0.755106
0.747861
0.74807
0.752208
0.760924
0.778862
0.810384
0.867454
0.932642
0.956957
0.960072
0.954198
0.937114
0.893437
0.852906
0.835405
0.835751
0.842878
0.852463
0.861977
0.8692
0.873675
0.876987
0.8982
0.962956
1.01408
1.03271
1.0391
1.03823
1.01592
0.967827
0.925214
0.902753
0.896776
0.899131
0.912782
0.937494
0.955285
0.974925
1.01489
1.0535
1.06817
1.07222
1.08176
1.09712
1.1141
1.11074
1.08878
1.06077
1.02476
0.991743
0.97762
0.978704
0.988521
1.01202
1.06832
1.15339
1.2029
1.22151
1.22737
1.22171
1.20977
1.19616
1.17289
1.13449
1.10365
1.09258
1.09355
1.10301
1.1399
1.19066
1.23295
1.25473
1.26453
1.25817
1.25356
1.2555
1.24829
1.2344
1.19928
1.14644
1.11808
1.11794
1.15104
1.24384
1.30781
1.37407
4.49896
35.3548
0.64666
0.657248
0.728649
0.863624
0.915536
0.925318
0.924412
0.890533
0.819179
0.772887
0.755341
0.751043
0.755628
0.77077
0.794021
0.81166
0.819973
0.835402
0.885368
0.923728
0.932008
0.933549
0.937592
0.922806
0.88263
0.862427
0.861515
0.864887
0.86677
0.86912
0.87217
0.873169
0.871278
0.873917
0.903848
0.975469
1.01597
1.02914
1.03617
1.03601
1.00585
0.961692
0.933063
0.921546
0.919488
0.927491
0.946254
0.952549
0.953044
0.95647
0.977287
1.02252
1.07008
1.10382
1.13738
1.16108
1.16796
1.1484
1.09366
1.02542
0.982897
0.972981
0.977438
0.991929
1.01996
1.07001
1.13171
1.17945
1.19875
1.20353
1.20409
1.20398
1.20287
1.1988
1.17636
1.13571
1.10974
1.1017
1.10306
1.11656
1.14839
1.19036
1.22732
1.24371
1.23953
1.2346
1.23906
1.24377
1.24368
1.22041
1.16896
1.12262
1.11412
1.12508
1.18092
1.26236
1.35033
4.5504
35.518
0.652985
0.681825
0.777434
0.87262
0.915178
0.92548
0.913834
0.866359
0.819326
0.78787
0.773231
0.775206
0.788735
0.807501
0.8191
0.81993
0.815013
0.811478
0.818178
0.863506
0.910094
0.933862
0.947157
0.953102
0.936697
0.900517
0.879639
0.872138
0.869184
0.868361
0.866887
0.864621
0.863305
0.86616
0.876241
0.915627
0.984735
1.02527
1.04001
1.04675
1.04024
1.00384
0.963081
0.940212
0.931823
0.932473
0.940116
0.943682
0.941951
0.935263
0.939676
0.965552
1.03664
1.1143
1.15873
1.17623
1.18411
1.18152
1.13449
1.04642
0.993045
0.982854
0.990669
1.02067
1.06816
1.10036
1.11439
1.1249
1.13888
1.16107
1.18551
1.20057
1.20734
1.21102
1.20406
1.17105
1.13703
1.11908
1.11452
1.12457
1.14615
1.15662
1.17964
1.20672
1.21351
1.21193
1.21624
1.22431
1.23432
1.23387
1.20835
1.15884
1.12298
1.11958
1.12972
1.18289
1.29246
4.56454
35.6606
0.685484
0.749787
0.803586
0.845465
0.875906
0.880057
0.864614
0.852778
0.840977
0.826136
0.818883
0.819917
0.825321
0.830804
0.828864
0.811105
0.792159
0.783858
0.783553
0.801279
0.876256
0.940699
0.963007
0.972705
0.971448
0.938031
0.893426
0.868058
0.858906
0.857486
0.858661
0.86096
0.864698
0.869861
0.878411
0.890994
0.927497
0.992269
1.03069
1.04497
1.0441
1.02364
0.992719
0.965207
0.94968
0.944059
0.945512
0.948797
0.946936
0.939094
0.943779
0.958576
0.992739
1.07796
1.1484
1.17118
1.17041
1.14247
1.09628
1.05394
1.02763
1.02289
1.04569
1.07954
1.10013
1.10902
1.09477
1.07275
1.07139
1.09041
1.14234
1.18437
1.20091
1.20792
1.21105
1.201
1.1798
1.15889
1.14791
1.14973
1.15403
1.14849
1.14384
1.15323
1.17954
1.19546
1.20367
1.21373
1.22625
1.23586
1.22608
1.19986
1.15044
1.12126
1.11632
1.1284
1.21754
4.52292
35.7988
0.739625
0.79866
0.813014
0.819502
0.814982
0.809233
0.820294
0.84264
0.861267
0.875929
0.879555
0.871187
0.858378
0.841191
0.81143
0.78377
0.77106
0.769886
0.77317
0.78722
0.842148
0.928769
0.966797
0.97721
0.974914
0.952156
0.917924
0.881479
0.861033
0.857398
0.860437
0.865971
0.87379
0.884026
0.89213
0.895366
0.89929
0.926434
0.98054
1.01172
1.01915
1.01238
1.00397
0.993977
0.980138
0.970754
0.969743
0.973031
0.97234
0.968002
0.973784
0.982294
0.987511
1.00544
1.06467
1.10358
1.10765
1.098
1.08609
1.07404
1.07212
1.09132
1.11252
1.12236
1.12568
1.10847
1.0635
1.0305
1.02413
1.02981
1.07336
1.14754
1.18591
1.2029
1.21627
1.22599
1.22639
1.21265
1.19252
1.17586
1.15937
1.14262
1.12501
1.11615
1.13631
1.17444
1.1959
1.20893
1.22498
1.24136
1.23439
1.2203
1.18943
1.14845
1.12557
1.10363
1.14054
4.42951
35.8554
0.785618
0.815625
0.818841
0.799685
0.764894
0.759941
0.77038
0.808372
0.869344
0.91133
0.928412
0.928361
0.902765
0.84368
0.788316
0.761246
0.756896
0.760349
0.775436
0.813903
0.863584
0.903257
0.935969
0.947952
0.937955
0.919001
0.901448
0.895463
0.889984
0.884408
0.885742
0.892807
0.901863
0.90731
0.902242
0.896411
0.891911
0.891418
0.902844
0.944737
0.983041
0.999286
1.00415
1.01046
1.01532
1.0237
1.02964
1.03042
1.02143
1.00127
0.991157
0.986638
0.978952
0.971967
0.978718
1.01025
1.04053
1.05809
1.07124
1.09208
1.12766
1.15023
1.15307
1.1488
1.13836
1.09604
1.03635
1.00346
0.99507
0.996312
1.01564
1.0889
1.16319
1.20335
1.22663
1.24466
1.25234
1.24796
1.23311
1.20674
1.17642
1.14754
1.1149
1.09548
1.09629
1.12908
1.17804
1.21346
1.23721
1.25072
1.2461
1.22855
1.21401
1.18658
1.15299
1.11068
1.09254
4.32325
35.837
0.815587
0.824572
0.810157
0.769847
0.746379
0.744732
0.749192
0.76764
0.848287
0.918628
0.937615
0.943587
0.935946
0.867871
0.783211
0.756372
0.755448
0.764707
0.806911
0.867772
0.892449
0.894482
0.87938
0.866065
0.872851
0.891686
0.907605
0.921738
0.934682
0.945911
0.949165
0.942488
0.930571
0.914692
0.899428
0.887062
0.877396
0.870038
0.868984
0.878348
0.919257
0.970564
1.00002
1.01667
1.04654
1.0835
1.10279
1.10039
1.07515
1.03144
0.995419
0.96869
0.952719
0.94504
0.944208
0.955139
0.980234
1.01128
1.05099
1.11085
1.15747
1.17574
1.17877
1.17133
1.1395
1.08486
1.03175
0.998527
0.988288
0.988954
1.00065
1.03962
1.11268
1.18341
1.22513
1.24485
1.25467
1.2592
1.25703
1.23982
1.20781
1.16687
1.11851
1.08854
1.08059
1.09343
1.13837
1.20365
1.24492
1.25825
1.25664
1.23504
1.22041
1.20725
1.1847
1.13984
1.09734
4.17836
35.8354
0.828934
0.829685
0.803377
0.768258
0.751364
0.749086
0.753147
0.766611
0.823646
0.899621
0.924132
0.92361
0.896348
0.839751
0.793857
0.775571
0.778905
0.816841
0.879027
0.909169
0.912546
0.880237
0.821152
0.798359
0.800779
0.836873
0.896008
0.945678
0.990876
1.01719
1.02663
1.01181
0.960495
0.91239
0.885748
0.872219
0.865273
0.861728
0.860664
0.861038
0.866962
0.902945
0.967843
1.02898
1.09269
1.13792
1.15423
1.15246
1.12657
1.06873
0.998648
0.960578
0.944697
0.938202
0.938218
0.942353
0.950085
0.967951
1.01892
1.10041
1.15613
1.17349
1.17536
1.1684
1.14259
1.09643
1.047
1.01202
0.997573
0.996635
1.01214
1.0478
1.07563
1.11745
1.18211
1.22448
1.24387
1.25
1.25335
1.25601
1.24832
1.20915
1.15213
1.10988
1.09293
1.09157
1.10308
1.15219
1.22755
1.25878
1.25807
1.24366
1.2255
1.21559
1.20092
1.16045
1.11236
4.10529
35.8945
0.835013
0.813442
0.786743
0.770411
0.764517
0.766652
0.773382
0.785239
0.802853
0.834812
0.861416
0.865574
0.859399
0.844442
0.827439
0.830242
0.861204
0.905499
0.929256
0.933474
0.908348
0.83671
0.788419
0.77509
0.775375
0.786437
0.850935
0.967675
1.04449
1.07235
1.0838
1.07029
1.01005
0.927656
0.882188
0.867357
0.862728
0.862239
0.862632
0.862407
0.865342
0.873081
0.906937
1.01387
1.11745
1.15501
1.16616
1.16016
1.12446
1.06663
1.01299
0.971338
0.94975
0.942034
0.943468
0.951938
0.96956
0.998308
1.02491
1.05413
1.10431
1.13795
1.14595
1.14566
1.14117
1.12459
1.09123
1.05517
1.03328
1.02697
1.03563
1.05578
1.06637
1.0709
1.09682
1.1591
1.20567
1.22816
1.24081
1.25013
1.26189
1.2519
1.20849
1.14924
1.1109
1.09776
1.0963
1.10702
1.17781
1.2409
1.25245
1.24428
1.23005
1.21975
1.20929
1.17695
1.13583
4.06091
35.9817
0.853178
0.814119
0.787082
0.778786
0.781668
0.788847
0.794368
0.797152
0.79122
0.776723
0.779598
0.808121
0.837287
0.857272
0.889177
0.929754
0.951915
0.956671
0.95554
0.929056
0.857204
0.797372