/*--------------------------------*- C++ -*----------------------------------*\
  =========                 |
  \\      /  F ield         | OpenFOAM: The Open Source CFD Toolbox
   \\    /   O peration     | Website:  https://openfoam.org
    \\  /    A nd           | Version:  12
     \\/     M anipulation  |
\*---------------------------------------------------------------------------*/
FoamFile
{
    format      ascii;
    class       volScalarField;
    location    "27.3";
    object      T;
}
// * * * * * * * * * * * * * * * * * * * * * * * * * * * * * * * * * * * * * //

dimensions      [0 0 0 1 0 0 0];

internalField   nonuniform List<scalar> 
9801
(
0.790396
0.799173
0.802049
0.80319
0.803248
0.800216
0.79774
0.797627
0.798176
0.798803
0.800653
0.804403
0.80595
0.806351
0.806366
0.807158
0.808258
0.80913
0.809767
0.810639
0.812284
0.814316
0.815888
0.818842
0.823259
0.826426
0.828347
0.829962
0.831627
0.832334
0.830098
0.82871
0.829213
0.830272
0.831549
0.833977
0.84166
0.849291
0.852261
0.853361
0.853991
0.853445
0.848976
0.845799
0.845644
0.846318
0.847314
0.848673
0.852948
0.860995
0.866086
0.868224
0.869368
0.870291
0.868418
0.864683
0.863795
0.86422
0.864997
0.866118
0.868547
0.876205
0.883969
0.887411
0.888884
0.889905
0.889713
0.886119
0.882711
0.881692
0.882446
0.884354
0.888031
0.898651
0.907402
0.911054
0.912872
0.914124
0.915434
0.910741
0.902429
0.900306
0.902149
0.905897
0.917351
0.933998
0.942923
0.947016
0.950188
0.953283
0.951363
0.941212
0.930741
0.929797
0.936885
0.962574
0.996084
1.14742
1.52128
0.792827
0.7965
0.801299
0.803309
0.802894
0.80214
0.801937
0.801916
0.802329
0.803807
0.808576
0.811731
0.812892
0.813585
0.814043
0.811964
0.809349
0.809765
0.811031
0.812364
0.813763
0.815945
0.821027
0.826523
0.829255
0.830787
0.831961
0.83304
0.833477
0.831288
0.830893
0.831391
0.832101
0.833151
0.834324
0.837151
0.844757
0.85135
0.85446
0.856068
0.85708
0.856748
0.852358
0.848735
0.84835
0.849154
0.850238
0.851525
0.855644
0.863929
0.869305
0.871792
0.873277
0.874542
0.873423
0.868843
0.866729
0.86702
0.868009
0.869305
0.871716
0.87923
0.886962
0.890825
0.892841
0.894248
0.895244
0.891289
0.885746
0.88501
0.886385
0.888329
0.891932
0.901436
0.910428
0.914715
0.917311
0.919566
0.920935
0.916204
0.908042
0.906297
0.908478
0.911996
0.91992
0.934489
0.945063
0.950951
0.955462
0.960131
0.959895
0.952184
0.943594
0.941008
0.94525
0.960624
0.991542
1.14575
1.54328
0.803272
0.804062
0.805487
0.805234
0.803303
0.802889
0.803468
0.804249
0.805342
0.808461
0.814527
0.818209
0.819443
0.820262
0.820671
0.818294
0.814658
0.814222
0.815348
0.816849
0.818435
0.82072
0.826392
0.833208
0.83657
0.837904
0.838817
0.839735
0.838663
0.835291
0.835023
0.836369
0.837784
0.839119
0.840653
0.843954
0.851493
0.857411
0.860075
0.861511
0.862252
0.86194
0.858343
0.854863
0.854254
0.854969
0.856158
0.857572
0.861275
0.869795
0.876151
0.879263
0.881194
0.882777
0.882717
0.878163
0.874078
0.87319
0.873986
0.8755
0.878043
0.885518
0.894291
0.899041
0.901612
0.903614
0.905204
0.90193
0.895679
0.894255
0.895614
0.897897
0.901028
0.909803
0.921002
0.926863
0.929899
0.932321
0.933937
0.930311
0.9233
0.920952
0.923105
0.927068
0.932669
0.94635
0.96171
0.969903
0.97487
0.980194
0.981594
0.976613
0.971339
0.969351
0.970554
0.983898
1.00574
1.16482
1.57644
0.815911
0.817526
0.811359
0.806049
0.805306
0.806335
0.808456
0.811072
0.813902
0.818213
0.823659
0.826805
0.828129
0.828815
0.829136
0.828106
0.824484
0.82308
0.823774
0.825276
0.827011
0.829135
0.834019
0.841818
0.846236
0.847787
0.848684
0.849253
0.847674
0.844499
0.843977
0.845216
0.846986
0.849093
0.851324
0.85484
0.861263
0.866726
0.869576
0.871202
0.872286
0.872871
0.870209
0.866388
0.865504
0.86638
0.867889
0.869699
0.873303
0.882425
0.890239
0.893751
0.895652
0.896962
0.896642
0.890848
0.885495
0.885037
0.88661
0.888765
0.891865
0.899462
0.909466
0.914822
0.917481
0.919631
0.921302
0.918957
0.912533
0.910108
0.911477
0.91421
0.917442
0.925073
0.937348
0.944767
0.948456
0.951437
0.954561
0.954211
0.947879
0.943434
0.944321
0.948556
0.953928
0.963454
0.979506
0.991332
0.99823
1.00447
1.00922
1.00709
1.00213
0.99783
0.997495
1.00742
1.01907
1.18763
1.6128
0.827446
0.825159
0.816478
0.814187
0.814645
0.816046
0.818235
0.821166
0.824534
0.828613
0.833163
0.836239
0.83772
0.838665
0.839713
0.840832
0.839716
0.836816
0.836739
0.838073
0.839756
0.841269
0.843643
0.851015
0.857519
0.859876
0.861026
0.862078
0.862279
0.85946
0.857665
0.858359
0.860059
0.862015
0.864123
0.867279
0.873009
0.87861
0.881962
0.883985
0.885354
0.886263
0.884249
0.880418
0.879857
0.881193
0.883063
0.885157
0.888719
0.897279
0.904939
0.908352
0.909976
0.910706
0.910371
0.906353
0.902055
0.901723
0.903488
0.90577
0.908477
0.914846
0.925275
0.931645
0.93482
0.93728
0.939638
0.939576
0.933548
0.928891
0.929372
0.932157
0.935424
0.941214
0.953366
0.963587
0.968786
0.972371
0.97595
0.978082
0.973544
0.966539
0.96385
0.966908
0.972442
0.97944
0.992645
1.00794
1.01808
1.02516
1.03188
1.03337
1.0292
1.02389
1.01837
1.02139
1.02434
1.20225
1.6394
0.834866
0.830051
0.826458
0.826326
0.827327
0.828749
0.830467
0.832538
0.834869
0.837725
0.842084
0.846503
0.849367
0.851514
0.85351
0.855291
0.85653
0.854764
0.852925
0.852976
0.853487
0.854029
0.855069
0.858848
0.867645
0.873253
0.875634
0.877113
0.878403
0.877673
0.87457
0.873683
0.874383
0.875516
0.876922
0.878904
0.883866
0.890284
0.894148
0.896362
0.897933
0.899137
0.898462
0.895409
0.895197
0.896739
0.898682
0.900803
0.903892
0.910547
0.917052
0.920555
0.922667
0.924177
0.925162
0.923648
0.919368
0.917923
0.919261
0.921426
0.923893
0.928583
0.938889
0.946837
0.950816
0.953618
0.956187
0.957918
0.954141
0.946858
0.944601
0.946834
0.950119
0.95452
0.964278
0.976925
0.98462
0.988738
0.992186
0.995287
0.993954
0.986971
0.982122
0.981318
0.984576
0.989728
0.997745
1.01165
1.02438
1.03306
1.04038
1.04614
1.04597
1.04199
1.03382
1.0284
1.02241
1.20774
1.65497
0.841278
0.840209
0.84023
0.84052
0.84119
0.842315
0.843773
0.844838
0.845116
0.845802
0.848232
0.854309
0.860484
0.864796
0.867522
0.869594
0.871523
0.872288
0.869855
0.866758
0.865284
0.865438
0.8664
0.868087
0.875225
0.884917
0.889399
0.891454
0.893022
0.893778
0.891284
0.888179
0.887171
0.887507
0.888566
0.889977
0.893039
0.899527
0.904271
0.906851
0.908845
0.91062
0.911583
0.908961
0.907425
0.908653
0.910492
0.912397
0.914545
0.919334
0.925555
0.929702
0.932684
0.935281
0.937385
0.938485
0.934816
0.930822
0.930906
0.932759
0.935098
0.938581
0.947729
0.957501
0.962511
0.965417
0.967871
0.970169
0.969558
0.962278
0.957456
0.957561
0.960271
0.963612
0.969644
0.981987
0.993101
0.999262
1.00309
1.0065
1.00844
1.00441
0.997833
0.993506
0.992498
0.995234
1.00046
1.01007
1.02369
1.03484
1.04318
1.0501
1.05379
1.05202
1.04673
1.03668
1.01964
1.20662
1.66334
0.846814
0.849509
0.85189
0.853173
0.85414
0.855364
0.856425
0.855157
0.853454
0.853485
0.854441
0.859442
0.869028
0.875637
0.879694
0.88219
0.884252
0.885879
0.882341
0.876001
0.874416
0.875126
0.876427
0.878204
0.883949
0.893357
0.8992
0.902009
0.9038
0.905088
0.904219
0.899697
0.897134
0.897069
0.897852
0.898927
0.900462
0.905433
0.91161
0.915158
0.917656
0.919693
0.921325
0.920921
0.918018
0.917376
0.918077
0.919081
0.920522
0.923705
0.931015
0.93736
0.941303
0.944158
0.946436
0.948459
0.94771
0.942274
0.939605
0.940516
0.942644
0.945348
0.952097
0.963273
0.970416
0.973924
0.97626
0.978373
0.979258
0.974665
0.968004
0.965453
0.966471
0.969341
0.973031
0.981089
0.994519
1.00439
1.00974
1.0138
1.0172
1.01748
1.0104
1.00265
0.9992
0.999747
1.00316
1.00887
1.01942
1.03189
1.04116
1.04841
1.05411
1.05573
1.05364
1.04529
1.02719
1.2027
1.66967
0.851484
0.857317
0.860678
0.863312
0.865416
0.866808
0.864788
0.860675
0.859374
0.860019
0.861161
0.866924
0.879064
0.886618
0.889501
0.891617
0.893656
0.893168
0.887052
0.882685
0.882513
0.883492
0.884811
0.887494
0.894032
0.90128
0.905636
0.908094
0.909677
0.910775
0.911203
0.908216
0.904549
0.903588
0.903954
0.904767
0.905974
0.909464
0.917172
0.92279
0.925804
0.927772
0.929472
0.930216
0.927405
0.924042
0.9226
0.923091
0.924665
0.927198
0.934285
0.943315
0.948512
0.951435
0.953567
0.955517
0.956378
0.95155
0.946787
0.946373
0.948213
0.950524
0.954437
0.964398
0.974233
0.979016
0.981817
0.983948
0.985544
0.984144
0.977528
0.97242
0.971263
0.972904
0.975812
0.979688
0.989756
1.00399
1.01323
1.01797
1.02133
1.02367
1.02165
1.01404
1.00762
1.00525
1.00605
1.00965
1.01617
1.02689
1.03749
1.04506
1.05115
1.05477
1.0556
1.05081
1.0376
1.20122
1.67494
0.858638
0.866728
0.870235
0.87254
0.8742
0.872508
0.866429
0.863834
0.864244
0.865646
0.86834
0.877592
0.889352
0.894242
0.8968
0.898842
0.898758
0.89365
0.888825
0.887851
0.888585
0.889837
0.891577
0.8955
0.902527
0.908083
0.910416
0.911766
0.912705
0.913746
0.914911
0.914148
0.910194
0.907949
0.907622
0.908273
0.909552
0.912351
0.92074
0.928641
0.932297
0.934248
0.935874
0.937252
0.935137
0.929189
0.926063
0.926095
0.92758
0.929789
0.935575
0.946339
0.953708
0.957101
0.959104
0.960771
0.961833
0.959531
0.953746
0.951903
0.952908
0.954886
0.957026
0.962149
0.973249
0.981159
0.984996
0.987625
0.990136
0.991742
0.988267
0.981034
0.977119
0.976292
0.977477
0.980117
0.984338
0.995839
1.0105
1.01872
1.02284
1.02603
1.02841
1.02612
1.01859
1.01265
1.0108
1.01207
1.01589
1.0225
1.03253
1.04154
1.0481
1.05291
1.0549
1.05358
1.04516
1.20329
1.68007
0.868008
0.875514
0.877417
0.879103
0.878884
0.871666
0.866527
0.866508
0.867602
0.869627
0.876072
0.889345
0.897379
0.900633
0.902287
0.902081
0.897743
0.893653
0.891977
0.892268
0.893701
0.895926
0.89868
0.901531
0.906613
0.910733
0.912688
0.913823
0.915186
0.916914
0.918477
0.918645
0.914869
0.911252
0.910194
0.910859
0.912279
0.914837
0.923129
0.932793
0.937151
0.939097
0.940551
0.941865
0.941059
0.934815
0.930474
0.93031
0.931672
0.933446
0.936911
0.946717
0.955958
0.959812
0.96186
0.96372
0.96589
0.966843
0.96252
0.957948
0.95701
0.957447
0.958622
0.960622
0.967821
0.980217
0.987615
0.991726
0.994778
0.997182
0.997778
0.991799
0.984064
0.980346
0.979454
0.980394
0.983155
0.988235
1.00123
1.01579
1.0239
1.02816
1.03123
1.03267
1.03009
1.02404
1.01885
1.01673
1.01756
1.02106
1.02702
1.03646
1.04486
1.05111
1.05454
1.05474
1.05005
1.20737
1.68418
0.876631
0.882301
0.883745
0.88399
0.878112
0.870031
0.868005
0.868697
0.869836
0.873172
0.88514
0.896369
0.901383
0.903258
0.902888
0.899177
0.897182
0.896601
0.89613
0.897453
0.899804
0.90228
0.903153
0.903994
0.906252
0.910828
0.914024
0.916407
0.918772
0.920611
0.922198
0.923059
0.919462
0.913882
0.911937
0.91253
0.913965
0.91646
0.924252
0.934899
0.940083
0.942177
0.943797
0.945386
0.945847
0.941684
0.936422
0.935626
0.936736
0.938027
0.939567
0.944419
0.95464
0.960901
0.964188
0.967062
0.969831
0.972248
0.971787
0.965321
0.960388
0.958696
0.958989
0.960654
0.963885
0.974728
0.988161
0.995001
0.998249
1.00092
1.00308
1.00205
0.994064
0.986263
0.983073
0.983009
0.984346
0.987161
0.991998
1.00477
1.01901
1.02704
1.03149
1.0348
1.03664
1.03514
1.02979
1.02413
1.021
1.02118
1.02411
1.02938
1.03898
1.04776
1.05322
1.05471
1.0535
1.21311
1.68762
0.882358
0.88747
0.888601
0.885026
0.875909
0.871515
0.870928
0.871982
0.875293
0.882661
0.891209
0.898313
0.901372
0.901181
0.898556
0.898539
0.900032
0.901417
0.90245
0.903592
0.905316
0.905619
0.903985
0.903157
0.904083
0.909291
0.916541
0.920766
0.922957
0.924626
0.926118
0.927277
0.923873
0.9166
0.914166
0.914733
0.916105
0.917967
0.923968
0.93508
0.941718
0.944545
0.946606
0.948517
0.950148
0.949038
0.943667
0.940451
0.940007
0.940431
0.94124
0.942847
0.950114
0.961217
0.967545
0.971417
0.974175
0.976553
0.978151
0.973763
0.964613
0.960115
0.959624
0.960885
0.963007
0.968143
0.981593
0.9939
0.999328
1.00223
1.00437
1.00628
1.0057
0.998147
0.990625
0.987415
0.986482
0.987012
0.989732
0.995298
1.00844
1.0223
1.0308
1.03581
1.03895
1.03994
1.03866
1.03411
1.02776
1.02346
1.02286
1.02496
1.02995
1.04046
1.04917
1.05287
1.05566
1.22071
1.69107
0.88582
0.890068
0.888238
0.881605
0.877313
0.875395
0.876389
0.880049
0.885923
0.88991
0.892199
0.894369
0.895701
0.896019
0.896589
0.899708
0.904429
0.907784
0.909655
0.909956
0.908783
0.905696
0.902294
0.901824
0.902987
0.907092
0.917575
0.924595
0.927392
0.928904
0.930258
0.931587
0.928858
0.920102
0.916797
0.917338
0.918686
0.920402
0.923895
0.934211
0.943367
0.947536
0.949818
0.951543
0.953236
0.954468
0.951388
0.94554
0.942341
0.941332
0.941893
0.943404
0.946784
0.958212
0.969963
0.975324
0.978184
0.980362
0.982406
0.980859
0.971008
0.96347
0.961901
0.962579
0.963932
0.966196
0.972056
0.985937
0.997777
1.00312
1.00642
1.00968
1.01217
1.01088
1.00147
0.992669
0.98892
0.988737
0.990373
0.993677
0.999264
1.01191
1.02525
1.03362
1.0385
1.04124
1.04179
1.04102
1.03673
1.02977
1.02466
1.02335
1.02454
1.02983
1.04114
1.04861
1.05545
1.22956
1.69453
0.886935
0.888147
0.883167
0.881024
0.881345
0.882666
0.886037
0.889987
0.892365
0.893291
0.890276
0.887151
0.888061
0.892499
0.898647
0.904579
0.909641
0.912645
0.914603
0.915553
0.911647
0.903644
0.900905
0.901517
0.903262
0.906782
0.917022
0.926842
0.930537
0.93237
0.933723
0.933779
0.930163
0.92357
0.919901
0.92025
0.921649
0.923534
0.926244
0.932762
0.943784
0.949976
0.952411
0.953991
0.955548
0.957341
0.958218
0.952944
0.945936
0.943083
0.943206
0.944585
0.946524
0.953878
0.969208
0.978035
0.981056
0.983154
0.984337
0.983176
0.978301
0.970131
0.965751
0.965099
0.965727
0.966915
0.969128
0.974829
0.98925
1.00245
1.00876
1.01181
1.01353
1.01507
1.01389
1.00487
0.996164
0.992701
0.992665
0.994154
0.99736
1.00304
1.01547
1.02802
1.0358
1.04032
1.04252
1.04306
1.04262
1.03836
1.03107
1.02518
1.02305
1.02348
1.03032
1.04113
1.05209
1.23822
1.69765
0.884897
0.883434
0.882291
0.883667
0.887363
0.89262
0.895582
0.896922
0.897156
0.892034
0.884627
0.882834
0.883891
0.889123
0.901294
0.910473
0.914626
0.916717
0.918363
0.918582
0.911298
0.903021
0.901495
0.902307
0.903671
0.906752
0.916149
0.92738
0.932052
0.933743
0.933829
0.932223
0.930631
0.927963
0.924954
0.924792
0.926449
0.929127
0.931314
0.932971
0.940221
0.949291
0.953383
0.955551
0.957551
0.959658
0.961626
0.960439
0.952026
0.946445
0.945973
0.947093
0.94876
0.952111
0.963569
0.976775
0.982063
0.984149
0.984536
0.984383
0.984054
0.980085
0.973084
0.969358
0.968851
0.96944
0.970213
0.971998
0.977177
0.992031
1.00573
1.01161
1.01477
1.01755
1.01968
1.01806
1.00802
0.999522
0.996335
0.996341
0.998012
1.0012
1.00688
1.01905
1.03074
1.0378
1.04179
1.04382
1.04464
1.04379
1.03942
1.03163
1.02456
1.02145
1.02212
1.03111
1.04645
1.24588
1.7003
0.881634
0.881263
0.882944
0.889163
0.896682
0.900508
0.902174
0.902254
0.897828
0.887305
0.882713
0.882881
0.884147
0.8886
0.902634
0.914364
0.918234
0.92036
0.92145
0.917849
0.90975
0.904669
0.903644
0.904507
0.905971
0.908782
0.915112
0.924506
0.929771
0.931067
0.93068
0.93078
0.932497
0.934035
0.933253
0.932498
0.933679
0.934951
0.934179
0.934331
0.935665
0.94368
0.95306
0.957508
0.960176
0.962171
0.964196
0.965224
0.96024
0.952781
0.950914
0.951887
0.953571
0.954997
0.958014
0.967843
0.977829
0.98234
0.98455
0.986134
0.988145
0.989722
0.985851
0.977977
0.973909
0.972405
0.97148
0.972085
0.974178
0.979678
0.995406
1.01016
1.01681
1.0196
1.02115
1.02206
1.01962
1.01146
1.00408
1.00074
1.00029
1.00156
1.00453
1.01074
1.02321
1.03423
1.04033
1.0433
1.0451
1.04564
1.04432
1.03997
1.03143
1.02249
1.01844
1.02075
1.03869
1.25138
1.70225
0.87829
0.880341
0.887152
0.896744
0.902585
0.905149
0.906609
0.905445
0.893959
0.884546
0.883194
0.883941
0.885326
0.891055
0.906818
0.91698
0.920397
0.922114
0.920642
0.91531
0.910765
0.907764
0.907516
0.908917
0.911389
0.913555
0.914752
0.917931
0.924003
0.927948
0.92984
0.932098
0.935984
0.940598
0.943497
0.943182
0.940356
0.93729
0.934685
0.933618
0.93431
0.937497
0.948933
0.958611
0.962499
0.964851
0.966847
0.968652
0.967818
0.961788
0.956635
0.955391
0.95563
0.956042
0.95664
0.958592
0.967219
0.978563
0.985179
0.989102
0.992581
0.994864
0.995425
0.989831
0.980496
0.975388
0.974147
0.9744
0.975574
0.977849
0.983069
0.998103
1.01237
1.01843
1.02098
1.02273
1.02415
1.02204
1.0151
1.00883
1.00539
1.00448
1.00548
1.00824
1.01433
1.02714
1.03726
1.0421
1.04405
1.04572
1.04584
1.04496
1.04078
1.03025
1.01925
1.0146
1.02742
1.25313
1.70309
0.875498
0.880651
0.893491
0.902423
0.906158
0.908237
0.909327
0.903305
0.890886
0.885837
0.885509
0.886277
0.888288
0.897044
0.910355
0.917802
0.92024
0.919492
0.916481
0.915315
0.914259
0.913206
0.91335
0.914662
0.916174
0.916685
0.914421
0.913344
0.915567
0.922902
0.930055
0.936404
0.943345
0.948244
0.950991
0.951753
0.946529
0.93797
0.933394
0.932899
0.93383
0.935484
0.942237
0.956433
0.964284
0.967392
0.969812
0.971608
0.97237
0.970381
0.96424
0.959045
0.956662
0.955397
0.954649
0.955317
0.957887
0.968191
0.98275
0.991092
0.994778
0.996714
0.997887
0.998681
0.993697
0.984173
0.978845
0.977366
0.977427
0.978487
0.981043
0.986269
1.00012
1.01362
1.02013
1.02302
1.02458
1.02551
1.02511
1.02144
1.01566
1.01066
1.00804
1.00778
1.00988
1.0161
1.02924
1.03892
1.04267
1.04428
1.04619
1.04654
1.04627
1.04107
1.02784
1.01528
1.0157
1.25002
1.70262
0.873581
0.881295
0.897777
0.905634
0.908475
0.910027
0.907598
0.898063
0.891355
0.888953
0.889333
0.891202
0.896643
0.904002
0.910898
0.915261
0.916302
0.91482
0.914514
0.91638
0.919302
0.921303
0.921401
0.92071
0.919684
0.916672
0.91295
0.912136
0.913363
0.91793
0.930687
0.943897
0.951143
0.95425
0.955859
0.955602
0.95001
0.939442
0.934561
0.93428
0.935024
0.936403
0.939734
0.949739
0.962597
0.968759
0.971434
0.973211
0.974613
0.975648
0.973315
0.965756
0.95948
0.956388
0.955003
0.954598
0.955566
0.95879
0.970652
0.985897
0.993667
0.997345
1.00027
1.00234
1.00315
0.997332
0.986903
0.981299
0.980297
0.981985
0.984403
0.985671
0.988728
0.999191
1.01237
1.01992
1.02419
1.028
1.0304
1.0311
1.02783
1.01968
1.01191
1.00824
1.00788
1.00963
1.01693
1.03088
1.03977
1.04274
1.04438
1.04651
1.04763
1.04746
1.04013
1.02321
1.00989
1.24244
1.70123
0.873872
0.883859
0.901064
0.907673
0.910095
0.909886
0.902455
0.896016
0.89407
0.894074
0.896031
0.901168
0.905506
0.907533
0.908633
0.909244
0.910556
0.912864
0.915862
0.919972
0.924809
0.928476
0.9302
0.92912
0.923365
0.915652
0.9117
0.911765
0.913127
0.916021
0.929787
0.948434
0.954727
0.957255
0.95814
0.955486
0.949019
0.942305
0.937669
0.93736
0.938727
0.941282
0.943228
0.945325
0.953406
0.964685
0.970667
0.973922
0.976558
0.97852
0.979768
0.976041
0.96656
0.959787
0.956884
0.956011
0.956357
0.957825
0.960747
0.971736
0.988353
0.997999
1.00199
1.00377
1.0051
1.00654
1.00299
0.993227
0.987611
0.986506
0.985954
0.985307
0.986276
0.989797
1.00028
1.0145
1.02466
1.02991
1.03226
1.0336
1.03421
1.03001
1.01948
1.01097
1.00803
1.00826
1.0102
1.01841
1.03142
1.03911
1.04196
1.04454
1.04712
1.04876
1.04806
1.0357
1.01508
1.23243
1.69995
0.876088
0.889791
0.903734
0.908423
0.909567
0.906088
0.900333
0.898285
0.898389
0.900934
0.905976
0.909468
0.911015
0.909849
0.904225
0.902038
0.903878
0.910126
0.918282
0.92586
0.931261
0.934385
0.936255
0.935965
0.927558
0.91598
0.913125
0.913574
0.914777
0.920346
0.935125
0.948715
0.955164
0.957377
0.95581
0.952172
0.950615
0.948526
0.945551
0.943911
0.944211
0.944597
0.94449
0.944539
0.945879
0.953718
0.966847
0.974674
0.97873
0.981595
0.98349
0.983974
0.978543
0.968254
0.961603
0.959074
0.958242
0.957958
0.959005
0.961827
0.973341
0.991677
1.00159
1.00561
1.00888
1.01042
1.01144
1.00777
0.997463
0.990086
0.987245
0.986881
0.987923
0.990207
0.993637
1.0042
1.02008
1.02877
1.03192
1.03349
1.03478
1.03369
1.02818
1.01918
1.01232
1.0096
1.00939
1.01162
1.0186
1.02983
1.03754
1.04152
1.04549
1.04887
1.05016
1.04543
1.02861
1.22504
1.6995
0.882079
0.896813
0.904579
0.907661
0.906955
0.902824
0.901634
0.902286
0.90511
0.910417
0.913926
0.915418
0.915004
0.907283
0.899623
0.89828
0.899762
0.906715
0.921323
0.932331
0.937382
0.939757
0.940683
0.938844
0.927995
0.918806
0.916702
0.917876
0.922153
0.929275
0.936109
0.943815
0.949117
0.950637
0.950401
0.951085
0.953501
0.955933
0.956715
0.953305
0.949104
0.946154
0.943696
0.942773
0.943416
0.945346
0.95565
0.971518
0.979848
0.983429
0.985729
0.986844
0.986762
0.98119
0.969972
0.962189
0.959
0.958407
0.959301
0.961698
0.965705
0.977357
0.996196
1.00651
1.00987
1.01127
1.01212
1.01273
1.01025
1.00193
0.995009
0.992424
0.992272
0.993595
0.995652
0.998784
1.00972
1.02319
1.02919
1.03158
1.03339
1.03384
1.03273
1.02941
1.02185
1.01441
1.01078
1.01015
1.01071
1.01614
1.02846
1.03736
1.04284
1.04774
1.05097
1.04965
1.04106
1.22397
1.70047
0.892102
0.899702
0.902757
0.903705
0.902418
0.902181
0.903207
0.908195
0.914728
0.918587
0.920269
0.920583
0.914805
0.902513
0.897362
0.897492
0.898747
0.904545
0.922983
0.936733
0.941119
0.943396
0.943249
0.936831
0.929227
0.924359
0.923693
0.925981
0.931234
0.934804
0.936043
0.93646
0.937702
0.942619
0.948812
0.954661
0.959385
0.962818
0.964817
0.964326
0.956882
0.947477
0.942367
0.941509
0.942302
0.94375
0.947958
0.961462
0.976899
0.984066
0.987101
0.988314
0.988276
0.987651
0.982586
0.971214
0.96399
0.962093
0.963378
0.967053
0.969627
0.971861
0.979171
0.995735
1.00591
1.00947
1.01137
1.01366
1.01554
1.01426
1.00762
1.00016
0.996264
0.995291
0.995944
0.997697
1.00124
1.01255
1.02384
1.02892
1.03138
1.0338
1.0351
1.03518
1.03292
1.02437
1.01493
1.00914
1.00756
1.00796
1.0143
1.02814
1.03834
1.04472
1.04971
1.05111
1.0492
1.22927
1.70326
0.899531
0.900837
0.895963
0.893511
0.895324
0.90022
0.908176
0.917196
0.923128
0.925548
0.925952
0.923226
0.910272
0.899331
0.897218
0.897815
0.899082
0.905279
0.924862
0.938244
0.942513
0.943792
0.939625
0.935075
0.933259
0.932653
0.933204
0.93431
0.935478
0.936264
0.933327
0.929061
0.928899
0.932905
0.945296
0.957967
0.965283
0.968824
0.970919
0.971717
0.96577
0.951215
0.943967
0.942994
0.943633
0.945477
0.949364
0.954877
0.966451
0.979743
0.986201
0.988268
0.987435
0.987055
0.988214
0.986442
0.97794
0.971923
0.970512
0.970802
0.970848
0.970617
0.972054
0.97857
0.994791
1.00731
1.013
1.01561
1.01742
1.01856
1.01771
1.01186
1.00391
0.998701
0.997027
0.997784
0.999428
1.00307
1.01419
1.02473
1.03002
1.03272
1.03506
1.03626
1.03655
1.03463
1.0255
1.01414
1.00713
1.00498
1.00543
1.01243
1.02742
1.03886
1.04604
1.04905
1.05412
1.23953
1.70726
0.902975
0.895566
0.886706
0.885378
0.887614
0.896797
0.913832
0.926178
0.93116
0.932793
0.931327
0.921573
0.9059
0.899429
0.898743
0.89931
0.902305
0.913161
0.926693
0.935789
0.939356
0.938325
0.935543
0.935791
0.93826
0.94257
0.94493
0.944681
0.941046
0.934545
0.927423
0.92476
0.925541
0.927903
0.939462
0.958903
0.968468
0.97222
0.974521
0.973922
0.967519
0.958863
0.95043
0.947237
0.947485
0.950027
0.95406
0.956104
0.95797
0.964401
0.976084
0.983694
0.986935
0.989364
0.992434
0.994723
0.994321
0.985983
0.976877
0.971791
0.9701
0.969982
0.970961
0.973044
0.978777
0.9947
1.00865
1.01473
1.01688
1.0178
1.01836
1.01948
1.01655
1.00909
1.00305
1.00028
1.00024
1.00162
1.00455
1.01372
1.02387
1.02974
1.03316
1.03571
1.03687
1.0382
1.0366
1.02642
1.01384
1.00625
1.00323
1.00291
1.01021
1.02666
1.03928
1.04464
1.05645
1.25168
1.71193
0.901737
0.885475
0.881298
0.881809
0.883686
0.892644
0.916912
0.931189
0.934949
0.936486
0.932895
0.917569
0.906086
0.902086
0.902272
0.905319
0.913886
0.921318
0.925666
0.929185
0.931941
0.933766
0.935556
0.939602
0.946025
0.950451
0.95227
0.95266
0.947583
0.933376
0.924164
0.922923
0.923855
0.92608
0.93529
0.956205
0.969153
0.973462
0.974438
0.970169
0.966598
0.96562
0.962097
0.956521
0.954262
0.954863
0.95628
0.956266
0.95395
0.953837
0.958816
0.973246
0.986289
0.992919
0.997291
1.00051
1.00201
1.00079
0.990368
0.978219
0.972028
0.970856
0.972343
0.975232
0.978431
0.982135
0.993723
1.00739
1.01364
1.01634
1.01884
1.02157
1.02398
1.02242
1.01432
1.00629
1.00267
1.0017
1.00179
1.00363
1.01208
1.02294
1.02996
1.03458
1.03753
1.03903
1.03995
1.03794
1.02677
1.01289
1.00474
1.0013
1.00054
1.00872
1.02632
1.03698
1.05545
1.26398
1.71629
0.896047
0.881326
0.880549
0.881397
0.883707
0.897518
0.920924
0.931925
0.935614
0.93468
0.92491
0.914966
0.909874
0.908725
0.911288
0.918241
0.923875
0.926104
0.925058
0.921565
0.921691
0.926335
0.935052
0.944883
0.952713
0.956062
0.957391
0.957467
0.951232
0.934539
0.925512
0.924486
0.925401
0.929915
0.939619
0.950118
0.961432
0.967702
0.968917
0.968028
0.968219
0.969521
0.970601
0.970148
0.965271
0.960283
0.957099
0.954177
0.950213
0.949069
0.950873
0.957541
0.976108
0.993081
1.00098
1.00363
1.0043
1.00438
1.00111
0.989701
0.979868
0.977
0.977792
0.979408
0.979164
0.979485
0.981743
0.991759
1.00678
1.0159
1.02048
1.02348
1.0264
1.02834
1.02582
1.01643
1.00672
1.00197
1.00063
1.00071
1.00247
1.01059
1.02324
1.0322
1.03736
1.03974
1.04052
1.04074
1.03681
1.02471
1.01243
1.0034
0.998569
0.997459
1.00775
1.02408
1.04933
1.27473
1.71938
0.891151
0.882506
0.882169
0.883887
0.894008
0.909047
0.920251
0.92719
0.928254
0.923012
0.917457
0.916008
0.916428
0.91989
0.925807
0.929354
0.930748
0.928885
0.920621
0.915275
0.91524
0.918266
0.929803
0.94675
0.95616
0.959914
0.961716
0.960723
0.951122
0.939238
0.931607
0.930284
0.932122
0.938196
0.943221
0.945345
0.948164
0.95393
0.961007
0.966523
0.970136
0.973368
0.976827
0.978366
0.977723
0.970668
0.960182
0.951255
0.94735
0.947583
0.950054
0.954102
0.963828
0.986027
1.00075
1.00413
1.00383
1.00098
0.998983
0.997901
0.99488
0.990307
0.986489
0.983402
0.98043
0.978868
0.979419
0.981303
0.99183
1.00976
1.01971
1.02347
1.02592
1.02848
1.02854
1.02574
1.01709
1.00711
1.00147
0.999601
0.999934
1.00123
1.01055
1.02521
1.03444
1.03852
1.03934
1.03961
1.03847
1.03346
1.025
1.01257
1.00087
0.994612
0.994218
1.00589
1.03754
1.28252
1.72073
0.89011
0.886059
0.88869
0.900649
0.910879
0.914469
0.91573
0.914899
0.913027
0.91348
0.915164
0.918887
0.927286
0.935305
0.938605
0.939335
0.937032
0.926668
0.914993
0.911761
0.912407
0.913984
0.922459
0.943861
0.956114
0.960017
0.960496
0.955951
0.950874
0.946424
0.942106
0.94008
0.940762
0.942886
0.944369
0.942829
0.938929
0.939268
0.945913
0.959194
0.969784
0.976912
0.982067
0.983947
0.984803
0.982197
0.966949
0.952607
0.948866
0.949327
0.954211
0.962591
0.969028
0.975453
0.9872
0.995274
0.996972
0.997413
0.999011
1.00308
1.00607
1.00532
1.00003
0.991343
0.983826
0.980239
0.979787
0.980646
0.98249
0.99423
1.01196
1.02063
1.02426
1.0271
1.02818
1.02832
1.0272
1.01878
1.0074
1.00081
0.998403
0.998745
1.00006
1.01101
1.02599
1.03463
1.03758
1.03811
1.03829
1.03661
1.03277
1.02582
1.01158
0.997653
0.990895
0.988096
1.02022
1.28705
1.72039
0.893401
0.8958
0.907948
0.916113
0.91856
0.916593
0.905718
0.897892
0.897658
0.902328
0.912011
0.926437
0.940329
0.946256
0.947392
0.946253
0.938701
0.921144
0.911567
0.910267
0.910966
0.91273
0.919234
0.934805
0.949052
0.954619
0.955599
0.954507
0.953569
0.953835
0.954082
0.953171
0.950623
0.947669
0.943551
0.937044
0.932832
0.932765
0.934944
0.944859
0.965103
0.978928
0.983902
0.9856
0.985802
0.980841
0.97262
0.962375
0.957257
0.95856
0.964724
0.96927
0.971386
0.970834
0.970336
0.976714
0.98743
0.995529
1.0019
1.00773
1.0118
1.01367
1.01264
1.00428
0.990921
0.983004
0.980927
0.98108
0.981704
0.984044
0.996924
1.01325
1.02177
1.02567
1.02811
1.02921
1.02973
1.0289
1.01977
1.00753
1.00015
0.997302
0.997151
0.998839
1.01071
1.02713
1.03579
1.03781
1.03782
1.03801
1.03456
1.03193
1.02562
1.00937
0.993822
0.986388
0.995887
1.28347
1.71784
0.903327
0.916095
0.922032
0.923598
0.921386
0.907063
0.892099
0.888077
0.8891
0.893365
0.909303
0.935872
0.949884
0.954092
0.955069
0.951255
0.934333
0.918082
0.911884
0.911088
0.911693
0.915239
0.922036
0.928302
0.936417
0.945507
0.95143
0.954923
0.958153
0.961896
0.963852
0.964138
0.961185
0.953269
0.941885
0.932851
0.930024
0.930374
0.932225
0.936723
0.951442
0.97362
0.983451
0.985962
0.984002
0.98068
0.978891
0.976525
0.974327
0.973917
0.974143
0.973857
0.971017
0.965168
0.962794
0.964725
0.972068
0.987264
1.00238
1.01058
1.01389
1.0155
1.0158
1.01276
1.00223
0.990448
0.98395
0.982337
0.98284
0.983965
0.987488
0.997341
1.01142
1.02124
1.0264
1.02857
1.02931
1.03091
1.03093
1.02171
1.00804
0.998998
0.995955
0.996105
0.998445
1.01231
1.02909
1.03644
1.03724
1.03609
1.03399
1.03229
1.03178
1.02476
1.0068
0.989831
0.984039
1.2723
1.71418
0.921199
0.929397
0.929769
0.927881
0.912645
0.892767
0.885194
0.884764
0.885761
0.889308
0.909077
0.940022
0.95159
0.955392
0.955498
0.945424
0.930716
0.920716
0.915442
0.915038
0.917127
0.922628
0.926384
0.9274
0.927295
0.930564
0.940607
0.952553
0.962188
0.968856
0.971412
0.972206
0.971552
0.961433
0.943784
0.933178
0.930727
0.931082
0.934607
0.942041
0.949076
0.959515
0.974265
0.981252
0.982146
0.981786
0.982834
0.987754
0.991199
0.989163
0.984033
0.977791
0.96871
0.961958
0.960501
0.961755
0.964149
0.973211
0.996515
1.01022
1.01355
1.01474
1.01363
1.01099
1.0082
1.00315
0.995098
0.989298
0.987135
0.986688
0.986592
0.986867
0.991738
1.00693
1.01984
1.02623
1.03046
1.03308
1.03422
1.0334
1.02218
1.00713
0.999
0.997395
0.998317
1.00123
1.01506
1.03009
1.03479
1.03426
1.03402
1.03226
1.03233
1.03199
1.02188
1.001
0.984664
1.2574
1.71135
0.934102
0.937929
0.934553
0.921697
0.899474
0.887387
0.885019
0.88553
0.887096
0.89758
0.919384
0.937627
0.947899
0.950139
0.944645
0.935457
0.930868
0.927563
0.924923
0.925095
0.927207
0.929377
0.930053
0.926383
0.922924
0.923262
0.926886
0.941735
0.961856
0.971776
0.975301
0.97679
0.975913
0.967788
0.951343
0.939561
0.936007
0.936676
0.942355
0.948568
0.951435
0.953074
0.95618
0.965961
0.97631
0.983062
0.990255
0.997792
1.00069
1.00073
0.995406
0.984037
0.97054
0.963537
0.962794
0.964963
0.968578
0.974421
0.98647
1.00108
1.0074
1.00916
1.01002
1.01006
1.01065
1.01173
1.01008
1.00263
0.994647
0.989509
0.985168
0.981611
0.981077
0.987462
1.00778
1.02478
1.03215
1.03518
1.03611
1.03632
1.03412
1.02145
1.00844
1.00234
1.00088
1.00169
1.00389
1.01583
1.0283
1.03192
1.03273
1.03336
1.03267
1.03329
1.03044
1.01379
0.995138
1.24305
1.70996
0.941085
0.945033
0.934931
0.910565
0.895271
0.88919
0.88757
0.889359
0.901369
0.916875
0.924716
0.929164
0.932801
0.933492
0.933357
0.93408
0.934497
0.935978
0.939241
0.941028
0.940721
0.936837
0.930329