/*--------------------------------*- C++ -*----------------------------------*\
  =========                 |
  \\      /  F ield         | OpenFOAM: The Open Source CFD Toolbox
   \\    /   O peration     | Website:  https://openfoam.org
    \\  /    A nd           | Version:  12
     \\/     M anipulation  |
\*---------------------------------------------------------------------------*/
FoamFile
{
    format      ascii;
    class       volScalarField;
    location    "29.9";
    object      p;
}
// * * * * * * * * * * * * * * * * * * * * * * * * * * * * * * * * * * * * * //

dimensions      [1 -1 -2 0 0 0 0];

internalField   nonuniform List<scalar> 
9801
(
0.661428
0.686382
0.690547
0.692819
0.679935
0.637798
0.617889
0.618886
0.625615
0.638492
0.663578
0.71716
0.769002
0.786311
0.788368
0.786589
0.778
0.760241
0.728395
0.696708
0.688232
0.691387
0.698796
0.711312
0.723659
0.741084
0.786243
0.833496
0.848374
0.848926
0.846301
0.837284
0.804986
0.761346
0.749417
0.754643
0.765566
0.779519
0.790636
0.804857
0.835008
0.870304
0.887917
0.895696
0.901358
0.906354
0.905757
0.885014
0.867456
0.864088
0.866642
0.871115
0.879677
0.90335
0.926921
0.939521
0.945352
0.948273
0.953341
0.961913
0.975677
0.992856
1.01552
1.04231
1.05814
1.06561
1.06972
1.07262
1.07197
1.05687
1.03643
1.03504
1.04392
1.05613
1.07252
1.10314
1.16024
1.2101
1.23815
1.25617
1.27018
1.27244
1.23008
1.18066
1.16981
1.18164
1.20472
1.26291
1.37209
1.45638
1.50383
1.5385
1.56693
1.57458
1.55227
1.52966
1.49202
4.04157
29.956
0.668131
0.681949
0.689836
0.690211
0.669837
0.653739
0.643942
0.637667
0.638072
0.644906
0.658629
0.689376
0.742743
0.777364
0.79035
0.794699
0.793818
0.780428
0.750342
0.722169
0.706304
0.701399
0.703019
0.707998
0.715841
0.73188
0.765322
0.809176
0.836246
0.84718
0.852461
0.853593
0.838336
0.80757
0.780693
0.769465
0.770548
0.775906
0.784273
0.798224
0.825116
0.858409
0.882406
0.895092
0.903001
0.908429
0.905082
0.893207
0.884369
0.883656
0.886513
0.89467
0.912418
0.923023
0.930361
0.937335
0.941616
0.948673
0.957888
0.967483
0.976706
0.988492
1.01346
1.04147
1.05889
1.06826
1.07445
1.07827
1.08025
1.06874
1.0495
1.04353
1.04936
1.06136
1.0767
1.10632
1.16401
1.21048
1.23259
1.24416
1.25272
1.25539
1.22244
1.18224
1.17234
1.18765
1.21389
1.2664
1.35403
1.42973
1.47932
1.52146
1.55625
1.56243
1.5374
1.50501
1.41398
3.71584
30.2613
0.681952
0.689667
0.693875
0.681855
0.65924
0.654498
0.656655
0.659609
0.663956
0.668843
0.674238
0.687972
0.722302
0.758738
0.774934
0.778929
0.777212
0.771973
0.757387
0.741416
0.732843
0.728769
0.726674
0.726698
0.730089
0.740576
0.758948
0.783482
0.813434
0.833688
0.843745
0.847734
0.842133
0.833274
0.821167
0.805051
0.792101
0.790184
0.794284
0.807928
0.833799
0.859761
0.880152
0.894139
0.903647
0.909011
0.900429
0.8918
0.890858
0.894286
0.899502
0.913527
0.930004
0.9341
0.936496
0.941707
0.948802
0.956141
0.966298
0.975502
0.980455
0.984937
0.994619
1.01772
1.03935
1.05146
1.06008
1.06737
1.0759
1.07655
1.06343
1.05475
1.05682
1.06639
1.07909
1.09925
1.14689
1.1913
1.21316
1.22645
1.23734
1.24203
1.21875
1.18429
1.17627
1.19163
1.21919
1.25859
1.32935
1.41275
1.47142
1.51501
1.55478
1.56651
1.55223
1.53162
1.44605
3.50631
30.2897
0.700634
0.703781
0.687988
0.669305
0.662703
0.664126
0.669071
0.678142
0.686135
0.691237
0.695564
0.696466
0.701727
0.725053
0.750072
0.765637
0.773497
0.778548
0.777458
0.762331
0.751277
0.747393
0.747239
0.748209
0.749322
0.750294
0.760889
0.777038
0.794287
0.817366
0.837981
0.850554
0.857362
0.851814
0.838807
0.828299
0.821286
0.816735
0.815666
0.826255
0.849844
0.866767
0.879918
0.892427
0.902658
0.907555
0.902519
0.902455
0.906123
0.909335
0.913055
0.923011
0.935332
0.94263
0.951305
0.961538
0.969124
0.970522
0.973018
0.974823
0.971373
0.969281
0.974003
0.990197
1.02334
1.04581
1.05906
1.07081
1.08232
1.09148
1.08296
1.06487
1.05982
1.06597
1.07652
1.08956
1.12062
1.17134
1.2018
1.2172
1.22832
1.23687
1.22948
1.20654
1.19345
1.19676
1.21711
1.24754
1.29144
1.36183
1.42685
1.47593
1.5227
1.55248
1.55191
1.53166
1.44346
3.44689
30.3386
0.707181
0.703213
0.684234
0.675593
0.674907
0.677539
0.684321
0.692063
0.697505
0.701905
0.699923
0.697268
0.698048
0.707141
0.7369
0.766203
0.781415
0.789355
0.794535
0.782612
0.765686
0.755671
0.74924
0.747056
0.748297
0.758607
0.782742
0.796921
0.80633
0.814768
0.828006
0.841818
0.847977
0.845753
0.837224
0.828067
0.82509
0.826812
0.835905
0.857703
0.874154
0.885512
0.894606
0.902722
0.910475
0.910577
0.905413
0.900015
0.897108
0.897925
0.901447
0.914774
0.936904
0.95644
0.972827
0.984898
0.993522
0.992367
0.978857
0.967386
0.960634
0.95959
0.964836
0.975168
1.00851
1.04244
1.05977
1.07209
1.08437
1.09582
1.09939
1.07843
1.06145
1.06029
1.06824
1.07954
1.09636
1.14279
1.18832
1.20924
1.22156
1.2351
1.24341
1.23609
1.22158
1.21142
1.21221
1.23044
1.25949
1.30723
1.37706
1.43893
1.49204
1.54247
1.56491
1.55851
1.46506
3.41996
30.4468
0.704689
0.6994
0.691194
0.690824
0.691477
0.695538
0.700537
0.704747
0.705288
0.700897
0.696801
0.696681
0.69936
0.706565
0.73625
0.771011
0.788331
0.796699
0.802761
0.797812
0.766802
0.746754
0.743452
0.746307
0.754251
0.779337
0.809076
0.823285
0.829397
0.833643
0.836174
0.823957
0.809534
0.810288
0.819883
0.826765
0.831187
0.840549
0.862596
0.886851
0.900944
0.908722
0.915247
0.921166
0.920767
0.907328
0.888698
0.877369
0.875707
0.880187
0.888208
0.908074
0.945562
0.977822
0.997316
1.0087
1.01582
1.01526
0.993589
0.963649
0.947625
0.946429
0.952982
0.963046
0.989991
1.03369
1.06167
1.07719
1.08991
1.10182
1.11178
1.10077
1.07372
1.0578
1.05609
1.06277
1.07373
1.10246
1.15938
1.20069
1.22495
1.24497
1.26444
1.27061
1.25383
1.23585
1.22687
1.22707
1.23774
1.26474
1.31393
1.37961
1.44121
1.49777
1.53935
1.55341
1.4998
3.44029
30.6008
0.69862
0.699591
0.702379
0.709392
0.715218
0.717789
0.716267
0.711441
0.703583
0.696734
0.695523
0.698235
0.702114
0.711302
0.742955
0.778052
0.793411
0.799834
0.803512
0.791187
0.757008
0.74162
0.742168
0.746561
0.763007
0.802177
0.82992
0.841148
0.847712
0.850591
0.834447
0.798295
0.781751
0.783384
0.793458
0.811432
0.830118
0.855562
0.890754
0.913002
0.922637
0.928434
0.932365
0.932897
0.923789
0.895011
0.865359
0.855851
0.858775
0.866749
0.877493
0.898955
0.947895
0.994262
1.01578
1.0261
1.03289
1.0344
1.01473
0.976315
0.948538
0.938761
0.94149
0.948449
0.965165
1.00953
1.057
1.08511
1.10273
1.11635
1.12742
1.12329
1.09422
1.06769
1.0522
1.04793
1.05408
1.06902
1.11349
1.17679
1.22361
1.25568
1.28016
1.29884
1.29634
1.27376
1.2492
1.23205
1.22963
1.24078
1.26907
1.32252
1.39106
1.45273
1.49536
1.52112
1.51065
3.50885
30.7958
0.684901
0.708207
0.720434
0.729943
0.736359
0.739497
0.733481
0.715594
0.697694
0.69073
0.691814
0.695278
0.700403
0.713171
0.742164
0.773079
0.788681
0.794751
0.79422
0.77716
0.755493
0.748256
0.750204
0.756508
0.782183
0.818249
0.839385
0.848858
0.85213
0.841475
0.811335
0.785574
0.779443
0.782088
0.787591
0.799627
0.823535
0.870671
0.911241
0.927885
0.935358
0.938028
0.934498
0.927244
0.913463
0.885371
0.85635
0.845325
0.84823
0.855788
0.867152
0.888647
0.941987
1.00023
1.02612
1.03683
1.0444
1.04686
1.03325
0.995581
0.960767
0.943235
0.936505
0.937582
0.944404
0.97108
1.03377
1.08718
1.11578
1.13424
1.14747
1.15172
1.12572
1.08283
1.05244
1.03924
1.04152
1.05271
1.07654
1.1321
1.20157
1.25502
1.28977
1.31432
1.33027
1.32414
1.29172
1.25515
1.23221
1.22862
1.24305
1.27499
1.33544
1.40452
1.44993
1.4766
1.493
3.6083
30.9732
0.659135
0.717481
0.739701
0.750305
0.755638
0.758338
0.751822
0.721159
0.694008
0.688534
0.69014
0.693728
0.703247
0.718683
0.736301
0.754706
0.769934
0.777916
0.777046
0.770067
0.764939
0.762905
0.76601
0.781649
0.804282
0.821522
0.832173
0.835853
0.826527
0.808226
0.796135
0.790887
0.788956
0.79131
0.79828
0.818207
0.85069
0.882885
0.912815
0.928233
0.932597
0.929841
0.922176
0.914318
0.905685
0.888205
0.86136
0.847393
0.847018
0.851985
0.860504
0.879727
0.931376
0.995566
1.02654
1.03852
1.04712
1.0502
1.04253
1.01745
0.976727
0.946469
0.932319
0.931654
0.937222
0.949031
0.997639
1.08073
1.13309
1.15585
1.16889
1.17445
1.15471
1.0991
1.05314
1.03683
1.03855
1.04875
1.06463
1.09585
1.16102
1.24136
1.29514
1.32253
1.34104
1.35012
1.34067
1.30287
1.25828
1.23277
1.23047
1.24659
1.27972
1.34574
1.40058
1.43332
1.45804
3.69243
31.071
0.641783
0.712422
0.75072
0.761055
0.765798
0.765057
0.748837
0.717577
0.697641
0.693142
0.694709
0.699166
0.710436
0.724552
0.733036
0.739346
0.745293
0.748718
0.75322
0.760528
0.769511
0.779842
0.797942
0.812514
0.818397
0.820673
0.818236
0.800089
0.785043
0.781392
0.784366
0.789797
0.796551
0.81145
0.837051
0.856854
0.866023
0.875477
0.892925
0.906202
0.910241
0.909403
0.908658
0.91085
0.911083
0.896866
0.871083
0.856392
0.855152
0.859758
0.86623
0.876598
0.916576
0.983131
1.02074
1.03494
1.04312
1.04474
1.03837
1.02362
0.987928
0.946503
0.931314
0.932032
0.938756
0.948503
0.976727
1.06661
1.14208
1.1673
1.17885
1.18245
1.17059
1.12388
1.06766
1.04523
1.04476
1.05467
1.06942
1.08817
1.12484
1.20029
1.27576
1.31848
1.34099
1.35596
1.358
1.33962
1.29814
1.25628
1.23488
1.23429
1.24571
1.28601
1.34562
1.38239
1.41388
3.75401
31.1811
0.653974
0.716473
0.749359
0.762056
0.766632
0.756144
0.73186
0.716273
0.707913
0.703615
0.704582
0.710424
0.721465
0.729237
0.732868
0.733825
0.729932
0.729903
0.734771
0.744407
0.761645
0.794517
0.815993
0.82455
0.828434
0.819529
0.78977
0.771416
0.768685
0.771522
0.779126
0.794735
0.824207
0.851471
0.866848
0.871955
0.865897
0.859378
0.857095
0.868134
0.886844
0.897134
0.903994
0.910785
0.91611
0.914873
0.891743
0.871096
0.865437
0.867822
0.873014
0.880183
0.907501
0.967569
1.0094
1.02588
1.03213
1.02731
1.01833
1.01136
0.993602
0.958356
0.938735
0.939017
0.947938
0.966802
0.995649
1.05108
1.12652
1.16342
1.17593
1.17296
1.15706
1.13307
1.09803
1.06966
1.06204
1.06872
1.08389
1.10235
1.12024
1.15597
1.23252
1.29374
1.32535
1.34447
1.35749
1.34665
1.31752
1.284
1.25193
1.23398
1.23313
1.24699
1.29392
1.33086
1.36767
3.78473
31.3046
0.681909
0.71715
0.735026
0.744912
0.743739
0.728272
0.719005
0.719944
0.721959
0.723222
0.726266
0.732225
0.736002
0.73689
0.735338
0.731135
0.730083
0.73236
0.736459
0.74902
0.771883
0.794889
0.813135
0.82062
0.812916
0.789578
0.771433
0.767843
0.770111
0.777279
0.801499
0.838634
0.859446
0.867788
0.871459
0.868476
0.850326
0.829051
0.822932
0.829477
0.861464
0.892865
0.908585
0.917518
0.924358
0.929314
0.913291
0.883695
0.872934
0.873882
0.879287
0.889888
0.916621
0.952172
0.985588
1.00287
1.00648
1.00093
0.998198
1.00103
1.00236
0.983882
0.963891
0.96356
0.976105
0.994774
1.01158
1.03275
1.0808
1.12857
1.14884
1.15402
1.15208
1.14683
1.13118
1.105
1.09112
1.09275
1.10461
1.1184
1.13136
1.14635
1.18478
1.24644
1.28743
1.31156
1.33077
1.34052
1.32211
1.29817
1.27387
1.24742
1.23242
1.22966
1.25702
1.28901
1.33124
3.77456
31.3947
0.70431
0.717101
0.720392
0.716535
0.708434
0.705849
0.710254
0.717814
0.730306
0.744015
0.753314
0.756017
0.75402
0.749532
0.739811
0.7368
0.737585
0.742746
0.755132
0.766912
0.774644
0.78236
0.787937
0.782355
0.774388
0.772428
0.774413
0.776005
0.780834
0.810634
0.855484
0.878248
0.886648
0.887949
0.875732
0.845407
0.814407
0.803359
0.804976
0.812337
0.842109
0.890781
0.918206
0.929753
0.935831
0.940601
0.927724
0.895399
0.882355
0.884041
0.892201
0.912262
0.928325
0.937223
0.94663
0.960523
0.976001
0.987275
0.995026
1.00337
1.01331
1.01953
1.00834
1.00022
1.00263
1.00966
1.01776
1.02394
1.03646
1.07807
1.1196
1.1412
1.15076
1.15309
1.1502
1.14248
1.13386
1.13164
1.1335
1.13394
1.13469
1.14239
1.1566
1.19787
1.24405
1.27247
1.29344
1.31095
1.30966
1.29922
1.2869
1.27045
1.25377
1.24245
1.23915
1.25761
1.30997
3.7508
31.4526
0.708081
0.708713
0.696424
0.688758
0.689591
0.696412
0.710522
0.731874
0.751268
0.762589
0.766097
0.760933
0.754767
0.748996
0.747403
0.746916
0.751944
0.764401
0.774325
0.779507
0.782126
0.773669
0.752884
0.745041
0.750055
0.762055
0.776482
0.794111
0.831455
0.867956
0.883448
0.890669
0.89636
0.897924
0.874851
0.823834
0.795203
0.790488
0.793931
0.801236
0.828139
0.888305
0.926138
0.93737
0.944006
0.945481
0.930328
0.910875
0.902737
0.905868
0.91844
0.932557
0.937229
0.924774
0.909192
0.912695
0.941238
0.977034
0.999104
1.01728
1.03871
1.05703
1.06181
1.04059
1.0221
1.01575
1.01173
1.01188
1.01852
1.03557
1.07671
1.11751
1.14009
1.15101
1.16036
1.17182
1.18174
1.17983
1.16926
1.15323
1.13783
1.1335
1.14196
1.16029
1.20142
1.23535
1.25681
1.27375
1.27972
1.28407
1.28828
1.2923
1.29224
1.28185
1.25884
1.23777
1.27214
3.75474
31.4998
0.697266
0.675058
0.670823
0.673366
0.685094
0.709007
0.73792
0.756664
0.765924
0.770647
0.763469
0.7489
0.741221
0.741649
0.748284
0.764925
0.779154
0.787371
0.791163
0.792904
0.785884
0.754654
0.729268
0.725191
0.729738
0.743285
0.773027
0.830928
0.888167
0.908067
0.911537
0.904042
0.895003
0.879546
0.85168
0.818451
0.797626
0.793905
0.796795
0.802376
0.821208
0.876366
0.924854
0.940146
0.944778
0.94165
0.939983
0.936599
0.936007
0.938374
0.943138
0.946619
0.93565
0.903318
0.887632
0.889881
0.906633
0.955331
1.00762
1.04888
1.07653
1.09081
1.09696
1.07576
1.03592
1.01327
1.00668
1.00669
1.01106
1.01931
1.03476
1.06792
1.10858
1.13888
1.16273
1.18626
1.20875
1.22114
1.21751
1.19169
1.15531
1.13448
1.13134
1.14019
1.15932
1.19277
1.21862
1.23824
1.25257
1.26565
1.28473
1.30945
1.32426
1.32582
1.30542
1.25116
1.20128
3.76983
31.5611
0.673624
0.656501
0.658513
0.667134
0.696715
0.742612
0.765409
0.773398
0.777533
0.76856
0.741185
0.724703
0.723778
0.729303
0.750595
0.786262
0.806321
0.811881
0.81166
0.808402
0.78581
0.743897
0.726416
0.726406
0.730161
0.739474
0.780716
0.858145
0.901585
0.917152
0.922877
0.918299
0.892714
0.8655
0.84659
0.825303
0.807308
0.804332
0.808819
0.818845
0.835827
0.861164
0.900059
0.927967
0.938546
0.946963
0.957837
0.968312
0.972366
0.969068
0.960305
0.942788
0.914166
0.891695
0.883339
0.886016
0.893655
0.928304
1.01182
1.07444
1.10108
1.11348
1.11699
1.1032
1.05976
1.02416
1.01207
1.01131
1.01432
1.0149
1.0126
1.01896
1.04421
1.09077
1.14036
1.18447
1.21739
1.23807
1.2472
1.2358
1.19034
1.14724
1.1323
1.13226
1.13869
1.15267
1.1769
1.20168
1.22624
1.25478
1.28775
1.31715
1.33861
1.34803
1.3397
1.2831
1.18381
3.72708
31.6445
0.659092
0.652209
0.655827
0.675889
0.728639
0.766768
0.778089
0.783951
0.783139
0.752567
0.718358
0.710233
0.712828
0.719075
0.748422
0.799877
0.824497
0.831311
0.832893
0.825783
0.785437
0.747642
0.735299
0.736673
0.747866
0.78176
0.823885
0.860336
0.891833
0.904635
0.900289
0.884961
0.872872
0.868619
0.861049
0.845845
0.833032
0.829904
0.83411
0.840739
0.845314
0.849544
0.862279
0.897973
0.937471
0.966818
0.987298
0.996138
0.999455
0.993279
0.968441
0.932974
0.905031
0.889634
0.884326
0.88678
0.898663
0.927735
0.994366
1.07473
1.10736
1.11799
1.11733
1.10461
1.08508
1.05356
1.03107
1.02339
1.02141
1.01222
0.999675
0.997362
1.00416
1.02759
1.08995
1.16725
1.21435
1.23712
1.24746
1.24519
1.2186
1.1739
1.14318
1.13273
1.13229
1.13599
1.14403
1.16276
1.1978
1.24291
1.28336
1.31259
1.33437
1.34372
1.34074
1.30243
1.20442
3.6441
31.75
0.656598
0.655847
0.664819
0.708834
0.75335
0.772122
0.781095
0.7855
0.769955
0.729157
0.709855
0.709534
0.713125
0.719374
0.752479
0.807585
0.82932
0.835945
0.837445
0.814797
0.783009
0.764662
0.760775
0.769915
0.798681
0.829435
0.843652
0.849592
0.849968
0.847586
0.855699
0.869938
0.87783
0.881299
0.884025
0.87939
0.868141
0.860282
0.856523
0.852208
0.848082
0.847879
0.8517
0.864849
0.918316
0.974559
0.996855
1.00656
1.01252
1.00977
0.983909
0.940934
0.910386
0.897252
0.897478
0.910075
0.931973
0.948205
0.967629
1.02538
1.08024
1.10021
1.10353
1.10121
1.1019
1.09192
1.06457
1.04098
1.02283
1.00636
0.995256
0.992882
0.996874
1.00557
1.03787
1.12625
1.19608
1.22348
1.23717
1.23924
1.22486
1.19743
1.16876
1.14645
1.13429
1.12923
1.12909
1.13504
1.16368
1.22283
1.27075
1.29826
1.31814
1.32776
1.32575
1.30228
1.24523
3.58451
31.8673
0.662773
0.66954
0.706507
0.746638
0.76499
0.772622
0.775887
0.766298
0.736608
0.715912
0.71153
0.713367
0.717861
0.731186
0.769721
0.809719
0.826939
0.830251
0.821185
0.802686
0.793649
0.793375
0.804224
0.82562
0.841976
0.850097
0.852366
0.830169
0.801348
0.796655
0.812343
0.853635
0.883057
0.896176
0.904416
0.911193
0.910937
0.896804
0.875778
0.858578
0.851207
0.852491
0.855727
0.865157
0.893286
0.949369
0.988478
1.00147
1.00229
0.991395
0.984349
0.968661
0.942606
0.930193
0.931475
0.939301
0.946302
0.950628
0.955068
0.968949
1.02061
1.06931
1.0915
1.10033
1.10571
1.1078
1.09827
1.06894
1.038
1.01428
0.999049
0.995105
1.00066
1.01112
1.03302
1.08937
1.15817
1.19256
1.20908
1.21868
1.21611
1.20624
1.19376
1.17563
1.15095
1.13177
1.12221
1.12047
1.13522
1.18612
1.24749
1.28067
1.29736
1.30489
1.3024
1.28705
1.27298
3.5564
31.9748
0.680726
0.716881
0.744066
0.758624
0.76523
0.765339
0.754727
0.73655
0.722289
0.716055
0.718607
0.725402
0.737829
0.755094
0.777736
0.801258
0.811135
0.810052
0.801025
0.799579
0.805675
0.829769
0.857431
0.868104
0.870169
0.864332
0.836529
0.791387
0.770844
0.769916
0.776671
0.813492
0.871328
0.904067
0.923056
0.933963
0.939573
0.927765
0.891727
0.865976
0.859091
0.860864
0.867009
0.879153
0.888154
0.899404
0.933167
0.96681
0.981595
0.989414
0.996036
1.00138
0.99716
0.979224
0.963224
0.954783
0.951435
0.948005
0.947843
0.952795
0.968508
1.0162
1.06636
1.09102
1.09901
1.10125
1.09957
1.09242
1.07588
1.05089
1.02754
1.01802
1.02218
1.03198
1.04613
1.07283
1.11189
1.14864
1.17382
1.19059
1.20047
1.20178
1.20097
1.20056
1.18526
1.15226
1.12869
1.11956
1.12377
1.14522
1.19767
1.25004
1.27096
1.27676
1.27594
1.26879
1.26223
3.60695
32.0945
0.720546
0.752683
0.761897
0.763245
0.756397
0.745196
0.734375
0.72459
0.72014
0.724543
0.73341
0.746431
0.755231
0.760756
0.770704
0.781372
0.788174
0.792316
0.796352
0.80697
0.838056
0.870881
0.884985
0.890744
0.891812
0.867937
0.803751
0.764647
0.756005
0.757486
0.761382
0.77911
0.846619
0.911647
0.93711
0.947869
0.954375
0.94573
0.909169
0.879595
0.87096
0.871807
0.876318
0.880769
0.876269
0.869422
0.875037
0.911727
0.966781
0.999919
1.0179
1.0325
1.04068
1.02866
0.992905
0.961507
0.945878
0.942318
0.945676
0.954094
0.962665
0.974823
1.00404
1.04373
1.07124
1.08671
1.09681
1.10722
1.11275
1.10718
1.08341
1.05881
1.04925
1.05072
1.0579
1.06736
1.08025
1.10042
1.12546
1.15222
1.17366
1.18697
1.197
1.20719
1.21474
1.19856
1.16347
1.13666
1.12563
1.1276
1.14626
1.19656
1.2348
1.24285
1.23895
1.23617
1.26197
3.70565
32.2462
0.747205
0.761536
0.762424
0.756142
0.744846
0.739491
0.737707
0.731631
0.732326
0.740003
0.750758
0.756082
0.755344
0.753716
0.75138
0.752217
0.759346
0.774069
0.800204
0.844623
0.877275
0.887673
0.891285
0.894758
0.885474
0.835723
0.784094
0.760631
0.755018
0.756588
0.760081
0.770171
0.824232
0.909215
0.94257
0.952922
0.959148
0.951072
0.924631
0.896295
0.881712
0.876537
0.871976
0.86614
0.859189
0.855215
0.859122
0.87125
0.921585
0.994914
1.03439
1.05098
1.06105
1.0602
1.02826
0.981258
0.957124
0.951331
0.956734
0.965994
0.970098
0.959731
0.952584
0.967102
1.0099
1.0574
1.09183
1.11765
1.13639
1.14453
1.13972
1.11327
1.08662
1.0732
1.06806
1.06697
1.06895
1.07357
1.08156
1.10294
1.14007
1.16947
1.18944
1.20718
1.22398
1.23124
1.20759
1.16493
1.13719
1.13208
1.13425
1.14496
1.17954
1.19805
1.20053
1.19604
1.23758
3.87765
32.426
0.745578
0.752532
0.746239
0.74504
0.744607
0.746396
0.749832
0.753271
0.754562
0.757776
0.759398
0.752554
0.741182
0.731784
0.730393
0.735006
0.743392
0.75982
0.81807
0.874408
0.8927
0.898145
0.897557
0.881235
0.843869
0.802142
0.771174
0.756496
0.754103
0.756546
0.760489
0.775443
0.827201
0.895293
0.937883
0.951789
0.957602
0.949802
0.928335
0.910757
0.890077
0.873104
0.864536
0.858846
0.854742
0.854838
0.859043
0.869046
0.888828
0.95532
1.02651
1.05235
1.05972
1.05345
1.04125
1.01871
0.991433
0.979096
0.978466
0.979205
0.964351
0.937934
0.926242
0.930011
0.94842
1.00252
1.07753
1.12745
1.14878
1.15731
1.15909
1.14818
1.1262
1.10469
1.08845
1.07708
1.06991
1.06514
1.0639
1.06993
1.10528
1.1559
1.18936
1.21058
1.22932
1.23937
1.22968
1.19889
1.16297
1.14375
1.13652
1.12911
1.12456
1.14141
1.16001
1.16158
1.21319
4.08282
32.6182
0.729727
0.718413
0.720735
0.733495
0.752606
0.769624
0.779242
0.781267
0.776599
0.768362
0.752997
0.730789
0.718446
0.717238
0.720554
0.726202
0.742405
0.785992
0.835533
0.873246
0.891167
0.893585
0.877413
0.848726
0.822242
0.796698
0.770355
0.756223
0.755932
0.760684
0.772595
0.809563
0.849541
0.878932
0.912226
0.934517
0.940134
0.927659
0.908506
0.901094
0.901265
0.890771
0.870657
0.861886
0.860706
0.865877
0.877025
0.88722
0.89367
0.908964
0.965643
1.01822
1.03673
1.04131
1.04517
1.04934
1.0406
1.02218
1.00105
0.975772
0.946907
0.925189
0.919614
0.924577
0.934048
0.959395
1.04232
1.11919
1.14528
1.15624
1.15971
1.15254
1.14272
1.13565
1.12473
1.10495
1.0806
1.06512
1.06112
1.0619
1.07797
1.13056
1.17841
1.20378
1.2217
1.23232
1.23045
1.21674
1.18981
1.1621
1.13986
1.12061
1.10198
1.09148
1.1094
1.13233
1.19516
4.25587
32.7773
0.705053
0.69905
0.703981
0.720616
0.760773
0.791068
0.802941
0.80576
0.800253
0.772852
0.730703
0.711963
0.710423
0.714329
0.722165
0.748457
0.791343
0.813491
0.821051
0.836733
0.848509
0.848151
0.841803
0.832017
0.823554
0.804814
0.782069
0.773874
0.777409
0.786489
0.811152
0.845659
0.86129
0.865797
0.871781
0.884999
0.895977
0.899839
0.902171
0.905875
0.909833
0.915331
0.912558
0.901653
0.896365
0.894366
0.892982
0.894293
0.895293
0.896455
0.908412
0.959957
1.01227
1.03894
1.05028
1.05781
1.06571
1.06561
1.03961
0.990798
0.949552
0.928924
0.925288
0.931545
0.94356
0.970048
1.02565
1.08676
1.11873
1.13193
1.14131
1.1435
1.14215
1.14626
1.15007
1.14143
1.10825
1.07876
1.06586
1.0625
1.06889
1.09465
1.14805
1.18832
1.20903
1.22172
1.22403
1.21784
1.20206
1.18083
1.15998
1.13354
1.1033
1.07456
1.06718
1.09532
1.17285
4.38459
32.8121
0.689428
0.687404
0.693829
0.7084
0.756214
0.796737
0.807353
0.810047
0.799591
0.760743
0.725542
0.713028
0.713535
0.724017
0.763215
0.809101
0.828765
0.826396
0.802001
0.779846
0.778949
0.803319
0.829121
0.838354
0.840229
0.832176
0.814817
0.808271
0.81223
0.82225
0.842604
0.858423
0.863687
0.862639
0.843681
0.828434
0.832775
0.861913
0.892236
0.909025
0.924385
0.946023
0.965399
0.96912
0.946284
0.917535
0.900609
0.889575
0.887574
0.890677
0.899209
0.916821
0.967096
1.01988
1.04551
1.05566
1.05912
1.05231
1.03761
1.01833
0.985157
0.958756
0.95333
0.960319
0.97076
0.988333
1.01509
1.04589
1.07324
1.09522
1.11482
1.13079
1.14244
1.15312
1.16185
1.16381
1.1497
1.11373
1.08183
1.06629
1.06116
1.06903
1.10386
1.15995
1.19651
1.21262
1.21189
1.2066
1.19949
1.1845
1.18226
1.16706
1.12591
1.08302
1.05367
1.04952
1.13431
4.45796
32.7997
0.691126
0.691013
0.696663
0.707803
0.737361
0.777064
0.788713
0.783341
0.760894
0.740826
0.735038
0.733973
0.752126
0.793057
0.824303
0.836402
0.836183
0.807511
0.75873
0.73494
0.732206
0.748524
0.803127
0.841511
0.857008
0.867022
0.86693
0.854991
0.849149
0.851081
0.85685
0.861928
0.859112
0.843187
0.814221
0.797508
0.798525
0.817081
0.867705
0.917858
0.959284
0.993575
1.01129
1.01775
0.992975
0.934803
0.900423
0.891711
0.891378
0.898793
0.911621
0.92632
0.942599
0.96557
0.998522
1.02449
1.03445
1.03871
1.04423
1.04914
1.04423
1.01854
0.995556
0.988553
0.991075
0.997112
1.00788
1.01861
1.02924
1.04493
1.06661
1.09927
1.13073
1.15062
1.1632
1.17211
1.17625
1.15341
1.10361
1.06941
1.05843
1.06222
1.07953
1.1184
1.1692
1.19457
1.19365
1.18396
1.18292
1.18528
1.19078
1.19053
1.16753
1.10887
1.05912
1.03222
1.0711
4.4524
32.8254
0.706562
0.704398
0.705062
0.708091
0.711423
0.722438
0.734069
0.739682
0.741571
0.744357
0.752084
0.791844
0.838255
0.858678
0.86473
0.85769
0.812227
0.748651
0.719534
0.714381
0.716134
0.722966
0.76368
0.83778
0.88233
0.904686
0.914904
0.907122
0.88619
0.871574
0.860336
0.849418
0.840316
0.824057
0.800595
0.787949
0.78862
0.79553
0.826446
0.91288
0.992346
1.02795
1.04193
1.04291
1.02082
0.966532
0.918146
0.903169
0.905883
0.923732
0.938972
0.946278
0.938544
0.922697
0.924942
0.954403
0.994813
1.02552
1.05238
1.07604
1.08632
1.08053
1.0508
1.02151
1.00725
1.0026
1.0029
1.00551
1.00382
1.00579
1.01398
1.03965
1.09368
1.13663
1.1608
1.17522
1.18203
1.17261
1.13283
1.08665
1.06676
1.07277
1.08838
1.09638
1.12339
1.15629
1.16561
1.1642
1.16532
1.17887
1.19305
1.1929
1.18949
1.14443
1.08275
1.03534
1.02488
4.35141
32.8881
0.725811
0.711642
0.706009
0.695386
0.681872
0.675317
0.680334
0.697657
0.722432
0.756628
0.818962
0.874487
0.892026
0.894079
0.889291
0.85759
0.769151
0.714793
0.701085
0.701977
0.705797
0.71725
0.750695
0.825694
0.89397
0.917309
0.926486
0.93064
0.923743
0.895019
0.866971
0.851962
0.840352
0.822456
0.801699
0.791435
0.790827
0.795856
0.81234
0.886657
0.994311
1.03554
1.0474
1.03755
1.00063
0.970694
0.950277
0.937928
0.944374
0.957095
0.961064
0.954133
0.920252
0.892047
0.886598
0.896715
0.930932
0.999524
1.06316
1.09345
1.10289
1.10305
1.08897
1.05918
1.03193
1.01615
1.00937
1.00731
1.00068
0.988173
0.984917
0.991205
1.03807
1.1136
1.15008
1.1653
1.17336
1.17032
1.15231
1.11809
1.09384
1.09447
1.10251
1.10133
1.09955
1.10276
1.12814
1.14413
1.15237
1.17152
1.1882
1.18573
1.18111
1.16333
1.11413
1.05488
1.0255
4.15726
33.0165
0.745408
0.701083
0.684457
0.671487
0.660613
0.657304
0.659816
0.666487
0.687895
0.772448
0.881359
0.918502
0.926718
0.925527
0.900201
0.815501
0.743557
0.711159
0.702688
0.703552
0.708831
0.73548
0.785681
0.826907
0.869473
0.905256
0.920104
0.922582
0.913864
0.907883
0.895896
0.874032
0.851217
0.827279
0.809005
0.802614
0.805664
0.817206
0.842916
0.883054
0.946071
0.999195
1.01509
1.002
0.984154
0.98102
0.981681
0.989448
0.994895
0.990127
0.977269
0.941068
0.893282
0.871331
0.869538
0.875699
0.887895
0.945412
1.05142
1.09386
1.10331
1.10422
1.09077
1.07245
1.05873
1.04561
1.03188
1.01846
1.00247
0.985204
0.975284
0.972562
0.988966
1.05924
1.12304
1.14885
1.15987
1.15786
1.15638
1.14918
1.13332
1.12413
1.11613
1.10433
1.0855
1.07089
1.07944
1.10871
1.13692
1.16433
1.18311
1.18721
1.17493
1.16381
1.13922
1.09434
1.06406
3.9478
33.1692
0.731464
0.690096
0.678828
0.66768
0.660361
0.660089
0.662548
0.671361
0.71425
0.80612
0.885816
0.920648
0.928035
0.916384
0.860349
0.794813
0.749352
0.722387
0.715757
0.718334
0.736548
0.785838
0.818836
0.827783
0.832538
0.842417
0.866001
0.892341
0.912477
0.923839
0.927978
0.922413
0.894936
0.857875
0.832516
0.823692
0.824629
0.836393
0.859305
0.876041
0.894382
0.925138
0.952589
0.96536
0.972963
0.984818
1.01408
1.03305
1.03497
1.02419
0.994913
0.933409
0.884185
0.86931
0.869932
0.877026
0.898653
0.957358
1.02007
1.06231
1.07726
1.08029
1.07546
1.07098
1.07418
1.0769
1.07002
1.0468
1.01709
0.990522
0.974048
0.968501
0.973069
1.00253
1.0704
1.12294
1.14548
1.15208
1.16169
1.17065
1.17079
1.15823
1.14236
1.122
1.0807
1.04851
1.0389
1.05587
1.09638
1.14605
1.17856
1.18732
1.17248
1.1603
1.15308
1.12965
1.12864
3.77477
33.3163
0.715266
0.694948
0.685839
0.673021
0.668401
0.671872
0.6889
0.732166
0.772886
0.804611
0.850688
0.878957
0.88015
0.861265
0.827645
0.79885
0.771785
0.75583
0.753227
0.761887
0.791312
0.821154
0.830214
0.828487
0.804651
0.790819
0.798272
0.84907
0.90845
0.93379
0.946734
0.955207
0.956274
0.91821
0.866528
0.845125
0.842056
0.851763
0.867208
0.871764
0.874418
0.876106
0.889136
0.921898
0.960499
0.997914
1.02839
1.04576
1.05219
1.04796
1.01181
0.942107
0.895932
0.882514
0.887141
0.904709
0.945565
0.982069
0.996881
1.00792
1.02072
1.03623
1.05611
1.0773
1.09387
1.10298
1.1081
1.09387
1.05218
1.00934
0.983509
0.973157
0.973515
0.984628
1.00987
1.068
1.12186
1.15356
1.16777
1.1798
1.19018
1.18656
1.16846
1.14463
1.08853
1.03922
1.02467
1.02799
1.04993
1.10889
1.163
1.18056
1.17174
1.16024
1.15665
1.14326
1.15972
3.71858
33.4665
0.706968
0.70439
0.704079
0.703132
0.7101
0.729709
0.762352
0.788633
0.797448
0.799383
0.79423
0.795997
0.813535
0.827914
0.830596
0.820979
0.808215
0.80492
0.809455
0.822479
0.837064
0.842053
0.836856
0.806123
0.777997
0.769972
0.772146
0.793276
0.871294
0.937854
0.966188
0.981274
0.98975
0.971339
0.916177
0.876475
0.863341
0.863283
0.868273
0.869104
0.867458
0.862152
0.863817
0.880735
0.922255
0.981
1.02367
1.03704
1.03526
1.01769
0.987186
0.957261
0.932344
0.923839
0.931087
0.952104
0.974599
0.984672
0.982473
0.965899
0.965451
0.978328
1.01893
1.07646
1.10928
1.12534
1.13429
1.12954
1.09297
1.03845
0.998747
0.981087
0.978412
0.988609
0.998183
1.01359
1.06887
1.13127
1.16518
1.18135
1.19392
1.19669
1.17831
1.159
1.11833
1.05959
1.03754
1.03855
1.04706
1.06805
1.12874
1.16291
1.1655
1.15738
1.15471
1.14323
1.16789
3.71704
33.5973
0.710437
0.716043
0.733338
0.76154
0.784242
0.795848
0.799932
0.800484
0.794287
0.770353
0.746518
0.740051
0.749632
0.790931
0.827849
0.839773
0.850071
0.859098
0.866183
0.8683
0.865128
0.852583
0.816647
0.780177
0.763897
0.761636
0.763951
0.773783
0.82059
0.924777
0.976224
0.991048
0.99479
0.983639
0.953532
0.911345
0.885064
0.876557
0.877449
0.880101
0.87956
0.875093
0.878268
0.88073
0.886195
0.911972
0.964772
0.993143
0.997774
0.996095
0.987769
0.977228
0.975954
0.983162
0.993979
1.00154
1.00414
0.990427
0.958385
0.937566
0.933786
0.938027
0.96555
1.04763
1.11127
1.13474
1.14569
1.13952
1.11591
1.07422
1.02781
1.00114
0.995005
1.00859
1.02072
1.02917
1.03779
1.06927
1.13331
1.16708
1.17488
1.17458
1.17255
1.16124
1.14507
1.10109
1.06679
1.05546
1.05527
1.06158
1.08903
1.13374
1.15204
1.14811
1.13973
1.12739
1.16688
3.76718
33.7369
0.719786
0.762519
0.794601
0.814945
0.824219
0.826946
0.817719
0.787403
0.754447
0.736279
0.729886
0.72999
0.733363
0.748559
0.800466
0.853429
0.884367
0.903469
0.910599
0.905777
0.883377
0.843884
0.799888
0.770422
0.761505
0.760891
0.767856
0.790125
0.824897
0.875185
0.942149
0.974493
0.981576
0.967278
0.947713
0.933408
0.916429
0.907036
0.906633
0.9087
0.906815
0.894713
0.88346
0.875558
0.869884
0.869837
0.884688
0.922866
0.955984
0.975249
0.987776
1.00057
1.01877
1.03387
1.04049
1.04075
1.02736
0.985274
0.944301
0.927114
0.924342
0.928239
0.949952
1.01322
1.09051
1.12705
1.1397
1.13308
1.11042
1.08907
1.06225
1.03963
1.03719
1.05027
1.05288
1.04529
1.02967
1.02377
1.05741
1.11871