/*--------------------------------*- C++ -*----------------------------------*\
  =========                 |
  \\      /  F ield         | OpenFOAM: The Open Source CFD Toolbox
   \\    /   O peration     | Website:  https://openfoam.org
    \\  /    A nd           | Version:  12
     \\/     M anipulation  |
\*---------------------------------------------------------------------------*/
FoamFile
{
    format      ascii;
    class       volScalarField;
    location    "7";
    object      p;
}
// * * * * * * * * * * * * * * * * * * * * * * * * * * * * * * * * * * * * * //

dimensions      [1 -1 -2 0 0 0 0];

internalField   nonuniform List<scalar> 
46253
(
0.934121
1.05685
1.19296
1.05889
1.18907
1.17935
0.901125
0.876483
1.04816
1.04857
0.93361
0.752295
1.02852
1.02743
0.316089
1.04538
1.04401
1.03642
1.03701
1.04274
1.04461
1.16751
0.272006
0.927472
0.905859
1.05304
1.0433
1.04125
1.05326
0.86906
0.981707
1.01927
1.01739
1.0419
1.04308
0.66322
1.02765
1.0271
0.958113
0.469529
0.912924
0.748195
1.02503
1.02558
0.681703
1.03149
1.02947
0.3876
1.01088
1.01204
1.00987
1.00936
1.16053
0.827548
1.19438
0.785178
1.00415
1.00303
1.06748
0.917761
0.715041
0.930594
0.584671
0.494132
0.306263
1.02706
1.02846
1.17158
0.785206
0.687202
0.899191
1.00092
0.999435
0.851296
1.15137
0.926159
0.981729
0.98071
0.275344
1.01418
1.0137
0.994593
1.16848
0.994013
0.909045
1.15548
0.963008
0.965824
0.895757
1.18506
0.394358
0.908106
1.14758
1.00869
0.530532
1.00716
1.14102
0.277702
1.06897
0.721677
0.461601
1.13843
1.15532
0.97276
1.19928
0.911939
0.744192
0.939431
0.936057
0.764618
0.907952
0.997085
0.997648
0.282318
0.296739
0.893873
0.715958
0.919184
1.20287
0.823634
0.373608
1.168
0.991905
0.990628
1.14818
1.20738
0.806068
0.768013
1.21146
0.979211
0.912929
0.910193
1.16759
0.906146
0.979928
0.649449
0.973339
0.970793
0.817056
0.559673
0.983053
0.92597
0.914127
0.959666
0.98485
1.20126
0.962197
0.96291
0.952602
1.18413
0.762289
1.15689
0.978224
0.977696
0.941584
0.693004
0.769231
0.382874
0.959203
1.19579
0.956827
0.735625
0.785322
0.62362
0.904951
0.966574
0.906645
0.963823
1.32499
0.584665
0.947544
0.947858
1.16836
0.92301
1.19746
0.72271
1.08967
1.13965
0.961811
0.718809
1.1985
0.945309
0.94471
0.943611
1.12798
0.963775
0.963466
0.683057
1.13006
1.12432
1.14833
1.12259
0.920004
1.12425
1.14847
1.14416
0.911966
1.14232
0.869003
0.859461
0.302878
0.633606
0.952086
0.949391
1.03601
0.706005
0.944071
0.933417
0.936379
0.580294
0.268281
1.20207
0.920079
1.1589
0.993258
1.14656
0.959055
0.91301
0.92702
1.16851
1.17327
0.919147
0.718865
0.946407
0.947491
0.912494
1.1352
1.15093
0.845673
0.819901
1.03029
0.506875
1.13302
1.12744
1.14074
0.466173
1.14281
0.344982
1.02398
1.03901
1.13846
1.14183
1.13232
1.14213
0.658577
1.15374
0.371088
0.943276
1.12888
0.926363
0.930605
1.04103
0.809426
1.13232
0.796218
0.933842
0.932305
0.8028
0.918619
1.13818
0.909634
0.897953
0.766953
0.960052
0.965406
0.456379
0.319026
0.31604
0.934003
0.889806
0.934534
1.15224
1.19933
8.7164
0.892857
1.13402
1.19609
0.54149
0.84284
0.820541
0.794401
0.792265
1.15249
1.15883
0.281985
0.882932
0.897456
0.82186
0.962945
0.751739
1.06518
1.0666
0.897435
0.403057
1.05693
1.00592
1.14506
1.00305
0.91508
0.914731
1.19775
0.91326
0.771265
1.19377
1.13377
0.913825
0.921383
0.568967
0.963007
1.13583
1.12515
1.13544
0.573259
0.878877
1.13233
0.876127
0.800803
1.05283
0.949607
0.850161
0.787915
1.13109
0.903704
0.905393
0.993378
0.958544
1.13271
1.14541
0.897481
0.899686
0.773654
0.772859
1.1344
0.606654
1.13313
0.932718
0.80418
0.896279
0.889285
0.437447
1.1661
1.14785
0.250588
1.19977
1.13844
0.867323
0.863212
0.529549
0.791906
1.14003
0.910809
0.820826
0.712499
0.613073
0.737612
1.12671
0.909741
0.621354
0.918542
1.14187
0.740902
1.13298
1.13744
1.13483
1.13004
1.13281
1.13358
1.13349
0.880559
1.1361
1.13402
1.13341
1.13363
0.883694
1.13292
1.04361
0.816923
1.15074
1.13859
0.565129
0.915134
0.847683
0.776788
0.893527
0.833935
0.881258
1.14118
0.240035
0.854838
1.23081
1.13993
0.962844
0.849338
0.926418
1.13061
0.810986
0.924696
0.929368
1.14102
0.874235
0.497432
0.94096
0.933245
1.04107
1.15414
1.10822
1.14239
1.10382
0.24189
1.13545
1.1401
1.14412
1.17337
1.12772
0.874025
1.10837
0.901632
1.13846
1.13919
0.804426
1.10923
0.405798
0.867472
1.10075
0.886638
1.09998
0.527974
0.872536
0.898457
1.12994
1.12017
0.579388
0.448365
1.14832
1.14153
0.846031
0.850597
1.13051
1.14282
0.824129
0.79042
1.11291
0.924176
1.13011
0.851992
0.939421
1.11907
1.14063
0.80993
0.383186
0.821424
0.877176
0.855356
0.893169
4.88532
1.10381
0.827222
1.10549
0.886727
0.858922
1.13707
0.855327
0.855821
0.873348
1.13871
0.853432
1.13856
1.12841
1.10831
1.13309
1.12767
1.03545
0.676428
0.821678
0.770728
0.831089
0.839136
0.9378
0.828937
0.953393
0.940644
0.941053
0.65159
1.13377
1.13783
0.816387
1.22168
0.367591
0.82324
0.910904
0.728017
0.824137
0.854716
0.92267
0.853362
4.56641
1.13374
0.867502
0.868713
0.770026
0.877939
0.86095
0.863677
0.934933
0.918727
1.13487
0.935065
0.966545
1.09004
0.260033
1.13879
0.90293
1.11091
0.839955
0.929991
1.01946
1.14777
0.858962
1.13342
0.66387
0.914979
1.21106
0.874848
1.13524
1.14456
0.874619
1.13477
0.874406
0.876979
0.874814
0.504306
1.01164
1.04586
0.370338
0.858724
0.865509
1.13331
0.741838
0.875864
0.495719
0.916916
0.828981
1.13754
1.11522
0.864544
0.949883
0.697005
1.10592
1.11048
0.713615
1.10816
1.10589
0.814099
0.839922
0.829704
0.91635
1.10116
1.10105
1.08582
1.08937
1.13498
1.11125
1.13543
0.85446
0.724587
1.14504
1.14759
0.651367
1.10763
1.12062
1.13666
0.912349
0.962857
0.625907
0.953426
1.13547
1.12503
0.772544
0.47687
1.13496
1.12591
0.850447
1.11596
1.12902
0.858674
0.944816
0.993109
1.1333
0.993335
0.993793
0.995642
0.930016
1.13549
0.84612
0.837163
0.960667
0.8708
1.12292
1.11917
0.845545
1.13664
1.18998
1.08854
1.10841
1.19489
1.11039
1.13091
0.959249
0.97428
1.13371
1.13325
0.962824
0.858741
1.13921
1.13328
0.922532
1.08611
1.08793
1.07446
1.07667
1.07071
1.07127
1.06262
1.06522
0.6861
0.848019
1.05919
0.879974
1.05906
1.05156
1.13498
0.913548
0.93028
1.0542
1.13294
1.04226
1.13575
1.04305
0.617928
0.856328
1.04155
1.0947
1.04238
1.13453
1.12726
1.03034
1.14201
1.03206
1.15048
0.717697
1.09394
0.837649
0.931783
1.12794
1.12315
1.02407
1.02544
1.13779
0.872222
1.0161
1.0166
0.925599
1.14867
1.14076
1.00262
0.810556
1.00503
1.12278
0.840554
0.998689
0.801399
0.999025
0.825715
0.831234
1.12808
1.13291
1.12952
0.988037
0.990309
0.861912
1.1288
1.13392
0.983671
0.830265
0.984131
0.797046
1.13598
0.972034
0.972424
1.12436
1.12137
1.12718
0.894631
1.12415
0.866158
0.902277
0.984425
1.13895
0.9598
1.12266
0.959945
1.11447
1.13484
0.869073
0.869631
0.953555
0.955514
0.849263
0.874773
0.945427
0.877051
0.945461
1.14619
0.926153
0.934257
0.93501
1.13146
0.814864
0.926909
0.928368
1.29422
1.09744
1.09604
1.14887
0.920016
0.844618
0.919355
1.04929
0.970838
0.859984
0.772034
0.912025
0.915193
0.898836
0.903793
0.902354
0.804202
0.785916
1.09654
0.87768
1.19805
0.816638
1.13235
0.773464
0.804457
0.786875
0.938712
0.921464
1.08469
1.0986
1.08465
0.847346
1.12128
1.10856
1.1161
0.356134
1.10892
0.863301
0.30482
1.09807
1.10027
0.815261
0.794985
1.13692
0.92344
0.693395
0.934237
0.373231
1.15978
1.13453
1.11168
0.462629
0.876706
1.123
0.850922
1.1095
0.987557
0.903558
0.989285
0.804407
1.14634
0.937255
0.91189
0.995497
1.11041
0.450593
1.13633
0.250793
1.12155
0.989507
0.991986
0.871029
0.926564
0.925914
1.13196
0.825951
1.13695
1.13926
0.993537
0.888939
1.10759
0.890993
1.10692
1.10871
0.926118
0.937834
1.13249
0.99368
0.77223
0.853912
1.14773
0.852948
0.79905
1.16243
1.10984
0.854368
0.858706
1.11006
0.801214
1.12744
1.11376
0.615732
1.01394
1.01449
0.847574
1.1158
1.13187
1.07766
0.913385
0.877437
1.12569
0.871549
0.813899
0.786307
1.12696
1.14129
1.13285
1.16588
0.978932
0.98099
1.08808
1.11211
1.18446
0.810126
0.967995
0.709646
1.11286
0.969544
0.805441
0.854032
0.852542
0.607378
0.848541
0.874673
0.761798
0.847163
0.763029
0.942524
1.12816
1.12744
0.943394
0.445838
1.13605
0.855964
0.849408
1.13336
0.790417
0.797886
0.87199
0.819941
0.802424
0.786972
0.810478
0.800633
0.784184
0.783466
1.06866
1.12666
0.834354
1.12704
1.07055
0.856744
0.80647
0.81645
1.12814
1.13905
0.876733
1.14624
0.873352
0.875834
1.10513
1.10386
0.981046
1.10562
0.349495
1.10649
1.13413
0.85176
0.875229
0.839155
1.07329
1.12779
0.847204
1.10229
0.878417
0.874787
0.853773
1.11194
0.873672
0.86155
0.875156
1.13902
1.13955
1.13644
1.138
0.864324
0.874246
1.14937
0.921653
1.10853
0.811007
1.15681
0.801068
0.927504
0.904463
1.12848
0.781804
0.781271
0.922277
1.16265
1.0872
0.815612
0.894369
0.887786
0.814647
1.0951
1.09864
0.853852
1.04564
1.1283
1.12756
0.872947
0.719367
0.962836
0.859524
1.14119
1.10093
1.13466
1.10506
1.12064
1.10359
1.23454
1.10418
0.934525
0.789949
0.804242
0.862064
1.13024
1.12965
1.05364
0.812954
0.957012
0.931009
1.17784
1.0356
1.04385
1.04487
1.02781
1.03865
0.438898
1.01014
1.04252
1.05724
1.02822
0.852783
1.0479
1.00282
1.01902
1.05768
1.11298
1.05969
1.02116
1.06108
1.12276
1.00918
1.06812
1.06787
1.06922
1.01109
1.07225
1.07562
0.999709
1.0731
1.12217
1.08123
1.00013
1.14429
0.994206
1.08358
0.623732
1.13399
0.776146
0.996177
1.12303
1.14594
1.1243
0.985245
0.996109
1.13954
1.12336
1.14514
0.985487
0.775766
1.1137
0.97441
1.13724
0.867874
0.97562
0.962487
0.964476
0.789817
0.95837
0.958735
0.947802
1.13979
0.929382
0.949635
1.13756
0.938008
0.911088
1.13683
1.10146
0.93961
0.845881
1.06824
0.931212
0.931935
0.921883
0.795528
0.923441
1.18402
0.918505
1.1409
0.886215
0.795968
0.918944
0.925695
0.903374
0.851946
0.905004
0.891026
0.889176
0.905438
0.907035
0.905238
0.904367
0.935379
1.07094
1.20568
1.13177
1.07637
1.13464
1.0636
1.08072
1.12427
0.578573
1.20356
0.927533
0.341724
0.775932
0.775599
0.962718
0.95753
1.13185
0.930895
0.995162
0.998429
0.872341
0.959415
0.991346
0.99537
0.993211
0.992617
1.00003
0.804304
0.874495
0.854133
1.13063
0.882292
0.804864
0.786203
0.914354
0.463136
1.03181
0.992348
0.749712
0.46201
0.763231
0.912634
0.896779
0.760008
0.509866
1.076
1.13625
0.863857
0.910152
0.882818
0.987439
0.924712
0.92225
0.719287
0.826225
0.89416
0.827403
0.887485
0.915219
0.731688
0.793544
1.06168
0.871443
0.996866
0.892036
1.13301
0.99638
1.05208
0.861339
0.906164
1.14496
1.13301
1.07777
0.866723
1.11127
1.13705
1.0628
1.10939
0.911948
0.762313
1.19079
0.909089
1.062
0.863731
0.848426
1.13843
1.24116
1.20634
0.784769
1.07384
0.801585
0.874244
0.87401
1.19803
0.999927
0.871467
1.11065
0.777846
1.06532
0.910575
0.950509
0.774696
0.805787
1.08435
1.08274
0.882006
0.776046
0.885006
0.857895
0.867076
0.868277
1.08435
0.958256
0.88817
0.851646
0.849966
0.768312
0.914615
1.10838
0.854474
0.742447
0.872783
0.751708
0.872043
0.992172
5.77429
1.10227
1.10414
0.805475
0.869715
1.14669
0.845947
0.872371
0.963517
0.93922
0.814921
0.84497
1.1097
0.90567
1.02576
1.08966
1.08869
0.87941
1.037
1.10414
1.10818
1.10824
0.859628
1.10766
0.859111
0.714467
0.934004
0.775747
1.13761
1.10868
0.776809
0.490095
1.08971
0.852351
1.08502
1.08997
1.08746
0.937473
1.08786
0.856955
0.769367
1.02203
1.12577
0.922504
1.07447
1.04744
0.881184
0.254638
1.01683
1.07347
1.05736
1.11357
0.872649
1.19855
1.11573
1.12216
0.807828
1.05828
1.12347
1.03476
1.04068
0.367758
1.12844
0.914622
1.04658
0.939939
0.987019
1.06151
0.792777
0.760133
1.07579
1.04692
1.04906
0.890937
0.938476
1.13872
1.04446
0.796046
1.05475
0.990045
1.08662
1.03368
1.08575
1.13366
1.13769
1.03329
1.05674
1.12387
0.830076
0.917249
1.0603
0.8417
1.03581
0.8774
0.857674
1.069
0.985685
1.12691
0.872582
1.07726
1.06699
1.11454
1.13719
1.14643
0.951677
1.05555
1.05526
1.05875
1.13322
1.1276
1.1467
0.936579
1.01091
1.06257
0.905223
1.12525
1.0559
1.06164
0.884185
0.823589
1.0621
1.04832
1.08135
1.03575
1.04932
1.13804
1.13504
1.04809
1.03888
0.995212
1.04426
1.0584
0.783478
0.741364
1.13725
1.04747
1.06641
0.559636
1.04106
1.11352
1.07129
1.06385
0.869449
1.05505
1.13204
1.12842
1.01518
1.0262
0.81939
1.03075
1.12444
1.02036
0.986408
1.09891
1.00981
1.12592
0.888791
0.806765
0.796535
1.02907
0.811681
0.947497
1.12642
1.02225
0.773426
0.778131
0.989198
0.989184
0.75321
0.989943
0.990164
0.920831
0.99063
0.991235
0.936844
1.01412
1.02452
0.924394
0.972399
0.992613
0.977007
1.02284
0.989731
0.936757
0.990949
0.575428
0.778275
0.990427
0.983187
0.95226
0.802697
0.871442
0.993464
0.970326
0.798594
1.0145
0.710368
1.00443
0.820007
1.13103
1.08943
0.79903
0.796802
0.853523
0.986684
0.993916
0.936756
1.15967
0.908438
1.04495
1.1233
1.08344
1.05226
1.12873
1.13435
0.9851
0.743076
1.13033
1.00105
0.948794
0.996751
1.13054
0.781981
1.04612
0.990921
0.989796
1.05267
0.962104
0.954932
1.10378
1.02853
0.774687
1.03813
0.974535
1.00927
0.956665
0.928262
1.13697
0.741727
1.1235
0.949976
1.1366
1.11426
1.05732
0.940237
0.997055
0.933316
1.00069
0.867256
0.929369
0.98896
0.885957
0.827941
1.02931
1.10901
0.968826
0.970477
1.11192
1.07992
1.10005
1.08655
1.09988
1.08868
1.10794
0.829061
1.13804
0.946767
1.16307
0.778613
1.03963
1.1192
0.780853
0.914961
0.793133
1.13212
1.05517
0.94757
0.773673
1.09978
0.908472
1.0403
1.1311
1.14207
1.06113
1.05789
0.82944
0.80423
1.05133
1.14711
1.10706
1.07114
0.906175
0.860564
1.01995
1.12076
1.17228
1.14973
1.11007
0.97349
1.13477
0.942155
0.949166
0.941372
1.16301
0.928108
0.901984
1.09986
0.945926
0.903862
0.952847
1.10487
1.06753
1.06109
1.11494
1.06875
1.02099
0.926128
0.947111
1.04935
1.15936
1.06636
1.0676
1.01874
1.10773
1.1387
0.979858
0.789588
1.02805
0.783796
1.13523
1.05932
1.03306
1.11692
0.904284
1.05943
1.11683
0.89524
0.947947
0.892659
1.15574
1.09804
0.78321
1.0297
1.04275
0.782629
0.713486
0.77873
0.950575
0.821588
1.11011
0.873692
0.870672
0.777439
1.10967
0.906595
1.146
1.04367
0.771356
1.01034
0.907375
0.847504
1.11441
1.11263
0.778299
0.778126
0.903751
1.1127
0.876518
0.931075
0.889106
0.882251
0.883126
0.768182
0.880697
1.00001
1.04113
1.00203
1.17975
0.949638
0.885293
0.940528
0.94029
1.17808
0.834363
0.982825
1.10418
0.852905
0.976528
0.770153
1.07844
0.796657
0.849727
0.895082
1.07796
1.07743
0.878208
0.771633
1.082
0.894007
0.874568
1.02378
1.04218
1.12031
0.769786
1.11217
0.883707
0.819427
0.893639
0.752535
1.06349
1.11392
1.05459
0.764712
0.859029
1.08223
1.13557
0.950347
1.02716
0.962703
0.95865
1.09693
0.811098
0.758547
1.04676
0.963947
1.08134
0.823178
0.866688
0.462396
0.86637
1.15527
0.853748
1.06016
0.829873
0.774686
1.0472
1.02232
1.13091
1.05912
0.98915
0.895159
1.11137
1.08652
0.985158
1.0088
1.21269
0.995014
1.12803
0.799592
1.07685
0.851807
1.08758
0.932631
0.859065
1.15108
1.00726
0.926324
0.885004
1.10466
0.928375
0.800914
0.845663
0.426157
0.447148
0.951686
1.06274
1.08531
1.05604
0.860296
1.00796
1.01369
1.11244
0.995735
0.743465
1.13449
0.712609
1.10283
1.11462
0.318072
1.02421
1.10043
1.10248
0.939773
0.81358
0.738444
0.734744
1.03579
0.849332
0.834956
0.805416
1.02876
1.04779
1.04313
0.793512
0.871897
0.94562
1.02021
1.08043
0.862369
0.927209
1.05945
1.09904
1.02566
1.10336
0.810445
1.0373
1.10226
0.811226
1.13467
0.818167
0.781007
0.940949
0.810966
1.13041
1.12857
1.0752
1.06829
0.788047
0.863346
1.14467
1.15678
0.868766
1.07086
0.779258
1.11928
1.08352
0.9181
0.797639
0.796714
1.06768
0.853649
0.714925
0.900349
0.784657
1.11069
0.717962
0.778243
0.742158
0.836435
1.05558
0.989687
1.15345
0.912449
0.856398
0.920418
0.854838
0.918816
0.922866
0.91474
1.03825
0.869395
1.12072
0.940851
1.09886
0.586107
0.858797
0.854708
0.87553
0.863176
1.06732
0.893675
1.09844
1.12787
0.86555
0.886204
0.742206
0.747816
0.773107
0.74146
0.980941
1.02562
0.895074
0.755356
1.04995
0.783405
1.0999
0.781867
1.11292
0.903111
0.999086
0.755538
1.09852
0.777148
0.854487
0.282501
1.13324
0.854192
0.89614
1.07608
1.0876
1.08874
0.892448
1.08766
0.864815
0.74388
0.757338
0.802059
0.759296
0.869027
0.938062
1.13878
0.758018
0.806958
1.1381
0.76833
1.10388
0.941785
0.85033
0.859201
1.13457
1.13673
1.05073
0.944016
0.995825
0.753201
0.751816
1.10061
0.829918
1.03251
1.11699
0.846284
3.37058
3.27392
0.976757
0.857081
0.985273
0.846706
1.09651
1.09392
1.04255
0.836934
1.03175
0.828867
1.04459
0.890679
1.04026
1.06018
1.05184
0.819838
0.945231
1.06135
0.834452
1.04706
1.05445
1.13926
0.81729
0.777553
0.739148
0.833788
0.975797
0.75966
1.06401
0.998636
1.04727
0.823892
0.809811
1.01201
1.02735
0.903567
1.05394
0.924773
1.05371
1.1396
1.13699
1.06818
1.0713
1.13613
1.04618
1.03297
1.05648
1.01144
1.01629
1.13302
0.968179
1.075
1.09229
0.906821
0.949097
1.00557
1.08002
1.08218
0.94201
0.802773
0.834722
1.02732
1.00453
1.01602
0.90825
0.965041
1.02285
1.11357
1.07105
1.11857
1.10089
0.891225
0.835731
0.989389
1.02086
0.892052
0.82379
0.813695
0.937127
0.855867
0.889778
0.981919
0.902692
1.0138
0.854537
0.977595
0.857438
1.10415
1.08426
0.959261
0.980745
1.11544
1.11644
1.00727
1.06702
0.837094
0.895423
1.13344
0.987203
1.10088
0.827898
1.11659
0.927725
1.04469
1.13553
0.891612
0.806089
0.838021
0.852866
0.996455
0.870861
0.971246
0.835316
1.11835
0.888311
0.87287
0.822966
0.961508
1.06113
0.925481
1.15502
1.13015
0.994342
0.944751
0.892957
0.911214
1.1049
0.890413
0.760551
1.12498
1.13463
0.894151
1.01854
1.12278
0.944565
0.880377
0.760224
0.981584
0.969049
0.893027
0.929312
0.967062
0.926192
0.772948
1.05064
0.776502
0.776697
0.949635
0.932086
1.05117
0.77793
0.94499
0.875403
0.89397
0.915825
0.877131
0.761279
0.678711
1.08035
1.03696
0.763333
0.907544
1.11271
1.04273
1.10085
0.924969
1.02022
0.909317
1.12118
1.04357
0.920565
1.04548
0.894349
0.966414
1.03638
1.04095
0.471034
0.898479
1.07953
1.02534
0.994443
0.886727
0.893436
1.11039
0.908626
0.888997
0.975708
0.802245
0.959671
1.05273
0.942177
0.896041
1.03504
0.951499
0.909438
0.955894
1.13587
0.923598
0.90872
1.04409
0.895377
0.746786
0.902849
1.01674
0.943891
1.00594
0.911019
1.03424
0.907828
1.02299
0.894125
0.907345
1.00489
1.18562
0.99343
1.11834
1.11797
1.01849
0.88828
0.924397
0.900745
0.976706
0.902168
1.04944
1.02874
1.08674
1.10009
1.00566
0.891002
0.826162
1.03364
0.956223
1.08849
0.967193
1.00547
0.852557
0.880214
1.08392
0.950829
1.00759
1.03509
0.882154
0.890638
0.889592
1.00791
1.00584
1.05183
0.938817
1.00692
0.870296
1.0076
1.1361
1.13929
0.89427
1.11762
1.11907
0.902845
0.812817
0.964173
0.869093
1.00891
1.07614
1.07503
1.08349
0.923018
1.0735
0.849236
1.01504
0.857174
0.864373
0.975582
0.69622
0.87598
0.812188
0.997713
0.802572
0.84584
0.995175
0.759814
0.841011
1.00986
0.981847
1.07579
0.935396
0.863645
1.09992
1.12957
0.944672
1.09469
0.962877
0.33994
0.978987
0.853409
0.857081
0.959778
0.944778
1.0117
0.772935
1.09981
1.0286
1.06009
1.13995
1.01703
1.01076
1.0277
1.02609
0.807228
1.08736
0.963828
0.860248
0.911314
0.926019
0.982453
0.935893
1.03256
0.979373
1.03353
1.07916
0.981917
0.848639
1.08842
0.858587
0.828249
0.904829
1.13359
0.986961
0.896741
0.770415
0.86496
0.926374
0.910801
0.91596
0.938368
0.758201
0.947766
0.932752
0.790138
0.464102
0.985712
0.963402
0.854018
0.975781
0.879925
0.987176
1.12026
0.846707
0.792552
1.08155
1.11829
1.07552
1.08337
0.980048
1.03559
0.820409
1.03626
0.865294
1.14
0.845582
0.768858
0.981714
0.967382
0.796081
0.942877
0.944707
0.970342
0.838014
1.08516
1.05992
0.885364
1.00544
0.549058
1.07163
0.772801
0.989255
0.817384
0.981831
0.850321
0.977257
1.10165
1.01694
1.01817
1.01854
0.998611
1.00247
0.851897
1.06525
0.792196
0.8437
1.10559
0.989725
0.876527
1.00158
1.01892
1.00234
0.798323
0.843337
1.0467
1.04942
0.965951
1.01404
1.00284
1.14355
1.01229
0.976499
1.00842
0.937876
1.11919
1.08801
1.01185
0.795566
0.824757
0.7306
1.07655
1.06186
0.97253
1.12698
1.0244
0.760468
0.79096
1.02176
1.02273
0.87331
0.754071
0.966876
1.01829
0.746825
0.774562
0.766264
0.741022
1.06023
0.776617
1.06954
0.769616
1.12017
0.888682
1.00517
0.814665
0.810075
0.944601
1.02862
1.10002
0.839583
0.808955
1.00715
0.80905
0.817325
0.967042
0.775543
1.02714
0.956767
0.944434
0.821962
0.941726
0.960205
1.00745
1.00632
1.00603
1.02554
0.947668
0.98952
0.938623
0.809307
0.791989
0.996732
0.795458
0.943075
1.1276
0.811612
1.13743
0.849478
0.952578
1.11677
1.10739
0.828253
1.02675
1.13218
0.777632
1.09605
1.09867
0.85319
1.0904
0.731574
0.514202
0.945309
0.781206
0.943662
0.791939
0.837897
0.940877
0.836005
0.892272
0.896167
1.09945
0.915063
1.14025
0.93229
1.05974
1.03616
0.904123
0.966473
1.02892
0.937624
1.02959
1.10077
0.967856
0.739708
0.910948
1.02029
1.03535
0.870753
0.905219
0.914614
0.917912
1.00085
1.01352
0.944406
1.11677
0.785057
1.10425
0.979247
0.744379
1.08728
0.935451
1.07008
0.979154
1.07962
0.768294
0.924766
1.05455
0.857404
1.1092
0.80381
0.805692
0.990088
1.0391
1.10925
0.887051
1.02978
1.03213
1.0348
1.11962
0.991357
0.91104
0.897862
0.768561
1.04697
1.12466
0.558603
1.04341
0.913403
1.05267
0.952074
1.04973
0.887254
1.11077
0.834244
0.9321
0.964043
0.8964
0.77485
0.93154
0.929125
1.06042
0.924476
1.03132
1.02955
1.1102
1.08858
1.11648
0.767635
0.876615
1.13764
0.788096
0.901318
1.05471
0.960053
0.893885
0.996268
0.83771
0.861758
1.04265
0.780467
0.896091
1.05252
0.814063
0.879283
1.08974
0.947351
0.885679
0.962858
0.926337
0.984554
0.981057
1.05742
0.811909
1.06171
1.05937
1.10731
0.840527
1.06263
0.901014
1.10245
1.09224
0.802275
1.09012
1.05906
1.02604
0.912528
0.99267
1.10534
0.893093
0.895595
0.799294
0.966171
0.829728
0.913668
0.852217
1.04943
0.777259
1.05839
1.11673
0.872202
0.775193
0.82485
0.971997
0.850101
1.1201
0.928955
0.709411
0.893192
1.06545
1.01284
1.02637
1.07082
0.893559
1.08587
0.926006
0.820664
1.03591
1.2349
0.929262
1.09911
0.894223
1.0869
1.04225
1.0265
1.11213
1.08428
1.02873
0.82109
0.89588
1.11862
0.758437
0.84273
1.06661
0.965852
0.764829
1.09277
1.18151
1.11482
0.728922
0.832298
0.833373
0.837609
0.813313
1.0799
1.11398
1.07447
0.950945
1.11775
1.07332
0.836253
0.810909
1.02209
1.081
0.835613
0.829885
0.853998
0.862164
0.98353
0.749451
1.1081
0.829681
0.87781
0.871893
0.750759
1.07984
0.856559
0.895221
1.11166
0.883211
1.11315
1.07758
1.1019
0.748801
0.894695
0.934099
0.825555
1.10253
0.750255
0.315371
1.11614
0.814184
1.10401
1.17897
0.946415
0.859628
1.15931
0.937265
0.830465
0.85459
1.06891
1.10819
1.13983
1.11289
0.874681
1.05888
0.827175
0.805334
1.1597
1.00194
0.835861
1.09087
0.874283
1.08727
1.05171
1.11005
0.874052
0.839187
0.810864
1.04641
0.96748
0.871187
0.92238
1.11494
1.11218
1.00158
0.855332
1.03361
0.809855
0.887637
1.05056
1.13372
1.11123
1.13168
1.11049
0.788437
1.1296
0.880479
0.886157
1.04788
1.00909
0.890521
1.04931
0.797409
0.729868
0.623567
0.827412
0.978786
1.11508
1.06718
1.00792
1.02066
1.12098
1.01985
1.03442
0.998109
1.02757
0.868811
0.896905
1.14759
1.01325
1.12896
1.04728
0.79534
1.00779
1.0342
1.0326
0.892924
1.11493
0.881289
1.11689
0.908125
1.01009
0.886667
1.12167
0.782303
1.02464
1.11975
0.935945
0.706751
1.00549
1.08589
1.11108
0.905853
1.11993
0.768169
0.818169
0.90408
0.729834
1.03057
1.06915
1.1107
1.09814
0.82778
1.1743
0.761624
1.01843
1.00273
0.901104
0.891387
0.905332
0.93543
1.01847
0.894483
0.881763
1.11975
1.12754
0.790276
0.99613
1.00783
1.06298
0.909149
1.00377
1.02119
1.05649
0.910951
1.09979
0.845209
0.929545
0.999818
1.05693
0.903475
0.839213
0.805708
1.02341
0.99339
1.07566
0.920772
0.905284
0.988989
0.970178
0.774085
0.822006
0.976197
0.835396
0.782198
1.12007
0.86295
1.08619
1.11729
1.04199
0.929059
1.00932
0.827936
1.09769
1.11384
0.825207
0.964915
1.13907
0.991897
1.08692
0.920974
0.841919
1.11713
1.15592
1.08661
0.92697
1.08497
0.880913
1.10343
1.11597
0.975582
0.920965
0.92177
1.13465
0.710452
1.14136
1.05088
0.905104
1.2058
0.954004
0.899881
1.05588
0.950214
0.872292
0.829578
1.0426
0.963428
0.991687
0.91617
0.950113
0.939479
1.07142
0.851237
0.990783
0.830255
1.13754
1.01496
1.09481
1.10106
0.767098
0.93576
0.94684
1.05698
0.790657
0.808239
1.14643
0.934691
0.977295
0.779158
0.888345
0.842713
0.962301
0.91508
0.813597
1.11397
0.860841
0.953855
1.08692
1.11515
1.11342
0.939956
0.8172
0.956024
0.85673
0.894124
1.13308
0.941346
0.974663
0.920964
0.969731
0.802888
1.12066
1.10009
1.07042
0.936098
0.958347
0.789964
0.917127
1.0871
1.12033
0.857929
0.957901
0.763381
0.958073
0.936874
0.779049
0.779838
0.7778
1.14766
0.960342
0.779576
1.02846
1.08795
0.911938
0.953945
1.0182
1.11945
0.958119
1.11582
1.04284
1.02011
0.850565
1.05748
0.940961
1.03279
0.846532
0.912112
0.929211
1.02973
1.11253
1.04382
0.759364
0.968209
0.948563
0.972099
1.11951
0.933592
0.963634
0.918995
0.758428
0.760053
1.1191
1.06993
0.92773
1.13515
1.08821
1.02154
0.805561
0.912918
1.04421
0.838233
0.942272
0.91374
0.837954
1.03108
1.05786
0.880478
0.973728
1.01112
1.08279
1.06492
0.939014
0.925197
0.931725
1.01374
1.01354
1.07557
0.9967
1.07253
1.08004
0.936771
0.981139
1.12198
0.960458
0.909679
0.936155
0.87476
1.13611
0.987264
0.804961
1.10039
1.14109
0.936185
0.93509
0.946426
1.11277
1.07999
0.865189
1.12134
0.87751
0.958625
0.860803
1.12042
1.11348
0.94432
0.93041
1.12198
0.970774
1.11143
0.913467
0.986314
0.808985
1.12119
0.871124
1.11033
0.854401
1.04988
1.09997
0.931081
1.00144
0.89958
0.890082
1.0868
1.08642
1.08268
0.955087
0.979959
0.859403
0.874675
1.01861
0.850372
0.99227
0.990137
0.804125
1.0168
1.10196
1.11597
0.967903
1.00202
0.804664
1.11376
0.952001
1.01852
1.09156
0.869705
0.834582
0.920582
0.833771
0.992503
1.10818
0.885173
0.983329
0.977987
0.865056
0.875893
0.912192
0.891363
0.954789
0.889498
0.966205
1.12129
1.13641
1.00527
0.781924
0.815231
1.06047
1.02784
0.894447
0.790843
0.744971
1.10745
0.879583
0.993798
0.905499
0.964132
1.0107
1.10704
1.01988
0.86636
0.956039
0.996152
0.828087
1.08086
1.1207
0.995547
0.793939
0.908935
1.11576
1.06795
1.1141
1.12767
0.900602
0.986321
0.373871
0.875139
1.04529
0.962139
1.10862
0.839112
0.961674
0.999798
0.819969
1.13323
0.79566
0.936224
0.758283
1.06284
1.04068
1.01771
0.975934
1.11572
1.01168
0.929803
0.888083
1.07201
1.15114
0.829082
0.9202
0.848561
1.03896
0.96998
0.996518
1.01454
1.10773
0.98933
0.928256
1.15198
1.00723
0.820063
0.792319
0.812682
0.948178
1.1152
0.796511
1.08224
1.00772
0.89425
1.0532
1.07424
1.10175
0.947272
0.96378
0.922715
0.743911
1.05441
1.12132
1.02622
0.910999
0.97893
0.843333
1.07367
0.972455
1.00677
1.13123
1.02299
1.11303
0.97851
1.09758
1.01436
1.11241
1.10655
0.944923
1.11524
1.01153
0.908181
1.11295
1.15673
0.995347
1.11525
1.03646
1.08022
0.894039
1.13825
0.921792
1.00405
1.11928
1.00926
1.09308
1.08302
0.922569
0.991384
0.767663
0.981671
1.134
0.993095
1.06043
1.18402
1.04011
1.137
1.13045
0.751083
1.08236
1.01974
0.757431
1.11517
1.11983
0.785461
1.04476
1.12119
1.10132
1.01236
0.995289
1.01583
1.02305
0.734528
1.01858
0.883075
0.916565
0.840011
0.800129
0.798239
0.937251
0.995345
0.854725
0.749077
0.86943
1.09963
1.07387
1.0212
0.911036
1.10041
1.09975
0.819456
1.14393
1.03646
0.936736
1.00318
1.1365
1.0078
1.0335
0.944626
0.89193
0.968439
1.08808
1.02323
0.934625
1.1007
0.7234
1.00394
0.946042
0.958384
0.937104
0.939916
1.12853
0.740895
0.733487
0.936403
0.752425
1.02307
1.02807
1.11296
1.06986
1.11883
1.07051
0.792259
1.07611
1.0584
1.12371
0.968237
1.08904
0.783043
0.889491
1.01052
0.979875
0.74621
1.08441
1.02238
0.760262
1.05154
0.98458
0.913193
1.0372
1.08476
1.07502
1.08554
1.00894
0.948402
1.01057
1.05808
0.972534
1.08234
1.03654
0.821112
1.06139
0.937429
1.07852
0.913325
1.02792
0.762116
1.08356
1.11945
0.740325
1.11777
0.92631
0.818958
0.749759
0.854529
0.809288
0.872805
0.962348
0.554643
1.00349
1.12658
0.68234
1.02679
1.01912
0.812696
1.05379
0.730619
0.923764
1.02178
1.12801
1.0209
0.766795
0.931831
1.11403
0.763913
1.01612
0.915862
0.814798
0.960975
0.836598
1.09368
0.828946
1.12373
0.979065
0.955436
0.737278
1.0527
0.950642
1.02409
0.788435
0.7609
1.2493
1.10671
1.09238
0.929669
1.0489
0.781718
1.11541
1.11597
0.920035
1.26831
1.11253
0.948784
0.996368
0.780688
0.979889
0.737703
0.948794
0.929403
1.02702
1.12881
1.1283
1.05691
0.834352
0.815313
0.807507
0.954797
1.12489
0.95679
0.731883
0.829093
0.771418
0.822231
0.724965
1.11241
0.995607
0.949687
0.946887
1.02493
0.783706
1.10979
1.12162
1.09879
0.939125
1.03113
0.945441
0.966697
0.948476
0.811413
1.22163
1.12559
0.850068
0.837304
1.03197
1.12627
0.829377
0.851635
1.07432
1.08726
0.794103
0.975816
1.01664
0.763743
0.795886
0.951951
1.01768
1.12576
0.996545
0.946213
1.0449
1.00557
0.805244
0.923562
0.74019
0.847916
0.94766
1.00496
0.739434
0.860637
1.05265
0.970451
1.11638
0.980833
1.10673
1.04137
0.970822
0.744105
1.05105
0.80504
1.03348
0.940339
1.12192
1.01654
0.959746
1.09059
0.781338
0.739505
0.863449
0.946648
0.963754
1.185
1.07488
1.03215
0.938114
0.958302
0.790462
0.926084
1.12031
0.96279
0.8623
0.889097
0.77428
0.766442
1.08308
0.74251
0.972258
0.790977
1.05252
1.05996
0.772971
1.11982
1.0092
1.05445
0.964495
0.962546
0.910484
0.857359
0.942839
1.02079
0.958241
1.05204
0.857683
0.885815
1.00659
0.879021
0.801991
1.11073
0.771779
0.897831
1.08192
0.938028
1.11005
0.810939
0.800634
1.06636
0.965926
0.956138
1.11751
0.896774
1.11897
0.886203
1.04902
0.886472
0.983179
1.06698
0.734644
1.13424
0.90034
1.13825
0.918132
1.08223
0.9413
1.03323
0.958376
0.97355
0.793956
1.02092
0.857511
0.792526
0.569514
1.07889
0.788138
1.05512
0.82092
0.982538
0.934334
0.922411
1.05889
0.731982
1.03762
0.989979
1.06037
0.976695
1.03809
0.8988
0.947983
0.876325
1.05334
0.913412
1.10903
0.78442
1.11158
1.03701
0.963647
0.811262
1.19927
0.971027
0.979797
1.03563
1.06344
1.01734
1.13883
1.03126
0.939038
0.762176
0.909406
0.765116
0.950487
1.06037
1.07468
1.12708
0.955622
0.90455
1.01057
1.05141
1.02959
0.847337
0.822479
1.02252
0.934082
1.06275
0.991325
0.799254
1.0393
1.07386
0.760494
0.764776
0.745849
0.952109
0.935637
1.06293
1.06117
0.790906
0.963979
1.00917
0.945081
0.997248
1.05595
0.913538
0.740339
1.08355
1.04832
1.03786
1.06063
0.905941
0.820052
1.08909
1.00284
1.12867
0.93404
1.0683
0.995595
0.899531
1.10121
1.01197
0.981657
0.992209
0.930537
0.892798
0.930493
0.945371
1.05491
0.866718
0.943958
0.949195
1.04464
0.971877
0.942652
0.953367
1.08553
0.940256
0.926098
0.926381
1.07156
0.932907
0.943844
0.931821
1.05261
0.833561
0.974531
0.728044
0.959058
0.930021
1.06793
0.955937
0.987868
1.11981
0.997113
0.840328
0.984977
0.786942
0.942497
1.05438
0.786203
0.965132
0.960119
0.947887
0.898687
0.982126