/*--------------------------------*- C++ -*----------------------------------*\
  =========                 |
  \\      /  F ield         | OpenFOAM: The Open Source CFD Toolbox
   \\    /   O peration     | Website:  https://openfoam.org
    \\  /    A nd           | Version:  12
     \\/     M anipulation  |
\*---------------------------------------------------------------------------*/
FoamFile
{
    format      ascii;
    class       volScalarField;
    location    "7";
    object      p;
}
// * * * * * * * * * * * * * * * * * * * * * * * * * * * * * * * * * * * * * //

dimensions      [1 -1 -2 0 0 0 0];

internalField   nonuniform List<scalar> 
9801
(
0.623681
0.626979
0.634642
0.644588
0.650014
0.652763
0.654586
0.655992
0.657191
0.65863
0.660774
0.66344
0.667991
0.677324
0.686391
0.690783
0.693168
0.694751
0.695868
0.697287
0.699346
0.701831
0.705139
0.711999
0.723253
0.731093
0.734848
0.736966
0.737975
0.738737
0.740243
0.742638
0.745562
0.749908
0.759574
0.771741
0.778438
0.781815
0.783604
0.784326
0.784838
0.786497
0.789282
0.792984
0.799243
0.813536
0.824975
0.829981
0.832836
0.833414
0.833182
0.834105
0.836375
0.839854
0.844649
0.856646
0.87427
0.883044
0.887055
0.888058
0.886437
0.886124
0.888529
0.892227
0.896932
0.90704
0.92797
0.943149
0.950564
0.954253
0.949209
0.94446
0.945838
0.950637
0.957373
0.968199
0.993592
1.01594
1.02744
1.03443
1.03219
1.02058
1.01793
1.02369
1.03408
1.05471
1.09634
1.12784
1.14625
1.16073
1.16618
1.15202
1.14124
1.15788
1.19489
1.27844
1.37336
2.18676
6.7364
0.629286
0.633822
0.642627
0.650185
0.655065
0.65855
0.661133
0.661907
0.661807
0.663404
0.66605
0.669019
0.6742
0.683541
0.691153
0.695873
0.699261
0.701567
0.701219
0.701604
0.703917
0.706933
0.710436
0.717243
0.727591
0.734972
0.73958
0.742942
0.744103
0.742759
0.744097
0.747134
0.750647
0.75501
0.764381
0.775509
0.782329
0.786636
0.789603
0.788279
0.787109
0.789532
0.793342
0.797521
0.803801
0.81715
0.82826
0.834188
0.838268
0.838747
0.834774
0.835415
0.83903
0.843492
0.848395
0.859684
0.876602
0.886169
0.891447
0.894624
0.889894
0.886314
0.8895
0.894406
0.899451
0.908801
0.929679
0.945119
0.95331
0.958615
0.955525
0.946378
0.946261
0.952015
0.959152
0.970233
0.995331
1.01811
1.02985
1.03797
1.04031
1.02581
1.01829
1.02545
1.0367
1.05591
1.09099
1.12024
1.13981
1.15766
1.16988
1.15955
1.14582
1.15229
1.18145
1.23677
1.30557
2.08062
6.81052
0.631258
0.636174
0.645398
0.652732
0.657294
0.660835
0.663648
0.664897
0.664639
0.665739
0.668123
0.671059
0.676182
0.68577
0.693385
0.698121
0.701759
0.704522
0.704853
0.704699
0.706407
0.7092
0.712567
0.718953
0.72942
0.736869
0.74162
0.745313
0.747323
0.746314
0.747113
0.749826
0.753238
0.757308
0.766168
0.777401
0.784224
0.788731
0.79215
0.791487
0.790276
0.792544
0.796191
0.800249
0.805913
0.818697
0.82991
0.836066
0.840483
0.841713
0.83796
0.838158
0.841576
0.846279
0.851354
0.861725
0.878001
0.887714
0.893427
0.897344
0.893774
0.88902
0.891247
0.8962
0.901749
0.910782
0.930309
0.945954
0.954601
0.960469
0.960566
0.951479
0.948508
0.95324
0.960333
0.9703
0.993279
1.01627
1.02948
1.03894
1.04538
1.03445
1.02204
1.02628
1.03744
1.05256
1.08226
1.11708
1.14132
1.15969
1.17523
1.16907
1.15692
1.16168
1.18453
1.22967
1.27543
2.04279
6.79745
0.634077
0.639563
0.649278
0.656465
0.66079
0.664109
0.66695
0.668692
0.668067
0.668547
0.670662
0.673665
0.679344
0.689324
0.696889
0.701477
0.705015
0.708015
0.708964
0.707967
0.709055
0.711672
0.715222
0.722077
0.732858
0.740264
0.744825
0.748484
0.751093
0.750047
0.749769
0.751921
0.75523
0.759595
0.768931
0.780643
0.787588
0.79207
0.795736
0.795833
0.793537
0.794687
0.797739
0.801749
0.807741
0.820811
0.832646
0.839062
0.843572
0.845962
0.842456
0.840956
0.843457
0.847588
0.852735
0.863083
0.879393
0.889783
0.895875
0.900673
0.899664
0.893045
0.893148
0.897215
0.902665
0.911484
0.930402
0.947457
0.957005
0.963366
0.966905
0.958617
0.950959
0.953908
0.960938
0.970014
0.990093
1.01577
1.03147
1.04146
1.04957
1.04554
1.02985
1.02725
1.03703
1.05024
1.07262
1.10704
1.13463
1.15458
1.17314
1.17894
1.16511
1.15874
1.17057
1.20527
1.23698
2.03076
6.80234
0.636889
0.642533
0.652532
0.6597
0.663947
0.667168
0.669913
0.671688
0.671009
0.671363
0.673466
0.676402
0.682372
0.692632
0.699983
0.704402
0.707785
0.710648
0.711692
0.710708
0.711819
0.714474
0.717997
0.725306
0.736217
0.743362
0.747692
0.7511
0.753581
0.752715
0.752209
0.754386
0.757723
0.762181
0.771775
0.783588
0.790626
0.795071
0.79863
0.799477
0.796539
0.796902
0.799909
0.803905
0.809925
0.822706
0.83487
0.841717
0.84635
0.849765
0.847713
0.843907
0.845232
0.849068
0.853979
0.863749
0.880181
0.891662
0.898479
0.903745
0.906139
0.899438
0.895545
0.898295
0.903484
0.911221
0.928698
0.947886
0.958775
0.96552
0.970899
0.967661
0.956695
0.95531
0.961323
0.969426
0.984099
1.01072
1.03116
1.04278
1.05202
1.05676
1.0432
1.03183
1.03538
1.04722
1.06424
1.09498
1.12697
1.15059
1.17017
1.18659
1.18066
1.16843
1.16686
1.18365
1.2052
2.01842
6.81064
0.640122
0.645591
0.655502
0.662758
0.666983
0.670152
0.672846
0.674624
0.674175
0.674597
0.676707
0.679579
0.685348
0.695712
0.703073
0.707437
0.710799
0.713682
0.715002
0.714047
0.714902
0.71739
0.720674
0.72765
0.738718
0.746086
0.750587
0.754157
0.757096
0.756994
0.755652
0.757203
0.76022
0.764295
0.773533
0.785623
0.793088
0.797822
0.80166
0.803955
0.801133
0.799508
0.801785
0.805602
0.811409
0.823901
0.836687
0.844135
0.849139
0.853376
0.854188
0.848429
0.846803
0.849887
0.854678
0.863573
0.880481
0.893748
0.901163
0.906639
0.911059
0.907531
0.899591
0.899288
0.903744
0.910203
0.924458
0.946596
0.960906
0.968553
0.974637
0.976809
0.965846
0.958706
0.961402
0.968541
0.978609
1.00148
1.02843
1.04468
1.05509
1.06359
1.05945
1.04185
1.03726
1.0454
1.05835
1.0808
1.1129
1.13967
1.16083
1.18024
1.19094
1.18269
1.17008
1.16986
1.17507
1.99712
6.82155
0.643488
0.648734
0.658262
0.665605
0.669788
0.672922
0.675602
0.677515
0.677272
0.677618
0.679692
0.682536
0.687768
0.698082
0.705827
0.710342
0.713785
0.71679
0.718685
0.717521
0.717552
0.719724
0.722855
0.729137
0.740478
0.74855
0.753415
0.757251
0.760661
0.761878
0.759414
0.7596
0.762189
0.765938
0.77436
0.787037
0.795182
0.800246
0.80434
0.807765
0.806707
0.802989
0.80379
0.807209
0.812277
0.824112
0.83821
0.846412
0.851626
0.856102
0.85912
0.854417
0.849839
0.851481
0.85588
0.86277
0.879008
0.895414
0.904185
0.909785
0.914476
0.914008
0.905328
0.901929
0.904811
0.910373
0.91984
0.941671
0.961733
0.971986
0.978571
0.983509
0.976979
0.964635
0.962558
0.967887
0.97582
0.990784
1.01949
1.04281
1.0561
1.06598
1.07205
1.06004
1.04527
1.04541
1.05493
1.06952
1.09692
1.12704
1.15035
1.16969
1.18742
1.19171
1.18144
1.16702
1.15048
1.9699
6.83077
0.646663
0.651553
0.660753
0.668556
0.672821
0.675959
0.678654
0.68077
0.680705
0.680635
0.682453
0.685207
0.689767
0.699914
0.708652
0.713524
0.71704
0.720096
0.722326
0.721137
0.720115
0.721867
0.724863
0.73021
0.741842
0.751411
0.756756
0.760645
0.764068
0.766074
0.763284
0.761846
0.763921
0.767431
0.774395
0.787903
0.797802
0.803356
0.807505
0.811179
0.811845
0.807254
0.806379
0.809177
0.813373
0.822542
0.838407
0.848846
0.854623
0.859173
0.862961
0.860583
0.85438
0.854383
0.858002
0.862973
0.874738
0.89423
0.906348
0.912794
0.917788
0.920337
0.913065
0.906101
0.906861
0.911711
0.91811
0.933558
0.958506
0.973905
0.981964
0.988101
0.988828
0.975002
0.966556
0.968609
0.975578
0.98445
1.00544
1.03481
1.05403
1.06594
1.07571
1.07849
1.06203
1.05012
1.05349
1.06412
1.08174
1.11076
1.13702
1.15762
1.17556
1.18905
1.18843
1.17349
1.14377
1.93265
6.83815
0.649591
0.653857
0.662296
0.671223
0.675965
0.679188
0.681901
0.684169
0.684351
0.683825
0.685256
0.68782
0.691621
0.701167
0.711253
0.716708
0.720309
0.723317
0.725652
0.724719
0.723018
0.724388
0.727276
0.731832
0.742977
0.754132
0.760064
0.763954
0.767212
0.769462
0.767155
0.764678
0.766177
0.769542
0.774979
0.787993
0.800313
0.80668
0.810911
0.814602
0.816517
0.812135
0.809583
0.811435
0.815225
0.821373
0.836606
0.850726
0.857851
0.862593
0.866745
0.866909
0.860129
0.857717
0.859906
0.864176
0.870981
0.889224
0.907138
0.915866
0.921288
0.925782
0.922814
0.912565
0.909963
0.913162
0.918652
0.927015
0.949215
0.971921
0.983392
0.990351
0.995771
0.991221
0.976375
0.97199
0.97567
0.982924
0.994114
1.02052
1.04769
1.06413
1.0752
1.0841
1.0821
1.06471
1.05664
1.06201
1.07331
1.0939
1.12282
1.14576
1.16337
1.17826
1.1857
1.17921
1.15035
1.90134
6.84555
0.652446
0.656215
0.6631
0.673197
0.678934
0.682397
0.685177
0.687597
0.6882
0.687193
0.688224
0.690624
0.693832
0.701944
0.713209
0.719547
0.72326
0.726244
0.72875
0.728455
0.726444
0.727569
0.73033
0.734032
0.743323
0.755904
0.762754
0.766688
0.769941
0.772615
0.771395
0.768315
0.769397
0.772425
0.776444
0.78667
0.801378
0.809504
0.81404
0.817769
0.82061
0.817683
0.813269
0.814172
0.817351
0.821706
0.832785
0.850486
0.860578
0.865927
0.870193
0.872774
0.867188
0.861293
0.861796
0.865282
0.87019
0.882236
0.904557
0.918476
0.925152
0.93
0.9319
0.922365
0.914309
0.914588
0.918694
0.924637
0.937438
0.964002
0.98316
0.992675
0.999708
1.0043
0.993303
0.978763
0.977451
0.982813
0.990618
1.00505
1.03381
1.05763
1.07195
1.08263
1.09087
1.08678
1.06922
1.06315
1.06947
1.08159
1.1048
1.13198
1.15188
1.16664
1.17729
1.17928
1.16241
1.88439
6.85233
0.65531
0.65871
0.663947
0.674425
0.681468
0.685405
0.688362
0.690952
0.692204
0.690915
0.691355
0.693564
0.696449
0.702541
0.714189
0.721933
0.726074
0.729216
0.731993
0.732642
0.730509
0.731082
0.733588
0.736635
0.742654
0.755636
0.76483
0.769552
0.773049
0.776159
0.77641
0.773008
0.773001
0.775521
0.778741
0.784778
0.799768
0.811442
0.817101
0.821011
0.824414
0.823877
0.818209
0.817089
0.819542
0.823235
0.829668
0.846887
0.862091
0.869159
0.873635
0.877426
0.875372
0.866553
0.864295
0.866995
0.871362
0.877848
0.896718
0.917754
0.92779
0.933447
0.937813
0.935041
0.922225
0.916937
0.919248
0.924566
0.931615
0.950698
0.978407
0.994105
1.00217
1.00835
1.00936
0.994792
0.98333
0.983898
0.989612
0.997851
1.0164
1.04579
1.06703
1.08039
1.09094
1.09706
1.08975
1.0733
1.06888
1.07548
1.08823
1.11334
1.13887
1.15582
1.16707
1.17277
1.17135
1.88286
6.85866
0.658264
0.661289
0.6652
0.675159
0.683622
0.688182
0.691389
0.694144
0.696095
0.695116
0.694743
0.696557
0.699168
0.703294
0.713939
0.723782
0.728901
0.732402
0.735451
0.737335
0.735508
0.73481
0.736403
0.738869
0.742554
0.753512
0.766132
0.772642
0.776647
0.780096
0.782121
0.778923
0.776667
0.777822
0.78048
0.784377
0.796075
0.811762
0.819754
0.824308
0.828059
0.83001
0.824759
0.820589
0.821789
0.824967
0.829237
0.840869
0.860583
0.871649
0.877242
0.881341
0.883194
0.875409
0.868867
0.869481
0.872638
0.877349
0.887383
0.910946
0.928173
0.936097
0.941801
0.945535
0.936873
0.924086
0.922329
0.925952
0.931558
0.939772
0.963523
0.988959
1.0014
1.00885
1.01563
1.01467
0.99763
0.988095
0.990344
0.997072
1.0065
1.02818
1.05582
1.07439
1.0868
1.09705
1.10233
1.09314
1.0767
1.07295
1.07914
1.09262
1.11884
1.14237
1.15655
1.16325
1.17324
1.89816
6.86497
0.661298
0.663832
0.666872
0.675672
0.68556
0.690907
0.694373
0.697261
0.699724
0.699683
0.698373
0.699409
0.701655
0.704702
0.713031
0.7251
0.731869
0.735764
0.738949
0.741643
0.740887
0.737965
0.738284
0.740683
0.743987
0.751886
0.766516
0.775494
0.780199
0.783626
0.786489
0.784921
0.779882
0.779632
0.782212
0.785777
0.79324
0.809958
0.821866
0.827581
0.831504
0.834773
0.832547
0.825435
0.824324
0.826895
0.830594
0.836675
0.854503
0.872034
0.879887
0.884729
0.8887
0.886812
0.876303
0.872131
0.873846
0.877763
0.88336
0.89933
0.923952
0.937439
0.944137
0.949329
0.951172
0.939537
0.928832
0.92814
0.931362
0.936759
0.948079
0.975777
0.998824
1.01006
1.0173
1.0227
1.01857
1.00233
0.995012
0.997626
1.00408
1.01466
1.03887
1.06464
1.0814
1.09307
1.10279
1.10672
1.09597
1.07934
1.07551
1.08082
1.09462
1.12099
1.14254
1.15297
1.16789
1.92546
6.87263
0.664241
0.66638
0.668992
0.676257
0.687276
0.693706
0.697432
0.700431
0.70313
0.704165
0.702023
0.701982
0.703945
0.706731
0.712654
0.725484
0.734453
0.738991
0.742229
0.745089
0.74571
0.741758
0.741056
0.743331
0.746475
0.751647
0.765003
0.777148
0.782899
0.786477
0.789473
0.790243
0.784923
0.782693
0.784899
0.788331
0.792666
0.805473
0.822064
0.83024
0.834729
0.838356
0.839871
0.83301
0.827998
0.829027
0.832106
0.836262
0.846584
0.86799
0.881769
0.888306
0.892912
0.895808
0.888061
0.877588
0.876265
0.879294
0.883872
0.890796
0.911696
0.934779
0.94586
0.952162
0.957691
0.956661
0.940953
0.931599
0.932707
0.937499
0.943756
0.957815
0.986518
1.00683
1.01683
1.02422
1.03034
1.02439
1.00666
0.999966
1.00342
1.01053
1.02287
1.04855
1.07238
1.08776
1.09897
1.10803
1.11123
1.09844
1.08061
1.07616
1.08044
1.09414
1.12039
1.13816
1.15778
1.9593
6.88065
0.667137
0.669045
0.671466
0.676955
0.688419
0.696504
0.700629
0.703723
0.706483
0.7082
0.705949
0.704766
0.706426
0.709094
0.713213
0.724563
0.736135
0.741783
0.745226
0.748167
0.750026
0.747041
0.744906
0.746532
0.749282
0.752523
0.761459
0.776322
0.784485
0.788925
0.792589
0.795444
0.792591
0.787831
0.788313
0.790825
0.793991
0.800653
0.818238
0.83164
0.837721
0.841689
0.845163
0.84275
0.833856
0.831568
0.833827
0.837483
0.842614
0.858552
0.879839
0.89013
0.895506
0.899807
0.900931
0.890055
0.881576
0.88159
0.884511
0.889251
0.89924
0.924399
0.944785
0.953902
0.959355
0.963586
0.960389
0.944974
0.93781
0.93935
0.943867
0.950545
0.968108
0.997455
1.01593
1.02511
1.03166
1.03558
1.02757
1.01133
1.00577
1.00913
1.01625
1.03067
1.0579
1.08048
1.0945
1.10448
1.1125
1.11447
1.10036
1.08111
1.07521
1.07801
1.09248
1.11595
1.1411
1.99218
6.88529
0.670195
0.67184
0.674119
0.677949
0.688421
0.698826
0.703895
0.707111
0.709864
0.711918
0.710242
0.708
0.709145
0.711629
0.714738
0.722746
0.736262
0.744048
0.748204
0.75148
0.754314
0.75358
0.749743
0.749523
0.751215
0.753852
0.758821
0.773278
0.78631
0.792496
0.796368
0.799844
0.800587
0.794412
0.791263
0.792213
0.795006
0.798976
0.811113
0.830468
0.840442
0.845436
0.849123
0.851077
0.84339
0.835957
0.836064
0.838901
0.842801
0.849911
0.870757
0.889814
0.898292
0.903621
0.907907
0.905018
0.890819
0.884547
0.88642
0.890495
0.895471
0.907637
0.934373
0.952166
0.96024
0.966528
0.971582
0.965325
0.948646
0.942784
0.945492
0.950773
0.95756
0.976644
1.00499
1.02113
1.02967
1.03682
1.04195
1.03328
1.01625
1.01088
1.01448
1.02194
1.03817
1.06557
1.0865
1.09944
1.10891
1.11618
1.11747
1.10232
1.0809
1.07238
1.07447
1.08766
1.1187
2.01484
6.8849
0.673445
0.674577
0.676693
0.679614
0.687535
0.700111
0.706979
0.710459
0.713161
0.715443
0.715039
0.711975
0.712079
0.714117
0.716784
0.721475
0.734552
0.746078
0.751545
0.75499
0.758042
0.759412
0.754759
0.751623
0.752835
0.755681
0.7594
0.769608
0.786491
0.795685
0.800257
0.803591
0.806065
0.801382
0.794308
0.794096
0.796814
0.800285
0.806323
0.824251
0.841153
0.848467
0.852782
0.856283
0.85489
0.84419
0.839265
0.840609
0.843851
0.848146
0.859082
0.883008
0.898935
0.905824
0.910379
0.913819
0.908248
0.894662
0.890314
0.891769
0.895339
0.900765
0.917394
0.94541
0.961393
0.968567
0.973666
0.977343
0.969655
0.954109
0.949033
0.95081
0.955136
0.962524
0.985117
1.01346
1.02911
1.03766
1.04442
1.04754
1.03791
1.02167
1.01619
1.01908
1.02577
1.04305
1.07134
1.09199
1.10425
1.11279
1.11896
1.1193
1.10415
1.08024
1.06792
1.06678
1.09188
2.0154
6.8837
0.676911
0.677268
0.679224
0.681943
0.687112
0.699549
0.709007
0.713454
0.716351
0.718888
0.720053
0.716873
0.715071
0.716433
0.71901
0.722387
0.731808
0.746588
0.754401
0.758323
0.761191
0.763407
0.760481
0.755135
0.755475
0.758254
0.761565
0.767101
0.78244
0.796581
0.802813
0.806368
0.809336
0.808774
0.800775
0.797414
0.799298
0.802595
0.80627
0.815683
0.836589
0.850165
0.856297
0.860325
0.863147
0.856604
0.845357
0.843337
0.846111
0.849837
0.8543
0.868435
0.893029
0.906473
0.912922
0.91804
0.92125
0.911191
0.896776
0.89406
0.897455
0.902191
0.907946
0.926468
0.953396
0.967137
0.974122
0.980317
0.984171
0.973859
0.957313
0.952651
0.956079
0.961778
0.970722
0.995012
1.02117
1.03501
1.04317
1.05007
1.0537
1.04342
1.02562
1.01935
1.02224
1.02923
1.04728
1.07569
1.09589
1.10746
1.11525
1.12026
1.11973
1.10506
1.07973
1.06068
1.06506
1.9906
6.8792
0.680985
0.680441
0.682124
0.68468
0.687857
0.697158
0.709636
0.715957
0.719399
0.722121
0.724344
0.722642
0.718799
0.719241
0.721673
0.724607
0.729938
0.74391
0.755596
0.760783
0.763983
0.766837
0.767031
0.761364
0.759559
0.761505
0.764269
0.767309
0.775584
0.793376
0.804187
0.809314
0.812841
0.815697
0.81147
0.803575
0.802693
0.804943
0.807993
0.812025
0.825755
0.84723
0.858011
0.863326
0.867252
0.868623
0.858966
0.849778
0.84913
0.851292
0.854794
0.86041
0.87906
0.903007
0.914571
0.920201
0.924105
0.925912
0.91519
0.903006
0.90118
0.903359
0.907262
0.914007
0.936175
0.962422
0.975049
0.981365
0.985897
0.98866
0.979233
0.964523
0.960708
0.963311
0.9683
0.978119
1.00363
1.02805
1.04093
1.04869
1.05484
1.05775
1.04831
1.03097
1.02408
1.02596
1.03218
1.04985
1.07824
1.0982
1.10911
1.11594
1.11993
1.1188
1.10512
1.07445
1.05388
1.9405
6.87496
0.686046
0.684548
0.685208
0.687267
0.689705
0.694812
0.707946
0.717827
0.722365
0.725219
0.727732
0.728472
0.724373
0.722912
0.724651
0.727221
0.730183
0.738791
0.754444
0.763082
0.767337
0.770427
0.772913
0.769808
0.764405
0.763915
0.765538
0.768381
0.772573
0.785902
0.803959
0.812586
0.81703
0.820465
0.821257
0.812575
0.806179
0.806554
0.809162
0.812505
0.818119
0.836365
0.856432
0.865524
0.870614
0.874657
0.87369
0.8605
0.852381
0.853342
0.857017
0.860983
0.867151
0.888029
0.910499
0.920434
0.926194
0.931476
0.932616
0.918663
0.906102
0.905139
0.90907
0.913932
0.921151
0.94361
0.967806
0.97931
0.986434
0.992807
0.996174
0.985797
0.969982
0.965335
0.968108
0.973292
0.983647
1.0094
1.03271
1.0449
1.05282
1.05995
1.06458
1.05528
1.036
1.02751
1.0288
1.03417
1.0506
1.07872
1.09869
1.10919
1.11546
1.11835
1.1173
1.0993
1.06631
1.88823
6.87508
0.691391
0.689966
0.688281
0.689693
0.692024
0.695024
0.704257
0.717736
0.724494
0.728072
0.730954
0.733471
0.731865
0.727551
0.72736
0.729132
0.731731
0.735991
0.749468
0.764088
0.770603
0.774072
0.776969
0.777714
0.770888
0.766606
0.767817
0.77069
0.774009
0.780108
0.797776
0.813576
0.8204
0.824012
0.826697
0.823893
0.813319
0.809376
0.811109
0.814419
0.818099
0.825523
0.846675
0.864592
0.872254
0.876821
0.880305
0.877546
0.864545
0.858669
0.859525
0.861965
0.865919
0.87411
0.897954
0.91901
0.928099
0.932954
0.936566
0.936875
0.924019
0.913245
0.912251
0.914571
0.918681
0.926973
0.952201
0.976622
0.98777
0.993772
0.9987
1.00147
0.991099
0.975058
0.969825
0.972099
0.977217
0.988139
1.01552
1.04037
1.0529
1.05995
1.06605
1.06941
1.06023
1.04051
1.03033
1.03063
1.03542
1.05044
1.0782
1.09845
1.10865
1.11377
1.11627
1.11158
1.09531
1.86129
6.87913
0.695612
0.696484
0.692321
0.692466
0.694318
0.696716
0.70134
0.714769
0.726173
0.731323
0.734416
0.737243
0.738649
0.733733
0.730413
0.731511
0.734026
0.736935
0.743738
0.760523
0.772113
0.777162
0.78026
0.783091
0.780587
0.772649
0.771357
0.773648
0.776603
0.779698
0.787618
0.807414
0.820513
0.826303
0.830065
0.832878
0.82691
0.81657
0.814852
0.817221
0.82024
0.823647
0.83245
0.85537
0.871655
0.878647
0.883532
0.887507
0.882414
0.867628
0.862077
0.864172
0.868041
0.872165
0.880746
0.905207
0.9244
0.932531
0.9383
0.943575
0.943496
0.929028
0.917342
0.916504
0.920376
0.925429
0.934079
0.958826
0.981374
0.991768
0.998249
1.00409
1.00743
0.99633
0.979963
0.975006
0.977781
0.983218
0.994319
1.02079
1.04438
1.0565
1.06383
1.07001
1.07375
1.06553
1.04549
1.03353
1.03248
1.03617
1.0495
1.07667
1.09688
1.1065
1.11152
1.11064
1.11522
1.86499
6.88553
0.699049
0.702303
0.697898
0.695479
0.696573
0.698808
0.701662
0.710237
0.725587
0.733875
0.737781
0.740676
0.743276
0.741558
0.735408
0.734458
0.736312
0.738861
0.74206
0.752561
0.770448
0.779678
0.784169
0.787316
0.789266
0.782976
0.776476
0.776251
0.777715
0.780072
0.783647
0.795422
0.816785
0.828599
0.83419
0.83829
0.839744
0.830518
0.821178
0.820011
0.821666
0.824641
0.828753
0.840973
0.86479
0.879267
0.885692
0.889923
0.892888
0.886935
0.873568
0.869119
0.870002
0.872464
0.876718
0.887913
0.914075
0.932385
0.940165
0.944775
0.948593
0.948923
0.936068
0.925044
0.923558
0.925397
0.92934
0.938828
0.965337
0.988085
0.998579
1.00471
1.00994
1.01324
1.00412
0.988106
0.981779
0.982713
0.986403
0.995737
1.02221
1.04742
1.06047
1.06788
1.07387
1.07843
1.07237
1.0514
1.03635
1.03344
1.03597
1.04701
1.07357
1.09383
1.1041
1.1055
1.12205
1.89175
6.8932
0.702364
0.706553
0.704452
0.699531
0.699203
0.701063
0.703533
0.707742
0.721159
0.734937
0.740979
0.744194
0.746985
0.748506
0.743001
0.738095
0.738427
0.740507
0.743237
0.747792
0.763015
0.780121
0.787555
0.791393
0.794378
0.793909
0.784244
0.778466
0.779078
0.781679
0.784885
0.789884
0.806503
0.827348
0.837047
0.841849
0.845575
0.845145
0.832245
0.82337
0.823798
0.827115
0.830676
0.834753
0.848628
0.87246
0.885384
0.891392
0.896417
0.899918
0.891842
0.876632
0.872103
0.874638
0.878766
0.883406
0.89498
0.920197
0.937079
0.944798
0.950778
0.95583
0.955755
0.94121
0.928427
0.926693
0.930328
0.935462
0.945451
0.97075
0.992605
1.00365
1.01102
1.01736
1.0208
1.01105
0.992277
0.983632
0.984659
0.989329
0.999148
1.02482
1.05121
1.06557
1.07319
1.07883
1.0825
1.07759
1.05597
1.03772
1.03278
1.03458
1.04417
1.0696
1.09038
1.09792
1.12048
1.93343
6.90181
0.705497
0.710028
0.710469
0.705225
0.702307
0.703396
0.705666
0.708472
0.71599
0.732629
0.743154
0.747692
0.75054
0.753086
0.751647
0.743743
0.741073
0.742624
0.745311
0.74837
0.755268
0.774003
0.788585
0.794691
0.79816
0.800664
0.79638
0.785187
0.78217
0.784392
0.787764
0.791173
0.796973
0.815975
0.834506
0.842251
0.846669
0.850188
0.848624
0.836091
0.829639
0.830162
0.83216
0.835314
0.840324
0.857137
0.880721
0.892619
0.898096
0.901622
0.904032
0.896803
0.883626
0.879785
0.881004
0.883706
0.888167
0.901296
0.927814
0.944663
0.951797
0.955978
0.959812
0.960869
0.948363
0.935958
0.933697
0.93565
0.939828
0.949854
0.97675
0.999826
1.01065
1.01647
1.02083
1.02435
1.0176
0.999683
0.990331
0.990245
0.993783
1.00225
1.02664
1.05366
1.06859
1.07617
1.08131
1.08431
1.08078
1.06082
1.0399
1.03236
1.03276
1.04067
1.06563
1.08252
1.11101
1.97797
6.90637
0.708444
0.713265
0.714949
0.712039
0.706385
0.706101
0.708216
0.710845
0.714488
0.726221
0.742583
0.750262
0.753899
0.756532
0.758359
0.752768
0.74566
0.745383
0.747576
0.750362
0.753791
0.763722
0.783915
0.795889
0.801174
0.804655
0.806547
0.798934
0.789337
0.788295
0.790034
0.792244
0.795301
0.802584
0.823861
0.841263
0.848672
0.853483
0.857305
0.853883
0.839569
0.832704
0.834063
0.83761
0.841302
0.846213
0.863882
0.886609
0.897201
0.902798
0.907862
0.910958
0.902515
0.887776
0.883183
0.885564
0.889633
0.894217
0.906688
0.931963
0.947764
0.955434
0.961705
0.966854
0.967787
0.954396
0.940323
0.937559
0.940917
0.946012
0.955214
0.979642
1.00173
1.01242
1.01968
1.02627
1.03104
1.02569
1.00684
0.995231
0.994213
0.997583
1.0039
1.02573
1.05343
1.06909
1.07676
1.0822
1.08638
1.08526
1.06654
1.04224
1.03113
1.02967
1.0368
1.05735
1.09228
2.01347
6.90391
0.710523
0.716266
0.718179
0.718564
0.712973
0.710006
0.711284
0.713629
0.716155
0.720962
0.736189
0.750761
0.756839
0.760079
0.762684
0.762267
0.753596
0.749081
0.750116
0.752597
0.755387
0.759291
0.772254
0.792602
0.803105
0.808031
0.811404
0.811813
0.801356
0.791951
0.790887
0.793312
0.796484
0.800362
0.810593
0.833609
0.849323
0.855918
0.859911
0.862744
0.857845
0.84453
0.839306
0.840224
0.842381
0.845802
0.851937
0.872203
0.894386
0.904365
0.909181
0.912451
0.914945
0.908376
0.895074
0.890415
0.891022
0.893427
0.897957
0.912428
0.9397
0.955952
0.962821
0.9671
0.971061
0.973033
0.962116
0.948165
0.94406
0.944948
0.948281
0.956611
0.982313
1.00805
1.02045
1.02674
1.03191
1.03597
1.03221
1.01417
1
0.996826
0.999681
1.00506
1.02412
1.05318
1.07159
1.08019
1.08487
1.08795
1.08758
1.07192
1.04509
1.02868
1.02563
1.02929
1.06741
2.02879
6.89763
0.711136
0.719011
0.721298
0.723756
0.722095
0.715977
0.714645
0.716095
0.718296
0.721012
0.728094
0.745744
0.758125
0.763289
0.766046
0.768449
0.765183
0.756015
0.753504
0.755025
0.757604
0.760425
0.764833
0.780584
0.800407
0.809393
0.813939
0.81694
0.816121
0.804257
0.796002
0.796427
0.799686
0.803339
0.807137
0.818117
0.840689
0.854447
0.860417
0.864682
0.868353
0.863525
0.849084
0.843081
0.844806
0.848556
0.852416
0.858403
0.878275
0.898757
0.907979
0.91354
0.918593
0.921917
0.914772
0.899493
0.893545
0.895555
0.899881
0.905331
0.919179
0.943767
0.958832
0.966448
0.97278
0.97808
0.980189
0.968436
0.95179
0.946421
0.94902
0.954054
0.96284
0.98611
1.01072
1.02338
1.03041
1.03604
1.04108
1.03865
1.02043
1.00446
1.00018
1.00229
1.00732
1.02442
1.05281
1.07181
1.08071
1.08548
1.08838
1.08829
1.07599
1.04881
1.02837
1.01663
1.03931
2.01291
6.88586
0.709497
0.721989
0.724999
0.727674
0.729524
0.724701
0.718942
0.718888
0.720927
0.723356
0.72629
0.735038
0.753607
0.764736
0.769803
0.77279
0.7747
0.768039
0.759276
0.758005
0.759724
0.762094
0.765019
0.770558
0.788557
0.806912
0.81492
0.819528
0.823277
0.822267
0.810377
0.803466
0.803848
0.805601
0.807848
0.811516
0.823665
0.846496
0.860122
0.86617
0.870072
0.873126
0.86925
0.856468
0.851197
0.851804
0.853508
0.856767
0.863547
0.884679
0.905437
0.91494
0.919692
0.923087
0.926784
0.922264
0.90848
0.902752
0.903116
0.904955
0.909098
0.922412
0.948793
0.966058
0.973637
0.977804
0.981655
0.98516
0.976941
0.961442
0.955634
0.956067
0.958635
0.964392
0.985479
1.01321
1.02854
1.0358
1.04071
1.04471
1.04416
1.02912
1.01188
1.00534
1.00598
1.00906
1.0215
1.0496
1.07075
1.08028
1.08486
1.08775
1.08841
1.07948
1.05364
1.02391
1.02111
1.96287
6.87122
0.704482
0.723077
0.728456
0.731429
0.734054
0.734229
0.726918
0.723064
0.723805
0.725507
0.727419
0.730525
0.741811
0.761854
0.772296
0.776967
0.77979
0.780285
0.770667
0.762709
0.762165
0.764306
0.766955
0.769739
0.775798
0.795805
0.814153
0.822024
0.826248
0.82989
0.827629
0.814246
0.806329
0.806254
0.808776
0.811815
0.815965
0.829578
0.852638
0.86566
0.871604
0.876392
0.880003
0.875388
0.860645
0.853833
0.855148
0.858651
0.862595
0.869159
0.888786
0.908916
0.918691
0.925212
0.930579
0.934311
0.929201
0.913351
0.90483
0.905555
0.909446
0.914615
0.926717
0.950688
0.967653
0.976493
0.984009
0.989736
0.993279
0.985784
0.96792
0.958056
0.958149
0.962205
0.968539
0.986907
1.01378
1.0306
1.03879
1.04442
1.04967
1.05164
1.03894
1.01815
1.0074
1.00641
1.00938
1.01982
1.04629
1.0688
1.07973
1.08459
1.08723
1.08732
1.0812
1.05259
1.02489
1.89779
6.86535
0.699003
0.718824
0.730397
0.735341
0.73821
0.740657
0.737884
0.729052
0.725834
0.726713
0.728952
0.731591
0.735854
0.750463
0.7701
0.779281
0.783827
0.786804
0.785504
0.774132
0.767166
0.766923
0.768283
0.77066
0.774071
0.782415
0.804172
0.820721
0.827589
0.831653
0.834479
0.831765
0.818424
0.810915
0.81113
0.813792
0.817129
0.821855
0.837007
0.86017
0.872488
0.877709
0.880717
0.883143
0.880173
0.867724
0.861426
0.861571
0.863204
0.866567
0.873241
0.894679
0.91681
0.92678
0.931678
0.934734
0.937769
0.934639
0.919766
0.911528
0.911489
0.913797
0.917828
0.928328
0.954635
0.97584
0.985207
0.990403
0.994419
0.997843
0.992525
0.975107
0.964706
0.963713
0.965915
0.970239
0.984606
1.01364
1.03468
1.0443
1.04943
1.05363
1.05527
1.04541
1.0246
1.01134
1.00853
1.01023
1.01711
1.04143
1.06618
1.07851
1.08354
1.08554
1.08621
1.07728
1.05635
1.85359
6.86345
0.698039
0.709613
0.728479
0.738149
0.742202
0.744812
0.746254
0.739023
0.730077
0.72898
0.730955
0.733627
0.736505
0.741757
0.758803
0.777843
0.786337
0.790636
0.793515
0.790298
0.776935
0.769688
0.770202
0.772958
0.775969
0.779446
0.788434
0.810268
0.825774
0.832175
0.836839
0.840504
0.837842
0.824558
0.817234
0.817613
0.820167
0.823202
0.827555
0.84217
0.864044
0.875405
0.881101
0.886148
0.890158
0.8876
0.873684
0.864901
0.865099
0.86851
0.872735
0.879176
0.898465
0.918927
0.92872
0.934331
0.939215
0.943484
0.94177
0.927235
0.916405
0.915503
0.919189
0.924049
0.933182
0.956358
0.976676
0.986661
0.992699
0.997728
1.00231
0.999702
0.983436
0.969711
0.966746
0.969903
0.97493
0.987323
1.01411
1.0359
1.04604
1.0514
1.05565
1.05853
1.05219
1.03126
1.01424
1.0091
1.01008
1.0154
1.03708
1.06272
1.07637
1.08144
1.08399
1.08114
1.08628
1.85192
6.86718
0.70025
0.705187
0.718991
0.736798
0.744858
0.748547
0.750858
0.749814
0.739356
0.733247
0.733767
0.735893
0.738411
0.741431
0.747904
0.767038
0.784803
0.792372
0.796517
0.799261
0.794377
0.780895
0.775327
0.776083
0.777936
0.780403
0.784198
0.795082
0.818079
0.833168
0.839334
0.842993
0.846371
0.843241
0.829604
0.822255
0.821949
0.823694
0.826817
0.831754
0.847768
0.870818
0.882919
0.888245
0.891908
0.89494
0.893042
0.881309
0.873118
0.872169
0.873189
0.876019
0.881852
0.901108
0.923782
0.935672
0.941454
0.946048
0.950327
0.949553
0.936586
0.925712
0.923409
0.923761
0.926216
0.932961
0.95508
0.979328
0.9923
0.998809
1.0038
1.00843
1.00848
0.994355
0.979327
0.974427
0.974769
0.977069
0.984753
1.00945
1.03472
1.04759
1.0538
1.05813
1.06147
1.05864
1.03974
1.0195
1.01118
1.01044
1.0132
1.03097
1.05757
1.07266
1.07951
1.0785
1.0984
1.87769
6.87421
0.703214
0.706402
0.710923
0.726902
0.743618
0.750727
0.754328
0.75639
0.752857
0.741674
0.737417
0.738732
0.741429
0.744196
0.747214
0.753944
0.773533
0.790388
0.797367
0.801189
0.804263
0.799941
0.786087
0.779635
0.780556
0.7836
0.787119
0.791234
0.802048
0.823921
0.8376
0.843531
0.847385
0.850156
0.847993
0.835133
0.826858
0.826783
0.829725
0.833698
0.838917
0.853942
0.875239
0.886557
0.892242
0.896723
0.900839
0.900525
0.888222
0.876801
0.874876
0.877738
0.88188
0.888259
0.905848
0.928357
0.941143
0.947791
0.952283
0.956353
0.957243
0.944751
0.92971
0.92461
0.926349
0.930558
0.937536
0.957304
0.982794
0.997915
1.0053
1.01004
1.01459
1.01611
1.00306
0.984004
0.975021
0.974931
0.978454
0.985485
1.00745
1.03492
1.05031
1.05719
1.06167
1.06534
1.06463
1.04737
1.0233
1.01099
1.00884
1.01073
1.02538
1.05178
1.06926
1.07358
1.09962
1.92312
6.88183
0.705568
0.708105
0.710604
0.716553
0.7337
0.749617
0.756515
0.760224
0.762373
0.756781
0.746017
0.743369
0.744797
0.746654
0.748871
0.752046
0.759518
0.779183
0.795227
0.80213
0.80581