/*--------------------------------*- C++ -*----------------------------------*\
  =========                 |
  \\      /  F ield         | OpenFOAM: The Open Source CFD Toolbox
   \\    /   O peration     | Website:  https://openfoam.org
    \\  /    A nd           | Version:  12
     \\/     M anipulation  |
\*---------------------------------------------------------------------------*/
FoamFile
{
    format      ascii;
    class       surfaceScalarField;
    location    "7";
    object      phi;
}
// * * * * * * * * * * * * * * * * * * * * * * * * * * * * * * * * * * * * * //

dimensions      [1 0 -1 0 0 0 0];

internalField   nonuniform List<scalar> 
19404
(
-0.000118924
1.72437e-07
-0.000119138
4.73631e-08
-0.000120765
9.14226e-08
-0.000122173
2.22997e-07
-0.000122555
3.33613e-07
-0.000122533
3.29527e-07
-0.000122296
2.44655e-07
-0.000121927
2.04322e-07
-0.000121622
2.76518e-07
-0.000121431
2.59427e-07
-0.00012133
2.19156e-07
-0.000121306
1.34667e-07
-0.000121967
9.84402e-08
-0.000123795
1.62154e-07
-0.000124842
3.39087e-07
-0.000125049
3.98211e-07
-0.000124918
3.33531e-07
-0.000124492
2.01895e-07
-0.000124092
2.2327e-07
-0.000123832
2.45999e-07
-0.00012371
2.21377e-07
-0.000123636
1.5364e-07
-0.000123734
7.20206e-08
-0.000125035
8.82423e-08
-0.000126909
2.44158e-07
-0.00012762
3.90979e-07
-0.000127696
4.14741e-07
-0.000127383
2.86647e-07
-0.00012675
1.76392e-07
-0.000126314
2.79796e-07
-0.000126105
3.00647e-07
-0.000126021
2.44736e-07
-0.000125992
1.66614e-07
-0.000126364
6.03003e-08
-0.000128314
8.42174e-08
-0.000129892
2.44105e-07
-0.000130299
3.48967e-07
-0.000130241
3.14432e-07
-0.000129632
1.26081e-07
-0.000128841
1.62844e-07
-0.000128363
3.3345e-07
-0.000128211
3.74362e-07
-0.000128169
2.76496e-07
-0.000128206
1.6403e-07
-0.000129301
5.78307e-08
-0.000131796
1.66228e-07
-0.00013283
3.19825e-07
-0.000132929
3.22825e-07
-0.000132507
1.52582e-07
-0.000131454
-1.83767e-08
-0.000130561
1.65178e-07
-0.000130132
3.16534e-07
-0.00013
3.27166e-07
-0.000130016
2.44477e-07
-0.000130341
1.09844e-07
-0.000132902
8.78179e-08
-0.00013516
2.81509e-07
-0.000135578
3.26805e-07
-0.000135412
2.46894e-07
-0.000134022
-3.17647e-08
-0.000132504
-6.68292e-08
-0.000131681
1.31581e-07
-0.000131416
2.88781e-07
-0.000131396
2.77591e-07
-0.00013152
1.08549e-07
-0.000133443
5.32589e-08
-0.000136728
1.62907e-07
-0.000137985
3.17339e-07
-0.000138133
3.38306e-07
-0.000137158
1.46536e-07
-0.000134209
-9.39924e-08
-0.000132449
-1.45688e-08
-0.000131931
6.4649e-08
-0.000131897
1.33529e-07
-0.000132002
-5.22223e-08
-0.000133656
-7.79239e-08
-0.000137814
-9.73017e-08
-0.000139996
4.03162e-07
-0.000140365
4.46699e-07
-0.00013999
3.79748e-07
-0.00013647
-5.59509e-08
-0.000132452
-3.09788e-07
-0.000130664
-3.70823e-07
-0.00013054
-2.83664e-07
-0.000130736
-7.52375e-08
-0.000134372
-6.35747e-08
-0.000139888
-1.60404e-07
-0.000141651
2.79397e-08
-0.000142006
4.44779e-07
-0.000141691
5.38572e-07
-0.000138141
3.96312e-07
-0.000130766
-2.52462e-08
-0.000125521
-2.87255e-07
-0.00012528
-3.22519e-07
-0.000127544
-4.52532e-07
-0.000133735
-2.2645e-06
-0.000134295
-4.56004e-06
-0.000110416
-1.55742e-05
1.53738e-05
-0.000127415
2.64744e-07
-0.000128102
1.96885e-07
-0.000129722
3.13678e-07
-0.000130498
3.38992e-07
-0.000130702
3.98956e-07
-0.000130647
4.15667e-07
-0.000130417
3.55655e-07
-0.000129626
3.233e-07
-0.000128913
3.05407e-07
-0.000128574
2.72488e-07
-0.000128441
2.95593e-07
-0.000128422
2.31282e-07
-0.000129367
2.44345e-07
-0.000130952
3.54631e-07
-0.000131619
4.32257e-07
-0.000131742
4.74757e-07
-0.000131668
4.46444e-07
-0.000131267
3.54056e-07
-0.000130255
3.11078e-07
-0.000129695
2.69578e-07
-0.000129445
2.43128e-07
-0.000129349
2.25109e-07
-0.000129464
1.86343e-07
-0.00013078
2.35724e-07
-0.000132235
3.63975e-07
-0.000132749
4.71767e-07
-0.000132802
4.96679e-07
-0.000132695
4.22379e-07
-0.000131827
3.4888e-07
-0.000130812
3.15553e-07
-0.000130396
2.9735e-07
-0.000130249
2.81738e-07
-0.000130202
2.44352e-07
-0.000130588
1.70359e-07
-0.000132408
2.27704e-07
-0.000133658
3.51971e-07
-0.00013398
4.54493e-07
-0.000133978
4.44352e-07
-0.000133613
3.3027e-07
-0.000132129
2.91801e-07
-0.000131272
2.88921e-07
-0.000130986
3.41679e-07
-0.000130922
3.14443e-07
-0.000130955
2.4768e-07
-0.000132031
1.69657e-07
-0.00013425
2.8824e-07
-0.000135155
4.18258e-07
-0.000135282
4.60682e-07
-0.000135215
3.61594e-07
-0.000133925
2.34019e-07
-0.000132302
1.94104e-07
-0.000131738
2.49421e-07
-0.000131574
2.75945e-07
-0.00013156
2.97164e-07
-0.000131833
1.9237e-07
-0.00013419
1.65753e-07
-0.000136236
3.47133e-07
-0.000136717
4.44158e-07
-0.00013674
4.40214e-07
-0.000136031
2.83194e-07
-0.000133627
1.76271e-07
-0.000132437
9.6897e-08
-0.000132099
1.60166e-07
-0.000131998
2.3302e-07
-0.000132084
1.67422e-07
-0.000133851
8.23341e-08
-0.00013709
2.27472e-07
-0.000138212
4.17991e-07
-0.000138328
5.10929e-07
-0.000138094
4.10763e-07
-0.00013542
2.68653e-07
-0.000132898
9.24605e-08
-0.000132166
-7.2791e-08
-0.000132017
-5.73688e-08
-0.000132133
-9.49864e-08
-0.000133863
-1.64311e-07
-0.000137935
7.64349e-08
-0.000139778
4.58822e-07
-0.000140154
6.39859e-07
-0.000140139
5.85034e-07
-0.000137921
3.85373e-07
-0.000132959
-7.64361e-08
-0.000131039
-5.16621e-07
-0.000130659
-4.72057e-07
-0.00013084
-6.77717e-07
-0.000133351
-7.10858e-07
-0.000137822
-4.50065e-07
-0.000139997
5.92399e-08
-0.000140559
3.98602e-07
-0.000140691
4.10207e-07
-0.000138201
3.31088e-07
-0.000130992
-4.90397e-07
-0.000124569
-1.33085e-06
-0.000122514
-1.89375e-06
-0.000122904
-2.47117e-06
-0.000126379
-5.35672e-06
-0.000127608
-8.58993e-06
-0.000120601
-1.65101e-05
1.9667e-05
-0.000126878
3.39193e-07
-0.000127596
3.0848e-07
-0.000129177
4.51638e-07
-0.000129921
5.05403e-07
-0.000130133
4.99248e-07
-0.000130107
4.85922e-07
-0.000129923
4.40578e-07
-0.000129206
4.04883e-07
-0.00012842
3.82867e-07
-0.000128055
3.8196e-07
-0.000127869
3.6729e-07
-0.000127852
3.51703e-07
-0.000128756
3.65983e-07
-0.00013035
4.90225e-07
-0.000131029
5.28372e-07
-0.000131193
5.34095e-07
-0.000131142
5.02886e-07
-0.000130859
4.52118e-07
-0.000129912
3.94776e-07
-0.000129232
3.68268e-07
-0.000128932
3.47652e-07
-0.000128817
3.49702e-07
-0.000128862
3.23017e-07
-0.000130073
3.64087e-07
-0.000131614
5.0655e-07
-0.000132157
5.36934e-07
-0.000132254
5.33387e-07
-0.0001322
5.02851e-07
-0.000131501
4.37664e-07
-0.00013047
3.98566e-07
-0.000130007
3.59926e-07
-0.000129812
3.50789e-07
-0.000129735
3.43555e-07
-0.000129985
3.06729e-07
-0.000131737
3.90478e-07
-0.000133074
5.24771e-07
-0.000133425
5.59653e-07
-0.000133444
5.28424e-07
-0.00013314
4.48725e-07
-0.000131787
4.10938e-07
-0.000130991
3.16387e-07
-0.000130676
2.93995e-07
-0.000130546
3.04618e-07
-0.000130527
3.1158e-07
-0.00013137
2.97126e-07
-0.000133614
4.58454e-07
-0.0001346
5.67945e-07
-0.000134778
5.99216e-07
-0.000134724
5.28482e-07
-0.000133542
4.3146e-07
-0.000131964
3.09449e-07
-0.000131367
1.94643e-07
-0.000131177
1.85309e-07
-0.000131136
2.11491e-07
-0.000131366
2.3377e-07
-0.000133506
2.84918e-07
-0.000135606
4.80413e-07
-0.00013616
5.96819e-07
-0.000136217
6.32416e-07
-0.000135678
5.30685e-07
-0.000133317
4.2552e-07
-0.000131916
1.78522e-07
-0.000131497
4.06429e-08
-0.000131393
5.24793e-08
-0.000131475
8.25342e-08
-0.000133056
1.25e-07
-0.000136212
3.09996e-07
-0.000137495
5.50265e-07
-0.000137712
6.72188e-07
-0.00013763
6.17266e-07
-0.000135528
5.35133e-07
-0.00013241
1.66777e-07
-0.000131277
-1.16553e-07
-0.000131064
-2.21938e-07
-0.000131103
-2.5699e-07
-0.000132393
-2.74252e-07
-0.000136235
5.62604e-09
-0.000138369
4.72743e-07
-0.000138927
7.42202e-07
-0.000139034
7.51853e-07
-0.000137773
6.55817e-07
-0.000132613
1.95844e-07
-0.000129707
-4.99145e-07
-0.000129309
-1.01336e-06
-0.00012937
-1.12238e-06
-0.000130458
-1.27603e-06
-0.000134564
-1.03985e-06
-0.000137766
-3.94342e-07
-0.000138721
5.46813e-08
-0.000138927
1.56e-07
-0.000137274
4.96178e-08
-0.000130927
-5.91222e-07
-0.000125421
-2.05806e-06
-0.000122413
-3.08234e-06
-0.000121795
-4.30473e-06
-0.000123682
-7.21059e-06
-0.000125525
-1.09719e-05
-0.000122913
-1.6102e-05
2.22951e-05
-0.000125937
3.94601e-07
-0.000126834
4.02136e-07
-0.000128413
5.52665e-07
-0.000129046
6.11206e-07
-0.000129196
6.00051e-07
-0.000129166
5.7509e-07
-0.000129037
5.3717e-07
-0.000128435
4.94815e-07
-0.000127493
5.15906e-07
-0.000127042
5.12593e-07
-0.00012688
4.8695e-07
-0.000126864
4.1239e-07
-0.000127904
4.41887e-07
-0.000129472
5.61106e-07
-0.000130123
6.27307e-07
-0.000130259
5.99552e-07
-0.000130237
5.86125e-07
-0.000130054
5.32366e-07
-0.000129149
5.04987e-07
-0.000128291
5.31811e-07
-0.000127954
4.93761e-07
-0.000127826
4.48535e-07
-0.00012791
4.02224e-07
-0.000129216
4.54568e-07
-0.000130725
5.77436e-07
-0.000131257
6.38425e-07
-0.000131351
6.14304e-07
-0.000131298
5.76841e-07
-0.000130811
5.40582e-07
-0.000129615
5.539e-07
-0.000129002
4.61229e-07
-0.000128778
4.29423e-07
-0.000128722
3.98363e-07
-0.000129036
3.74764e-07
-0.000130831
4.62835e-07
-0.00013219
6.19253e-07
-0.000132539
6.58682e-07
-0.000132578
6.34857e-07
-0.000132401
5.62895e-07
-0.000131098
5.20883e-07
-0.000130056
4.50537e-07
-0.000129638
3.41401e-07
-0.000129493
3.36335e-07
-0.000129499
3.35953e-07
-0.000130339
3.58342e-07
-0.000132604
5.31624e-07
-0.000133686
6.81715e-07
-0.000133884
7.13345e-07
-0.000133858
6.61251e-07
-0.000133006
5.84994e-07
-0.000131173
4.53112e-07
-0.000130372
2.71365e-07
-0.00013008
1.55315e-07
-0.000130022
1.72876e-07
-0.000130245
2.13194e-07
-0.000132218
3.44412e-07
-0.000134401
5.90921e-07
-0.000135104
7.55422e-07
-0.000135183
7.88016e-07
-0.00013501
7.29201e-07
-0.000132917
5.93985e-07
-0.000130885
2.83263e-07
-0.000130249
1.16381e-08
-0.000130085
-7.11987e-08
-0.000130152
-4.49047e-08
-0.000131416
1.72184e-08
-0.000134562
3.08383e-07
-0.000136125
6.6598e-07
-0.000136501
8.56789e-07
-0.000136529
8.23165e-07
-0.000135385
7.22433e-07
-0.00013171
3.63895e-07
-0.000129813
-1.33603e-07
-0.00012944
-4.22931e-07
-0.000129456
-4.9497e-07
-0.00013011
-5.37853e-07
-0.00013356
-2.85994e-07
-0.000136356
3.38938e-07
-0.000137117
7.4543e-07
-0.00013726
8.69004e-07
-0.000136851
7.9108e-07
-0.000132806
5.31553e-07
-0.000128495
-4.97369e-07
-0.000127238
-1.31188e-06
-0.000127241
-1.66556e-06
-0.000127534
-1.81527e-06
-0.000130208
-1.83651e-06
-0.000133574
-1.29064e-06
-0.000135002
-6.21297e-07
-0.000135424
-2.91344e-07
-0.000135168
-3.96501e-07
-0.000130962
-6.48814e-07
-0.000124555
-2.44919e-06
-0.000120132
-4.13471e-06
-0.000119073
-5.8579e-06
-0.000120592
-9.10794e-06
-0.00012325
-1.25837e-05
-0.000125154
-1.32944e-05
2.37571e-05
-0.000124912
4.66798e-07
-0.00012585
4.59591e-07
-0.000127452
6.12089e-07
-0.000128055
7.06502e-07
-0.000128185
7.04106e-07
-0.000128142
6.79128e-07
-0.000127996
6.43277e-07
-0.000127434
6.10212e-07
-0.000126444
6.46065e-07
-0.000125983
6.22158e-07
-0.000125796
5.72236e-07
-0.0001258
4.93735e-07
-0.000126935
4.87428e-07
-0.000128509
6.46073e-07
-0.000129069
7.1354e-07
-0.000129201
7.22083e-07
-0.000129142
6.87647e-07
-0.000128972
6.60116e-07
-0.00012813
6.31729e-07
-0.000127229
6.15026e-07
-0.000126864
5.48538e-07
-0.000126735
5.03324e-07
-0.000126841
4.47828e-07
-0.000128257
5.1404e-07
-0.000129746
6.84346e-07
-0.000130208
7.79103e-07
-0.000130277
7.81025e-07
-0.000130211
7.51015e-07
-0.000129769
6.95187e-07
-0.000128507
6.38765e-07
-0.000127863
5.39865e-07
-0.000127635
4.492e-07
-0.000127562
3.9312e-07
-0.000127895
3.70597e-07
-0.000129721
4.89128e-07
-0.000131107
6.97518e-07
-0.000131489
7.95673e-07
-0.000131527
7.94901e-07
-0.000131415
7.55247e-07
-0.000130295
6.73646e-07
-0.000128912
5.58225e-07
-0.000128429
4.23036e-07
-0.000128264
3.37943e-07
-0.000128252
3.23721e-07
-0.000129052
3.70518e-07
-0.000131253
5.41704e-07
-0.00013245
7.71652e-07
-0.000132743
8.46165e-07
-0.00013277
8.30046e-07
-0.000132384
7.59241e-07
-0.000130459
6.00266e-07
-0.000129134
3.43047e-07
-0.000128723
1.8269e-07
-0.000128641
1.75356e-07
-0.00012878
1.79865e-07
-0.000130545
3.17562e-07
-0.000132863
6.25164e-07
-0.000133742
8.57197e-07
-0.000133962
9.26041e-07
-0.000133962
8.76607e-07
-0.000132794
7.38767e-07
-0.000130039
3.86772e-07
-0.000128818
4.10541e-08
-0.000128571
-1.14182e-07
-0.000128576
-1.5494e-07
-0.000129365
-1.47009e-07
-0.000132406
1.64503e-07
-0.000134397
6.9241e-07
-0.000134886
9.95597e-07
-0.000134987
1.03434e-06
-0.000134676
8.85261e-07
-0.000131658
6.18377e-07
-0.000128633
-1.16101e-07
-0.000127805
-5.65704e-07
-0.000127732
-7.4654e-07
-0.000127895
-8.20109e-07
-0.000130128
-7.34469e-07
-0.000133675
-6.71311e-08
-0.000135124
6.77993e-07
-0.000135412
9.44027e-07
-0.000135463
9.09816e-07
-0.000133561
7.26016e-07
-0.000128479
9.0582e-09
-0.00012557
-1.32845e-06
-0.000125156
-1.96435e-06
-0.000125211
-2.35168e-06
-0.000126575
-2.53287e-06
-0.000130025
-2.25207e-06
-0.000132336
-1.52793e-06
-0.000133131
-1.04725e-06
-0.000133386
-1.04227e-06
-0.000131894
-1.13409e-06
-0.000126365
-2.24465e-06
-0.000121165
-4.5914e-06
-0.000118342
-6.4703e-06
-0.000119287
-9.09115e-06
-0.00012228
-1.3689e-05
-0.000126022
-1.1361e-05
2.50493e-05
-0.00012407
5.45765e-07
-0.000124922
5.20011e-07
-0.000126543
6.65839e-07
-0.000127145
8.05306e-07
-0.000127268
8.14168e-07
-0.000127221
7.95825e-07
-0.000127069
7.58001e-07
-0.000126528
7.13982e-07
-0.000125567
7.27083e-07
-0.000125102
7.02852e-07
-0.000124919
6.49781e-07
-0.000124889
5.67819e-07
-0.000126003
5.55059e-07
-0.000127587
7.25308e-07
-0.000128162
8.53202e-07
-0.000128282
8.58603e-07
-0.000128248
8.25798e-07
-0.00012808
7.72411e-07
-0.000127293
7.03303e-07
-0.000126333
6.62699e-07
-0.000125927
6.02716e-07
-0.000125783
5.73901e-07
-0.000125834
5.1737e-07
-0.000127181
5.74529e-07
-0.000128721
8.06976e-07
-0.000129246
9.56881e-07
-0.000129364
9.57679e-07
-0.000129315
8.95902e-07
-0.000129041
8.25422e-07
-0.000127817
6.94132e-07
-0.00012693
5.61613e-07
-0.000126614
4.73906e-07
-0.000126522
4.40718e-07
-0.000126762
4.0282e-07
-0.000128534
5.4393e-07
-0.000130013
7.9746e-07
-0.000130478
9.48017e-07
-0.000130566
9.5437e-07
-0.000130527
9.13994e-07
-0.000129836
8.03907e-07
-0.000128091
6.39818e-07
-0.000127294
4.65439e-07
-0.000127083
3.86422e-07
-0.00012706
3.20922e-07
-0.000127725
3.34011e-07
-0.000129934
5.49051e-07
-0.000131275
8.43218e-07
-0.000131665
9.69516e-07
-0.000131759
9.9278e-07
-0.000131683
9.03407e-07
-0.000130249
7.47911e-07
-0.000128129
4.53507e-07
-0.00012742
2.64548e-07
-0.000127264
1.83339e-07
-0.000127358
1.18547e-07
-0.000128822
1.77757e-07
-0.000131434
5.33581e-07
-0.000132559
9.13626e-07
-0.000132825
1.04475e-06
-0.000132871
1.0084e-06
-0.000132503
8.47844e-07
-0.00012988
6.46156e-07
-0.000127683
1.45043e-07
-0.000127169
-8.52404e-08
-0.000127106
-2.24703e-07
-0.000127409
-2.80893e-07
-0.000129972
-1.32616e-07
-0.000132816
5.1253e-07
-0.00013369
1.04141e-06
-0.000133817
1.17002e-06
-0.000133812
1.04976e-06
-0.000132106
8.33258e-07
-0.000128391
2.09338e-07
-0.000126536
-5.62806e-07
-0.000126183
-9.05119e-07
-0.000126222
-1.02209e-06
-0.000127091
-1.10575e-06
-0.000130724
-7.69516e-07
-0.000133406
2.10524e-07
-0.000134177
8.10057e-07
-0.000134317
9.55972e-07
-0.000133922
8.78278e-07
-0.000129861
5.43631e-07
-0.00012546
-8.09558e-07
-0.000123834
-2.00977e-06
-0.000123793
-2.75244e-06
-0.000124116
-3.05799e-06
-0.000126584
-3.12563e-06
-0.000129424
-2.62015e-06
-0.000130804
-2.06187e-06
-0.000131372
-1.90434e-06
-0.000131467
-2.08131e-06
-0.000129321
-2.11538e-06
-0.000124312
-4.15875e-06
-0.000119471
-6.53441e-06
-0.000118482
-8.68652e-06
-0.000121543
-1.3593e-05
-0.000126468
-1.0674e-05
2.60667e-05
-0.00012353
6.15864e-07
-0.000124243
5.79855e-07
-0.000125856
7.46319e-07
-0.000126458
9.14994e-07
-0.000126584
9.49437e-07
-0.000126526
9.12553e-07
-0.000126383
8.80072e-07
-0.000125928
8.3917e-07
-0.000124992
7.90892e-07
-0.000124489
7.54281e-07
-0.000124287
6.96641e-07
-0.000124222
6.23654e-07
-0.000125159
6.06855e-07
-0.000126817
8.01474e-07
-0.000127451
9.77436e-07
-0.000127599
9.90665e-07
-0.000127575
9.45355e-07
-0.000127454
8.77819e-07
-0.000126854
7.98815e-07
-0.00012571
7.32365e-07
-0.000125191
6.87851e-07
-0.000124986
6.46654e-07
-0.000124989
6.15679e-07
-0.000126171
6.43981e-07
-0.00012785
8.71234e-07
-0.000128475
1.05558e-06
-0.000128638
1.05574e-06
-0.000128643
9.90375e-07
-0.000128524
8.95653e-07
-0.000127555
7.92361e-07
-0.000126266
6.35294e-07
-0.000125787
5.50526e-07
-0.000125644
5.27429e-07
-0.000125788
4.96795e-07
-0.00012739
5.60785e-07
-0.000129043
8.63489e-07
-0.000129598
1.07414e-06
-0.000129763
1.08741e-06
-0.00012975
1.01105e-06
-0.000129495
9.10888e-07
-0.000127858
7.80274e-07
-0.000126502
5.30783e-07
-0.000126142
4.25901e-07
-0.0001261
3.81125e-07
-0.000126539
3.15468e-07
-0.000128724
4.76774e-07
-0.000130325
8.71038e-07
-0.000130799
1.09761e-06
-0.000130902
1.1147e-06
-0.000130902
1.03971e-06
-0.000130221
9.09377e-07
-0.000127835
6.94754e-07
-0.000126508
3.51153e-07
-0.000126271
1.92209e-07
-0.00012629
9.68499e-08
-0.00012716
1.84905e-08
-0.000130045
3.22071e-07
-0.00013169
9.02626e-07
-0.000132056
1.18427e-06
-0.000132112
1.19311e-06
-0.000132007
1.07224e-06
-0.000130052
8.76767e-07
-0.000127335
3.79814e-07
-0.000126199
-6.78494e-08
-0.000126028
-2.65415e-07
-0.00012608
-3.57612e-07
-0.000127465
-4.06487e-07
-0.000131039
4.9709e-08
-0.000132837
8.91385e-07
-0.000133178
1.23765e-06
-0.000133246
1.2047e-06
-0.000132623
1.07192e-06
-0.000129136
7.42116e-07
-0.000126163
-2.9411e-07
-0.000125152
-9.12946e-07
-0.000125102
-1.20565e-06
-0.00012526
-1.35762e-06
-0.000127528
-1.37821e-06
-0.000131347
-6.59235e-07
-0.000133108
3.77318e-07
-0.000133511
8.28481e-07
-0.000133611
8.94031e-07
-0.000132239
7.81576e-07
-0.000127296
1.25046e-07
-0.000123915
-1.62359e-06
-0.000122955
-2.77112e-06
-0.000122999
-3.33738e-06
-0.00012395
-3.69069e-06
-0.000126895
-3.63143e-06
-0.000129062
-3.08405e-06
-0.000130112
-2.79459e-06
-0.000130551
-2.97999e-06
-0.000130271
-3.26597e-06
-0.000127731
-4.3009e-06
-0.000123297
-6.1169e-06
-0.000119519
-8.27583e-06
-0.00011994
-1.36386e-05
-0.000126754
-1.05146e-05
2.69513e-05
-0.000123178
6.67438e-07
-0.000123718
6.21475e-07
-0.000125368
7.99627e-07
-0.000126058
1.03887e-06
-0.000126184
1.08884e-06
-0.000126159
1.06548e-06
-0.000126028
1.00897e-06
-0.000125637
9.53045e-07
-0.000124691
8.82947e-07
-0.000124086
8.11196e-07
-0.000123845
7.44095e-07
-0.000123761
6.81986e-07
-0.000124445
6.27177e-07
-0.000126241
8.35399e-07
-0.000127032
1.0493e-06
-0.000127219
1.11008e-06
-0.00012721
1.06381e-06
-0.000127124
1.00732e-06
-0.000126669
9.30894e-07
-0.000125382
8.61202e-07
-0.000124653
7.78077e-07
-0.000124421
7.3909e-07
-0.000124355
6.76121e-07
-0.000125247
6.57661e-07
-0.000127198
8.47726e-07
-0.000128048
1.09095e-06
-0.000128254
1.13091e-06
-0.00012827
1.08777e-06
-0.000128202
1.00578e-06
-0.00012751
9.19509e-07
-0.000125916
7.98677e-07
-0.000125182
6.77167e-07
-0.000124989
6.21187e-07
-0.000124986
5.53082e-07
-0.000126269
5.50399e-07
-0.000128332
8.31972e-07
-0.00012913
1.14952e-06
-0.000129316
1.17756e-06
-0.000129338
1.12791e-06
-0.000129237
1.03847e-06
-0.00012796
9.25489e-07
-0.000126232
6.73367e-07
-0.000125575
5.05535e-07
-0.000125446
4.14693e-07
-0.000125548
3.38096e-07
-0.000127342
4.00915e-07
-0.000129548
7.99062e-07
-0.000130289
1.19792e-06
-0.000130455
1.25925e-06
-0.000130473
1.19078e-06
-0.000130156
1.06778e-06
-0.000128007
8.78813e-07
-0.000126282
4.67595e-07
-0.00012573
1.86482e-07
-0.000125669
8.52115e-08
-0.000125876
1.58829e-08
-0.000128227
1.01357e-07
-0.000130811
7.2825e-07
-0.000131541
1.27303e-06
-0.000131658
1.38873e-06
-0.000131661
1.29386e-06
-0.00013063
1.11204e-06
-0.000127617
6.89846e-07
-0.000125879
1.24411e-08
-0.000125411
-3.45199e-07
-0.000125412
-4.52962e-07
-0.00012572
-5.53034e-07
-0.000128642
-4.4564e-07
-0.000131786
4.20746e-07
-0.000132746
1.18836e-06
-0.000132887
1.37112e-06
-0.000132849
1.31807e-06
-0.000130768
1.23739e-06
-0.00012674
4.19869e-07
-0.000124864
-7.61181e-07
-0.00012445
-1.23841e-06
-0.000124497
-1.56164e-06
-0.000125038
-1.69235e-06
-0.000128403
-1.51558e-06
-0.000131539
-4.85706e-07
-0.000132682
4.0363e-07
-0.000132971
7.14905e-07
-0.000132962
7.79572e-07
-0.000130604
4.20066e-07
-0.000125547
-4.51188e-07
-0.000122948
-2.33171e-06
-0.00012248
-3.35014e-06
-0.000122581
-4.02393e-06
-0.000124269
-4.35442e-06
-0.000126979
-4.10707e-06
-0.000128528
-3.7123e-06
-0.000129406
-3.75639e-06
-0.00012975
-4.21807e-06
-0.000129171
-4.6641e-06
-0.000126585
-6.16297e-06
-0.000122615
-7.95106e-06
-0.000120309
-1.25189e-05
-0.00012663
-1.08508e-05
2.80341e-05
-0.000122954
7.17894e-07
-0.000123226
6.65536e-07
-0.000124932
8.19455e-07
-0.00012584
1.10048e-06
-0.000126026
1.22439e-06
-0.000126001
1.20865e-06
-0.00012588
1.14626e-06
-0.000125569
1.07826e-06
-0.000124626
1.00117e-06
-0.000123908
8.92822e-07
-0.000123615
8.20128e-07
-0.000123479
7.33258e-07
-0.000123872
6.54028e-07
-0.000125741
8.10753e-07
-0.0001268
1.09312e-06
-0.000127034
1.21387e-06
-0.000127048
1.20517e-06
-0.000126952
1.14923e-06
-0.000126574
1.07951e-06
-0.000125263
1.01532e-06
-0.000124399
9.04006e-07
-0.000124118
8.0678e-07
-0.000124026
7.00594e-07
-0.000124573
6.08019e-07
-0.000126701
7.8826e-07
-0.000127819
1.12001e-06
-0.000128065
1.22818e-06
-0.000128078
1.22577e-06
-0.000128012
1.17899e-06
-0.000127488
1.08835e-06
-0.00012584
9.90261e-07
-0.000124868
7.69057e-07
-0.000124611
6.89151e-07
-0.000124552
5.44586e-07
-0.000125291
4.64831e-07
-0.00012767
7.10244e-07
-0.000128843
1.15477e-06
-0.000129105
1.292e-06
-0.000129137
1.27299e-06
-0.0001291
1.21203e-06
-0.000128235
1.08993e-06
-0.000126245
8.90095e-07
-0.000125301
5.54992e-07
-0.000125048
4.6709e-07
-0.00012503
3.5869e-07
-0.000125912
2.95666e-07
-0.000128643
6.0588e-07
-0.000129952
1.19346e-06
-0.00013022
1.37392e-06
-0.000130262
1.35977e-06
-0.000130166
1.23311e-06
-0.000128621
1.10187e-06
-0.000126406
6.83082e-07
-0.000125492
2.49979e-07
-0.000125215
9.08024e-08
-0.000125215
2.08331e-08
-0.000126191
-2.24858e-08
-0.000129467
3.35039e-07
-0.000131161
1.17888e-06
-0.00013145
1.48599e-06
-0.000131491
1.48901e-06
-0.000131222
1.30881e-06
-0.000128678
1.08554e-06
-0.000126087
3.18572e-07
-0.000125176
-2.93691e-07
-0.000124967
-5.87005e-07
-0.000124998
-6.24074e-07
-0.000126094
-7.04352e-07
-0.000129855
-2.7111e-07
-0.000132052
8.69506e-07
-0.000132515
1.41971e-06
-0.000132595
1.49909e-06
-0.000132226
1.41918e-06
-0.000128959
1.08849e-06
-0.000125515
-1.14843e-07
-0.000124214
-1.20086e-06
-0.000124005
-1.56096e-06
-0.000124082
-1.82074e-06
-0.000125391
-2.00339e-06
-0.00012919
-1.55721e-06
-0.000131608
-3.64235e-07
-0.00013244
3.36034e-07
-0.000132584
5.3574e-07
-0.000132314
5.74032e-07
-0.000129015
1.57989e-07
-0.000124488
-1.22076e-06
-0.000122429
-3.10238e-06
-0.000122182
-4.02523e-06
-0.000122469
-4.68791e-06
-0.000124716
-4.97597e-06
-0.000127147
-4.6611e-06
-0.000128351
-4.48658e-06
-0.000128981
-4.80602e-06
-0.000129166
-5.53429e-06
-0.000128346
-6.42364e-06
-0.000125647
-7.77005e-06
-0.00012214
-1.10549e-05
-0.000126236
-1.06597e-05
2.93594e-05
-0.000122795
7.79774e-07
-0.000122862
7.29801e-07
-0.000124373
8.028e-07
-0.000125654
1.1233e-06
-0.000125963
1.31681e-06
-0.000125955
1.32516e-06
-0.000125861
1.29311e-06
-0.000125625
1.2083e-06
-0.000124723
1.12404e-06
-0.000123853
9.89455e-07
-0.000123491
8.92255e-07
-0.000123358
8.13639e-07
-0.000123479
7.00963e-07
-0.000125206
7.77675e-07
-0.000126612
1.10847e-06
-0.000126936
1.31569e-06
-0.000126937
1.34293e-06
-0.000126857
1.32078e-06
-0.000126582
1.23883e-06
-0.000125342
1.13561e-06
-0.000124343
9.924e-07
-0.000124021
8.43167e-07
-0.000123928
7.31615e-07
-0.000124128
5.96921e-07
-0.000126048
6.80425e-07
-0.000127574
1.12619e-06
-0.000127915
1.35748e-06
-0.000127934
1.41604e-06
-0.000127871
1.3758e-06
-0.000127537
1.2562e-06
-0.000125993
1.14234e-06
-0.000124856
8.8828e-07
-0.000124481
6.70397e-07
-0.000124419
5.63853e-07
-0.000124607
4.14771e-07
-0.000126713
5.5355e-07
-0.000128541
1.08461e-06
-0.000128988
1.40777e-06
-0.000129049
1.46099e-06
-0.000129004
1.39411e-06
-0.000128555
1.2911e-06
-0.000126556
1.10946e-06
-0.000125259
7.28111e-07
-0.000124812
4.80139e-07
-0.000124735
3.86801e-07
-0.000124929
2.80828e-07
-0.000127232
3.84986e-07
-0.000129539
1.01143e-06
-0.000130132
1.47791e-06
-0.00013021
1.55085e-06
-0.000130199
1.43799e-06
-0.000129437
1.32028e-06
-0.000126924
1.00597e-06
-0.000125393
4.17315e-07
-0.000124873
1.25283e-07
-0.00012481
-4.98937e-09
-0.000124968
-9.77086e-08
-0.000127419
-3.77753e-08
-0.000130473
7.0773e-07
-0.000131414
1.4872e-06
-0.000131503
1.59241e-06
-0.000131489
1.55017e-06
-0.000130256
1.47389e-06
-0.000127019
9.25564e-07
-0.00012525
-3.06211e-08
-0.000124608
-5.51985e-07
-0.000124505
-7.02417e-07
-0.000124642
-7.97637e-07
-0.000126956
-8.04249e-07
-0.000130667
4.81051e-10
-0.000132114
1.12517e-06
-0.000132427
1.56625e-06
-0.000132486
1.44449e-06
-0.000131565
1.36242e-06
-0.000127407
9.67801e-07
-0.000124574
-5.20126e-07
-0.000123752
-1.53397e-06
-0.000123689
-1.94159e-06
-0.000123844
-2.12997e-06
-0.000125959
-2.22715e-06
-0.000129538
-1.51369e-06
-0.000131293
-3.94701e-07
-0.000131884
1.59878e-07
-0.000132024
2.44184e-07
-0.000131513
2.30088e-07
-0.000127844
-4.85007e-07
-0.000123703
-1.96918e-06
-0.000121938
-3.90036e-06
-0.000121882
-4.73963e-06
-0.000122421
-5.5477e-06
-0.000125023
-5.65966e-06
-0.000127134
-5.31087e-06
-0.000128157
-5.34138e-06
-0.000128697
-5.94146e-06
-0.000128765
-6.8984e-06
-0.000127758
-7.88792e-06
-0.000124609
-9.92435e-06
-0.000125634
-1.07177e-05
3.08398e-05
-0.00012272
8.44554e-07
-0.000122672
8.11596e-07
-0.000123784
8.17901e-07
-0.000125404
1.12261e-06
-0.000125905
1.36741e-06
-0.000125978
1.4372e-06
-0.000125895
1.40444e-06
-0.000125721
1.32183e-06
-0.000124988
1.25146e-06
-0.00012394
1.10465e-06
-0.00012349
9.57306e-07
-0.00012331
8.68903e-07
-0.00012327
7.60985e-07
-0.00012451
7.69848e-07
-0.000126293
1.09997e-06
-0.000126827
1.40233e-06
-0.000126905
1.50658e-06
-0.000126822
1.45445e-06
-0.000126646
1.37924e-06
-0.000125645
1.26773e-06
-0.000124483
1.05331e-06
-0.000124071
8.65928e-07
-0.000123896
7.39343e-07
-0.000123865
6.80763e-07
-0.000125056
6.7388e-07
-0.000127129
1.06324e-06
-0.000127812
1.4635e-06
-0.000127919
1.60247e-06
-0.000127859
1.52402e-06
-0.000127704
1.41773e-06
-0.000126449
1.25794e-06
-0.000125019
9.72526e-07
-0.000124513
6.93089e-07
-0.000124305
5.69305e-07
-0.000124288
5.31668e-07
-0.000125399
5.04346e-07
-0.000127951
9.10454e-07
-0.000128887
1.45042e-06
-0.000129034
1.61631e-06
-0.000129025
1.58843e-06
-0.000128846
1.47878e-06
-0.000127277
1.3405e-06
-0.000125413
9.17799e-07
-0.000124738
5.43056e-07
-0.000124505
4.15677e-07
-0.000124494
3.32372e-07
-0.000125549
2.50779e-07
-0.000128644
6.58793e-07
-0.000130003
1.44343e-06
-0.000130209
1.64586e-06
-0.000130239
1.67505e-06
-0.000130032
1.53957e-06
-0.00012793
1.38087e-06
-0.000125578
7.28812e-07
-0.000124778
1.89817e-07
-0.000124563
-4.93841e-08
-0.000124568
-1.55458e-07
-0.000125339
-2.40897e-07
-0.000128868
9.42372e-08
-0.00013105
1.19622e-06
-0.000131505
1.70581e-06
-0.000131559
1.78593e-06
-0.000131341
1.77135e-06
-0.000128914
1.57484e-06
-0.00012571
6.027e-07
-0.000124434
-3.71344e-07
-0.000124124
-7.16973e-07
-0.000124129
-9.56956e-07
-0.000124638
-1.04749e-06
-0.000128196
-9.30809e-07
-0.000131426
3.62794e-07
-0.000132293
1.34104e-06
-0.000132426
1.51593e-06
-0.000132371
1.54789e-06
-0.000130489
1.47683e-06
-0.000126277
6.20061e-07
-0.000124056
-9.50575e-07
-0.000123364
-1.89499e-06
-0.000123353
-2.1728e-06
-0.000123686
-2.41333e-06
-0.000126518
-2.47197e-06
-0.000129731
-1.54277e-06
-0.000131124
-5.59792e-07
-0.00013158
-1.89447e-07
-0.00013167
-1.47299e-07
-0.000130722
-3.049e-07
-0.000126798
-1.07349e-06
-0.000123039
-2.85894e-06
-0.000121479
-4.75988e-06
-0.000121551
-5.55327e-06
-0.000122453
-6.46557e-06
-0.000125335
-6.43227e-06
-0.000127315
-6.08812e-06
-0.000128217
-6.32113e-06
-0.000128602
-7.20037e-06
-0.000128631
-8.09872e-06
-0.000126839
-9.15049e-06
-0.000125218
-1.00607e-05
3.24686e-05
-0.000122681
9.18333e-07
-0.000122586
9.08305e-07
-0.000123262
8.88072e-07
-0.000125075
1.10897e-06
-0.000125849
1.41258e-06
-0.000125991
1.51768e-06
-0.000125927
1.47762e-06
-0.000125805
1.42469e-06
-0.000125309
1.35211e-06
-0.000124145
1.20488e-06
-0.000123549
1.03158e-06
-0.0001233
9.24074e-07
-0.000123198
8.59005e-07
-0.000123785
8.2527e-07
-0.000125789
1.06299e-06
-0.000126721
1.45948e-06
-0.000126898
1.61575e-06
-0.00012688
1.57707e-06
-0.000126784
1.4985e-06
-0.000126151
1.37803e-06
-0.00012486
1.18068e-06
-0.000124176
9.1518e-07
-0.000123836
8.12532e-07
-0.000123705
8.1181e-07
-0.000124047
7.47082e-07
-0.000126295
9.33147e-07
-0.000127666
1.45208e-06
-0.000127937
1.63255e-06
-0.000127949
1.62462e-06
-0.000127885
1.54075e-06
-0.000127198
1.42343e-06
-0.00012549
1.18186e-06
-0.000124573
8.17161e-07
-0.000124141
6.71683e-07
-0.000124029
6.65391e-07
-0.000124317
5.77692e-07
-0.000126796
7.10273e-07
-0.000128633
1.3385e-06
-0.000129028
1.674e-06
-0.000129064
1.73761e-06
-0.000129018
1.64179e-06
-0.000128171
1.5423e-06
-0.000125914
1.21444e-06
-0.000124758
6.8887e-07
-0.000124359
4.22563e-07
-0.000124274
3.44533e-07
-0.000124461
2.35222e-07
-0.000126952
3.42603e-07
-0.000129576
1.10535e-06
-0.000130285
1.7297e-06
-0.000130352
1.82903e-06
-0.000130343
1.79078e-06
-0.000129304
1.67962e-06
-0.000126462
1.2032e-06
-0.000124956
3.77533e-07
-0.000124427
-4.93173e-08
-0.000124236
-1.99818e-07
-0.000124329
-2.71552e-07
-0.000126273
-2.65938e-07
-0.000129887
4.50752e-07
-0.000131269
1.57245e-06
-0.000131562
1.91827e-06
-0.000131611
1.92057e-06
-0.000130916
1.85397e-06
-0.000127401
1.49436e-06
-0.000124845
2.01166e-07
-0.00012407
-6.86411e-07
-0.000123885
-1.06143e-06
-0.000123936
-1.15753e-06
-0.000124982
-1.23228e-06
-0.000129027
-7.73735e-07
-0.000131426
6.56677e-07
-0.000132019
1.46963e-06
-0.000132114
1.63353e-06
-0.000132022
1.50343e-06
-0.000129476
1.23805e-06
-0.000125258
2.70936e-07
-0.000123446
-1.37968e-06
-0.000123075
-2.1748e-06
-0.000123124
-2.57906e-06
-0.000123789
-2.80192e-06
-0.000126923
-2.64123e-06
-0.000129561
-1.61933e-06
-0.000130647
-8.15958e-07
-0.000131027
-5.74757e-07
-0.000131092
-6.00159e-07
-0.000129966
-8.49134e-07
-0.000125942
-1.79147e-06
-0.000122432