/*--------------------------------*- C++ -*----------------------------------*\
  =========                 |
  \\      /  F ield         | OpenFOAM: The Open Source CFD Toolbox
   \\    /   O peration     | Website:  https://openfoam.org
    \\  /    A nd           | Version:  12
     \\/     M anipulation  |
\*---------------------------------------------------------------------------*/
FoamFile
{
    format      ascii;
    class       surfaceScalarField;
    location    "4.625";
    object      phi;
}
// * * * * * * * * * * * * * * * * * * * * * * * * * * * * * * * * * * * * * //

dimensions      [1 0 -1 0 0 0 0];

internalField   nonuniform List<scalar> 
69079
(
-0.000160216
9.23483e-05
6.74127e-05
0.000127437
4.16217e-08
-0.00012738
-0.000132214
0.000132218
0.000129044
-1.53467e-06
-0.000130693
-1.54588e-06
-0.000130709
9.77765e-05
-0.000170739
8.21687e-05
1.94071e-06
0.000111759
-9.8429e-05
0.000130294
-0.000130369
6.21696e-08
0.000129706
5.70328e-07
-9.92171e-05
-6.06316e-05
-0.000120686
0.00012705
-8.7157e-06
-0.000128032
0.00012536
2.70012e-06
-0.000127474
-6.2266e-07
2.50809e-06
-0.000111137
0.000108588
0.00012964
3.60537e-08
0.000129084
5.54479e-07
-0.000129679
0.000128089
1.63933e-06
-0.000128307
-1.37924e-06
0.000129609
-0.000128924
-6.83209e-07
0.000128657
9.35691e-07
0.000125861
-0.000128183
2.35719e-06
-0.000139066
1.33437e-05
0.000125722
0.000150835
-0.000100523
-5.36168e-05
0.000118292
-1.52154e-05
-8.72326e-05
-0.000129018
-1.35394e-06
0.000129088
6.82361e-08
2.38408e-07
3.90828e-08
0.000115264
-9.90313e-05
0.000120823
-0.000125896
5.05561e-06
0.000122966
-0.000133358
1.02564e-05
0.000143353
-2.0509e-05
0.000127862
7.72658e-07
-4.77192e-07
-0.000127669
2.30094e-05
0.000104645
0.000127785
-0.000127834
3.09128e-08
2.41334e-07
-6.50958e-06
0.00011923
-0.000101247
-1.13988e-05
-0.000127667
0.000107279
2.44032e-05
-0.000128472
-0.000137777
1.69884e-05
0.00012717
-0.000127166
1.48789e-08
-6.20907e-06
-0.000112403
0.000138466
-2.41099e-05
0.000126673
1.44983e-06
-1.17799e-06
-7.45111e-05
0.000142299
-6.77877e-05
0.000124597
-0.000124478
1.47222e-08
0.000142957
-1.83243e-05
0.000121153
2.1791e-05
0.00014209
-2.10342e-05
0.000119012
-3.73292e-06
-0.000115281
-0.000117266
0.00014701
-2.49987e-05
-0.000129679
0.000130947
-1.18362e-06
-0.00013069
5.60717e-05
7.45512e-05
0.000123674
-0.000123609
2.06413e-08
0.000141803
-1.80385e-05
0.000120057
-7.78134e-08
-0.00012028
-7.57985e-05
-4.67793e-05
0.000109045
7.63302e-05
5.04534e-05
-0.000126802
0.000134375
-7.05685e-05
-6.11069e-05
-1.37453e-05
-0.00011393
5.00647e-05
-0.000124576
-0.000107312
0.000109797
0.000124823
6.75361e-07
-2.21347e-06
0.000145624
-0.000145584
-1.55337e-05
-0.000115737
-0.000119002
1.05883e-05
-6.53509e-05
0.000163307
0.000119283
2.25312e-05
0.000140797
-2.15479e-05
0.000126813
-1.30826e-05
-0.000118061
0.000126602
-0.00012425
-2.33341e-06
9.27635e-05
5.26412e-05
0.000115137
-0.000118353
3.26067e-06
-2.77238e-06
0.000118
-0.000123178
1.13761e-05
0.000111776
0.000122764
2.05531e-05
-1.60858e-06
0.000117954
-0.000140262
2.23343e-05
0.000101091
1.78944e-05
0.000131573
-1.35767e-05
-8.93292e-05
-5.65259e-05
0.000146975
-0.000116681
0.000118012
-1.2781e-06
0.0001171
-0.000132657
1.55601e-05
0.000118094
-9.89933e-07
-8.08699e-05
-4.09971e-05
-6.25559e-06
-0.000101629
0.000107886
-7.06728e-05
0.000138937
-6.82643e-05
0.000149875
-4.19738e-05
-0.000126144
9.53362e-06
0.000120969
2.10481e-05
6.93591e-05
5.25893e-05
-0.000121948
-2.62643e-06
-0.000115456
-1.0646e-05
1.25076e-06
-0.000106176
0.000104767
0.000123627
-3.59988e-06
6.71244e-05
6.01135e-05
-0.000127251
5.42637e-05
-0.000124936
-0.000116288
8.88114e-07
0.00012532
-0.000125327
0.000129694
-8.7679e-06
2.06116e-05
-0.000134303
0.000113726
4.8237e-05
-0.00013223
-0.000126978
-1.01169e-05
0.000114913
-0.000134042
1.91391e-05
0.000117564
-2.64788e-06
7.00619e-06
0.000109609
-0.000115808
-7.75897e-06
0.000112898
-9.88705e-05
0.000119199
2.15762e-05
-2.10659e-05
-0.000104061
0.000105143
7.44085e-06
-0.000120977
0.000113494
-0.000136742
3.51256e-05
-8.39047e-06
0.000116692
-0.000112477
4.77803e-05
-0.000128409
-0.000108739
-3.40548e-06
0.000112187
0.000120326
-0.000122812
3.07466e-06
-0.000123584
0.000106557
1.70274e-05
-3.95023e-06
-0.000126753
0.000114673
1.69214e-05
-5.34695e-06
0.000120013
-0.000129721
0.00012944
-0.000111951
3.19147e-06
-3.55005e-05
0.000111818
0.000146551
-8.7788e-05
-5.87778e-05
-0.00013125
5.23316e-05
7.89329e-05
0.000123823
-5.85335e-07
-0.000123253
0.000113182
-0.000131864
1.85561e-05
0.000116701
-3.57579e-06
0.000121934
-1.77122e-06
0.00010663
-8.31845e-05
0.000116719
7.03365e-06
7.73452e-05
-0.000122786
4.54883e-05
0.000113771
-0.000137259
2.35252e-05
0.000136278
-2.24422e-05
-1.53542e-06
0.000122021
-7.74602e-05
0.000145374
-6.7872e-05
-9.72368e-05
-2.11214e-05
0.000110979
-0.000131124
1.99872e-05
0.00011426
-3.57907e-06
0.000118881
-0.000127418
8.39808e-06
-0.000122692
2.54355e-05
-3.05146e-05
-0.000100683
0.000112529
-0.000135759
2.32373e-05
-2.01243e-05
-0.000106691
0.000113244
8.47037e-05
-9.09594e-05
-0.000104967
0.000112956
0.000132945
-0.000132913
0.000116347
3.23989e-07
-2.09083e-05
0.000120664
-0.000128216
7.54483e-06
-0.000119709
2.99673e-06
7.04432e-05
7.62055e-05
-0.000129004
2.06547e-05
0.000108229
0.000110556
-0.00013439
2.38443e-05
-0.00010907
0.000133809
-2.32422e-05
-0.000122315
-2.17823e-06
0.000103211
-4.71057e-05
-4.10249e-05
0.000118395
-1.68463e-05
0.000162266
0.000112496
2.3794e-05
-8.47892e-05
0.000102729
-2.32591e-05
0.000113694
-0.000113795
6.86697e-05
-0.000120819
5.21356e-05
0.000109268
-0.000133275
2.40163e-05
0.000132819
-2.35462e-05
-1.89459e-05
-0.000109204
0.000113414
6.59505e-06
-0.000118795
-2.14729e-05
-0.000112846
1.40179e-05
-0.00010667
9.28351e-05
-7.28769e-05
0.000120023
-4.74697e-05
-0.000112374
3.74408e-06
0.000108674
3.29025e-06
0.000114249
-0.000114546
0.000103497
0.000110761
0.000124068
-3.58594e-06
0.000107961
-0.000132272
2.43259e-05
-2.60636e-05
8.31823e-07
-0.000111513
0.000110686
0.00011147
6.62986e-06
-2.29134e-05
5.04384e-05
8.86578e-05
0.000109443
6.02067e-07
-0.000110044
9.89159e-07
0.000108481
8.32474e-06
0.000118318
-4.7001e-05
-5.99794e-05
0.000106967
-0.000143922
8.5113e-05
5.84995e-05
7.33259e-05
-0.000120337
3.11164e-07
0.000111251
-0.000111561
-0.000111277
0.000111591
0.000102003
-0.000102748
-0.00011719
0.000121703
-4.62551e-06
0.000103328
-0.000123975
2.07856e-05
0.000111986
-8.60594e-06
-9.75745e-06
-9.90338e-05
0.000108593
6.71186e-05
4.67907e-05
-0.000113924
0.000109201
2.46259e-05
-2.40689e-05
1.67808e-05
-0.000117293
0.000100503
-0.000114208
-6.07589e-06
0.000120081
3.6076e-06
0.000105946
-0.000131212
2.52712e-05
0.000130324
-2.43733e-05
7.39912e-05
-0.000119641
4.56507e-05
0.000113646
-0.000106251
0.000116444
-0.000119661
0.000114124
6.63982e-06
-5.02996e-07
0.000118528
3.34813e-05
-0.000107871
-0.000115421
-1.82669e-06
0.000123042
-4.15097e-06
-8.02594e-05
-4.59979e-05
0.000126921
0.000104554
-0.000129799
2.52067e-05
0.000126725
-1.63867e-05
-0.000129198
-2.74478e-05
9.67801e-05
-8.27636e-05
0.000107838
2.4991e-05
-2.44138e-05
-8.35911e-05
-5.76229e-05
0.00014234
0.000125961
-0.000123934
-2.36202e-06
-1.4597e-05
0.000125234
-0.000110614
0.000101222
-0.000122148
2.06549e-05
0.000110431
-9.72338e-06
0.000105934
-0.000106634
5.83162e-07
-4.67546e-06
-0.000118909
-0.0001312
2.00738e-05
0.000111121
-2.34307e-05
-0.000107775
-1.64716e-05
-0.000113679
-4.73986e-05
0.000116758
-0.000144497
7.74936e-05
6.69855e-05
-0.000122141
0.00010572
1.64213e-05
0.000105583
2.60171e-07
0.000114796
-0.00010893
-5.81161e-06
-0.00013587
0.000118958
-0.000116414
1.71014e-07
-0.000115905
0.000117684
-1.77731e-06
-7.07227e-05
-7.37785e-05
6.94741e-05
-0.000123985
5.45489e-05
-7.88193e-07
-0.000123498
-4.324e-06
-0.000124736
0.000120545
-6.13077e-07
-0.000121115
5.22279e-06
0.000102213
-0.000129319
2.69848e-05
-2.9026e-05
0.000111616
3.3462e-06
9.93193e-05
-0.000119522
2.02824e-05
-0.000123825
2.72034e-06
0.000109882
-1.05122e-05
0.000108471
9.08804e-06
-2.274e-05
0.000125662
-0.000121023
-5.23453e-06
-5.97252e-06
0.00011688
-0.000111727
0.000123635
-0.000123632
-0.000141761
6.96779e-05
8.26377e-05
-6.57915e-05
0.000118003
-5.24692e-05
-0.000111965
-4.18482e-06
0.000115038
-0.000124832
-2.72169e-06
-6.71474e-05
-4.58329e-05
0.000113579
6.8786e-05
4.27483e-05
-0.000111574
8.43222e-05
-9.42342e-05
3.97932e-06
0.000119605
-0.000123584
0.000104644
2.56806e-05
0.000100224
-0.000127871
2.78266e-05
-2.51576e-05
-0.000129096
0.000114508
-0.00011935
0.000119335
8.10026e-05
4.77979e-05
0.000127157
-2.67855e-05
-2.11033e-05
-0.000115205
0.000100544
7.45227e-05
-0.000121028
4.64775e-05
-4.03332e-06
-0.00012899
0.000139113
-1.363e-06
0.000117547
-0.000116541
9.70278e-05
-0.000117984
2.08392e-05
0.000108297
-1.19047e-05
0.000124525
-0.000125817
-0.000107703
0.000111681
-7.87517e-05
-6.61405e-05
-6.69108e-05
0.000111751
-4.54131e-05
-0.000124476
2.62205e-06
0.000121636
-0.00012567
4.12344e-06
-6.37453e-05
0.000130848
0.000122738
1.18395e-06
0.000122485
4.58748e-07
-0.000160706
7.64187e-05
8.01794e-05
3.62962e-05
0.000106003
0.000121966
4.18247e-07
7.33573e-05
-0.000106789
3.34201e-05
0.000120757
4.48752e-06
0.000109539
-3.63574e-05
3.59439e-05
9.92586e-05
-0.000126616
2.7002e-05
0.000116611
0.00012587
-2.69332e-05
0.000130643
-2.15413e-05
-0.000108987
-0.000108067
-1.2294e-06
0.000109348
-0.000138914
8.07346e-05
5.81715e-05
0.000107036
9.64748e-06
-2.22584e-05
-4.34188e-05
0.000117406
0.000130141
-0.000130095
-0.000106209
0.000106813
0.000111366
-0.000110344
-7.10114e-05
0.000116242
-4.5598e-05
-2.11097e-06
-0.000121073
9.87893e-05
-0.000125729
2.71613e-05
-0.000114361
0.000117082
-2.71921e-06
0.000125691
-2.69096e-05
-0.000127866
0.000127468
0.000118785
3.09377e-06
2.55531e-06
-0.000113841
0.000111274
-0.000121546
0.000124057
-0.000102568
-8.33333e-06
0.000110709
-0.000119092
4.73294e-06
-9.83136e-05
-3.82037e-05
9.18984e-05
-9.19845e-05
0.000141162
-1.41809e-05
0.000121951
-3.93736e-07
-0.00011704
-2.05626e-06
0.000120078
-0.000120098
9.71615e-05
-0.000124877
2.7289e-05
0.000123905
-2.68439e-05
9.12798e-05
-0.000111125
2.01098e-05
0.000104618
-1.27887e-05
-6.98096e-05
-6.91108e-05
-0.000123738
4.63444e-05
-0.000115417
-1.62814e-06
6.99842e-05
7.13704e-05
0.000120279
5.18966e-06
0.000105994
8.20654e-06
-2.17954e-05
-0.000117146
0.000107127
9.90558e-06
0.00012921
-0.000124554
-0.000102889
0.000114245
0.000104981
-0.000112385
7.5107e-06
0.000111594
-4.34541e-06
-0.000107248
9.64322e-05
-0.000123916
2.77034e-05
0.00012374
-2.72902e-05
-4.21146e-06
-0.00011793
-0.000118942
0.000124103
-5.10943e-06
1.07977e-06
-0.000113456
0.000138337
-2.34791e-05
-5.51913e-05
0.000122307
3.06297e-07
-0.000133757
2.25464e-05
-0.000108503
-1.2316e-05
0.000112899
-4.5673e-06
-0.000108332
0.000100848
2.6216e-05
0.000118758
-5.00979e-05
-2.59914e-05
-0.000120274
0.000109182
1.10925e-05
5.58412e-06
-0.000114064
-0.000153266
8.95301e-05
6.37776e-05
-0.000112842
3.2113e-06
0.000109629
-6.9466e-05
-8.37961e-05
4.10388e-06
0.000107665
-0.000111754
-0.000113492
4.63282e-06
0.000108845
-7.21472e-06
-0.000106284
-0.000118038
0.000110808
9.46779e-05
-0.000122637
2.78117e-05
-0.00011402
2.35511e-06
0.000111677
0.000113744
-4.15809e-06
-0.000109588
-3.19262e-06
0.000113152
-0.000109957
0.000110552
0.000122061
-2.73777e-05
0.000114707
-4.372e-06
-0.000110352
0.000119249
-5.85063e-07
-0.000129313
-1.2592e-05
-0.000116537
-4.521e-06
0.000114668
-0.000110154
6.61133e-05
4.51839e-05
-0.00011131
-0.000126408
5.07713e-05
-6.56147e-05
-6.92236e-05
-0.000133549
3.09805e-05
9.87777e-05
2.7011e-05
5.19946e-06
-0.00010819
-2.6665e-05
5.37902e-06
0.000106218
-0.000108437
8.05004e-06
0.000100387
9.36605e-05
-0.000121847
2.8247e-05
-6.07794e-06
0.000119622
0.000114172
-4.62935e-06
-0.000109549
-0.000119334
-6.03851e-06
0.000121415
-2.77841e-05
-7.25165e-05
0.000118024
-4.52539e-05
0.000126624
-1.1205e-05
-0.000115422
0.000152056
-2.53002e-05
-0.00012157
0.000118745
2.75153e-06
0.000121778
-0.000121576
-0.00012279
7.20882e-06
0.000115591
-2.38995e-06
0.000113149
-0.000110738
-6.56754e-05
0.000118265
8.70152e-05
-0.000107648
2.01291e-05
-1.55271e-05
0.000102388
1.01398e-05
0.00011677
2.3219e-07
0.000111017
-0.000111178
-1.10156e-05
9.81391e-05
-8.71237e-05
0.000134573
-7.96337e-05
-5.49451e-05
2.53737e-06
-0.00011498
0.000112443
2.53393e-06
-0.000117958
0.000116951
-0.00011695
-0.000110317
0.000111653
-1.32641e-06
0.00011089
-0.000114056
3.23164e-06
-0.000101846
0.000102676
-1.50811e-06
0.00011449
-0.000112664
-1.88401e-06
-0.000111963
0.0001137
5.86938e-05
6.70881e-05
-0.000125973
-1.31506e-06
0.000118983
-0.000115538
-1.4214e-06
0.000116961
-0.000121938
4.83377e-08
0.000111115
-0.000113219
0.000105372
3.35654e-05
9.20904e-05
-0.000120534
2.84781e-05
-5.04092e-05
-5.63379e-05
0.000106784
9.7962e-05
2.77028e-05
-0.000133834
8.34675e-05
0.000114539
-4.0014e-05
-3.18105e-05
-2.73238e-05
-0.000140364
8.0087e-05
6.02663e-05
-6.16359e-05
0.00012022
-5.89006e-05
6.36702e-05
6.28862e-05
-0.000126561
-7.11494e-05
0.000121214
-0.000115788
0.000110063
5.74763e-06
-0.000116689
9.07657e-07
-0.000114211
4.96861e-07
0.000113155
5.4214e-06
0.000136986
-0.00010795
-2.92456e-06
0.000110896
-0.00010049
8.94761e-05
9.29612e-05
-0.000114043
0.000109307
-0.000118741
-3.28064e-06
0.000112131
-0.000108631
4.53274e-05
-0.00011373
-7.40832e-05
-6.62899e-05
1.30969e-06
0.000112014
-0.000113797
-0.000121304
-6.46938e-06
-0.000142923
8.29368e-05
-2.75785e-06
-0.000120023
0.00012409
-0.000123652
-0.000100301
0.00012086
-0.000115329
0.000113991
-2.07509e-06
0.000114906
-0.000112891
-2.55685e-05
-9.37764e-05
6.93298e-05
-0.000139569
-3.45057e-05
0.000115508
-0.000110929
-1.08531e-06
0.000111972
8.75898e-07
0.000100057
-0.000100106
5.21049e-07
-0.000112206
0.000112011
9.57954e-05
2.81416e-05
0.000111939
6.90635e-07
-0.000112205
0.000113351
-7.37621e-07
-0.000112624
-7.91167e-07
0.000113332
0.000112046
-0.000112402
-2.7549e-05
-0.000112
-2.01433e-06
-1.2808e-06
0.000113367
-0.000120959
0.000124751
-0.000111752
0.000112332
-5.62125e-07
2.07453e-07
0.000110648
0.000109425
3.73509e-06
-0.000111804
6.31116e-08
-5.57662e-05
-4.85925e-05
0.000104163
-0.000134769
2.83827e-05
0.000103027
-9.94907e-05
-3.24293e-06
8.91059e-05
-0.000120004
3.07888e-05
0.000126219
-0.000121184
-4.40566e-06
-1.98866e-06
0.000122597
0.000117825
-2.87223e-05
4.27992e-05
-0.000111063
8.88416e-05
-0.000105253
1.60691e-05
-1.70135e-05
0.000104468
-0.000117232
0.000107205
1.00134e-05
0.000104479
-9.03837e-06
-0.000115136
0.000120827
-6.07236e-05
-3.97461e-05
9.21103e-05
-0.000116918
0.000112534
-3.46344e-06
-0.000111683
-7.84625e-05
-8.13035e-05
-9.94398e-05
1.2599e-06
9.72255e-05
-0.000113124
0.000110191
2.38478e-06
0.00011199
-0.000114414
-6.13639e-06
-0.000116393
0.000116118
1.71893e-06
0.000113193
-0.000114726
0.000136825
-6.68861e-05
-6.99387e-05
5.19593e-06
0.000107703
9.49855e-05
2.86742e-05
-0.000118027
4.8135e-06
0.000113159
-0.000117871
4.98402e-06
-2.80628e-05
8.88696e-05
-0.000118019
2.93344e-05
-3.32649e-05
8.90502e-05
-0.000104292
1.54858e-05
-0.000111373
0.000105319
-0.000108372
-4.46088e-06
-1.76506e-05
0.000105172
4.87e-06
5.10664e-05
8.35007e-05
0.000122592
-0.000120055
0.000114254
-9.12847e-07
-0.000116236
4.90852e-05
0.000111405
-2.74099e-07
-0.000110975
-0.000108383
0.000128979
0.000105832
-8.90624e-05
1.16431e-06
-0.000107378
1.75017e-06
-0.000112936
0.000111556
-3.14094e-06
0.000120226
6.51168e-05
6.19075e-05
-0.000126981
8.05224e-05
6.54994e-05
-0.000139485
-0.000100014
-1.98696e-06
0.000105644
-1.48368e-07
-0.000112981
0.000113185
7.45184e-06
0.000116183
-0.000116416
0.000113024
-0.000113173
0.000115407
-0.000116369
9.83627e-07
-3.31061e-07
0.000113656
-8.83261e-07
0.000113076
-0.000112477
0.000114279
-0.000114386
-0.000123096
-6.38194e-05
0.000116637
-5.20976e-05
-6.66712e-05
0.000119792
-5.27912e-05
-0.000138297
3.79672e-05
0.000112963
-0.000112021
8.21346e-07
-0.000113927
0.000112796
-1.27082e-05
0.000123217
-0.000110512
0.000126423
-7.96408e-05
9.32957e-05
2.89461e-05
-0.000110704
3.44363e-06
0.000107256
7.37886e-05
-0.000123866
4.97733e-05
0.000120416
6.02257e-06
-0.000115535
-0.000136334
7.92367e-05
5.70952e-05
-2.83335e-05
0.000109665
-0.000107122
-0.000116042
-1.2573e-06
-0.000109425
0.000111653
-2.13727e-06
1.39143e-06
-0.000110728
-0.0001106
0.000102845
1.0899e-05
-0.000116448
0.000115149
1.29306e-06
-0.000113349
-3.18392e-06
8.68772e-05
-0.000117844
3.1159e-05
-0.000120418
-2.3271e-07
0.000116264
-2.91842e-05
-0.000137105
8.39578e-05
-0.000118987
0.000113291
5.61705e-06
-0.000117443
-1.54642e-06
-0.000115887
0.000113434
2.38386e-06
-0.000113623
-2.37317e-06
-0.000116373
-0.000113456
0.000113509
-2.12506e-07
-0.000116239
8.7066e-06
0.000107528
0.000114512
-0.000112182
-9.92496e-05
-4.25785e-08
-0.000115977
4.52753e-06
0.000111446
-0.000108902
-2.9145e-06
0.000111817
9.01674e-05
-1.08971e-06
0.000109735
-0.000108468
-0.000111989
-2.22561e-06
0.00011422
-0.000113276
2.43202e-06
0.00011086
-6.15978e-05
-7.61682e-05
3.93716e-06
0.000119632
-5.01381e-05
0.000116985
4.54934e-06
0.000108905
1.863e-06
-0.000110759
6.68629e-07
0.000112226
-0.000112901
-0.000109655
0.000118216
-4.94948e-05
0.000115154
-5.27066e-06
-0.000109888
-0.000114697
2.04395e-06
0.000112662
9.19378e-05
2.93279e-05
-0.000113251
1.13754e-06
0.000112133
0.000107601
1.9935e-06
-0.000109592
-2.86335e-05
0.000118668
-1.94489e-06
-0.000113021
2.54156e-07
0.000113095
6.32994e-06
8.12053e-07
-0.000113815
-0.000111471
0.000112304
7.55113e-07
-0.00011243
-0.000119505
0.000120472
0.000114092
-3.58017e-06
-0.000110508
8.6132e-05
-0.000115932
2.98418e-05
-3.33648e-05
0.000123144
-0.000123065
-0.000118082
0.000116266
1.8865e-06
-0.000113187
2.56814e-06
0.000110609
-6.75509e-05
-7.53754e-05
-0.000117113
0.000100778
0.000113367
-0.000112796
-5.7248e-07
-0.000112038
4.01946e-06
-0.000115951
4.25618e-05
-0.000111762
-1.88704e-07
-0.000109056
0.000107851
-6.91145e-07
0.000108614
-0.000107836
-0.000114335
3.52392e-06
0.000110823
0.000127376
-0.000138698
0.000119564
-0.000114363
0.000110454
-0.000114836
-0.000115376
0.0001095
7.93576e-08
0.000114825
-1.73505e-06
-0.000112958
0.000112144
-0.000116671
0.000113911
0.000118694
-0.000118638
-0.000117797
0.000115204
2.49839e-06
-0.0001135
-4.43481e-06
-0.000120393
0.000115612
4.78647e-06
-0.000116054
-4.20021e-06
-0.000120158
0.000115441
4.74701e-06
-0.00011608
-4.18356e-06
-0.000120709
0.000115848
4.75761e-06
-0.00011651
-4.19521e-06
0.000145608
-9.52236e-05
-1.16913e-06
-0.000110544
0.00011167
-0.000120455
0.000116
4.73456e-06
-0.000132344
7.0872e-05
6.16755e-05
-0.000116235
-4.15859e-06
-0.000120811
0.000115911
4.70134e-06
0.0001145
0.000104032
-9.21058e-05
-1.38348e-05
8.81948e-05
1.40996e-05
-0.000102317
-0.000116813
-4.14271e-06
0.000115069
-0.000121004
0.000116414
4.63279e-06
0.000118173
5.04082e-06
-0.000116706
-4.08133e-06
-0.000135763
3.14802e-05
-0.000111729
1.24875e-06
0.000110544
-0.000120638
0.000116116
4.53156e-06
-6.75759e-05
-5.23517e-05
0.000119904
-0.00011684
-3.97306e-06
9.95274e-05
-0.000102143
2.44938e-06
4.37968e-06
-0.000109295
0.000104918
-0.000121143
0.000116607
4.48387e-06
-0.000111004
-5.68587e-06
-0.000117225
-3.8949e-06
9.93193e-07
-0.000112
-0.000100571
-9.04255e-06
5.33338e-05
-0.00012093
-0.000115128
-5.19288e-06
0.000100925
-1.11747e-05
-0.00010996
0.000114918
-4.96634e-06
-0.000112101
2.14491e-06
-0.000120782
0.000116668
4.36676e-06
-0.000117002
-3.76683e-06
-4.19446e-06
0.000110748
-0.00010654
8.26328e-07
0.000111318
-0.000112018
-0.000120681
0.000116079
4.30407e-06
-0.000117602
-3.15883e-06
0.000116588
-0.000118923
2.7198e-06
-2.55908e-06
0.00012261
-0.000121423
-0.000121461
0.000117215
4.09614e-06
8.62886e-05
-0.000116953
3.05683e-05
-0.000117837
-3.56546e-06
3.44438e-06
-0.00010925
0.000105782
9.80187e-05
1.39189e-05
-0.000120613
0.000117107
3.91285e-06
0.000112169
-7.74275e-06
-0.000104584
-0.000117258
-3.33075e-06
0.00011472
-2.84543e-05
-2.22484e-05
1.69908e-06
-0.000109103
0.000107392
0.000111288
-0.00011451
3.23115e-06
-2.39402e-07
0.000111541
-0.000121259
0.000117017
3.76008e-06
-0.000118184
-3.23593e-06
-0.000127837
0.000116768
1.929e-05
2.88856e-06
-0.000109381
0.000106492
3.77577e-06
-0.000110326
0.00010656
-0.000120335
0.000117181
3.63943e-06
2.33214e-06
-0.000111828
0.000109492
-0.000117452
-2.45356e-06
-6.97799e-06
0.000115607
-0.000115276
-2.78435e-06
-0.000119906
0.000116988
3.36297e-06
-0.000117671
-2.20798e-06
-0.000113088
0.00011345
-3.58226e-07
-0.000112754
0.000114649
-1.9001e-06
-7.44358e-07
5.5526e-05
-0.000117311
-5.51765e-07
-0.000112197
-0.000111497
0.000112138
0.000116165
-0.000119013
1.79397e-06
-6.25743e-05
-6.33825e-05
0.000112432
-0.000120336
0.000117414
3.03333e-06
4.9128e-07
0.000110782
-0.000111257
-0.000118011
-2.46397e-06
-1.34326e-07
-0.000111142
0.000111302
-4.0738e-06
0.000109694
-0.000105621
1.69736e-06
-0.000113206
-0.000112056
0.000113887
-0.000120907
0.00011776
2.85323e-06
-0.000118621
-2.27306e-06
-0.000113992
6.02987e-08
0.000114205
-0.000110669
-1.83959e-06
0.000112616
-0.00011956
0.000117396
2.64518e-06
-0.000111746
-0.000117986
-1.48463e-06
-0.000116461
0.000118251
-1.84343e-06
-1.22188e-06
-0.000120193
-0.000119601
0.000117354
2.30392e-06
-0.000118175
-1.75259e-06
-0.000113618
2.10609e-06
-3.84737e-06
-0.000120993
0.000118495
2.15544e-06
-0.000119283
-1.55378e-06
-4.78267e-05
-6.60222e-05
-3.12077e-07
0.000111878
-0.000111582
-0.000112805
0.000112468
0.000110821
-0.000109656
-0.000118915
0.000117856
1.84661e-06
-0.000112481
-2.83181e-07
0.000112871
-0.000117682
-1.28491e-06
6.51948e-07
0.000110701
-0.000112435
-0.000118922
0.000121771
-0.000114476
9.18275e-07
0.000113515
-8.2331e-06
-0.00012067
0.000117889
1.67805e-06
-0.000119721
-1.09102e-06
0.000113699
1.47038e-06
-0.00011908
0.000118941
1.47508e-06
-0.000117563
-8.56384e-07
6.18746e-07
-0.000119599
0.000108477
-0.000117156
0.000117221
-1.28198e-07
-8.10838e-05
-4.4265e-05
0.000127249
-6.97028e-06
8.46452e-05
-0.000115152
3.07281e-05
5.7707e-06
-0.000122012
0.000103815
-2.16378e-06
-0.000102878
-3.32803e-05
-0.000110625
6.36153e-06
0.000105567
-5.73849e-06
-0.000111243
-6.52029e-05
-5.96727e-05
0.000119641
-0.000117333
0.000115285
2.13559e-06
-0.000116186
-1.08828e-06
-3.8828e-06
8.76878e-05
3.02918e-05
0.000111331
-0.00011081
-0.000116884
0.000116157
8.55449e-07
0.000111231
9.45267e-05
3.07833e-06
-9.7605e-05
-1.65633e-06
-2.9755e-05
0.000102384
-7.85679e-06
0.000118467
-1.23946e-06
1.11865e-06
-1.75755e-06
0.000114062
-4.73292e-06
-0.00010802
0.000116323
-9.05345e-07
-1.47275e-06
0.000120034
6.60071e-05
7.79586e-05
-0.000131777
7.71816e-05
5.4412e-05
-8.55099e-05
-5.27903e-05
-1.44423e-05
0.000115894
-6.69256e-07
-0.000112763
-0.000119836
-0.000137403
7.17255e-05
-0.00010928
0.000109945
0.000111835
-0.000110964
-2.2038e-07
-0.000111886
-1.76711e-07
0.000111843
0.00013664
-5.10374e-05
-0.000112116
6.95935e-07
0.000111223
6.54417e-06
-0.000112829
0.000105838
-0.000111443
1.12867e-06
-0.00011848
4.49339e-05
0.000126761
-9.88871e-05
-2.31161e-06
0.000111867
-0.000109514
-3.71191e-06
-0.000110057
0.000113523
7.2778e-05
-0.000123549
5.05703e-05
0.000107508
-0.000111687
0.000115959
-0.000102615
-0.000149915
8.8635e-05
6.12917e-05
-0.000112583
4.09901e-07
0.000112007
-6.42977e-07
-0.000111781
-0.000139413
7.03397e-05
0.000105157
6.40641e-06
-0.000110723
0.000110415
-9.5133e-06
-4.90238e-06
2.20681e-06
-0.00011938
7.56864e-06
6.38346e-07
-0.000113252
0.000114585
-0.000113545
-4.15387e-07
0.000110029
-0.000109714
3.73417e-05
-0.000114538
0.000111994
-7.38678e-07
-0.000115
0.000116352
-1.46967e-06
0.000120572
-0.000123332
-0.000115892
-4.77214e-07
-5.27839e-07
-0.000112457
-6.61237e-05
0.00010015
-3.52818e-05
-6.10206e-07
-0.000112595
0.000114048
9.10994e-05
1.28017e-05
-0.000103787
0.000113292
-0.000111208
8.19473e-05
-0.000113616
3.19909e-05
0.000102118
-1.09029e-05
-1.77812e-06
-0.000111633
0.000110351
-0.000109778
0.000107553
-0.000111503
0.000111907
-2.94416e-05
-3.70572e-06
-0.000107877
0.000111514
-0.000112549
0.000109453
-6.60092e-05
0.000129943
-6.38996e-05
-0.000119448
0.000117339
2.14372e-06
-3.5985e-06
0.000109864
-0.00011103
-6.80825e-05
-6.82496e-05
0.000107705
-0.000111891
-4.37201e-06
0.000110303
0.000124041
-8.49287e-05
-6.9375e-05
0.000135168
-6.10125e-05
0.000110937
-0.000119352
1.50007e-06
0.000136341
-7.86491e-06
-0.000100945
3.4447e-05
-1.39909e-06
0.00010091
5.39145e-07
0.000116413
-0.000120087
5.61791e-06
0.000112902
-0.00011852
-0.000120135
0.000118413
1.52231e-06
-2.8575e-06
-0.000115662
2.08252e-06
-2.61229e-06
0.000107355
-0.000104795
-0.000116072
9.57513e-05
1.46162e-05
-0.000119936
0.000118694
1.25061e-06
-0.000134705
2.74167e-05
0.000107656
-0.000110315
-2.59965e-06
-2.20556e-05
0.000114214
-2.02028e-06
-1.35441e-06
-0.000111647
0.000113007
0.000116569
-5.0468e-05
-0.00011554
9.90197e-07
-0.000109737
0.000107318
0.000105571
-2.62631e-06
0.000111873
6.43962e-06
-0.000116787
0.000111701
-0.000119636
0.000119133
5.50309e-07
-0.000108527
6.0204e-07
0.000108464
-1.8366e-06
0.000125442
-8.27359e-05
-0.000108636
-4.98632e-06
0.00011101
-0.000109769
0.000113169
-1.44945e-06
0.000116177
-2.0115e-06
7.94838e-05
-0.000110414
3.06327e-05
5.67864e-06
0.000108507
-0.000113208
-0.000111852
0.00011269
0.000128321
-0.000118515
0.00010999
-3.06925e-05
4.65098e-06
-0.000116015
0.000110652
-5.93803e-06
0.000117024
-0.000111227
7.72962e-06
0.000105877
-0.000112192
-0.00010675
0.000115395
0.000140662
-0.000111403
-2.93003e-05
5.23855e-06
-0.000108312
0.000103154
-0.000118644
0.000119619
-7.30789e-07
0.000108092
-0.000102801
5.03363e-05
9.02686e-05
0.000115731
-9.64463e-07
4.69976e-06
-0.000113448
0.000109373
5.39004e-06
-0.000115172
0.000109034
9.54352e-06
0.000102666
-0.000112186
9.26753e-07
0.000110737
-0.000111833
-0.000118019
0.000106729
-0.000108001
0.000116131
-1.39087e-06
1.14959e-06
0.000109686
-0.000110897
0.000113598
-0.000107254
0.000110861
-0.00011836
1.42002e-06
4.28103e-06
0.000115448
-7.78401e-07
6.81757e-07
-0.000111311
0.000108752
-0.000110377
-2.67901e-06
0.000105158
-0.00011036
-0.000110537
0.000105967
8.59236e-05
3.04187e-05
-0.000114555
0.000113514
1.08879e-06
0.000117473
-0.000116893
1.2788e-08
0.000118844
-3.53033e-07
-2.99746e-05
0.000110734
1.54612e-06
0.000117471
-0.00011847
2.25202e-07
-0.000117854
0.00011878
-7.57701e-07
0.000117697
-6.98683e-07
9.903e-06
0.00010672
-0.000116623
-9.75125e-05
0.000107415
1.15714e-05
-0.000109087
-0.000107458
0.000103108
-0.000117619
3.98309e-07
-4.54155e-06
8.79391e-05
-0.000101523
1.35859e-05
-2.64593e-07
0.000117051
0.000107496
-0.000111286
0.000114785
9.29404e-05
-5.01178e-06
-0.000117411
-8.13524e-05
0.000104367
-2.20114e-05
0.000144974
-9.73086e-06
0.000110329
-0.000100765
7.8425e-05
-0.00010911
3.09635e-05
0.000109722
-3.11225e-05
9.63987e-05
-0.000107824
0.000117134
-6.20854e-06
-3.28076e-07
-0.000108579
0.000113207
-4.57853e-06
-9.85708e-05
9.75021e-05
-9.89347e-05
5.25148e-06
-0.000114241
-0.000114662
9.17836e-07
-1.47505e-06
0.000113144
-0.000111478
0.000111703
5.02585e-06
0.000103104
-0.00010811
0.000107708
1.60972e-06
-0.000113259
-0.000108698
-7.34931e-06
-3.73672e-06
-0.000114568
-0.000118155
3.2305e-06
5.9775e-07
0.000109959
-0.000110559
-0.000113948
-2.30695e-06
0.000117616
-0.000117834
2.2351e-06
-6.85826e-05
-8.13271e-05
-0.000113714
3.00355e-07
-0.000118127
-2.058e-06
-5.67455e-05
-7.59515e-05
5.82969e-06
-0.000122378
-0.000104346
-0.000111473
-2.26305e-06
0.000106112
-0.000109617
3.33371e-06
-0.000107132
-1.8493e-06
0.000110423
0.000109136
2.69764e-06
-0.000110349
-0.000120985
0.000120739
-0.000115407
0.000119066
-7.157e-07
1.28617e-05
-9.29181e-05
-0.000113454
6.91865e-06
-0.000117367
3.56849e-07
-0.000117438
3.56212e-07
-0.00011694
3.69561e-07
-0.000117397
2.80895e-07
-1.03649e-06
-0.000118455
1.25181e-06
-0.000114622
5.70534e-05
-1.08978e-06
-0.0001172
3.64523e-07
-9.67345e-07
0.000113259
-1.0951e-06
0.000113898
-0.000116926
3.06189e-06
-0.000117792
2.14465e-07
-1.07513e-06
-0.000138749
7.76907e-05
6.10861e-05
-0.000116609
2.99993e-07
-8.96352e-07
-9.79171e-07
-0.000111382
0.000114127
-2.75224e-06
-0.000117575
5.94255e-08
0.000113885
-0.000122509
8.43653e-06
-0.000116612
2.70017e-07
-9.5031e-07
6.56358e-08
-0.000116467
2.26401e-07
0.000116113
-0.000114484
-1.78926e-06
-0.000117379
-9.21594e-08
-9.05405e-07
-4.42123e-06
-0.000116043
1.29378e-07
-5.57885e-07
-0.000115576
-9.20141e-07
-0.000117953
-1.98492e-07
-8.3327e-07
-0.00012554
5.95953e-05
0.000104783
-0.000108944
7.45279e-05
-0.000107781
3.26788e-05
-4.59417e-07
2.06056e-06
0.000113376
-2.12682e-06
-0.000111705
-9.76819e-08
-0.000117
-3.88698e-07
0.000110879
-0.000110306
2.80731e-06
-0.000111442
2.94104e-06
-1.19821e-06
-2.47657e-07
-3.72055e-05
3.03293e-06
0.000110633
-0.000113932
-0.000117212
-6.56259e-07
1.04058e-06
-0.000108194
-9.89686e-07
0.000109178
7.58441e-07
-0.00011749
-9.10952e-07
1.01946e-06
0.000131797
-0.00011732
-1.11015e-06
4.36105e-07
-0.000116726
-1.33936e-06
1.20984e-06
-0.000114007
1.05431e-05
-0.000111014
6.94443e-07
5.06233e-06
-0.000109511
0.000104451
-0.00011717
-1.58744e-06
0.000109255
-4.92287e-09
-0.000104319
0.00010938
-0.000113293
-1.2282e-06
1.72135e-06
-1.69243e-06
-0.00011234
0.000113862
-0.000114194
-5.57269e-07
0.000111422
-0.000116807
-1.83153e-06
1.19373e-06
-0.000116118
-2.07001e-06
9.53443e-05
1.43786e-05
1.45586e-06
-0.000109248
-2.01462e-06
0.000110308
-0.000117227
-2.24482e-06
0.000112102
0.000116293
-5.15257e-07
-2.2069e-05
1.64385e-06
-1.21821e-06
-0.000117593
-0.00011553
0.000115153
-2.38018e-06
-0.000115129
-2.50575e-06
-0.000117764
0.000118338
-1.60643e-06
-0.000119029
1.12026e-06
1.57692e-05
-0.000114858
9.85945e-05
1.93038e-06
-0.000117273
-1.93466e-06
2.14233e-06
-5.48034e-05
-7.5295e-05
0.000129856
-1.87852e-06
-0.000115399
0.000117602
0.000106253
-0.000108807
3.61224e-06
-0.000115615
-2.84839e-07
0.000115379
-0.000116826
-4.3048e-06
0.00011033
-0.00010603
1.28268e-06
-0.000112437
-1.4537e-06
0.000110992
1.54921e-06
0.000106266
-0.000109781
-7.05381e-05
0.000135691
-0.000105969
-0.000113694
0.000114803
-1.78137e-06
3.97367e-06
0.00010954
-3.56429e-07
0.000113974
-0.000112607
-9.83511e-07
0.000115216
-0.000114128