/*--------------------------------*- C++ -*----------------------------------*\
  =========                 |
  \\      /  F ield         | OpenFOAM: The Open Source CFD Toolbox
   \\    /   O peration     | Website:  https://openfoam.org
    \\  /    A nd           | Version:  12
     \\/     M anipulation  |
\*---------------------------------------------------------------------------*/
FoamFile
{
    format      ascii;
    class       volScalarField;
    location    "4.12";
    object      T;
}
// * * * * * * * * * * * * * * * * * * * * * * * * * * * * * * * * * * * * * //

dimensions      [0 0 0 1 0 0 0];

internalField   nonuniform List<scalar> 
22702
(
1
1
0.963586
1
1.01888
1
1.12009
1
1
0.900788
1.12074
1.12023
1
1.11904
0.9694
1
1
1
1.12039
1
1.11853
1
1.11906
0.904333
1.11993
0.88184
1
1.11965
0.897404
0.899059
1
1.12026
1
1
1
1.11074
1.11936
1.11911
1
1
0.901602
1
1.06253
1
1.11975
1
1
1
1
0.900933
1
0.899467
1
1.12075
1
1.12057
1
1
1
1
0.878306
1
1
0.896251
1
0.898175
1
1
1
0.893722
1
1.11838
1.07574
1
1.11836
1.12504
0.895752
1.11994
0.900638
1
1.12065
0.896758
1.11925
1.11933
1
1
1
1
0.981734
0.896761
1.12037
1
1
0.894153
1
1.11878
0.893971
1
1
1
1
1.0626
1.12059
0.890266
1
1
1.03224
1
0.896892
1
1.12001
1.12044
1
1
0.87857
0.878684
0.896339
1
1
1
1
1
0.978214
1
1.10283
1.01117
1.12021
1
1.11998
1.12025
1.11879
1.1211
1
0.890994
1
0.888189
1
1
1
1
1.12036
1
1
1
1
1.11905
1
1.00702
1
1
1
1
0.900759
1
1.00308
1
0.901103
1
1
1
1.12005
1
1.11854
0.881942
0.876705
1.11857
1.11858
1
1.02397
1.07112
1
1.12066
0.899593
1.11184
1
1
1
1
1.11853
1.09962
1
1.12045
0.897754
1.12059
1
0.890509
1
0.898668
0.879727
0.999944
1
1
1.11966
1
1
1.11858
1
1.11918
1.12046
0.89653
1
1
0.894532
1.11854
1
1
1
1.11852
1
0.8928
1
1
1.11852
1.11855
1.11951
1
1.00001
1
1
1
1.11831
1
0.898476
1.12333
1.11856
1.11699
1
1
1
0.892408
1.11863
1.06013
1
1.11861
0.898328
0.896217
1.11845
1.11905
1
1.11843
0.890978
1.10582
1
1
1
1
1.11858
1
1.0721
1.01236
1
1
1.1186
0.894402
0.926606
1
1.11869
0.891181
1.1176
1
1
1
1
1
1
1
0.897891
0.925238
0.895864
1.11851
1
1
1
1
1.10837
1
0.896825
1
0.890614
0.896649
1.11862
0.89932
1.11812
1
1
1
0.999351
0.890082
0.891283
1
1
0.888632
1
1.12004
0.894989
1
1
1.12062
0.887375
1
1.11771
0.875016
1.1186
1
0.892941
0.999362
1
1
1
0.899719
1
1
1
1
1.00521
1.07606
1
0.888492
1
1
1
1
1
1
1
1.12087
1
1.12056
1
1
1
0.885999
1
1.11896
0.898476
1
1.09293
1
1
1.12113
1
1
1
1.11808
1
1
1.11682
1.12085
1
1.02949
1
1
0.889612
1
1
1
0.893403
1
1
1
1
0.882925
1
1
1
1
1
0.890712
1.00002
1.11847
1
1
1.11845
1.11871
1
1
0.898616
0.944188
1.12105
1
1
1
1.11858
0.891186
1
1.11848
1
1
0.914527
0.911566
1
0.890587
0.88696
1
1
1
1
1
1
1
1.12054
1.0315
1.11152
0.893318
0.974425
1.12033
1
1.11865
1.12082
0.893018
0.933737
1
0.895219
1
1.12432
1
1
1
1
1.11856
1
1
1
1
1
1
1
1.04737
1.11957
1
1.11853
1
1
0.897308
1
1
1
1
1.11849
1.09266
1
1
0.893362
1.11848
1.11845
1
1.11848
1.11856
1.11856
1
0.950364
1
1.11851
0.997468
1.11855
1
0.895099
0.999674
1.12082
1
1
1
1
0.896084
1.11855
1.10892
1
1.11823
1.11855
1.1208
1
1.0607
1.11725
1
1
1.08535
1.01822
1.11844
0.981834
1.11843
1
1.11844
1.11852
1.11847
1.11844
1
1.11214
0.977239
0.967428
1
1
1
1
1.12084
1
1
1
1
1
1.12095
1
1
0.998927
1.11843
1.10657
1
1.10096
1.00001
1
1
1.11847
1
0.999023
1.0012
1
1.1186
1
1.11867
1
1
1.09034
1
1.11865
1.00001
1
1.11829
1
1.11846
1
1
1
1.11858
1
1.11926
1
1.11856
1.12033
1.11849
1.11999
1
1.12126
1.11913
1
0.891788
1.11176
1.08813
1
1.11857
1
0.891754
0.873852
1
1
1
1
1
0.895669
1
1.11852
1.03294
1.11845
1
1
1
1
1
1.1185
1
1.12022
1.07349
0.934698
1
1
1.03656
1.03075
1
1
1.04747
1
0.899727
1.11859
1.11859
1
1
1
1.12036
1
1.00001
1.11754
1.11871
0.987466
1
1
0.897909
1.10863
1
1
1
1
1
1.11845
1.12135
1
1.11837
1.11889
1.11857
1
1
1
1
0.889842
1.12049
1
1
1.10865
1.11812
1
1.11216
1.11962
1
1
1
1
1
1.1186
1
1
1
1
1.12022
1
1.11812
0.892
1
0.891452
1
1
1
0.999043
0.895754
0.999724
1
1
1
1.01769
1
1
0.962647
1
1
1
1
1
1
1
0.999999
0.97893
1
1
0.999327
1
0.895426
1
1
1
1
1.09068
1
1
1
1
0.897589
1
1
1.11214
1.12005
1
1
1
0.968099
1
1
1
1
1
1
0.986822
1.00549
1.11771
1
1
1
1.11837
0.974681
1
1
1
1.1195
1.11899
1
1
1
1
1
1
1
1
1
0.888261
1
1
1.11973
0.893367
1
1.1196
1
0.900215
1
1
0.888222
1
1
1
1
1
1
1
1.11662
1.11831
1
1
1
1
1.10895
1
1.0407
0.888599
1
1
1
1
1
1
1
1.00987
1
1
1.06621
1
1
1
1.10009
1
1
1
1
0.891816
1
1
0.881208
0.893473
1
1
1.11855
1
1.00719
1
1
1
1.08594
0.892295
1
0.888473
1
0.935241
1
1
1
1.11861
1
1
1.1185
1
1
1
1.11841
1
1
1.11853
1
1
0.89412
1
1.03981
1
1
1.12071
1.1203
1.08116
1.10748
1
0.895103
1
1
1.11373
1
0.886986
1
1
1
1.11873
1
1
1
1
1.0748
1
1.10758
1.11932
0.896217
1
1
0.888688
0.883343
1
1
1
1.08721
1.092
1
1
1
1
1
1
1
1.05377
1.12057
1.00326
1
1.11805
0.886259
1
1
1
1.06861
1
1.02489
1
1.10895
1.11795
1
0.895242
1
1.12083
1
1
1.11884
1.11186
1
1.12138
1
0.893668
1
1
1
1.11989
1.11667
1.10567
1
1.11933
1.11851
1
1.11877
1
1.11787
1
0.890937
0.994967
0.885101
1
1
1
1
1
1.11847
1
1.11857
1
1
1
1.1134
1
0.900052
1.11858
1
0.896374
0.900392
0.895784
1
1.06013
1.01108
1.11866
1.11851
1
1
1
1
1.11851
1
1
1.11852
1.11851
1
1.04455
1.00013
1
0.99905
1.12009
0.957802
1
0.948264
0.900308
0.89905
0.989657
1.11896
1.11686
1.02749
1.11865
1.11851
1
1
1.12143
1.11975
1.11871
1.12082
1
1.11847
0.892949
1.11989
1.11946
1.1195
1.11821
0.962531
0.971474
0.978644
1.11857
0.987574
1.11857
1
1
1.11878
1.11844
1
0.894802
1.11896
1.11844
1
1.11863
1.11846
1
1.11847
0.896446
1.11824
1.12133
1.12108
1.11801
1
1
1
1.11846
1.07969
0.894521
1.11842
0.883254
1.11845
1
1
1
1
1.119
1.11849
1
1
1.1185
0.884418
1.1186
0.896853
1
1.11804
1
0.901907
1.11894
0.923258
1
1.11853
1.11908
1.11825
1
1
1.05672
1.11892
0.896338
1.11859
1
1.11924
0.96243
1.11839
0.889739
1
1.11917
0.903903
1.11877
0.895908
1
1.11876
1
1.11922
1
1.07228
1.11455
1.0954
0.880986
1
1.11866
1
1.11871
1
1.11873
1
1
1.1188
0.996903
1.11916
0.902233
1.1126
1
1.08658
1
1.11865
1.11869
1.11901
1
1.10766
1.1189
1.11099
1.07527
1.11926
1
1.08102
1
1.11892
1
1.0197
1
1.11039
1
1.1192
1.11348
1.11363
1
1.11712
0.873188
1
0.89163
1
1
1
1.12052
1
1.11877
1
1
1
1.1187
1.11396
1.09963
1.1194
1.11879
0.891221
1.12012
1.11969
1
1.10682
1.11859
1.1122
1
1.1208
1.12067
1
1.1204
1.11863
1.11872
1.119
1
1
1
1.11841
0.883386
1
1.11868
1
1
0.875305
1
1
1.1183
1.11867
1
1.11864
1.1179
1.11862
0.994967
1.11858
1
1.11857
1.11878
1.10054
1
1
1
1.1185
1.11853
1.11856
0.985718
1
1.12073
1.11847
1.1186
1
1.11842
1.11888
1.1184
1.12036
1
1.11859
1.11858
1.10533
1.11906
1.1197
1
1.12022
1.11725
1.11869
1.11926
1.119
0.879939
1.11884
1.11906
1
1.11858
1.11841
1.11863
1.11864
1
1.11863
1.11848
1
1.11852
1.10167
1
1
1
1.11875
1.11999
1
1
1.06875
1
1.11796
1
1
1.11847
1.11936
1.11845
1.11851
1
1
1
1.08778
1
1.1181
1
1
1.12084
1.12147
1
1.11847
0.880958
1.1185
1.11825
0.915187
1
0.87844
1.10581
1.11792
1.11916
1.11921
0.89505
1.11898
1.11893
0.892396
0.882168
1
1.11868
1.11855
1
1
1.11871
1
1.11885
1
1.1052
1
1.05887
1.11876
1.11912
1.08838
1.10526
1.11999
1.11926
1.10922
1
0.881157
1.11882
1.11861
1.12035
1
1
1
1.11882
1
1.11865
1.11843
0.928216
1
1.11849
0.999983
1
1.00001
1.00001
1.11856
1.11861
0.999563
1
1
1.11834
1.11895
1.11814
1.11847
1.11929
0.889969
1.10293
1
1.11804
1.11858
1.11841
1.11576
1
1.11864
1.11582
1.11896
1
1.11882
1.11915
0.962998
1.11859
1.11893
1
1.11898
0.955351
1.11848
0.960971
1.11868
1
1.11842
1.1229
1.11868
1.11875
1.11836
1.11897
1.11886
1.11952
1
0.981011
1.11859
1.11845
0.952351
1.11853
0.99525
1.07856
1.11862
1.11836
1.11954
1
1.11905
1.07959
1.11911
0.980553
1.11915
1.12111
1
0.959523
1
1.11935
1
1.08453
1
1.11199
0.959316
1
1.12022
1.11895
1
1.11921
1.11878
1.12044
1.12066
1.12064
1
1.12006
1
1
1
0.968093
1.11841
1.11806
1.11827
1.11849
1.11959
1.11849
1.11799
1.11878
0.971632
1.00934
1
1
1.12294
1.11874
1.11869
1.11861
1.00001
1.06406
1
1.12042
1.10306
1
1
0.919213
1.11876
1
1
0.895493
1.11857
1
1.11987
1.11845
1.11999
1.11436
1.11834
1
0.880246
1.0313
1.11872
1.11846
1
1.11925
1.11832
1.06317
1.00312
1.02795
1
1.11922
1.1186
1
1
0.892605
1
1
1.11863
1.11861
1.11807
1.11818
1.11873
1.12045
1.1186
1.11821
1.11853
1
0.99891
1.11869
1.11835
0.999049
1.11843
1.11844
0.886088
0.896104
1.11835
1.12084
1
1
1.00058
1.11859
1.11789
1.11856
1
1.1183
1
0.959119
1.12063
1.12077
1
1.05742
1.11847
1
1.12046
1
1.11852
1.08451
1.11848
1
1.11869
1.1188
0.888953
1.11889
1
1.11867
1.12013
1
0.885011
1.11933
1.10466
0.999312
1.11315
1.11847
1
1.0002
1.11969
0.999387
1.11851
1
1
1.11888
1
1.11898
1.11836
0.998904
1.0962
1
1.11838
1
1
1
1
1.11862
1
1
1.11834
1
1.11869
1
1.0784
1.11777
1.11821
1
1
1.00071
1
1.11859
1.11877
1.1189
1.11862
1.11884
1.11896
1.11862
1
1.11865
1.11847
1
1.11878
1.11835
1
1.11819
0.979608
1.0168
1.11881
1.11848
1.1184
1
1.11858
1
1.11862
1.11861
1
1.11915
1
1
1
1
1.11839
0.883293
0.999375
1
1.11866
1.1197
1
1.11856
1
1.00143
0.889951
1.11845
0.99989
1
1.1194
0.999513
1.11885
1
0.999938
1
1.11961
1.12017
1.11864
1.11983
0.892399
1.11892
1.11915
1.11881
1.0313
1
1
1.05462
1.11868
0.880211
0.893794
1
1.11886
1.11853
1.11793
1
1
1.11925
1.11795
0.999966
1
1.08949
0.88238
1
1.02355
1.12023
1.117
0.999498
1.11865
1.12113
1
0.999673
1
1.11825
1.12002
1.05063
1
1.11381
1
1.00051
1.1181
0.897036
1.11851
1.11869
0.999128
0.999973
1.10784
1
0.999911
1
1.1193
1
1
0.879093
1.11877
1
1
1
1
1.12027
1.07111
1
1
0.886373
1.11827
1.07104
1
1
1
1.11364
1.11892
1.11925
1
1
1.11864
1
1.11852
1.11854
1
1
1.11918
1.11875
1.11409
1
1
1.11918
1.11872
1
1
1
1.11877
1
1
1
1.11859
1.11922
1.11921
1
1.11993
1.00001
0.906769
1.11846
1.11845
1
1.12051
1.11354
1.12088
1
1
1.11935
1
1.06867
1.11853
1
0.890327
1
1.11888
1
1
1.11849
1
1
1
1.03925
1.11874
0.900459
1
1.11858
1
1
1.11854
1
1.11952
1
1
1.11872
1.11847
1
1.00001
1
1
1
1
1
1
1.11861
1.1187
1
1.11983
0.890501
1.11986
1
1.1185
1.11814
1.11836
1.12101
1.12173
1
1
1.11793
1
1.07853
1.11984
1.11848
1
1.11899
1.12152
1
1.10726
1
1.11853
1.07931
1.11758
0.999328
1.1177
1.11072
1.11896
1.11878
1.01105
1.11856
1.11943
1
1.11864
1
1.11849
1
1
1
1
0.998777
1.11861
1.11864
1.1005
1
1.11977
1
1
1
0.882758
1
1.11554
1
1.10877
1.1151
1
1
1
1.1106
1.12085
1
1
1.11869
0.890304
1.02101
1
1.11979
1.11845
1.10913
1.11543
1.11846
1
1.11884
1
1
1
1
1.11855
1.11878
1
1.11606
1.01484
1.11845
1.11141
1
1
1.11166
1
1
0.894199
1.0873
1
1
1.12016
1
1.11948
1.10892
1
1.10888
0.887997
1.11879
1.11845
1.11884
1
0.900435
1
1
1
1.11837
1.0983
1
1.1202
1.11847
1
1.11848
1
1
1
1
1.11844
0.999801
1
1.11912
1
1
1.11719
1.11862
1
1.11932
1.02493
1.00001
1
1.11894
1
1.11866
1
1.00405
1.11858
1
1.11908
1
1
1.0381
1.11836
1
1
1
1
1
0.998912
0.892991
0.881203
1.00558
1
1.00921
1
1.00984
1
1.1186
1
1.07392
1
1.11837
1
1
1
1.11846
1
1.09556
1.11858
1
1.06509
1.11878
1
1
1.12025
1.11848
1
1
1.01659
0.883145
1
1.11879
1
1
1
1
1.02181
1.11868
1
1
1
0.893356
1
1.11857
1.11874
1.12104
1
1
1
1
1.06102
1.11922
1
1
1
1.1197
1.11884
1.01723
1
1
1
1.11842
1.11867
1
0.88716
1.11879
1.11848
1.11818
1.11825
1.11837
1
1
1.11863
1.11896
1.1185
0.895074
1.0114
1.11852
1
1
1
1
1
1.11853
0.890892
1
1
1.11856
1.05823
1
1.11873
1
1
1
0.894341
1
1
1.03179
1.1188
1.11824
1
1.11777
1.11901
1
1.02201
1
1.11956
1
1.11882
0.891249
1
1
1
1
1.11838
1.00002
1
1
1
1.11844
1
1
1
1
1.11869
0.892163
1.09479
1.11934
1
1.11867
1
1
1
0.999185
1
1.11774
1
0.94743
1
1
1.00001
1.11825
0.889901
1
1.11901
1
1.11816
1.11835
0.89366
1
1
1.11366
1
1
0.896311
1
1.11973
1
1.11379
0.999806
1.11861
1
1
1
1
1.12039
1
1
1.11846
1
1
1
1
1
1
1
1
1.08112
1
1.04003
1.11869
1
1
1
0.891031
1
1
1
1
1.11823
1.11858
1.01524
1
1
1.11862
1
1
1.11844
1
1
1
1
1
1
1.11862
0.93968
1.11888
1.11904
0.999193
1
1
1
1.07309
1
1
1.11818
1.11861
1
1
1
1
0.892135
1
1
1
1.07753
1
1.11853
1.11943
1
1.11876
1
1
1
1.06832
1
1.12077
1
1.11839
1
1
0.998923
1.11881
1
1
1
1
1
1.11789
1.00001
1
0.89519
1.11853
0.886054
1
1.11898
1
0.998794
1
1.11896
1.11926
1
1.11706
0.965895
1.11801
1.11656
1.00001
1
1
0.89169
1
1
1
1.11818
1.07103
1.11951
1
1
1
1
0.999081
1.11836
1
0.888448
1
1
1
1
1
1
1
1.11972
1.11872
1.12036
1
1
0.999108
1
0.995447
1
1
1
0.880365
0.994949
1
0.884243
0.893092
1
1.11885
1.11872
1
1.11889
1.11858
0.888719
1.08659
1
1
1
0.887932
1.11858
1
0.884155
1
1.11904
1.02285
1
1
1
1
1.1186
1.11983
1
1
1.11843
1
1
1.11976
1.11845
1
1.10761
1.11804
1.12007
0.989055
1.11933
1.00257
0.888742
1.09325
1.11859
1
1
1
0.883488
1
0.893255
1.11964
0.990989
1.11858
0.988823
1
1.11858
1.05722
1
1
1.11867
1
1.05291
1.11885
1
1
1.11855
1.1179
0.890238
1.0753
0.999971
1
1.07783
1
1.11974
0.984435
1.12172
1.11995
1
1
1
1
1.11823
1
1
1.11888
0.9999
1.11835
1.10166
1.11874
0.890968
1
1
1
1
1.11829
1.00001
1.11909
1
1.11852
1.11832
1.01637
1.1205
1.0393
1.11885
1
1.08461
0.889916
1.11909
1.11854
1.09718
1.02154
1.11954
1.11833
1.11862
1.11887
1
0.974478
1.01824
1
1.11856
1.0591
1.11882
1.00001
1
1
0.907087
1.11784
1.11936
1.09861
1
1.05013
1
1.11819
1.11722
1
1.11919
1.11908
1
1
1
1.11878
1
1.04955
1.11828
1.08493
1
1.11849
1
1
1
1
1
1
1
1
1
1
0.904529
1
1.11192
0.880984
1.07297
0.999599
1.11789
1
1.06472
1
1.07912
1.1033
1
1.00059
1.11903
0.974428
1
1.12073
1.11764
0.981916
1
1.11813
1.1183
1.11922
1
1.11868
1.1185
1.11865
1
1.05826
1
1.00002
1.11842
1
1.11862
1.01911
1.11894
1
1
1.11871
1.11983
0.902834
1
1.11844
1.0917
1.11853
1
1
1.11979
1.1193
0.999496
1
1.11039
0.999063
1.11859
1.00001
1
1
1
1
1.05869
1
1.09101
1.11886
1.09061
1.1191
1
1.00078
1
1
1.11977
1
1.11972
1
1
1
1
1
1
1.01587
1.06409
1
1
0.889674
1
1.1187
0.901764
1.11776
1
1.06096
0.999926
1.11886
1.07817
0.897672
1.06853
1.00001
1.11864
1.11862
1
1.07473
1.11945
1.11905
0.999541
1.11976
1.11729
0.884553
1
1
0.999277
1
1.11761
1
0.900975
1.11919
1
1
1.10639
1
1.11863
1
1.11858
1
0.895257
1
1
1.11817
1.11977
1.12112
1
1.11789
1.1186
1.1177
1
1
1.11797
1
0.923047
1
1
1
1.11889
1
1.11856
1.08089
1.11798
1
1.11879
0.999825
1
1
1
1
1
1
0.908714
1
1
1.11889
1
1.11819
1.11839
1
0.899408
0.886683
1
1.11893
1.02177
0.887847
0.885515
1
1.11933
1
1.1194
0.897249
1.00029
1
1
0.999862
1
1
1
0.999976
1.05352
1.11855
1
1
1.11896
1.07288
1
1.11108
1.11938
1.11912
1.05304
1.12022
1
1.11868
1
1.11461
1
1.11759
1.11852
0.999129
1.11873
1.12083
1
1
1
1
1
0.979055
1.11991
1.00001
1.00001
0.901492
0.999996
0.881769
0.891502
1
1.11861
1.11903
1.11874
1
1.11862
1
0.889101
1
1
1.11958
0.950789
1.11829
1
1.11814
1
0.996277
1.11859
1
1
1
1.11861
1
1.11874
0.891994
1
1
1.07223
1
1
1.06835
1
1
1.11871
1
1
1
1
1
1.11908
1.11836
1
1.11878
1.11893
0.894443
1.05734
1.11856
1
1
1.10758
0.999726
1
1
1.11863
1.11962
1.08108
1
1.11901
0.898813
1.11199
0.999807
1
1.11894
1.00001
1.11862
1.09886
1.09223
1
1
1.11872
0.912032
0.892336
1
1.11836
1
1.11832
1
1.07364
1
1
1.11843
1.07939
0.885639
1
0.999456
1
1
1.00735
1.05176
1.1187
1
1.11766
1
1
1
1
1
1
1.01867
0.888182
1
1
1.01278
1
1
1
1
1
1.11866
1
1
1.11865
1.11876
1.08908
1
1
1
0.953149
1.11918
1.08535
1
1
1
1
1.11839
1
1
1
1.11917
1
1
1.08851
1.1228
1.01041
0.92707
1.11941
1.08647
1.11918
1
1.06261
1
1
1
0.889664
1.00074
0.907355
1
0.895548
0.886949
1
0.890009
1
1
1
1.05499
1
1.11906
1.11874
1.00037
1.06177
1.10456
0.887868
0.929539
0.967196
1
1.11803
1.1199
1.11848
1.11835
1.10371
0.96184
1
1.104
1
1.11679
1
1
0.998982
1.00276
1
1
1
1.11898
1
0.886893
1
1.1189
0.896933
1
1
1.11837
1
1.11843
0.999899
1
1
1.11861
1.10675
1
1.12303
1
1
1.00425
1
1.05826
1
1
0.893348
1
1
1.11956
1
1.11901
1
1.00001
0.894047
1
1
0.887071
1.00031
1
1.11966
0.890811
1.11966
0.886631
1.11831
1
1
1
1
1
1
1
1
1
1
1
1.1143
1
1.11874
1.11954
0.889853
1
1
1
1
1
1
1.11573
1
1
0.888571
1
1
1.11986
1
1
1.0484
1.10111
0.888136
0.891734
0.899834
0.913051
1
0.99904
0.89889
1.00013
1.10825
0.999118
1
1
1.11844
1
1
1
0.928508
1
1.04484
1
1
1.05162
1.11853
1
0.884538
1
1
1
0.999099
1
1.11834
1.11825
1
0.889588
1
1.06871
0.890447
1
0.968768
1
0.998925
0.887555
1
1
1
0.998899
0.891001
1
0.892771
0.999544
1.06678
1.10821
0.891424
0.892592
1
0.99717
1
0.999617
1
1.11878
1.11849
1
1.00713
1.11836
1.11859
1
1
1.11826
1
1
1.00001
1
1.11981
1
1
1.00524
1
0.999597
0.903063
1
1
1
1
1
1.11956
1.01117
1.00001
1
1
1
1
1
1.00001
1
0.894457
1.03158
0.999605
1.11643
1.11981
1
1.00419
1.11838
1.10445
1
1
0.894534
1.11862
1
1.11932
1
1.11813
1.08093
0.891611
1
0.889678
1.10933
0.999908
1
0.889165
0.895993
1
1
1.10124
1
0.999999
0.891887
1
1
1
1.03923
1
0.89012
1.11848
1
1
1
1
1.11876
1
1
1.12104
1.1069
1
1
1
1.1204
0.887072
1
1.11857
1.11891
1
1.09687
1
1.00001
1
1
1.11292
1.0069
1
0.896241
1.06935
1
1
0.999248
1
1
1.12075
1
1
1.00001
1
1.11899
1
1
1
1
1
1
1
1.05664
1
1.11875
1
1
1.11902
1
1
1
1.11849
1.11868
1.01305
1
0.999329
1
1
1
1
1.12025
1
1
1.11837
0.886827
1
1
1
1
1
1
1.098
1
1
1.11779
1.11875
1
1
1
1.11869
1.1186
1
0.999912
1.11715
1
1
1
1
0.891904
1.00836
0.998944
0.998904
1
1
0.881832
1.1188
1
0.895452
1
1.11857
1.11419
0.889806
0.999833
1.11859
1.11874
1.11846
1
1
0.980073
1.1112
1.09841
0.897242
1
1
1
1.11916
1.11846
0.885776
0.999256
1
1.11836
0.886832
1
1.11356
0.89259
0.993534
1.00205
1
1.11704
1
1
1
1
1
1
1.00003
1.11129
1
1
1.1203
1
1
1
1.1183
1
0.893673
1
1
1
1.04371
1
1
1
1
1
0.931237
1
0.887143
1
1.11855
1.00002
0.957089
0.961886
1
1.0011
1.06607
1
1
0.893634
1.11832
1.11876
1.11831
1
0.880961
0.889624
1
1.11874
1
1
1
1
1
1.00001
1
0.895313
1.08056
1
1
0.88835
0.998797
1
1
1
1
0.884417
1
0.897009
1
1
1.12063
1
1
0.884996
1
1.11846
1
0.885173
1
0.892823
1
1.00219
1.11896
1.1225
1
1
1.12009
1
1
1.03083
0.99906
1
0.999462
1
1.11933
1
0.896118
1
1.12038
0.999638
1
1
0.938603
1
0.999708
0.885581
1.11945
1.04799
1
1
0.97432
1
1
1
0.936127
1
1
1
1.11857
1
0.893999
1
1
1
1
0.885729
1.11844
1.11402
0.885902
1
1.12003
1
1
1.11855
1.11987
1.10136
0.891915
0.999356
0.999771
1
1.11847
1
1
1
1
1.11873
1.00001
1
1
1.11857
1
1
1.11862
0.8936
1
1
1
0.891668
1
1
1
0.999633
1
1
1
1
1.10007
1
1.11991
1.11885
1.12163
1.11882
1.11899
1.11849
1
1.11907
1
1.11859
1.11849
1
0.99968
0.892375
1.103
0.99997
1
1
1
1
1.00162
1
1.02045
1
1
1
0.951105
1.11864
1.11858
1.12103
1.10649
0.999966
1
1.00646
1.11874
0.999387
1.01825
0.999143
0.89921
1
1.00001
1
1
1
1
1
1.11826
0.889378
1.11814
1.11866
0.998527
0.875043
1
1
1
1.11859
0.8881
1.10583
0.886758
1.11849
1.12
0.894244
1.11933
1.00702
1
1.11938
0.941185
1
0.999677
0.882174
1
0.896071
1
1.11835
1.11827
0.923815
1
1.11958
0.897752
1
0.889759
1
1.11874
1
1
1.11665
1
0.953254
1
0.999915
0.89517
1.11864
0.999853
1
0.885484
1
1
1
1
1.07021
1
1.11823
1
1
1.12336
1
1
1.11849
1
0.894321
1
0.893411
1
1
1
1
1
1.11409
1.07273
1.11853
1
1.1188
1.11089
0.884036
0.882505
1
1
1.11753
1
0.892826
1
0.998842
1
1
1.11829
1
1.11798
0.881328
1.12253
1
0.880439
1
1
1.11967
1.11837
1
1.00001
1
1.1186
1
1
0.88265
0.999816
0.887336
1
1
1
1.11891
1.11947
1.11934
1
1
0.894783
1
1.12119
1
1
1
1.1089
1.11843
1.11883
0.892904
1.11927
1.11859
0.893219
1.11987
1.00001
0.889818
1.00487
1
1
1.11867
0.884512
1.07715
0.879077
1.11859
0.999308
0.883537
1.11921
1
1
1
1
1.11882
1.11997
0.891968
1
1.00001
0.889657
1.00001
1
0.889044
0.894644
1.08559
1.11939
0.999568
1.11869
1
1.11909
0.942146
0.888167
1.11867
1.12131
1
1.11873
1
1
1.11836
1
1.09491
1.11974
1
1
1
1
1.11882
1.11742
1.1185
1
1
1.11895
1.12123
1.11892
1
1.11876
1
1
1
1
1
0.891474
0.954511
0.884555
1
1
1.11883
1
1
1.11896
0.88245
1
1.11859
1.11736
1.11411
0.887261
1
0.900482
1
1.00001
1.11988
1.06208
1.11998
1.10924
1
0.898512
1
1.11945
1.0871
0.890011
1
1
1
0.945629
1
1
1.12054
1
0.893171
1.11868
1
1
1
1
1
1.09702
1.02938
1
1.11896
1
1.119
1
0.999269
1
1.11878
1.11911
1.11889
1.11968
0.99988
1.11964
1
1.11851
1.11849
1.10187
1
1
0.880738
1.11932
1
1
1.1179
1.11877
1.11869
1
1.1187
1
1
1.00001
1.11946
1.11932
1.03681
1.02764
1.11854
1.11839
0.903463
1
1
1
1
1.00001
1.04509
1
1
1.09948
0.888412
0.999986
1
1.11839
0.999963
0.999956
1.01902
1.10846
1.11998
0.975135
1
0.883158
1
1.00237
1.11853
1.11916
1.11756
0.999732
1
1
0.891486
1
1
1.11851
1.01404
1
1
1
1
1
1
1
0.999981
1.11976
1
1
1
1
1
1.0793
1
1.0593
1
1
1.1186
1.11919
0.889398
0.999649
1
1
1
0.890966
1.11909
1.11845
1
1
1
1
1
1
1
1
1.11885
1.12047
0.887597
1.01406
0.894713
1
0.889626
1
1.11862
1.03537
1
1
0.907431
1
1.11418
0.945909
0.999072
0.882203
1
1
1.12006
1.00001
0.999211
0.881809
1.1199
1.12009
1
1
1
1
1.11149
1
1
1.11795
0.99969
1.11904
1.00003
1
1
0.883348
1
1
1.11869
0.883952
0.936261
0.894653
1.11852
0.999791
1
1.11831
0.890743
0.888989
1.00449
1
1
1.12004
1.00001
1.05673
1
1
1.12003
0.894328
1
1
1.00004
1.11945
1.00005
1.11805
1
1.00001
1
1
0.914821
1
0.933344
1.00001
1
1.11781
0.883756
1
0.937184
0.941128
1
1
1.11878
1
1
1
1.11867
1.11855
1.00001
1.11513
1.12004
0.93938
1.11867
1.11331
1
1
1.11741
1
1
1
1
1
1.1195
1.11891
1
1
1
1.11882
1.00006
1
0.889466
0.917224
1
1.00001
1.04833
1
1
0.973047
0.894891
1
1
1
1.11924
1.10962
1.1189
1
1
1
1
0.885927
1
1.1168
1
1.11564
0.89316
1.12026
1
1
1
0.893038
1
1.11927
1.00001
1
0.889445
1.04717
1
0.999896
1.12061
0.884867
0.886812
1
1.11987
0.882055
0.887981
1
0.883079
1
1
1
1
0.890255
1
1
1
1
1.1198
1
1.09284
0.884084
1
1
1
0.886716
1.11846
1
1
0.998991
1.11527
1
1.11836
1.11941
1
1
0.915386
0.891138
1
1
0.889337
1.04111
1.05856
1
1
1.11963
0.999266
1
0.999309
1.12039
1
1
1
1
1
1
1.11904
1
1.04405
1.03931
0.908274
1.10624
1
1.11859
1.1184
1
1
1
0.975218
0.885585
1
1.06375
0.999899
1.1052
1
1
1
1
1
1.00209
1.0556
1.1186
1.11832
1
1.11872
1
0.904003
1
0.999177
0.999931
1
0.889354
1
0.896336
1.00001
1.11918
1.11964
0.889069
1.12019
0.896823
0.998903
1.09537
0.89335
1.08653
1
1
0.999553
1
1
1
1.00002
1
0.890682
1
1
1
1
0.999888
1.1189
0.945821
1
1
1
1.01031
1
1
1
1.06888
0.92671
1
1
1
1.01638
1.11958
1
0.876033
1
1.11875
0.973529
0.896291
1
0.888405
1
1
1.1129
0.999507
1.11267
1
1.0025
1
1
1.1187
1
1
1
1
1.02679
1
1.11854
1.11923
1.1194
0.885861
1.11866
0.999181
1.09925
1
1
0.887952
1
1
0.888613
1.11817
1
1
0.999987
1
1
1
0.880721
0.888479
1
1.12025
1
1.0582
1.11852
0.887
1.101
1
1
0.892016
1
1
1.11863
1.11897
1.04592
1
1
1.00019
1.11914
0.887228
0.890469
1.11991
1.1186
1.08406
1.05008
1
0.971357
1
1
1
1.11635
1.12008
1.11882
1
1
1.11895
0.890261
1.10733
0.88244
1
0.898578
1
0.891097
1.11849
0.889031
1
0.993671
0.894731
1
1
1
0.95806
1.10917
1.11887
1.11886
1.11989
1
1
1.11995
1
1
1.11901
1
0.890324
1
0.879396
1
1.12
1
1
1.00885
1.09385
1
0.999655
0.897435
1.11789
1
0.875954
1.02418
1
1
1.09365
1.11866
1.11848
1
1.11859
1.03519
1
1.00784
1.11861
1
1
1
1
1.1185
1
0.882742
1.11861
0.885779
0.883035
0.951114
1.11844
1.04446
1.11916
1
1.11999
0.999275
1.00001
1.11845
1.12002
1
1.11961
1
1.11869
1
1.11928
1
1.00001
1
1.11795
0.89077
0.897601
0.999354
1
1
1
0.879939
1
1.08065
1
0.884185
1
1.0509
1.11845
1.1187
1
1
1.00001
0.999804
1
1.12017
1.11894
1
1.05231
1.11806
0.961075
1.11899
1.0002
0.886729
1.02775
0.885202
1
1
1.02227
1.1206
1
1
1.01192
0.999586
1
0.888317
1
0.937208
1
1.119
1
1
0.896628
1.03139
1.02055
0.999582
1.11858
1.11866
0.93604
0.999452
0.891584
0.901385
0.888927
1
1
1
0.99971
0.911575
0.887722
1
1.1186
0.999923
1.11854
1.11875
1.11978
1.1188
1
0.891537
1.11881
0.885286
1
1.11789
1.11971
0.99904
0.944771
1.11819
1.08693
1
0.889241
1
1
1.11941
1
1.00748
1.11875
1
0.885093
0.88197
1
1
0.88201
0.891914
1.1188
1.00001
1
0.881811
0.883141
1.11794
1.11594
1.1117
1.11992
1.03677
0.994919
1.05208
1.12088
1.09407
1
1.06445
1
0.888085
0.958753
1
0.881636
1.11827
1.00647
1.11885
1
1.11868
1.1198
1
1.1186
1.11861
0.890411
1.11913
1
1.1225
1
0.924488
0.891503
1.11872
1
1
1
0.889311
1.11881
1.11847
1
0.898114
1
1
0.888851
1.00001
0.883699
1.12001
1
0.947221
0.893355
1
1
1.07165
1
1
1
1.02135
0.892242
1
1
1
1.11788
0.888018
1
1.11846
0.883474
0.881505
1
1
1.12069
1
1.11973
1
1.11848
0.894062
1
1
0.891673
0.944928
0.878922
1
1
1
1
1.11749
0.887842
1
0.886996
1
1.11778
1
1
0.978655
1
1
0.948988
0.999907
1.00001
1
0.888512
0.89956
1
1
1
1
0.939754
1.11816
1.11989
1
0.887801
0.896659
0.97479
0.89976
1
0.943331
1
0.888488
0.993029
1
1
0.895251
1
1.1192
1.11572
0.891148
1
1
1
1.11944
1
1.01236
0.952569
1.04099
0.897366
1.05233
0.891817
1
1
0.911895
0.977124
1
1.0114
1
1
0.900959
1
0.984752
1.01511
0.886771
1
1.09965
0.923215
0.964594
1
1
1
0.886912
1
0.887859
0.887822
1
0.957948
0.888151
1.01919
0.921675
0.885709
1.11862
1
1.11846
1.06788
0.919771
1.11854
0.882789
0.999702
1.11958
1
1
1.11862
1
0.9127
1
1.02043
1
1
1.11859
1
0.934035
0.947224
1.12041
0.984668
1
0.919266
1.11838
1.11914
0.973536
1
1.1184
1.03407
0.954012
1
1.00628
1
0.897847
1.05443
0.932594
0.926952
1
1
0.899248
1.1179
0.991527
0.887938
0.888941
0.962003
1
1.00839
1.11982
1.11832
1
1
1
0.896365
1.06044
1
1.11808
1.10742
0.886062
1.00001
1.02702
0.961108
1.07554
1.1018
1
1.01268
1
1.00002
0.880029
0.955074
1
1
0.947881
0.879889
1.01238
1
1
0.881202
1.05591
1
1.12029
1
1.01154
1.06762
1
1.11904
1
1
1.1184
1
0.882508
1.1197
0.902035
1.0332
1
0.896593
0.999974
1
1.00001
1
0.935518
1.00764
0.894386
1.09286
1.12011
0.879578
1
1
1
1
1
0.990724
0.899918
1.0168
0.8893
0.890055
1.01997
1
0.99994
1.03248
1
1
0.892174
0.996502
1
1
1.0365
1
1.1196
1
1.11933
1.0269
1.00802
0.89517
1
1
0.879853
1
1
1
1
1.11855
1.01215
0.999438
1
0.884442
1.0151
1
1
1.08043
1
0.893172
1.11866
1
1
1
1.11878
0.886633
0.964903
0.880841
1.09177
1.11816
1
1
1.11846
1
0.888596
1
1
1
1
1
0.932621
1
1.11847
1
1
1.04536
1.11968
0.894424
0.963196
1
1.11899
1
1
1
1
1
1.1186
1.11921
0.892065
1.11853
0.88202
1
1
1.11869
1
1.11987
1.00372
1.0081
1.02076
1.11874
1.02046
1.08455
0.881219
1
0.882005
0.993523
1
1.11865
1
1
0.884088
1.11929
1
1.11898
1
1
1
1
1
1
0.886713
1.11966
0.95832
1.11853
1
0.890568
0.894103
0.914566
1.11973
1.11836
0.991115
1
0.939353
1
1.04948
1
1.11885
0.881627
0.893511
0.955992
1
1.11885
1
1.02034
0.900958
1
1.11974
1.11112
0.999681
1
1.1186
0.8896
1.11952
1.11876
1.12049
0.886013
1.02735
1
1
0.886242
1
0.945292
0.94769
1
1
1.11877
1
1.11796
1.02573
1
1.01291
1.12006
1
0.884732
1
0.933424
1
1
1.10066
1
0.937499
1
0.896684
1.01014
0.98855
0.887731
1.11827
1.09575
1.11989
0.891273
0.904844
0.9987
1
1
0.905222
1.11259
0.891763
0.99999
1
1.11834
1.11926
0.970678
1
0.892333
0.911901
1.0826
0.995718
0.88446
1
0.887708
1.03212
0.898031
1
1.00002
0.947335
1.11993
1.11854
0.953171
0.999883
1
1
0.906396
1
0.891546
1
0.894204
0.893264
1
1
1.00001
0.898681
1.11851
1
1
1.00002
1.00001
0.895074
1.11874
1.11856
1
0.891372
1.12063
1
1.02705
1
1
1.11814
0.890968
1
1
0.893105
0.922744
0.892249
0.88529
1
0.903082
0.999169
1.02638
0.882091
1
1
1.03696
1
1.10645
1
1
1.08648
0.902693
1
0.897747
1.03491
1.11873
1
1
0.890952
0.894035
0.880875
0.91411
0.887504
1.09186
0.999831
1
1
1
1
1.11909
0.884297
1
0.984005
0.999905
0.999608
0.999983
0.928281
1.03433
1
1.11867
1.11889
1
1
1.11402
1.00001
1
1.11851
0.895103
1.11538
1
0.883652
1.11874
1.00002
1
0.949925
1
0.882102
1
1.11933
1
1
1.11923
1
1
1.11989
1
1
1
1.12014
1
0.925149
0.917619
1
0.881958
1.11847
1
1
0.99226
1
1.11965
1.07176
1.09749
1
1
0.890905
1
0.893009
1.11865
1.11973
1.11834
1
1.11987
0.891008
1
0.89371
1.0978
1.11122
1.11834
1.11892
0.922444
0.888256
1
1.08163
1.11939
1.11926
1.11867
0.927677
1.04791
1
1.0919
0.922512
1
1
1
1.00001
0.969556
1
1.11979
1
1
1
1
1
1
1.00002
1.11772
1
1.11917
1.09029
0.892261
1.12025
1.01196
1.0619
1
1.11842
1
0.886968
1
1
1
1
1.10289
1
0.886769
1.11932
0.880653
1.11885
1.09673
1.06531
1
1.02474
1.06062
0.998833
0.900263
0.92917
1.00001
1
0.979264
1
0.880175
1.11918
0.886061
0.982086
0.960089
1
1
1
1.00401
1
1
0.898813
0.998946
1.11979
1
1.11837
1
0.891705
1
1
1.11852
1.11857
0.888979
1
1.11913
1
0.94393
0.8863
1.11904
1.10751
1
1.02239
1.11858
0.99963
1
1.05263
1.1055
1.11813
0.998787
1
0.999999
1.10254
1
1
1
1.11864
0.999573
1
1
1.11887
1
1
0.893631
1
1
1
1.11905
1
1
0.959355
1.04218
1.10904
0.932214
1
1.11884
1
1.04468
1
1.11943
0.999287
1.11856
1
0.890305
1
1.08312
1
1
1.11124
1.00001
1.11857
1
1.11878
0.907694
0.890526
1.11898
1
1.10364
1
1.11968
1
1
1.00001
1.11823
1.11792
1.03494
1.11855
0.998859
0.899405
1.11888
0.962966
1
1.11743
1
1.11857
1
1.119
1.11978
0.99891
0.886115
1
1.11853
1
1.01227
1
1
0.999401
0.922963
1.10692
1
1.11234
1
0.963956
0.881877
1.1187
1.11859
0.908746
1
1.11876
1.11978
1.11905
0.899075
1.11841
0.892602
1.11941
1.12097
1
1
1.11878
1
1
1
1
0.891256
1
1
1.11967
1.11851
1
1.11841
1
1.12034
1.12022
1
1.10007
1
0.886401
1.1183
1.09231
1.03807
0.884408
1.11844
1
1
0.884055
1
1
1.11848
1
1
0.935749
1
1.11874
1.00003
1.11918
0.883135
1.11983
1
1.11859
1.11468
0.969964
1
1.1195
0.928958
1.11886
1.08569
1.11877
1.11798
0.999129
1.11945
1.11889
1.11854
1.11827
1.00021
1
0.90189
1
1.11961
0.951236
1.10968
1
1.11679
1
1
1
1
1
1.11811
0.883785
0.892861
1.11895
1.11852
1
1
1
1
1
1.11789
1.10702
1.11849
1.00752
1
1
1
1.00001
1.11844
1.1185
1
1.1193
1.11967
0.896932
1.08605
1
1.11873
1.11965
1.11857
0.999397
1.11867
1.11872
1
1.1083
1
1
1
1
1
1
1.11852
1.12009
1.11104
1.11858
0.887002
0.897626
1.11858
1.11856
1
0.88877
0.983022
1
1.05994
0.879771
1
0.999848
0.999512
0.891827
1
1.11855
1
1
1
1.11915
0.981418
1
1.11854
1.11875
1
1.11911
1
1
1.1186
1
0.891638
1
1.11826
1
1
0.89053
1
1.11804
1
0.886602
0.882561
1
1.11534
1
0.882606
0.97118
1
1.11849
1
1
1
1.11946
1
0.889878
1.01822
1.11915
1.11894
1.11856
1.0129
1.11891
1.11861
1
1
1
1
1
1.11873
1
0.999811
1.11913
1
0.885051
1
1.11863
1.06035
1.01934
1.05919
1.01825
1.11853
0.900748
1.11863
1
0.892146
0.999173
1.11847
0.981378
1.11855
1.11854
1.11249
1
1.11938
1.11875
1.11861
1
1.00001
1
1
1.11911
1.08692
1
1
0.883513
0.998996
1
1.11826
1
1.11848
1.11848
1.11798
0.978188
1.11831
1.11875
1.00366
1.06044
1.11942
1.11832
1
1.11049
0.954451
1.11359
0.994276
1.11843
1
1.11861
1.11886
1
0.898219
0.980778
0.911643
1
1.02391
0.99901
1.1195
1
1
0.999043
1
1.06149
1.11154
1
1
1.11887
1
1
1.08778
1.118
1.11452
1.11816
1.11874
1
1.11833
0.917875
1.11897
1
0.99724
0.89437
1
1
0.922913
1
1.04158
1
1.11887
1
1.11672
1.07841
0.891808
1
1
1
1
1
1.11876
1.00327
1
1.11884
1
1.11877
1.11852
1
1
0.991354
0.999955
0.885113
0.888435
0.918702
1.02557
1
0.99955
0.888089
1.00001
1
1.11851
0.985457
1.11109
1.10092
1
1
1
1
1
1.11848
1.11862
1
1.11809
1
1.11983
1.08262
0.99897
1
1
1
1.0714
1
0.986974
1
1.11759
1
1
1.11857
1
1
1
1
1
1.11893
0.883028
0.998843
1.10756
1.11848
1
1.11865
1
1
1
1
0.895583
1
1.1188
1.11824
1.11882
1.11994
0.988401
1
1.10207
1.03146
1.11988