/*--------------------------------*- C++ -*----------------------------------*\
  =========                 |
  \\      /  F ield         | OpenFOAM: The Open Source CFD Toolbox
   \\    /   O peration     | Website:  https://openfoam.org
    \\  /    A nd           | Version:  12
     \\/     M anipulation  |
\*---------------------------------------------------------------------------*/
FoamFile
{
    format      ascii;
    class       volScalarField;
    location    "0.2";
    object      rho;
}
// * * * * * * * * * * * * * * * * * * * * * * * * * * * * * * * * * * * * * //

dimensions      [1 -3 0 0 0 0 0];

internalField   nonuniform List<scalar> 
22702
(
1.40001
1.40001
1.40001
1.40001
1.40001
1.40001
1.73956
1.40001
1.40001
1.14049
1.78447
1.74166
1.40001
1.40001
1.40001
1.40001
1.40001
1.40001
1.78026
1.40001
1.40001
1.40001
1.7108
1.10674
1.40001
1.16891
1.40001
1.77357
1.18831
1.11308
1.40001
1.74495
1.40001
1.40001
1.40001
1.40001
1.40001
1.71316
1.40001
1.40001
1.20288
1.40001
1.40001
1.40001
1.76151
1.40001
1.40001
1.40001
1.40001
0.918202
1.40001
1.09044
1.40001
1.78965
1.40001
1.74581
1.40001
1.40001
1.40001
1.40001
1.18025
1.40001
1.40001
1.18734
1.40001
1.1301
1.40001
1.40001
1.40001
1.16093
1.40001
1.77368
1.40001
1.40001
1.76948
1.74179
1.12445
1.75703
0.90619
1.40001
1.75355
0.969091
1.70313
1.69125
1.40001
1.40001
1.40001
1.40001
1.40001
1.15313
1.70196
1.40001
1.40001
1.12966
1.40001
1.40001
1.13438
1.40001
1.40001
1.40001
1.40001
1.40001
1.75421
1.16836
1.40001
1.40001
1.40001
1.40001
0.958807
1.40001
1.78239
1.77084
1.40001
1.40001
1.1841
1.199
1.14542
1.40001
1.40001
1.40001
1.40001
1.40001
1.40001
1.40001
1.40001
1.40001
1.78333
1.40001
1.78289
1.77468
1.40001
1.76005
1.40001
1.20025
1.40001
1.14737
1.40001
1.40001
1.40001
1.40001
1.77117
1.40001
1.40001
1.40001
1.40001
1.70857
1.40001
1.42639
1.40001
1.40001
1.40001
1.40001
0.913956
1.40001
1.41025
1.40001
0.961081
1.40001
1.40001
1.40001
1.70983
1.40001
1.72801
1.21167
1.1755
1.7841
1.78165
1.40001
1.40001
1.40001
1.40001
1.72132
0.881579
1.40001
1.40001
1.40001
1.40001
1.40001
1.40001
1.75759
1.40001
1.80603
1.17599
1.73726
1.40001
1.13737
1.40001
1.09502
1.16658
1.40001
1.40001
1.40001
1.83971
1.40001
1.40001
1.74976
1.40001
1.74149
1.81395
0.956935
1.40001
1.40001
1.00625
1.76803
1.40001
1.40001
1.40001
1.78232
1.40001
1.1438
1.40001
1.40001
1.7586
1.78054
1.77529
1.40001
1.40001
1.40001
1.40001
1.40001
1.40001
1.40001
1.13252
1.78324
1.76577
1.40001
1.40001
1.40001
1.40001
0.940051
1.4
1.62881
1.40001
1.40001
1.14702
1.14913
1.40001
1.40001
1.40001
1.40001
1.16378
1.40001
1.40001
1.40001
1.40001
1.40001
1.7648
1.40001
1.40001
1.40001
1.40001
1.40001
1.73968
1.15093
1.39463
1.40001
1.40001
1.14371
1.40001
1.40001
1.40001
1.40001
1.40001
1.40001
1.40001
1.40001
0.893999
1.37468
1.14354
1.71378
1.40001
1.40001
1.40001
1.40001
1.66982
1.40001
0.890506
1.40001
0.943322
0.97512
1.4
1.13458
1.40001
1.40001
1.40001
1.40001
1.40001
1.13743
1.1854
1.40001
1.40001
0.934091
1.40001
1.77335
1.16662
1.40001
1.40001
1.75333
1.21677
1.40001
1.40001
1.17255
1.77757
1.40001
0.947658
1.40001
1.40001
1.40001
1.40001
1.09074
1.40001
1.40001
1.40001
1.40001
1.47979
1.40001
1.40001
1.2498
1.40001
1.40001
1.40001
1.40001
1.40001
1.40001
1.40001
1.75559
1.40001
1.83686
1.40001
1.40001
1.40001
1.15382
1.40001
1.71276
1.13355
1.40001
1.40001
1.40001
1.40001
1.83821
1.40001
1.40001
1.40001
1.68077
1.40001
1.40001
1.83555
1.83792
1.40001
1.40001
1.40001
1.40001
1.1489
1.40001
1.40001
1.40001
1.12295
1.40001
1.40001
1.40001
1.40001
1.23475
1.40001
1.40001
1.40001
1.40001
1.40001
1.17636
1.40001
1.75798
1.40001
1.40001
1.78189
1.7853
1.40001
1.40001
0.985991
1.40001
1.75736
1.40001
1.40001
1.40001
1.81118
1.15941
1.40001
1.73155
1.40001
1.40001
1.1702
1.1529
1.40001
1.12487
1.14895
1.40001
1.40001
1.40001
1.40001
1.40001
1.40001
1.40001
1.77257
1.40001
1.40001
1.17358
1.34628
1.77254
1.40001
1.73254
1.75491
1.15835
1.40001
1.40001
1.13863
1.40001
1.85315
1.40001
1.40001
1.40001
1.40001
1.76966
1.40001
1.40001
1.40001
1.40001
1.40001
1.40001
1.40001
1.54373
1.71074
1.40001
1.73358
1.40001
1.40001
0.968772
1.40001
1.40001
1.40001
1.40001
1.77758
1.39999
1.40001
1.40001
1.12037
1.76875
1.76618
1.40001
1.76857
1.75041
1.77229
1.40001
1.40001
1.40001
1.75289
1.40001
1.77796
1.40001
1.1392
1.40001
1.74302
1.40001
1.40001
1.40001
1.40001
0.951406
1.4
1.40001
1.40001
1.40001
1.81359
1.75737
1.40001
1.60482
1.40001
1.40001
1.40001
1.4
1.40001
1.78059
1.40001
1.78986
1.40001
1.79373
1.50674
1.7925
1.7713
1.40001
1.40001
1.34575
1.3393
1.40001
1.40001
1.40001
1.40001
1.40001
1.40001
1.40001
1.40001
1.40001
1.40001
1.74325
1.40001
1.40001
1.40001
1.74756
1.40001
1.40001
1.40001
1.40001
1.40001
1.40001
1.77311
1.40001
1.40001
1.40001
1.40001
1.42158
1.40001
1.4
1.40001
1.40001
1.40001
1.40001
1.4
1.40001
1.40001
1.40001
1.40001
1.75257
1.40001
1.40001
1.40001
1.7608
1.40001
1.40001
1.40001
1.76849
1.73515
1.74403
1.71591
1.40001
1.79043
1.40001
1.40001
1.12302
1.40001
1.40001
1.40001
1.76135
1.40001
1.15098
1.17083
1.40001
1.40001
1.40001
1.40001
1.40001
1.1432
1.40001
1.74244
1.6076
1.77239
1.40001
1.40001
1.40001
1.40001
1.40001
1.57743
1.40001
1.40001
1.40002
1.40001
1.40001
1.40001
1.40001
1.40001
1.40001
1.40001
1.40001
1.40001
0.968221
1.39999
1.40004
1.40001
1.40001
1.40001
1.73551
1.40001
1.40001
1.40001
1.4
1.45509
1.40001
1.40001
0.944283
1.40001
1.40001
1.40001
1.40001
1.40001
1.40001
1.7502
1.79359
1.40001
1.40001
1.40001
1.74016
1.40001
1.40001
1.40001
1.40001
1.16614
1.7498
1.40001
1.40001
1.40001
1.40001
1.40001
1.40001
1.72349
1.40001
1.40001
1.40001
1.40001
1.40001
1.40297
1.40001
1.40001
1.40001
1.40001
1.40001
1.40001
1.40001
1.13583
1.40001
1.18318
1.40001
1.40001
1.40001
1.40001
1.10041
1.40001
1.40001
1.40001
1.40001
1.46342
1.40001
1.40001
1.35642
1.40001
1.40001
1.40001
1.40001
1.40001
1.40001
1.40001
1.4
1.40774
1.40001
1.40001
1.40001
1.40001
0.949485
1.40001
1.40001
1.40001
1.40001
1.4
1.40001
1.40001
1.40001
1.40001
1.13141
1.40001
1.40001
1.40001
1.74584
1.40001
1.40001
1.40001
1.36142
1.40001
1.40001
1.40001
1.40001
1.40001
1.40001
1.45509
1.47079
1.40001
1.40001
1.40001
1.40001
1.82246
1.40001
1.40001
1.40001
1.40001
1.71865
1.78311
1.40001
1.40001
1.40001
1.40001
1.40001
1.40001
1.40001
1.40001
1.40001
1.15034
1.40001
1.40001
1.83899
1.14056
1.40001
1.83852
1.40001
0.929428
1.40001
1.40001
1.1477
1.40001
1.40001
1.40001
1.40001
1.40001
1.40001
1.40001
1.40001
1.40001
1.40001
1.40001
1.40001
1.40001
1.40001
1.40001
1.5895
1.1303
1.40001
1.40001
1.40001
1.40001
1.40001
1.40001
1.40001
1.55413
1.40001
1.40001
1.63431
1.40001
1.40001
1.40001
1.40001
1.40001
1.40001
1.40001
1.40001
1.13642
1.40001
1.40001
1.15585
1.13754
1.40001
1.40001
1.79094
1.40001
1.2771
1.40001
1.40001
1.40001
1.39999
1.14256
1.40001
1.13268
1.40001
1.2391
1.40001
1.40001
1.40001
1.81662
1.40001
1.40001
1.79512
1.40001
1.40001
1.40001
1.7882
1.40001
1.40001
1.76863
1.40001
1.40001
1.1524
1.40001
1.58753
1.40001
1.40001
1.77109
1.77412
1.40063
1.40001
1.40001
1.1396
1.40001
1.40001
1.40001
1.40001
1.14508
1.40001
1.40001
1.40001
1.72585
1.40001
1.40001
1.40001
1.40001
1.40085
1.40001
1.40001
1.84462
1.12406
1.40001
1.40001
1.16875
1.16959
1.40001
1.40001
1.40001
1.39999
1.4
1.40001
1.40001
1.40001
1.40001
1.40001
1.40001
1.40001
1.48747
1.70065
1.51603
1.40001
1.40001
1.18659
1.40001
1.40001
1.40001
1.42659
1.40001
1.40001
1.40001
1.40001
1.40001
1.40001
1.13905
1.40001
1.73897
1.40001
1.40001
1.73815
1.40001
1.40001
1.83921
1.40001
1.14067
1.40001
1.40001
1.40001
1.40001
1.40001
1.40001
1.40001
1.84206
1.8037
1.40001
1.77603
1.40001
1.40001
1.40001
1.14241
1.42432
1.15262
1.40001
1.40001
1.40001
1.40001
1.40001
1.74087
1.40001
1.73921
1.40001
1.40001
1.40001
1.40001
1.40001
1.13433
1.76995
1.40001
1.14016
1.1283
1.10874
1.40001
1.50252
1.53933
1.40001
1.80304
1.40001
1.40001
1.40001
1.40001
1.76891
1.40001
1.40001
1.78571
1.80811
1.40001
1.40001
1.40001
1.40001
1.40001
1.74856
1.30307
1.40001
1.27922
0.964963
0.969689
1.25943
1.74456
1.40001
1.58281
1.40001
1.78477
1.40001
1.40001
1.7935
1.83865
1.40001
1.83738
1.40001
1.40001
1.13808
1.83788
1.84046
1.83809
1.70956
1.34383
1.39503
1.42485
1.75295
1.41845
1.75656
1.40001
1.40001
1.40001
1.73755
1.40001
1.13849
1.84164
1.75604
1.40001
1.4
1.40003
1.40001
1.75411
1.13242
1.7016
1.75577
1.76612
1.67989
1.40001
1.40001
1.40001
1.75092
1.39999
1.25015
1.80989
1.14534
1.74641
1.40001
1.40001
1.40001
1.40001
1.82573
1.80754
1.40001
1.40001
1.79474
1.1482
1.73883
0.943327
1.40001
1.40001
1.40001
1.14385
1.72586
1.20053
1.40001
1.78206
1.72137
1.40001
1.40001
1.40001
1.40001
1.59034
1.09461
1.39999
1.40001
1.40001
1.32326
1.40001
1.14632
1.40001
1.71633
1.13288
1.40001
0.996229
1.40001
1.72091
1.40001
1.71488
1.40001
1.40001
1.40001
1.40001
1.16912
1.40001
1.73295
1.40001
1.40001
1.40001
1.4
1.40001
1.40001
1.74488
1.40001
1.49905
1.12904
1.40001
1.40001
1.40001
1.40001
1.80826
1.4
1.82951
1.40001
1.40001
1.73486
1.40001
1.40887
1.61964
1.40001
1.40002
1.40001
1.74471
1.40001
1.5506
1.40001
1.40001
1.40001
1.40001
1.40001
1.40001
1.40001
1.40001
1.17203
1.40001
1.13792
1.40001
1.40001
1.40001
1.78266
1.40001
1.4
1.40001
1.40001
1.40001
1.77413
1.40001
1.40001
1.74587
1.74379
1.18249
1.7665
1.71094
1.40001
1.40001
1.40001
1.40001
1.40001
1.7235
1.74539
1.40001
1.74623
1.74501
1.75804
1.77207
1.40001
1.40001
1.40001
1.40001
1.21675
1.40001
1.40001
1.40001
1.40001
1.17485
1.40001
1.40001
1.40001
1.72142
1.40001
1.4
1.40001
1.73268
1.46349
1.64966
1.40001
1.55309
1.40001
1.40001
1.40001
1.40001
1.40001
1.74177
1.72549
1.40001
1.39724
1.40001
1.8275
1.72418
1.81315
1.40001
1.71882
1.74242
1.40001
1.76076
1.40001
1.40001
1.40001
1.74696
1.70418
1.7404
1.40001
1.79705
1.40001
1.40001
1.75919
1.70359
1.15206
1.73108
1.71869
1.40001
1.40001
1.40001
1.40001
1.40001
1.40001
1.40001
1.40001
1.40001
1.77634
1.40001
1.40001
1.40001
1.40001
1.70332
1.66382
1.40001
1.40001
1.40922
1.40001
1.40001
1.40001
1.40001
1.75213
1.40001
1.71643
1.81271
1.40001
1.40001
1.40001
1.71429
1.40001
1.40001
1.40001
1.40001
1.7933
1.75648
1.40001
1.40001
1.16373
1.74811
1.71108
1.30708
1.40001
1.15132
1.78037
1.7075
1.40001
1.40001
1.18416
1.7336
1.79077
1.17911
1.1505
1.40001
1.40001
1.70338
1.40001
1.40001
1.40001
1.40001
1.83688
1.40001
1.40001
1.40001
1.40001
1.71094
1.73889
1.69458
1.40001
1.75942
1.82849
1.40001
1.40001
1.17469
1.40001
1.72049
1.82057
1.40001
1.40001
1.40001
1.84397
1.40001
1.72549
1.81506
1.21066
1.40001
1.40001
1.39996
1.40001
1.40001
1.40001
1.7078
1.68121
1.40001
1.40001
1.40001
1.40001
1.51875
1.40001
1.75328
1.74427
1.17819
1.40001
1.40001
1.40001
1.72105
1.7308
1.79193
1.40001
1.4
1.40001
1.40388
1.40001
1.75965
1.78047
1.34203
1.39999
1.76205
1.40001
1.40001
1.33569
1.73665
1.33822
1.40011
1.40001
1.40001
1.84437
1.40001
1.4
1.40001
1.78565
1.40019
1.83825
1.40001
1.48125
1.73344
1.73883
1.37063
1.40001
1.48608
1.40001
1.73535
1.77558
1.83585
1.40001
1.58872
1.40001
1.56589
1.42031
1.42575
1.84085
1.40001
1.41389
1.40001
1.40001
1.40001
1.40001
1.40001
1.40001
1.41971
1.40001
1.40001
1.40005
1.40001
1.84358
1.40001
1.39993
1.40001
1.40001
1.40001
1.74435
1.40001
1.40001
1.40001
1.4395
1.76679
1.7087
1.46807
1.40001
1.66979
1.43997
1.40001
1.4
1.4246
1.40001
1.40001
1.40001
1.84824
1.40001
1.4928
1.40001
1.40001
1.61991
1.40001
1.75028
1.7781
1.40001
1.40001
1.31285
1.40001
1.40001
1.40001
1.14084
1.40001
1.40001
1.69389
1.40001
1.75456
1.40001
1.40001
1.40001
1.15373
1.50365
1.7447
1.40001
1.40001
1.40001
1.40001
1.40001
1.4129
1.40001
1.40001
1.70989
1.40568
1.40001
1.40001
1.18465
1.40001
1.40001
1.40001
1.40001
1.7103
1.40001
1.40001
1.83801
1.40001
1.40001
1.60893
1.40001
1.40001
1.73526
1.40001
1.40001
1.40001
1.40001
1.16682
1.12927
1.40001
1.40001
1.40001
1.40001
1.40246
1.40001
1.70318
1.40001
1.40001
1.40001
1.40001
1.40001
1.81378
1.40001
1.40001
1.40001
1.76671
1.40001
1.83926
1.40001
1.40001
1.40001
1.40003
1.40001
1.70654
1.40001
1.17847
1.40001
1.40001
1.78863
1.69727
1.40001
1.1577
1.40001
1.40001
1.40001
1.40001
1.40001
1.40001
1.53586
1.7841
1.40001
1.40001
1.40001
1.40001
1.74197
1.40001
1.75691
1.40001
1.39666
1.71396
1.40001
1.40001
1.40001
1.40001
1.40001
1.40001
1.40001
1.40001
1.40001
1.40001
1.40001
1.40001
1.40001
1.40001
1.40001
1.69471
1.40001
1.40001
1.54124
1.40001
1.747
1.40001
1.79306
1.40001
1.74408
1.40001
1.40001
1.40001
1.40001
1.40001
1.40001
1.40001
1.40001
1.40001
1.68749
1.45127
1.40001
1.40001
1.40001
1.40001
1.40001
1.40001
1.40001
1.40001
1.40001
1.40001
1.40001
1.40001
1.40001
1.40001
1.40001
1.40001
1.17981
1.39795
1.40001
1.76895
1.40001
1.40001
1.40005
1.40001
1.40526
1.14755
1.40001
1.39954
1.40001
1.40001
1.39841
1.40001
1.40001
1.40001
1.40001
1.40001
1.8378
1.40001
1.84407
1.10415
1.56134
1.40001
1.74589
1.5131
1.40001
1.40001
1.52525
1.40001
1.16533
1.1082
1.40001
1.73609
1.79658
1.40001
1.40001
1.40001
1.40001
1.40001
1.39987
1.40001
1.40001
1.17574
1.40001
1.40001
1.74371
1.40001
1.40001
1.40001
1.82441
1.40001
1.40001
1.40001
1.40419
1.75436
1.40001
1.40001
1.76734
1.40001
1.40001
1.70429
1.20448
1.83595
1.4
1.40001
1.40001
1.79479
1.40001
1.40001
1.40001
1.76791
1.40001
1.40001
1.1521
1.40001
1.40001
1.40001
1.40001
1.40001
1.40001
1.40001
1.40001
1.40001
1.14587
1.40001
1.40001
1.40001
1.40001
1.40001
1.40001
1.83571
1.83992
1.40001
1.40001
1.76298
1.40001
1.4
1.73398
1.40001
1.40001
1.40001
1.4
1.76126
1.40001
1.40001
1.40001
1.75019
1.40001
1.40001
1.40001
1.74877
1.40001
1.40001
1.40001
1.75442
1.84288
1.79327
1.40001
1.40001
1.40001
1.25231
1.83682
1.76634
1.40001
1.8402
1.40001
1.77335
1.40001
1.40001
1.7687
1.40001
1.40001
1.68109
1.40001
1.18058
1.40001
1.40001
1.40001
1.40001
1.40001
1.40001
1.40001
1.40001
1.40001
1.69641
1.24649
1.40001
1.40001
1.40001
1.40001
1.73584
1.40001
1.79076
1.40001
1.40001
1.40001
1.77048
1.40001
1.40006
1.40001
1.40001
1.40001
1.40001
1.40001
1.40001
1.40001
1.40001
1.40001
1.69409
0.981414
1.40001
1.40001
1.40026
1.83737
1.40001
1.40001
1.83829
1.40001
1.40001
1.40001
1.40001
1.56864
1.79026
1.79863
1.40001
1.78331
1.40001
1.40001
1.79188
1.40001
1.40002
1.40001
1.40001
1.40001
1.40001
1.71965
1.78372
1.55777
1.40001
1.4
1.78368
1.40001
1.41462
1.40001
1.72203
1.40001
1.40001
1.40001
1.40001
1.40001
1.40001
1.71617
1.72306
1.40001
1.75735
1.40001
1.40001
1.40001
1.16128
1.40001
1.78223
1.40001
1.40001
1.78124
1.40001
1.40001
1.40001
1.40001
1.79129
1.40001
1.40001
1.65002
1.0261
1.39998
1.40001
1.79416
1.74754
1.40001
1.78164
1.74251
1.40001
1.53249
1.40001
1.40001
1.40001
1.40001
1.45741
1.79547
1.40001
1.40001
1.39997
1.73812
1.40001
1.40001
1.40001
1.40001
1.40001
1.40001
1.16053
1.70702
1.40001
1.40001
1.40001
1.40001
1.78484
1.76492
1.40001
1.76285
1.07558
1.73232
1.40001
1.40001
1.40001
1.14683
1.40001
1.40001
1.40001
1.72557
1.40001
1.40001
1.40001
1.77093
1.40001
1.40001
1.40001
1.40001
1.40001
1.40001
1.76761
1.40001
1.40001
1.40001
1.40001
1.40001
1.84488
1.40001
1.40001
1.68461
1.40001
1.40001
1.40001
1.40001
1.40001
1.40001
1.40001
1.40001
1.77844
1.40001
1.40001
1.40001
1.40001
1.62689
1.74716
1.40001
1.40001
1.40001
1.40001
1.40001
1.40001
1.1518
1.14723
1.4216
1.40001
1.49097
1.40001
1.43159
1.40001
1.77636
1.40001
1.67057
1.40001
1.40001
1.40001
1.40001
1.40001
1.40001
1.40001
1.40001
1.70307
1.40001
1.71728
1.7928
1.40001
1.40001
1.78395
1.40001
1.40001
1.40001
1.4016
1.18187
1.40001
1.78981
1.40001
1.40001
1.40001
1.40001
1.40001
1.73018
1.40001
1.40001
1.40001
1.15843
1.40001
1.40001
1.72619
1.85149
1.40001
1.40001
1.40001
1.40001
1.40001
1.84196
1.40001
1.40001
1.40001
1.4
1.40001
1.4
1.40001
1.40001
1.40001
1.78871
1.40001
1.40001
1.17206
1.7212
1.40001
1.40115
1.40001
1.40227
1.40001
1.40001
1.4
1.40001
1.72569
1.17368
1.44046
1.75086
1.40001
1.40001
1.40001
1.40001
1.40001
1.76901
1.10899
1.40001
1.40001
1.6615
1.59719
1.40001
1.4
1.40001
1.40001
1.40001
1.1271
1.40001
1.40001
1.40001
1.72848
1.40001
1.40001
1.40001
1.40001
1.40001
1.39998
1.40001
1.40001
1.40001
1.7267
1.00979
1.40001
1.40001
1.40001
1.40001
1.40001
1.40001
1.40001
1.40001
1.40001
1.40001
1.40001
1.40001
1.40001
1.40001
1.40001
1.12678
1.40001
1.78065
1.40001
1.40001
1.40001
1.40001
1.40001
1.40001
1.40001
1.84135
1.40001
1.28634
1.40001
1.40001
1.40004
1.40001
1.13511
1.40001
1.40001
1.40001
1.40001
1.40001
1.1571
1.40001
1.40001
1.40001
1.40001
1.40001
1.14482
1.40001
1.8495
1.40001
1.40001
1.40001
1.40001
1.40001
1.40001
1.40001
1.40001
1.71025
1.40001
1.40001
1.40001
1.40001
1.40001
1.40001
1.40001
1.40001
1.40001
1.40001
1.40001
1.681
1.40001
1.54192
1.78887
1.40001
1.40001
1.40001
1.14467
1.40001
1.40001
1.40001
1.40001
1.40001
1.40001
1.39997
1.40001
1.40001
1.40001
1.40001
1.40001
1.75016
1.40001
1.40001
1.40001
1.40001
1.40001
1.40001
1.71516
1.26172
1.40001
1.40001
1.39694
1.40001
1.40001
1.40001
1.40001
1.40001
1.40001
1.69405
1.40001
1.40001
1.40001
1.40001
1.40001
1.15573
1.40001
1.40001
1.40001
1.68056
1.40001
1.40001
1.7884
1.40001
1.40001
1.40001
1.40001
1.40001
1.40001
1.40001
1.76678
1.40001
1.40001
1.40001
1.40001
1.39619
1.40001
1.40001
1.40001
1.40001
1.40001
1.40001
1.40001
1.40001
1.40001
1.16486
1.40001
1.14272
1.40001
1.4
1.40001
1.40001
1.40001
1.79133
1.5436
1.40001
1.42173
1.31204
1.40001
1.78809
1.40004
1.40001
1.40001
0.972766
1.40001
1.40001
1.40001
1.40001
1.74884
1.40001
1.40001
1.40001
1.40001
1.40001
1.40001
1.40001
1.40001
0.986416
1.40001
1.40001
1.40001
1.40001
1.40001
1.40001
1.40001
1.68454
1.40001
1.71666
1.40001
1.40001
1.40001
1.40001
1.51036
1.40001
1.40001
1.40001
1.16007
1.544
1.40001
0.999
1.13669
1.40001
1.40001
1.57868
1.40001
1.40001
1.40001
0.9816
1.70796
1.40001
1.40001
1.40001
0.98902
1.74887
1.40001
0.99511
1.40001
1.47174
1.4
1.40001
1.40001
1.40001
1.40001
1.40001
1.73442
1.40001
1.40001
1.40001
1.40001
1.40001
1.73821
1.40001
1.40001
1.40001
1.40001
1.74046
1.44529
1.8318
1.40001
0.994539
1.68054
1.40001
1.40001
1.40001
1.40001
1.1538
1.40001
1.15158
1.40001
1.50176
1.40001
1.53198
1.40001
1.40001
1.40001
1.40001
1.40001
1.71495
1.40001
1.40001
1.40001
1.40001
1.40001
1.75561
1.40001
1.12566
1.40001
1.40001
1.40001
1.40001
1.40001
1.75211
1.41428
1.70382
1.40001
1.40001
1.40001
1.40001
1.40001
1.40001
1.40001
1.40001
1.40001
1.40001
1.73814
1.73912
1.40001
1.012
1.40001
1.40001
1.40001
1.40001
1.75547
1.40001
1.40001
1.40001
1.73749
1.4008
1.45677
1.75727
1.60445
1.76471
1.40001
1.40001
1.06234
1.40001
1.52428
1.40029
1.39999
1.73356
1.40001
1.40001
1.61008
1.40001
1.35247
1.47084
1.40001
1.42166
1.61497
1.7265
1.40001
1.40001
1.40001
1.2541
1.40001
1.73807
1.76706
1.40001
1.65823
1.40001
1.40001
1.40001
1.40001
1.40001
1.73717
1.40001
1.40001
1.40001
1.40001
1.40001
1.40001
1.40001
1.5333
1.40001
1.78882
1.40001
1.40001
1.40001
1.40001
1.40001
1.40001
1.40001
1.40001
1.40001
1.40001
1.24527
1.40001
1.78133
1.15221
1.40001
1.39987
1.40001
1.40001
1.70131
1.40002
1.40001
1.4
1.40001
1.40001
1.77442
1.33596
1.40001
1.40001
1.6259
1.44308
1.40001
1.41895
1.74398
1.78961
1.40001
1.40001
1.80197
1.40001
1.40001
1.68383
1.40001
1.40001
1.75327
1.40001
1.7375
1.40001
1.40001
1.40001
1.40001
1.40021
1.40001
1.24108
1.40001
1.73215
1.44477
1.40001
1.40001
1.40001
1.74071
1.40002
1.40001
1.40001
1.4
1.39964
1.4
1.4001
1.40001
1.40001
1.40001
1.40001
1.6206
1.40001
1.73184
1.71368
1.42007
1.40001
1.40001
1.40436
1.40001
1.40001
1.7396
1.40001
1.40001
1.40001
1.40001
1.40001
1.40001
1.4
1.40001
1.45611
1.62393
1.40001
1.40001
1.15622
1.40001
1.40001
1.24694
1.78186
1.40001
1.39983
1.39998
1.75936
1.40001
1.0213
1.40001
1.40004
1.77552
1.74181
1.40001
1.40001
1.57656
1.40001
1.3998
1.40001
1.40001
1.16656
1.40001
1.40001
1.39769
1.40001
1.40001
1.40001
1.03796
1.40001
1.40001
1.40001
1.40001
1.40001
1.71754
1.40001
1.75242
1.40001
1.14565
1.40001
1.40001
1.73347
1.40001
1.40001
1.40001
1.40001
1.4
1.7717
1.40001
1.40001
1.40001
1.40001
1.1273
1.40001
1.40001
1.40001
1.76988
1.40001
1.40259
1.69773
1.40001
1.40001
1.40001
1.40001
1.40001
1.40001
1.40001
1.40001
1.40001
1.40001
1.19832
1.40001
1.40001
1.40001
1.40001
1.82889
1.40001
1.40001
0.958071
1.00044
1.40001
1.40001
1.39978
1.0987
0.939531
1.40001
1.40001
1.40001
1.55094
1.19381
1.40111
1.40001
1.40001
1.39994
1.40001
1.40001
1.40001
1.40001
1.40001
1.40001
1.40001
1.40001
1.77055
1.66252
1.40001
1.59859
1.40001
1.77097
1.40001
1.40001
1.40001
1.40001
1.40001
1.83604
1.40001
1.40001
1.40001
1.39707
1.4
1.40001
1.40001
1.40001
1.40001
1.40001
1.40001
1.40353
1.73734
1.40001
1.40001
1.20951
1.39998
1.16126
1.15618
1.40001
1.71088
1.73538
1.73199
1.40001
1.71494
1.40001
1.01876
1.40001
1.40001
1.40001
1.32325
1.40001
1.40001
1.72568
1.40001
1.45891
1.72943
1.40001
1.40001
1.40001
1.40001
1.40001
1.73334
1.12475
1.40001
1.40001
1.71941
1.40001
1.40001
1.40001
1.40001
1.40001
1.73324
1.40001
1.40001
1.40001
1.40001
1.40001
1.40001
1.40001
1.40001
1.73926
1.40001
1.05338
1.40001
1.40001
1.40001
1.40001
1.4
1.39897
1.40001
1.40001
1.39999
1.40001
1.50621
1.40001
1.72229
0.929128
1.40001
1.39962
1.40001
1.40001
1.40004
1.40001
1.40001
1.59073
1.40001
1.40001
1.40001
1.29825
1.15516
1.40001
1.75427
1.40001
1.4
1.40001
1.40001
1.40001
1.40001
1.40001
1.75325
0.998006
1.40001
1.39842
1.40001
1.40001
1.3999
1.40001
1.40001
1.40001
1.75915
1.40001
1.40001
1.40001
1.40001
1.40001
1.40001
1.46354
1.14261
1.40001
1.40001
1.39996
1.40001
1.40001
1.40001
1.40001
1.40001
1.4
1.40001
1.40001
1.71592
1.40001
1.40001
1.40001
1.40001
1.40001
1.22978
1.76313
1.62096
1.40001
1.40001
1.40001
1.40001
1.7609
1.40001
1.40001
1.40001
1.40001
1.40001
1.40001
1.6872
1.85438
1.52858
1.14166
1.40001
1.74572
1.84206
1.40001
1.40001
1.40001
1.40001
1.40001
1.17266
1.40183
1.19033
1.40001
1.18889
0.916484
1.40001
1.05396
1.40001
1.40001
1.40001
1.40001
1.40001
1.75392
1.4
1.39999
1.62025
1.40001
1.15739
1.27955
1.44679
1.40001
1.40001
1.74099
1.40001
1.40001
1.40001
1.31734
1.40001
1.40001
1.40001
1.40302
1.40001
1.40001
1.40001
1.39995
1.40001
1.40001
1.40001
1.7405
1.40001
1.15947
1.40001
1.42194
1.1473
1.40001
1.40001
1.40001
1.40001
1.40001
1.39998
1.40001
1.40001
1.40001
1.78197
1.40001
1.71312
1.40001
1.40001
1.40001
1.40001
1.59958
1.40001
1.40001
1.02171
1.40001
1.40001
1.40001
1.4
1.40001
1.40001
1.40001
1.14988
1.40001
1.40001
1.17854
1.40081
1.40001
1.74205
1.16201
1.40001
1.1557
1.75433
1.40001
1.40001
1.40001
1.40001
1.40001
1.40001
1.40001
1.40001
1.40001
1.40001
1.40001
1.40001
1.40001
1.40001
1.7448
1.14629
1.40001
1.40001
1.40001
1.40001
1.40001
1.40001
1.40001
1.40001
1.40001
1.00684
1.40001
1.40001
1.74226
1.40001
1.40001
1.56821
1.39999
1.12122
1.18927
1.25738
1.17089
1.40001
1.40001
1.20176
1.40036
1.81598
1.39703
1.40001
1.40001
1.72066
1.40001
1.40001
1.40001
1.27016
1.40001
1.55895
1.40001
1.40001
1.40001
1.40001
1.40001
1.16623
1.40001
1.40001
1.40001
1.40001
1.40001
1.40001
1.40001
1.40001
1.15603
1.40001
1.40001
1.14468
1.40001
1.41733
1.40001
1.39603
0.938304
1.40001
1.40001
1.40001
1.4
1.15454
1.40001
1.18727
1.40001
1.39999
1.40001
1.15962
1.12817
1.40001
1.38999
1.40001
1.40001
1.40001
1.40001
1.40001
1.40001
1.39992
1.72006
1.40001
1.40001
1.40001
1.40001
1.40001
1.40001
1.40001
1.40001
1.40001
1.40001
1.40001
1.41839
1.40001
1.39861
1.25525
1.40001
1.40001
1.40001
1.40001
1.40001
1.40001
1.39993
1.40001
1.40001
1.40001
1.40001
1.40001
1.40001
1.40001
1.40001
1.01758
1.40001
1.39861
1.82885
1.40001
1.40001
1.41322
1.7186
1.40001
1.40001
1.40001
1.17375
1.75634
1.40001
1.74532
1.40001
1.40001
1.40001
1.10849
1.40001
1.14497
1.40001
1.40001
1.40001
1.13974
1.17575
1.40001
1.40001
1.40001
1.40001
1.4
0.917937
1.40001
1.40001
1.40001
1.43214
1.40001
1.14571
1.42516
1.40001
1.40001
1.40001
1.40001
1.40001
1.40001
1.40001
1.40001
1.39999
1.40001
1.40001
1.40001
1.40001
0.906571
1.40001
1.73284
1.40001
1.40001
1.40236
1.4
1.40001
1.40001
1.40001
1.41018
1.39999
1.40001
1.13476
1.40001
1.40001
1.40001
1.40001
1.40001
1.40001
1.40001
1.40001
1.40001
1.40001
1.40001
1.73247
1.40001
1.40001
1.40001
1.40001
1.40001
1.40001
1.40001
1.68148
1.40001
1.40001
1.40001
1.40001
1.4
1.40001
1.40001
1.40001
1.40001
1.40001
1.40001
1.40001
1.40001
1.40001
1.40001
1.40001
1.40001
1.76111
1.40001
1.40001
1.7571
1.01263
1.40001
1.40001
1.40001
1.40001
1.40001
1.40001
1.40001
1.40001
1.40001
1.40001
1.79867
1.40001
1.40001
1.40001
1.73421
1.40001
1.40001
1.39964
1.40001
1.40001
1.40001
1.40001
1.40001
1.1436
1.40553
1.40001
1.39592
1.40001
1.40001
1.20005
1.79415
1.40001
1.17641
1.40001
1.40001
1.4
1.12136
1.4
1.40001
1.73236
1.78279
1.40001
1.40001
1.41303
1.40001
1.67621
1.18589
1.40001
1.40001
1.40001
1.40001
1.75105
1.02318
1.39736
1.40001
1.73179
1.1519
1.40001
1.40001
0.92027
1.53491
1.40001
1.40001
1.40001
1.40001
1.40001
1.40001
1.40001
1.40001
1.40001
1.40012
1.40001
1.40001
1.40001
1.40001
1.40001
1.40001
1.40001
1.40001
1.40001
1.04111
1.40001
1.40001
1.40001
1.44934
1.40001
1.40001
1.40001
1.40001
1.40001
1.23473
1.40001
1.14572
1.40001
1.40001
1.40009
1.25428
1.33422
1.40001
1.40358
1.39999
1.40001
1.40001
1.14768
1.40001
1.40001
1.40001
1.40001
1.10605
0.972877
1.40001
1.40001
1.40001
1.40001
1.40001
1.40001
1.40001
1.40001
1.40001
0.953727
1.65763
1.40001
1.40001
1.12934
1.5204
1.40001
1.40001
1.40001
1.40001
0.957051
1.40001
1.24227
1.40001
1.40001
1.40001
1.40001
1.40001
0.970806
1.40001
1.72928
1.40001
1.15687
1.40001
0.886019
1.40001
1.40848
1.40001
1.72132
1.40001
1.40001
1.79755
1.40001
1.40001
1.40001
1.39692
1.40001
1.39828
1.40001
1.79634
1.40001
1.1536
1.40001
1.83703
1.39902
1.40001
1.40001
1.32137
1.40001
1.40001
1.12131
1.40001
1.40001
1.40001
1.40001
1.40001
1.40001
1.40001
1.40001
1.29072
1.40001
1.40001
1.40001
1.40001
1.40001
1.10926
1.4
1.40001
1.40001
1.40001
0.960113
1.75986
1.40001
1.12523
1.40001
1.40001
1.40001
1.40001
1.40001
1.79528
1.39999
0.886243
1.40001
1.40001
1.40001
1.40001
1.40001
1.40001
1.40001
1.40001
1.4
1.40001
1.40001
1.40001
1.74736
1.40001
1.40001
1.44427
1.15615
1.40001
1.40001
1.40001
0.966246
1.40001
1.4
1.40001
1.40001
1.40001
1.40001
1.40001
1.40001
1.40001
1.40001
1.83965
1.7412
1.7571
1.71377
1.74497
1.40001
1.40001
1.40001
1.40001
1.74258
1.40001
1.40001
1.40001
1.15076
1.40019
1.39991
1.40001
1.40001
1.40001
1.40001
1.39999
1.40001
1.47617
1.40001
1.40001
1.40001
1.24425
1.49801
1.4
1.40001
1.77928
1.40001
1.40001
1.40001
1.74464
1.40001
1.4
1.39738
1.15053
1.40001
1.40001
1.40001
1.40001
1.40001
1.40001
1.40001
1.40001
1.10154
1.40001
1.40001
1.39512
1.16715
1.40001
1.40001
1.40001
1.40001
1.15293
1.4
0.950207
1.74869
1.40001
0.900019
1.40001
1.42367
1.40001
1.76987
1.18613
1.40001
1.40001
1.16144
1.40001
1.15117
1.40001
1.40001
1.40001
1.11925
1.40001
1.74083
1.1503
1.40001
1.02117
1.40001
1.74523
1.40001
1.40001
1.40001
1.40001
1.33159
1.40001
1.39966
1.15222
1.40001
1.39948
1.40001
1.18313
1.40001
1.40001
1.40001
1.40001
1.63203
1.40001
1.40001
1.40001
1.40001
1.85116
1.40001
1.40001
1.73159
1.40001
1.15509
1.40001
1.13286
1.40001
1.40001
1.40001
1.40001
1.40001
1.40001
1.58829
1.40001
1.40001
1.40001
1.4
0.941754
1.16496
1.40001
1.40001
1.40001
1.40001
1.15379
1.40001
1.47157
1.40001
1.40001
1.76021
1.40001
1.40001
1.15761
1.85482
1.40001
1.15354
1.40001
1.40001
1.40001
1.40001
1.40001
1.40001
1.40001
1.40001
1.40001
1.40001
1.14755
1.3994
1.19167
1.40001
1.40001
1.40001
1.40001
1.62198
1.74669
1.40001
1.40001
1.18668
1.40001
1.40001
1.40001
1.40001
1.40001
1.40001
1.40001
1.71772
1.13642
1.79544
1.40001
1.19121
1.75419
1.40001
1.20252
1.57944
1.40001
1.40001
1.40001
1.15071
1.40001
1.16283
1.40001
1.39747
1.12217
1.76846
1.40001
1.40001
1.40001
1.40001
1.40001
1.79278
0.890909
1.40001
1.40001
0.999908
1.40004
1.40001
1.21862
1.14762
1.40001
1.40001
1.39997
1.7245
1.40001
1.40001
1.18446
1.00311
1.40001
1.85349
1.40001
1.40001
1.40001
1.40001
1.73211
1.40001
1.40001
1.74981
1.40001
1.40001
1.40001
1.40001
1.40001
1.40001
1.40001
1.40001
1.40001
1.40001
1.79003
1.72888
1.40001
1.40001
1.40001
1.40001
1.40001
1.40001
1.40001
1.13985
1.31069
1.1613
1.40001
1.40001
1.74384
1.40001
1.40001
1.81085
1.01663
1.40001
1.72783
1.40001
1.77941
1.12863
1.40001
1.14072
1.40001
1.40001
1.75795
1.40001
1.78171
1.40001
1.40001
1.18154
1.40001
1.40001
1.40001
1.14662
1.40001
1.40001
1.40001
1.40001
1.40001
1.40001
1.84577
1.40001
1.14918
1.39999
1.40001
1.40001
1.40001
1.40001
1.40001
1.40001
1.47624
1.40001
1.74049
1.40001
1.40001
1.40001
1.39873
1.40001
1.75147
1.40001
1.40001
1.78702
1.40001
1.77871
1.40001
1.79349
1.40005
1.40001
1.40001
1.40001
1.15776
1.74071
1.40001
1.40001
1.67646
1.40001
1.40001
1.40001
1.71563
1.40001
1.40001
1.40001
1.40001
1.40001
1.52813
1.49456
1.40001
1.40001
1.24519
1.40001
1.40001
1.40001
1.40001
1.40002
1.40001
1.40001
1.40001
1.77273
1.18804
1.39999
1.40001
1.75324
1.40001
1.40001
1.40001
1.79596
1.74735
1.39741
1.40001
1.17801
1.40001
1.40001
1.50779
1.78423
1.40001
1.40001
1.40001
1.40001
1.11879
1.40001
1.40001
1.43625
1.44951
1.40001
1.40001
1.40001
1.40001
1.40001
1.40001
1.40001
1.39994
1.80334
1.40001
1.40001
1.40001
1.40001
1.40001
1.69683
1.40001
1.40001
1.40001
1.40001
1.40001
1.7814
1.12424
1.39878
1.40001
1.40001
1.40001
0.962743
1.77844
1.40001
1.40001
1.40001
1.40001
1.40001
1.40001
1.40001
1.40001
1.40001
1.72701
1.72923
1.15388
1.41555
0.959354
1.40001
1.0221
1.40001
1.73077
1.55762
1.40001
1.40001
1.33201
1.40001
1.76979
1.40001
1.39657
1.03155
1.40001
1.40001
1.8399
1.40001
1.39711
0.93817
1.83023
1.84772
1.40001
1.40001
1.40001
1.40001
1.40001
1.40001
1.40001
1.40001
1.40001
1.74159
1.40003
1.40001
1.40001
1.16104
1.40001
1.40001
1.76182
0.991166
1.40001
1.12388
1.72518
1.40001
1.40001
1.40001
1.16397
1.13087
1.5878
1.40001
1.40001
1.76809
1.40001
1.40001
1.40001
1.40001
1.75733
0.947352
1.40001
1.40001
1.40014
1.74171
1.40013
1.57208
1.40001
1.40001
1.40001
1.40001
1.37214
1.40001
1.1791
1.40001
1.40001
1.40001
1.15984
1.40001
1.34244
1.18589
1.40001
1.40001
1.75473
1.40001
1.40001
1.40001
1.72082
1.40001
1.40001
1.82152
1.77197
1.36506
1.4
1.40001
1.40001
1.40001
1.55291
1.40001
1.40001
1.40001
1.40001
1.40001
1.84877
1.40001
1.40001
1.40001
1.40001
1.7579
1.40021
1.40001
1.13651