/*--------------------------------*- C++ -*----------------------------------*\
  =========                 |
  \\      /  F ield         | OpenFOAM: The Open Source CFD Toolbox
   \\    /   O peration     | Website:  https://openfoam.org
    \\  /    A nd           | Version:  12
     \\/     M anipulation  |
\*---------------------------------------------------------------------------*/
FoamFile
{
    format      ascii;
    class       volScalarField;
    location    "0.2";
    object      T;
}
// * * * * * * * * * * * * * * * * * * * * * * * * * * * * * * * * * * * * * //

dimensions      [0 0 0 1 0 0 0];

internalField   nonuniform List<scalar> 
45568
(
1
1
1.27883
1
1
1
1
1
1
1
1
0.962894
1
1
1
0.681646
1
1
1
1
1
1.34374
1
1
1
1
1
1
0.706688
1
1
1
1
1
1
1
1
1
1
1
1
0.832034
1
0.964944
1
1
0.850422
1
1
1
0.952203
1
1
1
1
1.32287
1
0.967061
1
1
1
1
1
1
1
1
1
1
1
1
1
0.833062
0.951886
1
1
1
1
1
1
1
1
1
0.821719
0.953472
0.983363
1.00001
0.957651
1
1
1
1
1
1
1
1
1
1
1
1
1
1
0.979002
1.12879
1
1
1
1
1.34344
1
1
1
1
1
1
1
1
1
1.12917
0.949603
1
1
1
1.32681
1.32048
1
1
0.958656
1
1.04265
1
0.961304
1
0.971987
1
0.691381
1
1
1
0.980946
0.978276
1
1
1
1
0.83326
1
1
1
1
1
1
1
0.750853
1
0.740124
1
1
1
0.673177
1
0.664713
1
1
0.865037
0.820152
1
1
1
1
1
0.68337
1
1
1
0.945173
0.66267
0.657012
1
0.957965
0.962617
0.948556
1
0.669651
0.663631
1
1
1
1
1
0.681828
0.677539
1
1
1
1
1
0.683346
1
0.80631
0.684041
1
1
1.28931
1
1
0.96795
1
1
1
1
1
1
1
1
1.31377
0.684496
0.68227
1
1
1.31862
1
1
1
1
0.940803
1
0.678125
0.675442
1
1
1
1
0.760447
0.958944
1
1
1
1
1
1
0.832216
1
0.945843
1.00001
1
1
1.28293
1
1
1
1
1
1
0.971455
0.680653
1
0.680754
0.678756
0.678594
1
1
1
1
1
0.948184
1
1
1
0.966576
0.669502
1
0.67938
1
0.957674
1
1
1
1
1
1
1
1
1
0.819017
1
1
1
1
1
1
1
1
0.961744
1
1
1
1
1
1
1
1
1
1
1.29443
1
1
1
0.980995
1
1
1.32657
1
1
1
1
1
1
1
0.778389
1
1.26822
1
1.26671
1
1
1
1
1
1
1
1
1
0.782162
1
1
1.04237
1
1
0.957552
1
1
1
1.30278
1
1
1
1
1
1
1
1
1
1
1
1
1
1
1
0.999063
1
1
0.885859
1
1
1
1
1
1
1
0.965799
1
1
1
1
1
1
1
1
1
1
1
1
1
0.952714
0.695907
1
1
1
1
1
1
1
1
1
0.692255
1
1.00206
1
1
1
1
1
1
1
1
1
1
1
1
1
1
1
1
1
1
1
1
1
1
1
1
1
1
1
1
1
1.25543
1.25291
1
1
1.12158
1
1
1
1
1
1
1
1
1.2284
0.684458
1.23412
1
1
1
1
1
1
1
0.999798
1
1
0.999997
1
1
1
1
0.960498
1
1
1
1
1
1
1
1
1
1
0.717241
0.709109
1
1
1
0.861721
1
0.958526
1
0.949546
1
1
0.97412
1
1.0028
1.00014
1
1
1
1
1
0.957519
1
1
1
1
0.666767
1
0.659543
1
1
1
1
1
1
1
1
1
1
1
1
1
1
1
1
1
0.800452
1
1
0.70528
1
1
1
1
1
1
1
1
1
1
1
1
1
1.32676
1
1.00001
1
1
1
0.689068
1
1
1
1
1
1
1.26097
1
1
0.890222
1
1
1
1
0.684599
0.682724
1
1
1
1
1
1
0.97969
0.693081
1
1
1
1
1
1
1
1
1
1
0.875264
1
1
1.22777
1
0.98503
1
0.837795
1
1
0.910821
1
1
1
1
1
1
1
1
1
1.28081
1
1
0.951903
1
1
1
1
0.684809
1
1
1
1.0586
0.67603
0.674619
0.9537
1
0.95873
1
1
1
1
1
1
1
1
1
1
1
1
1
0.98715
1
1.00321
0.687528
1
1
1
1
1
1
1
1
1.28024
1
1
1
1
1
1
1
0.688245
1
1
1
1.37252
1
1
1
1
0.952522
1
1
1
1
1
1
1
1
1
1.04521
1.04131
1
1
0.979002
1
1
1
1
1
1
0.949186
1
0.960265
1
1
1
1
1
1
1
1
1
1
1
1
1.24585
1
0.770431
1
1
1
1
0.826104
1
1
1
1
0.962397
1
1
1
1
1
1
1
1
1
1
1
1
1
1
1
1
1
1
1
1
1
1
1
1
1
1
1
1
1
1
1
1
1
1
1.00003
1
1.02089
0.942422
1
1
1
1
1
1
1
1
1
0.941676
1
1
1.25844
1
1
1
1.3725
1
1
1
1
1
1
1
1
1
1
1
1.00001
1
1
1
1
1.02423
1.07146
1.29969
1
1
0.817234
0.891472
1.07425
1
1
1.00002
1
1
1.02844
1
1.26945
1.23863
1
1
1
1
1
1
1
1
1
1
1
1.21118
1
0.794397
0.992612
0.808818
0.949093
1
1
0.986914
1
0.867432
1
1.0174
1
1
1
1
1.04382
1.03201
1
1
1
1
1
1
1.21052
1
1.22668
1
1
1.01099
1
1.00002
1.12049
1
1
1
1.21598
1
1
1
1
1
0.956135
1
1.04883
1
1
0.974713
0.951417
1
1
1
0.966533
1
1
1
1
0.683259
1
0.691048
1.23024
1
1
1
1
1
1
1
1
1
1
1
1.07949
1
1
1
1.09242
1.0679
1.05647
1
0.979226
1
1
1.10951
1
1
0.973664
1
1
1.27694
1
1
1.14282
1
1
0.65703
1
1
0.662822
1
1
1
0.97003
1
1
1
1
1
0.866601
1.03194
1
0.979449
1
1
1
1
1
1
1
1
0.980166
1
1
1
1
1
1
1
1
0.658637
0.66527
0.884285
1
1.2112
1
1
1
1
0.882493
1.18357
1
1
0.858811
0.83899
1
1
1
1
1
1
1
1
1
1
0.670692
0.67536
1
1.25874
1
0.821482
1
1
1
1
1.0001
1
1
0.994518
1
1
1
1
0.994374
0.844728
1
1
1
1
0.999999
1
1
0.997966
1.23541
1
1
1
1
1
1.00001
1
1
1
1
1
0.690118
1
1
1
1
0.680827
0.683888
1
1
1
1
1
1
1
1
1
0.832821
1
1
1
1
1
1.02737
1
1
1.0202
1
1
1
0.859404
1
1
0.973468
1
1
1
1
1
1
1
0.981428
1.06242
1
1
1.00152
1.00308
1
0.684631
0.678748
1
1
0.685405
1.06161
1
1.05946
0.673676
1
1
1
1
1
1.00708
1.01236
1
1.00809
1.01232
0.678707
1
1
1
1
1
1.00675
1.00565
1
0.681352
1.04151
1
1
1
1.03274
1
1.06066
1
1
1
0.97532
0.951279
1
1.26389
1
1
0.872532
1.22613
1
1
1
1
0.865658
1
1
1
1.26137
1
1.26399
1
1.00009
1
1
1.00002
1
1
0.999996
1
0.999922
1
0.999985
1.13552
1
0.999786
1
1.12645
0.997261
1
1
1
1
1
1
1
1
0.869762
1
1
1
0.970703
1
0.998567
0.676578
1
0.970666
1
1
1
1
1
1
1
1
1.00107
1
1
1
1
1
0.961772
1.20233
0.906297
1
1
1
0.900059
1
1
1
1
1
1
1
1
1
1
1
1
1
1
1
1
1
0.677338
1.27284
1
1
1
1
1
1
0.67982
1
1
1
1.27423
1.2462
1
1
0.682316
1
1
1
1
1
1
1.25852
1
0.999976
1
1
1
1
1
1
1
1
1
1
1.02002
1
1.12164
1
1
1.16485
1.03935
1
1
1
1
1
1
1
1.00029
1
1
0.892817
0.900433
0.911057
1
1
0.913067
0.902138
1
1
1
0.993178
1
0.674723
1
1
0.682743
1
1
1
1
1
1
1
1
1
1
1
1
1
1
1
1
0.885288
1.28038
1
1
1.05422
1.07716
1.27972
1
1
1
1
1
1
1
1
1
1
1
1
1
1
1
1.04972
1
0.713986
1
1
1
1
1
1.28495
1
1
0.689278
0.84792
1
1
1
1
1
1
1
1
1
1
1.28341
1
1
1
1
1
1
1
1
1
1
1
1
1
1
1
1
1
1
1
1
1
1.28983
1
1
0.849539
1
1.00002
1
1
1.00012
0.700766
0.999835
0.787415
0.84717
1
1.28815
1
1
1
1
1
0.999959
1
1
1
1
1.00023
1.29431
1.00737
0.999685
1
0.999822
0.691309
1.29263
1.02684
1
0.979801
0.98343
1
1.30102
1.00016
1
1.30224
1
1
1.30495
1
1.01523
1
1.30642
1
1.02026
0.963283
1
1.31222
1
0.999983
1.31251
1
1.05898
1
1
1.03217
1
1.26541
1.08532
1
1
1
1
1.26289
1
1.11795
1.27676
1.32814
0.964039
1
1
1.02882
1.32766
1
0.979565
1
0.951282
1
1.02261
1.03271
0.940722
1
1
1
1
1
0.939712
1
0.935724
1
1
0.932926
1.0868
1.07126
1
1
1.10404
1
1
1
1
1
1
1
0.998835
1
1
1
1.00001
1.24989
1
1
1
1.25061
1
1
1
1
0.991098
1
1
1
0.690159
1.06381
1
0.886437
0.886972
1
1
1.1769
1
1.01995
1
1
0.972922
1
1
1
1
1
1
1
1
1
1.25664
0.863907
1.08875
1
1.04397
0.863205
1
1
1.00013
1
1
1
0.996552
1.04631
1
0.99999
1
1
1
1
1
1
1
1
1
1
1
1
1
1
0.962215
1
1
1
1.0462
1
1
0.999701
1.34771
1
1
1
1.34814
0.739451
0.966649
1
1
1
1
1
1
1
1
1
1
1.03617
1
1.36135
1.35807
1.09628
1
1
1
1
1.33939
1
1
1.0004
0.668203
1
1.08235
0.856144
1.08938
1
1.28437
1.34856
1
1
1.33421
1
1
1
0.854635
1
1.04847
1
1
1
1
0.668112
1
1
1
1
1
0.849373
1
1
0.999998
1.06523
1.15284
0.906329
1
1
1.07151
1.00964
1
1
1.03558
1.00628
1.14325
1
1
1
1
0.974236
1.03555
1
1
1
1
1
1
1
1
1.04721
1
1.04455
1
1
1.03446
1
1
1.03292
1
1
1
1
1.24167
1
1
0.97616
1.23102
1.22956
1
1
1
1
1
1
1
1
1
1
1
1
1
1
1
1
1
1
1
1
1
1
1
1.08769
1
1
1
1
1.2835
1
1
1
1
1
1
1
1
1
1
1
1
1.26851
1
1
1
1
1
1.04212
1
1.23018
1
1.03968
1
0.99981
1
1
1
0.98456
1
0.980857
0.974081
1.27764
1.14735
1
1
1
1
0.869189
1
1.13701
0.964993
1
1
1.219
0.964305
0.698443
1
1
1
0.964666
1
1
1
1.00166
1
1
1
1
1
1.13653
1
0.694026
1
1
1
1
1.1573
1
1.01306
1
1
1
1
1.26771
1
0.858184
1
1.29417
1
0.999276
1.00852
1
1.29606
1
0.823702
1
0.853645
1
1.15144
1.20365
1
1
1
1
1
1.28665
0.951182
1.31772
1
1
1
1.31817
1
1
0.948539
0.958737
1
1
1.3334
1
1
1.28677
1
1
1.33317
0.903883
1
1
1
1
1
1
1
1
1.01978
1
1
1
1.26153
1
1
1
1
1
0.900447
1
1
1
1
1
1
1.00001
1
1
1.00084
1
1
1
0.865023
1.35228
1.35302
1
1.00133
1
1
1
1
1
1
1
1
1
1.27798
1
1
1
1.00128
1.02165
1
1
1
1.02956
1
1
1.36221
1.0013
1
0.999999
1
1.36222
1
1
0.918956
1
0.975463
0.957677
0.999999
1
1.27555
1
0.999997
1
1
1
1
1.25514
1.26534
1.26082
1
1
1
1.25665
1
1.03615
1.26909
1.25931
1
1
1.27004
1
1
1
0.967219
1
1
1
1
1
1
1
1
1
1
1
1
1
1
1
1
1.2431
0.999992
0.951361
1.02855
1
0.871659
1
1
1.02904
1
1
1
1
1
1
1
0.936744
1
1
1.02825
1
1
1.25518
1
1
0.927593
1
0.982027
0.980258
1
1
1.24592
1
1
1.25572
0.986633
1
0.982177
1
1.1982
1.00001
1
1
1
1
0.663058
1
0.956918
1.35653
0.946395
1
1
1
1.27866
0.953268
1
0.955172
1.31805
0.950416
1
1
1.07577
1
1.27904
0.941963
1
1.06989
0.966744
1.26606
1
1.27172
1
1
0.880653
1
1
0.956186
1
1
1
1
1
1
1
1
1.0417
0.999999
1
1
1.07846
1.05823
1.26259
1
1.29384
1.05799
1.04167
1.00044
1
1
1
1
1.01985
1
1
1
0.997422
1.00899
0.946673
1
1
1
0.877769
1
1.00003
1
1.02492
0.875357
1
1.25124
1
1
1
1
0.999049
0.700397
1
1
1
1
1.03042
1
0.93439
1.0469
1
0.869474
1.02187
1.04378
1
1
1.34027
0.849097
0.856678
0.99999
1.25189
1
0.957539
1
1
1
1
1
1
1
1
1.03299
1
1
0.861317
1.02991
0.867334
1
1
0.860566
0.870778
1
0.88371
1.02226
1
1
1
0.994522
1
1
1.2567
1
1
1
1
0.954746
1
1.26185
0.968157
1.01122
1.25511
1
1.28034
1
1.00798
1
1
1.27644
1
0.962719
1
1
1
0.850795
1.32212
1
1
0.977321
1
0.845429
0.871179
1
1
0.862491
1
1
1
1
1
1.28189
1
1
1
1.08724
1.04558
1
1
0.66842
1.30756
1.32258
1
1.03817
1
1
1.33875
1
1.10233
1.22305
1
1
1
1
1.09377
0.996949
0.988846
1
1
1
1
1
1.35776
1
1
1.24249
1
1.27887
1
1
1.25369
1
1.30831
1
1
1
1
1
1
1
1.29072
1.30358
1
1
1
1
0.984427
1.28575
1
1
1
1
1.26978
1
1
1
1
1
1
1
0.878256
1
1
1
1.02919
1
1.29746
0.982849
1
1
1
1.25699
1
1.17462
1.28178
1
1.01323
1
1
1
0.837834
1.27183
1
1
0.999609
1.28994
1.27629
1
1.30517
1
0.83596
1
1
1
1
1.16015
1
1
1.27201
1
1.2573
0.693202
1.25793
1
1
1
1
0.863573
1
1
1
1
1
1
1
1
1
1
1
1.36392
1
1
1
0.8584
1.03355
1.35797
1
1
0.847375
0.835744
1
0.9831
0.849923
1
1
0.974171
0.979781
0.969201
1
1
1
1.25601
0.844068
1
0.845241
1.29225
1
1
1.28729
1
1
1
0.850488
1.28289
1
1
1
1.36514
1
1
1
1
0.85459
1.27676
0.823989
0.844643
1
1
1
1.06538
1
1
1.29864
1
1
1
1
0.946071
1
1
1
0.94862
0.959238
1
1
0.999998
1
1
0.953177
0.940289
1.09422
1.00008
1
1
1
1.24384
1
1
1
1
1
1.24394
1
1
0.99216
0.942031
1
1
1
1
1
1
1
1
0.980261
1
1
1
1
1
0.982546
1
1
1
1
1
1
1
1.00395
0.965653
1
0.966401
0.972857
1.00011
1
1
1
1
1
1
1
1
1
1
1
1
1
1
1
1
1
1
1
1
1
1
1
0.902535
1
1
1
1
1
1.25337
1
1
1
1
0.896836
1
1
1
1
1
1
0.913368
1.25085
0.905115
1.28581
1
1
1
1
1
1
1.28168
1
1.18741
1
1
1
1
1.25258
1
0.873837
1
1
1
0.824139
1
0.833062
1
1
1
1
1
1
0.867548
0.823742
1
1
1.00004
1
1
1.05665
1
1
1
1
1
1.25349
1
1
1
1
1
1
1
0.950513
1
1
0.823282
1
1
1
1.27938
1
1.28357
1.06215
1
1
1.26443
0.999993
1
1.28126
1
1
0.999999
1
1
1
1
1.20581
1
1
1
1
1
1.24467
1
1
1
1
1.05208
1
1
1
1.05441
1
1.11027
0.999959
1.24689
0.874688
1
1
1
1
1.24553
1
1
1
1.25097
1
0.999999
1
1.28214
1.05482
0.907638
1
1
1.03499
1
1.20031
1
1
1
1
1
1
1
1.00003
1
1
1
1
1
1
1
1
1.18647
1
1
1
1
1
1
1.17144
0.921501
1.00002
1.22411
1.18324
1
1
1
1
1
1
1
1
1
1
1
1
1
0.999989
1
1.003
0.966051
1
1
1
1.28185
1
1
1
1
1
1
0.82416
1
1.27767
1
1.26662
1
1.22391
0.999205
1
1
1.02918
1
1.04537
1
1.08206
1
1
0.991346
1
1
1
1.17396
1.08106
1.23163
1
1.16666
1
1
1
1
1
1
1
1
1.05189
1
1
1
1
1
1
1.24543
1
0.679638
0.95844
1
0.963532
0.997753
0.969934
1
1.00001
1.03111
1.25896
1.10208
1.06473
1
1
1
1.05178
1.24955
1.15256
1.05711
1
1
1
1.24376
1.25341
1
1
1
1
1
1.06737
1
0.998768
1.06312
1
1
1
0.995273
1
1.105
0.999941
1.03685
1.25291
1
1.02586
1.15891
1
0.946628
1
1.00003
1.05553
1.28324
1
1
1
1
0.94829
1
1
0.999995
1
1
1
1
1
0.848578
1
1
1
1
1.00612
1
1
1
0.871945
0.9493
1
1
1
1
0.927088
1
1
1.0021
1
0.837027
1
1
1
1
1
1.23811
1
1
1
1
1
1
1
0.966279
1
1.00003
1.19089
1
0.933877
1
1.00001
1
1.25403
1
1
1
1.11252
1
1.11944
0.873516
1
1
1.03427
1
1
1.16793
1
1
1
1
1
1
1
0.99867
1
1
0.867222
1.00008
1
1
1
1.28008
1
1.00913
1
1.15779
1.24665
1
0.892206
1
1
1
1.11482
1
1
1
1.09842
1
1
1
1.28317
1.00001
0.992506
1
1
1
1
1.04223
1
1
1
1.18893
1
1.08345
0.968264
0.980582
0.879352
1
0.914761
1.02193
1.24725
1
1.17353
0.999147
1.06674
1
1.15258
1
1
1
1.24577
1
1.03618
1
1
1
1
1
1
1
1
1
1
1
0.97567
1
1
0.983352
0.878475
0.952573
1.17829
1
1
1
1
1
0.945752
1
1
1.00721
1
1
1.00889
0.999993
1
1
0.999906
1
1
0.851883
1.04804
1.16982
1
1
0.927377
1.07972
1
1.17567
1
1.2569
1
1
0.992796
1
1.04358
1
1.24806
0.944318
1
1.06686
1
1
1.24923
1
1
1.00474
1.2562
0.851885
1.16411
1.05069
1.01004
1.00001
1.02818
1
1
1
1
1.03369
1.25336
1
1
1
1
0.856172
1
1.00001
1
1
1
1
1
1
1
1
0.938605
1.03238
1
1
1.21452
1
1.00001
1
1
1
1
1
1
1.00002
1.12267
0.927816
1
1.12093
1.1136
1
0.988516
1
1
0.964526
1
0.992437
1
1.25348
1
1
1.00005
0.999513
1
1.25075
1
1
1
1
1
0.963016
1
1
1.25223
1
1
1
0.999994
1
1
0.999924
0.944226
1
1
1.26184
1
1
1
0.949878
0.999999
1
1.25207
1
1
1
1.05419
0.92563
1
1
0.853926
1.17931
0.990707
1
1.25565
1
0.950958
1
1
1
0.95774
1
1
1.24293
0.950914
1
1
0.951141
1
1
1
1
0.890584
1
1
1
1
1
1
0.996338
1
1.02612
1
1.22225
0.877906
1
1.0167
1
0.938521
1
0.964077
1.00806
0.960479
1
1
1
1
0.997905
0.941678
1
0.88184
1
1
1
1
1.07582
1
0.982055
1
1
1
1
0.999025
1.24991
0.897277
1.0849
1
1
1
1
1.16422
0.820357
1
0.984253
1
1.00042
1
1
1
1
1
1.18401
1
1.25308
0.84629
0.995117
1
0.827501
1
1
1
1.00187
1
0.862135
1
1.00064
1
1
1
1.12677
1
1.16535
1
0.981214
1
1.25786
1
1.17753
1.1077
1
1
1
1
1
0.825051
1
1
0.972199
0.965677
1
1
1.2545
1
1
1
1
1.25022
0.854562
1
0.963968
1
1
1
0.999839
1
0.820078
1
1.25169
1
1
0.956296
0.964475
1.00002
1.00006
1
1
1.17893
1
1.2578
1
0.849431
1.05611
1
0.819749
1
1.06583
1
1.00517
0.998837
0.708581
1.25459
1
1
1
1
1
1
1.00986
1
1.05951
1
1
1
1
0.963997
0.962319
1
1
0.961985
1
1.0401
0.915597
1
1
1
1
0.947865
1
1.25023
1
1
0.916656
1
1
1
1
1
1
1
1.06108
1.13877
0.992214
1.25511
1
1
0.969748
1
1
1
1
1.25625
1
1
1
1
1.25001
1
0.999999
1.23718
1.20825
1
0.999999
1.23374
1
1.25438
1
0.999599
1
1
1.04658
1.25237
1
1
0.99993
1
0.894523
1
1.2527
1.02251
1
1
1
0.999739
1
1
1.04304
1
1.24708
1.15761
1.24858
1.07777
1.06449
1
1
0.982928
1.28136
1
1
1
1.08103
1.27731
1.01583
1.22761
1
1
1.14016
1.09308
1
1.36407
1
1
1.25203
1.24923
1
1.03244
1
1
1.24727
1.24991
0.972658
1
1.06992
1
1.24911
1
1
1
1.24584
1
1
1
1.23756
1
1.24818
1
1.24799
1
1.24694
1
1
1
1.24673
1
1
1.23993
1
1
1
1.25422
1
0.690066
0.82883
1
1
1
1.24731
1.23783
1.02672
1.09335
1.21844
1
1
1.07468
0.893953
0.996836
1
1.00044
1.21859
1
1.25021
1.16481
1
1
1
1
0.999999
1
1
0.96018
1.24763
1
1
1
1
1
1.07619
1
1
1
1
1
1
0.962302
1.21952
1
1
1.15106
1
1
1
1
1
1.1532
1.11482
1
1
1.12872
1
1
1.15739
0.999518
1
0.955398
1
1
1
1.22657
1
1
1
1.11638
1.19978
1.00772
1
1
0.999955
1.25424
1
1
0.980892
1
1
0.972837
1.17228
1.25352
1
1
1
1
1
1
1.19826
1.00724
1
1
1
0.999984
1.24309
1
0.64388
1
0.871582
1
0.997252
0.926069
1
1.06277
1.18045
1
0.991553
1.27845
1
0.823938
0.999999
0.999712
1
1.1735
0.971
1.25187
1
1
1
1.00713
0.988934
1.17886
1
1
1.25032
1
1.17496
0.975574
1.25313
1.00802
1
1
1
1
1
1
1
0.907978
1
1
1.16138
1
1
1.24653
1
0.985304
1.24974
1
1
0.999993
1
1
1.24461
1.01388
0.934996
1.24682
1.23116
0.85199
1
1
1
1.21003
1
0.886864
1.06829
1.16175
0.878203
0.931766
1
0.852351
1
0.937644
1.25014
1.2475
1
0.852473
1.25774
1
1
1
1
1.1417
1
1.2439
1
1
1
1
0.969388
1
0.850647
1.24784
0.999959
1.20022
1
1
1.14124
1
1
1
0.920111
1
1
1
1
1
1
1
1
1
1
1
1
1
1
1
0.946755
1
1
1.25386
1
1
1
0.972858
1
0.864486
1.2494
1
1
1
1
1
1
1.04163
1.24846
1.10607
1.26525
0.840124
1
1
0.829228
1
1
1.27635
0.836584
0.835958
1
1
0.999986
1
1.25683
1.2489
1
1
1
1
0.970282
0.800076
0.981736
0.83949
1
1
0.894045
0.975311
0.943466
1
1
1
1
1.25298
0.832941
1
1
1.00449
1
0.933928
1
0.68417
1.11527
1.04921
0.99996
1.2579
1
1
1
1
1
0.95856
1
1
1
0.999981
1
0.857897
1.25284
1.2498
1
0.957595
1
1.261
1
1
1
1
0.99998
1
1
0.861689
0.779194
1.23871
1
1
1
1
1
1
1
1
1
0.92446
1
1
0.902344
1.25467
0.813815
1
1
1
1
1
0.843798
1.20675
1.25768
1
1
1
1.24793
1
1.19209
0.936287
1.21452
1
1.11395
1
1
1.00008
1
0.888901
0.968363
1
1
1
1.24887
1
1.20519
0.999955
1
1
0.772269
1.02139
1
0.93452
1.23996
1
1.21749
1.07282
1
1
1.1891
1
1
1
1
1
1.22928
1
0.876325
1
1.24928
1
1
1.24929
0.935577
1
0.645952
1
1
0.835969
0.93095
1
1.09143
1
1
1
1.23341
0.951244
1
0.999973
1.04005
0.996945
1
1
0.819561
1.25857
1
0.913144
0.800348
1
1
1.23883
1.19532
1
1
1
1
1
1
0.824835
1
0.953061
1
1
1
1
1
1
1
1
0.964291
1.25839
1
1.02076
0.661241
0.785681
1
0.872292
0.656424
1
1
1
1
1
1
1.2414
1.25393
0.950314
1
0.937662
1
1
1
1
1
0.965693
1
1
1
1
1
1
1.12538
1
0.957021
1
1
1
1
1
1
1
0.790645
1
0.894101
1
1.26028
1
0.885994
1.25581
1
1
1
1.25426
1
1
1
1
0.741229
1
1
0.930323
0.63821
1.15841
1
1
1
0.93414
0.975665
1
1
1
0.843396
0.975724
1.20918
1
0.832248
1
1
1
0.823532
1.00004
1
1
1
1
0.936186
1
1
0.669144
1
1
1
1
0.808332
1
0.999969
1.24187
1.0325
1
1
1
0.958193
1.19005
1
1
0.995165
1
1
0.713064
0.684478
1
1
1
1
1.00003
1
0.965383
1
1
1
1
0.950754
1
1.25893
1.2635
1
1
1.14586
1
1
1.3295
0.895443
1.00132
1
1
0.972741
1
1
0.844663
0.763516
1
0.959731
1
0.979181
0.922259
1
0.828049
0.768877
1
1
1
0.92786
0.934757
0.981198
1
1
1
0.955683
1
0.916659
1
1
0.696613
1
1
1
0.944265
1.22962
1
0.681876
1
0.697988
1
1.07962
1
1
1.00188
1.24898
1
0.9353
0.827258
1
0.66343
1.20151
0.999968
1
0.703658
1
1
1
1
0.952311
1
1
1
0.910339
1.24986
1
1.15823
1
1
1.2517
1
0.721305
0.989502
0.929172
1.13516
0.911042
1
0.95971
1.01085
1.2606
1
1.28762
1
1.25297
0.957572
0.975516
1
1
1
1.26972
1
1
1
0.906644
1
1.26188
1
0.849467
1
1
1
0.834754
1
1.19831
1
1
1
1.00001
1
1
1
1.25057
1.03355
1
1
1
1
1.24112
0.999992
1
0.702638
0.672491
1
1.18196
1
1.00014
0.827685
1.25521
0.710176
1.1904
1
1
1.25281
1.14781
1
0.971217
1
0.912833
0.70434
1
1
1
0.999998
0.954204
1
1
0.669695
1
1
1
1
1
1.23655
1
1
1.25534
1.22974
1
0.994856
0.992766
1
0.879324
1
1
1
0.867309
1
1
1
1
1
1.2553
1
1.25457
0.889126
0.922146
0.66889
1
1
0.653817
0.981699
1
1
0.922811
0.99999
0.925553
1
1.25668
1
1.2494
1.05539
0.932529
0.827188
1.0021
1
1
0.921766
1
1
1
1
1
0.998164
0.669325
1.01728
1
0.98437
1
1.25482
1
1
1
1
0.714104
1
1
1.27344
1
1
1
1.10033
1
1
0.999567
1.00841
1
0.981011
1.00003
1.26559
1.33859
1
0.943042
1.00607
1
1
1
1
1
0.977732
1.25812
1.02198
0.918796
1
0.654234
0.900365
0.999915
1
0.650585
1
0.883423
1
1
1
0.681483
1
1
1
1.19663
1
1.25608
1
0.986157
1.22972
1.24399
0.924581
1.00495
1.00002
1
1
1
0.951612
1.20193
0.677248
1
1
1
1.25849
1
1
1
1
0.99955
1.25313
1
1
1
1.23951
0.95169
1
1
0.947764
1
1
0.963162
0.977011
1
1.11454
1.25467
1
1
1
0.964296
1.24531
1
1
1
1.25982
1.00001
1
0.715396
1
0.964468
1
0.95267
0.661928
1
1.26224
1
1
1
0.810397
1.25363
0.838184
1.2387
1
0.671008
1
1.25154
0.727664
1
0.999995
0.867231
1
1
1
1
1
1
1.00309
0.958586
1
0.977698
1.24706
1
0.991666
1
0.90272
0.971366
1
1
1.25995
1
1
1
1.00002
1
1
0.671436
1
1
1
1
1
1
1
0.786488
1.16975
0.763942
1
1
1
1
1
1
1
1
1.02524
1
1
0.661175
0.658075
0.96136
1.16009
0.651406
1
1
1
1
1
1
0.928721
1
1
1.26159
1
0.650769
0.741163
1
1
0.926757
1
1
0.721246
1
1
1
1.00001
0.68793
1
1.24501
1.00018
1
1
1.2607
1
1.25144
1
0.661499
1
1
1
0.949005
1
0.999989
1.24124
1
1
0.947892
1
1
1
0.973827
1.25215
1
1
0.942479
1.27094
1.24856
1
1.33898
1
1
1
1
1
1
0.650667
0.995876
1
1
1.26306
0.992255
0.64767
0.964053
1
1
1
0.984572
1
1
0.847407
1
0.658772
0.67674
1
1
0.695924
1.21937
0.978869
1.03824
1
1
1
1
1
0.951711
1
1
0.682009
0.922714
1
0.999997
1
1
0.706214
1
1
1
1
0.829493
0.999999
0.829798
1.00001
0.666301
1.251
1.27783
1
0.989111
1.26679
1
0.97834
1
1
0.94524
1
0.995859
1
0.669048
1
1.27745
1
0.825554
1
0.651131
1.21418
0.671758
1
1.00328
0.906417
1
0.900139
0.951599
0.6623
0.947442
1.28542
1
1.25275
0.644818
0.999998
0.900061
0.999991
1
1.0048
0.965963
1
1
0.854798
1
1
1
0.866022
1
1
0.946677
0.696269
1
0.894205
1.33186
1
1
1
1
0.81089
1
1.05888
1
0.947016
0.652351
1
0.67051
1.25174
1
0.675869
1
0.643803
1
0.98647
1
0.999985
1.27242
0.655014
1
1.26912
1.00213
1
1.20375
1
1
0.641427
1
1.28181
1
1
1.00958
1
1
1
1
1
1
1
1
1.254
0.99999
1
0.999779
1
1
1
1
0.943542
1
1
1
0.852886
1
1
1
0.940675
1
1
0.998804
0.990133
1
1.33139
1
0.94387
1
1
1
1
0.99547
1
1
1.07587
1
1.26829
1
1
1
0.999775
1
0.651292
1
0.870225
1.11257
1
1.21165
1
0.902795
1
1.28551
0.997633
1.22285
1
1
1
0.741347
1
0.808773
1
1
1.2635
1
1.03052
1
1
1
1.27124
0.966639
1
1
0.831306
1
1.00008
1
1
0.964931
1
1
1.00002
1
1.27626
0.822189
1.25276
1
1
1
1.21704
1.23407
1
0.999998
1
1
1
1
1
1
1.28117
1
1
1.25779
1
0.759786
1
0.656385
0.862615
0.955633
0.655817
1
0.962959
0.952731
0.999989
0.657264
1.00005
1
1
1.25473
1
1
1
1.28161
0.986906
1
0.828635
1
1
0.82368
1.03225
0.999988
1.26089
1.12082
0.983634
1
0.953807
1
1
1
1
1
1.24739
1
0.864578
0.834603
1
1
1
1
1
1.24428
1
0.84663
0.999994
1
1
1
1
0.645571
1
0.654478
1
1.27308
0.920566
0.667653
1
1.02663
1
0.999978
0.92895
1.2743
0.951607
1.27722
1.25444
0.819874
0.940184
1.28038
0.765318
1
1
1
1
1
1.15059
0.651985
1
1
1
0.816254
1.03829
0.662156
0.655858
0.999997
1
0.886295
0.980063
1
0.99997
1.2728
1.25491
1
0.999413
1
1
1.17086
1
1
1
1
1
0.829598
0.934627
0.8611
1
0.99997
1.2588
0.659878
1
1
1
1.23234
1
1
1.2706
1.03324
1
1.25313
0.831837
1
0.949211
1
1
1
1.00199
1.28076
1
1
1.29519
1
1.27222
1.00001
1
1
1.22988
1
1
1
1
1.00003
0.779547
0.94138
1
0.935896
1
1.2631
1
1
1
1
1
1
1
1.00001
1
1
1
1
1
1
1
1
1
1
1
0.936942
0.95912
0.984572
1.05561
1.04914
1.00003
1
1
0.869803
1
1
0.959981
1
0.887157
1.00005
1
1
1
1
0.819941
0.999979
1.23337
1
1
0.825658
1.26417
0.973456
1
1.26666
1
1
1
0.729827
1
0.950895
1
1.04742
0.728047
0.95946
1
1
1
1.3349
1
1
0.963917
1
1.00004
1.09753
1
1
1
1
0.958543
1
1
1.26415
1
1.25211
0.908056
1
1
1
1.26301
1
1
1
0.96408
1
1
1
1
1.27969
1.27738
1
1.00035
1.15004
1.26277
0.999722
1
1
1
0.882252
1
1
0.852556
1
1.00002
1
1
1
1
1.11602
1.00001
1
0.978314
0.939642
0.999998
0.7187
1
0.64106
1
1
1.36219
1.27227
0.667852
1
1
1
0.942507
1
1
1.26777
1
1.28951
1
1
0.669077
1
1
1
1.33947
1
1
1
1
1
1.3448
1
1.33141
1
1.03192
1
1
1
1
1
1
1
0.686465
1.14165
1
1
0.941004
1
1.07175
1
1.11514
1
0.973869
1
1
1
1
0.999991
1
1
1
1
0.913797
1
1.00018
1
1.11179
1
1.33558
1
1
1
1.1097
0.653943
1
1.26165
1
1
0.70965
1.28632
1
1
1
0.883391
1.12136
1
1
1
1
0.96308
1.01425
1
1.00001
1
0.843977
1
1
1
1
1.27247
0.667147
1
1.21791
0.999993
1
1
0.650288
1
1
0.99938
1.00361
1.00001
1
0.973769
1
1
1
0.846477
0.883983
0.978438
0.920376
1
0.935109
1
1
1
0.643309
1.11814
1
1.26166
1
0.999967
1
0.932165
0.71695
1
1
0.978314
1.29606
1
1
1
1
1
1
1
1
1
1
0.825256
1
1
1
1
0.973715
0.660077
1
1
1
1
0.9349
0.898426
1.31202
1
1
0.848456
1.00002
0.795807
1.10448
1
1
0.961296
0.752918
0.70453
1
0.827129
1
1
1
0.832246
1
1
1
0.646381
1
0.650179
1
1.28929
1
1
1.28425
1
0.829599
1.04137
0.932798
0.999964
1
1
1
0.661323
1
1.04255
1
1
1.28314
1
1
0.947814
1.25359
1
0.787025
1
0.990318
1
1.28885
1
1.32117
1
1
1
1
1
0.947852
0.813253
1.1882
0.986427
1
1
1
1
1
1
1
1
1
1.16253
1
1
1.27429
0.788792
1
1
1
1
1.31755
0.986203
1.00356
1
1
1.03159
0.953846
1
1.16796
1
0.852953
1.26273
1
1
1
0.933995
1
0.999787
1.00001
1
1
1
0.999412
1.27031
1
1
1
1
1
0.999965
1.33086
1
0.960001
1
1
1
1
1
1.2495
0.990377
1
1
1
1
1.30989
1
1
1
1
0.688386
1.25981
0.725441
1.24589
1
1
1
0.890018
1
1
1
1
1
0.943307
1.24628
0.968593
1
1
1
0.999993
1
1.28712
1
1.26428
1.15626
0.924334
0.709271
1
0.697475
1
1.01097
0.670006
1
0.935403
1
1
1
1
0.906212
1.26237
1
1
0.95202
0.828567
1
1
1
1
1
1
1
1
1
0.998867
0.68998
1
1
1
1
1
1
1
1
1.28967
1
1
1
1
1.20077
1
1.23598
1
0.957051
1
1
1
1
0.999989
1
0.936341
1.00557
0.660354
1
1
1
1
0.947307
1
1.28419
0.666207
1
1
0.999992
1
0.768171
0.884213
1
0.811007
1.26705
1.29794
0.988547
1
1
1
1
1
1
1
1
1
1.20852
1
1
1
1
1.28466
1
0.899726
1
1.23314
1
1
1
1
1.20313
1
1
0.961512
1
1
0.936604
1
1
1
1
1.28909
0.999998
1.2496
1
1.26591
1
1
0.952317
0.99992
0.943005
0.821359
0.660759
1.29841
1
1
1
1
0.95468
0.648765
1
1
1
1
1
1
1
1
1
1
1
0.953699
0.6486
0.739233
1
1
1
0.999998
0.935148
1
0.844763
1
0.905671
1.13564
0.999934
1.03546
1.34396
0.642399
1
1
1
1
1
1
1
1
1
1
1
1.01525
1
1
1
1
1
1
0.829665
1.34864
0.969786
1
1
1.04958
0.948869
1.27711
1
0.999965
1
1
0.741961
1.14621
1
1
1
1
1
1.15611
1
1
1
0.999815
1.26013
1
1.07236
1.24218
1
0.999954
0.999985
1
1
1
0.949788
1
0.944409
1
0.957125
1
1
0.659557
1.27224
1
0.999671
0.800685
1
1
1.32253
1
0.999998
1
1
1.10724
1
0.714635
1
0.960357
1
1
1
1
1
1
1
1.00022
0.725568
1
1
1
0.940474
1
1
0.916141
1
1
1
1
1
1.00625
1
1
1
1
0.934153
1
0.821777
1
1
1
1
0.912872
1
1
1
0.692978
1
0.999994
1.16224
1
1
1
1
1
1.16476
1
1
1.06373
1
1
1
1
0.826255
1
1
0.922601
1
0.87763
1
1.30144
1
1
1
0.823527
1
1.26662
1
1
1
1
1.26882
1
1
1
1
0.823594
0.912878
1
1
1
1.2926
1
1
1
0.645226
1
0.928166
1
1.33402
0.663121
1
1
1
1
0.987321
1
1
1.0001
0.812039
1
1.02801
1.25074
1
1
1
1
0.951418
1
1
1
0.999943
1
1
1
0.970963
1
0.886964
1
0.866315
0.929671
1
1
1
1
1
1
1
1.05172
1
1
1
1
1
0.980514
1
1
1.04076
1
0.961553
1.26498
1
0.915268
1
0.983944
1.29379
1
0.723432
1.00143
1
1
1
1.00013
0.665291
0.671382
1
1
1
1
1
0.959526
0.952723
0.999983
1
1.24142
1
0.990726
1
1
0.946294
1
1
1
1
1
1
1
1
0.909232
0.998635
1
1
1
1.29796
1
0.990684
1
1
1
1
1
1.34935
1
1.29268
1
1.03848
1
1
1
1
1
0.659992
0.985374
1
1
0.973418
1
1.03368
1
1
1.06618
1.24083
1
1
1
0.836108
0.999984
1.11879
1
1
1
1
0.748157
1
0.978153
0.955136
0.886894
1
1
1
1
1
0.98853
1
1.28147
0.82222
1
1
1
1
1
1.26662
1
0.936309
1
1
1
0.810531
1
1
1
0.982251
1.04866
1
1
0.823019
1
1
0.668986
0.955974
1.29259
1
1
1
1
1.03298
1
0.848742
1
1
1
0.96317
1
0.657177
1.24837
1
1
1
1
1
1
0.95908
1
1
1
1
1
1
1
1
1
1
1
1
0.673071
0.799733
1
0.82957
1
1.24539
1
1
1
1.27617
1
1
0.796362
1
1
1
1
1.26052
0.675003
0.813611
1
1
0.999983
1
1
1
1.2982
0.828537
1
1.28478
1
1
1
0.946993
0.958423
1
1
1.00001
1
1
0.974845
1
1
1
1
1
1.0894
0.651637
1
0.949921
1
1
1.24006
1
1
0.945153
1
1
1
1
1
1
1
0.821271
1
1.19626
1
1.27241
0.940533
1
1
1
1
1
1
1
1.02604
1
1.22015
1
1
1.29256
1.18631
0.667363
1
1
1
1.11314
1
1
0.962585
1
1
1
1
1
0.88513
1
1
1
1
0.922488
1.26724
1
0.996339
1
0.8405
1
1
1
1
1
1
1
1
1.00001
1
1
1
1
1
1
1
1
1
1
1
1
1
1
1
1
1
0.999094
1
1
1
1
1
1
1
1
1
1.12276
1
1.29789
0.960518
1
1.28959
1
1.12658
0.999998
1
1
1
1
1.00236
1
1
0.65607
1
1
1
1
1
1
0.999996
0.6708
0.99998
0.711415
1.30642
0.831122
1
1
1
0.833612
1
1
1
0.669985
1
1
1
0.669132
1
1
0.824666
1.09192
1
0.999994
1
1
1
1
1
1
0.965769
1.30189
1
0.734099
1
1
0.829163
1
1
1
1
1
1
1
0.999999
1
1
1.01584
0.961459
1
1
0.944608
0.994694
1.25356
1.28471
1
0.856452
1
1
0.913807
1.31364
1.25358
1
1
0.823596
1
1
1
1
1
1.30026
1
1
1.30183
1
1
1
0.670188
1
1.30341
0.999991
1
1
0.778381
1
1.26002
1
1
0.955227
0.999646
1
1.1221
1
1
1
1
0.999885
0.999974
1
1
0.997862
0.983984
1
1
1
1
1
1
1.07355
1
0.83016
1
1
0.637465
1
1
0.945707
1
1
1
1
1
1
1
0.947485
0.999763
0.999369
1.12982
1
0.833553
0.952025
0.932826
0.876534
1
0.965723
1
1
1
0.822873
0.965498
1
1
1
1.08373
1
1
1.00064
1
1
1.0056
1
0.978225
1
0.750927
1
0.964419
1
1
1
0.96944
1
1
1.25779
0.982727
1
1
1
0.999344
1.0252
1.32381
1
1.2747
1
1.32528
0.998538
1
0.955235
0.827268
1
0.641277
1
1
1
1
1
1.34058
1
1
1
1
1.0093
1.05741
1
1
0.926949
1
1
1.25904
1
1
0.986478
1.10412
1.25065
1
1
1.03808
1
0.828305
1
0.999837
1
1
0.891474
1
1
1
1
1
1
1
1.24864
1
1
1
1
1
1
1.24721
1
1
1
1.04061
1
1.25297
0.861024
1
0.830554
0.894808
1
1
0.886898
1.1487
1.00158
1
0.996416
1
1
1
1
1
1.04859
0.696771
1
0.945421
1
1
1
1
1
1
1
0.999999
1
1
1
1.07712
1
1
1.00829
0.999852
1
0.740241
0.704502
1.26881
1.19763
0.674138
0.999995
0.838057
0.999989
1.005
0.964633
1
1
1.06326
1
1.27972
1.25529
1
0.715372
1
1
1
0.955569
1
1
0.939273
1
1
1
1
1
0.882585
1.11657
1
1
1
0.999981
1
1.00035
0.879048
0.794946
1
1
1
1
1
0.789772
1
1.00068
1
1.00006
1
1
1.25318
1
1
1.09444
1
0.97651
1
1
1
1
1
1
0.999998
1.27022
0.998227
1
1
1
1.30558
1
1
1
1
1.25032
1
1
0.989186
1
1
1
1
1
1.2692
1
0.965244
0.801612
1
1
1
1
1.34015
1
1
1.24871
1.00001
1
1
0.8485
1
1
1
1
1
1
1
0.724257
0.808298
1
0.930767
1
1
1
1
1.31462
0.999564
1
1
0.976652
0.951647
1.25334
1
1
0.997823
0.895156
1
1
1
1
1
1
1.28678
1
0.652193
1
1
1.01231
1
1
1.26734
1
1
0.966237
1
1
1
1
1.09744
1
0.695612
1
1
0.700436
1
1
1.30294
1
1.03665
1.0035
1
1
0.822058
1
1
1
1
1
1
1.08002
1
1
1
0.902879
1
1
1
1
1
1
1
1
0.999982
1
1
1
1.25903
1.19546
1.03851
1.34371
1
1
1
1
1
1
1
1
1
1
1.27373
1
0.999969
1.05444
1
0.999018
1.30969
1
1
1
1
1
1
1
1
1
0.717018
1
0.895249
1
1
1
1.24985
0.982041
1.00243
1
0.843678
1
1
1
1
1.04323
0.886201
0.997727
1
0.976328
1
1
1
1
0.824005
1
1
1.25784
1
1
1.25294
1
1.24735
1
0.992824
1
1
1
0.965755
1
1
1
1.28023
1.0808
1
1
1
1
0.965037
0.794735
1
1
1.05008
0.999984
1
1
0.885666
1.29978
1.00001
0.658426
1
1
1.25447
1
0.810166
1.31155
1
1
1.28947
0.817852
0.828508
1
1
1.27572
1
1
1
1
0.832737
1.26192
1.10262
1.07985
0.661529
1.12577
1
1.0172
1.22552
1.05712
1.257
1
1
1
1.15883
1
1.11565
1
1.23787
0.827085
1
1.08461
1
1
0.942349
1
1.00002
0.906367
0.951295
0.811108
1
1
1
1.28859
1
1
1
1
1
1
0.87894
1
0.799405
1
1
0.920908
1
1
1
1
1
1
0.653765
1.27428
0.831851
1
1
0.983228
1
1
1
1
0.954545
1.26283
0.702351
1
1
1
1.25511
1.2496
0.81368
1.00005
1.24817
1
0.721483
1
0.999993
1.30363
1
1.30418
1.23367
1.26763
0.641504
0.999532
1
0.999996
1
1
1
0.820131
1.24698
1.181
0.918676
0.944278
1
0.838877
1.28346
1
1
1.24862
1
1
0.938597
1
1
1
1
1
1
0.953733
1
1
0.823905
1.25388
1.25239
0.722883
1.21923
1
0.979108
0.984972
1.24835
1
1
1
1
1
0.907113
1
1
1
1
1.08901
1
1.17432
1
1
1
1
1.05249
1
1
1
1
0.832903
1
1
1
1
1
1
1
0.898673
1
1
1
0.990958
1.20173
1
0.745427
0.765876
0.964939
1
1
0.851233
1
1
1
1
0.765248
1.00006
1
0.779146
1.29835
0.825548
1.25503
1
1
1
0.950152
0.896367
1.00246
1
1
1
1
0.950298
1
1
1.29694
1.16663
0.997777
1.25273
1.26255
1.14457
1.25566
1
1.25197
1
1
1.21136
1
1
1
1
0.825273
1
1
0.999986
1
0.88367
1
0.907887
0.997971
0.999985
1
1
1
1
1
1
1
0.903528
1.2588
0.847391
1
1
1.03475
1
1.27552
1
1
0.698996
0.796009
1
1
1
0.999802
1
1
1
1
1.25586
0.897011
0.999997
1
0.76275
1
1.25468
1
0.818819
1
1
1
1
1.07571
0.712803
1.25122
0.829389
0.671942
1
1
1
1
1
1
1
1
0.999998
0.938082
1
1
1.26176
1
1
1
1
1
1.24913
0.649326
1
1.2678
0.998832
1
1.00033
1.26533
1.02328
1
0.734417
1.00001
0.886786
1
1.3198
1
0.999895
1.28461
1
1.18374
1
1
1
1
1
0.840833
1
1
1
1
1.22601
0.978527
0.739602
1
1.10676
0.947504
1
1.1544
1
1
1
1.25417
1
0.951356
1
0.99386
1
1
1.2548
1
0.948762
0.874095
1
0.659405
1
1
1
0.840858
0.666033
1
0.992662
0.980077
1
1
1
1
1
1.26056
1
1
1
1
0.898828
0.826584
1.24908
1.24995
1
0.901562
1
1
1
1
1.13263
1
1
0.69709
1
1
1
1
1
1
1.10763
1.06162
0.646721
1
1
1
1
1
1
1.00006
0.824087
0.763867
1.00001
1
0.979773
1.2229
1
1
1.13737
1
1
1
1
1
0.640092
1