/*--------------------------------*- C++ -*----------------------------------*\
  =========                 |
  \\      /  F ield         | OpenFOAM: The Open Source CFD Toolbox
   \\    /   O peration     | Website:  https://openfoam.org
    \\  /    A nd           | Version:  12
     \\/     M anipulation  |
\*---------------------------------------------------------------------------*/
FoamFile
{
    format      ascii;
    class       volVectorField;
    location    "7.72";
    object      U;
}
// * * * * * * * * * * * * * * * * * * * * * * * * * * * * * * * * * * * * * //

dimensions      [0 1 -1 0 0 0 0];

internalField   nonuniform List<vector> 
22702
(
(2 7.06461e-14 0)
(2 5.7962e-14 0)
(2.04925 -0.0890037 0)
(2 -1.15915e-09 0)
(1.97389 0.0283966 0)
(2 1.07751e-14 0)
(1.82722 0.227956 0)
(2 1.96393e-14 0)
(2 2.55186e-15 0)
(2.11643 -0.264504 0)
(1.82928 0.229185 0)
(1.82713 0.228295 0)
(2 8.88606e-14 0)
(1.83168 0.228667 0)
(2.03875 -0.0716288 0)
(2 -2.09388e-13 0)
(2 -9.26765e-14 0)
(2 5.27626e-14 0)
(1.82921 0.229015 0)
(2 -2.40481e-14 0)
(1.83154 0.229208 0)
(2 -3.44796e-13 0)
(1.83034 0.228808 0)
(2.12262 -0.270034 0)
(1.83222 0.229398 0)
(2.11623 -0.266771 0)
(2 3.71033e-15 0)
(1.82938 0.228198 0)
(2.08583 -0.258546 0)
(2.11936 -0.266718 0)
(2 2.47829e-14 0)
(1.82946 0.229045 0)
(2 -2.44946e-14 0)
(2 -9.06649e-15 0)
(2 2.02613e-13 0)
(1.84425 0.215168 0)
(1.83197 0.227834 0)
(1.83016 0.228621 0)
(2 -1.26655e-13 0)
(2 -1.97952e-13 0)
(2.11449 -0.263016 0)
(2 -3.23799e-14 0)
(1.91675 0.126791 0)
(2 2.5138e-14 0)
(1.83 0.22865 0)
(2 -2.94742e-13 0)
(2 1.86462e-13 0)
(2 -5.87136e-15 0)
(2 -4.22247e-13 0)
(2.11139 -0.26322 0)
(2 -9.96026e-15 0)
(2.11967 -0.268439 0)
(2 1.81239e-14 0)
(1.82935 0.229165 0)
(2 -1.98257e-13 0)
(1.83221 0.229409 0)
(2 1.99194e-13 0)
(2 1.4263e-09 0)
(2 9.87716e-14 0)
(2 -3.9479e-13 0)
(2.09147 -0.2674 0)
(2 -4.98271e-14 0)
(2 2.00925e-13 0)
(2.09962 -0.266098 0)
(2 7.49446e-14 0)
(2.12192 -0.259407 0)
(2 1.09391e-13 0)
(2 -2.31029e-13 0)
(2 -1.00569e-13 0)
(2.11776 -0.260572 0)
(2 1.93155e-13 0)
(1.82995 0.228749 0)
(1.89534 0.151516 0)
(2 1.32249e-09 0)
(1.82989 0.228958 0)
(1.8205 0.236466 0)
(2.12193 -0.260204 0)
(1.82742 0.22807 0)
(2.10108 -0.263163 0)
(2 2.37486e-13 0)
(1.83078 0.229513 0)
(2.10433 -0.261735 0)
(1.83234 0.229185 0)
(1.83274 0.229496 0)
(2 -1.19522e-13 0)
(2 9.13916e-07 0)
(2 -7.53102e-14 0)
(2 -1.54099e-13 0)
(2.02416 -0.0469303 0)
(2.11854 -0.26004 0)
(1.82985 0.22827 0)
(2 2.02175e-13 0)
(2 -8.61924e-11 0)
(2.13145 -0.263982 0)
(2 1.99004e-14 0)
(1.83131 0.229274 0)
(2.13237 -0.263322 0)
(2 2.56128e-08 0)
(2 -4.25334e-15 0)
(2 -1.88019e-13 0)
(2 6.21369e-14 0)
(1.914 0.126697 0)
(1.83019 0.229255 0)
(2.11596 -0.266273 0)
(2 -4.27697e-10 0)
(2 -1.1206e-09 0)
(1.9583 0.0576532 0)
(2 8.92376e-09 0)
(2.10242 -0.263337 0)
(2 -1.19676e-13 0)
(1.82688 0.228351 0)
(1.82934 0.228916 0)
(2 4.38875e-09 0)
(2 -1.41239e-13 0)
(2.11282 -0.276148 0)
(2.10731 -0.275849 0)
(2.11737 -0.262781 0)
(2 1.09494e-13 0)
(2 -1.53884e-07 0)
(2 3.63332e-14 0)
(2 -1.30374e-13 0)
(2 1.04632e-07 0)
(2.03064 -0.0551939 0)
(2 -1.12466e-07 0)
(1.85479 0.20266 0)
(1.98202 0.0224084 0)
(1.8281 0.228339 0)
(2 -3.76265e-13 0)
(1.82755 0.228481 0)
(1.82937 0.228946 0)
(1.83136 0.228955 0)
(1.8304 0.229041 0)
(2 2.87381e-13 0)
(2.1042 -0.264052 0)
(2 2.23136e-15 0)
(2.12927 -0.266762 0)
(2 8.5218e-16 0)
(2 -1.82835e-13 0)
(2 2.88003e-15 0)
(2 -7.9679e-14 0)
(1.82949 0.228923 0)
(2 2.89014e-09 0)
(2 1.54902e-13 0)
(2 -2.75489e-13 0)
(2 1.19433e-13 0)
(1.83301 0.229536 0)
(2 9.5826e-14 0)
(1.99472 0.0129041 0)
(2 4.89749e-14 0)
(2 -2.6536e-13 0)
(2 -7.03627e-11 0)
(2 2.11579e-14 0)
(2.1112 -0.262496 0)
(2 5.14265e-14 0)
(1.99528 0.00832744 0)
(2 -8.92666e-14 0)
(2.10109 -0.262775 0)
(2 -1.69605e-13 0)
(2 -1.34451e-13 0)
(2 -4.04569e-14 0)
(1.82918 0.228601 0)
(2 3.28519e-14 0)
(1.83074 0.228733 0)
(2.12227 -0.275029 0)
(2.11134 -0.273356 0)
(1.82856 0.228034 0)
(1.82941 0.228347 0)
(2 -2.62072e-15 0)
(1.96837 0.0465047 0)
(1.90367 0.140039 0)
(2 -1.83946e-13 0)
(1.83326 0.228937 0)
(2.10142 -0.262512 0)
(1.84375 0.215498 0)
(2 2.56999e-14 0)
(2 4.43208e-14 0)
(2 9.40981e-15 0)
(2 1.66929e-13 0)
(1.83167 0.228726 0)
(1.86685 0.18775 0)
(2 2.51761e-13 0)
(1.83045 0.228996 0)
(2.12738 -0.269706 0)
(1.83308 0.229151 0)
(2 -7.21962e-14 0)
(2.09453 -0.262065 0)
(2 1.31116e-13 0)
(2.10521 -0.264047 0)
(2.1157 -0.267968 0)
(2.0001 -0.000161375 0)
(2 1.23745e-13 0)
(2 3.87554e-14 0)
(1.82957 0.228731 0)
(2 -1.97955e-14 0)
(2 -2.17468e-13 0)
(1.83195 0.229135 0)
(2 -3.32412e-13 0)
(1.8299 0.229399 0)
(1.83024 0.228953 0)
(2.10247 -0.276236 0)
(2 5.33183e-14 0)
(2 -2.60677e-13 0)
(2.11774 -0.262404 0)
(1.83205 0.229235 0)
(2 -1.17819e-13 0)
(2 -2.06247e-13 0)
(2 -1.93821e-13 0)
(1.83201 0.229235 0)
(2 -3.89854e-14 0)
(2.10349 -0.264953 0)
(2 -6.37841e-11 0)
(2 2.33061e-13 0)
(1.83154 0.228779 0)
(1.83117 0.229124 0)
(1.82807 0.228786 0)
(2 5.01164e-14 0)
(1.99999 2.66838e-05 0)
(2 1.7238e-14 0)
(2 3.86179e-14 0)
(2 -2.80699e-13 0)
(1.83201 0.229158 0)
(2 4.13126e-14 0)
(2.13542 -0.26901 0)
(1.82206 0.23359 0)
(1.83187 0.229025 0)
(1.8317 0.228508 0)
(2 1.9901e-07 0)
(2 -2.36976e-13 0)
(2 6.76255e-14 0)
(2.11521 -0.272194 0)
(1.83159 0.229436 0)
(1.92265 0.129898 0)
(2 8.19456e-14 0)
(1.83084 0.229579 0)
(2.10722 -0.265789 0)
(2.10006 -0.264543 0)
(1.83086 0.229589 0)
(1.83298 0.228003 0)
(2 -1.67256e-14 0)
(1.82865 0.23416 0)
(2.1333 -0.269898 0)
(1.85075 0.206164 0)
(2 2.52456e-13 0)
(2 -1.79781e-13 0)
(2 6.49957e-14 0)
(2 -2.56323e-13 0)
(1.83195 0.229179 0)
(2 -2.52936e-13 0)
(1.90523 0.135468 0)
(1.9819 0.0301208 0)
(2 -3.28015e-13 0)
(2 4.07367e-14 0)
(1.83201 0.229013 0)
(2.12983 -0.262711 0)
(2.09155 -0.161522 0)
(2 -1.75358e-13 0)
(1.83293 0.228307 0)
(2.11436 -0.266945 0)
(1.82786 0.230946 0)
(2 -5.30508e-14 0)
(2 1.2382e-14 0)
(2 2.01221e-13 0)
(2 4.4614e-15 0)
(2 -1.53434e-14 0)
(2 -4.66364e-14 0)
(2 4.02433e-14 0)
(2.11143 -0.26379 0)
(2.08812 -0.165126 0)
(2.10319 -0.265368 0)
(1.83128 0.228891 0)
(2 -8.33763e-14 0)
(2 9.05665e-14 0)
(2 -1.51458e-07 0)
(2 -1.14155e-15 0)
(1.85022 0.214206 0)
(2 -1.84832e-07 0)
(2.10817 -0.263813 0)
(2 9.45183e-14 0)
(2.11336 -0.284832 0)
(2.11706 -0.263637 0)
(1.83181 0.22876 0)
(2.1141 -0.26732 0)
(1.8316 0.229167 0)
(2 -4.64038e-14 0)
(2 -1.58875e-13 0)
(2 -1.21607e-13 0)
(2.0009 -0.00167709 0)
(2.09859 -0.259508 0)
(2.12975 -0.275025 0)
(2 -2.92285e-07 0)
(2 -1.53455e-07 0)
(2.11629 -0.283641 0)
(2 2.44936e-09 0)
(1.82934 0.228914 0)
(2.11612 -0.266557 0)
(2 -1.00999e-13 0)
(2 -3.39911e-11 0)
(1.83145 0.229391 0)
(2.12063 -0.27365 0)
(2 -5.07201e-13 0)
(1.83349 0.228352 0)
(2.11145 -0.270081 0)
(1.83193 0.228995 0)
(2 -4.80956e-13 0)
(2.10718 -0.283972 0)
(2.00087 -0.00149316 0)
(2 -6.45877e-15 0)
(2 2.91395e-06 0)
(2 -1.98872e-14 0)
(2.12317 -0.269628 0)
(2 -7.67299e-14 0)
(2 -1.78032e-07 0)
(2 -8.94966e-07 0)
(1.99999 9.57356e-06 0)
(1.99272 0.00670297 0)
(1.89616 0.150185 0)
(2 -2.54254e-11 0)
(2.11373 -0.248799 0)
(2 -1.64306e-11 0)
(2 1.62186e-06 0)
(2 -8.58997e-14 0)
(2 -7.65681e-14 0)
(2 -8.50525e-14 0)
(2 -8.93614e-15 0)
(2 -8.61822e-13 0)
(1.83104 0.22942 0)
(2 2.81556e-13 0)
(1.82986 0.227858 0)
(2 -8.93286e-14 0)
(2 -4.23515e-14 0)
(2 6.75866e-14 0)
(2.11592 -0.269346 0)
(2 9.67449e-14 0)
(1.83304 0.229646 0)
(2.10968 -0.265567 0)
(2 8.79145e-14 0)
(1.86298 0.188145 0)
(2 -1.28312e-13 0)
(2 -2.9959e-13 0)
(1.82925 0.229295 0)
(2 1.48592e-13 0)
(2 -9.19202e-09 0)
(2 1.10335e-13 0)
(1.83135 0.227162 0)
(2 5.15913e-10 0)
(2 -2.38441e-14 0)
(1.83284 0.224951 0)
(1.8294 0.229839 0)
(2 -1.06786e-14 0)
(1.96148 0.0589914 0)
(2 2.02246e-14 0)
(2 7.90895e-14 0)
(2.12945 -0.265244 0)
(2 -1.01299e-14 0)
(2 -3.54052e-14 0)
(2 8.97367e-14 0)
(2.12791 -0.265261 0)
(2 -1.05382e-13 0)
(2 -2.26879e-14 0)
(2 1.20239e-13 0)
(2 1.97976e-15 0)
(2.09791 -0.259877 0)
(2 3.58431e-14 0)
(2 7.793e-14 0)
(2 1.26127e-14 0)
(2 -1.06609e-13 0)
(2 -9.60479e-14 0)
(2.10943 -0.26705 0)
(1.99998 4.15097e-05 0)
(1.83017 0.228495 0)
(2 -5.7583e-14 0)
(1.99998 -6.22998e-06 0)
(1.8294 0.228402 0)
(1.82847 0.228005 0)
(2 6.5429e-14 0)
(2 5.52154e-14 0)
(2.09817 -0.273723 0)
(2.05346 -0.137677 0)
(1.828 0.228579 0)
(2 -1.67409e-13 0)
(2 8.87279e-14 0)
(2 4.22587e-15 0)
(1.83199 0.228933 0)
(2.12059 -0.261743 0)
(2 1.74192e-14 0)
(1.83073 0.228617 0)
(2 -1.4854e-13 0)
(2 -1.40085e-13 0)
(2.10487 -0.214358 0)
(2.11748 -0.207413 0)
(2 -2.56828e-13 0)
(2.09647 -0.261867 0)
(2.11013 -0.271352 0)
(2 8.61737e-15 0)
(2 1.73668e-14 0)
(2 5.14591e-14 0)
(2 4.18161e-14 0)
(2 -9.6487e-11 0)
(2 2.21147e-13 0)
(2 3.23026e-13 0)
(1.83007 0.228253 0)
(1.95765 0.0623348 0)
(1.83997 0.211397 0)
(2.11075 -0.264354 0)
(2.02743 -0.0579645 0)
(1.82994 0.228999 0)
(2 1.07779e-14 0)
(1.83056 0.229199 0)
(1.82823 0.228569 0)
(2.11079 -0.265929 0)
(2.07738 -0.157508 0)
(2 6.03653e-13 0)
(2.10986 -0.265562 0)
(2 -1.19239e-13 0)
(1.82152 0.233803 0)
(2 -2.94045e-13 0)
(2 1.27423e-13 0)
(2 1.92995e-14 0)
(2 1.53305e-14 0)
(1.83209 0.229244 0)
(2 -1.4734e-13 0)
(2 -4.65239e-14 0)
(2 -7.11044e-14 0)
(2 1.51705e-09 0)
(2 1.23644e-14 0)
(2 -1.53028e-13 0)
(2 -4.8941e-13 0)
(1.93754 0.0903312 0)
(1.82954 0.228545 0)
(2 -1.40467e-13 0)
(1.83125 0.228946 0)
(2 2.01264e-13 0)
(2 -5.93153e-14 0)
(2.10736 -0.260727 0)
(2 1.32636e-13 0)
(2 -1.29618e-13 0)
(2 -3.05701e-13 0)
(2 -1.18375e-13 0)
(1.83189 0.229233 0)
(1.87155 0.182228 0)
(2 -3.50059e-13 0)
(2 -2.59556e-13 0)
(2.10054 -0.267223 0)
(1.83118 0.228731 0)
(1.83143 0.228868 0)
(2 3.77965e-14 0)
(1.83148 0.228865 0)
(1.83157 0.228964 0)
(1.83119 0.229018 0)
(2 -6.10906e-15 0)
(2.04422 -0.120878 0)
(2 -2.12451e-13 0)
(1.8318 0.228621 0)
(1.99984 -0.0124126 0)
(1.83123 0.229042 0)
(2 9.12628e-14 0)
(2.1097 -0.266976 0)
(2.00039 -0.000604401 0)
(1.82972 0.228386 0)
(2 3.65058e-14 0)
(2 6.62692e-14 0)
(2 -5.17988e-11 0)
(2 -1.93794e-11 0)
(2.10638 -0.265126 0)
(1.83168 0.229026 0)
(1.84826 0.211266 0)
(2 2.12156e-15 0)
(1.83132 0.229586 0)
(1.83185 0.228756 0)
(1.8285 0.228824 0)
(2 6.15771e-14 0)
(1.91977 0.126081 0)
(1.83137 0.229578 0)
(2 -9.06556e-14 0)
(2 1.88736e-13 0)
(1.88342 0.166209 0)
(1.97939 0.0367693 0)
(1.83145 0.228786 0)
(2.0222 -0.0484689 0)
(1.83134 0.228853 0)
(2 -4.44059e-15 0)
(1.83125 0.228994 0)
(1.83138 0.229067 0)
(1.83122 0.229062 0)
(1.83097 0.228723 0)
(2 -2.32036e-14 0)
(1.83363 0.230719 0)
(2.03371 -0.0602481 0)
(2.04438 -0.078912 0)
(2 -7.30282e-14 0)
(2 -3.77216e-07 0)
(2 -2.67714e-14 0)
(2 9.16028e-14 0)
(1.83036 0.227905 0)
(2 4.87423e-15 0)
(2 7.79396e-14 0)
(2 -2.79035e-14 0)
(2 -6.13361e-14 0)
(2 5.48072e-16 0)
(1.82896 0.228331 0)
(2 -1.14923e-14 0)
(2 3.0747e-14 0)
(2.00148 -0.00248119 0)
(1.83141 0.228949 0)
(1.84715 0.225024 0)
(2 -3.83543e-13 0)
(1.86596 0.188023 0)
(1.99998 2.82387e-05 0)
(2 -5.53547e-14 0)
(2 -4.47063e-13 0)
(1.83099 0.228592 0)
(2 -6.57505e-14 0)
(2.00281 -0.00325731 0)
(1.998 0.00466891 0)
(2 -1.41859e-14 0)
(1.83146 0.229083 0)
(2 -6.03889e-14 0)
(1.83178 0.229095 0)
(2 9.97872e-14 0)
(2 3.9268e-14 0)
(1.87292 0.180622 0)
(2 -8.93192e-15 0)
(1.8317 0.228955 0)
(1.99999 1.27295e-05 0)
(2 -7.82741e-14 0)
(1.83289 0.228299 0)
(2 4.26621e-15 0)
(1.8317 0.229189 0)
(2 -1.19339e-13 0)
(2 3.14217e-06 0)
(2 -1.06761e-13 0)
(1.83202 0.229158 0)
(2 -6.89728e-14 0)
(1.83182 0.228567 0)
(2 4.42432e-06 0)
(1.832 0.229236 0)
(1.83002 0.22898 0)
(1.83183 0.228965 0)
(1.83251 0.229097 0)
(2 -7.86127e-15 0)
(1.82965 0.22913 0)
(1.83342 0.231292 0)
(2 2.12733e-14 0)
(2.10427 -0.258215 0)
(1.8422 0.216322 0)
(1.87937 0.17354 0)
(2 5.82972e-15 0)
(1.83205 0.229155 0)
(2 3.38424e-14 0)
(2.13164 -0.263871 0)
(2.1081 -0.271503 0)
(2 2.54104e-14 0)
(2 -2.35435e-14 0)
(2 -3.69723e-14 0)
(2 -3.5197e-13 0)
(2 1.75502e-09 0)
(2.13324 -0.264118 0)
(2 4.28067e-14 0)
(1.83127 0.228943 0)
(1.9547 0.0706589 0)
(1.83092 0.228655 0)
(2 -7.99087e-14 0)
(2 6.27044e-11 0)
(2 -2.25704e-14 0)
(2 1.51112e-14 0)
(2 -4.78641e-08 0)
(1.8313 0.229012 0)
(2 -3.42997e-13 0)
(1.82898 0.230027 0)
(1.89916 0.149034 0)
(2.06837 -0.152889 0)
(2 1.32572e-09 0)
(1.99999 7.57289e-06 0)
(1.94767 0.0786092 0)
(1.95716 0.0678025 0)
(2 3.65328e-14 0)
(2 1.11359e-13 0)
(1.93752 0.0929814 0)
(2 7.36469e-14 0)
(2.10705 -0.260085 0)
(1.83187 0.228721 0)
(1.83185 0.228653 0)
(2 -7.32661e-11 0)
(2 -6.46108e-14 0)
(2 -1.45093e-14 0)
(1.82966 0.228766 0)
(2 -6.18159e-14 0)
(1.99999 1.55421e-05 0)
(1.8317 0.227761 0)
(1.83168 0.229097 0)
(2.0178 -0.0401379 0)
(2 1.69589e-14 0)
(2 1.60986e-10 0)
(2.11122 -0.262618 0)
(1.84654 0.211708 0)
(2 -9.97517e-14 0)
(2 -1.58968e-13 0)
(2 1.45252e-13 0)
(2 -2.8208e-11 0)
(2 -1.4598e-13 0)
(1.83143 0.229066 0)
(1.82986 0.229006 0)
(2 -3.52743e-14 0)
(1.83242 0.228695 0)
(1.83123 0.22822 0)
(1.83188 0.229015 0)
(2 1.89273e-14 0)
(2 -1.36329e-14 0)
(2 -5.61325e-11 0)
(2 -5.20703e-15 0)
(2.11709 -0.266161 0)
(1.83035 0.229225 0)
(2 -4.50554e-11 0)
(2 -3.85978e-14 0)
(1.84729 0.210916 0)
(1.83192 0.228512 0)
(2 -5.3313e-14 0)
(1.84157 0.218133 0)
(1.82801 0.228771 0)
(2 2.47003e-14 0)
(2 -2.14745e-07 0)
(2 9.21438e-11 0)
(2 -1.35082e-13 0)
(2 -1.022e-13 0)
(1.83152 0.228954 0)
(2 -8.64245e-14 0)
(2 -6.25229e-14 0)
(2 1.60386e-14 0)
(2 6.1003e-14 0)
(1.83174 0.229483 0)
(2 -2.28137e-13 0)
(1.82928 0.229083 0)
(2.11113 -0.269777 0)
(2 -1.08872e-13 0)
(2.11273 -0.263163 0)
(2 1.31859e-13 0)
(2 -1.53623e-07 0)
(2 1.26954e-13 0)
(2.00113 -0.00179046 0)
(2.09743 -0.263803 0)
(2.00033 -0.000576654 0)
(2 -9.84332e-14 0)
(2 -5.90925e-14 0)
(2 -1.18201e-07 0)
(1.97667 0.0370045 0)
(2 -4.13799e-14 0)
(2 2.03988e-13 0)
(2.03672 -0.0924674 0)
(2 -2.16664e-07 0)
(2 3.55538e-14 0)
(2 -6.32069e-14 0)
(2 -2.148e-07 0)
(2 1.69868e-07 0)
(2 -1.78381e-07 0)
(2 -2.8982e-14 0)
(2 -1.66445e-06 0)
(2.01321 -0.0438493 0)
(2 -4.94708e-07 0)
(2 -3.70739e-08 0)
(2.00089 -0.00135952 0)
(2 -3.77301e-15 0)
(2.11259 -0.264003 0)
(2 -2.79916e-11 0)
(2 -4.50983e-12 0)
(2 -5.02905e-11 0)
(2 9.10737e-14 0)
(1.87297 0.180271 0)
(2 -7.12648e-14 0)
(2 -5.01681e-14 0)
(2 1.74173e-13 0)
(2 -1.67866e-07 0)
(2.10144 -0.26281 0)
(2 3.21336e-14 0)
(2 1.43596e-09 0)
(1.84117 0.2177 0)
(1.83146 0.229367 0)
(2 -3.0371e-07 0)
(2 6.86844e-14 0)
(2 -1.10462e-07 0)
(2.04352 -0.0799092 0)
(2 -8.94325e-15 0)
(2 4.34374e-10 0)
(2 -4.26646e-14 0)
(2 4.2843e-14 0)
(2 9.24093e-14 0)
(2 8.8089e-14 0)
(2.01304 -0.0424983 0)
(1.99628 -3.48527e-05 0)
(1.83203 0.228943 0)
(2 -5.72915e-14 0)
(2 1.39047e-13 0)
(2 5.49151e-15 0)
(1.83168 0.227804 0)
(2.03919 -0.0665929 0)
(2 -4.92096e-09 0)
(2 1.16025e-13 0)
(2 1.84975e-14 0)
(1.83044 0.228473 0)
(1.82869 0.227118 0)
(2 -2.79804e-08 0)
(2 4.75401e-06 0)
(2 2.8631e-09 0)
(2 -1.16224e-14 0)
(2 1.23207e-09 0)
(2 8.41546e-14 0)
(2 -1.04735e-11 0)
(2 -1.52444e-13 0)
(2 2.3317e-14 0)
(2.10588 -0.262626 0)
(2 -7.03405e-14 0)
(2 -1.73559e-11 0)
(1.82964 0.228838 0)
(2.10773 -0.26662 0)
(2 -2.44149e-13 0)
(1.8299 0.227876 0)
(2 7.37663e-11 0)
(2.11004 -0.263056 0)
(2 3.8008e-15 0)
(2 1.77628e-13 0)
(2.10278 -0.265448 0)
(2 -1.43947e-13 0)
(2 -1.36298e-11 0)
(2 -5.13928e-12 0)
(2 2.00123e-13 0)
(2 -2.83986e-12 0)
(2 -5.9858e-14 0)
(2 1.30219e-13 0)
(1.83468 0.225159 0)
(1.8319 0.228558 0)
(2 2.63902e-13 0)
(2 2.21115e-13 0)
(2 1.60578e-13 0)
(2 2.56309e-13 0)
(1.84658 0.211334 0)
(2 6.78773e-14 0)
(1.94874 0.0800894 0)
(2.0951 -0.256552 0)
(2 -3.0674e-08 0)
(2 7.25075e-14 0)
(2 -1.47694e-13 0)
(2 -2.03409e-13 0)
(2 -1.2121e-13 0)
(2 1.1904e-13 0)
(2 -1.56898e-14 0)
(1.98353 0.022948 0)
(2 1.52043e-14 0)
(2 -8.8278e-14 0)
(1.90615 0.121248 0)
(2 -5.35016e-14 0)
(2 8.36899e-14 0)
(2 8.74422e-14 0)
(1.85933 0.196145 0)
(2 -1.99175e-13 0)
(2 -9.30343e-16 0)
(2 1.21364e-13 0)
(2 4.0156e-14 0)
(2.11103 -0.267667 0)
(2 6.04198e-12 0)
(2 7.72849e-14 0)
(2.11109 -0.27548 0)
(2.10944 -0.265226 0)
(2 -1.59716e-13 0)
(2 1.42546e-13 0)
(1.83179 0.228634 0)
(2 6.79651e-14 0)
(1.97434 -0.00473772 0)
(2 -7.84699e-15 0)
(2 -5.34298e-14 0)
(2 7.9283e-14 0)
(1.88184 0.169732 0)
(2.12679 -0.264758 0)
(2 -8.40533e-14 0)
(2.13039 -0.271965 0)
(2 -3.72415e-14 0)
(2.07567 -0.153902 0)
(2 -4.88799e-13 0)
(2 1.17949e-13 0)
(2 1.1051e-15 0)
(1.8304 0.228533 0)
(2 -4.13698e-08 0)
(2 -9.4947e-14 0)
(1.83118 0.228709 0)
(2 -8.97054e-14 0)
(2 -2.05599e-11 0)
(2 1.64543e-09 0)
(1.8313 0.228755 0)
(2 2.31833e-10 0)
(2 -6.64855e-14 0)
(1.83183 0.228922 0)
(2 -3.33157e-13 0)
(2 -1.27924e-13 0)
(2.11206 -0.266356 0)
(2 -1.70584e-11 0)
(1.94677 0.0823828 0)
(2 -6.17575e-14 0)
(2 -1.47979e-13 0)
(1.82962 0.229108 0)
(1.82984 0.228869 0)
(1.88625 0.163135 0)
(1.84977 0.207915 0)
(2 2.59593e-13 0)
(2.10914 -0.265574 0)
(2 -1.86884e-13 0)
(2 -8.89927e-14 0)
(1.83862 0.220689 0)
(2 -5.13355e-15 0)
(2.12867 -0.265754 0)
(2 1.61204e-13 0)
(2 -2.74342e-14 0)
(2 7.27279e-14 0)
(1.83154 0.229278 0)
(2 -6.57179e-14 0)
(2 -2.37165e-14 0)
(2 -1.17973e-14 0)
(2 5.34667e-14 0)
(1.89789 0.148213 0)
(2 -3.09114e-14 0)
(1.84554 0.205671 0)
(1.82938 0.231173 0)
(2.12549 -0.263352 0)
(2 -3.37073e-13 0)
(2 -4.59475e-14 0)
(2.11834 -0.265188 0)
(2.11678 -0.267226 0)
(2 5.17857e-14 0)
(2 1.93455e-13 0)
(2 -5.72937e-12 0)
(1.88069 0.171303 0)
(1.8707 0.183517 0)
(2 -6.08756e-14 0)
(2 -1.40257e-13 0)
(2 -5.2318e-14 0)
(2 -2.83197e-14 0)
(2 3.2197e-14 0)
(2 3.80019e-14 0)
(2 -3.41253e-14 0)
(1.92752 0.109625 0)
(1.83351 0.229056 0)
(1.99585 0.00523957 0)
(2 7.36531e-14 0)
(1.83364 0.226705 0)
(2.09786 -0.26466 0)
(2 6.33289e-14 0)
(2 3.43748e-14 0)
(2 1.14454e-13 0)
(1.90772 0.133277 0)
(2 8.3454e-14 0)
(1.96377 0.0553786 0)
(2 -9.67185e-14 0)
(1.84635 0.211253 0)
(1.83264 0.228334 0)
(2 -1.04082e-13 0)
(2.11004 -0.267504 0)
(2 1.41122e-13 0)
(1.83325 0.229167 0)
(2 7.60886e-15 0)
(2 4.51288e-14 0)
(1.83187 0.229322 0)
(1.84245 0.217273 0)
(2 -5.81847e-14 0)
(1.82637 0.229625 0)
(2 8.00474e-14 0)
(2.12077 -0.268827 0)
(2 1.46874e-13 0)
(2 6.87405e-14 0)
(2 1.31665e-13 0)
(1.82709 0.229776 0)
(1.83462 0.225415 0)
(1.85097 0.206087 0)
(2 2.01266e-13 0)
(1.82968 0.229677 0)
(1.83199 0.228587 0)
(2 2.77185e-13 0)
(1.83153 0.229743 0)
(2 -8.82718e-09 0)
(1.83262 0.2283 0)
(2 -3.97552e-14 0)
(2.11334 -0.264381 0)
(2.00754 -0.016601 0)
(2.12006 -0.266886 0)
(2 -3.39792e-11 0)
(2 -2.22507e-11 0)
(2 -3.22288e-11 0)
(2 -3.02122e-13 0)
(2 -1.33232e-11 0)
(1.83202 0.229006 0)
(2 -9.35942e-15 0)
(1.83204 0.229007 0)
(2 -3.74751e-11 0)
(2 -1.01683e-10 0)
(2 -1.05385e-13 0)
(1.84018 0.219821 0)
(2 -5.71872e-14 0)
(2.1157 -0.26625 0)
(1.83135 0.22861 0)
(2 9.52268e-15 0)
(2.09901 -0.259503 0)
(2.12106 -0.243122 0)
(2.12807 -0.254698 0)
(2 1.60006e-13 0)
(1.91328 0.127686 0)
(1.98359 0.0233755 0)
(1.83077 0.229572 0)
(1.83178 0.228497 0)
(2 -2.71586e-14 0)
(2 -3.32119e-07 0)
(2 -1.07766e-07 0)
(2 5.33587e-14 0)
(1.83117 0.228906 0)
(2 6.82618e-14 0)
(2 -6.03225e-14 0)
(1.83125 0.228947 0)
(1.83198 0.228654 0)
(2 -3.60958e-13 0)
(1.9384 0.0937165 0)
(2.00004 0.000565066 0)
(2 -1.03185e-13 0)
(2.0013 -0.00197679 0)
(1.82714 0.228356 0)
(2.05069 -0.0958826 0)
(2 -1.24646e-07 0)
(2.06285 -0.124644 0)
(2.10693 -0.259692 0)
(2.10513 -0.261318 0)
(1.99218 -0.0425236 0)
(1.83032 0.228859 0)
(1.83435 0.226444 0)
(1.96629 0.0497268 0)
(1.83123 0.228889 0)
(1.83108 0.228994 0)
(2 -3.5057e-15 0)
(2 1.09398e-13 0)
(1.82857 0.228574 0)
(1.8297 0.228596 0)
(1.83129 0.229036 0)
(1.8288 0.228804 0)
(2 7.64406e-14 0)
(1.83177 0.229102 0)
(2.11689 -0.265225 0)
(1.83039 0.228761 0)
(1.83025 0.2294 0)
(1.8304 0.227419 0)
(1.83128 0.230093 0)
(2.0481 -0.096153 0)
(2.02863 -0.0797552 0)
(2.01447 -0.0512678 0)
(1.83173 0.228947 0)
(2.01374 -0.0300657 0)
(1.8303 0.228951 0)
(2 -1.0911e-13 0)
(2 -5.96145e-14 0)
(1.83104 0.229749 0)
(1.83129 0.228915 0)
(2 -7.46607e-14 0)
(2.11079 -0.266449 0)
(1.82971 0.229322 0)
(1.83174 0.228744 0)
(2 -1.28996e-14 0)
(1.83226 0.228982 0)
(1.8318 0.229168 0)
(2 -7.15039e-14 0)
(1.83157 0.228919 0)
(2.10095 -0.260128 0)
(1.83163 0.228759 0)
(1.83162 0.228843 0)
(1.82957 0.228988 0)
(1.82999 0.231929 0)
(2 6.11448e-14 0)
(2 1.50104e-13 0)
(2 -9.42811e-08 0)
(1.83186 0.228666 0)
(1.89119 0.156705 0)
(2.13203 -0.242874 0)
(1.83129 0.228823 0)
(2.11423 -0.272319 0)
(1.83173 0.228641 0)
(2 -2.88564e-14 0)
(2 1.13047e-14 0)
(2 -7.54843e-14 0)
(2 2.83966e-14 0)
(1.83154 0.2279 0)
(1.83115 0.229043 0)
(2 4.10597e-14 0)
(2 1.18192e-13 0)
(1.83143 0.229097 0)
(2.11245 -0.275159 0)
(1.83136 0.22829 0)
(2.11545 -0.264365 0)
(2 -6.17479e-14 0)
(1.83282 0.227696 0)
(2 -8.06834e-14 0)
(2.11469 -0.267095 0)
(1.83076 0.229299 0)
(2.08935 -0.196116 0)
(2 -5.26161e-14 0)
(1.8317 0.228468 0)
(1.83025 0.229786 0)
(1.83197 0.229515 0)
(2 -1.70162e-13 0)
(2 2.33421e-13 0)
(1.92206 0.110453 0)
(1.83057 0.229582 0)
(2.10018 -0.262515 0)
(1.8318 0.228918 0)
(2 -8.99719e-14 0)
(1.83208 0.229294 0)
(2.03717 -0.0870556 0)
(1.83201 0.229607 0)
(2.10676 -0.264606 0)
(2 7.00949e-14 0)
(1.83195 0.229357 0)
(2.12211 -0.227729 0)
(1.8311 0.229768 0)
(2.10919 -0.263511 0)
(2 4.94416e-14 0)
(1.83136 0.229049 0)
(2 1.03412e-13 0)
(1.82906 0.228674 0)
(2 8.39662e-14 0)
(1.90245 0.141951 0)
(1.83746 0.222006 0)
(1.86795 0.185301 0)
(2.13708 -0.272347 0)
(2 -1.35911e-13 0)
(1.83117 0.22868 0)
(2 1.33358e-14 0)
(1.83202 0.228983 0)
(2 -1.16602e-07 0)
(1.83161 0.229036 0)
(2 -2.50253e-07 0)
(2 4.14241e-14 0)
(1.83051 0.22896 0)
(2.00351 -0.0156107 0)
(1.83082 0.230249 0)
(2.10719 -0.270576 0)
(1.84806 0.210466 0)
(2 -8.58177e-14 0)
(1.87955 0.172221 0)
(2 -6.54798e-14 0)
(1.83026 0.228861 0)
(1.83167 0.228944 0)
(1.83098 0.228742 0)
(2 2.68198e-15 0)
(1.84889 0.208474 0)
(1.83116 0.228835 0)
(1.84372 0.215582 0)
(1.89764 0.148838 0)
(1.82587 0.232981 0)
(2 -6.49649e-15 0)
(1.88732 0.161653 0)
(2 -1.39511e-13 0)
(1.83058 0.229041 0)
(2 1.25369e-13 0)
(1.97285 0.0398475 0)
(2 1.43223e-13 0)
(1.84419 0.214461 0)
(2 7.65941e-14 0)
(1.83212 0.229246 0)
(1.83959 0.219578 0)
(1.83957 0.220149 0)
(2 4.47451e-14 0)
(1.83565 0.230719 0)
(2.11487 -0.270304 0)
(2 1.11919e-13 0)
(2.11154 -0.267959 0)
(2 -5.23027e-13 0)
(2 -1.26628e-13 0)
(2 1.14265e-14 0)
(1.82649 0.228176 0)
(2 7.80051e-14 0)
(1.83136 0.229131 0)
(2 3.74281e-14 0)
(2 -1.59826e-13 0)
(2 -1.16337e-13 0)
(1.83136 0.229755 0)
(1.82691 0.233335 0)
(1.86855 0.183476 0)
(1.83106 0.228626 0)
(1.83201 0.227873 0)
(2.11455 -0.260987 0)
(1.83001 0.231357 0)
(1.83229 0.228927 0)
(2 -3.35485e-14 0)
(1.84914 0.214959 0)
(1.83157 0.228789 0)
(1.84398 0.212855 0)
(2 -1.51274e-13 0)
(1.83353 0.229213 0)
(1.83095 0.228781 0)
(2 1.90091e-14 0)
(1.82947 0.231751 0)
(1.83154 0.229214 0)
(1.83052 0.228512 0)
(1.83081 0.22927 0)
(2 -2.03152e-13 0)
(2 1.9985e-13 0)
(2 -2.78865e-14 0)
(1.83166 0.228819 0)
(2.12108 -0.258756 0)
(2 -8.64694e-14 0)
(1.83148 0.228802 0)
(2 -1.55649e-14 0)
(2 -7.5624e-14 0)
(2.10316 -0.27218 0)
(2 1.14941e-13 0)
(2 -1.44811e-13 0)
(1.83147 0.228774 0)
(1.83207 0.22878 0)
(2 2.65901e-14 0)
(1.83176 0.228929 0)
(1.82987 0.231851 0)
(1.83162 0.229209 0)
(2.01109 -0.0188663 0)
(1.83113 0.228901 0)
(2 -5.45213e-15 0)
(1.83109 0.229004 0)
(1.83168 0.228934 0)
(1.87462 0.17799 0)
(2 3.62467e-14 0)
(2 2.0103e-14 0)
(2 -1.35682e-14 0)
(1.83179 0.227637 0)
(1.83151 0.22882 0)
(1.83184 0.22866 0)
(2.0162 -0.032187 0)
(2 -1.54129e-13 0)
(1.82615 0.230833 0)
(1.83163 0.228806 0)
(1.83192 0.228789 0)
(2 -1.23672e-13 0)
(1.83173 0.22895 0)
(1.8307 0.228908 0)
(1.83146 0.228906 0)
(1.82582 0.230941 0)
(2 -6.69817e-15 0)
(1.83159 0.22919 0)
(1.83239 0.22745 0)
(1.84974 0.202099 0)
(1.83198 0.228672 0)
(1.82634 0.230532 0)
(2 -1.06506e-13 0)
(1.82903 0.228542 0)
(1.83333 0.22688 0)
(1.83175 0.228732 0)
(1.83193 0.228285 0)
(1.83167 0.229413 0)
(2.12486 -0.263402 0)
(1.83201 0.22939 0)
(1.83181 0.228437 0)
(2 -8.30069e-14 0)
(1.8313 0.228932 0)
(1.83161 0.228816 0)
(1.83133 0.229076 0)
(1.83195 0.228981 0)
(2 -5.34467e-08 0)
(1.83169 0.228987 0)
(1.83136 0.228883 0)
(2 -1.67143e-07 0)
(1.83192 0.22884 0)
(1.85919 0.197008 0)
(2 -1.97122e-13 0)
(2 2.06362e-14 0)
(2 8.08222e-10 0)
(1.83231 0.228092 0)
(1.83097 0.233271 0)
(2 7.14425e-14 0)
(2 -5.67317e-14 0)
(1.9085 0.134077 0)
(2 7.88262e-14 0)
(1.83183 0.229125 0)
(2 2.92115e-14 0)
(2 -2.52633e-14 0)
(1.8312 0.229 0)
(1.83087 0.229634 0)
(1.83188 0.229211 0)
(1.83137 0.228731 0)
(2 -3.5556e-14 0)
(2 5.27197e-14 0)
(2 8.79926e-14 0)
(1.88055 0.167346 0)
(2 3.1814e-14 0)
(1.83148 0.22919 0)
(2 1.13784e-13 0)
(2 9.83778e-14 0)
(1.8271 0.228467 0)
(1.83157 0.229262 0)
(2 -4.06615e-14 0)
(1.83153 0.228702 0)
(2.11766 -0.276717 0)
(1.83168 0.228834 0)
(1.83169 0.228601 0)
(2.10392 -0.202411 0)
(2 1.86715e-14 0)
(2.13277 -0.274417 0)
(1.84987 0.202482 0)
(1.8313 0.228622 0)
(1.83199 0.229563 0)
(1.83188 0.229348 0)
(2.11974 -0.266127 0)
(1.83122 0.228964 0)
(1.83156 0.229722 0)
(2.12436 -0.262897 0)
(2.11058 -0.275404 0)
(2 -2.59747e-07 0)
(1.83138 0.229742 0)
(1.83185 0.229213 0)
(2 3.49514e-15 0)
(2 2.43707e-14 0)
(1.83155 0.228978 0)
(2 -3.72888e-13 0)
(1.8308 0.231637 0)
(2 2.65254e-06 0)
(1.85174 0.205635 0)
(2 8.27202e-14 0)
(1.92085 0.11815 0)
(1.83173 0.229186 0)
(1.83032 0.22966 0)
(1.88025 0.170892 0)
(1.85525 0.199656 0)
(1.82878 0.228705 0)
(1.83104 0.22952 0)
(1.84439 0.222009 0)
(2 4.65649e-14 0)
(2.11017 -0.266109 0)
(1.82956 0.230915 0)
(1.83192 0.228736 0)
(1.82936 0.231119 0)
(2 6.93808e-06 0)
(2 3.93089e-10 0)
(2 1.3718e-09 0)
(1.82902 0.230398 0)
(2 -3.41526e-14 0)
(1.8318 0.22881 0)
(1.83167 0.228707 0)
(2.09155 -0.182548 0)
(2 6.63613e-14 0)
(1.83127 0.229031 0)
(2.00002 -4.93043e-05 0)
(2 -5.81319e-14 0)
(1.99999 1.91411e-05 0)
(1.99998 2.6592e-05 0)
(1.83198 0.22888 0)
(1.83171 0.229029 0)
(2.00055 -0.000923688 0)
(2 1.61486e-14 0)
(2 -1.25926e-14 0)
(1.83194 0.228915 0)
(1.83065 0.230027 0)
(1.83144 0.228734 0)
(1.83191 0.230187 0)
(1.83081 0.22944 0)
(2.13141 -0.24822 0)
(1.8666 0.190653 0)
(2 -1.49279e-14 0)
(1.83254 0.227592 0)
(1.83186 0.229121 0)
(1.83168 0.229019 0)
(1.83094 0.224175 0)
(2 -9.13013e-14 0)
(1.83175 0.228985 0)
(1.83648 0.223987 0)
(1.83125 0.229807 0)
(2 -1.32964e-13 0)
(1.83092 0.229069 0)
(1.83067 0.22858 0)
(2.0526 -0.0910642 0)
(1.83178 0.229006 0)
(1.83105 0.228881 0)
(2 -3.47946e-14 0)
(1.83115 0.229028 0)
(2.05281 -0.106156 0)
(1.8313 0.228754 0)
(2.05608 -0.0905033 0)
(1.83172 0.229046 0)
(2 -1.14263e-07 0)
(1.83125 0.22883 0)
(1.82465 0.232283 0)
(1.83167 0.228893 0)
(1.83164 0.22905 0)
(1.8313 0.228863 0)
(1.8285 0.227543 0)
(1.83156 0.229364 0)
(1.83047 0.227572 0)
(2 -2.40912e-13 0)
(2.02465 -0.0409852 0)
(1.83124 0.2287 0)
(1.83151 0.22884 0)
(2.05079 -0.108763 0)
(1.8314 0.228852 0)
(2.00012 -0.0100287 0)
(1.89686 0.153787 0)
(1.8312 0.228698 0)
(1.82944 0.228506 0)
(1.83013 0.228355 0)
(2 1.02698e-13 0)
(1.83072 0.230301 0)
(1.89366 0.159972 0)
(1.83113 0.228704 0)
(2.02124 -0.0452746 0)
(1.83091 0.230126 0)
(1.82581 0.229595 0)
(2 -3.42434e-14 0)
(2.04154 -0.0922976 0)
(2 -4.8567e-09 0)
(1.83785 0.224131 0)
(2 9.21135e-14 0)
(1.88475 0.166449 0)
(2 3.64345e-09 0)
(1.8375 0.233705 0)
(2.03658 -0.088407 0)
(2 9.09332e-14 0)
(1.83182 0.228222 0)
(1.83271 0.232272 0)
(2 -5.8442e-14 0)
(1.82931 0.230464 0)
(1.8308 0.22974 0)
(1.82737 0.231006 0)
(1.83874 0.225009 0)
(1.82944 0.231037 0)
(2 -1.01496e-13 0)
(1.83188 0.229475 0)
(2 -8.70697e-14 0)
(2 -4.37079e-14 0)
(2 1.1711e-13 0)
(2.02802 -0.0690444 0)
(1.83169 0.228568 0)
(1.83177 0.228382 0)
(1.83099 0.228199 0)
(1.83152 0.228733 0)
(1.82691 0.23182 0)
(1.831 0.229554 0)
(1.82773 0.233389 0)
(1.83145 0.229135 0)
(2.02826 -0.0653475 0)
(1.98727 0.0233095 0)
(2 3.63367e-09 0)
(2 -5.35441e-15 0)
(1.82306 0.231602 0)
(1.83152 0.228922 0)
(1.83147 0.228912 0)
(1.83137 0.229054 0)
(1.99999 1.62997e-05 0)
(1.91444 0.129879 0)
(2 -1.68086e-07 0)
(1.82954 0.231423 0)
(1.84258 0.217405 0)
(2 -3.00748e-12 0)
(2 -5.67592e-11 0)
(2.07619 -0.193632 0)
(1.83171 0.228865 0)
(2 7.70761e-14 0)
(2 6.16984e-14 0)
(2.10393 -0.26358 0)
(1.83113 0.229006 0)
(2 -2.47215e-14 0)
(1.8336 0.229088 0)
(1.83132 0.229053 0)
(1.82899 0.228425 0)
(1.83847 0.221587 0)
(1.83124 0.228899 0)
(2 -1.38696e-10 0)
(2.13991 -0.260292 0)
(1.96033 0.062631 0)
(1.83048 0.228801 0)
(1.83121 0.228879 0)
(2 9.50472e-14 0)
(1.83225 0.229065 0)
(1.83154 0.228839 0)
(1.916 0.123095 0)
(1.99907 0.00625856 0)
(1.96296 0.0603785 0)
(2 1.2281e-13 0)
(1.82931 0.228374 0)
(1.83147 0.22894 0)
(2 -1.21166e-07 0)
(2 -2.1995e-10 0)
(2.12782 -0.257972 0)
(2 -2.40787e-10 0)
(2 1.96938e-13 0)
(1.83164 0.228826 0)
(1.83148 0.228798 0)
(1.83122 0.228732 0)
(1.83155 0.22874 0)
(1.83135 0.22883 0)
(1.82866 0.227476 0)
(1.83113 0.228998 0)
(1.83119 0.22817 0)
(1.83131 0.228975 0)
(2 1.8111e-13 0)
(2.00158 -0.00260326 0)
(1.83146 0.22904 0)
(1.83186 0.229033 0)
(2.00118 -0.00197422 0)
(1.83147 0.228795 0)
(1.83163 0.228915 0)
(2.13784 -0.251338 0)
(2.1285 -0.262942 0)
(1.8318 0.227725 0)
(1.82841 0.23042 0)
(2 -6.06984e-14 0)
(2 2.0337e-13 0)
(1.99909 0.00243373 0)
(1.83121 0.229034 0)
(1.83174 0.22915 0)
(1.83126 0.229046 0)
(2 9.8995e-10 0)
(1.83148 0.228726 0)
(2 1.57115e-14 0)
(2.04512 -0.0944746 0)
(1.82929 0.231558 0)
(1.8266 0.232145 0)
(2 -8.68403e-14 0)
(1.92634 0.114609 0)
(1.83066 0.228724 0)
(2 3.20493e-13 0)
(1.82948 0.227879 0)
(2 -1.04724e-10 0)
(1.83158 0.229185 0)
(1.88979 0.159438 0)
(1.83179 0.229574 0)
(2 1.44808e-11 0)
(1.83192 0.228677 0)
(1.83227 0.228248 0)
(2.13149 -0.259342 0)
(1.83162 0.228908 0)
(2 -1.2034e-07 0)
(1.83187 0.228706 0)
(1.83335 0.228665 0)
(2 7.23283e-09 0)
(2.13474 -0.249549 0)
(1.83179 0.227791 0)
(1.85758 0.200386 0)
(2.00076 -0.00114841 0)
(1.83519 0.222076 0)
(1.83159 0.228852 0)
(2 -5.90239e-12 0)
(1.99812 0.00433117 0)
(1.8318 0.229782 0)
(2.00148 -0.00189484 0)
(1.83161 0.228941 0)
(2 -3.19066e-12 0)
(2 -1.356e-13 0)
(1.83159 0.22837 0)
(2 1.16821e-13 0)
(1.83168 0.228216 0)
(1.83151 0.228867 0)
(2.00131 -0.0023297 0)
(1.87152 0.172489 0)
(2 3.35926e-09 0)
(1.83153 0.228897 0)
(2 -3.09452e-10 0)
(2 -8.21531e-13 0)
(2 1.13508e-11 0)
(2 5.9404e-12 0)
(1.83169 0.229123 0)
(2 7.09556e-09 0)
(2 -1.58304e-13 0)
(1.83948 0.222617 0)
(2 1.15602e-13 0)
(1.83129 0.228802 0)
(2 3.19781e-10 0)
(1.89126 0.158156 0)
(1.83079 0.228302 0)
(1.83181 0.22824 0)
(2 8.79413e-10 0)
(2 -2.32832e-13 0)
(1.99695 0.00536379 0)