/*--------------------------------*- C++ -*----------------------------------*\
  =========                 |
  \\      /  F ield         | OpenFOAM: The Open Source CFD Toolbox
   \\    /   O peration     | Website:  https://openfoam.org
    \\  /    A nd           | Version:  12
     \\/     M anipulation  |
\*---------------------------------------------------------------------------*/
FoamFile
{
    format      ascii;
    class       volVectorField;
    location    "2.21";
    object      U;
}
// * * * * * * * * * * * * * * * * * * * * * * * * * * * * * * * * * * * * * //

dimensions      [0 1 -1 0 0 0 0];

internalField   nonuniform List<vector> 
22702
(
(2 -3.86245e-13 0)
(2 2.66597e-14 0)
(2.04925 -0.0916018 0)
(2 -1.1244e-09 0)
(1.97817 0.0326571 0)
(2 4.07346e-14 0)
(1.8314 0.228995 0)
(2 2.37865e-14 0)
(2 -3.25954e-13 0)
(2.11754 -0.264921 0)
(1.83036 0.228947 0)
(1.83239 0.229115 0)
(2 -3.0042e-14 0)
(1.83233 0.228899 0)
(2.03805 -0.0754387 0)
(2 -3.38612e-13 0)
(2 -2.16209e-13 0)
(2 -2.94117e-14 0)
(1.82976 0.22883 0)
(2 1.13295e-14 0)
(1.832 0.229445 0)
(2 -1.0168e-13 0)
(1.8312 0.228856 0)
(2.10384 -0.261173 0)
(1.83239 0.230553 0)
(2.13445 -0.268114 0)
(2 -5.30383e-14 0)
(1.82754 0.227737 0)
(2.10558 -0.265638 0)
(2.1104 -0.26257 0)
(2 -3.58887e-14 0)
(1.83163 0.228948 0)
(2 3.9437e-14 0)
(2 -1.02456e-14 0)
(2 -1.43239e-13 0)
(1.84004 0.213031 0)
(1.83179 0.230641 0)
(1.83126 0.229005 0)
(2 -1.26519e-13 0)
(2 -1.56487e-13 0)
(2.12044 -0.266642 0)
(2 9.20336e-15 0)
(1.92191 0.124093 0)
(2 -9.43997e-14 0)
(1.82805 0.228341 0)
(2 -2.05116e-13 0)
(2 1.09971e-13 0)
(2 -1.67384e-13 0)
(2 -1.4375e-14 0)
(2.11292 -0.260973 0)
(2 -2.60552e-14 0)
(2.10135 -0.259706 0)
(2 -5.52052e-14 0)
(1.83054 0.228806 0)
(2 3.48727e-14 0)
(1.82961 0.228493 0)
(2 1.6676e-14 0)
(2 1.613e-09 0)
(2 1.41472e-13 0)
(2 -1.71167e-13 0)
(2.12347 -0.264619 0)
(2 -5.97768e-14 0)
(2 -1.55258e-13 0)
(2.12582 -0.263943 0)
(2 3.49229e-14 0)
(2.10253 -0.263871 0)
(2 -2.09894e-13 0)
(2 -1.62168e-13 0)
(2 7.96209e-14 0)
(2.12208 -0.263854 0)
(2 -1.92038e-13 0)
(1.83017 0.22854 0)
(1.90346 0.15175 0)
(2 1.6301e-09 0)
(1.83091 0.229106 0)
(1.82146 0.237045 0)
(2.10302 -0.267656 0)
(1.83156 0.229303 0)
(2.11265 -0.264972 0)
(2 -1.5162e-13 0)
(1.82974 0.228799 0)
(2.11218 -0.261317 0)
(1.82905 0.228503 0)
(1.829 0.228439 0)
(2 3.74921e-14 0)
(2 7.13865e-07 0)
(2 -2.86258e-14 0)
(2 8.34465e-14 0)
(2.02786 -0.0441619 0)
(2.11932 -0.26331 0)
(1.83342 0.228901 0)
(2 -5.86449e-14 0)
(2 -6.75268e-11 0)
(2.11785 -0.26575 0)
(2 -6.87782e-14 0)
(1.83198 0.229775 0)
(2.11763 -0.265391 0)
(2 2.86596e-08 0)
(2 8.57976e-14 0)
(2 -1.30637e-13 0)
(2 -4.73303e-14 0)
(1.92407 0.127408 0)
(1.82952 0.228941 0)
(2.12327 -0.265796 0)
(2 -1.11274e-09 0)
(2 -7.80352e-10 0)
(1.95847 0.0623251 0)
(2 9.20676e-09 0)
(2.1086 -0.262287 0)
(2 -1.43403e-13 0)
(1.83129 0.229189 0)
(1.82926 0.228976 0)
(2 4.4814e-09 0)
(2 -6.63942e-14 0)
(2.13187 -0.268898 0)
(2.13119 -0.265282 0)
(2.11732 -0.262317 0)
(2 9.29007e-14 0)
(2 -1.49602e-07 0)
(2 -9.42162e-14 0)
(2 -7.68324e-14 0)
(2 8.81134e-08 0)
(2.03118 -0.054974 0)
(2 -1.00267e-07 0)
(1.85819 0.204679 0)
(1.98231 0.0237399 0)
(1.82898 0.228845 0)
(2 -7.13433e-14 0)
(1.82964 0.229335 0)
(1.82956 0.228966 0)
(1.83221 0.228926 0)
(1.83003 0.22871 0)
(2 -8.69904e-14 0)
(2.12764 -0.260696 0)
(2 8.24529e-14 0)
(2.12019 -0.26613 0)
(2 -6.41555e-14 0)
(2 3.63275e-14 0)
(2 1.58594e-13 0)
(2 -7.38107e-14 0)
(1.82934 0.229101 0)
(2 3.25485e-09 0)
(2 -8.20664e-14 0)
(2 -1.40357e-13 0)
(2 1.50699e-13 0)
(1.83189 0.229488 0)
(2 -1.94369e-14 0)
(1.99467 0.01244 0)
(2 8.78802e-15 0)
(2 -3.39255e-13 0)
(2 -6.68198e-11 0)
(2 7.78829e-14 0)
(2.12068 -0.264083 0)
(2 3.59367e-15 0)
(1.99541 0.00923483 0)
(2 9.98137e-14 0)
(2.10979 -0.264256 0)
(2 -1.24646e-13 0)
(2 5.38215e-14 0)
(2 -7.31016e-14 0)
(1.83292 0.229314 0)
(2 -4.56099e-14 0)
(1.83072 0.228509 0)
(2.1264 -0.277224 0)
(2.12242 -0.261969 0)
(1.82908 0.22843 0)
(1.82918 0.228265 0)
(2 2.18172e-14 0)
(1.97062 0.0429754 0)
(1.91117 0.142224 0)
(2 6.15391e-14 0)
(1.82783 0.228713 0)
(2.11319 -0.263886 0)
(1.839 0.212626 0)
(2 -2.2329e-14 0)
(2 3.99943e-14 0)
(2 3.68473e-14 0)
(2 -5.89991e-14 0)
(1.83192 0.228755 0)
(1.85888 0.193541 0)
(2 -8.16467e-15 0)
(1.82964 0.229057 0)
(2.14257 -0.268387 0)
(1.82781 0.228614 0)
(2 1.05416e-13 0)
(2.10954 -0.265163 0)
(2 -5.19438e-15 0)
(2.10619 -0.262444 0)
(2.13256 -0.263615 0)
(2.00008 -0.000129141 0)
(2 -1.3254e-14 0)
(2 -1.90397e-13 0)
(1.82892 0.229109 0)
(2 1.2752e-14 0)
(2 -2.68999e-13 0)
(1.83175 0.228673 0)
(2 -1.27704e-13 0)
(1.8293 0.228662 0)
(1.82962 0.229154 0)
(2.10182 -0.277052 0)
(2 2.41005e-13 0)
(2 -3.96623e-14 0)
(2.10973 -0.264896 0)
(1.83187 0.228864 0)
(2 -8.39864e-14 0)
(2 -3.33226e-14 0)
(2 -7.27317e-14 0)
(1.83179 0.22888 0)
(2 -1.35143e-14 0)
(2.12934 -0.263831 0)
(2 -5.82088e-11 0)
(2 -1.13816e-14 0)
(1.83205 0.229077 0)
(1.83136 0.229056 0)
(1.82979 0.228792 0)
(2 -6.71883e-14 0)
(1.99999 2.30132e-05 0)
(2 -5.994e-14 0)
(2 1.02567e-13 0)
(2 2.83749e-13 0)
(1.83015 0.228173 0)
(2 -5.88438e-14 0)
(2.13839 -0.266627 0)
(1.82222 0.23408 0)
(1.83178 0.228622 0)
(1.83159 0.22788 0)
(2 1.97424e-07 0)
(2 1.3293e-13 0)
(2 4.22627e-15 0)
(2.11567 -0.271175 0)
(1.83223 0.228158 0)
(1.91855 0.128321 0)
(2 6.74282e-14 0)
(1.82739 0.227919 0)
(2.13016 -0.262956 0)
(2.13807 -0.262953 0)
(1.82775 0.227954 0)
(1.83223 0.227743 0)
(2 -4.002e-14 0)
(1.83013 0.231568 0)
(2.1163 -0.276451 0)
(1.85442 0.210372 0)
(2 -1.47131e-13 0)
(2 -1.07104e-13 0)
(2 2.30536e-14 0)
(2 -1.40481e-13 0)
(1.83198 0.229046 0)
(2 -5.37504e-14 0)
(1.90245 0.145599 0)
(1.98271 0.0280137 0)
(2 4.305e-14 0)
(2 -3.84781e-14 0)
(1.8318 0.229011 0)
(2.11872 -0.265022 0)
(2.08289 -0.163253 0)
(2 -1.1367e-13 0)
(1.83224 0.227912 0)
(2.10681 -0.271021 0)
(1.82891 0.23272 0)
(2 -1.65534e-14 0)
(2 1.60207e-14 0)
(2 -1.68493e-13 0)
(2 -5.44333e-14 0)
(2 3.91392e-14 0)
(2 2.87507e-14 0)
(2 -1.14352e-13 0)
(2.11695 -0.265772 0)
(2.08073 -0.166488 0)
(2.13804 -0.264729 0)
(1.83119 0.228881 0)
(2 -1.06079e-15 0)
(2 2.38884e-13 0)
(2 -1.79642e-07 0)
(2 1.6061e-13 0)
(1.84909 0.213062 0)
(2 -9.50767e-08 0)
(2.11158 -0.262393 0)
(2 1.3567e-13 0)
(2.11651 -0.2819 0)
(2.10727 -0.264879 0)
(1.83181 0.228817 0)
(2.10888 -0.26169 0)
(1.83044 0.229018 0)
(2 -4.68903e-14 0)
(2 -3.35823e-13 0)
(2 -2.66128e-13 0)
(2.00093 -0.0015526 0)
(2.11036 -0.266107 0)
(2.10587 -0.283612 0)
(2 -2.69562e-07 0)
(2 -1.45589e-07 0)
(2.11635 -0.283606 0)
(2 2.32997e-09 0)
(1.82928 0.228818 0)
(2.12358 -0.265842 0)
(2 -4.64882e-14 0)
(2 -4.00119e-11 0)
(1.82985 0.228706 0)
(2.10937 -0.279068 0)
(2 -4.91062e-14 0)
(1.83004 0.228697 0)
(2.12259 -0.263454 0)
(1.83189 0.228938 0)
(2 9.3568e-14 0)
(2.10913 -0.28584 0)
(2.00082 -0.00143298 0)
(2 -2.62016e-14 0)
(2 2.57686e-06 0)
(2 7.43905e-14 0)
(2.10022 -0.26055 0)
(2 -2.97416e-13 0)
(2 -1.69996e-07 0)
(2 2.89385e-07 0)
(1.99999 1.26856e-05 0)
(1.99598 0.00658295 0)
(1.90641 0.152645 0)
(2 -2.47242e-11 0)
(2.12787 -0.248368 0)
(2 -1.58522e-11 0)
(2 1.73415e-06 0)
(2 1.16438e-13 0)
(2 4.49491e-14 0)
(2 -1.82132e-14 0)
(2 -5.57411e-14 0)
(2 -1.29406e-12 0)
(1.82991 0.228728 0)
(2 1.98932e-13 0)
(1.82885 0.229665 0)
(2 1.335e-13 0)
(2 5.98532e-14 0)
(2 2.89367e-14 0)
(2.1023 -0.26501 0)
(2 1.40335e-13 0)
(1.83191 0.229423 0)
(2.10782 -0.263977 0)
(2 8.50431e-14 0)
(1.86971 0.191563 0)
(2 -1.45295e-13 0)
(2 -7.4554e-15 0)
(1.82982 0.228725 0)
(2 -5.08939e-15 0)
(2 -8.74307e-09 0)
(2 -2.20237e-14 0)
(1.83442 0.226898 0)
(2 4.64302e-10 0)
(2 -1.52851e-13 0)
(1.83418 0.229386 0)
(1.83009 0.228256 0)
(2 -7.7361e-14 0)
(1.96116 0.0595865 0)
(2 2.72588e-14 0)
(2 5.99561e-14 0)
(2.11945 -0.266425 0)
(2 -1.09747e-13 0)
(2 -9.0314e-14 0)
(2 -4.12828e-14 0)
(2.11931 -0.265114 0)
(2 2.24208e-14 0)
(2 2.73033e-14 0)
(2 2.19129e-14 0)
(2 2.84546e-13 0)
(2.13215 -0.257618 0)
(2 -4.73673e-14 0)
(2 2.36944e-14 0)
(2 2.38099e-14 0)
(2 -9.92379e-14 0)
(2 1.29531e-13 0)
(2.1065 -0.273849 0)
(1.99998 3.26367e-05 0)
(1.83006 0.228299 0)
(2 1.02427e-13 0)
(2.00001 -1.95941e-05 0)
(1.82938 0.228448 0)
(1.82862 0.228154 0)
(2 1.09914e-13 0)
(2 1.27416e-13 0)
(2.10168 -0.277694 0)
(2.06145 -0.129366 0)
(1.83087 0.229642 0)
(2 -8.41987e-14 0)
(2 9.2323e-14 0)
(2 1.65207e-13 0)
(1.83205 0.228845 0)
(2.12241 -0.263262 0)
(2 -3.24097e-14 0)
(1.8305 0.2284 0)
(2 7.3864e-14 0)
(2 -1.62399e-14 0)
(2.09923 -0.21937 0)
(2.09165 -0.215344 0)
(2 -2.12145e-13 0)
(2.11559 -0.267175 0)
(2.11512 -0.264724 0)
(2 -2.79266e-14 0)
(2 7.40394e-14 0)
(2 -5.8856e-14 0)
(2 1.55376e-13 0)
(2 -8.76431e-11 0)
(2 -9.87242e-14 0)
(2 -8.83018e-14 0)
(1.82828 0.228522 0)
(1.9552 0.0661045 0)
(1.83345 0.221062 0)
(2.10778 -0.268094 0)
(2.03137 -0.0579485 0)
(1.82951 0.228981 0)
(2 -6.47155e-13 0)
(1.83149 0.2294 0)
(1.83075 0.229639 0)
(2.12111 -0.2586 0)
(2.08037 -0.154527 0)
(2 7.7497e-13 0)
(2.11395 -0.266478 0)
(2 -9.02476e-15 0)
(1.82365 0.234877 0)
(2 7.98442e-14 0)
(2 1.59353e-13 0)
(2 -1.86325e-13 0)
(2 9.35998e-14 0)
(1.83186 0.22887 0)
(2 -4.1047e-14 0)
(2 -7.00618e-14 0)
(2 -8.08201e-14 0)
(2 1.4835e-09 0)
(2 -5.96314e-14 0)
(2 -8.68273e-15 0)
(2 1.0854e-13 0)
(1.93889 0.0929075 0)
(1.83235 0.228903 0)
(2 7.6086e-14 0)
(1.83118 0.228971 0)
(2 1.44678e-14 0)
(2 1.05314e-13 0)
(2.11158 -0.263504 0)
(2 -8.74128e-14 0)
(2 -4.89581e-14 0)
(2 -1.06679e-13 0)
(2 -9.89252e-14 0)
(1.83175 0.228896 0)
(1.87267 0.181685 0)
(2 -7.04172e-14 0)
(2 -1.63153e-13 0)
(2.11294 -0.266396 0)
(1.83155 0.228494 0)
(1.83195 0.229033 0)
(2 -5.52908e-14 0)
(1.83211 0.229017 0)
(1.83169 0.228576 0)
(1.83125 0.229083 0)
(2 -2.14718e-14 0)
(2.05323 -0.115046 0)
(2 4.7282e-14 0)
(1.83186 0.228783 0)
(1.99707 -0.0135163 0)
(1.83121 0.229043 0)
(2 -1.32356e-13 0)
(2.12636 -0.26343 0)
(2.00039 -0.000634305 0)
(1.83157 0.229442 0)
(2 -7.01991e-14 0)
(2 5.32995e-14 0)
(2 -4.49133e-11 0)
(2 -1.88481e-11 0)
(2.10709 -0.262792 0)
(1.83218 0.228232 0)
(1.84574 0.209369 0)
(2 4.39337e-14 0)
(1.83239 0.228401 0)
(1.83203 0.228847 0)
(1.83003 0.229238 0)
(2 -1.09121e-13 0)
(1.92405 0.116985 0)
(1.83063 0.228488 0)
(2 1.03599e-13 0)
(2 -1.22127e-13 0)
(1.88443 0.167668 0)
(1.97932 0.0392568 0)
(1.83182 0.229051 0)
(2.02776 -0.0433036 0)
(1.83168 0.229059 0)
(2 -6.19316e-14 0)
(1.83154 0.228972 0)
(1.83136 0.228672 0)
(1.83149 0.229019 0)
(1.8315 0.228608 0)
(2 6.70021e-14 0)
(1.83711 0.233922 0)
(2.03255 -0.0607184 0)
(2.04092 -0.08272 0)
(2 -2.06284e-14 0)
(2 -3.72636e-07 0)
(2 -5.91985e-15 0)
(2 -2.20511e-14 0)
(1.83264 0.227857 0)
(2 1.805e-15 0)
(2 7.59913e-14 0)
(2 -2.12665e-13 0)
(2 6.53833e-14 0)
(2 6.21182e-14 0)
(1.83265 0.229657 0)
(2 1.88279e-13 0)
(2 7.93765e-14 0)
(2.00149 -0.00254523 0)
(1.83192 0.228927 0)
(1.8555 0.209261 0)
(2 9.79929e-14 0)
(1.87164 0.181896 0)
(1.99998 2.59133e-05 0)
(2 1.72099e-13 0)
(2 1.27223e-13 0)
(1.83135 0.228805 0)
(2 8.54764e-14 0)
(2.00199 -0.00246512 0)
(1.99845 0.00491364 0)
(2 -2.25994e-14 0)
(1.83138 0.228913 0)
(2 -1.36549e-14 0)
(1.83162 0.229201 0)
(2 4.77379e-14 0)
(2 5.58158e-14 0)
(1.87333 0.178835 0)
(2 1.21943e-13 0)
(1.83176 0.229933 0)
(1.99999 1.30653e-05 0)
(2 8.08751e-14 0)
(1.83145 0.230158 0)
(2 2.09193e-13 0)
(1.83186 0.228905 0)
(2 -3.46092e-15 0)
(2 2.89352e-06 0)
(2 -3.02909e-14 0)
(1.83198 0.228914 0)
(2 2.61918e-14 0)
(1.83021 0.229492 0)
(2 4.26012e-06 0)
(1.8318 0.228944 0)
(1.8302 0.228607 0)
(1.83157 0.229196 0)
(1.82881 0.228405 0)
(2 1.92636e-13 0)
(1.83129 0.229157 0)
(1.83875 0.223855 0)
(2 1.73457e-13 0)
(2.11657 -0.268245 0)
(1.84276 0.217436 0)
(1.88585 0.171836 0)
(2 4.28847e-14 0)
(1.83183 0.228682 0)
(2 -9.11316e-14 0)
(2.11898 -0.265616 0)
(2.12439 -0.262971 0)
(2 1.61114e-13 0)
(2 7.13638e-14 0)
(2 4.54582e-14 0)
(2 1.43883e-13 0)
(2 1.65832e-09 0)
(2.11774 -0.265381 0)
(2 -5.51851e-14 0)
(1.83119 0.22897 0)
(1.95215 0.0729811 0)
(1.83167 0.22853 0)
(2 -2.69243e-13 0)
(2 8.18464e-11 0)
(2 -5.42666e-14 0)
(2 2.18989e-14 0)
(2 -5.56647e-08 0)
(1.83141 0.228681 0)
(2 -1.12718e-13 0)
(1.83202 0.228612 0)
(1.90145 0.145702 0)
(2.07432 -0.151878 0)
(2 1.28182e-09 0)
(1.99999 6.93348e-06 0)
(1.94982 0.0749766 0)
(1.95627 0.0656722 0)
(2 1.28148e-13 0)
(2 1.86871e-13 0)
(1.94151 0.0920331 0)
(2 -5.09307e-14 0)
(2.10528 -0.263087 0)
(1.8314 0.229299 0)
(1.8314 0.229421 0)
(2 -7.08057e-11 0)
(2 -1.18713e-14 0)
(2 -4.59893e-14 0)
(1.83048 0.228667 0)
(2 1.05509e-13 0)
(1.99999 1.60933e-05 0)
(1.83112 0.23 0)
(1.83202 0.228376 0)
(2.01018 -0.0331317 0)
(2 3.2724e-13 0)
(2 1.71152e-10 0)
(2.10544 -0.260707 0)
(1.84757 0.210797 0)
(2 8.21561e-15 0)
(2 -5.55717e-14 0)
(2 3.22334e-15 0)
(2 -2.76177e-11 0)
(2 -1.03419e-14 0)
(1.83183 0.22897 0)
(1.83128 0.229329 0)
(2 9.93447e-14 0)
(1.83135 0.229695 0)
(1.8302 0.230759 0)
(1.83154 0.22917 0)
(2 -1.10746e-14 0)
(2 -3.05128e-13 0)
(2 -6.22543e-11 0)
(2 -1.05252e-13 0)
(2.13079 -0.263198 0)
(1.82994 0.229121 0)
(2 -4.35683e-11 0)
(2 1.13451e-13 0)
(1.84746 0.21099 0)
(1.83227 0.228666 0)
(2 -2.47599e-13 0)
(1.84136 0.218388 0)
(1.83212 0.229337 0)
(2 2.03432e-13 0)
(2 -2.14414e-07 0)
(2 6.26204e-11 0)
(2 6.11144e-14 0)
(2 -2.80808e-13 0)
(1.83148 0.229099 0)
(2 1.52117e-13 0)
(2 -2.12263e-13 0)
(2 1.08643e-13 0)
(2 -2.06184e-13 0)
(1.8326 0.228686 0)
(2 -2.56019e-13 0)
(1.82906 0.232007 0)
(2.09925 -0.269407 0)
(2 -1.21353e-13 0)
(2.14537 -0.2586 0)
(2 1.01397e-14 0)
(2 -1.14516e-07 0)
(2 -4.50446e-15 0)
(2.00103 -0.00193166 0)
(2.11554 -0.265665 0)
(2.00031 -0.000572821 0)
(2 -4.11149e-14 0)
(2 1.32322e-14 0)
(2 -1.22791e-07 0)
(1.97463 0.0374153 0)
(2 -1.61213e-13 0)
(2 9.67579e-14 0)
(2.04133 -0.0872935 0)
(2 -2.12871e-07 0)
(2 9.29541e-15 0)
(2 1.40844e-14 0)
(2 -2.14596e-07 0)
(2 2.84478e-07 0)
(2 -1.67852e-07 0)
(2 -2.43253e-13 0)
(2 -1.66524e-06 0)
(2.02696 -0.0488847 0)
(2 -4.54466e-07 0)
(2 -3.76129e-08 0)
(2.00091 -0.00129635 0)
(2 1.87992e-13 0)
(2.10699 -0.261828 0)
(2 -2.795e-11 0)
(2 -4.8811e-12 0)
(2 -6.24723e-11 0)
(2 6.67163e-14 0)
(1.87434 0.17805 0)
(2 -1.34562e-13 0)
(2 1.20948e-13 0)
(2 -2.94402e-14 0)
(2 -1.71039e-07 0)
(2.10769 -0.264168 0)
(2 1.5285e-15 0)
(2 1.3911e-09 0)
(1.8414 0.218441 0)
(1.82801 0.2284 0)
(2 -2.93958e-07 0)
(2 -4.39217e-15 0)
(2 -1.10655e-07 0)
(2.03468 -0.0781387 0)
(2 -9.61811e-14 0)
(2 4.21252e-10 0)
(2 -1.74499e-13 0)
(2 -4.2543e-14 0)
(2 7.32485e-14 0)
(2 1.25855e-13 0)
(2.00833 -0.0280239 0)
(1.99337 0.00965511 0)
(1.82984 0.228127 0)
(2 1.17219e-13 0)
(2 1.69875e-13 0)
(2 3.97301e-14 0)
(1.8305 0.230271 0)
(2.04028 -0.0664811 0)
(2 -4.86642e-09 0)
(2 3.26185e-14 0)
(2 4.68479e-14 0)
(1.83055 0.228538 0)
(1.828 0.226928 0)
(2 -3.1584e-08 0)
(2 4.99863e-06 0)
(2 3.37853e-09 0)
(2 1.11765e-13 0)
(2 1.27736e-09 0)
(2 -1.26407e-13 0)
(2 -5.98982e-12 0)
(2 1.56398e-14 0)
(2 -3.33853e-14 0)
(2.10727 -0.262889 0)
(2 -3.72682e-14 0)
(2 -1.28131e-11 0)
(1.82914 0.227314 0)
(2.1283 -0.270108 0)
(2 -2.80108e-14 0)
(1.82902 0.227263 0)
(2 8.07477e-11 0)
(2.11889 -0.265045 0)
(2 -4.29773e-14 0)
(2 -1.19614e-13 0)
(2.11143 -0.262218 0)
(2 -1.59463e-13 0)
(2 -1.04987e-11 0)
(2 -4.36388e-12 0)
(2 1.80632e-14 0)
(2 -1.48722e-12 0)
(2 -1.51227e-13 0)
(2 1.98522e-14 0)
(1.8348 0.22509 0)
(1.8321 0.228711 0)
(2 2.16826e-13 0)
(2 -1.04752e-13 0)
(2 -8.50551e-14 0)
(2 2.14321e-13 0)
(1.84676 0.21192 0)
(2 9.98957e-14 0)
(1.94792 0.0772948 0)
(2.12115 -0.269826 0)
(2 -3.03787e-08 0)
(2 1.41583e-13 0)
(2 -8.82407e-14 0)
(2 7.2993e-15 0)
(2 -5.46984e-14 0)
(2 3.51399e-14 0)
(2 6.09817e-14 0)
(1.98392 0.02053 0)
(2 1.13688e-14 0)
(2 -6.4841e-14 0)
(1.90613 0.122106 0)
(2 -1.44988e-14 0)
(2 -1.26069e-13 0)
(2 -1.69576e-14 0)
(1.86768 0.196196 0)
(2 4.91201e-14 0)
(2 1.04773e-13 0)
(2 2.09042e-14 0)
(2 6.77286e-14 0)
(2.10385 -0.269488 0)
(2 5.14189e-12 0)
(2 7.72985e-14 0)
(2.12221 -0.277429 0)
(2.10764 -0.268694 0)
(2 -1.86858e-13 0)
(2 1.6329e-13 0)
(1.83206 0.228816 0)
(2 5.11654e-14 0)
(1.97566 0.00129046 0)
(2 2.05395e-14 0)
(2 1.1435e-13 0)
(2 1.34476e-13 0)
(1.88367 0.169655 0)
(2.12311 -0.268434 0)
(2 -2.68994e-13 0)
(2.12455 -0.278337 0)
(2 -5.82556e-14 0)
(2.06855 -0.150915 0)
(2 8.59139e-14 0)
(2 -4.79906e-14 0)
(2 5.92447e-14 0)
(1.83037 0.229311 0)
(2 -4.27165e-08 0)
(2 -2.86163e-13 0)
(1.83105 0.228745 0)
(2 -1.99553e-13 0)
(2 -3.0356e-11 0)
(2 1.75431e-09 0)
(1.83107 0.228669 0)
(2 2.37136e-10 0)
(2 5.67704e-14 0)
(1.83175 0.228872 0)
(2 -3.72184e-13 0)
(2 -3.17349e-14 0)
(2.12072 -0.261639 0)
(2 -1.73034e-11 0)
(1.94882 0.0825407 0)
(2 -6.29954e-15 0)
(2 -1.26405e-13 0)
(1.82948 0.22904 0)
(1.82952 0.228986 0)
(1.88765 0.162551 0)
(1.84957 0.2073 0)
(2 -1.98694e-14 0)
(2.11769 -0.26109 0)
(2 -2.04418e-13 0)
(2 6.36329e-14 0)
(1.83867 0.220272 0)
(2 1.01337e-13 0)
(2.10762 -0.264832 0)
(2 -3.63896e-14 0)
(2 -9.76289e-14 0)
(2 -5.66807e-14 0)
(1.83137 0.229294 0)
(2 -3.29683e-14 0)
(2 9.7165e-14 0)
(2 -9.83091e-14 0)
(2 -7.07513e-14 0)
(1.89875 0.149238 0)
(2 -8.3843e-14 0)
(1.8459 0.210172 0)
(1.83132 0.227737 0)
(2.11832 -0.264336 0)
(2 -3.59457e-14 0)
(2 -4.70624e-15 0)
(2.12603 -0.258075 0)
(2.13432 -0.266124 0)
(2 -3.34227e-14 0)
(2 -2.11062e-14 0)
(2 -6.69329e-12 0)
(1.88019 0.172584 0)
(1.874 0.180167 0)
(2 1.91653e-14 0)
(2 5.0211e-14 0)
(2 -4.02146e-14 0)
(2 1.87966e-14 0)
(2 1.30001e-13 0)
(2 1.85228e-14 0)
(2 -1.08825e-13 0)
(1.92651 0.11176 0)
(1.8289 0.228259 0)
(1.99094 0.00587021 0)
(2 3.30047e-14 0)
(1.83078 0.2245 0)
(2.12876 -0.263594 0)
(2 -7.27596e-14 0)
(2 -5.30939e-14 0)
(2 1.1328e-13 0)
(1.90655 0.132381 0)
(2 1.37615e-14 0)
(1.96682 0.0544038 0)
(2 -2.09439e-13 0)
(1.84618 0.211274 0)
(1.83206 0.22817 0)
(2 -1.43159e-13 0)
(2.13256 -0.265914 0)
(2 -2.96617e-15 0)
(1.82871 0.228552 0)
(2 3.08915e-14 0)
(2 8.2487e-14 0)
(1.83226 0.228836 0)
(1.84214 0.217591 0)
(2 -1.07791e-13 0)
(1.82727 0.228139 0)
(2 -9.76133e-14 0)
(2.11299 -0.2631 0)
(2 1.17527e-13 0)
(2 -1.65337e-13 0)
(2 1.7926e-13 0)
(1.83102 0.228651 0)
(1.83458 0.225371 0)
(1.85165 0.204742 0)
(2 5.96241e-14 0)
(1.83013 0.228679 0)
(1.8313 0.22892 0)
(2 -4.60551e-14 0)
(1.83079 0.229388 0)
(2 -1.05087e-08 0)
(1.83196 0.228215 0)
(2 -4.33653e-14 0)
(2.10501 -0.269961 0)
(2.00662 -0.0233262 0)
(2.1013 -0.271523 0)
(2 -3.32918e-11 0)
(2 -2.39886e-11 0)
(2 -3.43122e-11 0)
(2 -1.34127e-14 0)
(2 -1.51388e-11 0)
(1.83186 0.229021 0)
(2 -1.57665e-14 0)
(1.83197 0.228905 0)
(2 -3.90056e-11 0)
(2 -9.16059e-11 0)
(2 1.10972e-13 0)
(1.83986 0.220112 0)
(2 1.41236e-14 0)
(2.11048 -0.261004 0)
(1.83114 0.228844 0)
(2 3.61751e-14 0)
(2.10992 -0.265343 0)
(2.10733 -0.246312 0)
(2.1129 -0.264794 0)
(2 7.50951e-14 0)
(1.9149 0.12552 0)
(1.98907 0.0240212 0)
(1.83111 0.229869 0)
(1.83124 0.228982 0)
(2 -7.99793e-15 0)
(2 -3.17817e-07 0)
(2 -1.34641e-07 0)
(2 -2.25107e-14 0)
(1.83141 0.229046 0)
(2 2.85937e-14 0)
(2 5.53129e-15 0)
(1.8314 0.229013 0)
(1.83139 0.228913 0)
(2 -7.78718e-14 0)
(1.94285 0.0867616 0)
(1.99984 0.000697965 0)
(2 1.4184e-13 0)
(2.0012 -0.00200522 0)
(1.83128 0.229206 0)
(2.05649 -0.102281 0)
(2 -1.19569e-07 0)
(2.06809 -0.128486 0)
(2.10433 -0.262528 0)
(2.10652 -0.263756 0)
(2.02447 -0.0717007 0)
(1.82965 0.228551 0)
(1.83392 0.226294 0)
(1.96468 0.0553547 0)
(1.83122 0.229091 0)
(1.83111 0.228838 0)
(2 1.32966e-13 0)
(2 1.8368e-13 0)
(1.82674 0.228638 0)
(1.82889 0.228751 0)
(1.83145 0.228503 0)
(1.82846 0.227196 0)
(2 9.89439e-14 0)
(1.83117 0.228943 0)
(2.10862 -0.264935 0)
(1.83119 0.228306 0)
(1.83034 0.227856 0)
(1.82794 0.228406 0)
(1.83048 0.229301 0)
(2.04135 -0.0884556 0)
(2.03649 -0.080801 0)
(2.0237 -0.0447553 0)
(1.83171 0.228922 0)
(2.01684 -0.024597 0)
(1.83097 0.229056 0)
(2 6.93137e-14 0)
(2 4.44214e-14 0)
(1.83051 0.229821 0)
(1.83128 0.228389 0)
(2 3.42884e-14 0)
(2.11988 -0.26719 0)
(1.83075 0.229 0)
(1.83138 0.228734 0)
(2 -1.42485e-14 0)
(1.83178 0.228656 0)
(1.83152 0.229001 0)
(2 5.97505e-16 0)
(1.83148 0.229128 0)
(2.10907 -0.265803 0)
(1.83144 0.231368 0)
(1.82779 0.228157 0)
(1.82995 0.228822 0)
(1.83185 0.231348 0)
(2 1.52341e-13 0)
(2 1.25903e-13 0)
(2 -1.0229e-07 0)
(1.83154 0.228715 0)
(1.89141 0.160185 0)
(2.12626 -0.244239 0)
(1.83114 0.228708 0)
(2.11338 -0.275501 0)
(1.83163 0.22872 0)
(2 -2.86174e-14 0)
(2 9.6148e-14 0)
(2 -2.70935e-14 0)
(2 -2.5864e-14 0)
(1.83135 0.228463 0)
(1.831 0.228912 0)
(2 -3.23512e-14 0)
(2 -5.04451e-14 0)
(1.83115 0.228967 0)
(2.11643 -0.269097 0)
(1.8311 0.229 0)
(2.10715 -0.26392 0)
(2 2.81305e-15 0)
(1.83268 0.227904 0)
(2 -6.17225e-14 0)
(2.1178 -0.262371 0)
(1.83099 0.229759 0)
(2.09074 -0.193459 0)
(2 -1.07932e-13 0)
(1.83118 0.228855 0)
(1.83041 0.230052 0)
(1.83111 0.22967 0)
(2 -2.24236e-14 0)
(2 -4.94344e-14 0)
(1.92862 0.109419 0)
(1.83061 0.229754 0)
(2.113 -0.266901 0)
(1.83165 0.228823 0)
(2 8.6092e-14 0)
(1.83526 0.229603 0)
(2.04545 -0.089513 0)
(1.83101 0.230044 0)
(2.11567 -0.261091 0)
(2 1.13821e-13 0)
(1.83245 0.228272 0)
(2.09375 -0.235974 0)
(1.83062 0.229774 0)
(2.11105 -0.26519 0)
(2 -1.72144e-13 0)
(1.83135 0.229339 0)
(2 6.58266e-14 0)
(1.83187 0.228873 0)
(2 -1.22277e-13 0)
(1.90297 0.144275 0)
(1.83805 0.222398 0)
(1.86729 0.184562 0)
(2.14437 -0.26905 0)
(2 -1.76859e-13 0)
(1.83158 0.229077 0)
(2 1.2928e-15 0)
(1.83428 0.228982 0)
(2 -1.21959e-07 0)
(1.83206 0.229143 0)
(2 -2.34268e-07 0)
(2 5.95179e-14 0)
(1.83196 0.22936 0)
(2.00659 -0.0121745 0)
(1.8302 0.230178 0)
(2.11572 -0.256438 0)
(1.84573 0.211942 0)
(2 -2.57959e-14 0)
(1.88934 0.171777 0)
(2 -1.90701e-13 0)
(1.83046 0.228996 0)
(1.83206 0.229105 0)
(1.83033 0.228795 0)
(2 -4.11075e-14 0)
(1.8486 0.208837 0)
(1.83134 0.228949 0)
(1.84318 0.215079 0)
(1.8957 0.15017 0)
(1.83703 0.227051 0)
(2 -7.09307e-14 0)
(1.88568 0.163982 0)
(2 -6.18534e-14 0)
(1.83207 0.229062 0)
(2 1.66225e-13 0)
(1.97658 0.0341467 0)
(2 2.75489e-13 0)
(1.84435 0.21403 0)
(2 9.73726e-15 0)
(1.83499 0.229343 0)
(1.83937 0.219986 0)
(1.83942 0.220236 0)
(2 -2.03687e-14 0)
(1.83492 0.228252 0)
(2.13208 -0.267642 0)
(2 -2.40582e-13 0)
(2.10462 -0.266733 0)
(2 -1.05985e-13 0)
(2 -1.53595e-13 0)
(2 5.39001e-14 0)
(1.83074 0.229277 0)
(2 -1.31279e-14 0)
(1.83145 0.228982 0)
(2 -8.54771e-15 0)
(2 7.69951e-14 0)
(2 5.39044e-14 0)
(1.83066 0.229243 0)
(1.84065 0.226443 0)
(1.86475 0.193576 0)
(1.83172 0.228403 0)
(1.83086 0.230128 0)
(2.13972 -0.258608 0)
(1.82768 0.231482 0)
(1.83058 0.228688 0)
(2 3.08088e-14 0)
(1.85837 0.193586 0)
(1.83194 0.228947 0)
(1.84293 0.224609 0)
(2 -2.33114e-13 0)
(1.82819 0.228466 0)
(1.83046 0.229242 0)
(2 -8.44605e-15 0)
(1.829 0.231742 0)
(1.83093 0.229104 0)
(1.83088 0.229127 0)
(1.8311 0.229941 0)
(2 -9.89935e-14 0)
(2 -1.24433e-14 0)
(2 1.71155e-13 0)
(1.82925 0.228656 0)
(2.13027 -0.256684 0)
(2 1.88165e-13 0)
(1.83156 0.228777 0)
(2 1.31599e-13 0)
(2 -8.36462e-14 0)
(2.12014 -0.262157 0)
(2 -5.86792e-14 0)
(2 4.63817e-14 0)
(1.83187 0.22849 0)
(1.83213 0.22895 0)
(2 2.01979e-14 0)
(1.8319 0.229201 0)
(1.83437 0.230982 0)
(1.8318 0.229241 0)
(2.0046 -0.0212534 0)
(1.83143 0.228857 0)
(2 1.99261e-14 0)
(1.83132 0.228972 0)
(1.83179 0.228789 0)
(1.85278 0.191522 0)
(2 1.81525e-13 0)
(2 -1.76032e-13 0)
(2 4.20942e-14 0)
(1.83075 0.229504 0)
(1.83131 0.228823 0)
(1.83181 0.228952 0)
(2.01293 -0.0286712 0)
(2 3.516e-14 0)
(1.82718 0.231182 0)
(1.83144 0.229066 0)
(1.83152 0.228558 0)
(2 -1.48185e-14 0)
(1.83149 0.229089 0)
(1.83175 0.228923 0)
(1.83164 0.228816 0)
(1.82687 0.231638 0)
(2 -6.47354e-14 0)
(1.83185 0.228733 0)
(1.83247 0.228569 0)
(1.85153 0.202444 0)
(1.83222 0.228515 0)
(1.82793 0.231091 0)
(2 -2.83906e-14 0)
(1.83173 0.230776 0)
(1.83391 0.227048 0)
(1.83169 0.228992 0)
(1.83153 0.228882 0)
(1.83227 0.228265 0)
(2.12106 -0.265898 0)
(1.83231 0.228635 0)
(1.83247 0.228541 0)
(2 -2.8656e-14 0)
(1.83135 0.228863 0)
(1.83157 0.228831 0)
(1.83142 0.228625 0)
(1.83198 0.228694 0)
(2 -5.58486e-08 0)
(1.8312 0.229223 0)
(1.83139 0.228773 0)
(2 -1.66339e-07 0)
(1.83159 0.228866 0)
(1.85813 0.197604 0)
(2 1.84661e-14 0)
(2 6.31285e-15 0)
(2 7.39968e-10 0)
(1.83127 0.230663 0)
(1.83149 0.230482 0)
(2 1.1835e-13 0)
(2 7.66489e-14 0)
(1.90854 0.132183 0)
(2 7.30522e-14 0)
(1.82998 0.22834 0)
(2 1.50368e-13 0)
(2 1.28964e-13 0)
(1.83113 0.22879 0)
(1.82786 0.228456 0)
(1.83178 0.228977 0)
(1.83123 0.228907 0)
(2 -5.21391e-14 0)
(2 7.7619e-15 0)
(2 -3.7138e-14 0)
(1.88119 0.167711 0)
(2 2.39667e-13 0)
(1.83115 0.229345 0)
(2 4.08869e-14 0)
(2 1.20627e-13 0)
(1.82788 0.228708 0)
(1.82741 0.228509 0)
(2 8.00378e-15 0)
(1.83188 0.228417 0)
(2.08589 -0.288842 0)
(1.83138 0.229115 0)
(1.83135 0.22968 0)
(2.09011 -0.204387 0)
(2 -1.23509e-13 0)
(2.10411 -0.275992 0)
(1.8503 0.203057 0)
(1.82994 0.230434 0)
(1.83044 0.22795 0)
(1.82951 0.228975 0)
(2.12371 -0.261436 0)
(1.83146 0.229188 0)
(1.83108 0.229499 0)
(2.1266 -0.257072 0)
(2.12662 -0.274256 0)
(2 -2.59898e-07 0)
(1.83419 0.229753 0)
(1.83103 0.229914 0)
(2 7.92238e-14 0)
(2 -3.54214e-14 0)
(1.83123 0.228849 0)
(2 -1.21125e-13 0)
(1.82981 0.231582 0)
(2 2.24199e-06 0)
(1.85118 0.20553 0)
(2 9.53764e-14 0)
(1.92494 0.116087 0)
(1.83174 0.229369 0)
(1.83061 0.230082 0)
(1.8805 0.171404 0)
(1.84122 0.217442 0)
(1.83035 0.229104 0)
(1.83047 0.22922 0)
(1.8435 0.224448 0)
(2 1.61113e-14 0)
(2.12193 -0.262383 0)
(1.83491 0.230674 0)
(1.83155 0.229552 0)
(1.82879 0.230924 0)
(2 6.45066e-06 0)
(2 2.60473e-10 0)
(2 1.54265e-09 0)
(1.82752 0.228886 0)
(2 2.11101e-14 0)
(1.83188 0.228833 0)
(1.83176 0.228914 0)
(2.08035 -0.179885 0)
(2 1.12422e-13 0)
(1.83139 0.228538 0)
(2.00002 -4.29418e-05 0)
(2 -1.45963e-13 0)
(1.99999 1.95546e-05 0)
(1.99998 2.75319e-05 0)
(1.83128 0.229716 0)
(1.83186 0.228566 0)
(2.00055 -0.000883504 0)
(2 -5.32483e-14 0)
(2 5.38753e-14 0)
(1.83195 0.228608 0)
(1.83054 0.229795 0)
(1.83048 0.228719 0)
(1.82977 0.230926 0)
(1.8315 0.228209 0)
(2.10197 -0.252287 0)
(1.85426 0.205129 0)
(2 1.55651e-13 0)
(1.83249 0.227684 0)
(1.83195 0.228949 0)
(1.83151 0.228841 0)
(1.82892 0.233984 0)
(2 -1.01758e-13 0)
(1.83173 0.229306 0)
(1.83628 0.224068 0)
(1.83096 0.229832 0)
(2 4.93591e-14 0)
(1.83056 0.228953 0)
(1.8309 0.22847 0)
(2.04789 -0.0979545 0)
(1.83164 0.229021 0)
(1.8305 0.228968 0)
(2 1.19893e-13 0)
(1.83155 0.228353 0)
(2.05241 -0.110368 0)
(1.83132 0.22875 0)
(2.04878 -0.0955918 0)
(1.83142 0.229086 0)
(2 -1.09421e-07 0)
(1.832 0.228768 0)
(1.82356 0.232425 0)
(1.83213 0.228932 0)
(1.83194 0.229283 0)
(1.83167 0.229045 0)
(1.82794 0.227792 0)
(1.83155 0.229615 0)
(1.82893 0.228148 0)
(2 3.73996e-14 0)
(2.02502 -0.0509042 0)
(1.83142 0.228978 0)
(1.83195 0.228969 0)
(2.05042 -0.10823 0)
(1.83182 0.228934 0)
(2.00537 -0.019542 0)
(1.89581 0.147169 0)
(1.83159 0.229054 0)
(1.83033 0.228738 0)
(1.83141 0.229138 0)
(2 2.077e-13 0)
(1.83019 0.230052 0)
(1.89554 0.148542 0)
(1.83148 0.228792 0)
(2.02141 -0.055134 0)
(1.83066 0.230073 0)
(1.82645 0.232374 0)
(2 3.25795e-14 0)
(2.04283 -0.0848906 0)
(2 -7.49943e-09 0)
(1.8316 0.225703 0)
(2 1.26774e-14 0)
(1.88319 0.167863 0)
(2 4.21147e-09 0)
(1.84395 0.222491 0)
(2.04562 -0.0895296 0)
(2 1.08984e-13 0)
(1.82999 0.22767 0)
(1.82935 0.234032 0)
(2 -4.76239e-14 0)
(1.83097 0.227114 0)
(1.83069 0.230052 0)
(1.83002 0.232458 0)
(1.8316 0.235465 0)
(1.82803 0.23203 0)
(2 5.80789e-14 0)
(1.8276 0.228169 0)
(2 6.62256e-14 0)
(2 -9.08815e-14 0)
(2 -6.95491e-15 0)
(2.03418 -0.06369 0)
(1.83191 0.228626 0)
(1.83186 0.227934 0)
(1.83217 0.227825 0)
(1.8319 0.228501 0)
(1.83205 0.230376 0)
(1.83252 0.228086 0)
(1.834 0.229638 0)
(1.83189 0.229035 0)
(2.03498 -0.0656181 0)
(1.98762 0.0227435 0)
(2 3.32053e-09 0)
(2 1.66507e-13 0)
(1.82483 0.233037 0)
(1.83162 0.228755 0)
(1.83147 0.228894 0)
(1.83166 0.22914 0)
(1.99999 1.63463e-05 0)
(1.91253 0.133897 0)
(2 -1.6398e-07 0)
(1.82923 0.231416 0)
(1.86249 0.203392 0)
(2 -3.47847e-12 0)
(2 -5.20816e-11 0)
(2.08799 -0.191894 0)
(1.83172 0.228878 0)
(2 1.00284e-13 0)
(2 -1.2609e-13 0)
(2.10997 -0.264524 0)
(1.83136 0.229121 0)
(2 4.16406e-14 0)
(1.83006 0.228453 0)
(1.83132 0.22844 0)
(1.83072 0.228921 0)
(1.83814 0.22132 0)
(1.83208 0.228552 0)
(2 -1.94769e-10 0)
(2.13747 -0.26468 0)
(1.95846 0.0671488 0)
(1.83192 0.229426 0)
(1.83217 0.228514 0)
(2 -1.38408e-13 0)
(1.83555 0.229753 0)
(1.8319 0.228553 0)
(1.91816 0.124452 0)
(1.99698 0.0059036 0)
(1.96646 0.0580678 0)
(2 -1.42912e-13 0)
(1.83174 0.229309 0)
(1.83139 0.229283 0)
(2 -1.17221e-07 0)
(2 -2.26705e-10 0)
(2.1438 -0.255573 0)
(2 -2.47213e-10 0)
(2 -5.26206e-14 0)
(1.83207 0.228844 0)
(1.83162 0.228613 0)
(1.83095 0.230662 0)
(1.82964 0.228936 0)
(1.83169 0.228844 0)
(1.82905 0.230746 0)
(1.8314 0.229166 0)
(1.83379 0.228372 0)
(1.8313 0.228866 0)
(2 3.15031e-13 0)
(2.00144 -0.00250739 0)
(1.83151 0.229259 0)
(1.82957 0.228211 0)
(2.0012 -0.00160647 0)
(1.83175 0.228721 0)
(1.83178 0.228667 0)
(2.15808 -0.25808 0)
(2.11744 -0.265324 0)
(1.83359 0.229584 0)
(1.83123 0.230059 0)
(2 8.862e-14 0)
(2 2.67366e-13 0)
(1.99934 0.00163115 0)
(1.83145 0.228433 0)
(1.83019 0.230844 0)
(1.83148 0.229071 0)
(2 1.00267e-09 0)
(1.83184 0.228436 0)
(2 7.31977e-14 0)
(2.04409 -0.0984019 0)
(1.82865 0.231537 0)
(1.83072 0.233451 0)
(2 6.08486e-14 0)
(1.92262 0.117421 0)
(1.83105 0.229004 0)
(2 -7.99584e-14 0)
(1.82917 0.228445 0)
(2 -1.06874e-10 0)
(1.83192 0.22873 0)
(1.88253 0.154808 0)
(1.83078 0.229069 0)
(2 1.4515e-11 0)
(1.83215 0.227934 0)
(1.83414 0.230447 0)
(2.14169 -0.253079 0)
(1.83123 0.229013 0)
(2 -1.26473e-07 0)
(1.83071 0.229152 0)
(1.82882 0.228208 0)
(2 7.03548e-09 0)
(2.15248 -0.25512 0)
(1.83009 0.229882 0)
(1.85271 0.202223 0)
(2.00099 -0.00118275 0)
(1.83394 0.21348 0)
(1.83154 0.228814 0)
(2 -5.20375e-12 0)
(2.00213 -0.00592956 0)
(1.83185 0.228587 0)
(2.00229 -0.00155306 0)
(1.83131 0.2287 0)
(2 -3.69115e-12 0)
(2 1.818e-13 0)
(1.83118 0.228302 0)
(2 2.28392e-13 0)
(1.83159 0.22987 0)
(1.83183 0.228736 0)
(2.00144 -0.00248599 0)
(1.86169 0.198465 0)
(2 3.21114e-09 0)
(1.83164 0.228703 0)
(2 5.89324e-10 0)
(2 -7.70989e-13 0)
(2 1.03739e-11 0)
(2 7.74715e-12 0)
(1.83185 0.229122 0)
(2 7.08421e-09 0)
(2 -1.4399e-13 0)
(1.83416 0.229551 0)
(2 4.96033e-14 0)
(1.83105 0.229033 0)
(2 3.67356e-10 0)
(1.89391 0.155769 0)
(1.8325 0.227496 0)
(1.83166 0.227704 0)
(2 9.7307e-10 0)
(2 -2.71685e-13 0)
(2 -0.00388791 0)
(2 2.57796e-12 0)
(1.83047 0.228949 0)