/*--------------------------------*- C++ -*----------------------------------*\
  =========                 |
  \\      /  F ield         | OpenFOAM: The Open Source CFD Toolbox
   \\    /   O peration     | Website:  https://openfoam.org
    \\  /    A nd           | Version:  12
     \\/     M anipulation  |
\*---------------------------------------------------------------------------*/
FoamFile
{
    format      ascii;
    class       volScalarField;
    location    "0.38";
    object      p;
}
// * * * * * * * * * * * * * * * * * * * * * * * * * * * * * * * * * * * * * //

dimensions      [1 -1 -2 0 0 0 0];

internalField   nonuniform List<scalar> 
22702
(
1
1
0.827688
1
1.05445
1
1.39656
1
1
1.14032
1.47112
1.39567
1
1
0.852362
1
1
1
1.47091
1
1
1
1.37504
0.588975
1
0.919798
1
1.37091
0.628601
0.595751
1
1.39453
1
1
1
1.00001
1
1.37534
1
1
1.13991
1
1.27444
1
1.37212
1
1
1
1
0.594779
1
0.592915
1
1.47181
1
1.39474
1
1
1
1
0.3244
1
1
0.430037
1
0.633597
1
1
1
1.02149
1
1.37261
1.32249
1
1.37146
1.38931
0.624197
1.38445
0.588527
1
1.47252
0.591519
1.38318
1.38182
1
1
1
1
0.90042
1.06176
1.37941
1
1
0.442387
1
1
0.426258
1
1
1
1
1.28669
1.47185
0.818071
1
1
1.1521
1
0.591063
1
1.38379
1.47185
1
1
0.743165
0.762552
1.0864
1
1
1
1
1
0.885445
1
1.07224
1.05972
1.37406
1
1.37441
1.47109
1
1.4734
1
0.877628
1
0.173263
1
1
1
1
1.4715
1
1
1
1
1.36861
1
1.02508
1
1
1
1
0.590776
1
1.01086
1
0.58923
1
1
1
1.37805
1
1.37266
0.703132
0.677413
1.37036
1.3706
1
1.08057
1.30336
1
1.39289
0.587849
1
1
1
1
1
1
1.38633
1
1.47072
0.335646
1.39398
1
0.596378
1
0.594046
0.919052
1
1
1
1.46863
1
1
1.36231
1
1.3851
1.47097
0.611554
1
1
0.587834
1.36024
1
1
1
1.36001
1
0.462476
1
1
1.36695
1.35778
1.38447
1
1
1
1
1
1
1
0.426216
1.38386
1.3613
1
1
1
1
0.578368
1.36044
1.21417
1
1
0.548109
0.479677
1
1.36616
1
1.3478
0.505687
1.01096
1
1
1
1
1.3612
1
1.01513
0.999291
1
1
1.35853
0.195359
0.747844
1
1.35775
0.733797
1.34016
1
1
1
1
1
1
1
0.59259
0.661401
0.447702
1.36856
1
1
1
1
1.3342
1
0.591172
1
0.576122
0.590832
1.3595
0.591742
1
1
1
1
0.999856
0.590487
0.423795
1
1
0.570219
1
1.4712
0.78769
1
1
1.47282
0.503668
1
1.19606
0.624647
1.35774
1
0.582063
0.999795
1
1
1
0.586726
1
1
1
1
1.01391
1.34173
1
0.783385
1
1
1
1
1
1
1
1.47304
1
1.46951
1
1
1
0.581529
1
1.36798
0.584868
1
1
1
1
1.47418
1
1
1
1.36961
1
1
1.45644
1.47374
1
1.13329
1
1
0.177046
1
1
1
0.379142
1
1
1
1
0.82352
1
1
1
1
1
0.351594
1
1.37273
1
1
1.37193
1.36991
1
1
0.614429
0.899579
1.47154
1
1
1
1.35581
1.0103
1
1.37169
1
1
0.657198
0.685876
1
0.581545
0.65246
1
1
1
1
1
1
1
1.37487
1.14426
1.20196
0.339404
0.864582
1.47115
1
1.3698
1.47113
0.413696
0.862944
1
0.426206
1
1.48584
1
1
1
1
1.35922
1
1
1
1
1
1
1
1.17959
1.3774
1
1.36832
1
1
0.592395
1
1
1
1
1.36235
1.32004
1
1
0.579833
1.36212
1.36383
1
1.36515
1.36245
1.36178
1
0.918069
1
1.35416
1.02845
1.36645
1
0.379536
0.999958
1.47234
1
1
1
1
0.594152
1.36426
1.00001
1
1
1.3541
1.47157
1
1.21818
1
1
1
1.28576
0.99999
1.3671
0.931114
1.36412
1
1.3632
1.36751
1.3598
1.36261
1
1.12875
0.901406
0.898272
1
1
1
1
1.27862
1
1
1
1
1
1.47152
1
1
0.99946
1.36512
1.04671
1
1.06927
1
1
1
1.36418
1
0.999259
0.999204
1
1.36581
1
1.36104
1
1
1.29052
1
1.36394
1
1
1.36479
1
1.36457
1
1
1
1.36171
1
1.36602
1
1.35919
1.43661
1.3531
1.37651
1
1.47224
1.30051
1
0.59505
1.3663
1.37788
1
1.36076
1
0.183167
0.489944
1
1
1
1
1
0.441836
1
1.36972
1.08661
1.3635
1
1
1
1
1
1.36675
1
1.3203
1.27245
0.878759
1
1.00001
1.00327
0.999717
1
1
1.21054
1
0.593296
1.36139
1.36506
1
1
1
1.43354
1
1
1
1.36308
0.908575
1
1
0.594927
1.35716
1
1
1
1
1
1.36452
1.47203
1
1.35997
1.35363
1.35735
1
1
1
1
0.942117
1.47108
1
1
1.37494
1.37028
1
1.37124
1.37736
1
1
1
1
1
1.3655
1
1
1
1
1.28821
1
1.11386
0.314499
1
0.792297
1
1
1
0.999409
0.591471
0.999935
1
1
1
1.06187
1
1
0.816828
1
1
1
1
1
1
1
0.999997
0.92015
1
1
0.999784
1
0.594122
1
1
1
1
1.29336
1
1
1
1
0.581919
1
1
1.36569
1.47117
1
1
1
0.895523
1
1
1
1
1
1
0.903394
0.986692
1
1
1
1
1.47275
0.869612
1
1
1
1.37466
1.36712
1
1
1
1
1
1
1
1
1
0.615451
1
1
1.47087
0.447227
1
1.47017
1
0.584115
1
1
0.62813
1
1
1
1
1
1
1
1.33356
1.35788
1
1
1
1
1.37712
1
1.12277
0.588227
1
1
1
1
1
1
1
0.990747
1
1
1.23335
1
1
1
1.1641
1
1
1
1
0.459045
1
1
0.632278
0.451037
1
1
1.35427
1
0.94098
1
1
1
1.30295
0.567782
1
0.556375
1
0.754225
1
1
1
1.47133
1
1
1.35077
1
1
1
1.3499
1
1
1.3524
1
1
0.444715
1
1.14657
1
1
1.4718
1.47098
1.2703
1.32126
1
0.334395
1
1
1.32867
1
0.465768
1
1
1
1.34314
1
1
1
1
1.25969
1
1
1.47499
0.831126
1
1
0.831664
0.912336
1
1
1
1.30258
1.32415
1
1
1
1
1
1
1
1.18661
1.38084
0.966446
1
1
0.759554
1
1
1
1.21843
1
0.999974
1
1.33096
1.331
1
0.403546
1
1.39515
1
1
1.36702
1.33998
1
1.47837
1
0.510993
1
1
1
1.28835
1.3253
1.31533
1
1.47046
1.34938
1
1.34285
1
1.34574
1
0.756666
0.991393
0.571746
1
1
1
1
1
1.35799
1
1.3578
1
1
1
1.36082
1
0.595125
1.3485
1
0.581865
0.610118
0.599231
1
1.19256
1.04698
1.3496
1.34869
1
1
1
1
1.35334
1
1
1.35611
1.35138
1
1.19607
1
1
1
1.37563
0.838678
1
0.800885
0.595135
0.591209
0.870889
1.37181
1.35867
1.08754
1.38008
1.35288
1
1
1.37233
1.46979
1.33598
1.47173
1
1.32938
0.610155
1.47473
1.47019
1.46972
1.47508
0.831632
0.844165
0.889917
1.35463
0.957969
1.46966
1
1
1.33647
1.42106
1
0.435238
1.47118
1.35269
1
1.34365
1.34372
1
1.35094
0.580462
1.48008
1.37534
1.47296
1.48109
1
1
1
1.35301
1.29327
0.665469
1.35068
0.625197
1.35275
1
1
1
1
1.47471
1.35042
1
1
1.34545
0.635437
1.47294
0.591185
1
1.34419
1
1.10476
1.35362
0.680576
1
1.34671
1.34008
1.30972
1
1
1
1.33924
0.588667
1.33818
1
1
0.827999
1.3056
0.67431
1
1.45978
0.672204
1.33869
0.580935
1
1.34894
1
1.37647
1
1.30208
1.36567
1.29853
0.583605
1
1.42016
1
0.999999
1
1.34345
1
1
1.4707
0.995157
1.35432
1.01015
1
1
1.38306
1
1.47195
1.34055
1.47161
1
1.31423
1.43795
1.33566
1.25367
1.45723
1
1.2699
1
1.4725
1
1.04929
1
1.33196
1
1
1.32654
1.32739
1
1
0.700481
1
0.31657
1
1
1
1.38326
1
1.34232
1
1
1
1.34272
1
1
1.4736
1.47383
0.794004
1.46689
1.38459
1
1
1.3373
1
1
1.39325
1.39473
1
1.37076
1.47123
1.47082
1.35485
1
1
1
0.999999
0.766656
1
1.33635
1
1
0.329233
1
1
1.33219
1.43222
1
1.34445
1
1.36938
0.975052
1.35512
1
1.35055
1.33488
1
1
1
1
1.47398
1.42761
1.32085
0.958558
1
1.37307
1.42862
1.36252
1
1.43315
1.47254
1.34033
1.37049
1
1.31265
1.03276
1.32763
1.45781
1.36805
1
1.47933
1.36909
1.32599
1.47675
1.45135
0.883208
1.36653
1.46279
1
1.26952
1.33295
1.32306
1.34041
1
1.30997
1.25908
1
1.35239
1.31291
1
1
1
1.47225
1.48006
1
1
1.22803
1
1
1
1
1.35031
1
1.43507
1.35304
1
1
1
1.26327
1
0.999994
1
1
1.37224
1.37536
1
1.34109
0.516759
1.35195
1.46809
0.595367
1
0.467708
1.32571
1.47645
1
1
0.335937
1.43678
1.34918
0.288357
0.622155
1
1
1.4072
1
1
1.33174
1
1.47339
1
1.32058
1
1.26363
1.41017
1.34809
1.25962
1
1.38342
1.36551
1
1
0.800118
1
1.41081
1.37075
1
1
1
1.47453
1
1.40994
1.35991
0.73477
1
1.33409
0.999939
1
1
1
1.40791
1.36222
1
1
1
0.999999
1.33929
1.00003
1.47111
1.47132
0.541537
1
1
1.32404
1.43192
1.40956
1.4611
1
1.34164
1.37309
1.3466
1
1.47059
1.47336
0.828277
1.33699
1.47147
1
1.00483
0.776678
1.42264
0.862324
1.33741
1
1.11867
1.48669
1.33863
1.34663
1.23071
1.36849
1.34746
1.46892
1
0.937294
1.42007
1.36737
0.78438
1.33523
0.932312
1.25336
1.423
1.37069
1.47555
1
1.3484
1.25595
1.4074
0.885746
1.35337
1.47658
1
0.816643
1
1
1
1.299
1
1
0.857798
1
1
1.43435
1
1.47461
1.35447
1.43139
0.999883
0.999912
1
1.47192
1
1
1
0.892544
1.36233
1.40069
1.44353
1.34121
1.47021
1.43984
1
1.33976
0.919542
1
1
1
1.48331
1.3429
1.3511
1.33785
1
1.23376
1
1.37145
1.41696
1
1
0.788567
1.33986
1
1
0.589666
1.33148
1
1.38394
1.32132
1.38304
1.33072
1.00973
1
0.555225
1.10879
1.47061
1.04511
1
1
1.32879
0.999999
1.01006
1
1
1.37719
1.36291
1
1
0.649128
1
1
1.33793
1.34062
1.44476
0.999997
1.32507
1.47439
1.38127
1
1.368
1
1
1.4707
0.999999
1
1.33314
1.33263
0.704734
0.863433
1
1.00087
1
1
1.00173
1.33842
1.44154
1.33489
1
1.33629
1
0.823417
1.37125
0.999706
1
0.999952
1.36346
1
1.47274
1
1.31757
1
1.38856
1
1.40984
1.21864
0.662395
1.31385
1
1.47141
1.38107
1
0.707193
1.06468
1
1
1
1.34151
1
1.01487
1.47811
1
1.32375
1
1
1.47352
1
1.47624
1.33228
0.996429
1.3709
1
1.34156
1
1
1
1
1.33939
1
1
0.999957
1
1.00039
1
1.33584
1.0027
1.40591
1
1
0.986175
1
1.47087
1.31813
1.47258
1.27028
1.47208
1.02685
1.17652
1
1.33323
1
1
1.08952
1.3415
1
1.40401
0.94505
1
1.31745
1.31684
1.32478
1
1.22516
1
1.32855
1.30269
1
1
1
1
1
1
1.32153
0.537938
0.997887
1
1.35041
1
1
1.34731
1
1.00476
0.648463
1.28922
0.999591
1
0.999999
0.998323
1.00001
1
1
1
1
1.47499
0.999996
1.47292
0.588234
1.39943
1.29343
1.4705
1.11651
1
1
1.16685
1.32463
0.50983
0.592977
1
1.45552
1.35021
1
1
1
1.29438
0.999996
0.999874
1
1
0.51298
1
1
1.47234
1
1
1.33543
1.37426
1
1
1
1.39391
1.37565
1
1
1.44065
1
1
1.41744
1.08341
1.36206
1.3383
1
1
1.40769
1
1
1
1.36551
1
1
0.465054
1.31628
1
1
1
1
1.31514
1.26123
1
1
0.458418
1.00077
1.22502
1
1
1
1.44001
1.47356
1.47013
1
1
1.46674
1
1.34078
1.42552
1
1
1.40046
1.33909
1.35285
1
1
1.38897
1.35685
1
1
1
1.35449
1
1
1
1.46985
1.47413
1.35485
1
1.29928
1
0.751194
1.36111
1.35854
1
1.47397
1
1.38404
1
1
1.35765
1
1
1.36225
1
0.758639
1
1.387
1
1
1.02113
1
1
1
1
1.36273
0.742957
1
1.14206
1
1
1.47259
1
1.36081
1
1
1.32568
1.35685
1
1.00005
1
1
1
1
1
1
1.00023
1.32422
1
1.38385
0.587719
0.999818
1
1.36148
1.46992
1.32614
1.28493
1.4789
1
1
1.03769
1
1.21719
1.36327
1.35309
1
1.35852
1.27614
1
1.43121
1
1.36413
1.27248
1.06285
1
1
1.34186
1.36148
1.35144
1
1.34168
1.35979
1
1.3504
1
1.40338
1
1
1
1
1
1.33728
1.40544
1.40656
1
1.36755
1
1
1
0.71064
1
1.35451
1
1.36739
1.45494
1
1
1
0.999968
1.3728
1
1
1.40821
0.586855
1.09458
1
1.36376
1.3667
1.36089
1.35307
1.36578
1
1.40426
1
1
1
1
1.39912
1.34937
1
1.19273
1.08965
1.42268
1.43262
1
1
1.38396
1
1
0.270367
1.32536
1
1
1
1
1.36058
1.34384
1
1.34658
0.585009
1.43353
1.3039
0.999998
1
0.546045
1
1
1
1.41207
0.999999
1
0.999977
1.36123
1
1.32877
1
1
1
1
1.36108
0.999978
1
1.39907
1
1
1.46702
1
1
1.3668
1
1
1
1.30124
1
1.3165
1
1
1.35675
1
1.31705
1
1
1.12232
1.38133
1
1
1
1
1
1
0.619514
0.548697
1.01991
1
0.997296
1
0.979937
1
1.3557
1
1.27515
1
1.31523
1
1
1
1.32174
1
0.999992
1.40461
1
1.23672
1.3581
1
1
1.38354
1.30787
1
1
1.00357
0.614046
1
1.3508
1
1
1
1
1.03417
1.41121
1
1
1
0.445265
1
1.3184
1.42821
1.48353
1
1
1
1
1
1.4748
1
1
1
1.40402
1
1.01558
1
1
1
1.36379
1
1
0.785626
1.42059
1.00003
1.38619
1.36416
1.41015
1
1
1.40204
1.36744
1.34471
0.441973
1.04049
1.36306
1
1
1
1
1
1.35981
0.591317
1
1
1.34138
1.17335
1
1.40153
1
1
1
0.551139
1
1
1
1.42399
1
1
1.39663
1.36808
1
1.04921
1
1.35451
1
1.36909
0.585968
1
1
1
1
1.32549
1
1
1
1
1.24304
1
1
1
1
1.33441
0.536359
1.12928
1.35226
1
1
1
1
1
1
1
1.47232
1
0.783791
1
1
1.00004
1
0.588764
1
0.999897
1
1
1
0.802987
1
1
0.999984
1
1
0.559002
1
1.47082
1
1.43101
1
1
1
1
1
1
1.3891
1
1
1
1
1
1
1
1
1
1
1
1.25468
1
1.14952
1.36273
1
1
1
0.550486
1
1
1
1
1
1.32881
1.07147
1
1
1.22253
1
1
1.38253
1
1
1
1
1
1.00001
1.41432
0.768374
1
1.39605
0.997183
1
1
1
1.31688
1
1
1.41408
1.32461
1
1
1
1
0.947722
1
1
1
1.29878
1
1.3277
1.35668
1
1.35978
1
1
1
1.19137
1
1.47244
1
1
1
1
0.996331
1
1
1
1
1
1
1.34204
1
1
0.297152
1.34018
0.19388
1
1.39469
1
0.997478
1
1.35538
1.45836
1
1.45901
0.849377
1
1.46058
1.00003
1
1
0.585656
1
1
1
0.999999
1.25752
1
1
1
1
1
0.998143
1.01875
1
0.577303
1
1
1
1
1
1
1
1.36711
1.00324
1.47597
1
1
0.998271
1
0.929084
1
1
1
0.731872
0.928931
1
0.624881
0.554821
1
0.999998
1.34956
1
1.0974
1.32859
0.578108
1.33033
1
1
1
0.57443
1.4699
1
0.565583
1
1.46608
1.02785
1
1
1
1
1
1.41014
1
1
1
1
1
1.40278
1.00064
1
1.34125
1
1.41351
0.974148
1.4754
1.00762
0.577175
1.31603
1
1
1
1
0.883255
1
0.607359
1.02832
0.923794
1
0.948598
1
1
1.1546
1
1
1.46791
1
1.16887
0.999958
1
1
1.36681
1
0.570983
1
0.999943
1
1
1
1.47133
0.950447
1.37687
1
1
1
1
1
1
1
1
1.00039
0.999794
1.3785
1.3825
1
0.583771
1
1
1
1
1.38202
1.00002
1.32793
1
1.47229
1.39146
1.0591
1.47727
1.14017
1.47152
1
1.34625
0.654681
1
1.36529
1.37432
1.0762
1.41121
1
1.30944
1.40289
1
0.88038
1.06275
1
1.36403
1.21959
1.38025
1.00001
1
1
0.736255
1
1.41194
1.32287
1
1.15102
1
1
1
1
1.31567
1.41272
1
1
1
1.04013
1
1.09168
1
1.28324
1
1.35983
1
1
1
1
1
1
1
1
1
1
0.751735
1
1.43109
0.898904
1.28348
0.998615
1
1
1.21487
1.00001
1.34492
1.36315
1
1.00051
1.47617
0.880154
1
1
1.45426
0.971164
1
1.40344
1.37927
1.35865
1
1.33584
1.47151
0.999998
1
1.20789
1
1.00006
1.38239
1
1.47263
1.0405
1.06563
1
1
1.40372
1
0.637602
1
1.38771
1.30109
1.02882
1
1
1.41315
1.3964
0.999007
1
1.36408
0.996829
1.35096
1.00006
1
1
1
1
1.16616
1
1.35927
1.44749
1.30357
1.0001
1
1.00401
1
1
1.4096
1
0.999995
1
1
1
1
0.999999
1
1.05492
1.20902
1
1
0.239822
1
1.00029
0.69959
1.47554
1
1.24632
0.99974
1.47116
1.27502
0.611777
1.27765
1.00003
1.349
1.47519
1
1.29743
1.44074
1.00181
0.998418
1.39696
1
0.521905
1
1
0.99702
1
1.38405
1
0.627218
1.00134
1
1
1.32721
1
1.44419
1
1.46981
1
0.66376
1
1
1.47355
1
1
1
1
1.34271
1.46357
1
1
1.37871
1
0.713347
1
1
1
1.4717
1
1.34746
1.2661
1
1
1
0.999661
1
1
1
1
1
1
0.691949
1
1
1
1
1.47332
1
1
0.598564
0.590946
1
1.35004
1.073
0.585838
0.577762
1
1.28855
1
1.43427
0.371907
1.00138
1
1
0.9995
1
1
1
0.999933
1.14416
1.31862
1
1
1.3556
1.22718
1
1.42355
1
1.3752
1.19215
1
1
1
1
1.45297
1
1.00949
1.13632
0.997217
1.37367
1
1
1
1
1
1
0.918057
1.41069
1.00004
1.00003
0.701091
0.999983
0.336373
0.578844
1
1.37857
1.44127
1.38031
1
1.41554
1
0.586758
1
1
1.02151
0.841646
1.22327
1
1.47356
1
0.950586
1.38751
1
1
1
1.3783
1
1.37365
0.570374
1
1
1.25308
1
1
1.30207
1
1
1.42823
1
1
1
1
1
1
1.31742
1
1.4123
1.00697
0.601496
1.15228
1
1
1
1.33509
0.998982
1
1
1.33899
1
1.30003
1
1.37704
0.607985
1
0.999625
1
1.26506
1.00003
1
1.11187
1.317
1
1
1.33134
0.770625
0.676704
1
1.37464
1
1.37604
1
1.23957
1
1
1.08745
1.27961
0.574456
1
0.998144
1
1
1.02668
1.23214
1.32754
1
1.47263
1
1
1
1
1
1
1.06692
0.58498
1
1
0.96887
1
1
1
1
1
1.37477
1
1
1.4181
1.32479
1.2268
1
1
1
0.790369
1.47555
1.29105
1
1
1
1
1.38352
1
1
1
1.38016
1
1
1.287
1.48654
0.992765
0.721042
1
1.29907
1.46975
1
1.23686
1
1
1
0.395074
1.00263
1.06692
1
0.333008
0.5638
1
0.593736
1
1
1
1.17717
1
1.37589
1.37253
1.00176
1.22784
1
0.676422
0.777527
0.805476
1
1
1.45632
1
1.32578
1.34921
0.838449
1
1.35823
1
1.43935
1
1
1
1.01176
1
1
1
1.41261
1
0.250165
1
1.34004
0.345697
1
1
1.33209
1
1
0.99945
1
1
1.04294
1.4175
1
1.38163
1
1
1.00678
1
1.21153
1
1
0.599354
1
1
1
0.999999
1
1
1.00001
0.493844
1
1
0.356917
1.00089
1
1.46283
0.199057
1.38127
0.495489
1.38602
1
1
1
1
1
1
1
1
1
1
1
1.32728
1
1.36343
1.47175
0.598231
1
1
1
1
1
1
1.34019
1
1
0.59419
1
1
1.46241
1
1
1.16612
1.33104
0.509444
0.561784
0.611325
0.719819
1
1
0.451751
1.00029
1.43928
0.996912
1
1
1.38131
1
1
1
0.719576
1.00001
1.16109
1
1
1.11009
1.33131
1
0.450268
1
1
1
0.996464
1
0.999975
1.33366
1
0.462518
1
1.20249
0.611191
1
0.820578
1
0.995695
0.587058
1
1
1
0.995829
0.953829
1
0.359334
0.999124
1.21503
1.32341
0.367852
0.552901
1
0.991821
1
0.998927
1
1
1
1
0.954082
1.37951
1
1
1
1.33443
1
1
1
1
1.37779
1
1
1.01854
1
0.998591
0.697036
1
1
1
1
1
1
0.987115
1
1
1
1
1
1
1
1
0.59874
1.03942
0.998621
1.45397
1.38071
1
1.01696
1.37835
1
1
1
0.418794
1.36991
1
1.47211
1
1.3151
1.23151
0.595835
1
0.618289
1
0.999756
1
0.587257
0.473896
1
1
1.41706
1
0.999998
0.564176
1
1
1
1.1459
1
0.600074
1.39481
1
1
1
1
0.999999
1
1
1
1.33957
1
1
1
1
0.606247
1
1.41343
1.33974
1
1.31967
0.999999
0.999998
1
1
1.43034
1.02721
1
0.539172
1.04491
1
1
1
1
1
1
1
1
1.00003
1
1.41278
1
1
1
1
1
1
1
1.20735
1
1
1
1
1.34718
1
1
1
1
1
1.02462
1
0.997638
1
1
1
1
1.47152
1
1
1.37466
0.581299
1
1
1
1
1
1
1.31133
1
1
1
1.47241
1
1
1
1.41306
0.99996
1
0.999688
1
1
1
1
1.00001
0.27609
1.02923
0.996121
0.996311
1
1
0.505858
1.47216
1
0.348473
1
0.999985
1.34785
0.529342
0.999413
1.32925
1.41354
1.35873
1
1
0.869634
1
1.38843
0.406971
1
1
1
1
1.35102
0.588425
0.997358
1
1.40559
0.160812
1
1
0.574536
0.991371
1
1
1
1
1
1
1
1
1
1.00011
1.05451
1
1
1
1
1
1
1.33385
1
0.597866
1
1
1
1.1627
1
1
1
1
1
0.760387
1
0.16327
1
1.31013
1.00007
0.83161
0.841493
1
1.0049
1.22925
1
1
0.661228
1.32443
1.32096
1.32584
1
0.598104
0.616995
1
1.3186
1
1
1
1
1
1.00003
1
0.595571
1.25352
1
1
0.507285
0.977234
1
1
1
1
0.597937
1
0.571943
1
1
1.37694
1
1
0.564078
1
1.37748
1
0.702342
1
0.584861
1
1.00736
1
1.38054
1
1
1.46981
1
1
1.03574
0.996756
1
0.998187
1
1.36046
1
0.85777
1.00002
1.47114
0.99889
1
1
0.722181
1
0.999018
0.59154
1.00903
1.09599
1
1.00001
0.944487
1
1
1
0.73143
1
1
1
1.32517
1
0.594507
0.999999
1
1
1
0.577572
1.3762
1.27164
0.593863
1
1
1
1
1
1.47226
1.33359
0.565142
0.997822
1
1
1.32633
1
1
1
1
1.38361
1
1
1
1.3686
1
1
1.34605
0.627181
1
1
1
0.590574
1
0.999999
0.999999
1
1
1
1
1
1
1
1.47277
1.41013
1.37603
1.37947
1.47335
1.31739
1
1.3229
1
1.37194
1
1
1
0.491789
1.32744
0.999898
1
1
1
1
1.05278
1
1.07099
1
1
1
0.793992
1.34428
1.37631
1
1.41821
1
1
1
1.47322
1
0.983808
0.997175
0.440537
1
1.00003
1
1
1
1
1
1.32486
0.59435
1.32316
1.33273
0.994705
0.604713
1
1
1
1.32224
0.319833
1.33493
0.57204
1.37271
1
0.589519
1
1.02384
1
1.35658
0.770106
1
1
0.684954
1
0.230127
1
1.312
1
0.706132
1
1.46725
0.439364
1
0.597581
1
1.37802
1
1
1.34994
1
0.805985
1
0.999684
0.245234
1.34408
0.999484
1
0.420424
1
1
1
1
1.25229
1
0.999996
1
1
1.4893
1
1
1.41503
1
0.283322
1
0.569733
1.00001
1
1
1
1
1.34076
1.27549
1.33694
1
1
1.34583
0.588943
0.475562
1
1
1
1
0.265878
1
0.997217
1
1
1.38267
1
1
0.867977
1.47453
1
0.881473
1
1
1
0.999998
1
1
1
1
1
1
0.739149
0.999374
0.387415
1
1
1
0.999995
1.47197
1.47155
1
1
0.391839
1
1
1
1
1
1
0.999999
1.37868
0.30466
1.35929
1.33233
0.610708
1.4712
1
0.66705
0.993303
1
1
1.31793
0.266868
1.32571
0.337643
1.33424
0.997525
0.598787
1.35745
1
1
1
1
1
1.47094
0.594972
1
1.00002
0.576803
1.00003
1
0.58006
0.648234
1.38073
1
0.998504
1.37812
1
1
0.778933
0.578029
1.33244
1.47322
1
1.30391
1
1
1.37052
1
1.15627
1.47139
1
1
1
1
1.34671
0.999995
1
1
1
1
1.37282
1.39614
1
1.34764
1
1
1
1
1
0.608602
0.810176
0.686951
1
1
1.4725
1
1
1.3666
0.597859
1
1.3707
1.00001
1.35533
0.509684
1
0.363138
1
1
1.47093
1
1.47173
1.32945
1
0.577109
1
1
1.27399
0.627189
1
1
1
0.754884
1
1
1.47239
1
0.486862
1.34019
1
1
1
1
1
1.29815
1.10463
1
1.40968
1
1
1
0.997086
1
1.47179
1.28641
1
1.36238
1
1.47129
1
1.35725
1.37836
1.40251
1
1
0.719416
1.3948
1
1
1.47985
1.30199
1
1
1.3887
1
1
1
1.27551
1
1.13456
1.09839
1.33096
1
0.631998
1
1
1
1
1.00002
1.10554
1
1
1.38695
0.397451
0.999969
1
1.37589
1
1
1
1.41696
1.39477
0.851099
1
0.423452
1
1.04588
1.34975
1.34604
1
1
1
1
0.592326
1
1
1.3492
1.04945
1
1
1
1
1
1
1
0.999934
1.4718
1.00001
1
1
1
1
1.29325
1
1.05747
1
1
1.33759
1.36171
0.581869
0.99878
1
0.999999
1
0.5999
1.47045
1
1
1
1
1
1
1
1
1
1.39626
1.47217
0.769312
1.05108
0.593153
1
0.62778
1
1.47062
1.09421
1
1
0.836808
1
1.35302
0.749532
0.996882
0.583156
1
1
1.47159
1
0.99733
0.563492
1.47028
1.48132
1
1
1
1
1.13005
1
1
1
1
1.45833
1.00005
1
1
0.769261
1
1
1.47373
0.569842
0.716703
0.596361
1.39104
0.999187
1
1
0.370449
0.46899
0.974219
1
1
1.4715
1
1
1
1
1.4711
0.581788
1
1
1.00013
1.45783
1.00015
1.46084
1
1
1
1
0.792151
1
0.753809
1
1
1.33265
0.776754
1
0.720859
0.760559
1
1
1.47331
1
1
1
1.37324
1
1
1.45896
1.47145
0.798357
1.34317
1.2619
1
1
1.46178
1
1
1
1
1
1.47035
1.30473
1
1
1
1.47357
1.0002
1
0.581903
0.64985
1
1.00003
1.17284
1
1
0.869246
0.790104
1
1
1
1.35999
1.32933
1.33486
1
1
1
1
0.151231
1
1.46043
1
1
0.628763
1.46853
1
1
1
0.349219
1
1.46758
1
1
0.635085
1.18751
1
0.999667
1.47297
0.58414
0.651975
1
1.47133
0.660265
0.584837
1
0.663591
1
1
1
1
0.293576
1
1
1
1
1.47141
1
1.31312
0.348271
1
1
1
0.57501
1.35029
1
1
0.996461
1
1
1.30829
1.471
1
1
0.692337
0.33787
1
1
0.578486
1.13971
1.21703
1
1
1.4693
0.997377
1
0.997461
1.47337
1
1
1
1
1
1
1.47443
1
1.1578
1
0.632085
1.34098
1
1
1.38089
1
1
1
0.930103
0.15647
1
1.22468
1
1
1
1
1
0.999999
1
1.00699
1
1
1.32089
1
1.30801
1
1.0584
1
1
0.999711
1
0.510416
1
0.630823
1
1.3439
1.47099
0.467428
1.36944
0.654741
0.996232
1
0.727639
1.34381
1
1
0.998429
1
1
1
1
1
0.217594
1
1
1
1
1
1.3641
0.753269
1
1
1
1.03781
1
1
1
1.25929
0.699877
1
1
1
1.01414
1.39501
1
0.452738
1
0.999995
0.85969
0.847351
1
0.591317
1
1
1.33329
0.998258
1.43626
1
1.00894
1
1
1.43306
1
1
1
1
1
1
1.34431
1
1.3956
0.448019
1.31765
0.99712
1.32291
1
1
0.488257
1
1
0.682811
1.46925
1
1
1
1
1
1
0.569784
0.311261
1
1.39189
1
1.20923
1.35806
0.581414
1.37753
1
1
0.579976
1
1
1.34034
1
1.18196
1
1
1.002
1.47201
0.438207
0.697675
1.4717
1.34
1.3316
1.17991
1
0.91192
1
1
1
1.45677
1.47359
1.47339
1
1
1.47232
0.415536
1.42185
0.569722
1
0.604253
1
0.636744
1.37034
0.573535
1
0.958561
0.694697
1
1
1
0.764563
1
1.37014
1.45197
1.38773
1
1
1.47104
1
1
1.47187
1
0.329189
1
0.785799
1
1.4319
1
1
1.00212
1.30903
1
0.998823
0.313681
1
1.00001
0.757011
1.08555
1
1
1.36358
1.46951
1.38132
1
1
1.10519
1
1
1.33652
1
1
1
1
1.35944
1
0.530797
1.4731
0.574142
0.853353
0.785518
1
1
1
1
1.39153
0.997237
1.00003
1.37333
1.46973
1
1.38777
1
1.35578
1
1.47229
1
1.00004
1.00001
1.4628
0.598846
0.611509
0.997902
0.999999
1
1
0.403658
1
1.27151
1
0.611466
1
1.14765
1.31617
1.46762
1
1
1
0.9994
1
1.47137
1.00925
1
1.17585
1.47034
0.818491
1.00075
1.00044
0.498464
1.01927
0.343017
1
1
1.07525
1.47165
1
1
1.00015
1
1
0.782795
1
0.764346
1
0.999957
1
1
0.48975
1.02834
1.06843
1
1.39115
1.34386
0.777821
0.998115
0.507117
0.42548
0.631151
1
1
1
0.999064
0.626025
0.579557
1
1.33409
0.999741
1.33285
1.34481
1.47133
1
1
0.75189
1.39125
0.679549
1
1.30494
1.36218
0.996702
0.772392
1.32023
1.33999
1
0.536016
1
1
1.47251
1
1.00152
1.47079
1
0.694727
0.311952
1
1
0.645049
0.690933
1.36968
1.00004
1
0.535142
0.455506
1.47079
1.43856
1.35104
1.47415
1.09293
0.9485
1.24127
1.47898
1.17572
1
1.23689
1
0.681904
0.792891
1
0.693779
1.33607
1.02262
1.34608
1
1.37036
1.47064
1
1.41898
1.32796
0.60236
1.35888
1
1.47456
1
0.710298
0.596615
1.3962
1
1
1
0.583896
1.39206
1
1
0.591047
1
1
0.448229
1
0.571268
1.47209
1
0.745177
0.55598
1
1
1.26205
1
1
1
1.07594
0.594143
1
1.00001
1
1.47051
0.575727
1
1.37596
0.837214
0.325739
1
1
1.47915
1
1
1.00001
1.35386
0.591415
1
1
0.325215
0.773031
0.818128
1
1
1
1
1.34421
0.480084
1
0.576587
1
1.20752
1
1
0.969447
1
1
0.742964
0.999674
1.00005
1
0.575739
0.593041
1
1
1
1
0.727745
0.999997
1.47132
1
0.552643
0.384335
0.868729
0.582859
1
0.802257
1
0.711305
0.901165
1
1
0.57912
1
1.30926
1.45619
0.594922
1
1
1
1.47013
1
1.0815
0.819236
1.14732
0.589254
1.18163
0.537891
1
1
0.626181
0.910055
1
1.00765
1
1
0.548034
1
0.898615
1.06295
0.577052
1
1.37641
0.664842
0.890116
1
1
1
0.594588
1
0.584432
0.584303
1
0.877168
0.571169
1.0432
0.654813
0.703914
1.37054
1
1.33522
1.25115
0.685248
1.33664
0.896906
0.999005
1.47126
0.999999
1
1.32267
1
0.692177
1
1.06906
1
1
1.35533
1
0.820946
0.766999
1.47186
0.927246
1
0.710259
1.37459
1.47157
0.916606
1
1.37511
1.12235
0.830827
1
1.05179
1
0.593422
1.07798
0.783679
0.743499
1
1
0.582107
1.308
0.92051
0.579275
0.587663
0.799441
1
0.992641
1.47129
1.3732
1
1
0.999999
0.591737
1.19162
0.99998
1
1.42664
0.48963
1
1.10574
0.867394
1.26701
1.40266
1
1.05925
1
1.00006
0.451698
0.798007
1
1
0.759512
0.47647
1.07035
1
1
0.773873
1.26085
1
1.47485
1
1.04701
1.25473
1
1.46722
1
1
1.46989
1
0.559187
1.47048
0.837256
1.00773
1
0.574357
0.999908
1
1
1
0.788885
1.02738
0.583929
1.18669
1.47132
0.562409
1
1
1
1
1
0.91885
0.703347
1.01437
0.575056
0.533338
1.04039
1
0.999809
1.11974
1
1
0.741993
0.948176
1
1
1.1708
1
1.47293
1
1.4701
1.06197
1.03343
0.584768
1
1
0.771528
1
1
1
1
1
1.04441
1
1
0.572779
1
0.999999
1
1.31345
1
0.415234
1.25592
1
1.00001
1
1.47419
0.493986
0.821887
0.48749
1.28413
1.46983
1
1
1.35189
1
0.567061
1
1
1
1
1
0.729028
1
1.47254
1
1
1.2256
1.47356
0.61632
0.865624
1
1.31036
1
1
1
1
1
1.37785
1.4701
0.690887
1.30651
0.563094
1
1
1.33859
1
1.47074
0.954608
1.02813
1.04313
1.33909
1
1.27862
0.580688
1
0.574863
1.00962
1
1.37559
1
1
0.562236
1.47863
1
1.47004
1
1
1
1
1
1
0.804452
1.47087
0.821
1.36879
1
0.485194
0.59742
0.669594
1.47809
1.31168
0.956046
1
0.860203
1
1.14693
1
1.36925
0.563761
0.575448
0.815828
1
1.43861
1
1.04103
0.609771
1
1.47116
1.42038
0.998868
1
1.4131
0.605711
1.47423
1.3251
1.37315
0.590474
1.10143
1
1
0.574712
1
0.831076
0.8525
1
1
1.34761
1
1.19419
1.09003
1
1.10044
1.47525
1
0.770051
1
0.781853
1
1
1.04534
1
0.767204
1
0.583351
1.03695
0.872627
0.434196
1.29436
1.3711
1.4713
0.577137
0.663178
0.995943
0.999999
1
0.650027
1.34845
0.603426
0.999966
1
1.31721
1.47114
0.865846
1
0.608429
0.671924
1.25748
0.941188
0.569328
0.999999
0.569973
1.12988
0.595253
1
1.00006
0.75592
1.47366
1.41662
0.779117
0.999581
1
1
0.624186
1
0.584305
1
0.571239
0.598959
1
1
1
0.587943
1.33449
1
1
1.00007
1.00004
0.42811
1.39623
1.34838
1
0.583228
1.47015
1
1.11313
1
1
1.46977
0.571131
1
1
0.450189
0.834155
0.59809
0.752091
1
0.595397
0.997265
1.06463
0.580357
1
1
1.12546
1
1.34443
1
1
1.33384
0.721507
1
0.581908
1.09421
1.38987
1
1
0.584686
0.786592
0.581808
0.643058
0.761026
1.2255
0.999403
1
1
1
1
1.42072
0.79649
1
0.969655
1
0.998639
0.999936
0.686293
1.07598
1
1.33903
1.44467
1
1
1.35503
1.00004
0.999999
1.35306
0.581056
1.35938
0.999999
0.568902
1.44795
1.00005
1
0.784705
1
0.593159
1
1.47192
1
1
1.34349
1
1
1.47674
1
1
1
1.4325
1
0.73821
0.701355
1
0.567079
1.32348
1
1
0.940057
1
1.36638
1.25845
1.03002
1
1
0.667566
1
0.696803
1
1.43247
1.47126
1
1.47118
0.595288
1
0.707409
1.33139
1.42803
1.47442
1.47331
0.670505
0.56282
1
1
1.47135
1.43397
1.34269
0.800637
1.2274
1
1.31273
0.846459
1
1
1
1.00002
0.951297
1
1.47545
1
1
1
1
1
1
1.00006
1.35453
1
1.35652
1.3126
0.666012
1.47189
0.995213
1.19524
1
1.30737
1
0.573588
1
1
1
1
1.34016
1
0.576124
1.2977
0.573925
1.39428
1.33242
1.25596
1
1.0281
1.22936
0.998635
0.476613
0.807972
1
0.999999
0.934674
1
0.700931
1.47159
0.687908
0.857052
0.880556
1
1
1
1.01433
1
1
0.215944
0.996691
1.44017
1
1.32972
1
0.580829
1
1
1.34886
0.999954
0.570859
1
1.47076
1
0.846343
0.729921
1.43798
1.33337
1
1.00799
1.41348
1
1
1.19634
1.33614
1.25484
0.99589
1
0.999998
1.32959
1
1
1
1.32572
1
1
1
1.4524
1
1
0.597721
1
1
1
1.443
1
1
0.907788
1.15828
1.34538
0.837745
1
1.39664
1
1.15823
1
1.39062
1
1.35125
1
0.612349
1
1.32459
1
1
1.33368
1.00001
1.42936
1
1.46954
0.665947
0.581021
1.47114
1
1.39721
1
1.47108
1
1
1.00001
1.45339
1
1.13829
1.4577
1
0.501659
1.39776
0.80313
1
1
1
1.36486
1
1.33004
1.46955
1
0.594701
1
1.35296
1
1.00293
1
1
0.99795
0.720197
1.32802
1
1.43022
1
0.924401
0.596948
1.00043
1.35498
0.689188
1
1.39425
1.39381
1.39256
0.696857
1.35543
0.771695
1.47048
1.4751
1
1
1.36788
1
1
1
1
0.595917
1
1
1.47174
1.34915
1
1.30098
1
1.39405
1.46987
1
1.33372
1
0.567805
1.32113
1.3607
1.09672
0.577742
1.33038
1
1
0.571032
1
1
1.36249
1
1
0.823195
1
1.43941
1.00009
1
0.602625
1.41501
1
1.41456
1.34225
0.934288
1
1
0.731755
1.45564
1.28304
1.36739
1.4684
0.997993
1.39818
1.44454
1.35166
1.37272
1
1
0.653742
1
1.43568
0.834937
1.34046
1
1.34556
1
1
1
1
1
1.34375
0.572953
0.585821
1.46408
1.37409
1
1
1
1
1
1.33308
1.41958
1.34579
0.983102
1
1
1
1
1.35292
1.35922
1
1.395
1.47203
0.572727
1.38821
1
0.999999
1.36789
1
0.997892
1.33956
1.39504
1
1.29401
1
1
1
1
1
1
1.44954
1.47136
1.33761
1.34563
0.579818
0.665612
1.33753
1.34728
1
0.619372
0.859876
1
1.22197
0.583678
1
0.999468
0.998287
0.5958
1
1.38894
1
1
1
1.47103
0.897636
1
1.37811
1.36743
1
1.43577
1
1
1.33714
1
0.534106
1
1.4638
1
1
0.575255
1
1.30884
1
0.569595
0.409735
1
1
1
0.567578
0.827106
1
1.3484
1
1
1
1.36376
1
0.719635
1.06234
1.43239
1
1.37583
0.975444
1.34516
1.37411
1
1
1
1
1
1.33981
1
0.99932
1
1
0.566947
1
1.34389
1.23367
1.00868
1.18118
1.12082
1.46243
0.696134
1.33614
1
0.583295
1
1.34692
0.901942
1.34745
1.36863
1.4612
1
1.43048
1.34271
1.33397
1
1.00001
1
1
1.43459
1.27311
1
1
0.576634
1
1
1.3875
1
1.33248
1.43715
1.45505
0.873567
1.38492
1.37459
0.990151
1
1.43258
1.37107
1
1.43576
0.894492
1.46662
1.01698
1.37293
1
1.34447
1.42486
1
0.584805
0.898335
0.604526
1
1.06194
1
1.38604
1
1
0.99659
1
1.19237
1.30312
1
1
1.33171
1
1
1.29707
1
1.34475
1.47016
1.39683
1
1.40245
0.785729
1.40513
1
0.972017
0.659487
1
1
0.633657
1
1.12681
1
1.34645
1
1.34441
1.26032
0.607311
1
1
1
1
1
1.41204
1.01151
1
1.38373
1
1.38186
1.33133
0.999999
1
0.909551
1
0.586468
0.595239
0.655752
1.00482
1
1
0.673107
1.00003
1
1.36616
0.993349
1.34536
1.37905
0.999999
1
1
1
1
1.44409
1.35399
1
1.4686
1
1.42908
1.24869
0.996119
0.999999
1
1
1.27574
1
1.00352
1
1
1
1
1.34641
1
1
1
1
1
1.34475
0.584745
0.996494
1.34511
1.33444
1
1.34005
1
1
1
1
0.71728
1
1.39963
1
1.37946
1.41167
0.918148
1
1.30184
1.10541
1.4704
1.37439
1.02953
1.39574
1
1
1
1
1
1.35253
0.998887
1.29033
1.35288
0.550798
1.00003
1.47538
1
1
1
1
1.3847
1.39289
1
1.37727
1
1
1.33251
1
1.00004
1.46868
1.04179
1
0.998961
1.33144
1
1.45863
1.32941
1
1
1
0.868429
1
1
1.34177
1
1
1
1
1.33411
1
1
1
1
1.33627
1
1.37028
1.38008
0.884151
1
0.703679
1
1.34089
1.23629
1
1
1
1
1
1.472
1.28115
1
1
1
1.36195
1.37932
1.33426
1.36891
0.69829
1
1
1.37501
1
1
1.00002
1.33316
1
1
0.997604
1
1
1.02487
1
1
1
1.19793
0.595582
1
1.31639
1.11761
1.01812
1.37736
1
1.39158
1.37291
1.26919
1
1.44888
1.10834
1.05717
1
1
1
1.33065
1
1.02354
1.47126
1.33514
1.00772
1.37166
1.39775
1.36805
1.3858
1.33623
1
1.32819
1
1
1.34731
1.02663
1
1
1
0.995576
1
1
0.996243
1
1.35785
1.01315
1.36762
1.47203
1.30853
1.13808
1
1.33402
1
0.732227
1
1
1
1.36082
1.36942
1.42004
1
1
1.3924
1.39636
1.37196
1.36075
1
1.34026
1
1.34019
1
1.33079
1
1.39369
1.39397
1.34447
1
1
1.3792
1
1.36367
1.29289
0.999999
1
1
1.20091
0.999999
1.38988
1.35714
1.31427
0.878638
1.33473
1
1.43272
1
1.34297
1
1
1
1
1.33711
0.632369
1.33567
1
1.32239
1
1.24636
1
1.34963
1.35606
1
1
1
1.37765
0.579051
0.565996
1
1
1
1.36729
1.47016
1
1
1
1.31601
0.821712
1.32372
1.36796
1
1
1
1
0.825597
1.37833
1.26827
1.37307
1.09578
1
1
1
1.33038
1.0733
1
1
1
1.34203
1.43323
1
0.999933
1.36773
1.32622
0.80515
1
1.0149
1
1
1.32779
1
1.23952
1
1
1
1
0.577282
1.36709
1
1
1
1
1.37315
1.00005
1
1
1
1.31085
1
1.35263
1
1
1
1.47117
0.580882
1
0.707013
1.04356
0.5941
1.46907
1.31952
0.997497
1
1
1
1.33042
1
1.33684
1
1
0.738806
1.3082
1
1
1
1.321
1
1
0.678615
1.34564
1.08119
1.36393
1.13499
1
1.33357
1
1.26703
1
1
1.30356
1.46888
0.582952
1
1