/*--------------------------------*- C++ -*----------------------------------*\
  =========                 |
  \\      /  F ield         | OpenFOAM: The Open Source CFD Toolbox
   \\    /   O peration     | Website:  https://openfoam.org
    \\  /    A nd           | Version:  12
     \\/     M anipulation  |
\*---------------------------------------------------------------------------*/
FoamFile
{
    format      ascii;
    class       volScalarField;
    location    "0.38";
    object      T;
}
// * * * * * * * * * * * * * * * * * * * * * * * * * * * * * * * * * * * * * //

dimensions      [0 0 0 1 0 0 0];

internalField   nonuniform List<scalar> 
22702
(
1
1
0.948483
1
1.01635
1
1.10416
1
1
1.01436
1.12068
1.10437
1
1
0.95653
1
1
1
1.12049
1
1
1
1.09758
0.868157
1
0.940495
1
1.09672
0.848787
0.870507
1
1.10389
1
1
1
1
1
1.09786
1
1
1.01339
1
1.07297
1
1.09722
1
1
1
1
0.871388
1
0.869443
1
1.1206
1
1.10366
1
1
1
1
0.701289
1
1
0.750934
1
0.874278
1
1
1
0.99907
1
1.0964
1.08432
1
1.09612
1.10113
0.874408
1.10062
0.871391
1
1.12117
0.870651
1.0999
1.09926
1
1
1
1
0.971666
1.0037
1.10069
1
1
0.763243
1
1
0.754492
1
1
1
1
1.07582
1.12086
0.912303
1
1
1.04251
1
0.871431
1
1.10073
1.12043
1
1
0.912253
0.918695
1.00887
1
1
1
1
1
0.967125
1
1.02038
1.0178
1.09813
1
1.09854
1.12067
1
1.12121
1
0.957478
1
0.509425
1
1
1
1
1.12057
1
1
1
1
1.0961
1
1.00717
1
1
1
1
0.869562
1
1.00313
1
0.872417
1
1
1
1.10025
1
1.09651
0.893268
0.870617
1.09586
1.09588
1
1.02347
1.07984
1
1.10216
0.871465
1
1
1
1
1
1
1.09962
1
1.12029
0.690012
1.10267
1
0.871611
1
0.871243
0.940493
1
1
1
1.11975
1
1
1.0938
1
1.10082
1.12046
0.876277
1
1
0.868382
1.09312
1
1
1
1.09301
1
0.768134
1
1
1.09484
1.09246
1.1007
1
1
1
1
1
1
1
0.742586
1.09974
1.09354
1
1
1
1
0.865749
1.09302
1.05773
1
1
0.825963
0.787671
1
1.09421
1
1.08984
0.810575
1.00312
1
1
1
1
1.09335
1
1.0043
0.999797
1
1
1.09247
0.532058
0.920308
1
1.09227
0.867814
1.08809
1
1
1
1
1
1
1
0.870572
0.887846
0.767109
1.09517
1
1
1
1
1.08956
1
0.871818
1
0.865275
0.871326
1.09274
0.867446
1
1
1
1
0.999959
0.868716
0.769621
1
1
0.861619
1
1.12047
0.905541
1
1
1.12125
0.814471
1
1.05316
0.856018
1.09227
1
0.868755
0.999942
1
1
1
0.866867
1
1
1
1
1.00496
1.08876
1
0.926533
1
1
1
1
1
1
1
1.1212
1
1.12055
1
1
1
0.851597
1
1.09595
0.863839
1
1
1
1
1.12114
1
1
1
1.09841
1
1
1.11613
1.12107
1
1.0376
1
1
0.516166
1
1
1
0.710878
1
1
1
1
0.937314
1
1
1
1
1
0.716435
1
1.09643
1
1
1.09618
1.09582
1
1
0.879231
0.971077
1.12052
1
1
1
1.09183
0.995278
1
1.09631
1
1
0.887865
0.899114
1
0.86514
0.879884
1
1
1
1
1
1
1
1.09812
1.04052
1.05464
0.707409
0.96013
1.12089
1
1.09594
1.12014
0.738241
0.959206
1
0.733908
1
1.12513
1
1
1
1
1.0929
1
1
1
1
1
1
1
1.0492
1.09963
1
1.09495
1
1
0.871287
1
1
1
1
1.09355
1.08344
1
1
0.864725
1.09385
1.09404
1
1.09442
1.0939
1.09336
1
0.976683
1
1.09131
1.00931
1.09446
1
0.71738
0.999988
1.1212
1
1
1
1
0.8709
1.09388
1
1
1
1.09136
1.12057
1
1.05998
1
1
1
1.07542
0.999997
1.09484
0.981069
1.09404
1
1.09376
1.09478
1.09294
1.09402
1
1.03561
0.97168
0.970895
1
1
1
1
1.07359
1
1
1
1
1
1.12082
1
1
0.999846
1.09433
1.0132
1
1.01954
1
1
1
1.09461
1
0.999788
0.999773
1
1.09435
1
1.09313
1
1
1.07657
1
1.09377
1
1
1.09395
1
1.09412
1
1
1
1.09353
1
1.09414
1
1.09287
1.1132
1.09117
1.09818
1
1.12097
1.07877
1
0.870953
1.09428
1.09685
1
1.09336
1
0.52052
0.800921
1
1
1
1
1
0.752927
1
1.09541
1.02484
1.09428
1
1
1
1
1
1.09468
1
1.08341
1.07214
0.963859
1
1
1.00093
0.999918
1
1
1.05736
1
0.874892
1.0932
1.09408
1
1
1
1.11234
1
1
1
1.09358
0.97409
1
1
0.871136
1.0922
1
1
1
1
1
1.09412
1.12088
1
1.09279
1.09125
1.09216
1
1
1
1
0.947065
1.12021
1
1
1.09635
1.09515
1
1.09551
1.09972
1
1
1
1
1
1.09422
1
1
1
1
1.07572
1
1.03158
0.66706
1
0.902625
1
1
1
0.999831
0.869527
0.999982
1
1
1
1.01781
1
1
0.944886
1
1
1
1
1
1
1
0.999999
0.97757
1
1
0.999938
1
0.870839
1
1
1
1
1.07724
1
1
1
1
0.863153
1
1
1.09414
1.12024
1
1
1
0.970079
1
1
1
1
1
1
0.972412
0.997139
1
1
1
1
1.11896
0.962061
1
1
1
1.09785
1.0957
1
1
1
1
1
1
1
1
1
0.863227
1
1
1.11986
0.75611
1
1.11956
1
0.867842
1
1
0.866669
1
1
1
1
1
1
1
1.08672
1.09232
1
1
1
1
1.09683
1
1.03449
0.867203
1
1
1
1
1
1
1
0.998303
1
1
1.06368
1
1
1
1.04593
1
1
1
1
0.754055
1
1
0.876116
0.74932
1
1
1.09138
1
0.99037
1
1
1
1.07948
0.850959
1
0.84593
1
0.923898
1
1
1
1.11879
1
1
1.09035
1
1
1
1.09014
1
1
1.09085
1
1
0.75743
1
1.04071
1
1
1.12084
1.12089
1.07159
1.08396
1
0.681394
1
1
1.0855
1
0.787324
1
1
1
1.08854
1
1
1
1
1.06905
1
1
1.11948
0.941674
1
1
0.917389
0.937006
1
1
1
1.07932
1.08442
1
1
1
1
1
1
1
1.05093
1.09946
0.991288
1
1
0.927904
1
1
1
1.05891
1
0.999993
1
1.08611
1.08622
1
0.73519
1
1.10356
1
1
1.09528
1.08833
1
1.12237
1
0.787635
1
1
1
1.07573
1.08478
1.08241
1
1.11902
1.09009
1
1.08847
1
1.08966
1
0.875711
0.998503
0.848613
1
1
1
1
1
1.09238
1
1.09233
1
1
1
1.0931
1
0.87055
1.08985
1
0.862475
0.869104
0.864604
1
1.05244
1.01422
1.09047
1.08992
1
1
1
1
1.09121
1
1
1.09188
1.09056
1
1.05377
1
1
1
1.09964
0.951956
1
0.93951
0.875221
0.873625
0.968437
1.0964
1.09264
1.02518
1.09735
1.0909
1
1
1.09825
1.1199
1.08693
1.12139
1
1.08583
0.870811
1.11946
1.11876
1.11921
1.11924
0.949924
0.953813
0.968268
1.0914
0.988892
1.11829
1
1
1.08745
1.10746
1
0.742464
1.11894
1.09088
1
1.08882
1.08885
1
1.09067
0.861385
1.12049
1.09847
1.12097
1.12099
1
1
1
1.09098
1.07714
0.884902
1.09031
0.871947
1.09096
1
1
1
1
1.11935
1.09023
1
1
1.08908
0.875295
1.11895
0.87093
1
1.08922
1
1.00275
1.09094
0.896872
1
1.08945
1.08782
1.08072
1
1
1
1.08762
0.869123
1.08736
1
1
0.948364
1.07976
0.887935
1
1.11595
0.893726
1.088
0.86521
1
1.08987
1
1.09862
1
1.07959
1.09413
1.07847
0.853845
1
1.10716
1
1
1
1.08858
1
1
1.11851
0.999834
1.09112
0.977507
1
1
1.09814
1
1.11894
1.0879
1.11882
1
1.08229
1.11134
1.08732
1.06756
1.11448
1
1.07149
1
1.11891
1
1.01473
1
1.08627
1
1
1.08502
1.08529
1
1
0.884927
1
0.666902
1
1
1
1.10135
1
1.08831
1
1
1
1.08844
1
1
1.11908
1.11906
0.900786
1.11731
1.10144
1
1
1.08714
1
1
1.10249
1.10401
1
1.09637
1.11871
1.11864
1.09123
1
1
1
1
0.919513
1
1.08695
1
1
0.703693
1
1
1.08598
1.10994
1
1.08881
1
1.09584
0.993882
1.09162
1
1.09058
1.08663
1
1
1
1
1.11916
1.10902
1.08339
0.988943
1
1.0972
1.10923
1.09395
1
1.11023
1.11888
1.08791
1.0961
1
1.08144
1.00932
1.08687
1.11555
1.09546
1
1.12024
1.0949
1.08458
1.11963
1.11411
0.905528
1.09518
1.11662
1
1.0712
1.0862
1.08399
1.08798
1
1.0808
1.06868
1
1.09083
1.08185
1
1
1
1.11888
1.12071
1
1
1.06129
1
1
1
1
1.09033
1
1.11062
1.09094
1
1
1
1.07246
1
0.999998
1
1
1.0986
1.09858
1
1.08802
0.825277
1.0909
1.11768
0.859332
1
0.798707
1.08741
1.11969
1
1
0.692508
1.11108
1.09008
0.643778
0.871739
1
1
1.10432
1
1
1.08592
1
1.11902
1
1.08367
1
1.07039
1.10513
1.08967
1.07295
1
1.10136
1.0949
1
1
0.925579
1
1.10533
1.09635
1
1
1
1.11985
1
1.10515
1.09294
0.916887
1
1.08649
0.999983
1
1
1
1.10449
1.09407
1
1
1
1
1.08763
1.00001
1.11864
1.11861
0.837174
1
1
1.08447
1.10991
1.10513
1.11587
1
1.08816
1.0959
1.08933
1
1.11861
1.11902
0.948689
1.08707
1.11886
1
1.00138
0.931265
1.1078
0.959707
1.08718
1
1.03305
1.12393
1.08745
1.08932
1.06155
1.09587
1.08952
1.11885
1
0.982652
1.10714
1.0949
0.933807
1.08665
0.981155
1.06871
1.10787
1.09589
1.11944
1
1.08976
1.06816
1.10429
0.967071
1.0909
1.1206
1
0.944702
1
1
1
1.07881
1
1
0.958118
1
1
1.11036
1
1.11966
1.0916
1.10965
0.999967
0.999975
1
1.1208
1
1
1
0.969122
1.09377
1.10285
1.11251
1.08805
1.11779
1.11171
1
1.08772
0.977299
1
1
1
1.12443
1.08844
1.09036
1.08727
1
1.06325
1
1.09657
1.10607
1
1
0.934517
1.08779
1
1
0.865638
1.08576
1
1.10074
1.08352
1.10139
1.08617
1.00277
1
0.839243
1.03082
1.11846
1.01281
1
1
1.0852
1
1.0028
1
1
1.09896
1.0937
1
1
0.858216
1
1
1.08729
1.08792
1.11265
0.999999
1.08424
1.12024
1.09763
1
1.09485
1
1
1.11844
1
1
1.08621
1.08611
0.892456
0.955963
1
1.00025
1
1
1.00049
1.0875
1.11189
1.08657
1
1.08693
1
0.94719
1.09654
0.999916
1
0.999986
1.09433
1
1.11996
1
1.08261
1
1.09975
1
1.10503
1.05864
0.855316
1.08172
1
1.11857
1.09934
1
0.89067
1.01819
1
1
1
1.08818
1
1.00534
1.11988
1
1.08413
1
1
1.11912
1
1.1196
1.08603
0.998979
1.09598
1
1.08819
1
1
1
1
1.08765
1
1
0.999988
1
1.00011
1
1.08753
1.00077
1.10407
1
1
0.997103
1
1.11866
1.08275
1.11883
1.07147
1.11882
1.00766
1.0483
1
1.08631
1
1
1.02508
1.08823
1
1.10357
0.985037
1
1.08258
1.08237
1.08423
1
1.06008
1
1.0851
1.07913
1
1
1
1
1
1
1.08353
0.835093
0.999396
1
1.0903
1
1
1.08949
1
1.00135
0.877056
1.07629
0.999883
1
1
0.999521
1
1
1
1
1
1.11983
0.999999
1.11925
0.866097
1.10242
1.07688
1.11854
1.03239
1
1
1.04591
1.08414
0.821146
0.866899
1
1.11529
1.0903
1
1
1
1.07708
0.999999
0.999964
1
1
0.821628
1
1
1.12101
1
1
1.08674
1.09773
1
1
1
1.10108
1.09939
1
1
1.11162
1
1
1.1068
1.00619
1.09369
1.0874
1
1
1.10456
1
1
1
1.09497
1
1
0.798615
1.08223
1
1
1
1
1.08217
1.06973
1
1
0.782107
1.00022
1.0608
1
1
1
1.11106
1.11999
1.11911
1
1
1.11709
1
1.08808
1.10851
1
1
1.10208
1.08765
1.09229
1
1
1.0995
1.0923
1
1
1
1.09173
1
1
1
1.11834
1.12
1.09127
1
1.07835
1
0.920981
1.09334
1.09261
1
1.12017
1
1.10148
1
1
1.09248
1
1
1.09408
1
0.901417
1
1.09913
1
1
1.00602
1
1
1
1
1.09423
0.917763
1
1.03929
1
1
1.11884
1
1.09317
1
1
1.08444
1.09212
1
1.00002
1
1
1
1
1
1
1.00007
1.0841
1
1.10055
0.860501
0.999948
1
1.09332
1.11829
1.08454
1.07499
1.12254
1
1
1.0107
1
1.06155
1.09369
1.09096
1
1.09251
1.07312
1
1.10883
1
1.09388
1.07244
1.01777
1
1
1.09186
1.09325
1.09044
1
1.08818
1.09245
1
1.0902
1
1.10352
1
1
1
1
1
1.08716
1.10396
1.1037
1
1.09551
1
1
1
0.898067
1
1.09155
1
1.09478
1.11483
1
1
1
0.999991
1.09866
1
1
1.10453
0.859659
1.02714
1
1.09385
1.09479
1.09329
1.09127
1.09445
1
1.10352
1
1
1
1
1.10232
1.09011
1
1.05207
1.02577
1.1079
1.10949
1
1
1.09858
1
1
0.621778
1.08536
1
1
1
1
1.09264
1.08909
1
1.08964
0.859596
1.11035
1.07931
0.999999
1
0.826486
1
1
1
1.10559
1
1
0.999993
1.09354
1
1.08515
1
1
1
1
1.09343
0.999994
1
1.10178
1
1
1.11666
1
1
1.09524
1
1
1
1.07868
1
1.08228
1
1
1.09202
1
1.0824
1
1
1.0343
1.09842
1
1
1
1
1
1
0.867572
0.833816
1.00557
1
1.0004
1
0.995203
1
1.09178
1
1.07397
1
1.08198
1
1
1
1.08351
1
0.999998
1.10376
1
1.06329
1.09207
1
1
1.10115
1.08025
1
1
1.00199
0.86706
1
1.09048
1
1
1
1
1.00974
1.10551
1
1
1
0.741307
1
1.08273
1.10902
1.12223
1
1
1
1
1
1.12001
1
1
1
1.10322
1
1.00536
1
1
1
1.09452
1
1
0.908757
1.10726
1.00001
1.09925
1.0938
1.10474
1
1
1.10276
1.09452
1.08891
0.748451
1.01155
1.09415
1
1
1
1
1
1.0931
0.863844
1
1
1.08813
1.04745
1
1.10262
1
1
1
0.842756
1
1
1
1.10804
1
1
1.1015
1.09461
1
1.01477
1
1.09147
1
1.0959
0.859293
1
1
1
1
1.08439
1
1
1
1
1.06489
1
1
1
1
1.08652
0.834238
1.03596
1.09079
1
1
1
1
1
1
1
1.11856
1
0.933898
1
1
1.00001
1
0.854504
1
0.999971
1
1
1
0.891507
1
1
0.999996
1
1
0.812247
1
1.119
1
1.1091
1
1
1
1
1
1
1.1012
1
1
1
1
1
1
1
1
1
1
1
1.06767
1
1.04125
1.09412
1
1
1
0.839444
1
1
1
1
1
1.08512
1.02084
1
1
1.06036
1
1
1.09881
1
1
1
1
1
1
1.10614
0.928337
1
1.10109
0.999193
1
1
1
1.08292
1
1
1.10596
1.08415
1
1
1
1
0.91835
1
1
1
1.07961
1
1.0849
1.0917
1
1.09267
1
1
1
1.05235
1
1.12067
1
1
1
1
0.998951
1
1
1
1
1
1
1.08841
1
1
0.647429
1.08798
0.530159
1
1.1011
1
0.999279
1
1.09141
1.11549
1
1.11577
0.955784
1
1.11595
1.00001
1
1
0.860174
1
1
1
1
1.06839
1
1
1
1
1
0.999469
1.00535
1
0.855667
1
1
1
1
1
1
1
1.09512
1.00092
1.11916
1
1
0.999506
1
0.980081
1
1
1
0.849458
0.98013
1
0.87527
0.842515
1
0.999999
1.09001
1
1.02726
1.08507
0.856167
1.08718
1
1
1
0.854458
1.11841
1
0.85068
1
1.11723
1.00882
1
1
1
1
1
1.10665
1
1
1
1
1
1.10464
1.00018
1
1.08881
1
1.10676
0.993361
1.11944
1.00218
0.85575
1.08235
1
1
1
1
0.904012
1
0.863651
1.00805
0.978432
1
0.986153
1
1
1.04298
1
1
1.1179
1
1.0467
0.999988
1
1
1.09549
1
0.852605
1
0.999984
1
1
1
1.11883
0.986369
1.09873
1
1
1
1
1
1
1
1
1.00011
0.999941
1.0978
1.0986
1
0.862796
1
1
1
1
1.09836
1.00001
1.08494
1
1.11875
1.10048
1.01688
1.12025
1.03892
1.11881
1
1.08992
0.886936
1
1.09415
1.09665
1.02227
1.10663
1
1.08061
1.10322
1
0.96523
1.0176
1
1.09384
1.0594
1.09811
1
1
1
0.91602
1
1.10651
1.08403
1
1.04181
1
1
1
1
1.0821
1.10643
1
1
1
1.0114
1
1.02559
1
1.07461
1
1.0925
1
1
1
1
1
1
1
1
1
1
0.920713
1
1.1101
0.902616
1.07504
0.999604
1
1
1.0579
1
1.08961
1.09419
1
1.00014
1.11977
0.965427
1
1
1.11493
0.99242
1
1.10328
1.09798
1.09218
1
1.08685
1.11864
0.999999
1
1.05612
1
1.00002
1.0985
1
1.11883
1.01154
1.01844
1
1
1.10326
1
0.878873
1
1.1
1.07886
1.00829
1
1
1.10686
1.10151
0.999716
1
1.09437
0.999093
1.09059
1.00001
1
1
1
1
1.04563
1
1.09281
1.11333
1.07947
1.00003
1
1.00099
1
1
1.10569
1
0.999999
1
1
1
1
1
1
1.01547
1.05646
1
1
0.590738
1
1.00008
0.901984
1.11961
1
1.06665
0.999926
1.11877
1.07303
0.874659
1.0737
1.00001
1.09
1.11934
1
1.07845
1.11183
1.00051
0.999548
1.10154
1
0.827908
1
1
0.999111
1
1.09871
1
0.880306
1.00038
1
1
1.08555
1
1.11254
1
1.11837
1
0.890246
1
1
1.11904
1
1
1
1
1.08843
1.11714
1
1
1.09735
1
0.912826
1
1
1
1.11887
1
1.08952
1.07045
1
1
1
0.999903
1
1
1
1
1
1
0.900899
1
1
1
1
1.11899
1
1
0.865391
0.862458
1
1.09022
1.0204
0.860969
0.862606
1
1.07567
1
1.1105
0.727134
1.00041
1
1
0.999857
1
1
1
0.999981
1.04034
1.08277
1
1
1.09148
1.06092
1
1.10818
1
1.09764
1.05271
1
1
1
1
1.11468
1
1.00271
1.03762
0.999203
1.0961
1
1
1
1
1
1
0.977055
1.10674
1.00001
1.00001
0.889915
0.999994
0.670671
0.844584
1
1.09819
1.11212
1.0981
1
1.10624
1
0.86167
1
1
1.00613
0.952995
1.05969
1
1.11897
1
0.986596
1.10001
1
1
1
1.09715
1
1.09686
0.852512
1
1
1.06732
1
1
1.07944
1
1
1.10918
1
1
1
1
1
1
1.08249
1
1.1059
1.00199
0.86592
1.04242
1
1
1
1.08681
0.99971
1
1
1.08757
1
1.0799
1
1.09796
0.868889
1
0.999891
1
1.0701
1.00001
1
1.03102
1.08258
1
1
1.08572
0.928217
0.831578
1
1.09709
1
1.09672
1
1.06439
1
1
1.02485
1.07373
0.854555
1
0.999466
1
1
1.00763
1.06257
1.08485
1
1.11896
1
1
1
1
1
1
1.01901
0.859383
1
1
0.991795
1
1
1
1
1
1.0964
1
1
1.10671
1.0842
1.06098
1
1
1
0.939134
1.11934
1.07647
1
1
1
1
1.09888
1
1
1
1.09755
1
1
1.07537
1.12209
0.998844
0.914711
1
1.07834
1.11875
1
1.06376
1
1
1
0.741678
1.00071
0.981888
1
0.700128
0.849886
1
0.862728
1
1
1
1.04887
1
1.09775
1.09586
1.0005
1.06218
1
0.829286
0.931143
0.94078
1
1
1.11647
1
1.08446
1.09037
0.952205
1
1.09244
1
1.11156
1
1
1
1.00328
1
1
1
1.10613
1
0.601605
1
1.0878
0.690475
1
1
1.08594
1
1
0.999814
1
1
1.01222
1.10699
1
1.09982
1
1
1.00194
1
1.05791
1
1
0.865059
1
1
1
1
1
1
1
0.767862
1
1
0.730338
1.00031
1
1.1175
0.542644
1.0978
0.811487
1.09941
1
1
1
1
1
1
1
1
1
1
1
1.08535
1
1.0938
1.1201
0.864717
1
1
1
1
1
1
1.08887
1
1
0.864328
1
1
1.11757
1
1
1.04645
1.08594
0.816149
0.82241
0.868143
0.911055
1
1
0.780935
1.00012
1.11144
0.999117
1
1
1.09864
1
1
1
0.910719
1
1.04402
1
1
1.0309
1.08579
1
0.778086
1
1
1
0.998987
1
0.999993
1.08631
1
0.794541
1
1.05524
0.867001
1
0.945808
1
0.99873
0.859812
1
1
1
0.998794
0.918419
1
0.722992
0.99975
1.05822
1.08449
0.718979
0.843634
1
0.997547
1
0.999693
1
1
1
1
0.987414
1.09825
1
1
1
1.08649
1
1
1
1
1.09698
1
1
1.00531
1
0.999598
0.901845
1
1
1
1
1
1
0.997248
1
1
1
1
1
1
1
1
0.864774
1.01199
0.999606
1.11515
1.09775
1
1.0047
1.09798
1
1
1
0.762389
1.09595
1
1.1199
1
1.08206
1.06262
0.864449
1
0.870573
1
0.99993
1
0.860348
0.788334
1
1
1.10582
1
1
0.85027
1
1
1
1.04028
1
0.865324
1.10131
1
1
1
1
1
1
1
1
1.08787
1
1
1
1
0.868063
1
1.106
1.08776
1
1.08326
1
0.999999
1
1
1.10931
1.00872
1
0.793599
1.01276
1
1
1
1
1
1
1
1
1.00001
1
1.10646
1
1
1
1
1
1
1
1.05617
1
1
1
1
1.0895
1
1
1
1
1
1.00697
1
0.999325
1
1
1
1
1.12013
1
1
1.09718
0.858298
1
1
1
1
1
1
1.08156
1
1
1
1.11916
1
1
1
1.10609
0.999989
1
0.999916
1
1
1
1
1
0.626734
1.00833
0.998891
0.998943
1
1
0.818848
1.11909
1
0.703436
1
0.999996
1.08979
0.827436
0.999832
1.08524
1.10637
1.0927
1
1
0.961781
1
1.09933
0.744017
1
1
1
1
1.09052
0.8604
0.999245
1
1.10419
0.494075
1
1
0.85593
0.998619
1
1
1
1
1
1
1
1
1
1.00003
1.01561
1
1
1
1
1
1
1.08635
1
0.864374
1
1
1
1.045
1
1
1
1
1
0.925347
1
0.496864
1
1.08078
1.00002
0.949351
0.952554
1
1.00138
1.06174
1
1
0.884936
1.08413
1.08334
1.08449
1
0.864398
0.871862
1
1.08276
1
1
1
1
1
1.00001
1
0.868793
1.06729
1
1
0.816314
0.994636
1
1
1
1
0.864184
1
0.850372
1
1
1.09676
1
1
0.849947
1
1.09773
1
0.834172
1
0.860671
1
1.0021
1
1.09916
1
1
1.11935
1
1
1.01103
0.999072
1
0.999482
1
1.09299
1
0.902036
1
1.12138
0.999699
1
1
0.911475
1
0.99972
0.861092
1.00258
1.02749
1
1
0.985016
1
1
1
0.915022
1
1
1
1.08462
1
0.864537
1
1
1
1
0.85872
1.09753
1.07204
0.861938
1
1
1
1
1
1.11952
1.08651
0.851796
0.999379
1
1
1.08462
1
1
1
1
1.09857
1
1
1
1.09581
1
1
1.0893
0.867312
1
1
1
0.865099
1
1
1
1
1
1
1
1
1
1
1.11982
1.10536
1.09867
1.0981
1.11917
1.0825
1
1.08377
1
1.09629
1
1
1
0.806653
1.08503
0.999971
1
1
1
1
1.0158
1
1.01997
1
1
1
0.939512
1.08891
1.09683
1
1.10753
1
1
1
1.11913
1
0.996132
0.999192
0.732593
1
1.00001
1
1
1
1
1
1.08426
0.86341
1.08387
1.08608
0.998464
0.865187
1
1
1
1.08372
0.702408
1.08684
0.85627
1.09654
1
0.863505
1
1.00681
1
1.09176
0.930041
1
1
0.883386
1
0.573134
1
1.08124
1
0.908367
1
1.1183
0.733814
1
0.86542
1
1.09805
1
1
1.09048
1
0.941082
1
0.99991
0.58898
1.08909
0.999853
1
0.773494
1
1
1
1
1.06893
1
0.999999
1
1
1.12265
1
1
1.10631
1
0.63442
1
0.853079
1
1
1
1
1
1.08817
1.0733
1.08703
1
1
1.08932
0.86034
0.793127
1
1
1
1
0.617113
1
1.00033
1
1
1.09859
1
1
0.919358
1.11894
1
0.920284
1
1
1
0.999999
1
1
1
1
1
1
0.908512
0.999822
0.760241
1
1
1
0.999999
1.11889
1.11949
1
1
0.741837
1
1
1
1
1
1
1
1.0981
0.679754
1.09277
1.08597
0.868893
1.11932
1
0.891043
0.999327
1
1
1.08271
0.648759
1.08504
0.713862
1.08641
0.999294
0.86464
1.09192
1
1
1
1
1
1.11942
0.864811
1
1.00001
0.856819
1.00001
1
0.854162
0.822343
1.09782
1
0.999572
1.0979
1
1
0.931769
0.856607
1.08601
1.12025
1
1.07929
1
1
1.09602
1
1.04287
1.11948
1
1
1
1
1.08955
0.999999
1
1
1
1
1.09816
1.10256
1
1.08978
1
1
1
1
1
0.868593
0.942544
0.870099
1
1
1.11897
1
1
1.09534
0.864296
1
1.09604
1
1.09155
0.822393
1
0.723184
1
1
1.11971
1
1.12015
1.08559
1
0.836278
1
1
1.07268
0.843596
1
1
1
0.923438
1
1
1.11978
1
0.789308
1.08783
1
1
1
1
1
1.07844
1.02911
1
1.10524
1
1
1
0.999137
1
1.11874
1.07524
1
1.09343
1
1.11994
1
1.09228
1.09737
1.10268
1
1
0.849242
1.10309
1
1
1.12058
1.07885
1
1
1.10037
1
1
1
1.07263
1
1.0373
1.02783
1.08571
1
0.875669
1
1
1
1
1.00001
1.02934
1
1
1.10088
0.755762
0.999988
1
1.09735
1
1
1
1.10563
1.10348
0.955746
1
0.784151
1
1.01397
1.09015
1.08922
1
1
1
1
0.861593
1
1
1.09001
1.01414
1
1
1
1
1
1
1
0.999981
1.11934
1
1
1
1
1
1.07764
1
1.01619
1
1
1.08719
1.09385
0.860865
0.999652
1
1
1
0.867009
1.11947
1
1
1
1
1
1
1
1
1
1.10241
1.11825
0.872332
1.01457
0.867534
1
0.876269
1
1.11841
1.027
1
1
0.947032
1
1.09108
0.921424
0.999086
0.858112
1
1
1.11968
1
0.99923
0.852136
1.11954
1.12094
1
1
1
1
1.03639
1
1
1
1
1.11637
1.00002
1
1
0.905612
1
1
1.1191
0.852574
0.909164
0.868851
1.10103
0.999768
1
1
0.726324
0.768271
0.993713
1
1
1.11992
1
1
1
1
1.12
0.860879
1
1
1.00004
1.11641
1.00004
1.1165
1
1
1
1
0.933263
1
0.924941
1
1
1.08626
0.906258
1
0.910968
0.929398
1
1
1.11902
1
1
1
1.09672
1
1
1.11548
1.12
0.938348
1.08852
1.06941
1
1
1.11758
1
1
1
1
1
1.11911
1.0795
1
1
1
1.11907
1.00006
1
0.857752
0.882382
1
1.00001
1.04771
1
1
0.961559
0.890166
1
1
1
1.09332
1.08554
1.08664
1
1
1
1
0.480142
1
1.1174
1
1
0.869655
1.11771
1
1
1
0.712631
1
1.11825
1
1
0.842561
1.05136
1
0.999905
1.12033
0.86027
0.853604
1
1.11955
0.887697
0.859086
1
0.872058
1
1
1
1
0.671578
1
1
1
1
1.11982
1
1.08198
0.72195
1
1
1
0.853488
1.09038
1
1
0.998987
1
1
1.08038
1.11911
1
1
0.901048
0.692759
1
1
0.847887
1.03916
1.05848
1
1
1.11893
0.99925
1
0.99926
1.12048
1
1
1
1
1
1
1.11928
1
1.04385
1
0.877772
1.0882
1
1
1.09842
1
1
1
0.980642
0.477708
1
1.0662
1
1
1
1
1
1
1
1.00197
1
1
1.08342
1
1.08029
1
0.990745
1
1
0.999917
1
0.820434
1
0.862849
1
1.08871
1.11979
0.798618
1.09592
0.870764
0.998918
1
0.900101
1.09007
1
1
0.999551
1
1
1
1
1
0.563027
1
1
1
1
1
1.09442
0.922705
1
1
1
1.01078
1
1
1
1.07023
0.903651
1
1
1
1.00473
1.10348
1
0.786469
1
0.999999
0.962134
0.903365
1
0.863149
1
1
1.08648
0.999502
1.10996
1
1.00257
1
1
1.11025
1
1
1
1
1
1
1.0889
1
1.10285
0.806027
1.08258
0.999177
1.08409
1
1
0.811297
1
1
0.882829
1.11805
1
1
1
1
1
1
0.854836
0.693229
1
1.10149
1
1.05639
1.09252
0.857622
1.09849
1
1
0.854449
1
1
1.08785
1
1.04995
1
1
1.00054
1.11956
0.794777
0.888275
1.11969
1.0878
1.08675
1.04912
1
0.975407
1
1
1
1.11588
1.11936
1.11903
1
1
1.11902
0.745407
1.10687
0.857059
1
0.870888
1
0.867847
1.09562
0.858269
1
0.988583
0.901627
1
1
1
0.92664
1
1.09598
1.11494
1.1007
1
1
1.11964
1
1
1.11871
1
0.691552
1
0.882758
1
1.11085
1
1
1.00124
1.08067
1
0.99966
0.674901
1
1
0.900122
1.02417
1
1
1.09461
1.11816
1.09845
1
1
1.03004
1
1
1.08696
1
1
1
1
1.09279
1
0.830378
1.11907
0.854422
0.91914
0.936075
1
1
1
1
1.10126
0.999197
1.00001
1.09662
1.11951
1
1.10066
1
1.09177
1
1.11989
1
1.00001
1
1.11665
0.864852
0.873404
0.999403
1
1
1
0.724725
1
1.07211
1
0.869919
1
1.04108
1.08225
1.1179
1
1
1
0.999829
1
1.11953
1.00264
1
1.04842
1.11835
0.945371
1.00022
1.00012
0.815995
1.0055
0.706465
1
1
1.02135
1.12028
1
1
1.00118
1
1
0.909438
1
0.927137
1
0.999988
1
1
0.83129
1.00904
1.0202
1
1.10069
1.08868
0.931597
0.999461
0.817934
0.762197
0.862949
1
1
1
0.999733
0.87396
0.860747
1
1.08639
0.999926
1.08608
1.08908
1.12008
1
1
0.906474
1.10082
0.895203
1
1.07959
1.09335
0.999057
0.929865
1.08317
1.08966
1
0.835855
1
1
1.11906
1
1.00043
1.11851
1
0.876824
0.654595
1
1
0.881024
0.894087
1.09583
1.00001
1
0.82893
0.791428
1.11861
1.1113
1.09036
1.12
1.02704
0.986341
1.06488
1.12114
1.04791
1
1.06446
1
0.890155
0.936572
1
0.838413
1.08694
1.00646
1.08924
1
1.09588
1.11947
1
1.10723
1.08496
0.866305
1.09256
1
1.12092
1
0.90956
0.863218
1.10207
1
1
1
0.859179
1.10097
1
1
0.865014
1
1
0.739371
1
0.855302
1.12
1
0.919764
0.837084
1
1
1.0699
1
1
1
1.02122
0.863564
1
1
1
1.11844
0.855211
1
1.0972
0.916724
0.699263
1
1
1.12029
1
1
1
1.09126
0.867412
1
1
0.681296
0.930027
0.893702
1
1
1
1
1.08918
0.806739
1
0.855804
1
1.05594
1
1
0.992501
1
1
0.919111
0.999907
1.00001
1
0.855084
0.866023
1
1
1
1
0.91382
0.999999
1.11952
1
0.843978
0.73234
0.961571
0.861878
1
0.93985
1
0.877378
0.971701
1
1
0.860908
1
1.08058
1.1157
0.863721
1
1
1
1.11859
1
1.02383
0.945487
1.04128
0.862181
1.05032
0.836938
1
1
0.874184
0.974588
1
1.00331
1
1
0.850014
1
0.97107
1.01874
0.855912
1
1.09758
0.889885
0.968377
1
1
1
0.867153
1
0.859211
0.844398
1
0.96414
0.852258
1.01328
0.885409
0.897221
1.09591
1
1.08662
1.06706
0.899912
1.08696
0.91519
0.999716
1.11949
1
1
1.08374
1
0.901045
1
1.02037
1
1
1.09158
1
0.945586
0.927964
1.12073
0.979889
1
0.907377
1.09694
1.11957
0.976561
1
1.09719
1.03434
0.949507
1
1.01581
1
0.867537
1.02188
0.93307
0.919405
1
1
0.863457
1.08029
0.977793
0.858087
0.86004
0.938733
1
0.998521
1.11935
1.09673
1
1
1
0.863755
1.05237
0.999994
1
1.10809
0.811335
1
1.03025
0.961256
1.07172
1.10324
1
1.01784
1
1.00002
0.788548
0.938585
1
1
0.925463
0.801986
1.0207
1
1
0.912448
1.06957
1
1.12007
1
1.01429
1.06834
1
1.11794
1
1
1.11825
1
0.847855
1.11946
0.944841
1.00221
1
0.856757
0.999974
1
1
1
0.935101
1.0078
0.860317
1.05093
1.12013
0.851672
1
1
1
1
1
0.977228
0.902557
1.00473
0.855929
0.828417
1.0123
1
0.999945
1.03312
1
1
0.914004
0.986038
1
1
1.04739
1
1.11989
1
1.11925
1.01846
1.01057
0.860264
1
1
0.895174
1
1
1
1
1
1.01264
1
1
0.853702
1
1
1
1.08213
1
0.742333
1.06783
1
1
1
1.11921
0.786386
0.947687
0.809116
1.07511
1.11815
1
1
1.09077
1
0.84615
1
1
1
1
1
0.914756
1
1.11885
1
1
1.06114
1.11979
0.87156
0.960636
1
1.08083
1
1
1
1
1
1.09796
1.11929
0.891758
1.07997
0.849719
1
1
1.08746
1
1.11979
0.987699
1.00794
1.01327
1.08774
1
1.07344
0.857567
1
0.855991
1.00362
1
1.09704
1
1
0.849253
1.1202
1
1.11922
1
1
1
1
1
1
0.890477
1.11957
0.945856
1.09527
1
0.801033
0.863971
0.894962
1.11975
1.08115
0.988193
1
0.958001
1
1.04079
1
1.09582
0.849813
0.854962
0.945094
1
1.11148
1
1.01241
0.868707
1
1.11993
1.10898
0.999677
1
1.10593
0.86684
1.11921
1.08432
1.09589
0.86343
1.02895
1
1
0.858033
1
0.949243
0.956246
1
1
1.08983
1
1.05254
1.0263
1
1.02871
1.12049
1
0.891231
1
0.932837
1
1
1.01311
1
0.927806
1
0.866034
1.01052
0.962523
0.778199
1.07703
1.0961
1.11959
0.85863
0.889909
0.998832
1
1
0.88489
1.09002
0.866647
0.99999
1
1.08248
1.1191
0.960551
1
0.868377
0.891857
1.06875
0.983874
0.852382
1
0.852593
1.03646
0.867586
1
1.00002
0.92403
1.12009
1.10678
0.93178
0.99988
1
1
0.873576
1
0.861696
1
0.841863
0.864933
1
1
1
0.865745
1.08651
1
1
1.00002
1.00001
0.725391
1.1022
1.08982
1
0.85951
1.11984
1
1.03217
1
1
1.11833
0.854428
1
1
0.812446
0.948609
0.865482
0.883936
1
0.861399
0.999218
1.01868
0.856889
1
1
1.03532
1
1.08883
1
1
1.0876
0.909482
1
0.81556
1.02718
1.10058
1
1
0.86337
0.926893
0.85794
0.881264
0.917601
1.06052
0.99983
1
1
1
1
1.10777
0.910889
1
0.992376
1
0.999566
0.999982
0.898084
1.02221
1
1.08756
1.11286
1
1
1.09242
1.00001
1
1.09107
0.860199
1.09278
1
0.851941
1.11352
1.00002
1
0.933612
1
0.86317
1
1.11942
1
1
1.08863
1
1
1.11979
1
1
1
1.11154
1
0.916908
0.903899
1
0.854735
1.08388
1
1
0.983612
1
1.09515
1.06888
1.00851
1
1
0.891547
1
0.893304
1
1.11092
1.11861
1
1.11973
0.863571
1
0.89091
1.08586
1.10949
1.11909
1.11915
0.892043
0.850734
1
1
1.11928
1.11108
1.0884
0.93878
1.06148
1
1.08148
0.953092
1
1
1
1.00001
0.986771
1
1.11927
1
1
1
1
1
1
1.00002
1.09152
1
1.09198
1.08145
0.886547
1.11993
0.999704
1.05316
1
1.08012
1
0.854658
1
1
1
1
1.0879
1
0.857165
1.0778
0.856686
1.1014
1.0861
1.06826
1
1.00802
1.06177
0.99961
0.756729
0.941259
1
1
0.982011
1
0.900743
1.11931
0.890582
0.957641
0.965099
1
1
1
1.00402
1
1
0.554316
0.998954
1.1132
1
1.08543
1
0.860651
1
1
1.08999
0.999987
0.855187
1
1.11901
1
0.954072
0.908978
1.11182
1.08634
1
1.00227
1.10601
1
1
1.05357
1.08701
1.06747
0.998817
1
0.999999
1.08546
1
1
1
1.08448
1
1
1
1.11454
1
1
0.867838
1
1
1
1.11309
1
1
0.973321
1.04392
1.0891
0.950627
1
1.1018
1
1.04346
1
1.10089
1
1.0905
1
0.869964
1
1.08625
1
1
1.0864
1
1.10943
1
1.11823
0.89094
0.859363
1.11924
1
1.1019
1
1.11913
1
1
1
1.11467
1
1.03877
1.11561
1
0.839046
1.10272
0.939855
1
1
1
1.09461
1
1.08562
1.11888
1
0.864103
1
1.0911
1
1.00171
1
1
0.999415
0.911163
1.08509
1
1.1096
1
0.978726
0.866588
1.00012
1.0918
0.895379
1
1.10142
1.10165
1.10109
0.90265
1.09188
0.92222
1.11876
1.1191
1
1
1.09543
1
1
1
1
0.863777
1
1
1.11942
1.0902
1
1.07861
1
1.10222
1.11937
1
1.08638
1
0.854635
1.08336
1.09361
1.02759
0.858592
1.0855
1
1
0.854264
1
1
1.09356
1
1
0.946378
1
1.11164
1.00002
1
0.868625
1.1075
1
1.10617
1.08838
0.981764
1
1
0.915447
1.11495
1.07458
1.09524
1.11795
0.999424
1.10386
1.11281
1.0906
1.09661
1
1
0.888536
1
1.11199
0.950991
1.08798
1
1.08915
1
1
1
1
1
1.08876
0.856687
0.855904
1.11746
1.09656
1
1
1
1
1
1.08639
1.1076
1.08922
0.996504
1
1
1
1
1.09091
1.09272
1
1.10192
1.11967
0.854712
1.09947
1
1
1.0954
1
0.999392
1.0878
1.10166
1
1.07753
1
1
1
1
1
1
1.11384
1.12031
1.08732
1.0892
0.860219
0.891242
1.08721
1.08957
1
0.868272
0.958777
1
1.05981
0.858194
1
0.999848
0.999511
0.863455
1
1.10036
1
1
1
1.11922
0.971407
1
1.09777
1.09519
1
1.11104
1
1
1.08709
1
0.834743
1
1.11711
1
1
0.857232
1
1.08048
1
0.855918
0.761537
1
1
1
0.856384
0.949244
1
1.0899
1
1
1
1.09418
1
0.893445
1.01757
1.11036
1
1.09683
0.994078
1.08911
1.09669
1
1
1
1
1
1.08778
1
0.999806
1
1
0.853139
1
1.08876
1.06281
1.0059
1.04973
1.03409
1.1165
0.902244
1.08692
1
0.858945
1
1.08948
0.973059
1.08961
1.09566
1.11568
1
1.10998
1.08847
1.0864
1
1
1
1
1.11104
1.07247
1
1
0.855404
1
1
1.0999
1
1.08604
1.11111
1.11514
0.966129
1.09915
1.09707
0.99808
1
1.11073
1.09623
1
1.11012
0.96916
1.1184
1.00564
1.09661
1
1.08881
1.10848
1
0.862798
0.972787
0.864341
1
1.01832
1
1.10048
1
1
0.999011
1
1.05235
1.07954
1
1
1.08587
1
1
1.07774
1
1.08897
1.11831
1.10228
1
1.10318
0.933441
1.10438
1
0.993051
0.870144
1
1
0.876457
1
1.03577
1
1.08931
1
1.08891
1.06933
0.868038
1
1
1
1
1
1.10566
1.0033
1
1.09974
1
1.09841
1.08572
1
1
0.974099
1
0.857481
0.863218
0.886317
1.00137
1
1
0.892484
1.00001
1
1.09478
0.99912
1.0892
1.09771
1
1
1
1
1
1.11262
1.09108
1
1.11802
1
1.11015
1.06661
0.998881
1
1
1
1.07304
1
1.0023
1
1
1
1
1.08927
1
1
1
1
1
1.08905
0.858582
0.998996
1.08943
1.08648
1
1.08778
1
1
1
1
0.909664
1
1.10308
1
1.09799
1.10711
0.976844
1
1.0793
1.02934
1.11921
1.0978
1.01064
1.10317
1
1
1
1
1
1.09081
0.999682
1.07655
1.09088
0.843079
1.00001
1.11914
1
1
1
1
1.10116
1.10113
1
1.09741
1
1
1.086
1
1.00001
1.11807
1.01234
1
0.999703
1.08597
1
1.11567
1.0853
1
1
1
0.961152
1
1
1.08832
1
1
1
1
1.08638
1
1
1
1
1.08692
1
1.09528
1.09816
0.96968
1
0.88808
1
1.08798
1.0635
1
1
1
1
1
1.11881
1.07434
1
1
1
1.09348
1.0975
1.08641
1.09546
0.905479
1
1
1.09658
1
1
1
1.08621
1
1
0.999315
1
1
1.00833
1
1
1
1.05396
0.866032
1
1.08228
1.03335
1.00513
1.09716
1
1.10102
1.0961
1.07112
1
1.11376
1.03047
1.0171
1
1
1
1.08556
1
1.00772
1.1194
1.08663
1.00214
1.09566
1.10265
1.09542
1.09931
1.08694
1
1.08501
1
1
1.08963
1.00997
1
1
1
0.99873
1
1
0.998923
1
1.09224
1.00472
1.0958
1.12005
1.08042
1.03828
1
1.08636
1
0.915391
1
1
1
1.09317
1.09586
1.10699
1
1
1.10105
1.10389
1.09641
1.09308
1
1.08783
1
1.08799
1
1.08559
1
1.10149
1.10135
1.08938
1
1
1.09804
1
1.09364
1.07668
1
1
1
1.05415
1
1.10073
1.09225
1.08175
0.965054
1.08653
1
1.10968
1
1.0886
1
1
1
1
1.08728
0.873572
1.08677
1
1.0837
1
1.066
1
1.09026
1.0918
1
1
1
1.09812
0.856274
0.851991
1
1
1
1.09581
1.11843
1
1
1
1.08217
0.946811
1.08398
1.09475
1
1
1
1
0.947921
1.09778
1.07176
1.09627
1.02773
1
1
1
1.086
1.02155
1
1
1
1.08882
1.11144
1
0.999981
1.09484
1.08461
0.940964
1
1.00423
1
1
1.08489
1
1.0643
1
1
1
1
0.855468
1.09511
1
1
1
1
1.0964
1.00001
1
1
1
1.08094
1
1.0909
1
1
1
1.11902
0.858947
1
0.906494
1.01232
0.864918
1.11808
1.08299
0.999285
1
1
1
1.08549
1
1.08709
1
1
0.917877
1.08031
1
1
1
1.08382
1
1
0.894639
1.08952
1.02279
1.09429
1.03763
1
1.08623
1
1.07162
1
1
1.07923
1.11812
0.863289
1
1
1.03267
1.09651
1.08123
1
1
1.03768
1.08508
1.11185
1
1.02848
1
1.00001
1
1
1
1.08078
0.999799
1.01163
1.09627
0.998868
1
1.09895
0.999648
1.0134
1.08642
1.08508
0.868118
1.00002
1.08719
1.08327
1.09575
1
1
0.859449
0.962213
0.86373
1
1.06487
1
1.09499
1
1.09678
1
1.07504
1
1
0.856052
1
1
1
1.08873
1
0.860162
1.00664
1
1
1.11986
0.991599
0.999214
1
1.06226
1
1
1
1.08493
0.933703
1
1.10887
1.06816
1
1.12004