/*--------------------------------*- C++ -*----------------------------------*\
  =========                 |
  \\      /  F ield         | OpenFOAM: The Open Source CFD Toolbox
   \\    /   O peration     | Website:  https://openfoam.org
    \\  /    A nd           | Version:  12
     \\/     M anipulation  |
\*---------------------------------------------------------------------------*/
FoamFile
{
    format      ascii;
    class       surfaceScalarField;
    location    "2.35";
    object      phi;
}
// * * * * * * * * * * * * * * * * * * * * * * * * * * * * * * * * * * * * * //

dimensions      [1 0 -1 0 0 0 0];

internalField   nonuniform List<scalar> 
33852
(
0.000251329
2.24281e-05
-0.000273757
-0.000246121
1.32441e-05
0.000232877
-0.000174849
-7.04557e-05
0.000245392
0.000304053
-0.000163969
-0.000140085
0.00029209
-4.25648e-05
-0.000249328
2.72441e-05
-0.000260681
0.000233437
0.000315764
1.47652e-05
-0.000330475
0.000304277
-9.59564e-05
-0.000208321
0.000286413
-3.50841e-05
0.000203039
1.92648e-06
-0.000202442
0.000289684
-0.000366256
7.69379e-05
0.000361616
-4.58373e-05
-4.39602e-05
0.000263285
-0.000219325
-4.34018e-05
0.000316168
-0.00027316
6.067e-05
-0.000235488
0.000252057
1.2236e-05
-0.000264293
0.000264853
-1.2796e-05
-0.000278433
3.23121e-05
0.00034137
-5.12205e-05
0.000158593
0.000112308
-0.000270901
-2.44823e-05
0.000305365
-0.000279856
0.000271377
-0.000276165
4.78802e-06
-1.76978e-05
0.000275242
-0.000257706
-0.000223118
1.48421e-05
0.000209073
-0.000153907
-0.000184749
0.000336787
-0.000147024
-7.04085e-05
0.000210736
3.72401e-05
0.000267037
-6.12864e-05
-0.000263362
0.000324232
-0.00020938
1.82454e-06
0.000215767
-0.000203467
-1.91357e-05
0.000142045
0.000137388
-0.000279433
0.00034178
1.93491e-05
0.000142618
0.000128347
-0.000270965
-0.000101136
0.000259729
-0.000250489
-3.78001e-06
0.000254269
0.000330555
-5.96012e-05
-0.000270859
-0.000359144
0.000203407
-0.000227772
0.000209901
0.000231645
3.32081e-05
-5.65602e-06
0.000237301
-8.13578e-06
0.000212312
-0.000232625
0.000259869
0.000316576
-5.7254e-05
-0.000258535
-0.000309093
5.51042e-05
0.000253989
0.000240133
-0.000301722
0.000273589
-0.000306321
3.27321e-05
-0.000180237
-5.49362e-05
0.000235173
0.000272133
-0.000272133
0.000148429
-0.000297473
0.000149045
-0.00021009
0.000221482
-7.27951e-06
-0.000268241
0.000237301
3.09401e-05
-0.000201406
0.000247772
-4.7524e-05
-9.16164e-05
-0.000217477
-0.000114344
-0.000251914
-0.000280169
0.000266113
1.40561e-05
0.000329059
1.18325e-05
-0.000250433
7.01963e-05
0.000117908
0.000145909
-0.000263817
1.34681e-05
-0.000267457
0.000253989
-0.000134569
0.000282997
-0.000150727
-5.02227e-05
0.000199837
-0.000274681
0.000245113
2.95681e-05
0.000237553
-0.000268437
3.08841e-05
-0.000180646
-2.29479e-05
0.000151665
0.000115565
-0.00026723
-0.000189473
-2.85708e-05
0.000218501
0.000263985
2.24281e-05
0.000275941
-2.35201e-06
0.000265329
-0.000250741
-1.45881e-05
0.000229065
-6.45141e-05
-0.000163066
-1.82001e-06
0.000239373
0.000366612
-0.000312897
-5.39656e-05
-2.82022e-05
0.00030377
-0.000275779
-0.000101584
0.000219493
0.000342139
2.42375e-05
-0.000371462
0.000353246
1.81333e-05
-0.000210946
2.24963e-05
0.000310012
-0.00032154
1.23788e-05
-0.00020885
0.000274778
-6.45449e-05
-4.45202e-06
1.71352e-05
-0.000319417
0.000302344
0.000235196
-0.000198816
-3.50334e-05
0.000268882
-0.000339791
6.99988e-05
0.000331956
-6.3319e-05
-0.000268941
0.000236573
3.23681e-05
-0.000129388
-0.000132609
0.000261997
-1.86761e-05
-0.000249565
-1.022e-05
-0.000258721
2.31438e-05
0.000210983
-0.000233985
3.17591e-05
-0.000222392
0.000193767
-2.50263e-05
0.000328054
-0.000303027
-0.000279329
0.000273701
5.62802e-06
0.000156129
-0.000296857
0.000140729
-5.96689e-05
-0.00015045
0.000209941
0.000143277
0.0001218
-0.000265077
-0.000250394
0.000226675
-0.000213018
0.000153642
-0.000168813
0.000327181
-0.000158369
0.000185389
7.16523e-05
-0.000257041
0.000255193
2.07481e-05
-0.000192277
0.000148317
5.01117e-05
0.000266531
0.000307201
-0.000290016
9.17053e-05
-0.000240749
0.000135241
0.000117096
-0.000281065
-1.18372e-06
0.000244947
-0.000243052
0.000166489
0.000122836
-0.000289325
0.000145261
9.04996e-05
-3.92002e-06
0.000259113
0.000304735
5.46811e-06
-0.000323881
0.000314795
8.78922e-06
-3.99002e-05
0.000236293
-0.000196393
4.08802e-06
-0.000284257
-2.54051e-05
0.000160806
-0.000134794
-0.000153072
0.000128624
0.000212091
-0.000177725
-0.000269921
0.000264965
4.95602e-06
2.64041e-05
0.000174721
-0.000201125
2.87841e-05
-0.000257265
0.000228481
0.000276137
-0.000262669
0.000115108
0.000212073
0.000213898
-0.00019105
-0.000175813
0.000202217
1.37104e-05
0.000283354
-0.000296804
0.00027044
2.17949e-05
0.000271982
-0.000283585
1.2407e-05
3.86402e-06
0.000267513
-1.81176e-05
0.000290336
0.000331479
1.00517e-05
0.000212499
-0.000256535
0.000315761
-0.000315747
-6.63603e-06
-0.000272693
2.83971e-05
0.000201319
0.000187993
3.98722e-05
-0.000227865
-5.48427e-05
0.000217564
-0.000164109
0.000153609
-0.000270285
0.000116676
0.000279441
-0.000329701
5.02602e-05
-6.38122e-05
0.000249201
-0.000166909
0.000315897
-0.000148989
-0.000314422
-9.96563e-06
-0.000214929
0.000175029
2.78601e-05
-0.000278349
0.000276221
-1.88441e-05
-0.000248613
1.71014e-05
-0.000301865
0.000284802
0.000344989
-0.000158593
-0.000186397
-1.66776e-05
-0.00024128
0.000258178
-0.000266617
-3.30401e-06
0.000224001
2.45841e-05
-0.000248585
0.000284509
-0.000128381
0.000140197
0.000138853
-0.000279049
-0.000194836
-1.06162e-05
0.000258169
-0.000115551
0.000225718
-0.000242558
-6.38122e-05
0.000251805
-0.000207244
0.000249481
-5.60002e-07
-0.000248921
0.000255109
-0.000237441
-0.000325152
0.000300067
-3.08841e-05
0.000203169
-0.000172285
0.000292073
1.26772e-06
-0.000293363
7.73743e-05
0.000130672
-0.000202101
4.51844e-05
-0.000198804
-0.000289118
-4.56301e-06
0.000293441
-1.57968e-06
-0.000287727
0.000146973
-0.000273925
0.000126952
-0.000263689
0.000219945
-0.00029437
0.000265264
0.000279441
-0.000311835
-1.24342e-05
0.000324201
0.000112214
0.000163403
-2.13521e-05
0.000352227
0.000140141
0.000139833
-0.000279973
0.000245029
-0.000250349
5.32002e-06
-0.000210953
0.000180069
0.000279133
-5.43202e-06
0.000350265
-3.27395e-05
-0.00030344
0.00030522
-3.82331e-06
0.000270985
-0.000270985
-0.000364812
0.00022592
0.00013897
-0.000197814
1.8492e-05
1.68431e-05
0.000275157
-0.000278461
3.30401e-06
-5.12083e-06
0.000168768
-0.000165462
-0.000197345
0.000254801
-5.74562e-05
-0.000205757
4.52057e-06
-0.000241187
0.000156376
7.8288e-05
-0.000180264
0.000261403
-8.1138e-05
0.000256285
-0.000287113
3.08281e-05
-0.000249229
5.18842e-05
-2.35467e-05
0.00027608
-0.000252687
-0.000253547
1.35801e-06
0.000252189
0.000231281
-7.28003e-06
-0.000294197
7.60439e-06
0.000286573
-0.000266085
0.000266085
-0.000285385
-5.52879e-05
-0.000170616
-0.000194
-0.000171843
0.000215052
-4.46264e-05
-1.232e-05
-0.000239177
0.000251497
3.10801e-06
0.000210113
-0.000213221
-0.000183702
-2.23536e-05
0.000205914
7.55974e-06
0.000294505
-0.000302066
-0.000236153
-1.34401e-05
0.000249593
1.50361e-05
-0.000251189
-0.000241025
0.000256061
-0.000301376
0.000308932
0.000256117
7.16803e-06
-0.000171971
-3.215e-05
0.000202193
-0.000145237
-0.000134765
-0.000244329
0.000240549
0.000298636
-3.80838e-07
-0.00029822
-0.000298782
6.01985e-07
0.000298236
1.92711e-05
0.000181217
0.000163773
7.70043e-05
-0.000257269
-0.000159242
0.000310908
0.000250721
-0.000108677
-0.000235145
-1.83681e-05
0.000253513
-0.000205955
-0.000127493
0.000329064
-6.10402e-06
-0.000229125
0.000235229
-2.14865e-05
-0.000179377
-0.00028614
-8.55495e-05
6.26312e-06
-0.000300604
-0.000213588
0.00032992
-0.000115654
0.000281597
0.000288205
-5.16322e-05
0.000271993
-1.57081e-05
-0.000186982
-1.42097e-05
0.000201155
0.00029778
3.04597e-07
-0.000297982
-0.000267622
-3.35255e-05
-0.000218821
0.000247605
-2.52039e-05
0.000309893
-0.000285318
0.000180978
7.86903e-06
-0.000189012
-3.43745e-05
0.000214465
-0.000301425
0.000275568
0.000292151
5.32698e-06
-0.000298326
0.000157445
0.00011886
-0.000276305
0.000287501
5.73802e-06
-0.000293349
-0.00025627
0.000117341
0.000130663
-0.000281508
0.00029527
0.000302513
-0.000156857
-0.000145657
0.000207005
-0.000203897
-0.000232009
-0.000121156
-0.000155009
-4.02382e-06
-0.000294032
0.000298113
-1.0136e-05
0.000276249
0.000291403
-2.03187e-05
-0.000270113
-0.000263046
2.89543e-05
0.000233824
0.000271433
-0.000267569
0.000249621
2.95121e-05
0.000314923
-9.73978e-06
-0.000305122
4.95987e-05
0.000156601
-0.000205174
-9.68174e-05
0.000191613
-9.51265e-05
0.000252617
-2.91201e-05
-0.000223497
2.19206e-07
0.000291269
-0.000179925
-3.15052e-05
0.000208861
-1.92604e-06
0.000290359
-9.33244e-05
0.000246933
-0.000255417
-5.26402e-06
0.000121184
0.000181329
1.34121e-05
0.000241557
-0.000254969
0.000236097
1.34961e-05
-0.000249593
0.000249509
-0.000242929
0.000256425
6.45237e-05
-0.000204407
0.000140508
-0.000214785
0.000113764
-0.00020683
0.000297215
1.39779e-06
-0.000298664
0.000253849
2.22881e-05
0.000268493
-0.000216441
-5.20522e-05
0.000225518
-0.000246849
2.13305e-05
0.000257909
1.40841e-05
5.80226e-05
0.000295176
0.000267186
-3.89594e-05
-0.000228226
0.000177359
1.274e-05
0.000240297
-0.000253037
0.000195041
-0.000114867
-8.12147e-05
-0.000205254
2.10424e-05
-1.34188e-06
-0.000298276
0.000299317
0.000222967
-0.000169235
-5.30711e-05
0.000346518
-4.15019e-05
0.000275969
-0.000135829
2.31561e-05
0.000238337
-0.000261493
-0.000231141
0.000254297
-2.66788e-05
-0.000229747
0.00025647
0.000155922
-0.000162951
-8.21082e-05
-0.000173722
-0.000261723
4.14346e-05
0.000220288
-3.17521e-05
-0.00022997
7.55569e-06
0.000261717
-3.25193e-05
-0.000229198
1.67382e-05
0.000127832
-0.000199954
0.000308785
-0.000171397
0.000262319
-3.57923e-05
-0.000226526
-0.000318982
0.000184138
-0.000103093
-0.000228453
-6.90203e-05
7.92781e-08
-0.000300436
0.000300159
-2.75176e-05
0.000178804
-0.000153337
0.000308113
6.8674e-06
0.000250097
-0.000248249
-1.84801e-06
-0.000176461
6.16142e-05
0.000260268
-3.07177e-05
-0.000229554
0.000197345
-0.000250769
5.34242e-05
0.000254206
-0.000231206
-2.29991e-05
-0.000252337
0.000240017
0.0001447
0.000101303
-0.000101864
-0.000170269
0.000132496
-0.000261885
-0.000290249
0.000242201
4.80483e-05
0.00021681
3.12469e-05
-0.000248056
-0.00023675
-9.74104e-06
0.000246532
0.000326972
-2.30107e-05
0.000263996
-3.42721e-05
-0.000229724
0.000137096
-0.000224517
8.67961e-05
3.63259e-05
-0.000265637
0.000229311
-0.000253905
0.000121296
0.000249817
-5.24722e-05
0.000294673
-0.000154253
-0.000140421
0.000122248
-0.000289157
1.53441e-05
0.000237665
-0.000253009
-0.000262031
3.54705e-05
0.00022656
-2.82015e-06
-3.77917e-05
-0.000224239
0.000248675
-0.000272252
-0.000264649
3.44737e-05
0.000230175
0.000193257
0.000101416
-0.000149941
0.000290137
-0.000170634
-3.77973e-05
0.000207307
-1.81721e-05
0.000263201
-0.000292597
0.000309838
0.000118408
0.00010447
0.000261325
-0.000261325
0.000310898
-2.23947e-05
-0.000288126
5.32002e-07
0.000248949
0.000254857
1.65761e-05
0.000309569
-0.000276248
-3.32626e-05
-2.26336e-05
0.000266577
-0.000243943
3.00077e-05
-0.000260519
0.000230511
-0.000252139
0.000229506
0.000328053
3.11501e-05
-0.000260598
0.000229447
0.000276809
-3.16961e-05
-6.38423e-06
-0.000294189
0.00030062
0.000270654
3.89511e-05
0.000230245
-0.000266617
3.63721e-05
0.000201755
-0.000202378
-0.000258301
0.000238533
1.97681e-05
0.000169762
-0.000257245
8.74835e-05
-0.000205795
0.000163241
-0.000249145
8.59043e-05
-0.000266169
0.000224813
4.13562e-05
0.000253073
-2.78797e-05
-0.000225194
0.000173884
4.28073e-05
-0.000234837
-2.29601e-05
0.000257797
-0.000236377
-2.28761e-05
0.000259253
-1.94265e-05
0.000255969
-0.000236542
-0.000259345
0.000239919
-3.12852e-05
0.00016828
-0.000235929
-2.24001e-05
0.000258329
-0.00025484
0.000229192
2.56481e-05
2.94001e-06
0.000211289
-0.000214229
-0.000267031
3.79849e-05
0.000229046
0.000270677
4.48002e-06
4.24395e-05
0.000166025
-0.000209582
-3.31194e-05
0.000249929
-2.09868e-05
0.000218597
9.73004e-05
0.0002482
-0.000216949
0.000277427
-0.000279246
0.000277152
-0.000281903
-1.84997e-05
0.000258601
-0.000240101
-0.000261644
0.000243145
2.99201e-05
-0.000200495
-2.96042e-05
-0.000205953
0.000238592
0.00031519
-0.000287757
-2.7487e-05
0.000261297
-3.11081e-05
-0.000230189
3.28739e-05
-0.000262362
0.000229488
-0.000229853
0.000259645
-2.97921e-05
0.000325797
-1.76677e-05
0.000148265
-0.000212431
0.000256929
-0.000109956
-0.000286473
0.000287703
0.000241977
-6.41202e-06
-0.000235565
0.000228537
-0.000182333
-3.7162e-05
0.000220108
2.77989e-05
-0.000208784
-0.000239989
0.000260317
-2.03281e-05
-0.000103263
0.000189291
-8.58331e-05
3.04362e-05
-0.000202648
0.000240169
-0.000263424
2.32552e-05
-0.000115584
0.000258861
-0.000243993
0.000265721
-2.17281e-05
-0.000238953
0.000232541
0.000258626
-0.000245105
-1.35213e-05
0.000264349
-2.46681e-05
-0.000246317
-0.000272642
-1.04418e-05
0.000298587
-5.32835e-05
-7.13758e-06
0.000292578
-0.000285081
-0.000169634
0.000210831
0.000227746
1.80076e-05
-0.000246122
0.000329605
-0.000329893
0.000260955
-0.000245018
-1.59377e-05
-0.000301397
-6.18474e-07
0.000305266
9.68336e-06
3.8037e-05
0.000172221
-0.000207612
0.000214139
-3.40998e-05
-0.000176381
0.000278054
-0.000255789
-2.22648e-05
-0.000212335
3.15588e-05
3.15421e-05
-0.000261891
0.000230348
0.000285169
-0.000290889
2.44721e-05
-0.000259617
-0.000257965
1.87881e-05
0.000266057
-1.64361e-05
0.000151173
-0.000267625
0.000116452
0.0002989
-4.39609e-06
0.000238617
-7.53763e-05
2.12521e-05
0.000177045
-0.000198297
-0.000183877
0.000205129
-0.000236275
0.000257219
-2.09441e-05
0.000261462
-3.31689e-05
-0.000228293
-0.000197009
-5.21362e-05
0.000251581
-1.48401e-06
8.91634e-06
-0.000263285
0.000255705
-0.000343539
0.000236815
0.00010671
0.000266371
-0.000236811
-2.95597e-05
0.000306795
-0.000314674
7.86364e-06
-2.57041e-05
-0.000229097
0.000254801
0.000261493
-7.64403e-06
1.00862e-05
-0.000208206
0.000262411
-3.19033e-05
-0.000230508
-6.90483e-05
-0.000260653
-0.000194685
0.000248025
-5.33402e-05
-0.000266533
0.000249985
1.65481e-05
-0.000318029
1.66569e-05
-1.7126e-05
0.000296733
-0.00027906
-0.000276221
1.65481e-05
0.000249537
-0.000167201
6.41548e-05
0.000273695
1.4823e-05
-0.000288704
-0.000316152
0.000307921
8.23875e-06
3.46641e-05
-0.000263649
0.000228985
-1.74848e-05
0.000281263
-0.000315219
1.64309e-05
-0.000176541
-7.42283e-05
-0.000234535
0.000207006
-2.16721e-05
-0.000216469
0.000238141
-0.000314763
0.000295873
1.88688e-05
-0.000133007
0.000274627
-0.000141183
-8.41762e-06
3.31521e-05
-0.000263453
0.000230301
-0.000204832
2.51858e-05
0.000179684
0.000221523
0.000280529
-0.000280601
2.20453e-07
-0.000236993
-2.20921e-05
0.000224813
-0.000202721
0.000139273
0.000143753
-0.000278517
0.000202431
-5.72882e-05
0.000308378
-1.05709e-05
0.000209253
-0.000268747
2.92853e-05
0.00022306
-0.000252345
-0.000324318
0.000139422
0.000296571
2.92182e-05
1.94694e-05
-0.000224355
-2.77845e-05
-0.000136109
-0.000132775
-0.000325065
0.000113696
0.000242873
2.56201e-05
0.000218765
-0.000224869
1.09588e-05
-0.000287754
0.00027688
-0.000242682
0.000270791
-2.71061e-05
0.000281422
-0.000281851
0.000287733
-7.75337e-05
-8.8522e-06
0.000290237
-1.87881e-05
0.000247101
-0.000228313
0.000281486
-0.000290384
-5.70404e-06
-0.000284058
0.000289672
0.000282082
-0.000270019
0.000284676
0.000226314
2.67597e-05
-0.000305559
0.000316701
-8.19571e-06
0.000249879
-2.15113e-05
0.000227403
2.43024e-05
-0.000268913
0.000246057
-2.05381e-05
-0.000259401
3.02849e-05
0.000229116
0.000178305
7.64963e-05
1.00538e-05
0.000282027
-0.000291707
-0.000238141
-2.88401e-05
0.000266981
2.51441e-05
-0.000263285
0.000284117
-0.000162317
-0.000232177
0.000261129
-2.89521e-05
-0.000234697
0.000260709
-2.60121e-05
1.4647e-06
0.000279115
2.45001e-05
-0.000259197
2.38001e-05
-0.000255977
0.00027421
-0.000242881
-3.13516e-05
0.000317877
-9.98308e-06
-0.000305653
-1.04261e-06
-0.000255753
1.1816e-05
0.000243937
-1.5384e-05
-0.000261185
0.000228065
-0.000245337
0.000270145
-2.48081e-05
-0.000263229
1.49801e-05
-2.36182e-05
0.000286485
-0.000262882
2.13641e-05
-0.000266701
-0.000241707
-2.13235e-05
3.27001e-05
-9.0432e-05
0.000260194
0.00028093
-0.000286597
5.05122e-05
0.000237693
0.00028195
-0.000281198
-0.000243181
-2.39401e-05
0.000267121
-0.000260894
7.34723e-06
-0.00029516
1.93236e-05
0.000276118
-0.000268717
2.55361e-05
-8.01143e-06
0.000290796
-0.000268326
0.000243549
2.47774e-05
-0.000232513
0.000210841
0.000279462
-0.000287478
-6.16002e-07
0.000260289
-0.000259673
-0.000301943
-1.60898e-05
-0.000264573
2.35481e-05
-0.00024417
-2.41555e-05
-3.43281e-05
-0.000297932
0.000293906
0.000286674
-0.000158327
0.000296531
-0.00029106
2.30152e-05
4.88102e-06
0.000262707
-0.000255587
-7.17228e-06
0.000307565
-2.02545e-05
-0.000287347
5.93098e-05
-0.000246765
-2.19521e-05
-0.000355785
0.000241277
0.00028372
-0.000279113
2.33801e-05
-0.000187571
-1.58809e-05
-0.000306492
2.57076e-05
0.000280803
-0.000197276
0.00031114
-0.00011378
0.000259841
-0.000238533
-2.13081e-05
-0.000291725
2.94001e-05
0.000222097
-0.000251497
-0.000163283
0.000133922
-0.000162774
0.000251441
-0.000238029
-1.34121e-05
-0.000263873
3.40201e-05
-2.23161e-05
-0.000269837
0.000251469
0.000230427
3.12901e-05
-4.65763e-05
0.000203792
0.000232619
-0.000260499
-1.74436e-05
-3.27738e-06
0.000246121
-0.000244016
-0.000293647
-0.000237049
0.000265189
-2.81401e-05
0.000230096
3.22225e-05
-0.000268521
2.55921e-05
-0.000239905
-2.86161e-05
0.000228954
-0.000260706
-0.000282762
4.73202e-05
-0.000242005
0.000292977
-0.000282721
-0.000287992
1.32261e-05
0.000275407
-4.474e-06
0.000221925
0.000228551
-0.00026107
0.000296885
-0.0001309
-0.000165985
0.000241999
-0.000261874
0.000270743
-0.000226213
-1.76681e-05
-0.000164429
0.000308138
-0.000142201
2.49649e-05
0.000222662
-0.000247627
-0.00019274
0.00019294
-0.000283689
0.000282297
6.97212e-06
-0.000290645
-0.000302485
0.000146693
0.000155793
0.000259995
-0.000239359
-2.06361e-05
-0.000215741
0.000193649
0.00026183
3.53966e-07
0.000257293
0.000232525
2.168e-05
-0.000296067
-6.22734e-05
1.01676e-05
0.000233698
-0.000251869
1.75985e-05
-0.000230917
-2.37161e-05
0.000254633
-0.000242295
0.000263191
-2.08965e-05
8.45888e-05
0.000137419
2.01059e-05
-0.00030555
0.000285314
0.000256565
-1.80041e-05
-0.000238561
0.000243881
-0.000254017
1.0136e-05
-0.000226745
0.000207957
0.000223131
-0.000258923
-0.000244693
4.76842e-05
1.59268e-05
-0.000137767
-0.000218444
1.57921e-05
0.000245701
0.000279647
0.000294766
0.000305834
1.72152e-06
0.000249817
-0.000220417
2.51749e-05
0.000225009
-0.000250184
-0.000243178
0.000268865
-2.56873e-05
2.28201e-05
-0.000262725
-0.000117328
0.000295945
9.12767e-06
2.08181e-05
0.000261675
-0.000235103
-2.65721e-05
1.3128e-05
-0.000303737
0.000290478
0.000321651
-3.09537e-05
-0.00029068
0.000249733
1.63241e-05
0.00030624
-0.000293075
-0.000230922
-0.000112588
9.63204e-06
0.000250657
-4.9129e-05
-0.00020239
0.000251519
2.20333e-05
0.000246832
-0.000241686
-2.29629e-05
0.000260737
-2.24001e-05
0.000287958
-0.000268023
2.63369e-05
2.68241e-05
-0.000257965
0.000210617
-0.000207677
2.58161e-05
-0.000262865
0.000281368
0.000121744
-0.000256173
0.000134429
1.80093e-05
3.90957e-05
0.000164956
-0.000203889
-0.000239485
-2.85377e-05
3.95032e-05
0.000160821
-0.000199873
-0.000246691
0.000271066
-2.43747e-05
0.000209866
-0.000248826
1.98857e-05
1.73058e-05
-0.000173459
-3.05102e-05
0.000226687
-0.000257417
-2.88401e-05
0.000244245
-0.000215405
-2.16161e-05
0.000242985
-0.000221369
0.000201657
-0.000250786
-0.00027351
-0.000232905
-2.55081e-05
0.000258413
0.000241234
2.98318e-05
-0.000212872
-2.36928e-05
0.000235749
-2.18821e-05
-0.000224967
-0.000239345
6.28042e-05
0.000259004
-0.000229718
4.75106e-05
-0.000249901
-3.43393e-05
0.000257694
-0.000223354
0.000205675
-0.000240014
0.000261689
-1.1956e-05
-6.06763e-05
-0.000229572
-0.000223832
-1.76902e-05
0.000241308
0.000247109
5.3175e-05
0.000212448
-0.000265623
-0.000261086
0.000177353
-0.000231757
5.44042e-05
6.42979e-05
0.000136745
0.000259457
-0.000240915
-2.47224e-05
-0.000265385
0.000227165
3.82201e-05
-2.87813e-05
-0.000222158
0.00025094
-0.000283832
0.000264161
0.000234501
3.61761e-05
2.18821e-05
0.000234087
-0.000307217
0.000151089
0.000156129
0.000169577
-5.29514e-05
0.000254045
-0.000115192
2.56901e-05
0.000217446
-0.000243136
-0.000286307
0.000286626
9.25353e-06
0.000257377
-0.000245953
0.000208937
3.70161e-05
0.000254832
0.000247915
-1.94815e-05
-0.000246815
-2.02161e-05
-0.000263019
2.0724e-05
-0.000269215
2.24001e-05
2.79601e-05
0.000220024
-0.000247984
0.000242481
-0.000274597
1.32721e-05
0.00024636
-1.37694e-05
1.27276e-05
-0.00025014
-0.000331671
0.000124935
-0.000233135
-2.62109e-05
-0.000252113
0.000252113
0.000259782
-0.000144217
-1.87235e-05
-0.000278424
0.000296633
0.00027452
0.000258749
-0.000135913
0.000224113
2.39205e-05
0.00023468
7.83445e-05
-0.000342059
3.77728e-05
0.000258962
1.76363e-05
-0.000248843
-3.00917e-05
0.000207453
-3.01001e-05
0.000259701
2.95429e-05
0.000218353
-0.000247896
-3.05014e-05
-4.09782e-05
-0.000217818
0.000258797
-0.000233423
-2.14173e-05
3.73618e-05
-0.000198599
0.000160931
-3.30877e-05
0.000221671
-0.000255943
-0.000281717
-8.51029e-06
0.000290466
-0.000196851
0.000162984
0.000166349
8.16763e-05
1.29176e-05
-0.000294619
0.000235075
2.59446e-05
-0.000261019
-0.000192576
-1.48176e-06
0.000232743
-0.000264287
3.15449e-05
-8.42803e-06
-0.000217029
0.000225457
-0.000163815
0.00020084
-0.000249985
-3.46025e-05
0.000256274
0.000218076
-0.000252679
-0.000246289
0.000272245
-2.59561e-05
0.000253547
2.78321e-05
-0.000232062
-2.95821e-05
-0.000298265
0.000316478
-1.81453e-05
2.33911e-05
0.000212462
-0.000250254
-0.000267233
2.09441e-05
-2.12801e-05
-0.000245953
-3.61481e-05
0.00024861
-0.000290215
-1.37006e-05
0.00022082
-0.000256968
0.000248037
-0.000251072
1.7969e-06
2.80002e-06
0.000181413
-0.000184213
0.000255294
0.000234529
2.67681e-05
-2.62361e-05
0.000245001
-0.000218765
3.36001e-05
0.000216609
-0.000250209
0.000244861
2.73841e-05
0.000306545
-0.000143949
-0.000162597
1.59615e-05
0.000239639
-0.000255928
0.000271013
-0.000113568
0.000225569
-0.000256677
-0.000241616
0.00010499
-0.000265469
7.16803e-06
-0.000241635
-2.75801e-05
-0.000241361
-2.48081e-05
0.000311027
-2.74255e-05
-7.67483e-05
0.000243097
-1.1452e-05
-0.000215601
0.000224281
-8.68003e-06
0.000255193
-7.68883e-05
3.47272e-05
-0.000199857
0.000164268
-0.000265245
-1.40001e-07
-4.14962e-05
3.94481e-05
0.000156364
-0.000200893
0.000199294
-0.000165566
0.000257041
-7.05603e-06
0.000251151
-0.000218277
-1.82134e-05
-2.1128e-05
0.000265853
-9.54014e-05
-0.000177487
-1.42801e-05
-0.000191913
0.000206193
0.000258665
-1.53553e-05
-0.00024331
1.98101e-05
0.000238855
-0.000280033
-8.03429e-06
3.76564e-05
-0.000197505
0.000162912
1.36921e-05
0.000247997
-0.000161099
0.000202302
-1.95189e-05
0.000248711
3.25309e-05
0.000189949
-0.000221545
-4.17202e-06
-2.49389e-05
0.000265108
-0.000231955
-3.14693e-05
0.000297082
-0.000281922
-1.53182e-05
1.63717e-05
-0.000237659
0.000221288
-0.00010514
0.000226885
1.92837e-05
-0.000305073
0.000285867
2.52001e-05
-2.79441e-05
2.69165e-05
0.000308799
-0.000289479
0.000238891
1.97345e-05
2.15601e-06
0.000231617
-0.000233773
-0.000310372
2.56625e-05
0.000284734
-0.000162177
-0.000144145
0.000209178
-0.000250156
-0.000164957
0.000241924
1.90317e-05
0.000257359
-4.13534e-05
0.000250531
0.000214498
-0.000255851
0.000318763
-0.000319744
-1.06898e-05
0.000287491
-0.000276758
-0.000302641
1.96419e-05
0.000283232
4.20842e-05
-0.000286413
-3.94631e-05
0.000252483
2.62921e-05
-2.21127e-05
0.000307297
-0.000285127
2.43321e-05
3.93545e-05
0.000160182
-0.000200283
0.000249294
-0.000219751
2.83277e-05
-0.000261633
4.36802e-06
-1.99573e-05
0.000306658
-0.00028661
-0.000250987
-0.000266673
3.07441e-05
0.000252141
-0.000236741
-1.54001e-05
1.2264e-05
0.000239877
-0.00027507
-1.27547e-05
0.000255697
-5.36336e-06
0.000318644
-1.18805e-05
0.000298536
-0.000286472
-4.77707e-05
0.000247437
-0.000235621
0.000257601
-1.99361e-05
0.0001304
8.30639e-05
-0.000215817
0.00021919
3.03493e-05
0.000226759
-0.000258662
3.71393e-05
0.000271967
-0.000288736
1.68866e-05
0.000251273
-0.000239093
-1.31321e-05
0.000252225
-2.91201e-05
-0.000257265
2.56481e-05
0.000231617
-0.000228005
-2.92601e-05
0.000259765
-0.000233571
-2.61941e-05
0.000258721
-0.000266701
2.31627e-06
0.000288793
1.21839e-06
-0.00029009
0.000248327
-0.000232931
-1.85921e-05
0.000308218
-0.000300066
-7.9669e-06
0.000248595
-0.000101128
-0.000266897
2.56761e-05
0.000241221
-3.48881e-05
-0.000232009
-0.000266393
2.51161e-05
0.000241277
-1.21792e-05
-0.000267289
0.000280151
-3.45241e-05
-0.000231869
-0.000261692
1.93863e-05
-0.000266281
2.43881e-05
0.000241893
-0.000284176
-2.15884e-05
-0.000306332
2.76512e-05
0.000278643
-3.34041e-05
-0.000232877
-0.000172048
-0.000258133
2.94001e-05
0.000228733
0.000308342
-0.000308806
-0.000195805
0.000209049
-3.29281e-05
-0.000225205
0.000197534
-0.000278976
8.16776e-05
0.000283733
2.23936e-05
-0.000301953
1.76961e-05
0.000285461
-0.000280994
-5.0345e-06
-0.000257125
0.000231617
2.55081e-05
0.000171852
2.70093e-05
-0.000192467
-0.000266953
2.81681e-05
0.000238785
-0.000227361
-2.97641e-05
-3.67361e-05
-0.000230217
0.000275326
0.000297466
1.91064e-05
-0.000275799
-3.17992e-05
0.000307919
-0.000258679
-1.09264e-05
0.000298113
-0.000287232
1.49788e-05
-0.000301901
0.000286825
-0.000230609
-0.000307295
0.000287355
0.000263005
-2.55673e-05
-0.000280793
1.36081e-05
0.000165187
0.000230846
1.84078e-05
-0.000248627
-0.000197419
0.00015797
0.000236738
1.31517e-05
-0.00024989
-0.00025833
2.66093e-05
0.000231721
-1.09228e-05
0.000247661
5.74002e-06
0.000246877
-3.19817e-05
-0.000226348
0.000299471
-0.000285648
-1.37961e-05
0.000228024
-0.000226666
0.000289838
0.000237685
1.98521e-05
-0.000257537
-1.24236e-05
0.000250108
0.000246636
1.50389e-05
-0.000305527
1.5368e-05
0.00024448
2.18905e-05
3.2657e-05
-0.000199858
-0.000287359
-1.77095e-05
-0.000182869
0.000295177
-0.000149877
0.000182446
-3.29804e-05
3.04394e-05
-0.000200007
0.000172226
-0.000164364
0.000259149
-0.000239236
-1.99137e-05
0.00026183
-0.000273979
-0.00024125
0.000231657
-2.19004e-05
0.000301236
-0.000279304
0.000307842
-0.000292896
0.000242117
1.77241e-05
-0.000224975
0.00024443
-1.94545e-05
1.61001e-05
-0.000241075
-7.00003e-06
0.000260989
-0.000297203
4.89736e-06
0.000292304
-0.000174497
0.000160217
-1.74105e-05
-6.26495e-06
-0.000290929
-1.68048e-05
-0.000285139
4.28402e-06
-0.000300519
0.000135184
-0.000257477
2.37401e-05
0.000233689
0.000238197
1.32441e-05
-3.08048e-05
-0.000226657
-3.31433e-05
-0.000291881
2.10058e-05
-0.000225622
0.000204597
0.000254969
-0.000233465
-2.15041e-05
-0.000196741
0.000215789
-0.00018549
-7.45975e-06
0.000203569
0.000132054
0.000135273
3.96827e-06
0.000271137
0.000279933
-0.000305549
3.06948e-06
0.000243026
-1.98263e-05
0.000298605
-0.000278815
-0.000302206
0.000287417
1.47859e-05
-0.000258301
0.000230077
2.82241e-05
-2.64041e-05
-0.000231897
0.000301463
-0.000301091
0.000267659
-2.00722e-05
0.000304405
-0.000284363
0.00028602
-5.84977e-07
-0.000256873
0.000256873
-0.000268232
0.000295878
-0.000143871
-6.5877e-05
-7.19256e-06
0.000294458
-0.000286994
-0.000297776
0.000290943
0.000291808
-0.000278929
0.000291161
-0.000306417
1.48498e-05
3.4165e-05
-0.000240888
0.000217141
2.27774e-05
-1.44986e-05
-0.000246644
0.000228153
-1.43117e-05
0.00029851
-0.000284198
0.000263481
-1.96001e-05
0.000254224
-0.000235464
-1.87601e-05
-3.10163e-05
-0.000273814
0.000304829
1.43464e-05
-0.000297299
0.000282663
-1.45881e-05
0.000233465
-0.000218877
0.000209677
-0.000295256
0.000282896
-1.92261e-05
0.000304682
-0.000285385
0.00025102
-2.6975e-05
0.000297231
-0.000270241
-0.000295646
0.000268985
1.07156e-05
0.000244749
-0.000255465
0.000305326
-0.000312124
6.7931e-06
1.79215e-05
1.46994e-05
0.000286135
-0.000301351
6.35203e-06
0.000282497
2.23669e-06
-0.00031808
-0.000290104
0.000304774
-0.000242481
0.000243657
8.45603e-06
-0.0002264
0.000242772
-0.000293435
0.000274219
0.000285154
-0.000148159
-8.13081e-05
0.000294371
1.45043e-05
3.15122e-05
-0.00019745
0.00016295
-0.000274561
0.000257293
-0.000219535
0.00024982
0.000243411
1.92865e-05
-0.000262697
0.000236019
2.31309e-05
-0.000300902
0.000282107
0.000312349
-1.79758e-05
0.000237945
-0.000257069
1.91241e-05
-0.000222494
0.000247459
0.000294297
1.8043e-05
-0.000168973
-1.4579e-05
0.000298391
-0.000283797
-0.00014292
-0.000266415
0.000159993
0.000106423
-0.000309106
0.000295442
1.3668e-05
-0.000258699
0.000241826
1.68729e-05
-0.00015456
0.000158535
-0.000306747
0.000288877
1.79438e-05
-0.000219089
0.000182206
-9.69084e-06
0.000253101
2.0479e-05
1.76408e-05
-0.000304667
0.000286958
-0.00030099
-7.0204e-06
0.000308067
-0.000249229
0.000220109
-0.000201153
-8.52603e-05
-0.000272705
0.000249616
0.000303974
-0.00028653
-0.000189272
1.78921e-05
1.50255e-05
0.000284499
-0.000299553
-8.80603e-05
0.000239233
-0.000303301
1.95528e-05
0.000284061
-0.000207075
-2.64807e-06
-0.000298043
-0.000168327
2.05297e-05
0.000302532
-0.00028766
-1.45793e-05
-0.000170056
-0.000299253
-0.000172068
-2.19867e-05
0.000243528
0.00028964
1.71839e-05
0.000252869
5.77174e-05
-0.000285522
-0.000247213
-0.000271159
-2.33765e-05
-0.000274617
0.000300358
-0.00026296
0.000281929
-0.000162762
-4.16405e-05
0.000206152
0.000197569
1.56521e-05
-0.000213221
-1.24476e-05
-0.000285471
0.000297908
1.83597e-05
1.85533e-05
-0.000305457
0.000286993
0.000253345
-1.71361e-05
-0.000236209
1.89482e-05
-0.00030481
0.000285862
2.03561e-05
0.000232989
0.000216385
-2.46121e-05
-0.000191773
1.5753e-05
0.000282418
-0.000298164
-0.000250981
0.000117689
-0.000303694
1.85943e-05
0.000285077
0.000228374
-5.12784e-05
-0.000295103
1.20771e-05
0.00028638
0.000255837
-2.19801e-05
-0.000233857
-0.000303238
0.000106172
0.000234529
1.70521e-05
-0.000251581
0.00028033
1.68028e-05
0.000304182
-0.000285237
1.79184e-05
-0.000299837
0.000233512
1.84916e-05
-0.000252004
-1.89524e-05
-1.42043e-05
0.000298266
-0.000283951
-0.000280256
0.000299804
-0.000277427
0.000292247
-0.000303029
1.16692e-05
0.000249741
-1.62291e-05
1.1663e-05
0.000250041
-1.55121e-05
0.000298694
-0.000282778
3.95922e-05
-0.000237371