/*--------------------------------*- C++ -*----------------------------------*\
  =========                 |
  \\      /  F ield         | OpenFOAM: The Open Source CFD Toolbox
   \\    /   O peration     | Website:  https://openfoam.org
    \\  /    A nd           | Version:  12
     \\/     M anipulation  |
\*---------------------------------------------------------------------------*/
FoamFile
{
    format      ascii;
    class       volScalarField;
    location    "2.35";
    object      T;
}
// * * * * * * * * * * * * * * * * * * * * * * * * * * * * * * * * * * * * * //

dimensions      [0 0 0 1 0 0 0];

internalField   nonuniform List<scalar> 
22702
(
1
1
0.958841
1
1.01732
1
1.12119
1
1
0.890809
1.12017
1.12134
1
1.11696
0.966172
1
1
1
1.12077
1
1.11998
1
1.1192
0.896616
1.11944
0.889731
1
1.1197
0.897447
0.895305
1
1.12083
1
1
1
1.11032
1.11951
1.11946
1
1
0.893703
1
1.06291
1
1.11959
1
1
1
1
0.898523
1
0.898378
1
1.1199
1
1.12023
1
1
1
1
0.884549
1
1
0.888779
1
0.896456
1
1
1
0.890443
1
1.1188
1.07625
1
1.1186
1.12496
0.896769
1.12036
0.900233
1
1.12133
0.897526
1.11935
1.11887
1
1
1
1
0.981917
0.889826
1.12108
1
1
0.889255
1
1.11959
0.889481
1
1
1
1
1.06322
1.12112
0.891758
1
1
1.03238
1
0.898725
1
1.12097
1.12026
1
1
0.876892
0.87706
0.889488
1
1
1
1
1
0.975319
1
1.10316
1.01371
1.11999
1
1.12053
1.12146
1.11715
1.12014
1
0.89204
1
0.89059
1
1
1
1
1.12113
1
1
1
1
1.11836
1
1.00839
1
1
1
1
0.891033
1
1.00329
1
0.899937
1
1
1
1.12088
1
1.11893
0.879628
0.887646
1.11898
1.11895
1
1.02265
1.07145
1
1.11941
0.901236
1.11057
1
1
1
1
1.11705
1.09989
1
1.12113
0.884785
1.11947
1
0.895827
1
0.899062
0.88792
0.999939
1
1
1.12073
1
1
1.1184
1
1.1203
1.12102
0.899303
1
1
0.893215
1.11855
1
1
1
1.11855
1
0.891974
1
1
1.11857
1.1186
1.12068
1
1.00001
1
1
1
1.11897
1
0.888511
1.12342
1.11852
1.11991
1
1
1
0.892665
1.11892
1.06009
1
1.11869
0.895804
0.894686
1.11891
1.11922
1
1.11719
0.892583
1.10587
1
1
1
1
1.11853
1
1.07436
1.01211
1
1
1.11858
0.888787
0.924493
1
1.1181
0.890877
1.11819
1
1
1
1
1
1
1
0.898302
0.926602
0.894075
1.11851
1
1
1
1
1.10869
1
0.900884
1
0.889516
0.895194
1.11876
0.898454
1.12075
1
1
1
0.999337
0.897335
0.894423
1
1
0.887364
1
1.1213
0.89396
1
1
1.12117
0.891575
1
1.11908
0.88604
1.11863
1
0.892284
0.999382
1
1
1
0.897474
1
1
1
1
1.00317
1.07657
1
0.885575
1
1
1
1
1
1
1
1.12055
1
1.12088
1
1
1
0.88779
1
1.11839
0.898478
1
1.09275
1
1
1.12056
1
1
1
1.11836
1
1
1.11673
1.12045
1
1.02901
1
1
0.889848
1
1
1
0.888586
1
1
1
1
0.880296
1
1
1
1
1
0.895047
1.00002
1.11893
1
0.999992
1.11889
1.11911
1
1
0.898167
0.946401
1.12093
1
1
1
1.11862
0.890934
1
1.11892
1
1
0.912266
0.908772
1
0.895911
0.890656
1
1
1
1
1
1
1
1.11931
1.03238
1.11709
0.894824
0.972271
1.12222
1
1.11848
1.12049
0.889718
0.930247
1
0.892908
1
1.12394
1
1
1
1
1.11855
1
1
1
1
1
1
1
1.04631
1.12042
1
1.11854
1
1
0.897272
1
1
1
1
1.11857
1.09236
1
1
0.896555
1.11861
1.11864
1
1.11864
1.11841
1.11858
1
0.95378
1
1.11854
0.99836
1.11858
1
0.892865
0.999684
1.12073
1
1
1
1
0.897493
1.11884
1.10825
1
1.12066
1.1186
1.12096
1
1.05706
1.11805
1
1
1.08526
1.01798
1.11857
0.982128
1.11857
1
1.11862
1.11876
1.11862
1.11873
1
1.11424
0.972943
0.968278
1
1
1
1
1.11924
1
1
1
1
1
1.12067
1
1
0.998844
1.11863
1.10298
1
1.09998
1.00001
1
1
1.11889
1
0.999309
1.00131
1
1.11877
1
1.11844
1
1
1.08995
1
1.11811
1.00001
1
1.11752
1
1.11858
1
1
1
1.11849
1
1.11931
1
1.11854
1.12151
1.11862
1.11883
1
1.11984
1.11636
1
0.895933
1.11211
1.08836
1
1.11852
1
0.889357
0.883609
1
1
1
1
1
0.890548
1
1.11851
1.03483
1.11888
1
1
1
1
1
1.11875
1
1.11826
1.073
0.936414
1
1
1.03784
1.03241
1
1
1.04546
1
0.899604
1.11846
1.11847
1
1
1
1.12116
1
1.00001
1.11968
1.11896
0.987443
1
1
0.902242
1.10849
1
1
1
1
1
1.11858
1.12042
1
1.11752
1.11951
1.11861
1
1
1
1
0.893711
1.12024
1
1
1.10865
1.11823
1
1.11219
1.12077
1
1
1
1
1
1.11868
1
1
1
1
1.11968
1
1.11633
0.893818
1
0.886663
1
1
1
0.999167
0.897004
0.999739
1
1
1
1.01781
1
1
0.96359
1
1
1
1
1
1
1
0.999999
0.979222
1
1
0.999309
1
0.896206
1
1
1
1
1.09051
1
1
1
1
0.89875
1
1
1.11229
1.12011
1
1
1
0.970088
1
1
1
1
1
1
0.987151
1.00361
1.12103
1
1
1
1.11794
0.970138
1
1
1
1.11975
1.11899
1
1
1
1
1
1
1
1
1
0.890298
1
1
1.11976
0.892369
1
1.11934
1
0.889393
1
1
0.891467
1
1
1
1
1
1
1
1.11645
1.11831
1
1
1
1
1.10923
1
1.04215
0.895063
1
1
1
1
1
1
1
1.01237
1
1
1.06764
1
1
1
1.10008
1
1
1
1
0.893834
1
1
0.886588
0.893287
1
1
1.11858
1
1.00475
1
1
1
1.08577
0.891268
1
0.886913
1
0.935769
1
1
1
1.11917
1
1
1.11839
1
1
1
1.11833
1
1
1.11858
1
1
0.891387
1
1.04165
1
1
1.12166
1.122
1.0823
1.10693
1
0.892585
1
1
1.1137
1
0.888217
1
1
1
1.11858
1
1
1
1
1.07346
1
1.11266
1.11926
0.888384
1
1
0.885659
0.886558
1
1
1
1.08732
1.09203
1
1
1
1
1
1
1
1.05268
1.11933
1.0035
1
1.11656
0.890641
1
1
1
1.06891
1
1.02466
1
1.10918
1.1181
1
0.893296
1
1.12004
1
1
1.11864
1.11193
1
1.12116
1
0.889365
1
1
1
1.11985
1.11644
1.10536
1
1.11974
1.11847
1
1.11869
1
1.11813
1
0.891248
0.993888
0.885299
1
1
1
1
1
1.11849
1
1.11856
1
1
1
1.11333
1
0.898526
1.1184
1
0.894385
0.895448
0.889861
1
1.06274
1.01265
1.119
1.11843
1
1
1
1
1.11859
1
1
1.11861
1.11856
1
1.0446
0.999958
1
0.999111
1.12098
0.955946
1
0.945306
0.899692
0.8991
0.984342
1.1191
1.11707
1.02539
1.11854
1.11848
1
1
1.12055
1.12048
1.11846
1.12099
1
1.1186
0.894915
1.11837
1.11903
1.11915
1.11914
0.963125
0.972091
0.978489
1.11858
0.987391
1.11907
1
1
1.11907
1.11854
1
0.892584
1.11877
1.11851
1
1.11839
1.11846
1
1.11865
0.896066
1.119
1.11977
1.12005
1.12046
1
1
1
1.11854
1.08021
0.890917
1.11833
0.884261
1.11854
1
1
1
1
1.11801
1.11854
1
1
1.11849
0.887797
1.1188
0.896382
1
1.11785
1
0.892857
1.11925
0.921079
1
1.11836
1.11949
1.11884
1
1
1.05828
1.11923
0.895255
1.11862
1
1.11831
0.963343
1.11859
0.890579
1
1.11826
0.897513
1.11905
0.890301
1
1.11871
1
1.11981
1
1.07286
1.11461
1.09511
0.883816
1
1.11832
1
1.11858
1
1.11873
1
1
1.11872
0.996351
1.1191
0.896292
1.10827
1
1.08648
1
1.11908
1.11869
1.11909
1
1.10738
1.11863
1.11049
1.07441
1.11619
1
1.08192
1
1.11883
1
1.01934
1
1.1105
1
1.11824
1.11363
1.11348
1
1.11861
0.8823
1
0.893589
1
1
1
1.12154
1
1.11874
1
1
1
1.11867
1.11656
1.09916
1.11829
1.11812
0.886767
1.12043
1.12032
1
1.10257
1.11868
1.11552
1
1.11965
1.12066
1
1.11922
1.11822
1.119
1.11909
1
1
1
1.11866
0.880453
1
1.11857
1
1
0.88394
1
1
1.11845
1.1183
1
1.11863
1.11708
1.11845
0.9951
1.11866
1
1.11851
1.11862
1.09528
1
1
1
1.11843
1.11873
1.11864
0.985904
1
1.12153
1.11866
1.11854
1
1.11882
1.11884
1.11846
1.12144
1
1.11845
1.11772
1.10626
1.11848
1.12095
1
1.11774
1.11728
1.11858
1.1183
1.11861
0.888492
1.11877
1.11803
1
1.11867
1.11852
1.11854
1.11855
1
1.11864
1.11867
1
1.1186
1.10147
1
1
1
1.11843
1.12046
1
1
1.06834
1
1.12018
1
1
1.11848
1.11833
1.1187
1.11847
1
1
1
1.08765
1
1.11848
1
1
1.12091
1.12005
1
1.11861
0.883369
1.11864
1.11838
0.914931
1
0.882049
1.10641
1.11943
1.11826
1.11821
0.887976
1.11852
1.11898
0.887471
0.888366
1
1.11821
1.1187
1
1
1.11848
1
1.11909
1
1.10488
1
1.0591
1.11858
1.11948
1.08801
1.11035
1.12119
1.11926
1.11288
1
0.889252
1.11777
1.11859
1.12011
1
1
1
1.12061
1
1.11847
1.11853
0.926094
1
1.11847
0.999984
1
1.00001
1.00001
1.11865
1.11814
0.99955
1
1
1.11862
1.11907
1.11873
1.1187
1.11893
0.889191
1.10488
1
1.11783
1.11852
1.11854
1.11851
1
1.11865
1.11564
1.11884
1
1.11896
1.11834
0.955977
1.11863
1.11889
1
1.11873
0.954495
1.11845
0.95311
1.11862
1
1.11874
1.12284
1.11867
1.11872
1.11871
1.11917
1.11872
1.11901
1
0.979415
1.1183
1.11863
0.95578
1.11868
0.995968
1.07562
1.11841
1.11867
1.11877
1
1.11915
1.0828
1.11816
0.97783
1.119
1.11983
1
0.964423
1
1.12007
1
1.08435
1
1.1115
0.96331
1
1.11939
1.11753
1
1.11865
1.11908
1.11576
1.11755
1.11847
1
1.12033
1
1
1
0.970628
1.11869
1.11852
1.1191
1.11864
1.11914
1.11998
1.1174
1.1188
0.970261
1.00899
1
1
1.12312
1.11864
1.11864
1.11849
1.00001
1.06464
1
1.11922
1.10527
1
1
0.91868
1.11861
1
1
0.89488
1.11854
1
1.11977
1.11849
1.1212
1.11438
1.11868
1
0.884375
1.03176
1.11859
1.11878
1
1.11831
1.11843
1.06327
1.00258
1.02927
1
1.12005
1.11865
1
1
0.888894
1
1
1.11868
1.11862
1.11872
1.11877
1.1184
1.11948
1.11862
1.11962
1.11863
1
0.998865
1.11851
1.11854
0.999159
1.11856
1.11846
0.888027
0.889299
1.11883
1.12033
1
1
1.00019
1.11849
1.1188
1.11854
1
1.11851
1
0.957878
1.12017
1.12082
1
1.0594
1.11874
1
1.12011
1
1.1185
1.08324
1.11897
1
1.11826
1.12031
0.887949
1.11849
1
1.11827
1.1191
1
0.888926
1.11855
1.09908
0.999329
1.11798
1.11852
1
0.999852
1.11856
0.999648
1.11857
1
1
1.11839
1
1.11799
1.11845
0.999052
1.09597
1
1.11843
1
1
1
1
1.11846
1
1
1.11647
1
1.11876
1
1.07862
1.11777
1.1184
1
1
1.00058
1
1.11827
1.11852
1.11843
1.11866
1.11825
1.11862
1.11859
1
1.1185
1.11898
1
1.11852
1.11861
1
1.11877
0.978251
1.01594
1.1184
1.11865
1.11842
1
1.11863
1
1.1185
1.11857
1
1.11848
1
1
1
1
1.11864
0.883562
0.999412
1
1.1184
1.11903
1
1.1186
1
1.00153
0.890052
1.11863
0.999883
1
1.11898
0.999538
1.11878
1
0.99994
1
1.11889
1.11787
1.11846
1.11983
0.893805
1.11843
1.11792
1.11864
1.03223
1
1
1.05446
1.11847
0.881995
0.895621
1
1.11857
1.1186
1.11841
1
1
1.11802
1.11845
0.999967
1
1.08967
0.88518
1
1.02345
1.12048
1.11665
0.9995
1.1185
1.1218
1
0.999726
1
1.11899
1.12088
1.05113
1
1.11481
1
1.00027
1.11886
0.892872
1.1186
1.11848
0.999136
0.999974
1.10343
1
0.999909
1
1.11874
1
1
0.881622
1.1186
1
1
1
1
1.11885
1.07009
1
1
0.88709
1.11865
1.07038
1
1
1
1.11378
1.1149
1.11979
1
1
1.1204
1
1.11862
1.11861
1
1
1.11903
1.11851
1.11511
1
1
1.1191
1.11876
1
1
1
1.11875
1
1
1
1.11905
1.12025
1.11931
1
1.11893
1.00001
0.907418
1.1186
1.1184
1
1.12007
1.11617
1.12155
1
1
1.11922
1
1.06611
1.11819
1
0.890169
1
1.11899
1
1
1.11766
1
1
1
1.03939
1.11809
0.903103
1
1.11884
1
1
1.11878
1
1.11941
1
1
1.11883
1.11856
1
1.00001
1
1
1
1
1
1
1.11988
1.11845
1
1.11958
0.894661
1.12036
1
1.11854
1.11953
1.11876
1.11923
1.12167
1
1
1.11737
1
1.07823
1.11966
1.11853
1
1.11874
1.1177
1
1.1087
1
1.11851
1.07988
1.11767
0.999245
1.11805
1.11022
1.11877
1.11901
1.01081
1.11857
1.11905
1
1.11862
1
1.11851
1
1
1
1
0.998932
1.11851
1.11848
1.09842
1
1.119
1
1
1
0.879339
1
1.11569
1
1.10851
1.11649
1
1
1
1.10908
1.12083
1
1
1.1185
0.887619
1.02342
1
1.11961
1.11865
1.10908
1.11529
1.11858
1
1.11827
1
1
1
1
1.11844
1.11876
1
1.11746
1.01779
1.11886
1.11157
1
1
1.11182
1
1
0.889952
1.08642
1
1
1.11989
1
1.11911
1.10937
1
1.10963
0.88809
1.11881
1.11846
1.11876
1
0.895755
1
1
1
1.11861
1.10303
1
1.11722
1.11868
1
1.11855
1
1
1
1
1.11867
0.999809
1
1.11902
1
1
1.12043
1.11876
1
1.11898
1.02444
1.00001
1
1.11903
1
1.11904
1
1.00368
1.11862
1
1.11871
1
1
1.03848
1.11885
1
1
1
1
1
0.998934
0.890207
0.885705
1.00622
1
1.00796
1
1.00797
1
1.11865
1
1.07822
1
1.11878
1
1
1
1.11868
1
1.09781
1.11827
1
1.06624
1.1183
1
1
1.12134
1.11841
1
1
1.01642
0.883758
1
1.11893
1
1
1
1
1.02197
1.11846
1
1
1
0.890403
1
1.11881
1.1183
1.12173
1
1
1
1
1.06177
1.12134
1
1
1
1.11829
1.11869
1.01729
1
1
1
1.11894
1.11852
1
0.888978
1.11845
1.11855
1.11895
1.1182
1.11934
1
1
1.11934
1.11972
1.11837
0.891124
1.01215
1.1186
1
1
1
1
1
1.11861
0.892252
1
1
1.11839
1.05901
1
1.1202
1
1
1
0.894868
1
1
1.03397
1.11838
1.11847
1
1.12099
1.11911
1
1.02351
1
1.1176
1
1.11843
0.887531
1
1
1
1
1.11853
1.00002
1
1
1
1.11474
1
1
1
1
1.11838
0.89397
1.09404
1.11933
1
1.1185
1
1
1
0.999169
1
1.12006
1
0.938325
1
1
1.00001
1.11892
0.890492
1
1.11845
1
1.11936
1.11801
0.893635
1
1
1.11364
1
1
0.887918
1
1.11666
1
1.114
0.999829
1.11856
1
1
1
1
1.11931
1
1
1.11812
1
1
1
1
1
1
1
1
1.0813
1
1.0407
1.11837
1
1
1
0.891928
1
1
1
1
1.11876
1.11848
1.01815
1
1
1.11885
1
1
1.11893
1
1
1
1
1
1
1.11835
0.929358
1.11864
1.11903
0.999098
1
1
1
1.0725
1
1
1.11878
1.11865
1
1
1
1
0.893739
1
1
1
1.07546
1
1.11864
1.11938
1
1.1189
1
1
1
1.0681
1
1.12005
1
1.11841
1
1
0.998964
1.11875
1
1
1
1
1
1.11914
1.00001
1
0.88853
1.11814
0.886219
1
1.11847
1
0.998734
1
1.1188
1.11821
1
1.12097
0.964017
1.11838
1.12058
1.00001
1
1
0.894859
1
1
1
1.11866
1.07159
1.11775
1
1
1
1
0.999099
1.1189
1
0.886567
1
1
1
1
1
1
1
1.12023
1.11796
1.11855
1
1
0.999136
1
0.996405
1
1
1
0.88721
0.995361
1
0.894014
0.892988
1
1.11876
1.11858
1
1.11823
1.11845
0.888959
1.0802
1
1
1
0.886591
1.11883
1
0.886658
1
1.11976
1.02417
1
1
1
1
1.1182
1.11962
1
1
1.11865
1
1
1.12031
1.11855
1
1.11036
1.11844
1.11921
0.989556
1.11857
1.00249
0.887249
1.09317
1.11869
1
1
1
0.888692
1
0.889984
1.11783
0.988909
1.11843
0.987063
1
1.11841
1.05771
1
1
1.11824
1
1.05114
1.11807
1
1
1.11856
1.1203
0.889481
1.07323
0.999969
1
1.07337
1
1.11998
0.985284
1.12075
1.11918
1
1
1
1
1.11792
1
1
1.11809
0.999894
1.11846
1.09552
1.11996
0.890985
1
1
1
1
1.11864
1.00001
1.11873
1
1.11863
1.11885
1.0161
1.119
1.03889
1.11886
1
1.08322
0.899978
1.12017
1.11866
1.09565
1.02417
1.11941
1.11851
1.11847
1.11843
1
0.975204
1.01904
1
1.11875
1.06095
1.11824
1.00001
1
1
0.90558
1.12058
1.11896
1.09871
1
1.04738
1
1.11872
1.11916
1
1.119
1.11885
1
1
1
1.11899
1
1.04954
1.11764
1.08581
1
1.11791
1
1
1
1
1
1
1
1
1
1
0.900688
1
1.11409
0.889645
1.07236
0.999588
1.11815
1
1.06589
1
1.0789
1.10122
1
1.00055
1.11807
0.971292
1
1.11908
1.11603
0.985125
1
1.11897
1.11865
1.11896
1
1.11843
1.11839
1.11796
1
1.05841
1
1.00002
1.11844
1
1.1187
1.01911
1.11902
1
1
1.11908
1.11853
0.903466
1
1.11889
1.09179
1.1184
1
1
1.11901
1.11863
0.999505
1
1.10713
0.99913
1.11889
1.00002
1
1
1
1
1.0581
1
1.09477
1.11808
1.09118
1.118
1
1.00067
1
1
1.11944
1
1.11845
1
1
1
1
1
1
1.01585
1.06677
1
1
0.893686
1
1.11802
0.899661
1.11855
1
1.06444
0.999928
1.119
1.07897
0.893726
1.06845
1.00001
1.11847
1.11828
1
1.07525
1.11784
1.1184
0.999539
1.12034
1.11527
0.884085
1
1
0.999422
1
1.11935
1
0.900201
1.11803
1
1
1.10632
1
1.11817
1
1.11896
1
0.897234
1
1
1.11842
1.11982
1.12013
1
1.12058
1.11858
1.11932
1
1
1.11538
1
0.919363
1
1
1
1.11877
1
1.11858
1.08016
1.11993
1
1.11863
0.999822
1
1
1
1
1
1
0.903864
1
1
1.11871
1
1.11917
1.12074
1
0.897182
0.888113
1
1.11894
1.02148
0.889206
0.88631
1
1.11859
1
1.11786
0.89088
1.00037
1
1
0.999858
1
1
1
0.999975
1.05094
1.11876
1
1
1.11865
1.07273
1
1.10605
1.11609
1.1185
1.05122
1.11931
1
1.11874
1
1.11743
1
1.11751
1.11902
0.99909
1.11804
1.11725
1
1
1
1
1
0.9777
1.11923
1.00001
1.00001
0.896785
0.999994
0.888204
0.892406
1
1.11833
1.1185
1.11827
1
1.11856
1
0.89034
1
1
1.1182
0.943946
1.11824
1
1.11876
1
0.995806
1.11888
1
1
1
1.11875
1
1.11885
0.89016
1
1
1.07174
1
1
1.06845
1
1
1.11892
1
1
1
1
1
1.11999
1.11827
1
1.11869
1.11855
0.891923
1.05817
1.12041
1
1
1.10805
0.999692
1
1
1.11846
1.11947
1.07859
1
1.11822
0.898231
1.11241
0.999822
1
1.11816
1.00001
1.1172
1.0975
1.09265
1
1
1.11845
0.916923
0.894853
1
1.11885
1
1.11905
1
1.0727
1
1
1.11841
1.07899
0.887554
1
0.999575
1
1
1.00745
1.05111
1.11855
1
1.11866
1
1
1
1
1
1
1.01927
0.887446
1
1
1.01101
1
1
1
1
1
1.11894
1
1
1.11861
1.11861
1.08993
1
1
1
0.953497
1.11844
1.08582
1
1
1
1
1.11891
1
1
1
1.11992
1
1
1.08861
1.12347
1.01281
0.92475
1.11644
1.08731
1.11903
1
1.06377
1
1
1
0.892186
1.0008
0.905533
1
0.890496
0.884482
1
0.888954
1
1
1
1.05483
1
1.11818
1.11865
1.00021
1.05951
1.10013
0.89156
0.92215
0.968714
1
1.1185
1.12015
1.11869
1.11862
1.10332
0.962662
1
1.10389
1
1.11438
1
1
0.998955
1.00267
1
1
1
1.11874
1
0.892354
1
1.11882
0.89054
1
1
1.11859
1
1.11842
0.999829
1
1
1.11864
1.10703
1
1.12242
1
1
1.00434
1
1.05708
1
1
0.890885
1
1
1.11619
1
1.11859
1
1.00001
0.892318
1
1
0.88682
1.00031
1
1.11952
0.889942
1.12021
0.887092
1.11888
1
1
1
1
1
1
1
1
1
1
1
1.11409
1
1.11898
1.12002
0.89126
1
1
1
1
1
1
1.11568
1
1
0.890261
1
1
1.11953
1
1
1.05024
1.10166
0.892491
0.888032
0.902621
0.916289
1
0.998953
0.899092
1.00011
1.11197
0.999114
1
1
1.11871
1
1
1
0.925348
1
1.04697
1
1
1.05165
1.11853
1
0.888642
1
1
1
0.999005
1
1.11888
1.11845
1
0.8866
1
1.06832
0.890403
1
0.968757
1
0.998939
0.886744
1
1
1
0.998793
0.890901
1
0.890701
0.999542
1.06671
1.10708
0.888665
0.893866
1
0.997145
1
0.999616
1
1.11832
1.11868
1
1.00626
1.11848
1.11816
1
1
1.11844
1
1
1.00001
1
1.1184
1
1
1.00534
1
0.999597
0.905822
1
1
1
1
1
1.11753
1.01093
1.00001
1
1
1
1
1
1.00001
1
0.89106
1.02872
0.99961
1.12019
1.11459
1
1.00385
1.11833
1.10401
1
1
0.898879
1.11853
1
1.1199
1
1.11903
1.08307
0.891999
1
0.890092
1.11661
0.999906
1
0.888444
0.900697
1
1
1.10199
1
1
0.885382
1
1
1
1.04058
1
0.890222
1.11832
1
1
1
1
1.11884
1
1
1.11645
1.10756
1
1
1
1.11944
0.894767
1
1.11849
1.11857
1
1.09643
1
1.00001
1
1
1.11084
1.00649
1
0.894842
1.06564
1
1
0.999284
1
1
1.11966
1
1
1.00001
1
1.11906
1
1
1
1
1
1
1
1.05595
1
1.1191
1
1
1.1189
1
1
1
1.11858
1.11877
1.01305
1
0.999319
1
1
1
1
1.11953
1
1
1.11895
0.888357
1
1
1
1
1
1
1.09798
1
1
1.11982
1.11916
1
1
1
1.11863
1.11845
1
0.999923
1.11855
1
1
1
1
0.895637
1.00872
0.998941
0.998741
1
1
0.889163
1.11937
1
0.898023
1
1.11911
1.11437
0.892785
0.999823
1.11857
1.11885
1.11849
1
1
0.97989
1.10781
1.10011
0.901955
1
1
1
1.11733
1.11847
0.885113
0.999223
1
1.11854
0.892236
1
1.117
0.890103
0.992894
1.00192
1
1.12051
1
1
1
1
1
1
1.00003
1.11134
1
1
1.11855
1
1
1
1.11845
1
0.891421
1
1
1
1.04451
1
1
1
1
1
0.936289
1
0.89131
1
1.11831
1.00002
0.958971
0.960267
1
1.00095
1.06629
1
1
0.890138
1.11824
1.11831
1.11848
1
0.88106
0.895732
1
1.11874
1
1
1
1
1
1.00001
1
0.895618
1.07824
1
1
0.892451
0.998055
1
1
1
1
0.885872
1
0.896589
1
1
1.11839
1
1
0.887307
1
1.11876
1
0.890046
1
0.892402
1
1.00248
1.11862
1.12219
1
1
1.11983
1
1
1.02846
0.999083
1
0.999495
1
1.11926
1
0.89945
1
1.12111
0.999717
1
1
0.941306
1
0.999732
0.886338
1.11823
1.04803
1
1
0.973973
1
1
1
0.937204
1
1
1
1.11862
1
0.892999
1
1
1
1
0.885245
1.11878
1.11225
0.888384
1
1.11941
1
1
1.11852
1.11915
1.10195
0.887546
0.999354
0.999785
1
1.11848
1
1
1
1
1.11876
1.00001
1
1
1.11874
1
1
1.11838
0.890874
1
1
1
0.891362
1
1
1
0.999599
1
1
1
1
1.09481
1
1.12001
1.11889
1.12118
1.1183
1.11847
1.11873
1
1.11891
1
1.11846
1.119
1
0.999669
0.888236
1.10361
0.99997
1
1
1
1
1.00025
1
1.02119
1
1
1
0.956773
1.11835
1.11891
1.11906
1.10708
0.999961
1
1.00659
1.1184
0.999399
1.01841
0.999232
0.890049
1
1.00001
1
1
1
1
1
1.11896
0.89019
1.11898
1.11857
0.998575
0.880529
1
1
1
1.11841
0.884212
1.10632
0.886872
1.11849
1.11976
0.892309
1.11997
1.00681
1
1.11921
0.939642
1
0.999631
0.884614
1
0.890267
1
1.11875
1.11767
0.924851
1
1.11901
0.889397
1
0.896693
1
1.11872
1
1
1.1147
1
0.948804
1
0.999899
0.890039
1.11646
0.999856
1
0.888695
1
1
1
1
1.06969
1
1.11838
1
1
1.12237
1
1
1.11853
1
0.8901
1
0.893214
1
1
1
1
1
1.11431
1.07126
1.11865
1
1.11873
1.11103
0.887573
0.886906
1
1
1.11859
1
0.890596
1
0.99631
1
1
1.11889
1
1.12039
0.887482
1.12057
1
0.888768
1
1
1.11997
1.11822
1
1.00001
1
1.12108
1
1
0.879041
0.999826
0.891041
1
1
1
1.11909
1.11842
1.11973
1
1
0.899652
1
1.11755
1
1
1
1.11637
1.11858
1.11841
0.882476
1.11922
1.11854
0.898932
1.11964
1.00001
0.898114
1.00572
1
1
1.1188
0.879235
1.07845
0.879976
1.11861
0.999242
0.885266
1.11878
1
1
1
1
1.11873
1.11936
0.894844
1
1.00001
0.89008
1.00001
1
0.893983
0.897695
1.08526
1.11981
0.999546
1.11869
1
1.1202
0.95069
0.887623
1.1186
1.12278
1
1.11894
1
1
1.11871
1
1.09291
1.11978
1
1
1
1
1.11839
1.11728
1.11873
1
1
1.11917
1.12026
1.11905
1
1.11834
1
1
1
1
1
0.892665
0.952374
0.889443
1
1
1.11814
1
1
1.11974
0.881997
1
1.11843
1.11724
1.11461
0.87803
1
0.886914
1
1.00001
1.11949
1.06042
1.12032
1.1092
1
0.899238
1
1.11665
1.08747
0.89357
1
1
1
0.93808
1
1
1.12041
1
0.89452
1.1186
1
1
1
1
1
1.09775
1.02899
1
1.11882
1
1.11948
1
0.999155
1
1.11881
1.11938
1.11821
1.11955
0.999882
1.1206
1
1.11858
1.11884
1.10212
1
1
0.886327
1.12
1
1
1.11998
1.11889
1.11678
1
1.11872
1
1
1.00001
1.1196
1.1178
1.03403
1.02891
1.11866
1.11871
0.899136
1
1
1
1
1
1.04496
1
1
1.1021
0.891039
0.999987
1
1.11877
0.999964
0.999949
1.01942
1.11094
1.12028
0.974835
1
0.889771
1
0.999856
1.11846
1.11934
1.11737
0.999704
1
1
0.892066
1
1
1.11848
1.01412
1
1
1
1
1
1
1
0.999982
1.11924
1
1
1
1
1
1.08273
1
1.05963
1
1
1.11861
1.12024
0.89155
0.999654
1
1
1
0.896515
1.12036
1.11864
1
1
1
1
1
1
1
1
1.11895
1.1171
0.891398
1.0145
0.895455
1
0.893637
1
1.11859
1.03412
1
1
0.906017
1
1.11472
0.947319
0.99891
0.882314
1
1
1.11981
1.00001
0.999064
0.882345
1.12003
1.12067
1
1
1
1
1.11147
1
1
1.11853
0.999701
1.11966
1.00001
1
1
0.886744
1
1
1.11831
0.888004
0.936965
0.89307
1.11859
0.999809
1
1.11993
0.889344
0.893201
1.00595
1
1
1.11937
1.00001
1.05508
1
1
1.11968
0.891073
1
1
1.00004
1.11992
1.00004
1.11554
1
1.00001
1
1
0.918305
1
0.937955
1
1
1.11927
0.888146
1
0.936895
0.940035
1
1
1.11842
1
1
1
1.1189
1.11821
1.00001
1.11602
1.11965
0.939055
1.11851
1.1144
1
1
1.1185
1
1
1
1
1
1.12094
1.11844
1
1
1
1.11851
1.00007
1
0.888368
0.920916
1
1.00001
1.04801
1
1
0.972596
0.896377
1
1
1
1.12008
1.1097
1.11853
1
1
1
1
0.891964
1
1.11802
1
1.11766
0.890793
1.12004
1
1
1
0.898353
1
1.1191
1.00001
1
0.891421
1.04656
1
0.999901
1.11939
0.882234
0.889948
1
1.11961
0.88656
0.88698
1
0.887929
1
1
1
1
0.883371
1
1
1
1
1.11986
1
1.0924
0.885822
1
1
1
0.889663
1.11848
1
1
0.999135
1.11608
1
1.11885
1.11955
1
1
0.906491
0.889869
1
1
0.89041
1.04172
1.05805
1
1
1.11989
0.999254
1
0.999359
1.12036
1
1
1
1
1
1
1.11849
1
1.04613
1.04192
0.907312
1.10605
1
1.1187
1.11862
1
1
1
0.973607
0.889995
1
1.06655
0.999895
1.10624
1
1
1
1
1
1.0018
1.05704
1.1187
1.119
1
1.11882
1
0.902854
1
0.999272
0.999936
1
0.885686
1
0.895213
1.00001
1.11926
1.11994
0.884342
1.1205
0.899575
0.998872
1.09188
0.891436
1.08879
1
1
0.99955
1
1
1
1.00002
1
0.890293
1
1
1
1
0.999873
1.11896
0.942385
1
1
1
1.01095
1
1
1
1.07306
0.924232
1
1
1
1.01357
1.12048
1
0.880857
1
1.11898
0.976819
0.889192
1
0.887115
1
1
1.11283
0.999485
1.10911
1
1.00263
1
1
1.11893
1
1
1
1
1.02662
1
1.1186
1.11878
1.11949
0.887665
1.1188
0.999168
1.1004
1
1
0.879049
1
1
0.887659
1.11964
1
1
0.999986
1
1
1
0.880369
0.883703
1
1.1189
1
1.06006
1.11856
0.887823
1.0997
1
1
0.89529
1
1
1.11865
1.11831
1.0467
1
1
1.00038
1.1195
0.886664
0.889575
1.11989
1.11851
1.08606
1.05052
1
0.969928
1
1
1
1.1114
1.11807
1.11806
1
1
1.11946
0.889625
1.10679
0.885086
1
0.894674
1
0.889484
1.11854
0.888939
1
0.997958
0.902978
1
1
1
0.95752
1.11241
1.11839
1.11958
1.1189
1
1
1.11995
1
1
1.11846
1
0.888891
1
0.885992
1
1.11919
1
1
1.00868
1.09423
1
0.999668
0.889536
1.11865
1
0.881895
1.02552
1
1
1.09187
1.11866
1.11847
1
1.11812
1.03446
1
1.00704
1.11849
1
1
1
1
1.11858
1
0.886343
1.11829
0.887212
0.887348
0.950846
1.11815
1.04456
1.11794
1
1.11875
0.999199
1.00001
1.11867
1.12033
1
1.11897
1
1.11819
1
1.1198
1
1.00001
0.99999
1.11897
0.892556
0.892247
0.999446
1
1
1
0.885915
1
1.08131
1
0.883633
1
1.04957
1.11885
1.11886
1
1
1.00001
0.999828
1
1.11969
1.1187
1
1.05253
1.11865
0.956674
1.11885
1.00007
0.880829
1.02809
0.887992
1
1
1.02252
1.1199
1
1
1.01422
0.999588
1
0.882371
1
0.931071
1
1.11858
1
1
0.886492
1.03018
1.02049
0.999576
1.11834
1.11853
0.932875
0.999437
0.887033
0.895153
0.888234
1
1
1
0.999744
0.913515
0.897099
1
1.11853
0.999925
1.11864
1.11896
1.12072
1.11825
1
0.890402
1.11841
0.889011
1
1.11889
1.11956
0.999028
0.950038
1.11875
1.08638
1
0.887977
1
1
1.12081
1
1.00745
1.11898
1
0.888934
0.88574
1
1
0.879905
0.888974
1.11845
1.00001
1
0.879826
0.884378
1.11997
1.11344
1.11117
1.11961
1.03775
0.9958
1.05188
1.11757
1.09618
1
1.06159
1
0.88607
0.961333
1
0.88455
1.11865
1.00636
1.11894
1
1.11843
1.11934
1
1.11895
1.11865
0.893259
1.11905
1
1.1196
1
0.920138
0.89282
1.1186
1
1
1
0.888598
1.11843
1.1186
1
0.895059
1
1
0.891014
1.00001
0.885505
1.11957
1
0.949012
0.888027
1
1
1.07091
1
1
1
1.02277
0.891712
1
1
1
1.11906
0.888089
1
1.11876
0.880952
0.882246
1
1
1.11982
1
1.119
1
1.11854
0.894708
1
1
0.892242
0.944492
0.886276
1
1
1
1
1.11787
0.880914
1
0.886544
1
1.11948
1
1
0.980016
1
1
0.948577
0.999914
1.00001
1
0.888971
0.893807
1
1
1
1
0.942839
1.118
1.11963
1
0.887413
0.889484
0.973104
0.896058
1
0.951269
1
0.888507
0.996326
1
1
0.885926
1
1.11803
1.11716
0.891968
1
1
1
1.11705
1
1.01359
0.949196
1.03883
0.895034
1.05105
0.888457
1
1
0.914307
0.972466
1
1.01514
1
1
0.892434
1
0.983443
1.01514
0.887952
1
1.09815
0.923726
0.964842
1
1
1
0.891573
1
0.889356
0.889509
1
0.954474
0.888843
1.02137
0.922644
0.880587
1.11853
1
1.1187
1.06789
0.920912
1.11864
0.887789
0.999718
1.11925
1
1
1.11823
1
0.916589
1
1.02107
1
1
1.11845
1
0.932546
0.947014
1.12078
0.981681
1
0.921039
1.11878
1.1199
0.971977
1
1.11873
1.03444
0.955715
1
1.00613
1
0.896549
1.05387
0.930995
0.924664
1
1
0.895187
1.11882
0.991887
0.886246
0.886732
0.960077
1
1.00628
1.11943
1.11903
1
1
1
0.893332
1.06055
1
1.11919
1.1076
0.883063
1
1.02589
0.965398
1.07581
1.10781
1
1.01368
1
1.00002
0.880458
0.954488
1
1
0.946095
0.881302
1.01201
1
1.00001
0.874295
1.05759
1
1.11597
1
1.01334
1.07029
1
1.11592
1
1
1.11844
1
0.883364
1.11931
0.903417
1.03594
1
0.895415
0.999977
1
1.00001
1
0.935298
1.00746
0.884606
1.08869
1.12024
0.879538
1
1
1
1
1
0.992663
0.897802
1.01346
0.88255
0.890434
1.01909
1
0.99994
1.03261
1
1
0.892692
1.00062
1
1
1.03669
1
1.1194
1
1.11938
1.02572
1.00543
0.891334
1
1
0.883487
1
1
1
1
1.1168
1.01296
0.999442
1
0.88256
1.01501
1
1
1.08129
1
0.889575
1.11818
1
1
1
1.11818
0.890082
0.963558
0.88714
1.09125
1.11946
1
1
1.11856
1
0.888906
1
1
1
1
1
0.935976
1
1.11814
1
1
1.04531
1.11905
0.898274
0.963502
1
1.11879
1
1
1
1
1
1.11876
1.11979
0.887824
1.11854
0.879297
1
1
1.11851
1
1.12017
1.00378
1.00819
1.0202
1.11897
1.02077
1.08496
0.884577
1
0.881381
0.997375
1
1.11859
1
1
0.883946
1.11914
1
1.12012
1
1
1
1
1
1
0.890822
1.11951
0.957958
1.11846
1
0.888783
0.893417
0.913784
1.11737
1.1189
0.992071
1
0.937133
1
1.04769
1
1.11848
0.881454
0.891952
0.958002
1
1.11883
1
1.02125
0.899877
1
1.11999
1.10354
0.999678
1
1.11867
0.892888
1.11865
1.11855
1.11917
0.890697
1.02528
1
1
0.886883
1
0.945975
0.949423
1
1.00001
1.119
1
1.1197
1.02677
1
1.01235
1.12082
1
0.891722
1
0.931812
1
1
1.09959
1
0.945575
1
0.893795
1.01053
0.987798
0.885215
1.11828
1.09687
1.11963
0.884726
0.909383
0.998761
1
1
0.906393
1.11264
0.893329
0.999992
1
1.11857
1.11959
0.97078
1
0.893483
0.90866
1.08238
0.993512
0.880544
1
0.889486
1.03443
0.895461
1
1.00002
0.945082
1.11987
1.11881
0.951548
0.999886
1
1
0.91004
1
0.891503
1
0.888841
0.89267
1
1
1.00001
0.889311
1.11861
1
1
1.00002
1.00001
0.890029
1.11875
1.11843
1
0.88358
1.12003
1
1.02579
1
1
1.11873
0.886647
1
1
0.885685
0.924038
0.890378
0.887204
1
0.904535
0.999185
1.02986
0.881094
1
1
1.0365
1
1.10561
1
1
1.08311
0.898743
1
0.892079
1.03427
1.11855
1
1
0.894027
0.89336
0.880134
0.914322
0.883338
1.09132
0.999834
1
1
1
1
1.11929
0.880151
1
0.981354
0.999905
0.99959
0.999981
0.928476
1.03524
1
1.1186
1.11859
1
1
1.11501
1.00001
1
1.11858
0.892571
1.11741
1
0.886478
1.11872
1.00002
1
0.950481
1
0.887488
1
1.11912
1
1
1.11944
1
1
1.11945
1
1
1
1.11992
1
0.92519
0.918159
1
0.882553
1.11896
1
1
0.992323
1
1.11874
1.07098
1.09692
1
1
0.890731
1
0.892069
1.12005
1.11911
1.11842
1
1.11972
0.892625
1
0.891494
1.09694
1.10901
1.11843
1.11861
0.923885
0.885191
1
1.08138
1.11963
1.1191
1.11858
0.925067
1.04791
1
1.0934
0.91876
1
1
1
1.00001
0.967511
1
1.11907
1
1
1
1
1
1
1.00002
1.11804
1
1.11915
1.09063
0.891093
1.11953
1.00815
1.06016
1
1.11826
1
0.889956
1
1
1
1
1.1032
1
0.884494
1.11818
0.881848
1.11881
1.09656
1.06621
1
1.02501
1.05989
0.998696
0.891535
0.927678
1.00001
1
0.977189
1
0.876504
1.11958
0.879628
0.981357
0.955078
1
1
1
1.00349
1
1
0.890864
0.998744
1.12074
1
1.11861
1
0.892061
1
1
1.11853
1.11804
0.889476
1
1.11946
1
0.94024
0.887059
1.11912
1.10772
1
1.02177
1.11864
0.999624
1
1.0522
1.10542
1.11838
0.998856
1
0.999999
1.10242
1
1
1
1.11861
0.999575
1
1
1.11847
1
1
0.893592
1
1
1
1.11961
1
1
0.956776
1.04164
1.10968
0.931573
1
1.11864
1
1.04448
1
1.11866
0.999203
1.11848
1
0.891924
1
1.08242
1
1
1.11151
1
1.11891
1
1.11973
0.906571
0.890331
1.11947
1
1.10105
1
1.1189
1
1
1.00001
1.11868
1.11967
1.03507
1.11879
0.998603
0.888637
1.11902
0.962584
1
1.11849
1
1.11882
1
1.11903
1.11896
0.998926
0.8927
1
1.11857
1
1.00989
1
1
0.999414
0.92804
1.10735
1
1.10587
1
0.962583
0.882262
1.11799
1.11852
0.911802
1
1.1186
1.11875
1.11863
0.899043
1.11835
0.893941
1.1188
1.11752
1
1
1.11852
1
1
1
1
0.890306
1
1
1.11913
1.11846
1
1.11848
1
1.11906
1.11961
1
1.10091
1
0.884793
1.11823
1.09046
1.0363
0.885461
1.11874
1
1
0.884621
1
1
1.11855
1
1
0.933042
1
1.11882
1.00003
1.11997
0.886232
1.12039
1
1.1187
1.11427
0.96945
1
1.11914
0.922175
1.11862
1.0839
1.11851
1.11956
0.999213
1.12044
1.11865
1.11845
1.11902
1.00021
1
0.897497
1
1.12013
0.949781
1.11007
1
1.11658
1
1
1
1
1
1.118
0.883096
0.895332
1.1193
1.11849
1
1
1
1
1
1.11782
1.11096
1.11862
1.00758
1
1
1
1.00001
1.11838
1.11857
1
1.11888
1.11922
0.895727
1.08615
1
1.11861
1.12022
1.11775
0.999401
1.11868
1.11848
1
1.11208
1
1
1
1
1
1
1.11886
1.1203
1.11086
1.11849
0.886457
0.906251
1.11859
1.11844
1
0.890771
0.983972
1
1.06121
0.879371
1
0.999843
0.999507
0.890435
1
1.11884
1
1
1
1.11956
0.984318
1
1.11877
1.11847
1
1.11853
1
1
1.11862
1
0.891575
1
1.11942
1
1
0.895699
1
1.11819
1
0.884415
0.883868
1
1.11438
1
0.884763
0.966847
1
1.1185
1
1
1
1.12017
1
0.887963
1.01826
1.11876
1.11851
1.11856
1.01299
1.11904
1.11853
1
1
1
1
1
1.11842
1
0.999792
1.11813
1
0.888709
1
1.1184
1.06002
1.01914
1.05937
1.01936
1.12065
0.901146
1.11859
1
0.885042
0.999202
1.11864
0.983866
1.11851
1.11852
1.11695
1
1.11894
1.11838
1.11859
1
1.00001
1
1
1.11896
1.08691
1
1
0.884824
0.99904
1
1.11885
1
1.11862
1.11888
1.11935
0.976268
1.11862
1.11877
1.00361
1.06155
1.11894
1.11887
1
1.11043
0.948525
1.11297
0.998259
1.11896
1
1.11856
1.11907
1
0.894552
0.982735
0.914321
1
1.02497
0.999107
1.1195
1
1
0.998881
1
1.0622
1.11152
1
1
1.11859
1
1
1.08838
1.11964
1.11408
1.11886
1.11869
1
1.1188
0.918442
1.1192
1
1.00032
0.892929
1
1
0.922606
1
1.04223
1
1.11897
1
1.11656
1.07745
0.891659
1
1
1
1
1
1.11853
1.00333
1
1.11957
1
1.11834
1.11871
1
1
0.992474
0.999954
0.879424
0.889098
0.919512
1.02536
1
0.99954
0.884816
1.00001
1
1.11869
0.98092
1.11132
1.10401
1
1
1
1
1
1.11891
1.11868
1
1.11869
1
1.11948
1.08262
0.998821
1
1
1
1.07087
1
0.987984
1
1.11887
1
1
1.11862
1
1
1
1
1
1.1189
0.885327
0.998769
1.10719
1.1186
1
1.1186
1
1
1
1
0.898408
1
1.11903
1.11853
1.11846
1.12042
0.988411
1
1.10208
1.03156
1.11956