/*--------------------------------*- C++ -*----------------------------------*\
  =========                 |
  \\      /  F ield         | OpenFOAM: The Open Source CFD Toolbox
   \\    /   O peration     | Website:  https://openfoam.org
    \\  /    A nd           | Version:  12
     \\/     M anipulation  |
\*---------------------------------------------------------------------------*/
FoamFile
{
    format      ascii;
    class       volScalarField;
    location    "12.7";
    object      p;
}
// * * * * * * * * * * * * * * * * * * * * * * * * * * * * * * * * * * * * * //

dimensions      [1 -1 -2 0 0 0 0];

internalField   nonuniform List<scalar> 
9801
(
0.652741
0.659548
0.662883
0.66618
0.668715
0.668751
0.668785
0.671092
0.674494
0.680209
0.691181
0.700844
0.706762
0.710973
0.714706
0.717975
0.718897
0.717176
0.718483
0.721625
0.726072
0.735035
0.747843
0.756658
0.762098
0.7664
0.77036
0.772495
0.769553
0.769174
0.772088
0.776306
0.783562
0.797799
0.810087
0.817291
0.822513
0.826929
0.829633
0.825993
0.823714
0.826394
0.83084
0.837685
0.852106
0.868526
0.878321
0.884528
0.889749
0.89336
0.888303
0.883569
0.885961
0.891201
0.898537
0.914738
0.935457
0.947828
0.955368
0.961581
0.966395
0.958674
0.951141
0.953838
0.960216
0.969948
0.992494
1.01768
1.03305
1.04244
1.04992
1.05482
1.04171
1.03069
1.03463
1.04406
1.06196
1.09764
1.12802
1.14589
1.15848
1.1694
1.16961
1.14542
1.13432
1.14544
1.16509
1.21076
1.2707
1.31104
1.33941
1.36691
1.38349
1.36911
1.35836
1.37842
1.44884
2.79361
10.3544
0.659324
0.666935
0.670045
0.673022
0.675288
0.675427
0.675628
0.677747
0.680728
0.685853
0.697288
0.707586
0.713594
0.717781
0.72129
0.724299
0.725202
0.723815
0.725054
0.727963
0.731792
0.740518
0.754116
0.763186
0.768618
0.772798
0.776442
0.778381
0.775834
0.775486
0.778181
0.781962
0.78852
0.803127
0.81598
0.823308
0.828406
0.832633
0.835396
0.832204
0.829981
0.83234
0.836398
0.842268
0.856655
0.873754
0.883709
0.889949
0.895045
0.898597
0.894214
0.88944
0.89145
0.896238
0.902603
0.918244
0.939701
0.952602
0.960432
0.966776
0.971549
0.964927
0.956893
0.958656
0.964423
0.972769
0.994267
1.02076
1.03698
1.04671
1.05439
1.05976
1.04832
1.03654
1.03941
1.04812
1.06181
1.09416
1.12702
1.14678
1.16079
1.1733
1.17824
1.15529
1.14101
1.14902
1.16589
1.20035
1.25582
1.29797
1.32864
1.35791
1.3779
1.36555
1.34707
1.35301
1.36601
2.61691
10.4826
0.661533
0.66932
0.67243
0.675415
0.677849
0.678448
0.67865
0.680549
0.683344
0.687788
0.698925
0.709719
0.715827
0.720044
0.72359
0.726734
0.728141
0.726977
0.728015
0.73081
0.734378
0.742331
0.756096
0.765385
0.770836
0.775031
0.77872
0.78104
0.778877
0.77834
0.780921
0.784619
0.790487
0.804556
0.817846
0.825379
0.830556
0.834911
0.838316
0.835873
0.832996
0.834997
0.83897
0.844331
0.857722
0.875153
0.885397
0.891744
0.896935
0.901092
0.897997
0.892793
0.894406
0.899117
0.905049
0.919045
0.940684
0.954195
0.96224
0.968742
0.974097
0.969512
0.960733
0.96124
0.966613
0.973932
0.990794
1.01903
1.03785
1.04829
1.0563
1.06292
1.05522
1.04182
1.04187
1.04969
1.06047
1.0865
1.12561
1.14979
1.16422
1.17657
1.1841
1.1662
1.14639
1.15006
1.16589
1.18965
1.24014
1.29281
1.3288
1.35886
1.38378
1.37619
1.35913
1.36382
1.35889
2.53293
10.502
0.664995
0.673198
0.676352
0.679387
0.68187
0.682418
0.682386
0.684083
0.686806
0.690741
0.701172
0.71284
0.719421
0.723782
0.727409
0.730659
0.732185
0.730878
0.731653
0.73434
0.737794
0.744761
0.758568
0.768605
0.77432
0.778627
0.78241
0.78496
0.78291
0.782011
0.784426
0.788084
0.793228
0.806288
0.820776
0.828963
0.834295
0.838765
0.842473
0.840352
0.836432
0.838063
0.842066
0.847081
0.858712
0.877159
0.888708
0.895424
0.900759
0.905393
0.90372
0.897367
0.897951
0.902379
0.907987
0.918879
0.940888
0.956767
0.965557
0.972262
0.978077
0.976224
0.965794
0.964076
0.969112
0.976464
0.989179
1.01752
1.04042
1.05197
1.06025
1.06777
1.06494
1.04828
1.04369
1.05101
1.06165
1.07986
1.11832
1.14881
1.16514
1.17766
1.18859
1.18139
1.15768
1.15173
1.16535
1.1852
1.21967
1.27139
1.31251
1.34451
1.37502
1.38213
1.36604
1.35686
1.32868
2.46621
10.5434
0.668325
0.676933
0.680151
0.683275
0.685817
0.686187
0.685761
0.687279
0.689965
0.693626
0.703273
0.715746
0.722879
0.727365
0.731039
0.734293
0.735793
0.734378
0.73492
0.737468
0.740831
0.746785
0.760359
0.771509
0.777576
0.781939
0.785732
0.788405
0.786654
0.785468
0.787627
0.791163
0.795673
0.807162
0.822942
0.832019
0.837459
0.841885
0.845555
0.844031
0.839969
0.841227
0.844989
0.849675
0.858994
0.87788
0.891336
0.898588
0.904014
0.908824
0.908841
0.901655
0.90033
0.904036
0.909355
0.917637
0.938457
0.958059
0.968459
0.975558
0.981716
0.983278
0.972713
0.966779
0.970516
0.977684
0.987512
1.01164
1.03894
1.05325
1.06223
1.07055
1.07388
1.05924
1.04725
1.05073
1.061
1.07416
1.10483
1.14378
1.16668
1.18089
1.1938
1.19777
1.17645
1.15916
1.16264
1.1799
1.20459
1.24906
1.29596
1.33194
1.3628
1.38646
1.38135
1.36373
1.31343
2.41853
10.5858
0.67178
0.680785
0.684009
0.687144
0.689744
0.689958
0.68909
0.690484
0.69316
0.696627
0.7055
0.718797
0.726623
0.731201
0.73482
0.738033
0.739674
0.738138
0.738371
0.740763
0.74404
0.749017
0.761905
0.774427
0.781107
0.785598
0.789431
0.792437
0.791102
0.789259
0.791054
0.794435
0.798623
0.80831
0.824732
0.834965
0.84076
0.845299
0.849252
0.848964
0.844099
0.844108
0.847537
0.852164
0.859849
0.878116
0.893828
0.902035
0.907767
0.91287
0.915209
0.907851
0.902526
0.90494
0.910314
0.917788
0.936227
0.959189
0.971825
0.979407
0.985778
0.990464
0.983284
0.971818
0.971366
0.97765
0.986038
1.00426
1.03533
1.0553
1.06568
1.07416
1.08116
1.07339
1.05604
1.05241
1.05999
1.07101
1.09013
1.1297
1.16313
1.18248
1.19691
1.20835
1.19972
1.17456
1.16584
1.1754
1.19417
1.22468
1.26917
1.30783
1.33948
1.36769
1.38169
1.37315
1.32441
2.36915
10.6349
0.675086
0.684426
0.687709
0.69085
0.693411
0.693326
0.69216
0.693552
0.696318
0.699819
0.708116
0.721538
0.729882
0.734684
0.738408
0.741722
0.743667
0.741733
0.741171
0.743354
0.746687
0.75143
0.763538
0.776864
0.784168
0.788954
0.792995
0.796511
0.795906
0.7923
0.793071
0.796339
0.800699
0.809595
0.826156
0.837636
0.84395
0.848785
0.853155
0.855133
0.849551
0.84608
0.84849
0.853098
0.860151
0.877266
0.895499
0.905079
0.911121
0.916422
0.920716
0.916067
0.906962
0.906323
0.911115
0.91769
0.932318
0.957583
0.974083
0.982473
0.98888
0.994805
0.993004
0.979324
0.974232
0.978236
0.98559
0.99704
1.02573
1.05461
1.06957
1.07888
1.08721
1.0877
1.06954
1.05716
1.05841
1.06774
1.08039
1.10921
1.15148
1.18007
1.19738
1.21162
1.21855
1.19972
1.17828
1.17577
1.18762
1.20757
1.24322
1.28485
1.31755
1.34378
1.3646
1.36888
1.33674
2.34458
10.684
0.678231
0.687858
0.691204
0.694333
0.696877
0.696718
0.695098
0.69633
0.699092
0.702682
0.710924
0.724357
0.732956
0.737946
0.741828
0.745278
0.747792
0.745873
0.743794
0.745466
0.748727
0.753496
0.765406
0.779679
0.787594
0.792522
0.796649
0.800427
0.801379
0.796582
0.795166
0.797873
0.802008
0.809966
0.826985
0.840589
0.847613
0.852585
0.857062
0.860614
0.856537
0.849996
0.850334
0.854446
0.860077
0.874402
0.895663
0.908
0.914591
0.91994
0.924857
0.924031
0.913513
0.910021
0.913263
0.918881
0.927938
0.951613
0.974584
0.985808
0.992677
0.998917
1.00149
0.989376
0.978896
0.979458
0.98578
0.994053
1.01319
1.04806
1.07159
1.0837
1.09247
1.09881
1.08724
1.06587
1.06046
1.0664
1.07685
1.09248
1.12905
1.16833
1.19272
1.20927
1.22347
1.22604
1.20341
1.18446
1.18531
1.19853
1.22088
1.25898
1.29578
1.3231
1.34317
1.35521
1.34492
2.34167
10.7253
0.681102
0.691038
0.694435
0.697531
0.700181
0.700555
0.698587
0.699331
0.701912
0.705279
0.712682
0.726614
0.736198
0.741435
0.745352
0.74879
0.751658
0.75035
0.747064
0.747934
0.750961
0.755122
0.765722
0.781733
0.791129
0.796318
0.800407
0.804152
0.80617
0.801662
0.798436
0.800088
0.803816
0.809574
0.825206
0.842402
0.851192
0.856461
0.860905
0.864841
0.863165
0.85518
0.853775
0.856805
0.86151
0.870534
0.892216
0.909533
0.91793
0.923621
0.928758
0.931093
0.922328
0.91493
0.915846
0.92053
0.926686
0.94262
0.970963
0.988105
0.99643
1.00286
1.00813
1.00172
0.986058
0.981881
0.986458
0.993961
1.00437
1.03299
1.06708
1.085
1.09491
1.10303
1.10536
1.08631
1.06896
1.06767
1.07472
1.08556
1.10638
1.14737
1.18286
1.20499
1.22094
1.23347
1.2304
1.20755
1.19187
1.19447
1.20805
1.23302
1.27199
1.30405
1.32463
1.33766
1.3441
2.35953
10.7628
0.68382
0.694113
0.697577
0.700727
0.703526
0.704637
0.702524
0.702698
0.705044
0.708192
0.713901
0.727759
0.739259
0.745037
0.748992
0.752392
0.755343
0.75492
0.751024
0.751154
0.753891
0.757579
0.765408
0.782106
0.794046
0.799964
0.804155
0.807866
0.810632
0.807348
0.802374
0.803057
0.80634
0.810763
0.822057
0.841999
0.85405
0.860142
0.864721
0.868879
0.86973
0.861932
0.857687
0.859489
0.863631
0.869313
0.88584
0.908733
0.92081
0.927369
0.93272
0.937241
0.932611
0.92118
0.918617
0.92179
0.927322
0.936127
0.961451
0.987543
0.999937
1.007
1.01302
1.01436
0.999569
0.987939
0.988029
0.993675
1.00128
1.0158
1.05148
1.08143
1.0962
1.10607
1.11491
1.11216
1.0873
1.07323
1.07504
1.08379
1.09548
1.12074
1.1617
1.19299
1.21316
1.22908
1.24015
1.23551
1.21265
1.19792
1.2008
1.21406
1.24113
1.27926
1.30641
1.32152
1.33595
2.39266
10.7988
0.68594
0.697065
0.700692
0.704018
0.706961
0.708798
0.706841
0.706269
0.708297
0.711274
0.715503
0.727574
0.741352
0.748277
0.752418
0.755837
0.758905
0.759626
0.755677
0.754853
0.75725
0.760634
0.765758
0.780367
0.795626
0.803079
0.807598
0.811401
0.814719
0.813552
0.807337
0.8065
0.809227
0.81312
0.819962
0.838677
0.855418
0.863218
0.868173
0.872481
0.875491
0.87005
0.862409
0.862371
0.865677
0.870452
0.880241
0.904247
0.922573
0.930936
0.936587
0.941545
0.942049
0.929969
0.922249
0.923583
0.928411
0.934575
0.9494
0.98039
1.00107
1.01049
1.01726
1.02302
1.01845
0.999605
0.9912
0.992852
0.99914
1.00752
1.02922
1.06904
1.09542
1.10833
1.11737
1.12427
1.11615
1.09182
1.08087
1.08336
1.09188
1.10455
1.13403
1.17382
1.20237
1.22159
1.23731
1.24584
1.23876
1.21597
1.20132
1.20348
1.21576
1.24503
1.2816
1.30396
1.32404
2.43656
10.838
0.687408
0.699978
0.703956
0.707482
0.710517
0.712949
0.711592
0.710013
0.71159
0.714432
0.717886
0.726729
0.741979
0.75095
0.755647
0.759212
0.762431
0.764432
0.761282
0.758943
0.760609
0.763672
0.767394
0.777488
0.79519
0.805489
0.810807
0.814821
0.818446
0.819702
0.813661
0.81034
0.812257
0.815821
0.820395
0.833659
0.854411
0.865621
0.871425
0.875926
0.879952
0.878694
0.868924
0.865589
0.868108
0.872441
0.878323
0.896083
0.921038
0.933767
0.940265
0.945287
0.94934
0.942637
0.929486
0.926561
0.92936
0.934812
0.942449
0.965849
0.99727
1.01338
1.02193
1.02875
1.03299
1.01905
0.999453
0.995126
0.999223
1.00639
1.01566
1.04301
1.08283
1.10542
1.11727
1.12716
1.13482
1.12288
1.09663
1.08678
1.09063
1.09999
1.1145
1.14686
1.18413
1.21006
1.22843
1.24342
1.25014
1.2411
1.21663
1.20127
1.2022
1.21329
1.24501
1.27805
1.30528
2.4884
10.8799
0.688152
0.702728
0.707409
0.711081
0.714188
0.716981
0.716727
0.71416
0.714986
0.717541
0.720645
0.726225
0.740734
0.752784
0.758645
0.762614
0.766059
0.769033
0.767797
0.763587
0.763813
0.76637
0.769794
0.775944
0.792696
0.807003
0.813727
0.818101
0.821897
0.8249
0.821328
0.815182
0.815432
0.81853
0.822483
0.829898
0.850098
0.866846
0.874413
0.879323
0.883661
0.886173
0.878426
0.870512
0.870964
0.874554
0.87929
0.888494
0.913603
0.934231
0.943097
0.948833
0.954013
0.955422
0.941981
0.930881
0.930704
0.935077
0.941223
0.952585
0.983953
1.0117
1.02378
1.03063
1.03662
1.03875
1.02137
1.00446
1.00178
1.00517
1.01209
1.02365
1.05739
1.0969
1.11802
1.12915
1.13801
1.14194
1.12627
1.10217
1.09407
1.09825
1.10768
1.12443
1.15988
1.19494
1.21808
1.23439
1.24776
1.2526
1.24164
1.21538
1.19818
1.19751
1.20859
1.24169
1.27836
2.53835
10.9205
0.688278
0.704787
0.710893
0.714777
0.717949
0.720908
0.722053
0.719089
0.718512
0.720446
0.723253
0.726977
0.738265
0.75361
0.761569
0.766056
0.769695
0.773035
0.774167
0.769176
0.767113
0.769065
0.772295
0.776474
0.788905
0.806957
0.816311
0.821329
0.825347
0.829092
0.829361
0.821992
0.819132
0.821082
0.824558
0.829123
0.843057
0.865367
0.877065
0.882891
0.887405
0.891615
0.889718
0.878461
0.87437
0.876206
0.880289
0.88571
0.901596
0.929626
0.945577
0.953195
0.958626
0.963383
0.958659
0.941503
0.934767
0.936678
0.941666
0.947815
0.963653
0.998689
1.02225
1.03306
1.04089
1.04789
1.04617
1.0233
1.00762
1.007
1.01259
1.0204
1.03331
1.06961
1.10652
1.12498
1.13567
1.14511
1.14969
1.1325
1.10813
1.10072
1.10551
1.11576
1.13532
1.17181
1.20358
1.22421
1.23919
1.25098
1.25464
1.24141
1.21285
1.19264
1.19035
1.20152
1.24302
2.57206
10.9547
0.688233
0.705572
0.714057
0.718467
0.721757
0.724776
0.72705
0.724835
0.722091
0.723063
0.725595
0.728826
0.736291
0.752859
0.764062
0.769454
0.773271
0.776703
0.779394
0.776076
0.771315
0.771996
0.774751
0.778236
0.785492
0.804122
0.818199
0.824681
0.829054
0.83301
0.836015
0.830944
0.82378
0.823509
0.82616
0.830113
0.837558
0.859205
0.878252
0.88647
0.891454
0.895892
0.898773
0.890112
0.879337
0.878356
0.881508
0.88616
0.893393
0.916968
0.943556
0.955415
0.961776
0.967193
0.971443
0.961565
0.944384
0.939723
0.941478
0.946272
0.953407
0.975976
1.01329
1.03415
1.04333
1.04956
1.05589
1.05225
1.02893
1.01548
1.01499
1.01892
1.026
1.04158
1.08082
1.11586
1.13383
1.1447
1.15349
1.15553
1.13818
1.11558
1.10831
1.11223
1.12173
1.14358
1.18121
1.21115
1.22998
1.24345
1.25354
1.2556
1.24078
1.20972
1.18562
1.17739
1.19958
2.5713
10.9825
0.68876
0.704677
0.716516
0.721993
0.72548
0.728555
0.731333
0.730914
0.72638
0.725903
0.728087
0.731125
0.735814
0.750171
0.765483
0.77263
0.776796
0.780339
0.783634
0.78343
0.777023
0.77513
0.777013
0.780165
0.784561
0.798775
0.818458
0.828013
0.832988
0.836989
0.840742
0.840146
0.830469
0.826372
0.82816
0.831655
0.836277
0.849874
0.874966
0.889189
0.895762
0.900191
0.904418
0.903276
0.889822
0.882586
0.883304
0.886633
0.891627
0.902742
0.932448
0.955544
0.965644
0.972158
0.977775
0.979184
0.962329
0.94615
0.943843
0.94735
0.952736
0.960339
0.98704
1.02356
1.04188
1.05185
1.06027
1.06669
1.0583
1.03225
1.01913
1.01988
1.0258
1.03381
1.05063
1.09002
1.12291
1.13997
1.15116
1.16064
1.16358
1.14525
1.12073
1.11243
1.1161
1.12571
1.14957
1.1881
1.21688
1.2347
1.24757
1.25563
1.25527
1.23852
1.20474
1.17383
1.1616
2.53448
11.0085
0.690302
0.702478
0.717684
0.725113
0.729037
0.732236
0.735174
0.736546
0.731991
0.729279
0.730791
0.733607
0.737057
0.746584
0.7648
0.775318
0.780358
0.784083
0.787513
0.789717
0.784333
0.778768
0.779354
0.782173
0.785829
0.793832
0.814744
0.830236
0.83681
0.840894
0.844642
0.847225
0.840204
0.831221
0.830803
0.833694
0.837549
0.843657
0.864408
0.888127
0.898469
0.904151
0.908657
0.912496
0.905875
0.890529
0.885711
0.887604
0.891793
0.8975
0.914912
0.947705
0.966751
0.974633
0.979765
0.985045
0.985084
0.966074
0.951785
0.949794
0.95203
0.957252
0.967094
1.00015
1.03699
1.0539
1.06194
1.0678
1.07268
1.06367
1.03914
1.02722
1.02733
1.03182
1.03942
1.05956
1.10122
1.1325
1.14852
1.15898
1.16716
1.16804
1.14971
1.12512
1.11591
1.11854
1.12783
1.15371
1.19399
1.22261
1.23893
1.24962
1.25487
1.25234
1.23378
1.19112
1.14917
2.46435
11.0355
0.692622
0.700421
0.716668
0.7275
0.732412
0.735816
0.738832
0.741244
0.738623
0.733529
0.733714
0.73619
0.739367
0.74466
0.76103
0.776929
0.783891
0.787844
0.791266
0.794343
0.792376
0.784094
0.782243
0.784643
0.788094
0.792404
0.80672
0.828926
0.839659
0.844772
0.848589
0.852201
0.851213
0.840089
0.834623
0.835721
0.838713
0.843003
0.853062
0.87965
0.899632
0.908142
0.913595
0.918023
0.919564
0.905974
0.892023
0.890387
0.893646
0.89827
0.904447
0.926479
0.959144
0.97536
0.983392
0.989754
0.995274
0.990443
0.967012
0.954012
0.954558
0.959746
0.965839
0.975773
1.00933
1.04359
1.0588
1.06785
1.07596
1.08168
1.07102
1.04487
1.03213
1.03302
1.03943
1.0483
1.07008
1.11004
1.13829
1.1533
1.16388
1.17245
1.17397
1.15415
1.12803
1.11821
1.12041
1.12949
1.15677
1.1975
1.22489
1.23957
1.24858
1.25175
1.24833
1.22102
1.16742
2.38803
11.069
0.695099
0.700303
0.713502
0.728734
0.735513
0.739235
0.742279
0.745078
0.745251
0.739271
0.737116
0.739022
0.742033
0.74557
0.755646
0.775318
0.786377
0.791368
0.794924
0.79823
0.799688
0.792313
0.786467
0.78743
0.790416
0.793921
0.800394
0.82138
0.840533
0.848334
0.852718
0.856435
0.859357
0.852763
0.840597
0.838034
0.840646
0.844584
0.849503
0.865106
0.893664
0.909199
0.915814
0.920552
0.925223
0.92515
0.908607
0.896972
0.896283
0.898832
0.90331
0.911266
0.939229
0.971312
0.985429
0.991914
0.996223
1.00118
0.995625
0.97351
0.962906
0.962615
0.965117
0.970332
0.982265
1.01909
1.05381
1.06913
1.07696
1.08321
1.08822
1.07845
1.05367
1.04123
1.041
1.04521
1.05321
1.0779
1.11871
1.14559
1.15964
1.16944
1.17732
1.17901
1.15992
1.13245
1.12084
1.12187
1.12983
1.15702
1.1979
1.2245
1.23804
1.24514
1.24807
1.23925
1.20613
2.34189
11.1104
0.697842
0.702091
0.710067
0.727345
0.737712
0.742373
0.745644
0.74865
0.7509
0.746879
0.741625
0.742112
0.744669
0.747768
0.752621
0.769117
0.787017
0.794652
0.79871
0.802041
0.805029
0.802432
0.793066
0.79059
0.792649
0.795962
0.799861
0.810871
0.835437
0.850445
0.856822
0.860692
0.86434
0.864918
0.85276
0.843481
0.843736
0.846755
0.850533
0.85616
0.87694
0.904752
0.917771
0.924453
0.929862
0.934422
0.929675
0.909967
0.900194
0.901322
0.905571
0.910263
0.918555
0.94852
0.978464
0.991294
0.999147
1.0058
1.01077
1.00198
0.978257
0.966446
0.966942
0.971762
0.977903
0.989586
1.02556
1.05861
1.07361
1.08306
1.09122
1.09671
1.08613
1.05954
1.04498
1.04459
1.05048
1.0598
1.08582
1.12497
1.15011
1.16424
1.17552
1.18447
1.18668
1.16537
1.13492
1.12141
1.12158
1.12864
1.15518
1.19618
1.22265
1.23528
1.2419
1.24062
1.2363
2.34312
11.157
0.700998
0.70471
0.708506
0.722462
0.738332
0.745408
0.749209
0.752421
0.755407
0.75512
0.747996
0.745459
0.747145
0.750025
0.753445
0.762119
0.782973
0.796565
0.802237
0.805744
0.809063
0.811019
0.803439
0.795371
0.795404
0.798306
0.801795
0.806267
0.8227
0.847445
0.858963
0.864552
0.868436
0.872153
0.869352
0.854731
0.84782
0.848624
0.851505
0.855628
0.86342
0.889542
0.915604
0.926518
0.932034
0.936382
0.941087
0.934929
0.915222
0.907301
0.90752
0.909993
0.914765
0.925746
0.959608
0.989319
1.00149
1.00748
1.01225
1.01775
1.0101
0.98655
0.97511
0.974253
0.976515
0.981815
0.995238
1.03427
1.06839
1.08297
1.09046
1.09672
1.10212
1.09394
1.06821
1.05278
1.05066
1.05433
1.06262
1.09064
1.13263
1.15945
1.17284
1.18178
1.189
1.19048
1.16962
1.13728
1.12149
1.12027
1.1262
1.15212
1.19357
1.21985
1.23253
1.23402
1.25064
2.37925
11.2068
0.704111
0.706971
0.709668
0.717314
0.735771
0.74781
0.75302
0.756256
0.759214
0.761446
0.756683
0.750085
0.750078
0.752637
0.755801
0.759728
0.773581
0.794786
0.804743
0.809536
0.813026
0.816445
0.815523
0.804614
0.799497
0.800648
0.803341
0.806846
0.813241
0.835334
0.857993
0.867614
0.873003
0.876956
0.880184
0.872391
0.85652
0.851785
0.853858
0.857386
0.861496
0.870914
0.900196
0.924144
0.934074
0.940479
0.946027
0.949751
0.938769
0.91763
0.9103
0.912485
0.917023
0.921927
0.932754
0.966548
0.994676
1.00687
1.01531
1.02213
1.02689
1.01707
0.991563
0.97819
0.978072
0.983013
0.989543
1.0029
1.04031
1.07182
1.08605
1.09603
1.10479
1.11021
1.10107
1.07312
1.05529
1.0529
1.05805
1.06778
1.09647
1.13761
1.16297
1.17616
1.186
1.19371
1.19504
1.17316
1.1389
1.12078
1.11817
1.12284
1.1486
1.18973
1.21599
1.22403
1.25089
2.44249
11.2596
0.707245
0.70959
0.712262
0.716231
0.729591
0.747576
0.755649
0.759653
0.76286
0.765905
0.766105
0.75809
0.754083
0.755321
0.757843
0.760897
0.766618
0.78634
0.805308
0.812947
0.817136
0.820592
0.823475
0.818001
0.80615
0.803273
0.805461
0.808825
0.812551
0.821549
0.847608
0.867408
0.875395
0.880434
0.884543
0.8871
0.876211
0.861126
0.857686
0.858986
0.862108
0.866717
0.879753
0.912027
0.934299
0.943102
0.947806
0.951975
0.956049
0.944853
0.924789
0.918441
0.918687
0.921064
0.92594
0.9393
0.976804
1.00579
1.01713
1.02283
1.02735
1.03225
1.02464
1.0003
0.987265
0.985989
0.988367
0.993581
1.00828
1.04936
1.08245
1.09637
1.10381
1.10996
1.11458
1.10694
1.08053
1.06224
1.05877
1.06173
1.06921
1.09744
1.14141
1.16914
1.18236
1.19046
1.19647
1.19774
1.1777
1.14144
1.11973
1.11517
1.11859
1.1439
1.18462
1.206
1.24143
2.51548
11.3096
0.711497
0.71245
0.714897
0.717774
0.723932
0.742334
0.757132
0.763292
0.766803
0.769896
0.772625
0.768901
0.759807
0.757903
0.759896
0.76294
0.766467
0.776025
0.799392
0.814679
0.820914
0.824489
0.827919
0.829615
0.819417
0.809134
0.808441
0.810899
0.814052
0.817977
0.830647
0.858888
0.876188
0.883643
0.888873
0.893371
0.894187
0.878357
0.863297
0.861387
0.864663
0.8688
0.873309
0.887564
0.920329
0.940593
0.949243
0.955851
0.961423
0.964173
0.94964
0.928031
0.920959
0.923236
0.928051
0.933446
0.946464
0.982441
1.0093
1.02075
1.02877
1.03568
1.04049
1.03261
1.00755
0.991745
0.990016
0.994693
1.00141
1.01624
1.055
1.08519
1.09871
1.10756
1.11552
1.12208
1.11586
1.08733
1.06556
1.06038
1.06409
1.07241
1.09967
1.14245
1.16997
1.18373
1.19275
1.19924
1.20122
1.18253
1.14376
1.11755
1.11057
1.11259
1.13885
1.17399
1.21965
2.58808
11.351
0.717317
0.715506
0.717199
0.719894
0.723328
0.734136
0.754829
0.76578
0.77055
0.773618
0.776597
0.778009
0.769715
0.762319
0.762639
0.765345
0.76852
0.772397
0.786255
0.810691
0.822986
0.828548
0.832171
0.835681
0.834592
0.820894
0.812601
0.812731
0.815417
0.819062
0.823933
0.841046
0.869687
0.884496
0.890762
0.894938
0.898913
0.899277
0.883157
0.870117
0.868559
0.870117
0.873399
0.878503
0.896123
0.930488
0.950418
0.95822
0.962452
0.966363
0.969696
0.956959
0.93643
0.929726
0.930062
0.932259
0.937059
0.951744
0.990196
1.01873
1.03002
1.03572
1.04063
1.04649
1.04202
1.01764
1.00098
0.997788
0.99885
1.00335
1.01862
1.0591
1.09288
1.10838
1.1162
1.1228
1.1285
1.12416
1.09618
1.07215
1.06543
1.06676
1.07236
1.09688
1.14196
1.17277
1.1876
1.19576
1.20111
1.2027
1.18592
1.14607
1.11468
1.10393
1.10602
1.12947
1.18644
2.64052
11.3795
0.724575
0.7191
0.719856
0.722536
0.725471
0.730071
0.746077
0.765071
0.77299
0.777051
0.780227
0.78335
0.781951
0.771135
0.766678
0.767887
0.770374
0.773531
0.778733
0.797634
0.821209
0.831478
0.836575
0.839978
0.843181
0.838004
0.822082
0.816174
0.81802
0.821672
0.8253
0.830294
0.850252
0.878372
0.891481
0.897771
0.902915
0.907427
0.905474
0.886641
0.873153
0.872352
0.875927
0.880289
0.8852
0.902663
0.93614
0.954787
0.963142
0.969751
0.975312
0.978158
0.964809
0.942386
0.932973
0.93402
0.938578
0.944196
0.957704
0.993595
1.02095
1.03328
1.04234
1.04947
1.05481
1.04988
1.02441
1.00376
0.998676
1.00185
1.00819
1.02422
1.06468
1.09794
1.11297
1.12195
1.13021
1.13623
1.13115
1.10138
1.0744
1.06558
1.0675
1.0741
1.0978
1.1422
1.17393
1.18875
1.19661
1.20158
1.20259
1.18759
1.14818
1.11156
1.09657
1.09409
1.14421
2.65517
11.398
0.733004
0.72564
0.723409
0.725271
0.727832
0.730608
0.737282
0.757884
0.774168
0.78059
0.784208
0.787339
0.789936
0.784019
0.772804
0.770535
0.772762
0.775993
0.779385
0.786237
0.808871
0.830098
0.838703
0.843682
0.847326
0.849987
0.84172
0.826726
0.822768
0.824119
0.826673
0.830371
0.836858
0.86032
0.887573
0.899628
0.905153
0.908654
0.912935
0.911759
0.893572
0.881257
0.879946
0.881211
0.88436
0.889704
0.909373
0.944398
0.964019
0.971818
0.976253
0.980983
0.985562
0.975189
0.952045
0.941817
0.941002
0.942706
0.947308
0.961303
0.999881
1.03075
1.0432
1.04924
1.05384
1.05977
1.05837
1.03425
1.01262
1.00699
1.00858
1.01348
1.02761
1.06719
1.10319
1.12
1.12793
1.13363
1.13925
1.13736
1.11036
1.08176
1.07123
1.07107
1.07538
1.0957
1.13994
1.17326
1.18858
1.19589
1.20036
1.20085
1.18807
1.15008
1.1104
1.08515
1.09944
2.62157
11.4116
0.740118
0.735985
0.728015
0.727642
0.729659
0.732445
0.736001
0.746856
0.769663
0.782665
0.787985
0.791061
0.794147
0.795399
0.78525
0.776128
0.776049
0.778581
0.781558
0.784811
0.79347
0.818829
0.838322
0.846343
0.851343
0.855372
0.85741
0.845686
0.829921
0.826519
0.829204
0.833003
0.836617
0.843081
0.867837
0.894142
0.905322
0.91168
0.917096
0.921539
0.918582
0.898609
0.884623
0.883227
0.886589
0.890971
0.895959
0.914066
0.948249
0.967763
0.97712
0.984427
0.989981
0.993441
0.982918
0.958146
0.94482
0.944219
0.948576
0.954465
0.967592
1.00345
1.03256
1.04573
1.05508
1.06272
1.06841
1.06652
1.04215
1.01776
1.00987
1.01094
1.01519
1.02751
1.06698
1.10353
1.12033
1.13073
1.13997
1.14621
1.14461
1.11769
1.08605
1.07201
1.07096
1.07509
1.09245
1.13614
1.17088
1.18665
1.19406
1.19852
1.19907
1.18793
1.15198
1.10163
1.07866
2.53913
11.4248
0.744497
0.746319
0.735983
0.731098
0.732271
0.734984
0.737924
0.742102
0.756893
0.779564
0.790294
0.795242
0.798487
0.801626
0.800016
0.786947
0.780139
0.780597
0.782957
0.786205
0.79023
0.80152
0.82827
0.845936
0.853026
0.85745
0.861209
0.863143
0.851358
0.836884
0.833883
0.834997
0.837353
0.84123
0.849371
0.876644
0.902976
0.914027
0.919175
0.922588
0.927127
0.925979
0.906953
0.893021
0.890743
0.891579
0.894468
0.899671
0.919833
0.956977
0.977765
0.985531
0.989497
0.993608
0.998508
0.991773
0.967625
0.953838
0.952117
0.953784
0.957975
0.970304
1.00808
1.04151
1.05595
1.06289
1.06795
1.07308
1.07278
1.04971
1.02377
1.01339
1.01398
1.01926
1.03156
1.06873
1.10932
1.12968
1.13817
1.14387
1.14912
1.14955
1.12635
1.09223
1.07439
1.07117
1.07428
1.08935
1.13179
1.16858
1.18563
1.19282
1.19637
1.1957
1.18636
1.14373
1.09091
2.43896
11.4534
0.747826
0.752505
0.747896
0.73788
0.735896
0.737669
0.740141
0.742975
0.748239
0.766952
0.789059
0.798505
0.802948
0.805951
0.808744
0.803407
0.788943
0.783962
0.785661
0.78887
0.792052
0.795719
0.808572
0.836396
0.852881
0.859812
0.864774
0.86917
0.87039
0.856027
0.840175
0.837082
0.839813
0.843672
0.847498
0.855092
0.882232
0.907839
0.918732
0.925572
0.931208
0.935752
0.93337
0.91306
0.896505
0.893571
0.896726
0.901373
0.906627
0.925058
0.959783
0.979395
0.988442
0.995828
1.00167
1.00611
0.999908
0.975597
0.958491
0.955508
0.959232
0.964867
0.975945
1.01022
1.04268
1.05696
1.06478
1.0716
1.07856
1.08157
1.06232
1.03398
1.02164
1.02074
1.02403
1.03273
1.06631
1.10734
1.12844
1.1392
1.14826
1.15506
1.15632
1.13397
1.09722
1.07621
1.07136
1.07341
1.08616
1.12718
1.16513
1.18274
1.18997
1.19275
1.19255
1.17613
1.13816
2.37134
11.4965
0.751294
0.756394
0.757639
0.749256
0.740713
0.740238
0.742617
0.745615
0.748746
0.755382
0.776824
0.797108
0.805545
0.810172
0.813515
0.815743
0.807271
0.793553
0.790065
0.79117
0.793318
0.796639
0.80126
0.816997
0.84505
0.86048
0.8669
0.87077
0.874247
0.87613
0.862957
0.847935
0.844728
0.845552
0.847653
0.851568
0.86047
0.88966
0.916605
0.92775
0.932831
0.936058
0.940615
0.940847
0.922499
0.905852
0.902216
0.902673
0.904923
0.909859
0.929125
0.966743
0.989077
0.997573
1.00216
1.00641
1.01173
1.00934
0.9864
0.968127
0.96374
0.963866
0.966667
0.976043
1.01044
1.04699
1.06509
1.0749
1.08287
1.08883
1.09095
1.07157
1.0398
1.02382
1.02175
1.0253
1.03192
1.06177
1.10879
1.1365
1.14729
1.15343
1.15828
1.15908
1.14085
1.10323
1.07787
1.07088
1.07205
1.08179
1.12137
1.16105
1.1795
1.18594
1.18911
1.18374
1.18102
2.36244
11.5445
0.753917
0.759946
0.762636
0.762332
0.751272
0.744998
0.745848
0.748387
0.751182
0.754186
0.761687
0.785114
0.804768
0.812997
0.817719
0.821213
0.822868
0.811601
0.796658
0.793406
0.795897
0.799452
0.802844
0.806997
0.82359
0.851816
0.866285
0.87277
0.878016
0.882575
0.883565
0.868655
0.851628
0.847536
0.850025
0.854008
0.858084
0.865893
0.893718
0.919975
0.931268
0.93837
0.944221
0.948904
0.948679
0.930505
0.910763
0.904864
0.907032
0.911668
0.917293
0.934308
0.969111
0.990755
1.00072
1.00864
1.01507
1.02009
1.01776
0.995072
0.972725
0.965285
0.967187
0.972254
0.981599
1.01308
1.05254
1.07331
1.08188
1.08681
1.09132
1.09482
1.07901
1.04723
1.02889
1.02528
1.02878
1.03589
1.06181
1.10672
1.13517
1.14734
1.15474
1.16039
1.16223
1.147
1.1086
1.07917
1.06937
1.06952
1.07786
1.11557
1.15538
1.17411
1.182
1.1793
1.20322
2.40004
11.5959
0.755056
0.764607
0.767335
0.770342
0.766492
0.753949
0.749518
0.750524
0.752717
0.75563
0.759331
0.768457
0.793008
0.811614
0.819174
0.823731
0.827288
0.828642
0.817308
0.803681
0.800856
0.801944
0.803956
0.807297
0.812433
0.83133
0.859813
0.874159
0.880178
0.883573
0.887175
0.889507
0.876948
0.86028
0.855856
0.856308
0.857912
0.861605
0.870098
0.899408
0.928106
0.940302
0.945635
0.94893
0.953543
0.956156
0.941505
0.921105
0.914381
0.91411
0.91538
0.919654
0.9351
0.971838
0.998725
1.00983
1.01526
1.01948
1.025
1.02621
1.00622
0.981936
0.973642
0.973681
0.976323
0.982802
1.01099
1.05098
1.07222
1.08216
1.09005
1.09691
1.10166
1.08984
1.05845
1.03698
1.03127
1.03168
1.03538
1.05567
1.10244
1.13632
1.15062
1.15718
1.16176
1.1643
1.15325
1.11546
1.08136
1.06824
1.06692
1.07261
1.10814
1.14817
1.16928
1.17215
1.20841
2.47148
11.6508
0.7519
0.768563
0.772276
0.775233
0.777329
0.769669
0.756692
0.753638
0.75553
0.75844
0.761183
0.764313
0.773942
0.799972
0.818266
0.825754
0.830492
0.834538
0.835905
0.82327
0.807666
0.804052
0.806471
0.810028
0.8135
0.817985
0.836511
0.864807
0.878611
0.885272
0.890827
0.89545
0.897318
0.884375
0.865325
0.858485
0.860025
0.863848
0.868135
0.87532
0.901995
0.930069
0.942843
0.950755
0.957323
0.96231
0.964452
0.950274
0.926887
0.916027
0.915885
0.919532
0.924705
0.938408
0.972904
0.999566
1.01192
1.02119
1.02839
1.03362
1.03437
1.01483
0.987791
0.975684
0.974688
0.977944
0.983822
1.0085
1.05297
1.08076
1.09278
1.09954
1.10551
1.10932
1.09935
1.06705
1.04032
1.03128
1.03262
1.03786
1.05546
1.09934
1.13536
1.15147
1.15903
1.16418
1.16692
1.15828
1.12065
1.08179
1.06483
1.06221
1.06727
1.1014
1.14192
1.15787
1.20383
2.55427
11.7033
0.741564
0.768098
0.77564
0.779787
0.782873
0.784093
0.773563
0.76168
0.759391
0.760302
0.762139
0.76526
0.769402
0.781394
0.807846
0.825097
0.832099
0.836168
0.839412
0.841208
0.830486
0.81568
0.811903
0.812549
0.814172
0.817439
0.822717
0.842805
0.872101
0.886813
0.892868
0.896282
0.900045
0.903459
0.893992
0.874868
0.867365
0.866953
0.8678
0.87099
0.878125
0.905421
0.937502
0.952516
0.958799
0.962346
0.966389
0.970391
0.960629
0.936331
0.924031
0.922604
0.924617
0.928781
0.940174
0.975111
1.00785
1.02235
1.02864
1.03227
1.03718
1.04076
1.02633
0.997184
0.981678
0.979647
0.983232
0.98976
1.01031
1.0525
1.08317
1.09669
1.10304
1.10726
1.11199