/*--------------------------------*- C++ -*----------------------------------*\
  =========                 |
  \\      /  F ield         | OpenFOAM: The Open Source CFD Toolbox
   \\    /   O peration     | Website:  https://openfoam.org
    \\  /    A nd           | Version:  12
     \\/     M anipulation  |
\*---------------------------------------------------------------------------*/
FoamFile
{
    format      ascii;
    class       volVectorField;
    location    "4.575";
    object      U;
}
// * * * * * * * * * * * * * * * * * * * * * * * * * * * * * * * * * * * * * //

dimensions      [0 1 -1 0 0 0 0];

internalField   nonuniform List<vector> 
46253
(
(0.907811 -0.00518048 0)
(0.889748 0.00027298 0)
(0.770326 0.000831595 0)
(0.890091 0.000323465 0)
(0.773827 0.00177294 0)
(0.776537 0.000566174 0)
(0.934234 -0.00729269 0)
(0.914758 -0.0193245 0)
(0.893589 0.000319008 0)
(0.894309 0.000378675 0)
(0.904207 -0.00428126 0)
(1.10816 -0.0667912 0)
(0.909312 0.00020431 0)
(0.908836 0.000168238 0)
(0.874576 0.00618497 0)
(0.895653 0.000130279 0)
(0.896106 0.000152713 0)
(0.903162 0.00020459 0)
(0.902915 0.000132369 0)
(0.898462 0.000345427 0)
(0.899118 0.000503893 0)
(0.780797 0.00300053 0)
(0.92 -6.03374e-09 0)
(0.91113 -0.000612387 0)
(0.931253 -0.00763511 0)
(0.89166 0.00062034 0)
(0.89694 0.000167898 0)
(0.897143 0.000344173 0)
(0.891314 0.000424851 0)
(0.915019 -0.00678498 0)
(0.925924 0.0416089 0)
(0.914875 0.000387778 0)
(0.915364 0.000349804 0)
(0.901037 0.000154233 0)
(0.901665 0.000210855 0)
(0.870414 0.00454578 0)
(0.906604 0.000251187 0)
(0.90742 0.000334832 0)
(0.97046 -0.0169875 0)
(0.92 5.9071e-10 0)
(0.906445 -0.0116743 0)
(1.09608 -0.0687408 0)
(0.912624 0.000148226 0)
(0.913313 0.000229001 0)
(0.852865 -0.0737077 0)
(0.904396 0.000362638 0)
(0.904734 0.000476801 0)
(0.920001 -1.23047e-07 0)
(0.918617 0.000279359 0)
(0.919425 0.000192417 0)
(0.921394 0.000404689 0)
(0.921967 0.000291219 0)
(0.78851 0.00141946 0)
(0.922174 0.00160894 0)
(0.762269 0.0109731 0)
(1.06978 -0.0398009 0)
(0.924845 0.00017839 0)
(0.925352 0.000141832 0)
(0.857837 0.0610488 0)
(0.989665 -0.0159644 0)
(0.868312 0.0033257 0)
(0.886863 -0.0242863 0)
(0.870929 0.00428013 0)
(0.92 -7.50394e-08 0)
(0.874469 0.00561442 0)
(0.910554 0.000190722 0)
(0.911044 0.000248285 0)
(0.783938 0.000467317 0)
(1.06893 -0.0356786 0)
(0.885634 -0.0865045 0)
(0.945272 -0.00511092 0)
(0.92724 0.000353576 0)
(0.928012 0.000270223 0)
(0.982714 -0.019343 0)
(0.791682 0.00125173 0)
(0.945833 -0.000683114 0)
(0.939138 0.000150157 0)
(0.939756 8.22706e-05 0)
(0.919909 5.95371e-05 0)
(0.916642 0.000199588 0)
(0.917017 0.000271947 0)
(0.931586 0.000154694 0)
(0.787426 0.00174178 0)
(0.9322 0.000208129 0)
(0.945675 -0.0101678 0)
(0.791434 0.00152195 0)
(0.953684 -5.78342e-05 0)
(0.954455 -0.000125142 0)
(1.13068 -0.00286371 0)
(0.867287 2.98435e-05 0)
(0.92 3.72807e-10 0)
(0.926794 -0.0172661 0)
(0.789586 0.00124833 0)
(0.923322 3.32692e-05 0)
(0.92 -1.82815e-08 0)
(0.923574 5.88713e-05 0)
(0.788223 0.00136777 0)
(0.894389 0.00313818 0)
(0.859621 0.0603079 0)
(0.869185 0.00327439 0)
(0.92 1.02768e-10 0)
(0.786719 0.000275371 0)
(0.792818 0.000243147 0)
(0.928588 0.0406166 0)
(0.764065 0.00638668 0)
(0.915625 -0.0154491 0)
(1.08976 -0.0686627 0)
(0.969306 -0.000499192 0)
(0.970382 -0.000313654 0)
(1.08202 -0.0576487 0)
(0.959424 0.0134192 0)
(0.92953 6.25785e-05 0)
(0.930193 -6.69587e-06 0)
(0.896313 0.00462432 0)
(0.919843 1.73632e-06 0)
(1.14756 0.0152051 0)
(1.14352 -0.089403 0)
(0.913891 -0.0296734 0)
(0.759891 0.0610427 0)
(1.0544 -0.0323161 0)
(0.92 1.05278e-10 0)
(0.778927 0.00145136 0)
(0.933738 4.97715e-05 0)
(0.934405 3.96754e-05 0)
(0.818874 -0.000267588 0)
(0.752164 0.0553037 0)
(0.868056 0.00329232 0)
(1.08304 -0.0483672 0)
(0.749133 0.00956932 0)
(0.94269 -4.53942e-07 0)
(0.982093 -2.97148e-05 0)
(0.982981 -0.000129567 0)
(0.779062 0.00266546 0)
(0.938098 -0.002035 0)
(0.943501 -8.24295e-05 0)
(0.884373 -0.000971796 0)
(0.94705 -0.000135295 0)
(0.947731 -0.000110899 0)
(1.05633 -0.0329327 0)
(0.879796 0.00180143 0)
(0.93777 9.64476e-05 0)
(0.986696 0.00121625 0)
(0.988849 0.000907376 0)
(0.935308 0.0382938 0)
(0.937254 0.000188544 0)
(0.754919 0.00832036 0)
(0.951459 -0.000167086 0)
(0.952098 -0.000254094 0)
(0.968628 -0.0106216 0)
(0.867264 -0.000189777 0)
(1.08062 -0.0594758 0)
(0.789413 0.000207371 0)
(0.944742 -6.27241e-05 0)
(0.945593 4.69381e-05 0)
(0.958012 0.0287911 0)
(1.09632 -0.0982837 0)
(1.07679 -0.048309 0)
(0.918667 0.000521028 0)
(0.958301 -0.000273814 0)
(0.764594 0.00825704 0)
(0.958817 -0.000458538 0)
(1.09037 -0.0690639 0)
(1.07 -0.0376212 0)
(0.880093 0.00435265 0)
(0.922249 -0.00861819 0)
(0.949359 2.50808e-05 0)
(0.939383 -0.0034311 0)
(0.949955 3.27028e-05 0)
(0.69061 0.0395171 0)
(0.870055 0.00439786 0)
(0.963103 -0.000167876 0)
(0.963881 -0.000187134 0)
(0.782894 0.00225435 0)
(0.918085 -0.0171483 0)
(0.767707 0.00405801 0)
(0.875015 -0.076885 0)
(0.969886 -0.0192693 0)
(0.790018 0.00117449 0)
(0.976516 -0.0129856 0)
(1.14231 -0.0868411 0)
(0.76713 0.00224547 0)
(0.959286 0.0280554 0)
(0.967261 -0.000418006 0)
(0.967753 -0.000658944 0)
(0.83833 0.000775286 0)
(0.956152 -0.000148266 0)
(0.956934 -1.5671e-05 0)
(0.889643 -0.0750127 0)
(0.838685 0.00071341 0)
(0.839022 0.00076098 0)
(0.790756 0.0010643 0)
(0.845361 0.000173792 0)
(0.926235 -0.0238427 0)
(0.845148 0.000131636 0)
(0.834192 0.000281091 0)
(0.834144 0.00032191 0)
(0.968046 0.0110219 0)
(0.842421 0.000411904 0)
(1.0142 -0.000102536 0)
(1.015 4.53163e-05 0)
(0.912563 0.00121526 0)
(0.868242 0.00406347 0)
(0.960395 -0.000361715 0)
(0.961156 -7.70692e-05 0)
(0.86748 -0.000201822 0)
(1.14213 -0.0908544 0)
(0.960389 0.0273863 0)
(0.974911 -0.000413036 0)
(0.975389 -0.000603527 0)
(0.87113 0.00545122 0)
(0.919706 0.000123587 0)
(0.757841 0.0668685 0)
(0.879465 -0.0121242 0)
(0.792522 0.00105361 0)
(0.970162 -0.0192675 0)
(0.843601 0.000760655 0)
(0.937459 0.0379552 0)
(0.933203 -0.0103031 0)
(0.97917 -0.000461647 0)
(0.782764 0.00116627 0)
(0.78552 0.00102772 0)
(0.980005 -0.000719584 0)
(0.872192 -0.0707872 0)
(0.965699 -1.11406e-05 0)
(0.965996 -9.24392e-05 0)
(0.911411 -0.028887 0)
(0.836315 -0.000309581 0)
(0.799219 -0.00246996 0)
(1.02709 0.000299266 0)
(1.02649 -0.000148185 0)
(0.889179 0.0552292 0)
(0.92 2.75621e-11 0)
(0.867288 0.000703559 0)
(0.866396 0.000541763 0)
(0.828372 -0.000798948 0)
(0.92 8.11191e-09 0)
(0.83556 0.000197437 0)
(0.920006 -1.48854e-06 0)
(0.891667 0.054066 0)
(0.879307 0.0561777 0)
(0.827633 -0.00173232 0)
(0.788284 -0.000521308 0)
(0.846599 0.000718906 0)
(0.835244 0.000272086 0)
(0.883552 0.00287456 0)
(0.792328 0.000922894 0)
(0.9197 2.25414e-05 0)
(0.960532 0.0271322 0)
(0.847128 0.000453005 0)
(0.985111 -0.000181241 0)
(0.985132 -0.000244556 0)
(0.881513 0.0558916 0)
(1.0358 -0.00204893 0)
(0.84767 0.000567344 0)
(1.03676 -0.0014976 0)
(0.972621 -0.000210283 0)
(0.973542 1.62103e-05 0)
(1.05515 -0.0275368 0)
(0.939726 -0.0038974 0)
(0.849104 0.000107576 0)
(0.941911 -0.00173881 0)
(0.985456 -0.01931 0)
(1.10114 -0.057779 0)
(0.933747 0.038912 0)
(0.898001 -0.0282762 0)
(0.919847 0.000137142 0)
(0.913606 0.000818897 0)
(0.920008 -2.02762e-06 0)
(0.976624 -0.000795285 0)
(0.990584 0.00362795 0)
(0.977031 -0.00049943 0)
(0.797773 -0.00259719 0)
(0.874493 0.00264416 0)
(0.92 4.52725e-14 0)
(0.988938 0.00500963 0)
(0.833584 -0.000700576 0)
(0.756935 0.0118633 0)
(0.871577 0.00526789 0)
(0.917899 0.0045985 0)
(1.04231 -0.0188205 0)
(1.04857 -0.00122848 0)
(1.05082 -0.000587069 0)
(0.792484 0.000526895 0)
(0.792629 0.000582888 0)
(0.920009 -1.46295e-06 0)
(0.940122 -0.0295362 0)
(1.01057 -0.013505 0)
(1.05426 -0.0329835 0)
(0.944165 0.0346168 0)
(0.868393 0.00382313 0)
(0.863215 0.0605856 0)
(0.864785 0.0602564 0)
(0.987961 -0.0103144 0)
(0.920002 -4.1286e-07 0)
(0.868011 0.0606096 0)
(0.909042 0.0484664 0)
(0.794047 -0.0020249 0)
(0.910547 0.0487463 0)
(0.879699 -0.0346253 0)
(0.992921 0.00668959 0)
(0.765223 0.069542 0)
(0.993286 0.00752952 0)
(1.07869 -0.0438584 0)
(0.766442 0.052041 0)
(0.838896 -0.000169319 0)
(0.984191 -0.000188604 0)
(0.984165 -0.000101289 0)
(0.871043 0.00559245 0)
(0.93336 0.040583 0)
(0.838717 0.000723172 0)
(0.839017 0.000761902 0)
(0.957321 -0.0219842 0)
(0.920014 -6.74159e-06 0)
(0.99502 0.00659321 0)
(0.852116 0.000532102 0)
(0.995233 0.00702243 0)
(1.06237 -0.0336457 0)
(0.869177 0.0600303 0)
(0.868152 0.00164734 0)
(0.907624 -0.000786829 0)
(1.07503 -0.047972 0)
(0.852622 0.000430628 0)
(0.926946 -0.00611255 0)
(0.933629 -0.00980573 0)
(0.907736 -0.000566435 0)
(0.94626 0.034085 0)
(0.853049 0.00051705 0)
(0.845553 0.000226344 0)
(0.997771 0.00389948 0)
(0.998844 0.00460731 0)
(0.881026 0.00219455 0)
(0.863989 -0.0013907 0)
(0.838533 -9.29847e-05 0)
(0.887003 0.00378088 0)
(0.853572 0.00042856 0)
(0.904629 -0.021103 0)
(1.05833 -0.0300703 0)
(0.989749 0.00347995 0)
(0.9911 0.0029091 0)
(0.918413 0.000558756 0)
(0.788328 0.000681193 0)
(0.79074 0.000537332 0)
(0.919959 -4.76937e-06 0)
(0.75916 0.0384474 0)
(0.855448 0.00169692 0)
(0.998707 0.00184465 0)
(0.999556 0.00196048 0)
(0.920004 -5.68147e-07 0)
(1.06337 -0.0324126 0)
(0.793301 -0.00044934 0)
(0.933618 0.00259317 0)
(0.868665 0.002738 0)
(1.15095 -0.0949126 0)
(0.882345 0.00427391 0)
(1.0975 -0.0658419 0)
(0.857564 0.00416787 0)
(0.98962 0.00581627 0)
(0.870034 0.00444191 0)
(0.990653 0.00556606 0)
(0.868188 0.000129504 0)
(1.10873 -0.0657251 0)
(0.840158 -7.8704e-05 0)
(0.85001 0.00400255 0)
(0.839875 -0.0001031 0)
(0.839032 0.000711946 0)
(0.851479 0.00432489 0)
(0.852246 0.00428848 0)
(0.852366 0.00444394 0)
(1.00468 0.000483648 0)
(0.855814 0.00419912 0)
(0.858123 0.00503337 0)
(0.857646 0.00491168 0)
(0.857736 0.00507544 0)
(1.00514 0.000342597 0)
(0.851673 0.00376945 0)
(0.873666 0.0590952 0)
(1.05471 -0.0325849 0)
(0.807108 -0.0020498 0)
(0.855904 0.00376478 0)
(0.870773 0.00516417 0)
(0.897519 0.00810121 0)
(1.00209 -0.0230897 0)
(1.07435 -0.0484003 0)
(0.994477 0.00764022 0)
(0.86097 -0.00474797 0)
(0.994338 0.0072943 0)
(0.854931 0.00168099 0)
(0.92 -1.01641e-09 0)
(1.00611 -0.000154954 0)
(0.733844 0.0580036 0)
(0.838099 0.000680606 0)
(0.942257 0.0360395 0)
(1.00775 -0.000221041 0)
(0.975719 -0.0173279 0)
(0.855998 0.000752699 0)
(0.905062 -0.00793823 0)
(0.970144 0.0224029 0)
(0.967506 0.0255807 0)
(0.849589 0.000457242 0)
(1.00577 -0.00372305 0)
(0.92 -3.97092e-08 0)
(0.897726 0.000693349 0)
(0.901619 0.000169716 0)
(0.875472 0.0573527 0)
(0.806998 -0.00116395 0)
(0.832926 0.0283384 0)
(0.834586 0.000199907 0)
(0.866625 9.96238e-06 0)
(0.92 4.06758e-11 0)
(0.854042 0.000545843 0)
(0.851069 0.000100035 0)
(0.838394 0.000598992 0)
(0.781147 0.0648761 0)
(0.838362 0.000723969 0)
(1.00793 -0.0025579 0)
(0.834209 0.0235935 0)
(0.913953 -0.024191 0)
(0.846126 0.000707581 0)
(0.854705 0.000239979 0)
(1.05356 -0.0253899 0)
(0.833711 0.0238156 0)
(0.92 -2.17401e-09 0)
(1.0124 -0.000367731 0)
(0.858524 7.06319e-05 0)
(0.99611 0.00645637 0)
(0.858533 7.82407e-05 0)
(0.871386 0.00566801 0)
(1.01275 -0.000503308 0)
(0.996771 0.00552941 0)
(0.841607 -2.29657e-06 0)
(0.965761 -0.0206647 0)
(0.871585 0.00532694 0)
(0.92 2.15287e-09 0)
(0.833557 0.000289022 0)
(0.833318 0.00033191 0)
(1.02675 -0.0116106 0)
(1.02599 0.00160159 0)
(0.839432 0.000815237 0)
(0.83446 0.000312458 0)
(0.927247 0.00564691 0)
(1.07546 -0.0480098 0)
(0.828591 0.0234336 0)
(0.996526 -0.00784016 0)
(0.841267 -2.66127e-06 0)
(1.02305 -0.0101541 0)
(0.955033 0.0297448 0)
(0.845267 0.000245557 0)
(0.850046 0.000523187 0)
(1.06183 -0.0321803 0)
(0.918973 0.000219396 0)
(1.04029 -0.0177535 0)
(1.00358 -0.002935 0)
(0.885171 -0.00268579 0)
(0.910777 -0.0154641 0)
(0.92 -9.85569e-13 0)
(0.835949 0.0300624 0)
(0.944278 -0.0066713 0)
(0.83532 0.0278246 0)
(0.998762 0.00349163 0)
(1.01829 -0.0122011 0)
(0.850979 0.000703698 0)
(1.01492 -0.0119138 0)
(1.01456 -0.012058 0)
(0.997671 0.00213328 0)
(0.856269 0.00417304 0)
(1.01538 -0.0118669 0)
(0.789148 0.000842368 0)
(0.838596 0.00189918 0)
(0.834693 0.0245804 0)
(0.857275 0.00488663 0)
(0.838272 0.00179505 0)
(0.928113 -0.0251579 0)
(0.903636 0.00200392 0)
(0.942527 0.00168122 0)
(1.07578 -0.0465123 0)
(1.01745 -0.00106779 0)
(1.04448 -0.0242356 0)
(0.962594 0.0262877 0)
(1.01789 -0.00151004 0)
(0.921232 -0.0287899 0)
(0.908865 0.0017749 0)
(0.911871 0.00157742 0)
(0.870922 0.00525404 0)
(0.832662 -0.00166968 0)
(0.840233 0.000135685 0)
(0.869085 0.00310075 0)
(0.744197 0.00714478 0)
(0.919506 0.000226336 0)
(1.03735 -0.0153836 0)
(0.912753 -0.0105479 0)
(1.11181 -0.0774027 0)
(1.0369 -0.0155981 0)
(1.02203 -0.0107435 0)
(0.911002 -0.0271272 0)
(1.01833 -0.0108913 0)
(0.92 2.99878e-09 0)
(0.857065 0.00420155 0)
(1.00256 0.00156365 0)
(1.00875 -0.00326168 0)
(1.09558 -0.0557221 0)
(1.00322 0.00129879 0)
(1.0242 -0.000357092 0)
(1.02513 -0.000282861 0)
(0.908368 -0.00437866 0)
(0.941764 -0.0058652 0)
(0.850527 0.00401158 0)
(0.915381 -0.00187929 0)
(0.930932 0.0392197 0)
(0.865889 3.60433e-06 0)
(0.92 3.82201e-11 0)
(0.850492 0.000829718 0)
(0.990278 -0.00970627 0)
(0.831848 0.022236 0)
(0.845846 -0.00441245 0)
(0.894554 -0.013189 0)
(0.867193 0.000456037 0)
(0.838422 0.000678727 0)
(1.01854 -0.00722937 0)
(0.851581 0.000400946 0)
(0.880349 0.00555105 0)
(0.900319 -0.0153314 0)
(0.77319 -0.0512415 0)
(1.0064 -0.00311268 0)
(0.848482 0.000242634 0)
(0.849614 0.00020464 0)
(1.00631 -0.00359779 0)
(0.853869 0.00401811 0)
(1.00616 -0.00330947 0)
(1.00874 -0.000825331 0)
(1.00609 -0.00339715 0)
(0.920007 1.39015e-05 0)
(0.994823 -0.0123526 0)
(0.982574 -0.0158158 0)
(0.919881 9.67485e-05 0)
(1.01974 -0.0112534 0)
(1.00962 -0.00326914 0)
(0.855814 0.000568791 0)
(0.869669 0.00379943 0)
(1.00457 4.34195e-05 0)
(0.920005 5.15208e-06 0)
(0.962438 -0.000880962 0)
(1.04538 -0.0242829 0)
(0.855221 0.000135808 0)
(0.847527 0.000282791 0)
(1.00416 9.67598e-05 0)
(0.867857 0.00222196 0)
(0.86874 -0.000856612 0)
(0.846835 0.00914724 0)
(0.845978 0.0090415 0)
(1.11209 -0.086271 0)
(0.850001 0.0100068 0)
(0.849059 0.00988657 0)
(1.02901 -0.000804737 0)
(1.04457 -0.0247306 0)
(1.02985 -0.00111567 0)
(0.932232 0.00180909 0)
(0.857689 0.0119356 0)
(0.857167 0.0119056 0)
(0.860835 0.0136982 0)
(0.86008 0.0137007 0)
(0.848386 0.000428271 0)
(0.8309 0.025684 0)
(0.865257 0.000200754 0)
(1.02265 -0.0106405 0)
(1.1014 -0.0772709 0)
(0.840832 0.000875194 0)
(0.835892 0.000384292 0)
(0.867918 0.00197822 0)
(0.833842 0.0220555 0)
(0.841408 0.00140168 0)
(0.835147 0.000361499 0)
(0.957939 -0.0036408 0)
(0.938916 0.0371135 0)
(0.879676 -0.00206264 0)
(0.947019 0.0332754 0)
(0.838422 0.00117048 0)
(0.848376 0.00145273 0)
(1.0811 -0.0452705 0)
(0.919319 0.000273635 0)
(0.839521 0.001258 0)
(0.84063 0.00239604 0)
(1.01013 -0.000266248 0)
(0.842991 0.0038501 0)
(0.836324 0.000972184 0)
(1.01079 -0.000162483 0)
(0.948307 0.0328433 0)
(0.920358 0.0250951 0)
(0.850943 0.00379918 0)
(0.918674 0.0253495 0)
(0.918513 0.0249914 0)
(0.917737 0.0253594 0)
(1.00071 0.00353306 0)
(0.837272 0.00109131 0)
(1.03452 -0.00119277 0)
(1.03479 -0.00172143 0)
(0.941652 0.0377903 0)
(0.947508 0.00960142 0)
(0.841507 0.00284218 0)
(0.844921 0.000189805 0)
(0.981888 -0.0233247 0)
(0.85441 0.000820164 0)
(0.764336 0.0479945 0)
(0.962675 -0.0207854 0)
(0.833509 0.0230814 0)
(0.764034 0.0540172 0)
(0.83174 0.0292119 0)
(0.856559 0.00509898 0)
(0.934569 0.0392614 0)
(0.930282 0.0410481 0)
(0.856999 0.00406706 0)
(0.851857 0.00387988 0)
(1.06952 0.00154558 0)
(1.01339 -0.0108306 0)
(0.856046 0.00388865 0)
(0.855627 0.000691491 0)
(0.974267 0.0217009 0)
(0.862466 0.019003 0)
(0.861341 0.0189554 0)
(0.863706 0.0208759 0)
(0.86252 0.020921 0)
(0.868142 0.0218255 0)
(0.867687 0.0218604 0)
(0.873236 0.0219063 0)
(0.87169 0.0220769 0)
(0.897156 -0.0833903 0)
(1.0242 -0.0104975 0)
(0.876795 0.0217075 0)
(0.98095 -0.0222931 0)
(0.876362 0.0219557 0)
(0.88297 0.0220529 0)
(0.855686 0.0040828 0)
(0.971336 -0.00042217 0)
(0.956018 0.00657637 0)
(0.88195 0.0221307 0)
(0.851272 0.0042125 0)
(0.88605 0.0216256 0)
(0.855468 0.000485226 0)
(0.885129 0.0218041 0)
(0.90802 0.00221192 0)
(1.02062 -0.00793119 0)
(0.892412 0.021925 0)
(0.865137 0.000669534 0)
(0.891797 0.0220048 0)
(0.812028 0.0662871 0)
(0.827095 -0.000991308 0)
(0.896893 0.0210962 0)
(0.832928 0.000303006 0)
(0.894928 0.0214924 0)
(0.832614 0.000321609 0)
(1.12145 -0.0846671 0)
(0.864961 0.00066939 0)
(1.0455 -0.0229329 0)
(0.941516 0.00543708 0)
(0.840222 0.000812151 0)
(0.839864 0.000783767 0)
(0.901101 0.0206924 0)
(0.901367 0.0209633 0)
(0.850315 0.00343722 0)
(1.00811 -0.004341 0)
(0.908221 0.0202285 0)
(0.906402 0.0204845 0)
(0.974246 0.0206115 0)
(0.844809 0.000432022 0)
(0.846035 0.00036943 0)
(0.914954 0.0187023 0)
(1.04204 -0.00104504 0)
(0.912658 0.0190813 0)
(0.832275 -0.000401321 0)
(1.01687 -4.48807e-05 0)
(0.91889 0.0179881 0)
(1.08262 -0.0435669 0)
(0.918915 0.0181561 0)
(1.04246 -0.00102533 0)
(1.01682 -0.000175432 0)
(0.856487 0.006282 0)
(0.840169 0.0013519 0)
(0.840395 0.00144775 0)
(0.925897 0.0173279 0)
(0.924632 0.0173788 0)
(0.889057 -0.00357824 0)
(0.857393 0.00577983 0)
(0.858147 0.00527693 0)
(0.92902 0.0159773 0)
(1.0364 -0.0148244 0)
(0.928439 0.0162549 0)
(1.07871 -0.0463118 0)
(0.852813 0.00446987 0)
(0.936452 0.014001 0)
(0.936892 0.0144124 0)
(0.839167 0.00207674 0)
(0.837409 0.00156202 0)
(0.838845 0.00202031 0)
(0.901493 -0.0315049 0)
(0.83709 0.0015026 0)
(1.00891 -0.00300977 0)
(0.991159 -0.00050883 0)
(0.925094 0.0431932 0)
(0.840603 0.000330045 0)
(0.945954 0.012798 0)
(0.849253 0.00121301 0)
(0.94692 0.0128667 0)
(0.849584 0.00158045 0)
(0.853441 0.00224614 0)
(1.00738 -0.00222593 0)
(1.0069 -0.00235059 0)
(0.952301 0.010741 0)
(0.948762 0.0111211 0)
(1.02164 -0.0123978 0)
(1.00954 -0.00148787 0)
(0.954004 0.00952936 0)
(1.00856 -0.00121175 0)
(0.956111 0.00979943 0)
(0.844477 0.00114858 0)
(0.967853 0.0236519 0)
(0.965331 0.00791521 0)
(0.966804 0.00798534 0)
(0.838047 0.00075087 0)
(1.05654 -0.0316322 0)
(0.969772 0.00534221 0)
(0.965742 0.00560982 0)
(0.685382 0.0264038 0)
(0.861627 0.00227856 0)
(0.861635 0.00242004 0)
(0.838411 0.000670664 0)
(0.972557 0.00396449 0)
(1.02513 -0.0113851 0)
(0.974914 0.00420464 0)
(0.893934 -0.0148798 0)
(1.01741 -0.00246068 0)
(1.02394 -0.0102194 0)
(1.08583 -0.0563993 0)
(0.982043 0.00254895 0)
(0.979783 0.00274842 0)
(0.991529 -0.000748721 0)
(0.982655 0.000175259 0)
(0.982447 0.000160196 0)
(1.0612 -0.031317 0)
(1.06651 -0.0356025 0)
(0.85494 0.011108 0)
(0.956981 0.00405157 0)
(0.758474 0.0445059 0)
(1.04395 -0.00185769 0)
(0.865689 9.86865e-05 0)
(1.09583 -0.0530339 0)
(1.04534 -0.00262609 0)
(1.07465 -0.0453443 0)
(1.02201 -0.00241621 0)
(0.956741 0.0014161 0)
(0.860611 0.015387 0)
(0.853819 0.0110842 0)
(0.860452 0.0151488 0)
(1.01943 -0.00210601 0)
(0.849215 0.00133026 0)
(0.851477 0.0104407 0)
(0.849631 0.00145851 0)
(0.92 -3.57736e-08 0)
(0.850764 0.0103518 0)
(1.02123 -0.00116729 0)
(0.92 -1.34466e-07 0)
(0.855914 0.0115477 0)
(0.856644 0.0115286 0)
(1.04788 -0.0240455 0)
(1.05318 -0.0339734 0)
(0.853487 0.00424859 0)
(0.972285 0.0219302 0)
(0.89593 -0.0809084 0)
(0.939938 0.00140944 0)
(0.920009 -5.31658e-06 0)
(0.86826 -6.78136e-05 0)
(0.853976 0.000707176 0)
(0.830492 0.0250382 0)
(0.92 -3.7083e-09 0)
(0.995447 -0.0236826 0)
(0.848336 0.00151155 0)
(1.02334 -0.0107005 0)
(0.832444 0.0229202 0)
(0.92642 0.0217299 0)
(0.944007 -0.00530927 0)
(0.925292 0.0213073 0)
(1.08007 -0.0437684 0)
(0.838073 0.000610561 0)
(0.964362 -0.0194283 0)
(0.899021 -0.0293964 0)
(0.917704 0.0245763 0)
(0.832156 0.0250059 0)
(0.913447 0.0015565 0)
(0.850337 0.00365243 0)
(0.92 7.2093e-10 0)
(0.848638 0.0001075 0)
(0.924034 0.020866 0)
(0.924929 0.0219809 0)
(1.00074 -0.0238253 0)
(0.912198 -0.00195896 0)
(0.924951 -0.0025447 0)
(0.857029 0.00506464 0)
(1.04616 -0.0211649 0)
(0.854571 0.00047085 0)
(0.856574 0.00403701 0)
(0.923842 0.0216037 0)
(0.991413 -0.00231582 0)
(0.833469 0.0279694 0)
(0.961067 0.00190236 0)
(0.833623 0.0290314 0)
(0.833082 0.0268089 0)
(0.969961 0.0233058 0)
(0.962875 0.0266173 0)
(0.854318 0.00408062 0)
(0.922748 0.0212351 0)
(1.08431 -0.0442854 0)
(1.01699 -0.0129451 0)
(0.807097 0.00136282 0)
(1.01896 -0.0111765 0)
(1.05196 -0.000731489 0)
(0.80848 0.00105099 0)
(0.832154 0.0260405 0)
(1.0154 -0.0114309 0)
(1.0184 -0.00757541 0)
(0.83261 0.0245525 0)
(1.05153 -0.000717776 0)
(0.818387 -0.0331608 0)
(0.827943 0.0236948 0)
(0.874504 0.00542558 0)
(0.909938 0.0200403 0)
(0.909911 0.0202226 0)
(1.0249 -0.010397 0)
(0.847151 0.000301817 0)
(0.825351 -0.0288086 0)
(0.841471 -0.0288079 0)
(0.878582 -0.0133502 0)
(0.957049 -0.0266087 0)
(0.839044 0.000747524 0)
(1.00796 -0.00336552 0)
(0.886819 -0.000414836 0)
(1.07894 -0.0434067 0)
(0.815027 0.0676822 0)
(0.850502 0.000199869 0)
(0.851656 0.000210635 0)
(0.823418 0.000281891 0)
(0.933673 0.0154478 0)
(0.931678 0.0159519 0)
(0.861082 0.0171218 0)
(0.82947 0.029423 0)
(0.867826 8.69221e-05 0)
(1.02665 -0.00161992 0)
(0.939737 0.0131032 0)
(0.880046 0.00607861 0)
(0.829018 0.0297223 0)
(0.937848 0.0135689 0)
(1.02703 -0.00119502 0)
(1.02015 -0.0109537 0)
(1.02306 -0.0120571 0)
(0.870703 0.0052133 0)
(1.02423 -0.0113937 0)
(1.00574 -0.00343601 0)
(1.09723 -0.0534053 0)
(1.02657 -0.0113789 0)
(1.0668 -0.0477039 0)
(0.956359 0.00818131 0)
(0.839018 0.000801352 0)
(0.839474 0.000789724 0)
(0.954688 0.00858186 0)
(0.919839 7.89136e-06 0)
(0.837749 0.000685462 0)
(1.02078 -0.00830756 0)
(1.02509 -0.0103912 0)
(0.838391 0.000718891 0)
(1.05508 -0.00262922 0)
(1.05104 -0.0339121 0)
(1.00859 -0.00439097 0)
(1.05535 -0.0321242 0)
(1.06102 -0.0305792 0)
(1.05644 -0.00357062 0)
(1.06416 -0.0374048 0)
(1.05887 -0.0379531 0)
(1.08122 -0.0462483 0)
(1.0821 -0.0456174 0)
(0.879345 0.000332474 0)
(0.816688 0.0156124 0)
(0.812969 -0.00226241 0)
(0.815561 0.0158456 0)
(0.880044 0.000323606 0)
(1.01484 -0.0107243 0)
(1.04902 -0.030972 0)
(1.06492 -0.0369259 0)
(0.826055 -0.00168247 0)
(0.838688 0.000660687 0)
(1.00389 -0.00334119 0)
(0.844749 0.000675409 0)
(1.00766 -0.00266291 0)
(1.00523 -0.002931 0)
(0.834932 0.0294233 0)
(0.835403 0.030486 0)
(0.917591 0.00279276 0)
(0.834751 0.0282391 0)
(0.91994 -1.24619e-06 0)
(0.834785 0.0271388 0)
(0.855478 0.00378236 0)
(1.02311 -0.00929155 0)
(1.00933 -0.00131135 0)
(0.834586 -0.00781833 0)
(0.843032 -0.0273562 0)
(0.85768 0.00423875 0)
(1.03274 -0.000164822 0)
(0.860332 0.002356 0)
(1.0004 -0.00620037 0)
(0.999781 -0.00616874 0)
(1.03327 -0.000379846 0)
(0.830314 0.0238577 0)
(1.01006 -0.00650879 0)
(1.00729 -0.0105044 0)
(1.0121 -0.00678532 0)
(0.855456 0.00128228 0)
(0.855395 0.00112818 0)
(0.855819 0.000993099 0)
(0.855487 0.00184397 0)
(1.00799 -0.0106875 0)
(1.00665 -0.00300429 0)
(0.829912 0.000171294 0)
(0.977206 0.0190409 0)
(0.834076 0.0248125 0)
(1.06606 -0.0393211 0)
(0.830135 8.57251e-05 0)
(1.05777 -0.0365583 0)
(0.896852 -0.00481535 0)
(0.928292 -0.00320848 0)
(0.825828 -0.00187831 0)
(1.06418 -0.000821333 0)
(1.06428 -0.000116295 0)
(0.906552 -0.0252002 0)
(0.786076 0.0670159 0)
(0.859985 0.0169046 0)
(1.06683 -0.0372522 0)
(1.03671 -0.012592 0)
(1.03841 -0.00172525 0)
(1.06407 -0.035634 0)
(0.859561 0.0125769 0)
(0.858304 0.0125608 0)
(1.01616 -0.0132123 0)
(0.897125 -0.0205802 0)
(0.826569 -0.00137125 0)
(0.826235 -0.00150028 0)
(1.0077 -0.00150192 0)
(1.12684 -0.0847083 0)
(1.07224 -0.00190155 0)
(1.0231 -0.0100218 0)
(0.86168 0.000702995 0)
(0.85282 0.0107529 0)
(0.841286 1.9298e-05 0)
(0.852105 0.010694 0)
(0.848216 0.000108831 0)
(0.848435 0.00960241 0)
(0.735428 0.049795 0)
(0.847577 0.00950834 0)
(0.936811 0.00559748 0)
(1.06871 -0.0345644 0)
(1.08114 -0.0434211 0)
(0.783495 0.00123789 0)
(0.873561 -0.0140503 0)
(0.848245 -0.0234306 0)
(0.852168 -0.0277385 0)
(1.0487 -0.0251146 0)
(0.975933 0.00277815 0)
(0.917031 -0.00092555 0)
(0.797791 -0.0369345 0)
(0.893213 0.0214433 0)
(0.89023 0.0217897 0)
(0.884153 0.0219931 0)
(0.900403 0.0211749 0)
(0.892873 0.0216737 0)
(0.919504 7.06615e-05 0)
(0.943938 -0.0252981 0)
(0.888484 0.0219561 0)
(0.879861 0.0217243 0)
(0.899351 0.0214118 0)
(1.0221 -0.0123369 0)
(0.88397 0.0221306 0)
(0.913806 0.0199044 0)
(0.903317 0.0201779 0)
(0.878181 0.0218786 0)
(0.851786 0.000326529 0)
(0.875529 0.0220392 0)
(0.901944 0.0203472 0)
(0.874761 0.0221412 0)
(0.839861 0.00220985 0)
(0.91053 0.0191163 0)
(0.861575 0.0586537 0)
(0.86962 0.0218227 0)
(0.868788 0.0219159 0)
(0.910157 0.0193115 0)
(0.866709 0.0216376 0)
(0.865911 0.0244199 0)
(0.918189 0.0187189 0)
(0.865259 0.0215646 0)
(0.839396 0.000743493 0)
(0.862299 0.0204574 0)
(0.917412 0.0188947 0)
(0.845527 0.00102778 0)
(0.921807 0.0174332 0)
(0.861984 0.0201682 0)
(0.876778 0.00445233 0)
(0.858295 0.00503548 0)
(1.06064 0.00222627 0)
(0.920278 0.0176045 0)
(0.839507 0.00217445 0)
(0.834505 0.000303492 0)
(0.838015 0.00169603 0)
(0.927434 0.016923 0)
(0.917518 0.0250279 0)
(0.837434 0.000659578 0)
(0.837674 0.00165414 0)
(0.833848 0.00032129 0)
(0.9274 0.0170918 0)
(1.04031 0.00591272 0)
(0.871691 -0.0257932 0)
(0.936461 0.0151909 0)
(0.853126 0.00425925 0)
(1.01201 -2.73465e-05 0)
(0.93601 0.0155522 0)
(0.945222 0.0131185 0)
(0.943568 0.0133406 0)
(1.06989 -0.0364286 0)
(0.945826 0.0113789 0)
(0.945598 0.0115127 0)
(0.956491 0.0107812 0)
(0.854844 0.0007331 0)
(0.896541 -0.000468189 0)
(0.955778 0.0110074 0)
(0.853175 0.00261539 0)
(0.964624 0.00817719 0)
(0.950715 -0.00552667 0)
(0.853055 0.00253821 0)
(0.859607 0.00244009 0)
(0.961819 0.00857179 0)
(1.03909 -0.0218366 0)
(0.892062 -0.0227174 0)
(0.963276 0.00606987 0)
(0.963766 0.00606248 0)
(0.97503 0.00546304 0)
(1.03905 -0.000827479 0)
(0.974254 0.00558114 0)
(0.871759 -0.0138013 0)
(0.974737 0.00255736 0)
(0.854962 0.00149379 0)
(0.99275 -0.00315255 0)
(1.04051 -0.000326178 0)
(0.973166 0.00282338 0)
(0.974046 0.0209864 0)
(0.98676 0.0156815 0)
(1.01983 -0.0111747 0)
(0.982739 0.00187192 0)
(0.999387 -0.00364585 0)
(0.997691 -0.0035336 0)
(0.943261 -0.000286853 0)
(0.984116 0.002051 0)
(0.988079 -0.000278447 0)
(0.985298 -0.000268973 0)
(0.936732 0.00195681 0)
(0.831139 -0.0158342 0)
(0.819589 -0.0563697 0)
(0.854735 0.00390077 0)
(0.834 -0.013315 0)
(0.856537 0.00467993 0)
(0.82947 -0.0168208 0)
(0.875155 -0.0204145 0)
(0.922136 -0.0207442 0)
(0.878192 0.00256004 0)
(0.753998 0.0525963 0)
(0.867605 -0.00374352 0)
(0.917808 0.000308019 0)
(1.01168 0.00780372 0)
(1.01249 0.004515 0)
(0.943695 0.0358898 0)
(0.93804 0.0382614 0)
(0.855126 0.00395383 0)
(0.919116 -0.0228316 0)
(0.920813 0.0189999 0)
(0.91891 0.0193801 0)
(0.860248 -0.00378593 0)
(1.08169 -0.00413832 0)
(0.92422 0.0182596 0)
(0.92092 0.0191562 0)
(0.922287 0.0188474 0)
(0.920608 0.0251702 0)
(0.938505 -0.0217868 0)
(1.06031 -0.033096 0)
(1.00662 -0.00330852 0)
(1.01963 -0.0105343 0)
(0.85482 0.00430866 0)
(1.01241 -0.0060261 0)
(1.05046 -0.0319716 0)
(1.07348 -0.0426332 0)
(0.982929 0.017637 0)
(0.919966 9.7735e-06 0)
(0.894827 0.0236482 0)
(0.919719 0.0258096 0)
(1.11774 -0.0698561 0)
(0.92 -1.15935e-10 0)
(0.87934 -0.000542367 0)
(0.951899 -0.00447007 0)
(0.999021 0.00571562 0)
(0.879037 -0.00102318 0)
(0.92 -9.53638e-09 0)
(0.860375 0.0233195 0)
(0.850986 0.000504084 0)
(1.02554 -0.0123734 0)
(0.984157 0.0157552 0)
(0.782752 -0.000820402 0)
(0.92708 0.0180594 0)
(0.974041 0.0211165 0)
(0.9735 0.0217965 0)
(0.891708 -0.0324638 0)
(1.04237 -0.00198672 0)
(0.999945 0.00667164 0)
(1.04195 -0.0021273 0)
(0.994118 -0.00324326 0)
(0.897503 -0.0367291 0)
(1.10102 -0.0682218 0)
(1.0529 -0.0353355 0)
(0.88529 -0.02742 0)
(1.00969 0.000100816 0)
(0.920379 0.0192831 0)
(0.992092 -0.00213617 0)
(0.851783 0.00298352 0)
(0.920505 0.0194854 0)
(0.880128 0.0243897 0)
(1.0224 -0.0100023 0)
(0.986134 0.0116544 0)
(0.84336 0.000813833 0)
(0.851888 0.00310824 0)
(0.877711 0.00226389 0)
(1.0115 -0.00599507 0)
(0.831196 0.029609 0)
(0.855719 0.000938376 0)
(0.880978 0.00211516 0)
(0.888048 -0.0188147 0)
(0.984206 0.012549 0)
(1.06891 -0.0489143 0)
(0.90736 0.00472997 0)
(0.92733 -0.00195515 0)
(0.882967 0.00180662 0)
(1.01277 -0.00680295 0)
(1.02336 -0.00743529 0)
(0.862173 0.000648964 0)
(0.891221 0.00657556 0)
(0.793943 -0.066518 0)
(1.0758 -0.045606 0)
(0.866953 0.0244657 0)
(1.08264 -0.0446346 0)
(1.00927 -0.000691041 0)
(1.00899 -0.000888464 0)
(0.759862 0.00565247 0)
(0.917067 0.0198333 0)
(1.00793 -0.00209682 0)
(0.832438 0.0220622 0)
(0.983777 0.0121899 0)
(0.885838 0.00164014 0)
(0.979758 0.0162403 0)
(0.885061 -0.000451267 0)
(1.01521 0.00376484 0)
(1.05104 -0.031045 0)
(0.870038 0.0015722 0)
(0.86911 0.00175801 0)
(1.01276 -0.0060811 0)
(1.00848 0.0117167 0)
(1.00084 -0.00443418 0)
(1.01364 -0.0108703 0)
(1.01667 -0.00219419 0)
(1.01657 -0.00173906 0)
(0.870049 0.00168139 0)
(0.886802 -0.000650586 0)
(1.00164 -0.00418262 0)
(1.02051 -0.0121972 0)
(1.02105 -0.0118129 0)
(1.0748 -0.0475654 0)
(0.974511 0.0178404 0)
(0.833355 0.0224197 0)
(1.02154 -0.0072331 0)
(0.959759 -0.0355747 0)
(1.0041 -0.00717797 0)
(1.08878 -0.0550556 0)
(1.00122 -0.00708053 0)
(0.919495 0.025422 0)
(0.739872 0.00151452 0)
(0.853246 0.00163818 0)
(0.852575 0.00168186 0)
(1.04922 -0.0308789 0)
(1.01076 -0.00799737 0)
(0.862924 0.000480475 0)
(1.0267 -0.0114112 0)
(1.01413 -0.00763787 0)
(0.945482 -0.00654198 0)
(1.02784 0.000311008 0)
(1.06595 -0.0368122 0)
(1.02462 -0.0118413 0)
(0.929673 -0.0155768 0)
(0.943409 -0.00137646 0)
(0.899043 0.023853 0)
(0.866793 0.00265146 0)
(0.865037 0.00234256 0)
(1.01289 -0.00424776 0)
(0.891388 0.0245965 0)
(0.857318 0.00193597 0)
(0.851716 0.00141957 0)
(0.839753 0.023685 0)
(1.01653 -0.0106446 0)
(0.855531 0.00178158 0)
(1.01009 -0.0109027 0)
(1.11375 -0.0838276 0)
(0.938847 -0.0333931 0)
(1.01918 0.0093552 0)
(0.853277 0.00464764 0)
(0.838381 0.0235598 0)
(1.0168 0.0108055 0)
(0.920009 -2.97286e-06 0)
(0.851484 0.0280173 0)
(1.02269 -0.00903632 0)
(0.855868 0.0290909 0)
(0.849195 0.0282601 0)
(0.870625 0.00326428 0)
(0.940485 0.00348499 0)
(0.855173 0.028907 0)
(1.01851 -0.00861787 0)
(1.01015 0.00762187 0)
(0.902417 0.0230471 0)
(0.841107 0.00277485 0)
(0.931404 -0.00419556 0)
(0.864706 0.0298869 0)
(0.883253 0.0249346 0)
(1.01026 -0.00233849 0)
(0.92 -1.96102e-08 0)
(0.904234 0.0228672 0)
(0.864041 0.0297668 0)
(0.873918 0.0300869 0)
(0.825927 0.0286399 0)