/*--------------------------------*- C++ -*----------------------------------*\
  =========                 |
  \\      /  F ield         | OpenFOAM: The Open Source CFD Toolbox
   \\    /   O peration     | Website:  https://openfoam.org
    \\  /    A nd           | Version:  12
     \\/     M anipulation  |
\*---------------------------------------------------------------------------*/
FoamFile
{
    format      ascii;
    class       volScalarField;
    location    "3.8";
    object      T;
}
// * * * * * * * * * * * * * * * * * * * * * * * * * * * * * * * * * * * * * //

dimensions      [0 0 0 1 0 0 0];

internalField   nonuniform List<scalar> 
9801
(
0.885393
0.887116
0.887783
0.888243
0.88862
0.889178
0.889817
0.890631
0.891863
0.893977
0.896339
0.897776
0.898569
0.898948
0.899235
0.899614
0.900108
0.900787
0.901613
0.903229
0.906369
0.908897
0.909966
0.910409
0.910317
0.910346
0.910691
0.911249
0.912076
0.913393
0.9165
0.919904
0.92137
0.921892
0.921635
0.921397
0.921642
0.9222
0.922948
0.924324
0.927306
0.930838
0.932495
0.933168
0.933003
0.932784
0.932963
0.93344
0.934224
0.93549
0.938955
0.942489
0.943842
0.944346
0.944234
0.944041
0.944502
0.944971
0.945664
0.947234
0.951697
0.954913
0.956047
0.956515
0.955708
0.955296
0.955699
0.956391
0.957553
0.96008
0.965128
0.968518
0.969721
0.969893
0.967827
0.966862
0.967432
0.968611
0.970383
0.974912
0.981105
0.984483
0.986033
0.985836
0.982628
0.981315
0.982184
0.984692
0.989621
0.999315
1.00616
1.01075
1.01503
1.01631
1.01492
1.01648
1.02342
1.14271
1.45584
0.88791
0.890306
0.891158
0.891763
0.891806
0.891588
0.891963
0.892697
0.893649
0.895526
0.898718
0.900771
0.901808
0.902483
0.902524
0.901965
0.902238
0.902967
0.90384
0.905315
0.908336
0.910908
0.912334
0.913223
0.91344
0.912699
0.912822
0.913518
0.914442
0.915754
0.918603
0.921414
0.923085
0.924115
0.924378
0.923506
0.923586
0.924331
0.92528
0.926745
0.92961
0.932377
0.934084
0.935172
0.935225
0.93429
0.934483
0.935315
0.936364
0.937785
0.94106
0.944087
0.945635
0.946611
0.946315
0.945176
0.945638
0.946487
0.947432
0.949107
0.953222
0.95631
0.957832
0.958908
0.957859
0.956282
0.956713
0.957732
0.959017
0.961336
0.966344
0.969801
0.971315
0.972139
0.970138
0.968103
0.968654
0.97008
0.971878
0.976367
0.982605
0.985977
0.987779
0.988919
0.98609
0.982986
0.984309
0.986808
0.99143
0.999278
1.00577
1.01076
1.01565
1.01798
1.01562
1.01503
1.01698
1.13634
1.46643
0.889951
0.892705
0.893738
0.894418
0.894671
0.894412
0.894498
0.895019
0.895825
0.897506
0.900706
0.903056
0.904314
0.905091
0.905315
0.90475
0.904789
0.905377
0.906252
0.907719
0.91063
0.913173
0.914648
0.915624
0.91609
0.915591
0.915551
0.916175
0.917119
0.918425
0.921148
0.923708
0.925262
0.926386
0.926975
0.926417
0.926411
0.927073
0.928018
0.929396
0.932195
0.934824
0.936395
0.937547
0.937896
0.937114
0.937269
0.938083
0.939177
0.940596
0.943725
0.946654
0.948204
0.94931
0.949229
0.948019
0.948272
0.949068
0.950206
0.95201
0.955928
0.958975
0.960607
0.961867
0.961302
0.959402
0.959442
0.960469
0.961929
0.964272
0.968973
0.972513
0.974278
0.975507
0.974521
0.972025
0.971977
0.973349
0.975141
0.978994
0.984996
0.989032
0.991568
0.993633
0.992443
0.988423
0.988543
0.991443
0.995249
1.00214
1.00975
1.01555
1.02106
1.02541
1.0239
1.02348
1.02363
1.13877
1.47544
0.892455
0.895495
0.896674
0.897492
0.898073
0.898063
0.897743
0.898067
0.898772
0.900169
0.903144
0.905671
0.907086
0.907988
0.90857
0.908345
0.908088
0.908548
0.909378
0.910814
0.913572
0.91596
0.917414
0.918425
0.919184
0.919025
0.918794
0.919332
0.920249
0.921667
0.924396
0.926784
0.928229
0.929316
0.930135
0.929886
0.929693
0.930242
0.931152
0.932566
0.935447
0.938148
0.939709
0.940821
0.941421
0.940803
0.940638
0.94123
0.942203
0.943695
0.946924
0.949994
0.951666
0.952833
0.953179
0.952033
0.951902
0.952521
0.953572
0.95546
0.959387
0.962621
0.964409
0.96576
0.965984
0.964044
0.963413
0.96426
0.965704
0.968001
0.972688
0.976737
0.978831
0.980326
0.980553
0.977759
0.976519
0.97772
0.979623
0.982831
0.988955
0.99404
0.997011
0.999246
0.999717
0.996162
0.994484
0.996791
1.00043
1.00602
1.01357
1.01978
1.02538
1.03111
1.03243
1.03165
1.02755
1.13866
1.48153
0.895299
0.898211
0.899439
0.900422
0.901214
0.9015
0.901174
0.90151
0.902233
0.903531
0.906109
0.908269
0.909655
0.910682
0.911546
0.911708
0.911483
0.911974
0.912822
0.914299
0.917003
0.919109
0.920417
0.921409
0.922221
0.922153
0.921927
0.922511
0.923448
0.924992
0.927951
0.930328
0.931703
0.932734
0.933522
0.93323
0.932873
0.933431
0.934409
0.935908
0.938957
0.941829
0.943495
0.94465
0.945454
0.944915
0.944247
0.944704
0.945663
0.94714
0.950413
0.953693
0.9556
0.956907
0.957739
0.956885
0.955986
0.956335
0.957335
0.959106
0.962972
0.966566
0.968628
0.97008
0.970979
0.969581
0.967947
0.968335
0.969699
0.97168
0.97609
0.980956
0.983521
0.985101
0.986129
0.984144
0.981728
0.982072
0.983899
0.986374
0.991561
0.997701
1.0016
1.00415
1.00612
1.00449
1.00102
1.0011
1.00418
1.0087
1.01582
1.0225
1.02801
1.03338
1.03711
1.03618
1.02933
1.13652
1.4838
0.89866
0.901321
0.902334
0.903285
0.904093
0.904325
0.90418
0.904635
0.905428
0.906917
0.909523
0.911382
0.91261
0.913603
0.914481
0.914705
0.914566
0.91508
0.915945
0.917443
0.920346
0.922534
0.923765
0.924712
0.925498
0.925357
0.925016
0.925544
0.92647
0.928005
0.931174
0.933837
0.935307
0.936351
0.937147
0.936824
0.936093
0.936457
0.937399
0.938893
0.942142
0.945367
0.947196
0.948408
0.949351
0.949052
0.947798
0.947878
0.94879
0.950248
0.953552
0.957228
0.959329
0.960689
0.961752
0.961582
0.959996
0.959645
0.960492
0.962027
0.965569
0.96991
0.97244
0.973957
0.975161
0.974837
0.972559
0.971943
0.972985
0.974565
0.977948
0.983535
0.987186
0.989098
0.990527
0.990008
0.986948
0.985868
0.987042
0.989036
0.992534
0.998963
1.0041
1.00723
1.00969
1.01066
1.00724
1.00489
1.00622
1.00956
1.01496
1.02176
1.02743
1.03244
1.03663
1.03787
1.03203
1.13353
1.48433
0.901804
0.904662
0.905457
0.90633
0.907025
0.906909
0.906665
0.907101
0.907888
0.909359
0.912478
0.91478
0.915883
0.916761
0.917568
0.917668
0.917326
0.917665
0.918456
0.919751
0.922784
0.925545
0.926987
0.927973
0.928766
0.928726
0.928147
0.928355
0.929178
0.930495
0.93354
0.936627
0.938324
0.939444
0.94033
0.940363
0.939363
0.939329
0.940156
0.941451
0.944519
0.948081
0.950115
0.951406
0.952448
0.952671
0.951223
0.950726
0.951479
0.952722
0.955732
0.959928
0.962376
0.963778
0.964872
0.965234
0.963571
0.962453
0.962991
0.964263
0.966955
0.971909
0.975432
0.977225
0.978477
0.978809
0.976583
0.97502
0.975392
0.976694
0.978801
0.983996
0.989155
0.991836
0.9935
0.994377
0.991981
0.989313
0.989235
0.990751
0.992951
0.998007
1.0044
1.00854
1.0112
1.01339
1.01289
1.00904
1.00802
1.0099
1.01345
1.01962
1.02575
1.03047
1.03427
1.03676
1.03397
1.13219
1.48439
0.903779
0.907573
0.908666
0.909391
0.90988
0.909705
0.909231
0.909388
0.910057
0.911174
0.914196
0.917302
0.918849
0.919794
0.920517
0.920601
0.920084
0.920134
0.92077
0.921771
0.92434
0.9276
0.92943
0.93057
0.931466
0.931823
0.931107
0.931024
0.931707
0.932763
0.935264
0.93863
0.940637
0.941873
0.942837
0.943294
0.942343
0.94197
0.94261
0.943664
0.946108
0.949948
0.952332
0.953698
0.954786
0.955392
0.95418
0.95328
0.953728
0.954794
0.956964
0.961331
0.964503
0.966113
0.967243
0.967943
0.966568
0.964972
0.965106
0.966183
0.967896
0.972215
0.97699
0.979429
0.980808
0.981622
0.980068
0.977586
0.97721
0.978154
0.979616
0.983059
0.989279
0.99334
0.995461
0.99698
0.996651
0.99287
0.991188
0.99195
0.993688
0.996542
1.00271
1.00823
1.01154
1.01391
1.01575
1.01437
1.01061
1.01039
1.01262
1.01657
1.02274
1.02794
1.03177
1.03456
1.03514
1.13323
1.48454
0.904907
0.909236
0.910909
0.911907
0.912636
0.912565
0.911654
0.911571
0.912127
0.912986
0.915226
0.918687
0.920769
0.921962
0.922845
0.923343
0.922724
0.922407
0.922914
0.92375
0.925597
0.928829
0.931037
0.932372
0.933392
0.934128
0.933729
0.933299
0.933822
0.93472
0.93655
0.939948
0.942299
0.943655
0.944681
0.945409
0.944813
0.944112
0.944553
0.945479
0.947149
0.950931
0.95393
0.955489
0.956597
0.957378
0.956569
0.955341
0.955544
0.956469
0.957854
0.961538
0.965726
0.967859
0.969059
0.969979
0.969243
0.967213
0.96688
0.967707
0.968956
0.971564
0.977013
0.980629
0.982352
0.983483
0.983305
0.98039
0.978856
0.979307
0.980592
0.982455
0.987606
0.993506
0.996508
0.998198
0.999319
0.997469
0.993858
0.99322
0.994322
0.996141
1.00005
1.00643
1.01109
1.01401
1.01627
1.01745
1.01515
1.01203
1.0124
1.01479
1.01918
1.02506
1.02947
1.03228
1.03476
1.13569
1.48473
0.90606
0.910207
0.912322
0.9135
0.914367
0.91487
0.914131
0.913535
0.913918
0.914643
0.916321
0.919555
0.921965
0.923375
0.924402
0.925191
0.925085
0.924447
0.924725
0.925432
0.926812
0.929838
0.93232
0.933816
0.934909
0.935793
0.935834
0.935203
0.935483
0.936253
0.93752
0.940684
0.943554
0.945068
0.946133
0.947002
0.946875
0.9459
0.946037
0.946828
0.948006
0.95108
0.954862
0.956877
0.958064
0.958981
0.958795
0.957291
0.956971
0.957632
0.958738
0.96107
0.965862
0.969024
0.970538
0.971584
0.971772
0.96965
0.96841
0.968767
0.96979
0.971194
0.975498
0.980862
0.983501
0.984934
0.985843
0.984095
0.981077
0.980639
0.981522
0.982837
0.985332
0.991501
0.996405
0.998716
1.00033
1.00119
0.998309
0.995128
0.995146
0.996532
0.998651
1.00343
1.00927
1.01319
1.01587
1.01808
1.01895
1.01617
1.01347
1.01414
1.01645
1.02104
1.02641
1.02992
1.03345
1.13898
1.48485
0.907378
0.911164
0.913351
0.914613
0.915536
0.916225
0.916001
0.915335
0.91556
0.916223
0.917551
0.920586
0.923091
0.924584
0.925668
0.926547
0.926808
0.926128
0.926148
0.926765
0.927876
0.930767
0.933571
0.935148
0.936257
0.93719
0.937541
0.93677
0.93667
0.93728
0.938263
0.940861
0.944429
0.94637
0.947497
0.948416
0.948724
0.947616
0.947263
0.947851
0.94882
0.950813
0.955066
0.957979
0.959408
0.960406
0.960872
0.959433
0.958321
0.958648
0.959587
0.960911
0.964805
0.969486
0.971703
0.972904
0.97376
0.972534
0.970159
0.969737
0.970479
0.971598
0.973821
0.979507
0.983979
0.985969
0.987241
0.987648
0.984807
0.982336
0.982319
0.983264
0.984695
0.988389
0.994923
0.99901
1.00105
1.00253
1.00261
0.999228
0.996837
0.997197
0.998623
1.00111
1.00649
1.01181
1.0153
1.01782
1.01989
1.02021
1.01715
1.01471
1.01533
1.01738
1.02207
1.02659
1.03106
1.14265
1.48487
0.908863
0.912243
0.91435
0.915612
0.916541
0.917267
0.917161
0.916633
0.916908
0.917623
0.918921
0.921849
0.924304
0.925787
0.926846
0.927721
0.928087
0.927273
0.92708
0.92771
0.928748
0.931475
0.934819
0.936527
0.937611
0.938529
0.939015
0.93812
0.937586
0.93802
0.938902
0.940821
0.944864
0.947594
0.948893
0.94984
0.950473
0.949526
0.948489
0.948708
0.949501
0.950749
0.954416
0.958637
0.960702
0.961804
0.962665
0.962018
0.960071
0.959688
0.960257
0.96126
0.963378
0.968646
0.972448
0.974147
0.975211
0.975475
0.973019
0.971215
0.97137
0.972215
0.97346
0.976921
0.983076
0.98655
0.988219
0.989507
0.989136
0.985435
0.983593
0.98406
0.985231
0.986918
0.991643
0.99783
1.00114
1.00298
1.00456
1.00432
1.00045
0.998401
0.999028
1.00063
1.00367
1.00931
1.01407
1.0172
1.01956
1.02145
1.02146
1.01811
1.01555
1.01584
1.01766
1.02201
1.02757
1.1457
1.48464
0.910272
0.913623
0.915464
0.916672
0.917556
0.918256
0.918131
0.917625
0.917945
0.918702
0.919898
0.922914
0.925769
0.927103
0.928056
0.928859
0.929083
0.92815
0.92796
0.928586
0.929537
0.931803
0.935665
0.93793
0.938998
0.939856
0.940387
0.939492
0.938554
0.938841
0.93964
0.940955
0.944707
0.948478
0.95025
0.951231
0.952015
0.951589
0.949888
0.949569
0.950211
0.951214
0.95354
0.958507
0.961675
0.963155
0.964095
0.964392
0.962335
0.96077
0.960928
0.961719
0.96297
0.966725
0.972332
0.975139
0.976621
0.977578
0.976727
0.973649
0.972486
0.972841
0.973779
0.975393
0.980393
0.986219
0.988972
0.990461
0.991506
0.990269
0.986683
0.985473
0.986035
0.987174
0.989289
0.994933
1.00061
1.00349
1.0052
1.00631
1.00523
1.00161
1.00014
1.00088
1.00256
1.0061
1.01185
1.0162
1.01901
1.02114
1.02271
1.02245
1.01895
1.01583
1.01565
1.01706
1.02318
1.14743
1.48405
0.911066
0.914487
0.916891
0.917941
0.918708
0.919333
0.91918
0.918669
0.918957
0.919691
0.920675
0.923303
0.926788
0.92856
0.929402
0.930069
0.930178
0.929279
0.929008
0.929586
0.930453
0.931962
0.935767
0.938855
0.940318
0.941194
0.941822
0.941173
0.93983
0.939824
0.940556
0.941547
0.944129
0.948668
0.95122
0.952472
0.953339
0.953588
0.951846
0.950728
0.951159
0.952068
0.953347
0.957333
0.962015
0.964143
0.965282
0.966054
0.965051
0.962477
0.961835
0.96251
0.963563
0.965459
0.970754
0.975587
0.977714
0.978982
0.979626
0.97732
0.974257
0.973745
0.974495
0.975628
0.977874
0.983872
0.988931
0.991146
0.99261
0.993658
0.991372
0.987711
0.987004
0.987912
0.989266
0.991878
0.99785
1.00275
1.00509
1.00666
1.00794
1.00675
1.003
1.00171
1.00254
1.00434
1.00828
1.01393
1.0179
1.02042
1.02237
1.02368
1.02328
1.01961
1.01566
1.01424
1.0181
1.14599
1.48304
0.911729
0.914589
0.917785
0.91937
0.920111
0.920686
0.920596
0.919929
0.920032
0.920663
0.921489
0.923254
0.926987
0.929444
0.930625
0.931412
0.931834
0.930997
0.93032
0.930655
0.931377
0.93236
0.935265
0.939234
0.94126
0.942368
0.943211
0.943212
0.941603
0.941009
0.941521
0.94237
0.943807
0.947985
0.951775
0.953503
0.954533
0.955333
0.954454
0.952483
0.952291
0.952974
0.953891
0.955912
0.961072
0.964686
0.966277
0.967289
0.967729
0.965462
0.963575
0.963837
0.964719
0.9657
0.968229
0.974177
0.978055
0.979743
0.980895
0.981134
0.978099
0.975631
0.975599
0.976417
0.977648
0.980732
0.98719
0.991493
0.993419
0.994573
0.995009
0.992314
0.989281
0.988933
0.989774
0.991105
0.994239
1.0005
1.00493
1.00712
1.00864
1.00945
1.00777
1.00433
1.00324
1.00407
1.00585
1.01001
1.01556
1.01925
1.02153
1.02328
1.02431
1.0238
1.02006
1.01477
1.01372
1.14148
1.48167
0.912585
0.914507
0.918041
0.920273
0.921372
0.92211
0.922419
0.921634
0.921229
0.921631
0.922337
0.923444
0.926657
0.930064
0.931743
0.932712
0.933426
0.933146
0.931842
0.931647
0.932207
0.933067
0.934873
0.939084
0.942073
0.943498
0.944424
0.94499
0.943815
0.942401
0.942488
0.943192
0.944174
0.946908
0.951777
0.954482
0.955814
0.956741
0.956949
0.954866
0.953523
0.953703
0.954424
0.95552
0.958988
0.964502
0.967317
0.968775
0.969741
0.969303
0.966441
0.965208
0.965375
0.965995
0.967128
0.970893
0.977142
0.980365
0.981933
0.983167
0.982772
0.979065
0.977172
0.977531
0.978429
0.979599
0.983157
0.989617
0.993188
0.994848
0.996316
0.996786
0.993496
0.990646
0.990585
0.991626
0.993103
0.9967
1.0027
1.00651
1.00846
1.00993
1.01094
1.00929
1.00573
1.00458
1.0054
1.00713
1.01136
1.01677
1.02022
1.02229
1.02385
1.02453
1.02389
1.01909
1.01337
1.13474
1.48029
0.913589
0.914803
0.917824
0.920791
0.922276
0.923218
0.923928
0.923767
0.92274
0.922725
0.923338
0.924191
0.926323
0.930196
0.932531
0.933701
0.934526
0.934974
0.933822
0.932907
0.9333
0.934118
0.935241
0.93844
0.94244
0.944405
0.945462
0.94627
0.9461
0.944212
0.94359
0.944149
0.945052
0.946509
0.950838
0.955085
0.956938
0.957976
0.958688
0.957571
0.955088
0.954527
0.955157
0.956106
0.957762
0.96296
0.967955
0.970032
0.97127
0.972025
0.969992
0.966669
0.965811
0.966412
0.96741
0.969032
0.974376
0.980226
0.982815
0.984131
0.985137
0.983807
0.980159
0.97872
0.978932
0.97974
0.981203
0.98588
0.992303
0.995553
0.997097
0.998228
0.998018
0.994817
0.992478
0.992458
0.993224
0.994603
0.99863
1.00457
1.0082
1.01014
1.01162
1.01234
1.01054
1.00705
1.00586
1.00661
1.00823
1.01239
1.01761
1.02082
1.02268
1.02393
1.02439
1.02278
1.01771
1.12966
1.47918
0.914642
0.91551
0.917579
0.921057
0.923064
0.924171
0.925003
0.925534
0.92472
0.924111
0.924497
0.925202
0.926391
0.929748
0.932979
0.934532
0.935495
0.936276
0.936062
0.934715
0.934627
0.935264
0.936075
0.937754
0.941984
0.945053
0.946457
0.947355
0.947911
0.946541
0.945044
0.945258
0.946079
0.947062
0.949457
0.954488
0.957592
0.958963
0.959844
0.960035
0.957593
0.955828
0.956124
0.957099
0.958236
0.960859
0.966712
0.970467
0.972091
0.973065
0.973237
0.97005
0.967354
0.96744
0.968446
0.969615
0.971842
0.977761
0.982562
0.984565
0.985803
0.986694
0.984659
0.980862
0.979884
0.980653
0.981771
0.983621
0.988963
0.994625
0.997202
0.998622
0.999929
0.999619
0.995941
0.99346
0.993546
0.994583
0.996205
1.00071
1.00639
1.00967
1.01147
1.01289
1.01369
1.012
1.00844
1.0071
1.00771
1.00916
1.01304
1.01797
1.02097
1.02262
1.0237
1.02351
1.02246
1.12826
1.47842
0.915767
0.916522
0.917831
0.921171
0.923802
0.925107
0.926012
0.926789
0.926746
0.925733
0.925703
0.926236
0.926996
0.929096
0.933053
0.935383
0.936558
0.937451
0.938016
0.936947
0.936024
0.936255
0.936906
0.937862
0.940819
0.945204
0.947369
0.948432
0.949222
0.949021
0.947106
0.946569
0.947126
0.94793
0.948961
0.952443
0.957451
0.959828
0.961032
0.961803
0.960868
0.958155
0.957574
0.95831
0.959238
0.960229
0.963414
0.969049
0.972004
0.973374
0.974459
0.974395
0.971277
0.969568
0.969911
0.970742
0.971714
0.974243
0.980223
0.984307
0.986067
0.987221
0.987806
0.985643
0.982678
0.982277
0.983107
0.984158
0.986113
0.991494
0.996622
0.998951
1.00024
1.00101
1.00044
0.99717
0.995121
0.995315
0.996347
0.998049
1.00246
1.00784
1.01099
1.01279
1.01418
1.01493
1.01345
1.00997
1.00831
1.00866
1.00984
1.0132
1.01782
1.02071
1.02239
1.02272
1.02485
1.1299
1.47794
0.917028
0.917633
0.918407
0.921018
0.924419
0.926141
0.927146
0.927974
0.928471
0.927512
0.926871
0.927195
0.927866
0.928993
0.93255
0.936125
0.937763
0.938691
0.939478
0.939209
0.937574
0.937225
0.937777
0.938577
0.939957
0.944143
0.947876
0.949497
0.950399
0.951094
0.949941
0.948208
0.948061
0.948612
0.949423
0.950888
0.955561
0.960111
0.962051
0.963119
0.963654
0.961806
0.959588
0.959343
0.959737
0.960355
0.961513
0.96561
0.971355
0.97419
0.975672
0.976805
0.976054
0.97268
0.971178
0.971417
0.972052
0.973095
0.97608
0.982154
0.985944
0.987703
0.989147
0.989834
0.987397
0.984483
0.984009
0.984601
0.98556
0.987594
0.993073
0.997733
0.999811
1.0012
1.00251
1.00227
0.999024
0.996909
0.996882
0.997718
0.999204
1.00347
1.00883
1.01205
1.0139
1.01527
1.0162
1.0152
1.01161
1.00938
1.00931
1.01013
1.01283
1.01722
1.0203
1.02143
1.02524
1.13403
1.47762
0.918179
0.918499
0.91913
0.920819
0.924753
0.927355
0.928485
0.929304
0.929969
0.92942
0.928154
0.92811
0.928688
0.92951
0.931725
0.936169
0.938745
0.939905
0.940737
0.941193
0.939756
0.938495
0.938642
0.939252
0.940055
0.942353
0.947391
0.950396
0.951755
0.952612
0.952769
0.95059
0.9492
0.949401
0.950145
0.95101
0.953012
0.958466
0.96252
0.964266
0.96534
0.965569
0.963035
0.960703
0.960332
0.960884
0.96176
0.963426
0.968715
0.974214
0.976607
0.977799
0.978663
0.977236
0.973655
0.972264
0.972607
0.973507
0.974794
0.978613
0.984946
0.988445
0.989912
0.99097
0.991416
0.98872
0.98566
0.985047
0.985736
0.986825
0.989029
0.994851
0.999775
1.00193
1.00315
1.00418
1.00389
1.00058
0.998064
0.997862
0.99881
1.00027
1.00432
1.00987
1.01336
1.01526
1.01657
1.01734
1.01668
1.01313
1.01017
1.00957
1.01003
1.01211
1.01647
1.01908
1.02425
1.13907
1.47726
0.919154
0.919206
0.91983
0.92093
0.924395
0.928184
0.929864
0.930686
0.931373
0.931361
0.929759
0.929096
0.929492
0.930215
0.931339
0.935121
0.939259
0.94111
0.942028
0.942788
0.942368
0.940257
0.939503
0.939819
0.940538
0.941641
0.945505
0.950595
0.952866
0.953956
0.954709
0.953805
0.951204
0.950436
0.95081
0.951476
0.952421
0.95532
0.961412
0.964971
0.966496
0.967504
0.967186
0.963755
0.961593
0.96178
0.962723
0.963733
0.965639
0.971273
0.975991
0.977905
0.979047
0.97986
0.978278
0.974837
0.97388
0.974639
0.975726
0.97691
0.980802
0.986693
0.989656
0.991121
0.992307
0.992686
0.989957
0.986987
0.986563
0.987411
0.988618
0.990987
0.996603
1.00106
1.00311
1.00441
1.00532
1.005
1.00195
0.999414
0.999184
1.00011
1.00157
1.00538
1.01085
1.01442
1.01627
1.01744
1.01815
1.01775
1.01451
1.01089
1.00957
1.00957
1.01138
1.015
1.02131
1.14317
1.47658
0.920349
0.920037
0.920602
0.921426
0.923546
0.928105
0.930824
0.93198
0.932714
0.933176
0.931932
0.930358
0.930308
0.930884
0.931697
0.933785
0.938772
0.941947
0.943309
0.944114
0.944545
0.942692
0.940654
0.940558
0.941219
0.942071
0.943818
0.948999
0.953321
0.955103
0.95608
0.956563
0.954488
0.951915
0.951474
0.95203
0.952882
0.954098
0.958257
0.964234
0.967051
0.968374
0.969297
0.968413
0.964897
0.963411
0.963672
0.9642
0.965041
0.967266
0.973277
0.977656
0.979486
0.980806
0.981738
0.980054
0.976889
0.976095
0.976369
0.97697
0.978214
0.982477
0.988295
0.991241
0.992678
0.993965
0.994425
0.991727
0.989006
0.988684
0.989238
0.990054
0.992033
0.997295
1.0018
1.00396
1.00522
1.0064
1.00664
1.004
1.00139
1.0009
1.00151
1.00265
1.00586
1.01132
1.01505
1.01688
1.01795
1.01866
1.01868
1.01604
1.01179
1.00935
1.00896
1.0099
1.01694
1.14503
1.47537
0.922034
0.92106
0.921389
0.922075
0.92319
0.926959
0.931202
0.933046
0.933943
0.934628
0.934338
0.932139
0.931258
0.931667
0.932431
0.933528
0.937125
0.942022
0.944238
0.945278
0.945988
0.945441
0.942682
0.941623
0.942015
0.94277
0.943711
0.946428
0.952271
0.955792
0.95729
0.9582
0.958031
0.954817
0.952693
0.952817
0.953633
0.954567
0.956052
0.961067
0.966525
0.968844
0.97006
0.971056
0.969726
0.965899
0.964307
0.964607
0.965402
0.966468
0.969452
0.975847
0.979996
0.981698
0.982874
0.983609
0.981191
0.977625
0.976756
0.977435
0.978413
0.979916
0.984609
0.990335
0.99326
0.994642
0.995732
0.996135
0.993482
0.990295
0.989417
0.989924
0.990871
0.992821
0.998224
1.0032
1.0056
1.00695
1.00813
1.00852
1.00613
1.0029
1.0019
1.00246
1.00353
1.00618
1.01147
1.01551
1.01745
1.01845
1.01914
1.01939
1.01749
1.01283
1.00915
1.00722
1.01189
1.14324
1.47355
0.924129
0.922367
0.922263
0.922879
0.923681
0.925806
0.930646
0.93374
0.935067
0.935811
0.9362
0.934607
0.932711
0.932668
0.933302
0.93409
0.93574
0.940532
0.944591
0.946244
0.947127
0.947569
0.945664
0.943214
0.942929
0.943501
0.944299
0.945501
0.949416
0.955174
0.957982
0.959285
0.960094
0.959028
0.955544
0.954192
0.954521
0.955203
0.956111
0.958107
0.96384
0.968666
0.97067
0.97176
0.9724
0.970555
0.966853
0.965659
0.96618
0.967137
0.968476
0.972296
0.978485
0.98181
0.983315
0.984133
0.984378
0.982077
0.978999
0.978479
0.979303
0.980399
0.981984
0.98655
0.991977
0.994673
0.996102
0.997074
0.997134
0.994414
0.991235
0.990536
0.991278
0.992433
0.994554
0.999681
1.0045
1.00689
1.00823
1.00913
1.00948
1.00762
1.00447
1.00313
1.00347
1.00438
1.00664
1.01162
1.01586
1.01791
1.01883
1.0194
1.0196
1.01837
1.01398
1.00846
1.00817
1.1373
1.47135
0.926191
0.924495
0.923535
0.923935
0.924626
0.925666
0.929082
0.933619
0.935661
0.93666
0.937399
0.93727
0.935003
0.933934
0.934233
0.934883
0.935739
0.938254
0.943631
0.946858
0.948187
0.948906
0.948698
0.945869
0.944221
0.944461
0.945239
0.946089
0.947512
0.952193
0.957502
0.959805
0.960984
0.961804
0.960105
0.956465
0.955413
0.956029
0.956973
0.957986
0.960318
0.966048
0.970221
0.97189
0.972956
0.973785
0.971674
0.968238
0.967612
0.968412
0.969411
0.970632
0.974362
0.979846
0.982724
0.98407
0.985291
0.985991
0.983823
0.980972
0.98047
0.981054
0.981895
0.983367
0.987967
0.993131
0.995585
0.996724
0.997641
0.99808
0.996163
0.993457
0.992783
0.993292
0.99412
0.995613
1.0001
1.00488
1.00736
1.00871
1.00986
1.01074
1.00964
1.00657
1.00478
1.00473
1.00539
1.00696
1.01134
1.01566
1.0178
1.01873
1.01935
1.0196
1.01895
1.01417
1.00901
1.12921
1.46937
0.92757
0.927293
0.925387
0.925192
0.925665
0.926305
0.927743
0.932147
0.936027
0.937618
0.938478
0.939078
0.937828
0.935578
0.935222
0.935777
0.93654
0.937588
0.940925
0.946194
0.948819
0.950021
0.95068
0.949578
0.946651
0.945791
0.946197
0.946842
0.947681
0.949475
0.954738
0.959499
0.961507
0.962572
0.963167
0.961106
0.958023
0.957447
0.957951
0.958597
0.959582
0.9623
0.968036
0.971874
0.973555
0.974542
0.975047
0.972985
0.97019
0.969635
0.970071
0.970721
0.971952
0.975798
0.981408
0.984549
0.985974
0.987017
0.987619
0.985507
0.982479
0.98175
0.982442
0.983424
0.984828
0.988737
0.993699
0.996474
0.997959
0.99922
0.999946
0.998387
0.99528
0.993899
0.994098
0.994959
0.996202
1.00012
1.00538
1.00853
1.01014
1.0113
1.01225
1.01192
1.00898
1.00633
1.00561
1.00602
1.00697
1.01037
1.01497
1.01755
1.01871
1.01929
1.01961
1.01854
1.01534
1.12439
1.46788
0.928566
0.929423
0.92771
0.926448
0.926535
0.927118
0.927906
0.930248
0.935216
0.938253
0.939479
0.940164
0.94035
0.938254
0.936718
0.936838
0.937422
0.93807
0.939166
0.943278
0.948493
0.95078
0.951888
0.952388
0.950536
0.947699
0.947146
0.947753
0.948585
0.949422
0.951277
0.956756
0.961216
0.963027
0.96411
0.964754
0.962511
0.959361
0.958745
0.95945
0.960341
0.961319
0.963847
0.969485
0.973225
0.974845
0.976063
0.976811
0.974668
0.971598
0.97081
0.971404
0.972354
0.973705
0.977559
0.982938
0.985819
0.987273
0.988367
0.988973
0.987375
0.984594
0.983667
0.983863
0.984453
0.985598
0.989435
0.994918
0.997968
0.999383
1.00033
1.00094
1.00004
0.997016
0.995104
0.995098
0.996036
0.997376
1.00079
1.00609
1.00967
1.01144
1.01255
1.01339
1.01346
1.01099
1.00759
1.00613
1.00628
1.00702
1.00971
1.01424
1.01726
1.01862
1.0193
1.0189
1.02039
1.12438
1.46684
0.929439
0.930661
0.93019
0.928266
0.927741
0.928193
0.92885
0.929734
0.932728
0.937736
0.94023
0.941351
0.942058
0.941563
0.939039
0.937942
0.93808
0.938641
0.939406
0.940898
0.945725
0.950573
0.952638
0.953733
0.954105
0.951824
0.949335
0.948991
0.949347
0.949886
0.950806
0.95319
0.958919
0.962982
0.964695
0.965709
0.966131
0.963933
0.961217
0.96071
0.960997
0.961537
0.962599
0.965622
0.971433
0.97508
0.976677
0.977694
0.978233
0.97608
0.973138
0.972622
0.973271
0.974098
0.975179
0.97864
0.983943
0.987009
0.988558
0.989898
0.990806
0.989289
0.985843
0.984467
0.984898
0.985842
0.987091
0.99028
0.995351
0.998444
0.999968
1.00109
1.00212
1.00183
0.999077
0.997042
0.996897
0.997514
0.998552
1.00124
1.00641
1.0103
1.01217
1.0133
1.0142
1.01444
1.01261
1.00914
1.00714
1.00686
1.00722
1.00897
1.01328
1.01656
1.01829
1.01844
1.02199
1.12764
1.4661
0.930369
0.931879
0.932328
0.930975
0.92939
0.929292
0.929655
0.930169
0.931232
0.93527
0.940312
0.942448
0.943398
0.943947
0.942448
0.939727
0.939045
0.939476
0.940146
0.940839
0.942426
0.947867
0.952663
0.954588
0.955671
0.955929
0.953177
0.950394
0.950029
0.950724
0.951512
0.952391
0.954842
0.960679
0.964512
0.966107
0.967319
0.9679
0.965359
0.962175
0.961603
0.962326
0.963206
0.964205
0.967117
0.972883
0.976328
0.977887
0.979164
0.979895
0.977908
0.974969
0.974097
0.974355
0.975048
0.97625
0.979989
0.985673
0.988875
0.990299
0.991226
0.991834
0.990745
0.987788
0.986415
0.986423
0.986755
0.987686
0.990455
0.995852
0.999645
1.00146
1.00259
1.00365
1.00391
1.00154
0.998798
0.998028
0.998582
0.999532
1.00137
1.0061
1.01054
1.01277
1.0139
1.01478
1.01546
1.0146
1.01106
1.00806
1.00718
1.00731
1.00826
1.01195
1.01561
1.01703
1.02191
1.133
1.46546
0.931075
0.933311
0.933916
0.933772
0.931442
0.930132
0.930266
0.930883
0.931594
0.933135
0.93816
0.942668
0.944494
0.94542
0.945668
0.94332
0.940903
0.940467
0.940668
0.94121
0.942092
0.944421
0.95048
0.954743
0.956427
0.957408
0.957407
0.954501
0.952102
0.951831
0.952115
0.952675
0.953721
0.956962
0.963013
0.966461
0.967886
0.968806
0.96907
0.966568
0.963897
0.963465
0.963729
0.964319
0.965426
0.968977
0.974979
0.978385
0.979835
0.980854
0.981538
0.97947
0.976033
0.975063
0.975667
0.976628
0.978035
0.981539
0.986715
0.989699
0.991164
0.992363
0.993318
0.992475
0.988957
0.986885
0.986994
0.987855
0.989082
0.991703
0.996764
1.0008
1.00284
1.00401
1.00487
1.00528
1.0035
1.00045
0.999148
0.999516
1.00048
1.002
1.00613
1.01087
1.01361
1.01487
1.01564
1.01609
1.01572
1.01288
1.00926
1.00748
1.0072
1.00756
1.01073
1.01381
1.01995
1.13797
1.46458
0.931006
0.934519
0.935243
0.935793
0.934477
0.931828
0.93121
0.931637
0.932293
0.933011
0.935048
0.940791
0.944889
0.946512
0.947454
0.947297
0.944055
0.941506
0.941335
0.941998
0.942756
0.943684
0.946532
0.952724
0.956428
0.957928
0.959038
0.959111
0.955739
0.952937
0.952784
0.953554
0.954393
0.955551
0.959044
0.964686
0.967641
0.968996
0.970176
0.970664
0.96781
0.964695
0.964314
0.965083
0.966057
0.967419
0.971095
0.976713
0.979743
0.981152
0.982019
0.982397
0.980746
0.977949
0.977131
0.977571
0.978255
0.979278
0.982397
0.987872
0.991202
0.992627
0.99339
0.993754
0.993288
0.990714
0.988961
0.988982
0.989702
0.990654
0.992537
0.997162
1.00138
1.00352
1.00471
1.00567
1.00631
1.00526
1.00262
1.00105
1.0011
1.00183
1.0029
1.00603
1.01069
1.01369
1.0151
1.01587
1.01646
1.01662
1.01474
1.01081
1.00798
1.00691
1.00699
1.00899
1.01603
1.14088
1.46315
0.929439
0.934968
0.936507
0.937294
0.937466
0.935003
0.932736
0.932479
0.932845
0.933468
0.934397
0.93734
0.94343
0.946918
0.948374
0.949218
0.948476
0.944865
0.942967
0.943038
0.943467
0.944032
0.945106
0.948822
0.955043
0.958252
0.959603
0.960497
0.960174
0.95686
0.954739
0.954776
0.955213
0.955782
0.957
0.960961
0.966504
0.969347
0.970646
0.971437
0.971464
0.968945
0.966579
0.966473
0.967074
0.967762
0.968851
0.972338
0.977604
0.980535
0.981934
0.98317
0.98405
0.982726
0.979566
0.978247
0.978675
0.979597
0.98088
0.983475
0.988117
0.991326
0.992851
0.993951
0.995053
0.995317
0.993182
0.990839
0.99024
0.990829
0.991839
0.993201
0.996893
1.00146
1.00417
1.00557
1.00655
1.00763
1.0077
1.00547
1.00318
1.00248
1.00278
1.00344
1.00518
1.00954
1.01343
1.01538
1.01626
1.01682
1.01728
1.01652
1.01289
1.00879
1.00672
1.00554
1.01103
1.13987
1.46106
0.927325
0.933824
0.937276
0.938587
0.939291
0.938713
0.935355
0.933515
0.933682
0.934366
0.935057
0.936039
0.939545
0.945509
0.948495
0.949773
0.950738
0.949841
0.945923
0.943975
0.94419
0.944939
0.945699
0.946982
0.951093
0.95675
0.959444
0.960667
0.96176
0.96161
0.958115
0.955805
0.955877
0.95664
0.957481
0.958826
0.962613
0.96763
0.970238
0.971528
0.972701
0.973183
0.970678
0.967978
0.967457
0.968064
0.968926
0.970183
0.973597
0.978963
0.982246
0.983714
0.984567
0.985099
0.984233
0.981604
0.980333
0.980489
0.980878
0.981662
0.983609
0.988352
0.992474
0.994434
0.995446
0.996234
0.996763
0.995427
0.992911
0.991774
0.991981
0.992824
0.993989
0.996737
1.00144
1.00503
1.00692
1.00802
1.00898
1.00954
1.00796
1.00489
1.00319
1.00313
1.00375
1.00502
1.00877
1.01322
1.01577
1.01685
1.01737
1.01778
1.01759
1.01477
1.00982
1.00568
1.00699
1.13496
1.45845
0.926881
0.930531
0.936393
0.939174
0.940404
0.94102
0.939591
0.936209
0.93513
0.935374
0.935767