/*--------------------------------*- C++ -*----------------------------------*\
  =========                 |
  \\      /  F ield         | OpenFOAM: The Open Source CFD Toolbox
   \\    /   O peration     | Website:  https://openfoam.org
    \\  /    A nd           | Version:  12
     \\/     M anipulation  |
\*---------------------------------------------------------------------------*/
FoamFile
{
    format      ascii;
    class       volScalarField;
    location    "0.87";
    object      rho;
}
// * * * * * * * * * * * * * * * * * * * * * * * * * * * * * * * * * * * * * //

dimensions      [1 -3 0 0 0 0 0];

internalField   nonuniform List<scalar> 
22702
(
1.40001
1.40001
1.23528
1.40001
1.42516
1.40001
1.83616
1.40001
1.40001
0.978571
1.83739
1.83628
1.40001
1.75626
1.25466
1.40001
1.40001
1.40001
1.83732
1.40001
1.75487
1.40001
1.83911
1.01639
1.74335
0.998296
1.40001
1.83567
0.970137
1.00413
1.40001
1.83887
1.40001
1.40001
1.40001
1.75625
1.74587
1.8389
1.40001
1.40001
0.996375
1.40001
1.59453
1.40001
1.83431
1.40001
1.40001
1.40001
1.40001
1.02959
1.40001
1.02744
1.40001
1.83981
1.40001
1.84021
1.40001
1.40001
1.40001
1.40001
1.00507
1.40001
1.40001
0.975244
1.40001
1.0059
1.40001
1.40001
1.40001
0.990073
1.40001
1.84096
1.64381
1.40001
1.84134
1.86458
1.00934
1.84084
1.02818
1.40001
1.83782
1.03219
1.83557
1.83282
1.40001
1.40001
1.40001
1.40001
1.30463
0.986554
1.84223
1.40001
1.40001
0.98361
1.40001
1.75554
0.984764
1.40001
1.40001
1.40001
1.40001
1.59176
1.83851
1.00266
1.40001
1.40001
1.47884
1.40001
1.03297
1.40001
1.84441
1.83857
1.40001
1.40001
0.991088
0.997102
0.984472
1.40001
1.40001
1.40001
1.40001
1.40001
1.28663
1.40001
1.74129
1.40777
1.84468
1.40001
1.84598
1.83695
1.75444
1.83845
1.40001
1.00117
1.40001
0.997344
1.40001
1.40001
1.40001
1.40001
1.83821
1.40001
1.40001
1.40001
1.40001
1.84287
1.40001
1.42523
1.40001
1.40001
1.40001
1.40001
1.02284
1.40001
1.41068
1.40001
1.02647
1.40001
1.40001
1.40001
1.84111
1.40001
1.84049
0.989091
1.00161
1.84044
1.83938
1.40001
1.44841
1.62848
1.40001
1.83853
1.02642
1.75634
1.40001
1.40001
1.40001
1.40001
1.75929
1.77183
1.40001
1.83969
0.988553
1.84024
1.40001
0.993145
1.40001
1.01761
0.999676
1.40001
1.40001
1.40001
1.83763
1.40001
1.40001
1.84199
1.40001
1.8422
1.83866
1.02548
1.40001
1.40001
1.02256
1.84139
1.40001
1.40001
1.40001
1.84157
1.40001
0.988713
1.40001
1.40001
1.84163
1.84172
1.84446
1.40001
1.40001
1.40001
1.40001
1.40001
1.75141
1.40001
1.00701
1.85485
1.84189
1.75056
1.40001
1.40001
1.40001
1.01407
1.84228
1.61016
1.40001
1.75873
0.994949
0.991284
1.75872
1.84394
1.40001
1.83773
0.98568
1.74773
1.40001
1.40001
1.40001
1.40001
1.84165
1.40001
1.65682
1.44233
1.40001
1.40001
1.84204
0.989816
1.13512
1.40001
1.84192
0.991585
1.83834
1.40001
1.40001
1.40001
1.40001
1.40001
1.40001
1.40001
1.03326
1.14048
0.995086
1.84155
1.40001
1.40001
1.40001
1.40001
1.79738
1.40001
1.02842
1.40001
1.00668
1.02022
1.84164
1.0055
1.75257
1.40001
1.40001
1.40001
1.39765
0.994144
0.9857
1.4
1.40001
1.0068
1.40001
1.83811
0.998233
1.40001
1.40001
1.83775
0.989027
1.40001
1.83803
1.00113
1.84201
1.40001
1.01264
1.39773
1.40001
1.40001
1.40001
1.03004
1.40001
1.40001
1.4
1.40002
1.39438
1.64479
1.40001
1.01948
1.40001
1.40001
1.40001
1.40001
1.40001
1.40001
1.40001
1.83834
1.40001
1.83799
1.40001
1.40001
1.40001
1.01278
1.40001
1.8425
0.998394
1.40001
1.43645
1.40001
1.40001
1.83956
1.40001
1.40001
1.40001
1.82783
1.40001
1.40001
1.82892
1.8389
1.40001
1.4653
1.40001
1.40001
0.997666
1.40001
1.40001
1.40001
0.982095
1.40001
1.40001
1.40001
1.40001
1.00767
1.40001
1.40001
1.40001
1.40001
1.40001
0.998306
1.40007
1.84046
1.40001
1.4
1.84014
1.83966
1.40001
1.40001
1.03381
1.17832
1.83866
1.40001
1.40001
1.40001
1.84201
0.992172
1.40001
1.84071
1.40001
1.40001
1.07115
1.07297
1.40001
0.998458
1.00927
1.40001
1.40001
1.40001
1.40001
1.40001
1.40001
1.40001
1.84001
1.47832
1.82256
0.999339
1.29191
1.83544
1.40001
1.84245
1.83909
0.998773
1.14076
1.40001
0.987244
1.40001
1.85283
1.40001
1.40001
1.40001
1.40001
1.84139
1.40001
1.40001
1.40001
1.40001
1.40001
1.40001
1.40001
1.53839
1.83996
1.40001
1.84168
1.40001
1.40001
1.02692
1.40001
1.40001
1.40001
1.40001
1.84169
1.71412
1.40001
1.40001
1.00624
1.84184
1.84156
1.40001
1.84152
1.84205
1.84175
1.40001
1.2015
1.40001
1.84138
1.36011
1.84174
1.40001
0.994764
1.39888
1.83597
1.40001
1.40001
1.40001
1.40001
1.03578
1.84184
1.75362
1.40001
1.74977
1.8421
1.83908
1.40001
1.60795
1.75964
1.40001
1.40001
1.68221
1.46508
1.84152
1.30288
1.84155
1.40001
1.84164
1.8416
1.84164
1.84169
1.40001
1.81711
1.29437
1.26622
1.40001
1.4
1.40001
1.40001
1.84759
1.40001
1.40001
1.40001
1.40001
1.40001
1.83806
1.40001
1.40001
1.39621
1.84149
1.78994
1.40001
1.77249
1.40005
1.40001
1.40001
1.84158
1.40001
1.39685
1.40464
1.40001
1.84199
1.40001
1.84219
1.40001
1.40001
1.70296
1.40001
1.84179
1.40003
1.40001
1.84004
1.40001
1.84162
1.40001
1.40001
1.40001
1.84179
1.40001
1.84454
1.40001
1.84151
1.83751
1.84202
1.83385
1.40001
1.84266
1.84054
1.40001
0.989539
1.78059
1.68919
1.40001
1.84171
1.40001
0.994515
1.00112
1.40001
1.40001
1.40001
1.40001
1.40001
0.982886
1.40001
1.84169
1.49862
1.84169
1.40001
1.40001
1.40001
1.40001
1.40001
1.84144
1.40001
1.8434
1.63938
1.14525
1.40001
1.40002
1.5243
1.50868
1.40001
1.40001
1.53002
1.40001
1.02349
1.84161
1.84184
1.40001
1.40001
1.40001
1.84023
1.40001
1.40003
1.75684
1.84224
1.33226
1.40001
1.40001
1.03404
1.77123
1.40001
1.40001
1.40001
1.40001
1.40001
1.84165
1.84246
1.40001
1.84022
1.84378
1.84207
1.40001
1.40001
1.40001
1.40001
0.998394
1.83867
1.40001
1.40001
1.76747
1.79486
1.40001
1.77569
1.84385
1.40001
1.40001
1.40001
1.40001
1.40001
1.84192
1.40001
1.40001
1.40001
1.40001
1.84674
1.40001
1.83041
0.982325
1.40001
1.02658
1.40001
1.40001
1.40001
1.3968
1.01007
1.39903
1.40001
1.40001
1.40001
1.46003
1.40001
1.40001
1.2445
1.40001
1.40001
1.40001
1.40001
1.40001
1.40001
1.40001
1.4
1.31024
1.4
1.40001
1.39758
1.40001
1.03052
1.40001
1.40001
1.40001
1.40001
1.7052
1.40001
1.40001
1.40001
1.40001
0.986601
1.40001
1.40001
1.78126
1.83812
1.4
1.40001
1.40001
1.26523
1.40001
1.40001
1.40001
1.40001
1.40001
1.40001
1.33346
1.39244
1.75088
1.40001
1.40001
1.40001
1.84537
1.27119
1.40001
1.40001
1.40001
1.83705
1.83562
1.40001
1.40001
1.40001
1.40001
1.40001
1.40001
1.40001
1.40001
1.40001
1.01213
1.40001
1.40001
1.83998
0.989077
1.40001
1.83966
1.40001
1.01972
1.40001
1.40001
1.01318
1.40001
1.40001
1.40001
1.40001
1.40001
1.40001
1.40001
1.79052
1.79454
1.40001
1.40001
1.40001
1.40001
1.7689
1.40001
1.51838
0.992173
1.40001
1.40001
1.40001
1.40001
1.40001
1.40001
1.40001
1.41943
1.40001
1.40001
1.62823
1.40001
1.40001
1.40001
1.73201
1.40001
1.40001
1.40001
1.40001
0.982416
1.40001
1.40001
0.996302
0.983758
1.40001
1.40001
1.8422
1.40001
1.41273
1.40001
1.40001
1.40001
1.68353
1.00514
1.40001
1.00099
1.40001
1.14634
1.40001
1.40001
1.40001
1.84073
1.40001
1.40001
1.8419
1.40001
1.40001
1.40001
1.84115
1.40001
1.40001
1.84029
1.40001
1.40001
1.00283
1.40001
1.51731
1.40001
1.40001
1.83768
1.83482
1.67694
1.76286
1.40001
0.987932
1.40001
1.40001
1.78613
1.40001
1.00133
1.40001
1.40001
1.40001
1.84228
1.40001
1.40001
1.40001
1.40001
1.64494
1.40001
1.51074
1.84257
0.97937
1.40001
1.40001
1.00662
0.997996
1.40001
1.40001
1.40001
1.6921
1.70968
1.40001
1.40001
1.40001
1.40001
1.40001
1.40001
1.40001
1.57196
1.83082
1.39016
1.40001
1.75877
1.00311
1.40001
1.40001
1.40001
1.61793
1.40001
1.48946
1.40001
1.77179
1.78525
1.40001
0.997039
1.40001
1.83947
1.40001
1.40001
1.8423
1.77497
1.40001
1.8403
1.40001
0.962262
1.40001
1.40001
1.40001
1.8501
1.78982
1.75976
1.40001
1.83756
1.84227
1.40001
1.84231
1.40001
1.78537
1.40001
0.992962
1.34656
1.01296
1.40001
1.40001
1.40001
1.40001
1.40001
1.84181
1.40001
1.84198
1.40001
1.40001
1.40001
1.78107
1.40001
1.00966
1.84288
1.40001
0.983205
1.04399
1.02535
1.40001
1.60022
1.41963
1.78765
1.84253
1.40001
1.4
1.40001
1.40001
1.84189
1.40001
1.40001
1.84186
1.84126
1.40001
1.53041
1.39954
1.40001
1.39685
1.84532
1.23286
1.40001
1.2025
1.0282
1.02357
1.34692
1.83861
1.7849
1.46896
1.79142
1.84167
1.40001
1.40001
1.84228
1.83906
1.82712
1.83574
1.40001
1.78528
1.00607
1.84382
1.83913
1.83939
1.84065
1.23605
1.27565
1.30843
1.84072
1.33973
1.83944
1.40001
1.40001
1.78663
1.8422
1.40001
0.990318
1.84014
1.84074
1.40001
1.84178
1.84133
1.40001
1.84201
0.98546
1.84217
1.83502
1.83848
1.83982
1.40001
1.40001
1.40001
1.84053
1.66445
1.03052
1.84093
1.00102
1.8409
1.40001
1.40001
1.40001
1.40001
1.84476
1.84113
1.40001
1.40001
1.84111
1.0041
1.84128
1.02247
1.40001
1.79092
1.40001
0.976964
1.84389
1.09428
1.40001
1.84264
1.84358
1.84046
1.40001
1.40001
1.40801
1.84268
1.01128
1.84139
1.40001
1.80241
1.26236
1.83826
1.01337
1.40001
1.84318
1.06142
1.78638
1.02027
1.40001
1.84284
1.40001
1.84185
1.40001
1.63441
1.78723
1.72364
0.997995
1.40001
1.84173
1.40001
1.80388
1.40001
1.83961
1.40001
1.40001
1.84118
1.35249
1.84134
0.95845
1.7927
1.40001
1.68494
1.40001
1.84139
1.83963
1.83987
1.40001
1.76347
1.8412
1.77188
1.65131
1.8407
1.40001
1.67465
1.40001
1.84211
1.40001
1.43713
1.40001
1.77776
1.40001
1.80418
1.78559
1.78188
1.40001
1.81887
1.00237
1.40001
0.980969
1.40001
1.40001
1.40001
1.84413
1.40001
1.8312
1.40001
1.40001
1.40001
1.84188
1.82654
1.76544
1.84378
1.84232
1.03267
1.84467
1.8372
1.40001
1.77588
1.84049
1.81032
1.40001
1.83846
1.83942
1.40001
1.84889
1.84091
1.83981
1.84413
1.40001
1.40001
1.40001
1.80797
1.00193
1.40001
1.82603
1.40001
1.40001
1.00086
1.40001
1.40001
1.83394
1.84204
1.40001
1.84152
1.82186
1.84185
1.34847
1.84169
1.40001
1.84168
1.82886
1.75367
1.40001
1.40001
1.40001
1.84345
1.84184
1.81814
1.32014
1.40001
1.84393
1.84172
1.84085
1.40001
1.84139
1.84181
1.82188
1.84536
1.40001
1.82496
1.84247
1.77758
1.84308
1.84437
1.40001
1.84893
1.79377
1.82009
1.84624
1.84227
1.00087
1.84245
1.84326
1.40001
1.81833
1.81949
1.8163
1.81538
1.40001
1.82786
1.82277
1.40001
1.84027
1.7452
1.40001
1.40001
1.40001
1.8441
1.84502
1.40001
1.40001
1.61585
1.40001
1.75089
1.40001
1.40001
1.84141
1.75753
1.84147
1.8417
1.40001
1.40001
1.40001
1.70566
1.40001
1.82864
1.40001
1.40001
1.84511
1.83527
1.40001
1.83531
0.997939
1.84208
1.84108
1.09392
1.40001
0.997555
1.77941
1.83986
1.83798
1.83923
1.00442
1.84154
1.84206
1.00407
0.996981
1.40001
1.81057
1.84151
1.40001
1.40001
1.82633
1.40001
1.84648
1.40001
1.75751
1.40001
1.58269
1.84215
1.84444
1.70797
1.81873
1.84366
1.8434
1.8255
1.40001
1.00488
1.83237
1.84215
1.84814
1.40002
1.40001
1.40001
1.84253
1.40001
1.84234
1.83988
1.12515
1.40001
1.81935
1.39994
1.40001
1.40003
1.40005
1.842
1.84297
1.39849
1.40001
1.40001
1.80545
1.8425
1.80573
1.84201
1.84288
1.01884
1.79112
1.40001
1.79173
1.8417
1.84195
1.8335
1.40001
1.84172
1.78595
1.84215
1.40001
1.84071
1.84395
1.24128
1.84119
1.84107
1.40001
1.82726
1.20994
1.84212
1.23928
1.84199
1.40001
1.79908
1.8513
1.83817
1.84105
1.79804
1.83685
1.84222
1.83865
1.40001
1.30131
1.8421
1.84133
1.21322
1.8403
1.35569
1.67637
1.84187
1.84115
1.84425
1.40001
1.84242
1.69054
1.84354
1.29963
1.84118
1.84706
1.40001
1.25028
1.40001
1.83035
1.40001
1.68051
1.40001
1.81278
1.2524
1.40001
1.84192
1.84832
1.40001
1.84363
1.78744
1.84666
1.84475
1.84707
1.40001
1.83695
1.40001
1.40001
1.40001
1.27364
1.84113
1.84071
1.83757
1.83764
1.84086
1.84055
1.82383
1.83455
1.27483
1.43152
1.40001
1.40001
1.84945
1.832
1.84232
1.84188
1.40003
1.6281
1.40001
1.8485
1.79121
1.40001
1.40001
1.11417
1.82562
1.40001
1.40001
0.994617
1.84167
1.40001
1.83147
1.81732
1.84376
1.77993
1.80239
1.40001
1.00445
1.50853
1.84116
1.80133
1.40001
1.80296
1.83102
1.62714
1.41081
1.49651
1.40001
1.8406
1.84202
1.40001
1.40001
1.00526
1.40001
1.40001
1.83876
1.83016
1.84005
1.80772
1.84392
1.84404
1.79222
1.82343
1.84158
1.40001
1.39595
1.84224
1.80732
1.39702
1.82831
1.82805
1.0108
0.981185
1.82008
1.84067
1.40001
1.40001
1.40185
1.82383
1.83992
1.84191
1.40001
1.83355
1.40001
1.22587
1.84884
1.84578
1.40001
1.59334
1.84165
1.40001
1.84199
1.40001
1.82198
1.68125
1.84338
1.40001
1.84239
1.8455
1.0091
1.8291
1.40001
1.84301
1.83116
1.40001
1.01193
1.846
1.78066
1.39791
1.83218
1.82167
1.40001
1.36829
1.84797
1.39819
1.81515
1.40001
1.40001
1.84369
1.40001
1.84519
1.82561
1.39631
1.74316
1.40001
1.82345
1.40001
1.40001
1.40001
1.40001
1.84196
1.40001
1.40001
1.84088
1.40001
1.82912
1.40001
1.65536
1.83832
1.84083
1.40001
1.40001
1.36934
1.40001
1.84067
1.81923
1.84362
1.81872
1.84207
1.82374
1.81923
1.40001
1.81709
1.80546
1.40001
1.82176
1.81577
1.40001
1.84106
1.29898
1.45581
1.82334
1.8213
1.84086
1.40001
1.82113
1.40001
1.84193
1.81752
1.40001
1.80515
1.40001
1.40001
1.40001
1.40001
1.82342
1.00496
1.39784
1.40001
1.84321
1.8384
1.40001
1.84098
1.40001
1.40512
1.00359
1.79615
1.39962
1.40001
1.83694
1.39836
1.82715
1.40001
1.39979
1.40001
1.83678
1.84583
1.83806
1.83913
1.01239
1.84258
1.83887
1.84088
1.50873
1.40001
1.40001
1.5722
1.84363
1.00009
1.01332
1.40001
1.84199
1.84075
1.84271
1.40001
1.40001
1.84264
1.8337
1.39989
1.40001
1.71813
0.996999
1.40001
1.48295
1.83616
1.84296
1.39821
1.84215
1.84489
1.40001
1.39894
1.40001
1.83983
1.84472
1.58775
1.40001
1.82591
1.40001
1.40086
1.84093
0.997218
1.83998
1.84185
1.3969
1.39992
1.77467
1.40001
1.39971
1.40001
1.84477
1.40001
1.40002
0.997935
1.84016
1.40001
1.40001
1.40001
1.40001
1.84751
1.63123
1.40001
1.40001
0.993194
1.80445
1.63038
1.40001
1.40001
1.40001
1.76797
1.8429
1.83919
1.40001
1.40001
1.84091
1.40001
1.8416
1.84194
1.40001
1.40001
1.78508
1.84254
1.81578
1.40001
1.40001
1.78574
1.84151
1.40001
1.40001
1.40001
1.84167
1.40001
1.40001
1.40001
1.83969
1.84036
1.8441
1.40001
1.84963
1.40004
1.07476
1.8399
1.84003
1.40001
1.84302
1.81222
1.84062
1.40001
1.40001
1.84418
1.40001
1.64588
1.84343
1.40001
1.00781
1.40001
1.78051
1.40001
1.40001
1.84338
1.40001
1.40001
1.40001
1.53006
1.8431
1.0585
1.40002
1.78078
1.40001
1.40001
1.84101
1.40001
1.846
1.40001
1.40001
1.84094
1.8416
1.40001
1.40006
1.40001
1.40001
1.40001
1.40001
1.40001
1.40001
1.83571
1.84063
1.40001
1.83222
1.03976
1.84207
1.40001
1.84177
1.84457
1.84346
1.84977
1.8402
1.40001
1.40001
1.84621
1.40001
1.67532
1.84843
1.84098
1.40001
1.84408
1.84683
1.40001
1.79724
1.40001
1.84172
1.6609
1.84672
1.39753
1.82268
1.80429
1.84466
1.84255
1.43626
1.84144
1.84596
1.40001
1.84193
1.40001
1.84212
1.40001
1.40001
1.40001
1.40001
1.39663
1.84208
1.84231
1.77775
1.40001
1.84646
1.40001
1.40001
1.40001
0.98693
1.40001
1.8292
1.40001
1.75797
1.82012
1.40001
1.40001
1.40001
1.80593
1.84509
1.40001
1.40001
1.84246
1.01859
1.44073
1.40001
1.8478
1.84141
1.75909
1.82874
1.8414
1.40001
1.84268
1.40001
1.40001
1.40001
1.40001
1.8408
1.84221
1.40001
1.83563
1.42854
1.84201
1.76376
1.40001
1.40001
1.76351
1.40001
1.40001
0.993793
1.69874
1.40001
1.40001
1.8283
1.40001
1.84616
1.8022
1.40001
1.80196
1.0166
1.84108
1.84087
1.77542
1.40001
0.990434
1.40001
1.40001
1.40001
1.84165
1.76471
1.40001
1.8475
1.84159
1.40001
1.84324
1.40001
1.40001
1.40001
1.40001
1.84112
1.39934
1.40001
1.78337
1.40001
1.40001
1.83359
1.77597
1.40001
1.84603
1.48521
1.40003
1.40001
1.84063
1.40001
1.84062
1.40001
1.41692
1.84176
1.40001
1.84091
1.40001
1.40001
1.52702
1.83953
1.40001
1.40001
1.40001
1.40001
1.40001
1.39907
1.00849
1.01031
1.42054
1.40001
1.40146
1.40001
1.40796
1.40001
1.84176
1.40001
1.67309
1.40001
1.8437
1.40001
1.40001
1.40001
1.8437
1.40001
1.7491
1.84207
1.40001
1.62197
1.84357
1.40001
1.40001
1.8446
1.84138
1.40001
1.40001
1.42817
0.999234
1.40001
1.84123
1.40001
1.40001
1.40001
1.40001
1.47505
1.84235
1.40001
1.40001
1.40001
0.980417
1.40001
1.84199
1.84224
1.84855
1.40001
1.40001
1.40001
1.40001
1.62109
1.84565
1.40001
1.40001
1.40001
1.84428
1.77403
1.42704
1.40001
1.40001
1.40001
1.84137
1.77284
1.40001
1.0083
1.84233
1.78119
1.84091
1.84061
1.84295
1.40001
1.40001
1.8396
1.84481
1.84105
0.978051
1.43907
1.84202
1.40001
1.40001
1.40001
1.40001
1.40001
1.84138
1.01436
1.40001
1.40001
1.84132
1.58368
1.40001
1.84149
1.40001
1.40001
1.40001
0.998684
1.40001
1.40001
1.51438
1.84227
1.79229
1.40001
1.84149
1.84201
1.40001
1.44098
1.40001
1.83969
1.40001
1.84209
1.01732
1.40001
1.40001
1.40001
1.40001
1.84354
1.40007
1.40001
1.40001
1.40001
1.83051
1.40001
1.40001
1.40001
1.40001
1.84257
1.0008
1.7434
1.84434
1.40001
1.79487
1.40001
1.40001
1.40001
1.39729
1.40001
1.84412
1.40001
1.18989
1.40001
1.40001
1.40004
1.80957
1.0021
1.40001
1.83929
1.40001
1.82844
1.77684
0.976164
1.40001
1.40001
1.81693
1.40001
1.40001
0.956553
1.40001
1.83961
1.40001
1.76748
1.39935
1.79905
1.40001
1.40001
1.40001
1.40001
1.83661
1.40001
1.40001
1.77493
1.40001
1.40001
1.40001
1.40001
1.40001
1.40001
1.40001
1.40001
1.67313
1.40001
1.54954
1.84157
1.40001
1.40001
1.40001
1.00407
1.40001
1.40001
1.40001
1.40001
1.84538
1.8417
1.42717
1.40001
1.40001
1.78127
1.40001
1.40001
1.84014
1.40001
1.40002
1.40001
1.40001
1.40001
1.40002
1.84218
1.16946
1.7747
1.78222
1.39704
1.40001
1.40001
1.40001
1.63501
1.40001
1.40001
1.84091
1.84396
1.40001
1.40001
1.40001
1.40001
0.979933
1.40001
1.40001
1.40001
1.68818
1.40001
1.84321
1.8457
1.40001
1.79475
1.40001
1.40001
1.40001
1.61364
1.40001
1.83819
1.40001
1.77215
1.40001
1.40001
1.39629
1.77478
1.40001
1.40001
1.40001
1.40001
1.40001
1.83834
1.40001
1.40001
0.989764
1.8389
0.977208
1.40001
1.84487
1.40001
1.39569
1.40001
1.84373
1.84667
1.40001
1.83544
1.27735
1.77981
1.83653
1.40004
1.40001
1.40001
1.03913
1.40001
1.40001
1.40001
1.80485
1.63884
1.81617
1.40001
1.40001
1.40001
1.40001
1.39674
1.84409
1.40001
1.01868
1.40001
1.40001
1.40001
1.40001
1.40001
1.40001
1.40001
1.84775
1.84334
1.84827
1.40001
1.40001
1.39686
1.40001
1.35486
1.40001
1.40001
1.40001
1.00702
1.35529
1.40001
1.02272
1.00312
1.40001
1.77745
1.84251
1.40001
1.84627
1.84236
1.03005
1.7026
1.40001
1.40001
1.40001
1.01852
1.84013
1.40001
1.01765
1.40001
1.84488
1.44166
1.40001
1.40001
1.40001
1.40001
1.77627
1.84028
1.40001
1.40001
1.77721
1.40001
1.40001
1.837
1.78188
1.40001
1.80647
1.79448
1.84235
1.34193
1.84426
1.4089
1.02134
1.72262
1.7961
1.40001
1.40001
1.40001
0.998109
1.40001
1.00772
1.84428
1.34014
1.77413
1.32632
1.40001
1.7998
1.58081
1.40001
1.40001
1.84346
1.40001
1.55812
1.84225
1.40001
1.40001
1.83862
1.82999
1.01918
1.66144
1.3999
1.40001
1.65624
1.40001
1.84341
1.32191
1.85181
1.82876
1.40001
1.40001
1.40001
1.40001
1.81087
1.40001
1.40001
1.84275
1.39965
1.84048
1.77565
1.7826
1.03095
1.40001
1.40001
1.40001
1.40001
1.84087
1.40005
1.84137
1.40001
1.84133
1.84067
1.45708
1.84845
1.52935
1.84092
1.40001
1.68035
1.05864
1.79927
1.84166
1.75682
1.44161
1.84141
1.77845
1.84257
1.84301
1.40001
1.29824
1.46426
1.40001
1.84184
1.60965
1.84204
1.40004
1.40001
1.40001
1.06013
1.78984
1.8426
1.75821
1.40001
1.54736
1.40001
1.80139
1.80033
1.40001
1.84199
1.84248
1.40001
1.40001
1.40001
1.84421
1.40001
1.57372
1.81732
1.68958
1.40001
1.84255
1.40001
1.40001
1.40001
1.40001
1.40001
1.40001
1.40001
1.40001
1.40001
1.40001
1.04949
1.40001
1.80441
1.00161
1.63523
1.39859
1.78261
1.40001
1.61954
1.40002
1.65849
1.76983
1.40001
1.40231
1.84305
1.30281
1.40001
1.80184
1.83553
1.32071
1.40001
1.84069
1.84018
1.84505
1.40001
1.84178
1.84033
1.84331
1.40001
1.58535
1.40001
1.40007
1.8409
1.40001
1.84138
1.4657
1.84247
1.40001
1.40001
1.84235
1.80252
1.05087
1.40001
1.84257
1.7114
1.77142
1.40001
1.40001
1.84269
1.84457
1.39823
1.40001
1.80635
1.39674
1.84164
1.40004
1.40001
1.40001
1.40001
1.40001
1.58517
1.40001
1.74423
1.84277
1.7087
1.84143
1.40001
1.40446
1.40001
1.40001
1.84016
1.40001
1.84151
1.40001
1.40001
1.40001
1.40001
1.4
1.40001
1.4518
1.61546
1.40001
1.40001
1.00771
1.40001
1.84077
1.05199
1.84376
1.40001
1.61737
1.39975
1.84088
1.65875
1.0569
1.61614
1.40004
1.84304
1.8433
1.40001
1.64692
1.84468
1.84294
1.39839
1.84858
1.75757
1.00681
1.40001
1.40001
1.39789
1.40001
1.8371
1.40001
1.06685
1.84001
1.40001
1.40001
1.79178
1.40001
1.84209
1.40001
1.83977
1.40001
1.07306
1.40001
1.40001
1.84073
1.82656
1.80395
1.40001
1.7727
1.84182
1.8339
1.40001
1.40001
1.84124
1.4
1.13533
1.40001
1.40001
1.40001
1.84079
1.40001
1.84148
1.6687
1.76863
1.40001
1.77671
1.39939
1.40001
1.40001
1.40001
1.40001
1.40001
1.40001
1.11337
1.40001
1.40001
1.77354
1.40001
1.84527
1.79654
1.40001
1.05075
1.03487
1.40001
1.81024
1.47712
1.01576
1.00628
1.40001
1.84294
1.40001
1.84314
1.00335
1.40107
1.40001
1.40001
1.39952
1.40001
1.40001
1.40001
1.39992
1.56091
1.84284
1.40001
1.40001
1.84443
1.6423
1.40001
1.79584
1.77568
1.8447
1.56083
1.81188
1.40001
1.7721
1.40001
1.8352
1.40001
1.83945
1.84113
1.39714
1.84094
1.79225
1.40001
1.40001
1.40001
1.40001
1.40001
1.29627
1.84181
1.40005
1.40003
1.00466
1.4
1.00971
0.988501
1.40001
1.83832
1.84186
1.84135
1.40001
1.84192
1.40001
1.03617
1.40001
1.40001
1.84377
1.20179
1.84156
1.40001
1.8406
1.40001
1.35616
1.84283
1.40001
1.40001
1.40001
1.84133
1.40001
1.84183
1.02136
1.40001
1.40001
1.63978
1.40001
1.40001
1.61327
1.40001
1.40001
1.84115
1.40001
1.40001
1.40001
1.40001
1.40001
1.80396
1.8427
1.40001
1.8421
1.84307
1.0451
1.58302
1.77995
1.40001
1.40001
1.77349
1.39898
1.40001
1.40001
1.84168
1.7883
1.69533
1.40001
1.84018
1.04811
1.79466
1.39941
1.40001
1.84216
1.40004
1.76877
1.75944
1.7196
1.40001
1.40001
1.84348
1.08963
0.996835
1.40001
1.84127
1.40001
1.84122
1.40001
1.64043
1.40001
1.40001
1.77193
1.66868
1.02601
1.40001
1.39816
1.40001
1.40001
1.42571
1.55723
1.84307
1.40001
1.84081
1.40001
1.40001
1.40001
1.40001
1.40001
1.40001
1.46652
1.01278
1.40001
1.40001
1.41295
1.40001
1.40001
1.40001
1.40001
1.40001
1.84269
1.40001
1.40001
1.8419
1.8408
1.73082
1.40001
1.40001
1.40001
1.22553
1.84521
1.69164
1.40001
1.40001
1.40001
1.40001
1.8415
1.40001
1.40001
1.40001
1.84464
1.40001
1.40001
1.71708
1.85471
1.41725
1.1519
1.78253
1.70011
1.83991
1.40001
1.59652
1.40001
1.40001
1.40001
1.00128
1.4029
1.00655
1.40001
1.00386
1.02116
1.40001
1.04732
1.40001
1.40001
1.40001
1.57659
1.40001
1.84331
1.8423
1.40127
1.61936
1.76728
0.992047
1.13627
1.25598
1.40001
1.77914
1.83786
1.7765
1.84166
1.75163
1.26876
1.40001
1.75346
1.40001
1.82451
1.40001
1.40001
1.39729
1.40997
1.40001
1.40001
1.40001
1.8426
1.40001
1.00505
1.40001
1.84247
1.00473
1.40001
1.40001
1.84079
1.40001
1.77273
1.39963
1.40001
1.40001
1.7811
1.80427
1.40001
1.85735
1.40001
1.40001
1.41469
1.40001
1.60838
1.40001
1.40001
1.04736
1.40001
1.40001
1.77052
1.4
1.80218
1.40001
1.40004
1.00741
1.40001
1.40001
1.00609
1.40082
1.40001
1.83937
1.00951
1.84842
1.0163
1.84191
1.40001
1.40001
1.40001
1.40001
1.40001
1.40001
1.40001
1.40001
1.40001
1.40001
1.40001
1.78008
1.40001
1.78036
1.83712
1.01221
1.40001
1.40001
1.40001
1.40001
1.40001
1.40001
1.76992
1.40001
1.40001
1.0358
1.40001
1.40001
1.8392
1.40001
1.40001
1.5626
1.74884
0.999754
1.00326
1.0651
1.12981
1.40001
1.39717
1.01311
1.40024
1.82383
1.39694
1.40001
1.40001
1.83813
1.40001
1.40001
1.40001
1.14031
1.40002
1.55636
1.40001
1.40001
1.58244
1.84146
1.40001
1.00545
1.40001
1.40001
1.40001
1.3968
1.40001
1.83992
1.84135
1.40001
1.01639
1.40001
1.61371
1.01128
1.40001
1.26437
1.40001
1.39622
1.02541
1.40001
1.40001
1.40001
1.39625
0.97918
1.40001
1.00546
1.3984
1.60873
1.79141
0.993635
0.998297
1.40001
1.3918
1.40001
1.39867
1.40001
1.80031
1.79521
1.40001
1.39126
1.83924
1.79337
1.40001
1.40001
1.84096
1.40001
1.40001
1.40005
1.40001
1.84654
1.40001
1.40001
1.41805
1.40001
1.39855
1.07209
1.40001
1.40001
1.40001
1.40001
1.40001
1.84691
1.40658
1.40006
1.40001
1.40001
1.40001
1.40001
1.40001
1.40004
1.40001
1.03133
1.47622
1.39862
1.82552
1.83884
1.40001
1.41766
1.83974
1.79625
1.40001
1.40001
0.988916
1.84182
1.40001
1.83769
1.40001
1.83985
1.69676
1.01943
1.40001
1.0102
1.76649
1.39967
1.40001
1.01215
0.995383
1.40001
1.40001
1.73917
1.40001
1.4
1.02574
1.40001
1.40001
1.40001
1.54113
1.40001
1.01375
1.84025
1.40001
1.40001
1.40001
1.40001
1.77549
1.40001
1.40001
1.78481
1.77164
1.40001
1.40001
1.40001
1.81055
1.02113
1.40001
1.84229
1.82695
1.40001
1.73131
1.4
1.40003
1.40001
1.40001
1.8143
1.39004
1.40001
1.00778
1.63965
1.40001
1.40001
1.39761
1.40001
1.40001
1.80949
1.40001
1.40001
1.40003
1.40001
1.84167
1.40001
1.40001
1.40001
1.40001
1.40001
1.40001
1.40001
1.5781
1.40001
1.80495
1.40001
1.40001
1.81656
1.40001
1.40001
1.40001
1.77763
1.78929
1.4451
1.40001
1.39768
1.40001
1.40001
1.40001
1.40001
1.83878
1.40001
1.40001
1.84131
1.03851
1.40001
1.40001
1.40001
1.40001
1.40001
1.40001
1.73332
1.40001
1.40001
1.84151
1.84105
1.40001
1.40001
1.40001
1.84188
1.83974
1.40001
1.39967
1.8384
1.40001
1.40001
1.40001
1.40002
1.00683
1.42928
1.39639
1.39576
1.40001
1.40001
1.00633
1.84036
1.40001
0.994718
1.40001
1.83967
1.79475
1.00063
1.39942
1.84416
1.84165
1.84013
1.40001
1.40001
1.29132
1.77167
1.77242
0.998201
1.40001
1.40001
1.40001
1.78062
1.84125
1.04441
1.39724
1.40001
1.842
1.00736
1.40001
1.80451
1.04067
1.34639
1.4065
1.40001
1.80202
1.40001
1.40001
1.40001
1.40001
1.40001
1.40001
1.40012
1.76038
1.40001
1.40001
1.84586
1.40001
1.40001
1.40001
1.84061
1.40001
1.02564
1.40001
1.40001
1.40001
1.55313
1.40001
1.40001
1.40001
1.40001
1.40001
1.1645
1.40001
1.00691
1.40001
1.84131
1.40007
1.25402
1.2652
1.40002
1.40366
1.60871
1.40001
1.40001
1.01092
1.84253
1.8404
1.84036
1.40001
1.01556
1.0463
1.40001
1.84118
1.40001
1.40001
1.40001
1.40001
1.40001
1.40004
1.40001
1.03804
1.68552
1.40001
1.40001
1.00033
1.35979
1.40001
1.40001
1.40001
1.40001
1.02791
1.40001
1.03789
1.40001
1.40001
1.84646
1.40001
1.40001
1.01036
1.40001
1.84198
1.40001
0.989463
1.40001
1.0379
1.40001
1.40775
1.80121
1.85594
1.40001
1.40001
1.84204
1.40001
1.40001
1.47525
1.39678
1.40001
1.39822
1.40001
1.84637
1.40001
0.981041
1.40002
1.83626
1.3989
1.40001
1.40001
1.16617
1.40001
1.39901
1.02463
1.84352
1.53799
1.40001
1.40001
1.27775
1.40001
1.40001
1.40001
1.16129
1.40001
1.40001
1.40001
1.79531
1.40001
1.01976
1.4
1.40001
1.40001
1.40001
1.0185
1.84173
1.81823
1.02098
1.40001
1.83366
1.40001
1.40001
1.78439
1.84301
1.7504
1.03699
1.39777
1.39965
1.40001
1.83142
1.40001
1.40001
1.40001
1.40001
1.84282
1.40002
1.40001
1.40001
1.84069
1.40001
1.40001
1.84195
1.01468
1.40001
1.40001
1.40001
1.02924
1.40001
1.4
1.4
1.39864
1.40001
1.40001
1.40001
1.40001
1.7001
1.40001
1.83878
1.84228
1.85061
1.84243
1.84283
1.84029
1.40001
1.84152
1.40001
1.84195
1.76989
1.40001
1.3989
1.01593
1.75693
1.39991
1.40001
1.40001
1.40001
1.40001
1.36502
1.40001
1.46984
1.40001
1.40001
1.40001
1.22059
1.84191
1.84178
1.83708
1.79039
1.3999
1.40001
1.41601
1.84269
1.39844
1.43373
1.39709
0.995075
1.40001
1.40002
1.40001
1.40001
1.40001
1.40001
1.40001
1.84382
1.01569
1.84505
1.8385
1.39456
0.997141
1.40001
1.40001
1.40001
1.84201
0.998846
1.76527
1.01801
1.84165
1.83494
1.03422
1.78179
1.4245
1.40001
1.84547
1.18241
1.40001
1.39952
1.00054
1.40001
1.00674
1.40001
1.83976
1.77647
1.15421
1.40001
1.84133
0.991206
1.40001
1.03508
1.40001
1.84252
1.40001
1.40001
1.82975
1.40001
1.23235
1.40001
1.39968
1.00253
1.83863
1.39948
1.40001
1.00277
1.40001
1.40001
1.40001
1.40001
1.64041
1.40001
1.83543
1.40001
1.40001
1.857
1.40001
1.40001
1.842
1.40001
1.00789
1.40001
0.993544
1.40002
1.40001
1.40001
1.40001
1.40001
1.79356
1.65772
1.84198
1.40001
1.77572
1.78484
1.02377
1.00499
1.40001
1.40001
1.84131
1.40001
1.01039
1.40001
1.36043
1.40001
1.40001
1.84072
1.40001
1.78462
1.00328
1.85068
1.40001
1.00131
1.40001
1.40001
1.8423
1.76388
1.40001
1.40005
1.40001
1.80418
1.40001
1.40001
0.994995
1.3994
1.00224
1.40001
1.40001
1.40001
1.77064
1.84588
1.83941
1.40001
1.40001
0.995205
1.40001
1.7854
1.40001
1.40001
1.40001
1.76737
1.78157
1.84262
0.986982
1.8458
1.84168
1.02203
1.84117
1.40005
1.02402
1.39359
1.40001
1.40001
1.8431
0.994351
1.65684
0.99674
1.84151
1.39734
1.02597
1.8452
1.40001
1.40001
1.40001
1.40001
1.78402
1.84253
1.03725
1.40001
1.40003
1.03968
1.40004
1.40001
1.02334
0.999147
1.68299
1.78153
1.3985
1.84228
1.40001
1.81094
1.20167
1.02114
1.83851
1.83905
1.40001
1.84107
1.40001
1.40001
1.84133
1.40001
1.74413
1.84068
1.40001
1.40001
1.40001
1.40001
1.84259
1.76464
1.81469
1.40001
1.40001
1.80912
1.84231
1.84049
1.40001
1.84197
1.40001
1.40001
1.40001
1.40001
1.40001
1.0221
1.23841
1.00409
1.40001
1.40001
1.84188
1.40001
1.40001
1.84236
1.011
1.40001
1.84189
1.76585
1.82238
1.01776
1.40001
0.98728
1.40001
1.40003
1.84032
1.57143
1.83934
1.77514
1.40001
0.998192
1.40001
1.78016
1.69127
0.986452
1.40001
1.40001
1.40001
1.17057
1.40001
1.40001
1.84374
1.40001
0.9862
1.84205
1.40001
1.40001
1.40001
1.40001
1.40001
1.7305
1.50573
1.40001
1.84256
1.40001
1.7793
1.40001
1.39748
1.40001
1.84139
1.84746
1.80248
1.8477
1.3996
1.84001
1.40001
1.84173
1.84144
1.73952
1.40001
1.40001
1.01037
1.83932
1.40001
1.40001
1.84074
1.8408
1.77911
1.40001
1.84274
1.40001
1.40001
1.40004
1.84454
1.78511
1.52854
1.4923
1.84245
1.79759
1.03938
1.40001
1.40001
1.40001
1.40001
1.40002
1.55866
1.40001
1.40001
1.76416
1.00459
1.39998
1.40001
1.84177
1.39999
1.3998
1.4478
1.7848
1.84051
1.28643
1.40001
1.002
1.40001
1.3661
1.84196
1.8435
1.84069
1.39968
1.40001
1.40001
1.01898
1.40001
1.40001
1.84205
1.44846
1.40001
1.40001
1.40001
1.40001
1.40001
1.40001
1.40001
1.39994
1.84289
1.40002
1.40001
1.40001
1.40001
1.40001
1.67224
1.40001
1.61136
1.40001
1.40001
1.84171
1.84369
1.01146
1.3988
1.40001
1.4
1.40001
1.03544
1.83997
1.78581
1.40001
1.40001
1.40001
1.40001
1.40001
1.40001
1.40001
1.40001
1.84101
1.84585
1.00325
1.4486
1.03797
1.40001
1.04716
1.40001
1.84158
1.52623
1.40001
1.40001
1.07068
1.40001
1.82304
1.17456
1.39672
1.02362
1.40001
1.40001
1.84067
1.40005
1.39726
1.01288
1.83939
1.84848
1.40001
1.40001
1.40001
1.40001
1.76103
1.40001
1.40001
1.77949
1.39947
1.83984
1.40007
1.40001
1.40001
0.998823
1.40001
1.40001
1.84358
1.02512
1.15078
1.00454
1.84119
1.39927
1.40001
1.78459
0.994309
0.994422
1.39626
1.40001
1.40001
1.83962
1.40003
1.59551
1.40001
1.40001
1.83907
1.03662
1.40001
1.40001
1.40014
1.83914
1.40017
1.84578
1.40001
1.40003
1.40001
1.40001
1.0899
1.40001
1.16067
1.4
1.40001
1.83872
1.00254
1.40001
1.15351
1.18398
1.40001
1.40001
1.84277
1.40001
1.40001
1.40001
1.84056
1.79591
1.40005
1.83912
1.83955
1.16142
1.84139
1.82325
1.40001
1.40001