/*--------------------------------*- C++ -*----------------------------------*\
  =========                 |
  \\      /  F ield         | OpenFOAM: The Open Source CFD Toolbox
   \\    /   O peration     | Website:  https://openfoam.org
    \\  /    A nd           | Version:  12
     \\/     M anipulation  |
\*---------------------------------------------------------------------------*/
FoamFile
{
    format      ascii;
    class       volScalarField;
    location    "3.5";
    object      T;
}
// * * * * * * * * * * * * * * * * * * * * * * * * * * * * * * * * * * * * * //

dimensions      [0 0 0 1 0 0 0];

internalField   nonuniform List<scalar> 
46253
(
1.00547
1.01984
1.04555
1.01976
1.04427
1.04332
1.00118
0.986533
1.01858
1.0184
1.0047
0.937089
1.01291
1.01312
1
1.01784
1.01766
1.01489
1.0151
1.01666
1.01652
1.04148
1
1.01306
1.00497
1.01913
1.0172
1.01715
1.01928
0.984856
1.00529
1.01085
1.0107
1.01591
1.01573
1
1.01379
1.01372
0.999517
1
0.995621
0.935981
1.01136
1.01134
1.00738
1.0143
1.01425
1
1.00915
1.00894
1.00848
1.00838
1.03781
0.972815
1.04823
0.954299
1.00684
1.0066
1.01589
0.992854
1
0.990986
1
1
1
1.01224
1.01196
1.03978
0.957993
1.0073
1.00198
1.00604
1.00596
0.992419
1.03625
1.01291
1.00158
1.00133
1
1.01008
1.00977
1.0045
1.03825
1.00429
0.992677
1.03444
0.996154
0.995877
0.977488
1
1
0.991375
1.03404
1.00775
1
1.0075
1.03361
1
1.01559
1
1
1.03326
1.03529
1.00573
1.04788
0.995443
0.937613
0.989916
0.989672
0.946137
1.01291
1.00534
1.00512
1
1
0.976732
1.02167
0.993163
1.05023
0.95818
1
1.04231
1.0037
1.00346
1.0316
1.05242
1
0.947207
1.05346
1.00039
0.985464
0.98515
1.04226
1.00569
1.00008
1
0.998651
0.998413
0.959028
1
1.00213
0.982721
0.982401
1.00331
1.00234
1.05146
0.996909
0.996734
1.00212
1
0.945949
1.03736
0.999547
0.999244
0.996797
1.00517
0.946496
1
0.994294
1.04715
0.994036
0.938991
0.952172
1
1.00031
0.997757
1.00597
0.997533
1.07852
1
0.992596
0.992416
1.04046
1.00029
1.04644
1.01842
0.996607
1.03317
0.991989
1.02073
1.04665
0.996725
0.990782
0.990546
1.02984
0.995236
0.994907
1.01317
1.03683
1.0369
1.03673
1.03543
0.989021
1.03545
1.01164
1.01332
1.00843
1.03017
0.966835
0.96641
1
1
0.993349
0.993199
1
1.01095
0.995926
0.988083
0.987839
1
1
1.05015
1.00038
1.03489
0.993001
1.0299
1.00199
0.990017
0.986278
1.04043
1.03905
0.986077
1.01826
0.991748
0.991479
0.991103
1.0307
1.03222
0.961989
0.961671
1.00428
1
1
1
1.0313
1
1.01203
1
1.00338
1.00811
1.0313
1.03288
1.02892
1.00509
1
1.03579
1
0.995274
1.02869
0.983535
0.983325
1.00747
0.95726
1.02846
0.956867
0.989019
0.988703
0.962572
0.995463
1.02799
1.01023
0.989492
0.944662
1.00417
0.979384
1
1
1
0.987137
0.980776
0.986936
1.03224
1
1
0.980558
1.031
1.05018
1
0.966158
0.966628
0.952458
0.952123
1.03577
1.03487
1
0.989623
0.990418
0.957658
1.00113
1
1.014
1.01345
0.992283
1
1.01173
1.00076
1.03253
1.0003
0.99675
0.978909
1.04773
0.978682
0.951332
1.0467
1.03799
0.984443
0.984116
1
1.00461
1.03678
1.03695
0.990801
1
0.977079
1.02672
0.976857
0.960045
1.01105
1
0.960823
0.950918
1.02653
1.0023
1.00473
0.99237
1.0005
1.02632
1.02938
0.975168
0.974963
0.943628
0.943274
1.03803
1
1.02611
0.983432
0.96041
0.98169
0.981357
1
1.03787
1.03677
1
1.05034
1.02521
0.973402
0.973179
1
0.960268
1.03278
0.982876
1
1.01987
1
0.941496
1.02436
0.979875
1
0.979635
1
0.942121
1.0375
1.02755
1.03773
1.03727
1.02705
1.02681
1.02675
0.971378
1.02518
1.02412
1.02436
1.02432
0.971189
1.02694
1.00962
0.958893
1.03192
1.02507
1
0.9943
0.983952
0.948289
0.978012
0.978985
0.977809
1.02543
1
0.969554
1.05791
1.02823
1.00106
0.969256
0.989846
1.02492
1.00706
0.992621
0.991707
1.02777
0.973262
1
0.995678
0.995695
1.0092
1.0319
1.03097
1.00011
1
1
1.0259
1.02714
1.03739
1.04156
1.03074
0.971373
1.03357
0.990624
1.02915
1.0257
0.963402
1.03338
1
0.967627
1.03092
0.976088
1.03093
1
0.967466
0.975817
1.03667
0.995488
1
1
1.00421
1.00241
0.965269
0.959716
1.03707
1.00018
0.981139
0.951025
1.0282
0.99107
1.03678
0.965841
0.996903
1.03551
1.02756
0.957187
1
0.966801
0.973931
1
0.992149
1
1.03193
1.01224
1.03286
0.974265
0.969663
1.02714
0.969119
0.968554
0.974127
1.02497
0.968437
1.03322
1.0219
1.03328
1.02456
1.02162
0.971061
1
1.00515
0.949142
0.96472
0.96361
0.993925
0.964602
0.984609
0.998577
0.998642
1
1.03097
1.03043
1
1.05463
1
0.967644
0.993441
0.926797
0.967648
0.966274
0.992428
0.965927
1
1.02456
0.972313
0.971215
0.945227
0.972034
0.962846
0.962584
1.00075
0.995833
1.02733
1.00079
1.00516
1
1
1.02736
0.991455
1.03235
0.97231
0.989668
1
1.03602
0.967
1.02694
1
0.985057
1.0356
0.971908
1.02822
1.02777
0.972026
1.02601
0.971546
0.972628
0.971656
1
1.00253
1.00026
1
0.970826
0.970416
1.02511
1
0.970489
1
1.01118
0.963591
1.02551
1.03471
0.970269
1
1
1.03362
1.03379
0.925528
1.03281
1.03292
0.959972
0.963665
0.959671
0.993333
1.03016
1.03043
1.02894
1.02935
1.02822
1.02922
1
0.96625
0.926753
1.03639
1.01774
1
1.03415
1.03578
1.01774
1.01037
1.00158
1
0.999934
1.02296
1.03428
0.951947
1
1.03533
1.03537
0.968512
1.03489
1.02031
0.968333
0.998805
1.00332
1.02715
1.00374
1.0039
1.00475
0.968468
1.02032
0.958151
0.957973
1.00074
0.989412
1.03562
1.03564
0.990306
1.0257
1.04693
0.990516
1.03388
1.04815
1.02898
1.02492
1.00354
1.00599
1.0246
1.0269
0.988004
0.968092
1.02504
1.02511
0.991636
1.02685
1.02733
1.02563
1.02586
1.0238
1.02408
1.02229
1.02272
1.01912
0.96543
1.0208
0.984086
1.02098
1.01877
1.02522
1.01015
1.01208
1.01909
1.02709
1.01714
1.0253
1.01756
1
0.966534
1.01552
1.02874
1.01574
1.03182
1.02636
1.01343
1.00059
1.01368
1.00026
0.935771
1.02876
0.964735
1.01209
1.03657
1.03679
1.01158
1.012
1.02748
0.970601
1.00993
1.01026
0.989732
1.02964
1.02915
1.00699
0.9552
1.00736
1.02603
0.965711
1.00516
0.953353
1.00528
0.955104
0.965404
1.02504
1.03632
1.03617
1.00296
1.00327
0.947401
1.02462
1.02418
1.00107
0.96939
1.00153
0.953518
1.02655
0.998138
0.998623
1.0247
1.02122
1.02273
0.994706
1.02128
0.970529
0.978194
1.00551
1.03043
0.995424
1.03399
0.995812
1.03382
1.02619
0.971332
0.971361
0.993363
0.99334
0.966006
0.972055
0.991065
0.972542
0.991584
1.02964
0.992346
0.988155
0.988767
1.0251
0.959099
0.986603
0.986799
1.0706
1.02991
1.02987
1.03609
0.984417
0.964134
0.98446
1.02424
0.989832
0.971998
0.946279
0.982153
0.98279
0.97786
0.980923
0.980863
0.960408
0.958173
1.03144
1.02775
1.04972
0.953272
1
0.949489
0.953031
0.954931
0.99333
1.01135
1.02829
1.03156
1.02854
0.963887
1.03399
1.03239
1.03383
1
1.03264
0.963649
1
1.03112
1.03083
0.964044
0.961171
1.02619
0.992588
1.02424
1.00788
1
1
1.0259
1.02885
1
0.982332
1.03427
0.965876
1.03307
1.0019
0.978866
1.0025
0.953645
1.03508
0.990399
0.99508
1.00446
1.03152
1
1.02743
1
1.0342
1.003
1.00272
0.981151
1.013
1.01282
1.02471
0.965528
1.02569
1.0248
1.00337
0.977862
1.03183
1.00902
1.03121
1.03205
0.991954
0.992993
1.02582
1.0039
0.955989
0.971609
1
0.965827
0.95042
1
1.0313
0.968163
0.966863
1.03218
0.950139
1.0411
1.02793
1
1.00872
1.00916
0.965152
1.03484
1.03904
1.03941
0.995475
0.977039
1.03728
0.971147
0.998356
0.956976
1.03013
1.02736
1.02693
1
1.00014
1.00038
1.02779
1.02786
1
0.960959
0.996985
1
1.02767
0.997304
0.960626
0.965826
0.966045
1
0.965761
0.973285
0.945367
0.965187
0.951001
0.990409
1.03644
1.03702
0.990375
1
1.02199
0.9664
0.965469
1.03327
0.94865
0.961485
0.970514
0.957131
0.960271
0.948396
0.955445
0.956155
0.951514
0.951528
1.02348
1.03005
0.960948
1.03033
1.02317
0.968229
0.964267
0.956276
1.02637
1.03735
0.973918
1.02964
0.971421
0.973623
1.03208
1.03168
0.969052
1.03272
1
1.03327
1.02527
0.966016
0.971981
0.972602
1.03681
1.02432
0.959058
1.03034
0.974359
0.974216
0.958949
1.02914
0.971504
0.97103
0.971451
1.02523
1.02525
1.02506
1.02519
0.972045
0.971394
1
0.988628
1.03329
0.954774
1
0.956768
1.00957
1.00431
1.02646
0.946593
0.946376
0.992786
1.04022
1.02805
0.956112
0.991064
0.989029
0.95721
1.02971
1.02996
0.970803
1.0231
1.02637
1.02645
0.971781
1.00321
0.984627
0.971976
1.02212
1.03177
1.03044
1.03206
1.03434
1.03311
1.05873
1.03341
1.00767
0.959665
0.953627
0.946748
1.02161
1.0278
1.02925
0.963082
0.999412
1.00874
1.03673
1.01442
1.01614
1.01819
1.01271
1.01488
1
0.980436
1.01645
1.01979
1.013
0.965776
1.01839
1.0069
1.01078
1.02023
1.03322
1.02132
1.01096
1.02164
1.03117
1.00795
1.01512
1.02328
1.0235
1.0081
1.02469
1.02433
1.00583
1.02513
1.03708
1.02614
1.0062
1.02939
1.00409
1.02638
1
1.02407
0.944789
1.00451
1.02757
1.0144
1.0214
1.00223
1.00485
1.02005
1.02133
1.00985
1.00245
0.94458
1.02877
0.999359
1.02637
0.978033
0.999602
0.996478
0.996489
0.960171
0.994005
0.99447
0.992487
1.02549
1.01316
0.992784
1.02631
0.989685
1.00935
1.02634
1.03055
0.989906
0.966436
1.02469
0.987286
0.987363
0.985239
0.956225
0.985773
1.02657
0.983673
1.02545
0.977239
0.955943
0.983883
0.990879
0.987748
0.966092
0.98115
0.974686
0.975259
1.01163
0.98125
0.979319
0.980104
1.00709
1.01584
1.03256
1.02564
1.01491
1.02484
1.01454
1.01733
1.02368
1
1.05132
0.962072
1
0.956514
0.970806
1.0012
1.00143
1.02545
0.98246
1.00404
1.00576
0.955193
0.987335
1.00319
1.00424
1.00362
1.00317
0.976728
0.960565
0.972699
0.967923
1.02558
0.978672
0.963396
0.9543
0.987743
1
1.01339
1.0031
0.939589
1
0.942678
0.995018
0.981861
0.942837
1
1.02618
1.02715
0.970837
0.988535
0.95752
1.00235
0.990575
0.992698
1.01607
0.954288
0.982168
0.95403
0.976672
0.994319
0.939876
0.960207
1.01225
0.97866
1.00498
0.977512
1.0269
1.00488
1.01902
0.971914
0.985765
1.02991
1.02686
1.02389
0.970309
1.02821
1.02508
1.02318
1.0177
0.985875
0.950145
1
0.995203
1.02228
0.970044
0.974334
1.02034
1
1.03469
0.952881
1.02395
0.952983
0.972399
0.97259
1.0497
1.00633
0.971496
1.03308
0.992259
1.02121
0.989325
0.97354
0.95977
0.961761
1.02702
1.02725
0.978417
0.970608
0.97444
0.968158
0.969387
0.969496
1.02703
0.980118
0.97396
0.965623
0.965969
0.949906
0.989426
1.03418
0.974504
0.991455
0.972188
0.943267
0.97315
1.00318
1
1.03267
1.03283
0.964061
0.971853
1.02039
0.964622
0.971822
0.969119
0.995799
0.95665
0.964345
1.02313
1.01147
1.01215
1.02798
1.02876
0.976161
1.01518
1.0313
1.03319
1.03285
0.970889
1.03192
0.971347
0.951052
0.969824
0.973088
1.02632
1.03312
0.97315
1
1.02858
0.966249
1.02653
1.02881
1.02679
0.996968
1.02698
0.966452
0.973989
1.01178
1.03552
0.99793
1.02366
1.01812
0.977617
1
1.00963
1.02398
1.02066
1.02748
0.970865
1.03164
1.02766
1.02944
0.958372
1.0209
1.02913
1.01473
0.9896
1
1.02966
0.996138
1.01743
0.993667
0.991863
1.02098
0.951458
0.948645
1.02618
1.01755
1.01758
0.963842
0.993226
1.0179
1.00224
0.951082
0.996928
1.00285
1.02414
1.01413
1.02444
1.02696
1.0221
1.01406
1.023
1.03438
0.968934
0.97357
1.02334
0.970532
1.01429
0.972138
0.968368
1.02191
0.969006
1.0295
0.971774
1.02387
1.0221
1.03486
1.03642
1.01774
0.976248
1.01921
1.02043
1.02077
1.03582
1.03591
1.03255
0.9844
1.0225
1.02319
0.986336
1.03338
1.01956
1.02227
0.987439
0.966835
1.01769
1.01776
1.01211
0.986662
1.01806
1.02493
1.0252
0.99089
1.01647
1.0043
1.01683
1.02035
0.959307
1.01141
1.02038
1.01431
1.02121
1
1.01464
1.03506
1.02374
1.02298
0.971264
1.01971
1.02543
1.02038
1.01267
1.01294
0.956893
1.01117
1.02764
1.01156
1.00175
1.03157
1.00973
1.02754
0.990194
0.989617
0.960942
1.0113
0.95534
0.992669
1.02645
1.01005
0.99153
0.994241
1.00232
1.00312
0.943127
1.00327
1.00224
0.988203
1.003
1.00315
0.993985
1.0092
1.00736
0.982467
0.996617
1.00288
1.00563
1.00767
1.0029
0.993871
1.00358
1
0.982627
1.00338
1.0059
0.99542
0.958524
0.971434
1.00352
1.00236
0.949563
1.0039
1.01522
1.00431
0.967026
1.02469
1.01513
0.953026
0.949562
0.968639
1.00272
1.00407
0.963435
1
0.997593
1.01689
1.0261
1.02706
1.03487
1.02468
1.02423
0.99408
0.998271
1.02511
0.999816
0.997918
1.00016
1.0245
0.957
1.019
1.00318
1.00307
0.99883
0.998318
0.95543
1.00799
1.01157
1.00073
1.00622
0.996405
1.00856
0.996671
0.993337
1.02383
0.998077
1.03414
0.985784
1.02616
1.02948
0.994069
0.993733
1.00453
0.984011
1.00534
0.970996
0.988465
1.002
0.960529
0.961383
1.01269
1.0335
0.990827
0.991577
1.03367
1.02642
1.03075
1.02915
1.0309
1.02938
1.03319
0.968173
1.02365
0.995238
1.02896
0.956703
1.01554
1.0188
0.955798
0.988854
0.952928
1.02496
1.01854
0.995372
0.999167
1.03182
0.9389
1.01696
1.03071
1.03018
1.0224
1.0306
0.96317
0.963394
1.00184
1
1.03283
1.03267
0.985101
0.971297
1.01106
1.02887
1.03899
1
1.03483
0.996581
1.02309
0.986289
0.986656
0.998134
1.02582
0.982579
0.984598
1.03008
1.00431
0.984859
0.99537
1.00966
1.02536
1.0212
1.03181
1.02556
0.994596
0.983075
1.01116
1.01843
1.02965
1.01399
1.0158
1.01012
1.03313
1.02761
1.00054
0.94769
1.01558
0.947425
1.02283
1.01742
1.01597
1.03392
0.977927
1.01434
1.03408
0.980057
0.988232
0.98076
1
1.0305
0.947089
1.01299
1.01456
0.958627
0.923041
0.99427
0.991685
0.990335
1.02881
0.972254
0.978897
0.97423
1.03476
0.977767
1.02882
1.02105
0.991182
1.00878
0.980013
0.967046
1.02711
1.02651
0.97589
0.986094
1.00787
1.03271
0.972975
1.0135
0.97516
0.974753
0.975491
0.988261
0.97389
1.0088
1.01724
1.00924
1.02874
0.98084
0.97352
0.971583
0.992285
1.02698
0.966571
1.00174
1.03227
0.969004
1.0159
0.952548
1.02393
0.961279
0.969092
0.977092
1.02385
1.02385
0.970012
0.99367
1.02725
0.976423
0.971081
1.01207
1.01606
1.0271
0.973801
1.0352
0.962173
0.966882
0.976729
0.944347
1.01804
1.03534
1.0189
1.0114
0.968869
1.02743
1.02412
0.998723
0.992083
1.0014
1.00045
1.01707
0.962022
0.987255
1.01832
1.00182
1.01608
0.963416
0.965953
1
0.965856
1
0.967297
1.02166
0.963959
0.952399
1.01794
1.00817
1.02427
1.01415
0.995509
0.97851
1.02686
0.997576
0.995911
1.00753
1.05244
1.00341
1.03639
0.959389
1.02488
0.9606
1.02824
0.992855
0.961446
1.01806
1.00706
0.992865
0.979624
1.02771
0.989619
0.959635
0.969722
1
1
0.990058
1.0127
1.02626
1.01509
0.967656
1.00801
1.00906
1.01071
0.970487
0.992289
1.02407
1.01602
1.0261
1
1
1.01215
1.02643
1.01092
0.996443
0.956914
0.942084
0.938613
1.01787
0.969748
0.95648
0.952517
1.01639
1.01798
1.01152
0.953837
0.972496
0.996551
1.00973
0.99986
0.943888
0.98442
1.01525
1.0316
1.0044
1.02646
0.955224
1.00557
1.02699
0.953009
1.02214
0.954937
0.945481
0.983068
0.96119
1.0212
1.02115
1.00775
1.00556
1.01238
0.96943
1.01817
1
0.969733
0.99284
0.945843
1.02703
1.02648
0.981298
0.951286
0.950983
1.02342
0.966954
1.01553
0.980768
0.945902
1.02672
1.01534
0.945697
0.998164
1.01191
0.998135
1.00272
1.03836
0.981643
0.968135
0.984246
0.974722
0.98412
0.981945
1.01092
0.990459
0.958499
1.02689
0.991456
1.03133
1
0.973834
0.972449
0.977087
0.973122
1.02343
0.977526
1.03082
1.03622
0.976443
0.977589
0.99998
0.990658
0.983494
1.00017
1.03774
0.994246
0.977881
1.00469
1.016
0.971106
1.03131
0.956286
1.02679
0.987246
0.992466
1.00473
1.03084
0.973241
0.96725
1
1.0249
0.965908
0.981673
1.02488
1.02876
1.02842
0.981999
1.02896
0.972559
0.99114
1.01478
0.963148
0.971576
0.97257
1.00739
1.02888
1.0154
0.961539
1.029
0.950711
1.01147
1.00663
0.965588
0.966583
1.02889
1.02114
1.00272
0.99207
1.02341
1.01722
1.01692
1.02937
0.961408
1.01494
1.03342
0.967915
1
1
0.992066
0.972356
0.948693
0.968597
1.02994
1.00994
0.993835
0.96715
1.01041
0.961257
1.01686
0.98972
1.01342
1.02233
1.01844
0.95714
0.991055
1.00071
0.963615
1.01722
1.01991
1.01431
0.96033
0.955796
0.998396
0.962974
1.01384
0.950809
1.0212
1.00642
1.0175
0.962814
1
1.01205
1.01516
1.00882
1.02016
0.944304
1.0188
1.00857
1.02652
1.02155
1.02366
1.02616
1.01385
1.01069
1.02261
1.01236
1.00801
1.0224
0.949794
1.02588
1.02967
0.989413
1.00772
1.00317
1.02482
1.02388
0.997323
0.958106
0.966268
1.01035
1.00828
1.00685
0.989028
0.977513
0.992613
1.02735
1.0251
1.02601
1.031
0.977097
0.957858
1.00487
1.01593
0.977972
0.964834
0.958707
0.99728
0.969426
0.985763
0.998888
0.992429
1.00344
0.966048
1.00523
0.96654
1.03227
1.02736
0.992546
1.00114
1.02656
1.03383
0.986707
0.996278
0.969597
0.985596
1.00126
1.00058
1.03247
0.962084
1.02667
0.992852
0.99884
1.00232
0.976032
0.958258
0.969132
0.966579
0.999298
0.970045
1.00087
0.960112
1.02654
0.975663
0.971003
0.958492
0.994357
1.02233
0.992153
1
1.00319
1.00835
0.997067
0.978594
0.989281
1.02442
0.977053
0.949272
1.02123
1.02203
0.977836
0.996163
1.0344
0.9974
0.978905
0.948358
0.994886
1.02744
0.977952
0.994118
0.992242
0.992935
0.969669
1.01844
0.947838
0.962884
0.992558
0.993276
1.01867
0.946087
0.996632
0.971665
0.977847
0.989253
0.972215
0.970562
1
0.995642
1.01714
0.969489
0.995261
1.02689
1.01744
1.02538
0.991006
1.01101
0.996086
1.02646
1.01555
0.983695
1.01046
0.977634
1.0017
1.01592
1.01919
1
0.970048
1.02669
1.01208
1.04943
0.987369
0.983002
1.02594
0.985384
0.977243
0.998356
0.958522
0.968798
1.01189
0.996456
0.981774
1.01431
0.987229
0.986096
0.993805
1.02346
0.985743
0.984089
1.01467
0.978874
0.990699
0.985251
0.994449
0.987788
1.02313
0.989279
0.979837
0.978343
1.0128
0.981311
0.988914
0.996964
1.04485
0.996196
1.03396
1.0269
1.0131
0.985583
0.997775
0.981359
0.998487
0.978897
1.01984
1.01121
1.02781
1.0284
1.0071
0.974177
0.967237
1.01153
0.997131
1.0273
0.99619
1.00034
0.965085
0.976214
1.02714
0.998387
0.947918
1.00753
0.976862
0.974644
0.977975
1.00978
1.02319
1.01066
0.996203
1.01023
0.968891
1.02365
1.02331
1.02757
0.978212
1.02533
1.02531
0.985163
0.955417
0.996332
0.971985
1.00081
1.02615
1.02543
1.0267
0.991319
1.0259
0.969603
1.03007
0.969819
0.97229
0.99556
1.01363
0.969257
0.955592
1.00756
0.954345
0.971678
1.00314
0.991577
0.964995
1.00793
0.999243
1.02619
0.994411
0.966317
1.03167
1.01777
0.997258
1.02958
0.996157
1
0.99836
0.96683
0.965484
0.997077
0.996717
1.00517
1.0025
1.03033
1.01255
1.01189
1.03612
0.928202
1.0055
1.01305
1.01119
0.959824
1.02863
0.996381
0.962395
0.988571
0.992668
1.00024
0.9979
1.00038
1.00318
1.02067
1.00525
0.999772
0.962778
1.02174
0.976143
0.959988
0.984313
1.0248
1.00351
0.978234
0.942722
0.973555
0.99264
0.987044
0.989813
0.998122
0.991862
0.998152
0.995098
1.01133
1
1.00152
0.996573
0.975333
0.997523
0.977579
1.00169
1.02623
0.956694
0.955802
1.02727
1.02673
1.02358
1.02705
1.00213
1.01503
0.953139
1.01448
0.973141
1.02913
0.957105
0.94255
0.999321
1.01165
0.95657
0.997889
0.99802
0.996457
0.97028
1.02808
1.02296
0.982404
1.00686
1
1.02563
0.980139
1.00234
0.951826
1.00006
0.962488
0.999287
1.03197
0.984748
1.0339
0.979622
1.00316
1.00546
0.962641
1.02187
0.950295
0.968051
1.03252
1.0004
0.981556
1.00363
1.00966
1.00415
0.953662
0.967226
0.996838
1.01839
0.995206
1.00759
1.00621
1.01268
0.980987
0.999126
1.00693
0.997114
1.01942
1.02833
0.984715
0.949986
0.968122
0.939695
1.02294
1.02103
0.997506
1.03752
1.01065
0.991336
0.947398
1.00957
1.01019
0.985469
0.940811
0.997825
1.00832
0.991085
0.953759
0.968352
0.999085
1.02074
0.971129
1.00068
0.968737
1.0256
0.984314
0.988663
0.959889
0.962292
0.969589
1.01178
1.03154
0.967735
0.960207
0.980616
0.960446
0.958152
0.970321
1.00033
1.0112
0.969056
1.00382
0.953667
1.00447
1.00993
0.981716
1.03948
1.00357
1.01071
0.995684
0.984342
1.00568
0.953385
0.976793
0.983578
0.973023
0.992172
1
0.960826
1.02218
0.969698
0.99251
1.01759
1.02001
0.968498
1.01304
1.02579
0.993
0.983604
1.03042
0.967958
1.02729
0.939092
1
0.989091
0.953664
0.989458
1.00732
0.957963
0.989283
0.957901
0.978429
0.978077
1.03061
0.994554
1.03288
0.986821
0.979106
1.01445
0.987529
0.990713
1.01181
0.987745
1.01201
1.03036
0.990294
0.937241
0.985964
1.00875
1.01511
0.971989
0.984858
0.985924
0.988607
0.928881
1.00918
0.989011
1.02455
0.954271
1.02482
0.991235
0.939539
1.02821
0.983379
0.990346
0.991384
1.01303
0.962495
0.983892
1.01279
0.969023
1.03434
0.956812
0.956753
1.00646
1.01508
1.03375
0.98194
1.00202
1.0126
1.0145
1
1.00699
0.982359
0.978708
0.950637
1.01579
1
1
1.01523
0.979901
1.01771
0.995569
1.01655
0.980257
1.02634
0.964762
0.99472
0.997709
0.977985
0.971735
1.01283
1.01338
1.02077
0.978532
1.0139
0.993284
1.02676
1.02942
1.02671
0.948956
0.976697
1.00677
0.949177
1.00308
1.01836
0.994497
0.977324
0.945988
0.972032
0.976767
1.01829
0.947247
0.979399
1.00999
0.952193
0.973228
1.02918
0.997047
0.975629
0.992261
0.997181
1.00199
1.00131
1.01883
0.953523
1.02165
1.02056
1.03329
0.970717
1.00766
0.973421
1.03202
1.02938
0.95541
1.02811
1.01963
0.99717
0.974028
0.993936
1.03255
0.978993
0.978947
0.954587
0.999117
0.957393
0.997349
0.973689
1.01858
0.994754
1.01894
1.02715
0.975228
0.993226
0.957101
0.999575
0.974105
1.02689
0.990445
1.01528
0.976848
1.02238
0.959635
0.99088
1.02283
0.977065
1.02681
0.992176
0.960984
0.991306
1.0577
0.986727
1.03157
0.969609
1.00027
1.02129
1.01219
1.0344
1.02767
0.99898
0.959645
0.969563
1.03046
0.987384
0.960734
1.0098
0.99618
0.988184
1.02919
1.03799
1.02934
0.932824
0.960711
0.968989
0.970091
0.958124
1.02598
1.02403
1.02315
0.995038
1.0241
1.02565
0.964688
0.957595
0.950254
1.02502
0.964673
0.961883
0.966289
0.966473
1.00151
1.00059
1.0337
0.961979
0.966853
0.973748
1.00244
0.995548
0.965687
0.977052
1.0237
0.975249
1.03453
1.02422
1.02925
1.00486
0.984185
0.990722
0.963778
1.02743
1.00566
1
1.02371
0.963736
1.02709
1.0266
0.995025
0.969511
1.03534
0.991531
0.963905
0.968848
1.02336
1.0333
1.02549
1.02672
0.970936
1.02262
0.947464
0.960842
1.01881
0.978178
0.961149
1.02775
0.970402
1.02838
1.01892
1.03442
0.973529
0.959057
0.959639
1.01781
0.997009
0.973116
0.991825
1.02696
1.02706
0.998744
0.947696
1.01638
0.963919
0.974819
1.01923
1.01922
1.02601
1.01834
1.03432
0.956108
1.01561
0.978515
0.974044
1.01499
1.00814
0.97578
1.01813
0.956881
1.0064
1
0.958961
0.999652
1.02833
1.02149
1.00748
1.01123
1.02695
1.0135
1.01674
0.997598
1.00318
0.976999
0.977319
1.00092
1.00097
1.00168
1.01521
0.955503
1.00716
1.01199
1.00256
0.976859
1.02692
0.979749
1.01766
0.98321
1.01067
0.979443
1.02709
0.9511
1.01387
1.02576
0.999542
1.00577
1.00694
1.02681
1.02648
0.982802
1.02431
0.996193
0.964245
0.980435
0.931155
1.01238
1.01516
1.02691
0.99348
0.96754
1.02688
1
1.00827
0.933289
0.98048
0.983492
0.985034
0.999924
1.01093
0.975652
0.982575
1.02536
1.01939
0.959557
0.992226
1.00646
1.00806
0.984017
1.00576
1.0084
1.01951
0.983361
1.02848
0.966069
0.98495
1.00406
1.02017
0.98443
0.968074
0.958623
1.01152
1.00598
1.00212
0.984532
0.983285
1.02676
1.0321
0.953837
0.958532
1.00261
0.96484
0.956312
1.02686
0.967087
1.02805
1.02473
1.00846
0.988988
1.00463
0.956054
1.03025
1.02633
0.958796
0.980158
1.02926
1.0008
1.0282
0.988072
0.967615
1.02479
1.04974
1.02803
0.988473
1.02731
0.976719
0.991804
1.02659
1.00289
0.998474
0.987972
1.01608
1.00272
1.02912
1.00547
0.987451
1.05189
0.990611
0.98735
1.01286
0.990104
0.963541
0.96059
1.01623
0.998194
1.00118
0.990641
0.989984
0.989271
1.01582
0.963818
1.00261
0.963651
1.02914
1.00879
1.02962
1.02881
1.00412
0.992483
0.991702
1.01339
0.946348
0.953446
1.03363
0.993819
0.999482
0.972981
0.982891
0.97062
0.998579
0.991138
0.961031
1.02275
0.958267
0.991395
1.02833
1.02677
1.02272
0.992236
0.961622
0.994474
0.958534
0.975663
1.03071
0.993577
0.997031
0.984792
0.994576
0.955007
1.0262
1.0294
1.01621
0.993018
0.992677
0.955332
0.984045
1.02731
1.02439
0.969021
0.993738
0.999132
0.995726
0.989483
0.984598
0.976838
0.987922
1.03706
0.992807
0.974951
0.998565
1.02766
0.982935
0.995856
1.0139
1.02613
0.99604
1.02714
1.01664
0.993999
0.968436
1.01979
0.988729
1.00945
0.972603
0.982306
0.98764
1.01344
1.0272
0.994259
0.988002
0.997556
0.999759
0.995683
1.02607
0.989922
0.995488
0.985863
0.987813
0.997273
1.0259
1.02282
0.987009
1.03073
1.02818
1.01077
0.963809
0.98228
1.01709
0.972337
0.989203
0.984829
0.959485
1.01385
1.02027
0.976704
0.998238
1.00695
1.02644
0.983108
0.989414
0.986147
0.982735
1.00931
0.989901
1.02581
0.998848
1.0233
0.996149
0.994541
0.99952
1.02624
0.997686
0.985479
0.988818
0.980771
1.02472
0.998636
0.956715
1.03024
1.03212
0.98289
0.979102
0.991489
1.02388
1.02623
0.978164
1.0231
0.981295
1.00092
0.97701
1.02423
1.02515
0.99108
0.979492
1.02359
1.00026
1.02379
0.975327
0.99896
0.961274
1.0235
0.977375
1.02487
0.973892
1.0086
1.031
0.995131
1.00217
0.976183
0.970531
1.02893
1.02701
1.02645
0.99434
1.00181
0.976238
0.973129
1.01459
0.970642
1.00211
1.00425
0.95085
1.00973
1.03146
1.01518
1.01368
0.979395
0.951093
1.01952
0.993813
1.01042
1.02828
0.972108
0.9661
1.00517
0.966298
1.0043
1.03037
0.967098
1.00167
0.999617
0.975745
0.970325
1.00047
0.960415
0.994418
0.977736
0.996092
1.03505
1.0319
1.00381
1.00068
0.964356
1.02178
0.998522
0.976942
0.996884
0.991276
1.03153
0.966756
1.00429
0.982494
0.995529
1.0066
1.03208
0.998143
0.961833
0.993271
1.00571
0.965113
1.026
1.02699
1.00382
0.960231
0.981945
1.02672
0.995763
1.0221
1.01941
0.995304
1.00513
1
0.962723
1.01785
0.99523
1.03334
0.971658
0.995107
1.00573
0.957635
1.02185
0.960574
0.998409
0.99962
1.01017
1.01542
1.02289
0.998896
1.02291
1.00746
0.985723
0.988368
1.0252
1.03405
0.954888
1.01147
0.95798
1.01544
0.998391
1.0051
1.00724
1.03452
0.988629
0.985161
1.03436
0.992315
0.954812
0.950963
0.962175
0.998953
1.02302
0.996775
1.02745
1.00735
0.977999
1.02014
1.02539
0.988095
0.99947
0.995442
0.985416
0.942911
1.02046
1.02619
0.995345
0.993022
1.00144
0.964827
1.02589
1.00652
1.00714
1.0028
1.00999
1.02258
1.00096
1.03005
1.00963
1.02703
1.03413
0.997065
1.03457
1.00923
0.985044
1.02251
1.04878
1.0035
0.996505
0.991657
1.02686
0.978202
1.0253
0.986444
1.00715
1.02048
1.00864
1.02982
1.02735
0.984896
1.00302
0.995964
1.00122
1.00298
1.00458
0.996862
1.04434
1.01537
1.00435
1.00605
0.998143
1.00489
1.01241
0.9969
1.02284
1.02601
1.0004
1.00595
1.02629
1.0287
0.992928
1.00522
1.00716
1.01059
0.941783
1.01196
0.981356
0.987759
0.962889
0.948026
0.948357
0.994535
1.00471
0.961854
0.996498
0.973026
1.03069
1.02533
1.01027
0.986988
1.03014
1.03027
0.964528
1.02939
1.0137
0.988675
0.998108
1.02195
1.007
1.01323
0.990339
0.996857
1.00711
1.02791
1.01247
0.987933
1.02404
0.941272
1.00642
0.990892
0.994002
0.991995
0.990091
0.995158
0.936189
0.935771
0.997597
0.940605
1.01202
1.01115
1.00557
1.00863
1.01929
1.01244
0.958849
1.02303
1.02068
1.01933
1.0008
0.998457
1.00048
0.994177
1.00873
1.00049
0.942214
1.02671
1.00299
0.949829
1.01685
1.00186
0.983
1.01596
1.02648
1.02587
1.02732
0.995426
0.991983
1.00823
1.01233
1.00012
0.991123
1.01557
0.961462
1.02152
0.989585
1.02351
0.982519
0.992707
1.00199
1.02619
1.02566
0.936513
1.02463
0.985892
0.961661
1.00176
0.965213
0.959813
0.980464
1.00759
1
0.989061
1.0145
1
0.989299
1.01036
0.960343
1.01769
0.995699
0.985327
0.990806
1.03025
0.994857
1.0025
0.982204
1.02509
0.994143
1.00997
0.990768
0.96002
0.994636
0.956737
1.00305
0.959486
1.01516
0.999263
1.00124
1.00849
1.01812
0.992694
0.993027
0.948128
1.00371
1
1.025
0.999167
0.987292
1.01779
0.998626
1.00732
1.01982
0.99125
1
1.01985
0.992301
1.00418
0.946333
0.996522
1.0087
0.992091
0.987945
1.01217
1.00492
1.01086
1.00373
0.968079
0.960469
0.951536
0.994021
1.02334
0.998403
0.938032
0.956914
0.998343
0.964292
0.940244
1.01991
1.00352
0.99268
0.991835
1.01174
0.949569
1.01978
1.01975
1.03143
0.996855
1.01386
0.98986
0.996826
0.992145
0.951107
1.05451
1.01975
0.962219
0.960689
1.01314
1.0197
0.956938
0.969862
1.01282
1.02809
0.94946
1.00197
1.00067
0.989023
0.952004
0.993425
1.01077
1.00864
1.00382
0.997816
1.01743
1.00238
0.956086
0.999541
0.936804
0.961181
0.991629
1.01936
1.00554
0.967576
1.02018
0.998192
1.02065
1.00516
1.00693
1.0171
0.996798
0.938158
1.01984
0.956987
1.01385
0.971192
1.01198
1.00996
0.992093
1.02787
0.98856
1.00504
0.967076
0.978905
0.996219
1.02069
1.01307
1.01347
0.997035
0.998847
0.953283
0.991912
1
0.995737
0.97647
0.979877
0.991195
0.996411
1.02626
0.935792
0.998491
0.959196
1.01886
0.999663
0.994271
1
0.978906
0.980227
0.996979
0.995286
0.991778
0.96897
0.996243
0.99537
0.993829
1.01842
0.972231
0.976582
0.976109
0.981595
0.95718
1.03187
0.994445
0.978613
1.02417
0.989298
1.03262
0.963582
0.953303
1.02221
0.996502
1.00136
1.02076
0.979323
1.02074
0.979165
1.00755
0.975827
1.0011
1.02189
0.933315
1.02729
0.979017
1.03489
0.984491
1.02451
0.989583
1.01383
0.994387
0.998547
0.952317
0.991814
0.97577
0.952157
1
1.02537
1.00391
1.02014
0.965996
0.999882
1.0029
0.985126
1.02075
0.943358
1.01626
0.992253
1.02304
0.998911
1.0146
0.977999
0.991598
0.980117
1.01978
0.981076
1.03121
1.0056
1.02974
1.0159
0.995538
0.965366
1.04976
1.00199
0.999274
1.01427
1.02335
1.00939
1.03324
1.01345
0.995263
0.957242
0.980552
1.00678
0.99239
1.02181
1.02417
1.0354
0.992534
0.983254
1.0076
1.01286
1.01292
0.989001
0.966595
1.01008
1.00361
1.02155
0.993642
0.95776
1.01472
1.02384
1.00714
0.957598
0.976103
0.992892
0.986263
1.02105
1.02125
0.996292
0.995571
1.00814
0.989377
1.00264
0.994157
0.981392
0.950749
1.02697
1.00871
1.01492
1.02188
0.997139
0.963556
1.02766
0.994076
1.02995
0.985431
1.02141
0.993018
0.983372
1.0233
1.00909
1.00067
1.00397
0.986086
0.977426
1.00483
0.990779
1.0186
0.978167
0.993141
0.991876
1.01598
0.995453
0.989614
0.997066
1.02807
0.990471
0.987982
0.98476
1.02287
0.990953
0.997947
0.988675
1.0182
0.962629
1.00155
0.935291
1.00006
0.986424
1.02259
1.00068
0.998702
1.01753
1.00333
0.963377
0.993134
0.999431
0.989786
1.01903
0.999152
0.990969
1.00154
0.991859
0.987008
0.999558
1.00471
0.997848
0.997839
1.02009
1.026
0.989202
1.01936
0.988769
0.984781
1.00208
1.00683
1.0259
1.01943
1.00125
1.01111
0.9926
1.02418
0.991232
0.995048
0.998044
0.989246
1.02236
0.987358
0.996302
0.98951
1.0347
1.00843
0.984932
0.994658
0.99851
0.986533
1.00453
0.991014
1.00014
1.0081
1.03523
1.02383
1.01797
1.01298
1.0012
0.991825
1.00039
0.989191
0.990343
0.978428
0.985606
0.984963
0.955523
1.0012
0.995193
1.00092
1.0026
0.989864
0.990026
0.996733
1.0049
0.984466
0.98258
0.994061
1.00443
1.00328
0.985086
0.989946
0.98591
1.02092
1.01004
0.991117
0.983551
0.984507
1.02048
1.00631
0.969625
0.997153
1.03425
0.980136
0.961326
0.992367
1.00581
0.984728
0.999995
0.9894
0.99215
1.00106
0.998534
1.00919
0.985752
1.01924
0.998579
1.00759
0.991887
1.02738
0.986828
0.953627
1.00152
0.999026
1.00938
0.996454
1.01154
0.976632
1.02702
0.982907
1.03022
1.02052
0.992517
0.988934
1.01415
1.01432
0.964105
1.00042
1.00145
1.00017
0.984529
0.99666
0.999055
1.00966
1.00114
1.00355
1.03463
0.991913
0.983405
1.00021
1.02681
1.02603
1.03463
0.978592
0.968539
1.02228
1.01995
1.00143
1.02202
0.986741
1.01986
1.03129
1.0322
0.947754
0.958834
0.99228
1.01592
0.95583
0.990124
0.995563
1.01099
1.03112
0.975889
1.00562
1.02736
1.00158
0.955673
1.00441
0.982303
1.0222
1.01041
1.0005
0.954654
0.959375
1.03115
1.00941