/*--------------------------------*- C++ -*----------------------------------*\
  =========                 |
  \\      /  F ield         | OpenFOAM: The Open Source CFD Toolbox
   \\    /   O peration     | Website:  https://openfoam.org
    \\  /    A nd           | Version:  12
     \\/     M anipulation  |
\*---------------------------------------------------------------------------*/
FoamFile
{
    format      ascii;
    class       volScalarField;
    location    "2.1";
    object      p;
}
// * * * * * * * * * * * * * * * * * * * * * * * * * * * * * * * * * * * * * //

dimensions      [1 -1 -2 0 0 0 0];

internalField   nonuniform List<scalar> 
46253
(
0.908875
1
1
1
1
1
0.854108
1.02993
1
1
0.910288
0.79448
1
1
1
1
1
1
1
1
1
1
1
0.883383
0.859796
1
1
1
1
1.03028
1.09764
1
1
1
1
1
1
1
1.08014
1
0.851665
0.795364
1
1
0.754763
1
1
1
1
1
1
1
1
1.03358
1
0.85134
1
1
1.23765
0.844048
1
1.07041
1
1
1
1
1
1
0.85465
0.755006
0.85293
1
1
1.10169
1
0.88227
0.993276
0.988037
1
1
1
0.999957
1
0.999971
0.858847
1
1.27356
1.27535
1.01613
1
1
0.849421
1
1
1
1
1
1
1.23512
1
1
1
1
1.09429
0.999999
0.852226
0.79792
1.22699
1.22505
0.813629
1.08598
1
1.00001
1
1
1.03102
0.75938
0.847995
1.44887
0.86097
1
1
1.00012
1.00032
1
1.45284
1
0.831422
0.999644
1.14714
1.20007
1.1982
1
0.858459
1.14299
1
1.27274
1.26195
0.857277
1
1.00037
1.18526
1.18361
1.08185
0.999454
1.00003
1.27717
1.27543
1.07865
1
0.811992
1
1.14324
1.19508
1.03953
0.753828
0.830308
1
1.2569
1
1.25575
0.795589
0.847224
1
0.85917
1.27779
0.857912
1.28503
1.70408
1
1.24508
1.24353
1
0.854703
1
0.74242
1.10544
1
1.07499
0.762052
1
1.03592
1.23335
1.23178
1
1.2642
1.26019
0.75413
1
1
1
1
1.06071
1
1
1
1.08666
1
1.10156
1.10023
1
1
1.25192
1.25099
1
0.755374
1.03121
1.21537
1.21423
1
1
1.45009
0.85109
1
1.1828
1
1.07753
0.849888
1.20514
1
1
1.20399
0.740155
1.23785
1.23664
0.845764
1
1
1.0791
1.07679
1.17252
1
1
1
1
1
1
1
1.16831
1.19486
1
1
1
1
1
1
1
1.02938
1
1.18938
1.18831
1.19075
1.0568
1
1.05493
1.22142
1.21963
0.870877
0.846436
1
0.863556
0.850123
0.812048
1.08571
1.10414
1
1
1
1.20992
1.17381
1.20849
1
1
1
1.1726
1
1.00001
1
1.03831
0.887497
1.03442
1.03336
1
1
1
1.03369
0.894538
0.864617
1.06731
1
1.22671
1.22427
0.848485
1
1.21643
1.13407
1
1.1313
0.846769
1.16515
1.43464
1.16338
0.839212
1.42497
1
1.19462
1.19285
1
1.08559
1
1
1.03873
1
1.15446
1
1.15303
0.851452
1.21349
1
1.04199
0.83303
1
0.858727
0.861547
1.05909
1.06208
1
1
1.14486
1.14353
0.998799
0.997175
1
1
1
1.08139
0.869735
1.17922
1.17739
1
1
1
1
1.45271
1
1.13516
1.13362
1
0.859754
1
1.09083
1
0.756008
1
0.797037
1
1.16927
1
1.16835
1
0.796728
1
1
1
1
1
1
1
1.12529
1
1
1
1
1.12421
1
1.20583
0.855314
1
1
1
0.846667
1.07211
0.83314
1.15883
1.03277
1.1578
1
1
1.11556
1.50225
1
1.07063
1.11441
1.0928
1
1.02102
1.01477
1.0165
1
1.01246
1
0.95675
0.955008
1.20233
1
0.999988
1
1
1
1
1
1
1.3922
1
1.02074
1
1.05023
1
1
0.869902
1
1
1.10636
1
1.14924
1
1
1.10471
1.14806
1
1.06516
1
1
1
1
0.977831
1.03777
1
1
1.02976
0.834996
1
0.9197
1
0.980147
1.04492
1
1
0.862796
1
0.889549
1.01684
1
1.05184
1
1.02219
1.05377
0.999997
1.13958
0.977894
1
0.977068
0.978158
1.13841
1
0.974103
1
1
1
1
1
1.06039
1
1.04685
0.836564
1.09155
0.882806
1.02502
1.09051
1.0983
0.933144
0.930172
1
1
1
1
0.999124
1
0.893431
0.845942
0.775878
0.895963
0.97856
0.853263
0.977682
1
1
1.12928
1.00526
0.813378
1.12818
1.08391
1.0829
0.922086
0.84873
1
0.920229
1.09082
1
1
1
0.846489
1
1.03558
1.06844
1
1
0.991487
1
1
1.07206
0.727836
1.01122
1
1
1.01244
1
1.01333
1.11254
1.01465
1
1.12681
1.12518
1
0.975876
1.10002
1
1
1.12065
1
0.867382
0.875525
1
1
1.11933
1
1
1
1
0.770748
1
1
1.07003
0.885271
1.06961
0.842986
1
1
1
1
1
1
1
0.977165
0.780306
1
1
1
1
1
1
0.864351
1.07505
1
1.05801
1
1
0.836799
1
1
1
1.11106
1
1
1.10983
1.05378
1.11983
1
1.12336
1.12443
1.12881
1.04454
1
1.06163
1.05993
1.07012
1.04046
1
1
1.11002
1
1.43217
1.08832
1
1.42989
1.00015
1
1.08402
1.0926
1
1
1.03721
0.982265
1
1
1.0021
1
1
0.999993
0.999999
0.990943
0.996072
1.25297
1.26166
0.748623
0.984092
1.22784
1.08289
1.22972
1.21576
1
0.864282
0.888225
1.21778
1
1.20555
1
1.20752
1
0.990064
1.19498
1
1.19704
1.32995
1
1.18407
1
1.18601
1
0.77182
1
0.887776
0.887359
1
1
1.17255
1.1745
1
1.00611
1.16149
1.16326
1.00335
1
1
1.14592
1.04828
1.14717
1
1.09699
1.13596
0.843429
1.13736
1.04766
1.09508
1
1
1
1.12628
1.12752
1.05047
1
1
1.11575
0.906413
1.11794
0.836125
1
1.10138
1.10377
1
1
1
1.06221
1
1.10197
1.01306
1.1011
1
1.08669
1
1.08884
1
1
1.10131
1.10315
1.07713
1.07851
0.97295
1.11032
1.06824
1.1127
1.06992
1
1.01828
1.05435
1.05628
1
0.869651
1.04681
1.04787
1.6003
1
1
1
1.0388
0.978778
1.03919
0.738622
1.04824
0.972639
0.815693
1.02926
1.03017
1.01283
1.02444
1.02516
0.858925
0.857315
1
1.08382
1.46214
1.03895
1
0.820151
1.03726
0.850964
1.04494
0.870372
1
1
1
1.08751
1
1
1
1
1
1.08688
1
1
1
0.872712
0.875258
1
1.00975
0.7468
0.901901
1
1
1
1
1
1.08052
1
0.979234
1
1.11522
1.06399
1.11835
0.852944
1
1.08249
0.848
1.12816
1
1
1
1
1
1.12214
1.12014
1.07139
0.870014
0.871853
1
0.885855
1
1
1.12389
1.01236
0.999999
1.0876
1.0001
1
1.01551
1.02265
1
1.12729
0.835315
0.971984
1
0.976364
1.02918
1
1
0.974734
0.989927
1
1.02776
0.739405
1
1
1.15602
1.15782
0.982803
1
0.738578
0.743999
0.84645
1.05009
1
1.01018
1.02381
0.839254
1.32081
1
1
1
1.11124
1.11202
1
1.00007
1
1.07408
1.09685
1
1.00004
1.09765
1.07295
0.977084
0.973823
1
0.976393
1.01285
0.817554
0.979118
0.840575
1.06346
1
1
1.06423
1
1
0.988133
0.981999
1
1.01712
0.877335
1.0057
0.861599
0.867205
1.01647
0.861261
0.860454
0.837401
0.835199
1
1
1.03973
1
1
0.978385
0.885972
0.876472
1
1
1.01595
1
1.01253
1.01453
0.999634
1.06256
1.05512
1
1
1
1
0.985936
1.11057
1.03911
0.744663
1
1.06642
1
0.996664
0.997241
1.06537
1
0.988102
0.98255
0.986543
1
1
1
1
0.982628
1.01223
1
0.998742
1
0.859178
1
0.861938
0.899798
0.856081
1
1.01179
1.01057
0.851771
1.38033
1
0.873666
1.09838
1.09478
0.871137
1
1
0.973505
0.733473
1
1
1.10464
0.76792
1.04165
0.972929
1
1
1
1
1
1
1.50657
1
0.902466
0.854533
0.850329
1.04647
0.741349
0.731325
0.752519
0.866985
1.05353
0.900433
0.733798
1.18958
1.20038
1.211
1.17842
1.19149
1
1.06042
1.20244
1.22182
1.1804
0.974692
1.21298
1.14462
1.16713
1.22416
1
1.22865
1.16896
1.22843
1
1.15034
1.23215
1.16328
1.11983
1.15209
1.00037
1.25927
1.14078
1.0001
1
1
1.14265
1
1.13125
1
1
1
1.00158
1.13281
1
1
1
1.12159
1.13018
1
1
1
1.123
1.00084
0.760583
1.1074
1
0.948304
1.10832
1.0932
1.09397
0.852496
1.08246
1.08328
1.07307
1
0.884505
1.07379
1
1.06007
0.862287
1
1
1.06065
0.893317
0.763736
1.0507
1.05109
1.0418
1.05203
1.0429
0.733881
1.03366
1
1.00967
1.05075
1.03554
1.00403
0.98292
0.977294
1.02779
1.00078
1.00295
0.855968
1.02686
1.01625
1.01933
0.903135
0.773722
0.735398
1
0.776241
1
0.766695
0.777029
0.75264
1
1.44824
1.04414
1
1.0013
0.998028
1.06885
1.07638
1
1.0345
1.13047
1.13947
1.04384
1.04195
1.12487
1.13226
1.12752
1.11904
1.06582
0.857227
1.01173
0.974818
1
0.956085
0.878922
0.848425
0.98993
1
1.18245
1.12016
0.790071
1
0.990047
0.849439
0.964441
0.989591
1
0.999553
1
0.912151
0.988571
1.03662
1.1209
1.00202
1.00795
0.803642
1.04497
0.968661
1.04378
1.00789
0.846226
0.790904
0.870995
0.783565
0.950762
1.13597
1.01213
1
1.1352
1.21838
0.914883
0.980008
1
1
1
1.00178
1.00006
1
1
0.746283
0.986609
0.837685
1
0.856615
1
0.998815
0.927753
1
1
0.727437
0.843876
1.25284
0.845522
1.11227
1.11266
1.00001
1.14186
1.07817
1
0.988552
1
0.996551
0.98321
1.00053
0.88794
1
1
0.954415
0.99752
0.997979
0.981352
1.10111
1.10221
1
0.982699
0.998116
0.973457
0.973952
0.836721
1.00341
1
0.931518
0.836333
0.992591
0.812575
0.994292
1.12117
1
1
1
0.885011
0.984429
1
0.98026
0.983697
1.04886
1.04384
0.868443
0.979601
0.727678
0.856923
1.17531
1
1
0.932043
1.19368
1
1
1
0.9764
1
0.978995
0.769432
1.08401
0.992117
1
1
0.992498
1
1.28834
0.987767
1.26794
1.28752
1
0.799151
1.2685
0.984951
0.996914
1.17031
1
0.855673
1.24896
1.21199
0.936277
1
1.16088
1.25245
1.225
0.999999
1.00524
0.734928
1
1
0.869947
1.22865
1
1.18858
0.993818
1
1
0.848577
1.20378
0.975194
1.05568
1.2302
1.03141
0.827553
1.00003
1.20715
1.2062
1.03978
0.973839
1
1.01243
1.03171
1.01616
1.1229
1
1.18572
1
1
1
1.18488
1
1
0.903454
1.08654
1
0.91197
1.18904
1.11248
0.979686
1
1.08372
1
1.10674
1
1
1
1
1
1.09323
1
1
1
1
1
1
1.08817
0.743024
1
0.983965
1
1
1
1.15172
0.887262
0.77303
1
0.78318
0.990986
1
1
1
1.01665
1
1.12693
1
1.22429
0.863831
0.804878
1
1
1
1
1
1
1.24386
1.24101
1.00716
1.22101
1
1
1
1
0.865332
1.00095
1
1.00048
1.11431
1
1.16077
1
0.965043
0.9661
0.877317
1.16828
0.865108
0.957669
1
1.15118
0.974582
0.982699
1.11734
1.12432
0.8133
1.12577
1.11777
0.995818
1.12342
1.12466
0.968162
1.1581
1.15736
1.08893
1.12544
1.12119
1.15161
1.15848
1.12105
0.967772
1.12631
1
0.985666
1.12511
1.1527
1.16302
0.867036
1.11008
1.12475
1.13928
1.0225
1.14556
0.812388
1.14679
0.888699
1
0.966654
0.837511
1.01979
1.09565
1.14033
1.12832
1.0362
1
1.04418
1.20336
1
1
0.748332
1
1
1.05636
0.836423
1
1.12933
1.12338
1.13072
1
0.858015
0.990486
1.12549
1.12408
0.745965
1.12453
1.0452
0.978603
1.17147
0.857867
1.18372
1.11575
1.15358
1.11677
1.10651
1
0.846644
1
1.09962
1
0.749896
1.15627
1.10759
1.12661
1.03808
1.12941
1.07849
1.08784
1.11657
1.05182
0.880389
1.17926
1
1.09801
1.0992
1
0.999995
1
1
1
1
1
0.901572
1
0.96054
0.74627
0.856882
1.19695
0.744721
0.855633
1.08871
0.834634
1
0.746708
0.960304
0.86167
1
1.07912
0.990921
1
1
1.24072
0.75046
0.873207
0.867844
1.00328
1
1
0.735443
0.980071
0.974577
1.16736
0.737241
1
1
1
1.12479
1
1.17502
1.0949
1.05158
0.744239
1.17583
1.18883
1
1.08225
1.19424
1.13545
0.968199
1
1.23287
1
1
0.990463
1.17577
1.05141
1.21546
0.749043
1.22623
1.23821
1.16337
1
1
1.11225
1.02343
1
1.01425
1
0.775201
1
1
1.14986
0.749513
1
1.15848
1.08393
1.16076
1
1
1.01458
1.17915
0.75738
0.861894
0.771779
0.982527
0.952459
0.965385
0.757842
1.00927
0.955222
0.985283
1
1.15215
0.754602
0.762615
0.974741
1.15457
1.04985
0.8948
1
1
0.985437
0.987117
0.856099
1
1.12764
0.886553
1.13674
1.1255
1.13883
0.967937
1.11997
1.16774
0.739873
1.16925
0.736743
0.962082
1.12808
0.971419
1.1778
0.738828
0.891298
1.11867
1
0.903872
1.06724
0.844572
1.25091
0.875764
1.10395
1.03647
1.25092
0.765326
1.11456
0.993935
1
1.03332
1.11645
1.17235
1.19895
1
0.996435
1
1.03626
0.88643
1.01227
0.810537
0.768545
1
0.766265
0.803113
1.10557
1
0.750649
1.05415
1.00085
1.13618
1.0606
0.750521
0.891999
0.976734
0.980769
1.13718
0.778511
1.08304
1.09186
1
1.09326
1
0.974742
1.23545
1.08455
0.845958
1.21015
1.06697
1
0.763574
1.11321
1.01693
1
0.844152
1.11397
1.14966
1.37422
1.07079
1
1.0618
1.26544
1.07048
1
1.10352
1.0731
1
1.14674
1.10451
1.03956
1.34031
1.09352
1.06253
0.917048
1
1
1.09539
0.779825
1
0.786531
0.992832
1.15125
1.15732
0.792927
1.06121
0.848218
1
0.804273
1.29351
1
1
1.17281
1.28942
0.791996
0.949731
1.04752
0.793993
0.793875
0.977666
0.910879
1.04971
1.04255
0.967682
1.21061
0.992498
1.04266
1.11266
0.94897
1.05519
1.06345
1.04765
1.03371
0.785381
1
0.972878
1.29987
1.03244
1.1794
1.29367
0.853931
1
1.03576
1.00866
1.0491
0.875467
1
1
0.988556
0.987661
0.874672
1.10018
1
1
1.10221
0.961231
1.00621
1
1
1.07755
1.01897
1.01956
1.24286
1.08813
0.8094
1.06879
1.01086
1
0.807389
1.0039
0.836145
0.800481
1.00929
1.12191
1.36794
1.17098
0.978677
1.06289
0.937814
1.06165
1.17424
0.866412
1.03005
1.04289
1
1.12776
1
1
0.936482
0.92118
0.94683
0.926129
1.24207
1.01887
1
1
0.940802
1.14507
0.822492
0.839142
0.981944
0.820361
1.08872
0.995117
1.14615
0.828847
0.781379
0.980804
1.31873
0.851578
1
0.982912
1.00674
0.826016
1.29741
0.993442
0.976857
1
1
0.977999
0.972651
1.27162
1
1
0.970483
1
1.12325
0.836633
0.834506
0.881973
0.982244
1.12448
0.956239
1
0.831219
0.889164
1
0.839249
0.747588
0.958795
0.982915
1.08803
1
1
1.00624
0.956178
1.08998
0.834861
0.838103
1.29723
0.879546
1
1
1.10085
1
1
0.862699
0.971265
1.0372
1.10187
1
0.739186
0.837297
0.898035
0.99312
0.898438
1.20281
0.965688
1
1
1
0.867354
0.950786
1.01417
0.897425
1
1
0.751805
0.895352
0.854301
0.833487
1.07922
1.06865
0.882318
1
1.15395
1
1.08054
1
0.999938
1
0.856882
1
1.07428
1
1
1
1
1
1
1
0.997125
1
0.999959
1.15625
1
1.02582
1.03003
1
1.00598
1.04431
1.14247
1
1
0.941738
0.841303
0.903892
0.998869
1.15888
1.15511
0.999892
1.03121
0.975026
1
1
1
1
1.01314
1.06055
1.14886
0.991476
1.01665
0.903389
1.0608
0.941152
0.9037
0.98592
1.12659
0.808478
1.14367
0.984323
1.15016
0.985928
1
0.999996
0.809485
1.11508
1
1
0.995824
0.823647
0.920805
0.989895
0.824922
1.13307
1
0.882165
1
1.02076
0.814733
0.831457
1.088
0.867758
0.918799
0.974155
1.12733
1.00262
1.13415
1.06197
1
1.08645
1.00621
0.871909
1.10977
1.24037
1.01471
1
1
1.06604
1.11909
1.03888
1.09039
1.29383
1.01219
0.830926
0.979537
1
1.03673
0.987463
1
1.12049
0.959311
0.831078
1.11103
1.06005
1.01714
1.03131
1.10101
1.02925
0.997102
1
1.00512
0.999588
1.10179
1.02374
1
1.00642
1.04563
1.10934
1.01909
1.09131
1.11467
0.985855
1
0.888515
1
0.989058
0.785766
1
1
1.28927
0.808982
1.16668
0.795419
1
1
1.17934
0.992806
1.01785
0.778926
1
0.922742
1
0.978996
1.26537
0.789962
1.09641
0.832389
0.974224
1
1.19757
1.03901
1.0301
0.906471
0.981113
1.01139
1.04084
0.971582
1
1.09241
0.991338
1.24642
1
1.17658
1.18288
1
1.02272
0.838539
0.990143
1.0811
1.08642
0.741729
1.01017
1.01063
1.15577
1
1.16403
1.00783
1.10339
1.40995
1.11003
1
1
1
0.98178
1.14948
1.16741
1.12624
1.15644
1.02799
1
1
1.30011
1.14642
1.13131
0.893852
1
1.06363
1
1.08203
1.123
1.07844
1.14253
1.27834
1.05937
1.02986
0.983119
1.14275
1.1324
1.01398
1
0.905478
0.736787
1.0371
1
1.10867
0.954484
1
1
1.01521
1
1
0.970311
0.863217
1.07861
1.11918
1.15167
1.00001
1.09312
1
1.01281
1.00005
0.907497
0.940289
0.905597
1.12049
0.844586
0.778425
1.11092
0.868188
1.00003
0.840657
0.920736
1.11981
0.845355
1.08734
1.00008
1.09732
0.999739
0.789497
1.09636
1
1
1.04989
1
1.06805
1
1.09229
1.09798
1.08909
1.06506
1.04752
1.14991
0.85754
1
1.17863
0.971889
0.968941
1.01791
1.15133
1.18513
1.00259
1.06488
1
1.07569
1.07587
0.996055
1.02843
1.10575
0.93559
0.874008
1.14904
0.859067
0.990397
1.10312
1.07708
1.00024
0.939312
1.06678
0.972723
1
1.15124
1.01879
0.994021
0.935756
1.02458
0.991784
1.00977
0.935011
0.845024
1.05608
1.03263
0.874846
1
1.11171
1.07059
0.93637
1.08833
0.950608
1.14187
1
1.05424
1.0444
1
1
1
1
1.1442
1.19101
1.03897
1.03781
0.930317
1
1.05756
0.993043
1.0996
1.06415
1.04512
1.05103
1.05155
1.08422
0.918834
1
1
0.968825
1.14094
1
1
0.982083
1.11535
1.04024
1.13721
1.07105
1.10511
1
1.07621
1.08463
1.07713
1.12193
1.13473
1.07285
1
1.02661
0.903559
1
1.13789
0.962843
1.12599
0.986885
1.12962
1.02878
0.905098
0.742138
1.21477
0.746309
1.14871
1.13745
1
1.07871
1.10427
1.14356
1.04731
1
1
1.07603
1.01627
0.900539
0.792563
1.00704
1
1.12799
0.973989
1.16337
0.84792
1.01403
1.15697
1.15949
1.14266
0.796429
1.12888
1.15264
0.842949
1.00223
0.99321
0.849132
1.22688
0.997305
0.836312
0.995154
1
0.975694
1.03711
1.05391
0.91428
0.979394
1.17279
1.32238
0.895658
1.05757
1.01005
1.05976
0.876398
1.04826
0.862355
1.16915
0.980548
0.961099
1.04048
0.949948
1.05665
1.06521
1.08935
1.04525
1.16662
0.960922
1.0449
0.952145
0.854715
0.886233
1.0704
0.888443
1.24001
1
1.06199
1
0.905136
1.24094
1
1
0.901569
1.18452
1
0.98981
1.06517
1.29824
0.973256
1
0.794699
1
0.955556
0.885518
1.21792
0.876428
1.05489
1.22048
1.05445
1.01724
1.01809
1
0.845884
1
1.20614
1.07918
1.0787
0.984773
0.917827
1.17251
1.21034
1.1737
1
0.932784
0.78945
1.1951
1
1.19167
1.11092
0.977702
1.19634
0.996027
1.01473
1
0.938309
1
0.889543
1.29379
0.956518
0.798667
1
1.18293
0.875457
0.963432
0.781157
1.00237
1.18606
1.0111
1.09688
1
1.0429
1.04419
1.00022
1.18837
1
1.17337
0.997914
1.00682
1.18414
1
0.999281
1.17534
1.02251
0.886065
1.19736
1
1
1.19208
1.1633
1.20475
0.835491
1.20039
1.16527
1
0.92604
1.0341
1.1319
1.15307
0.986487
0.889003
0.88485
1.22672
1.15493
1.18251
1.01835
1
1
1
0.88119
1.14651
1
1.01579
0.854294
1.20848
1.06952
1.01713
1.02348
0.914132
1.14802
0.980011
1.01383
1.04775
0.738737
1.02903
1.11622
1
1.13389
1.13077
0.967399
1.12031
1.12021
1.11616
1.21386
1.02504
1.23189
1.22732
1
0.908906
0.770898
1.13594
1
1
1.03613
1
1.22279
0.883326
1.13672
1.00357
1
1.04447
1.02327
1.03382
1.13449
1.05051
1.14237
1.12661
0.968334
0.990457
1.21834
1
0.927625
0.993596
1.04756
1.13588
1.12905
1
0.950184
0.811035
1.01331
1.23666
1.07451
1.01822
1.24104
1.01434
1
1.008
1.05933
0.908045
1.52373
1.0708
1.31235
1.11923
1.01462
0.796037
1.17643
1
1
0.996683
1.05637
1.12014
0.982111
0.975816
1.06974
1.01952
1.12366
0.978868
1
0.734219
1
0.79082
1.06755
1.1091
1.11062
0.906212
1
1
1.24614
1.25244
1
1
1.08265
0.903275
1.09983
1.2558
1.08018
1.05974
1.09578
1.09238
1.11623
0.880174
1
1.0618
1.09745
0.924916
0.884677
0.818419
1.08981
1.01427
1
1.12941
1
1
1.32391
0.893704
0.966403
1.23217
1.08568
1.30048
0.896443
1
1
1.08911
1.33205
0.964127
0.832156
1.10378
1
1.23599
1.07531
1.10156
1
1
1
1
1.11572
1
0.986546
1.07471
0.931094
1.06723
1.07757
1
1.11267
1
1
1
1.12251
1.0639
1.0651
1
1.09339
1.11902
0.914466
1
1
0.897679
0.985246
1
0.888243
1.12744
1
1
1
1
1
1.04996
1
0.944319
1.12544
1
1.152
1.00881
1
1.05248
0.780736
1
0.873407
1.10745
1
1
1.14902
1.16846
1
1
1
0.897219
0.889822
0.943953
1.14209
0.842803
1.14899
1
1
0.876417
1.14759
1
0.888738
1.14269
1
0.959663
1
1.05912
1
0.952776
1
0.840531
1
1
0.923882
0.780446
1.14574
1
1
1.05698
1
0.971535
0.888338
1.06231
0.793241
1
0.762986
1
0.85729
0.896075
0.971455
0.964631
0.999995
1.02738
1.05681
0.965445
0.973503
0.924217
1
1.00154
0.962517
1
1
0.865257
0.899364
1.07852
0.767279
1.06381
0.999518
0.999987
1
1.06102
1.30183
0.898897
1.07132
1.15358
0.947891
0.981813
0.898686
0.884434
1.17301
1.00013
0.941237
1.06907
0.977871
1.02776
1.01188
0.847982
1.02897
1.14662
0.891269
0.854054
1
1.10415
1
1
0.803535
1.07942
1.15633
1.04852
1
1
1.02763
1.0677
1
1.1393
1
1.08165
1.10645
1
0.712941
1
1.07715
1
0.999188
0.838576
1
1.14872
0.856535
1.07937
1
0.788625
1
0.733467
0.988989
1.00022
1.0854
0.98443
0.764988
1.0881
1.08159
0.877968
1.20097
1.13113
1.1405
1.00368
1.08313
1.08593
0.778842
1.08314
1.11544
0.886162
1
1.15741
1
1.297
0.898935
1.09356
1.09466
0.763473
1.00372
1.03525
1
1.02403
1.10628
0.989065
0.965155
0.908018
1.13281
1.00709
0.909825
1
1.0633
1.09264
1
1
1
1.09166
0.910955
1.07885
1.06358
0.99998
1
1.1015
1.12588
1.05314
1.10088
1.04789
1
1.29892
0.778666
1.09968
1.24505
1.04798
1.04946
1
1
0.910479
1.09772
0.9473
1.12221
1.22355
0.992909
0.9914
0.993695
1.358
1.25197
0.990032
0.877765
1
1.04253
1.10761
1.02932
1
1.11177
1
1.19834
1.056
0.908214
1.2174
1.21362
1.0063
0.92505
1.03689
1.0637
1.17856
1
1.01622
0.972637
0.920635
1.05765
1.11019
1
1.22786
1.10567
1.19929
0.973315
0.962931
1
1.24122
1.06151
1.33019
1
1.167
0.880441
1.0484
1.20021
0.919057
1.21578
1.19014
1.05367
1.18156
1.22084
0.997214
1.11519
1.14244
1
1.0064
1.07228
1.20187
1.17795
1.1536
0.893434
1.26452
1.12122
1.24514
1.01496
1.02675
1.12258
1
1.11339
1.19261
1.07003
1.1682
1
1.11975
0.886039
1
1.33909
1.17996
1.15823
1.08001
1
1.26803
0.939426
1
1.17041
1.12876
1.15004
1
1
1.07763
1.16027
1
1.12676
1
1.13934
1.12037
0.886936
1
1.15067
1
1.1322
0.801656
1
1.03836
1.1356
1.14248
1.12187
1
1
1
1.09126
1.13348
0.936129
1.13395
1.03625
1.11328
1.13304
0.887156
1.02839
1.16175
1
1
1.05678
1.01027
1.029
1
1.08912
1.16495
1
1.12339
0.936441
0.936066
0.939309
1.14262
1.00001
1.0998
1.13111
1.10744
0.929171
1.11607
1.04222
1.03982
0.917196
1.01443
1.09977
1
1.33046
1.14039
0.891054
1.09222
1.23794
0.855452
1.01322
0.884542
0.847287
1
1.10135
1.14234
1.05488
1.09776
1.14161
1
0.908929
1.07943
1.06877
1.15215
1.09378
1
1
1.14006
1.06747
1.05185
1
0.853325
1
1
0.932782
1.14966
1
1.08006
1.20834
1.08456
1
0.910468
1.07473
1.14804
1.05687
1
1.07038
1.14215
0.968287
0.801447
1.19476
0.963501
1.1118
1
1.15802
1.06796
0.835289
1
1
1.04572
0.867342
1.06088
1
1.10937
1.14591
1.15561
1
0.992303
1.06575
1
0.896379
1.04734
1.03155
0.892583
1.13962
1
0.881558
1
1.15807
1.02208
1
1
1.07162
1.05594
1.0856
1.04957
0.789917
1
1
0.93669
0.854977
1.12494
1.08112
0.999176
0.914997
1.15516
0.770523
1.17103
1
1.12233
1
1.16755
1
1
1.14459
1
1.16461
0.978631
1
0.721846
1.13446
1.11607
0.885786
1.0001
1.02315
1
1.00143
1.14582
1
1.16229
1
0.999995
1.04663
1.13203
0.964408
1.11493
1
0.936311
1.01422
1.40906
1.19374
0.77716
1
0.961492
0.779264
1.19117
0.962981
1
1
0.899453
1.00296
1
0.746499
0.984274
1.14266
0.990097
1.17295
0.791779
1.18027
0.961933
0.99943
1.07067
1.01401
1.01416
0.980376
1.13967
1.07144
0.945954
0.926799
1.00012
1
1.17146
0.993234
1
1
0.891643
1
0.999741
1.06234
1.03746
1
1.15231
1.03076
1.06223
0.933227
0.881305
1
1.18038
1.06014
1.28966
0.77185
1.1497
1.06348
1.07138
0.972467
1.07137
0.797384
0.794492
0.794535
0.979447
0.793477
1.18019
1.16715
1
1.01047
1
0.805922
0.878472
1.24157
1.2279
1
1.12588
0.841579
0.891596
0.862701
1.15987
1.08828
0.793767
1
1.02975
0.879287
1.20551
1.11903
1.04584
1
1
1
1
1.06825
1.05798
1.15736
0.804759
1.12411
0.871667
1
0.926866
1.23059
1.06775
1.24545
1.04497
1.04083
0.890196
1
1
0.79097
1
1.05865
0.928111
0.819949
1.07864
1.05298
0.959343
1.02093
1
1.04622
1
1
0.938318
1.16937
1.0623
1.20821
0.962352
1.05576
0.958266
1.32178
0.947273
0.81898
1.08762
1
0.875304
1.16709
1.00975
1.05643
1.0708
1.05166
0.775026
1.05694
1
1.02569
1.06806
0.836549
1
1.0785
0.963947
1.02424
0.897289
1
0.752623
0.753452
1.04781
1
0.96507
1
1
1.01623
1
1
1.06943
1.12585
0.862344
0.930046
0.83495
1.07688
1.04784
1.17737
1
1
0.887302
0.897769
1.06001
1.03374
1.08798
1
1.05304
0.796129
1.05294
0.957196
0.889042
0.789828
1
1.12155
1.07062
1.05802
1.17533
1.01515
1
1
1.31113
1.04416
1.18474
1.05034
1.08477
1.08385
1.03182
0.998209
1
1.07391
1.05354
1.18092
1
1.052
0.908359
0.789947
1
1.01238
1.08506
0.860661
0.969926
0.839353
1.0845
1.1641
1
1.12266
1.04767
1
1.04932
1.04213
0.870869
0.792454
1.07175
1.08144
1.07331
0.837472
1.098
1
1.09923
1
0.881931
1
1
1.08657
0.796214
1
1.04339
1.18726
0.975661
1
1.16092
0.961345
1
0.967771
0.834901
1.09507
0.963301
1.09578
0.963218
0.790025
1.18464
1.04493
1.05688
0.832061
0.96793
1
1.09341
0.944194
0.948785
0.981827
0.968257
1
0.798091
1.10032
0.908197
1
1.13014
0.843352
1
1.05918
1.00591
1.10244
1.07415
0.951536
0.908004
0.935458
0.972345
1.07234
1
0.925981
1.13403
1.04251
0.963567
0.863134
1
0.842699
1.0214
1
1.05619
1
0.886096
1.02757
1
1.10041
1.06936
1
1.02529
1
0.944373
0.976317
1.12937
1.11057
1
0.793138
1
1.14614
1.35296
1.03412
1
1.05892
1.18175
1.07452
1.10576
1.02763
0.885928
0.940317
1.02764
1
1.25456
0.865594
1
0.8986
1.11561
0.912759
1.03539
1.22709
0.79069
1.20067
0.973179
1
1.10871
1.18838
1.14354
1.06592
0.961353
1
1.05634
1
0.865666
1
1.2004
1.07589
0.889956
1
1.08272
1.11316
1.18489
1
1.15727
1.34721
1.19979
1.0353
0.853808
1.0547
0.88045
1.06271
1.23559
1
1
0.965577
0.973894
1.14371
0.98739
1.17846
0.967702
0.90065
1.16065
0.912614
1
0.929362
0.902482
1.19056
1
0.878162
0.857413
0.790886
1.06503
1.07479
1
1
0.882665
0.837682
1.14745
1.06761
1.11848
1.01529
1.05097
0.78995
1.20325
0.988873
0.999275
1.23631
0.857258
0.924998
1
0.935369
1.32159
1.07259
1
0.955817
0.967156
0.758948
1.15635
1.10312
1.12176
1.04387
1.01624
0.914889
1.0537
1.07228
0.942029
1.09653
1.09006
0.99236
1.10477
1.08238
1.11192
1
0.945785
1.07558
1.06483
1
0.951632
1.05281
1.05062
1.22795
1.06682
1.12943
0.792225
1.06257
1.04563
1
1.06482
1.11864
1
1.13754
1.07159
0.973672
0.891514
1.0517
1
0.886975
0.969493
1.07347
1.06688
0.983708
1.09473
1.14494
1.04874
1.05022
1
1.26077
0.970183
0.967017
1.06899
0.991223
1.0771
1.15259
1.31748
1
1.02005
1.16554
1.09462
1
1.08695
1.10275
0.956095
1.08062
1
1.0732
1.10914
1.05194
1
1.1527
0.990337
1.10448
1.11646
1.05468
1.12501
0.802753
1.09003
1.16124
1
1
1.21159
1.18131
1.12713
0.934787
1.11108
0.959188
0.899053
1.01113
0.982002
0.992335
0.881431
0.872415
1.07745
1.10508
1.13491
0.928995
0.921371
0.960946
1.13559
0.986453
1.02552
1.10258
1.14347
1
0.971155
1.04074
1.05134
1
1.16951
0.93402
1.06003
0.992847
0.999963
1.14978
0.996524
1.11425
1
1.03385
1.05683
0.928089
0.785893
0.989883
1
0.889722
1.09039
1.11774
1.10905
0.798912
1.03824
1.21944
1.09751
1.15959
0.906271
1.30577
1.03532
0.878115
1.1103
0.870935
1
1.11227
1.1783
1.01043
1.32279
1.02888
1
1
0.900958
1.05204
0.833112
1
0.888394
0.834513
1.11339
1.11042
0.995355
0.930488
1.1042
1.16648
1.10883
1.1221
1
0.929736
1.03069
1.09839
1.27321
1
1
1.01241
0.993006
1
1.2223
1.11209
1
1.03617
1.22213
1
1
1.01153
0.879455
0.904198
0.787348
0.908035
0.930486
1.03822
1.17455
1
1.00991
1.14007
1
0.842303
0.908902
1.12671
1.02354
1
0.805268
0.836746
0.905169
1.0433
0.745745
0.993072
0.99922
1.00115
1.0569
1.0416
0.912071
0.877324
1.10313
1
1.06243
1.04314
1.09915
1.18162
0.912494
0.953462
0.878981
0.911744
1
1.04632
1
1.13009
1.17648
0.744984
0.915658
0.912773
0.957627
1
0.904008
1
0.806606
0.803139
0.980204
0.916426
0.986481
0.914055
1
1.03974
1.35186
1
1.0462
0.916649
0.840027
0.913623
1.22096
1.21388
1
1.1005
0.917328
1.2626
1
0.901799
1
1.19131
0.897954
1.03366
1.04491
1
0.746137
0.966434
0.916532
1.09766
1
1
1
1.02066
1.07595
1.05998
1.0269
1.20627
1.17079
1.21735
1.07608
1.05914
0.777384
0.837713
1.17241
1.18923
1
1
0.886865
0.894591
0.999331
1.00001
0.911166
1
1.00373
1
1.04117
0.996807
0.941006
0.916596
0.868792
0.748658
1.16304
1
1
0.863787
1
0.913339
1.05724
1.06122
1
0.935211
1.02172
1
1
0.911156
1.03803
0.91199
1.04812
1.08278
0.752935
0.974653
1.12657
0.870869
0.930153
1
1.31273
1
1.06836
1.04801
1.01696
1
1.3604
0.848106
1.16004
1.07595
1
1.05514
1.17446
0.978216
1.24858
1.08761
1
0.90448
1
1
1.08463
1.05982
0.896351
1.14638
1
1.06582
0.912647
1
0.883152
1.11695
1
1
1.20742
0.96006
0.746995
1.25437
1
1.09607
0.968741
1.04567
1
1.21192
0.913117
1.17265
1.05969
0.9024
1
1.02601
0.890374
1.11618
1.06331
1
1.10725
1.20201
0.908231
1.06504
1.09729
1.15401
0.974022
0.880666
1.00954
0.859734
1.1684
1.07672
1
1
1.25317
1.3228
1.0737
1
1.02303
1.00675
1.17315
0.92715
1
1.17298
0.909322
1
0.936733
0.876942
1.06483
1
1.12069
1.08512
1
0.84458
1
1.09654
0.965739
1
1.07583
0.886255
1.09274
0.986057
1
1.1108
0.857313
1.04014
0.929255
0.873465
1.00662
1
1.0372
1.11984
1.11353
1.23175
1
0.839859
1
1.08822
1.12995
1.36171
1
0.843663
1
1.10391
1
0.909008
1.09899
1.0026
0.861961
1
1.14422
0.786221
0.98246
0.999709
1.13762
1.20727
1
1.08565
0.942707
1
1
1.00756
1.11764
1.06605
1.04552
1
1.12764
1.11925
0.993559
0.958962
1.01973
1.0281
1
1.10052
1
0.888152
1.22065
1.19723
0.999971
1.29373
0.948213
1.14771
1.03013
1.12658
1.1291
1
1.14883
1.13556
0.911399
0.880148
1.0292
0.84937
1.14984
0.97204
1
1.09804
1.00097
1
1.02694
0.99921
1.1355
1.15579
1.24456
1.10805
0.994741
0.965337
0.990381
0.999954
0.919307
0.912988
0.730671
1.26803
1.20077
1.22388
0.890797
1
0.884548
1
0.759738
1.03636
1.03553
1.0031
1.14497
1.17581
0.990787
0.809317
1.09558
1
1.10591
1.21047
0.981747
1.16508
1
1
1.12886
0.873432
1.03351
1.20922
1
0.886315
1.11742
1.07627
1
0.92475
1.13724
1.13648
1.0822
1.15384
0.902984
1.07619
1
0.858155
0.902546
0.958541
0.779135
1
1.05884
0.92874
1.02919
1
0.941894
1.1737
1.0244
1.11578
0.996841
1.03554
0.914627
0.770199
0.798082
0.999699
1.11878
0.925797
1.12667
1.04643
1.16224
1.34807
1.09235
1
0.938765
1.13908
0.796603
1.16723
1.05362
1.00882
0.992765
0.924429
1.07935
0.895992
0.919991
1.04017
0.833473
1.06333
1.13413
1.17468
0.992085
1.16073
1
1.36575
1
1.07362
1
1
1
1
1.25619
1.12401
1.18241
1.08985
1.18467
1.00603
1.05628
1.04869
1
1
1.03776
1.06132
1.17134
1
0.960621
1.04302
1.06378
1.13452
1
0.971852
1
0.906188
0.963786
1.17616
0.970519
1
1.10969
0.907404
1.16084
0.765475
1
1.18165
1.15673
0.91679
1.00175
1.13282
0.85823
1.16008
0.882115
1.01218
1.17942
0.769132
0.894703
0.906377
0.882331
1.16716
1
1.1461
0.884964
1.04234
1.19814
1
1.1217
1.12358
1.029
1.15537
0.891295
0.888087
1
1.25173
0.885848
0.890264
0.982605
1.14805
1.14047
1.14965
1
1.16194
1
1.14303
1
1.14493
1.02547
0.81983
0.839886
1
1
1
1.14839
1.3439
1.13315
1
1
1.13162
1.0316
1
1.34602
0.889132
1
0.992607
0.940696
0.969434
1.01115
1.01948
1.15628
1.1526
1
1.32162
0.838528
1.10209
1
0.935173
1
0.897252
1.15273
0.887594
0.904236
1.16316
1.04371
1.15486
1
1.01877
0.852318
1.19338
1.04915
1
0.875743
1.14303
1
1.22365
0.991949
0.830112
1.15608
1.25249
0.93506
0.885953
1.23882
0.875924
1
1.15283
1
1.02598
1.10434
1
1
1
1.06059
0.913733
0.810805
1.22616
1.22237
1.16625
0.889852
0.986225
0.911347
1.17387
1
0.880401
0.914155
1.16717
0.804268
1.07109
1.0053
1.14788
1.14269
0.904376
0.993381
0.92156
1.03899
0.998369
1
1.04333
1.09562
0.910125
0.837646
1.16327
0.836433
1
1
1.16595
1.06168
0.852765
0.890727
1.07432
1.15764
1
1.07909
1.09528
0.883871
1.00272
1.01266
1.16963
1
0.874318
1.14233
1.02931
0.892044
0.891788
1.16798
1.1645
1.27828
1
1
1.15092
1
1
1.01401
1
1.14584
1.13213
0.916116
1
0.89273
1
0.912089
0.829053
1
0.919557
0.87122
1.00429
1.31498
0.978227
1.13557
1.0184
1.17708
0.990621
1.17916
1.14102
1
1.19819
0.904052
1.13097
1.08443
1
1.20409
1.21235
0.981076
1.01631
1.08453
0.908147
0.814135
0.915571
1.00527
0.913357
1.02545
1
0.987695
1
0.999191
0.809682
1
1
1
0.853326
1
0.982956
0.891876
0.984875
0.772003
1.23406
0.959409
0.958194
1
1.13712
1.17695
0.884991
1
1.18961
1.12519
1
1
1
1
1.13267
1.01573
1
1
0.963886
1
0.80283
1
1
0.916806
1.03539
0.836581
0.99997
1.18824
1
1
1
0.981535
1.00018
0.762742
1
1.27854
1.25641
0.999978
0.887882
1.20007
1.02166
1.07397
1
1.12985
0.911412
1.09101
1.03455
0.906895
1.18065
1.10154
1
1
1.01586
0.819079
1.0047
1
1.00329
1.14573
1.11847
1
1.34765
1.07327
1
1
1.14637
1.18393
0.978153
1.21833
1
1.24886
1.16554
1.16738
0.916107
1.2529
0.790512
1.07919
1
0.99995
0.893223
1.26597
0.916286
0.910835
0.901537
0.904256
0.988333
0.907175
1.02311
1.06374
1.12303
1.04717
0.80539
0.985245
0.791806
1.08872
1
1.11179
1.15847
1.15308
1
1
0.906317
1.26784
1.24378
0.906783
1.06838
0.903623
1
1
1.09352
0.979286
0.890833
1.12549
1.21562
1
0.981266
1.30022
0.915239
1.15091
0.890495
0.898887
0.89122
1.0789
0.991809
1.14636
1.11649
1.18532
0.961953
0.90631
1.09586
0.893538
0.897518
0.901066
1
1.16456
0.901079
1.05497
1
0.848975
1.19682
1.36196
1.25209
1.08148
1.23197
1.14431
0.780917
0.916707
0.894019
0.908954
1.21886
1.02337
1
1
1.13943
1.19307