/*--------------------------------*- C++ -*----------------------------------*\
  =========                 |
  \\      /  F ield         | OpenFOAM: The Open Source CFD Toolbox
   \\    /   O peration     | Website:  https://openfoam.org
    \\  /    A nd           | Version:  12
     \\/     M anipulation  |
\*---------------------------------------------------------------------------*/
FoamFile
{
    format      ascii;
    class       volScalarField;
    location    "2.1";
    object      T;
}
// * * * * * * * * * * * * * * * * * * * * * * * * * * * * * * * * * * * * * //

dimensions      [0 0 0 1 0 0 0];

internalField   nonuniform List<scalar> 
46253
(
0.973067
1
1
1
1
1
0.955961
1.0099
1
1
0.973454
0.939051
1
1
1
1
1
1
1
1
1
1
1
0.965299
0.957783
1
1
1
1
1.01007
1.02971
1
1
1
1
1
1
1
1.02295
1
0.955185
0.9397
1
1
0.925876
1
1
1
1
1
1
1
1
1.01133
1
0.957798
1
1
1.06655
0.952562
1
1.01895
1
1
1
1
1
1
0.958846
0.925642
0.955582
1
1
1.02927
1
0.964897
0.998111
0.996567
1
1
1
0.999988
1
0.999992
0.957494
1
1.07182
1.07225
1.00761
1
1
0.954469
1
1
1
1
1
1
1.06537
1
1
1
1
1.02933
1
0.955375
0.940323
1.06053
1.06
0.945284
1.02486
1
1
1
1
1.01189
0.927221
0.953836
1.11518
0.960938
1
1
1.00003
1.00009
1
1.11496
1
0.951571
0.999897
1.04019
1.05361
1.05314
1
0.957352
1.0391
1
1.07161
1.06897
0.960057
1
1.0001
1.04997
1.04956
1.02569
0.999845
1.00001
1.07271
1.07229
1.02256
1
0.945277
1
1.03915
1.05233
1.01455
0.92557
0.951196
1
1.06781
1
1.06752
0.939923
0.95707
1
0.95759
1.07283
0.957179
1.07458
1.17033
1
1.06503
1.06464
1
0.956158
1
0.92121
1.02898
1
1.02209
0.927612
1
1.01318
1.0621
1.06171
1
1.06954
1.06858
0.925604
1
1
1
1
1.01702
1
1
1
1.02505
1
1.02806
1.02772
1
1
1.06664
1.06644
1
0.92586
1.01217
1.05746
1.05717
1
1
1.11687
0.955004
1
1.04862
1
1.02493
0.954629
1.05488
1
1
1.05459
0.921028
1.06324
1.06293
0.953302
1
1
1.02214
1.02151
1.0502
1
1
1
1
1
1
1
1.04873
1.05586
1
1
1
1
1
1
1
1.01129
1
1.05098
1.05072
1.0544
1.01609
1
1.01557
1.05905
1.05857
0.964169
0.953482
1
0.959007
0.954634
0.944349
1.02707
1.02935
1
1
1
1.05608
1.04711
1.05571
1
1
1
1.0468
1
1
1
1.01315
0.969536
1.0098
1.0095
1
1
1
1.00968
0.968665
0.962399
1.02183
1
1.06378
1.06266
0.954182
1
1.06119
1.03981
1
1.03957
0.953622
1.04487
1.11378
1.0444
0.953035
1.10806
1
1.05226
1.05183
1
1.02834
1
1
1.01122
1
1.0421
1
1.04174
0.959422
1.06001
1
1.01436
0.950835
1
0.957435
0.958338
1.01719
1.0208
1
1
1.03964
1.03929
0.999699
0.99924
1
1
1
1.02187
0.964093
1.04847
1.048
1
1
1
1
1.11405
1
1.0371
1.03669
1
0.959689
1
1.02616
1
0.926422
1
0.940052
1
1.04594
1
1.0457
1
0.940334
1
1
1
1
1
1
1
1.03442
1
1
1
1
1.03411
1
1.05851
0.960229
1
1
1
0.953584
1.01982
0.951003
1.04323
1.01122
1.04296
1
1
1.03179
1.12809
1
1.02308
1.03149
1.02541
1
1.00733
1.00719
1.00917
1
1.00379
1
0.987478
0.986948
1.05726
1
0.999996
1
1
1
1
1
1
1.10226
1
1.00611
1
1.01369
1
1
0.964216
1
1
1.02933
1
1.04077
1
1
1.02889
1.04047
1
1.0184
1
1
1
1
0.993856
1.01259
1
1
1.01012
0.951148
1
0.976587
1
0.994588
1.01571
1
1
0.962969
1
0.969499
1.005
1
1.01394
1
1.00645
1.01619
0.999999
1.03826
0.993913
1
0.993645
0.993967
1.03795
1
0.992773
1
1
1
1
1
1.01806
1
1.0143
0.952053
1.02555
0.967801
1.01039
1.02529
1.0277
0.980502
0.979606
1
1
1
1
0.999798
1
0.970496
0.953356
0.933388
0.970802
0.994134
0.95549
0.993909
1
1
1.03553
1.00174
0.945144
1.03522
1.02348
1.02319
0.977179
0.954224
1
0.976601
1.02798
1
1
1
0.953461
1
1.01225
1.01843
1
1
0.997897
1
1
1.01971
0.916384
1.00338
1
1
1.00372
1
1.00397
1.0311
1.00435
1
1.03513
1.03397
1
0.993345
1.0278
1
1
1.03315
1
0.960224
0.96589
1
1
1.03279
1
1
1
1
0.930619
1
1
1.01969
0.968977
1.01958
0.952263
1
1
1
1
1
1
1
0.993715
0.934579
1
1
1
1
1
1
0.959256
1.02388
1
1.01934
1
1
0.952788
1
1
1
1.0306
1
1
1.03026
1.01855
1.03358
1
1.03452
1.03476
1.03587
1.01598
1
1.01742
1.01695
1.02406
1.01489
1
1
1.03146
1
1.10968
1.02482
1
1.10932
1.00004
1
1.02747
1.02976
1
1
1.01374
0.99521
1
1
1.00503
1
1
0.999998
1
0.997465
0.998894
1.06681
1.06893
0.924425
0.995601
1.06068
1.02227
1.06116
1.0577
1
0.95923
0.966809
1.05822
1
1.05518
1
1.05568
1
0.997441
1.05255
1
1.05309
1.08833
1
1.04981
1
1.05033
1
0.930801
1
0.969465
0.966564
1
1
1.04691
1.04744
1
1.00194
1.04408
1.04456
1.00398
1
1
1.04004
1.01369
1.04041
1
1.02692
1.03748
0.953596
1.03782
1.0135
1.02644
1
1
1
1.03492
1.03529
1.01732
1
1
1.032
0.973575
1.03258
0.951368
1
1.02818
1.02882
1
1
1
1.01687
1
1.02832
1.00406
1.03097
1
1.02415
1
1.02472
1
1
1.02816
1.0286
1.02159
1.02197
0.992474
1.03049
1.01914
1.03116
1.0196
1
1.00849
1.01541
1.01594
1
0.963694
1.01335
1.01363
1.14743
1
1
1
1.01118
0.994044
1.01128
0.918011
1.01756
0.99243
0.945632
1.00853
1.00879
1.00398
1.00723
1.00743
0.95966
0.959089
1
1.02413
1.11631
1.01108
1
0.948281
1.0106
0.955937
1.01639
0.961173
1
1
1
1.02448
1
1
1
1
1
1.02431
1
1
1
0.964713
0.963408
1
1.0061
0.92387
0.971028
1
1
1
1
1
1.02171
1
0.994329
1
1.03179
1.01779
1.03279
0.956454
1
1.0227
0.954015
1.03539
1
1
1
1
1
1.03405
1.03311
1.0195
0.960973
0.961585
1
0.969332
1
1
1.03434
1.00384
1
1.02515
1.00003
1
1.00847
1.01048
1
1.03544
0.95327
0.992229
1
0.993515
1.00833
1
1
0.99297
0.997439
1
1.00794
0.91873
1
1
1.0427
1.04318
0.995242
1
0.918179
0.919924
0.95352
1.01468
1
1.00312
1.00829
0.954185
1.08666
1
1
1
1.0308
1.03099
1
1.00002
1
1.02078
1.02692
1
1.00001
1.02715
1.02047
0.993712
0.992701
1
0.993485
1.00389
0.947174
0.994237
0.952657
1.01788
1
1
1.01806
1
1
0.996877
0.995078
1
1.00497
0.964179
1.00183
0.962181
0.964141
1.00479
0.958973
0.958848
0.951655
0.951048
1
1
1.01449
1
1
0.99407
0.966499
0.963661
1
1
1.00475
1
1.00378
1.00434
0.999872
1.01812
1.01949
1
1
1
1
0.996177
1.03057
1.01452
0.920057
1
1.01871
1
0.999418
0.999558
1.01843
1
0.996964
0.995324
0.9965
1
1
1
1
0.995365
1.00368
1
1.00298
1
0.95834
1
0.959246
0.970355
0.956594
1
1.00349
1.00314
0.955021
1.10023
1
0.962903
1.02786
1.02693
0.962163
1
1
0.99265
0.916188
1
1
1.029
0.929402
1.01505
0.992515
1
1
1
1
1
1
1.12766
1
0.971199
0.95913
0.955698
1.01637
0.918983
0.915294
0.922828
0.964274
1.01852
0.970565
0.917123
1.05119
1.05389
1.05652
1.0484
1.0517
1
1.0181
1.05443
1.05919
1.04893
0.99298
1.05704
1.03969
1.04552
1.05978
1
1.06087
1.04602
1.06082
1
1.04123
1.0634
1.04434
1.03299
1.04173
1.0001
1.0686
1.03869
1.00003
1
1
1.03918
1
1.03628
1
1
1
1.00053
1.0367
1
1
1
1.03359
1.03611
1
1
1
1.034
1.0003
0.925611
1.0298
1
0.986202
1.03003
1.0259
1.02611
0.959304
1.02304
1.02324
1.02046
1
0.965694
1.02067
1
1.01697
0.958595
1
1
1.01713
0.969725
0.926441
1.0144
1.01451
1.01199
1.01475
1.01229
0.916292
1.00975
1
1.0031
1.01439
1.01028
1.00447
0.999514
0.993789
1.00814
1.00058
1.00121
0.95661
1.00789
1.00494
1.00582
0.971405
0.930028
0.91776
1
0.930908
1
0.9276
0.931175
0.922676
1
1.11382
1.01604
1
1.00046
0.999459
1.02337
1.02537
1
1.01311
1.03577
1.03823
1.01576
1.01526
1.03432
1.03623
1.035
1.0333
1.01944
0.95978
1.00354
0.993009
1
0.987717
0.964456
0.95518
1.00159
1
1.04926
1.03344
0.937516
1
0.997304
0.954443
0.990963
0.997187
1
0.999859
1
0.975321
1.00078
1.0139
1.03327
1.00465
1.00624
0.940222
1.01275
0.992111
1.01242
1.00258
0.953446
0.939349
0.962064
0.932778
0.986866
1.03725
1.00379
1
1.03702
1.05851
0.976063
0.995489
1
1
1
1.00073
1.00002
1
1
0.920555
0.997315
0.951698
1
0.956782
1
0.99993
0.980055
1
1
0.916479
0.953741
1.06707
0.954255
1.03102
1.03106
1
1.03889
1.02202
1
0.996741
1
1.00028
0.995317
1.00024
0.967272
1
1
0.987375
0.999312
0.999779
0.994923
1.02796
1.02826
1
0.995148
0.999835
0.992632
0.992784
0.951382
1.00217
1
0.981118
0.950708
0.998234
0.945561
0.998734
1.03383
1
1
1
0.966235
0.995884
1
0.994518
0.995695
1.01765
1.01623
0.961338
0.994277
0.914069
0.956915
1.04736
1
1
0.981365
1.05205
1
1
1
0.993522
1
0.994289
0.930163
1.02431
0.997846
1
1
0.997952
1
1.07568
0.996702
1.07074
1.0752
1
0.938302
1.07073
0.995996
0.999203
1.04615
1
0.95646
1.06602
1.05671
0.982562
1
1.04371
1.06687
1.06
1
1.00173
0.917401
1
1
0.961788
1.06085
1
1.05087
1.00176
1
1
0.9542
1.05466
0.992938
1.01935
1.0613
1.00895
0.948366
1.00001
1.05563
1.05524
1.01485
0.992538
1
1.00513
1.00903
1.00618
1.03382
1
1.05005
1
1
1
1.04988
1
1
0.972968
1.0246
1
0.975163
1.0509
1.03111
0.994455
1
1.02413
1
1.02953
1
1
1
1
1
1.02634
1
1
1
1
1
1
1.02357
0.919612
1
0.998415
1
1
1
1.04174
0.970708
0.929492
1
0.933017
1.00139
1
1
1
1.00568
1
1.0352
1
1.05998
0.960037
0.940646
1
1
1
1
1
1
1.06484
1.06421
1.00228
1.05914
1
1
1
1
0.960487
1.00028
1
1.00014
1.0316
1
1.04359
1
0.989916
0.990234
0.96409
1.04617
0.960215
0.987754
1
1.04118
0.99269
0.995054
1.03243
1.03455
0.946039
1.03485
1.03254
1.00289
1.0341
1.03436
0.990863
1.04301
1.04274
1.02567
1.03444
1.03344
1.04126
1.04303
1.0337
0.990748
1.0351
1
0.99595
1.03484
1.04154
1.04427
0.960816
1.03036
1.03467
1.03805
1.00647
1.03968
0.942762
1.04
0.970231
1
0.991847
0.951709
1.00571
1.02651
1.03832
1.03571
1.01391
1
1.01604
1.05462
1
1
0.921316
1
1
1.01971
0.950826
1
1.03546
1.03394
1.03583
1
0.958244
0.998342
1.03467
1.03438
0.920008
1.03424
1.01679
0.995397
1.04707
0.957506
1.05302
1.03187
1.04185
1.03218
1.02941
1
0.953858
1
1.02825
1
0.921919
1.04236
1.02969
1.03516
1.01455
1.03584
1.02211
1.02442
1.03233
1.01769
0.96506
1.0484
1
1.02715
1.02746
1
0.999999
1
1
1
1
1
0.971313
1
0.988622
0.920682
0.957887
1.0529
0.920072
0.957492
1.02467
0.950952
1
0.920874
0.988543
0.95845
1
1.02281
0.998475
1
1
1.06408
0.922073
0.96596
0.964361
1.00273
1
1
0.916763
0.997586
0.99298
1.04538
0.917405
1
1
1
1.03427
1
1.04728
1.02638
1.01756
0.919969
1.04749
1.05083
1
1.0236
1.05222
1.03712
0.992319
1
1.06204
1
1
1.00173
1.04749
1.01801
1.05773
0.921658
1.0623
1.0652
1.04436
1
1
1.03098
1.00673
1
1.00417
1
0.930086
1
1
1.0408
0.921566
1
1.04301
1.02282
1.0436
1
1
1.00427
1.04868
0.924271
0.959462
0.930722
0.99502
0.986221
0.990039
0.924706
1.00289
0.987671
0.995874
1
1.04139
0.923514
0.926097
0.992733
1.04222
1.01414
0.96994
1
1
0.995911
0.996354
0.956609
1
1.03511
0.966355
1.03741
1.03455
1.03793
0.990751
1.0331
1.04539
0.918048
1.04578
0.917287
0.989063
1.03522
0.991821
1.04721
0.918065
0.969328
1.03271
1
0.974556
1.02241
0.953963
1.06655
0.963623
1.02875
1.01047
1.06653
0.926967
1.03155
0.9983
1
1.0096
1.03207
1.04661
1.05338
1
0.999074
1
1.0135
0.970236
1.00377
0.945105
0.928136
1
0.927322
0.940097
1.02918
1
0.922033
1.01962
1.0015
1.03726
1.0211
0.921905
0.968373
0.993354
0.995728
1.03751
0.931619
1.02311
1.02551
1
1.02588
1
0.992987
1.06265
1.02351
0.954385
1.05626
1.01995
1
0.92646
1.03118
1.00506
1
0.953108
1.0314
1.04079
1.09619
1.02314
1
1.0174
1.07012
1.01981
1
1.02863
1.02052
1
1.04007
1.02889
1.01462
1.08785
1.02596
1.01762
0.976184
1
1
1.02645
0.931579
1
0.93405
0.998314
1.04122
1.04287
0.936481
1.02077
0.954227
1
0.940508
1.07677
1
1
1.04675
1.07578
0.936027
0.98537
1.01343
0.94013
0.940147
0.994349
0.974352
1.01405
1.01203
0.991599
1.05647
0.999106
1.01206
1.03105
0.985156
1.01655
1.01893
1.01685
1.01302
0.933547
1
0.992874
1.0786
1.00919
1.05155
1.07699
0.956756
1
1.01011
1.00259
1.01665
0.963411
1
1
0.998211
0.997795
0.962579
1.02772
1
1
1.02826
0.990069
1.00189
1
1
1.02102
1.0055
1.00566
1.06459
1.02452
0.94199
1.01991
1.00321
1
0.941441
1.00122
0.950719
0.939117
1.00423
1.03361
1.09696
1.04623
0.99416
1.01763
0.982424
1.01729
1.04708
0.959915
1.00914
1.01537
1
1.03552
1
1
0.982082
0.977491
0.985113
0.978927
1.06441
1.00564
1
1
0.983368
1.03955
0.945886
0.951682
0.994888
0.945314
1.02863
0.999837
1.03983
0.947912
0.932101
0.994542
1.08245
0.956215
1
0.999162
1.00548
0.947005
1.07768
0.998212
0.99362
1
1
0.99399
0.992669
1.07169
1
1
0.992121
1
1.03394
0.950866
0.949881
0.965466
0.994956
1.03428
0.987339
1
0.948698
0.967548
1
0.95221
0.921013
0.988099
0.995324
1.0245
1
1
1.00347
0.987323
1.02919
0.95005
0.951216
1.07819
0.964784
1
1
1.02791
1
1
0.959626
0.992032
1.01401
1.02819
1
0.917921
0.951576
0.970218
0.998138
0.970347
1.05439
0.990098
1
1
1
0.961065
0.985735
1.00563
0.970014
1
1
0.92258
0.969377
0.957059
0.949713
1.02211
1.02019
0.965228
1
1.04186
1
1.02244
1
0.999983
1
0.956862
1
1.02147
1
1
1
1
1
1
1
0.999141
1
0.999988
1.04246
1
1.01118
1.00863
1
1.00226
1.01359
1.03888
1
1
0.983126
0.95498
0.97212
1.00118
1.04312
1.04216
1.00056
1.01265
0.997107
1
1
1
1
1.00398
1.01705
1.04054
0.998892
1.00497
0.972039
1.01713
0.98297
0.974827
0.996593
1.03476
0.941354
1.03919
0.995767
1.04088
0.996278
1
0.999999
0.941632
1.03171
1
1
1.00205
0.946312
0.977351
0.997719
0.946706
1.03645
1
0.965573
1
1.00648
0.943301
0.948846
1.02465
0.96116
0.976798
0.992798
1.03495
1.00096
1.03673
1.01752
1
1.0242
1.00199
0.962392
1.03026
1.06392
1.00482
1
1
1.02237
1.0328
1.01113
1.02513
1.07727
1.00372
0.949478
0.995804
1
1.01054
1.00012
1
1.03319
0.988673
0.949534
1.0306
1.02104
1.00512
1.00949
1.02796
1.00893
0.999199
1
1.00159
0.999939
1.02817
1.00971
1
1.00197
1.01348
1.03027
1.00569
1.02537
1.03169
0.996
1
0.968218
1
0.996921
0.933623
1
1
1.07579
0.941401
1.04518
0.936966
1
1
1.0484
0.999051
1.00536
0.931274
1
0.978661
1
0.994022
1.07016
0.935635
1.03088
0.949204
0.993121
1
1.05305
1.01478
1.00933
0.972756
0.994645
1.00416
1.01218
0.992416
1
1.02569
0.998134
1.06512
1
1.04773
1.04932
1
1.00664
0.951515
0.997846
1.0229
1.02405
0.919174
1.0035
1.0039
1.04232
1
1.04444
1.00285
1.02891
1.10806
1.03089
1
1
1
0.995335
1.04157
1.04532
1.03502
1.04248
1.01096
1
1
1.0789
1.04016
1.03604
0.969977
1
1.01843
1
1.02345
1.03416
1.02191
1.03888
1.07312
1.01728
1.01238
0.996471
1.03893
1.0363
1.00426
1
0.973318
0.917009
1.01112
1
1.03
0.988132
1
1
1.00459
1
1
0.994465
0.95961
1.02252
1.03281
1.04473
1
1.02624
1
1.00426
1.00001
0.973226
0.984056
0.975118
1.03319
0.953229
0.931912
1.0306
0.961236
1.00001
0.954932
0.977321
1.03355
0.953612
1.02428
1.00002
1.02756
0.999921
0.9351
1.02671
1
1
1.01467
1
1.01964
1
1.02622
1.02714
1.02475
1.01884
1.01403
1.04082
0.957485
1
1.04821
0.99279
0.993127
1.00917
1.04127
1.04997
1.00223
1.01827
1
1.02171
1.02125
0.999448
1.00863
1.0298
0.981292
0.962632
1.04054
0.958469
1.00143
1.02911
1.02155
1.00398
0.982875
1.0188
0.996524
1
1.04112
1.00555
0.998373
0.981815
1.00758
0.998289
1.00343
0.981095
0.953571
1.01637
1.00991
0.962617
1
1.03139
1.02033
0.982048
1.02515
0.986292
1.03868
1
1.01531
1.01255
1
1
1
1
1.03928
1.05139
1.01102
1.0107
0.980233
1
1.01624
0.99812
1.02817
1.01914
1.01276
1.01648
1.01514
1.02406
0.976816
1
1
0.991595
1.03913
1
1
0.994944
1.03235
1.01137
1.03749
1.01998
1.0291
1
1.02263
1.02734
1.02283
1.03412
1.03751
1.02047
1
1.00759
0.972086
1
1.03766
0.98991
1.03521
0.997674
1.03614
1.00818
0.972691
0.918782
1.05747
0.92006
1.04113
1.0382
1
1.02329
1.02893
1.03977
1.01674
1
1
1.02263
1.00473
0.971344
0.936919
1.00619
1
1.0351
0.995082
1.04495
0.954274
1.0041
1.04327
1.04389
1.03961
0.938407
1.03531
1.04211
0.952713
1.00075
0.998107
0.954603
1.0605
0.999259
0.950501
0.99865
1
0.993606
1.01225
1.01528
0.975144
0.99416
1.04753
1.08335
0.973094
1.01629
1.00392
1.01688
0.963625
1.01733
0.958674
1.0466
0.994491
0.988779
1.01148
0.985467
1.01685
1.01976
1.02888
1.01472
1.04575
0.988725
1.01416
0.98612
0.957044
0.966173
1.02113
0.966891
1.06347
1
1.01745
1
0.975222
1.06369
1
1
0.972016
1.04981
1
0.997101
1.01934
1.07807
0.992535
1
0.937496
1
0.987055
0.966012
1.05804
0.963109
1.01547
1.05868
1.01534
1.00514
1.00536
1
0.953337
1
1.05512
1.02309
1.02206
0.998985
0.975821
1.04718
1.05614
1.04734
1
0.980367
0.93565
1.05238
1
1.05164
1.03059
0.997643
1.05269
1.00189
1.00794
1
0.981951
1
0.967311
1.07696
0.987401
0.938749
1
1.04931
0.963045
0.989419
0.932452
1.00077
1.05011
1.00416
1.02683
1
1.01212
1.01248
1.00006
1.05115
1
1.04684
1.00051
1.00592
1.05017
1
0.999792
1.04737
1.00656
0.966323
1.05337
1
1
1.05215
1.04425
1.05519
0.950269
1.05419
1.04476
1
0.978752
1.0108
1.03658
1.04161
0.996213
0.96711
0.9658
1.06054
1.0421
1.04956
1.00658
1
1
1
0.964751
1.03991
1
1.00459
0.956019
1.05618
1.01994
1.00515
1.01071
0.975709
1.0403
0.9953
1.00403
1.01357
0.917679
1.00842
1.03207
1
1.03712
1.03594
0.990604
1.0341
1.03312
1.03201
1.05745
1.00731
1.0619
1.06084
1
0.974134
0.928884
1.03719
1
1
1.0103
1
1.05966
0.965499
1.03738
1.00543
1
1.01267
1.00678
1.00964
1.03677
1.01427
1.03955
1.03476
0.992205
0.997291
1.05863
1
0.979834
0.998196
1.01347
1.03713
1.0354
1
0.985577
0.942472
1.00405
1.06313
1.02156
1.00642
1.06413
1.00436
1
1.00528
1.01664
0.974138
1.13049
1.01979
1.08135
1.03279
1.00554
0.937697
1.0482
1
1
1.00026
1.01582
1.03304
0.999584
0.993075
1.01953
1.00686
1.03398
0.993976
1
0.917521
1
0.936078
1.01893
1.03012
1.03052
0.972669
1
1
1.06543
1.06661
1
1
1.02312
0.971752
1.0285
1.06781
1.02245
1.01681
1.02654
1.02574
1.03208
0.964544
1
1.01736
1.02699
0.979017
0.965953
0.944704
1.02505
1.0043
1
1.03558
1
1
1.08392
0.96875
0.993655
1.06156
1.02385
1.07895
0.969596
1
1
1.02476
1.08619
0.992628
0.949155
1.02871
1
1.06249
1.0211
1.02813
1
1
1
1
1.03184
1
0.996311
1.02086
0.981349
1.02274
1.02164
1
1.03104
1
1
1
1.03363
1.01792
1.01825
1
1.02601
1.0327
0.974855
1
1
0.969806
0.995935
1
0.967464
1.03497
1
1
1
1
1
1.01408
1
0.984884
1.03443
1
1.04137
1.0028
1
1.01477
0.932741
1
0.962886
1.02969
1
1
1.04061
1.04612
1
1
1
0.969646
0.967365
0.984806
1.03889
0.952643
1.04372
1
1
0.963322
1.04034
1
0.967009
1.03903
1
0.989399
1
1.01661
1
0.98739
1
0.952668
1
1
0.977722
0.93263
1.0399
1
1
1.01603
1
0.992077
0.96734
1.01759
0.936896
1
0.926325
1
0.957353
0.970368
0.996108
0.990062
0.999999
1.01189
1.0161
0.991102
0.995699
0.977826
1
1.00081
0.990262
1
1
0.960462
0.97031
1.02383
0.927731
1.01793
0.999993
0.999996
1
1.01717
1.07918
0.970759
1.01995
1.04172
0.986001
0.995921
0.973299
0.965868
1.04734
0.999957
0.984089
1.01935
0.994785
1.00885
1.00431
0.955067
1.00832
1.03991
0.968395
0.956979
1
1.0288
1
1
0.93999
1.02219
1.04245
1.01368
1
1
1.00791
1.02005
1
1.03803
1
1.02273
1.02941
1
0.910813
1
1.02156
1
1.00013
0.951314
1
1.04045
0.956735
1.0221
1
0.935278
1
0.91599
0.998025
1.00005
1.02389
0.996727
0.926593
1.0245
1.02274
0.964262
1.05406
1.0359
1.03833
1.00226
1.02325
1.02391
0.931663
1.02316
1.03216
0.966873
1
1.04326
1
1.07814
0.970359
1.02611
1.02633
0.926111
1.0011
1.00998
1
1.00802
1.02955
0.996962
0.992955
0.97579
1.03633
1.0032
0.973863
1
1.01776
1.02577
1
1
1
1.02561
0.974177
1.02224
1.01784
1.00031
1
1.0282
1.03455
1.01497
1.02805
1.01352
1
1.07855
0.931425
1.02772
1.0647
1.01354
1.01395
1
1
0.9746
1.02721
0.984887
1.03361
1.05944
0.99801
0.997607
0.99823
1.09526
1.06641
0.997226
0.963801
1
1.01204
1.02982
1.00976
1
1.03092
1
1.05327
1.01712
0.973935
1.0581
1.05697
1.0028
0.979029
1.01048
1.01794
1.04823
1
1.00558
0.992124
0.97675
1.01744
1.03051
1
1.0605
1.02932
1.05342
0.992326
0.989524
1
1.06403
1.01732
1.08644
1
1.04531
0.964825
1.01364
1.05373
0.977234
1.0575
1.05113
1.0152
1.04901
1.05892
0.999523
1.03181
1.03936
1
1.00321
1.02041
1.05405
1.04803
1.04202
0.968498
1.06989
1.03338
1.06499
1.00573
1.00875
1.03373
1
1.03134
1.05175
1.01976
1.0455
1
1.033
0.966397
1
1.08862
1.04856
1.04295
1.02255
1
1.07066
0.984502
1
1.04608
1.03533
1.04082
1
1
1.0219
1.04348
1
1.03482
1
1.03806
1.03316
0.966518
1
1.04098
1
1.03622
0.939486
1
1.01201
1.03707
1.03887
1.0335
1
1
1
1.02556
1.03653
0.982435
1.03667
1.01166
1.03122
1.0364
0.966662
1.00811
1.04393
1
1
1.01675
1.00383
1.00831
1
1.02499
1.04477
1
1.03391
0.981601
0.981354
0.982407
1.03888
0.999996
1.02762
1.0359
1.02979
0.980337
1.03196
1.01563
1.01502
0.975672
1.00435
1.02782
1
1.08661
1.0383
0.967916
1.02559
1.06341
0.956346
1.00402
0.965891
0.953974
1
1.02804
1.0388
1.01547
1.0273
1.03924
1
0.973151
1.02215
1.01964
1.04137
1.026
1
1
1.03821
1.01889
1.01464
1
0.956039
1
1
0.980721
1.04071
1
1.02232
1.05581
1.02375
1
0.976854
1.02123
1.04032
1.01599
1
1.01969
1.03982
0.991146
0.939523
1.05268
0.991382
1.03099
1
1.04294
1.019
0.950176
1
1
1.01294
0.960205
1.01709
1
1.03036
1.03975
1.0423
1
1.00204
1.0184
1
0.969534
1.01339
1.009
0.968651
1.03916
1
0.964952
1
1.04296
1.00652
1
1
1.02103
1.0172
1.02405
1.01397
0.936887
1
1
0.981484
0.956258
1.0344
1.02267
0.999761
0.975009
1.04219
0.928279
1.04636
1
1.03373
1
1.04547
1
1
1.04008
1
1.04471
0.996854
1
0.913441
1.03684
1.03288
0.966117
1.00003
1.0068
1
1.00072
1.04071
1
1.0441
1
0.999998
1.01316
1.03623
0.989865
1.03171
1
0.981899
1.00508
1.10658
1.05253
0.930705
1
0.988978
0.931448
1.05147
0.98943
1
1
0.970405
1.00238
1
0.920801
1.00014
1.03892
0.99866
1.0469
0.936851
1.04872
0.992327
1.00104
1.01986
1.00412
1.00417
0.994453
1.03816
1.0201
0.984245
0.979558
1.00003
1
1.04652
0.999291
1
1
0.9685
1
0.999923
1.0175
1.01221
1
1.04141
1.00873
1.01787
0.980437
0.964892
1
1.04877
1.0169
1.07639
0.931048
1.04074
1.01822
1.0204
0.992129
1.02004
0.937726
0.937388
0.93745
0.994181
0.937797
1.04873
1.04602
1
1.00405
1
0.940269
0.964058
1.06459
1.06128
1
1.03456
0.952271
0.968091
0.958511
1.04334
1.02556
0.937404
1
1.0099
0.964244
1.05574
1.03278
1.01293
1
1
1
1
1.02007
1.01695
1.0427
0.939903
1.03411
0.961882
1
0.978862
1.06197
1.01901
1.06559
1.01269
1.01289
0.967664
1
1
0.936227
1
1.0165
0.979207
0.945119
1.02194
1.01504
0.988822
1.00686
1
1.01451
1
1
0.982513
1.04582
1.01757
1.05643
0.989085
1.0157
0.988503
1.0847
0.984656
0.94468
1.02346
1
0.963017
1.04522
1.00399
1.01597
1.02042
1.01455
0.930484
1.01607
1
1.00864
1.02011
0.950835
1
1.0221
0.989602
1.00695
0.969854
1
0.922951
0.922955
1.01394
1
0.99006
1
1
1.0058
1
1
1.01981
1.03474
0.958827
0.979477
0.950263
1.02161
1.01396
1.04794
1
1
0.966568
0.970118
1.0169
1.00967
1.02471
1
1.01601
0.937943
1.01487
0.987787
0.967709
0.935793
1
1.03362
1.02015
1.01676
1.04738
1.00435
1
1
1.0808
1.01335
1.05048
1.01467
1.02396
1.02358
1.00918
0.999546
1
1.0207
1.01513
1.04951
1
1.01463
0.973949
0.935688
1
1.00357
1.02472
0.957945
0.991334
0.952279
1.02375
1.04504
1
1.03396
1.01454
1
1.01609
1.0119
0.961216
0.936636
1.0201
1.02293
1.02289
0.950985
1.02723
1
1.02754
1
0.965085
1
1
1.02442
0.93792
1
1.01227
1.05055
0.993074
1
1.0442
0.988837
1
0.990707
0.950216
1.02645
0.989425
1.02686
0.994434
0.935528
1.04985
1.01382
1.0171
0.950441
0.990823
1
1.02621
0.984872
0.986183
0.994805
0.991101
1
0.938538
1.02785
0.973229
1
1.03659
0.952683
1
1.01824
1.0029
1.02853
1.02129
0.986027
0.973853
0.981104
0.995402
1.02059
1
0.97933
1.03671
1.01385
0.990551
0.959816
1
0.952529
1.00626
1
1.01623
1
0.96679
1.008
1
1.02799
1.02049
1
1.00732
1
0.984907
0.994364
1.03551
1.03095
1
0.936855
1
1.03997
1.09122
1.01012
1
1.01699
1.04954
1.02111
1.02951
1.00791
0.966133
0.983728
1.00791
1
1.06743
0.959651
1
0.970577
1.03198
0.974205
1.01047
1.06071
0.936119
1.054
0.992311
1
1.03029
1.0512
1.03928
1.01886
0.989922
1
1.01593
1
0.959696
1
1.05393
1.02162
0.967883
1
1.02406
1.03135
1.05035
1
1.04343
1.09034
1.05366
1.01082
0.956062
1.01549
0.964377
1.01793
1.06295
1
1
0.990069
0.99359
1.03991
0.997496
1.04872
0.990688
0.971128
1.04427
0.974146
1
0.979365
0.971535
1.05176
1
0.963635
0.957148
0.936224
1.01855
1.02087
1
1
0.9653
0.95099
1.04084
1.01857
1.03358
1.00535
1.01441
0.935901
1.0544
0.997958
0.999792
1.063
0.956986
0.978188
1
0.981153
1.08453
1.02028
1
0.987211
0.991634
0.924899
1.04253
1.02954
1.0341
1.01284
1.00488
0.974983
1.01565
1.02042
0.984807
1.02689
1.02518
0.998919
1.02909
1.02302
1.03095
1
0.984269
1.02113
1.01815
1
0.985996
1.0189
1.01471
1.06079
1.01872
1.03547
0.936568
1.01862
1.01334
1
1.01926
1.03271
1
1.03756
1.02003
0.992482
0.967988
1.01484
1
0.966594
0.991201
1.02157
1.01914
0.996483
1.0273
1.03949
1.01486
1.01496
1
1.06897
0.991366
0.996094
1.02023
0.997938
1.02258
1.04152
1.08279
1
1.00657
1.04539
1.02639
1
1.02434
1.02855
0.987456
1.02253
1
1.02047
1.03022
1.01489
1
1.0417
0.997722
1.02899
1.03214
1.01539
1.03492
0.939866
1.02607
1.04381
1
1
1.05666
1.04914
1.03488
0.981039
1.03071
0.988136
0.970196
1.00357
0.996009
0.998381
0.964996
0.962076
1.02235
1.03009
1.03688
0.979183
0.976912
0.98892
1.03805
0.996422
1.0077
1.02849
1.0391
1
0.995747
1.01221
1.01446
1
1.04601
0.980805
1.01685
0.998555
0.999989
1.04078
0.999334
1.03157
1
1.00968
1.01603
0.979005
0.934526
0.997445
1
0.967365
1.02544
1.03268
1.03044
0.93868
1.01127
1.05859
1.02757
1.04337
0.972275
1.0808
1.01025
0.963922
1.03102
0.961206
1
1.03105
1.04825
1.00325
1.08415
1.00866
1
1
0.970622
1.01511
0.949954
1
0.967508
0.949875
1.0318
1.03047
0.999306
0.979605
1.02883
1.04521
1.03105
1.03456
1
0.979494
1.00916
1.02832
1.07191
1
1
1.00392
0.998364
1
1.05982
1.03194
1
1.0105
1.05968
1
1
1.00339
0.964268
0.971619
0.934925
0.973166
0.979651
1.01165
1.0473
1
1.00309
1.03926
1
0.952463
0.973421
1.03573
1.00712
1
0.94031
0.950681
0.972273
1.01225
0.920536
0.999289
1.00084
1.00156
1.01662
1.0123
0.974138
0.963597
1.02953
1
1.01877
1.01605
1.02797
1.04908
0.974237
0.986486
0.964236
0.974263
1
1.01468
1
1.03665
1.04771
0.921311
0.975262
0.974335
0.987696
1
0.971907
1
0.941125
0.939766
0.994559
0.975409
1.00106
0.9747
1
1.01169
1.09142
1
1.01303
0.975473
0.951963
0.974565
1.05922
1.05735
1
1.02812
0.975677
1.06947
1
0.971574
1
1.0516
0.970032
1.01012
1.01272
1
0.921445
0.990572
0.975441
1.02736
1
1
1
1.00611
1.02185
1.01796
1.00873
1.05528
1.04626
1.05839
1.02228
1.01712
0.931575
0.951228
1.04717
1.05104
1
1
0.966856
0.969491
1.00041
1
0.973834
1
1.00226
1
1.01168
0.999723
0.98292
0.978426
0.960894
0.922357
1.04426
1
1
0.959084
1
0.974488
1.01611
1.01723
1
0.981241
1.00639
1
1
0.973841
1.01222
0.974093
1.01357
1.02356
0.923103
0.992744
1.03499
0.96155
0.979738
1
1.08181
1
1.01928
1.01363
1.00524
1
1.09343
0.953873
1.04347
1.02144
1
1.01553
1.04749
0.994018
1.06609
1.02459
1
0.971995
1
1
1.024
1.01693
0.97001
1.0401
1
1.01845
0.975456
1
0.965396
1.03253
1
1
1.05569
0.994199
0.92196
1.06742
1
1.02684
0.991192
1.01289
1
1.05726
0.974827
1.04679
1.01679
0.971347
1
1.00784
0.967371
1.03247
1.01777
1
1.0298
1.05432
0.973152
1.01833
1.02784
1.0424
0.992695
0.964524
1.0031
0.957869
1.04653
1.02141
1
1
1.067
1.08404
1.02081
1
1.00698
1.00218
1.04753
0.978826
1
1.04687
0.973333
1
0.981686
0.963317
1.02003
1
1.0333
1.02392
1
0.95314
1
1.02767
0.990172
1
1.02117
0.966393
1.02596
0.996215
1
1.03085
0.956797
1.01222
0.979479
0.962957
1.00217
1
1.01116
1.03301
1.03158
1.06206
1
0.951236
1
1.02451
1.03569
1.09365
1
0.955794
1
1.02892
1
0.97332
1.02818
1.00191
0.958284
1
1.04019
0.934531
0.995044
0.999907
1.03763
1.05544
1
1.02382
0.983416
1
1
1.0025
1.03252
1.01853
1.01285
1
1.03504
1.03308
0.998381
0.988115
1.00601
1.00802
1
1.02786
1
0.967043
1.0595
1.05365
0.999992
1.07666
0.98491
1.04022
1.00865
1.03483
1.03542
1
1.0414
1.03732
0.974058
0.964549
1.00841
0.955476
1.04172
0.992248
1
1.02719
1.00065
1
1.00946
0.999774
1.03711
1.0423
1.06489
1.02987
0.998743
0.990062
0.997623
0.999987
0.979572
0.974518
0.916725
1.07034
1.05455
1.06032
0.96783
1
0.965608
1
0.925246
1.01179
1.01089
1.00205
1.03953
1.0482
0.997721
0.941706
1.02736
1
1.0293
1.05623
0.995056
1.0447
1
1
1.03559
0.962117
1.00963
1.05595
1
0.966156
1.03233
1.02136
1
0.978412
1.03776
1.03802
1.02313
1.0418
0.971302
1.02141
1
0.957392
0.97159
0.987988
0.932267
1
1.01654
0.979308
1.0097
1
0.985498
1.04696
1.00769
1.0319
0.999472
1.01013
0.975078
0.92847
0.93841
0.999914
1.03349
0.978543
1.03473
1.01339
1.04395
1.09254
1.02592
1
0.982293
1.03865
0.93787
1.04532
1.01643
1.00287
0.998546
0.978089
1.02233
0.969394
0.976646
1.01204
0.950552
1.01777
1.03729
1.04725
0.997997
1.04416
1
1.09466
1
1.02067
1
1
1
1
1.06745
1.03403
1.04929
1.02522
1.04978
1.00208
1.01584
1.01398
1
1
1.0114
1.01809
1.04633
1
0.988847
1.01217
1.01882
1.03678
1
0.99255
1
0.972294
0.990196
1.04763
0.99156
1
1.03029
0.973285
1.04376
0.926828
1
1.04957
1.04255
0.975636
1.00081
1.03633
0.95721
1.0434
0.964845
1.00359
1.04848
0.928043
0.968756
0.97284
0.964913
1.04529
1
1.03982
0.965869
1.01254
1.05336
1
1.03371
1.03421
1.00843
1.04238
0.967704
0.966816
1
1.06685
0.966014
0.967387
0.995293
1.04077
1.03858
1.04072
1
1.04388
1
1.03925
1
1.03951
1.00784
0.944646
0.951866
1
1
1
1.04063
1.08958
1.03671
1
1
1.0363
1.00916
1
1.08895
0.96725
1
0.998266
0.982859
0.99124
1.00475
1.00675
1.04252
1.04169
1
1.08345
0.951231
1.02854
1
0.981047
1
0.969543
1.04206
0.96664
0.971874
1.04437
1.01239
1.04207
1
1.00548
0.955478
1.05214
1.01385
1
0.963061
1.03901
1
1.05993
0.997817
0.948629
1.04287
1.06679
0.981021
0.966286
1.06353
0.962905
1
1.04162
1
1.0074
1.02914
1
1
1
1.01798
0.975686
0.941953
1.06079
1.05941
1.04506
0.967551
0.99639
0.973877
1.04759
1
0.964597
0.974759
1.04584
0.939776
1.02105
1.00168
1.04025
1.03935
0.972113
0.998459
0.977035
1.01101
0.999852
1
1.01336
1.0274
0.973502
0.951005
1.04476
0.950795
1
1
1.04506
1.01848
0.955669
0.967535
1.02148
1.04297
1
1.02378
1.0304
0.965688
1.00093
1.00388
1.04643
1
0.962404
1.04239
1.00833
0.967938
0.968588
1.04558
1.04462
1.07312
1
1
1.04126
1
1
1.0056
1
1.04025
1.0362
0.975615
1
0.968432
1
0.974763
0.948158
1
0.976648
0.961598
1.00139
1.08167
0.99397
1.03709
1.00584
1.04837
1.00069
1.04837
1.03849
1
1.05347
0.971854
1.03594
1.02415
1
1.05529
1.05693
0.994602
1.00489
1.02471
0.973174
0.942739
0.975204
1.00168
0.975111
1.00742
1
0.996812
1
0.999923
0.941518
1
1
1
0.955991
1
0.99512
0.967946
0.995897
0.929527
1.06273
0.98842
0.987912
1
1.03749
1.0478
0.965885
1
1.05161
1.03441
1
1
1
1
1.03637
1.00474
1
1
0.989753
1
0.939404
1
1
0.975831
1.01107
0.951503
0.999992
1.05058
1
1
1
0.995582
1.00004
0.925996
1
1.07305
1.06815
0.999994
0.966635
1.05424
1.00682
1.02189
1
1.03561
0.974186
1.0257
1.00983
0.972738
1.04878
1.02928
1
1
1.00456
0.944408
1.00268
1
1.00236
1.04055
1.03266
1
1.08928
1.02089
1
1
1.04078
1.0495
0.993971
1.05866
1
1.06633
1.04483
1.04544
0.975631
1.06663
0.935609
1.02242
1
0.999984
0.968467
1.06983
0.975457
0.973869
0.971172
0.971797
0.996898
0.972907
1.00794
1.01835
1.03385
1.01417
0.940675
0.995984
0.935876
1.02587
1
1.0309
1.04299
1.04161
1
1
0.972328
1.0703
1.06437
0.972556
1.01952
0.971493
1
1
1.02636
0.994202
0.967753
1.03562
1.05761
1
0.994873
1.07857
0.975085
1.04105
0.967468
0.97035
0.967688
1.02348
0.997862
1.03986
1.03214
1.05047
0.989005
0.972407
1.02668
0.968402
0.969759
0.971014
1
1.04553
0.97103
1.01577
1
0.954627
1.05344
1.0933
1.06642
1.02299
1.0615
1.03933
0.932732
0.975665
0.969082
0.973214
1.05829
1.00782
1
1
1.03809
1.05246
1.05532
0.997819
1.03005
1.06314
0.998179
1.05284
1
1.08087
1.0285
0.999995
1.0337
0.988925
1
1.07643
1.0076
1.03039
0.967181
1.02928
1.00002
1
1.02529