/*--------------------------------*- C++ -*----------------------------------*\
  =========                 |
  \\      /  F ield         | OpenFOAM: The Open Source CFD Toolbox
   \\    /   O peration     | Website:  https://openfoam.org
    \\  /    A nd           | Version:  12
     \\/     M anipulation  |
\*---------------------------------------------------------------------------*/
FoamFile
{
    format      ascii;
    class       surfaceScalarField;
    location    "4.3";
    object      phi;
}
// * * * * * * * * * * * * * * * * * * * * * * * * * * * * * * * * * * * * * //

dimensions      [1 0 -1 0 0 0 0];

internalField   nonuniform List<scalar> 
69079
(
-0.000198767
0.000115372
8.38937e-05
0.000166001
3.93159e-17
-0.000166001
-0.000179374
0.000179374
0.000167917
-1.91521e-06
-0.000176703
-2.67121e-06
-0.000176703
9.41409e-05
-0.000179344
8.49678e-05
1.12881e-06
0.000147082
-0.000148285
0.000169597
-0.000169597
-1.03948e-17
0.00016874
8.56803e-07
-0.000123941
-7.43736e-05
-0.00014659
0.000157115
-1.03554e-05
-0.000166388
0.000162809
3.57841e-06
-0.000165548
-8.40004e-07
4.5797e-06
-0.000146503
0.000141924
0.000168773
-3.36001e-08
0.000167933
8.40003e-07
-0.000168572
0.000166354
2.21761e-06
-0.000166724
-1.84801e-06
0.000168454
-0.000167513
-9.40804e-07
0.000167144
1.31041e-06
0.000170117
-0.00017257
2.45281e-06
-0.00018139
1.74049e-05
0.000163985
0.0001853
-0.000122921
-6.41048e-05
0.00015631
-2.36137e-05
-0.00013392
-0.000167933
-1.66321e-06
0.0001679
3.36001e-08
3.86402e-07
-1.68001e-08
0.00015083
-0.00014983
0.000157678
-0.000164642
6.95155e-06
0.0001594
-0.000172758
1.33523e-05
0.000186232
-2.68185e-05
0.000166203
9.40804e-07
-5.20802e-07
-0.000167833
3.10801e-05
0.000136753
0.000165934
-0.000165934
2.87155e-14
3.86401e-07
-1.16778e-05
0.000160934
-0.000149079
-1.48681e-05
-0.000166522
0.000132409
2.56663e-05
-0.000157912
-0.000166863
2.04397e-05
0.000164778
-0.000164775
-2.34592e-09
-7.9804e-06
-0.000135013
0.000163868
-2.88847e-05
0.000164506
1.84801e-06
-1.42801e-06
-9.71884e-05
0.000185607
-8.84187e-05
0.000157664
-0.000162446
3.97969e-06
0.000187075
-2.96764e-05
0.000161146
2.61166e-05
0.000187466
-2.61118e-05
0.000159634
-4.73762e-06
-0.000154897
-0.000141599
0.000170161
-2.82336e-05
-0.000175847
0.000180134
-4.28648e-06
-0.000164443
7.05997e-05
9.3733e-05
0.000163048
-0.000163802
7.95973e-07
0.000188052
-2.49694e-05
0.000160759
-1.7482e-07
-0.00016059
-8.24054e-05
-6.02855e-05
0.000142675
9.95068e-05
6.67467e-05
-0.000166253
0.0001562
-9.21358e-05
-6.37664e-05
-1.87657e-05
-0.000149067
6.53019e-05
-0.00016249
-0.000139852
0.000144432
0.000161969
8.40067e-07
-2.80566e-06
0.00019604
-0.00019604
-1.90782e-05
-0.000145272
-0.000147437
1.22643e-05
-6.4876e-05
0.000158955
0.000158919
2.91392e-05
0.000186777
-2.78336e-05
0.000168321
-2.52504e-05
-0.000143816
0.000169966
-0.000166472
-3.49441e-06
0.00011777
6.65715e-05
0.000153246
-0.000157369
4.12993e-06
-3.5772e-06
0.000156855
-0.000160659
1.47841e-05
0.000145875
0.000159021
2.6863e-05
-4.66373e-06
0.000157385
-0.000186502
2.91115e-05
0.00013603
2.36041e-05
0.00017488
-1.75208e-05
-9.23307e-05
-6.45353e-05
0.000153781
-0.000156056
0.000158055
-1.99921e-06
0.000156458
-0.000177009
2.05398e-05
0.000157521
-1.10732e-06
-0.000116092
-5.62835e-05
-8.26563e-06
-0.000133477
0.000141742
-9.2182e-05
0.000181222
-8.90403e-05
0.00017857
-4.60032e-05
-0.000168958
1.29025e-05
0.000158647
2.87878e-05
9.04684e-05
6.85947e-05
-0.000159063
-5.15483e-06
-0.000154426
-1.45321e-05
4.08242e-07
-0.000138258
0.00013785
0.000165199
-4.43373e-06
8.85531e-05
7.81707e-05
-0.000166724
7.07787e-05
-0.000162961
-0.000155787
1.36081e-06
0.000167866
-0.000167866
0.00016915
-1.15899e-05
2.64273e-05
-0.00018218
0.000155753
5.68441e-05
-0.000152652
-0.00015433
-1.24199e-05
0.000153496
-0.000178955
2.54337e-05
0.000156914
-3.44499e-06
8.73463e-06
0.000134662
-0.000143632
-6.1029e-06
0.000147693
-0.000141614
0.000157705
2.90737e-05
-2.87389e-05
-0.000136892
0.0001373
9.79444e-06
-0.00015782
0.000148025
-0.000162642
4.62151e-05
-9.52093e-06
0.000145251
-0.000135473
6.06029e-05
-0.00014281
-0.000149091
-5.47697e-06
0.000154566
0.000149445
-0.000153487
3.79196e-06
-0.000161197
0.000138987
2.22097e-05
-5.77922e-06
-0.000170924
0.000151959
2.29065e-05
-7.72084e-06
0.00015968
-0.00017336
0.00017336
-0.000154929
5.83466e-06
-4.70906e-05
0.000146597
0.000183431
-0.00010947
-7.39782e-05
-0.000180601
7.39888e-05
0.000106613
0.000164941
-9.64364e-07
-0.000163996
0.000150645
-0.00017599
2.53101e-05
0.000155757
-5.15531e-06
0.000164338
-4.75179e-06
0.000142562
-0.000138979
0.000155514
9.42006e-06
0.000101708
-0.000161381
5.96738e-05
0.000151587
-0.000183028
3.1435e-05
0.000181699
-3.01354e-05
-2.08458e-06
0.000151477
-0.000101019
0.000190664
-8.96451e-05
-0.000129523
-2.78441e-05
0.000146363
-0.000174041
2.77249e-05
0.000152482
-6.07267e-06
0.000155048
-0.000166266
1.12496e-05
-0.000163084
3.35219e-05
-4.39035e-05
-0.000136698
0.000149877
-0.000181042
3.11688e-05
-2.71107e-05
-0.000157988
0.000146447
0.000111334
-0.0001196
-0.000129495
0.000137999
0.000178383
-0.000178383
0.000155224
2.67304e-07
-2.7814e-05
0.000155835
-0.000165285
9.44984e-06
-0.000152295
4.46554e-06
8.80773e-05
9.54204e-05
-0.000168236
2.66953e-05
0.000141541
0.000147286
-0.000179246
3.19557e-05
-0.00014942
0.000178552
-3.1234e-05
-0.000151933
-2.49137e-06
0.00012989
-5.94963e-05
-5.31722e-05
0.00015488
-1.95194e-05
0.000172985
0.000150154
3.15505e-05
-0.000141767
0.000136041
-3.08604e-05
0.00015803
-0.000158026
9.09052e-05
-0.000158441
6.75363e-05
0.000145698
-0.000177857
3.21768e-05
0.000177309
-3.15882e-05
-2.51161e-05
-0.000147454
0.000148859
5.23576e-06
-0.000153538
-2.84929e-05
-0.000153687
1.73729e-05
-0.000133007
0.000115283
-0.000109851
0.00016866
-5.96499e-05
-0.000150797
5.44322e-06
0.000145354
1.18937e-05
0.000156347
-0.000138541
0.000129214
0.000150881
0.000159864
-4.17637e-06
0.000143991
-0.000176588
3.25845e-05
-3.49905e-05
9.24004e-07
-0.0001469
0.000145976
0.000148864
8.61904e-06
-3.04022e-05
5.94008e-05
0.00010459
0.000144346
6.38402e-07
-0.000144985
1.49521e-06
0.000142851
1.13904e-05
0.000158576
-6.18746e-05
-7.89099e-05
0.000140785
-0.000169284
9.42886e-05
7.58311e-05
9.65164e-05
-0.000158391
4.87202e-07
0.000146732
-0.000147219
-0.000146782
0.000147269
0.000140171
-0.000146326
-0.000155216
0.000161415
-6.19922e-06
0.000135194
-0.000162769
2.73936e-05
0.00014649
-1.13525e-05
-1.3304e-05
-0.000129135
0.000142439
8.74107e-05
6.22946e-05
-0.000149705
0.00014585
3.27296e-05
-3.19846e-05
2.20249e-05
-0.000153855
0.00013183
-0.000145068
-7.30152e-06
0.000155281
4.49864e-06
0.000141382
-0.000175144
3.37603e-05
0.000173944
-3.2551e-05
9.81628e-05
-0.000156951
5.87885e-05
0.000148378
-0.000138584
0.000159538
-0.000165017
0.000138966
1.01001e-05
-5.20802e-07
0.000158576
4.1526e-05
-0.000151365
-0.00015283
-2.38561e-06
0.000160621
-5.61825e-06
-9.28341e-05
-4.88299e-05
0.000138547
0.000139695
-0.00017321
3.3515e-05
0.000170924
-2.23945e-05
-0.000173645
-3.63109e-05
0.00012088
-0.000103825
0.000144145
3.3172e-05
-3.24514e-05
-9.26915e-05
-7.0645e-05
0.000162357
0.000167127
-0.000164859
-2.26801e-06
-1.94713e-05
0.00016753
-0.000148059
0.000131851
-0.000159086
2.70605e-05
0.000144685
-1.28238e-05
0.000140007
-0.000140512
4.8444e-07
-6.09842e-06
-0.000155098
-0.000172217
2.64097e-05
0.000145808
-3.08953e-05
-0.000141322
-2.16385e-05
-0.000151721
-6.18242e-05
0.000152293
-0.00019058
0.000102245
8.83347e-05
-0.000159315
0.000137895
2.14201e-05
0.000139149
8.87641e-07
0.000152534
-0.000144651
-7.8856e-06
-0.000180836
0.000159197
-0.000155686
-1.008e-07
-0.0001532
0.000155703
-2.50321e-06
-9.32572e-05
-9.73228e-05
9.10228e-05
-0.000162893
7.18707e-05
-8.73603e-07
-0.000165598
-5.51042e-06
-0.000162725
0.000155908
-5.36579e-07
-0.000160189
6.98883e-06
0.000136937
-0.000171895
3.49766e-05
-3.7071e-05
0.000147867
4.68841e-06
0.000128907
-0.000155765
2.66923e-05
-0.000163616
3.42721e-06
0.00014289
-1.39656e-05
0.000144843
1.2048e-05
-3.03093e-05
0.000158566
-0.00015231
-6.12536e-06
-1.19376e-05
0.000144556
-0.00013299
0.00016333
-0.00016333
-0.000192609
9.14704e-05
0.000100801
-7.85298e-05
0.000148883
-7.02998e-05
-0.000138765
-4.57888e-06
0.000143584
-0.000162533
-3.6599e-06
-0.000101019
-5.30241e-05
0.000155141
8.98972e-05
5.56418e-05
-0.000145539
0.000110003
-0.000123307
5.19122e-06
0.000156005
-0.000161197
0.000139566
3.43983e-05
0.000134328
-0.000170066
3.57183e-05
-3.36255e-05
-0.000172822
0.000153351
-0.000155031
0.000155031
0.000105656
6.2345e-05
0.000168338
-3.40528e-05
-2.73673e-05
-0.000153469
0.00013623
9.6634e-05
-0.000158712
6.20779e-05
-5.63899e-06
-0.000155896
0.00016212
-1.20641e-06
0.000148177
-0.000147175
0.000125256
-0.000152658
2.70895e-05
0.000140859
-1.5606e-05
0.000166993
-0.000168387
-0.000140482
0.000145673
-9.74644e-05
-7.22221e-05
-8.18039e-05
0.000147495
-6.57427e-05
-0.000157013
3.40879e-06
0.000157452
-0.000163121
5.75872e-06
-8.42523e-05
0.000171663
0.000163632
1.55937e-06
0.000162686
9.37621e-07
-0.000182637
8.4525e-05
9.58177e-05
4.73426e-05
0.000138265
0.000162394
2.89367e-07
9.56703e-05
-0.000140076
4.43907e-05
0.000161869
5.66162e-06
0.000143484
-4.78188e-05
4.64957e-05
0.000132496
-0.000167415
3.49654e-05
0.000159536
0.000166902
-3.4371e-05
0.000162457
-2.71739e-05
-0.000135594
-0.000147413
-3.70402e-06
0.000151114
-0.000183054
0.000106428
7.66251e-05
0.000141682
1.40583e-05
-3.02107e-05
-5.61122e-05
0.000154275
0.000169562
-0.000169569
-0.000140062
0.000140701
0.000146833
-0.000145337
-9.22549e-05
0.000162797
-7.0844e-05
-2.73841e-06
-0.000157921
0.000130581
-0.000165986
3.53926e-05
-0.000150848
0.000154594
-3.74641e-06
0.000165348
-3.47984e-05
-0.000158011
0.000158081
0.000157644
4.75969e-06
3.72961e-06
-0.000149487
0.000145757
-0.00014837
0.000143524
-0.000127453
-1.06318e-05
0.000138241
-0.000157181
6.33362e-06
-0.000133424
-4.75297e-05
0.000122774
-0.000147559
0.000175719
-1.58517e-05
0.000158205
-6.91704e-07
-0.000154325
-2.85601e-06
0.000158895
-0.000158895
0.0001286
-0.000164371
3.57907e-05
0.000163865
-3.52438e-05
0.000119027
-0.000145477
2.61704e-05
0.000136058
-1.70208e-05
-9.19636e-05
-9.109e-05
-0.000162356
6.1337e-05
-0.000152259
-2.06641e-06
8.90277e-05
7.45611e-05
0.000152177
6.55671e-06
0.000139986
1.25141e-05
-3.00757e-05
-0.000152746
0.000140113
1.26336e-05
0.000173645
-0.000166993
-0.000134216
0.000149
0.000143722
-0.000156401
1.26785e-05
0.000147286
-6.08162e-06
-0.000141205
0.000126707
-0.000162945
3.61981e-05
0.000162315
-3.56627e-05
-5.49362e-06
-0.000153821
-0.000148879
0.000154946
-5.7628e-06
9.40804e-07
-0.000151738
0.000180252
-3.48713e-05
-7.20891e-05
0.000160642
3.66388e-07
-0.000175166
2.86626e-05
-0.000136956
-1.52774e-05
0.000149117
-6.82083e-06
-0.000142297
0.000131972
3.63464e-05
0.000156005
-6.51003e-05
-3.54246e-05
-0.00015787
0.000143338
1.45321e-05
6.99875e-06
-0.000144014
-0.000201937
0.00011792
8.40171e-05
-0.000149437
4.95602e-06
0.000144481
-9.15268e-05
-0.00011041
5.56082e-06
0.000141793
-0.000147353
-0.00015026
6.95523e-06
0.000143305
-1.04328e-05
-0.000139827
-0.000156308
0.000145875
0.000124688
-0.000161298
3.65704e-05
-0.000150663
3.86402e-06
0.000146799
0.00015026
-6.43443e-06
-0.000143825
-5.12402e-06
0.000149504
-0.00014438
0.000145136
0.000160636
-3.59955e-05
0.000151889
-6.58563e-06
-0.000145304
0.000158786
-1.14713e-06
-0.00016011
-1.69009e-05
-0.000155921
-6.70323e-06
0.000151553
-0.00014485
8.76627e-05
5.83298e-05
-0.000145993
-0.00014978
5.53146e-05
-8.53795e-05
-8.15384e-05
-0.000166073
3.87105e-05
0.000130174
3.67544e-05
6.20036e-06
-0.000147647
-3.579e-05
7.39203e-06
0.000139894
-0.00014144
1.05e-05
0.00013094
0.000122891
-0.000159761
3.69558e-05
-6.99088e-06
0.000165018
0.000150411
-5.94722e-06
-0.000144464
-0.000155031
-8.1042e-06
0.000159294
-3.63332e-05
-9.8478e-05
0.000148548
-4.97524e-05
0.000167009
-1.49521e-05
-0.000152057
0.000178413
-3.14219e-05
-0.00015669
0.000152669
3.87606e-06
0.000156928
-0.000156912
-0.000162272
9.60964e-06
0.000152662
-6.38874e-06
0.000151588
-0.000145142
-8.56635e-05
0.000154258
0.000112049
-0.000138023
2.56191e-05
-1.98621e-05
0.00013139
1.41196e-05
0.000156459
-5.72896e-06
0.000149616
-0.00014389
-1.45489e-05
0.000129529
-0.00011498
0.000176871
-0.00010458
-7.22907e-05
3.30961e-06
-0.000149974
0.000146665
3.20881e-06
-0.000155468
0.000154342
-0.000154342
-0.000145371
0.000147219
-1.84801e-06
0.000150828
-0.000156229
5.39783e-06
-0.000134333
0.000135257
1.13615e-06
0.000149397
-0.000150434
2.40241e-06
-0.000149873
0.000147471
7.66031e-05
7.22759e-05
-0.000149122
-1.66321e-06
0.000157366
-0.000152175
-1.94881e-06
0.000154124
-0.000152156
-2.6111e-07
0.000149017
-0.000146614
0.000137441
4.3781e-05
0.000121075
-0.000158514
3.736e-05
-6.60579e-05
-7.39035e-05
0.000139961
0.000128244
3.71106e-05
-0.00017551
0.000109452
0.000150021
-5.33872e-05
-4.18596e-05
-3.61194e-05
-0.000184885
0.000105504
7.93803e-05
-9.37985e-05
0.000168214
-7.52636e-05
8.46505e-05
8.13661e-05
-0.000166017
-9.28036e-05
0.000158105
-0.00015278
0.00014527
7.50963e-06
-0.00015404
1.26e-06
-0.000148742
-2.82453e-06
0.000151335
5.18363e-06
0.000165104
-0.000142145
-4.03202e-06
0.000146177
-0.000132586
0.000118037
0.000108756
-0.000136865
0.000137047
-0.000147515
5.20802e-07
0.000145405
-0.000145925
6.32224e-05
-0.000144794
-9.75748e-05
-8.73099e-05
5.20621e-06
0.00014637
-0.000151907
-0.000157274
-7.92271e-06
-0.00018806
0.00010915
-3.81361e-06
-0.000158458
0.000156956
-0.000156856
-0.00013094
0.000157635
-0.000145355
0.000143954
4.18231e-07
0.000150744
-0.000150987
-3.20377e-05
-0.000122993
7.51353e-05
-0.000167275
-4.50074e-05
0.000150663
-0.000145925
-8.42492e-06
0.000154344
5.20725e-07
0.000119259
-0.000120054
6.75125e-06
-0.000151139
0.000144388
0.000126409
3.7469e-05
0.000146026
4.33636e-06
-0.000150214
0.000149605
-8.06403e-07
-0.000148798
-4.61569e-06
0.00015075
0.000145546
-0.000149963
-3.65216e-05
-0.000147219
-3.44401e-06
-5.31098e-06
0.000150909
-0.000161768
0.000167211
-0.000147118
0.00014821
-1.092e-06
5.56083e-06
0.000143456
0.000143691
5.81282e-06
-0.000147572
4.53602e-07
-8.7711e-05
-6.04091e-05
0.00014938
-0.000176471
3.82134e-05
0.000119078
-0.000118754
-3.74773e-06
0.000117136
-0.000157418
4.04314e-05
0.000157871
-0.000152234
-5.4894e-06
-2.65568e-06
0.000158686
0.000154986
-3.77341e-05
5.16522e-05
-0.00015264
0.000111999
-0.000132438
2.05225e-05
-2.19953e-05
0.000134069
-0.000153149
0.00014107
1.20792e-05
0.00013976
-1.2348e-05
-0.000152511
0.000158257
-8.00859e-05
-5.31979e-05
0.000127188
-0.000152477
0.000146967
-3.81013e-06
-0.000141498
-9.33356e-05
-9.06047e-05
-0.00011885
1.35312e-06
0.000117349
-0.000143501
0.000139809
6.48643e-06
0.000146379
-0.000152974
-1.43474e-05
-0.000127622
0.000142632
5.92191e-06
0.00014707
-0.000152863
0.000178467
-8.72427e-05
-9.12244e-05
7.62723e-06
0.00014149
0.000124515
3.77739e-05
-0.000153786
3.07739e-06
0.000151018
-0.00014465
5.944e-06
-3.68282e-05
0.000115974
-0.000154429
3.82288e-05
-4.33886e-05
0.000110567
-0.000130611
1.99707e-05
-0.000138251
0.00012621
-0.000142767
-6.66963e-06
-2.24494e-05
0.000132741
6.61149e-06
6.71835e-05
0.000109688
0.000159903
-0.000156593
0.000151033
-1.42801e-06
-0.000144135
6.5642e-05
0.000149319
-5.02322e-06
-0.000144296
-0.00014949
0.000152501
0.000138869
-0.000116844
1.41121e-06
-0.000141473
5.52467e-06
-0.000151275
0.000145531
-4.04882e-06
0.000158643
8.61507e-05
8.06235e-05
-0.000166774
9.99526e-05
6.94375e-05
-0.000164747
-0.000125585
-1.39704e-05
0.000139527
-3.28535e-06
-0.000148562
0.000151554
9.76084e-06
0.000153569
-0.000153721
0.000148448
-0.000152089
0.000151873
-0.000153956
2.08321e-06
-3.60305e-06
0.000151824
1.77543e-06
0.000149499
-0.000151187
0.000149557
-0.000153482
-0.000160558
-9.67433e-05
0.000167678
-7.07764e-05
-8.99399e-05
0.000170623
-8.06231e-05
-0.000180382
4.94426e-05
0.000151126
-0.000146748
-2.09662e-06
-0.000149067
0.000151086
-1.68841e-05
0.000162406
-0.000145522
0.000166069
-0.000103774
0.000122478
3.81649e-05
-0.000144397
4.48562e-06
0.000139911
9.93888e-05
-0.000167811
6.70089e-05
0.000150538
7.31204e-06
-0.000152175
-0.00017929
0.000104211
7.50795e-05
-3.72162e-05
0.000144061
-0.000140331
-0.000152158
-1.69681e-06
-0.000143034
0.000147594
-4.55954e-06
3.56497e-06
-0.000146599
-0.000138941
0.0001252
1.37802e-05
-0.000152019
0.000152173
-1.54561e-07
-0.000149843
-2.17561e-06
0.000113907
-0.000154527
4.07934e-05
-0.000151752
-3.48469e-07
0.000152167
-3.81328e-05
-0.000157844
9.74973e-05
-0.000154191
0.000149603
4.5881e-06
-0.000154796
6.04802e-07
-0.000149798
0.00014988
-8.23203e-08
-0.000150193
3.94802e-07
-0.000153855
-0.000152225
0.000147303
4.92237e-06
-0.000152897
1.1508e-05
0.000141389
0.000153155
-0.000146822
-0.000118896
3.49179e-08
-0.000152696
5.79602e-06
0.0001469
-0.000143573
-3.91442e-06
0.000147488
0.000118575
3.29281e-06
0.000141994
-0.000145287
-0.000147353
-3.19201e-06
0.000150545
-0.000149403
3.14161e-06
0.000146261
-8.39183e-05
-0.00010979
5.49868e-06
0.000156291
-6.52683e-05
0.000151939
6.21334e-06
0.000143657
2.23441e-06
-0.000145892
1.176e-06
0.000147404
-0.00014858
-0.000136921
0.000154342
-6.44451e-05
0.000151906
-7.19043e-06
-0.000144716
-0.000150865
2.21761e-06
0.000148647
0.00012083
3.85179e-05
-0.000148699
7.39203e-07
0.00014796
0.000141994
2.45281e-06
-0.000144447
-3.76325e-05
0.000154443
-2.60572e-06
-0.00014713
-3.70679e-06
0.000150904
9.12244e-06
5.20264e-06
-0.000152437
-0.000145276
0.000150414
5.39314e-06
-0.000150778
-0.000159203
0.000160067
0.000150562
-4.92242e-06
-0.00014564
0.000112532
-0.00015175
3.89425e-05
-4.35664e-05
0.000160251
-0.000160291
-0.000158509
0.00015401
2.77952e-06
-0.000148781
2.83921e-06
0.000145942
-8.88555e-05
-9.92044e-05
-0.000151062
0.000125255
0.000149621
-0.000148697
-9.24004e-07
-0.000155065
7.64902e-06
-0.000158517
6.52781e-05
-0.000144783
-5.09042e-06
-0.000150825
0.000147119
3.338e-06
0.000142034
-0.000145399
-0.000151133
5.59442e-06
0.000145539
0.00016593
-0.000181196
0.000157954
-0.000150327
0.000145421
-0.000152007
-0.000156322
0.000155566
-4.31665e-07
0.000149228
1.34784e-06
-0.000150337
0.000147437
-0.000154141
0.000150125
0.000153046
-0.000152998
-0.000151422
0.000152039
-6.16713e-07
-0.000149877
-1.54559e-06
-0.000157298
0.000152455
4.76118e-06
-0.000153017
-4.32645e-06
-0.00016584
0.000152366
1.34788e-05
-0.000153149
-1.26838e-05
-0.000165885
0.000152352
1.35337e-05
-0.00015323
-1.26516e-05
0.000171434
-0.000111916
1.90326e-06
-0.000147834
0.00014598
-0.000165711
0.000152468
1.32403e-05
-0.000160742
7.95878e-05
8.20525e-05
-0.000153315
-1.24034e-05
-0.000165518
0.00015253
1.29875e-05
0.000151301
0.000154673
-0.000135625
-1.96373e-05
0.000113024
1.74606e-05
-0.000129942
-0.000153384
-1.21327e-05
0.000152377
-0.000165333
0.000152526
1.28109e-05
0.000155686
6.72003e-06
-0.000153436
-1.18958e-05
-0.000177286
4.03941e-05
-0.000149055
4.94715e-06
0.000143926
-0.000165139
0.000152573
1.25714e-05
-8.85363e-05
-6.84267e-05
0.000156963
-0.000153425
-1.17084e-05
0.000134495
-0.000138407
3.90912e-06
5.61122e-06
-0.000144598
0.000138987
-0.000164878
0.000152665
1.22364e-05
-0.00014648
-7.56003e-06
-0.000153498
-1.13867e-05
1.37761e-06
-0.000147857
-0.000127527
-1.12272e-05
6.97539e-05
-0.00015829
-0.000145373
-6.29652e-06
0.000128083
-1.42772e-05
-0.000144766
0.000151453
-6.68643e-06
-0.000147757
2.99041e-06
-0.000164567
0.000152688
1.1905e-05
-0.000153551
-1.10561e-05
-6.23282e-06
0.000146614
-0.000140381
4.34937e-06
0.000145556
-0.000149957
-0.000163486
0.000151879
1.16057e-05
-0.000153654
-9.89696e-06
0.000149483
-0.000153206
3.67041e-06
-3.42721e-06
0.000162322
-0.000160558
-0.000163871
0.000152704
1.1209e-05
0.000113082
-0.000152881
3.99812e-05
-0.000153498
-1.03654e-05
4.09922e-06
-0.000144447
0.000140348
0.000128213
1.8331e-05
-0.000163487
0.000152635
1.08585e-05
0.000144381
-9.4414e-06
-0.000134834
-0.000153501
-1.00502e-05
0.000150477
-3.71957e-05
-2.91373e-05
3.49441e-06
-0.000144413
0.000140919
0.000146799
-0.000150797
3.99842e-06
-1.68001e-08
0.000146816
-0.000163228
0.000152682
1.04758e-05
-0.000153587
-9.69932e-06
-0.000157946
0.000136127
2.29482e-05
4.97282e-06
-0.000144665
0.000139693
5.99762e-06
-0.000145808
0.00013981
-0.000162089
0.000151905
1.01104e-05
2.53545e-06
-0.000142423
0.000140053
-0.000153617
-8.4796e-06
-8.73872e-06
0.000145874
-0.000151721
-4.58642e-06
-0.000161313
0.000151856
9.48696e-06
-0.000153566
-7.80552e-06
-0.000148781
0.000149655
-8.73603e-07
-0.000148496
0.000151301
-2.80561e-06
-5.71202e-07
7.34196e-05
-0.000137484
-4.20002e-07
-0.000148076
-0.000149081
0.000146877
0.000152405
-0.000157524
4.93486e-06
-8.18997e-05
-8.26906e-05
0.000149067
-0.000161473
0.000152675
8.851e-06
9.24004e-07
0.000145489
-0.000146413
-0.000153396
-8.02628e-06
-4.87202e-07
-0.000145892
0.000146379
-5.77922e-06
0.000144917
-0.000139138
-8.56662e-07
-0.000148139
-0.000149863
0.000149061
-0.000160962
0.000152507
8.51826e-06
-0.000153359
-7.63142e-06
-0.00014801
-3.55821e-06
0.000151673
-0.000149092
7.43766e-07
0.00014863
-0.000159933
0.000151607
8.22818e-06
-0.000147232
-0.000153433
-6.59956e-06
-0.000154107
0.00015661
-2.50321e-06
-1.82156e-06
-0.000154946
-0.000159775
0.00015219
7.57273e-06
-0.000153172
-6.7558e-06
-0.00014984
2.94001e-06
-4.73672e-06
-0.000159658
0.000152322
7.21656e-06
-0.000153171
-6.41612e-06
-6.65388e-05
-9.14875e-05
8.40003e-08
0.000146278
-0.000146362
-0.000147471
0.000147555
0.000146009
-0.000144598
-0.000158832
0.000152309
6.69211e-06
-0.000147228
-3.73201e-06
0.000151161
-0.000152838
-5.85772e-06
2.07022e-05
0.000125683
-0.000146888
-0.000163949
0.000164256
-0.000149808
-2.11004e-06
0.000151846
-1.01581e-05
-0.000158231
0.000151889
6.36451e-06
-0.000152987
-5.39685e-06
0.000152737
-3.67201e-07
-0.000157172
0.000157903
-8.50128e-07
-0.00015374
-4.05128e-06
4.97845e-07
-0.000149242
0.00013597
-0.00015238
0.000154739
-2.35873e-06
-0.000109547
-5.69282e-05
0.000166645
-1.1345e-05
0.000110121
-0.000150136
3.97689e-05
7.57683e-06
-0.000160474
0.000129517
-2.78508e-06
-0.000126773
-4.307e-05
-0.000141943
7.56755e-06
0.000134545
-7.69579e-06
-0.000151489
-8.43871e-05
-7.93329e-05
0.000161678
-0.000151127
0.000151995
-8.68564e-07
-0.000153223
8.43363e-07
-1.24657e-06
0.000115319
3.97943e-05
0.00014648
-0.000145556
-0.000152308
0.000153195
-8.87043e-07
0.000145993
0.000123296
4.01522e-06
-0.000127311
-1.34401e-07
-3.90522e-05
0.000133544
-1.0248e-05
0.000153879
8.60163e-07
-9.17284e-07
-1.85748e-06
0.000142991
-5.11733e-06
-0.000137558
0.000153939
-2.06641e-06
-2.01028e-06
0.000154669
7.83207e-05
9.32419e-05
-0.000168846
9.91818e-05
6.98621e-05
-0.000111536
-6.88467e-05
-1.90009e-05
0.00015283
-6.19922e-06
-0.000146026
-0.000156308
-0.000164919
8.09242e-05
-0.00014354
0.000144716
0.000149444
-0.000144543
4.53602e-06
-0.000145321
-4.68552e-06
0.000150048
0.000174887
-6.48981e-05
-0.000145634
-3.75246e-06
0.000149438
7.71131e-06
-0.000143448
0.000135961
-0.000146967
1.59601e-06
-0.000148684
5.13085e-05
0.000146209
-0.000120322
-7.43697e-06
0.000150317
-0.000142925
-1.03656e-05
-0.000142011
0.000152377
9.45172e-05
-0.000161348
6.68307e-05
0.000141641
-0.000147874
0.000151251
-0.000133846
-0.000197149
0.000116542
8.06067e-05
-0.000146158
-4.28922e-06
0.0001505
3.78676e-06
-0.000149226
-0.000166271
8.68507e-05
0.000123487
8.1211e-06
-0.000131124
0.000135251
-1.15338e-05
-7.44243e-06
2.63963e-06
-0.000157417
1.07352e-05
5.6021e-06
-0.000151339
0.000153854
-0.000150399
-3.32328e-06
0.000142161
-0.000147889
4.82005e-05
-0.000156822
0.00014861
9.77381e-07
-0.000155098
0.000151369
3.72935e-06
0.000155079
-0.000159543
-0.000152528
-1.42801e-06
4.27834e-06
-0.000150508
-8.1971e-05
0.000125596
-4.37672e-05
-4.52329e-06
-0.000146947
0.000151528
0.000120708
1.71865e-05
-0.000137895
0.000150748
-0.000144747
0.000106937
-0.000148206
4.15685e-05
0.00013519
-1.44817e-05
-7.79507e-06
-0.000148614
0.000143361
-0.000143726
0.00013892
-0.000149285
0.000145638
-3.84496e-05
-1.91401e-05
-0.000126734
0.000146251
-0.000146396
0.000146917
-8.73603e-05
0.000170521
-8.31603e-05
-0.000162641
0.000153848
8.81989e-06
-1.07315e-05
0.000147187
-0.000145242
-8.95275e-05
-8.97627e-05
0.000127859
-0.000146678
-1.97278e-05
0.000148076
0.000146304
-9.9707e-05
-9.59894e-05
0.000171803
-6.8534e-05
0.000146261
-0.000158604
4.99861e-06
0.00016124
-1.04051e-05
-0.000125139
4.3217e-05
-2.02386e-06
0.000136516
6.21602e-07
0.000153721
-0.000158391
7.40883e-06
0.000149302
-0.000156711
-0.000160983
0.000153754
7.27867e-06
-9.09021e-06
-0.000148504
-1.37255e-06
2.36685e-06
0.000138797
-0.000141179
-0.000152477
0.000125399
1.93515e-05
-0.0001604
0.000153737
6.65153e-06
-0.000176933
3.70811e-05
0.000144598
-0.000142262
-8.48202e-06
-2.90196e-05
0.000152452
-6.05344e-06
-5.33571e-06
-0.000146005
0.000151353
0.000153166
-6.55035e-05
-0.000153706
4.81213e-06
-0.000147086
0.000140774
0.000132515
-2.90099e-06
0.000146342
7.36976e-06
-0.000142787
0.000135412
-0.000158827
0.000153454
5.47013e-06
-0.00014312
9.74404e-07
0.000142801
-7.1732e-06
0.000163582
-0.00010794
-0.00014312
-6.72003e-06
0.000148135
-0.000143433
0.000151452
-5.3287e-06
0.0001532
-2.78881e-06
0.00010333
-0.000143758
3.98386e-05
6.08133e-06
0.00013717
-0.000143095
-0.00014622
0.000150525
0.000160326
-0.000150208
0.000142708
-3.98666e-05
4.61875e-06
-0.000143713
0.000138703
-6.21942e-06
0.000143854
-0.000137901
9.25304e-06
0.000133366
-0.000142829
-0.000134841
0.000143853
0.000183625
-0.000145371
-3.82537e-05
1.06008e-05
-0.000145337
0.000134737
-0.000157249
0.000158069
-6.13437e-07
0.000145069
-0.000134468
6.57723e-05
0.000117852
0.000154102
-4.79634e-06
4.56899e-06
-0.000144311
0.000140163
5.54702e-06
-0.000143747
0.000138138
1.22808e-05
0.000136131
-0.000148412
1.34401e-06
0.000145875
-0.000146665
-0.000156257
0.000142258
-0.000141034
0.000155599
-4.78265e-06
2.65924e-06
0.000144768
-0.000153197
0.000156649
-0.000154967
0.000148903
-0.000154393
1.91521e-06
2.30243e-07
0.000151906
-3.52801e-07
-2.48408e-06
-0.000145462
0.000146203
-0.000145291
-3.77595e-06
0.000127275
-0.000146386
-0.000145976
0.000139155
0.00011256
3.97756e-05
-0.00014989
0.000148899
9.91204e-07
0.000154
-0.000157141
3.20817e-06
0.000157713
-3.78785e-06
-3.91781e-05
0.00014821
-2.80561e-06
0.000153169
-0.000156693
3.54818e-06
-0.000152907
0.000157294
-4.42146e-06
0.000157347
-4.0791e-06
1.33225e-05
0.000140566
-0.000153889
-0.00012842
0.000141742
1.54897e-05
-0.000143909
-0.000141809
0.000135728
-0.000156878
3.95405e-06
-9.05468e-06
0.000116156
-0.000134081
1.79257e-05
-5.22602e-07
0.000149871
0.000144481
-0.000138622
0.000142886
0.000122758
-6.60243e-06
-0.000145073
-0.000101021
0.000128206
-2.77488e-05
0.000149388
-8.4156e-06
0.000145976
-0.000133695
0.00010156
-0.000141138
3.97901e-05
0.000141924
-3.99078e-05
0.000109221
-0.000123126
0.000159876
-9.05037e-06
3.49103e-06
-0.00013696
0.000142513
-1.00964e-05
-0.000146533
0.000142298
-0.000150918
5.29461e-06
-0.000142507
-0.000148471
-1.72201e-06
1.13232e-06
0.000146685
-0.000128014
0.000148199
6.40082e-06
0.000136635
-0.000143036
0.000142532
-8.08868e-07
-0.000148847
-0.000130057
-8.45384e-06
-4.64608e-06
-0.000151818
-0.000157202
7.36812e-06
9.24004e-07
0.000144632
-0.000145556
-0.000148094
-5.12906e-06
0.000156123
-0.000156123
5.1005e-06
-9.01828e-05
-0.000106966
-0.00014843
-1.41289e-06
-0.000161922
-8.36643e-07
-7.19701e-05
-9.65969e-05
6.99238e-06
-0.000152121
-0.000133975
-0.000154138
-2.93422e-06
0.000127058
-0.000147395
2.074e-05
-0.000126091
-2.01529e-05
0.000145954
0.000128179
1.88705e-05
-0.000147101
-0.00015063
0.000150494
-0.000153587
0.000154624
-9.31871e-07
1.6987e-05
-0.00011864
-0.000148705
2.20976e-05
-0.000160575
7.05743e-06
-0.000160711
7.28246e-06
-0.000160786
7.34641e-06
-0.000160371
6.78602e-06
-8.00826e-06
-0.000154544
1.79761e-06
-0.000161193
7.46961e-05
-8.1897e-06
-0.000160872
7.48548e-06
-7.69293e-06
0.000147836
-8.26927e-06
0.000147271
-0.000156868
9.63079e-06
-0.000160088
6.42887e-06
-8.40924e-06
-0.000182331
0.000102128
8.02035e-05
-0.000160929
7.60689e-06
-7.36116e-06
-8.58145e-06
-0.000146497
0.000150579
-4.08242e-06
-0.000159655
6.09537e-06
0.00015189
-0.000163729
1.18125e-05
-0.000160929
7.70076e-06
-8.56039e-06
-5.82345e-06
-0.000161656
8.49084e-06
0.000159018
-0.000149849
-9.17622e-06
-0.000159371
5.84125e-06
-9.22448e-06
-5.96402e-06
-0.000148937
-4.07465e-06
-6.62723e-06
-0.000152998
-1.1088e-06
-0.000159037
5.46525e-06
3.10178e-06
-0.000164792
7.74315e-05
0.000137441
-0.000143876
9.8292e-05
-0.000140335
4.18373e-05
-6.35088e-06
3.15841e-06
0.000149605
-2.87281e-06
-0.000147101
-4.70402e-07
-0.000158627
5.06052e-06
0.000149012
-0.000143718
3.84721e-06
-0.000146967
4.20002e-06
-1.51201e-06
-5.92297e-06
-4.78415e-05
1.93068e-05
0.000127796
-0.000147365
-0.000158055
4.45456e-06
2.21761e-06
-0.000138836
-1.46984e-06
0.000140418
-4.25802e-06
-0.000157293
3.88561e-06
-3.64497e-06
0.000165205
-0.000156981
3.51858e-06
-4.31306e-06
-0.000156595
3.1788e-06
1.73041e-06
-0.000150428
1.27266e-05
-0.000136251
-3.99332e-06
7.15683e-06
-0.000144716
0.000137559
-0.000155945
2.69084e-06
0.000153377
1.96049e-07
-0.000137391
0.000144548
-0.000148748
-1.1424e-06
-2.43385e-06
-1.67104e-06
-0.000140893
0.000142497
-0.000128769
-1.82451e-05
0.000146805
-0.000155325
2.28709e-06
-3.02055e-06
-0.000154635
1.75377e-06
0.000123877
1.90802e-05
-2.56825e-06
-0.000126425
-1.96327e-05
0.000146174
-0.000154478
1.32121e-06
0.000147958
0.000151537
2.333e-06
-2.89515e-05
-2.10289e-06
-1.56493e-06
-0.000151546
-0.000148491
0.000148564
-6.64739e-06
-0.000153728
-3.06072e-07
-0.000152577
0.000157438
-5.02479e-06
-0.000157308
4.43235e-06
1.95641e-05
-0.000130002
0.000111181
-1.74461e-06
-0.000151993
-5.66135e-06
5.66712e-06
-7.00375e-05
-9.60774e-05
0.00016626
-1.8228e-05
-0.000128756
0.000147136
0.000130605
-0.000145349
1.42353e-05
-0.000152864
3.36001e-07
0.00012856
-0.000146497
-6.55203e-06
0.000145808
-0.000139256
1.77182e-05
-0.000146633
-1.79677e-05
0.00014688
1.76747e-05
0.000129509
-0.000147142
-9.2014e-05
0.000178165
-0.000144994
-0.000153263
0.000157212
-2.89442e-06
5.44322e-06
0.000142935
4.13211e-06
0.000144256
-0.000148475
3.41477e-06
0.000145307
-0.000148564
0.00015215