/*--------------------------------*- C++ -*----------------------------------*\
  =========                 |
  \\      /  F ield         | OpenFOAM: The Open Source CFD Toolbox
   \\    /   O peration     | Website:  https://openfoam.org
    \\  /    A nd           | Version:  12
     \\/     M anipulation  |
\*---------------------------------------------------------------------------*/
FoamFile
{
    format      ascii;
    class       volScalarField;
    location    "4.3";
    object      T;
}
// * * * * * * * * * * * * * * * * * * * * * * * * * * * * * * * * * * * * * //

dimensions      [0 0 0 1 0 0 0];

internalField   nonuniform List<scalar> 
46253
(
0.959404
1
1
1
1
1
0.936726
1.02331
1
1
0.959359
0.943193
1
1
1
1
1
1
1
1
1
1
1
0.949536
0.94256
1
1
1
1
1.02331
1.03855
1.00032
1.00016
1
1
1
1
1
1.02195
1
0.934637
0.943354
0.999988
0.999971
0.925827
1
1
1
1.14562
1.15049
1.1332
1.13337
1
1.02317
1.00001
0.96525
1.12014
1.11796
1.07303
0.932964
1
0.910391
1
1
1
1
1
1
0.966097
0.926822
0.936065
1.11378
1.11296
1.01682
1
0.946807
1.09689
1.09674
1
1.00421
1.03024
1.10663
1
1.10602
0.932848
1
1.08155
1.08105
1.02604
1
1
0.934119
1
1.12387
1
1.12258
1
1
1.07207
1
1
1
1
1.0377
0.999996
0.938894
0.944218
1.06888
1.0686
0.95118
1.02432
1.11024
1.10906
1
1
1.02745
0.929664
0.93313
1.12113
0.968832
1
1
1.10358
1.1023
1
1.12241
1
0.95868
0.996696
1.0923
1.06061
1.06022
1
0.942939
1.09167
1
1.08818
1.08762
0.96763
1
1.09915
1.05571
1.05541
1.03489
1.09907
1.0003
1.08379
1.08327
1.02232
1
0.950618
1
1.09007
1.08948
1.02415
0.927574
0.958204
1
1.07762
1
1.07707
0.944542
0.964521
1
0.93996
1.08586
0.9434
1.08538
1.16718
1
1.07442
1.07382
1
0.937391
1
0.922337
1.01904
1
1.01555
0.929846
1
1.02313
1.07093
1.0703
1
1.07936
1.07872
0.925326
1
1
1
1
0.921713
1
1
1
1.02428
1
1.02862
1.02811
1
1
1.07578
1.07556
1
0.928765
1.02183
1.06577
1.06516
1
1
1.12166
0.937466
1
1.01967
1
1.0341
0.936219
1.06245
1
1
1.06191
0.922307
1.07246
1.07218
0.936791
1
1
1.02137
1.02085
1.05746
1
1
1
1
1
1
1
1.05645
1.06271
1
1
1
1
1
1
1
1.02089
1
1.05744
1.05687
1.06149
1.01325
1
1.01254
1.06715
1.06676
0.972022
0.934289
1
0.938949
0.931018
0.948931
1.0357
1.0081
1
1
1
1.06391
1.05233
1.06373
1
1
1
1.05182
1
1.00014
1
1.02387
0.97948
1.00607
1.00512
1
1
1
0.922345
0.93245
0.969832
1.03094
1
1.07016
1.06928
0.933488
1
1.06766
1.0484
1
1.04796
0.936972
1.04935
1.11789
1.04878
0.960116
1.11635
1
1.05887
1.05851
1
1.03654
1
1
1.01569
1
1.04596
1
1.04532
0.966613
1.06686
1
1.02422
0.95811
1
0.938777
0.942143
1.02141
1.03009
1
1
1.04275
1.04221
0.99333
0.992809
1
1
1
0.916379
0.97119
1.05404
1.05354
1
1
1
1
1.12479
1
1.0397
1.03903
1
0.967158
1
1.02348
1
0.92917
1
0.946054
1
1.05051
1
1.05032
1
0.946751
1
1
1
1
1
1
1
1.03656
1
1
1
1
1.03602
1
1.0653
0.96769
1
1
1
0.939119
0.952386
0.958337
1.04737
1.02325
1.04708
1
1
1.03383
1.12895
1
1.03196
1.03325
0.93268
1
1.02307
1.01718
1.01873
1
1.03496
1
0.979228
0.977935
1.06427
1
0.999654
1
1
1
1
1
1
1.10786
1
1.03402
1
0.917453
1
1
0.972801
1
1
1.03057
1
1.04393
1
1
1.02998
1.04363
1
1.01717
1
1
1
1
1.02265
1.0235
1
1
1.02298
0.958619
1
0.932418
1
1.0248
1.02511
1
1
0.970082
1
0.979682
1.03672
1
0.915206
1
1.0932
1.02257
0.999273
1.04087
1.02571
1
1.02548
1.02607
1.04064
1
1.02581
1
1
1
1
1
1.01787
1
1.02244
0.959346
1.02643
0.975749
1.01988
1.02612
1.00981
0.967916
0.967666
1
1
1
1
0.996801
1
0.980854
0.936781
0.936852
0.980964
1.02542
0.932274
1.02502
1
1
1.03766
1.03284
0.949226
1.03751
1.02381
1.02299
0.964624
0.934267
1
0.96396
1.03652
1
1
1
0.931367
1
1.02332
0.915254
1
1
1.02711
1
1
0.924225
0.935452
1.03458
1
1
1.0351
1
1.03405
1.036
1.03453
1
1.01992
1.02029
1
1.02525
1.03256
1
1
1.03481
1
0.941321
0.974959
1
1
1.03463
1
1
1
1
0.933647
1
1
1.01904
0.976388
1.01873
0.933333
1
1
1
1
1
1
1
1.02514
0.937812
1
1
1
1
1
1
0.940664
1.03296
1
1.02908
1
1
0.959886
1
1
1
1.03189
1
1
1.03171
1.02803
1.04286
1
1.04392
1.04427
1.04555
1.02843
1
1.01589
1.01497
1.03283
1.02778
1
1
1.01749
1
1.11574
1.01679
1
1.11632
1.01154
1
1.03594
1.03787
1
1
1.02721
1.02754
1
1
1.0151
0.999998
0.999998
1.02494
1.01279
1.07338
1.07396
1.071
1.07167
0.924654
1.0236
1.06885
0.932526
1.06916
1.06637
1
0.94301
0.951251
1.06677
1
1.06338
1
1.06408
1
1.02599
1.06073
1
1.06114
1.09393
1
1.05846
1
1.05881
1
0.934328
1
0.977225
0.951689
1
1
1.05582
1.05618
1
1.03274
1.053
1.05358
1.01396
1
1
1.04852
1.01092
1.04899
1
1.02715
1.04587
0.960174
1.04622
1.01087
1.027
1
1
1
1.04356
1.04399
1.0258
1
1
1.0411
0.982077
1.04145
0.95853
1
1.03693
1.03732
1
1
1
0.911175
1
1.03271
1.04249
1.03946
1
1.03297
1
1.03322
1
1
1.03362
1.03375
1.03009
1.03042
1.02347
1.03523
1.02755
1.03587
1.02816
1
1.01819
1.02326
1.02376
1
0.970783
1.02121
1.02143
1.15679
1
1
1
1.01845
1.02204
1.01845
0.936893
1.03054
1.02543
0.950307
1.01508
1.01599
1.04011
1.04445
1.02266
0.967365
0.966501
1
1.02451
1.11989
1.00904
1
0.954085
1.00806
0.961113
1.02988
0.943969
1
1
1
1.02504
1
1
1
1
1
1.02505
1
1
1
0.973966
0.969346
1
1.0161
0.924916
0.957808
1
1
1
1
1
0.938522
1
1.02438
1
1.04083
0.971875
1.04209
0.962684
1
0.931609
0.935082
1.04526
1
1
1
1
1
1.04332
1.0418
0.959112
0.946244
0.946538
1
0.978325
1
1
1.04315
1.03985
0.999434
1.02344
1.02455
1.00001
1.01817
1.01998
1
1.04423
0.960354
1.02365
1
1.02461
1.00336
1
1
1.02635
1.02716
1
1.00341
0.942539
1
1
1.05163
1.05202
1.0233
1
0.943015
0.944275
0.936327
1.01291
1
1.03287
1.02299
0.961001
1.09204
1
1
1
1.03972
1.03999
1
1.00196
1
1.01981
1.03574
1
1.01032
1.03599
1.01961
1.02477
1.02353
1
1.02357
1.03536
0.953571
1.02291
0.957508
1.02624
1
1
1.02655
1
1
1.02603
1.02371
1
1.00119
0.970465
1.03284
0.969761
0.971331
0.999994
0.966575
0.966148
0.957475
0.956823
1
1
1.02492
1
1
1.02735
0.974074
0.968916
1
1
1.03635
1
1.03371
1.03635
1.05373
1.09096
1.0293
1.00188
1
0.999969
1
1.02467
1.0351
1.02551
0.944196
1
1.01752
1
1.03483
1.03463
1.01741
1
1.03141
1.02856
1.03111
1
1
1
1
1.029
1.03384
1
1.01287
1
0.965892
1
0.966765
0.954508
0.940579
1
0.997428
0.997349
0.932808
1.10593
1
0.96833
1.02167
1.02183
0.968977
1
1
1.02424
0.935197
1
1
1.03439
0.930659
1.0282
1.02597
1
1
1
1
1
1
1.12958
1
0.95772
0.96622
0.961976
1.0245
0.944669
0.937609
0.945874
0.973521
1.03145
0.956339
0.941856
1.0597
1.06203
1.0651
1.05722
1.05997
1
1.0153
1.06248
1.0676
1.05762
1.02399
1.06556
1.04839
1.05464
1.06805
1
1.06968
1.05495
1.06988
1
1.05006
1.07087
1.07201
1.07264
1.05062
1.07823
1.07497
1.04723
1.08018
1
0.999533
1.04759
1
1.04491
1.00002
1
1
0.996009
1.04506
1
1
1
1.04235
1.04589
1
1
1
1.04259
0.995152
0.94735
1.03847
1
0.995908
1.03879
1.03418
1.03465
0.966432
1.03153
1.03201
1.0291
1
0.951186
1.02932
1
1.02496
0.94227
1
1
1.02534
0.97819
0.945668
1.02225
1.02231
1.01939
1.0116
1.01993
0.942097
1.0174
1
1.03915
1.01132
1.01769
1.01465
1.01025
1.0246
1.01814
1.03627
1.03726
0.937553
1.01466
1.04423
1.04418
0.958985
0.948995
0.943649
1
0.949765
1
0.949309
0.950056
0.947635
1
1.1203
1.02651
1
0.993943
0.992423
1.03214
1.03422
1
1.02512
1.0447
1.0471
1.02631
1.02864
1.04323
1.04538
1.04394
1.04258
1.01587
0.967055
1.03533
1.02637
1
0.996063
0.972179
0.960411
1.01164
1
1.05808
1.04304
0.942712
1
0.991023
0.933143
1.00108
0.990762
1
1.08038
1
0.986012
1.01126
1.02431
1.0423
1.01476
1.01621
0.963105
1.0101
1.00187
1.01021
1.03878
0.938091
0.944928
0.968618
0.955118
0.996716
1.04628
1.03905
1
1.04623
1.06629
0.986873
1.00584
1
1
1
1.03094
1.02515
1
1
0.946057
1.00674
0.956853
1
0.937252
1
1.03002
0.988998
1
1
0.929391
0.959272
1.07416
0.960618
1.03568
1.03588
1.00002
1.04773
1.03373
1
0.989558
1
1.01115
0.987898
0.993939
0.972702
1
1
0.995492
0.992037
1.03546
1.02717
1.03066
1.03084
1
0.987196
1.03521
1.0239
1.02379
0.956705
1.01219
1
0.990477
0.977857
1.03249
0.952493
1.03334
1.04324
1
1
1
0.973448
1.03
1
1.02247
1.03029
1.02898
1.03038
0.968128
1.02244
0.93176
0.937997
1.05602
1
1
0.992006
1.06079
1
1
1
1.027
1
1.02752
0.931554
1.01842
0.99273
1
1
0.992812
1
1.07861
1.02482
1.07672
1.07982
1
0.978063
1.07761
1.02709
0.993169
1.05497
1
0.935737
1.07254
1.06477
0.993091
1
1.05255
1.07354
1.06778
0.999974
1.03338
0.94321
1.00003
1
0.9692
1.06856
1
1.05982
1.03958
1
1
0.939598
1.06348
0.985536
1.03105
1.06947
1.00406
0.955369
1.06466
1.06392
1.06421
1.02659
0.984971
1
1.03883
1.00375
1.03973
1.04291
1
1.05843
1
1
1
1.05892
1
1
0.981791
1.0161
1
0.98294
1.05926
1.03558
1.02764
1
1.01837
1
1.03458
1
1
1
1
1
1.01249
1
1
1
1
1
1
0.926532
0.943248
1
1.00892
1
1
1
1.01933
0.980875
0.955062
1
0.952103
1.03987
1
1
1
1.03737
1.00005
1.04501
1.00001
1.06747
0.966265
0.963425
1
1.06521
1
1
1.06727
1
1.07288
1.07165
1.03303
1.06677
1
1
1.05966
1.06004
0.968603
1.05738
1
1.05788
1.0406
1
1.05555
1
0.983408
0.984348
0.969911
1.05467
0.966213
0.981265
1
1.05587
0.986928
0.988108
1.04162
1.04355
0.952661
1.04377
1.04122
1.01295
1.04302
1.04337
0.982107
1.05164
1.05297
1.02318
1.08065
1.04215
1.06883
1.05335
1.04299
0.981796
1.044
1
0.989871
1.04378
1.05518
1.07796
0.968273
1.03428
1.04358
1.09016
1.00268
1.09344
0.967414
1.09475
0.980385
1
1.04209
0.959082
1.00272
1.03015
1.08978
1.04442
1.02953
1
1.03095
1.06324
1
1
0.945189
1
1
1.03154
0.978613
1
1.08518
1.08165
1.08559
1
0.964639
1.03946
1.04357
1.04328
0.936666
1.0824
1.02862
1.04155
1.05601
0.983253
1.06003
1.07853
1.05049
1.07917
1.07311
1
0.981166
1
1.00798
1
0.945246
1.01877
1.07366
1.04493
1.03173
1.04533
1.03307
1.06335
1.04102
1.02712
0.972782
1.05718
1
1.068
1.06854
1
1.04618
1
1
1
1
1
0.978664
1
0.980562
0.944802
0.964171
1.06168
0.945529
0.963829
1.0638
0.957454
1
0.945594
0.980211
0.986094
1
1.01961
1.04343
1
1
1.07133
0.945494
0.975057
0.972882
1.03873
1
1
0.938523
1.00777
1.02575
1.0541
0.94056
1
1
1
1.08055
1
1.05988
1.06063
1.02688
0.945004
1.05349
1.05694
1
1.02296
1.05752
1.07787
1.0412
1
1.07036
1
1
1.04296
1.05424
1.0328
1.06567
0.945321
1.06946
1.07224
1.05295
1
1
1.03967
1.00146
0.998349
0.998491
1
0.955452
0.99919
1
1.04515
0.946797
1
1.04845
0.917602
1.04906
1
1
0.998153
1.05722
0.946865
0.965632
0.933011
0.988034
0.980139
0.984405
0.946631
1.03422
0.998177
0.990371
1
1.04597
0.946579
0.946333
0.986919
1.05041
1.04816
0.978812
1
1
0.990314
0.989792
0.937865
1
1.03725
0.952989
1.0407
1.03912
1.0411
0.984682
1.03793
1.05487
0.934982
1.05506
0.942101
0.979187
1.03814
0.983733
1.01996
0.943399
0.979024
1.04141
1
0.982675
1.03281
0.958725
1.07397
0.969974
1.02974
1.04396
1.0739
0.945965
1.03348
0.990606
1
1.04266
1.03385
1.05531
1.06227
1
0.993137
1
1.02419
0.980522
1.0403
0.951488
0.947351
1
0.947129
0.962991
1.03047
1
0.946849
1.0289
1.03979
1.08863
1.03025
0.947524
0.974552
0.986734
1.03903
1.08928
0.950941
1.02205
1.02611
1
1.02649
1
1.02564
1.07067
1.02288
0.961185
1.06432
1.03177
1
0.94885
1.07655
1.04143
1
0.945323
1.07736
1.0502
1.13089
1.03117
1
1.01468
1.07522
1.01882
1
1.07135
1.0197
1
1.04961
1.07203
1.02829
1.08551
1.06625
1.0153
0.982872
1
1
1.06692
0.954587
1
0.958915
1.02816
1.05011
1.05123
0.960132
1.0306
0.983164
1
0.963938
1.08374
1
1
1.05556
1.08283
0.959784
0.974954
1.01064
0.946803
0.94461
1.03914
0.981578
1.01166
1.00784
1.03839
1.0645
1.04389
1.00844
1.03575
0.974826
1.03061
1.03092
1.02466
1.0252
0.958641
1
1.03893
1.08454
1.00533
1.05887
1.08384
0.963685
1
1.00589
0.996541
1.02822
0.97119
1
1
1.04273
1.04338
0.985763
1.03072
1
1
1.03117
1.03433
0.996739
1
1
0.924489
0.99987
1.00016
1.07196
1.02721
0.965637
1.00491
0.997303
1
0.965263
0.996866
0.978285
0.961732
1.03966
1.04263
1.10278
1.05182
1.02713
1.05487
0.990731
1.05454
1.0525
0.939637
1.02033
1.02599
1
1.00368
1
1
0.990106
0.986241
0.994742
0.987664
1.07189
1.04196
1
1
0.993574
1.04323
0.969152
0.98023
0.988607
0.968459
1.03318
1.0382
1.04401
0.970957
0.956515
0.98689
1.08487
0.963245
1
1.00992
1.03942
0.970268
1.08539
0.992607
1.02601
1
1
1.02505
1.00171
1.07508
1
1.00001
1.00031
1
1.03563
0.978562
0.972957
0.972136
0.987511
1.03623
0.980013
1
0.972489
0.973306
1
0.957434
0.9706
0.9806
1.02404
1.0263
1
1
1.03885
0.980977
1.03227
0.974845
0.975133
1.0838
0.973321
1.04244
1
1.02838
1
1
1.02027
1.02417
1.03104
1.02892
1
0.950441
1.01054
0.978312
1.05648
0.976387
1.06308
0.983582
1.05997
1
1
0.969337
0.979882
1.03951
0.977324
1
1
0.96706
0.97484
0.963539
0.977317
1.02092
1.03432
0.992898
1
1.05282
1
1.02135
1
1.05862
1.02627
0.93724
1
1.0196
1
1
1
1
1
1
1.06022
1.05698
1
1.05919
1.05396
1
1.03276
1.07505
1
1.01126
1.0325
1.09062
1
1
0.973493
0.961905
0.980569
1.03747
1.0543
1.05248
1.00948
1.03408
1.04728
1
1
1
1
1.04051
1.01441
1.09603
1.03686
1.04104
0.979491
1.0143
0.972803
0.983634
1.00463
1.0836
0.944598
1.0915
1.02579
1.08178
1.02711
1
1.02377
0.94362
1.04051
1
1
1.03882
0.94277
0.98504
1.00614
0.941868
1.08664
1
0.973307
1
1.01683
0.937854
0.94259
1.04171
0.968554
0.983917
1.02421
1.08421
1.03263
1.08742
1.01684
1
1.04077
1.03331
0.970749
1.07467
1.07121
1.01521
1
1
1.03515
1.0801
1.04535
1.06467
1.08409
1.04004
0.955913
1.04349
1
1.04467
1.04288
1
1.08062
0.997006
0.955582
1.07535
1.03436
1.04155
1.0195
1.06959
1.01859
0.992015
1
0.995425
0.993248
1.07017
1.01928
1
0.995867
1.02311
1.03482
1.04155
1.06521
1.03564
0.988529
1
1.02388
1
0.989443
0.94399
1
1
1.08295
0.9378
1.05379
0.944884
1
1
1.05526
1.04369
1.04131
0.943669
1
1.0391
1
0.985993
1.07692
0.985041
1.03395
0.941723
1.00349
1
1.05839
1.02825
1.0357
0.998866
0.985979
1.03901
1.02234
1.00256
1
1.06174
1.00783
1.0751
1
1.05893
1.05594
1
1.04301
0.979662
1.00701
0.936652
1.06236
0.950377
1.01326
1.03656
1.04695
0.999483
1.05012
1.01226
0.936609
1.11196
0.936794
1
1
0.999881
1.00421
0.935175
1.05081
1.0139
1.04751
1.03914
1.06269
0.99939
1.08551
1.04909
1.03927
0.980428
1.06435
1.02759
0.999255
1.03299
1.01347
1.02356
1.04186
1.07922
1.02695
1.03711
1.03775
1.04235
1.03983
1.04024
1.05726
1.03512
0.942619
1.02173
1.05736
1.03157
1.04315
1
1
1.0409
1
1
1.00524
0.966509
1.03217
1.03449
1.05309
1.06166
1.07516
1
1.01444
1.07288
0.981224
1.04284
0.984735
1.03479
0.944612
0.951772
1.03251
0.966961
1.10902
0.961822
0.985836
1.0425
0.981795
1.02406
1.10842
1.03727
1.08202
0.973326
1.02719
1
1
1.02442
1
1.02926
1
1.03619
1.02757
1.02514
1.02805
1.02337
1.10295
0.982342
1
1.05701
1.03953
1.04731
1.03796
1.10386
1.05947
1.03748
1.01615
1
1.03154
1.02047
1.00876
1.01839
1.03946
0.969184
0.956562
1.09767
1.03125
1.0415
1.03868
1.02053
1.04237
0.9926
1.01736
1.00667
1
1.09862
1.04162
0.992006
0.989899
1.01758
1.00801
1.01355
0.96892
0.98102
1.02654
1.02025
0.986312
1
1.04085
1.03036
0.991086
1.03515
0.994867
1.09249
1
1.01316
1.00924
1
1
1
1
1.09346
1.06031
1.00665
1.0607
0.988695
1
1.01383
0.991845
1.03775
1.03401
1.00978
1.02594
1.02531
1.03372
0.985304
1
1
0.999951
1.04732
1
1
0.988767
1.04163
1.00709
1.08848
1.01957
1.03826
1
1.03528
1.03625
1.0354
1.04293
1.04591
1.01973
1
1.00344
0.98075
1
1.08936
0.999347
1.04395
1.04071
1.04478
1.00437
0.979635
0.935081
1.0655
0.93246
1.04942
1.04652
1
1.03404
1.03794
1.04809
1.02591
1
1
1.03407
0.99923
0.981707
0.941274
1.04251
1
1.08224
1.04848
1.05356
0.98325
0.998569
1.05165
1.05244
1.01939
0.943662
1.08314
1.05052
0.982129
0.994639
0.990527
0.981474
1.06842
0.992385
0.943258
0.991338
1
1.00357
1.03498
1.01493
1.00668
0.985916
1.05631
1.08486
0.981977
1.0157
1.03484
1.01582
0.970383
1.02845
0.985911
1.05522
0.986001
0.980667
1.00771
0.974823
1.03609
1.03383
1.03725
1.03482
1.05461
0.978921
1.03309
0.977872
0.964402
0.98794
1.03217
0.988552
1.07081
1
1.01619
1
0.985445
1.0716
1
1
0.981885
1.05935
1
0.989418
1.03291
1.08547
1.02594
1.00002
0.941891
1
0.975606
0.989242
1.06536
0.987201
1.01305
1.06609
1.0133
1.04106
1.04125
1
0.937692
1
1.0618
1.03404
1.06063
1.00981
0.974595
1.05581
1.06269
1.05592
1
0.973707
0.939292
1.05826
1.06699
1.06048
1.03499
1.0079
1.05898
1.01191
1.036
1.05787
0.974877
1
0.989829
1.08388
0.979163
0.94207
0.999787
1.05533
0.958689
0.978669
0.951263
0.994073
1.05607
1.03915
1.03036
1
1.00949
1.0096
1.10541
1.05975
1
1.05188
1.03773
1.04139
1.05887
1
1.10642
1.0525
1.04328
0.991316
1.0618
1
1
1.06065
1.04906
1.06362
0.942612
1.06272
1.04957
1
1.01054
1.02107
0.998242
1.04575
0.990331
0.953326
0.951722
1.06836
1.04671
1.05816
1.03824
1
1
1
0.990753
1.04291
1
1.00187
0.936938
1.06433
1.02986
1.04169
1.03626
0.98496
1.0434
1.03966
0.999666
1.04619
0.941748
1.00521
1.03697
1
0.93648
1.04032
0.98338
0.934274
1.04186
1.04077
1.06536
1.00493
1.06928
1.06819
1
0.984351
0.947497
1.03971
1
1
1.00934
0.999999
1.06729
0.958384
1.04049
1.04105
1
1.04549
1.04357
1.00784
1.08642
1.01173
0.934945
1.03664
1.04359
0.989473
1.06628
1
0.989402
0.990803
1.01145
1.08722
1.03726
1
0.980337
0.966933
1.04086
1.07048
1.03263
1.03789
1.07168
1.04075
1
1.01545
1.01713
1.02874
1.13306
1.05914
1.0851
1.03374
1.03234
0.996866
1.05662
1
1
1.03741
1.01624
1.03448
1.04437
0.986654
1.01886
1.03353
1.07986
0.987446
0.999999
0.940452
1
0.939955
1.01795
1.03021
1.03092
0.997451
1
1
1.07284
1.07719
1
1
1.02382
0.996907
1.03111
1.07508
1.02294
1.01959
1.026
1.02705
1.04112
0.990043
1
1.01997
1.02692
0.988737
0.990656
0.957272
1.02628
1.04036
1
1.03971
1
1
1.08485
0.990265
1.00427
1.06908
1.02269
1.0847
0.990618
1
1
1.02329
1.08642
1.04895
0.942601
1.03172
1
1.06983
1.02205
1.03104
1
1
1
1
1.03425
1
0.989516
1.0183
1.04483
1.03242
1.01937
1.00002
1.03302
1
1
1
1.03759
1.01581
1.01632
1
1.03519
1.03705
0.965363
1
1
0.960108
0.989096
1
0.974098
1.04065
1
1
1
1
1
1.01109
1
0.994652
1.03949
1
1.05043
1.0391
1
1.01196
0.93285
1
0.971671
1.03876
1
1
1.04996
1.0546
1
1
1
0.960891
0.960644
0.993739
1.04501
0.943773
1.0522
1
1
0.994728
1.04974
1.02743
0.961262
1.04398
1
0.998841
1
1.0528
1.05782
0.997761
1
0.959982
0.999994
1
0.965965
0.941395
1.04905
1.00146
1
1.05167
1
0.991873
0.974436
1.04955
0.941
1.01345
0.946203
1
0.956518
0.980926
1.05077
0.988371
1.1071
1.03434
1.04837
1.00231
1.0059
0.965524
1.0583
1.007
1.00083
1
1
0.966877
0.960186
1.03307
0.946626
1.05414
1.10488
1.08333
1
1.05317
1.08585
0.978536
1.05776
1.10006
1.04381
1.00485
0.981778
0.996392
1.05585
1.10452
1.0351
1.05693
1.00391
1.03128
1.03133
0.961962
1.01214
1.09509
0.977833
0.963815
1
1.02881
1
1
0.958674
1.0626
1.10135
1.01102
1
1
1.01206
1.03327
1
1.0906
1
1.0623
1.02945
1
0.929192
1
1.0612
1
1.03731
0.957058
1
1.0962
0.935834
1.06153
1
0.960225
1
0.93669
1.00825
1.0003
1.06536
1.00761
0.950794
1.06576
1.02203
0.9729
1.06264
1.08434
1.09123
1.01209
1.06478
1.06488
0.954946
1.0222
1.04156
0.974292
1
1.05136
1
1.08397
0.991642
1.069
1.06834
0.95018
0.997338
1.00705
1
1.01754
1.03782
0.991872
1.00317
0.986188
1.08529
1.01286
1.00474
1
1.01475
1.06735
1
1
1
1.06802
1.00549
1.03149
1.01524
1.0063
1
1.0717
1.08129
1.05383
1.07126
1.00977
1
1.08479
0.954513
1.07102
1.0726
1.01027
1.05317
0.999454
1
0.982075
1.06998
0.989548
1.07878
1.06715
0.991266
0.991693
0.991089
1.10075
1.07341
0.991645
0.957284
1
1.05011
1.07454
1.03549
1
1.07649
1
1.06199
1.03616
0.980867
1.06639
1.06369
1.02867
0.986485
1.04917
1.05771
1.05664
1
1.02733
0.98627
0.97193
1.02776
1.07572
1
1.068
1.07382
1.05999
0.986394
0.989571
1
1.07098
1.05696
1.09249
1
1.054
0.972819
1.05106
1.0627
0.985217
1.06443
1.05689
1.01554
1.05755
1.06707
1.0372
1.07734
1.04863
1
1.03306
1.06062
1.06079
1.05338
1.0515
0.960405
1.07581
1.08093
1.07181
1.03207
1.01854
1.07013
1
1.07608
1.05744
1.06002
1.05033
1
1.08013
0.991275
1
1.09422
1.05431
1.04773
1.06494
1
1.07623
0.994042
1
1.05103
1.08454
1.04411
1
1
1.06335
1.04833
1
1.08299
1
1.04141
1.07423
0.995277
1
1.04482
1
1.03804
0.958305
1.00008
1.02187
1.06303
1.04215
1.03528
1
1
1
1.0337
1.07255
0.991267
1.03883
1.03605
1.03175
1.04569
0.957633
1.00487
1.05291
1.00002
1
1.03605
1.03456
1.0049
1
1.03339
1.05366
1
1.0359
1.01317
0.967149
1.0134
1.04788
1.0406
1.02776
1.04504
1.03828
0.989817
1.03272
1.03136
1.02663
0.966026
1.04046
1.03626
1
1.09302
1.04744
0.991314
1.02401
1.07096
0.935833
1.04012
0.990482
0.98306
1
1.02819
1.04816
1.05114
1.03542
1.04807
1
0.936443
1.02067
1.02873
1.05016
1.02481
1
1
1.04741
1.01692
1.05047
1
0.946658
1
1
0.933898
1.04961
1
1.02135
1.06384
1.03281
1
0.986688
1.03069
1.05026
1.01317
1
1.01738
0.93185
0.989228
0.996541
1.06093
1.04377
1.03968
1
1.05234
1.05728
0.941811
1
1
1.00853
0.943754
1.01395
1.06213
1.03904
1.04958
1.0517
1
1.04146
1.05622
1
0.935239
1.00916
1.0049
0.975131
0.930406
1
0.987904
1
1.05234
1.04239
1
1
1.03374
1.02736
1.03339
1.05303
0.942465
1
1
0.978133
0.935751
1.04269
1.0239
1.08093
0.966542
1.05174
0.933972
1.05549
1
1.04219
1
1.05492
1
1
0.936378
1
1.05436
1.00674
1
0.933939
1.04509
1.03374
0.95856
1.08447
1.04265
1
1.03127
1.04902
1
1.05372
1
1.03954
1.05225
1.0445
0.987259
1.04066
1
1.02873
1.03743
1.11136
1.06085
0.944719
1
0.984889
0.944431
1.05842
0.98617
1
1
0.990989
1.03906
1
0.946468
1.04325
1.0474
1.03894
1.05631
0.942053
1.05777
1.0019
1.00954
1.02021
1.00121
1.00132
0.986428
1.04663
1.01894
0.981073
0.988504
1.04487
1
1.05574
1.00852
1
1
0.97496
1
1.06032
1.02592
1.03489
1
1.04984
1.05987
1.02639
0.979277
0.95611
1
1.05835
1.02658
1.0831
0.934441
1.04904
1.02667
1.02959
0.980598
1.02754
0.955206
0.940926
0.940804
0.986528
0.943278
1.0578
1.05449
1
1.03289
1
0.96522
0.992886
1.07205
1.06878
1
1.04615
0.94492
0.989534
0.934439
1.05246
1.03508
0.943287
1
1.03547
0.992496
1.06293
1.04165
1.05129
1.06513
1
1
1
1.03111
1.02588
1.05169
0.964619
1.04908
0.957979
1.06151
1.00536
1.06952
1.02687
1.07304
1.05023
1.03589
0.987905
1
1
0.939874
1
1.05539
1.00572
0.968446
1.02399
1.01545
0.999249
1.0307
1
1.03409
1
1
1.03774
1.05503
1.01631
1.06398
0.98243
1.05436
1.03865
1.09122
0.979019
0.967567
0.923009
1
0.99002
1.05438
1.01342
1.01498
1.03017
1.01224
0.948965
1.01422
1
1.03285
1.02964
0.970932
1.00005
1.02984
0.978445
1.00231
0.98964
1
0.949195
0.942884
1.02228
0.999091
0.990999
1
1
1.0149
1
1
1.02915
1.04442
0.989088
0.978422
0.970212
1.02921
1.02246
1.05729
1
1
0.960448
0.978265
1.01553
1.00536
1.0323
1
1.02655
0.941465
1.01268
0.986434
0.977404
0.94001
1
1.04286
1.02966
1.02607
1.05668
0.997863
1
1
1.08489
1.02355
1.05813
1.02416
1.03303
1.06348
1.00497
0.997866
1
1.02101
1.01684
1.05716
1
1.0119
0.98411
0.956302
1
0.998805
1.03355
0.94403
0.98575
0.959734
1.03171
1.05369
1
1.04351
1.02421
1.06907
1.03475
1.00883
0.943484
0.940085
1.01977
1.06432
1.03383
0.975492
1.02809
1
1.0365
1
0.957058
1
1.06397
1.03339
0.941469
1
1.01019
1.05928
0.985147
1
1.05289
0.982194
1
0.984573
0.975008
1.02731
0.979986
1.03484
1.05083
0.955968
1.05866
1.02314
1.02709
0.95675
0.981333
1
1.03416
0.993355
0.996939
0.988107
0.991342
1
0.941551
1.03712
1.00359
0.999317
1.02186
0.979152
1
1.03409
1.03325
1.03725
1.03062
0.98034
0.982936
0.979517
1.04659
1.02981
1.0218
0.987352
1.0423
1.03463
1.00007
0.967141
1
0.978901
1.04279
1
1.02466
1
0.975854
1.00343
1
1.03674
1.03059
1
1.0446
1
0.995372
1.04408
1.04145
1.03974
1
0.939942
1
1.04666
1.09786
1.01813
1
1.02539
1.05804
1.03042
1.03783
1.00304
0.961877
0.992141
1.00319
1
1.07499
0.981989
1
0.977947
1.04058
0.960616
1.01839
1.06844
0.938507
1.06233
0.979341
1
1.03852
1.05949
1.04584
1.02744
0.999148
1
1.05142
0.999982
0.981742
1
1.06157
1.03105
0.975315
1.00006
1.03286
1.04006
1.0587
1
1.05226
1.09611
1.06005
1.02024
0.986149
1.0505
0.984775
1.02693
1.07057
1
1
0.983122
1.0037
1.04856
1.04026
1.05716
0.984151
0.977844
1.05294
0.96014
1
0.977049
0.99848
1.06
1
0.984253
0.986896
0.936154
1.02777
1.05915
1
1
0.989949
0.942929
1.04949
0.918128
1.04319
1.03734
1.05028
0.937218
1.0777
1.04373
1.06127
1.07056
0.938199
1.00901
1
0.976464
1.09071
1.05834
1
0.976771
1.00289
0.951258
1.05124
1.03887
1.043
1.02047
1.04165
0.958641
1.02496
1.06673
0.994396
1.06968
1.06714
1.04291
1.07327
1.06455
1.0756
1
0.979369
1.06048
1.05575
1
0.980402
1.02816
1.02313
1.06563
1.02077
1.04462
0.940924
1.02784
1.02123
1
1.02833
1.07995
1
1.04684
1.02146
0.981238
0.99071
1.02437
1
0.991432
0.976327
1.03166
1.02788
1.00714
1.03695
1.04916
1.02516
1.0244
1
1.07596
0.975677
1.05136
1.03116
1.00648
1.03202
1.05134
1.0884
1
1.03091
1.05401
1.06908
1
1.06581
1.0722
0.989986
1.06352
1
1.05963
1.07452
1.02468
1
1.05015
1.00639
1.07302
1.07904
1.05656
1.04394
0.96664
1.03594
1.05332
1
1
1.06453
1.05733
1.04417
0.978874
1.0393
0.974286
0.961135
1.01076
1.0057
1.00704
0.996858
0.988975
1.03163
1.04004
1.04611
0.973474
0.968004
0.990205
1.04752
1.00507
1.01479
1.07215
1.04857
1
1.00607
1.02175
1.05557
1.07137
1.05529
0.978714
1.0536
1.00699
1.07067
1.05071
1.02948
1.07733
1
1.04621
1.01833
0.977404
0.933665
1.00593
1
0.960344
0.965957
1.04119
0.972826
0.95735
1.01899
1.06636
1.03711
1.05277
0.972785
1.08729
1.02001
0.996025
1.03989
0.946041
1
1.0766
1.05733
1.03958
1.0896
1.01623
1
1
0.97255
1.02344
1.01812
1
0.975078
0.943222
1.04069
1.03933
1.00746
0.978645
1.0381
1.05475
1.04147
1.04397
1
0.977484
1.01709
1.0376
1.0783
1
1
1.01094
1.02881
0.999948
1.06693
1.04224
1.00185
1.02043
1.06696
1
1
0.997157
0.992687
0.971827
1.00125
0.995969
0.970871
1.02157
1.0567
1
1.03935
1.04805
1
0.943232
0.99649
1.04544
1.0142
1
0.96056
0.9433
0.99555
1.01401
0.946671
1.03699
1.03893
1.01044
1.02572
1.02184
0.964724
0.995712
1.02891
1
1.03126
1.02855
1.03748
1.05879
0.966951
0.969389
0.99528
1.00289
1
1.02454
0.999999
1.04647
1.05642
0.921465
0.962078
0.965222
0.968317
1
0.99598
1
0.991558
0.960317
1.00326
0.967007
1.04497
0.967469
1.06336
1.01929
1.09599
1
1.01494
0.963651
0.972326
0.959054
1.06737
1.06516
1
1.03592
0.967289
1.07774
1
1.00428
1
1.06042
0.99528
1.01972
1.00886
1
0.928971
0.990086
0.963405
1.03519
1
1
1.04315
1.01528
1.03111
1.03417
1.03635
1.06029
1.05498
1.06665
1.03342
1.0263
0.936558
0.971687
1.05559
1.05976
0.998992
1
0.974777
0.976605
1.00852
1.06322
0.957868
0.999999
1.01173
1
1.009
1.00809
1.0132
0.987526
0.991613
0.938386
1.05344
1.00001
1
0.938943
1
0.959023
1.01352
1.05668
1
1.01322
1.01573
1
1
0.959812
1.03625
0.957881
1.05282
1.03346
0.949759
0.979931
1.04375
0.991152
1.00999
1.07178
1.08724
1
1.05962
1.04685
1.01194
1
1.09768
0.946422
1.0529
1.06109
1
1.01218
1.05623
1.02912
1.07273
1.03775
1
0.996973
1
1
1.03381
1.01634
0.977239
1.04903
0.999656
1.01582
0.983847
1
0.995495
1.04201
1
1
1.06369
1.05041
0.930099
1.07472
1
1.0348
0.994921
1.05204
1
1.06415
1.00606
1.05651
1.05593
0.996251
1
1.01511
0.947209
1.04178
1.01526
1
1.03841
1.06293
0.979885
1.05855
1.02858
1.05047
0.992907
0.986358
1.01
0.987275
1.0945
1.02097
1
1
1.07455
1.09009
1.06018
1
1.01388
1.01105
1.05567
1.00976
1
1.05595
0.96406
1
1.01119
0.985676
1.03391
1
1.04177
1.04128
1
0.94221
1
1.02991
0.979977
1
1.01993
0.991219
1.03415
1.0044
1
1.03895
0.932852
1.02193
0.989711
0.970265
1.01143
1
1.02055
1.04209
1.03972
1.06977
1
0.939593
1
1.02279
1.044
1.09977
1
0.962834
1
1.03765
1
0.997671
1.03178
1.0401
0.933607
1
1.04913
0.956221
0.990819
1.06718
1.04606
1.06339
1.02688
1.02216
0.980803
1
1
1.00876
1.04103
1.02631
1.05173
1
1.08467
1.04184
1.00776
0.978167
1.01271
1.06717
1
1.02846
1
0.991176
1.06686
1.06087
1.06145
1.07785
0.967652
1.04849
1.09618
1.04318
1.08567
1.06228
1.05014
1.04638
0.996575
0.99077
1.00433
0.962027
1.05046
0.991114
0.999927
1.02771
1.02587
1
1.03848
1.0606
1.0454
1.05114
1.07252
1.03044
1.00782
0.980047
1.03295
1.06048
0.988456
0.997061
0.939411
1.08061
1.06175
1.0678
0.988199
1
0.949459
1.06792
0.952018
1.03718
1.01986
1.0397
1.04786
1.05621
1.03257
0.955714
1.02976
1
1.02971
1.08151
1.0299
1.05385
1
1
1.04426
0.945527
1.05856
1.06394
1.06014
0.946747
1.03408
1.02285
1.06135
1.00989
1.04676
1.04704
1.03129
1.05047
0.956114
1.02886
1
0.985071
0.977996
0.978209
0.989152
1.06611
1.04797
0.996799
1.03543
1
0.994646
1.0562
1.01732
1.03295
1.03494
1.04706
1.00666
0.952745
0.956949
1.05964
1.02891
1.00633
1.03694
1.02256
1.05314
1.0982
1.03364
1
1.01208
1.0475
0.963041
1.05526
1.03615
1.01025
0.933901
1.00546
1.03041
0.976065
1.00791
1.02159
1.02555
1.0257
0.980623
1.05637
0.934965
1.05301
1
1.09933
1
1.02812
1
1
0.999999
1
1.0744
1.03635
1.0583
1.03271
1.05795
1.00823
1.05146
1.02345
1
1
1.0335
1.03047
1.05551
1
0.98744
1.05053
1.0305
1.03992
1
0.935294
1.00003
0.958786
0.934348
1.05683
0.983509
1
1.03908
0.9796
1.05265
0.949088
1
1.05786
1.05193
0.961671
1.00723
1.03885
0.937574
1.05297
0.955653
0.999565
1.05765
0.952393
0.949289
0.978893
0.95611
1.05458
1
1.04334
0.958961
1.02215
1.06124
1
1.04255
1.04307
1.01784
1.05145
0.952872
0.959137
1
1.0741
0.955198
0.949432
1.03004
1.04979
1.04753
1.05014
1
1.05345
1
1.04821
1
1.04272
1.01735
0.939271
0.973862
1
1
1
1.04944
1.09493
1.04567
1
1
1.04513
1.01887
1
1.08898
0.957715
1.05043
1.03373
0.980816
0.982958
1.03952
1.01583
1.04591
1.05053
1
1.08961
0.977242
1.03652
1
0.978057
1
0.953746
1.05079
0.954855
0.994681
1.05308
1.00808
1.05126
1
1.00203
0.980698
1.06066
1.01127
1
0.98783
1.08625
1
1.06788
0.991957
0.969699
1.05189
1.07536
0.977955
0.95866
1.07122
0.983306
1
1.04497
1
1.0012
1.03739
1
1
1
1.02731
0.98538
0.966948
1.06789
1.065
1.04955
0.990203
1.03127
0.964866
1.05629
1
0.988668
0.958627
1.05464
0.963051
1.03077
0.996856
1.05015
1.04846
0.97845
1.03365
0.967306
1.00778
1.02851
1
1.02282
1.02859
0.964421
0.976918
1.05385
0.973271
1
1
1.05393
1.02906
0.98053
0.951767
1.03079
1.05191
1
1.03244
1.03415
0.988707
0.996365
1.01317
1.05532
1
0.982948
1.05096
1.0055
0.95306
0.976041
1.05431
1.04875
1.08004
1.00001
1
1.05012
1
1
1.03958
1
1.04925
1.08533
1.00151
1
0.988251
1
0.980834
0.968852
1
1.0012
0.987124
0.995571
1.09162
0.994036
1.08621
1.01521
1.05708
1.01112
1.05228
1.08852
1
1.0617
0.977134
1.08877
1.03334
1
1.06237
1.06435
0.98819
1.01412
1.03493
1.00372
0.939649
0.965527
0.996438
0.980582
1.04345
1
1.03211
1
0.993604
0.966214
1
1
1
0.985738
1
0.988045
0.954865
1.00445
0.968423
1.06973
0.990554
1.02177
0.999677
1.08863
1.05152
0.993794
1
1.05943
1.08274
1
1
1
1.06667
1.08973
1.04067
1
1
0.991001
0.999998
0.962658
1.01093
1.06103
1.00052
1.02144
1.01788
1.06943
1.05565
1.06323
1
1
1.03852
1.05931
0.948309
1
1.07978
1.07445
1.06087
0.946414
1.0615
1.016
1.03153
1
1.08486
1.00026
1.03431
1.00596
0.97823
1.05744
1.03907
1
1
1.05893
0.938566
1.03746
1
1.03769
1.02685
1.0799
1
1.08834
1.03071
1
1
1.02808
1.05461
0.995465
1.06595
1
1.07313
1.05408
1.05578
1.00411
1.07671
0.958203
1.03172
1
1.06716
0.959047
1.07843
0.969386
0.996671
0.999118
0.956741
0.996637
1.00323
1.03021
1.02735
1.08172
1.02426
0.943661
0.996047
0.958917
1.03551
1
1.07633
1.05234
1.05086
1
1
0.958637
1.07945
1.07293
0.95638
1.02869