/*--------------------------------*- C++ -*----------------------------------*\
  =========                 |
  \\      /  F ield         | OpenFOAM: The Open Source CFD Toolbox
   \\    /   O peration     | Website:  https://openfoam.org
    \\  /    A nd           | Version:  12
     \\/     M anipulation  |
\*---------------------------------------------------------------------------*/
FoamFile
{
    format      ascii;
    class       volVectorField;
    location    "4.3";
    object      U;
}
// * * * * * * * * * * * * * * * * * * * * * * * * * * * * * * * * * * * * * //

dimensions      [0 1 -1 0 0 0 0];

internalField   nonuniform List<vector> 
46253
(
(1.29401 -0.00377137 0)
(1.2 4.65777e-13 0)
(1.2 -7.13507e-09 0)
(1.2 4.2235e-13 0)
(1.2 1.04699e-08 0)
(1.2 -6.065e-10 0)
(1.32894 -0.0236434 0)
(1.16932 0.00493739 0)
(1.2 -3.98324e-14 0)
(1.2 -7.12763e-14 0)
(1.29196 -0.00485617 0)
(1.31681 -0.0814848 0)
(1.2 -8.157e-08 0)
(1.2 -1.53548e-08 0)
(1.2 4.36902e-14 0)
(1.2 4.91724e-15 0)
(1.2 9.86726e-14 0)
(1.2 2.62649e-13 0)
(1.2 -3.18638e-13 0)
(1.2 3.73437e-13 0)
(1.2 3.39878e-13 0)
(1.2 6.41842e-11 0)
(1.2 -2.64993e-14 0)
(1.31588 -0.00177953 0)
(1.34137 -0.0310642 0)
(1.2 1.91982e-13 0)
(1.2 1.75218e-13 0)
(1.2 2.60737e-13 0)
(1.2 1.90753e-13 0)
(1.16886 0.00477544 0)
(1.11796 0.0517322 0)
(1.19928 2.96022e-05 0)
(1.19964 -0.00167373 0)
(1.2 1.51931e-13 0)
(1.2 2.41401e-16 0)
(1.2 -5.47272e-14 0)
(1.2 -6.4175e-11 0)
(1.2 1.58974e-09 0)
(1.1798 0.0170887 0)
(1.2 2.10837e-14 0)
(1.33687 -0.0579388 0)
(1.31658 -0.0813346 0)
(1.20003 -2.42843e-05 0)
(1.20007 -3.10201e-05 0)
(1.34687 -0.113665 0)
(1.2 -3.50341e-12 0)
(1.2 1.97732e-12 0)
(1.2 -5.63027e-14 0)
(0.85464 0.0144262 0)
(0.852788 0.0210918 0)
(0.896256 0.0122024 0)
(0.898629 0.0107422 0)
(1.2 -9.80582e-14 0)
(1.16886 0.00434165 0)
(1.19998 -1.87617e-05 0)
(1.27565 -0.0438298 0)
(0.932403 0.00536019 0)
(0.938375 0.00407796 0)
(1.03644 0.0770862 0)
(1.34047 -0.0755291 0)
(1.2 5.41131e-14 0)
(1.31839 -0.114533 0)
(1.2 -2.00323e-14 0)
(1.2 1.61258e-14 0)
(1.2 -1.22115e-15 0)
(1.2 4.15915e-07 0)
(1.2 3.15118e-06 0)
(1.2 -5.15011e-13 0)
(1.27383 -0.0428038 0)
(1.34412 -0.111384 0)
(1.32855 -0.0223386 0)
(0.947917 0.00437033 0)
(0.949211 0.00452875 0)
(1.18584 0.0280497 0)
(1.2 1.22578e-13 0)
(1.31202 -0.00241812 0)
(0.987364 0.00139406 0)
(0.988857 0.00102452 0)
(1.2 -8.53382e-14 0)
(1.19258 0.0163178 0)
(1.14441 0.0231401 0)
(0.964838 0.0036222 0)
(1.2 1.42126e-13 0)
(0.966231 0.0036672 0)
(1.32774 -0.0410611 0)
(1.2 -1.04608e-13 0)
(1.02505 0.00134845 0)
(1.02661 0.00105255 0)
(1.16573 0.00170012 0)
(1.2 -2.40597e-14 0)
(1.2 -5.67856e-14 0)
(1.3381 -0.0579754 0)
(1.2 -6.8602e-14 0)
(0.921942 0.006632 0)
(1.2 -8.43152e-14 0)
(0.927558 0.00804338 0)
(1.2 -3.66339e-14 0)
(1.2 -1.07697e-13 0)
(1.0386 0.0766943 0)
(1.2 -2.18712e-14 0)
(1.2 -6.00404e-14 0)
(1.2 -6.32369e-14 0)
(1.2 1.58182e-13 0)
(1.12066 0.0506994 0)
(1.20001 9.49869e-06 0)
(1.34155 -0.0388219 0)
(1.31331 -0.0790396 0)
(1.05656 0.000381509 0)
(1.05797 0.000101255 0)
(1.30144 -0.0676166 0)
(1.18099 0.0119781 0)
(0.954902 0.0033789 0)
(0.959179 0.00293334 0)
(1.2 -9.21952e-14 0)
(1.2 4.02388e-14 0)
(1.1693 0.000772151 0)
(1.34066 -0.104856 0)
(1.33973 -0.0760628 0)
(0.913808 0.0795894 0)
(1.26672 -0.0369064 0)
(1.2 1.20553e-13 0)
(1.2 1.17766e-10 0)
(0.971396 0.00282068 0)
(0.974273 0.00282065 0)
(1.2 5.47104e-14 0)
(0.907911 0.0742795 0)
(1.2 8.88865e-14 0)
(1.28674 -0.0550888 0)
(1.20733 -0.00225002 0)
(0.998145 0.000862978 0)
(1.0769 -0.000690665 0)
(1.07813 -0.000917829 0)
(1.2 -4.20549e-10 0)
(1.33864 -0.0203497 0)
(1.00016 0.000316995 0)
(1.2 -1.16767e-13 0)
(1.00925 0.000304074 0)
(1.01089 0.000386905 0)
(1.2694 -0.0396248 0)
(1.2 -2.90674e-14 0)
(0.982395 0.00172728 0)
(1.08855 -0.000889339 0)
(1.08982 -0.000817718 0)
(1.12678 0.0477924 0)
(0.981722 0.00190891 0)
(1.19945 -0.000165309 0)
(1.02004 0.000909482 0)
(1.02146 0.00100918 0)
(1.18014 0.0161045 0)
(1.2 -8.82893e-14 0)
(1.30295 -0.0684417 0)
(1.2 2.18291e-14 0)
(1.00366 0.000689203 0)
(1.00572 0.000739978 0)
(1.15245 0.0371771 0)
(1.3464 -0.109956 0)
(1.28787 -0.0555268 0)
(1.2 -9.55377e-14 0)
(1.03467 0.000763059 0)
(1.2 1.27418e-07 0)
(1.03615 0.000633016 0)
(1.31372 -0.0790234 0)
(1.27858 -0.0456921 0)
(1.2 -9.42481e-14 0)
(1.33789 -0.0339056 0)
(1.01479 0.00101201 0)
(1.33928 -0.0191081 0)
(1.01633 0.00110997 0)
(0.811185 0.0417327 0)
(1.2 -2.04676e-14 0)
(1.04395 0.000418682 0)
(1.04529 0.000360088 0)
(1.2 -1.13381e-11 0)
(1.3362 -0.0527884 0)
(1.2 -6.3227e-07 0)
(1.35588 -0.115423 0)
(1.18353 0.0246861 0)
(1.2 1.09272e-13 0)
(1.1855 0.0269861 0)
(1.33812 -0.102804 0)
(1.2 1.02041e-06 0)
(1.1535 0.0366002 0)
(1.05257 0.000240131 0)
(1.05377 0.000217787 0)
(1.2 -1.30665e-13 0)
(1.02988 0.000955275 0)
(1.03172 0.00128994 0)
(1.34825 -0.115016 0)
(1.2 2.20407e-13 0)
(1.2 -2.33305e-13 0)
(1.2 -6.74237e-15 0)
(1.2 -2.02185e-14 0)
(1.32504 -0.0975891 0)
(1.2 7.80004e-14 0)
(1.2 1.21556e-13 0)
(1.2 1.68475e-14 0)
(1.18114 0.0127955 0)
(1.2 3.7137e-14 0)
(1.14783 -0.00135093 0)
(1.1485 -0.00130992 0)
(1.2 5.095e-14 0)
(1.2 -1.90368e-14 0)
(1.03941 0.000757847 0)
(1.04057 0.000747939 0)
(1.2 -4.93898e-14 0)
(1.3448 -0.107774 0)
(1.15622 0.0347284 0)
(1.06534 -0.000105798 0)
(1.06638 -0.000233415 0)
(1.2 -4.07503e-14 0)
(1.2 6.10382e-14 0)
(0.912748 0.084005 0)
(1.33781 -0.0524553 0)
(1.2 7.31536e-14 0)
(1.18351 0.0244847 0)
(1.2 -1.12361e-13 0)
(1.12967 0.0468566 0)
(1.33866 -0.0473376 0)
(1.07299 -0.000577903 0)
(1.2 1.53341e-12 0)
(1.2 -3.85967e-13 0)
(1.07416 -0.000822305 0)
(1.35727 -0.117301 0)
(1.04833 0.000682098 0)
(1.04951 0.000702771 0)
(1.34158 -0.0488047 0)
(1.2 -2.37548e-13 0)
(1.2 -6.39187e-15 0)
(1.16429 -0.0020218 0)
(1.16533 -0.00198165 0)
(1.07444 0.067675 0)
(1.2 -3.68459e-14 0)
(1.2 -4.13287e-14 0)
(1.2 4.19306e-14 0)
(1.2 2.31718e-14 0)
(1.2 7.87039e-14 0)
(1.2 7.08862e-14 0)
(1.2 -5.23097e-14 0)
(1.07642 0.0670776 0)
(1.06195 0.0710558 0)
(1.2 -1.15255e-13 0)
(1.2 -7.43726e-14 0)
(1.2 2.37299e-13 0)
(1.2 1.74822e-13 0)
(1.2 -1.01314e-13 0)
(1.2 3.77198e-13 0)
(1.2 -7.89061e-14 0)
(1.15727 0.0340527 0)
(1.2 3.28937e-13 0)
(1.08479 -0.00100865 0)
(1.08601 -0.00111746 0)
(1.06451 0.0706859 0)
(1.18037 -0.00262429 0)
(1.2 -8.10861e-14 0)
(1.18134 -0.00248434 0)
(1.0608 2.40975e-05 0)
(1.06245 0.000209574 0)
(1.25985 -0.0317541 0)
(1.33481 -0.0651547 0)
(1.2 6.5284e-14 0)
(1.32708 -0.0106086 0)
(1.33606 -0.0692594 0)
(1.30372 -0.0700951 0)
(1.12504 0.0486375 0)
(1.17819 0.0334558 0)
(1.2 8.98316e-14 0)
(1.2 4.07965e-14 0)
(1.2 1.31344e-14 0)
(1.06908 -0.000190597 0)
(1.0966 -0.0013113 0)
(1.07007 -0.000147981 0)
(1.2 6.2406e-14 0)
(1.2 6.5529e-14 0)
(1.2 4.27692e-14 0)
(1.09781 -0.00164674 0)
(1.2 -1.90212e-13 0)
(1.19975 0.000361545 0)
(1.2 -1.38693e-13 0)
(1.16859 0.00361751 0)
(1.24727 -0.0212693 0)
(1.19612 -0.00266109 0)
(1.19671 -0.00258527 0)
(1.2 3.93833e-13 0)
(1.2 1.35226e-14 0)
(1.2 1.33028e-13 0)
(1.3231 -0.0998853 0)
(1.34864 -0.0855785 0)
(1.26745 -0.0363628 0)
(1.13553 0.0440455 0)
(1.2 1.83072e-14 0)
(1.04364 0.075731 0)
(1.04545 0.0752431 0)
(1.33628 -0.0502143 0)
(1.2 1.3908e-14 0)
(1.04974 0.0741267 0)
(1.09496 0.060438 0)
(1.2 -2.37359e-13 0)
(1.09781 0.0599949 0)
(1.33987 -0.0511679 0)
(1.10362 -0.00189299 0)
(0.923787 0.0841246 0)
(1.10501 -0.00214901 0)
(1.28324 -0.0518712 0)
(0.926465 0.0739501 0)
(1.2 2.7647e-13 0)
(1.08075 -0.00114832 0)
(1.08195 -0.000772753 0)
(1.2 -2.81347e-14 0)
(1.1267 0.0494474 0)
(1.2 2.84841e-13 0)
(1.2 -8.42448e-14 0)
(1.18014 0.0268241 0)
(1.2 4.34865e-14 0)
(1.11082 -0.00155868 0)
(1.2 -1.14559e-14 0)
(1.11197 -0.00193168 0)
(1.27749 -0.0420825 0)
(1.05155 0.0735533 0)
(1.2 -8.4808e-14 0)
(1.16844 0.00298228 0)
(1.28601 -0.0547522 0)
(1.2 -5.32795e-14 0)
(1.33143 -0.0258059 0)
(1.33991 -0.0301065 0)
(1.17995 0.0173919 0)
(1.13884 0.0428979 0)
(1.2 5.87047e-14 0)
(1.2 1.46627e-13 0)
(1.11749 -0.00143965 0)
(1.11888 -0.0016451 0)
(1.22237 -0.0027718 0)
(1.22327 -0.00242242 0)
(1.2 2.08437e-13 0)
(1.2 -3.99864e-14 0)
(1.2 2.48367e-13 0)
(1.33239 -0.109907 0)
(1.26339 -0.0337265 0)
(1.09283 -0.00121308 0)
(1.09405 -0.000752942 0)
(1.2 -6.32473e-14 0)
(1.2 -7.16885e-14 0)
(1.2 3.35986e-14 0)
(1.2 -4.91316e-14 0)
(0.906759 0.0624869 0)
(1.2 -2.55056e-13 0)
(1.12456 -0.00131346 0)
(1.12576 -0.00144783 0)
(1.2 -1.23863e-13 0)
(1.26881 -0.0395451 0)
(1.2 4.27995e-14 0)
(1.17908 0.0116345 0)
(1.2 -1.82683e-13 0)
(1.34446 -0.107115 0)
(1.2 -4.76964e-14 0)
(1.31137 -0.0758283 0)
(1.2 -1.07372e-13 0)
(1.10055 -0.00176537 0)
(1.2 -6.21812e-14 0)
(1.10111 -0.00151387 0)
(1.2 -2.48999e-14 0)
(1.31282 -0.0760072 0)
(1.2 -2.40059e-13 0)
(1.2 2.63572e-13 0)
(1.2 -2.05509e-13 0)
(1.2 3.89808e-14 0)
(1.2 -1.36072e-13 0)
(1.2 -1.45487e-13 0)
(1.2 1.28804e-13 0)
(1.13092 -0.00109189 0)
(1.2 1.73352e-13 0)
(1.2 1.6203e-13 0)
(1.2 -1.79264e-13 0)
(1.2 -5.83633e-14 0)
(1.13208 -0.0015732 0)
(1.2 -6.6371e-14 0)
(1.0557 0.0728212 0)
(1.27334 -0.0405164 0)
(1.2 9.03187e-14 0)
(1.2 5.96612e-14 0)
(1.2 -5.51946e-15 0)
(1.34385 -0.0478662 0)
(1.34485 -0.0641681 0)
(1.28507 -0.0542222 0)
(1.10808 -0.00190481 0)
(1.16739 0.0038988 0)
(1.1087 -0.00120437 0)
(1.2 -1.5903e-13 0)
(1.2 8.50217e-15 0)
(1.13771 -0.00127904 0)
(0.88941 0.0772442 0)
(1.2 2.2759e-13 0)
(1.13373 0.044754 0)
(1.13903 -0.00152744 0)
(1.35555 -0.0925765 0)
(1.2 4.20566e-14 0)
(1.16936 0.00528459 0)
(1.16608 0.0296172 0)
(1.16773 0.0305861 0)
(1.2 1.15134e-13 0)
(1.13215 -0.0239026 0)
(1.2 -1.20908e-15 0)
(1.2571 -0.00163936 0)
(1.25601 -0.00169401 0)
(1.05787 0.0721588 0)
(1.2 1.18981e-13 0)
(1.20148 0.00206627 0)
(1.2 -2.9651e-13 0)
(1.2 -6.95856e-14 0)
(1.2 6.09671e-14 0)
(1.2 2.33718e-13 0)
(1.2 -7.31114e-14 0)
(1.2 -5.92659e-14 0)
(0.947392 0.0831583 0)
(1.2 -2.42373e-14 0)
(1.13499 -0.0230615 0)
(1.2 -3.91985e-09 0)
(1.3168 -0.10329 0)
(1.2 6.65698e-14 0)
(1.2 1.98645e-13 0)
(1.25977 -0.0312693 0)
(1.2 4.92245e-09 0)
(1.2 -3.39502e-15 0)
(1.14503 -0.00106721 0)
(1.2 -2.12942e-13 0)
(1.11482 -0.00161002 0)
(1.2 9.10919e-14 0)
(1.2 -1.09023e-13 0)
(1.14598 -0.00149069 0)
(1.11535 -0.000957755 0)
(1.2 2.33758e-13 0)
(1.18147 0.0254396 0)
(1.2 -1.22328e-13 0)
(1.2 4.83843e-15 0)
(1.2 -2.43976e-13 0)
(1.2 -1.89125e-13 0)
(1.16039 -0.035938 0)
(1.1699 0.00355595 0)
(1.2 2.2626e-13 0)
(1.2 -4.40396e-13 0)
(1.16895 0.00451062 0)
(1.28437 -0.0533616 0)
(1.2 -8.26219e-10 0)
(1.34822 -0.0853918 0)
(1.2 3.33839e-13 0)
(1.15776 -0.0345104 0)
(1.14923 0.0383724 0)
(1.2 -1.23525e-13 0)
(1.2 2.71863e-14 0)
(1.27156 -0.0367576 0)
(1.2 5.97415e-14 0)
(1.24595 -0.020617 0)
(1.12976 -0.0224627 0)
(1.2 -1.82169e-14 0)
(1.31841 -0.105755 0)
(1.2 -2.78059e-14 0)
(0.985238 0.077668 0)
(1.1731 0.00774873 0)
(1.20215 -0.00118986 0)
(1.12177 -0.00150414 0)
(1.15299 -0.0349849 0)
(1.2 9.42242e-14 0)
(1.1549 -0.0355652 0)
(1.15397 -0.0351582 0)
(1.12239 -0.000879039 0)
(1.2 9.63009e-14 0)
(1.1559 -0.0356229 0)
(1.2 -1.16227e-13 0)
(1.2 -2.33903e-13 0)
(1.2 3.13166e-08 0)
(1.2 -1.04761e-13 0)
(1.2 -2.30106e-13 0)
(1.19205 0.0288151 0)
(1.2 -9.87011e-14 0)
(1.17257 0.00743902 0)
(1.28269 -0.0521333 0)
(1.15473 -0.00150913 0)
(1.25443 -0.0265544 0)
(1.16075 0.0325207 0)
(1.15606 -0.00185427 0)
(1.1789 0.0331895 0)
(1.27509 -0.00522464 0)
(1.27655 -0.00477571 0)
(1.2 6.55017e-14 0)
(1.2 -1.11861e-13 0)
(1.2 -5.28486e-14 0)
(1.2 2.74613e-14 0)
(1.20647 -0.0059582 0)
(1.2 9.74951e-15 0)
(1.2434 -0.0188919 0)
(1.34273 -0.0473989 0)
(1.33105 -0.0940594 0)
(1.24166 -0.0176369 0)
(1.15452 -0.034802 0)
(1.33994 -0.0800792 0)
(1.15603 -0.034716 0)
(1.2 -1.03988e-13 0)
(1.2 9.74402e-15 0)
(1.12835 -0.00107679 0)
(1.13912 -0.0248446 0)
(1.3029 -0.0696867 0)
(1.12898 -0.000492898 0)
(1.16229 -0.0014513 0)
(1.1629 -0.00211206 0)
(1.28525 -0.00287395 0)
(1.33456 -0.0639602 0)
(1.2 1.42654e-13 0)
(1.28524 -0.00223854 0)
(1.122 0.0498155 0)
(1.2 -3.62554e-14 0)
(1.2 4.20078e-14 0)
(1.2 5.29847e-14 0)
(1.33587 -0.0700333 0)
(1.2 7.94972e-12 0)
(1.16666 0.00350733 0)
(1.31641 -0.101206 0)
(1.2 2.37251e-14 0)
(1.2 8.94006e-16 0)
(1.15061 -0.030051 0)
(1.2 2.17875e-13 0)
(1.2 -5.65487e-14 0)
(1.30953 -0.0984463 0)
(1.3247 -0.175168 0)
(1.13479 -0.0227624 0)
(1.2 -1.80332e-13 0)
(1.2 1.12265e-13 0)
(1.1344 -0.0228619 0)
(1.2 -2.77905e-14 0)
(1.1344 -0.0232369 0)
(1.12931 -0.018915 0)
(1.13411 -0.0231545 0)
(1.2 4.4816e-14 0)
(1.18021 0.0207725 0)
(1.18164 0.0220749 0)
(1.2 6.9421e-14 0)
(1.15403 -0.0355094 0)
(1.14093 -0.0238389 0)
(1.2 -1.66305e-13 0)
(1.2 1.28032e-13 0)
(1.13448 -0.00143571 0)
(1.2 -1.62857e-14 0)
(1.32687 -0.00368659 0)
(1.2577 -0.0283994 0)
(1.2 4.25308e-14 0)
(1.2 -3.79401e-14 0)
(1.13539 -0.000961212 0)
(1.2 -9.37607e-14 0)
(1.2 5.79891e-14 0)
(1.2 1.1862e-13 0)
(1.2 4.28968e-14 0)
(1.33367 -0.0986243 0)
(1.2 -1.51381e-13 0)
(1.2 -1.23286e-13 0)
(1.17217 -0.00204377 0)
(1.25326 -0.0260336 0)
(1.17324 -0.00238619 0)
(1.33958 -0.074064 0)
(1.2 1.65801e-12 0)
(1.2 -7.43602e-14 0)
(1.2 4.98376e-10 0)
(1.2 -1.43758e-10 0)
(1.2 -2.4866e-13 0)
(1.2 2.77032e-07 0)
(1.2 -6.19251e-14 0)
(1.1555 -0.0351711 0)
(1.32855 -0.0916352 0)
(1.2 1.56561e-13 0)
(1.2 -1.551e-13 0)
(1.2 -3.98998e-14 0)
(1.2 -3.68837e-12 0)
(1.2 2.30099e-13 0)
(1.2 2.63238e-14 0)
(1.32909 -0.00824008 0)
(1.13092 0.0461919 0)
(1.2 -1.25121e-13 0)
(1.14054 0.0422692 0)
(1.2 3.42995e-14 0)
(1.2 3.49866e-14 0)
(1.28442 -0.0521081 0)
(1.2 1.32326e-13 0)
(1.2 -1.1719e-14 0)
(1.2 -1.73442e-13 0)
(1.14175 -0.00119354 0)
(1.2 3.97068e-13 0)
(1.2 -7.3395e-14 0)
(1.14271 -0.000652442 0)
(1.14329 0.0408217 0)
(1.10611 0.0552327 0)
(1.2 -5.3182e-14 0)
(1.10394 0.0560493 0)
(1.10341 0.0561026 0)
(1.10163 0.0571016 0)
(1.17001 0.000218493 0)
(1.2 -9.41481e-14 0)
(1.17911 -0.00199685 0)
(1.17939 -0.00288312 0)
(1.13521 0.0454498 0)
(1.16494 0.00115325 0)
(1.2 -1.96182e-13 0)
(1.2 -1.6139e-13 0)
(1.18633 0.0279124 0)
(1.2 1.15894e-13 0)
(0.928389 0.0681616 0)
(1.18286 0.0266455 0)
(1.2 -1.27882e-10 0)
(0.921684 0.0753399 0)
(1.17402 0.007465 0)
(1.2 -3.18273e-13 0)
(1.12737 0.0482891 0)
(1.12283 0.0506547 0)
(1.2 2.32854e-14 0)
(1.2 -1.50824e-15 0)
(1.16943 0.00130578 0)
(1.15106 -0.0341578 0)
(1.2 2.64116e-13 0)
(1.2 -9.22142e-14 0)
(1.17546 0.0262229 0)
(1.20004 9.44009e-07 0)
(1.2 -2.22723e-06 0)
(1.14997 0.0242015 0)
(1.16917 0.0168752 0)
(1.0351 0.0690792 0)
(1.03301 0.0692188 0)
(1.04104 0.0699064 0)
(1.03928 0.0698561 0)
(1.35384 -0.117921 0)
(1.15784 -0.0337669 0)
(1.04642 0.0686959 0)
(1.36929 -0.102761 0)
(1.04536 0.0689087 0)
(1.05241 0.0678667 0)
(1.2 2.16635e-13 0)
(1.33317 -0.00833213 0)
(1.30705 -0.00705208 0)
(1.05116 0.068052 0)
(1.2 5.63646e-14 0)
(1.05938 0.0675775 0)
(1.2 7.08365e-14 0)
(1.05763 0.0673774 0)
(1.2 -9.53827e-14 0)
(1.15278 -0.0314109 0)
(1.06575 0.0668017 0)
(1.2 -6.81561e-14 0)
(1.06452 0.066956 0)
(0.984099 0.0840603 0)
(1.2 2.61149e-13 0)
(1.07116 0.0651821 0)
(1.2 -1.58753e-13 0)
(1.07004 0.0654538 0)
(1.2 -1.5902e-13 0)
(1.33116 -0.096306 0)
(1.2 -7.31344e-14 0)
(1.24972 -0.0240081 0)
(1.31041 -0.00462037 0)
(1.2 -8.02675e-14 0)
(1.2 -1.7033e-13 0)
(1.07731 0.0635842 0)
(1.07628 0.0638691 0)
(1.2 -1.88161e-13 0)
(1.13817 -0.0258282 0)
(1.08391 0.061975 0)
(1.08279 0.0621321 0)
(1.17433 0.0250939 0)
(1.2 1.39891e-13 0)
(1.2 5.02799e-14 0)
(1.09433 0.0603511 0)
(1.18797 -0.0023613 0)
(1.09296 0.0603423 0)
(1.2 1.68857e-13 0)
(1.1508 -0.00191737 0)
(1.10029 0.0585928 0)
(1.28248 -0.0496845 0)
(1.09954 0.0589982 0)
(1.18902 -0.00293181 0)
(1.15193 -0.00145673 0)
(1.2 -1.87267e-13 0)
(1.2 2.04658e-13 0)
(1.2 5.51555e-14 0)
(1.10587 0.0565132 0)
(1.10528 0.0568408 0)
(1.16871 0.00144145 0)
(1.2 -2.59622e-13 0)
(1.2 -1.16471e-13 0)
(1.11185 0.0542273 0)
(1.23747 -0.0146819 0)
(1.11107 0.0545581 0)
(1.28569 -0.0538584 0)
(1.2 2.83245e-13 0)
(1.12091 0.0506408 0)
(1.1201 0.050839 0)
(1.2 -3.11613e-13 0)
(1.2 -1.00403e-13 0)
(1.2 -1.75954e-13 0)
(1.32139 -0.11856 0)
(1.2 -6.89041e-15 0)
(1.14016 -0.023541 0)
(1.11593 -0.018548 0)
(1.116 0.0527208 0)
(1.2 9.29376e-14 0)
(1.13057 0.0472038 0)
(1.2 5.49369e-14 0)
(1.12932 0.0475015 0)
(1.2 2.79814e-14 0)
(1.2 -1.49866e-13 0)
(1.13796 -0.0226524 0)
(1.13764 -0.0222777 0)
(1.13614 0.0451851 0)
(1.13531 0.0452095 0)
(1.15967 -0.0360505 0)
(1.13211 -0.0201413 0)
(1.14211 0.0434589 0)
(1.12968 -0.0195116 0)
(1.14159 0.0435745 0)
(1.2 -2.62919e-13 0)
(1.16556 0.0304455 0)
(1.15086 0.039668 0)
(1.15047 0.0400014 0)
(1.2 -7.07932e-14 0)
(1.26428 -0.0344246 0)
(1.15754 0.0375598 0)
(1.15685 0.03784 0)
(0.803195 0.0189827 0)
(1.2 2.42869e-13 0)
(1.2 3.54529e-13 0)
(1.2 -4.59896e-14 0)
(1.16274 0.0339311 0)
(1.16108 -0.035608 0)
(1.16142 0.0342683 0)
(1.32407 -0.178596 0)
(1.16971 -4.33334e-05 0)
(1.15398 -0.0352752 0)
(1.30055 -0.0673033 0)
(1.16885 0.0319701 0)
(1.16764 0.0313276 0)
(1.12006 -0.0167683 0)
(1.11347 -0.0153196 0)
(1.15487 0.0151729 0)
(1.2673 -0.0386019 0)
(1.27191 -0.0418658 0)
(1.2 -9.28992e-14 0)
(1.17723 0.0111023 0)
(0.919063 0.0631702 0)
(1.19633 -0.00196638 0)
(1.2 -8.32206e-14 0)
(1.29732 -0.0635013 0)
(1.1963 -0.00272831 0)
(1.28123 -0.0474007 0)
(1.16897 0.000380507 0)
(1.32946 -0.000854961 0)
(1.2 -2.42434e-09 0)
(1.2 -1.81072e-13 0)
(1.2 -6.18311e-09 0)
(1.159 -0.00135217 0)
(1.2 -1.59115e-13 0)
(1.2 -1.95187e-13 0)
(1.2 -1.73843e-14 0)
(1.2 2.06335e-13 0)
(1.2 -2.74759e-13 0)
(1.16014 -0.000765283 0)
(1.2 1.29524e-13 0)
(1.2 -1.33964e-13 0)
(1.2 -8.48721e-14 0)
(1.25748 -0.0288431 0)
(1.26522 -0.0332394 0)
(1.2 1.26216e-13 0)
(1.16879 0.0276886 0)
(1.35493 -0.118829 0)
(1.30046 -0.00289659 0)
(1.2 2.0402e-14 0)
(1.2 -7.06473e-15 0)
(1.2 5.45445e-14 0)
(1.2 -5.36487e-08 0)
(1.2 7.85981e-14 0)
(1.36798 -0.0983376 0)
(1.2 1.50566e-13 0)
(1.15839 -0.0345451 0)
(1.2 -2.03065e-11 0)
(1.11074 0.0546318 0)
(1.27333 -0.00249425 0)
(1.1086 0.0550679 0)
(1.27668 -0.0435341 0)
(1.2 2.95668e-14 0)
(1.35062 -0.0915453 0)
(1.33853 -0.0558621 0)
(1.10157 0.0571372 0)
(1.2 -1.01182e-07 0)
(1.2 -8.20226e-14 0)
(1.2 -1.66745e-13 0)
(1.2 1.69823e-13 0)
(1.2 -6.91846e-14 0)
(1.1064 0.0557471 0)
(1.10886 0.0556053 0)
(1.32031 -0.0656322 0)
(1.32704 -0.00324994 0)
(1.32928 -0.00106032 0)
(1.2 -1.11542e-13 0)
(1.24944 -0.0235455 0)
(1.2 2.52812e-13 0)
(1.2 3.3288e-14 0)
(1.10668 0.0559667 0)
(1.12295 -0.0205647 0)
(1.20139 -0.000816238 0)
(1.1747 0.0108127 0)
(1.14532 0.020106 0)
(1.19996 1.06845e-05 0)
(1.16804 0.0294171 0)
(1.16357 0.0317371 0)
(1.2 -1.12671e-13 0)
(1.10427 0.0564735 0)
(1.2876 -0.0534596 0)
(1.1572 -0.0371351 0)
(1.2 -7.62504e-14 0)
(1.15657 -0.0349376 0)
(1.20337 -0.00226995 0)
(1.2 -3.11794e-14 0)
(1.2 2.23376e-06 0)
(1.15511 -0.035386 0)
(1.15147 -0.0303307 0)
(1.2 -5.41905e-09 0)
(1.20473 -0.00282037 0)
(1.31043 -0.172827 0)
(1.2 9.50238e-10 0)
(1.2 -5.7754e-15 0)
(1.08749 0.0614056 0)
(1.08607 0.061526 0)
(1.15828 -0.0342357 0)
(1.2 -8.30204e-14 0)
(1.30835 -0.16973 0)
(1.30911 -0.169049 0)
(1.33996 -0.0532512 0)
(1.20235 0.0371367 0)
(1.2 9.26108e-14 0)
(1.13714 -0.0244685 0)
(1.1687 0.00475604 0)
(1.28458 -0.0518781 0)
(0.989337 0.0838645 0)
(1.2 -1.08865e-13 0)
(1.2 1.38741e-13 0)
(1.2 1.27118e-13 0)
(1.11467 0.0529973 0)
(1.11367 0.0532221 0)
(1.2 -3.08408e-08 0)
(1.19693 0.000190238 0)
(1.2 -6.60781e-14 0)
(1.16784 -0.00255315 0)
(1.12439 0.0494381 0)
(1.2 1.82433e-13 0)
(1.18199 0.00844746 0)
(1.1232 0.0498277 0)
(1.16907 -0.002148 0)
(1.15557 -0.0349916 0)
(1.15816 -0.0368664 0)
(1.2 -9.62345e-14 0)
(1.15984 -0.0355411 0)
(1.13225 -0.0232048 0)
(1.29723 -0.0638952 0)
(1.15935 -0.0358613 0)
(1.28677 -0.0534043 0)
(1.14526 0.0423843 0)
(1.2 2.51619e-13 0)
(1.2 8.14429e-14 0)
(1.144 0.0425194 0)
(1.2 6.8656e-14 0)
(1.2 1.92224e-13 0)
(1.15374 -0.0317008 0)
(1.15771 -0.0344272 0)
(1.2 2.60808e-13 0)
(1.21021 -0.00246872 0)
(1.26392 -0.0318496 0)
(1.13857 -0.0262673 0)
(1.27103 -0.0378611 0)
(1.26712 -0.035201 0)
(1.20914 -0.00306359 0)
(1.27059 -0.0378251 0)
(1.27316 -0.0391612 0)
(1.28747 -0.0552204 0)
(1.2882 -0.0560106 0)
(1.2 -1.89569e-13 0)
(1.2 -4.0117e-14 0)
(1.1595 0.00122697 0)
(1.2 7.41959e-14 0)
(1.2 -1.3633e-13 0)
(1.153 -0.0345567 0)
(1.25628 -0.0261026 0)
(1.26418 -0.0334095 0)
(1.2 1.45978e-13 0)
(1.2 -2.76755e-13 0)
(1.1302 -0.0229442 0)
(1.2 -2.95009e-14 0)
(1.13556 -0.0233777 0)
(1.13167 -0.0222321 0)
(1.07205 0.0420333 0)
(0.992582 0.0746359 0)
(1.1566 0.000699061 0)
(1.19913 0.00250387 0)
(1.2 4.72794e-14 0)
(1.19989 -4.34055e-05 0)
(1.2 9.11825e-14 0)
(1.1558 -0.032969 0)
(1.13239 -0.0207227 0)
(1.15992 0.000642872 0)
(1.30878 -0.167738 0)
(1.2 -1.33461e-13 0)
(1.17617 -0.00184837 0)
(1.2 3.70788e-14 0)
(1.13359 -0.0277887 0)
(1.13446 -0.0281939 0)
(1.1775 -0.00115628 0)
(1.2 -5.75433e-10 0)
(1.13891 -0.0303019 0)
(1.14684 -0.0334967 0)
(1.14004 -0.0305508 0)
(1.2 8.07286e-14 0)
(1.2 1.18214e-13 0)
(1.2 1.17416e-13 0)
(1.2 -1.7994e-13 0)
(1.14581 -0.0333013 0)
(1.13451 -0.0234698 0)
(1.2 1.06947e-13 0)
(1.17691 0.0233524 0)
(1.2 -1.95111e-07 0)
(1.27152 -0.038383 0)
(1.2 2.15667e-13 0)
(1.27215 -0.038279 0)
(1.29924 -0.00272204 0)
(1.33414 -0.0213948 0)
(1.2 4.94429e-15 0)
(1.21351 -0.00245898 0)
(1.21521 -0.00355012 0)
(1.33972 -0.0788322 0)
(0.953677 0.0844735 0)
(1.2 8.95833e-08 0)
(1.2656 -0.0340548 0)
(1.1769 0.0167098 0)
(1.17667 0.0153291 0)
(1.26545 -0.033693 0)
(1.2 2.69229e-12 0)
(1.2 -1.35206e-11 0)
(1.15646 -0.0366376 0)
(1.33018 -0.182269 0)
(1.2 1.07596e-13 0)
(1.2 1.24593e-13 0)
(1.13515 -0.0217175 0)
(1.33534 -0.100474 0)
(1.1712 0.000958879 0)
(1.15295 -0.0346713 0)
(1.2 4.29588e-15 0)
(1.2 -3.19159e-13 0)
(1.2 1.52661e-13 0)
(1.2 -1.80249e-13 0)
(1.2 -2.03667e-14 0)
(1.2 1.1754e-13 0)
(0.893322 0.0683281 0)
(1.2 9.74288e-14 0)
(1.29866 -0.00392145 0)
(1.27321 -0.0423514 0)
(1.278 -0.0452333 0)
(1.16464 0.00145527 0)
(1.30836 -0.164893 0)
(1.319 -0.18023 0)
(1.31054 -0.165692 0)
(1.26457 -0.0313895 0)
(1.16442 0.000799031 0)
(1.30231 -0.00246073 0)
(1.31028 -0.171968 0)
(1.06834 0.0659509 0)
(1.06264 0.0672543 0)
(1.0554 0.0674528 0)
(1.07439 0.0644809 0)
(1.0674 0.0663952 0)
(1.2 4.93915e-14 0)
(1.1863 0.0272255 0)
(1.06136 0.0673731 0)
(1.04944 0.0682974 0)
(1.07319 0.0647953 0)
(1.15743 -0.0362636 0)
(1.05413 0.0676393 0)
(1.09382 0.0594052 0)
(1.08072 0.0626782 0)
(1.04809 0.0684365 0)
(1.2 -1.4473e-13 0)
(1.04432 0.0690299 0)
(1.07947 0.063062 0)
(1.04341 0.0694671 0)
(1.2 -1.31469e-13 0)
(1.09093 0.060879 0)
(1.04055 0.075759 0)
(1.03852 0.0694214 0)
(1.03692 0.0691357 0)
(1.08983 0.0610102 0)
(1.02376 0.0723857 0)
(1.03138 0.0700411 0)
(1.09773 0.059651 0)
(1.0195 0.0728146 0)
(1.2 1.07944e-13 0)
(1.20276 -0.000981736 0)
(1.09658 0.0598913 0)
(1.2 -8.17883e-14 0)
(1.10332 0.0575039 0)
(1.19974 4.29953e-05 0)
(1.2 6.29881e-14 0)
(1.2 4.97625e-15 0)
(1.22294 -0.00271607 0)
(1.10225 0.0579701 0)
(1.2 -1.98291e-13 0)
(1.2 1.95749e-13 0)
(1.2 -2.57176e-13 0)
(1.10884 0.0553187 0)
(1.1009 0.0571906 0)
(1.2 1.74869e-13 0)
(1.2 -2.42946e-13 0)
(1.2 -2.29831e-13 0)
(1.1077 0.0556764 0)
(1.22275 -0.00309859 0)
(1.3061 -0.16125 0)
(1.11822 0.0517832 0)
(1.2 1.97067e-13 0)
(1.21092 0.00249952 0)
(1.11716 0.0521312 0)
(1.12714 0.0483022 0)
(1.12643 0.0484873 0)
(1.27718 -0.0432945 0)
(1.13368 0.0462032 0)
(1.13291 0.0463929 0)
(1.13959 0.0443561 0)
(1.2 9.61655e-14 0)
(1.31784 -0.00105893 0)
(1.13838 0.0445666 0)
(1.2 -1.50096e-13 0)
(1.14872 0.041234 0)
(1.33314 -0.011087 0)
(1.2 -1.23918e-13 0)
(1.2 -7.40783e-14 0)
(1.14773 0.0415583 0)
(1.24513 -0.0202398 0)
(1.30811 -0.160937 0)
(1.1543 0.0385662 0)
(1.15312 0.0387904 0)
(1.15908 0.0353673 0)
(1.18387 -0.00305687 0)
(1.15917 0.0358935 0)
(1.31102 -0.171312 0)
(1.16589 0.0326405 0)
(1.2 -1.12736e-13 0)
(1.12499 -0.0221548 0)
(1.18503 -0.00269199 0)
(1.16534 0.0329262 0)
(1.1731 0.0256934 0)
(1.1867 0.0194316 0)
(1.15778 -0.0347843 0)
(1.16525 0.0241583 0)
(1.12808 -0.0232898 0)
(1.12745 -0.0231181 0)
(1.3266 -0.0034529 0)
(1.17027 0.0305728 0)
(1.11282 -0.0196467 0)
(1.11388 -0.018931 0)
(1.30031 -0.00197453 0)
(1.30022 -0.154349 0)
(1.31257 -0.167349 0)
(1.2 -2.44455e-13 0)
(1.2992 -0.152455 0)
(1.2 -6.33648e-14 0)
(1.29989 -0.154031 0)
(1.30176 -0.152608 0)
(1.30367 -0.157851 0)
(1.2 4.21381e-14 0)
(0.911551 0.0735744 0)
(1.15725 0.0012118 0)
(1.2 -1.45273e-14 0)
(1.2209 -0.0274374 0)
(1.22591 -0.0263686 0)
(1.13594 0.0444851 0)
(1.13169 0.0464431 0)
(1.2 8.58446e-14 0)
(1.16542 0.000413699 0)
(1.10314 0.057391 0)
(1.09741 0.0587205 0)
(1.16327 0.000385248 0)
(1.17182 0.000583389 0)
(1.10683 0.0566763 0)
(1.10144 0.057555 0)
(1.10536 0.0568349 0)
(1.1068 0.0550418 0)
(1.18748 0.0294495 0)
(1.26958 -0.040171 0)
(1.13387 -0.0226354 0)
(1.15559 -0.0353619 0)
(1.2 1.53874e-13 0)
(1.20947 0.00509904 0)
(1.2616 -0.0296395 0)
(1.28249 -0.0488681 0)
(1.18288 0.0214287 0)
(1.2 4.3667e-15 0)
(1.07202 0.0653849 0)
(1.10646 0.0555012 0)
(1.3184 -0.0819143 0)
(1.2 -4.95792e-15 0)
(1.22992 -0.0029592 0)
(1.33494 -0.0661514 0)
(1.19938 0.0103686 0)
(1.23095 -0.0033824 0)
(1.2 -5.66311e-14 0)
(1.01629 0.0741101 0)
(1.2 1.80901e-13 0)
(1.23197 -0.0109875 0)
(1.18284 0.020603 0)
(1.16332 0.000327235 0)
(1.10867 0.0559874 0)
(1.17579 0.0249339 0)
(1.17157 0.0273354 0)
(1.27952 -0.128774 0)
(1.19221 -0.00222128 0)
(1.19633 0.0122068 0)
(1.19406 -0.00143201 0)
(1.12593 -0.0217466 0)
(1.34289 -0.0444125 0)
(1.32007 -0.0797252 0)
(1.26841 -0.0351867 0)
(1.29039 -0.141635 0)
(1.20779 0.00448409 0)
(1.09916 0.0582621 0)
(1.12265 -0.0177422 0)
(1.2 -1.42403e-13 0)
(1.0995 0.0580746 0)
(1.05182 0.0687457 0)
(1.22924 -0.0094232 0)
(1.18851 0.0175613 0)
(1.2 -3.31708e-13 0)
(1.2 -1.48901e-13 0)
(1.2 -1.92365e-14 0)
(1.14144 -0.0284877 0)
(1.14789 0.0157852 0)
(1.2 1.03197e-13 0)
(1.2 -1.06463e-13 0)
(1.30729 -0.160916 0)
(1.18563 0.0190219 0)
(1.2874 -0.0544283 0)
(1.2 1.81242e-13 0)
(1.33775 -0.0426727 0)
(1.2 2.14834e-13 0)
(1.14343 -0.0289716 0)
(1.22416 -0.00688059 0)
(1.2 6.14955e-14 0)
(1.2 1.91727e-13 0)
(1.3441 -0.158997 0)
(1.28455 -0.051489 0)
(1.03326 0.07006 0)
(1.28084 -0.0482331 0)
(1.13129 -0.0189643 0)
(1.13103 -0.0183649 0)
(1.1999 -5.49553e-05 0)
(1.09585 0.0589129 0)
(1.1367 -0.0232723 0)
(1.2 -1.58771e-11 0)
(1.23165 -0.0416592 0)
(1.2 3.51137e-13 0)
(1.17669 0.0229946 0)
(1.23578 -0.00261212 0)
(1.22159 -0.0279274 0)
(1.25648 -0.0272384 0)
(1.2 -1.33738e-13 0)
(1.2 -1.50758e-13 0)
(1.21037 0.00436715 0)
(1.22566 -0.027321 0)
(1.13108 -0.025895 0)
(1.15217 -0.0343823 0)
(1.13998 -0.0210273 0)
(1.13989 -0.0207402 0)
(1.2 -2.01916e-13 0)
(1.23615 -0.00294638 0)
(1.13008 -0.0248836 0)
(1.15803 -0.0357021 0)
(1.15911 -0.0356807 0)
(1.28749 -0.0553153 0)
(1.174 0.0244293 0)
(1.2 4.00836e-11 0)
(1.22296 -0.00502006 0)
(1.25236 -0.102686 0)
(1.13653 -0.0292739 0)
(1.3011 -0.0663403 0)
(1.13605 -0.0293617 0)
(1.10567 0.0555134 0)
(1.2 -3.93478e-14 0)
(1.2 -1.84723e-13 0)
(1.2 3.01876e-14 0)
(1.25746 -0.0272023 0)
(1.1437 -0.0323635 0)
(1.2 1.22191e-13 0)
(1.15949 -0.0355793 0)
(1.14259 -0.0316287 0)
(1.16429 8.65078e-05 0)
(1.16977 0.00037629 0)
(1.26625 -0.0344591 0)
(1.16068 -0.034963 0)
(1.3333 -0.189683 0)
(1.32817 -0.00482678 0)
(1.07697 0.0644642 0)
(1.2 -1.72639e-13 0)
(1.2 -1.04949e-13 0)
(1.21686 -0.00202451 0)
(1.06573 0.0663364 0)
(1.2 2.04857e-13 0)
(1.2 3.30672e-13 0)
(1.2 -9.71187e-08 0)
(1.15043 -0.0339572 0)
(1.2 -5.23903e-13 0)
(1.14939 -0.0338447 0)
(1.33522 -0.100591 0)
(1.19833 0.0310353 0)
(1.22677 -0.0331592 0)
(1.2 3.09712e-13 0)
(1.2 -1.45769e-08 0)
(1.22727 -0.0338063 0)
(1.2 2.27337e-14 0)
(1.02149 0.0707139 0)
(1.15517 -0.0326169 0)
(1.02556 0.0713561 0)
(1.0185 0.0695861 0)
(1.2 1.79203e-15 0)
(1.26763 -0.0777912 0)
(1.02366 0.0711431 0)
(1.15417 -0.0319753 0)
(1.22589 -0.0344403 0)
(1.07944 0.0640492 0)
(1.2 -1.86008e-13 0)
(1.33361 -0.0577487 0)
(1.0357 0.0708441 0)
(1.05622 0.0683527 0)
(1.21451 -0.000285149 0)
(1.2 -5.71833e-14 0)
(1.08532 0.0624277 0)
(1.03341 0.0706205 0)
(1.04736 0.0701474 0)
(1.19984 -4.95837e-06 0)
(1.13794 -0.0263249 0)
(1.30949 -0.16771 0)
(1.19993 2.02324e-05 0)
(1.2 1.46732e-10 0)
(1.2633 -0.0336071 0)
(1.04544 0.0703295 0)
(1.2 7.02791e-10 0)
(1.06797 0.0657337 0)
(1.13394 0.000838666 0)
(1.2 1.15201e-13 0)
(1.2 -5.74889e-14 0)
(1.34455 -0.0417149 0)
(1.05765 0.0678868 0)
(1.242 -0.00227168 0)
(1.16187 0.00109271 0)
(1.04483 0.068881 0)
(1.199 -0.00322117 0)
(1.29136 -0.0579754 0)
(1.05387 0.0616812 0)
(1.05772 0.0674543 0)
(1.05626 0.0683323 0)
(1.15613 0.000917362 0)
(1.24247 -0.00306362 0)
(1.2 3.29615e-13 0)
(1.13774 0.000777648 0)
(1.20003 -0.00269904 0)
(1.13855 0.00122206 0)
(1.10806 0.0559029 0)
(1.2 -4.26546e-13 0)
(1.07023 0.0658568 0)
(1.2 -2.0391e-13 0)
(1.2 2.35657e-13 0)
(1.2 -1.04511e-13 0)
(1.07026 0.0654053 0)
(1.2 2.85056e-13 0)
(1.2 2.77498e-13 0)
(1.23863 -0.0157914 0)
(1.19561 0.0334878 0)
(1.2 3.50436e-13 0)
(1.23498 -0.0131005 0)
(1.06806 0.0660289 0)
(1.13112 -0.0210881 0)
(1.15184 -0.0341958 0)
(1.2 -1.69514e-13 0)
(1.19605 0.0286755 0)
(1.2 -4.58755e-14 0)
(1.13504 -0.0211521 0)
(1.2 -9.97391e-15 0)
(1.2 2.30165e-13 0)
(1.2 -1.20505e-13 0)
(1.2 -1.32172e-14 0)
(1.2 -3.12404e-13 0)
(1.18825 0.0323411 0)
(1.2 4.17088e-12 0)
(1.2 -2.97465e-13 0)
(1.2 -2.8958e-13 0)
(1.2 2.94015e-13 0)
(1.2 1.74442e-13 0)
(1.2 -2.79114e-14 0)
(1.35467 -0.108704 0)
(1.31562 -0.165883 0)
(1.2 -1.24264e-13 0)
(1.18525 0.018561 0)
(1.2 -1.08456e-13 0)
(1.2 -9.19709e-12 0)
(1.2 1.40691e-13 0)
(1.17815 0.020389 0)
(1.24974 -0.0214627 0)
(1.2946 -0.143468 0)
(1.2 -1.79033e-08 0)
(1.29655 -0.147546 0)
(1.1334 0.00100383 0)
(1.2 -8.20065e-09 0)
(1.2 9.78488e-14 0)
(1.2 -1.08974e-13 0)
(1.13352 0.00284185 0)
(1.1999 -9.15158e-06 0)
(1.10214 0.0568747 0)
(1.19997 1.00987e-05 0)
(1.04883 0.0692297 0)
(1.27171 -0.040053 0)
(1.2766 -0.126873 0)
(1.2 2.3289e-14 0)
(1.05494 0.0684474 0)
(1.2 1.81862e-13 0)
(1.2 1.37611e-13 0)
(1.05008 0.0698449 0)
(1.2 -6.18594e-14 0)
(1.03636 0.0697594 0)
(1.0383 0.0694318 0)
(1.13848 -0.024258 0)
(1.05083 0.0691665 0)
(1.2 1.02206e-13 0)
(1.2 -4.11227e-13 0)
(1.06776 0.0646695 0)
(1.06677 0.0644769 0)
(1.26504 -0.0352934 0)
(1.0731 0.0644375 0)
(1.2 2.07628e-14 0)
(1.07191 0.0643415 0)
(1.11154 0.0545129 0)
(1.2 1.29796e-14 0)
(1.07749 0.0638528 0)
(1.2 2.5128e-14 0)
(1.2413 -0.0520757 0)
(1.24097 -0.0521059 0)
(1.26376 -0.031832 0)
(1.0785 0.0648566 0)