/*--------------------------------*- C++ -*----------------------------------*\
  =========                 |
  \\      /  F ield         | OpenFOAM: The Open Source CFD Toolbox
   \\    /   O peration     | Website:  https://openfoam.org
    \\  /    A nd           | Version:  12
     \\/     M anipulation  |
\*---------------------------------------------------------------------------*/
FoamFile
{
    format      ascii;
    class       surfaceScalarField;
    location    "1.05";
    object      phi;
}
// * * * * * * * * * * * * * * * * * * * * * * * * * * * * * * * * * * * * * //

dimensions      [1 0 -1 0 0 0 0];

internalField   nonuniform List<scalar> 
69079
(
-0.000160621
9.32281e-05
6.74383e-05
0.000127268
-5.82759e-18
-0.000127268
-0.000133878
0.000133923
0.000128736
-1.46833e-06
-0.00013235
-1.53768e-06
-0.000132423
7.71595e-05
-0.000146345
7.00188e-05
-2.04808e-07
0.000152767
-0.000140338
0.000130024
-0.000130024
5.63785e-18
0.000129367
6.56883e-07
-0.000100484
-6.01617e-05
-0.000119338
0.000130835
-8.4976e-06
-0.000127564
0.000124821
2.74345e-06
-0.00012692
-6.44003e-07
3.5111e-06
-0.000112319
0.000108808
0.000129393
-2.57601e-08
0.000128749
6.44003e-07
-0.000129238
0.000127538
1.70017e-06
-0.000127822
-1.41681e-06
0.000129148
-0.000128427
-7.21283e-07
0.000128144
1.00464e-06
0.000127586
-0.000129986
2.40781e-06
-0.000139066
1.33437e-05
0.000125722
0.000154225
-0.000103425
-4.88605e-05
0.000123722
-1.81802e-05
-0.000106543
-0.000128749
-1.27512e-06
0.000128723
2.57601e-08
2.96241e-07
-1.28801e-08
0.000159778
-0.000144053
0.00012072
-0.000125952
5.14607e-06
0.000122219
-0.000132446
1.02268e-05
0.000142647
-2.04278e-05
0.000127422
7.21283e-07
-3.99282e-07
-0.000128672
2.38281e-05
0.000104844
0.000127216
-0.000127216
1.61275e-17
2.96241e-07
-6.17709e-06
0.000117395
-0.000109972
-1.13988e-05
-0.000127667
0.000103684
2.5348e-05
-0.000129082
-0.000133379
1.65107e-05
0.000126328
-0.000126328
-1.93882e-16
-6.11802e-06
-0.000110521
0.000137929
-2.40737e-05
0.000126121
1.41681e-06
-1.0948e-06
-7.45111e-05
0.000142299
-6.77877e-05
0.000123764
-0.000123764
-2.02983e-15
0.000141925
-1.81609e-05
0.000120274
2.16514e-05
0.000141165
-2.08914e-05
0.000120788
-3.78873e-06
-0.000117024
-0.000148687
0.000133476
-2.69627e-05
-0.000131437
0.000132596
-1.19229e-06
-0.000131084
5.63e-05
7.47671e-05
0.000122837
-0.000122837
2.02357e-13
0.000140715
-1.78775e-05
0.000120787
-3.36106e-09
-0.000120576
-7.32003e-05
-4.27981e-05
0.000115944
7.62885e-05
5.11724e-05
-0.000127461
0.000137279
-7.07198e-05
-6.65537e-05
-1.4387e-05
-0.000114285
5.00648e-05
-0.000124576
-0.00010722
0.000110731
0.000124177
6.44003e-07
-2.15097e-06
0.000147656
-0.000147668
-1.53204e-05
-0.000116044
-0.000117008
9.71547e-06
-5.38199e-05
0.000131235
0.000118329
2.23855e-05
0.000139723
-2.13938e-05
0.000123752
-1.47863e-05
-0.000109035
0.000128637
-0.000126305
-2.35357e-06
9.91669e-05
5.64721e-05
0.000114194
-0.000117453
3.25931e-06
-2.75635e-06
0.000116951
-0.000123172
1.13344e-05
0.000111837
0.000122219
2.04278e-05
-1.54561e-06
0.000117028
-0.00013922
2.21923e-05
0.000102593
1.81778e-05
0.000130526
-1.34983e-05
-7.81183e-05
-5.0228e-05
0.000128106
-0.000119338
0.000120362
-1.42865e-06
0.000118126
-0.000132034
1.33054e-05
0.000117428
5.48137e-09
-7.14668e-05
-3.50656e-05
-6.33698e-06
-0.000102332
0.000108669
-7.06728e-05
0.000138937
-6.82643e-05
0.000146069
-4.24332e-05
-0.000129464
9.88329e-06
0.000120274
2.08914e-05
6.93591e-05
5.25892e-05
-0.000121948
-2.56313e-06
-0.000118388
-1.11374e-05
3.12985e-07
-0.000105998
0.000105685
0.000124534
-3.61186e-06
6.78907e-05
5.99309e-05
-0.000127822
5.42637e-05
-0.000124936
-0.000119437
1.04223e-06
0.000127326
-0.000127454
0.00012955
-8.77287e-06
2.08863e-05
-0.000136091
0.00011518
4.4118e-05
-0.000122449
-0.000123158
-1.02397e-05
0.00011947
-0.000135081
1.56034e-05
0.00011753
1.82946e-06
7.19664e-06
0.000108259
-0.000115423
-6.89901e-06
0.00010285
-0.000102031
0.000118329
2.13938e-05
-2.08914e-05
-0.000104951
0.000105263
7.50907e-06
-0.000120995
0.000113486
-0.000102663
3.05096e-05
-8.25981e-06
0.000123152
-0.000117486
4.44646e-05
-0.000117886
-0.000109893
-3.51486e-06
0.000113343
0.000119936
-0.000121838
2.94212e-06
-0.000123584
0.000106557
1.70274e-05
-3.9927e-06
-0.00012848
0.000113757
1.67698e-05
-5.28065e-06
0.000119037
-0.000132909
0.000132909
-0.000113309
3.30947e-06
-3.61028e-05
0.000112391
0.000148104
-8.83612e-05
-5.96376e-05
-0.000132813
5.29921e-05
7.98407e-05
0.00012269
-5.87442e-07
-0.000122102
0.000116877
-0.000134348
1.67493e-05
0.000119006
-2.83751e-06
0.000123583
-4.60813e-06
0.000115324
-0.000111111
0.000115713
6.9766e-06
7.79758e-05
-0.000123726
4.57499e-05
0.000112801
-0.000136138
2.33331e-05
0.000135101
-2.24067e-05
-1.50279e-06
0.000122033
-7.74477e-05
0.000146176
-6.87279e-05
-9.64844e-05
-2.09687e-05
0.000113139
-0.000134203
2.06483e-05
0.000117557
-4.66277e-06
0.000118979
-0.000127567
8.48813e-06
-0.000121729
2.5245e-05
-3.08566e-05
-0.000101935
0.000111237
-0.000134621
2.3079e-05
-2.14803e-05
-0.000113658
0.00010845
8.53561e-05
-9.16931e-05
-0.000103918
0.000111082
0.000134936
-0.000134951
0.000115399
3.11515e-07
-2.07407e-05
0.000120141
-0.000127692
7.41693e-06
-0.000120482
3.51833e-06
7.10414e-05
7.7055e-05
-0.000128981
2.04664e-05
0.000108514
0.000107809
-0.000134558
2.60231e-05
-0.000110569
0.00013442
-2.6917e-05
-0.000122061
-1.87166e-06
0.000104101
-4.74433e-05
-4.07654e-05
0.000118741
-1.68869e-05
0.00013991
0.000111749
2.30462e-05
-0.000112878
0.000106747
-2.30278e-05
0.000115059
-0.000115031
6.9694e-05
-0.000121472
5.17778e-05
0.000106031
-0.000134217
2.80135e-05
0.000133726
-2.775e-05
-1.92168e-05
-0.000110776
0.000117273
8.27352e-06
-0.000125475
-2.17738e-05
-0.000114334
1.40476e-05
-0.000107493
9.32267e-05
-7.83898e-05
0.000125986
-4.72189e-05
-0.000115612
4.17102e-06
0.000111435
5.73362e-06
0.000117975
-0.000120318
0.000108768
0.000112152
0.000123406
-3.40519e-06
0.000104724
-0.000133233
2.83867e-05
-3.03539e-05
7.08403e-07
-0.000112623
0.000111915
0.000113694
3.06447e-06
-2.15514e-05
5.04924e-05
8.88371e-05
0.000110665
4.89442e-07
-0.000111155
1.14632e-06
0.000109519
8.46953e-06
0.000120127
-4.74372e-05
-6.04976e-05
0.000107935
-0.000143765
8.62906e-05
5.7347e-05
7.39959e-05
-0.000121433
3.73521e-07
0.000112494
-0.000112868
-0.000112533
0.000112907
9.61438e-05
-0.000105283
-0.000118999
0.000123752
-4.75274e-06
0.000105373
-0.000127045
2.17976e-05
0.000114771
-9.22048e-06
-1.01997e-05
-9.90038e-05
0.000109204
6.70149e-05
4.77592e-05
-0.000114774
0.000113361
2.08125e-05
-2.12687e-05
1.68857e-05
-0.000117955
0.00010107
-0.000116703
-6.14913e-06
0.000119891
3.52849e-06
0.000103908
-0.000132505
2.80264e-05
0.000131871
-2.83881e-05
7.52581e-05
-0.000120329
4.50712e-05
0.000113757
-0.000106248
0.000117559
-0.000121042
0.000112535
4.90283e-06
-5.22673e-07
0.000120517
3.31088e-05
-0.000111496
-0.00011717
-1.82897e-06
0.000123081
-4.23594e-06
-7.20684e-05
-4.26736e-05
0.000114621
0.000104417
-0.000131942
2.69494e-05
0.00012847
-1.66461e-05
-0.000131081
-3.06562e-05
9.76247e-05
-8.36311e-05
0.000112426
2.11728e-05
-2.09469e-05
-7.85588e-05
-5.32746e-05
0.000131863
0.000128131
-0.000126392
-1.73881e-06
-1.4928e-05
0.00012844
-0.000113512
0.000103202
-0.000124839
2.16626e-05
0.000113721
-1.04288e-05
0.000106238
-0.000106581
5.08005e-07
-4.67546e-06
-0.000118909
-0.000132033
2.02474e-05
0.000111786
-2.36864e-05
-0.000108347
-1.65895e-05
-0.00011632
-4.73986e-05
0.000116758
-0.000146111
7.8388e-05
6.77233e-05
-0.000122142
0.000105719
1.64221e-05
0.000105739
4.60695e-07
0.000115235
-0.000109544
-5.83471e-06
-0.000138641
0.000122051
-0.00011936
-7.72866e-08
-0.000117453
0.000119372
-1.91913e-06
-7.14972e-05
-7.46141e-05
6.97841e-05
-0.000124885
5.51009e-05
-8.18769e-07
-0.000125484
-4.22466e-06
-0.000124756
0.000120777
-5.88403e-07
-0.000122811
5.3581e-06
0.000104991
-0.000132386
2.70325e-05
-2.98137e-05
0.000111824
3.27188e-06
0.000101267
-0.000122689
2.14947e-05
-0.000125439
2.62753e-06
0.000112858
-1.14136e-05
0.000112621
4.81902e-06
-2.02569e-05
0.000127008
-0.000122367
-5.14044e-06
-4.19334e-06
0.000115005
-0.000110722
0.00012522
-0.00012522
-0.00016344
7.73611e-05
8.61744e-05
-6.97253e-05
0.000122847
-5.2613e-05
-0.000112934
-3.97376e-06
0.000117454
-0.00012481
-2.70517e-06
-7.33357e-05
-4.52323e-05
0.000118565
6.89211e-05
4.26587e-05
-0.00011158
8.4336e-05
-9.45357e-05
3.97994e-06
0.000119604
-0.000123584
0.000109096
2.22524e-05
0.000103749
-0.000131425
2.75511e-05
-2.3586e-05
-0.000132497
0.000117569
-0.000118857
0.000118857
8.10026e-05
4.77979e-05
0.000130327
-2.66583e-05
-2.09816e-05
-0.000117659
0.000101748
7.4086e-05
-0.000121679
4.75931e-05
-6.18231e-06
-0.000166706
0.000125704
-1.16892e-06
0.000118161
-0.000116865
9.8823e-05
-0.000120789
2.20175e-05
0.000111769
-1.28583e-05
0.000126491
-0.000128345
-0.000107703
0.000111683
-7.67072e-05
-6.7105e-05
-7.2977e-05
0.000119789
-4.67666e-05
-0.00012435
2.73347e-06
0.000121324
-0.0001254
4.17137e-06
-6.45935e-05
0.000131608
0.000123144
1.32306e-06
0.000122618
3.75549e-07
-0.000148903
7.27602e-05
7.59383e-05
3.6296e-05
0.000106003
0.000122184
2.81982e-07
7.29317e-05
-0.000106593
3.35598e-05
0.0001241
4.3406e-06
0.000109345
-3.63216e-05
3.41632e-05
0.000102837
-0.000129815
2.70276e-05
0.000117605
0.000129388
-2.6515e-05
0.000130621
-2.16335e-05
-0.000108688
-0.000109119
-1.53383e-06
0.000110506
-0.000140341
8.15951e-05
5.87459e-05
0.000109578
8.80487e-06
-2.29706e-05
-4.30194e-05
0.000118278
0.000130081
-0.000129948
-0.000107381
0.00010787
0.000112572
-0.000111425
-7.25847e-05
0.000122741
-5.00368e-05
-2.09945e-06
-0.000121072
0.000101489
-0.0001287
2.73365e-05
-0.00011565
0.000118522
-2.87225e-06
0.000128442
-2.6695e-05
-0.000127433
0.000127295
0.000118892
3.36832e-06
2.85937e-06
-0.000114607
0.000111747
-0.000164184
0.000115936
-0.000102497
-8.73487e-06
0.000111036
-0.000120506
4.85578e-06
-0.00010777
-3.73011e-05
9.7517e-05
-0.000116398
0.000132544
-1.3548e-05
0.000121686
-4.34631e-07
-0.000118316
-2.18961e-06
0.00012182
-0.00012182
0.000100336
-0.000127846
2.76348e-05
0.000127423
-2.69707e-05
9.4377e-05
-0.000115818
2.17515e-05
0.000108931
-1.41814e-05
-7.05054e-05
-6.98356e-05
-0.000124473
4.70251e-05
-0.000116732
-1.58425e-06
6.59025e-05
7.13292e-05
0.000120684
5.26223e-06
0.000108124
9.25786e-06
-2.33929e-05
-0.000117105
0.00010742
9.6858e-06
0.000131125
-0.000126499
-0.000102899
0.000114233
0.000106016
-0.000113818
7.80087e-06
0.000112919
-4.66258e-06
-0.000108257
9.89555e-05
-0.000126827
2.8e-05
0.00012634
-2.72688e-05
-4.21178e-06
-0.00011793
-0.000119668
0.000123872
-4.84818e-06
7.21077e-07
-0.000116333
0.000124418
-2.24431e-05
-5.52683e-05
0.000123159
3.3435e-07
-0.000134294
2.19747e-05
-0.000110968
-1.25713e-05
0.000114323
-5.2293e-06
-0.000109094
0.000102184
2.8117e-05
0.000119604
-4.99102e-05
-2.75719e-05
-0.000121034
0.000109893
1.11412e-05
5.86259e-06
-0.000118052
-0.000154818
9.04051e-05
6.44131e-05
-0.000114568
3.79961e-06
0.000110768
-7.01705e-05
-8.46477e-05
4.2633e-06
0.000108708
-0.000112971
-0.000115199
5.33234e-06
0.000109867
-7.99851e-06
-0.000107201
-0.000119836
0.000111837
9.75457e-05
-0.000125623
2.82783e-05
-0.000115508
2.96241e-06
0.000112546
0.000115199
-4.93306e-06
-0.000110266
-3.92842e-06
0.00011462
-0.000110691
0.000111271
0.000125367
-2.75272e-05
0.000116449
-5.04898e-06
-0.0001114
0.000119859
-7.48855e-07
-0.00012851
-1.29573e-05
-0.00011954
-5.13914e-06
0.000116191
-0.000111052
6.72081e-05
4.47195e-05
-0.000111928
-0.000119079
4.69806e-05
-6.04955e-05
-6.79703e-05
-0.000133949
3.13229e-05
0.000100636
2.87501e-05
5.46469e-06
-0.000159316
-2.7985e-05
5.66722e-06
0.000107252
-0.000108437
8.05003e-06
0.000100387
9.62595e-05
-0.000124705
2.85642e-05
-5.98583e-06
0.000121078
0.000115315
-4.55954e-06
-0.000110756
-0.000119076
-6.12203e-06
0.000124254
-2.7842e-05
-7.23492e-05
0.000119687
-4.72933e-05
0.000128041
-1.14632e-05
-0.000116577
0.000181057
-3.09973e-05
-0.000121251
0.000118141
2.84371e-06
0.000121734
-0.000121778
-0.000124408
7.36739e-06
0.000117041
-1.32222e-06
0.000112031
-0.000110768
-6.56754e-05
0.000118265
8.89203e-05
-0.000110713
2.17721e-05
-1.74244e-05
0.000106424
1.03581e-05
0.000119952
1.20819e-06
0.000111522
-0.000112723
-1.11541e-05
9.93052e-05
-8.81511e-05
0.000135601
-8.01783e-05
-5.54229e-05
2.53737e-06
-0.00011498
0.000112443
2.46009e-06
-0.000119192
0.000118329
-0.000118329
-0.000111451
0.000112868
-1.41681e-06
0.000111854
-0.000115213
3.28216e-06
-0.000102989
0.000103697
-2.70727e-06
0.000114377
-0.000111697
-3.00641e-06
-0.000111879
0.000114954
5.85519e-05
6.98377e-05
-0.000128376
-1.27512e-06
0.000120647
-0.000116667
-1.49409e-06
0.000118162
-0.000122159
5.39176e-09
0.000111249
-0.000114246
0.000105372
3.35654e-05
9.48819e-05
-0.000123656
2.88412e-05
-5.06444e-05
-5.66593e-05
0.000107304
9.95114e-05
2.90682e-05
-0.000134558
8.39135e-05
0.000115016
-4.09302e-05
-3.21259e-05
-2.8225e-05
-0.000141745
8.08867e-05
6.08582e-05
-6.67653e-05
0.000126561
-5.93691e-05
6.48987e-05
6.23807e-05
-0.000127279
-7.11494e-05
0.000121214
-0.000117131
0.000111374
5.75738e-06
-0.000118097
9.66004e-07
-0.000113836
1.18575e-06
0.00011283
3.01217e-06
0.000108374
-0.000108978
-3.09121e-06
0.000112069
-0.000101649
9.04952e-05
8.887e-05
-0.000144134
0.000110049
-0.000118922
-4.24879e-06
0.000113496
-0.000109169
4.59653e-05
-0.000118955
-7.48073e-05
-6.69376e-05
6.12147e-07
0.000112366
-0.000112888
-0.000121338
-6.35907e-06
-0.000144179
8.36817e-05
-2.92377e-06
-0.000121485
0.000124298
-0.000124473
-0.000100387
0.000120854
-0.000115592
0.000114508
-3.23732e-06
0.000114985
-0.000111839
-2.45623e-05
-9.42948e-05
7.26005e-05
-0.000143324
-3.45057e-05
0.000115508
-0.000110866
-2.09906e-06
0.00011297
6.65314e-07
8.89127e-05
-0.000110792
-4.63736e-07
-0.000112696
0.000113124
9.80569e-05
2.95215e-05
0.000111938
6.33128e-08
-0.00011179
0.000114697
-6.18242e-07
-0.000114079
-1.18194e-07
0.000112287
0.000111673
-0.000111718
-2.86593e-05
-0.000112868
-2.64041e-06
-6.29322e-07
0.000112185
-0.000124023
0.000128187
-0.000112791
0.000113628
-8.37203e-07
-8.35455e-07
0.000112242
0.000110163
4.4565e-06
-0.000113138
3.47761e-07
-6.18255e-05
-4.86297e-05
0.000110655
-0.000135295
2.9297e-05
9.27325e-05
-0.000111007
-3.21724e-06
9.20336e-05
-0.000123312
3.13169e-05
0.000124877
-0.000120264
-4.52178e-06
-1.88812e-06
0.000122933
0.000121163
-2.91121e-05
4.25795e-05
-0.00011586
8.96936e-05
-0.00010705
1.74415e-05
-1.86469e-05
0.000108448
-0.000117415
0.000108154
9.26076e-06
0.000107149
-9.46684e-06
-0.000116925
0.00012133
-6.13992e-05
-4.02294e-05
9.32118e-05
-0.000116899
0.000112675
-3.33411e-06
-0.000111784
-7.3005e-05
-7.58871e-05
-9.62791e-05
1.28948e-06
9.97567e-05
-0.000113654
0.000110774
1.63236e-06
0.00011253
-0.000113911
-4.60522e-06
-0.000108271
0.000112641
1.15292e-06
0.000112442
-0.000113684
0.000136825
-6.68861e-05
-6.99387e-05
5.84754e-06
0.000108476
9.65808e-05
2.98854e-05
-0.000117669
5.90696e-06
0.000111735
-0.000116868
4.85889e-06
-2.89121e-05
9.132e-05
-0.000120817
2.95949e-05
-3.34301e-05
8.90338e-05
-0.000105632
1.67475e-05
-0.000110375
0.000106362
-0.000109455
-5.11338e-06
-1.8817e-05
0.000107897
4.90321e-06
5.15073e-05
8.40938e-05
0.000122592
-0.000120055
0.000115792
-1.0948e-06
-0.000119127
4.9659e-05
0.000111735
7.8576e-07
-0.000112594
-0.000164443
0.000131139
0.000106466
-8.95807e-05
1.08192e-06
-0.000108463
8.08138e-07
-0.000112422
0.000111652
-3.10409e-06
0.000121626
6.60489e-05
6.18114e-05
-0.00012786
7.76181e-05
6.72099e-05
-0.00014482
-0.000100804
-2.22276e-06
0.000103188
1.04117e-06
-0.000113368
0.000112583
7.48331e-06
0.000117737
-0.000117852
0.000113813
-0.000112503
0.000116436
-0.000118033
1.59713e-06
8.77359e-07
0.000113024
-2.32836e-06
0.000114411
-0.000112172
0.000115005
-0.000114083
-0.000123095
-6.95941e-05
0.000124946
-5.50134e-05
-6.92457e-05
0.000126599
-5.72196e-05
-0.000138293
3.7906e-05
0.00011239
-0.00011223
2.13675e-06
-0.000114055
0.00011208
-1.29445e-05
0.000124511
-0.000111567
0.000127319
-7.95601e-05
9.52563e-05
3.02461e-05
-0.000110704
3.43897e-06
0.000107265
8.30672e-05
-0.000139854
5.78267e-05
0.000119697
5.8681e-06
-0.000116667
-0.000137456
7.9895e-05
5.75609e-05
-2.93425e-05
0.000110446
-0.000107587
-0.000116655
-1.30089e-06
-0.000110604
0.000112151
-1.85772e-06
1.06066e-06
-0.000112021
-0.000107122
9.62862e-05
1.0801e-05
-0.000118673
0.000115593
3.04823e-06
-0.000113617
-5.1551e-06
8.98889e-05
-0.000121434
3.16704e-05
-0.000120331
-2.14817e-07
0.00011939
-2.94317e-05
-0.000126745
8.37107e-05
-0.000120994
0.000113161
7.81871e-06
-0.000117693
-3.39214e-06
-0.000117834
0.000113635
4.05685e-06
-0.000113782
-4.05608e-06
-0.000117955
-0.000113515
0.000114596
-1.17686e-06
-0.000117221
8.82283e-06
0.000108399
0.000114353
-0.000112383
-9.27889e-05
-5.33096e-07
-0.000117067
4.44362e-06
0.000112623
-0.000110073
-3.00105e-06
0.000113074
9.09074e-05
-2.22074e-06
0.000110938
-0.000108814
-0.000112971
-2.44721e-06
0.000115418
-0.000114542
2.40857e-06
0.000112134
-7.10615e-05
-9.14557e-05
4.02162e-06
0.000119823
-5.0039e-05
0.000116955
4.56684e-06
0.000110137
1.71305e-06
-0.00011185
9.01604e-07
0.00011301
-0.000113911
-0.000109693
0.000118329
-4.94079e-05
0.000116461
-5.51266e-06
-0.000110949
-0.000115663
1.70017e-06
0.000113963
9.39004e-05
3.04934e-05
-0.000114003
5.66722e-07
0.000113436
0.000108862
1.88049e-06
-0.000110743
-2.9668e-05
0.000118844
-1.91629e-06
-0.000112576
-6.05851e-07
0.000113386
6.99387e-06
1.71643e-06
-0.000114265
-0.000111069
0.000112849
1.72138e-06
-0.000112823
-8.60984e-05
6.97836e-05
0.000115431
-3.77385e-06
-0.000111657
8.89279e-05
-0.000119019
3.01795e-05
-3.36739e-05
0.000123049
-0.000122988
-0.000116892
0.000174795
4.05193e-06
-0.000114066
2.17673e-06
0.000111889
-6.81226e-05
-7.60567e-05
-0.000110598
9.58022e-05
0.00011471
-0.000114001
-7.08403e-07
-0.000113287
4.16147e-06
-0.000118866
4.64249e-05
-0.000112859
9.28401e-07
-0.000110201
0.000108667
-1.61285e-06
0.00010998
-0.000108375
-0.000115869
4.28906e-06
0.00011158
0.000127379
-0.000138643
0.000121098
-0.000115251
0.00011149
-0.000116539
-7.3055e-05
0.000103409
-8.56031e-08
0.000114241
-2.41151e-06
-0.000112023
0.000113035
-0.000118174
0.000115096
0.000118732
-0.000118346
-0.000119384
0.000115296
3.96e-06
-0.000113492
-5.94432e-06
-0.000121853
0.000115563
6.29718e-06
-0.000116042
-5.67316e-06
-0.0001217
0.000115464
6.33899e-06
-0.000116017
-5.71669e-06
-0.000121953
0.00011551
6.37168e-06
-0.000116285
-5.74892e-06
0.000145732
-9.47486e-05
-1.8982e-06
-0.000110043
0.000111861
-0.000122147
0.000115737
6.38401e-06
-0.000128288
7.07358e-05
5.75317e-05
-0.000116317
-5.77762e-06
-0.00012197
0.000115808
6.30993e-06
0.000115998
0.000125667
-0.000106145
-1.79777e-05
8.97255e-05
1.74914e-05
-0.000107758
-0.000116265
-5.68211e-06
0.000116822
-0.00012207
0.00011579
6.23769e-06
0.000119359
5.15202e-06
-0.00011651
-5.65133e-06
-0.000135919
3.09688e-05
-0.000110887
3.80001e-07
0.000110507
-0.000122172
0.000115982
6.168e-06
-6.78779e-05
-5.24604e-05
0.000120338
-0.000116605
-5.54885e-06
0.000100278
-0.00010286
2.45429e-06
4.30194e-06
-0.000110859
0.000106557
-0.00012205
0.000116086
6.0529e-06
-0.000112301
-5.79602e-06
-0.00011656
-5.43326e-06
1.05616e-06
-0.000113357
-0.00010151
-9.17215e-06
5.3478e-05
-0.000121356
-0.000115729
-5.21375e-06
0.000104146
-1.4428e-05
-0.000110987
0.000116114
-5.12626e-06
-0.00011328
2.29265e-06
-0.000122018
0.000116102
5.93399e-06
-0.000116729
-5.32152e-06
-4.7785e-06
0.000112404
-0.000107626
-2.53693e-07
0.000111338
-0.000110826
-0.000121436
0.000115605
5.81428e-06
-0.00011684
-4.62226e-06
0.000116376
-0.000118982
2.66779e-06
-2.62753e-06
0.000124447
-0.000123095
-0.000121949
0.000116405
5.58531e-06
8.96376e-05
-0.000120618
3.11421e-05
-0.000116916
-5.0254e-06
3.14273e-06
-0.000110743
0.0001076
0.000100157
1.47613e-05
-0.00012179
0.0001164
5.40093e-06
0.000115323
-7.96822e-06
-0.000108083
-0.00011701
-4.80505e-06
0.00011848
-2.87329e-05
-2.30868e-05
2.67905e-06
-0.000110717
0.000108038
0.000112546
-0.000115611
3.06545e-06
-1.28801e-08
0.000112559
-0.000121808
0.000116524
5.23156e-06
-0.000117137
-4.65128e-06
-0.00018094
0.000113084
2.33415e-05
3.81249e-06
-0.00011091
0.000107098
4.59818e-06
-0.000111786
0.000107188
-0.000121098
0.000116058
5.05227e-06
2.3789e-06
-0.000112446
0.000110465
-0.000117167
-3.84907e-06
-7.22448e-06
0.000116963
-0.00011632
-3.51625e-06
-0.000120896
0.000116165
4.72166e-06
-0.000117342
-3.54353e-06
-0.000114066
0.000114735
-6.69763e-07
-0.000113847
0.000115998
-2.15097e-06
-4.37922e-07
5.64117e-05
-0.000122918
-3.22001e-07
-0.000113525
-0.000110253
0.000112511
0.000116498
-0.000117329
8.86754e-07
-6.26105e-05
-6.33788e-05
0.000114285
-0.000121153
0.000116836
4.35689e-06
7.08403e-07
0.000111541
-0.00011225
-0.000117402
-3.76687e-06
-3.73521e-07
-0.00011185
0.000112224
-4.43074e-06
0.000111103
-0.000106673
3.15751e-06
-0.000113209
-0.000110809
0.000114142
-0.000121099
0.000116887
4.1481e-06
-0.000117532
-3.53832e-06
-0.000113623
5.21281e-07
0.000112835
-0.000110423
-3.25052e-06
0.000113705
-0.000120336
0.000116523
3.91757e-06
-0.000112749
-0.000117516
-2.71111e-06
-0.000118149
0.000120068
-1.91913e-06
-1.29571e-06
-0.000120215
-0.000120481
0.000117153
3.51641e-06
-0.000117528
-2.8867e-06
-0.000114877
2.25401e-06
-3.88471e-06
-0.00012038
0.000117013
3.20971e-06
-0.000117833
-2.64345e-06
-4.82883e-05
-6.67447e-05
6.44003e-08
0.000112147
-0.000112211
-0.000113061
0.000113125
0.000111941
-0.000110859
-0.000120271
0.000117384
3.00663e-06
-0.000113201
4.16996e-07
0.000112648
-0.000117679
-2.34181e-06
1.24963e-06
0.000110353
-0.000113194
-5.72183e-05
7.46284e-05
-0.000114719
1.51302e-06
0.000113163
-8.26835e-06
-0.000119849
0.000117221
2.69501e-06
-0.000117787
-2.08279e-06
0.000113864
2.54202e-06
-0.000119617
0.000117261
2.39699e-06
-0.000117844
-1.80039e-06
5.51733e-07
-0.000120249
0.000108135
-0.000119453
0.000117644
1.91212e-06
-9.65774e-05
-4.832e-05
0.000116401
-7.21237e-06
8.745e-05
-0.000118039
3.08161e-05
5.8089e-06
-0.00012303
0.000105068
-2.14138e-06
-0.000102397
-3.31583e-05
-0.000113144
6.57288e-06
0.00010629
-3.84046e-06
-7.05651e-05
-6.71183e-05
-6.72554e-05
0.000134226
-0.000118949
0.000115238
3.69719e-06
-0.000116342
-3.17018e-06
-5.46285e-06
8.96923e-05
3.1595e-05
0.000112301
-0.000111593
-0.000119318
0.000116544
2.77123e-06
0.000111928
9.45267e-05
3.07833e-06
-9.7605e-05
-3.64524e-06
-3.09287e-05
0.000102384
-7.85683e-06
0.000120991
-3.28629e-06
3.19765e-06
-1.73922e-06
0.000113418
-4.94897e-06
-0.000108513
0.00011802
-1.58425e-06
-1.53314e-06
0.000119645
6.6431e-05
7.89986e-05
-0.00013737
8.23934e-05
5.583e-05
-8.55107e-05
-5.27824e-05
-1.45673e-05
0.00011717
2.98101e-07
-0.000113913
-0.000119836
-0.000131451
7.0851e-05
-0.000110047
0.000110949
0.000111151
-0.000110421
-1.26721e-06
-0.000111421
-1.19527e-06
0.000112788
0.000128688
-5.10655e-05
-0.000111742
-4.18833e-07
0.000112221
6.7933e-06
-0.000115231
0.000107606
-0.000112675
1.2236e-06
-0.000119546
4.72049e-05
0.000120801
-9.54172e-05
-3.30084e-06
0.000112741
-0.000109239
-2.66659e-06
-0.000111108
0.000113703
7.24632e-05
-0.0001237
5.12368e-05
0.000108592
-0.00011337
0.000115959
-0.000102615
-0.000151147
8.93489e-05
6.17985e-05
-0.000112173
-7.63949e-07
0.000112885
3.90842e-07
-0.000111667
-0.000133046
6.49405e-05
0.000103405
4.28912e-06
-0.000108867
0.000110655
-8.28771e-06
-5.70586e-06
2.24984e-06
-0.000120686
8.23035e-06
1.78188e-06
-0.000113323
0.000114016
-0.00011463
5.33801e-07
0.000111514
-0.000110306
4.25789e-05
-0.000147354
0.000113117
-1.67831e-06
-0.00011542
0.000117909
-2.39475e-06
0.000120045
-0.000123562
-0.000116938
-1.0948e-06
6.95478e-07
-0.0001128
-6.5757e-05
0.000101095
-3.50013e-05
-7.97452e-08
-0.000112634
0.000112912
9.25432e-05
1.31763e-05
-0.000105719
0.000112137
-0.000111153
8.51311e-05
-0.000117421
3.2451e-05
0.000103646
-1.11026e-05
-8.2798e-07
-0.000110496
0.000109644
-0.000110094
0.000108722
-0.000111428
0.000114995
-2.97652e-05
-3.83237e-06
-0.000104649
0.000110152
-0.000114005
0.00010986
-6.69763e-05
0.000130733
-6.37562e-05
-0.000120763
0.000117099
3.71743e-06
-5.13131e-06
0.000109578
-0.000111582
-6.86378e-05
-6.88181e-05
0.000107173
-0.000109539
-4.14779e-06
0.00011256
0.000116634
-8.2336e-05
-6.83835e-05
0.000124497
-5.60748e-05
0.000112134
-0.000118228
3.48512e-07
0.000167629
-1.31539e-05
-0.000100254
3.45406e-05
-1.32764e-06
0.000101566
4.76562e-07
0.000117852
-0.000121433
5.6801e-06
0.000114465
-0.000120145
-0.000120325
0.000117399
2.92394e-06
-4.29801e-06
-0.000117037
3.61381e-06
-3.49022e-06
0.000108774
-0.000105149
-0.000116899
9.82156e-05
1.56924e-05
-0.000120124
0.000117546
2.60854e-06
-0.000135649
2.84288e-05
0.000108155
-0.000111504
-3.95589e-06
-2.30403e-05
0.000113846
-1.28065e-06
-6.48005e-07
-0.00011214
0.000113075
0.000117427
-5.02193e-05
-0.000114271
4.90175e-07
-0.000108713
0.000107385
0.000107693
-2.47464e-06
0.000112532
6.35262e-06
-0.000114117
0.000108632
-0.000119657
0.000117786
1.78207e-06
-0.000109725
7.47043e-07
0.00010948
-3.09983e-06
0.000125413
-8.27543e-05
-0.000109725
-5.15202e-06
0.000110235
-0.000109942
0.000113047
-6.04718e-07
0.000117453
-2.13809e-06
8.26935e-05
-0.000113419
3.1005e-05
5.76378e-06
0.000108106
-0.00011343
-0.000111639
0.000111566
0.000127303
-0.000120196
0.000113735
-3.06792e-05
4.50091e-06
-0.000114978
0.000110654
-5.726e-06
0.000115445
-0.000109076
7.58391e-06
0.00010662
-0.000114292
-0.000107937
0.000115661
0.000140779
-0.000111451
-2.93279e-05
4.68944e-06
-0.000109253
0.000104549
-0.000202515
0.000172602
1.97952e-08
0.000108926
-0.000104231
5.04254e-05
9.03536e-05
0.00011438
-3.47935e-07
4.7185e-06
-0.000114327
0.000110129
5.43634e-06
-0.000114535
0.000108482
9.41532e-06
0.000104367
-0.000113782
1.0304e-06
0.000111837
-0.000112066
-0.000119797
0.000105257
-0.000108055
0.00011526
-2.67254e-07
2.17752e-06
0.000109718
-0.000111793
7.06233e-05
-5.29151e-05
0.000110948
-0.000118368
1.46833e-06
5.27351e-06
0.000116461
-2.70481e-07
1.4812e-06
-0.000111632
0.000108127
-0.000111298
-4.39077e-06
0.000107767
-0.000110131
-0.000111915
0.000106685
8.76861e-05
3.17833e-05
-0.000114916
0.000114156
7.59923e-07
0.000117557
-0.000117087
-7.4324e-07
0.000117245
2.96433e-07
-3.12003e-05
0.00011093
2.50342e-06
0.000117799
-0.000117134
-5.29037e-07
-0.000117229
0.000117566
-1.43139e-07
0.000117661
1.11813e-07
1.02139e-05
0.000107767
-0.000117981
-9.84551e-05
0.000108669
1.18754e-05
-0.000110331
-0.000108721
0.000104058
-0.000116989
-1.69447e-07
-3.35654e-06
8.90527e-05
-0.000102796
1.3743e-05
-3.45024e-07
0.00011658
0.000108011
-0.000110277
0.000114908
9.41145e-05
-5.06186e-06
-0.000115435
-8.17598e-05
0.000105829
-2.37685e-05
0.000121352
-6.48662e-06
0.000111915
-0.000102499
8.13143e-05
-0.000112397
3.12096e-05
0.00011251
-3.10167e-05
9.36359e-05
-9.84638e-05
0.00011814
-6.3606e-06
-1.6862e-06
-0.000108283
0.000113042
-5.17017e-06
-0.000108902
0.000103774
-0.000109932
5.14773e-06
-0.000113887
-0.000116513
2.8287e-06
-3.26023e-06
0.000112636
-0.000112057
0.000111883
4.9073e-06
0.000104753
-0.000109661
0.000109274
2.98421e-06
-0.000113645
-0.000112138
-7.31139e-06
-2.02484e-06
-6.72519e-05
-0.000117519
2.6588e-06
7.08403e-07
0.000110884
-0.000111593
-0.000116219
-2.58e-07
0.000119694
-0.000119694
2.11924e-07
-6.91401e-05
-8.20073e-05
-0.000115717
1.83988e-06
-0.00011928
-3.76135e-06
-5.85283e-05
-7.80695e-05
5.68822e-06
-0.00012251
-0.000107151
-0.00017699
-4.51283e-06
0.000106164
-0.000108665
3.22216e-06
-0.000108955
-1.92725e-06
0.000108759
0.000109753
2.89241e-06
-0.000112707
-0.000119953
0.000120608
-0.000117474
0.000176159
-2.17036e-06
1.57429e-05
-9.69887e-05
-0.000110982
7.12385e-06
-0.000118562
1.97863e-06
-0.000118538
2.02784e-06
-0.000118592
2.05208e-06
-0.000118698
1.936e-06
-2.6622e-06
-0.000118484
1.37817e-06
-0.000120128
5.83186e-05
-2.70279e-06
-0.000118318
1.99e-06
-2.58701e-06
0.000113847
-2.72443e-06
0.000112724
-0.000117247
4.503e-06
-0.000118636
1.81125e-06
-2.70828e-06
-0.000139787
7.82978e-05
6.14894e-05
-0.000118168
1.9699e-06
-2.47828e-06
-2.65332e-06
-0.000112314
0.000115444
-3.12985e-06
-0.000118582
1.6427e-06
0.00011459
-0.000122838
8.42102e-06
-0.000118176
1.88971e-06
-2.57206e-06
-1.47087e-06
-0.000117967
1.78016e-06
0.00011749
-0.000114281
-3.22553e-06
-0.000118499
1.4771e-06
-2.4775e-06
-4.57242e-06
-0.000117599
1.65004e-06
-2.07495e-06
-0.000117299
-8.50083e-07
-0.000118398
1.32721e-06
-2.3471e-06
-0.00012634
5.93642e-05
0.000105372
-0.000110305
7.85961e-05
-0.000111079
3.26942e-05
-1.93799e-06
2.42145e-06
0.000114697
-2.20249e-06
-0.000112778
-3.60641e-07
-0.000118229
1.10444e-06
0.00011152
-0.000109805
2.94953e-06
-0.000112675
3.22001e-06
-1.1592e-06
-1.72522e-06
-3.69812e-05
3.33074e-06
0.000108498
-0.000113988
-0.000118114
8.20832e-07
1.70017e-06
-0.000108951
-9.4383e-07
0.000109596
-6.64547e-07
-0.000117919
5.05993e-07
-3.39732e-07
0.000132092
-0.000117751
2.74588e-07
-8.61551e-07
-0.000117462
8.31702e-09
1.32665e-06
-0.000115328
8.87033e-06
-0.000110008
-6.17308e-07
5.4869e-06
-0.000110949
0.000105462
-0.00011715
-3.71075e-07
0.000124522
2.28334e-06
-0.000105333
0.00011082
-0.00011404
-8.75843e-07
5.34198e-07
-1.6707e-06
-0.00011186
0.000112968
-0.000112172
-1.0205e-06
0.000111556
-0.000117257
-5.75458e-07
-4.43865e-09
-0.000116671
-9.06346e-07
9.73653e-05
1.5671e-05
3.25869e-07
-0.000106139
-2.13047e-06
0.000107976
-0.000116812
-1.15163e-06
0.000113435
0.000115323
-1.29942e-06
-2.30988e-05
5.52379e-07
-1.09416e-06
-0.000117517
-0.000115133
0.000115374
-1.81971e-06
-0.000116404
-1.43165e-06
-0.000116996
0.000117903
-7.02021e-07
-0.000116973
3.15272e-07
1.66193e-05
-0.000107003
9.05363e-05
8.91524e-07
-0.000116195
-9.80776e-07
1.18237e-06
-5.60074e-05
-7.71668e-05
0.000133278
-2.10713e-06
-0.000111225
0.000113086
0.000105751
-0.000110451
3.15971e-06
-0.000117196
2.57601e-07
0.000110328
-0.000112823
-5.02322e-06
0.000111786
-0.000106763
1.67606e-06
-0.000111981
-1.93995e-06
0.000110068
1.62876e-06
0.000107077
-0.000109403
-7.0544e-05
0.000136593
-0.000106953
-6.15984e-05
5.52209e-05
-1.8857e-06
4.17314e-06
0.000109583
1.10565e-06
0.000112051
-0.000113098
6.83916e-07
0.000112561
-0.000113335
0.000117105