/*--------------------------------*- C++ -*----------------------------------*\
  =========                 |
  \\      /  F ield         | OpenFOAM: The Open Source CFD Toolbox
   \\    /   O peration     | Website:  https://openfoam.org
    \\  /    A nd           | Version:  12
     \\/     M anipulation  |
\*---------------------------------------------------------------------------*/
FoamFile
{
    format      ascii;
    class       volVectorField;
    location    "6.12";
    object      U;
}
// * * * * * * * * * * * * * * * * * * * * * * * * * * * * * * * * * * * * * //

dimensions      [0 1 -1 0 0 0 0];

internalField   nonuniform List<vector> 
22702
(
(2 -1.9512e-13 0)
(2 -1.00614e-13 0)
(2.05031 -0.088094 0)
(2 -1.10854e-09 0)
(1.9773 0.0304894 0)
(2 -6.03099e-14 0)
(1.83087 0.228885 0)
(2 8.06794e-14 0)
(2 -2.14051e-13 0)
(2.11573 -0.261091 0)
(1.83054 0.22898 0)
(1.83152 0.229022 0)
(2 -3.0348e-14 0)
(1.83134 0.229257 0)
(2.04026 -0.0732788 0)
(2 -3.52387e-13 0)
(2 -2.81682e-13 0)
(2 -5.92499e-14 0)
(1.82982 0.228687 0)
(2 -8.36124e-15 0)
(1.83159 0.229073 0)
(2 1.0302e-14 0)
(1.82992 0.228354 0)
(2.09903 -0.260194 0)
(1.83132 0.228634 0)
(2.15566 -0.261564 0)
(2 1.45167e-13 0)
(1.82603 0.227836 0)
(2.10587 -0.26292 0)
(2.11753 -0.268695 0)
(2 -1.41214e-14 0)
(1.83086 0.228896 0)
(2 5.82075e-14 0)
(2 -2.365e-14 0)
(2 7.63461e-14 0)
(1.84398 0.215493 0)
(1.83122 0.230756 0)
(1.83025 0.228899 0)
(2 -3.11903e-13 0)
(2 -2.47322e-13 0)
(2.11857 -0.26212 0)
(2 -7.19819e-14 0)
(1.91654 0.126815 0)
(2 -1.49139e-13 0)
(1.82603 0.22756 0)
(2 -2.4626e-13 0)
(2 2.73625e-14 0)
(2 1.38813e-14 0)
(2 -1.09539e-15 0)
(2.11321 -0.263418 0)
(2 -6.43067e-14 0)
(2.09549 -0.264165 0)
(2 -1.85873e-13 0)
(1.83067 0.228977 0)
(2 -1.24102e-13 0)
(1.82947 0.228643 0)
(2 1.59455e-13 0)
(2 1.53605e-09 0)
(2 4.74068e-14 0)
(2 2.81332e-14 0)
(2.09406 -0.265079 0)
(2 3.13087e-14 0)
(2 -1.10197e-13 0)
(2.10862 -0.264108 0)
(2 2.15975e-13 0)
(2.1121 -0.264044 0)
(2 -2.98439e-13 0)
(2 -2.02633e-13 0)
(2 4.91483e-15 0)
(2.11964 -0.260873 0)
(2 -9.57142e-14 0)
(1.83013 0.22885 0)
(1.89574 0.151019 0)
(2 1.43104e-09 0)
(1.83178 0.229543 0)
(1.82355 0.238257 0)
(2.11131 -0.262926 0)
(1.83087 0.229145 0)
(2.10701 -0.262664 0)
(2 -1.68156e-13 0)
(1.82978 0.228814 0)
(2.11082 -0.258186 0)
(1.8296 0.228534 0)
(1.82862 0.228375 0)
(2 5.05524e-14 0)
(2 8.66934e-07 0)
(2 1.32765e-14 0)
(2 1.34273e-14 0)
(2.02661 -0.0460625 0)
(2.11716 -0.261535 0)
(1.83474 0.22872 0)
(2 1.19428e-13 0)
(2 -5.16832e-11 0)
(2.13068 -0.266976 0)
(2 -1.25429e-14 0)
(1.83144 0.22913 0)
(2.1309 -0.267416 0)
(2 2.69588e-08 0)
(2 -1.21288e-13 0)
(2 -2.93837e-13 0)
(2 -1.07187e-14 0)
(1.91343 0.126784 0)
(1.82959 0.229011 0)
(2.14974 -0.256463 0)
(2 -7.06423e-10 0)
(2 -7.21573e-10 0)
(1.95832 0.0575599 0)
(2 9.42872e-09 0)
(2.10627 -0.263003 0)
(2 -1.84476e-13 0)
(1.83091 0.229084 0)
(1.82905 0.228898 0)
(2 4.35215e-09 0)
(2 -1.05949e-13 0)
(2.13406 -0.269587 0)
(2.13049 -0.269544 0)
(2.11681 -0.261318 0)
(2 7.4398e-14 0)
(2 -1.39898e-07 0)
(2 -1.78392e-14 0)
(2 -6.79359e-14 0)
(2 9.88209e-08 0)
(2.02874 -0.0543888 0)
(2 -1.15943e-07 0)
(1.85446 0.203313 0)
(1.98077 0.0188976 0)
(1.82971 0.228883 0)
(2 1.44793e-14 0)
(1.83107 0.229492 0)
(1.82935 0.228777 0)
(1.83134 0.22899 0)
(1.82997 0.228753 0)
(2 1.31217e-13 0)
(2.11455 -0.258216 0)
(2 8.98733e-15 0)
(2.12816 -0.266115 0)
(2 1.84016e-14 0)
(2 -1.08177e-13 0)
(2 5.33437e-15 0)
(2 -4.88336e-14 0)
(1.82916 0.228988 0)
(2 3.20587e-09 0)
(2 1.624e-13 0)
(2 -3.18826e-15 0)
(2 9.91e-14 0)
(1.83267 0.229583 0)
(2 7.62171e-14 0)
(1.99438 0.012869 0)
(2 -6.04359e-14 0)
(2 -2.12722e-13 0)
(2 -6.68473e-11 0)
(2 6.28709e-14 0)
(2.11528 -0.265131 0)
(2 1.31264e-14 0)
(1.9953 0.00951077 0)
(2 1.28017e-13 0)
(2.10657 -0.263263 0)
(2 1.53095e-13 0)
(2 -5.97141e-14 0)
(2 6.34302e-14 0)
(1.83387 0.229334 0)
(2 -3.00306e-15 0)
(1.82958 0.228294 0)
(2.10752 -0.291224 0)
(2.12429 -0.261607 0)
(1.82955 0.228683 0)
(1.82844 0.22787 0)
(2 7.58292e-15 0)
(1.96705 0.0476607 0)
(1.90323 0.140009 0)
(2 -1.02295e-13 0)
(1.82847 0.228922 0)
(2.10679 -0.262511 0)
(1.84417 0.215092 0)
(2 6.70039e-14 0)
(2 -9.4595e-14 0)
(2 7.43519e-15 0)
(2 1.86515e-13 0)
(1.83138 0.229187 0)
(1.85961 0.193087 0)
(2 1.28037e-13 0)
(1.8295 0.229103 0)
(2.11493 -0.265431 0)
(1.8284 0.228814 0)
(2 -5.7033e-14 0)
(2.11391 -0.265313 0)
(2 -3.07064e-13 0)
(2.1064 -0.265332 0)
(2.15505 -0.266064 0)
(2.00007 -0.000123663 0)
(2 -2.29665e-13 0)
(2 -2.33423e-13 0)
(1.82898 0.228524 0)
(2 8.43007e-15 0)
(2 -2.36363e-13 0)
(1.8319 0.22892 0)
(2 -1.51208e-13 0)
(1.83061 0.228612 0)
(1.82945 0.229113 0)
(2.10942 -0.279438 0)
(2 1.22476e-13 0)
(2 -2.66206e-13 0)
(2.11391 -0.268909 0)
(1.83168 0.228991 0)
(2 -1.3091e-13 0)
(2 -1.71362e-13 0)
(2 1.01684e-14 0)
(1.83174 0.229062 0)
(2 3.10001e-15 0)
(2.10794 -0.264474 0)
(2 -6.33407e-11 0)
(2 5.41927e-14 0)
(1.8317 0.229203 0)
(1.83139 0.229035 0)
(1.83072 0.228899 0)
(2 6.16735e-14 0)
(1.99999 2.29517e-05 0)
(2 1.98674e-14 0)
(2 -7.44437e-16 0)
(2 9.89705e-14 0)
(1.83202 0.228931 0)
(2 9.37766e-14 0)
(2.11902 -0.264204 0)
(1.82358 0.234484 0)
(1.83165 0.228817 0)
(1.83174 0.229308 0)
(2 1.95967e-07 0)
(2 1.0356e-13 0)
(2 -3.15309e-13 0)
(2.11194 -0.27037 0)
(1.83239 0.228748 0)
(1.91802 0.126368 0)
(2 -4.79118e-14 0)
(1.83071 0.229516 0)
(2.11385 -0.263795 0)
(2.1103 -0.264173 0)
(1.8309 0.229605 0)
(1.83163 0.228072 0)
(2 5.47188e-15 0)
(1.83028 0.22797 0)
(2.13481 -0.270708 0)
(1.85151 0.205919 0)
(2 -1.94633e-13 0)
(2 -2.33383e-13 0)
(2 -1.99926e-13 0)
(2 4.31833e-14 0)
(1.83191 0.229045 0)
(2 -1.16483e-13 0)
(1.89828 0.154112 0)
(1.9851 0.027024 0)
(2 3.98593e-14 0)
(2 9.20536e-14 0)
(1.83169 0.229006 0)
(2.12569 -0.267044 0)
(2.08675 -0.162806 0)
(2 -9.3384e-14 0)
(1.83168 0.227782 0)
(2.10519 -0.265992 0)
(1.83014 0.230582 0)
(2 2.76269e-14 0)
(2 2.30134e-14 0)
(2 -2.45837e-13 0)
(2 -1.40666e-13 0)
(2 -2.76782e-14 0)
(2 -8.20175e-14 0)
(2 -3.16513e-14 0)
(2.11008 -0.260887 0)
(2.08557 -0.164203 0)
(2.11165 -0.263966 0)
(1.8312 0.228955 0)
(2 -9.05923e-15 0)
(2 2.46592e-13 0)
(2 -1.80509e-07 0)
(2 -2.88119e-13 0)
(1.85131 0.212963 0)
(2 -1.05307e-07 0)
(2.10861 -0.26124 0)
(2 1.54651e-15 0)
(2.11479 -0.280396 0)
(2.10717 -0.269917 0)
(1.83205 0.228929 0)
(2.09863 -0.262616 0)
(1.83164 0.229084 0)
(2 -7.11277e-14 0)
(2 1.92619e-14 0)
(2 -2.04598e-14 0)
(2.00081 -0.00154278 0)
(2.11031 -0.26213 0)
(2.10933 -0.284505 0)
(2 -3.1734e-07 0)
(2 -1.36183e-07 0)
(2.11422 -0.28083 0)
(2 2.40011e-09 0)
(1.82906 0.228628 0)
(2.15127 -0.251706 0)
(2 -2.04913e-14 0)
(2 -3.15852e-11 0)
(1.82984 0.228705 0)
(2.09669 -0.284509 0)
(2 -6.35878e-14 0)
(1.83085 0.234372 0)
(2.11825 -0.261929 0)
(1.8317 0.228944 0)
(2 5.44037e-14 0)
(2.11162 -0.28629 0)
(2.00087 -0.0013972 0)
(2 -8.83516e-14 0)
(2 2.56569e-06 0)
(2 9.1445e-14 0)
(2.09341 -0.263356 0)
(2 -1.05944e-13 0)
(2 -1.71453e-07 0)
(2 2.26618e-07 0)
(1.99999 1.30282e-05 0)
(1.99438 0.00564999 0)
(1.89685 0.149502 0)
(2 -2.58599e-11 0)
(2.13474 -0.250989 0)
(2 -1.51816e-11 0)
(2 1.60013e-06 0)
(2 -8.7213e-14 0)
(2 -1.97052e-13 0)
(2 -2.26803e-14 0)
(2 -1.30464e-13 0)
(2 -8.54945e-13 0)
(1.82985 0.228772 0)
(2 2.11504e-13 0)
(1.82894 0.229502 0)
(2 -9.56816e-14 0)
(2 -1.24668e-13 0)
(2 1.06996e-13 0)
(2.1 -0.26297 0)
(2 -6.13149e-15 0)
(1.83254 0.22952 0)
(2.09913 -0.263324 0)
(2 1.63555e-13 0)
(1.88249 0.169922 0)
(2 1.40259e-13 0)
(2 1.9937e-14 0)
(1.8298 0.228937 0)
(2 2.37435e-14 0)
(2 -9.64368e-09 0)
(2 7.05915e-15 0)
(1.83431 0.226099 0)
(2 4.68833e-10 0)
(2 4.32095e-14 0)
(1.83383 0.231099 0)
(1.83048 0.228416 0)
(2 1.07676e-13 0)
(1.96332 0.0596663 0)
(2 2.04812e-14 0)
(2 -1.73272e-14 0)
(2.12831 -0.266098 0)
(2 -2.94902e-13 0)
(2 5.50475e-16 0)
(2 -4.5442e-14 0)
(2.12728 -0.265072 0)
(2 -1.03458e-13 0)
(2 1.36417e-13 0)
(2 -2.58609e-15 0)
(2 -1.39384e-14 0)
(2.12993 -0.259798 0)
(2 -1.96234e-13 0)
(2 -8.67837e-14 0)
(2 -3.74727e-13 0)
(2 -1.74909e-13 0)
(2 -3.72369e-15 0)
(2.10774 -0.268512 0)
(1.99998 3.7051e-05 0)
(1.82908 0.228124 0)
(2 6.41765e-14 0)
(2.00001 -4.62997e-05 0)
(1.82881 0.228418 0)
(1.82876 0.228074 0)
(2 8.34157e-14 0)
(2 -2.29192e-14 0)
(2.10136 -0.274024 0)
(2.05725 -0.133771 0)
(1.83101 0.229532 0)
(2 -6.16012e-14 0)
(2 -1.69268e-13 0)
(2 -1.56031e-13 0)
(1.83179 0.228855 0)
(2.12546 -0.259623 0)
(2 4.12737e-14 0)
(1.82967 0.228385 0)
(2 -2.03316e-14 0)
(2 -1.48475e-14 0)
(2.10211 -0.219233 0)
(2.1003 -0.218796 0)
(2 -1.51709e-13 0)
(2.12139 -0.261593 0)
(2.10563 -0.263282 0)
(2 4.422e-14 0)
(2 -5.73235e-14 0)
(2 3.25864e-14 0)
(2 7.53442e-14 0)
(2 -9.65347e-11 0)
(2 1.64128e-13 0)
(2 1.71321e-13 0)
(1.82779 0.22857 0)
(1.95746 0.0614678 0)
(1.83529 0.231459 0)
(2.10488 -0.267482 0)
(2.03321 -0.0575361 0)
(1.82913 0.228866 0)
(2 -6.32531e-13 0)
(1.83251 0.229527 0)
(1.83093 0.229525 0)
(2.12388 -0.267303 0)
(2.07727 -0.154707 0)
(2 8.0675e-13 0)
(2.10557 -0.26546 0)
(2 -1.60379e-13 0)
(1.82363 0.234819 0)
(2 1.5832e-13 0)
(2 1.69861e-13 0)
(2 5.10712e-14 0)
(2 3.71165e-14 0)
(1.83169 0.22902 0)
(2 -3.40384e-13 0)
(2 2.20823e-15 0)
(2 -3.81033e-14 0)
(2 1.54583e-09 0)
(2 -1.03963e-13 0)
(2 -2.63493e-13 0)
(2 1.36554e-13 0)
(1.9382 0.0925244 0)
(1.83272 0.228416 0)
(2 7.28022e-14 0)
(1.83123 0.228945 0)
(2 -1.85202e-13 0)
(2 7.20024e-16 0)
(2.11088 -0.256556 0)
(2 -6.66535e-14 0)
(2 -2.27137e-13 0)
(2 -1.13605e-13 0)
(2 -2.90157e-13 0)
(1.83177 0.22904 0)
(1.87247 0.180267 0)
(2 -8.90621e-14 0)
(2 -2.03761e-13 0)
(2.11049 -0.265348 0)
(1.83143 0.228623 0)
(1.83173 0.22908 0)
(2 -1.23397e-13 0)
(1.83174 0.229114 0)
(1.83181 0.228732 0)
(1.83136 0.229016 0)
(2 -1.12075e-13 0)
(2.0505 -0.11744 0)
(2 -1.01587e-13 0)
(1.83179 0.228909 0)
(2.00079 -0.0125562 0)
(1.83134 0.228988 0)
(2 2.02181e-13 0)
(2.11134 -0.264823 0)
(2.00034 -0.000617089 0)
(1.83126 0.22919 0)
(2 1.17828e-13 0)
(2 -6.66851e-14 0)
(2 -6.03824e-11 0)
(2 -2.26083e-11 0)
(2.10373 -0.263939 0)
(1.83234 0.22879 0)
(1.84802 0.210231 0)
(2 6.25598e-14 0)
(1.83255 0.228387 0)
(1.83178 0.228859 0)
(1.83007 0.229164 0)
(2 -6.47137e-15 0)
(1.92705 0.114262 0)
(1.83195 0.228419 0)
(2 2.17166e-14 0)
(2 1.32653e-13 0)
(1.88137 0.169774 0)
(1.97731 0.0381158 0)
(1.83159 0.229183 0)
(2.02684 -0.045292 0)
(1.83152 0.229188 0)
(2 -4.56886e-14 0)
(1.83148 0.229102 0)
(1.83121 0.228869 0)
(1.83144 0.229104 0)
(1.83136 0.228559 0)
(2 -1.15918e-13 0)
(1.84251 0.215588 0)
(2.03194 -0.0626612 0)
(2.03717 -0.0800829 0)
(2 -5.54669e-14 0)
(2 -3.72389e-07 0)
(2 -1.49049e-13 0)
(2 -3.36468e-13 0)
(1.82959 0.23112 0)
(2 2.63531e-14 0)
(2 -4.10125e-15 0)
(2 8.82286e-14 0)
(2 -3.37595e-14 0)
(2 1.36629e-13 0)
(1.83238 0.229374 0)
(2 1.14738e-13 0)
(2 4.62279e-14 0)
(2.00165 -0.00293653 0)
(1.83177 0.22901 0)
(1.86893 0.192194 0)
(2 1.83097e-13 0)
(1.86052 0.19084 0)
(1.99998 2.51929e-05 0)
(2 9.1776e-14 0)
(2 3.05043e-14 0)
(1.83108 0.228574 0)
(2 -9.22626e-14 0)
(2.00145 -0.0014334 0)
(1.99834 0.00396559 0)
(2 4.84779e-14 0)
(1.83135 0.22893 0)
(2 2.61844e-13 0)
(1.83212 0.229288 0)
(2 1.39098e-14 0)
(2 7.85802e-14 0)
(1.87434 0.179161 0)
(2 5.29683e-15 0)
(1.83199 0.229695 0)
(1.99999 1.31309e-05 0)
(2 -1.39594e-13 0)
(1.83149 0.229733 0)
(2 -1.52822e-13 0)
(1.83179 0.229002 0)
(2 4.84749e-14 0)
(2 2.84513e-06 0)
(2 3.24849e-14 0)
(1.83197 0.229014 0)
(2 -1.94213e-14 0)
(1.82983 0.229153 0)
(2 4.69509e-06 0)
(1.83175 0.229066 0)
(1.83008 0.228429 0)
(1.83164 0.22902 0)
(1.82812 0.228138 0)
(2 2.52884e-14 0)
(1.83137 0.229222 0)
(1.83858 0.222746 0)
(2 8.07196e-14 0)
(2.12936 -0.271839 0)
(1.84168 0.217828 0)
(1.87919 0.171758 0)
(2 -1.35081e-13 0)
(1.83182 0.228971 0)
(2 -1.13052e-13 0)
(2.1289 -0.268354 0)
(2.11378 -0.269193 0)
(2 2.51944e-14 0)
(2 -1.04786e-13 0)
(2 -1.25735e-13 0)
(2 6.51949e-14 0)
(2 1.68189e-09 0)
(2.13635 -0.267161 0)
(2 -6.07232e-14 0)
(1.83119 0.228949 0)
(1.95821 0.0633418 0)
(1.83121 0.228527 0)
(2 -9.64956e-14 0)
(2 8.97294e-11 0)
(2 -1.58146e-13 0)
(2 -7.87677e-14 0)
(2 -5.43152e-08 0)
(1.83116 0.228903 0)
(2 -1.20755e-13 0)
(1.83149 0.228434 0)
(1.90083 0.144343 0)
(2.06959 -0.154225 0)
(2 1.31549e-09 0)
(2 6.50585e-06 0)
(1.95353 0.0736407 0)
(1.96061 0.0655719 0)
(2 1.14747e-13 0)
(2 3.44076e-14 0)
(1.93706 0.0938181 0)
(2 -1.17126e-13 0)
(2.108 -0.259081 0)
(1.83174 0.229281 0)
(1.83167 0.229391 0)
(2 -6.96295e-11 0)
(2 -3.82296e-14 0)
(2 -3.3098e-14 0)
(1.83022 0.22843 0)
(2 -2.77897e-13 0)
(1.99999 1.63575e-05 0)
(1.83161 0.23121 0)
(1.83219 0.228794 0)
(2.01525 -0.0295464 0)
(2 -8.71226e-14 0)
(2 1.20011e-10 0)
(2.11035 -0.262434 0)
(1.84738 0.210186 0)
(2 2.09965e-13 0)
(2 -1.25182e-13 0)
(2 2.42397e-14 0)
(2 -2.77788e-11 0)
(2 -2.10555e-13 0)
(1.83176 0.229015 0)
(1.83123 0.229312 0)
(2 5.86193e-14 0)
(1.83133 0.229357 0)
(1.8304 0.229763 0)
(1.83161 0.229015 0)
(2 -1.87015e-13 0)
(2 -6.47911e-14 0)
(2 -6.4196e-11 0)
(2 -7.57709e-14 0)
(2.16199 -0.253926 0)
(1.8301 0.229034 0)
(2 -4.85507e-11 0)
(2 -2.51427e-14 0)
(1.84653 0.212466 0)
(1.83216 0.228339 0)
(2 -6.05084e-15 0)
(1.84161 0.217726 0)
(1.83317 0.229332 0)
(2 -1.28157e-13 0)
(2 -2.15731e-07 0)
(2 9.05636e-11 0)
(2 -2.62623e-13 0)
(2 -9.46663e-14 0)
(1.83149 0.229122 0)
(2 -1.93532e-13 0)
(2 -9.88364e-15 0)
(2 -3.82019e-13 0)
(2 -4.3905e-14 0)
(1.83092 0.232784 0)
(2 -2.69864e-14 0)
(1.83435 0.233457 0)
(2.1054 -0.270682 0)
(2 -1.84967e-13 0)
(2.1322 -0.260175 0)
(2 -3.19083e-15 0)
(2 -1.76511e-07 0)
(2 -1.38719e-13 0)
(2.00123 -0.00199281 0)
(2.12078 -0.262198 0)
(2.0003 -0.000496104 0)
(2 2.01571e-14 0)
(2 -5.06604e-14 0)
(2 -1.20588e-07 0)
(1.97378 0.0377439 0)
(2 -1.32128e-13 0)
(2 -2.40841e-14 0)
(2.04616 -0.0862934 0)
(2 -2.09432e-07 0)
(2 -4.05914e-14 0)
(2 -3.34672e-14 0)
(2 -2.08681e-07 0)
(2 2.41922e-07 0)
(2 -1.30128e-07 0)
(2 -1.35379e-13 0)
(2 -1.66119e-06 0)
(2.02065 -0.0513524 0)
(2 -4.73206e-07 0)
(2 -4.54041e-08 0)
(2.00094 -0.00140701 0)
(2 -1.54057e-15 0)
(2.1031 -0.266346 0)
(2 -2.77885e-11 0)
(2 -4.47196e-12 0)
(2 -6.02525e-11 0)
(2 -2.04818e-14 0)
(1.87437 0.177498 0)
(2 -1.06228e-13 0)
(2 4.72226e-14 0)
(2 -7.10212e-14 0)
(2 -1.67749e-07 0)
(2.10585 -0.262565 0)
(2 -2.10821e-14 0)
(2 1.49658e-09 0)
(1.84059 0.218179 0)
(1.82813 0.228332 0)
(2 -3.22566e-07 0)
(2 6.5593e-14 0)
(2 -1.05351e-07 0)
(2.03403 -0.0723273 0)
(2 -1.94622e-13 0)
(2 3.91833e-10 0)
(2 -1.47187e-13 0)
(2 -1.4727e-13 0)
(2 2.26163e-13 0)
(2 7.00922e-14 0)
(2.01531 -0.031064 0)
(1.99473 0.00243735 0)
(1.83198 0.229095 0)
(2 -1.43654e-14 0)
(2 -1.36114e-13 0)
(2 5.67653e-14 0)
(1.83055 0.230117 0)
(2.03861 -0.0651383 0)
(2 -4.84593e-09 0)
(2 -2.23753e-13 0)
(2 9.69971e-15 0)
(1.82821 0.228088 0)
(1.82744 0.226716 0)
(2 -2.80874e-08 0)
(2 5.35959e-06 0)
(2 3.70158e-09 0)
(2 7.32505e-14 0)
(2 1.29593e-09 0)
(2 1.21715e-14 0)
(2 -3.30568e-11 0)
(2 -1.72985e-13 0)
(2 -6.18993e-14 0)
(2.10175 -0.264028 0)
(2 -1.51934e-13 0)
(2 -1.4591e-11 0)
(1.82915 0.226817 0)
(2.10745 -0.264336 0)
(2 -8.6942e-14 0)
(1.82897 0.227131 0)
(2 6.67728e-11 0)
(2.11096 -0.265699 0)
(2 -1.88316e-14 0)
(2 -1.95153e-14 0)
(2.10404 -0.265898 0)
(2 -2.20201e-13 0)
(2 -1.15715e-11 0)
(2 -5.05126e-12 0)
(2 -3.49849e-14 0)
(2 -2.50694e-12 0)
(2 -8.63489e-14 0)
(2 -2.07714e-13 0)
(1.83466 0.22543 0)
(1.83196 0.228704 0)
(2 3.58437e-13 0)
(2 4.71782e-14 0)
(2 -1.67311e-15 0)
(2 6.03299e-13 0)
(1.84516 0.213111 0)
(2 3.35372e-13 0)
(1.94597 0.0826549 0)
(2.12907 -0.271598 0)
(2 -2.84313e-08 0)
(2 1.71398e-13 0)
(2 -1.44405e-13 0)
(2 4.60009e-14 0)
(2 -1.20244e-13 0)
(2 1.0074e-13 0)
(2 -8.95091e-14 0)
(1.98426 0.021075 0)
(2 3.93718e-14 0)
(2 4.32698e-15 0)
(1.90405 0.125056 0)
(2 -1.21303e-14 0)
(2 -2.10325e-14 0)
(2 3.33155e-14 0)
(1.86087 0.194879 0)
(2 2.44197e-13 0)
(2 5.81382e-14 0)
(2 -3.26234e-13 0)
(2 -3.78409e-13 0)
(2.1059 -0.269088 0)
(2 5.69571e-12 0)
(2 6.39185e-14 0)
(2.11174 -0.280386 0)
(2.10709 -0.267783 0)
(2 -2.96863e-13 0)
(2 -1.2557e-13 0)
(1.83177 0.228895 0)
(2 -6.4997e-14 0)
(1.9867 0.00735908 0)
(2 3.79434e-14 0)
(2 2.1921e-14 0)
(2 2.97166e-14 0)
(1.88227 0.169865 0)
(2.12817 -0.267308 0)
(2 -1.43129e-13 0)
(2.12776 -0.273565 0)
(2 -5.69271e-14 0)
(2.07514 -0.150634 0)
(2 1.66996e-13 0)
(2 3.97071e-14 0)
(2 3.35226e-14 0)
(1.83053 0.229264 0)
(2 -4.29829e-08 0)
(2 -1.9326e-13 0)
(1.83152 0.22892 0)
(2 -6.04254e-15 0)
(2 -1.60806e-11 0)
(2 1.71084e-09 0)
(1.83141 0.228757 0)
(2 2.20783e-10 0)
(2 -2.15434e-13 0)
(1.83177 0.229184 0)
(2 -2.04006e-13 0)
(2 -1.85644e-13 0)
(2.12287 -0.264829 0)
(2 -1.73782e-11 0)
(1.94593 0.0841835 0)
(2 -9.95425e-14 0)
(2 -5.926e-14 0)
(1.8292 0.228938 0)
(1.82925 0.228855 0)
(1.88665 0.163628 0)
(1.85001 0.208658 0)
(2 6.26046e-14 0)
(2.11203 -0.266213 0)
(2 -5.67615e-14 0)
(2 -6.71382e-14 0)
(1.83835 0.22043 0)
(2 1.46324e-13 0)
(2.12192 -0.262026 0)
(2 -6.01195e-14 0)
(2 -8.31082e-14 0)
(2 -4.25125e-14 0)
(1.83132 0.229401 0)
(2 -1.42074e-13 0)
(2 -9.89311e-14 0)
(2 -4.53906e-14 0)
(2 -9.85896e-14 0)
(1.89968 0.147243 0)
(2 -1.21071e-13 0)
(1.84557 0.223067 0)
(1.83126 0.228044 0)
(2.12231 -0.262308 0)
(2 2.04015e-13 0)
(2 -1.92093e-13 0)
(2.15302 -0.253892 0)
(2.1521 -0.262704 0)
(2 -5.34482e-14 0)
(2 -1.86461e-13 0)
(2 -6.49281e-12 0)
(1.88015 0.174146 0)
(1.87325 0.179633 0)
(2 -6.45245e-14 0)
(2 7.76554e-14 0)
(2 -1.19555e-13 0)
(2 -1.11782e-13 0)
(2 -3.56689e-14 0)
(2 -1.25733e-13 0)
(2 8.0061e-14 0)
(1.92781 0.107976 0)
(1.828 0.228534 0)
(1.99639 0.000487301 0)
(2 1.11665e-13 0)
(1.83375 0.22683 0)
(2.11555 -0.252031 0)
(2 -7.94592e-14 0)
(2 -5.87959e-14 0)
(2 -1.14994e-13 0)
(1.9078 0.134376 0)
(2 -3.9398e-14 0)
(1.96746 0.0531483 0)
(2 -5.34408e-14 0)
(1.84625 0.212207 0)
(1.83248 0.228242 0)
(2 -3.24831e-14 0)
(2.11122 -0.263399 0)
(2 1.95537e-13 0)
(1.82899 0.228693 0)
(2 -4.61943e-14 0)
(2 1.06577e-13 0)
(1.83212 0.228972 0)
(1.8416 0.217688 0)
(2 -1.20134e-13 0)
(1.82703 0.228517 0)
(2 -8.95597e-15 0)
(2.10677 -0.26718 0)
(2 4.45192e-14 0)
(2 1.38689e-14 0)
(2 6.10204e-15 0)
(1.8341 0.228991 0)
(1.83507 0.225061 0)
(1.852 0.204788 0)
(2 -1.86738e-13 0)
(1.8301 0.228351 0)
(1.83148 0.228964 0)
(2 -2.74713e-14 0)
(1.83092 0.229642 0)
(2 -1.07161e-08 0)
(1.83237 0.228117 0)
(2 -3.17739e-14 0)
(2.10645 -0.266988 0)
(2.00829 -0.0213446 0)
(2.10021 -0.268948 0)
(2 -3.39129e-11 0)
(2 -2.36683e-11 0)
(2 -3.55158e-11 0)
(2 -1.69559e-13 0)
(2 -1.58063e-11 0)
(1.83171 0.229069 0)
(2 -3.38667e-14 0)
(1.83179 0.228992 0)
(2 -3.37485e-11 0)
(2 -9.21499e-11 0)
(2 1.34836e-14 0)
(1.83996 0.21986 0)
(2 -6.57359e-14 0)
(2.10367 -0.2624 0)
(1.83156 0.229017 0)
(2 3.45303e-14 0)
(2.11391 -0.263915 0)
(2.11671 -0.252985 0)
(2.11871 -0.264828 0)
(2 -7.09749e-14 0)
(1.91654 0.125137 0)
(1.98575 0.019089 0)
(1.83074 0.229689 0)
(1.83145 0.228934 0)
(2 -8.02538e-14 0)
(2 -3.74987e-07 0)
(2 -8.66008e-08 0)
(2 2.24472e-14 0)
(1.83142 0.228937 0)
(2 1.25983e-13 0)
(2 -5.96042e-14 0)
(1.83154 0.228983 0)
(1.83154 0.228984 0)
(2 -3.51978e-15 0)
(1.93766 0.094098 0)
(1.99971 0.000749122 0)
(2 1.19351e-14 0)
(2.00107 -0.00190186 0)
(1.83322 0.22944 0)
(2.05392 -0.102043 0)
(2 -1.18112e-07 0)
(2.0653 -0.118537 0)
(2.10755 -0.257885 0)
(2.10908 -0.259264 0)
(1.99993 -0.0624378 0)
(1.82824 0.22786 0)
(1.83398 0.22644 0)
(1.96707 0.0503276 0)
(1.8313 0.228983 0)
(1.83143 0.228887 0)
(2 5.44758e-14 0)
(2 6.25985e-14 0)
(1.8264 0.228798 0)
(1.82896 0.228246 0)
(1.83162 0.228994 0)
(1.82831 0.227274 0)
(2 1.35554e-13 0)
(1.83148 0.229102 0)
(2.11107 -0.262862 0)
(1.83134 0.228078 0)
(1.83054 0.227394 0)
(1.82761 0.228422 0)
(1.8297 0.229891 0)
(2.04451 -0.0836778 0)
(2.03702 -0.0732482 0)
(2.02265 -0.054068 0)
(1.83178 0.229168 0)
(2.01164 -0.0266848 0)
(1.83074 0.229441 0)
(2 -1.1734e-13 0)
(2 -1.1341e-13 0)
(1.83082 0.22987 0)
(1.83127 0.22846 0)
(2 -6.36761e-14 0)
(2.10555 -0.264399 0)
(1.83069 0.228947 0)
(1.83171 0.228877 0)
(2 -2.91389e-14 0)
(1.83194 0.228922 0)
(1.83159 0.229032 0)
(2 9.21877e-15 0)
(1.8316 0.228971 0)
(2.114 -0.264512 0)
(1.83107 0.229787 0)
(1.82675 0.228583 0)
(1.82973 0.228863 0)
(1.83114 0.22837 0)
(2 -4.4703e-14 0)
(2 -2.36396e-13 0)
(2 -1.18638e-07 0)
(1.83181 0.228885 0)
(1.88976 0.159545 0)
(2.13759 -0.239344 0)
(1.83134 0.228795 0)
(2.10367 -0.277904 0)
(1.83178 0.228899 0)
(2 -2.76551e-14 0)
(2 -1.29804e-13 0)
(2 -4.88674e-14 0)
(2 -3.73242e-14 0)
(1.83165 0.227931 0)
(1.83121 0.228872 0)
(2 1.94945e-13 0)
(2 -2.91863e-14 0)
(1.83121 0.228898 0)
(2.10593 -0.270484 0)
(1.83168 0.229105 0)
(2.10255 -0.268844 0)
(2 -1.21534e-14 0)
(1.83279 0.227814 0)
(2 -2.87388e-14 0)
(2.11334 -0.260212 0)
(1.83107 0.229924 0)
(2.09279 -0.190926 0)
(2 -3.04648e-14 0)
(1.83145 0.228896 0)
(1.83033 0.229838 0)
(1.83162 0.228836 0)
(2 -1.56343e-13 0)
(2 1.03196e-13 0)
(1.91663 0.119813 0)
(1.83062 0.229547 0)
(2.1189 -0.263773 0)
(1.83181 0.228972 0)
(2 1.63549e-13 0)
(1.83206 0.228809 0)
(2.0445 -0.0829341 0)
(1.8318 0.228714 0)
(2.10668 -0.261427 0)
(2 -6.61563e-14 0)
(1.83218 0.228392 0)
(2.10672 -0.24407 0)
(1.83089 0.22983 0)
(2.10977 -0.26598 0)
(2 -1.86543e-14 0)
(1.83135 0.22943 0)
(2 -4.93968e-14 0)
(1.83244 0.228705 0)
(2 -8.94052e-15 0)
(1.902 0.141692 0)
(1.83783 0.221721 0)
(1.86796 0.186961 0)
(2.13378 -0.272907 0)
(2 8.61514e-14 0)
(1.83155 0.229079 0)
(2 -4.49924e-14 0)
(1.83177 0.228939 0)
(2 -1.22459e-07 0)
(1.83196 0.229253 0)
(2 -2.24325e-07 0)
(2 -3.31809e-13 0)
(1.83148 0.229433 0)
(2.00496 -0.0172814 0)
(1.83032 0.230107 0)
(2.10685 -0.261445 0)
(1.84736 0.216783 0)
(2 5.93673e-14 0)
(1.88154 0.169359 0)
(2 -2.62332e-14 0)
(1.83044 0.228848 0)
(1.83199 0.229051 0)
(1.83054 0.228398 0)
(2 1.50128e-13 0)
(1.84821 0.21019 0)
(1.83161 0.228533 0)
(1.84411 0.215083 0)
(1.89642 0.15014 0)
(1.83559 0.228903 0)
(2 8.92759e-14 0)
(1.88853 0.162689 0)
(2 -7.8382e-14 0)
(1.8317 0.229363 0)
(2 -3.63366e-13 0)
(1.97395 0.0403807 0)
(2 -3.09388e-14 0)
(1.84416 0.21394 0)
(2 -4.77451e-14 0)
(1.83201 0.228728 0)
(1.83876 0.220466 0)
(1.83988 0.219796 0)
(2 -1.33179e-14 0)
(1.83462 0.224786 0)
(2.13434 -0.282511 0)
(2 -1.97315e-14 0)
(2.10787 -0.269323 0)
(2 -1.26699e-13 0)
(2 7.62117e-14 0)
(2 -2.49156e-15 0)
(1.83087 0.228901 0)
(2 1.34638e-13 0)
(1.83154 0.229129 0)
(2 6.43351e-14 0)
(2 -6.00004e-14 0)
(2 -1.46892e-13 0)
(1.83068 0.229443 0)
(1.84515 0.219035 0)
(1.85529 0.204239 0)
(1.83138 0.229399 0)
(1.83152 0.230019 0)
(2.13053 -0.258596 0)
(1.82801 0.231627 0)
(1.83097 0.228665 0)
(2 3.18037e-13 0)
(1.86383 0.192069 0)
(1.83186 0.22886 0)
(1.83019 0.226791 0)
(2 1.63425e-13 0)
(1.8287 0.22869 0)
(1.83019 0.229003 0)
(2 -2.39566e-13 0)
(1.82944 0.231851 0)
(1.83085 0.228985 0)
(1.83087 0.229075 0)
(1.83108 0.230045 0)
(2 -1.91944e-13 0)
(2 6.0935e-14 0)
(2 -7.32924e-14 0)
(1.83188 0.228991 0)
(2.14098 -0.255169 0)
(2 -1.77177e-13 0)
(1.83146 0.228896 0)
(2 -1.01537e-13 0)
(2 -5.9395e-14 0)
(2.08961 -0.263891 0)
(2 -2.40301e-14 0)
(2 -1.04849e-13 0)
(1.83139 0.228789 0)
(1.83192 0.228711 0)
(2 -6.70945e-14 0)
(1.83206 0.22908 0)
(1.83044 0.229062 0)
(1.83242 0.229465 0)
(2.00699 -0.0165475 0)
(1.83133 0.228899 0)
(2 -7.84597e-14 0)
(1.83137 0.228909 0)
(1.83165 0.228874 0)
(1.85715 0.201751 0)
(2 -2.94651e-14 0)
(2 -6.47783e-14 0)
(2 -6.84293e-14 0)
(1.83108 0.229829 0)
(1.83112 0.228532 0)
(1.83178 0.22902 0)
(2.01363 -0.0312241 0)
(2 -1.10126e-13 0)
(1.8262 0.230863 0)
(1.83123 0.228789 0)
(1.83148 0.228804 0)
(2 -1.22021e-13 0)
(1.83128 0.228748 0)
(1.83179 0.229134 0)
(1.83146 0.228847 0)
(1.82608 0.231097 0)
(2 -3.82768e-14 0)
(1.83216 0.228798 0)
(1.82961 0.231723 0)
(1.85087 0.201955 0)
(1.83219 0.228633 0)
(1.82678 0.23067 0)
(2 -9.35567e-14 0)
(1.83107 0.230624 0)
(1.83342 0.226856 0)
(1.83172 0.228974 0)
(1.83211 0.228658 0)
(1.83215 0.228477 0)
(2.11281 -0.268406 0)
(1.83203 0.228905 0)
(1.83203 0.229129 0)
(2 -1.09129e-13 0)
(1.83124 0.229103 0)
(1.83161 0.228903 0)
(1.83132 0.228904 0)
(1.83195 0.228899 0)
(2 -5.14541e-08 0)
(1.83212 0.228949 0)
(1.83118 0.229189 0)
(2 -1.61574e-07 0)
(1.83174 0.228994 0)
(1.85774 0.199572 0)
(2 -1.12063e-13 0)
(2 3.2326e-14 0)
(2 1.64855e-09 0)
(1.83148 0.229347 0)
(1.82951 0.228894 0)
(2 1.09533e-14 0)
(2 -2.89217e-14 0)
(1.90921 0.133956 0)
(2 -6.89425e-14 0)
(1.83208 0.22887 0)
(2 -1.95051e-14 0)
(2 1.37844e-13 0)
(1.83145 0.22888 0)
(1.83064 0.229544 0)
(1.83175 0.228657 0)
(1.83148 0.228872 0)
(2 -4.64204e-14 0)
(2 5.78852e-14 0)
(2 -6.59406e-14 0)
(1.88188 0.166893 0)
(2 -5.59253e-14 0)
(1.83172 0.228857 0)
(2 7.01949e-14 0)
(2 1.27718e-13 0)
(1.83041 0.228934 0)
(1.82624 0.228613 0)
(2 1.08587e-14 0)
(1.83149 0.228847 0)
(2.09973 -0.276934 0)
(1.83159 0.228981 0)
(1.8308 0.230189 0)
(2.10163 -0.200137 0)
(2 -1.44401e-13 0)
(2.13143 -0.272751 0)
(1.84973 0.203022 0)
(1.83003 0.231378 0)
(1.83241 0.228488 0)
(1.83251 0.228958 0)
(2.11948 -0.265099 0)
(1.83152 0.228737 0)
(1.83087 0.229536 0)
(2.11969 -0.264212 0)
(2.11434 -0.277575 0)
(2 -2.54409e-07 0)
(1.83186 0.228384 0)
(1.83194 0.228746 0)
(2 4.75457e-14 0)
(2 -3.49537e-14 0)
(1.83173 0.229098 0)
(2 1.94083e-13 0)
(1.83006 0.230437 0)
(2 2.47378e-06 0)
(1.85221 0.205663 0)
(2 -1.18313e-14 0)
(1.92094 0.11785 0)
(1.83183 0.228695 0)
(1.83044 0.230137 0)
(1.87909 0.170089 0)
(1.83881 0.219939 0)
(1.83086 0.228903 0)
(1.83073 0.229455 0)
(1.8447 0.211796 0)
(2 -5.22645e-14 0)
(2.12346 -0.252322 0)
(1.83149 0.227253 0)
(1.83184 0.229153 0)
(1.82955 0.230872 0)
(2 6.93239e-06 0)
(2 3.31085e-10 0)
(2 1.41791e-09 0)
(1.8273 0.228988 0)
(2 -9.00052e-14 0)
(1.8319 0.229087 0)
(1.83149 0.228872 0)
(2.08556 -0.174366 0)
(2 1.35484e-13 0)
(1.83143 0.228924 0)
(2.00002 -4.18052e-05 0)
(2 9.79595e-14 0)
(1.99999 1.83108e-05 0)
(1.99998 2.81241e-05 0)
(1.83189 0.22912 0)
(1.83142 0.228971 0)
(2.00055 -0.000872464 0)
(2 3.07893e-14 0)
(2 -2.26935e-14 0)
(1.83175 0.228989 0)
(1.83058 0.229486 0)
(1.83153 0.229042 0)
(1.83076 0.231014 0)
(1.83105 0.229431 0)
(2.12447 -0.241268 0)
(1.85033 0.215216 0)
(2 -1.84234e-13 0)
(1.83288 0.227627 0)
(1.8318 0.22862 0)
(1.83169 0.228926 0)
(1.82787 0.234397 0)
(2 1.38349e-13 0)
(1.83207 0.229108 0)
(1.83622 0.223772 0)
(1.83095 0.229637 0)
(2 -2.90114e-13 0)
(1.83081 0.229295 0)
(1.83051 0.227576 0)
(2.05314 -0.0963043 0)
(1.83214 0.228936 0)
(1.83081 0.229398 0)
(2 -7.33692e-14 0)
(1.83142 0.22897 0)
(2.06147 -0.106905 0)
(1.83124 0.22874 0)
(2.05321 -0.0992679 0)
(1.83166 0.229191 0)
(2 -1.17148e-07 0)
(1.8314 0.228906 0)
(1.8239 0.232414 0)
(1.83187 0.228954 0)
(1.8319 0.229348 0)
(1.8314 0.228884 0)
(1.82745 0.227853 0)
(1.83152 0.229591 0)
(1.8287 0.227923 0)
(2 3.41887e-15 0)
(2.02048 -0.0434455 0)
(1.83148 0.229045 0)
(1.83187 0.228874 0)
(2.0544 -0.10228 0)
(1.83179 0.228754 0)
(2.00739 -0.0138156 0)
(1.89274 0.151181 0)
(1.83147 0.228991 0)
(1.83101 0.229113 0)
(1.83154 0.229188 0)
(2 2.41097e-14 0)
(1.83019 0.229795 0)
(1.88679 0.158822 0)
(1.83122 0.228806 0)
(2.02822 -0.0596106 0)
(1.83089 0.23001 0)
(1.82659 0.232199 0)
(2 -9.65782e-14 0)
(2.04547 -0.0893849 0)
(2 -3.75512e-09 0)
(1.82942 0.235205 0)
(2 -6.1489e-14 0)
(1.88493 0.166077 0)
(2 4.25222e-09 0)
(1.84535 0.209529 0)
(2.03717 -0.0846772 0)
(2 -1.05369e-13 0)
(1.82981 0.230837 0)
(1.83308 0.225821 0)
(2 -2.9139e-14 0)
(1.83094 0.227194 0)
(1.83076 0.229879 0)
(1.83534 0.230883 0)
(1.82974 0.22738 0)
(1.83409 0.232098 0)
(2 -1.68833e-13 0)
(1.82768 0.228086 0)
(2 2.03631e-14 0)
(2 3.02483e-14 0)
(2 1.24896e-13 0)
(2.03534 -0.077697 0)
(1.83155 0.228671 0)
(1.83148 0.229232 0)
(1.82974 0.232624 0)
(1.83159 0.228859 0)
(1.83176 0.231562 0)
(1.82876 0.231329 0)
(1.83702 0.225502 0)
(1.83163 0.229122 0)
(2.03067 -0.0753839 0)
(1.98991 0.0209619 0)
(2 3.52665e-09 0)
(2 3.3898e-14 0)
(1.82493 0.232701 0)
(1.83156 0.229025 0)
(1.83147 0.229065 0)
(1.83182 0.229075 0)
(1.99999 1.66848e-05 0)
(1.91517 0.126577 0)
(2 -1.70951e-07 0)
(1.82963 0.231424 0)
(1.86157 0.202043 0)
(2 -3.03659e-12 0)
(2 -5.64406e-11 0)
(2.07416 -0.190961 0)
(1.83167 0.228895 0)
(2 2.66252e-13 0)
(2 -2.25689e-14 0)
(2.11268 -0.263223 0)
(1.8316 0.229034 0)
(2 1.30677e-13 0)
(1.82974 0.228602 0)
(1.83137 0.228896 0)
(1.83105 0.228856 0)
(1.83827 0.221324 0)
(1.83137 0.228885 0)
(2 -1.96943e-10 0)
(2.13256 -0.266691 0)
(1.95713 0.0690612 0)
(1.83168 0.229275 0)
(1.83138 0.228923 0)
(2 -2.74032e-14 0)
(1.83201 0.228974 0)
(1.83141 0.228837 0)
(1.91226 0.124402 0)
(1.99641 0.00648173 0)
(1.96887 0.0548393 0)
(2 -5.86854e-14 0)
(1.83228 0.229517 0)
(1.83146 0.228992 0)
(2 -1.18899e-07 0)
(2 -2.16326e-10 0)
(2.12153 -0.263545 0)
(2 -2.38573e-10 0)
(2 -8.10198e-14 0)
(1.83177 0.228928 0)
(1.83147 0.228934 0)
(1.83178 0.229288 0)
(1.83161 0.229111 0)
(1.83123 0.229137 0)
(1.82916 0.231087 0)
(1.83127 0.229172 0)
(1.83125 0.229707 0)
(1.83123 0.228919 0)
(2 1.24095e-13 0)
(2.00159 -0.00230741 0)
(1.83158 0.229311 0)
(1.83185 0.22885 0)
(2.00106 -0.00170937 0)
(1.83141 0.228843 0)
(1.83151 0.228871 0)
(2.12686 -0.261392 0)
(2.12644 -0.263138 0)
(1.83132 0.229749 0)
(1.82881 0.230712 0)
(2 8.57684e-15 0)
(2 3.94767e-13 0)
(1.99941 0.00141214 0)
(1.83147 0.228872 0)
(1.83178 0.229084 0)
(1.83166 0.229071 0)
(2 9.76167e-10 0)
(1.8314 0.228803 0)
(2 9.06367e-14 0)
(2.04831 -0.0950033 0)
(1.82936 0.231602 0)
(1.83192 0.230479 0)
(2 -3.55117e-14 0)
(1.92393 0.111526 0)
(1.83115 0.228846 0)
(2 6.47289e-14 0)
(1.82947 0.22897 0)
(2 -9.89508e-11 0)
(1.83217 0.228854 0)
(1.88672 0.162868 0)
(1.83232 0.228317 0)
(2 1.36475e-11 0)
(1.83153 0.228934 0)
(1.83029 0.232371 0)
(2.12214 -0.263864 0)
(1.83173 0.229201 0)
(2 -1.27286e-07 0)
(1.83086 0.228738 0)
(1.82804 0.228336 0)
(2 6.90859e-09 0)
(2.12394 -0.260205 0)
(1.8316 0.229802 0)
(1.86567 0.192079 0)
(2.00074 -0.00120595 0)
(1.83996 0.230437 0)
(1.8316 0.22892 0)
(2 -5.08907e-12 0)
(1.99764 0.000755509 0)
(1.83166 0.228063 0)
(2.00275 -0.00264023 0)
(1.83138 0.228933 0)
(2 -3.40128e-12 0)
(2 -2.68399e-14 0)
(1.83113 0.228918 0)
(2 3.58707e-14 0)
(1.83221 0.229649 0)
(1.83144 0.228849 0)
(2.00137 -0.00240694 0)
(1.86494 0.19482 0)
(2 3.27066e-09 0)
(1.83151 0.228893 0)
(2 2.20709e-10 0)
(2 -6.24175e-13 0)
(2 1.0183e-11 0)
(2 6.61495e-12 0)
(1.83187 0.229032 0)
(2 6.9476e-09 0)
(2 -1.58133e-13 0)
(1.82764 0.234041 0)
(2 -4.15904e-14 0)
(1.83137 0.229205 0)
(2 2.72398e-10 0)
(1.89088 0.158258 0)
(1.82978 0.230734 0)