/*--------------------------------*- C++ -*----------------------------------*\
  =========                 |
  \\      /  F ield         | OpenFOAM: The Open Source CFD Toolbox
   \\    /   O peration     | Website:  https://openfoam.org
    \\  /    A nd           | Version:  12
     \\/     M anipulation  |
\*---------------------------------------------------------------------------*/
FoamFile
{
    format      ascii;
    class       volScalarField;
    location    "1.5";
    object      T;
}
// * * * * * * * * * * * * * * * * * * * * * * * * * * * * * * * * * * * * * //

dimensions      [0 0 0 1 0 0 0];

internalField   nonuniform List<scalar> 
9801
(
0.930003
0.930539
0.931552
0.932125
0.932646
0.93325
0.933786
0.934362
0.934852
0.935338
0.936326
0.937203
0.93783
0.938243
0.938797
0.9393
0.939915
0.940666
0.941649
0.942743
0.943539
0.94405
0.944465
0.944852
0.94519
0.945767
0.946744
0.948101
0.94929
0.950004
0.950507
0.950926
0.951281
0.951948
0.952763
0.953856
0.955214
0.956266
0.956794
0.957219
0.95719
0.957461
0.958228
0.959473
0.960883
0.96283
0.964464
0.965322
0.965793
0.965532
0.964589
0.964898
0.965755
0.967318
0.969631
0.971865
0.973746
0.974716
0.974999
0.97385
0.973457
0.97386
0.974878
0.977162
0.980181
0.982267
0.983642
0.984462
0.983995
0.982945
0.983322
0.984473
0.986441
0.989839
0.992542
0.994121
0.995303
0.995051
0.993512
0.993956
0.995372
0.997886
1.00217
1.00545
1.00752
1.00922
1.00957
1.0073
1.00739
1.00968
1.01407
1.02065
1.02594
1.03065
1.03593
1.03946
1.0409
1.11855
1.37081
0.931614
0.932619
0.933713
0.934365
0.934942
0.93547
0.935937
0.936341
0.936685
0.937208
0.938308
0.939309
0.93998
0.940492
0.941003
0.941461
0.941949
0.942542
0.943511
0.944666
0.945459
0.946029
0.946536
0.946995
0.947361
0.947837
0.948595
0.949906
0.951158
0.951953
0.952586
0.953141
0.953536
0.953934
0.954378
0.955146
0.956505
0.957868
0.958708
0.959435
0.95991
0.960153
0.960559
0.961198
0.962054
0.9638
0.965538
0.966593
0.96724
0.967548
0.967394
0.967584
0.968174
0.969173
0.971012
0.973197
0.97503
0.975944
0.976314
0.975833
0.975776
0.976149
0.977004
0.978875
0.981795
0.983844
0.985132
0.985889
0.985654
0.984857
0.985247
0.986305
0.987964
0.991238
0.99399
0.995599
0.996776
0.996854
0.995551
0.995875
0.997199
0.999303
1.00334
1.00676
1.00897
1.01076
1.01149
1.0097
1.00967
1.01184
1.01528
1.02094
1.02582
1.03029
1.03497
1.03723
1.03526
1.11192
1.37273
0.932446
0.93382
0.935075
0.935868
0.936503
0.93702
0.937389
0.937515
0.937661
0.938248
0.939552
0.940733
0.941519
0.942123
0.94266
0.943068
0.943334
0.943661
0.944527
0.945829
0.946799
0.947542
0.948207
0.948772
0.949113
0.949329
0.949745
0.950937
0.952438
0.95347
0.9543
0.954985
0.95549
0.955417
0.955367
0.955785
0.957174
0.95917
0.96069
0.961671
0.962293
0.962658
0.962422
0.96245
0.962746
0.963948
0.966037
0.967746
0.968895
0.969696
0.970271
0.970204
0.97039
0.971183
0.97214
0.97404
0.975999
0.977071
0.977771
0.978157
0.978288
0.978518
0.979352
0.980756
0.983256
0.985305
0.986579
0.987447
0.987751
0.987203
0.987517
0.988581
0.990017
0.993001
0.995869
0.997562
0.998815
0.999342
0.998249
0.998372
0.999656
1.00132
1.00457
1.00848
1.01112
1.01312
1.01449
1.01327
1.01276
1.0149
1.01783
1.02265
1.02802
1.03293
1.03819
1.04208
1.03964
1.11289
1.3743
0.933514
0.935239
0.936768
0.937603
0.938209
0.938684
0.938953
0.938779
0.938863
0.939442
0.941069
0.942486
0.943293
0.943913
0.944458
0.944815
0.944785
0.94492
0.945674
0.947331
0.948539
0.949349
0.950063
0.950662
0.950896
0.950749
0.951027
0.952123
0.954128
0.955425
0.956312
0.957053
0.957637
0.957197
0.95653
0.956906
0.958134
0.960806
0.962859
0.964017
0.964787
0.965439
0.965066
0.96381
0.963749
0.964632
0.966975
0.96965
0.971184
0.972077
0.97284
0.973088
0.972786
0.972873
0.97338
0.974862
0.977558
0.979129
0.980044
0.980821
0.981078
0.981022
0.98159
0.982554
0.984406
0.986883
0.988532
0.989639
0.990452
0.990102
0.990123
0.991002
0.992212
0.994585
0.997817
0.999855
1.00124
1.00223
1.00152
1.00104
1.0021
1.00373
1.00633
1.01062
1.01391
1.01611
1.01787
1.01767
1.01638
1.01772
1.02057
1.02445
1.0295
1.03425
1.03907
1.04387
1.04287
1.1117
1.37287
0.934676
0.936697
0.938314
0.939182
0.939741
0.940166
0.940101
0.939738
0.93998
0.940735
0.94259
0.944154
0.944983
0.945574
0.946041
0.945975
0.945677
0.946003
0.947047
0.949014
0.950354
0.951191
0.951861
0.95236
0.952062
0.951754
0.952197
0.953455
0.955862
0.957346
0.958193
0.958829
0.959147
0.958334
0.957947
0.958454
0.959523
0.962335
0.96477
0.965949
0.966717
0.967238
0.966339
0.965217
0.965471
0.96631
0.968418
0.971542
0.973349
0.974338
0.975169
0.975301
0.974236
0.974118
0.974734
0.976203
0.97931
0.981321
0.98241
0.983285
0.983667
0.983053
0.983209
0.984073
0.985663
0.988598
0.99075
0.99202
0.993033
0.993015
0.992511
0.993023
0.994082
0.995828
0.999216
1.00203
1.00365
1.0049
1.00481
1.00386
1.00442
1.00593
1.00791
1.01156
1.01546
1.01815
1.02024
1.02145
1.02023
1.02012
1.02237
1.02564
1.03043
1.03503
1.03902
1.04308
1.0431
1.11083
1.36975
0.93577
0.938107
0.939857
0.940747
0.941282
0.941609
0.941155
0.940765
0.941069
0.941954
0.944095
0.945788
0.946636
0.947209
0.947539
0.946945
0.946638
0.947067
0.948359
0.950775
0.952214
0.953005
0.953592
0.953803
0.953023
0.952805
0.953293
0.954597
0.957446
0.959325
0.960108
0.960649
0.960602
0.959653
0.95947
0.960027
0.96099
0.963665
0.966423
0.967678
0.96836
0.968535
0.967447
0.966895
0.967359
0.968252
0.970177
0.973324
0.975214
0.976223
0.976953
0.976478
0.975271
0.975454
0.976233
0.977798
0.981012
0.983196
0.98438
0.9853
0.98565
0.984586
0.984481
0.985348
0.98678
0.989892
0.992619
0.99406
0.995165
0.995535
0.994668
0.994594
0.995474
0.996839
0.999741
1.00338
1.00556
1.00698
1.0076
1.00657
1.00634
1.00744
1.00909
1.01173
1.0158
1.01903
1.02134
1.02337
1.02371
1.02235
1.0232
1.02563
1.02941
1.03405
1.03784
1.04101
1.04215
1.11053
1.36593
0.936841
0.9393
0.941233
0.94214
0.942645
0.942802
0.942134
0.941868
0.94222
0.9431
0.945404
0.947263
0.948112
0.948634
0.948685
0.947871
0.94772
0.948185
0.949397
0.952153
0.953948
0.954697
0.955206
0.95506
0.954115
0.953976
0.954453
0.955492
0.958401
0.960843
0.9619
0.962374
0.962104
0.96112
0.960991
0.961544
0.962395
0.964581
0.967422
0.968821
0.969525
0.969732
0.968861
0.968512
0.969056
0.969966
0.971747
0.974713
0.97657
0.9775
0.978002
0.977276
0.976473
0.976861
0.977667
0.979118
0.982359
0.984744
0.985981
0.986887
0.987132
0.985931
0.98568
0.986451
0.987676
0.990536
0.993851
0.995658
0.996825
0.997431
0.99649
0.99598
0.996566
0.997733
0.999764
1.00361
1.00658
1.0083
1.00955
1.00918
1.00805
1.00849
1.00983
1.01173
1.01527
1.01905
1.02175
1.0239
1.02553
1.02495
1.02413
1.02553
1.02803
1.03199
1.03587
1.03881
1.04057
1.11068
1.36196
0.937928
0.940357
0.942487
0.943444
0.943922
0.943955
0.943172
0.94296
0.943346
0.944192
0.946534
0.948544
0.949403
0.949885
0.949787
0.948965
0.948873
0.94934
0.950292
0.952972
0.955362
0.95634
0.956747
0.956325
0.955325
0.955213
0.955685
0.956495
0.958766
0.961625
0.962972
0.96362
0.963698
0.962745
0.962497
0.962976
0.963677
0.965189
0.967834
0.969512
0.970362
0.970824
0.970351
0.970081
0.970666
0.971557
0.972999
0.975593
0.977362
0.978228
0.978728
0.978333
0.977747
0.978146
0.978988
0.980184
0.983161
0.985844
0.987211
0.988051
0.98823
0.987137
0.986853
0.987573
0.988594
0.990652
0.994331
0.996698
0.998031
0.99887
0.998199
0.997167
0.997492
0.998511
0.999905
1.00304
1.00686
1.00911
1.01058
1.01138
1.01004
1.00937
1.01037
1.01194
1.01444
1.01832
1.0215
1.02385
1.02588
1.02709
1.02602
1.02566
1.02724
1.02979
1.0335
1.03663
1.03873
1.11103
1.35781
0.939039
0.941236
0.943422
0.944461
0.944965
0.945068
0.944381
0.944134
0.944482
0.945192
0.947333
0.94956
0.950521
0.950999
0.950955
0.950197
0.950086
0.950519
0.951211
0.953251
0.95599
0.957285
0.957866
0.957842
0.956844
0.95655
0.956933
0.957544
0.958942
0.961717
0.963595
0.964464
0.964923
0.964561
0.964069
0.964331
0.964891
0.965835
0.967978
0.969967
0.971048
0.971733
0.971795
0.97161
0.972069
0.972835
0.973814
0.975839
0.977735
0.978746
0.979417
0.979531
0.979104
0.979533
0.980355
0.981303
0.983384
0.986259
0.987893
0.988791
0.989231
0.988366
0.987913
0.988522
0.989501
0.990832
0.994059
0.997175
0.998785
0.999855
0.999927
0.998543
0.998299
0.999142
1.00033
1.00232
1.00628
1.00936
1.01112
1.0124
1.01237
1.01087
1.01099
1.01228
1.01403
1.0172
1.02088
1.0236
1.02573
1.0276
1.02818
1.02697
1.0271
1.02868
1.03118
1.03432
1.03666
1.11096
1.35337
0.940164
0.94201
0.944219
0.94538
0.945944
0.946191
0.945665
0.945349
0.945623
0.946155
0.947804
0.950255
0.951523
0.952086
0.952263
0.951649
0.951375
0.951681
0.952187
0.953319
0.955948
0.957837
0.958693
0.959147
0.958804
0.958127
0.958226
0.958692
0.95948
0.961503
0.963754
0.964959
0.965651
0.966012
0.965734
0.96569
0.966103
0.96673
0.968224
0.970316
0.971647
0.972499
0.972993
0.972968
0.973164
0.973717
0.974389
0.975704
0.977886
0.979331
0.980221
0.980855
0.98074
0.980843
0.98142
0.982188
0.983413
0.985911
0.988145
0.989308
0.990091
0.989978
0.989247
0.989548
0.990462
0.991559
0.993429
0.996852
0.999135
1.00036
1.00118
1.00049
0.999425
0.999921
1.00108
1.00242
1.00512
1.00883
1.01117
1.01269
1.01382
1.01331
1.01213
1.01277
1.0142
1.01633
1.01977
1.02293
1.02529
1.02733
1.02908
1.02933
1.02815
1.02839
1.02972
1.03191
1.03447
1.11023
1.34867
0.941285
0.942721
0.944875
0.9462
0.946859
0.947239
0.947046
0.946613
0.946742
0.947142
0.948168
0.950571
0.952294
0.953079
0.953503
0.953325
0.952742
0.952779
0.953155
0.953773
0.955601
0.957984
0.959281
0.960002
0.96043
0.960084
0.959745
0.959968
0.960424
0.961495
0.963571
0.965192
0.966154
0.966834
0.967179
0.967101
0.967307
0.967815
0.968683
0.970585
0.972209
0.973218
0.973911
0.974263
0.97421
0.974438
0.974926
0.975755
0.977817
0.979955
0.981168
0.982008
0.982423
0.982195
0.982361
0.982896
0.983687
0.985076
0.98784
0.989731
0.990825
0.991551
0.991174
0.990899
0.991497
0.99234
0.993313
0.995493
0.998721
1.00059
1.00174
1.00244
1.00161
1.00122
1.00199
1.00307
1.00445
1.00744
1.01072
1.01276
1.01425
1.01521
1.01454
1.01389
1.01477
1.01624
1.01847
1.02184
1.02474
1.02697
1.02893
1.03042
1.03045
1.02921
1.02918
1.0301
1.03234
1.10848
1.34378
0.942379
0.943476
0.945471
0.947016
0.94777
0.948239
0.948369
0.947924
0.947855
0.948162
0.94876
0.950664
0.952829
0.953932
0.954531
0.954851
0.954451
0.954078
0.954225
0.954597
0.955563
0.957824
0.959668
0.96069
0.961367
0.961729
0.961507
0.96133
0.961541
0.961994
0.963511
0.965453
0.966706
0.967565
0.968229
0.968476
0.968413
0.96873
0.969305
0.970841
0.972835
0.974018
0.974816
0.975452
0.975433
0.975176
0.975435
0.976078
0.977606
0.980385
0.9822
0.983183
0.983939
0.983937
0.983448
0.983402
0.983788
0.984584
0.986892
0.990029
0.991817
0.992862
0.993496
0.992891
0.99256
0.992775
0.993322
0.994427
0.997423
1.00069
1.00245
1.00373
1.00433
1.00332
1.00298
1.00354
1.00447
1.00609
1.00947
1.01255
1.01446
1.01601
1.01707
1.01619
1.01561
1.01647
1.01794
1.02024
1.02358
1.02635
1.02846
1.03029
1.03147
1.03137
1.02994
1.02913
1.03041
1.10584
1.33872
0.943471
0.944346
0.946
0.947836
0.948727
0.949253
0.94957
0.949317
0.949024
0.949207
0.949626
0.950846
0.953154
0.954654
0.955444
0.955965
0.956155
0.955619
0.955367
0.955591
0.956102
0.957828
0.959975
0.961274
0.962088
0.962685
0.962975
0.96259
0.962575
0.96298
0.964046
0.966063
0.967453
0.968396
0.969165
0.969608
0.96925
0.969234
0.969732
0.971069
0.973486
0.974994
0.975867
0.976577
0.976753
0.97605
0.976001
0.976533
0.977539
0.98037
0.983039
0.984372
0.985203
0.985603
0.984581
0.983742
0.983962
0.984685
0.986285
0.989945
0.992767
0.994187
0.995146
0.99513
0.993609
0.992946
0.993384
0.994374
0.996306
1.00029
1.00322
1.0047
1.00589
1.00579
1.00427
1.00397
1.00476
1.00594
1.00813
1.01194
1.01485
1.0166
1.01798
1.01856
1.0174
1.01701
1.01802
1.01952
1.02195
1.02521
1.02779
1.02969
1.03129
1.03211
1.03192
1.03014
1.02912
1.10212
1.3335
0.944595
0.945289
0.946457
0.948581
0.949744
0.950341
0.950726
0.950724
0.950251
0.95025
0.950586
0.951336
0.95341
0.955311
0.956308
0.956937
0.957385
0.957209
0.9566
0.95664
0.957055
0.958326
0.960544
0.961964
0.962827
0.963494
0.963891
0.963457
0.963293
0.96378
0.96505
0.967122
0.968517
0.969445
0.970181
0.970559
0.96991
0.969658
0.970101
0.971197
0.973943
0.976093
0.977067
0.977786
0.978069
0.977106
0.97666
0.977097
0.97788
0.980023
0.98347
0.9853
0.986286
0.986822
0.985801
0.984411
0.984577
0.985318
0.986404
0.989422
0.99322
0.994992
0.996083
0.996696
0.995115
0.993656
0.994027
0.994956
0.996228
0.999251
1.00321
1.0053
1.00649
1.00727
1.00632
1.00496
1.00537
1.0065
1.00789
1.01068
1.01434
1.01666
1.01823
1.01944
1.01959
1.0185
1.01852
1.01967
1.02117
1.02364
1.02665
1.02886
1.03048
1.03179
1.03237
1.03181
1.02995
1.09833
1.32815
0.945716
0.946236
0.946944
0.949114
0.9508
0.951502
0.951925
0.95208
0.951565
0.951293
0.951534
0.952076
0.95378
0.955968
0.957167
0.957861
0.958356
0.9584
0.957737
0.957678
0.958139
0.959296
0.961378
0.962807
0.963679
0.964336
0.964599
0.96392
0.963806
0.964329
0.965663
0.968264
0.969854
0.970679
0.971321
0.97149
0.970557
0.970183
0.970606
0.971471
0.97408
0.976913
0.97826
0.978963
0.979282
0.978224
0.977407
0.977767
0.978522
0.979922
0.983275
0.98585
0.987053
0.987762
0.987311
0.985731
0.985635
0.986429
0.987473
0.989333
0.992729
0.995167
0.996373
0.996881
0.996553
0.995292
0.995242
0.9962
0.997381
0.999035
1.0021
1.00496
1.0065
1.0075
1.00796
1.00713
1.00666
1.00749
1.00868
1.01017
1.01292
1.01593
1.01793
1.01938
1.02055
1.02074
1.02003
1.0203
1.02146
1.02287
1.02506
1.0276
1.02948
1.03087
1.03194
1.03223
1.03176
1.09609
1.32269
0.946828
0.947164
0.947618
0.949374
0.951619
0.952707
0.953147
0.953387
0.952969
0.952399
0.952522
0.952984
0.954352
0.956633
0.95801
0.958741
0.959226
0.959257
0.95862
0.9586
0.959113
0.960488
0.962635
0.963913
0.964683
0.965261
0.965307
0.964479
0.964416
0.964945
0.966054
0.968896
0.971065
0.971969
0.972512
0.972464
0.97132
0.970908
0.971333
0.972077
0.974047
0.977318
0.979154
0.980082
0.980489
0.979552
0.978499
0.978741
0.979477
0.980401
0.982538
0.985577
0.987219
0.988083
0.988572
0.988013
0.987413
0.987883
0.988687
0.989558
0.9912
0.994074
0.996004
0.997104
0.998021
0.99799
0.997353
0.997662
0.998435
0.999287
1.00056
1.00344
1.00611
1.00761
1.00882
1.00956
1.00882
1.00853
1.00926
1.01031
1.01169
1.01423
1.01713
1.01918
1.02067
1.0219
1.02241
1.02193
1.02203
1.02292
1.02413
1.02589
1.02813
1.02988
1.03117
1.0319
1.03275
1.0952
1.31713
0.948049
0.948128
0.94849
0.949641
0.952021
0.953582
0.954312
0.954661
0.954445
0.953685
0.953643
0.954037
0.955074
0.957272
0.958787
0.959558
0.96004
0.960063
0.959472
0.959482
0.959978
0.961243
0.963766
0.965223
0.965854
0.966302
0.966096
0.965239
0.965199
0.965706
0.966549
0.96901
0.971794
0.97312
0.973728
0.973662
0.972472
0.971964
0.972367
0.973044
0.974172
0.97696
0.97941
0.980521
0.981144
0.981242
0.98035
0.980096
0.980546
0.981168
0.982031
0.984357
0.987171
0.988689
0.989653
0.99021
0.989675
0.989246
0.98944
0.989806
0.990515
0.992264
0.995468
0.997724
0.999042
1.00006
1.00009
0.999254
0.999058
0.999468
1.00028
1.00179
1.00507
1.00789
1.00939
1.01051
1.0111
1.01043
1.01007
1.01066
1.01168
1.01304
1.01545
1.01844
1.02063
1.02216
1.02335
1.024
1.02363
1.02336
1.02394
1.02498
1.02644
1.02856
1.03035
1.03141
1.03284
1.0951
1.3114
0.949426
0.949232
0.949491
0.95018
0.952193
0.954107
0.955037
0.955587
0.955756
0.955136
0.954894
0.955208
0.955941
0.957912
0.959545
0.960374
0.960893
0.960997
0.960414
0.960394
0.960855
0.961787
0.964279
0.966341
0.967138
0.967502
0.967208
0.966308
0.966215
0.966671
0.967316
0.968791
0.971746
0.973563
0.974377
0.974782
0.974322
0.973518
0.973591
0.974055
0.974697
0.976069
0.978939
0.980945
0.981979
0.982642
0.98264
0.981817
0.981568
0.981793
0.982299
0.98332
0.986208
0.989121
0.990571
0.991485
0.991955
0.991169
0.990303
0.990221
0.990685
0.991612
0.994061
0.997721
0.999839
1.00104
1.00196
1.00146
1.00013
0.999959
1.00063
1.00164
1.0035
1.00695
1.00948
1.01093
1.01213
1.01272
1.01188
1.01144
1.01204
1.01306
1.01442
1.01689
1.01986
1.02196
1.02344
1.02459
1.02524
1.02493
1.02442
1.02479
1.02567
1.02699
1.02907
1.03058
1.03232
1.09512
1.30547
0.950865
0.950516
0.950607
0.951054
0.952535
0.954537
0.955657
0.956299
0.956644
0.95646
0.956134
0.956364
0.956939
0.958668
0.960381
0.961281
0.961824
0.962017
0.961485
0.961371
0.961749
0.962362
0.964156
0.96678
0.96808
0.968615
0.968735
0.967948
0.967458
0.967671
0.968142
0.968868
0.971011
0.973724
0.975075
0.97577
0.976133
0.975546
0.974913
0.974974
0.97537
0.975982
0.977696
0.980803
0.982737
0.983759
0.9844
0.984152
0.983016
0.982613
0.98292
0.983527
0.9849
0.988424
0.991095
0.992383
0.99329
0.993387
0.991804
0.990908
0.991271
0.992053
0.993329
0.996712
0.999999
1.00158
1.00257
1.00318
1.00211
1.00096
1.00127
1.00216
1.00327
1.00544
1.00881
1.01115
1.01257
1.01362
1.014
1.01311
1.01277
1.01352
1.01464
1.01595
1.01835
1.02116
1.02311
1.0245
1.02556
1.02619
1.02601
1.02547
1.0257
1.02644
1.02756
1.0292
1.03112
1.09478
1.29933
0.952014
0.951901
0.9518
0.952186
0.953178
0.955108
0.956299
0.956969
0.957391
0.957488
0.957217
0.957386
0.957894
0.959441
0.961424
0.962334
0.96285
0.963119
0.962696
0.962391
0.962624
0.9631
0.964047
0.966612
0.968721
0.969665
0.970091
0.969949
0.969052
0.968771
0.969021
0.969494
0.970419
0.973059
0.975532
0.976734
0.97738
0.977664
0.97685
0.976135
0.97612
0.976459
0.977172
0.979587
0.982937
0.984666
0.985608
0.986139
0.985235
0.983814
0.983634
0.984096
0.98487
0.987065
0.990835
0.992953
0.994041
0.994801
0.994019
0.992275
0.992192
0.992967
0.993964
0.995728
0.998966
1.0014
1.00269
1.00358
1.00394
1.00303
1.00246
1.00299
1.00391
1.00501
1.00722
1.0104
1.01247
1.01378
1.01478
1.01514
1.01453
1.01435
1.0151
1.01623
1.01749
1.01962
1.02216
1.024
1.02534
1.02636
1.02709
1.02724
1.02671
1.02659
1.02711
1.02782
1.02974
1.09316
1.29294
0.95281
0.953037
0.952964
0.953378
0.954195
0.955824
0.957004
0.957691
0.958164
0.958359
0.958164
0.958318
0.958782
0.959884
0.962113
0.963481
0.963991
0.964327
0.964156
0.963599
0.963615
0.963978
0.964501
0.965953
0.968749
0.970393
0.971169
0.97159
0.971239
0.97031
0.970074
0.970298
0.970736
0.971966
0.975137
0.977434
0.978521
0.979121
0.979089
0.977726
0.976957
0.977134
0.977654
0.978762
0.982105
0.985161
0.986497
0.987303
0.987381
0.985637
0.984548
0.984793
0.985456
0.986604
0.989643
0.992849
0.994398
0.995282
0.995789
0.994721
0.993776
0.994109
0.994842
0.995684
0.997289
1.00029
1.00253
1.00378
1.00475
1.00531
1.00448
1.00403
1.00464
1.00563
1.00682
1.00877
1.01142
1.01342
1.01475
1.01582
1.01646
1.01626
1.01618
1.01676
1.01773
1.01889
1.02061
1.02289
1.02476
1.02613
1.0272
1.02801
1.02848
1.02813
1.02761
1.02746
1.02825
1.09057
1.2863
0.953525
0.9539
0.953874
0.954351
0.955407
0.956959
0.957899
0.958559
0.959046
0.95929
0.959096
0.959181
0.959561
0.960183
0.962111
0.96426
0.965243
0.96565
0.965816
0.965215
0.964774
0.964878
0.965208
0.965791
0.967917
0.970737
0.972131
0.97281
0.973182
0.972456
0.971343
0.971126
0.971438
0.972035
0.974029
0.97752
0.979373
0.980241
0.980692
0.97985
0.978216
0.977951
0.978407
0.979106
0.981
0.984722
0.986979
0.988015
0.988716
0.988003
0.986135
0.985812
0.986377
0.987139
0.988643
0.99179
0.99435
0.995651
0.996481
0.996949
0.996092
0.995312
0.995529
0.996241
0.997173
0.998794
1.00158
1.00386
1.00522
1.00616
1.00665
1.00621
1.00601
1.00649
1.00718
1.00805
1.00952
1.01212
1.01442
1.01594
1.01713
1.01812
1.0183
1.01801
1.01822
1.01889
1.01987
1.02124
1.02339
1.02548
1.02699
1.02811
1.02897
1.02952
1.02939
1.02832
1.02774
1.08659
1.2795
0.954301
0.954684
0.954571
0.95499
0.955852
0.957847
0.959141
0.959686
0.960118
0.960374
0.960094
0.959958
0.960201
0.960654
0.961741
0.964385
0.966197
0.966952
0.967349
0.967225
0.966271
0.965825
0.965975
0.966375
0.967284
0.970191
0.972749
0.973887
0.974441
0.974565
0.973214
0.9722
0.972294
0.972768
0.973703
0.976622
0.979711
0.981067
0.981778
0.981815
0.980176
0.979098
0.979318
0.979911
0.980839
0.98346
0.986753
0.988375
0.98915
0.989561
0.988605
0.987425
0.987521
0.988135
0.988903
0.990403
0.993273
0.995583
0.9969
0.997798
0.998291
0.99757
0.996907
0.997123
0.997709
0.99849
0.999921
1.00277
1.00511
1.00649
1.00765
1.00849
1.00811
1.00737
1.00745
1.00817
1.00919
1.01066
1.01332
1.01583
1.01744
1.01862
1.01951
1.01976
1.01928
1.01917
1.01984
1.02082
1.02206
1.02422
1.02643
1.0279
1.0289
1.0296
1.0301
1.02997
1.02884
1.08281
1.27265
0.955209
0.955475
0.955201
0.955526
0.956102
0.957962
0.960099
0.961027
0.961415
0.961686
0.961341
0.960845
0.960905
0.96127
0.961798
0.963584
0.9665
0.968016
0.968666
0.969023
0.968402
0.967181
0.966881
0.967131
0.967623
0.969172
0.972561
0.974595
0.975507
0.975978
0.975476
0.973837
0.973375
0.973701
0.97425
0.975674
0.979062
0.981452
0.982471
0.983084
0.982596
0.980881
0.980487
0.980953
0.981611
0.982754
0.985463
0.988115
0.989446
0.990209
0.990689
0.989977
0.989162
0.989243
0.98971
0.990387
0.991667
0.994415
0.996832
0.998195
0.999134
0.99978
0.999192
0.998282
0.998274
0.998869
0.999766
1.00138
1.00446
1.00686
1.00816
1.00909
1.00971
1.00913
1.00831
1.00866
1.00957
1.01068
1.01224
1.01495
1.01722
1.01862
1.01965
1.02027
1.02057
1.02042
1.02049
1.02116
1.02214
1.02322
1.02501
1.02701
1.02838
1.02928
1.03
1.0305
1.03066
1.08091
1.26578
0.956295
0.956414
0.955932
0.956115
0.9565
0.957491
0.960176
0.962126
0.962858
0.963195
0.963079
0.962165
0.961728
0.961842
0.962213
0.962992
0.96577
0.968569
0.969768
0.970312
0.970457
0.969199
0.968041
0.967991
0.968368
0.969076
0.971499
0.974774
0.976286
0.97701
0.97727
0.976073
0.974767
0.974721
0.975141
0.975781
0.977756
0.981049
0.982885
0.983691
0.984142
0.983508
0.982357
0.982276
0.982676
0.983192
0.984149
0.986704
0.989332
0.990795
0.991687
0.992248
0.991713
0.990791
0.99061
0.990926
0.991565
0.992809
0.995722
0.998301
0.999685
1.00062
1.00123
1.00037
0.999338
0.999552
1.00033
1.00135
1.00327
1.00615
1.00809
1.00925
1.01003
1.01032
1.01008
1.00997
1.01057
1.01157
1.01267
1.01398
1.01586
1.01768
1.01901
1.02007
1.02108
1.02192
1.02218
1.02226
1.02264
1.02332
1.02418
1.02531
1.02701
1.02863
1.0298
1.03057
1.03135
1.08013
1.25881
0.957607
0.957754
0.95691
0.956736
0.95696
0.957444
0.959249
0.962446
0.964061
0.964646
0.964883
0.964091
0.962801
0.962522
0.96284
0.963351
0.964699
0.968118
0.970385
0.971345
0.971791
0.971525
0.969871
0.969106
0.969269
0.969721
0.970771
0.973885
0.976627
0.977779
0.978371
0.978307
0.976825
0.976013
0.976187
0.97665
0.977394
0.979552
0.982536
0.984184
0.985065
0.985615
0.985077
0.983967
0.983648
0.98389
0.98438
0.985315
0.987947
0.99084
0.992399
0.993352
0.993939
0.993224
0.991913
0.991637
0.992084
0.992848
0.994396
0.997523
0.999869
1.00108
1.00186
1.00219
1.00142
1.0009
1.00136
1.00219
1.00318
1.0047
1.00691
1.00864
1.00976
1.01066
1.01165
1.01213
1.01227
1.01267
1.01327
1.01387
1.0146
1.01593
1.018
1.01994
1.02134
1.02247
1.02345
1.02404
1.02401
1.02381
1.02399
1.0246
1.02558
1.02721
1.02923
1.03061
1.03169
1.07976
1.25166
0.959059
0.95937
0.958285
0.957501
0.957551
0.957943
0.958664
0.96144
0.964522
0.965814
0.966286
0.966305
0.964864
0.963679
0.963622
0.963957
0.96454
0.966691
0.970255
0.971991
0.972796
0.973174
0.972318
0.970695
0.970323
0.970595
0.971094
0.972573
0.975958
0.978209
0.979182
0.979718
0.979414
0.978032
0.977488
0.977603
0.977887
0.978607
0.98097
0.984128
0.985833
0.986727
0.987241
0.986627
0.985285
0.984807
0.984952
0.985461
0.98661
0.989788
0.992687
0.994031
0.994864
0.995321
0.994087
0.992792
0.992914
0.993581
0.994536
0.996345
0.999005
1.00088
1.00197
1.00277
1.00341
1.00318
1.00283
1.00309
1.0037
1.00448
1.00546
1.00717
1.00933
1.01113
1.01233
1.01341
1.01421
1.01436
1.01411
1.01401
1.01446
1.01531
1.01658
1.01883
1.0211
1.02261
1.0237
1.02456
1.02519
1.02522
1.02466
1.02461
1.02524
1.02624
1.02807
1.03
1.03139
1.07935
1.24428
0.960459
0.960925
0.960332
0.958856
0.95836
0.958554
0.958953
0.960089
0.963669
0.966353
0.967408
0.967858
0.96752
0.965645
0.964595
0.964629
0.965029
0.965941
0.969014
0.972218
0.973541
0.974178
0.974333
0.972942
0.971639
0.971522
0.971859
0.972457
0.974389
0.977833
0.979802
0.980704
0.981207
0.98068
0.979147
0.978495
0.978656
0.979103
0.979958
0.982688
0.985904
0.987474
0.988336
0.988785
0.987767
0.986064
0.98573
0.986189
0.986886
0.988511
0.99186
0.994181
0.99528
0.995966
0.99617
0.995085
0.994404
0.994745
0.995425
0.996185
0.99748
0.999815
1.00186
1.00321
1.00413
1.00486
1.00502
1.00472
1.00461
1.00486
1.00549
1.00639
1.008
1.01062
1.01262
1.01383
1.01475
1.01551
1.01567
1.01492
1.0148
1.01554
1.01657
1.01791
1.0201
1.0222
1.02356
1.02454
1.0253
1.02586
1.02606
1.0257
1.0257
1.02643
1.0274
1.02899
1.03052
1.07774
1.23668
0.96131
0.962328
0.962451
0.961145
0.959573
0.959261
0.9595
0.96001
0.961972
0.965941
0.968062
0.968916
0.969288
0.968406
0.966319
0.965615
0.965829
0.966307
0.967707
0.971264
0.973853
0.9749
0.975442
0.975325
0.973707
0.972718
0.972729
0.973086
0.973831
0.976244
0.979655
0.981379
0.982219
0.982619
0.981822
0.980176
0.979645
0.979835
0.980307
0.981412
0.984695
0.987672
0.988988
0.989769
0.990044
0.98853
0.987149
0.987225
0.987765
0.988513
0.990289
0.993307
0.995251
0.996245
0.996958
0.997382
0.996773
0.996109
0.996196
0.996756
0.997537
0.99863
1.00066
1.00289
1.00441
1.00543
1.00635
1.0068
1.00624
1.00569
1.00603
1.00682
1.0078
1.00945
1.01197
1.01375
1.01485
1.01564
1.0161
1.01637
1.01626
1.01652
1.01728
1.01818
1.01914
1.02066
1.02258
1.02401
1.025
1.02585
1.02674
1.02737
1.02714
1.02693
1.02745
1.02833
1.02969
1.07546
1.22893
0.961507
0.963529
0.963926
0.96372
0.961732
0.960335
0.960262
0.960622
0.961416
0.964282
0.967892
0.969412
0.970119
0.970397
0.96912
0.967261
0.966851
0.967074
0.967603
0.969542
0.973286
0.975424
0.976332
0.976807
0.976257
0.974477
0.973747
0.973883
0.97428
0.975205
0.978107
0.981365
0.982875
0.98371
0.984084
0.982813
0.981009
0.980646
0.981015
0.981636
0.983205
0.986706
0.98916
0.99023
0.990931
0.991066
0.98954
0.988537
0.988694
0.989239
0.990058
0.991761
0.994377
0.996291
0.997458
0.998276
0.998845
0.998553
0.997838
0.99775
0.99811
0.998682
0.999627
1.00167
1.0042
1.00584
1.00683
1.00762
1.00799
1.00741
1.00708
1.00759
1.00844
1.00938
1.01067
1.01264
1.01427
1.01534
1.01621
1.0172
1.01801
1.01828
1.01831
1.01857
1.01913
1.01995
1.02111
1.02291
1.02467
1.02595
1.02692
1.02785
1.02859
1.02853
1.02807
1.02824
1.02897
1.07244
1.22109
0.960561
0.96409
0.964972
0.965338
0.964685
0.962448
0.961431
0.961476
0.961798
0.962942
0.966507
0.96959
0.970792
0.971414
0.971452
0.969652
0.968104
0.967949
0.9683
0.969073
0.971646
0.97523
0.976943
0.977718
0.978042
0.977041
0.975295
0.974792
0.975008
0.975478
0.976685
0.980109
0.983104
0.98439
0.985107
0.985241
0.983591
0.982059
0.981976
0.982415
0.983137
0.985071
0.98837
0.990398
0.991374
0.992
0.992084
0.99097
0.990226
0.990339
0.990758
0.991422
0.992739
0.995272
0.997443
0.998748
0.99964
1.00039
1.00023
0.999098
0.998736
0.999211
0.999965
1.00108
1.0032
1.00552
1.00697
1.00791
1.00856
1.00902
1.00895
1.00889
1.00925
1.00984
1.01057
1.01146
1.01298
1.01492
1.01652
1.01762
1.0186
1.01953
1.02001
1.0198
1.01962
1.01994
1.02062
1.0216
1.02338
1.02545
1.0269
1.02799
1.02896
1.02955
1.02955
1.029
1.0288
1.06901
1.21319
0.95907
0.963699
0.965525
0.966311
0.966618
0.965473
0.963206
0.962453
0.962651
0.963144
0.964928
0.968744
0.971121
0.972023
0.972477
0.972177
0.970237
0.969213
0.969281
0.969637
0.970594
0.973613
0.976873
0.978306
0.979059
0.979268
0.977825
0.976163
0.975884
0.97623
0.976829
0.978462
0.981995
0.984447
0.985506
0.986236
0.98632
0.984566
0.983331
0.983389
0.983877
0.984689
0.98667
0.989597
0.991443
0.992411
0.993153
0.993522
0.992676
0.991715
0.991559
0.991945
0.992674
0.99397
0.996538
0.998854
1.00018
1.00098
1.00158
1.00125
1.00022
1.00018
1.00078
1.00161
1.0027
1.00438
1.0063
1.00769
1.00867
1.0095
1.01033
1.01075
1.01074
1.01072
1.01094
1.01151
1.01236
1.01378
1.0159
1.01763
1.01882
1.01978
1.02058
1.02106
1.02085
1.02044
1.02068
1.02142
1.02242
1.02432
1.02648
1.02794
1.02897
1.02972
1.03018
1.03025
1.02937
1.06595
1.20528
0.958475
0.962098
0.965538
0.966901
0.967532
0.967687
0.966006
0.964091
0.963764
0.964024
0.964642
0.966953
0.970643
0.972503
0.973314
0.973717
0.972874
0.970966
0.970315
0.970416
0.970792
0.972057
0.975575
0.978533
0.979752
0.980432
0.980395
0.978586
0.977218
0.977173
0.977529
0.978166
0.980061
0.983594
0.985771
0.986741
0.987346
0.987278
0.985758
0.984793
0.984862
0.985304
0.986111
0.987922
0.990707
0.992662
0.993758
0.994479
0.994887
0.994087
0.99296
0.992839
0.993319
0.994083
0.995475
0.997976
1.00004
1.00119
1.00191
1.00238
1.00237
1.00194
1.002
1.0025
1.0032
1.00406
1.0052
1.00674
1.00834
1.00972
1.01078
1.01167
1.01236
1.01246
1.0121
1.01218
1.01271
1.01347
1.01468
1.01674
1.01849
1.01967
1.02058
1.02133
1.02189
1.02189
1.02157
1.02185
1.02262
1.02361
1.02526
1.02723
1.02862
1.02959
1.03032
1.03083
1.03046
1.06377
1.19734
0.958842
0.960717
0.964327
0.967032
0.96801
0.968546
0.968505
0.966622
0.965168
0.965002
0.965272
0.966146
0.96907
0.972498
0.973981
0.974628
0.974792
0.973369
0.971653
0.971342
0.971672
0.972217
0.973856
0.977458
0.97993
0.980979
0.981627
0.981398
0.979505
0.978314
0.978352
0.97881
0.979666
0.981858
0.984975
0.986802
0.987701
0.988383
0.988472
0.987182
0.986191
0.986192
0.986641
0.9875
0.989209
0.991896
0.993817
0.994893
0.995631
0.996109
0.99534
0.994329
0.99435
0.994889
0.99569
0.996973
0.998978
1.00076
1.00191
1.00271
1.00342
1.00395
1.00398
1.00397
1.00418
1.00455
1.00501
1.00572
1.00706
1.00914
1.01089
1.01204
1.01294
1.01377
1.01396
1.01338
1.01326
1.01379
1.01457
1.01561
1.01736
1.01915
1.02042
1.02135
1.02218
1.02295
1.02324
1.02298
1.02308
1.02367
1.02454
1.0258
1.02768
1.0292
1.03023
1.03111
1.03145
1.06201
1.18929
0.959645
0.960611
0.962524
0.966358
0.968453
0.969277
0.969725
0.969173
0.967108
0.966195
0.966305
0.966667
0.96783
0.971118
0.974047
0.975252
0.975863
0.975794
0.974041
0.972768
0.972679
0.97293
0.973497
0.975433
0.979051
0.981195
0.982119
0.982772
0.982447
0.980581
0.979684
0.979839
0.980249
0.981062
0.983109
0.986074
0.987923
0.98889
0.989562
0.989699
0.98852
0.987546
0.98758
0.988057
0.988878
0.990441
0.99297
0.994883
0.995972
0.996644
0.997128
0.996703
0.996033
0.996045
0.996524