/*--------------------------------*- C++ -*----------------------------------*\
  =========                 |
  \\      /  F ield         | OpenFOAM: The Open Source CFD Toolbox
   \\    /   O peration     | Website:  https://openfoam.org
    \\  /    A nd           | Version:  12
     \\/     M anipulation  |
\*---------------------------------------------------------------------------*/
FoamFile
{
    format      ascii;
    class       volVectorField;
    location    "1.5";
    object      U;
}
// * * * * * * * * * * * * * * * * * * * * * * * * * * * * * * * * * * * * * //

dimensions      [0 1 -1 0 0 0 0];

internalField   nonuniform List<vector> 
9801
(
(1.09013 -0.10511 0)
(1.091 -0.101169 0)
(1.09141 -0.0988334 0)
(1.09102 -0.0965872 0)
(1.09023 -0.0945462 0)
(1.08905 -0.0925678 0)
(1.08775 -0.0905995 0)
(1.08623 -0.0886075 0)
(1.08432 -0.0864179 0)
(1.08274 -0.0840421 0)
(1.08232 -0.0810776 0)
(1.08224 -0.0784684 0)
(1.08161 -0.0763511 0)
(1.08055 -0.0742307 0)
(1.07911 -0.0722462 0)
(1.0776 -0.0703063 0)
(1.07603 -0.0683854 0)
(1.0744 -0.0663508 0)
(1.07372 -0.0638521 0)
(1.07362 -0.0612628 0)
(1.07277 -0.0589309 0)
(1.0715 -0.0566528 0)
(1.06974 -0.0543383 0)
(1.06764 -0.0520689 0)
(1.06566 -0.0500943 0)
(1.06386 -0.0483771 0)
(1.06244 -0.0464133 0)
(1.06226 -0.0439428 0)
(1.06196 -0.0414055 0)
(1.06115 -0.0390668 0)
(1.05974 -0.0367979 0)
(1.05767 -0.0345945 0)
(1.05542 -0.0327761 0)
(1.05328 -0.0314315 0)
(1.05132 -0.0299273 0)
(1.04978 -0.0276064 0)
(1.04889 -0.024576 0)
(1.04831 -0.021619 0)
(1.04745 -0.0189118 0)
(1.04539 -0.0164993 0)
(1.04257 -0.0143769 0)
(1.04011 -0.0131173 0)
(1.03807 -0.0123857 0)
(1.03598 -0.0113329 0)
(1.03492 -0.00960686 0)
(1.03456 -0.00661872 0)
(1.03416 -0.00366576 0)
(1.03287 -0.000993337 0)
(1.03079 0.00153878 0)
(1.02749 0.00440916 0)
(1.02225 0.00688866 0)
(1.01917 0.00810463 0)
(1.01699 0.00870716 0)
(1.01527 0.00979656 0)
(1.01582 0.0115532 0)
(1.01733 0.0138693 0)
(1.01582 0.0163451 0)
(1.01376 0.0185277 0)
(1.01096 0.021034 0)
(1.00454 0.0240802 0)
(0.99815 0.0262374 0)
(0.995739 0.0272525 0)
(0.993571 0.0282359 0)
(0.992924 0.0297378 0)
(0.994695 0.0317258 0)
(0.994877 0.0338663 0)
(0.992679 0.0358263 0)
(0.98961 0.0376608 0)
(0.98279 0.0403714 0)
(0.975176 0.0425747 0)
(0.971292 0.0438905 0)
(0.968203 0.0447718 0)
(0.966948 0.0462142 0)
(0.968645 0.0483973 0)
(0.968874 0.0505779 0)
(0.966732 0.052493 0)
(0.963155 0.0540153 0)
(0.955868 0.0562788 0)
(0.946079 0.0581016 0)
(0.940218 0.0590541 0)
(0.936231 0.0594536 0)
(0.93454 0.0607003 0)
(0.936834 0.0631436 0)
(0.936708 0.065368 0)
(0.933614 0.067194 0)
(0.929005 0.068505 0)
(0.920678 0.0702141 0)
(0.906015 0.0713654 0)
(0.895601 0.071428 0)
(0.889016 0.0714181 0)
(0.886643 0.0722862 0)
(0.88838 0.0735233 0)
(0.884407 0.0740225 0)
(0.875187 0.0735421 0)
(0.861651 0.072303 0)
(0.83591 0.0693885 0)
(0.799184 0.0492429 0)
(0.586278 -0.00101009 0)
(-0.018982 0.00609786 0)
(1.08917 -0.106247 0)
(1.09004 -0.102304 0)
(1.09053 -0.100132 0)
(1.08999 -0.098313 0)
(1.089 -0.0966256 0)
(1.08767 -0.0947982 0)
(1.08623 -0.092898 0)
(1.08454 -0.0905298 0)
(1.08274 -0.0878346 0)
(1.08148 -0.0851218 0)
(1.0815 -0.0820819 0)
(1.08152 -0.0797817 0)
(1.08075 -0.077981 0)
(1.07953 -0.0762754 0)
(1.07795 -0.0745082 0)
(1.07628 -0.0726801 0)
(1.0745 -0.0705863 0)
(1.07292 -0.0681941 0)
(1.07252 -0.065167 0)
(1.07268 -0.0622527 0)
(1.07195 -0.0599364 0)
(1.07069 -0.0579219 0)
(1.06893 -0.0559875 0)
(1.06687 -0.0541698 0)
(1.06467 -0.0524805 0)
(1.06255 -0.0507193 0)
(1.06102 -0.0483833 0)
(1.06116 -0.0450824 0)
(1.06128 -0.0422892 0)
(1.06055 -0.0402562 0)
(1.05911 -0.0384992 0)
(1.05714 -0.0370337 0)
(1.05472 -0.0359238 0)
(1.05207 -0.0343977 0)
(1.04978 -0.0319724 0)
(1.0482 -0.0286969 0)
(1.04787 -0.0248823 0)
(1.04801 -0.0217496 0)
(1.04737 -0.0197513 0)
(1.04562 -0.0188164 0)
(1.04341 -0.0183341 0)
(1.04021 -0.0179688 0)
(1.0372 -0.0169415 0)
(1.03456 -0.014704 0)
(1.03297 -0.0117658 0)
(1.03276 -0.00765426 0)
(1.03311 -0.00371999 0)
(1.03246 -0.000520908 0)
(1.03073 0.00179367 0)
(1.02831 0.00328853 0)
(1.02391 0.00369933 0)
(1.01969 0.00362761 0)
(1.01669 0.00445917 0)
(1.01403 0.00602698 0)
(1.01402 0.00893196 0)
(1.01594 0.0125533 0)
(1.01489 0.0157377 0)
(1.01311 0.0183259 0)
(1.01059 0.02074 0)
(1.00533 0.0228014 0)
(0.999006 0.0234952 0)
(0.995779 0.0241801 0)
(0.993082 0.0250541 0)
(0.991686 0.0269361 0)
(0.993713 0.029943 0)
(0.994147 0.0325708 0)
(0.992129 0.0348328 0)
(0.989242 0.036869 0)
(0.983019 0.0392801 0)
(0.97543 0.0406822 0)
(0.97094 0.0417847 0)
(0.967645 0.04261 0)
(0.965911 0.0441041 0)
(0.967785 0.0469161 0)
(0.96835 0.0493801 0)
(0.966301 0.0513937 0)
(0.962859 0.0529565 0)
(0.956291 0.0548167 0)
(0.946304 0.0557512 0)
(0.939653 0.0565944 0)
(0.935539 0.0572426 0)
(0.933276 0.0584697 0)
(0.934997 0.0609792 0)
(0.935099 0.0635667 0)
(0.932264 0.0657084 0)
(0.927835 0.0670082 0)
(0.920338 0.0683934 0)
(0.905995 0.0685482 0)
(0.894788 0.0680589 0)
(0.887955 0.0678576 0)
(0.883165 0.0681182 0)
(0.881605 0.0724443 0)
(0.877107 0.0764492 0)
(0.868657 0.0768015 0)
(0.856509 0.0762735 0)
(0.831977 0.0745029 0)
(0.800803 0.0600611 0)
(0.596639 0.0136763 0)
(-0.00931956 0.021275 0)
(1.08702 -0.104423 0)
(1.08798 -0.100139 0)
(1.08888 -0.0978391 0)
(1.08823 -0.0960683 0)
(1.08711 -0.0944896 0)
(1.08566 -0.0928265 0)
(1.08394 -0.091038 0)
(1.08163 -0.0886868 0)
(1.07977 -0.0861358 0)
(1.07893 -0.0833485 0)
(1.07971 -0.0800711 0)
(1.08001 -0.0777844 0)
(1.07919 -0.0760214 0)
(1.07785 -0.0743851 0)
(1.0762 -0.0727677 0)
(1.07429 -0.0710386 0)
(1.07186 -0.0689782 0)
(1.07003 -0.066742 0)
(1.06981 -0.0636169 0)
(1.07066 -0.0603092 0)
(1.07036 -0.0581037 0)
(1.0692 -0.0562735 0)
(1.0675 -0.0545126 0)
(1.06552 -0.0528961 0)
(1.06302 -0.0511865 0)
(1.06018 -0.0491878 0)
(1.05837 -0.046957 0)
(1.05865 -0.043558 0)
(1.05962 -0.0404713 0)
(1.05917 -0.0385682 0)
(1.05782 -0.0369364 0)
(1.05604 -0.0355339 0)
(1.05384 -0.0343458 0)
(1.05005 -0.0328634 0)
(1.04683 -0.0307012 0)
(1.0449 -0.0277983 0)
(1.04493 -0.0235228 0)
(1.04661 -0.0197828 0)
(1.04667 -0.0179841 0)
(1.04514 -0.0169399 0)
(1.04324 -0.0163296 0)
(1.04048 -0.0158052 0)
(1.03596 -0.0153075 0)
(1.03207 -0.0136811 0)
(1.02974 -0.0108631 0)
(1.02874 -0.00635057 0)
(1.03021 -0.00111102 0)
(1.03084 0.00180366 0)
(1.02968 0.00317815 0)
(1.02777 0.00404788 0)
(1.02484 0.00479533 0)
(1.02012 0.00519066 0)
(1.01587 0.00575312 0)
(1.01245 0.00692723 0)
(1.01089 0.00933394 0)
(1.01243 0.0138686 0)
(1.01229 0.0178097 0)
(1.01102 0.0199568 0)
(1.00912 0.0216731 0)
(1.00551 0.0232026 0)
(0.99931 0.024022 0)
(0.995157 0.0246077 0)
(0.991963 0.0254542 0)
(0.989609 0.026997 0)
(0.990869 0.0302717 0)
(0.99159 0.033594 0)
(0.989927 0.0360753 0)
(0.987363 0.0378379 0)
(0.982443 0.0397245 0)
(0.974986 0.0406895 0)
(0.969773 0.0414777 0)
(0.966068 0.0424178 0)
(0.963612 0.0436553 0)
(0.964754 0.0465728 0)
(0.965712 0.0496967 0)
(0.963986 0.0519504 0)
(0.960793 0.0534711 0)
(0.955215 0.0548146 0)
(0.945338 0.0551563 0)
(0.93777 0.0556045 0)
(0.933127 0.0564184 0)
(0.929525 0.0572956 0)
(0.92926 0.0607466 0)
(0.9303 0.0648336 0)
(0.928164 0.0668718 0)
(0.923902 0.0675932 0)
(0.917649 0.0679744 0)
(0.904282 0.0671809 0)
(0.891865 0.0659955 0)
(0.884229 0.0657296 0)
(0.878136 0.0655813 0)
(0.874974 0.0671111 0)
(0.871587 0.0683885 0)
(0.865044 0.0677061 0)
(0.855823 0.0668867 0)
(0.837012 0.0667957 0)
(0.812141 0.0508017 0)
(0.606303 0.0142459 0)
(0.00332195 0.0267122 0)
(1.0851 -0.102419 0)
(1.08587 -0.0984632 0)
(1.08764 -0.0963811 0)
(1.0872 -0.094942 0)
(1.08612 -0.0934964 0)
(1.0846 -0.0918829 0)
(1.0825 -0.0897772 0)
(1.07947 -0.0864904 0)
(1.0773 -0.0837811 0)
(1.07624 -0.0814748 0)
(1.07762 -0.0785318 0)
(1.07874 -0.0765712 0)
(1.07817 -0.0751279 0)
(1.0769 -0.0736613 0)
(1.07522 -0.0721502 0)
(1.07291 -0.0701124 0)
(1.06988 -0.0669115 0)
(1.06783 -0.0642538 0)
(1.06719 -0.0615915 0)
(1.06849 -0.0586406 0)
(1.06876 -0.0568274 0)
(1.06788 -0.0553837 0)
(1.06638 -0.0539985 0)
(1.0645 -0.0527101 0)
(1.0616 -0.0506261 0)
(1.05802 -0.0473543 0)
(1.05589 -0.0449574 0)
(1.05567 -0.0420512 0)
(1.05752 -0.0391009 0)
(1.05782 -0.0375134 0)
(1.05681 -0.0362766 0)
(1.05515 -0.0350486 0)
(1.05298 -0.0337324 0)
(1.04833 -0.031189 0)
(1.04374 -0.0282128 0)
(1.0414 -0.0260455 0)
(1.04077 -0.0232686 0)
(1.04364 -0.0198219 0)
(1.0449 -0.0178299 0)
(1.04381 -0.0165627 0)
(1.04205 -0.0156178 0)
(1.03969 -0.014774 0)
(1.03488 -0.0133046 0)
(1.02889 -0.0106232 0)
(1.02589 -0.00820224 0)
(1.02409 -0.00580606 0)
(1.02567 -0.00200103 0)
(1.02796 0.00112081 0)
(1.02757 0.00260736 0)
(1.02583 0.00356645 0)
(1.02333 0.0043654 0)
(1.01928 0.0051032 0)
(1.0139 0.00635683 0)
(1.00975 0.0088248 0)
(1.00749 0.0111547 0)
(1.0075 0.0147187 0)
(1.00862 0.0186039 0)
(1.00806 0.0206393 0)
(1.0063 0.0217106 0)
(1.00369 0.0224295 0)
(0.998141 0.0232256 0)
(0.99331 0.0240254 0)
(0.989596 0.0257411 0)
(0.986604 0.0275511 0)
(0.986146 0.0310183 0)
(0.987493 0.0350416 0)
(0.986317 0.0372686 0)
(0.983868 0.038502 0)
(0.980179 0.0394415 0)
(0.973427 0.0398852 0)
(0.967485 0.0404418 0)
(0.963257 0.0416546 0)
(0.960014 0.0429187 0)
(0.959292 0.0459318 0)
(0.960636 0.0499141 0)
(0.959373 0.0521338 0)
(0.956387 0.0531836 0)
(0.952087 0.0541419 0)
(0.943367 0.0545856 0)
(0.934733 0.0547356 0)
(0.929074 0.0556408 0)
(0.924924 0.0565786 0)
(0.922704 0.0584853 0)
(0.923901 0.0623335 0)
(0.922577 0.0651551 0)
(0.918653 0.0666222 0)
(0.913449 0.067623 0)
(0.902818 0.0673085 0)
(0.889249 0.0643952 0)
(0.880395 0.0632721 0)
(0.873998 0.06336 0)
(0.868955 0.0649325 0)
(0.865366 0.067235 0)
(0.859694 0.0665973 0)
(0.852048 0.0651566 0)
(0.839427 0.0636046 0)
(0.82523 0.0500727 0)
(0.612666 0.0187363 0)
(0.0154163 0.0297127 0)
(1.08248 -0.100654 0)
(1.08369 -0.0967463 0)
(1.08564 -0.0945097 0)
(1.08503 -0.0928841 0)
(1.08379 -0.0915004 0)
(1.08217 -0.0900395 0)
(1.07953 -0.0878807 0)
(1.07629 -0.0848035 0)
(1.07427 -0.0822698 0)
(1.07343 -0.0798609 0)
(1.07546 -0.0770316 0)
(1.07679 -0.0749409 0)
(1.07611 -0.0734037 0)
(1.07471 -0.0720205 0)
(1.07291 -0.0706291 0)
(1.07002 -0.0683967 0)
(1.06675 -0.0652064 0)
(1.06481 -0.0627157 0)
(1.06455 -0.0599841 0)
(1.06656 -0.0572357 0)
(1.06695 -0.0554688 0)
(1.06594 -0.054127 0)
(1.0644 -0.0529286 0)
(1.06256 -0.0516867 0)
(1.05891 -0.04907 0)
(1.05516 -0.0459138 0)
(1.05299 -0.0436619 0)
(1.05277 -0.0408696 0)
(1.05532 -0.037787 0)
(1.05568 -0.0359587 0)
(1.05443 -0.0347313 0)
(1.05274 -0.0337258 0)
(1.05038 -0.032324 0)
(1.0454 -0.0295394 0)
(1.04099 -0.0268364 0)
(1.03854 -0.0251355 0)
(1.0374 -0.0232047 0)
(1.04044 -0.0199155 0)
(1.04246 -0.0173491 0)
(1.0415 -0.0159605 0)
(1.0397 -0.0149046 0)
(1.03717 -0.0134697 0)
(1.03165 -0.0106346 0)
(1.0259 -0.00780031 0)
(1.02293 -0.00606033 0)
(1.02082 -0.00468752 0)
(1.02182 -0.00209137 0)
(1.02496 0.000748958 0)
(1.0249 0.00240445 0)
(1.02326 0.00342717 0)
(1.02089 0.00425661 0)
(1.01667 0.00581526 0)
(1.01025 0.0084511 0)
(1.00577 0.0109513 0)
(1.00337 0.0128271 0)
(1.00303 0.0154084 0)
(1.00499 0.0185025 0)
(1.00509 0.0203062 0)
(1.0033 0.0213781 0)
(1.00081 0.0221487 0)
(0.995903 0.0231784 0)
(0.989965 0.0242837 0)
(0.985508 0.0264063 0)
(0.982239 0.0285225 0)
(0.980917 0.0312212 0)
(0.982797 0.0350111 0)
(0.98237 0.0373069 0)
(0.980073 0.0383485 0)
(0.976918 0.0391211 0)
(0.971123 0.039666 0)
(0.964199 0.0399001 0)
(0.95919 0.0410733 0)
(0.955528 0.0425764 0)
(0.953241 0.044907 0)
(0.954546 0.0493794 0)
(0.954583 0.0527445 0)
(0.951987 0.0541705 0)
(0.948402 0.0547595 0)
(0.941333 0.0547591 0)
(0.931971 0.0538253 0)
(0.925669 0.0541174 0)
(0.921096 0.0548546 0)
(0.917513 0.0560955 0)
(0.917281 0.0596689 0)
(0.917327 0.0638807 0)
(0.914339 0.0662443 0)
(0.909863 0.0670992 0)
(0.902695 0.067277 0)
(0.889498 0.064006 0)
(0.878513 0.0609972 0)
(0.871792 0.0603727 0)
(0.866464 0.0607816 0)
(0.86351 0.0619484 0)
(0.859459 0.0612424 0)
(0.853334 0.0596085 0)
(0.844426 0.0589015 0)
(0.83535 0.0517746 0)
(0.620012 0.0244438 0)
(0.0266806 0.0317788 0)
(1.07996 -0.0990339 0)
(1.08156 -0.0950768 0)
(1.0839 -0.0928461 0)
(1.08339 -0.0913404 0)
(1.08218 -0.0900625 0)
(1.08049 -0.0885229 0)
(1.07692 -0.0857066 0)
(1.07341 -0.0828058 0)
(1.0715 -0.0807489 0)
(1.07086 -0.078442 0)
(1.07355 -0.0756193 0)
(1.07515 -0.073637 0)
(1.07448 -0.0721443 0)
(1.07306 -0.070836 0)
(1.07109 -0.0692587 0)
(1.06694 -0.0662293 0)
(1.06342 -0.063326 0)
(1.06164 -0.0614096 0)
(1.06175 -0.0587508 0)
(1.06465 -0.0558743 0)
(1.06523 -0.0541744 0)
(1.06413 -0.0528906 0)
(1.06251 -0.0517412 0)
(1.06013 -0.0501785 0)
(1.05536 -0.0473695 0)
(1.0517 -0.044802 0)
(1.04966 -0.0430241 0)
(1.04937 -0.0405097 0)
(1.05289 -0.0368642 0)
(1.05388 -0.0346168 0)
(1.05263 -0.0333123 0)
(1.05089 -0.0322679 0)
(1.04775 -0.0305915 0)
(1.04219 -0.0281507 0)
(1.03823 -0.0261766 0)
(1.03585 -0.0247356 0)
(1.03448 -0.0232391 0)
(1.03718 -0.0203316 0)
(1.03993 -0.0172201 0)
(1.03929 -0.0151469 0)
(1.03755 -0.0136048 0)
(1.03436 -0.0116169 0)
(1.02818 -0.00876796 0)
(1.02321 -0.00658445 0)
(1.0204 -0.00528522 0)
(1.01818 -0.00431589 0)
(1.01885 -0.00257097 0)
(1.02223 -0.000125313 0)
(1.02238 0.00185475 0)
(1.02064 0.00329029 0)
(1.01808 0.00471213 0)
(1.01288 0.00723744 0)
(1.00588 0.010239 0)
(1.00169 0.0123088 0)
(0.999335 0.0136073 0)
(0.999006 0.0156054 0)
(1.00143 0.0182013 0)
(1.00196 0.0200307 0)
(1.00026 0.0212719 0)
(0.997809 0.0221818 0)
(0.993104 0.0234553 0)
(0.986045 0.0249422 0)
(0.980882 0.0269589 0)
(0.977527 0.0286811 0)
(0.975692 0.0306829 0)
(0.977862 0.0342375 0)
(0.978735 0.0370801 0)
(0.976746 0.0384586 0)
(0.973875 0.0391911 0)
(0.96908 0.03981 0)
(0.961362 0.0398727 0)
(0.95534 0.0407249 0)
(0.951308 0.0421896 0)
(0.948214 0.043737 0)
(0.948474 0.0473172 0)
(0.950271 0.0517949 0)
(0.948641 0.054004 0)
(0.945369 0.0546582 0)
(0.940052 0.0550804 0)
(0.930711 0.0537636 0)
(0.923195 0.0529772 0)
(0.918187 0.0537374 0)
(0.914035 0.0546108 0)
(0.9119 0.0569564 0)
(0.912512 0.0611985 0)
(0.910928 0.0644553 0)
(0.907012 0.0664473 0)
(0.90201 0.0671062 0)
(0.892436 0.0658605 0)
(0.879423 0.0609494 0)
(0.870684 0.0586175 0)
(0.864919 0.0580139 0)
(0.860985 0.0589453 0)
(0.858245 0.0596613 0)
(0.854261 0.057446 0)
(0.848277 0.0553737 0)
(0.84297 0.0518893 0)
(0.628419 0.0308687 0)
(0.0376122 0.0338461 0)
(1.07741 -0.0974915 0)
(1.07908 -0.0936528 0)
(1.08171 -0.0911147 0)
(1.08126 -0.0894423 0)
(1.08003 -0.0880638 0)
(1.078 -0.0863265 0)
(1.07393 -0.083699 0)
(1.07062 -0.0811799 0)
(1.06879 -0.0793524 0)
(1.06815 -0.0772847 0)
(1.07113 -0.0744148 0)
(1.07306 -0.0721262 0)
(1.07247 -0.0704611 0)
(1.07108 -0.0690499 0)
(1.0686 -0.0671709 0)
(1.0639 -0.0643951 0)
(1.06055 -0.062049 0)
(1.05869 -0.0604787 0)
(1.0585 -0.0582341 0)
(1.06215 -0.0548363 0)
(1.06332 -0.0525993 0)
(1.06226 -0.0512034 0)
(1.0606 -0.0500571 0)
(1.05744 -0.0482379 0)
(1.05217 -0.0457506 0)
(1.04867 -0.0437414 0)
(1.04667 -0.0423225 0)
(1.04587 -0.0404799 0)
(1.04944 -0.036807 0)
(1.05189 -0.0333881 0)
(1.05089 -0.031528 0)
(1.04917 -0.0302207 0)
(1.04561 -0.0284815 0)
(1.0399 -0.0266125 0)
(1.03595 -0.0251036 0)
(1.03357 -0.0239545 0)
(1.03188 -0.0228428 0)
(1.03339 -0.0203461 0)
(1.03653 -0.0167486 0)
(1.03653 -0.0140425 0)
(1.0349 -0.0120319 0)
(1.03175 -0.00976425 0)
(1.02596 -0.00750277 0)
(1.02124 -0.00586596 0)
(1.01833 -0.0046734 0)
(1.01598 -0.00389397 0)
(1.01609 -0.00251688 0)
(1.01905 -0.000246184 0)
(1.01936 0.00205394 0)
(1.01779 0.00404959 0)
(1.01504 0.00615453 0)
(1.00922 0.00893465 0)
(1.00289 0.0112466 0)
(0.999038 0.0126531 0)
(0.996617 0.0135824 0)
(0.995772 0.0151669 0)
(0.998076 0.0179693 0)
(0.998994 0.0201087 0)
(0.997408 0.0214978 0)
(0.994982 0.0226084 0)
(0.990323 0.0242099 0)
(0.983006 0.025816 0)
(0.977604 0.0272763 0)
(0.974281 0.0285923 0)
(0.971977 0.0301297 0)
(0.973235 0.033454 0)
(0.975469 0.0371582 0)
(0.974238 0.0389794 0)
(0.971486 0.0396405 0)
(0.967393 0.0403686 0)
(0.959665 0.0405386 0)
(0.952765 0.0408433 0)
(0.948364 0.0418905 0)
(0.944959 0.04317 0)
(0.943317 0.0454744 0)
(0.945598 0.0500755 0)
(0.945747 0.0535492 0)
(0.943038 0.055059 0)
(0.939235 0.0556286 0)
(0.931559 0.054962 0)
(0.922156 0.0529378 0)
(0.916138 0.0528345 0)
(0.911834 0.0537171 0)
(0.908401 0.0548998 0)
(0.908064 0.0582342 0)
(0.907817 0.0620171 0)
(0.905046 0.0642477 0)
(0.900711 0.0654264 0)
(0.894743 0.0657798 0)
(0.883512 0.062894 0)
(0.872038 0.0578005 0)
(0.86487 0.055937 0)
(0.859902 0.0554453 0)
(0.857417 0.0558283 0)
(0.85538 0.0545388 0)
(0.85171 0.0523189 0)
(0.848281 0.0505516 0)
(0.637043 0.0380013 0)
(0.0488011 0.0361245 0)
(1.07508 -0.0959641 0)
(1.07659 -0.0923078 0)
(1.07973 -0.0894856 0)
(1.07949 -0.0876136 0)
(1.07832 -0.0861221 0)
(1.07609 -0.084208 0)
(1.07163 -0.0817537 0)
(1.06829 -0.0796272 0)
(1.06642 -0.0780067 0)
(1.06566 -0.0761403 0)
(1.06875 -0.0731317 0)
(1.07101 -0.0704829 0)
(1.0705 -0.0686063 0)
(1.06915 -0.0670433 0)
(1.06636 -0.0650088 0)
(1.06152 -0.0626638 0)
(1.05825 -0.0608287 0)
(1.0563 -0.0594717 0)
(1.0554 -0.057781 0)
(1.05877 -0.0543001 0)
(1.06146 -0.0509201 0)
(1.06063 -0.049142 0)
(1.05906 -0.0477947 0)
(1.05546 -0.0458873 0)
(1.05001 -0.0439275 0)
(1.04653 -0.0424046 0)
(1.04447 -0.0412738 0)
(1.04308 -0.0400678 0)
(1.04509 -0.0371023 0)
(1.04852 -0.0329517 0)
(1.04846 -0.0300861 0)
(1.04684 -0.0281801 0)
(1.04394 -0.0263807 0)
(1.03843 -0.0251509 0)
(1.03422 -0.0242495 0)
(1.03169 -0.0232734 0)
(1.02973 -0.022308 0)
(1.02958 -0.0201855 0)
(1.03223 -0.0163374 0)
(1.03292 -0.0130852 0)
(1.03152 -0.0107706 0)
(1.0289 -0.00859798 0)
(1.02398 -0.00663343 0)
(1.0195 -0.00550986 0)
(1.01659 -0.00461555 0)
(1.01414 -0.00386482 0)
(1.01339 -0.00247763 0)
(1.01555 0.000428512 0)
(1.01609 0.00338519 0)
(1.01473 0.00568317 0)
(1.01215 0.00793007 0)
(1.00701 0.0102052 0)
(1.00111 0.0117298 0)
(0.99723 0.0128083 0)
(0.994708 0.0134208 0)
(0.993142 0.0143545 0)
(0.994747 0.0171247 0)
(0.996391 0.0203195 0)
(0.99513 0.022348 0)
(0.992818 0.023757 0)
(0.988336 0.025512 0)
(0.981202 0.0269586 0)
(0.975708 0.0279607 0)
(0.97234 0.0287705 0)
(0.969785 0.0294473 0)
(0.969351 0.0316807 0)
(0.972209 0.0359041 0)
(0.972214 0.0388323 0)
(0.969719 0.0401619 0)
(0.966343 0.0410974 0)
(0.959397 0.0414316 0)
(0.951422 0.0411814 0)
(0.946509 0.0417971 0)
(0.943062 0.0426902 0)
(0.94021 0.0439265 0)
(0.940723 0.0474261 0)
(0.94268 0.0520924 0)
(0.941204 0.0546278 0)
(0.937931 0.0556766 0)
(0.932847 0.0562197 0)
(0.923274 0.0544859 0)
(0.915101 0.0529114 0)
(0.910308 0.0531896 0)
(0.90646 0.0537369 0)
(0.904168 0.0556052 0)
(0.904255 0.0594727 0)
(0.902518 0.0624393 0)
(0.898766 0.0642656 0)
(0.894145 0.0649344 0)
(0.887411 0.0642488 0)
(0.876048 0.0596359 0)
(0.86619 0.0549396 0)
(0.860319 0.053154 0)
(0.856505 0.0524519 0)
(0.855436 0.0515347 0)
(0.854 0.0498571 0)
(0.851865 0.0484515 0)
(0.645687 0.0439292 0)
(0.060612 0.0378398 0)
(1.07298 -0.0944808 0)
(1.07395 -0.0910572 0)
(1.07715 -0.0879429 0)
(1.07712 -0.0856968 0)
(1.07597 -0.083952 0)
(1.07384 -0.0820345 0)
(1.06959 -0.079925 0)
(1.06625 -0.0781983 0)
(1.06435 -0.0767757 0)
(1.06328 -0.0751489 0)
(1.06581 -0.0720082 0)
(1.06859 -0.0686726 0)
(1.06832 -0.0664733 0)
(1.067 -0.0647875 0)
(1.06435 -0.0628871 0)
(1.05966 -0.0610822 0)
(1.05636 -0.0597308 0)
(1.05432 -0.0585807 0)
(1.05286 -0.0573199 0)
(1.0546 -0.0543343 0)
(1.05819 -0.0500513 0)
(1.05836 -0.047026 0)
(1.0569 -0.0450931 0)
(1.05416 -0.0433351 0)
(1.04893 -0.0423118 0)
(1.0451 -0.0415587 0)
(1.04283 -0.0406153 0)
(1.04104 -0.0396345 0)
(1.04101 -0.0374188 0)
(1.04403 -0.0330674 0)
(1.04518 -0.0293119 0)
(1.04397 -0.0268134 0)
(1.04177 -0.0247806 0)
(1.03745 -0.0233018 0)
(1.03283 -0.0228118 0)
(1.03001 -0.0220842 0)
(1.02792 -0.021156 0)
(1.02658 -0.0196355 0)
(1.02809 -0.0161176 0)
(1.02932 -0.0124266 0)
(1.02826 -0.00985773 0)
(1.02606 -0.00785974 0)
(1.02246 -0.00612605 0)
(1.01817 -0.00531444 0)
(1.01507 -0.00460951 0)
(1.01252 -0.00368586 0)
(1.01077 -0.00225323 0)
(1.01163 0.00101213 0)
(1.01252 0.00463075 0)
(1.01148 0.00717965 0)
(1.00936 0.00924933 0)
(1.0055 0.0110599 0)
(1.00001 0.011901 0)
(0.99606 0.0124778 0)
(0.993273 0.0131318 0)
(0.990973 0.0138743 0)
(0.990777 0.0161359 0)
(0.993057 0.0200571 0)
(0.992681 0.0231125 0)
(0.990599 0.0250749 0)
(0.98709 0.0269166 0)
(0.980789 0.0278605 0)
(0.974741 0.0282217 0)
(0.970949 0.0288679 0)
(0.96818 0.0294508 0)
(0.966307 0.0303915 0)
(0.967958 0.0339329 0)
(0.969595 0.0381278 0)
(0.967974 0.0406375 0)
(0.965111 0.0419299 0)
(0.959978 0.0428702 0)
(0.951608 0.0420865 0)
(0.945467 0.0417892 0)
(0.941576 0.0424646 0)
(0.938476 0.0431227 0)
(0.936811 0.0449669 0)
(0.938802 0.049409 0)
(0.938979 0.0532682 0)
(0.936426 0.055328 0)
(0.932694 0.0565576 0)
(0.925774 0.0566645 0)
(0.916094 0.0539464 0)
(0.909446 0.0526508 0)
(0.905277 0.0529317 0)
(0.901745 0.0535968 0)
(0.900656 0.0561808 0)
(0.9001 0.059598 0)
(0.897397 0.0615677 0)
(0.893355 0.0628274 0)
(0.888536 0.0631629 0)
(0.880734 0.061949 0)
(0.869993 0.0564638 0)
(0.861823 0.0521818 0)
(0.857127 0.0501982 0)
(0.855036 0.0484712 0)
(0.855207 0.0471142 0)
(0.854041 0.0461286 0)
(0.653512 0.0486823 0)
(0.0729505 0.0388089 0)
(1.07111 -0.0929408 0)
(1.07129 -0.0898479 0)
(1.07453 -0.0864302 0)
(1.0749 -0.0839047 0)
(1.07388 -0.0820028 0)
(1.07207 -0.0802054 0)
(1.06816 -0.0783538 0)
(1.06459 -0.0768635 0)
(1.06255 -0.0755279 0)
(1.06117 -0.0741518 0)
(1.06243 -0.0712253 0)
(1.0657 -0.0671576 0)
(1.06607 -0.0643669 0)
(1.06487 -0.0625491 0)
(1.06279 -0.0609266 0)
(1.05855 -0.0597175 0)
(1.05492 -0.0588907 0)
(1.05268 -0.0578533 0)
(1.05096 -0.0566893 0)
(1.05062 -0.0544186 0)
(1.05366 -0.0497911 0)
(1.05515 -0.0457815 0)
(1.05416 -0.0431811 0)
(1.05227 -0.0413211 0)
(1.04852 -0.0401615 0)
(1.04407 -0.0400188 0)
(1.04132 -0.0393934 0)
(1.03935 -0.0384381 0)
(1.03805 -0.0371108 0)
(1.03948 -0.0335842 0)
(1.04135 -0.0291896 0)
(1.04084 -0.0260239 0)
(1.03905 -0.0237117 0)
(1.03631 -0.0218649 0)
(1.03212 -0.0209602 0)
(1.0287 -0.0204476 0)
(1.02635 -0.0195874 0)
(1.02449 -0.0185929 0)
(1.02458 -0.0160638 0)
(1.02606 -0.012269 0)
(1.0255 -0.00937305 0)
(1.02362 -0.00728219 0)
(1.02109 -0.00563449 0)
(1.01727 -0.00466775 0)
(1.01368 -0.00402792 0)
(1.01085 -0.00293193 0)
(1.0086 -0.00149922 0)
(1.00773 0.00132477 0)
(1.00898 0.00571824 0)
(1.00875 0.00870128 0)
(1.00697 0.0103597 0)
(1.00439 0.0114792 0)
(0.999764 0.0117716 0)
(0.995287 0.0117159 0)
(0.992046 0.0123973 0)
(0.989396 0.0135739 0)
(0.987321 0.0154032 0)
(0.988631 0.0198394 0)
(0.989618 0.0242302 0)
(0.988295 0.0267719 0)
(0.985767 0.0283136 0)
(0.981208 0.0289944 0)
(0.974757 0.0283431 0)
(0.970283 0.0283125 0)
(0.967108 0.028866 0)
(0.96442 0.0294465 0)
(0.963539 0.0316038 0)
(0.965604 0.036771 0)
(0.965468 0.0406136 0)
(0.963234 0.042897 0)
(0.959865 0.0443976 0)
(0.952964 0.044266 0)
(0.945333 0.0425519 0)
(0.940702 0.0422756 0)
(0.937401 0.0425642 0)
(0.934542 0.043068 0)
(0.934206 0.0460688 0)
(0.93555 0.0513134 0)
(0.934123 0.0546632 0)
(0.931097 0.0565033 0)
(0.926849 0.0575839 0)
(0.918861 0.0564591 0)
(0.909968 0.0533217 0)
(0.90437 0.0523648 0)
(0.900533 0.0524041 0)
(0.897488 0.0532904 0)
(0.896737 0.0564791 0)
(0.895041 0.0596288 0)
(0.891742 0.0614536 0)
(0.887662 0.062293 0)
(0.882972 0.0620233 0)
(0.875242 0.0594715 0)
(0.865726 0.0534005 0)
(0.858928 0.0491653 0)
(0.855495 0.0466856 0)
(0.855532 0.0445016 0)
(0.855156 0.0438213 0)
(0.660136 0.05207 0)
(0.0855831 0.0393995 0)
(1.0695 -0.0913218 0)
(1.06876 -0.0886368 0)
(1.07177 -0.0849842 0)
(1.07252 -0.0822685 0)
(1.07164 -0.0802713 0)
(1.07007 -0.0785309 0)
(1.067 -0.076819 0)
(1.06325 -0.0754932 0)
(1.06093 -0.0741699 0)
(1.05935 -0.0728263 0)
(1.05914 -0.0705187 0)
(1.06216 -0.0663107 0)
(1.06352 -0.0627943 0)
(1.06266 -0.0606085 0)
(1.06102 -0.059019 0)
(1.05788 -0.0578083 0)
(1.05372 -0.0572587 0)
(1.05093 -0.0563626 0)
(1.04898 -0.0551869 0)
(1.04768 -0.0537626 0)
(1.04903 -0.0501794 0)
(1.05144 -0.0454196 0)
(1.05137 -0.0421525 0)
(1.04987 -0.0399495 0)
(1.04772 -0.0383968 0)
(1.04397 -0.0377277 0)
(1.04042 -0.0375728 0)
(1.03804 -0.0368375 0)
(1.03622 -0.0358848 0)
(1.03568 -0.0336473 0)
(1.03724 -0.0294325 0)
(1.0377 -0.0257504 0)
(1.03659 -0.0232216 0)
(1.03462 -0.0213742 0)
(1.03178 -0.0199236 0)
(1.02806 -0.0192027 0)
(1.02507 -0.0184096 0)
(1.02282 -0.0173026 0)
(1.02155 -0.0155366 0)
(1.02278 -0.0118725 0)
(1.02303 -0.00865542 0)
(1.02158 -0.006475 0)
(1.01954 -0.00489908 0)
(1.01663 -0.00375786 0)
(1.01247 -0.00310564 0)
(1.00888 -0.0020591 0)
(1.0063 -0.000577919 0)
(1.00449 0.00145761 0)
(1.0053 0.00554602 0)
(1.00636 0.00939179 0)
(1.0051 0.0112493 0)
(1.00296 0.0121729 0)
(0.999737 0.0126902 0)
(0.994862 0.0123847 0)
(0.990986 0.0126265 0)
(0.987889 0.0137952 0)
(0.985056 0.0155654 0)
(0.983938 0.0186967 0)
(0.985655 0.0243377 0)
(0.985662 0.0278754 0)
(0.983658 0.0294142 0)
(0.980982 0.0300751 0)
(0.975564 0.0294314 0)
(0.970173 0.0281498 0)
(0.966456 0.028174 0)
(0.963161 0.029069 0)
(0.960361 0.0303819 0)
(0.960141 0.0343796 0)
(0.961611 0.0404398 0)
(0.960676 0.0436519 0)
(0.958177 0.045025 0)
(0.95424 0.0457052 0)
(0.946951 0.0438916 0)
(0.94068 0.0418 0)
(0.93654 0.0417181 0)
(0.933174 0.0424288 0)
(0.930494 0.0437917 0)
(0.930715 0.0482097 0)
(0.930911 0.0532958 0)
(0.928816 0.0559323 0)
(0.925621 0.0571243 0)
(0.92084 0.057766 0)
(0.91269 0.0556037 0)
(0.904879 0.0521251 0)
(0.899747 0.0512485 0)
(0.895999 0.0514054 0)
(0.893211 0.0529265 0)
(0.892231 0.056513 0)
(0.890185 0.0591633 0)
(0.886941 0.0603957 0)
(0.883023 0.0608587 0)
(0.878459 0.0601194 0)
(0.871324 0.0569451 0)
(0.862981 0.0506494 0)
(0.857391 0.0462015 0)
(0.855888 0.0428887 0)
(0.855547 0.0416351 0)
(0.665493 0.0538311 0)
(0.098393 0.0397508 0)
(1.06794 -0.0895208 0)
(1.06647 -0.0873576 0)
(1.06897 -0.0836758 0)
(1.07021 -0.0807077 0)
(1.06954 -0.0786925 0)
(1.06812 -0.0769504 0)
(1.06588 -0.0753012 0)
(1.06219 -0.0739161 0)
(1.05941 -0.0725975 0)
(1.05761 -0.0711841 0)
(1.0565 -0.0695006 0)
(1.05831 -0.0658894 0)
(1.06067 -0.0618534 0)
(1.06046 -0.0592324 0)
(1.05908 -0.0574172 0)
(1.05706 -0.0559965 0)
(1.05337 -0.0552577 0)
(1.04978 -0.0547891 0)
(1.04744 -0.0536926 0)
(1.04578 -0.0523784 0)
(1.04533 -0.0500238 0)
(1.04759 -0.0456315 0)
(1.04871 -0.041849 0)
(1.04785 -0.0393579 0)
(1.04616 -0.0375671 0)
(1.0439 -0.0361688 0)
(1.04039 -0.0355172 0)
(1.03705 -0.0349243 0)
(1.03465 -0.0336772 0)
(1.03313 -0.032325 0)
(1.03364 -0.0289771 0)
(1.03512 -0.0253178 0)
(1.03465 -0.0229099 0)
(1.033 -0.0210219 0)
(1.03082 -0.019627 0)
(1.02766 -0.0186014 0)
(1.02379 -0.0176325 0)
(1.02092 -0.0160573 0)
(1.01911 -0.01417 0)
(1.01958 -0.0108102 0)
(1.02076 -0.00745174 0)
(1.0199 -0.00547068 0)
(1.01819 -0.00409386 0)
(1.01597 -0.00311401 0)
(1.01189 -0.00240536 0)
(1.00721 -0.00150277 0)
(1.00398 0.000119783 0)
(1.0017 0.00184159 0)
(1.00131 0.00487095 0)
(1.00367 0.00926503 0)
(1.00361 0.0117683 0)
(1.0018 0.012807 0)
(0.999473 0.0132913 0)
(0.995285 0.0132253 0)
(0.990111 0.0129175 0)
(0.985909 0.0141505 0)
(0.982428 0.0164086 0)
(0.980015 0.0186097 0)
(0.980683 0.0229696 0)
(0.983035 0.0280434 0)
(0.9823 0.0300535 0)
(0.980207 0.0305229 0)
(0.976924 0.0303748 0)
(0.971017 0.0285486 0)
(0.96564 0.0276111 0)
(0.961195 0.0289273 0)
(0.957569 0.0310837 0)
(0.955054 0.0332314 0)
(0.956285 0.0383801 0)
(0.957779 0.0435059 0)
(0.956322 0.0454398 0)
(0.953621 0.0458227 0)
(0.949398 0.0454951 0)
(0.941973 0.0429401 0)
(0.935961 0.0416097 0)
(0.931584 0.042389 0)
(0.928049 0.0436721 0)
(0.925639 0.045585 0)
(0.926428 0.0506769 0)
(0.926173 0.0550711 0)
(0.923688 0.0570592 0)
(0.920388 0.0574079 0)
(0.915764 0.0570646 0)
(0.907511 0.0540911 0)
(0.899888 0.0511257 0)
(0.894959 0.0507093 0)
(0.89132 0.0509996 0)
(0.888884 0.0526768 0)
(0.887953 0.0561036 0)
(0.885915 0.0582854 0)
(0.882848 0.0589974 0)
(0.879172 0.05905 0)
(0.874926 0.0577664 0)
(0.868886 0.0544146 0)
(0.861647 0.0483964 0)
(0.857242 0.0433229 0)
(0.855722 0.0395127 0)
(0.669314 0.053699 0)
(0.111414 0.0400433 0)
(1.06646 -0.0877813 0)
(1.06446 -0.0859558 0)
(1.06606 -0.0825889 0)
(1.06795 -0.0791856 0)
(1.06759 -0.0770957 0)
(1.06635 -0.0753611 0)
(1.06463 -0.0738058 0)
(1.06147 -0.0723368 0)
(1.05819 -0.0710603 0)
(1.05607 -0.0696008 0)
(1.05455 -0.0681223 0)
(1.05481 -0.0654365 0)
(1.05753 -0.061315 0)
(1.05826 -0.0582855 0)
(1.05729 -0.05625 0)
(1.05565 -0.054652 0)
(1.05326 -0.0534199 0)
(1.04927 -0.0527669 0)
(1.04603 -0.0517441 0)
(1.04404 -0.0502835 0)
(1.04288 -0.0487799 0)
(1.0442 -0.0454544 0)
(1.04627 -0.0417681 0)
(1.04609 -0.0393028 0)
(1.0447 -0.0372895 0)
(1.04278 -0.0356158 0)
(1.04011 -0.0342826 0)
(1.03594 -0.033018 0)
(1.03283 -0.0312896 0)
(1.0311 -0.0297314 0)
(1.03115 -0.0275133 0)
(1.03296 -0.0245473 0)
(1.03284 -0.0223695 0)
(1.03142 -0.0207554 0)
(1.02949 -0.0196339 0)
(1.0268 -0.0185683 0)
(1.02218 -0.0170354 0)
(1.01861 -0.0150109 0)
(1.01652 -0.0131038 0)
(1.01629 -0.0101368 0)
(1.0184 -0.00639796 0)
(1.01838 -0.00435586 0)
(1.01696 -0.00319274 0)
(1.015 -0.00234309 0)
(1.01146 -0.00149546 0)
(1.00579 -0.00074008 0)
(1.00181 0.000646938 0)
(0.99924 0.00221711 0)
(0.997776 0.00418882 0)
(1.0002 0.0083747 0)
(1.0022 0.0119466 0)
(1.00093 0.0134363 0)
(0.998832 0.0141112 0)
(0.995607 0.0146004 0)
(0.98931 0.0145703 0)
(0.983566 0.0154387 0)
(0.979934 0.0172199 0)
(0.977524 0.01894 0)
(0.976647 0.0215259 0)
(0.979951 0.0260612 0)
(0.981344 0.0293498 0)
(0.979521 0.0304524 0)
(0.976916 0.0309263 0)
(0.972312 0.0307285 0)
(0.964646 0.0295764 0)
(0.95888 0.0301665 0)
(0.955306 0.0318479 0)
(0.952657 0.0333609 0)
(0.951709 0.0356867 0)
(0.954655 0.0404594 0)
(0.955319 0.0438936 0)
(0.952903 0.0453364 0)
(0.949731 0.0457869 0)
(0.944081 0.045554 0)
(0.935992 0.043694 0)
(0.930185 0.0433787 0)
(0.926378 0.0442114 0)
(0.923324 0.0451851 0)
(0.92197 0.0472225 0)
(0.923406 0.0515946 0)
(0.922832 0.054566 0)
(0.919936 0.0560396 0)
(0.91624 0.0567403 0)
(0.910513 0.0565049 0)
(0.901823 0.0534768 0)
(0.894874 0.0510524 0)
(0.890494 0.0507084 0)
(0.887122 0.0507856 0)
(0.885152 0.0520694 0)
(0.884441 0.0549941 0)
(0.882451 0.0565399 0)
(0.879494 0.0568967 0)
(0.876081 0.0567961 0)
(0.872287 0.055321 0)
(0.867465 0.052382 0)
(0.861964 0.046771 0)
(0.856571 0.0393642 0)
(0.671096 0.0515002 0)