/*--------------------------------*- C++ -*----------------------------------*\
  =========                 |
  \\      /  F ield         | OpenFOAM: The Open Source CFD Toolbox
   \\    /   O peration     | Website:  https://openfoam.org
    \\  /    A nd           | Version:  12
     \\/     M anipulation  |
\*---------------------------------------------------------------------------*/
FoamFile
{
    format      ascii;
    class       volScalarField;
    location    "6.1";
    object      rho;
}
// * * * * * * * * * * * * * * * * * * * * * * * * * * * * * * * * * * * * * //

dimensions      [1 -3 0 0 0 0 0];

internalField   nonuniform List<scalar> 
9801
(
1.04511
1.04698
1.05032
1.05765
1.06862
1.07572
1.07926
1.08165
1.0835
1.08464
1.08632
1.08862
1.09172
1.09654
1.10707
1.11722
1.12233
1.1252
1.12692
1.12794
1.12938
1.13158
1.13457
1.13878
1.14687
1.1593
1.16768
1.17166
1.17408
1.17478
1.17537
1.1772
1.17993
1.18358
1.18925
1.20159
1.21375
1.21967
1.2229
1.22491
1.225
1.22571
1.22798
1.23153
1.23584
1.24655
1.26205
1.27043
1.27452
1.27648
1.27687
1.27752
1.2794
1.28274
1.28721
1.29565
1.31389
1.32606
1.3311
1.33353
1.33251
1.33182
1.33409
1.33781
1.34237
1.3506
1.37044
1.38781
1.39646
1.40109
1.39759
1.39265
1.39368
1.39842
1.40509
1.41509
1.43879
1.46236
1.47451
1.48203
1.48095
1.47042
1.46797
1.47378
1.48428
1.50413
1.54448
1.57553
1.59356
1.60776
1.61302
1.60068
1.5935
1.61269
1.65104
1.73347
1.82505
2.56969
5.95032
1.0495
1.05244
1.05656
1.06569
1.07451
1.0804
1.08443
1.08753
1.08878
1.08852
1.09023
1.09312
1.09654
1.10232
1.11275
1.12114
1.12654
1.13041
1.13295
1.13264
1.13329
1.13594
1.1394
1.14356
1.15196
1.16287
1.17024
1.17506
1.17868
1.17913
1.17844
1.18074
1.18433
1.18833
1.19442
1.20623
1.21632
1.22238
1.22669
1.22867
1.22622
1.22706
1.23065
1.23508
1.23998
1.25074
1.26478
1.27324
1.27838
1.28143
1.27851
1.27702
1.28008
1.28485
1.28975
1.29806
1.31522
1.32768
1.33408
1.33852
1.3363
1.33113
1.33343
1.3385
1.34362
1.35123
1.37066
1.38838
1.39779
1.40368
1.40262
1.39349
1.39237
1.39791
1.40512
1.41534
1.43921
1.46275
1.47518
1.4836
1.48644
1.47318
1.46575
1.4729
1.48398
1.50282
1.5368
1.56542
1.58454
1.60183
1.61345
1.60367
1.59256
1.60174
1.63222
1.68582
1.74704
2.45902
5.95269
1.04876
1.05194
1.05637
1.06595
1.07487
1.08033
1.0843
1.08754
1.08908
1.08868
1.08989
1.09257
1.09597
1.10174
1.11236
1.12075
1.12614
1.13021
1.13329
1.13372
1.13381
1.13596
1.13923
1.14313
1.15102
1.16195
1.16918
1.17413
1.17813
1.17969
1.17932
1.18132
1.18477
1.18864
1.19407
1.20528
1.21506
1.22094
1.22538
1.22781
1.22608
1.22722
1.23093
1.23535
1.24016
1.25003
1.26362
1.27198
1.27724
1.2806
1.27815
1.27641
1.2793
1.28405
1.28923
1.29705
1.31332
1.32584
1.33262
1.33741
1.33637
1.33056
1.3316
1.33638
1.34189
1.3495
1.36737
1.38496
1.39475
1.40094
1.40253
1.39424
1.39009
1.39426
1.40127
1.4105
1.43193
1.45536
1.46898
1.47822
1.48469
1.47489
1.46286
1.46678
1.47771
1.49222
1.52033
1.55359
1.57704
1.59462
1.60881
1.60197
1.59087
1.59731
1.62126
1.66278
1.69983
2.40315
5.89046
1.04869
1.0521
1.05704
1.06728
1.07605
1.08117
1.08487
1.088
1.0898
1.08926
1.09001
1.09249
1.09595
1.10237
1.11318
1.12128
1.12636
1.13029
1.13356
1.13434
1.13372
1.13543
1.13864
1.1428
1.15127
1.16239
1.16943
1.1741
1.17807
1.18033
1.17921
1.17988
1.18269
1.18657
1.19236
1.204
1.21435
1.22028
1.2247
1.22785
1.22656
1.22625
1.22878
1.23264
1.23748
1.24723
1.26114
1.26991
1.27523
1.27922
1.27835
1.27526
1.2767
1.28059
1.28555
1.29343
1.30923
1.32216
1.32937
1.33457
1.33609
1.32963
1.32801
1.33146
1.3366
1.34406
1.3609
1.37946
1.39018
1.3968
1.40119
1.39485
1.38591
1.3876
1.3942
1.40263
1.42075
1.44614
1.46217
1.47191
1.47976
1.47664
1.46141
1.45847
1.46748
1.47987
1.50062
1.53272
1.55862
1.5775
1.59438
1.59871
1.58485
1.57957
1.59228
1.6244
1.65147
2.37741
5.85318
1.04873
1.05216
1.05696
1.06738
1.07609
1.08104
1.08461
1.08763
1.08964
1.08942
1.09001
1.0924
1.09566
1.10222
1.11329
1.12101
1.12569
1.12936
1.13241
1.1332
1.13263
1.13438
1.13752
1.14189
1.15118
1.16256
1.16938
1.17375
1.1773
1.1792
1.1774
1.17739
1.18005
1.18393
1.18992
1.20211
1.21334
1.2197
1.22413
1.22754
1.22674
1.22416
1.22546
1.22895
1.23357
1.24284
1.25728
1.2671
1.27291
1.27735
1.27889
1.27452
1.2735
1.27653
1.28105
1.28826
1.3035
1.31726
1.3252
1.33077
1.33476
1.33051
1.32491
1.32634
1.33099
1.3377
1.35272
1.37259
1.38461
1.39155
1.397
1.39574
1.3847
1.38176
1.38698
1.39454
1.40759
1.43278
1.45327
1.46473
1.47341
1.47819
1.46564
1.45436
1.45742
1.46827
1.48396
1.51257
1.54249
1.56453
1.58245
1.59688
1.59009
1.57878
1.57855
1.59508
1.61499
2.35999
5.83903
1.04921
1.05245
1.05657
1.06654
1.07591
1.08122
1.0849
1.08794
1.09028
1.09023
1.09011
1.09207
1.09505
1.10077
1.11209
1.12056
1.12551
1.12927
1.13245
1.13375
1.13274
1.13379
1.13656
1.14033
1.14914
1.16115
1.16842
1.1729
1.17647
1.17891
1.17748
1.17644
1.17866
1.18217
1.18785
1.20008
1.21182
1.21839
1.22276
1.22619
1.22648
1.22244
1.22251
1.22572
1.23044
1.23968
1.2545
1.26495
1.27093
1.27552
1.27882
1.27498
1.27044
1.27209
1.27628
1.28298
1.2978
1.31334
1.32215
1.32797
1.33297
1.33291
1.32475
1.32237
1.32594
1.33167
1.3432
1.36458
1.38033
1.38844
1.39443
1.39763
1.38811
1.37992
1.3816
1.38812
1.39719
1.41781
1.44427
1.46047
1.47035
1.47833
1.47507
1.45803
1.45346
1.46108
1.47307
1.49423
1.52438
1.54928
1.56877
1.58646
1.59577
1.58725
1.57673
1.57866
1.58477
2.33885
5.83695
1.04989
1.05293
1.0564
1.06533
1.07542
1.08137
1.08534
1.08856
1.09121
1.09135
1.09035
1.0918
1.09461
1.09941
1.11025
1.11988
1.1255
1.12956
1.13298
1.13528
1.13394
1.13357
1.13579
1.13911
1.14622
1.15842
1.16671
1.17182
1.1758
1.17914
1.17923
1.17699
1.17821
1.18141
1.18616
1.19734
1.20942
1.21624
1.2208
1.22461
1.22669
1.22338
1.22162
1.22432
1.22866
1.23686
1.25199
1.26326
1.26942
1.27406
1.2779
1.2764
1.27035
1.26975
1.27372
1.27938
1.29228
1.31054
1.32152
1.32773
1.33263
1.33434
1.32697
1.32162
1.32313
1.32819
1.33587
1.35488
1.37634
1.3876
1.39422
1.39946
1.39515
1.38272
1.37959
1.38418
1.39157
1.40456
1.43134
1.45453
1.46758
1.47684
1.48282
1.47213
1.45791
1.4581
1.46722
1.48097
1.50682
1.53471
1.55618
1.5739
1.59041
1.5942
1.58475
1.57306
1.56017
2.31511
5.83738
1.051
1.05394
1.05714
1.06541
1.07573
1.0819
1.08595
1.08921
1.09186
1.09208
1.09096
1.0923
1.09509
1.09949
1.1098
1.12011
1.12611
1.13023
1.1337
1.13633
1.13511
1.13365
1.13544
1.13865
1.14455
1.15668
1.16628
1.172
1.1763
1.18
1.18151
1.17857
1.17829
1.18089
1.18476
1.19387
1.20719
1.21528
1.22045
1.22485
1.22835
1.22631
1.22312
1.22476
1.2286
1.23428
1.24801
1.26155
1.26881
1.27377
1.27808
1.27935
1.2731
1.27087
1.27394
1.27883
1.28719
1.30584
1.3209
1.32828
1.33322
1.33659
1.33184
1.32345
1.32276
1.32704
1.33303
1.34515
1.36927
1.38669
1.39527
1.40135
1.40364
1.39155
1.38185
1.38298
1.38939
1.3975
1.41587
1.44394
1.46313
1.47476
1.48404
1.48717
1.47239
1.46105
1.46446
1.47463
1.49141
1.51852
1.54272
1.56171
1.57811
1.59068
1.59015
1.57711
1.55154
2.28342
5.83839
1.05261
1.05551
1.05856
1.06639
1.07686
1.08313
1.08707
1.09019
1.09272
1.09314
1.09229
1.09368
1.09647
1.10063
1.11064
1.12139
1.12746
1.1315
1.1348
1.13729
1.13621
1.13449
1.13605
1.13923
1.14449
1.15648
1.16753
1.17357
1.17787
1.18156
1.1837
1.18067
1.17878
1.18064
1.18424
1.1913
1.20591
1.21672
1.22249
1.2269
1.23083
1.23076
1.22637
1.22613
1.22877
1.2329
1.24255
1.25931
1.26971
1.27545
1.28015
1.28333
1.27897
1.27446
1.27549
1.27912
1.2841
1.29735
1.31757
1.32859
1.33431
1.33907
1.33919
1.32954
1.32503
1.32737
1.33272
1.33954
1.35781
1.38189
1.39508
1.40219
1.40768
1.40546
1.39114
1.38532
1.38842
1.39532
1.40525
1.42902
1.45541
1.47169
1.4824
1.49094
1.48981
1.4741
1.46658
1.47187
1.48253
1.50203
1.5289
1.55011
1.56623
1.57973
1.58667
1.58103
1.55542
2.2559
5.83901
1.05489
1.05773
1.06058
1.06758
1.07832
1.08486
1.08871
1.09179
1.09445
1.09532
1.09461
1.09594
1.0987
1.10235
1.11132
1.12286
1.12918
1.13301
1.1362
1.13882
1.13833
1.13661
1.13807
1.14116
1.1455
1.15649
1.16911
1.17582
1.17995
1.18341
1.1858
1.18317
1.1802
1.18179
1.18529
1.19074
1.20444
1.21835
1.2255
1.2299
1.23373
1.23535
1.23022
1.22705
1.22855
1.2323
1.2387
1.25544
1.27101
1.27865
1.28341
1.28751
1.28628
1.27899
1.27662
1.27834
1.28245
1.28993
1.31037
1.32871
1.33716
1.34238
1.34634
1.34063
1.33085
1.32929
1.33208
1.33739
1.34679
1.37075
1.39237
1.403
1.40991
1.41541
1.4077
1.39272
1.38998
1.39467
1.40212
1.41466
1.44115
1.46442
1.47848
1.48877
1.49674
1.49378
1.47773
1.47204
1.47814
1.48946
1.51122
1.53648
1.55485
1.56814
1.57783
1.57982
1.56497
2.2403
5.83861
1.05785
1.06048
1.06309
1.06843
1.07911
1.08689
1.0911
1.09434
1.0972
1.09848
1.09775
1.09881
1.10137
1.10444
1.11091
1.12308
1.13103
1.13531
1.13864
1.14152
1.14161
1.13977
1.14099
1.14399
1.14757
1.1557
1.16954
1.17792
1.18234
1.18569
1.1882
1.18661
1.18339
1.18461
1.18793
1.19208
1.20238
1.21865
1.22778
1.23258
1.23618
1.23825
1.23415
1.22924
1.23028
1.23383
1.23865
1.25127
1.27082
1.28148
1.28697
1.29107
1.29215
1.28408
1.27782
1.27878
1.28243
1.28764
1.30197
1.32583
1.33953
1.34586
1.35115
1.35176
1.3401
1.33159
1.33206
1.33625
1.34239
1.3572
1.38482
1.40305
1.41186
1.41819
1.4208
1.40893
1.39642
1.39576
1.40067
1.40819
1.42435
1.45213
1.47303
1.48599
1.49604
1.5021
1.49598
1.48082
1.4767
1.4829
1.49474
1.51822
1.54196
1.55743
1.56732
1.57242
1.57197
2.23727
5.83695
1.06141
1.06345
1.06567
1.06927
1.07882
1.08879
1.09407
1.0976
1.10062
1.10258
1.10183
1.10195
1.10378
1.10645
1.11064
1.12201
1.13271
1.1382
1.14189
1.1451
1.14635
1.14427
1.14451
1.14683
1.14972
1.15449
1.16746
1.1788
1.18449
1.18845
1.19178
1.19177
1.18823
1.18843
1.19114
1.19458
1.20024
1.21537
1.22819
1.23418
1.23819
1.24154
1.23997
1.23388
1.23366
1.237
1.24108
1.24757
1.26563
1.28156
1.28865
1.29299
1.29617
1.29212
1.28261
1.28103
1.2845
1.28946
1.29655
1.31697
1.33803
1.34779
1.35354
1.35811
1.35345
1.33909
1.33443
1.33745
1.34297
1.35007
1.36982
1.39636
1.41072
1.4183
1.42468
1.42567
1.41068
1.39956
1.40068
1.40688
1.41549
1.43488
1.46152
1.47969
1.49153
1.50125
1.50654
1.49857
1.48318
1.47971
1.48549
1.49794
1.5225
1.54434
1.55703
1.56263
1.57198
2.24791
5.83448
1.06529
1.06617
1.06791
1.07086
1.07835
1.09015
1.09708
1.10096
1.10403
1.10655
1.10637
1.10484
1.10588
1.10846
1.11195
1.12081
1.13374
1.14107
1.14521
1.1485
1.151
1.14951
1.14756
1.14852
1.15118
1.15489
1.16461
1.17909
1.18713
1.1917
1.19539
1.19765
1.19444
1.19211
1.19324
1.19575
1.19947
1.20991
1.22678
1.23612
1.2413
1.24536
1.24745
1.24205
1.23845
1.2397
1.24242
1.24625
1.25672
1.27705
1.28901
1.29505
1.29961
1.30177
1.29344
1.28699
1.28806
1.29129
1.29572
1.30533
1.32864
1.34579
1.35343
1.35867
1.36269
1.35525
1.34291
1.34096
1.3441
1.34921
1.35781
1.38129
1.40541
1.41772
1.42493
1.43029
1.42851
1.41367
1.40518
1.40723
1.41346
1.42288
1.44475
1.46967
1.48582
1.4968
1.50599
1.50978
1.50034
1.48505
1.48148
1.48642
1.49927
1.52395
1.54352
1.55233
1.56525
2.26853
5.83247
1.06894
1.0688
1.07034
1.07316
1.0788
1.09073
1.09934
1.10387
1.10714
1.10999
1.11116
1.10885
1.10888
1.1112
1.11429
1.12026
1.13331
1.14299
1.14792
1.15139
1.15443
1.15479
1.15109
1.15095
1.15348
1.15688
1.16314
1.17778
1.18927
1.19486
1.19857
1.2017
1.20073
1.19528
1.1944
1.19689
1.20055
1.2069
1.22336
1.238
1.24477
1.2491
1.25264
1.25057
1.24297
1.24052
1.24203
1.24573
1.25156
1.26861
1.28857
1.29798
1.30347
1.30771
1.30609
1.29544
1.29063
1.29127
1.29443
1.29955
1.31386
1.33908
1.35405
1.36133
1.36715
1.36952
1.35787
1.3461
1.34522
1.34897
1.3544
1.36429
1.38969
1.41192
1.42295
1.4301
1.43656
1.43412
1.418
1.41024
1.41275
1.4192
1.42987
1.45322
1.47617
1.49081
1.50131
1.51004
1.51346
1.50241
1.486
1.48177
1.48577
1.49842
1.5225
1.53792
1.55444
2.29427
5.83036
1.07248
1.07187
1.07307
1.07569
1.07975
1.09047
1.10096
1.10652
1.11023
1.11337
1.11573
1.11408
1.11266
1.1142
1.11675
1.12041
1.13112
1.1437
1.15015
1.15418
1.15756
1.15971
1.15643
1.1544
1.15627
1.15929
1.16309
1.17397
1.18908
1.19676
1.20098
1.20446
1.20612
1.20085
1.1974
1.19922
1.20274
1.2069
1.21768
1.23645
1.24693
1.25207
1.25555
1.25692
1.2497
1.24311
1.24371
1.24721
1.25176
1.26105
1.28299
1.29952
1.30676
1.31133
1.31446
1.30716
1.29491
1.29191
1.29448
1.29899
1.30567
1.32597
1.35111
1.36342
1.36946
1.37435
1.37397
1.3598
1.34955
1.34935
1.3531
1.35868
1.37177
1.40017
1.42133
1.4314
1.43803
1.4426
1.43738
1.42171
1.41477
1.41749
1.42386
1.43598
1.46108
1.48296
1.49646
1.50608
1.51383
1.51624
1.50401
1.48616
1.48048
1.48327
1.49637
1.51709
1.53824
2.31829
5.82587
1.07609
1.07525
1.07586
1.07818
1.08123
1.08976
1.10236
1.10946
1.11353
1.11683
1.11965
1.11934
1.11633
1.11644
1.11854
1.12163
1.12911
1.14367
1.15279
1.15744
1.16102
1.16405
1.16286
1.15882
1.15895
1.161
1.16394
1.17012
1.18602
1.19809
1.20383
1.20769
1.21099
1.20901
1.20299
1.20269
1.20517
1.20831
1.21327
1.22908
1.24585
1.25314
1.25762
1.26155
1.2602
1.25066
1.24797
1.25059
1.25425
1.25854
1.27074
1.29365
1.30618
1.31193
1.31623
1.31842
1.30778
1.29733
1.29755
1.30186
1.30672
1.3141
1.33724
1.35921
1.36888
1.37462
1.37976
1.37779
1.36194
1.35317
1.35468
1.35996
1.36648
1.38193
1.40963
1.42747
1.43635
1.44302
1.44775
1.44153
1.42528
1.41888
1.42198
1.42878
1.44277
1.46811
1.48838
1.50083
1.50979
1.51671
1.51838
1.50537
1.48569
1.47769
1.47981
1.49109
1.51762
2.33393
5.81983
1.07985
1.07872
1.07841
1.08048
1.08332
1.08953
1.10303
1.11231
1.11682
1.11999
1.12276
1.1234
1.11952
1.11863
1.12077
1.12384
1.12892
1.14239
1.15493
1.1609
1.16446
1.16751
1.16838
1.16324
1.16074
1.16231
1.16536
1.16951
1.18144
1.19831
1.20682
1.21137
1.21494
1.2164
1.21018
1.20566
1.20606
1.20847
1.21219
1.2207
1.24081
1.25493
1.26141
1.26584
1.26888
1.26306
1.25426
1.25311
1.25468
1.2577
1.26279
1.28001
1.30236
1.31324
1.31933
1.32427
1.32464
1.31201
1.30397
1.30434
1.30702
1.31126
1.32091
1.34617
1.36586
1.37482
1.38048
1.38522
1.38222
1.36761
1.36097
1.3626
1.36662
1.37272
1.39004
1.41663
1.43276
1.4414
1.44793
1.45181
1.44571
1.43071
1.42449
1.42683
1.43291
1.44737
1.47293
1.49263
1.50434
1.51251
1.51847
1.51949
1.5069
1.48529
1.4737
1.47237
1.49351
2.33113
5.81424
1.08347
1.08222
1.08107
1.0831
1.08593
1.09042
1.10227
1.114
1.11953
1.12277
1.12549
1.12692
1.12386
1.1219
1.12364
1.12655
1.13018
1.13971
1.15485
1.16308
1.16722
1.17026
1.1723
1.1688
1.16403
1.16474
1.1677
1.17123
1.1779
1.19483
1.20848
1.21453
1.21811
1.22089
1.21815
1.20978
1.2078
1.21017
1.21371
1.21843
1.23242
1.25362
1.26448
1.2696
1.27352
1.27387
1.26331
1.2551
1.25502
1.25789
1.26201
1.26957
1.29211
1.31312
1.32228
1.32727
1.33187
1.3287
1.31379
1.30615
1.30696
1.31068
1.3155
1.32771
1.35407
1.37242
1.38131
1.38787
1.39271
1.38795
1.37229
1.36485
1.36629
1.37089
1.37741
1.39631
1.42226
1.43735
1.44589
1.45298
1.45809
1.45202
1.43529
1.42783
1.42984
1.43563
1.45014
1.47584
1.49527
1.50664
1.51434
1.5194
1.51983
1.50783
1.48538
1.46733
1.47012
2.30898
5.80962
1.08687
1.08659
1.08465
1.08634
1.08896
1.09202
1.10001
1.1137
1.12152
1.12557
1.12866
1.13113
1.12968
1.12628
1.12687
1.12928
1.13219
1.13711
1.15123
1.16381
1.16952
1.17307
1.17621
1.17609
1.17007
1.16856
1.17077
1.17385
1.17736
1.18758
1.20586
1.21571
1.22049
1.22396
1.22585
1.21867
1.21219
1.21327
1.21671
1.2204
1.22596
1.2439
1.26253
1.27051
1.27498
1.27844
1.27647
1.264
1.25824
1.26026
1.26462
1.26937
1.27887
1.30295
1.32068
1.32843
1.33302
1.33609
1.33135
1.31631
1.31006
1.31179
1.31626
1.32203
1.33721
1.36435
1.38115
1.38869
1.39363
1.39725
1.39167
1.37577
1.3686
1.37032
1.3752
1.38284
1.40418
1.43044
1.44504
1.4527
1.45878
1.46242
1.45552
1.43901
1.43117
1.43262
1.43802
1.45194
1.47752
1.49724
1.50836
1.51509
1.51888
1.51839
1.50776
1.48112
1.4615
2.26783
5.80665
1.09024
1.09207
1.08928
1.08975
1.09169
1.09421
1.09843
1.11094
1.12312
1.12872
1.13198
1.13472
1.13557
1.13153
1.12978
1.13123
1.1338
1.13719
1.14607
1.16249
1.17201
1.17662
1.1799
1.18229
1.17826
1.17312
1.17327
1.1752
1.17814
1.18287
1.19798
1.21542
1.22343
1.22798
1.23142
1.23039
1.22105
1.21756
1.21903
1.22147
1.22487
1.23233
1.25313
1.26967
1.27696
1.282
1.28561
1.28097
1.26875
1.26555
1.26765
1.27061
1.2745
1.28544
1.30981
1.3256
1.33258
1.33772
1.34182
1.33601
1.32153
1.31697
1.31986
1.32427
1.32929
1.34394
1.36978
1.38443
1.39156
1.39712
1.40147
1.3957
1.38054
1.37444
1.37705
1.38242
1.39022
1.41135
1.43553
1.44866
1.45614
1.46228
1.46668
1.46049
1.44386
1.43496
1.43551
1.44005
1.45283
1.47786
1.4976
1.50829
1.51413
1.51675
1.51627
1.50265
1.47505
2.22753
5.80501
1.09362
1.09757
1.09509
1.09307
1.09423
1.09675
1.0997
1.10732
1.12202
1.13074
1.13481
1.13776
1.14026
1.13847
1.13394
1.13398
1.13642
1.13948
1.14392
1.15717
1.17253
1.17957
1.18318
1.1861
1.18641
1.17936
1.17566
1.17714
1.18014
1.18362
1.19093
1.20996
1.225
1.23146
1.23531
1.2379
1.23273
1.2227
1.22013
1.22218
1.22542
1.22952
1.24069
1.26382
1.27866
1.28495
1.28944
1.29234
1.28416
1.27201
1.26867
1.27024
1.27354
1.27825
1.29254
1.31799
1.33318
1.33995
1.34511
1.34891
1.3416
1.32769
1.32325
1.32425
1.327
1.33232
1.34931
1.37553
1.39045
1.39786
1.40339
1.408
1.40293
1.38824
1.3817
1.38247
1.38612
1.39305
1.41443
1.43928
1.45302
1.46088
1.46711
1.47169
1.46695
1.44987
1.43879
1.438
1.44149
1.45203
1.47635
1.4965
1.507
1.51177
1.51412
1.51084
1.50104
2.20981
5.80441
1.09702
1.10182
1.10172
1.09788
1.09745
1.09936
1.10188
1.10542
1.11718
1.13102
1.13753
1.14113
1.14423
1.14593
1.14121
1.13808
1.1394
1.14197
1.14478
1.15093
1.16769
1.18032
1.18589
1.18925
1.19224
1.18934
1.18144
1.18032
1.18278
1.18601
1.18958
1.19933
1.21979
1.23193
1.23742
1.24099
1.24285
1.23465
1.22539
1.22473
1.22786
1.23187
1.23622
1.24966
1.27278
1.28514
1.29113
1.29512
1.29695
1.28729
1.27513
1.27273
1.27564
1.28007
1.28526
1.30144
1.32651
1.34034
1.34701
1.35167
1.35466
1.3459
1.3306
1.32567
1.3281
1.33259
1.33867
1.35706
1.38298
1.3978
1.40529
1.41069
1.41492
1.40914
1.39271
1.38383
1.38444
1.38904
1.39696
1.4184
1.44381
1.45837
1.46637
1.47224
1.47634
1.47276
1.45529
1.44144
1.43877
1.44167
1.45039
1.47383
1.49467
1.50481
1.5093
1.5081
1.51603
2.21492
5.80251
1.10017
1.10553
1.10744
1.10465
1.10121
1.10166
1.1036
1.10629
1.11259
1.12841
1.1398
1.14491
1.14815
1.15105
1.14982
1.14354
1.14209
1.14353
1.14596
1.14931
1.15929
1.17805
1.18845
1.19337
1.1967
1.1985
1.19175
1.18551
1.18574
1.18771
1.19023
1.19407
1.20738
1.22824
1.23896
1.24454
1.24857
1.24907
1.23866
1.23129
1.23173
1.234
1.23682
1.24105
1.2568
1.27937
1.29057
1.29626
1.3011
1.30308
1.29259
1.28158
1.28049
1.28312
1.2865
1.29134
1.30828
1.33253
1.34486
1.35069
1.35534
1.35852
1.35111
1.33757
1.33339
1.33553
1.33988
1.34598
1.36403
1.38916
1.403
1.41005
1.41486
1.41815
1.41387
1.39847
1.38965
1.39015
1.39418
1.40161
1.42199
1.44725
1.46216
1.47017
1.4759
1.47968
1.47671
1.45993
1.44421
1.43962
1.44132
1.44842
1.47089
1.49142
1.50186
1.50312
1.51869
2.23796
5.79999
1.10318
1.10919
1.11162
1.11164
1.10614
1.10435
1.10599
1.10859
1.11209
1.12298
1.13953
1.14771
1.15155
1.15451
1.15647
1.15131
1.14546
1.14559
1.14801
1.151
1.15566
1.17051
1.18857
1.1967
1.20069
1.20372
1.20285
1.19322
1.18802
1.18874
1.19136
1.19465
1.20009
1.21784
1.23818
1.24745
1.25215
1.25589
1.25395
1.24154
1.23441
1.23416
1.23642
1.23995
1.24586
1.26536
1.28795
1.29864
1.30375
1.30845
1.30925
1.297
1.28604
1.28431
1.28629
1.28954
1.29514
1.31359
1.33768
1.34998
1.35657
1.36225
1.36586
1.35864
1.34417
1.33884
1.34038
1.34379
1.34935
1.36747
1.39203
1.40554
1.4125
1.41838
1.42366
1.42161
1.40658
1.39619
1.39508
1.3981
1.40362
1.42209
1.44865
1.46454
1.47243
1.47778
1.48195
1.48125
1.46599
1.44763
1.44022
1.44058
1.44581
1.46649
1.48695
1.4946
1.51448
2.27104
5.79694
1.10533
1.11266
1.1152
1.11717
1.11311
1.10833
1.10875
1.11094
1.11358
1.11879
1.13431
1.14839
1.15453
1.15794
1.16096
1.16046
1.15227
1.14902
1.15059
1.15338
1.15652
1.16296
1.18123
1.19678
1.20343
1.20718
1.20984
1.20557
1.1948
1.19164
1.19363
1.19702
1.20061
1.20733
1.22777
1.24589
1.25369
1.25839
1.26151
1.2578
1.24406
1.23753
1.23864
1.24218
1.2464
1.25337
1.27454
1.29554
1.30501
1.31002
1.31363
1.31413
1.30135
1.2897
1.28795
1.2909
1.29507
1.30147
1.32174
1.3461
1.3581
1.36374
1.36796
1.37121
1.36414
1.34858
1.34192
1.34316
1.34722
1.35309
1.37123
1.39765
1.41288
1.42016
1.42563
1.43041
1.42853
1.41276
1.39962
1.39718
1.40053
1.40639
1.42315
1.44933
1.46648
1.47509
1.48073
1.48499
1.48584
1.47188
1.4504
1.43961
1.43863
1.44223
1.4617
1.47822
1.50289
2.30427
5.79068
1.10658
1.1161
1.11874
1.12127
1.12042
1.11376
1.1116
1.11303
1.11544
1.1186
1.12725
1.14551
1.15679
1.16177
1.16503
1.16732
1.16219
1.15435
1.15359
1.15546
1.158
1.16128
1.17019
1.1909
1.20447
1.21036
1.21431
1.21619
1.2084
1.19862
1.19751
1.19965
1.20237
1.20559
1.21371
1.23572
1.25214
1.25896
1.26371
1.26729
1.26242
1.24917
1.24443
1.24605
1.24903
1.2525
1.2593
1.28065
1.30034
1.30877
1.31372
1.31816
1.3189
1.30672
1.29574
1.29489
1.29827
1.3026
1.30865
1.3277
1.35051
1.36123
1.36686
1.37152
1.37484
1.36941
1.35443
1.34725
1.3486
1.35301
1.35943
1.37736
1.40286
1.41753
1.42486
1.42995
1.4336
1.43309
1.41968
1.40593
1.40223
1.40418
1.40872
1.4227
1.44928
1.46866
1.47795
1.48308
1.48653
1.48721
1.47638
1.45393
1.4391
1.4356
1.4388
1.45359
1.48425
2.32736
5.78187
1.10586
1.11891
1.12216
1.1245
1.12577
1.12094
1.11539
1.11569
1.11817
1.12106
1.12519
1.13794
1.15595
1.16467
1.16875
1.17132
1.17125
1.16255
1.15662
1.15715
1.15981
1.1629
1.16719
1.17992
1.2011
1.21262
1.21775
1.22127
1.2213
1.21042
1.20154
1.20063
1.20294
1.20612
1.21022
1.22147
1.24474
1.25987
1.26627
1.27035
1.2737
1.26708
1.2535
1.24864
1.24945
1.25207
1.25611
1.26467
1.2875
1.3069
1.3155
1.32029
1.32502
1.32555
1.31333
1.30242
1.30093
1.30274
1.3059
1.31191
1.33148
1.35442
1.36592
1.37195
1.37739
1.3816
1.37722
1.36227
1.35476
1.35564
1.35883
1.36359
1.379
1.40393
1.41927
1.42691
1.43291
1.43837
1.44018
1.42783
1.4114
1.40561
1.40734
1.41167
1.42368
1.44851
1.46807
1.47764
1.48294
1.48691
1.48871
1.48081
1.45841
1.43889
1.43237
1.43149
1.46127
2.32923
5.77185
1.10198
1.11939
1.12419
1.12709
1.12956
1.12938
1.12258
1.11995
1.12177
1.12453
1.12732
1.13198
1.14719
1.16344
1.17038
1.17407
1.1767
1.17434
1.16445
1.16101
1.16294
1.16615
1.16946
1.17389
1.18837
1.20853
1.21812
1.22277
1.226
1.22528
1.21365
1.20561
1.20578
1.20896
1.21281
1.21726
1.22934
1.25218
1.26569
1.27187
1.2758
1.27833
1.27169
1.25781
1.25284
1.25461
1.25838
1.26293
1.27191
1.29448
1.31319
1.32183
1.32665
1.33044
1.33104
1.3187
1.30615
1.3038
1.30675
1.31112
1.31779
1.33728
1.36088
1.37321
1.37905
1.38343
1.38753
1.38413
1.3688
1.3588
1.35806
1.36158
1.36642
1.37977
1.40613
1.42483
1.43349
1.43874
1.44303
1.44485
1.43531
1.4191
1.4112
1.41117
1.41391
1.42132
1.4443
1.46689
1.47852
1.48413
1.48745
1.48886
1.48404
1.46361
1.44095
1.42619
1.43749
2.30736
5.76198
1.09664
1.1154
1.12591
1.13058
1.13332
1.13566
1.13249
1.12598
1.12542
1.12718
1.12926
1.13186
1.1376
1.15525
1.17073
1.17737
1.18119
1.18362
1.17819
1.1689
1.16741
1.16928
1.17149
1.17402
1.17853
1.1949
1.21456
1.2238
1.22891
1.2329
1.23157
1.2196
1.21281
1.21343
1.21573
1.21837
1.22201
1.23448
1.25705
1.26991
1.27577
1.28046
1.28391
1.27799
1.26495
1.26083
1.26244
1.26526
1.26871
1.2765
1.29848
1.317
1.32512
1.32987
1.33404
1.33545
1.32543
1.31364
1.31129
1.31395
1.31796
1.32359
1.34098
1.36438
1.37684
1.38331
1.3881
1.39164
1.39007
1.37604
1.36454
1.36319
1.3666
1.37152
1.38313
1.40755
1.42676
1.43611
1.4419
1.44714
1.45088
1.44378
1.42512
1.41346
1.41185
1.41478
1.42163
1.44242
1.46543
1.47824
1.4843
1.48736
1.48842
1.4852
1.46867
1.43929
1.42828
2.26095
5.75364
1.09523
1.10621
1.12379
1.13303
1.13703
1.13961
1.14123
1.13533
1.12948
1.12935
1.13142
1.13403
1.13705
1.14478
1.16452
1.17879
1.18491
1.18815
1.1896
1.18182
1.17257
1.17077
1.17252
1.17517
1.17826
1.18422
1.20308
1.22261
1.2315
1.23591
1.2393
1.23697
1.22419
1.21662
1.21625
1.21842
1.22142
1.22582
1.24043
1.26363
1.27698
1.28292
1.28733
1.2908
1.28417
1.27055
1.26494
1.26529
1.26776
1.2715
1.28012
1.30252
1.32161
1.3305
1.33609
1.34115
1.34319
1.33373
1.32069
1.31671
1.31797
1.32066
1.32566
1.3423
1.36654
1.38043
1.3871
1.39239
1.39723
1.39771
1.38528
1.37279
1.3697
1.37103
1.37411
1.38234
1.40621
1.42952
1.44117
1.44681
1.45098
1.45339
1.44921
1.43312
1.4198
1.41607
1.41711
1.42084
1.43783
1.46246
1.47741
1.48375
1.4863
1.48663
1.48462
1.46769
1.44213
2.21318
5.74986
1.09675
1.1013
1.11427
1.1318
1.13993
1.144
1.14685
1.14688
1.1384
1.13356
1.1342
1.13638
1.13888
1.1419
1.15115
1.17221
1.18523
1.191
1.19452
1.19531
1.18582
1.17662
1.17535
1.17755
1.18064
1.18392
1.19013
1.21026
1.22873
1.23658
1.24118
1.24447
1.24199
1.2289
1.22092
1.22082
1.22377
1.22754
1.23222
1.24707
1.27025
1.28285
1.2888
1.29261
1.29555
1.29009
1.2757
1.269
1.26983
1.27336
1.2776
1.28614
1.30856
1.32846
1.33769
1.34267
1.34645
1.34889
1.34051
1.32543
1.31947
1.32099
1.32483
1.33005
1.34583
1.37099
1.38698
1.39425
1.39893
1.40341
1.40477
1.39317
1.37755
1.37166
1.37335
1.37754
1.38561
1.40709
1.43012
1.44214
1.4481
1.45329
1.45777
1.45673
1.44113
1.42368
1.41679
1.41706
1.42024
1.43419
1.45867
1.47494
1.48166
1.48367
1.48484
1.48077
1.47453
2.19242
5.74632
1.09863
1.10193
1.10712
1.12403
1.14106
1.14823
1.15212
1.15471
1.15121
1.14109
1.13758
1.1382
1.13971
1.1421
1.14574
1.15817
1.18053
1.19261
1.19802
1.20198
1.20181
1.19058
1.18184
1.18124
1.1829
1.18501
1.18801
1.19531
1.21675
1.23447
1.24202
1.24691
1.25079
1.24824
1.23487
1.22747
1.22797
1.23045
1.23332
1.23752
1.2522
1.27445
1.28645
1.29212
1.29667
1.30042
1.29616
1.28273
1.2764
1.27743
1.28031
1.28394
1.29145
1.31235
1.33156
1.34046
1.34553
1.34976
1.35252
1.34704
1.33322
1.32676
1.32766
1.33148
1.33636
1.34908
1.37317
1.38987
1.39788
1.40286
1.40599
1.40842
1.4017
1.38688
1.37973
1.37956
1.38202
1.38677
1.40376
1.42972
1.44575
1.45278
1.45697
1.45984
1.45984
1.44836
1.43005
1.42008
1.4183
1.41984
1.42923
1.4533
1.47193
1.47962
1.48246
1.47976
1.49281
2.20048
5.74226
1.10146
1.10468
1.10761
1.11542
1.13532
1.15022
1.15629
1.15944
1.16078
1.15329
1.1423
1.13965
1.14132
1.14396
1.14699
1.15206
1.16825
1.19003
1.20051
1.20528
1.20862
1.2074
1.19395
1.18448
1.18374
1.18615
1.18911
1.19289
1.2025
1.22532
1.24224
1.24932
1.25322
1.25647
1.25357
1.23944
1.23147
1.2313
1.23377
1.237
1.24184
1.25753
1.28036
1.29304
1.29881
1.30282
1.30677
1.30298
1.28907
1.28172
1.28173
1.28402
1.28745
1.29428
1.31445
1.33473
1.34489
1.35071
1.3561
1.35997
1.35585
1.34172
1.33343
1.33324
1.33549
1.33917
1.34885
1.37176
1.39016
1.3993
1.40585
1.41181
1.41573
1.41158
1.39569
1.38397
1.38182
1.38476
1.38958
1.40389
1.42844
1.44525
1.45294
1.45792
1.46248
1.46501
1.45667
1.4362
1.42166
1.41764
1.41853
1.42534
1.44786
1.46762
1.47696
1.47692
1.49659
2.22878
5.73853
1.10573
1.10861
1.11116
1.11427
1.12348
1.14389
1.15665
1.16212
1.16516
1.16535
1.15514
1.14536
1.14463
1.14716
1.15039
1.15387
1.15922
1.17641
1.19655
1.20522
1.20924
1.21203
1.21057
1.19788
1.18932
1.18932
1.19221
1.19592
1.20002
1.20944
1.23134
1.24683
1.2532
1.257
1.2597
1.25772
1.24504
1.23678
1.2367
1.23975
1.24376
1.24895
1.26337
1.28535
1.29787
1.30391
1.30766
1.3106
1.30871
1.2958
1.28683
1.28614
1.28916
1.29324
1.29989
1.31853
1.34015
1.35157
1.35726
1.36129
1.36491
1.36332
1.3495
1.33834
1.33617
1.33884
1.34301
1.35117
1.37292
1.39506
1.40648
1.41228
1.41665
1.4202
1.41844
1.40388
1.39062
1.38718
1.38855
1.39156
1.40034
1.42434
1.44654
1.45721
1.46181
1.46509
1.46684
1.46185
1.44306
1.42509
1.41805
1.4175
1.42183
1.44183
1.46257
1.46977
1.4936
2.26643
5.73326
1.11111
1.11168
1.11354
1.11584
1.11915
1.12989
1.15096
1.16275
1.16774
1.17114
1.17086
1.15944
1.15136
1.15146
1.15356
1.15575
1.15851
1.16393
1.18217
1.20138
1.20979
1.21423
1.2181
1.21698
1.20465
1.19673
1.19691
1.19902
1.20109
1.20443
1.21341
1.23487
1.25035
1.25701
1.26161
1.26568
1.26493
1.25318
1.24489
1.24482
1.24714
1.24973
1.25344
1.26588
1.28734
1.30038
1.30646
1.31108
1.31541
1.31572
1.30448
1.29515
1.29414
1.29639
1.29939
1.30414
1.31987
1.34141
1.3535
1.35971
1.36445
1.36877
1.3695
1.35908
1.34693
1.34348
1.3454
1.34895
1.35516
1.37278
1.39498
1.40751
1.41434
1.41935
1.42388
1.42443
1.41268
1.39691
1.38978
1.39051
1.39429
1.40186
1.42296
1.44543
1.4569
1.46203
1.46579
1.46888
1.46761
1.45092
1.42884
1.41775
1.41599
1.4183
1.43642
1.45304
1.48198
2.30163
5.72436
1.11765
1.11357
1.11532
1.11802
1.12059
1.12451
1.13726
1.15784
1.16889
1.1739
1.17675
1.17559
1.16427
1.156
1.15525
1.15757
1.16031
1.16337
1.16953
1.18854
1.20761
1.21643
1.22074
1.22383
1.22257
1.21055
1.20139
1.20016
1.20244
1.20528
1.20884
1.21814
1.24009
1.25678
1.26414
1.26815
1.27175
1.27163
1.25978
1.24968
1.24761
1.24939
1.25234
1.25646
1.2689
1.29147
1.30641
1.31342
1.31797
1.32255
1.32348
1.31278
1.30126
1.29782
1.29881
1.30134
1.30579
1.31994
1.34306
1.35758
1.36492
1.37071
1.3757
1.37783
1.36878
1.35474
1.34892
1.34926
1.351
1.35538
1.36962
1.39432
1.41091
1.41886
1.42382
1.42848
1.43104
1.42248
1.40584
1.39703
1.39561
1.39674
1.40031
1.41669
1.4423
1.45801
1.46474
1.46814
1.47032
1.47014
1.45764
1.43391
1.41816
1.41372
1.41561
1.42774
1.46248
2.32378
5.71265
1.12859
1.11891
1.11841
1.12057
1.12294
1.12537
1.12885
1.14175
1.16257
1.17348
1.17858
1.18219
1.1816
1.17066
1.16221
1.1613
1.16314
1.16564
1.16856
1.17399
1.19235
1.21156
1.22025
1.22481
1.22837
1.22852
1.21759
1.2076
1.20587
1.2077
1.21061
1.21435
1.2227
1.2439
1.26106
1.26864
1.27305
1.27623
1.27699
1.26693
1.25526
1.25221
1.25442
1.25815
1.2629
1.27368
1.29555
1.31158
1.31905
1.32345
1.32664
1.3286
1.32023
1.30657
1.30136
1.30288
1.30645
1.31144
1.32365
1.34666
1.36349
1.37142
1.37608
1.37956
1.38217
1.37646
1.3612
1.35201
1.35149
1.35474
1.3596
1.37176
1.39572
1.41466
1.42391
1.42877
1.43264
1.43535
1.4303
1.41312
1.39935
1.3957
1.39755
1.4016
1.41566
1.44051
1.45763
1.46504
1.46851
1.4708
1.47164
1.46338
1.44034
1.41968
1.41171
1.40826
1.43917
2.31988
5.69924
1.13987
1.13099
1.12372
1.12336
1.12438
1.12579
1.12854
1.1327
1.14735
1.16924
1.18058
1.18555
1.18935
1.18883
1.17724
1.168
1.16641
1.16699
1.16834
1.17141
1.17754
1.19684
1.21687
1.22622
1.23137
1.23558
1.23604
1.22477
1.21365
1.21145
1.21266
1.21458
1.21813
1.22637
1.24744
1.26504
1.27272
1.27764
1.28203
1.28375
1.27457
1.26259
1.25964
1.2616
1.26436
1.26787
1.27664
1.29757
1.31398
1.32156
1.32631
1.33053
1.33355
1.32774
1.31517