/*--------------------------------*- C++ -*----------------------------------*\
  =========                 |
  \\      /  F ield         | OpenFOAM: The Open Source CFD Toolbox
   \\    /   O peration     | Website:  https://openfoam.org
    \\  /    A nd           | Version:  12
     \\/     M anipulation  |
\*---------------------------------------------------------------------------*/
FoamFile
{
    format      ascii;
    class       volScalarField;
    location    "2.91";
    object      p;
}
// * * * * * * * * * * * * * * * * * * * * * * * * * * * * * * * * * * * * * //

dimensions      [1 -1 -2 0 0 0 0];

internalField   nonuniform List<scalar> 
22702
(
1
1
0.86046
1
1.04994
1
1.47042
1
1
0.640942
1.47152
1.47024
1
1.47226
0.879617
1
1
1
1.47246
1
1.47185
1
1.4682
0.660837
1.46944
0.65402
1
1.47788
0.64187
0.65537
1
1.47067
1
1
1
1.43515
1.47246
1.46859
1
1
0.640032
1
1.22723
1
1.47665
1
1
1
1
0.652635
1
0.658881
1
1.4711
1
1.47218
1
1
1
1
0.672535
1
1
0.641887
1
0.664416
1
1
1
0.650113
1
1.47457
1.28651
1
1.47256
1.49521
0.661697
1.47078
0.651906
1
1.47024
0.658534
1.47237
1.47145
1
1
1
1
0.933199
0.64072
1.46542
1
1
0.652274
1
1.47129
0.650943
1
1
1
1
1.22974
1.47061
0.64815
1
1
1.10806
1
0.657428
1
1.47286
1.47189
1
1
0.661533
0.666867
0.639218
1
1
1
1
1
0.908594
1
1.40015
1.03637
1.47257
1
1.47173
1.47278
1.47151
1.47034
1
0.650485
1
0.667813
1
1
1
1
1.47231
1
1
1
1
1.46744
1
1.02751
1
1
1
1
0.649887
1
1.01041
1
0.651913
1
1
1
1.46562
1
1.47226
0.660423
0.677512
1.47692
1.47728
1
1.0773
1.26888
1
1.47273
0.653047
1.4361
1
1
1
1
1.47222
1.38829
1
1.47183
0.651404
1.4729
1
0.646007
1
0.659339
0.659075
0.999759
1
1
1.47403
1
1
1.47028
1
1.4734
1.47158
0.663527
1
1
0.660808
1.47156
1
1
1
1.47117
1
0.654478
1
1
1.47134
1.47131
1.47346
1
1.00004
1
1
1
1.47092
1
0.669149
1.49256
1.47108
1.47265
1
1
1
0.646191
1.47114
1.22397
1
1.4732
0.663078
0.659272
1.47319
1.46915
1
1.47779
0.636668
1.41471
1
1
1
1
1.47087
1
1.2629
1.04335
1
1
1.47201
0.650308
0.777405
1
1.46967
0.657695
1.47725
1
1
1
1
1
1
1
0.657704
0.769628
0.660092
1.47176
1
1
1
1
1.41257
1
0.659243
1
0.63754
0.659961
1.47128
0.666556
1.47208
1
1
1
0.997578
0.648952
0.635575
0.999999
1
0.637216
1
1.47257
0.63074
1
1
1.47016
0.645676
1
1.46793
0.686616
1.47184
1
0.643552
0.997562
1
1
1
0.657988
1
1
1
1.00001
1.01591
1.2862
1
0.681564
1
1
1
1
1
1
1
1.47034
1
1.47393
1
1
1
0.647206
1
1.46824
0.666169
1
1.36427
1
1
1.47234
1
1
1
1.45394
1
1
1.46603
1.46929
1
1.09582
1
1
0.661858
1
1
1
0.647865
1
1
1
1
0.677437
1
1
1
1
1
0.635368
1.00006
1.47446
1
1.00001
1.47684
1.47777
1
1
0.668501
0.819851
1.47295
1
1
1
1.47157
0.653582
1
1.47286
1
1
0.73138
0.722707
1
0.654786
0.655155
1
1
1
1
1
1
1
1.47243
1.10761
1.4429
0.640441
0.893784
1.47315
1
1.46928
1.47354
0.656356
0.784951
1
0.647801
1
1.4874
1
1
1
1
1.47118
1
1
1
1
1
1
1
1.16291
1.46618
1
1.47157
1
1
0.65948
1
1
1
1
1.47136
1.35678
1
1
0.656376
1.47185
1.47147
1
1.47138
1.47072
1.47137
1
0.842468
1
1.47055
0.983304
1.47143
1
0.653097
0.998809
1.46896
1
1
1
1
0.656829
1.47136
1.42699
1
1.46964
1.47108
1.47155
1
1.20842
1.47046
1
1
1.32051
1.06729
1.47158
0.933209
1.47158
1
1.47161
1.47165
1.47145
1.47219
1
1.45262
0.90312
0.887863
1
0.999999
1
1
1.47206
1
1
1
1
1
1.46983
1
1
0.996558
1.47162
1.42916
1
1.38918
1.00004
1
1
1.47274
1
0.996366
1.00364
1
1.47133
1
1.47123
1
1
1.34586
1
1.47168
1.00002
1
1.47267
1
1.47162
1
1
1
1.47064
1
1.47231
1.00001
1.47101
1.4734
1.47182
1.47153
1
1.47065
1.45845
1
0.653632
1.44128
1.33486
1
1.4709
1
0.654732
0.690649
1
1
1
1
1
0.647782
1
1.47166
1.12281
1.47254
1
1
1
1
1
1.47173
1
1.47563
1.27898
0.785658
1
1.00001
1.13342
1.11786
1
1
1.16023
1
0.658045
1.47139
1.47145
1
1
1
1.47119
1
1.00003
1.47708
1.47113
0.949525
1
1
0.655966
1.42778
1
1
1
1
1
1.47163
1.47085
1
1.47285
1.47251
1.47187
1
1
1
1
0.631801
1.47351
1
1
1.42827
1.46974
1
1.44312
1.46665
1
1
1
1
1
1.47141
1
1
1
1
1.47251
1
1.46716
0.643217
1
0.665652
1
1
1
0.997003
0.659095
0.998964
1
1
1
1.06214
1
1
0.863474
1
1
1
1
1
1
1
0.999997
0.933003
0.999999
1
0.9977
1
0.658937
1
1
1
1
1.34939
1
1
1
1
0.658274
1
1
1.44302
1.47224
1
1
1
0.897954
1
1
1
1
1
1
0.949533
1.0141
1.47111
1
1
1
1.47121
0.889548
1
1
1
1.46968
1.47679
1
1.00001
1
1
1
1
1
1
1
0.650963
1
1
1.47048
0.654225
1
1.47032
1
0.650588
1
1
0.655109
1
1
1
1
1
1
1
1.46222
1.47025
1
1
1
1
1.42878
1
1.14327
0.654703
1
1
1
1
1
1
1
1.03751
1
1
1.25217
1
1
1
1.38795
1
1
1
1
0.645712
1
1
0.633341
0.646336
1
1
1.47067
1
0.999675
1
1
1
1.32196
0.675213
1
0.666811
1
0.799234
1
1
1
1.47414
1
1
1.47101
1
1
1
1.47071
1
1
1.47111
1
1
0.658352
1
1.14038
1
1
1.47257
1.47315
1.31069
1.42053
1
0.647011
1
1
1.44988
1
0.65485
1
1
1
1.4721
1
1
1
1
1.2791
1
1.4569
1.47007
0.642121
1
1
0.663447
0.670549
1
1
1
1.32819
1.35511
1
1
1
1
1
1
1
1.19907
1.47188
1.00508
1
1.46563
0.659934
1
1
1
1.24892
1
1.09063
1
1.42874
1.47018
1
0.657293
1
1.47287
1
1
1.47034
1.44136
1
1.47313
1
0.65688
1
1
1
1.4614
1.46207
1.41322
1
1.47486
1.47187
1
1.47248
1
1.47012
1
0.659911
0.974277
0.64204
1
1
1
1
1
1.47206
1
1.47203
1
1
1
1.44702
1
0.665187
1.47105
1
0.648413
0.694516
0.674824
1
1.22632
1.0431
1.47381
1.47144
1
0.999999
1
1
1.47191
1
1
1.47183
1.47192
1
1.16523
1.00001
1
0.996706
1.46783
0.841297
1
0.81033
0.657782
0.658619
0.953051
1.47409
1.46539
1.08785
1.4715
1.47194
1
1
1.47375
1.47311
1.47094
1.4716
1
1.47241
0.651215
1.47136
1.47134
1.47269
1.47573
0.869083
0.892907
0.92428
1.47086
0.960882
1.47317
1
1
1.4742
1.47203
1
0.651766
1.47313
1.47145
1
1.47035
1.47191
1
1.47183
0.651232
1.47262
1.47251
1.4709
1.47606
1
1
1
1.47091
1.30266
0.679525
1.47073
0.633639
1.47066
1
1
1
1
1.46865
1.472
1
1
1.47232
0.641966
1.47321
0.658971
1
1.46836
1
0.64574
1.47241
0.75396
1
1.47094
1.47402
1.47033
1
1
1.20109
1.47376
0.658903
1.47108
1
1.47082
0.872654
1.47101
0.660516
1
1.4699
0.696276
1.47424
0.655278
1
1.4719
1
1.46709
1
1.27174
1.45303
1.36768
0.650334
1
1.47065
1
1.4719
1
1.4724
1
1
1.4699
0.979789
1.47452
0.653967
1.42432
1
1.3308
1
1.47257
1.47183
1.47387
1
1.42182
1.471
1.43468
1.28461
1.46896
1
1.30667
1
1.47049
1
1.06114
1
1.43605
1
1.47133
1.44839
1.44765
1
1.46153
0.689432
1
0.642808
1
1
1
1.47258
1
1.47274
1
1
1
1.47343
1.46094
1.38795
1.47059
1.47436
0.670416
1.47213
1.47295
1
1.41146
1.47137
1.44703
1
1.47291
1.4721
1
1.47488
1.46966
1.47191
1.47242
1
1
1
1.47162
0.663406
1
1.47166
1
1
0.685865
1
1
1.47139
1.47118
1
1.47093
1.47693
1.46933
0.972611
1.47187
1
1.47174
1.47113
1.37322
1
1
1
1.47277
1.47122
1.47143
0.946838
1
1.48361
1.47102
1.47058
1
1.47154
1.47155
1.47125
1.4839
1
1.47092
1.47797
1.4126
1.4703
1.48205
1
1.46965
1.46597
1.47144
1.47077
1.47045
0.680379
1.47047
1.47074
1
1.47171
1.47106
1.47163
1.4719
1
1.47077
1.47134
1
1.47142
1.39272
1
1
1
1.47074
1.47323
1
1
1.24687
1
1.47103
1
1
1.47178
1.47333
1.47121
1.47183
1
1
1
1.32661
1
1.47127
1
1
1.4734
1.47268
1
1.47166
0.65148
1.47165
1.47414
0.727971
1
0.66178
1.41062
1.47651
1.47156
1.47249
0.634863
1.47067
1.47416
0.639079
0.63647
1
1.47134
1.47072
1
1
1.47125
1
1.47534
1
1.4097
1
1.21942
1.47001
1.47333
1.32078
1.42242
1.47348
1.47235
1.43696
1
0.665874
1.46952
1.47196
1.47608
1.00001
1
1
1.47605
1
1.47191
1.47098
0.767281
1
1.47108
0.999938
1
1.00003
1.00004
1.47199
1.47028
0.99853
1
1
1.47189
1.4738
1.47121
1.47729
1.46971
0.678432
1.39923
1
1.4679
1.47126
1.47198
1.47462
1
1.47095
1.45849
1.47307
1
1.4723
1.46964
0.864347
1.47115
1.47146
1
1.47085
0.837981
1.47128
0.862569
1.47141
1
1.47159
1.47805
1.47209
1.47182
1.4715
1.47787
1.47211
1.4722
1
0.928742
1.47074
1.47161
0.839517
1.47137
0.970981
1.28953
1.47074
1.47434
1.47278
1
1.47464
1.30286
1.46966
0.926786
1.47391
1.47539
1
0.866536
1
1.47513
1
1.31739
1
1.44648
0.869701
1
1.47646
1.46464
1
1.46927
1.47397
1.47452
1.46421
1.47684
1
1.46992
1
1
1
0.894838
1.4723
1.47264
1.47807
1.4718
1.47399
1.47919
1.47523
1.47281
0.898352
1.03121
1
1
1.48211
1.47223
1.47175
1.47209
1.00003
1.23456
1
1.47439
1.41019
1
1
0.741515
1.47119
1
1
0.649023
1.47183
1
1.47228
1.47141
1.47303
1.45334
1.4714
1
0.664245
1.11125
1.47199
1.47161
1
1.47012
1.47136
1.224
1.01029
1.10131
1
1.46707
1.4713
1
1
0.642357
1
1
1.47185
1.47172
1.47347
1.47135
1.47241
1.46854
1.47153
1.47494
1.47169
1
0.996434
1.4706
1.47175
0.996823
1.47153
1.47119
0.667148
0.64653
1.47005
1.46572
1
1
1.00108
1.47078
1.47253
1.47173
1
1.47139
1
0.856492
1.47608
1.4662
1
1.20288
1.47227
1
1.47043
1
1.47115
1.31228
1.47043
1
1.47031
1.4681
0.645178
1.47151
1
1.46967
1.47158
1
0.673499
1.47256
1.38514
0.997697
1.46412
1.47108
1
0.996276
1.46951
0.998042
1.47191
1
1
1.4721
1
1.47206
1.47142
0.996374
1.3707
1
1.47122
1
1
1
1
1.47213
1
1
1.47723
1
1.47156
1
1.29802
1.47732
1.47285
1
1
0.99763
1
1.47005
1.47196
1.46983
1.47154
1.47126
1.47081
1.47177
1
1.47195
1.47311
1
1.47154
1.47119
1
1.47183
0.929665
1.05701
1.47178
1.47092
1.47174
1
1.47164
1
1.47211
1.47126
1
1.47137
1
1
1
1
1.47071
0.652935
0.997896
1
1.47136
1.46937
1
1.47115
1
1.00512
0.651444
1.47145
0.999608
1
1.47035
0.998406
1.47145
1
0.999764
1
1.47179
1.47248
1.47022
1.47349
0.657502
1.46933
1.47433
1.4695
1.11089
1
1
1.19827
1.47231
0.655756
0.659221
1
1.47115
1.47194
1.46969
1
1
1.47443
1.47071
0.999883
1
1.33788
0.649113
1
1.08149
1.46931
1.46981
0.998255
1.47105
1.48435
1
0.999004
1
1.47333
1.46887
1.18816
1
1.44014
1
1.00168
1.47288
0.638049
1.47048
1.47183
0.996959
0.999911
1.41434
1
0.999686
1
1.47207
1
1.00001
0.659794
1.47173
1.00001
1
1
1
1.46914
1.25865
1
1
0.649347
1.47125
1.26373
1
1
1
1.44767
1.45153
1.47707
1
1
1.47759
1
1.47227
1.471
1
1
1.47313
1.47085
1.45448
1
1
1.47382
1.4725
1
1
1
1.47309
1
1
1
1.4726
1.47442
1.47327
1
1.47226
1.00003
0.713669
1.4706
1.47124
1
1.47062
1.4442
1.47006
1
1
1.4758
1
1.25462
1.4703
1
0.660746
1
1.473
1
1
1.47746
1
1
1
1.1386
1.47009
0.687966
1.00001
1.47292
1
1
1.47341
1
1.47641
1
1
1.47107
1.47204
1
1.00005
1
1
1
1
1
1
1.46819
1.47236
1
1.47234
0.664345
1.46577
1
1.47168
1.48032
1.4711
1.46568
1.47302
1
1
1.47589
1
1.2797
1.47663
1.47171
1
1.47331
1.46593
1
1.41604
1
1.47147
1.30432
1.47546
0.997605
1.45678
1.42061
1.4727
1.47264
1.03904
1.47164
1.47372
1
1.47153
1
1.47189
1
1
1
1
0.996018
1.47153
1.47181
1.3848
1
1.47322
1
1
1
0.64507
1
1.45865
1
1.42569
1.46222
1
1
1
1.44468
1.47296
1
1
1.46963
0.651523
1.0691
1
1.47686
1.47157
1.42823
1.45799
1.47168
1
1.47009
1
1
1
1
1.472
1.47326
1
1.46015
1.05605
1.47278
1.43807
1
1
1.43947
1
1
0.65269
1.32744
1
1
1.47791
1
1.47457
1.42877
1
1.42811
0.652859
1.47179
1.47144
1.47184
1
0.663072
1
1
1
1.47208
1.37546
1
1.48012
1.47233
1
1.47162
1
1
1
1
1.4722
0.999352
1
1.47287
1
1
1.47444
1.47127
1
1.47446
1.08913
1.00002
1
1.47031
1
1.47011
1
1.0121
1.47182
1
1.47116
1
1
1.1458
1.47118
1
1
1
1
1
0.995624
0.669351
0.666826
1.02011
1
1.027
1
1.03147
1
1.47177
1
1.28723
1
1.47104
1
1
1
1.471
1
1.36168
1.47072
1
1.24544
1.47084
1
1
1.47338
1.4718
1
1
1.05296
0.641249
1
1.47312
1
1
1
1
1.07608
1.47192
1
1
1
0.637802
1
1.47113
1.47157
1.47637
1
1
1
1
1.23334
1.47826
1
1
1
1.47081
1.47148
1.05176
1
1
1
1.47313
1.47145
1
0.66691
1.47216
1.47244
1.47212
1.47197
1.47294
1
1
1.47707
1.4701
1.47149
0.639539
1.04072
1.47174
1
1
1
1
1
1.47168
0.659292
1
1
1.47146
1.20162
1
1.48003
1
1
1
0.656788
1
1
1.11746
1.47179
1.47176
1
1.47753
1.47959
1
1.06886
1
1.48013
1
1.46892
0.653801
1
1
1
1
1.47138
1.00006
1
1
1
1.45009
1
1
1
1
1.47309
0.65804
1.37366
1.47605
1
1.47268
1
1
1
0.99726
1
1.47501
1
0.813727
1
1
1.00003
1.47353
0.647957
1
1.47035
1
1.47506
1.47134
0.636595
1
1
1.46266
1
1
0.660325
1
1.47161
1
1.44919
0.999288
1.47012
1
1
1
1
1.47086
1
1
1.47142
1
1
1
1
1
1
1
1
1.30276
1
1.14835
1.47031
1
1
1
0.664245
1
1
1
1
1.4705
1.47197
1.05588
1
1
1.47294
1
1
1.47119
1
1.00002
1
1
1
1.00001
1.47202
0.795314
1.47165
1.47308
0.996902
1
1
1
1.27053
1
1
1.47265
1.47151
1
1
1
1
0.649421
1
1
1
1.29109
1
1.47123
1.47361
1
1.47328
1
1
1
1.24896
1
1.4713
1
1.47154
1
1
0.996048
1.47137
1
1
1
1
1
1.47308
1.00002
1
0.649717
1.47552
0.657042
1
1.47049
1
0.995998
1
1.47203
1.47789
1
1.47088
0.876126
1.47194
1.47775
1.00003
1
1
0.662089
1
1
1
1.47144
1.26856
1.47638
1
1
1
1
0.996721
1.47167
1
0.657539
1
1
1
1
1
1
1
1.47993
1.47306
1.47336
1
1
0.996878
1
0.979442
1
1
1
0.667835
0.980234
1
0.661795
0.665184
1
1.47194
1.47177
1
1.47193
1.47212
0.657566
1.30836
1
1
1
0.662097
1.47035
1
0.658783
1
1.48099
1.07215
1
1
1
1
1.47119
1.47056
1
1
1.47116
1
1
1.4716
1.4724
1
1.44156
1.47099
1.47168
0.95697
1.47175
1.00845
0.651781
1.35939
1.47228
1
1
1
0.665853
1
0.667347
1.47994
0.955258
1.4718
0.951275
1
1.46977
1.21013
1
1
1.4719
1
1.18914
1.4711
1
1
1.4704
1.48
0.662234
1.28703
0.999891
1
1.27766
1
1.47405
0.944842
1.47269
1.47884
1
1
1
1
1.46346
1
1
1.47269
0.999637
1.47175
1.37121
1.4722
0.660884
1
1
1
1
1.47177
1.00005
1.47115
1
1.47118
1.47278
1.05772
1.46542
1.14331
1.47195
1
1.31587
0.696147
1.46988
1.47164
1.37362
1.07185
1.4701
1.47184
1.4716
1.46895
1
0.913301
1.0673
1
1.47149
1.21966
1.47201
1.00003
1
1
0.672366
1.48009
1.47038
1.38467
1
1.17474
1
1.46939
1.46771
1
1.47155
1.47117
1
1
1
1.4718
1
1.17873
1.47591
1.32249
1
1.47118
1
1
1
1
1
1
1
1
1
1
0.666499
1
1.44126
0.678093
1.26776
0.998523
1.47369
1
1.24854
1.00001
1.30061
1.40077
1
1.00194
1.47679
0.910272
1
1.46751
1.45781
0.941857
1
1.47426
1.47167
1.47243
1
1.4718
1.47105
1.47589
1
1.20192
1
1.00006
1.47173
1
1.4716
1.06703
1.46994
1
1
1.47063
1.46923
0.669261
1
1.47218
1.35136
1.47036
1
1
1.47077
1.47005
0.998242
1
1.41103
0.99694
1.47282
1.00006
1
1
1
1
1.20843
1
1.36822
1.47187
1.34935
1.47209
1
1.00174
1
1
1.4721
1
1.47645
1
1
1
1
0.999999
1
1.0579
1.24256
1
1
0.679799
1
1.47026
0.68154
1.47614
1
1.24266
0.999764
1.47165
1.29658
0.670237
1.25355
1.00003
1.47205
1.4707
1
1.28363
1.47024
1.47311
0.998377
1.47322
1.4581
0.671889
1
1
0.99776
1
1.46247
1
0.66968
1.47361
1
1
1.42432
1
1.47227
1
1.47187
1
0.700233
1
1
1.47453
1.48043
1.47054
1
1.4677
1.47128
1.47252
1
1
1.4531
0.999999
0.733275
1
1
1
1.47247
1
1.47099
1.29995
1.46933
1
1.4717
0.999381
1
1
1
1
1
1
0.731291
1
1
1.47158
1
1.47812
1.47781
1
0.651292
0.662549
1
1.47377
1.0731
0.655419
0.638492
1
1.47351
1
1.47085
0.633035
1.00185
1
1
0.999505
1
1
1
0.999913
1.19371
1.47109
1
1
1.47211
1.27616
1
1.41945
1.46921
1.47166
1.19232
1.47543
1
1.47091
1
1.47091
1
1.47683
1.46969
0.996888
1.47279
1.47825
1
1
1
1
1
0.926806
1.47045
1.00004
1.00003
0.649253
0.999983
0.663909
0.634553
1
1.47067
1.47065
1.47188
1
1.47209
1
0.66242
1
1
1.47398
0.833831
1.47255
1
1.47338
1
0.973536
1.4723
1
1
1
1.47476
1
1.47005
0.661373
1
1
1.27184
1
1
1.25151
1
1
1.47249
1
1
1
1
1
1.47199
1.47209
1
1.47208
1.47321
0.662412
1.2128
1.46771
1
1
1.4229
0.998963
1
1
1.47194
1.472
1.29797
1
1.47112
0.663454
1.44566
0.999213
1
1.47389
1.00003
1.46959
1.40676
1.35726
1
1
1.47184
0.714204
0.669646
1
1.47151
1
1.47131
1
1.27532
1
1
1.47028
1.29298
0.664344
1
0.998397
1
1
1.02628
1.18972
1.47152
1
1.47763
1
1
1
1
1
1
1.06798
0.654762
1
1
1.0396
1
1
1
1
1
1.47069
1
1
1.47213
1.47127
1.33156
1
1
1
0.845081
1.47117
1.32499
1
1
1
1
1.47205
1
1
1
1.47444
1
1
1.33294
1.49018
1.03856
0.737307
1.47307
1.33083
1.46962
1
1.22894
1
1
1
0.647533
1.00238
0.651752
1
0.646519
0.640847
1
0.660243
1
1
1
1.20762
1
1.47156
1.47059
1.00112
1.21312
1.3967
0.669915
0.773639
0.892477
1
1.47159
1.47203
1.47167
1.47188
1.40024
0.875564
1
1.40456
1
1.44377
1
1
0.996494
1.00963
1
1
1
1.47196
1
0.681043
1
1.47303
0.670251
1
1
1.47171
1
1.47177
0.999481
1
1
1.47266
1.41647
1
1.4801
1
1
1.01455
1
1.20553
1
1
0.663228
1
1
1.46922
0.999999
1.47165
1
1.00003
0.673013
1
1
0.64782
1.00089
1
1.47283
0.653575
1.47316
0.647718
1.4721
1
1
1
1
1
1
1
1
1
1
1
1.45144
1
1.47313
1.4707
0.656986
1
1
1
1
1
1
1.45708
1
1
0.664122
1
1
1.47181
1
1
1.17587
1.39116
0.648877
0.653629
0.716946
0.757449
1
0.996467
0.647652
1.0003
1.43252
0.996961
1
1
1.47067
1
1
1
0.776217
1.00001
1.16642
1
1
1.18837
1.47091
1
0.68108
1
1
1
0.996388
1.00001
1.46953
1.47205
1
0.656724
1
1.25132
0.653533
1
0.880515
1
0.995772
0.64646
1
1
1
0.99553
0.645855
1
0.653983
0.99843
1.23989
1.42417
0.649197
0.649486
1
0.990601
1
0.998598
1
1.47224
1.47251
1
1.01204
1.47093
1.47057
1
1
1.47175
1
1
1.00005
1
1.4741
1
1
1.01825
1
0.998574
0.703823
1
1
1
1
1
1.47389
1.0374
1.00005
1
1
1
1
1
1.00003
1
0.660593
1.10432
0.998586
1.46747
1.46751
1
1.01489
1.47133
1.4062
1
1
0.632572
1.47007
1
1.47055
1
1.47035
1.32201
0.66084
1
0.652829
1.4292
0.999685
1
0.654577
0.632947
1
1
1.39524
1
0.999998
0.641963
1
1
1
1.15028
1
0.658838
1.47218
1
1
1
1
1.47215
1
1
1.47843
1.42142
1
1
1
1.46914
0.659768
1
1.47209
1.4714
1
1.37306
0.999999
1.00003
1
1
1.43091
1.01062
1
0.67357
1.25073
1
1
0.997572
1
1
1.47297
1
1
1.00003
1
1.47092
1
1
1
1
1
1
1.00001
1.20408
1
1.46933
1
1
1.47286
1
1
1
1.47156
1.47493
1.04514
1
0.997557
1
1
1
1
1.47124
1
1
1.47186
0.661927
1
1
1
1
1
1
1.37931
1
1
1.47128
1.47273
1
1
1
1.47205
1.46958
1
0.999709
1.46856
1
1
1
1.00002
0.673096
1.02892
0.996027
0.996123
1
1
0.669153
1.47278
1
0.657616
1
1.47168
1.45101
0.650564
0.999395
1.47166
1.47191
1.47089
1
1
0.930988
1.41795
1.39087
0.638636
1
1
1
1.47298
1.4714
0.656334
0.997267
1
1.47203
0.678933
1
1.47269
0.651309
0.974477
1.00722
1
1.47845
1
1
1
1
1
1
1.00011
1.43834
1
1
1.47136
1
1
1
1.47172
1
0.656138
1
1
1
1.16067
1
1
1
1
1
0.789151
1
0.673551
1
1.47263
1.00006
0.870524
0.881906
1.00002
1.0047
1.23742
1
1
0.669315
1.47239
1.4726
1.47161
1
0.628389
0.650166
1
1.47097
1
1
1
1
1
1.00003
1
0.655586
1.2952
1
1
0.653131
0.979095
1.00001
1
1
1
0.649281
1
0.711558
1
1
1.47798
1
1
0.657035
1
1.4719
1
0.667151
1
0.649426
1
1.00773
1.47124
1.48089
1
1
1.47304
1
1
1.10315
0.99709
1
0.998243
1
1.47485
1
0.652495
1.00002
1.47037
0.999049
1
1
0.802624
1
0.999078
0.636144
1.4741
1.16904
1
1.00001
0.898184
1
1
1
0.802003
1
1
1
1.47151
1
0.661906
0.999999
1
1
1
0.655777
1.47121
1.42551
0.643779
1
1.47854
1
1
1.47128
1.47197
1.39358
0.646522
0.997738
0.999316
1
1.47124
1
1
1
1
1.46988
1.00004
1
1
1.47104
1
1
1.47023
0.66718
1
1
1
0.659724
1
0.999999
0.999999
0.998665
1
1
1
1
1.36122
1
1.47111
1.47181
1.4763
1.47199
1.46993
1.47132
1
1.4715
1
1.47102
1.47158
1
0.998837
0.665597
1.40032
0.999906
1
1
1
1
0.996614
1
1.07674
1
1
1
0.859496
1.47056
1.47147
1.47814
1.40595
0.999871
1
1.02211
1.47102
0.997959
1.0594
0.997327
0.646417
1
1.00002
1
1
1
1
1
1.47039
0.656063
1.46991
1.47177
0.995502
0.687771
1
1
1
1.47343
0.664686
1.4137
0.650159
1.47095
1.47683
0.650131
1.47407
1.02364
1
1.47587
0.780691
1
0.998751
0.683055
1
0.653797
1
1.47127
1.47153
0.762147
1
1.4729
0.642878
1
0.66971
1
1.47162
1
1
1.4733
1
0.846766
1
0.999654
0.653791
1.47168
0.999476
1
0.663576
1
1
1
1
1.2464
1
1.47076
1
1
1.48354
1
1
1.47236
1
0.669666
1
0.648191
1.00001
1
1
1
1
1.44971
1.26819
1.4711
1
1.47137
1.43696
0.641554
0.682249
1
1
1.46973
1
0.668012
1
0.978372
1
1
1.47188
1
1.46807
0.675959
1.485
1
0.676529
1
1
1.47595
1.47062
1
1.00004
1
1.47932
1
1
0.64499
0.999434
0.66108
1
1
1
1.47341
1.46949
1.4715
1
1
0.64026
1
1.47475
1
1
1
1.44214
1.47215
1.47188
0.675413
1.47509
1.47163
0.676344
1.47237
1.00004
0.660593
1.01675
1
1
1.47271
0.688344
1.2969
0.688442
1.47108
0.997325
0.632642
1.47328
1
1
1
1
1.47026
1.47216
0.654318
1
1.00002
0.657687
1.00003
1
0.659232
0.67032
1.32599
1.46973
0.998459
1.47172
1
1.46399
0.823136
0.6523
1.47185
1.48013
1
1.47018
1
1
1.47172
1
1.35763
1.47252
1
1
1
1
1.47052
1.46642
1.47234
1
1
1.47009
1.47347
1.47096
1
1.47048
1
1
1
1
1
0.660701
0.84211
0.671898
1
1
1.47
1
1
1.47314
0.663172
1
1.47118
1.466
1.45193
0.645714
1
0.653848
1
1.00003
1.47124
1.23323
1.47171
1.42981
1
0.636523
1
1.47419
1.33231
0.650136
1
1
1
0.792919
1
1
1.47599
1
0.65211
1.47126
1
1
1
1
1
1.37682
1.10274
1
1.47144
1
1.47218
1
0.997619
1
1.47198
1.47056
1.47301
1.47576
0.999576
1.47172
1
1.47121
1.47126
1.39765
1
1
0.671148
1.47049
1
1
1.47661
1.47029
1.46989
1
1.4718
1
1
1.00003
1.4727
1.4687
1.12831
1.09762
1.47037
1.47063
0.713429
1
1
1
1
1.00001
1.15964
1
1
1.3892
0.653227
0.999973
1
1.47121
0.999895
0.999814
1.06438
1.4454
1.47109
0.903004
1
0.671859
1
1.00136
1.47088
1.47427
1.46352
0.999088
1
1
0.662324
1
1
1.47123
1.04822
1
1
1
1
1
1
1
0.999944
1.47265
1.00002
1
1
1
1
1.29881
1
1.21528
1
1
1.47106
1.4773
0.65448
0.998765
1
1
1
0.665136
1.47121
1.47152
1
1
1
1
1
1
1
1
1.47168
1.46598
0.663962
1.04938
0.655329
1
0.662666
1
1.47169
1.12972
1
1
0.724311
1
1.45245
0.799822
0.996861
0.647431
1
1
1.47175
1.00004
0.997268
0.640246
1.47228
1.47257
1
1
1
1
1.43922
1
1
1.4712
0.998996
1.47274
1.00005
1
1
0.673229
1
1
1.47095
0.658126
0.770397
0.656443
1.47143
0.999397
1
1.47214
0.647314
0.653127
1.01824
1
1
1.47157
1.00004
1.20464
1
1
1.47113
0.651707
1
1
1.00014
1.47254
1.00011
1.45061
1
1.00003
1
1
0.728893
1
0.779561
1.00002
1
1.47406
0.678966
1
0.770837
0.799778
1
1
1.47221
1
1
1
1.47015
1.47065
1.00005
1.45759
1.4717
0.769213
1.4718
1.44444
1
1
1.466
0.999999
1
1
1
1
1.4809
1.47233
1
1
1
1.47176
1.0002
1
0.659271
0.715529
1
1.00003
1.17147
1
1
0.893849
0.638406
1
1
1
1.47665
1.43053
1.47161
1
1
1
1
0.682084
1
1.4579
1
1.46531
0.66665
1.47338
1
1
1
0.660777
1
1.4728
1.00003
1
0.65143
1.16609
1
0.999672
1.48103
0.653758
0.664839
1
1.4715
0.638605
0.656864
1
0.68466
0.999996
1
1
1
0.681454
1
1
1
1
1.47198
1
1.36026
0.66313
1
1
1
0.65053
1.47124
1
1
0.996612
1.46021
1
1.47081
1.47306
1
1
0.735049
0.650934
1
1
0.648908
1.13748
1.21075
1
1
1.4773
0.997374
1
0.997897
1.47345
1
1
1
1
1
1
1.4693
1
1.16137
1.15086
0.715459
1.41851
1
1.47018
1.47224
1
1
1
0.900527
0.666106
1
1.22413
0.999689
1.40907
1
1
1
0.999999
1
1.00958
1.21243
1.473
1.47039
1
1.47183
1
0.664968
1
0.997488
0.9998
1
0.664124
1
0.663323
1.00002
1.47601
1.47174
0.660678
1.47739
0.636017
0.996122
1.35901
0.66585
1.3363
1
1
0.998424
1
1
1
1.00006
1
0.6609
1
1
1
1
0.999584
1.47126
0.810249
1
1
1
1.03848
1
1
1
1.27182
0.750027
1
1
1
1.04242
1.47015
1
0.688289
1
1.4735
0.894503
0.647062
1
0.660901
1
1
1.44499
0.998285
1.43367
1
1.00846
1
1
1.47234
1
1
1
1
1.0942
1
1.47126
1.47337
1.47219
0.666865
1.47201
0.997097
1.38505
1
1
0.657532
1
1
0.654262
1.47275
1
1
0.999945
1
1
1
0.643128
0.669498
1
1.47191
1
1.2145
1.47121
0.65472
1.39932
1
1
0.679679
1
1
1.47195
1.47184
1.16161
1
1
1.0019
1.46988
0.665369
0.659859
1.47049
1.47195
1.32227
1.18234
1
0.891163
1
1
1
1.44187
1.47265
1.46907
1
1
1.47173
0.667785
1.43399
0.634785
1
0.666365
1
0.666807
1.47175
0.643813
1
0.981291
0.674632
1
1
1
0.850948
1.43806
1.47042
1.47246
1.46996
1
1
1.47325
1
1
1.46928
1
0.673095
1
0.67809
1
1.47031
1
1
1.02724
1.35929
1
0.99889
0.635276
1.47198
1.00001
0.681548
1.08709
1
1
1.35809
1.47178
1.47151
1
1.46952
1.12555
1
1.025
1.47197
1
1
1
1
1.47119
1
0.682422
1.47076
0.652997
0.679324
0.82838
1.4698
1.16269
1.46924
1
1.47096
0.997693
1.00003
1.47104
1.47331
1
1.46959
1
1.47042
1
1.47028
1
1.00004
0.999961
1.47333
0.650459
0.660414
0.997832
0.999999
1
1
0.679236
1
1.30656
1
0.662395
1
1.17769
1.47102
1.47993
1
1
1.00003
0.999447
1
1.47179
1.4709
1
1.19497
1.47214
0.847513
1.47115
1.00066
0.646825
1.09858
0.679304
1
1
1.07805
1.47143
1
1
1.04194
0.998529
1
0.661828
1
0.77965
1
1.46962
1
1
0.655306
1.10696
1.05707
0.998509
1.47147
1.47184
0.77997
0.998058
0.665537
0.641106
0.66349
1
1
1
0.999102
0.744318
0.655448
1
1.47172
0.999751
1.47191
1.46931
1.47181
1.47204
1
0.665993
1.47082
0.646694
1
1.47022
1.47162
0.996492
0.814715
1.47005
1.33193
1
0.665787
1
1
1.47464
1
1.02663
1.47328
1
0.679614
0.660401
1
1
0.633983
0.629903
1.47068
1.00005
1
0.679166
0.648484
1.47699
1.45669
1.43941
1.47088
1.12616
0.978962
1.18238
1.46864
1.36882
1
1.23317
1
0.638648
0.871226
1
0.672739
1.47086
1.0232
1.47286
1
1.47113
1.47166
1
1.4731
1.47174
0.658004
1.47353
1
1.47772
1
0.752282
0.66232
1.47259
1
1
1
0.658576
1.47095
1.47289
1
0.661267
1
1
0.669096
1.00004
0.63169
1.47133
1
0.823831
0.628973
1
1
1.2653
1
1
1
1.07685
0.661182
1
1.00001
1
1.47622
0.656129
1
1.47159
0.676875
0.684158
1
1
1.46868
1
1.47488
1.00001
1.47192
0.657778
1
1
0.649124
0.791884
0.678947
1
1
1
1
1.4768
0.658459
1
0.655053
1
1.46709
1
1
0.926359
1
1
0.834087
0.999692
1.00005
1
0.65759
0.659575
1
1
1
1
0.792625
1.47063
1.47111
1
0.657297
0.634391
0.909024
0.662775
1
0.822519
1
0.663335
0.980008
1
1
0.649774
1
1.47326
1.45552
0.660892
1
1
1
1.47224
1
1.04064
0.840657
1.14562
0.667736
1.18153
0.668729
1
1
0.715382
0.906176
1
1.04028
1
1
0.64239
1
0.942862
1.04744
0.654279
1
1.38123
0.753233
0.877984
1
1
1
0.65464
1
0.657595
0.650246
1
0.852141
0.660301
1.05984
0.759934
0.665698
1.47098
1
1.47082
1.25705
0.719846
1.4716
0.672192
0.999034
1.47027
0.999999
1
1.47206
1
0.717401
1
1.06118
1
1
1.47175
1
0.757492
0.81469
1.47064
0.939377
1
0.76792
1.47133
1.47087
0.904735
1
1.47099
1.12081
0.837253
1
1.01432
1
0.660107
1.19808
0.757204
0.723813
1
1
0.657623
1.4706
0.962283
0.663119
0.657566
0.862231
1
1.00571
1.4728
1.4723
1
1
0.999999
0.662308
1.21852
0.999974
1.4698
1.42705
0.647575
1
1.09391
0.86869
1.28066
1.42803
1
1.04056
1
1.00005
0.671104
0.833099
1
1
0.824621
0.674852
1.03805
1
1.00001
0.674621
1.20797
1
1.45546
1
1.04195
1.24455
1
1.46045
1
1
1.4717
1
0.644039
1.472
0.711057
1.12009
1
0.662814
0.999917
1
1.00003
1
0.796159
1.02628
0.648722
1.34286
1.47107
0.642289
1
1
1
1
1
0.964212
0.630685
1.04134
0.651867
0.659043
1.07718
1
0.999807
1.11456
1
1
0.663053
0.986649
1
1
1.13329
1
1.47123
1
1.47221
1.0935
1.02284
0.661079
1
1
0.681072
1
1
1
1
1.46886
1.04296
0.998134
1
0.637624
1.05349
0.999999
1
1.30527
1
0.655726
1.47168
1
1.00001
1
1.4699
0.664024
0.877475
0.658623
1.3532
1.4743
1
1
1.47104
1
0.633831
1
1
1
1
1
0.762877
1
1.46978
1
1
1.15906
1.47109
0.649066
0.852907
1
1.4711
1
1
1
1
1
1.47145
1.47229
0.630195
1.47105
0.649338
1
1
1.47179
1
1.47067
1.00031
1.02653
1.05831
1.46942
1.07322
1.31563
0.660137
1
0.654436
0.982904
1
1.47096
1
1
0.647413
1.46877
1
1.47183
1
1
1
1
1
1.00001
0.655166
1.47096
0.840361
1.47166
1
0.66286
0.64552
0.718526
1.47191
1.46992
0.968989
1
0.773302
1
1.17347
1
1.46955
0.642219
0.662844
0.854359
1
1.47166
1
1.07826
0.697125
1
1.47217
1.41155
0.998853
1
1.47158
0.660652
1.46986
1.47283
1.47158
0.653221
1.08419
1
1
0.640987
1
0.796178
0.827568
1
1.00002
1.47014
1
1.46847
1.08725
1
1.04076
1.47692
1
0.664511
1
0.774783
1
1
1.38691
1
0.795442
1
0.655669
1.03767
0.947384
0.64158
1.47223
1.37546
1.47143
0.65197
0.702582
0.995283
0.999999
1
0.673579
1.44362
0.659065
0.99997
1
1.47133
1.47253
0.910782
1
0.661183
0.731342
1.31177
0.979911
0.646049
0.999999
0.656037
1.1188
0.651523
1
1.00006
0.815314
1.47153
1.47267
0.844963
0.999584
1
1
0.740587
1
0.646881
1
0.630066
0.657456
1
1
1.00004
0.648696
1.47133
1
1
1.00007
1.00004
0.639169
1.47254
1.47028
0.999999
0.648135
1.47146
1
1.09554
1
1
1.47601
0.643271
1
1
0.661142
0.749233
0.65143
0.670354
1
0.703677
0.997084
1.09657
0.650208
1
1
1.1309
1
1.41604
1
1
1.31679
0.691569
1
0.645076
1.12328
1.47101
1
1
0.659789
0.640099
0.65604
0.745741
0.650538
1.35102
0.999406
1
1
1
1
1.47215
0.670971
1
0.925666
0.999669
0.999244
0.999938
0.744178
1.11907
1
1.47145
1.47105
1
1
1.45461
1.00004
0.999999
1.47112
0.656953
1.47522
0.999999
0.642982
1.47128
1.00005
1
0.816961
1
0.653305
1
1.46986
1
1
1.47578
1
1
1.4759
1
1
1
1.46946
1
0.754662
0.705044
1
0.632514
1.46994
1
1
0.9772
1
1.47274
1.26846
1.37596
1
1
0.665889
1
0.659397
1.47367
1.46982
1.47241
1
1.47092
0.658994
1
0.655933
1.37604
1.42284
1.47375
1.47028
0.773302
0.647182
1
1.29607
1.47132
1.47022
1.47178
0.733043
1.17026
1
1.35596
0.754945
1
1.00002
1
1.00002
0.889015
1
1.47216
1
1
1
1
1
1
1.00006
1.46836
1
1.47376
1.34646
0.667078
1.47142
1.02028
1.23162
1
1.47184
1
0.667071
1
1
1
1
1.39999
1
0.637828
1.4732
0.640144
1.47079
1.37418
1.23658
1
1.08696
1.21862
0.995857
0.648845
0.774657
1.00002
0.999999
0.920824
1
0.660882
1.47093
0.668912
0.931709
0.857066
1
1
1
1.01208
1
1
0.649279
0.995882
1.47155
1
1.47116
1
0.648815
1
1
1.47091
1.47173
0.636373
1
1.47345
1
0.816582
0.667233
1.4712
1.42293
1
1.07612
1.47193
0.998684
1
1.19483
1.41203
1.47143
0.99578
1
0.999998
1.39758
1
1
1
1.47131
0.998507
1
1
1.47065
1
1
0.65935
1
1
1
1.47169
1
1
0.854373
1.13823
1.42776
0.75182
1
1.47111
1
1.16353
1
1.4702
0.997323
1.4716
1
0.661914
1
1.32564
1
1
1.43937
1.00001
1.4723
1
1.47624
0.692131
0.657387
1.47063
1
1.39638
1
1.47151
1
1
1.00005
1.4728
1.473
1.12171
1.4712
0.99596
0.649293
1.47085
0.861899
1
1.47073
1
1.47216
1
1.47381
1.47263
0.996263
0.660411
1
1.47197
1
1.02168
1
1
0.997985
0.742359
1.42119
1
1.41843
1
0.857854
0.656777
1.47233
1.4727
0.699277
1
1.47232
1.47241
1.47144
0.703593
1.47162
0.685788
1.47067
1.47013
1
1
1.47135
1
1
1
1
0.653704
1
1
1.47063
1.47193
1
1.47166
1
1.47291
1.47215
1
1.39268
1
0.636566
1.47176
1.34765
1.13197
0.635472
1.4715
1
1
0.657016
1
1
1.47121
1
1
0.789084
1
1.47164
1.00008
1.46941
0.652688
1.47126
1
1.47139
1.45232
0.894998
1
1.47444
0.763421
1.47825
1.32473
1.47136
1.47512
0.997041
1.47048
1.47105
1.47163
1.47235
1.00077
1
0.631178
1
1.47046
0.840469
1.42822
1
1.46288
1
1
1
1
1
1.46945
0.653159
0.666502
1.47283
1.47141
1
1
1
1
1
1.46745
1.43019
1.47146
1.01734
1
1
1
1.00004
1.47036
1.47126
1
1.47289
1.46955
0.664677
1.32657
1
1.47188
1.47566
1.46825
0.99808
1.47239
1.47237
1
1.42579
1
1
1
1
1
1
1.47168
1.47102
1.43735
1.47011
0.652905
0.712186
1.47139
1.47088
1
0.6585
0.945067
1
1.22285
0.638381
1
0.999438
0.998254
0.662216
1
1.47182
1
1
1
1.47232
0.950461
1
1.4722
1.47132
1
1.47116
1
1
1.47168
1
0.674908
1
1.47132
1
1
0.65909
1
1.47317
1
0.636923
0.665617
1
1.47122
1
0.63725
0.885594
1
1.47166
1
1
1
1.47608
1
0.661137
1.06342
1.47081
1.47335
1.47154
1.04324
1.47352
1.47082
1
1.00002
1
1
1.00001
1.47138
1
0.999313
1.47106
1
0.63077
1
1.47207
1.21745
1.05881
1.21758
1.06293
1.47335
0.708364
1.47062
1
0.646859
0.997144
1.47049
0.940058
1.47001
1.47246
1.46925
1
1.47152
1.47161
1.47061
1
1.00003
1
1
1.47069
1.32746
1
1
0.647859
0.996447
1
1.47182
1
1.47075
1.47179
1.47372
0.899534
1.47157
1.47094
0.998343
1.22792
1.47039
1.47273
1
1.43401
0.822804
1.44872
0.987641
1.47219
1
1.47166
1.47264
1
0.65939
0.93626
0.692771
1
1.07554
0.996993
1.47017
1
1
0.996671
1
1.23061
1.44602
1
1
1.47281
1
1
1.3293
1.47339
1.4516
1.47329
1.4723
1
1.47115
0.729464
1.47145
1
0.987843
0.663812
1
1
0.760634
1
1.13953
1
1.47426
1
1.46267
1.29535
0.662169
1
1
1
1
1
1.47165
1.01111
1
1.4722
1
1.47171
1.47133
0.999999