/*--------------------------------*- C++ -*----------------------------------*\
  =========                 |
  \\      /  F ield         | OpenFOAM: The Open Source CFD Toolbox
   \\    /   O peration     | Website:  https://openfoam.org
    \\  /    A nd           | Version:  12
     \\/     M anipulation  |
\*---------------------------------------------------------------------------*/
FoamFile
{
    format      ascii;
    class       surfaceScalarField;
    location    "6.7";
    object      phi;
}
// * * * * * * * * * * * * * * * * * * * * * * * * * * * * * * * * * * * * * //

dimensions      [1 0 -1 0 0 0 0];

internalField   nonuniform List<scalar> 
69079
(
-0.000157232
9.0891e-05
6.63135e-05
0.000131239
-1.9358e-07
-0.000128964
-0.000137192
0.000138331
0.000133202
-1.37568e-06
-0.000134953
-1.34217e-06
-0.000135217
7.83719e-05
-0.000145697
6.72789e-05
2.72363e-06
0.000109285
-0.000126534
0.000129949
-0.000131957
1.67676e-07
0.000128569
4.6517e-07
-9.79234e-05
-5.93047e-05
-0.000124656
0.000127978
-8.76031e-06
-0.000127352
0.000123968
2.5489e-06
-0.000128882
-3.90911e-07
4.15621e-06
-0.000110281
0.000106548
0.00012848
2.39854e-07
0.000130417
4.41534e-07
-0.000128652
0.000129473
1.5043e-06
-0.000127287
-1.22344e-06
0.000133483
-0.000132921
-6.59462e-07
0.000130099
1.19243e-06
0.000129256
-0.000132442
2.59071e-06
-0.000135389
1.70449e-05
0.000118646
0.00014913
-9.77025e-05
-5.11296e-05
0.000122916
-1.58071e-05
-0.000108114
-0.000132977
-1.23454e-06
0.000132643
-1.87841e-07
4.59162e-07
9.52537e-08
0.000114103
-0.000127384
0.000122483
-0.000127736
5.32263e-06
0.000127652
-0.000138227
1.06309e-05
0.000147397
-2.19075e-05
0.000127573
8.80512e-07
-5.3169e-07
-0.000130143
2.52731e-05
0.000105095
0.00013183
-0.000132009
4.54835e-09
3.21736e-07
-6.46508e-06
0.000117705
-0.000113657
-1.66025e-05
-0.000118479
0.000102559
2.66317e-05
-0.000128671
-0.000141923
1.76661e-05
0.000130622
-0.000127787
-1.50054e-07
-6.36074e-06
-0.000108238
0.000143797
-2.3904e-05
0.000130262
1.16202e-06
-9.99506e-07
-7.2387e-05
0.000137227
-6.51171e-05
0.000122061
-0.000122547
1.54831e-07
0.000141233
-1.7997e-05
0.000122807
2.18454e-05
0.000147103
-2.12595e-05
0.00012206
-4.04962e-06
-0.000117902
-9.62304e-05
0.000115505
-2.03025e-05
-0.000132938
0.000133094
-1.0031e-06
-0.000134421
5.6608e-05
7.41387e-05
0.00012598
-0.000127881
-1.73097e-07
0.000141386
-1.81884e-05
0.00012083
1.43545e-07
-0.000122173
-8.55048e-05
-4.28495e-05
0.000120671
7.75996e-05
5.07975e-05
-0.000128281
0.000165697
-8.04638e-05
-7.96818e-05
-1.22873e-05
-0.000117714
4.90523e-05
-0.000122113
-0.0001052
0.000109732
0.000123003
9.85687e-07
-2.26303e-06
0.000153137
-0.000153029
-1.59881e-05
-0.000120533
-0.000106629
9.05267e-06
-5.06911e-05
0.000129362
0.000118547
2.23103e-05
0.000139827
-2.13488e-05
0.000155696
-1.86754e-05
-0.000114697
0.000130581
-0.000128696
-2.12094e-06
9.49615e-05
5.4256e-05
0.000116476
-0.000119538
3.33425e-06
-2.81125e-06
0.000119515
-0.000114883
1.103e-05
0.000105208
0.000122324
2.10243e-05
-1.80169e-06
0.000120518
-0.000142799
2.28156e-05
0.000103997
1.84671e-05
0.000134509
-1.40351e-05
-7.88531e-05
-4.89903e-05
0.000128027
-0.000120231
0.000121436
-1.07435e-06
0.000118366
-0.000134047
1.57068e-05
0.000119422
-9.85453e-07
-9.62714e-05
-4.71289e-05
-5.70822e-06
-0.000102039
0.000107409
-6.26054e-05
0.000130654
-6.79608e-05
0.000147855
-4.36516e-05
-0.000130128
9.68385e-06
0.000125931
2.16013e-05
6.63423e-05
5.45005e-05
-0.000120972
-2.42346e-06
-0.000119876
-1.06449e-05
1.85206e-06
-0.000101655
0.000101527
0.00012374
-3.55818e-06
6.82398e-05
6.12088e-05
-0.000129287
5.75406e-05
-0.000120135
-0.000120991
8.63245e-07
0.000132023
-0.000131931
0.000130845
-9.0439e-06
2.13389e-05
-0.000139383
0.000118135
4.32116e-05
-0.000122062
-0.000129287
-1.05959e-05
0.000116141
-0.000135781
1.93898e-05
0.000118504
-2.71467e-06
7.20219e-06
0.00010897
-0.000116199
-5.95369e-06
0.000103065
-9.56842e-05
0.000119567
2.16114e-05
-2.10746e-05
-9.69923e-05
0.000100151
1.40983e-05
-0.000117462
0.000104348
-0.000123666
3.71232e-05
-7.83859e-06
0.000116543
-0.000125953
4.55114e-05
-0.000132063
-0.000110307
-3.6436e-06
0.00011374
0.00011647
-0.000118197
2.79884e-06
-0.000115511
0.000104416
1.11365e-05
-3.90405e-06
-0.000132279
0.00011693
1.72706e-05
-5.46847e-06
0.00012144
-0.000136592
0.000136428
-0.000114718
3.56142e-06
-3.41814e-05
0.000111765
0.000145705
-8.92153e-05
-5.97032e-05
-0.000133616
5.31616e-05
7.99966e-05
0.000125317
-5.79609e-07
-0.000124692
0.000113382
-0.000132844
1.90877e-05
0.000117254
-3.8995e-06
0.000124456
-1.78333e-06
0.000112723
-0.000111246
0.000118234
7.10928e-06
7.65375e-05
-0.000121169
4.49892e-05
0.000115083
-0.000138979
2.37715e-05
0.000137614
-2.26177e-05
-1.52437e-06
0.000122238
-7.39826e-05
0.000141979
-6.68093e-05
-9.80921e-05
-2.13658e-05
0.000111485
-0.00013257
2.10488e-05
0.000115468
-4.63687e-06
0.000118648
-0.000126958
8.44308e-06
-0.000123797
2.56506e-05
-3.09266e-05
-0.000103878
0.000113725
-0.000137202
2.35104e-05
-2.03061e-05
-0.000116603
0.0001093
8.42828e-05
-9.06461e-05
-0.000104494
0.000111691
0.000138191
-0.000138495
0.000117818
3.635e-07
-2.12463e-05
0.000122269
-0.000129497
7.65426e-06
-0.000107201
2.81364e-06
6.96095e-05
7.55466e-05
-0.000129755
1.946e-05
0.000112313
0.000111895
-0.000136013
2.4129e-05
-0.000111549
0.000135333
-2.35136e-05
-0.00012372
-2.09042e-06
0.0001013
-4.77699e-05
-4.85462e-05
0.000125428
-1.82987e-05
0.000140728
0.000113574
2.40479e-05
-0.000111488
0.000109444
-2.35755e-05
0.000118683
-0.000119074
6.96968e-05
-0.000122161
5.18183e-05
0.000110178
-0.00013445
2.42622e-05
0.000134014
-2.372e-05
-1.98052e-05
-0.000112829
0.000116025
9.6944e-06
-0.000125951
-2.24049e-05
-0.000116364
1.41627e-05
-0.000103465
8.32411e-05
-0.00010418
0.000164411
-6.62146e-05
-0.000111861
3.58185e-06
0.000108047
1.00004e-05
0.000149021
-0.000126439
9.98859e-05
0.000116304
0.000125516
-3.45662e-06
0.000109379
-0.000133961
2.46383e-05
-2.63958e-05
1.07298e-06
-0.000113204
0.00011056
0.000112838
6.63913e-06
-2.31747e-05
5.34771e-05
9.66611e-05
0.000108097
3.65858e-07
-0.000108804
1.3005e-06
0.00010718
8.48277e-06
0.000121643
-4.77606e-05
-6.01764e-05
0.000107529
-0.000162314
0.000107207
6.58266e-05
7.5045e-05
-0.000123395
-8.71449e-07
0.000116858
-0.000115773
-0.000117189
0.000116324
9.71276e-05
-0.000101739
-0.000120721
0.000125794
-5.16297e-06
0.000102722
-0.000123329
2.07348e-05
0.000111406
-8.60144e-06
-9.00085e-06
-9.18201e-05
0.000101469
6.36834e-05
4.52147e-05
-0.000108869
0.000110218
2.49203e-05
-2.43667e-05
1.53411e-05
-0.000113743
9.81883e-05
-0.000103669
-6.27328e-06
0.000120476
3.65848e-06
0.000106992
-0.000132167
2.54903e-05
0.000132016
-2.45074e-05
7.52314e-05
-0.000120229
4.50409e-05
0.000112285
-9.75657e-05
0.000118527
-0.000122413
0.000112466
3.70467e-06
-7.29229e-07
0.000122558
4.36868e-05
-0.000146554
-0.000119435
-1.58519e-06
0.000123576
-4.22435e-06
-7.14051e-05
-4.40633e-05
0.000115495
0.000105943
-0.000131603
2.54183e-05
0.000132861
-1.70181e-05
-0.000135387
-2.75995e-05
8.99413e-05
-8.18035e-05
0.000109151
2.51814e-05
-2.46604e-05
-8.02491e-05
-5.25544e-05
0.000133211
0.000125421
-0.000124235
-1.3497e-06
-1.53373e-05
0.00012671
-0.000111243
0.000100362
-0.000120832
2.05356e-05
0.000109985
-9.66093e-06
0.000108042
-0.000107072
4.7247e-07
-2.75635e-06
-0.000112719
-0.000126934
1.90058e-05
0.000106348
-2.15036e-05
-0.000107097
-1.66972e-05
-0.000120408
-4.65371e-05
0.000112908
-0.00014937
7.95356e-05
6.96541e-05
-0.00011505
0.000105952
9.20481e-06
0.000107889
5.28843e-07
0.000114495
-0.000110088
-5.63814e-06
-0.000139909
0.000123001
-0.000121269
3.81028e-07
-0.000118461
0.000120742
-1.61046e-06
-7.31522e-05
-7.63185e-05
7.2469e-05
-0.000123963
5.1757e-05
-9.15914e-07
-0.00012775
2.14655e-06
-0.000126321
0.000119557
-6.58257e-07
-0.00012358
5.11646e-06
0.000104213
-0.0001304
2.65927e-05
-2.82743e-05
0.000110938
3.24007e-06
9.8521e-05
-0.000118798
2.02911e-05
-0.000127327
2.87793e-06
0.000108889
-1.05419e-05
0.00010924
9.18589e-06
-2.29322e-05
0.00013107
-0.000126788
-5.3172e-06
-2.37893e-06
0.000114878
-0.000114984
0.000131519
-0.000131782
-0.000156598
7.35178e-05
8.28576e-05
-7.16118e-05
0.000122908
-5.08806e-05
-0.000111981
-3.88888e-06
0.000114795
-0.000124724
-2.77185e-06
-7.96808e-05
-5.0215e-05
0.000128045
6.75057e-05
4.37426e-05
-0.000110666
7.87159e-05
-8.76223e-05
5.98609e-06
0.000113735
-0.000119515
0.000106066
2.60653e-05
0.000101038
-0.000127989
2.69833e-05
-2.55285e-05
-0.000134001
0.00011893
-0.000151125
0.000146255
9.10991e-05
3.52566e-05
0.000127119
-2.56741e-05
-2.04971e-05
-0.00011949
0.000101144
7.43683e-05
-0.00012279
4.69532e-05
-2.95159e-06
-0.000106951
0.000109767
-1.3889e-06
0.000122278
-0.000122001
9.587e-05
-0.000116687
2.06225e-05
0.00010744
-1.1808e-05
0.000130944
-0.000132073
-0.000101741
0.000108222
-7.70404e-05
-6.90574e-05
-7.96915e-05
0.000116377
-4.53429e-05
-0.000121423
2.64909e-06
0.000122343
-0.000126718
4.24056e-06
-6.39803e-05
0.000127736
0.000122642
1.05445e-06
0.000123205
6.60457e-07
-0.000150099
7.42358e-05
7.58373e-05
3.38349e-05
0.000103481
0.000124191
1.68493e-07
7.43183e-05
-0.000107365
3.40494e-05
0.000122009
4.76847e-06
0.00011166
-3.69547e-05
3.31649e-05
0.000100428
-0.000127016
2.66243e-05
0.000119485
0.000126531
-2.61609e-05
0.000130861
-2.19007e-05
-0.000111244
-0.000107194
-1.36907e-06
0.000108539
-0.000146159
8.46708e-05
6.15255e-05
0.000106948
1.05533e-05
-2.27481e-05
-4.22223e-05
0.000117407
0.000130617
-0.000131492
-0.000105474
0.000105397
0.000110196
-0.000108667
-9.89573e-05
0.000157309
-6.9881e-05
2.16469e-06
-0.000116872
9.90168e-05
-0.000125854
2.69206e-05
-0.000117736
0.000120058
-2.49399e-06
0.000125559
-2.64844e-05
-0.000127272
0.000130744
0.000121226
3.40958e-06
3.36014e-06
-0.000115792
0.000112221
-0.000100788
9.80479e-05
-0.000101088
-8.76922e-06
0.000110262
-0.000122425
4.69827e-06
-0.000105716
-4.02213e-05
0.00010015
-0.00011697
0.000131041
-1.35556e-05
0.000121937
-4.63654e-07
-0.00012082
-1.82639e-06
0.000127199
-0.000127247
9.70287e-05
-0.000124743
2.71543e-05
0.000123459
-2.66829e-05
9.13818e-05
-0.000111424
2.00011e-05
0.000104375
-1.30024e-05
-7.26888e-05
-7.33071e-05
-0.000121647
4.87071e-05
-0.000119382
-1.86411e-06
7.61846e-05
8.61968e-05
0.000121046
5.39917e-06
0.000105483
9.35966e-06
-2.26098e-05
-0.000117072
0.000107772
9.11945e-06
0.000134603
-0.000130592
-9.59234e-05
0.000107407
0.00010597
-0.000114128
7.5129e-06
0.00011086
-4.61519e-06
-0.000106647
9.60722e-05
-0.000122943
2.74177e-05
0.000123419
-2.69699e-05
-1.72629e-06
-0.000113238
-0.000123295
0.00012867
-4.96506e-06
1.10443e-06
-0.000113196
0.000135073
-2.16928e-05
-5.21959e-05
0.000120685
6.89942e-07
-0.000135988
2.59306e-05
-0.000109291
-1.24156e-05
0.000113228
-4.82425e-06
-0.000108325
0.000100158
2.73404e-05
0.000117858
-4.82039e-05
-2.67931e-05
-0.000119338
0.000108454
1.11653e-05
5.61073e-06
-0.000114784
-0.000163574
9.5689e-05
6.78436e-05
-0.000112435
3.35644e-06
0.000108924
-7.37767e-05
-8.99094e-05
4.39687e-06
0.000107306
-0.000111249
-0.000112609
4.75599e-06
0.000107801
-7.33196e-06
-0.000105534
-0.000117177
0.000109768
9.48317e-05
-0.000122887
2.78452e-05
-0.000113744
2.46813e-06
0.000111183
0.000115755
-4.33519e-06
-0.000111516
-3.39993e-06
0.00011517
-0.000111736
0.00011232
0.000121942
-2.74167e-05
0.000114885
-4.41873e-06
-0.000110623
0.000121764
-7.44379e-07
-0.000124554
-1.34953e-05
-0.000120273
-4.62127e-06
0.000113847
-0.000109216
6.42273e-05
4.12167e-05
-0.000104396
-0.000118971
4.79409e-05
-5.7102e-05
-6.63088e-05
-0.000132178
3.0892e-05
9.87073e-05
2.7773e-05
4.90649e-06
-0.000113146
-2.71132e-05
5.39691e-06
0.000105274
-9.70379e-05
1.91958e-06
9.53326e-05
9.31789e-05
-0.000121248
2.80593e-05
-5.51658e-06
0.000122992
0.000114981
-4.94043e-06
-0.000111134
-0.000120418
-6.10452e-06
0.000120669
-2.75812e-05
-7.75399e-05
0.000116822
-5.77066e-05
0.000123578
-1.09035e-05
-0.000113237
0.000122979
-2.46383e-05
-0.000121395
0.000120564
2.84469e-06
0.00011981
-0.000119473
-0.000126883
7.47812e-06
0.000119717
-3.50928e-06
0.000116378
-0.000110838
-6.66867e-05
0.000121061
8.72388e-05
-0.00010715
1.97893e-05
-1.52776e-05
0.000102419
1.04393e-05
0.000123377
7.23091e-07
0.000110568
-0.000111111
-1.14721e-05
0.000104873
-9.34474e-05
0.00012686
-7.72655e-05
-4.77869e-05
1.60901e-06
-0.00010436
0.000102816
2.75629e-06
-0.000122223
0.000124081
-0.000123791
-0.000111805
0.000112617
-1.80842e-06
0.000114241
-0.000117362
3.50279e-06
-0.000102771
0.000102
-2.07893e-07
0.000113455
-0.000112689
-2.42328e-06
-0.000112039
0.000114403
6.61502e-05
8.47406e-05
-0.00013469
-1.5195e-06
0.000122877
-0.000124269
-1.28211e-06
0.000125814
-0.000125969
2.84958e-08
0.000111282
-0.000113827
0.000104334
2.64703e-05
9.16349e-05
-0.000119894
2.82903e-05
-5.16683e-05
-5.85509e-05
0.00010986
9.75767e-05
2.8012e-05
-0.000137149
8.50916e-05
0.000112157
-3.93788e-05
-3.1597e-05
-2.74296e-05
-0.000146672
8.3891e-05
6.25201e-05
-9.12747e-05
0.000166225
-8.40044e-05
6.53227e-05
6.30721e-05
-0.000128293
-7.4019e-05
0.000122828
-0.000121948
0.00011476
7.53337e-06
-0.000121362
-2.97036e-07
-0.000114724
-8.38235e-07
0.000111733
4.05207e-06
0.000122925
-0.00010618
-3.19968e-06
0.000110132
-0.000104743
9.32761e-05
7.33327e-05
-9.45358e-05
0.000109254
-0.000117638
-3.71834e-06
0.000112329
-0.000108443
4.71405e-05
-0.000138253
-7.70328e-05
-6.98144e-05
2.53118e-06
0.000112834
-0.000117211
-0.000121816
-6.39411e-06
-0.00014371
8.31321e-05
-2.61843e-06
-0.00012356
0.000121431
-0.000125385
-0.000100412
0.000121349
-0.000120745
0.000118206
-8.49939e-07
0.000115825
-0.000112634
-4.57454e-05
-0.000103206
8.56456e-05
-0.000146158
-1.2658e-05
0.000102756
-0.000110838
-1.54546e-06
0.000112394
3.03393e-06
8.03214e-05
-8.36791e-05
4.27994e-08
-0.000111756
0.000112031
9.52891e-05
2.82067e-05
0.000118969
1.54912e-06
-0.000120191
0.000111543
-9.22757e-07
-0.000110725
-1.86925e-06
0.000116743
0.000113679
-0.000119499
-2.74758e-05
-0.000111618
-2.18076e-06
-2.74373e-06
0.000109896
-0.000122367
0.000125739
-0.000112257
0.000111624
5.54653e-07
-2.50277e-07
0.000111157
0.000111153
4.02676e-06
-0.000111312
-1.2279e-06
-7.49887e-05
-5.58e-05
0.000110073
-0.000134744
3.35691e-05
8.22111e-05
-8.09409e-05
-3.33947e-06
8.87887e-05
-0.0001197
3.07291e-05
0.000121785
-0.0001161
-4.58771e-06
-2.02801e-06
0.000120907
0.00011737
-2.8688e-05
4.62994e-05
-0.000126068
8.83455e-05
-0.000104014
1.56817e-05
-1.68145e-05
0.000105059
-0.000118419
0.00010691
1.21528e-05
0.000104861
-9.85035e-06
-0.000114658
0.000121927
-6.07739e-05
-4.09609e-05
9.40141e-05
-0.000115152
0.000120147
-3.74632e-06
-0.000116337
-7.26653e-05
-7.71533e-05
-0.000108825
1.27922e-06
0.000104235
-0.000118619
0.000115508
3.3575e-06
0.000109815
-0.00011128
6.99863e-07
-0.000125976
0.000125546
3.0138e-06
0.000115509
-0.000116346
0.00013906
-5.33994e-05
-8.52889e-05
5.39329e-06
0.000107893
9.47884e-05
2.8731e-05
-0.000115883
3.52308e-06
0.000113611
-0.000117403
4.91277e-06
-2.80797e-05
8.79098e-05
-0.000116884
2.9005e-05
-3.28841e-05
8.71439e-05
-0.000102552
1.5486e-05
-0.000111515
0.000107311
-0.000108118
-4.59097e-06
-1.74958e-05
0.000104657
5.00584e-06
4.66807e-05
7.99262e-05
0.0001145
-0.00011274
0.000113088
-8.67889e-07
-0.00012027
4.79811e-05
0.000111106
2.44556e-07
-0.000110923
-0.000113981
0.000157489
0.000104261
-8.67577e-05
8.58928e-07
-0.000107942
2.79646e-06
-0.000116602
0.000113287
-3.54277e-06
0.000123277
6.46087e-05
6.35461e-05
-0.000127956
9.03527e-05
8.03418e-05
-0.000171116
-9.37694e-05
-1.57795e-06
9.53785e-05
-1.30045e-06
-0.000115167
0.000115072
8.02486e-06
0.000122652
-0.000124156
0.000113245
-0.000116096
0.000114598
-0.000115573
1.09119e-06
-1.83255e-06
0.000113375
4.79228e-07
0.000113846
-0.00011382
0.0001127
-0.000115709
-0.000115062
-8.09388e-05
0.000132478
-6.86717e-05
-9.07514e-05
0.000146708
-6.77293e-05
-0.000127249
3.07791e-05
0.000121288
-0.00011943
-3.03783e-07
-0.000114229
0.000114414
-1.23755e-05
0.000125372
-0.000113536
0.000128982
-8.38452e-05
9.29989e-05
2.8873e-05
-0.000115502
1.27631e-05
0.000105943
8.02166e-05
-0.000135223
5.50094e-05
0.000120332
5.9975e-06
-0.000123684
-0.000141664
8.21901e-05
5.94211e-05
-2.82401e-05
0.000109972
-0.000106219
-0.000113335
-1.06428e-06
-0.000111284
0.00011187
-8.30851e-07
4.3581e-08
-0.000111405
-9.98822e-05
0.00010299
1.12564e-05
-0.000118132
0.000115898
2.53244e-06
-0.00011337
-4.61708e-06
8.62138e-05
-0.000117205
3.10354e-05
-0.00011662
-1.1629e-07
0.000115291
-2.89995e-05
-0.000137051
9.14564e-05
-0.000120466
0.000113988
6.35059e-06
-0.00011832
-2.12854e-06
-0.000116885
0.000114402
2.55828e-06
-0.000114304
-2.49901e-06
-0.000120112
-0.000113277
0.000113686
-6.08518e-07
-0.00011078
8.80816e-06
0.000101833
0.000113117
-0.000107323
-0.000107008
2.58473e-07
-0.00011825
4.27355e-06
0.000112435
-0.000112549
-2.80969e-06
0.000114833
9.01e-05
-1.64552e-06
0.000110267
-0.000108164
-0.000111989
-1.83852e-06
0.000113042
-0.000118356
3.40072e-06
0.000114619
-6.73238e-05
-8.92936e-05
3.95729e-06
0.000129182
-5.65091e-05
0.000116506
4.53639e-06
0.000108977
3.04321e-06
-0.000111993
7.23146e-07
0.000112865
-0.000114601
-0.000112889
0.000117663
-4.98322e-05
0.000116406
-4.77578e-06
-0.000111406
-0.000115527
3.09713e-06
0.000112179
9.13796e-05
2.91808e-05
-0.000113419
2.19206e-06
0.00011102
0.000107988
3.25294e-06
-0.000111773
-2.85314e-05
0.000118218
-1.94703e-06
-0.000112979
7.5765e-07
0.000112215
6.44038e-06
3.15864e-07
-0.000113664
-0.000111569
0.000111515
3.09123e-07
-0.000112874
-9.30094e-05
0.000109397
0.000113328
-2.27249e-06
-0.000111169
8.55692e-05
-0.000115182
2.96683e-05
-3.31937e-05
0.000124327
-0.000123631
-0.000142106
0.000134356
2.8864e-06
-0.000113007
3.49518e-06
0.000109705
-6.80164e-05
-7.63943e-05
-0.000112771
0.000116745
0.000111991
-0.000111167
-3.7801e-07
-0.000112048
4.3278e-06
-0.000159541
6.05553e-05
-0.000112296
3.85638e-07
-0.000109378
0.00010779
-1.14489e-06
0.000108705
-0.000107396
-0.00011645
3.87394e-06
0.000112654
0.000127169
-0.000140875
0.000119234
-0.000113742
0.000109848
-0.000114565
-0.000130179
0.000140241
-3.92263e-07
0.00011608
-5.80536e-07
-0.000118533
0.000111341
-0.000115976
0.000110872
0.000121948
-0.000122096
-0.000118353
0.000116247
2.28519e-06
-0.00011414
-4.13796e-06
-0.00012089
0.00011635
4.42939e-06
-0.000117015
-3.93432e-06
-0.000120983
0.000116547
4.48775e-06
-0.000116996
-3.84257e-06
-0.00012091
0.000116474
4.38781e-06
-0.00011713
-3.88868e-06
0.000157284
-0.000101261
5.26779e-08
-0.000109688
0.000108666
-0.000121284
0.000116907
4.4056e-06
-0.000140618
7.02184e-05
5.47658e-05
-0.000117334
-3.79046e-06
-0.000121145
0.000116812
4.20656e-06
0.000113723
0.000123786
-0.000108906
-1.48696e-05
9.03157e-05
1.33231e-05
-0.000103847
-0.000117533
-3.7585e-06
0.000114317
-0.000121298
0.000117164
4.15435e-06
0.000121056
4.83129e-06
-0.000117625
-3.5606e-06
-0.000133131
3.52726e-05
-0.000114722
2.29495e-06
0.000110135
-0.000120903
0.00011694
4.02522e-06
-6.77806e-05
-5.25813e-05
0.000119965
-0.000117553
-3.45358e-06
0.000101097
-0.000102736
2.74551e-06
3.19665e-06
-0.000109155
0.000106258
-0.000121798
0.000117876
3.93122e-06
-0.000116974
-4.39358e-06
-0.000118294
-3.32984e-06
-6.7631e-07
-0.000116567
-8.75045e-05
-8.57744e-06
5.35179e-05
-0.000121755
-0.000115352
-5.37338e-06
0.000101349
-1.11485e-05
-0.000112166
0.000117604
-5.13823e-06
-0.000113177
2.16176e-06
-0.000120798
0.000117046
3.73922e-06
-0.000117847
-3.22856e-06
-4.32215e-06
0.000111697
-0.000107565
1.83536e-06
0.000110344
-0.000114919
-0.000121039
0.000117445
3.58232e-06
-0.00011844
-2.42708e-06
0.000114855
-0.000119873
2.49022e-06
-2.58873e-06
0.000129304
-0.000128367
-0.000121128
0.000118379
3.27812e-06
8.57353e-05
-0.000116208
3.05215e-05
-0.000117893
-2.82116e-06
2.10502e-06
-0.00010788
0.000105765
9.76122e-05
1.38406e-05
-0.000121264
0.000117453
3.30494e-06
0.000117118
-8.21123e-06
-0.000108686
-0.000119048
-2.65401e-06
0.000114206
-2.83725e-05
-2.21429e-05
1.79107e-06
-0.000107919
0.000106361
0.000112271
-0.000116309
3.78471e-06
-8.32094e-07
0.000112441
-0.00012114
0.000118636
2.88302e-06
-0.000118221
-2.45696e-06
-0.000107296
9.19752e-05
1.44047e-05
3.01849e-06
-0.000108736
0.000105696
3.94217e-06
-0.000111191
0.000107102
-0.000120204
0.000116937
2.94399e-06
2.72649e-06
-0.000114192
0.0001146
-0.000118999
-1.72749e-06
-7.21252e-06
0.000117384
-0.000114418
-2.91941e-06
-0.000121016
0.000117918
2.44228e-06
-0.000119717
-1.34187e-06
-0.000113894
0.000113286
9.3145e-07
-0.000113907
0.000114692
-6.65947e-07
-2.04711e-06
6.27903e-05
-0.000125315
-1.76604e-06
-0.000112022
-0.000112718
0.000112099
0.000119807
-0.000123427
2.58652e-06
-6.33035e-05
-6.40412e-05
0.000115856
-0.00012121
0.000119379
2.06785e-06
5.93572e-07
0.0001116
-0.00011205
-0.000119026
-1.5902e-06
-3.21599e-07
-0.000111152
0.000111888
-4.17535e-06
0.000110887
-0.00010669
5.56813e-07
-0.000113208
-0.000113256
0.000113804
-0.000119906
0.00011758
2.08389e-06
-0.000119094
-1.49238e-06
-0.000117563
-1.19895e-06
0.000118893
-0.000112429
-4.91582e-07
0.000113325
-0.000120546
0.000119035
1.70767e-06
-0.000111509
-0.000119327
-6.20569e-07
-0.00011667
0.000118311
-1.56493e-06
-1.35319e-06
-0.000118358
-0.00011944
0.000119077
1.4422e-06
-0.000118219
-9.0706e-07
-0.000115351
1.74361e-06
-3.98068e-06
-0.000120616
0.000117999
1.17812e-06
-0.000120508
-5.92304e-07
-4.98607e-05
-6.91878e-05
-5.20109e-07
0.00011377
-0.000112485
-0.000113371
0.000113844
0.000110446
-0.000111017
-0.000118669
0.000120015
9.83476e-07
-0.000109259
-1.52719e-06
0.000110966
-0.000117444
-3.68034e-07
1.17892e-06
0.0001021
-0.000107609
-0.00011554
0.000140636
-0.00011673
2.41276e-07
0.000120904
-8.5571e-06
-0.000121318
0.000117204
6.90483e-07
-0.000122348
-2.70109e-07
0.000114528
7.45257e-07
-0.00011632
0.000119977
3.48869e-07
-0.000115309
2.9839e-07
4.34876e-07
-0.000120616
0.000111229
-0.000118504
0.000117857
7.65815e-07
-7.2479e-05
-4.11917e-05
0.00011292
-7.39059e-06
8.38405e-05
-0.000114045
3.03099e-05
4.66766e-06
-0.000116637
0.000105607
-2.22058e-06
-0.000103218
-3.28008e-05
-0.000115919
6.81841e-06
0.000108601
-6.60564e-06
-0.000128304
-6.72171e-05
-6.36689e-05
0.000130918
-0.00011827
0.00011608
2.10301e-06
-0.000116494
-2.12098e-06
-3.86044e-06
8.7264e-05
3.01236e-05
0.000111985
-0.000111368
-0.000119073
0.000116914
2.06793e-06
0.000112299
9.86862e-05
-3.83953e-06
-9.47397e-05
-3.01351e-06
-2.95781e-05
0.000101394
-1.63404e-06
0.000120115
-2.06491e-06
1.93988e-06
-1.79053e-06
0.000111856
-5.49049e-06
-0.000107719
0.000115663
-1.05306e-06
-1.4563e-06
0.000122831
7.21768e-05
8.56706e-05
-0.000133164
7.80629e-05
5.51016e-05
-8.27682e-05
-4.46484e-05
-1.39639e-05
0.000114745
-3.0174e-07
-0.000112962
-0.00011363
-0.000142932
6.90098e-05
-0.000110694
0.000110471
0.000113792
-0.000113281
-7.04289e-07
-0.000113621
4.77419e-07
0.000112445
0.000136452
-6.10199e-05
-0.000113657
1.29942e-06
0.000111638
7.22621e-06
-0.000117251
0.000110412
-0.000114371
1.73059e-06
-0.000143557
5.53408e-05
0.000122376
-9.46658e-05
-1.76872e-06
0.000110806
-0.000109353
-3.27247e-06
-0.000110391
0.000113484
7.15585e-05
-0.000118533
4.92209e-05
0.000107691
-0.00011229
0.000112804
-9.56254e-05
-0.000156885
9.26321e-05
6.397e-05
-0.000113858
9.78233e-07
0.000111928
-1.29561e-06
-0.000112334
-0.000144523
6.19791e-05
9.81564e-05
6.16639e-06
-0.000104174
0.000107589
-9.10562e-06
-5.22761e-06
2.17803e-06
-0.000122969
7.68019e-06
1.40579e-07
-0.000113871
0.000110913
-0.000110174
-1.49153e-06
0.000110079
-0.000109275
3.52781e-05
-0.000112293
0.000112154
-1.18366e-06
-0.00011468
0.000116461
-1.94247e-06
0.000120221
-0.000122032
-0.000114908
-5.97818e-07
-1.04981e-06
-0.00011328
-6.78883e-05
0.000103782
-3.6206e-05
-1.54989e-06
-0.000119709
0.000117835
9.48418e-05
1.16896e-05
-0.000106601
0.000117493
-0.000112245
8.13509e-05
-0.000112961
3.17259e-05
0.000104919
-9.96966e-06
-1.342e-06
-0.000114352
0.000105931
-0.000112177
0.000108123
-0.000111447
0.000110851
-2.93794e-05
-4.69373e-06
-9.93318e-05
0.000120703
-0.000112872
0.00010933
-6.49481e-05
0.000124964
-5.94782e-05
-0.000120076
0.000118096
1.52025e-06
-2.90398e-06
0.000108004
-0.00010904
-7.03091e-05
-7.13051e-05
0.000119889
-0.000104981
-4.91003e-06
0.000131352
0.000117135
-8.31083e-05
-7.76772e-05
0.000123618
-6.44081e-05
0.000110148
-0.000118339
2.77106e-06
0.000110181
-5.84991e-06
-0.00010292
3.54185e-05
-1.36918e-06
0.0001035
7.69602e-07
0.000123864
-0.000127761
6.35385e-06
0.00011794
-0.000124117
-0.000119069
0.000118862
7.73525e-07
-2.12201e-06
-0.000116046
1.85999e-06
-3.08268e-06
0.000107598
-0.000104438
-0.000115413
9.53012e-05
1.45577e-05
-0.000119033
0.000118226
5.16135e-07
-0.000138922
3.39103e-05
0.000107901
-0.000110862
-1.79946e-06
-2.19602e-05
0.000117008
-2.92587e-06
-2.27579e-06
-0.000109323
0.000117256
0.000114508
-4.99237e-05
-0.000119335
2.26392e-06
-0.00011144
0.000109292
0.000107848
-2.4355e-06
0.000109551
6.23521e-06
-0.00011387
0.00010702
-0.000119735
0.000119263
-4.39805e-07
-0.000107123
7.59091e-07
0.000108197
-8.90231e-07
0.000128057
-8.31671e-05
-0.00011038
-4.66822e-06
0.000112251
-0.000112012
0.00011238
-2.68825e-06
0.000115327
-2.14426e-06
7.89659e-05
-0.000109487
3.0504e-05
6.30563e-06
0.000106124
-0.00011275
-0.000113864
0.000113479
0.000123416
-0.000124218
0.000109388
-3.05246e-05
4.84184e-06
-0.000112858
0.000110276
-6.01598e-06
0.000113779
-0.000107227
7.66197e-06
0.000107231
-0.000115302
-0.000108807
0.000116158
0.000139982
-0.00011183
-2.96982e-05
4.67917e-06
-0.000108096
0.00010313
-0.000109467
9.5244e-05
-4.12491e-07
0.0001076
-0.000103146
4.97989e-05
8.99685e-05
0.000113264
-2.41517e-06
5.64161e-06
-0.000117245
0.000110317
6.18693e-06
-0.000114358
0.000109116
8.18372e-06
0.000103
-0.000110921
1.32558e-06
0.000110734
-0.000109932
-0.000122186
0.00010643
-0.000106239
0.000119258
-2.45961e-06
1.6122e-06
0.000109697
-0.000111266
0.000117253
-0.000105275
0.000110485
-0.000118697
5.95705e-06
4.73224e-06
0.000114442
-6.19701e-07
-6.11198e-07
-0.000111895
0.000110419
-0.000110377
-2.48676e-06
0.000129023
-0.000124424
-0.000111399
0.000106672
8.53829e-05
3.00859e-05
-0.000114313
0.000113331
1.01881e-06
0.000112817
-0.000118476
8.74309e-07
0.000113081
-1.5654e-06
-2.96779e-05
0.000110606
1.92616e-06
0.000121163
-0.000117216
1.415e-06
-0.000113577
0.000112574
-2.04599e-06
0.000125302
-1.47181e-06
9.63313e-06
0.000104788
-0.000114761
-9.48853e-05
0.000104379
1.11977e-05
-0.000106224
-0.000108024
0.000103078
-0.000120787
1.42879e-06
-5.88215e-06
9.14759e-05
-0.0001046
1.29697e-05
-3.03574e-07
0.000113946
0.000107485
-0.000107932
0.000115063
9.51057e-05
-4.02128e-06
-0.000113425
-8.041e-05
0.000102441
-2.19577e-05
0.000121005
-8.37254e-06
0.00010942
-0.000100943
7.75621e-05
-0.00010804
3.05121e-05
0.000108248
-3.06354e-05
0.000108683
-0.00010871
0.000120606
-6.532e-06
-7.23067e-08
-0.000108287
0.000115498
-5.30133e-06
-0.00011479
0.000105139
-0.000113112
5.56778e-06
-0.00011269
-0.000115651
1.31976e-06
-1.81784e-06
0.000115743
-0.000108867
0.000103126
3.81397e-06
0.000103923
-0.000107373
0.000107091
4.64121e-07
-0.000113389
-0.000124112
-7.1722e-06
-3.63375e-06
-0.000103814
-0.000115408
4.3385e-06
8.5682e-07
0.000105989
-0.000106268
-0.000115614
-1.1928e-06
0.000124301
-0.000124233
1.03841e-06
-7.15436e-05
-8.56628e-05
-0.000115072
1.63579e-06
-0.000121375
-3.47603e-06
-5.66227e-05
-7.65551e-05
6.11009e-06
-0.00012596
-0.000108333
-0.000118515
-2.10215e-06
0.000121725
-0.000104901
8.35675e-07
-0.00010241
-6.78735e-07
8.90368e-05
0.000102593
1.67512e-06
-0.000135071
-0.00012004
0.000124059
-0.000127682
0.000131946
-1.18794e-06
1.31579e-05
-9.35583e-05
-9.64891e-05
6.91162e-06
-0.00011763
-2.48951e-07
-0.000117667
-1.05503e-07
-0.000117308
-1.67343e-07
-0.000118072
-2.43064e-07
-4.14197e-07
-0.000120939
4.87309e-06
-0.000151779
6.89099e-05
-5.65939e-07
-0.000117599
-2.62957e-08
-4.18279e-07
0.000115784
-5.15777e-07
0.00011501
-0.00011704
2.298e-06
-0.0001175
-5.36065e-07
-7.00596e-07
-0.000141573
7.88426e-05
6.23167e-05
-0.000117052
-1.01101e-07
-2.14953e-07
-5.53673e-07
-0.000112692
0.000114093
-1.46122e-06
-0.00011715
-6.08257e-07
0.000113116
-0.000122005
8.48301e-06
-0.000117186
-4.07918e-08
-6.58417e-07
7.62406e-07
-0.000116736
-1.93129e-07
0.000116847
-0.000115665
-1.62814e-06
-0.000118295
-8.88929e-07
-4.92841e-07
-4.63836e-06
-0.000116926
-1.32598e-07
2.88902e-07
-0.000115132
-1.06506e-06
-0.000117031
-9.11734e-07
-5.77303e-07
-0.000126103
6.14138e-05
0.000106265
-0.000110751
7.48916e-05
-0.000106853
3.19814e-05
2.6645e-07
8.07086e-07
0.000117768
-9.27914e-07
-0.000112758
1.07893e-06
-0.00011806
-1.30758e-06
0.000110318
-0.00011104
2.37035e-06
-0.000111447
1.8087e-06
-2.39132e-06
6.34848e-07
-3.64996e-05
2.6431e-06
8.86267e-05
-0.00010393
-0.000117806
-1.64045e-06
1.12552e-06
-0.000112357
-6.96343e-07
0.000113945
1.62596e-06
-0.000116562
-1.64171e-06
1.78465e-06
0.000137381
-0.000117806
-2.10998e-06
1.45001e-06
-0.000116315
-2.06632e-06
9.24689e-07
-0.000111288
9.99134e-06
-0.000107484
1.458e-06
5.26626e-06
-0.000110767
0.000105203
-0.000115976
-2.42894e-06
0.000124454
-7.02566e-07
-0.000105558
0.000110558
-0.000113488
-1.17935e-06
2.59042e-06
-2.02319e-06
-0.000110241
0.000109043
-9.78476e-05
-6.06022e-07
9.72169e-05
-0.000117473
-2.91477e-06
2.21893e-06
-0.000114695
-2.89382e-06
9.43313e-05
1.43447e-05
2.36248e-06
-8.40547e-05
-1.85934e-06
0.000100977
-0.000118749
-3.37253e-06
0.00011004
0.000111326
6.45454e-07
-2.19309e-05
2.6786e-06
-1.10693e-06
-0.000120393
-0.000113752
0.000116781
-3.66618e-06
-0.00011224
-3.40216e-06
-0.000120692
0.000124431
-2.60922e-06
-0.000119046
2.33265e-06
1.54692e-05
-0.000106073
9.06256e-05
2.8284e-06
-0.000119649
-3.06197e-06
3.31855e-06
-5.52595e-05
-7.54669e-05
0.000130721
-1.55228e-06
-9.87689e-05
8.88047e-05
9.3518e-05
-0.00011034
1.36175e-06
-0.000114715
-1.40088e-07
8.29275e-05
-9.53944e-05
-4.61432e-06
0.00011126
-0.000106759
-1.69741e-06
-0.00012261
-1.38026e-06
8.71725e-05
1.12423e-06
0.000115517
-9.80764e-05
-6.94312e-05
0.000134047
-0.000106672
-9.3098e-05
9.57015e-05
-2.37463e-06
5.24741e-06
0.000108858
2.35112e-06
0.000111295
-0.000114176
1.89506e-06
0.000110135
-0.000112154
0.000118352