/*--------------------------------*- C++ -*----------------------------------*\
  =========                 |
  \\      /  F ield         | OpenFOAM: The Open Source CFD Toolbox
   \\    /   O peration     | Website:  https://openfoam.org
    \\  /    A nd           | Version:  12
     \\/     M anipulation  |
\*---------------------------------------------------------------------------*/
FoamFile
{
    format      ascii;
    class       volVectorField;
    location    "6.7";
    object      U;
}
// * * * * * * * * * * * * * * * * * * * * * * * * * * * * * * * * * * * * * //

dimensions      [0 1 -1 0 0 0 0];

internalField   nonuniform List<vector> 
46253
(
(0.96135 -0.000459288 0)
(0.89637 0.00024727 0)
(0.806141 0.00137677 0)
(0.900336 -0.000690956 0)
(0.804607 0.00299019 0)
(0.809506 0.00170202 0)
(0.990466 -0.00216278 0)
(1.01524 -0.0102048 0)
(0.891847 -0.000973681 0)
(0.886731 0.00145421 0)
(0.961177 -0.000529032 0)
(1.14471 -0.0621794 0)
(0.900948 0.00105503 0)
(0.906482 -0.000668444 0)
(1.08209 0.0274189 0)
(0.887962 0.00281441 0)
(0.890585 0.00531225 0)
(0.89882 0.00536451 0)
(0.895766 0.00253897 0)
(0.910979 -0.00333681 0)
(0.905647 -0.00421832 0)
(0.806301 0.0038457 0)
(1.43854 0.0115951 0)
(0.970387 -0.000192391 0)
(0.989626 -0.00157604 0)
(0.898325 -0.00353781 0)
(0.903017 -0.000223309 0)
(0.907228 -0.000652378 0)
(0.90376 -0.00319489 0)
(1.01794 -0.00740923 0)
(0.952913 0.0432639 0)
(0.929444 0.00112128 0)
(0.930294 0.000480241 0)
(0.899386 -0.00109573 0)
(0.894738 0.000881398 0)
(0.821961 -0.0112957 0)
(0.920019 -0.0038885 0)
(0.914393 -0.00426954 0)
(0.993439 -0.0021455 0)
(1.11815 -0.0142446 0)
(0.998292 0.00134468 0)
(1.14956 -0.0667872 0)
(0.918156 0.000980139 0)
(0.925687 0.000367059 0)
(1.15514 -0.0894666 0)
(0.911307 -0.000535156 0)
(0.91578 -0.000602077 0)
(1.3249 0.00835055 0)
(0.908261 0.00272474 0)
(0.908182 0.00312211 0)
(0.918757 -0.000668031 0)
(0.929894 -0.000649535 0)
(0.817335 0.00337278 0)
(0.941271 -0.00324527 0)
(0.778083 0.0124285 0)
(1.09073 -0.0419663 0)
(0.935619 -0.00284938 0)
(0.92713 -0.00161988 0)
(0.877865 0.0636731 0)
(1.02726 0.0257075 0)
(0.808183 0.0110024 0)
(1.06865 0.00861591 0)
(0.841891 -0.0198484 0)
(1.17106 0.0150867 0)
(1.08306 -0.0408724 0)
(0.901313 0.00353894 0)
(0.904021 0.00577731 0)
(0.827174 0.000873129 0)
(1.10041 -0.0360522 0)
(1.11565 -0.0948113 0)
(0.992761 -0.00179949 0)
(0.92228 0.00084343 0)
(0.922635 0.000588853 0)
(1.02307 0.00768991 0)
(0.820758 0.00268965 0)
(0.972195 -2.80792e-05 0)
(0.942708 2.20353e-05 0)
(0.944772 -0.000109511 0)
(1.40444 -0.0615216 0)
(0.920375 0.000490953 0)
(0.908824 0.000866763 0)
(0.938446 0.000153747 0)
(0.813153 0.00316612 0)
(0.94053 -2.40617e-06 0)
(0.999584 -0.00179346 0)
(0.822961 0.00241511 0)
(0.957523 -8.57894e-05 0)
(0.958839 -0.000120352 0)
(1.08544 0.00045197 0)
(0.826391 -0.00478438 0)
(1.33392 -0.0542575 0)
(1.00348 0.00244051 0)
(0.831039 0.00256263 0)
(0.938288 -0.00257693 0)
(1.16509 -0.0286349 0)
(0.937752 -0.00222986 0)
(0.827182 0.00241501 0)
(1.38228 -0.0220535 0)
(0.87493 0.0640923 0)
(0.821511 0.00615695 0)
(1.18688 -0.051719 0)
(0.836878 0.00153765 0)
(0.841265 0.000445922 0)
(0.955516 0.0427364 0)
(0.793038 0.00622281 0)
(0.997535 -0.00120429 0)
(1.14388 -0.0693975 0)
(0.975503 -0.000346017 0)
(0.975336 -0.000253401 0)
(1.11138 -0.0597151 0)
(0.946753 -0.00168851 0)
(0.926581 0.000939184 0)
(0.931855 0.000515469 0)
(1.39435 0.0342259 0)
(1.34448 -0.0323665 0)
(1.064 0.0126293 0)
(1.18558 -0.0902667 0)
(1.03825 0.0309644 0)
(0.776591 0.0642984 0)
(1.05823 -0.0320973 0)
(1.35273 0.0689383 0)
(0.81358 0.00261365 0)
(0.942201 -0.000675144 0)
(0.939717 -0.000788333 0)
(0.850496 0.00126988 0)
(0.76915 0.0608788 0)
(0.805503 0.0117972 0)
(1.0976 -0.0502286 0)
(0.767566 0.0103153 0)
(0.946882 -2.97073e-05 0)
(0.985106 -0.000859811 0)
(0.985126 -0.000877124 0)
(0.805964 0.00347692 0)
(0.985198 -0.000611461 0)
(0.948244 -0.000269189 0)
(1.07429 -0.0167003 0)
(0.95129 -0.00047918 0)
(0.951013 -0.000579489 0)
(1.0715 -0.0328631 0)
(1.01314 -0.0259046 0)
(0.940994 -0.000159045 0)
(0.997445 -0.000116202 0)
(0.997619 4.5334e-05 0)
(0.952226 0.0397108 0)
(0.93981 -8.52927e-05 0)
(0.776965 0.0097891 0)
(0.9558 -0.00014604 0)
(0.956008 -0.000272974 0)
(0.989602 0.000108358 0)
(0.827301 -0.00281863 0)
(1.11193 -0.0592655 0)
(0.829836 0.00151993 0)
(0.949152 -0.000204809 0)
(0.950139 -0.000101535 0)
(0.985521 0.0303695 0)
(1.07821 -0.0838519 0)
(1.09036 -0.048727 0)
(0.787644 -0.024441 0)
(0.963531 -0.000203331 0)
(0.78623 0.00931238 0)
(0.963895 -0.000459024 0)
(1.13048 -0.0689228 0)
(1.07949 -0.0383336 0)
(1.09849 0.0702838 0)
(0.989666 -0.00245591 0)
(0.952622 -0.000182661 0)
(0.985242 -0.000535089 0)
(0.953806 -0.000284698 0)
(0.716297 0.0423276 0)
(0.815977 0.00372348 0)
(0.966887 -8.64371e-05 0)
(0.966968 -0.000281326 0)
(0.814758 0.00253454 0)
(0.991094 0.000360397 0)
(0.797966 0.00474585 0)
(1.11856 -0.107974 0)
(1.1351 -0.0120709 0)
(0.801548 0.00262837 0)
(1.06968 0.0149876 0)
(1.17811 -0.0950139 0)
(0.804299 0.00197621 0)
(0.986708 0.0300169 0)
(0.973632 -0.000431113 0)
(0.974299 -0.000645575 0)
(0.83436 0.00255497 0)
(0.960665 0.000155544 0)
(0.961984 0.000242036 0)
(1.20167 -0.0979906 0)
(0.826164 -0.000524579 0)
(0.826091 -0.000690339 0)
(0.823184 0.00206538 0)
(0.840108 -0.000446016 0)
(1.06472 0.0216856 0)
(0.850093 -5.53982e-06 0)
(0.854307 0.00794687 0)
(0.856143 0.00732349 0)
(0.94991 -0.00765402 0)
(0.844008 0.00252228 0)
(1.03697 -0.00111009 0)
(1.03854 -0.000974291 0)
(1.40474 -0.0269918 0)
(0.772735 0.00175929 0)
(0.964952 -0.000365265 0)
(0.965208 -0.000228219 0)
(0.786789 5.60256e-05 0)
(1.07926 -0.0888666 0)
(0.986911 0.028181 0)
(0.979128 -0.000186423 0)
(0.980621 -0.000159946 0)
(0.810201 0.00072613 0)
(1.43671 -0.111603 0)
(0.778123 0.0707374 0)
(0.992498 0.000650229 0)
(0.82943 0.00287534 0)
(1.12246 -0.0045005 0)
(0.836195 0.00126783 0)
(0.956976 0.0389538 0)
(1.00396 -0.000771127 0)
(0.986318 -0.000776616 0)
(0.823216 0.0014638 0)
(0.826556 0.0010173 0)
(0.985973 -0.000904831 0)
(1.12074 -0.0971405 0)
(0.969735 -5.0337e-05 0)
(0.971426 -1.0326e-05 0)
(1.00524 -0.0001209 0)
(0.810596 0.00176657 0)
(0.815742 0.00358782 0)
(1.05056 -0.00131483 0)
(1.05166 -0.000999545 0)
(0.912984 0.0575963 0)
(1.10853 0.0856745 0)
(0.820916 0.00415877 0)
(0.795612 0.00270747 0)
(0.851581 0.00142515 0)
(1.26698 -0.0298019 0)
(0.836801 0.00346516 0)
(1.33872 -0.0917257 0)
(0.918044 0.0564287 0)
(0.8977 0.0573535 0)
(0.838177 0.00160211 0)
(0.832157 0.00211994 0)
(0.83313 0.000577254 0)
(0.836374 0.00216474 0)
(1.06709 0.0428905 0)
(0.828465 0.00194295 0)
(0.939716 -0.000584302 0)
(0.981045 0.0284021 0)
(0.8425 0.00259389 0)
(0.994172 -0.000622496 0)
(0.995568 -0.000555674 0)
(0.895221 0.0579603 0)
(1.06369 -0.00153109 0)
(0.83419 0.0025312 0)
(1.06442 -0.00117093 0)
(0.975895 -0.00078462 0)
(0.976809 -0.000301054 0)
(1.09238 -0.0292418 0)
(1.00102 0.00565629 0)
(0.870497 0.000231931 0)
(0.987168 0.000241971 0)
(0.999209 0.00677317 0)
(1.11133 -0.0605163 0)
(0.952654 0.0406112 0)
(0.99879 -0.00865591 0)
(0.874517 0.00732895 0)
(1.40424 0.0260988 0)
(1.40354 0.00677223 0)
(0.983751 0.000142705 0)
(0.996992 -0.000281203 0)
(0.984729 7.43465e-05 0)
(0.831309 0.00220945 0)
(0.928037 -0.021898 0)
(-0.377295 0.0626348 0)
(0.997913 -0.000419534 0)
(0.832624 0.00171582 0)
(0.772294 0.0106548 0)
(0.810213 0.00344952 0)
(0.940763 -0.00608829 0)
(1.0827 -0.020118 0)
(1.0764 -0.00163529 0)
(1.07607 -0.00120588 0)
(0.838027 0.000839176 0)
(0.839505 0.000834113 0)
(1.4723 -0.0540303 0)
(1.00321 0.0205933 0)
(0.9982 0.0206365 0)
(1.05813 -0.0313823 0)
(0.967939 0.0360578 0)
(0.77603 -0.00660746 0)
(0.878539 0.0632085 0)
(0.88035 0.0615504 0)
(1.01963 -0.00142169 0)
(1.30644 0.0134042 0)
(0.891806 0.0627732 0)
(0.932734 0.0504395 0)
(0.810316 0.00306165 0)
(0.937186 0.0503241 0)
(0.999015 0.000801398 0)
(1.00547 -0.000937634 0)
(0.78761 0.072489 0)
(1.00608 -0.00123885 0)
(1.10194 -0.0463124 0)
(0.772119 0.0535957 0)
(0.8618 -0.000579023 0)
(0.987223 -0.00121062 0)
(0.989607 -0.000618813 0)
(0.815272 -0.00506786 0)
(0.957736 0.0421358 0)
(0.827129 -0.00101788 0)
(0.826103 -0.00137922 0)
(1.13541 -0.00635657 0)
(1.07831 -0.0943275 0)
(1.0104 -0.000778904 0)
(0.836186 0.00192377 0)
(1.01105 -0.000819285 0)
(1.09304 -0.0355436 0)
(0.894756 0.0610571 0)
(0.799556 -0.00993867 0)
(0.940011 -0.00296194 0)
(1.09087 -0.0486774 0)
(0.850397 0.00199084 0)
(0.986982 -0.00245689 0)
(0.989428 -0.00216369 0)
(0.995196 -0.0021263 0)
(0.969422 0.035007 0)
(0.838141 0.00148602 0)
(0.863356 4.91513e-05 0)
(1.01385 -0.000697917 0)
(1.01277 -0.00101792 0)
(1.0997 -0.00212857 0)
(1.10076 -0.0013683 0)
(0.86066 -0.00157204 0)
(1.07725 -0.0133028 0)
(0.853022 0.0011715 0)
(1.07422 0.00654896 0)
(1.08489 -0.0319637 0)
(0.995994 -0.000747623 0)
(0.995426 -0.000141053 0)
(0.877931 -0.00512301 0)
(0.825585 0.00194813 0)
(0.831692 0.00202706 0)
(1.48617 0.0518665 0)
(0.768637 0.0399471 0)
(0.821841 0.00032871 0)
(1.01855 -0.000825162 0)
(1.02098 -0.00112871 0)
(1.09473 -0.0990909 0)
(1.09824 -0.0351275 0)
(0.801639 0.00284114 0)
(0.968726 -0.00434857 0)
(0.805816 -0.0085391 0)
(1.11558 -0.0984796 0)
(1.04952 0.0712098 0)
(1.11448 -0.0679234 0)
(0.827257 0.00232831 0)
(1.00181 -0.000461069 0)
(0.81363 -0.00752884 0)
(1.00331 -0.000736684 0)
(0.824471 4.66922e-05 0)
(1.11228 -0.0655056 0)
(0.878554 -0.000646711 0)
(0.819137 0.00225283 0)
(0.877573 -0.000841893 0)
(0.82982 -0.000683219 0)
(0.816105 0.00278567 0)
(0.816887 0.00321968 0)
(0.816587 0.00300887 0)
(1.02631 -0.000954074 0)
(0.821781 0.00278823 0)
(0.840478 0.00393469 0)
(0.839911 0.00323122 0)
(0.840253 0.00387591 0)
(1.02608 -0.00127942 0)
(0.821881 0.00341762 0)
(0.90113 0.0616783 0)
(1.07156 -0.0346036 0)
(0.836467 0.00225164 0)
(0.818086 0.00247614 0)
(0.775372 -0.00780143 0)
(1.00016 -0.00173397 0)
(0.993364 0.00160377 0)
(1.08997 -0.0476876 0)
(1.00753 -0.00129707 0)
(0.958351 -0.00894093 0)
(1.00818 -0.00083894 0)
(0.818152 0.00056634 0)
(1.50841 0.0961795 0)
(1.02961 -0.000966615 0)
(0.761251 0.0632347 0)
(0.836999 0.00196715 0)
(0.966616 0.0365305 0)
(1.0302 -0.00135653 0)
(1.02993 0.02051 0)
(0.804048 0.00011669 0)
(0.960846 -0.00372716 0)
(0.992649 0.0237012 0)
(0.980773 0.027083 0)
(0.849921 0.00142609 0)
(1.02694 -0.0118638 0)
(1.24979 -0.00481818 0)
(0.956601 -0.000526349 0)
(0.955843 -0.000354968 0)
(0.899273 0.0599834 0)
(0.847271 0.00150505 0)
(0.838877 0.0316587 0)
(0.862519 -0.00176111 0)
(0.764613 0.00973889 0)
(1.49715 0.0512124 0)
(0.840605 0.000542974 0)
(0.869789 0.000963919 0)
(0.838241 -0.00201918 0)
(0.807394 0.0671408 0)
(0.833136 0.000249563 0)
(1.02139 -0.0129372 0)
(0.845055 0.0272816 0)
(1.03808 0.0165068 0)
(0.845041 0.00114909 0)
(0.878218 0.000698606 0)
(1.09096 -0.0290297 0)
(0.844548 0.0275586 0)
(1.32305 -0.0605558 0)
(1.034 -0.000937588 0)
(0.874348 -0.00134353 0)
(1.01319 -0.000211435 0)
(0.868885 -0.000230995 0)
(0.80319 0.00964244 0)
(1.03469 -0.00135263 0)
(1.0141 0.000113661 0)
(0.861849 -2.70754e-05 0)
(1.14713 -0.0117005 0)
(0.819541 0.00212749 0)
(1.2757 -0.0234018 0)
(0.856522 0.00847525 0)
(0.855693 0.00908228 0)
(1.04182 -0.0209772 0)
(0.963619 -0.00012312 0)
(0.827331 -0.00110211 0)
(0.845754 -0.000430207 0)
(0.944829 -0.00693866 0)
(1.09079 -0.0477554 0)
(0.837043 0.026968 0)
(1.04245 0.02722 0)
(0.862613 -0.000384991 0)
(1.05164 -0.0206451 0)
(0.978788 0.0309995 0)
(0.83624 -0.000111939 0)
(0.837965 0.000345174 0)
(1.07082 -0.032001 0)
(0.797956 0.00972944 0)
(1.08243 -0.021221 0)
(1.01849 -0.0102673 0)
(1.04054 -0.204784 0)
(1.02128 0.00586847 0)
(0.0946574 0.204921 0)
(0.846275 0.0331461 0)
(0.945475 -0.0152739 0)
(0.842917 0.031489 0)
(1.01433 -0.00121297 0)
(1.06752 -0.0191284 0)
(0.811691 0.00113441 0)
(1.06415 -0.0187371 0)
(1.06154 -0.0216664 0)
(1.01491 -0.000951194 0)
(0.823289 0.00286136 0)
(1.03819 -0.0200639 0)
(0.809145 0.00269457 0)
(0.839461 0.0102741 0)
(0.84428 0.0281708 0)
(0.839173 0.00281423 0)
(0.838083 0.0101707 0)
(1.00893 0.00520146 0)
(1.07357 -0.0538962 0)
(0.948129 -0.0109849 0)
(1.09229 -0.0463075 0)
(1.04276 -0.00107684 0)
(1.04419 -0.0243457 0)
(0.978725 0.0263082 0)
(1.04285 -0.00139151 0)
(0.99514 -0.00586863 0)
(0.958316 -0.000488708 0)
(0.958173 -0.000372666 0)
(0.816956 0.0213367 0)
(0.814532 0.00157755 0)
(0.817235 0.00278953 0)
(0.820883 0.00396629 0)
(0.765623 0.00911052 0)
(0.904316 -0.0918198 0)
(1.07894 -0.0204371 0)
(1.00651 -0.000703915 0)
(1.20153 -0.0831031 0)
(1.07842 -0.0207158 0)
(1.02124 -0.0184259 0)
(1.04854 0.0311723 0)
(1.04957 -0.0185084 0)
(0.195179 -0.0612765 0)
(0.826168 0.00252926 0)
(1.0237 -0.000899572 0)
(1.02413 -0.0137208 0)
(1.11407 -0.0608295 0)
(1.02482 -0.000583984 0)
(1.04754 -0.00112156 0)
(1.0485 -0.0014795 0)
(0.959749 -0.00057377 0)
(0.998466 0.00342327 0)
(0.8192 0.00265021 0)
(0.960111 -0.00057556 0)
(0.952432 0.0420647 0)
(0.771903 0.000940016 0)
(1.48608 -0.0518171 0)
(0.807988 0.00044744 0)
(0.997074 0.00702903 0)
(0.838849 0.0254371 0)
(0.957033 0.000979669 0)
(1.076 0.00406095 0)
(0.793381 0.0072829 0)
(0.83215 -0.000489162 0)
(1.04793 -0.0169224 0)
(0.847533 0.00183323 0)
(1.08142 0.0414472 0)
(1.06545 0.00205756 0)
(0.761261 -0.0498004 0)
(1.0306 -0.011555 0)
(0.864177 0.00161824 0)
(0.868329 0.00032277 0)
(1.02912 -0.0128872 0)
(0.817689 0.00318308 0)
(1.02236 -0.0133287 0)
(1.02075 -0.0104501 0)
(1.02087 -0.01457 0)
(1.10796 0.0189616 0)
(1.05628 -0.0177529 0)
(1.08847 -0.0277325 0)
(1.05624 -0.0697353 0)
(1.06858 -0.0181729 0)
(1.03206 -0.0119964 0)
(0.834421 0.00238536 0)
(0.801584 0.00449465 0)
(1.02714 -0.000850517 0)
(0.980326 0.0359987 0)
(0.982561 0.000873609 0)
(1.05654 -0.0236762 0)
(0.881371 0.00051414 0)
(0.867126 -0.00147421 0)
(1.0278 -0.000590067 0)
(0.788963 0.00426511 0)
(0.811912 -0.0164241 0)
(0.853743 0.0183959 0)
(0.852842 0.0182537 0)
(1.09872 -0.0779419 0)
(0.854553 0.0183778 0)
(0.852185 0.0186911 0)
(1.05471 -0.000989686 0)
(1.04406 -0.0236417 0)
(1.05525 -0.00139596 0)
(1.02813 0.0159319 0)
(0.86008 0.0182137 0)
(0.85914 0.0181486 0)
(0.863115 0.0184911 0)
(0.861166 0.0183953 0)
(0.847457 0.00153769 0)
(0.839719 0.0286798 0)
(0.777458 -0.00373865 0)
(1.01931 -0.0199721 0)
(1.1955 -0.0816732 0)
(0.842368 0.000216635 0)
(0.845529 0.00127168 0)
(0.782088 -0.0211101 0)
(0.842155 0.0258931 0)
(0.834471 0.00489083 0)
(0.848503 0.00532907 0)
(0.985239 0.000953241 0)
(0.961234 0.0372004 0)
(1.08456 -0.0345143 0)
(0.966216 0.0348029 0)
(0.839557 0.0095847 0)
(0.847681 0.000657322 0)
(1.10475 -0.0470527 0)
(0.878411 0.00956814 0)
(0.841783 0.00492528 0)
(0.84152 0.00990109 0)
(1.03163 -0.00118292 0)
(0.83911 0.0114887 0)
(0.845046 0.010099 0)
(1.03207 -0.000959715 0)
(0.966573 0.0337443 0)
(0.930127 0.021775 0)
(0.82218 0.00291943 0)
(0.928549 0.0224518 0)
(0.9275 0.0218074 0)
(0.928224 0.023073 0)
(0.86432 0.00657231 0)
(0.839945 0.0101466 0)
(1.06079 -0.001392 0)
(1.06176 -0.00178029 0)
(0.964681 0.038426 0)
(1.04254 0.00372706 0)
(0.837254 0.00930447 0)
(0.838249 -0.00108702 0)
(1.00879 0.00356091 0)
(0.807243 0.00164693 0)
(0.769132 0.0495685 0)
(1.12592 -0.0183506 0)
(0.84418 0.0267019 0)
(0.77196 0.0566375 0)
(0.838532 0.0325958 0)
(0.839099 0.00285236 0)
(0.954846 0.0412269 0)
(0.95634 0.043768 0)
(0.822686 0.00246965 0)
(0.819495 0.00327934 0)
(1.03968 -4.57173e-05 0)
(1.05451 -0.0215226 0)
(0.818971 0.00261657 0)
(0.806853 0.00103983 0)
(1.01002 0.0212857 0)
(0.868773 0.0192786 0)
(0.866909 0.018902 0)
(0.873213 0.0191285 0)
(0.87237 0.0196542 0)
(0.877787 0.0196628 0)
(0.876099 0.0192147 0)
(0.881445 0.0193754 0)
(0.880673 0.0198881 0)
(1.21434 -0.0985629 0)
(1.03029 -0.0205379 0)
(0.887396 0.0197184 0)
(1.03649 0.00864273 0)
(0.885826 0.0195437 0)
(0.891493 0.0188552 0)
(0.819553 0.00286217 0)
(0.983715 0.000748605 0)
(0.966764 -0.000477956 0)
(0.890998 0.0196778 0)
(0.817247 0.00288563 0)
(0.89739 0.0187362 0)
(0.848903 0.00373236 0)
(0.895888 0.0186502 0)
(1.08768 0.0574851 0)
(1.046 -0.0182643 0)
(0.900637 0.0180376 0)
(0.858617 0.0009808 0)
(0.900014 0.0184358 0)
(0.830358 0.0697745 0)
(0.826956 0.00670905 0)
(0.909426 0.0177302 0)
(0.855143 0.0108075 0)
(0.907911 0.0176305 0)
(0.856192 0.0110284 0)
(1.05807 -0.0831051 0)
(0.860254 -0.000657862 0)
(1.05271 -0.0218074 0)
(0.966384 -0.000335502 0)
(0.844275 0.000480901 0)
(0.84004 0.00115688 0)
(0.91069 0.0166246 0)
(0.9106 0.0172568 0)
(0.828362 0.00271809 0)
(1.03207 -0.0154074 0)
(0.919755 0.0155928 0)
(0.918133 0.0155562 0)
(0.998026 0.0200261 0)
(0.859794 0.000858228 0)
(0.861292 0.00044531 0)
(0.927052 0.0131092 0)
(1.06721 -0.00110931 0)
(0.924294 0.0140353 0)
(0.81721 0.00602012 0)
(1.04062 -0.0010416 0)
(0.930958 0.0141921 0)
(1.09801 -0.0472537 0)
(0.932124 0.0138684 0)
(1.06787 -0.00160858 0)
(1.04156 -0.000651773 0)
(0.817539 0.00518602 0)
(0.842016 0.00484192 0)
(0.840073 0.00492152 0)
(0.938658 0.0106134 0)
(0.935894 0.0116399 0)
(0.938307 0.000863703 0)
(0.821678 0.00483852 0)
(0.831717 0.00380224 0)
(0.940686 0.0115138 0)
(1.06492 -0.0174832 0)
(0.941925 0.0113567 0)
(1.09483 -0.0480024 0)
(0.817639 0.00329157 0)
(0.954086 0.00881682 0)
(0.95348 0.00826716 0)
(0.8416 0.0103594 0)
(0.841462 0.00960586 0)
(0.838498 0.010562 0)
(1.01924 0.00573355 0)
(0.839019 0.00956295 0)
(1.03159 -0.0125204 0)
(1.02549 -0.00610573 0)
(0.950664 0.0438162 0)
(0.834953 0.00229497 0)
(0.962832 0.00498156 0)
(0.847935 0.00105231 0)
(0.960159 0.00565921 0)
(0.84642 0.000118053 0)
(0.83133 0.0015378 0)
(1.02949 -0.0117369 0)
(1.02936 -0.0115782 0)
(0.961843 0.00553196 0)
(0.963144 0.00564528 0)
(1.06159 -0.0209013 0)
(1.0242 -0.0107531 0)
(0.974404 0.00226417 0)
(1.02051 -0.0108906 0)
(0.971941 0.00278256 0)
(0.813635 0.00146531 0)
(0.984201 0.0257001 0)
(0.977715 -0.000530047 0)
(0.974878 0.00101596 0)
(0.839309 0.00327695 0)
(1.06531 -0.0293729 0)
(0.985992 6.95885e-05 0)
(0.988226 -0.000916602 0)
(0.714963 0.0269246 0)
(0.862107 0.00405091 0)
(0.860775 0.00316388 0)
(0.833034 -0.0028922 0)
(0.988991 -0.00506792 0)
(1.02896 -0.0218094 0)
(0.982833 -0.0031946 0)
(0.822697 -0.0139772 0)
(0.959907 0.00510487 0)
(1.0541 -0.0210944 0)
(1.11293 -0.0604634 0)
(0.998677 -0.00228751 0)
(1.00607 -0.00345739 0)
(1.01589 -0.00526559 0)
(0.994778 -0.0110191 0)
(0.984767 -0.0086288 0)
(1.0899 -0.0334094 0)
(1.10019 -0.0381761 0)
(0.855943 0.017411 0)
(0.937614 -0.0123783 0)
(0.767043 0.0462743 0)
(1.074 -0.00148644 0)
(0.794762 -0.00688723 0)
(1.11078 -0.0543046 0)
(1.07496 -0.0020391 0)
(1.10007 -0.0464741 0)
(1.02983 0.00333793 0)
(0.980896 0.000637351 0)
(0.865179 0.0189436 0)
(0.854689 0.0177927 0)
(0.863937 0.0189537 0)
(1.04452 -0.00119426 0)
(0.847367 0.000673061 0)
(0.856497 0.0189123 0)
(0.847726 0.00099499 0)
(0.795666 0.048781 0)
(0.855293 0.0190736 0)
(1.04533 -0.000910832 0)
(0.790232 0.0264497 0)
(0.856592 0.0178151 0)
(0.858522 0.0178971 0)
(1.07759 -0.0285519 0)
(1.07148 -0.0392467 0)
(0.818255 0.00325423 0)
(1.00303 0.023658 0)
(1.22152 -0.105203 0)
(0.962082 -0.000895753 0)
(1.40737 -0.10438 0)
(0.823171 -0.00409418 0)
(0.815706 0.00221756 0)
(0.839704 0.0278855 0)
(1.10136 0.0958949 0)
(1.02678 0.00146284 0)
(0.847286 0.00158105 0)
(1.05292 -0.019938 0)
(0.841448 0.026379 0)
(0.940444 0.0173502 0)
(1.05656 -0.0149803 0)
(0.938262 0.0171913 0)
(1.09827 -0.0454291 0)
(0.840171 -0.00311973 0)
(1.06975 0.00725026 0)
(1.00005 0.000677229 0)
(0.924181 0.0209618 0)
(0.842206 0.0282465 0)
(1.23348 0.00377653 0)
(0.825583 0.00277979 0)
(1.47021 0.0631778 0)
(0.876476 -0.00081976 0)
(0.935623 0.0168173 0)
(0.939513 0.0180066 0)
(1.02755 0.00526991 0)
(0.975826 -0.000285901 0)
(0.977718 -1.02695e-05 0)
(0.839649 0.00298133 0)
(1.07448 -0.0230526 0)
(0.853439 0.00177405 0)
(0.821749 0.00267819 0)
(0.937612 0.0182896 0)
(0.98878 -0.0105211 0)
(0.839592 0.0313871 0)
(0.94941 -0.013489 0)
(0.841153 0.0325969 0)
(0.840069 0.0304483 0)
(0.98417 0.0250934 0)
(0.978812 0.0272628 0)
(0.817685 0.00310778 0)
(0.936565 0.018099 0)
(1.11051 -0.0464985 0)
(1.06613 -0.0162591 0)
(0.813948 0.00877486 0)
(1.05131 -0.0200928 0)
(1.08012 -0.00146579 0)
(0.819703 0.00918054 0)
(0.840699 0.0294643 0)
(1.03686 -0.02427 0)
(1.04825 -0.0161721 0)
(0.842895 0.0279335 0)
(1.08116 -0.00183568 0)
(0.83417 -0.0460645 0)
(0.836548 0.0270242 0)
(1.06481 0.0235186 0)
(0.920395 0.0160563 0)
(0.920768 0.0158447 0)
(1.03049 -0.019752 0)
(0.866268 -0.00123476 0)
(0.835348 -0.0339259 0)
(0.908937 -0.0358652 0)
(1.0008 0.000168065 0)
(1.0242 -0.00403041 0)
(0.82823 -0.00101017 0)
(1.01942 -0.0143527 0)
(0.956403 -0.0129134 0)
(1.1064 -0.0464862 0)
(0.841435 0.0701165 0)
(0.866848 0.00129902 0)
(0.867562 0.0022395 0)
(0.853421 0.00441928 0)
(0.943007 0.00967274 0)
(0.941939 0.010679 0)
(0.866372 0.0188252 0)
(0.837514 0.033008 0)
(0.824565 -0.0036692 0)
(1.05276 -0.00139877 0)
(0.950873 0.00880418 0)
(1.03477 -0.0909066 0)
(0.838849 0.0333357 0)
(0.952341 0.00872982 0)
(1.05319 -0.000895054 0)
(1.03549 -0.0200458 0)
(1.03822 -0.021372 0)
(0.770627 0.00433999 0)
(1.05514 -0.0222817 0)
(1.02867 -0.010558 0)
(1.11139 -0.0548888 0)
(1.04135 -0.0234671 0)
(1.09289 -0.0486894 0)
(0.975893 0.00301432 0)
(0.824979 -0.000586102 0)
(0.8282 -0.000231329 0)
(0.976325 0.00229122 0)
(0.882723 0.0060234 0)
(0.838294 0.00328547 0)
(1.04682 -0.0168818 0)
(1.0409 -0.0196296 0)
(0.831451 0.00155517 0)
(1.08644 -0.00152008 0)
(1.07028 -0.0402937 0)
(1.03361 -0.0122658 0)
(1.05917 -0.0311419 0)
(1.08632 -0.0298948 0)
(1.08706 -0.00217283 0)
(1.07778 -0.0414529 0)
(1.07451 -0.0425073 0)
(1.10076 -0.0489704 0)
(1.10116 -0.0486677 0)
(0.877577 -0.000950397 0)
(0.822562 0.0197563 0)
(0.876 0.00283439 0)
(0.821968 0.020184 0)
(0.875718 0.00219654 0)
(1.03763 -0.0192577 0)
(1.0789 -0.037891 0)
(1.08009 -0.0426296 0)
(0.819335 0.006434 0)
(0.833582 -0.00252383 0)
(1.01712 -0.012455 0)
(0.84645 0.000371682 0)
(1.02054 -0.0128775 0)
(1.02735 -0.0106675 0)
(0.844551 0.0323617 0)
(0.846049 0.0335835 0)
(0.894011 0.00447485 0)
(0.8423 0.0314343 0)
(1.36044 -0.0877337 0)
(0.841501 0.0307951 0)
(0.817668 0.00231883 0)
(1.03854 -0.0183122 0)
(1.02373 -0.0111958 0)
(0.978668 -0.00958403 0)
(0.914671 -0.0341154 0)
(0.830292 0.00253451 0)
(1.05753 -0.00144454 0)
(0.854859 0.00205385 0)
(1.01194 -0.0132763 0)
(0.997252 -0.0157356 0)
(1.05867 -0.00108627 0)
(0.839388 0.0268564 0)
(1.02778 -0.0170996 0)
(1.01013 -0.0183297 0)
(1.04736 -0.0150685 0)
(0.809836 0.00111938 0)
(0.803656 0.00186438 0)
(0.802208 0.00154887 0)
(0.82663 -0.000418882 0)
(1.03112 -0.0163645 0)
(1.0187 -0.0138972 0)
(0.829232 0.00712665 0)
(0.991769 0.0170598 0)
(0.843782 0.0287729 0)
(1.07856 -0.0436992 0)
(0.834732 0.00706234 0)
(1.07266 -0.0418011 0)
(0.962968 -0.000697778 0)
(0.986754 -0.00146755 0)
(0.818755 0.00615895 0)
(1.09023 -0.00189119 0)
(1.09103 -0.0021349 0)
(1.04484 0.033999 0)
(0.814987 0.0693949 0)
(0.865466 0.0188112 0)
(1.08377 -0.0440436 0)
(0.990583 -0.00586163 0)
(0.983111 -0.00223834 0)
(1.07915 -0.039827 0)
(0.860696 0.0181044 0)
(0.859726 0.0180021 0)
(1.06727 -0.0198647 0)
(0.826666 -0.00887679 0)
(0.822862 0.00650178 0)
(0.821337 0.00606145 0)
(1.0267 -0.0112844 0)
(1.22636 -0.0860238 0)
(0.95894 0.00734501 0)
(1.02898 -0.0216088 0)
(0.791585 -0.000664319 0)
(0.855682 0.0183318 0)
(0.858376 0.000267547 0)
(0.855779 0.0187752 0)
(0.876863 -0.00108975 0)
(0.852479 0.0185025 0)
(0.759381 0.0544029 0)
(0.851915 0.0183934 0)
(0.96183 -0.000822652 0)
(1.10093 -0.0368842 0)
(1.09792 -0.0465051 0)
(0.956312 -0.00598103 0)
(0.866396 0.00202347 0)
(0.780414 -0.00305658 0)
(0.910799 -0.0315153 0)
(1.07817 -0.0267776 0)
(0.997571 -0.00223657 0)
(0.962614 -0.000772488 0)
(0.765081 -0.0417995 0)
(0.905272 0.0172761 0)
(0.899154 0.018895 0)
(0.894025 0.0182818 0)
(0.910297 0.0179364 0)
(0.902774 0.0177306 0)
(0.872253 -0.0119941 0)
(1.06171 0.0182685 0)
(0.898645 0.0189967 0)
(0.889662 0.0198401 0)
(0.910674 0.0179813 0)
(1.03836 -0.017759 0)
(0.892704 0.0185425 0)
(0.928214 0.014497 0)
(0.915247 0.0153714 0)
(0.888809 0.0201081 0)
(0.855166 0.000327576 0)
(0.884088 0.019042 0)
(0.91305 0.0161863 0)
(0.882564 0.019156 0)
(0.843147 0.0109827 0)
(0.921087 0.014754 0)
(0.871184 0.0628885 0)
(0.87969 0.0200219 0)
(0.878838 0.020122 0)
(0.920817 0.0152733 0)
(0.874906 0.0188181 0)
(0.876853 0.0233342 0)
(0.93178 0.0136117 0)
(0.87379 0.0188282 0)
(0.834748 -0.000691224 0)
(0.87138 0.0196504 0)
(0.930134 0.0134425 0)
(0.818857 0.00216694 0)
(0.931775 0.0124947 0)
(0.870162 0.0198092 0)
(1.1262 0.0188774 0)
(0.838872 0.00379907 0)
(1.09578 -0.00158537 0)
(0.931452 0.0132081 0)
(0.841425 0.0108268 0)
(0.852258 0.0072884 0)
(0.840947 0.00994519 0)
(0.942472 0.0112535 0)
(0.927427 0.0220366 0)
(0.835409 0.00437813 0)
(0.839718 0.00953306 0)
(0.856648 0.0075869 0)
(0.941286 0.0109604 0)
(1.09665 -0.00212589 0)
(0.793311 -0.0359289 0)
(0.951174 0.00796868 0)
(0.818005 0.003297 0)
(1.04726 -0.00171273 0)
(0.948341 0.00881889 0)
(0.954291 0.00658133 0)
(0.95262 0.00793121 0)
(1.10176 -0.0395621 0)
(0.965089 0.00591796 0)
(0.964904 0.00523162 0)
(0.965915 0.00346655 0)
(0.810842 0.00340427 0)
(0.969021 -0.000490919 0)
(0.963736 0.00479579 0)
(0.832069 0.00108984 0)
(0.972568 0.00173232 0)
(0.985586 0.000458345 0)
(0.832378 0.00132242 0)
(0.85398 0.00153408 0)
(0.973749 0.00217771 0)
(1.0465 -0.0222349 0)
(0.801213 -0.0139565 0)
(0.986631 -0.000926393 0)
(0.984256 -0.000523339 0)
(0.979977 -0.00242816 0)
(1.06509 -0.0016595 0)
(0.981713 -0.00202435 0)
(0.767602 -0.0194461 0)
(1.00485 -0.00356994 0)
(0.812238 0.00104946 0)
(0.990261 -0.0112766 0)
(1.0653 -0.001239 0)
(1.00036 -0.00338693 0)
(1.00635 0.0203281 0)
(1.00428 0.0179989 0)
(1.0554 -0.0199818 0)
(0.98198 -0.00737822 0)
(1.0361 -0.0113778 0)
(1.0223 -0.0118921 0)
(0.988421 0.000291832 0)
(0.987364 -0.00588049 0)
(1.02286 -0.00675576 0)
(1.01325 -0.00762706 0)
(0.961627 -0.000514643 0)
(0.784679 -0.000655732 0)
(0.795125 -0.0588325 0)
(0.81732 0.00277392 0)
(0.773431 -0.0197411 0)
(0.832119 0.00256892 0)
(0.884064 -0.010231 0)
(0.748956 -0.0166591 0)
(0.830726 -0.00883738 0)
(1.06733 0.00511391 0)
(0.767504 0.0555235 0)
(0.836578 -0.00386597 0)
(1.41806 -0.06769 0)
(1.1005 -0.0180255 0)
(1.09381 -0.0180265 0)
(0.967729 0.0367079 0)
(0.958299 0.0388766 0)
(0.817679 0.00283818 0)
(1.0611 -0.00045616 0)
(0.931272 0.0141692 0)
(0.931444 0.0136637 0)
(0.839366 0.00173615 0)
(0.959403 -0.00553843 0)
(0.938222 0.01329 0)
(0.930572 0.0136965 0)
(0.933949 0.014149 0)
(0.931084 0.0220413 0)
(1.03513 -0.0123037 0)
(1.09007 -0.0365273 0)
(1.03199 -0.0110668 0)
(1.01905 -0.0231378 0)
(0.819086 0.00307853 0)
(1.03119 -0.0120974 0)
(1.07152 -0.0374142 0)
(1.0993 -0.0463561 0)
(0.991748 0.0193242 0)
(0.802799 0.017254 0)
(0.907098 0.0198398 0)
(0.931833 0.0235474 0)
(1.12372 -0.0807339 0)
(1.32469 0.0231382 0)
(0.962131 -0.000308171 0)
(0.996776 0.00319953 0)
(1.0261 0.00198096 0)
(0.955665 -1.5146e-06 0)
(1.21876 -0.0181531 0)
(0.870128 0.0221863 0)
(0.834351 0.00183311 0)
(1.03338 -0.0181918 0)
(0.993224 0.0175454 0)
(1.03185 -0.005301 0)
(0.942667 0.0128441 0)
(1.00841 0.0206264 0)
(1.00454 0.022595 0)
(1.19714 -0.056722 0)
(1.07051 -0.00165663 0)
(1.03425 0.006364 0)
(1.07177 -0.00121665 0)
(1.00129 -0.014926 0)
(1.00146 8.01048e-05 0)
(1.11934 -0.0660462 0)
(1.06969 -0.0406929 0)
(0.996793 -0.0292287 0)
(1.0328 -0.00160484 0)
(0.931288 0.0132846 0)
(0.998643 -0.0104946 0)
(0.830553 0.0010933 0)
(0.931255 0.0141152 0)
(0.891197 0.0218623 0)
(1.04899 -0.0149169 0)
(0.993494 0.0102876 0)
(0.818824 0.00155124 0)
(0.829923 0.00162755 0)
(0.883396 0.0019916 0)
(1.01794 -0.0158083 0)
(0.838886 0.0329174 0)
(0.799213 0.000962763 0)
(0.87433 0.00321202 0)
(0.888245 0.00197645 0)
(0.993796 0.0115659 0)
(1.09356 -0.0493385 0)
(0.81002 0.00844744 0)
(0.996563 -0.00190734 0)
(0.888614 0.0033907 0)
(1.01822 -0.0162579 0)
(1.05689 -0.011167 0)
(0.791461 -0.00152506 0)
(0.810086 0.011372 0)
(0.795037 -0.0681243 0)
(1.09934 -0.0475759 0)
(0.875895 0.0230945 0)
(1.09813 -0.0463986 0)
(1.02372 -0.0103784 0)
(1.02365 -0.0102444 0)
(0.790512 0.00587792 0)
(0.930596 0.0140025 0)
(1.02602 -0.0122288 0)
(0.839031 0.0255305 0)
(1.1169 -0.0252117 0)
(0.885966 0.00193024 0)
(1.00312 0.0189314 0)
(0.958457 -0.00114924 0)
(1.1015 -0.018001 0)
(1.07618 -0.0405709 0)
(0.867789 0.00294412 0)
(0.865846 0.00329527 0)
(1.03366 -0.0118515 0)
(1.09307 -0.0182339 0)
(1.03215 -0.00829939 0)
(1.0574 -0.0188393 0)
(1.02728 -0.0121941 0)
(1.0273 -0.0117193 0)
(0.868757 0.00199665 0)
(0.958151 -0.00130311 0)
(1.04009 -0.00945935 0)
(1.0556 -0.0189498 0)
(1.05944 -0.0209873 0)
(1.09781 -0.0489364 0)
(0.991535 0.0173527 0)
(0.842281 0.0255082 0)
(1.03774 -0.011758 0)
(1.24334 -0.060717 0)
(1.00438 -0.0206097 0)
(1.11079 -0.0585639 0)
(0.996446 -0.0181262 0)
(0.931015 0.0229874 0)
(-0.180026 0.010132 0)
(0.855509 0.000694244 0)
(0.856649 0.0011278 0)
(1.07683 -0.0373923 0)
(1.05119 -0.0107383 0)
(0.828651 -0.000945407 0)
(1.03062 -0.0223119 0)
(1.05513 -0.0126181 0)
(0.864147 -0.00140684 0)
(1.03677 -0.00286516 0)
(1.08138 -0.0418182 0)
(1.0292 -0.0203949 0)
(0.818552 -0.0135525 0)
(0.98849 -3.50514e-06 0)
(0.909876 0.0200825 0)
(0.862644 0.00285049 0)
(0.863127 0.00311798 0)
(1.01779 -0.00963215 0)
(0.903921 0.0218246 0)
(0.860679 0.00361413 0)
(0.857096 0.00183548 0)
(0.843953 0.0273725 0)
(1.00831 -0.0248972 0)
(0.856558 0.00233312 0)
(1.00472 -0.0223167 0)
(1.22461 -0.0885508 0)
(0.963779 -0.00216894 0)
(1.10145 -0.0208515 0)
(0.819896 0.00331725 0)
(0.844446 0.0268858 0)
(1.10045 -0.020422 0)
(1.09341 0.0137629 0)
(0.863775 0.0308839 0)
(1.03714 -0.0203924 0)
(0.862624 0.032153 0)
(0.858441 0.0312838 0)
(0.869549 0.00553897 0)
(0.913212 0.0147129 0)
(0.865395 0.0320343 0)
(1.04958 -0.0178104 0)
(1.0977 -0.0223138 0)
(0.913382 0.0190204 0)
(0.835893 0.00978189 0)
(0.992839 0.00132412 0)
(0.877517 0.0320753 0)
(0.896204 0.0224038 0)
(1.02846 -0.00690791 0)
(1.50814 0.0606693 0)
(0.918681 0.0183355 0)
(0.87802 0.0320869 0)
(0.886476 0.0293273 0)
(0.83583 0.0326459 0)
(1.03833 -0.0125795 0)
(0.76729 -0.0433675 0)
(0.835723 0.0321632 0)
(0.82889 0.0277462 0)
(1.08536 -0.037393 0)
(0.884091 0.0305479 0)
(0.829223 0.0277515 0)
(0.906588 0.0207106 0)
(0.871876 0.00206012 0)
(1.35978 -0.0253433 0)