/*--------------------------------*- C++ -*----------------------------------*\
  =========                 |
  \\      /  F ield         | OpenFOAM: The Open Source CFD Toolbox
   \\    /   O peration     | Website:  https://openfoam.org
    \\  /    A nd           | Version:  12
     \\/     M anipulation  |
\*---------------------------------------------------------------------------*/
FoamFile
{
    format      ascii;
    class       volScalarField;
    location    "4.7";
    object      p;
}
// * * * * * * * * * * * * * * * * * * * * * * * * * * * * * * * * * * * * * //

dimensions      [1 -1 -2 0 0 0 0];

internalField   nonuniform List<scalar> 
46253
(
0.857973
1
1
1
1
1
0.817286
1.06856
1
1
0.861794
0.80937
0.999989
0.999997
1
1
1
1
1
1
1
1
1
0.832804
0.811199
1
1
1
1
1.06838
1.13532
1.16624
1.28083
1
1
1
1
1
1.05744
1
0.787854
0.810343
0.99778
0.989533
0.797708
1
1
1
1.51197
1.50718
1.50036
1.50087
1
1.06347
1.00006
0.877368
1.45473
1.4492
1.26968
0.760356
1
0.970237
1
1
1
1.00012
1.00022
1
0.880485
0.805132
0.817764
1.43692
1.43515
1.04815
1
0.831585
1.36697
1.36549
1
1.6291
1.63775
1.40756
1
1.40566
0.790066
1
1.30824
1.30586
1.06702
1
1
0.790979
1
1.47454
1
1.46698
1
1
1.26671
1
1
1
1
1.13058
0.999988
0.793779
0.815473
1.25536
1.25305
0.834507
1.06183
1.42117
1.41666
1
1
1.06294
0.769252
0.764614
1.47834
0.891754
1
1
1.39609
1.39307
1
1.48845
1
0.857724
0.987713
1.35128
1.22106
1.21893
1
0.812912
1.34828
1
1.33403
1.33209
0.888351
1
1.37414
1.20229
1.20072
1.11913
1.37607
1.00126
1.31627
1.31408
1.05795
1
0.832507
1
1.3425
1.34023
1.07862
0.772949
0.856408
1
1.29207
1.00001
1.29036
0.815604
0.874368
1
0.811139
1.32526
0.813858
1.3228
1.6944
1
1.27659
1.27467
1
0.792506
1
0.838674
1.05194
1
1.04625
0.771361
0.999998
1.07594
1.26222
1.26049
1
1.30053
1.29736
0.807927
1
1
1
1
0.775488
1
1
1
1.06206
1
1.10054
1.09819
1
1
1.28438
1.28221
1
0.780984
1.07205
1.24024
1.23849
1
1
1.47892
0.794189
1
1.05079
1
1.11408
0.791145
1.22727
1
1
1.22564
0.85379
1.26911
1.26753
0.79361
1
1
1.07231
1.07056
1.20763
1
1
1
1
1
1
1
1.20477
1.22573
1
1
1
1
1
1
1
1.07064
1
1.2077
1.20621
1.22238
1.04566
1
1.04418
1.24753
1.24488
0.903995
0.773587
1
0.808815
0.792714
0.829835
1.12255
1.03548
1
1
1
1.23382
1.18872
1.23234
1
1
1
1.18708
1
1.00046
1
1.06267
0.923254
1.01981
1.01824
1
1
1
0.779855
0.776109
0.893015
1.10324
1
1.25778
1.25508
0.787383
1
1.24694
1.16943
1
1.16632
0.79434
1.17742
1.46121
1.17598
0.863368
1.46162
1
1.21412
1.21207
1
1.12241
1
1
1.04959
1
1.16463
1
1.16274
0.88106
1.24414
1
1.06188
0.858137
1
0.818748
0.811332
1.05702
1.09845
1
1
1.15263
1.15099
0.972006
0.969799
1
1
1
0.99195
0.90001
1.19591
1.19325
1
1
1
1
1.49681
1
1.14028
1.13865
1
0.888217
1
1.06292
1
0.763721
1
0.818933
1
1.18276
1
1.18172
1
0.818545
1
1
1
1
1
1
1
1.12848
1
1
1
1
1.12705
1
1.23619
0.886452
1
1
1
0.794342
1.01666
0.859504
1.17127
1.06624
1.16962
1
1
1.1169
1.51278
1
1.10579
1.11521
0.769256
1
1.06776
1.05624
1.05782
1
1.1328
1
0.919802
0.919305
1.23277
1
1.0015
1
1
1
1
1
1
1.41994
1
1.12463
1
0.778986
1
1
0.904917
1
1
1.10541
1
1.15773
1
1
1.10428
1.1565
1
1.05235
1
1
1
1
1.08425
1.06203
1
1
1.06449
0.861071
1
0.766401
1
1.08673
1.08319
1
1
0.891755
1
0.925244
1.13556
1
0.840744
1
1.36693
1.06206
0.998034
1.1462
1.09689
1
1.09331
1.09446
1.14482
1
1.09072
1
1
1
1
1
1.03913
1
1.06259
0.863674
1.08891
0.913135
1.06646
1.08769
1.03571
0.891104
0.890605
1
1
1
1
0.987552
1
0.929593
0.792253
0.789955
0.931808
1.09323
0.766575
1.08811
1
1
1.1337
1.12088
0.831113
1.13227
1.07802
1.07668
0.874773
0.775006
1
0.873373
1.127
1
1
1
0.775911
1
1.06527
0.81128
1
1
1.09825
1
1
1.04418
0.885898
1.12903
1
1
1.12973
1
1.12605
1.13439
1.12686
1
1.05346
1.05338
1
1.09543
1.11812
1
1
1.12255
1
0.810522
0.909082
1
1
1.12132
1
1
1
1
0.781572
1
1
1.0622
0.915604
1.06125
0.764967
1
1
1
1
1
0.999999
1
1.0918
0.792349
1
1
1
1
1
1
0.811674
1.11054
1
1.09496
1
1
0.861106
1
1
1
1.1107
1
1
1.10923
1.09027
1.1584
1
1.16188
1.16308
1.16719
1.07561
1
1.05023
1.04899
1.10555
1.07458
1
1
1.0467
1
1.45774
1.04763
1
1.46403
1.06642
1
1.12099
1.12954
1
1
1.07187
1.09764
1
1
1.04533
1.00006
1.00001
1.15398
1.0906
1.27596
1.27606
1.27272
1.27467
0.804488
1.08761
1.26285
0.938193
1.26408
1.25016
1
0.813536
0.833972
1.25262
1
1.24113
1
1.24265
1
1.0934
1.23098
1
1.23284
1.35769
1
1.22005
1
1.22209
1
0.785533
1
0.91944
0.831943
1
1
1.20802
1.20999
1
1.12133
1.19866
1.19999
1.04248
1
1
1.18393
1.03613
1.18523
1
1.09401
1.17308
0.867628
1.17523
1.03428
1.09256
1
1
1
1.16194
1.16417
1.06045
1
1
1.15131
0.93903
1.15268
0.859136
1
1.13728
1.13873
1
1
1
0.989297
1
1.1186
1.15348
1.13937
1
1.12223
1
1.12363
1
1
1.12298
1.12334
1.11256
1.11398
1.08194
1.13112
1.10249
1.13351
1.1043
1
1.05869
1.0879
1.08918
1
0.897022
1.07794
1.08064
1.65063
1
1
1
1.15665
1.08272
1.08719
1.11286
1.07868
1.09507
0.834579
1.17095
1.18125
1.15167
1.1653
1.16235
0.889756
0.88301
1
1.06255
1.47507
1.02414
1
0.842508
1.02313
0.871459
1.07572
0.808755
1
1
1
1.08402
1
1
1
1
1
1.08282
1
1
1
0.907734
0.897826
1
1.05222
0.809136
0.851904
1
1
1
1
1
0.998449
1
1.08604
1
1.15389
1.02935
1.15673
0.878866
1
0.768062
0.790995
1.16695
1
1
1
1
1
1.15919
1.15734
1.01184
0.811171
0.809509
1
0.920126
1
1
1.16015
1.14863
0.997143
1.06284
1.11374
1.0001
1.05671
1.06414
1
1.16239
0.859449
1.08915
1
1.08705
1.00916
1
0.999997
1.0919
1.0973
1
1.00822
0.883195
1
1
1.19435
1.19544
1.08723
1
0.882156
0.882038
0.793033
1.01391
1
1.12165
1.06826
0.86193
1.34831
1
1
1
1.14571
1.14751
1
1.02458
1
1.06695
1.13225
1
1.0661
1.13346
1.0658
1.08984
1.08699
1
1.08331
1.13288
0.841777
1.08458
0.860871
1.09801
1
1
1.09877
1
1
1.09247
1.08724
1
0.997456
0.899581
1.12078
0.891473
0.898165
0.996202
0.889399
0.885363
0.857179
0.854718
1
1
1.07359
1
1
1.09525
0.911975
0.896906
1
1
1.13506
1
1.12379
1.13501
1.22682
1.35524
1.08789
1.01579
1
0.99976
1
1.08989
1.13007
1.07341
0.878801
1
1.05719
1
1.12742
1.12599
1.05484
1
1.11488
1.10515
1.11406
1
1
1
1
1.1075
1.12453
1
1.03703
1
0.88723
1
0.887112
0.852726
0.816163
1
0.988915
0.98799
0.766136
1.40956
1
0.895265
1.06036
1.06083
0.895962
1
1
1.09016
1.175
1
1
1.12689
0.775872
1.07359
1.0953
1
1
1
1
1
1
1.51885
1
0.852702
0.882113
0.875974
1.06161
0.835599
0.844969
0.859653
0.902665
1.08534
0.851624
0.884471
1.22586
1.23636
1.24571
1.21384
1.22758
1
1.04434
1.23791
1.25632
1.21625
1.08781
1.24689
1.1806
1.20324
1.25893
1
1.26641
1.20473
1.26853
1
1.18928
1.26365
1.27685
1.27671
1.19096
1.30396
1.28555
1.17942
1.31664
1
0.99439
1.18068
1
1.16791
0.999383
1
1
0.978899
1.16941
1
1
1
1.15619
1.16826
1
1
1
1.15788
0.976696
0.822755
1.1419
1
0.983414
1.14242
1.12766
1.12888
0.880061
1.11786
1.11868
1.10815
1
0.83072
1.109
1
1.09333
0.813605
1
1
1.09474
0.92571
0.824184
1.08437
1.08504
1.07667
1.04106
1.07428
0.840768
1.18827
1
1.14452
1.04022
1.17244
1.04601
1.02239
1.08606
1.16471
1.13552
1.1373
0.800946
1.16526
1.15887
1.16139
0.853219
0.835178
0.883228
1
0.837946
1
0.837078
0.833291
0.824401
1
1.48269
1.08373
1
0.979875
0.971465
1.10424
1.11255
1
1.06828
1.16614
1.17596
1.0752
1.0743
1.16215
1.16813
1.16361
1.1574
1.04114
0.887326
1.1318
1.09197
1
0.987188
0.903545
0.868719
1.02904
1
1.21852
1.1582
0.807594
1
0.964181
0.772154
1.0015
0.963497
1
1.31078
1
0.94809
1.02832
1.06337
1.15876
1.04427
1.05069
0.874528
1.02927
1.00538
1.02752
1.14231
0.794606
0.811735
0.892452
0.854049
0.987437
1.17286
1.14871
1
1.17172
1.25274
0.953572
1.01958
1
1
1
1.11389
1.11923
1
1
0.827992
1.02355
0.858562
1
0.794371
1
1.11143
0.959415
1
1
0.884965
0.864142
1.28129
0.870151
1.1333
1.13439
1.00003
1.17758
1.124
1
0.962841
1
1.03883
0.953786
0.978593
0.910276
1
1
0.985267
0.971669
1.13124
1.09701
1.11389
1.11424
1
0.952577
1.13181
1.08443
1.08301
0.856877
1.04207
1
0.96351
0.921664
1.11896
0.836052
1.12141
1.15935
1
1
1
0.910347
1.1111
1
1.08473
1.11125
1.08242
1.07567
0.89477
1.08354
1.15307
0.797598
1.21202
1
1
0.972184
1.22716
1
1
1
1.09832
1
1.10015
0.773008
1.036
0.972319
1
1
0.971916
1
1.30472
1.08997
1.29858
1.30357
1
1.10967
1.30039
1.0938
0.973675
1.20855
1
0.786782
1.2782
1.24627
0.975134
1
1.19927
1.28057
1.25939
0.999851
1.12363
0.884365
1.00015
1
0.899299
1.26268
1
1.22352
1.13673
1
1
0.794557
1.23998
0.943922
1.08617
1.26248
1.01446
0.851661
1.29056
1.24099
1.24297
1.08448
0.943072
1
1.13502
1.01311
1.13768
1.1596
1
1.22151
1
1
1
1.22081
1
1
0.937095
1.03553
1
0.942312
1.22325
1.13066
1.09644
1
1.03233
1
1.12733
1
1
1
1
1
1.03158
1
1
1
1
1
1
0.860791
1.17441
1
1.02165
1
1
1
1.05629
0.923696
0.847771
1
0.843955
1.13611
1
1
1
1.13069
1.00016
1.16572
1.00022
1.25838
0.886504
0.879783
1
1.23808
1
1
1.24262
1
1.27773
1.27275
1.12192
1.25545
1
1
1.2285
1.22971
0.895047
1.21951
1
1.22071
1.15273
1
1.21298
1
0.942829
0.946301
0.899567
1.20392
0.889944
0.935629
1
1.21439
0.956394
0.95939
1.15592
1.16023
0.837258
1.16121
1.1547
1.03546
1.15934
1.16049
0.937264
1.19581
1.32072
1.06177
1.31131
1.15831
1.37341
1.24135
1.15848
0.936479
1.16184
1
0.965138
1.16079
1.38179
1.29677
0.891456
1.1239
1.16089
1.35273
1.00463
1.36712
0.887665
1.36564
0.924805
1
1.1527
0.861977
1.00243
1.1104
1.35547
1.16318
1.0917
1
1.0847
1.2377
1
1
0.87796
1
1
1.08656
0.924742
1
1.33095
1.31455
1.33359
1
0.880714
1.12947
1.16108
1.16008
1.13166
1.31732
1.08959
1.15883
1.2057
0.939679
1.21624
1.30264
1.18909
1.30483
1.27968
1
0.935997
1
1.0395
1
0.857687
1.04832
1.28192
1.16543
1.0934
1.16865
1.12102
1.23784
1.15352
1.05961
0.904732
1.21553
1
1.257
1.26029
1
1.2596
1
1
1
1
1
0.931346
1
0.923444
0.846529
0.87915
1.23075
0.831399
0.878434
1.24132
0.855116
1
0.832516
0.922327
0.951662
1
1.05627
1.14748
1
1
1.27011
0.868995
0.907535
0.90333
1.13702
1
1
0.855931
1.01725
1.09699
1.2051
0.853713
1
1
1
1.3109
1
1.22463
1.22653
1.08864
0.837815
1.19907
1.21363
1
1.05922
1.21643
1.29634
1.15836
1
1.26504
1
1
1.15113
1.20154
1.09503
1.24985
0.839219
1.25713
1.26949
1.20108
1
1
1.14804
1.01107
1.02798
0.992411
1
0.850138
1.00575
1
1.16948
0.826283
1
1.1809
0.767848
1.18465
1
1
0.991181
1.21309
0.826461
0.883756
0.776441
0.959009
0.932966
0.946142
0.821899
1.12998
0.988535
0.966782
1
1.17126
0.822298
0.825181
0.956437
1.19103
1.18089
0.927484
1
1
0.966297
0.964494
0.808583
1
1.13858
0.82912
1.1499
1.14309
1.15366
0.949104
1.13931
1.20867
1.16002
1.2106
0.84891
0.934078
1.13997
0.945856
1.05375
0.842015
0.926067
1.15466
1
0.934782
1.09591
0.863749
1.28058
0.897217
1.11134
1.16175
1.28031
0.823452
1.11885
0.966294
1
1.15748
1.12153
1.21018
1.23405
1
0.974187
1
1.0651
0.922931
1.14707
0.832641
0.828477
1
0.826699
0.877409
1.11194
1
0.823511
1.09016
1.13784
1.34432
1.09662
0.824979
0.916337
0.957665
1.13669
1.34716
0.8355
1.08404
1.09161
1
1.09283
1
1.09141
1.26691
1.0863
0.870873
1.24356
1.12015
1
0.833144
1.29482
1.15533
1
0.822494
1.29802
1.18488
1.5307
1.09641
1
1.05611
1.28866
1.06616
1
1.27413
1.06818
1
1.18267
1.27666
1.08467
1.32972
1.25124
1.05771
0.943449
1
1
1.25288
0.851954
1
0.86126
1.10351
1.18615
1.19478
0.869342
1.09681
0.942683
1
0.876613
1.32419
1
1
1.21099
1.3196
0.867521
0.914344
1.03832
0.816697
0.812654
1.13456
0.941462
1.03976
1.03178
1.13391
1.24397
1.15095
1.03465
1.13256
0.912949
1.12081
1.11708
1.06123
1.06846
0.859266
1
1.1389
1.32746
1.01616
1.21323
1.32401
0.882539
1
1.01814
0.990983
1.07661
0.900041
1
1
1.1559
1.1543
0.948613
1.11431
1
1
1.11508
1.1378
0.984824
1
1
1.01893
0.997017
0.999239
1.27695
1.09891
0.883386
1.03583
0.992732
1
0.880789
0.984302
0.922349
0.873524
1.13871
1.15832
1.39679
1.19471
1.09547
1.20598
0.97077
1.20486
1.19617
0.811364
1.05592
1.07471
1
1.06062
1
1
0.967187
0.956851
0.979021
0.958727
1.27689
1.15396
1
1
0.974162
1.16472
0.900714
0.929376
0.96344
0.899627
1.10476
1.13924
1.16676
0.90669
0.854292
0.95534
1.33169
0.87524
1
1.0221
1.13406
0.905333
1.33235
0.970909
1.09337
1
1
1.09101
1.00366
1.28853
1
0.999973
1.00098
1
1.13398
0.923188
0.911613
0.906444
0.960694
1.1357
0.923551
1
0.909832
0.912369
1
0.859089
1.16812
0.921901
1.08759
1.09671
1
1
1.13662
0.93484
1.10553
0.913801
0.916227
1.32192
0.907778
1.23995
1
1.10502
1
1
1.12553
1.0917
1.09743
1.10791
1
1.17028
1.13403
0.923573
1.21659
0.918506
1.23745
0.9439
1.22898
1
1
0.896929
0.932189
1.1381
0.919315
0.999986
1
1.15757
0.916973
0.876738
0.918022
1.07523
1.1149
0.978619
1
1.39029
0.999993
1.07852
1
1.22273
1.23656
0.806752
1
1.05593
1
1
1
1
1
1
1.22861
1.21753
1
1.22448
1.21419
1
1.09874
1.29007
1
1.03955
1.1177
1.36087
1
1
0.90333
0.864863
0.932737
1.13164
1.20701
1.3596
1.03627
1.10083
1.16281
1
1
1
1
1.14952
1.05098
1.3676
1.12982
1.15437
0.928434
1.05334
0.901883
0.935387
1.01938
1.32213
0.816647
1.36324
1.09035
1.3676
1.09472
1
1.1295
0.797803
1.15121
1
1
1.13594
0.796756
0.948685
1.02262
0.833075
1.33766
1
0.906574
1
1.05595
1.01104
0.811471
1.15477
0.896942
0.944299
1.089
1.32583
1.11833
1.33979
1.06411
1
1.15183
1.12513
0.901372
1.28623
1.27017
1.05255
1
1
1.11053
1.30877
1.16809
1.24575
1.32455
1.14786
0.854314
1.16887
1
1.16484
1.15153
1
1.31069
0.98932
0.853267
1.28955
1.1027
1.15582
1.0679
1.2659
1.06548
0.968593
1
0.983775
0.977707
1.26978
1.06405
1
0.98684
1.08242
1.12794
1.1536
1.24814
1.13164
0.965036
1
1.13741
1
0.965837
0.810303
1
1
1.31988
1.04887
1.20433
0.815793
1
1
1.20549
1.14957
1.15218
0.811949
1
1.16593
1
0.950475
1.29518
1.1236
1.11244
0.791859
1.01176
1
1.22006
1.08433
1.11421
0.998065
0.947125
1.13024
1.0773
1.0059
0.999993
1.23037
1.03058
1.28701
1
1.22179
1.209
0.999999
1.15941
0.927386
1.02499
0.773554
1.23296
1.18306
1.04751
1.13112
1.17431
1.00358
1.18918
1.04205
0.773101
1.43449
0.768277
1
1
0.997142
1.01867
0.77174
1.19161
1.06103
1.17685
1.12899
1.2284
0.999982
1.33183
1.18295
1.14328
0.929304
1.23235
1.10305
0.99922
1.12185
1.05856
1.08939
1.1585
1.30545
1.09867
1.11712
1.13982
1.1612
1.14568
1.15102
1.42836
1.17431
1.16654
1.07329
1.32374
1.11412
1.17296
1
1
1.15392
1
1
1.01096
0.891297
1.1184
1.12685
1.18895
1.29846
1.28819
1
1.05203
1.30444
0.94052
1.18018
0.93871
1.13019
0.821469
0.867085
1.11544
0.891132
1.4336
0.866017
0.956135
1.15622
0.934313
1.08926
1.4286
1.13394
1.31592
1.1095
1.09636
1
1
1.08776
1
1.10781
1
1.12863
1.09947
1.08955
1.10483
1.08481
1.40164
0.938736
1
1.21479
1.12227
1.18623
1.11795
1.40532
1.22608
1.13137
1.06076
0.999999
1.11528
1.07088
1.0359
1.06383
1.14233
0.894542
0.852437
1.38357
1.15455
1.13566
1.13998
1.07196
1.13594
0.973061
1.06289
1.01066
1
1.38819
1.15712
0.966939
0.964144
1.05878
1.03308
1.04954
0.893665
0.93273
1.0948
1.0691
0.950064
1
1.14655
1.10996
0.971168
1.12604
0.981853
1.36148
1
1.04297
1.03681
1
1
1
1
1.36588
1.22436
1.02153
1.2326
0.959654
1
1.04653
0.966215
1.13675
1.11623
1.0366
1.08942
1.0899
1.1229
0.951933
1
1
1.00032
1.17789
1
1
0.964257
1.1509
1.02609
1.34535
1.07256
1.14203
1
1.12209
1.12053
1.12171
1.15906
1.17001
1.07325
1
1.01563
0.936045
1
1.34919
0.996898
1.16252
1.13932
1.16495
1.01501
0.9312
1.13594
1.24936
1.12297
1.18355
1.1738
1
1.12047
1.14122
1.17997
1.08473
1
1
1.12046
0.994662
0.933574
0.810332
1.13663
1
1.31892
1.18659
1.19838
0.938249
0.994776
1.19181
1.19491
1.05678
0.813176
1.32115
1.18673
0.935783
0.980364
0.966775
0.938129
1.26018
0.97476
0.795937
0.966717
1
1.0151
1.11537
1.05213
1.02364
0.94459
1.20673
1.33187
0.928938
1.0552
1.11836
1.05615
0.899427
1.0818
0.949255
1.20362
0.945052
0.922982
1.02464
0.922539
1.11227
1.11817
1.1223
1.11525
1.20092
0.925338
1.10643
0.923623
0.882923
0.960301
1.10868
0.961486
1.26775
1
1.05805
1
0.940654
1.27131
1
1
0.936749
1.22564
1
0.962795
1.10592
1.33242
1.09035
0.999611
0.812555
1
0.916219
0.966525
1.24913
0.954103
1.05023
1.25233
1.05095
1.1545
1.15619
1
0.79434
1
1.23445
1.10065
1.23238
1.02431
0.914262
1.20757
1.23758
1.20883
1
0.912517
0.798579
1.22174
1.44531
1.22498
1.12829
1.01555
1.22482
1.03505
1.10726
1.43805
0.912494
1
0.967829
1.32444
0.933002
0.803164
0.998134
1.20736
0.858156
0.930342
0.842814
0.980294
1.21056
1.12809
1.11231
1
1.03514
1.03579
1.42614
1.22333
1
1.19585
1.14183
1.13932
1.21922
1
1.42858
1.19847
1.16118
0.97347
1.23137
1
1
1.22669
1.18098
1.24017
0.818776
1.2357
1.18366
1
1.03814
1.07092
1.06247
1.17065
0.967204
0.830554
0.831815
1.2607
1.17343
1.21677
1.13389
1
1
1
0.971607
1.15646
1
1.00866
0.816159
1.24377
1.10898
1.15241
1.10862
0.949927
1.15949
1.13655
1.00608
1.17285
1.15666
1.015
1.13697
1
0.771476
1.14969
0.94355
0.785158
1.15726
1.15183
1.24805
1.01154
1.26364
1.25973
1
0.944732
0.832384
1.14842
1
1
1.03154
0.999987
1.25674
0.857576
1.14904
1.14224
1
1.16965
1.16071
1.02832
1.33496
1.04207
0.777692
1.13314
1.15258
0.962998
1.25218
1
0.967969
0.966433
1.04075
1.33968
1.13683
1
0.931436
0.885535
1.14869
1.26714
1.11159
1.13403
1.27155
1.14894
1
1.05044
1.06128
1.13461
1.53637
1.22517
1.32712
1.12581
1.13002
1.15335
1.21148
1
1
1.14105
1.05877
1.12595
1.14441
0.956597
1.06793
1.13018
1.30632
0.960292
1
0.885004
1
0.84984
1.06433
1.11038
1.11478
0.993497
1
1
1.27555
1.29365
1
1
1.08504
0.992452
1.10662
1.28526
1.08243
1.06739
1.09632
1.09781
1.15403
0.966308
1
1.06862
1.09892
0.963546
0.96696
0.861424
1.09505
1.15316
1
1.14657
1
1
1.33138
0.964391
1.00653
1.26161
1.0823
1.32715
0.965974
1
1
1.08535
1.33249
1.18603
0.795726
1.11581
1
1.26402
1.08132
1.11251
1
1
1
1
1.12404
1
0.960619
1.06785
1.17005
1.10629
1.07012
1.00014
1.12032
1
1
1
1.1386
1.05475
1.05784
1
1.12827
1.13582
0.881834
1
1
0.866805
0.959535
1
0.9142
1.14629
1
1
1
1
1
1.04111
1
0.983898
1.14257
1
1.18668
1.1465
1
1.04405
0.868341
1
0.90132
1.14365
1
1
1.18408
1.20321
1
1.00029
1
0.867477
0.866482
0.980356
1.16595
0.812268
1.18583
1
1
0.981783
1.18384
1.21339
0.868092
1.16324
1
0.994121
1
1.20058
1.24988
0.988826
1
0.867833
1.00017
1
0.878781
0.869673
1.18167
1.0383
1
1.19697
1
0.966786
0.908577
1.18673
0.871305
1.19355
0.797445
1
0.853743
0.931618
1.18747
0.963872
1.4314
1.1068
1.18177
1.00295
1.01265
0.877337
1.21902
1.13397
0.999833
1
1
0.890661
0.869379
1.11334
0.830864
1.20378
1.41211
1.43507
1
1.19841
1.33459
0.926232
1.21607
1.39371
1.15256
1.01474
0.931135
0.989231
1.20781
1.41718
1.12719
1.21392
1.01191
1.10638
1.10621
0.871286
1.04236
1.37243
0.921282
0.878164
1
1.10412
1
1
0.867731
1.23932
1.39667
1.03994
1
1
1.04285
1.10216
1
1.35379
1
1.23565
1.10693
1
0.854861
1
1.23412
1
1.13119
0.858511
1
1.37738
0.787376
1.23232
1
0.87656
1
1.14927
1.02918
1.00115
1.24847
1.02426
0.839756
1.24841
1.07731
0.905492
1.23457
1.32527
1.35648
1.04509
1.24537
1.24427
0.847749
1.07934
1.15231
0.911252
1
1.1926
1
1.32235
0.972558
1.26283
1.26091
0.838324
0.989601
1.02462
1
1.06313
1.14232
0.968867
1.00446
0.945104
1.32894
1.04893
1.01624
1
1.04997
1.25687
0.999996
1
1
1.25941
1.01777
1.11402
1.05157
1.13216
1
1.27648
1.31482
1.20062
1.27378
1.03452
1
1.32704
0.845681
1.2729
1.2763
1.03744
1.19872
1.0127
1
0.937187
1.26877
0.962499
1.30046
1.25589
0.966857
0.967968
0.966827
1.38641
1.28011
0.968258
0.854019
1
1.19099
1.28631
1.12208
1
1.29495
1
1.23251
1.12203
0.934764
1.25235
1.24142
1.09603
0.954416
1.18036
1.2181
1.21519
1
1.0962
0.954435
0.897752
1.09654
1.29046
1
1.25851
1.28369
1.22833
0.955022
0.961614
1
1.27282
1.21587
1.35745
1
1.20224
0.904868
1.19227
1.2361
0.951468
1.24503
1.21461
1.05706
1.21777
1.25546
1.1299
1.30056
1.17865
1
1.12492
1.23271
1.23112
1.20164
1.19126
0.869646
1.29176
1.31194
1.27528
1.1297
1.06639
1.30609
1
1.29619
1.21804
1.22813
1.18767
1
1.30806
0.973761
1
1.36558
1.20398
1.17631
1.24241
1
1.29537
0.973878
1
1.19165
1.32674
1.1639
1
1
1.23805
1.17808
1
1.32265
1
1.15073
1.30316
0.992796
1
1.16727
1
1.14203
0.865866
1.00001
1.07384
1.33083
1.15322
1.12737
1
1
1
1.26025
1.32678
0.971559
1.1454
1.12157
1.11998
1.25794
0.859979
1.01781
1.19988
1.00014
1
1.11245
1.11783
1.01826
1
1.25602
1.20289
1
1.12978
1.04623
0.894973
1.04709
1.33049
1.17693
1.10112
1.28673
1.14339
0.969054
1.12306
1.08465
1.08462
0.884674
1.15087
1.1692
1
1.35788
1.33791
0.970476
1.08915
1.26792
0.791365
1.15216
0.965845
0.94025
1
1.10199
1.17921
1.19331
1.19137
1.17911
1
0.789862
1.0726
1.10656
1.19142
1.09293
1
1
1.17738
1.06172
1.18912
1
0.82717
1
1
0.792741
1.19202
1
1.07445
1.24382
1.11893
1
0.946306
1.1128
1.18678
1.04661
1
1.06478
0.947849
0.964797
1.1209
1.23084
1.17539
1.14598
1
1.19921
1.21825
0.798096
1
1
1.0283
0.809947
1.04783
1.24028
1.14357
1.18468
1.1966
1
1.14457
1.21272
1
0.783037
1.03074
1.01897
0.918398
1.03311
1
0.963316
1
1.19542
1.15641
1
1
1.10556
1.09456
1.12104
1.20191
0.809053
1
1
0.930936
0.790535
1.16069
1.08941
1.30854
0.877006
1.19301
1.11479
1.20967
1
1.15747
1
1.20766
1
1
0.766345
1
1.20289
1.01614
1
0.862537
1.17084
1.10015
0.863704
1.32665
1.1575
1
1.10596
1.18096
1
1.20021
1
1.18999
1.19569
1.16829
0.950866
1.15255
1
1.12037
1.12854
1.43376
1.23018
0.825339
1
0.949552
0.824712
1.21928
0.949371
1
1
0.971121
1.13995
1
0.82867
1.1454
1.17985
1.13961
1.21185
0.810951
1.21714
1.00089
1.03417
1.07321
1.0035
1.00439
0.947897
1.17757
1.07208
0.933411
0.960366
1.23024
1
1.20936
1.03106
1
1
0.91063
1
1.22862
1.21395
1.11489
1
1.1898
1.2267
1.09579
0.930739
0.856072
1
1.22149
1.20821
1.31989
0.789174
1.1872
1.09684
1.10817
0.925669
1.2251
0.855353
0.806396
0.808999
0.946261
0.810633
1.21919
1.2026
1
1.13015
1
0.880128
0.980922
1.27648
1.2607
1
1.31397
0.82107
0.967315
0.802354
1.1979
1.12732
0.812346
1
1.12378
0.976554
1.23681
1.15627
1.19072
1.24197
1
1
1
1.10577
1.09928
1.19512
0.877615
1.3085
0.856752
1.23872
1.02069
1.26451
1.22323
1.27904
1.18623
1.12661
0.959428
1
1
0.803298
1
1.20691
1.02246
0.889833
1.08944
1.05303
0.993854
1.10439
1
1.11589
1
1
1.13739
1.20671
1.0594
1.24014
0.935664
1.20203
1.14104
1.34941
0.93316
0.888216
0.981508
1
0.96996
1.20404
1.04992
1.05301
1.11098
1.0465
1.13039
1.05278
1
1.10444
1.10566
0.902089
0.998956
1.11033
0.928201
1.01371
0.965328
1
0.83364
1.13583
1.08206
1.04466
0.969008
1
1
1.05292
1
1
1.10446
1.16525
0.963924
0.930448
0.901354
1.10884
1.08316
1.21471
1
1
0.868054
0.927033
1.05662
1.02321
1.12055
1
1.0909
0.813433
1.04625
0.954187
0.920041
0.87924
1
1.16065
1.10687
1.09451
1.21196
0.993598
1
1
1.32839
1.08264
1.21779
1.08798
1.1224
1.24848
1.01908
0.99205
1
1.07709
1.06271
1.21505
1
1.04298
0.941522
0.854526
1
0.991037
1.12324
0.803702
0.952927
0.866699
1.11791
1.19962
1
1.16245
1.08348
1.25722
1.11574
1.03352
0.821961
0.79881
1.07256
1.24495
1.11494
0.919543
1.1022
1
1.13423
1
0.856378
1
1.24144
1.12512
0.801691
1
1.03613
1.2257
0.945228
1
1.19648
0.938361
1
0.948273
0.917456
1.09947
0.938808
1.13073
1.18748
0.853151
1.2229
1.08032
1.09492
0.85237
0.929909
1
1.12813
0.977759
0.987063
0.960885
0.965496
1
0.815621
1.13673
1.01147
1.01296
1.05485
0.92867
1
1.1179
1.12526
1.13788
1.11456
0.92842
0.937636
0.936224
1.16289
1.11078
1.18689
0.955851
1.15495
1.11644
0.999244
0.891912
1
0.926423
1.15988
1
1.08969
1
0.917617
1.00962
1
1.1385
1.10859
1
1.16386
1
0.984467
1.14205
1.14977
1.14859
1
0.814143
1
1.17088
1.37995
1.06748
1
1.09228
1.2178
1.11212
1.14237
1.01034
0.873639
0.972892
1.01039
1
1.28694
0.936909
0.999994
0.924727
1.1508
0.871538
1.06882
1.26023
0.878011
1.23894
0.92595
1
1.14545
1.22428
1.16796
1.09914
0.996127
1.00011
1.19169
0.999924
0.934788
1
1.23681
1.11583
0.916472
1.00021
1.12162
1.14759
1.22075
1
1.1948
1.37364
1.22839
1.07359
0.95425
1.18924
0.945857
1.0969
1.26802
1
1
0.942181
1.01041
1.17873
1.13704
1.21446
0.946713
0.924
1.19712
0.870835
1
0.925777
0.996771
1.22695
1
0.944186
0.95563
0.877341
1.09894
1.22155
1
1
0.963117
0.819433
1.18135
0.774348
1.1564
1.12898
1.18707
0.87564
1.29684
1.14508
1.23458
1.26824
0.804254
1.02896
1
0.923292
1.35014
1.21796
1
0.921343
1.00542
0.842053
1.19289
1.14118
1.16085
1.07542
1.15329
0.871664
1.08979
1.2518
0.97626
1.26659
1.25599
1.14791
1.28201
1.24469
1.29249
1
0.929698
1.23033
1.20962
1
0.932322
1.08879
1.08529
1.24832
1.07303
1.32674
0.883304
1.09965
1.07811
1
1.10179
1.30512
1
1.1814
1.07856
0.930127
0.968826
1.08662
1
0.970024
0.916862
1.11471
1.10052
1.02075
1.13598
1.1835
1.08553
1.08743
1
1.29027
0.912167
1.18741
1.10547
1.0253
1.11777
1.191
1.3413
1
1.10407
1.20044
1.26375
1
1.25088
1.27781
0.963056
1.24195
1
1.22664
1.28798
1.08946
1
1.18862
1.02448
1.28086
1.30229
1.20673
1.16252
0.886174
1.13082
1.19838
1
1
1.24605
1.21777
1.32207
0.927355
1.14709
0.908624
0.872535
1.08296
1.01594
1.02581
0.986587
0.963373
1.11527
1.14314
1.18904
0.906491
0.887316
0.962335
1.17299
1.02089
1.05742
1.27782
1.18119
1
1.01061
1.0808
1.20461
1.28416
1.20714
0.927129
1.20207
1.02308
1.26296
1.18845
1.11037
1.30155
1
1.17318
1.06528
0.925698
0.871444
1.02339
1
0.867618
1.06034
1.15432
1.05747
0.861847
1.07118
1.25167
1.13306
1.19625
0.904848
1.33518
1.07025
0.982645
1.14632
0.820742
1
1.29724
1.2169
1.14924
1.34738
1.06086
1
1
0.906209
1.08611
1.12626
1
0.917441
0.792164
1.14858
1.14651
1.02393
0.932252
1.1403
1.20496
1.14809
1.15867
1
0.926071
1.06319
1.13805
1.30191
1
1
1.04315
1.10697
0.998454
1.25414
1.15185
1.05868
1.07343
1.2534
1
0.999998
0.994188
0.985485
0.906339
1.16633
0.984798
0.905431
1.07647
1.21449
1
1.14776
1.17663
1
0.805884
0.986725
1.16299
1.05456
1
0.8724
0.812125
0.985802
1.0507
0.829593
1.12963
1.12406
1.03647
1.09716
1.07552
0.875889
0.982554
1.0887
1
1.12128
1.08947
1.13691
1.22362
0.880944
0.901143
0.983264
1.0102
1
1.08487
0.999996
1.16674
1.21367
0.832687
0.874913
0.876985
0.894769
1
0.987215
1
1.12545
0.869924
1.01445
0.882455
1.15358
0.882506
1.24033
1.07191
1.37553
1
1.05491
0.878757
0.907888
0.872902
1.25345
1.24727
1
1.13556
0.882251
1.2945
1
1.01572
1
1.23066
0.985805
1.07009
1.02803
1
0.830481
0.963241
0.878516
1.13265
1
1
1.23226
1.05367
1.11617
1.10247
1.11258
1.23028
1.20832
1.24975
1.1029
1.09829
0.866461
0.907164
1.2072
1.22791
1.00963
1
0.910612
0.916594
1.02931
1.24168
0.870294
0.999993
1.04183
1
1.02383
1.0285
1.04422
0.949999
0.966681
0.849736
1.20277
1.00019
1
0.809091
1
0.873009
1.04332
1.21467
1
1.04873
1.05697
1
1
0.870391
1.12188
0.870757
1.19803
1.12137
0.833218
0.926771
1.16397
0.969334
1.03824
1.26216
1.33628
0.999998
1.22463
1.17599
1.04494
1
1.38307
0.823315
1.20064
1.23601
1
1.04288
1.21017
1.10392
1.28014
1.24915
1
0.990594
1
1
1.12336
1.06031
0.922504
1.18265
0.995637
1.05789
0.942779
1
0.98837
1.15458
1
1
1.24339
1.18831
0.850856
1.28555
1
1.26828
0.980926
1.19412
1
1.24405
1.02204
1.21343
1.21046
0.989122
1
1.05805
0.827786
1.15371
1.05192
1
1.142
1.24093
0.931759
1.21985
1.09564
1.18913
0.977791
0.950576
1.15059
0.952599
1.38526
1.07123
1
1
1.28598
1.35061
1.23388
1
1.05242
1.03771
1.20873
1.03713
1.00001
1.2113
0.872866
1
1.04027
0.948965
1.11442
1
1.15538
1.24679
1
0.800994
1
1.09661
0.928498
1
1.06839
0.968265
1.2624
1.01741
1
1.14706
0.799899
1.07839
0.965892
0.898388
1.04109
1
1.07104
1.1574
1.1495
1.26456
1
0.80635
1.00013
1.08528
1.16648
1.38964
1
0.87118
0.999999
1.13875
1
0.994805
1.1083
1.13502
0.798062
1
1.18103
0.874594
0.968716
1.25445
1.17582
1.24178
1.19814
1.08187
0.932872
1
1
1.14788
1.15279
1.22697
1.19224
1
1.32691
1.15681
1.02961
0.933343
1.04803
1.25346
1
1.10042
1
0.971141
1.25172
1.23015
1.23454
1.29782
0.889383
1.18466
1.37007
1.16351
1.32965
1.23058
1.18539
1.17358
0.988127
0.973453
1.01614
0.873215
1.18683
0.966391
0.996863
1.09751
1.13509
1
1.13037
1.23077
1.17283
1.19342
1.27912
1.11231
1.03101
0.92809
1.11975
1.22787
0.950776
0.989183
0.885356
1.31095
1.2326
1.25589
0.963759
1
0.840504
1.26083
0.842131
1.12955
1.0726
1.13581
1.18157
1.21143
1.12167
0.856418
1.0969
1
1.10858
1.31543
1.11143
1.20208
1
1
1.16613
0.83714
1.21933
1.24448
1.26252
0.836121
1.12346
1.085
1.23158
1.03599
1.17544
1.17378
1.11619
1.19118
0.86118
1.13253
1
0.949652
1.0164
0.933644
1.16938
1.24541
1.20747
0.988256
1.12176
1
0.976379
1.21041
1.06258
1.12143
1.12995
1.1755
1.03137
0.842472
0.860467
1.22545
1.09236
1.02102
1.136
1.08097
1.19972
1.37637
1.12595
1
1.04066
1.17567
0.881865
1.2101
1.12145
1.09763
0.78835
1.02149
1.11274
1.00428
1.03396
1.07816
1.16712
1.22396
1.05758
1.21402
0.79134
1.19764
1
1.39079
1
1.15006
1
1
1
1.00005
1.28417
1.13099
1.21994
1.12271
1.21714
1.14155
1.20466
1.08212
1
1
1.11466
1.10025
1.20811
1
0.959839
1.18869
1.10057
1.14693
1
0.777949
0.99979
0.855555
0.783694
1.21495
0.939847
1
1.14553
1.0267
1.19718
0.835749
1
1.21753
1.20357
0.873212
1.13704
1.1459
0.799997
1.20163
0.846334
1.00252
1.21706
0.840509
0.842005
1.02193
0.842603
1.20733
1
1.15792
0.865819
1.07917
1.23595
1
1.1597
1.16116
1.06514
1.19212
0.83684
0.864614
1
1.28368
0.838579
0.835342
1.11238
1.18697
1.17869
1.36977
1
1.20322
1
1.18026
1
1.15369
1.05863
0.80561
0.91371
1
1
1
1.18417
1.37048
1.17103
1
1
1.16934
1.06588
1
1.34762
0.861636
1.2255
1.12598
0.936305
0.939868
1.1391
1.05522
1.17225
1.18936
1
1.3502
0.92438
1.13764
1
0.927576
1
0.853454
1.19033
0.854857
0.981857
1.19986
1.02567
1.21341
1
1.00464
0.932585
1.23343
1.04172
1
0.956206
1.34866
1
1.25693
0.973652
0.895839
1.19325
1.28832
0.927251
0.859725
1.27139
0.941415
1
1.16952
1
1.00296
1.14043
1
1
1
1.09569
0.945841
0.884587
1.25799
1.24692
1.18186
0.968249
1.11542
0.879478
1.20937
1
0.964076
0.87152
1.20282
0.876284
1.10984
0.985619
1.36346
1.18091
0.925523
1.12689
0.887078
1.02797
1.13244
1
1.07875
1.09536
0.878895
0.922398
1.19977
0.912393
1
1
1.20301
1.10172
0.93035
0.843683
1.11449
1.19438
1
1.11105
1.11432
0.959866
0.985847
1.04888
1.20496
1
0.939461
1.17887
1.01832
0.845437
0.914579
1.20562
1.17833
1.30854
1.0001
1
1.18721
1
1
1.13832
1
1.1848
1.33168
1.00753
1
0.961561
1
1.03112
0.894793
1
1.00602
0.954807
0.982335
1.35619
0.976924
1.3388
1.05416
1.21321
1.03079
1.19772
1.34581
1
1.23428
0.947294
1.34347
1.11981
1
1.23722
1.24517
0.961894
1.04967
1.12422
1.01106
0.803473
0.88281
0.984168
1.03026
1.16177
1
1.1162
1
0.978141
0.882649
1
1
1
0.957187
1
0.959412
0.853359
1.01916
1.12893
1.26471
0.968122
1.07751
0.994653
1.34238
1.19426
0.991981
1
1.22464
1.32347
1
1
1
1.25173
1.34938
1.1525
1
1
0.965838
1.00004
0.873369
1.13546
1.23028
1.00173
1.07274
1.1592
1.25877
1.20679
1.2324
1
1
1.14045
1.22349
0.834143
1
1.3086
1.2875
1.2281
0.837519
1.23409
1.05475
1.11137
1
1.32885
0.999963
1.12848
1.02141
0.917468
1.2164
1.13853
1
1
1.22124
0.800462
1.13222
1
1.13132
1.08523
1.30841
1
1.34607
1.10984
1
1.00002
1.08876
1.20329
0.981846
1.24987
1
1.28027
1.20538
1.2119
1.016
1.29451
0.856994
1.11513
1
1.25614
0.865651
1.30027
0.899851
0.986387
0.997083
0.86376
0.990752
1.00969
1.09443
1.10392