/*--------------------------------*- C++ -*----------------------------------*\
  =========                 |
  \\      /  F ield         | OpenFOAM: The Open Source CFD Toolbox
   \\    /   O peration     | Website:  https://openfoam.org
    \\  /    A nd           | Version:  12
     \\/     M anipulation  |
\*---------------------------------------------------------------------------*/
FoamFile
{
    format      ascii;
    class       volScalarField;
    location    "4.7";
    object      rho;
}
// * * * * * * * * * * * * * * * * * * * * * * * * * * * * * * * * * * * * * //

dimensions      [1 -3 0 0 0 0 0];

internalField   nonuniform List<scalar> 
46253
(
1.25326
1.40001
1.40001
1.40001
1.40001
1.40001
1.21166
1.46401
1.40001
1.40001
1.2574
1.20049
1.4
1.4
1.40001
1.40001
1.40001
1.40001
1.40001
1.40001
1.40001
1.40001
1.40001
1.22597
1.20538
1.40001
1.40001
1.40001
1.40001
1.46375
1.52911
1.56144
1.6672
1.40001
1.40001
1.40001
1.40001
1.40001
1.4544
1.40001
1.18025
1.20139
1.39778
1.38951
1.18745
1.40001
1.40001
1.40001
1.87564
1.87081
1.86447
1.86521
1.40001
1.45864
1.40006
1.27173
1.82413
1.81911
1.65564
1.15078
1.40001
1.36852
1.40001
1.40001
1.40001
1.40013
1.40023
1.40001
1.27494
1.19574
1.21215
1.80811
1.80661
1.44569
1.40001
1.22441
1.74523
1.74367
1.40001
1.98011
1.9855
1.78197
1.40001
1.78029
1.18297
1.40001
1.69227
1.69
1.46034
1.40001
1.40001
1.18359
1.40001
1.84206
1.40001
1.83499
1.40001
1.40001
1.65322
1.40001
1.40001
1.40001
1.40001
1.52406
1.39999
1.18692
1.20703
1.64252
1.64034
1.22726
1.45835
1.79421
1.79015
1.40001
1.40001
1.45614
1.15738
1.15536
1.84571
1.28662
1.40001
1.40001
1.77158
1.76896
1.40001
1.85543
1.40001
1.25107
1.38758
1.7312
1.61018
1.60813
1.40001
1.20689
1.72836
1.40001
1.71582
1.71431
1.28278
1.40001
1.75142
1.59249
1.59086
1.5133
1.75328
1.40129
1.69973
1.69771
1.45488
1.40001
1.22471
1.40001
1.72341
1.72134
1.47355
1.16108
1.24973
1.40001
1.67714
1.40002
1.6755
1.20677
1.26797
1.40001
1.20534
1.70824
1.20784
1.70585
2.03307
1.40001
1.6623
1.66052
1.40001
1.18531
1.40001
1.23138
1.44939
1.40001
1.44385
1.16021
1.4
1.47127
1.64881
1.64728
1.40001
1.68514
1.68216
1.1982
1.40001
1.40001
1.40001
1.40001
1.16712
1.40001
1.40001
1.40001
1.4586
1.40001
1.49569
1.49316
1.40001
1.40001
1.66981
1.66767
1.40001
1.17002
1.46716
1.62837
1.62672
1.40001
1.40001
1.84531
1.18708
1.40001
1.44822
1.40001
1.50802
1.18396
1.61603
1.40001
1.40001
1.61451
1.24652
1.65535
1.6538
1.18645
1.40001
1.40001
1.46856
1.46666
1.59729
1.40001
1.40001
1.40001
1.40001
1.40001
1.40001
1.40001
1.59493
1.61438
1.40001
1.40001
1.40001
1.40001
1.40001
1.40001
1.40001
1.46615
1.40001
1.59747
1.59616
1.61155
1.44236
1.40001
1.44079
1.63522
1.63274
1.29923
1.16506
1.40001
1.20171
1.18558
1.22266
1.5163
1.43353
1.40001
1.40001
1.40001
1.62228
1.57924
1.62087
1.40001
1.40001
1.40001
1.57783
1.40001
1.40047
1.40001
1.45725
1.31881
1.41701
1.41521
1.40001
1.40001
1.40001
1.1718
1.16771
1.28751
1.49783
1.40001
1.64452
1.64233
1.17987
1.40001
1.63439
1.56158
1.40001
1.55805
1.18722
1.56856
1.82931
1.56734
1.25789
1.8316
1.40001
1.60361
1.60165
1.40001
1.51485
1.40001
1.40001
1.44731
1.40001
1.55616
1.40001
1.55459
1.27376
1.6321
1.40001
1.45623
1.25274
1.40001
1.21321
1.20549
1.45397
1.49283
1.40001
1.40001
1.54528
1.544
1.36893
1.36667
1.40001
1.40001
1.40001
1.39016
1.29476
1.58633
1.58367
1.40001
1.40001
1.40001
1.40001
1.86314
1.40001
1.53393
1.53254
1.40001
1.28374
1.40001
1.45937
1.40001
1.15101
1.40001
1.21056
1.40001
1.57383
1.40001
1.57275
1.40001
1.20982
1.40001
1.40001
1.40001
1.40001
1.40001
1.40001
1.40001
1.52222
1.40001
1.40001
1.40001
1.40001
1.52097
1.40001
1.6243
1.27979
1.40001
1.40001
1.40001
1.18741
1.4149
1.25397
1.56286
1.46116
1.56107
1.40001
1.40001
1.5111
1.87552
1.40001
1.49997
1.50976
1.16052
1.40001
1.46327
1.452
1.45176
1.40001
1.52959
1.40001
1.3162
1.31565
1.62133
1.40001
1.40148
1.40001
1.40001
1.40001
1.40001
1.40001
1.40001
1.79369
1.40001
1.5224
1.40001
1.17068
1.40001
1.40001
1.29974
1.40001
1.40001
1.50031
1.40001
1.55006
1.40001
1.40001
1.49934
1.54881
1.40001
1.44984
1.40001
1.40001
1.40001
1.40001
1.48255
1.45712
1.40001
1.40001
1.45977
1.25597
1.40001
1.15732
1.40001
1.48459
1.47833
1.40001
1.40001
1.28489
1.40001
1.32142
1.53214
1.40001
1.23561
1.40001
1.74902
1.45794
1.39805
1.53965
1.49468
1.40001
1.49118
1.49226
1.5383
1.40001
1.48862
1.40001
1.40001
1.40001
1.40001
1.40001
1.43705
1.40001
1.45843
1.25838
1.48426
1.30851
1.46173
1.4834
1.43383
1.28752
1.28679
1.40001
1.40001
1.40001
1.40001
1.38747
1.40001
1.32605
1.18507
1.17912
1.32865
1.49163
1.15743
1.48634
1.40001
1.40001
1.52782
1.51844
1.22377
1.52619
1.4739
1.47273
1.26974
1.16657
1.40001
1.26815
1.52098
1.40001
1.40001
1.40001
1.1676
1.40001
1.45997
1.20496
1.40001
1.40001
1.49651
1.40001
1.40001
1.44218
1.28
1.52582
1.40001
1.40001
1.52662
1.40001
1.52314
1.53108
1.5241
1.40001
1.45072
1.45077
1.40001
1.49338
1.51612
1.40001
1.40001
1.51666
1.40001
1.204
1.30395
1.40001
1.40001
1.51529
1.40001
1.40001
1.40001
1.40001
1.17117
1.40001
1.40001
1.45851
1.31068
1.4578
1.15579
1.40001
1.40001
1.40001
1.40001
1.40001
1.4
1.40001
1.49019
1.18202
1.40001
1.40001
1.40001
1.40001
1.40001
1.40001
1.2052
1.50493
1.40001
1.48973
1.40001
1.40001
1.25505
1.40001
1.40001
1.40001
1.50563
1.40001
1.40001
1.50414
1.48483
1.55404
1.40001
1.55733
1.55837
1.56227
1.46812
1.40001
1.44652
1.44549
1.49859
1.46736
1.40001
1.40001
1.44422
1.40001
1.828
1.44531
1.40001
1.8347
1.46544
1.40001
1.51391
1.52219
1.40001
1.40001
1.46483
1.49567
1.40001
1.40001
1.43955
1.40006
1.40001
1.55031
1.48925
1.66533
1.6652
1.66228
1.66403
1.19402
1.48597
1.65302
1.33537
1.65409
1.6411
1.40001
1.2076
1.2278
1.64333
1.40001
1.63257
1.40001
1.63394
1.40001
1.49199
1.62298
1.40001
1.62468
1.73693
1.40001
1.61265
1.40001
1.61454
1.40001
1.17556
1.40001
1.315
1.22565
1.40001
1.40001
1.60126
1.60308
1.40001
1.5186
1.59237
1.59362
1.43839
1.40001
1.40001
1.57838
1.43307
1.5796
1.40001
1.48928
1.56805
1.2632
1.57011
1.43148
1.48774
1.40001
1.40001
1.40001
1.5574
1.55955
1.45385
1.40001
1.40001
1.54724
1.33626
1.54857
1.25401
1.40001
1.5338
1.53523
1.40001
1.40001
1.40001
1.38728
1.40001
1.51654
1.54968
1.53272
1.40001
1.51933
1.40001
1.52072
1.40001
1.40001
1.52074
1.52089
1.51001
1.51143
1.4807
1.52794
1.50027
1.53023
1.50209
1.40001
1.45408
1.48609
1.48741
1.40001
1.29201
1.4764
1.47908
1.99695
1.40001
1.40001
1.40001
1.55271
1.48072
1.48551
1.50847
1.47101
1.4932
1.22761
1.56628
1.57622
1.54787
1.56089
1.55812
1.28512
1.27818
1.40001
1.45885
1.84355
1.42122
1.40001
1.23483
1.42034
1.26738
1.46832
1.20188
1.40001
1.40001
1.40001
1.48003
1.40001
1.40001
1.40001
1.40001
1.40001
1.47871
1.40001
1.40001
1.40001
1.303
1.29483
1.40001
1.44771
1.1989
1.24667
1.40001
1.40001
1.40001
1.40001
1.40001
1.39663
1.40001
1.484
1.40001
1.55009
1.42776
1.55229
1.27515
1.40001
1.15923
1.1836
1.56229
1.40001
1.40001
1.40001
1.40001
1.40001
1.55479
1.55336
1.41015
1.20401
1.20249
1.40001
1.31526
1.40001
1.40001
1.55552
1.54494
1.39716
1.45912
1.51177
1.40011
1.45126
1.45853
1.40001
1.55794
1.25225
1.48745
1.40001
1.4855
1.40574
1.40001
1.4
1.48985
1.49575
1.40001
1.40495
1.27881
1.40001
1.40001
1.58828
1.58931
1.48536
1.40001
1.27786
1.27784
1.18581
1.41253
1.40001
1.51909
1.4636
1.2553
1.72794
1.40001
1.40001
1.40001
1.54188
1.54364
1.40001
1.42421
1.40001
1.46337
1.52897
1.40001
1.46446
1.53018
1.4621
1.48833
1.48529
1.40001
1.48172
1.52955
1.23438
1.48264
1.25613
1.49593
1.40001
1.40001
1.49672
1.40001
1.40001
1.49107
1.48512
1.40001
1.39413
1.29673
1.51825
1.28506
1.29196
1.39319
1.28613
1.2819
1.25208
1.24943
1.40001
1.40001
1.46639
1.40001
1.40001
1.4934
1.3096
1.29404
1.40001
1.40001
1.53164
1.40001
1.5215
1.53164
1.61959
1.73776
1.48001
1.41556
1.40001
1.39976
1.40001
1.48833
1.52704
1.4661
1.27458
1.40001
1.45384
1.40001
1.52452
1.52308
1.45124
1.40001
1.51244
1.50302
1.5116
1.40001
1.40001
1.40001
1.40001
1.50534
1.52195
1.40001
1.4327
1.40001
1.28387
1.40001
1.28374
1.24664
1.21029
1.40001
1.38592
1.38515
1.15696
1.78374
1.40001
1.29233
1.45726
1.4577
1.29304
1.40001
1.40001
1.48832
1.56873
1.40001
1.40001
1.52424
1.16528
1.46633
1.49346
1.40001
1.40001
1.40001
1.40001
1.40001
1.40001
1.8822
1.40001
1.24776
1.27636
1.2721
1.45483
1.22996
1.23931
1.25491
1.29598
1.47779
1.2457
1.27994
1.61815
1.62806
1.6369
1.60677
1.61972
1.40001
1.44209
1.62946
1.64691
1.60901
1.48626
1.63793
1.57579
1.59672
1.64927
1.40001
1.65636
1.59811
1.65823
1.40001
1.58346
1.65119
1.66617
1.66592
1.58505
1.69148
1.67396
1.57409
1.70315
1.40001
1.39438
1.57529
1.40001
1.56311
1.3994
1.40001
1.40001
1.37549
1.56456
1.40001
1.40001
1.40001
1.5519
1.5633
1.40001
1.40001
1.40001
1.55353
1.37348
1.21647
1.53823
1.40001
1.38106
1.53876
1.52455
1.52577
1.27326
1.51511
1.51595
1.50574
1.40001
1.22387
1.50663
1.40001
1.49139
1.20736
1.40001
1.40001
1.49282
1.32255
1.21808
1.48265
1.48336
1.4752
1.43801
1.47286
1.23518
1.58285
1.40001
1.54106
1.43709
1.56786
1.44158
1.41675
1.48427
1.5603
1.53229
1.53409
1.19206
1.56087
1.55476
1.55723
1.24781
1.22979
1.27864
1.40001
1.2327
1.40001
1.23177
1.22782
1.21827
1.40001
1.85111
1.47618
1.40001
1.3792
1.37071
1.49768
1.50576
1.40001
1.46122
1.56188
1.57137
1.46774
1.4669
1.55805
1.56371
1.55939
1.55315
1.43912
1.28204
1.52848
1.49011
1.40001
1.38589
1.3009
1.26446
1.42342
1.40001
1.61133
1.55381
1.19868
1.40001
1.36122
1.16353
1.39915
1.36074
1.40001
1.69813
1.40001
1.34545
1.42324
1.45627
1.55472
1.43894
1.44532
1.27099
1.4266
1.40307
1.42472
1.53885
1.18761
1.20108
1.28928
1.24976
1.38515
1.56843
1.54509
1.40001
1.56723
1.64368
1.35105
1.41714
1.40001
1.40001
1.40001
1.51161
1.51602
1.40001
1.40001
1.22203
1.42113
1.25366
1.40001
1.18758
1.40001
1.50933
1.3569
1.40001
1.40001
1.27865
1.25954
1.67016
1.2659
1.53003
1.53116
1.40003
1.57292
1.52183
1.40001
1.36183
1.40001
1.43621
1.35032
1.37795
1.30783
1.40001
1.40001
1.38394
1.37093
1.52815
1.4949
1.5112
1.51164
1.40001
1.34922
1.52877
1.4831
1.48167
1.2518
1.43945
1.40001
1.36109
1.31988
1.51631
1.22836
1.51872
1.55502
1.40001
1.40001
1.40001
1.30791
1.50877
1.40001
1.48264
1.50895
1.47468
1.46816
1.29178
1.48165
1.54534
1.18858
1.60497
1.40001
1.40001
1.36977
1.61924
1.40001
1.40001
1.40001
1.49635
1.40001
1.4982
1.16211
1.4342
1.37203
1.40001
1.40001
1.37158
1.40001
1.69248
1.48856
1.68672
1.69142
1.40001
1.50552
1.68843
1.49216
1.37322
1.60187
1.40001
1.17912
1.66773
1.63725
1.37279
1.40001
1.59288
1.66992
1.65014
1.39985
1.52125
1.27997
1.40015
1.40001
1.29629
1.65317
1.40001
1.61606
1.52835
1.40001
1.40001
1.18772
1.63188
1.34057
1.47848
1.65245
1.41141
1.24636
1.67923
1.6326
1.63461
1.47679
1.34004
1.40001
1.52874
1.40985
1.53122
1.55527
1.40001
1.6144
1.40001
1.40001
1.40001
1.61341
1.40001
1.40001
1.33414
1.43369
1.40001
1.33964
1.61595
1.52785
1.49469
1.40001
1.43056
1.40001
1.52446
1.40001
1.40001
1.40001
1.40001
1.40001
1.42977
1.40001
1.40001
1.40001
1.40001
1.40001
1.40001
1.25676
1.56883
1.40001
1.41781
1.40001
1.40001
1.40001
1.45347
1.31757
1.24307
1.40001
1.23909
1.52735
1.40001
1.40001
1.40001
1.52521
1.40018
1.56093
1.40022
1.64899
1.28295
1.27659
1.40001
1.63026
1.40001
1.40001
1.63455
1.40001
1.66661
1.66255
1.51963
1.64613
1.40001
1.40001
1.6213
1.62248
1.2918
1.61284
1.40001
1.61404
1.54897
1.40001
1.60671
1.40001
1.34217
1.34563
1.29666
1.59708
1.28674
1.33458
1.40001
1.60809
1.35587
1.35895
1.55171
1.55614
1.22934
1.55696
1.5508
1.43034
1.55492
1.55598
1.33423
1.58962
1.70746
1.45832
1.69858
1.5541
1.75579
1.63348
1.55394
1.33351
1.55768
1.40001
1.36431
1.55663
1.76347
1.68516
1.28827
1.52105
1.55621
1.73685
1.40146
1.75005
1.2849
1.74874
1.32002
1.40001
1.54529
1.25707
1.39906
1.50797
1.7394
1.55887
1.48397
1.40001
1.47703
1.6294
1.40001
1.40001
1.27377
1.40001
1.40001
1.47875
1.3231
1.40001
1.71682
1.70171
1.71927
1.40001
1.27685
1.52463
1.55662
1.55582
1.52655
1.70426
1.48169
1.55125
1.59858
1.33818
1.60545
1.69067
1.58325
1.69269
1.66936
1.40001
1.33442
1.40001
1.43741
1.40001
1.25289
1.44575
1.67142
1.56075
1.48549
1.56377
1.51894
1.6301
1.54948
1.45293
1.30187
1.60843
1.40001
1.64817
1.65121
1.40001
1.65059
1.40001
1.40001
1.40001
1.40001
1.40001
1.32942
1.40001
1.31951
1.24133
1.2751
1.62267
1.2256
1.2744
1.63336
1.24977
1.40001
1.22673
1.31855
1.3507
1.40001
1.45309
1.54163
1.40001
1.40001
1.65994
1.26457
1.30154
1.29708
1.53098
1.40001
1.40001
1.25079
1.4131
1.49495
1.59851
1.24859
1.40001
1.40001
1.40001
1.69819
1.40001
1.61761
1.61938
1.48362
1.23229
1.59336
1.60721
1.40001
1.45611
1.60983
1.68471
1.55068
1.40001
1.65492
1.40001
1.40001
1.54188
1.5957
1.48725
1.64086
1.23375
1.64486
1.6564
1.59461
1.40001
1.40001
1.54434
1.41037
1.42745
1.38967
1.40001
1.2456
1.40566
1.40001
1.56513
1.22026
1.40001
1.57604
1.15876
1.57958
1.40001
1.40001
1.38833
1.60583
1.22047
1.28003
1.1659
1.35869
1.33164
1.34537
1.21552
1.52695
1.38719
1.36626
1.40001
1.56677
1.216
1.21909
1.35575
1.58531
1.57576
1.32451
1.40001
1.40001
1.36566
1.36358
1.20189
1.40001
1.53547
1.22218
1.54632
1.53954
1.54991
1.34868
1.53585
1.60263
1.5534
1.60451
1.24368
1.33295
1.53676
1.34482
1.45114
1.23655
1.32279
1.55095
1.40001
1.33059
1.48802
1.25917
1.66914
1.29426
1.50903
1.55747
1.66897
1.21734
1.51634
1.36558
1.40001
1.55333
1.51892
1.60322
1.62575
1.40001
1.37382
1.40001
1.45831
1.31725
1.54329
1.22455
1.2227
1.40001
1.22079
1.27402
1.50961
1.40001
1.21731
1.48355
1.53234
1.72913
1.49024
1.21889
1.31408
1.35669
1.53098
1.73177
1.23016
1.48239
1.48981
1.40001
1.49098
1.40001
1.48962
1.65658
1.48458
1.26635
1.63474
1.51555
1.40001
1.22761
1.68342
1.55111
1.40001
1.21663
1.68637
1.57951
1.89324
1.48866
1.40001
1.45501
1.67702
1.4649
1.40001
1.66416
1.46685
1.40001
1.57748
1.6665
1.47714
1.7152
1.64275
1.45656
1.34169
1.40001
1.40001
1.64427
1.24754
1.40001
1.25721
1.50155
1.58043
1.58878
1.26555
1.48896
1.34162
1.40001
1.27319
1.70969
1.40001
1.40001
1.60411
1.70549
1.26371
1.31096
1.43746
1.2068
1.20256
1.52888
1.33966
1.43887
1.43099
1.52877
1.63531
1.54437
1.43381
1.52942
1.30968
1.51609
1.5125
1.4543
1.46125
1.25516
1.40001
1.53278
1.71232
1.41546
1.60287
1.70928
1.27898
1.40001
1.41745
1.39031
1.47036
1.29728
1.40001
1.40001
1.54847
1.54729
1.34769
1.51177
1.40001
1.40001
1.51232
1.53241
1.38193
1.40001
1.40001
1.41713
1.39641
1.39867
1.66607
1.49657
1.28047
1.43421
1.3921
1.40001
1.2777
1.38112
1.32067
1.26993
1.53242
1.55392
1.77263
1.5892
1.49378
1.59957
1.36935
1.59843
1.59056
1.20459
1.45302
1.46739
1.40001
1.45881
1.40001
1.40001
1.36571
1.35528
1.37766
1.3572
1.6663
1.55029
1.40001
1.40001
1.37274
1.56058
1.29823
1.32773
1.36265
1.2972
1.49695
1.53352
1.56248
1.30422
1.24999
1.35448
1.71668
1.27088
1.40001
1.41704
1.52578
1.30292
1.7174
1.37039
1.49167
1.40001
1.40001
1.4894
1.40233
1.67722
1.40001
1.39998
1.39963
1.40001
1.531
1.32151
1.3093
1.30388
1.35987
1.53264
1.32228
1.40001
1.30744
1.30998
1.40001
1.25417
1.55968
1.32063
1.48566
1.49446
1.40001
1.40001
1.53077
1.33362
1.49755
1.31162
1.31424
1.70739
1.30506
1.63203
1.40001
1.50287
1.40001
1.40001
1.52062
1.48997
1.48973
1.50568
1.40001
1.56245
1.52919
1.32148
1.6101
1.3163
1.62899
1.34333
1.62172
1.40001
1.40001
1.29379
1.33078
1.53214
1.31711
1.39999
1.40001
1.54973
1.31471
1.27253
1.31611
1.47377
1.51051
1.37775
1.40001
1.77119
1.4
1.47697
1.40001
1.61589
1.62894
1.19981
1.40001
1.45277
1.40001
1.40001
1.40001
1.40001
1.40001
1.40001
1.62144
1.61102
1.40001
1.6176
1.60787
1.40001
1.49089
1.67863
1.40001
1.43797
1.51287
1.74432
1.40001
1.40001
1.29923
1.25835
1.3308
1.52538
1.60113
1.74324
1.43471
1.4931
1.55303
1.40001
1.40001
1.40001
1.40001
1.54545
1.44998
1.7505
1.52355
1.55012
1.3264
1.45227
1.29795
1.33081
1.41796
1.7087
1.21056
1.74653
1.48868
1.75052
1.49326
1.40001
1.52721
1.19036
1.54749
1.40001
1.40001
1.52788
1.18935
1.34701
1.42121
1.22762
1.723
1.40001
1.30378
1.40001
1.45414
1.40823
1.20477
1.55077
1.29384
1.34254
1.48718
1.71211
1.51615
1.72499
1.4627
1.40001
1.54791
1.52256
1.29842
1.67546
1.65973
1.45077
1.40001
1.40001
1.50255
1.69636
1.56356
1.63756
1.70948
1.54387
1.24919
1.56223
1.40001
1.56039
1.54281
1.40001
1.69813
1.38802
1.24801
1.67852
1.49478
1.55161
1.46587
1.65647
1.46347
1.36779
1.40001
1.38309
1.37702
1.66007
1.45969
1.40001
1.38618
1.48009
1.52532
1.55003
1.63978
1.52861
1.36422
1.40001
1.53257
1.40001
1.36501
1.20371
1.40001
1.40001
1.70567
1.44525
1.59768
1.2096
1.40001
1.40001
1.59948
1.54355
1.54863
1.20542
1.40001
1.55919
1.40001
1.34957
1.68263
1.5181
1.5042
1.18443
1.41041
1.40001
1.61329
1.47651
1.50943
1.39752
1.34614
1.52495
1.47506
1.40454
1.4
1.62305
1.4291
1.676
1.40001
1.6149
1.6028
1.4
1.55499
1.32577
1.42353
1.16496
1.62547
1.57624
1.44583
1.52572
1.56974
1.4033
1.58394
1.44042
1.16444
1.80543
1.15919
1.40001
1.40001
1.39713
1.41728
1.16261
1.58621
1.45886
1.57213
1.52111
1.62139
1.39988
1.71654
1.57807
1.53997
1.3262
1.62515
1.50016
1.39921
1.51837
1.45636
1.48776
1.5546
1.69235
1.49589
1.50897
1.53417
1.55716
1.54223
1.54711
1.80563
1.56684
1.55883
1.47115
1.71015
1.51176
1.56536
1.40001
1.40001
1.54985
1.40001
1.40001
1.40719
1.28813
1.51503
1.52409
1.57973
1.68637
1.67704
1.40001
1.45029
1.69156
1.33872
1.57206
1.33453
1.52731
1.21556
1.26279
1.51301
1.288
1.81037
1.25933
1.35458
1.55144
1.33268
1.48751
1.80586
1.53003
1.70306
1.50517
1.49444
1.40001
1.40001
1.48529
1.40001
1.50477
1.40001
1.52492
1.49745
1.48778
1.50186
1.4824
1.78151
1.33718
1.40001
1.6076
1.517
1.57681
1.50965
1.78483
1.61916
1.52496
1.45959
1.4
1.51202
1.46954
1.43437
1.46188
1.5381
1.29065
1.24808
1.76503
1.54749
1.52677
1.53585
1.47054
1.52724
1.37165
1.46165
1.40507
1.40001
1.76924
1.55281
1.3641
1.36266
1.45691
1.43156
1.44781
1.29004
1.33112
1.49215
1.46702
1.34919
1.40001
1.54216
1.50684
1.36972
1.52242
1.38049
1.7448
1.40001
1.44208
1.43595
1.40001
1.40001
1.40001
1.40001
1.74883
1.61663
1.42082
1.62524
1.3581
1.40001
1.44558
1.3633
1.53274
1.51177
1.43574
1.48516
1.48736
1.51937
1.3503
1.40001
1.40001
1.399
1.57215
1.40001
1.40001
1.36357
1.54634
1.42535
1.73002
1.47098
1.53855
1.40001
1.51613
1.51238
1.51571
1.55416
1.56464
1.47164
1.40001
1.41491
1.33415
1.40001
1.73355
1.39556
1.55747
1.5334
1.5598
1.41431
1.32898
1.52998
1.64021
1.51834
1.57755
1.56826
1.40001
1.51458
1.53758
1.57414
1.47946
1.40001
1.40001
1.51462
1.39407
1.33138
1.20267
1.52778
1.40001
1.70562
1.57672
1.59164
1.33677
1.39414
1.5854
1.58836
1.45394
1.20551
1.70768
1.58058
1.33419
1.37973
1.36594
1.33673
1.65037
1.37408
1.18877
1.36588
1.40001
1.41371
1.50956
1.4512
1.42294
1.34354
1.59951
1.71642
1.32329
1.45394
1.51374
1.45481
1.29665
1.47418
1.34836
1.59656
1.34403
1.3217
1.42394
1.32127
1.50785
1.51238
1.51396
1.50937
1.59406
1.32414
1.50077
1.32241
1.27935
1.35925
1.50303
1.36031
1.65803
1.40001
1.4568
1.40001
1.33618
1.66134
1.40001
1.40001
1.334
1.61867
1.40001
1.36184
1.50179
1.71758
1.48838
1.39963
1.20516
1.40001
1.31445
1.36531
1.64054
1.35308
1.44902
1.64351
1.44977
1.55025
1.55207
1.40001
1.18726
1.40001
1.62672
1.4967
1.62509
1.42013
1.3125
1.60058
1.62965
1.60181
1.40001
1.31067
1.19036
1.61473
1.82091
1.61737
1.52523
1.41053
1.61761
1.43109
1.49936
1.81438
1.31065
1.40001
1.36652
1.70977
1.3316
1.19539
1.39814
1.60113
1.25427
1.32881
1.23785
1.37998
1.60413
1.52321
1.50976
1.40001
1.43407
1.43473
1.80366
1.61551
1.40001
1.59017
1.53582
1.53064
1.61158
1.40001
1.80584
1.59261
1.55685
1.37226
1.62309
1.40001
1.40001
1.61863
1.57606
1.63138
1.21286
1.62714
1.57857
1.40001
1.43698
1.46838
1.46037
1.56614
1.36691
1.22377
1.22484
1.65107
1.56879
1.60933
1.52784
1.40001
1.40001
1.40001
1.37032
1.55251
1.40001
1.40833
1.21036
1.63473
1.50611
1.54865
1.50051
1.34786
1.5554
1.53055
1.40571
1.56811
1.55043
1.41465
1.53361
1.40001
1.16254
1.54591
1.34301
1.17697
1.55344
1.5482
1.63878
1.41116
1.65341
1.64971
1.40001
1.34255
1.22691
1.54478
1.40001
1.40001
1.43109
1.39999
1.64695
1.25376
1.54536
1.53326
1.40001
1.56501
1.55624
1.42785
1.72046
1.44151
1.16908
1.53008
1.54489
1.36235
1.64263
1.40001
1.36608
1.36555
1.44015
1.7248
1.53361
1.40001
1.32999
1.28271
1.54477
1.65665
1.50656
1.52804
1.6608
1.54524
1.40001
1.44631
1.46039
1.52998
1.89931
1.61781
1.71193
1.52294
1.52466
1.54673
1.60455
1.40001
1.40001
1.53545
1.45786
1.52308
1.53523
1.35559
1.46696
1.52473
1.69397
1.35937
1.40001
1.28002
1.40001
1.24462
1.46338
1.50802
1.51228
1.39276
1.40001
1.40001
1.66452
1.68232
1.40001
1.40001
1.4838
1.39149
1.50144
1.67342
1.48121
1.46644
1.49431
1.4963
1.5499
1.36557
1.40001
1.46759
1.49683
1.36158
1.36605
1.2575
1.49358
1.54923
1.40001
1.54286
1.40001
1.40001
1.71667
1.36338
1.40242
1.65227
1.4807
1.71193
1.36486
1.40001
1.40001
1.48366
1.71731
1.57589
1.18858
1.51382
1.40001
1.65452
1.47955
1.51059
1.40001
1.40001
1.40001
1.40001
1.52174
1.40001
1.35779
1.46647
1.56371
1.49845
1.46869
1.40014
1.51812
1.40001
1.40001
1.40001
1.53575
1.45369
1.45672
1.40001
1.52536
1.53305
1.27937
1.40001
1.40001
1.26327
1.35642
1.40001
1.3116
1.54313
1.40001
1.40001
1.40001
1.40001
1.40001
1.44012
1.40001
1.3821
1.53955
1.40001
1.58099
1.54315
1.40001
1.44305
1.26393
1.40001
1.29836
1.54037
1.40001
1.40001
1.57857
1.59646
1.40001
1.4003
1.40001
1.26397
1.26294
1.3785
1.56192
1.20617
1.57702
1.40001
1.40001
1.38063
1.57879
1.60729
1.26474
1.55935
1.40001
1.39234
1.40001
1.59434
1.64156
1.38699
1.40001
1.26316
1.40017
1.40001
1.27379
1.26545
1.57677
1.43752
1.40001
1.59089
1.40001
1.36582
1.30621
1.58185
1.26708
1.58852
1.18986
1.40001
1.24946
1.32872
1.5765
1.36281
1.80841
1.49877
1.57714
1.40116
1.40855
1.27239
1.61257
1.53044
1.398
1.40001
1.40001
1.28728
1.26599
1.50745
1.22528
1.59805
1.791
1.8117
1.40001
1.59298
1.7193
1.32392
1.60968
1.77429
1.54536
1.41291
1.32656
1.38819
1.60097
1.79557
1.5218
1.60768
1.41005
1.50138
1.50127
1.26674
1.44167
1.75483
1.31886
1.27397
1.40001
1.50193
1.40001
1.40001
1.26417
1.63103
1.77698
1.43892
1.40001
1.40001
1.44206
1.49811
1.40001
1.73777
1.40001
1.62802
1.50467
1.40001
1.24762
1.40001
1.62609
1.40001
1.52784
1.25442
1.40001
1.75935
1.17976
1.62492
1.40001
1.27277
1.40001
1.54303
1.42724
1.40117
1.63967
1.42232
1.23476
1.63999
1.47578
1.30268
1.62653
1.71151
1.74023
1.44293
1.63672
1.63615
1.24318
1.47779
1.54816
1.30863
1.40001
1.58686
1.40001
1.70754
1.372
1.65306
1.6516
1.23324
1.38933
1.42371
1.40001
1.46068
1.53849
1.3684
1.40067
1.34109
1.7149
1.44676
1.41523
1.40001
1.44897
1.64789
1.4
1.40001
1.40001
1.64981
1.41687
1.51131
1.45057
1.52878
1.40001
1.66618
1.7018
1.59486
1.66332
1.43365
1.40001
1.71225
1.24102
1.66288
1.66603
1.43652
1.59313
1.41242
1.40001
1.33493
1.65855
1.36175
1.68851
1.64688
1.36592
1.36721
1.36584
1.7627
1.66956
1.36759
1.24974
1.40001
1.58516
1.67501
1.51606
1.40001
1.68333
1.40001
1.62482
1.51601
1.33242
1.64352
1.6333
1.49165
1.35239
1.57506
1.6114
1.60839
1.40001
1.49183
1.35366
1.29591
1.49277
1.67923
1.40001
1.64933
1.67251
1.62093
1.3541
1.36039
1.40001
1.66272
1.60934
1.73883
1.40001
1.59609
1.30227
1.58703
1.62813
1.34937
1.63666
1.608
1.45618
1.61074
1.64639
1.52655
1.68826
1.5732
1.40001
1.52018
1.62517
1.62354
1.59567
1.58533
1.26645
1.68038
1.69909
1.66497
1.52469
1.46393
1.69345
1.40001
1.68414
1.61122
1.62091
1.58242
1.40001
1.69557
1.37309
1.40001
1.74642
1.59787
1.5716
1.63428
1.40001
1.68375
1.37082
1.40001
1.58615
1.71265
1.55965
1.40001
1.40001
1.63023
1.57325
1.40001
1.70896
1.40001
1.54701
1.69068
1.39179
1.40001
1.56285
1.40001
1.53864
1.26217
1.40002
1.47119
1.71635
1.54938
1.52449
1.40001
1.40001
1.40001
1.6509
1.71271
1.3697
1.54184
1.51562
1.51731
1.64876
1.25657
1.41691
1.59355
1.40014
1.40001
1.50787
1.51301
1.41737
1.40001
1.64705
1.59648
1.40001
1.5268
1.44517
1.29322
1.44586
1.7161
1.57152
1.49898
1.67552
1.5396
1.36713
1.52028
1.47686
1.47681
1.28238
1.54679
1.56485
1.40001
1.73839
1.723
1.36995
1.48737
1.65799
1.18411
1.54845
1.3652
1.339
1.40001
1.49983
1.57443
1.58742
1.58601
1.57392
1.40001
1.1825
1.47112
1.50377
1.58592
1.49102
1.40001
1.40001
1.5726
1.4605
1.58342
1.40001
1.22188
1.40001
1.40001
1.18533
1.58655
1.40001
1.47296
1.6355
1.51605
1.40001
1.34195
1.50981
1.5817
1.44558
1.40001
1.46348
1.34507
1.36371
1.51593
1.62314
1.56663
1.54249
1.40001
1.59327
1.61125
1.19099
1.40001
1.40001
1.42756
1.20363
1.44684
1.63235
1.54026
1.57962
1.59085
1.40001
1.53566
1.60598
1.40001
1.17472
1.42996
1.41837
1.31624
1.43126
1.40001
1.3621
1.40001
1.58997
1.55271
1.40001
1.40001
1.50154
1.49065
1.51804
1.5959
1.20074
1.40001
1.40001
1.32944
1.18343
1.55657
1.48736
1.69595
1.27429
1.5876
1.51067
1.60311
1.40001
1.55359
1.40001
1.60127
1.40001
1.40001
1.15695
1.40001
1.5971
1.41236
1.40001
1.25642
1.56618
1.49614
1.26015
1.71213
1.55368
1.40001
1.50173
1.57465
1.40001
1.59448
1.40001
1.58466
1.59007
1.56384
1.3497
1.54852
1.40001
1.51559
1.5235
1.80557
1.62228
1.21962
1.40001
1.34846
1.21897
1.6122
1.34813
1.40001
1.40001
1.37044
1.53412
1.40001
1.2225
1.53621
1.57473
1.53381
1.60564
1.20319
1.6102
1.39679
1.43218
1.47168
1.4026
1.40354
1.34453
1.57265
1.4705
1.33228
1.35841
1.62341
1.40001
1.60323
1.42906
1.40001
1.40001
1.30836
1.40001
1.62099
1.60717
1.50916
1.40001
1.58417
1.6192
1.49353
1.32969
1.25221
1.40001
1.61474
1.60189
1.7051
1.17925
1.58178
1.49459
1.50536
1.32421
1.61784
1.25153
1.19868
1.20136
1.34277
1.20254
1.61253
1.5957
1.40001
1.52454
1.40001
1.27695
1.37979
1.66556
1.65081
1.40001
1.7008
1.21517
1.36627
1.19574
1.59183
1.52323
1.20476
1.40001
1.51781
1.37546
1.62834
1.55237
1.58548
1.63351
1.40001
1.40001
1.40001
1.50068
1.49687
1.58927
1.27438
1.69566
1.25265
1.63044
1.4199
1.6543
1.61612
1.66787
1.58124
1.52063
1.35882
1.40001
1.40001
1.19535
1.40001
1.60081
1.42152
1.28709
1.48789
1.45213
1.39253
1.4996
1.40001
1.51015
1.40001
1.40001
1.53117
1.60014
1.45808
1.6314
1.3347
1.59625
1.53485
1.73045
1.33154
1.28533
1.3796
1.40001
1.36931
1.59767
1.44769
1.45188
1.50816
1.44541
1.52604
1.45154
1.40001
1.49887
1.50226
1.29984
1.39898
1.50799
1.32648
1.41301
1.36419
1.40001
1.22791
1.53067
1.48015
1.44423
1.36791
1.40001
1.40001
1.45069
1.40001
1.40001
1.50197
1.56075
1.36272
1.32929
1.29913
1.50666
1.48128
1.60771
1.40001
1.40001
1.26473
1.32499
1.45536
1.42281
1.51781
1.40001
1.48791
1.20612
1.4456
1.35265
1.31759
1.27533
1.40001
1.55632
1.50432
1.49207
1.60513
1.39323
1.40001
1.40001
1.71316
1.48003
1.6103
1.48572
1.51944
1.63997
1.41865
1.39198
1.40001
1.47593
1.46152
1.60778
1.40001
1.44234
1.33933
1.25028
1.40001
1.3906
1.51924
1.19712
1.35254
1.26202
1.51534
1.59326
1.40001
1.55797
1.48067
1.64844
1.50966
1.43249
1.21629
1.19067
1.47146
1.63673
1.50871
1.31767
1.50057
1.40001
1.53113
1.40001
1.25242
1.40001
1.63383
1.52205
1.19376
1.40001
1.4351
1.61811
1.34419
1.40001
1.59019
1.33746
1.40001
1.3478
1.31548
1.49788
1.33777
1.52762
1.57621
1.24883
1.61551
1.47753
1.49178
1.2467
1.32904
1.40001
1.5252
1.37594
1.38527
1.35988
1.36439
1.40001
1.20863
1.53345
1.41074
1.41264
1.45203
1.32726
1.40001
1.51208
1.52049
1.53483
1.51166
1.32748
1.33533
1.33459
1.55367
1.5082
1.58226
1.3538
1.55145
1.51054
1.39746
1.28854
1.40001
1.32486
1.55546
1.40001
1.4876
1.40001
1.3151
1.40876
1.40001
1.53548
1.50505
1.40001
1.55952
1.40001
1.38262
1.5356
1.54649
1.5445
1.40001
1.20704
1.40001
1.56666
1.75899
1.46591
1.40001
1.49016
1.61055
1.50946
1.53887
1.40979
1.27038
1.37099
1.40976
1.40001
1.67532
1.3355
1.4
1.32277
1.54714
1.26705
1.46726
1.65064
1.27409
1.63053
1.32426
1.40001
1.54175
1.6167
1.56386
1.4968
1.3943
1.40012
1.58654
1.39993
1.33344
1.40001
1.6285
1.51276
1.31431
1.40021
1.51771
1.54414
1.61325
1.40001
1.58855
1.75362
1.62135
1.47114
1.353
1.58426
1.34443
1.4947
1.65751
1.40001
1.40001
1.34159
1.4086
1.57324
1.53124
1.60729
1.34623
1.32203
1.59071
1.26684
1.40001
1.32469
1.39608
1.61912
1.40001
1.34276
1.35439
1.27342
1.49666
1.61482
1.40001
1.40001
1.3625
1.21344
1.57568
1.1658
1.55119
1.524
1.58147
1.27161
1.685
1.5391
1.62703
1.65805
1.19808
1.42792
1.40001
1.32211
1.73224
1.61148
1.40001
1.32007
1.40358
1.23683
1.58683
1.53658
1.55614
1.47367
1.54924
1.26873
1.48751
1.6426
1.37358
1.65658
1.64669
1.54196
1.671
1.63611
1.68075
1.40001
1.32825
1.62255
1.60308
1.40001
1.33089
1.48266
1.48331
1.6393
1.4721
1.71259
1.27956
1.49642
1.47634
1.40001
1.49845
1.69254
1.40001
1.57652
1.47752
1.32919
1.36827
1.48467
1.40001
1.36952
1.31552
1.51103
1.49817
1.41888
1.53158
1.57855
1.48262
1.48466
1.40001
1.67813
1.31071
1.57579
1.50045
1.42418
1.51394
1.58574
1.7249
1.40001
1.49931
1.59384
1.65385
1.40001
1.64187
1.66703
1.36212
1.63348
1.40001
1.61905
1.67649
1.48742
1.40001
1.58295
1.42331
1.67026
1.68984
1.60042
1.55768
1.28278
1.52657
1.59279
1.40001
1.40001
1.63762
1.61106
1.70822
1.32638
1.54324
1.30715
1.26924
1.48108
1.41406
1.42461
1.38551
1.36271
1.51242
1.53842
1.58366
1.30499
1.28506
1.36118
1.56706
1.41996
1.45606
1.66749
1.57627
1.40001
1.40555
1.47887
1.59851
1.67295
1.60115
1.32619
1.59576
1.42195
1.65301
1.58323
1.50822
1.68948
1.40001
1.56811
1.46413
1.32468
1.26719
1.42239
1.40001
1.26447
1.45818
1.5502
1.45528
1.25797
1.46951
1.6429
1.52941
1.5907
1.30336
1.71846
1.46869
1.38155
1.54218
1.21512
1.40001
1.68554
1.61042
1.54582
1.73036
1.45944
1.40001
1.40001
1.30475
1.48416
1.52062
1.40001
1.31493
1.18464
1.54431
1.54309
1.42292
1.33088
1.53713
1.59902
1.54322
1.55333
1.40001
1.32507
1.46176
1.53353
1.68907
1.40001
1.40001
1.44205
1.50502
1.39847
1.64487
1.54679
1.45807
1.47176
1.64406
1.40001
1.4
1.39342
1.38429
1.30493
1.55948
1.3838
1.30394
1.47397
1.60808
1.40001
1.54428
1.5705
1.40001
1.1994
1.38573
1.55751
1.45331
1.40001
1.26904
1.20598
1.38483
1.45012
1.2234
1.52346
1.51917
1.43441
1.49478
1.47355
1.27274
1.38148
1.48458
1.40001
1.51649
1.48167
1.53308
1.61672
1.27805
1.29949
1.38215
1.40923
1.40001
1.48113
1.4
1.56106
1.60674
1.22577
1.27177
1.27393
1.29281
1.40001
1.38635
1.40001
1.51984
1.26647
1.41352
1.27975
1.54399
1.27977
1.63265
1.47028
1.75585
1.40001
1.45425
1.27608
1.30572
1.27017
1.64425
1.63853
1.40001
1.53226
1.27964
1.68213
1.40001
1.4146
1.40001
1.62275
1.38502
1.46823
1.42762
1.40001
1.22367
1.36203
1.27592
1.52955
1.40001
1.40001
1.62503
1.45236
1.51324
1.49838
1.50818
1.62311
1.60156
1.64063
1.49887
1.49578
1.26202
1.30506
1.60023
1.62019
1.40951
1.40001
1.30827
1.31449
1.42853
1.63388
1.26755
1.4
1.43975