/*--------------------------------*- C++ -*----------------------------------*\
  =========                 |
  \\      /  F ield         | OpenFOAM: The Open Source CFD Toolbox
   \\    /   O peration     | Website:  https://openfoam.org
    \\  /    A nd           | Version:  12
     \\/     M anipulation  |
\*---------------------------------------------------------------------------*/
FoamFile
{
    format      ascii;
    class       volScalarField;
    location    "10";
    object      T;
}
// * * * * * * * * * * * * * * * * * * * * * * * * * * * * * * * * * * * * * //

dimensions      [0 0 0 1 0 0 0];

internalField   nonuniform List<scalar> 
9801
(
0.842887
0.846713
0.848607
0.850099
0.851309
0.85248
0.853292
0.85324
0.853588
0.854503
0.855906
0.858691
0.862286
0.864657
0.866266
0.867545
0.868699
0.869565
0.869259
0.869467
0.870406
0.871699
0.874195
0.878072
0.880881
0.882646
0.884045
0.885256
0.886101
0.885444
0.885509
0.886471
0.887792
0.890268
0.894447
0.897691
0.899652
0.901073
0.902259
0.902757
0.901472
0.901577
0.902657
0.904188
0.906906
0.911682
0.915238
0.917251
0.918737
0.91991
0.919513
0.917832
0.918151
0.919445
0.921181
0.924698
0.930252
0.933899
0.935967
0.937511
0.938772
0.937021
0.934855
0.935414
0.936982
0.939414
0.944956
0.951181
0.954876
0.956951
0.958492
0.959104
0.955295
0.953137
0.954348
0.956655
0.961613
0.96998
0.975961
0.979377
0.98178
0.983638
0.981454
0.975698
0.97511
0.978192
0.983688
0.99515
1.00529
1.01157
1.01678
1.02113
1.02082
1.01475
1.01321
1.01952
1.03898
1.18916
1.54833
0.846278
0.850658
0.852671
0.854112
0.855266
0.856286
0.856933
0.856917
0.85723
0.858071
0.859257
0.861974
0.865889
0.868424
0.870029
0.871265
0.872321
0.873009
0.872752
0.872916
0.873737
0.874865
0.877224
0.881379
0.884392
0.886201
0.887553
0.888688
0.889384
0.888794
0.888787
0.889608
0.890763
0.892996
0.897375
0.900816
0.902806
0.90421
0.905386
0.905842
0.904748
0.904774
0.905702
0.906992
0.909408
0.914268
0.917997
0.920096
0.921597
0.922802
0.92265
0.921069
0.921214
0.922312
0.92376
0.926871
0.932503
0.936367
0.938571
0.940196
0.941481
0.940179
0.938006
0.938387
0.939779
0.941784
0.946946
0.953319
0.957125
0.959312
0.960971
0.961891
0.958694
0.956436
0.957439
0.959493
0.963331
0.971311
0.97786
0.981679
0.984428
0.986782
0.985875
0.980236
0.978959
0.981617
0.985862
0.995447
1.00568
1.01237
1.01793
1.02325
1.02433
1.01905
1.0158
1.01916
1.02953
1.18187
1.56552
0.8499
0.854557
0.856607
0.858046
0.859207
0.860211
0.86084
0.860837
0.861127
0.861945
0.863045
0.865616
0.869734
0.872384
0.873986
0.875216
0.876269
0.876968
0.876723
0.876843
0.877641
0.878735
0.88094
0.885218
0.888389
0.890215
0.891554
0.892684
0.893398
0.892809
0.892691
0.893478
0.894609
0.89664
0.901029
0.904665
0.906719
0.908163
0.909408
0.910097
0.909109
0.908883
0.909716
0.910941
0.913058
0.917826
0.921832
0.924069
0.925642
0.926987
0.927385
0.925852
0.925537
0.92651
0.927897
0.930574
0.936135
0.940339
0.942701
0.944439
0.945926
0.945366
0.943243
0.943242
0.944533
0.946314
0.95023
0.95687
0.961384
0.963892
0.965794
0.967307
0.965218
0.962608
0.963157
0.965134
0.967898
0.974902
0.983157
0.987833
0.990829
0.993471
0.993866
0.988839
0.986446
0.988719
0.992668
0.999893
1.01149
1.0202
1.02637
1.03253
1.03581
1.0324
1.03024
1.03385
1.04038
1.18736
1.58209
0.854403
0.859363
0.861507
0.862954
0.864112
0.865111
0.865726
0.865704
0.865982
0.866802
0.867886
0.870254
0.874501
0.877328
0.878971
0.880232
0.881333
0.882088
0.881859
0.881925
0.882712
0.883814
0.885813
0.890103
0.893488
0.895365
0.896723
0.897895
0.898661
0.898077
0.897883
0.898681
0.899864
0.901723
0.906063
0.910063
0.912242
0.913726
0.915018
0.915826
0.914801
0.914311
0.915147
0.916457
0.918373
0.923034
0.927631
0.930095
0.931716
0.933117
0.93376
0.932026
0.931329
0.932336
0.933874
0.936213
0.941669
0.946616
0.949267
0.951103
0.952709
0.952844
0.950424
0.949746
0.951009
0.95295
0.956098
0.963011
0.968707
0.971611
0.973709
0.975636
0.974671
0.971015
0.970654
0.972717
0.975471
0.980792
0.989956
0.996132
0.999645
1.00254
1.00443
1.00107
0.996984
0.997984
1.00213
1.00757
1.01758
1.02791
1.03513
1.0417
1.04768
1.04715
1.04378
1.04381
1.04328
1.19148
1.59582
0.859276
0.864475
0.866785
0.868272
0.869419
0.870409
0.871029
0.870948
0.871189
0.872001
0.873081
0.875206
0.879534
0.882706
0.884464
0.885771
0.886908
0.887735
0.887514
0.887443
0.888164
0.889249
0.89096
0.895119
0.898982
0.901049
0.902463
0.903683
0.904538
0.90406
0.903771
0.904521
0.905705
0.907313
0.911337
0.91584
0.918279
0.919836
0.92115
0.922045
0.921212
0.920567
0.921336
0.922656
0.92438
0.928588
0.933721
0.936538
0.938264
0.939713
0.94061
0.939201
0.938098
0.938923
0.940438
0.942449
0.947279
0.953098
0.956341
0.958373
0.960104
0.961015
0.95881
0.95702
0.957922
0.959885
0.96255
0.968686
0.975673
0.979356
0.981657
0.983815
0.984343
0.980717
0.978517
0.979967
0.982755
0.986616
0.995054
1.00351
1.00825
1.01145
1.01437
1.01367
1.00849
1.00659
1.00938
1.01422
1.02192
1.03265
1.04119
1.04804
1.05467
1.05763
1.05504
1.05144
1.04473
1.19189
1.60348
0.86433
0.869558
0.872027
0.873583
0.874751
0.875781
0.876471
0.876332
0.876503
0.877306
0.878395
0.880269
0.884544
0.888074
0.889997
0.891365
0.892538
0.893456
0.893224
0.89298
0.89365
0.894739
0.896251
0.900105
0.904421
0.906768
0.908281
0.909548
0.910545
0.91017
0.909643
0.910281
0.911445
0.912942
0.916514
0.921358
0.924146
0.925852
0.927246
0.92838
0.927874
0.926734
0.927232
0.928509
0.930146
0.933804
0.93927
0.942587
0.944551
0.946156
0.947488
0.946741
0.944698
0.944823
0.946239
0.948146
0.952238
0.958713
0.962776
0.965017
0.966818
0.968316
0.967091
0.964105
0.963882
0.965672
0.968041
0.972835
0.980773
0.985893
0.988507
0.990669
0.992177
0.989786
0.986135
0.985977
0.988316
0.991353
0.997295
1.00687
1.01351
1.01764
1.02094
1.02272
1.0189
1.01436
1.01451
1.01821
1.02352
1.03228
1.04137
1.04858
1.05505
1.06051
1.06105
1.05707
1.04686
1.18778
1.6074
0.869174
0.874283
0.876709
0.878272
0.879472
0.880553
0.881332
0.881171
0.88129
0.882122
0.883264
0.885107
0.889282
0.892944
0.894919
0.896293
0.897465
0.898395
0.898189
0.897804
0.898456
0.899604
0.901152
0.904789
0.909243
0.911756
0.913319
0.914611
0.915725
0.915648
0.914711
0.915027
0.916157
0.917674
0.920951
0.925984
0.929127
0.930945
0.932395
0.933709
0.933876
0.932292
0.932004
0.933095
0.934667
0.937777
0.943471
0.947483
0.949616
0.951233
0.952739
0.953039
0.950727
0.949764
0.950828
0.952555
0.955578
0.962072
0.967394
0.970003
0.971772
0.973421
0.97345
0.970331
0.969045
0.970205
0.972249
0.975256
0.982459
0.989515
0.993246
0.995569
0.997573
0.997088
0.992841
0.990737
0.991831
0.994457
0.998116
1.00625
1.01531
1.02073
1.02432
1.02736
1.02732
1.02206
1.01916
1.02039
1.02418
1.03028
1.03942
1.04728
1.05362
1.059
1.06187
1.06014
1.05051
1.1837
1.60979
0.8733
0.878403
0.880915
0.882493
0.8837
0.884795
0.885643
0.885454
0.885418
0.8862
0.887338
0.889117
0.893221
0.897027
0.899078
0.900474
0.901641
0.902649
0.902681
0.902057
0.902484
0.903567
0.905009
0.908406
0.913061
0.915815
0.917476
0.91881
0.920027
0.920457
0.919253
0.918984
0.919897
0.921242
0.923979
0.92925
0.933028
0.935041
0.936532
0.937901
0.938674
0.937093
0.936037
0.936706
0.938091
0.940332
0.945813
0.95099
0.953599
0.955256
0.956747
0.957602
0.955668
0.95398
0.954418
0.955873
0.957857
0.963037
0.969815
0.973517
0.975524
0.977248
0.978274
0.975816
0.973287
0.973326
0.974937
0.977102
0.98189
0.990352
0.99596
0.998992
1.00117
1.00254
0.999281
0.995034
0.994567
0.996444
0.999129
1.00388
1.01334
1.02103
1.02558
1.02893
1.03171
1.03044
1.02478
1.02272
1.02459
1.0286
1.03542
1.04392
1.0506
1.05609
1.06018
1.06102
1.05503
1.18165
1.61158
0.876523
0.881654
0.884494
0.886147
0.887376
0.88848
0.889373
0.889241
0.889016
0.889671
0.890739
0.892261
0.89604
0.900175
0.902426
0.903887
0.905113
0.906233
0.906597
0.905795
0.905911
0.90682
0.908049
0.910733
0.915649
0.918951
0.920762
0.922156
0.923417
0.924205
0.923091
0.922344
0.922945
0.924125
0.926043
0.930969
0.93575
0.938169
0.939722
0.941093
0.94215
0.941044
0.939384
0.939641
0.940808
0.942401
0.946529
0.952739
0.956326
0.958249
0.959776
0.961014
0.959924
0.957461
0.95717
0.958208
0.959805
0.962905
0.970109
0.975658
0.978378
0.980187
0.981705
0.980619
0.976834
0.975618
0.976618
0.978527
0.981225
0.988424
0.996601
1.00087
1.00336
1.00539
1.00557
1.00082
0.997589
0.997844
0.999809
1.00264
1.00902
1.01876
1.02557
1.0298
1.03305
1.03495
1.03232
1.0271
1.02575
1.02795
1.03216
1.03957
1.04741
1.05322
1.0576
1.06001
1.0583
1.18238
1.61338
0.878926
0.883868
0.887268
0.889088
0.890329
0.891424
0.892345
0.89236
0.891996
0.892516
0.893498
0.894744
0.897828
0.902384
0.905067
0.906655
0.90793
0.909075
0.90972
0.908896
0.908664
0.909397
0.910493
0.912336
0.917053
0.921234
0.923344
0.924773
0.926019
0.92701
0.926289
0.925038
0.925397
0.92645
0.927848
0.931548
0.937202
0.940424
0.942147
0.943523
0.944722
0.944338
0.942265
0.941992
0.942908
0.944263
0.946698
0.952847
0.957914
0.960401
0.962019
0.963447
0.963598
0.960753
0.959321
0.959929
0.961348
0.963269
0.968711
0.976271
0.980318
0.982471
0.984093
0.984716
0.981206
0.978107
0.978145
0.97962
0.981596
0.985387
0.994319
1.00137
1.00482
1.00728
1.00934
1.00784
1.00194
0.999562
1.00057
1.00291
1.00623
1.01381
1.023
1.02899
1.03288
1.036
1.03752
1.03426
1.02919
1.02821
1.03057
1.03502
1.04277
1.05001
1.05508
1.05813
1.0602
1.18596
1.61534
0.880848
0.885236
0.889241
0.891382
0.892688
0.893795
0.894763
0.895032
0.894495
0.894766
0.895618
0.896706
0.898926
0.903664
0.907064
0.908849
0.910166
0.91132
0.912205
0.911594
0.910837
0.911322
0.912335
0.913706
0.917505
0.922571
0.925287
0.926838
0.928107
0.92922
0.929093
0.927473
0.927351
0.928238
0.929462
0.931746
0.937404
0.941885
0.94405
0.945492
0.946771
0.947226
0.945187
0.943967
0.944519
0.94571
0.947301
0.951845
0.958488
0.96204
0.963917
0.965385
0.966414
0.964418
0.961551
0.961448
0.962629
0.964233
0.967109
0.974699
0.981024
0.983899
0.985741
0.987276
0.986647
0.982133
0.980005
0.980485
0.982101
0.984279
0.989893
0.999621
1.00559
1.00854
1.01069
1.0121
1.00915
1.00372
1.00226
1.00347
1.0059
1.00987
1.01834
1.02672
1.03213
1.03582
1.03879
1.03955
1.03578
1.031
1.03024
1.03249
1.03705
1.04502
1.05192
1.05598
1.06019
1.19137
1.6175
0.882524
0.886108
0.890552
0.893172
0.894615
0.895767
0.896785
0.897392
0.896792
0.896648
0.897335
0.898361
0.899943
0.904257
0.908573
0.910707
0.912054
0.913203
0.914199
0.914007
0.912799
0.912967
0.913889
0.915086
0.91767
0.923113
0.926817
0.928627
0.929918
0.931073
0.931568
0.929968
0.929128
0.929747
0.930867
0.932359
0.936718
0.942583
0.94562
0.947257
0.948565
0.949594
0.948358
0.946059
0.945954
0.946938
0.948327
0.950856
0.957552
0.963044
0.965588
0.967149
0.968501
0.968282
0.964828
0.963215
0.963729
0.965077
0.966851
0.97155
0.980009
0.985018
0.987541
0.98937
0.990706
0.987864
0.982947
0.981843
0.982931
0.984798
0.987318
0.994475
1.00381
1.00864
1.01129
1.01372
1.01517
1.01116
1.00578
1.00482
1.00633
1.00898
1.01366
1.02236
1.02986
1.03475
1.03826
1.04099
1.04139
1.03713
1.03234
1.0315
1.03336
1.03802
1.04628
1.05247
1.05883
1.19814
1.61979
0.884069
0.886825
0.891337
0.894631
0.896286
0.897514
0.898582
0.899439
0.899041
0.898409
0.898908
0.899878
0.901123
0.904447
0.909483
0.912245
0.913724
0.914898
0.915955
0.916262
0.914917
0.914598
0.915368
0.916474
0.918106
0.922849
0.927813
0.930201
0.931602
0.932792
0.933727
0.932732
0.93104
0.931191
0.932163
0.933426
0.935988
0.942209
0.946731
0.948843
0.950239
0.951483
0.951581
0.948865
0.947585
0.94821
0.949443
0.950994
0.955451
0.9628
0.966781
0.968783
0.970247
0.9714
0.9694
0.965662
0.96491
0.965809
0.967392
0.96969
0.976598
0.984805
0.988681
0.990651
0.992203
0.993061
0.989247
0.984958
0.984372
0.985323
0.987117
0.990273
0.998918
1.00787
1.01237
1.01488
1.01696
1.01741
1.01288
1.00823
1.00758
1.00906
1.01175
1.01732
1.02618
1.03297
1.03736
1.04055
1.04288
1.04287
1.0383
1.03315
1.03194
1.03322
1.03849
1.04654
1.05525
1.20526
1.62195
0.8855
0.887688
0.891703
0.895872
0.897871
0.899182
0.900293
0.901277
0.901295
0.900298
0.900479
0.901336
0.902423
0.904593
0.909731
0.913523
0.915323
0.916562
0.917658
0.918388
0.917322
0.916349
0.916819
0.917823
0.919061
0.922196
0.928083
0.931558
0.933253
0.934491
0.935611
0.935604
0.933446
0.93276
0.933479
0.934616
0.936108
0.940774
0.947102
0.950254
0.951909
0.953207
0.954223
0.95257
0.949838
0.94957
0.950442
0.951805
0.954036
0.960673
0.96729
0.970352
0.972204
0.973644
0.97389
0.969917
0.966959
0.967114
0.968321
0.969895
0.972931
0.981367
0.988523
0.991697
0.993906
0.995801
0.995806
0.990453
0.986545
0.986496
0.987939
0.989972
0.993713
1.00298
1.01108
1.01492
1.01736
1.0197
1.02018
1.0151
1.01038
1.00989
1.01161
1.01454
1.0209
1.02955
1.03569
1.03967
1.04259
1.04464
1.04424
1.03915
1.03337
1.03145
1.0325
1.03831
1.04941
1.21099
1.6235
0.886891
0.888802
0.891828
0.896803
0.899437
0.900865
0.902009
0.903036
0.90349
0.902416
0.902092
0.902757
0.903763
0.905179
0.909428
0.914427
0.916864
0.918226
0.919364
0.920354
0.919979
0.918363
0.918314
0.919163
0.920284
0.922038
0.927342
0.932458
0.934809
0.936181
0.937373
0.938196
0.936588
0.934694
0.934848
0.935779
0.93701
0.939506
0.946136
0.951217
0.953489
0.954904
0.956194
0.956355
0.953121
0.951177
0.951602
0.952789
0.954268
0.957889
0.965896
0.971146
0.973439
0.975009
0.976459
0.975812
0.971247
0.969048
0.969281
0.97037
0.972113
0.976576
0.986095
0.992438
0.995152
0.996865
0.998392
0.997838
0.992452
0.989193
0.989245
0.990389
0.992336
0.996912
1.00679
1.01435
1.01807
1.02044
1.02232
1.02203
1.01703
1.01275
1.01227
1.0138
1.01686
1.02404
1.03267
1.03833
1.04177
1.04428
1.04597
1.04523
1.03987
1.03298
1.03013
1.03089
1.04146
1.21381
1.62426
0.888307
0.890095
0.89208
0.897258
0.900859
0.902554
0.90373
0.904765
0.90554
0.904777
0.903814
0.904206
0.905131
0.906266
0.908993
0.914644
0.918202
0.919889
0.921077
0.922156
0.922588
0.920887
0.91997
0.920512
0.92152
0.922746
0.926112
0.932471
0.936106
0.937864
0.939104
0.940241
0.940011
0.937315
0.93636
0.937003
0.93812
0.939554
0.944011
0.951108
0.954831
0.95671
0.957999
0.959087
0.95752
0.953947
0.953141
0.953873
0.955119
0.956802
0.962193
0.970385
0.974581
0.976755
0.978426
0.97968
0.977203
0.972125
0.97068
0.97151
0.972914
0.974748
0.980166
0.989774
0.99511
0.997708
0.999938
1.0017
1.00015
0.994022
0.990955
0.991357
0.992936
0.995166
1.00025
1.00995
1.0168
1.02016
1.02247
1.02462
1.02454
1.01912
1.01456
1.01403
1.01561
1.01896
1.0267
1.03508
1.0402
1.04328
1.04564
1.04706
1.04601
1.04015
1.03224
1.02762
1.0317
1.21155
1.62411
0.889775
0.891507
0.892811
0.89722
0.901902
0.90414
0.905411
0.906472
0.907419
0.907317
0.905865
0.90576
0.906535
0.907573
0.909132
0.913983
0.919047
0.921407
0.922741
0.923883
0.924835
0.923943
0.921979
0.921916
0.922762
0.923893
0.925672
0.931242
0.936829
0.939322
0.940738
0.941937
0.942783
0.940856
0.938375
0.938381
0.939357
0.940557
0.942556
0.948985
0.955261
0.957975
0.959583
0.960906
0.961599
0.958543
0.95531
0.955042
0.955909
0.957254
0.959601
0.966898
0.974544
0.977874
0.979578
0.980927
0.981982
0.978853
0.974235
0.973175
0.973664
0.974934
0.977062
0.983979
0.99378
0.998732
1.00092
1.0025
1.00385
1.0021
0.996345
0.993656
0.993928
0.995178
0.997318
1.00327
1.01325
1.01966
1.02284
1.02506
1.02677
1.02623
1.02104
1.01652
1.01574
1.0171
1.02041
1.02859
1.03694
1.04171
1.04444
1.0466
1.04767
1.04642
1.0399
1.0299
1.02522
1.20421
1.62326
0.891381
0.893
0.893961
0.896941
0.902312
0.905485
0.907029
0.908177
0.909201
0.909747
0.908349
0.907446
0.907938
0.908887
0.910048
0.913051
0.919079
0.922677
0.924386
0.925563
0.926638
0.926895
0.924666
0.923537
0.924101
0.925159
0.926374
0.929526
0.936267
0.940392
0.94229
0.943546
0.944734
0.944641
0.941534
0.940079
0.94054
0.941536
0.942822
0.946167
0.953846
0.958918
0.961227
0.962752
0.964034
0.963558
0.959107
0.956737
0.957146
0.958335
0.959682
0.962547
0.970938
0.977704
0.980602
0.98259
0.984294
0.984773
0.980045
0.975407
0.974853
0.976061
0.977631
0.979835
0.987238
0.996405
1.00064
1.00296
1.00514
1.00671
1.00439
0.998259
0.99548
0.995948
0.997615
1.00007
1.00641
1.01586
1.02164
1.02463
1.02689
1.02894
1.02861
1.02287
1.0178
1.01685
1.01816
1.02154
1.02988
1.03809
1.04255
1.04516
1.04721
1.04798
1.04637
1.03721
1.02564
1.19383
1.62248
0.893101
0.894484
0.895318
0.897007
0.90198
0.906527
0.90862
0.909831
0.910868
0.911748
0.9111
0.909393
0.909415
0.910263
0.911337
0.912934
0.917971
0.923344
0.92578
0.92712
0.928262
0.929213
0.928087
0.925733
0.925574
0.926403
0.927497
0.928994
0.934135
0.94063
0.943587
0.945157
0.946376
0.947376
0.945743
0.942402
0.941785
0.942627
0.943818
0.945327
0.950365
0.958197
0.962128
0.963995
0.965378
0.966638
0.965261
0.960673
0.958981
0.959304
0.960267
0.961766
0.965823
0.975066
0.981219
0.983724
0.98519
0.986528
0.986782
0.982059
0.978067
0.977566
0.978169
0.979489
0.982073
0.990554
0.999722
1.00384
1.00584
1.00743
1.00876
1.00665
1.00087
0.998154
0.998306
0.999539
1.00188
1.00908
1.01868
1.02421
1.02704
1.02913
1.03083
1.03029
1.0246
1.01925
1.01797
1.01906
1.02225
1.03063
1.03875
1.04304
1.04564
1.04742
1.04803
1.04425
1.03351
1.18557
1.62233
0.89484
0.895857
0.896681
0.897874
0.901263
0.906882
0.909911
0.911365
0.912421
0.913395
0.913718
0.911951
0.911116
0.91168
0.912639
0.91373
0.916489
0.922835
0.926871
0.928714
0.92989
0.930968
0.931305
0.928813
0.927232
0.927625
0.928621
0.929793
0.932178
0.938963
0.944374
0.946682
0.947993
0.949178
0.949602
0.946377
0.943773
0.943895
0.94484
0.945996
0.94787
0.954457
0.961804
0.965086
0.966981
0.968503
0.969508
0.966497
0.961588
0.960484
0.961421
0.962723
0.964199
0.968819
0.978183
0.983525
0.985967
0.987993
0.989654
0.989262
0.983658
0.979453
0.97914
0.980377
0.982018
0.984774
0.993272
1.00171
1.00548
1.00781
1.00996
1.01139
1.00899
1.00276
0.999617
0.999824
1.00148
1.00425
1.01171
1.02079
1.02589
1.02867
1.03094
1.03293
1.03249
1.02621
1.0203
1.01876
1.01975
1.02275
1.0309
1.03883
1.04309
1.04573
1.04747
1.04689
1.0426
1.18293
1.6231
0.896792
0.897354
0.898166
0.899195
0.900936
0.906054
0.910641
0.912712
0.913931
0.915009
0.915931
0.91509
0.913143
0.913052
0.9138
0.914838
0.916277
0.921018
0.927185
0.930015
0.931431
0.932528
0.933523
0.932582
0.929634
0.929043
0.929811
0.930908
0.932111
0.935806
0.943352
0.947637
0.949592
0.950825
0.951976
0.951288
0.947231
0.9454
0.945764
0.946732
0.947996
0.950712
0.958612
0.965229
0.967979
0.969531
0.970802
0.971596
0.968134
0.963798
0.962988
0.963448
0.964508
0.96624
0.972113
0.981735
0.986817
0.988918
0.990256
0.991589
0.991337
0.986108
0.982239
0.981768
0.98238
0.983746
0.986838
0.996193
1.00481
1.00849
1.01037
1.01192
1.01329
1.01137
1.00529
1.00198
1.00183
1.00303
1.0056
1.01352
1.02305
1.02836
1.03106
1.03304
1.03458
1.03395
1.02785
1.02151
1.01952
1.02028
1.02284
1.0306
1.03845
1.04283
1.04574
1.04654
1.04833
1.18566
1.62476
0.899152
0.899025
0.899589
0.900473
0.901486
0.904505
0.910549
0.913949
0.915539
0.916627
0.917646
0.917959
0.915779
0.914576
0.915089
0.916096
0.917197
0.91938
0.92567
0.930711
0.932861
0.934083
0.935198
0.935848
0.933397
0.931
0.931034
0.931837
0.93292
0.934454
0.939916
0.947342
0.950772
0.952526
0.953691
0.95465
0.952396
0.948046
0.947011
0.947827
0.948995
0.950251
0.953551
0.962127
0.968032
0.970535
0.972317
0.973854
0.974123
0.969299
0.964896
0.964481
0.96562
0.96699
0.968693
0.974866
0.984079
0.98856
0.990852
0.992847
0.994432
0.993768
0.988022
0.983695
0.983246
0.984468
0.986207
0.989509
0.998554
1.00637
1.00987
1.01222
1.01431
1.01573
1.01354
1.007
1.0032
1.00305
1.00457
1.00743
1.01531
1.02454
1.02966
1.0324
1.03453
1.03619
1.03574
1.02947
1.02253
1.02007
1.02046
1.02251
1.02983
1.0377
1.04274
1.0447
1.05073
1.19293
1.62704
0.901883
0.900759
0.900749
0.901523
0.902532
0.904058
0.909068
0.91452
0.916891
0.918112
0.919164
0.920098
0.919223
0.916847
0.916572
0.917295
0.918258
0.919377
0.922934
0.930035
0.933937
0.935683
0.936823
0.937894
0.937519
0.933969
0.932373
0.932879
0.933959
0.935121
0.937197
0.944112
0.950746
0.953496
0.955124
0.956325
0.956962
0.953723
0.949876
0.949284
0.949848
0.950875
0.95233
0.956784
0.965785
0.971139
0.973348
0.974644
0.975839
0.976002
0.971355
0.967548
0.967088
0.967565
0.968671
0.970665
0.977859
0.987261
0.99166
0.993538
0.994819
0.996198
0.995968
0.990644
0.986465
0.985847
0.986442
0.987786
0.991224
1.00101
1.00922
1.01269
1.0145
1.01601
1.01746
1.0158
1.00939
1.00539
1.00491
1.00598
1.00828
1.01603
1.02582
1.03145
1.03429
1.03611
1.0373
1.03697
1.03113
1.0236
1.02035
1.0203
1.02173
1.02869
1.037
1.0415
1.05079
1.20211
1.62954
0.904528
0.903121
0.902146
0.902723
0.903669
0.904696
0.907201
0.913515
0.917776
0.919643
0.920774
0.921827
0.922375
0.920156
0.918212
0.918356
0.919208
0.920273
0.921859
0.927226
0.93394
0.936913
0.938365
0.939429
0.940356
0.938519
0.934924
0.934289
0.935051
0.936093
0.937204
0.940034
0.947943
0.953794
0.956254
0.957866
0.959175
0.959283
0.954726
0.951
0.950896
0.952028
0.95326
0.954661
0.959607
0.968581
0.973313
0.975476
0.977268
0.978749
0.978366
0.972897
0.968771
0.968489
0.969659
0.971111
0.973153
0.980292
0.989022
0.993034
0.99528
0.99727
0.998823
0.998331
0.992742
0.988006
0.987174
0.988284
0.990031
0.993665
1.00293
1.01044
1.01386
1.01627
1.01835
1.01983
1.01802
1.01122
1.00662
1.00592
1.00718
1.0096
1.0169
1.02648
1.03223
1.0352
1.03709
1.0383
1.03816
1.0327
1.02458
1.02031
1.01959
1.02051
1.02776
1.03541
1.04774
1.21139
1.63168
0.906683
0.906333
0.904098
0.904039
0.904718
0.905639
0.906884
0.911042
0.917676
0.920891
0.922374
0.923422
0.92441
0.923924
0.920811
0.919751
0.920361
0.921379
0.922446
0.924589
0.931279
0.937179
0.939641
0.941047
0.942157
0.942607
0.939342
0.936289
0.936094
0.936858
0.937955
0.939287
0.943225
0.951551
0.956598
0.958688
0.960072
0.961255
0.96103
0.956494
0.953476
0.953364
0.953953
0.955033
0.956749
0.962775
0.97179
0.976281
0.978144
0.979279
0.980459
0.980338
0.975353
0.971582
0.971139
0.971621
0.972718
0.974909
0.982786
0.991891
0.995963
0.997767
0.998999
1.00042
1.00057
0.995494
0.990657
0.989621
0.990098
0.991352
0.994856
1.00475
1.01309
1.01669
1.01854
1.02003
1.02146
1.02031
1.01384
1.00882
1.00771
1.0084
1.01012
1.0167
1.02688
1.03334
1.03643
1.03799
1.03896
1.03895
1.03423
1.02567
1.02001
1.01832
1.01926
1.02615
1.04139
1.21841
1.63291
0.908419
0.909351
0.906859
0.905442
0.905829
0.90674
0.907764
0.909597
0.915482
0.921263
0.923669
0.924924
0.925969
0.926779
0.924899
0.922021
0.921745
0.922414
0.923315
0.924458
0.927543
0.935168
0.940318
0.942467
0.943761
0.944835
0.944427
0.940106
0.937651
0.937969
0.93906
0.940177
0.941474
0.946122
0.954572
0.959051
0.961074
0.962655
0.964012
0.963152
0.957727
0.954664
0.954937
0.956161
0.957435
0.95906
0.965246
0.973871
0.977895
0.979948
0.981745
0.983188
0.982732
0.977399
0.973041
0.972454
0.973534
0.975011
0.977319
0.984838
0.993208
0.997078
0.999366
1.00135
1.00294
1.0029
0.997714
0.992262
0.990788
0.991675
0.993357
0.996927
1.00618
1.01404
1.01767
1.02008
1.02217
1.02368
1.02258
1.01579
1.01001
1.00841
1.00919
1.01098
1.01716
1.02725
1.03393
1.03698
1.03845
1.03941
1.03962
1.03572
1.02691
1.01938
1.01672
1.01686
1.03235
1.22144
1.63321
0.909986
0.911334
0.910379
0.907719
0.907228
0.907904
0.90886
0.909914
0.912728
0.919751
0.924458
0.926426
0.927565
0.928588
0.928771
0.925554
0.923239
0.923406
0.924341
0.925409
0.926729
0.930856
0.938668
0.94303
0.945014
0.94638
0.947407
0.946105
0.941631
0.939862
0.940161
0.940886
0.941989
0.943647
0.949366
0.957647
0.961732
0.963532
0.964698
0.965775
0.964931
0.96002
0.957441
0.957446
0.957988
0.959061
0.960981
0.967928
0.976693
0.980729
0.982448
0.98353
0.984837
0.985046
0.980214
0.97586
0.975081
0.975506
0.976531
0.978735
0.986688
0.995753
0.999894
1.00174
1.00297
1.0045
1.00519
1.00063
0.994924
0.993179
0.993394
0.994463
0.99748
1.00697
1.01608
1.02032
1.02225
1.0236
1.02495
1.02457
1.01857
1.01236
1.01017
1.01034
1.01151
1.01678
1.02713
1.03433
1.03739
1.03872
1.03967
1.03994
1.03698
1.02799
1.01894
1.01359
1.02116
1.21839
1.63221
0.911447
0.912809
0.913371
0.911259
0.90907
0.909127
0.909905
0.910878
0.912182
0.916436
0.923714
0.927433
0.929067
0.930042
0.930988
0.930119
0.926296
0.924951
0.925499
0.926449
0.927445
0.92885
0.933965
0.941851
0.945788
0.947664
0.949024
0.94996
0.947731
0.942772
0.941197
0.941934
0.94314
0.944288
0.945863
0.951977
0.960048
0.963723
0.965591
0.96721
0.968503
0.967208
0.961701
0.958672
0.958856
0.960035
0.961355
0.963206
0.96997
0.978264
0.982046
0.98415
0.985967
0.987412
0.987366
0.982458
0.97745
0.976288
0.977202
0.978643
0.980981
0.988321
0.996714
1.00083
1.00334
1.00547
1.00707
1.0075
1.00282
0.996479
0.994107
0.994611
0.996118
0.999094
1.00768
1.01653
1.02081
1.02326
1.02543
1.02702
1.02686
1.0209
1.01377
1.01071
1.01068
1.01186
1.01664
1.02686
1.03428
1.0373
1.03865
1.03977
1.04013
1.03777
1.02866
1.01647
1.01408
1.20865
1.63022
0.912789
0.914261
0.915162
0.915039
0.912045
0.910711
0.9112
0.912143
0.91312
0.914657
0.920058
0.926968
0.930071
0.931593
0.932614
0.933402
0.931165
0.927443
0.926685
0.927261
0.928215
0.92937
0.931198
0.937267
0.944758
0.948177
0.949839
0.951104
0.951914
0.949458
0.945013
0.943816
0.944181
0.944894
0.946031
0.948041
0.954887
0.962829
0.966386
0.967995
0.969018
0.970168
0.969445
0.964438
0.961518
0.961346
0.961797
0.962824
0.964838
0.972189
0.980926
0.984856
0.986531
0.987582
0.988894
0.989538
0.985348
0.980262
0.978892
0.979135
0.980045
0.982053
0.989575
0.999122
1.00379
1.00577
1.00697
1.00837
1.0094
1.00568
0.999208
0.996505
0.996356
0.997179
0.999307
1.00747
1.01786
1.0233
1.02549
1.02689
1.0281
1.02824
1.02338
1.01591
1.01196
1.01135
1.01216
1.0161
1.02619
1.03393
1.037
1.03845
1.03976
1.04004
1.03794
1.02644
1.01506
1.19554
1.6288
0.913699
0.915709
0.916616
0.917594
0.916408
0.913399
0.912812
0.913368
0.914139
0.915068
0.917006
0.923509
0.9301
0.932839
0.934198
0.935157
0.93553
0.932066
0.928672
0.928465
0.929398
0.930506
0.93157
0.93337
0.940057
0.947334
0.950482
0.952165
0.953564
0.954374
0.951358
0.946427
0.945114
0.945913
0.947123
0.948289
0.950121
0.957003
0.96466
0.967975
0.969876
0.971537
0.972839
0.971881
0.966487
0.962802
0.962581
0.963646
0.965007
0.967033
0.973925
0.98208
0.985871
0.988028
0.989902
0.991388
0.991877
0.987765
0.982029
0.98001
0.980621
0.982013
0.984191
0.990945
0.999797
1.00437
1.00697
1.00918
1.01087
1.01173
1.00812
1.00113
0.997514
0.997342
0.998666
1.00088
1.00798
1.01799
1.02345
1.02596
1.02789
1.02961
1.03024
1.02571
1.01741
1.01251
1.01154
1.01231
1.01584
1.02538
1.03312
1.0364
1.03821
1.03957
1.04005
1.03569
1.02567
1.1859
1.62838
0.913677
0.917231
0.91832
0.919381
0.92001
0.917462
0.914587
0.914364
0.915143
0.916143
0.917196
0.919645
0.92682
0.93279
0.935293
0.936741
0.937803
0.937567
0.933402
0.930738
0.930726
0.931301
0.932208
0.933408
0.935804
0.943106
0.949919
0.95281
0.954311
0.955412
0.956155
0.953497
0.94905
0.947829
0.948099
0.948709
0.949849
0.952054
0.95951
0.967314
0.97068
0.972209
0.973199
0.974491
0.974315
0.969397
0.965638
0.965099
0.96546
0.966391
0.96833
0.975516
0.984421
0.988627
0.990404
0.991501
0.992835
0.993918
0.990774
0.984928
0.982645
0.9826
0.983257
0.9849
0.991364
1.00151
1.00722
1.00954
1.01083
1.01212
1.01348
1.01121
1.00434
1.00016
0.999326
0.999704
1.00108
1.0071
1.01802
1.02508
1.02792
1.02942
1.03063
1.03114
1.02779
1.01956
1.01365
1.01211
1.01254
1.01512
1.02399
1.03203
1.03584
1.03796
1.03948
1.03887
1.03648
1.18402
1.62912
0.911716
0.918236
0.919962
0.921032
0.922002
0.921772
0.918058
0.916041
0.916346
0.917192
0.918098
0.919116
0.921964
0.929798
0.935549
0.937941
0.939351
0.94036
0.939496
0.934693
0.932007
0.932266
0.93334
0.934474
0.93555
0.93789
0.945495
0.952034
0.954723
0.956407
0.95789
0.958741
0.955688
0.950551
0.948937
0.949616
0.95081
0.95203
0.954054
0.96127
0.968748
0.97201
0.973988
0.975684
0.977023
0.976717
0.971614
0.967038
0.966185
0.967112
0.96847
0.970488
0.976946
0.985259
0.989432
0.991784
0.993823
0.995379
0.996286
0.993203
0.986764
0.98362
0.983735
0.985041
0.986955
0.992574
1.00193
1.00755
1.0104
1.0128
1.01463
1.01587
1.01376
1.00644
1.00103
0.999766
1.00066
1.00235
1.00758
1.01792
1.02509
1.02814
1.03003
1.03174
1.03265
1.02985
1.02118
1.01414
1.01203
1.01235
1.01448
1.0225
1.03067
1.03503
1.03784
1.03834
1.04313
1.18836
1.63102
0.908375
0.917252
0.920902
0.922618
0.923606
0.924486
0.923037
0.919018
0.91766
0.917983
0.91874
0.919751
0.921097
0.924773
0.932819
0.938012
0.940169
0.941579
0.942555
0.941313
0.936689
0.934558
0.934671
0.935157
0.936019
0.937272
0.940274
0.948291
0.954608
0.957195
0.95854
0.959472
0.960376
0.958106
0.95331
0.95167
0.951838
0.952357
0.953459
0.955701
0.963406
0.971337
0.974726
0.976239
0.977183
0.978434
0.978905
0.974617
0.969944
0.968844
0.969108
0.969875
0.971546
0.977883
0.987268
0.992235
0.994264
0.995427
0.996639
0.997984
0.996092
0.989859
0.986464
0.986055
0.986515
0.987765
0.99236
1.00257
1.00993
1.01298
1.01449
1.0156
1.01699
1.01622
1.00973
1.00382
1.00197
1.00203
1.00298
1.00675
1.01709
1.02584
1.02971
1.03139
1.03248
1.03296
1.03099
1.02301
1.01517
1.01233
1.01226
1.01353
1.02064
1.02905
1.03461
1.03659
1.04566
1.19745
1.63354
0.906782
0.913014
0.920221
0.923603
0.925179
0.926107
0.926721
0.924021
0.919949
0.919157
0.919904
0.920953
0.921983
0.923247
0.927153
0.935321
0.940288
0.942389
0.943813
0.944918
0.943572
0.938446
0.935774
0.936031
0.937104
0.938276
0.93945
0.942292
0.950276
0.956291
0.958755
0.960474
0.961959
0.96292
0.960481
0.955072
0.952747
0.953161
0.954313
0.955627
0.95779
0.964967
0.972425
0.97575
0.977746
0.979502
0.980897
0.981241
0.977086
0.971669
0.969893
0.970526
0.971812
0.973625
0.979131
0.987851
0.992748
0.995304
0.997509
0.999205
1.0004
0.998674
0.992241
0.987741
0.986985
0.987981
0.989543
0.993243
1.00231
1.00964
1.01315
1.01566
1.01777
1.01919
1.01865
1.01229
1.00524
1.00245
1.00263
1.00393
1.00725
1.01654
1.02533
1.02944
1.03141
1.03277
1.03357
1.03248
1.025
1.01627
1.01239
1.01171
1.01234
1.01874
1.0279
1.03275
1.04558
1.20794
1.6361
0.907465
0.909966
0.9158
0.922847
0.925954
0.927562
0.928595
0.928787
0.925124
0.921748
0.921478
0.922064
0.922787
0.923782
0.925246
0.929679
0.937775
0.942473
0.944459
0.945739
0.946654
0.945496
0.940899
0.938555
0.938597
0.93907
0.939866
0.941101