/*--------------------------------*- C++ -*----------------------------------*\
  =========                 |
  \\      /  F ield         | OpenFOAM: The Open Source CFD Toolbox
   \\    /   O peration     | Website:  https://openfoam.org
    \\  /    A nd           | Version:  12
     \\/     M anipulation  |
\*---------------------------------------------------------------------------*/
FoamFile
{
    format      ascii;
    class       volVectorField;
    location    "10";
    object      U;
}
// * * * * * * * * * * * * * * * * * * * * * * * * * * * * * * * * * * * * * //

dimensions      [0 1 -1 0 0 0 0];

internalField   nonuniform List<vector> 
9801
(
(1.16001 -0.067051 0)
(1.15578 -0.0640697 0)
(1.15296 -0.0619868 0)
(1.15107 -0.059452 0)
(1.15331 -0.0570702 0)
(1.15812 -0.0542316 0)
(1.15931 -0.0516362 0)
(1.15763 -0.0492186 0)
(1.15443 -0.0471074 0)
(1.15001 -0.0448249 0)
(1.14535 -0.0420356 0)
(1.14152 -0.0392052 0)
(1.13831 -0.0368306 0)
(1.13522 -0.0350754 0)
(1.13256 -0.0332244 0)
(1.13338 -0.031076 0)
(1.13841 -0.02865 0)
(1.14043 -0.0262245 0)
(1.13895 -0.0239914 0)
(1.13569 -0.0220672 0)
(1.13092 -0.0200152 0)
(1.12557 -0.0174792 0)
(1.12142 -0.0146662 0)
(1.11801 -0.0124265 0)
(1.11477 -0.0109222 0)
(1.11168 -0.00951628 0)
(1.11192 -0.00759996 0)
(1.11716 -0.00551346 0)
(1.11954 -0.00332516 0)
(1.11795 -0.00146432 0)
(1.11432 1.08409e-05 0)
(1.10849 0.00161216 0)
(1.10211 0.00373768 0)
(1.09748 0.0062983 0)
(1.0938 0.00835934 0)
(1.09029 0.0096256 0)
(1.08681 0.0107328 0)
(1.08704 0.0122792 0)
(1.09286 0.0142151 0)
(1.09476 0.01614 0)
(1.0924 0.0173745 0)
(1.08788 0.0184257 0)
(1.08064 0.0194954 0)
(1.07312 0.0213413 0)
(1.06786 0.0237156 0)
(1.0637 0.0255025 0)
(1.05974 0.0265169 0)
(1.05604 0.0271433 0)
(1.05709 0.0284691 0)
(1.06429 0.0301831 0)
(1.0659 0.0317884 0)
(1.0625 0.0326983 0)
(1.05654 0.0333766 0)
(1.04633 0.0339644 0)
(1.03701 0.0352888 0)
(1.03077 0.0371275 0)
(1.0257 0.0385769 0)
(1.02125 0.0394108 0)
(1.0176 0.039935 0)
(1.02137 0.0412709 0)
(1.02887 0.0427222 0)
(1.02915 0.0436406 0)
(1.0248 0.0439703 0)
(1.01661 0.0442039 0)
(1.00225 0.0439433 0)
(0.990933 0.0448652 0)
(0.983523 0.0465824 0)
(0.977916 0.0481118 0)
(0.972669 0.0489384 0)
(0.970698 0.0498338 0)
(0.978699 0.0504787 0)
(0.98356 0.0510461 0)
(0.981209 0.0508121 0)
(0.97577 0.050919 0)
(0.964028 0.0527787 0)
(0.944014 0.0547129 0)
(0.929184 0.0571484 0)
(0.920245 0.0591073 0)
(0.913353 0.0601286 0)
(0.908322 0.0601486 0)
(0.915044 0.0595461 0)
(0.924543 0.0600673 0)
(0.922732 0.0618803 0)
(0.915805 0.0639804 0)
(0.904916 0.0665439 0)
(0.882022 0.0680086 0)
(0.853514 0.068396 0)
(0.833857 0.0678073 0)
(0.822116 0.0657224 0)
(0.815557 0.0622884 0)
(0.825013 0.0601225 0)
(0.830646 0.0615514 0)
(0.822757 0.063969 0)
(0.80754 0.0632873 0)
(0.781782 0.0597973 0)
(0.730614 0.0540874 0)
(0.665015 0.022752 0)
(0.278219 -0.0651614 0)
(-0.710225 -0.0423693 0)
(1.23712 -0.118004 0)
(1.23037 -0.114536 0)
(1.22686 -0.112583 0)
(1.22438 -0.110024 0)
(1.22776 -0.107067 0)
(1.23033 -0.104167 0)
(1.22854 -0.101142 0)
(1.22501 -0.0984216 0)
(1.2209 -0.0962834 0)
(1.21593 -0.0938609 0)
(1.20813 -0.0905653 0)
(1.20175 -0.0875273 0)
(1.19693 -0.0849696 0)
(1.19297 -0.0829976 0)
(1.18976 -0.0809631 0)
(1.19141 -0.0782548 0)
(1.19505 -0.075436 0)
(1.19399 -0.0724424 0)
(1.19062 -0.0697455 0)
(1.18647 -0.0676964 0)
(1.18151 -0.0655229 0)
(1.17301 -0.0624399 0)
(1.16588 -0.0593813 0)
(1.1607 -0.0568355 0)
(1.15653 -0.0549044 0)
(1.15295 -0.0532019 0)
(1.15308 -0.0506922 0)
(1.15719 -0.0477954 0)
(1.15695 -0.0448696 0)
(1.15375 -0.0423736 0)
(1.14962 -0.0405783 0)
(1.14435 -0.0386883 0)
(1.13476 -0.0359114 0)
(1.12696 -0.0329883 0)
(1.12149 -0.0305635 0)
(1.11701 -0.0287105 0)
(1.11313 -0.0271894 0)
(1.11285 -0.0248956 0)
(1.11753 -0.0218086 0)
(1.11779 -0.0188719 0)
(1.11471 -0.0167472 0)
(1.11067 -0.0154244 0)
(1.10432 -0.0138303 0)
(1.09313 -0.0111803 0)
(1.08484 -0.00828709 0)
(1.07898 -0.00585845 0)
(1.07432 -0.00422174 0)
(1.07038 -0.00296547 0)
(1.07068 -0.000814386 0)
(1.07612 0.00238818 0)
(1.07643 0.00544521 0)
(1.07286 0.00746445 0)
(1.06855 0.00837964 0)
(1.06012 0.00951052 0)
(1.04746 0.0115355 0)
(1.03882 0.0142878 0)
(1.03266 0.0166752 0)
(1.02777 0.018181 0)
(1.02367 0.0191799 0)
(1.02606 0.0214672 0)
(1.03197 0.0247826 0)
(1.03136 0.0275502 0)
(1.02701 0.0292522 0)
(1.02171 0.0301536 0)
(1.00965 0.0306966 0)
(0.995392 0.0319953 0)
(0.986381 0.0342291 0)
(0.980011 0.0359269 0)
(0.974304 0.0366279 0)
(0.971697 0.0379684 0)
(0.979308 0.041055 0)
(0.983677 0.0446023 0)
(0.980694 0.0479527 0)
(0.975242 0.0491141 0)
(0.966373 0.0498716 0)
(0.947775 0.0491759 0)
(0.931406 0.0486668 0)
(0.921698 0.049409 0)
(0.914647 0.04974 0)
(0.909309 0.0505967 0)
(0.914044 0.0536567 0)
(0.920654 0.058429 0)
(0.919419 0.063496 0)
(0.913441 0.0664001 0)
(0.905171 0.0665289 0)
(0.887354 0.0632001 0)
(0.857412 0.0582019 0)
(0.836056 0.0568913 0)
(0.823367 0.0559241 0)
(0.813828 0.0543246 0)
(0.814718 0.0574221 0)
(0.817849 0.0678435 0)
(0.810557 0.0726023 0)
(0.796759 0.0715081 0)
(0.772991 0.0683833 0)
(0.725195 0.0615209 0)
(0.666496 0.0313381 0)
(0.276205 -0.0636805 0)
(-0.721257 -0.0506032 0)
(1.23278 -0.115543 0)
(1.22571 -0.111926 0)
(1.22213 -0.109683 0)
(1.21965 -0.106849 0)
(1.22272 -0.103525 0)
(1.22522 -0.100695 0)
(1.22369 -0.0981538 0)
(1.22034 -0.0955965 0)
(1.2162 -0.0931958 0)
(1.21127 -0.0906365 0)
(1.20385 -0.0879941 0)
(1.19755 -0.0856352 0)
(1.19261 -0.0830993 0)
(1.18848 -0.0806866 0)
(1.18521 -0.0783117 0)
(1.18667 -0.0752597 0)
(1.19017 -0.0723538 0)
(1.18939 -0.0698087 0)
(1.18625 -0.0673552 0)
(1.18211 -0.0651252 0)
(1.17717 -0.0628257 0)
(1.16908 -0.0604266 0)
(1.16215 -0.0582483 0)
(1.15685 -0.0558483 0)
(1.15243 -0.0534042 0)
(1.1487 -0.0512236 0)
(1.14863 -0.0483418 0)
(1.15274 -0.0452866 0)
(1.15284 -0.042681 0)
(1.14987 -0.0403606 0)
(1.14572 -0.0383737 0)
(1.14044 -0.0363194 0)
(1.13135 -0.0343616 0)
(1.12391 -0.0326253 0)
(1.11836 -0.0305843 0)
(1.11361 -0.0282671 0)
(1.10955 -0.0262041 0)
(1.10885 -0.0233951 0)
(1.11368 -0.0199338 0)
(1.1144 -0.0170737 0)
(1.11144 -0.0149163 0)
(1.10727 -0.0133124 0)
(1.10085 -0.0115353 0)
(1.09034 -0.0102154 0)
(1.08264 -0.00893423 0)
(1.07672 -0.00708892 0)
(1.07171 -0.00489886 0)
(1.06742 -0.00297082 0)
(1.06692 -3.12262e-05 0)
(1.07264 0.00376502 0)
(1.07361 0.00683038 0)
(1.07027 0.00905103 0)
(1.06581 0.0104275 0)
(1.05762 0.0118179 0)
(1.04524 0.0122158 0)
(1.03669 0.0132419 0)
(1.0303 0.0150754 0)
(1.02519 0.0169926 0)
(1.02091 0.0187568 0)
(1.0226 0.0217203 0)
(1.02886 0.0256467 0)
(1.02893 0.0287779 0)
(1.02487 0.0309938 0)
(1.01977 0.0323766 0)
(1.0085 0.0327544 0)
(0.993375 0.0317656 0)
(0.983573 0.0323846 0)
(0.976748 0.034014 0)
(0.970838 0.0355959 0)
(0.967913 0.0375801 0)
(0.974533 0.0419259 0)
(0.979685 0.046772 0)
(0.977639 0.0502652 0)
(0.97239 0.0519873 0)
(0.964908 0.0526396 0)
(0.947247 0.0499212 0)
(0.92823 0.0465814 0)
(0.917171 0.046479 0)
(0.909771 0.0475376 0)
(0.903646 0.0486751 0)
(0.905178 0.0532559 0)
(0.912454 0.0604363 0)
(0.913045 0.063416 0)
(0.907833 0.0632751 0)
(0.90046 0.0628822 0)
(0.885123 0.0621691 0)
(0.855287 0.0571234 0)
(0.831307 0.0517039 0)
(0.817045 0.0504044 0)
(0.806362 0.0497851 0)
(0.801552 0.049177 0)
(0.804576 0.051687 0)
(0.800465 0.0527006 0)
(0.788913 0.0508026 0)
(0.770726 0.0476439 0)
(0.730498 0.0418486 0)
(0.680252 0.00857721 0)
(0.277915 -0.0716858 0)
(-0.722984 -0.0400829 0)
(1.22357 -0.113548 0)
(1.21648 -0.109851 0)
(1.21288 -0.1079 0)
(1.21057 -0.105036 0)
(1.21349 -0.101689 0)
(1.21567 -0.0989188 0)
(1.21412 -0.0965199 0)
(1.21103 -0.0941668 0)
(1.20715 -0.0918427 0)
(1.20255 -0.089373 0)
(1.19536 -0.0866413 0)
(1.18879 -0.0842916 0)
(1.18408 -0.0819633 0)
(1.18006 -0.0796246 0)
(1.17697 -0.0770127 0)
(1.17849 -0.0737944 0)
(1.18161 -0.0709397 0)
(1.18079 -0.0685598 0)
(1.17787 -0.0663437 0)
(1.17399 -0.0642497 0)
(1.16941 -0.0620795 0)
(1.16155 -0.0596489 0)
(1.15426 -0.0574262 0)
(1.14922 -0.0551292 0)
(1.14494 -0.0527052 0)
(1.14133 -0.0502301 0)
(1.14135 -0.0470802 0)
(1.14526 -0.0440193 0)
(1.14539 -0.04164 0)
(1.1426 -0.039618 0)
(1.13867 -0.0378057 0)
(1.13385 -0.0359071 0)
(1.12494 -0.0338611 0)
(1.11706 -0.0319453 0)
(1.11173 -0.0297879 0)
(1.10718 -0.027406 0)
(1.10325 -0.0251077 0)
(1.10248 -0.0220924 0)
(1.10712 -0.018715 0)
(1.10811 -0.0161559 0)
(1.10535 -0.0142356 0)
(1.10128 -0.0126845 0)
(1.0956 -0.0110115 0)
(1.08511 -0.00973192 0)
(1.07665 -0.00820419 0)
(1.07085 -0.00602645 0)
(1.06604 -0.00364593 0)
(1.06181 -0.00150555 0)
(1.06099 0.00135881 0)
(1.06653 0.00485085 0)
(1.06795 0.00756966 0)
(1.06497 0.00950011 0)
(1.06068 0.0107373 0)
(1.0538 0.0120156 0)
(1.041 0.0122697 0)
(1.03115 0.013268 0)
(1.0248 0.0151802 0)
(1.01968 0.0172618 0)
(1.01526 0.0193721 0)
(1.01616 0.0226471 0)
(1.0224 0.0264951 0)
(1.02326 0.029262 0)
(1.01969 0.0312493 0)
(1.01508 0.0321716 0)
(1.00617 0.0326643 0)
(0.989818 0.030983 0)
(0.978023 0.0308786 0)
(0.970764 0.0325549 0)
(0.964727 0.0343356 0)
(0.960664 0.0363694 0)
(0.965263 0.0409495 0)
(0.971458 0.0459859 0)
(0.970587 0.0486748 0)
(0.965948 0.0501585 0)
(0.960081 0.0508147 0)
(0.946212 0.0495023 0)
(0.924332 0.0454476 0)
(0.910088 0.0439276 0)
(0.901863 0.0450941 0)
(0.895233 0.04606 0)
(0.892894 0.0487431 0)
(0.899718 0.0556694 0)
(0.90235 0.0616294 0)
(0.898007 0.0649571 0)
(0.891134 0.0662391 0)
(0.880587 0.0664169 0)
(0.856132 0.059321 0)
(0.827833 0.049014 0)
(0.809864 0.0431383 0)
(0.798254 0.0420522 0)
(0.789211 0.0424202 0)
(0.78678 0.0477019 0)
(0.783379 0.0518107 0)
(0.774097 0.0493062 0)
(0.760142 0.0463473 0)
(0.732158 0.0388806 0)
(0.703734 0.00344083 0)
(0.280862 -0.0673657 0)
(-0.726225 -0.0341864 0)
(1.21404 -0.109855 0)
(1.20673 -0.106253 0)
(1.20311 -0.104666 0)
(1.20083 -0.101981 0)
(1.20405 -0.0982228 0)
(1.20634 -0.095133 0)
(1.20481 -0.0926185 0)
(1.20181 -0.0902959 0)
(1.19812 -0.0880993 0)
(1.19376 -0.0858195 0)
(1.18702 -0.0832282 0)
(1.17993 -0.0809946 0)
(1.17506 -0.0789934 0)
(1.17105 -0.0771057 0)
(1.16793 -0.0747465 0)
(1.16972 -0.0709773 0)
(1.17315 -0.067548 0)
(1.17242 -0.0650998 0)
(1.16955 -0.0630276 0)
(1.16586 -0.0611268 0)
(1.16156 -0.0591372 0)
(1.15419 -0.0567659 0)
(1.14623 -0.0547027 0)
(1.14096 -0.0527545 0)
(1.13668 -0.0508083 0)
(1.13302 -0.0487347 0)
(1.13309 -0.0453593 0)
(1.13738 -0.0416339 0)
(1.13778 -0.0390044 0)
(1.1351 -0.0370274 0)
(1.13138 -0.0353236 0)
(1.127 -0.0335511 0)
(1.11869 -0.0316203 0)
(1.10993 -0.0299699 0)
(1.10418 -0.0281508 0)
(1.0996 -0.0262519 0)
(1.09564 -0.0244525 0)
(1.09465 -0.0215749 0)
(1.0994 -0.0176907 0)
(1.10096 -0.0146188 0)
(1.09853 -0.0124205 0)
(1.09469 -0.0107609 0)
(1.08995 -0.0092681 0)
(1.08005 -0.00851101 0)
(1.06987 -0.00789966 0)
(1.06358 -0.00598227 0)
(1.05871 -0.00380838 0)
(1.05452 -0.00182675 0)
(1.05346 0.000952635 0)
(1.05879 0.00476778 0)
(1.0608 0.00812506 0)
(1.05836 0.010581 0)
(1.0544 0.0122972 0)
(1.04913 0.0137059 0)
(1.03732 0.0133556 0)
(1.02517 0.0125183 0)
(1.01791 0.013989 0)
(1.0126 0.0160881 0)
(1.00802 0.0181823 0)
(1.00775 0.0217862 0)
(1.01389 0.026781 0)
(1.01574 0.0302997 0)
(1.01282 0.0325377 0)
(1.00856 0.0338506 0)
(1.00253 0.0346357 0)
(0.987761 0.0324764 0)
(0.972347 0.0297428 0)
(0.96351 0.0304004 0)
(0.957234 0.0322071 0)
(0.952287 0.0341167 0)
(0.95376 0.0388608 0)
(0.960922 0.0459777 0)
(0.961795 0.050055 0)
(0.957811 0.0516729 0)
(0.952527 0.0521343 0)
(0.943604 0.0518454 0)
(0.923138 0.0467125 0)
(0.904524 0.041895 0)
(0.894127 0.0410518 0)
(0.887183 0.0419204 0)
(0.881756 0.0435629 0)
(0.884754 0.0499642 0)
(0.890331 0.0587653 0)
(0.88848 0.0632195 0)
(0.882066 0.0643968 0)
(0.874099 0.0641741 0)
(0.857599 0.0604966 0)
(0.829341 0.0487824 0)
(0.805969 0.0387891 0)
(0.792312 0.0340854 0)
(0.782703 0.0331235 0)
(0.777578 0.0344218 0)
(0.776105 0.036921 0)
(0.771084 0.0338846 0)
(0.761912 0.0298306 0)
(0.745138 0.0254935 0)
(0.725803 0.00772842 0)
(0.286572 -0.0569914 0)
(-0.729061 -0.0291662 0)
(1.20579 -0.106973 0)
(1.19827 -0.103227 0)
(1.19464 -0.101822 0)
(1.19213 -0.0995282 0)
(1.19543 -0.0960449 0)
(1.19802 -0.0929843 0)
(1.19666 -0.0904745 0)
(1.1938 -0.0880742 0)
(1.19025 -0.0858461 0)
(1.1861 -0.0837252 0)
(1.17985 -0.0812655 0)
(1.17236 -0.0789273 0)
(1.16715 -0.076839 0)
(1.16305 -0.0749417 0)
(1.15974 -0.0729937 0)
(1.1613 -0.0695796 0)
(1.16538 -0.0660163 0)
(1.16496 -0.0634578 0)
(1.16223 -0.0613301 0)
(1.15869 -0.0593889 0)
(1.1546 -0.0575316 0)
(1.14783 -0.055419 0)
(1.1392 -0.0534482 0)
(1.13351 -0.0513596 0)
(1.12911 -0.0492438 0)
(1.1254 -0.0472901 0)
(1.12508 -0.0442762 0)
(1.12984 -0.0405601 0)
(1.1308 -0.0377406 0)
(1.12835 -0.0356284 0)
(1.12483 -0.0338377 0)
(1.12077 -0.0322159 0)
(1.11339 -0.0307711 0)
(1.1035 -0.0298221 0)
(1.09707 -0.0278986 0)
(1.09235 -0.0254718 0)
(1.0884 -0.0232144 0)
(1.08706 -0.0202388 0)
(1.09185 -0.0164442 0)
(1.09411 -0.0134223 0)
(1.09211 -0.0111553 0)
(1.08856 -0.00926924 0)
(1.08442 -0.00778456 0)
(1.07635 -0.00686666 0)
(1.06438 -0.00720161 0)
(1.05655 -0.00615598 0)
(1.05152 -0.00394856 0)
(1.04729 -0.00164529 0)
(1.04581 0.00162317 0)
(1.05089 0.00611035 0)
(1.05368 0.00958124 0)
(1.05182 0.0118931 0)
(1.04822 0.0138661 0)
(1.04389 0.0151602 0)
(1.03517 0.0153791 0)
(1.02077 0.0134371 0)
(1.01101 0.013448 0)
(1.00534 0.0153672 0)
(1.00056 0.0174111 0)
(0.998814 0.0208052 0)
(1.00481 0.0266371 0)
(1.00839 0.0309268 0)
(1.00612 0.0327801 0)
(1.00207 0.0337765 0)
(0.99742 0.0343515 0)
(0.98657 0.0336 0)
(0.968731 0.0303768 0)
(0.95686 0.0291746 0)
(0.950045 0.0303 0)
(0.944715 0.0317788 0)
(0.942834 0.0352651 0)
(0.949654 0.0432917 0)
(0.953783 0.0498383 0)
(0.951003 0.0521378 0)
(0.945932 0.052513 0)
(0.939584 0.0525245 0)
(0.924164 0.0489275 0)
(0.902859 0.0420512 0)
(0.888993 0.0385546 0)
(0.880481 0.0381516 0)
(0.873934 0.0389283 0)
(0.871652 0.0426317 0)
(0.8776 0.0518975 0)
(0.879665 0.0596335 0)
(0.875153 0.0631711 0)
(0.867959 0.0640302 0)
(0.857916 0.0632115 0)
(0.83634 0.0543794 0)
(0.809401 0.0399529 0)
(0.790725 0.0305559 0)
(0.779759 0.0262093 0)
(0.771873 0.02524 0)
(0.76965 0.0275593 0)
(0.767972 0.0273992 0)
(0.763159 0.0211936 0)
(0.753044 0.0155818 0)
(0.74354 0.00605896 0)
(0.294758 -0.0485257 0)
(-0.731713 -0.0252235 0)
(1.19936 -0.104611 0)
(1.19164 -0.100895 0)
(1.18804 -0.0993646 0)
(1.18544 -0.097009 0)
(1.18866 -0.0931698 0)
(1.19177 -0.0897272 0)
(1.19059 -0.0872453 0)
(1.18768 -0.0851684 0)
(1.18413 -0.083294 0)
(1.18006 -0.0814908 0)
(1.17421 -0.0793332 0)
(1.16641 -0.0770901 0)
(1.16091 -0.0749372 0)
(1.1568 -0.0728199 0)
(1.15347 -0.0706805 0)
(1.15453 -0.0671656 0)
(1.15908 -0.0633612 0)
(1.15919 -0.0606666 0)
(1.1566 -0.0585838 0)
(1.15311 -0.0568118 0)
(1.1491 -0.0552087 0)
(1.14299 -0.0535057 0)
(1.13386 -0.051979 0)
(1.12742 -0.0502056 0)
(1.12296 -0.0480738 0)
(1.11929 -0.0459136 0)
(1.11858 -0.0426586 0)
(1.12333 -0.0385679 0)
(1.12496 -0.0355157 0)
(1.1229 -0.0332875 0)
(1.11956 -0.0314463 0)
(1.11564 -0.029956 0)
(1.10971 -0.0286102 0)
(1.09918 -0.028105 0)
(1.09116 -0.0270802 0)
(1.08623 -0.0252046 0)
(1.08228 -0.0231148 0)
(1.0806 -0.0199642 0)
(1.0851 -0.0154261 0)
(1.08801 -0.0118611 0)
(1.08645 -0.00952361 0)
(1.08313 -0.00768536 0)
(1.07913 -0.00634132 0)
(1.07333 -0.00526679 0)
(1.06143 -0.00562645 0)
(1.05119 -0.00548316 0)
(1.04544 -0.00424765 0)
(1.04111 -0.00262058 0)
(1.03874 0.000157249 0)
(1.04322 0.00565324 0)
(1.04725 0.0104818 0)
(1.04598 0.0128599 0)
(1.04255 0.0142335 0)
(1.03841 0.0151485 0)
(1.03249 0.015959 0)
(1.0189 0.0149857 0)
(1.00624 0.0141412 0)
(0.99927 0.0147095 0)
(0.99435 0.0159261 0)
(0.990945 0.018119 0)
(0.995227 0.0240916 0)
(1.00142 0.0309565 0)
(1.00072 0.0341162 0)
(0.996892 0.0351478 0)
(0.992425 0.0354299 0)
(0.98464 0.0353956 0)
(0.967832 0.0323743 0)
(0.953203 0.0297275 0)
(0.944697 0.0292485 0)
(0.939052 0.0300056 0)
(0.934598 0.0315334 0)
(0.937641 0.0377091 0)
(0.945338 0.047031 0)
(0.945674 0.0520196 0)
(0.941374 0.053398 0)
(0.935986 0.0534846 0)
(0.926288 0.0520846 0)
(0.906134 0.0440647 0)
(0.887608 0.037052 0)
(0.876348 0.0350889 0)
(0.86917 0.0351975 0)
(0.86367 0.0363802 0)
(0.865465 0.0424661 0)
(0.870987 0.0517794 0)
(0.870408 0.0572345 0)
(0.864942 0.0595719 0)
(0.857419 0.0601913 0)
(0.844195 0.0579387 0)
(0.82028 0.0460159 0)
(0.796561 0.0310408 0)
(0.780755 0.0222522 0)
(0.771585 0.0185885 0)
(0.766156 0.0177177 0)
(0.766623 0.0185962 0)
(0.766372 0.0137791 0)
(0.761515 0.00680063 0)
(0.755285 0.00324157 0)
(0.301484 -0.0388166 0)
(-0.734401 -0.0218217 0)
(1.19513 -0.102114 0)
(1.18726 -0.0984498 0)
(1.1836 -0.0968962 0)
(1.18061 -0.0948036 0)
(1.18318 -0.0909569 0)
(1.18685 -0.0871887 0)
(1.186 -0.0846784 0)
(1.18321 -0.0825814 0)
(1.17976 -0.0806915 0)
(1.17583 -0.0789421 0)
(1.17048 -0.0770057 0)
(1.1623 -0.0749818 0)
(1.15638 -0.073013 0)
(1.15213 -0.0711692 0)
(1.14854 -0.0694342 0)
(1.14883 -0.0661146 0)
(1.1537 -0.061762 0)
(1.1544 -0.0587749 0)
(1.15202 -0.0566557 0)
(1.14869 -0.0547443 0)
(1.14483 -0.0530336 0)
(1.13978 -0.0513316 0)
(1.13062 -0.050038 0)
(1.12302 -0.0485698 0)
(1.11827 -0.0469341 0)
(1.11435 -0.0454527 0)
(1.11281 -0.0426567 0)
(1.1175 -0.0377878 0)
(1.11998 -0.0340078 0)
(1.11826 -0.0317459 0)
(1.1151 -0.0299055 0)
(1.1113 -0.028298 0)
(1.10672 -0.0268448 0)
(1.09717 -0.0262163 0)
(1.08732 -0.0255479 0)
(1.0816 -0.0241738 0)
(1.07738 -0.0228602 0)
(1.07465 -0.0206838 0)
(1.07853 -0.0155408 0)
(1.08274 -0.0106146 0)
(1.08179 -0.00804804 0)
(1.07868 -0.00633644 0)
(1.07484 -0.00486175 0)
(1.07033 -0.00365426 0)
(1.06015 -0.00368373 0)
(1.04832 -0.00435856 0)
(1.04105 -0.00353024 0)
(1.03624 -0.00232802 0)
(1.03251 -0.000763833 0)
(1.0348 0.00419938 0)
(1.04109 0.0111086 0)
(1.04161 0.0147179 0)
(1.03855 0.0163 0)
(1.03455 0.0172975 0)
(1.02975 0.0180476 0)
(1.01813 0.0171701 0)
(1.00411 0.0150136 0)
(0.99546 0.014832 0)
(0.989802 0.0155983 0)
(0.985279 0.0165264 0)
(0.985416 0.0202357 0)
(0.993295 0.028589 0)
(0.995841 0.0343079 0)
(0.992958 0.03626 0)
(0.988652 0.0371078 0)
(0.98309 0.0376562 0)
(0.969628 0.0349727 0)
(0.952653 0.0298814 0)
(0.941824 0.0282086 0)
(0.93496 0.0284625 0)
(0.92967 0.0293086 0)
(0.927286 0.032289 0)
(0.934514 0.0415144 0)
(0.939821 0.0499143 0)
(0.937829 0.0534916 0)
(0.932935 0.0545079 0)
(0.926779 0.0546801 0)
(0.912383 0.0506762 0)
(0.890295 0.0405378 0)
(0.875432 0.0348147 0)
(0.866636 0.0330467 0)
(0.860075 0.032561 0)
(0.856255 0.0344015 0)
(0.860365 0.0426796 0)
(0.863443 0.0514997 0)
(0.860581 0.0559404 0)
(0.854372 0.0576644 0)
(0.846234 0.0575351 0)
(0.831782 0.0523917 0)
(0.8084 0.037966 0)
(0.787288 0.0230252 0)
(0.773492 0.0142495 0)
(0.765802 0.0109164 0)
(0.763128 0.0107621 0)
(0.766294 0.00932142 0)
(0.76659 0.00271781 0)
(0.76346 -0.000727454 0)
(0.309165 -0.0312207 0)
(-0.736367 -0.0184495 0)
(1.19249 -0.0997043 0)
(1.18433 -0.0961961 0)
(1.18054 -0.0946041 0)
(1.17719 -0.092711 0)
(1.17857 -0.0889996 0)
(1.18299 -0.0848007 0)
(1.18279 -0.082101 0)
(1.1802 -0.0801005 0)
(1.17685 -0.0782489 0)
(1.173 -0.0765073 0)
(1.1681 -0.0745931 0)
(1.15998 -0.0727153 0)
(1.15339 -0.0709884 0)
(1.14891 -0.0692341 0)
(1.14518 -0.0676221 0)
(1.14409 -0.0647205 0)
(1.14902 -0.059892 0)
(1.15086 -0.0562966 0)
(1.14884 -0.0541011 0)
(1.14565 -0.0523277 0)
(1.14189 -0.0507435 0)
(1.13742 -0.0491679 0)
(1.12883 -0.0479358 0)
(1.1203 -0.0469128 0)
(1.11494 -0.0454278 0)
(1.11083 -0.0439 0)
(1.10801 -0.0418347 0)
(1.11165 -0.0370375 0)
(1.11577 -0.0322343 0)
(1.11482 -0.0296231 0)
(1.11184 -0.0278735 0)
(1.10817 -0.026381 0)
(1.10407 -0.0250433 0)
(1.0958 -0.0241292 0)
(1.08517 -0.0240906 0)
(1.07838 -0.0231014 0)
(1.07375 -0.0216015 0)
(1.07003 -0.0201215 0)
(1.07142 -0.016076 0)
(1.07744 -0.00984237 0)
(1.07812 -0.00627932 0)
(1.07534 -0.00459486 0)
(1.07164 -0.00339619 0)
(1.06751 -0.00240871 0)
(1.05955 -0.00194434 0)
(1.04679 -0.00319819 0)
(1.03817 -0.00311471 0)
(1.0326 -0.00183543 0)
(1.02824 -0.000666475 0)
(1.0268 0.00217908 0)
(1.03367 0.00952251 0)
(1.03736 0.0152376 0)
(1.03532 0.0174587 0)
(1.03157 0.0185328 0)
(1.02734 0.0192892 0)
(1.01882 0.018979 0)
(1.00388 0.015812 0)
(0.993291 0.0142231 0)
(0.986573 0.0148466 0)
(0.981399 0.0160276 0)
(0.977831 0.0179035 0)
(0.982742 0.0249848 0)
(0.989852 0.0337618 0)
(0.989585 0.0377011 0)
(0.985777 0.0386517 0)
(0.981043 0.0389751 0)
(0.972771 0.0379638 0)
(0.955585 0.0317462 0)
(0.940966 0.0271224 0)
(0.932527 0.0266666 0)
(0.926633 0.0272773 0)
(0.921703 0.0282421 0)
(0.922926 0.0334836 0)
(0.931406 0.0446799 0)
(0.933727 0.0514547 0)
(0.930182 0.054007 0)
(0.924898 0.0548073 0)
(0.916937 0.0550402 0)
(0.899364 0.0477676 0)
(0.879116 0.0359874 0)
(0.866339 0.0307517 0)
(0.858271 0.0298087 0)
(0.852162 0.0297414 0)
(0.850536 0.0328606 0)
(0.855138 0.0417615 0)
(0.856223 0.0486787 0)
(0.85243 0.0515733 0)
(0.845917 0.0524461 0)
(0.837019 0.0515616 0)
(0.821483 0.0449192 0)
(0.799142 0.0293939 0)
(0.779995 0.0142314 0)
(0.76793 0.0053734 0)
(0.761943 0.00279343 0)
(0.763732 0.00136915 0)
(0.769099 -0.00247258 0)
(0.768933 -0.0050214 0)
(0.316754 -0.0221295 0)
(-0.738177 -0.0155202 0)
(1.19017 -0.0972912 0)
(1.18169 -0.0939114 0)
(1.17782 -0.0923504 0)
(1.1743 -0.0907529 0)
(1.17433 -0.0874594 0)
(1.17919 -0.0829213 0)
(1.17989 -0.079798 0)
(1.17752 -0.077679 0)
(1.17427 -0.0758235 0)
(1.17048 -0.0740981 0)
(1.16593 -0.072297 0)
(1.15806 -0.0705611 0)
(1.1509 -0.0690929 0)
(1.14622 -0.0675437 0)
(1.1424 -0.0661083 0)
(1.13991 -0.0638595 0)
(1.1439 -0.058991 0)
(1.14724 -0.0545397 0)
(1.14584 -0.0520418 0)
(1.14282 -0.0502078 0)
(1.13919 -0.0486303 0)
(1.13513 -0.0471764 0)
(1.12757 -0.0459973 0)
(1.11816 -0.0453399 0)
(1.11219 -0.044138 0)
(1.1079 -0.0427092 0)
(1.10429 -0.0412373 0)
(1.10544 -0.0373149 0)
(1.11114 -0.0315041 0)
(1.11163 -0.0280849 0)
(1.10898 -0.026165 0)
(1.10547 -0.0246511 0)
(1.10152 -0.0233673 0)
(1.09499 -0.0223445 0)
(1.08377 -0.0225768 0)
(1.07577 -0.0221288 0)
(1.07071 -0.0208651 0)
(1.06666 -0.0196302 0)
(1.06488 -0.0170126 0)
(1.07091 -0.0105841 0)
(1.07432 -0.00542279 0)
(1.0724 -0.0031577 0)
(1.06891 -0.00184696 0)
(1.06495 -0.000867151 0)
(1.05901 -0.000139763 0)
(1.04653 -0.00138358 0)
(1.03603 -0.0023789 0)
(1.02982 -0.00170927 0)
(1.02507 -0.000475833 0)
(1.02129 0.00112882 0)
(1.02468 0.00678504 0)
(1.03191 0.0148888 0)
(1.03225 0.0188404 0)
(1.02896 0.0201578 0)
(1.02493 0.020781 0)
(1.01936 0.0210132 0)
(1.00607 0.0180069 0)
(0.992296 0.0145236 0)
(0.983968 0.0141609 0)
(0.978183 0.0153098 0)
(0.973568 0.0163391 0)
(0.972874 0.0199748 0)
(0.981323 0.0298626 0)
(0.985644 0.0370561 0)
(0.983592 0.0398038 0)
(0.979395 0.040476 0)
(0.974031 0.0408197 0)
(0.961149 0.0374757 0)
(0.943074 0.0296737 0)
(0.931596 0.0257759 0)
(0.924443 0.025436 0)
(0.918671 0.026005 0)
(0.914461 0.0277944 0)
(0.918954 0.0365627 0)
(0.926433 0.0486078 0)
(0.926392 0.0543212 0)
(0.922192 0.0561032 0)
(0.916955 0.0559406 0)
(0.907824 0.0540719 0)
(0.888089 0.0439511 0)
(0.869059 0.032991 0)
(0.857807 0.0285386 0)
(0.850678 0.0271419 0)
(0.84495 0.0270944 0)
(0.845076 0.0316664 0)
(0.848821 0.0406044 0)
(0.848162 0.0462881 0)
(0.843734 0.0482541 0)
(0.837185 0.0484269 0)
(0.828245 0.0455618 0)
(0.813196 0.036828 0)
(0.792194 0.0197334 0)
(0.774566 0.00418299 0)
(0.764332 -0.00407113 0)
(0.760921 -0.00675279 0)
(0.767579 -0.0101033 0)
(0.77088 -0.0110119 0)
(0.324233 -0.0115808 0)
(-0.739723 -0.0129113 0)
(1.18795 -0.0949537 0)
(1.17906 -0.0916988 0)
(1.17498 -0.0901643 0)
(1.17133 -0.0887662 0)
(1.17004 -0.086118 0)
(1.17478 -0.0813727 0)
(1.17667 -0.0776461 0)
(1.17464 -0.075324 0)
(1.17149 -0.0734178 0)
(1.16781 -0.0717235 0)
(1.16368 -0.0701061 0)
(1.1565 -0.068611 0)
(1.14858 -0.0673531 0)
(1.14338 -0.0658569 0)
(1.13938 -0.064335 0)
(1.13612 -0.062712 0)
(1.13807 -0.0584947 0)
(1.14312 -0.0530775 0)
(1.14286 -0.0500023 0)
(1.14004 -0.0481302 0)
(1.13653 -0.0465655 0)
(1.13262 -0.0451913 0)
(1.12653 -0.0440176 0)
(1.11659 -0.0437117 0)
(1.10954 -0.0428146 0)
(1.10487 -0.0413926 0)
(1.10108 -0.040127 0)
(1.09961 -0.0374353 0)
(1.10536 -0.031364 0)
(1.10818 -0.0266186 0)
(1.10615 -0.0243906 0)
(1.10277 -0.0228806 0)
(1.09893 -0.0216326 0)
(1.09396 -0.0205616 0)
(1.0834 -0.0208574 0)
(1.07367 -0.0211254 0)
(1.0679 -0.0201294 0)
(1.06357 -0.0188416 0)
(1.0601 -0.0172817 0)
(1.06312 -0.0121657 0)
(1.06949 -0.00514378 0)
(1.0695 -0.00167578 0)
(1.0663 -0.000237849 0)
(1.06248 0.000784037 0)
(1.05806 0.00162122 0)
(1.04778 0.00071728 0)
(1.03508 -0.00140428 0)
(1.02745 -0.00142999 0)
(1.0222 -0.000304813 0)
(1.01788 0.000853967 0)
(1.0164 0.00380821 0)
(1.0241 0.0122931 0)
(1.02851 0.0189562 0)
(1.02657 0.021451 0)
(1.02265 0.0222141 0)
(1.01835 0.0228456 0)
(1.00939 0.0215936 0)
(0.993527 0.0167336 0)
(0.982302 0.0144986 0)
(0.975862 0.014792 0)
(0.97083 0.0157218 0)
(0.966739 0.0169634 0)
(0.970246 0.023147 0)
(0.979225 0.0340313 0)
(0.980573 0.039463 0)
(0.977142 0.0414513 0)
(0.972533 0.0423852 0)
(0.965948 0.0422678 0)
(0.950239 0.0351897 0)
(0.933258 0.0265631 0)
(0.922897 0.0239644 0)
(0.915997 0.0244378 0)
(0.910671 0.0250881 0)
(0.908291 0.0276551 0)
(0.915821 0.0383009 0)
(0.921911 0.0488687 0)
(0.920539 0.0527937 0)
(0.915632 0.0541062 0)
(0.909372 0.0547107 0)
(0.897845 0.0523931 0)
(0.87761 0.0404252 0)
(0.860566 0.0292769 0)
(0.85001 0.0252046 0)
(0.843233 0.0241445 0)
(0.838295 0.0245749 0)
(0.839873 0.0303332 0)
(0.842876 0.0380833 0)
(0.841455 0.0418235 0)
(0.836991 0.0425665 0)
(0.830533 0.0424165 0)
(0.821474 0.0385364 0)
(0.807208 0.0281382 0)
(0.787716 0.00934178 0)
(0.770995 -0.00544971 0)
(0.762399 -0.0134336 0)
(0.764011 -0.0191978 0)
(0.769115 -0.0203788 0)
(0.329915 -0.00199427 0)
(-0.741383 -0.0115051 0)
(1.18577 -0.0926343 0)
(1.17651 -0.0896267 0)
(1.17215 -0.088143 0)
(1.16837 -0.0867797 0)
(1.16584 -0.0846902 0)
(1.16955 -0.0800815 0)
(1.17308 -0.0755839 0)
(1.17177 -0.0729773 0)
(1.16882 -0.0710601 0)
(1.16529 -0.0694194 0)
(1.16135 -0.0679401 0)
(1.15525 -0.0666145 0)
(1.14661 -0.0656758 0)
(1.14069 -0.064285 0)
(1.13638 -0.0625952 0)
(1.13278 -0.0611462 0)
(1.13225 -0.0580285 0)
(1.13803 -0.0522565 0)
(1.13972 -0.0482448 0)
(1.13739 -0.0461656 0)
(1.13405 -0.0445919 0)
(1.13026 -0.0432401 0)
(1.12541 -0.0420197 0)
(1.11579 -0.0418202 0)
(1.10732 -0.0414849 0)
(1.10213 -0.0402414 0)
(1.09806 -0.0388645 0)
(1.09496 -0.037188 0)
(1.09837 -0.032098 0)
(1.10391 -0.0258703 0)
(1.10339 -0.0227074 0)
(1.10034 -0.0210686 0)
(1.09667 -0.0198566 0)
(1.09256 -0.0188362 0)
(1.08382 -0.0188926 0)
(1.0725 -0.0199854 0)
(1.06551 -0.0195235 0)
(1.06067 -0.0181877 0)
(1.05671 -0.0169613 0)
(1.05561 -0.013933 0)
(1.06277 -0.00631523 0)
(1.06616 -0.000760803 0)
(1.06404 0.00147307 0)
(1.06049 0.00257651 0)
(1.05661 0.00338315 0)
(1.04953 0.00322501 0)
(1.03601 0.000281138 0)
(1.02584 -0.00113624 0)
(1.01979 -0.000376838 0)
(1.01505 0.000896308 0)
(1.01119 0.0023464 0)
(1.01421 0.00791348 0)
(1.02259 0.0174377 0)
(1.02393 0.0221452 0)
(1.02096 0.0239746 0)
(1.01706 0.024762 0)
(1.01156 0.0251188 0)
(0.997648 0.0211996 0)
(0.982829 0.01553 0)
(0.97432 0.0138074 0)
(0.96857 0.0143106 0)
(0.963534 0.0152581 0)
(0.960761 0.0178151 0)
(0.968213 0.0279188 0)
(0.975198 0.0386495 0)
(0.974564 0.0427565 0)
(0.970859 0.0438517 0)
(0.966105 0.0440527 0)
(0.95728 0.0426394 0)
(0.938571 0.0337982 0)
(0.92309 0.026173 0)
(0.914644 0.0240924 0)
(0.908863 0.0237401 0)
(0.903671 0.0239499 0)
(0.903072 0.0279045 0)
(0.911561 0.0404145 0)
(0.915287 0.0503536 0)
(0.91241 0.0541662 0)
(0.907312 0.0551305 0)
(0.901158 0.0545916 0)
(0.888785 0.0499298 0)
(0.868227 0.0369152 0)
(0.852223 0.0266048 0)
(0.842496 0.0226678 0)
(0.836212 0.0213194 0)
(0.832327 0.0222006 0)
(0.835025 0.0288967 0)
(0.837252 0.0356428 0)
(0.835385 0.0380102 0)
(0.831162 0.037612 0)
(0.825026 0.0366359 0)
(0.816585 0.0310282 0)
(0.803607 0.0186853 0)
(0.785513 -0.000152184 0)
(0.76884 -0.0140826 0)
(0.7624 -0.0248977 0)
(0.765168 -0.0323692 0)
(0.331679 0.00436855 0)
(-0.743096 -0.0112192 0)
(1.18386 -0.0903828 0)
(1.17421 -0.0877759 0)
(1.16944 -0.0862658 0)
(1.16549 -0.0847914 0)
(1.16223 -0.0830829 0)
(1.16381 -0.0790534 0)
(1.16895 -0.0737524 0)
(1.16884 -0.070687 0)
(1.16616 -0.0687703 0)
(1.16281 -0.0671665 0)
(1.15903 -0.0657673 0)
(1.15403 -0.0644707 0)
(1.14517 -0.0637373 0)
(1.13814 -0.0626265 0)
(1.13352 -0.061053 0)
(1.12972 -0.0595907 0)
(1.12733 -0.0574616 0)
(1.1319 -0.0521086 0)
(1.13601 -0.0469199 0)
(1.13462 -0.044272 0)
(1.13149 -0.042604 0)
(1.12785 -0.0412337 0)
(1.12382 -0.0400416 0)
(1.11572 -0.0397034 0)
(1.10579 -0.0400398 0)
(1.09969 -0.0391714 0)
(1.09526 -0.0376836 0)
(1.09157 -0.0362991 0)
(1.09133 -0.0328815 0)
(1.09817 -0.0258388 0)
(1.10034 -0.021245 0)
(1.09788 -0.019321 0)
(1.09439 -0.0180664 0)
(1.09057 -0.0170755 0)
(1.08443 -0.0166649 0)
(1.07262 -0.0183012 0)
(1.0636 -0.0188638 0)
(1.05809 -0.0178116 0)
(1.05373 -0.0163849 0)
(1.05035 -0.0147018 0)
(1.05413 -0.00888553 0)
(1.06131 -0.000783555 0)
(1.06155 0.00297313 0)
(1.05832 0.00431468 0)
(1.05456 0.00517954 0)
(1.05004 0.0057232 0)
(1.03875 0.00345356 0)
(1.02557 7.794e-05 0)
(1.0179 -0.000327672 0)
(1.01266 0.000623144 0)
(1.00823 0.00169552 0)
(1.00589 0.00411092 0)
(1.01322 0.0129735 0)
(1.01936 0.0218109 0)
(1.01842 0.0252209 0)
(1.0147 0.026412 0)
(1.0105 0.0272042 0)
(1.00309 0.0260434 0)
(0.987229 0.0189459 0)
(0.974171 0.0139012 0)
(0.966508 0.01341 0)
(0.961101 0.014558 0)
(0.956615 0.0154013 0)
(0.956666 0.0192193 0)
(0.966489 0.0312861 0)
(0.971013 0.0401059 0)
(0.96866 0.0430167 0)
(0.964088 0.0445762 0)
(0.958829 0.0456427 0)
(0.947946 0.0424147 0)
(0.929257 0.0309055 0)
(0.9157 0.0231912 0)
(0.90757 0.0215847 0)
(0.901795 0.0220089 0)
(0.897107 0.0226177 0)
(0.898602 0.0279679 0)
(0.906853 0.0407427 0)
(0.909137 0.0488637 0)
(0.905918 0.0515292 0)
(0.900592 0.052513 0)
(0.893506 0.0525327 0)
(0.879909 0.0473467 0)
(0.860018 0.0334317 0)
(0.845087 0.0229802 0)
(0.835697 0.0190971 0)
(0.829799 0.0178072 0)
(0.827221 0.0195676 0)
(0.831058 0.0266734 0)
(0.833021 0.0320836 0)
(0.831101 0.0332208 0)
(0.826978 0.0324782 0)
(0.821364 0.0306767 0)
(0.813877 0.0233652 0)
(0.802236 0.0101763 0)
(0.784718 -0.00772825 0)
(0.768964 -0.0211902 0)
(0.761764 -0.0444389 0)
(0.327852 0.00600933 0)
(-0.744982 -0.0116439 0)