/*--------------------------------*- C++ -*----------------------------------*\
  =========                 |
  \\      /  F ield         | OpenFOAM: The Open Source CFD Toolbox
   \\    /   O peration     | Website:  https://openfoam.org
    \\  /    A nd           | Version:  12
     \\/     M anipulation  |
\*---------------------------------------------------------------------------*/
FoamFile
{
    format      ascii;
    class       volVectorField;
    location    "10";
    object      U;
}
// * * * * * * * * * * * * * * * * * * * * * * * * * * * * * * * * * * * * * //

dimensions      [0 1 -1 0 0 0 0];

internalField   nonuniform List<vector> 
9801
(
(1.23165 -0.117262 0)
(1.234 -0.112152 0)
(1.23388 -0.109919 0)
(1.23146 -0.107704 0)
(1.22829 -0.105398 0)
(1.22435 -0.103173 0)
(1.21969 -0.100459 0)
(1.21279 -0.0969522 0)
(1.20718 -0.0942987 0)
(1.20301 -0.0923073 0)
(1.19945 -0.0900428 0)
(1.19962 -0.086803 0)
(1.20278 -0.0835245 0)
(1.20312 -0.0809993 0)
(1.20097 -0.0787351 0)
(1.19784 -0.0765699 0)
(1.19387 -0.0744598 0)
(1.18921 -0.072012 0)
(1.18151 -0.0686715 0)
(1.17527 -0.0661341 0)
(1.17075 -0.064151 0)
(1.16693 -0.0622014 0)
(1.166 -0.0591978 0)
(1.16933 -0.0558896 0)
(1.17044 -0.0533022 0)
(1.16859 -0.0510708 0)
(1.16538 -0.0490088 0)
(1.16137 -0.047081 0)
(1.15647 -0.0448058 0)
(1.14768 -0.0417053 0)
(1.14075 -0.0393776 0)
(1.13599 -0.0375292 0)
(1.13195 -0.0357896 0)
(1.13056 -0.0330882 0)
(1.13436 -0.0298675 0)
(1.13608 -0.0271596 0)
(1.13419 -0.0249285 0)
(1.13086 -0.0229089 0)
(1.12671 -0.0210195 0)
(1.12052 -0.0185733 0)
(1.11004 -0.0157984 0)
(1.10297 -0.0138666 0)
(1.09808 -0.0123044 0)
(1.09376 -0.0107361 0)
(1.09279 -0.00832072 0)
(1.09712 -0.00507774 0)
(1.09885 -0.00244924 0)
(1.09684 -0.000220941 0)
(1.09316 0.00175282 0)
(1.08878 0.00350321 0)
(1.08015 0.00607111 0)
(1.06803 0.00829788 0)
(1.06083 0.00977086 0)
(1.05562 0.0110226 0)
(1.05124 0.012364 0)
(1.0515 0.0147904 0)
(1.05672 0.0179722 0)
(1.05816 0.0205131 0)
(1.05563 0.0227635 0)
(1.0514 0.0246273 0)
(1.04596 0.0263093 0)
(1.03355 0.02864 0)
(1.01938 0.0302126 0)
(1.01169 0.0312871 0)
(1.00647 0.0319949 0)
(1.0025 0.0331326 0)
(1.00624 0.0359251 0)
(1.01243 0.0389572 0)
(1.0118 0.0412832 0)
(1.00807 0.0433776 0)
(1.00319 0.0450298 0)
(0.994618 0.0469863 0)
(0.975525 0.0485939 0)
(0.959601 0.049097 0)
(0.951321 0.0493557 0)
(0.945336 0.0495405 0)
(0.945153 0.0511049 0)
(0.953843 0.0538894 0)
(0.956906 0.0567481 0)
(0.953389 0.0592618 0)
(0.947502 0.0611199 0)
(0.939782 0.0627269 0)
(0.920785 0.063797 0)
(0.892666 0.0627248 0)
(0.875438 0.0615615 0)
(0.865579 0.0614068 0)
(0.861098 0.0615168 0)
(0.870475 0.0626649 0)
(0.875818 0.0645667 0)
(0.869939 0.0670735 0)
(0.859724 0.0690761 0)
(0.845933 0.0697219 0)
(0.817642 0.0693064 0)
(0.774002 0.0659373 0)
(0.731378 0.0610718 0)
(0.697293 0.0543564 0)
(0.676776 0.00997418 0)
(0.316047 -0.0685221 0)
(-0.73172 -0.0481188 0)
(1.23186 -0.119157 0)
(1.23434 -0.114205 0)
(1.23386 -0.111934 0)
(1.23128 -0.109699 0)
(1.22801 -0.107448 0)
(1.22408 -0.105163 0)
(1.21933 -0.102408 0)
(1.21259 -0.09904 0)
(1.20682 -0.0963493 0)
(1.20255 -0.094241 0)
(1.199 -0.0921206 0)
(1.19932 -0.0887488 0)
(1.203 -0.085391 0)
(1.20315 -0.0829211 0)
(1.2008 -0.0806841 0)
(1.19755 -0.0785558 0)
(1.1936 -0.0764445 0)
(1.18886 -0.0739233 0)
(1.18136 -0.0707564 0)
(1.17488 -0.0681758 0)
(1.17029 -0.0660813 0)
(1.16648 -0.0642052 0)
(1.16555 -0.061142 0)
(1.16946 -0.0577171 0)
(1.17054 -0.0551814 0)
(1.16844 -0.0530096 0)
(1.16513 -0.0509928 0)
(1.16113 -0.0490954 0)
(1.15621 -0.0467921 0)
(1.14761 -0.0438982 0)
(1.14036 -0.0415443 0)
(1.13549 -0.0395418 0)
(1.13148 -0.037806 0)
(1.12998 -0.0350363 0)
(1.13426 -0.0315826 0)
(1.13604 -0.0288281 0)
(1.13404 -0.026596 0)
(1.13065 -0.0246086 0)
(1.1265 -0.0227836 0)
(1.12047 -0.0204524 0)
(1.11022 -0.0180672 0)
(1.10265 -0.0162309 0)
(1.09755 -0.01447 0)
(1.09329 -0.0128996 0)
(1.09198 -0.010325 0)
(1.09673 -0.00667047 0)
(1.09875 -0.00389316 0)
(1.0967 -0.00167463 0)
(1.09302 0.000233118 0)
(1.08866 0.00185175 0)
(1.08053 0.00399936 0)
(1.06836 0.00562932 0)
(1.0604 0.0070891 0)
(1.05499 0.00870418 0)
(1.05059 0.0100739 0)
(1.05035 0.0128288 0)
(1.05616 0.0165328 0)
(1.05799 0.0192094 0)
(1.05546 0.0214391 0)
(1.05119 0.0231997 0)
(1.04592 0.0247105 0)
(1.03414 0.0264493 0)
(1.01946 0.0275015 0)
(1.01115 0.0284879 0)
(1.00577 0.0294239 0)
(1.00146 0.0305548 0)
(1.00444 0.0332469 0)
(1.01077 0.0367868 0)
(1.01074 0.0400074 0)
(1.00734 0.0423707 0)
(1.00254 0.0438402 0)
(0.994658 0.0453317 0)
(0.976343 0.0460252 0)
(0.959513 0.0458176 0)
(0.950567 0.0458369 0)
(0.944354 0.0459812 0)
(0.941733 0.0471132 0)
(0.949114 0.0524518 0)
(0.953834 0.0573729 0)
(0.951277 0.0599705 0)
(0.945478 0.061183 0)
(0.93831 0.0611583 0)
(0.921797 0.0606537 0)
(0.893278 0.0581406 0)
(0.874379 0.0558889 0)
(0.863846 0.0545034 0)
(0.856733 0.0541272 0)
(0.860614 0.0595015 0)
(0.866706 0.0681042 0)
(0.863049 0.0734939 0)
(0.853499 0.0750227 0)
(0.84067 0.0742799 0)
(0.814009 0.0710805 0)
(0.770533 0.0645396 0)
(0.727792 0.0600443 0)
(0.689136 0.0558564 0)
(0.665575 0.0145991 0)
(0.315251 -0.0523997 0)
(-0.734539 -0.0492697 0)
(1.23159 -0.116526 0)
(1.23442 -0.111196 0)
(1.2339 -0.108955 0)
(1.23111 -0.106839 0)
(1.2277 -0.104708 0)
(1.22372 -0.102515 0)
(1.21895 -0.09989 0)
(1.2123 -0.0966458 0)
(1.20645 -0.093899 0)
(1.2021 -0.0917103 0)
(1.19846 -0.089795 0)
(1.19854 -0.0864789 0)
(1.20287 -0.0826189 0)
(1.20328 -0.0799672 0)
(1.20083 -0.0777929 0)
(1.19746 -0.0757369 0)
(1.19345 -0.0737576 0)
(1.1887 -0.0714771 0)
(1.18118 -0.0685554 0)
(1.1745 -0.0659846 0)
(1.16979 -0.0638653 0)
(1.16591 -0.0620956 0)
(1.16466 -0.0591847 0)
(1.16898 -0.0553421 0)
(1.17046 -0.0525216 0)
(1.16834 -0.0503696 0)
(1.16497 -0.048418 0)
(1.16093 -0.0466217 0)
(1.15603 -0.0445469 0)
(1.14741 -0.0418917 0)
(1.13977 -0.0394927 0)
(1.13476 -0.0374134 0)
(1.1307 -0.0357146 0)
(1.12874 -0.0331553 0)
(1.13302 -0.0292678 0)
(1.13537 -0.0261353 0)
(1.13355 -0.0239589 0)
(1.13017 -0.0221148 0)
(1.126 -0.0205045 0)
(1.12049 -0.0187069 0)
(1.11024 -0.0169036 0)
(1.10181 -0.0149536 0)
(1.09642 -0.0128835 0)
(1.09211 -0.0112082 0)
(1.09004 -0.00877745 0)
(1.09462 -0.00449727 0)
(1.09751 -0.00121462 0)
(1.09581 0.000849499 0)
(1.09222 0.00252664 0)
(1.0879 0.00381605 0)
(1.08095 0.00516052 0)
(1.06829 0.00596024 0)
(1.05901 0.00751046 0)
(1.05323 0.00953677 0)
(1.04871 0.0110771 0)
(1.04732 0.0137882 0)
(1.05311 0.0185149 0)
(1.056 0.0218784 0)
(1.05384 0.0240125 0)
(1.04965 0.0255871 0)
(1.04468 0.0266421 0)
(1.0344 0.027344 0)
(1.01905 0.0270477 0)
(1.00929 0.0279178 0)
(1.0032 0.0294428 0)
(0.998222 0.0306107 0)
(0.998183 0.0343447 0)
(1.00538 0.0404463 0)
(1.00722 0.0438598 0)
(1.00426 0.0454497 0)
(0.999483 0.0462998 0)
(0.99273 0.0468993 0)
(0.97654 0.0457602 0)
(0.957955 0.043819 0)
(0.946894 0.0441857 0)
(0.939892 0.0452275 0)
(0.934527 0.0463741 0)
(0.938982 0.0517616 0)
(0.946417 0.0575879 0)
(0.945197 0.0595707 0)
(0.939652 0.0601603 0)
(0.932858 0.0603735 0)
(0.919726 0.0603435 0)
(0.892571 0.0564796 0)
(0.870446 0.052921 0)
(0.857615 0.0522866 0)
(0.84887 0.0517628 0)
(0.846687 0.0532046 0)
(0.85339 0.0590017 0)
(0.853157 0.0620861 0)
(0.845218 0.062612 0)
(0.83379 0.0620785 0)
(0.811698 0.059337 0)
(0.772941 0.0519971 0)
(0.732707 0.0427191 0)
(0.692929 0.0311794 0)
(0.675768 -0.0184307 0)
(0.310006 -0.0525226 0)
(-0.738593 -0.0410427 0)
(1.22917 -0.114251 0)
(1.23221 -0.108851 0)
(1.23194 -0.106472 0)
(1.22902 -0.104358 0)
(1.2255 -0.102326 0)
(1.22147 -0.100211 0)
(1.21662 -0.0977131 0)
(1.20995 -0.0946831 0)
(1.20409 -0.0919954 0)
(1.1997 -0.08976 0)
(1.19604 -0.0879327 0)
(1.19554 -0.0849252 0)
(1.20015 -0.0809825 0)
(1.20095 -0.0780926 0)
(1.19855 -0.0758786 0)
(1.19513 -0.0738744 0)
(1.19113 -0.072002 0)
(1.18644 -0.0698829 0)
(1.17899 -0.0672023 0)
(1.17214 -0.0647868 0)
(1.16734 -0.0626997 0)
(1.16339 -0.0609953 0)
(1.16153 -0.0584275 0)
(1.16579 -0.054394 0)
(1.16778 -0.0511759 0)
(1.16577 -0.0489144 0)
(1.16243 -0.04697 0)
(1.15843 -0.0452319 0)
(1.15362 -0.0432517 0)
(1.14508 -0.0407487 0)
(1.13724 -0.0385474 0)
(1.13209 -0.0366521 0)
(1.1279 -0.0350867 0)
(1.12528 -0.0329058 0)
(1.1291 -0.0288842 0)
(1.13215 -0.0253608 0)
(1.13053 -0.02317 0)
(1.12715 -0.0214647 0)
(1.12305 -0.0199797 0)
(1.11799 -0.0182361 0)
(1.10806 -0.0161435 0)
(1.09901 -0.0142078 0)
(1.09336 -0.0123649 0)
(1.08886 -0.010834 0)
(1.08581 -0.00888245 0)
(1.08963 -0.00476064 0)
(1.09359 -0.00105963 0)
(1.0922 0.00106007 0)
(1.08866 0.002577 0)
(1.08442 0.00378598 0)
(1.07836 0.00531497 0)
(1.06593 0.00684044 0)
(1.05568 0.00833681 0)
(1.04947 0.00997376 0)
(1.04463 0.0112649 0)
(1.04166 0.0131984 0)
(1.04652 0.0177178 0)
(1.05067 0.0215765 0)
(1.04892 0.0236413 0)
(1.04492 0.0250186 0)
(1.04027 0.0259764 0)
(1.03198 0.026883 0)
(1.01638 0.0266952 0)
(1.00488 0.0274216 0)
(0.997919 0.0291342 0)
(0.992431 0.0304009 0)
(0.989764 0.0325572 0)
(0.996449 0.037819 0)
(1.00005 0.0418984 0)
(0.997518 0.0436917 0)
(0.99298 0.0448678 0)
(0.987213 0.0457011 0)
(0.974229 0.0450785 0)
(0.953827 0.0422216 0)
(0.940555 0.0417267 0)
(0.93275 0.0430208 0)
(0.926558 0.0437534 0)
(0.926291 0.04696 0)
(0.934625 0.0548869 0)
(0.935838 0.060188 0)
(0.931091 0.0622533 0)
(0.92475 0.0627995 0)
(0.915146 0.0626719 0)
(0.892501 0.0572566 0)
(0.866982 0.0495451 0)
(0.851336 0.0461115 0)
(0.84151 0.0456949 0)
(0.834289 0.045927 0)
(0.835836 0.0520082 0)
(0.837054 0.0609057 0)
(0.830657 0.0653057 0)
(0.820471 0.0651284 0)
(0.80497 0.0621692 0)
(0.774424 0.0493314 0)
(0.737652 0.0323525 0)
(0.700294 0.0174055 0)
(0.691032 -0.032363 0)
(0.307817 -0.0447813 0)
(-0.744455 -0.036922 0)
(1.22514 -0.111778 0)
(1.22837 -0.106234 0)
(1.22851 -0.103652 0)
(1.22562 -0.101514 0)
(1.22213 -0.0994401 0)
(1.21811 -0.0973239 0)
(1.21326 -0.0949432 0)
(1.2064 -0.0921068 0)
(1.20041 -0.0895137 0)
(1.19595 -0.0872865 0)
(1.19223 -0.0854762 0)
(1.19099 -0.0826416 0)
(1.19562 -0.0784111 0)
(1.19719 -0.0752301 0)
(1.19497 -0.0730598 0)
(1.19157 -0.0711988 0)
(1.1876 -0.0694424 0)
(1.183 -0.067507 0)
(1.17556 -0.0651238 0)
(1.16832 -0.0628049 0)
(1.16333 -0.0606502 0)
(1.15929 -0.0588084 0)
(1.15667 -0.0564472 0)
(1.16036 -0.0520875 0)
(1.16339 -0.0483077 0)
(1.16172 -0.0460413 0)
(1.1584 -0.044317 0)
(1.15447 -0.0427439 0)
(1.14978 -0.0409498 0)
(1.14146 -0.0388026 0)
(1.13319 -0.0368178 0)
(1.1277 -0.034963 0)
(1.12335 -0.0332958 0)
(1.12 -0.031445 0)
(1.12274 -0.0274981 0)
(1.12686 -0.0233872 0)
(1.12576 -0.0208596 0)
(1.12248 -0.0190352 0)
(1.11849 -0.0174845 0)
(1.1137 -0.0158358 0)
(1.10418 -0.0142797 0)
(1.09442 -0.0129306 0)
(1.08828 -0.0113243 0)
(1.08356 -0.009709 0)
(1.07981 -0.00798354 0)
(1.08221 -0.00416503 0)
(1.08726 0.000141394 0)
(1.08655 0.00283395 0)
(1.0832 0.00465208 0)
(1.07908 0.00607909 0)
(1.07365 0.00751236 0)
(1.062 0.00784335 0)
(1.05037 0.00791144 0)
(1.0435 0.00938363 0)
(1.03835 0.0111201 0)
(1.03432 0.0130558 0)
(1.03725 0.0175869 0)
(1.04296 0.0227525 0)
(1.04223 0.0256617 0)
(1.03853 0.0274112 0)
(1.0341 0.0284934 0)
(1.02773 0.0292331 0)
(1.01289 0.0275891 0)
(0.998815 0.0260236 0)
(0.990969 0.0272751 0)
(0.985105 0.0290461 0)
(0.980752 0.0311407 0)
(0.984885 0.0365988 0)
(0.990936 0.0429258 0)
(0.989775 0.0456842 0)
(0.98546 0.0467481 0)
(0.980193 0.0471111 0)
(0.970939 0.0467928 0)
(0.95105 0.0428208 0)
(0.934402 0.0394444 0)
(0.925347 0.0397419 0)
(0.918764 0.0408354 0)
(0.914468 0.0429949 0)
(0.92034 0.0506332 0)
(0.925726 0.0587839 0)
(0.922777 0.0616963 0)
(0.916655 0.0619843 0)
(0.909265 0.0615696 0)
(0.893025 0.0581296 0)
(0.866291 0.0489068 0)
(0.846091 0.0420841 0)
(0.834511 0.0399876 0)
(0.826031 0.0398455 0)
(0.822888 0.0421327 0)
(0.82528 0.0489471 0)
(0.822189 0.0535731 0)
(0.813906 0.0538522 0)
(0.803241 0.0522453 0)
(0.783162 0.0458356 0)
(0.751391 0.0318125 0)
(0.71583 0.0154124 0)
(0.704164 -0.0359464 0)
(0.303836 -0.0418245 0)
(-0.747599 -0.0332617 0)
(1.21999 -0.109215 0)
(1.22299 -0.104223 0)
(1.22358 -0.101478 0)
(1.22095 -0.0989454 0)
(1.2176 -0.0966067 0)
(1.21365 -0.0944507 0)
(1.20894 -0.0921595 0)
(1.20189 -0.0894374 0)
(1.19562 -0.086961 0)
(1.19102 -0.0847898 0)
(1.18721 -0.0830237 0)
(1.18519 -0.0806679 0)
(1.18948 -0.0770545 0)
(1.19179 -0.0739288 0)
(1.18987 -0.0715589 0)
(1.18662 -0.0694212 0)
(1.18275 -0.0674544 0)
(1.17833 -0.0654511 0)
(1.17094 -0.0629686 0)
(1.16319 -0.0606216 0)
(1.15796 -0.0585458 0)
(1.15379 -0.0567205 0)
(1.1506 -0.0548026 0)
(1.15334 -0.0513168 0)
(1.15731 -0.0476892 0)
(1.15618 -0.0451443 0)
(1.15305 -0.043072 0)
(1.14922 -0.041214 0)
(1.14481 -0.0394302 0)
(1.1367 -0.0376626 0)
(1.12766 -0.0361495 0)
(1.12184 -0.0342336 0)
(1.11731 -0.0322223 0)
(1.11363 -0.0302835 0)
(1.11511 -0.0267532 0)
(1.12 -0.0226852 0)
(1.11969 -0.0199134 0)
(1.11672 -0.0178243 0)
(1.11289 -0.0160789 0)
(1.10849 -0.0145879 0)
(1.09968 -0.0136423 0)
(1.0887 -0.0132463 0)
(1.08188 -0.011677 0)
(1.07696 -0.00964142 0)
(1.07293 -0.00769186 0)
(1.07386 -0.00401152 0)
(1.07958 0.000692444 0)
(1.07998 0.00377674 0)
(1.07709 0.00590054 0)
(1.07314 0.00763301 0)
(1.06848 0.00888555 0)
(1.05843 0.00901535 0)
(1.04495 0.00793399 0)
(1.03663 0.00873959 0)
(1.03132 0.0106609 0)
(1.02691 0.0125529 0)
(1.02771 0.0164863 0)
(1.03444 0.0222803 0)
(1.03526 0.0256604 0)
(1.03199 0.027269 0)
(1.02779 0.0284802 0)
(1.02271 0.0293879 0)
(1.01043 0.0287948 0)
(0.993944 0.0265156 0)
(0.984112 0.026071 0)
(0.978135 0.0272549 0)
(0.973065 0.0287334 0)
(0.973599 0.0330366 0)
(0.98127 0.041097 0)
(0.98284 0.0457922 0)
(0.97912 0.0471522 0)
(0.974088 0.0474288 0)
(0.967362 0.0475233 0)
(0.950984 0.0444202 0)
(0.931436 0.0396647 0)
(0.919588 0.0374908 0)
(0.912179 0.0380027 0)
(0.9062 0.0389915 0)
(0.906341 0.0437137 0)
(0.914124 0.0538782 0)
(0.915323 0.060641 0)
(0.910508 0.0628068 0)
(0.903913 0.0630813 0)
(0.893577 0.061856 0)
(0.870715 0.0530355 0)
(0.846002 0.0421025 0)
(0.83062 0.0361897 0)
(0.821398 0.034078 0)
(0.814531 0.0340894 0)
(0.814259 0.0386918 0)
(0.813681 0.0446798 0)
(0.807876 0.0467435 0)
(0.799558 0.0452094 0)
(0.788476 0.0415131 0)
(0.768716 0.0308162 0)
(0.73987 0.0155144 0)
(0.720986 -0.0311274 0)
(0.297083 -0.0404789 0)
(-0.750515 -0.0301256 0)
(1.21461 -0.106759 0)
(1.21745 -0.101453 0)
(1.21814 -0.0987628 0)
(1.21555 -0.096414 0)
(1.21223 -0.0942273 0)
(1.20832 -0.0922069 0)
(1.20378 -0.0900613 0)
(1.19669 -0.0874452 0)
(1.19019 -0.0849807 0)
(1.1856 -0.0827199 0)
(1.18178 -0.0807505 0)
(1.17958 -0.0782276 0)
(1.18353 -0.0745977 0)
(1.18625 -0.0714071 0)
(1.18456 -0.0689828 0)
(1.18132 -0.0669734 0)
(1.17747 -0.0651967 0)
(1.17307 -0.0633891 0)
(1.16575 -0.0613321 0)
(1.15754 -0.0593161 0)
(1.15216 -0.0571878 0)
(1.14803 -0.0550801 0)
(1.14481 -0.0528089 0)
(1.14686 -0.0491719 0)
(1.15123 -0.0454511 0)
(1.15064 -0.0428241 0)
(1.14765 -0.0408466 0)
(1.14388 -0.0392651 0)
(1.1396 -0.0378137 0)
(1.13239 -0.0363917 0)
(1.12254 -0.0351816 0)
(1.1159 -0.0334337 0)
(1.1113 -0.0312773 0)
(1.10752 -0.0291203 0)
(1.10801 -0.0253915 0)
(1.11324 -0.0207933 0)
(1.11387 -0.0177826 0)
(1.11122 -0.0158036 0)
(1.1075 -0.0142878 0)
(1.10329 -0.0130994 0)
(1.0963 -0.012145 0)
(1.08442 -0.0120681 0)
(1.07586 -0.0111935 0)
(1.07066 -0.00938199 0)
(1.0665 -0.00749462 0)
(1.06592 -0.00398848 0)
(1.0719 0.0016158 0)
(1.07387 0.0053349 0)
(1.07138 0.0070627 0)
(1.06753 0.00819014 0)
(1.06316 0.00909462 0)
(1.0559 0.00987936 0)
(1.04203 0.00917687 0)
(1.0313 0.00908041 0)
(1.02527 0.0100747 0)
(1.02064 0.0113717 0)
(1.01893 0.0143151 0)
(1.02543 0.0212783 0)
(1.02902 0.0269597 0)
(1.02669 0.0291705 0)
(1.02254 0.0299487 0)
(1.01783 0.0304279 0)
(1.00879 0.0303433 0)
(0.992396 0.0276952 0)
(0.980001 0.0261342 0)
(0.972642 0.0263633 0)
(0.96723 0.0272938 0)
(0.963901 0.0295337 0)
(0.969987 0.0373005 0)
(0.976048 0.0454702 0)
(0.97444 0.0485231 0)
(0.969752 0.0490007 0)
(0.964285 0.0489082 0)
(0.95294 0.0469956 0)
(0.932635 0.0400973 0)
(0.916845 0.0359218 0)
(0.907676 0.0350618 0)
(0.90119 0.03557 0)
(0.896626 0.0372936 0)
(0.901316 0.045152 0)
(0.907574 0.0548431 0)
(0.905968 0.059729 0)
(0.900137 0.0614818 0)
(0.892897 0.0617068 0)
(0.87831 0.0585502 0)
(0.853279 0.0457112 0)
(0.832436 0.0345582 0)
(0.819499 0.0297669 0)
(0.811401 0.0281958 0)
(0.807047 0.0291236 0)
(0.807885 0.0339891 0)
(0.805722 0.0367751 0)
(0.799936 0.0357803 0)
(0.7924 0.0325993 0)
(0.780489 0.0263972 0)
(0.761541 0.0156759 0)
(0.739474 -0.0187541 0)
(0.292731 -0.0423208 0)
(-0.753356 -0.0273079 0)
(1.2099 -0.104052 0)
(1.21257 -0.0984111 0)
(1.21347 -0.0956752 0)
(1.21104 -0.0933204 0)
(1.20782 -0.0911255 0)
(1.20403 -0.0891836 0)
(1.19971 -0.0872084 0)
(1.19261 -0.0849296 0)
(1.18565 -0.0827979 0)
(1.1809 -0.0808498 0)
(1.17695 -0.079119 0)
(1.17439 -0.0767922 0)
(1.17798 -0.0729248 0)
(1.18103 -0.0694328 0)
(1.17957 -0.066926 0)
(1.1765 -0.0647196 0)
(1.17282 -0.0627022 0)
(1.16868 -0.0608621 0)
(1.16214 -0.0589989 0)
(1.1533 -0.0574059 0)
(1.14743 -0.0556927 0)
(1.1431 -0.0540529 0)
(1.13952 -0.052302 0)
(1.14082 -0.0485952 0)
(1.14554 -0.0441763 0)
(1.14556 -0.0412694 0)
(1.14285 -0.039131 0)
(1.13931 -0.0371923 0)
(1.13529 -0.035584 0)
(1.12962 -0.0342061 0)
(1.11935 -0.0335137 0)
(1.11126 -0.032227 0)
(1.10625 -0.0306096 0)
(1.10216 -0.0291005 0)
(1.10134 -0.0258055 0)
(1.10688 -0.0201882 0)
(1.10883 -0.0163307 0)
(1.10657 -0.0143241 0)
(1.10305 -0.0127345 0)
(1.09902 -0.0114215 0)
(1.09371 -0.0103088 0)
(1.08244 -0.0104089 0)
(1.07192 -0.0100574 0)
(1.06583 -0.00880438 0)
(1.06135 -0.00761242 0)
(1.05883 -0.00529947 0)
(1.06406 0.000758893 0)
(1.0685 0.00635113 0)
(1.06705 0.00886668 0)
(1.06341 0.0102372 0)
(1.05922 0.0111941 0)
(1.0536 0.0118997 0)
(1.04082 0.0108744 0)
(1.02847 0.00972632 0)
(1.02103 0.0102602 0)
(1.01591 0.0113319 0)
(1.01206 0.012873 0)
(1.01547 0.018515 0)
(1.02251 0.0264681 0)
(1.02245 0.0300917 0)
(1.01873 0.0312953 0)
(1.01426 0.0318589 0)
(1.008 0.0319256 0)
(0.993358 0.0287995 0)
(0.978372 0.0253563 0)
(0.969081 0.0250527 0)
(0.962757 0.0260529 0)
(0.957787 0.0273481 0)
(0.958426 0.0321389 0)
(0.967325 0.0420156 0)
(0.969992 0.0483031 0)
(0.966656 0.0503443 0)
(0.96176 0.0508188 0)
(0.954611 0.050482 0)
(0.93731 0.0447658 0)
(0.917529 0.0366075 0)
(0.905546 0.0334671 0)
(0.898001 0.0328033 0)
(0.891798 0.0331675 0)
(0.889716 0.0367382 0)
(0.896521 0.047495 0)
(0.899654 0.0562718 0)
(0.896226 0.0601481 0)
(0.889895 0.0614107 0)
(0.881863 0.0607804 0)
(0.864868 0.0541347 0)
(0.840007 0.0391976 0)
(0.821762 0.0287708 0)
(0.810685 0.024262 0)
(0.8035 0.0227868 0)
(0.801373 0.0247719 0)
(0.801876 0.0293372 0)
(0.798961 0.0300922 0)
(0.794313 0.0259988 0)
(0.787705 0.020146 0)
(0.776651 0.0123538 0)
(0.758026 -0.0103064 0)
(0.291254 -0.0414877 0)
(-0.755552 -0.0238665 0)
(1.20557 -0.101997 0)
(1.20813 -0.0957881 0)
(1.20994 -0.0925362 0)
(1.20772 -0.0903728 0)
(1.20458 -0.0883726 0)
(1.20088 -0.0865638 0)
(1.1967 -0.0847207 0)
(1.1899 -0.0826432 0)
(1.18242 -0.0807856 0)
(1.17739 -0.0790501 0)
(1.17333 -0.0774335 0)
(1.17024 -0.0753317 0)
(1.17293 -0.071123 0)
(1.1768 -0.0667956 0)
(1.17594 -0.0640216 0)
(1.1731 -0.0618915 0)
(1.16956 -0.0600444 0)
(1.16555 -0.058479 0)
(1.15994 -0.0569464 0)
(1.15088 -0.0557209 0)
(1.14407 -0.0543109 0)
(1.13941 -0.0526692 0)
(1.13555 -0.0510986 0)
(1.13512 -0.047806 0)
(1.14043 -0.0423705 0)
(1.14176 -0.0387653 0)
(1.13939 -0.036723 0)
(1.13598 -0.0350684 0)
(1.13205 -0.0336612 0)
(1.12719 -0.03228 0)
(1.11741 -0.0315608 0)
(1.10823 -0.0308561 0)
(1.10257 -0.0293808 0)
(1.09828 -0.02784 0)
(1.09559 -0.0256136 0)
(1.10019 -0.020109 0)
(1.10444 -0.0148863 0)
(1.10311 -0.0124042 0)
(1.09981 -0.0109652 0)
(1.09592 -0.00980025 0)
(1.09131 -0.00868081 0)
(1.08122 -0.00841881 0)
(1.06969 -0.00894743 0)
(1.0626 -0.00817441 0)
(1.0577 -0.00680838 0)
(1.05379 -0.00542872 0)
(1.05576 -0.00101609 0)
(1.06268 0.00612774 0)
(1.06333 0.00992584 0)
(1.06023 0.0114851 0)
(1.05624 0.0125001 0)
(1.05163 0.0133675 0)
(1.0412 0.0126767 0)
(1.02718 0.010317 0)
(1.01824 0.0100816 0)
(1.01224 0.0112881 0)
(1.0076 0.0123825 0)
(1.00627 0.0155641 0)
(1.01413 0.0240736 0)
(1.01832 0.0304902 0)
(1.01607 0.0326017 0)
(1.01169 0.0329616 0)
(1.00669 0.033397 0)
(0.996108 0.0316451 0)
(0.978813 0.0265861 0)
(0.966921 0.0244654 0)
(0.959716 0.0248176 0)
(0.95427 0.0255684 0)
(0.950425 0.0273599 0)
(0.956063 0.0354104 0)
(0.963825 0.0456436 0)
(0.963372 0.050257 0)
(0.959003 0.0516343 0)
(0.953628 0.0519493 0)
(0.943598 0.0502273 0)
(0.923585 0.0405413 0)
(0.906361 0.0323331 0)
(0.895959 0.0303606 0)
(0.88912 0.0304995 0)
(0.883594 0.0312855 0)
(0.884763 0.0369083 0)
(0.891519 0.0480775 0)
(0.892396 0.054846 0)
(0.888184 0.0572757 0)
(0.881606 0.0580597 0)
(0.871824 0.0568784 0)
(0.852874 0.0481455 0)
(0.829501 0.0323681 0)
(0.813001 0.0224652 0)
(0.8032 0.0183305 0)
(0.797055 0.0170478 0)
(0.797127 0.0197221 0)
(0.798145 0.0228699 0)
(0.796093 0.0208679 0)
(0.792486 0.0145811 0)
(0.786693 0.00871795 0)
(0.773437 -0.0041881 0)
(0.293466 -0.039177 0)
(-0.757732 -0.0205962 0)
(1.20159 -0.100027 0)
(1.2035 -0.0939495 0)
(1.20666 -0.0898398 0)
(1.20476 -0.0875438 0)
(1.20168 -0.0855956 0)
(1.19805 -0.0838366 0)
(1.19392 -0.0820762 0)
(1.18759 -0.0802107 0)
(1.1798 -0.0786457 0)
(1.17446 -0.0771539 0)
(1.17031 -0.0756091 0)
(1.16678 -0.0739707 0)
(1.16766 -0.0700922 0)
(1.1725 -0.0648917 0)
(1.17262 -0.0617117 0)
(1.17002 -0.0596419 0)
(1.16661 -0.0578849 0)
(1.16268 -0.0563905 0)
(1.15776 -0.0549325 0)
(1.14888 -0.0539087 0)
(1.14128 -0.0528116 0)
(1.13633 -0.0512751 0)
(1.13237 -0.0497999 0)
(1.12999 -0.0473963 0)
(1.13472 -0.0419611 0)
(1.13805 -0.0372217 0)
(1.13639 -0.0347805 0)
(1.13314 -0.0331228 0)
(1.12931 -0.0317531 0)
(1.12495 -0.030457 0)
(1.11621 -0.0296366 0)
(1.10593 -0.02942 0)
(1.09965 -0.0283919 0)
(1.09517 -0.0270432 0)
(1.09141 -0.0255591 0)
(1.09302 -0.0212119 0)
(1.09941 -0.0145336 0)
(1.0999 -0.0108821 0)
(1.09693 -0.00923947 0)
(1.09317 -0.00807451 0)
(1.08899 -0.00703554 0)
(1.08087 -0.00659141 0)
(1.06838 -0.00769676 0)
(1.06012 -0.00767922 0)
(1.05476 -0.00661493 0)
(1.05042 -0.00546147 0)
(1.04843 -0.00286418 0)
(1.05515 0.00447153 0)
(1.05931 0.0106414 0)
(1.0574 0.0130626 0)
(1.05364 0.0141146 0)
(1.04945 0.0148214 0)
(1.04222 0.0147509 0)
(1.02767 0.0118615 0)
(1.01623 0.0102896 0)
(1.00955 0.0109697 0)
(1.00446 0.0122475 0)
(1.00042 0.0136636 0)
(1.00406 0.0194414 0)
(1.01247 0.0285615 0)
(1.01324 0.0330193 0)
(1.00978 0.0347409 0)
(1.00539 0.0353406 0)
(0.998525 0.0353053 0)
(0.982346 0.0305249 0)
(0.966736 0.0250227 0)
(0.957812 0.0236336 0)
(0.951477 0.024076 0)
(0.946246 0.0248766 0)
(0.94485 0.0284615 0)
(0.953633 0.0398482 0)
(0.958547 0.0489671 0)
(0.956268 0.0523087 0)
(0.95152 0.0529894 0)
(0.945692 0.0528214 0)
(0.932427 0.0487117 0)
(0.910875 0.0376622 0)
(0.896075 0.0309659 0)
(0.887441 0.0291881 0)
(0.881187 0.0286272 0)
(0.876498 0.0296934 0)
(0.879927 0.0374012 0)
(0.885223 0.0482528 0)
(0.884088 0.053995 0)
(0.878956 0.055971 0)
(0.872103 0.056008 0)
(0.861819 0.0528206 0)
(0.842491 0.0416823 0)
(0.820355 0.0257913 0)
(0.805213 0.0162486 0)
(0.796701 0.0117742 0)
(0.792069 0.010731 0)
(0.794205 0.0147005 0)
(0.796356 0.0166402 0)
(0.795982 0.0115134 0)
(0.793621 0.00528489 0)
(0.785327 -0.00128748 0)
(0.29902 -0.0343081 0)
(-0.759691 -0.0171198 0)
(1.19791 -0.097941 0)
(1.19833 -0.092668 0)
(1.20304 -0.0877249 0)
(1.20185 -0.0850309 0)
(1.19891 -0.0829736 0)
(1.19536 -0.0812088 0)
(1.19133 -0.07953 0)
(1.18577 -0.0779107 0)
(1.17763 -0.0766445 0)
(1.17163 -0.0752303 0)
(1.1672 -0.0735688 0)
(1.16351 -0.072083 0)
(1.16236 -0.0691115 0)
(1.16756 -0.0636022 0)
(1.16936 -0.0596556 0)
(1.16716 -0.0575166 0)
(1.16385 -0.0558228 0)
(1.16003 -0.0543632 0)
(1.15574 -0.0529882 0)
(1.1476 -0.0520416 0)
(1.1388 -0.0512359 0)
(1.13327 -0.049726 0)
(1.12911 -0.0481388 0)
(1.12579 -0.0464663 0)
(1.12816 -0.041928 0)
(1.13372 -0.0360065 0)
(1.13341 -0.0329244 0)
(1.13036 -0.0312663 0)
(1.12667 -0.0299041 0)
(1.1226 -0.0286893 0)
(1.11557 -0.0278108 0)
(1.10452 -0.0279692 0)
(1.09704 -0.027312 0)
(1.09215 -0.0259886 0)
(1.08818 -0.0247571 0)
(1.08646 -0.0221167 0)
(1.09281 -0.0153596 0)
(1.0963 -0.00992653 0)
(1.09421 -0.00761623 0)
(1.09059 -0.00635268 0)
(1.08659 -0.00534269 0)
(1.08078 -0.00468443 0)
(1.06866 -0.0061094 0)
(1.05821 -0.00711164 0)
(1.05203 -0.00631927 0)
(1.04735 -0.00501799 0)
(1.04354 -0.00355108 0)
(1.04631 0.00165012 0)
(1.05392 0.00986759 0)
(1.05449 0.0140134 0)
(1.05117 0.0154643 0)
(1.0471 0.0162701 0)
(1.04215 0.0169081 0)
(1.0301 0.0148322 0)
(1.01574 0.0113167 0)
(1.00751 0.0106847 0)
(1.00197 0.0114568 0)
(0.997149 0.0125395 0)
(0.995039 0.0154046 0)
(1.00314 0.0248173 0)
(1.0087 0.0330596 0)
(1.00703 0.0360161 0)
(1.00275 0.0368879 0)
(0.998098 0.0375074 0)
(0.988545 0.0353003 0)
(0.970637 0.0271608 0)
(0.957255 0.0224271 0)
(0.949328 0.0222807 0)
(0.943595 0.0231598 0)
(0.938943 0.0241332 0)
(0.941143 0.0298491 0)
(0.950821 0.042483 0)
(0.953201 0.0495236 0)
(0.94963 0.0517119 0)
(0.944276 0.052855 0)
(0.936927 0.0536318 0)
(0.921097 0.0471646 0)
(0.900928 0.0342415 0)
(0.887862 0.0276478 0)
(0.879619 0.0264163 0)
(0.873591 0.0262273 0)
(0.870292 0.0281636 0)
(0.875138 0.0370542 0)
(0.878869 0.0461927 0)
(0.876754 0.0501613 0)
(0.871401 0.0513816 0)
(0.864299 0.051197 0)
(0.852987 0.0472632 0)
(0.833535 0.0346824 0)
(0.812809 0.0184762 0)
(0.799014 0.00862721 0)
(0.791788 0.00397361 0)
(0.789135 0.00365904 0)
(0.793903 0.00826619 0)
(0.798005 0.00762835 0)
(0.799363 0.00176534 0)
(0.793806 -0.00121092 0)
(0.306467 -0.026507 0)
(-0.76166 -0.0137297 0)
(1.19453 -0.0957599 0)
(1.19293 -0.091522 0)
(1.19875 -0.0859484 0)
(1.19875 -0.0827553 0)
(1.19612 -0.0805377 0)
(1.19271 -0.0787463 0)
(1.18879 -0.0771189 0)
(1.18409 -0.0756302 0)
(1.17606 -0.0745942 0)
(1.16901 -0.0733555 0)
(1.16424 -0.0716509 0)
(1.16038 -0.0700705 0)
(1.15774 -0.067975 0)
(1.16174 -0.0629267 0)
(1.1658 -0.0579975 0)
(1.16444 -0.0554982 0)
(1.16132 -0.0538385 0)
(1.15766 -0.0523684 0)
(1.15361 -0.0509968 0)
(1.14667 -0.0498734 0)
(1.13688 -0.0493439 0)
(1.1305 -0.0481665 0)
(1.12605 -0.0466552 0)
(1.12231 -0.0453292 0)
(1.1217 -0.0422384 0)
(1.12809 -0.0358985 0)
(1.13022 -0.0314449 0)
(1.12777 -0.0294089 0)
(1.12425 -0.0280154 0)
(1.12032 -0.0268287 0)
(1.11498 -0.0258511 0)
(1.10419 -0.026274 0)
(1.09502 -0.0263399 0)
(1.08946 -0.0251683 0)
(1.08515 -0.0237539 0)
(1.08172 -0.0221902 0)
(1.08478 -0.0170648 0)
(1.09146 -0.00982589 0)
(1.09152 -0.00619683 0)
(1.08833 -0.00463272 0)
(1.08451 -0.0035879 0)
(1.08011 -0.00274667 0)
(1.07013 -0.00368833 0)
(1.0575 -0.00589666 0)
(1.04982 -0.00588886 0)
(1.04463 -0.00470998 0)
(1.04037 -0.00358193 0)
(1.03852 -0.000890618 0)
(1.0459 0.00738251 0)
(1.05072 0.014326 0)
(1.04906 0.0170326 0)
(1.04535 0.0180938 0)
(1.04126 0.0188012 0)
(1.03333 0.0181673 0)
(1.01803 0.0134416 0)
(1.00649 0.0104088 0)
(0.999646 0.0105359 0)
(0.994221 0.0117311 0)
(0.989801 0.0130242 0)
(0.991696 0.0185784 0)
(1.00118 0.0301294 0)
(1.00366 0.0364531 0)
(1.00095 0.0385126 0)
(0.996702 0.038895 0)
(0.991274 0.0393427 0)
(0.97727 0.0350616 0)
(0.959112 0.0264074 0)
(0.948348 0.022564 0)
(0.941818 0.0219662 0)
(0.936324 0.022159 0)
(0.932198 0.0236671 0)
(0.93725 0.0327168 0)
(0.945649 0.0463407 0)
(0.94576 0.0527917 0)
(0.941801 0.0544982 0)
(0.936798 0.0542703 0)
(0.929081 0.0529875 0)
(0.911283 0.0439778 0)
(0.891614 0.0314836 0)
(0.879715 0.0257409 0)
(0.872243 0.0242171 0)
(0.866458 0.0238817 0)
(0.864547 0.0270115 0)
(0.86967 0.036942 0)
(0.871815 0.0447735 0)
(0.868984 0.0476898 0)
(0.863555 0.048057 0)
(0.856664 0.0468347 0)
(0.845529 0.0413215 0)
(0.826375 0.0272602 0)
(0.806925 0.0105503 0)
(0.794535 0.000144142 0)
(0.788533 -0.00427509 0)
(0.788343 -0.00332855 0)
(0.795879 0.000285997 0)
(0.802118 -0.00195921 0)
(0.799368 -0.00388287 0)
(0.315356 -0.0166261 0)
(-0.76341 -0.0104282 0)
(1.19145 -0.0935007 0)
(1.18783 -0.0903448 0)
(1.19369 -0.084407 0)
(1.1954 -0.0805896 0)
(1.19326 -0.078212 0)
(1.19005 -0.0764176 0)
(1.18631 -0.0748326 0)
(1.18218 -0.0733988 0)
(1.17484 -0.0722839 0)
(1.16659 -0.0713049 0)
(1.16137 -0.0698382 0)
(1.15731 -0.0682829 0)
(1.15389 -0.0667033 0)
(1.1554 -0.0627073 0)
(1.1613 -0.0568738 0)
(1.1615 -0.0534932 0)
(1.15867 -0.0516604 0)
(1.15517 -0.0501607 0)
(1.15127 -0.0488276 0)
(1.14573 -0.0476158 0)
(1.13577 -0.0473375 0)
(1.12817 -0.0466937 0)
(1.12332 -0.0453929 0)
(1.11933 -0.0440433 0)
(1.11651 -0.0421455 0)
(1.121 -0.0365178 0)
(1.1262 -0.0304743 0)
(1.1251 -0.0275956 0)
(1.12181 -0.0260439 0)
(1.11804 -0.0248076 0)
(1.1138 -0.0237348 0)
(1.10477 -0.0239318 0)
(1.09382 -0.0249632 0)
(1.08716 -0.0243794 0)
(1.08242 -0.0230278 0)
(1.07845 -0.0217795 0)
(1.07732 -0.0187765 0)
(1.0846 -0.0110182 0)
(1.08809 -0.00530109 0)
(1.08591 -0.00300898 0)
(1.08226 -0.00180011 0)
(1.0783 -0.000855501 0)
(1.07178 -0.000731743 0)
(1.05856 -0.00360994 0)
(1.04833 -0.00522794 0)
(1.04239 -0.0046258 0)
(1.03762 -0.00335629 0)
(1.03365 -0.00202223 0)
(1.03595 0.00322306 0)
(1.0445 0.0130496 0)
(1.04607 0.0180937 0)
(1.04303 0.0197468 0)
(1.03899 0.0205991 0)
(1.03437 0.0210245 0)
(1.02289 0.0176795 0)
(1.00744 0.0118429 0)
(0.997881 0.0103039 0)
(0.991858 0.0111189 0)
(0.987002 0.0121564 0)
(0.983641 0.0138638 0)
(0.989955 0.02217 0)
(0.998312 0.0334618 0)
(0.998284 0.0380063 0)
(0.994473 0.0398689 0)
(0.989912 0.0410299 0)
(0.98326 0.0408327 0)
(0.967281 0.0327661 0)
(0.950687 0.0230992 0)
(0.940777 0.0201188 0)
(0.934064 0.020597 0)
(0.928871 0.021242 0)
(0.926195 0.0233607 0)
(0.933836 0.0341324 0)
(0.940991 0.046307 0)
(0.940103 0.0508286 0)
(0.935407 0.052285 0)
(0.929581 0.0530995 0)
(0.920167 0.0520137 0)
(0.90178 0.0413143 0)
(0.883673 0.0282953 0)
(0.87234 0.0227369 0)
(0.86495 0.0215336 0)
(0.859568 0.021633 0)
(0.859543 0.0260053 0)
(0.864828 0.0356287 0)
(0.865923 0.0416257 0)
(0.862799 0.043274 0)
(0.857486 0.0432926 0)
(0.850711 0.041589 0)
(0.839795 0.0353917 0)
(0.821294 0.0196004 0)
(0.802829 0.00189685 0)
(0.79166 -0.00849953 0)
(0.786962 -0.0122155 0)
(0.790046 -0.0113006 0)
(0.80063 -0.0096624 0)
(0.800978 -0.00962421 0)
(0.324027 -0.00481865 0)
(-0.764958 -0.00764916 0)
(1.18847 -0.0911223 0)
(1.18356 -0.089003 0)
(1.18795 -0.0832726 0)