/*--------------------------------*- C++ -*----------------------------------*\
  =========                 |
  \\      /  F ield         | OpenFOAM: The Open Source CFD Toolbox
   \\    /   O peration     | Website:  https://openfoam.org
    \\  /    A nd           | Version:  12
     \\/     M anipulation  |
\*---------------------------------------------------------------------------*/
FoamFile
{
    format      ascii;
    class       surfaceScalarField;
    location    "0.45";
    object      phi;
}
// * * * * * * * * * * * * * * * * * * * * * * * * * * * * * * * * * * * * * //

dimensions      [1 0 -1 0 0 0 0];

internalField   nonuniform List<scalar> 
33852
(
0.000251329
2.24281e-05
-0.000273757
-0.000246121
1.32441e-05
0.000232877
-0.000181083
-8.23267e-05
0.000259516
0.000304053
-0.000163969
-0.000140085
0.000293447
-3.82936e-05
-0.000262779
2.72441e-05
-0.000260681
0.000233437
0.000312467
1.43338e-05
-0.000327133
0.000304277
-9.59564e-05
-0.000208321
0.000286413
-3.50841e-05
0.000206303
2.91871e-06
-0.000213284
0.000289549
-0.000366709
7.70874e-05
0.000357192
-4.51602e-05
-4.39602e-05
0.000263285
-0.000219325
2.88401e-06
0.000238057
-0.000240941
6.89837e-05
-0.00024984
0.000252057
1.2236e-05
-0.000264293
0.000264853
-1.2796e-05
-0.000278433
3.23121e-05
0.000340644
-5.11703e-05
0.000158593
0.000112308
-0.000270901
1.81749e-05
0.000225168
-0.000243343
0.000271377
-0.000276165
4.78802e-06
-1.68086e-05
0.000270571
-0.000253732
-0.000212806
1.3642e-05
0.000197465
-0.000163381
-0.00011662
0.000280001
-0.000124278
-5.65272e-05
0.000208759
3.72401e-05
0.000267037
-5.99035e-05
-0.000259733
0.00031976
-0.000213966
2.08265e-06
0.000211672
-0.000197112
-1.8315e-05
0.000142045
0.000137388
-0.000279433
0.000337815
1.88969e-05
0.000142618
0.000128347
-0.000270965
-0.000101136
0.000259729
-0.000250489
-3.78001e-06
0.000254269
0.000342139
-6.09818e-05
-0.000280614
-0.000302849
0.000139469
-0.000223629
0.000206823
0.000231645
3.32081e-05
-5.65602e-06
0.000237301
-7.73034e-06
0.000200961
-0.000232625
0.000259869
0.000331431
-6.60885e-05
-0.00026989
-0.000309093
5.51042e-05
0.000253989
0.000237225
-0.00029693
0.000273589
-0.000306321
3.27321e-05
-0.000180237
-5.49362e-05
0.000235173
0.000272133
-0.000272133
0.000148429
-0.000297473
0.000149045
-0.000199048
0.000208762
-6.76397e-06
-0.000268241
0.000237301
3.09401e-05
-0.000190082
0.000234983
-4.48131e-05
-9.16164e-05
-0.000217477
-0.000114618
-0.000252106
-0.000280169
0.000266113
1.40561e-05
0.000325868
1.18157e-05
-0.000250433
7.01963e-05
0.000117908
0.000145909
-0.000263817
1.34681e-05
-0.000267457
0.000253989
-0.000134569
0.000282997
-0.000169759
-5.862e-05
0.000212102
-0.000274681
0.000245113
2.95681e-05
0.000237553
-0.000268437
3.08841e-05
-0.000185561
-2.4315e-05
0.000151665
0.000115565
-0.00026723
-0.00017812
-2.66773e-05
0.000201849
0.000263985
2.24281e-05
0.000275941
-2.35201e-06
0.000265329
-0.000250741
-1.45881e-05
0.00025091
-7.16072e-05
-0.000178375
-1.82001e-06
0.000239373
0.000361396
-0.000307584
-5.4176e-05
-3.37426e-05
0.000312253
-0.000283698
-0.000101584
0.000219493
0.000336256
2.49353e-05
-0.000366036
0.000348074
1.71841e-05
-0.000206116
2.12916e-05
0.000306038
-0.000317945
1.17706e-05
-0.00019926
0.000261428
-6.12836e-05
-4.45202e-06
1.70584e-05
-0.000319169
0.000301918
0.000225855
-0.000190812
-3.3747e-05
0.000265213
-0.000334674
6.95154e-05
0.000328904
-6.31511e-05
-0.000268941
0.000236573
3.23681e-05
-0.000129389
-0.000132609
0.000261997
-1.86761e-05
-0.000249565
-1.022e-05
-0.000258721
1.82142e-05
0.000222853
-0.000245882
3.49975e-05
-0.000240842
0.000205047
-2.47102e-05
0.000322813
-0.000298249
-0.000279329
0.000273701
5.62802e-06
0.000156129
-0.000296857
0.000140729
-5.92167e-05
-0.000142048
0.000223695
0.000143277
0.0001218
-0.000265077
-0.000190163
0.000208338
-0.000194449
0.000155877
-0.000168813
0.000327181
-0.000158369
0.000185389
7.16523e-05
-0.000257041
0.000255193
2.07481e-05
-0.000192277
0.000148317
5.54518e-05
0.00026998
0.000306797
-0.00028984
7.58006e-05
-0.000198131
0.000135241
0.000117096
-0.000281065
-6.67407e-06
0.000257096
-0.000245777
0.000166489
0.000122836
-0.000289325
0.000139916
8.68842e-05
-3.92002e-06
0.000259113
0.000299747
5.63924e-06
-0.000324048
0.000315095
9.05298e-06
-3.99002e-05
0.000236293
-0.000196393
4.08802e-06
-0.000284257
-2.4573e-05
0.000152386
-0.000124707
-0.000143497
0.000124725
0.000219325
-0.000188794
-0.000269921
0.000264965
4.95602e-06
2.64041e-05
0.000174721
-0.000201125
2.87841e-05
-0.000257265
0.000228481
0.000276137
-0.000262669
0.000115108
0.000212073
0.00022253
-0.000205689
-0.000175813
0.000202217
1.24193e-05
0.000284765
-0.000297707
0.000271205
1.88969e-05
0.000268085
-0.000280455
1.18076e-05
3.86402e-06
0.000267513
-1.76489e-05
0.000285312
0.000330638
9.92583e-06
0.000198409
-0.000195525
0.000316739
-0.000316724
-6.63603e-06
-0.000272693
3.04484e-05
0.000200313
0.000187993
3.98722e-05
-0.000227865
-5.18738e-05
0.000213569
-0.000146319
0.000153609
-0.000270285
0.000116676
0.000279441
-0.000329701
5.02602e-05
-6.38122e-05
0.000249201
-0.000166909
0.000315897
-0.000148989
-0.000313862
-1.0086e-05
-0.000214929
0.000175029
2.78601e-05
-0.000278349
0.000276221
-1.88441e-05
-0.000248613
1.56958e-05
-0.000296775
0.000281159
0.000344989
-0.000158593
-0.000186397
-1.69438e-05
-0.000240971
0.000257848
-0.000266617
-3.30401e-06
0.000224001
2.45841e-05
-0.000248585
0.000284509
-0.000128381
0.000140197
0.000138853
-0.000279049
-0.000188034
-1.04344e-05
0.000258169
-0.000115551
0.000225646
-0.000242528
-6.38122e-05
0.000251805
-0.000198509
0.000249481
-5.60002e-07
-0.000248921
0.000255109
-0.000237441
-0.000319836
0.000295064
-3.08841e-05
0.000203169
-0.000172285
0.000288023
1.36021e-07
-0.000288301
7.52722e-05
0.000124548
-0.000184488
5.30652e-05
-0.000220651
-0.000285133
-3.75054e-06
0.000288373
-2.37192e-06
-0.000283013
0.000146973
-0.000273925
0.000126952
-0.000270492
0.000224677
-0.000309746
0.000270466
0.000279441
-0.000309343
-1.22251e-05
0.00032165
0.000106403
0.000155743
-2.32643e-05
0.000363021
0.000140141
0.000139833
-0.000279973
0.000245029
-0.000250349
5.32002e-06
-0.000210953
0.000180069
0.000279133
-5.43202e-06
0.000297333
-5.92762e-05
-0.000300786
0.000304534
-1.64522e-06
0.000270985
-0.000270985
-0.000364524
0.000225839
0.000138665
-0.000194117
1.92815e-05
1.65525e-05
0.000275157
-0.000278461
3.30401e-06
-5.12361e-06
0.000165388
-0.000159213
-0.000197345
0.000254801
-5.74562e-05
-0.000194299
4.26144e-06
-0.000215584
0.000161233
8.2494e-05
-0.000180265
0.000261437
-8.11723e-05
0.000256285
-0.000287113
3.08281e-05
-0.000249229
5.18842e-05
-2.34655e-05
0.000275815
-0.000252769
-0.000253547
1.35801e-06
0.000252189
0.000231281
-7.28003e-06
-0.00029044
9.93126e-06
0.000280422
-0.000266085
0.000266085
-0.000280828
-5.39447e-05
-0.000170609
-0.000193994
-0.000167079
0.000207573
-4.13524e-05
-1.232e-05
-0.000239177
0.000251497
3.10801e-06
0.000210113
-0.000213221
-0.000177107
-2.16753e-05
0.000198265
4.82249e-06
0.000290761
-0.000295556
-0.000236153
-1.34401e-05
0.000249593
1.50361e-05
-0.000251189
-0.000241025
0.000256061
-0.000297513
0.000302301
0.000256117
7.16803e-06
-0.00016604
-3.21455e-05
0.000205696
-0.000145237
-0.000134765
-0.000244329
0.000240549
0.000295347
-3.10384e-06
-0.000292331
-0.000295747
3.70773e-06
0.000291693
1.83809e-05
0.000181217
0.000163773
7.70003e-05
-0.000257265
-0.000159242
0.000310908
0.000250721
-0.000108677
-0.000235145
-1.83681e-05
0.000253513
-0.000136201
-0.000138713
0.000274913
-6.10402e-06
-0.000229125
0.000235229
-2.04144e-05
-0.000168047
-0.000282639
-8.41372e-05
3.68492e-06
-0.000294305
-0.000143585
0.000272077
-0.000128493
0.000281597
0.000288205
-5.16322e-05
0.000271993
-1.57081e-05
-0.000180894
-1.33004e-05
0.000193633
0.000294249
-3.26156e-06
-0.000291809
-0.00026995
-3.22064e-05
-0.000218821
0.000247605
1.16059e-05
0.000234968
-0.000250622
0.000169262
7.41347e-06
-0.000173318
-3.27334e-05
0.000211404
-0.00026553
0.000263266
0.000289224
1.96167e-06
-0.000290988
0.000157445
0.00011886
-0.000276305
0.000287159
3.41223e-07
-0.000288011
-0.000250788
0.000105015
0.00012
-0.000282219
0.000294775
0.000302513
-0.000156857
-0.000145657
0.000207005
-0.000203897
-0.000232009
-0.000121156
-0.000155009
-1.33226e-06
-0.00029042
0.000291688
-1.0136e-05
0.000276249
0.000281515
-2.88319e-05
-0.000254564
-0.000262492
3.25179e-05
0.000229903
0.000271433
-0.000267569
0.000249621
2.95121e-05
0.000307964
-7.10823e-06
-0.000300936
4.41798e-05
0.000140065
-0.000179784
-0.000110162
0.000193168
-9.63847e-05
0.000252617
-2.91201e-05
-0.000223497
4.86197e-06
0.000284665
-0.000188105
-3.30727e-05
0.000223659
2.16083e-06
0.00028453
-9.33244e-05
0.000246933
-0.000255417
-5.26402e-06
0.000121184
0.000181329
1.34121e-05
0.000241557
-0.000254969
0.000236097
1.34961e-05
-0.000249593
0.000249509
-0.000242929
0.000256425
6.1478e-05
-0.000193412
0.000133378
-0.000230964
0.000118905
-0.000189052
0.000294243
-1.47697e-06
-0.000292999
0.000253849
2.22881e-05
0.000268493
-0.000216441
-5.20522e-05
0.000225518
-0.000246849
2.13305e-05
0.000257909
1.40841e-05
5.67639e-05
0.000290618
0.000267186
-3.89594e-05
-0.000228226
0.000168473
1.274e-05
0.000240297
-0.000253037
0.000187502
-0.00010974
-7.78364e-05
-0.000198459
2.00676e-05
2.37448e-06
-0.000294455
0.00029191
0.000207855
-0.000159737
-4.94492e-05
0.000292696
-6.75279e-05
0.000275969
-0.000135829
2.31561e-05
0.000238337
-0.000261493
-0.000231141
0.000254297
-2.65833e-05
-0.000229937
0.000256523
0.00015048
-0.00015439
-8.25043e-05
-0.00017704
-0.000261723
4.14346e-05
0.000220288
-3.17521e-05
-0.00022997
6.37379e-06
0.000261717
-3.25193e-05
-0.000229198
1.68153e-05
0.000108498
-0.000163354
0.000308785
-0.000171397
0.000262319
-3.57923e-05
-0.000226526
-0.000319467
0.000189088
-0.00010295
-0.000228453
-6.90203e-05
6.30047e-06
-0.000290875
0.000283609
-2.81916e-05
0.000201536
-0.000167724
0.000303642
4.25577e-06
0.000250097
-0.000248249
-1.84801e-06
-0.000169879
5.99693e-05
0.000260362
-3.06744e-05
-0.00022968
0.000197345
-0.000250769
5.34242e-05
0.000254205
-0.000231206
-2.29992e-05
-0.000252337
0.000240017
0.000137984
9.74948e-05
-0.000101864
-0.000170269
0.000132497
-0.000261885
-0.000290249
0.000242201
4.80482e-05
0.000216806
3.12481e-05
-0.000248055
-0.000237362
-5.85168e-06
0.000248946
0.000331929
-2.05631e-05
0.000263996
-3.42721e-05
-0.000229724
0.000127577
-0.000215804
8.44272e-05
3.63259e-05
-0.000265637
0.000229311
-0.000253905
0.000121296
0.000249817
-5.24722e-05
0.000294673
-0.000154253
-0.000140421
0.000122248
-0.000289157
1.53441e-05
0.000237665
-0.000253009
-0.000262031
3.54705e-05
0.00022656
-2.77123e-06
-3.77917e-05
-0.000224239
0.000248363
-0.000272041
-0.000264649
3.44737e-05
0.000230175
0.000193257
0.000101416
-0.000149941
0.000290137
-0.000155364
-3.77979e-05
0.00019552
-1.81721e-05
0.000263201
-0.000288804
0.000304593
0.000110257
9.75469e-05
0.000261325
-0.000261325
0.000277929
-4.38202e-05
-0.000234109
5.32002e-07
0.000248949
0.000254857
1.65761e-05
0.000310056
-0.000276361
-3.32266e-05
-2.26336e-05
0.000266577
-0.000243943
3.00077e-05
-0.000260519
0.000230511
-0.000252139
0.000229506
0.00032287
3.11501e-05
-0.000260598
0.000229447
0.000276809
-3.16961e-05
-7.25991e-06
-0.000294159
0.000300194
0.000271028
3.91151e-05
0.000230245
-0.000266617
3.63721e-05
0.0002023
-0.000205378
-0.000258301
0.000238533
1.97681e-05
0.000169762
-0.000257245
8.74835e-05
-0.000180462
0.000163241
-0.000249145
8.59043e-05
-0.000266169
0.000224813
4.13562e-05
0.000253073
-2.78797e-05
-0.000225194
0.000183608
4.57997e-05
-0.000234837
-2.29601e-05
0.000257797
-0.000236377
-2.28761e-05
0.000259253
-1.94265e-05
0.000255969
-0.000236542
-0.000259345
0.000239919
-3.03833e-05
0.000157085
-0.000235929
-2.24001e-05
0.000258329
-0.00025484
0.000229192
2.56481e-05
2.94001e-06
0.000211289
-0.000214229
-0.000267031
3.79849e-05
0.000229046
0.000270677
4.48002e-06
4.37681e-05
0.000157885
-0.000214757
-3.31224e-05
0.000249929
-1.98042e-05
0.000218597
9.73004e-05
0.00024821
-0.000216962
0.000272658
-0.000275449
0.00027336
-0.000277524
-1.84997e-05
0.000258601
-0.000240101
-0.000261644
0.000243145
2.95616e-05
-0.000197513
-2.59745e-05
-0.000203058
0.000228643
0.000315088
-0.000287453
-2.74093e-05
0.000261297
-3.11081e-05
-0.000230189
3.28739e-05
-0.000262362
0.000229488
-0.000229853
0.000259645
-2.97921e-05
0.000318493
-1.4906e-05
0.000163021
-0.000232847
0.000256929
-0.000109956
-0.000282816
0.000282784
0.000241977
-6.41202e-06
-0.000235565
0.000228537
-0.000176183
-3.41432e-05
0.000210537
2.6204e-05
-0.00020685
-0.000239989
0.000260317
-2.03281e-05
-9.92526e-05
0.00018331
-8.34041e-05
3.10505e-05
-0.000187253
0.000240169
-0.000263424
2.32552e-05
-0.000115584
0.000258861
-0.000243993
0.000265721
-2.17281e-05
-0.000238953
0.000232541
0.000258626
-0.000245105
-1.35213e-05
0.000264349
-2.46681e-05
-0.000246317
-0.00027063
-1.00409e-05
0.000313867
-5.03282e-05
-3.8389e-06
0.000284096
-0.000279205
-0.000173843
0.000205758
0.000235749
1.45218e-05
-0.000248658
0.000328429
-0.000328402
0.000260955
-0.000245018
-1.59377e-05
-0.000297304
4.67382e-07
0.000305526
9.69354e-06
3.47944e-05
0.000148705
-0.000182505
0.000207058
-3.55982e-05
-0.000174658
0.000278054
-0.000255789
-2.22648e-05
-0.00020361
3.18969e-05
3.15421e-05
-0.000261891
0.000230348
0.000285023
-0.000292308
2.44721e-05
-0.000259617
-0.000257965
1.87881e-05
0.000266057
-1.64361e-05
0.000151173
-0.000267625
0.000116452
0.000292526
-1.72033e-06
0.000238617
-7.53763e-05
2.12521e-05
0.000177045
-0.000198297
-0.000183877
0.000205129
-0.000236275
0.000257219
-2.09441e-05
0.000261462
-3.31689e-05
-0.000228293
-0.000197009
-5.21362e-05
0.000251581
-1.48401e-06
5.16634e-06
-0.000263903
0.000262473
-0.000337585
0.000232944
0.000104641
0.000266371
-0.000236811
-2.95597e-05
0.000303621
-0.000308461
4.69421e-06
-2.57041e-05
-0.000229097
0.000254801
0.000261493
-7.64403e-06
9.8171e-06
-0.000200478
0.000262411
-3.19033e-05
-0.000230508
-6.90483e-05
-0.000260653
-0.000194685
0.000248025
-5.33402e-05
-0.000266533
0.000249985
1.65481e-05
-0.000311329
1.37441e-05
-2.03399e-05
0.000301228
-0.000282476
-0.000276221
1.65481e-05
0.000249537
-0.000161088
6.22438e-05
0.00026759
1.70496e-05
-0.000284837
-0.000310155
0.000304473
5.51593e-06
3.46641e-05
-0.000263649
0.000228985
-1.48908e-05
0.000277428
-0.000308996
1.31539e-05
-0.000176541
-7.42283e-05
-0.000226898
0.000203616
-2.16721e-05
-0.000216469
0.000238141
-0.000307682
0.000291726
1.58622e-05
-0.000134944
0.000271511
-0.000136835
-5.40451e-06
3.31521e-05
-0.000263453
0.000230301
-0.000181929
2.39153e-05
0.000172566
0.00022163
0.000280302
-0.000280501
2.84748e-07
-0.000236993
-2.20921e-05
0.000224813
-0.000202721
0.000139273
0.000143753
-0.000278517
0.000195261
-5.51967e-05
0.00030112
-7.08448e-06
0.000217114
-0.0002754
2.92853e-05
0.00022306
-0.000252345
-0.000256621
0.000140001
0.000292277
2.61981e-05
1.93642e-05
-0.000224355
-2.77845e-05
-0.000136553
-0.000133074
-0.000261969
0.000118384
0.000242873
2.56201e-05
0.000218765
-0.000224869
1.42821e-05
-0.000294561
0.000281763
-0.000229957
0.000259582
-2.96125e-05
0.000275382
-0.000278539
0.000285522
-7.45845e-05
-1.16946e-05
0.000286984
-1.87881e-05
0.000247101
-0.000228313
0.000275303
-0.000287092
-8.9021e-06
-0.000277915
0.00028636
0.000278755
-0.000264073
0.000280733
0.000226314
2.67597e-05
-0.000305072
0.000304414
-1.73268e-06
0.000254188
-1.81663e-05
0.000231636
2.10857e-05
-0.000268913
0.000246057
-2.05381e-05
-0.000259401
3.02849e-05
0.000229116
0.000178305
7.64963e-05
1.55587e-05
0.000271073
-0.000289148
-0.000238141
-2.88401e-05
0.000266981
2.51441e-05
-0.000263285
0.000284117
-0.000162317
-0.000232177
0.000261129
-2.89521e-05
-0.000234697
0.000260709
-2.60121e-05
1.43385e-06
0.00027925
2.45001e-05
-0.000259197
2.38001e-05
-0.000255977
0.000274347
-0.000243135
-3.12164e-05
0.000311473
-7.52891e-06
-0.000289608
-1.32604e-05
-0.000255753
1.1816e-05
0.000243937
-6.9397e-06
-0.000261184
0.000228061
-0.000245337
0.000270145
-2.48081e-05
-0.000263229
1.49801e-05
-2.54275e-05
0.000282809
-0.000257537
2.13641e-05
-0.000266701
-0.000241157
-2.12988e-05
3.31143e-05
-9.0432e-05
0.000260194
0.000274347
-0.000283575
5.05122e-05
0.000237693
0.000275656
-0.000279
-0.000243181
-2.39401e-05
0.000267121
-0.000260894
7.34723e-06
-0.000302714
2.2374e-05
0.000280469
-0.000268717
2.55361e-05
-1.24512e-05
0.000288055
-0.000268326
0.000243547
2.47787e-05
-0.000232513
0.000210841
0.000273356
-0.000285811
-6.16002e-07
0.000260289
-0.000259673
-0.00029808
-1.33455e-05
-0.000264573
2.35481e-05
-0.00024417
-2.41555e-05
-3.43281e-05
-0.000291647
0.000290219
0.000286674
-0.000158327
0.000288881
-0.000287081
2.30154e-05
2.04741e-06
0.000261959
-0.000254674
-7.13399e-06
0.00030351
-2.26186e-05
-0.000280753
5.83486e-05
-0.000246765
-2.19521e-05
-0.000356567
0.000241988
0.000277308
-0.000275572
2.33801e-05
-0.000182503
-1.49921e-05
-0.000303449
2.21514e-05
0.000281517
-0.000202448
0.000321318
-0.000113864
0.000259841
-0.000238533
-2.13081e-05
-0.000288027
2.94001e-05
0.000222097
-0.000251497
-0.000142239
0.000154256
-0.000180145
0.000251441
-0.000238029
-1.34121e-05
-0.000263873
3.40201e-05
-2.23161e-05
-0.000269837
0.000251469
0.000230427
3.12901e-05
-4.1893e-05
0.000198229
0.000232619
-0.000260499
-1.45703e-05
8.871e-10
0.000243755
-0.000246662
-0.000289792
-0.000237049
0.000265189
-2.81401e-05
0.000230096
3.22225e-05
-0.000268521
2.55921e-05
-0.000239905
-2.86161e-05
0.000228954
-0.000260706
-0.000279824
4.73202e-05
-0.000242005
0.00029027
-0.000275834
-0.000294741
1.68612e-05
0.000276857
-3.04003e-06
0.000210109
0.000228551
-0.00026107
0.000296886
-0.000130901
-0.000165985
0.000230022
-0.000259324
0.000261879
-0.000226213
-1.76681e-05
-0.000181093
0.000325871
-0.000145317
2.49649e-05
0.000222662
-0.000247627
-0.000186728
0.000186419
-0.000276894
0.000279344
1.05203e-05
-0.000287359
-0.000302485
0.000146693
0.000155793
0.000259995
-0.000239359
-2.06361e-05
-0.000215741
0.000193649
0.000261942
4.34291e-07
0.000257293
0.000232523
2.1682e-05
-0.000218933
-8.39163e-05
6.4804e-06
0.000234247
-0.000253141
1.37783e-05
-0.000230917
-2.37161e-05
0.000254633
-0.000242295
0.000263191
-2.08965e-05
7.97827e-05
0.000130356
1.78178e-05
-0.000304677
0.0002866
0.000256565
-1.80041e-05
-0.000238561
0.000243881
-0.000254017
1.0136e-05
-0.000226745
0.000207957
0.000223131
-0.000258923
-0.000244693
4.76842e-05
1.30627e-05
-0.000137673
-0.000218848
1.57921e-05
0.000245701
0.000278153
0.000290836
0.000299175
4.25016e-06
0.000249817
-0.000220417
2.51749e-05
0.000225009
-0.000250184
-0.000243178
0.000268865
-2.56873e-05
2.28201e-05
-0.000262725
-9.5091e-05
0.000296396
9.14362e-06
2.08181e-05
0.000261675
-0.000235103
-2.65721e-05
1.0688e-05
-0.000302881
0.000292839
0.000315027
-2.5505e-05
-0.000288893
0.000249733
1.63241e-05
0.000304425
-0.000293303
-0.000226847
-0.000110833
9.63204e-06
0.000250657
-4.9129e-05
-0.00020239
0.000251519
2.20333e-05
0.000246832
-0.000241686
-2.29629e-05
0.000260737
-2.24001e-05
0.000284814
-0.000268023
2.63369e-05
2.68241e-05
-0.000257965
0.000210617
-0.000207677
2.58161e-05
-0.000262865
0.000275355
0.000121744
-0.000256173
0.000134429
7.79584e-06
3.69906e-05
0.000159082
-0.000178197
-0.000239485
-2.85377e-05
3.88934e-05
0.000143956
-0.000194879
-0.000246691
0.000271066
-2.43747e-05
0.000209866
-0.000248826
1.98857e-05
1.72465e-05
-0.000165655
-2.87707e-05
0.000226749
-0.000257418
-2.88401e-05
0.000244245
-0.000215405
-2.16161e-05
0.000242985
-0.000221369
0.000201657
-0.000250786
-0.000273596
-0.000232905
-2.55081e-05
0.000258413
0.000241234
2.98318e-05
-0.000210293
-2.03126e-05
0.000229383
-2.18821e-05
-0.000224967
-0.000239345
6.28042e-05
0.000259004
-0.000229718
4.75106e-05
-0.000249901
-3.43393e-05
0.000257694
-0.000223354
0.000205675
-0.000240014
0.000261689
-1.1956e-05
-6.06763e-05
-0.000229572
-0.000223994
-1.3995e-05
0.000243679
0.000247109
5.3175e-05
0.000212448
-0.000265623
-0.000261149
0.000177353
-0.000231757
5.44042e-05
6.22139e-05
0.000132728
0.000259457
-0.000240915
-2.47224e-05
-0.000265385
0.000227165
3.82201e-05
-2.87813e-05
-0.000222158
0.00025094
-0.000287433
0.000264161
0.000234501
3.61761e-05
2.18821e-05
0.000234087
-0.000307217
0.000151089
0.000156129
0.000161571
-4.98826e-05
0.000254045
-0.000115192
2.56901e-05
0.000217446
-0.000243136
-0.000285694
0.000286924
9.28108e-06
0.000257377
-0.000245953
0.000208937
3.70161e-05
0.000254832
0.00024451
-1.56917e-05
-0.000246815
-2.02161e-05
-0.000263019
2.0724e-05
-0.000269215
2.24001e-05
2.79601e-05
0.000220024
-0.000247984
0.000242481
-0.000274597
1.32721e-05
0.000241747
-1.09415e-05
9.86285e-06
-0.000246169
-0.000263604
0.000127403
-0.000233135
-2.62109e-05
-0.000252113
0.000252113
0.000259782
-0.000144217
-1.85904e-05
-0.000277966
0.000296646
0.000286429
0.000258749
-0.000135913
0.000224113
2.39205e-05
0.00023468
7.66576e-05
-0.000336287
3.67974e-05
0.000258962
1.76367e-05
-0.000248843
-3.00917e-05
0.000207453
-3.01001e-05
0.000259701
2.95429e-05
0.000218353
-0.000247896
-3.05014e-05
-4.09782e-05
-0.000217818
0.000258797
-0.000233423
-2.14173e-05
3.55899e-05
-0.000182387
0.000147498
-3.30877e-05
0.000221671
-0.000255943
-0.000282276
-8.32398e-06
0.000290489
-0.000190477
0.000168129
0.000166349
8.16763e-05
1.28308e-05
-0.00029505
0.000235075
2.59446e-05
-0.000261019
-0.000187355
-1.22729e-06
0.000232743
-0.000264287
3.15449e-05
-8.42803e-06
-0.000217029
0.000225457
-0.0001477
0.000182958
-0.000249985
-3.46025e-05
0.000256274
0.000218076
-0.000252679
-0.000246289
0.000272245
-2.59561e-05
0.000253547
2.78321e-05
-0.000232062
-2.95821e-05
-0.00029742
0.000311415
-1.40048e-05
1.78061e-05
0.000212462
-0.000250254
-0.000267233
2.09441e-05
-2.12801e-05
-0.000245953
-3.61481e-05
0.00024861
-0.000290024
-1.21933e-05
0.00022082
-0.000256968
0.000249154
-0.000250665
1.28169e-06
2.80002e-06
0.000181413
-0.000184213
0.000255294
0.000234529
2.67681e-05
-2.62361e-05
0.000245001
-0.000218765
3.36001e-05
0.000216609
-0.000250209
0.000244861
2.73841e-05
0.000306545
-0.000143949
-0.000162597
1.18138e-05
0.000242694
-0.000259229
0.000271013
-0.000113568
0.000225569
-0.000256677
-0.000241162
0.000105002
-0.000265469
7.16803e-06
-0.000241635
-2.75801e-05
-0.000241361
-2.48081e-05
0.000314098
-2.80472e-05
-7.67483e-05
0.000243097
-1.1452e-05
-0.000215601
0.000224281
-8.68003e-06
0.000255193
-7.68883e-05
3.51718e-05
-0.000192349
0.000172658
-0.000265245
-1.40001e-07
-4.14962e-05
3.91419e-05
0.000150781
-0.000191509
0.000209542
-0.000157822
0.000257041
-7.05603e-06
0.000251151
-0.000218277
-1.5485e-05
-2.1128e-05
0.000275047
-9.20309e-05
-0.000181115
-1.42801e-05
-0.000191913
0.000206193
0.000258665
-1.53553e-05
-0.00024331
1.98101e-05
0.000238855
-0.000281723
-1.14618e-05
3.56408e-05
-0.000188035
0.000154102
1.36921e-05
0.000247997
-0.000155684
0.000193128
-1.95189e-05
0.000248711
2.95595e-05
0.000185221
-0.000218305
-4.17202e-06
-2.49389e-05
0.000265108
-0.000231955
-3.14693e-05
0.000297152
-0.000281967
-1.53334e-05
1.63717e-05
-0.000237659
0.000221288
-0.00010514
0.000226885
1.5626e-05
-0.000298451
0.000283233
2.52001e-05
-2.79441e-05
2.69165e-05
0.00030236
-0.000286218
0.000238891
1.97345e-05
2.15601e-06
0.000231617
-0.000233773
-0.00030357
2.25222e-05
0.000280839
-0.000162177
-0.000144145
0.000209178
-0.000250156
-0.000144818
0.000241924
1.90317e-05
0.00025625
-4.13534e-05
0.000250531
0.000214498
-0.000255851
0.000318477
-0.000318575
-1.50141e-05
0.000295691
-0.000279755
-0.000302771
1.74408e-05
0.000284543
4.20842e-05
-0.000286413
-3.72334e-05
0.000252483
2.62921e-05
-1.92366e-05
0.000303748
-0.000284373
2.43321e-05
3.99524e-05
0.000163766
-0.000200084
0.000249294
-0.000219751
2.83277e-05
-0.000261633
4.36802e-06
-1.59383e-05
0.000297965
-0.000282561
-0.000250987
-0.000266673
3.07441e-05
0.000252141
-0.000236741
-1.54001e-05
1.2264e-05
0.000239877
-0.000279786
-1.73938e-05
0.000255697
2.23721e-05
0.000255557
-1.20422e-05
0.000299202
-0.000287049
-5.25778e-05
0.000247437
-0.000235621
0.000257601
-1.99361e-05
0.000112206
7.07667e-05
-0.00017868
0.000205055
3.03493e-05
0.000226759
-0.000258662
3.71393e-05
0.00027388
-0.000296179
1.88883e-05
0.000251273
-0.000239093
-1.31321e-05
0.000252225
-2.91201e-05
-0.000257265
2.56481e-05
0.000231617
-0.000228005
-2.92601e-05
0.000259765
-0.000233571
-2.61941e-05
0.000258721
-0.000270999
5.82349e-06
0.000286251
9.41374e-07
-0.000286886
0.000247085
-0.000239929
-1.85921e-05
0.000315086
-0.000308264
-1.04279e-05
0.000256982
-0.000111909
-0.000266897
2.56761e-05
0.000241221
-3.48881e-05
-0.000232009
-0.000266393
2.51161e-05
0.000241277
-1.72478e-05
-0.000272134
0.000288668
-3.45241e-05
-0.000231869
-0.000259317
2.9333e-05
-0.000266281
2.43881e-05
0.000241893
-0.000284293
-2.06457e-05
-0.00030097
2.19012e-05
0.000278323
-3.34041e-05
-0.000232877
-0.000152615
-0.000258133
2.94001e-05
0.000228733
0.000305472
-0.000305431
-0.000195805
0.000209049
-3.29281e-05
-0.000225205
0.000195521
-0.000274372
7.88315e-05
0.000285473
1.87954e-05
-0.000301953
1.76961e-05
0.000285823
-0.000280987
-4.6779e-06
-0.000257125
0.000231617
2.55081e-05
0.00017572
2.99213e-05
-0.000203552
-0.000266953
2.81681e-05
0.000238785
-0.000227361
-2.97641e-05
-3.67361e-05
-0.000230217
0.000274097
0.000296741
1.42419e-05
-0.000277092
-3.21176e-05
0.000309319
-0.000258679
-1.09074e-05
0.000297422
-0.000286807
1.16021e-05
-0.000294412
0.000282702
-0.000230609
-0.000299266
0.000282893
0.000263005
-2.0167e-05
-0.000280804
1.36081e-05
0.000178252
0.000237661
1.49225e-05
-0.000252494
-0.000185536
0.000150416
0.000236738
1.31517e-05
-0.00024989
-0.00025833
2.66093e-05
0.000231721
-1.09228e-05
0.000247661
5.74002e-06
0.000246877
-3.19817e-05
-0.000226348
0.000293069
-0.000281754
-1.13228e-05
0.000228024
-0.000226666
0.000285882
0.000237685
1.98521e-05
-0.000257537
-1.24236e-05
0.000250108
0.000246636
1.50389e-05
-0.000301495
1.13624e-05
0.00024448
2.18905e-05
3.07097e-05
-0.000192969
-0.000283465
-1.42395e-05
-0.000182869
0.000295177
-0.00014751
0.000181389
-3.23865e-05
2.84822e-05
-0.000193513
0.000164203
-0.000159141
0.000259149
-0.000239236
-1.99137e-05
0.000265237
-0.000282894
-0.000239072
0.000237907
-1.5334e-05
0.000294146
-0.000279462
0.000300138
-0.000288678
0.000242117
1.77241e-05
-0.000224975
0.00024443
-1.94545e-05
1.61001e-05
-0.000241075
-7.00003e-06
0.000260989
-0.000289757
1.57609e-06
0.000288187
-0.000174497
0.000160217
-1.74105e-05
-3.19053e-06
-0.000286647
-1.36507e-05
-0.000281036
4.28402e-06
-0.000317242
0.000139242
-0.000257762
2.38476e-05
0.000233917
0.000238197
1.32441e-05
-3.06066e-05
-0.000227154
-3.27899e-05
-0.000287365
1.71359e-05
-0.000227329
0.000210685
0.000254969
-0.000233465
-2.15041e-05
-0.000202222
0.00021988
-0.000179165
-7.48515e-06
0.000196105
0.000134515
0.000138456
3.10054e-06
0.000267439
0.000280476
-0.000300612
-1.36414e-07
0.0002462
-1.25498e-05
0.000291175
-0.000276538
-0.0002954
0.000283997
1.12919e-05
-0.000258301
0.000230077
2.82241e-05
-2.64041e-05
-0.000231897
0.00029784
-0.000298116
0.000267184
-1.16595e-05
0.000291756
-0.000281109
0.000286399
-6.95518e-07
-0.000256873
0.000256873
-0.000268258
0.000288766
-0.000142708
-6.59653e-05
-6.78276e-06
0.00029493
-0.000287511
-0.000297675
0.000290495
0.000291846
-0.000278891
0.000290403
-0.00030524
1.53817e-05
3.13611e-05
-0.000236603
0.000214234
1.9829e-05
-1.18966e-05
-0.000244166
0.000234753
-1.43913e-05
0.000298259
-0.000284085
0.000263481
-1.96001e-05
0.000254224
-0.000235464
-1.87601e-05
-2.45967e-05
-0.000274038
0.000297325
1.43697e-05
-0.000296981
0.000282659
-1.45881e-05
0.000233465
-0.000218877
0.000217634
-0.000295801
0.000284001
-1.60219e-05
0.000297721
-0.000281998
0.00025102
-2.21852e-05
0.000289536
-0.000267264
-0.000288043
0.000265886
1.07156e-05
0.000244749
-0.000255465
0.000301051
-0.00030454
3.71037e-06
1.72975e-05
1.55275e-05
0.000286983
-0.000301919
6.37555e-06
0.000279864
2.38058e-06
-0.000318887
-0.000288029
0.000303463
-0.000242481
0.000243657
8.45603e-06
-0.0002264
0.000242772
-0.000287001
0.000270669
0.000290204
-0.000156592
-7.9188e-05
0.000291692
1.07817e-05
3.17729e-05
-0.000185916
0.000154751
-0.000271223
0.000257293
-0.000219535
0.00024982
0.000243411
1.92865e-05
-0.000262697
0.000236019
2.31309e-05
-0.000301535
0.00028319
0.000305851
-1.43132e-05
0.000237945
-0.000257069
1.91241e-05
-0.000222494
0.000247459
0.000290877
1.41457e-05
-0.000153942
-1.45731e-05
0.000298262
-0.000283565
-0.00013769
-0.000266415
0.000159993
0.000106423
-0.000302583
0.00029383
8.20615e-06
-0.000258699
0.000241826
1.68729e-05
-0.000158412
0.00015588
-0.000299274
0.000286596
1.38391e-05
-0.000209887
0.00017633
-9.69084e-06
0.000253101
1.68159e-05
1.35075e-05
-0.000298525
0.000284427
-0.000297172
-5.40121e-07
0.000297338
-0.000249229
0.000220109
-0.000201153
-8.52603e-05
-0.000261045
0.000217225
0.000297783
-0.000284886
-0.000183044
1.70148e-05
1.06489e-05
0.000283335
-0.000293883
-8.80603e-05
0.000239233
-0.000284763
5.18434e-06
0.000282534
-0.000211759
-9.46583e-06
-0.000287336
-0.000154312
2.05297e-05
0.000303075
-0.000288954
-1.44642e-05
-0.000172283
-0.000293279
-0.000167663
-2.17753e-05
0.000243528
0.000285061
1.30451e-05
0.000252869
5.72306e-05
-0.000280873
-0.000247213
-0.000282171
-3.00754e-05
-0.000274105
0.000296644
-0.000265636
0.000287715
-0.000149689
-3.85099e-05
0.000188532
0.000197569
1.56521e-05
-0.000213221
-1.24726e-05
-0.000285794
0.000298119
1.83597e-05
7.80895e-06
-0.000289528
0.000280991
0.000253345
-1.71361e-05
-0.000236209
1.40209e-05
-0.000295657
0.00028368
2.03561e-05
0.000232989
0.000216385
-2.46121e-05
-0.000191773
1.5715e-05
0.00028253
-0.000298206
-0.000254719
0.00011495
-0.000295411
1.4222e-05
0.000281446
0.000230104
-5.44474e-05
-0.000232118
-1.90177e-05
0.000251136
0.000255837
-2.19801e-05
-0.000233857
-0.000307407
0.000105442
0.000234529
1.70521e-05
-0.000251581
0.000280091
1.67519e-05
0.000297307
-0.000281263
1.77221e-05
-0.000299489
0.000233512
1.84916e-05
-0.000252004
-1.81055e-05
-1.42775e-05
0.000298285
-0.000284077
-0.00028062
0.000297592
-0.000285831
0.000291004
-0.000303498
1.23925e-05
0.000249741
-1.62291e-05
1.56732e-05
0.000250041
-1.55121e-05
0.000298784
-0.000283003
3.95922e-05