/*--------------------------------*- C++ -*----------------------------------*\
  =========                 |
  \\      /  F ield         | OpenFOAM: The Open Source CFD Toolbox
   \\    /   O peration     | Website:  https://openfoam.org
    \\  /    A nd           | Version:  12
     \\/     M anipulation  |
\*---------------------------------------------------------------------------*/
FoamFile
{
    format      ascii;
    class       volScalarField;
    location    "29.1";
    object      p;
}
// * * * * * * * * * * * * * * * * * * * * * * * * * * * * * * * * * * * * * //

dimensions      [1 -1 -2 0 0 0 0];

internalField   nonuniform List<scalar> 
9801
(
0.706858
0.69813
0.685851
0.669393
0.654074
0.651147
0.655034
0.69031
0.772769
0.834725
0.858948
0.868657
0.873336
0.860277
0.790709
0.699913
0.653411
0.6424
0.641566
0.647085
0.693699
0.828649
0.935064
0.967547
0.978128
0.978341
0.932041
0.830976
0.759492
0.736538
0.733969
0.736796
0.74625
0.762778
0.796239
0.877717
0.960256
0.992787
1.00325
1.00752
0.991612
0.940739
0.887137
0.861126
0.85801
0.862646
0.870688
0.880669
0.89328
0.919928
0.972604
1.01765
1.03872
1.04995
1.05793
1.06205
1.04412
1.00615
0.988612
0.989363
0.995311
1.008
1.02807
1.04788
1.06908
1.09173
1.1118
1.12771
1.14211
1.14904
1.15678
1.1676
1.17964
1.20257
1.22923
1.24855
1.26722
1.28699
1.30526
1.31945
1.29525
1.26816
1.27246
1.29046
1.32037
1.39263
1.46993
1.51638
1.54728
1.57503
1.58625
1.57142
1.53852
1.50972
1.50273
1.54807
1.72372
5.31273
39.0994
0.688513
0.672731
0.666813
0.665332
0.667272
0.670412
0.694578
0.757199
0.80923
0.839739
0.856526
0.863547
0.849161
0.797306
0.745197
0.707826
0.679484
0.668193
0.673622
0.707725
0.771814
0.850652
0.91829
0.947238
0.950291
0.931128
0.889471
0.831869
0.782562
0.761285
0.760685
0.767165
0.778971
0.795788
0.825316
0.881949
0.945742
0.976824
0.985538
0.981304
0.967569
0.949021
0.920269
0.897723
0.889022
0.888698
0.892326
0.897027
0.904548
0.927244
0.980009
1.02392
1.0442
1.05493
1.0623
1.06475
1.04343
1.01314
1.00344
1.00496
1.00974
1.01982
1.0458
1.07328
1.09538
1.11469
1.13101
1.14368
1.15248
1.14793
1.14163
1.14385
1.1518
1.17466
1.21087
1.23893
1.26015
1.27801
1.29347
1.30697
1.29636
1.26935
1.26716
1.28168
1.30411
1.35794
1.43672
1.4933
1.53123
1.56471
1.592
1.59101
1.56653
1.541
1.53164
1.55767
1.57785
4.75306
39.4956
0.657112
0.652258
0.658739
0.665302
0.674861
0.705979
0.769987
0.816871
0.832919
0.839966
0.842779
0.82171
0.772657
0.73499
0.721349
0.717609
0.714835
0.719758
0.751731
0.790914
0.817294
0.847075
0.873696
0.887429
0.888294
0.880593
0.870386
0.850014
0.818023
0.797211
0.793002
0.796717
0.805343
0.817831
0.841266
0.880522
0.917248
0.941776
0.954511
0.96061
0.964523
0.964781
0.957641
0.938885
0.917456
0.906289
0.902099
0.903166
0.907271
0.934072
0.98983
1.0307
1.05038
1.06144
1.07034
1.07104
1.0407
1.01311
1.006
1.00811
1.01412
1.02599
1.05975
1.09724
1.12254
1.139
1.15104
1.1609
1.15501
1.12926
1.11718
1.12149
1.13315
1.15939
1.20316
1.23656
1.25764
1.27436
1.28917
1.30326
1.30247
1.2738
1.2548
1.25817
1.27772
1.31005
1.38598
1.4688
1.52254
1.56053
1.59526
1.60984
1.59944
1.58951
1.58744
1.60985
1.59172
4.44593
39.6688
0.642356
0.63766
0.650796
0.669086
0.701188
0.75386
0.809865
0.843126
0.85076
0.841116
0.806787
0.765234
0.732138
0.715594
0.713431
0.718716
0.747338
0.802449
0.836396
0.849173
0.85274
0.840658
0.826208
0.828019
0.844434
0.85632
0.861785
0.865439
0.849449
0.83166
0.828611
0.831632
0.836283
0.842923
0.855242
0.875056
0.896356
0.916733
0.938095
0.958327
0.97305
0.982457
0.983427
0.959817
0.928364
0.911121
0.908201
0.911177
0.922988
0.963541
1.01814
1.04962
1.06772
1.07917
1.08413
1.06175
1.02278
1.00599
1.00657
1.01281
1.02135
1.03923
1.08383
1.12922
1.15121
1.16234
1.16871
1.16683
1.14611
1.11562
1.10391
1.1088
1.12023
1.14106
1.18551
1.22909
1.25572
1.27494
1.29177
1.3074
1.3151
1.28388
1.24266
1.23169
1.24804
1.27625
1.32673
1.40959
1.48267
1.53391
1.577
1.61791
1.63101
1.62363
1.60448
1.61259
1.56434
4.26124
39.836
0.647651
0.642126
0.652838
0.680602
0.720988
0.763553
0.807646
0.825054
0.819362
0.792993
0.766774
0.744854
0.728338
0.723566
0.72824
0.757214
0.812782
0.844976
0.856421
0.861417
0.841964
0.807514
0.791845
0.793761
0.820494
0.850634
0.865774
0.874255
0.876604
0.862054
0.852643
0.852047
0.854609
0.85782
0.861499
0.869838
0.887207
0.909719
0.936305
0.958923
0.973957
0.983307
0.983197
0.952544
0.923569
0.91714
0.920716
0.930149
0.959229
1.01246
1.04931
1.06915
1.08057
1.08491
1.06546
1.02718
1.00516
1.00346
1.0103
1.0195
1.03319
1.06632
1.12151
1.15532
1.16903
1.1756
1.17498
1.16834
1.14943
1.11953
1.10127
1.10063
1.10908
1.12328
1.15918
1.21873
1.26111
1.28418
1.29938
1.31144
1.31704
1.28968
1.24593
1.22379
1.22594
1.24886
1.28258
1.34347
1.42765
1.50301
1.56412
1.61915
1.66732
1.67522
1.65319
1.63274
1.53801
4.13516
39.9056
0.678863
0.678671
0.696034
0.71337
0.724119
0.738604
0.751822
0.761572
0.7681
0.770643
0.76794
0.753009
0.74418
0.748517
0.777993
0.823895
0.847258
0.855294
0.859757
0.833828
0.793995
0.774831
0.771752
0.776993
0.80697
0.850336
0.875894
0.889367
0.898837
0.894461
0.874659
0.864892
0.862416
0.86426
0.868532
0.874989
0.890718
0.91715
0.942894
0.958567
0.966183
0.967071
0.954763
0.936632
0.928842
0.931196
0.938121
0.964167
1.01123
1.04766
1.0686
1.07797
1.07688
1.05988
1.0323
1.00782
1.00002
1.00627
1.0162
1.02904
1.05122
1.09671
1.14385
1.16568
1.17399
1.17384
1.16949
1.16608
1.15687
1.12916
1.0997
1.09106
1.09633
1.10859
1.1319
1.19486
1.26387
1.3003
1.31782
1.32901
1.3304
1.3078
1.27094
1.24577
1.23717
1.24073
1.25993
1.29167
1.34859
1.42909
1.51051
1.58333
1.64497
1.68286
1.67592
1.64391
1.52406
4.04916
40.0927
0.733023
0.717131
0.718767
0.72256
0.723045
0.705621
0.688443
0.688634
0.715266
0.754946
0.772265
0.778849
0.790007
0.817709
0.84349
0.855104
0.860376
0.8556
0.821784
0.781105
0.762653
0.760529
0.764399
0.772401
0.799302
0.852652
0.893521
0.914326
0.923951
0.925134
0.900261
0.877487
0.87038
0.87039
0.874588
0.880991
0.893582
0.915328
0.93458
0.944632
0.946591
0.942086
0.935189
0.933436
0.936507
0.945811
0.971721
1.00644
1.03572
1.05611
1.06396
1.06038
1.04602
1.03157
1.01968
1.00887
1.00194
1.00581
1.01902
1.04167
1.06787
1.10208
1.13859
1.1561
1.16191
1.16165
1.16424
1.16811
1.16664
1.14798
1.11509
1.09208
1.08843
1.0963
1.10997
1.15456
1.24639
1.30827
1.33267
1.34829
1.35796
1.344
1.31185
1.2808
1.26052
1.25243
1.25413
1.26694
1.29125
1.34636
1.43899
1.52661
1.5947
1.6459
1.65372
1.63181
1.53933
4.0092
40.2799
0.794939
0.762238
0.737492
0.719184
0.694395
0.669908
0.659121
0.660106
0.671458
0.709955
0.764036
0.81604
0.869249
0.895303
0.898953
0.88668
0.862971
0.823426
0.771141
0.744793
0.740954
0.745016
0.753821
0.765857
0.792243
0.857333
0.916209
0.937942
0.94691
0.950555
0.931281
0.897903
0.883819
0.882495
0.885132
0.889238
0.891876
0.894395
0.9026
0.912231
0.91981
0.926519
0.934159
0.942332
0.962247
0.986847
1.00587
1.02129
1.03449
1.0392
1.03432
1.02281
1.01734
1.01787
1.01849
1.01621
1.01923
1.02631
1.03685
1.04663
1.05827
1.07862
1.10919
1.13522
1.14923
1.1586
1.16906
1.17881
1.18621
1.17357
1.1368
1.10464
1.09098
1.09273
1.10172
1.12354
1.20669
1.30181
1.34825
1.37303
1.39075
1.38996
1.36892
1.33422
1.30005
1.27251
1.25278
1.24711
1.25866
1.29163
1.37588
1.46889
1.53575
1.58198
1.5991
1.60101
1.56465
3.9956
40.5074
0.844185
0.827002
0.761614
0.711004
0.670012
0.649187
0.645086
0.647014
0.652162
0.666904
0.724112
0.847784
0.918352
0.937016
0.941933
0.929623
0.878181
0.797196
0.749424
0.735488
0.735258
0.738459
0.745652
0.756936
0.783695
0.850809
0.924086
0.952207
0.961284
0.964956
0.956443
0.928434
0.903649
0.896274
0.893525
0.886708
0.877577
0.873294
0.876165
0.886273
0.901455
0.918169
0.939194
0.973956
0.995912
1.00653
1.01136
1.01517
1.012
1.00526
0.997916
0.996513
1.00242
1.01169
1.0214
1.03082
1.03313
1.03463
1.03815
1.04082
1.04234
1.04993
1.06828
1.1073
1.14534
1.16939
1.18505
1.19571
1.20476
1.19736
1.15227
1.1066
1.09016
1.09439
1.10588
1.12705
1.18298
1.28388
1.3561
1.39047
1.40983
1.41549
1.40561
1.38422
1.34485
1.29659
1.25808
1.24333
1.24856
1.27196
1.34036
1.43235
1.49596
1.53336
1.5464
1.55881
1.56089
4.00916
40.6869
0.859565
0.86501
0.802596
0.716445
0.665268
0.649748
0.648723
0.651293
0.65746
0.675953
0.744674
0.854497
0.921006
0.941242
0.943503
0.914918
0.84731
0.788824
0.75575
0.742379
0.741978
0.746
0.755071
0.780707
0.82284
0.86338
0.904373
0.941441
0.960286
0.967733
0.967504
0.955282
0.930689
0.904504
0.883223
0.869345
0.864486
0.86587
0.869932
0.878522
0.89454
0.927974
0.96977
0.99115
1.00088
1.00597
0.999704
0.98333
0.975631
0.978552
0.986759
0.99571
1.00713
1.0216
1.03516
1.04438
1.04664
1.04081
1.03194
1.02563
1.02554
1.03366
1.0469
1.07729
1.13641
1.18058
1.19874
1.20818
1.21234
1.20221
1.15457
1.10684
1.09553
1.10337
1.12396
1.16995
1.21987
1.26442
1.31974
1.36668
1.39566
1.41326
1.41585
1.40238
1.37538
1.33043
1.28657
1.26422
1.26468
1.2911
1.34461
1.41002
1.46314
1.49062
1.50264
1.50906
1.52294
4.05046
40.7667
0.860103
0.860127
0.792547
0.722847
0.679331
0.662993
0.662116
0.667675
0.690844
0.732895
0.778217
0.829661
0.87814
0.89627
0.890212
0.866668
0.835751
0.802732
0.776603
0.765383
0.764945
0.771737
0.790094
0.82431
0.852163
0.86643
0.879459
0.901736
0.929057
0.944928
0.949267
0.944267
0.9259
0.89775
0.875812
0.86897
0.869484
0.872777
0.878764
0.892183
0.925826
0.962504
0.981548
0.990547
0.994306
0.977793
0.954658
0.946637
0.950517
0.96335
0.986259
1.00903
1.02724
1.0393
1.0494
1.05612
1.04909
1.02908
1.01943
1.0196
1.02505
1.03147
1.04337
1.0633
1.10764
1.16662
1.1947
1.20202
1.19739
1.1805
1.15143
1.12487
1.11845
1.13608
1.17997
1.22339
1.24709
1.25928
1.27037
1.29434
1.32787
1.35621
1.37448
1.37871
1.36979
1.35647
1.34121
1.33438
1.34294
1.35846
1.3724
1.39341
1.42404
1.44465
1.45189
1.44843
1.46101
4.12959
40.8036
0.833716
0.822814
0.780062
0.741989
0.711969
0.698858
0.701105
0.721479
0.752833
0.77551
0.790946
0.801969
0.809197
0.818045
0.826027
0.830832
0.832047
0.822917
0.809864
0.802062
0.803007
0.812736
0.830571
0.851002
0.86564
0.872511
0.876902
0.882727
0.88643
0.888815
0.896015
0.903637
0.904065
0.897795
0.888552
0.880676
0.880636
0.887947
0.907729
0.938752
0.966861
0.982768
0.990433
0.991057
0.967303
0.935163
0.922534
0.925509
0.934745
0.955289
0.992793
1.02704
1.04455
1.05422
1.0568
1.0469
1.03679
1.02921
1.02579
1.02954
1.03965
1.0515
1.06174
1.0671
1.0768
1.10548
1.1472
1.16515
1.16621
1.15777
1.15632
1.16277
1.18212
1.21486
1.2428
1.2599
1.26479
1.2502
1.23173
1.22624
1.23569
1.26223
1.29962
1.33293
1.35652
1.37925
1.40812
1.43015
1.43081
1.41199
1.39279
1.38612
1.38799
1.39196
1.39017
1.37653
1.39154
4.32064
40.864
0.798212
0.782243
0.766841
0.753445
0.745033
0.745551
0.760054
0.779164
0.787932
0.790965
0.789003
0.771409
0.759592
0.762362
0.77785
0.800254
0.818921
0.829923
0.834055
0.839416
0.847105
0.854634
0.863208
0.869453
0.871481
0.875298
0.878287
0.869909
0.853417
0.844584
0.844136
0.852155
0.867857
0.882596
0.889551
0.89422
0.908302
0.936466
0.959733
0.974032
0.985357
0.991545
0.986297
0.968943
0.942241
0.920446
0.913829
0.916958
0.925933
0.948697
0.9888
1.02885
1.05084
1.05733
1.04637
1.03742
1.03758
1.04438
1.05711
1.06932
1.0769
1.07688
1.06912
1.05651
1.04171
1.03835
1.06213
1.10865
1.13906
1.15579
1.17973
1.22363
1.26505
1.282
1.28463
1.27868
1.25762
1.22357
1.19171
1.17129
1.17042
1.184
1.21773
1.27211
1.33334
1.40211
1.45545
1.47937
1.47726
1.44735
1.41309
1.38874
1.37094
1.34793
1.33212
1.32599
1.34918
4.52661
40.886
0.765945
0.761754
0.766182
0.767978
0.776418
0.795355
0.810342
0.815684
0.813908
0.79813
0.766084
0.747675
0.745233
0.75171
0.765302
0.782636
0.800787
0.823563
0.849831
0.863616
0.868625
0.873043
0.882581
0.890063
0.892355
0.890293
0.879633
0.859987
0.845397
0.836606
0.830632
0.829684
0.834439
0.848565
0.87176
0.909785
0.954725
0.979694
0.991557
0.997525
0.996521
0.980934
0.968748
0.959201
0.94568
0.929071
0.922847
0.929939
0.95148
0.967566
0.975737
0.989826
1.01108
1.02841
1.03835
1.04268
1.05542
1.0882
1.11548
1.12319
1.11337
1.09162
1.06041
1.02582
1.00227
0.995367
1.00287
1.03733
1.09553
1.15031
1.2159
1.2872
1.32435
1.33682
1.32594
1.29364
1.25041
1.2061
1.16499
1.13927
1.13369
1.14232
1.16738
1.22534
1.31606
1.39591
1.43954
1.4646
1.46914
1.45475
1.42966
1.39915
1.36393
1.32146
1.29274
1.28353
1.31778
4.72318
40.9667
0.742334
0.755107
0.77558
0.8022
0.821567
0.82734
0.827013
0.821503
0.80094
0.769759
0.75259
0.750209
0.752496
0.756992
0.770132
0.794175
0.823525
0.84704
0.859728
0.866862
0.872273
0.876869
0.882337
0.885589
0.886801
0.88506
0.876575
0.866479
0.856403
0.843164
0.833713
0.832102
0.835514
0.845626
0.884322
0.933671
0.964351
0.98332
0.995192
0.99708
0.984981
0.976257
0.974393
0.970756
0.963196
0.956859
0.9562
0.962987
0.971057
0.972886
0.958318
0.942909
0.948516
0.98329
1.02537
1.06158
1.10835
1.15089
1.16948
1.17231
1.15002
1.09796
1.0413
0.999288
0.978008
0.973649
0.979018
0.992342
1.03133
1.12051
1.23216
1.30142
1.33078
1.34495
1.34667
1.31795
1.26013
1.20231
1.15714
1.13035
1.12185
1.1267
1.14628
1.19841
1.28494
1.36278
1.40721
1.43179
1.44455
1.44322
1.43034
1.4098
1.37307
1.32297
1.28701
1.26365
1.28674
4.78565
41.124
0.723785
0.760925
0.81312
0.847862
0.858127
0.856496
0.83678
0.803885
0.765662
0.743827
0.740588
0.744244
0.754435
0.772102
0.802587
0.8334
0.850455
0.858311
0.862105
0.861568
0.861358
0.862683
0.866334
0.874479
0.881975
0.886323
0.881437
0.870797
0.866631
0.864819
0.855711
0.849603
0.855428
0.885033
0.920838
0.939172
0.948254
0.949936
0.950132
0.962679
0.979824
0.988344
0.990731
0.99414
0.999725
1.0044
1.0012
0.993139
0.983358
0.958055
0.928335
0.916136
0.919199
0.936168
0.993862
1.08665
1.16725
1.20432
1.21637
1.21597
1.19267
1.12313
1.04239
0.99632
0.976713
0.971912
0.974801
0.981725
0.996007
1.06173
1.19769
1.28507
1.31426
1.3236
1.31835
1.29908
1.27205
1.22803
1.17519
1.13856
1.12496
1.12793
1.15291
1.1947
1.2475
1.32068
1.374
1.40184
1.4154
1.42409
1.42028
1.41203
1.39173
1.34756
1.30958
1.28074
1.28296
4.73225
41.304
0.708252
0.770531
0.843218
0.867514
0.874971
0.876398
0.854459
0.791277
0.747593
0.73855
0.740023
0.744302
0.760678
0.80663
0.845953
0.862051
0.869283
0.871387
0.86288
0.850268
0.845587
0.847007
0.85329
0.864251
0.876211
0.884127
0.883294
0.873787
0.869466
0.870552
0.874668
0.883824
0.91137
0.934183
0.942731
0.941839
0.91961
0.899083
0.899986
0.925908
0.971788
0.998933
1.01715
1.03499
1.04798
1.0508
1.03917
1.01223
0.97246
0.932863
0.911411
0.907899
0.911605
0.919124
0.956833
1.0912
1.19542
1.22396
1.23154
1.22481
1.18684
1.12683
1.06487
1.01442
0.9879
0.980848
0.985315
0.994487
1.0237
1.07845
1.1351
1.20472
1.26066
1.28666
1.29723
1.29798
1.28493
1.25662
1.20997
1.16659
1.14545
1.14359
1.1618
1.19179
1.22108
1.27357
1.33496
1.36861
1.38649
1.40056
1.40796
1.40451
1.39587
1.36538
1.32887
1.28936
1.26213
4.64242
41.5242
0.715646
0.793616
0.844207
0.867574
0.874211
0.864541
0.822361
0.774998
0.751283
0.744822
0.747492
0.763143
0.801709
0.840789
0.860187
0.869318
0.874265
0.866821
0.847451
0.838414
0.838734
0.846042
0.856544
0.864131
0.871442
0.878621
0.87856
0.872865
0.87087
0.874009
0.893442
0.940879
0.973588
0.981264
0.97015
0.930629
0.886022
0.869054
0.870464
0.883673
0.934362
1.00017
1.04651
1.07413
1.08606
1.08834
1.07465
1.03111
0.969389
0.930718
0.916287
0.91524
0.922677
0.948584
1.00488
1.09191
1.1788
1.21755
1.22444
1.2096
1.18179
1.14238
1.09654
1.05314
1.02192
1.01044
1.01351
1.0273
1.06437
1.09527
1.10877
1.12613
1.17829
1.24409
1.28065
1.29637
1.28996
1.26354
1.23323
1.19978
1.17465
1.16459
1.17268
1.19476
1.21375
1.24042
1.29369
1.33668
1.35721
1.36995
1.37977
1.37573
1.37077
1.35994
1.33987
1.30545
1.2695
4.52929
41.7814
0.751478
0.794642
0.822064
0.834805
0.830508
0.812207
0.794451
0.780252
0.770889
0.772891
0.787816
0.809081
0.826678
0.845222
0.860964
0.867505
0.858371
0.83948
0.833473
0.836162
0.842324
0.852527
0.863655
0.87112
0.873225
0.867159
0.861664
0.863787
0.869698
0.884872
0.9376
0.992208
1.01135
1.01538
0.99174
0.920299
0.873581
0.864688
0.866945
0.87452
0.897225
0.979654
1.05805
1.08481
1.09469
1.09311
1.06545
1.02275
0.981575
0.94869
0.936099
0.941982
0.968753
1.01005
1.04439
1.07471
1.11602
1.15623
1.17527
1.17944
1.17507
1.15409
1.12292
1.08986
1.06214
1.05016
1.05457
1.07703
1.10513
1.1183
1.11903
1.11613
1.12373
1.1721
1.23097
1.26371
1.27495
1.25697
1.23641
1.22252
1.21052
1.20443
1.21235
1.22069
1.22337
1.23064
1.25562
1.29019
1.31081
1.32055
1.32874
1.32928
1.33454
1.34182
1.34243
1.32576
1.30215
4.40974
42.0429
0.773382
0.787644
0.787358
0.77815
0.773806
0.776774
0.783283
0.790591
0.802078
0.821695
0.835579
0.84206
0.844487
0.84518
0.845937
0.836157
0.821677
0.818244
0.821884
0.83118
0.848302
0.865632
0.874662
0.874813
0.860521
0.84454
0.842804
0.851394
0.873287
0.929755
0.992396
1.01794
1.02547
1.02197
0.971686
0.905391
0.875721
0.86918
0.872105
0.883277
0.911918
0.960733
1.02894
1.07004
1.08044
1.06482
1.03914
1.01981
1.00341
0.986933
0.982031
0.995335
1.02004
1.04063
1.05001
1.05793
1.06179
1.07406
1.1037
1.13247
1.14632
1.14782
1.12908
1.11096
1.10651
1.11643
1.13714
1.15243
1.15756
1.14817
1.12879
1.11735
1.11581
1.12359
1.16245
1.20788
1.23601
1.2405
1.2354
1.2402
1.24679
1.25991
1.2705
1.2633
1.24672
1.23687
1.23027
1.22679
1.24155
1.25733
1.26846
1.28817
1.31309
1.32807
1.34215
1.34097
1.33445
4.30292
42.2272
0.775649
0.758425
0.745135
0.739189
0.741872
0.749108
0.762039
0.790554
0.831072
0.846875
0.851221
0.853127
0.853805
0.847336
0.825595
0.809659
0.809254
0.814619
0.822415
0.837605
0.86257
0.877683
0.880749
0.863775
0.833492
0.823987
0.82847
0.844229
0.904407
0.995552
1.03534
1.04428
1.03981
1.00348
0.938085
0.894564
0.879442
0.876287
0.882202
0.906918
0.92991
0.945841
0.973078
1.01101
1.03009
1.02929
1.02905
1.03131
1.03054
1.03314
1.04085
1.04769
1.05091
1.05278
1.04929
1.03429
1.02614
1.02672
1.03479
1.05587
1.08847
1.11164
1.1215
1.12749
1.15646
1.19306
1.20883
1.21181
1.19891
1.16688
1.13157
1.10976
1.10009
1.10055
1.1128
1.14822
1.19244
1.22573
1.24703
1.27227
1.30128
1.31979
1.31922
1.30237
1.27384
1.23942
1.1992
1.17661
1.17968
1.19973
1.22589
1.26666
1.30766
1.32769
1.34306
1.34713
1.35052
4.22111
42.3346
0.755052
0.728338
0.727083
0.730385
0.740218
0.75326
0.781094
0.818907
0.83787
0.844992
0.846128
0.835502
0.821397
0.813347
0.81003
0.810302
0.814104
0.821484
0.840084
0.865156
0.880786
0.885671
0.876077
0.840076
0.814052
0.812416
0.818035
0.835577
0.93277
1.02214
1.05002
1.05843
1.04712
0.982642
0.924996
0.897571
0.885982
0.88638
0.902825
0.924791
0.935993
0.941799
0.946826
0.948301
0.956805
0.984302
1.01451
1.03471
1.05475
1.08014
1.09228
1.08767
1.07435
1.05556
1.02934
1.01174
1.00499
1.0013
0.996447
0.998482
1.01518
1.05172
1.10198
1.15955
1.21219
1.24436
1.25802
1.25774
1.23407
1.19039
1.14061
1.10377
1.08739
1.08505
1.09607
1.11671
1.15973
1.22004
1.2736
1.31164
1.33631
1.34685
1.34785
1.33129
1.29988
1.24328
1.18183
1.15605
1.1493
1.15778
1.19639
1.26456
1.31853
1.33606
1.33821
1.33759
1.34594
4.16094
42.3568
0.735959
0.723327
0.728128
0.738166
0.759736
0.794285
0.820496
0.830222
0.829788
0.815658
0.792866
0.781068
0.781797
0.792672
0.809778
0.827
0.844466
0.865471
0.882283
0.891068
0.893737
0.884239
0.853978
0.821553
0.806321
0.805618
0.814678
0.864879
0.946187
1.01339
1.04372
1.04639
1.00975
0.962074
0.930225
0.909816
0.902578
0.906184
0.920679
0.931978
0.935492
0.937691
0.933349
0.916595
0.913279
0.929152
0.969749
1.02168
1.07456
1.11676
1.133
1.12816
1.09931
1.05724
1.0219
1.00152
0.991901
0.986442
0.981195
0.979648
0.985228
1.00106
1.06056
1.15594
1.21689
1.24733
1.26284
1.26735
1.2569
1.22499
1.16467
1.11221
1.09159
1.09311
1.1093
1.12947
1.15696
1.20857
1.26679
1.3013
1.32143
1.33508
1.34128
1.33053
1.29626
1.23742
1.18763
1.16417
1.16126
1.17127
1.21226
1.28957
1.32663
1.32672
1.31966
1.31106
1.32199
4.1861
42.3465
0.729083
0.730589
0.74248
0.781235
0.821831
0.844248
0.850735
0.841123
0.801304
0.759803
0.742213
0.740923
0.747172
0.766843
0.805864
0.851116
0.894247
0.91714
0.924513
0.920367
0.900173
0.86969
0.836486
0.817615
0.813192
0.819656
0.852788
0.889852
0.924736
0.966332
0.991188
0.991228
0.978225
0.964954
0.947857
0.933229
0.925952
0.926674
0.93341
0.936865
0.937978
0.938399
0.924997
0.902009
0.894543
0.900705
0.920607
0.981463
1.07365
1.12436
1.14095
1.14679
1.13576
1.08209
1.02333
0.996743
0.987403
0.984143
0.982396
0.983531
0.994379
1.0303
1.06742
1.10275
1.16064
1.20133
1.2174
1.21715
1.20745
1.19532
1.17381
1.14353
1.12441
1.12635
1.14674
1.16992
1.18337
1.19332
1.2206
1.25723
1.28552
1.3005
1.30373
1.28839
1.25896
1.23637
1.22171
1.22678
1.24021
1.25198
1.27426
1.30457
1.31045
1.29824
1.26995
1.24189
1.27729
4.39226
42.4201
0.721264
0.749299
0.808134
0.853828
0.871582
0.876423
0.868257
0.822543
0.759346
0.726711
0.718939
0.71908
0.722665
0.737224
0.780047
0.867417
0.924815
0.941835
0.948156
0.943107
0.914909
0.867054
0.836756
0.824468
0.827754
0.857711
0.886232
0.895049
0.900083
0.906272
0.91761
0.936412
0.955729
0.967135
0.968958
0.962491
0.954127
0.951427
0.951685
0.950684
0.950121
0.946897
0.922931
0.89611
0.886716
0.889818
0.899621
0.933336
1.03702
1.11306
1.13092
1.13293
1.11776
1.08026
1.03922
1.01092
0.998838
0.996951
1.0026
1.01805
1.04444
1.06228
1.0654
1.06676
1.06948
1.10183
1.14675
1.17297
1.18507
1.1895
1.18719
1.18178
1.18053
1.1846
1.18681
1.18808
1.18771
1.18282
1.17075
1.18134
1.21429
1.23838
1.24844
1.24746
1.24207
1.25188
1.28449
1.31302
1.32123
1.31529
1.30113
1.27791
1.25568
1.22852
1.20406
1.18643
1.25061
4.69668
42.537
0.710215
0.79451
0.877539
0.901235
0.908554
0.902902
0.860502
0.784516
0.737197
0.720143
0.714541
0.713732
0.723392
0.757317
0.817823
0.877456
0.920971
0.941485
0.942887
0.920694
0.893197
0.874877
0.857609
0.854545
0.870866
0.890537
0.896568
0.896006
0.878376
0.860875
0.860621
0.880369
0.918878
0.954438
0.972357
0.980572
0.989341
0.987765
0.979844
0.9739
0.970013
0.958494
0.922933
0.896291
0.891123
0.8992
0.910848
0.932351
0.989251
1.06216
1.0968
1.10477
1.09836
1.07949
1.06132
1.04861
1.04229
1.0461
1.06094
1.0768
1.08268
1.07419
1.04699
1.02247
1.01411
1.0221
1.06892
1.12886
1.16432
1.18263
1.2
1.22106
1.23462
1.22665
1.20688
1.18931
1.17455
1.14653
1.12289
1.12251
1.14293
1.17577
1.20066
1.21759
1.24589
1.29436
1.331
1.35175
1.35798
1.35629
1.33068
1.26999
1.20046
1.1581
1.15052
1.16916
1.26955
5.00762
42.563
0.720434
0.842407
0.898626
0.912311
0.918905
0.903592
0.825717
0.756363
0.728816
0.721522
0.720448
0.726645
0.76712
0.823833
0.849962
0.860263
0.876527
0.887356
0.888951
0.889498
0.892628
0.895201
0.901682
0.913913
0.918707
0.913464
0.901442
0.876242
0.853365
0.842022
0.841059
0.847139
0.866397
0.907288
0.952539
0.986184
1.00811
1.01775
1.01611
1.00576
0.994107
0.973068
0.933703
0.90883
0.908023
0.917446
0.929832
0.946652
0.967878
0.995216
1.02699
1.05021
1.06356
1.07057
1.07695
1.0904
1.10756
1.12593
1.13565
1.13178
1.10116
1.05125
1.0132
0.994581
0.990713
0.994497
1.01587
1.06688
1.12533
1.17451
1.21993
1.25204
1.26382
1.25108
1.22143
1.19482
1.16144
1.11692
1.09104
1.08518
1.09443
1.1163
1.14781
1.19352
1.26257
1.3161
1.34638
1.35941
1.36559
1.36842
1.35623
1.28489
1.19492
1.13244
1.11633
1.14732
1.26994
5.12171
42.6078
0.763662
0.857639
0.896432
0.910805
0.908229
0.855185
0.783721
0.744231
0.730389
0.727644
0.731544
0.773264
0.838643
0.863088
0.866485
0.856604
0.825236
0.815739
0.834357
0.87035
0.902854
0.936442
0.964175
0.972674
0.964024
0.932921
0.891192
0.858835
0.84337
0.839759
0.841887
0.845127
0.850919
0.863603
0.897577
0.955278
1.00376
1.03085
1.04022
1.03749
1.02994
1.01341
0.974424
0.94475
0.939421
0.944704
0.95126
0.958438
0.964804
0.965595
0.964949
0.977332
1.00871
1.05093
1.09089
1.13313
1.17599
1.19665
1.20161
1.18232
1.11799
1.04609
1.0051
0.99056
0.987935
0.994779
1.00469
1.02147
1.07206
1.15203
1.21626
1.2458
1.25516
1.25499
1.23403
1.19601
1.15679
1.11255
1.08392
1.07343
1.07457
1.08505
1.10295
1.15574
1.23936
1.29779
1.32807
1.33861
1.34283
1.348
1.34137
1.299
1.21975
1.15626
1.12852
1.12718
1.2141
5.10539
42.6422
0.799086
0.847115
0.870035
0.873457
0.843387
0.801598
0.770661
0.748949
0.74013
0.74374
0.779666
0.8494
0.882335
0.887792
0.879643
0.830139
0.78783
0.780361
0.787723
0.826225
0.908972
0.982036
1.01393
1.02239
1.01463
0.972006
0.898144
0.856582
0.845207
0.844872
0.849749
0.857545
0.865896
0.868599
0.871584
0.890246
0.953536
1.0137
1.04119
1.05748
1.06578
1.06664
1.04253
0.998424
0.973818
0.96642
0.964377
0.963693
0.961974
0.952633
0.935696
0.93226
0.943548
0.98404
1.06799
1.16288
1.22242
1.24218
1.24732
1.21562
1.14156
1.06711
1.02474
1.00618
1.00167
1.00988
1.02856
1.04631
1.06131
1.09788
1.17182
1.21562
1.22412
1.22035
1.21648
1.20716
1.17753
1.12927
1.09805
1.08937
1.09446
1.10586
1.12395
1.15615
1.19104
1.23402
1.26955
1.29002
1.30447
1.32052
1.3282
1.30615
1.25395
1.19194
1.14587
1.12125
1.16123
5.01133
42.8121
0.812648
0.822121
0.823921
0.806681
0.787196
0.779355
0.777761
0.774556
0.775023
0.798135
0.851671
0.883733
0.89221
0.890962
0.855093
0.805956
0.78391
0.780944
0.78461
0.805876
0.902954
1.00082
1.02801
1.03437
1.01814
0.958141
0.904376
0.874343
0.863149
0.865024
0.87351
0.880131
0.878055
0.869603
0.865391
0.86663
0.884271
0.95648
1.02878
1.06649
1.09065
1.10223
1.10175
1.07023
1.0236
0.993049
0.977157
0.970386
0.967419
0.957578
0.934494
0.918342
0.917498
0.927011
0.99987
1.15652
1.2323
1.25006
1.24783
1.19773
1.13213
1.09409
1.06669
1.04839
1.04354
1.0524
1.05923
1.06278
1.06426
1.06438
1.09216
1.15269
1.18298
1.19555
1.20891
1.21574
1.199
1.16484
1.14169
1.1326
1.13422
1.13892
1.14301
1.14452
1.14274
1.15809
1.21462
1.25993
1.28343
1.30196
1.31207
1.30156
1.27678
1.22891
1.177
1.12391
1.11191
4.82511
42.9188
0.819261
0.804234
0.769642
0.755109
0.758058
0.769831
0.782187
0.798402
0.835212
0.875362
0.891848
0.894696
0.887435
0.85397
0.813512
0.792697
0.788049
0.79067
0.809168
0.85822
0.921439
0.982701
1.01548
1.01589
0.978516
0.943938
0.920903
0.90557
0.899161
0.900044
0.901231
0.897213
0.882997
0.867856
0.85993
0.860791
0.866496
0.891867
0.984998
1.07229
1.10647
1.11865
1.12194
1.11327
1.07893
1.03838
1.01145
0.995583
0.982639
0.963645
0.937803
0.922006
0.919374
0.924925
0.971708
1.09308
1.18879
1.21968
1.21591
1.17006
1.12974
1.11179
1.10237
1.09675
1.10086
1.10206
1.08921
1.07496
1.05882
1.04243
1.04313
1.09078
1.15304
1.18922
1.21697
1.23315
1.2244
1.19761
1.18229
1.17414
1.16967
1.16383
1.14733
1.1213
1.10956
1.11161
1.16564
1.23838
1.27429
1.29405
1.30071
1.28959
1.27479
1.25002
1.21825
1.17318
1.14434
4.55837
43.05
0.808492
0.767191
0.73874
0.730506
0.734825
0.753546
0.785439
0.836455
0.902424
0.932295
0.934262
0.915201
0.87739
0.827221
0.799095
0.792872
0.796398
0.822374
0.870907
0.90035
0.917531
0.936859
0.949351
0.944301
0.937856
0.940159
0.946563
0.953492
0.950151
0.940026
0.928643
0.909516
0.88214
0.861717
0.855972
0.858955
0.865372
0.87513
0.929823
1.05126
1.10934
1.12372
1.12879
1.12061
1.09586
1.07289
1.05672
1.03799
1.00684
0.968613
0.940926
0.928222
0.926444
0.942031
0.988899
1.03741
1.09625
1.1443
1.16047
1.14725
1.13396
1.12885
1.12873
1.13382
1.14207
1.1394
1.11777
1.07915
1.04137
1.02472
1.02586
1.05506
1.13755
1.21246
1.24802
1.26107
1.24015
1.21158
1.20124
1.19895
1.19091
1.18493
1.15959
1.11638
1.09817
1.09553
1.12682
1.20064
1.25249
1.274
1.28009
1.26644
1.25055
1.23555
1.2192
1.1974
1.20647
4.40968
43.2538
0.787342
0.758916
0.740341
0.731925
0.734322
0.743225
0.774637
0.846408
0.910028
0.939582
0.945875
0.937193
0.883337
0.830606
0.808353
0.807186
0.833613
0.877824
0.899548
0.906567
0.911262
0.892321
0.868798
0.872889
0.897138
0.929583
0.960773
0.987138
0.998161
0.992504
0.970061
0.928231
0.884865
0.863599
0.859091
0.863003
0.872335
0.891519
0.942046
1.00985
1.07164
1.1007
1.11128
1.1082
1.09125
1.08425
1.08353
1.07801
1.04656
0.99008
0.954068
0.942969
0.94398
0.971245
1.00563
1.02046
1.03219
1.0602
1.09161
1.11315
1.12919
1.14067
1.14979
1.16086
1.16322
1.15187
1.12872
1.07917
1.03394
1.02266
1.02735
1.05994
1.15411
1.2339
1.26407
1.26862
1.23989
1.21166
1.1964
1.18701
1.192
1.19114
1.17716
1.13667
1.11003
1.10652
1.12043
1.16481
1.2254
1.25473
1.25758
1.24105
1.21518
1.19509
1.18388
1.17522
1.23135
4.5056
43.6001
0.765745
0.755422
0.750375
0.75104
0.76082
0.776162
0.791723
0.821061
0.878006
0.911145
0.916272
0.909289
0.895852
0.870171
0.857337
0.865666
0.888696
0.904266
0.908574
0.907954
0.880088
0.841739
0.823398
0.824059
0.840613
0.88552
0.950806
0.99511
1.01495
1.02144
1.01584
0.970448
0.905348
0.874148
0.870556
0.87633
0.888654
0.923169
0.969972
0.997575
1.01712
1.04266
1.06273
1.07284
1.07769
1.08165
1.08217
1.06977
1.05229
1.0239
0.990006
0.974113
0.974524
0.996545
1.0131
1.01399
1.01622
1.01663
1.02695
1.06384
1.10514
1.13184
1.15065
1.1648
1.16703
1.15552
1.12627
1.08214
1.05145
1.04789
1.07192
1.13486
1.1976
1.23053
1.24738
1.23879
1.20676
1.17766
1.16211
1.16252
1.18839
1.20032
1.20392
1.18999
1.1544
1.13715
1.14022
1.15461
1.18841
1.22763
1.23075
1.20388
1.16816
1.14095
1.13171
1.13998
1.22231
4.72932
43.9806
0.759819
0.758621
0.76452
0.775493
0.787068
0.791849
0.792667
0.792515
0.807343
0.85505
0.88962
0.903459
0.917578
0.932935
0.931756
0.918414
0.912061
0.912074
0.904075
0.878722
0.847411
0.82608
0.816542
0.814931
0.819035
0.834705
0.901838
0.983816
1.01579
1.02377
1.02444
1.00573
0.945206
0.898986
0.888965
0.891376
0.904141
0.948459
0.988291
1.00249
1.00676
0.995678
0.987782
0.994123
1.01999
1.04745
1.05791
1.06174
1.05989
1.05176
1.03448
1.01678
1.00882
1.01518
1.02117
1.02144
1.01783
1.0082
1.00649
1.01818
1.0456
1.08505
1.12087
1.13596
1.13607
1.13098
1.12229
1.11055
1.10351
1.12068
1.15731
1.18633
1.20205
1.20847
1.19064
1.16102
1.14178
1.13338
1.1356
1.15804
1.1908
1.2203
1.24122
1.2462
1.19887
1.15606
1.14558
1.1504
1.15572
1.17465
1.17722
1.15411
1.12457
1.10936
1.12056
1.12982
1.21959
4.87936
44.1654
0.765461
0.772461
0.78855
0.799341
0.804479
0.800487
0.785586
0.775061
0.775845
0.79144
0.842342
0.902292
0.949578
0.980845
0.990734
0.974556
0.936537
0.90578
0.880965
0.851606
0.829839
0.819098
0.815657
0.817589
0.823268
0.829884
0.851052
0.934696
1.00045
1.01907
1.02419
1.0201
0.983447
0.930052
0.907206
0.904831