/*--------------------------------*- C++ -*----------------------------------*\
  =========                 |
  \\      /  F ield         | OpenFOAM: The Open Source CFD Toolbox
   \\    /   O peration     | Website:  https://openfoam.org
    \\  /    A nd           | Version:  12
     \\/     M anipulation  |
\*---------------------------------------------------------------------------*/
FoamFile
{
    format      ascii;
    class       volScalarField;
    location    "29.1";
    object      rho;
}
// * * * * * * * * * * * * * * * * * * * * * * * * * * * * * * * * * * * * * //

dimensions      [1 -3 0 0 0 0 0];

internalField   nonuniform List<scalar> 
9801
(
1.26203
1.24858
1.23282
1.21111
1.19129
1.18767
1.19279
1.23833
1.34383
1.42274
1.45447
1.4676
1.47393
1.45864
1.37449
1.26105
1.20037
1.18425
1.1822
1.18799
1.24628
1.41419
1.54122
1.57931
1.59251
1.59347
1.54082
1.42097
1.33444
1.30697
1.30433
1.30824
1.32026
1.3409
1.38244
1.4817
1.57883
1.6161
1.6288
1.63456
1.61716
1.55873
1.49694
1.46802
1.46587
1.47289
1.48372
1.49605
1.51086
1.54196
1.60356
1.65528
1.67914
1.69286
1.70417
1.71056
1.6917
1.64959
1.63065
1.63214
1.63968
1.65483
1.67827
1.7012
1.72524
1.75081
1.77418
1.79388
1.81254
1.82253
1.83347
1.84738
1.86308
1.89102
1.92193
1.94408
1.96521
1.98766
2.00941
2.02663
2.00238
1.97723
1.98533
2.00909
2.04536
2.12601
2.2118
2.26617
2.30359
2.33551
2.34875
2.33594
2.312
2.29963
2.30285
2.35952
2.53087
6.50388
36.7278
1.2357
1.21218
1.2041
1.20193
1.20433
1.20859
1.23984
1.31963
1.38466
1.42278
1.44449
1.45416
1.4382
1.37667
1.31266
1.2659
1.22939
1.21394
1.22016
1.26319
1.34311
1.4374
1.51635
1.55047
1.55476
1.53372
1.48565
1.41823
1.36003
1.33543
1.33545
1.34402
1.35876
1.37923
1.41487
1.48222
1.55652
1.59183
1.60202
1.59777
1.58343
1.56374
1.53221
1.50803
1.49917
1.49911
1.50363
1.50926
1.51795
1.54412
1.60556
1.65598
1.67929
1.69264
1.70315
1.70731
1.68469
1.65191
1.64214
1.64454
1.65067
1.66263
1.69261
1.7237
1.74807
1.7691
1.78767
1.80374
1.8156
1.81251
1.80716
1.81076
1.82186
1.84947
1.89113
1.92309
1.94674
1.96635
1.98413
2.00043
1.99033
1.96447
1.96476
1.9834
2.00993
2.06938
2.15522
2.21854
2.26251
2.30068
2.3319
2.333
2.31481
2.30273
2.30455
2.33777
2.34549
5.88074
36.5673
1.18617
1.17571
1.1832
1.19152
1.20385
1.24366
1.32338
1.37952
1.39787
1.4066
1.41156
1.38889
1.33099
1.28515
1.26886
1.26571
1.26328
1.26969
1.31045
1.35835
1.38694
1.41801
1.44868
1.46575
1.46739
1.4597
1.44959
1.42867
1.3932
1.37012
1.36598
1.37106
1.38127
1.39526
1.4215
1.46637
1.50826
1.53596
1.5511
1.55947
1.5656
1.56744
1.56116
1.54072
1.51632
1.50349
1.49844
1.49967
1.5043
1.53551
1.59953
1.64577
1.66823
1.68158
1.6929
1.69449
1.66202
1.63288
1.626
1.62904
1.63642
1.65001
1.68788
1.72903
1.75579
1.77279
1.7858
1.79757
1.79228
1.76535
1.75296
1.75855
1.77245
1.80223
1.85111
1.88806
1.91067
1.92796
1.94358
1.9595
1.95923
1.92978
1.91033
1.91422
1.93509
1.96868
2.04766
2.13418
2.19199
2.23413
2.27253
2.28928
2.2809
2.27722
2.28429
2.31403
2.28756
5.41988
35.836
1.15569
1.14494
1.16061
1.18319
1.2232
1.28723
1.35344
1.39314
1.40307
1.39295
1.35338
1.30405
1.26472
1.24612
1.24526
1.25328
1.29007
1.35848
1.39759
1.40817
1.40836
1.39185
1.37338
1.37523
1.39511
1.41158
1.42123
1.42773
1.41172
1.39252
1.38942
1.39295
1.39767
1.40414
1.41684
1.43823
1.46149
1.48429
1.50905
1.53323
1.55124
1.56326
1.56505
1.53886
1.50363
1.48441
1.48126
1.48465
1.4983
1.54447
1.60499
1.6385
1.65753
1.66987
1.67558
1.65166
1.60979
1.59262
1.5941
1.6018
1.61151
1.63097
1.67938
1.72758
1.74963
1.76014
1.76619
1.76403
1.7418
1.70929
1.69707
1.70274
1.71517
1.73723
1.78443
1.83014
1.85734
1.87662
1.89362
1.90994
1.91818
1.88565
1.84162
1.82894
1.84455
1.87174
1.92102
2.00335
2.07685
2.13021
2.17612
2.2178
2.23023
2.2231
2.21006
2.22564
2.17337
5.07826
34.9729
1.14839
1.13672
1.14837
1.18183
1.23018
1.28014
1.33264
1.35479
1.35004
1.32168
1.29098
1.26457
1.24628
1.24243
1.24932
1.28518
1.35196
1.38811
1.39693
1.39929
1.37511
1.33383
1.31359
1.31516
1.34655
1.38323
1.40258
1.41387
1.41744
1.40172
1.39055
1.38941
1.39152
1.39434
1.39767
1.40597
1.42464
1.44936
1.47858
1.50338
1.52054
1.53233
1.53337
1.50093
1.46938
1.46233
1.4665
1.47735
1.50989
1.56801
1.60638
1.62546
1.63544
1.63922
1.61815
1.57714
1.55386
1.55266
1.56085
1.57129
1.58612
1.6213
1.679
1.71274
1.7252
1.73054
1.72926
1.72178
1.70181
1.67067
1.65166
1.65124
1.66024
1.67456
1.71113
1.77149
1.81329
1.8359
1.85103
1.86326
1.86896
1.84134
1.79664
1.77266
1.77362
1.79468
1.82606
1.88437
1.96754
2.04446
2.10681
2.16059
2.20582
2.21286
2.19401
2.18217
2.09222
4.84296
34.2344
1.16829
1.16388
1.18333
1.20264
1.21361
1.23012
1.247
1.26011
1.26955
1.2738
1.27218
1.25702
1.2475
1.2531
1.2879
1.34147
1.36681
1.37307
1.37636
1.34558
1.29908
1.27498
1.2704
1.27578
1.31003
1.35986
1.38914
1.40473
1.41561
1.41074
1.38848
1.37718
1.37396
1.37563
1.37981
1.38628
1.40308
1.43159
1.45854
1.47448
1.48282
1.48442
1.47232
1.45386
1.44624
1.44956
1.45795
1.48666
1.53692
1.57469
1.59511
1.60261
1.60014
1.58079
1.5506
1.52414
1.51614
1.5234
1.53465
1.54877
1.57228
1.61958
1.66744
1.68807
1.69467
1.69355
1.68828
1.68442
1.67511
1.64766
1.61805
1.60913
1.61446
1.62673
1.64989
1.71321
1.78142
1.81637
1.83346
1.84486
1.84659
1.82452
1.78824
1.76312
1.75424
1.757
1.77407
1.80352
1.85922
1.94
2.02175
2.09343
2.15232
2.18813
2.18245
2.1593
2.05002
4.69721
33.8572
1.21327
1.19213
1.19269
1.19528
1.19492
1.17346
1.15272
1.15304
1.18528
1.23353
1.25558
1.26449
1.27864
1.31086
1.34003
1.35186
1.35595
1.3492
1.30969
1.26288
1.24077
1.23821
1.24242
1.25143
1.28211
1.3422
1.38709
1.40972
1.42028
1.42166
1.39441
1.36954
1.36187
1.36184
1.36616
1.37252
1.3853
1.40812
1.42826
1.43877
1.44086
1.4361
1.42887
1.42748
1.43167
1.44237
1.47081
1.50726
1.53731
1.558
1.56573
1.56138
1.54505
1.52824
1.51426
1.5025
1.49574
1.50036
1.51486
1.53879
1.56617
1.60153
1.63878
1.65522
1.65955
1.65824
1.66026
1.66439
1.66312
1.64467
1.6119
1.58828
1.58446
1.59255
1.60625
1.65099
1.74297
1.80318
1.82632
1.84147
1.85108
1.83768
1.80659
1.77676
1.75762
1.75006
1.75155
1.76319
1.78601
1.83963
1.9317
2.01834
2.08295
2.13152
2.14077
2.12816
2.04692
4.62717
33.6952
1.26587
1.22961
1.19894
1.17635
1.14644
1.11701
1.10362
1.10468
1.11819
1.16431
1.22877
1.28922
1.34956
1.37805
1.38153
1.36679
1.33836
1.29345
1.23373
1.20346
1.19951
1.20467
1.21528
1.22936
1.25953
1.33238
1.39652
1.41923
1.42912
1.43327
1.41266
1.37628
1.36114
1.35974
1.36218
1.36562
1.36743
1.3693
1.37781
1.38835
1.39669
1.40378
1.41214
1.4214
1.44322
1.46925
1.48862
1.50436
1.5185
1.52368
1.51846
1.50577
1.49883
1.49845
1.49882
1.49653
1.49994
1.50764
1.51852
1.52814
1.53972
1.56077
1.59234
1.61864
1.63215
1.64103
1.65132
1.66125
1.6687
1.65544
1.6178
1.58542
1.57197
1.57398
1.58359
1.60648
1.68995
1.78344
1.82796
1.85076
1.86745
1.86706
1.84776
1.81497
1.78254
1.75673
1.73858
1.73311
1.74383
1.77547
1.85875
1.94998
2.01218
2.05435
2.07339
2.08314
2.05874
4.59718
33.6718
1.30565
1.28938
1.21366
1.15462
1.10662
1.08256
1.07859
1.08156
1.08847
1.1065
1.17336
1.31475
1.39187
1.41059
1.41491
1.40089
1.34409
1.25367
1.19945
1.1841
1.18431
1.18847
1.19719
1.21036
1.24054
1.3153
1.39565
1.42578
1.4349
1.43832
1.42858
1.39806
1.37124
1.36272
1.35915
1.35111
1.3403
1.3351
1.33802
1.34891
1.36553
1.38425
1.40752
1.44502
1.46772
1.47823
1.48289
1.48709
1.48382
1.47685
1.46868
1.46681
1.47313
1.48319
1.49373
1.50351
1.50523
1.50596
1.50857
1.51062
1.51144
1.51878
1.5375
1.5777
1.61684
1.64115
1.65723
1.66791
1.67645
1.66848
1.6226
1.5769
1.5607
1.56537
1.57752
1.59974
1.6565
1.75647
1.82652
1.85943
1.87799
1.88323
1.87333
1.8528
1.81543
1.77012
1.73415
1.72119
1.7273
1.75072
1.81757
1.90571
1.96545
1.99809
2.01089
2.02863
2.04512
4.59633
33.6682
1.31406
1.32259
1.25249
1.15429
1.0951
1.07776
1.07738
1.08121
1.08942
1.11186
1.19195
1.31558
1.38764
1.40813
1.40979
1.37849
1.30519
1.23955
1.20191
1.18608
1.18525
1.18966
1.20005
1.22912
1.27619
1.32094
1.36573
1.40647
1.42651
1.43408
1.43361
1.42029
1.39307
1.36376
1.33983
1.32448
1.31918
1.32067
1.32539
1.33512
1.35273
1.38921
1.43424
1.4566
1.46595
1.47068
1.46355
1.44572
1.43695
1.43956
1.44813
1.45825
1.47117
1.4871
1.50152
1.51045
1.51181
1.50497
1.49457
1.48698
1.4865
1.49443
1.50757
1.53821
1.59872
1.64463
1.66364
1.67313
1.67727
1.66712
1.61935
1.57086
1.55908
1.56695
1.58746
1.63324
1.68386
1.72901
1.78357
1.83
1.85851
1.87515
1.87718
1.86412
1.83837
1.79548
1.75352
1.73324
1.73487
1.76184
1.81436
1.87742
1.92712
1.95036
1.96078
1.97003
1.99663
4.6193
33.6292
1.31004
1.3126
1.23767
1.15859
1.10773
1.08843
1.08744
1.09412
1.12138
1.17037
1.22228
1.28009
1.33388
1.35356
1.34692
1.32082
1.2863
1.24953
1.21942
1.20556
1.20443
1.21143
1.23153
1.26952
1.30059
1.31676
1.33157
1.35614
1.38603
1.4033
1.40807
1.40261
1.38209
1.35089
1.32633
1.31884
1.31969
1.32374
1.3307
1.34577
1.38267
1.42209
1.44204
1.45035
1.45382
1.43574
1.40984
1.40011
1.40352
1.41646
1.44036
1.46472
1.4846
1.49805
1.50899
1.51585
1.50832
1.48734
1.47709
1.47671
1.48147
1.48731
1.49898
1.5191
1.56413
1.62485
1.65414
1.66214
1.65817
1.64202
1.61286
1.58502
1.57753
1.59421
1.63713
1.67968
1.70321
1.71587
1.72828
1.75305
1.78657
1.81486
1.83304
1.83708
1.82816
1.81407
1.79849
1.7917
1.8003
1.81632
1.83159
1.85408
1.88268
1.90045
1.90628
1.90397
1.92558
4.67465
33.5683
1.27777
1.26796
1.21932
1.17619
1.14172
1.12633
1.12874
1.15195
1.18772
1.21339
1.23053
1.24315
1.25144
1.26158
1.2707
1.27586
1.27685
1.26614
1.25071
1.24119
1.24184
1.25206
1.27139
1.29376
1.31011
1.3184
1.32404
1.33075
1.33492
1.33749
1.34475
1.3522
1.35237
1.34533
1.33527
1.32658
1.3266
1.33471
1.35638
1.3903
1.4213
1.43859
1.44619
1.4466
1.42097
1.38554
1.37079
1.37303
1.38191
1.40296
1.44212
1.478
1.49662
1.50741
1.51078
1.50124
1.49139
1.48326
1.47941
1.48275
1.49206
1.50326
1.51323
1.51891
1.52946
1.55854
1.60146
1.62105
1.62287
1.61506
1.61367
1.6196
1.63768
1.66864
1.69491
1.71119
1.71601
1.7024
1.6858
1.6819
1.69246
1.71949
1.75635
1.788
1.8092
1.82873
1.85414
1.87497
1.87639
1.86048
1.84393
1.83854
1.84016
1.84368
1.84204
1.82908
1.84638
4.82342
33.5087
1.23659
1.21953
1.20112
1.18577
1.17609
1.17653
1.19272
1.21416
1.22356
1.22664
1.22469
1.20566
1.19251
1.19562
1.21291
1.23765
1.25789
1.2695
1.27345
1.27884
1.28686
1.29464
1.30353
1.31006
1.31247
1.31717
1.32094
1.31273
1.29557
1.28602
1.28524
1.29312
1.30909
1.32436
1.33159
1.33636
1.35142
1.38147
1.40662
1.42271
1.43542
1.4425
1.43737
1.4195
1.39106
1.3671
1.35909
1.36171
1.37046
1.39395
1.43571
1.47724
1.5002
1.50739
1.49712
1.48857
1.48892
1.49575
1.50752
1.51895
1.52594
1.52552
1.51705
1.50441
1.49017
1.48721
1.51183
1.55994
1.5916
1.60891
1.6328
1.67542
1.71484
1.72997
1.73177
1.7256
1.70556
1.67346
1.64324
1.62445
1.62444
1.63861
1.67213
1.72463
1.78193
1.84475
1.89362
1.91729
1.91667
1.8904
1.85861
1.83449
1.81696
1.79583
1.78181
1.7754
1.79245
4.98408
33.414
1.19887
1.19362
1.19783
1.19958
1.20845
1.22915
1.2454
1.25083
1.24888
1.23175
1.19678
1.17645
1.17382
1.18134
1.19676
1.21601
1.23569
1.26025
1.28845
1.3026
1.30723
1.31132
1.3211
1.32952
1.33244
1.33059
1.31988
1.29983
1.28486
1.27568
1.26894
1.26748
1.27188
1.28604
1.31019
1.35058
1.39769
1.42365
1.4363
1.44332
1.44303
1.42781
1.41619
1.40644
1.39218
1.37421
1.36698
1.37378
1.39578
1.41198
1.42012
1.43463
1.45719
1.4758
1.48644
1.49139
1.50464
1.5373
1.5637
1.57055
1.56006
1.53754
1.50552
1.4706
1.44691
1.44035
1.44851
1.48422
1.54376
1.59897
1.66344
1.7316
1.76609
1.77743
1.76701
1.7365
1.69586
1.65402
1.61452
1.58978
1.58462
1.59346
1.61821
1.67455
1.76115
1.83552
1.87665
1.90227
1.90821
1.89603
1.87183
1.84024
1.80505
1.76742
1.74148
1.73049
1.75413
5.13938
33.3706
1.16988
1.18333
1.20576
1.23462
1.25533
1.26114
1.26051
1.25412
1.23171
1.19789
1.17907
1.17653
1.17959
1.18531
1.20046
1.22728
1.25946
1.28457
1.29725
1.30385
1.3088
1.31308
1.31856
1.32251
1.32448
1.32334
1.31507
1.30503
1.29498
1.28132
1.27102
1.26892
1.27215
1.28227
1.32316
1.37494
1.40659
1.42599
1.43837
1.44068
1.42906
1.42099
1.41983
1.41656
1.40838
1.4008
1.39952
1.40586
1.41329
1.41445
1.39898
1.38302
1.38904
1.42571
1.46974
1.50705
1.55441
1.59641
1.61377
1.61589
1.59309
1.5406
1.4838
1.44107
1.41957
1.41541
1.42119
1.43511
1.47509
1.56495
1.67508
1.7414
1.76881
1.78232
1.78432
1.75793
1.70368
1.64898
1.60543
1.57933
1.57102
1.57587
1.59506
1.64562
1.72809
1.8012
1.84412
1.87007
1.88445
1.88408
1.87096
1.84788
1.80994
1.76667
1.73584
1.71016
1.72328
5.189
33.4376
1.14611
1.18698
1.24477
1.28181
1.29227
1.29015
1.26843
1.23271
1.19053
1.16643
1.16316
1.1677
1.17975
1.19986
1.23397
1.26817
1.28677
1.29464
1.29758
1.29626
1.2954
1.2962
1.29949
1.30779
1.31646
1.32183
1.31742
1.30695
1.30325
1.30188
1.29242
1.28579
1.29186
1.32322
1.36062
1.37906
1.38793
1.38952
1.38984
1.40346
1.42195
1.43161
1.43451
1.43815
1.44355
1.44757
1.44352
1.43411
1.42278
1.39572
1.36427
1.35143
1.35477
1.37288
1.43328
1.52828
1.60862
1.64433
1.65516
1.65432
1.63124
1.56288
1.48281
1.43636
1.41675
1.41217
1.41533
1.42258
1.43715
1.50356
1.63868
1.72326
1.75115
1.76032
1.75585
1.73841
1.71345
1.67185
1.62104
1.58517
1.57153
1.57423
1.59853
1.63871
1.68817
1.75714
1.80945
1.83929
1.85464
1.86299
1.85838
1.84731
1.82453
1.78779
1.75858
1.72823
1.72349
5.14625
33.5826
1.12643
1.19563
1.27602
1.30139
1.30876
1.31011
1.28619
1.21739
1.16917
1.15933
1.16123
1.16647
1.18516
1.23629
1.27966
1.29717
1.30449
1.30638
1.2969
1.28252
1.27648
1.27732
1.28352
1.29484
1.30753
1.31686
1.31661
1.30747
1.30366
1.30527
1.31038
1.32062
1.34989
1.37348
1.38148
1.37973
1.35533
1.33333
1.33421
1.36184
1.41061
1.43964
1.45886
1.47713
1.48963
1.49178
1.47888
1.44998
1.40801
1.36619
1.34368
1.34022
1.34446
1.35282
1.39246
1.52985
1.63343
1.66072
1.66743
1.66039
1.62322
1.56471
1.50326
1.45282
1.42619
1.41927
1.4241
1.43366
1.46349
1.51875
1.57468
1.64271
1.69713
1.72268
1.7335
1.73453
1.72217
1.69499
1.65025
1.60808
1.58688
1.58471
1.60221
1.63091
1.65795
1.70759
1.7679
1.80331
1.8226
1.83548
1.84041
1.83535
1.82558
1.80225
1.77657
1.73968
1.70707
5.0724
33.7647
1.13283
1.22029
1.276
1.30024
1.30676
1.29613
1.25041
1.19836
1.17208
1.16511
1.16822
1.18581
1.22865
1.27167
1.29276
1.30256
1.30784
1.29974
1.27871
1.268
1.26767
1.2746
1.28533
1.29293
1.30024
1.30855
1.30912
1.30413
1.30275
1.30685
1.32847
1.37918
1.413
1.42024
1.40755
1.36491
1.31706
1.29828
1.2997
1.31385
1.36763
1.43706
1.48519
1.51317
1.5244
1.52601
1.51147
1.46648
1.40242
1.36166
1.34676
1.34601
1.35428
1.38185
1.44055
1.52898
1.61518
1.65255
1.65878
1.644
1.6164
1.57735
1.53202
1.48869
1.45734
1.4459
1.44925
1.46345
1.50098
1.53215
1.54584
1.56323
1.61474
1.67966
1.71528
1.72991
1.72344
1.69758
1.66787
1.63524
1.61051
1.60041
1.60794
1.62892
1.64703
1.67242
1.72432
1.76761
1.78854
1.79973
1.80661
1.80152
1.79707
1.79278
1.78415
1.75593
1.71723
4.97782
33.9725
1.17022
1.2195
1.24985
1.26303
1.25808
1.23768
1.21787
1.20192
1.19159
1.19379
1.21029
1.23382
1.25338
1.27384
1.29113
1.2984
1.28891
1.26848
1.26144
1.26367
1.26964
1.27988
1.29086
1.29827
1.30053
1.29421
1.28872
1.2916
1.2991
1.31651
1.3729
1.43017
1.44906
1.45231
1.42695
1.35149
1.30113
1.29116
1.29356
1.30189
1.32627
1.41266
1.49401
1.52145
1.53092
1.52884
1.50032
1.45641
1.41347
1.37892
1.36548
1.37162
1.39967
1.4427
1.4782
1.50914
1.55047
1.58994
1.60821
1.61201
1.60743
1.58637
1.5551
1.52212
1.49451
1.4826
1.48711
1.50975
1.53815
1.55195
1.55343
1.55123
1.55939
1.60803
1.66554
1.69591
1.70589
1.68794
1.66723
1.65339
1.64171
1.63571
1.64295
1.6505
1.65317
1.66064
1.68532
1.71926
1.73891
1.74673
1.75234
1.75187
1.75751
1.76965
1.77924
1.77167
1.74958
4.87551
34.1556
1.19276
1.20956
1.2093
1.19892
1.19384
1.1966
1.20314
1.21077
1.22317
1.24435
1.25936
1.26662
1.2698
1.27119
1.27267
1.26281
1.24713
1.24333
1.24705
1.25675
1.27448
1.29211
1.30092
1.30077
1.28549
1.26849
1.26677
1.27631
1.3006
1.36143
1.42741
1.45359
1.46044
1.45628
1.40371
1.33356
1.30126
1.29421
1.2973
1.30945
1.34031
1.39187
1.46269
1.50489
1.51531
1.49927
1.47237
1.45167
1.4341
1.41655
1.41123
1.42483
1.45042
1.47188
1.48174
1.49017
1.49405
1.50604
1.5353
1.56344
1.57661
1.57795
1.55903
1.54088
1.53644
1.54621
1.56667
1.58211
1.58759
1.57896
1.56087
1.55096
1.55017
1.55849
1.59683
1.64005
1.66549
1.6688
1.66354
1.66811
1.6746
1.68714
1.69689
1.6895
1.67346
1.66497
1.65956
1.65633
1.66976
1.68315
1.69205
1.70992
1.73467
1.75199
1.76991
1.77773
1.77874
4.78243
34.2537
1.19431
1.17559
1.16065
1.15374
1.15647
1.16431
1.17831
1.20917
1.25281
1.2698
1.27475
1.27717
1.27832
1.27188
1.24921
1.23242
1.23227
1.23817
1.24644
1.26255
1.28852
1.30362
1.30636
1.2879
1.25536
1.24529
1.25031
1.26755
1.33192
1.42745
1.46867
1.47766
1.47282
1.43524
1.36688
1.32031
1.30367
1.30011
1.30635
1.33264
1.35743
1.37474
1.40361
1.44291
1.46235
1.46135
1.46054
1.46181
1.45993
1.46154
1.46901
1.47621
1.48013
1.48263
1.47969
1.46494
1.45648
1.45678
1.46439
1.48502
1.51708
1.53975
1.5497
1.5556
1.58413
1.62004
1.63566
1.63878
1.6267
1.59603
1.56217
1.54173
1.53278
1.53336
1.54529
1.57944
1.62155
1.65303
1.67342
1.69796
1.72609
1.74323
1.74204
1.72517
1.6979
1.66619
1.62922
1.60727
1.60947
1.6273
1.65124
1.6906
1.73058
1.75007
1.76605
1.77479
1.79057
4.71181
34.3174
1.17219
1.14065
1.13914
1.1428
1.15354
1.16788
1.1983
1.23912
1.25918
1.26684
1.26817
1.25699
1.24235
1.23433
1.23122
1.23178
1.23634
1.24448
1.26429
1.29054
1.30642
1.31103
1.30036
1.26156
1.23359
1.23197
1.23829
1.25745
1.36044
1.4536
1.48237
1.49077
1.47901
1.4128
1.35218
1.32249
1.3095
1.30963
1.32677
1.35012
1.36248
1.36913
1.37478
1.37646
1.38526
1.41333
1.4436
1.46319
1.48208
1.50666
1.51864
1.51434
1.50188
1.48404
1.4583
1.44068
1.43359
1.42938
1.42359
1.42499
1.44131
1.47791
1.52826
1.58561
1.63738
1.669
1.68259
1.68252
1.66001
1.61808
1.56992
1.53425
1.51848
1.51624
1.52696
1.5468
1.58817
1.64629
1.69849
1.73569
1.75957
1.76851
1.76834
1.7511
1.72069
1.66872
1.61238
1.5878
1.58033
1.58733
1.62408
1.69132
1.7443
1.75938
1.76023
1.76077
1.78314
4.6607
34.3628
1.15047
1.13419
1.13947
1.1507
1.17433
1.21178
1.23998
1.25014
1.24949
1.23405
1.20932
1.19674
1.19775
1.20997
1.22893
1.24794
1.26686
1.28942
1.30723
1.3161
1.31856
1.30812
1.27576
1.24084
1.22467
1.22412
1.23417
1.28841
1.37428
1.44395
1.47491
1.47752
1.44015
1.39062
1.35659
1.33416
1.32584
1.32925
1.34424
1.35641
1.36079
1.36365
1.3593
1.34203
1.33841
1.35452
1.39579
1.44786
1.49991
1.54062
1.5567
1.55246
1.52502
1.48415
1.44942
1.42893
1.41878
1.41255
1.40642
1.40432
1.40964
1.42558
1.4857
1.58106
1.64144
1.67177
1.68724
1.69171
1.68178
1.65119
1.59267
1.54128
1.52077
1.52207
1.53766
1.55711
1.58379
1.6342
1.69151
1.72599
1.74579
1.75725
1.76138
1.74944
1.71581
1.66179
1.61774
1.59644
1.59296
1.60149
1.64071
1.71737
1.75439
1.75312
1.74322
1.73381
1.75702
4.68638
34.3961
1.14132
1.14111
1.1545
1.19699
1.241
1.26483
1.27154
1.26086
1.21767
1.17234
1.15284
1.15134
1.15812
1.17957
1.22218
1.27113
1.31691
1.34103
1.34877
1.34432
1.32315
1.2912
1.25605
1.23615
1.23165
1.23891
1.27481
1.31439
1.35104
1.39424
1.41964
1.4196
1.40605
1.3917
1.37308
1.35697
1.34864
1.34913
1.35604
1.36007
1.36174
1.36262
1.34927
1.32532
1.3171
1.32307
1.34308
1.40476
1.49685
1.54635
1.56325
1.5699
1.55994
1.50794
1.44999
1.4232
1.41319
1.40901
1.40643
1.40707
1.41763
1.45401
1.49195
1.52802
1.58613
1.62691
1.64313
1.64308
1.63362
1.62157
1.60033
1.57021
1.55048
1.55175
1.5711
1.59368
1.60733
1.6182
1.64596
1.68294
1.71083
1.72328
1.72422
1.70751
1.67848
1.65878
1.64919
1.65692
1.6707
1.68142
1.70255
1.73288
1.73965
1.72711
1.69688
1.66876
1.70576
4.86283
34.4532
1.1308
1.15986
1.22527
1.27434
1.29302
1.29797
1.28893
1.23981
1.17123
1.13491
1.12575
1.1257
1.12945
1.1456
1.19247
1.28642
1.34683
1.36452
1.37116
1.36614
1.33708
1.28721
1.25559
1.24301
1.24676
1.2792
1.30965
1.31867
1.32375
1.32989
1.34135
1.36062
1.3803
1.39145
1.3927
1.38513
1.3759
1.37292
1.3732
1.37248
1.37225
1.36941
1.34532
1.31753
1.30746
1.31035
1.32004
1.35407
1.45852
1.53425
1.55271
1.55541
1.54145
1.50518
1.46457
1.43609
1.42327
1.42073
1.42555
1.44024
1.46645
1.48479
1.48909
1.49162
1.49539
1.52843
1.57319
1.59865
1.60968
1.61315
1.61043
1.60417
1.60218
1.6055
1.60763
1.60924
1.60976
1.60647
1.5959
1.60723
1.63995
1.66163
1.66828
1.66546
1.65943
1.67033
1.70577
1.73745
1.74742
1.74274
1.72949
1.70705
1.68472
1.65744
1.6313
1.61257
1.66661
5.11191
34.4617
1.11653
1.20758
1.29838
1.32304
1.33046
1.32434
1.27936
1.19789
1.14592
1.12654
1.11983
1.11871
1.12925
1.16663
1.23245
1.29568
1.34109
1.36225
1.36376
1.34127
1.31319
1.29456
1.27706
1.27433
1.29242
1.31363
1.31965
1.31864
1.2994
1.28008
1.27924
1.29959
1.33969
1.3761
1.39413
1.40189
1.41022
1.40842
1.40033
1.39443
1.39073
1.37932
1.34303
1.31558
1.3102
1.31853
1.33038
1.35221
1.40988
1.48308
1.51794
1.52633
1.52039
1.50207
1.48414
1.47122
1.46448
1.46774
1.48205
1.4977
1.50374
1.49591
1.47014
1.44687
1.43901
1.44711
1.49372
1.5524
1.58622
1.60319
1.619
1.6384
1.65121
1.64371
1.62531
1.60919
1.59591
1.56965
1.54718
1.54694
1.56681
1.59764
1.61937
1.63362
1.65993
1.7077
1.74658
1.77114
1.77963
1.77855
1.75374
1.69432
1.62632
1.58367
1.57425
1.5882
1.67139
5.3549
34.3492
1.1257
1.25873
1.3196
1.33364
1.34032
1.32396
1.24132
1.16622
1.1356
1.12719
1.12584
1.1324
1.17641
1.23745
1.26486
1.27532
1.29211
1.30352
1.30564
1.30677
1.31086
1.31454
1.32253
1.33643
1.34196
1.3368
1.32382
1.29648
1.27123
1.25825
1.25692
1.26308
1.28299
1.32544
1.37212
1.40641
1.42826
1.43752
1.43561
1.42507
1.41342
1.39219
1.35187
1.32617
1.32538
1.33535
1.34831
1.36573
1.38751
1.41527
1.44732
1.47065
1.48389
1.49067
1.49669
1.50952
1.52601
1.54383
1.55353
1.55008
1.52087
1.47272
1.43598
1.41802
1.41412
1.41754
1.43805
1.48799
1.54479
1.59209
1.63542
1.66605
1.67763
1.6661
1.63874
1.61404
1.58238
1.53943
1.51391
1.50769
1.51613
1.53662
1.56606
1.60888
1.67444
1.72693
1.75994
1.77692
1.78487
1.78699
1.77314
1.70058
1.61348
1.55434
1.53788
1.56329
1.66545
5.44013
34.2876
1.17045
1.27491
1.3164
1.33111
1.32821
1.27202
1.19529
1.15199
1.1365
1.13332
1.13732
1.18245
1.25259
1.27775
1.28078
1.26979
1.23592
1.2256
1.24572
1.28463
1.31978
1.35593
1.38611
1.39587
1.38761
1.35543
1.31135
1.27658
1.25929
1.2548
1.25678
1.26
1.26583
1.27897
1.31427
1.37383
1.4231
1.4499
1.45874
1.45565
1.44788
1.43118
1.39172
1.36166
1.3565
1.36236
1.36961
1.37731
1.38393
1.38465
1.38375
1.3961
1.42743
1.46908
1.50804
1.54867
1.58972
1.60996
1.61538
1.5976
1.53643
1.46716
1.4276
1.41343
1.41055
1.4168
1.42562
1.44113
1.49025
1.56785
1.62989
1.65912
1.66936
1.66992
1.65098
1.61516
1.57753
1.53446
1.50601
1.49478
1.49527
1.50474
1.52145
1.57221
1.65287
1.71033
1.74305
1.75692
1.76208
1.76437
1.75496
1.70862
1.63102
1.57536
1.55103
1.54735
1.61592
5.42592
34.3012
1.20787
1.26278
1.28712
1.29053
1.25856
1.21391
1.18027
1.15632
1.14645
1.15019
1.18898
1.26371
1.29781
1.30289
1.29377
1.24059
1.19448
1.18619
1.19416
1.23569
1.32389
1.40077
1.43506
1.44466
1.43726
1.39397
1.31718
1.27282
1.25997
1.25919
1.26379
1.27177
1.28064
1.28346
1.28647
1.30568
1.37092
1.4319
1.45888
1.4742
1.48189
1.48263
1.45878
1.41506
1.3909
1.38418
1.38275
1.38243
1.38089
1.37117
1.35319
1.34902
1.35976
1.40007
1.48349
1.5757
1.63264
1.65223
1.65785
1.62885
1.55911
1.4878
1.44691
1.42848
1.42344
1.43081
1.44827
1.46466
1.47845
1.51358
1.58571
1.62976
1.63967
1.6374
1.63416
1.62516
1.59645
1.54942
1.51841
1.50928
1.51382
1.52457
1.54204
1.57362
1.60824
1.65127
1.68857
1.71091
1.72429
1.73432
1.73729
1.71201
1.66018
1.60881
1.57234
1.54738
1.57421
5.35152
34.4444
1.22283
1.23473
1.23649
1.2179
1.19704
1.18862
1.18689
1.18335
1.18371
1.20854
1.26587
1.29948
1.30775
1.306
1.26732
1.21398
1.18937
1.18595
1.18992
1.21282
1.31569
1.41845
1.4482
1.45562
1.43976
1.37892
1.32285
1.29035
1.27745
1.27895
1.28746
1.29423
1.29209
1.28338
1.27902
1.28026
1.29842
1.37262
1.44519
1.48162
1.50447
1.51594
1.51578
1.48539
1.44005
1.41041
1.39517
1.38876
1.3859
1.37573
1.35151
1.33375
1.3322
1.34121
1.41393
1.56832
1.6416
1.65948
1.65797
1.61141
1.54961
1.51368
1.48743
1.46911
1.46364
1.47142
1.47674
1.47894
1.47991
1.48008
1.50804
1.56899
1.60042
1.61333
1.6257
1.63164
1.61482
1.58123
1.55836
1.54944
1.55113
1.5561
1.56097
1.56348
1.56309
1.57952
1.63669
1.6818
1.70216
1.71361
1.71773
1.70452
1.67982
1.64225
1.60597
1.55609
1.53533
5.20324
34.5965
1.23009
1.21476
1.17688
1.1608
1.16407
1.17712
1.19063
1.20817
1.24763
1.29035
1.30773
1.31062
1.30278
1.2669
1.22277
1.1991
1.19339
1.19577
1.21536
1.2679
1.33496
1.39954
1.43459
1.43577
1.39861
1.36316
1.33883
1.32179
1.31405
1.31432
1.31521
1.31079
1.2963
1.28084
1.27263
1.27347
1.27917
1.30492
1.3995
1.48582
1.51849
1.5304
1.53406
1.52631
1.4937
1.4548
1.42892
1.41351
1.40052
1.38098
1.35392
1.33666
1.33331
1.33845
1.38561
1.50677
1.60031
1.63065
1.62749
1.58425
1.54616
1.5294
1.52037
1.51468
1.51798
1.51839
1.50465
1.48979
1.47371
1.45819
1.45952
1.50797
1.57058
1.60598
1.63146
1.64535
1.6359
1.60934
1.5946
1.58739
1.58392
1.57933
1.56475
1.54136
1.53182
1.53473
1.58877
1.6592
1.69021
1.70302
1.7047
1.69112
1.67689
1.66026
1.64334
1.60794
1.57828
4.98834
34.7755
1.21919
1.17391
1.14205
1.13278
1.13748
1.158
1.193
1.24811
1.31808
1.34968
1.35193
1.33218
1.29246
1.23865
1.20707
1.19927
1.20221
1.22904
1.28008
1.3114
1.33033
1.35176
1.36575
1.36147
1.35547
1.35794
1.36383
1.36971
1.36541
1.35423
1.34218
1.3226
1.29479
1.27402
1.2681
1.27119
1.27759
1.2871
1.34236
1.46387
1.52026
1.53423
1.53977
1.53252
1.50944
1.48806
1.47303
1.45481
1.42374
1.38491
1.35596
1.34197
1.33961
1.35516
1.40295
1.45199
1.51048
1.55782
1.57373
1.5611
1.54854
1.54364
1.54359
1.54839
1.5559
1.553
1.53156
1.49352
1.45637
1.44049
1.44212
1.47199
1.55403
1.62641
1.65815
1.66866
1.64739
1.61964
1.61082
1.61001
1.60328
1.59861
1.57598
1.53635
1.52066
1.51886
1.54962
1.61959
1.66564
1.68131
1.68418
1.66925
1.65423
1.6448
1.63878
1.6278
1.64705
4.86874
34.9536
1.19671
1.16361
1.1427
1.13335
1.13597
1.14573
1.18032
1.25819
1.32614
1.35775
1.36459
1.35556
1.29918
1.24255
1.21707
1.21483
1.24183
1.2875
1.30989
1.31769
1.32323
1.30436
1.28095
1.28584
1.31184
1.34555
1.37696
1.40228
1.4123
1.40613
1.38343
1.34128
1.29726
1.27574
1.27122
1.27531
1.28473
1.30391
1.35484
1.42206
1.48216
1.51057
1.52168
1.51931
1.50403
1.49841
1.4982
1.49328
1.46236
1.40553
1.36833
1.35632
1.35704
1.38466
1.41977
1.43488
1.44653
1.47425
1.50508
1.52597
1.54161
1.55286
1.5615
1.57203
1.57445
1.56381
1.54179
1.49366
1.44926
1.43839
1.44335
1.47613
1.5687
1.64438
1.67104
1.67391
1.64541
1.6185
1.60535
1.59772
1.60362
1.60385
1.59228
1.55524
1.53122
1.52832
1.54141
1.58198
1.63587
1.66052
1.66229
1.64633
1.62189
1.60493
1.59925
1.59682
1.6726
4.95474
35.1796
1.17281
1.15861
1.15272
1.15326
1.16393
1.1812
1.19874
1.23102
1.2925
1.32853
1.33446
1.32734
1.31293
1.28478
1.26981
1.27739
1.30002
1.3151
1.31914
1.31863
1.29019
1.25079
1.23225
1.23332
1.25109
1.29823
1.36525
1.40883
1.42783
1.4344
1.42922
1.38421
1.31854
1.28685
1.28338
1.28943
1.30181
1.33644
1.38269
1.40888
1.42723
1.45219
1.47241
1.48315
1.48907
1.49436
1.49548
1.48406
1.46708
1.43854
1.40399
1.38765
1.38803
1.41045
1.42737
1.42826
1.43015
1.4296
1.43895
1.47512
1.51555
1.54184
1.56023
1.57446
1.57721
1.56685
1.53936
1.49693
1.46693
1.46351
1.48732
1.54894
1.60885
1.63881
1.65333
1.644
1.61275
1.58561
1.57218
1.57367
1.60014
1.61296
1.61707
1.60493
1.57212
1.55523
1.55727
1.56881
1.59702
1.63246
1.63568
1.61174
1.57854
1.55266
1.54469
1.55405
1.65503
5.14667
35.4014
1.16581
1.16155
1.16741
1.17902
1.19174
1.19763
1.19935
1.20016
1.2175
1.26998
1.30739
1.322
1.33616
1.35043
1.34782
1.33219
1.32381
1.32285
1.31393
1.28776
1.25569
1.23417
1.22473
1.22321
1.22758
1.24387
1.31323
1.39607
1.42771
1.43637
1.43767
1.42014
1.36004
1.31342
1.30335
1.3058
1.31839
1.36274
1.40105
1.41314
1.41652
1.40467
1.3967
1.40349
1.43033
1.45897
1.47068
1.47507
1.47354
1.4655
1.44814
1.43048
1.42271
1.42936
1.43545
1.43561
1.43113
1.41992
1.41737
1.42832
1.45523
1.49408
1.52985
1.54605
1.54708
1.54336
1.5359
1.52518
1.51854
1.53528
1.57039
1.59729
1.61066
1.61582
1.59731
1.56796
1.54991
1.54331
1.54663
1.57022
1.60311
1.63181
1.65147
1.65601
1.61126
1.56995
1.55873
1.56159
1.56373
1.58011
1.58328
1.56428
1.53795
1.52323
1.53326
1.53989
1.63441
5.26926
35.4798
1.17146
1.17597
1.19293
1.20436
1.21011
1.20633
1.19136
1.18159
1.18331
1.20134
1.25701
1.32086
1.36948
1.3991
1.40672
1.38821
1.3476
1.31504
1.28926
1.259
1.23707
1.22673
1.22363
1.2259
1.23184
1.23843
1.25974
1.34515
1.41128
1.431
1.43761
1.4347
1.3995
1.34661
1.32331
1.32065
1.34019
1.39077
1.41855
1.42572
1.41983
1.37855
1.34309
1.338
1.3518
1.39693
1.44569
1.46994
1.47768
1.47298
1.47216
1.46994
1.46417
1.46349
1.46075
1.4615
1.45557
1.43388
1.41354
1.40018
1.39809
1.4168
1.46638
1.51132
1.53034
1.53802
1.5462
1.56635
1.59751
1.61921
1.62893
1.62933
1.61357
1.57527
1.52671
1.49638
1.48891
1.49483
1.52376
1.57484
1.62827
1.66172
1.67598
1.67363
1.62791
1.58405
1.56541
1.55805
1.54202
1.51467
1.51367
1.5216
1.51752
1.52371
1.55271
1.55732
1.63711
5.32397
35.3934
1.19864
1.20379
1.20609
1.21052
1.20947
1.19794
1.18493
1.18102
1.18216
1.18696
1.2046
1.28145
1.37556
1.40536
1.41229
1.41018
1.38632
1.33336
1.28064
1.25226
1.23675
1.22867
1.22917
1.2354
1.2433
1.25301
1.27152
1.30227
1.35933
1.40428
1.42115
1.42454
1.40159
1.36675
1.35129
1.35538
1.39457
1.43142
1.44304
1.44497
1.41921
1.35624
1.31703
1.30861
1.31111
1.32494
1.37295
1.42957
1.45941
1.46739
1.46994
1.48062
1.4998
1.51125
1.51212
1.5062
1.49036
1.4502
1.40629
1.37571
1.36438
1.36854
1.3968
1.45921
1.50609
1.53347
1.57434
1.62558
1.65265
1.65588
1.65176
1.63632
1.59046
1.52865
1.47677
1.45314
1.45048
1.45747
1.50607
1.59488
1.65553
1.67703
1.68545
1.67538
1.63697
1.59443
1.5658
1.53848
1.5005
1.46643
1.45709
1.47874
1.52207
1.59061
1.63087
1.60563
1.67822
5.26804
35.2104
1.23237
1.23406
1.2209
1.21164
1.19826
1.18288
1.17682
1.17881
1.18364
1.19066
1.21807
1.28049
1.34645
1.38493
1.39542
1.39026
1.35835
1.3195
1.29387
1.27048
1.25278
1.24472
1.24636
1.25228
1.26159
1.27908
1.2968
1.30391
1.30903
1.32374
1.34535
1.36346
1.37001
1.37269
1.38961
1.43517
1.46706
1.47394
1.47289
1.45391
1.3946
1.33358
1.30827
1.30482
1.30853
1.318
1.33182
1.36161
1.40236
1.43385