/*--------------------------------*- C++ -*----------------------------------*\
  =========                 |
  \\      /  F ield         | OpenFOAM: The Open Source CFD Toolbox
   \\    /   O peration     | Website:  https://openfoam.org
    \\  /    A nd           | Version:  12
     \\/     M anipulation  |
\*---------------------------------------------------------------------------*/
FoamFile
{
    format      ascii;
    class       volVectorField;
    location    "13";
    object      U;
}
// * * * * * * * * * * * * * * * * * * * * * * * * * * * * * * * * * * * * * //

dimensions      [0 1 -1 0 0 0 0];

internalField   nonuniform List<vector> 
9801
(
(1.16165 -0.067946 0)
(1.16455 -0.0628729 0)
(1.1687 -0.0604359 0)
(1.16856 -0.0582988 0)
(1.1664 -0.0559599 0)
(1.16301 -0.0538092 0)
(1.15871 -0.0515605 0)
(1.15439 -0.0486631 0)
(1.15077 -0.0457302 0)
(1.14756 -0.0433558 0)
(1.14439 -0.0414936 0)
(1.14166 -0.0396479 0)
(1.14274 -0.037149 0)
(1.14757 -0.0346522 0)
(1.14951 -0.0322361 0)
(1.14809 -0.0300821 0)
(1.14499 -0.0281141 0)
(1.14068 -0.02628 0)
(1.13577 -0.0239818 0)
(1.13164 -0.0210788 0)
(1.12813 -0.0185173 0)
(1.12482 -0.0167629 0)
(1.12146 -0.0153827 0)
(1.11988 -0.0135022 0)
(1.12403 -0.0111396 0)
(1.12785 -0.00891196 0)
(1.12727 -0.00706776 0)
(1.12422 -0.00563648 0)
(1.11938 -0.00425889 0)
(1.11286 -0.00267131 0)
(1.1075 -0.000231919 0)
(1.10339 0.00237312 0)
(1.09982 0.00417264 0)
(1.09619 0.00528682 0)
(1.09332 0.00660059 0)
(1.0969 0.00883916 0)
(1.10302 0.0111456 0)
(1.1034 0.0128297 0)
(1.10009 0.0138572 0)
(1.09441 0.0147331 0)
(1.08539 0.0155946 0)
(1.07848 0.0174659 0)
(1.07356 0.0195836 0)
(1.06928 0.0211559 0)
(1.06531 0.022007 0)
(1.06159 0.0229987 0)
(1.06436 0.0248724 0)
(1.07199 0.0269487 0)
(1.07326 0.0285373 0)
(1.06998 0.0293093 0)
(1.0641 0.0299007 0)
(1.05287 0.0302128 0)
(1.0431 0.0313543 0)
(1.03664 0.0332011 0)
(1.0315 0.0347315 0)
(1.02689 0.0357133 0)
(1.02238 0.0363346 0)
(1.0239 0.0375038 0)
(1.03273 0.038913 0)
(1.03524 0.0399737 0)
(1.03186 0.040558 0)
(1.02583 0.0407787 0)
(1.01216 0.0406943 0)
(0.997665 0.0411749 0)
(0.988969 0.0428593 0)
(0.982844 0.0447236 0)
(0.977333 0.0459054 0)
(0.972723 0.0466243 0)
(0.975687 0.0472574 0)
(0.984944 0.0478988 0)
(0.986697 0.0477496 0)
(0.982762 0.0477565 0)
(0.976005 0.0489655 0)
(0.959244 0.051066 0)
(0.938518 0.0530218 0)
(0.92564 0.0557868 0)
(0.917403 0.0576389 0)
(0.910466 0.0584895 0)
(0.907285 0.0585954 0)
(0.917949 0.0573372 0)
(0.926071 0.0581042 0)
(0.922966 0.0600975 0)
(0.915469 0.0622036 0)
(0.903425 0.064929 0)
(0.878631 0.0661776 0)
(0.848994 0.0669923 0)
(0.829569 0.0669298 0)
(0.818035 0.064962 0)
(0.811406 0.0616225 0)
(0.822722 0.0583684 0)
(0.83118 0.0597283 0)
(0.824745 0.063404 0)
(0.811648 0.0647415 0)
(0.790632 0.063237 0)
(0.749764 0.0590105 0)
(0.690851 0.0529001 0)
(0.626819 0.0160376 0)
(0.237699 -0.0749688 0)
(-0.826313 -0.0497168 0)
(1.23764 -0.119601 0)
(1.24076 -0.114605 0)
(1.2434 -0.111772 0)
(1.24098 -0.109291 0)
(1.23735 -0.106934 0)
(1.23312 -0.104944 0)
(1.2276 -0.102392 0)
(1.21922 -0.0988685 0)
(1.21275 -0.0956679 0)
(1.20778 -0.0929863 0)
(1.20361 -0.0908415 0)
(1.20014 -0.0887686 0)
(1.20138 -0.0856423 0)
(1.20615 -0.0826067 0)
(1.20587 -0.0798225 0)
(1.20274 -0.0773869 0)
(1.19867 -0.0754782 0)
(1.19417 -0.0736628 0)
(1.18603 -0.0708763 0)
(1.17784 -0.0676369 0)
(1.17192 -0.0647455 0)
(1.16724 -0.0623649 0)
(1.16321 -0.0604676 0)
(1.16087 -0.0579961 0)
(1.16493 -0.0545811 0)
(1.1676 -0.0516365 0)
(1.16544 -0.0492555 0)
(1.16165 -0.0474218 0)
(1.1575 -0.0460273 0)
(1.15008 -0.0440696 0)
(1.14013 -0.0411391 0)
(1.13318 -0.0382228 0)
(1.12794 -0.0357994 0)
(1.12354 -0.0339998 0)
(1.11993 -0.0322464 0)
(1.12157 -0.0289531 0)
(1.12618 -0.0251639 0)
(1.1255 -0.0223731 0)
(1.12192 -0.020471 0)
(1.11778 -0.0194318 0)
(1.1101 -0.0182717 0)
(1.09898 -0.0163693 0)
(1.09128 -0.0138143 0)
(1.08552 -0.0115151 0)
(1.08081 -0.00986558 0)
(1.0765 -0.00833155 0)
(1.07656 -0.00524462 0)
(1.08241 -0.000663632 0)
(1.08309 0.00260129 0)
(1.07974 0.00443097 0)
(1.0755 0.00517196 0)
(1.0674 0.00577084 0)
(1.05455 0.0068171 0)
(1.04527 0.00909537 0)
(1.03869 0.0114246 0)
(1.03322 0.0132816 0)
(1.02828 0.0144732 0)
(1.02836 0.0167402 0)
(1.03584 0.0207695 0)
(1.03733 0.0241163 0)
(1.03355 0.0263261 0)
(1.02891 0.0272492 0)
(1.01953 0.0280029 0)
(1.00379 0.0284293 0)
(0.992747 0.0298939 0)
(0.985398 0.0316687 0)
(0.979209 0.0328683 0)
(0.974047 0.0336306 0)
(0.976445 0.0363218 0)
(0.985489 0.0398579 0)
(0.986313 0.0437306 0)
(0.981677 0.0462779 0)
(0.975864 0.0471605 0)
(0.962991 0.0474647 0)
(0.942233 0.0462899 0)
(0.927903 0.0461019 0)
(0.918964 0.0469172 0)
(0.911889 0.0470614 0)
(0.908337 0.0480432 0)
(0.916181 0.0521437 0)
(0.921996 0.0570905 0)
(0.919761 0.0620458 0)
(0.913363 0.0646911 0)
(0.904379 0.0644683 0)
(0.884067 0.060515 0)
(0.852825 0.0558417 0)
(0.832126 0.0541847 0)
(0.819823 0.0536554 0)
(0.810817 0.0524952 0)
(0.812889 0.055265 0)
(0.818887 0.0661131 0)
(0.813811 0.0731588 0)
(0.801576 0.0734042 0)
(0.782468 0.0708117 0)
(0.743497 0.0642696 0)
(0.685809 0.0572452 0)
(0.62712 0.0216284 0)
(0.230853 -0.0741445 0)
(-0.840277 -0.0639366 0)
(1.23329 -0.116342 0)
(1.23607 -0.110852 0)
(1.23859 -0.107924 0)
(1.23628 -0.105688 0)
(1.23266 -0.103445 0)
(1.22834 -0.101315 0)
(1.22291 -0.0988696 0)
(1.2148 -0.0962683 0)
(1.20841 -0.0937043 0)
(1.20334 -0.0908597 0)
(1.19911 -0.088168 0)
(1.19565 -0.0857544 0)
(1.1969 -0.0825333 0)
(1.20163 -0.0793709 0)
(1.20149 -0.0767822 0)
(1.19843 -0.0745509 0)
(1.19431 -0.072574 0)
(1.18973 -0.0706778 0)
(1.18185 -0.0685209 0)
(1.17369 -0.0662291 0)
(1.16781 -0.0635282 0)
(1.16301 -0.0605693 0)
(1.15897 -0.0580565 0)
(1.15668 -0.0553999 0)
(1.16095 -0.0521347 0)
(1.16379 -0.0492628 0)
(1.16171 -0.0469829 0)
(1.15787 -0.0451006 0)
(1.15349 -0.0434972 0)
(1.14612 -0.0417013 0)
(1.13638 -0.0399778 0)
(1.12965 -0.037854 0)
(1.12433 -0.0352776 0)
(1.11983 -0.0327791 0)
(1.1161 -0.0306123 0)
(1.11762 -0.0272782 0)
(1.12292 -0.0235195 0)
(1.1226 -0.0206734 0)
(1.11902 -0.0185224 0)
(1.11458 -0.0170477 0)
(1.10734 -0.0157811 0)
(1.09638 -0.0152677 0)
(1.08856 -0.0142586 0)
(1.0825 -0.0123136 0)
(1.07739 -0.00986159 0)
(1.07302 -0.00766661 0)
(1.07256 -0.00435277 0)
(1.07936 0.000392127 0)
(1.08094 0.00395216 0)
(1.07765 0.00614667 0)
(1.07308 0.00735487 0)
(1.06567 0.00823034 0)
(1.05269 0.00757814 0)
(1.04269 0.00793327 0)
(1.03576 0.00977975 0)
(1.03021 0.0121623 0)
(1.02536 0.0142302 0)
(1.0247 0.0171688 0)
(1.03246 0.0219084 0)
(1.03501 0.0258856 0)
(1.03178 0.0285056 0)
(1.02708 0.0297011 0)
(1.01878 0.0304757 0)
(1.00275 0.0287003 0)
(0.990098 0.0280519 0)
(0.982026 0.0294186 0)
(0.975604 0.0314031 0)
(0.970467 0.0330533 0)
(0.971714 0.036526 0)
(0.980581 0.0421086 0)
(0.982726 0.0467218 0)
(0.978754 0.0496298 0)
(0.97318 0.0505935 0)
(0.962607 0.0503599 0)
(0.941256 0.0459308 0)
(0.924029 0.0433283 0)
(0.914185 0.0439091 0)
(0.906953 0.0448889 0)
(0.901762 0.0464608 0)
(0.906654 0.0527395 0)
(0.914091 0.0597886 0)
(0.913488 0.0620315 0)
(0.907776 0.0616265 0)
(0.900023 0.0613328 0)
(0.882409 0.0599107 0)
(0.850816 0.0540842 0)
(0.827352 0.0489375 0)
(0.813344 0.0480061 0)
(0.803093 0.0475637 0)
(0.798308 0.048167 0)
(0.803418 0.0518628 0)
(0.802273 0.054058 0)
(0.792146 0.0534206 0)
(0.776839 0.0511751 0)
(0.744352 0.0449319 0)
(0.692888 0.0358235 0)
(0.640613 -0.0115345 0)
(0.228843 -0.0827464 0)
(-0.843017 -0.0543572 0)
(1.2243 -0.114733 0)
(1.22707 -0.109419 0)
(1.22939 -0.106623 0)
(1.22709 -0.10434 0)
(1.22353 -0.102109 0)
(1.21928 -0.0998674 0)
(1.21403 -0.0973079 0)
(1.20578 -0.0946754 0)
(1.19923 -0.0922661 0)
(1.19454 -0.0897534 0)
(1.19053 -0.0872234 0)
(1.18735 -0.0845692 0)
(1.18888 -0.0813285 0)
(1.19341 -0.0783883 0)
(1.19326 -0.0759051 0)
(1.19029 -0.0737367 0)
(1.1863 -0.0717283 0)
(1.18182 -0.0696818 0)
(1.17395 -0.0672217 0)
(1.16515 -0.0648149 0)
(1.15961 -0.0624091 0)
(1.15518 -0.0598573 0)
(1.15134 -0.0573285 0)
(1.14958 -0.0544188 0)
(1.15396 -0.0514153 0)
(1.15672 -0.0488838 0)
(1.15472 -0.0467256 0)
(1.15101 -0.04484 0)
(1.14664 -0.0430573 0)
(1.13942 -0.0408197 0)
(1.12902 -0.0386058 0)
(1.12224 -0.0364833 0)
(1.11738 -0.0342467 0)
(1.11312 -0.0319185 0)
(1.10962 -0.029465 0)
(1.11114 -0.0262374 0)
(1.11659 -0.0231036 0)
(1.11666 -0.0206963 0)
(1.11333 -0.0187571 0)
(1.109 -0.0172302 0)
(1.10284 -0.0157495 0)
(1.09122 -0.0147528 0)
(1.08199 -0.0128361 0)
(1.07617 -0.0103004 0)
(1.07138 -0.00767234 0)
(1.06717 -0.0054337 0)
(1.06636 -0.00274854 0)
(1.07315 0.000686658 0)
(1.07572 0.00349618 0)
(1.07287 0.00548082 0)
(1.06837 0.00676964 0)
(1.06241 0.00779187 0)
(1.04929 0.00778424 0)
(1.03701 0.00896759 0)
(1.02987 0.0112714 0)
(1.0244 0.0138071 0)
(1.01966 0.0160231 0)
(1.01839 0.0186922 0)
(1.02574 0.0225384 0)
(1.0295 0.0257523 0)
(1.02692 0.0277461 0)
(1.02236 0.0287176 0)
(1.01601 0.0293913 0)
(1.00087 0.0283244 0)
(0.985237 0.0276314 0)
(0.975999 0.0292272 0)
(0.969364 0.0313272 0)
(0.963846 0.0329631 0)
(0.962831 0.035921 0)
(0.971259 0.0412603 0)
(0.975119 0.0451894 0)
(0.972158 0.0471427 0)
(0.966921 0.0480094 0)
(0.959451 0.0484301 0)
(0.940141 0.0455624 0)
(0.918689 0.0415568 0)
(0.906417 0.0414297 0)
(0.898645 0.0428155 0)
(0.892302 0.0439307 0)
(0.892872 0.0478277 0)
(0.901397 0.055505 0)
(0.902865 0.0607812 0)
(0.897815 0.0635476 0)
(0.890734 0.0645166 0)
(0.878875 0.0642507 0)
(0.851833 0.0558382 0)
(0.823157 0.0453449 0)
(0.805381 0.0402179 0)
(0.793984 0.0395203 0)
(0.785021 0.0399583 0)
(0.783793 0.0456209 0)
(0.782703 0.0531273 0)
(0.774701 0.0539455 0)
(0.762188 0.051167 0)
(0.739566 0.0444306 0)
(0.701701 0.0291131 0)
(0.668344 -0.0225183 0)
(0.225807 -0.0791582 0)
(-0.848789 -0.0487815 0)
(1.21477 -0.111121 0)
(1.21764 -0.105789 0)
(1.21993 -0.102751 0)
(1.21776 -0.100304 0)
(1.21436 -0.0978823 0)
(1.21031 -0.0954515 0)
(1.20554 -0.0928758 0)
(1.19778 -0.0902948 0)
(1.19044 -0.0882411 0)
(1.1856 -0.0863112 0)
(1.18159 -0.0844873 0)
(1.17836 -0.0822679 0)
(1.18017 -0.0786682 0)
(1.18478 -0.0751865 0)
(1.1847 -0.0725542 0)
(1.18188 -0.0702715 0)
(1.17813 -0.0681023 0)
(1.17382 -0.0659094 0)
(1.16671 -0.0632775 0)
(1.15749 -0.0610112 0)
(1.15156 -0.0591779 0)
(1.1471 -0.0574616 0)
(1.14314 -0.0557998 0)
(1.14146 -0.053155 0)
(1.14605 -0.0495845 0)
(1.14881 -0.0466008 0)
(1.14703 -0.0441338 0)
(1.14359 -0.0419056 0)
(1.13942 -0.039863 0)
(1.133 -0.0374277 0)
(1.12259 -0.0351606 0)
(1.11512 -0.0334281 0)
(1.11 -0.031865 0)
(1.10563 -0.0304566 0)
(1.10192 -0.028896 0)
(1.10332 -0.0259591 0)
(1.10885 -0.0225025 0)
(1.10927 -0.0195641 0)
(1.10637 -0.017082 0)
(1.10238 -0.0149893 0)
(1.09711 -0.0128765 0)
(1.08597 -0.011125 0)
(1.07555 -0.00996995 0)
(1.06932 -0.00853879 0)
(1.06439 -0.00704631 0)
(1.06004 -0.00559409 0)
(1.05896 -0.00336711 0)
(1.06525 -0.000182742 0)
(1.06821 0.00301098 0)
(1.06599 0.00575157 0)
(1.06195 0.00798934 0)
(1.05692 0.00998422 0)
(1.04536 0.011079 0)
(1.03116 0.0106965 0)
(1.02293 0.0117397 0)
(1.01731 0.0133366 0)
(1.01248 0.014918 0)
(1.0106 0.0173062 0)
(1.01707 0.0213116 0)
(1.02147 0.0251665 0)
(1.01959 0.0279154 0)
(1.01547 0.029969 0)
(1.01021 0.031512 0)
(0.998486 0.0313618 0)
(0.980369 0.0278796 0)
(0.968732 0.0272565 0)
(0.961736 0.0290593 0)
(0.955996 0.0309566 0)
(0.952881 0.0338321 0)
(0.959512 0.0398033 0)
(0.96525 0.045537 0)
(0.963345 0.048274 0)
(0.958489 0.0495323 0)
(0.952603 0.050114 0)
(0.9393 0.0485298 0)
(0.915879 0.042079 0)
(0.899322 0.0382963 0)
(0.890292 0.0387361 0)
(0.8834 0.0397434 0)
(0.879391 0.042286 0)
(0.885567 0.0505303 0)
(0.890927 0.0590381 0)
(0.887884 0.0624828 0)
(0.881105 0.0629726 0)
(0.872619 0.0624138 0)
(0.853774 0.0575083 0)
(0.823646 0.0452501 0)
(0.800134 0.0356644 0)
(0.786545 0.0314445 0)
(0.776905 0.0307394 0)
(0.772142 0.0322447 0)
(0.772141 0.0371696 0)
(0.767929 0.037806 0)
(0.759341 0.0338504 0)
(0.746444 0.0302128 0)
(0.719968 0.0230377 0)
(0.693038 -0.0119348 0)
(0.226327 -0.0738342 0)
(-0.853002 -0.0435901 0)
(1.20589 -0.109115 0)
(1.20863 -0.103991 0)
(1.21131 -0.100666 0)
(1.20932 -0.0980438 0)
(1.20611 -0.0955601 0)
(1.20228 -0.0931925 0)
(1.19785 -0.0909144 0)
(1.19093 -0.0884168 0)
(1.183 -0.0861461 0)
(1.17774 -0.0841701 0)
(1.17363 -0.0824073 0)
(1.17015 -0.0807045 0)
(1.1715 -0.0774961 0)
(1.17662 -0.0737176 0)
(1.17686 -0.0708438 0)
(1.17424 -0.0684748 0)
(1.17069 -0.0663218 0)
(1.16658 -0.0643148 0)
(1.16034 -0.0620133 0)
(1.15097 -0.0598138 0)
(1.14449 -0.0578273 0)
(1.13971 -0.0558771 0)
(1.13568 -0.0541911 0)
(1.13349 -0.0518667 0)
(1.13813 -0.048152 0)
(1.14136 -0.0449102 0)
(1.13984 -0.0424775 0)
(1.1366 -0.0404105 0)
(1.13266 -0.0386505 0)
(1.12713 -0.0368381 0)
(1.11683 -0.0356822 0)
(1.10857 -0.0342277 0)
(1.10308 -0.0319481 0)
(1.09852 -0.0294547 0)
(1.09472 -0.0272164 0)
(1.09562 -0.0239648 0)
(1.10134 -0.0203136 0)
(1.10223 -0.0174908 0)
(1.09966 -0.0153119 0)
(1.09592 -0.0136734 0)
(1.09139 -0.0123512 0)
(1.08145 -0.0119231 0)
(1.0698 -0.0119363 0)
(1.06263 -0.0102411 0)
(1.05731 -0.00778808 0)
(1.05286 -0.00545041 0)
(1.05134 -0.00227718 0)
(1.05725 0.00207117 0)
(1.0607 0.00559313 0)
(1.05901 0.0081607 0)
(1.05536 0.0102001 0)
(1.05097 0.011501 0)
(1.04206 0.0119851 0)
(1.02667 0.0102424 0)
(1.01619 0.00987776 0)
(1.01017 0.0113883 0)
(1.00522 0.0130931 0)
(1.00244 0.0157555 0)
(1.00759 0.021121 0)
(1.013 0.0262991 0)
(1.01199 0.029133 0)
(1.00826 0.031003 0)
(1.0035 0.0322331 0)
(0.995582 0.0327413 0)
(0.977879 0.0298307 0)
(0.962559 0.0269147 0)
(0.954383 0.0268095 0)
(0.94868 0.0278493 0)
(0.944044 0.0297693 0)
(0.947281 0.0356206 0)
(0.955157 0.0441279 0)
(0.955415 0.0485092 0)
(0.951038 0.0498066 0)
(0.945636 0.0500898 0)
(0.936985 0.0498446 0)
(0.916522 0.0442095 0)
(0.895813 0.0381413 0)
(0.883768 0.0353397 0)
(0.876056 0.0356852 0)
(0.869718 0.0367741 0)
(0.870286 0.0422725 0)
(0.877962 0.0528838 0)
(0.878952 0.0601431 0)
(0.873677 0.0628828 0)
(0.866287 0.0633442 0)
(0.854702 0.0617423 0)
(0.83006 0.0510544 0)
(0.802251 0.0367596 0)
(0.783636 0.0275827 0)
(0.772835 0.0232565 0)
(0.76497 0.0222263 0)
(0.763094 0.0251873 0)
(0.761578 0.0282167 0)
(0.756546 0.0251054 0)
(0.74851 0.0194278 0)
(0.733199 0.0129797 0)
(0.717144 -0.00806079 0)
(0.230312 -0.066956 0)
(-0.856872 -0.0388065 0)
(1.19932 -0.105528 0)
(1.20112 -0.101388 0)
(1.20427 -0.0982296 0)
(1.2027 -0.0951889 0)
(1.19978 -0.0923735 0)
(1.19613 -0.0899897 0)
(1.19191 -0.0879156 0)
(1.18553 -0.085619 0)
(1.17724 -0.0834109 0)
(1.17174 -0.0813757 0)
(1.16749 -0.0794493 0)
(1.1639 -0.0776567 0)
(1.16454 -0.074681 0)
(1.16977 -0.0711113 0)
(1.1705 -0.0682022 0)
(1.16821 -0.0657152 0)
(1.16486 -0.0634841 0)
(1.16089 -0.0615998 0)
(1.15531 -0.0597923 0)
(1.14571 -0.0585041 0)
(1.13837 -0.0569473 0)
(1.1335 -0.0547765 0)
(1.12939 -0.0526383 0)
(1.12689 -0.0499261 0)
(1.13108 -0.0457409 0)
(1.135 -0.0421045 0)
(1.13393 -0.039706 0)
(1.13095 -0.037772 0)
(1.1272 -0.0361385 0)
(1.12266 -0.0346927 0)
(1.11315 -0.033977 0)
(1.10313 -0.0334344 0)
(1.09696 -0.031722 0)
(1.09229 -0.029348 0)
(1.08841 -0.0268041 0)
(1.08876 -0.0228557 0)
(1.09451 -0.0182431 0)
(1.09611 -0.0152066 0)
(1.094 -0.0131448 0)
(1.09057 -0.0113528 0)
(1.08646 -0.0100772 0)
(1.07912 -0.00940241 0)
(1.06599 -0.0104662 0)
(1.05636 -0.01019 0)
(1.05069 -0.00821567 0)
(1.04615 -0.00600755 0)
(1.04397 -0.00279444 0)
(1.04937 0.00266095 0)
(1.05387 0.00713074 0)
(1.05277 0.00949545 0)
(1.04945 0.0112574 0)
(1.04526 0.0125397 0)
(1.03917 0.013386 0)
(1.025 0.0117245 0)
(1.01161 0.0101422 0)
(1.00406 0.0104812 0)
(0.998865 0.0117966 0)
(0.994756 0.0135578 0)
(0.997305 0.0189355 0)
(1.00458 0.026739 0)
(1.00557 0.0309999 0)
(1.00233 0.0327312 0)
(0.997708 0.0336121 0)
(0.992008 0.0341593 0)
(0.978012 0.0318964 0)
(0.960307 0.0275014 0)
(0.94939 0.0257635 0)
(0.942554 0.0261284 0)
(0.936998 0.0271437 0)
(0.935232 0.030741 0)
(0.943353 0.0403443 0)
(0.948179 0.0483818 0)
(0.94562 0.0510705 0)
(0.940525 0.0513625 0)
(0.93432 0.0510895 0)
(0.920348 0.0475031 0)
(0.897605 0.0381596 0)
(0.880833 0.0329383 0)
(0.871107 0.0315755 0)
(0.864192 0.0319683 0)
(0.859643 0.0339265 0)
(0.86443 0.0423108 0)
(0.870321 0.0523074 0)
(0.8687 0.057595 0)
(0.862559 0.0597383 0)
(0.854549 0.0601164 0)
(0.838967 0.0566596 0)
(0.81259 0.0422872 0)
(0.788763 0.0272615 0)
(0.772819 0.0187426 0)
(0.763547 0.0151084 0)
(0.757891 0.0143315 0)
(0.758114 0.0168832 0)
(0.757035 0.0157865 0)
(0.75309 0.00888771 0)
(0.744647 0.00304322 0)
(0.733881 -0.00628542 0)
(0.235739 -0.0598264 0)
(-0.860762 -0.0354512 0)
(1.1944 -0.102668 0)
(1.19605 -0.0978479 0)
(1.19889 -0.0951738 0)
(1.19729 -0.0928141 0)
(1.19445 -0.0904342 0)
(1.19088 -0.0883419 0)
(1.18679 -0.0864575 0)
(1.18099 -0.0842468 0)
(1.1725 -0.0819784 0)
(1.16666 -0.08001 0)
(1.16238 -0.0780408 0)
(1.15879 -0.0760792 0)
(1.15904 -0.0726814 0)
(1.16428 -0.0684997 0)
(1.16543 -0.0654782 0)
(1.16321 -0.0633012 0)
(1.1599 -0.0614005 0)
(1.156 -0.0597443 0)
(1.15134 -0.0581051 0)
(1.14225 -0.0567768 0)
(1.1336 -0.0555656 0)
(1.1283 -0.054032 0)
(1.12411 -0.0522729 0)
(1.12115 -0.0498156 0)
(1.12453 -0.0448901 0)
(1.12952 -0.0399315 0)
(1.12925 -0.0370387 0)
(1.12644 -0.0351614 0)
(1.12277 -0.033656 0)
(1.11868 -0.0323889 0)
(1.11138 -0.0317503 0)
(1.10002 -0.031965 0)
(1.09193 -0.0309971 0)
(1.08684 -0.0293273 0)
(1.08275 -0.0273443 0)
(1.08192 -0.0234918 0)
(1.088 -0.0172617 0)
(1.09112 -0.0130141 0)
(1.08938 -0.0111076 0)
(1.08593 -0.00991459 0)
(1.08186 -0.00892474 0)
(1.07659 -0.00804434 0)
(1.0645 -0.00883769 0)
(1.05226 -0.00923866 0)
(1.04521 -0.00821999 0)
(1.04044 -0.00667026 0)
(1.03707 -0.00432628 0)
(1.0408 0.00162594 0)
(1.04759 0.00855886 0)
(1.04806 0.0118139 0)
(1.04495 0.0130529 0)
(1.04085 0.013889 0)
(1.03612 0.0144961 0)
(1.0251 0.0133554 0)
(1.00984 0.0103677 0)
(0.999821 0.0100284 0)
(0.993496 0.0112978 0)
(0.988668 0.0129567 0)
(0.986945 0.0165419 0)
(0.994665 0.0251652 0)
(0.999826 0.032073 0)
(0.998094 0.0342942 0)
(0.993695 0.0347667 0)
(0.988964 0.0348508 0)
(0.979847 0.0333659 0)
(0.961514 0.0276948 0)
(0.946857 0.0242054 0)
(0.937879 0.0242577 0)
(0.931611 0.025678 0)
(0.926819 0.0275264 0)
(0.930007 0.0343642 0)
(0.939343 0.0451925 0)
(0.941047 0.0510748 0)
(0.937237 0.0528191 0)
(0.93193 0.053058 0)
(0.923551 0.0519227 0)
(0.903717 0.0438423 0)
(0.882192 0.033795 0)
(0.869116 0.0296732 0)
(0.860972 0.0283733 0)
(0.854403 0.0284745 0)
(0.852246 0.0321751 0)
(0.858525 0.043254 0)
(0.861422 0.0525778 0)
(0.857976 0.0568551 0)
(0.851229 0.0583214 0)
(0.842525 0.0575328 0)
(0.825636 0.0504946 0)
(0.800087 0.0338903 0)
(0.778702 0.0191447 0)
(0.764677 0.010725 0)
(0.75673 0.0072909 0)
(0.75327 0.00736575 0)
(0.755016 0.00945154 0)
(0.755549 0.00437025 0)
(0.751925 -0.00374788 0)
(0.745805 -0.00827335 0)
(0.242455 -0.0533053 0)
(-0.863654 -0.0319101 0)
(1.19055 -0.100376 0)
(1.19239 -0.0947966 0)
(1.19551 -0.0916559 0)
(1.1939 -0.0894788 0)
(1.19108 -0.0873455 0)
(1.18762 -0.0854374 0)
(1.18364 -0.0836919 0)
(1.17838 -0.081777 0)
(1.16969 -0.0797784 0)
(1.16327 -0.0778725 0)
(1.1588 -0.0760039 0)
(1.15501 -0.0743198 0)
(1.15415 -0.07125 0)
(1.15954 -0.0663237 0)
(1.16162 -0.0627565 0)
(1.15973 -0.0604623 0)
(1.15656 -0.0585987 0)
(1.15279 -0.0570322 0)
(1.14863 -0.0556469 0)
(1.14061 -0.0545835 0)
(1.13093 -0.0537398 0)
(1.12471 -0.0522224 0)
(1.12027 -0.050506 0)
(1.11662 -0.048794 0)
(1.11797 -0.04466 0)
(1.12427 -0.0387017 0)
(1.12536 -0.0350747 0)
(1.1229 -0.0330264 0)
(1.1194 -0.0314577 0)
(1.11542 -0.0301984 0)
(1.10986 -0.0292356 0)
(1.09836 -0.0298909 0)
(1.08854 -0.0296093 0)
(1.08263 -0.0280279 0)
(1.07828 -0.0264424 0)
(1.07546 -0.0241804 0)
(1.08056 -0.0182901 0)
(1.0863 -0.0124276 0)
(1.0857 -0.00962727 0)
(1.08246 -0.00812739 0)
(1.07851 -0.00703443 0)
(1.07401 -0.00606347 0)
(1.06376 -0.0061866 0)
(1.05026 -0.00771149 0)
(1.04171 -0.00730928 0)
(1.03637 -0.00600434 0)
(1.03213 -0.00489651 0)
(1.03198 -0.00141634 0)
(1.04026 0.00659548 0)
(1.04381 0.0121804 0)
(1.04153 0.0142699 0)
(1.0376 0.0151309 0)
(1.03328 0.0157548 0)
(1.02569 0.0157327 0)
(1.01001 0.0124366 0)
(0.99721 0.0104425 0)
(0.98948 0.0110447 0)
(0.984049 0.0122314 0)
(0.979863 0.0139259 0)
(0.983501 0.0202483 0)
(0.992949 0.0297783 0)
(0.994669 0.0344919 0)
(0.991306 0.0357453 0)
(0.98672 0.0357102 0)
(0.980527 0.0356115 0)
(0.965359 0.0316429 0)
(0.946586 0.0256518 0)
(0.934997 0.0238128 0)
(0.927886 0.0239696 0)
(0.922482 0.024673 0)
(0.91982 0.0274007 0)
(0.927856 0.0375307 0)
(0.935267 0.0477115 0)
(0.934169 0.0519493 0)
(0.92933 0.0531387 0)
(0.923484 0.0535461 0)
(0.911803 0.0510981 0)
(0.889708 0.0391164 0)
(0.870925 0.0288623 0)
(0.859267 0.0256695 0)
(0.851787 0.0252045 0)
(0.845883 0.0257029 0)
(0.846547 0.0309803 0)
(0.852759 0.0419067 0)
(0.853723 0.0491133 0)
(0.849527 0.0518408 0)
(0.842541 0.0527183 0)
(0.832388 0.0511978 0)
(0.814327 0.0428073 0)
(0.790038 0.0254638 0)
(0.770469 0.0107172 0)
(0.758067 0.00201528 0)
(0.751543 -0.000959139 0)
(0.75142 -0.000301213 0)
(0.75616 -0.00122883 0)
(0.757552 -0.00822775 0)
(0.754212 -0.0115365 0)
(0.249396 -0.0460498 0)
(-0.866408 -0.0289433 0)
(1.18723 -0.0984519 0)
(1.18847 -0.0926746 0)
(1.19292 -0.0885001 0)
(1.19166 -0.0863644 0)
(1.18884 -0.0845009 0)
(1.1854 -0.0828311 0)
(1.18148 -0.0812678 0)
(1.17646 -0.079547 0)
(1.16777 -0.0778012 0)
(1.1607 -0.0761102 0)
(1.15593 -0.0742632 0)
(1.15199 -0.0725478 0)
(1.14976 -0.0699429 0)
(1.15456 -0.0649586 0)
(1.15816 -0.0606924 0)
(1.15685 -0.058311 0)
(1.15382 -0.0565263 0)
(1.15016 -0.0549685 0)
(1.14609 -0.0535833 0)
(1.13938 -0.052437 0)
(1.12905 -0.0519602 0)
(1.12196 -0.0506992 0)
(1.11721 -0.0489456 0)
(1.11328 -0.0472911 0)
(1.1121 -0.0442408 0)
(1.11848 -0.0384081 0)
(1.12157 -0.0340257 0)
(1.11974 -0.0317029 0)
(1.11641 -0.0300129 0)
(1.11249 -0.0286224 0)
(1.10799 -0.0273861 0)
(1.09778 -0.0273117 0)
(1.08623 -0.0278332 0)
(1.07957 -0.0267728 0)
(1.07498 -0.0253033 0)
(1.07118 -0.023718 0)
(1.07286 -0.0195477 0)
(1.08057 -0.0126664 0)
(1.0821 -0.00873339 0)
(1.07935 -0.0069099 0)
(1.07558 -0.00559854 0)
(1.07141 -0.00450269 0)
(1.06387 -0.00402004 0)
(1.04973 -0.00584332 0)
(1.03963 -0.00659341 0)
(1.03363 -0.00570488 0)
(1.02894 -0.004447 0)
(1.02553 -0.00260883 0)
(1.03074 0.00384051 0)
(1.03841 0.0118595 0)
(1.0384 0.0153978 0)
(1.03494 0.0167517 0)
(1.03085 0.0175495 0)
(1.02562 0.0180318 0)
(1.01221 0.0156254 0)
(0.996312 0.01188 0)
(0.98711 0.0113339 0)
(0.9811 0.0122579 0)
(0.976131 0.0131352 0)
(0.97418 0.0156018 0)
(0.98316 0.02454 0)
(0.989997 0.0328087 0)
(0.988632 0.0359908 0)
(0.984556 0.0376168 0)
(0.979801 0.0385825 0)
(0.969709 0.0375474 0)
(0.949917 0.0301431 0)
(0.934561 0.0242825 0)
(0.925898 0.0228775 0)
(0.919714 0.0226964 0)
(0.91448 0.0233281 0)
(0.914876 0.0282432 0)
(0.92491 0.0412763 0)
(0.929113 0.050459 0)
(0.926318 0.0539175 0)
(0.921293 0.0546418 0)
(0.914999 0.0544367 0)
(0.900434 0.0492956 0)
(0.87697 0.0358386 0)
(0.8603 0.0268763 0)
(0.850381 0.0237665 0)
(0.843698 0.0224504 0)
(0.838492 0.0229807 0)
(0.840933 0.0297854 0)
(0.845801 0.0403498 0)
(0.845016 0.046445 0)
(0.840059 0.0485036 0)
(0.832864 0.0486431 0)
(0.82255 0.0448555 0)
(0.804923 0.0344954 0)
(0.781936 0.0164626 0)
(0.763895 0.00118143 0)
(0.753239 -0.00779046 0)
(0.748449 -0.0096872 0)
(0.752787 -0.00946385 0)
(0.759823 -0.0130491 0)
(0.759762 -0.0155849 0)
(0.257398 -0.0369168 0)
(-0.868802 -0.0257829 0)
(1.1839 -0.0967615 0)
(1.1834 -0.091634 0)
(1.18942 -0.0862501 0)
(1.18899 -0.0835279 0)
(1.1862 -0.0816874 0)
(1.18277 -0.0801775 0)
(1.17889 -0.0787477 0)
(1.17428 -0.0772332 0)
(1.16576 -0.0757322 0)
(1.15795 -0.0742299 0)
(1.15295 -0.0725204 0)
(1.14894 -0.0708707 0)
(1.14583 -0.0688825 0)
(1.14896 -0.0642862 0)
(1.15425 -0.0591947 0)
(1.15382 -0.0563767 0)
(1.15096 -0.0545422 0)
(1.14742 -0.0529664 0)
(1.14342 -0.0515836 0)
(1.13796 -0.0502628 0)
(1.12751 -0.0497635 0)
(1.1192 -0.048935 0)
(1.11418 -0.0474709 0)
(1.11017 -0.0459983 0)
(1.10741 -0.0438165 0)
(1.11211 -0.0385216 0)
(1.11743 -0.0330874 0)
(1.11659 -0.0303167 0)
(1.11345 -0.028583 0)
(1.10967 -0.0271067 0)
(1.10551 -0.0257842 0)
(1.09744 -0.0248826 0)
(1.08484 -0.0255347 0)
(1.07706 -0.0253435 0)
(1.07224 -0.0243626 0)
(1.06824 -0.0234282 0)
(1.06647 -0.0209521 0)
(1.07342 -0.0140791 0)
(1.07796 -0.00807049 0)
(1.07629 -0.00547208 0)
(1.07272 -0.00404969 0)
(1.06868 -0.00287053 0)
(1.06346 -0.00190687 0)
(1.05108 -0.00336139 0)
(1.03842 -0.00554021 0)
(1.03133 -0.0054444 0)
(1.02624 -0.00436132 0)
(1.0219 -0.00329218 0)
(1.02154 0.000301042 0)
(1.03053 0.00963454 0)
(1.03452 0.0161346 0)
(1.03231 0.0184272 0)
(1.0283 0.0192209 0)
(1.02395 0.0199064 0)
(1.01531 0.019162 0)
(0.998443 0.0140835 0)
(0.986147 0.0108948 0)
(0.979288 0.0108329 0)
(0.973795 0.0116693 0)
(0.969124 0.0127326 0)
(0.971173 0.0183325 0)
(0.981519 0.0303848 0)
(0.984375 0.0373479 0)
(0.98163 0.0393883 0)
(0.977151 0.0399407 0)
(0.971813 0.040215 0)
(0.958478 0.0355305 0)
(0.938746 0.0253028 0)
(0.925724 0.0203714 0)
(0.917729 0.0201827 0)
(0.91192 0.0207742 0)
(0.907287 0.0219035 0)
(0.911002 0.0293258 0)
(0.920848 0.0433116 0)
(0.922945 0.0506597 0)
(0.919197 0.052919 0)
(0.913602 0.0536741 0)
(0.905643 0.0540825 0)
(0.889087 0.046879 0)
(0.867125 0.0317061 0)
(0.852124 0.0224302 0)
(0.842474 0.0197147 0)
(0.83596 0.0190482 0)
(0.83187 0.0202978 0)
(0.835503 0.0281821 0)
(0.839201 0.0371493 0)
(0.837531 0.0413071 0)
(0.832465 0.0423886 0)
(0.825216 0.0421391 0)
(0.814558 0.0373499 0)
(0.797665 0.0255733 0)
(0.776258 0.0060303 0)
(0.759408 -0.0095947 0)
(0.750368 -0.0174317 0)
(0.748528 -0.0197426 0)
(0.757775 -0.0222091 0)
(0.7617 -0.0225194 0)
(0.265048 -0.0256655 0)
(-0.87128 -0.0232859 0)
(1.18054 -0.0946875 0)
(1.17772 -0.0908856 0)
(1.18474 -0.0846799 0)
(1.18615 -0.0810923 0)
(1.18369 -0.0790694 0)
(1.18031 -0.0775874 0)
(1.17649 -0.0761726 0)
(1.17216 -0.0747428 0)
(1.16408 -0.073433 0)
(1.15544 -0.0722437 0)
(1.15 -0.070726 0)
(1.14582 -0.0691492 0)
(1.14224 -0.0676535 0)
(1.1429 -0.0640492 0)
(1.14943 -0.0581167 0)
(1.15073 -0.0544212 0)
(1.14821 -0.0524761 0)
(1.14479 -0.0509184 0)
(1.14091 -0.0495525 0)
(1.13634 -0.0482283 0)
(1.12665 -0.047611 0)
(1.11695 -0.0472181 0)
(1.1113 -0.0460341 0)
(1.10707 -0.044689 0)
(1.10353 -0.043303 0)
(1.10528 -0.0391833 0)
(1.11239 -0.0326358 0)
(1.1134 -0.0287992 0)
(1.11064 -0.0268476 0)
(1.10707 -0.0253173 0)
(1.10308 -0.024046 0)
(1.09711 -0.0230368 0)
(1.0849 -0.0238061 0)
(1.07521 -0.0243602 0)
(1.06968 -0.0235957 0)
(1.06535 -0.022472 0)
(1.06178 -0.0211825 0)
(1.06488 -0.0161161 0)
(1.07257 -0.00815135 0)
(1.07328 -0.0039959 0)
(1.07029 -0.00218482 0)
(1.06654 -0.000962496 0)
(1.06241 -4.89924e-05 0)
(1.05351 -0.00074334 0)
(1.03906 -0.00415444 0)
(1.02949 -0.00532446 0)
(1.02365 -0.00451773 0)
(1.01892 -0.00327825 0)
(1.01521 -0.00166307 0)
(1.02 0.00512465 0)
(1.02872 0.0150217 0)
(1.02947 0.0194779 0)
(1.02623 0.021048 0)
(1.02223 0.0217538 0)
(1.01709 0.0220112 0)
(1.00353 0.0181284 0)
(0.987488 0.0118405 0)
(0.977731 0.00974467 0)
(0.971166 0.0104043 0)
(0.965872 0.0116945 0)
(0.962441 0.0137659 0)
(0.968967 0.0230149 0)
(0.977856 0.0351012 0)
(0.978414 0.0401025 0)
(0.97519 0.0414129 0)
(0.970675 0.0415062 0)
(0.963969 0.0412971 0)
(0.946833 0.0340875 0)
(0.9281 0.0239527 0)
(0.917143 0.019803 0)
(0.910104 0.0189578 0)
(0.904272 0.0191153 0)
(0.900115 0.0210882 0)
(0.905967 0.0318506 0)
(0.91472 0.0465603 0)
(0.914906 0.0534039 0)
(0.910648 0.0551221 0)
(0.905428 0.0546398 0)
(0.89758 0.0528032 0)
(0.879759 0.0431428 0)
(0.857848 0.0283251 0)
(0.843664 0.019982 0)
(0.834792 0.0169156 0)
(0.828666 0.015989 0)
(0.825826 0.0179686 0)
(0.830072 0.026643 0)
(0.83256 0.0343691 0)
(0.830351 0.0371069 0)
(0.825482 0.0369538 0)
(0.818554 0.0356828 0)
(0.80856 0.0294421 0)
(0.792815 0.0158464 0)
(0.772936 -0.00492447 0)
(0.756798 -0.0198726 0)
(0.749209 -0.0273699 0)
(0.752344 -0.0324382 0)
(0.758785 -0.0325919 0)
(0.270887 -0.0148776 0)
(-0.873675 -0.0217519 0)
(1.17733 -0.0924452 0)
(1.17268 -0.0900102 0)
(1.17872 -0.0838979 0)
(1.18271 -0.0791268 0)
(1.18099 -0.0766242 0)
(1.17776 -0.0750087 0)
(1.17406 -0.0735175 0)
(1.17003 -0.072115 0)
(1.163 -0.0709354 0)
(1.15356 -0.0702591 0)
(1.14739 -0.0690758 0)
(1.14291 -0.0675848 0)
(1.13909 -0.0662233 0)
(1.13723 -0.06375 0)
(1.1432 -0.0577719 0)
(1.14714 -0.0527063 0)
(1.1454 -0.0503345 0)
(1.14216 -0.04875 0)
(1.13845 -0.0473896 0)
(1.13442 -0.0461344 0)
(1.12635 -0.0454159 0)
(1.11555 -0.0455697 0)
(1.10887 -0.0448142 0)
(1.10425 -0.0435412 0)
(1.10035 -0.0423827 0)
(1.09885 -0.0397902 0)
(1.10572 -0.0329362 0)
(1.10976 -0.0273484 0)
(1.10794 -0.0248879 0)
(1.10456 -0.0233629 0)
(1.10075 -0.0221407 0)
(1.0963 -0.0211519 0)
(1.08604 -0.0218534 0)
(1.07439 -0.0234385 0)
(1.06742 -0.0231747 0)
(1.06244 -0.0219097 0)
(1.05834 -0.0206993 0)
(1.05688 -0.0178587 0)
(1.06474 -0.00954233 0)
(1.06948 -0.00284732 0)
(1.06781 -0.00028307 0)
(1.06421 0.000893681 0)
(1.06029 0.00170694 0)
(1.05495 0.00195461 0)
(1.04166 -0.00133093 0)
(1.02875 -0.00461242 0)
(1.02136 -0.00472483 0)
(1.01595 -0.00351169 0)
(1.01142 -0.00222531 0)
(1.01 0.00100106 0)
(1.01926 0.0112235 0)
(1.02523 0.0196354 0)
(1.02386 0.0226166 0)
(1.01995 0.023427 0)
(1.01573 0.0240799 0)
(1.00842 0.0230524 0)
(0.991881 0.0160751 0)
(0.977433 0.0107684 0)
(0.969075 0.0101189 0)
(0.963351 0.0109441 0)
(0.958552 0.0116861 0)
(0.957166 0.0147923 0)
(0.967259 0.0266634 0)
(0.974152 0.0371499 0)
(0.972796 0.0407745 0)
(0.968465 0.042521 0)
(0.963615 0.0436072 0)
(0.955442 0.0421049 0)
(0.93691 0.0311908 0)
(0.919589 0.0205881 0)
(0.909017 0.0173095 0)
(0.901663 0.0174638 0)
(0.896196 0.0178818 0)
(0.893698 0.0201319 0)
(0.902142 0.0317616 0)
(0.910046 0.0447381 0)
(0.909537 0.0497114 0)
(0.904662 0.0512924 0)
(0.898496 0.051971 0)
(0.888824 0.0508124 0)
(0.870166 0.0402333 0)
(0.849732 0.0247665 0)
(0.83624 0.0162684 0)
(0.827568 0.0133256 0)
(0.821803 0.0126045 0)
(0.820549 0.0156969 0)
(0.825512 0.0243963 0)
(0.827501 0.0302214 0)
(0.825239 0.0314414 0)
(0.820454 0.0308302 0)
(0.813937 0.0288506 0)
(0.804791 0.0213657 0)
(0.790453 0.00606508 0)
(0.771586 -0.0145562 0)
(0.754982 -0.0285338 0)
(0.749311 -0.0391857 0)
(0.753213 -0.0466273 0)
(0.272811 -0.00818142 0)