/*--------------------------------*- C++ -*----------------------------------*\
  =========                 |
  \\      /  F ield         | OpenFOAM: The Open Source CFD Toolbox
   \\    /   O peration     | Website:  https://openfoam.org
    \\  /    A nd           | Version:  12
     \\/     M anipulation  |
\*---------------------------------------------------------------------------*/
FoamFile
{
    format      ascii;
    class       volScalarField;
    location    "3";
    object      T;
}
// * * * * * * * * * * * * * * * * * * * * * * * * * * * * * * * * * * * * * //

dimensions      [0 0 0 1 0 0 0];

internalField   nonuniform List<scalar> 
1800
(
1
1
1
1
1
1
1
1
1
1
1
1
1
1
1
1
1
1
1
1
1
1
1.00016
1.00348
1.0253
1.14033
1.31558
1.45713
1.52352
1.54538
1.53421
1.51899
1.52024
1.52049
1.52206
1.52577
1.52766
1.52657
1.52319
1.52136
1.52084
1.52132
1.52369
1.526
1.52663
1.52665
1.52643
1.52537
1.52455
1.52444
1.52446
1.52499
1.5259
1.52615
1.526
1.5251
1.52388
1.52285
1.52172
1.51867
1
1
1
1
1
1
1
1
1
1
1
1
1
1
1
1
1
1
1
1
1
1.00012
1.00298
1.02693
1.0887
1.18794
1.28169
1.3561
1.43227
1.49266
1.5118
1.52034
1.52179
1.52155
1.52384
1.5262
1.52707
1.52581
1.523
1.52209
1.52192
1.52258
1.52482
1.52652
1.52706
1.52703
1.52652
1.52542
1.52482
1.52476
1.52489
1.52546
1.52616
1.52634
1.52622
1.52544
1.52435
1.52333
1.52213
1.51896
1
1
1
1
1
1
1
1
1
1
1
1
1
1
1
1
1
1
1
1
1.00008
1.00197
1.02635
1.09802
1.17794
1.23737
1.2576
1.28164
1.34615
1.44435
1.4969
1.52554
1.52424
1.5253
1.52843
1.52854
1.5276
1.5263
1.52401
1.5237
1.52389
1.5249
1.52704
1.52819
1.52848
1.5283
1.52747
1.5263
1.52583
1.52583
1.52606
1.52666
1.52707
1.52724
1.52716
1.52646
1.52545
1.52441
1.52313
1.51981
1
1
1
1
1
1
1
1
1
1
1
1
1
1
1
1
1
1
1
1.00006
1.00138
1.01611
1.09866
1.18479
1.23588
1.25431
1.25381
1.25872
1.27411
1.32842
1.42693
1.5066
1.51486
1.52949
1.53357
1.53079
1.52856
1.52746
1.526
1.52612
1.52674
1.52772
1.52934
1.53028
1.5303
1.52999
1.52891
1.52774
1.52743
1.52752
1.52799
1.52862
1.5287
1.52872
1.52868
1.52816
1.5271
1.52599
1.52461
1.52117
1
1
1
1
1
1
1
1
1
1
1
1
1
1
1
1
1
1
1.00003
1.00091
1.01132
1.06907
1.18742
1.23079
1.25253
1.25986
1.25869
1.25815
1.26049
1.26921
1.32168
1.42018
1.49069
1.53601
1.53481
1.52946
1.53041
1.52986
1.52839
1.52843
1.52909
1.52983
1.53116
1.53165
1.53153
1.53112
1.53002
1.52915
1.52907
1.52925
1.52994
1.53049
1.53049
1.53048
1.53043
1.53002
1.52913
1.52799
1.52649
1.52276
1
1
1
1
1
1
1
1
1
1
1
1
1
1
1
1
1
1.00002
1.00048
1.00853
1.04966
1.1634
1.23347
1.24672
1.25635
1.26151
1.26061
1.25996
1.25857
1.25875
1.2654
1.30761
1.41018
1.50944
1.51865
1.52581
1.53239
1.53121
1.53029
1.53047
1.53093
1.53137
1.53224
1.53239
1.5323
1.5319
1.5308
1.53019
1.53019
1.53057
1.53159
1.53225
1.53229
1.5323
1.53221
1.53177
1.53096
1.52985
1.52832
1.52441
1
1
1
1
1
1
1
1
1
1
1
1
1
1
1
1
1.00001
1.0003
1.00492
1.04415
1.13243
1.22712
1.246
1.25463
1.26254
1.2628
1.26198
1.25974
1.25745
1.25743
1.25833
1.26469
1.3072
1.40483
1.48372
1.52805
1.53033
1.53021
1.53166
1.53146
1.53156
1.532
1.53285
1.53275
1.53275
1.53244
1.5315
1.53101
1.53101
1.53152
1.53279
1.53352
1.53366
1.53368
1.53354
1.53306
1.53227
1.53117
1.52965
1.52571
1
1
1
1
1
1
1
1
1
1
1
1
1
1
1
1
1.0002
1.00376
1.03518
1.12131
1.21395
1.25362
1.25763
1.26047
1.26253
1.26196
1.26011
1.259
1.25917
1.25952
1.26001
1.25999
1.26497
1.29747
1.39192
1.49213
1.50876
1.52439
1.53297
1.53132
1.53156
1.53262
1.53303
1.53296
1.53327
1.53313
1.53242
1.53205
1.53203
1.53256
1.53385
1.53453
1.53472
1.53479
1.53463
1.53395
1.5331
1.53202
1.53058
1.5268
1
1
1
1
1
1
1
1
1
1
1
1
1
1
1
1.00016
1.00329
1.02974
1.11858
1.19677
1.25853
1.26265
1.26042
1.25869
1.257
1.25696
1.25853
1.26084
1.26238
1.26264
1.26123
1.25949
1.25971
1.26295
1.29298
1.37803
1.46631
1.51915
1.52788
1.53012
1.53385
1.53386
1.53297
1.53327
1.53376
1.53365
1.53315
1.53314
1.5332
1.53376
1.53487
1.53543
1.53569
1.53573
1.5353
1.53422
1.53336
1.53245
1.53117
1.52759
1
1
1
1
1
1
1
1
1
1
1
1
1
1
1.00014
1.00273
1.02793
1.10894
1.19666
1.2537
1.26755
1.26635
1.25973
1.25424
1.25331
1.25468
1.2588
1.26292
1.26428
1.26432
1.26228
1.25945
1.25923
1.26033
1.26527
1.28904
1.37109
1.46974
1.50173
1.52582
1.53675
1.53448
1.53322
1.5342
1.53414
1.53375
1.53387
1.53426
1.5345
1.53499
1.53575
1.53611
1.53629
1.53626
1.5353
1.53415
1.53361
1.53287
1.53167
1.52815
1
1
1
1
1
1
1
1
1
1
1
1
1
1.00007
1.00194
1.02177
1.10058
1.19532
1.24925
1.26631
1.26525
1.26009
1.2559
1.2549
1.25551
1.25739
1.26121
1.26293
1.26371
1.26334
1.26125
1.26066
1.26102
1.26211
1.26385
1.26677
1.28774
1.35606
1.45201
1.51537
1.53202
1.53099
1.53423
1.53517
1.53381
1.53348
1.53403
1.53459
1.53495
1.53566
1.53627
1.53647
1.53653
1.53597
1.53491
1.53411
1.53361
1.53295
1.53184
1.5284
1
1
1
1
1
1
1
1
1
1
1
1
1.00003
1.00085
1.0143
1.08304
1.18436
1.24383
1.26326
1.26402
1.25956
1.25955
1.25983
1.26109
1.26145
1.25964
1.26032
1.26056
1.26214
1.26384
1.26363
1.26384
1.26362
1.26368
1.26438
1.26486
1.26677
1.28155
1.34874
1.44058
1.50135
1.52432
1.5379
1.53615
1.53261
1.533
1.53396
1.53433
1.53489
1.53568
1.536
1.53614
1.53612
1.53554
1.53469
1.53412
1.53369
1.53306
1.53202
1.5287
1
1
1
1
1
1
1
1
1
1
1
1.00001
1.0004
1.00739
1.05972
1.17206
1.24608
1.25723
1.25966
1.25711
1.25604
1.25932
1.26475
1.26649
1.26489
1.26077
1.25904
1.25874
1.26176
1.26514
1.26663
1.26716
1.26593
1.26486
1.26454
1.26458
1.26529
1.26642
1.27924
1.33236
1.43025
1.50368
1.53141
1.52896
1.53043
1.53278
1.53337
1.53347
1.53428
1.53478
1.53487
1.53492
1.53472
1.53421
1.53371
1.53336
1.53303
1.53256
1.53157
1.5284
1
1
1
1
1
1
1
1
1
1
1.00001
1.00031
1.0048
1.04339
1.14395
1.24662
1.26163
1.25847
1.25283
1.25138
1.25443
1.26336
1.26807
1.2682
1.26487
1.25983
1.25824
1.25905
1.26318
1.26773
1.26925
1.26891
1.26686
1.26423
1.26342
1.26373
1.26458
1.26501
1.26522
1.2731
1.31984
1.41008
1.49041
1.51145
1.53021
1.53269
1.53167
1.53178
1.53246
1.53271
1.53283
1.5328
1.53252
1.53218
1.532
1.53186
1.53184
1.53152
1.53061
1.52753
1
1
1
1
1
1
1
1
1
1.00001
1.00029
1.00525
1.03715
1.12248
1.23077
1.26721
1.2653
1.2605
1.2547
1.25409
1.25898
1.26586
1.26898
1.268
1.26322
1.26056
1.26001
1.26224
1.26666
1.26912
1.26979
1.26862
1.26516
1.26297
1.26244
1.26284
1.26377
1.26366
1.26246
1.26069
1.26618
1.30467
1.39458
1.47692
1.52249
1.52523
1.52829
1.52998
1.53027
1.53024
1.53051
1.53046
1.53019
1.5302
1.53022
1.53026
1.5306
1.53027
1.52939
1.52612
1
1
1
1
1
1
1
1
1
1.00018
1.00434
1.04124
1.11778
1.20664
1.26732
1.27143
1.26522
1.26052
1.25753
1.25747
1.26061
1.2644
1.26754
1.26685
1.26377
1.2626
1.26269
1.26529
1.26795
1.26812
1.26777
1.26519
1.26297
1.26203
1.26181
1.26247
1.26251
1.26149
1.25999
1.25855
1.25845
1.26272
1.29425
1.38231
1.47498
1.50187
1.522
1.52946
1.52804
1.52874
1.52919
1.52872
1.52854
1.52893
1.52915
1.52935
1.52952
1.52911
1.52826
1.52483
1
1
1
1
1
1
1
1
1.00008
1.00216
1.02998
1.12969
1.19908
1.25163
1.26815
1.26759
1.26263
1.26014
1.26024
1.26138
1.26324
1.26448
1.26644
1.26622
1.26491
1.26487
1.26507
1.26667
1.26748
1.2665
1.26377
1.26137
1.26086
1.26081
1.2616
1.26188
1.26066
1.25909
1.25762
1.25749
1.25758
1.25838
1.26239
1.29176
1.37228
1.46261
1.51486
1.52203
1.52434
1.52848
1.52858
1.52777
1.52763
1.52819
1.5286
1.52886
1.52887
1.52842
1.52757
1.5242
1
1
1
1
1
1
1
1.00003
1.0011
1.01491
1.10774
1.20978
1.24124
1.26193
1.26686
1.26524
1.26308
1.26163
1.26392
1.26566
1.26463
1.26485
1.26488
1.26465
1.2653
1.26605
1.26693
1.26694
1.26518
1.26239
1.2597
1.25938
1.25973
1.26112
1.26167
1.26061
1.25882
1.25709
1.25671
1.25696
1.25819
1.25892
1.25892
1.26132
1.28274
1.36186
1.45873
1.4912
1.51567
1.52895
1.52752
1.5265
1.52719
1.52763
1.52786
1.52852
1.52854
1.52802
1.52716
1.5241
1
1
1
1
1
1
1.00002
1.00063
1.00993
1.06638
1.20185
1.25059
1.2616
1.26822
1.26553
1.26525
1.26623
1.26632
1.26781
1.26831
1.26534
1.26386
1.26348
1.2638
1.2653
1.26652
1.26629
1.26449
1.26105
1.2581
1.25778
1.25815
1.26019
1.26105
1.26049
1.25917
1.25727
1.25662
1.25677
1.258
1.25921
1.25919
1.25875
1.25796
1.25926
1.27804
1.34222
1.43904
1.50286
1.52342
1.52199
1.52607
1.52704
1.52639
1.52688
1.52831
1.52834
1.52765
1.52666
1.52385
1
1
1
1
1
1.00001
1.00044
1.00807
1.04974
1.16761
1.25488
1.26488
1.26937
1.27147
1.26585
1.26307
1.26423
1.26644
1.26836
1.26774
1.26539
1.26319
1.26302
1.26399
1.26475
1.26447
1.26292
1.25982
1.25755
1.25662
1.25675
1.25873
1.25988
1.25986
1.25935
1.25777
1.25686
1.25689
1.25774
1.25911
1.25937
1.25929
1.25864
1.25789
1.25784
1.25917
1.27213
1.3363
1.42659
1.49038
1.51406
1.52991
1.52709
1.52471
1.52662
1.52882
1.52857
1.52762
1.52631
1.5239
1
1
1
1
1
1.00026
1.00612
1.05037
1.13362
1.2453
1.27046
1.27008
1.2713
1.27208
1.26697
1.26397
1.26498
1.26712
1.26774
1.26759
1.26597
1.26284
1.26175
1.26199
1.26159
1.2605
1.25899
1.25744
1.25662
1.25674
1.25784
1.25893
1.25924
1.25909
1.2582
1.2572
1.25717
1.25781
1.25903
1.25943
1.25938
1.25898
1.25821
1.25804
1.25811
1.25846
1.25969
1.27177
1.32116
1.41649
1.49386
1.52391
1.51997
1.52317
1.52791
1.52998
1.52939
1.528
1.5263
1.52443
1
1
1
1
1.00012
1.00336
1.04374
1.13854
1.21702
1.27095
1.27838
1.27649
1.27224
1.27112
1.26749
1.26448
1.2644
1.26513
1.26472
1.26411
1.263
1.26099
1.25951
1.25907
1.25863
1.25788
1.25696
1.25673
1.25709
1.25805
1.25877
1.25888
1.25876
1.25815
1.25753
1.25755
1.25796
1.25887
1.25941
1.25941
1.25904
1.25834
1.25808
1.25814
1.25852
1.25893
1.25903
1.2597
1.26739
1.31009
1.39896
1.4793
1.50417
1.52626
1.53009
1.53055
1.52987
1.52862
1.52669
1.52478
1
1
1
1.00005
1.00185
1.02459
1.13866
1.21788
1.26276
1.27732
1.27685
1.27556
1.2716
1.26845
1.26616
1.26351
1.26226
1.26133
1.26051
1.26003
1.2595
1.25873
1.25786
1.25751
1.25726
1.25709
1.25717
1.25772
1.25845
1.25883
1.25899
1.25882
1.25826
1.25781
1.25776
1.2581
1.25883
1.25923
1.25922
1.25896
1.25841
1.25815
1.25818
1.25842
1.25885
1.25901
1.25895
1.25868
1.2589
1.26415
1.29885
1.38611
1.47339
1.52279
1.52408
1.52865
1.52983
1.52902
1.52684
1.52507
1
1
1.00003
1.0011
1.01576
1.10195
1.22622
1.26131
1.27796
1.27725
1.27395
1.27117
1.26783
1.26509
1.26339
1.26118
1.25897
1.25733
1.25694
1.25722
1.2576
1.25761
1.25736
1.2573
1.25738
1.25762
1.25809
1.25856
1.2589
1.25901
1.2589
1.25852
1.25821
1.25813
1.2583
1.25874
1.25903
1.25905
1.25881
1.25839
1.25821
1.25823
1.25839
1.25872
1.25893
1.25894
1.25879
1.25846
1.25832
1.25854
1.2625
1.2911
1.37549
1.47096
1.50113
1.52359
1.52896
1.52868
1.52634
1.52551
1
1.00001
1.00063
1.01196
1.07262
1.21489
1.2666
1.27659
1.2795
1.2779
1.27143
1.26549
1.26124
1.26009
1.25887
1.25726
1.25572
1.25541
1.25569
1.25641
1.25704
1.2574
1.25759
1.25778
1.25802
1.25827
1.25856
1.25885
1.25891
1.25886
1.25869
1.25852
1.25844
1.2585
1.25867
1.25878
1.25879
1.25863
1.25839
1.25825
1.25825
1.25839
1.25861
1.25878
1.25882
1.25877
1.25858
1.25839
1.25834
1.25835
1.25854
1.26135
1.2863
1.36306
1.45779
1.51798
1.52206
1.52858
1.52571
1.52794
1
1.00027
1.00756
1.06242
1.17937
1.27496
1.28329
1.28167
1.27925
1.2742
1.26413
1.25646
1.25457
1.25511
1.25545
1.25525
1.25527
1.25557
1.25625
1.25698
1.25754
1.25801
1.25829
1.25844
1.2585
1.25853
1.25858
1.25864
1.25874
1.25874
1.25868
1.25862
1.25861
1.25857
1.25857
1.25857
1.25846
1.25835
1.25829
1.2583
1.25839
1.25856
1.25867
1.25868
1.25863
1.25857
1.25849
1.25844
1.25842
1.2584
1.25839
1.25849
1.26052
1.27887
1.35164
1.45539
1.49073
1.52194
1.52233
1.53389
1.00002
1.00385
1.04744
1.16006
1.26635
1.28705
1.28337
1.27727
1.26907
1.26286
1.25449
1.2506
1.25119
1.25334
1.25494
1.2559
1.2565
1.2572
1.25798
1.25837
1.2585
1.2586
1.25869
1.2587
1.25863
1.2585
1.25846
1.25849
1.25863
1.25871
1.25871
1.25868
1.25857
1.25846
1.25839
1.25836
1.25833
1.25831
1.25834
1.25838
1.25845
1.25857
1.25861
1.25859
1.25855
1.25852
1.2585
1.2585
1.25851
1.25849
1.25844
1.25844
1.2585
1.25977
1.27536
1.33661
1.4329
1.50799
1.51297
1.54568
1.00099
1.03267
1.14513
1.25081
1.29182
1.28807
1.27856
1.26764
1.25749
1.25364
1.24983
1.24997
1.25156
1.25461
1.25675
1.2577
1.25822
1.25867
1.25897
1.25901
1.25896
1.25888
1.25884
1.25877
1.25862
1.25843
1.25837
1.2584
1.25856
1.25868
1.25869
1.25864
1.25849
1.25835
1.25831
1.25833
1.25834
1.25835
1.25835
1.25838
1.25844
1.25852
1.25858
1.25857
1.25854
1.2585
1.25851
1.25853
1.25855
1.25853
1.2585
1.2585
1.25853
1.25857
1.25957
1.27031
1.32843
1.42692
1.47907
1.55986
1.01527
1.13964
1.24584
1.27474
1.27197
1.26484
1.25884
1.25218
1.24874
1.25039
1.25241
1.2544
1.25654
1.25821
1.25862
1.25862
1.25866
1.25899
1.25918
1.25917
1.25908
1.25894
1.25886
1.25877
1.2586
1.25841
1.25833
1.25836
1.25851
1.25867
1.25866
1.25859
1.25845
1.25833
1.25834
1.25839
1.25842
1.25842
1.25841
1.25841
1.25843
1.25849
1.25855
1.25856
1.25854
1.25851
1.25851
1.25853
1.25856
1.25855
1.25853
1.25854
1.25856
1.25858
1.2586
1.25917
1.26924
1.31832
1.42683
1.55732
1.14525
1.29311
1.31735
1.29864
1.27443
1.25931
1.25241
1.24535
1.24739
1.25332
1.25726
1.25814
1.25879
1.25928
1.25912
1.25886
1.25871
1.25871
1.25877
1.25881
1.25878
1.25872
1.25867
1.25862
1.25855
1.25849
1.25844
1.25845
1.25851
1.25856
1.25855
1.25854
1.2585
1.25845
1.25847
1.25849
1.25851
1.25851
1.2585
1.25849
1.25848
1.25851
1.25854
1.25854
1.25854
1.25853
1.25853
1.25853
1.25854
1.25854
1.25854
1.25855
1.25857
1.25857
1.25855
1.25853
1.25888
1.26323
1.30358
1.40669
)
;

boundaryField
{
    top
    {
        type            fixedValue;
        value           uniform 1.25853;
    }
    inlet
    {
        type            fixedValue;
        value           uniform 1;
    }
    outlet
    {
        type            zeroGradient;
    }
    bottom
    {
        type            symmetryPlane;
    }
    frontAndBack
    {
        type            empty;
    }
}


// ************************************************************************* //
