/*--------------------------------*- C++ -*----------------------------------*\
  =========                 |
  \\      /  F ield         | OpenFOAM: The Open Source CFD Toolbox
   \\    /   O peration     | Website:  https://openfoam.org
    \\  /    A nd           | Version:  12
     \\/     M anipulation  |
\*---------------------------------------------------------------------------*/
FoamFile
{
    format      ascii;
    class       surfaceScalarField;
    location    "9.6";
    object      phi;
}
// * * * * * * * * * * * * * * * * * * * * * * * * * * * * * * * * * * * * * //

dimensions      [1 0 -1 0 0 0 0];

internalField   nonuniform List<scalar> 
33852
(
0.000251329
2.24281e-05
-0.000273757
-0.000246121
1.32441e-05
0.000232877
-0.000175976
-7.20034e-05
0.000248301
0.000304053
-0.000163969
-0.000140085
0.000291507
-4.2824e-05
-0.000248942
2.72441e-05
-0.000260681
0.000233437
0.000315204
1.47511e-05
-0.000329942
0.000304277
-9.59564e-05
-0.000208321
0.000286413
-3.50841e-05
0.000200642
1.72421e-06
-0.00020246
0.000289553
-0.000366572
7.70468e-05
0.00036094
-4.57367e-05
-4.39602e-05
0.000263285
-0.000219325
-4.38765e-05
0.000318167
-0.000274196
6.08554e-05
-0.000236142
0.000252057
1.2236e-05
-0.000264293
0.000264853
-1.2796e-05
-0.000278433
3.23121e-05
0.000340754
-5.11863e-05
0.000158593
0.000112308
-0.000270901
-2.43256e-05
0.000303254
-0.00027892
0.000271377
-0.000276165
4.78802e-06
-1.77282e-05
0.000275081
-0.000257305
-0.000222413
1.44205e-05
0.000208078
-0.000153945
-0.000183477
0.000337271
-0.000145466
-6.92401e-05
0.000214763
3.72401e-05
0.000267037
-6.11604e-05
-0.000263131
0.000324357
-0.000209868
1.77378e-06
0.000208098
-0.000203665
-1.87888e-05
0.000142045
0.000137388
-0.000279433
0.000341559
1.93482e-05
0.000142618
0.000128347
-0.000270965
-0.000101136
0.000259729
-0.000250489
-3.78001e-06
0.000254269
0.000330715
-5.96209e-05
-0.000271155
-0.000357833
0.000203514
-0.000227319
0.000209629
0.000231645
3.32081e-05
-5.65602e-06
0.000237301
-8.09094e-06
0.000208643
-0.000232625
0.000259869
0.000316554
-5.73625e-05
-0.000259111
-0.000309093
5.51042e-05
0.000253989
0.000240243
-0.000301365
0.000273589
-0.000306321
3.27321e-05
-0.000180237
-5.49362e-05
0.000235173
0.000272133
-0.000272133
0.000148429
-0.000297473
0.000149045
-0.0002097
0.000217225
-7.2879e-06
-0.000268241
0.000237301
3.09401e-05
-0.000199217
0.000246404
-4.69643e-05
-9.16164e-05
-0.000217477
-0.000114513
-0.000252012
-0.000280169
0.000266113
1.40561e-05
0.000329632
1.18635e-05
-0.000250433
7.01963e-05
0.000117908
0.000145909
-0.000263817
1.34681e-05
-0.000267457
0.000253989
-0.000134569
0.000282997
-0.000152618
-5.09274e-05
0.000203644
-0.000274681
0.000245113
2.95681e-05
0.000237553
-0.000268437
3.08841e-05
-0.000186175
-2.36623e-05
0.000151665
0.000115565
-0.00026723
-0.000189502
-2.82774e-05
0.000217672
0.000263985
2.24281e-05
0.000275941
-2.35201e-06
0.000265329
-0.000250741
-1.45881e-05
0.00022688
-6.45021e-05
-0.000162371
-1.82001e-06
0.000239373
0.000366965
-0.000313032
-5.39329e-05
-2.82751e-05
0.00030401
-0.000275669
-0.000101584
0.000219493
0.000342742
2.42142e-05
-0.000372153
0.000353872
1.82407e-05
-0.000211895
2.23193e-05
0.000308975
-0.000321234
1.23053e-05
-0.000208017
0.00027208
-6.40394e-05
-4.45202e-06
1.71126e-05
-0.000319168
0.000302079
0.000234287
-0.000198746
-3.52571e-05
0.000269524
-0.000339567
7.00531e-05
0.000332944
-6.3432e-05
-0.000268941
0.000236573
3.23681e-05
-0.000129388
-0.000132609
0.000261997
-1.86761e-05
-0.000249565
-1.022e-05
-0.000258721
2.30792e-05
0.000210785
-0.000233768
3.16381e-05
-0.000222787
0.000191131
-2.50043e-05
0.000327861
-0.000302826
-0.000279329
0.000273701
5.62802e-06
0.000156129
-0.000296857
0.000140729
-5.96621e-05
-0.000150509
0.000210129
0.000143277
0.0001218
-0.000265077
-0.000250064
0.00022573
-0.00021296
0.000153278
-0.000168813
0.000327181
-0.000158369
0.000185389
7.16523e-05
-0.000257041
0.000255193
2.07481e-05
-0.000192277
0.000148317
5.04489e-05
0.000265984
0.000306966
-0.000289833
9.17072e-05
-0.000237185
0.000135241
0.000117096
-0.000281065
-1.14211e-06
0.000245075
-0.000244023
0.000166489
0.000122836
-0.000289325
0.000144362
9.01891e-05
-3.92002e-06
0.000259113
0.000303614
5.41257e-06
-0.000324085
0.000315136
8.93253e-06
-3.99002e-05
0.000236293
-0.000196393
4.08802e-06
-0.000284257
-2.57048e-05
0.00016591
-0.000140431
-0.000158495
0.000133075
0.000209983
-0.000178396
-0.000269921
0.000264965
4.95602e-06
2.64041e-05
0.000174721
-0.000201125
2.87841e-05
-0.000257265
0.000228481
0.000276137
-0.000262669
0.000115108
0.000212073
0.00021416
-0.00019153
-0.000175813
0.000202217
1.36134e-05
0.000283083
-0.000296638
0.000270095
2.17444e-05
0.000271401
-0.000283869
1.24055e-05
3.86402e-06
0.000267513
-1.81387e-05
0.000289533
0.000330777
9.97848e-06
0.000213784
-0.000257666
0.000316407
-0.000316414
-6.63603e-06
-0.000272693
2.81605e-05
0.00019874
0.000187993
3.98722e-05
-0.000227865
-5.47477e-05
0.000218095
-0.000163344
0.000153609
-0.000270285
0.000116676
0.000279441
-0.000329701
5.02602e-05
-6.38122e-05
0.000249201
-0.000166909
0.000315897
-0.000148989
-0.000314075
-1.00135e-05
-0.000214929
0.000175029
2.78601e-05
-0.000278349
0.000276221
-1.88441e-05
-0.000248613
1.716e-05
-0.000302632
0.000285431
0.000344989
-0.000158593
-0.000186397
-1.68636e-05
-0.000241197
0.000257751
-0.000266617
-3.30401e-06
0.000224001
2.45841e-05
-0.000248585
0.000284509
-0.000128381
0.000140197
0.000138853
-0.000279049
-0.000198793
-1.06881e-05
0.000258169
-0.000115551
0.000225655
-0.000242545
-6.38122e-05
0.000251805
-0.000207934
0.000249481
-5.60002e-07
-0.000248921
0.000255109
-0.000237441
-0.000324587
0.000299626
-3.08841e-05
0.000203169
-0.000172285
0.000291995
1.29467e-06
-0.000293267
7.68766e-05
0.000132754
-0.000209596
4.60156e-05
-0.000198561
-0.000289381
-4.62407e-06
0.000294038
-1.54425e-06
-0.000287789
0.000146973
-0.000273925
0.000126952
-0.000263139
0.000220172
-0.000294215
0.000266217
0.000279441
-0.000312665
-1.24393e-05
0.000325103
0.00011075
0.000161278
-2.13473e-05
0.000352045
0.000140141
0.000139833
-0.000279973
0.000245029
-0.000250349
5.32002e-06
-0.000210953
0.000180069
0.000279133
-5.43202e-06
0.000350831
-3.25886e-05
-0.000301962
0.000302476
-2.49845e-06
0.000270985
-0.000270985
-0.000364656
0.000225906
0.00013876
-0.000205777
1.96065e-05
1.69386e-05
0.000275157
-0.000278461
3.30401e-06
-5.16614e-06
0.000170989
-0.000165991
-0.000197345
0.000254801
-5.74562e-05
-0.000203437
4.44897e-06
-0.000240293
0.000159227
8.10476e-05
-0.000180264
0.0002614
-8.11368e-05
0.000256285
-0.000287113
3.08281e-05
-0.000249229
5.18842e-05
-2.35076e-05
0.000276071
-0.000252713
-0.000253547
1.35801e-06
0.000252189
0.000231281
-7.28003e-06
-0.000294284
7.52979e-06
0.000286757
-0.000266085
0.000266085
-0.000284425
-5.51e-05
-0.000170665
-0.00019398
-0.000171346
0.000215066
-4.43385e-05
-1.232e-05
-0.000239177
0.000251497
3.10801e-06
0.000210113
-0.000213221
-0.000185401
-2.25227e-05
0.00020783
7.59979e-06
0.000294516
-0.000302122
-0.000236153
-1.34401e-05
0.000249593
1.50361e-05
-0.000251189
-0.000241025
0.000256061
-0.000301388
0.000308982
0.000256117
7.16803e-06
-0.000170382
-3.19996e-05
0.00020253
-0.000145237
-0.000134765
-0.000244329
0.000240549
0.000298606
-4.2748e-07
-0.000298162
-0.000298806
6.02178e-07
0.000298227
1.92349e-05
0.000181217
0.000163773
7.70044e-05
-0.000257269
-0.000159242
0.000310908
0.000250721
-0.000108677
-0.000235145
-1.83681e-05
0.000253513
-0.000204619
-0.000126886
0.000331457
-6.10402e-06
-0.000229125
0.000235229
-2.19634e-05
-0.000183873
-0.000286575
-8.56082e-05
6.3361e-06
-0.00030061
-0.000212632
0.000328106
-0.000115513
0.000281597
0.000288205
-5.16322e-05
0.000271993
-1.57081e-05
-0.000187281
-1.40742e-05
0.000201151
0.000297571
3.77056e-07
-0.000297927
-0.00027033
-3.24e-05
-0.000218821
0.000247605
-2.52336e-05
0.000310588
-0.00028535
0.000179639
7.81284e-06
-0.000187581
-3.40594e-05
0.000213599
-0.00030128
0.000276049
0.000292578
5.57255e-06
-0.000298149
0.000157445
0.00011886
-0.000276305
0.000288508
4.70755e-06
-0.000293901
-0.000247049
0.000118205
0.000128422
-0.000281787
0.000295502
0.000302513
-0.000156857
-0.000145657
0.000207005
-0.000203897
-0.000232009
-0.000121156
-0.000155009
-4.0907e-06
-0.000294047
0.000298133
-1.0136e-05
0.000276249
0.000292733
-2.09698e-05
-0.000271676
-0.000263
2.90296e-05
0.000233977
0.000271433
-0.000267569
0.000249621
2.95121e-05
0.000314924
-9.76995e-06
-0.000305148
4.95898e-05
0.00015613
-0.000205631
-9.99346e-05
0.000195575
-9.61917e-05
0.000252617
-2.91201e-05
-0.000223497
5.80001e-07
0.000291837
-0.00017817
-3.16344e-05
0.000209801
-2.27499e-06
0.0002907
-9.33244e-05
0.000246933
-0.000255417
-5.26402e-06
0.000121184
0.000181329
1.34121e-05
0.000241557
-0.000254969
0.000236097
1.34961e-05
-0.000249593
0.000249509
-0.000242929
0.000256425
6.36016e-05
-0.000202246
0.000138845
-0.000214849
0.000115332
-0.000204362
0.000297209
1.38667e-06
-0.000298625
0.000253849
2.22881e-05
0.000268493
-0.000216441
-5.20522e-05
0.000225518
-0.000246849
2.13305e-05
0.000257909
1.40841e-05
5.87224e-05
0.000294938
0.000267186
-3.89594e-05
-0.000228226
0.000174355
1.274e-05
0.000240297
-0.000253037
0.000194663
-0.000114448
-7.99217e-05
-0.000206898
2.13619e-05
-1.31379e-06
-0.000297828
0.000299068
0.000219897
-0.000167241
-5.25868e-05
0.000344587
-4.13232e-05
0.000275969
-0.000135829
2.31561e-05
0.000238337
-0.000261493
-0.000231141
0.000254297
-2.66825e-05
-0.000229745
0.000256425
0.000156657
-0.000161897
-7.75058e-05
-0.00016969
-0.000261723
4.14346e-05
0.000220288
-3.17521e-05
-0.00022997
7.38085e-06
0.000261717
-3.25193e-05
-0.000229198
1.67167e-05
0.000125927
-0.000195054
0.000308785
-0.000171397
0.000262319
-3.57923e-05
-0.000226526
-0.000319146
0.000178282
-0.000101152
-0.000228453
-6.90203e-05
-2.70931e-07
-0.000297633
0.000299027
-2.76718e-05
0.000181531
-0.000153855
0.000308044
6.88095e-06
0.000250097
-0.000248249
-1.84801e-06
-0.000176162
6.19843e-05
0.00026026
-3.07231e-05
-0.00022954
0.000197345
-0.000250769
5.34242e-05
0.000254206
-0.000231206
-2.29992e-05
-0.000252337
0.000240017
0.000144709
0.000101893
-0.000101864
-0.000170269
0.000132496
-0.000261885
-0.000290249
0.000242201
4.80482e-05
0.000216809
3.12477e-05
-0.000248056
-0.000238017
-9.48135e-06
0.000247914
0.000326816
-2.29792e-05
0.000263996
-3.42721e-05
-0.000229724
0.000141808
-0.000232564
9.01735e-05
3.63259e-05
-0.000265637
0.000229311
-0.000253905
0.000121296
0.000249817
-5.24722e-05
0.000294673
-0.000154253
-0.000140421
0.000122248
-0.000289157
1.53441e-05
0.000237665
-0.000253009
-0.000262031
3.54705e-05
0.00022656
-2.73999e-06
-3.77917e-05
-0.000224239
0.000248617
-0.00027225
-0.000264649
3.44737e-05
0.000230175
0.000193257
0.000101416
-0.000149941
0.000290137
-0.000171173
-3.8335e-05
0.000209367
-1.81721e-05
0.000263201
-0.000293098
0.000310213
0.000116691
0.000103255
0.000261325
-0.000261325
0.000311463
-2.13563e-05
-0.000289611
5.32002e-07
0.000248949
0.000254857
1.65761e-05
0.000309439
-0.000276169
-3.32113e-05
-2.26336e-05
0.000266577
-0.000243943
3.00077e-05
-0.000260519
0.000230511
-0.000252139
0.000229506
0.000327889
3.11501e-05
-0.000260598
0.000229447
0.000276809
-3.16961e-05
-6.75547e-06
-0.000294733
0.000301329
0.000270637
3.88894e-05
0.000230245
-0.000266617
3.63721e-05
0.000200646
-0.000201939
-0.000258301
0.000238533
1.97681e-05
0.000169762
-0.000257245
8.74835e-05
-0.000205267
0.000163241
-0.000249145
8.59043e-05
-0.000266169
0.000224813
4.13562e-05
0.000253073
-2.78797e-05
-0.000225194
0.000175067
4.30143e-05
-0.000234837
-2.29601e-05
0.000257797
-0.000236377
-2.28761e-05
0.000259253
-1.94265e-05
0.000255969
-0.000236542
-0.000259345
0.000239919
-3.28926e-05
0.000173979
-0.000235929
-2.24001e-05
0.000258329
-0.00025484
0.000229192
2.56481e-05
2.94001e-06
0.000211289
-0.000214229
-0.000267031
3.79849e-05
0.000229046
0.000270677
4.48002e-06
4.16613e-05
0.000162031
-0.00020354
-3.31195e-05
0.000249928
-2.10242e-05
0.000218597
9.73004e-05
0.0002482
-0.000216952
0.000277775
-0.000279293
0.00027754
-0.000282132
-1.84997e-05
0.000258601
-0.000240101
-0.000261644
0.000243145
3.05057e-05
-0.000201634
-2.96071e-05
-0.000206045
0.000235721
0.000315006
-0.000287512
-2.74755e-05
0.000261297
-3.11081e-05
-0.000230189
3.28739e-05
-0.000262362
0.000229488
-0.000229853
0.000259645
-2.97921e-05
0.000325746
-1.77082e-05
0.000146992
-0.000211561
0.000256929
-0.000109956
-0.000286407
0.000287702
0.000241977
-6.41202e-06
-0.000235565
0.000228537
-0.000180344
-3.70203e-05
0.000218508
2.87551e-05
-0.000208399
-0.000239989
0.000260317
-2.03281e-05
-0.000103463
0.000189896
-8.64851e-05
3.09014e-05
-0.00020216
0.000240169
-0.000263424
2.32552e-05
-0.000115584
0.000258861
-0.000243993
0.000265721
-2.17281e-05
-0.000238953
0.000232541
0.000258626
-0.000245105
-1.35213e-05
0.000264349
-2.46681e-05
-0.000246317
-0.000273353
-1.0587e-05
0.000298571
-5.34634e-05
-8.83762e-06
0.000290662
-0.000280765
-0.000165815
0.000207619
0.000229614
1.81338e-05
-0.000247941
0.000328839
-0.000328866
0.000260955
-0.000245018
-1.59377e-05
-0.000301993
-6.6834e-07
0.000305271
9.74536e-06
3.77068e-05
0.000170352
-0.000208074
0.000212862
-3.44113e-05
-0.000178329
0.000278054
-0.000255789
-2.22648e-05
-0.000209436
3.12444e-05
3.15421e-05
-0.000261891
0.000230348
0.000284751
-0.000291678
2.44721e-05
-0.000259617
-0.000257965
1.87881e-05
0.000266057
-1.64361e-05
0.000151173
-0.000267625
0.000116452
0.000298974
-4.46093e-06
0.000238617
-7.53763e-05
2.12521e-05
0.000177045
-0.000198297
-0.000183877
0.000205129
-0.000236275
0.000257219
-2.09441e-05
0.000261462
-3.31689e-05
-0.000228293
-0.000197009
-5.21362e-05
0.000251581
-1.48401e-06
8.67021e-06
-0.000264953
0.000256063
-0.000342587
0.00023622
0.000106403
0.000266371
-0.000236811
-2.95597e-05
0.000306785
-0.00031462
7.82722e-06
-2.57041e-05
-0.000229097
0.000254801
0.000261493
-7.64403e-06
1.0286e-05
-0.000208788
0.000262411
-3.19033e-05
-0.000230508
-6.90483e-05
-0.000260653
-0.000194685
0.000248025
-5.33402e-05
-0.000266533
0.000249985
1.65481e-05
-0.000318079
1.66899e-05
-1.71745e-05
0.000296586
-0.000279692
-0.000276221
1.65481e-05
0.000249537
-0.000168128
6.44942e-05
0.000273782
1.47679e-05
-0.000288506
-0.000316117
0.000307916
8.22715e-06
3.46641e-05
-0.000263649
0.000228985
-1.74584e-05
0.000281336
-0.000315203
1.64083e-05
-0.000176541
-7.42283e-05
-0.000233406
0.000203718
-2.16721e-05
-0.000216469
0.000238141
-0.000314702
0.000295799
1.89022e-05
-0.00013299
0.000274076
-0.000141231
-8.40176e-06
3.31521e-05
-0.000263453
0.000230301
-0.000202053
2.47359e-05
0.000177438
0.000221513
0.000280461
-0.000280702
2.39186e-07
-0.000236993
-2.20921e-05
0.000224813
-0.000202721
0.000139273
0.000143753
-0.000278517
0.000201535
-5.69551e-05
0.000308152
-1.06313e-05
0.000209137
-0.000268841
2.92853e-05
0.00022306
-0.000252345
-0.000321687
0.000138228
0.000296474
2.92599e-05
1.94716e-05
-0.000224355
-2.77845e-05
-0.000135117
-0.000133028
-0.000326393
0.000113594
0.000242873
2.56201e-05
0.000218765
-0.000224869
1.099e-05
-0.000287843
0.000277032
-0.00024326
0.000270292
-2.72001e-05
0.000281422
-0.000281856
0.000287931
-7.71156e-05
-8.87242e-06
0.000290287
-1.87881e-05
0.000247101
-0.000228313
0.000281498
-0.00029037
-5.65033e-06
-0.000283954
0.000289605
0.000282103
-0.000269724
0.000284542
0.000226314
2.67597e-05
-0.000306226
0.000315231
-9.13059e-06
0.000250952
-2.12724e-05
0.000226234
2.3963e-05
-0.000268913
0.000246057
-2.05381e-05
-0.000259401
3.02849e-05
0.000229116
0.000178305
7.64963e-05
1.03299e-05
0.000281649
-0.000291956
-0.000238141
-2.88401e-05
0.000266981
2.51441e-05
-0.000263285
0.000284117
-0.000162317
-0.000232177
0.000261129
-2.89521e-05
-0.000234697
0.000260709
-2.60121e-05
1.42594e-06
0.000279036
2.45001e-05
-0.000259197
2.38001e-05
-0.000255977
0.000274261
-0.000242901
-3.13598e-05
0.000317905
-9.98344e-06
-0.000306715
-1.00716e-06
-0.000255753
1.1816e-05
0.000243937
-1.39664e-05
-0.000261185
0.000228066
-0.000245337
0.000270145
-2.48081e-05
-0.000263229
1.49801e-05
-2.35853e-05
0.000286145
-0.00026255
2.13641e-05
-0.000266701
-0.000241617
-2.13423e-05
3.26662e-05
-9.0432e-05
0.000260194
0.0002808
-0.000286385
5.05122e-05
0.000237693
0.000282209
-0.000281684
-0.000243181
-2.39401e-05
0.000267121
-0.000260894
7.34723e-06
-0.00029533
1.93832e-05
0.000275755
-0.000268717
2.55361e-05
-8.29223e-06
0.000290575
-0.000268326
0.000243549
2.47773e-05
-0.000232513
0.000210841
0.000280015
-0.000288362
-6.16002e-07
0.000260289
-0.000259673
-0.000301959
-1.61207e-05
-0.000264573
2.35481e-05
-0.00024417
-2.41555e-05
-3.43281e-05
-0.000298046
0.000293951
0.000286674
-0.000158327
0.000295999
-0.000290179
2.30152e-05
4.92065e-06
0.00026231
-0.000255179
-7.13497e-06
0.000307573
-2.0223e-05
-0.000287337
5.95406e-05
-0.000246765
-2.19521e-05
-0.000356229
0.000241761
0.000285325
-0.00028089
2.33801e-05
-0.000187893
-1.59102e-05
-0.000306449
2.56273e-05
0.000280866
-0.000196855
0.000310629
-0.000113857
0.000259841
-0.000238533
-2.13081e-05
-0.000291709
2.94001e-05
0.000222097
-0.000251497
-0.000163334
0.000137826
-0.000165514
0.000251441
-0.000238029
-1.34121e-05
-0.000263873
3.40201e-05
-2.23161e-05
-0.000269837
0.000251469
0.000230427
3.12901e-05
-4.64006e-05
0.000202592
0.000232619
-0.000260499
-1.74116e-05
-3.04457e-06
0.000246989
-0.000243394
-0.00029329
-0.000237049
0.000265189
-2.81401e-05
0.000230096
3.22225e-05
-0.000268521
2.55921e-05
-0.000239905
-2.86161e-05
0.000228954
-0.000260706
-0.000282576
4.73202e-05
-0.000242005
0.00029331
-0.000283534
-0.000288588
1.31785e-05
0.000275212
-4.80586e-06
0.000217929
0.000228551
-0.00026107
0.000296885
-0.0001309
-0.000165985
0.00024055
-0.000262033
0.00026974
-0.000226213
-1.76681e-05
-0.000164883
0.00030774
-0.000142437
2.49649e-05
0.000222662
-0.000247627
-0.000193207
0.000193276
-0.000283633
0.000282313
6.95439e-06
-0.000290584
-0.000302485
0.000146693
0.000155793
0.000259995
-0.000239359
-2.06361e-05
-0.000215741
0.000193649
0.000261978
3.25878e-07
0.000257293
0.000232526
2.16796e-05
-0.000295668
-6.22354e-05
1.02893e-05
0.000233148
-0.000250009
1.74264e-05
-0.000230917
-2.37161e-05
0.000254633
-0.000242295
0.000263191
-2.08965e-05
8.28248e-05
0.000134519
2.02399e-05
-0.000305886
0.000285515
0.000256565
-1.80041e-05
-0.000238561
0.000243881
-0.000254017
1.0136e-05
-0.000226745
0.000207957
0.000223131
-0.000258923
-0.000244693
4.76842e-05
1.59492e-05
-0.000137659
-0.000218555
1.57921e-05
0.000245701
0.0002805
0.000293974
0.000305874
1.70964e-06
0.000249817
-0.000220417
2.51749e-05
0.000225009
-0.000250184
-0.000243178
0.000268865
-2.56873e-05
2.28201e-05
-0.000262725
-0.000114343
0.000296177
9.0962e-06
2.08181e-05
0.000261675
-0.000235103
-2.65721e-05
1.31921e-05
-0.000303762
0.000290609
0.000321662
-3.09368e-05
-0.000290716
0.000249733
1.63241e-05
0.000306172
-0.00029294
-0.000230297
-0.000112268
9.63204e-06
0.000250657
-4.9129e-05
-0.00020239
0.000251519
2.20333e-05
0.000246832
-0.000241686
-2.29629e-05
0.000260737
-2.24001e-05
0.000287809
-0.000268023
2.63369e-05
2.68241e-05
-0.000257965
0.000210617
-0.000207677
2.58161e-05
-0.000262865
0.00028145
0.000121744
-0.000256173
0.000134429
1.70014e-05
3.8374e-05
0.000162036
-0.00020031
-0.000239485
-2.85377e-05
3.97226e-05
0.000162
-0.000201893
-0.000246691
0.000271066
-2.43747e-05
0.000209866
-0.000248826
1.98857e-05
1.73633e-05
-0.000173277
-3.01481e-05
0.000226688
-0.000257413
-2.88401e-05
0.000244245
-0.000215405
-2.16161e-05
0.000242985
-0.000221369
0.000201657
-0.000250786
-0.000273604
-0.000232905
-2.55081e-05
0.000258413
0.000241234
2.98318e-05
-0.000211153
-2.36163e-05
0.000235094
-2.18821e-05
-0.000224967
-0.000239345
6.28042e-05
0.000259004
-0.000229718
4.75106e-05
-0.000249901
-3.43393e-05
0.000257694
-0.000223354
0.000205675
-0.000240014
0.000261689
-1.1956e-05
-6.06763e-05
-0.000229572
-0.000224628
-1.70269e-05
0.000241616
0.000247109
5.3175e-05
0.000212448
-0.000265623
-0.000261094
0.000177353
-0.000231757
5.44042e-05
6.44793e-05
0.000137092
0.000259457
-0.000240915
-2.47224e-05
-0.000265385
0.000227165
3.82201e-05
-2.87813e-05
-0.000222158
0.00025094
-0.000284634
0.000264161
0.000234501
3.61761e-05
2.18821e-05
0.000234087
-0.000307217
0.000151089
0.000156129
0.000169254
-5.2489e-05
0.000254045
-0.000115192
2.56901e-05
0.000217446
-0.000243136
-0.000286235
0.000286875
9.29624e-06
0.000257377
-0.000245953
0.000208937
3.70161e-05
0.000254832
0.000245395
-1.97326e-05
-0.000246815
-2.02161e-05
-0.000263019
2.0724e-05
-0.000269215
2.24001e-05
2.79601e-05
0.000220024
-0.000247984
0.000242481
-0.000274597
1.32721e-05
0.00024755
-1.3917e-05
1.27248e-05
-0.000250489
-0.000328686
0.000124036
-0.000233135
-2.62109e-05
-0.000252113
0.000252113
0.000259782
-0.000144217
-1.84794e-05
-0.000278716
0.000296992
0.000275202
0.000258749
-0.000135913
0.000224113
2.39205e-05
0.00023468
7.82299e-05
-0.00034129
3.78028e-05
0.000258962
1.76363e-05
-0.000248843
-3.00917e-05
0.000207453
-3.01001e-05
0.000259701
2.95429e-05
0.000218353
-0.000247896
-3.05014e-05
-4.09782e-05
-0.000217818
0.000258797
-0.000233423
-2.14173e-05
3.70842e-05
-0.000197998
0.000160602
-3.30877e-05
0.000221671
-0.000255943
-0.000281854
-8.41576e-06
0.000290339
-0.00019478
0.000162927
0.000166349
8.16763e-05
1.28736e-05
-0.000294646
0.000235075
2.59446e-05
-0.000261019
-0.000197263
-1.34267e-06
0.000232743
-0.000264287
3.15449e-05
-8.42803e-06
-0.000217029
0.000225457
-0.000162018
0.000199085
-0.000249985
-3.46025e-05
0.000256274
0.000218076
-0.000252679
-0.000246289
0.000272245
-2.59561e-05
0.000253547
2.78321e-05
-0.000232062
-2.95821e-05
-0.000298287
0.000316478
-1.82036e-05
2.33826e-05
0.000212462
-0.000250254
-0.000267233
2.09441e-05
-2.12801e-05
-0.000245953
-3.61481e-05
0.00024861
-0.000290106
-1.3678e-05
0.00022082
-0.000256968
0.000247386
-0.000250826
1.81937e-06
2.80002e-06
0.000181413
-0.000184213
0.000255294
0.000234529
2.67681e-05
-2.62361e-05
0.000245001
-0.000218765
3.36001e-05
0.000216609
-0.000250209
0.000244861
2.73841e-05
0.000306545
-0.000143949
-0.000162597
1.54948e-05
0.000239061
-0.000253796
0.000271013
-0.000113568
0.000225569
-0.000256677
-0.000241394
0.000104816
-0.000265469
7.16803e-06
-0.000241635
-2.75801e-05
-0.000241361
-2.48081e-05
0.000310242
-2.76509e-05
-7.67483e-05
0.000243097
-1.1452e-05
-0.000215601
0.000224281
-8.68003e-06
0.000255193
-7.68883e-05
3.44439e-05
-0.000196647
0.000162213
-0.000265245
-1.40001e-07
-4.14962e-05
3.93195e-05
0.000158774
-0.000198451
0.000197601
-0.00016326
0.000257041
-7.05603e-06
0.000251151
-0.000218277
-1.8237e-05
-2.1128e-05
0.000273389
-9.45213e-05
-0.000178844
-1.42801e-05
-0.000191913
0.000206193
0.000258665
-1.53553e-05
-0.00024331
1.98101e-05
0.000238855
-0.000279385
-8.17235e-06
3.75412e-05
-0.000195552
0.000158345
1.36921e-05
0.000247997
-0.000161796
0.000199248
-1.95189e-05
0.000248711
3.27911e-05
0.000188223
-0.000221227
-4.17202e-06
-2.49389e-05
0.000265108
-0.000231955
-3.14693e-05
0.000297002
-0.000281796
-1.52895e-05
1.63717e-05
-0.000237659
0.000221288
-0.00010514
0.000226885
1.93005e-05
-0.000305211
0.000285913
2.52001e-05
-2.79441e-05
2.69165e-05
0.000308942
-0.00028964
0.000238891
1.97345e-05
2.15601e-06
0.000231617
-0.000233773
-0.000310319
2.56452e-05
0.000284685
-0.000162177
-0.000144145
0.000209178
-0.000250156
-0.000164319
0.000241924
1.90317e-05
0.000255614
-4.13534e-05
0.000250531
0.000214498
-0.000255851
0.0003188
-0.000318895
-1.07064e-05
0.000287366
-0.000276638
-0.000302871
1.9705e-05
0.000283144
4.20842e-05
-0.000286413
-3.91501e-05
0.000252483
2.62921e-05
-2.2163e-05
0.000307397
-0.000285224
2.43321e-05
3.95585e-05
0.000161073
-0.000200331
0.000249294
-0.000219751
2.83277e-05
-0.000261633
4.36802e-06
-1.99833e-05
0.000306644
-0.000286665
-0.000250987
-0.000266673
3.07441e-05
0.000252141
-0.000236741
-1.54001e-05
1.2264e-05
0.000239877
-0.000275701
-1.30432e-05
0.000255697
-6.45296e-06
0.000319143
-1.19234e-05
0.000298587
-0.000286381
-4.77504e-05
0.000247437
-0.000235621
0.000257601
-1.99361e-05
0.000131945
8.60704e-05
-0.00021814
0.000223526
3.03493e-05
0.000226759
-0.000258662
3.71393e-05
0.000271731
-0.00028872
1.68928e-05
0.000251273
-0.000239093
-1.31321e-05
0.000252225
-2.91201e-05
-0.000257265
2.56481e-05
0.000231617
-0.000228005
-2.92601e-05
0.000259765
-0.000233571
-2.61941e-05
0.000258721
-0.000267266
2.43375e-06
0.0002895
1.28086e-06
-0.000290809
0.000249305
-0.000233316
-1.85921e-05
0.000308799
-0.000300776
-8.01168e-06
0.000248055
-0.000101124
-0.000266897
2.56761e-05
0.000241221
-3.48881e-05
-0.000232009
-0.000266393
2.51161e-05
0.000241277
-1.23313e-05
-0.000267494
0.000279911
-3.45241e-05
-0.000231869
-0.000261836
1.85262e-05
-0.000266281
2.43881e-05
0.000241893
-0.00028419
-2.16273e-05
-0.000306264
2.76512e-05
0.000278619
-3.34041e-05
-0.000232877
-0.000169835
-0.000258133
2.94001e-05
0.000228733
0.000308959
-0.00030898
-0.000195805
0.000209049
-3.29281e-05
-0.000225205
0.000197408
-0.000279039
8.16164e-05
0.000283851
2.23511e-05
-0.000301953
1.76961e-05
0.000286199
-0.000281156
-4.79933e-06
-0.000257125
0.000231617
2.55081e-05
0.000170334
2.82637e-05
-0.000198434
-0.000266953
2.81681e-05
0.000238785
-0.000227361
-2.97641e-05
-3.67361e-05
-0.000230217
0.000276475
0.00029735
1.91031e-05
-0.000276211
-3.17261e-05
0.000307788
-0.000258679
-1.08688e-05
0.00029806
-0.000287364
1.50086e-05
-0.00030192
0.000286909
-0.000230609
-0.000307404
0.000287416
0.000263005
-2.55529e-05
-0.000280714
1.36081e-05
0.000165882
0.000230134
1.86997e-05
-0.000249275
-0.000199962
0.000161539
0.000236738
1.31517e-05
-0.00024989
-0.00025833
2.66093e-05
0.000231721
-1.09228e-05
0.000247661
5.74002e-06
0.000246877
-3.19817e-05
-0.000226348
0.000299519
-0.000285657
-1.38512e-05
0.000228024
-0.000226666
0.00028976
0.000237685
1.98521e-05
-0.000257537
-1.24236e-05
0.000250108
0.000246636
1.50389e-05
-0.000305461
1.53963e-05
0.00024448
2.18905e-05
3.22209e-05
-0.000199397
-0.000287482
-1.7729e-05
-0.000182869
0.000295177
-0.000151152
0.000184442
-3.33116e-05
3.08373e-05
-0.000200406
0.000168735
-0.000164181
0.000259149
-0.000239236
-1.99137e-05
0.000261515
-0.000273694
-0.000239948
0.000230687
-2.18976e-05
0.000301245
-0.000279351
0.000307981
-0.000292976
0.000242117
1.77241e-05
-0.000224975
0.00024443
-1.94545e-05
1.61001e-05
-0.000241075
-7.00003e-06
0.000260989
-0.000297166
4.88883e-06
0.000292281
-0.000174497
0.000160217
-1.74105e-05
-6.27961e-06
-0.00029088
-1.68153e-05
-0.000285107
4.28402e-06
-0.000300957
0.000135665
-0.000257457
2.37226e-05
0.000233719
0.000238197
1.32441e-05
-3.08144e-05
-0.000226643
-3.30607e-05
-0.000291505
2.05196e-05
-0.000225335
0.000205134
0.000254969
-0.000233465
-2.15041e-05
-0.000197442
0.000218614
-0.000185593
-7.42575e-06
0.000203685
0.000135651
0.000138762
3.99357e-06
0.000271148
0.000279905
-0.000305457
3.11684e-06
0.000243866
-1.98448e-05
0.000298737
-0.000278883
-0.000302304
0.000287499
1.47966e-05
-0.000258301
0.000230077
2.82241e-05
-2.64041e-05
-0.000231897
0.000301573
-0.000301566
0.000267607
-1.99828e-05
0.000304562
-0.000284586
0.000286662
-5.4046e-07
-0.000256873
0.000256873
-0.000268203
0.000295857
-0.000145092
-6.67671e-05
-7.28269e-06
0.000294781
-0.000287441
-0.000297981
0.000290778
0.000291789
-0.000278887
0.000290866
-0.000305681
1.5044e-05
3.43459e-05
-0.000240281
0.000216316
2.28299e-05
-1.45075e-05
-0.000246982
0.000229995
-1.4356e-05
0.000298421
-0.000284082
0.000263481
-1.96001e-05
0.000254224
-0.000235464
-1.87601e-05
-3.10189e-05
-0.000273797
0.000304814
1.44005e-05
-0.000297297
0.000282916
-1.45881e-05
0.000233465
-0.000218877
0.000208788
-0.000295451
0.000283432
-1.92575e-05
0.000304703
-0.000285449
0.00025102
-2.68839e-05
0.000297333
-0.000270454
-0.000295736
0.000268855
1.07156e-05
0.000244749
-0.000255465
0.000305264
-0.00031208
6.82096e-06
1.81108e-05
1.5215e-05
0.000287079
-0.000301989
6.30256e-06
0.000283195
2.33616e-06
-0.000318772
-0.000288392
0.000303692
-0.000242481
0.000243657
8.45603e-06
-0.0002264
0.000242772
-0.000293432
0.000274174
0.000284915
-0.00014958
-8.28932e-05
0.000294439
1.45074e-05
3.13709e-05
-0.000197084
0.000165994
-0.000274537
0.000257293
-0.000219535
0.00024982
0.000243411
1.92865e-05
-0.000262697
0.000236019
2.31309e-05
-0.000300947
0.00028247
0.000312401
-1.79585e-05
0.000237945
-0.000257069
1.91241e-05
-0.000222494
0.000247459
0.000294339
1.80604e-05
-0.000168101
-1.45859e-05
0.000298323
-0.000283681
-0.000142672
-0.000266415
0.000159993
0.000106423
-0.00030907
0.000295398
1.36637e-05
-0.000258699
0.000241826
1.68729e-05
-0.000153769
0.000155454
-0.000306391
0.00028858
1.78136e-05
-0.000216012
0.000179244
-9.69084e-06
0.000253101
2.04981e-05
1.75378e-05
-0.000304281
0.000286737
-0.000300448
-7.17457e-06
0.000307796
-0.000249229
0.000220109
-0.000201153
-8.52603e-05
-0.000272733
0.000250384
0.000303874
-0.000286331
-0.000191302
1.78496e-05
1.50732e-05
0.000284443
-0.000299508
-8.80603e-05
0.000239233
-0.000303454
1.94461e-05
0.000283998
-0.000207895
-2.69719e-06
-0.000297726
-0.000167451
2.05297e-05
0.000302749
-0.000288343
-1.45608e-05
-0.000171731
-0.000299223
-0.000174814
-2.25194e-05
0.000243528
0.000289498
1.71439e-05
0.000252869
5.75484e-05
-0.00028485
-0.000247213
-0.000270547
-2.35395e-05
-0.000274615
0.00030026
-0.000263115
0.000282577
-0.000164356
-4.0812e-05
0.000205597
0.000197569
1.56521e-05
-0.000213221
-1.25089e-05
-0.000285683
0.000298195
1.83597e-05
1.85788e-05
-0.000305375
0.000286814
0.000253345
-1.71361e-05
-0.000236209
1.89517e-05
-0.000304796
0.000285852
2.03561e-05
0.000232989
0.000216385
-2.46121e-05
-0.000191773
1.57431e-05
0.000282638
-0.000298347
-0.000250643
0.000117871
-0.000303793
1.86398e-05
0.000285155
0.000221682
-5.12715e-05
-0.000296854
1.25063e-05
0.00028526
0.000255837
-2.19801e-05
-0.000233857
-0.000303334
0.000105924
0.000234529
1.70521e-05
-0.000251581
0.000280155
1.68801e-05
0.00030418
-0.000285224
1.79425e-05
-0.000299731
0.000233512
1.84916e-05
-0.000252004
-1.89752e-05
-1.42487e-05
0.000298289
-0.000283991
-0.000280234
0.000299956
-0.000278353
0.000290058
-0.000302758
1.26987e-05
0.000249741
-1.62291e-05
1.17446e-05
0.000250041
-1.55121e-05
0.00029872
-0.000282849
3.95922e-05
-0.000238012