/*--------------------------------*- C++ -*----------------------------------*\
  =========                 |
  \\      /  F ield         | OpenFOAM: The Open Source CFD Toolbox
   \\    /   O peration     | Website:  https://openfoam.org
    \\  /    A nd           | Version:  12
     \\/     M anipulation  |
\*---------------------------------------------------------------------------*/
FoamFile
{
    format      ascii;
    class       volVectorField;
    location    "9.6";
    object      U;
}
// * * * * * * * * * * * * * * * * * * * * * * * * * * * * * * * * * * * * * //

dimensions      [0 1 -1 0 0 0 0];

internalField   nonuniform List<vector> 
22702
(
(2 -7.50274e-14 0)
(2 -2.72834e-14 0)
(2.04741 -0.0908289 0)
(2 -1.15747e-09 0)
(1.97721 0.035917 0)
(2 -1.98172e-14 0)
(1.82882 0.228451 0)
(2 -4.24377e-14 0)
(2 -2.55412e-13 0)
(2.11252 -0.266311 0)
(1.82925 0.228238 0)
(1.82935 0.228923 0)
(2 4.24609e-15 0)
(1.83134 0.229196 0)
(2.03812 -0.0739439 0)
(2 -9.82073e-14 0)
(2 -4.20632e-14 0)
(2 -4.03095e-14 0)
(1.82926 0.228551 0)
(2 -5.94647e-14 0)
(1.83166 0.22905 0)
(2 -1.7394e-13 0)
(1.83031 0.228931 0)
(2.12714 -0.270717 0)
(1.83198 0.227834 0)
(2.11977 -0.272287 0)
(2 -9.8716e-14 0)
(1.82718 0.228324 0)
(2.11261 -0.267468 0)
(2.11561 -0.258684 0)
(2 5.23334e-14 0)
(1.83044 0.229056 0)
(2 2.99469e-14 0)
(2 -1.48727e-14 0)
(2 2.43045e-14 0)
(1.84482 0.214567 0)
(1.83169 0.228689 0)
(1.83024 0.229206 0)
(2 -2.47055e-14 0)
(2 -1.66441e-13 0)
(2.11192 -0.266452 0)
(2 -4.46124e-14 0)
(1.91518 0.125908 0)
(2 -2.09428e-13 0)
(1.82725 0.228125 0)
(2 -1.03545e-13 0)
(2 -1.02423e-13 0)
(2 -2.84359e-13 0)
(2 -1.80007e-13 0)
(2.11484 -0.265979 0)
(2 -1.11264e-14 0)
(2.11764 -0.270069 0)
(2 -1.37473e-13 0)
(1.82926 0.22826 0)
(2 -2.49863e-13 0)
(1.83117 0.228866 0)
(2 -1.11457e-13 0)
(2 1.41814e-09 0)
(2 -5.65405e-15 0)
(2 -3.00194e-13 0)
(2.10668 -0.265306 0)
(2 -1.00108e-13 0)
(2 -2.00184e-13 0)
(2.11518 -0.26525 0)
(2 6.07671e-14 0)
(2.11392 -0.263274 0)
(2 -2.15611e-13 0)
(2 -1.66743e-13 0)
(2 1.26026e-13 0)
(2.11127 -0.264653 0)
(2 -1.86886e-13 0)
(1.83069 0.229132 0)
(1.89811 0.148692 0)
(2 1.31304e-09 0)
(1.83191 0.229399 0)
(1.82502 0.239432 0)
(2.10989 -0.266151 0)
(1.82839 0.228166 0)
(2.11019 -0.26261 0)
(2 -3.44011e-13 0)
(1.82903 0.228439 0)
(2.10908 -0.262863 0)
(1.83164 0.229208 0)
(1.8305 0.229329 0)
(2 1.98367e-13 0)
(2 9.1532e-07 0)
(2 -4.76215e-14 0)
(2 9.09878e-14 0)
(2.02279 -0.0421333 0)
(2.11062 -0.262151 0)
(1.83189 0.22844 0)
(2 -1.79406e-13 0)
(2 -8.07846e-11 0)
(2.12542 -0.264565 0)
(2 4.86191e-14 0)
(1.83145 0.229178 0)
(2.12554 -0.267322 0)
(2 2.43029e-08 0)
(2 -1.16531e-14 0)
(2 -1.26036e-13 0)
(2 -3.36713e-14 0)
(1.91676 0.123365 0)
(1.82905 0.228703 0)
(2.11158 -0.270494 0)
(2 2.05497e-10 0)
(2 -1.17056e-09 0)
(1.95701 0.0664133 0)
(2 9.1098e-09 0)
(2.11129 -0.26258 0)
(2 3.2176e-14 0)
(1.82953 0.228727 0)
(1.83002 0.228659 0)
(2 4.41387e-09 0)
(2 -2.59152e-13 0)
(2.11552 -0.274128 0)
(2.11188 -0.273077 0)
(2.11064 -0.26373 0)
(2 9.50144e-14 0)
(2 -1.49287e-07 0)
(2 1.70604e-14 0)
(2 -1.59851e-13 0)
(2 1.0941e-07 0)
(2.03113 -0.0547701 0)
(2 -1.18426e-07 0)
(1.85601 0.199686 0)
(1.98093 0.0277768 0)
(1.82883 0.22862 0)
(2 -1.0468e-13 0)
(1.82938 0.228977 0)
(1.82994 0.228925 0)
(1.83146 0.228752 0)
(1.82933 0.228705 0)
(2 -1.0018e-13 0)
(2.10745 -0.265117 0)
(2 2.67984e-14 0)
(2.13136 -0.264946 0)
(2 -2.76272e-14 0)
(2 -1.28976e-13 0)
(2 -8.12272e-14 0)
(2 1.14588e-14 0)
(1.83033 0.228783 0)
(2 3.17899e-09 0)
(2 6.16231e-14 0)
(2 -2.64905e-13 0)
(2 -9.59372e-15 0)
(1.83286 0.229369 0)
(2 -1.14682e-14 0)
(1.9933 0.0135732 0)
(2 8.85247e-14 0)
(2 -2.37054e-14 0)
(2 -6.98923e-11 0)
(2 -2.28923e-14 0)
(2.11304 -0.266692 0)
(2 -3.93947e-14 0)
(1.99537 0.00836959 0)
(2 2.5487e-14 0)
(2.10926 -0.264044 0)
(2 -2.45394e-13 0)
(2 3.4636e-14 0)
(2 -1.35415e-13 0)
(1.8314 0.228968 0)
(2 -7.31322e-14 0)
(1.83077 0.228638 0)
(2.13075 -0.267412 0)
(2.10883 -0.265255 0)
(1.83014 0.229223 0)
(1.82899 0.228411 0)
(2 4.72932e-14 0)
(1.97025 0.0400713 0)
(1.90298 0.145134 0)
(2 -1.78586e-13 0)
(1.83073 0.228443 0)
(2.11007 -0.263437 0)
(1.84429 0.214822 0)
(2 1.94688e-14 0)
(2 3.17953e-14 0)
(2 -4.76227e-14 0)
(2 -1.52539e-13 0)
(1.8314 0.229265 0)
(1.86249 0.1831 0)
(2 -1.57139e-14 0)
(1.82959 0.228451 0)
(2.11629 -0.26583 0)
(1.83108 0.228783 0)
(2 -9.49966e-14 0)
(2.09442 -0.260031 0)
(2 1.04807e-13 0)
(2.11577 -0.268023 0)
(2.11603 -0.271676 0)
(2.00007 -0.000119328 0)
(2 -1.18923e-13 0)
(2 6.54661e-14 0)
(1.83008 0.229064 0)
(2 1.3933e-14 0)
(2 -4.25065e-14 0)
(1.8321 0.229131 0)
(2 -3.39532e-13 0)
(1.83193 0.228965 0)
(1.82963 0.228508 0)
(2.10678 -0.282974 0)
(2 -1.60581e-14 0)
(2 -7.51265e-14 0)
(2.10925 -0.262533 0)
(1.83205 0.22915 0)
(2 -3.82493e-14 0)
(2 7.0656e-14 0)
(2 -1.29482e-14 0)
(1.83186 0.229029 0)
(2 -9.59672e-14 0)
(2.10535 -0.266947 0)
(2 -5.94591e-11 0)
(2 -2.73431e-15 0)
(1.83144 0.228939 0)
(1.83101 0.228916 0)
(1.83146 0.228891 0)
(2 1.5133e-14 0)
(1.99999 2.34016e-05 0)
(2 -2.20496e-14 0)
(2 1.15253e-13 0)
(2 -2.2833e-13 0)
(1.83203 0.228975 0)
(2 -1.17452e-13 0)
(2.11614 -0.265991 0)
(1.82515 0.235215 0)
(1.83211 0.229291 0)
(1.83174 0.228674 0)
(2 2.01966e-07 0)
(2 4.89372e-14 0)
(2 -1.04101e-13 0)
(2.11544 -0.270291 0)
(1.83241 0.229385 0)
(1.92166 0.129627 0)
(2 1.14878e-13 0)
(1.83079 0.229496 0)
(2.11883 -0.262055 0)
(2.11218 -0.263431 0)
(1.83086 0.229573 0)
(1.83196 0.2284 0)
(2 2.60285e-14 0)
(1.83266 0.230067 0)
(2.12064 -0.272884 0)
(1.85016 0.207503 0)
(2 4.24846e-14 0)
(2 -1.52248e-13 0)
(2 -1.67893e-13 0)
(2 -1.18633e-13 0)
(1.83162 0.228828 0)
(2 -2.48115e-13 0)
(1.90423 0.144576 0)
(1.98323 0.0270816 0)
(2 -7.11114e-14 0)
(2 -2.49937e-13 0)
(1.83216 0.229374 0)
(2.12482 -0.26426 0)
(2.08184 -0.164647 0)
(2 -3.9116e-14 0)
(1.83239 0.227124 0)
(2.11274 -0.26404 0)
(1.83103 0.231441 0)
(2 4.40713e-14 0)
(2 -1.19504e-14 0)
(2 8.3801e-14 0)
(2 -2.01189e-13 0)
(2 -9.25254e-14 0)
(2 -1.88915e-13 0)
(2 -1.36216e-13 0)
(2.11202 -0.263114 0)
(2.08032 -0.165757 0)
(2.11074 -0.264945 0)
(1.83115 0.228749 0)
(2 -1.00913e-13 0)
(2 -1.31828e-13 0)
(2 -1.83887e-07 0)
(2 -7.03199e-14 0)
(1.85118 0.212788 0)
(2 -1.3919e-07 0)
(2.10981 -0.263814 0)
(2 -9.51206e-14 0)
(2.11693 -0.277488 0)
(2.10774 -0.26159 0)
(1.83202 0.2286 0)
(2.11935 -0.266229 0)
(1.83169 0.229042 0)
(2 9.16233e-14 0)
(2 -9.05942e-14 0)
(2 -3.10228e-14 0)
(2.00093 -0.00155076 0)
(2.09943 -0.258795 0)
(2.12143 -0.272551 0)
(2 -2.87919e-07 0)
(2 -1.48666e-07 0)
(2.11758 -0.280247 0)
(2 2.42802e-09 0)
(1.82999 0.228868 0)
(2.11562 -0.272293 0)
(2 1.17098e-14 0)
(2 -3.32887e-11 0)
(1.8286 0.22853 0)
(2.1305 -0.267681 0)
(2 -1.24676e-13 0)
(1.8277 0.230141 0)
(2.1102 -0.266828 0)
(1.83206 0.22933 0)
(2 -1.86411e-14 0)
(2.10853 -0.283842 0)
(2.00087 -0.00144687 0)
(2 -1.64679e-14 0)
(2 2.50796e-06 0)
(2 7.84789e-14 0)
(2.11769 -0.27011 0)
(2 -2.81712e-13 0)
(2 -1.78157e-07 0)
(2 3.65665e-07 0)
(1.99999 1.24864e-05 0)
(1.99351 0.00259819 0)
(1.89621 0.150237 0)
(2 -2.74614e-11 0)
(2.11289 -0.25111 0)
(2 -1.4255e-11 0)
(2 1.50933e-06 0)
(2 6.53671e-14 0)
(2 -2.51612e-13 0)
(2 -5.79611e-14 0)
(2 1.37492e-13 0)
(2 -9.51391e-13 0)
(1.82869 0.228621 0)
(2 2.23278e-13 0)
(1.83029 0.228488 0)
(2 7.56017e-14 0)
(2 -2.67249e-13 0)
(2 -3.64653e-14 0)
(2.10757 -0.268444 0)
(2 1.11994e-13 0)
(1.83224 0.228961 0)
(2.11826 -0.265614 0)
(2 -1.10958e-13 0)
(1.8706 0.18913 0)
(2 -1.98331e-13 0)
(2 -5.96247e-14 0)
(1.83008 0.229075 0)
(2 1.41111e-13 0)
(2 -9.56036e-09 0)
(2 1.6092e-13 0)
(1.8322 0.226842 0)
(2 4.78342e-10 0)
(2 -1.78523e-13 0)
(1.84038 0.226144 0)
(1.82982 0.229052 0)
(2 5.35151e-14 0)
(1.96353 0.0555955 0)
(2 -1.14001e-14 0)
(2 1.08012e-14 0)
(2.13039 -0.265539 0)
(2 -1.10659e-13 0)
(2 -7.70515e-14 0)
(2 -2.50765e-13 0)
(2.12064 -0.262511 0)
(2 1.38468e-14 0)
(2 1.66751e-14 0)
(2 -1.33155e-13 0)
(2 -1.29607e-13 0)
(2.10551 -0.264321 0)
(2 5.40602e-14 0)
(2 4.79118e-16 0)
(2 -8.40179e-15 0)
(2 5.88543e-15 0)
(2 -5.59847e-14 0)
(2.10166 -0.273234 0)
(1.99998 3.34654e-05 0)
(1.83017 0.228578 0)
(2 1.70934e-14 0)
(2 -2.0767e-05 0)
(1.82956 0.228817 0)
(1.82944 0.22887 0)
(2 -7.54414e-14 0)
(2 -6.21913e-14 0)
(2.10369 -0.275708 0)
(2.05703 -0.128884 0)
(1.83055 0.229025 0)
(2 -7.9584e-14 0)
(2 2.77715e-14 0)
(2 -1.44086e-13 0)
(1.83211 0.229242 0)
(2.11571 -0.265887 0)
(2 8.13019e-14 0)
(1.83088 0.228679 0)
(2 -4.97657e-14 0)
(2 -1.63362e-13 0)
(2.11172 -0.203786 0)
(2.09783 -0.205751 0)
(2 -7.31471e-14 0)
(2.09626 -0.261671 0)
(2.11719 -0.263993 0)
(2 1.32257e-13 0)
(2 1.09478e-14 0)
(2 -1.35681e-14 0)
(2 -2.39139e-14 0)
(2 -8.8412e-11 0)
(2 -5.78124e-14 0)
(2 -8.43083e-14 0)
(1.82844 0.228678 0)
(1.9541 0.0677478 0)
(1.83586 0.225531 0)
(2.10394 -0.266805 0)
(2.02938 -0.0598825 0)
(1.83082 0.228565 0)
(2 -8.78498e-14 0)
(1.83292 0.22949 0)
(1.83026 0.229029 0)
(2.12168 -0.267189 0)
(2.06619 -0.151076 0)
(2 4.58527e-13 0)
(2.10942 -0.266121 0)
(2 -3.13933e-14 0)
(1.82025 0.235266 0)
(2 -3.68261e-13 0)
(2 -9.52665e-14 0)
(2 -3.30673e-13 0)
(2 -8.82776e-15 0)
(1.83211 0.229069 0)
(2 1.12688e-14 0)
(2 -5.30357e-14 0)
(2 -7.44934e-14 0)
(2 1.47499e-09 0)
(2 -1.17546e-13 0)
(2 -1.90249e-13 0)
(2 -3.36092e-14 0)
(1.93826 0.089652 0)
(1.83068 0.228514 0)
(2 -8.37977e-15 0)
(1.83127 0.228888 0)
(2 1.28759e-14 0)
(2 -7.18009e-14 0)
(2.10753 -0.261283 0)
(2 2.50146e-14 0)
(2 -2.05387e-14 0)
(2 -2.43361e-16 0)
(2 -2.54799e-13 0)
(1.83176 0.229081 0)
(1.87254 0.179626 0)
(2 -3.61116e-13 0)
(2 -3.3019e-13 0)
(2.09691 -0.26356 0)
(1.83195 0.229361 0)
(1.83138 0.229153 0)
(2 8.71322e-15 0)
(1.83144 0.228954 0)
(1.83199 0.229271 0)
(1.8311 0.228844 0)
(2 8.68063e-15 0)
(2.0497 -0.113942 0)
(2 -1.27452e-13 0)
(1.83184 0.228662 0)
(2.00193 -0.0127161 0)
(1.83118 0.22902 0)
(2 -1.01308e-13 0)
(2.10837 -0.264345 0)
(2.00038 -0.000602038 0)
(1.83037 0.229067 0)
(2 7.76357e-14 0)
(2 -9.54129e-14 0)
(2 -5.2851e-11 0)
(2 -1.98774e-11 0)
(2.11443 -0.265453 0)
(1.83214 0.228611 0)
(1.84724 0.21256 0)
(2 4.90205e-14 0)
(1.83164 0.229316 0)
(1.83191 0.228978 0)
(1.82975 0.228858 0)
(2 2.7327e-13 0)
(1.91977 0.128262 0)
(1.83209 0.228368 0)
(2 -2.82684e-13 0)
(2 -7.68153e-14 0)
(1.88014 0.171196 0)
(1.97807 0.0416335 0)
(1.83136 0.229 0)
(2.02456 -0.0460117 0)
(1.83129 0.229039 0)
(2 -2.13993e-14 0)
(1.83125 0.228986 0)
(1.83146 0.22885 0)
(1.83115 0.228968 0)
(1.83174 0.229224 0)
(2 -2.32e-13 0)
(1.83737 0.23467 0)
(2.03157 -0.0644288 0)
(2.03688 -0.0847676 0)
(2 8.25298e-14 0)
(2 -3.55855e-07 0)
(2 -1.36053e-13 0)
(2 7.98979e-14 0)
(1.83175 0.228492 0)
(2 1.21348e-13 0)
(2 5.81119e-14 0)
(2 -3.99546e-14 0)
(2 6.71409e-14 0)
(2 8.69668e-14 0)
(1.83047 0.22908 0)
(2 1.20871e-13 0)
(2 1.82532e-14 0)
(2.00145 -0.00260722 0)
(1.83154 0.229235 0)
(1.85374 0.205114 0)
(2 -1.10415e-13 0)
(1.87021 0.182367 0)
(1.99998 2.58496e-05 0)
(2 -1.52766e-14 0)
(2 4.67097e-14 0)
(1.83073 0.228605 0)
(2 -2.51507e-14 0)
(2.00213 -0.00245945 0)
(1.99821 0.00526313 0)
(2 -5.87458e-15 0)
(1.83145 0.229134 0)
(2 2.669e-14 0)
(1.83231 0.229538 0)
(2 -3.07632e-14 0)
(2 3.9345e-14 0)
(1.87585 0.175699 0)
(2 -1.27935e-13 0)
(1.83182 0.229958 0)
(1.99999 1.28138e-05 0)
(2 -1.39886e-13 0)
(1.83293 0.227911 0)
(2 8.56982e-14 0)
(1.83176 0.229148 0)
(2 -2.24118e-14 0)
(2 2.90417e-06 0)
(2 4.79718e-15 0)
(1.83188 0.22888 0)
(2 4.73491e-14 0)
(1.8292 0.230917 0)
(2 4.26502e-06 0)
(1.83179 0.228926 0)
(1.83115 0.229293 0)
(1.83193 0.229214 0)
(1.82895 0.228501 0)
(2 -1.04048e-13 0)
(1.82932 0.228105 0)
(1.8378 0.225346 0)
(2 -1.06132e-13 0)
(2.09836 -0.252887 0)
(1.84188 0.21765 0)
(1.87802 0.172421 0)
(2 -6.5909e-14 0)
(1.83218 0.229099 0)
(2 7.32454e-14 0)
(2.12752 -0.265837 0)
(2.10977 -0.268444 0)
(2 1.1682e-13 0)
(2 -1.402e-13 0)
(2 -1.24244e-13 0)
(2 -1.25825e-13 0)
(2 1.99364e-09 0)
(2.12509 -0.263554 0)
(2 -3.17184e-13 0)
(1.83121 0.228946 0)
(1.9558 0.0698029 0)
(1.83114 0.229042 0)
(2 -1.98425e-14 0)
(2 7.81152e-11 0)
(2 -6.57812e-14 0)
(2 -6.56846e-14 0)
(2 -5.94748e-08 0)
(1.83134 0.228793 0)
(2 8.2855e-15 0)
(1.83174 0.228766 0)
(1.90021 0.14389 0)
(2.06167 -0.154723 0)
(2 1.26077e-09 0)
(1.99999 6.46668e-06 0)
(1.95128 0.075557 0)
(1.95501 0.0672908 0)
(2 1.61655e-14 0)
(2 -7.08607e-14 0)
(1.93812 0.0920897 0)
(2 1.01574e-13 0)
(2.10501 -0.261584 0)
(1.83188 0.22888 0)
(1.83189 0.228967 0)
(2 -6.45175e-11 0)
(2 8.20659e-14 0)
(2 -3.53827e-14 0)
(1.83057 0.229229 0)
(2 -3.70651e-15 0)
(1.99999 1.59293e-05 0)
(1.83079 0.230861 0)
(1.83204 0.229037 0)
(2.01637 -0.0296258 0)
(2 2.05453e-14 0)
(2 1.65416e-10 0)
(2.11699 -0.263256 0)
(1.84656 0.212317 0)
(2 -6.43532e-14 0)
(2 -3.07017e-13 0)
(2 7.28978e-15 0)
(2 -2.59018e-11 0)
(2 -2.11451e-13 0)
(1.83155 0.229238 0)
(1.82979 0.228128 0)
(2 -8.50173e-14 0)
(1.83221 0.227835 0)
(1.83007 0.231361 0)
(1.83204 0.229265 0)
(2 7.90727e-14 0)
(2 1.64686e-13 0)
(2 -5.94717e-11 0)
(2 -5.34571e-14 0)
(2.11728 -0.271884 0)
(1.83025 0.228885 0)
(2 -4.48597e-11 0)
(2 6.33542e-14 0)
(1.84638 0.21239 0)
(1.83238 0.228458 0)
(2 -2.63748e-13 0)
(1.84156 0.21766 0)
(1.83089 0.228882 0)
(2 1.29469e-13 0)
(2 -2.11464e-07 0)
(2 9.32832e-11 0)
(2 -4.23855e-14 0)
(2 -7.06505e-14 0)
(1.8316 0.229043 0)
(2 -3.73194e-14 0)
(2 -1.23203e-14 0)
(2 1.78724e-14 0)
(2 -2.62164e-14 0)
(1.83163 0.22949 0)
(2 -1.79131e-13 0)
(1.82877 0.232626 0)
(2.10924 -0.265212 0)
(2 -1.96282e-14 0)
(2.12791 -0.263129 0)
(2 1.35655e-13 0)
(2 -1.0729e-07 0)
(2 1.76353e-13 0)
(2.00103 -0.00198455 0)
(2.11334 -0.268359 0)
(2.00032 -0.000554682 0)
(2 1.4647e-14 0)
(2 -8.59609e-14 0)
(2 -1.22705e-07 0)
(1.9767 0.0367805 0)
(2 -1.24773e-13 0)
(2 8.61143e-14 0)
(2.05099 -0.0858911 0)
(2 -2.15036e-07 0)
(2 -4.11758e-14 0)
(2 -3.74461e-15 0)
(2 -2.11809e-07 0)
(2 2.74247e-07 0)
(2 -1.45742e-07 0)
(2 -3.21546e-13 0)
(2 -1.71283e-06 0)
(2.01659 -0.0448836 0)
(2 -5.11319e-07 0)
(2 -3.99647e-08 0)
(2.00088 -0.00130591 0)
(2 1.31273e-15 0)
(2.1144 -0.266193 0)
(2 -2.69608e-11 0)
(2 -4.14383e-12 0)
(2 -7.59155e-11 0)
(2 1.12751e-13 0)
(1.87493 0.176462 0)
(2 -2.10195e-13 0)
(2 -6.44247e-14 0)
(2 -9.80938e-14 0)
(2 -1.78185e-07 0)
(2.11051 -0.265105 0)
(2 2.01449e-15 0)
(2 1.78919e-09 0)
(1.84156 0.217393 0)
(1.82962 0.228731 0)
(2 -2.88661e-07 0)
(2 1.97751e-14 0)
(2 -1.03638e-07 0)
(2.03396 -0.0786904 0)
(2 -3.66448e-14 0)
(2 4.73438e-10 0)
(2 1.07299e-13 0)
(2 8.38439e-14 0)
(2 -9.3263e-14 0)
(2 -5.08997e-14 0)
(2.01632 -0.0333938 0)
(1.99425 0.00259493 0)
(1.83198 0.229123 0)
(2 -6.87476e-14 0)
(2 5.20874e-14 0)
(2 -3.37557e-15 0)
(1.83208 0.227541 0)
(2.03691 -0.0670861 0)
(2 -4.93946e-09 0)
(2 1.23128e-13 0)
(2 -7.60207e-14 0)
(1.82887 0.228618 0)
(1.82867 0.22717 0)
(2 -3.26888e-08 0)
(2 4.87807e-06 0)
(2 3.86519e-09 0)
(2 -1.28236e-13 0)
(2 1.26107e-09 0)
(2 2.49985e-13 0)
(2 -3.44329e-11 0)
(2 -7.9542e-14 0)
(2 -1.41578e-13 0)
(2.11535 -0.268242 0)
(2 -2.12196e-13 0)
(2 -1.67335e-11 0)
(1.82965 0.22988 0)
(2.10426 -0.265876 0)
(2 -7.95528e-14 0)
(1.83018 0.228506 0)
(2 5.00998e-11 0)
(2.10717 -0.26482 0)
(2 -4.55331e-14 0)
(2 -1.32862e-13 0)
(2.11953 -0.265887 0)
(2 -2.13423e-13 0)
(2 -1.22873e-11 0)
(2 -4.93183e-12 0)
(2 -2.12756e-13 0)
(2 -2.61588e-12 0)
(2 -8.53837e-14 0)
(2 -1.30353e-14 0)
(1.83482 0.225391 0)
(1.83222 0.228661 0)
(2 4.14814e-13 0)
(2 -2.1129e-13 0)
(2 -1.97479e-13 0)
(2 5.17882e-13 0)
(1.84584 0.21265 0)
(2 3.95119e-13 0)
(1.94901 0.0853302 0)
(2.09549 -0.255231 0)
(2 -3.38164e-08 0)
(2 3.30092e-13 0)
(2 -6.19788e-14 0)
(2 -3.01527e-13 0)
(2 1.37273e-13 0)
(2 -2.17758e-13 0)
(2 -5.98971e-14 0)
(1.98213 0.0247378 0)
(2 -2.56908e-14 0)
(2 -5.07481e-14 0)
(1.90364 0.124113 0)
(2 3.7106e-14 0)
(2 1.21041e-13 0)
(2 -1.79686e-14 0)
(1.86202 0.193866 0)
(2 -7.40087e-14 0)
(2 -5.95821e-15 0)
(2 1.03625e-13 0)
(2 1.20789e-13 0)
(2.1158 -0.264545 0)
(2 8.28391e-12 0)
(2 -3.65061e-14 0)
(2.11582 -0.281088 0)
(2.11462 -0.266267 0)
(2 -1.38619e-13 0)
(2 1.08745e-13 0)
(1.83187 0.228776 0)
(2 8.32261e-14 0)
(2.00391 -0.00130361 0)
(2 -1.24671e-14 0)
(2 -3.38502e-14 0)
(2 3.28305e-15 0)
(1.88279 0.170191 0)
(2.13114 -0.263033 0)
(2 -2.69049e-13 0)
(2.12887 -0.273784 0)
(2 5.22361e-15 0)
(2.07423 -0.146859 0)
(2 -1.42743e-13 0)
(2 1.81969e-13 0)
(2 1.69193e-13 0)
(1.83086 0.228921 0)
(2 -4.58825e-08 0)
(2 -1.99074e-13 0)
(1.83144 0.228677 0)
(2 -3.52121e-14 0)
(2 -3.13421e-11 0)
(2 1.76506e-09 0)
(1.83141 0.228766 0)
(2 2.46015e-10 0)
(2 -2.21341e-13 0)
(1.83185 0.228761 0)
(2 -8.25902e-14 0)
(2 -1.61566e-13 0)
(2.12236 -0.264375 0)
(2 -1.65478e-11 0)
(1.94443 0.087492 0)
(2 7.75409e-15 0)
(2 -1.36709e-15 0)
(1.83084 0.228552 0)
(1.83019 0.228969 0)
(1.88597 0.163803 0)
(1.84953 0.209123 0)
(2 -9.14357e-14 0)
(2.11262 -0.266412 0)
(2 -2.3289e-15 0)
(2 1.50932e-13 0)
(1.83915 0.220031 0)
(2 -2.05608e-14 0)
(2.1128 -0.262344 0)
(2 1.1693e-13 0)
(2 -9.71786e-14 0)
(2 -4.28109e-14 0)
(1.83147 0.22921 0)
(2 -1.10196e-13 0)
(2 1.37812e-13 0)
(2 -5.52233e-14 0)
(2 -4.01667e-14 0)
(1.89956 0.144912 0)
(2 1.07769e-13 0)
(1.83879 0.232322 0)
(1.82966 0.230436 0)
(2.11195 -0.263341 0)
(2 -1.25332e-13 0)
(2 2.28791e-14 0)
(2.11235 -0.265804 0)
(2.12135 -0.268205 0)
(2 4.91327e-14 0)
(2 -2.36247e-14 0)
(2 -6.65422e-12 0)
(1.87838 0.174536 0)
(1.87326 0.179736 0)
(2 1.14758e-13 0)
(2 -1.55976e-13 0)
(2 -8.22867e-14 0)
(2 9.11666e-15 0)
(2 9.90175e-15 0)
(2 -1.64623e-13 0)
(2 -4.2533e-14 0)
(1.92945 0.105446 0)
(1.82977 0.229242 0)
(1.99716 -0.00261471 0)
(2 -1.94412e-13 0)
(1.83399 0.226562 0)
(2.10842 -0.268157 0)
(2 3.03469e-14 0)
(2 1.04556e-13 0)
(2 1.20883e-13 0)
(1.90793 0.13564 0)
(2 8.55585e-14 0)
(1.96807 0.0560374 0)
(2 -1.03103e-13 0)
(1.84535 0.212634 0)
(1.83211 0.228202 0)
(2 -1.1383e-13 0)
(2.10842 -0.265202 0)
(2 1.22303e-14 0)
(1.83179 0.228784 0)
(2 5.22562e-16 0)
(2 1.88484e-14 0)
(1.8312 0.228602 0)
(1.84204 0.217611 0)
(2 -2.53978e-13 0)
(1.82622 0.229601 0)
(2 -6.62747e-14 0)
(2.12257 -0.258206 0)
(2 6.41616e-14 0)
(2 -2.93545e-14 0)
(2 -1.09218e-13 0)
(1.8327 0.228205 0)
(1.83484 0.225348 0)
(1.85181 0.20515 0)
(2 -2.16081e-14 0)
(1.82897 0.229677 0)
(1.83205 0.228984 0)
(2 -1.07604e-13 0)
(1.83136 0.229322 0)
(2 -9.04142e-09 0)
(1.83208 0.228073 0)
(2 3.38992e-14 0)
(2.11629 -0.263359 0)
(2.00659 -0.0207176 0)
(2.10246 -0.270456 0)
(2 -3.14983e-11 0)
(2 -2.40773e-11 0)
(2 -3.19992e-11 0)
(2 -9.70257e-14 0)
(2 -1.44209e-11 0)
(1.83212 0.229305 0)
(2 -1.80668e-14 0)
(1.83217 0.229352 0)
(2 -3.26129e-11 0)
(2 -8.45459e-11 0)
(2 6.18683e-14 0)
(1.84006 0.219415 0)
(2 -2.5029e-13 0)
(2.11559 -0.267105 0)
(1.83158 0.228866 0)
(2 -5.50758e-14 0)
(2.10683 -0.262434 0)
(2.11937 -0.242219 0)
(2.11786 -0.262249 0)
(2 -7.1427e-14 0)
(1.91406 0.127017 0)
(1.98408 0.0258935 0)
(1.83068 0.229505 0)
(1.8321 0.229094 0)
(2 -5.11704e-14 0)
(2 -3.27134e-07 0)
(2 -1.02756e-07 0)
(2 -1.47475e-13 0)
(1.83145 0.228797 0)
(2 -1.37801e-14 0)
(2 -1.05646e-13 0)
(1.83141 0.228923 0)
(1.83204 0.228991 0)
(2 -7.01461e-14 0)
(1.9393 0.0900582 0)
(1.99957 0.00111293 0)
(2 4.2008e-14 0)
(2.00109 -0.00199596 0)
(1.83066 0.228923 0)
(2.04901 -0.0958993 0)
(2 -1.21075e-07 0)
(2.05788 -0.127866 0)
(2.10522 -0.260914 0)
(2.105 -0.263762 0)
(2.03456 -0.0462069 0)
(1.82886 0.228443 0)
(1.83368 0.226536 0)
(1.96593 0.0479429 0)
(1.83129 0.228927 0)
(1.83189 0.228958 0)
(2 -3.0412e-14 0)
(2 -5.86097e-14 0)
(1.82862 0.228721 0)
(1.83007 0.229538 0)
(1.83155 0.228969 0)
(1.82908 0.228134 0)
(2 -9.76329e-14 0)
(1.8313 0.228969 0)
(2.10778 -0.265623 0)
(1.83098 0.229613 0)
(1.83056 0.230504 0)
(1.83051 0.227951 0)
(1.83143 0.230178 0)
(2.04617 -0.089455 0)
(2.04071 -0.069152 0)
(2.02507 -0.0500744 0)
(1.83178 0.228764 0)
(2.01186 -0.0303696 0)
(1.83087 0.229154 0)
(2 -2.21629e-13 0)
(2 4.38113e-14 0)
(1.83069 0.229664 0)
(1.83172 0.229264 0)
(2 -1.29988e-13 0)
(2.10655 -0.264306 0)
(1.83046 0.228002 0)
(1.83176 0.228881 0)
(2 5.39404e-14 0)
(1.83212 0.228756 0)
(1.83153 0.229356 0)
(2 1.86301e-14 0)
(1.83171 0.229006 0)
(2.10699 -0.26248 0)
(1.83179 0.228634 0)
(1.82876 0.228891 0)
(1.83049 0.228668 0)
(1.83032 0.230592 0)
(2 5.3185e-14 0)
(2 5.09733e-14 0)
(2 -9.44596e-08 0)
(1.83178 0.228724 0)
(1.89054 0.158869 0)
(2.11941 -0.247574 0)
(1.83143 0.228761 0)
(2.10635 -0.276865 0)
(1.83173 0.228723 0)
(2 6.68972e-14 0)
(2 9.05615e-14 0)
(2 4.81214e-14 0)
(2 -4.972e-14 0)
(1.83052 0.228951 0)
(1.83133 0.228934 0)
(2 1.05736e-14 0)
(2 5.6983e-14 0)
(1.83151 0.228897 0)
(2.108 -0.271393 0)
(1.83119 0.228251 0)
(2.10845 -0.264658 0)
(2 -2.49674e-14 0)
(1.83255 0.227787 0)
(2 -1.1378e-13 0)
(2.11341 -0.268509 0)
(1.83092 0.229692 0)
(2.10137 -0.182091 0)
(2 -3.29195e-14 0)
(1.83186 0.228897 0)
(1.83045 0.230202 0)
(1.83167 0.22958 0)
(2 -1.48474e-13 0)
(2 -5.61855e-14 0)
(1.91652 0.121292 0)
(1.8307 0.22996 0)
(2.10435 -0.262182 0)
(1.83164 0.22887 0)
(2 1.68125e-14 0)
(1.83219 0.228978 0)
(2.03726 -0.085946 0)
(1.83175 0.229799 0)
(2.1226 -0.261296 0)
(2 -1.11566e-13 0)
(1.83172 0.229226 0)
(2.1039 -0.232509 0)
(1.83072 0.229715 0)
(2.1076 -0.264832 0)
(2 2.30552e-13 0)
(1.83145 0.229167 0)
(2 1.85932e-14 0)
(1.83095 0.228821 0)
(2 -1.77538e-14 0)
(1.90112 0.144338 0)
(1.83804 0.221699 0)
(1.86645 0.188238 0)
(2.14389 -0.269604 0)
(2 -3.06488e-13 0)
(1.83122 0.228526 0)
(2 1.05056e-13 0)
(1.83201 0.228985 0)
(2 -1.19409e-07 0)
(1.8315 0.229043 0)
(2 -2.46378e-07 0)
(2 1.89189e-13 0)
(1.83077 0.229115 0)
(2.0044 -0.00729004 0)
(1.83035 0.230177 0)
(2.12124 -0.265704 0)
(1.8429 0.232063 0)
(2 7.63386e-14 0)
(1.882 0.172734 0)
(2 -2.94115e-14 0)
(1.83048 0.229287 0)
(1.83165 0.228938 0)
(1.83092 0.230077 0)
(2 8.9078e-14 0)
(1.84797 0.209967 0)
(1.83063 0.228705 0)
(1.84392 0.215247 0)
(1.89706 0.146847 0)
(1.82551 0.232814 0)
(2 6.90182e-14 0)
(1.88863 0.161745 0)
(2 -9.43234e-14 0)
(1.8309 0.22914 0)
(2 1.81129e-13 0)
(1.97599 0.0409004 0)
(2 6.84028e-15 0)
(1.84365 0.215906 0)
(2 5.89154e-14 0)
(1.83212 0.228991 0)
(1.83942 0.219981 0)
(1.83969 0.219472 0)
(2 -4.42058e-14 0)
(1.84286 0.224027 0)
(2.11369 -0.267496 0)
(2 -2.48572e-14 0)
(2.11177 -0.266094 0)
(2 -3.45965e-13 0)
(2 1.04188e-13 0)
(2 3.82491e-14 0)
(1.83054 0.228356 0)
(2 9.82776e-14 0)
(1.83148 0.22921 0)
(2 -1.98652e-14 0)
(2 -2.65471e-13 0)
(2 -4.21111e-14 0)
(1.83137 0.229298 0)
(1.83655 0.233166 0)
(1.85439 0.200916 0)
(1.83161 0.229259 0)
(1.83231 0.227916 0)
(2.12598 -0.261512 0)
(1.83413 0.23228 0)
(1.83159 0.228966 0)
(2 -6.44091e-14 0)
(1.85479 0.202077 0)
(1.83158 0.228775 0)
(1.84006 0.215748 0)
(2 -8.87605e-14 0)
(1.83127 0.228758 0)
(1.83142 0.22893 0)
(2 4.23285e-17 0)
(1.83118 0.232193 0)
(1.83094 0.228929 0)
(1.83086 0.228841 0)
(1.83099 0.229642 0)
(2 -1.85732e-13 0)
(2 -2.00552e-13 0)
(2 -2.55661e-13 0)
(1.83164 0.229006 0)
(2.11413 -0.265031 0)
(2 -9.68118e-14 0)
(1.83169 0.228861 0)
(2 -1.12328e-13 0)
(2 5.46244e-14 0)
(2.10727 -0.266348 0)
(2 -3.21597e-14 0)
(2 5.79517e-14 0)
(1.83157 0.228869 0)
(1.83196 0.228908 0)
(2 5.13093e-14 0)
(1.83157 0.228834 0)
(1.82846 0.230673 0)
(1.83231 0.229253 0)
(2.00647 -0.0123988 0)
(1.83139 0.228984 0)
(2 -5.69456e-15 0)
(1.83147 0.228963 0)
(1.83198 0.228803 0)
(1.86847 0.184868 0)
(2 4.50699e-14 0)
(2 -1.50325e-13 0)
(2 -5.10044e-15 0)
(1.83143 0.228102 0)
(1.83158 0.229143 0)
(1.83183 0.228923 0)
(2.0106 -0.0297678 0)
(2 -7.69702e-14 0)
(1.82368 0.230193 0)
(1.83169 0.229033 0)
(1.83097 0.228146 0)
(2 -3.79159e-15 0)
(1.83175 0.229134 0)
(1.83089 0.22905 0)
(1.8315 0.228987 0)
(1.82771 0.231527 0)
(2 -9.55924e-14 0)
(1.83188 0.228613 0)
(1.83162 0.228942 0)
(1.84916 0.202254 0)
(1.83159 0.228399 0)
(1.82863 0.231791 0)
(2 -4.04347e-14 0)
(1.83037 0.228652 0)
(1.83361 0.226967 0)
(1.83181 0.228902 0)
(1.83095 0.229504 0)
(1.83151 0.229311 0)
(2.11976 -0.261213 0)
(1.83092 0.228655 0)
(1.83166 0.228551 0)
(2 -3.1835e-14 0)
(1.83126 0.229041 0)
(1.83195 0.228681 0)
(1.83128 0.228998 0)
(1.83165 0.228881 0)
(2 -5.38632e-08 0)
(1.83166 0.228998 0)
(1.83147 0.22908 0)
(2 -1.58421e-07 0)
(1.83182 0.228835 0)
(1.85699 0.199818 0)
(2 -2.46428e-13 0)
(2 2.90917e-14 0)
(2 4.75038e-10 0)
(1.83237 0.228356 0)
(1.83156 0.23352 0)
(2 -1.84575e-14 0)
(2 6.94541e-14 0)
(1.90831 0.138456 0)
(2 -5.81414e-14 0)
(1.83207 0.228866 0)
(2 4.58095e-14 0)
(2 3.18462e-14 0)
(1.83168 0.228829 0)
(1.83077 0.22953 0)
(1.83182 0.229229 0)
(1.83201 0.228995 0)
(2 2.71629e-14 0)
(2 -3.87456e-14 0)
(2 2.02951e-13 0)
(1.87491 0.168137 0)
(2 -2.02133e-13 0)
(1.83142 0.229392 0)
(2 -4.03024e-14 0)
(2 -9.30658e-14 0)
(1.82933 0.228743 0)
(1.82886 0.22881 0)
(2 -1.45608e-15 0)
(1.83164 0.228789 0)
(2.09688 -0.282994 0)
(1.83184 0.229025 0)
(1.83166 0.228088 0)
(2.09763 -0.20486 0)
(2 -8.29382e-14 0)
(2.13754 -0.270067 0)
(1.8445 0.201858 0)
(1.83188 0.228696 0)
(1.83133 0.229798 0)
(1.83144 0.229949 0)
(2.10678 -0.267492 0)
(1.83045 0.228641 0)
(1.83137 0.229442 0)
(2.1092 -0.266064 0)
(2.12204 -0.278435 0)
(2 -2.70708e-07 0)
(1.83186 0.228775 0)
(1.83143 0.22902 0)
(2 -1.04347e-13 0)
(2 -1.45139e-14 0)
(1.83136 0.22923 0)
(2 -7.01447e-14 0)
(1.82895 0.229622 0)
(2 2.58485e-06 0)
(1.85321 0.202998 0)
(2 8.93124e-15 0)
(1.92244 0.115584 0)
(1.83125 0.229331 0)
(1.83055 0.229943 0)
(1.87545 0.169103 0)
(1.84826 0.20219 0)
(1.83144 0.228943 0)
(1.82955 0.229002 0)
(1.85413 0.20927 0)
(2 -1.21587e-13 0)
(2.11209 -0.265515 0)
(1.8319 0.22834 0)
(1.83182 0.228424 0)
(1.82797 0.230281 0)
(2 7.02302e-06 0)
(2 3.55973e-10 0)
(2 1.58954e-09 0)
(1.82863 0.231832 0)
(2 -1.56872e-13 0)
(1.83168 0.228831 0)
(1.83109 0.228311 0)
(2.08828 -0.173677 0)
(2 -1.55875e-13 0)
(1.83144 0.229229 0)
(2.00002 -4.6186e-05 0)
(2 1.03336e-13 0)
(1.99999 1.74682e-05 0)
(1.99998 2.49136e-05 0)
(1.8318 0.228549 0)
(1.83317 0.229333 0)
(2.00056 -0.000899922 0)
(2 3.14851e-14 0)
(2 5.81973e-14 0)
(1.8319 0.228948 0)
(1.83061 0.230052 0)
(1.83154 0.228735 0)
(1.8316 0.229128 0)
(1.83122 0.229926 0)
(2.11286 -0.251922 0)
(1.86692 0.190934 0)
(2 -1.25151e-13 0)
(1.83281 0.227463 0)
(1.83171 0.229284 0)
(1.83153 0.22933 0)
(1.83781 0.22349 0)
(2 -1.80482e-13 0)
(1.83154 0.228861 0)
(1.83598 0.224006 0)
(1.83076 0.229578 0)
(2 -2.4043e-14 0)
(1.83068 0.228458 0)
(1.83067 0.229329 0)
(2.04979 -0.0992312 0)
(1.83157 0.22893 0)
(1.83073 0.228283 0)
(2 4.02269e-14 0)
(1.83149 0.228735 0)
(2.06248 -0.108883 0)
(1.83175 0.229073 0)
(2.04113 -0.101094 0)
(1.8315 0.228878 0)
(2 -1.08497e-07 0)
(1.83137 0.228915 0)
(1.82469 0.233452 0)
(1.8317 0.228881 0)
(1.83146 0.229019 0)
(1.8313 0.228847 0)
(1.82859 0.228587 0)
(1.83123 0.229171 0)
(1.83016 0.227696 0)
(2 -2.27218e-13 0)
(2.02083 -0.0523665 0)
(1.83145 0.228784 0)
(1.83171 0.229165 0)
(2.06654 -0.108101 0)
(1.83135 0.228906 0)
(2.00512 -0.0155394 0)
(1.8966 0.152273 0)
(1.83153 0.22868 0)
(1.83132 0.229146 0)
(1.82998 0.228229 0)
(2 7.60102e-14 0)
(1.83038 0.230208 0)
(1.89319 0.152326 0)
(1.83148 0.229552 0)
(2.02907 -0.0553551 0)
(1.83037 0.22998 0)
(1.82556 0.229452 0)
(2 6.8083e-14 0)
(2.05385 -0.0861379 0)
(2 -2.93946e-09 0)
(1.82587 0.230325 0)
(2 1.29599e-13 0)
(1.8845 0.167771 0)
(2 3.07809e-09 0)
(1.84136 0.21886 0)
(2.04586 -0.0884585 0)
(2 1.25709e-13 0)
(1.83151 0.228587 0)
(1.82996 0.234992 0)
(2 2.23352e-14 0)
(1.83003 0.229848 0)
(1.83066 0.229677 0)
(1.82832 0.231161 0)
(1.83007 0.232102 0)
(1.83019 0.233946 0)
(2 -1.74805e-13 0)
(1.82967 0.228763 0)
(2 7.6189e-14 0)
(2 6.77727e-15 0)
(2 -1.78314e-14 0)
(2.0257 -0.0750928 0)
(1.83214 0.229191 0)
(1.83174 0.22793 0)
(1.83087 0.227965 0)
(1.83153 0.228832 0)
(1.82775 0.231273 0)
(1.83116 0.22756 0)
(1.83169 0.23338 0)
(1.83152 0.229188 0)
(2.02062 -0.0757312 0)
(1.98902 0.0220927 0)
(2 3.42721e-09 0)
(2 -9.39066e-14 0)
(1.82398 0.232964 0)
(1.83167 0.228982 0)
(1.83159 0.228966 0)
(1.8315 0.228929 0)
(1.99999 1.6687e-05 0)
(1.91796 0.127648 0)
(2 -1.69043e-07 0)
(1.83099 0.231284 0)
(1.84669 0.217087 0)
(2 -3.22695e-12 0)
(2 -4.97012e-11 0)
(2.08081 -0.194833 0)
(1.83201 0.228809 0)
(2 -3.45824e-13 0)
(2 -3.68112e-14 0)
(2.10611 -0.263531 0)
(1.83146 0.229024 0)
(2 -2.8586e-13 0)
(1.83116 0.229131 0)
(1.83136 0.2291 0)
(1.83136 0.228838 0)
(1.8379 0.22181 0)
(1.83131 0.228977 0)
(2 -5.23953e-11 0)
(2.14041 -0.259688 0)
(1.96078 0.0634952 0)
(1.83071 0.22885 0)
(1.83123 0.228935 0)
(2 7.33573e-14 0)
(1.83227 0.228906 0)
(1.83168 0.228807 0)
(1.91858 0.124625 0)
(1.99838 0.00596419 0)
(1.96707 0.053279 0)
(2 2.38618e-14 0)
(1.83087 0.229253 0)
(1.83148 0.229149 0)
(2 -1.17679e-07 0)
(2 -1.99472e-10 0)
(2.11523 -0.263411 0)
(2 -2.32038e-10 0)
(2 -3.53379e-14 0)
(1.8317 0.228831 0)
(1.83167 0.228865 0)
(1.83162 0.228292 0)
(1.83157 0.228789 0)
(1.83188 0.228835 0)
(1.82801 0.227954 0)
(1.83124 0.229093 0)
(1.83044 0.230084 0)
(1.83142 0.228698 0)
(2 1.46771e-13 0)
(2.00141 -0.00236009 0)
(1.83142 0.228834 0)
(1.83181 0.228997 0)
(2.00093 -0.00170547 0)
(1.83157 0.228898 0)
(1.83199 0.228776 0)
(2.14157 -0.259866 0)
(2.11626 -0.265021 0)
(1.8313 0.228391 0)
(1.8328 0.227899 0)
(2 -3.09744e-14 0)
(2 -1.79953e-13 0)
(1.99897 0.00217607 0)
(1.83145 0.228904 0)
(1.8318 0.229114 0)
(1.83147 0.228934 0)
(2 1.00814e-09 0)
(1.83149 0.228892 0)
(2 -4.53943e-14 0)
(2.04696 -0.0934949 0)
(1.82846 0.231348 0)
(1.83409 0.232214 0)
(2 -1.06823e-14 0)
(1.91938 0.110499 0)
(1.83204 0.229512 0)
(2 -6.23314e-14 0)
(1.82852 0.227913 0)
(2 -1.05824e-10 0)
(1.83187 0.228638 0)
(1.8903 0.159307 0)
(1.83166 0.229622 0)
(2 1.39963e-11 0)
(1.83134 0.22906 0)
(1.83416 0.231045 0)
(2.11669 -0.262315 0)
(1.83136 0.229302 0)
(2 -1.27552e-07 0)
(1.83165 0.228198 0)
(1.82982 0.228866 0)
(2 7.22894e-09 0)
(2.13986 -0.256713 0)
(1.82991 0.230139 0)
(1.87476 0.183482 0)
(2.00072 -0.00121755 0)
(1.83132 0.235058 0)
(1.83196 0.228643 0)
(2 -5.17214e-12 0)
(1.99758 -0.00496301 0)
(1.8299 0.230222 0)
(2.0026 -0.00295532 0)
(1.83132 0.228976 0)
(2 -3.24835e-12 0)
(2 -9.44423e-14 0)
(1.83133 0.228748 0)
(2 3.75325e-14 0)
(1.83007 0.228668 0)
(1.8316 0.229049 0)
(2.00127 -0.00231241 0)
(1.87637 0.176655 0)
(2 3.21471e-09 0)
(1.83189 0.228777 0)
(2 2.08374e-09 0)
(2 -6.50058e-13 0)
(2 1.05182e-11 0)
(2 6.21589e-12 0)
(1.83139 0.228857 0)
(2 7.09407e-09 0)
(2 -2.35526e-13 0)
(1.83099 0.234302 0)
(2 -1.12893e-13 0)
(1.83117 0.229077 0)
(2 2.6591e-10 0)
(1.89242 0.155762 0)
(1.83296 0.228072 0)