/*--------------------------------*- C++ -*----------------------------------*\
  =========                 |
  \\      /  F ield         | OpenFOAM: The Open Source CFD Toolbox
   \\    /   O peration     | Website:  https://openfoam.org
    \\  /    A nd           | Version:  12
     \\/     M anipulation  |
\*---------------------------------------------------------------------------*/
FoamFile
{
    format      ascii;
    class       volVectorField;
    location    "1.8";
    object      U;
}
// * * * * * * * * * * * * * * * * * * * * * * * * * * * * * * * * * * * * * //

dimensions      [0 1 -1 0 0 0 0];

internalField   nonuniform List<vector> 
22702
(
(2 2.64217e-13 0)
(2 7.66427e-14 0)
(2.04851 -0.0889061 0)
(2 -1.12856e-09 0)
(1.97608 0.0359258 0)
(2 1.14989e-14 0)
(1.82735 0.228142 0)
(2 -9.45023e-14 0)
(2 1.69542e-13 0)
(2.13451 -0.264928 0)
(1.83019 0.228219 0)
(1.82729 0.228587 0)
(2 -1.33971e-14 0)
(1.83212 0.229361 0)
(2.03997 -0.0735899 0)
(2 -2.89647e-14 0)
(2 7.43122e-14 0)
(2 6.98946e-14 0)
(1.82937 0.228328 0)
(2 6.72474e-14 0)
(1.83112 0.22926 0)
(2 1.08887e-13 0)
(1.8289 0.228425 0)
(2.10585 -0.263817 0)
(1.83064 0.228286 0)
(2.12551 -0.267087 0)
(2 -1.16087e-13 0)
(1.82711 0.228187 0)
(2.13808 -0.269007 0)
(2.1074 -0.265223 0)
(2 -1.58643e-14 0)
(1.82903 0.229067 0)
(2 -1.62141e-14 0)
(2 -5.47412e-14 0)
(2 -9.99648e-14 0)
(1.84413 0.214579 0)
(1.82875 0.228707 0)
(1.82943 0.229021 0)
(2 7.89477e-14 0)
(2 2.26785e-14 0)
(2.13256 -0.261312 0)
(2 1.95493e-14 0)
(1.91581 0.122321 0)
(2 -7.20646e-14 0)
(1.82669 0.228076 0)
(2 -1.35017e-13 0)
(2 1.27914e-13 0)
(2 -1.05432e-13 0)
(2 -6.44579e-14 0)
(2.10696 -0.268831 0)
(2 -3.76615e-14 0)
(2.10603 -0.260446 0)
(2 -3.30245e-14 0)
(1.83045 0.22842 0)
(2 -6.84214e-14 0)
(1.83132 0.22922 0)
(2 1.06433e-13 0)
(2 1.36666e-09 0)
(2 2.38338e-14 0)
(2 -1.79572e-14 0)
(2.09658 -0.264662 0)
(2 -1.14057e-13 0)
(2 1.09947e-13 0)
(2.1036 -0.254446 0)
(2 5.40713e-14 0)
(2.0951 -0.267069 0)
(2 1.28595e-13 0)
(2 6.50503e-14 0)
(2 4.57888e-14 0)
(2.14359 -0.262011 0)
(2 1.19172e-14 0)
(1.82852 0.228235 0)
(1.89595 0.151583 0)
(2 1.14863e-09 0)
(1.83381 0.22883 0)
(1.82251 0.238529 0)
(2.1177 -0.267766 0)
(1.82822 0.228061 0)
(2.10483 -0.262572 0)
(2 1.5725e-13 0)
(1.82936 0.228448 0)
(2.1055 -0.264818 0)
(1.83061 0.229068 0)
(1.82966 0.229291 0)
(2 7.65798e-14 0)
(2 9.07496e-07 0)
(2 4.88436e-14 0)
(2 3.26053e-14 0)
(2.02799 -0.0484802 0)
(2.13845 -0.261878 0)
(1.83446 0.228548 0)
(2 -5.56109e-15 0)
(2 -5.60979e-11 0)
(2.11513 -0.267978 0)
(2 2.8862e-14 0)
(1.83122 0.229159 0)
(2.11209 -0.262433 0)
(2 2.41661e-08 0)
(2 6.4892e-14 0)
(2 1.0835e-13 0)
(2 -8.39944e-14 0)
(1.91576 0.123854 0)
(1.82948 0.228141 0)
(2.12688 -0.264663 0)
(2 -5.31925e-10 0)
(2 -9.21036e-10 0)
(1.95864 0.062087 0)
(2 9.51915e-09 0)
(2.10377 -0.263926 0)
(2 1.75688e-13 0)
(1.82815 0.228302 0)
(1.83059 0.228748 0)
(2 4.25967e-09 0)
(2 -6.15538e-14 0)
(2.12492 -0.272108 0)
(2.12105 -0.272085 0)
(2.13638 -0.262535 0)
(2 -1.04268e-14 0)
(2 -1.32149e-07 0)
(2 -5.32574e-14 0)
(2 -7.08753e-14 0)
(2 1.11228e-07 0)
(2.02898 -0.0555003 0)
(2 -1.07538e-07 0)
(1.85703 0.200023 0)
(1.98178 0.0230453 0)
(1.82967 0.229228 0)
(2 1.37707e-13 0)
(1.83124 0.229826 0)
(1.82904 0.228303 0)
(1.83166 0.229365 0)
(1.83251 0.228939 0)
(2 4.87984e-14 0)
(2.13969 -0.262005 0)
(2 -5.33211e-15 0)
(2.08753 -0.268798 0)
(2 -3.02388e-16 0)
(2 -4.44788e-14 0)
(2 7.7281e-14 0)
(2 3.97302e-14 0)
(1.82972 0.228651 0)
(2 3.09848e-09 0)
(2 -2.61506e-14 0)
(2 -1.34463e-13 0)
(2 -4.36989e-14 0)
(1.83262 0.229693 0)
(2 -4.01452e-14 0)
(1.99274 0.0138902 0)
(2 -1.33702e-14 0)
(2 7.98284e-14 0)
(2 -6.59242e-11 0)
(2 1.55707e-14 0)
(2.10795 -0.263069 0)
(2 -8.63476e-15 0)
(1.99494 0.00901221 0)
(2 4.50439e-14 0)
(2.10377 -0.262164 0)
(2 -1.07144e-13 0)
(2 -5.19763e-14 0)
(2 -1.21312e-13 0)
(1.83379 0.228977 0)
(2 -3.68484e-14 0)
(1.82706 0.228108 0)
(2.11409 -0.278282 0)
(2.13067 -0.265809 0)
(1.83191 0.228759 0)
(1.8291 0.227495 0)
(2 3.56098e-14 0)
(1.97108 0.0469693 0)
(1.90328 0.141419 0)
(2 7.44857e-14 0)
(1.83261 0.228729 0)
(2.10449 -0.262655 0)
(1.84363 0.214779 0)
(2 7.92538e-14 0)
(2 6.61568e-14 0)
(2 2.28482e-14 0)
(2 -1.82861e-13 0)
(1.82972 0.229379 0)
(1.85926 0.185002 0)
(2 -5.67027e-14 0)
(1.82966 0.228904 0)
(2.06492 -0.247465 0)
(1.83231 0.228915 0)
(2 2.12238e-14 0)
(2.10479 -0.26418 0)
(2 8.50234e-14 0)
(2.10719 -0.258724 0)
(2.12692 -0.268619 0)
(2.00008 -0.000140127 0)
(2 -1.70422e-13 0)
(2 1.68106e-14 0)
(1.829 0.229651 0)
(2 2.23991e-14 0)
(2 1.13009e-13 0)
(1.83276 0.229817 0)
(2 -8.50378e-14 0)
(1.83057 0.22901 0)
(1.82967 0.228801 0)
(2.10636 -0.272054 0)
(2 -2.67133e-14 0)
(2 2.93371e-13 0)
(2.11407 -0.261015 0)
(1.82973 0.228483 0)
(2 -5.13511e-14 0)
(2 3.1434e-14 0)
(2 3.72694e-14 0)
(1.82971 0.228557 0)
(2 -5.60906e-14 0)
(2.1183 -0.265283 0)
(2 -6.1109e-11 0)
(2 -2.14379e-13 0)
(1.8314 0.228764 0)
(1.8321 0.229068 0)
(1.82957 0.228642 0)
(2 -8.25857e-15 0)
(1.99999 2.42863e-05 0)
(2 -1.03394e-16 0)
(2 1.897e-14 0)
(2 5.59917e-14 0)
(1.83134 0.229168 0)
(2 -1.13289e-13 0)
(2.06813 -0.251853 0)
(1.82402 0.235435 0)
(1.82801 0.228567 0)
(1.82706 0.227273 0)
(2 1.96412e-07 0)
(2 1.01641e-13 0)
(2 -1.75868e-13 0)
(2.11282 -0.275802 0)
(1.83104 0.228333 0)
(1.92525 0.122459 0)
(2 -7.65834e-15 0)
(1.83099 0.229372 0)
(2.08817 -0.257948 0)
(2.09734 -0.26067 0)
(1.83098 0.229446 0)
(1.83287 0.229269 0)
(2 -8.94737e-14 0)
(1.82878 0.230032 0)
(2.1353 -0.268489 0)
(1.85134 0.206985 0)
(2 -3.23982e-14 0)
(2 1.53395e-13 0)
(2 -1.06918e-13 0)
(2 4.83094e-14 0)
(1.83364 0.229969 0)
(2 -6.21297e-14 0)
(1.90866 0.13675 0)
(1.98397 0.0292828 0)
(2 1.19452e-13 0)
(2 -1.95749e-13 0)
(1.8339 0.229299 0)
(2.08453 -0.26476 0)
(2.08629 -0.152446 0)
(2 1.12732e-13 0)
(1.83166 0.228546 0)
(2.13781 -0.262049 0)
(1.8283 0.231191 0)
(2 -4.27484e-14 0)
(2 -5.09614e-14 0)
(2 1.52842e-14 0)
(2 6.21899e-14 0)
(2 5.70315e-14 0)
(2 7.19446e-14 0)
(2 8.7741e-14 0)
(2.11033 -0.26509 0)
(2.08891 -0.156721 0)
(2.10205 -0.262434 0)
(1.83189 0.2291 0)
(2 -6.68341e-14 0)
(2 2.01059e-13 0)
(2 -1.59556e-07 0)
(2 -1.3566e-13 0)
(1.84857 0.211168 0)
(2 -1.43778e-07 0)
(2.10674 -0.262259 0)
(2 -5.94368e-14 0)
(2.115 -0.28212 0)
(2.11297 -0.263831 0)
(1.83252 0.229324 0)
(2.08503 -0.263949 0)
(1.83118 0.22935 0)
(2 4.30737e-14 0)
(2 5.57124e-14 0)
(2 6.11114e-14 0)
(2.00076 -0.00166553 0)
(2.10474 -0.257787 0)
(2.13005 -0.27132 0)
(2 -2.93494e-07 0)
(2 -1.5134e-07 0)
(2.11782 -0.285934 0)
(2 2.35422e-09 0)
(1.82883 0.228195 0)
(2.1298 -0.258342 0)
(2 -2.83039e-14 0)
(2 -3.29661e-11 0)
(1.8303 0.228512 0)
(2.117 -0.273113 0)
(2 3.99944e-14 0)
(1.82728 0.230597 0)
(2.13168 -0.271516 0)
(1.83258 0.229029 0)
(2 1.88057e-13 0)
(2.10981 -0.283956 0)
(2.00089 -0.00147222 0)
(2 -7.96732e-15 0)
(2 2.95354e-06 0)
(2 5.50741e-14 0)
(2.10668 -0.264042 0)
(2 -2.90327e-14 0)
(2 -1.71886e-07 0)
(2 -1.6578e-07 0)
(1.99999 5.23746e-06 0)
(1.99653 0.00377259 0)
(1.89459 0.151785 0)
(2 -2.7372e-11 0)
(2.12657 -0.251115 0)
(2 -1.55181e-11 0)
(2 1.73862e-06 0)
(2 -8.29012e-15 0)
(2 1.54634e-13 0)
(2 -3.4823e-14 0)
(2 1.64072e-13 0)
(2 -8.996e-13 0)
(1.83174 0.228914 0)
(2 4.5901e-13 0)
(1.82859 0.229005 0)
(2 2.35717e-13 0)
(2 1.48394e-13 0)
(2 -1.19932e-14 0)
(2.13727 -0.256317 0)
(2 -1.21683e-14 0)
(1.83348 0.228827 0)
(2.08008 -0.261021 0)
(2 -1.39279e-13 0)
(1.88634 0.185407 0)
(2 -5.76096e-15 0)
(2 1.36147e-13 0)
(1.82989 0.228099 0)
(2 2.09988e-14 0)
(2 -8.26749e-09 0)
(2 -3.72094e-14 0)
(1.83283 0.226244 0)
(2 4.56755e-10 0)
(2 -9.10922e-14 0)
(1.83762 0.223122 0)
(1.82973 0.227954 0)
(2 3.2506e-14 0)
(1.9645 0.0533983 0)
(2 4.38235e-14 0)
(2 -8.64982e-15 0)
(2.08456 -0.268154 0)
(2 6.05694e-14 0)
(2 4.38717e-14 0)
(2 1.53562e-14 0)
(2.11088 -0.263718 0)
(2 1.13033e-13 0)
(2 -6.4769e-15 0)
(2 6.99849e-14 0)
(2 8.46071e-14 0)
(2.12272 -0.266532 0)
(2 9.86458e-14 0)
(2 6.5982e-14 0)
(2 -5.30951e-14 0)
(2 1.308e-13 0)
(2 1.04903e-13 0)
(2.13319 -0.26208 0)
(1.99998 3.89661e-05 0)
(1.82623 0.228039 0)
(2 1.16632e-13 0)
(1.99999 -4.02413e-05 0)
(1.82871 0.228383 0)
(1.83096 0.228471 0)
(2 1.83188e-13 0)
(2 1.11435e-13 0)
(2.10047 -0.277826 0)
(2.04904 -0.135426 0)
(1.82931 0.228759 0)
(2 -3.93902e-14 0)
(2 5.40563e-14 0)
(2 9.96313e-14 0)
(1.83093 0.228262 0)
(2.14386 -0.260473 0)
(2 5.56167e-14 0)
(1.82756 0.228214 0)
(2 -7.09496e-14 0)
(2 -6.03849e-14 0)
(2.07975 -0.224348 0)
(2.09976 -0.219254 0)
(2 2.18825e-14 0)
(2.11388 -0.266235 0)
(2.1206 -0.26158 0)
(2 -3.10116e-14 0)
(2 7.22415e-14 0)
(2 8.30063e-14 0)
(2 -1.51401e-13 0)
(2 -9.05592e-11 0)
(2 -4.16166e-14 0)
(2 1.95613e-14 0)
(1.82773 0.228887 0)
(1.95801 0.0614621 0)
(1.83837 0.220546 0)
(2.12967 -0.260278 0)
(2.04448 -0.0559728 0)
(1.82881 0.228968 0)
(2 -4.58282e-13 0)
(1.83405 0.228765 0)
(1.82933 0.22895 0)
(2.09261 -0.267662 0)
(2.06795 -0.157778 0)
(2 6.53809e-13 0)
(2.12215 -0.264841 0)
(2 -6.09448e-14 0)
(1.8208 0.233645 0)
(2 -5.35141e-14 0)
(2 -1.67299e-13 0)
(2 -1.64392e-13 0)
(2 -1.36075e-14 0)
(1.8288 0.228474 0)
(2 1.02698e-13 0)
(2 -3.66566e-14 0)
(2 -5.34652e-14 0)
(2 1.56362e-09 0)
(2 1.64698e-13 0)
(2 2.2058e-14 0)
(2 2.00874e-13 0)
(1.94009 0.0944215 0)
(1.83225 0.228226 0)
(2 -1.9039e-13 0)
(1.83119 0.228319 0)
(2 2.20153e-14 0)
(2 4.87682e-14 0)
(2.10902 -0.266596 0)
(2 1.12359e-13 0)
(2 -7.99841e-14 0)
(2 1.44888e-13 0)
(2 1.05786e-14 0)
(1.83153 0.22878 0)
(1.87196 0.182327 0)
(2 -1.10687e-13 0)
(2 -7.32745e-14 0)
(2.11071 -0.268621 0)
(1.82694 0.228423 0)
(1.8304 0.228765 0)
(2 -4.95829e-15 0)
(1.83006 0.228595 0)
(1.8322 0.228784 0)
(1.83141 0.228732 0)
(2 6.52253e-15 0)
(2.04903 -0.120746 0)
(2 8.92425e-14 0)
(1.83201 0.228562 0)
(1.99972 -0.0106883 0)
(1.83101 0.228324 0)
(2 -1.28813e-13 0)
(2.10361 -0.265709 0)
(2.00035 -0.000615288 0)
(1.82994 0.22841 0)
(2 8.3747e-14 0)
(2 -5.5655e-14 0)
(2 -4.97223e-11 0)
(2 -2.28687e-11 0)
(2.10755 -0.262638 0)
(1.83152 0.229021 0)
(1.84716 0.212045 0)
(2 7.59704e-14 0)
(1.82737 0.226533 0)
(1.83047 0.228187 0)
(1.82921 0.228286 0)
(2 -3.61453e-14 0)
(1.92728 0.125919 0)
(1.82863 0.228319 0)
(2 -2.4155e-15 0)
(2 -8.13278e-14 0)
(1.88143 0.169364 0)
(1.97927 0.0355229 0)
(1.83089 0.228222 0)
(2.02289 -0.0454697 0)
(1.83072 0.228345 0)
(2 -4.49036e-14 0)
(1.83092 0.228369 0)
(1.83116 0.228445 0)
(1.83183 0.229 0)
(1.82699 0.227693 0)
(2 -3.68068e-14 0)
(1.83473 0.234732 0)
(2.04488 -0.0547576 0)
(2.04123 -0.07382 0)
(2 -7.09965e-15 0)
(2 -3.69164e-07 0)
(2 -8.84889e-14 0)
(2 -2.90836e-15 0)
(1.8316 0.22759 0)
(2 -3.60794e-14 0)
(2 -1.22967e-14 0)
(2 2.48386e-14 0)
(2 1.35619e-13 0)
(2 1.16987e-15 0)
(1.82986 0.228436 0)
(2 -2.19322e-14 0)
(2 1.03761e-13 0)
(2.0015 -0.00264342 0)
(1.8317 0.229382 0)
(1.85708 0.203492 0)
(2 2.48411e-13 0)
(1.87001 0.188091 0)
(1.99998 2.79664e-05 0)
(2 9.58405e-14 0)
(2 1.54021e-13 0)
(1.82589 0.22796 0)
(2 2.77664e-14 0)
(2.00218 -0.0026398 0)
(1.99742 0.0044715 0)
(2 1.41114e-14 0)
(1.83092 0.22854 0)
(2 7.98762e-14 0)
(1.83169 0.228845 0)
(2 2.45253e-14 0)
(2 -9.7215e-15 0)
(1.87625 0.176388 0)
(2 5.35265e-14 0)
(1.83268 0.229473 0)
(1.99999 1.27545e-05 0)
(2 3.42801e-14 0)
(1.833 0.229708 0)
(2 -8.6566e-14 0)
(1.83324 0.229062 0)
(2 -1.71521e-13 0)
(2 2.94398e-06 0)
(2 -4.61981e-14 0)
(1.83326 0.229667 0)
(2 8.98049e-14 0)
(1.83068 0.228245 0)
(2 4.48862e-06 0)
(1.83064 0.228976 0)
(1.82851 0.228285 0)
(1.83227 0.229222 0)
(1.82825 0.22867 0)
(2 5.21064e-14 0)
(1.83095 0.228357 0)
(1.83291 0.226655 0)
(2 8.84513e-14 0)
(2.11006 -0.265119 0)
(1.84109 0.217937 0)
(1.87649 0.173275 0)
(2 -1.3164e-14 0)
(1.82913 0.229199 0)
(2 -2.0143e-14 0)
(2.08165 -0.266303 0)
(2.12394 -0.270382 0)
(2 1.35085e-13 0)
(2 1.00145e-13 0)
(2 9.94771e-14 0)
(2 1.96605e-13 0)
(2 1.61524e-09 0)
(2.11303 -0.265188 0)
(2 1.89192e-14 0)
(1.83158 0.228579 0)
(1.95831 0.0624898 0)
(1.82679 0.227741 0)
(2 -1.0142e-13 0)
(2 7.17534e-11 0)
(2 6.10488e-14 0)
(2 8.94593e-14 0)
(2 -5.14904e-08 0)
(1.83169 0.228808 0)
(2 8.74836e-14 0)
(1.83186 0.228897 0)
(1.89953 0.147383 0)
(2.06158 -0.157456 0)
(2 1.31434e-09 0)
(1.99999 6.40539e-06 0)
(1.94955 0.0792401 0)
(1.95939 0.0697824 0)
(2 -5.15711e-14 0)
(2 7.40361e-14 0)
(1.94065 0.0883495 0)
(2 -7.88696e-14 0)
(2.10838 -0.264728 0)
(1.83233 0.229349 0)
(1.83191 0.2292 0)
(2 -7.04645e-11 0)
(2 2.28227e-14 0)
(2 -1.57167e-14 0)
(1.82837 0.228193 0)
(2 -1.28937e-13 0)
(1.99999 1.63042e-05 0)
(1.82698 0.226736 0)
(1.83243 0.229387 0)
(2.00836 -0.026774 0)
(2 1.12704e-13 0)
(2 1.81593e-10 0)
(2.10701 -0.27044 0)
(1.84606 0.212043 0)
(2 6.09077e-15 0)
(2 -1.96865e-13 0)
(2 -3.9868e-14 0)
(2 -2.74545e-11 0)
(2 1.16837e-14 0)
(1.833 0.229202 0)
(1.83089 0.228846 0)
(2 -1.21574e-14 0)
(1.83214 0.229259 0)
(1.82956 0.228969 0)
(1.83337 0.229474 0)
(2 -6.83348e-14 0)
(2 -1.30252e-13 0)
(2 -5.45997e-11 0)
(2 5.23225e-14 0)
(2.13265 -0.258502 0)
(1.82957 0.228977 0)
(2 -3.83369e-11 0)
(2 6.97619e-14 0)
(1.84546 0.212905 0)
(1.83205 0.228235 0)
(2 -1.78515e-13 0)
(1.84174 0.217185 0)
(1.83318 0.229081 0)
(2 4.82831e-14 0)
(2 -2.18302e-07 0)
(2 1.02395e-10 0)
(2 1.42825e-13 0)
(2 4.3242e-14 0)
(1.83152 0.228634 0)
(2 1.08225e-13 0)
(2 5.76635e-15 0)
(2 4.14681e-14 0)
(2 -6.14107e-14 0)
(1.8304 0.229119 0)
(2 -1.1836e-13 0)
(1.82778 0.233713 0)
(2.10901 -0.262763 0)
(2 6.86195e-14 0)
(2.1101 -0.270288 0)
(2 8.50429e-14 0)
(2 -1.61458e-07 0)
(2 7.14485e-14 0)
(2.0013 -0.0016118 0)
(2.10756 -0.257979 0)
(2.00034 -0.000470735 0)
(2 -1.0288e-13 0)
(2 -2.498e-14 0)
(2 -1.18614e-07 0)
(1.97468 0.0389805 0)
(2 7.20191e-14 0)
(2 8.02217e-14 0)
(2.0413 -0.0981492 0)
(2 -2.14891e-07 0)
(2 -5.76656e-14 0)
(2 4.48333e-14 0)
(2 -2.15761e-07 0)
(2 1.96649e-07 0)
(2 -1.86519e-07 0)
(2 -3.32176e-13 0)
(2 -1.68759e-06 0)
(2.02683 -0.0418107 0)
(2 -5.22455e-07 0)
(2 -3.89517e-08 0)
(2.00085 -0.00143153 0)
(2 9.58943e-14 0)
(2.11521 -0.262431 0)
(2 -2.80227e-11 0)
(2 -4.60209e-12 0)
(2 -1.81584e-11 0)
(2 -5.59053e-14 0)
(1.87433 0.1793 0)
(2 8.8173e-15 0)
(2 1.66088e-13 0)
(2 -2.03048e-14 0)
(2 -1.65191e-07 0)
(2.07727 -0.257657 0)
(2 -1.15446e-14 0)
(2 1.48312e-09 0)
(1.84107 0.217657 0)
(1.8295 0.228771 0)
(2 -3.01965e-07 0)
(2 1.36153e-13 0)
(2 -1.10185e-07 0)
(2.02042 -0.0754999 0)
(2 -1.22069e-14 0)
(2 4.35066e-10 0)
(2 1.89882e-14 0)
(2 1.56947e-13 0)
(2 -5.4109e-14 0)
(2 -1.63665e-13 0)
(2.02008 -0.0320681 0)
(1.99869 0.00291953 0)
(1.83133 0.229175 0)
(2 9.32877e-14 0)
(2 -8.11137e-14 0)
(2 5.25453e-14 0)
(1.83011 0.226769 0)
(2.03722 -0.0666385 0)
(2 -4.75562e-09 0)
(2 1.33735e-14 0)
(2 6.00701e-14 0)
(1.82832 0.228078 0)
(1.82906 0.227396 0)
(2 -3.03397e-08 0)
(2 4.86812e-06 0)
(2 3.25926e-09 0)
(2 -1.3136e-14 0)
(2 1.34196e-09 0)
(2 -9.67504e-14 0)
(2 -1.86111e-11 0)
(2 -7.31081e-14 0)
(2 2.2968e-14 0)
(2.12829 -0.257704 0)
(2 -1.11281e-13 0)
(2 -1.73912e-11 0)
(1.82912 0.228432 0)
(2.12069 -0.264143 0)
(2 1.01222e-13 0)
(1.82914 0.2282 0)
(2 6.71303e-11 0)
(2.11027 -0.261361 0)
(2 -1.77443e-14 0)
(2 -9.6945e-14 0)
(2.1217 -0.262534 0)
(2 -1.86904e-14 0)
(2 -1.4181e-11 0)
(2 -5.32435e-12 0)
(2 1.31971e-14 0)
(2 -3.081e-12 0)
(2 6.00255e-14 0)
(2 9.09978e-14 0)
(1.83498 0.225123 0)
(1.83198 0.228353 0)
(2 4.3638e-13 0)
(2 3.72841e-14 0)
(2 1.17439e-13 0)
(2 2.85569e-13 0)
(1.84596 0.212709 0)
(2 2.47202e-13 0)
(1.94428 0.0852389 0)
(2.11522 -0.265158 0)
(2 -3.13549e-08 0)
(2 3.34253e-13 0)
(2 -2.42321e-15 0)
(2 -1.18249e-13 0)
(2 -1.63461e-13 0)
(2 -1.19287e-13 0)
(2 -1.17425e-13 0)
(1.98666 0.0246998 0)
(2 -5.01919e-14 0)
(2 2.21905e-14 0)
(1.90649 0.120206 0)
(2 -6.74969e-15 0)
(2 5.02061e-14 0)
(2 5.58219e-14 0)
(1.86157 0.195218 0)
(2 -2.11417e-14 0)
(2 4.28298e-14 0)
(2 -2.89694e-14 0)
(2 1.51861e-13 0)
(2.12135 -0.25712 0)
(2 3.30525e-12 0)
(2 1.85005e-13 0)
(2.12469 -0.273413 0)
(2.12133 -0.2615 0)
(2 -5.75643e-14 0)
(2 -1.60764e-14 0)
(1.83069 0.228341 0)
(2 7.47057e-14 0)
(1.98927 -0.00868669 0)
(2 -5.37377e-15 0)
(2 2.0924e-14 0)
(2 3.17004e-14 0)
(1.88194 0.168575 0)
(2.10051 -0.277113 0)
(2 -2.86066e-13 0)
(2.1043 -0.280211 0)
(2 3.63698e-14 0)
(2.05216 -0.157629 0)
(2 3.07921e-13 0)
(2 -7.1867e-14 0)
(2 4.32011e-14 0)
(1.83039 0.229398 0)
(2 -4.3864e-08 0)
(2 -1.01843e-13 0)
(1.83173 0.228696 0)
(2 6.854e-14 0)
(2 -3.00759e-11 0)
(2 1.70563e-09 0)
(1.83146 0.22855 0)
(2 2.15888e-10 0)
(2 -9.93585e-14 0)
(1.83241 0.228856 0)
(2 -2.87845e-14 0)
(2 6.468e-15 0)
(2.09478 -0.266882 0)
(2 -1.71224e-11 0)
(1.94608 0.0830782 0)
(2 3.92026e-15 0)
(2 1.02791e-14 0)
(1.82966 0.228705 0)
(1.82914 0.229021 0)
(1.88856 0.161141 0)
(1.84885 0.209696 0)
(2 -8.21357e-14 0)
(2.09916 -0.268577 0)
(2 7.37804e-14 0)
(2 1.26173e-13 0)
(1.83909 0.220033 0)
(2 -2.66771e-14 0)
(2.12994 -0.259279 0)
(2 -1.04077e-13 0)
(2 1.0153e-13 0)
(2 -7.14588e-14 0)
(1.8316 0.229396 0)
(2 -3.85403e-14 0)
(2 4.96946e-15 0)
(2 1.36539e-13 0)
(2 9.7988e-14 0)
(1.89975 0.145313 0)
(2 -1.11461e-13 0)
(1.84521 0.211166 0)
(1.83007 0.228747 0)
(2.13645 -0.263428 0)
(2 2.74393e-13 0)
(2 2.07028e-13 0)
(2.11791 -0.266472 0)
(2.11617 -0.266315 0)
(2 1.41479e-13 0)
(2 1.87187e-14 0)
(2 -6.28218e-12 0)
(1.88041 0.17202 0)
(1.87296 0.180966 0)
(2 -1.24901e-14 0)
(2 1.35387e-13 0)
(2 2.57411e-14 0)
(2 8.89228e-14 0)
(2 6.74575e-14 0)
(2 -1.86537e-13 0)
(2 2.05275e-14 0)
(1.92884 0.104214 0)
(1.82888 0.229216 0)
(1.99274 0.00315184 0)
(2 -9.95314e-14 0)
(1.83342 0.226628 0)
(2.13336 -0.26072 0)
(2 -3.28955e-15 0)
(2 -8.70581e-14 0)
(2 -3.87082e-14 0)
(1.9061 0.140848 0)
(2 -1.50593e-14 0)
(1.96609 0.0548823 0)
(2 -3.04382e-14 0)
(1.84496 0.212573 0)
(1.83276 0.228119 0)
(2 -1.04509e-13 0)
(2.10527 -0.266984 0)
(2 3.27099e-14 0)
(1.83269 0.228918 0)
(2 4.09375e-14 0)
(2 1.28745e-14 0)
(1.83648 0.228861 0)
(1.84209 0.217559 0)
(2 9.84286e-14 0)
(1.82543 0.230231 0)
(2 -2.13076e-14 0)
(2.11137 -0.26004 0)
(2 2.05517e-13 0)
(2 1.01082e-14 0)
(2 2.47635e-13 0)
(1.82963 0.229613 0)
(1.83518 0.225006 0)
(1.85153 0.205938 0)
(2 4.82965e-14 0)
(1.82919 0.230614 0)
(1.83183 0.228672 0)
(2 8.21621e-14 0)
(1.83137 0.229869 0)
(2 -9.40499e-09 0)
(1.83279 0.228002 0)
(2 1.69813e-13 0)
(2.138 -0.261587 0)
(1.99731 -0.0215204 0)
(2.14297 -0.260603 0)
(2 -3.45736e-11 0)
(2 -2.43055e-11 0)
(2 -3.39133e-11 0)
(2 1.58892e-13 0)
(2 -1.54696e-11 0)
(1.83373 0.229321 0)
(2 -7.43671e-15 0)
(1.8341 0.229308 0)
(2 -3.61704e-11 0)
(2 -1.00789e-10 0)
(2 6.15032e-14 0)
(1.84031 0.219275 0)
(2 -9.4783e-14 0)
(2.10602 -0.268487 0)
(1.83208 0.228849 0)
(2 5.19766e-14 0)
(2.13062 -0.26823 0)
(2.08747 -0.253265 0)
(2.10327 -0.267658 0)
(2 -1.0946e-13 0)
(1.91904 0.122337 0)
(1.98552 0.0215643 0)
(1.83102 0.229543 0)
(1.83181 0.228753 0)
(2 6.64398e-14 0)
(2 -3.38689e-07 0)
(2 -1.16613e-07 0)
(2 -1.02873e-13 0)
(1.83055 0.228525 0)
(2 -9.89943e-14 0)
(2 -1.04835e-13 0)
(1.83035 0.228313 0)
(1.8318 0.228678 0)
(2 1.56149e-13 0)
(1.94322 0.0879677 0)
(2.0001 0.000675348 0)
(2 1.46138e-13 0)
(2.00119 -0.00198817 0)
(1.83362 0.229057 0)
(2.07129 -0.0948485 0)
(2 -1.18883e-07 0)
(2.08335 -0.117936 0)
(2.10737 -0.264199 0)
(2.10481 -0.264975 0)
(1.99461 -0.0196953 0)
(1.82797 0.227862 0)
(1.83441 0.226405 0)
(1.96861 0.0476032 0)
(1.83097 0.229059 0)
(1.83169 0.229113 0)
(2 2.50777e-14 0)
(2 6.57816e-14 0)
(1.8276 0.228857 0)
(1.82912 0.22924 0)
(1.83149 0.228338 0)
(1.82784 0.229038 0)
(2 -1.52792e-13 0)
(1.83218 0.228908 0)
(2.14489 -0.263737 0)
(1.83232 0.228554 0)
(1.83134 0.228154 0)
(1.82887 0.228379 0)
(1.83014 0.229466 0)
(2.03083 -0.100917 0)
(2.02957 -0.0617177 0)
(2.02971 -0.0452912 0)
(1.83252 0.228987 0)
(2.01739 -0.023514 0)
(1.83038 0.229412 0)
(2 -1.23387e-13 0)
(2 1.01612e-14 0)
(1.83155 0.22954 0)
(1.83127 0.229108 0)
(2 4.44523e-14 0)
(2.12306 -0.267568 0)
(1.83094 0.228834 0)
(1.83214 0.22892 0)
(2 1.70232e-13 0)
(1.83206 0.228915 0)
(1.83191 0.228882 0)
(2 -7.77898e-14 0)
(1.83104 0.228849 0)
(2.10645 -0.259048 0)
(1.82911 0.228954 0)
(1.82723 0.228937 0)
(1.83238 0.228901 0)
(1.831 0.2271 0)
(2 -5.40631e-14 0)
(2 6.08329e-14 0)
(2 -1.02812e-07 0)
(1.83234 0.228782 0)
(1.89093 0.156521 0)
(2.12877 -0.239828 0)
(1.83121 0.228573 0)
(2.13785 -0.267405 0)
(1.83215 0.228862 0)
(2 3.61051e-14 0)
(2 -1.46453e-13 0)
(2 -6.28093e-14 0)
(2 -9.70109e-14 0)
(1.83075 0.227432 0)
(1.83094 0.22872 0)
(2 3.78249e-14 0)
(2 -2.32297e-14 0)
(1.83113 0.228852 0)
(2.13352 -0.265751 0)
(1.8316 0.227572 0)
(2.11348 -0.265785 0)
(2 -4.72472e-14 0)
(1.83303 0.22754 0)
(2 -9.03333e-14 0)
(2.13332 -0.263121 0)
(1.83066 0.229477 0)
(2.07036 -0.207618 0)
(2 -3.14714e-14 0)
(1.83191 0.22873 0)
(1.83023 0.229947 0)
(1.83159 0.229738 0)
(2 1.8931e-14 0)
(2 -3.39676e-14 0)
(1.92824 0.118479 0)
(1.8305 0.229643 0)
(2.10936 -0.258195 0)
(1.83196 0.229016 0)
(2 -2.95655e-14 0)
(1.83204 0.228361 0)
(2.05105 -0.0824227 0)
(1.83165 0.229193 0)
(2.11247 -0.265738 0)
(2 -9.33973e-14 0)
(1.83185 0.22872 0)
(2.10617 -0.240096 0)
(1.83151 0.229606 0)
(2.11085 -0.261023 0)
(2 -1.18885e-13 0)
(1.83131 0.229288 0)
(2 8.83856e-14 0)
(1.83195 0.22914 0)
(2 4.37739e-14 0)
(1.90071 0.14478 0)
(1.83779 0.221254 0)
(1.86659 0.188752 0)
(2.10081 -0.282492 0)
(2 1.1868e-13 0)
(1.83126 0.228886 0)
(2 -5.11305e-15 0)
(1.83189 0.228626 0)
(2 -1.17416e-07 0)
(1.83187 0.229184 0)
(2 -2.44627e-07 0)
(2 8.92866e-14 0)
(1.83068 0.228929 0)
(2.00477 -0.015891 0)
(1.83057 0.230288 0)
(2.13554 -0.259349 0)
(1.84482 0.226992 0)
(2 4.11041e-14 0)
(1.87803 0.172197 0)
(2 1.8691e-13 0)
(1.83065 0.229287 0)
(1.83199 0.229106 0)
(1.83087 0.229627 0)
(2 -8.90368e-14 0)
(1.84779 0.210221 0)
(1.83136 0.228473 0)
(1.84423 0.21452 0)
(1.89695 0.151861 0)
(1.83723 0.229895 0)
(2 -5.71831e-14 0)
(1.88934 0.15853 0)
(2 1.84147e-13 0)
(1.83096 0.228603 0)
(2 7.07242e-14 0)
(1.97368 0.0432632 0)
(2 1.41646e-13 0)
(1.84333 0.215657 0)
(2 -1.78371e-13 0)
(1.83166 0.228477 0)
(1.83929 0.220057 0)
(1.83991 0.2193 0)
(2 -3.37688e-14 0)
(1.84197 0.221038 0)
(2.1196 -0.263811 0)
(2 -4.49572e-14 0)
(2.10346 -0.264962 0)
(2 2.40572e-15 0)
(2 7.25572e-14 0)
(2 1.21241e-14 0)
(1.82858 0.228194 0)
(2 4.60214e-14 0)
(1.83172 0.229357 0)
(2 2.99491e-14 0)
(2 -8.09274e-14 0)
(2 1.03016e-13 0)
(1.83097 0.229688 0)
(1.83511 0.235723 0)
(1.85885 0.196307 0)
(1.83102 0.22819 0)
(1.83188 0.227587 0)
(2.11416 -0.269739 0)
(1.83114 0.233144 0)
(1.83123 0.22889 0)
(2 -8.88551e-14 0)
(1.86344 0.192196 0)
(1.83183 0.229077 0)
(1.83743 0.219637 0)
(2 -1.93161e-14 0)
(1.83291 0.228885 0)
(1.83087 0.22886 0)
(2 -6.94612e-14 0)
(1.82806 0.231913 0)
(1.83118 0.228593 0)
(1.83016 0.228479 0)
(1.83077 0.229514 0)
(2 -1.37738e-13 0)
(2 8.64081e-14 0)
(2 4.95468e-15 0)
(1.83145 0.228377 0)
(2.1333 -0.261744 0)
(2 9.67016e-14 0)
(1.83156 0.228806 0)
(2 1.33779e-14 0)
(2 8.41246e-14 0)
(2.10702 -0.268208 0)
(2 5.37905e-14 0)
(2 1.60808e-13 0)
(1.83128 0.228773 0)
(1.83098 0.228983 0)
(2 -1.62719e-14 0)
(1.83191 0.228968 0)
(1.82574 0.233699 0)
(1.83551 0.229158 0)
(1.99224 -0.0194715 0)
(1.83123 0.228694 0)
(2 2.85498e-14 0)
(1.83179 0.229076 0)
(1.83183 0.229037 0)
(1.87562 0.182799 0)
(2 1.99758e-13 0)
(2 6.63362e-14 0)
(2 1.44203e-13 0)
(1.83241 0.228549 0)
(1.8316 0.228488 0)
(1.8318 0.22878 0)
(2.01264 -0.0414889 0)
(2 -7.91053e-14 0)
(1.82859 0.231024 0)
(1.83167 0.228288 0)
(1.82938 0.22776 0)
(2 5.66737e-14 0)
(1.83145 0.228297 0)
(1.83102 0.228343 0)
(1.83147 0.228938 0)
(1.82913 0.232514 0)
(2 -6.28112e-14 0)
(1.83155 0.229311 0)
(1.83072 0.227381 0)
(1.85261 0.202219 0)
(1.83205 0.229036 0)
(1.8305 0.231404 0)
(2 2.7524e-14 0)
(1.83122 0.228533 0)
(1.83359 0.226754 0)
(1.83188 0.22882 0)
(1.83209 0.22739 0)
(1.8318 0.227949 0)
(2.12823 -0.268025 0)
(1.83667 0.228377 0)
(1.83045 0.229822 0)
(2 1.96639e-14 0)
(1.83145 0.228854 0)
(1.83141 0.229024 0)
(1.8314 0.22894 0)
(1.83221 0.228631 0)
(2 -5.3007e-08 0)
(1.83135 0.229379 0)
(1.83154 0.229109 0)
(2 -1.60082e-07 0)
(1.83223 0.228715 0)
(1.8584 0.198925 0)
(2 9.43481e-14 0)
(2 2.38547e-15 0)
(2 8.79988e-10 0)
(1.82964 0.230683 0)
(1.83077 0.22862 0)
(2 1.05034e-13 0)
(2 -4.26174e-14 0)
(1.90589 0.138517 0)
(2 3.53919e-14 0)
(1.83137 0.229025 0)
(2 -6.40188e-14 0)
(2 1.23378e-13 0)
(1.8318 0.22916 0)
(1.83088 0.229335 0)
(1.8313 0.228363 0)
(1.83169 0.228887 0)
(2 -2.78608e-14 0)
(2 7.99782e-14 0)
(2 -6.91326e-14 0)
(1.88017 0.168436 0)
(2 7.73224e-14 0)
(1.83147 0.229472 0)
(2 -1.0465e-13 0)
(2 -1.79857e-13 0)
(1.83187 0.22876 0)
(1.82727 0.228716 0)
(2 -2.23001e-14 0)
(1.8314 0.228791 0)
(2.14806 -0.266729 0)
(1.83251 0.229439 0)
(1.83089 0.229872 0)
(2.10425 -0.198061 0)
(2 4.00841e-14 0)
(2.11066 -0.279923 0)
(1.85086 0.203026 0)
(1.83131 0.229082 0)
(1.83107 0.230337 0)
(1.83155 0.230331 0)
(2.11196 -0.267679 0)
(1.83099 0.228895 0)
(1.8309 0.229288 0)
(2.10929 -0.267995 0)
(2.11745 -0.273077 0)
(2 -2.67954e-07 0)
(1.83163 0.228553 0)
(1.8322 0.229211 0)
(2 -6.85203e-14 0)
(2 1.23791e-14 0)
(1.83136 0.228863 0)
(2 2.67963e-13 0)
(1.82541 0.230017 0)
(2 2.39557e-06 0)
(1.85322 0.203042 0)
(2 9.8806e-14 0)
(1.91988 0.121866 0)
(1.8323 0.229374 0)
(1.83026 0.229851 0)
(1.88001 0.169944 0)
(1.85469 0.198607 0)
(1.83025 0.228904 0)
(1.82751 0.229131 0)
(1.84605 0.213911 0)
(2 -8.11416e-14 0)
(2.13228 -0.254974 0)
(1.83091 0.22875 0)
(1.8323 0.229742 0)
(1.82712 0.231192 0)
(2 6.83374e-06 0)
(2 2.79573e-10 0)
(2 1.45263e-09 0)
(1.82773 0.229583 0)
(2 -3.4273e-14 0)
(1.83282 0.229275 0)
(1.82958 0.228044 0)
(2.07227 -0.186708 0)
(2 -2.41206e-13 0)
(1.83124 0.228931 0)
(2.00002 -4.31256e-05 0)
(2 -9.5719e-14 0)
(1.99999 1.94322e-05 0)
(1.99998 2.8868e-05 0)
(1.83234 0.229531 0)
(1.83631 0.229181 0)
(2.00053 -0.000918316 0)
(2 1.28386e-13 0)
(2 -1.15196e-14 0)
(1.8315 0.228288 0)
(1.83042 0.229952 0)
(1.83137 0.228795 0)
(1.83042 0.229303 0)
(1.83128 0.230374 0)
(2.10296 -0.252938 0)
(1.86667 0.190557 0)
(2 5.88769e-14 0)
(1.83271 0.227336 0)
(1.83153 0.2283 0)
(1.83181 0.229374 0)
(1.83097 0.226619 0)
(2 -1.623e-13 0)
(1.83192 0.228999 0)
(1.83663 0.223648 0)
(1.83107 0.229784 0)
(2 -7.05374e-14 0)
(1.83041 0.228877 0)
(1.83211 0.229468 0)
(2.05402 -0.0934556 0)
(1.83208 0.229036 0)
(1.83104 0.229155 0)
(2 7.71883e-14 0)
(1.83183 0.229076 0)
(2.0487 -0.113797 0)
(1.83144 0.229003 0)
(2.05707 -0.0926596 0)
(1.83181 0.229108 0)
(2 -1.2516e-07 0)
(1.83085 0.228612 0)
(1.82656 0.231905 0)
(1.83195 0.229048 0)
(1.83178 0.229151 0)
(1.83117 0.228573 0)
(1.82941 0.228088 0)
(1.83151 0.229427 0)
(1.83 0.228535 0)
(2 -1.84499e-13 0)
(2.02821 -0.048983 0)
(1.83126 0.229054 0)
(1.83303 0.229497 0)
(2.03888 -0.118718 0)
(1.83166 0.229071 0)
(2.00907 -0.00454385 0)
(1.88949 0.154913 0)
(1.83167 0.228786 0)
(1.83356 0.22825 0)
(1.83154 0.22881 0)
(2 -5.06126e-14 0)
(1.83025 0.230214 0)
(1.89001 0.170779 0)
(1.82863 0.228176 0)
(2.00958 -0.059601 0)
(1.83077 0.230195 0)
(1.8268 0.231141 0)
(2 -2.94148e-14 0)
(2.03179 -0.0968539 0)
(2 -5.44499e-09 0)
(1.82949 0.228058 0)
(2 1.74879e-14 0)
(1.88449 0.164449 0)
(2 4.31767e-09 0)
(1.83771 0.220411 0)
(2.03932 -0.0933131 0)
(2 -5.20248e-14 0)
(1.83245 0.226671 0)
(1.83816 0.227265 0)
(2 -6.26399e-14 0)
(1.82899 0.227503 0)
(1.83109 0.229488 0)
(1.83184 0.232226 0)
(1.83945 0.223661 0)
(1.83115 0.228584 0)
(2 -7.47714e-14 0)
(1.82963 0.228614 0)
(2 -7.89194e-14 0)
(2 2.06495e-13 0)
(2 -5.92257e-14 0)
(2.03262 -0.0681204 0)
(1.83033 0.228471 0)
(1.83053 0.228012 0)
(1.82759 0.228079 0)
(1.83145 0.228859 0)
(1.83236 0.227271 0)
(1.82985 0.228703 0)
(1.82872 0.238236 0)
(1.83178 0.229369 0)
(2.04182 -0.0683292 0)
(1.98868 0.0234361 0)
(2 3.53671e-09 0)
(2 1.56151e-13 0)
(1.82378 0.230703 0)
(1.83174 0.229048 0)
(1.83149 0.228932 0)
(1.83184 0.229095 0)
(1.99999 1.57025e-05 0)
(1.91498 0.132494 0)
(2 -1.68234e-07 0)
(1.82792 0.23176 0)
(1.84445 0.218159 0)
(2 -3.33385e-12 0)
(2 -5.27837e-11 0)
(2.09444 -0.18253 0)
(1.83187 0.229055 0)
(2 -1.30632e-13 0)
(2 -8.53034e-15 0)
(2.14344 -0.266754 0)
(1.83158 0.22917 0)
(2 -1.74209e-13 0)
(1.83103 0.22902 0)
(1.83112 0.229042 0)
(1.83027 0.22868 0)
(1.83849 0.221569 0)
(1.83058 0.229096 0)
(2 -7.60169e-11 0)
(2.09846 -0.275477 0)
(1.96112 0.0651397 0)
(1.83078 0.228832 0)
(1.83061 0.228899 0)
(2 2.17451e-13 0)
(1.83126 0.228647 0)
(1.83149 0.228845 0)
(1.91719 0.11924 0)
(1.99742 0.00644796 0)
(1.96595 0.0594902 0)
(2 5.64252e-14 0)
(1.83169 0.22969 0)
(1.83119 0.228786 0)
(2 -1.24975e-07 0)
(2 -1.9737e-10 0)
(2.10761 -0.271898 0)
(2 -2.32342e-10 0)
(2 7.70063e-14 0)
(1.83186 0.229066 0)
(1.8315 0.228852 0)
(1.83155 0.229706 0)
(1.83189 0.228575 0)
(1.8315 0.228828 0)
(1.82836 0.22843 0)
(1.83097 0.229123 0)
(1.83032 0.229112 0)
(1.83108 0.22837 0)
(2 1.65354e-13 0)
(2.00153 -0.00238389 0)
(1.83118 0.228788 0)
(1.83119 0.22836 0)
(2.00102 -0.00171324 0)
(1.83145 0.228828 0)
(1.83169 0.229028 0)
(2.09259 -0.271485 0)
(2.13987 -0.261381 0)
(1.83021 0.228805 0)
(1.82884 0.231352 0)
(2 2.57623e-13 0)
(2 7.15976e-14 0)
(1.99903 0.00215969 0)
(1.83156 0.228405 0)
(1.83233 0.230741 0)
(1.83171 0.229156 0)
(2 9.2537e-10 0)
(1.83132 0.228742 0)
(2 -3.13969e-14 0)
(2.05109 -0.0949447 0)
(1.82748 0.231308 0)
(1.8275 0.231576 0)
(2 1.53226e-13 0)
(1.92626 0.109921 0)
(1.83041 0.228551 0)
(2 7.69207e-14 0)
(1.83021 0.22782 0)
(2 -1.0578e-10 0)
(1.83142 0.22924 0)
(1.8851 0.169444 0)
(1.83602 0.230478 0)
(2 1.18345e-11 0)
(1.83236 0.229317 0)
(1.83511 0.229596 0)
(2.10864 -0.269891 0)
(1.83196 0.22865 0)
(2 -1.25575e-07 0)
(1.83113 0.228352 0)
(1.82888 0.228789 0)
(2 7.23223e-09 0)
(2.09598 -0.27101 0)
(1.83246 0.227072 0)
(1.87241 0.183491 0)
(2.00073 -0.0013588 0)
(1.83258 0.232278 0)
(1.83152 0.229026 0)
(2 -4.74088e-12 0)
(2.00363 -0.00366237 0)
(1.83173 0.227708 0)
(2.00114 -0.00193543 0)
(1.83113 0.229243 0)
(2 -3.20247e-12 0)
(2 -1.5926e-13 0)
(1.83216 0.229313 0)
(2 9.62965e-14 0)
(1.83186 0.227738 0)
(1.8315 0.228905 0)
(2.00129 -0.00235138 0)
(1.87802 0.179963 0)
(2 3.08597e-09 0)
(1.83153 0.228998 0)
(2 2.52573e-10 0)
(2 -6.40318e-13 0)
(2 1.01195e-11 0)
(2 6.28413e-12 0)
(1.83188 0.229037 0)
(2 7.07998e-09 0)
(2 4.59185e-14 0)
(1.83594 0.227136 0)
(2 -1.47198e-14 0)
(1.8317 0.22925 0)
(2 3.31165e-10 0)
(1.8918 0.158663 0)
(1.83017 0.230357 0)
(1.83065 0.228464 0)
(2 5.14216e-10 0)
(2 4.39721e-14 0)
(1.99583 -0.000303622 0)
(2 3.36019e-12 0)
(1.83112 0.228566 0)