/*--------------------------------*- C++ -*----------------------------------*\
  =========                 |
  \\      /  F ield         | OpenFOAM: The Open Source CFD Toolbox
   \\    /   O peration     | Website:  https://openfoam.org
    \\  /    A nd           | Version:  12
     \\/     M anipulation  |
\*---------------------------------------------------------------------------*/
FoamFile
{
    format      ascii;
    class       volScalarField;
    location    "7.84";
    object      T;
}
// * * * * * * * * * * * * * * * * * * * * * * * * * * * * * * * * * * * * * //

dimensions      [0 0 0 1 0 0 0];

internalField   nonuniform List<scalar> 
22702
(
1
1
0.961313
1
1.01851
1
1.12032
1
1
0.911118
1.12052
1.12037
1
1.11854
0.96871
1
1
1
1.12039
1
1.11865
1
1.1186
0.898382
1.11909
0.868136
1
1.12076
0.897302
0.896922
1
1.12029
1
1
1
1.11065
1.11966
1.11869
1
1
0.913649
1
1.0627
1
1.12062
1
1
1
1
0.898009
1
0.900997
1
1.12049
1
1.12044
1
1
1
1
0.881872
1
1
0.894818
1
0.897786
1
1
1
0.901223
1
1.11936
1.07558
1
1.11891
1.1255
0.901558
1.11934
0.897439
1
1.12075
0.898569
1.11951
1.12025
1
1
1
1
0.978437
0.908434
1.11961
1
1
0.88203
1
1.11861
0.885858
1
1
1
1
1.06271
1.12063
0.888305
1
1
1.03254
1
0.898138
1
1.11928
1.12043
1
1
0.877717
0.87739
0.910616
1
1
1
1
1
0.973685
1
1.10331
1.0147
1.11993
1
1.11908
1.12056
1.11862
1.12096
1
0.902866
1
0.870216
1
1
1
1
1.12064
1
1
1
1
1.11823
1
1.00715
1
1
1
1
0.896106
1
1.003
1
0.899274
1
1
1
1.11932
1
1.11901
0.872138
0.881414
1.11985
1.11988
1
1.02205
1.07169
1
1.1206
0.897371
1.11083
1
1
1
1
1.11846
1.10458
1
1.1206
0.894326
1.12036
1
0.895961
1
0.899686
0.871745
0.99994
1
1
1.12073
1
1
1.1185
1
1.11893
1.12059
0.900477
1
1
0.89762
1.11853
1
1
1
1.11842
1
0.890204
1
1
1.1186
1.11847
1.11897
1
1.00001
1
1
1
1.11853
1
0.893546
1.12435
1.1186
1.11884
1
1
1
0.889983
1.11858
1.05724
1
1.1189
0.890018
0.889104
1.1189
1.11867
1
1.11829
0.897214
1.10624
1
1
1
1
1.11859
1
1.07094
1.01191
1
1
1.11875
0.884519
0.925751
1
1.11816
0.891915
1.11923
1
1
1
1
1
1
1
0.895316
0.934733
0.88761
1.11857
1
1
1
1
1.10761
1
0.89673
1
0.893235
0.898048
1.11851
0.900335
1.11862
1
1
1
0.999326
0.89519
0.897309
1
1
0.888436
1
1.12044
0.892613
1
1
1.12085
0.88717
1
1.11729
0.877865
1.11879
1
0.895799
0.999358
1
1
1
0.90043
1
1
1
1
1.00686
1.07572
1
0.887997
1
1
1
1
1
1
1
1.12088
1
1.12135
1
1
1
0.887001
1
1.1182
0.896588
1
1.09249
1
1
1.12111
1
1
1
1.1178
1
1
1.11491
1.1211
1
1.02779
1
1
0.874766
1
1
1
0.874468
1
1
1
1
0.880921
1
1
1
1
1
0.904358
1.00002
1.11941
1
0.999992
1.11977
1.12008
1
1
0.904722
0.942839
1.12067
1
1
1
1.11882
0.89809
1
1.11905
1
1
0.912115
0.913528
1
0.894534
0.885807
1
1
1
1
1
1
1
1.12091
1.03354
1.11564
0.902249
0.972808
1.12111
1
1.11854
1.12056
0.887533
0.926081
1
0.889054
1
1.1241
1
1
1
1
1.11853
1
1
1
1
1
1
1
1.04835
1.11875
1
1.11856
1
1
0.899569
1
1
1
1
1.11842
1.09281
1
1
0.895905
1.11854
1.11857
1
1.1186
1.11843
1.11852
1
0.951341
1
1.11828
0.998857
1.11854
1
0.88725
0.999701
1.12067
1
1
1
1
0.895441
1.11846
1.10815
1
1.11834
1.11862
1.12049
1
1.05967
1.11874
1
1
1.084
1.01893
1.11856
0.981584
1.11854
1
1.11849
1.11851
1.11845
1.11855
1
1.11558
0.97488
0.969014
1
1
1
1
1.11878
1
1
1
1
1
1.12056
1
1
0.998873
1.11855
1.10804
1
1.10004
1.00001
1
1
1.11862
1
0.999058
1.00117
1
1.11853
1
1.11889
1
1
1.09053
1
1.11896
1.00001
1
1.11873
1
1.11851
1
1
1
1.11858
1
1.12001
1
1.11853
1.12079
1.11853
1.1207
1
1.12091
1.11676
1
0.896283
1.11195
1.08805
1
1.11858
1
0.881151
0.875182
1
1
1
1
1
0.890989
1
1.11857
1.03365
1.11865
1
1
1
1
1
1.11852
1
1.11803
1.07429
0.929996
1
1
1.03788
1.03197
1
1
1.04656
1
0.899578
1.11853
1.11855
1
1
1
1.12061
1
1.00001
1.11926
1.1185
0.985443
1
1
0.899333
1.10886
1
1
1
1
1
1.11851
1.12112
1
1.11853
1.11977
1.1186
1
1
1
1
0.88346
1.1207
1
1
1.10879
1.11829
1
1.11214
1.11881
1
1
1
1
1
1.11854
1
1
1
1
1.11934
1
1.11727
0.889151
1
0.888565
1
1
1
0.999098
0.895033
0.999743
1
1
1
1.01688
1
1
0.960092
1
1
1
1
1
1
1
0.999999
0.981387
1
1
0.999264
1
0.894956
1
1
1
1
1.09097
1
1
1
1
0.891551
1
1
1.11229
1.12059
1
1
1
0.968965
1
1
1
1
1
1
0.985106
1.00448
1.11852
1
1
1
1.11949
0.969942
1
1
1
1.11976
1.12025
1
1
1
1
1
1
1
1
1
0.885862
1
1
1.11995
0.889504
1
1.11999
1
0.896538
1
1
0.886027
1
1
1
1
1
1
1
1.11645
1.11833
1
1
1
1
1.10899
1
1.04142
0.893945
1
1
1
1
1
1
1
1.009
1
1
1.06692
1
1
1
1.09846
1
1
1
1
0.889978
1
1
0.880388
0.889435
1
1
1.11838
1
1.01107
1
1
1
1.08518
0.89184
1
0.889497
1
0.93441
1
1
1
1.11903
1
1
1.1184
1
1
1
1.11838
1
1
1.11839
1
1
0.887934
1
1.03979
1
1
1.1211
1.12068
1.08184
1.10721
1
0.887133
1
1
1.11391
1
0.891938
1
1
1
1.1187
1
1
1
1
1.07528
1
1.10989
1.11892
0.896836
1
1
0.883986
0.869846
1
1
1
1.0869
1.09247
1
1
1
1
1
1
1
1.05521
1.12143
1.00254
1
1.11734
0.893851
1
1
1
1.06944
1
1.026
1
1.10922
1.11828
1
0.886851
1
1.12061
1
1
1.11826
1.11209
1
1.12149
1
0.887167
1
1
1
1.11845
1.11642
1.10581
1
1.11871
1.11857
1
1.11898
1
1.11812
1
0.891234
0.996499
0.888087
1
1
1
1
1
1.11845
1
1.11871
1
1
1
1.11299
1
0.901247
1.11845
1
0.890832
0.898871
0.897224
1
1.06044
1.01354
1.11876
1.11856
1
1
1
1
1.11861
1
1
1.11861
1.11857
1
1.04442
0.999933
1
0.999092
1.11913
0.956367
1
0.948311
0.898192
0.900639
0.99613
1.11969
1.117
1.02798
1.11856
1.11855
1
1
1.12114
1.12038
1.11838
1.12092
1
1.1188
0.901895
1.11925
1.11857
1.11997
1.11848
0.960901
0.965803
0.978317
1.11833
0.990582
1.1182
1
1
1.11901
1.1186
1
0.889262
1.11881
1.11836
1
1.11863
1.11856
1
1.11855
0.890304
1.11844
1.12169
1.12094
1.1171
1
1
1
1.1183
1.0794
0.899029
1.11838
0.883582
1.11828
1
1
1
1
1.1192
1.1185
1
1
1.11856
0.885142
1.11871
0.895855
1
1.11765
1
0.90815
1.11891
0.918123
1
1.11847
1.11913
1.11845
1
1
1.06334
1.119
0.892889
1.11843
1
1.11859
0.963753
1.11856
0.885933
1
1.11912
0.904704
1.11903
0.896277
1
1.11863
1
1.1182
1
1.0723
1.11448
1.09537
0.876903
1
1.1186
1
1.11852
1
1.11872
1
1
1.11872
0.998155
1.11919
0.90331
1.10575
1
1.08631
1
1.11889
1.11866
1.11884
1
1.10798
1.11865
1.11067
1.07638
1.11829
1
1.0815
1
1.11866
1
1.01961
1
1.11094
1
1.11855
1.1137
1.11339
1
1.11633
0.869852
1
0.888484
1
1
1
1.12001
1
1.1187
1
1
1
1.11895
1.11703
1.09976
1.11859
1.11933
0.889319
1.11719
1.12054
1
1.10194
1.11856
1.11775
1
1.12073
1.12054
1
1.12037
1.11897
1.11892
1.11887
1
1
1
1.11846
0.883884
1
1.11853
1
1
0.878902
1
1
1.11842
1.1183
1
1.11853
1.1199
1.11828
0.995789
1.11862
1
1.11859
1.11863
1.09631
1
1
1
1.11824
1.11881
1.11857
0.989225
1
1.12086
1.11874
1.119
1
1.11901
1.11847
1.11871
1.12057
1
1.11847
1.11942
1.10532
1.11897
1.11993
1
1.12044
1.11735
1.11859
1.11901
1.11859
0.88136
1.11826
1.11916
1
1.11864
1.11858
1.11851
1.11835
1
1.11861
1.11855
1
1.11842
1.10117
1
1
1
1.11856
1.1188
1
1
1.06913
1
1.1186
1
1
1.11843
1.11895
1.11892
1.11857
1
1
1
1.08736
1
1.11839
1
1
1.11977
1.12189
1
1.11835
0.889533
1.11855
1.11884
0.923961
1
0.88086
1.10562
1.11765
1.1183
1.11839
0.890485
1.11872
1.11897
0.889073
0.880757
1
1.11849
1.1186
1
1
1.11847
1
1.119
1
1.105
1
1.05732
1.11873
1.11913
1.08754
1.10828
1.12
1.1199
1.1128
1
0.88609
1.11858
1.11865
1.12102
1
1
1
1.11956
1
1.11859
1.11832
0.925773
1
1.11832
0.999984
1
1.00001
1.00001
1.11864
1.11805
0.99956
1
1
1.11849
1.11907
1.11859
1.11968
1.11846
0.892098
1.10581
1
1.11772
1.11837
1.11849
1.11869
1
1.1185
1.11538
1.11889
1
1.11884
1.11912
0.962175
1.11852
1.11918
1
1.11869
0.954822
1.11856
0.961682
1.11847
1
1.11857
1.12184
1.11864
1.11869
1.11857
1.12041
1.1187
1.11967
1
0.980897
1.11877
1.11858
0.954455
1.11855
0.994332
1.0805
1.11844
1.11924
1.11974
1
1.1192
1.07837
1.11919
0.974917
1.11914
1.12198
1
0.962462
1
1.11724
1
1.0846
1
1.11257
0.961641
1
1.11943
1.11826
1
1.1188
1.11878
1.12027
1.12099
1.12044
1
1.12073
1
1
1
0.968284
1.1187
1.11818
1.11917
1.1184
1.1181
1.1197
1.1186
1.11876
0.970296
1.00923
1
1
1.12268
1.11854
1.11847
1.11875
1.00001
1.06415
1
1.12047
1.10492
1
1
0.919402
1.11865
1
1
0.898797
1.11871
1
1.12119
1.11832
1.12013
1.11456
1.11858
1
0.880846
1.03051
1.11874
1.11857
1
1.11873
1.11855
1.06526
1.00333
1.02766
1
1.11823
1.11859
1
1
0.885831
1
1
1.11858
1.11841
1.11859
1.11855
1.11872
1.12059
1.1185
1.11792
1.11853
1
0.99877
1.11905
1.11846
0.999034
1.1185
1.11866
0.881845
0.896005
1.11876
1.11954
1
1
1.00058
1.11832
1.11858
1.11868
1
1.1184
1
0.962176
1.12123
1.12038
1
1.05466
1.11849
1
1.11954
1
1.11842
1.08027
1.11816
1
1.11878
1.11838
0.885634
1.11857
1
1.11924
1.121
1
0.884001
1.11956
1.10373
0.999297
1.1123
1.11864
1
1.00159
1.11966
0.999393
1.11855
1
1
1.11841
1
1.11887
1.11866
0.998912
1.09444
1
1.1187
1
1
1
1
1.11867
1
1
1.11976
1
1.11862
1
1.07816
1.11822
1.11834
1
1
1.00259
1
1.11902
1.11854
1.11913
1.11862
1.11884
1.11857
1.11864
1
1.11839
1.11852
1
1.11861
1.11836
1
1.11825
0.978485
1.01654
1.11854
1.11838
1.11875
1
1.11861
1
1.11847
1.11849
1
1.11874
1
1
1
1
1.11847
0.880247
0.999388
1
1.11859
1.12027
1
1.11856
1
1.00143
0.897482
1.11856
0.999892
1
1.11871
0.999527
1.11852
1
0.999935
1
1.11867
1.12002
1.11859
1.11882
0.893187
1.1188
1.11906
1.1187
1.03222
1
1
1.05573
1.11874
0.879644
0.898054
1
1.11855
1.11856
1.11847
1
1
1.11864
1.1184
0.999965
1
1.08971
0.889759
1
1.02252
1.12065
1.11594
0.999497
1.11846
1.12118
1
0.999629
1
1.11814
1.11916
1.04945
1
1.11036
1
1.00044
1.11853
0.91307
1.11883
1.11846
0.999153
0.999975
1.10175
1
0.999912
1
1.11983
1
1
0.886202
1.11869
1
1
1
1
1.11773
1.07113
1
1
0.891632
1.1186
1.0715
1
1
1
1.11339
1.1164
1.11971
1
1
1.1194
1
1.11876
1.11853
1
1
1.11919
1.11857
1.11422
1
1
1.11922
1.11831
1
1
1
1.11876
1
1
1
1.11822
1.11882
1.11903
1
1.11816
1.00001
0.909501
1.11859
1.11811
1
1.1198
1.11452
1.12037
1
1
1.11985
1
1.06926
1.11801
1
0.882787
1
1.11902
1
1
1.11932
1
1
1
1.04029
1.11848
0.903428
1
1.11876
1
1
1.11836
1
1.12
1
1
1.11852
1.11845
1
1.00001
1
1
1
1
1
1
1.11807
1.11867
1
1.12097
0.889364
1.11957
1
1.11856
1.12074
1.11862
1.11918
1.12156
1
1
1.11938
1
1.07585
1.11977
1.11851
1
1.1189
1.11927
1
1.10932
1
1.11851
1.07938
1.11933
0.999259
1.11743
1.10946
1.11866
1.11869
1.01045
1.11882
1.11925
1
1.11842
1
1.11872
1
1
1
1
0.998818
1.11854
1.11871
1.10043
1
1.12
1
1
1
0.886098
1
1.11616
1
1.10908
1.11243
1
1
1
1.11
1.1198
1
1
1.11842
0.889088
1.02346
1
1.12008
1.11856
1.10933
1.11577
1.11859
1
1.11897
1
1
1
1
1.11873
1.1188
1
1.11899
1.01738
1.11836
1.1113
1
1
1.11178
1
1
0.886584
1.08464
1
1
1.11801
1
1.11942
1.10927
1
1.10901
0.887225
1.11875
1.11839
1.11867
1
0.890617
1
1
1
1.11857
1.09944
1
1.12023
1.11871
1
1.11847
1
1
1
1
1.11866
0.999826
1
1.11917
1
1
1.1179
1.11863
1
1.1189
1.0237
1.00001
1
1.11854
1
1.11873
1
1.00412
1.11862
1
1.11846
1
1
1.03871
1.11869
1
1
1
1
1
0.998996
0.888971
0.884757
1.00599
1
1.00888
1
1.00915
1
1.11862
1
1.07685
1
1.11849
1
1
1
1.11843
1
1.0955
1.11859
1
1.066
1.1186
1
1
1.11969
1.11835
1
1
1.0143
0.876928
1
1.1188
1
1
1
1
1.0219
1.11852
1
1
1
0.88822
1
1.11851
1.11828
1.12064
1
1
1
1
1.06172
1.12064
1
1
1
1.11989
1.11843
1.01433
1
1
1
1.11867
1.11843
1
0.883467
1.1187
1.11859
1.11827
1.11824
1.11783
1
1
1.12004
1.11822
1.11846
0.89256
1.01163
1.11842
1
1
1
1
1
1.11862
0.895191
1
1
1.11848
1.0586
1
1.11941
1
1
1
0.888028
1
1
1.03308
1.11835
1.11852
1
1.11706
1.1198
1
1.02236
1
1.1182
1
1.11816
0.890338
1
1
1
1
1.11849
1.00002
1
1
1
1.11605
1
1
1
1
1.1185
0.887625
1.09449
1.1194
1
1.11831
1
1
1
0.999166
1
1.12101
1
0.945615
1
1
1.00001
1.11839
0.894493
1
1.11819
1
1.11784
1.11854
0.895952
1
1
1.11171
1
1
0.88997
1
1.11713
1
1.11371
0.999815
1.11867
1
1
1
1
1.1203
1
1
1.11853
1
1
1
1
1
1
1
1
1.08113
1
1.04159
1.11907
1
1
1
0.88812
1
1
1
1
1.11916
1.11878
1.01739
1
1
1.11877
1
1
1.11874
1
1
1
1
1
1
1.11878
0.938535
1.11856
1.11912
0.999195
1
1
1
1.07311
1
1
1.11845
1.1185
1
1
1
1
0.901927
1
1
1
1.07651
1
1.11857
1.1192
1
1.11895
1
1
1
1.06671
1
1.12054
1
1.11843
1
1
0.998913
1.11846
1
1
1
1
1
1.1192
1.00001
1
0.889502
1.11841
0.880072
1
1.11843
1
0.998782
1
1.11874
1.11974
1
1.11672
0.964208
1.11851
1.11973
1.00001
1
1
0.88923
1
1
1
1.11858
1.07199
1.11813
1
1
1
1
0.999051
1.11912
1
0.886224
1
1
1
1
1
1
1
1.1195
1.1186
1.12005
1
1
0.999099
1
0.995437
1
1
1
0.890994
0.996563
1
0.890053
0.88862
1
1.1187
1.11847
1
1.11929
1.1188
0.885834
1.08068
1
1
1
0.886967
1.11878
1
0.885256
1
1.12008
1.02427
1
1
1
1
1.11858
1.12019
1
1
1.11861
1
1
1.11991
1.11858
1
1.10846
1.1185
1.12028
0.990876
1.11936
1.00238
0.885628
1.09368
1.11833
1
1
1
0.893387
1
0.890402
1.11987
0.987773
1.11845
0.989152
1
1.11873
1.05867
1
1
1.1184
1
1.05091
1.11817
1
1
1.11922
1.116
0.889277
1.07194
0.99997
1
1.07408
1
1.1196
0.987313
1.12061
1.11922
1
1
1
1
1.11365
1
1
1.11843
0.999897
1.11859
1.09654
1.11904
0.893368
1
1
1
1
1.11858
1.00001
1.11846
1
1.11835
1.118
1.01635
1.11998
1.03969
1.11903
1
1.08453
0.894036
1.11915
1.11854
1.09488
1.02432
1.11979
1.11853
1.11851
1.11879
1
0.979855
1.01902
1
1.11853
1.05845
1.11861
1.00001
1
1
0.897855
1.11835
1.11972
1.09863
1
1.04747
1
1.11933
1.11973
1
1.11908
1.11937
1
1
1
1.11921
1
1.04998
1.11795
1.08407
1
1.11852
1
1
1
1
1
1
1
1
1
1
0.899962
1
1.11007
0.88558
1.07324
0.999592
1.11767
1
1.06503
1
1.0791
1.10683
1
1.00056
1.12125
0.976397
1
1.11964
1.11537
0.986882
1
1.11826
1.1186
1.11903
1
1.11862
1.11913
1.11876
1
1.05875
1
1.00002
1.11859
1
1.11831
1.01909
1.11881
1
1
1.11817
1.11922
0.895055
1
1.1188
1.09094
1.11836
1
1
1.12026
1.1188
0.999499
1
1.10748
0.999081
1.11865
1.00002
1
1
1
1
1.05742
1
1.09324
1.11843
1.09052
1.11809
1
1.00062
1
1
1.11993
1
1.11903
1
1
1
1
1
1
1.01623
1.06531
1
1
0.893647
1
1.1182
0.906998
1.12154
1
1.06217
0.999927
1.11899
1.0794
0.898963
1.06711
1.00001
1.11868
1.11854
1
1.07464
1.11857
1.11875
0.999547
1.11814
1.11554
0.888612
1
1
0.999241
1
1.11744
1
0.902745
1.11819
1
1
1.10462
1
1.11872
1
1.11865
1
0.892731
1
1
1.11843
1.11953
1.11889
1
1.11777
1.11873
1.11648
1
1
1.11833
1
0.922301
1
1
1
1.11902
1
1.11845
1.08133
1.11826
1
1.11855
0.999826
1
1
1
1
1
1
0.90672
1
1
1.11853
1
1.11969
1.11933
1
0.891907
0.888469
1
1.11882
1.02127
0.888515
0.88745
1
1.11906
1
1.11916
0.897145
1.00046
1
1
0.999853
1
1
1
0.999974
1.05084
1.11848
1
1
1.11876
1.07194
1
1.10901
1.11825
1.11886
1.05091
1.11741
1
1.1186
1
1.11579
1
1.1183
1.11834
0.999114
1.11911
1.12045
1
1
1
1
1
0.979406
1.12044
1.00001
1.00001
0.900073
0.999993
0.887659
0.898618
1
1.1191
1.1187
1.11863
1
1.11879
1
0.89073
1
1
1.11928
0.951978
1.11804
1
1.11814
1
0.995724
1.11887
1
1
1
1.11852
1
1.11807
0.890025
1
1
1.07289
1
1
1.06715
1
1
1.11855
1
1
1
1
1
1.11991
1.11848
1
1.11902
1.11888
0.895068
1.05834
1.11792
1
1
1.10791
0.999718
1
1
1.11847
1.11927
1.08423
1
1.11941
0.897591
1.1128
0.999847
1
1.11854
1.00001
1.11831
1.09862
1.09286
1
1
1.11843
0.910692
0.902681
1
1.11847
1
1.11826
1
1.07357
1
1
1.11827
1.07994
0.88603
1
0.999523
1
1
1.00726
1.05076
1.11841
1
1.11969
1
1
1
1
1
1
1.01931
0.885184
1
1
1.00806
1
1
1
1
1
1.11841
1
1
1.11881
1.11829
1.08759
1
1
1
0.949001
1.11975
1.08524
1
1
1
1
1.11869
1
1
1
1.11851
1
1
1.08833
1.12381
1.00992
0.924063
1.11822
1.0868
1.11844
1
1.06287
1
1
1
0.904548
1.00059
0.911109
1
0.900957
0.889189
1
0.890622
1
1
1
1.05641
1
1.11933
1.11883
1.00048
1.06134
1.10184
0.904063
0.932212
0.963838
1
1.11844
1.12001
1.11843
1.11867
1.1029
0.96332
1
1.10357
1
1.11673
1
1
0.999031
1.00281
1
1
1
1.11918
1
0.894395
1
1.1188
0.891213
1
1
1.11864
1
1.11844
0.999875
1
1
1.1187
1.11222
1
1.12234
1
1
1.00432
1
1.05483
1
1
0.893856
1
1
1.11827
1
1.11867
1
1.00001
0.89125
1
1
0.881674
1.00031
1
1.11934
0.884987
1.11868
0.889239
1.11865
1
1
1
1
1
1
1
1
1
1
1
1.11439
1
1.11893
1.11988
0.889569
1
1
1
1
1
1
1.11552
1
1
0.889982
1
1
1.11972
1
1
1.04777
1.10103
0.888051
0.888335
0.913522
0.914085
1
0.999019
0.894891
1.00013
1.11152
0.999147
1
1
1.1189
1
1
1
0.933635
1
1.04616
1
1
1.05224
1.11871
1
0.895457
1
1
1
0.999139
1
1.11849
1.11863
1
0.890855
1
1.06715
0.893072
1
0.962921
1
0.998864
0.883622
1
1
1
0.998923
0.902841
1
0.901528
0.999551
1.06561
1.10911
0.889286
0.890076
1
0.997336
1
0.999611
1
1.11838
1.11833
1
1.00459
1.11878
1.11863
1
1
1.11859
1
1
1.00001
1
1.12039
1
1
1.00517
1
0.999586
0.913279
1
1
1
1
1
1.11784
1.00876
1.00001
1
1
1
1
1
1.00001
1
0.895113
1.02825
0.999592
1.11836
1.12018
1
1.0045
1.11877
1.10543
1
1
0.90251
1.11836
1
1.11949
1
1.11912
1.08245
0.895867
1
0.892284
1.11269
0.999907
1
0.885436
0.90613
1
1
1.10162
1
1
0.890423
1
1
1
1.03878
1
0.889415
1.1186
1
1
1
1
1.1186
1
1
1.12027
1.10768
1
1
1
1.11939
0.893702
1
1.11913
1.11863
1
1.09684
1
1.00001
1
1
1.1148
1.0072
1
0.892119
1.06716
1
1
0.999255
1
1
1.12014
1
1
1.00001
1
1.11924
1
1
1
1
1
1
1
1.05634
1
1.11886
1
1
1.11899
1
1
1
1.11864
1.11914
1.01268
1
0.999318
1
1
1
1
1.1201
1
1
1.11841
0.887261
1
1
1
1
1
1
1.09794
1
1
1.11922
1.1191
1
1
1
1.11905
1.11796
1
0.999921
1.12018
1
1
1
1.00001
0.894364
1.00919
0.998934
0.998842
1
1
0.895865
1.11869
1
0.90532
1
1.11889
1.11429
0.888298
0.999831
1.11846
1.11906
1.11804
1
1
0.977627
1.10954
1.10052
0.908223
1
1
1
1.11898
1.11835
0.886609
0.999218
1
1.11852
0.879659
1
1.11636
0.89083
0.993692
1.00175
1
1.11929
1
1
1
1
1
1
1.00003
1.11119
1
1
1.11874
1
1
1
1.11852
1
0.894841
1
1
1
1.04344
1
1
1
1
1
0.930661
1
0.881943
1
1.11865
1.00002
0.95575
0.95681
1
1.00102
1.06498
1
1
0.891593
1.1185
1.11862
1.11848
1
0.881094
0.891426
1
1.11831
1
1
1
1
1
1.00001
1
0.893873
1.07868
1
1
0.887039
0.999311
1
1
1
1
0.880736
1
0.902667
1
1
1.12112
1
1
0.888979
1
1.11864
1
0.903061
1
0.893858
1
1.00225
1.11879
1.12244
1
1
1.12026
1
1
1.02898
0.999136
1
0.999482
1
1.11946
1
0.899866
1
1.12042
0.999694
1
1
0.938491
1
0.999696
0.884294
1.11909
1.04483
1
1
0.96889
1
1
1
0.941039
1
1
1
1.11858
1
0.896988
1
1
1
1
0.889399
1.11857
1.1105
0.886746
1
1.11755
1
1
1.11855
1.11989
1.10147
0.888016
0.999357
0.999797
1
1.11858
1
1
1
1
1.11854
1.00001
1
1
1.11911
1
1
1.11867
0.889534
1
1
1
0.894251
1
1
1
0.999605
1
1
1
1
1.09391
1
1.1196
1.11886
1.12098
1.11869
1.11881
1.11848
1
1.11907
1
1.11876
1.11858
1
0.999682
0.890839
1.10268
0.999971
1
1
1
1
1.00298
1
1.02017
1
1
1
0.948566
1.11867
1.11822
1.11959
1.10468
0.999963
1
1.00646
1.11912
0.99942
1.0169
0.999116
0.886063
1
1
1
1
1
1
1
1.11823
0.89244
1.11823
1.1186
0.998424
0.865093
1
1
1
1.11866
0.883851
1.10627
0.889449
1.1187
1.11979
0.894722
1.11843
1.00739
1
1.11942
0.943445
1
0.99964
0.876433
1
0.881715
1
1.11851
1.11853
0.927619
1
1.11912
0.884959
1
0.891442
1
1.1187
1
1
1.11785
1
0.951865
1
0.999909
0.882293
1.11747
0.999851
1
0.885953
1
1
1
1
1.07014
1
1.11847
1
1
1.1214
1
1
1.11915
1
0.886518
1
0.891541
1
1
1
1
1
1.11391
1.07291
1.11841
1
1.11853
1.11124
0.888259
0.89207
1
1
1.11868
1
0.884618
1
0.999012
1
1
1.11862
1
1.11823
0.875989
1.12022
1
0.882492
1
1
1.11884
1.1182
1
1.00001
1
1.12092
1
1
0.884007
0.999831
0.877098
1
1
1
1.11905
1.11793
1.11934
1
1
0.904733
1
1.11926
1
1
1
1.11493
1.11859
1.11878
0.892954
1.11967
1.11867
0.887497
1.11957
1.00001
0.888545
1.00608
1
1
1.1184
0.889209
1.07896
0.877078
1.11853
0.999277
0.883282
1.11911
1
1
1
1
1.11861
1.12005
0.89347
1
1.00001
0.888571
1.00001
1
0.901127
0.900641
1.086
1.11847
0.999566
1.11869
1
1.11957
0.942948
0.884759
1.11861
1.12172
1
1.11863
1
1
1.11859
1
1.09143
1.11946
1
1
1
1
1.1187
1.1173
1.11824
1
1
1.11872
1.12104
1.11894
1
1.11862
1
1
1
1
1
0.89273
0.957791
0.889674
1
1
1.11893
1
1
1.11883
0.881882
1
1.11877
1.11738
1.1141
0.886272
1
0.903635
1
1.00001
1.12001
1.06153
1.12016
1.10932
1
0.906481
1
1.11929
1.08753
0.896302
1
1
1
0.942133
1
1
1.12141
1
0.893034
1.11849
1
1
1
1
1
1.09777
1.02858
1
1.11869
1
1.11874
1
0.999248
1
1.11819
1.11775
1.11829
1.11946
0.999886
1.11989
1
1.11839
1.11833
1.10186
1
1
0.889133
1.11938
1
1
1.11722
1.1187
1.11872
1
1.11893
1
1
1.00001
1.11917
1.11806
1.03614
1.02689
1.11839
1.11849
0.895599
1
1
1
1
1
1.04515
1
1
1.1002
0.881609
0.99999
1
1.11863
0.99997
0.999949
1.01867
1.10943
1.11995
0.97076
1
0.871058
1
1.00008
1.11853
1.11912
1.12009
0.999737
1
1
0.893001
1
1
1.11843
1.01412
1
1
1
1
1
1
1
0.999982
1.11995
1
1
1
1
1
1.07957
1
1.05929
1
1
1.11848
1.11845
0.888213
0.999651
1
1
1
0.893354
1.1195
1.11855
1
1
1
1
1
1
1
1
1.11878
1.11977
0.895508
1.01453
0.894183
1
0.883865
1
1.11905
1.03566
1
1
0.901712
1
1.11425
0.947709
0.998914
0.882972
1
1
1.1196
1.00001
0.999156
0.883096
1.11978
1.12052
1
1
1
1
1.11144
1
1
1.11852
0.999713
1.11903
1.00002
1
1
0.870271
1
1
1.1191
0.884114
0.938515
0.895692
1.11832
0.999786
1
1.11868
0.890148
0.889524
1.0059
1
1
1.11993
1.00001
1.05739
1
1
1.1201
0.892885
1
1
1.00004
1.1193
1.00005
1.11907
1
1.00001
1
1
0.912057
1
0.935639
1.00001
1
1.11925
0.871495
1
0.929199
0.945417
1
1
1.11836
1
1
1
1.11837
1.11862
1.00001
1.12005
1.11994
0.930628
1.11855
1.11132
1
1
1.11781
1
1
1
1
1
1.12015
1.11853
1
1
1
1.11831
1.00006
1
0.887951
0.919187
1
1.00001
1.04795
1
1
0.974479
0.896481
1
1
1
1.11839
1.10964
1.11862
1
1
1
1
0.875238
1
1.11439
1
1.1205
0.888255
1.11903
1
1
1
0.903418
1
1.11897
1.00001
1
0.895756
1.04799
1
0.999905
1.12321
0.887618
0.891471
1
1.11949
0.883076
0.886336
1
0.880806
1
1
1
1
0.898666
1
1
1
1
1.11982
1
1.09341
0.8844
1
1
1
0.889752
1.11833
1
1
0.998992
1.11651
1
1.11834
1.11926
1
1
0.913374
0.889813
1
1
0.893027
1.03978
1.05957
1
1
1.12003
0.999253
1
0.999319
1.12001
1
1
1
1
1
1
1.11899
1
1.04455
1.04152
0.898334
1.10642
1
1.11864
1.11841
1
1
1
0.976464
0.87053
1
1.06579
0.99991
1.10618
1
1
1
1
1
1.00195
1.05509
1.11886
1.11832
1
1.11874
1
0.904334
1
0.999305
0.999931
1
0.88711
1
0.892377
1.00001
1.11937
1.11977
0.890611
1.12077
0.904688
0.998925
1.09156
0.88884
1.08531
1
1
0.999551
1
1
1
1.00002
1
0.883078
1
1
1
1
0.999878
1.11955
0.935301
1
1
1
1.0104
1
1
1
1.07015
0.927765
1
1
1
1.01398
1.11971
1
0.864111
1
1.11905
0.978486
0.893637
1
0.888617
1
1
1.11266
0.999512
1.11505
1
1.00254
1
1
1.11887
1
1
1
1
1.02518
1
1.11852
1.11901
1.11938
0.879926
1.11881
0.99918
1.09919
1
1
0.885435
1
1
0.894397
1.11758
1
1
0.999988
1
1
1
0.882657
0.886757
1
1.12005
1
1.05895
1.11841
0.88807
1.10247
1
1
0.905788
1
1
1.11849
1.11856
1.04837
1
1
1.00039
1.11946
0.88335
0.896377
1.11967
1.11884
1.08531
1.04933
1
0.971779
1
1
1
1.11325
1.11955
1.1196
1
1
1.11839
0.898988
1.10944
0.881891
1
0.898496
1
0.89082
1.11855
0.886973
1
0.996442
0.895499
1
1
1
0.948829
1.11095
1.11843
1.11908
1.11961
1
1
1.11984
1
1
1.11914
1
0.899991
1
0.872902
1
1.11972
1
1
1.00422
1.09352
1
0.999677
0.898452
1.11848
1
0.865057
1.02412
1
1
1.09006
1.11912
1.11842
1
1.11884
1.03407
1
1.00672
1.11878
1
1
1
1
1.11838
1
0.885778
1.11902
0.885808
0.873158
0.950804
1.11877
1.04377
1.11841
1
1.11982
0.999257
1.00001
1.11859
1.12007
1
1.11931
1
1.11863
1
1.11948
1
1.00001
0.999996
1.11847
0.886276
0.89784
0.999397
1
1
1
0.876223
1
1.08129
1
0.879422
1
1.04984
1.11832
1.11761
1
1
1.00001
0.999837
1
1.11982
1.11855
1
1.05435
1.11897
0.956191
1.11856
1.00022
0.889331
1.02834
0.886283
1
1
1.02174
1.12049
1
1
1.0114
0.999579
1
0.878599
1
0.935239
1
1.11809
1
1
0.891379
1.02948
1.02045
0.999561
1.11861
1.1186
0.932742
0.999467
0.88926
0.907119
0.891284
1
1
1
0.999728
0.911248
0.892841
1
1.11871
0.999927
1.11857
1.11905
1.12001
1.11852
1
0.888983
1.11892
0.888743
1
1.11838
1.11968
0.999069
0.946285
1.11857
1.09092
1
0.892639
1
1
1.11839
1
1.00727
1.1181
1
0.884745
0.885182
1
1
0.885816
0.884368
1.11834
1.00002
1
0.878108
0.89564
1.11793
1.11443
1.11169
1.11931
1.03676
0.992578
1.05279
1.11935
1.09838
1
1.06672
1
0.876879
0.9593
1
0.887931
1.1184
1.00659
1.119
1
1.11881
1.1197
1
1.11853
1.11865
0.894143
1.11908
1
1.12312
1
0.925668
0.892774
1.11883
1
1
1
0.890249
1.11891
1.11893
1
0.899011
1
1
0.888741
1.00001
0.881615
1.12013
1
0.945268
0.891854
1
1
1.07381
1
1
1
1.02172
0.895451
1
1
1
1.11818
0.886416
1
1.11853
0.869293
0.880558
1
1
1.11849
1
1.11832
1
1.11853
0.895751
1
1
0.889286
0.947717
0.875732
1
1
1
1
1.1184
0.887927
1
0.886314
1
1.11751
1
1
0.981446
1
1
0.943217
0.999908
1.00001
1
0.886383
0.896352
1
1
1
1
0.939047
1.11817
1.11984
1
0.886846
0.894614
0.976356
0.896644
1
0.944864
1
0.870314
0.993175
1
1
0.891861
1
1.11856
1.11464
0.894813
1
1
1
1.1169
1
1.01499
0.954731
1.04062
0.894717
1.05196
0.89201
1
1
0.908523
0.975269
1
1.01163
1
1
0.901515
1
0.98508
1.01429
0.886788
1
1.10061
0.925905
0.968027
1
1
1
0.892497
1
0.889961
0.89086
1
0.955157
0.888055
1.01987
0.915703
0.87015
1.11868
1
1.11836
1.06949
0.915212
1.11849
0.888846
0.999722
1.1194
1
1
1.11885
1
0.907199
1
1.02038
1
1
1.11844
1
0.929741
0.940683
1.12057
0.984362
1
0.932091
1.11855
1.11945
0.974799
1
1.11861
1.03284
0.955074
1
1.00461
1
0.900134
1.0539
0.92324
0.916679
1
1
0.895546
1.11852
0.992609
0.888005
0.890057
0.962733
1
1.00596
1.11955
1.1183
1
1
1
0.897437
1.05839
1
1.11888
1.11218
0.89022
1
1.02879
0.96562
1.07442
1.10347
1
1.01256
1
1.00002
0.889814
0.950826
1
1
0.941719
0.886645
1.01338
1
1.00001
0.866806
1.05777
1
1.11756
1
1.0131
1.06813
1
1.11934
1
1
1.11916
1
0.884021
1.1197
0.895538
1.03597
1
0.894247
0.999974
1
1.00001
1
0.936255
1.00789
0.891839
1.08927
1.12027
0.882673
1
1
1
1
1
0.991749
0.904444
1.0139
0.888852
0.886814
1.0241
1
0.999946
1.03318
1
1
0.879138
0.998163
1
1
1.03757
1
1.1196
1
1.11934
1.0274
1.00699
0.893269
1
1
0.866536
1
1
1
1
1.11843
1.01289
0.99945
1
0.889732
1.01476
1
1
1.08127
1
0.898079
1.11815
1
1
1
1.11932
0.889113
0.967042
0.895186
1.09212
1.11832
1
1
1.11833
1
0.892597
1
1
1
1
1
0.936099
1
1.11959
1
1
1.04371
1.11951
0.898638
0.960212
1
1.11846
1
1
1
1
1
1.11865
1.11936
0.881839
1.11838
0.880098
1
1
1.11846
1
1.11997
1.00175
1.00809
1.01931
1.11903
1.01951
1.08334
0.879961
1
0.884349
0.998873
1
1.11859
1
1
0.881414
1.11903
1
1.11927
1
1
1
1
1
1
0.89701
1.11998
0.951562
1.11859
1
0.891549
0.898808
0.912266
1.11988
1.11868
0.993078
1
0.940853
1
1.04839
1
1.11819
0.88287
0.889917
0.955131
1
1.11877
1
1.02529
0.894451
1
1.12001
1.10573
0.999675
1
1.11854
0.89131
1.11905
1.11883
1.12041
0.887713
1.02824
1
1
0.884551
1
0.939179
0.94544
1
1.00001
1.11877
1
1.11662
1.02447
1
1.0134
1.12034
1
0.888373
1
0.932115
1
1
1.09891
1
0.936861
1
0.896579
1.01007
0.982122
0.895873
1.11886
1.09736
1.11966
0.889971
0.897699
0.998844
1
1
0.903803
1.11237
0.893621
0.999992
1
1.11851
1.11914
0.974322
1
0.893614
0.900583
1.08277
0.992632
0.883061
1
0.886484
1.03338
0.896222
1
1.00002
0.946569
1.11924
1.11887
0.955636
0.999885
1
1
0.918309
1
0.890122
1
0.890096
0.895616
1
1
1.00001
0.894518
1.11856
1
1
1.00002
1.00001
0.886245
1.11879
1.11852
1
0.891815
1.12004
1
1.02984
1
1
1.11844
0.889515
1
1
0.886624
0.915274
0.893364
0.871157
1
0.902417
0.999242
1.03046
0.882069
1
1
1.03785
1
1.10597
1
1
1.08924
0.887937
1
0.893813
1.03732
1.11894
1
1
0.890929
0.896053
0.878992
0.919028
0.885462
1.09202
0.999829
1
1
1
1
1.11861
0.86932
1
0.984941
0.999905
0.999557
0.999983
0.922958
1.03739
1
1.11849
1.11853
1
1
1.11406
1.00001
1
1.11842
0.888961
1.11624
1
0.888802
1.11836
1.00001
1
0.943369
1
0.88357
1
1.11952
1
1
1.11929
1
1
1.11817
1
1
1
1.12015
1
0.914924
0.908639
1
0.882699
1.11885
1
1
0.992781
1
1.11911
1.07227
1.09698
1
1
0.890489
1
0.887924
1.11872
1.11982
1.11909
1
1.12012
0.894983
1
0.889086
1.09647
1.11018
1.11876
1.11884
0.929061
0.88418
1
1.08296
1.11942
1.11964
1.11853
0.921162
1.04569
1
1.09307
0.913833
1
1
1
1.00001
0.974527
1
1.11921
1
1
1
1
1
1
1.00002
1.11813
1
1.11937
1.08978
0.8934
1.12027
1.0093
1.06371
1
1.11858
1
0.886389
1
1
1
1
1.10294
1
0.887101
1.11848
0.882332
1.11812
1.09602
1.06533
1
1.02474
1.05849
0.998828
0.891658
0.9351
1.00001
1
0.978279
1
0.876508
1.1193
0.870146
0.975013
0.958588
1
1
1
1.00458
1
1
0.885464
0.998843
1.12014
1
1.11851
1
0.891153
1
1
1.11862
1.11826
0.886762
1
1.11912
1
0.942642
0.875428
1.11936
1.10787
1
1.02104
1.11849
0.999612
1
1.05407
1.10574
1.11795
0.998731
1
1
1.10275
1
1
1
1.11849
0.999566
1
1
1.11836
1
1
0.892116
1
1
1
1.11933
1
1
0.963914
1.03893
1.10896
0.930264
1
1.11853
1
1.04548
1
1.11931
0.9992
1.11862
1
0.893272
1
1.08144
1
1
1.11147
1.00001
1.11887
1
1.11753
0.898315
0.890661
1.11922
1
1.10274
1
1.11935
1
1
1.00001
1.11818
1.11916
1.03452
1.118
0.998858
0.897046
1.11866
0.95939
1
1.11665
1
1.11861
1
1.119
1.1193
0.998979
0.888703
1
1.11863
1
1.00839
1
1
0.999399
0.924488
1.10724
1
1.10866
1
0.965732
0.885706
1.11835
1.11884
0.90454
1
1.11885
1.11959
1.11902
0.903462
1.11823
0.887829
1.11904
1.121
1
1
1.11851
1
1
1
1
0.89284
1
1
1.11955
1.11854
1
1.11858
1
1.12004
1.11974
1
1.10072
1
0.885868
1.11861
1.08996
1.03671
0.882729
1.11848
1
1
0.884037
1
1
1.11838
1
1
0.934509
1
1.11883
1.00002
1.11853
0.887126
1.11963
1
1.11857
1.11449
0.974919
1
1.1185
0.930889
1.11869
1.08522
1.11871
1.11811
0.999197
1.1198
1.11846
1.11858
1.11838
1.00003
1
0.905109
1
1.12003
0.952732
1.10933
1
1.11669
1
1
1
1
1
1.118
0.886032
0.889114
1.1189
1.1186
1
1
1
1
1
1.11766
1.10544
1.11862
1.00552
1
1
1
1.00001
1.11835
1.11839
1
1.11924
1.1195
0.890506
1.08652
1
1.11864
1.12019
1.11789
0.999336
1.11881
1.11887
1
1.10619
1
1
1
1
1
1
1.11822
1.1203
1.11112
1.11883
0.887059
0.908313
1.11864
1.11862
1
0.884622
0.978672
1
1.05996
0.880053
1
0.999843
0.999512
0.891604
1
1.11882
1
1
1
1.11924
0.983047
1
1.11856
1.11881
1
1.11905
1
1
1.11858
1
0.892138
1
1.11771
1
1
0.892671
1
1.11897
1
0.887444
0.896603
1
1.11322
1
0.881525
0.9718
1
1.11845
1
1
1
1.11896
1
0.894624
1.01767
1.11924
1.119
1.11846
1.01274
1.11908
1.1186
1
1
1
1
1
1.11838
1
0.999817
1.11809
1
0.882522
1
1.11859
1.0584
1.0203
1.05767
1.01987
1.11823
0.905302
1.11842
1
0.891989
0.999171
1.1189
0.983356
1.11882
1.11878
1.11371
1
1.11927
1.1184
1.11844
1
1.00001
1
1
1.11945
1.08676
1
1
0.883481
0.998995
1
1.11867
1
1.11858
1.11912
1.1178
0.978508
1.11862
1.1182
1.00201
1.06006
1.11965
1.11872
1
1.11027
0.955899
1.11617
0.999459
1.1183
1
1.11858
1.11835
1
0.895488
0.980146
0.913003
1
1.02491
0.999052
1.11912
1
1
0.999083
1
1.06359
1.11349
1
1
1.11879
1
1
1.088
1.11875
1.11434
1.11875
1.11871
1
1.11834
0.92197
1.11899
1
0.998048
0.892559
1
1
0.930186
1
1.0399
1
1.11902
1
1.11664
1.07807
0.89321
1
1
1
1
1
1.11888
1.00317
1
1.1187
1
1.11855
1.11857
1
1
0.990115
0.999954
0.889766
0.880986
0.920105
1.02525
1
0.999545
0.895645
1.00001
1
1.11864
0.985587
1.11163
1.1022
1
1
1
1
1
1.1188
1.11854
1
1.11899
1
1.11953
1.08281
0.999041
1
1
1
1.07217
1
0.991055
1
1.11894
1
1
1.11855
1
1
1
1
1
1.11874
0.885619
0.998903
1.1075
1.11858
1
1.11857
1
1
1
1
0.90076
1
1.1182
1.11847
1.11855
1.12
0.986593
1
1.10201
1.03151
1.11989
1.12036
1.02207
1.11933
1
1
1