/*--------------------------------*- C++ -*----------------------------------*\
  =========                 |
  \\      /  F ield         | OpenFOAM: The Open Source CFD Toolbox
   \\    /   O peration     | Website:  https://openfoam.org
    \\  /    A nd           | Version:  12
     \\/     M anipulation  |
\*---------------------------------------------------------------------------*/
FoamFile
{
    format      ascii;
    class       volScalarField;
    location    "4.3";
    object      rho;
}
// * * * * * * * * * * * * * * * * * * * * * * * * * * * * * * * * * * * * * //

dimensions      [1 -3 0 0 0 0 0];

internalField   nonuniform List<scalar> 
9801
(
1.0905
1.09555
1.10299
1.10796
1.11169
1.11488
1.11726
1.11866
1.12009
1.1227
1.12714
1.13512
1.14343
1.14876
1.15265
1.15546
1.15718
1.15755
1.15902
1.16218
1.16753
1.17674
1.18582
1.19205
1.19644
1.20005
1.20231
1.20074
1.20107
1.20375
1.20816
1.21703
1.22737
1.23457
1.2395
1.24381
1.24744
1.24598
1.24519
1.24809
1.25211
1.2598
1.27135
1.2798
1.2849
1.2894
1.29256
1.29064
1.291
1.29413
1.29858
1.30688
1.31945
1.32882
1.33463
1.339
1.34131
1.33661
1.33635
1.34026
1.34597
1.35571
1.37107
1.3818
1.38794
1.39286
1.39402
1.38678
1.38613
1.39049
1.39671
1.41088
1.42947
1.44204
1.44976
1.45552
1.45535
1.44468
1.44314
1.44998
1.46102
1.48461
1.50863
1.52322
1.53357
1.54287
1.5399
1.52514
1.5264
1.54065
1.56766
1.61264
1.65095
1.68404
1.72168
1.75515
1.76543
2.34966
5.24414
1.09586
1.10032
1.1077
1.11307
1.11699
1.12026
1.12303
1.1254
1.12742
1.13001
1.13385
1.14148
1.14905
1.15345
1.15663
1.15928
1.16166
1.16329
1.16536
1.16854
1.17333
1.18282
1.19188
1.19737
1.201
1.20367
1.2046
1.20395
1.2054
1.20844
1.21289
1.22236
1.23334
1.24054
1.24539
1.24932
1.25144
1.2487
1.24818
1.25102
1.25492
1.26311
1.27589
1.2849
1.29039
1.29499
1.29803
1.29576
1.29459
1.29672
1.30053
1.30808
1.32167
1.332
1.33817
1.34283
1.34576
1.34211
1.34082
1.34376
1.34846
1.35689
1.3727
1.38411
1.39058
1.39568
1.39789
1.39195
1.39025
1.39357
1.39883
1.41156
1.43057
1.44343
1.45129
1.4572
1.45849
1.44916
1.44642
1.45232
1.46115
1.48114
1.50587
1.52174
1.53287
1.54325
1.54499
1.53097
1.52936
1.54214
1.5632
1.60138
1.63554
1.66489
1.6968
1.71888
1.70323
2.27032
5.23121
1.09499
1.09823
1.10622
1.11299
1.11753
1.12147
1.12515
1.12861
1.13102
1.13306
1.136
1.14146
1.14689
1.15129
1.15549
1.15933
1.16295
1.16589
1.16815
1.17128
1.17557
1.18405
1.19134
1.19528
1.19815
1.20092
1.20295
1.20398
1.20639
1.21001
1.21453
1.22418
1.23538
1.24176
1.24559
1.2483
1.24833
1.246
1.24697
1.25033
1.25452
1.26324
1.2768
1.28636
1.29201
1.29645
1.29883
1.2949
1.29208
1.2941
1.29807
1.30542
1.31997
1.33161
1.33816
1.34302
1.34669
1.34356
1.34025
1.34216
1.34626
1.35316
1.36898
1.38201
1.38914
1.39452
1.39818
1.39349
1.39003
1.39237
1.397
1.40601
1.42459
1.43978
1.44841
1.45473
1.45827
1.45028
1.44535
1.44962
1.45727
1.4709
1.49737
1.5174
1.52948
1.53981
1.54478
1.53148
1.52532
1.53611
1.5532
1.58449
1.6209
1.65031
1.67904
1.70319
1.6812
2.23008
5.18994
1.09433
1.09888
1.10803
1.11501
1.11967
1.12365
1.12721
1.13052
1.13174
1.13221
1.1344
1.13966
1.14713
1.1531
1.15757
1.16137
1.16501
1.16789
1.16952
1.17171
1.17452
1.18096
1.18886
1.19379
1.19803
1.20191
1.20496
1.20602
1.20827
1.21162
1.2155
1.22308
1.23344
1.2395
1.24316
1.2462
1.24766
1.24699
1.24821
1.25162
1.25562
1.26324
1.27684
1.2861
1.29103
1.2945
1.29579
1.29245
1.29078
1.29336
1.29751
1.30426
1.31902
1.33197
1.33861
1.34323
1.34644
1.3427
1.33766
1.33894
1.34314
1.34932
1.3647
1.37997
1.38797
1.39347
1.39783
1.39452
1.38791
1.38832
1.39274
1.39984
1.41707
1.43589
1.44573
1.45207
1.45709
1.45202
1.44258
1.44417
1.45137
1.46117
1.48363
1.50786
1.52195
1.53227
1.54069
1.53402
1.52143
1.52604
1.54091
1.56261
1.5955
1.62534
1.65162
1.67642
1.67002
2.20905
5.15372
1.09401
1.10247
1.11163
1.11779
1.12199
1.12546
1.1288
1.13045
1.12865
1.12938
1.13223
1.13965
1.15041
1.15673
1.16083
1.16433
1.16743
1.16857
1.16787
1.16863
1.17113
1.17678
1.18787
1.19621
1.20104
1.20476
1.20805
1.20945
1.20997
1.2113
1.21345
1.2177
1.22787
1.23673
1.24203
1.24613
1.24957
1.25014
1.25055
1.25292
1.25626
1.2611
1.27224
1.28209
1.28734
1.29132
1.29432
1.29322
1.29155
1.29384
1.29787
1.30332
1.31607
1.32903
1.33578
1.34015
1.34332
1.34107
1.33588
1.33691
1.34113
1.34678
1.36041
1.37672
1.38547
1.39096
1.3955
1.39427
1.386
1.38433
1.38831
1.39464
1.40815
1.4293
1.44196
1.44889
1.45478
1.45408
1.44293
1.43957
1.44528
1.45351
1.46913
1.49559
1.51474
1.5268
1.53705
1.53989
1.52538
1.51999
1.53045
1.54758
1.57607
1.60627
1.62928
1.65185
1.65778
2.20484
5.12887
1.09417
1.10673
1.11646
1.12101
1.12446
1.12788
1.13004
1.12726
1.12553
1.12732
1.13066
1.13947
1.15276
1.16009
1.16388
1.16677
1.16891
1.16834
1.16571
1.16626
1.16901
1.17415
1.1867
1.19795
1.20352
1.20727
1.21045
1.212
1.20988
1.20892
1.21077
1.21428
1.2233
1.23546
1.24288
1.24756
1.25148
1.25385
1.25246
1.2524
1.25461
1.25827
1.26657
1.2782
1.28542
1.29033
1.2944
1.29589
1.29334
1.29416
1.29756
1.30192
1.31157
1.32472
1.33244
1.33742
1.3416
1.34252
1.33752
1.33653
1.34017
1.34498
1.35529
1.3724
1.38309
1.389
1.39385
1.39523
1.38775
1.38287
1.38549
1.39128
1.40059
1.42146
1.4394
1.44839
1.45467
1.45752
1.44773
1.43942
1.44165
1.44899
1.45926
1.48164
1.50582
1.52119
1.53266
1.54229
1.53786
1.52333
1.52425
1.53684
1.55729
1.58673
1.61139
1.63083
1.64329
2.21137
5.11202
1.09442
1.10797
1.11997
1.12533
1.1286
1.13097
1.1299
1.12577
1.1255
1.1278
1.13088
1.13828
1.15247
1.16122
1.16562
1.1688
1.17086
1.16973
1.16708
1.16778
1.17047
1.17462
1.18556
1.19793
1.20442
1.20839
1.21146
1.21295
1.21023
1.20863
1.21068
1.21427
1.22238
1.23534
1.24365
1.24854
1.25231
1.2549
1.25294
1.25096
1.25283
1.25652
1.26384
1.27694
1.28631
1.29166
1.29574
1.29871
1.29651
1.29451
1.29637
1.30006
1.30692
1.32097
1.3315
1.33746
1.34205
1.34524
1.34176
1.33822
1.34001
1.34404
1.3504
1.36581
1.38073
1.38832
1.39347
1.39688
1.39181
1.38464
1.38527
1.39042
1.39667
1.41153
1.43399
1.44735
1.45467
1.46026
1.45749
1.44491
1.44143
1.44633
1.45437
1.46928
1.49467
1.51484
1.52843
1.53984
1.54671
1.53679
1.52652
1.53171
1.54521
1.5687
1.59534
1.61412
1.62753
2.22053
5.09952
1.09625
1.10893
1.12131
1.12684
1.13006
1.13198
1.13085
1.12794
1.12796
1.13011
1.133
1.1386
1.15108
1.16081
1.16588
1.16936
1.17203
1.17248
1.17032
1.17084
1.17338
1.17677
1.18558
1.19734
1.20416
1.20835
1.21153
1.21362
1.2117
1.21035
1.21256
1.21609
1.22356
1.23616
1.24448
1.2492
1.25271
1.25535
1.25386
1.2512
1.25283
1.25661
1.26333
1.27714
1.28802
1.29395
1.29811
1.30129
1.29943
1.29484
1.29501
1.29841
1.3038
1.31719
1.33204
1.33975
1.34439
1.34841
1.34747
1.34161
1.34035
1.34298
1.34768
1.3581
1.37727
1.3894
1.39548
1.4
1.39949
1.39096
1.38771
1.39005
1.39522
1.40336
1.42392
1.44419
1.45477
1.46157
1.46609
1.45733
1.44574
1.44611
1.45271
1.46191
1.48164
1.50541
1.52204
1.53471
1.54627
1.55068
1.5388
1.53121
1.53799
1.55185
1.57583
1.59686
1.61172
2.23215
5.08694
1.09934
1.11072
1.12139
1.12684
1.13014
1.13237
1.13299
1.13139
1.13138
1.13332
1.13601
1.14019
1.15049
1.16034
1.16615
1.17019
1.17359
1.17548
1.17367
1.17367
1.17561
1.1785
1.18548
1.19684
1.20409
1.20879
1.21259
1.21554
1.2143
1.21297
1.21503
1.2184
1.22427
1.23644
1.24528
1.25001
1.25383
1.2572
1.25667
1.25374
1.25497
1.25853
1.26367
1.27632
1.28938
1.29573
1.29967
1.30263
1.30211
1.29735
1.29653
1.29938
1.30383
1.31401
1.3315
1.34212
1.34726
1.35112
1.35209
1.34543
1.34139
1.34284
1.34715
1.35372
1.37113
1.38953
1.39819
1.40361
1.40692
1.40034
1.39123
1.39049
1.39414
1.40004
1.41292
1.43701
1.45367
1.46239
1.46878
1.47041
1.45802
1.44972
1.4522
1.45912
1.47049
1.49342
1.51482
1.52977
1.54184
1.55231
1.55293
1.54003
1.53443
1.54102
1.55517
1.57659
1.59455
2.24214
5.07262
1.1035
1.11296
1.12161
1.12678
1.13035
1.13321
1.13528
1.13478
1.13464
1.13639
1.13905
1.14262
1.15214
1.16264
1.16858
1.17269
1.17624
1.17868
1.17663
1.17497
1.17658
1.1796
1.18581
1.19819
1.20664
1.21145
1.21528
1.21849
1.21793
1.21618
1.21723
1.2197
1.2236
1.23471
1.24647
1.25263
1.25682
1.26046
1.26101
1.25817
1.25883
1.26152
1.26499
1.27275
1.28766
1.29657
1.30121
1.30507
1.3065
1.30196
1.29985
1.30243
1.30646
1.31185
1.32705
1.34222
1.34908
1.35308
1.3558
1.35155
1.3445
1.34456
1.34847
1.35363
1.36449
1.38585
1.39979
1.40638
1.41126
1.41091
1.39902
1.39287
1.39498
1.40011
1.40732
1.4255
1.44863
1.46178
1.46939
1.47555
1.47426
1.45973
1.45384
1.45802
1.46572
1.4802
1.50363
1.5223
1.53599
1.54777
1.55654
1.55444
1.54068
1.53535
1.5406
1.55337
1.57485
2.24842
5.05758
1.10726
1.11521
1.12306
1.12828
1.13219
1.13526
1.13765
1.13763
1.13681
1.13843
1.14142
1.14562
1.15551
1.16659
1.17247
1.17631
1.17975
1.18105
1.17687
1.17533
1.17754
1.18097
1.187
1.20008
1.21055
1.21559
1.21931
1.22257
1.22256
1.21883
1.21792
1.22008
1.22366
1.23264
1.24765
1.25655
1.26118
1.26494
1.2672
1.26429
1.26202
1.26251
1.26474
1.26919
1.28266
1.29702
1.3043
1.30878
1.31238
1.31051
1.30603
1.30618
1.30842
1.31166
1.31986
1.3378
1.34913
1.35491
1.35959
1.36048
1.3527
1.34955
1.35207
1.35565
1.3607
1.37594
1.39641
1.40642
1.41185
1.41619
1.41275
1.40111
1.39826
1.40168
1.40725
1.41633
1.43813
1.45839
1.46917
1.4761
1.48078
1.47561
1.46228
1.45918
1.4642
1.47263
1.48991
1.51255
1.52922
1.54165
1.55249
1.55907
1.5549
1.54013
1.53298
1.53536
1.55351
2.24471
5.04251
1.10986
1.11613
1.12531
1.13151
1.13499
1.13785
1.1399
1.13949
1.13938
1.14143
1.14442
1.14869
1.15838
1.17036
1.17692
1.18061
1.18246
1.18101
1.17804
1.17777
1.18014
1.1835
1.18899
1.20168
1.21371
1.21978
1.2234
1.22609
1.22528
1.21977
1.21899
1.22169
1.22544
1.23239
1.24806
1.25995
1.26575
1.26945
1.27232
1.26957
1.26296
1.26191
1.26471
1.26891
1.279
1.29698
1.30789
1.31345
1.3174
1.31897
1.31292
1.30824
1.30806
1.31076
1.31557
1.33053
1.34904
1.35839
1.36396
1.36791
1.3647
1.35604
1.35395
1.35522
1.35864
1.36578
1.38634
1.40501
1.4137
1.41954
1.42368
1.41663
1.40536
1.40425
1.40797
1.41352
1.42427
1.44753
1.46501
1.47425
1.48086
1.48581
1.4793
1.46622
1.46455
1.46996
1.47915
1.49824
1.51942
1.53454
1.54606
1.55575
1.5605
1.55455
1.53893
1.52582
1.53314
2.22748
5.02855
1.11287
1.11726
1.12584
1.13435
1.13857
1.14104
1.14253
1.14248
1.14293
1.14539
1.14852
1.15256
1.16074
1.17186
1.17848
1.18178
1.18365
1.18377
1.18134
1.18148
1.18423
1.1877
1.19218
1.20232
1.21515
1.22222
1.22619
1.22869
1.22772
1.22333
1.22225
1.22491
1.22862
1.2342
1.24762
1.26192
1.26876
1.27286
1.27545
1.27275
1.26565
1.26421
1.26692
1.2708
1.27784
1.29567
1.31049
1.31686
1.3213
1.32402
1.31878
1.30975
1.3084
1.31117
1.31538
1.32507
1.3468
1.36167
1.36798
1.3727
1.3743
1.36471
1.35549
1.35466
1.35758
1.36242
1.37462
1.39923
1.41536
1.42229
1.42752
1.42969
1.41924
1.40915
1.40856
1.41184
1.41753
1.43204
1.45654
1.47258
1.48136
1.4879
1.49083
1.48199
1.47
1.46928
1.47475
1.48455
1.50514
1.52538
1.53928
1.54957
1.55756
1.56006
1.55307
1.53322
1.52045
2.19855
5.0159
1.11575
1.11906
1.12454
1.13435
1.14021
1.14352
1.14634
1.14789
1.14845
1.15067
1.15366
1.15663
1.16083
1.16938
1.17743
1.18189
1.18513
1.18807
1.188
1.18746
1.18965
1.1927
1.19581
1.2011
1.21271
1.22167
1.22616
1.22946
1.23183
1.22936
1.22772
1.22998
1.23331
1.23698
1.24512
1.25999
1.26888
1.27323
1.27623
1.27716
1.27147
1.2687
1.27128
1.27525
1.28006
1.29187
1.30916
1.31842
1.32301
1.32588
1.3244
1.31499
1.31112
1.31391
1.31854
1.3245
1.33923
1.35959
1.36975
1.37501
1.37849
1.37613
1.36282
1.35703
1.35935
1.36401
1.37007
1.38729
1.41113
1.42322
1.42938
1.43418
1.43368
1.41966
1.41092
1.41243
1.41723
1.4239
1.44224
1.46547
1.47897
1.48691
1.49326
1.49551
1.48491
1.47319
1.47313
1.47878
1.48959
1.51086
1.53011
1.54265
1.55144
1.55696
1.55788
1.54628
1.5254
2.16704
5.00348
1.11911
1.12116
1.12368
1.1316
1.14156
1.14713
1.15056
1.15355
1.15528
1.15621
1.15783
1.15945
1.16111
1.16516
1.17511
1.18361
1.18824
1.1916
1.1943
1.19407
1.1943
1.19598
1.19815
1.20083
1.20818
1.22078
1.22823
1.23235
1.23577
1.23678
1.23394
1.23415
1.23638
1.23915
1.24304
1.25469
1.26811
1.27483
1.27898
1.28228
1.28081
1.27591
1.2763
1.279
1.28221
1.28705
1.30167
1.31604
1.32248
1.32669
1.33033
1.32622
1.31888
1.3192
1.32225
1.32573
1.33143
1.34923
1.36648
1.37392
1.37857
1.38238
1.37765
1.36631
1.36451
1.36806
1.37249
1.37899
1.39846
1.41894
1.4285
1.43399
1.43786
1.43532
1.42241
1.4167
1.41931
1.42455
1.43235
1.45214
1.47277
1.48422
1.4915
1.49725
1.49824
1.48736
1.47706
1.47748
1.48274
1.49384
1.51502
1.533
1.54394
1.55066
1.55437
1.55141
1.54087
2.1492
4.99056
1.12261
1.12264
1.12439
1.12938
1.14154
1.15074
1.15517
1.15841
1.16131
1.16242
1.16115
1.16048
1.16171
1.16456
1.17254
1.18478
1.19168
1.19536
1.19851
1.20034
1.19869
1.198
1.19944
1.20216
1.20675
1.21884
1.23045
1.23596
1.23932
1.24201
1.24044
1.23726
1.23784
1.24046
1.2439
1.25068
1.26585
1.27709
1.28241
1.28616
1.2883
1.28383
1.27993
1.28021
1.2821
1.28559
1.2933
1.31118
1.32401
1.33024
1.33459
1.3366
1.32979
1.32394
1.32362
1.32523
1.32887
1.33724
1.35815
1.37382
1.38098
1.38623
1.38932
1.38161
1.37173
1.37071
1.37312
1.37704
1.38483
1.40584
1.42414
1.43286
1.4387
1.44387
1.44067
1.42774
1.42295
1.42526
1.42984
1.43808
1.45818
1.47699
1.48763
1.49483
1.50092
1.50291
1.49232
1.4818
1.48159
1.48618
1.49633
1.51673
1.53343
1.54268
1.54794
1.54777
1.55177
2.14654
4.97657
1.12585
1.12408
1.12589
1.12985
1.14137
1.15339
1.15916
1.16263
1.16559
1.16766
1.16524
1.16239
1.1632
1.16565
1.17118
1.18429
1.19393
1.19861
1.20195
1.20484
1.20426
1.20135
1.20196
1.20451
1.20784
1.21581
1.2299
1.23789
1.24186
1.24504
1.24655
1.24275
1.24106
1.243
1.24628
1.2502
1.26046
1.27626
1.28453
1.28871
1.29183
1.29172
1.28523
1.28232
1.28379
1.2868
1.29116
1.30367
1.32329
1.33356
1.33834
1.342
1.34076
1.33048
1.32507
1.32622
1.32956
1.33428
1.34676
1.36964
1.38309
1.389
1.39332
1.3948
1.38427
1.3745
1.37375
1.37713
1.38176
1.39192
1.41526
1.43299
1.44092
1.44597
1.4498
1.44516
1.43202
1.4268
1.42884
1.43328
1.44209
1.46344
1.4825
1.4933
1.50053
1.50626
1.50796
1.49752
1.48588
1.48433
1.4882
1.49696
1.5162
1.53168
1.54006
1.5412
1.55368
2.15763
4.96219
1.12881
1.12637
1.12817
1.13168
1.14191
1.15556
1.16253
1.16621
1.16916
1.17149
1.16972
1.16535
1.16527
1.16733
1.17095
1.18238
1.19548
1.20183
1.2056
1.20882
1.21033
1.20673
1.20543
1.20705
1.20943
1.21323
1.22542
1.23834
1.24458
1.24846
1.25183
1.25151
1.24715
1.24684
1.24883
1.2514
1.25565
1.26972
1.28404
1.29052
1.29453
1.29791
1.29506
1.28776
1.28692
1.28958
1.29313
1.29811
1.31428
1.33164
1.33935
1.34376
1.34707
1.34332
1.33252
1.32986
1.33293
1.33726
1.34214
1.35631
1.37748
1.38815
1.39368
1.39785
1.39855
1.38728
1.37885
1.37964
1.38387
1.38906
1.40083
1.42382
1.43902
1.44628
1.45144
1.45466
1.4484
1.43485
1.43008
1.43271
1.43773
1.448
1.46955
1.48783
1.49817
1.50514
1.51061
1.51231
1.50217
1.48923
1.48598
1.48877
1.49616
1.51396
1.52856
1.53341
1.54952
2.17697
4.94664
1.13122
1.1295
1.13135
1.13435
1.14273
1.15707
1.16542
1.16957
1.17262
1.17514
1.17406
1.16865
1.16729
1.1691
1.1721
1.18026
1.19593
1.20538
1.20985
1.21325
1.21597
1.2137
1.20916
1.20835
1.20968
1.21248
1.22007
1.23683
1.24786
1.25325
1.25691
1.25968
1.25577
1.25061
1.2496
1.25079
1.25374
1.2614
1.27997
1.29276
1.29892
1.3028
1.30507
1.29839
1.2922
1.29238
1.2943
1.29703
1.30321
1.32221
1.33841
1.34586
1.35098
1.35454
1.34899
1.33896
1.33725
1.33892
1.34166
1.34619
1.36231
1.38319
1.39365
1.3993
1.40421
1.40497
1.39367
1.38651
1.38734
1.39038
1.39485
1.40708
1.4296
1.44358
1.45013
1.4548
1.45804
1.45263
1.44042
1.43617
1.43856
1.44326
1.453
1.47398
1.49191
1.50205
1.50875
1.51409
1.51613
1.5067
1.49229
1.48684
1.48819
1.49397
1.51079
1.52111
1.54032
2.19764
4.92944
1.13408
1.13292
1.13496
1.13781
1.14372
1.15785
1.16828
1.173
1.17605
1.1786
1.17779
1.17138
1.16928
1.1713
1.1744
1.1801
1.19515
1.20822
1.21414
1.21757
1.22034
1.21962
1.2121
1.20871
1.21029
1.21351
1.2186
1.23343
1.25021
1.25766
1.26183
1.26483
1.26361
1.2544
1.24976
1.25097
1.25429
1.25898
1.27299
1.29281
1.3025
1.3075
1.31116
1.3101
1.30006
1.29404
1.29374
1.29616
1.30008
1.31011
1.3326
1.34783
1.3544
1.35944
1.36184
1.35325
1.34216
1.33929
1.3409
1.34432
1.35076
1.37072
1.39175
1.40193
1.40754
1.41245
1.41128
1.39864
1.3907
1.39065
1.39356
1.3982
1.41162
1.43418
1.44779
1.45471
1.46027
1.46438
1.45947
1.44621
1.44072
1.44242
1.44666
1.4554
1.47643
1.49525
1.50553
1.51212
1.51717
1.51946
1.51128
1.49498
1.48661
1.48614
1.49096
1.50312
1.5263
2.21269
4.91101
1.13725
1.13657
1.13871
1.14164
1.14548
1.1571
1.17026
1.17643
1.17977
1.18168
1.18012
1.17473
1.17294
1.175
1.17804
1.18204
1.19313
1.20911
1.21728
1.22138
1.22407
1.22383
1.21626
1.21133
1.21275
1.21587
1.21997
1.23014
1.24919
1.26049
1.26547
1.26876
1.26959
1.261
1.25302
1.25348
1.25669
1.26076
1.26792
1.28658
1.30308
1.3103
1.31461
1.31758
1.31153
1.29903
1.29587
1.29826
1.30186
1.30671
1.32146
1.34435
1.35606
1.36148
1.36551
1.36638
1.35419
1.34339
1.34288
1.34633
1.35073
1.3595
1.38203
1.40087
1.40907
1.41377
1.41747
1.4152
1.40127
1.39321
1.39407
1.39798
1.40295
1.41807
1.44161
1.45499
1.46116
1.46571
1.46894
1.46382
1.44975
1.44351
1.44556
1.45023
1.45912
1.47969
1.49873
1.50911
1.51528
1.51958
1.52113
1.51447
1.49748
1.48506
1.48291
1.48412
1.50969
2.21494
4.89109
1.14148
1.14093
1.14304
1.14596
1.14893
1.15561
1.16919
1.17752
1.18115
1.18337
1.18412
1.18014
1.17784
1.17959
1.18249
1.18553
1.19101
1.20554
1.21718
1.22203
1.22498
1.22691
1.22331
1.21706
1.21753
1.2207
1.22435
1.22952
1.24303
1.25852
1.26543
1.26888
1.27146
1.27048
1.2617
1.25888
1.26121
1.26445
1.26802
1.27692
1.29672
1.30939
1.3147
1.31818
1.31977
1.31191
1.3027
1.3026
1.30588
1.30967
1.31514
1.33162
1.3515
1.36053
1.36522
1.3685
1.36808
1.35681
1.34948
1.35074
1.35462
1.3592
1.36914
1.39033
1.40601
1.41297
1.4176
1.42104
1.41729
1.40408
1.39817
1.4003
1.40478
1.41067
1.42555
1.44686
1.45869
1.46477
1.46941
1.47173
1.46688
1.45462
1.44894
1.45082
1.45521
1.46343
1.48264
1.50081
1.51081
1.51635
1.52002
1.52114
1.51633
1.50027
1.4851
1.47539
1.4923
2.20009
4.87098
1.14719
1.14664
1.14774
1.15011
1.15256
1.15543
1.16425
1.17651
1.18248
1.18572
1.18815
1.18784
1.18409
1.18385
1.18586
1.18828
1.19115
1.19903
1.21437
1.22334
1.22736
1.23017
1.23111
1.22595
1.22333
1.22514
1.22793
1.23092
1.23613
1.25133
1.26513
1.27114
1.27485
1.27758
1.27316
1.26545
1.2646
1.26657
1.26935
1.27356
1.28524
1.30462
1.31546
1.32044
1.32453
1.3254
1.31569
1.30852
1.30909
1.31158
1.3148
1.32091
1.33908
1.35724
1.36551
1.37022
1.37474
1.3737
1.36226
1.35625
1.35752
1.36065
1.36476
1.37485
1.39604
1.41062
1.41734
1.42157
1.42539
1.42231
1.41045
1.40535
1.40685
1.41013
1.41457
1.42813
1.44874
1.46084
1.46704
1.47174
1.47592
1.47378
1.46266
1.4561
1.45671
1.46034
1.46622
1.48233
1.50009
1.51029
1.51569
1.51881
1.52027
1.51775
1.50452
1.48314
1.48191
2.16631
4.85209
1.15277
1.15416
1.15259
1.15338
1.15478
1.15676
1.16054
1.17184
1.18316
1.18841
1.19146
1.19394
1.19255
1.18884
1.18883
1.19092
1.19372
1.19727
1.20753
1.22212
1.22954
1.23321
1.23609
1.23619
1.23076
1.22866
1.23009
1.23292
1.23622
1.24352
1.26043
1.27267
1.27812
1.28111
1.28232
1.27551
1.26885
1.2691
1.27214
1.27564
1.28024
1.2935
1.31247
1.32239
1.3272
1.33067
1.33016
1.31899
1.3123
1.3134
1.31688
1.32083
1.32823
1.34721
1.36435
1.37238
1.37672
1.38018
1.37841
1.36691
1.36083
1.36222
1.36604
1.3708
1.38106
1.40088
1.4154
1.42281
1.42741
1.43069
1.42809
1.41648
1.4096
1.41003
1.4136
1.41853
1.43062
1.45088
1.46495
1.47241
1.4774
1.48131
1.48142
1.47181
1.46253
1.46048
1.46294
1.46722
1.47979
1.49769
1.50929
1.51531
1.51837
1.51923
1.51806
1.50431
1.48873
2.12798
4.83397
1.15712
1.16129
1.15913
1.15718
1.15754
1.15919
1.16133
1.16633
1.17988
1.1901
1.19472
1.1977
1.20001
1.19737
1.194
1.19449
1.1964
1.19861
1.20223
1.21452
1.22902
1.23602
1.23985
1.24292
1.24165
1.23557
1.23405
1.2358
1.23847
1.24161
1.24938
1.26655
1.27744
1.28264
1.28641
1.28803
1.28082
1.27542
1.27625
1.27876
1.2816
1.28566
1.29957
1.31757
1.32617
1.3306
1.33425
1.33422
1.32449
1.31944
1.32117
1.32472
1.32836
1.33479
1.35223
1.36808
1.37547
1.38009
1.38418
1.38352
1.37379
1.36854
1.36954
1.3722
1.37594
1.38493
1.40438
1.41919
1.42642
1.43096
1.43443
1.43342
1.42363
1.41605
1.41547
1.41811
1.42279
1.43326
1.45288
1.4681
1.47636
1.48181
1.48604
1.48749
1.48016
1.46871
1.46367
1.46441
1.46768
1.47734
1.49496
1.50827
1.51486
1.51716
1.51779
1.51353
1.51137
2.11036
4.81535
1.16077
1.16621
1.16715
1.16355
1.16098
1.16127
1.16275
1.1652
1.17314
1.18876
1.19755
1.20171
1.20477
1.2066
1.20261
1.19884
1.19847
1.19957
1.20179
1.20676
1.22265
1.2373
1.24399
1.2477
1.25048
1.24709
1.24067
1.23925
1.23997
1.24121
1.24412
1.25381
1.27293
1.28487
1.291
1.29507
1.29565
1.28711
1.28109
1.28074
1.28189
1.28409
1.28845
1.30357
1.32226
1.33207
1.33796
1.34238
1.34258
1.33327
1.32751
1.3275
1.32862
1.33087
1.33673
1.35491
1.37227
1.38113
1.38708
1.39181
1.39237
1.38287
1.37495
1.37376
1.37547
1.37873
1.38671
1.40612
1.42207
1.43005
1.43538
1.43993
1.4412
1.43238
1.42257
1.4202
1.42202
1.42574
1.4339
1.45334
1.47073
1.47996
1.4853
1.48995
1.49329
1.48803
1.47474
1.46702
1.46606
1.46796
1.47456
1.49167
1.50641
1.5128
1.51515
1.51209
1.5242
2.1131
4.79619
1.1642
1.17074
1.17318
1.17213
1.16573
1.16302
1.16366
1.16567
1.16939
1.18288
1.19885
1.20598
1.20943
1.21238
1.21262
1.20557
1.20085
1.20076
1.2026
1.20552
1.21355
1.23348
1.24676
1.2526
1.25606
1.25783
1.25141
1.24322
1.24052
1.24113
1.24356
1.24755
1.26145
1.28295
1.29401
1.29922
1.30296
1.3022
1.29166
1.28399
1.28265
1.28392
1.28661
1.29181
1.30996
1.3309
1.34117
1.34685
1.35126
1.35085
1.33971
1.33024
1.32797
1.3296
1.33313
1.34081
1.36176
1.38094
1.3899
1.39493
1.39936
1.39946
1.38811
1.37754
1.37553
1.37802
1.38183
1.38979
1.41078
1.42905
1.43721
1.44169
1.4457
1.4475
1.43887
1.4267
1.42261
1.42486
1.429
1.43588
1.45433
1.47415
1.48482
1.49039
1.49461
1.49744
1.49431
1.48097
1.46992
1.4669
1.46787
1.47207
1.48752
1.5028
1.51017
1.50897
1.52577
2.13084
4.77898
1.16672
1.175
1.17751
1.17886
1.17252
1.16547
1.16488
1.16682
1.16974
1.17726
1.19604
1.20878
1.21391
1.21687
1.21918
1.21456
1.205
1.20255
1.20416
1.2069
1.21093
1.22445
1.24562
1.25587
1.26049
1.26366
1.26303
1.25158
1.24311
1.24269
1.24509
1.24832
1.25377
1.27222
1.29241
1.30124
1.30597
1.30936
1.30727
1.29433
1.28593
1.28553
1.28804
1.29161
1.29895
1.32104
1.34085
1.34889
1.35331
1.35701
1.35537
1.34051
1.33127
1.33177
1.33517
1.3396
1.34913
1.37149
1.38871
1.39608
1.40039
1.40348
1.40271
1.39038
1.38026
1.37988
1.38335
1.38815
1.39649
1.41611
1.43327
1.4414
1.44618
1.44933
1.45051
1.44343
1.43132
1.42705
1.42938
1.43373
1.44051
1.4578
1.47746
1.48836
1.49381
1.49758
1.49985
1.49804
1.48644
1.47325
1.46779
1.46762
1.47018
1.48331
1.49822
1.5024
1.52232
2.15508
4.7611
1.16792
1.17854
1.18098
1.18299
1.17972
1.16997
1.1673
1.16902
1.17168
1.17593
1.18943
1.20834
1.21708
1.22095
1.22332
1.22301
1.21297
1.20594
1.20655
1.20923
1.21248
1.21868
1.2371
1.2553
1.26299
1.26723
1.26975
1.26522
1.25162
1.24631
1.24768
1.25058
1.25408
1.26181
1.28249
1.29987
1.30719
1.31165
1.31526
1.31075
1.29519
1.28914
1.29077
1.29425
1.29887
1.30973
1.33206
1.34734
1.35344
1.35695
1.35839
1.35559
1.34411
1.33839
1.33993
1.34339
1.34771
1.3574
1.37689
1.39159
1.3984
1.40264
1.40605
1.40576
1.39639
1.38836
1.38796
1.39062
1.3939
1.40001
1.41755
1.43455
1.44293
1.44755
1.4516
1.45462
1.45036
1.44009
1.43554
1.43691
1.44037
1.44487
1.45784
1.47686
1.4886
1.49436
1.498
1.50085
1.50119
1.49311
1.47886
1.46991
1.4679
1.46837
1.47837
1.48826
1.51174
2.17443
4.74011
1.16648
1.18079
1.18433
1.18647
1.18594
1.17721
1.17157
1.17252
1.17506
1.17798
1.18408
1.20152
1.2172
1.22372
1.22745
1.22988
1.22453
1.21277
1.21027
1.2124
1.21527
1.21863
1.22696
1.24762
1.26253
1.26847
1.2723
1.27499
1.26697
1.25355
1.25099
1.25312
1.25605
1.25993
1.27007
1.29237
1.3072
1.3133
1.31675
1.31821
1.31156
1.29897
1.29601
1.2985
1.30208
1.30653
1.31718
1.33722
1.35031
1.35597
1.36007
1.36396
1.36145
1.35022
1.34475
1.34603
1.3493
1.3532
1.36107
1.3795
1.3951
1.40281
1.40719
1.41097
1.41197
1.40328
1.39341
1.39136
1.39403
1.39784
1.40376
1.41828
1.43574
1.44648
1.45243
1.45659
1.46019
1.45961
1.45071
1.44295
1.44137
1.44375
1.44742
1.45583
1.47367
1.48803
1.49534
1.49933
1.50239
1.5046
1.50078
1.48594
1.47209
1.46642
1.46579
1.46858
1.49573
2.18297
4.71582
1.16233
1.18128
1.18675
1.18973
1.19115
1.18647
1.17802
1.17655
1.1785
1.18114
1.18425
1.19276
1.21177
1.2242
1.22901
1.23161
1.23243
1.2249
1.21633
1.21585
1.21835
1.22135
1.22526
1.23632
1.25662
1.26854
1.27358
1.27631
1.27654
1.26777
1.25794
1.25718
1.26001
1.26365
1.26846
1.27908
1.29821
1.31014
1.31525
1.31847
1.32071
1.31614
1.30659
1.30349
1.30506
1.30811
1.31256
1.32285
1.34198
1.35552
1.3619
1.36555
1.36816
1.36644
1.35658
1.35072
1.35155
1.35493
1.35917
1.36675
1.38331
1.39883
1.40696
1.41127
1.41366
1.41493
1.40988
1.40125
1.39825
1.39985
1.40309
1.40784
1.41946
1.4368
1.44945
1.45671
1.4614
1.46505
1.46658
1.46049
1.4505
1.44581
1.44656
1.44961
1.45587
1.47122
1.48766
1.49743
1.50201
1.50452
1.50594
1.50429
1.49242
1.47487
1.46456
1.45754
1.47716
2.1738
4.68949
1.15838
1.17625
1.18685
1.19106
1.19324
1.19416
1.18804
1.18208
1.18253
1.18508
1.1879
1.19124
1.20084
1.21842
1.2288
1.23329
1.23642
1.2371
1.2291
1.22258
1.22289
1.22537
1.22826
1.23223
1.24332
1.261
1.27121
1.27575
1.27904
1.28079
1.27383
1.26636
1.26615
1.26844
1.27069
1.27387
1.28272
1.30073
1.31346
1.31978
1.32393
1.32741
1.32374
1.31402
1.31041
1.31186
1.31501
1.3192
1.32726
1.34388
1.35727
1.36401
1.36837
1.37257
1.37318
1.36515
1.35911
1.35944
1.36232
1.36558
1.37011
1.38307
1.39888
1.40765
1.41266
1.41749
1.42124
1.41938
1.41044
1.40522
1.40555
1.40774
1.41111
1.41884
1.43618
1.45151
1.45981
1.4649
1.46934
1.47285
1.46978
1.459
1.45184
1.45092
1.45255
1.45619
1.46823
1.48601
1.49738
1.50242
1.50493
1.50622
1.50564
1.49705
1.47895
1.46041
1.46639
2.14251
4.66416
1.15834
1.16578
1.18156
1.19164
1.1961
1.19881
1.19929
1.19257
1.18866
1.18959
1.19152
1.1934
1.19634
1.20574
1.22373
1.23464
1.23955
1.24256
1.24281
1.23459
1.22892
1.22925
1.23141
1.23367
1.23665
1.24562
1.26361
1.27574
1.28168
1.28553
1.28747
1.28081
1.27226
1.27021
1.27213
1.27513
1.27872
1.28635
1.30423
1.31868
1.32587
1.33001
1.33333
1.3318
1.32301
1.3184
1.31858
1.3197
1.3222
1.32799
1.3441
1.3607
1.37002
1.37536
1.38005
1.38187
1.37529
1.36758
1.36525
1.36553
1.36691
1.37045
1.38169
1.40042
1.413
1.41908
1.42326
1.42732
1.428
1.42033
1.41186
1.40901
1.41065
1.41403
1.41985
1.43578
1.45372
1.46439
1.47032
1.47484
1.47869
1.47786
1.46745
1.45694
1.45334
1.4544
1.45703
1.46467
1.48234
1.49676
1.50297
1.50493
1.50547
1.50494
1.50033
1.48054
1.46915
2.10108
4.64175
1.15938
1.16249
1.17077
1.18781
1.19827
1.20303
1.20587
1.20577
1.19861
1.19403
1.19374
1.19538
1.19773
1.20107
1.21099
1.22955
1.24056
1.24588
1.24913
1.24966
1.24221
1.23593
1.23437
1.23474
1.23652
1.2397
1.24904
1.26838
1.28158
1.28778
1.29151
1.2937
1.28834
1.27912
1.27627
1.27735
1.27919
1.28203
1.28867
1.3071
1.32321
1.33155
1.33761
1.34178
1.34051
1.32987
1.32175
1.32036
1.32246
1.32586
1.33145
1.34764
1.36659
1.37682
1.38198
1.386
1.38912
1.3847
1.37351
1.36719
1.36733
1.37005
1.37372
1.38371
1.40289
1.41697
1.42448
1.42934
1.43367
1.43535
1.42741
1.41594
1.41201
1.414
1.4178
1.42282
1.43701
1.45692
1.46919
1.47522
1.47913
1.48168
1.4818
1.47362
1.46178
1.45609
1.45607
1.45828
1.46409
1.48016
1.49544
1.5025
1.5044
1.50412
1.50349
1.49777
1.49147
2.07665
4.62133
1.16227
1.16383
1.16643
1.17584
1.19488
1.20577
1.21062
1.21342
1.21239
1.2035
1.19815
1.19809
1.19972
1.20161
1.20455
1.21546
1.23582
1.24764
1.25353
1.25754
1.25788
1.24842
1.23913
1.23688
1.23813
1.24027
1.24322
1.25272
1.27354
1.28735
1.29416
1.2991
1.30187
1.29605
1.28438
1.27913
1.27949
1.28189
1.28538
1.29337
1.31464
1.33205
1.33938
1.34347
1.34674
1.34629
1.33499
1.32552
1.32471
1.32749
1.33126
1.33699
1.35269
1.37168
1.3818
1.3871
1.39103
1.39401
1.38912
1.37605
1.37024
1.3714
1.37465
1.37856
1.38697
1.40672
1.42252
1.42981
1.43412
1.43618
1.43649
1.43203
1.42289
1.41847
1.42008
1.42408
1.42969
1.44088
1.45769
1.46972
1.47592
1.47956
1.48209
1.48358
1.48048
1.47062
1.46285
1.46094
1.46187
1.46422
1.47548
1.49091
1.49914
1.5014
1.50201
1.4986
1.51012
2.07721
4.60052
1.16589
1.16523
1.16684
1.16997
1.18276
1.20327
1.21355
1.2182
1.22085
1.21854
1.20801
1.20195
1.20097
1.20192
1.20441
1.20853
1.22315
1.24495
1.25597
1.26093
1.2642
1.26371
1.25263
1.24272
1.24025
1.24099
1.24335
1.24724
1.25981
1.28285
1.29606
1.30166
1.30546
1.30819
1.30105
1.28688
1.28239
1.28433
1.2877
1.29221
1.30092
1.32064
1.33584
1.34278
1.34732
1.35152
1.35155
1.33981
1.33113
1.33106
1.33378
1.33689
1.34187
1.35723
1.37659
1.38639
1.39107
1.39413
1.39584
1.39164
1.38103
1.3762
1.37738
1.38072
1.38535
1.39301
1.40825
1.42208
1.42947
1.43383
1.43784
1.44206
1.44176
1.43442
1.42895
1.42887
1.43071
1.43315
1.43856
1.45242
1.46745
1.47623
1.48097
1.48522
1.48907
1.48974
1.48131
1.46961
1.46348
1.46234
1.463
1.46848
1.48351
1.49464
1.49936
1.49757
1.5145
2.09317
4.57948
1.16925
1.16622
1.16788
1.1704
1.17483
1.19155
1.21218
1.22134
1.22589
1.22858
1.22369
1.20979
1.20334
1.20401
1.2064
1.20942
1.21469
1.23194
1.25227
1.26148
1.2662
1.26987
1.26952
1.25536
1.24418
1.24331
1.24577
1.24916
1.25433
1.26869
1.28993
1.30094
1.30608
1.3095
1.31127
1.3043
1.29274
1.28993
1.29178
1.29418
1.29747
1.30593
1.32618
1.34201
1.3492
1.35328
1.35624
1.35567
1.34509
1.3366
1.33609
1.3389
1.34291
1.3491
1.3618
1.3777
1.38736
1.39244
1.39576
1.39835
1.39745
1.39086
1.38611
1.38585
1.38783
1.39026
1.39405
1.40432
1.42033
1.4327
1.43967
1.44399
1.44803
1.4507
1.44587
1.4365
1.43172
1.43228
1.43527
1.43969
1.45012
1.46661
1.47936
1.48599
1.48974
1.49267
1.49463
1.48952
1.4754
1.46457
1.46106
1.46103
1.46433
1.478
1.49146
1.49462
1.51427
2.11633
4.55684
1.17583
1.16868
1.16989
1.17232
1.17522
1.18208
1.20308
1.22147
1.22864
1.2323
1.23412
1.22604
1.21204
1.2082
1.20957
1.21179
1.21464
1.22079
1.24005
1.2593
1.26749
1.27147
1.27365
1.27085
1.2577
1.24989
1.25035
1.25279
1.25541
1.25993
1.27457
1.29479
1.30518
1.30983
1.31325
1.31597
1.3095
1.29755
1.29428
1.29647
1.29981
1.30471
1.314
1.3312
1.34496
1.35163
1.35563
1.35846
1.35872
1.3523
1.34588
1.34502
1.34707
1.34943
1.3526
1.36071