/*--------------------------------*- C++ -*----------------------------------*\
  =========                 |
  \\      /  F ield         | OpenFOAM: The Open Source CFD Toolbox
   \\    /   O peration     | Website:  https://openfoam.org
    \\  /    A nd           | Version:  12
     \\/     M anipulation  |
\*---------------------------------------------------------------------------*/
FoamFile
{
    format      ascii;
    class       volVectorField;
    location    "2.89";
    object      U;
}
// * * * * * * * * * * * * * * * * * * * * * * * * * * * * * * * * * * * * * //

dimensions      [0 1 -1 0 0 0 0];

internalField   nonuniform List<vector> 
22702
(
(2 -4.27555e-13 0)
(2 5.9993e-14 0)
(2.04032 -0.0907889 0)
(2 -1.19055e-09 0)
(1.97766 0.0333394 0)
(2 1.99062e-14 0)
(1.83058 0.229154 0)
(2 1.52311e-13 0)
(2 -3.88225e-13 0)
(2.1465 -0.262861 0)
(1.83021 0.228539 0)
(1.83051 0.228879 0)
(2 -2.48674e-13 0)
(1.83179 0.228841 0)
(2.04017 -0.075681 0)
(2 -2.19949e-13 0)
(2 -2.12647e-13 0)
(2 -6.29857e-14 0)
(1.83014 0.228549 0)
(2 -7.08751e-15 0)
(1.83166 0.229411 0)
(2 -3.18301e-13 0)
(1.83117 0.229162 0)
(2.10469 -0.259125 0)
(1.83162 0.230178 0)
(2.11704 -0.262223 0)
(2 1.36396e-13 0)
(1.8286 0.228446 0)
(2.10723 -0.258475 0)
(2.10651 -0.259638 0)
(2 2.07947e-14 0)
(1.82991 0.228603 0)
(2 2.77393e-14 0)
(2 -7.68334e-14 0)
(2 2.4564e-13 0)
(1.84423 0.214995 0)
(1.83031 0.231012 0)
(1.8312 0.229337 0)
(2 -1.87635e-13 0)
(2 -2.33093e-13 0)
(2.15358 -0.259187 0)
(2 -1.8271e-14 0)
(1.91584 0.122587 0)
(2 -2.47899e-13 0)
(1.82897 0.228563 0)
(2 3.52308e-14 0)
(2 -1.44508e-13 0)
(2 8.28196e-16 0)
(2 -1.06821e-13 0)
(2.10779 -0.263678 0)
(2 -9.83667e-14 0)
(2.10145 -0.262757 0)
(2 -2.43594e-13 0)
(1.82976 0.228479 0)
(2 1.33702e-14 0)
(1.82984 0.228574 0)
(2 -1.96555e-13 0)
(2 1.4363e-09 0)
(2 1.45105e-14 0)
(2 -2.37575e-13 0)
(2.12058 -0.266124 0)
(2 1.09499e-13 0)
(2 -2.74055e-13 0)
(2.10295 -0.260557 0)
(2 7.60095e-14 0)
(2.10084 -0.265952 0)
(2 -1.92722e-13 0)
(2 1.09605e-13 0)
(2 -3.73475e-14 0)
(2.14547 -0.260125 0)
(2 -2.76849e-13 0)
(1.83058 0.228782 0)
(1.89717 0.1509 0)
(2 1.43477e-09 0)
(1.83065 0.228958 0)
(1.82091 0.236474 0)
(2.09755 -0.261911 0)
(1.82794 0.228459 0)
(2.10723 -0.26426 0)
(2 -2.51936e-13 0)
(1.8308 0.228689 0)
(2.11648 -0.26082 0)
(1.83215 0.229089 0)
(1.82876 0.228757 0)
(2 -8.36438e-14 0)
(2 8.7491e-07 0)
(2 -5.10335e-14 0)
(2 -5.80756e-15 0)
(2.023 -0.0496466 0)
(2.15014 -0.264496 0)
(1.83242 0.228843 0)
(2 6.14861e-14 0)
(2 -5.5149e-11 0)
(2.09749 -0.264842 0)
(2 -4.13524e-14 0)
(1.83165 0.229343 0)
(2.09854 -0.262179 0)
(2 3.13792e-08 0)
(2 -5.65662e-14 0)
(2 1.15129e-13 0)
(2 -1.85241e-13 0)
(1.9159 0.122935 0)
(1.83031 0.228682 0)
(2.13315 -0.262743 0)
(2 -1.38538e-09 0)
(2 -9.92154e-10 0)
(1.95805 0.0622097 0)
(2 9.31e-09 0)
(2.11498 -0.261153 0)
(2 8.28501e-15 0)
(1.82931 0.229264 0)
(1.82917 0.228853 0)
(2 4.20458e-09 0)
(2 5.70758e-14 0)
(2.1039 -0.275454 0)
(2.10046 -0.273018 0)
(2.14892 -0.266107 0)
(2 3.55646e-14 0)
(2 -1.50125e-07 0)
(2 -2.09614e-14 0)
(2 2.58565e-14 0)
(2 1.01709e-07 0)
(2.02596 -0.0597354 0)
(2 -1.06158e-07 0)
(1.85579 0.201549 0)
(1.9814 0.0215256 0)
(1.82868 0.228658 0)
(2 -2.25479e-13 0)
(1.83073 0.229305 0)
(1.83065 0.228627 0)
(1.83131 0.229146 0)
(1.82935 0.228899 0)
(2 6.1153e-14 0)
(2.1478 -0.26245 0)
(2 6.4073e-14 0)
(2.08542 -0.262132 0)
(2 2.21952e-14 0)
(2 -7.21658e-14 0)
(2 1.88194e-14 0)
(2 9.53098e-15 0)
(1.82979 0.228661 0)
(2 2.88688e-09 0)
(2 1.15947e-14 0)
(2 5.08539e-14 0)
(2 1.57933e-13 0)
(1.83132 0.229084 0)
(2 6.28519e-14 0)
(1.99449 0.0137561 0)
(2 6.2815e-14 0)
(2 -1.09366e-14 0)
(2 -7.05206e-11 0)
(2 -5.72536e-14 0)
(2.10904 -0.265884 0)
(2 5.26116e-14 0)
(1.99611 0.0084855 0)
(2 9.70803e-14 0)
(2.10461 -0.26431 0)
(2 -9.20657e-14 0)
(2 -4.78156e-14 0)
(2 1.22564e-13 0)
(1.83229 0.228946 0)
(2 -4.15539e-14 0)
(1.83086 0.228627 0)
(2.10847 -0.280761 0)
(2.13331 -0.263277 0)
(1.82906 0.22856 0)
(1.82942 0.228607 0)
(2 -7.68942e-15 0)
(1.96937 0.04892 0)
(1.90408 0.141968 0)
(2 -1.73358e-13 0)
(1.82994 0.228601 0)
(2.10859 -0.264199 0)
(1.84378 0.215525 0)
(2 1.567e-14 0)
(2 -1.61672e-14 0)
(2 1.95622e-15 0)
(2 1.02335e-14 0)
(1.8318 0.228621 0)
(1.85937 0.193081 0)
(2 -4.01935e-14 0)
(1.82945 0.228928 0)
(2.09834 -0.261493 0)
(1.82988 0.228486 0)
(2 -9.33557e-14 0)
(2.11221 -0.265413 0)
(2 -2.71769e-13 0)
(2.10338 -0.264702 0)
(2.11723 -0.266163 0)
(2.00007 -0.000127132 0)
(2 -2.15408e-13 0)
(2 -3.61401e-13 0)
(1.83002 0.228533 0)
(2 1.2036e-14 0)
(2 2.71888e-14 0)
(1.83162 0.228767 0)
(2 -1.25735e-14 0)
(1.83332 0.22917 0)
(1.82951 0.228948 0)
(2.10014 -0.27274 0)
(2 7.2615e-14 0)
(2 -2.83756e-13 0)
(2.10634 -0.26741 0)
(1.83176 0.229013 0)
(2 -2.32348e-14 0)
(2 4.05718e-14 0)
(2 4.21405e-14 0)
(1.83158 0.22902 0)
(2 -1.95899e-13 0)
(2.13169 -0.262034 0)
(2 -6.58932e-11 0)
(2 1.6683e-13 0)
(1.83163 0.229059 0)
(1.83146 0.228938 0)
(1.83225 0.229316 0)
(2 5.08907e-14 0)
(1.99999 2.31584e-05 0)
(2 -6.16276e-14 0)
(2 -1.76901e-14 0)
(2 -3.28291e-13 0)
(1.83183 0.229 0)
(2 -1.24949e-14 0)
(2.10613 -0.265115 0)
(1.82313 0.23448 0)
(1.83187 0.228981 0)
(1.83179 0.229287 0)
(2 2.02892e-07 0)
(2 1.53391e-15 0)
(2 -2.01924e-13 0)
(2.11117 -0.272287 0)
(1.83221 0.229004 0)
(1.91843 0.131628 0)
(2 -3.40585e-14 0)
(1.83077 0.229637 0)
(2.11961 -0.265643 0)
(2.12686 -0.264699 0)
(1.83087 0.229705 0)
(1.83115 0.230152 0)
(2 1.15792e-14 0)
(1.83215 0.229171 0)
(2.13816 -0.26528 0)
(1.8507 0.206501 0)
(2 -2.88524e-13 0)
(2 -3.81013e-13 0)
(2 -1.74896e-13 0)
(2 -3.83089e-13 0)
(1.83153 0.228844 0)
(2 -1.78125e-14 0)
(1.90905 0.134961 0)
(1.98246 0.0291307 0)
(2 -2.48384e-13 0)
(2 1.11119e-13 0)
(1.83202 0.228938 0)
(2.09681 -0.271896 0)
(2.06546 -0.167386 0)
(2 -8.93043e-14 0)
(1.83195 0.228112 0)
(2.12274 -0.26814 0)
(1.8319 0.229057 0)
(2 7.50216e-14 0)
(2 1.96223e-14 0)
(2 -2.83163e-13 0)
(2 4.19995e-14 0)
(2 -1.09628e-13 0)
(2 -9.78966e-14 0)
(2 -1.81711e-13 0)
(2.11236 -0.264998 0)
(2.0815 -0.168009 0)
(2.13085 -0.263013 0)
(1.83126 0.22905 0)
(2 2.45706e-14 0)
(2 -3.20373e-14 0)
(2 -1.7405e-07 0)
(2 -2.22127e-13 0)
(1.84625 0.212644 0)
(2 -1.79166e-07 0)
(2.11178 -0.262874 0)
(2 -1.16253e-13 0)
(2.12207 -0.284999 0)
(2.1014 -0.265075 0)
(1.83218 0.228886 0)
(2.10443 -0.262479 0)
(1.8317 0.229385 0)
(2 -1.08523e-14 0)
(2 -1.89186e-13 0)
(2 -2.85108e-13 0)
(2.00095 -0.00162795 0)
(2.11075 -0.265668 0)
(2.13613 -0.265193 0)
(2 -2.90407e-07 0)
(2 -1.43102e-07 0)
(2.11782 -0.284139 0)
(2 2.41732e-09 0)
(1.83022 0.228729 0)
(2.13005 -0.254423 0)
(2 8.7643e-14 0)
(2 -3.61563e-11 0)
(1.83083 0.228843 0)
(2.12473 -0.275337 0)
(2 -1.24275e-13 0)
(1.83253 0.227923 0)
(2.1281 -0.26423 0)
(1.83161 0.228751 0)
(2 -1.86989e-13 0)
(2.11289 -0.290684 0)
(2.00093 -0.0015444 0)
(2 -6.48134e-14 0)
(2 2.96626e-06 0)
(2 -2.16499e-14 0)
(2.10205 -0.262153 0)
(2 -1.1467e-13 0)
(2 -1.78815e-07 0)
(2 -9.11341e-07 0)
(1.99999 1.28299e-05 0)
(1.99286 0.00545331 0)
(1.8944 0.152827 0)
(2 -2.39075e-11 0)
(2.08952 -0.2559 0)
(2 -1.64598e-11 0)
(2 1.46178e-06 0)
(2 -4.97711e-14 0)
(2 8.59829e-14 0)
(2 -9.97313e-14 0)
(2 -4.82677e-14 0)
(2 -1.33139e-12 0)
(1.82999 0.228747 0)
(2 2.56027e-13 0)
(1.82966 0.229433 0)
(2 -2.61384e-14 0)
(2 3.50383e-14 0)
(2 -2.23578e-14 0)
(2.12457 -0.255368 0)
(2 -4.81223e-17 0)
(1.83132 0.229065 0)
(2.10505 -0.2608 0)
(2 1.66087e-14 0)
(1.88205 0.164885 0)
(2 -6.9523e-14 0)
(2 -2.39952e-13 0)
(1.82934 0.229485 0)
(2 8.10249e-14 0)
(2 -8.34803e-09 0)
(2 1.58486e-13 0)
(1.83267 0.2273 0)
(2 4.55764e-10 0)
(2 5.86277e-14 0)
(1.83556 0.22604 0)
(1.8298 0.22871 0)
(2 2.72065e-14 0)
(1.96437 0.0555764 0)
(2 6.13286e-15 0)
(2 -1.20481e-15 0)
(2.08643 -0.263495 0)
(2 1.39134e-14 0)
(2 -1.29941e-13 0)
(2 1.05204e-13 0)
(2.09397 -0.262804 0)
(2 -1.37853e-13 0)
(2 -1.12088e-13 0)
(2 1.49215e-14 0)
(2 1.08835e-13 0)
(2.09206 -0.264313 0)
(2 -3.93771e-14 0)
(2 4.88933e-14 0)
(2 -1.78492e-13 0)
(2 -1.55334e-13 0)
(2 -9.36888e-14 0)
(2.13661 -0.254292 0)
(1.99998 3.75101e-05 0)
(1.83043 0.228538 0)
(2 6.17334e-14 0)
(2 -9.33131e-06 0)
(1.82975 0.228603 0)
(1.82884 0.228447 0)
(2 1.0569e-13 0)
(2 1.76025e-15 0)
(2.09849 -0.277888 0)
(2.06076 -0.127311 0)
(1.83057 0.228487 0)
(2 5.26856e-14 0)
(2 2.18989e-13 0)
(2 7.84505e-14 0)
(1.8315 0.228544 0)
(2.14318 -0.260635 0)
(2 4.18931e-14 0)
(1.83089 0.228759 0)
(2 1.12811e-13 0)
(2 4.7856e-15 0)
(2.09439 -0.21417 0)
(2.08592 -0.219981 0)
(2 -1.51743e-13 0)
(2.11679 -0.266131 0)
(2.12944 -0.255054 0)
(2 1.36725e-13 0)
(2 -5.35175e-14 0)
(2 -1.54997e-13 0)
(2 7.87784e-14 0)
(2 -9.96781e-11 0)
(2 -1.05691e-13 0)
(2 -7.26429e-14 0)
(1.82607 0.228074 0)
(1.95709 0.0608353 0)
(1.83987 0.223132 0)
(2.13114 -0.257519 0)
(2.03266 -0.0616273 0)
(1.83111 0.228593 0)
(2 -3.32513e-13 0)
(1.83045 0.22918 0)
(1.8304 0.228438 0)
(2.12048 -0.262332 0)
(2.06381 -0.16034 0)
(2 8.29099e-13 0)
(2.1279 -0.266421 0)
(2 -1.00501e-13 0)
(1.82284 0.235966 0)
(2 -2.4409e-13 0)
(2 -3.61993e-14 0)
(2 9.04153e-14 0)
(2 -1.89773e-14 0)
(1.8317 0.228936 0)
(2 1.31163e-13 0)
(2 -4.82869e-14 0)
(2 -3.83998e-14 0)
(2 1.48204e-09 0)
(2 1.47234e-13 0)
(2 5.38579e-14 0)
(2 -2.07759e-13 0)
(1.93712 0.0941584 0)
(1.83246 0.229301 0)
(2 -1.00499e-14 0)
(1.83134 0.229022 0)
(2 3.30806e-14 0)
(2 -3.81218e-14 0)
(2.11258 -0.262566 0)
(2 6.62977e-14 0)
(2 -1.03866e-13 0)
(2 -1.44349e-13 0)
(2 1.1351e-13 0)
(1.83157 0.229028 0)
(1.87017 0.184029 0)
(2 -3.22802e-15 0)
(2 1.34421e-14 0)
(2.11502 -0.265206 0)
(1.83195 0.229069 0)
(1.83165 0.229034 0)
(2 -6.91751e-14 0)
(1.83171 0.22905 0)
(1.83174 0.228946 0)
(1.83147 0.228962 0)
(2 -6.71455e-14 0)
(2.05923 -0.110731 0)
(2 -1.31124e-13 0)
(1.83188 0.228941 0)
(1.99972 -0.00923584 0)
(1.8314 0.228979 0)
(2 -1.22293e-14 0)
(2.13162 -0.266089 0)
(2.00041 -0.000621123 0)
(1.82906 0.228191 0)
(2 -1.10046e-13 0)
(2 1.06614e-13 0)
(2 -6.07451e-11 0)
(2 -2.37667e-11 0)
(2.11301 -0.258234 0)
(1.8322 0.228861 0)
(1.84771 0.211555 0)
(2 3.06988e-14 0)
(1.83279 0.227569 0)
(1.83149 0.228582 0)
(1.8302 0.228496 0)
(2 1.11933e-13 0)
(1.91931 0.117794 0)
(1.83109 0.229337 0)
(2 -1.53213e-13 0)
(2 1.55012e-13 0)
(1.88387 0.165967 0)
(1.97916 0.0405645 0)
(1.83154 0.229001 0)
(2.01952 -0.0494086 0)
(1.83151 0.228967 0)
(2 -2.60503e-15 0)
(1.83149 0.22891 0)
(1.83147 0.228941 0)
(1.83147 0.228935 0)
(1.832 0.229105 0)
(2 1.58934e-13 0)
(1.83335 0.230439 0)
(2.02647 -0.0512398 0)
(2.03859 -0.0782932 0)
(2 -7.09397e-15 0)
(2 -3.34949e-07 0)
(2 4.11662e-14 0)
(2 -2.66474e-13 0)
(1.82976 0.229304 0)
(2 1.60231e-14 0)
(2 3.80025e-14 0)
(2 -9.10333e-14 0)
(2 -7.79236e-16 0)
(2 -4.39115e-15 0)
(1.82962 0.228188 0)
(2 -2.11779e-15 0)
(2 -1.2553e-13 0)
(2.00129 -0.00252328 0)
(1.83173 0.229042 0)
(1.8483 0.222689 0)
(2 -3.07387e-13 0)
(1.86576 0.18362 0)
(1.99998 2.58956e-05 0)
(2 6.59679e-14 0)
(2 -2.12686e-13 0)
(1.83188 0.229131 0)
(2 1.26053e-14 0)
(2.0024 -0.00309061 0)
(1.99866 0.00436042 0)
(2 5.33921e-14 0)
(1.83162 0.228989 0)
(2 2.68478e-14 0)
(1.83228 0.229092 0)
(2 1.46544e-13 0)
(2 6.72108e-14 0)
(1.87596 0.176966 0)
(2 -3.8029e-14 0)
(1.83262 0.229041 0)
(1.99999 1.29028e-05 0)
(2 -3.00619e-13 0)
(1.8326 0.228204 0)
(2 -2.55349e-13 0)
(1.83169 0.229037 0)
(2 7.15811e-14 0)
(2 3.01151e-06 0)
(2 5.23228e-14 0)
(1.83157 0.228778 0)
(2 7.81294e-16 0)
(1.82944 0.232154 0)
(2 4.50869e-06 0)
(1.8316 0.228935 0)
(1.82958 0.228845 0)
(1.83177 0.228954 0)
(1.82663 0.227782 0)
(2 5.50791e-14 0)
(1.82976 0.228852 0)
(1.83465 0.226349 0)
(2 1.43657e-14 0)
(2.11135 -0.263631 0)
(1.84166 0.217467 0)
(1.87731 0.17308 0)
(2 1.50228e-13 0)
(1.83176 0.228877 0)
(2 2.60425e-14 0)
(2.0942 -0.266336 0)
(2.12342 -0.265217 0)
(2 6.61048e-14 0)
(2 -1.62547e-14 0)
(2 2.85426e-14 0)
(2 -1.93616e-13 0)
(2 1.50577e-09 0)
(2.10387 -0.266948 0)
(2 -6.0953e-14 0)
(1.83129 0.229061 0)
(1.95003 0.0724718 0)
(1.83195 0.229151 0)
(2 -8.33009e-14 0)
(2 8.14079e-11 0)
(2 -2.72818e-13 0)
(2 -2.8731e-13 0)
(2 -5.46576e-08 0)
(1.83143 0.228973 0)
(2 -5.56462e-14 0)
(1.83139 0.229704 0)
(1.89927 0.148488 0)
(2.07468 -0.156288 0)
(2 1.31284e-09 0)
(1.99999 7.74068e-06 0)
(1.94716 0.0818101 0)
(1.9591 0.0670757 0)
(2 5.5661e-14 0)
(2 -1.24193e-13 0)
(1.93901 0.0891137 0)
(2 -2.00619e-14 0)
(2.10683 -0.262661 0)
(1.83197 0.228993 0)
(1.83185 0.229035 0)
(2 -7.38991e-11 0)
(2 -8.62974e-14 0)
(2 1.71342e-13 0)
(1.82993 0.228911 0)
(2 -2.30064e-13 0)
(1.99999 1.59844e-05 0)
(1.83026 0.229298 0)
(1.83229 0.228997 0)
(2.01795 -0.0335061 0)
(2 -1.1067e-13 0)
(2 1.28811e-10 0)
(2.10707 -0.262714 0)
(1.84628 0.212201 0)
(2 6.14698e-14 0)
(2 4.72984e-14 0)
(2 3.15464e-14 0)
(2 -2.81928e-11 0)
(2 -6.54264e-14 0)
(1.83165 0.229035 0)
(1.82942 0.228686 0)
(2 6.28775e-15 0)
(1.83264 0.22808 0)
(1.82977 0.230779 0)
(1.83176 0.228905 0)
(2 -2.74178e-14 0)
(2 -1.35394e-13 0)
(2 -6.12524e-11 0)
(2 -2.19402e-13 0)
(2.12475 -0.255794 0)
(1.83066 0.228484 0)
(2 -4.44531e-11 0)
(2 -1.95232e-14 0)
(1.84641 0.212644 0)
(1.83192 0.228277 0)
(2 7.50348e-16 0)
(1.84192 0.217361 0)
(1.83246 0.229358 0)
(2 -1.98956e-13 0)
(2 -2.17352e-07 0)
(2 7.05715e-11 0)
(2 -1.05661e-13 0)
(2 -1.13136e-13 0)
(1.83171 0.229034 0)
(2 -3.12486e-14 0)
(2 -2.65365e-13 0)
(2 -1.06448e-13 0)
(2 -2.26947e-14 0)
(1.83132 0.228516 0)
(2 -2.6592e-14 0)
(1.82832 0.229546 0)
(2.12334 -0.262091 0)
(2 -6.64592e-14 0)
(2.12174 -0.261793 0)
(2 1.48667e-13 0)
(2 -1.08066e-07 0)
(2 1.54113e-13 0)
(2.00112 -0.00182456 0)
(2.1138 -0.265888 0)
(2.00032 -0.000535675 0)
(2 -1.14614e-14 0)
(2 4.75077e-14 0)
(2 -1.22092e-07 0)
(1.97623 0.0355656 0)
(2 -1.04974e-13 0)
(2 1.76732e-13 0)
(2.04405 -0.087679 0)
(2 -2.11201e-07 0)
(2 -6.34822e-14 0)
(2 -3.30909e-14 0)
(2 -2.15865e-07 0)
(2 2.93094e-07 0)
(2 -1.94834e-07 0)
(2 -1.17421e-13 0)
(2 -1.74011e-06 0)
(2.02138 -0.0502726 0)
(2 -5.20841e-07 0)
(2 -3.62907e-08 0)
(2.00089 -0.00136083 0)
(2 1.45092e-14 0)
(2.10912 -0.259994 0)
(2 -2.89114e-11 0)
(2 -4.67784e-12 0)
(2 -2.83037e-11 0)
(2 2.53061e-13 0)
(1.87318 0.180038 0)
(2 -1.19825e-13 0)
(2 -1.15306e-13 0)
(2 -9.35318e-14 0)
(2 -1.65497e-07 0)
(2.11268 -0.261331 0)
(2 3.08336e-14 0)
(2 1.07728e-09 0)
(1.84127 0.217627 0)
(1.82998 0.228606 0)
(2 -2.84718e-07 0)
(2 -1.21085e-13 0)
(2 -1.1737e-07 0)
(2.03783 -0.0788395 0)
(2 -1.8142e-13 0)
(2 4.3427e-10 0)
(2 -7.10563e-15 0)
(2 5.94504e-14 0)
(2 1.39011e-13 0)
(2 1.12883e-14 0)
(2.017 -0.0285426 0)
(1.98981 0.00907154 0)
(1.83208 0.228782 0)
(2 9.49259e-14 0)
(2 -2.39224e-13 0)
(2 4.49339e-14 0)
(1.82919 0.231235 0)
(2.02823 -0.0676675 0)
(2 -4.98162e-09 0)
(2 5.01842e-14 0)
(2 5.43524e-14 0)
(1.83052 0.229038 0)
(1.82898 0.227352 0)
(2 -3.09665e-08 0)
(2 5.0898e-06 0)
(2 3.51922e-09 0)
(2 1.01231e-13 0)
(2 1.36601e-09 0)
(2 2.8115e-14 0)
(2 -9.7528e-12 0)
(2 1.61783e-13 0)
(2 4.15701e-14 0)
(2.12882 -0.256374 0)
(2 7.77411e-14 0)
(2 -1.40989e-11 0)
(1.829 0.228846 0)
(2.13405 -0.264822 0)
(2 -1.47225e-13 0)
(1.82907 0.229007 0)
(2 6.37494e-11 0)
(2.10888 -0.265374 0)
(2 -8.4229e-14 0)
(2 -1.83814e-13 0)
(2.13016 -0.263209 0)
(2 2.06817e-14 0)
(2 -1.14424e-11 0)
(2 -4.56005e-12 0)
(2 -1.22329e-14 0)
(2 -1.32495e-12 0)
(2 -1.21957e-13 0)
(2 -1.40319e-14 0)
(1.83457 0.225349 0)
(1.83177 0.228404 0)
(2 3.24875e-13 0)
(2 7.50116e-14 0)
(2 3.81159e-14 0)
(2 4.07934e-13 0)
(1.84597 0.213153 0)
(2 1.70605e-13 0)
(1.94668 0.0747626 0)
(2.11842 -0.266985 0)
(2 -2.95341e-08 0)
(2 1.39452e-13 0)
(2 -7.85461e-14 0)
(2 -9.41558e-15 0)
(2 1.13444e-14 0)
(2 -1.24224e-14 0)
(2 -5.93894e-14 0)
(1.98824 0.0227759 0)
(2 -7.85285e-14 0)
(2 -7.59197e-14 0)
(1.90609 0.123862 0)
(2 -1.43958e-14 0)
(2 -7.02774e-14 0)
(2 -1.64154e-14 0)
(1.86055 0.195196 0)
(2 -2.45157e-13 0)
(2 -1.39297e-13 0)
(2 -4.48286e-13 0)
(2 -3.73763e-13 0)
(2.11906 -0.263673 0)
(2 1.98991e-12 0)
(2 -2.34946e-13 0)
(2.13254 -0.270296 0)
(2.1213 -0.264786 0)
(2 1.85407e-14 0)
(2 9.09629e-14 0)
(1.83154 0.228658 0)
(2 2.34056e-13 0)
(1.99515 -0.0448009 0)
(2 9.79467e-14 0)
(2 1.08892e-14 0)
(2 -1.48448e-14 0)
(1.88315 0.166653 0)
(2.11406 -0.264734 0)
(2 -1.07262e-13 0)
(2.11732 -0.274772 0)
(2 -7.10683e-14 0)
(2.07191 -0.158635 0)
(2 -2.24314e-13 0)
(2 8.20912e-14 0)
(2 1.23032e-13 0)
(1.8302 0.228246 0)
(2 -4.09452e-08 0)
(2 -1.11536e-13 0)
(1.83185 0.229039 0)
(2 -1.58319e-13 0)
(2 -2.69849e-11 0)
(2 1.67565e-09 0)
(1.83203 0.228924 0)
(2 2.23301e-10 0)
(2 -1.61925e-13 0)
(1.83212 0.229452 0)
(2 -6.13835e-14 0)
(2 6.27849e-14 0)
(2.12178 -0.264962 0)
(2 -1.75596e-11 0)
(1.94773 0.0759831 0)
(2 -6.1509e-14 0)
(2 -5.32679e-14 0)
(1.8301 0.228873 0)
(1.8313 0.228448 0)
(1.8879 0.16142 0)
(1.8493 0.209773 0)
(2 1.33081e-13 0)
(2.12613 -0.264689 0)
(2 2.52781e-15 0)
(2 -3.87144e-14 0)
(1.83886 0.220076 0)
(2 9.66426e-15 0)
(2.10436 -0.269894 0)
(2 1.23469e-13 0)
(2 1.24932e-13 0)
(2 -8.73397e-14 0)
(1.83087 0.229356 0)
(2 8.84431e-15 0)
(2 8.09877e-14 0)
(2 -3.39972e-14 0)
(2 -3.83983e-14 0)
(1.89787 0.14939 0)
(2 6.03148e-14 0)
(1.84987 0.213994 0)
(1.83074 0.229106 0)
(2.13073 -0.266161 0)
(2 -3.11166e-13 0)
(2 -1.38723e-13 0)
(2.12583 -0.267239 0)
(2.11101 -0.264145 0)
(2 5.65035e-14 0)
(2 -1.01919e-13 0)
(2 -5.79338e-12 0)
(1.88155 0.169245 0)
(1.87275 0.181934 0)
(2 -3.10417e-14 0)
(2 1.97256e-13 0)
(2 -5.22846e-14 0)
(2 4.14577e-14 0)
(2 1.26328e-13 0)
(2 -1.52368e-13 0)
(2 1.82041e-14 0)
(1.92511 0.111988 0)
(1.8274 0.22823 0)
(1.99536 0.00602297 0)
(2 -1.67233e-13 0)
(1.83379 0.226901 0)
(2.14183 -0.262575 0)
(2 5.71155e-14 0)
(2 2.56044e-14 0)
(2 1.41586e-13 0)
(1.90841 0.136283 0)
(2 6.22084e-14 0)
(1.96748 0.0558384 0)
(2 2.2591e-14 0)
(1.8453 0.2127 0)
(1.83228 0.228248 0)
(2 -6.67138e-14 0)
(2.13372 -0.264305 0)
(2 -9.10199e-14 0)
(1.83022 0.228635 0)
(2 8.95001e-14 0)
(2 -6.90386e-14 0)
(1.83128 0.228767 0)
(1.84172 0.217478 0)
(2 1.31913e-15 0)
(1.82671 0.22798 0)
(2 -1.46041e-13 0)
(2.09184 -0.268529 0)
(2 -9.52054e-15 0)
(2 -1.56387e-13 0)
(2 -6.34126e-14 0)
(1.83429 0.228148 0)
(1.83516 0.22515 0)
(1.85111 0.206608 0)
(2 1.33973e-14 0)
(1.83041 0.227001 0)
(1.83138 0.228576 0)
(2 5.42228e-14 0)
(1.83048 0.22927 0)
(2 -9.11213e-09 0)
(1.83255 0.228079 0)
(2 -1.19223e-13 0)
(2.11909 -0.268673 0)
(2.00897 -0.0254166 0)
(2.12539 -0.265394 0)
(2 -3.47911e-11 0)
(2 -2.41871e-11 0)
(2 -3.52362e-11 0)
(2 -1.82685e-13 0)
(2 -1.41309e-11 0)
(1.83245 0.229266 0)
(2 -2.71998e-15 0)
(1.83229 0.229058 0)
(2 -4.35872e-11 0)
(2 -1.02794e-10 0)
(2 -8.07644e-14 0)
(1.84038 0.219393 0)
(2 -3.99644e-14 0)
(2.10623 -0.263477 0)
(1.83168 0.228972 0)
(2 3.15761e-14 0)
(2.11913 -0.265843 0)
(2.10133 -0.248504 0)
(2.10717 -0.267107 0)
(2 -6.47268e-14 0)
(1.91769 0.123098 0)
(1.98639 0.021147 0)
(1.83129 0.229638 0)
(1.83132 0.22863 0)
(2 1.0779e-13 0)
(2 -3.37315e-07 0)
(2 -1.17587e-07 0)
(2 -1.90922e-13 0)
(1.83133 0.228737 0)
(2 5.62572e-14 0)
(2 -8.67034e-14 0)
(1.8314 0.228801 0)
(1.8314 0.228586 0)
(2 -2.78881e-13 0)
(1.94129 0.0861265 0)
(1.99972 0.000799452 0)
(2 1.409e-14 0)
(2.0012 -0.0020526 0)
(1.83197 0.22909 0)
(2.0494 -0.10819 0)
(2 -1.13299e-07 0)
(2.05951 -0.114245 0)
(2.1029 -0.261438 0)
(2.11079 -0.266568 0)
(2.0017 -0.0364059 0)
(1.82964 0.228931 0)
(1.83404 0.226599 0)
(1.96341 0.0538531 0)
(1.83138 0.229137 0)
(1.83154 0.228762 0)
(2 2.35563e-14 0)
(2 -1.43849e-14 0)
(1.82608 0.228194 0)
(1.82973 0.229114 0)
(1.83141 0.228755 0)
(1.82985 0.22642 0)
(2 -1.49959e-13 0)
(1.83157 0.229031 0)
(2.09874 -0.260235 0)
(1.82939 0.230198 0)
(1.83141 0.228212 0)
(1.82842 0.229064 0)
(1.83196 0.228617 0)
(2.04616 -0.0951565 0)
(2.03502 -0.0687716 0)
(2.0232 -0.0461826 0)
(1.83207 0.229439 0)
(2.01208 -0.0286584 0)
(1.83098 0.228991 0)
(2 7.51596e-14 0)
(2 1.35844e-13 0)
(1.83114 0.229761 0)
(1.83098 0.228721 0)
(2 -1.58601e-13 0)
(2.13224 -0.266634 0)
(1.8304 0.22797 0)
(1.83197 0.228857 0)
(2 -9.85581e-15 0)
(1.83238 0.228387 0)
(1.83224 0.228519 0)
(2 -9.8886e-15 0)
(1.83153 0.228832 0)
(2.11916 -0.266872 0)
(1.83052 0.229869 0)
(1.82567 0.227883 0)
(1.82931 0.228894 0)
(1.83044 0.2283 0)
(2 -1.08864e-13 0)
(2 -2.3621e-13 0)
(2 -1.04779e-07 0)
(1.83209 0.229009 0)
(1.89169 0.158572 0)
(2.09853 -0.251185 0)
(1.83212 0.228842 0)
(2.1329 -0.27197 0)
(1.83206 0.22902 0)
(2 3.38096e-14 0)
(2 1.3348e-13 0)
(2 -2.02493e-13 0)
(2 -2.07771e-14 0)
(1.83024 0.230002 0)
(1.83174 0.229046 0)
(2 6.48668e-14 0)
(2 -4.80397e-14 0)
(1.83112 0.228991 0)
(2.13437 -0.262573 0)
(1.83134 0.229882 0)
(2.10248 -0.262396 0)
(2 1.61306e-14 0)
(1.83329 0.227882 0)
(2 1.07128e-13 0)
(2.14323 -0.265256 0)
(1.831 0.230151 0)
(2.09067 -0.182915 0)
(2 -2.15604e-13 0)
(1.83153 0.228661 0)
(1.83096 0.230353 0)
(1.83134 0.229294 0)
(2 -1.81567e-13 0)
(2 1.83937e-13 0)
(1.9173 0.120825 0)
(1.83094 0.23015 0)
(2.11454 -0.265622 0)
(1.83175 0.228942 0)
(2 3.39789e-15 0)
(1.83209 0.228438 0)
(2.04172 -0.0816404 0)
(1.83133 0.229725 0)
(2.12617 -0.257608 0)
(2 -1.07623e-13 0)
(1.83183 0.228913 0)
(2.09387 -0.240985 0)
(1.83125 0.229835 0)
(2.11147 -0.264656 0)
(2 -2.40667e-14 0)
(1.83101 0.229409 0)
(2 -3.26801e-14 0)
(1.8323 0.229167 0)
(2 -2.06719e-13 0)
(1.90058 0.146736 0)
(1.83775 0.221532 0)
(1.86678 0.188346 0)
(2.10994 -0.274278 0)
(2 -7.58751e-14 0)
(1.83101 0.228704 0)
(2 -1.23249e-13 0)
(1.83198 0.228915 0)
(2 -1.19662e-07 0)
(1.83193 0.229105 0)
(2 -2.27811e-07 0)
(2 -3.43193e-13 0)
(1.83091 0.228423 0)
(2.00377 -0.0149555 0)
(1.83041 0.229834 0)
(2.12324 -0.262979 0)
(1.84305 0.231339 0)
(2 -1.03945e-13 0)
(1.87897 0.172958 0)
(2 -1.23671e-13 0)
(1.83086 0.228188 0)
(1.83203 0.229029 0)
(1.8309 0.228295 0)
(2 -6.59288e-14 0)
(1.84772 0.210317 0)
(1.83131 0.229167 0)
(1.84425 0.215006 0)
(1.89445 0.15393 0)
(1.83745 0.226739 0)
(2 -5.73771e-14 0)
(1.88812 0.163239 0)
(2 -1.76631e-13 0)
(1.8309 0.229111 0)
(2 -3.81171e-13 0)
(1.97563 0.0316042 0)
(2 5.23894e-14 0)
(1.84288 0.215669 0)
(2 2.02868e-13 0)
(1.83198 0.228589 0)
(1.83941 0.219896 0)
(1.83997 0.219549 0)
(2 1.60946e-14 0)
(1.83885 0.223834 0)
(2.11762 -0.267689 0)
(2 -8.79215e-14 0)
(2.12159 -0.261447 0)
(2 -1.77588e-13 0)
(2 -2.42095e-14 0)
(2 4.49411e-14 0)
(1.83069 0.22865 0)
(2 9.80277e-14 0)
(1.83185 0.229224 0)
(2 4.82256e-14 0)
(2 8.31995e-14 0)
(2 9.9783e-14 0)
(1.83061 0.229231 0)
(1.84462 0.220867 0)
(1.85802 0.205596 0)
(1.83055 0.230142 0)
(1.83011 0.230214 0)
(2.12003 -0.265625 0)
(1.8312 0.228816 0)
(1.83429 0.229156 0)
(2 6.7606e-14 0)
(1.86261 0.193586 0)
(1.83178 0.228872 0)
(1.83033 0.221632 0)
(2 -1.93216e-13 0)
(1.8302 0.228688 0)
(1.83005 0.228689 0)
(2 -1.36784e-13 0)
(1.82896 0.231463 0)
(1.83061 0.228366 0)
(1.83103 0.229191 0)
(1.83059 0.229945 0)
(2 -1.13278e-14 0)
(2 1.04404e-13 0)
(2 5.06405e-14 0)
(1.83208 0.228919 0)
(2.10219 -0.270653 0)
(2 1.94979e-13 0)
(1.83145 0.228987 0)
(2 1.0897e-13 0)
(2 -3.87562e-14 0)
(2.11984 -0.264717 0)
(2 -1.51366e-13 0)
(2 7.54583e-14 0)
(1.83151 0.229078 0)
(1.83172 0.229121 0)
(2 -2.56472e-13 0)
(1.83189 0.228896 0)
(1.83051 0.229482 0)
(1.83109 0.228905 0)
(2.00623 -0.0232233 0)
(1.83127 0.228779 0)
(2 -1.56475e-14 0)
(1.8313 0.228809 0)
(1.83153 0.228948 0)
(1.85856 0.20196 0)
(2 5.86344e-14 0)
(2 -1.69532e-13 0)
(2 -2.79759e-14 0)
(1.83012 0.229568 0)
(1.83142 0.228819 0)
(1.83171 0.228858 0)
(2.01978 -0.0348327 0)
(2 3.57122e-14 0)
(1.82808 0.231113 0)
(1.83141 0.228812 0)
(1.83087 0.228735 0)
(2 1.24015e-13 0)
(1.83151 0.228855 0)
(1.83117 0.229373 0)
(1.83117 0.22892 0)
(1.82698 0.231498 0)
(2 -6.19407e-14 0)
(1.83192 0.22854 0)
(1.83126 0.229572 0)
(1.85225 0.202251 0)
(1.832 0.228856 0)
(1.82767 0.230561 0)
(2 -7.98589e-14 0)
(1.82993 0.232348 0)
(1.83334 0.226869 0)
(1.83163 0.228819 0)
(1.82903 0.230154 0)
(1.83209 0.228712 0)
(2.10364 -0.267416 0)
(1.83133 0.228746 0)
(1.83164 0.229354 0)
(2 -9.82113e-14 0)
(1.8315 0.229023 0)
(1.8315 0.228843 0)
(1.8316 0.228851 0)
(1.83222 0.228833 0)
(2 -5.69549e-08 0)
(1.8315 0.229013 0)
(1.83143 0.229083 0)
(2 -1.68487e-07 0)
(1.8321 0.229079 0)
(1.85856 0.197611 0)
(2 4.51285e-14 0)
(2 1.42023e-14 0)
(2 1.53761e-09 0)
(1.83124 0.229864 0)
(1.83103 0.229326 0)
(2 1.71279e-14 0)
(2 -4.96267e-14 0)
(1.90938 0.132203 0)
(2 -3.52645e-13 0)
(1.83148 0.229161 0)
(2 8.76138e-14 0)
(2 -1.35517e-14 0)
(1.83167 0.228866 0)
(1.83074 0.229658 0)
(1.83168 0.228847 0)
(1.83142 0.228639 0)
(2 1.21703e-14 0)
(2 4.33208e-14 0)
(2 1.15924e-13 0)
(1.88332 0.167924 0)
(2 7.20712e-14 0)
(1.83195 0.228797 0)
(2 -2.11861e-13 0)
(2 -1.38524e-13 0)
(1.82941 0.228167 0)
(1.82562 0.227959 0)
(2 1.81919e-14 0)
(1.83171 0.22896 0)
(2.10999 -0.280747 0)
(1.83154 0.228709 0)
(1.83179 0.228525 0)
(2.10406 -0.207226 0)
(2 5.91458e-14 0)
(2.10352 -0.276999 0)
(1.85141 0.203303 0)
(1.83261 0.229434 0)
(1.83244 0.228016 0)
(1.83239 0.228344 0)
(2.13271 -0.262862 0)
(1.83118 0.229042 0)
(1.83127 0.229465 0)
(2.13009 -0.26642 0)
(2.1324 -0.273727 0)
(2 -2.55997e-07 0)
(1.83185 0.22788 0)
(1.83196 0.228603 0)
(2 7.98185e-14 0)
(2 3.35983e-14 0)
(1.83153 0.228905 0)
(2 -2.70425e-13 0)
(1.83212 0.227965 0)
(2 2.29206e-06 0)
(1.8532 0.203944 0)
(2 1.22901e-15 0)
(1.92196 0.122108 0)
(1.83187 0.228831 0)
(1.83103 0.230348 0)
(1.88116 0.170688 0)
(1.84436 0.221851 0)
(1.83334 0.229419 0)
(1.83068 0.229212 0)
(1.83269 0.226224 0)
(2 -1.64449e-13 0)
(2.13923 -0.259549 0)
(1.83068 0.227587 0)
(1.83196 0.229051 0)
(1.82943 0.231173 0)
(2 7.11437e-06 0)
(2 4.46814e-10 0)
(2 1.47413e-09 0)
(1.82974 0.230123 0)
(2 -1.26803e-13 0)
(1.83183 0.229193 0)
(1.83193 0.229016 0)
(2.07326 -0.17804 0)
(2 -3.71188e-14 0)
(1.83179 0.228969 0)
(2.00002 -4.62827e-05 0)
(2 -1.17795e-13 0)
(1.99999 1.94401e-05 0)
(1.99998 2.87043e-05 0)
(1.83199 0.229033 0)
(1.83157 0.229381 0)
(2.00052 -0.000887738 0)
(2 1.32719e-14 0)
(2 1.82435e-14 0)
(1.83197 0.229069 0)
(1.83073 0.229845 0)
(1.83165 0.229119 0)
(1.83113 0.229617 0)
(1.83119 0.228752 0)
(2.09194 -0.259924 0)
(1.8484 0.213137 0)
(2 1.15626e-13 0)
(1.83303 0.227658 0)
(1.83167 0.228887 0)
(1.83182 0.228933 0)
(1.83367 0.232003 0)
(2 -8.43653e-14 0)
(1.83184 0.22891 0)
(1.83667 0.223891 0)
(1.83091 0.229571 0)
(2 -3.38094e-13 0)
(1.83075 0.229805 0)
(1.83007 0.228428 0)
(2.04511 -0.0948873 0)
(1.83179 0.229017 0)
(1.83052 0.229775 0)
(2 -3.0609e-14 0)
(1.83123 0.229085 0)
(2.05439 -0.105939 0)
(1.83088 0.228714 0)
(2.0428 -0.100725 0)
(1.83163 0.228991 0)
(2 -1.02983e-07 0)
(1.83143 0.228936 0)
(1.82318 0.233881 0)
(1.83205 0.228993 0)
(1.83181 0.229072 0)
(1.83143 0.228892 0)
(1.82881 0.227881 0)
(1.83143 0.22925 0)
(1.82887 0.228159 0)
(2 9.47452e-14 0)
(2.0152 -0.0503458 0)
(1.83088 0.22871 0)
(1.83191 0.229115 0)
(2.0588 -0.106777 0)
(1.83147 0.228925 0)
(2.0062 -0.0173399 0)
(1.89714 0.154681 0)
(1.83116 0.228725 0)
(1.83011 0.228775 0)
(1.83032 0.230306 0)
(2 4.98399e-14 0)
(1.83039 0.229873 0)
(1.89154 0.154907 0)
(1.83059 0.22989 0)
(2.02486 -0.0461504 0)
(1.83049 0.229803 0)
(1.82689 0.232701 0)
(2 5.26847e-14 0)
(2.05206 -0.0880879 0)
(2 -3.82323e-09 0)
(1.83084 0.234137 0)
(2 6.80841e-14 0)
(1.88545 0.165221 0)
(2 3.9809e-09 0)
(1.84614 0.210514 0)
(2.05126 -0.0891442 0)
(2 4.51031e-14 0)
(1.83057 0.230385 0)
(1.82819 0.230481 0)
(2 1.41411e-13 0)
(1.83085 0.230159 0)
(1.83129 0.229767 0)
(1.83187 0.232357 0)
(1.83038 0.235128 0)
(1.82818 0.232124 0)
(2 -1.93699e-13 0)
(1.82932 0.228168 0)
(2 -5.24771e-14 0)
(2 -4.55027e-14 0)
(2 -1.83033e-14 0)
(2.03793 -0.0608475 0)
(1.83205 0.229096 0)
(1.83109 0.228692 0)
(1.83101 0.228644 0)
(1.83173 0.228969 0)
(1.8351 0.226487 0)
(1.82913 0.228098 0)
(1.83617 0.227405 0)
(1.83189 0.229256 0)
(2.0244 -0.0639947 0)
(1.98645 0.0234405 0)
(2 3.46865e-09 0)
(2 -6.48321e-14 0)
(1.82448 0.233559 0)
(1.83186 0.229065 0)
(1.8314 0.229361 0)
(1.83161 0.228867 0)
(1.99999 1.6618e-05 0)
(1.91551 0.121651 0)
(2 -1.6784e-07 0)
(1.82941 0.231482 0)
(1.8577 0.200571 0)
(2 -2.71685e-12 0)
(2 -6.03797e-11 0)
(2.10237 -0.187596 0)
(1.83154 0.228965 0)
(2 8.98888e-14 0)
(2 7.69718e-14 0)
(2.10981 -0.261156 0)
(1.83154 0.228815 0)
(2 -4.34313e-14 0)
(1.83165 0.228832 0)
(1.83179 0.228997 0)
(1.83394 0.229181 0)
(1.83793 0.221302 0)
(1.83162 0.228888 0)
(2 -6.09712e-11 0)
(2.10509 -0.275051 0)
(1.95494 0.0663795 0)
(1.83087 0.228572 0)
(1.83147 0.228853 0)
(2 -5.05298e-14 0)
(1.8315 0.228985 0)
(1.83131 0.229012 0)
(1.91849 0.127166 0)
(1.99977 0.00504221 0)
(1.96511 0.0572197 0)
(2 -1.34626e-13 0)
(1.83215 0.229507 0)
(1.83156 0.229135 0)
(2 -1.18848e-07 0)
(2 -1.88032e-10 0)
(2.10956 -0.264042 0)
(2 -2.41304e-10 0)
(2 -1.1909e-13 0)
(1.83193 0.228944 0)
(1.83169 0.228989 0)
(1.83211 0.227989 0)
(1.83163 0.229049 0)
(1.8312 0.228796 0)
(1.82669 0.231115 0)
(1.83133 0.229145 0)
(1.83074 0.229295 0)
(1.83145 0.228976 0)
(2 2.06666e-14 0)
(2.00144 -0.00267437 0)
(1.83101 0.228827 0)
(1.8321 0.228988 0)
(2.0012 -0.00170076 0)
(1.83138 0.228963 0)
(1.83141 0.228956 0)
(2.10431 -0.272545 0)
(2.13 -0.258808 0)
(1.8304 0.230316 0)
(1.83171 0.228804 0)
(2 -1.5909e-14 0)
(2 2.83057e-14 0)
(1.99949 0.00197603 0)
(1.83154 0.228828 0)
(1.83234 0.228042 0)
(1.83163 0.228726 0)
(2 1.05998e-09 0)
(1.83152 0.229043 0)
(2 -4.83744e-14 0)
(2.05613 -0.0963069 0)
(1.82918 0.231646 0)
(1.83483 0.232272 0)
(2 1.76825e-15 0)
(1.9208 0.113599 0)
(1.83183 0.229433 0)
(2 8.03392e-14 0)
(1.82838 0.228771 0)
(2 -1.02838e-10 0)
(1.83205 0.228702 0)
(1.88597 0.16636 0)
(1.83173 0.228854 0)
(2 1.20184e-11 0)
(1.83141 0.229561 0)
(1.83105 0.230399 0)
(2.11249 -0.272053 0)
(1.83148 0.22896 0)
(2 -1.39847e-07 0)
(1.82969 0.229993 0)
(1.82704 0.227905 0)
(2 7.29364e-09 0)
(2.09897 -0.267938 0)
(1.82986 0.230467 0)
(1.86225 0.193693 0)
(2.00074 -0.000931683 0)
(1.84142 0.225684 0)
(1.83145 0.228874 0)
(2 -4.98046e-12 0)
(1.9989 -0.00566515 0)
(1.83012 0.230026 0)
(2.00166 -0.00202592 0)
(1.83172 0.228968 0)
(2 -3.43473e-12 0)
(2 -2.7091e-14 0)
(1.83023 0.229771 0)
(2 4.52817e-14 0)
(1.82978 0.229743 0)
(1.83113 0.228928 0)
(2.0014 -0.00215992 0)
(1.85972 0.192193 0)
(2 2.87621e-09 0)
(1.83128 0.228914 0)
(2 1.35158e-09 0)
(2 -6.80051e-13 0)
(2 9.95746e-12 0)
(2 7.02686e-12 0)
(1.83183 0.228788 0)
(2 7.09515e-09 0)
(2 -6.61531e-14 0)
(1.8333 0.233724 0)
(2 1.3146e-14 0)
(1.8313 0.229158 0)
(2 3.22141e-10 0)
(1.89218 0.157115 0)
(1.83223 0.227377 0)
(1.83141 0.228998 0)
(2 1.0971e-09 0)
(2 -2.59361e-13 0)