/*--------------------------------*- C++ -*----------------------------------*\
  =========                 |
  \\      /  F ield         | OpenFOAM: The Open Source CFD Toolbox
   \\    /   O peration     | Website:  https://openfoam.org
    \\  /    A nd           | Version:  12
     \\/     M anipulation  |
\*---------------------------------------------------------------------------*/
FoamFile
{
    format      ascii;
    class       volScalarField;
    location    "1.35";
    object      rho;
}
// * * * * * * * * * * * * * * * * * * * * * * * * * * * * * * * * * * * * * //

dimensions      [1 -3 0 0 0 0 0];

internalField   nonuniform List<scalar> 
183995
(
1.57964
1.24218
1.40001
1.27108
1.40001
1.45749
1.55671
1.45214
1.4304
1.45692
1.28966
1.52702
1.29352
1.45623
1.40001
1.40001
1.40001
1.35389
1.40001
1.40001
1.52316
1.54987
1.5763
1.46238
1.40001
1.36457
1.40001
1.30766
1.40001
1.46188
1.37117
1.46148
1.29924
1.40001
1.29919
1.52581
1.40001
1.40001
1.40001
1.40001
1.90855
1.45921
1.40001
1.43368
1.40001
1.45889
1.23698
1.10014
1.37499
1.45875
1.45845
1.52956
1.43111
1.40001
1.46272
1.54795
1.38818
1.29725
1.28264
1.30128
1.40001
1.23549
1.42169
1.34383
1.36335
1.57198
1.40001
1.5735
1.40001
1.40001
1.44649
1.30487
1.29941
1.40001
1.36051
1.56897
1.40001
1.39068
1.48273
1.29499
1.299
1.40001
1.50655
1.52784
1.45703
1.40001
1.40001
1.10636
1.59947
1.40001
1.30253
1.30711
1.42772
1.40001
1.40001
1.40001
1.54605
1.45581
1.27808
1.23982
1.54546
1.52171
1.24378
1.40001
1.87224
1.46436
1.54332
1.23806
1.44465
1.40001
1.40001
1.44321
1.40001
1.78848
1.52625
1.39997
1.40001
1.28147
1.0788
1.44543
1.52046
1.50469
1.35435
1.30353
1.30684
1.62679
1.40001
1.73902
1.40001
1.45369
1.3704
1.40001
1.40001
1.39286
1.40001
1.35974
1.51995
1.40001
1.56576
1.40001
1.27741
1.30991
1.31164
1.32103
1.32118
1.51449
1.51858
1.40001
1.65499
1.40001
1.40001
1.31743
1.3172
1.4752
1.50341
1.24579
1.51398
1.40001
1.19244
1.40001
1.40001
1.40001
1.40001
1.64439
1.40034
1.40001
1.40001
1.40001
1.29349
1.29441
1.36425
1.43833
1.24158
1.32418
1.21602
1.32572
1.40001
1.4918
1.45051
1.40001
1.42863
1.06509
1.40001
1.40001
1.45243
1.40337
1.23784
1.40001
1.40001
1.4812
1.48385
1.40001
1.40001
1.40001
1.49424
1.24495
1.40001
1.40001
1.39331
1.40001
1.40616
1.49704
1.40001
1.45425
1.36223
1.33183
1.52026
1.33306
1.45371
1.35027
1.23959
1.24483
1.40001
1.40001
1.40001
1.24546
1.40001
1.37147
1.40001
1.36292
1.60716
1.461
1.3326
1.33039
1.40001
1.40001
1.40001
1.43288
1.36737
1.40001
1.51928
1.40001
1.40001
1.44973
1.35034
1.40001
1.37179
1.30505
1.5672
1.4
1.08102
1.2922
1.40001
1.40001
1.40001
1.40001
1.39105
1.36277
1.40001
1.4
1.44042
1.33616
1.40001
1.33826
1.40047
1.31111
1.46406
1.30906
1.37008
1.4432
1.4356
1.45014
1.2517
1.40001
1.34144
1.40001
1.62422
1.34179
1.3776
1.40001
1.40001
1.40001
1.39988
1.40001
1.44466
1.30415
1.35584
1.30496
1.45315
1.40001
1.37798
1.40001
1.34541
1.40001
1.43086
1.40001
1.40001
1.68758
1.44174
1.34596
1.40001
1.40674
1.40001
1.40001
1.40001
1.40975
1.36565
1.40001
1.40001
1.44957
1.60835
1.40001
1.44971
1.40001
1.4
1.43102
1.35086
1.37699
1.40001
1.40001
1.36111
1.40001
1.36373
0.927885
1.43898
1.40001
1.40001
1.31076
1.40001
1.35043
1.31252
1.35531
1.40001
1.40001
1.47928
1.40001
1.40001
1.38717
1.40001
1.01731
1.40001
1.5814
1.40858
1.40001
1.40001
1.40323
1.35055
1.35241
1.44424
1.40001
1.40001
1.36119
1.40001
1.44427
1.40001
1.40001
1.34733
1.40001
1.37077
1.40001
1.4472
1.34676
1.40001
1.43509
1.40001
1.40191
1.47974
1.21548
1.47945
1.29822
1.30066
1.29809
1.43149
1.40967
1.37798
1.43537
1.40001
1.44567
1.37773
1.23278
1.40001
1.37614
1.40001
1.40001
1.42078
1.40001
1.40001
1.36268
1.36449
1.57633
1.57022
1.30919
1.4376
1.48444
1.40001
1.31251
1.40001
1.31471
1.40001
1.40001
1.40001
1.38838
1.40001
1.40001
1.02832
1.40001
1.40539
1.43038
1.21759
1.40001
1.40001
1.40001
1.40001
1.22093
1.43509
1.34249
1.28411
1.40001
1.43529
1.63308
1.64095
1.34281
1.37545
1.40001
1.54213
1.38734
1.36248
1.40001
1.40001
1.40001
1.21718
1.54784
1.54397
1.40667
1.37667
1.36941
1.39999
1.40001
1.40001
1.40001
1.1399
1.40001
1.47386
1.42715
1.44779
1.47354
1.31764
1.504
1.31782
1.38035
1.40001
1.40001
1.40001
1.40001
1.23499
1.40001
1.42477
1.63559
1.23868
1.52249
1.24179
1.40001
1.40001
1.34852
1.43842
1.40001
1.36357
1.40001
1.35403
1.33646
1.42784
1.46475
1.31879
1.40001
1.28073
1.35591
1.31817
1.37817
1.3361
1.42528
1.52773
1.52476
1.40001
1.41017
1.36251
1.42766
1.40001
1.5007
1.40001
1.31751
1.32022
1.43667
1.22575
1.34441
1.45302
1.56617
1.44933
1.16
1.4
1.4
1.32279
1.32236
1.22036
1.50774
1.35374
1.24361
1.40001
1.40001
1.5218
1.51891
1.40001
1.37885
1.4
1.39998
1.40918
1.40001
1.40001
1.40001
1.4111
1.40001
1.40001
1.34408
1.40001
1.38806
1.40001
1.35007
1.37738
1.40001
1.40001
1.40001
1.3699
1.40001
1.43389
1.45464
1.53385
1.32567
1.40001
1.43449
1.32502
1.60606
1.40001
1.45483
1.40001
1.40001
1.432
0.92375
1.40001
1.22107
1.45367
1.4213
1.40001
1.24506
1.40001
1.40001
1.40001
1.40001
1.42044
1.61786
1.45965
1.40001
1.40001
1.40001
1.303
1.40001
1.40001
1.40001
1.41276
1.30614
1.38164
1.23393
1.44201
1.44352
1.37071
1.40001
1.22392
1.46368
1.40001
1.40001
1.40001
1.40001
1.40001
1.37059
1.5046
1.50117
1.46648
1.38484
1.40001
1.23594
1.363
1.44359
1.63879
1.45538
1.40001
1.40001
1.24427
1.38906
1.40001
1.40001
1.54243
1.3603
1.32215
1.45536
1.32365
1.47317
1.47918
1.40001
1.40001
1.42023
1.40001
1.40001
1.40001
1.40001
1.41746
1.40001
1.22887
1.24392
1.3658
1.36156
1.42968
1.35603
1.37138
1.48405
1.48387
1.41688
1.399
1.49624
1.4741
1.37436
1.41676
1.40001
1.40001
1.40001
1.40001
1.40001
1.40001
1.46605
1.41675
1.40001
1.42806
1.29004
1.41642
1.40038
1.40001
1.39016
1.4206
1.36286
1.43893
1.27894
1.38854
1.40565
1.40001
1.43034
1.43831
1.29569
1.44871
1.40001
1.40001
1.41499
1.48761
1.48755
1.40001
1.64169
1.40001
1.40001
1.40001
1.48457
1.40001
1.50177
1.41422
1.51342
1.39781
1.23892
1.41347
1.40001
1.32656
1.41375
1.40001
1.32771
1.40001
1.48804
1.48819
1.46805
1.40001
1.43979
1.28908
1.40001
1.40001
1.40001
1.33996
1.40001
1.40001
1.4883
1.48838
1.3681
1.36893
1.44727
1.2218
1.40001
1.45845
1.47363
1.36352
1.36997
1.33865
1.458
1.40001
1.27602
1.38408
1.46301
1.22227
1.41982
1.35913
1.27373
1.40102
1.40001
1.42887
1.44272
1.40001
1.40001
1.40671
1.35114
1.51907
1.57219
1.41062
1.46267
1.31081
1.45662
1.48651
1.38743
1.40627
1.31432
1.35865
1.47629
1.40001
1.40001
1.50055
1.48741
1.48743
1.37683
1.54746
1.43059
1.40001
1.34997
1.40001
1.43655
1.43527
1.37832
1.44193
1.33062
1.33097
1.40001
1.40001
1.48619
1.48621
1.40726
1.06418
1.49937
1.28303
1.40001
1.07742
1.37
1.40001
1.42659
1.40001
1.40001
1.40001
1.40001
1.47389
1.5455
1.40001
1.48522
1.48506
1.40001
1.41215
1.40001
1.40001
1.40001
1.40001
1.43907
1.40185
1.37175
1.34988
1.40001
1.37757
1.4386
1.40001
1.44236
1.68975
1.40213
1.37434
1.60137
1.40001
1.48391
1.48379
1.40001
1.43161
1.43053
1.05608
1.3856
1.28488
1.40001
1.40497
1.40001
1.40001
1.40001
1.40001
1.27275
1.44493
1.45152
1.48276
1.4827
1.47992
1.37126
1.40001
1.39424
1.40001
1.40001
1.45067
1.36208
1.42577
1.40001
1.43971
1.44515
1.40001
1.40001
1.35006
1.40099
1.40001
1.76887
1.48155
1.41057
1.59983
1.40001
1.3999
1.3387
1.50644
1.33617
1.52469
1.48173
1.64869
1.35104
1.36297
1.40001
1.45179
1.40001
1.39272
1.40344
1.40001
1.40001
1.52
1.39118
1.40001
1.39254
1.40001
1.31737
1.40001
1.28573
1.42215
1.40001
1.4021
1.31322
1.37693
1.40525
1.40256
1.57152
1.31793
1.40001
1.40001
1.40001
1.23838
1.33736
1.48036
1.40001
1.47823
1.47817
1.48043
1.24786
1.71988
1.37418
1.31359
1.40001
1.33683
1.13503
1.39236
1.35426
1.40001
1.24398
1.39071
1.37621
1.50454
1.40001
1.47648
1.41397
1.47673
1.43058
1.40001
1.377
1.41856
1.32839
1.43963
1.40001
1.40001
1.39284
1.39545
1.46656
1.40001
1.40001
1.22582
1.38168
1.40001
1.38705
1.32951
1.40001
1.4367
1.71822
1.40001
1.40001
1.44187
1.42084
1.42109
1.40001
1.31996
1.40001
1.49226
1.40001
1.38681
1.40001
1.40001
1.02991
1.40001
1.35137
1.40001
1.40001
1.40001
1.41689
1.33141
1.40001
1.3844
1.37463
1.40001
1.40001
1.37497
1.40001
1.40001
1.31944
1.43196
1.40001
1.37632
1.22768
1.47488
1.42574
1.40001
1.47529
1.21149
1.39207
1.39583
1.40001
1.33226
1.39363
1.42909
1.51121
1.49412
1.38789
1.40001
1.40001
1.40001
1.32973
1.40001
1.40001
1.40001
1.42724
1.40001
1.40001
1.40001
1.40001
1.36083
1.3252
1.40001
1.41595
1.451
1.40862
1.28929
1.3824
1.38479
1.28346
1.40001
1.41245
1.40001
1.39553
1.39386
1.47412
1.35772
1.3788
1.36784
1.32484
1.42994
1.21798
1.40001
1.44097
1.44839
1.2181
1.40001
1.41696
1.42429
1.40149
1.42447
1.70339
1.2427
1.40001
1.40001
1.40001
1.39291
1.39737
1.5244
1.44268
1.53745
1.39269
1.40001
1.40001
1.40001
1.40001
1.37853
1.45532
1.36868
1.43562
1.4382
1.40001
1.40001
1.46347
1.39049
1.40001
1.40001
1.42804
1.29543
1.41512
1.44036
1.37706
1.41049
1.4581
1.51005
1.28213
1.40001
1.40001
1.42066
1.37322
1.40001
1.40001
1.15439
1.42954
1.26497
1.27041
1.41078
1.41003
1.40001
1.4718
1.40001
1.43542
1.35698
1.40001
1.47199
1.37136
1.46327
1.45658
1.41979
1.41565
1.40001
1.37147
1.39895
1.37118
1.40585
1.40001
1.40001
1.34789
1.34905
1.40001
1.40001
1.40001
1.45309
1.42349
1.3849
1.40001
1.40001
1.49062
1.40481
1.44256
1.40001
1.36968
1.40001
1.35879
1.36887
1.37338
1.25339
1.41648
1.24506
1.38473
1.37897
1.3887
1.40001
1.40001
1.3827
1.40253
1.43059
1.39338
1.05399
1.40001
1.42083
1.37364
1.43409
1.27995
1.41369
1.44677
1.25625
1.40001
1.44705
1.39555
1.44657
1.40001
1.65131
1.40001
1.40001
1.38894
1.40001
1.40001
1.42214
1.46738
1.38492
1.37077
1.40001
1.40001
1.24404
1.42863
1.40124
1.27272
1.37323
1.37237
1.37484
1.43688
1.46769
1.40001
1.40001
1.45114
1.51199
1.37225
1.40001
1.40001
1.38147
1.27985
1.24887
1.36381
1.38204
1.35076
1.40001
1.40001
1.3517
1.38058
1.40001
1.40001
1.36525
1.40001
1.3859
1.40001
1.40001
1.39535
1.40432
1.46041
1.04269
1.40001
1.4811
1.40001
1.44931
1.44821
1.39757
1.40001
1.40001
1.3804
1.36547
1.44727
1.46693
1.45914
1.40001
1.4743
1.40001
1.37314
1.39906
1.39853
1.40001
1.40714
1.41396
1.43467
1.66094
1.40001
1.39689
1.36205
1.47322
1.3934
0.964071
1.40001
1.40001
1.38877
1.36193
1.21494
1.40001
1.40001
1.20509
1.38834
1.36055
1.40001
1.41001
1.44784
1.3576
1.44619
1.38993
1.40001
1.35799
1.30193
1.41172
1.50409
1.40001
1.39261
1.40001
1.28162
1.59134
1.38332
1.43649
1.3628
1.40133
1.44236
1.44346
1.4523
1.47284
1.36305
1.34802
1.33842
1.24204
1.41089
1.23012
1.39741
1.39112
1.39623
1.38175
1.40001
1.40001
1.39984
1.26069
1.32379
1.30844
1.37785
1.23375
1.40001
1.24549
1.27984
1.59377
1.40548
1.2769
2.119
1.40001
1.23247
1.38778
1.54603
1.39748
1.40001
1.40001
1.27501
1.26
1.46055
1.54588
1.40001
1.23099
1.2761
1.25553
1.40001
1.40001
1.42743
1.24797
1.29675
1.40001
1.40466
1.40061
1.53253
1.427
1.25162
1.13035
1.39809
1.38613
1.31702
1.38514
1.4393
1.43849
1.24257
1.41338
1.40001
1.40001
1.41277
1.3167
1.27754
1.38817
0.990474
1.2707
1.25984
1.40001
1.26007
1.23608
1.40001
1.35911
1.40001
1.40001
1.31195
1.40001
1.38484
1.38652
1.4206
1.39149
1.40001
1.3813
1.39136
1.40001
1.40306
1.39168
1.39656
1.22537
1.40001
1.41187
1.36062
1.27772
1.27292
1.28186
1.37249
1.29335
1.40001
1.40001
1.44024
1.44571
1.39581
1.4545
1.34536
1.40001
1.40001
1.40001
1.30607
1.40001
1.37953
1.23885
1.39832
1.4632
1.27441
1.40001
1.40001
1.27205
0.958779
1.28249
1.2675
1.42472
1.40001
1.40001
1.39225
1.37081
1.40001
1.40001
1.42331
1.40001
1.24871
1.04091
1.47332
1.40001
1.32449
1.40001
1.31818
1.28651
1.25626
1.40001
1.40001
1.28413
1.47351
1.91223
1.40001
1.32845
1.38289
1.3859
1.40001
1.40001
1.26594
1.23825
1.40001
1.42042
1.40001
1.3868
1.40001
1.27326
1.40001
1.44505
1.40001
1.28285
1.40001
1.38994
1.39967
1.30951
1.41765
1.46604
1.6136
1.32337
1.34721
2.09451
1.52691
1.32383
1.43105
1.42979
1.32395
1.28187
1.26339
1.3976
1.40001
1.33232
1.40001
1.40001
1.27485
1.4328
1.42932
2.10548
1.41013
1.39579
1.43115
1.23263
1.36372
1.42369
1.26753
1.4349
1.28087
1.38072
1.28475
1.40001
1.40001
1.40001
1.40001
1.4
1.30544
1.41321
1.27619
1.26877
1.3663
1.25567
1.38473
1.58976
1.36176
1.36666
1.36413
1.26865
1.24144
1.42638
1.08786
1.42892
1.40001
1.23085
1.17421
1.40001
1.47182
1.36746
1.3746
1.39064
1.39161
1.37884
1.40115
1.40001
1.05794
1.33587
1.33397
1.32703
1.39999
1.14061
1.53157
1.26381
1.26414
1.2695
1.29923
1.26992
1.40001
1.27469
1.294
1.31701
1.31391
1.39742
1.42543
1.40001
1.27359
1.27814
1.39178
1.36126
1.44307
1.44339
1.61842
1.65236
1.26605
1.62238
1.40001
1.44299
1.26174
1.45746
1.40039
1.44783
1.6015
1.6563
1.45652
1.4
1.40001
1.4696
1.41233
1.47435
1.40001
1.42867
1.81583
1.4362
1.31208
1.48049
1.30988
1.29665
1.29841
1.5261
1.52301
1.42893
1.37152
1.29853
1.4804
1.40001
1.40001
1.41334
1.42478
1.40001
1.40001
1.81395
1.26881
1.24298
1.5498
1.40001
1.40001
1.27065
1.40001
1.32395
1.40001
1.38483
1.36495
1.73167
1.11289
1.48008
1.38164
1.28028
1.81597
1.71323
1.40001
1.35947
1.40001
1.44275
1.40001
1.40001
1.4
1.54262
1.61726
1.35777
1.40001
1.40001
1.32229
1.57852
1.35246
1.32892
1.4411
1.09036
1.66583
1.22534
1.40063
1.45506
1.4036
1.44889
1.34682
1.46109
1.40001
1.27808
1.40001
1.3915
1.6502
1.81545
1.554
1.27172
1.47447
1.44241
1.07514
1.40001
1.40001
1.51423
1.40001
1.44728
1.4039
1.44385
1.25033
1.39168
1.45852
1.26026
1.43571
1.44308
1.25429
1.40001
1.23408
1.47253
1.47329
1.25114
1.40001
1.33392
1.42463
1.65458
1.40001
1.72701
1.27498
1.40001
1.40001
1.40001
1.71628
1.40001
1.32337
1.68097
1.40001
1.40001
1.66779
1.41862
1.42025
1.4384
1.19361
1.56656
1.27794
1.40001
1.27736
1.42698
1.39336
1.3318
1.249
1.3401
1.40001
1.41421
1.23755
1.40001
1.08625
1.36596
1.40001
1.22821
1.40001
1.40001
1.23832
1.40753
1.40001
1.41742
1.35835
1.41883
0.934787
1.40001
1.39195
1.40001
1.09356
1.11809
1.42997
1.41136
1.40001
1.43013
1.2239
1.71118
1.38855
1.40001
1.369
1.44004
1.44449
1.37384
1.41862
1.40001
1.40001
1.40001
1.40001
1.3922
1.27615
1.28145
1.40001
1.41771
1.40001
1.40001
1.40001
1.41735
1.41538
1.40001
1.41497
1.41715
1.39803
1.3845
1.64936
1.4161
1.40001
1.40001
1.42484
1.40001
1.40001
1.38285
1.66395
1.42027
1.23766
1.70012
1.25216
1.49919
1.37414
1.3202
1.47068
1.4
1.38485
1.33529
1.26258
1.25699
1.23269
1.29514
1.40001
1.40001
1.53979
1.22206
1.30628
1.30566
1.40001
1.34578
1.34702
1.76964
1.37164
1.26765
1.40317
1.42288
1.40001
1.45167
1.70676
1.40001
1.07004
1.30009
1.33562
1.21107
1.43763
1.41643
1.40001
1.32025
1.22095
1.40001
1.26676
1.25712
1.27376
1.40844
1.30881
1.47516
1.40001
1.38603
1.39816
1.40001
1.5313
1.40001
1.62212
0.998791
1.23078
1.4446
1.36379
1.35276
1.40001
1.30083
1.39087
1.37304
1.36056
1.30146
1.51862
1.32415
1.29573
1.51224
1.28
1.29673
1.29856
1.27128
1.37738
1.27166
1.06074
1.25404
1.27617
1.21321
1.32412
1.30447
1.40001
1.38206
1.40001
1.3825
1.13304
1.21784
1.40333
1.40359
1.40001
1.40001
1.40001
1.32372
1.40001
1.40001
1.40001
1.40001
1.43158
1.34319
1.77989
1.40001
1.46817
1.40001
1.50271
1.30859
1.31951
1.25962
1.11385
1.54564
1.55915
1.64834
1.38596
1.38861
1.38018
1.23134
1.40001
1.37604
2.05639
1.26514
1.38931
1.40001
1.43024
1.11285
1.35741
1.36577
1.31622
1.57601
1.32256
1.33244
1.39699
1.32924
1.4826
1.07503
1.2431
1.26665
1.44663
1.40001
1.30331
1.30416
1.38872
1.36568
1.36893
1.44153
1.32669
1.33799
1.281
1.49216
1.36636
1.40001
1.11811
1.28921
1.40001
1.32368
1.40001
1.40001
1.40001
1.40001
1.51326
1.47455
1.47358
1.34071
1.46385
1.54162
1.36295
1.40001
1.44143
1.40001
1.40001
1.26382
1.37693
1.42014
1.40104
1.416
1.37324
1.3785
1.37547
1.40001
1.37747
1.40001
1.40001
1.35188
1.40001
1.39166
1.39214
1.40001
1.48106
1.40001
1.40001
1.4
1.47436
1.43047
1.46226
1.41058
1.40887
1.40001
1.40233
1.38416
1.27076
1.40001
1.36402
1.40001
1.40001
1.40001
1.40001
1.35891
1.28139
1.38227
1.47609
1.24306
1.45479
1.40123
1.40001
1.39455
1.46998
1.40001
1.40001
1.40001
1.40001
1.19562
1.40001
1.27523
1.40001
1.2575
1.40001
1.38806
1.44711
1.3755
1.21434
1.40001
1.40001
1.40001
1.40001
1.40001
1.40001
1.40001
1.40001
1.45098
1.44873
1.40001
1.47516
1.47212
1.31079
1.40001
1.40001
1.47075
1.44176
1.33604
1.40001
1.34666
1.4159
1.43257
1.40001
1.28076
1.40001
1.32753
1.40001
1.40001
1.40001
1.40001
1.31755
1.40001
1.41452
1.40001
1.43406
1.34915
1.43048
1.74198
2.1995
1.40001
1.26383
1.6653
1.2708
1.58267
1.2498
1.24587
1.32666
1.40001
1.31233
1.40001
1.46246
1.3617
1.27794
1.31081
1.40572
1.40534
1.35423
1.58876
1.40001
1.35096
1.58048
1.35752
1.40001
1.43265
1.4599
1.40001
1.26143
1.2575
1.26769
1.40001
1.3597
1.40001
1.40001
1.25314
1.40001
1.40001
1.42415
1.33504
1.4474
1.37881
1.40001
1.26254
1.40001
1.40001
1.4043
1.4055
1.19479
1.30087
1.30693
1.23776
1.171
1.4091
1.22353
1.33302
1.33411
1.42068
1.37552
1.15586
1.1565
1.34894
1.34957
1.19739
1.56528
1.23372
1.16858
1.40001
1.40001
1.40001
1.40001
1.40001
1.40001
1.40001
1.40001
1.41636
1.30579
1.40001
1.40001
1.29438
1.357
1.13962
1.85262
1.41952
1.24552
1.35646
1.27559
1.4323
1.24926
1.5472
1.23578
1.25077
1.76125
1.24837
1.90699
1.35764
1.39654
1.41337
1.41754
1.27121
1.44866
1.40774
1.69731
1.40815
1.40589
1.4035
1.40261
1.398
1.27387
1.27317
1.38476
1.38512
1.88789
1.25139
1.50668
1.7408
1.40001
1.27257
1.34167
1.30822
1.39779
1.39856
1.47353
1.47394
1.47375
1.47424
1.4725
1.47249
1.47176
1.40405
1.35371
1.47277
1.40463
1.47097
1.4729
1.47215
1.46962
1.47094
1.36272
1.46851
1.35342
1.46969
1.46776
1.46909
1.33422
1.46595
1.46806
1.28615
1.46439
1.46624
1.46323
1.46469
1.25384
1.46116
1.46373
1.45962
1.46162
1.45795
1.45978
1.27583
1.45841
1.4556
1.48768
1.45605
1.45406
1.40811
1.3179
1.33916
1.45442
1.37798
1.40001
1.45223
1.27614
1.45254
1.38395
1.26477
1.44959
1.44994
1.28549
1.44702
1.30801
1.44737
1.34447
1.4443
1.26757
1.40001
1.40001
1.44465
1.70269
1.62558
1.40001
1.26675
1.26537
1.44159
1.42255
1.44197
1.42275
1.32192
1.24306
1.36319
1.43871
1.40001
1.4188
1.41131
1.43914
1.34383
1.54927
1.58032
1.22188
1.43587
1.43643
1.43423
1.2821
1.4342
1.28119
1.62658
1.4319
1.43245
1.40001
1.40001
1.42906
1.09436
1.24522
1.49289
1.4295
1.40001
1.40001
1.4264
1.43675
1.42664
1.43698
1.39526
1.40001
1.09905
1.51656
1.38697
1.3289
1.42641
1.46912
1.68999
1.45305
1.60686
1.40001
1.40001
1.45323
1.44068
1.3974
1.59563
1.4011
1.23793
1.27285
1.46856
1.28571
1.46875
1.28485
1.4078
1.40001
1.53399
1.3167
1.35907
1.43718
1.42254
1.47567
1.30777
1.40384
1.47595
1.3983
1.27403
1.4
1.33258
1.29185
1.28234
1.28206
1.40147
1.3754
1.43638
1.31339
1.37985
1.40001
1.23254
1.29831
1.35225
1.28107
1.75833
1.22891
1.23178
1.34507
1.40001
1.25245
1.17849
1.36
1.2968
1.35596
1.26786
1.77025
1.28699
1.44985
1.40001
1.27353
1.35317
1.44131
1.26626
1.23086
1.49806
1.51727
1.49784
1.29194
1.31961
1.31203
1.31917
1.31994
1.27552
1.40001
1.28562
1.33003
1.26726
1.46559
1.38908
1.38853
1.40001
1.32104
1.40001
1.50483
1.3591
1.50454
1.28426
1.40001
1.47248
1.28688
1.43394
1.39702
1.40185
1.34533
1.34009
1.22285
1.22946
1.22558
1.33778
1.28288
1.2656
1.2458
1.22304
1.25074
1.27235
1.33926
0.976442
1.27486
1.27806
1.29313
1.55426
1.25601
1.22288
1.2337
1.27328
1.2568
1.54804
1.22493
1.28561
1.40374
1.3444
1.34399
1.27046
1.3312
1.31559
1.34714
1.2328
1.2952
1.46198
1.51914
1.41204
1.31042
1.34893
1.09311
1.34755
1.34902
1.37164
1.60232
1.44643
1.26807
1.43422
1.4932
1.33444
1.51868
1.32403
1.40001
1.49291
1.39514
1.39729
1.27295
1.39594
1.18814
1.35086
1.23393
1.35077
1.23121
1.27326
1.76712
1.47321
1.34588
1.50096
1.27037
1.40189
1.3559
1.40207
1.40001
1.27802
1.26397
1.40001
1.25558
1.31952
1.45361
1.32499
1.23495
1.40199
1.32323
1.60286
1.36541
1.44327
1.28682
1.35418
1.23395
1.40001
1.44832
1.34993
1.2295
1.3537
1.25313
1.477
1.34658
1.40373
1.23671
1.36337
1.44249
1.27863
1.36273
1.44264
1.299
1.40562
1.58903
1.35048
1.44224
1.44162
1.27252
1.5321
1.34885
1.2734
1.2577
1.25091
1.4059
1.35515
1.23348
1.40001
1.26889
1.40428
1.25547
1.24204
1.36913
1.2272
1.19061
1.51605
1.28682
1.36616
1.43557
1.3347
1.3632
1.28806
1.40158
1.40016
1.40001
1.36674
1.27322
1.40403
1.43553
1.71725
1.40001
1.44124
1.40001
1.34581
1.36559
1.28853
1.24803
1.12209
1.40001
1.40001
1.40858
1.24066
1.40001
1.41278
0.968628
1.40001
1.39999
1.4
1.40001
1.35848
1.4157
1.4024
1.40313
1.41989
1.50331
1.56763
1.2523
1.5029
1.40001
1.51997
1.39666
1.39722
1.46795
1.4747
1.51933
1.30147
1.2503
1.45528
1.30613
1.28051
1.51137
1.23812
1.40001
1.32127
1.14551
1.23984
1.4
1.45186
1.64078
1.40001
1.36854
1.38232
1.41626
1.49141
1.48085
1.311
1.35604
1.45881
1.40983
1.56953
1.39999
1.06806
1.40316
1.68185
1.61943
1.27111
1.2858
1.35266
1.35415
1.2203
1.40001
1.4405
1.48
1.80726
1.62404
1.27353
1.69834
1.29938
1.34997
1.2672
1.27304
1.30495
1.4615
1.40001
1.42838
1.40001
1.32491
1.33183
1.29076
1.40005
1.27901
1.30825
1.40385
1.4
1.35046
1.3846
1.29381
1.25497
1.4076
1.46228
1.40333
1.27578
1.40001
1.7229
1.36855
1.41906
1.27115
1.36714
1.40001
1.31929
1.27599
1.40001
1.26472
1.28285
1.40001
1.33265
1.30119
1.27801
1.32971
1.41074
1.41136
1.29911
1.40001
1.40001
1.41673
1.34251
1.46765
1.45311
1.26705
1.24791
1.45322
1.47724
1.40001
1.32213
1.40001
1.29048
1.32531
1.32673
1.4
1.49342
1.15395
1.32062
1.19113
1.27539
1.33199
1.32925
1.4012
1.32724
1.24463
1.33346
1.40249
1.33259
1.33861
1.34176
1.33379
1.40001
1.33572
1.48831
1.41826
1.34631
1.44522
1.33866
1.44586
1.34864
1.40001
1.45221
1.34836
1.44151
1.34882
1.45257
0.97836
1.44334
1.35481
1.44405
1.43753
1.43753
1.52126
1.35503
1.38582
1.43025
1.31337
1.47986
1.44257
1.35904
1.34464
1.4307
1.43609
1.43573
1.36249
1.36963
1.3637
1.57384
1.37878
1.49405
1.42824
1.44393
1.36905
1.40001
1.2173
1.35769
1.36931
1.40001
1.29766
1.43522
1.42933
1.37523
1.4428
1.442
1.37606
1.38017
1.43156
1.70472
1.3837
1.34926
1.38651
1.38451
1.23865
1.3384
1.30172
1.39277
1.39364
1.43568
1.40001
1.43588
1.41518
1.39769
1.39905
1.41741
1.54364
1.29457
1.36951
1.21141
1.40318
1.40508
1.40906
1.30623
1.3492
1.50688
1.40001
1.28073
1.26736
1.29084
1.4116
1.33833
1.28687
1.41658
1.45883
1.41964
1.33111
1.40001
1.42467
1.44287
1.25251
1.4214
1.42443
1.40207
1.46973
1.35562
1.42968
1.44182
1.41708
1.26913
1.57943
1.33285
1.40001
1.40001
1.33665
1.43369
1.40001
1.45741
1.32313
1.30949
1.27787
1.43558
1.4388
1.40001
1.40001
1.44357
1.35263
1.35439
1.36459
1.40001
1.41859
1.36252
1.40001
1.36279
1.41759
1.41702
1.40001
1.43577
1.31647
1.44811
1.40642
1.48602
1.38445
1.33615
1.45144
1.45469
1.39253
1.39321
1.40001
1.40001
1.40001
1.40001
1.45887
1.37753
1.31662
1.25811
1.35255
1.33169
1.25141
1.46276
1.26768
1.36881
1.36066
1.34951
1.58086
1.40001
1.34107
1.30409
1.11237
1.38422
1.41645
1.30516
1.73169
1.46787
1.46956
1.75549
1.62558
1.24279
1.40001
1.27984
1.41245
1.49002
1.21575
1.40001
1.35274
1.41631
0.977687
1.29458
1.40001
1.41854
1.41849
1.41764
1.40001
1.47518
1.47663
1.4
1.44248
1.49659
1.47195
1.40001
1.58747
1.59321
1.48252
1.2779
1.36761
1.38459
1.40001
1.40001
1.40001
1.77327
1.44015
1.41888
1.41932
1.18951
1.35404
1.40001
1.4863
1.40466
1.40616
1.413
1.41757
1.27927
1.48223
1.40235
1.41773
1.58384
1.41372
1.40001
1.08525
1.40001
1.23495
1.49162
1.40314
1.33472
1.28402
1.36879
1.40001
1.28812
1.40001
1.4024
1.63591
1.41497
1.40001
1.49696
1.50841
1.2255
1.76301
1.43631
1.49897
1.28166
1.2956
1.24395
1.58159
1.8234
1.33629
1.4294
1.34752
1.50381
1.28357
1.41883
1.30719
1.32477
1.36238
1.41875
1.50596
1.2897
1.42407
1.42633
1.41768
1.41606
1.2731
1.32117
1.28618
1.28657
1.295
1.40014
1.40066
1.5096
1.42051
1.26985
1.51872
1.41935
1.412
1.40051
1.29437
1.40001
1.51386
1.40001
1.29633
1.39681
1.38091
1.40001
1.34494
1.28275
1.3011
1.39923
1.51243
1.2841
1.51716
1.41656
1.40409
1.40001
1.40001
1.78486
1.39641
1.49361
1.29843
1.25161
1.35264
1.25589
1.30262
1.39124
1.50036
1.40001
1.51918
1.6841
1.24212
1.35784
1.40001
1.40001
1.36501
1.30608
1.33247
1.30708
1.51907
1.36742
1.40001
1.67997
1.39916
1.40001
1.39274
1.27463
1.37821
1.32576
1.31063
1.40259
1.27928
1.27266
1.40001
1.26878
1.36049
1.28553
1.28002
1.40221
1.55429
1.52213
1.2889
1.21128
1.55233
1.27583
1.6591
1.33147
1.35394
1.16201
1.40269
1.30522
1.3139
1.40342
1.40001
1.40082
1.40323
1.27271
1.27823
1.34449
1.52566
1.34795
1.27933
1.4
1.28115
1.18884
1.21397
1.21166
1.34626
1.40845
1.40001
1.40422
1.5262
0.972556
1.25136
1.26711
1.41931
1.35843
1.36221
1.40001
1.52709
1.28963
1.24145
1.40001
1.40001
1.25206
1.3584
1.40001
1.42361
1.40001
1.40426
1.36746
1.40001
1.36473
1.4
1.69423
1.39999
1.46485
1.52699
1.40027
1.2399
1.36622
1.40001
1.29627
1.31977
1.48734
1.40001
1.40805
1.2993
1.31482
1.41007
1.36697
1.2734
1.45888
1.41162
1.52787
1.29238
1.28825
1.28883
1.29234
1.36413
1.40001
1.28653
1.42022
1.28805
1.36049
1.81651
1.5279
1.40388
1.36318
1.77531
1.30603
1.27551
2.18523
1.70119
1.27803
1.40001
1.40001
1.29778
1.2875
1.28989
1.40001
1.31857
1.24332
1.31961
1.29186
1.29072
1.37618
1.40001
1.37654
1.55567
1.52631
1.36755
1.40001
1.3101
1.28228
1.38239
1.28611
1.48465
1.40001
1.31469
1.75485
1.40368
1.28531
1.28403
1.32252
1.40001
1.40001
1.32494
1.29412
1.40996
1.4064
1.40784
1.4024
1.40001
1.39357
1.31993
1.52448
1.4092
1.40426
1.49865
1.32666
1.40001
1.40001
1.41497
1.31157
1.40001
1.327
1.31135
1.28429
1.40001
1.33218
1.40001
1.33079
1.3637
1.34788
1.3075
1.30699
1.26792
1.40001
1.40001
1.34404
1.52241
1.40046
1.40001
1.38788
1.33812
1.40001
1.41289
1.37695
1.27619
1.65904
1.45021
1.28191
1.27072
1.26462
1.40001
1.29896
1.34715
1.29582
1.49665
1.40001
1.29959
1.41652
1.35392
1.46992
1.34883
1.41588
1.35325
1.45007
1.27612
1.3235
1.52073
1.32322
1.60667
1.32361
1.35916
1.43827
1.23216
1.32125
1.47326
1.74478
1.35993
1.25341
1.31225
1.32931
1.40359
1.30143
1.40001
1.2505
1.40001
1.40001
1.4638
1.36348
1.3276
1.33024
1.32963
1.29943
1.37177
1.36744
1.33231
1.51856
1.30069
1.36214
1.40001
1.36793
1.27836
1.3135
1.40001
1.23502
1.37482
1.40001
1.33434
1.40001
1.37346
1.30391
1.34534
1.28055
1.40001
1.38115
1.4177
1.38038
1.30501
1.51512
1.40001
1.40305
1.30637
1.3467
1.40596
1.40001
1.47379
1.47362
1.35055
1.39172
1.35377
1.73301
1.66618
1.47652
1.40001
1.44533
1.35689
1.39217
1.35795
1.51171
1.40001
1.40001
1.40001
1.36347
1.40001
1.25141
1.33561
1.36399
1.40001
1.40001
1.22853
1.33988
1.36894
1.40001
1.50805
1.37073
1.40698
1.45673
1.54983
1.40001
1.37347
1.36564
1.50471
1.41083
1.40001
1.3091
1.34078
1.40001
1.32929
1.40001
1.37881
1.41542
1.40968
1.37832
1.50151
1.40001
1.49258
1.40965
1.41761
1.11882
1.27306
1.13577
1.38569
1.35032
1.34956
1.49711
1.45454
1.38793
1.49099
1.40549
1.30534
1.30624
1.39519
1.39222
1.47196
1.27697
1.29958
1.3559
1.3553
1.42936
1.39951
1.25101
1.44663
1.40079
1.35205
1.37711
1.40536
1.43106
1.41846
1.33953
1.40001
1.40001
1.40168
1.27415
1.40266
1.40488
1.32283
1.30927
1.40001
1.42115
1.40998
1.44304
1.28132
1.39822
1.41234
1.37874
1.40001
1.44642
1.63806
1.41643
1.35591
1.40364
1.30525
1.43516
1.40001
1.39598
1.21154
1.37378
1.42636
1.37307
1.37279
1.53155
1.45711
1.36822
1.31304
1.42907
1.52312
1.40001
1.36746
1.31451
1.40001
1.52218
1.46126
1.45975
1.462
1.3552
1.44907
1.31364
1.35449
1.40001
1.40001
1.40001
1.28127
1.40001
1.37726
1.44059
1.3349
1.40351
1.44385
1.31739
1.46418
1.4094
1.32265
1.40001
1.32233
1.53301
1.40001
1.39004
1.38968
1.46381
1.09704
1.44219
1.45538
1.3471
1.4
1.48138
1.40001
1.46022
1.09519
1.47069
1.36101
1.34357
1.48485
1.40001
1.40291
1.46185
1.40001
1.32493
1.34593
1.40001
1.40192
1.40219
1.39945
1.35119
1.49105
1.35498
1.34045
1.26146
1.35839
1.26386
1.37469
1.35879
1.50232
1.47789
1.35871
1.10599
1.4
1.36708
1.27013
1.33996
1.17967
1.31094
1.59801
1.40001
1.48346
1.18111
1.29097
1.20502
1.13512
1.4415
1.34485
1.3781
1.49225
1.48836
1.44618
1.40001
1.42081
1.27069
1.4212
1.2514
1.36368
1.36164
1.40038
1.48398
1.40001
1.2676
1.27283
1.2818
1.20677
1.40116
1.33435
1.32282
1.40001
1.53432
1.53938
1.50879
1.50017
1.32607
1.39071
1.28678
1.32723
1.358
1.40145
1.33741
1.42929
1.42953
1.40001
1.34086
1.28757
1.6336
1.51361
1.42558
1.41247
1.40399
1.34197
1.4046
1.40164
1.28539
1.30276
1.28143
1.23896
1.42557
1.25743
1.50748
1.40001
1.44204
1.44234
1.33542
1.27562
1.60079
1.51143
1.52889
1.47409
1.42183
1.39787
1.268
1.39657
1.39977
1.34603
1.34595
1.34165
1.40192
1.40434
1.40734
1.34525
1.41441
1.40001
1.27299
1.44337
1.44621
1.27098
1.44888
1.44058
1.45351
1.45373
1.4378
1.45151
1.51517
1.44377
1.44656
1.44098
1.44919
1.43808
1.45185
1.4312
1.4242
1.31835
1.42845
1.43471
1.40001
1.42461
1.45724
1.43127
1.40001
1.39897
1.42855
1.27418
1.4575
1.29272
1.40001
1.27607
1.46523
1.43339
1.27798
1.40383
1.46235
1.40001
1.38137
1.35893
1.35841
1.52265
1.36816
1.46273
1.36351
1.33566
1.44508
1.37124
1.35897
1.34987
1.36663
1.46596
1.40001
1.46599
1.34266
1.46689
1.40001
1.46745
1.52561
1.49559
1.35426
1.27051
1.23254
1.39757
1.34638
1.40208
1.36198
1.47068
1.35951
1.34287
1.35376
1.35978
1.45798
1.47104
1.33044
1.52098
1.52646
1.40102
1.3839
1.34481
1.40001
1.47186
1.47222
1.48135
1.48141
1.3445
1.40366
1.5231
1.41212
1.42282
1.52748
1.40001
1.47333
1.40001
1.29315
1.25044
1.40001
1.37994
1.40001
1.47144
1.52586
1.26854
1.29274
1.40001
1.20092
1.52906
1.40309
1.3396
1.47432
1.38057
1.47399
1.32976
1.90946
1.34504
1.40001
1.40001
1.48089
1.27623
1.52828
1.41066
1.09728
1.09908
1.31766
1.40001
1.40001
1.47209
1.46935
1.36359
1.52819
1.40001
1.4689
1.47234
1.36238
1.40001
1.40001
1.25681
1.33885
1.32948
1.89195
1.4187
1.49392
1.34293
1.49381
1.52824
1.41987
1.40202
1.48349
1.52668
1.71726
1.4172
1.36207
1.52774
1.12156
1.40304
1.35219
1.12444
1.13103
1.52545
1.42658
1.32196
1.32447
1.52788
1.29689
1.3388
1.65302
1.32654
1.28237
1.30676
1.5232
1.40001
1.20657
1.40001
1.31005
1.48089
1.3426
1.52661
1.40001
1.12918
1.48572
1.34461
1.48415
1.4893
1.48773
1.72832
1.51151
1.38541
1.49072
1.4916
1.48171
1.40001
1.31209
1.48807
1.40001
1.4866
1.4849
1.51122
1.50028
1.49307
1.48957
1.47921
1.2807
1.49104
1.40001
1.52967
1.49228
1.49213
1.41169
1.47999
1.20643
1.49277
1.47332
1.49317
1.33117
1.49365
1.52446
1.47568
1.47653
1.55101
1.17808
1.65952
1.40001
1.49394
1.36387
1.30678
1.46597
1.47369
1.71569
1.40821
1.49322
1.47067
1.51616
1.49349
1.24222
1.49238
1.47121
1.49221
1.49116
1.41041
1.49077
1.46777
1.51301
1.46852
1.3619
1.46552
1.48962
1.48921
1.35507
1.48607
1.41556
1.48586
1.50929
1.29516
1.35451
1.34542
1.42797
1.46628
1.49857
1.4916
1.51814
1.48931
1.40661
1.39997
1.40001