/*--------------------------------*- C++ -*----------------------------------*\
  =========                 |
  \\      /  F ield         | OpenFOAM: The Open Source CFD Toolbox
   \\    /   O peration     | Website:  https://openfoam.org
    \\  /    A nd           | Version:  12
     \\/     M anipulation  |
\*---------------------------------------------------------------------------*/
FoamFile
{
    format      ascii;
    class       volScalarField;
    location    "7.5";
    object      rho;
}
// * * * * * * * * * * * * * * * * * * * * * * * * * * * * * * * * * * * * * //

dimensions      [1 -3 0 0 0 0 0];

internalField   nonuniform List<scalar> 
22702
(
1.40001
1.40001
1.27638
1.40001
1.45362
1.40001
1.83851
1.40001
1.40001
0.995321
1.83712
1.83826
1.40001
1.84209
1.29241
1.40001
1.40001
1.40001
1.83704
1.40001
1.8429
1.40001
1.84185
1.03636
1.83881
1.05822
1.40001
1.84146
0.994981
1.03742
1.40001
1.83915
1.40001
1.40001
1.40001
1.8091
1.84566
1.84147
1.40001
1.40001
1.0302
1.40001
1.62043
1.40001
1.8401
1.40001
1.40001
1.40001
1.40001
1.02538
1.40001
1.03207
1.40001
1.83817
1.40001
1.83956
1.40001
1.40001
1.40001
1.40001
1.03484
1.40001
1.40001
0.999431
1.40001
1.02694
1.40001
1.40001
1.40001
1.02552
1.40001
1.84302
1.66946
1.40001
1.84261
1.86434
1.02655
1.83655
1.01912
1.40001
1.83823
1.02704
1.84421
1.84575
1.40001
1.40001
1.40001
1.40001
1.33358
1.01804
1.83645
1.40001
1.40001
1.02008
1.40001
1.8425
1.02393
1.40001
1.40001
1.40001
1.40001
1.61948
1.83856
1.05155
1.40001
1.40001
1.51002
1.40001
1.02815
1.40001
1.83484
1.84003
1.40001
1.40001
1.02317
1.02053
1.00977
1.40001
1.40001
1.40001
1.40001
1.40001
1.30886
1.40001
1.77752
1.43983
1.83609
1.40001
1.83569
1.83686
1.84288
1.83834
1.40001
1.04203
1.40001
1.04138
1.40001
1.40001
1.40001
1.40001
1.83949
1.40001
1.40001
1.40001
1.40001
1.84039
1.40001
1.42359
1.40001
1.40001
1.40001
1.40001
1.02514
1.40001
1.40997
1.40001
1.01865
1.40001
1.40001
1.40001
1.83566
1.40001
1.84279
1.01095
1.0468
1.84344
1.84348
1.40001
1.46885
1.65589
1.40001
1.84082
1.02096
1.80997
1.40001
1.40001
1.40001
1.40001
1.84183
1.76645
1.40001
1.83799
1.01398
1.84036
1.40001
1.02152
1.40001
1.02857
1.05884
1.39979
1.40001
1.40001
1.8399
1.40001
1.40001
1.84261
1.40001
1.83999
1.83765
1.03405
1.40001
1.40001
1.02564
1.8425
1.40001
1.40001
1.40001
1.84244
1.40001
1.0344
1.40001
1.40001
1.84132
1.8421
1.83641
1.40001
1.40005
1.40001
1.40001
1.40001
1.84152
1.40001
1.04347
1.85737
1.84268
1.84376
1.40001
1.40001
1.40001
1.01725
1.84098
1.6102
1.40001
1.84345
1.02518
1.02672
1.84352
1.84018
1.40001
1.84723
1.04145
1.79133
1.40001
1.40001
1.40001
1.40001
1.84231
1.40001
1.66616
1.44128
1.40001
1.40001
1.84215
1.03297
1.16829
1.40001
1.84004
1.04978
1.84788
1.40001
1.40001
1.40001
1.40001
1.40001
1.40001
1.40001
1.02981
1.17314
1.0279
1.84198
1.40001
1.40001
1.40001
1.40001
1.79309
1.40001
1.02822
1.40001
1.00448
1.0262
1.84175
1.02449
1.84277
1.40001
1.40001
1.40001
1.39773
1.02042
1.03744
1.4
1.40001
1.00405
1.40001
1.83819
1.03941
1.40001
1.40001
1.83794
1.00902
1.40001
1.84758
1.05021
1.84208
1.40001
1.01008
1.3977
1.40001
1.40001
1.40001
1.03054
1.40001
1.40001
1.4
1.40002
1.40492
1.67071
1.40001
1.04036
1.40001
1.40001
1.40001
1.40001
1.40001
1.40001
1.40001
1.83813
1.40001
1.83989
1.40001
1.40001
1.40001
1.04846
1.40001
1.84038
1.02362
1.40001
1.73852
1.40001
1.40001
1.84069
1.40001
1.40001
1.40001
1.82585
1.40001
1.40001
1.82446
1.84034
1.40001
1.49594
1.40001
1.40001
1.03716
1.40001
1.40001
1.40001
1.02014
1.40001
1.40001
1.40001
1.40001
1.02477
1.40001
1.40001
1.40001
1.40001
1.40001
1.01808
1.40008
1.84304
1.40001
1.40001
1.84344
1.84336
1.40001
1.40001
1.03696
1.1954
1.83827
1.40001
1.40001
1.40001
1.84178
1.02973
1.40001
1.84279
1.40001
1.40001
1.09801
1.08903
1.40001
1.01669
1.04467
1.40001
1.40001
1.40001
1.40001
1.40001
1.40001
1.40001
1.83808
1.51005
1.83155
1.01688
1.30004
1.83903
1.40001
1.84191
1.8379
1.01633
1.1633
1.40001
1.04298
1.40001
1.84745
1.40001
1.40001
1.40001
1.40001
1.84259
1.40001
1.40001
1.40001
1.40001
1.40001
1.40001
1.40001
1.55936
1.83708
1.40001
1.84194
1.40001
1.40001
1.0251
1.40001
1.40001
1.40001
1.40001
1.84212
1.73753
1.40001
1.40001
1.018
1.84179
1.84149
1.40001
1.84111
1.84241
1.84204
1.40001
1.21948
1.40001
1.84151
1.38248
1.84196
1.40001
1.03287
1.39886
1.8409
1.40001
1.40001
1.40001
1.40001
1.03104
1.84108
1.80129
1.40001
1.83841
1.84167
1.83876
1.40001
1.61693
1.84288
1.40001
1.40001
1.7075
1.46634
1.8417
1.33128
1.84208
1.40001
1.84215
1.84177
1.8422
1.84094
1.40001
1.81858
1.29985
1.27664
1.40001
1.4
1.40001
1.40001
1.84645
1.40001
1.40001
1.40001
1.40001
1.40001
1.83974
1.40001
1.40001
1.39617
1.84166
1.7791
1.40001
1.76637
1.40005
1.40001
1.40001
1.84027
1.40001
1.39719
1.40397
1.40001
1.84172
1.40001
1.84182
1.40001
1.40001
1.72799
1.40001
1.84203
1.40003
1.40001
1.84252
1.40001
1.84212
1.40001
1.40001
1.40001
1.84257
1.40001
1.84541
1.40001
1.84248
1.83959
1.84211
1.84406
1.40001
1.83897
1.8352
1.40001
1.02831
1.81476
1.7178
1.40001
1.84273
1.40001
1.03635
1.05049
1.40001
1.40001
1.40001
1.40001
1.40001
1.02917
1.40001
1.84186
1.51451
1.84027
1.40001
1.40001
1.40001
1.40001
1.40001
1.84191
1.40001
1.84085
1.66122
1.16283
1.40001
1.40001
1.53112
1.51079
1.40001
1.40001
1.564
1.40001
1.02341
1.84228
1.84216
1.40001
1.40001
1.40001
1.83945
1.40001
1.40003
1.84843
1.84103
1.3477
1.40001
1.40001
1.02732
1.80246
1.40001
1.40001
1.40001
1.40001
1.40001
1.84191
1.83972
1.40001
1.842
1.84562
1.84219
1.40001
1.40001
1.40001
1.40001
1.05217
1.83723
1.40001
1.40001
1.80316
1.84061
1.40001
1.81644
1.83574
1.40001
1.40001
1.40001
1.40001
1.40001
1.84188
1.40001
1.40001
1.40001
1.40001
1.84886
1.40001
1.83354
1.02601
1.40001
1.02463
1.40001
1.40001
1.40001
1.39689
1.02401
1.399
1.40001
1.40001
1.40001
1.46014
1.40001
1.40001
1.26428
1.40001
1.40001
1.40001
1.40001
1.40001
1.40001
1.40001
1.4
1.32919
1.4
1.40001
1.39764
1.40001
1.03109
1.40001
1.40001
1.40001
1.40001
1.73068
1.40001
1.40001
1.40001
1.40001
1.02601
1.40001
1.40001
1.81631
1.83778
1.4
1.40001
1.40001
1.28593
1.40001
1.40001
1.40001
1.40001
1.40001
1.40001
1.35166
1.40661
1.84131
1.40001
1.40001
1.40001
1.84599
1.29554
1.40001
1.40001
1.40001
1.84084
1.84045
1.40001
1.40001
1.40001
1.40001
1.40001
1.40001
1.40001
1.40001
1.40001
1.0449
1.40001
1.40001
1.8396
1.03912
1.40001
1.83971
1.40001
1.02454
1.40001
1.40001
1.04259
1.40001
1.40001
1.40001
1.40001
1.40001
1.40001
1.40001
1.83335
1.84089
1.40001
1.40001
1.40001
1.40001
1.80353
1.40001
1.54026
1.0199
1.40001
1.40001
1.40001
1.40001
1.40001
1.40001
1.40001
1.43704
1.40001
1.40001
1.6292
1.40001
1.40001
1.40001
1.76686
1.40001
1.40001
1.40001
1.40001
1.04167
1.40001
1.40001
1.02401
1.04219
1.40001
1.40001
1.84146
1.40001
1.39544
1.40001
1.40001
1.40001
1.70953
1.02518
1.40001
1.01757
1.40001
1.18468
1.40001
1.40001
1.40001
1.8415
1.40001
1.40001
1.84158
1.40001
1.40001
1.40001
1.84165
1.40001
1.40001
1.84177
1.40001
1.40001
1.01843
1.40001
1.54009
1.40001
1.40001
1.84004
1.8361
1.69594
1.79569
1.40001
1.02812
1.40001
1.40001
1.82208
1.40001
1.03918
1.40001
1.40001
1.40001
1.84226
1.40001
1.40001
1.40001
1.40001
1.66204
1.40001
1.82969
1.83966
1.01288
1.40001
1.40001
1.05388
1.05841
1.40001
1.40001
1.40001
1.71658
1.73588
1.40001
1.40001
1.40001
1.40001
1.40001
1.40001
1.40001
1.58184
1.84457
1.40298
1.40001
1.83654
1.03981
1.40001
1.40001
1.40001
1.6429
1.40001
1.48845
1.40001
1.803
1.84029
1.40001
1.03234
1.40001
1.8398
1.40001
1.40001
1.84037
1.81458
1.40001
1.84207
1.40001
0.995277
1.40001
1.40001
1.40001
1.84291
1.83316
1.78796
1.40001
1.84005
1.84164
1.40001
1.84344
1.40001
1.84043
1.40001
1.05149
1.37047
1.0487
1.40001
1.40001
1.40001
1.40001
1.40001
1.84192
1.40001
1.84206
1.40001
1.40001
1.40001
1.8202
1.40001
1.02685
1.8415
1.40001
1.03246
1.05827
1.04036
1.40001
1.61986
1.43731
1.84357
1.84155
1.40001
1.4
1.40001
1.40001
1.84181
1.40001
1.40001
1.84177
1.84184
1.40001
1.55458
1.39982
1.40001
1.3967
1.83562
1.23729
1.40001
1.20746
1.02331
1.02466
1.36455
1.8431
1.83626
1.47894
1.84154
1.84205
1.40001
1.40001
1.83802
1.83932
1.84105
1.83852
1.40001
1.84238
1.0279
1.84528
1.83993
1.84199
1.84546
1.26094
1.29896
1.32597
1.84168
1.35551
1.84082
1.40001
1.40001
1.84402
1.84248
1.40001
1.04408
1.83883
1.84192
1.40001
1.84181
1.84195
1.40001
1.842
1.03006
1.84649
1.84128
1.83928
1.84574
1.40001
1.40001
1.40001
1.84177
1.68688
1.06995
1.84191
1.04268
1.84175
1.40001
1.40001
1.40001
1.40001
1.84258
1.84248
1.40001
1.40001
1.84255
1.04543
1.842
1.02908
1.40001
1.8389
1.40001
0.994901
1.84259
1.1257
1.40001
1.84145
1.84327
1.84157
1.40001
1.40001
1.59392
1.84338
1.02141
1.84178
1.40001
1.84142
1.26725
1.84131
1.04328
1.40001
1.84103
1.06861
1.84407
1.02589
1.40001
1.8418
1.40001
1.83843
1.40001
1.65885
1.8252
1.747
1.01787
1.40001
1.84161
1.40001
1.84221
1.40001
1.84168
1.40001
1.40001
1.8417
1.37427
1.84501
0.981176
1.80805
1.40001
1.71738
1.40001
1.84199
1.8417
1.83985
1.40001
1.79708
1.84071
1.80897
1.66604
1.83869
1.40001
1.69304
1.40001
1.84081
1.40001
1.46107
1.40001
1.80982
1.40001
1.84137
1.82068
1.82074
1.40001
1.83525
1.06222
1.40001
1.02291
1.40001
1.40001
1.40001
1.83332
1.40001
1.84259
1.40001
1.40001
1.40001
1.84358
1.82641
1.76895
1.84228
1.84651
1.03084
1.8384
1.8405
1.40001
1.77819
1.84187
1.82406
1.40001
1.84066
1.83897
1.40001
1.84673
1.84289
1.84143
1.84247
1.40001
1.40001
1.40001
1.84163
1.03436
1.40001
1.84207
1.40001
1.40001
1.0332
1.40001
1.40001
1.84191
1.84141
1.40001
1.84148
1.83615
1.84115
1.37352
1.84174
1.40001
1.84173
1.84173
1.75414
1.40001
1.40001
1.40001
1.8422
1.84235
1.84194
1.33714
1.40001
1.84749
1.84247
1.84231
1.40001
1.8425
1.84088
1.84174
1.84981
1.40001
1.84123
1.84737
1.78204
1.84099
1.84889
1.40001
1.8491
1.83711
1.84192
1.8431
1.8403
1.06884
1.84042
1.8431
1.40001
1.84183
1.84167
1.8419
1.84176
1.40001
1.84119
1.84176
1.40001
1.84182
1.77116
1.40001
1.40001
1.40001
1.84266
1.83818
1.40001
1.40001
1.6414
1.40001
1.84208
1.40001
1.40001
1.84204
1.84359
1.84197
1.84196
1.40001
1.40001
1.40001
1.70685
1.40001
1.84181
1.40001
1.40001
1.83618
1.8414
1.40001
1.8421
1.04879
1.84206
1.84571
1.12245
1.40001
1.0458
1.78014
1.846
1.84134
1.84213
0.997999
1.84078
1.84326
1.00486
1.02614
1.40001
1.84074
1.8425
1.40001
1.40001
1.84138
1.40001
1.84015
1.40001
1.78434
1.40001
1.60117
1.84158
1.84316
1.70544
1.80426
1.83571
1.84354
1.80824
1.40001
1.04081
1.83916
1.84264
1.84619
1.40002
1.40001
1.40001
1.84093
1.40001
1.84201
1.84064
1.1533
1.40001
1.84137
1.39994
1.40001
1.40003
1.40005
1.84263
1.84142
1.39848
1.40001
1.40001
1.84228
1.84387
1.8419
1.84647
1.84052
1.05607
1.78131
1.40001
1.83854
1.84141
1.84168
1.84363
1.40001
1.84163
1.82996
1.84369
1.40001
1.84131
1.84412
1.25381
1.84157
1.84168
1.40001
1.84129
1.21685
1.84255
1.25729
1.84224
1.40001
1.84178
1.84333
1.84183
1.84173
1.84183
1.8418
1.84272
1.84107
1.40001
1.33525
1.84228
1.8412
1.2176
1.84172
1.37757
1.68716
1.84182
1.84301
1.84459
1.40001
1.84481
1.69037
1.84138
1.31733
1.8443
1.84949
1.40001
1.2492
1.40001
1.84682
1.40001
1.70512
1.40001
1.81302
1.26956
1.40001
1.84666
1.83906
1.40001
1.84069
1.8438
1.84787
1.83539
1.84852
1.40001
1.83926
1.40001
1.40001
1.40001
1.29962
1.84171
1.84197
1.8458
1.84209
1.83959
1.84586
1.83769
1.84245
1.30913
1.43127
1.40001
1.40001
1.84377
1.84238
1.84159
1.84167
1.40003
1.62443
1.40001
1.84606
1.78907
1.40001
1.40001
1.14174
1.84177
1.40001
1.40001
1.03006
1.84188
1.40001
1.84319
1.84191
1.83556
1.82491
1.8417
1.40001
1.04261
1.50427
1.8416
1.84174
1.40001
1.84127
1.8419
1.61632
1.41041
1.49863
1.40001
1.83782
1.84197
1.40001
1.40001
1.00498
1.40001
1.40001
1.84195
1.84224
1.84459
1.842
1.84208
1.84283
1.84161
1.8443
1.84187
1.40001
1.3963
1.84227
1.84172
1.39669
1.84202
1.84179
1.04178
1.01577
1.84265
1.8415
1.40001
1.40001
1.4012
1.841
1.84398
1.84192
1.40001
1.842
1.40001
1.27069
1.84654
1.8369
1.40001
1.59396
1.84123
1.40001
1.83787
1.40001
1.84117
1.69049
1.84057
1.40001
1.84101
1.84837
1.00829
1.84158
1.40001
1.84325
1.84517
1.40001
1.05871
1.84295
1.76278
1.39779
1.83347
1.84168
1.40001
1.39373
1.84094
1.39825
1.84214
1.40001
1.40001
1.84124
1.40001
1.84192
1.84189
1.39662
1.75328
1.40001
1.84176
1.40001
1.40001
1.40001
1.40001
1.84167
1.40001
1.40001
1.84643
1.40001
1.84193
1.40001
1.68328
1.846
1.84154
1.40001
1.40001
1.3861
1.40001
1.84291
1.84198
1.8412
1.84176
1.84249
1.84122
1.84176
1.40001
1.8416
1.8425
1.40001
1.84151
1.8412
1.40001
1.84132
1.33611
1.45731
1.84193
1.84139
1.84112
1.40001
1.84181
1.40001
1.84217
1.84167
1.40001
1.84189
1.40001
1.40001
1.40001
1.40001
1.84094
1.02253
1.39795
1.40001
1.84155
1.84498
1.40001
1.84155
1.40001
1.4046
1.03746
1.84178
1.3996
1.40001
1.84162
1.39839
1.84181
1.40001
1.39978
1.40001
1.84259
1.8484
1.84103
1.84064
1.02809
1.84254
1.84282
1.84199
1.51104
1.40001
1.40001
1.58719
1.8421
1.03052
1.03162
1.40001
1.84318
1.84182
1.84002
1.40001
1.40001
1.84368
1.84123
1.39988
1.40001
1.72626
1.04253
1.40001
1.47935
1.84113
1.83961
1.39824
1.84198
1.84795
1.40001
1.39908
1.40001
1.84092
1.83564
1.5825
1.40001
1.8086
1.40001
1.40212
1.84208
1.03789
1.84161
1.84154
1.39697
1.39992
1.77962
1.40001
1.3997
1.40001
1.84336
1.40001
1.40002
1.05023
1.84187
1.40001
1.40001
1.40001
1.40001
1.84405
1.64912
1.40001
1.40001
1.03736
1.84171
1.64916
1.40001
1.40001
1.40001
1.82074
1.82834
1.84112
1.40001
1.40001
1.84709
1.40001
1.84189
1.8423
1.40001
1.40001
1.84354
1.84199
1.82126
1.40001
1.40001
1.84385
1.84194
1.40001
1.40001
1.40001
1.84193
1.40001
1.40001
1.40001
1.8407
1.84077
1.84363
1.40001
1.83976
1.40004
1.11324
1.84108
1.84062
1.40001
1.84024
1.81457
1.83362
1.40001
1.40001
1.84409
1.40001
1.64571
1.84141
1.40001
1.03218
1.40001
1.84331
1.40001
1.40001
1.84658
1.40001
1.40001
1.40001
1.53937
1.8416
1.08594
1.40002
1.8425
1.40001
1.40001
1.84213
1.40001
1.84484
1.40001
1.40001
1.8418
1.84182
1.40001
1.40005
1.40001
1.40001
1.40001
1.40001
1.40001
1.40001
1.83802
1.84203
1.40001
1.84389
1.03002
1.83553
1.40001
1.84221
1.84906
1.84174
1.84987
1.83907
1.40001
1.40001
1.84434
1.40001
1.66869
1.84572
1.84191
1.40001
1.84449
1.83674
1.40001
1.79223
1.40001
1.84198
1.68832
1.84387
1.39762
1.83102
1.79773
1.84259
1.84226
1.43843
1.84125
1.844
1.40001
1.8416
1.40001
1.84152
1.40001
1.40001
1.40001
1.40001
1.39564
1.84195
1.84134
1.7685
1.40001
1.8441
1.40001
1.40001
1.40001
1.03624
1.40001
1.8325
1.40001
1.80199
1.82517
1.40001
1.40001
1.40001
1.81997
1.83539
1.40001
1.40001
1.84063
1.02973
1.47408
1.40001
1.84539
1.84115
1.8027
1.8315
1.84197
1.40001
1.84283
1.40001
1.40001
1.40001
1.40001
1.84397
1.84248
1.40001
1.82898
1.45584
1.84233
1.81178
1.40001
1.40001
1.81318
1.40001
1.40001
1.01937
1.71596
1.40001
1.40001
1.84907
1.40001
1.8446
1.80416
1.40001
1.80317
1.03226
1.84081
1.84166
1.84252
1.40001
1.02632
1.40001
1.40001
1.40001
1.84165
1.75248
1.40001
1.8491
1.84232
1.40001
1.84187
1.40001
1.40001
1.40001
1.40001
1.84247
1.39933
1.40001
1.84349
1.40001
1.40001
1.83972
1.84142
1.40001
1.84555
1.48648
1.40003
1.40001
1.8412
1.40001
1.84097
1.40001
1.41185
1.84178
1.40001
1.84196
1.40001
1.40001
1.54231
1.84296
1.40001
1.40001
1.40001
1.40001
1.40001
1.39598
1.03771
1.05227
1.41954
1.40001
1.41706
1.40001
1.41386
1.40001
1.84176
1.40001
1.66956
1.40001
1.84184
1.40001
1.40001
1.40001
1.84191
1.40001
1.74349
1.84133
1.40001
1.63308
1.8418
1.40001
1.40001
1.83375
1.84178
1.40001
1.40001
1.445
1.00655
1.40001
1.84299
1.40001
1.40001
1.40001
1.40001
1.47423
1.84178
1.40001
1.40001
1.40001
1.00798
1.40001
1.8419
1.84138
1.84109
1.40001
1.40001
1.40001
1.40001
1.62376
1.84311
1.40001
1.40001
1.40001
1.84317
1.84194
1.45428
1.40001
1.40001
1.40001
1.84069
1.8419
1.40001
1.03865
1.84117
1.84164
1.84188
1.84151
1.84174
1.40001
1.40001
1.84801
1.83959
1.84227
1.00252
1.4405
1.84163
1.40001
1.40001
1.40001
1.40001
1.40001
1.84265
1.03486
1.40001
1.40001
1.84205
1.5937
1.40001
1.84835
1.40001
1.40001
1.40001
1.03196
1.40001
1.40001
1.51216
1.84104
1.84094
1.40001
1.83896
1.8476
1.40001
1.47499
1.40001
1.8465
1.40001
1.84071
1.03173
1.40001
1.40001
1.40001
1.40001
1.84189
1.40007
1.40001
1.40001
1.40001
1.82382
1.40001
1.40001
1.40001
1.40001
1.8414
1.02928
1.74849
1.84476
1.40001
1.84234
1.40001
1.40001
1.40001
1.39716
1.40001
1.8471
1.40001
1.20329
1.40001
1.40001
1.40004
1.84196
1.04368
1.40001
1.83864
1.40001
1.84285
1.84194
1.00611
1.40001
1.40001
1.83528
1.40001
1.40001
0.999659
1.40001
1.83615
1.40001
1.82192
1.39932
1.84214
1.40001
1.40001
1.40001
1.40001
1.84097
1.40001
1.40001
1.84154
1.40001
1.40001
1.40001
1.40001
1.40001
1.40001
1.40001
1.40001
1.68945
1.40001
1.54378
1.84219
1.40001
1.40001
1.40001
1.0292
1.40001
1.40001
1.40001
1.40001
1.84091
1.84183
1.45754
1.40001
1.40001
1.84245
1.40001
1.40001
1.84241
1.40001
1.40002
1.40001
1.40001
1.40001
1.40002
1.84121
1.18403
1.8417
1.84346
1.39721
1.40001
1.40001
1.40001
1.66171
1.40001
1.40001
1.84125
1.84199
1.40001
1.40001
1.40001
1.40001
1.01718
1.40001
1.40001
1.40001
1.67815
1.40001
1.84177
1.84413
1.40001
1.84345
1.40001
1.40001
1.40001
1.63573
1.40001
1.83944
1.40001
1.84193
1.40001
1.40001
1.39619
1.8419
1.40001
1.40001
1.40001
1.40001
1.40001
1.8437
1.40003
1.40001
1.01255
1.84051
1.03414
1.40001
1.8416
1.40001
1.39583
1.40001
1.84252
1.84547
1.40001
1.83834
1.28826
1.84132
1.84396
1.40004
1.40001
1.40001
1.02922
1.40001
1.40001
1.40001
1.84197
1.6565
1.84111
1.40001
1.40001
1.40001
1.40001
1.39667
1.84272
1.40001
1.03333
1.40001
1.40001
1.40001
1.40001
1.40001
1.40001
1.40001
1.84832
1.84366
1.84543
1.40001
1.40001
1.39687
1.40001
1.36874
1.40001
1.40001
1.40001
1.04769
1.36251
1.40001
1.02357
1.02427
1.40001
1.84233
1.84154
1.40001
1.84195
1.84189
1.02977
1.68516
1.40001
1.40001
1.40001
1.03863
1.84204
1.40001
1.03792
1.40001
1.84906
1.4735
1.40001
1.40001
1.40001
1.40001
1.84159
1.841
1.40001
1.40001
1.84125
1.40001
1.40001
1.83784
1.84179
1.40001
1.82348
1.84088
1.83775
1.36209
1.8412
1.40859
1.02941
1.73961
1.84256
1.40001
1.40001
1.40001
1.04971
1.40001
1.03439
1.84822
1.35982
1.84177
1.35207
1.40001
1.84188
1.60477
1.40001
1.40001
1.84277
1.40001
1.58116
1.84099
1.40001
1.40001
1.84003
1.84507
1.03676
1.66746
1.3999
1.40001
1.66711
1.40001
1.84078
1.34508
1.84739
1.84835
1.40001
1.40001
1.40001
1.40001
1.84049
1.40001
1.40001
1.84294
1.39964
1.84296
1.74851
1.83802
1.03023
1.40001
1.40001
1.40001
1.40001
1.84283
1.40005
1.84188
1.40001
1.84284
1.84041
1.45694
1.83917
1.54013
1.84135
1.40001
1.70508
1.06373
1.84985
1.84183
1.76316
1.47474
1.84128
1.84142
1.84204
1.84198
1.40001
1.30945
1.4684
1.40001
1.84176
1.60995
1.84227
1.40004
1.40001
1.40001
1.04927
1.84745
1.84074
1.75746
1.40001
1.56812
1.40001
1.8486
1.84757
1.40001
1.84237
1.84094
1.40001
1.40001
1.40001
1.84261
1.40001
1.57549
1.84333
1.70873
1.40001
1.84129
1.40001
1.40001
1.40001
1.40001
1.40001
1.40001
1.40001
1.40001
1.40001
1.40001
1.04518
1.40001
1.80887
1.06181
1.65999
1.39856
1.84743
1.40001
1.63401
1.40002
1.68527
1.77618
1.40001
1.40207
1.84946
1.30633
1.40001
1.84038
1.82545
1.3432
1.40001
1.8443
1.84294
1.84336
1.40001
1.84152
1.84311
1.84599
1.40001
1.59432
1.40001
1.40006
1.84282
1.40001
1.84206
1.46512
1.84109
1.40001
1.40001
1.84059
1.84063
1.04323
1.40001
1.84088
1.73162
1.84121
1.40001
1.40001
1.83862
1.84058
1.39825
1.40001
1.78705
1.3969
1.8418
1.40008
1.40001
1.40001
1.40001
1.40001
1.59415
1.40001
1.7392
1.84212
1.73033
1.84156
1.40001
1.40356
1.40001
1.40001
1.83789
1.40001
1.84589
1.40001
1.40001
1.40001
1.40001
1.4
1.40001
1.45713
1.63111
1.40001
1.40001
1.0669
1.40001
1.84
1.06877
1.84814
1.40001
1.62798
1.39976
1.84153
1.68559
1.04904
1.63879
1.40004
1.84174
1.84326
1.40001
1.66701
1.841
1.84314
1.39841
1.83554
1.8297
1.05133
1.40001
1.40001
1.39777
1.40001
1.83909
1.40001
1.05988
1.84205
1.40001
1.40001
1.80015
1.40001
1.84317
1.40001
1.84124
1.40001
1.06072
1.40001
1.40001
1.84481
1.8488
1.84696
1.40001
1.84136
1.84134
1.83958
1.40001
1.40001
1.83255
1.4
1.12107
1.40001
1.40001
1.40001
1.84246
1.40001
1.84131
1.68726
1.83984
1.40001
1.84167
1.3994
1.40001
1.40001
1.40001
1.40001
1.40001
1.40001
1.10782
1.40001
1.40001
1.84153
1.40001
1.84578
1.84804
1.40001
1.03916
1.03264
1.40001
1.84318
1.47335
1.03479
1.00317
1.40001
1.84382
1.40001
1.84144
1.00191
1.40127
1.40001
1.40001
1.39951
1.40001
1.40001
1.40001
1.39991
1.57788
1.84185
1.40001
1.40001
1.84237
1.65897
1.40001
1.79411
1.84253
1.83835
1.58093
1.83976
1.40001
1.8428
1.40001
1.82988
1.40001
1.84474
1.84034
1.39672
1.84357
1.84202
1.40001
1.40001
1.40001
1.40001
1.40001
1.31329
1.83997
1.40005
1.40003
1.05539
1.39999
1.03699
1.04262
1.40001
1.84413
1.84175
1.84267
1.40001
1.84136
1.40001
1.03213
1.40001
1.40001
1.844
1.23153
1.84274
1.40001
1.84396
1.40001
1.37754
1.84056
1.40001
1.40001
1.40001
1.84349
1.40001
1.84027
1.03046
1.40001
1.40001
1.6583
1.40001
1.40001
1.6375
1.40001
1.40001
1.8409
1.40001
1.40001
1.40001
1.40001
1.40001
1.84855
1.84202
1.40001
1.84069
1.8435
1.03257
1.60328
1.84076
1.40001
1.40001
1.79836
1.39901
1.40001
1.40001
1.84136
1.83759
1.69543
1.40001
1.8432
1.05199
1.80817
1.39953
1.40001
1.84366
1.40004
1.84006
1.76713
1.73623
1.40001
1.40001
1.8421
1.10846
1.04625
1.40001
1.84241
1.40001
1.84144
1.40001
1.66469
1.40001
1.40001
1.84085
1.68515
1.03951
1.40001
1.39842
1.40001
1.40001
1.42525
1.58117
1.84205
1.40001
1.84681
1.40001
1.40001
1.40001
1.40001
1.40001
1.40001
1.46641
1.03065
1.40001
1.40001
1.42972
1.40001
1.40001
1.40001
1.40001
1.40001
1.84126
1.40001
1.40001
1.84127
1.84153
1.71241
1.40001
1.40001
1.40001
1.22979
1.84805
1.70969
1.40001
1.40001
1.40001
1.40001
1.84163
1.40001
1.40001
1.40001
1.83991
1.40001
1.40001
1.71804
1.85538
1.44021
1.13249
1.84645
1.71712
1.83925
1.40001
1.62319
1.40001
1.40001
1.40001
1.03468
1.40194
1.02534
1.40001
1.01649
1.01946
1.40001
1.0332
1.40001
1.40001
1.40001
1.59402
1.40001
1.84052
1.84165
1.40163
1.60928
1.77303
1.03916
1.18467
1.28414
1.40001
1.84204
1.83965
1.84192
1.84176
1.77803
1.28552
1.40001
1.78066
1.40001
1.82218
1.40001
1.40001
1.39658
1.40928
1.40001
1.40001
1.40001
1.8402
1.40001
1.05869
1.40001
1.84379
1.03824
1.40001
1.40001
1.84165
1.40001
1.84207
1.40012
1.40001
1.40001
1.84211
1.8119
1.40001
1.85386
1.40001
1.40001
1.41482
1.40001
1.58979
1.40001
1.40001
1.03303
1.40001
1.40001
1.84309
1.4
1.84011
1.40001
1.40004
1.04819
1.40001
1.40001
1.05516
1.40082
1.40001
1.83976
1.0228
1.84074
1.04711
1.84169
1.40001
1.40001
1.40001
1.40001
1.40001
1.40001
1.40001
1.40001
1.40001
1.40001
1.40001
1.82357
1.40001
1.84312
1.84038
1.0301
1.40001
1.40001
1.40001
1.40001
1.40001
1.40001
1.82963
1.40001
1.40001
1.03417
1.40001
1.40001
1.83944
1.40001
1.40001
1.57061
1.771
1.03825
1.0173
1.11192
1.13414
1.40001
1.39674
1.05865
1.40036
1.80376
1.39699
1.40001
1.40001
1.84393
1.40001
1.40001
1.40001
1.17657
1.40002
1.56309
1.40001
1.40001
1.58332
1.84129
1.40001
1.06036
1.40001
1.40001
1.40001
1.39655
1.40001
1.83987
1.8417
1.40001
1.04188
1.40001
1.63656
1.03046
1.40001
1.2867
1.40001
1.39609
1.01598
1.40001
1.40001
1.40001
1.39561
1.01998
1.40001
1.03112
1.39844
1.63694
1.79544
1.023
1.04051
1.40001
1.39096
1.40001
1.39864
1.40001
1.84297
1.84098
1.40001
1.41128
1.84347
1.84139
1.40001
1.40001
1.84148
1.40001
1.40001
1.40005
1.40001
1.84572
1.40001
1.40001
1.41819
1.40001
1.39858
1.09922
1.40001
1.40001
1.40001
1.40001
1.40001
1.84421
1.43108
1.40005
1.40001
1.40001
1.40001
1.40001
1.40001
1.40004
1.40001
1.03279
1.48979
1.39859
1.82258
1.8406
1.40001
1.41507
1.8433
1.78647
1.40001
1.40001
1.04029
1.84185
1.40001
1.84047
1.40001
1.84115
1.70308
1.0384
1.40001
1.03475
1.80187
1.39968
1.40001
1.02812
1.04156
1.40001
1.40001
1.77272
1.40001
1.4
1.02416
1.40001
1.40001
1.40001
1.54605
1.40001
1.03174
1.84313
1.40001
1.40001
1.40001
1.40001
1.84188
1.40001
1.40001
1.84344
1.79651
1.40001
1.40001
1.40001
1.83969
1.03152
1.40001
1.8421
1.84186
1.40001
1.75196
1.4
1.40003
1.40001
1.40001
1.81116
1.41224
1.40001
1.04957
1.6351
1.40001
1.40001
1.39777
1.40001
1.40001
1.84457
1.40001
1.40001
1.40004
1.40001
1.84147
1.40001
1.40001
1.40001
1.40001
1.40001
1.40001
1.40001
1.59848
1.40001
1.84064
1.40001
1.40001
1.8429
1.40001
1.40001
1.40001
1.8417
1.84484
1.44462
1.40001
1.39752
1.40001
1.40001
1.40001
1.40001
1.83969
1.40001
1.40001
1.84161
1.03007
1.40001
1.40001
1.40001
1.40001
1.40001
1.40001
1.75864
1.40001
1.40001
1.8437
1.84262
1.40001
1.40001
1.40001
1.84164
1.8398
1.40001
1.39964
1.8411
1.40001
1.40001
1.40001
1.40002
1.06939
1.43044
1.39585
1.396
1.40001
1.40001
1.0657
1.84146
1.40001
1.0254
1.40001
1.84141
1.82331
1.04057
1.39941
1.84197
1.84153
1.84064
1.40001
1.40001
1.32011
1.79166
1.7662
1.03522
1.40001
1.40001
1.40001
1.83887
1.84207
1.03057
1.39732
1.40001
1.84183
1.0703
1.40001
1.83728
1.03488
1.37826
1.40715
1.40001
1.84913
1.40001
1.40001
1.40001
1.40001
1.40001
1.40001
1.40011
1.81147
1.40001
1.40001
1.84131
1.40001
1.40001
1.40001
1.84148
1.40001
1.03133
1.40001
1.40001
1.40001
1.55254
1.40001
1.40001
1.40001
1.40001
1.40001
1.17458
1.40001
1.07242
1.40001
1.84239
1.40008
1.26728
1.27011
1.40002
1.40402
1.63456
1.40001
1.40001
1.03848
1.84199
1.84245
1.84137
1.40001
1.02658
1.02801
1.40001
1.84136
1.40001
1.40001
1.40001
1.40001
1.40001
1.40004
1.40001
1.03451
1.68651
1.40001
1.40001
1.03191
1.37977
1.40001
1.40001
1.40001
1.40001
1.02266
1.40001
1.10227
1.40001
1.40001
1.84928
1.40001
1.40001
1.03717
1.40001
1.84114
1.40001
1.04198
1.40001
1.03557
1.40001
1.40794
1.84032
1.85359
1.40001
1.40001
1.84016
1.40001
1.40001
1.49113
1.39691
1.40001
1.39817
1.40001
1.84434
1.40001
1.01883
1.40002
1.8376
1.39883
1.40001
1.40001
1.16374
1.40001
1.39902
1.04063
1.84377
1.55759
1.40001
1.40001
1.28268
1.40001
1.40001
1.40001
1.18668
1.40001
1.40001
1.40001
1.84189
1.40001
1.03721
1.4
1.40001
1.40001
1.40001
1.02751
1.84211
1.80162
1.04384
1.40001
1.8467
1.40001
1.40001
1.84163
1.8409
1.77333
1.02926
1.39768
1.3992
1.40001
1.84181
1.40001
1.40001
1.40001
1.40001
1.84047
1.40004
1.40001
1.40001
1.8415
1.40001
1.40001
1.84153
1.02905
1.40001
1.40001
1.40001
1.03181
1.40001
1.4
1.4
1.3987
1.40001
1.40001
1.40001
1.40001
1.75931
1.40001
1.8405
1.84031
1.84714
1.8415
1.84234
1.84128
1.40001
1.842
1.40001
1.84211
1.84161
1.40001
1.39886
1.03836
1.78016
1.39991
1.40001
1.40001
1.40001
1.40001
1.39171
1.40001
1.46681
1.40001
1.40001
1.40001
1.22867
1.8415
1.84055
1.84681
1.7748
1.39988
1.40001
1.42347
1.84339
1.39794
1.45609
1.39701
1.01802
1.40001
1.40003
1.40001
1.40001
1.40001
1.40001
1.40001
1.84198
1.03757
1.84133
1.84178
1.39547
1.05234
1.40001
1.40001
1.40001
1.84134
1.02405
1.79
1.03102
1.84242
1.84667
1.03632
1.84303
1.42422
1.40001
1.84463
1.18134
1.40001
1.39876
1.06267
1.40001
1.02763
1.40001
1.84135
1.84236
1.14272
1.40001
1.83966
1.02108
1.40001
1.03315
1.40001
1.84075
1.40001
1.40001
1.84186
1.40001
1.22658
1.40001
1.3997
1.02825
1.84237
1.39948
1.40001
1.04276
1.40001
1.40001
1.40001
1.40001
1.64715
1.40001
1.84124
1.40001
1.40001
1.84951
1.40001
1.40001
1.84238
1.40001
1.04109
1.40001
1.03844
1.40002
1.40001
1.40001
1.40001
1.40001
1.82224
1.65979
1.84188
1.40001
1.84157
1.81003
1.02315
1.0624
1.40001
1.40001
1.8403
1.40001
1.04021
1.40001
1.3815
1.40001
1.40001
1.84249
1.40001
1.84236
1.07208
1.84835
1.40001
1.07188
1.40001
1.40001
1.84712
1.84074
1.40001
1.40005
1.40001
1.83167
1.40001
1.40001
1.03143
1.39943
1.0605
1.40001
1.40001
1.40001
1.84352
1.84079
1.8396
1.40001
1.40001
1.03622
1.40001
1.83878
1.40001
1.40001
1.40001
1.82179
1.84148
1.84086
1.01424
1.84393
1.84183
1.04856
1.83946
1.40005
1.05669
1.40913
1.40001
1.40001
1.84261
1.01931
1.68462
1.03258
1.84183
1.39737
1.03951
1.84327
1.40001
1.40001
1.40001
1.40001
1.84153
1.8406
1.0352
1.40001
1.40003
1.0324
1.40004
1.40001
1.0532
1.05192
1.7109
1.84345
1.39848
1.841
1.40001
1.84657
1.21062
1.02888
1.84183
1.84961
1.40001
1.84135
1.40001
1.40001
1.8425
1.40001
1.73697
1.83903
1.40001
1.40001
1.40001
1.40001
1.84112
1.83708
1.84573
1.40001
1.40001
1.84436
1.83675
1.84195
1.40001
1.841
1.40001
1.40001
1.40001
1.40001
1.40001
1.03193
1.23462
1.06221
1.40001
1.40001
1.84284
1.40001
1.40001
1.84288
1.03568
1.40001
1.84244
1.83711
1.82322
1.02568
1.40001
1.01605
1.40001
1.40003
1.841
1.60832
1.83837
1.80437
1.40001
1.03327
1.40001
1.8442
1.7137
1.0298
1.40001
1.40001
1.40001
1.20758
1.40001
1.40001
1.84915
1.40001
1.02572
1.84217
1.40001
1.40001
1.40001
1.40001
1.40001
1.75687
1.50028
1.40001
1.8408
1.40001
1.83915
1.40001
1.39739
1.40001
1.8408
1.84769
1.84203
1.84536
1.39958
1.83809
1.40001
1.84197
1.84042
1.77426
1.40001
1.40001
1.049
1.84095
1.40001
1.40001
1.84425
1.8414
1.83923
1.40001
1.84055
1.40001
1.40001
1.40004
1.84595
1.84375
1.52702
1.49461
1.84189
1.84076
1.09042
1.40001
1.40001
1.40001
1.40001
1.40002
1.55531
1.40001
1.40001
1.76998
1.05742
1.39998
1.40001
1.84204
1.3999
1.39981
1.46644
1.80712
1.84009
1.30234
1.40001
1.05734
1.40001
1.38952
1.84161
1.84408
1.83885
1.399
1.40001
1.40001
1.04269
1.40001
1.40001
1.84167
1.4486
1.40001
1.40001
1.40001
1.40001
1.40001
1.40001
1.40001
1.39994
1.84108
1.40002
1.40001
1.40001
1.40001
1.40001
1.67898
1.40001
1.61024
1.40001
1.40001
1.8418
1.84731
1.02158
1.39877
1.40001
1.4
1.40001
1.03383
1.83809
1.84175
1.40001
1.40001
1.40001
1.40001
1.40001
1.40001
1.40001
1.40001
1.84187
1.83847
1.04314
1.45018
1.03355
1.40001
1.03697
1.40001
1.84209
1.52054
1.40001
1.40001
1.08851
1.40001
1.8239
1.20954
1.39663
1.03034
1.40001
1.40001
1.8388
1.40005
1.39717
1.02445
1.83913
1.84763
1.40001
1.40001
1.40001
1.40001
1.81238
1.40001
1.40001
1.84169
1.39888
1.84057
1.40009
1.40001
1.40001
1.05928
1.40001
1.40001
1.84213
1.03232
1.17968
1.04123
1.84241
1.39936
1.40001
1.84062
1.02899
1.05241
1.4036
1.40001
1.40001
1.84035
1.40004
1.59411
1.40001
1.40001
1.8401
1.03578
1.40001
1.40001
1.40014
1.84019
1.40017
1.82799
1.40001
1.40004
1.40001
1.40001
1.10572
1.40001
1.16691
1.40002
1.40001
1.84437
1.06595
1.40001
1.14525
1.19129
1.40001
1.40001
1.84133
1.40001
1.40001
1.40001
1.84206
1.84214
1.40006
1.84425
1.84021
1.16257
1.84173
1.82029
1.40001
1.40001
1.84422
1.4
1.40001
1.40001
1.40001
1.40001
1.84337
1.84243
1.40001
1.40001
1.40001
1.84034
1.40023
1.40001
1.03722
1.11587
1.40001
1.40003
1.56166