/*--------------------------------*- C++ -*----------------------------------*\
  =========                 |
  \\      /  F ield         | OpenFOAM: The Open Source CFD Toolbox
   \\    /   O peration     | Website:  https://openfoam.org
    \\  /    A nd           | Version:  12
     \\/     M anipulation  |
\*---------------------------------------------------------------------------*/
FoamFile
{
    format      ascii;
    class       volScalarField;
    location    "7.5";
    object      T;
}
// * * * * * * * * * * * * * * * * * * * * * * * * * * * * * * * * * * * * * //

dimensions      [0 0 0 1 0 0 0];

internalField   nonuniform List<scalar> 
22702
(
1
1
0.966005
1
1.01748
1
1.12039
1
1
0.877952
1.12009
1.12073
1
1.11865
0.970861
1
1
1
1.1199
1
1.11887
1
1.1193
0.899789
1.11803
0.896564
1
1.12014
0.884385
0.899682
1
1.12077
1
1
1
1.11059
1.11946
1.11936
1
1
0.890203
1
1.06275
1
1.11996
1
1
1
1
0.896366
1
0.898209
1
1.12018
1
1.12091
1
1
1
1
0.888816
1
1
0.885635
1
0.896457
1
1
1
0.88597
1
1.11904
1.07551
1
1.11903
1.12593
0.897298
1.11886
0.896477
1
1.12092
0.896107
1.12075
1.12098
1
1
1
1
0.983149
0.883619
1.12025
1
1
0.884027
1
1.11876
0.885142
1
1
1
1
1.06253
1.12071
0.894312
1
1
1.03316
1
0.897145
1
1.11872
1.12104
1
1
0.884302
0.883373
0.881093
1
1
1
1
1
0.975784
1
1.10279
1.01358
1.11891
1
1.11897
1.12035
1.11883
1.12063
1
0.891822
1
0.89179
1
1
1
1
1.1213
1
1
1
1
1.11857
1
1.00677
1
1
1
1
0.894642
1
1.00288
1
0.897423
1
1
1
1.11985
1
1.11891
0.880111
0.892779
1.11965
1.11949
1
1.02178
1.07197
1
1.12079
0.897824
1.11081
1
1
1
1
1.11853
1.10079
1
1.12065
0.8924
1.12072
1
0.897319
1
0.897977
0.896796
0.999937
1
1
1.12034
1
1
1.1188
1
1.11977
1.12054
0.89745
1
1
0.897297
1.11869
1
1
1
1.11865
1
0.891183
1
1
1.11841
1.1187
1.11887
1
1.00001
1
1
1
1.11853
1
0.90236
1.12438
1.11881
1.11894
1
1
1
0.893894
1.11848
1.05757
1
1.11896
0.892423
0.891497
1.119
1.11796
1
1.11912
0.890606
1.10621
1
1
1
1
1.11869
1
1.07338
1.01189
1
1
1.11864
0.888175
0.932582
1
1.11784
0.89468
1.11943
1
1
1
1
1
1
1
0.896892
0.934131
0.889715
1.11861
1
1
1
1
1.10949
1
0.898812
1
0.888404
0.898851
1.1186
0.893786
1.11884
1
1
1
0.999353
0.89573
0.889265
1
1
0.887388
1
1.12075
0.890206
1
1
1.12067
0.879522
1
1.11816
0.893879
1.11863
1
0.89252
0.999345
1
1
1
0.898087
1
1
1
1.00001
1.00361
1.07583
1
0.889959
1
1
1
1
1
1
1
1.12048
1
1.12088
1
1
1
0.893591
1
1.11845
0.893428
1
1.09331
1
1
1.12129
1
1
1
1.11752
1
1
1.11548
1.12113
1
1.02931
1
1
0.890078
1
1
1
0.88458
1
1
1
1
0.884661
1
1
1
1
1
0.882698
1.00002
1.11906
1
1
1.11935
1.11977
1
1
0.899938
0.940905
1.12085
1
1
1
1.11859
0.887322
1
1.11887
1
1
0.909586
0.906696
1
0.893432
0.892391
1
1
1
1
1
1
1
1.1195
1.03317
1.11523
0.882327
0.973236
1.12156
1
1.11906
1.12036
0.883185
0.930743
1
0.892135
1
1.12464
1
1
1
1
1.11874
1
1
1
1
1
1
1
1.0465
1.11933
1
1.11864
1
1
0.896509
1
1
1
1
1.11857
1.09285
1
1
0.89493
1.11861
1.11844
1
1.11836
1.11876
1.11868
1
0.948512
1
1.11849
0.997268
1.11865
1
0.888789
0.999675
1.12149
1
1
1
1
0.896063
1.11846
1.10866
1
1.11761
1.11855
1.12076
1
1.06048
1.1187
1
1
1.08524
1.01882
1.11849
0.982461
1.11862
1
1.11868
1.11851
1.1187
1.11842
1
1.11496
0.973162
0.966072
1
1
1
1
1.12023
1
1
1
1
1
1.12112
1
1
0.9989
1.11848
1.10327
1
1.09884
1.00001
1
1
1.11827
1
0.99917
1.00114
1
1.11846
1
1.11874
1
1
1.0904
1
1.11877
1.00001
1
1.11885
1
1.11857
1
1
1
1.11877
1
1.11912
1
1.11871
1.12123
1.11857
1.12055
1
1.12079
1.11634
1
0.898043
1.11199
1.08784
1
1.11882
1
0.889409
0.893968
1
1
1
1
1
0.886774
1
1.1186
1.03434
1.11825
1
1
1
1
1
1.11856
1
1.11868
1.07337
0.930521
1
1
1.03756
1.03123
1
1
1.04778
1
0.900027
1.11866
1.11858
1
1
1
1.1212
1
1.00001
1.11971
1.11845
0.987325
1
1
0.897454
1.10893
1
1
1
1
1
1.11853
1.12112
1
1.1186
1.11872
1.11861
1
1
1
1
0.89458
1.1202
1
1
1.10911
1.11829
1
1.11236
1.11929
1
1
1
1
1
1.1185
1
1
1
1
1.11952
1
1.11631
0.885882
1
0.885255
1
1
1
0.999102
0.894809
0.999714
1
1
1
1.01767
1
1
0.962492
1
1
1
1
1
1
1
0.999999
0.981698
1
1
0.999323
1
0.896634
1
1
1
1
1.0911
1
1
1
1
0.896052
1
1
1.11235
1.12004
1
1
1
0.968836
1
1
1
1
1
1
0.988505
1.00435
1.11848
1
1
1
1.1197
0.971837
1
1
1
1.11963
1.11979
1
1
1
1
1
1
1
1
1
0.892512
1
1
1.11997
0.891916
1
1.11968
1
0.895864
1
1
0.891837
1
1
1
1
1
1
1
1.11654
1.11836
1
1
1
1
1.10922
1
1.04133
0.893781
1
1
1
1
1
1
1
1.0129
1
1
1.06582
1
1
1
1.10015
1
1
1
1
0.891444
1
1
0.88465
0.891606
1
1
1.1185
1
1.01012
1
1
1
1.08579
0.88473
1
0.882171
1
0.937652
1
1
1
1.11902
1
1
1.1185
1
1
1
1.11852
1
1
1.11854
1
1
0.88415
1
1.04124
1
1
1.12166
1.12062
1.08229
1.10727
1
0.886776
1
1
1.1137
1
0.890289
1
1
1
1.11864
1
1
1
1
1.07362
1
1.11499
1.11906
0.881816
1
1
0.895098
0.896593
1
1
1
1.08755
1.09243
1
1
1
1
1
1
1
1.05251
1.12147
1.00324
1
1.11734
0.890909
1
1
1
1.0686
1
1.02568
1
1.10906
1.11821
1
0.888868
1
1.121
1
1
1.11829
1.1119
1
1.12144
1
0.882818
1
1
1
1.11848
1.11649
1.10533
1
1.11935
1.1185
1
1.11891
1
1.11824
1
0.895185
0.993858
0.893584
1
1
1
1
1
1.11859
1
1.11864
1
1
1
1.11331
1
0.896565
1.11848
1
0.89912
0.896322
0.890173
1
1.06254
1.01285
1.11903
1.11848
1
1
1
1
1.11853
1
1
1.11852
1.11853
1
1.04527
0.999944
1
0.999055
1.11991
0.954141
1
0.944845
0.899255
0.899592
1.00031
1.11953
1.1172
1.02458
1.11851
1.11858
1
1
1.12073
1.12027
1.11838
1.12068
1
1.11874
0.897537
1.11962
1.11854
1.12012
1.11926
0.961406
0.973022
0.980894
1.11853
0.989397
1.1186
1
1
1.11914
1.11876
1
0.892608
1.11876
1.11854
1
1.11863
1.11862
1
1.11855
0.897374
1.11995
1.12101
1.12108
1.12012
1
1
1
1.11852
1.08005
0.900101
1.11858
0.891376
1.11852
1
1
1
1
1.11921
1.1187
1
1
1.1187
0.892417
1.11875
0.89832
1
1.11786
1
0.878984
1.11874
0.918743
1
1.11846
1.11892
1.11846
1
1
1.05622
1.11894
0.895631
1.11857
1
1.11855
0.963301
1.11841
0.891978
1
1.11845
0.899856
1.11915
0.895587
1
1.11854
1
1.11889
1
1.07274
1.11456
1.09516
0.882208
1
1.11855
1
1.11865
1
1.11859
1
1
1.11859
0.994941
1.11933
0.876814
1.11166
1
1.08775
1
1.11898
1.1186
1.11865
1
1.1076
1.11834
1.11053
1.07459
1.11552
1
1.08158
1
1.11837
1
1.01956
1
1.11069
1
1.1185
1.11338
1.11346
1
1.11722
0.897881
1
0.884881
1
1
1
1.11936
1
1.1188
1
1
1
1.11894
1.11243
1.09872
1.11862
1.11945
0.887566
1.11614
1.12101
1
1.10304
1.11857
1.11337
1
1.12099
1.12098
1
1.12016
1.119
1.11888
1.1187
1
1
1
1.11846
0.888123
1
1.11858
1
1
0.888124
1
1
1.11856
1.1185
1
1.11854
1.11604
1.11864
0.994708
1.11855
1
1.11855
1.11859
1.0969
1
1
1
1.11883
1.11878
1.11862
0.984127
1
1.12052
1.11881
1.11872
1
1.11882
1.1184
1.11852
1.12107
1
1.11843
1.11974
1.10488
1.11851
1.12073
1
1.11982
1.11745
1.11862
1.11907
1.11839
0.900258
1.11831
1.11883
1
1.11859
1.11857
1.11857
1.11856
1
1.11847
1.11855
1
1.11853
1.10116
1
1
1
1.11921
1.11808
1
1
1.06818
1
1.11866
1
1
1.11857
1.11899
1.11869
1.11856
1
1
1
1.08643
1
1.11849
1
1
1.12038
1.12117
1
1.11859
0.893293
1.11856
1.11944
0.917807
1
0.891995
1.10467
1.11951
1.11854
1.11879
0.875319
1.11839
1.11892
0.877876
0.885426
1
1.11823
1.11875
1
1
1.1185
1
1.11844
1
1.10443
1
1.05767
1.11851
1.11888
1.08708
1.10788
1.11995
1.11904
1.11095
1
0.890864
1.11762
1.11884
1.1197
1
1
1
1.11983
1
1.11868
1.11831
0.927606
1
1.11844
0.999982
1
1.00001
1.00001
1.11883
1.11859
0.999566
1
1
1.11866
1.11906
1.11855
1.11959
1.11823
0.89561
1.10348
1
1.11778
1.11852
1.11857
1.11932
1
1.11857
1.11568
1.11903
1
1.11886
1.11909
0.95916
1.11854
1.11898
1
1.11846
0.947892
1.11878
0.960121
1.11868
1
1.1186
1.12295
1.11862
1.1186
1.11861
1.1199
1.11881
1.11982
1
0.983509
1.11871
1.11839
0.948029
1.1185
0.996072
1.08026
1.11861
1.11923
1.1198
1
1.11928
1.07853
1.11857
0.978393
1.11917
1.12207
1
0.957737
1
1.12141
1
1.08461
1
1.11178
0.96385
1
1.11934
1.1179
1
1.1191
1.11909
1.12127
1.11821
1.11956
1
1.12073
1
1
1
0.972955
1.11854
1.11851
1.11952
1.1186
1.1169
1.11922
1.11662
1.11878
0.975686
1.00897
1
1
1.12359
1.11873
1.1185
1.11856
1.00001
1.06311
1
1.11989
1.105
1
1
0.923982
1.1186
1
1
0.898998
1.11855
1
1.1214
1.11856
1.12008
1.11443
1.11855
1
0.890687
1.03018
1.11863
1.11859
1
1.11854
1.11856
1.06174
1.00294
1.02791
1
1.11889
1.11851
1
1
0.877686
1
1
1.11863
1.11864
1.11909
1.11856
1.11867
1.12043
1.11852
1.11898
1.11859
1
0.998941
1.11878
1.11852
0.999051
1.11856
1.11859
0.890393
0.882577
1.11863
1.11839
1
1
1.00034
1.11835
1.11899
1.11856
1
1.11856
1
0.96423
1.11991
1.11914
1
1.0557
1.11852
1
1.11869
1
1.11843
1.08175
1.11806
1
1.11831
1.12133
0.878962
1.11856
1
1.11921
1.1213
1
0.896133
1.11882
1.10056
0.999363
1.11664
1.11857
1
1.0005
1.11847
0.999443
1.11864
1
1
1.1186
1
1.11911
1.11854
0.999031
1.09474
1
1.11856
1
1
1
1
1.11857
1
1
1.12142
1
1.11856
1
1.07907
1.11971
1.11847
1
1
0.998262
1
1.11902
1.1186
1.11883
1.11855
1.11895
1.11845
1.1186
1
1.11852
1.11879
1
1.11853
1.11845
1
1.11846
0.983784
1.01662
1.11859
1.11843
1.11845
1
1.11857
1
1.11851
1.1185
1
1.11867
1
1
1
1
1.1184
0.884072
0.999413
1
1.11849
1.11979
1
1.11852
1
1.00131
0.895861
1.11858
0.999884
1
1.11852
0.99954
1.11852
1
0.999936
1
1.11883
1.12043
1.11837
1.11918
0.893676
1.11874
1.11884
1.11868
1.0314
1
1
1.05399
1.11866
0.88677
0.893629
1
1.11905
1.11854
1.11815
1
1
1.11912
1.11835
0.999965
1
1.09071
0.891238
1
1.02298
1.12119
1.11545
0.999497
1.11858
1.12072
1
0.999727
1
1.11848
1.11957
1.05109
1
1.1119
1
1.00053
1.11859
0.891015
1.11853
1.11862
0.999133
0.999976
1.10255
1
0.999912
1
1.11902
1
1
0.893733
1.11865
1
1
1
1
1.11793
1.0702
1
1
0.889778
1.11854
1.07022
1
1
1
1.11346
1.11698
1.11964
1
1
1.12005
1
1.11864
1.11874
1
1
1.11899
1.11867
1.1145
1
1
1.11908
1.11868
1
1
1
1.11868
1
1
1
1.11853
1.11963
1.11896
1
1.11817
1.00001
0.91474
1.11838
1.11831
1
1.11904
1.11285
1.11953
1
1
1.11926
1
1.07009
1.1186
1
0.887103
1
1.11893
1
1
1.11968
1
1
1
1.03968
1.11861
0.905593
1
1.11876
1
1
1.11876
1
1.11946
1
1
1.1186
1.11855
1
1.00001
1
1
1
1
1
1
1.11792
1.11867
1
1.12143
0.889557
1.118
1
1.11862
1.12103
1.11854
1.11958
1.12163
1
1
1.11907
1
1.07826
1.11958
1.11854
1
1.11921
1.11834
1
1.10611
1
1.11857
1.08029
1.1187
0.999317
1.11696
1.10929
1.11877
1.11866
1.01105
1.11855
1.11909
1
1.11851
1
1.11854
1
1
1
1
0.998741
1.11858
1.11852
1.10019
1
1.11923
1
1
1
0.888829
1
1.11633
1
1.10885
1.11173
1
1
1
1.11061
1.12004
1
1
1.11842
0.888008
1.02323
1
1.11956
1.11838
1.10903
1.11607
1.11855
1
1.11866
1
1
1
1
1.11912
1.11872
1
1.1179
1.01818
1.11873
1.11126
1
1
1.11161
1
1
0.888886
1.08632
1
1
1.12078
1
1.11925
1.10947
1
1.1092
0.889629
1.11835
1.11858
1.11873
1
0.894524
1
1
1
1.11855
1.09777
1
1.12089
1.11871
1
1.11865
1
1
1
1
1.11873
0.999809
1
1.11897
1
1
1.11749
1.11854
1
1.12
1.0243
1.00001
1
1.11852
1
1.11846
1
1.00332
1.11856
1
1.11862
1
1
1.04192
1.11902
1
1
1
1
1
0.998843
0.890357
0.894099
1.00551
1
1.00726
1
1.00631
1
1.11856
1
1.07665
1
1.1186
1
1
1
1.11864
1
1.09472
1.11838
1
1.06606
1.11859
1
1
1.1191
1.11859
1
1
1.01509
0.878285
1
1.11885
1
1
1
1
1.02164
1.11861
1
1
1
0.883428
1
1.11862
1.11847
1.12004
1
1
1
1
1.06181
1.12023
1
1
1
1.11888
1.11859
1.0177
1
1
1
1.11839
1.11858
1
0.889223
1.11843
1.11852
1.1183
1.11865
1.11843
1
1
1.12003
1.11824
1.11865
0.885081
1.01166
1.11861
1
1
1
1
1
1.11878
0.892279
1
1
1.11859
1.05562
1
1.1198
1
1
1
0.892492
1
1
1.03253
1.11839
1.11843
1
1.11679
1.12021
1
1.02349
1
1.11956
1
1.11845
0.888587
1
1
1
1
1.11863
1.00002
1
1
1
1.11488
1
1
1
1
1.11832
0.889675
1.09538
1.1193
1
1.11869
1
1
1
0.999191
1
1.12136
1
0.943622
1
1
1.00001
1.11862
0.897575
1
1.11788
1
1.11867
1.1186
0.882903
1
1
1.11544
1
1
0.885504
1
1.11699
1
1.11375
0.999805
1.11859
1
1
1
1
1.12031
1
1
1.11851
1
1
1
1
1
1
1
1
1.08061
1
1.04092
1.11872
1
1
1
0.888028
1
1
1
1
1.11835
1.11854
1.01867
1
1
1.11876
1
1
1.11895
1
1
1
1
1
1
1.11835
0.937491
1.11857
1.11897
0.999199
1
1
1
1.07352
1
1
1.11848
1.11869
1
1
1
1
0.885312
1
1
1
1.0774
1
1.11855
1.11911
1
1.11899
1
1
1
1.06673
1
1.12084
1
1.11858
1
1
0.998908
1.11858
1
1
1
1
1
1.11916
1.00001
1
0.888222
1.11838
0.895528
1
1.11803
1
0.998805
1
1.11871
1.11948
1
1.11717
0.969831
1.11849
1.12052
1.00001
1
1
0.890016
1
1
1
1.11857
1.07209
1.11874
1
1
1
1
0.999046
1.11891
1
0.889178
1
1
1
1
1
1
1
1.12061
1.11915
1.11902
1
1
0.999104
1
0.993379
1
1
1
0.89441
0.991531
1
0.885143
0.88736
1
1.11867
1.11848
1
1.11867
1.11856
0.888525
1.07913
1
1
1
0.890837
1.11877
1
0.890524
1
1.12022
1.02312
1
1
1
1
1.11851
1.12048
1
1
1.11848
1
1
1.11945
1.11856
1
1.11208
1.11842
1.11948
0.991393
1.11911
1.00246
0.888243
1.09331
1.11875
1
1
1
0.894975
1
0.889448
1.1196
0.990809
1.11855
0.988534
1
1.11851
1.05859
1
1
1.11907
1
1.0524
1.11838
1
1
1.11942
1.12026
0.890713
1.07524
0.999969
1
1.07472
1
1.11717
0.986456
1.12092
1.12012
1
1
1
1
1.11875
1
1
1.11898
0.999895
1.11891
1.09669
1.11753
0.893528
1
1
1
1
1.11887
1.00001
1.11861
1
1.11891
1.11795
1.01658
1.11806
1.04138
1.11884
1
1.0846
0.898549
1.12036
1.11858
1.09956
1.02349
1.12014
1.11851
1.11863
1.11851
1
0.976052
1.01964
1
1.11851
1.05797
1.1187
1.00001
1
1
0.893036
1.11961
1.1198
1.09787
1
1.04885
1
1.11984
1.11923
1
1.11881
1.11951
1
1
1
1.11885
1
1.05001
1.11873
1.08547
1
1.11847
1
1
1
1
1
1
1
1
1
1
0.891559
1
1.11032
0.898063
1.07312
0.999588
1.11968
1
1.06624
1
1.07956
1.10373
1
1.00054
1.12022
0.97572
1
1.11887
1.11501
0.985866
1
1.11911
1.11893
1.11896
1
1.11854
1.11901
1.1192
1
1.05577
1
1.00002
1.11885
1
1.11872
1.01875
1.11828
1
1
1.11861
1.11861
0.89106
1
1.11844
1.09129
1.11844
1
1
1.11971
1.11778
0.999498
1
1.10357
0.999113
1.11863
1.00001
1
1
1
1
1.0558
1
1.09398
1.11872
1.09101
1.11857
1
1.00078
1
1
1.11924
1
1.1194
1
1
1
1
1
1
1.01622
1.06551
1
1
0.902418
1
1.11814
0.899701
1.12093
1
1.06479
0.999931
1.11894
1.07962
0.897187
1.06756
1.00001
1.11853
1.11896
1
1.07487
1.11868
1.11901
0.999545
1.11794
1.11567
0.89413
1
1
0.999296
1
1.11541
1
0.898943
1.11875
1
1
1.10521
1
1.11886
1
1.11871
1
0.897177
1
1
1.11918
1.1206
1.12059
1
1.11836
1.11858
1.1165
1
1
1.11756
1
0.919152
1
1
1
1.11916
1
1.11844
1.08
1.11807
1
1.11858
0.999826
1
1
1
1
1
1
0.912683
1
1
1.1185
1
1.11993
1.11989
1
0.890758
0.890258
1
1.11893
1.02071
0.891715
0.884421
1
1.11911
1
1.11852
0.876672
1.00049
1
1
0.999859
1
1
1
0.999974
1.0515
1.11866
1
1
1.11869
1.07273
1
1.10545
1.11881
1.11815
1.05234
1.11948
1
1.11887
1
1.11591
1
1.11954
1.11811
0.999061
1.11932
1.119
1
1
1
1
1
0.977128
1.12048
1.00001
1.00001
0.901231
0.999994
0.89078
0.89101
1
1.11939
1.11865
1.11881
1
1.11849
1
0.891291
1
1
1.11909
0.952144
1.1187
1
1.11901
1
0.995895
1.11844
1
1
1
1.11924
1
1.1183
0.888949
1
1
1.07257
1
1
1.06722
1
1
1.11837
1
1
1
1
1
1.1197
1.11862
1
1.11898
1.11911
0.888915
1.05818
1.11828
1
1
1.10798
0.999716
1
1
1.11853
1.11781
1.08161
1
1.11928
0.895059
1.11069
0.999856
1
1.11899
1.00001
1.11816
1.09901
1.09244
1
1
1.11869
0.91301
0.895967
1
1.11875
1
1.11845
1
1.07421
1
1
1.11837
1.07953
0.891236
1
0.999539
1
1
1.00725
1.0524
1.11867
1
1.12022
1
1
1
1
1
1
1.01924
0.888349
1
1
1.01086
1
1
1
1
1
1.11857
1
1
1.11846
1.1185
1.08694
1
1
1
0.953423
1.11988
1.08574
1
1
1
1
1.11868
1
1
1
1.1187
1
1
1.08791
1.12312
1.01377
0.921939
1.11973
1.08761
1.11841
1
1.06344
1
1
1
0.888485
1.00048
0.893847
1
0.882036
0.883695
1
0.889075
1
1
1
1.05577
1
1.11859
1.11879
1.00046
1.05913
1.10202
0.891695
0.937885
0.968325
1
1.11861
1.1196
1.11858
1.11859
1.10292
0.969351
1
1.10356
1
1.11294
1
1
0.99902
1.00257
1
1
1
1.11911
1
0.898698
1
1.11904
0.898944
1
1
1.11857
1
1.11862
0.999962
1
1
1.11866
1.11275
1
1.12288
1
1
1.00422
1
1.05428
1
1
0.888867
1
1
1.11904
1
1.11818
1
1.00001
0.899752
1
1
0.904878
1.00031
1
1.11905
0.88544
1.11846
0.893137
1.11862
1
1
1
1
1
1
1
1
1
1
1
1.11411
1
1.1189
1.12003
0.888117
1
1
1
1
1
1
1.11563
1
1
0.892157
1
1
1.11924
1
1
1.04846
1.10125
0.891714
0.88263
0.914082
0.921524
1
0.999064
0.904967
1.00015
1.11054
0.99914
1
1
1.11937
1
1
1
0.935435
1
1.04593
1
1
1.05287
1.11845
1
0.897248
1
1
1
0.99901
1
1.11801
1.11859
1
0.890974
1
1.06701
0.888692
1
0.969032
1
0.998783
0.883021
1
1
1
0.998737
0.885413
1
0.887148
0.999552
1.06712
1.10821
0.884593
0.897256
1
0.997338
1
0.99961
1
1.11883
1.11831
1
1.00564
1.11912
1.11853
1
1
1.11853
1
1
1.00001
1
1.12047
1
1
1.00522
1
0.999592
0.909975
1
1
1
1
1
1.11852
1.0113
1.00001
1
1
1
1
1
1.00001
1
0.888933
1.02765
0.999594
1.11498
1.1196
1
1.00434
1.11904
1.10421
1
1
0.890216
1.1187
1
1.11969
1
1.11861
1.08313
0.891987
1
0.890656
1.10989
0.999907
1
0.887673
0.890613
1
1
1.10162
1
1
0.885326
1
1
1
1.04151
1
0.888566
1.1189
1
1
1
1
1.11859
1
1
1.11934
1.10754
1
1
1
1.11868
0.888015
1
1.11903
1.11861
1
1.09648
1
1.00001
1
1
1.11174
1.00588
1
0.901949
1.06599
1
1
0.999344
1
1
1.11996
1
1
1.00001
1
1.1195
1
1
1
1
1
1
1
1.05697
1
1.11828
1
1
1.11886
1
1
1
1.11861
1.11925
1.01249
1
0.999291
1
1
1
1
1.11992
1
1
1.11856
0.888743
1
1
1
1
1
1
1.09809
1
1
1.11911
1.11921
1
1
1
1.11913
1.11809
1
0.999906
1.11755
1
1
1
1.00001
0.906207
1.00856
0.998814
0.998854
1
1
0.898731
1.11888
1
0.884908
1
1.11846
1.11409
0.893686
0.999831
1.11868
1.11923
1.11833
1
1
0.979142
1.1068
1.10057
0.888342
1
1
1
1.11793
1.11858
0.887884
0.999235
1
1.1186
0.904114
1
1.1162
0.88966
0.99601
1.00205
1
1.11956
1
1
1
1
1
1
1.00003
1.11116
1
1
1.11788
1
1
1
1.1185
1
0.88849
1
1
1
1.04403
1
1
1
1
1
0.934573
1
0.906178
1
1.11869
1.00001
0.96382
0.964261
1
1.00106
1.06647
1
1
0.891003
1.11858
1.11872
1.11846
1
0.886186
0.886484
1
1.11849
1
1
1
1
1
1.00001
1
0.894314
1.0798
1
1
0.88855
0.996433
1
1
1
1
0.885154
1
0.910857
1
1
1.12081
1
1
0.889769
1
1.11844
1
0.892437
1
0.890538
1
1.00227
1.11824
1.12307
1
1
1.12014
1
1
1.02808
0.999117
1
0.999474
1
1.11926
1
0.889046
1
1.12054
0.999679
1
1
0.931219
1
0.999718
0.890851
1.11912
1.04599
1
1
0.967949
1
1
1
0.93869
1
1
1
1.11858
1
0.892425
1
1
1
1
0.889164
1.11868
1.10781
0.892064
1
1.12049
1
1
1.11858
1.11958
1.10181
0.888222
0.999336
0.999769
1
1.11857
1
1
1
1
1.11831
1.00001
1
1
1.11959
1
1
1.11849
0.88607
1
1
1
0.892717
1
1
1
0.999627
1
1
1
1
1.09893
1
1.11993
1.11875
1.12064
1.11852
1.11866
1.11842
1
1.11866
1
1.11869
1.11853
1
0.999672
0.889496
1.10345
0.999972
1
1
1
1
1.00002
1
1.01918
1
1
1
0.95239
1.11848
1.11829
1.1196
1.10363
0.999964
1
1.00672
1.11897
0.99941
1.01828
0.999143
0.883928
1
1.00001
1
1
1
1
1
1.11853
0.891068
1.11838
1.1185
0.998672
0.894509
1
1
1
1.11852
0.885085
1.10594
0.89052
1.11877
1.12036
0.891919
1.11895
1.00696
1
1.11927
0.938971
1
0.999645
0.897963
1
0.88818
1
1.11844
1.11874
0.926062
1
1.11891
0.88534
1
0.890294
1
1.11835
1
1
1.11842
1
0.950788
1
0.999913
0.889138
1.11752
0.99985
1
0.891977
1
1
1
1
1.07079
1
1.11837
1
1
1.12245
1
1
1.11902
1
0.896007
1
0.898392
1
1
1
1
1
1.11381
1.07147
1.11848
1
1.11851
1.11086
0.884592
0.897889
1
1
1.11828
1
0.894318
1
0.99689
1
1
1.11884
1
1.11855
0.901168
1.12043
1
0.901098
1
1
1.11969
1.11833
1
1.00001
1
1.11791
1
1
0.887262
0.999835
0.901989
1
1
1
1.11898
1.11826
1.11921
1
1
0.888736
1
1.11854
1
1
1
1.11226
1.11848
1.11838
0.881438
1.1192
1.11855
0.892684
1.1193
1.00001
0.895471
1.00498
1
1
1.11889
0.883106
1.07938
0.887715
1.11851
0.999247
0.890567
1.11891
1
1
1
1
1.11848
1.11984
0.890843
1
1.00001
0.889304
1.00001
1
0.894457
0.89969
1.08607
1.1191
0.999566
1.1184
1
1.11989
0.946242
0.888629
1.11855
1.12206
1
1.11847
1
1
1.11877
1
1.09204
1.11926
1
1
1
1
1.11842
1.11741
1.11937
1
1
1.11917
1.1201
1.11934
1
1.11842
1
1
1
1
1
0.888626
0.953241
0.897839
1
1
1.11907
1
1
1.11893
0.889641
1
1.11876
1.11741
1.11408
0.88531
1
0.881984
1
1.00001
1.11972
1.05959
1.11968
1.10943
1
0.887618
1
1.11923
1.08679
0.89204
1
1
1
0.944844
1
1
1.1221
1
0.891626
1.11867
1
1
1
1
1
1.09764
1.02848
1
1.11868
1
1.11796
1
0.999235
1
1.1184
1.11961
1.11858
1.11948
0.999878
1.1196
1
1.11856
1.11832
1.102
1
1
0.894646
1.1202
1
1
1.11953
1.1185
1.11797
1
1.11844
1
1
1.00001
1.1201
1.11909
1.03626
1.02729
1.1185
1.11824
0.906855
1
1
1
1
1
1.04383
1
1
1.10217
0.903123
0.999989
1
1.11867
0.999969
0.999946
1.01879
1.10852
1.12059
0.973782
1
0.897549
1
0.999367
1.1185
1.11905
1.11734
0.999712
1
1
0.892767
1
1
1.1185
1.01408
1
1
1
1
1
1
1
0.999983
1.11961
1
1
1
1
1
1.0779
1
1.05891
1
1
1.11849
1.12002
0.88955
0.99965
1
1
1
0.890634
1.11923
1.1186
1
1
1
1
1
1
1
1
1.11909
1.11682
0.895713
1.01448
0.893025
1
0.889512
1
1.11872
1.03623
1
1
0.906242
1
1.11426
0.945439
0.999013
0.887749
1
1
1.11893
1.00001
0.999186
0.887629
1.11967
1.12078
1
1
1
1
1.1114
1
1
1.11854
0.999679
1.11909
1.00003
1
1
0.896796
1
1
1.1186
0.889176
0.936052
0.898811
1.11875
0.999816
1
1.1183
0.886538
0.894767
1.00338
1
1
1.12002
1.00001
1.05529
1
1
1.11985
0.891798
1
1
1.00004
1.11912
1.00005
1.11594
1
1.00001
1
1
0.912005
1
0.934269
1
1
1.11935
0.899086
1
0.924996
0.941813
1
1
1.11852
1
1
1
1.11875
1.1187
1.00001
1.1199
1.12046
0.930413
1.11861
1.11213
1
1
1.11967
1
1
1
1
1
1.11956
1.11866
1
1
1
1.11826
1.00006
1
0.889986
0.915433
1
1.00001
1.04612
1
1
0.97164
0.882818
1
1
1
1.11983
1.10968
1.11863
1
1
1
1
0.899364
1
1.11465
1
1.11731
0.883412
1.1174
1
1
1
0.88559
1
1.11876
1.00001
1
0.892203
1.04647
1
0.999901
1.12013
0.887079
0.895906
1
1.11952
0.889853
0.889317
1
0.900169
1
1
1
1
0.882422
1
1
1
1
1.11919
1
1.09353
0.889873
1
1
1
0.889649
1.11857
1
1
0.999046
1.11624
1
1.11847
1.11918
1
1
0.917182
0.889558
1
1
0.896311
1.04246
1.05773
1
1
1.11944
0.999248
1
0.99934
1.12074
1
1
1
1
1
1
1.11872
1
1.04502
1.04149
0.903279
1.10638
1
1.11846
1.11866
1
1
1
0.974482
0.898277
1
1.06553
0.999897
1.10904
1
1
1
1
1
1.00192
1.05683
1.11893
1.1189
1
1.11861
1
0.881177
1
0.999302
0.999941
1
0.880853
1
0.891637
1.00001
1.1194
1.12026
0.890023
1.11996
0.889829
0.99893
1.0924
0.883144
1.08722
1
1
0.999551
1
1
1
1.00002
1
0.88841
1
1
1
1
0.999884
1.11885
0.940968
1
1
1
1.0106
1
1
1
1.07088
0.92631
1
1
1
1.01661
1.12042
1
0.890934
1
1.11897
0.973117
0.884842
1
0.890291
1
1
1.11278
0.999496
1.11184
1
1.00249
1
1
1.11845
1
1
1
1
1.02631
1
1.11849
1.11908
1.12001
0.892025
1.11868
0.999195
1.09902
1
1
0.880452
1
1
0.894695
1.11863
1
1
0.999992
1
1
1
0.884845
0.88279
1
1.12016
1
1.05721
1.11864
0.889645
1.10302
1
1
0.902902
1
1
1.11864
1.1184
1.04619
1
1
1.00044
1.11994
0.890329
0.889922
1.11985
1.11853
1.0826
1.05042
1
0.970343
1
1
1
1.10985
1.11996
1.11919
1
1
1.11832
0.890175
1.108
0.885006
1
0.891624
1
0.888714
1.11863
0.888504
1
0.993486
0.901542
1
1
1
0.954732
1.1123
1.11875
1.11935
1.11954
1
1
1.11957
1
1
1.11907
1
0.883427
1
0.901357
1
1.11952
1
1
1.00758
1.09272
1
0.999668
0.874967
1.11849
1
0.895452
1.02487
1
1
1.09134
1.11842
1.1186
1
1.11827
1.03665
1
1.00711
1.11856
1
1
1
1
1.11855
1
0.899753
1.11901
0.89023
0.900195
0.951083
1.11845
1.0452
1.11918
1
1.11984
0.999301
1.00001
1.11856
1.11999
1
1.1192
1
1.11852
1
1.11997
1
1.00001
0.999993
1.11932
0.884945
0.894976
0.999376
1
1
1
0.894145
1
1.08176
1
0.889601
1
1.05026
1.11855
1.11723
1
1
1.00001
0.99982
1
1.11973
1.11847
1
1.05271
1.11884
0.955184
1.11853
1.00004
0.891349
1.02782
0.885038
1
1
1.02226
1.12032
1
1
1.01282
0.999611
1
0.894409
1
0.936924
1
1.11814
1
1
0.883881
1.03191
1.01986
0.999576
1.11859
1.11861
0.933283
0.999454
0.885277
0.882855
0.889157
1
1
1
0.999751
0.922046
0.892851
1
1.11856
0.999927
1.11851
1.11854
1.12024
1.11837
1
0.884608
1.11858
0.895668
1
1.11825
1.11826
0.999064
0.943877
1.11819
1.09061
1
0.887299
1
1
1.11849
1
1.0076
1.11832
1
0.898568
0.889451
1
1
0.891147
0.874449
1.11857
1.00001
1
0.894448
0.886332
1.1183
1.11696
1.11174
1.11984
1.03561
0.995729
1.05114
1.12008
1.09688
1
1.06634
1
0.875642
0.961397
1
0.893737
1.11841
1.0065
1.11881
1
1.11868
1.11947
1
1.11873
1.11857
0.891422
1.11937
1
1.12343
1
0.92146
0.892001
1.11885
1
1
1
0.89191
1.11867
1.11887
1
0.893035
1
1
0.895345
1.00001
0.887065
1.11967
1
0.939592
0.874867
1
1
1.07181
1
1
1
1.02217
0.892317
1
1
1
1.1189
0.890657
1
1.1185
0.894654
0.883765
1
1
1.11951
1
1.11863
1
1.11858
0.893564
1
1
0.887859
0.944314
0.901425
1
1
1
1
1.11897
0.884449
1
0.891064
1
1.11882
1
1
0.977472
1
1
0.947884
0.999912
1.00001
1
0.890412
0.89711
1
1
1
1
0.930035
1.11833
1.11987
1
0.888417
0.875371
0.971046
0.893161
1
0.94465
1
0.892867
0.996029
1
1
0.892196
1
1.11876
1.11578
0.891958
1
1
1
1.11552
1
1.01493
0.9574
1.04118
0.888943
1.04949
0.888243
1
1
0.906414
0.974869
1
1.01469
1
1
0.883173
1
0.981194
1.01672
0.890581
1
1.09813
0.921797
0.966385
1
1
1
0.896582
1
0.891439
0.894206
1
0.961568
0.891805
1.02202
0.927073
0.884627
1.11851
1
1.11846
1.06819
0.914706
1.1185
0.896461
0.99971
1.11972
1
1
1.11833
1
0.911826
1
1.02181
1
1
1.11853
1
0.929512
0.946817
1.12031
0.982758
1
0.929736
1.11856
1.11906
0.974956
1
1.11875
1.03359
0.95533
1
1.00669
1
0.894667
1.05413
0.928465
0.914053
1
1
0.894889
1.11832
0.98953
0.891747
0.886609
0.955585
1
1.00652
1.11949
1.11846
1
1
1
0.892274
1.06096
0.999996
1.11876
1.11443
0.892297
1
1.0256
0.965438
1.07356
1.10793
1
1.01389
1
1.00002
0.892861
0.953984
1
1
0.945481
0.895393
1.01292
1
1.00001
0.885434
1.05863
1
1.11587
1
1.01422
1.06903
1
1.1152
1
1
1.11911
1
0.884848
1.11971
0.899031
1.03482
1
0.889763
0.999976
1
1.00001
1
0.938048
1.00804
0.891399
1.08875
1.12023
0.883588
1
1
1
1
1
0.990544
0.887176
1.01681
0.891355
0.889426
1.02347
1
0.999944
1.03296
1
1
0.88519
0.997758
1
1
1.03724
1
1.11923
1
1.11962
1.02517
1.00889
0.889637
1
1
0.894904
1
1
1
1
1.11917
1.01229
0.999438
1
0.884991
1.01493
1
1
1.08122
1
0.8854
1.11849
1
1
1
1.11875
0.896265
0.964506
0.893752
1.09222
1.11885
1
1
1.11855
1
0.878914
1
1
1
1
1
0.928378
1
1.11922
1
1
1.04405
1.1193
0.88747
0.962927
1
1.11862
1
1
1
1
1
1.11844
1.11969
0.874253
1.11846
0.883431
1
1
1.11863
1
1.11988
1.00223
1.00762
1.01965
1.11857
1.02061
1.08416
0.884574
1
0.885215
0.998105
1
1.11855
1
1
0.88465
1.119
1
1.11927
1
1
1
1
1
1
0.893317
1.11974
0.954284
1.11861
1
0.890398
0.890276
0.914742
1.1208
1.11835
0.992711
1
0.933333
1
1.05012
1
1.1185
0.883355
0.890831
0.957117
1
1.11838
1
1.02224
0.896459
1
1.11971
1.10764
0.999687
1
1.11882
0.891227
1.11965
1.11885
1.11909
0.891447
1.02428
1
1
0.8846
1
0.94135
0.951249
1
1.00001
1.11858
1
1.11916
1.02452
1
1.01347
1.11959
1
0.897355
1
0.932366
1
1
1.09989
1
0.93439
1
0.893835
1.01072
0.987928
0.882332
1.11868
1.09987
1.12006
0.891604
0.903875
0.998854
1
1
0.896365
1.11257
0.889323
0.999991
1
1.11846
1.11919
0.97261
1
0.889891
0.910862
1.08258
0.991854
0.884573
1
0.888286
1.03378
0.892226
1
1.00002
0.939433
1.11988
1.11898
0.952281
0.999889
1
1
0.921224
1
0.889539
1
0.875491
0.889779
1
1
1.00001
0.892313
1.11853
1
1
1.00002
1.00001
0.884643
1.11897
1.11852
1
0.891142
1.12009
1
1.02499
1
1
1.11876
0.888272
1
1
0.886205
0.916506
0.891361
0.895802
1
0.902142
0.999201
1.02523
0.885422
1
1
1.03661
1
1.10664
1
1
1.08686
0.895463
1
0.883925
1.03684
1.11848
1
1
0.897264
0.890115
0.882546
0.919126
0.889222
1.09121
0.99983
1
1
1
1
1.11861
0.894242
1
0.982342
0.999906
0.999618
0.999982
0.917629
1.03719
1
1.11863
1.11838
1
1
1.11528
1.00001
1
1.11855
0.889102
1.11919
1
0.884181
1.11852
1.00001
1
0.94248
1
0.884823
1
1.11987
1
1
1.11922
1
1
1.11815
1
1
1
1.12058
1
0.922854
0.90588
1
0.882823
1.11832
1
1
0.991118
1
1.11921
1.07067
1.09777
1
1
0.891468
1
0.881511
1.11832
1.11974
1.11913
1
1.12002
0.890968
1
0.881654
1.09726
1.10959
1.11934
1.11862
0.931802
0.885663
1
1.07795
1.11948
1.11968
1.11861
0.920366
1.0464
1
1.09237
0.917464
1
1
1
1.00001
0.970204
1
1.11844
1
1
1
1
1
1
1.00002
1.11822
1
1.11955
1.09063
0.889476
1.12001
1.01151
1.06287
1
1.11867
1
0.889913
1
1
1
1
1.10271
1
0.885695
1.11894
0.878704
1.1185
1.09646
1.06574
1
1.02458
1.06012
0.998767
0.882408
0.932393
1.00001
1
0.975801
1
0.883038
1.11928
0.888424
0.979139
0.9635
1
1
1
1.00416
1
1
0.88325
0.999108
1.12036
1
1.11846
1
0.891275
1
1
1.11848
1.11853
0.887013
1
1.11901
1
0.950589
0.884477
1.11959
1.10782
1
1.02174
1.11876
0.999624
1
1.05221
1.10566
1.11831
0.99868
1
1
1.10233
1
1
1
1.11853
0.999579
1
1
1.11837
1
1
0.893446
1
1
1
1.11962
1
1
0.957238
1.04217
1.10876
0.926033
1
1.11858
1
1.04452
1
1.11919
0.999237
1.11854
1
0.889844
1
1.08862
1
1
1.11156
1
1.11868
1
1.11796
0.896165
0.8906
1.11952
1
1.10152
1
1.11923
1
1
1.00001
1.11892
1.11898
1.03472
1.11847
0.998752
0.882312
1.11888
0.956048
1
1.11977
1
1.11832
1
1.11902
1.11906
0.998989
0.888097
1
1.11855
1
1.01179
1
1
0.999429
0.922199
1.10749
1
1.10965
1
0.963504
0.883257
1.11869
1.11859
0.900891
1
1.11881
1.11971
1.11892
0.901844
1.11835
0.888544
1.11914
1.11699
1
1
1.11865
1
1
1
1
0.889831
1
1
1.11982
1.11854
1
1.11857
1
1.12038
1.11977
1
1.10093
1
0.885141
1.11863
1.09025
1.03794
0.880818
1.11851
1
1
0.886012
1
1
1.11856
1
1
0.941183
1
1.11854
1.00003
1.11838
0.880126
1.11975
1
1.11858
1.11453
0.970634
1
1.11857
0.928517
1.1196
1.08662
1.11862
1.11817
0.999166
1.11985
1.11833
1.11854
1.11872
1.00018
1
0.885205
1
1.12031
0.94878
1.10901
1
1.11652
1
1
1
1
1
1.11806
0.884689
0.887574
1.11879
1.11854
1
1
1
1
1
1.11775
1.1106
1.11856
1.00704
1
1
1
1.00001
1.11824
1.11855
1
1.11938
1.11984
0.890063
1.08638
1
1.11867
1.11967
1.11789
0.999375
1.11879
1.11878
1
1.10844
1
1
1
1
1
1
1.11869
1.1201
1.11119
1.11851
0.885851
0.910023
1.1186
1.11854
1
0.880072
0.985745
1
1.06099
0.885916
1
0.999842
0.999512
0.889479
1
1.11843
1
1
1
1.11919
0.988463
1
1.11838
1.1186
1
1.11919
1
1
1.11855
1
0.886765
1
1.11792
1
1
0.890834
1
1.1186
1
0.885296
0.892239
1
1.1182
1
0.884392
0.965115
1
1.11856
1
1
1
1.1197
1
0.889919
1.01819
1.11911
1.11908
1.11854
1.01434
1.11903
1.11849
1
1
1
1
1
1.11863
1
0.999797
1.11861
1
0.886304
1
1.11861
1.06042
1.01712
1.05911
1.01883
1.11874
0.904359
1.1186
1
0.890723
0.999225
1.11859
0.986527
1.11852
1.11882
1.11824
1
1.11892
1.11864
1.11857
1
1.00001
1
1
1.11949
1.08627
1
1
0.889029
0.999062
1
1.11865
1
1.1185
1.11886
1.11824
0.977599
1.11881
1.11814
1.00324
1.06109
1.11951
1.1189
1
1.11034
0.948812
1.11706
0.998739
1.11854
1
1.11859
1.11842
1
0.891816
0.985438
0.908872
1
1.02344
0.999055
1.11886
1
1
0.999134
1
1.06117
1.11391
1
1
1.11883
1
1
1.0865
1.11839
1.11422
1.11881
1.11881
1
1.11842
0.919453
1.11876
1
0.999474
0.888499
1
1
0.928526
1
1.04137
1
1.11904
1
1.1165
1.07806
0.889171
1
1
1
1
1
1.11881
1.00325
1
1.11989
1
1.1187
1.11853
1
1
0.992679
0.999957
0.891675
0.883324
0.918117
1.02602
1
0.999535
0.898505
1.00001
1
1.11831
0.98212
1.11128
1.10203
1
1
1
1
1
1.11881
1.11864
1
1.11901
1
1.11926
1.08276
0.998806
1
1
1
1.07046
1
0.987141
1
1.11832
1
1
1.11856
1
1
1
1
1
1.11868
0.885979
0.998896
1.10751
1.11852
1
1.11858
1
1
1
1
0.905396
1
1.11861
1.11869
1.11839
1.12045
0.988659
1