/*--------------------------------*- C++ -*----------------------------------*\
  =========                 |
  \\      /  F ield         | OpenFOAM: The Open Source CFD Toolbox
   \\    /   O peration     | Website:  https://openfoam.org
    \\  /    A nd           | Version:  12
     \\/     M anipulation  |
\*---------------------------------------------------------------------------*/
FoamFile
{
    format      ascii;
    class       surfaceScalarField;
    location    "4.125";
    object      phi;
}
// * * * * * * * * * * * * * * * * * * * * * * * * * * * * * * * * * * * * * //

dimensions      [1 0 -1 0 0 0 0];

internalField   nonuniform List<scalar> 
69079
(
-0.000160015
9.13643e-05
6.65227e-05
0.00012751
5.33723e-08
-0.000127599
-0.0001327
0.00013255
0.000128998
-1.56201e-06
-0.000131155
-1.65333e-06
-0.000131203
7.62893e-05
-0.000147955
6.69652e-05
6.09967e-07
0.000120315
-0.000116169
0.000130376
-0.000130335
3.17859e-08
0.000129785
6.03604e-07
-0.000100024
-6.10258e-05
-0.000123604
0.00013215
-8.41195e-06
-0.00012815
0.000125478
2.70785e-06
-0.000127527
-6.19389e-07
3.51115e-06
-0.000112319
0.000108808
0.000129766
6.90243e-09
0.000129153
5.82997e-07
-0.000129725
0.000128114
1.65343e-06
-0.00012833
-1.39038e-06
0.000129616
-0.000128877
-7.01571e-07
0.00012865
9.65858e-07
0.00012648
-0.000128801
2.3518e-06
-0.000139066
1.33437e-05
0.000125722
0.000150153
-9.88691e-05
-5.16284e-05
0.000126442
-1.75738e-05
-0.000111048
-0.00012894
-1.35633e-06
0.000129085
5.54709e-08
2.37809e-07
3.55581e-08
0.00012763
-0.000118886
0.000121294
-0.000126219
5.00643e-06
0.000122937
-0.000133194
1.02402e-05
0.00014344
-2.04895e-05
0.00012789
7.51869e-07
-4.51511e-07
-0.000128671
2.382e-05
0.000104842
0.000127783
-0.000127828
2.90645e-08
2.43579e-07
-5.33898e-06
0.000111601
-0.000117917
-1.13988e-05
-0.000127667
0.000103695
2.37332e-05
-0.000130063
-0.000137909
1.69056e-05
0.000127011
-0.000127052
2.87229e-08
-6.20232e-06
-0.0001133
0.000141948
-2.4666e-05
0.000126677
1.45486e-06
-1.16843e-06
-7.45111e-05
0.000142299
-6.77877e-05
0.000124618
-0.000124616
1.36915e-08
0.000142937
-1.83238e-05
0.00012112
2.18007e-05
0.000142096
-2.104e-05
0.000119621
-3.76205e-06
-0.000115852
-0.000124678
0.000131092
-2.5608e-05
-0.000129633
0.000131376
-2.01147e-06
-0.000131254
5.58174e-05
7.36923e-05
0.000123649
-0.000123596
2.38566e-08
0.000141813
-1.80272e-05
0.000120168
-7.0173e-08
-0.000120399
-7.40748e-05
-4.64237e-05
0.000114206
7.62888e-05
5.10919e-05
-0.000127444
0.000127459
-6.59938e-05
-6.15982e-05
-1.43865e-05
-0.000114285
5.00648e-05
-0.000124576
-0.00010722
0.000110731
0.000124842
6.72598e-07
-2.21001e-06
0.000146353
-0.000146357
-1.5528e-05
-0.00011824
-0.00011797
1.02365e-05
-5.08339e-05
0.000126343
0.000119318
2.25399e-05
0.000140855
-2.15371e-05
0.000136479
-1.61743e-05
-0.000113121
0.00012729
-0.000125003
-2.30404e-06
9.56388e-05
5.44895e-05
0.00011522
-0.000118463
3.26456e-06
-2.76529e-06
0.000117998
-0.000123172
1.13344e-05
0.000111837
0.000122941
2.05722e-05
-1.5905e-06
0.000117951
-0.000140326
2.23707e-05
0.000101583
1.8012e-05
0.000131557
-1.3604e-05
-7.55095e-05
-4.91771e-05
0.00012673
-0.000117435
0.000118702
-1.24655e-06
0.000116877
-0.000132533
1.55558e-05
0.000117923
-1.01831e-06
-6.41874e-05
-3.16771e-05
-6.36747e-06
-0.000101863
0.000108048
-7.06728e-05
0.000138937
-6.82643e-05
0.000143389
-4.02434e-05
-0.000126997
9.57909e-06
0.000120991
2.10544e-05
6.93591e-05
5.25892e-05
-0.000121948
-2.60681e-06
-0.000116292
-1.07005e-05
3.12984e-07
-0.000105998
0.000105685
0.000123665
-3.65257e-06
6.77507e-05
5.99736e-05
-0.000127799
5.42637e-05
-0.000124936
-0.000117222
9.23499e-07
0.000126029
-0.000126048
0.000129913
-8.69124e-06
2.01671e-05
-0.000134337
0.000114001
4.33363e-05
-0.000118917
-0.000122618
-9.96724e-06
0.000115037
-0.000134348
1.91567e-05
0.000117399
-2.66192e-06
7.13102e-06
0.000111335
-0.000114456
-7.44559e-06
0.000107057
-0.000103367
0.000119267
2.15762e-05
-2.10701e-05
-0.000104951
0.000105263
7.50907e-06
-0.000120995
0.000113486
-9.13279e-05
2.70856e-05
-8.40085e-06
0.000121104
-0.000116505
4.72753e-05
-0.000123251
-0.000108961
-3.29268e-06
0.000112403
0.000118651
-0.000120641
2.88894e-06
-0.000123584
0.000106557
1.70274e-05
-4.01801e-06
-0.00012725
0.000114652
1.69092e-05
-5.32364e-06
0.000119982
-0.000130725
0.000130721
-0.00011179
3.1095e-06
-3.60951e-05
0.000112312
0.00014437
-8.68585e-05
-5.80866e-05
-0.00013139
5.27042e-05
7.86674e-05
0.000123822
-5.96599e-07
-0.000123232
0.000112805
-0.000131866
1.89439e-05
0.000116631
-3.82821e-06
0.000122438
-2.83722e-06
0.00011864
-0.000115942
0.000116713
7.04492e-06
7.79658e-05
-0.000123724
4.575e-05
0.000113747
-0.000137169
2.35074e-05
0.00013642
-2.23934e-05
-1.7524e-06
0.000122844
-7.74413e-05
0.00014616
-6.87325e-05
-9.72878e-05
-2.11347e-05
0.000109778
-0.000130528
2.07838e-05
0.000114387
-4.52932e-06
0.000118954
-0.000127471
8.45847e-06
-0.000122709
2.54353e-05
-3.10582e-05
-0.000100414
0.000112622
-0.000136018
2.32663e-05
-2.01824e-05
-0.000121199
0.00010498
8.47901e-05
-9.13139e-05
-0.000102864
0.000113947
0.00013358
-0.000133555
0.00011629
3.29197e-07
-2.0911e-05
0.000120687
-0.00012834
7.60619e-06
-0.000119322
2.63343e-06
6.91326e-05
7.52327e-05
-0.000128981
2.04664e-05
0.000108514
0.000110753
-0.000134605
2.38851e-05
-0.000109734
0.000134067
-2.33e-05
-0.000119004
-1.7512e-06
0.000102025
-4.67416e-05
-4.07723e-05
0.000118725
-1.74234e-05
0.000139217
0.000112733
2.37956e-05
-0.00011648
0.000113433
-2.32761e-05
0.0001137
-0.000113591
6.96797e-05
-0.00012147
5.17823e-05
0.000109137
-0.00013313
2.39846e-05
0.000132649
-2.34775e-05
-1.90396e-05
-0.000109729
0.000119724
7.74748e-06
-0.0001298
-2.13314e-05
-0.000113228
1.40602e-05
-0.000104123
9.17617e-05
-8.30673e-05
0.000127485
-4.94618e-05
-0.000113321
3.76687e-06
0.000109572
6.96914e-06
0.00012946
-0.000118348
0.000105767
0.000111041
0.000124093
-3.60101e-06
0.000108156
-0.000132537
2.44126e-05
-2.61896e-05
8.7037e-07
-0.000111533
0.00011067
0.000111513
6.62675e-06
-2.29353e-05
5.15182e-05
9.10622e-05
0.000109423
6.48373e-07
-0.000110068
9.47044e-07
0.000108477
8.35382e-06
0.000118943
-4.70038e-05
-6.00096e-05
0.000107016
-0.000135883
7.92165e-05
5.3717e-05
7.33612e-05
-0.000120363
2.13175e-07
0.000111268
-0.000111459
-0.000111297
0.000111534
9.89107e-05
-0.000110159
-0.000117203
0.000121962
-4.75085e-06
0.000102024
-0.000122594
2.05948e-05
0.000110591
-8.55796e-06
-1.01997e-05
-9.90038e-05
0.000109204
6.70228e-05
4.77176e-05
-0.000114767
0.000109192
2.47027e-05
-2.40984e-05
1.68649e-05
-0.000117841
0.000100793
-0.000113855
-6.12034e-06
0.000120239
3.60047e-06
0.00010598
-0.000130953
2.52138e-05
0.000130532
-2.42533e-05
7.5259e-05
-0.000120329
4.50706e-05
0.000113757
-0.000106248
0.000116519
-0.000119895
0.000110828
5.40221e-06
-5.32145e-07
0.000119238
3.40931e-05
-0.000117048
-0.00011553
-1.66404e-06
0.000123388
-4.21487e-06
-7.03022e-05
-4.04399e-05
0.000113633
0.000104825
-0.000130027
2.51584e-05
0.000127288
-1.64649e-05
-0.000129865
-2.72332e-05
9.62989e-05
-8.07563e-05
0.000107932
2.49288e-05
-2.44087e-05
-7.55318e-05
-5.30876e-05
0.000129716
0.000126052
-0.000124561
-1.48194e-06
-1.48533e-05
0.000126323
-0.000111469
9.96592e-05
-0.000120074
2.04043e-05
0.000109348
-9.63253e-06
0.000105891
-0.000106527
6.48077e-07
-4.67546e-06
-0.000118909
-0.000131137
2.00937e-05
0.000111056
-2.347e-05
-0.000107661
-1.62379e-05
-0.000114493
-4.73986e-05
0.000116758
-0.00014438
7.74652e-05
6.69199e-05
-0.000122142
0.000105719
1.64221e-05
0.000105595
3.28054e-07
0.000114972
-0.00010916
-5.84591e-06
-0.000136385
0.000120135
-0.000117345
1.20795e-07
-0.000115925
0.000117693
-1.76765e-06
-7.06397e-05
-7.37367e-05
6.97793e-05
-0.000124882
5.50953e-05
-8.08343e-07
-0.000124221
-4.22466e-06
-0.000124756
0.000120722
-6.0764e-07
-0.000121148
5.22372e-06
0.00010266
-0.000128837
2.62437e-05
-2.78037e-05
0.00011172
3.26736e-06
9.77735e-05
-0.000117827
2.01315e-05
-0.000123856
2.70811e-06
0.000108311
-1.04498e-05
0.000108219
9.12148e-06
-2.2729e-05
0.000128977
-0.00012385
-5.22269e-06
-5.82949e-06
0.000120089
-0.000114616
0.000123624
-0.000123619
-0.000159694
7.54109e-05
8.38311e-05
-6.67639e-05
0.00011925
-5.3069e-05
-0.000116298
-3.83524e-06
0.00011806
-0.00012483
-2.84004e-06
-7.5034e-05
-4.61477e-05
0.000114193
6.89211e-05
4.26587e-05
-0.00011158
8.4336e-05
-9.45357e-05
3.97994e-06
0.000119604
-0.000123584
0.000104781
2.57996e-05
0.000100825
-0.000127701
2.68985e-05
-2.52351e-05
-0.000130329
0.000115489
-0.000118854
0.000118817
8.10026e-05
4.77979e-05
0.000126315
-2.56585e-05
-2.04977e-05
-0.0001159
0.000100173
7.40859e-05
-0.000121679
4.75935e-05
-3.33047e-06
-0.000144676
0.000119026
-1.17371e-06
0.000119689
-0.000118193
9.5548e-05
-0.000116042
2.04457e-05
0.000106891
-1.16991e-05
0.000125195
-0.000126579
-0.000107703
0.000111683
-7.75885e-05
-6.70431e-05
-6.76757e-05
0.000117044
-4.57377e-05
-0.000123667
2.66684e-06
0.000121637
-0.000125815
4.08078e-06
-6.45857e-05
0.000131563
0.000122518
1.26667e-06
0.000122398
3.31902e-07
-0.000146621
7.26443e-05
7.72914e-05
3.6296e-05
0.000106003
0.000122017
5.40742e-07
7.32812e-05
-0.000106576
3.34106e-05
0.000121771
4.55642e-06
0.000109495
-3.62677e-05
3.48081e-05
9.90995e-05
-0.000125322
2.62727e-05
0.000116322
0.000125179
-2.57739e-05
0.000127904
-2.15028e-05
-0.000108765
-0.000108209
-1.32338e-06
0.000109245
-0.000138837
8.07246e-05
5.81217e-05
0.000106195
1.04658e-05
-2.25989e-05
-4.30192e-05
0.000118278
0.000129937
-0.000129905
-0.000106189
0.000106838
0.00011132
-0.00011037
-7.62868e-05
0.000119086
-5.32057e-05
-2.09945e-06
-0.000121072
9.82193e-05
-0.000124982
2.6715e-05
-0.000114361
0.000117128
-2.75583e-06
0.000124239
-2.63245e-05
-0.00012834
0.000129533
0.000118901
3.17809e-06
2.80567e-06
-0.000114534
0.000111586
-0.000138752
0.00010616
-0.000101513
-8.65388e-06
0.000112707
-0.000119117
4.76388e-06
-0.000111587
-4.15262e-05
0.000102895
-0.000121783
0.000121638
-1.37366e-05
0.000121854
-3.99667e-07
-0.000117024
-2.09328e-06
0.0001201
-0.000120107
9.64423e-05
-0.000123259
2.68799e-05
0.0001231
-2.64134e-05
9.27351e-05
-0.000112059
1.91473e-05
0.000104195
-1.20659e-05
-6.97659e-05
-6.90673e-05
-0.000124472
4.70248e-05
-0.000115428
-1.60133e-06
6.57589e-05
6.93005e-05
0.000121376
5.42503e-06
0.000105119
9.33274e-06
-2.25524e-05
-0.000117105
0.00010742
9.6858e-06
0.000129848
-0.000125192
-0.000102899
0.000114233
0.000105465
-0.000112451
7.20228e-06
0.000111636
-4.3653e-06
-0.000107269
9.54385e-05
-0.00012282
2.73276e-05
0.000122123
-2.6903e-05
-4.21178e-06
-0.00011793
-0.000121411
0.000126261
-4.89106e-06
1.11204e-06
-0.000114444
0.000129118
-2.25683e-05
-5.53042e-05
0.00012296
4.47497e-07
-0.000134294
2.19746e-05
-0.000106794
-1.23304e-05
0.000112913
-4.55893e-06
-0.000108357
9.88866e-05
2.71742e-05
0.000119582
-4.99161e-05
-2.64751e-05
-0.000120513
0.000109177
1.11855e-05
5.70015e-06
-0.000114198
-0.000153189
8.94584e-05
6.3737e-05
-0.000112857
3.15582e-06
0.000109697
-6.94333e-05
-8.37411e-05
4.07281e-06
0.000107671
-0.000111748
-0.000113507
4.6175e-06
0.000108905
-7.21234e-06
-0.000106294
-0.000118085
0.000110862
9.37834e-05
-0.000121219
2.74904e-05
-0.000114025
2.31026e-06
0.000111718
0.000113721
-4.12329e-06
-0.0001096
-3.15366e-06
0.000113146
-0.000109988
0.000110568
0.000120926
-2.70126e-05
0.000114779
-4.39545e-06
-0.000110386
0.000119489
-6.22657e-07
-0.000126793
-1.28322e-05
-0.000117486
-4.48716e-06
0.000114696
-0.000110212
6.72077e-05
4.47196e-05
-0.000111928
-0.000115885
4.55031e-05
-6.5814e-05
-7.09991e-05
-0.000130883
3.07256e-05
9.80524e-05
2.74489e-05
6.70367e-06
-0.000132892
-2.68613e-05
5.38022e-06
0.000106259
-0.000108437
8.05003e-06
0.000100387
9.26599e-05
-0.000120495
2.78736e-05
-5.94588e-06
0.00011984
0.00011419
-4.67766e-06
-0.0001095
-0.000119783
-6.01645e-06
0.000120014
-2.74123e-05
-6.96685e-05
0.000124208
-4.3672e-05
0.000126685
-1.12364e-05
-0.000115451
0.000146647
-2.5729e-05
-0.000121991
0.000119293
2.703e-06
0.000122292
-0.000121651
-0.000122831
7.22308e-06
0.000115606
-2.45235e-06
0.000114104
-0.000111472
-6.56754e-05
0.000118265
8.39587e-05
-0.000102769
1.89726e-05
-1.49195e-05
0.000103344
1.02106e-05
0.000117896
-1.03672e-06
0.000111656
-0.000110624
-1.09724e-05
9.81438e-05
-8.71582e-05
0.000134804
-7.97753e-05
-5.52324e-05
2.53737e-06
-0.00011498
0.000112443
2.50185e-06
-0.000117934
0.000116945
-0.000116944
-0.000110341
0.00011164
-1.28915e-06
0.000110954
-0.000114198
3.08914e-06
-0.000101822
0.000102703
-1.56652e-06
0.000115049
-0.000113137
-7.95343e-07
-0.000112295
0.000113204
5.45688e-05
6.32965e-05
-0.000120848
-1.32328e-06
0.000119021
-0.000115429
-1.44369e-06
0.000116876
-0.00012305
-2.26721e-08
0.000111742
-0.00011241
0.000105372
3.35654e-05
9.11326e-05
-0.00011922
2.81138e-05
-5.04089e-05
-5.63382e-05
0.000106782
9.61866e-05
2.7772e-05
-0.000133826
8.34569e-05
0.000115016
-4.09304e-05
-3.14104e-05
-2.70896e-05
-0.000140365
8.01164e-05
6.02513e-05
-7.09416e-05
0.000124776
-6.21248e-05
6.48993e-05
6.23804e-05
-0.000127279
-7.11494e-05
0.000121214
-0.000115836
0.000109972
5.87238e-06
-0.000116618
7.81322e-07
-0.000113828
5.92334e-07
0.000113711
3.58811e-06
0.000109255
-0.000107942
-2.89468e-06
0.000110837
-0.0001004
8.9423e-05
8.40418e-05
-0.000120544
0.000111624
-0.000117353
-2.18471e-06
0.000111337
-0.000109226
4.53444e-05
-0.00011272
-7.40896e-05
-6.62654e-05
1.30021e-06
0.000112075
-0.000113372
-0.000121646
-6.53881e-06
-0.000142952
8.29562e-05
-2.78352e-06
-0.000120054
0.000123211
-0.000125469
-0.000100387
0.000120854
-0.000116434
0.000115618
-2.10265e-06
0.000115617
-0.000113124
-2.45644e-05
-9.4295e-05
6.72716e-05
-0.00013582
-3.45057e-05
0.000115508
-0.000111463
2.12832e-07
0.000111243
1.88689e-06
8.73129e-05
-9.18375e-05
1.83395e-06
-0.000112916
0.000111144
9.52742e-05
2.80966e-05
0.000112267
6.49151e-07
-0.000113936
0.000113382
-7.05692e-07
-0.000112682
-8.16026e-07
0.000112153
0.000110836
-0.000112641
-2.74856e-05
-0.000112043
-1.97771e-06
-1.29875e-06
0.000112024
-0.000121898
0.000125676
-0.000111779
0.000112296
-5.22897e-07
1.44239e-06
0.000110299
0.000109457
3.69045e-06
-0.000111796
1.65113e-08
-6.45198e-05
-5.00864e-05
0.000100849
-0.000135295
2.9297e-05
9.05574e-05
-9.05616e-05
-3.29013e-06
8.82947e-05
-0.000118749
3.04749e-05
0.000124038
-0.000119619
-4.50907e-06
-2.03901e-06
0.000122845
0.000116772
-2.84308e-05
4.45452e-05
-0.000123824
8.69536e-05
-0.000102855
1.57761e-05
-1.69506e-05
0.000105091
-0.000117415
0.000108147
9.26509e-06
0.00010555
-9.46382e-06
-0.000115082
0.000121236
-6.13526e-05
-3.95337e-05
9.21242e-05
-0.000116899
0.000112675
-3.20638e-06
-0.000112149
-7.23849e-05
-7.36675e-05
-9.94828e-05
1.00291e-06
9.95253e-05
-0.000113775
0.000111198
2.34982e-06
0.000113432
-0.00011538
-7.17499e-06
-0.000111608
0.000113611
1.78531e-06
0.000112797
-0.000115327
0.000136825
-6.68861e-05
-6.99387e-05
5.17839e-06
0.000107733
9.34938e-05
2.84152e-05
-0.000118247
4.89458e-06
0.00011342
-0.000121147
4.84015e-06
-2.77323e-05
8.74215e-05
-0.00011636
2.88473e-05
-3.27183e-05
8.68155e-05
-0.000103989
1.58696e-05
-0.000114926
0.000108529
-0.000108423
-4.44366e-06
-1.77496e-05
0.000104308
4.86968e-06
5.11806e-05
8.35552e-05
0.000122592
-0.000120055
0.000114307
-9.37839e-07
-0.000119873
4.99944e-05
0.000111834
-1.3928e-06
-0.000110558
-0.000137762
0.000121531
0.000106143
-8.9454e-05
1.21243e-06
-0.000107399
1.6687e-06
-0.000113182
0.000111438
-3.11246e-06
0.000120249
6.60454e-05
6.18134e-05
-0.00012786
7.54976e-05
6.40995e-05
-0.000136022
-0.000103271
-2.14402e-06
0.000108122
-2.58601e-07
-0.000113519
0.000113164
7.44408e-06
0.000116188
-0.000116404
0.000112955
-0.00011367
0.000115434
-0.000116419
9.9384e-07
-4.56865e-07
0.000113382
-8.49343e-07
0.000114251
-0.000113184
0.000114023
-0.000114504
-0.000123095
-7.30059e-05
0.000128539
-5.8011e-05
-7.2677e-05
0.000130226
-5.99621e-05
-0.000138293
3.7906e-05
0.000113531
-0.000113934
8.3134e-07
-0.000113907
0.000112569
-1.27381e-05
0.000123194
-0.000110459
0.000127246
-7.95679e-05
9.23857e-05
2.86991e-05
-0.000110704
3.43897e-06
0.000107265
8.15819e-05
-0.000136224
5.54881e-05
0.00011936
5.85186e-06
-0.000115427
-0.000136309
7.92166e-05
5.71e-05
-2.80719e-05
0.000110199
-0.000107535
-0.000116638
-1.28257e-06
-0.000109395
0.000111525
-2.12419e-06
1.36514e-06
-0.000110788
-0.000109004
9.92717e-05
1.10256e-05
-0.000116567
0.000115221
1.28862e-06
-0.000113376
-3.19834e-06
8.60338e-05
-0.000116892
3.09349e-05
-0.000120597
-1.61761e-07
0.000114902
-2.88911e-05
-0.000132973
8.48798e-05
-0.000118713
0.000113413
5.33932e-06
-0.000117394
-1.22422e-06
-0.000115312
0.000113689
1.67234e-06
-0.000113796
-1.55589e-06
-0.000116408
-0.000113889
0.00011299
9.6205e-07
-0.000116393
8.70029e-06
0.000107705
0.00011603
-0.000113354
-9.59701e-05
5.30187e-08
-0.000115993
4.54363e-06
0.000111457
-0.000108896
-2.86193e-06
0.000111766
9.07996e-05
1.6235e-08
0.000108912
-0.000108981
-0.000111978
-2.20044e-06
0.000114191
-0.000113291
2.51149e-06
0.000110782
-6.8683e-05
-9.07232e-05
3.92663e-06
0.000119807
-5.00432e-05
0.000117055
4.56879e-06
0.000108867
1.90754e-06
-0.000110769
6.71817e-07
0.000112204
-0.000112878
-0.000110679
0.000118329
-4.94079e-05
0.000115127
-5.22835e-06
-0.0001099
-0.000114698
2.06696e-06
0.000112631
9.08486e-05
2.90479e-05
-0.000113231
1.13428e-06
0.000112077
0.000107547
2.07451e-06
-0.000109624
-2.83881e-05
0.000118972
-2.02047e-06
-0.000113499
3.98036e-07
0.000112955
6.3427e-06
6.18013e-07
-0.000114322
-0.0001122
0.000112714
5.72024e-07
-0.000112779
-9.8187e-05
8.14785e-05
0.000114055
-3.51524e-06
-0.000110526
8.49092e-05
-0.000114274
2.94123e-05
-3.28661e-05
0.000123671
-0.00012372
-0.00010932
0.000135938
1.92289e-06
-0.000113187
2.5812e-06
0.000110605
-6.75609e-05
-7.53808e-05
-0.000114351
0.000103517
0.000113426
-0.000112829
-5.91681e-07
-0.000112303
3.71354e-06
-0.000127855
4.88729e-05
-0.000110898
-1.29796e-06
-0.000108944
0.000107591
6.20152e-07
0.000107891
-0.000108482
-0.000114338
3.49612e-06
0.000110838
0.000127102
-0.000138846
0.000119576
-0.000114398
0.000110491
-0.000114876
-8.10311e-05
0.000101328
-5.73003e-07
0.000113742
-1.69986e-06
-0.000113085
0.000112199
-0.00011669
0.000113943
0.000118578
-0.000119069
-0.00011691
0.000115613
1.37075e-06
-0.000113712
-3.18255e-06
-0.000119265
0.000115706
3.56059e-06
-0.000116284
-3.00721e-06
-0.000119412
0.000115835
3.54601e-06
-0.000116455
-2.97465e-06
-0.000119548
0.000116056
3.49606e-06
-0.000116563
-2.94176e-06
0.000148634
-9.70101e-05
-1.21483e-06
-0.00011092
0.000112326
-0.000119536
0.00011616
3.43744e-06
-0.000134798
7.40315e-05
6.29637e-05
-0.000116661
-2.89108e-06
-0.000119687
0.000116274
3.33197e-06
0.000114504
0.000127124
-0.000110177
-1.55064e-05
9.06333e-05
1.34149e-05
-0.000103678
-0.000116944
-2.78381e-06
0.000115122
-0.000119778
0.000116581
3.23972e-06
0.000118131
5.06183e-06
-0.000116975
-2.67142e-06
-0.000135919
3.09688e-05
-0.000111553
1.16543e-06
0.000110454
-0.000119628
0.000116528
3.10664e-06
-6.75573e-05
-5.23425e-05
0.000119882
-0.000117152
-2.55833e-06
9.98442e-05
-0.000101893
2.37888e-06
2.83929e-06
-0.000108991
0.000106103
-0.000119888
0.000116795
2.98894e-06
-0.000111077
-5.53504e-06
-0.000117454
-2.41762e-06
8.08163e-07
-0.000111873
-0.000100305
-9.11296e-06
5.33343e-05
-0.000120903
-0.00011694
-5.41541e-06
0.00010264
-1.11992e-05
-0.000109951
0.000114898
-4.94788e-06
-0.000112072
2.11848e-06
-0.000119693
0.000117037
2.84035e-06
-0.000117283
-2.25872e-06
-4.19201e-06
0.000110782
-0.000106581
8.20632e-07
0.000110665
-0.000111868
-0.000119145
0.000116355
2.69554e-06
-0.000117695
-1.60858e-06
0.000116031
-0.000118768
2.77575e-06
-2.52378e-06
0.000122619
-0.000121431
-0.000120078
0.000117094
2.77384e-06
8.54187e-05
-0.000115802
3.03356e-05
-0.000117846
-2.47904e-06
1.92403e-06
-0.000109
0.000107079
9.67663e-05
1.3796e-05
-0.000120872
0.000117389
3.34943e-06
0.000117353
-8.08537e-06
-0.000109636
-0.000117921
-2.94509e-06
0.000113674
-2.82494e-05
-2.20001e-05
1.66424e-06
-0.000109157
0.000107506
0.000111253
-0.000114513
3.26199e-06
-2.67101e-07
0.000111532
-0.000120859
0.000117518
3.48525e-06
-0.00011781
-2.977e-06
-0.000152812
9.64479e-05
1.79846e-05
2.9067e-06
-0.000109428
0.000106519
3.74773e-06
-0.000110342
0.000106593
-0.00012029
0.000116803
3.43213e-06
2.25064e-06
-0.000113169
0.000110804
-0.000118171
-2.29954e-06
-7.27028e-06
0.000120052
-0.000115297
-2.80307e-06
-0.000120222
0.000117012
3.14483e-06
-0.000118308
-2.01895e-06
-0.00011308
0.000113416
-3.1882e-07
-0.000112773
0.000114616
-1.84101e-06
-7.82418e-07
5.37586e-05
-0.000116296
-6.17671e-07
-0.000112159
-0.000111178
0.000111622
0.000116097
-0.000117803
1.84055e-06
-6.25577e-05
-6.35526e-05
0.000112505
-0.000120538
0.000117627
2.87432e-06
4.96474e-07
0.000110802
-0.000111279
-0.000118418
-2.32322e-06
-1.30716e-07
-0.000111151
0.000111302
-4.04852e-06
0.000109705
-0.000105659
1.81195e-06
-0.000113727
-0.000112409
0.000113439
-0.000120835
0.000118048
2.75752e-06
-0.000118611
-2.15495e-06
-0.00011365
-5.14775e-08
0.000113295
-0.000111964
-1.775e-06
0.000113781
-0.000119894
0.000117564
2.55208e-06
-0.000112442
-0.000118424
-1.42556e-06
-0.000116543
0.000118234
-1.69344e-06
-1.19216e-06
-0.000120483
-0.000120151
0.000118228
2.24419e-06
-0.000118467
-1.66404e-06
-0.000113594
2.07018e-06
-3.99205e-06
-0.00012028
0.00011793
1.99969e-06
-0.000119046
-1.46926e-06
-4.76629e-05
-6.59106e-05
-3.01181e-07
0.000111816
-0.000111524
-0.000112733
0.000112421
0.000110853
-0.000109633
-0.000120309
0.000118599
1.82435e-06
-0.00011352
-2.23086e-07
0.000113774
-0.000118654
-1.25933e-06
8.03034e-07
0.00011171
-0.000111182
-9.53615e-05
9.4468e-05
-0.000116305
1.01436e-06
0.000115292
-8.34123e-06
-0.000119541
0.000117946
1.59622e-06
-0.00011875
-1.03049e-06
0.000115121
1.52214e-06
-0.000120221
0.000118487
1.42604e-06
-0.000119311
-8.3074e-07
5.12201e-07
-0.00012102
0.000108625
-0.000117204
0.000117324
-1.90254e-07
-7.83112e-05
-4.40521e-05
0.000119254
-6.86301e-06
8.33214e-05
-0.000113399
3.0162e-05
5.84034e-06
-0.000122225
0.000105615
-2.38904e-06
-0.000105336
-3.26925e-05
-0.000114927
6.66995e-06
0.000107337
-4.24758e-06
-8.88828e-05
-6.74293e-05
-6.3454e-05
0.000132091
-0.000116677
0.000115498
1.19468e-06
-0.000116193
-1.01936e-06
-2.87726e-06
8.68659e-05
2.99914e-05
0.000111339
-0.000110812
-0.000116865
0.000116009
8.61898e-07
0.000111229
9.45267e-05
3.07833e-06
-9.7605e-05
-1.69107e-06
-2.94666e-05
0.000102384
-7.85683e-06
0.00011835
-1.06994e-06
9.85295e-07
-1.51185e-06
0.000114299
-5.118e-06
-0.000109976
0.000116374
-9.32004e-07
-1.38711e-06
0.000120398
6.64324e-05
7.81197e-05
-0.000132245
7.77595e-05
5.4598e-05
-8.55107e-05
-5.27824e-05
-1.45591e-05
0.000115926
-1.90161e-06
-0.000111859
-0.000119836
-0.000138651
7.40129e-05
-0.000109261
0.000109934
0.000111634
-0.000110346
8.96017e-07
-0.00011245
-2.31182e-08
0.000112531
0.000133648
-5.06509e-05
-0.000112674
8.577e-07
0.000111873
6.95573e-06
-0.000116176
0.000109219
-0.000111415
1.08408e-06
-0.000111606
4.43187e-05
0.000117539
-9.47367e-05
-2.1411e-06
0.000112455
-0.00011033
-4.94984e-06
-0.000109149
0.000114196
7.24632e-05
-0.0001237
5.12368e-05
0.000107542
-0.000111728
0.000115959
-0.000102615
-0.000149938
8.86604e-05
6.13082e-05
-0.000113075
6.04733e-07
0.000112556
-8.04266e-07
-0.0001114
-0.000139346
6.93328e-05
9.84744e-05
6.32976e-06
-0.000105145
0.000107618
-9.22161e-06
-4.88043e-06
2.28421e-06
-0.000119376
7.53465e-06
4.92162e-07
-0.000112947
0.000115674
-0.000115362
-3.59267e-07
0.000109398
-0.000110484
3.76794e-05
-0.000120513
0.000111187
5.98893e-07
-0.000115985
0.000116039
-1.82924e-07
0.000121184
-0.00012335
-0.000115936
-4.75862e-07
-7.18167e-07
-0.000112162
-6.72573e-05
0.000100493
-3.63997e-05
-6.60964e-07
-0.000113386
0.000113073
9.25432e-05
1.31763e-05
-0.000105719
0.000113004
-0.000111961
8.07556e-05
-0.000112225
3.16968e-05
0.000103646
-1.11026e-05
-3.06008e-06
-0.000110509
0.000109106
-0.000109984
0.000106958
-0.000111797
0.000110616
-2.93824e-05
-4.10367e-06
-0.000108892
0.000109454
-0.000112056
0.000109834
-6.69766e-05
0.000130733
-6.37562e-05
-0.000118412
0.000117981
5.95196e-07
-2.01754e-06
0.000110653
-0.00011162
-6.80794e-05
-6.82203e-05
0.000107535
-0.000114808
-3.65936e-06
0.000108262
0.000114406
-8.036e-05
-6.68866e-05
0.000127528
-5.60093e-05
0.000110906
-0.000119125
1.46373e-06
0.000137002
-8.31906e-06
-0.000103038
3.52007e-05
-1.08079e-06
0.000101174
5.19318e-07
0.000116418
-0.000120048
5.68009e-06
0.000114465
-0.000120145
-0.000119554
0.000118424
1.31851e-06
-2.67489e-06
-0.000114664
9.12452e-07
-1.32607e-06
0.000106644
-0.000105338
-0.000116635
9.48966e-05
1.45536e-05
-0.000119527
0.000118627
1.0322e-06
-0.000135649
2.84289e-05
0.000108276
-0.000109566
-2.41972e-06
-2.19011e-05
0.000115279
-1.97472e-06
-1.29814e-06
-0.000113411
0.0001145
0.000117427
-5.02198e-05
-0.000114849
1.04092e-06
-0.000110509
0.000108174
0.000105057
-2.50895e-06
0.000112595
6.37167e-06
-0.000113866
0.000107469
-0.000119402
0.000118937
4.31943e-07
-0.000108509
5.68809e-07
0.000108426
-1.74395e-06
0.000125413
-8.27543e-05
-0.000108638
-4.94362e-06
0.000110923
-0.000109724
0.000113776
-1.33565e-06
0.000116164
-1.96651e-06
7.84715e-05
-0.000109465
3.07235e-05
5.80995e-06
0.000108261
-0.00011468
-0.000111695
0.000111965
0.000125626
-0.000122247
0.000108848
-3.10962e-05
4.32673e-06
-0.000114078
0.000110229
-5.64137e-06
0.000114167
-0.000108496
7.7348e-06
0.000107212
-0.000117036
-0.000110767
0.000116557
0.000140768
-0.000111424
-2.93098e-05
6.28997e-06
-0.000108725
0.000102484
-0.000149372
0.000141862
-5.74662e-07
0.000108524
-0.000102164
5.04039e-05
9.03958e-05
0.00011456
-9.71756e-07
4.76146e-06
-0.000115837
0.000110623
5.52359e-06
-0.000114537
0.000109845
7.97947e-06
0.000103941
-0.000111913
8.94609e-07
0.000110752
-0.000112011
-0.000118051
0.00010698
-0.000108111
0.000117042
-1.40289e-06
-1.43556e-07
0.000110268
-0.000110112
0.000111251
-0.000115245
0.000111334
-0.000118368
1.46833e-06
3.0816e-06
0.000115495
-8.02346e-07
7.87984e-07
-0.000111436
0.000109785
-0.000111519
-2.74082e-06
0.000104271
-0.0001114
-0.000110557
0.000105997
8.47704e-05
2.99809e-05
-0.000114551
0.000113475
1.07184e-06
0.000118514
-0.000118688
-3.36965e-08
0.000118188
-4.10696e-07
-2.95552e-05
0.00011093
4.17779e-07
0.000117952
-0.000117455
2.38669e-07
-0.000116989
0.000117526
-8.24429e-07
0.000119345
-6.50769e-07
9.91777e-06
0.000106757
-0.000116672
-9.75551e-05
0.000107476
1.16016e-05
-0.000109155
-0.000107491
0.000103131
-0.000118399
4.56733e-07
-4.64601e-06
8.78348e-05
-0.000100953
1.31901e-05
-3.84646e-07
0.000116906
0.000108379
-0.000109347
0.000114615
9.26196e-05
-4.67098e-06
-0.000114946
-8.21792e-05
0.000104933
-2.24127e-05
0.00012254
-7.95808e-06
0.000110064
-0.000102078
7.66504e-05
-0.000107366
3.08222e-05
0.000108193
-3.11769e-05
9.38754e-05
-0.000104279
0.000117158
-6.31267e-06
7.99889e-07
-0.000108357
0.000114541
-4.71472e-06
-0.000119303
0.000111427
-0.000118462
5.08166e-06
-0.000113115
-0.000114301
4.30905e-07
-9.09469e-07
0.000111922
-0.000111288
0.000113682
3.49001e-06
0.000104343
-0.000107857
0.000107412
1.65252e-06
-0.000114256
-0.000111458
-7.13396e-06
-2.28595e-06
-7.92345e-05
-0.00011882
3.26265e-06
6.237e-07
0.000110042
-0.000110666
-0.000113856
-2.27483e-06
0.000117889
-0.000117878
2.23357e-06
-6.85954e-05
-8.13293e-05
-0.000113664
3.34925e-07
-0.000117787
-2.08607e-06
-5.64795e-05
-7.5806e-05
5.97336e-06
-0.00012441
-0.000108052
-0.000154703
-3.44863e-06
0.000107421
-0.000112521
3.16026e-06
-0.0001072
-1.87487e-06
0.000112278
0.000107033
2.53932e-06
-0.000108131
-0.000119096
0.00012167
-0.000107354
0.00011268
-1.30943e-06
1.3358e-05
-9.42794e-05
-0.000115826
7.17956e-06
-0.000116218
-1.13177e-06
-0.000116177
-1.04985e-06
-0.000115891
-1.01908e-06
-0.000116067
-1.23725e-06
4.43693e-07
-0.000118484
1.37817e-06
-0.000133394
5.99541e-05
3.90104e-07
-0.000115931
-1.00995e-06
5.92812e-07
0.000114553
3.41578e-07
0.000113626
-0.000116486
2.60163e-06
-0.000116371
-1.35972e-06
3.11924e-07
-0.000138825
7.77353e-05
6.10932e-05
-0.000115713
-9.92481e-07
7.00531e-07
3.25808e-07
-0.0001114
0.00011412
-2.7254e-06
-0.000116514
-1.44544e-06
0.000113857
-0.000122162
8.24736e-06
-0.000115514
-1.00207e-06
3.15774e-07
1.45403e-06
-0.000115398
-1.03218e-06
0.000115396
-0.000114921
-5.12684e-07
-0.000116824
-1.01049e-06
3.39686e-07
-4.40687e-06
-0.000115243
-1.07231e-06
2.06082e-07
-0.000115575
-9.73123e-07
-0.000117308
-6.2388e-07
3.83682e-07
-0.000126341
5.9364e-05
0.00010481
-0.000108938
7.43446e-05
-0.00010741
3.29896e-05
-1.28342e-07
2.03006e-06
0.000113307
-2.02877e-06
-0.000111739
-4.94658e-08
-0.000117628
-5.95393e-07
0.000111475
-0.00011088
2.76504e-06
-0.000111395
2.8871e-06
-1.30595e-06
-8.28036e-08
-3.78555e-05
2.68838e-06
0.000109158
-0.000110699
-0.000117512
-8.16649e-07
1.06613e-06
-0.000109822
-8.8879e-07
0.000110405
9.66041e-07
-0.00011748
-1.06141e-06
1.1883e-06
0.000135344
-0.000117145
-1.2272e-06
5.96829e-07
-0.000117092
-1.43143e-06
1.24192e-06
-0.000114066
1.01259e-05
-0.000109121
7.758e-07
5.04511e-06
-0.000109543
0.000104497
-0.000116868
-1.71125e-06
0.000127648
-3.6456e-07
-0.000104355
0.000109397
-0.000113329
-1.20914e-06
1.86002e-06
-1.885e-06
-0.000112271
0.000113602
-0.000109772
-6.24519e-07
0.00011054
-0.000117154
-1.89214e-06
1.28975e-06
-0.000116346
-2.09212e-06
9.40493e-05
1.42678e-05
1.51674e-06
-0.000110846
-1.96015e-06
0.000111981
-0.000116813
-2.3054e-06
0.000112141
0.000115675
-4.29133e-07
-2.18418e-05
1.74944e-06
-1.25813e-06
-0.000117735
-0.000116696
0.000116156
-2.42596e-06
-0.000116401
-2.55192e-06
-0.000116493
0.000118538
-1.65317e-06
-0.000117721
1.19383e-06
1.59044e-05
-0.00010691
9.09702e-05
1.95909e-06
-0.000115859
-2.05721e-06
2.18879e-06
-5.46477e-05
-7.49523e-05
0.000129578
-1.54926e-06
-0.000109294
0.000109978
0.000107551
-0.000107056
3.4762e-06
-0.000115634
-2.99995e-07
0.000108289
-0.000110656
-4.26335e-06
0.00011032
-0.000106062
1.29242e-06
-0.000111547
-1.23963e-06
0.000109438
1.41681e-06
0.00011078
-0.000111754
-7.05476e-05
0.000136586
-0.000105839
-0.000125474
0.000107058
-3.47445e-06
4.17314e-06
0.000109583
-3.08836e-06
0.000116156
-0.000112829
-3.66158e-06
0.000114235
-0.000112016