/*--------------------------------*- C++ -*----------------------------------*\
  =========                 |
  \\      /  F ield         | OpenFOAM: The Open Source CFD Toolbox
   \\    /   O peration     | Website:  https://openfoam.org
    \\  /    A nd           | Version:  12
     \\/     M anipulation  |
\*---------------------------------------------------------------------------*/
FoamFile
{
    format      ascii;
    class       volScalarField;
    location    "11.9";
    object      T;
}
// * * * * * * * * * * * * * * * * * * * * * * * * * * * * * * * * * * * * * //

dimensions      [0 0 0 1 0 0 0];

internalField   nonuniform List<scalar> 
9801
(
0.830739
0.832758
0.833348
0.833904
0.834129
0.834579
0.835265
0.836176
0.837467
0.840089
0.844435
0.847473
0.848948
0.849788
0.85039
0.850618
0.850917
0.851543
0.852372
0.853448
0.855471
0.859606
0.863345
0.86521
0.866209
0.866819
0.867036
0.867257
0.86782
0.868615
0.869633
0.871321
0.875312
0.879716
0.881932
0.88305
0.883656
0.883631
0.883637
0.884196
0.885005
0.886049
0.8876
0.891714
0.896726
0.899351
0.900508
0.90101
0.90066
0.900415
0.900811
0.901692
0.902816
0.904457
0.908958
0.914896
0.917982
0.919219
0.919565
0.91823
0.917705
0.918121
0.919214
0.920669
0.922869
0.928602
0.935073
0.93825
0.939823
0.940176
0.937274
0.935585
0.936142
0.937695
0.939841
0.944088
0.952623
0.959215
0.96227
0.96407
0.963352
0.958886
0.956423
0.957438
0.960153
0.96506
0.977074
0.987195
0.992651
0.996633
0.999069
0.996435
0.989295
0.987842
0.99416
1.0104
1.03417
1.17088
1.53227
0.834068
0.836323
0.837226
0.837669
0.837398
0.837816
0.838707
0.839773
0.841094
0.84416
0.848078
0.850526
0.852095
0.853244
0.853982
0.853599
0.85365
0.854464
0.855547
0.856742
0.858853
0.862987
0.866239
0.868096
0.869369
0.870296
0.869862
0.869474
0.870188
0.871298
0.872534
0.874226
0.878186
0.882312
0.884546
0.885941
0.886974
0.886389
0.885482
0.886082
0.887223
0.888536
0.890101
0.893916
0.898927
0.901747
0.903248
0.904307
0.903499
0.901946
0.902331
0.903574
0.904994
0.906689
0.910844
0.916659
0.919966
0.921604
0.922708
0.921358
0.919254
0.919572
0.920959
0.922582
0.924634
0.930401
0.93691
0.940189
0.942107
0.943146
0.940554
0.937631
0.938063
0.939915
0.942154
0.946414
0.955004
0.961223
0.96431
0.966432
0.967549
0.962991
0.959083
0.960305
0.963284
0.968205
0.978052
0.987383
0.993155
0.997992
1.00232
1.00144
0.995451
0.992383
0.995726
1.00695
1.02761
1.16572
1.55066
0.837849
0.840111
0.841083
0.841645
0.841411
0.8417
0.842541
0.843639
0.844999
0.848136
0.852062
0.854344
0.855816
0.857017
0.857877
0.857598
0.857503
0.858208
0.859291
0.860542
0.862661
0.866834
0.870028
0.871815
0.873143
0.874206
0.873951
0.873398
0.87396
0.875029
0.876303
0.877958
0.881839
0.885966
0.888208
0.889705
0.89092
0.890626
0.889585
0.88999
0.891032
0.892351
0.893878
0.897439
0.902508
0.905447
0.907135
0.908442
0.908006
0.906282
0.906479
0.907623
0.909125
0.910842
0.914615
0.920315
0.923734
0.925598
0.927078
0.926537
0.924222
0.924024
0.925303
0.927028
0.929094
0.934335
0.940906
0.944484
0.946707
0.948351
0.947154
0.943877
0.943506
0.945218
0.947511
0.9512
0.959115
0.965956
0.96996
0.972847
0.975082
0.972067
0.966949
0.967285
0.970525
0.974747
0.982856
0.993961
1.00175
1.00705
1.01237
1.01334
1.00928
1.00781
1.00984
1.01966
1.03531
1.17363
1.56874
0.842582
0.844903
0.845866
0.846615
0.846444
0.846576
0.847339
0.848424
0.849894
0.853127
0.856996
0.859295
0.860751
0.861933
0.862908
0.862804
0.862522
0.863117
0.864149
0.865461
0.867753
0.871953
0.87518
0.876993
0.878323
0.879467
0.879454
0.87868
0.879043
0.880009
0.881301
0.883105
0.887087
0.891358
0.893701
0.895227
0.896518
0.896569
0.895325
0.895407
0.896296
0.897609
0.899274
0.902923
0.908209
0.911352
0.913116
0.914529
0.914608
0.912822
0.912552
0.913493
0.914913
0.916704
0.920478
0.926447
0.930211
0.932252
0.933921
0.934278
0.931774
0.93079
0.93189
0.933639
0.935814
0.940773
0.947839
0.952121
0.954656
0.956639
0.956803
0.953043
0.951317
0.952879
0.955378
0.958683
0.966025
0.974244
0.979104
0.982275
0.984918
0.984278
0.979061
0.977083
0.979853
0.984118
0.990384
1.00117
1.01074
1.01706
1.02283
1.02696
1.02493
1.02157
1.0212
1.0282
1.03725
1.18195
1.58412
0.847742
0.850156
0.85114
0.852015
0.85197
0.851952
0.852651
0.853691
0.855151
0.85853
0.862458
0.864768
0.86626
0.867478
0.868529
0.868646
0.868241
0.86875
0.869749
0.870996
0.873324
0.8777
0.881034
0.882896
0.884259
0.885439
0.885694
0.884868
0.885097
0.886053
0.887294
0.889001
0.893015
0.897547
0.900059
0.90163
0.902936
0.903327
0.90206
0.901919
0.902864
0.9042
0.905815
0.909297
0.914644
0.918038
0.919942
0.921435
0.92216
0.920496
0.919543
0.920393
0.921857
0.923654
0.927238
0.933361
0.93758
0.939893
0.9417
0.942839
0.940805
0.938581
0.939276
0.941069
0.943271
0.947619
0.954977
0.9601
0.962955
0.965078
0.966468
0.963853
0.960508
0.96083
0.963275
0.966267
0.971969
0.98113
0.987633
0.991321
0.994385
0.996281
0.992517
0.98789
0.987998
0.991831
0.997021
1.00603
1.01664
1.02448
1.03062
1.03658
1.03764
1.03426
1.03139
1.03284
1.03533
1.18502
1.59276
0.853265
0.855725
0.856738
0.857716
0.857801
0.857683
0.858318
0.859335
0.860672
0.863978
0.868164
0.870584
0.872102
0.873337
0.874437
0.874753
0.874265
0.874645
0.875619
0.876828
0.878938
0.883446
0.887074
0.889048
0.890453
0.891666
0.892178
0.891291
0.891256
0.892161
0.89341
0.895005
0.898821
0.903658
0.906456
0.90816
0.909539
0.910369
0.909209
0.908329
0.909068
0.910403
0.912028
0.915315
0.920792
0.924562
0.926739
0.928405
0.929713
0.928789
0.92659
0.92665
0.928054
0.929897
0.933212
0.939493
0.944344
0.94694
0.948872
0.950552
0.949945
0.946665
0.945857
0.947322
0.94942
0.952884
0.960152
0.966694
0.97011
0.972371
0.974394
0.973928
0.969545
0.967811
0.969342
0.972078
0.976024
0.984388
0.992911
0.998044
1.00147
1.00435
1.00367
0.997993
0.995353
0.997117
1.00125
1.0074
1.01701
1.02581
1.03248
1.0384
1.0432
1.04273
1.03874
1.03504
1.03156
1.18335
1.59731
0.85853
0.860997
0.862011
0.863005
0.863101
0.862871
0.863467
0.864512
0.865854
0.868988
0.873361
0.875975
0.877553
0.878807
0.879941
0.880416
0.879728
0.879855
0.880802
0.882063
0.884103
0.888537
0.892426
0.894563
0.89604
0.897301
0.898146
0.897291
0.896584
0.897273
0.898548
0.900241
0.903939
0.908897
0.91194
0.913793
0.915257
0.916483
0.916
0.914204
0.914167
0.915374
0.917043
0.920214
0.925848
0.930022
0.932313
0.934001
0.935498
0.935766
0.933178
0.932015
0.933023
0.934738
0.937479
0.943561
0.949409
0.952412
0.954346
0.956066
0.956741
0.953806
0.951668
0.952176
0.953982
0.956445
0.96226
0.970216
0.97506
0.977718
0.979813
0.980856
0.977403
0.973739
0.973604
0.975799
0.97874
0.984412
0.993984
1.00117
1.00532
1.00853
1.01067
1.00763
1.00241
1.00127
1.00351
1.00767
1.01496
1.02438
1.03189
1.03793
1.04316
1.04578
1.04406
1.03863
1.02881
1.17892
1.59978
0.863134
0.865684
0.866704
0.867734
0.867954
0.86751
0.867907
0.868874
0.870136
0.873098
0.877679
0.880519
0.882171
0.883468
0.884639
0.885385
0.884682
0.88433
0.885066
0.886237
0.888127
0.892512
0.896736
0.899031
0.90056
0.901855
0.902996
0.902681
0.901346
0.901504
0.902586
0.904087
0.907522
0.912797
0.916201
0.91812
0.919607
0.920962
0.921413
0.919393
0.91849
0.919299
0.920737
0.923225
0.928856
0.933954
0.936539
0.938204
0.939689
0.940635
0.938703
0.936693
0.937004
0.938416
0.940318
0.944994
0.951963
0.956178
0.958422
0.960153
0.961504
0.959779
0.956476
0.955836
0.957107
0.95914
0.962668
0.970643
0.977665
0.981242
0.983517
0.985339
0.984212
0.979313
0.977268
0.978229
0.980676
0.983869
0.991436
1.00089
1.00679
1.01051
1.01368
1.0151
1.01054
1.00566
1.00538
1.00804
1.01252
1.02042
1.02887
1.03534
1.04087
1.04534
1.04617
1.04243
1.03188
1.17349
1.60142
0.866925
0.869577
0.870618
0.871693
0.872117
0.871556
0.871737
0.872592
0.873731
0.876189
0.880892
0.884154
0.88594
0.887268
0.888443
0.889358
0.88886
0.888151
0.888642
0.889689
0.89118
0.895077
0.899875
0.902549
0.904157
0.905462
0.906657
0.906867
0.905359
0.905076
0.905901
0.907167
0.909675
0.915099
0.919315
0.921453
0.922947
0.924295
0.925201
0.923697
0.922147
0.922515
0.923726
0.9254
0.929865
0.936036
0.939517
0.941393
0.942912
0.944224
0.943301
0.940597
0.940076
0.941023
0.942592
0.945334
0.952212
0.958326
0.961377
0.963232
0.964796
0.964615
0.960876
0.958816
0.95936
0.961108
0.96331
0.968778
0.977661
0.983062
0.985867
0.987962
0.989298
0.986165
0.981424
0.980383
0.981647
0.984095
0.988198
0.997365
1.00626
1.01149
1.01493
1.01774
1.0177
1.01249
1.00849
1.00879
1.01165
1.01661
1.02486
1.03239
1.03802
1.04276
1.04551
1.04466
1.03678
1.1702
1.60301
0.870017
0.872755
0.873809
0.874891
0.875469
0.874895
0.874879
0.875653
0.876724
0.878609
0.883149
0.886984
0.888967
0.890328
0.89149
0.892482
0.892272
0.891273
0.891549
0.892501
0.893732
0.896684
0.901902
0.905204
0.906973
0.908317
0.909519
0.910162
0.908755
0.907923
0.908542
0.909678
0.911323
0.915951
0.921236
0.92399
0.925591
0.926935
0.928076
0.927314
0.925196
0.925055
0.925991
0.927361
0.930018
0.936387
0.941392
0.943833
0.945418
0.946844
0.947085
0.944172
0.942469
0.942934
0.944292
0.946063
0.95081
0.958638
0.963223
0.965547
0.967172
0.968296
0.965872
0.962061
0.961351
0.962391
0.964257
0.967018
0.974714
0.983194
0.987467
0.990076
0.992257
0.992633
0.987274
0.983026
0.982978
0.984839
0.987492
0.992554
1.00223
1.01015
1.01476
1.018
1.02066
1.02021
1.01475
1.01111
1.01172
1.01484
1.02031
1.02854
1.03522
1.04026
1.04388
1.04505
1.04136
1.1694
1.60466
0.872387
0.875276
0.876349
0.87744
0.878162
0.877638
0.877349
0.878007
0.879028
0.880497
0.884498
0.888942
0.891239
0.89267
0.893853
0.894904
0.895102
0.893912
0.893833
0.894654
0.89578
0.897781
0.902812
0.907021
0.909094
0.910497
0.911726
0.912698
0.911816
0.910327
0.910579
0.911568
0.912861
0.915962
0.921957
0.925774
0.927665
0.92905
0.930305
0.930493
0.928153
0.927057
0.927677
0.92891
0.930564
0.93545
0.942163
0.945666
0.947504
0.948945
0.949984
0.948064
0.944962
0.944624
0.945682
0.9472
0.949602
0.956721
0.963834
0.967158
0.969098
0.970663
0.970846
0.966652
0.963477
0.963459
0.96487
0.966881
0.970941
0.980453
0.987958
0.991462
0.993648
0.995463
0.994635
0.988938
0.985677
0.985961
0.987741
0.990528
0.996693
1.00643
1.01361
1.01802
1.02127
1.02343
1.02217
1.01681
1.01353
1.01425
1.01736
1.02329
1.03146
1.03759
1.0418
1.04407
1.04446
1.17172
1.60651
0.874238
0.877353
0.878436
0.879518
0.880343
0.880013
0.879439
0.879929
0.880879
0.882078
0.885167
0.890159
0.89305
0.894594
0.895802
0.896887
0.897492
0.896393
0.895788
0.896401
0.897439
0.898837
0.902869
0.908115
0.910856
0.912374
0.913616
0.914733
0.914633
0.912717
0.912308
0.913087
0.91427
0.916131
0.92155
0.926908
0.929461
0.930945
0.932216
0.933098
0.931375
0.929145
0.929215
0.930246
0.931624
0.934289
0.941263
0.946747
0.949271
0.950824
0.952182
0.952079
0.948508
0.946564
0.946942
0.948184
0.949822
0.953849
0.962439
0.968159
0.970851
0.972732
0.974279
0.972583
0.967292
0.965255
0.965904
0.967555
0.969706
0.975143
0.985185
0.991403
0.99439
0.996899
0.999008
0.99709
0.990652
0.98782
0.988543
0.990689
0.993824
1.00081
1.01011
1.01656
1.0207
1.02385
1.02573
1.02405
1.01857
1.01539
1.0161
1.019
1.02521
1.03325
1.03904
1.04222
1.04569
1.17686
1.6086
0.875667
0.879178
0.880295
0.881379
0.882291
0.882259
0.881389
0.881624
0.882468
0.883541
0.885624
0.89064
0.894481
0.896326
0.897602
0.898715
0.899608
0.898929
0.897696
0.897965
0.898887
0.900068
0.90271
0.908422
0.912259
0.914099
0.915392
0.916556
0.917156
0.915394
0.91407
0.91453
0.915589
0.916929
0.920511
0.927059
0.930853
0.932691
0.934019
0.935217
0.934856
0.931919
0.930884
0.931539
0.932741
0.934296
0.939063
0.946588
0.950561
0.952559
0.954011
0.955152
0.953224
0.949266
0.948302
0.94911
0.9506
0.952645
0.958856
0.967529
0.971906
0.97407
0.975738
0.976974
0.974062
0.968991
0.967582
0.968167
0.969747
0.972207
0.979414
0.989718
0.995439
0.9982
1.00033
1.00161
0.998668
0.992813
0.990621
0.991416
0.993574
0.997077
1.00487
1.01361
1.01939
1.02323
1.02618
1.02762
1.02554
1.0199
1.01662
1.01709
1.0196
1.0262
1.03436
1.03956
1.04537
1.18379
1.61105
0.876753
0.88087
0.88205
0.883151
0.884113
0.884447
0.883423
0.883232
0.883923
0.884934
0.886362
0.890577
0.895535
0.897987
0.899352
0.90048
0.901491
0.901457
0.899811
0.899527
0.9003
0.901404
0.903021
0.907923
0.913221
0.915739
0.917142
0.918314
0.919295
0.918381
0.916204
0.91603
0.916902
0.918095
0.920001
0.925866
0.931674
0.934328
0.93583
0.937093
0.937877
0.935591
0.932975
0.932873
0.933786
0.935144
0.937512
0.944503
0.951114
0.954127
0.95594
0.95737
0.957737
0.953819
0.950568
0.950484
0.951559
0.953129
0.95586
0.963872
0.971711
0.975277
0.977517
0.979376
0.979984
0.975144
0.97022
0.969506
0.970741
0.972606
0.975398
0.983537
0.993235
0.998017
1.0006
1.00304
1.00462
1.00116
0.995096
0.993092
0.994107
0.996418
1.00034
1.00857
1.01665
1.02189
1.02548
1.02819
1.02937
1.02677
1.02069
1.01712
1.01724
1.01943
1.02677
1.03466
1.0429
1.1917
1.61362
0.877417
0.882352
0.88376
0.884921
0.88592
0.886602
0.885696
0.884894
0.885366
0.886326
0.887502
0.890375
0.895966
0.899392
0.901025
0.902199
0.903262
0.903855
0.902379
0.901288
0.90177
0.90277
0.903987
0.907092
0.913293
0.917027
0.918795
0.920036
0.921169
0.921405
0.919044
0.917765
0.918267
0.919312
0.920615
0.924156
0.931284
0.935543
0.937517
0.93885
0.940068
0.939637
0.93606
0.934481
0.935047
0.936253
0.937713
0.941602
0.949819
0.954984
0.957252
0.958821
0.960241
0.959611
0.954898
0.952432
0.952609
0.953745
0.955475
0.959457
0.968874
0.975777
0.97871
0.98042
0.981952
0.982112
0.977005
0.972842
0.972383
0.97324
0.974927
0.978191
0.987361
0.996771
1.00149
1.00405
1.00613
1.00684
1.00303
0.997512
0.995668
0.996554
0.998794
1.00329
1.01208
1.0197
1.02441
1.02751
1.0298
1.03076
1.02778
1.02124
1.01704
1.01665
1.01896
1.027
1.0379
1.1988
1.61566
0.877747
0.883606
0.885472
0.886677
0.887681
0.888551
0.888167
0.886828
0.886937
0.887796
0.888873
0.89058
0.895589
0.900386
0.902613
0.90391
0.905021
0.905969
0.905291
0.903407
0.903304
0.904131
0.905246
0.906935
0.912261
0.917823
0.92037
0.921774
0.922941
0.923884
0.922538
0.919994
0.919722
0.920576
0.92176
0.923504
0.929243
0.935913
0.938991
0.940668
0.941932
0.942827
0.940516
0.937108
0.9366
0.93738
0.938637
0.940403
0.946252
0.954432
0.958471
0.960583
0.962205
0.963421
0.960918
0.955749
0.954203
0.954985
0.956362
0.958086
0.963001
0.972786
0.978627
0.981351
0.983598
0.985449
0.984651
0.978452
0.974447
0.97438
0.975828
0.977821
0.981438
0.990747
0.99947
1.0037
1.00615
1.0084
1.00944
1.00541
0.999564
0.997652
0.99863
1.00101
1.0061
1.0151
1.02218
1.02641
1.02924
1.03133
1.03199
1.02868
1.02157
1.0163
1.01543
1.01803
1.0304
1.20342
1.61678
0.87793
0.884313
0.886921
0.888308
0.88937
0.890356
0.890729
0.889311
0.88871
0.889307
0.890267
0.891441
0.89477
0.900679
0.903967
0.905568
0.906739
0.907807
0.908131
0.906109
0.905016
0.905547
0.90657
0.907776
0.910873
0.917474
0.921519
0.923375
0.924625
0.925781
0.926005
0.923197
0.921517
0.921944
0.922985
0.924222
0.927035
0.934409
0.939786
0.942087
0.943557
0.944859
0.945087
0.941387
0.938569
0.938577
0.939556
0.940935
0.943476
0.951175
0.958549
0.96169
0.96337
0.964763
0.965782
0.962494
0.957789
0.95667
0.957124
0.958346
0.960337
0.966787
0.976956
0.982407
0.984718
0.986277
0.987731
0.986693
0.980828
0.977375
0.977272
0.978276
0.980049
0.98415
0.994047
1.00236
1.00646
1.00885
1.01077
1.01125
1.00729
1.00173
0.999685
1.00038
1.00259
1.00826
1.01762
1.02446
1.02826
1.03069
1.03252
1.03291
1.02952
1.02162
1.01508
1.0128
1.02053
1.20322
1.61699
0.878269
0.884241
0.888066
0.889877
0.891078
0.892138
0.893007
0.892224
0.890684
0.890781
0.89161
0.892688
0.894537
0.899994
0.904938
0.907149
0.908423
0.909511
0.910421
0.909387
0.907215
0.907069
0.907895
0.908988
0.910503
0.915683
0.921941
0.924804
0.92631
0.927512
0.928561
0.927289
0.924143
0.923464
0.924148
0.925229
0.926666
0.931306
0.939104
0.943271
0.945313
0.946714
0.947912
0.946708
0.942139
0.940297
0.940827
0.941983
0.943365
0.946702
0.955446
0.961845
0.964605
0.966528
0.968156
0.968488
0.963588
0.958961
0.958397
0.959534
0.961007
0.963011
0.969987
0.979687
0.984378
0.986847
0.989127
0.990867
0.989216
0.982813
0.979177
0.979198
0.980662
0.98274
0.987158
0.996826
1.00449
1.00829
1.01065
1.01281
1.01367
1.00942
1.00328
1.00099
1.00166
1.00392
1.01
1.01951
1.02604
1.02949
1.0318
1.03347
1.03362
1.02999
1.02112
1.01278
1.01133
1.19775
1.61617
0.879019
0.883524
0.888828
0.891416
0.892764
0.893855
0.894856
0.895023
0.893107
0.892412
0.893065
0.894086
0.895282
0.898732
0.90493
0.908342
0.909975
0.911171
0.912274
0.912612
0.910259
0.908819
0.909214
0.910161
0.911301
0.913881
0.920789
0.925777
0.92792
0.92921
0.930384
0.930914
0.928034
0.925376
0.925378
0.926342
0.92754
0.929428
0.935913
0.943182
0.946379
0.948112
0.949451
0.95054
0.948228
0.943714
0.942457
0.942915
0.943985
0.945562
0.95029
0.959715
0.965371
0.9677
0.969074
0.970447
0.97058
0.965609
0.961618
0.961051
0.961536
0.962824
0.965185
0.973289
0.983187
0.987888
0.990013
0.991591
0.992922
0.991344
0.985324
0.981882
0.981724
0.982701
0.984552
0.98974
0.999981
1.00727
1.0108
1.013
1.01485
1.01534
1.01119
1.005
1.00238
1.00277
1.00482
1.01112
1.02088
1.02726
1.03045
1.0326
1.03406
1.03393
1.02978
1.01825
1.0083
1.18773
1.61507
0.880231
0.883021
0.888783
0.892638
0.894365
0.895495
0.896508
0.897293
0.896115
0.894441
0.894601
0.895434
0.896458
0.898139
0.903623
0.909097
0.911528
0.912858
0.913974
0.914955
0.913913
0.911116
0.9106
0.911345
0.912439
0.913771
0.918171
0.925447
0.929158
0.930905
0.932073
0.93322
0.932582
0.928712
0.927075
0.927524
0.928489
0.929698
0.93244
0.940376
0.946712
0.949415
0.951179
0.952606
0.953193
0.949204
0.944791
0.944169
0.945169
0.946406
0.947994
0.953517
0.96291
0.967778
0.970134
0.972091
0.973681
0.972991
0.967025
0.962871
0.962641
0.963887
0.965488
0.967922
0.97607
0.985349
0.989564
0.991823
0.993915
0.995533
0.993754
0.987383
0.983557
0.983395
0.984879
0.987138
0.992725
1.00253
1.00913
1.01244
1.01472
1.01683
1.01759
1.01299
1.00618
1.00325
1.00355
1.00558
1.01196
1.02173
1.02788
1.03089
1.03306
1.03424
1.03394
1.027
1.01342
1.1774
1.61453
0.881612
0.883331
0.887774
0.893217
0.895744
0.897073
0.898161
0.89917
0.899221
0.897022
0.896155
0.896691
0.897657
0.898811
0.901938
0.908633
0.912667
0.91445
0.915583
0.916648
0.917107
0.914482
0.9124
0.912652
0.913619
0.914726
0.916486
0.922742
0.929403
0.932228
0.933763
0.934932
0.935865
0.933672
0.929698
0.928757
0.929412
0.930504
0.931895
0.936006
0.944678
0.949986
0.952177
0.953607
0.954933
0.955249
0.950819
0.947034
0.946559
0.947082
0.948245
0.950192
0.957034
0.966547
0.971148
0.973087
0.974337
0.975713
0.975087
0.969481
0.965812
0.965443
0.966008
0.967294
0.969965
0.978829
0.988275
0.992513
0.994484
0.99605
0.997592
0.996336
0.99024
0.986321
0.985842
0.98673
0.988689
0.994818
1.00502
1.01159
1.01476
1.01679
1.01858
1.01917
1.01473
1.00766
1.0043
1.00429
1.00606
1.01228
1.02196
1.02797
1.03104
1.03317
1.03428
1.03217
1.02377
1.17143
1.61487
0.88293
0.884318
0.886733
0.89279
0.896892
0.898705
0.899825
0.900836
0.901618
0.900168
0.898047
0.898068
0.898935
0.90001
0.901489
0.906526
0.912868
0.915706
0.917151
0.918264
0.919304
0.918558
0.91523
0.914167
0.914707
0.915681
0.916852
0.919677
0.927336
0.932947
0.935285
0.936684
0.93784
0.938156
0.934292
0.930824
0.930655
0.931667
0.932835
0.934265
0.939417
0.948214
0.952754
0.954896
0.956572
0.958009
0.957384
0.951773
0.948162
0.948205
0.949405
0.950731
0.952646
0.959823
0.968827
0.972918
0.975203
0.977204
0.978737
0.977573
0.971417
0.967303
0.96693
0.968099
0.96972
0.972508
0.981113
0.989916
0.993971
0.996512
0.998714
1.0002
0.998564
0.99206
0.987585
0.986974
0.988289
0.990595
0.996926
1.00673
1.01292
1.01604
1.0184
1.02049
1.0213
1.01662
1.00882
1.00495
1.00477
1.0064
1.01224
1.02167
1.02772
1.03094
1.03333
1.03354
1.03172
1.17189
1.6163
0.88428
0.885558
0.886841
0.891267
0.897227
0.899997
0.901353
0.902408
0.903391
0.903384
0.900828
0.899715
0.900239
0.90118
0.902242
0.904521
0.911236
0.916516
0.918697
0.919923
0.920992
0.921697
0.919276
0.916169
0.915899
0.916793
0.917939
0.919215
0.923336
0.931467
0.936
0.938006
0.939356
0.940503
0.940063
0.935561
0.932894
0.932936
0.93367
0.934815
0.936644
0.943167
0.951773
0.95579
0.957581
0.958764
0.960031
0.959267
0.953881
0.950856
0.950685
0.951212
0.952435
0.954743
0.962859
0.972083
0.976185
0.977994
0.979235
0.98057
0.979857
0.974174
0.970132
0.969518
0.97007
0.971393
0.974324
0.983889
0.993056
0.99699
0.998829
1.00023
1.00161
1.00051
0.994439
0.989852
0.988904
0.989634
0.991551
0.997887
1.00841
1.01527
1.01854
1.02053
1.02214
1.0226
1.01818
1.01008
1.00566
1.00515
1.00643
1.01172
1.02094
1.02723
1.03106
1.03237
1.03631
1.1773
1.61855
0.885759
0.886795
0.887756
0.889923
0.896053
0.900838
0.902879
0.904017
0.905007
0.905827
0.904435
0.901826
0.901527
0.902271
0.903309
0.904547
0.908335
0.915687
0.919735
0.921509
0.922571
0.923618
0.923532
0.919858
0.917726
0.918054
0.919006
0.920071
0.921519
0.927038
0.935052
0.9389
0.940808
0.942236
0.943383
0.941852
0.936554
0.934281
0.934817
0.936023
0.937197
0.939064
0.946265
0.954434
0.957954
0.959952
0.96165
0.962989
0.96137
0.955273
0.952054
0.952261
0.953508
0.954931
0.957176
0.965148
0.973792
0.977615
0.979847
0.981835
0.983325
0.982457
0.976545
0.971856
0.971085
0.972185
0.973867
0.976864
0.985859
0.994145
0.997813
1.00013
1.00224
1.00391
1.00294
0.996476
0.991153
0.989906
0.990957
0.993101
0.999294
1.00954
1.01629
1.01963
1.02179
1.02342
1.02402
1.01978
1.01131
1.0062
1.00526
1.00606
1.01075
1.01989
1.02688
1.03004
1.03774
1.18627
1.62126
0.887383
0.887969
0.888888
0.890091
0.893869
0.900537
0.904003
0.90555
0.906555
0.907518
0.907777
0.905042
0.903203
0.903526
0.904469
0.905523
0.906989
0.912308
0.919434
0.922649
0.924243
0.92531
0.926283
0.924861
0.920771
0.919434
0.919926
0.9209
0.922064
0.924016
0.930796
0.938308
0.941561
0.943195
0.944459
0.945523
0.943565
0.938592
0.936855
0.937111
0.937832
0.939036
0.941496
0.949593
0.957596
0.960955
0.962537
0.963605
0.964878
0.963582
0.957858
0.954971
0.954825
0.955309
0.956496
0.958985
0.967622
0.976696
0.980648
0.982421
0.983662
0.985206
0.985141
0.979649
0.974782
0.973618
0.973794
0.974914
0.978071
0.987714
0.996758
1.0008
1.00273
1.00433
1.00583
1.00529
0.999125
0.993425
0.991848
0.992263
0.993761
0.99932
1.00993
1.01744
1.02115
1.02321
1.0245
1.02502
1.02135
1.01272
1.00665
1.00501
1.00528
1.00948
1.01902
1.02551
1.03665
1.19612
1.62389
0.889308
0.889288
0.890171
0.891205
0.892812
0.898187
0.904182
0.906743
0.908053
0.909065
0.910029
0.909166
0.905932
0.90504
0.905589
0.906475
0.907537
0.909598
0.91635
0.922882
0.925585
0.927001
0.928017
0.928724
0.925867
0.921864
0.921198
0.922027
0.923141
0.924227
0.926461
0.93411
0.941133
0.944052
0.945774
0.947234
0.948207
0.945196
0.939785
0.938172
0.938917
0.940149
0.941349
0.943776
0.952041
0.959563
0.962682
0.964708
0.966427
0.967703
0.965908
0.959786
0.956276
0.95621
0.95737
0.958845
0.96127
0.969445
0.978002
0.98189
0.984296
0.986284
0.987814
0.987411
0.981394
0.975644
0.974221
0.975157
0.976908
0.980368
0.989802
0.998321
1.00217
1.00441
1.0065
1.00814
1.00754
1.00106
0.994609
0.992445
0.993003
0.994677
0.999906
1.01036
1.01827
1.02217
1.02419
1.02535
1.02586
1.02268
1.01406
1.0069
1.0042
1.0039
1.00836
1.01747
1.03192
1.20523
1.62584
0.891975
0.890921
0.891488
0.892369
0.893304
0.895565
0.902312
0.907458
0.909532
0.910667
0.911659
0.912332
0.909952
0.906965
0.906725
0.907568
0.908649
0.909778
0.9125
0.920082
0.92581
0.92819
0.929656
0.930759
0.930962
0.927133
0.92375
0.923417
0.924014
0.924972
0.926214
0.929233
0.937555
0.944028
0.946649
0.948081
0.949173
0.950097
0.947184
0.942246
0.940848
0.941074
0.941742
0.943017
0.945969
0.95487
0.962549
0.965643
0.967122
0.968209
0.969605
0.968528
0.962679
0.959146
0.958738
0.959137
0.960244
0.96275
0.971511
0.980745
0.984789
0.986526
0.987578
0.988953
0.989163
0.984001
0.978594
0.977105
0.977404
0.978569
0.981529
0.990875
1.00014
1.00455
1.00656
1.00795
1.00949
1.00962
1.00378
0.996896
0.994282
0.994303
0.995507
1
1.01045
1.01893
1.02303
1.0248
1.02571
1.02618
1.02377
1.0156
1.00706
1.00281
1.00234
1.00674
1.02404
1.21135
1.62689
0.895312
0.892945
0.892614
0.893276
0.894237
0.895404
0.899034
0.90635
0.910441
0.912161
0.913152
0.914154
0.914191
0.910704
0.908558
0.908823
0.909683
0.910638
0.911776
0.915306
0.923511
0.928706
0.930929
0.932362
0.93347
0.933102
0.928331
0.925028
0.925043
0.926122
0.92729
0.92844
0.931692
0.94036
0.946333
0.948765
0.950481
0.951986
0.95273
0.94903
0.94359
0.942014
0.942764
0.944
0.945294
0.948066
0.956767
0.964021
0.967085
0.969181
0.970936
0.972244
0.970965
0.964842
0.960503
0.959931
0.960985
0.962466
0.964893
0.973013
0.981562
0.985407
0.987858
0.989992
0.991662
0.991956
0.986905
0.980491
0.977997
0.978242
0.979523
0.982293
0.991444
1.00076
1.00518
1.00785
1.01014
1.01172
1.01178
1.00598
0.998475
0.995172
0.995037
0.996109
0.999869
1.0101
1.01905
1.02318
1.02488
1.02592
1.02653
1.02484
1.0172
1.00718
1.00134
0.999271
1.01317
1.21189
1.62664
0.898364
0.896068
0.894103
0.894441
0.895343
0.896307
0.897675
0.902533
0.90978
0.913222
0.914838
0.915879
0.916851
0.915679
0.911601
0.910094
0.91048
0.911399
0.912495
0.913944
0.91845
0.926683
0.931241
0.933219
0.934625
0.935723
0.934996
0.930252
0.927524
0.927485
0.928029
0.928991
0.930352
0.934466
0.943428
0.949145
0.951419
0.952654
0.9537
0.954626
0.951444
0.94627
0.944762
0.944927
0.945521
0.946784
0.949922
0.959215
0.966929
0.96999
0.971445
0.972479
0.973861
0.973465
0.967834
0.963367
0.962457
0.962661
0.963599
0.965911
0.974521
0.98426
0.988831
0.99084
0.992326
0.993795
0.994096
0.989085
0.982303
0.979444
0.979553
0.980904
0.983626
0.992297
1.0026
1.00797
1.01021
1.01158
1.01287
1.0133
1.00842
1.00057
0.996328
0.995637
0.99648
0.999717
1.00973
1.01928
1.02361
1.02512
1.0261
1.02674
1.02563
1.01846
1.00702
0.998704
1.0019
1.20601
1.62494
0.900444
0.900084
0.896634
0.8959
0.896434
0.897237
0.898192
0.899986
0.906162
0.913193
0.916192
0.9176
0.918552
0.919259
0.916694
0.912605
0.911793
0.912546
0.913625
0.914664
0.916018
0.921174
0.929511
0.933729
0.935652
0.937108
0.93829
0.937128
0.931705
0.92876
0.928989
0.930113
0.931286
0.93253
0.936677
0.945642
0.950936
0.95317
0.954953
0.956442
0.957171
0.95359
0.947873
0.94587
0.946443
0.947676
0.949062
0.952023
0.960784
0.968026
0.971105
0.973213
0.974976
0.976352
0.975873
0.970195
0.964823
0.96345
0.964293
0.965801
0.96829
0.97626
0.985635
0.990064
0.99209
0.993555
0.99513
0.996224
0.992408
0.98526
0.981861
0.981711
0.982663
0.984824
0.992471
1.00266
1.00818
1.01083
1.01294
1.01464
1.01532
1.01071
1.00231
0.997375
0.9963
0.996938
0.999738
1.00938
1.01896
1.02324
1.02485
1.0261
1.02679
1.02591
1.01892
1.00454
0.997283
1.19412
1.62295
0.901978
0.903217
0.900461
0.897671
0.897501
0.898311
0.899336
0.90039
0.902708
0.909795
0.916125
0.918756
0.920196
0.92125
0.921524
0.917894
0.914396
0.913971
0.914493
0.915346
0.916491
0.918278
0.924307
0.932322
0.936127
0.937835
0.939026
0.940034
0.938961
0.934023
0.931473
0.931464
0.931941
0.93287
0.934297
0.939115
0.948336
0.953693
0.955784
0.956927
0.957969
0.959076
0.956335
0.950769
0.948722
0.948781
0.949263
0.950436
0.953453
0.962645
0.97062
0.973897
0.975402
0.976412
0.977798
0.978207
0.973268
0.967741
0.966265
0.966456
0.967208
0.969111
0.976449
0.98606
0.991221
0.993915
0.99627
0.997969
0.998837
0.995083
0.987439
0.983298
0.982731
0.983552
0.985135
0.991744
1.00319
1.01029
1.01311
1.01456
1.01582
1.01644
1.01293
1.00468
0.998655
0.996881
0.997254
0.999311
1.00835
1.01828
1.02269
1.02443
1.02601
1.02675
1.02594
1.01623
1.0023
1.18106
1.6218
0.903352
0.904996
0.904659
0.901073
0.899183
0.899578
0.900494
0.901481
0.902546
0.905279
0.912935
0.918902
0.921398
0.922842
0.923852
0.923679
0.91922
0.915682
0.915507
0.916513
0.91768
0.918749
0.920392
0.926809
0.934654
0.938142
0.939904
0.941398
0.942613
0.941273
0.935751
0.932706
0.932821
0.933908
0.935105
0.936406
0.940993
0.949991
0.955035
0.95725
0.95909
0.960592
0.961523
0.958793
0.952808
0.949912
0.950071
0.951194
0.952615
0.955391
0.963798
0.971378
0.974768
0.976996
0.978885
0.980339
0.980557
0.975724
0.969471
0.967046
0.967215
0.968364
0.970213
0.977202
0.987942
0.994096
0.9966
0.99809
0.999283
1.00025
0.997221
0.989642
0.98482
0.983847
0.984822
0.986563
0.992242
1.0031
1.01036
1.01343
1.01537
1.01712
1.01813
1.01515
1.00636
0.99923
0.996853
0.997132
0.99922
1.00761
1.01731
1.02196
1.0242
1.02591
1.02684
1.02377
1.01512
1.1732
1.62181
0.904579
0.906578
0.907363
0.905908
0.902041
0.90101
0.901531
0.902389
0.90335
0.904565
0.907847
0.915804
0.921318
0.923597
0.925074
0.926167
0.925687
0.92117
0.918216
0.918081
0.918569
0.919351
0.920483
0.922585
0.929562
0.937205
0.940584
0.942168
0.943181
0.944261
0.943475
0.938454
0.935511
0.935311
0.935686
0.936523
0.937957
0.942977
0.952355
0.957748
0.959843
0.960985
0.962045
0.963318
0.961689
0.955891
0.952805
0.952499
0.952833
0.953834
0.956392
0.965028
0.973762
0.977623
0.979315
0.980361
0.981692
0.982618
0.978861
0.972203
0.969357
0.969449
0.970579
0.972305
0.978001
0.988341
0.994457
0.997164
0.999
1.00069
1.0021
1.00007
0.992862
0.987422
0.985864
0.985977
0.986995
0.991428
1.00265
1.01149
1.01523
1.01682
1.01805
1.01869
1.0167
1.00853
1.00046
0.997492
0.99738
0.998744
1.00615
1.01593
1.02118
1.02392
1.02596
1.02583
1.02512
1.17368
1.62313
0.905161
0.908213
0.909022
0.909781
0.90716
0.903494
0.902896
0.90361
0.904568
0.90546
0.906514
0.909989
0.918335
0.923743
0.925974
0.92741
0.928549
0.927952
0.923055
0.919609
0.919465
0.92045
0.921587
0.92263
0.924502
0.931604
0.93909
0.942274
0.944069
0.945646
0.946885
0.945903
0.940469
0.936752
0.936482
0.937465
0.938692
0.940082
0.944658
0.953573
0.958754
0.961114
0.963056
0.964613
0.965762
0.964261
0.958251
0.954121
0.953562
0.954531
0.955913
0.958289
0.965972
0.974324
0.978302
0.980685
0.982796
0.98434
0.985197
0.981471
0.974687
0.971412
0.970974
0.97125
0.972558
0.977754
0.988657
0.996257
0.999712
1.00155
1.0031
1.00429
1.00272
0.995463
0.988735
0.986412
0.986852
0.988287
0.992086
1.00224
1.01114
1.01506
1.01707
1.01875
1.0198
1.0183
1.01007
1.00107
0.997363
0.99708
0.99825
1.0048
1.01441
1.02022
1.02391
1.02492
1.03095
1.17988
1.62545
0.903846
0.909446
0.910943
0.912075
0.912414
0.90884