/*--------------------------------*- C++ -*----------------------------------*\
  =========                 |
  \\      /  F ield         | OpenFOAM: The Open Source CFD Toolbox
   \\    /   O peration     | Website:  https://openfoam.org
    \\  /    A nd           | Version:  12
     \\/     M anipulation  |
\*---------------------------------------------------------------------------*/
FoamFile
{
    format      ascii;
    class       volScalarField;
    location    "1.83";
    object      p;
}
// * * * * * * * * * * * * * * * * * * * * * * * * * * * * * * * * * * * * * //

dimensions      [1 -1 -2 0 0 0 0];

internalField   nonuniform List<scalar> 
22702
(
1
1
0.873123
1
1.04978
1
1.47237
1
1
0.615751
1.47229
1.4683
1
1.47068
0.889751
1
1
1
1.47087
1
1.47135
1
1.47572
0.65803
1.47925
0.688627
1
1.47806
0.608213
0.661968
1
1.46638
1
1
1
1.4339
1.47751
1.47426
1
1
0.634274
1
1.23188
1
1.4781
1
1
1
1
0.658126
1
0.650099
1
1.47316
1
1.46677
1
1
1
1
0.66663
1
1
0.625446
1
0.660374
1
1
1
0.618925
1
1.47748
1.28299
1
1.46976
1.49377
0.662221
1.46641
0.658978
1
1.46947
0.660706
1.47824
1.47965
1
1
1
1
0.934516
0.616693
1.46698
1
1
0.636907
1
1.47228
0.648982
1
1
1
1
1.23067
1.46989
0.679644
1
1
1.11092
1
0.660774
1
1.46466
1.47352
1
1
0.658462
0.659993
0.617335
1
1
1
1
1
0.909644
1
1.404
1.04303
1.46611
1
1.46467
1.47054
1.47204
1.47254
1
0.639101
1
0.682975
1
1
1
1
1.47233
1
1
1
1
1.4652
1
1.0246
1
1
1
1
0.670353
1
1.01082
1
0.656608
1
1
1
1.46527
1
1.47673
0.654551
0.660556
1.46992
1.47642
1
1.07839
1.2619
1
1.47571
0.661005
1.43559
1
1
1
1
1.47244
1.38558
1
1.47052
0.666656
1.47146
1
0.663133
1
0.654589
0.679952
0.999785
1
1
1.47322
1
1
1.47811
1
1.47429
1.47038
0.66343
1
1
0.657079
1.46749
1
1
1
1.4688
1
0.636649
1
1
1.46814
1.47261
1.46871
1
1.00004
1
1
1
1.47143
1
0.696162
1.4887
1.47766
1.47513
1
1
1
0.643608
1.4735
1.22166
1
1.47301
0.651044
0.643796
1.47297
1.4695
1
1.46516
0.646561
1.41738
1
1
1
1
1.47559
1
1.26341
1.04523
1
1
1.46772
0.675225
0.787416
1
1.46694
0.659701
1.47006
1
1
1
1
1
1
1
0.660032
0.781345
0.640485
1.46873
1
1
1
1
1.41425
1
0.659794
1
0.63664
0.657735
1.46929
0.653157
1.47105
1
1
1
0.99746
0.657997
0.632775
0.999999
1
0.633316
1
1.47099
0.670841
1
1
1.46931
0.632637
1
1.47014
0.664313
1.46697
1
0.647462
0.997766
1
1
1
0.650682
1
1
0.999998
1.00001
0.995304
1.28428
1
0.689367
1
1
1
1
1
1
1
1.47087
1
1.47312
1
1
1
0.608204
1
1.46502
0.650643
1
1.3736
1
1
1.47231
1
1
1
1.46082
1
1
1.47136
1.47217
1
1.09978
1
1
0.686786
1
1
1
0.632827
1
1
1
1
0.676868
1
1
1
1
1
0.615987
1.00006
1.4788
1
0.999983
1.47685
1.47132
1
1
0.673819
0.804043
1.4702
1
1
1
1.47057
0.624958
1
1.47495
1
1
0.741762
0.708295
1
0.656469
0.610282
1
1
1
1
1
1
1
1.46987
1.11166
1.46642
0.620846
0.893541
1.46992
1
1.46509
1.47112
0.633179
0.772105
1
0.636793
1
1.48511
1
1
1
1
1.4734
1
1
1
1
1
1
1
1.16999
1.46795
1
1.47163
1
1
0.659896
1
1
1
1
1.46692
1.35764
1
1
0.657462
1.47756
1.4757
1
1.47251
1.47826
1.47318
1
0.828482
1
1.47298
0.983286
1.47323
1
0.636306
0.998789
1.47096
1
1
1
1
0.660841
1.47669
1.42357
1
1.47456
1.4768
1.47013
1
1.22104
1.46878
1
1
1.32037
1.06718
1.46974
0.937263
1.47368
1
1.47415
1.47114
1.47377
1.47672
1
1.44943
0.882946
0.862943
1
0.999999
1
1
1.47798
1
1
1
1
1
1.46776
1
1
0.996364
1.47676
1.41562
1
1.4028
1.00004
1
1
1.47248
1
0.996564
1.00363
1
1.47315
1
1.4773
1
1
1.34593
1
1.47722
1.00002
1
1.47484
1
1.46784
1
1
1
1.47686
1
1.46909
1.00001
1.47605
1.47211
1.47557
1.47694
1
1.47326
1.45921
1
0.662868
1.44157
1.33348
1
1.47718
1
0.685839
0.667528
1
1
1
1
1
0.649756
1
1.46935
1.09525
1.46998
1
1
1
1
1
1.46756
1
1.47596
1.27909
0.770083
1
1.00001
1.12793
1.11885
1
1
1.16884
1
0.6609
1.47192
1.4758
1
1
1
1.47052
1
1.00003
1.46936
1.47533
0.976035
1
1
0.644229
1.42636
1
1
1
1
1
1.47282
1.47256
1
1.4695
1.46931
1.47239
1
1
1
1
0.676771
1.47174
1
1
1.42766
1.4702
1
1.44323
1.46426
1
1
1
1
1
1.47513
1
1
1
1
1.475
1
1.45484
0.63736
1
0.644212
1
1
1
0.997332
0.663942
0.999047
1
1
1
1.05954
1
1
0.895913
1
1
1
1
1
1
1
0.999997
0.905238
0.999999
1
0.997582
1
0.659248
1
1
1
1
1.34924
1
1
1
1
0.649241
1
1
1.44269
1.47339
1
1
1
0.888798
1
1
1
1
1
1
0.967682
0.985166
1.47113
1
1
1
1.47558
0.894747
1
1
1
1.47557
1.47254
1
1.00001
1
1
1
1
1
1
1
0.607924
1
1
1.47124
0.636822
1
1.47127
1
0.669257
1
1
0.611559
1
1
1
1
1
1
1
1.46275
1.47094
1
1
1
1
1.42985
1
1.12559
0.661883
1
1
1
1
1
1
1
1.05361
1
1
1.24103
1
1
1
1.38232
1
1
1
1
0.648961
1
1
0.613981
0.64107
1
1
1.47896
1
0.983723
1
1
1
1.32239
0.686755
1
0.676853
1
0.801853
1
1
1
1.47382
1
1
1.46786
1
1
1
1.46807
1
1
1.46293
1
1
0.639204
1
1.13336
1
1
1.47184
1.46957
1.30778
1.4173
1
0.629585
1
1
1.44989
1
0.695636
1
1
1
1.4717
1
1
1
1
1.27722
1
1.42116
1.46633
0.614379
1
1
0.69295
0.694122
1
1
1
1.32812
1.35571
1
1
1
1
1
1
1
1.1916
1.4802
1.02934
1
1.46606
0.645549
1
1
1
1.2481
1
1.09054
1
1.42842
1.47038
1
0.639767
1
1.4702
1
1
1.46606
1.44176
1
1.47962
1
0.628344
1
1
1
1.48366
1.46276
1.41163
1
1.47378
1.47626
1
1.47315
1
1.47037
1
0.664637
0.96544
0.605879
1
1
1
1
1
1.47194
1
1.46698
1
1
1
1.44794
1
0.65692
1.47094
1
0.663571
0.692464
0.667438
1
1.21945
1.0341
1.47361
1.4757
1
0.999999
1
1
1.4736
1
1
1.47154
1.47205
1
1.15837
1.00009
1
0.996646
1.46278
0.827862
1
0.806248
0.661048
0.661051
0.960478
1.47773
1.46593
1.07737
1.4722
1.46814
1
1
1.46987
1.47274
1.47251
1.47427
1
1.47226
0.664436
1.4698
1.46867
1.4732
1.47362
0.890869
0.923889
0.916188
1.46465
0.93316
1.47186
1
1
1.47413
1.47207
1
0.639024
1.47075
1.46604
1
1.4715
1.47087
1
1.47493
0.655635
1.46963
1.47667
1.47325
1.47908
1
1
1
1.46512
1.30381
0.692328
1.46865
0.600393
1.47099
1
1
1
1
1.47059
1.47225
1
1
1.47417
0.603414
1.47308
0.659279
1
1.4692
1
0.619529
1.47279
0.772729
1
1.47493
1.47474
1.47082
1
1
1.2161
1.47376
0.668522
1.47104
1
1.47395
0.869923
1.47013
0.617956
1
1.472
0.676563
1.47401
0.659795
1
1.47071
1
1.46867
1
1.26697
1.4536
1.36736
0.679195
1
1.47227
1
1.47423
1
1.47187
1
1
1.46992
0.981821
1.47472
0.608018
1.42914
1
1.32657
1
1.47246
1.47151
1.4723
1
1.42102
1.4717
1.43441
1.28494
1.47418
1
1.30568
1
1.46984
1
1.04584
1
1.43594
1
1.47353
1.44844
1.44884
1
1.45972
0.678991
1
0.634744
1
1
1
1.46361
1
1.47223
1
1
1
1.47558
1.46219
1.39123
1.46985
1.4761
0.652947
1.47127
1.47611
1
1.42519
1.4712
1.46366
1
1.47528
1.46672
1
1.48405
1.47171
1.47209
1.47172
1
1
1
1.47205
0.673666
1
1.47182
1
1
0.663513
1
1
1.47178
1.47133
1
1.47141
1.46835
1.46495
0.990041
1.47112
1
1.47136
1.47159
1.37732
1
1
1
1.47267
1.4713
1.47113
0.930016
1
1.48007
1.47139
1.46998
1
1.47203
1.47047
1.4714
1.47589
1
1.47098
1.4778
1.40734
1.47215
1.47279
1
1.47912
1.46641
1.47121
1.47237
1.47546
0.68814
1.46281
1.46884
1
1.47195
1.4709
1.47223
1.47268
1
1.46997
1.47154
1
1.46409
1.39327
1
1
1
1.46736
1.48104
1
1
1.24203
1
1.47132
1
1
1.46974
1.47287
1.47313
1.46835
1
1
1
1.33351
1
1.47109
1
1
1.46319
1.47844
1
1.4715
0.629029
1.4747
1.4686
0.725308
1
0.68721
1.40856
1.47405
1.46831
1.46928
0.6234
1.47022
1.4782
0.629424
0.617306
1
1.47374
1.4702
1
1
1.47102
1
1.47282
1
1.40846
1
1.21333
1.47043
1.47464
1.33358
1.43044
1.46747
1.48235
1.43989
1
0.651175
1.47347
1.47008
1.48918
1.00001
1
1
1.47173
1
1.47159
1.47546
0.766593
1
1.47168
0.999941
1
1.00003
1.00004
1.4701
1.46442
0.998456
1
1
1.47358
1.47363
1.4724
1.47652
1.469
0.707477
1.424
1
1.46887
1.47299
1.47187
1.47514
1
1.4713
1.4591
1.47309
1
1.4715
1.47345
0.880768
1.4709
1.47172
1
1.47288
0.872115
1.4724
0.85123
1.4714
1
1.47084
1.4764
1.47146
1.47198
1.471
1.47318
1.47251
1.47175
1
0.945378
1.47236
1.47609
0.860792
1.47095
0.982678
1.29408
1.47182
1.46884
1.47045
1
1.47432
1.30982
1.47405
0.947704
1.47437
1.47638
1
0.868695
1
1.47209
1
1.32155
1
1.44253
0.846892
1
1.47852
1.46409
1
1.46905
1.47407
1.46144
1.46347
1.47798
1
1.47383
1
1
1
0.867315
1.4653
1.47238
1.47269
1.47143
1.48134
1.47439
1.46359
1.47219
0.880239
1.03224
1
1
1.47476
1.4719
1.47085
1.4717
1.00003
1.24133
1
1.4834
1.42194
1
1
0.706266
1.47135
1
1
0.664658
1.47155
1
1.48026
1.47183
1.46711
1.45371
1.47055
1
0.693679
1.10903
1.47037
1.47101
1
1.47158
1.47192
1.22019
1.00908
1.10573
1
1.46909
1.46764
1
1
0.636573
1
1
1.47145
1.47178
1.46785
1.47323
1.47202
1.46743
1.47235
1.47416
1.47359
1
0.996392
1.47143
1.4727
0.997233
1.47178
1.47172
0.679718
0.61579
1.47001
1.47068
1
1
1.00096
1.47243
1.46767
1.47165
1
1.47158
1
0.86749
1.49017
1.46394
1
1.20296
1.47785
1
1.46923
1
1.47134
1.30284
1.48106
1
1.47119
1.48217
0.641872
1.47138
1
1.47115
1.48002
1
0.684624
1.47106
1.3961
0.997532
1.46706
1.47105
1
1.01455
1.46873
0.997022
1.47145
1
1
1.47045
1
1.47018
1.47185
0.996544
1.37106
1
1.47134
1
1
1
1
1.47173
1
1
1.47495
1
1.47245
1
1.29964
1.47765
1.4718
1
1
1.01766
1
1.47196
1.47193
1.46937
1.47241
1.47111
1.47237
1.47129
1
1.47241
1.47181
1
1.47138
1.47169
1
1.47186
0.919693
1.06137
1.47198
1.47257
1.47091
1
1.47187
1
1.47207
1.47266
1
1.4706
1
1
1
1
1.47016
0.688615
0.997922
1
1.47318
1.46934
1
1.47107
1
1.00543
0.67158
1.47105
0.999568
1
1.47316
0.998332
1.4722
1
0.999781
1
1.47264
1.47775
1.47177
1.47141
0.670452
1.46589
1.47116
1.47037
1.11064
1
1
1.18955
1.47209
0.682831
0.661883
1
1.47032
1.46992
1.46968
1
1
1.47363
1.47119
0.999871
1
1.33488
0.624712
1
1.08177
1.47391
1.46153
0.998248
1.47188
1.48081
1
0.998714
1
1.46403
1.46395
1.1861
1
1.43058
1
1.00161
1.46839
0.640307
1.47535
1.47187
0.996992
0.999912
1.40966
1
0.999689
1
1.47551
1
1.00001
0.667185
1.47145
1.00001
1
1
1
1.46917
1.25988
1
1
0.689701
1.47103
1.25997
1
1
1
1.44858
1.45929
1.47425
1
1
1.47739
1
1.47023
1.47206
1
1
1.47363
1.47183
1.44782
1
1
1.47386
1.46316
1
1
1
1.46069
1
1
1
1.47139
1.47468
1.4712
1
1.47611
1.00003
0.673458
1.47434
1.47069
1
1.47006
1.44392
1.46391
1
1
1.4691
1
1.24096
1.46355
1
0.657473
1
1.47347
1
1
1.47699
1
1
1
1.14527
1.4644
0.653145
1.00001
1.47397
1
1
1.47365
1
1.48388
1
1
1.47164
1.47557
1
1.00005
1
1
1
1
1
1
1.46899
1.47159
1
1.47905
0.647617
1.46569
1
1.46896
1.48192
1.47138
1.47036
1.47491
1
1
1.47477
1
1.26862
1.48754
1.4666
1
1.45913
1.46977
1
1.41032
1
1.47505
1.30454
1.4739
0.997578
1.45419
1.42537
1.46901
1.47232
1.03838
1.47138
1.46779
1
1.47112
1
1.4712
1
1
1
1
0.996673
1.47181
1.47155
1.37933
1
1.47928
1
1
1
0.663225
1
1.45871
1
1.42483
1.45811
1
1
1
1.44963
1.46393
1
1
1.47093
0.667904
1.07986
1
1.49029
1.47723
1.42658
1.44625
1.46948
1
1.47432
1
1
1
1
1.46352
1.47883
1
1.46505
1.04911
1.47193
1.43668
1
1
1.43802
1
1
0.642773
1.33697
1
1
1.47166
1
1.4679
1.43772
1
1.43951
0.673179
1.47203
1.47099
1.4729
1
0.651008
1
1
1
1.47189
1.3782
1
1.4799
1.47154
1
1.47152
1
1
1
1
1.46615
0.999428
1
1.47353
1
1
1.47366
1.47148
1
1.47078
1.09172
1.00002
1
1.4699
1
1.46977
1
1.01278
1.47073
1
1.47112
1
1
1.13807
1.4728
1
1
1
1
1
0.99652
0.632554
0.694653
1.01957
1
1.02849
1
1.01021
1
1.47066
1
1.28962
1
1.47154
1
1
1
1.47163
1
1.36201
1.47158
1
1.24495
1.46337
1
1
1.46451
1.47125
1
1
1.03332
0.669384
1
1.46843
1
1
1
1
1.07388
1.4717
1
1
1
0.612109
1
1.47174
1.47067
1.47784
1
1
1
1
1.23287
1.47741
1
1
1
1.47042
1.47218
1.0368
1
1
1
1.47772
1.47262
1
0.667443
1.47157
1.47169
1.47913
1.4756
1.46571
1
1
1.47355
1.47713
1.47381
0.615946
1.04078
1.47739
1
1
1
1
1
1.47208
0.668079
1
1
1.47317
1.21405
1
1.48408
1
1
1
0.647
1
1
1.11676
1.47216
1.47233
1
1.48276
1.47646
1
1.07506
1
1.47042
1
1.46544
0.669869
1
1
1
1
1.47154
1.00007
1
1
1
1.43516
1
1
1
1
1.47168
0.641888
1.35002
1.48414
1
1.47151
1
1
1
0.997104
1
1.47303
1
0.824291
1
1
1.00004
1.47345
0.668533
1
1.47324
1
1.47511
1.47057
0.606981
1
1
1.46207
1
1
0.636569
1
1.47744
1
1.4487
0.999394
1.47446
1
1
1
1
1.47645
1
1
1.47268
1
1
1
1
1
1
1
1
1.30656
1
1.14812
1.47028
1
1
1
0.632583
1
1
1
1
1.47499
1.47129
1.04897
1
1
1.47409
1
1
1.47347
1
1.00002
1
1
1
1.00001
1.47077
0.785062
1.47291
1.47382
0.997014
1
1
1
1.27078
1
1
1.46879
1.47204
1
1
1
1
0.627306
1
1
1
1.29528
1
1.4713
1.46989
1
1.47376
1
1
1
1.25171
1
1.47346
1
1.47207
1
1
0.996154
1.47146
1
1
1
1
1
1.47367
1.00002
1
0.644347
1.47017
0.673904
1
1.48545
1
0.996148
1
1.46779
1.47634
1
1.46236
0.893324
1.47092
1.47277
1.00003
1
1
0.644266
1
1
1
1.47217
1.2653
1.47597
1
1
1
1
0.996777
1.46996
1
0.676966
1
1
1
1
1
1
1
1.4706
1.47415
1.47188
1
1
0.996874
1
0.965713
1
1
1
0.68244
0.985655
1
0.644322
0.63749
1
1.47216
1.47075
1
1.47151
1.47144
0.663524
1.31872
1
1
1
0.677865
1.47149
1
0.671296
1
1.4743
1.08387
1
1
1
1
1.4726
1.47064
1
1
1.47091
1
1
1.47409
1.47232
1
1.44837
1.47273
1.47186
0.955781
1.46976
1.00872
0.668737
1.35834
1.47143
1
1
1
0.67767
1
0.63745
1.47858
0.940948
1.47265
0.974801
1
1.47393
1.20385
1
1
1.46777
1
1.18547
1.47209
1
1
1.46643
1.46544
0.642961
1.27114
0.999896
1
1.27216
1
1.47176
0.948616
1.47833
1.47241
1
1
1
1
1.46149
1
1
1.47341
0.999643
1.47044
1.37371
1.47396
0.66018
1
1
1
1
1.47228
1.00004
1.47129
1
1.47232
1.47516
1.05428
1.46172
1.14036
1.47207
1
1.32008
0.671467
1.4718
1.47364
1.38496
1.08197
1.47013
1.47096
1.47132
1.47099
1
0.916284
1.06926
1
1.47415
1.21635
1.46936
1.00003
1
1
0.680704
1.46877
1.47036
1.3768
1
1.16972
1
1.4782
1.47767
1
1.4707
1.47076
1
1
1
1.46972
1
1.17642
1.47411
1.32015
1
1.46242
1
1
1
1
1
1
1
1
1
1
0.658351
1
1.43809
0.681529
1.27002
0.998601
1.47027
1
1.24028
1.00001
1.30008
1.40382
1
1.00161
1.48001
0.920301
1
1.47738
1.46305
0.947237
1
1.46844
1.47122
1.46632
1
1.47142
1.4711
1.46996
1
1.21178
1
1.00006
1.47218
1
1.47253
1.06491
1.46847
1
1
1.4626
1.47781
0.707275
1
1.47167
1.34884
1.47194
1
1
1.47095
1.48266
0.998231
1
1.43706
0.996874
1.47254
1.00008
1
1
1
1
1.21041
1
1.35569
1.47164
1.34457
1.47239
1
1.00291
1
1
1.4733
1
1.47025
1
1
1
1
0.999999
1
1.05915
1.24016
1
1
0.705477
1
1.47249
0.66462
1.47476
1
1.23237
0.99976
1.47205
1.29843
0.686449
1.25675
1.00003
1.47811
1.47242
1
1.28125
1.4765
1.47017
0.998417
1.48342
1.45881
0.692346
1
1
0.998344
1
1.47615
1
0.690787
1.47531
1
1
1.42342
1
1.47118
1
1.47179
1
0.699312
1
1
1.47602
1.47057
1.47205
1
1.47409
1.47185
1.47378
1
1
1.47169
0.999999
0.749806
1
1
1
1.47285
1
1.47089
1.30762
1.47321
1
1.4718
0.999388
1
1
1
1
1
1
0.745551
1
1
1.47275
1
1.47556
1.46738
1
0.676432
0.651935
1
1.47402
1.08103
0.673918
0.649414
1
1.47304
1
1.47759
0.61735
1.00157
1
1
0.999506
1
1
1
0.999913
1.18688
1.47167
1
1
1.46859
1.26949
1
1.42272
1.47256
1.46684
1.18881
1.45974
1
1.47141
1
1.46674
1
1.47649
1.46838
0.996768
1.47176
1.4716
1
1
1
1
1
0.931583
1.47085
1.00004
1.00003
0.659908
0.999979
0.683191
0.657521
1
1.47392
1.46972
1.46947
1
1.47198
1
0.658452
1
1
1.47284
0.815977
1.47231
1
1.47612
1
0.960989
1.47062
1
1
1
1.47785
1
1.46785
0.643639
1
1
1.27161
1
1
1.25508
1
1
1.47179
1
1
1
1
1
1.47008
1.47154
1
1.47175
1.4705
0.652269
1.20906
1.47448
1
1
1.42329
0.999
1
1
1.47181
1.47444
1.30782
1
1.47222
0.668804
1.42062
0.999487
1
1.47368
1.00003
1.47279
1.37611
1.35378
1
1
1.47202
0.688324
0.676686
1
1.4768
1
1.47869
1
1.27327
1
1
1.46974
1.29929
0.675438
1
0.998202
1
1
1.02698
1.18596
1.47194
1
1.47498
1
1
1
1
1
1
1.06713
0.663791
1
1
1.03274
1
1
1
1
1
1.48127
1
1
1.47208
1.47108
1.33833
1
1
1
0.824617
1.47861
1.32283
1
1
1
1
1.47216
1
1
1
1.47669
1
1
1.33608
1.49006
1.0284
0.73522
1.47153
1.33068
1.47021
1
1.23569
1
1
1
0.630494
1.00274
0.616292
1
0.628853
0.646924
1
0.652346
1
1
1
1.19945
1
1.46976
1.47732
1.00138
1.22129
1.38956
0.674805
0.754355
0.894466
1
1.47131
1.4757
1.47133
1.47104
1.40257
0.878863
1
1.4046
1
1.45753
1
1
0.996482
1.01104
1
1
1
1.47138
1
0.703744
1
1.47277
0.690059
1
1
1.47105
1
1.47177
0.999451
1
1
1.47349
1.42402
1
1.48392
1
1
1.01504
1
1.1951
1
1
0.651185
1
1
1.47401
0.999997
1.46962
1
1.00003
0.695366
1
1
0.706794
1.00089
1
1.47466
0.667955
1.48655
0.643252
1.47242
1
1
1
1
0.999999
1
1
1
1
1
1
1.45165
1
1.47405
1.47422
0.667331
1
1
1
1
1
1
1.4587
1
1
0.655432
1
1
1.47516
1
1
1.17858
1.39284
0.659626
0.628564
0.704393
0.74512
1
0.996686
0.679648
1.00026
1.41706
0.996846
1
1
1.47498
1
1
1
0.788709
1.00001
1.16656
1
1
1.18727
1.47117
1
0.677912
1
1
1
0.996794
1.00001
1.4712
1.47102
1
0.698371
1
1.25346
0.683352
1
0.900939
1
0.996323
0.63289
1
1
1
0.996152
0.626253
1
0.63033
0.998415
1.23934
1.40536
0.635441
0.656864
1
0.991069
1
0.998663
1
1.47423
1.47176
1
1.01525
1.47217
1.47238
1
1
1.47122
1
1
1.00004
1
1.48689
1
1
1.01827
1
0.998581
0.684141
1
1
1
1
1
1.47395
1.03298
1.00005
1
1
1
1
1
1.00003
1
0.658717
1.1001
0.998634
1.46187
1.46572
1
1.01562
1.47045
1.41181
1
1
0.633655
1.47221
1
1.47388
1
1.47036
1.33112
0.658235
1
0.680174
1.44884
0.999684
1
0.661812
0.643537
1
1
1.39287
1
0.999998
0.649901
1
1
1
1.14663
1
0.667575
1.46394
1
1
1
1
1.47185
1
1
1.47238
1.42032
1
1
1
1.47749
0.641766
1
1.47168
1.47165
1
1.37468
0.999999
1.00003
1
1
1.44716
1.01655
1
0.693522
1.24793
1
1
0.997029
1
1
1.46537
1
1
1.00003
1
1.4707
1
1
1
1
1
1
1
1.21033
1
1.46998
1
1
1.4735
1
1
1
1.47166
1.47031
1.04655
1
0.997592
1
1
1
1
1.47303
1
1
1.4764
0.654206
1
1
1
1
1
1
1.38033
1
1
1.47779
1.47282
1
1
1
1.4715
1.47352
1
0.999709
1.47259
1
1
1
1.00002
0.708257
1.02903
0.996375
0.995939
1
1
0.649103
1.47202
1
0.622102
1
1.47004
1.45138
0.658246
0.999421
1.4719
1.47135
1.47101
1
1
0.931199
1.41989
1.38423
0.627453
1
1
1
1.473
1.47073
0.646491
0.997298
1
1.47119
0.708067
1
1.45467
0.660938
0.978331
1.00656
1
1.46817
1
1
1
1
1
1
1.00011
1.43516
1
1
1.47607
1
1
1
1.47122
1
0.654968
1
1
1
1.16099
1
1
1
1
1
0.78219
1
0.70942
1
1.47185
1.00007
0.873331
0.879998
1.00002
1.00421
1.23591
1
1
0.655912
1.47162
1.47191
1.47133
1
0.617663
0.638369
1
1.47067
1
1
1
1
1
1.00003
1
0.661675
1.30184
1
1
0.636439
1.00858
1.00001
1
1
1
0.633105
1
0.713123
1
1
1.478
1
1
0.670521
1
1.46901
1
0.670102
1
0.661606
1
1.00802
1.46954
1.48121
1
1
1.4736
1
1
1.10316
0.996819
1
0.998132
1
1.48709
1
0.628034
1.00002
1.4697
0.998699
1
1
0.824896
1
0.99899
0.625112
1.47287
1.17046
1
1.00001
0.888683
1
1
1
0.822704
1
1
1
1.47118
1
0.657794
0.999999
1
1
1
0.651533
1.47565
1.42381
0.632154
1
1.46985
1
1
1.47137
1.47186
1.39551
0.655714
0.997741
0.99928
1
1.47194
1
1
1
1
1.46748
1.00004
1
1
1.46593
1
1
1.47008
0.689108
1
1
1
0.657598
1
0.999999
0.999999
0.998657
1
1
1
1
1.35656
1
1.47065
1.47183
1.4817
1.46785
1.47065
1.47116
1
1.47051
1
1.47622
1.47161
1
0.998882
0.709705
1.40137
0.999896
1
1
1
1
0.990662
1
1.07269
1
1
1
0.828054
1.47018
1.46528
1.47558
1.39363
0.999871
1
1.0224
1.47265
0.997915
1.05216
0.997074
0.62315
1
1.00002
1
1
1
1
1
1.47219
0.666184
1.47164
1.47107
0.995331
0.680721
1
1
1
1.47133
0.669457
1.41297
0.652937
1.4764
1.47599
0.662403
1.46772
1.02418
1
1.4814
0.79933
1
0.998685
0.697839
1
0.6488
1
1.47103
1.4703
0.759532
1
1.47292
0.621615
1
0.655657
1
1.47113
1
1
1.44917
1
0.847926
1
0.999682
0.647229
1.45345
0.999495
1
0.679084
1
1
1
1
1.25045
1
1.47095
1
1
1.47838
1
1
1.47229
1
0.685825
1
0.659961
1.00001
1
1
1
1
1.45024
1.2697
1.47165
1
1.47131
1.43748
0.633493
0.679112
1
1
1.46898
1
0.6837
1
0.991032
1
1
1.4724
1
1.4753
0.700216
1.47646
1
0.691933
1
1
1.47948
1.46982
1
1.00004
1
1.47136
1
1
0.67122
0.999387
0.689214
1
1
1
1.47363
1.48042
1.47284
1
1
0.629119
1
1.47541
1
1
1
1.45627
1.47183
1.46773
0.648331
1.48356
1.47164
0.690685
1.47129
1.00004
0.663297
1.03635
1
1
1.47314
0.641222
1.29653
0.653864
1.47151
0.997304
0.62719
1.46984
1
1
1
1
1.47096
1.47332
0.658433
1
1.00002
0.660291
1.00003
1
0.641605
0.67736
1.32432
1.47163
0.998509
1.46816
1
1.47979
0.808572
0.670994
1.47111
1.48672
1
1.47099
1
1
1.47457
1
1.3774
1.47217
1
1
1
1
1.4722
1.46486
1.47527
1
1
1.47521
1.46906
1.4701
1
1.47272
1
1
1
1
1
0.668804
0.85236
0.68449
1
1
1.47146
1
1
1.46943
0.659464
1
1.47389
1.4643
1.45513
0.663391
1
0.636072
1
1.00003
1.47211
1.21208
1.47127
1.43031
1
0.639288
1
1.4684
1.33414
0.641529
1
1
1
0.805134
1
1
1.4808
1
0.640259
1.47158
1
1
1
1
1
1.3796
1.10002
1
1.47144
1
1.47143
1
0.997251
1
1.47095
1.47719
1.47171
1.48585
0.999591
1.47096
1
1.4743
1.46276
1.39556
1
1
0.681912
1.46777
1
1
1.48108
1.47072
1.47572
1
1.47018
1
1
1.00003
1.47668
1.47396
1.13407
1.09834
1.47199
1.47194
0.724463
1
1
1
1
1.00001
1.16065
1
1
1.4043
0.693879
0.999975
1
1.47174
0.999872
0.999812
1.07061
1.43905
1.4668
0.92067
1
0.693091
1
0.994702
1.47045
1.47619
1.46515
0.99899
1
1
0.649278
1
1
1.47227
1.05001
1
1
1
1
1
1
1
0.999942
1.47164
1.00002
1
1
1
1
1.29117
1
1.20642
1
1
1.47159
1.46276
0.658423
0.998782
1
1
1
0.656103
1.4712
1.47167
1
1
1
1
1
1
1
1
1.47038
1.46726
0.686083
1.05138
0.66173
1
0.64414
1
1.47293
1.11253
1
1
0.701712
1
1.46327
0.812469
0.99657
0.651549
1
1
1.46988
1.00004
0.997249
0.643552
1.47053
1.46813
1
1
1
1
1.4359
1
1
1.4709
0.999029
1.47389
1.00009
1
1
0.701983
1
1
1.47177
0.65528
0.786595
0.66712
1.47133
0.999273
1
1.47191
0.639713
0.667688
1.02363
1
1
1.47315
1.00004
1.21051
1
1
1.47226
0.662263
1
1
1.00014
1.4742
1.00018
1.45917
1
1.00003
1
1
0.709949
1
0.791052
1.00002
1
1.47496
0.707355
1
0.787936
0.818305
1
1
1.47223
1
1
1
1.47193
1.47189
1.00005
1.45968
1.47305
0.765499
1.47152
1.4647
1
1
1.46466
0.999999
1
1
1
1
1.47781
1.47198
1
1
1
1.47138
1.00022
1
0.664306
0.711044
1
1.00003
1.17297
1
1
0.890414
0.606709
1
1
1
1.46375
1.4313
1.47181
1
1
1
1
0.709275
1
1.45582
1
1.45768
0.682285
1.47532
1
1
1
0.624666
1
1.47315
1.00003
1
0.640684
1.1704
1
0.999673
1.48454
0.642466
0.673926
1
1.47058
0.623852
0.664863
1
0.705686
0.999993
1
1
1
0.63096
1
1
1
1
1.47021
1
1.35701
0.672716
1
1
1
0.670733
1.47538
1
1
0.996636
1.45502
1
1.47202
1.47164
1
1
0.749005
0.65281
1
1
0.672112
1.13474
1.21591
1
1
1.47414
0.997334
1
0.997704
1.4722
1
1
1
1
1
1
1.47155
1
1.16272
1.14687
0.735712
1.41057
1
1.47086
1.47231
1
1
1
0.918651
0.680311
1
1.22483
0.999644
1.42714
1
1
1
0.999999
1
1.00653
1.20546
1.47273
1.47293
1
1.4715
1
0.602219
1
0.997372
0.99976
1
0.703989
1
0.659148
1.00002
1.47807
1.47183
0.699834
1.48887
0.657601
0.996536
1.36738
0.643175
1.34161
1
1
0.998439
1
1
1
1.00006
1
0.672451
1
1
1
1
0.999575
1.47952
0.824647
1
1
1
1.03819
1
1
1
1.26803
0.760009
1
1
1
1.05474
1.46756
1
0.67358
1
1.47264
0.905759
0.618191
1
0.651285
1
1
1.44564
0.998233
1.43745
1
1.00822
1
1
1.47236
1
1
1
1
1.09181
1
1.4712
1.4732
1.4679
0.686805
1.47145
0.997109
1.3906
1
1
0.694053
1
1
0.6795
1.47503
1
1
0.999917
1
1
1
0.639827
0.661364
1
1.476
1
1.20842
1.47386
0.656117
1.38659
1
1
0.662712
1
1
1.47151
1.47078
1.17385
1
1
1.00192
1.47263
0.678576
0.67189
1.4701
1.47137
1.3255
1.19217
1
0.896658
1
1
1
1.43026
1.47777
1.47278
1
1
1.46944
0.665251
1.41675
0.636143
1
0.65918
1
0.698021
1.47284
0.648545
1
0.969906
0.668568
1
1
1
0.854736
1.44461
1.47748
1.47236
1.47469
1
1
1.47262
1
1
1.47176
1
0.626577
1
0.692978
1
1.4713
1
1
1.0117
1.36446
1
0.999004
0.621965
1.47226
1.00001
0.684949
1.08925
1
1
1.35365
1.4728
1.47217
1
1.47378
1.11799
1
1.0243
1.47153
1
1
1
1
1.47079
1
0.681328
1.47247
0.660502
0.707039
0.821713
1.47327
1.15533
1.47363
1
1.47605
0.997592
1.00003
1.47523
1.47151
1
1.47289
1
1.47483
1
1.47329
1
1.00004
0.999988
1.46729
0.630349
0.666715
0.997841
0.999999
1
1
0.670557
1
1.30781
1
0.642029
1
1.17337
1.47218
1.47971
1
1
1.00003
0.999462
1
1.47087
1.47203
1
1.19498
1.47401
0.847998
1.47232
0.999886
0.657587
1.09382
0.630743
1
1
1.07992
1.4734
1
1
1.02996
0.998504
1
0.69117
1
0.786506
1
1.47282
1
1
0.660506
1.10571
1.08059
0.998543
1.47037
1.47145
0.773661
0.998088
0.706065
0.630842
0.696707
1
1
1
0.999035
0.744378
0.651128
1
1.47157
0.999756
1.47167
1.47168
1.47123
1.47031
1
0.654782
1.47171
0.631705
1
1.47086
1.46964
0.996744
0.797441
1.47045
1.34546
1
0.679848
1
1
1.47242
1
1.02653
1.47085
1
0.702051
0.674485
1
1
0.610972
0.620254
1.47669
1.00004
1
0.683301
0.625465
1.47409
1.45834
1.43699
1.47082
1.11466
0.978597
1.18458
1.47261
1.34397
1
1.24697
1
0.655381
0.866789
1
0.677473
1.47032
1.02234
1.47344
1
1.47248
1.47205
1
1.47279
1.47113
0.666657
1.46005
1
1.48583
1
0.751785
0.648266
1.47245
1
1
1
0.648646
1.47248
1.47261
1
0.645558
1
1
0.691371
1.00004
0.643321
1.47275
1
0.839624
0.618735
1
1
1.27727
1
1
1
1.07567
0.650793
1
1.00001
1
1.47505
0.65965
1
1.46954
0.69715
0.638238
1
1
1.47143
1
1.47331
1.00001
1.4722
0.660568
1
1
0.644743
0.817751
0.690877
1
1
1
1
1.47408
0.695736
1
0.653499
1
1.47453
1
1
0.922564
1
1
0.834882
0.999693
1.00005
1
0.662884
0.65752
1
1
1
1
0.826
1.46925
1.47107
1
0.641639
0.622558
0.932021
0.648794
1
0.808736
1
0.684578
0.983929
1
1
0.672074
1
1.47301
1.45032
0.648188
1
1
1
1.48105
1
1.04139
0.855138
1.14807
0.649215
1.18714
0.680393
1
1
0.749101
0.917798
1
1.0165
1
1
0.64166
1
0.963224
1.05096
0.654542
1
1.38818
0.785517
0.855162
1
1
1
0.669981
1
0.64892
0.68018
1
0.823493
0.639571
1.04978
0.765924
0.684672
1.47095
1
1.47145
1.2503
0.725443
1.47161
0.682408
0.999037
1.47079
0.999999
1
1.47109
1
0.732005
1
1.06077
1
1
1.46925
1
0.746049
0.838715
1.47027
0.953846
1
0.758271
1.47235
1.47143
0.889788
1
1.47572
1.11672
0.829907
1
1.01719
1
0.64914
1.20603
0.791799
0.731601
1
1
0.648048
1.47111
0.986202
0.657889
0.638949
0.888816
1
1.01379
1.47157
1.47328
1
1
0.999999
0.647536
1.21594
1.00001
1.47058
1.43775
0.653476
1.00001
1.0965
0.850252
1.2762
1.4239
1
1.04224
1
1.00005
0.658218
0.855647
1
1
0.846954
0.663427
1.03502
1
1.00003
0.679972
1.20911
1
1.46834
1
1.05035
1.25092
1
1.46584
1
1
1.47394
1
0.668269
1.47233
0.681962
1.12727
1
0.645135
0.999917
1
1.00003
1
0.786504
1.0266
0.673468
1.35099
1.47087
0.638248
1
1
1
1
1
0.966975
0.64456
1.05116
0.66804
0.623034
1.07958
1
0.999805
1.11618
1
1
0.682455
0.975733
1
1
1.1269
1
1.47182
1
1.4717
1.096
1.02195
0.646971
1
1
0.688627
1
1
1
1
1.47359
1.04341
0.998058
1
0.651509
1.0536
0.999999
1
1.3066
1
0.652166
1.47114
1
1.00001
1
1.47092
0.675499
0.867752
0.634283
1.35223
1.47256
1
1
1.47686
1
0.617093
1
1
1
1
1
0.751518
1
1.47228
1
1
1.16175
1.47181
0.648228
0.881321
1
1.47181
1
1
1
1
1
1.4713
1.47172
0.627473
1.47271
0.6491
1
1
1.47179
1
1.47039
0.984109
1.029
1.07949
1.4714
1.06893
1.32227
0.640126
1
0.642346
0.987681
1
1.4701
1
1
0.658972
1.47005
1
1.47112
1
1
1
1
1
1.00001
0.662574
1.47192
0.825737
1.46977
1
0.703419
0.665681
0.723297
1.46809
1.46929
0.965561
1
0.792545
1
1.17594
1
1.4669
0.668845
0.667567
0.858322
1
1.47162
1
1.08052
0.710402
1
1.47379
1.41306
0.998861
1
1.46972
0.646637
1.46655
1.47323
1.46806
0.667308
1.09734
1
1
0.642536
1
0.783585
0.80031
1
1.00002
1.46973
1
1.47635
1.0882
1
1.03522
1.47971
1
0.67916
1
0.762146
1
1
1.38507
1
0.800193
1
0.657926
1.03511
0.955309
0.623059
1.47166
1.37492
1.46988
0.670948
0.722769
0.996126
0.999999
1
0.677752
1.44456
0.66776
0.999968
1
1.47124
1.47128
0.909818
1
0.662535
0.739267
1.31308
0.966078
0.655039
0.999999
0.661774
1.12338
0.657917
1
1.00006
0.844341
1.47104
1.47248
0.864781
0.999596
1
1
0.730677
1
0.656777
1
0.614534
0.647768
1
1
1.00004
0.672342
1.47143
1
1
1.00007
1.00004
0.616326
1.47162
1.47263
0.999999
0.670968
1.46779
1
1.10508
1
1
1.47636
0.649521
1
1
0.668542
0.739023
0.664235
0.688532
1
0.73296
0.997159
1.09118
0.669802
1
1
1.129
1
1.412
1
1
1.31098
0.716602
1
0.64136
1.11812
1.47081
1
1
0.653822
0.674999
0.637783
0.760883
0.678233
1.35183
0.999394
1
1
1
1
1.47203
0.693553
1
0.927681
0.99966
0.998512
0.999932
0.778936
1.12069
1
1.47175
1.47181
1
1
1.44763
1.00004
0.999999
1.47639
0.64732
1.48248
0.999999
0.657361
1.47041
1.00005
1
0.812381
1
0.635841
1
1.47111
1
1
1.47889
1
1
1.46786
1
1
1
1.47022
1
0.769319
0.724838
1
0.639778
1.46946
1
1
0.962038
1
1.46923
1.26724
1.37297
1
1
0.663113
1
0.628966
1.46982
1.47136
1.47352
1
1.47144
0.647717
1
0.619419
1.37375
1.42593
1.4761
1.47099
0.772775
0.650838
1
1.30983
1.47133
1.47115
1.47151
0.723419
1.17152
1
1.356
0.750273
1
1.00002
1
1.00002
0.88459
1
1.47897
1
1
1
1
1
1
1.00006
1.46978
1
1.46236
1.34355
0.681079
1.4735
1.03207
1.23168
1
1.47166
1
0.662867
1
1
1
1
1.40118
1
0.64536
1.47291
0.637673
1.47211
1.37201
1.24131
1
1.08596
1.21545
0.995866
0.629779
0.763808
1.00002
0.999999
0.905782
1
0.662247
1.47148
0.686105
0.934344
0.84479
1
1
1
1.01325
1
1
0.642287
0.997693
1.47146
1
1.47082
1
0.657784
1
1
1.47176
1.47081
0.652674
1
1.4722
1
0.787536
0.682687
1.47043
1.42259
1
1.07853
1.46949
0.998705
1
1.19597
1.41267
1.47091
0.995489
1
0.999998
1.40048
1
1
1
1.47174
0.998472
1
1
1.47033
1
1
0.658665
1
1
1
1.47081
1
1
0.83666
1.13606
1.43319
0.777643
1
1.47204
1
1.1606
1
1.47434
0.99727
1.47361
1
0.664268
1
1.3171
1
1
1.43948
1.00002
1.47217
1
1.47349
0.676194
0.661789
1.473
1
1.39456
1
1.46974
1
1
1.00005
1.46778
1.47797
1.12281
1.47206
0.995368
0.65066
1.47059
0.86889
1
1.45796
1
1.46364
1
1.47392
1.47072
0.996261
0.646725
1
1.47331
1
1.0389
1
1
0.997899
0.72245
1.42043
1
1.43864
1
0.865936
0.638809
1.47091
1.46158
0.680015
1
1.47304
1.47431
1.47336
0.684222
1.46328
0.662355
1.47007
1.4811
1
1
1.47226
1
1
1
1
0.658745
1
1
1.46995
1.47282
1
1.47205
1
1.4733
1.46862
1
1.38973
1
0.645588
1.47187
1.35667
1.12132
0.640927
1.47175
1
1
0.648514
1
1
1.46762
1
1
0.757058
1
1.47041
1.00008
1.4742
0.639973
1.47042
1
1.46988
1.45307
0.880794
1
1.4713
0.770688
1.47487
1.32382
1.46578
1.46988
0.997262
1.47319
1.47164
1.47267
1.47441
1.0009
1
0.638722
1
1.4709
0.826527
1.43557
1
1.46246
1
1
1
1
1
1.46931
0.645519
0.648169
1.47406
1.47138
1
1
1
1
1
1.46832
1.41941
1.47408
1.0126
1
1
1
1.00004
1.47046
1.47228
1
1.47166
1.47032
0.64622
1.32452
1
1.47365
1.48637
1.4685
0.997823
1.47239
1.4726
1
1.44676
1
1
1
1
1
1
1.4716
1.47103
1.43851
1.47033
0.647849
0.685156
1.47169
1.47445
1
0.66138
0.947424
1
1.22044
0.644293
1
0.999467
0.998251
0.669003
1
1.47092
1
1
1
1.47291
0.937877
1
1.4694
1.46485
1
1.47002
1
1
1.47138
1
0.700252
1
1.4753
1
1
0.647254
1
1.47154
1
0.646787
0.646566
1
1.45554
1
0.63121
0.868645
1
1.47368
1
1
1
1.47625
1
0.67616
1.06433
1.47035
1.47334
1.47165
1.03964
1.47356
1.47207
1
1.00002
1
1
1.00001
1.47212
1
0.999283
1.47347
1
0.64624
1
1.47196
1.21462
1.05501
1.20866
1.05933
1.46826
0.706909
1.47197
1
0.663044
0.997159
1.47196
0.949583
1.47138
1.46862
1.46639
1
1.47076
1.47218
1.47182
1
1.00004
1
1
1.47052
1.33181
1
1
0.658577
0.996743
1
1.47245
1
1.4714
1.47124
1.46988
0.916258
1.47262
1.46953
1.00147
1.22712
1.47156
1.46868
1
1.4346
0.822948
1.45965
0.988567
1.46966
1
1.47116
1.47255
1
0.646047
0.934994
0.702593
1
1.07907
0.997129
1.46882
1
1
0.996701
1
1.22791
1.44851
1
1
1.47339
1
1
1.32962
1.46956
1.45207
1.4737
1.47137
1
1.4708
0.711672
1.47219
1
0.969831
0.662555
1
1
0.738293
1
1.13742
1
1.47639
1
1.4621
1.29393
0.670037
1
1
1
1
1
1.47142
1.01102
1
1.47759
1
1.47197
1.47151