/*--------------------------------*- C++ -*----------------------------------*\
  =========                 |
  \\      /  F ield         | OpenFOAM: The Open Source CFD Toolbox
   \\    /   O peration     | Website:  https://openfoam.org
    \\  /    A nd           | Version:  12
     \\/     M anipulation  |
\*---------------------------------------------------------------------------*/
FoamFile
{
    format      ascii;
    class       volScalarField;
    location    "3.3";
    object      p;
}
// * * * * * * * * * * * * * * * * * * * * * * * * * * * * * * * * * * * * * //

dimensions      [1 -1 -2 0 0 0 0];

internalField   nonuniform List<scalar> 
46253
(
0.864541
1
1
1
1
1
0.803777
1.14868
1
1
0.867408
0.795558
1
1
1
1
1
1
1
1
1
1
1
0.839962
0.818016
1
1
1
1
1.14764
1.12109
1
1
1
1
1
1
1
1.13767
1
0.796958
0.794737
1
1
0.749439
1
1
1
0.999992
0.999954
0.99975
0.999021
1
1.13913
1.00001
0.861371
1.15234
1.23433
1.2575
0.800815
1
0.767733
1
1
1
1
1
1
0.864
0.752777
0.801724
1.39788
1.47748
1.04285
1
0.834727
1.3709
1.36837
1
1
1
1.43048
1
1.42372
0.801463
1
1.30068
1.29824
1.14041
1
1
0.794273
1
1.01291
1
1.04353
1
1
1.25485
1
1
1
1
1.11638
0.999995
0.803492
0.797157
1.24638
1.24432
0.817566
1.13813
1.48184
1.46964
1
1
1.14177
0.757574
0.799499
1.47062
0.876159
1
1
1.41108
1.40441
1
1.47489
1
0.842305
0.992758
1.35029
1.21327
1.21123
1
0.810173
1.3473
1
1.32897
1.32615
0.872929
1
1.38126
1.19421
1.19225
1.10483
1.38279
1.0007
1.30963
1.30713
1.1378
1
0.815582
1
1.33954
1.33653
1.06513
0.753536
0.83971
1
1.28254
1
1.28058
0.798002
0.858705
1
0.814896
1.3185
0.809579
1.3175
1.71103
1
1.26761
1.26566
1
0.804733
1
0.740222
1.09082
1
1.04246
0.759603
0.999999
1.06302
1.25278
1.25101
1
1.2914
1.28811
0.746189
1
1
1
1
0.777286
1
1
1
1.13807
1
1.09544
1.09336
1
1
1.27521
1.2736
1
0.755138
1.05867
1.23199
1.23017
1
1
1.47041
0.801105
1
1.10029
1
1.09965
0.798523
1.21922
1
1
1.21761
0.738282
1.26002
1.25802
0.79748
1
1
1.06957
1.06779
1.19431
1
1
1
1
1
1
1
1.19082
1.21631
1
1
1
1
1
1
1
1.0567
1
1.19975
1.19822
1.21227
1.04389
1
1.0409
1.23932
1.23701
0.886863
0.800361
1
0.815141
0.788835
0.815905
1.10802
1.01773
1
1
1
1.22557
1.18065
1.22409
1
1
1
1.17921
1
1.00028
1
1.13956
0.909918
1.0171
1.01593
1
1
1
0.781016
0.792091
0.876413
1.09018
1
1.24633
1.24413
0.796839
1
1.2368
1.15835
1
1.15578
0.798404
1.16852
1.45261
1.16712
0.848454
1.44858
1
1.2066
1.20459
1
1.10755
1
1
1.04578
1
1.15658
1
1.15519
0.864936
1.23441
1
1.1394
0.842416
1
0.810133
0.819068
1.14064
1.08553
1
1
1.14456
1.14325
0.973285
0.970981
1
1
1
0.759908
0.881791
1.18749
1.18528
1
1
1
1
1.48865
1
1.13317
1.13181
1
0.872175
1
1.13791
1
0.755132
1
0.802985
1
1.17448
1
1.17305
1
0.805327
1
1
1
1
1
1
1
1.12229
1
1
1
1
1.12079
1
1.2271
0.870494
1
1
1
0.799211
0.816185
0.843755
1.16244
1.14119
1.16086
1
1
1.11127
1.50672
1
1.09249
1.10995
0.783
1
1.14261
1.04217
1.04259
1
1.12031
1
0.924483
0.921294
1.22358
1
0.9998
1
1
1
1
1
1
1.4095
1
1.11937
1
0.780671
1
1
0.889159
1
1
1.10071
1
1.15038
1
1
1.09926
1.14866
1
1.04342
1
1
1
1
1.0724
1.13917
1
1
1.13929
0.845345
1
0.789745
1
1.07826
1.06973
1
1
0.874002
1
0.912176
1.126
1
0.779939
1
1.32092
1.13587
0.999802
1.13849
1.08334
1
1.08248
1.08422
1.1369
1
1.082
1
1
1
1
1
1.03202
1
1.13567
0.84815
1.0841
0.895326
1.05164
1.0828
1.01296
0.897249
0.895546
1
1
1
1
0.994901
1
0.914273
0.797244
0.776827
0.915321
1.08327
0.794833
1.08324
1
1
1.12734
1.11113
0.814924
1.12585
1.07397
1.07276
0.880985
0.799877
1
0.880312
1.11282
1
1
1
0.793501
1
1.14101
0.7742
1
1
1.09107
1
1
0.774248
0.721625
1.11968
1
1
1.12093
1
1.12016
1.12816
1.12155
1
1.13853
1.14285
1
1.08168
1.10504
1
1
1.116
1
0.817833
0.892579
1
1
1.11477
1
1
1
1
0.770684
1
1
1.05806
0.897457
1.05641
0.800933
1
1
1
1
1
1
1
1.08121
0.779683
1
1
1
1
1
1
0.816476
1.09689
1
1.08231
1
1
0.846618
1
1
1
1.10552
1
1
1.10419
1.07837
1.14516
1
1.14853
1.14973
1.15279
1.15138
1
1.04868
1.04752
1.09123
1.15995
1
1
1.04253
1
1.44663
1.04572
1
1.45177
0.995485
1
1.10606
1.11539
1
1
1.15075
1.08954
1
1
1.03043
0.999998
1
0.993916
0.998412
1.28835
1.30019
1.25964
1.26218
0.741241
1.07766
1.24788
0.769086
1.24889
1.23949
1
0.817903
0.844527
1.24153
1
1.23046
1
1.2315
1
1.08668
1.21865
1
1.2207
1.3476
1
1.20721
1
1.20937
1
0.772362
1
0.902636
0.843544
1
1
1.19511
1.19745
1
1.1128
1.18459
1.18619
1.02847
1
1
1.16981
1.03262
1.17101
1
1.08969
1.15858
0.853572
1.15997
1.032
1.08799
1
1
1
1.14783
1.14974
1.13951
1
1
1.13783
0.919524
1.13941
0.843843
1
1.1226
1.12439
1
1
1
0.775965
1
1.10594
1.02939
1.12551
1
1.10828
1
1.11012
1
1
1.11049
1.11127
1.0987
1.09951
1.07527
1.1229
1.08806
1.1281
1.09046
1
1.04363
1.07282
1.07493
1
0.879523
1.06378
1.06441
1.64542
1
1
1
1.05265
1.07298
1.0545
0.719788
1.16181
1.08112
0.817053
1.04636
1.04732
1.02673
1.03606
1.03606
0.87453
0.866205
1
1.13713
1.46819
1.02218
1
0.827279
1.02007
0.856957
1.16138
0.822293
1
1
1
1.07866
1
1
1
1
1
1.07767
1
1
1
0.892299
0.881531
1
1.03807
0.74073
0.860422
1
1
1
1
1
0.774444
1
1.07677
1
1.14036
0.828714
1.14351
0.865121
1
0.779454
0.796493
1.15382
1
1
1
1
1
1.14638
1.14453
0.8173
0.826392
0.827137
1
0.906064
1
1
1.14766
1.02226
1.00004
1.14047
1.00459
1
1.04182
1.04951
1
1.1504
0.844873
1.07603
1
1.08195
1.00763
1
1
1.08383
1.09056
1
1.00603
0.73073
1
1
1.17954
1.18116
1.07673
1
0.731025
0.734833
0.797416
0.992685
1
1.11605
1.14171
0.847411
1.3382
1
1
1
1.13292
1.13411
1
0.997135
1
1.06391
1.11846
1
0.997139
1.11935
1.0621
1.08217
1.07668
1
1.07442
1.1214
0.827028
1.07343
0.846501
1.08291
1
1
1.08402
1
1
1.08542
1.07661
1
0.997961
0.882757
1.11178
0.874742
0.879633
0.996148
0.874796
0.869222
0.843231
0.840708
1
1
1.15555
1
1
1.08786
0.895327
0.885423
1
1
1.12476
1
1.11849
1.12375
1.08259
1.31189
1.17158
0.999413
1
1.00001
1
1.08077
1.12299
1.1581
0.735239
1
1.05257
1
1.00706
1.00626
1.05226
1
0.99824
1.03651
0.997966
1
1
1
1
0.981553
1.12039
1
1.02414
1
0.872564
1
0.871194
0.857808
0.805707
1
0.987312
0.98639
0.796873
1.39908
1
0.884007
1.13891
1.13885
0.885318
1
1
1.07783
0.716677
1
1
1.1173
0.763417
1.15093
1.0896
1
1
1
1
1
1
1.51271
1
0.861293
0.865756
0.862654
1.14073
0.735531
0.724387
0.741462
0.886717
1.17472
0.858011
0.727103
1.21313
1.22449
1.23471
1.20104
1.21503
1
1.03542
1.22666
1.24499
1.20348
1.07877
1.2363
1.16594
1.18968
1.24581
1
1.25334
1.19161
1.25653
1
1.17454
1.25263
1.26193
1.26234
1.17592
1.15216
1.27394
1.16421
1.09525
1
1.00014
1.16607
1
1.1538
1.00002
1
1
0.978468
1.155
1
1
1
1.14287
1.15423
1
1
1
1.14413
0.977273
0.750192
1.12842
1
0.967199
1.12971
1.11377
1.1151
0.86287
1.10287
1.10443
1.09464
1
0.842055
1.09566
1
1.07881
0.816691
1
1
1.07984
0.910884
0.787305
1.06772
1.0684
1.05901
1.03712
1.06073
0.727113
1.04996
1
1.02092
1.0358
1.04971
1.03105
1.0087
1.07932
1.03932
1.01437
1.01704
0.80797
1.04173
1.03327
1.03371
0.860634
0.827008
0.728899
1
0.831574
1
0.818386
0.832207
0.743498
1
1.46843
1.1655
1
0.97945
0.971641
1.09054
1.09781
1
1.14858
1.15033
1.16092
1.15305
1.15099
1.14559
1.1521
1.14755
1.14429
1.0319
0.871708
1.12075
1.08293
1
0.973476
0.889198
0.854652
1.01666
1
1.20612
1.14514
0.795297
1
0.964639
0.796819
0.985065
0.963697
1
1.25022
1
0.935703
1.0155
1.144
1.14211
1.02955
1.03609
0.872775
1.02859
0.990435
1.02695
1.02058
0.79824
0.795022
0.876051
0.849138
0.972121
1.15714
1.02306
1
1.156
1.23936
0.938053
1.00432
1
1
1
1.10504
1.00479
1
1
0.737322
1.00932
0.844385
1
0.80369
1
1.10205
0.942383
1
1
0.722048
0.850031
1.27243
0.856847
1.12414
1.12437
1.00002
1.16287
1.11436
1
0.963211
1
1.02263
0.954324
0.978495
0.893097
1
1
0.972039
0.972016
1.00931
1.08775
1.11279
1.11383
1
0.953248
1.00995
1.07889
1.07667
0.842971
1.02716
1
0.948456
0.914213
1.00138
0.820054
1.00238
1.14628
1
1
1
0.893489
0.984156
1
1.07362
0.994222
1.16322
1.16147
0.883067
1.07378
0.714664
0.809825
1.19954
1
1
0.956324
1.21464
1
1
1
1.09466
1
1.05086
0.765833
1.03782
0.972843
1
1
0.97193
1
1.29785
1.08195
1.28848
1.30479
1
0.78982
1.29077
1.08767
0.971951
1.19591
1
0.803021
1.26886
1.23213
0.958403
1
1.18648
1.27205
1.24682
1.00002
1.11328
0.728411
1.00001
1
0.886046
1.24884
1
1.21164
1.13725
1
1
0.801221
1.22746
0.946922
1.17563
1.25234
1.01279
0.838329
1.06676
1.22665
1.2307
1.1678
0.945661
1
1.03621
1.01124
1.03243
1.14292
1
1.20978
1
1
1
1.20871
1
1
0.917868
1.03846
1
0.923882
1.21283
1.12609
1.08856
1
1.0325
1
1.11703
1
1
1
1
1
1.03286
1
1
1
1
1
1
0.763585
0.726168
1
1.00693
1
1
1
1.13799
0.907566
0.837224
1
0.839941
1.14072
1
1
1
1.03496
1
1.1524
1
1.24828
0.869657
0.871763
1
0.992119
1
1
0.994077
1
1.26982
1.26312
1.1118
1.24445
1
1
1.22306
1.22843
0.881687
1.2054
1
1.20651
1.13956
1
1.19636
1
0.94379
0.949448
0.883308
1.19317
0.877142
0.933864
1
1.19783
0.959024
0.958886
1.14257
1.14685
0.821938
1.14748
1.14199
1.02256
1.14353
1.14433
0.936167
1.18275
1.18474
1.13827
1.30485
1.14567
1.17734
1.18614
1.14553
0.935174
1.14911
1
0.9674
1.14824
1.179
1.29231
0.87551
1.11621
1.14844
1.16264
1.00233
1.17021
0.88524
1.1714
0.910023
1
1.03853
0.846776
1.00214
1.09728
1.16424
1.15124
1.1447
1
1.17227
1.22347
1
1
0.738115
1
1
1.17572
0.921316
1
1.20124
1.31386
1.15891
1
0.863603
1.01858
1.14581
1.14539
0.801171
1.31694
1.16007
1.04045
1.19682
0.930936
1.20531
1.29101
1.17628
1.29034
1.2678
1
0.930346
1
1.01462
1
0.740745
1.04367
1.27129
1.15182
1.13103
1.15566
1.10775
1.2282
1.14051
1.14318
0.888702
1.20324
1
1.24853
1.25286
1
1.01019
1
1
1
1
1
0.912359
1
0.929561
0.739322
0.862959
1.21763
0.736799
0.861743
1.23174
0.840549
1
0.735937
0.928153
0.944577
1
1.1384
1.03183
1
1
1.26022
0.740183
0.891205
0.887098
1.03586
1
1
0.726711
1.00226
1.08153
1.19259
0.730197
1
1
1
1.30438
1
1.21695
1.21769
1.07657
0.738815
1.1909
1.20336
1
1.13721
1.20647
1.29183
1.0428
1
1.25517
1
1
0.950423
1.19314
1.12709
1.23598
0.742488
1.24617
1.25785
1.18868
1
1
1.1324
1.008
0.999993
0.991771
1
0.84186
0.999998
1
1.15927
0.738225
1
1.17394
0.772848
1.17687
1
1
0.989802
1.20218
0.752958
0.867382
0.7699
0.957153
0.931759
0.949118
0.747265
1.11778
0.975469
0.969938
1
1.16117
0.748071
0.757041
0.959764
1.17777
1.16848
0.913403
1
1
0.969546
0.965681
0.805397
1
1.13109
0.845402
1.14166
1.13752
1.14483
0.95095
1.13454
1.19288
0.785031
1.19441
0.730885
0.933602
1.13317
0.946674
1.14062
0.731992
0.912987
1.13964
1
0.918484
1.12922
0.849349
1.27164
0.880882
1.10227
1.15058
1.27131
0.803482
1.11634
0.962043
1
1.14735
1.11734
1.19771
1.21961
1
0.972446
1
1.14426
0.908358
1.02146
0.816001
0.81192
1
0.798073
0.871106
1.10539
1
0.742827
1.07796
1.0337
1.15878
1.08375
0.741351
0.898586
0.9583
1.03639
1.16018
0.834347
1.07527
1.09042
1
1.0919
1
1.0806
1.25772
1.07765
0.855837
1.22916
1.02173
1
0.806854
1.28824
1.02729
1
0.824141
1.28804
1.17317
1.4933
1.13801
1
1.05045
1.27332
1.06466
1
1.26345
1.06749
1
1.17012
1.26392
1.17107
1.32701
1.2414
1.05252
0.927518
1
1
1.24395
0.846061
1
0.850088
1.0943
1.17412
1.18178
0.855962
1.14099
0.936421
1
0.874686
1.3158
1
1
1.19865
1.31049
0.854306
0.915634
1.0359
0.80226
0.795279
1.02623
0.921354
1.0373
1.02851
0.994411
1.22953
1.03393
1.03134
1.12128
0.915313
1.02577
1.02295
1.1408
1.14874
0.847941
1
1.01196
1.32019
1.01341
1.20118
1.31516
0.868987
1
1.01509
0.988114
1.16121
0.889201
1
1
1.03495
1.03774
0.939286
1.11095
1
1
1.11334
0.90929
0.98324
1
1
0.756433
0.995901
0.998229
1.26599
1.09048
0.879825
0.995621
0.990842
1
0.87872
0.98286
0.919267
0.8675
1.03421
1.14186
1.38684
1.18537
1.08563
1.19557
0.955598
1.19554
1.18723
0.816096
1.14288
1.153
1
0.846154
1
1
0.953007
0.935779
0.962941
0.939985
1.26659
1.02667
1
1
0.957591
1.15637
0.887936
0.925671
0.966968
0.886001
1.13297
1.02795
1.15721
0.89384
0.849201
0.956534
1.32189
0.85969
1
1.00733
1.12816
0.892369
1.32029
0.969829
1.08215
1
1
1.08397
0.990496
1.27254
1
0.999994
0.988202
1
1.1247
0.917996
0.90048
0.888986
0.961287
1.12726
0.926551
1
0.899515
0.894515
1
0.844824
0.771923
0.927474
1.07807
1.09204
1
1
1.03384
0.933454
1.13639
0.907288
0.908711
1.31192
0.893309
1.00034
1
1.09737
1
1
0.813455
1.07753
1.13765
1.09902
1
0.779149
0.821198
0.911674
1.20055
0.907718
1.22285
0.943845
1.18604
1
1
0.883998
0.931446
1.03172
0.909724
1
1
0.754271
0.901262
0.860824
0.913833
1.07075
1.02812
0.969513
1
1.18123
1
1.07205
1
1.20552
1.00016
0.806345
1
1.13903
1
1
1
1
1
1
1.14495
1.20234
1
1.20612
1.1885
1
1.12939
1.29954
1
1.02406
1.03082
1.16659
1
1
0.905423
0.850068
0.919745
1.04452
1.1901
1.18253
1.02112
1.12606
0.954949
1
1
1
1
1.02541
1.04667
1.17351
1.04693
1.02805
0.917635
1.04813
0.903939
0.922003
1.00457
1.32135
0.82034
1.16811
1.08299
1.17497
1.08848
1
0.996007
0.817408
1.13584
1
1
1.13291
0.81333
0.93594
1.00682
0.809716
1.15655
1
0.890643
1
1.04156
0.806885
0.808623
1.14588
0.88397
0.931986
1.07741
1.2469
1.1091
1.15661
1.05876
1
1.14335
1.11403
0.888445
1.27794
1.2599
1.03832
1
1
1.1347
1.29546
1.15943
1.23625
1.3171
1.0246
0.840514
0.948236
1
1.15415
0.954
1
1.30575
0.977133
0.839669
1.28286
1.12595
1.02895
1.0552
1.25764
1.05241
0.968601
1
0.981841
0.978539
1.26041
1.04854
1
0.984351
1.06832
1.12204
1.02453
1.23824
1.12636
0.964198
1
0.848899
1
0.964586
0.817119
1
1
1.31101
0.809928
1.19177
0.819947
1
1
1.19698
1.0328
1.02406
0.815908
1
0.888715
1
0.951381
1.28387
0.799345
1.13654
0.813979
0.995151
1
1.21125
1.17026
1.04021
0.988389
0.949033
1.03959
1.06368
0.991265
1
1.22078
1.01119
1.27946
1
1.21376
1.19922
1
1.16092
0.923336
1.00758
0.786855
1.22314
0.725358
1.02924
1.02856
1.16501
1
1.18051
1.02556
0.788023
1.42538
0.787373
1
1
1
1.00344
0.802821
1.18223
0.894598
1.16853
1.13611
1.00058
1.00013
1.32558
1.16824
1.1363
0.916016
1.00022
1.08877
1.00014
1.1069
0.870219
1.07845
1.1499
1.29407
1.08493
1.12698
1.0281
1.15298
1.13845
1.02377
1.20688
0.869078
0.778897
1.06041
1.21047
1.11016
0.921028
1
1
1.02606
1
1
0.99332
0.878077
1.10394
1.11954
1.17482
1.0274
1.29126
1
1.03645
1.09709
0.920159
0.909581
0.926906
1.12137
0.822886
0.779137
1.11317
0.879264
1.19187
0.850928
0.935961
1.14042
0.92815
1.08237
1.19295
1.12061
1.24588
0.79398
1.09425
1
1
1.0732
1
1.09359
1
1.11657
1.09483
1.08642
1.08991
1.07002
1.18001
0.929088
1
1.20242
0.926693
0.944085
1.12858
1.18101
1.21107
1.0423
1.05533
1
1.10165
1.0701
1.01901
1.05001
1.12756
0.899272
0.851457
1.39436
0.87266
1.14176
1.12512
1.06977
1.11546
0.956673
1.05916
0.99428
1
1.29742
1.1575
0.967931
0.950634
1.04481
1.01408
1.03222
0.899122
0.925727
1.08181
1.05648
0.940764
1
1.13288
1.09652
0.954645
1.11313
0.966996
1.3557
1
1.04063
1.03419
1
1
1
1
1.36665
1.21299
1.01907
1.21926
0.943478
1
1.0432
0.967372
1.12208
1.02831
1.03422
1.07644
1.07586
1.10868
0.935643
1
1
0.986806
1.16418
1
1
0.967457
1.13646
1.02286
1.34097
1.06422
1.12735
1
1.12467
1.14042
1.12492
1.14309
1.15703
1.06485
1
1.01321
0.918388
1
1.34548
0.981756
1.14737
1.04192
1.15164
1.01205
0.917529
0.796547
1.23586
0.797794
1.17231
1.16043
1
1.1308
1.12616
1.1671
1.07241
1
1
1.13261
0.993459
0.918632
0.796263
1.10296
1
1.31331
0.950188
1.18811
0.932463
0.992874
1.18132
1.18413
1.13758
0.800966
1.31675
1.17663
0.931504
0.979451
0.965191
0.931103
1.25028
0.975665
0.81257
0.965866
1
0.998742
1.13149
1.0448
1.01058
0.947514
1.19776
1.32051
0.912108
1.05108
1.03475
1.05121
0.889649
1.16328
0.941604
1.19382
0.946868
0.927684
1.02313
0.918816
1.037
1.13662
1.13256
1.12955
1.19161
0.928011
1.1316
0.923351
0.868553
0.950276
1.13351
0.951138
1.26018
1
1.05183
1
0.927631
1.26399
1
1
0.918673
1.21064
1
0.962381
1.02363
1.3216
1.08071
0.999997
0.799374
1
0.918461
0.957285
1.23897
0.945109
1.04101
1.24204
1.0415
1.02667
1.15204
1
0.797886
1
1.22471
1.02755
1.21885
1.00883
0.914434
1.19693
1.22791
1.19783
1
0.909058
0.790234
1.21109
1.20079
1.21378
1.11767
1.00015
1.21417
1.02189
1.12783
1.20401
0.916667
1
0.95772
1.31704
0.932917
0.794672
1.00007
1.19853
0.857216
0.930533
0.837629
0.979237
1.2012
1.03609
1.10337
1
1.02763
1.02864
1.18703
1.21266
1
1.18727
1.02868
1.0525
1.2089
1
1.18815
1.18944
1.14793
0.964014
1.21986
1
1
1.21543
1.1742
1.22742
0.818351
1.22312
1.17673
1
0.951439
1.05629
0.838225
1.16277
0.967723
0.844822
0.843774
1.25082
1.16551
1.20615
1.03199
1
1
1
0.963771
1.1523
1
1.00143
0.803082
1.23048
1.09312
1.02588
1.12903
0.929835
1.15449
1.03672
1.00047
1.16561
0.786907
1.01659
1.13243
1
0.791706
1.14187
0.939961
0.808477
1.14133
1.13684
1.23503
1.01234
1.2537
1.24932
1
0.928337
0.822496
1.13938
1
1
1.02643
1
1.24492
0.857636
1.14165
1.05483
1
1.16233
1.16293
1.02322
1.32931
1.03921
0.802747
1.12983
1.02051
0.960245
1.2397
1
0.9483
0.962764
1.03603
1.33455
1.13172
1
0.9322
0.883566
1.02347
1.25801
1.09272
1.03235
1.26275
1.02251
1
1.03561
1.05032
0.859802
1.53481
1.21316
1.31123
1.11736
1.02792
0.823145
1.19747
1
1
1.02897
1.04712
1.1194
0.967213
0.95825
1.06714
1.02929
1.30098
0.963475
1
0.726201
1
0.794502
1.06369
1.10626
1.10931
0.98186
1
1
1.26711
1.288
1
1
1.07847
0.981794
1.11499
1.27584
1.0752
1.05907
1.08992
1.09447
1.13792
0.957525
1
1.06166
1.09218
0.94708
0.959021
0.858748
1.09009
1.14866
1
1.13922
1
1
1.32767
0.958268
0.988317
1.2528
1.07814
1.31969
0.96096
1
1
1.08039
1.32888
0.947293
0.815215
1.10599
1
1.25595
1.07453
1.10056
1
1
1
1
1.1211
1
0.959994
1.06087
0.896483
1.13624
1.06388
0.999998
1.11895
1
1
1
1.12778
1.05318
1.05454
1
1.11513
1.1243
0.879837
1
1
0.869242
0.957392
1
0.897701
1.14229
1
1
1
1
1
1.03652
1
0.966727
1.13804
1
1.17481
1.11338
1
1.03833
0.777009
1
0.886869
1.1296
1
1
1.1724
1.18981
1
1
1
0.869461
0.868647
0.963276
1.15607
0.813855
1.17248
1
1
0.878146
1.17069
0.999966
0.869402
1.15332
1
0.977584
1
1.18946
1.03623
0.97195
1
0.852418
1
1
0.882872
0.779437
1.16747
0.999751
1
1.1861
1
0.964262
0.900409
1.17604
0.79779
0.999964
0.817227
1
0.851724
0.917586
0.950998
0.955326
1.19226
1.13121
1.1735
0.989308
0.996298
0.88211
1.01509
1.01553
0.986186
1
1
0.876316
0.870587
1.13357
0.819211
1.19383
1.18367
1.19307
1
1.18965
1.32664
0.908224
1.20594
1.23456
0.980995
1.00343
0.914102
0.885322
1.19419
1.18538
0.884768
1.20204
0.999888
1.13173
1.13753
0.856455
1.03911
1.37845
0.905433
0.862724
1
1.09942
1
1
0.856728
1.22484
1.18272
1.03943
1
1
1.04112
1.03418
1
1.3506
1
1.22438
1.10247
1
0.70505
1
1.2215
1
1.01087
0.855378
1
1.38643
0.801563
1.2202
1
0.787318
1
0.792288
1.01468
1.00076
1.24651
1.00913
0.83165
1.23827
1.07416
0.891118
1.22168
1.32055
1.35023
1.02729
1.24202
1.23546
0.842106
1.07581
1.1393
0.89511
1
1.1796
1
1.31247
0.967699
1.14542
1.25206
0.828388
0.987566
1.02268
1
1.04716
1.12657
0.970832
0.986962
0.930832
1.32347
1.03203
1.0042
1
1.04826
1.24749
1
1
1
1.16468
1.00635
1.10102
1.05069
1.01452
1
1.26928
1.3085
1.0663
1.11861
1.03235
1
1.31841
0.839839
1.26378
1.26873
1.03435
1.06492
1.00008
1
0.925326
1.11591
0.957743
1.29627
1.24585
0.964748
0.967197
0.964188
1.37638
1.27242
0.968634
0.853668
1
1.05743
1.12757
1.1102
1
1.13118
1
1.22209
1.12472
0.917997
1.24096
1.2319
1.13438
0.936398
1.05097
1.08162
1.20358
1
1.1342
0.957324
0.908301
1.08281
1.1328
1
1.24885
1.12521
1.21799
0.957159
0.957814
1
1.26121
1.07829
1.3477
1
1.18964
0.891815
1.17773
1.2238
0.93087
1.23504
1.20485
1.0527
1.20611
1.2436
1.00893
1.13451
1.16661
1
1.02912
1.08772
1.22102
1.19263
1.17694
0.868811
1.28157
1.1419
1.26489
1.02753
1.05184
1.14392
1
1.1326
1.20756
1.08562
1.1803
1
1.13946
0.966939
1
1.3556
1.19515
1.1689
1.09622
1
1.28375
0.95765
1
1.18355
1.15104
1.15731
1
1
1.09322
1.1712
1
1.14882
1
1.14527
1.1413
0.892111
1
1.15957
1
1.13423
0.855853
1.00005
1.05821
1.15921
1.1488
1.12283
1
1
1
1.10829
1.15641
0.951161
1.13636
1.08223
1.11229
1.15534
0.86051
1.01354
1.18732
0.999996
1
1.03893
1.03526
1.01405
1
1.10586
1.19044
1
1.12642
1.03573
0.894684
1.03764
1.16753
1.03122
1.09474
1.15307
1.12773
0.948074
1.11482
1.1719
1.16776
0.886845
1.02541
1.12008
1
1.34752
1.16497
0.96417
1.08376
1.25814
0.790647
1.13609
0.960205
0.935262
1
1.09638
1.16506
1.18385
1.11694
1.16662
1
0.789441
1.06795
1.09103
1.17601
1.08652
1
1
1.16244
1.05646
1.18022
1
0.827325
1
1
0.812558
1.17384
1
1.07114
1.23221
1.10631
1
0.931402
1.09846
1.17333
1.04131
1
1.05789
0.800968
0.956467
0.791444
1.21791
0.947256
1.13271
1
1.18385
1.20469
0.814438
1
1
1.02704
0.820446
1.04441
1.22662
1.12941
1.17066
1.18149
1
1.03519
1.20083
1
0.797913
1.02957
1.01433
0.900248
0.798215
1
0.95641
1
1.18143
1.02716
1
1
1.02209
1.08133
1.10849
1.06641
0.797971
1
1
0.933526
0.801586
1.14598
1.08059
1.2823
0.871982
1.17922
0.798796
1.19494
1
1.14363
1
1.19286
1
1
0.79103
1
1.19066
1.00104
1
0.712791
1.15649
1.01645
0.865657
1.13399
1.02807
1
0.855879
1.16598
1
1.18841
1
0.999377
1.06365
1.15376
0.94935
1.13668
1
0.8504
1.02647
1.42401
1.21784
0.820613
1
0.943775
0.81858
1.20754
0.946396
1
1
0.965338
1.03609
1
0.740233
1.02185
1.16327
1.04426
1.1986
0.799606
1.20582
0.982707
1.02165
1.06677
0.997821
0.998617
0.949699
1.16087
1.06287
0.928096
0.946008
1.04009
1
1.19631
1.01787
1
1
0.902184
1
1.21584
1.0801
1.13356
1
1.17328
1.215
1.08072
0.925378
0.856245
1
1.20693
1.07676
1.3117
0.772908
1.17086
1.08228
1.09441
0.922435
1.08699
0.850857
0.791139
0.791274
0.949631
0.798712
1.2046
1.19198
1
1.00842
1
0.880396
0.878747
1.26448
1.24893
1
1.14802
0.822535
0.961355
0.833539
1.18247
1.11422
0.802111
1
1.12622
0.96898
1.22674
1.1403
1.18133
1.1099
1
1
1
1.12001
1.08185
1.17968
0.878227
1.14569
0.855566
1.24708
1.00892
1.25205
1.08437
1.26841
1.1801
1.11741
0.956599
1
1
0.789703
1
1.07016
1.01006
0.886501
1.08119
1.05018
0.979161
1.1351
1
1.13838
1
1
0.921003
1.19321
1.05746
1.23041
0.930662
1.06797
0.943901
1.33915
0.936259
0.88311
0.756726
1
0.960937
1.19054
1.03455
1.04488
1.09418
1.04258
0.795674
1.04224
1
1.13036
1.09085
0.892645
1
1.09687
0.932659
1.01091
0.961113
1
0.746545
0.794077
1.06526
0.999993
0.964069
1
1
1.03842
1
1
1.09073
1.15138
0.867884
0.92795
0.891328
1.09429
1.0672
1.20337
1
1
0.87035
0.910266
1.04592
1.01941
1.10573
1
1.07608
0.795267
1.04349
0.949504
0.906566
0.790681
1
1.14554
1.09304
1.08177
1.20057
0.99483
1
1
1.3137
1.06787
1.20548
1.07419
1.10763
1.10242
1.01841
0.994676
1
1.07028
1.05113
1.20225
1
1.04108
0.929843
0.84576
1
0.990657
1.10998
0.783619
0.955838
0.851029
1.10376
1.18615
1
1.14734
1.06958
1.04403
1.12934
1.02744
0.841273
0.7926
1.06847
1.09906
1.13217
0.911425
1.09716
1
1.12092
1
0.856998
1
1.23162
1.10904
0.793608
1
1.02984
1.2132
0.947785
1
1.18283
0.937342
1
0.950963
0.910746
1.09627
0.937743
1.11518
0.948403
0.844077
1.2107
1.06579
1.07985
0.837747
0.925972
1
1.11123
0.960121
0.970082
0.963727
0.962735
1
0.796741
1.12325
1.00143
0.999984
1.00114
0.922363
1
1.1362
1.02977
1.12369
1.09784
0.922623
0.927434
0.936547
0.954692
1.09508
1.00021
0.940939
1.14855
1.13489
0.985224
0.87863
1
0.92036
1.14929
1
1.07438
1
0.904911
1.00996
1
1.12161
1.09395
1
1.15154
1
0.967473
1.0023
1.14513
1.13567
1
0.795186
1
1.16256
1.37021
1.05029
1
1.07676
1.20452
1.09638
1.12539
1.00984
0.871881
0.953499
1.0093
1
1.27711
0.929747
1
0.910141
1.13832
0.87654
1.05213
1.24786
0.78961
1.22681
0.927045
1
1.12915
1.21162
1.15831
1.08518
0.980835
1
1.17969
0.999991
0.926959
1
1.22458
1.09974
0.899873
1.00016
1.10788
1.13526
1.20819
1
1.18051
1.3638
1.21302
1.05963
0.854202
1.17676
0.938153
1.08401
1.25747
1
1
0.939686
0.996995
1.16663
1.042
1.20045
0.944944
0.910838
1.1829
0.873965
1
0.92776
0.98723
1.21442
1
0.936328
0.85524
0.786111
1.08735
1.21269
1
1
0.959127
0.819624
1.16882
0.773726
1.14476
1.03286
1.17655
0.786627
1.29714
1.02843
1.21904
1.25804
0.808792
1.02156
1
0.92418
1.34025
1.20879
1
0.919148
0.991206
0.754042
1.1798
1.1294
1.14694
1.06119
1.02746
0.882499
1.07756
1.23729
0.959423
1.11411
1.24791
1.03057
1.12342
1.23169
1.13143
1
0.930435
1.22297
1.19848
1
0.932649
1.07702
1.07034
1.2377
1.06813
1.15158
0.796019
1.08471
1.0622
1
1.08681
1.13883
1
1.16009
1.0723
0.928256
0.963552
1.0749
1
0.963968
0.912532
1.10031
1.08676
1.00714
1.12339
1.16889
1.07172
1.07157
1
1.27966
0.91071
0.94964
1.11753
1.0073
1.10366
1.1778
1.33042
1
1.13397
1.18722
1.11325
1
1.24573
1.1208
0.958341
1.22523
1
1.22051
1.12919
1.07614
1
1.17553
1.00688
1.28187
1.1362
1.06903
1.14886
0.799689
1.11797
1.18614
1
1
1.23561
1.20581
1.14955
0.924267
1.13131
0.90843
0.872804
1.02848
1.004
1.00917
0.884483
0.954405
1.09943
1.13185
1.15715
0.912175
0.896641
0.958602
1.1596
1.00293
1.04258
1.27681
1.16676
1
0.993926
1.06485
1.06684
1.0346
1.19459
0.925519
1.19215
1.00886
1.23132
1.17544
1.10052
1.13435
1
1.04198
1.05449
0.927869
0.779342
1.00574
1
0.866546
0.787337
1.13973
0.783935
0.85025
1.05625
1.24175
1.12115
1.18359
0.912593
1.32533
1.05837
0.882767
1.1327
0.852205
1
1.13193
1.20272
1.01827
1.33801
1.04723
1
1
0.911908
1.07127
0.801953
1
0.903759
0.811054
1.13636
1.13133
1.01058
0.930564
1.12718
1.19252
1.13708
1.1467
1
0.927991
1.04764
1.12583
1.28988
1
1
1.03044
1.09724
0.999998
1.24408
1.1406
1.00016
1.05953
1.244
1
1
0.994769
0.879962
0.906709
0.75798
0.977668
0.90057
1.06242
1.20054
1
1.13615
1.16197
1
0.811831
0.980171
1.15098
1.03807
1
0.866109
0.81529
0.980344
1.04435
0.740153
1.04305
0.999027
1.02288
1.0811
1.06503
0.886972
0.879993
1.11502
1
1.02393
1.15855
1.12351
1.2086
0.881276
0.894128
0.883877
1.00259
1
1.07062
1
1.15431
1.20164
0.743137
0.888768
0.888204
0.89305
1
0.982434
1
0.802374
0.865187
0.997292
0.876902
0.951531
0.88183
1.234
1.05838
1.36596
1
1.04518
0.875612
0.897451
0.875784
1.2419
1.23282
1
1.11983
0.877457
1.28609
1
0.909531
1
1.21749
0.980425
1.0569
1.02812
1
0.744014
0.958792
0.876209
1.11738
1
1
1.00049
1.04089
1.09864
1.03064
1.03701
1.21477
1.19433
1.23909
1.03276
1.08313
0.777402
0.89684
1.19327
1.21529
0.999938
1
0.899399
0.906516
1.01531
1.23502
0.878081
0.999999
1.02575
1
1.02708
1.01329
1.03837
0.934766
0.868389
0.741538
1.18757
1
1
0.813104
1
0.876655
1.04383
1.0752
1
1.03383
1.04206
1
1
0.87962
1.12899
0.879776
1.07778
1.10736
0.747303
0.926547
1.14933
0.868331
1.02321
1.00484
1.32566
1
1.08495
1.16653
1.03312
1
1.37396
0.851672
1.18559
1.09155
1
1.04026
1.19782
0.986469
1.2706
1.10539
1
0.986586
1
1
1.1088
1.05846
0.907263
1.17032
0.999991
1.05155
0.928275
1
0.883869
1.14179
1
1
1.23043
0.949814
0.741924
1.27538
1
1.11412
0.97306
1.0798
1
1.23196
1.00915
1.19909
1.07147
0.981964
1
1.04455
0.847372
1.14006
1.0493
1
1.12734
1.2285
0.917591
1.08284
1.11143
1.17542
0.971359
0.943195
1.02248
0.855317
1.29925
1.06897
1
1
1.27505
1.34073
1.08905
1
1.03628
1.02424
1.19523
1.02313
0.999998
1.19673
0.883496
1
1.02776
0.941745
1.12982
1
1.14234
1.10377
1
0.810722
1
1.10958
0.937492
1
1.06638
0.962882
1.11003
1.00078
1
1.13184
0.824798
1.06425
0.961339
0.882465
1.02549
1
1.06044
1.14078
1.13498
1.25436
1
0.783966
1
1.07868
1.15119
1.38017
1
0.855819
1
1.12482
1
0.988837
1.11035
1.04192
0.820618
1
1.16783
0.784231
0.969863
1.2497
1.15953
1.22836
1.0001
1.0756
0.929859
1
1
1.01979
1.14008
1.08339
1.06112
1
1.31883
1.14179
1.01157
0.928435
1.03355
1.23754
1
1.09435
1
0.964437
1.24245
1.2192
1.2197
1.28302
0.891643
1.16854
1.37221
1.14792
1.32333
1.1582
1.17181
1.16115
0.980631
0.96592
1.01282
0.857491
1.17384
0.959991
1
1.09179
1.01255
1
1.12395
1.21706
1.15771
1.17739
1.26546
1.10699
1.01237
0.936659
0.99879
1.2121
0.936883
0.982221
0.724426
1.30271
1.2223
1.24483
0.958369
1
0.843334
0.997504
0.753885
1.12599
1.05796
1.04123
1.16533
1.19835
1.00022
0.851881
1.11123
1
1.10405
1.30639
0.992509
1.18795
1
1
1.15175
0.853487
1.20622
1.23235
0.998863
0.860321
1.1164
1.07689
1.24059
0.935296
1.1626
1.16142
1.10183
1.17514
0.850126
1.09249
1
0.856561
0.910888
0.929108
0.749546
1.04811
1.07394
0.984775
1.08108
1
0.960471
1.19826
1.04683
1.11301
1.01115
1.04283
0.920807
0.837635
0.848757
1.21198
1.0293
1.01153
1.12894
1.0675
1.18501
1.36618
1.10902
1
1.0333
1.16324
0.794702
1.19397
1.12238
1.02414
0.810682
1.00908
1.09867
0.903556
0.926634
1.06413
0.790447
1.0815
0.803462
1.19855
0.804053
1.18469
1
1.38188
1
1.08906
1
1
1
1
1.27635
1.12632
1.20849
1.10663
1.2029
1.01955
1.07026
1.07087
1
1
1.09758
1.12031
1.19574
1
0.953385
1.05691
1.11958
1.14093
1
0.794439
1
0.863683
0.80807
1.19989
0.941785
1
1.13017
0.916186
1.18427
0.826328
1
1.20373
1.18213
0.882844
1.01667
1.13694
0.826126
1.18638
0.843713
0.997084
1.20583
0.834177
0.854542
0.914218
0.841552
1.19178
1
1.1506
0.868115
1.0663
1.22234
1
1.14482
1.14674
1.05042
1.17987
0.84294
0.868186
1
1.27186
0.837234
0.853956
0.994528
1.17537
1.16502
1.17468
1
1.18808
1
1.16706
1
1.14777
1.04705
0.795656
0.903779
1
1
1
1.17282
1.36087
1.15828
1
1
1.15575
1.05393
1
1.34257
0.862334
1.01329
1.00556
0.931648
0.939198
1.03297
1.03988
1.1642
1.17753
1
1.33893
0.917616
1.12109
1
0.9227
1
0.852347
1.17937
0.844624
0.978038
1.18667
1.02488
1.18018
1
1.0008
0.926396
1.21955
1.04106
1
0.948471
1.16676
1
1.24422
0.973329
0.888659
1.18155
1.2801
0.922093
0.860148
1.26126
0.933602
1
1.16056
1
1.00311
1.12324
1
1
1
1.12579
0.93421
0.884319
1.24805
1.2363
1.17444
0.962132
0.996981
0.878731
1.19794
1
0.956775
0.882066
1.19164
0.874749
1.09635
0.984843
1.17244
1.16801
0.912821
1.00825
0.890788
1.02497
1.00918
1
1.06321
1.1088
0.87757
0.916215
1.18718
0.903617
1
1
1.18965
1.08724
0.92354
0.841209
1.09724
1.18157
1
1.135
1.13574
0.957249
0.98811
1.03259
1.19447
1
0.931413
1.16643
1.01502
0.859052
0.904096
1.19171
1.17131
1.29803
0.999996
1
1.17568
1
1
1.03076
1
1.1721
1.15519
0.997665
1
0.95791
1
0.920569
0.8863
1
0.995494
0.947524
0.976515
1.36846
0.974123
1.15946
1.0389
1.1998
1.01711
1.18735
1.16446
1
1.22141
0.9082
1.33996
1.10494
1
1.22546
1.2324
0.965059
1.03616
1.11175
1.00419
0.821798
0.880923
0.979431
0.922807
1.03111
1
0.996344
1
0.973992
0.881331
1
1
1
0.857953
1
0.961314
0.845658
1.00117
0.790721
1.25537
0.96328
0.967285
1
1.16083
1.18418
0.89238
1
1.21119
1.14721
1
1
1
0.995508
1.34518
1.02202
1
1
0.962437
1
0.873077
1.00003
1.23267
0.992113
1.05819
0.854606
1.24614
1.19969
1.09871
1
1
1.02688
1.21048
0.823084
1
1.29822
1.2745
1.21296
0.85918
1.2213
1.04231
1.09846
1
1.15272
0.992383
1.1118
1.01657
0.912008
1.20149
1.12598
1
1
1.20823
0.828934
1.03622
1
1.03828
1.04046
1.20551
1
1.3407
1.0967
1
1
1.01963
1.19599
0.973728
1.23969
1
1.26879
1.19011
1.19587
1.00388
1.28606
0.856086
1.10034
1
1.25668
0.866253
1.29407
0.901434
0.982502
0.990421
0.870746
0.984209
1.0022
1.1329
1.0868
1.14435
1.07059
0.814633
0.984234
0.859105
1.11482
1
1.28769
1.18396
1.17867
1
1
0.852166
1.29829
1.27116
0.873659
1.09146
0.854986
1
1
1.11341
0.954728
0.864048
1.15024
1.23936
1.00019