/*--------------------------------*- C++ -*----------------------------------*\
  =========                 |
  \\      /  F ield         | OpenFOAM: The Open Source CFD Toolbox
   \\    /   O peration     | Website:  https://openfoam.org
    \\  /    A nd           | Version:  12
     \\/     M anipulation  |
\*---------------------------------------------------------------------------*/
FoamFile
{
    format      ascii;
    class       volScalarField;
    location    "3.3";
    object      rho;
}
// * * * * * * * * * * * * * * * * * * * * * * * * * * * * * * * * * * * * * //

dimensions      [1 -3 0 0 0 0 0];

internalField   nonuniform List<scalar> 
46253
(
1.2614
1.40001
1.40001
1.40001
1.40001
1.40001
1.19752
1.54305
1.40001
1.40001
1.26434
1.18539
1.40001
1.40001
1.40001
1.40001
1.40001
1.40001
1.40001
1.40001
1.40001
1.40001
1.40001
1.2357
1.21266
1.40001
1.40001
1.40001
1.40001
1.542
1.51506
1.40001
1.40001
1.40001
1.40001
1.40001
1.40001
1.40001
1.53338
1.40001
1.19022
1.18425
1.40001
1.40001
1.13574
1.40001
1.40001
1.40001
1.4
1.39996
1.39976
1.39902
1.40001
1.53331
1.40002
1.25464
1.5489
1.62702
1.64373
1.19426
1.40001
1.15902
1.40001
1.40001
1.40001
1.40001
1.40001
1.40001
1.25733
1.13972
1.19531
1.77769
1.84972
1.44169
1.40001
1.2302
1.75178
1.74927
1.40001
1.40001
1.40001
1.80678
1.40001
1.80033
1.19505
1.40001
1.6882
1.68569
1.53165
1.40001
1.40001
1.18732
1.40001
1.41292
1.40001
1.44314
1.40001
1.40001
1.64175
1.40001
1.40001
1.40001
1.40001
1.50987
1.4
1.19723
1.18713
1.63791
1.63576
1.20916
1.53378
1.85254
1.84174
1.40001
1.40001
1.53263
1.14466
1.19285
1.83785
1.26999
1.40001
1.40001
1.78858
1.78282
1.40001
1.84284
1.40001
1.23461
1.39275
1.73361
1.6064
1.60441
1.40001
1.20429
1.73072
1.40001
1.71392
1.71145
1.26625
1.40001
1.76104
1.58813
1.58622
1.49903
1.76273
1.4007
1.69633
1.69408
1.53358
1.40001
1.20644
1.40001
1.72375
1.72088
1.45977
1.14006
1.23185
1.40001
1.67136
1.40001
1.66973
1.18771
1.25115
1.40001
1.20937
1.70452
1.20365
1.70358
2.04704
1.40001
1.65727
1.65553
1.40001
1.19859
1.40001
1.12611
1.48844
1.40001
1.44132
1.14754
1.4
1.45817
1.64354
1.6421
1.40001
1.67963
1.67646
1.13212
1.40001
1.40001
1.40001
1.40001
1.16935
1.40001
1.40001
1.40001
1.53373
1.40001
1.49354
1.49139
1.40001
1.40001
1.66483
1.66313
1.40001
1.14213
1.45351
1.62402
1.62241
1.40001
1.40001
1.8368
1.19474
1.40001
1.49754
1.40001
1.49351
1.19191
1.61185
1.40001
1.40001
1.61042
1.12323
1.65041
1.64841
1.19078
1.40001
1.40001
1.46821
1.46642
1.58405
1.40001
1.40001
1.40001
1.40001
1.40001
1.40001
1.40001
1.5812
1.60493
1.40001
1.40001
1.40001
1.40001
1.40001
1.40001
1.40001
1.45199
1.40001
1.59347
1.592
1.60155
1.44289
1.40001
1.43993
1.6312
1.62886
1.281
1.19381
1.40001
1.20952
1.18148
1.20773
1.50175
1.41677
1.40001
1.40001
1.40001
1.6181
1.57516
1.61653
1.40001
1.40001
1.40001
1.57378
1.40001
1.40028
1.40001
1.53295
1.30465
1.41644
1.41525
1.40001
1.40001
1.40001
1.17333
1.18504
1.26982
1.48469
1.40001
1.63326
1.63167
1.19006
1.40001
1.62434
1.55037
1.40001
1.54731
1.1918
1.56346
1.82071
1.56209
1.24217
1.8204
1.40001
1.60009
1.59813
1.40001
1.49968
1.40001
1.40001
1.44395
1.40001
1.55219
1.40001
1.55088
1.25647
1.62254
1.40001
1.53241
1.23624
1.40001
1.2043
1.21377
1.53618
1.47967
1.40001
1.40001
1.54083
1.53955
1.37279
1.37036
1.40001
1.40001
1.40001
1.15058
1.27531
1.58168
1.57957
1.40001
1.40001
1.40001
1.40001
1.85597
1.40001
1.52993
1.52861
1.40001
1.26698
1.40001
1.53355
1.40001
1.14162
1.40001
1.19335
1.40001
1.56921
1.40001
1.56782
1.40001
1.1954
1.40001
1.40001
1.40001
1.40001
1.40001
1.40001
1.40001
1.51944
1.40001
1.40001
1.40001
1.40001
1.51798
1.40001
1.61525
1.2627
1.40001
1.40001
1.40001
1.19267
1.21043
1.23735
1.55764
1.53515
1.55619
1.40001
1.40001
1.5087
1.86921
1.40001
1.48652
1.50752
1.17546
1.40001
1.53725
1.43766
1.43612
1.40001
1.51755
1.40001
1.32333
1.32009
1.61232
1.40001
1.39981
1.40001
1.40001
1.40001
1.40001
1.40001
1.40001
1.78356
1.40001
1.51715
1.40001
1.17299
1.40001
1.40001
1.28297
1.40001
1.40001
1.49871
1.40001
1.54631
1.40001
1.40001
1.49731
1.54472
1.40001
1.44185
1.40001
1.40001
1.40001
1.40001
1.47097
1.53318
1.40001
1.40001
1.53365
1.23961
1.40001
1.18253
1.40001
1.47702
1.46466
1.40001
1.40001
1.26592
1.40001
1.30766
1.52316
1.40001
1.17217
1.40001
1.70706
1.53119
1.39982
1.53496
1.48211
1.40001
1.48126
1.4829
1.53349
1.40001
1.48069
1.40001
1.40001
1.40001
1.40001
1.40001
1.43109
1.40001
1.53097
1.24207
1.48209
1.28967
1.44658
1.4809
1.41205
1.29494
1.29318
1.40001
1.40001
1.40001
1.40001
1.39483
1.40001
1.31006
1.19053
1.16485
1.31171
1.48136
1.18789
1.48155
1.40001
1.40001
1.52431
1.50899
1.20636
1.52291
1.47237
1.47129
1.2785
1.1933
1.40001
1.27782
1.50689
1.40001
1.40001
1.40001
1.18647
1.40001
1.53467
1.16603
1.40001
1.40001
1.4894
1.40001
1.40001
1.16592
1.10525
1.51706
1.40001
1.40001
1.51834
1.40001
1.51765
1.52552
1.51906
1.40001
1.53421
1.53822
1.40001
1.4805
1.50323
1.40001
1.40001
1.51335
1.40001
1.2122
1.28643
1.40001
1.40001
1.51209
1.40001
1.40001
1.40001
1.40001
1.15922
1.40001
1.40001
1.45679
1.29139
1.45517
1.19437
1.40001
1.40001
1.40001
1.40001
1.40001
1.40001
1.40001
1.47939
1.16823
1.40001
1.40001
1.40001
1.40001
1.40001
1.40001
1.21088
1.49125
1.40001
1.47694
1.40001
1.40001
1.23966
1.40001
1.40001
1.40001
1.50333
1.40001
1.40001
1.50205
1.47266
1.54113
1.40001
1.54442
1.54578
1.54883
1.54171
1.40001
1.44754
1.44642
1.48383
1.55023
1.40001
1.40001
1.44128
1.40001
1.81839
1.44393
1.40001
1.82452
1.3955
1.40001
1.49879
1.50783
1.40001
1.40001
1.54183
1.48772
1.40001
1.40001
1.42413
1.4
1.40001
1.39388
1.39842
1.67715
1.6881
1.65022
1.65255
1.12584
1.47665
1.63915
1.16057
1.64006
1.63119
1.40001
1.21236
1.2405
1.63306
1.40001
1.62265
1.40001
1.62359
1.40001
1.48528
1.61148
1.40001
1.61337
1.7271
1.40001
1.60065
1.40001
1.60266
1.40001
1.1612
1.40001
1.29723
1.23947
1.40001
1.40001
1.58917
1.59136
1.40001
1.51029
1.57915
1.58066
1.42408
1.40001
1.40001
1.56509
1.43172
1.56624
1.40001
1.48771
1.55436
1.2487
1.5557
1.43111
1.48596
1.40001
1.40001
1.40001
1.54409
1.54593
1.53083
1.40001
1.40001
1.53453
1.31661
1.53609
1.23815
1.40001
1.51981
1.52157
1.40001
1.40001
1.40001
1.16786
1.40001
1.50416
1.42905
1.51894
1.40001
1.50612
1.40001
1.50791
1.40001
1.40001
1.50861
1.50939
1.49679
1.49765
1.47365
1.52059
1.48641
1.52557
1.48876
1.40001
1.43869
1.47185
1.47388
1.40001
1.27341
1.46298
1.46369
1.99242
1.40001
1.40001
1.40001
1.45178
1.47179
1.45367
1.10568
1.55119
1.47989
1.20889
1.44589
1.44675
1.4264
1.43579
1.43582
1.26908
1.26057
1.40001
1.53273
1.83778
1.42141
1.40001
1.21834
1.41936
1.25235
1.55128
1.21691
1.40001
1.40001
1.40001
1.47695
1.40001
1.40001
1.40001
1.40001
1.40001
1.47594
1.40001
1.40001
1.40001
1.28663
1.27817
1.40001
1.43319
1.12516
1.2572
1.40001
1.40001
1.40001
1.40001
1.40001
1.16624
1.40001
1.47544
1.40001
1.53678
1.22393
1.53964
1.26093
1.40001
1.1716
1.18973
1.55011
1.40001
1.40001
1.40001
1.40001
1.40001
1.54291
1.54071
1.21098
1.2213
1.22203
1.40001
1.30028
1.40001
1.40001
1.5437
1.42199
1.40005
1.53591
1.40451
1.40001
1.43597
1.44353
1.40001
1.54685
1.23685
1.47488
1.40001
1.48019
1.40695
1.40001
1.40001
1.48236
1.48902
1.40001
1.4054
1.11702
1.40001
1.40001
1.57435
1.57588
1.4757
1.40001
1.11755
1.12181
1.19074
1.39169
1.40001
1.51375
1.53624
1.23985
1.71792
1.40001
1.40001
1.40001
1.52978
1.53098
1.40001
1.39715
1.40001
1.46261
1.51585
1.40001
1.3971
1.51673
1.46079
1.48031
1.47516
1.40001
1.47293
1.51862
1.21844
1.47209
1.24133
1.48147
1.40001
1.40001
1.48254
1.40001
1.40001
1.48416
1.47543
1.40001
1.39739
1.27952
1.50936
1.26705
1.27223
1.3956
1.27116
1.26522
1.23771
1.2349
1.40001
1.40001
1.5462
1.40001
1.40001
1.48601
1.29272
1.28225
1.40001
1.40001
1.52191
1.40001
1.51624
1.521
1.48051
1.69914
1.56053
1.39946
1.40001
1.40001
1.40001
1.47969
1.52073
1.5483
1.12237
1.40001
1.45138
1.40001
1.40681
1.40602
1.45106
1.40001
1.398
1.43608
1.39777
1.40001
1.40001
1.40001
1.40001
1.38125
1.51798
1.40001
1.4194
1.40001
1.26878
1.40001
1.26733
1.25442
1.19956
1.40001
1.38653
1.38569
1.19005
1.77339
1.40001
1.28076
1.53469
1.5347
1.28213
1.40001
1.40001
1.47674
1.10224
1.40001
1.40001
1.51526
1.15181
1.54171
1.48812
1.40001
1.40001
1.40001
1.40001
1.40001
1.40001
1.87552
1.40001
1.25811
1.25878
1.25831
1.53187
1.12292
1.1106
1.12929
1.27886
1.56416
1.25465
1.11278
1.60626
1.61701
1.62668
1.59481
1.60802
1.40001
1.43443
1.619
1.63641
1.59708
1.47709
1.62813
1.56185
1.584
1.63713
1.40001
1.64432
1.58581
1.64724
1.40001
1.5696
1.64082
1.65245
1.65266
1.57091
1.54869
1.66375
1.55974
1.49385
1.40001
1.40014
1.56152
1.40001
1.54979
1.40003
1.40001
1.40001
1.37793
1.55095
1.40001
1.40001
1.40001
1.53936
1.55039
1.40001
1.40001
1.40001
1.54059
1.37682
1.13892
1.52542
1.40001
1.36497
1.52672
1.51136
1.51266
1.25481
1.50089
1.50246
1.49279
1.40001
1.23789
1.49384
1.40001
1.47759
1.21113
1.40001
1.40001
1.47855
1.30748
1.17899
1.46691
1.4676
1.45814
1.43622
1.45994
1.11367
1.44923
1.40001
1.42068
1.43489
1.44895
1.42622
1.40266
1.47777
1.43904
1.4142
1.41686
1.202
1.44141
1.43292
1.43341
1.25743
1.22125
1.11468
1.40001
1.22609
1.40001
1.21214
1.22676
1.1318
1.40001
1.83887
1.55548
1.40001
1.3793
1.37142
1.48366
1.49079
1.40001
1.53949
1.54689
1.55706
1.54336
1.5415
1.54233
1.54853
1.54415
1.54027
1.43103
1.26534
1.51806
1.48126
1.40001
1.37226
1.28623
1.2499
1.41057
1.40001
1.59991
1.54129
1.18514
1.40001
1.36373
1.19003
1.38293
1.36286
1.40001
1.64197
1.40001
1.3331
1.40989
1.53466
1.53889
1.42386
1.43026
1.26934
1.42773
1.38842
1.42611
1.4204
1.19163
1.18338
1.27247
1.24466
1.37006
1.55348
1.42276
1.40001
1.55233
1.63144
1.33556
1.40221
1.40001
1.40001
1.40001
1.50291
1.40462
1.40001
1.40001
1.12501
1.40731
1.23909
1.40001
1.19743
1.40001
1.50006
1.33992
1.40001
1.40001
1.10544
1.245
1.66243
1.25216
1.52161
1.52176
1.40002
1.55894
1.51231
1.40001
1.36258
1.40001
1.42042
1.35373
1.37833
1.29027
1.40001
1.40001
1.37071
1.3718
1.4091
1.4861
1.51068
1.51164
1.40001
1.35272
1.40975
1.47717
1.47503
1.23753
1.425
1.40001
1.34617
1.31252
1.40116
1.21117
1.40214
1.54222
1.40001
1.40001
1.40001
1.29078
1.38401
1.40001
1.47241
1.39399
1.55262
1.55106
1.2798
1.47275
1.1001
1.20397
1.59332
1.40001
1.40001
1.35397
1.60766
1.40001
1.40001
1.40001
1.4931
1.40001
1.4502
1.15415
1.43699
1.37256
1.40001
1.40001
1.37161
1.40001
1.68517
1.48081
1.67658
1.69162
1.40001
1.18209
1.67872
1.48644
1.3716
1.59014
1.40001
1.19671
1.65842
1.62425
1.35618
1.40001
1.58088
1.66143
1.63782
1.40003
1.51091
1.11428
1.40001
1.40001
1.28271
1.63983
1.40001
1.60517
1.52983
1.40001
1.40001
1.19481
1.61969
1.34622
1.56456
1.64333
1.41212
1.23267
1.46535
1.61943
1.62281
1.55739
1.3448
1.40001
1.43355
1.41055
1.42987
1.53942
1.40001
1.60319
1.40001
1.40001
1.40001
1.60229
1.40001
1.40001
1.31452
1.4374
1.40001
1.32113
1.60617
1.52377
1.48659
1.40001
1.43169
1.40001
1.51498
1.40001
1.40001
1.40001
1.40001
1.40001
1.43186
1.40001
1.40001
1.40001
1.40001
1.40001
1.40001
1.15463
1.11261
1.40001
1.40263
1.40001
1.40001
1.40001
1.5338
1.3003
1.23219
1.40001
1.23501
1.53143
1.40001
1.40001
1.40001
1.43265
1.40001
1.5487
1.40001
1.63984
1.26557
1.26848
1.40001
1.39196
1.40001
1.40001
1.3941
1.40001
1.65983
1.65382
1.5097
1.63614
1.40001
1.40001
1.61645
1.62152
1.27805
1.59971
1.40001
1.60074
1.53621
1.40001
1.59107
1.40001
1.34289
1.34865
1.28006
1.58678
1.27363
1.33297
1.40001
1.59248
1.35827
1.35813
1.53868
1.54324
1.21281
1.54366
1.53865
1.41691
1.53973
1.54056
1.33495
1.57728
1.57993
1.53391
1.69276
1.54168
1.57283
1.58125
1.54192
1.33394
1.54548
1.40001
1.36688
1.54478
1.57439
1.68094
1.27193
1.51387
1.54466
1.55871
1.40178
1.566
1.28248
1.56713
1.30429
1.40001
1.436
1.24138
1.40159
1.49561
1.56024
1.5477
1.53569
1.40001
1.56164
1.61632
1.40001
1.40001
1.12557
1.40001
1.40001
1.56446
1.3199
1.40001
1.59545
1.70072
1.5551
1.40001
1.2592
1.41676
1.54192
1.5416
1.19404
1.70353
1.5497
1.43798
1.59036
1.32924
1.59455
1.67953
1.57113
1.67889
1.65804
1.40001
1.32866
1.40001
1.41354
1.40001
1.12854
1.44223
1.66129
1.54768
1.52223
1.55143
1.50586
1.62086
1.53733
1.53404
1.28546
1.59709
1.40001
1.64002
1.64407
1.40001
1.41007
1.40001
1.40001
1.40001
1.40001
1.40001
1.31022
1.40001
1.32846
1.12703
1.25847
1.61058
1.12439
1.25722
1.62421
1.23462
1.40001
1.12339
1.32706
1.34365
1.40001
1.53416
1.42954
1.40001
1.40001
1.65107
1.12789
1.28402
1.27982
1.43296
1.40001
1.40001
1.11307
1.39762
1.48034
1.58689
1.11701
1.40001
1.40001
1.40001
1.69233
1.40001
1.61034
1.61105
1.47136
1.12652
1.58592
1.59759
1.40001
1.53313
1.60049
1.68056
1.44037
1.40001
1.64611
1.40001
1.40001
1.34398
1.58802
1.51882
1.62818
1.13051
1.63448
1.64544
1.58293
1.40001
1.40001
1.5295
1.40769
1.4
1.39118
1.40001
1.23708
1.4
1.40001
1.55567
1.12604
1.40001
1.56978
1.1646
1.57258
1.40001
1.40001
1.38909
1.59551
1.14205
1.26315
1.15869
1.35638
1.33093
1.34839
1.1357
1.51509
1.37412
1.36952
1.40001
1.55753
1.13665
1.14645
1.35902
1.57255
1.56398
1.31039
1.40001
1.40001
1.3691
1.36512
1.1992
1.40001
1.52837
1.24137
1.53862
1.53447
1.54169
1.35007
1.53166
1.58773
1.17661
1.58919
1.11779
1.33257
1.53037
1.3458
1.5362
1.11902
1.30941
1.53668
1.40001
1.31337
1.52046
1.24432
1.66093
1.27756
1.5005
1.54702
1.66039
1.1963
1.51416
1.36137
1.40001
1.54396
1.5151
1.59162
1.61239
1.40001
1.37212
1.40001
1.53558
1.30153
1.42072
1.20667
1.20528
1.40001
1.19054
1.26769
1.50353
1.40001
1.13104
1.47091
1.43191
1.55499
1.477
1.12948
1.29609
1.35763
1.4345
1.55633
1.22906
1.47399
1.48889
1.40001
1.49035
1.40001
1.47894
1.64842
1.47634
1.25091
1.62152
1.42019
1.40001
1.19992
1.67699
1.42676
1.40001
1.21881
1.67674
1.56857
1.85971
1.52923
1.40001
1.4496
1.66332
1.46359
1.40001
1.65396
1.46637
1.40001
1.5657
1.6544
1.56087
1.71176
1.63331
1.4516
1.32552
1.40001
1.40001
1.63575
1.24146
1.40001
1.24565
1.4925
1.5691
1.57631
1.25181
1.53171
1.33534
1.40001
1.27138
1.70183
1.40001
1.40001
1.59269
1.69674
1.25007
1.31422
1.43537
1.19135
1.18384
1.42407
1.3192
1.43674
1.42808
1.39272
1.62207
1.43176
1.43091
1.51877
1.31386
1.42402
1.42128
1.53161
1.53934
1.24344
1.40001
1.41004
1.70634
1.41306
1.59102
1.70157
1.26497
1.40001
1.41476
1.38792
1.55301
1.2862
1.40001
1.40001
1.43262
1.43552
1.33823
1.50883
1.40001
1.40001
1.51123
1.30693
1.38266
1.40001
1.40001
1.14686
1.39565
1.39797
1.65635
1.48917
1.27694
1.39468
1.39064
1.40001
1.27573
1.38228
1.31783
1.26383
1.43159
1.53823
1.76292
1.58068
1.48369
1.58984
1.35406
1.58981
1.58244
1.21047
1.53839
1.54359
1.40001
1.242
1.40001
1.40001
1.35139
1.3339
1.36152
1.33821
1.65702
1.42571
1.40001
1.40001
1.35606
1.55285
1.28507
1.32412
1.36645
1.28316
1.52429
1.42625
1.55369
1.29111
1.24473
1.35604
1.70768
1.25492
1.40001
1.40182
1.52057
1.28961
1.70602
1.36944
1.48033
1.40001
1.40001
1.4821
1.38921
1.66286
1.40001
1.4
1.38687
1.40001
1.5222
1.3165
1.29807
1.286
1.36085
1.52466
1.32544
1.40001
1.29697
1.29181
1.40001
1.23952
1.16248
1.32638
1.47698
1.49067
1.40001
1.40001
1.43105
1.33261
1.52717
1.30512
1.30675
1.69824
1.29034
1.40034
1.40001
1.49571
1.40001
1.40001
1.20713
1.47631
1.52892
1.49733
1.40001
1.17025
1.21531
1.30954
1.59509
1.30551
1.61554
1.34288
1.5814
1.40001
1.40001
1.2805
1.33064
1.42903
1.30755
1.40001
1.40001
1.14335
1.29886
1.25621
1.31204
1.46954
1.42654
1.36843
1.40001
1.57656
1.40001
1.47082
1.40001
1.59982
1.40016
1.20021
1.40001
1.53477
1.40001
1.40001
1.40001
1.40001
1.40001
1.40001
1.54214
1.59679
1.40001
1.60046
1.58353
1.40001
1.52052
1.68791
1.40001
1.42268
1.42891
1.56252
1.40001
1.40001
1.3037
1.24257
1.31757
1.4418
1.58504
1.57779
1.41973
1.51768
1.34884
1.40001
1.40001
1.40001
1.40001
1.42491
1.44593
1.56917
1.44429
1.42739
1.31537
1.44732
1.30214
1.31657
1.40326
1.70763
1.21436
1.56397
1.48187
1.57054
1.4872
1.40001
1.39601
1.21121
1.5329
1.40001
1.40001
1.52583
1.20687
1.33408
1.40554
1.20303
1.55286
1.40001
1.28752
1.40001
1.44002
1.20003
1.20186
1.54251
1.2805
1.33003
1.47591
1.63838
1.50694
1.5529
1.45802
1.40001
1.54011
1.51154
1.2852
1.6675
1.65061
1.43678
1.40001
1.40001
1.5259
1.68371
1.55542
1.62844
1.70285
1.42423
1.23502
1.34538
1.40001
1.55044
1.34871
1.40001
1.69321
1.37599
1.23403
1.67201
1.51722
1.42815
1.45346
1.64852
1.45068
1.36832
1.40001
1.38166
1.3784
1.65111
1.44391
1.40001
1.38416
1.46636
1.51985
1.42365
1.63036
1.52399
1.3638
1.40001
1.24445
1.40001
1.3642
1.2111
1.40001
1.40001
1.69703
1.20333
1.58594
1.21399
1.40001
1.40001
1.59163
1.43058
1.42313
1.20994
1.40001
1.28455
1.40001
1.35081
1.6725
1.19238
1.52724
1.20838
1.39389
1.40001
1.60497
1.55926
1.43821
1.38769
1.34839
1.43732
1.46175
1.38996
1.40001
1.61392
1.40989
1.669
1.40001
1.60733
1.59371
1.40001
1.55723
1.32188
1.40626
1.17929
1.61614
1.11171
1.42782
1.4263
1.56122
1.40001
1.57605
1.42414
1.18052
1.79632
1.17978
1.40001
1.40001
1.40001
1.40217
1.19615
1.57769
1.29228
1.56461
1.52845
1.4006
1.40013
1.71076
1.56408
1.53341
1.31265
1.40023
1.48635
1.40015
1.50404
1.26695
1.47737
1.54659
1.68162
1.48257
1.51845
1.4263
1.54958
1.53549
1.42346
1.60087
1.26436
1.17
1.45858
1.60428
1.50817
1.31781
1.40001
1.40001
1.42566
1.40001
1.40001
1.38901
1.27461
1.50111
1.51724
1.56569
1.42708
1.68017
1.40001
1.43496
1.49503
1.31801
1.30604
1.32199
1.51898
1.21744
1.17005
1.51109
1.27584
1.58663
1.24327
1.33411
1.53642
1.32642
1.48099
1.58763
1.51732
1.63772
1.18647
1.49265
1.40001
1.40001
1.47114
1.40001
1.49103
1.40001
1.51338
1.49322
1.48497
1.48741
1.46799
1.57554
1.32734
1.40001
1.59613
1.32433
1.34066
1.51957
1.5765
1.60492
1.43968
1.4544
1.40001
1.4989
1.46891
1.41767
1.44835
1.52395
1.29713
1.24755
1.77468
1.26867
1.5321
1.52165
1.46859
1.50717
1.35516
1.45815
1.38813
1.40001
1.68577
1.55387
1.36721
1.34902
1.44318
1.41273
1.43074
1.29692
1.32407
1.47956
1.45468
1.33983
1.40001
1.52913
1.49385
1.35306
1.51009
1.36557
1.7395
1.40001
1.44001
1.43371
1.40001
1.40001
1.40001
1.40001
1.74947
1.60617
1.41871
1.61244
1.34172
1.40001
1.44253
1.36654
1.51868
1.42673
1.43373
1.47231
1.4737
1.50574
1.33376
1.40001
1.40001
1.3855
1.55924
1.40001
1.40001
1.36696
1.53255
1.42249
1.72608
1.46349
1.52462
1.40001
1.51991
1.53121
1.52021
1.53896
1.55239
1.46415
1.40001
1.41287
1.31616
1.40001
1.73019
1.38039
1.54311
1.43921
1.54718
1.41173
1.31521
1.18911
1.62788
1.1906
1.56701
1.5556
1.40001
1.52583
1.52329
1.56199
1.46684
1.40001
1.40001
1.52754
1.39323
1.31625
1.18786
1.49449
1.40001
1.70062
1.34631
1.58208
1.33086
1.39266
1.57561
1.57824
1.53349
1.19259
1.70377
1.57109
1.32984
1.37927
1.36483
1.32965
1.64148
1.3755
1.20637
1.36553
1.40001
1.39744
1.52624
1.4442
1.40983
1.34677
1.59134
1.70683
1.30552
1.45045
1.43306
1.45063
1.28667
1.553
1.3407
1.58758
1.34615
1.3266
1.42262
1.31754
1.43525
1.53135
1.52315
1.52422
1.58535
1.32693
1.52648
1.32216
1.2645
1.34947
1.52836
1.35018
1.65088
1.40001
1.45128
1.40001
1.32235
1.65446
1.40001
1.40001
1.31579
1.6046
1.40001
1.36172
1.42201
1.70693
1.47924
1.4
1.1914
1.40001
1.31736
1.35639
1.63098
1.34414
1.44059
1.63384
1.4411
1.42615
1.54844
1.40001
1.19124
1.40001
1.61758
1.42597
1.61215
1.40414
1.3132
1.59037
1.62056
1.59131
1.40001
1.30767
1.18167
1.60473
1.59509
1.60711
1.5153
1.39456
1.60763
1.41756
1.51937
1.59813
1.3155
1.40001
1.35663
1.7026
1.33217
1.18651
1.40007
1.59282
1.25332
1.32974
1.23254
1.37899
1.59536
1.43398
1.50155
1.40001
1.42726
1.42831
1.58214
1.60527
1.40001
1.5821
1.42662
1.44591
1.60171
1.40001
1.58316
1.58419
1.54482
1.36281
1.61208
1.40001
1.40001
1.60789
1.56958
1.61921
1.21304
1.61514
1.57204
1.40001
1.35011
1.45409
1.23369
1.55868
1.36738
1.24076
1.23968
1.64216
1.56132
1.59921
1.42972
1.40001
1.40001
1.40001
1.36269
1.54873
1.40001
1.40132
1.19676
1.62207
1.49099
1.42497
1.5201
1.32749
1.55081
1.43483
1.40029
1.56126
1.1786
1.41644
1.5296
1.40001
1.18439
1.53865
1.33891
1.20217
1.53828
1.53397
1.62638
1.41221
1.64392
1.63977
1.40001
1.32595
1.21666
1.53641
1.40001
1.40001
1.42623
1.40001
1.63568
1.25365
1.53855
1.44788
1.40001
1.55818
1.55918
1.42303
1.71537
1.4388
1.1961
1.52735
1.41825
1.35953
1.63074
1.40001
1.34628
1.3621
1.4357
1.72015
1.52912
1.40001
1.33139
1.28079
1.42278
1.64789
1.48964
1.4301
1.65238
1.42164
1.40001
1.43116
1.44969
1.25592
1.89647
1.60654
1.69846
1.51529
1.42599
1.21693
1.5918
1.40001
1.40001
1.42685
1.44656
1.51726
1.36065
1.35757
1.46613
1.42724
1.68911
1.36288
1.40001
1.11135
1.40001
1.18629
1.46281
1.50447
1.50745
1.38084
1.40001
1.40001
1.6564
1.67691
1.40001
1.40001
1.47721
1.3807
1.51107
1.66498
1.47405
1.45803
1.48847
1.49271
1.53457
1.35683
1.40001
1.46059
1.49069
1.34501
1.35844
1.25545
1.48848
1.54512
1.40001
1.53614
1.40001
1.40001
1.71245
1.3577
1.38362
1.64396
1.47689
1.70579
1.36041
1.40001
1.40001
1.47911
1.71354
1.34237
1.20953
1.50381
1.40001
1.64691
1.47369
1.49856
1.40001
1.40001
1.40001
1.40001
1.51847
1.40001
1.35926
1.45989
1.29279
1.52739
1.46284
1.4
1.51637
1.40001
1.40001
1.40001
1.52498
1.45231
1.45365
1.40001
1.51279
1.5216
1.2771
1.40001
1.40001
1.26642
1.35666
1.40001
1.2948
1.539
1.40001
1.40001
1.40001
1.40001
1.40001
1.43593
1.40001
1.3649
1.53489
1.40001
1.5699
1.51072
1.40001
1.43772
1.16767
1.40001
1.28354
1.527
1.40001
1.40001
1.56765
1.58416
1.40001
1.40001
1.40001
1.26661
1.26565
1.36139
1.55226
1.20797
1.56382
1.40001
1.40001
1.27515
1.56638
1.39997
1.26637
1.54961
1.40001
1.37583
1.40001
1.58402
1.43572
1.37013
1.40001
1.24728
1.40001
1.40001
1.28035
1.17033
1.56333
1.39977
1.40001
1.58083
1.40001
1.36386
1.29789
1.57134
1.18984
1.39997
1.21105
1.40001
1.24795
1.31461
1.34454
1.35481
1.58696
1.52212
1.5689
1.38759
1.39163
1.2796
1.41499
1.41459
1.38444
1.40001
1.40001
1.27251
1.26795
1.52807
1.21316
1.5884
1.57899
1.58773
1.40001
1.58438
1.71161
1.30567
1.59996
1.62715
1.37914
1.40169
1.30844
1.28236
1.58861
1.58061
1.28148
1.59623
1.39813
1.52723
1.53282
1.25149
1.43869
1.76022
1.30278
1.25817
1.40001
1.4978
1.40001
1.40001
1.25287
1.61755
1.57812
1.43905
1.40001
1.40001
1.44065
1.43239
1.40001
1.73489
1.40001
1.61751
1.50079
1.40001
1.08715
1.40001
1.6144
1.40001
1.40989
1.25179
1.40001
1.76749
1.19518
1.61351
1.40001
1.17887
1.40001
1.1845
1.41291
1.40079
1.63792
1.40736
1.22628
1.63062
1.47297
1.28803
1.61471
1.70731
1.73451
1.42541
1.63369
1.62795
1.23733
1.4746
1.5357
1.29219
1.40001
1.57484
1.40001
1.69903
1.3667
1.54198
1.64358
1.22286
1.3873
1.42242
1.40001
1.44506
1.52345
1.37046
1.38269
1.32602
1.70997
1.43013
1.40312
1.40001
1.44749
1.63924
1.40001
1.40001
1.40001
1.56036
1.40532
1.49879
1.44986
1.41375
1.40001
1.6597
1.69615
1.46497
1.51618
1.43176
1.40001
1.70406
1.2349
1.65453
1.65889
1.43376
1.46366
1.40009
1.40001
1.32292
1.51353
1.35695
1.68474
1.63743
1.36417
1.3667
1.36358
1.75274
1.66237
1.36818
1.24968
1.40001
1.4568
1.52489
1.50597
1.40001
1.52872
1.40001
1.61471
1.52001
1.3154
1.63234
1.62434
1.53002
1.33418
1.45043
1.47994
1.59731
1.40001
1.52984
1.35656
1.3069
1.47959
1.53027
1.40001
1.64024
1.52258
1.61125
1.35641
1.35719
1.40001
1.65132
1.47668
1.73056
1.40001
1.58411
1.28901
1.57329
1.61637
1.32853
1.62726
1.59882
1.45173
1.5998
1.63491
1.408
1.53162
1.56214
1.40001
1.42766
1.48594
1.61409
1.58721
1.57222
1.26596
1.67016
1.53904
1.65484
1.42601
1.4497
1.54075
1.40001
1.52974
1.60139
1.48387
1.57543
1.40001
1.53672
1.36628
1.40001
1.73761
1.58962
1.56451
1.49427
1.40001
1.67224
1.35419
1.40001
1.57858
1.54774
1.55349
1.40001
1.40001
1.49132
1.56673
1.40001
1.54566
1.40001
1.54202
1.53818
1.28945
1.40001
1.55566
1.40001
1.53152
1.25196
1.40005
1.45594
1.55552
1.54538
1.52061
1.40001
1.40001
1.40001
1.50605
1.55289
1.34919
1.53352
1.47888
1.51036
1.5518
1.25662
1.41325
1.58185
1.4
1.40001
1.437
1.43343
1.41381
1.40001
1.50363
1.58493
1.40001
1.52405
1.43514
1.29283
1.43699
1.56338
1.43055
1.49321
1.54956
1.52471
1.34603
1.51281
1.56091
1.55696
1.2844
1.42503
1.51753
1.40001
1.7289
1.561
1.36314
1.48242
1.64915
1.18343
1.53279
1.35914
1.33395
1.40001
1.49483
1.56117
1.57867
1.51442
1.56169
1.40001
1.18211
1.46685
1.489
1.57139
1.48514
1.40001
1.40001
1.55862
1.45554
1.57524
1.40001
1.22174
1.40001
1.40001
1.20659
1.5694
1.40001
1.46999
1.62424
1.50392
1.40001
1.32614
1.49626
1.56912
1.44066
1.40001
1.45694
1.19418
1.35592
1.18397
1.61118
1.34362
1.52982
1.40001
1.57881
1.59852
1.20898
1.40001
1.40001
1.42648
1.21493
1.44369
1.61929
1.52656
1.56651
1.57662
1.40001
1.42902
1.59485
1.40001
1.19091
1.42899
1.41396
1.29777
1.19127
1.40001
1.35574
1.40001
1.57693
1.42633
1.40001
1.40001
1.42055
1.47784
1.50598
1.46541
1.1887
1.40001
1.40001
1.33231
1.19519
1.54269
1.4796
1.67152
1.26939
1.57478
1.19173
1.5893
1.40001
1.54037
1.40001
1.58734
1.40001
1.40001
1.18362
1.40001
1.58569
1.39678
1.40001
1.09632
1.55285
1.41529
1.26239
1.53158
1.42732
1.40001
1.25191
1.56041
1.40001
1.58353
1.40001
1.39925
1.46264
1.55015
1.34883
1.53344
1.40001
1.24585
1.42462
1.79572
1.61115
1.21488
1.40001
1.34313
1.21269
1.60123
1.34581
1.40001
1.40001
1.36462
1.43332
1.40001
1.12793
1.4151
1.55943
1.44136
1.59327
1.19122
1.59959
1.37805
1.41984
1.46601
1.39743
1.39828
1.34913
1.55706
1.46217
1.32688
1.34395
1.43958
1.40001
1.59108
1.41607
1.40001
1.40001
1.29964
1.40001
1.60911
1.47892
1.52834
1.40001
1.56905
1.60831
1.47885
1.32414
1.25206
1.40001
1.60112
1.47558
1.69801
1.16151
1.56668
1.48042
1.49222
1.32093
1.48563
1.2473
1.18268
1.18279
1.34908
1.18971
1.59895
1.58572
1.40001
1.4065
1.40001
1.27724
1.27546
1.65393
1.63944
1.40001
1.54472
1.21726
1.36059
1.22913
1.57783
1.51061
1.19397
1.40001
1.52137
1.36781
1.61863
1.53719
1.57614
1.50788
1.40001
1.40001
1.40001
1.51591
1.47972
1.57513
1.275
1.54243
1.25171
1.63856
1.40848
1.6424
1.48301
1.65764
1.57494
1.51286
1.35547
1.40001
1.40001
1.18111
1.40001
1.46875
1.40958
1.28393
1.48004
1.44947
1.37784
1.53047
1.40001
1.53307
1.40001
1.40001
1.31834
1.5881
1.4568
1.62215
1.32952
1.46661
1.34173
1.72119
1.335
1.28025
1.14716
1.40001
1.36022
1.58552
1.4326
1.44433
1.49191
1.44218
1.18822
1.44179
1.40001
1.52543
1.48791
1.29027
1.40001
1.49533
1.33132
1.4106
1.36053
1.40001
1.13485
1.18646
1.4638
1.4
1.36361
1.40001
1.40001
1.43646
1.40001
1.40001
1.48868
1.54776
1.26433
1.32672
1.289
1.49275
1.46572
1.59773
1.40001
1.40001
1.26727
1.30807
1.44545
1.41922
1.50399
1.40001
1.4735
1.18709
1.44298
1.34888
1.30397
1.18229
1.40001
1.54217
1.49093
1.47999
1.59508
1.39453
1.40001
1.40001
1.70063
1.46577
1.5987
1.47255
1.50494
1.5003
1.41822
1.39451
1.40001
1.46919
1.45013
1.59557
1.40001
1.44064
1.32751
1.2413
1.40001
1.39031
1.50649
1.17619
1.35502
1.24589
1.50203
1.58101
1.40001
1.5439
1.46713
1.44324
1.52377
1.42714
1.23735
1.18423
1.46745
1.497
1.52625
1.30918
1.49531
1.40001
1.51843
1.40001
1.25293
1.40001
1.62403
1.50637
1.18537
1.40001
1.42945
1.60703
1.34697
1.40001
1.57775
1.33645
1.40001
1.35008
1.30853
1.49447
1.33674
1.51316
1.34151
1.23944
1.60468
1.46339
1.47716
1.23136
1.32473
1.40001
1.5093
1.35824
1.36828
1.36311
1.36226
1.40001
1.18871
1.52063
1.40102
1.39999
1.4005
1.32092
1.40001
1.53085
1.42826
1.52105
1.49538
1.32127
1.32503
1.3353
1.34964
1.49278
1.40021
1.33877
1.54503
1.52946
1.3835
1.27487
1.40001
1.31864
1.54614
1.40001
1.47265
1.40001
1.30224
1.40971
1.40001
1.51897
1.49092
1.40001
1.54821
1.40001
1.36562
1.40059
1.54173
1.53257
1.40001
1.18701
1.40001
1.55848
1.75085
1.44906
1.40001
1.475
1.5985
1.4941
1.52301
1.40949
1.26939
1.35152
1.40891
1.40001
1.66594
1.3286
1.40001
1.30797
1.53528
1.27382
1.45093
1.63941
1.18118
1.61979
1.3256
1.40001
1.52665
1.60524
1.55439
1.48325
1.37907
1.40001
1.57484
1.4
1.32587
1.40001
1.61774
1.49744
1.29735
1.40016
1.50446
1.53225
1.60192
1.40001
1.57497
1.7455
1.60669
1.45759
1.25024
1.57202
1.3367
1.48206
1.64838
1.40001
1.40001
1.33865
1.39527
1.56175
1.43977
1.59457
1.34396
1.30873
1.57732
1.27114
1.40001
1.3267
1.38637
1.60785
1.40001
1.33497
1.25123
1.17745
1.48539
1.60638
1.40001
1.40001
1.35803
1.2143
1.56391
1.16555
1.54006
1.43081
1.57171
1.17799
1.68528
1.4263
1.61215
1.64897
1.20288
1.42093
1.40001
1.32299
1.72338
1.60265
1.40001
1.31784
1.38946
1.14307
1.57452
1.52528
1.54293
1.45983
1.42667
1.28033
1.47577
1.62958
1.35652
1.51177
1.63921
1.42827
1.52087
1.624
1.52862
1.40001
1.3296
1.61579
1.59261
1.40001
1.33184
1.4705
1.46873
1.63001
1.46701
1.54815
1.18799
1.48192
1.46086
1.40001
1.48396
1.53581
1.40001
1.55639
1.47114
1.32704
1.3627
1.47309
1.40001
1.36306
1.31101
1.49712
1.48482
1.40539
1.51947
1.56484
1.4692
1.4693
1.40001
1.66844
1.30915
1.34142
1.51353
1.40623
1.50036
1.57343
1.71499
1.40001
1.52939
1.58177
1.5109
1.40001
1.63717
1.5183
1.35771
1.61792
1.40001
1.61345
1.52643
1.47438
1.40001
1.57039
1.40589
1.67147
1.53323
1.46801
1.54483
1.1922
1.51423
1.5814
1.40001
1.40001
1.62755
1.59987
1.54616
1.32298
1.52825
1.30676
1.27033
1.42758
1.40223
1.4084
1.28149
1.3534
1.49682
1.52762
1.55352
1.31063
1.29463
1.35798
1.5543
1.40183
1.44147
1.66673
1.56276
1.40001
1.38833
1.46305
1.46578
1.43393
1.58944
1.32433
1.5866
1.40817
1.62404
1.57113
1.49854
1.53178
1.40001
1.44153
1.45347
1.32675
1.17017
1.40461
1.40001
1.26342
1.17999
1.53685
1.17634
1.24611
1.45495
1.63329
1.51816
1.57897
1.31103
1.70955
1.457
1.27971
1.52931
1.24839
1.40001
1.52945
1.59716
1.4173
1.72216
1.44603
1.40001
1.40001
1.31035
1.46965
1.19507
1.40001
1.30107
1.2046
1.53287
1.52866
1.41008
1.32933
1.52464
1.58745
1.53268
1.54192
1.40001
1.32693
1.4465
1.52182
1.67759
1.40001
1.40001
1.42955
1.49539
1.4
1.63498
1.53605
1.40016
1.4582
1.63507
1.40001
1.40001
1.39438
1.27705
1.30498
1.14722
1.37716
1.29868
1.46036
1.59512
1.40001
1.53284
1.55656
1.40001
1.20562
1.37951
1.54605
1.43708
1.40001
1.26255
1.20964
1.37962
1.44388
1.12784
1.44037
1.39739
1.42105
1.47905
1.46351
1.28481
1.27698
1.51132
1.40001
1.42225
1.54861
1.52048
1.60271
1.27896
1.29203
1.28083
1.40215
1.40001
1.46721
1.40001
1.54923
1.59564
1.13002
1.28666
1.28611
1.29093
1.40001
1.38157
1.40001
1.19534
1.26167
1.39654
1.27447
1.34471
1.27956
1.6263
1.4571
1.74757
1.40001
1.44467
1.27317
1.29504
1.27338
1.63382
1.62527
1.40001
1.51765
1.27506
1.67521
1.40001
1.30774
1.40001
1.61107
1.3795
1.45553
1.42742
1.40001
1.13118
1.35821
1.27381
1.51527
1.40001
1.40001
1.40051
1.43978
1.49611
1.42894
1.4353
1.60836
1.58868
1.63115
1.43102
1.48122
1.16812
1.29456
1.58756
1.60902
1.39995
1.40001
1.29688
1.30408
1.41487
1.62732
1.27579
1.4
1.42391