/*--------------------------------*- C++ -*----------------------------------*\
  =========                 |
  \\      /  F ield         | OpenFOAM: The Open Source CFD Toolbox
   \\    /   O peration     | Website:  https://openfoam.org
    \\  /    A nd           | Version:  12
     \\/     M anipulation  |
\*---------------------------------------------------------------------------*/
FoamFile
{
    format      ascii;
    class       volScalarField;
    location    "1.05";
    object      T;
}
// * * * * * * * * * * * * * * * * * * * * * * * * * * * * * * * * * * * * * //

dimensions      [0 0 0 1 0 0 0];

internalField   nonuniform List<scalar> 
22702
(
1
1
0.956729
1
1.01122
1
1.11989
1
1
0.882801
1.12051
1.11976
1
1.1093
0.961423
1
1
1
1.12058
1
1.10773
1
1.12014
0.894633
1.10991
0.880843
1
1.12058
0.897715
0.892041
1
1.11978
1
1
1
1.103
1.1121
1.12022
1
1
0.876731
1
1.0583
1
1.1207
1
1
1
1
0.896129
1
0.89566
1
1.12021
1
1.12077
1
1
1
1
0.885691
1
1
0.898171
1
0.887163
1
1
1
0.882406
1
1.11846
1.07086
1
1.11849
1.12459
0.886791
1.11802
0.895571
1
1.12094
0.893803
1.12129
1.11971
1
1
1
1
0.976749
0.880328
1.12061
1
1
0.885885
1
1.10766
0.885297
1
1
1
1
1.05794
1.12076
0.878281
1
1
1.0274
1
0.896216
1
1.1196
1.12034
1
1
0.880916
0.884208
0.881017
1
1
1
1
1
0.971542
1
1.0971
1.00992
1.11885
1
1.11917
1.12099
1.10874
1.12
1
0.882205
1
0.890603
1
1
1
1
1.12072
1
1
1
1
1.11895
1
1.00776
1
1
1
1
0.893913
1
1.0032
1
0.896901
1
1
1
1.12039
1
1.11915
0.888244
0.88312
1.11866
1.11878
1
1.01859
1.06544
1
1.12136
0.897747
1.10307
1
1
1
1
1.10906
1.10264
1
1.12041
0.898718
1.12119
1
0.901297
1
0.894789
0.881183
0.999947
1
1
1.121
1
1
1.11886
1
1.12173
1.12047
0.894809
1
1
0.895764
1.11856
1
1
1
1.1185
1
0.897452
1
1
1.1184
1.11848
1.12133
1
1.00001
1
1
1
1.10738
1
0.89391
1.12332
1.11877
1.10977
1
1
1
0.892293
1.11852
1.05857
1
1.10796
0.89535
0.898291
1.10811
1.1183
1
1.11808
0.875378
1.0994
1
1
1
1
1.11868
1
1.07279
1.01199
1
1
1.11884
0.890588
0.924889
1
1.11814
0.893787
1.1189
1
1
1
1
1
1
1
0.897377
0.92014
0.896768
1.11868
1
1
1
1
1.10999
1
0.899912
1
0.890631
0.900503
1.11863
0.89191
1.10765
1
1
1
0.999336
0.901326
0.876815
1
1
0.889109
1
1.12082
0.879049
1
1
1.12071
0.889279
1
1.11799
0.885097
1.11882
1
0.893224
0.999337
1
1
1
0.898601
1
1
1
1
1.00382
1.0712
1
0.888016
1
1
1
1
1
1
1
1.12032
1
1.12134
1
1
1
0.892879
1
1.11884
0.896456
1
1.0879
1
1
1.12055
1
1
1
1.11885
1
1
1.11694
1.12054
1
1.02467
1
1
0.890423
1
1
1
0.887636
1
1
1
1
0.8901
1
1
1
1
1
0.880333
1.00002
1.11868
1
0.999998
1.11857
1.11884
1
1
0.899856
0.94372
1.12046
1
1
1
1.11873
0.882291
1
1.11904
1
1
0.908297
0.902046
1
0.899565
0.894649
1
1
1
1
1
1
1
1.11857
1.0274
1.11575
0.883758
0.974713
1.1214
1
1.11874
1.12027
0.89053
0.931981
1
0.896115
1
1.12475
1
1
1
1
1.1186
1
1
1
1
1
1
1
1.04711
1.12076
1
1.11863
1
1
0.894911
1
1
1
1
1.11847
1.09297
1
1
0.901739
1.11867
1.11859
1
1.11853
1.11885
1.11853
1
0.950044
1
1.11853
0.992403
1.11857
1
0.895521
0.999671
1.12029
1
1
1
1
0.897312
1.11853
1.10142
1
1.10968
1.11864
1.12062
1
1.05846
1.10975
1
1
1.08457
1.01878
1.11846
0.977007
1.11856
1
1.11853
1.11865
1.11852
1.11849
1
1.11509
0.971605
0.961409
1
1
1
1
1.12032
1
1
1
1
1
1.11956
1
1
0.998899
1.1186
1.1036
1
1.09872
1.00001
1
1
1.11828
1
0.999193
1.00112
1
1.11859
1
1.1188
1
1
1.09085
1
1.11885
1.00001
1
1.11897
1
1.11851
1
1
1
1.11876
1
1.11901
1
1.11864
1.12053
1.11884
1.11851
1
1.11993
1.11549
1
0.892476
1.11166
1.08259
1
1.11877
1
0.890325
0.886653
1
1
1
1
1
0.884824
1
1.11859
1.0335
1.11831
1
1
1
1
1
1.11867
1
1.11869
1.07447
0.932275
1
1
1.03728
1.03142
1
1
1.04164
1
0.897355
1.11866
1.11862
1
1
1
1.12024
1
1.00001
1.11315
1.11855
0.990559
1
1
0.897786
1.10881
1
1
1
1
1
1.11854
1.12
1
1.1187
1.11891
1.11888
1
1
1
1
0.878694
1.12058
1
1
1.10633
1.11826
1
1.10968
1.12019
1
1
1
1
1
1.11861
1
1
1
1
1.11973
1
1.11582
0.892018
1
0.88601
1
1
1
0.999133
0.893308
0.999721
1
1
1
1.01709
1
1
0.96756
1
1
1
1
1
1
1
0.999999
0.981855
1
1
0.999318
1
0.898845
1
1
1
1
1.09132
1
1
1
1
0.903814
1
1
1.11208
1.12116
1
1
1
0.965622
1
1
1
1
1
1
0.990352
1.00433
1.10739
1
1
1
1.1192
0.966421
1
1
1
1.1206
1.11911
1
1
1
1
1
1
1
1
1
0.893792
1
1
1.11966
0.896623
1
1.11952
1
0.89471
1
1
0.893021
1
1
1
1
1
1
1
1.11609
1.11821
1
1
1
1
1.10726
1
1.0391
0.893644
1
1
1
1
1
1
1
1.01257
1
1
1.06751
1
1
1
1.09422
1
1
1
1
0.893192
1
1
0.892211
0.894419
1
1
1.11861
1
1.01475
1
1
1
1.08503
0.886973
1
0.882415
1
0.931519
1
1
1
1.11926
1
1
1.11853
1
1
1
1.11852
1
1
1.11847
1
1
0.890456
1
1.03849
1
1
1.121
1.12135
1.08202
1.10329
1
0.895348
1
1
1.1137
1
0.886751
1
1
1
1.11852
1
1
1
1
1.07454
1
1.10589
1.11908
0.883188
1
1
0.880142
0.88468
1
1
1
1.08618
1.09263
1
1
1
1
1
1
1
1.05472
1.12058
1.00572
1
1.10698
0.884907
1
1
1
1.0683
1
1.02555
1
1.1091
1.11504
1
0.895451
1
1.12127
1
1
1.1184
1.10865
1
1.12108
1
0.900774
1
1
1
1.11907
1.11602
1.10565
1
1.11953
1.11847
1
1.11867
1
1.11581
1
0.892988
0.992795
0.891365
1
1
1
1
1
1.11873
1
1.11879
1
1
1
1.11178
1
0.89124
1.11852
1
0.907178
0.892336
0.887112
1
1.06102
1.0101
1.11803
1.11846
1
1
1
1
1.11864
1
1
1.11849
1.11845
1
1.03984
0.999978
1
0.999064
1.11968
0.955113
1
0.948123
0.899181
0.897197
0.989051
1.11971
1.11466
1.02715
1.11858
1.11848
1
1
1.11963
1.12073
1.11845
1.12103
1
1.11574
0.888683
1.11768
1.11879
1.11985
1.11933
0.962564
0.975695
0.983022
1.11855
0.986055
1.11881
1
1
1.11732
1.11918
1
0.896552
1.1194
1.11843
1
1.1185
1.1185
1
1.11875
0.905059
1.11904
1.11996
1.12001
1.11724
1
1
1
1.11844
1.08027
0.885238
1.11852
0.892701
1.11846
1
1
1
1
1.11857
1.11863
1
1
1.11865
0.893483
1.11844
0.901022
1
1.1172
1
0.883342
1.11871
0.918437
1
1.11847
1.11916
1.11841
1
1
1.05271
1.11903
0.894964
1.1185
1
1.119
0.966031
1.11827
0.894074
1
1.1193
0.893388
1.11715
0.894954
1
1.11847
1
1.12028
1
1.0673
1.1143
1.09528
0.883864
1
1.11914
1
1.11898
1
1.11873
1
1
1.11845
0.992928
1.11914
0.896721
1.10682
1
1.08118
1
1.11888
1.11869
1.11926
1
1.10388
1.11851
1.10666
1.07637
1.11972
1
1.0815
1
1.11826
1
1.018
1
1.1107
1
1.119
1.11336
1.1126
1
1.11713
0.886113
1
0.892565
1
1
1
1.12057
1
1.11876
1
1
1
1.1188
1.11477
1.09757
1.11847
1.11913
0.884683
1.12024
1.12191
1
1.10318
1.11861
1.11491
1
1.12139
1.1206
1
1.12114
1.11869
1.11896
1.11867
1
1
1
1.11854
0.88012
1
1.11856
1
1
0.886599
1
1
1.11855
1.11829
1
1.11861
1.1177
1.11862
0.995002
1.11858
1
1.11859
1.11859
1.09525
1
1
1
1.11841
1.11838
1.11847
0.983278
1
1.12013
1.11842
1.11855
1
1.1184
1.11839
1.11854
1.12018
1
1.11873
1.11972
1.10481
1.11837
1.11954
1
1.11867
1.11727
1.1185
1.11764
1.11801
0.884784
1.11846
1.11951
1
1.11861
1.11853
1.11831
1.11875
1
1.11831
1.11885
1
1.11845
1.10096
1
1
1
1.11871
1.1164
1
1
1.06658
1
1.10766
1
1
1.11848
1.10762
1.1182
1.11845
1
1
1
1.08662
1
1.11833
1
1
1.11948
1.12035
1
1.11853
0.881901
1.11883
1.11944
0.904872
1
0.8789
1.10533
1.11957
1.1183
1.11846
0.889447
1.1184
1.11883
0.888508
0.892083
1
1.119
1.11845
1
1
1.11829
1
1.12013
1
1.10493
1
1.05409
1.11879
1.11901
1.08693
1.10714
1.12168
1.11874
1.11107
1
0.882554
1.119
1.11899
1.12011
1
1
1
1.12064
1
1.11893
1.11814
0.920193
1
1.11844
0.999982
1
1.00001
1.00001
1.11873
1.11955
0.999564
1
1
1.11876
1.11903
1.11841
1.11982
1.11878
0.887084
1.10316
1
1.11744
1.11821
1.11831
1.11774
1
1.11859
1.11436
1.11885
1
1.11923
1.11846
0.958178
1.11851
1.11889
1
1.11856
0.955184
1.1191
0.952173
1.11858
1
1.11853
1.12167
1.11868
1.11872
1.11851
1.11917
1.11873
1.11905
1
0.977218
1.11912
1.11862
0.958095
1.11852
0.998872
1.07875
1.11905
1.1185
1.11823
1
1.11917
1.07682
1.11873
0.980342
1.11903
1.12135
1
0.965562
1
1.11875
1
1.08023
1
1.11675
0.967137
1
1.11981
1.11548
1
1.11861
1.11803
1.11948
1.11587
1.11689
1
1.12138
1
1
1
0.972396
1.11869
1.1185
1.12065
1.11855
1.11888
1.1202
1.11774
1.1188
0.971981
1.00853
1
1
1.12287
1.11865
1.11844
1.1185
1.00001
1.06613
1
1.121
1.10537
1
1
0.92385
1.11856
1
1
0.899827
1.11849
1
1.12178
1.11843
1.12161
1.11126
1.11847
1
0.881766
1.03066
1.11849
1.11854
1
1.11838
1.11857
1.0626
1.003
1.02869
1
1.12053
1.11858
1
1
0.894696
1
1
1.11863
1.11857
1.11919
1.11852
1.11868
1.119
1.11861
1.11867
1.11869
1
0.998879
1.11876
1.11868
0.999103
1.11855
1.1186
0.889029
0.882558
1.11795
1.11858
1
1
1.00052
1.11846
1.1186
1.11849
1
1.11852
1
0.9524
1.1206
1.11691
1
1.05687
1.11855
1
1.11884
1
1.11876
1.07873
1.1181
1
1.11856
1.12132
0.892941
1.11828
1
1.11852
1.12004
1
0.88928
1.11793
1.10278
0.999385
1.11648
1.11857
1
1.00041
1.1176
0.999522
1.11847
1
1
1.11885
1
1.11802
1.11855
0.999
1.094
1
1.11858
1
1
1
1
1.1185
1
1
1.11802
1
1.11861
1
1.07456
1.12023
1.11826
1
1
1.00087
1
1.11872
1.11853
1.11841
1.11868
1.11851
1.11837
1.11849
1
1.11873
1.1182
1
1.11845
1.11887
1
1.11874
0.977578
1.01654
1.11872
1.11888
1.11837
1
1.11875
1
1.11847
1.11847
1
1.11802
1
1
1
1
1.11855
0.886494
0.999407
1
1.11859
1.11808
1
1.11851
1
1.00153
0.887821
1.11851
0.999875
1
1.11887
0.999539
1.11859
1
0.999933
1
1.119
1.11857
1.11829
1.11919
0.891454
1.11855
1.11843
1.11857
1.03004
1
1
1.05532
1.11868
0.88223
0.890964
1
1.11847
1.11845
1.11799
1
1
1.11903
1.11827
0.999963
1
1.08815
0.885605
1
1.02328
1.12108
1.11419
0.999505
1.11857
1.12058
1
0.999636
1
1.11849
1.1198
1.05024
1
1.11137
1
1.00045
1.11868
0.878776
1.11815
1.11857
0.999138
0.999974
1.10566
1
0.999909
1
1.11967
1
1
0.879121
1.11864
1
1
1
1
1.11816
1.06583
1
1
0.888919
1.11844
1.06603
1
1
1
1.10748
1.1144
1.12085
1
1
1.11994
1
1.1186
1.11864
1
1
1.1152
1.11874
1.11381
1
1
1.11608
1.11886
1
1
1
1.11898
1
1
1
1.11848
1.11992
1.11905
1
1.1186
1.00001
0.90288
1.11815
1.11827
1
1.11913
1.11708
1.11942
1
1
1.11939
1
1.06705
1.11941
1
0.895275
1
1.11454
1
1
1.11945
1
1
1
1.03971
1.11958
0.899936
1
1.115
1
1
1.11852
1
1.11938
1
1
1.11856
1.11854
1
1.00001
1
1
1
1
1
1
1.11939
1.11863
1
1.12157
0.893607
1.11831
1
1.11863
1.12047
1.11846
1.11953
1.12116
1
1
1.11902
1
1.07838
1.11966
1.11843
1
1.11916
1.11869
1
1.10588
1
1.1186
1.07622
1.11839
0.999284
1.11858
1.11068
1.11902
1.11863
1.0104
1.11848
1.11914
1
1.11851
1
1.11905
1
1
1
1
0.998839
1.11854
1.11891
1.09609
1
1.12029
1
1
1
0.87588
1
1.1156
1
1.10364
1.11475
1
1
1
1.11378
1.11957
1
1
1.11835
0.884817
1.01946
1
1.11947
1.1186
1.10399
1.11582
1.11859
1
1.11901
1
1
1
1
1.1187
1.1187
1
1.11859
1.01161
1.11907
1.10556
1
1
1.10608
1
1
0.894163
1.08454
1
1
1.11982
1
1.11932
1.10845
1
1.10857
0.886559
1.11848
1.11873
1.11298
1
0.899376
1
1
1
1.11773
1.09982
1
1.11957
1.11869
1
1.11862
1
1
1
1
1.11865
0.999817
1
1.11472
1
1
1.11965
1.11328
1
1.12058
1.0242
1.00001
1
1.11844
1
1.1184
1
1.00345
1.11853
1
1.11851
1
1
1.03979
1.11945
1
1
1
1
1
0.999061
0.891932
0.881317
1.00589
1
1.00801
1
1.0074
1
1.11856
1
1.07915
1
1.11854
1
1
1
1.11859
1
1.09753
1.11829
1
1.06647
1.11834
1
1
1.12083
1.11868
1
1
1.01173
0.887218
1
1.11873
1
1
1
1
1.022
1.11858
1
1
1
0.892193
1
1.11859
1.11885
1.12104
1
1
1
1
1.06336
1.12165
1
1
1
1.11925
1.11367
1.01185
1
1
1
1.11822
1.1128
1
0.894277
1.11906
1.11536
1.1186
1.11889
1.11793
1
1
1.11951
1.11861
1.11857
0.895677
1.01134
1.11887
1
1
1
1
1
1.11865
0.889593
1
1
1.11848
1.05774
1
1.11953
1
1
1
0.89866
1
1
1.03465
1.11917
1.11886
1
1.11718
1.11971
1
1.02069
1
1.11869
1
1.11857
0.884973
1
1
1
1
1.11859
1.00002
1
1
1
1.11364
1
1
1
1
1.11836
0.895784
1.09515
1.11934
1
1.11843
1
1
1
0.999191
1
1.11917
1
0.936864
1
1
1.00001
1.11896
0.893334
1
1.11954
1
1.11949
1.11543
0.888269
1
1
1.11416
1
1
0.900521
1
1.11705
1
1.10789
0.999808
1.11885
1
1
1
1
1.11983
1
1
1.11376
1
1
1
1
1
1
1
1
1.08111
1
1.04069
1.11882
1
1
1
0.892513
1
1
1
1
1.11863
1.11848
1.01198
1
1
1.11541
1
1
1.11978
1
1
1
1
1
1
1.11887
0.926623
1.1128
1.11489
0.999131
1
1
1
1.07013
1
1
1.11829
1.11874
1
1
1
1
0.884376
1
1
1
1.07882
1
1.11848
1.11909
1
1.11881
1
1
1
1.06472
1
1.12016
1
1.11253
1
1
0.998872
1.11411
1
1
1
1
1
1.11922
1
1
0.89588
1.11832
0.899654
1
1.11809
1
0.998776
1
1.11878
1.11849
1
1.11638
0.961345
1.11465
1.11871
1.00001
1
1
0.89347
1
1
1
1.11847
1.07231
1.1184
1
1
1
1
0.999049
1.11792
1
0.885739
1
1
1
1
1
1
1
1.12052
1.11797
1.12026
1
1
0.999104
1
0.99217
1
1
1
0.887467
0.992225
1
0.897096
0.893805
1
1.1132
1.11847
1
1.11846
1.1185
0.889226
1.08211
1
1
1
0.886216
1.11854
1
0.886452
1
1.12064
1.02094
1
1
1
1
1.11468
1.11994
1
1
1.11368
1
1
1.12006
1.11607
1
1.10926
1.11886
1.12003
0.987344
1.11844
1.00245
0.885779
1.09347
1.11844
1
1
1
0.889515
1
0.891404
1.11954
0.987497
1.11345
0.983704
1
1.11888
1.05388
1
1
1.11874
1
1.05029
1.11827
1
1
1.11844
1.11996
0.894029
1.07214
0.99997
1
1.07508
1
1.12047
0.98113
1.12147
1.11894
1
1
1
1
1.11655
1
1
1.11819
0.999897
1.11884
1.09762
1.11757
0.890569
1
1
1
1
1.11862
1.00001
1.11851
1
1.119
1.11866
1.01633
1.12071
1.04146
1.11857
1
1.07964
0.903421
1.11746
1.11865
1.09587
1.02129
1.11944
1.114
1.11856
1.11887
1
0.97322
1.01936
1
1.11861
1.05776
1.11852
1.00001
1
1
0.908281
1.11866
1.11938
1.09952
1
1.04684
1
1.11988
1.11987
1
1.11829
1.11916
1
1
1
1.11801
1
1.05095
1.11783
1.08468
1
1.11838
1
1
1
1
1
1
1
1
1
1
0.903261
1
1.11374
0.882806
1.06966
0.999583
1.11897
1
1.06457
1
1.07475
1.10634
1
1.00062
1.12115
0.976703
1
1.11785
1.11545
0.981585
1
1.11864
1.11902
1.1188
1
1.11853
1.11838
1.11805
1
1.05887
1
1.00002
1.11852
1
1.11892
1.01861
1.11818
1
1
1.11806
1.1185
0.904498
1
1.11873
1.09153
1.1113
1
1
1.11986
1.11831
0.999498
1
1.10501
0.99911
1.11866
1.00002
1
1
1
1
1.05688
1
1.0946
1.11863
1.09047
1.11847
1
1.00051
1
1
1.12002
1
1.11851
1
1
1
1
1
1
1.01596
1.06458
1
1
0.885495
1
1.11952
0.894598
1.11915
1
1.06359
0.999931
1.11926
1.07429
0.893621
1.06514
1.00001
1.11862
1.11837
1
1.07031
1.11794
1.11817
0.999541
1.11809
1.10616
0.883433
1
1
0.99934
1
1.11618
1
0.894352
1.11887
1
1
1.10397
1
1.11896
1
1.11843
1
0.905221
1
1
1.11911
1.11896
1.1175
1
1.11629
1.11853
1.12061
1
1
1.11721
1
0.920505
1
1
1
1.11859
1
1.11852
1.08093
1.11519
1
1.11326
0.999827
1
1
1
1
1
1
0.912408
1
1
1.1129
1
1.11967
1.1188
1
0.892632
0.892657
1
1.11884
1.02109
0.888465
0.885098
1
1.11868
1
1.11918
0.890204
1.00048
1
1
0.999857
1
1
1
0.999974
1.05038
1.1187
1
1
1.11878
1.0722
1
1.11108
1.11558
1.11753
1.05088
1.118
1
1.11336
1
1.11969
1
1.12033
1.11884
0.999141
1.1189
1.11838
1
1
1
1
1
0.97626
1.12001
1.00001
1.00001
0.873331
0.999993
0.887363
0.876198
1
1.11885
1.11837
1.11859
1
1.1178
1
0.89049
1
1
1.11828
0.941843
1.11943
1
1.11792
1
0.996968
1.11846
1
1
1
1.11894
1
1.1193
0.894039
1
1
1.07309
1
1
1.06568
1
1
1.1186
1
1
1
1
1
1.1195
1.11861
1
1.11904
1.11827
0.894325
1.05393
1.11694
1
1
1.10796
0.999712
1
1
1.11852
1.11814
1.08626
1
1.11766
0.896431
1.10854
0.999934
1
1.11928
1.00001
1.11491
1.09845
1.09235
1
1
1.11869
0.918676
0.883764
1
1.11868
1
1.11854
1
1.07037
1
1
1.11147
1.07972
0.889015
1
0.999457
1
1
1.00765
1.0498
1.11866
1
1.11949
1
1
1
1
1
1
1.01898
0.88517
1
1
1.00937
1
1
1
1
1
1.1184
1
1
1.11831
1.11849
1.0883
1
1
1
0.953724
1.11902
1.08487
1
1
1
1
1.11894
1
1
1
1.11868
1
1
1.08837
1.12363
1.01157
0.925663
1.11918
1.08673
1.11908
1
1.05827
1
1
1
0.872234
1.00071
0.874227
1
0.879146
0.881404
1
0.893018
1
1
1
1.05079
1
1.11737
1.11843
1.00051
1.05984
1.10107
0.884083
0.922483
0.963451
1
1.11582
1.12058
1.11511
1.11846
1.10261
0.958019
1
1.10378
1
1.11679
1
1
0.998979
1.0028
1
1
1
1.11927
1
0.886692
1
1.11881
0.894859
1
1
1.11845
1
1.11284
0.999796
1
1
1.11517
1.10603
1
1.12284
1
1
1.00433
1
1.05521
1
1
0.892131
1
1
1.11621
0.999999
1.11855
1
1.00001
0.890468
1
1
0.877976
1.00031
1
1.12
0.889025
1.1187
0.888924
1.11865
1
1
1
1
1
1
1
1
1
1
1
1.11039
1
1.11473
1.12093
0.884996
1
1
1
1
1
1
1.10913
1
1
0.894904
1
1
1.12048
1
1
1.04852
1.1012
0.893935
0.889299
0.893719
0.921257
1
0.998946
0.873461
1.00011
1.11146
0.999079
1
1
1.11985
1
1
1
0.922523
1
1.04498
1
1
1.05357
1.11843
1
0.873561
1
1
1
0.999084
1
1.11907
1.11849
1
0.884753
1
1.06487
0.885479
1
0.967702
1
0.99889
0.8863
1
1
1
0.998795
0.8843
1
0.8773
0.999551
1.06541
1.1097
0.888988
0.89891
1
0.997216
1
0.999615
1
1.11862
1.11859
1
1.0043
1.11935
1.11883
1
1
1.1185
1
1
1.00001
1
1.11978
1
1
1.00515
1
0.999593
0.896188
1
1
1
1
1
1.11739
1.00947
1.00001
1
1
1
1
1
1.00001
1
0.889504
1.02826
0.999606
1.12099
1.11941
1
1.0044
1.11909
1.1035
1
1
0.878669
1.11848
1
1.12061
1
1.11849
1.08149
0.891449
1
0.886112
1.1126
0.999907
1
0.886597
0.87945
1
1
1.09627
1
1
0.883459
1
1
1
1.03955
1
0.88501
1.11859
1
1
1
1
1.11303
1
1
1.11841
1.10726
1
1
1
1.12037
0.894717
1
1.11863
1.11865
1
1.09702
1
1.00001
1
1
1.11458
1.00517
1
0.891189
1.06572
1
1
0.999368
1
1
1.11901
1
1
1.00001
1
1.11902
1
1
1
1
1
1
1
1.0573
1
1.11901
1
1
1.11895
1
1
1
1.11348
1.11831
1.0123
1
0.999301
1
1
1
1
1.11995
1
1
1.11861
0.887841
1
1
1
1
1
1
1.09718
1
1
1.11943
1.11894
1
1
1
1.11882
1.11894
1
0.999926
1.11804
1
1
1
1.00001
0.886983
1.00875
0.998865
0.998848
1
1
0.872993
1.119
1
0.882903
1
1.11935
1.11419
0.894643
0.999826
1.1187
1.11895
1.11825
1
1
0.97668
1.10895
1.09693
0.881501
1
1
1
1.11674
1.11847
0.890007
0.999235
1
1.11904
0.892419
1
1.11591
0.88468
0.991257
1.00197
1
1.11687
1
1
1
1
1
1
1.00003
1.10438
1
1
1.11846
1
1
1
1.11855
1
0.888616
1
1
1
1.04285
1
1
1
1
1
0.938311
1
0.892973
1
1.11858
1.00002
0.963151
0.96403
1
1.00136
1.06409
1
1
0.890721
1.11856
1.11863
1.11859
1
0.883679
0.891689
1
1.11851
1
1
1
1
1
1.00001
1
0.895408
1.07846
1
1
0.8937
0.996587
1
1
1
1
0.886692
1
0.888747
1
1
1.1208
1
1
0.885154
1
1.11861
1
0.885033
1
0.888727
1
1.00237
1.11849
1.12228
1
1
1.12015
1
1
1.02834
0.999072
1
0.99949
1
1.11931
1
0.88732
1
1.1207
0.999677
1
1
0.936672
1
0.999714
0.88799
1.1181
1.04392
1
1
0.968826
1
1
1
0.930976
1
1
1
1.11853
1
0.891414
1
1
1
1
0.884092
1.11837
1.1072
0.890327
1
1.12023
1
1
1.11725
1.11956
1.10178
0.882476
0.999312
0.999774
1
1.11859
1
1
1
1
1.11803
1.00001
1
1
1.11858
1
1
1.11843
0.887556
1
1
1
0.888475
1
1
1
0.999625
1
1
1
1
1.09413
1
1.12008
1.11917
1.12127
1.11863
1.11845
1.11844
1
1.11804
1
1.11854
1.11306
1
0.999672
0.88448
1.103
0.999968
1
1
1
1
0.997189
1
1.02106
1
1
1
0.957531
1.11841
1.11827
1.11998
1.10605
0.999963
1
1.00603
1.11873
0.999397
1.01258
0.999199
0.888512
1
1.00001
1
1
1
1
1
1.1186
0.887596
1.11846
1.11843
0.998593
0.886352
1
1
1
1.11847
0.886402
1.10587
0.881445
1.11856
1.12029
0.88924
1.11717
1.00692
1
1.11941
0.937569
1
0.999641
0.879972
1
0.890677
1
1.11841
1.11457
0.927428
1
1.11962
0.889221
1
0.896787
1
1.11829
1
1
1.1182
1
0.954806
1
0.999905
0.891848
1.11639
0.999855
1
0.885966
1
1
1
1
1.0687
1
1.11822
1
1
1.12126
1
1
1.11864
1
0.892643
1
0.902046
1
1
1
1
1
1.11385
1.0737
1.11852
1
1.11374
1.11116
0.884348
0.871965
1
1
1.11801
1
0.89107
1
0.994778
1
1
1.11886
1
1.1181
0.884251
1.12013
1
0.881273
1
1
1.12002
1.10911
1
1.00001
1
1.11573
1
1
0.87958
0.999832
0.877173
1
1
1
1.11167
1.11909
1.12034
1
1
0.883423
1
1.11607
1
1
1
1.11702
1.11581
1.11847
0.887356
1.11926
1.1185
0.89907
1.1195
1.00001
0.9011
1.00563
1
1
1.1189
0.887592
1.07408
0.887411
1.11847
0.99923
0.888803
1.1191
1
1
1
1
1.1179
1.11989
0.894381
1
1.00001
0.885706
1.00001
1
0.879964
0.885049
1.07968
1.11708
0.99956
1.1186
1
1.12092
0.950408
0.886668
1.11844
1.12303
1
1.11831
1
1
1.11888
1
1.09252
1.1202
1
1
1
1
1.11862
1.10878
1.11833
1
1
1.11891
1.11962
1.11816
1
1.11859
1
1
1
1
1
0.888396
0.957214
0.876547
1
1
1.11861
1
1
1.11839
0.882451
1
1.11878
1.10883
1.11441
0.877146
1
0.886191
1
1.00001
1.11976
1.0594
1.12012
1.10953
1
0.882068
1
1.11632
1.08677
0.896543
1
1
1
0.935813
1
1
1.1218
1
0.899956
1.11857
1
1
1
1
1
1.09633
1.02857
1
1.119
1
1.11595
1
0.999286
1
1.11838
1.1197
1.11847
1.11959
0.999875
1.12006
1
1.11852
1.11815
1.09622
1
1
0.887763
1.11863
1
1
1.11871
1.11823
1.1177
1
1.11856
1
1
1.00001
1.12003
1.1184
1.03601
1.027
1.11852
1.11882
0.898051
1
1
1
1
1
1.04423
1
1
1.10009
0.875852
0.999989
1
1.11845
0.999965
0.999944
1.0192
1.10943
1.11969
0.975586
1
0.884453
1
0.995949
1.11842
1.11919
1.11632
0.999716
1
1
0.89445
1
1
1.11846
1.01358
1
1
1
1
1
1
1
0.999983
1.11942
1
1
1
1
1
1.08007
1
1.05881
1
1
1.1185
1.11956
0.893274
0.999659
1
1
1
0.897067
1.12
1.1176
1
1
1
1
1
1
1
1
1.11825
1.11836
0.888564
1.0144
0.890349
1
0.896179
1
1.11842
1.04072
1
1
0.911017
1
1.11409
0.934192
0.99911
0.885897
1
1
1.11929
1.00001
0.99921
0.878074
1.12033
1.12045
1
1
1
1
1.10436
1
1
1.11551
0.999694
1.11934
1.00002
1
1
0.89426
1
1
1.11916
0.889058
0.925345
0.890064
1.11921
0.999806
1
1.11588
0.889109
0.890229
1.00703
1
1
1.11972
1.00001
1.05684
1
1
1.11999
0.886207
1
1
1.00004
1.11963
1.00004
1.11349
1
1.00001
1
1
0.914398
1
0.93516
1.00001
1
1.11936
0.892497
1
0.936473
0.940571
1
1
1.1186
1
1
1
1.11947
1.11852
1.00001
1.11476
1.11989
0.938819
1.11856
1.11206
1
1
1.11674
1
1
1
1
1
1.12112
1.1186
1
1
1
1.11891
1.00006
1
0.885522
0.906976
1
1.00001
1.04746
1
1
0.973598
0.889986
1
1
1
1.11959
1.10968
1.11858
1
1
1
1
0.89067
1
1.11577
1
1.11737
0.887917
1.11931
1
1
1
0.886171
1
1.11941
1.00001
1
0.895679
1.04655
1
0.999905
1.1217
0.890909
0.878512
1
1.11991
0.893202
0.884735
1
0.877782
1
1
1
1
0.886878
1
1
1
1
1.11969
1
1.09295
0.886482
1
1
1
0.886802
1.11846
1
1
0.999036
1.11566
1
1.11869
1.11934
1
1
0.911809
0.888448
1
1
0.892234
1.03847
1.05835
1
1
1.12068
0.999245
1
0.999331
1.12034
1
1
1
1
1
1
1.11833
1
1.04393
1.0412
0.908543
1.10725
1
1.11812
1.11864
1
1
1
0.976014
0.89465
1
1.06624
0.999898
1.10489
1
1
1
1
1
1.00205
1.05623
1.11172
1.1189
1
1.11846
1
0.899752
1
0.999301
0.999938
1
0.880639
1
0.887342
1.00001
1.11948
1.11987
0.882099
1.11955
0.88126
0.998853
1.09631
0.891161
1.09117
1
1
0.999551
1
1
1
1.00002
1
0.888103
1
1
1
1
0.999878
1.11838
0.944029
1
1
1
1.01086
1
1
1
1.07346
0.918269
1
1
1
1.0113
1.11903
1
0.888765
1
1.11195
0.972942
0.885181
1
0.893428
1
1
1.11278
0.999488
1.11271
1
1.00241
1
1
1.11845
1
1
1
1
1.02632
1
1.11865
1.10932
1.11937
0.885319
1.11842
0.999174
1.09959
1
1
0.87656
1
1
0.886625
1.11739
1
1
0.999987
1
1
1
0.877805
0.886894
1
1.12068
1
1.06032
1.11855
0.893047
1.10134
1
1
0.882303
1
1
1.1186
1.11795
1.04567
1
1
1.00046
1.1196
0.885708
0.884268
1.1202
1.11847
1.08658
1.05102
1
0.966223
1
1
1
1.10938
1.11781
1.11842
1
1
1.11867
0.87493
1.11318
0.88234
1
0.890608
1
0.886208
1.11876
0.889984
1
0.999616
0.907953
1
1
1
0.952606
1.11134
1.11827
1.11892
1.11828
1
1
1.12044
1
1
1.11863
1
0.885226
1
0.892243
1
1.11979
1
1
1.00912
1.09413
1
0.999712
0.880739
1.11842
1
0.88619
1.02444
1
1
1.08786
1.11852
1.11871
1
1.11845
1.03265
1
1.00683
1.1185
1
1
1
1
1.11848
1
0.876066
1.11864
0.889899
0.886857
0.949312
1.11841
1.04574
1.11619
1
1.12017
0.999324
1.00001
1.11844
1.12046
1
1.11785
1
1.11858
1
1.11998
1
1.00001
0.999995
1.11881
0.891351
0.888461
0.99938
1
1
1
0.892954
1
1.07918
1
0.889709
1
1.0538
1.11867
1.11938
1
1
1.00001
0.999848
1
1.11949
1.1184
1
1.05439
1.11946
0.958939
1.11861
1.00008
0.879638
1.02772
0.88771
1
1
1.022
1.12022
1
1
1.01269
0.999599
1
0.876457
1
0.930871
1
1.11925
1
1
0.886004
1.02858
1.01897
0.99958
1.1188
1.11856
0.929272
0.999448
0.882486
0.884731
0.886562
1
1
1
0.999724
0.905579
0.89794
1
1.11851
0.999928
1.11857
1.11881
1.12021
1.1179
1
0.889133
1.11907
0.896328
1
1.11835
1.11899
0.999066
0.948959
1.1182
1.08648
1
0.885852
1
1
1.12055
1
1.00759
1.119
1
0.877134
0.887709
1
1
0.888468
0.889657
1.11822
1.00001
1
0.871997
0.872234
1.1194
1.11438
1.11099
1.11955
1.03891
0.991054
1.04806
1.11717
1.09756
1
1.06535
1
0.890015
0.953499
1
0.887918
1.11874
1.0064
1.11892
1
1.11855
1.1194
1
1.11922
1.11847
0.888721
1.11935
1
1.12153
1
0.922058
0.894505
1.11844
1
1
1
0.894619
1.11928
1.11187
1
0.895373
1
1
0.888061
1.00001
0.879396
1.12
1
0.946904
0.888418
1
1
1.07396
1
1
1
1.0212
0.893503
1
1
1
1.11849
0.887863
1
1.11854
0.890374
0.887919
1
1
1.11805
1
1.11785
1
1.11856
0.889966
1
1
0.890309
0.942244
0.88912
1
1
1
1
1.11874
0.877812
1
0.890668
1
1.11879
1
1
0.97574
1
1
0.943211
0.999914
1.00001
1
0.888674
0.894712
1
1
1
1
0.941443
1.10926
1.11946
1
0.889375
0.88981
0.970354
0.898678
1
0.952804
1
0.898539
0.99182
1
1
0.889756
1
1.11882
1.11734
0.894336
1
1
1
1.11937
1
1.00891
0.944738
1.04057
0.894335
1.05227
0.884633
1
1
0.911245
0.970463
1
1.01263
1
1
0.885432
1
0.984204
1.01203
0.891925
1
1.10259
0.920669
0.959926
1
1
1
0.88809
1
0.89522
0.890225
1
0.959243
0.894275
1.0207
0.916403
0.887822
1.11843
1
1.11847
1.06676
0.918608
1.11855
0.888978
0.999724
1.11976
1
1
1.11822
1
0.920401
1
1.01879
1
1
1.1185
1
0.932109
0.949735
1.12046
0.981442
1
0.91529
1.11847
1.11998
0.969519
1
1.11846
1.0325
0.959149
1
1.0014
1
0.893251
1.05439
0.934782
0.926735
1
1
0.898984
1.11839
0.991673
0.889673
0.890554
0.958287
1
1.00281
1.11962
1.11914
1
1
1
0.89404
1.05986
0.999996
1.11882
1.11289
0.883825
1
1.02863
0.963519
1.07441
1.10286
1
1.00902
1
1.00001
0.869894
0.960145
1
1
0.948426
0.869712
1.00949
1
1
0.882507
1.05341
1
1.11674
1
1.01094
1.06807
1
1.11847
1
1
1.11834
1
0.881688
1.11938
0.906005
1.03486
1
0.8987
0.999976
1
1.00001
1
0.936326
1.00765
0.887192
1.08912
1.12024
0.877482
1
1
1
1
1
0.9922
0.88337
1.01005
0.886311
0.89346
1.02277
1
0.999946
1.03122
1
1
0.900653
1.00023
1
1
1.03123
1
1.11997
1
1.11916
1.02826
1.00763
0.894647
1
1
0.8887
1
1
1
1
1.11676
1.01222
0.999443
1
0.878575
1.01496
1
1
1.07798
1
0.876139
1.11855
1
1
1
1.11904
0.887953
0.965214
0.871989
1.09075
1.11801
1
1
1.11848
1
0.880371
1
1
1
1
1
0.933662
1
1.11891
1
1
1.04053
1.1196
0.889717
0.963545
1
1.11857
1
1
1
1
1
1.11837
1.11948
0.890303
1.11865
0.879138
1
1
1.11858
1
1.12049
1.00178
1.00782
1.01825
1.11881
1.02022
1.08368
0.889527
1
0.884396
0.994242
1
1.1185
1
1
0.884389
1.11803
1
1.1196
1
1
1
1
1
1
0.890147
1.1198
0.957313
1.11871
1
0.885647
0.883837
0.914783
1.11772
1.11797
0.987112
1
0.940126
1
1.05078
1
1.11846
0.879196
0.888175
0.959167
1
1.11881
1
1.01698
0.898432
1
1.12097
1.1033
0.999693
1
1.11888
0.893743
1.11781
1.11887
1.11952
0.887402
1.02785
1
1
0.890009
1
0.946226
0.95277
1
1.00001
1.11874
1
1.11927
1.02267
1
1.00891
1.12051
1
0.890151
1
0.927772
1
1
1.09345
1
0.944655
1
0.890636
1.01081
0.984819
0.876659
1.11835
1.09724
1.11893
0.888117
0.912125
0.998879
1
1
0.901891
1.11249
0.888905
0.999992
1
1.11857
1.11904
0.966077
1
0.893301
0.908722
1.07906
0.994076
0.879302
1
0.884296
1.03426
0.891869
1
1.00002
0.943868
1.11951
1.11899
0.948329
0.999888
1
1
0.900038
1
0.890877
1
0.891915
0.893515
1
1
1.00001
0.890923
1.1185
1
1
1.00002
1.00001
0.891152
1.11835
1.11855
1
0.886268
1.11917
1
1.02867
1
1
1.11944
0.8855
1
1
0.885957
0.921581
0.888948
0.896353
1
0.900853
0.999169
1.02808
0.879178
1
1
1.03787
1
1.10568
1
1
1.08574
0.905542
1
0.884429
1.03176
1.11899
1
1
0.89691
0.882509
0.88601
0.91088
0.883166
1.08572
0.999826
1
1
1
1
1.11924
0.888331
1
0.979991
0.999902
0.999695
0.999983
0.927822
1.03099
1
1.11858
1.11856
1
1
1.11446
1.00001
1
1.11854
0.896298
1.1189
1
0.881229
1.11916
1.00001
1
0.950279
1
0.89235
1
1.11895
1
1
1.11945
1
1
1.119
1
1
1
1.11984
1
0.924552
0.917781
1
0.881007
1.11804
1
1
0.993778
1
1.12047
1.0716
1.09147
1
1
0.890102
1
0.893312
1.11331
1.11971
1.11873
1
1.11985
0.895726
1
0.893095
1.09752
1.10544
1.11836
1.11824
0.917146
0.880693
1
1.0791
1.11925
1.11943
1.11859
0.927191
1.04259
1
1.09448
0.922052
1
1
1
1.00001
0.967287
1
1.11767
1
1
1
1
1
1
1.00002
1.11763
1
1.11923
1.09054
0.886484
1.12002
1.00477
1.06197
1
1.1187
1
0.891283
1
1
1
1
1.10311
1
0.889996
1.11894
0.885653
1.11786
1.09679
1.0635
1
1.02489
1.05915
0.998709
0.887507
0.92624
1.00001
1
0.970025
1
0.884135
1.1194
0.884104
0.978884
0.954847
1
1
1
1.00425
1
1
0.889557
0.999012
1.11984
1
1.11865
1
0.885552
1
1
1.11842
1.11799
0.887711
1
1.11949
1
0.939889
0.895067
1.1188
1.10767
1
1.02161
1.11846
0.999622
1
1.05323
1.10563
1.11864
0.99871
1
0.999999
1.10266
1
1
1
1.11857
0.999583
1
1
1.11888
1
1
0.89697
1
1
1
1.11901
1
1
0.952371
1.03808
1.10935
0.935561
1
1.11775
1
1.04386
1
1.11935
0.999234
1.11849
1
0.890973
1
1.08347
1
1
1.1116
1
1.1183
1
1.11918
0.908041
0.886451
1.11977
1
1.10425
1
1.11872
1
1
1.00001
1.11842
1.1194
1.03406
1.11869
0.998595
0.886091
1.11858
0.96109
1
1.11825
1
1.11844
1
1.11885
1.11929
0.998923
0.893876
1
1.11868
1
1.00476
1
1
0.999416
0.920854
1.10715
1
1.10826
1
0.962381
0.883438
1.11797
1.11876
0.903794
1
1.11955
1.12072
1.12005
0.900644
1.1185
0.897312
1.11864
1.12018
1
1
1.11822
1
1
1
1
0.887326
1
1
1.11877
1.11873
1
1.11834
1
1.12123
1.119
1
1.10196
1
0.884255
1.11869
1.08555
1.0342
0.887721
1.11858
1
1
0.882097
1
1
1.11844
1
1
0.934055
1
1.11906
1.00002
1.11505
0.889846
1.11974
1
1.11805
1.11453
0.963074
1
1.11814
0.92541
1.11802
1.08533
1.11827
1.11809
0.999169
1.11943
1.11889
1.11846
1.11916
1.00027
1
0.884485
1
1.11964
0.944877
1.10953
1
1.11662
1
1
1
1
1
1.1181
0.885227
0.890213
1.11943
1.11847
1
1
1
1
1
1.1176
1.10911
1.11853
1.01116
1
1
1
1.00001
1.11831
1.11853
1
1.12031
1.11964
0.898883
1.07989
1
1.11882
1.1191
1.10703
0.999395
1.11882
1.11874
1
1.10845
1
1
1
1
1
1
1.11908
1.12029
1.11136
1.11857
0.890699
0.907772
1.11857
1.11851
1
0.887151
0.981042
1
1.06014
0.881551
1
0.999839
0.999493
0.887007
1
1.119
1
1
1
1.11993
0.981259
1
1.11873
1.11839
1
1.11842
1
1
1.11858
1
0.88566
1
1.11797
1
1
0.897956
1
1.11852
1
0.884061
0.870773
1
1.11525
1
0.883851
0.968924
1
1.11849
1
1
1
1.11919
1
0.884204
1.01881
1.11887
1.10964
1.11849
1.01036
1.11909
1.11844
1
1
1
1
1
1.11868
1
0.999794
1.11782
1
0.881444
1
1.11862
1.05879
1.01894
1.05785
1.01314
1.11566
0.904301
1.11864
1
0.886112
0.999183
1.11868
0.983969
1.11861
1.1187
1.11146
1
1.11918
1.11868
1.11858
1
1.00001
1
1
1.11897
1.08544
1
1
0.885424
0.999001
1
1.11883
1
1.1185
1.11879
1.11891
0.97456
1.1185
1.11873
1.00323
1.06131
1.11954
1.11928
1
1.10418
0.949561
1.11816
0.99274
1.1193
1
1.11852
1.11916
1
0.897465
0.980766
0.898251
1
1.02191
0.999029
1.11744
1
1
0.998966
1
1.05936
1.11397
1
1
1.11875
1
1
1.08774
1.11313
1.11431
1.11892
1.11841
1
1.11878
0.913921
1.11931
1
1.00105
0.885234
1
1
0.910552
1
1.03754
1
1.1191
1
1.11655
1.07824
0.888548
1
1
1
1
1
1.11865
1.0033
1
1.12139
1
1.1184
1.11856
1
1
0.988908
0.999952
0.881903
0.889889
0.906495
1.02594
1
0.999544
0.890417
1.00001
1
1.11855
0.97683
1.11143
1.10522
1
1
1
1
1
1.11899
1.11865
1
1.1196
1
1.1196
1.07914
0.998977
1
1
1
1.07144
1
0.984198
1
1.11888
1
1
1.11851
1
1
1
1
1
1.1187
0.880682
0.998841
1.10716
1.11849
1
1.11859
1
1
1
1
0.904879
1
1.11901
1.11202
1.11863
1.12012
0.986508
1
1.10129
1.03149
1.11976
1.11793
1.02567
1.11853
1
1
1
1.10763
1
1.11848
1.0038