/*--------------------------------*- C++ -*----------------------------------*\
  =========                 |
  \\      /  F ield         | OpenFOAM: The Open Source CFD Toolbox
   \\    /   O peration     | Website:  https://openfoam.org
    \\  /    A nd           | Version:  12
     \\/     M anipulation  |
\*---------------------------------------------------------------------------*/
FoamFile
{
    format      ascii;
    class       volVectorField;
    location    "23.1";
    object      U;
}
// * * * * * * * * * * * * * * * * * * * * * * * * * * * * * * * * * * * * * //

dimensions      [0 1 -1 0 0 0 0];

internalField   nonuniform List<vector> 
9801
(
(1.15965 -0.0472525 0)
(1.13873 -0.0486174 0)
(1.12671 -0.0520778 0)
(1.12225 -0.0527124 0)
(1.12379 -0.0523951 0)
(1.13912 -0.050456 0)
(1.15637 -0.0452945 0)
(1.15967 -0.0404454 0)
(1.15675 -0.0387737 0)
(1.15039 -0.0359225 0)
(1.13909 -0.032217 0)
(1.12357 -0.0302088 0)
(1.11066 -0.0304185 0)
(1.10402 -0.0305245 0)
(1.1002 -0.0308784 0)
(1.1107 -0.0302035 0)
(1.1324 -0.0256808 0)
(1.1443 -0.0195029 0)
(1.14382 -0.0173061 0)
(1.14056 -0.0180874 0)
(1.12993 -0.0191247 0)
(1.11348 -0.0201776 0)
(1.10026 -0.0210535 0)
(1.09267 -0.0196321 0)
(1.08775 -0.0162365 0)
(1.08303 -0.0133824 0)
(1.0887 -0.0122885 0)
(1.10495 -0.0104905 0)
(1.11616 -0.00615542 0)
(1.11711 -0.00159742 0)
(1.11394 -0.000670632 0)
(1.10368 -0.0010895 0)
(1.08634 -0.00347699 0)
(1.07478 -0.00638589 0)
(1.06929 -0.00748537 0)
(1.06515 -0.0068426 0)
(1.06042 -0.00418541 0)
(1.05842 0.000130226 0)
(1.07222 0.00410006 0)
(1.08384 0.00740525 0)
(1.08534 0.0093685 0)
(1.08214 0.0107398 0)
(1.0764 0.0118637 0)
(1.06176 0.0120053 0)
(1.04668 0.0102154 0)
(1.04 0.00961609 0)
(1.03617 0.0102145 0)
(1.03247 0.0114555 0)
(1.02921 0.0139903 0)
(1.03426 0.0175251 0)
(1.04733 0.0201688 0)
(1.05125 0.0217517 0)
(1.04894 0.0230787 0)
(1.04401 0.0240778 0)
(1.0359 0.0249316 0)
(1.01838 0.0249189 0)
(1.00365 0.0266342 0)
(0.996287 0.0284519 0)
(0.990973 0.0298245 0)
(0.986154 0.0306084 0)
(0.984042 0.0321161 0)
(0.995497 0.0344468 0)
(1.00674 0.0362327 0)
(1.00684 0.0363767 0)
(1.0029 0.0365024 0)
(0.997249 0.0365624 0)
(0.984388 0.0398189 0)
(0.959301 0.0423116 0)
(0.941212 0.0431731 0)
(0.931822 0.0452226 0)
(0.925491 0.0467725 0)
(0.919894 0.0477932 0)
(0.924462 0.047981 0)
(0.94129 0.0468727 0)
(0.946713 0.0489694 0)
(0.943079 0.0510323 0)
(0.936363 0.0530099 0)
(0.927095 0.0546902 0)
(0.904726 0.0566377 0)
(0.871795 0.0574481 0)
(0.851373 0.0570146 0)
(0.840442 0.0557395 0)
(0.832172 0.0543908 0)
(0.83695 0.053455 0)
(0.854859 0.055249 0)
(0.858161 0.0588605 0)
(0.851238 0.0631075 0)
(0.841204 0.066013 0)
(0.827846 0.067739 0)
(0.798156 0.0684711 0)
(0.750673 0.0658686 0)
(0.710263 0.0601049 0)
(0.684911 0.0529571 0)
(0.669323 0.0487527 0)
(0.677328 0.0378743 0)
(0.678601 0.0159755 0)
(0.655288 0.00299234 0)
(0.0533639 -0.0931937 0)
(-1.21577 -0.068828 0)
(1.2237 -0.0991709 0)
(1.22579 -0.0938608 0)
(1.22889 -0.100542 0)
(1.22746 -0.117654 0)
(1.22022 -0.131721 0)
(1.2126 -0.131616 0)
(1.20227 -0.122174 0)
(1.19593 -0.10745 0)
(1.19004 -0.0940394 0)
(1.18286 -0.0812239 0)
(1.17756 -0.07344 0)
(1.1758 -0.0696825 0)
(1.17799 -0.0695612 0)
(1.18697 -0.0798988 0)
(1.19349 -0.0959176 0)
(1.1915 -0.102685 0)
(1.18455 -0.0972097 0)
(1.17827 -0.0846724 0)
(1.17221 -0.0751203 0)
(1.16267 -0.0633014 0)
(1.1501 -0.0515656 0)
(1.1415 -0.0474078 0)
(1.13681 -0.0462642 0)
(1.13583 -0.0458001 0)
(1.13898 -0.0511066 0)
(1.15035 -0.0657624 0)
(1.15445 -0.0736741 0)
(1.15202 -0.0698895 0)
(1.14738 -0.0588361 0)
(1.14122 -0.049259 0)
(1.13321 -0.0401374 0)
(1.11839 -0.026327 0)
(1.10662 -0.0195144 0)
(1.09951 -0.0191307 0)
(1.09618 -0.0199436 0)
(1.0937 -0.0208706 0)
(1.09579 -0.0266479 0)
(1.10709 -0.0376991 0)
(1.11269 -0.0415684 0)
(1.11077 -0.0352408 0)
(1.10566 -0.0268396 0)
(1.09925 -0.0203085 0)
(1.08968 -0.0115793 0)
(1.07368 -0.00039129 0)
(1.06194 0.00397372 0)
(1.05465 0.00363433 0)
(1.04959 0.0028237 0)
(1.04546 0.00231212 0)
(1.04431 0.000639718 0)
(1.05569 -0.00401122 0)
(1.06446 -0.00489115 0)
(1.06315 -0.00101128 0)
(1.0581 0.00270219 0)
(1.05221 0.0054238 0)
(1.04185 0.0103222 0)
(1.02243 0.0182938 0)
(1.00768 0.0213806 0)
(1.00007 0.0220455 0)
(0.994633 0.0226389 0)
(0.989677 0.0227762 0)
(0.98771 0.0229072 0)
(0.999052 0.023298 0)
(1.00843 0.0248529 0)
(1.00749 0.0280751 0)
(1.00286 0.0298549 0)
(0.99711 0.0311725 0)
(0.984861 0.0325983 0)
(0.961482 0.0353086 0)
(0.943651 0.0378852 0)
(0.934109 0.0389443 0)
(0.927532 0.0391064 0)
(0.921738 0.038863 0)
(0.925696 0.0399755 0)
(0.940072 0.0432085 0)
(0.944866 0.0463406 0)
(0.941522 0.0493137 0)
(0.935143 0.0505959 0)
(0.926745 0.0510332 0)
(0.904946 0.051056 0)
(0.872424 0.0506109 0)
(0.852142 0.0491474 0)
(0.8404 0.0479352 0)
(0.831649 0.046886 0)
(0.830582 0.048008 0)
(0.844751 0.0580107 0)
(0.852416 0.067261 0)
(0.848324 0.0698485 0)
(0.838548 0.0696384 0)
(0.825959 0.0686091 0)
(0.798728 0.0646023 0)
(0.753464 0.055903 0)
(0.710812 0.0460856 0)
(0.677627 0.0397774 0)
(0.656521 0.0387582 0)
(0.648591 0.0405729 0)
(0.647209 0.0267361 0)
(0.635218 0.0172494 0)
(0.041518 -0.0970409 0)
(-1.2362 -0.100477 0)
(1.22609 -0.087257 0)
(1.22705 -0.0786791 0)
(1.22965 -0.0856537 0)
(1.22747 -0.0938513 0)
(1.22255 -0.107941 0)
(1.21402 -0.124517 0)
(1.20494 -0.130886 0)
(1.19429 -0.123909 0)
(1.18689 -0.103898 0)
(1.18325 -0.0808799 0)
(1.17936 -0.0640042 0)
(1.17663 -0.0564252 0)
(1.18281 -0.0578728 0)
(1.19228 -0.0637787 0)
(1.19258 -0.0714709 0)
(1.18997 -0.0835166 0)
(1.18558 -0.0949306 0)
(1.17932 -0.0971024 0)
(1.16687 -0.0868724 0)
(1.15623 -0.0674428 0)
(1.14886 -0.0505787 0)
(1.14219 -0.0389037 0)
(1.13725 -0.0364863 0)
(1.135 -0.0387031 0)
(1.14349 -0.0443059 0)
(1.15087 -0.0504015 0)
(1.14968 -0.0569939 0)
(1.14761 -0.0643699 0)
(1.1447 -0.0644938 0)
(1.13954 -0.0584618 0)
(1.12769 -0.0412032 0)
(1.11726 -0.0268092 0)
(1.10863 -0.0169343 0)
(1.10145 -0.0144885 0)
(1.09604 -0.0157602 0)
(1.09266 -0.0193914 0)
(1.09788 -0.0242463 0)
(1.10577 -0.0280861 0)
(1.10702 -0.0315619 0)
(1.10571 -0.0326662 0)
(1.10271 -0.0296008 0)
(1.0969 -0.0215255 0)
(1.08453 -0.0089487 0)
(1.07403 -0.000397868 0)
(1.06433 0.00376739 0)
(1.05586 0.00421558 0)
(1.04974 0.00304397 0)
(1.04456 0.00130707 0)
(1.04428 -0.00156927 0)
(1.05399 -0.00335658 0)
(1.05972 -0.00264502 0)
(1.05834 -0.000134182 0)
(1.05443 0.00358668 0)
(1.04858 0.00862783 0)
(1.03633 0.014844 0)
(1.02078 0.0202699 0)
(1.00882 0.0219999 0)
(1.00124 0.0215385 0)
(0.995218 0.0209549 0)
(0.989236 0.020581 0)
(0.986894 0.0204874 0)
(0.997203 0.0205972 0)
(1.00481 0.0238412 0)
(1.00375 0.0283325 0)
(0.999587 0.0322427 0)
(0.993798 0.0353229 0)
(0.980769 0.0379804 0)
(0.95898 0.0383351 0)
(0.94269 0.0375973 0)
(0.933095 0.0370417 0)
(0.925882 0.0369146 0)
(0.919244 0.0367045 0)
(0.92058 0.0384388 0)
(0.933785 0.0447519 0)
(0.939196 0.0490482 0)
(0.935682 0.0509982 0)
(0.929425 0.0518159 0)
(0.921455 0.0533123 0)
(0.902133 0.0537358 0)
(0.871636 0.0503997 0)
(0.849063 0.0468941 0)
(0.835433 0.0457967 0)
(0.825919 0.0452964 0)
(0.819414 0.0450805 0)
(0.82858 0.0502864 0)
(0.84143 0.0562476 0)
(0.840065 0.0577068 0)
(0.830857 0.0585181 0)
(0.818899 0.0596208 0)
(0.794271 0.0594694 0)
(0.752818 0.0512506 0)
(0.711513 0.0370167 0)
(0.67741 0.0235201 0)
(0.652311 0.0162539 0)
(0.636203 0.00402995 0)
(0.629488 -0.0245494 0)
(0.630493 -0.033706 0)
(0.0393496 -0.109334 0)
(-1.24693 -0.0889586 0)
(1.22003 -0.0981497 0)
(1.2366 -0.0848695 0)
(1.23783 -0.0911826 0)
(1.2332 -0.0954919 0)
(1.22807 -0.0994568 0)
(1.21753 -0.107866 0)
(1.19201 -0.115346 0)
(1.17088 -0.108915 0)
(1.1652 -0.0997869 0)
(1.1638 -0.0902711 0)
(1.1666 -0.0772109 0)
(1.17596 -0.0667156 0)
(1.1929 -0.0648534 0)
(1.20191 -0.0689871 0)
(1.19896 -0.0722607 0)
(1.19407 -0.0754636 0)
(1.1868 -0.0806312 0)
(1.16588 -0.0823447 0)
(1.14553 -0.0740112 0)
(1.13811 -0.0666998 0)
(1.13458 -0.0607452 0)
(1.13407 -0.0526715 0)
(1.13549 -0.0464197 0)
(1.13894 -0.0452186 0)
(1.14787 -0.0479794 0)
(1.15425 -0.0506525 0)
(1.15224 -0.0518088 0)
(1.14838 -0.0521649 0)
(1.13967 -0.050491 0)
(1.1243 -0.0434072 0)
(1.11259 -0.0374002 0)
(1.10684 -0.0345169 0)
(1.10234 -0.030786 0)
(1.10047 -0.026463 0)
(1.09706 -0.0254087 0)
(1.09439 -0.026174 0)
(1.0982 -0.0278363 0)
(1.1031 -0.0272506 0)
(1.102 -0.0244287 0)
(1.09968 -0.0200364 0)
(1.09538 -0.0142458 0)
(1.0877 -0.00932492 0)
(1.07654 -0.00729526 0)
(1.06791 -0.0070502 0)
(1.06135 -0.00641615 0)
(1.05555 -0.00585218 0)
(1.04999 -0.00602972 0)
(1.04472 -0.00606247 0)
(1.04327 -0.00559217 0)
(1.04868 -0.00272684 0)
(1.05132 0.00344068 0)
(1.05021 0.0104765 0)
(1.04753 0.0161948 0)
(1.04375 0.0194554 0)
(1.03395 0.0203147 0)
(1.01796 0.0160205 0)
(1.00669 0.0143229 0)
(0.999266 0.0143703 0)
(0.992651 0.0141212 0)
(0.986372 0.014267 0)
(0.983385 0.0156829 0)
(0.989773 0.0204697 0)
(0.995418 0.0278095 0)
(0.995201 0.0333197 0)
(0.992095 0.0374695 0)
(0.987324 0.0401291 0)
(0.977614 0.0414985 0)
(0.956759 0.0369609 0)
(0.937996 0.0318982 0)
(0.927132 0.0307189 0)
(0.919528 0.0308753 0)
(0.912624 0.0311344 0)
(0.910178 0.0330008 0)
(0.920371 0.0406028 0)
(0.927054 0.0484287 0)
(0.924876 0.0533222 0)
(0.919461 0.0568129 0)
(0.912881 0.058517 0)
(0.899552 0.0575692 0)
(0.871395 0.0480403 0)
(0.844929 0.0389473 0)
(0.827999 0.0364183 0)
(0.817371 0.0367794 0)
(0.808475 0.0366884 0)
(0.807336 0.04035 0)
(0.817986 0.0532907 0)
(0.82068 0.0638307 0)
(0.814298 0.067696 0)
(0.804415 0.0677794 0)
(0.786671 0.0649798 0)
(0.751864 0.051242 0)
(0.710365 0.0309684 0)
(0.675378 0.0138117 0)
(0.64557 0.00283567 0)
(0.623837 -0.00905056 0)
(0.61417 -0.0388329 0)
(0.623967 -0.0521493 0)
(0.0424764 -0.109793 0)
(-1.26033 -0.0875325 0)
(1.20557 -0.10842 0)
(1.23738 -0.099478 0)
(1.23942 -0.101606 0)
(1.234 -0.10272 0)
(1.22842 -0.102629 0)
(1.21588 -0.0988467 0)
(1.18383 -0.0888161 0)
(1.1604 -0.085069 0)
(1.15412 -0.0860086 0)
(1.1514 -0.0862792 0)
(1.15097 -0.0859894 0)
(1.16518 -0.0827247 0)
(1.19217 -0.0798075 0)
(1.20191 -0.0796335 0)
(1.19874 -0.0780298 0)
(1.19371 -0.0754088 0)
(1.18166 -0.0673564 0)
(1.15742 -0.0573669 0)
(1.139 -0.0563351 0)
(1.13169 -0.0585773 0)
(1.12709 -0.0605541 0)
(1.12335 -0.0618519 0)
(1.12509 -0.0613177 0)
(1.13529 -0.0576208 0)
(1.14565 -0.0554549 0)
(1.14768 -0.0517704 0)
(1.14558 -0.0463728 0)
(1.14086 -0.0377003 0)
(1.13226 -0.0294885 0)
(1.12073 -0.0273438 0)
(1.1096 -0.0305469 0)
(1.10104 -0.0345251 0)
(1.09553 -0.037343 0)
(1.09114 -0.0389013 0)
(1.08944 -0.036803 0)
(1.08947 -0.0332132 0)
(1.09065 -0.0270861 0)
(1.09283 -0.0171186 0)
(1.09291 -0.00885357 0)
(1.09097 -0.00303866 0)
(1.08863 -0.000968316 0)
(1.08507 -0.00182247 0)
(1.07638 -0.00618502 0)
(1.06433 -0.0122644 0)
(1.05638 -0.0157569 0)
(1.04976 -0.015765 0)
(1.04326 -0.0131226 0)
(1.0373 -0.00797153 0)
(1.03377 -0.000828022 0)
(1.03709 0.00975815 0)
(1.04172 0.0182739 0)
(1.0428 0.021625 0)
(1.04168 0.0217641 0)
(1.03837 0.0206125 0)
(1.03295 0.0188759 0)
(1.01898 0.0129084 0)
(1.00379 0.00747241 0)
(0.993354 0.00686916 0)
(0.984302 0.00942222 0)
(0.976744 0.013737 0)
(0.971721 0.0183826 0)
(0.97481 0.0282517 0)
(0.983683 0.0388663 0)
(0.986832 0.0428113 0)
(0.984832 0.0431365 0)
(0.980146 0.0426108 0)
(0.973879 0.0416071 0)
(0.958129 0.0361307 0)
(0.934929 0.0277972 0)
(0.919402 0.024225 0)
(0.909407 0.025613 0)
(0.901648 0.0285215 0)
(0.895961 0.0313929 0)
(0.900776 0.0402848 0)
(0.911767 0.0520807 0)
(0.9134 0.0569615 0)
(0.909037 0.057156 0)
(0.902904 0.0561465 0)
(0.89476 0.054384 0)
(0.873204 0.046953 0)
(0.841233 0.0355897 0)
(0.819231 0.0284453 0)
(0.805905 0.0278791 0)
(0.796445 0.0293675 0)
(0.789568 0.0317595 0)
(0.794695 0.0406972 0)
(0.80251 0.052573 0)
(0.800111 0.0582283 0)
(0.791202 0.0589381 0)
(0.779109 0.0574689 0)
(0.754275 0.0482819 0)
(0.717216 0.0288664 0)
(0.680272 0.00580926 0)
(0.648838 -0.0126843 0)
(0.626312 -0.0252672 0)
(0.61815 -0.0542842 0)
(0.632331 -0.0709487 0)
(0.0439743 -0.104703 0)
(-1.27092 -0.0863093 0)
(1.19848 -0.115338 0)
(1.22775 -0.119272 0)
(1.23137 -0.112125 0)
(1.22695 -0.107211 0)
(1.21967 -0.0979485 0)
(1.20113 -0.0819577 0)
(1.1777 -0.0712066 0)
(1.16249 -0.0713279 0)
(1.15512 -0.0762472 0)
(1.15134 -0.0814759 0)
(1.15066 -0.0890551 0)
(1.16099 -0.0979181 0)
(1.18029 -0.0970038 0)
(1.18837 -0.0854058 0)
(1.18745 -0.0740881 0)
(1.18179 -0.0603103 0)
(1.17033 -0.0464059 0)
(1.15719 -0.0407039 0)
(1.14402 -0.0452815 0)
(1.13489 -0.0535342 0)
(1.12948 -0.0606061 0)
(1.12565 -0.0677145 0)
(1.12276 -0.0729416 0)
(1.12324 -0.0722498 0)
(1.12945 -0.0586296 0)
(1.13299 -0.0402088 0)
(1.13308 -0.0252777 0)
(1.13101 -0.0175649 0)
(1.1274 -0.0167789 0)
(1.12263 -0.0203094 0)
(1.11337 -0.0287359 0)
(1.10327 -0.0375677 0)
(1.09517 -0.0441651 0)
(1.08847 -0.0475985 0)
(1.08286 -0.0470838 0)
(1.07648 -0.0387578 0)
(1.07362 -0.0245737 0)
(1.07676 -0.00768613 0)
(1.08167 0.00402279 0)
(1.08412 0.0066951 0)
(1.08417 0.00336727 0)
(1.08108 -0.0013408 0)
(1.07605 -0.00628893 0)
(1.06529 -0.0148047 0)
(1.05247 -0.0209836 0)
(1.0412 -0.0210647 0)
(1.03082 -0.0144085 0)
(1.02374 -0.00564349 0)
(1.01962 0.00185922 0)
(1.02081 0.0117873 0)
(1.02947 0.0225107 0)
(1.03564 0.0257425 0)
(1.03614 0.0233309 0)
(1.03318 0.0201977 0)
(1.02863 0.0177274 0)
(1.01974 0.0132724 0)
(1.00053 0.00605971 0)
(0.98293 0.00486498 0)
(0.971275 0.0104545 0)
(0.964015 0.0166048 0)
(0.95886 0.0207561 0)
(0.958689 0.02577 0)
(0.970314 0.0344708 0)
(0.978164 0.0399115 0)
(0.977588 0.0406261 0)
(0.973315 0.039722 0)
(0.96782 0.0389765 0)
(0.958436 0.0367274 0)
(0.935064 0.028858 0)
(0.911768 0.0233113 0)
(0.898124 0.0244223 0)
(0.889706 0.0279626 0)
(0.883446 0.0311007 0)
(0.882496 0.0362627 0)
(0.894925 0.0472185 0)
(0.90304 0.055269 0)
(0.901134 0.0571018 0)
(0.895367 0.0563792 0)
(0.888356 0.0553791 0)
(0.874127 0.0511482 0)
(0.84398 0.0388934 0)
(0.815691 0.0279531 0)
(0.797575 0.0215627 0)
(0.786568 0.0207149 0)
(0.778072 0.0214724 0)
(0.776003 0.0262923 0)
(0.784097 0.0383125 0)
(0.786965 0.0484083 0)
(0.780684 0.0522951 0)
(0.770263 0.0523708 0)
(0.754844 0.04919 0)
(0.728909 0.0335722 0)
(0.695591 0.00989311 0)
(0.662447 -0.0136197 0)
(0.636682 -0.0326243 0)
(0.623239 -0.0571361 0)
(0.639291 -0.0825916 0)
(0.0455584 -0.100914 0)
(-1.27654 -0.0862163 0)
(1.19677 -0.1248 0)
(1.20808 -0.130548 0)
(1.2129 -0.115168 0)
(1.21069 -0.0974485 0)
(1.20247 -0.0760508 0)
(1.19127 -0.0612705 0)
(1.17965 -0.0587337 0)
(1.16881 -0.0651007 0)
(1.16177 -0.0749154 0)
(1.15752 -0.0875231 0)
(1.15567 -0.0993208 0)
(1.15607 -0.105364 0)
(1.1596 -0.102263 0)
(1.16412 -0.0863497 0)
(1.16577 -0.0635266 0)
(1.16378 -0.0425994 0)
(1.15968 -0.0347588 0)
(1.15481 -0.036407 0)
(1.14953 -0.0433735 0)
(1.1425 -0.054807 0)
(1.13473 -0.0666413 0)
(1.12845 -0.0736589 0)
(1.12136 -0.0745027 0)
(1.1124 -0.0681046 0)
(1.10808 -0.0574172 0)
(1.1098 -0.041361 0)
(1.11566 -0.023973 0)
(1.11989 -0.0147848 0)
(1.12239 -0.016116 0)
(1.12065 -0.0218378 0)
(1.11597 -0.0268673 0)
(1.10805 -0.0347678 0)
(1.09739 -0.0429386 0)
(1.08482 -0.0458424 0)
(1.07059 -0.0392017 0)
(1.06239 -0.0292891 0)
(1.05847 -0.0220716 0)
(1.05887 -0.0124566 0)
(1.06887 -0.000450124 0)
(1.07896 0.0042453 0)
(1.08158 0.00043864 0)
(1.07888 -0.00339166 0)
(1.07406 -0.00587939 0)
(1.06592 -0.00979474 0)
(1.04892 -0.0154918 0)
(1.02962 -0.0143657 0)
(1.01788 -0.00779993 0)
(1.01214 -0.00267439 0)
(1.00802 0.000738633 0)
(1.00633 0.00441556 0)
(1.01747 0.0117764 0)
(1.03128 0.017614 0)
(1.03271 0.0178862 0)
(1.02835 0.0169371 0)
(1.0233 0.0163533 0)
(1.01659 0.0156068 0)
(0.997348 0.0135057 0)
(0.973129 0.0119835 0)
(0.960318 0.0129952 0)
(0.953872 0.0154351 0)
(0.948698 0.0183822 0)
(0.947025 0.0223939 0)
(0.957027 0.0282796 0)
(0.969694 0.0340658 0)
(0.971474 0.0365334 0)
(0.967268 0.0371779 0)
(0.961842 0.0373033 0)
(0.955021 0.0378228 0)
(0.936248 0.0359757 0)
(0.90804 0.0296121 0)
(0.890152 0.0256864 0)
(0.881423 0.0253444 0)
(0.874907 0.0265024 0)
(0.87051 0.0292795 0)
(0.878281 0.0372467 0)
(0.892186 0.0486706 0)
(0.894831 0.0541248 0)
(0.889898 0.054853 0)
(0.883135 0.0546073 0)
(0.873298 0.0539317 0)
(0.850592 0.0465794 0)
(0.819251 0.0321718 0)
(0.796182 0.0226155 0)
(0.781284 0.0163472 0)
(0.772388 0.0141615 0)
(0.766151 0.0141659 0)
(0.769253 0.01926 0)
(0.776255 0.0286004 0)
(0.775519 0.034564 0)
(0.768175 0.0371161 0)
(0.757462 0.0379721 0)
(0.738724 0.0340407 0)
(0.714419 0.0170366 0)
(0.686759 -0.00790746 0)
(0.655744 -0.029815 0)
(0.630751 -0.0521182 0)
(0.647795 -0.100352 0)
(0.0441725 -0.0985111 0)
(-1.28188 -0.0857897 0)
(1.19928 -0.1229 0)
(1.19566 -0.123651 0)
(1.19136 -0.112571 0)
(1.18549 -0.0919313 0)
(1.18151 -0.0765717 0)
(1.17849 -0.0668418 0)
(1.17612 -0.0626755 0)
(1.17427 -0.065561 0)
(1.17115 -0.0742736 0)
(1.16632 -0.0828084 0)
(1.16088 -0.0895449 0)
(1.15419 -0.0928176 0)
(1.14696 -0.0871497 0)
(1.14257 -0.0760958 0)
(1.14192 -0.0643925 0)
(1.14518 -0.0528826 0)
(1.15225 -0.0467852 0)
(1.15601 -0.0461308 0)
(1.15288 -0.049186 0)
(1.14775 -0.0531166 0)
(1.14068 -0.05887 0)
(1.12857 -0.0637608 0)
(1.11209 -0.0609072 0)
(1.1009 -0.0518014 0)
(1.09619 -0.0457026 0)
(1.09362 -0.0409802 0)
(1.0984 -0.0338522 0)
(1.11533 -0.0278877 0)
(1.12472 -0.0272582 0)
(1.1216 -0.0282555 0)
(1.11628 -0.0295219 0)
(1.11032 -0.0317938 0)
(1.09761 -0.0346623 0)
(1.0751 -0.0326343 0)
(1.05892 -0.0265984 0)
(1.05295 -0.0236765 0)
(1.04954 -0.0216735 0)
(1.04799 -0.0185222 0)
(1.0592 -0.0136497 0)
(1.07801 -0.0100131 0)
(1.08112 -0.00865396 0)
(1.07628 -0.00829226 0)
(1.07098 -0.00771071 0)
(1.06352 -0.00610466 0)
(1.04403 -0.00337242 0)
(1.02087 -0.00148559 0)
(1.01025 -0.000955474 0)
(1.00565 -0.000175996 0)
(1.00155 0.000818105 0)
(0.999281 0.00231323 0)
(1.00813 0.00268483 0)
(1.02455 0.00652165 0)
(1.02772 0.011101 0)
(1.02319 0.0137391 0)
(1.01768 0.016362 0)
(1.00945 0.0209868 0)
(0.993331 0.0247843 0)
(0.97088 0.0222762 0)
(0.956185 0.0185264 0)
(0.948887 0.0163156 0)
(0.94387 0.0153949 0)
(0.940489 0.0145709 0)
(0.946703 0.0169936 0)
(0.960629 0.0257952 0)
(0.964575 0.0330372 0)
(0.960845 0.0366932 0)
(0.95531 0.039691 0)
(0.948329 0.0432005 0)
(0.934969 0.0446249 0)
(0.909965 0.0387179 0)
(0.889544 0.0307142 0)
(0.877952 0.0247972 0)
(0.870893 0.0214448 0)
(0.864981 0.019654 0)
(0.865381 0.0218976 0)
(0.877974 0.0340269 0)
(0.886028 0.0466931 0)
(0.883623 0.0531767 0)
(0.87742 0.0567114 0)
(0.870063 0.058581 0)
(0.856046 0.0566897 0)
(0.828456 0.0440613 0)
(0.801068 0.0279902 0)
(0.783308 0.0175693 0)
(0.771513 0.0100622 0)
(0.76326 0.00451592 0)
(0.758717 0.00326659 0)
(0.762445 0.0104948 0)
(0.764904 0.0207391 0)
(0.76115 0.0265461 0)
(0.753566 0.028738 0)
(0.743207 0.0286092 0)
(0.726778 0.0185169 0)
(0.708501 -0.00133384 0)
(0.684828 -0.0238238 0)
(0.652674 -0.0443273 0)
(0.65249 -0.110274 0)
(0.0374777 -0.0981401 0)
(-1.2878 -0.0858702 0)
(1.20148 -0.106684 0)
(1.18859 -0.101763 0)
(1.1766 -0.0905428 0)
(1.1727 -0.0844578 0)
(1.17072 -0.0790076 0)
(1.17002 -0.0748831 0)
(1.1754 -0.0742877 0)
(1.17894 -0.0782396 0)
(1.17438 -0.0801675 0)
(1.16843 -0.0814191 0)
(1.16083 -0.0806985 0)
(1.14648 -0.0739001 0)
(1.13525 -0.0662619 0)
(1.13174 -0.0623512 0)
(1.13126 -0.0587412 0)
(1.13806 -0.0555066 0)
(1.15057 -0.056016 0)
(1.15626 -0.0585984 0)
(1.15296 -0.059577 0)
(1.14724 -0.059696 0)
(1.14 -0.0590763 0)
(1.12153 -0.0532485 0)
(1.1011 -0.04423 0)
(1.09212 -0.0400967 0)
(1.08868 -0.0382695 0)
(1.08668 -0.036353 0)
(1.09449 -0.03559 0)
(1.11383 -0.0389689 0)
(1.12114 -0.0398861 0)
(1.11859 -0.0373665 0)
(1.11351 -0.0355911 0)
(1.1075 -0.033601 0)
(1.08943 -0.0261847 0)
(1.06642 -0.0162026 0)
(1.05578 -0.0132319 0)
(1.05124 -0.0138756 0)
(1.04765 -0.0148214 0)
(1.0457 -0.0169845 0)
(1.05622 -0.0218712 0)
(1.0712 -0.0222818 0)
(1.07506 -0.017301 0)
(1.07127 -0.0126497 0)
(1.06578 -0.00737715 0)
(1.05619 0.000919029 0)
(1.03897 0.00876512 0)
(1.01983 0.00854413 0)
(1.00857 0.00529706 0)
(1.00305 0.00297135 0)
(0.998755 0.000546229 0)
(0.997518 -0.00373909 0)
(1.0051 -0.00422923 0)
(1.01644 -0.000350943 0)
(1.01908 0.0072455 0)
(1.01577 0.0152168 0)
(1.00991 0.0238129 0)
(1.0027 0.0301192 0)
(0.992527 0.0320098 0)
(0.974097 0.0273964 0)
(0.957851 0.0204273 0)
(0.949373 0.0150091 0)
(0.943222 0.00942373 0)
(0.937573 0.00673346 0)
(0.93667 0.00833515 0)
(0.947415 0.0188426 0)
(0.954402 0.0315114 0)
(0.952671 0.0393197 0)
(0.947654 0.0447904 0)
(0.94218 0.0477745 0)
(0.935213 0.0483974 0)
(0.918713 0.0423059 0)
(0.89631 0.0286639 0)
(0.881199 0.0195665 0)
(0.871895 0.0149066 0)
(0.864336 0.0122193 0)
(0.857988 0.012169 0)
(0.859036 0.0205952 0)
(0.869922 0.039421 0)
(0.873919 0.0526145 0)
(0.870535 0.0581537 0)
(0.864232 0.0605268 0)
(0.856538 0.0608501 0)
(0.840773 0.0551145 0)
(0.815659 0.036099 0)
(0.793115 0.016048 0)
(0.775966 0.0035051 0)
(0.763153 -0.00276349 0)
(0.754911 -0.0048977 0)
(0.750072 -0.00265977 0)
(0.752377 0.00662377 0)
(0.753177 0.0145327 0)
(0.749486 0.0173643 0)
(0.743462 0.0170408 0)
(0.735033 0.0126636 0)
(0.722807 -0.00222551 0)
(0.708078 -0.0206884 0)
(0.683561 -0.0414567 0)
(0.664496 -0.0995007 0)
(0.0284095 -0.102028 0)
(-1.2922 -0.0838572 0)
(1.19156 -0.0967518 0)
(1.17662 -0.0792331 0)
(1.17238 -0.0732751 0)
(1.17024 -0.0728685 0)
(1.16932 -0.0753018 0)
(1.17362 -0.0823569 0)
(1.17884 -0.0900297 0)
(1.17668 -0.0920483 0)
(1.17086 -0.0906707 0)
(1.16317 -0.0847957 0)
(1.1485 -0.0706888 0)
(1.13692 -0.056813 0)
(1.13189 -0.0494183 0)
(1.13005 -0.0474397 0)
(1.13175 -0.0500664 0)
(1.14407 -0.0591724 0)
(1.15252 -0.0663735 0)
(1.15216 -0.0676787 0)
(1.14778 -0.0664186 0)
(1.14261 -0.0648645 0)
(1.12845 -0.054997 0)
(1.10839 -0.0386156 0)
(1.09704 -0.0307161 0)
(1.09106 -0.0303883 0)
(1.08715 -0.0311106 0)
(1.08568 -0.0328998 0)
(1.09935 -0.0408188 0)
(1.11273 -0.0472294 0)
(1.11468 -0.0453778 0)
(1.112 -0.0419017 0)
(1.10758 -0.0378526 0)
(1.0966 -0.0277382 0)
(1.07693 -0.0138324 0)
(1.06137 -0.00850403 0)
(1.05316 -0.0093153 0)
(1.04838 -0.0109035 0)
(1.0447 -0.0138718 0)
(1.04659 -0.0207231 0)
(1.05557 -0.0254866 0)
(1.06423 -0.0229754 0)
(1.06524 -0.0167697 0)
(1.06244 -0.00918347 0)
(1.05633 0.00119799 0)
(1.04807 0.0091521 0)
(1.03703 0.0118127 0)
(1.02228 0.00992231 0)
(1.01144 0.00515981 0)
(1.005 -0.00100068 0)
(1.00015 -0.00802598 0)
(0.995267 -0.0100481 0)
(0.996342 -0.00784112 0)
(1.00304 0.00213422 0)
(1.00618 0.0136722 0)
(1.0049 0.0221316 0)
(1.00144 0.0286665 0)
(0.998111 0.0317017 0)
(0.99347 0.0316041 0)
(0.982955 0.0262588 0)
(0.965985 0.014647 0)
(0.953161 0.00638857 0)
(0.943402 0.00361195 0)
(0.934631 0.00466894 0)
(0.928692 0.00694499 0)
(0.928416 0.015975 0)
(0.938953 0.0347933 0)
(0.944533 0.0475585 0)
(0.943509 0.0515228 0)
(0.940073 0.0510059 0)
(0.935434 0.048631 0)
(0.927995 0.0440685 0)
(0.909246 0.0301712 0)
(0.88782 0.0152488 0)
(0.872479 0.0087444 0)
(0.860643 0.00870628 0)
(0.85145 0.0110857 0)
(0.845739 0.0135336 0)
(0.848843 0.0253868 0)
(0.859325 0.0454068 0)
(0.862455 0.0572622 0)
(0.859311 0.0603306 0)
(0.854324 0.0582144 0)
(0.846928 0.0554744 0)
(0.832525 0.0465654 0)
(0.807981 0.0272912 0)
(0.78449 0.00865667 0)
(0.766414 -0.00244237 0)
(0.753101 -0.00761219 0)
(0.745055 -0.00874479 0)
(0.741415 -0.00689398 0)
(0.744515 0.000545901 0)
(0.745736 0.00547739 0)
(0.743163 0.00548848 0)
(0.738776 0.00178526 0)
(0.731967 -0.00874263 0)
(0.722317 -0.0223869 0)
(0.70761 -0.0392117 0)
(0.682803 -0.0829593 0)
(0.0216209 -0.106715 0)
(-1.29584 -0.0802964 0)
(1.18234 -0.0727326 0)
(1.17923 -0.0587046 0)
(1.17578 -0.0617251 0)
(1.17503 -0.0693947 0)
(1.17751 -0.0830907 0)
(1.17801 -0.0959569 0)
(1.17464 -0.100956 0)
(1.17032 -0.0995895 0)
(1.16042 -0.0916567 0)
(1.14437 -0.0720288 0)
(1.13414 -0.0540757 0)
(1.12846 -0.0449608 0)
(1.12445 -0.0412795 0)
(1.12754 -0.0412485 0)
(1.14227 -0.051858 0)
(1.15236 -0.0652239 0)
(1.15374 -0.0705352 0)
(1.15057 -0.0707094 0)
(1.14591 -0.0696611 0)
(1.13132 -0.0616778 0)
(1.10893 -0.0454194 0)
(1.09625 -0.0364599 0)
(1.09067 -0.0338244 0)
(1.08641 -0.0317948 0)
(1.08395 -0.0308016 0)
(1.09073 -0.0345458 0)
(1.10475 -0.0418552 0)
(1.11047 -0.0426202 0)
(1.10956 -0.0406844 0)
(1.10656 -0.0369829 0)
(1.09843 -0.027504 0)
(1.08455 -0.0168636 0)
(1.07019 -0.0122664 0)
(1.05948 -0.011327 0)
(1.05356 -0.0124269 0)
(1.04875 -0.0169201 0)
(1.04632 -0.0241942 0)
(1.04599 -0.027863 0)
(1.05029 -0.0251042 0)
(1.05402 -0.0179917 0)
(1.05319 -0.00938536 0)
(1.04972 0.00102476 0)
(1.0461 0.0090109 0)
(1.04343 0.0125205 0)
(1.03896 0.0118811 0)
(1.02911 0.00537989 0)
(1.01795 -0.00399923 0)
(1.00953 -0.0109402 0)
(1.00081 -0.0130306 0)
(0.99157 -0.0109388 0)
(0.985323 -0.00598833 0)
(0.985008 0.00637129 0)
(0.992995 0.0240546 0)
(0.997902 0.0332333 0)
(0.998478 0.0343368 0)
(0.997782 0.0315159 0)
(0.995072 0.0274974 0)
(0.989715 0.0243977 0)
(0.976465 0.0151902 0)
(0.957733 0.00459709 0)
(0.942207 0.00218667 0)
(0.929304 0.00651484 0)
(0.920731 0.0127562 0)
(0.915976 0.0170315 0)
(0.920163 0.0270519 0)
(0.933353 0.0419418 0)
(0.939293 0.0485195 0)
(0.939264 0.0475161 0)
(0.935538 0.044825 0)
(0.93009 0.0428893 0)
(0.919577 0.0373174 0)
(0.896717 0.0232504 0)
(0.873826 0.0127732 0)
(0.85753 0.0100532 0)
(0.846504 0.0105966 0)
(0.839736 0.0112366 0)
(0.835018 0.012947 0)
(0.84084 0.0236988 0)
(0.854103 0.0409173 0)
(0.85951 0.0481221 0)
(0.855702 0.0495946 0)
(0.848462 0.0493478 0)
(0.838553 0.0476007 0)
(0.821912 0.0406545 0)
(0.796507 0.0242268 0)
(0.771594 0.00736232 0)
(0.754178 -0.00318795 0)
(0.743047 -0.0108053 0)
(0.736681 -0.0141713 0)
(0.735386 -0.0137159 0)
(0.741025 -0.00897 0)
(0.744123 -0.00691975 0)
(0.742475 -0.00875228 0)
(0.738522 -0.0155628 0)
(0.732048 -0.0259113 0)
(0.72367 -0.0369632 0)
(0.700467 -0.0665487 0)
(0.0187455 -0.110372 0)
(-1.29922 -0.0770853 0)
(1.16617 -0.0758174 0)
(1.17073 -0.0561817 0)
(1.18226 -0.0586724 0)
(1.18813 -0.0728787 0)
(1.18782 -0.0858985 0)
(1.18473 -0.093423 0)
(1.17855 -0.0982716 0)
(1.16247 -0.097732 0)
(1.13976 -0.0838696 0)
(1.12554 -0.069944 0)
(1.11989 -0.0635785 0)
(1.1169 -0.0575182 0)
(1.11791 -0.0506102 0)
(1.13337 -0.0473213 0)
(1.15321 -0.0517556 0)
(1.15671 -0.0565562 0)
(1.15319 -0.0590855 0)
(1.14909 -0.0617836 0)
(1.13899 -0.0600387 0)
(1.11673 -0.0484194 0)
(1.09889 -0.0408234 0)
(1.09062 -0.0372785 0)
(1.08584 -0.0359304 0)
(1.08217 -0.0362078 0)
(1.08414 -0.0404125 0)
(1.09312 -0.0457574 0)
(1.10259 -0.0439653 0)
(1.10473 -0.0392405 0)
(1.10255 -0.0336948 0)
(1.09598 -0.0222772 0)
(1.08828 -0.0122594 0)
(1.08077 -0.00840618 0)
(1.07155 -0.00981358 0)
(1.0643 -0.0156098 0)
(1.05901 -0.0233143 0)
(1.05503 -0.0307311 0)
(1.04864 -0.0328499 0)
(1.04203 -0.0311791 0)
(1.03795 -0.0235126 0)
(1.03951 -0.00573811 0)
(1.04307 0.00971918 0)
(1.04397 0.0159207 0)
(1.04351 0.0166901 0)
(1.04378 0.0133625 0)
(1.042 0.00809162 0)
(1.03721 0.0022061 0)
(1.02628 -0.00855478 0)
(1.01182 -0.0163536 0)
(0.996996 -0.0147209 0)
(0.98372 -0.0064846 0)
(0.975859 0.00216122 0)
(0.972059 0.00838692 0)
(0.978056 0.0197091 0)
(0.990748 0.0304044 0)
(0.997537 0.0317542 0)
(0.998255 0.0274817 0)
(0.995202 0.0235493 0)
(0.990477 0.0212606 0)
(0.981436 0.0176431 0)
(0.960098 0.0104817 0)
(0.937148 0.00744464 0)
(0.922674 0.00906584 0)
(0.914857 0.0113843 0)
(0.90956 0.013141 0)
(0.907092 0.0162025 0)
(0.919849 0.0270068 0)
(0.936423 0.0385042 0)
(0.939421 0.0427928 0)
(0.935117 0.0436599 0)
(0.929614 0.043528 0)
(0.922652 0.0440983 0)
(0.905154 0.0407991 0)
(0.876862 0.0283624 0)
(0.857018 0.0193909 0)
(0.845574 0.0140564 0)
(0.837285 0.0102453 0)
(0.831274 0.00778072 0)
(0.828184 0.00632117 0)
(0.837423 0.0155908 0)
(0.849171 0.0330725 0)
(0.850343 0.0423292 0)
(0.845115 0.0449845 0)
(0.837963 0.0454886 0)
(0.82702 0.0438985 0)
(0.809669 0.037455 0)
(0.785456 0.0218746 0)
(0.763168 0.00298977 0)
(0.747221 -0.0102932 0)
(0.736553 -0.0194282 0)
(0.73091 -0.0252384 0)
(0.732677 -0.02557 0)
(0.73965 -0.018809 0)
(0.742036 -0.0154008 0)
(0.741363 -0.0188926 0)
(0.738823 -0.0284341 0)
(0.735361 -0.0368503 0)
(0.718081 -0.0559582 0)
(0.0199279 -0.114356 0)
(-1.30247 -0.0748089 0)
(1.14811 -0.0888664 0)
(1.16429 -0.0730973 0)
(1.19161 -0.0659974 0)
(1.19811 -0.0718308 0)
(1.19407 -0.0759618 0)
(1.18903 -0.0802155 0)
(1.17852 -0.0838572 0)
(1.15107 -0.0791198 0)
(1.12617 -0.0704293 0)
(1.11723 -0.0650295 0)
(1.11324 -0.0615277 0)
(1.10975 -0.0593729 0)
(1.11161 -0.0587039 0)
(1.13308 -0.0626938 0)
(1.15285 -0.0626585 0)
(1.15542 -0.0592361 0)
(1.15202 -0.0563064 0)
(1.14592 -0.0506287 0)
(1.12952 -0.0396489 0)
(1.11076 -0.0327861 0)
(1.09792 -0.0321174 0)
(1.09241 -0.0350203 0)
(1.08898 -0.0407087 0)
(1.08859 -0.0504385 0)
(1.08731 -0.0572881 0)
(1.08732 -0.0568034 0)
(1.09076 -0.0474315 0)
(1.09205 -0.0308032 0)
(1.08999 -0.0142296 0)
(1.08631 -0.00476167 0)
(1.08425 -0.00296512 0)
(1.08208 -0.00526028 0)
(1.07869 -0.0132211 0)
(1.07269 -0.0259983 0)
(1.0648 -0.0367316 0)
(1.05712 -0.0405552 0)
(1.04609 -0.0377015 0)
(1.0327 -0.0276096 0)
(1.02487 -0.0164952 0)
(1.02282 -0.00621727 0)
(1.02978 0.00879834 0)
(1.03829 0.0173052 0)
(1.0446 0.0151525 0)
(1.04642 0.00794902 0)
(1.04396 0.00183693 0)
(1.03953 -0.0016892 0)
(1.03091 -0.00610916 0)
(1.00984 -0.0110334 0)
(0.987464 -0.00884771 0)
(0.974944 -0.00323272 0)
(0.968771 0.000725739 0)
(0.964457 0.00400979 0)
(0.965877 0.00965624 0)
(0.984126 0.0204697 0)
(0.998684 0.0259027 0)
(0.999046 0.0254879 0)
(0.994242 0.0245358 0)
(0.989294 0.0248303 0)
(0.981386 0.0264906 0)
(0.961071 0.0263057 0)
(0.935457 0.0202097 0)
(0.920647 0.0152609 0)
(0.912553 0.0122723 0)
(0.907304 0.0105466 0)
(0.903449 0.0078209 0)
(0.907551 0.00731485 0)
(0.926198 0.0206402 0)
(0.934716 0.0332876 0)
(0.931683 0.0389255 0)
(0.925131 0.044273 0)
(0.917712 0.0494033 0)
(0.909029 0.0518862 0)
(0.890842 0.0444498 0)
(0.866528 0.0265695 0)
(0.850363 0.0138969 0)
(0.840459 0.00656164 0)
(0.833853 0.000909642 0)
(0.827656 -0.00222212 0)
(0.822857 -0.00142811 0)
(0.82934 0.0117603 0)
(0.838138 0.0308771 0)
(0.838369 0.041606 0)
(0.833434 0.0457752 0)
(0.826448 0.0465802 0)
(0.815873 0.0434146 0)
(0.800768 0.0336001 0)
(0.780551 0.0139717 0)
(0.760063 -0.00820833 0)
(0.743412 -0.0241207 0)
(0.732397 -0.0334759 0)
(0.727622 -0.0368914 0)
(0.730357 -0.0335801 0)
(0.737705 -0.0244207 0)