/*--------------------------------*- C++ -*----------------------------------*\
  =========                 |
  \\      /  F ield         | OpenFOAM: The Open Source CFD Toolbox
   \\    /   O peration     | Website:  https://openfoam.org
    \\  /    A nd           | Version:  12
     \\/     M anipulation  |
\*---------------------------------------------------------------------------*/
FoamFile
{
    format      ascii;
    class       volScalarField;
    location    "8.08";
    object      p;
}
// * * * * * * * * * * * * * * * * * * * * * * * * * * * * * * * * * * * * * //

dimensions      [1 -1 -2 0 0 0 0];

internalField   nonuniform List<scalar> 
22702
(
1
1
0.865642
1
1.06154
1
1.46842
1
1
0.66405
1.47358
1.46747
1
1.47094
0.876936
1
1
1
1.47387
1
1.47213
1
1.46671
0.658994
1.47104
0.708318
1
1.46825
0.641726
0.664686
1
1.47007
1
1
1
1.43614
1.47085
1.46645
1
1
0.665952
1
1.22516
1
1.46569
1
1
1
1
0.656332
1
0.666209
1
1.47303
1
1.47355
1
1
1
1
0.650271
1
1
0.633238
1
0.65744
1
1
1
0.657762
1
1.47272
1.2841
1
1.47327
1.50642
0.6604
1.47063
0.652349
1
1.46951
0.666173
1.47091
1.46994
1
1
1
1
0.93075
0.65584
1.47281
1
1
0.649317
1
1.47251
0.649651
1
1
1
1
1.22508
1.46985
0.701177
1
1
1.1085
1
0.661917
1
1.47095
1.46985
1
1
0.670835
0.677217
0.657089
1
1
1
1
1
0.910052
1
1.39941
1.04324
1.47283
1
1.47465
1.47164
1.47114
1.47402
1
0.662892
1
0.653672
1
1
1
1
1.46918
1
1
1
1
1.47368
1
1.02674
1
1
1
1
0.656033
1
1.0102
1
0.658322
1
1
1
1.4704
1
1.47356
0.671226
0.664358
1.478
1.47184
1
1.08049
1.26833
1
1.47416
0.651011
1.43666
1
1
1
1
1.47117
1.38823
1
1.47037
0.634799
1.47458
1
0.659005
1
0.666025
0.694803
0.999786
1
1
1.4729
1
1
1.47054
1
1.47176
1.47049
0.661387
1
1
0.663973
1.47159
1
1
1
1.47116
1
0.6475
1
1
1.4714
1.47137
1.47172
1
1.00004
1
1
1
1.47165
1
0.655321
1.50296
1.47086
1.47057
1
1
1
0.645878
1.47127
1.22562
1
1.47283
0.65505
0.65161
1.47297
1.47296
1
1.47332
0.631494
1.4158
1
1
1
1
1.47107
1
1.26811
1.04461
1
1
1.47428
0.652249
0.779775
1
1.47203
0.654627
1.47172
1
1
1
1
1
1
1
0.647064
0.75471
0.651203
1.4732
1
1
1
1
1.41678
1
0.648359
1
0.637526
0.658866
1.47153
0.650996
1.47208
1
1
1
0.997458
0.657584
0.620996
0.999999
1
0.637331
1
1.46971
0.694791
1
1
1.47165
0.638501
1
1.46729
0.662098
1.47353
1
0.645206
0.997728
1
1
1
0.658625
1
1
0.999998
1.00001
1.01422
1.28461
1
0.693949
1
1
1
1
1
1
1
1.47391
1
1.47563
1
1
1
0.661254
1
1.47153
0.649891
1
1.37019
1
1
1.47175
1
1
1
1.45237
1
1
1.46573
1.47071
1
1.09209
1
1
0.654867
1
1
1
0.647254
1
1
1
1
0.69582
1
1
1
1
1
0.6028
1.00006
1.47292
1
0.999985
1.4728
1.47931
1
1
0.668155
0.830015
1.47076
1
1
1
1.4708
0.659208
1
1.47452
1
1
0.704326
0.708945
1
0.651854
0.657484
1
1
1
1
1
1
1
1.47045
1.10856
1.44753
0.605005
0.915652
1.46893
1
1.47665
1.47229
0.649745
0.801097
1
0.639906
1
1.49002
1
1
1
1
1.47131
1
1
1
1
1
1
1
1.16579
1.46849
1
1.47004
1
1
0.665302
1
1
1
1
1.47115
1.3544
1
1
0.652166
1.471
1.47099
1
1.47074
1.47046
1.47043
1
0.842362
1
1.46953
0.996919
1.46998
1
0.642561
0.998816
1.47233
1
1
1
1
0.655761
1.47138
1.42774
1
1.47334
1.46917
1.46966
1
1.21481
1.47235
1
1
1.3233
1.06879
1.47067
0.937267
1.47088
1
1.47086
1.4709
1.47168
1.47085
1
1.45137
0.923793
0.886048
1
0.999999
1
1
1.47034
1
1
1
1
1
1.47344
1
1
0.995903
1.47123
1.43158
1
1.39858
1.00004
1
1
1.47154
1
0.996712
1.00478
1
1.47086
1
1.47176
1
1
1.34378
1
1.47281
1.00002
1
1.47288
1
1.47127
1
1
1
1.47083
1
1.47105
1.00001
1.47125
1.475
1.47302
1.46956
1
1.47222
1.46621
1
0.664958
1.44132
1.33372
1
1.47083
1
0.652561
0.660426
1
1
1
1
1
0.653542
1
1.47136
1.11683
1.4721
1
1
1
1
1
1.47306
1
1.47804
1.27051
0.802635
1
1.00001
1.13355
1.1189
1
1
1.161
1
0.662446
1.47152
1.47098
1
1
1
1.47462
1
1.00003
1.47168
1.47174
0.939515
1
1
0.657194
1.42831
1
1
1
1
1
1.47142
1.47027
1
1.47237
1.46974
1.4741
1
1
1
1
0.698286
1.47261
1
1
1.4273
1.46895
1
1.44212
1.47263
1
1
1
1
1
1.47091
1
1
1
1
1.47049
1
1.46296
0.636512
1
0.669614
1
1
1
0.996879
0.659759
0.999103
1
1
1
1.06214
1
1
0.862738
1
1
1
1
1
1
1
0.999998
0.942381
0.999999
1
0.997411
1
0.653367
1
1
1
1
1.34573
1
1
1
1
0.651379
1
1
1.44255
1.4725
1
1
1
0.875494
1
1
1
1
1
1
0.947509
1.01512
1.47141
1
1
1
1.47729
0.90387
1
1
1
1.46318
1.47923
1
1.00001
1
1
1
1
1
1
1
0.657762
1
1
1.47176
0.644511
1
1.47151
1
0.657972
1
1
0.655598
1
1
1
1
1
1
1
1.46202
1.46977
1
1
1
1
1.42845
1
1.14719
0.65969
1
1
1
1
1
1
1
1.03235
1
1
1.23442
1
1
1
1.38786
1
1
1
1
0.64278
1
1
0.647347
0.642117
1
1
1.46869
1
1.01232
1
1
1
1.32639
0.647314
1
0.644191
1
0.770394
1
1
1
1.47039
1
1
1.47119
1
1
1
1.47119
1
1
1.47269
1
1
0.651285
1
1.14786
1
1
1.46882
1.47087
1.31372
1.42213
1
0.640002
1
1
1.44904
1
0.660621
1
1
1
1.47229
1
1
1
1
1.27703
1
1.45385
1.46821
0.649109
1
1
0.710161
0.713276
1
1
1
1.33296
1.35083
1
1
1
1
1
1
1
1.19111
1.46964
1.00079
1
1.46506
0.660636
1
1
1
1.2585
1
1.0931
1
1.43008
1.46976
1
0.64517
1
1.47534
1
1
1.47029
1.44101
1
1.4748
1
0.639897
1
1
1
1.4785
1.4624
1.41204
1
1.47098
1.4707
1
1.473
1
1.4695
1
0.660572
0.97465
0.6564
1
1
1
1
1
1.47319
1
1.47408
1
1
1
1.44728
1
0.65551
1.47124
1
0.664426
0.658852
0.648066
1
1.23502
1.03828
1.4734
1.47115
1
0.999999
1
1
1.47134
1
1
1.47055
1.47138
1
1.16174
1.00006
1
0.996802
1.4768
0.862415
1
0.838907
0.658704
0.664502
0.965323
1.46662
1.46466
1.0938
1.47172
1.47256
1
1
1.47375
1.47336
1.47136
1.47249
1
1.47218
0.664887
1.47685
1.46913
1.47386
1.46714
0.853736
0.89067
0.934389
1.47189
0.96548
1.47099
1
1
1.47371
1.47213
1
0.641487
1.46715
1.47206
1
1.47294
1.47299
1
1.47203
0.656935
1.46718
1.46979
1.47276
1.47488
1
1
1
1.47174
1.3016
0.673609
1.47101
0.64373
1.47026
1
1
1
1
1.47208
1.47147
1
1
1.47165
0.647525
1.47203
0.653286
1
1.46849
1
0.665663
1.47192
0.730059
1
1.47109
1.47519
1.47166
1
1
1.21152
1.47498
0.652172
1.47176
1
1.47254
0.880665
1.47278
0.659095
1
1.4717
0.679311
1.47366
0.663082
1
1.47169
1
1.47025
1
1.27218
1.45232
1.36859
0.671991
1
1.4725
1
1.47139
1
1.47162
1
1
1.47118
0.987765
1.4752
0.65781
1.41381
1
1.33327
1
1.47033
1.47137
1.46883
1
1.42326
1.47085
1.43648
1.28117
1.47491
1
1.31456
1
1.47248
1
1.07228
1
1.43541
1
1.47225
1.44829
1.44846
1
1.46775
0.683128
1
0.636833
1
1
1
1.47088
1
1.47215
1
1
1
1.47304
1.46055
1.38741
1.47488
1.47504
0.670403
1.46779
1.47135
1
1.40644
1.47101
1.45446
1
1.4749
1.47386
1
1.48246
1.47054
1.47187
1.47192
1
1
1
1.47169
0.679475
1
1.47162
1
1
0.644744
1
1
1.4705
1.47171
1
1.47141
1.48148
1.47239
0.967478
1.47039
1
1.47138
1.47131
1.37418
1
1
1
1.47538
1.4713
1.47215
0.94655
1
1.47361
1.47116
1.47176
1
1.47141
1.47238
1.47272
1.48604
1
1.47161
1.47128
1.41104
1.47211
1.48347
1
1.48099
1.46505
1.47274
1.47479
1.47293
0.685539
1.47133
1.4691
1
1.47168
1.47276
1.47199
1.47183
1
1.47019
1.47179
1
1.47234
1.39455
1
1
1
1.46898
1.4759
1
1
1.25304
1
1.47161
1
1
1.47213
1.47281
1.4719
1.47237
1
1
1
1.32057
1
1.47202
1
1
1.47825
1.46977
1
1.47049
0.642036
1.4734
1.4665
0.70513
1
0.671246
1.40316
1.47068
1.47275
1.47184
0.630164
1.47001
1.47223
0.636846
0.641402
1
1.47327
1.47032
1
1
1.47073
1
1.46634
1
1.4108
1
1.21988
1.47125
1.47352
1.31258
1.42141
1.47157
1.47056
1.43962
1
0.661694
1.47759
1.47173
1.47369
1.00001
1
1
1.47369
1
1.47286
1.46832
0.757009
1
1.47227
0.999932
1
1.00003
1.00005
1.47152
1.476
0.998476
1
1
1.47135
1.47542
1.4717
1.47307
1.47205
0.673977
1.39779
1
1.46858
1.47182
1.47264
1.47726
1
1.47183
1.45825
1.47403
1
1.47275
1.47158
0.850559
1.4719
1.47389
1
1.47236
0.834025
1.47236
0.853602
1.47244
1
1.47202
1.47987
1.47128
1.47169
1.47215
1.47991
1.47262
1.47295
1
0.938857
1.47256
1.47049
0.847646
1.47108
0.978111
1.27512
1.47213
1.47478
1.47664
1
1.4762
1.30099
1.47029
0.910756
1.47407
1.4822
1
0.873624
1
1.4628
1
1.31586
1
1.45639
0.882915
1
1.46969
1.4757
1
1.46861
1.47344
1.47672
1.47441
1.47838
1
1.47231
1
1
1
0.904599
1.47233
1.4718
1.47075
1.47063
1.47485
1.46977
1.47385
1.47203
0.910846
1.0316
1
1
1.48215
1.47138
1.47127
1.47206
1.00003
1.23581
1
1.48256
1.40788
1
1
0.746759
1.47196
1
1
0.665796
1.47164
1
1.47078
1.47247
1.47127
1.45261
1.47208
1
0.677167
1.11181
1.47076
1.47205
1
1.47248
1.4707
1.22338
1.00878
1.10113
1
1.46858
1.47213
1
1
0.646206
1
1
1.47102
1.47096
1.47022
1.47162
1.47129
1.47484
1.4723
1.46895
1.46988
1
0.996364
1.4716
1.47175
0.996839
1.47116
1.47115
0.6781
0.65029
1.46998
1.47243
1
1
1.00072
1.47217
1.4704
1.47179
1
1.47048
1
0.840037
1.47466
1.47683
1
1.19928
1.46957
1
1.46892
1
1.47162
1.32355
1.47639
1
1.47331
1.46077
0.649801
1.47033
1
1.47301
1.46971
1
0.683475
1.47686
1.40194
0.99737
1.45508
1.47249
1
1.00787
1.47612
0.997513
1.472
1
1
1.47391
1
1.47591
1.4716
0.99671
1.3668
1
1.47223
1
1
1
1
1.47221
1
1
1.47015
1
1.47172
1
1.2971
1.4707
1.47245
1
1
1.00732
1
1.47116
1.47212
1.47267
1.47182
1.47073
1.47244
1.47209
1
1.47161
1.47067
1
1.47242
1.47211
1
1.47012
0.93787
1.05884
1.47257
1.47232
1.47285
1
1.47192
1
1.47168
1.47226
1
1.47149
1
1
1
1
1.47052
0.673712
0.997907
1
1.47104
1.47763
1
1.47141
1
1.00545
0.66484
1.47217
0.999582
1
1.47074
0.998315
1.47146
1
0.999765
1
1.47033
1.476
1.47257
1.47015
0.665424
1.47199
1.47299
1.47218
1.11482
1
1
1.1975
1.47146
0.670157
0.670421
1
1.47342
1.47163
1.47403
1
1
1.47136
1.47235
0.999875
1
1.33372
0.64211
1
1.08102
1.47207
1.47586
0.998253
1.47129
1.47537
1
0.999012
1
1.47379
1.47449
1.18733
1
1.43981
1
1.00214
1.47299
0.661848
1.4686
1.47137
0.996962
0.999906
1.40856
1
0.999684
1
1.47797
1
1.00001
0.658007
1.47189
1.00001
1
1
1
1.47966
1.25807
1
1
0.65961
1.47215
1.26267
1
1
1
1.44834
1.45785
1.47399
1
1
1.4686
1
1.47096
1.47222
1
1
1.47339
1.47077
1.45514
1
1
1.47382
1.47403
1
1
1
1.47735
1
1
1
1.47288
1.47184
1.47489
1
1.47867
1.00003
0.697813
1.46852
1.46937
1
1.473
1.46353
1.47013
1
1
1.48053
1
1.24057
1.47791
1
0.671941
1
1.47296
1
1
1.4765
1
1
1
1.14125
1.47707
0.680592
1.00001
1.47269
1
1
1.47303
1
1.47901
1
1
1.47199
1.47127
1
1.00005
1
1
1
1
1
1
1.47008
1.472
1
1.4708
0.641621
1.47399
1
1.47059
1.4787
1.47287
1.46712
1.4716
1
1
1.47575
1
1.2851
1.47361
1.47221
1
1.47471
1.46447
1
1.41814
1
1.47073
1.30187
1.47234
0.997602
1.46562
1.41644
1.47009
1.47198
1.03548
1.47197
1.47579
1
1.4713
1
1.47192
1
1
1
1
0.996488
1.47195
1.47279
1.4046
1
1.48
1
1
1
0.666939
1
1.46324
1
1.42591
1.45721
1
1
1
1.44253
1.47673
1
1
1.47
0.665804
1.07687
1
1.47545
1.4702
1.42712
1.46219
1.47115
1
1.46973
1
1
1
1
1.47464
1.47109
1
1.45946
1.06899
1.47177
1.43898
1
1
1.43977
1
1
0.641447
1.33863
1
1
1.47186
1
1.47665
1.4309
1
1.42481
0.66794
1.47042
1.47062
1.47223
1
0.652823
1
1
1
1.47243
1.37685
1
1.47896
1.47206
1
1.4719
1
1
1
1
1.47214
0.999406
1
1.47314
1
1
1.47113
1.47161
1
1.48478
1.09364
1.00002
1
1.4708
1
1.47102
1
1.01397
1.47039
1
1.47193
1
1
1.13535
1.47142
1
1
1
1
1
0.996286
0.655772
0.676437
1.02032
1
1.02878
1
1.01594
1
1.47066
1
1.2769
1
1.47216
1
1
1
1.47174
1
1.36696
1.47234
1
1.23733
1.47435
1
1
1.47126
1.47039
1
1
1.03308
0.670571
1
1.47381
1
1
1
1
1.07608
1.47298
1
1
1
0.636294
1
1.47183
1.47166
1.47152
1
1
1
1
1.23111
1.46912
1
1
1
1.46611
1.47136
1.03158
1
1
1
1.47001
1.47131
1
0.676324
1.47225
1.47148
1.4723
1.47267
1.4778
1
1
1.46873
1.47379
1.47146
0.637127
1.04152
1.47025
1
1
1
1
1
1.47163
0.670583
1
1
1.47164
1.20907
1
1.46825
1
1
1
0.649372
1
1
1.11656
1.47179
1.47195
1
1.47578
1.474
1
1.06087
1
1.47342
1
1.47038
0.666628
1
1
1
1
1.47193
1.00007
1
1
1
1.44167
1
1
1
1
1.47177
0.650289
1.36114
1.47251
1
1.47079
1
1
1
0.99708
1
1.47625
1
0.792636
1
1
1.00003
1.47124
0.661097
1
1.47566
1
1.47176
1.47116
0.647116
1
1
1.45671
1
1
0.639688
1
1.47327
1
1.44968
0.999288
1.47124
1
1
1
1
1.47139
1
1
1.47139
1
1
1
1
1
1
1
1
1.30669
1
1.14924
1.47353
1
1
1
0.65395
1
1
1
1
1.47216
1.47177
1.07242
1
1
1.47246
1
1
1.47164
1
1.00002
1
1
1
1.00001
1.4742
0.773811
1.47159
1.473
0.997084
1
1
1
1.27292
1
1
1.47261
1.471
1
1
1
1
0.67019
1
1
1
1.2949
1
1.47285
1.47627
1
1.47165
1
1
1
1.24699
1
1.47175
1
1.47105
1
1
0.99621
1.4714
1
1
1
1
1
1.47075
1.00002
1
0.639147
1.47597
0.635799
1
1.46786
1
0.996152
1
1.47301
1.47764
1
1.46306
0.896551
1.4714
1.47008
1.00003
1
1
0.642283
1
1
1
1.47143
1.27269
1.47632
1
1
1
1
0.996932
1.4714
1
0.663523
1
1
1
1
1
1
1
1.48731
1.47405
1.47201
1
1
0.996996
1
0.960826
1
1
1
0.676218
0.970191
1
0.649738
0.651821
1
1.47221
1.47158
1
1.47584
1.47183
0.647343
1.30284
1
1
1
0.665775
1.47324
1
0.657692
1
1.47044
1.07325
1
1
1
1
1.47139
1.46958
1
1
1.47164
1
1
1.47242
1.47135
1
1.42764
1.47205
1.47462
0.960975
1.4703
1.00894
0.658494
1.35877
1.47053
1
1
1
0.670699
1
0.656527
1.47389
0.942002
1.47135
0.961877
1
1.47123
1.20419
1
1
1.46837
1
1.18982
1.47099
1
1
1.48121
1.47763
0.661038
1.26487
0.999891
1
1.28454
1
1.46827
0.965754
1.47462
1.46847
1
1
1
1
1.45579
1
1
1.47387
0.999633
1.47082
1.37725
1.47047
0.664067
1
1
1
1
1.46949
1.00004
1.47226
1
1.47396
1.46905
1.05838
1.46878
1.13351
1.47324
1
1.31378
0.6919
1.47118
1.47036
1.39326
1.09428
1.47068
1.47148
1.47228
1.47034
1
0.915206
1.06865
1
1.47136
1.22115
1.47037
1.00003
1
1
0.711536
1.4767
1.4712
1.37472
1
1.17749
1
1.47279
1.46878
1
1.47235
1.47181
1
1
1
1.47052
1
1.18587
1.47613
1.3245
1
1.47217
1
1
1
1
1
1
1
1
1
1
0.68713
1
1.43499
0.680802
1.26608
0.998588
1.47558
1
1.23683
1.00001
1.2987
1.39041
1
1.0023
1.471
0.907094
1
1.47223
1.47516
0.960607
1
1.47471
1.47102
1.47596
1
1.47115
1.47455
1.47115
1
1.20723
1
1.00006
1.46947
1
1.47348
1.0642
1.46995
1
1
1.47641
1.47411
0.704344
1
1.4702
1.35233
1.47013
1
1
1.47187
1.46483
0.998233
1
1.40255
0.996853
1.47091
1.00008
1
1
1
1
1.21325
1
1.35401
1.47185
1.34812
1.47105
1
1.00293
1
1
1.47475
1
1.46946
1
1
1
1
0.999999
1
1.05627
1.23362
1
1
0.678406
1
1.47601
0.670231
1.47268
1
1.23494
0.999753
1.47209
1.30021
0.674687
1.25314
1.00003
1.47087
1.47646
1
1.28272
1.47763
1.46951
0.998424
1.4854
1.45736
0.666583
1
1
0.997785
1
1.45431
1
0.688658
1.47557
1
1
1.39409
1
1.47163
1
1.4731
1
0.697473
1
1
1.47353
1.46643
1.47015
1
1.47183
1.47159
1.4625
1
1
1.47463
0.999999
0.745057
1
1
1
1.47247
1
1.47118
1.30219
1.46959
1
1.4715
0.999367
1
1
1
1
1
1
0.729629
1
1
1.47163
1
1.47458
1.47763
1
0.672584
0.656167
1
1.4727
1.07287
0.668314
0.634678
1
1.47287
1
1.47061
0.626775
1.0017
1
1
0.999504
1
1
1
0.999918
1.17746
1.47128
1
1
1.47264
1.27673
1
1.41147
1.47271
1.47002
1.19049
1.46598
1
1.47116
1
1.45605
1
1.46847
1.46975
0.99664
1.47371
1.47345
1
1
1
1
1
0.912617
1.4696
1.00004
1.00003
0.668149
0.999978
0.670899
0.647799
1
1.47319
1.47187
1.47064
1
1.47266
1
0.665586
1
1
1.47392
0.824494
1.47017
1
1.47393
1
0.986738
1.47025
1
1
1
1.473
1
1.47127
0.659628
1
1
1.27081
1
1
1.25079
1
1
1.46993
1
1
1
1
1
1.46544
1.47226
1
1.47212
1.47196
0.660617
1.20084
1.4714
1
1
1.42499
0.999014
1
1
1.47154
1.47072
1.2994
1
1.47215
0.658506
1.45299
0.999207
1
1.47206
1.00003
1.47009
1.39296
1.35777
1
1
1.4711
0.725988
0.679143
1
1.47041
1
1.46832
1
1.27569
1
1
1.46989
1.3001
0.658516
1
0.998322
1
1
1.0261
1.19697
1.47129
1
1.4749
1
1
1
1
1
1
1.06785
0.660126
1
1
1.01953
1
1
1
1
1
1.4712
1
1
1.47225
1.46998
1.36132
1
1
1
0.824487
1.4743
1.32606
1
1
1
1
1.46976
1
1
1
1.48021
1
1
1.33544
1.48841
1.03622
0.762041
1.47519
1.3262
1.46788
1
1.23642
1
1
1
0.620589
1.0024
0.671513
1
0.633831
0.652413
1
0.659384
1
1
1
1.20852
1
1.47044
1.47453
1.0012
1.22124
1.38864
0.676944
0.750424
0.872628
1
1.47135
1.4712
1.47141
1.47132
1.40275
0.888437
1
1.40462
1
1.4409
1
1
0.99637
1.01031
1
1
1
1.4727
1
0.67738
1
1.4744
0.655072
1
1
1.47134
1
1.471
0.999653
1
1
1.47235
1.42306
1
1.48456
1
1
1.01442
1
1.19914
1
1
0.658685
1
1
1.47313
0.999998
1.47291
1
1.00003
0.668996
1
1
0.668428
1.00089
1
1.4704
0.651992
1.48242
0.664891
1.46952
1
1
1
1
1
1
1
1
1
1
1
1.4519
1
1.47292
1.47098
0.655262
1
1
1
1
1
1
1.4575
1
1
0.66047
1
1
1.47061
1
1
1.17849
1.39204
0.655593
0.654264
0.678294
0.747667
1
0.996293
0.670597
1.0003
1.42945
0.997001
1
1
1.47285
1
1
1
0.748608
1.00001
1.16922
1
1
1.1941
1.47183
1
0.681252
1
1
1
0.996672
1.00001
1.4699
1.47161
1
0.670916
1
1.24507
0.658367
1
0.863354
1
0.995763
0.632892
1
1
1
0.995788
0.662793
1
0.636882
0.998389
1.24264
1.41708
0.648772
0.653965
1
0.991089
1
0.998675
1
1.47074
1.47205
1
0.990225
1.47329
1.47169
1
1
1.47147
1
1
1.00004
1
1.48251
1
1
1.01748
1
0.998576
0.68525
1
1
1
1
1
1.4772
1.03843
1.00005
1
1
1
1
1
1.00003
1
0.666001
1.08396
0.998595
1.45175
1.47282
1
1.01726
1.4731
1.41622
1
1
0.623083
1.47012
1
1.47032
1
1.47188
1.32614
0.666461
1
0.657625
1.42835
0.999693
1
0.65871
0.633179
1
1
1.39482
1
0.999998
0.659627
1
1
1
1.15337
1
0.654956
1.47406
1
1
1
1
1.472
1
1
1.47481
1.42209
1
1
1
1.47736
0.642315
1
1.4718
1.47242
1
1.37459
0.999999
1.00004
1
1
1.42969
1.0023
1
0.669688
1.26189
1
1
0.997187
1
1
1.46693
1
1
1.00003
1
1.47124
1
1
1
1
1
1
1.00001
1.19635
1
1.47228
1
1
1.47194
1
1
1
1.47135
1.47498
1.04391
1
0.997591
1
1
1
1
1.47244
1
1
1.47047
0.66361
1
1
1
1
1
1
1.37927
1
1
1.47039
1.47236
1
1
1
1.4716
1.47381
1
0.999657
1.46885
1
1
1
1.00002
0.672972
1.02793
0.99621
0.99588
1
1
0.632848
1.47173
1
0.61159
1
1.46866
1.45132
0.653755
0.999403
1.47111
1.47155
1.46826
1
1
0.936505
1.42323
1.3799
0.621651
1
1
1
1.47018
1.4716
0.655788
0.997286
1
1.47189
0.65802
1
1.46808
0.663441
0.984662
1.00602
1
1.47759
1
1
1
1
1
1
1.00011
1.43793
1
1
1.47731
1
1
1
1.47127
1
0.666039
1
1
1
1.16788
1
1
1
1
1
0.787764
1
0.650797
1
1.4711
1.00007
0.859396
0.864629
1.00002
1.00201
1.24139
1
1
0.656747
1.47089
1.47176
1.47112
1
0.6615
0.644886
1
1.47026
1
1
1
1
1
1.00003
1
0.658311
1.29779
1
1
0.65324
0.986511
1.00001
1
1
1
0.633789
1
0.667
1
1
1.47294
1
1
0.662431
1
1.47178
1
0.672687
1
0.661816
1
1.00828
1.47269
1.49482
1
1
1.47245
1
1
1.08843
0.996881
1
0.998131
1
1.47301
1
0.673695
1.00002
1.47265
0.998866
1
1
0.783113
1
0.999023
0.66608
1.47234
1.16403
1
1.00001
0.915529
1
1
1
0.777706
1
1
1
1.47219
1
0.667822
0.999999
1
1
1
0.657935
1.47105
1.42068
0.666663
1
1.47647
1
1
1.47124
1.47265
1.39455
0.656188
0.99766
0.999253
1
1.47079
1
1
1
1
1.47752
1.00004
1
1
1.48115
1
1
1.47161
0.668878
1
1
1
0.664362
1
0.999999
0.999999
0.998647
1
1
1
1
1.3725
1
1.47044
1.47229
1.46925
1.4718
1.47369
1.47085
1
1.47315
1
1.4723
1.47129
1
0.998865
0.670765
1.40442
0.999899
1
1
1
1
1.00709
1
1.06834
1
1
1
0.82974
1.47117
1.46996
1.47016
1.40482
0.99987
1
1.02341
1.4735
0.997912
1.03586
0.997138
0.641339
1
1.00002
1
1
1
1
1
1.47126
0.6688
1.47106
1.471
0.995395
0.668021
1
1
1
1.47187
0.642409
1.41283
0.658228
1.47137
1.46909
0.66133
1.47224
1.02484
1
1.47257
0.803046
1
0.998722
0.702482
1
0.645121
1
1.47081
1.4712
0.760079
1
1.47041
0.638447
1
0.649789
1
1.47229
1
1
1.45496
1
0.838621
1
0.999691
0.642908
1.46034
0.999473
1
0.661225
1
1
1
1
1.2563
1
1.47261
1
1
1.48967
1
1
1.47254
1
0.655934
1
0.657153
1.00001
1
1
1
1
1.44961
1.2739
1.47206
1
1.47147
1.43699
0.644031
0.683301
1
1
1.47307
1
0.66067
1
0.986018
1
1
1.46961
1
1.47014
0.694698
1.49217
1
0.690486
1
1
1.47043
1.46912
1
1.00004
1
1.47295
1
1
0.677338
0.999368
0.661151
1
1
1
1.4736
1.48316
1.47062
1
1
0.621343
1
1.46961
1
1
1
1.44814
1.47145
1.47278
0.625138
1.47577
1.47152
0.664604
1.47164
1.00004
0.673014
1.01159
1
1
1.47015
0.618623
1.29981
0.626398
1.47169
0.997489
0.663773
1.47343
1
1
1
1
1.47166
1.47323
0.656936
1
1.00002
0.665333
1.00004
1
0.637762
0.681121
1.32685
1.47124
0.998492
1.47189
1
1.47143
0.817776
0.657932
1.47099
1.4828
1
1.47338
1
1
1.47138
1
1.3746
1.47125
1
1
1
1
1.4734
1.4656
1.46986
1
1
1.46963
1.47249
1.47076
1
1.47273
1
1
1
1
1
0.650725
0.850373
0.683514
1
1
1.47046
1
1
1.46504
0.649196
1
1.47207
1.46648
1.44603
0.646548
1
0.619861
1
1.00003
1.47254
1.22371
1.47384
1.4293
1
0.642736
1
1.47195
1.32903
0.655898
1
1
1
0.795561
1
1
1.48421
1
0.651836
1.47241
1
1
1
1
1
1.37709
1.10052
1
1.47156
1
1.47044
1
0.997353
1
1.47158
1.46938
1.47126
1.4734
0.999595
1.47261
1
1.4716
1.47606
1.3978
1
1
0.679548
1.47015
1
1
1.48049
1.4735
1.46984
1
1.47168
1
1
1.00003
1.4688
1.47315
1.13455
1.10121
1.47087
1.47225
0.686649
1
1
1
1
1.00002
1.16062
1
1
1.39136
0.663901
0.999974
1
1.47177
0.999898
0.999818
1.06603
1.43138
1.47195
0.884057
1
0.659768
1
1.02081
1.47205
1.47505
1.47288
0.998964
1
1
0.658019
1
1
1.47184
1.04924
1
1
1
1
1
1
1
0.999937
1.47292
1.00002
1
1
1
1
1.29176
1
1.20865
1
1
1.47183
1.47322
0.654323
0.998765
1
0.999999
1
0.650465
1.47204
1.47113
1
1
1
1
1
1
1
1
1.47123
1.47133
0.670152
1.04824
0.66361
1
0.641186
1
1.47351
1.11561
1
1
0.742961
1
1.44717
0.789853
0.996597
0.662526
1
1
1.46929
1.00004
0.997156
0.65415
1.46984
1.47933
1
1
1
1
1.4399
1
1
1.47135
0.998926
1.47174
1.00007
1
1
0.701221
1
1
1.46905
0.643877
0.759229
0.665064
1.47198
0.999346
1
1.47094
0.644467
0.647524
1.00914
1
1
1.4712
1.00004
1.21674
1
1
1.47269
0.664995
1
1
1.00014
1.47188
1.00012
1.46176
1
1.00003
1
1
0.740318
1
0.782699
1.00001
1
1.47179
0.701776
1
0.778208
0.77188
1
1
1.46966
1
1
1
1.47284
1.47098
1.00005
1.47252
1.47007
0.796891
1.47187
1.45628
1
1
1.47857
0.999999
1
1
1
1
1.47661
1.47003
1
1
1
1.46923
1.00023
1
0.659892
0.7056
1
1.00003
1.18454
1
1
0.894757
0.651909
1
1
1
1.47269
1.43014
1.47273
1
1
1
1
0.666182
1
1.45504
1
1.46061
0.668704
1.46833
1
1
1
0.615409
1
1.46995
1.00003
1
0.652597
1.16512
1
0.99966
1.46759
0.638623
0.676313
1
1.47167
0.664081
0.660364
1
0.702474
1.00001
1
1
1
0.611389
1
1
1
1
1.4697
1
1.35818
0.65546
1
1
1
0.658402
1.47023
1
1
0.996961
1.46911
1
1.47065
1.47184
1
1
0.737219
0.648741
1
1
0.660846
1.14039
1.20841
1
1
1.47519
0.997378
1
0.997581
1.47225
1
1
1
1
1
1
1.4704
1
1.16211
1.14262
0.684747
1.41233
1
1.47175
1.47203
1
1
1
0.894414
0.64207
1
1.22494
0.999636
1.40486
1
1
1
0.999999
1
1.00519
1.20786
1.47326
1.46967
1
1.47144
1
0.65488
1
0.997525
0.99978
1
0.666351
1
0.660776
1.00002
1.47541
1.46992
0.67048
1.46947
0.666178
0.996208
1.35514
0.659173
1.34644
1
1
0.998442
1
1
1
1.00006
1
0.663092
1
1
1
1
0.999582
1.47039
0.784493
1
1
1
1.0367
1
1
1
1.2623
0.740986
1
1
1
1.05399
1.46964
1
0.648602
1
1.47283
0.901979
0.646419
1
0.64392
1
1
1.44555
0.998155
1.42458
1
1.00894
1
1
1.47093
1
1
1
1
1.09203
1
1.47084
1.47326
1.47353
0.660016
1.47156
0.997154
1.37633
1
1
0.650796
1
1
0.667117
1.4763
1
1
0.999972
1
1
1
0.655908
0.634544
1
1.47365
1
1.21403
1.47138
0.661498
1.39624
1
1
0.648681
1
1
1.47082
1.472
1.16836
1
1
1.00133
1.47072
0.656885
0.666472
1.47031
1.47215
1.32015
1.187
1
0.907007
1
1
1
1.44271
1.47857
1.47398
1
1
1.46964
0.663873
1.41413
0.63232
1
0.656921
1
0.66521
1.47176
0.644014
1
0.965381
0.687671
1
1
1
0.82157
1.42427
1.46909
1.47414
1.47151
1
1
1.47165
1
1
1.47053
1
0.611095
1
0.68189
1
1.46951
1
1
1.01439
1.35579
1
0.998812
0.626125
1.47121
1.00001
0.686262
1.09227
1
1
1.38099
1.47241
1.47237
1
1.47203
1.13022
1
1.02223
1.47174
1
1
1
1
1.47125
1
0.650027
1.47273
0.664793
0.700079
0.826609
1.47151
1.15056
1.47203
1
1.4735
0.997324
1.00003
1.47209
1.46979
1
1.47137
1
1.4723
1
1.47035
1
1.00004
1
1.46906
0.637535
0.662912
0.997904
0.999999
1
1
0.651915
1
1.30683
1
0.637149
1
1.17749
1.47058
1.47683
1
1
1.00003
0.999398
1
1.47117
1.47206
1
1.1922
1.47095
0.836998
1.47134
1.00003
0.654885
1.09163
0.616601
1
1
1.08008
1.47267
1
1
1.03771
0.998581
1
0.705812
1
0.782646
1
1.47179
1
1
0.639972
1.08719
1.06261
0.998486
1.47274
1.47209
0.767714
0.998035
0.66991
0.618728
0.665376
1
1
1
0.999027
0.703435
0.65553
1
1.47152
0.999732
1.4716
1.47149
1.47047
1.47213
1
0.661116
1.47292
0.673136
1
1.47179
1.4722
0.996676
0.803904
1.47248
1.34185
1
0.661749
1
1
1.47618
1
1.02837
1.46973
1
0.697013
0.665243
1
1
0.655093
0.629141
1.46876
1.00006
1
0.676334
0.620102
1.4699
1.46208
1.43865
1.47096
1.1174
0.994321
1.18083
1.47224
1.34825
1
1.24063
1
0.657128
0.856148
1
0.6813
1.47101
1.02242
1.47434
1
1.47324
1.47226
1
1.47257
1.47126
0.655071
1.47624
1
1.48135
1
0.755309
0.657069
1.47192
1
1
1
0.654128
1.47297
1.47294
1
0.653851
1
1
0.672105
1.00005
0.655738
1.47409
1
0.803899
0.617378
1
1
1.25637
1
1
1
1.08048
0.657055
1
1.00001
1
1.47307
0.6614
1
1.47129
0.711598
0.615278
1
1
1.47594
1
1.47209
1.00001
1.47096
0.666089
1
1
0.643016
0.81258
0.683784
1
1
1
1
1.46635
0.65894
1
0.65795
1
1.47338
1
1
0.935723
1
1
0.800333
0.999674
1.00005
1
0.663642
0.657536
1
1
1
1
0.797734
1.46906
1.47113
1
0.661069
0.628852
0.904018
0.651104
1
0.836628
1
0.668046
0.970392
1
1
0.665406
1
1.4708
1.45222
0.655853
1
1
1
1.46504
1
1.04569
0.831259
1.14943
0.651387
1.19362
0.656754
1
1
0.72321
0.898066
1
1.03992
1
1
0.632373
1
0.929663
1.05114
0.659735
1
1.37217
0.743378
0.884827
1
1
1
0.665487
1
0.654393
0.663287
1
0.865544
0.660324
1.06291
0.723246
0.684308
1.47391
1
1.47214
1.25163
0.714737
1.47194
0.68007
0.999017
1.4722
0.999999
1
1.47272
1
0.727093
1
1.06669
1
1
1.47217
1
0.790658
0.816466
1.47177
0.931037
1
0.748179
1.47163
1.47296
0.910145
1
1.47116
1.12345
0.866029
1
1.01461
1
0.667273
1.20626
0.764093
0.761558
1
1
0.649823
1.47215
0.956065
0.666573
0.647422
0.847393
1
1.0089
1.47331
1.46967
1
1
0.999999
0.653558
1.22156
0.999986
1.47035
1.43796
0.665269
1.00001
1.0947
0.887425
1.27539
1.40657
1
1.03824
1
1.00005
0.641418
0.851413
1
1
0.805207
0.643347
1.03411
1
1.00001
0.689277
1.21919
1
1.46569
1
1.03668
1.25119
1
1.47
1
1
1.47555
1
0.652966
1.47148
0.731889
1.12395
1
0.651093
0.999912
1
1.00003
1
0.805981
1.02709
0.668984
1.35586
1.47023
0.65025
1
1
1
1
1
0.956617
0.652469
1.06022
0.670945
0.654301
1.0781
1
0.999804
1.12185
1
1
0.694891
0.986476
1
1
1.13483
1
1.47341
1
1.47073
1.08565
1.02159
0.647526
1
1
0.692145
1
1
1
1
1.47165
1.04223
0.998103
1
0.660042
1.05387
1
1
1.30712
1
0.652759
1.46909
1
1.00001
1
1.46929
0.662381
0.87408
0.625162
1.35155
1.47225
1
1
1.46954
1
0.61993
1
1
1
1
1
0.749502
1
1.47219
1
1
1.15838
1.47299
0.667943
0.850987
1
1.47067
1
1
1
1
1
1.47172
1.4706
0.629162
1.47247
0.649089
1
1
1.47168
1
1.46959
0.984924
1.02907
1.06267
1.47147
1.06902
1.31337
0.644535
1
0.645281
0.993724
1
1.47049
1
1
0.643164
1.46785
1
1.47105
1
1
1
1
1
1.00001
0.663003
1.47201
0.839418
1.47343
1
0.665317
0.672796
0.713229
1.47882
1.47049
0.989367
1
0.812851
1
1.18717
1
1.46951
0.652552
0.656184
0.837764
1
1.47027
1
1.0806
0.664956
1
1.47179
1.42563
0.998857
1
1.47095
0.657531
1.4743
1.47267
1.47244
0.663137
1.08936
1
1
0.640821
1
0.820386
0.839205
1
1.00002
1.47166
1
1.47138
1.09077
1
1.05607
1.4772
1
0.664233
1
0.776084
1
1
1.38642
1
0.8134
1
0.662216
1.03504
0.929224
0.615488
1.47413
1.38885
1.47191
0.666325
0.694072
0.995713
0.999999
1
0.693291
1.44474
0.652356
0.999978
1
1.47084
1.47143
0.91996
1
0.651559
0.705811
1.31167
0.970195
0.654967
0.999999
0.659979
1.11736
0.66042
1
1.00006
0.802814
1.47112
1.47262
0.820729
0.999595
1
1
0.699367
1
0.647017
1
0.620436
0.659502
1
1
1.00003
0.662752
1.47139
1
1
1.00006
1.00004
0.637407
1.47174
1.47131
1
0.670787
1.4734
1
1.10113
1
1
1.47283
0.64956
1
1
0.647123
0.765547
0.669802
0.672713
1
0.702062
0.997157
1.09557
0.657004
1
1
1.1247
1
1.41463
1
1
1.32529
0.705349
1
0.649475
1.11883
1.47262
1
1
0.65109
0.684613
0.640993
0.722801
0.686684
1.35063
0.999393
1
1
1
1
1.47013
0.706791
1
0.922067
0.999682
0.999119
0.999942
0.762421
1.12617
1
1.47151
1.47156
1
1
1.46011
1.00004
0.999999
1.46934
0.646202
1.47455
0.999999
0.648212
1.47024
1.00005
1
0.816829
1
0.63952
1
1.47115
1
1
1.47564
1
1
1.46669
1
1
1
1.47113
1
0.743731
0.740074
1
0.633695
1.47205
1
1
0.970816
1
1.48332
1.26464
1.37654
1
1
0.686649
1
0.654679
1.47147
1.46911
1.47004
1
1.47105
0.655438
1
0.646714
1.37657
1.42941
1.47636
1.47307
0.736837
0.654003
1
1.31193
1.47124
1.46965
1.47212
0.769964
1.16688
1
1.35401
0.774561
1
1.00002
1
1.00002
0.900519
1
1.47778
1
1
1
1
1
1
1.00006
1.47142
1
1.47785
1.34614
0.657611
1.47365
1.03986
1.23774
1
1.47154
1
0.659405
1
1
1
1
1.40116
1
0.633447
1.46974
0.638341
1.472
1.37509
1.24004
1
1.08956
1.21869
0.995663
0.643511
0.79039
1.00002
1
0.936919
1
0.671507
1.47082
0.687899
0.913375
0.867475
1
1
1
1.01376
1
1
0.64347
0.996969
1.47414
1
1.47097
1
0.658292
1
1
1.47035
1.47224
0.636281
1
1.47196
1
0.811703
0.6878
1.474
1.42214
1
1.08004
1.47087
0.99864
1
1.19682
1.41035
1.46874
0.996152
1
0.999998
1.39866
1
1
1
1.47132
0.998482
1
1
1.46987
1
1
0.650299
1
1
1
1.47456
1
1
0.873799
1.1431
1.42552
0.789853
1
1.47199
1
1.16344
1
1.47251
0.997246
1.47188
1
0.652324
1
1.32591
1
1
1.43934
1.00001
1.47185
1
1.47
0.682548
0.66699
1.47137
1
1.39523
1
1.47149
1
1
1.00005
1.47075
1.46838
1.12792
1.47228
0.995177
0.633324
1.47124
0.847438
1
1.46857
1
1.47241
1
1.47432
1.47128
0.996032
0.647757
1
1.47157
1
1.04428
1
1
0.99794
0.746639
1.41959
1
1.43777
1
0.873894
0.652861
1.47077
1.47653
0.706008
1
1.47259
1.47451
1.47254
0.696123
1.47297
0.699719
1.47257
1.48092
1
1
1.47119
1
1
1
1
0.667016
1
1
1.47155
1.47283
1
1.47167
1
1.47475
1.47268
1
1.38868
1
0.641095
1.47224
1.36053
1.12752
0.638565
1.47157
1
1
0.653814
1
1
1.47127
1
1
0.787498
1
1.47023
1.00009
1.47128
0.647106
1.472
1
1.47081
1.45246
0.912224
1
1.47193
0.768945
1.48111
1.33485
1.47314
1.47367
0.997293
1.46943
1.47017
1.4719
1.47047
1.00041
1
0.640475
1
1.47244
0.831207
1.42788
1
1.46145
1
1
1
1
1
1.46788
0.647805
0.65808
1.46982
1.4699
1
1
1
1
1
1.46758
1.43655
1.47128
1.01066
1
1
1
1.00003
1.47018
1.47149
1
1.47349
1.47137
0.649282
1.32695
1
1.47122
1.4688
1.4674
0.9981
1.4718
1.47247
1
1.45256
1
1
1
1
1
1
1.47194
1.47121
1.4376
1.47114
0.646179
0.697062
1.47131
1.47145
1
0.659107
0.93987
1
1.22353
0.65918
1
0.999459
0.998292
0.653282
1
1.47148
1
1
1
1.4717
0.945661
1
1.47176
1.47315
1
1.4717
1
1
1.47189
1
0.652645
1
1.47638
1
1
0.653998
1
1.47264
1
0.641297
0.640721
1
1.45951
1
0.631133
0.880476
1
1.47124
1
1
1
1.46854
1
0.668044
1.06693
1.46906
1.4725
1.47039
1.03771
1.47343
1.47074
1
1.00002
1
1
1.00001
1.47069
1
0.999265
1.47772
1
0.643881
1
1.47124
1.2188
1.06008
1.21867
1.08351
1.47584
0.720703
1.47051
1
0.669311
0.99711
1.47108
0.934319
1.47124
1.47441
1.47066
1
1.46862
1.47102
1.47075
1
1.00004
1
1
1.47136
1.32751
1
1
0.664452
0.996369
1
1.47034
1
1.4713
1.47126
1.47104
0.913497
1.46956
1.46885
0.993028
1.22241
1.4687
1.47414
1
1.43419
0.850867
1.458
1.00691
1.47167
1
1.47201
1.4694
1
0.647308
0.937249
0.683588
1
1.07194
0.996811
1.47077
1
1
0.996929
1
1.23485
1.45703
1
1
1.47356
1
1
1.33257
1.47127
1.45068
1.46972
1.47173
1
1.47045
0.7469
1.47251
1
0.992476
0.663782
1
1
0.732776
1
1.14899
1
1.47371
1
1.46127
1.29644
0.650362
1
1
1
1
1
1.4714
1.01041
1
1.4722
1
1.46951
1.47176
0.999999
1
0.972068
0.999845
0.652964
0.630483
0.708961
1.08326
1