/*--------------------------------*- C++ -*----------------------------------*\
  =========                 |
  \\      /  F ield         | OpenFOAM: The Open Source CFD Toolbox
   \\    /   O peration     | Website:  https://openfoam.org
    \\  /    A nd           | Version:  12
     \\/     M anipulation  |
\*---------------------------------------------------------------------------*/
FoamFile
{
    format      ascii;
    class       surfaceScalarField;
    location    "6.6";
    object      phi;
}
// * * * * * * * * * * * * * * * * * * * * * * * * * * * * * * * * * * * * * //

dimensions      [1 0 -1 0 0 0 0];

internalField   nonuniform List<scalar> 
33852
(
0.000251329
2.24281e-05
-0.000273757
-0.000246121
1.32441e-05
0.000232877
-0.000177665
-7.26052e-05
0.000251052
0.000304053
-0.000163969
-0.000140085
0.000291495
-4.284e-05
-0.000249686
2.72441e-05
-0.000260681
0.000233437
0.0003152
1.47512e-05
-0.000330232
0.000304277
-9.59564e-05
-0.000208321
0.000286413
-3.50841e-05
0.000200389
1.9125e-06
-0.000202195
0.000289819
-0.000366849
7.70487e-05
0.000360546
-4.5684e-05
-4.39602e-05
0.000263285
-0.000219325
-4.38596e-05
0.000318229
-0.000274339
6.17983e-05
-0.000238126
0.000252057
1.2236e-05
-0.000264293
0.000264853
-1.2796e-05
-0.000278433
3.23121e-05
0.000340955
-5.122e-05
0.000158593
0.000112308
-0.000270901
-2.43633e-05
0.000303271
-0.000278941
0.000271377
-0.000276165
4.78802e-06
-1.77364e-05
0.000274568
-0.000257718
-0.000225404
1.44847e-05
0.000207343
-0.000154289
-0.000183475
0.000337274
-0.000148493
-7.1968e-05
0.000221332
3.72401e-05
0.000267037
-6.0864e-05
-0.000262545
0.000323362
-0.000210528
1.77198e-06
0.0002096
-0.000207179
-1.96354e-05
0.000142045
0.000137388
-0.000279433
0.000341223
1.92823e-05
0.000142618
0.000128347
-0.000270965
-0.000101136
0.000259729
-0.000250489
-3.78001e-06
0.000254269
0.000330687
-5.96063e-05
-0.000271023
-0.000358068
0.000203713
-0.000227943
0.000209521
0.000231645
3.32081e-05
-5.65602e-06
0.000237301
-8.46849e-06
0.00020923
-0.000232625
0.000259869
0.000315192
-5.71918e-05
-0.000258546
-0.000309093
5.51042e-05
0.000253989
0.000239405
-0.000300431
0.000273589
-0.000306321
3.27321e-05
-0.000180237
-5.49362e-05
0.000235173
0.000272133
-0.000272133
0.000148429
-0.000297473
0.000149045
-0.000212814
0.000220418
-7.155e-06
-0.000268241
0.000237301
3.09401e-05
-0.00020108
0.000246515
-4.75232e-05
-9.16164e-05
-0.000217477
-0.000114555
-0.000252177
-0.000280169
0.000266113
1.40561e-05
0.000329338
1.1908e-05
-0.000250433
7.01963e-05
0.000117908
0.000145909
-0.000263817
1.34681e-05
-0.000267457
0.000253989
-0.000134569
0.000282997
-0.000152646
-5.1727e-05
0.000205119
-0.000274681
0.000245113
2.95681e-05
0.000237553
-0.000268437
3.08841e-05
-0.000186726
-2.37168e-05
0.000151665
0.000115565
-0.00026723
-0.000189562
-2.79679e-05
0.000218893
0.000263985
2.24281e-05
0.000275941
-2.35201e-06
0.000265329
-0.000250741
-1.45881e-05
0.000226481
-6.38227e-05
-0.00016032
-1.82001e-06
0.000239373
0.00036658
-0.000312423
-5.38758e-05
-2.82912e-05
0.000303858
-0.000274913
-0.000101584
0.000219493
0.000342544
2.42209e-05
-0.000371878
0.000353992
1.82582e-05
-0.000209866
2.18478e-05
0.000309157
-0.000321313
1.23176e-05
-0.000209309
0.000275393
-6.46551e-05
-4.45202e-06
1.71338e-05
-0.00031952
0.000302679
0.000235371
-0.000199347
-3.53779e-05
0.000269536
-0.000340482
7.01298e-05
0.000331489
-6.33341e-05
-0.000268941
0.000236573
3.23681e-05
-0.000129388
-0.000132609
0.000261997
-1.86761e-05
-0.000249565
-1.022e-05
-0.000258721
2.32248e-05
0.000211669
-0.000235584
3.14453e-05
-0.000220293
0.000190384
-2.51887e-05
0.000330071
-0.000305203
-0.000279329
0.000273701
5.62802e-06
0.000156129
-0.000296857
0.000140729
-5.92384e-05
-0.00015037
0.000207763
0.000143277
0.0001218
-0.000265077
-0.000250068
0.000225699
-0.000213183
0.00015218
-0.000168813
0.000327181
-0.000158369
0.000185389
7.16523e-05
-0.000257041
0.000255193
2.07481e-05
-0.000192277
0.000148317
5.03344e-05
0.000265372
0.000307515
-0.000290183
9.37784e-05
-0.000240328
0.000135241
0.000117096
-0.000281065
-1.44027e-06
0.000245383
-0.000244386
0.000166489
0.000122836
-0.000289325
0.000145262
9.05248e-05
-3.92002e-06
0.000259113
0.000304193
5.42299e-06
-0.000323715
0.000314802
8.85027e-06
-3.99002e-05
0.000236293
-0.000196393
4.08802e-06
-0.000284257
-2.51523e-05
0.000167908
-0.000146757
-0.000163797
0.00013374
0.000209557
-0.000177183
-0.000269921
0.000264965
4.95602e-06
2.64041e-05
0.000174721
-0.000201125
2.87841e-05
-0.000257265
0.000228481
0.000276137
-0.000262669
0.000115108
0.000212073
0.000216135
-0.000192547
-0.000175813
0.000202217
1.3716e-05
0.000282915
-0.000296407
0.000269704
2.1773e-05
0.000272047
-0.000283022
1.24055e-05
3.86402e-06
0.000267513
-1.8254e-05
0.000291332
0.00033078
1.00041e-05
0.000213743
-0.000257689
0.000315978
-0.000315979
-6.63603e-06
-0.000272693
2.81381e-05
0.000202508
0.000187993
3.98722e-05
-0.000227865
-5.47852e-05
0.000217313
-0.00016317
0.000153609
-0.000270285
0.000116676
0.000279441
-0.000329701
5.02602e-05
-6.38122e-05
0.000249201
-0.000166909
0.000315897
-0.000148989
-0.000313906
-9.98247e-06
-0.000214929
0.000175029
2.78601e-05
-0.000278349
0.000276221
-1.88441e-05
-0.000248613
1.71615e-05
-0.000302511
0.000285048
0.000344989
-0.000158593
-0.000186397
-1.69601e-05
-0.000241184
0.000257642
-0.000266617
-3.30401e-06
0.000224001
2.45841e-05
-0.000248585
0.000284509
-0.000128381
0.000140197
0.000138853
-0.000279049
-0.000199054
-1.10764e-05
0.000258169
-0.000115551
0.000225588
-0.000242526
-6.38122e-05
0.000251805
-0.000207536
0.000249481
-5.60002e-07
-0.000248921
0.000255109
-0.000237441
-0.00032693
0.00030166
-3.08841e-05
0.000203169
-0.000172285
0.000291422
1.26907e-06
-0.000292845
7.34213e-05
0.000129704
-0.000203259
4.65607e-05
-0.000199076
-0.000288751
-4.60218e-06
0.00029381
-1.59373e-06
-0.000286968
0.000146973
-0.000273925
0.000126952
-0.000262954
0.000219891
-0.000294554
0.00026624
0.000279441
-0.000312615
-1.24199e-05
0.000325124
0.000112424
0.000163402
-2.14041e-05
0.000352241
0.000140141
0.000139833
-0.000279973
0.000245029
-0.000250349
5.32002e-06
-0.000210953
0.000180069
0.000279133
-5.43202e-06
0.000350894
-3.25921e-05
-0.000301388
0.000301854
-2.93166e-06
0.000270985
-0.000270985
-0.000364803
0.000225988
0.000138851
-0.000207104
1.96735e-05
1.68884e-05
0.000275157
-0.000278461
3.30401e-06
-5.14561e-06
0.00017331
-0.000167515
-0.000197345
0.000254801
-5.74562e-05
-0.000206006
4.54785e-06
-0.000248101
0.000163491
8.36481e-05
-0.000180265
0.000261403
-8.1139e-05
0.000256285
-0.000287113
3.08281e-05
-0.000249229
5.18842e-05
-2.34566e-05
0.000276301
-0.000252976
-0.000253547
1.35801e-06
0.000252189
0.000231281
-7.28003e-06
-0.000294157
7.60085e-06
0.00028653
-0.000266085
0.000266085
-0.000285092
-5.53091e-05
-0.000170719
-0.00019407
-0.000172602
0.000215987
-4.48258e-05
-1.232e-05
-0.000239177
0.000251497
3.10801e-06
0.000210113
-0.000213221
-0.000184355
-2.21842e-05
0.000206502
7.53205e-06
0.000294461
-0.000302005
-0.000236153
-1.34401e-05
0.000249593
1.50361e-05
-0.000251189
-0.000241025
0.000256061
-0.000301318
0.000308856
0.000256117
7.16803e-06
-0.000173553
-3.24219e-05
0.000204553
-0.000145237
-0.000134765
-0.000244329
0.000240549
0.000298676
-4.22915e-07
-0.000298341
-0.000298799
6.20852e-07
0.000298144
1.9327e-05
0.000181217
0.000163773
7.70043e-05
-0.000257269
-0.000159242
0.000310908
0.000250721
-0.000108677
-0.000235145
-1.83681e-05
0.000253513
-0.000204636
-0.000126837
0.000331457
-6.10402e-06
-0.000229125
0.000235229
-2.22415e-05
-0.000184779
-0.000286061
-8.53982e-05
6.2706e-06
-0.000300435
-0.000212578
0.000328043
-0.000115486
0.000281597
0.000288205
-5.16322e-05
0.000271993
-1.57081e-05
-0.000186465
-1.43627e-05
0.000201485
0.000297584
4.21968e-07
-0.000297963
-0.000270748
-3.22584e-05
-0.000218821
0.000247605
-2.52365e-05
0.000310635
-0.000285385
0.000180993
7.88918e-06
-0.000187623
-3.45369e-05
0.000216411
-0.000301239
0.000276046
0.000291695
5.67202e-06
-0.00029767
0.000157445
0.00011886
-0.000276305
0.00028952
5.89081e-06
-0.000294759
-0.000250679
0.000124292
0.000132415
-0.0002819
0.000295543
0.000302513
-0.000156857
-0.000145657
0.000207005
-0.000203897
-0.000232009
-0.000121156
-0.000155009
-4.015e-06
-0.00029396
0.000297941
-1.0136e-05
0.000276249
0.000290999
-2.05387e-05
-0.000270063
-0.000262997
2.89308e-05
0.000234049
0.000271433
-0.000267569
0.000249621
2.95121e-05
0.000314933
-9.79418e-06
-0.000305386
4.98516e-05
0.000155975
-0.000205997
-0.000101139
0.000200051
-9.76408e-05
0.000252617
-2.91201e-05
-0.000223497
3.16096e-07
0.00029144
-0.00018455
-3.16879e-05
0.000204266
-1.68086e-06
0.00029138
-9.33244e-05
0.000246933
-0.000255417
-5.26402e-06
0.000121184
0.000181329
1.34121e-05
0.000241557
-0.000254969
0.000236097
1.34961e-05
-0.000249593
0.000249509
-0.000242929
0.000256425
6.46792e-05
-0.000205172
0.000140492
-0.000213809
0.000115941
-0.000206672
0.000297308
1.38662e-06
-0.000298668
0.000253849
2.22881e-05
0.000268493
-0.000216441
-5.20522e-05
0.000225518
-0.000246849
2.13305e-05
0.000257909
1.40841e-05
5.84749e-05
0.000294963
0.000267186
-3.89594e-05
-0.000228226
0.000176658
1.274e-05
0.000240297
-0.000253037
0.000194121
-0.000114239
-8.02437e-05
-0.000205906
2.10859e-05
-1.26743e-06
-0.000297957
0.000299073
0.000220553
-0.000167412
-5.21405e-05
0.000344591
-4.13505e-05
0.000275969
-0.000135829
2.31561e-05
0.000238337
-0.000261493
-0.000231141
0.000254297
-2.66676e-05
-0.000229745
0.000256424
0.000158119
-0.000162286
-7.50176e-05
-0.000167218
-0.000261723
4.14346e-05
0.000220288
-3.17521e-05
-0.00022997
7.78989e-06
0.000261717
-3.25193e-05
-0.000229198
1.66549e-05
0.000129578
-0.000199658
0.000308785
-0.000171397
0.000262319
-3.57923e-05
-0.000226526
-0.00031902
0.000171757
-9.83152e-05
-0.000228453
-6.90203e-05
2.34413e-07
-0.000300543
0.00030011
-2.71384e-05
0.000180457
-0.00015459
0.000307877
6.84162e-06
0.000250097
-0.000248249
-1.84801e-06
-0.000175751
6.1701e-05
0.000260252
-3.07309e-05
-0.000229528
0.000197345
-0.000250769
5.34242e-05
0.000254206
-0.000231206
-2.29991e-05
-0.000252337
0.000240017
0.000143381
0.000100266
-0.000101864
-0.000170269
0.000132496
-0.000261885
-0.000290249
0.000242201
4.80482e-05
0.00021681
3.12472e-05
-0.000248056
-0.000239035
-9.4809e-06
0.000248419
0.000327125
-2.29904e-05
0.000263996
-3.42721e-05
-0.000229724
0.00014666
-0.000239417
9.32289e-05
3.63259e-05
-0.000265637
0.000229311
-0.000253905
0.000121296
0.000249817
-5.24722e-05
0.000294673
-0.000154253
-0.000140421
0.000122248
-0.000289157
1.53441e-05
0.000237665
-0.000253009
-0.000262031
3.54705e-05
0.00022656
-2.81226e-06
-3.77917e-05
-0.000224239
0.000248579
-0.000272641
-0.000264649
3.44737e-05
0.000230175
0.000193257
0.000101416
-0.000149941
0.000290137
-0.000173512
-3.82006e-05
0.000211709
-1.81721e-05
0.000263201
-0.00029297
0.000309797
0.000117874
0.000103605
0.000261325
-0.000261325
0.000307465
-2.0454e-05
-0.00029008
5.32002e-07
0.000248949
0.000254857
1.65761e-05
0.000309119
-0.000275922
-3.31431e-05
-2.26336e-05
0.000266577
-0.000243943
3.00077e-05
-0.000260519
0.000230511
-0.000252139
0.000229506
0.000328672
3.11501e-05
-0.000260598
0.000229447
0.000276809
-3.16961e-05
-6.65877e-06
-0.000294662
0.000301223
0.000270468
3.88924e-05
0.000230245
-0.000266617
3.63721e-05
0.000200832
-0.000201853
-0.000258301
0.000238533
1.97681e-05
0.000169762
-0.000257245
8.74835e-05
-0.000205643
0.000163241
-0.000249145
8.59043e-05
-0.000266169
0.000224813
4.13562e-05
0.000253073
-2.78797e-05
-0.000225194
0.000173444
4.26491e-05
-0.000234837
-2.29601e-05
0.000257797
-0.000236377
-2.28761e-05
0.000259253
-1.94265e-05
0.000255969
-0.000236542
-0.000259345
0.000239919
-3.50712e-05
0.000178778
-0.000235929
-2.24001e-05
0.000258329
-0.00025484
0.000229192
2.56481e-05
2.94001e-06
0.000211289
-0.000214229
-0.000267031
3.79849e-05
0.000229046
0.000270677
4.48002e-06
4.20879e-05
0.000165349
-0.0002046
-3.31191e-05
0.000249929
-2.09431e-05
0.000218597
9.73004e-05
0.000248201
-0.000216953
0.000277315
-0.000278651
0.00027725
-0.000281407
-1.84997e-05
0.000258601
-0.000240101
-0.000261644
0.000243145
3.02056e-05
-0.000201413
-2.99186e-05
-0.000206605
0.000234026
0.00031538
-0.000288099
-2.75239e-05
0.000261297
-3.11081e-05
-0.000230189
3.28739e-05
-0.000262362
0.000229488
-0.000229853
0.000259645
-2.97921e-05
0.000325408
-1.76171e-05
0.000147533
-0.000209526
0.000256929
-0.000109956
-0.000286091
0.000287262
0.000241977
-6.41202e-06
-0.000235565
0.000228537
-0.000177147
-3.78632e-05
0.000213611
2.81945e-05
-0.000210829
-0.000239989
0.000260317
-2.03281e-05
-0.000102503
0.000189532
-8.49683e-05
3.06922e-05
-0.000202339
0.000240169
-0.000263424
2.32552e-05
-0.000115584
0.000258861
-0.000243993
0.000265721
-2.17281e-05
-0.000238953
0.000232541
0.000258626
-0.000245105
-1.35213e-05
0.000264349
-2.46681e-05
-0.000246317
-0.000272079
-1.04391e-05
0.000297807
-5.39894e-05
-7.04984e-06
0.000292172
-0.000286935
-0.000165461
0.000210047
0.000229276
1.79797e-05
-0.000246121
0.00032894
-0.000329211
0.000260955
-0.000245018
-1.59377e-05
-0.000301825
-6.672e-07
0.000305084
9.62667e-06
3.80663e-05
0.000176087
-0.000205702
0.000214973
-3.54479e-05
-0.000180735
0.000278054
-0.000255789
-2.22648e-05
-0.000218771
3.1848e-05
3.15421e-05
-0.000261891
0.000230348
0.000285472
-0.000292503
2.44721e-05
-0.000259617
-0.000257965
1.87881e-05
0.000266057
-1.64361e-05
0.000151173
-0.000267625
0.000116452
0.000298824
-4.38079e-06
0.000238617
-7.53763e-05
2.12521e-05
0.000177045
-0.000198297
-0.000183877
0.000205129
-0.000236275
0.000257219
-2.09441e-05
0.000261462
-3.31689e-05
-0.000228293
-0.000197009
-5.21362e-05
0.000251581
-1.48401e-06
8.76323e-06
-0.000265321
0.000256505
-0.00034507
0.000237592
0.000106954
0.000266371
-0.000236811
-2.95597e-05
0.000306858
-0.000314682
7.76544e-06
-2.57041e-05
-0.000229097
0.000254801
0.000261493
-7.64403e-06
1.02655e-05
-0.000208744
0.000262411
-3.19033e-05
-0.000230508
-6.90483e-05
-0.000260653
-0.000194685
0.000248025
-5.33402e-05
-0.000266533
0.000249985
1.65481e-05
-0.000317947
1.66477e-05
-1.741e-05
0.000296803
-0.000279108
-0.000276221
1.65481e-05
0.000249537
-0.000164669
6.36481e-05
0.000273711
1.47803e-05
-0.000288448
-0.000316071
0.000307814
8.19872e-06
3.46641e-05
-0.000263649
0.000228985
-1.74919e-05
0.000281314
-0.000315183
1.63425e-05
-0.000176541
-7.42283e-05
-0.000232393
0.000199937
-2.16721e-05
-0.000216469
0.000238141
-0.000314798
0.00029621
1.89408e-05
-0.00013115
0.00027345
-0.000140633
-8.36214e-06
3.31521e-05
-0.000263453
0.000230301
-0.000207134
2.51508e-05
0.000184211
0.000221527
0.000280736
-0.000280634
2.40832e-07
-0.000236993
-2.20921e-05
0.000224813
-0.000202721
0.000139273
0.000143753
-0.000278517
0.00020272
-5.74153e-05
0.000308184
-1.05671e-05
0.000209301
-0.000268906
2.92853e-05
0.00022306
-0.000252345
-0.000321595
0.000138145
0.000296262
2.9172e-05
1.94338e-05
-0.000224355
-2.77845e-05
-0.000135587
-0.000133028
-0.00032634
0.000113525
0.000242873
2.56201e-05
0.000218765
-0.000224869
1.09733e-05
-0.000287823
0.000276408
-0.000243264
0.00027092
-2.72958e-05
0.000281441
-0.000281992
0.000284252
-7.70851e-05
-8.90624e-06
0.000290251
-1.87881e-05
0.000247101
-0.000228313
0.000281405
-0.000290349
-5.61444e-06
-0.000283947
0.000289611
0.00028202
-0.000269796
0.000284675
0.000226314
2.67597e-05
-0.000306294
0.000317064
-8.51665e-06
0.000251298
-2.11005e-05
0.000227183
2.40321e-05
-0.000268913
0.000246057
-2.05381e-05
-0.000259401
3.02849e-05
0.000229116
0.000178305
7.64963e-05
9.92732e-06
0.000281576
-0.000291784
-0.000238141
-2.88401e-05
0.000266981
2.51441e-05
-0.000263285
0.000284117
-0.000162317
-0.000232177
0.000261129
-2.89521e-05
-0.000234697
0.000260709
-2.60121e-05
1.4787e-06
0.000279275
2.45001e-05
-0.000259197
2.38001e-05
-0.000255977
0.000274252
-0.000242913
-3.13506e-05
0.000317778
-9.98646e-06
-0.000306099
-4.67924e-07
-0.000255753
1.1816e-05
0.000243937
-1.49829e-05
-0.000261185
0.000228066
-0.000245337
0.000270145
-2.48081e-05
-0.000263229
1.49801e-05
-2.35571e-05
0.000286163
-0.000262544
2.13641e-05
-0.000266701
-0.000241611
-2.13995e-05
3.26838e-05
-9.0432e-05
0.000260194
0.000280687
-0.000286281
5.05122e-05
0.000237693
0.00028209
-0.000281632
-0.000243181
-2.39401e-05
0.000267121
-0.000260894
7.34723e-06
-0.000295239
1.94744e-05
0.000276034
-0.000268717
2.55361e-05
-8.37394e-06
0.000290746
-0.000268326
0.000243549
2.47773e-05
-0.000232513
0.000210841
0.000279838
-0.000288085
-6.16002e-07
0.000260289
-0.000259673
-0.000301853
-1.60891e-05
-0.000264573
2.35481e-05
-0.00024417
-2.41555e-05
-3.43281e-05
-0.000297814
0.000293777
0.000286674
-0.000158327
0.000296581
-0.000291333
2.30152e-05
4.84568e-06
0.000262653
-0.000255557
-7.18792e-06
0.000307692
-2.02112e-05
-0.000287552
5.91795e-05
-0.000246765
-2.19521e-05
-0.000356327
0.00024176
0.000283758
-0.000278031
2.33801e-05
-0.000190681
-1.59474e-05
-0.000306332
2.56443e-05
0.000280745
-0.00019678
0.000310899
-0.0001136
0.000259841
-0.000238533
-2.13081e-05
-0.000291573
2.94001e-05
0.000222097
-0.000251497
-0.000163584
0.00013625
-0.000166461
0.000251441
-0.000238029
-1.34121e-05
-0.000263873
3.40201e-05
-2.23161e-05
-0.000269837
0.000251469
0.000230427
3.12901e-05
-4.62353e-05
0.00020166
0.000232619
-0.000260499
-1.74078e-05
-3.32225e-06
0.000246385
-0.000242695
-0.000293339
-0.000237049
0.000265189
-2.81401e-05
0.000230096
3.22225e-05
-0.000268521
2.55921e-05
-0.000239905
-2.86161e-05
0.000228954
-0.000260706
-0.000282489
4.73202e-05
-0.000242005
0.000292761
-0.000282686
-0.000288727
1.32845e-05
0.000275836
-4.75915e-06
0.000216018
0.000228551
-0.00026107
0.000296885
-0.0001309
-0.000165985
0.000241507
-0.000261835
0.000270496
-0.000226213
-1.76681e-05
-0.000165337
0.000307516
-0.000142707
2.49649e-05
0.000222662
-0.000247627
-0.000193016
0.000193602
-0.000283552
0.000282284
6.99188e-06
-0.000290557
-0.000302485
0.000146693
0.000155793
0.000259995
-0.000239359
-2.06361e-05
-0.000215741
0.000193649
0.000261668
3.58694e-07
0.000257293
0.000232526
2.16796e-05
-0.000295667
-6.22231e-05
1.01815e-05
0.000231726
-0.000250483
1.83148e-05
-0.000230917
-2.37161e-05
0.000254633
-0.000242295
0.000263191
-2.08965e-05
8.40529e-05
0.000136149
2.01364e-05
-0.000305889
0.000285776
0.000256565
-1.80041e-05
-0.000238561
0.000243881
-0.000254017
1.0136e-05
-0.000226745
0.000207957
0.000223131
-0.000258923
-0.000244693
4.76842e-05
1.59166e-05
-0.000137767
-0.000218587
1.57921e-05
0.000245701
0.000280837
0.000294033
0.000305894
1.66566e-06
0.000249817
-0.000220417
2.51749e-05
0.000225009
-0.000250184
-0.000243178
0.000268865
-2.56873e-05
2.28201e-05
-0.000262725
-0.000118177
0.000295432
9.13739e-06
2.08181e-05
0.000261675
-0.000235103
-2.65721e-05
1.30542e-05
-0.000303826
0.000290534
0.000321672
-3.09608e-05
-0.000290714
0.000249733
1.63241e-05
0.000305935
-0.000293102
-0.000231925
-0.000113048
9.63204e-06
0.000250657
-4.9129e-05
-0.00020239
0.000251519
2.20333e-05
0.000246832
-0.000241686
-2.29629e-05
0.000260737
-2.24001e-05
0.000287682
-0.000268023
2.63369e-05
2.68241e-05
-0.000257965
0.000210617
-0.000207677
2.58161e-05
-0.000262865
0.000280922
0.000121744
-0.000256173
0.000134429
1.76757e-05
3.9168e-05
0.000168775
-0.000207199
-0.000239485
-2.85377e-05
3.96119e-05
0.000160169
-0.000197488
-0.000246691
0.000271066
-2.43747e-05
0.000209866
-0.000248826
1.98857e-05
1.73259e-05
-0.000174166
-3.05141e-05
0.000226686
-0.000257414
-2.88401e-05
0.000244245
-0.000215405
-2.16161e-05
0.000242985
-0.000221369
0.000201657
-0.000250786
-0.000273629
-0.000232905
-2.55081e-05
0.000258413
0.000241234
2.98318e-05
-0.000208161
-2.47156e-05
0.000234502
-2.18821e-05
-0.000224967
-0.000239345
6.28042e-05
0.000259004
-0.000229718
4.75106e-05
-0.000249901
-3.43393e-05
0.000257694
-0.000223354
0.000205675
-0.000240014
0.000261689
-1.1956e-05
-6.06764e-05
-0.000229572
-0.000227217
-1.71442e-05
0.00024531
0.000247109
5.3175e-05
0.000212448
-0.000265623
-0.000261095
0.000177353
-0.000231757
5.44042e-05
6.44488e-05
0.000137158
0.000259457
-0.000240915
-2.47224e-05
-0.000265385
0.000227165
3.82201e-05
-2.87813e-05
-0.000222158
0.00025094
-0.00028435
0.000264161
0.000234501
3.61761e-05
2.18821e-05
0.000234087
-0.000307217
0.000151089
0.000156129
0.000171137
-5.31864e-05
0.000254045
-0.000115192
2.56901e-05
0.000217446
-0.000243136
-0.000286331
0.000286156
9.17328e-06
0.000257377
-0.000245953
0.000208937
3.70161e-05
0.000254832
0.000244927
-1.91311e-05
-0.000246815
-2.02161e-05
-0.000263019
2.0724e-05
-0.000269215
2.24001e-05
2.79601e-05
0.000220024
-0.000247984
0.000242481
-0.000274597
1.32721e-05
0.000248163
-1.47193e-05
1.30882e-05
-0.000250458
-0.000328702
0.0001241
-0.000233135
-2.62109e-05
-0.000252113
0.000252113
0.000259782
-0.000144217
-1.87642e-05
-0.000278008
0.000296608
0.000277056
0.000258749
-0.000135913
0.000224113
2.39205e-05
0.00023468
7.79871e-05
-0.000341664
3.76065e-05
0.000258962
1.76364e-05
-0.000248843
-3.00917e-05
0.000207453
-3.01001e-05
0.000259701
2.95429e-05
0.000218353
-0.000247896
-3.05014e-05
-4.09782e-05
-0.000217818
0.000258797
-0.000233423
-2.14173e-05
3.72493e-05
-0.000199393
0.000162771
-3.30877e-05
0.000221671
-0.000255943
-0.000281841
-8.38704e-06
0.000290193
-0.000199772
0.000166659
0.000166349
8.16763e-05
1.28598e-05
-0.000294721
0.000235075
2.59446e-05
-0.000261019
-0.000195175
-1.22614e-06
0.000232743
-0.000264287
3.15449e-05
-8.42803e-06
-0.000217029
0.000225457
-0.000162452
0.00020039
-0.000249985
-3.46025e-05
0.000256274
0.000218076
-0.000252679
-0.000246289
0.000272245
-2.59561e-05
0.000253547
2.78321e-05
-0.000232062
-2.95821e-05
-0.000298285
0.000316485
-1.82298e-05
2.33845e-05
0.000212462
-0.000250254
-0.000267233
2.09441e-05
-2.12801e-05
-0.000245953
-3.61481e-05
0.00024861
-0.000290173
-1.37772e-05
0.00022082
-0.000256968
0.000249103
-0.000251468
1.62103e-06
2.80002e-06
0.000181413
-0.000184213
0.000255294
0.000234529
2.67681e-05
-2.62361e-05
0.000245001
-0.000218765
3.36001e-05
0.000216609
-0.000250209
0.000244861
2.73841e-05
0.000306545
-0.000143949
-0.000162597
1.55712e-05
0.000238583
-0.000254747
0.000271013
-0.000113568
0.000225569
-0.000256677
-0.000241142
0.000104685
-0.000265469
7.16803e-06
-0.000241635
-2.75801e-05
-0.000241361
-2.48081e-05
0.000310561
-2.75596e-05
-7.67483e-05
0.000243097
-1.1452e-05
-0.000215601
0.000224281
-8.68003e-06
0.000255193
-7.68883e-05
3.48938e-05
-0.00020474
0.00016559
-0.000265245
-1.40001e-07
-4.14962e-05
3.98826e-05
0.000162278
-0.000198256
0.000202626
-0.000171515
0.000257041
-7.05603e-06
0.000251151
-0.000218277
-1.81647e-05
-2.1128e-05
0.000273444
-9.39363e-05
-0.000176535
-1.42801e-05
-0.000191913
0.000206193
0.000258665
-1.53553e-05
-0.00024331
1.98101e-05
0.000238855
-0.000279972
-7.90833e-06
3.72099e-05
-0.000192772
0.000154965
1.36921e-05
0.000247997
-0.000159421
0.000195837
-1.95189e-05
0.000248711
3.33041e-05
0.000184071
-0.000220432
-4.17202e-06
-2.49389e-05
0.000265108
-0.000231955
-3.14693e-05
0.000297029
-0.000281804
-1.52442e-05
1.63717e-05
-0.000237659
0.000221288
-0.00010514
0.000226885
1.92991e-05
-0.000305353
0.000286061
2.52001e-05
-2.79441e-05
2.69165e-05
0.000309
-0.000289667
0.000238891
1.97345e-05
2.15601e-06
0.000231617
-0.000233773
-0.00031088
2.56943e-05
0.000284938
-0.000162177
-0.000144145
0.000209178
-0.000250156
-0.000162052
0.000241924
1.90317e-05
0.000257462
-4.13534e-05
0.000250531
0.000214498
-0.000255851
0.000318626
-0.000319261
-1.06124e-05
0.000286396
-0.00027646
-0.000302662
1.95066e-05
0.000283349
4.20842e-05
-0.000286413
-4.01043e-05
0.000252483
2.62921e-05
-2.21353e-05
0.000307404
-0.000285319
2.43321e-05
3.92648e-05
0.000158724
-0.000200911
0.000249294
-0.000219751
2.83277e-05
-0.000261633
4.36802e-06
-1.99882e-05
0.000306682
-0.000286654
-0.000250987
-0.000266673
3.07441e-05
0.000252141
-0.000236741
-1.54001e-05
1.2264e-05
0.000239877
-0.000274954
-1.28652e-05
0.000255697
-7.00534e-06
0.000314415
-1.20164e-05
0.000298844
-0.00028659
-4.71683e-05
0.000247437
-0.000235621
0.000257601
-1.99361e-05
0.000133504
8.81117e-05
-0.000221869
0.000227405
3.03493e-05
0.000226759
-0.000258662
3.71393e-05
0.000271615
-0.000288827
1.68292e-05
0.000251273
-0.000239093
-1.31321e-05
0.000252225
-2.91201e-05
-0.000257265
2.56481e-05
0.000231617
-0.000228005
-2.92601e-05
0.000259765
-0.000233571
-2.61941e-05
0.000258721
-0.000266722
2.74725e-06
0.000288008
1.25134e-06
-0.000290467
0.000247057
-0.000231376
-1.85921e-05
0.000308831
-0.000300817
-7.99982e-06
0.000252139
-0.000101661
-0.000266897
2.56761e-05
0.000241221
-3.48881e-05
-0.000232009
-0.000266393
2.51161e-05
0.000241277
-1.20611e-05
-0.000267565
0.000279687
-3.45241e-05
-0.000231869
-0.00026182
1.84872e-05
-0.000266281
2.43881e-05
0.000241893
-0.000284028
-2.17438e-05
-0.000306107
2.75977e-05
0.000278451
-3.34041e-05
-0.000232877
-0.00017249
-0.000258133
2.94001e-05
0.000228733
0.000308796
-0.000308727
-0.000195805
0.000209049
-3.29281e-05
-0.000225205
0.000197423
-0.000279134
8.17253e-05
0.000283464
2.22902e-05
-0.000301953
1.76961e-05
0.000285804
-0.000280574
-4.84394e-06
-0.000257125
0.000231617
2.55081e-05
0.000172134
2.83698e-05
-0.000197417
-0.000266953
2.81681e-05
0.000238785
-0.000227361
-2.97641e-05
-3.67361e-05
-0.000230217
0.000274379
0.000297468
1.91109e-05
-0.000276206
-3.17227e-05
0.000307864
-0.000258679
-1.07261e-05
0.000297743
-0.000287112
1.49515e-05
-0.000301473
0.000286571
-0.000230609
-0.000307288
0.000287357
0.000263005
-2.5529e-05
-0.000280718
1.36081e-05
0.000160004
0.00023126
1.82773e-05
-0.000250033
-0.000202307
0.000164147
0.000236738
1.31517e-05
-0.00024989
-0.00025833
2.66093e-05
0.000231721
-1.09228e-05
0.000247661
5.74002e-06
0.000246877
-3.19817e-05
-0.000226348
0.00030003
-0.000286057
-1.39187e-05
0.000228024
-0.000226666
0.000290037
0.000237685
1.98521e-05
-0.000257537
-1.24236e-05
0.000250108
0.000246636
1.50389e-05
-0.00030562
1.54385e-05
0.00024448
2.18905e-05
3.18583e-05
-0.000198692
-0.000287385
-1.77462e-05
-0.000182869
0.000295177
-0.000151916
0.000182603
-3.30416e-05
3.12137e-05
-0.000198862
0.000165367
-0.00016499
0.000259149
-0.000239236
-1.99137e-05
0.000260429
-0.00027396
-0.000243216
0.000232821
-2.18623e-05
0.000301101
-0.000279258
0.000307584
-0.00029258
0.000242117
1.77241e-05
-0.000224975
0.00024443
-1.94545e-05
1.61001e-05
-0.000241075
-7.00003e-06
0.000260989
-0.000297321
4.87646e-06
0.000292479
-0.000174497
0.000160217
-1.74105e-05
-6.2761e-06
-0.000290958
-1.67459e-05
-0.000284829
4.28402e-06
-0.000299326
0.000135149
-0.00025745
2.37846e-05
0.000233732
0.000238197
1.32441e-05
-3.08207e-05
-0.000226652
-3.32035e-05
-0.000293224
2.09853e-05
-0.000226097
0.000207018
0.000254969
-0.000233465
-2.15041e-05
-0.00019701
0.000219418
-0.000185419
-7.3843e-06
0.000204923
0.000137437
0.000141441
3.92319e-06
0.000270471
0.000279878
-0.000305561
3.30157e-06
0.000244417
-1.98463e-05
0.0002986
-0.000278754
-0.000302431
0.000287361
1.47919e-05
-0.000258301
0.000230077
2.82241e-05
-2.64041e-05
-0.000231897
0.000300535
-0.000299486
0.000267718
-1.99643e-05
0.000304478
-0.000284457
0.000286526
-1.77619e-07
-0.000256873
0.000256873
-0.000268096
0.000295727
-0.000143205
-6.63034e-05
-7.1389e-06
0.000294429
-0.00028693
-0.000297983
0.000290962
0.000291636
-0.000279307
0.00029121
-0.000305585
1.55047e-05
3.51381e-05
-0.00023732
0.000215704
2.33578e-05
-1.45737e-05
-0.000249444
0.000232759
-1.4335e-05
0.000298506
-0.000284261
0.000263481
-1.96001e-05
0.000254224
-0.000235464
-1.87601e-05
-3.098e-05
-0.000273697
0.000304655
1.43664e-05
-0.000297275
0.00028276
-1.45881e-05
0.000233465
-0.000218877
0.000213626
-0.000295533
0.000283344
-1.92866e-05
0.000304721
-0.000285624
0.00025102
-2.69478e-05
0.000297269
-0.000270211
-0.000295566
0.000268917
1.07156e-05
0.000244749
-0.000255465
0.000305471
-0.0003123
6.81311e-06
1.77625e-05
1.55089e-05
0.00028711
-0.000301618
6.30426e-06
0.000281381
2.28222e-06
-0.000318329
-0.000287353
0.000302929
-0.000242481
0.000243657
8.45603e-06
-0.0002264
0.000242772
-0.00029376
0.000274417
0.000284118
-0.000152418
-8.37727e-05
0.000294476
1.44779e-05
3.15654e-05
-0.000200037
0.00016981
-0.00027471
0.000257293
-0.000219535
0.00024982
0.000243411
1.92865e-05
-0.000262697
0.000236019
2.31309e-05
-0.000300779
0.000282372
0.000312339
-1.79636e-05
0.000237945
-0.000257069
1.91241e-05
-0.000222494
0.000247459
0.00029425
1.805e-05
-0.000169123
-1.46278e-05
0.000298173
-0.000283603
-0.000142534
-0.000266415
0.000159993
0.000106423
-0.000309129
0.000295507
1.37028e-05
-0.000258699
0.000241826
1.68729e-05
-0.000154416
0.000156169
-0.00030667
0.000288817
1.78809e-05
-0.00021353
0.000175521
-9.69084e-06
0.000253101
2.0474e-05
1.75206e-05
-0.00030455
0.00028684
-0.000301012
-7.06196e-06
0.000308063
-0.000249229
0.000220109
-0.000201153
-8.52603e-05
-0.000272442
0.000252111
0.000303749
-0.00028635
-0.000190131
1.78726e-05
1.5055e-05
0.000284416
-0.000299494
-8.80603e-05
0.000239233
-0.000303499
1.94802e-05
0.000284092
-0.000206384
-2.79017e-06
-0.000298094
-0.000167286
2.05297e-05
0.000302777
-0.000289
-1.45462e-05
-0.000176629
-0.000299124
-0.000172695
-2.21802e-05
0.000243528
0.000289586
1.71548e-05
0.000252869
5.77478e-05
-0.000286168
-0.000247213
-0.00027123
-2.34156e-05
-0.000274688
0.000300382
-0.000262384
0.000282161
-0.00015804
-4.06337e-05
0.000203488
0.000197569
1.56521e-05
-0.000213221
-1.25032e-05
-0.000285763
0.000298375
1.83597e-05
1.85337e-05
-0.000305402
0.000286889
0.000253345
-1.71361e-05
-0.000236209
1.89605e-05
-0.000304801
0.000285925
2.03561e-05
0.000232989
0.000216385
-2.46121e-05
-0.000191773
1.5745e-05
0.00028267
-0.000298392
-0.000249605
0.000117788
-0.000303638
1.85761e-05
0.000285106
0.000223992
-5.15404e-05
-0.000295462
1.15907e-05
0.000285588
0.000255837
-2.19801e-05
-0.000233857
-0.000303724
0.000106338
0.000234529
1.70521e-05
-0.000251581
0.000280474
1.67732e-05
0.000304091
-0.000285046
1.7856e-05
-0.000299726
0.000233512
1.84916e-05
-0.000252004
-1.91819e-05
-1.43009e-05
0.00029832
-0.000283911
-0.000280058
0.000299762
-0.000277713
0.000291117
-0.000303899
1.18871e-05
0.000249741
-1.62291e-05
1.13631e-05
0.000250041
-1.55121e-05
0.000298689
-0.000282768
3.95922e-05
-0.00023823
2.21481e-05
-0.000253065