/*--------------------------------*- C++ -*----------------------------------*\
  =========                 |
  \\      /  F ield         | OpenFOAM: The Open Source CFD Toolbox
   \\    /   O peration     | Website:  https://openfoam.org
    \\  /    A nd           | Version:  12
     \\/     M anipulation  |
\*---------------------------------------------------------------------------*/
FoamFile
{
    format      ascii;
    class       volVectorField;
    location    "0.8";
    object      U;
}
// * * * * * * * * * * * * * * * * * * * * * * * * * * * * * * * * * * * * * //

dimensions      [0 1 -1 0 0 0 0];

internalField   nonuniform List<vector> 
9801
(
(0.951038 -0.0622071 0)
(0.953305 -0.0588503 0)
(0.953814 -0.0574377 0)
(0.955074 -0.0549092 0)
(0.957372 -0.0523528 0)
(0.958111 -0.0500328 0)
(0.957536 -0.0478549 0)
(0.955925 -0.0453427 0)
(0.954321 -0.0433149 0)
(0.953902 -0.0415515 0)
(0.954543 -0.0392193 0)
(0.956362 -0.0367458 0)
(0.956773 -0.0345299 0)
(0.956221 -0.0323439 0)
(0.954302 -0.0298626 0)
(0.952997 -0.0279443 0)
(0.95241 -0.0263223 0)
(0.952634 -0.0243444 0)
(0.955021 -0.0220527 0)
(0.956462 -0.019839 0)
(0.955543 -0.0177113 0)
(0.953011 -0.0149986 0)
(0.95129 -0.0124638 0)
(0.950212 -0.0103827 0)
(0.949822 -0.00845992 0)
(0.952385 -0.00577756 0)
(0.956337 -0.00293131 0)
(0.958339 -0.000646984 0)
(0.958305 0.00120076 0)
(0.957237 0.0025762 0)
(0.956107 0.00371363 0)
(0.9548 0.004803 0)
(0.953669 0.00567586 0)
(0.952201 0.00645713 0)
(0.951127 0.00762353 0)
(0.952668 0.00978507 0)
(0.953609 0.0122757 0)
(0.951975 0.0145553 0)
(0.949793 0.0163442 0)
(0.947787 0.0177221 0)
(0.946231 0.01885 0)
(0.944931 0.0195484 0)
(0.944483 0.0204514 0)
(0.945235 0.0219771 0)
(0.945008 0.0240828 0)
(0.943131 0.0267935 0)
(0.941527 0.0279167 0)
(0.940795 0.0290436 0)
(0.941182 0.0305556 0)
(0.940588 0.0320236 0)
(0.939015 0.0335574 0)
(0.937218 0.0348978 0)
(0.935867 0.0366097 0)
(0.934619 0.0380557 0)
(0.933497 0.0393509 0)
(0.934398 0.0410412 0)
(0.934412 0.0423921 0)
(0.932603 0.0435144 0)
(0.930585 0.0441798 0)
(0.928741 0.0453872 0)
(0.926768 0.0468852 0)
(0.925196 0.0481041 0)
(0.92381 0.0491358 0)
(0.923812 0.0504138 0)
(0.925698 0.0520187 0)
(0.925374 0.053171 0)
(0.922442 0.0539649 0)
(0.918397 0.0547423 0)
(0.915085 0.0560763 0)
(0.912514 0.0574229 0)
(0.910374 0.058351 0)
(0.908478 0.0589363 0)
(0.909605 0.0598207 0)
(0.912017 0.0608306 0)
(0.910496 0.0614452 0)
(0.906222 0.0621373 0)
(0.900465 0.0629061 0)
(0.896213 0.0634814 0)
(0.892938 0.0639231 0)
(0.890139 0.0642002 0)
(0.888848 0.0645985 0)
(0.890995 0.0653608 0)
(0.89058 0.0657688 0)
(0.886811 0.0658747 0)
(0.879666 0.0660932 0)
(0.87229 0.0671243 0)
(0.867253 0.0680727 0)
(0.863191 0.0688476 0)
(0.860401 0.0688862 0)
(0.861869 0.0693592 0)
(0.861465 0.0708119 0)
(0.856897 0.0725671 0)
(0.848581 0.0735092 0)
(0.834921 0.0734052 0)
(0.820365 0.0722902 0)
(0.805523 0.0678793 0)
(0.792291 0.0478801 0)
(0.647346 0.0062131 0)
(0.153175 0.00518269 0)
(1.00505 -0.0966858 0)
(1.00629 -0.0944884 0)
(1.0062 -0.0932822 0)
(1.0069 -0.0912035 0)
(1.00866 -0.0887159 0)
(1.00854 -0.0865881 0)
(1.00753 -0.0847971 0)
(1.00544 -0.0825341 0)
(1.00308 -0.0803732 0)
(1.00219 -0.0788633 0)
(1.00259 -0.0765564 0)
(1.00381 -0.0741896 0)
(1.00324 -0.072166 0)
(1.0022 -0.0703376 0)
(0.999489 -0.0680244 0)
(0.997277 -0.0661124 0)
(0.996211 -0.0646913 0)
(0.996471 -0.0626045 0)
(0.998256 -0.0602458 0)
(0.99844 -0.0578604 0)
(0.99713 -0.0557111 0)
(0.994484 -0.0534537 0)
(0.991199 -0.0512791 0)
(0.988962 -0.0493775 0)
(0.987704 -0.0478695 0)
(0.988029 -0.0456454 0)
(0.989705 -0.0425256 0)
(0.98987 -0.0402495 0)
(0.988522 -0.0388331 0)
(0.986479 -0.0375541 0)
(0.982923 -0.0357195 0)
(0.97971 -0.0336539 0)
(0.977743 -0.0319696 0)
(0.976229 -0.0305194 0)
(0.976156 -0.028914 0)
(0.977366 -0.0269911 0)
(0.976946 -0.0244409 0)
(0.975092 -0.022189 0)
(0.972903 -0.0200115 0)
(0.969815 -0.0174962 0)
(0.967738 -0.0155463 0)
(0.966672 -0.0139842 0)
(0.966653 -0.0127478 0)
(0.965666 -0.011216 0)
(0.963952 -0.00880635 0)
(0.961381 -0.00589868 0)
(0.959253 -0.00406679 0)
(0.958898 -0.00208963 0)
(0.959345 2.00379e-05 0)
(0.958344 0.00160298 0)
(0.956666 0.00307936 0)
(0.953797 0.00489058 0)
(0.950924 0.00674105 0)
(0.948643 0.00845338 0)
(0.946655 0.0100658 0)
(0.946186 0.0126917 0)
(0.946576 0.0159285 0)
(0.945785 0.0176257 0)
(0.944198 0.0187437 0)
(0.94141 0.0203004 0)
(0.938034 0.022024 0)
(0.935643 0.0233878 0)
(0.933643 0.0245828 0)
(0.93187 0.0260508 0)
(0.931772 0.0291755 0)
(0.931475 0.0321414 0)
(0.929727 0.0336987 0)
(0.926434 0.0352386 0)
(0.921527 0.036992 0)
(0.918274 0.0384607 0)
(0.916161 0.0394745 0)
(0.914402 0.0402528 0)
(0.914409 0.0413193 0)
(0.914736 0.0437906 0)
(0.912856 0.0460433 0)
(0.909283 0.0477771 0)
(0.902935 0.0496912 0)
(0.897542 0.0518561 0)
(0.894299 0.0536557 0)
(0.891694 0.0546499 0)
(0.890347 0.0555906 0)
(0.891816 0.0573218 0)
(0.890737 0.0593559 0)
(0.887446 0.0601629 0)
(0.881232 0.0610034 0)
(0.873046 0.0617276 0)
(0.867268 0.0634936 0)
(0.863113 0.0641422 0)
(0.859888 0.0651084 0)
(0.859189 0.0674308 0)
(0.857439 0.0711176 0)
(0.852846 0.0731384 0)
(0.845489 0.0734729 0)
(0.831935 0.0722647 0)
(0.816121 0.071524 0)
(0.80088 0.0695191 0)
(0.789354 0.0582852 0)
(0.658517 0.0326215 0)
(0.168924 0.035257 0)
(1.00255 -0.0945867 0)
(1.00339 -0.0922285 0)
(1.00299 -0.0909187 0)
(1.00352 -0.0890676 0)
(1.00527 -0.086606 0)
(1.00522 -0.0845148 0)
(1.00428 -0.0827408 0)
(1.00218 -0.0804637 0)
(0.999858 -0.0783756 0)
(0.998859 -0.0769236 0)
(0.999184 -0.0745937 0)
(1.00034 -0.0721195 0)
(0.999913 -0.0702015 0)
(0.9989 -0.0684567 0)
(0.996291 -0.0662679 0)
(0.994002 -0.0644419 0)
(0.992818 -0.0629816 0)
(0.992965 -0.0607719 0)
(0.994679 -0.0583439 0)
(0.995017 -0.0562093 0)
(0.99393 -0.0541774 0)
(0.991538 -0.0518798 0)
(0.988014 -0.0496354 0)
(0.985627 -0.0477826 0)
(0.984291 -0.046242 0)
(0.984458 -0.0443 0)
(0.986315 -0.0416711 0)
(0.986579 -0.0393614 0)
(0.985187 -0.0375628 0)
(0.982935 -0.0359045 0)
(0.979336 -0.0342796 0)
(0.976418 -0.032779 0)
(0.974596 -0.0313184 0)
(0.973219 -0.0296605 0)
(0.973228 -0.0277637 0)
(0.974032 -0.0258145 0)
(0.973686 -0.0237041 0)
(0.972033 -0.021425 0)
(0.969611 -0.0187446 0)
(0.966794 -0.0163296 0)
(0.96494 -0.0145478 0)
(0.964089 -0.0126789 0)
(0.963697 -0.011343 0)
(0.962494 -0.0102669 0)
(0.96092 -0.00855253 0)
(0.95842 -0.00576896 0)
(0.956282 -0.00351338 0)
(0.955804 -0.00102571 0)
(0.956312 0.00148959 0)
(0.955401 0.00305077 0)
(0.953772 0.00429059 0)
(0.951225 0.00539907 0)
(0.948477 0.00650181 0)
(0.946008 0.00816875 0)
(0.94389 0.0102043 0)
(0.943042 0.0128612 0)
(0.943705 0.0164506 0)
(0.943156 0.0189197 0)
(0.941519 0.0202497 0)
(0.939061 0.0211848 0)
(0.93578 0.0218905 0)
(0.933024 0.0227639 0)
(0.930828 0.0241517 0)
(0.929071 0.025891 0)
(0.928835 0.0286598 0)
(0.92882 0.0319246 0)
(0.92719 0.0343102 0)
(0.92417 0.0363006 0)
(0.919748 0.0372866 0)
(0.916319 0.0378551 0)
(0.91362 0.0385271 0)
(0.911446 0.039551 0)
(0.911353 0.04119 0)
(0.911534 0.0433107 0)
(0.909898 0.0454339 0)
(0.90683 0.0477702 0)
(0.900819 0.0499196 0)
(0.895576 0.0513711 0)
(0.892015 0.0527055 0)
(0.889158 0.0537817 0)
(0.887757 0.0549267 0)
(0.888968 0.0566926 0)
(0.888196 0.0586088 0)
(0.885284 0.0597504 0)
(0.87962 0.0609451 0)
(0.870496 0.0609944 0)
(0.863962 0.0615234 0)
(0.859576 0.0626177 0)
(0.856002 0.0637956 0)
(0.854027 0.065936 0)
(0.852243 0.0678821 0)
(0.84835 0.0685322 0)
(0.842744 0.0684681 0)
(0.831541 0.0679172 0)
(0.81601 0.065292 0)
(0.802386 0.0616309 0)
(0.796939 0.0510115 0)
(0.669926 0.0385732 0)
(0.186096 0.0381475 0)
(0.998344 -0.0934542 0)
(0.999141 -0.0907541 0)
(0.998587 -0.0892023 0)
(0.99895 -0.0874174 0)
(1.00046 -0.0852462 0)
(1.00044 -0.0832477 0)
(0.999583 -0.0814547 0)
(0.997686 -0.0792253 0)
(0.995468 -0.0771361 0)
(0.99435 -0.0756722 0)
(0.994454 -0.0734801 0)
(0.995619 -0.0709537 0)
(0.995336 -0.0690272 0)
(0.99441 -0.0673618 0)
(0.992069 -0.0652557 0)
(0.98972 -0.0633248 0)
(0.988472 -0.0618507 0)
(0.988588 -0.059653 0)
(0.990274 -0.0571788 0)
(0.99049 -0.0552121 0)
(0.989502 -0.0534758 0)
(0.987434 -0.0512762 0)
(0.984079 -0.0486912 0)
(0.981731 -0.0467675 0)
(0.980412 -0.045279 0)
(0.980438 -0.0434521 0)
(0.981964 -0.0412905 0)
(0.982314 -0.0391217 0)
(0.981147 -0.0371528 0)
(0.979072 -0.0352648 0)
(0.975485 -0.0333119 0)
(0.972518 -0.031895 0)
(0.970823 -0.0308046 0)
(0.96969 -0.0293773 0)
(0.970045 -0.0273624 0)
(0.970523 -0.02529 0)
(0.96987 -0.0232195 0)
(0.968263 -0.0209339 0)
(0.96584 -0.0181471 0)
(0.963248 -0.0158043 0)
(0.961585 -0.0142337 0)
(0.961136 -0.0122953 0)
(0.960858 -0.0106115 0)
(0.959459 -0.00934971 0)
(0.957322 -0.00775159 0)
(0.954546 -0.00560441 0)
(0.952433 -0.0035604 0)
(0.951788 -0.000986751 0)
(0.952766 0.00215293 0)
(0.952351 0.00402149 0)
(0.950954 0.00512042 0)
(0.948826 0.00606086 0)
(0.945571 0.00693947 0)
(0.942451 0.00846125 0)
(0.940035 0.0105711 0)
(0.938627 0.0129832 0)
(0.9392 0.0165918 0)
(0.939807 0.0194905 0)
(0.938635 0.0208525 0)
(0.936772 0.0214758 0)
(0.933578 0.0219683 0)
(0.93018 0.0226797 0)
(0.927371 0.024177 0)
(0.925221 0.0262292 0)
(0.924121 0.0290677 0)
(0.924306 0.0326637 0)
(0.923411 0.0350563 0)
(0.921337 0.0361637 0)
(0.917926 0.0367699 0)
(0.914374 0.0368897 0)
(0.911696 0.0375172 0)
(0.909324 0.0386649 0)
(0.908051 0.0410262 0)
(0.907346 0.044071 0)
(0.90575 0.0465254 0)
(0.903207 0.0484366 0)
(0.898502 0.0499646 0)
(0.893314 0.0504095 0)
(0.889727 0.0509373 0)
(0.886726 0.0517214 0)
(0.884816 0.0530777 0)
(0.884957 0.0553392 0)
(0.884124 0.0578226 0)
(0.881578 0.0594435 0)
(0.877231 0.0608953 0)
(0.868521 0.061156 0)
(0.860752 0.0605742 0)
(0.855956 0.0608686 0)
(0.852101 0.0616218 0)
(0.84941 0.0634014 0)
(0.847307 0.065724 0)
(0.843529 0.0674667 0)
(0.838601 0.0679614 0)
(0.831566 0.0675551 0)
(0.819597 0.0638665 0)
(0.806677 0.0584527 0)
(0.802819 0.0480778 0)
(0.675077 0.0436664 0)
(0.202403 0.040674 0)
(0.994052 -0.0915353 0)
(0.994785 -0.0889739 0)
(0.994174 -0.0874946 0)
(0.994566 -0.0854244 0)
(0.99596 -0.0830915 0)
(0.995956 -0.081124 0)
(0.995155 -0.0794306 0)
(0.993445 -0.077445 0)
(0.9913 -0.0754766 0)
(0.990056 -0.0739537 0)
(0.989933 -0.0718072 0)
(0.991162 -0.0691962 0)
(0.991093 -0.0672395 0)
(0.990243 -0.0656442 0)
(0.988128 -0.063647 0)
(0.985755 -0.061717 0)
(0.98445 -0.0603109 0)
(0.984536 -0.0582266 0)
(0.986416 -0.0556211 0)
(0.986622 -0.053623 0)
(0.985581 -0.0519763 0)
(0.98344 -0.0498687 0)
(0.980326 -0.0475278 0)
(0.978169 -0.0457323 0)
(0.976947 -0.0442475 0)
(0.977217 -0.0422577 0)
(0.978419 -0.0401783 0)
(0.978459 -0.0382551 0)
(0.977383 -0.0364064 0)
(0.975536 -0.0345112 0)
(0.972349 -0.032348 0)
(0.969521 -0.0307088 0)
(0.967814 -0.0295836 0)
(0.966739 -0.0283444 0)
(0.967255 -0.0264591 0)
(0.967642 -0.0244923 0)
(0.966846 -0.0225193 0)
(0.965182 -0.0202205 0)
(0.962804 -0.0174309 0)
(0.960502 -0.0150018 0)
(0.95901 -0.0132373 0)
(0.958677 -0.0114141 0)
(0.958396 -0.00979871 0)
(0.957032 -0.00847355 0)
(0.954775 -0.00685692 0)
(0.951549 -0.00488229 0)
(0.949214 -0.003047 0)
(0.948116 -0.000927316 0)
(0.949367 0.00240047 0)
(0.949789 0.00481226 0)
(0.948593 0.00602351 0)
(0.946711 0.00690948 0)
(0.943247 0.00785042 0)
(0.939127 0.00922933 0)
(0.936389 0.0110821 0)
(0.934746 0.0129843 0)
(0.934924 0.0160021 0)
(0.936502 0.0191487 0)
(0.936017 0.0209692 0)
(0.934368 0.0218653 0)
(0.931713 0.0226668 0)
(0.927563 0.0233413 0)
(0.923824 0.0247695 0)
(0.921273 0.0268358 0)
(0.919801 0.0291711 0)
(0.920155 0.0321666 0)
(0.920124 0.0343846 0)
(0.918558 0.0354973 0)
(0.916207 0.0361575 0)
(0.912625 0.0366878 0)
(0.909044 0.0374809 0)
(0.906185 0.0390929 0)
(0.904013 0.0414286 0)
(0.903101 0.0449423 0)
(0.90222 0.0476518 0)
(0.900206 0.0487843 0)
(0.896901 0.0493589 0)
(0.891621 0.0490558 0)
(0.887686 0.0490252 0)
(0.884547 0.0495356 0)
(0.881772 0.0508541 0)
(0.880278 0.0539302 0)
(0.879402 0.0577786 0)
(0.877351 0.0604214 0)
(0.874298 0.0615551 0)
(0.868265 0.0617478 0)
(0.85984 0.0597482 0)
(0.853912 0.0591461 0)
(0.84998 0.059298 0)
(0.847196 0.0601508 0)
(0.845416 0.0618309 0)
(0.842241 0.0632905 0)
(0.837872 0.0640559 0)
(0.832778 0.0642952 0)
(0.824133 0.0633615 0)
(0.812459 0.0594848 0)
(0.807198 0.0483395 0)
(0.67889 0.0437383 0)
(0.219098 0.0414197 0)
(0.990219 -0.0897322 0)
(0.990821 -0.0874684 0)
(0.990066 -0.086012 0)
(0.990299 -0.0839156 0)
(0.991772 -0.08125 0)
(0.991958 -0.0791859 0)
(0.991228 -0.077646 0)
(0.989674 -0.0758716 0)
(0.987512 -0.0739268 0)
(0.98617 -0.07236 0)
(0.985878 -0.0703311 0)
(0.987215 -0.0676729 0)
(0.987382 -0.0656527 0)
(0.986605 -0.0640552 0)
(0.984703 -0.0621105 0)
(0.982377 -0.0602025 0)
(0.981008 -0.0588552 0)
(0.980866 -0.057026 0)
(0.982809 -0.0543748 0)
(0.983246 -0.0521573 0)
(0.982321 -0.0503964 0)
(0.980307 -0.0483943 0)
(0.977253 -0.0463672 0)
(0.975122 -0.0447384 0)
(0.973907 -0.043345 0)
(0.97423 -0.0412551 0)
(0.975499 -0.0389873 0)
(0.975453 -0.037198 0)
(0.974396 -0.0355797 0)
(0.972638 -0.0338163 0)
(0.969708 -0.0316775 0)
(0.967119 -0.0298547 0)
(0.965506 -0.0284758 0)
(0.964599 -0.027099 0)
(0.965206 -0.0253273 0)
(0.96549 -0.0235165 0)
(0.964652 -0.0216932 0)
(0.962932 -0.0195096 0)
(0.960453 -0.0168761 0)
(0.958303 -0.0145799 0)
(0.957101 -0.0125117 0)
(0.957042 -0.0105371 0)
(0.956625 -0.00897437 0)
(0.95528 -0.00764264 0)
(0.953024 -0.00601396 0)
(0.949547 -0.00397979 0)
(0.947002 -0.00220666 0)
(0.945537 -0.00065054 0)
(0.946346 0.00218811 0)
(0.947597 0.00498333 0)
(0.946747 0.00658237 0)
(0.945018 0.00762119 0)
(0.941643 0.00898164 0)
(0.936863 0.010461 0)
(0.933874 0.0119884 0)
(0.932112 0.0133029 0)
(0.931768 0.0153983 0)
(0.933639 0.0184141 0)
(0.933841 0.0206302 0)
(0.93238 0.0219969 0)
(0.93013 0.0231291 0)
(0.925699 0.0243452 0)
(0.92088 0.0259964 0)
(0.918107 0.0277721 0)
(0.916527 0.0294745 0)
(0.91703 0.0319092 0)
(0.917689 0.0338108 0)
(0.916493 0.0349418 0)
(0.91446 0.0356451 0)
(0.911086 0.0363758 0)
(0.906292 0.0373974 0)
(0.902456 0.0392767 0)
(0.899901 0.0414793 0)
(0.89899 0.0446238 0)
(0.899291 0.0476789 0)
(0.89799 0.048864 0)
(0.895624 0.0490851 0)
(0.891199 0.0486837 0)
(0.885944 0.047866 0)
(0.881881 0.0484757 0)
(0.878525 0.0498082 0)
(0.876028 0.0520078 0)
(0.875208 0.0558772 0)
(0.874223 0.0592682 0)
(0.871734 0.0612114 0)
(0.86821 0.0617246 0)
(0.861288 0.0605685 0)
(0.853679 0.0580492 0)
(0.84887 0.0575337 0)
(0.845228 0.0577132 0)
(0.842719 0.059502 0)
(0.84002 0.0615996 0)
(0.836272 0.0624803 0)
(0.832088 0.0624545 0)
(0.827142 0.0618509 0)
(0.818521 0.0594685 0)
(0.812484 0.0498257 0)
(0.682695 0.0440476 0)
(0.236101 0.0422489 0)
(0.987288 -0.0878073 0)
(0.987808 -0.0856446 0)
(0.986891 -0.0840334 0)
(0.986821 -0.0822313 0)
(0.988283 -0.0796046 0)
(0.988767 -0.0774403 0)
(0.988105 -0.0759128 0)
(0.986674 -0.0741723 0)
(0.984516 -0.0721595 0)
(0.983089 -0.0705764 0)
(0.982633 -0.0687647 0)
(0.984022 -0.0661444 0)
(0.984439 -0.0640324 0)
(0.983745 -0.0623912 0)
(0.982067 -0.0605249 0)
(0.979811 -0.0586647 0)
(0.97834 -0.0572992 0)
(0.97788 -0.0556636 0)
(0.979601 -0.0530283 0)
(0.980324 -0.0506521 0)
(0.979597 -0.0488163 0)
(0.977956 -0.0469839 0)
(0.97502 -0.0451051 0)
(0.972738 -0.0435231 0)
(0.971449 -0.0421828 0)
(0.971529 -0.0401924 0)
(0.973 -0.0378032 0)
(0.973112 -0.0360305 0)
(0.972137 -0.0345678 0)
(0.970461 -0.032941 0)
(0.967613 -0.0308675 0)
(0.965164 -0.0290063 0)
(0.963654 -0.0274963 0)
(0.963025 -0.0258684 0)
(0.963737 -0.0241172 0)
(0.96385 -0.0224546 0)
(0.962963 -0.0207861 0)
(0.961183 -0.0187503 0)
(0.958561 -0.0162919 0)
(0.956457 -0.0142418 0)
(0.955479 -0.0120866 0)
(0.955774 -0.00978908 0)
(0.955317 -0.00819789 0)
(0.953995 -0.00688564 0)
(0.951683 -0.00521996 0)
(0.948048 -0.00318978 0)
(0.945381 -0.00149683 0)
(0.943721 -0.000195998 0)
(0.943857 0.00194678 0)
(0.945526 0.00477793 0)
(0.945107 0.00679979 0)
(0.943487 0.00825645 0)
(0.94029 0.0100043 0)
(0.935367 0.0116421 0)
(0.932203 0.0129637 0)
(0.930359 0.0140117 0)
(0.929574 0.0154264 0)
(0.931239 0.0177274 0)
(0.931924 0.0200058 0)
(0.930715 0.0217232 0)
(0.92857 0.0231872 0)
(0.924037 0.0251491 0)
(0.918737 0.0270387 0)
(0.915826 0.0284645 0)
(0.914135 0.0296445 0)
(0.914708 0.0317284 0)
(0.915877 0.0336204 0)
(0.914887 0.034723 0)
(0.912926 0.0353832 0)
(0.909662 0.0363048 0)
(0.904023 0.0375522 0)
(0.899542 0.0392272 0)
(0.896766 0.0408352 0)
(0.895369 0.0430114 0)
(0.896748 0.0464697 0)
(0.896698 0.0485752 0)
(0.894609 0.0491296 0)
(0.891571 0.0493423 0)
(0.885693 0.0484771 0)
(0.880092 0.048295 0)
(0.876072 0.049466 0)
(0.87307 0.0508112 0)
(0.871465 0.0532136 0)
(0.871593 0.0569424 0)
(0.87037 0.0593945 0)
(0.867522 0.0605742 0)
(0.863096 0.0609597 0)
(0.855562 0.0589061 0)
(0.848636 0.0564585 0)
(0.844275 0.0562147 0)
(0.840808 0.0567047 0)
(0.838485 0.058596 0)
(0.835653 0.059889 0)
(0.832126 0.06004 0)
(0.828359 0.0598389 0)
(0.822787 0.0588653 0)
(0.817938 0.0526165 0)
(0.687956 0.0452162 0)
(0.253318 0.0433548 0)
(0.985162 -0.0859885 0)
(0.985556 -0.0837175 0)
(0.984547 -0.0819659 0)
(0.984287 -0.0804189 0)
(0.985584 -0.078062 0)
(0.986323 -0.0758621 0)
(0.985749 -0.0742399 0)
(0.984401 -0.0724464 0)
(0.982261 -0.07041 0)
(0.980744 -0.0688299 0)
(0.980102 -0.0672284 0)
(0.981406 -0.064695 0)
(0.982096 -0.0624766 0)
(0.981529 -0.0607901 0)
(0.980109 -0.0590575 0)
(0.977931 -0.0572536 0)
(0.976305 -0.0557789 0)
(0.975558 -0.0542198 0)
(0.976903 -0.0516078 0)
(0.977886 -0.0491751 0)
(0.977341 -0.0473812 0)
(0.97601 -0.0457364 0)
(0.97333 -0.0438856 0)
(0.970839 -0.0422114 0)
(0.96946 -0.0408674 0)
(0.969253 -0.0390941 0)
(0.970841 -0.0367589 0)
(0.971185 -0.0349587 0)
(0.970294 -0.0335468 0)
(0.968698 -0.031978 0)
(0.965895 -0.0299492 0)
(0.963492 -0.028117 0)
(0.962053 -0.0265967 0)
(0.961696 -0.0247699 0)
(0.962488 -0.0228814 0)
(0.962429 -0.0213002 0)
(0.961492 -0.0198169 0)
(0.959663 -0.0179675 0)
(0.956923 -0.0157255 0)
(0.954808 -0.0139051 0)
(0.953779 -0.0119261 0)
(0.95444 -0.00921569 0)
(0.954188 -0.00731309 0)
(0.952914 -0.00597626 0)
(0.95057 -0.00435487 0)
(0.946863 -0.00252418 0)
(0.9441 -0.000990894 0)
(0.942299 0.000221911 0)
(0.941779 0.0019898 0)
(0.94334 0.00477221 0)
(0.943393 0.00710397 0)
(0.941984 0.00880827 0)
(0.939236 0.0106775 0)
(0.934538 0.0123714 0)
(0.931127 0.0136435 0)
(0.929103 0.0146417 0)
(0.927949 0.0157775 0)
(0.92919 0.0178117 0)
(0.929986 0.019932 0)
(0.928946 0.0216922 0)
(0.926894 0.0233202 0)
(0.922472 0.0254935 0)
(0.91725 0.0273681 0)
(0.914272 0.0286473 0)
(0.912469 0.0295001 0)
(0.912852 0.0313062 0)
(0.914435 0.0335306 0)
(0.913544 0.0349397 0)
(0.911667 0.0357999 0)
(0.908423 0.0369085 0)
(0.90264 0.0381143 0)
(0.897889 0.0392298 0)
(0.895026 0.0403761 0)
(0.893157 0.0416812 0)
(0.894082 0.0445549 0)
(0.89537 0.0474887 0)
(0.893839 0.0490576 0)
(0.891283 0.0495743 0)
(0.886556 0.049811 0)
(0.879597 0.0490972 0)
(0.874798 0.0494893 0)
(0.87154 0.050503 0)
(0.869036 0.0518119 0)
(0.86847 0.0544283 0)
(0.868245 0.0575859 0)
(0.866137 0.0594424 0)
(0.862936 0.06013 0)
(0.857998 0.0599357 0)
(0.850167 0.057546 0)
(0.843779 0.0556701 0)
(0.839788 0.0554495 0)
(0.83665 0.0558374 0)
(0.834463 0.0573802 0)
(0.831885 0.0579657 0)
(0.82899 0.0574876 0)
(0.825332 0.0569317 0)
(0.822324 0.0540407 0)
(0.695271 0.0481675 0)
(0.270985 0.0445491 0)
(0.983498 -0.0842897 0)
(0.983767 -0.0818337 0)
(0.982679 -0.080081 0)
(0.982294 -0.0786451 0)
(0.983405 -0.0765025 0)
(0.984311 -0.074286 0)
(0.983866 -0.072555 0)
(0.982634 -0.0707742 0)
(0.980526 -0.0688114 0)
(0.978866 -0.0672268 0)
(0.978014 -0.0657555 0)
(0.979088 -0.0632849 0)
(0.980087 -0.0609451 0)
(0.97968 -0.0592582 0)
(0.978498 -0.0576782 0)
(0.976411 -0.0558794 0)
(0.974577 -0.0542303 0)
(0.973623 -0.0527533 0)
(0.974593 -0.0503183 0)
(0.975768 -0.0478985 0)
(0.975359 -0.0461087 0)
(0.97416 -0.044487 0)
(0.971698 -0.0424878 0)
(0.969116 -0.0407458 0)
(0.967673 -0.0395329 0)
(0.967271 -0.0380212 0)
(0.968861 -0.0358176 0)
(0.969412 -0.0339309 0)
(0.968605 -0.0324372 0)
(0.967063 -0.0308319 0)
(0.964312 -0.0288817 0)
(0.961878 -0.0271488 0)
(0.960418 -0.0257151 0)
(0.960159 -0.023782 0)
(0.961182 -0.0215942 0)
(0.961077 -0.0200242 0)
(0.960099 -0.0187097 0)
(0.95822 -0.0170795 0)
(0.955411 -0.0151549 0)
(0.953255 -0.0135076 0)
(0.952004 -0.0117779 0)
(0.952687 -0.00890163 0)
(0.953026 -0.00637815 0)
(0.951898 -0.00488653 0)
(0.949791 -0.00343844 0)
(0.946129 -0.00204483 0)
(0.943115 -0.000789621 0)
(0.94113 0.000444932 0)
(0.94003 0.0020533 0)
(0.941096 0.00489903 0)
(0.941609 0.00760347 0)
(0.94048 0.00945624 0)
(0.938277 0.0111833 0)
(0.934045 0.0127625 0)
(0.930405 0.0138824 0)
(0.92819 0.0149074 0)
(0.926726 0.0160196 0)
(0.927398 0.0181188 0)
(0.928159 0.0203492 0)
(0.927192 0.0220822 0)
(0.925261 0.0237282 0)
(0.921172 0.0258409 0)
(0.916287 0.0274799 0)
(0.913379 0.0284633 0)
(0.911397 0.0291181 0)
(0.910926 0.030551 0)
(0.912667 0.0333005 0)
(0.912547 0.035575 0)
(0.910803 0.0368423 0)
(0.907894 0.0380777 0)
(0.902148 0.0388484 0)
(0.897127 0.039288 0)
(0.89433 0.0397997 0)
(0.892199 0.0403094 0)
(0.891449 0.041884 0)
(0.892983 0.0455323 0)
(0.892656 0.0481689 0)
(0.890471 0.0497857 0)
(0.887037 0.0511817 0)
(0.880625 0.0510395 0)
(0.87444 0.0499763 0)
(0.870779 0.0501318 0)
(0.86809 0.0505118 0)
(0.866124 0.051867 0)
(0.866048 0.0546243 0)
(0.864902 0.0569626 0)
(0.862216 0.058223 0)
(0.858542 0.0590952 0)
(0.85258 0.0589367 0)
(0.845077 0.0564407 0)
(0.839561 0.0547749 0)
(0.835985 0.0543504 0)
(0.833265 0.0543825 0)
(0.831523 0.0552208 0)
(0.829492 0.0551091 0)
(0.826793 0.0545934 0)
(0.82495 0.0539365 0)
(0.703528 0.0516843 0)
(0.289292 0.0452999 0)
(0.982 -0.0826221 0)
(0.982231 -0.0802028 0)
(0.981075 -0.0784928 0)
(0.980591 -0.0769783 0)
(0.981555 -0.0747695 0)
(0.982538 -0.0725111 0)
(0.982176 -0.070818 0)
(0.981091 -0.0692218 0)
(0.979082 -0.0674156 0)
(0.977234 -0.0657582 0)
(0.976189 -0.0643016 0)
(0.976871 -0.0619464 0)
(0.97815 -0.0594792 0)
(0.977931 -0.0577387 0)
(0.9769 -0.0561967 0)
(0.974883 -0.0543202 0)
(0.972908 -0.0526324 0)
(0.971851 -0.0513361 0)
(0.972571 -0.0491528 0)
(0.973877 -0.0467088 0)
(0.973554 -0.0448589 0)
(0.972352 -0.0431872 0)
(0.969915 -0.0411773 0)
(0.967402 -0.0394605 0)
(0.965934 -0.0383054 0)
(0.965367 -0.0369615 0)
(0.966793 -0.0348307 0)
(0.96752 -0.0328152 0)
(0.966868 -0.0311801 0)
(0.965495 -0.0295984 0)
(0.962934 -0.0277907 0)
(0.960387 -0.026157 0)
(0.95881 -0.0247821 0)
(0.958225 -0.0230221 0)
(0.959429 -0.0204767 0)
(0.95965 -0.018614 0)
(0.958707 -0.0174139 0)
(0.95694 -0.0160738 0)
(0.95411 -0.0145443 0)
(0.951801 -0.0130442 0)
(0.950312 -0.0115024 0)
(0.95046 -0.00885293 0)
(0.951491 -0.00577149 0)
(0.95078 -0.00383816 0)
(0.949122 -0.00250552 0)
(0.945836 -0.00132457 0)
(0.942391 -0.00037793 0)
(0.940147 0.000791478 0)
(0.938637 0.00216111 0)
(0.938913 0.00479416 0)
(0.939791 0.00788592 0)
(0.938962 0.00999898 0)
(0.93713 0.0116717 0)
(0.933651 0.0132702 0)
(0.929867 0.0142598 0)
(0.927469 0.0151558 0)
(0.925755 0.0160867 0)
(0.925627 0.0180691 0)
(0.92652 0.0209566 0)
(0.925773 0.0229858 0)
(0.923946 0.0245545 0)
(0.920405 0.0262969 0)
(0.91597 0.0272776 0)
(0.912899 0.0279401 0)
(0.910684 0.0287021 0)
(0.909078 0.0298365 0)
(0.909833 0.0327264 0)
(0.910697 0.0358973 0)
(0.909573 0.0379325 0)
(0.90737 0.0391585 0)
(0.902931 0.0398076 0)
(0.897379 0.0391704 0)
(0.893816 0.0391364 0)
(0.891337 0.0396357 0)
(0.889329 0.0404229 0)
(0.88933 0.0432084 0)
(0.889991 0.0474374 0)
(0.88871 0.0500274 0)
(0.886351 0.0515365 0)
(0.8821 0.0523676 0)
(0.875641 0.0510046 0)
(0.870671 0.0496875 0)
(0.867555 0.0496118 0)
(0.864977 0.0498988 0)
(0.86344 0.0516122 0)
(0.862637 0.054627 0)
(0.860408 0.0569706 0)
(0.85738 0.0583822 0)
(0.853533 0.0589204 0)
(0.847477 0.0580398 0)
(0.840981 0.0552461 0)
(0.836333 0.0535165 0)
(0.833169 0.0528539 0)
(0.830844 0.0524504 0)
(0.829479 0.0525371 0)
(0.827542 0.0525237 0)
(0.826236 0.0524773 0)
(0.71145 0.0548269 0)
(0.308142 0.0455999 0)
(0.980353 -0.0809298 0)
(0.98071 -0.0787594 0)
(0.97962 -0.0769979 0)
(0.978948 -0.0753607 0)
(0.979541 -0.0730655 0)
(0.980649 -0.0707171 0)
(0.980407 -0.0691076 0)
(0.979481 -0.0676904 0)
(0.977689 -0.0659785 0)
(0.975712 -0.0642468 0)
(0.974543 -0.0628222 0)
(0.974843 -0.0606663 0)
(0.976301 -0.0580754 0)
(0.976279 -0.0562001 0)
(0.975325 -0.054628 0)
(0.973398 -0.0527826 0)
(0.971378 -0.0511667 0)
(0.970225 -0.0499885 0)
(0.970546 -0.0480247 0)
(0.971859 -0.0455273 0)
(0.971687 -0.0435807 0)
(0.970594 -0.0419409 0)
(0.968395 -0.0401017 0)
(0.96589 -0.0384529 0)
(0.964298 -0.0371951 0)
(0.963515 -0.0358465 0)
(0.964653 -0.0336678 0)
(0.965548 -0.0316026 0)
(0.965073 -0.0299486 0)
(0.963908 -0.0284456 0)
(0.961719 -0.0267755 0)
(0.959051 -0.0251779 0)
(0.957295 -0.0237643 0)
(0.95635 -0.0222467 0)
(0.957234 -0.0197894 0)
(0.957968 -0.0174997 0)
(0.957245 -0.0160938 0)
(0.955763 -0.0149185 0)
(0.952997 -0.0136263 0)
(0.95037 -0.012304 0)
(0.948708 -0.0109442 0)
(0.948181 -0.0088448 0)
(0.949384 -0.00565201 0)
(0.949387 -0.00316824 0)
(0.948107 -0.00166539 0)
(0.945678 -0.000394036 0)
(0.941995 0.000448207 0)
(0.939313 0.00141834 0)
(0.937541 0.00255984 0)
(0.936929 0.00458508 0)
(0.937844 0.00787662 0)
(0.937514 0.0104856 0)
(0.935998 0.0122042 0)
(0.933354 0.0137444 0)
(0.92972 0.0146312 0)
(0.926976 0.0153262 0)
(0.925002 0.0161848 0)
(0.923824 0.0177356 0)
(0.924395 0.0208523 0)
(0.924158 0.0237702 0)
(0.92261 0.0255432 0)
(0.920089 0.0268645 0)
(0.916173 0.0272577 0)
(0.912689 0.0274786 0)
(0.910114 0.0281969 0)
(0.908021 0.0291414 0)
(0.907009 0.0311394 0)
(0.907823 0.0350205 0)
(0.907536 0.0380359 0)
(0.905918 0.0399207 0)
(0.903221 0.0410007 0)
(0.898406 0.0405674 0)
(0.893861 0.0394719 0)
(0.890826 0.0394306 0)
(0.888394 0.0399001 0)
(0.886408 0.0410871 0)
(0.886264 0.0447346 0)
(0.886052 0.0490498 0)
(0.884385 0.051433 0)
(0.881873 0.0525269 0)
(0.877459 0.0525399 0)
(0.871682 0.0504528 0)
(0.86747 0.0491033 0)
(0.864599 0.0489418 0)
(0.862027 0.0493283 0)
(0.860197 0.0514733 0)
(0.858546 0.0545791 0)
(0.855989 0.0569136 0)
(0.852889 0.0582617 0)
(0.849031 0.0584411 0)
(0.843551 0.0569734 0)
(0.838145 0.0539638 0)
(0.834107 0.0519403 0)
(0.831112 0.0509558 0)
(0.829132 0.0504421 0)
(0.82771 0.0505804 0)
(0.826711 0.0507142 0)
(0.718673 0.0565014 0)
(0.327471 0.0455424 0)
(0.978828 -0.0792787 0)
(0.97918 -0.0771221 0)
(0.978103 -0.075251 0)
(0.977326 -0.0736854 0)
(0.977669 -0.0716248 0)
(0.97902 -0.0691838 0)
(0.978897 -0.0675384 0)
(0.977996 -0.0661047 0)
(0.976194 -0.0643331 0)
(0.974108 -0.0626037 0)
(0.972862 -0.0612871 0)
(0.972815 -0.0594183 0)
(0.974285 -0.0567905 0)
(0.974509 -0.0547312 0)
(0.973691 -0.0531251 0)
(0.972093 -0.0514387 0)
(0.970063 -0.0498581 0)
(0.968747 -0.0486038 0)
(0.968578 -0.0467942 0)
(0.969828 -0.0442508 0)
(0.969874 -0.0423054 0)
(0.968927 -0.0407946 0)
(0.967056 -0.0391767 0)
(0.964487 -0.0375579 0)
(0.96272 -0.0361089 0)
(0.961733 -0.0346943 0)
(0.962538 -0.0325169 0)
(0.963613 -0.0304261 0)
(0.963307 -0.0288042 0)
(0.962287 -0.0273615 0)
(0.960435 -0.0257595 0)
(0.95776 -0.0241084 0)
(0.955831 -0.0226562 0)
(0.954673 -0.0213007 0)
(0.955016 -0.0191607 0)
(0.955991 -0.0168168 0)
(0.955565 -0.0150705 0)
(0.954351 -0.0137631 0)
(0.952044 -0.012455 0)
(0.949112 -0.011269 0)
(0.947219 -0.0100517 0)
(0.946168 -0.00852187 0)
(0.946961 -0.00571602 0)
(0.947617 -0.00297728 0)
(0.946753 -0.00111503 0)
(0.945061 0.000292155 0)
(0.941976 0.00137246 0)
(0.938787 0.00208499 0)
(0.936674 0.00310147 0)
(0.935281 0.0045412 0)
(0.935568 0.00756143 0)
(0.935986 0.0107378 0)
(0.934891 0.0126907 0)
(0.93302 0.0140392 0)
(0.930009 0.0149206 0)
(0.926773 0.0153889 0)
(0.924308 0.0162464 0)
(0.922389 0.0175498 0)
(0.921605 0.0201782 0)
(0.922086 0.0239567 0)
(0.921323 0.0264695 0)
(0.919531 0.0275102 0)
(0.916621 0.0280611 0)
(0.91277 0.0278396 0)
(0.909687 0.0280019 0)
(0.907232 0.0287789 0)
(0.905158 0.0299523 0)
(0.90426 0.0327591 0)
(0.904745 0.0372992 0)
(0.904071 0.040149 0)
(0.902279 0.0414219 0)
(0.899454 0.0418957 0)
(0.894846 0.0407382 0)
(0.890733 0.0394896 0)
(0.887485 0.0396508 0)
(0.884732 0.0406805 0)
(0.882601 0.04239 0)
(0.882467 0.046335 0)
(0.882212 0.0503005 0)
(0.880501 0.0521794 0)
(0.877874 0.0525857 0)
(0.873732 0.0519516 0)
(0.868645 0.049569 0)
(0.864476 0.0482092 0)
(0.861147 0.0483734 0)
(0.858195 0.0493279 0)
(0.856022 0.0517663 0)
(0.854233 0.0548224 0)
(0.851911 0.0568161 0)
(0.849 0.0575403 0)
(0.845567 0.057196 0)
(0.840988 0.0554152 0)
(0.836209 0.0523415 0)
(0.832198 0.0501227 0)
(0.829345 0.0492979 0)
(0.827316 0.0492875 0)
(0.826284 0.0496118 0)
(0.725592 0.0565562 0)
(0.347284 0.0452976 0)
(0.977315 -0.0776084 0)
(0.977619 -0.0753266 0)
(0.976428 -0.0734672 0)
(0.975573 -0.0720209 0)
(0.975656 -0.0702937 0)
(0.977122 -0.0678371 0)
(0.977225 -0.0659636 0)
(0.976421 -0.0644312 0)
(0.974778 -0.0627199 0)
(0.972645 -0.0610366 0)
(0.971258 -0.0597148 0)
(0.970816 -0.0581145 0)
(0.972165 -0.0555405 0)
(0.97275 -0.0533696 0)
(0.972128 -0.0517599 0)
(0.970842 -0.0501896 0)
(0.968822 -0.0485042 0)
(0.967289 -0.0470692 0)
(0.96671 -0.0454637 0)
(0.967807 -0.0430305 0)
(0.968091 -0.0410861 0)
(0.967281 -0.0396448 0)
(0.965671 -0.0381515 0)
(0.963028 -0.0364759 0)
(0.961066 -0.0349889 0)
(0.959962 -0.0336435 0)
(0.960611 -0.0314806 0)
(0.961833 -0.0293082 0)
(0.961615 -0.0276782 0)
(0.96067 -0.0262605 0)
(0.959008 -0.0247004 0)
(0.956403 -0.0229809 0)
(0.954345 -0.02153 0)
(0.953069 -0.0202537 0)
(0.95306 -0.0183363 0)
(0.954016 -0.0160659 0)
(0.95381 -0.0142511 0)
(0.952763 -0.0128013 0)
(0.950949 -0.011406 0)
(0.948039 -0.01011 0)
(0.945811 -0.00893121 0)
(0.944474 -0.00774774 0)
(0.944561 -0.00551358 0)
(0.945576 -0.00276256 0)
(0.94518 -0.000741374 0)
(0.943884 0.000826937 0)
(0.941781 0.0020896 0)
(0.938446 0.00290853 0)
(0.935727 0.00387447 0)
(0.933942 0.00508542 0)
(0.933208 0.00723676 0)
(0.934065 0.0106841 0)
(0.933769 0.0130992 0)
(0.932352 0.0144137 0)
(0.930222 0.0153478 0)
(0.926821 0.0158729 0)
(0.923612 0.0165938 0)
(0.92122 0.0178057 0)
(0.919451 0.01944 0)
(0.919323 0.0227376 0)
(0.919794 0.0262587 0)
(0.918663 0.0282283 0)
(0.916725 0.0290551 0)
(0.913539 0.029111 0)
(0.909655 0.0285111 0)
(0.906407 0.0287767 0)
(0.903681 0.0299557 0)
(0.901525 0.0314768 0)