/*--------------------------------*- C++ -*----------------------------------*\
  =========                 |
  \\      /  F ield         | OpenFOAM: The Open Source CFD Toolbox
   \\    /   O peration     | Website:  https://openfoam.org
    \\  /    A nd           | Version:  12
     \\/     M anipulation  |
\*---------------------------------------------------------------------------*/
FoamFile
{
    format      ascii;
    class       volVectorField;
    location    "0.05";
    object      U;
}
// * * * * * * * * * * * * * * * * * * * * * * * * * * * * * * * * * * * * * //

dimensions      [0 1 -1 0 0 0 0];

internalField   nonuniform List<vector> 
183995
(
(0.92 -6.4333e-12 0)
(0.922361 -0.0702485 0)
(0.92 -1.42e-14 0)
(0.92435 -0.0413937 0)
(0.92 4.47464e-14 0)
(0.92 8.22495e-14 0)
(0.92 -1.36266e-14 0)
(0.92 3.23736e-14 0)
(0.92 -4.55989e-14 0)
(0.92 -4.96501e-14 0)
(0.925938 -0.0135325 0)
(0.897117 0.0763239 0)
(0.926124 -0.0135414 0)
(0.92 -1.23392e-13 0)
(0.92 -7.67247e-14 0)
(0.92 3.69673e-15 0)
(0.92 6.39496e-14 0)
(0.919325 0.0259015 0)
(0.92 3.38078e-14 0)
(0.92 -1.83097e-14 0)
(0.92 -1.00054e-14 0)
(0.92 -1.18551e-13 0)
(0.92 -4.47725e-12 0)
(0.92 1.36697e-14 0)
(0.92 1.12607e-13 0)
(0.919363 0.0276072 0)
(0.92 1.02975e-13 0)
(0.92 -9.57855e-15 0)
(0.92 -4.07981e-14 0)
(0.92 -1.27073e-13 0)
(0.92 1.95453e-13 0)
(0.92 -1.78484e-13 0)
(0.925798 -0.0125276 0)
(0.92 -1.45749e-14 0)
(0.926248 -0.0125319 0)
(0.900085 0.0761039 0)
(0.92 -4.48458e-14 0)
(0.92 -1.23667e-13 0)
(0.92 6.73002e-14 0)
(0.92 -9.24611e-14 0)
(0.92 -3.76827e-14 0)
(0.92 -2.54014e-13 0)
(0.92 -7.19508e-14 0)
(0.92 -3.29392e-15 0)
(0.92 -7.39914e-15 0)
(0.92 -8.72927e-14 0)
(0.922564 -0.0665748 0)
(0.92 -7.64707e-14 0)
(0.92 6.80783e-14 0)
(0.92 -7.91881e-14 0)
(0.92 -5.75227e-14 0)
(0.92 1.00179e-13 0)
(0.92 9.35045e-14 0)
(0.92 -1.31041e-13 0)
(0.92 -1.21421e-13 0)
(0.92 -7.12831e-14 0)
(0.92 -5.15603e-14 0)
(0.92656 -0.0114352 0)
(0.925663 -0.0181861 0)
(0.926105 -0.011443 0)
(0.92 1.25266e-13 0)
(0.92 6.80847e-14 0)
(0.92 -4.60751e-14 0)
(0.920313 -0.0850189 0)
(0.92 1.00958e-13 0)
(0.92 1.28579e-12 0)
(0.92 -1.68535e-13 0)
(0.92 7.50385e-12 0)
(0.92 5.48844e-14 0)
(0.92 3.245e-14 0)
(0.92 2.01445e-13 0)
(0.926241 -0.00791626 0)
(0.926442 -0.00776389 0)
(0.92 -5.8507e-14 0)
(0.919308 0.0287278 0)
(0.92 -3.19958e-13 0)
(0.92 9.14314e-14 0)
(0.92 -2.16265e-13 0)
(0.921019 0.0743315 0)
(0.925942 -0.0101371 0)
(0.926353 -0.0100173 0)
(0.92 -2.67317e-13 0)
(0.92 -9.67038e-14 0)
(0.92 4.41895e-14 0)
(0.92 1.14119e-13 0)
(0.92 -2.26259e-13 0)
(0.92 8.74706e-15 0)
(0.92 -9.46228e-14 0)
(0.92 1.52345e-14 0)
(0.92 -2.13986e-13 0)
(0.926392 -0.00650777 0)
(0.926052 -0.00590659 0)
(0.92 5.00601e-14 0)
(0.92 -7.42106e-14 0)
(0.92 6.14419e-14 0)
(0.92 3.40084e-14 0)
(0.92 -8.49071e-14 0)
(0.92 -8.09642e-14 0)
(0.926351 -0.0190649 0)
(0.923514 -0.0708497 0)
(0.92 -8.95855e-14 0)
(0.92 -2.27192e-14 0)
(0.924591 -0.0528681 0)
(0.92 2.44981e-13 0)
(0.92 -8.48463e-14 0)
(0.92 -5.23414e-14 0)
(0.92 -6.99858e-14 0)
(0.925784 -0.0531216 0)
(0.921216 0.0632826 0)
(0.92 8.81301e-15 0)
(0.92 -2.25891e-15 0)
(0.92 -2.23486e-13 0)
(0.92 1.19135e-14 0)
(0.92 1.19074e-13 0)
(0.92 -2.08973e-15 0)
(0.92 2.67675e-13 0)
(0.92 -2.6649e-14 0)
(0.926248 -0.0190464 0)
(0.92 -3.61678e-14 0)
(0.92 -1.50469e-14 0)
(0.92 -5.61107e-14 0)
(0.92 -7.55159e-15 0)
(0.926775 0.0248554 0)
(0.926452 -0.00380754 0)
(0.92608 -0.00329314 0)
(0.833602 0.0618832 0)
(0.92 4.91731e-14 0)
(0.92 -2.0768e-15 0)
(0.92 -3.92902e-14 0)
(0.92 1.24989e-14 0)
(0.919261 0.0306096 0)
(0.92 1.15102e-13 0)
(0.92 4.67415e-14 0)
(0.92 2.11783e-13 0)
(0.92 -5.2912e-14 0)
(0.921528 0.00753232 0)
(0.92 -2.08305e-14 0)
(0.92 -1.31527e-14 0)
(0.9197 -0.0838546 0)
(0.92 2.71969e-14 0)
(0.926689 -0.0193845 0)
(0.926453 -0.000811195 0)
(0.926107 -0.000342528 0)
(0.926521 0.00483622 0)
(0.926249 0.00468044 0)
(0.902089 0.075995 0)
(0.92 1.4566e-13 0)
(0.92 -3.27014e-14 0)
(0.801336 0.0270658 0)
(0.92 3.55884e-14 0)
(0.92 -1.35162e-13 0)
(0.926478 0.00179499 0)
(0.926179 0.00229665 0)
(0.92 1.95927e-13 0)
(0.92 1.53667e-14 0)
(0.923771 -0.0670796 0)
(0.904055 0.0759385 0)
(0.92 6.4479e-14 0)
(0.92 8.09838e-14 0)
(0.92 -2.00892e-14 0)
(0.92 1.28458e-13 0)
(0.92 -3.18156e-13 0)
(0.92 4.51944e-14 0)
(0.842403 0.0149075 0)
(0.92 2.84208e-13 0)
(0.92 -1.76017e-13 0)
(0.92 -1.76708e-13 0)
(0.92 2.64238e-13 0)
(0.926399 -0.0108086 0)
(0.92611 -0.010671 0)
(0.921242 0.00703953 0)
(0.920458 -0.0845467 0)
(0.925966 -0.0684849 0)
(0.926487 0.00760611 0)
(0.925875 -0.066716 0)
(0.926201 0.00752539 0)
(0.92 -1.70116e-13 0)
(0.92 -8.4554e-15 0)
(0.92 -5.27102e-14 0)
(0.92 -4.23359e-15 0)
(0.92 -2.13977e-13 0)
(0.92 -9.08319e-14 0)
(0.92 1.53622e-14 0)
(0.92 -7.22859e-14 0)
(0.92 1.13755e-13 0)
(0.92 5.97527e-14 0)
(0.925095 -0.0525706 0)
(0.92 -8.1352e-15 0)
(0.92 1.44004e-13 0)
(0.920929 0.0735936 0)
(0.92 1.216e-14 0)
(0.92 -2.81466e-14 0)
(0.92 2.56899e-15 0)
(0.92 3.24721e-14 0)
(0.92 -3.14843e-14 0)
(0.924745 -0.0420903 0)
(0.92 -1.72339e-13 0)
(0.92 1.26061e-13 0)
(0.92 7.30858e-14 0)
(0.92 -2.10296e-14 0)
(0.925075 0.0487284 0)
(0.92 -1.84238e-13 0)
(0.92 7.98709e-15 0)
(0.92 -8.7891e-14 0)
(0.92 9.46099e-14 0)
(0.92667 0.0103355 0)
(0.900003 0.075693 0)
(0.92633 0.0102133 0)
(0.92 -2.1727e-13 0)
(0.926291 0.0233973 0)
(0.926201 -0.0527913 0)
(0.925351 -0.0501371 0)
(0.92 6.4315e-14 0)
(0.92 -8.32784e-14 0)
(0.92 -8.83627e-14 0)
(0.926452 -0.0496145 0)
(0.92 -3.075e-13 0)
(0.921036 0.00556384 0)
(0.92 -1.37665e-13 0)
(0.92 -2.10525e-14 0)
(0.92 -1.25144e-13 0)
(0.92 -1.62981e-13 0)
(0.926462 0.0120774 0)
(0.926228 0.0120111 0)
(0.92 -1.6969e-13 0)
(0.92 -1.93486e-14 0)
(0.92 -1.5535e-13 0)
(0.92 8.18929e-15 0)
(0.921161 0.00625594 0)
(0.92 -6.40177e-14 0)
(0.902041 0.0759376 0)
(0.92 -8.60406e-14 0)
(0.92 -5.29704e-14 0)
(0.92 -1.27656e-13 0)
(0.925835 0.023384 0)
(0.92 -8.48667e-14 0)
(0.918745 0.0318521 0)
(0.92 5.56787e-15 0)
(0.92 4.23722e-14 0)
(0.92 -3.33361e-14 0)
(0.92 -1.3042e-13 0)
(0.925921 -0.0154529 0)
(0.92 -8.58363e-14 0)
(0.92 6.42966e-14 0)
(0.92 3.70933e-14 0)
(0.92 7.27834e-14 0)
(0.92 3.41096e-14 0)
(0.921661 0.0246749 0)
(0.92 -9.57859e-15 0)
(0.92 9.49042e-14 0)
(0.92 -1.16381e-13 0)
(0.926372 0.0140898 0)
(0.92 -1.08738e-13 0)
(0.925805 0.0140119 0)
(0.92 1.04302e-13 0)
(0.925912 -0.00522918 0)
(0.92 9.10556e-14 0)
(0.92638 -0.00535131 0)
(0.919153 0.0131103 0)
(0.920888 0.0631487 0)
(0.92 -9.72837e-14 0)
(0.92 -1.46726e-13 0)
(0.928405 -0.0419285 0)
(0.92 -6.8686e-15 0)
(0.926466 0.0170466 0)
(0.92 -1.35249e-13 0)
(0.838722 0.0696732 0)
(0.92608 0.0169315 0)
(0.92 7.59303e-14 0)
(0.92 -1.65476e-13 0)
(0.92 -1.73629e-13 0)
(0.92 -5.43362e-14 0)
(0.92 -1.86272e-13 0)
(0.92 4.04275e-14 0)
(0.92 3.22221e-14 0)
(0.926108 -0.00904924 0)
(0.920888 0.0251014 0)
(0.926487 -0.00888796 0)
(0.92 -1.75396e-13 0)
(0.92 -5.19154e-14 0)
(0.92 -6.02319e-14 0)
(0.92 1.27172e-15 0)
(0.926102 0.0193871 0)
(0.92 3.62666e-14 0)
(0.92 -1.30012e-13 0)
(0.92 -1.22122e-13 0)
(0.92 -8.87538e-14 0)
(0.92 -8.93887e-14 0)
(0.920235 -0.085279 0)
(0.9258 0.0194303 0)
(0.92 -2.40995e-13 0)
(0.92 -2.6324e-13 0)
(0.92 -1.77707e-13 0)
(0.92 3.29504e-14 0)
(0.92 -1.10137e-13 0)
(0.924716 0.0501389 0)
(0.921713 0.0248355 0)
(0.92 1.21265e-13 0)
(0.92 -1.67057e-14 0)
(0.92 -1.02135e-13 0)
(0.92 3.68021e-14 0)
(0.92 -1.80487e-14 0)
(0.92 -4.63462e-14 0)
(0.92 3.88801e-14 0)
(0.92 -8.4234e-14 0)
(0.92 1.43984e-13 0)
(0.926304 0.0214267 0)
(0.921011 0.00438355 0)
(0.92 -6.7482e-14 0)
(0.92 1.20189e-13 0)
(0.926365 0.0267047 0)
(0.92 -1.14681e-13 0)
(0.92 1.09922e-13 0)
(0.92 -1.60123e-13 0)
(0.92 1.1956e-13 0)
(0.92 -5.76077e-14 0)
(0.92 -8.47233e-14 0)
(0.925998 -0.00262224 0)
(0.92 1.07727e-13 0)
(0.925784 0.0214548 0)
(0.926488 -0.00270689 0)
(0.921368 0.0240238 0)
(0.92 1.28479e-13 0)
(0.92 9.86153e-14 0)
(0.922036 0.073352 0)
(0.92 7.63975e-14 0)
(0.92 2.21761e-14 0)
(0.92 -4.73672e-14 0)
(0.92 -2.63386e-13 0)
(0.92 -1.06812e-13 0)
(0.92 -5.1087e-14 0)
(0.921486 -0.0837776 0)
(0.92468 0.0502056 0)
(0.92 -6.26476e-14 0)
(0.92 -4.63901e-15 0)
(0.923438 0.047296 0)
(0.926272 0.0224661 0)
(0.92569 0.0223584 0)
(0.92 -9.89067e-14 0)
(0.92 -1.23818e-14 0)
(0.92 9.88458e-14 0)
(0.921442 0.0248108 0)
(0.92 -2.35184e-14 0)
(0.92 -2.2679e-13 0)
(0.92 -2.54887e-14 0)
(0.92 -2.97169e-14 0)
(0.926187 0.0204552 0)
(0.92 -8.00343e-14 0)
(0.921253 0.00534326 0)
(0.92 9.67556e-17 0)
(0.92 -4.81294e-14 0)
(0.925645 0.0203586 0)
(0.92 -1.62774e-14 0)
(0.92 -9.11353e-14 0)
(0.92 9.81551e-14 0)
(0.925069 0.0475033 0)
(0.92 -1.06741e-13 0)
(0.923231 -0.0749497 0)
(0.92 -1.30803e-13 0)
(0.926149 -0.00712993 0)
(0.92 1.69188e-14 0)
(0.926415 -0.00709324 0)
(0.92 -1.2173e-13 0)
(0.92 1.56004e-14 0)
(0.91851 0.0323423 0)
(0.92 -8.04589e-14 0)
(0.92 7.18898e-14 0)
(0.92 5.47431e-14 0)
(0.919299 0.0117101 0)
(0.919863 -0.072054 0)
(0.92 -7.55466e-15 0)
(0.92 -5.10522e-14 0)
(0.92 7.5187e-14 0)
(0.92 -1.90548e-14 0)
(0.92 -4.60446e-15 0)
(0.92 5.14548e-14 0)
(0.92 1.01446e-14 0)
(0.921167 0.0251561 0)
(0.919172 -0.0846455 0)
(0.92 -1.86622e-11 0)
(0.92 -4.52304e-13 0)
(0.92 7.26763e-15 0)
(0.92 2.50818e-14 0)
(0.92 -1.11372e-13 0)
(0.92 1.97776e-14 0)
(0.925954 0.000269561 0)
(0.92 8.98889e-14 0)
(0.926389 9.768e-05 0)
(0.92 -2.48314e-14 0)
(0.92 1.2547e-13 0)
(0.92 -1.3045e-13 0)
(0.92 8.87792e-14 0)
(0.92 5.89708e-14 0)
(0.92 -2.2011e-13 0)
(0.92 -8.23662e-14 0)
(0.92 4.99789e-14 0)
(0.92 1.29747e-14 0)
(0.92 5.18948e-14 0)
(0.920051 -0.0718817 0)
(0.92 -5.56263e-14 0)
(0.92 -1.06949e-13 0)
(0.92 -8.51695e-14 0)
(0.92 8.98157e-14 0)
(0.925017 -0.0752045 0)
(0.92 1.17624e-13 0)
(0.926677 0.0179631 0)
(0.925582 -0.0177799 0)
(0.92 -1.24575e-14 0)
(0.92 -6.34565e-14 0)
(0.92 2.23827e-14 0)
(0.92 9.4435e-14 0)
(0.926044 0.0180049 0)
(0.92 5.40643e-14 0)
(0.92 1.45623e-14 0)
(0.92 1.77857e-13 0)
(0.92 -4.74103e-15 0)
(0.925238 0.0291036 0)
(0.92 1.01116e-14 0)
(0.92 -2.59753e-15 0)
(0.92 2.86017e-13 0)
(0.920907 -0.0721079 0)
(0.92 -2.4865e-13 0)
(0.92 9.32893e-14 0)
(0.92473 0.0493963 0)
(0.92 4.36608e-14 0)
(0.921644 0.025912 0)
(0.92 -1.35974e-14 0)
(0.92 4.98017e-15 0)
(0.92 -1.07165e-13 0)
(0.92 -1.10169e-13 0)
(0.92 -4.56189e-14 0)
(0.92 2.08864e-13 0)
(0.92 5.30789e-14 0)
(0.92 1.29375e-13 0)
(0.92 -1.30608e-13 0)
(0.92 -9.1476e-15 0)
(0.92592 0.0029691 0)
(0.92 4.78091e-14 0)
(0.92645 0.00285395 0)
(0.920819 0.00314348 0)
(0.92 -1.65173e-15 0)
(0.92 -1.05614e-13 0)
(0.92 -4.28455e-14 0)
(0.92 -5.84466e-14 0)
(0.922825 -0.0648613 0)
(0.92 4.92232e-14 0)
(0.92 1.00622e-13 0)
(0.92 -5.2711e-14 0)
(0.928092 -0.0415103 0)
(0.920614 -0.0831945 0)
(0.925109 -0.052237 0)
(0.92 -9.94117e-14 0)
(0.92 -1.62054e-14 0)
(0.92 1.47839e-13 0)
(0.92 -7.9271e-14 0)
(0.92 -5.32676e-14 0)
(0.919665 0.0144669 0)
(0.92 -3.98529e-14 0)
(0.927266 0.0254073 0)
(0.926764 0.0149476 0)
(0.92 7.04843e-14 0)
(0.92 2.91523e-14 0)
(0.920545 0.0016604 0)
(0.92 -9.913e-14 0)
(0.924532 -0.0412492 0)
(0.92 2.11934e-13 0)
(0.920715 0.00159681 0)
(0.92 -1.39414e-13 0)
(0.926188 0.0149976 0)
(0.92 9.16794e-14 0)
(0.92 4.72306e-15 0)
(0.92 3.98499e-14 0)
(0.92 -9.73747e-14 0)
(0.92 8.64373e-14 0)
(0.92 8.53138e-14 0)
(0.92 1.12328e-13 0)
(0.92 -1.36656e-13 0)
(0.92 -3.96119e-14 0)
(0.92 -9.57057e-14 0)
(0.920737 0.00330538 0)
(0.92076 0.00330722 0)
(0.92 -1.62327e-13 0)
(0.921399 -0.0671227 0)
(0.926453 0.0187193 0)
(0.92 5.84645e-14 0)
(0.92 -2.08287e-13 0)
(0.92 8.71466e-14 0)
(0.92 -9.64695e-14 0)
(0.92 1.93896e-14 0)
(0.92 9.63575e-14 0)
(0.926488 0.00577627 0)
(0.926108 0.00563059 0)
(0.925112 -0.067126 0)
(0.92 -8.84724e-14 0)
(0.92 7.1073e-14 0)
(0.926117 -0.052062 0)
(0.92 1.42884e-13 0)
(0.92 -3.20539e-14 0)
(0.92 -9.82353e-14 0)
(0.92 -1.24382e-13 0)
(0.92 -7.91744e-14 0)
(0.921015 0.00398049 0)
(0.92 1.03203e-13 0)
(0.92 5.20893e-14 0)
(0.92 -1.70454e-13 0)
(0.92 -9.62187e-14 0)
(0.92 8.74697e-14 0)
(0.92 6.24954e-15 0)
(0.92 -1.39107e-13 0)
(0.92 3.99521e-14 0)
(0.92 -5.90284e-14 0)
(0.92606 0.0187547 0)
(0.92 1.08031e-13 0)
(0.92 -7.64284e-14 0)
(0.92 -1.28158e-13 0)
(0.92 1.872e-13 0)
(0.92 5.60824e-14 0)
(0.92 -1.46546e-14 0)
(0.92 -1.8712e-14 0)
(0.92 -1.49361e-13 0)
(0.924094 0.0331961 0)
(0.92 -7.50833e-14 0)
(0.92 1.13223e-13 0)
(0.92 -9.89002e-14 0)
(0.92 2.29362e-14 0)
(0.926467 0.00859168 0)
(0.92 -6.53073e-14 0)
(0.92 -9.04271e-14 0)
(0.926128 0.0084036 0)
(0.848378 0.06998 0)
(0.92 2.5457e-13 0)
(0.92 -2.66889e-13 0)
(0.92 1.63203e-14 0)
(0.92 -7.8777e-14 0)
(0.92 1.79493e-13 0)
(0.92 -1.30913e-13 0)
(0.92 -1.10125e-13 0)
(0.923384 -0.0664121 0)
(0.92 -2.37115e-14 0)
(0.92 1.37726e-13 0)
(0.92 -4.41723e-14 0)
(0.925013 -0.0513644 0)
(0.92 -4.46969e-14 0)
(0.92 -1.00322e-13 0)
(0.92 9.51981e-14 0)
(0.92 -1.67824e-14 0)
(0.92 1.68599e-13 0)
(0.92 2.60719e-14 0)
(0.92 -3.46182e-13 0)
(0.92 -1.18112e-13 0)
(0.92 -3.06435e-15 0)
(0.92 -6.5782e-14 0)
(0.926478 -0.00437976 0)
(0.92 -1.27523e-13 0)
(0.92 4.32734e-15 0)
(0.92 -6.10367e-14 0)
(0.92 -8.30984e-14 0)
(0.92618 -0.00432961 0)
(0.919458 0.00972389 0)
(0.926598 -0.0480548 0)
(0.92 -6.58809e-14 0)
(0.92 -1.45264e-13 0)
(0.924027 0.0334999 0)
(0.92 -4.98672e-14 0)
(0.920433 -0.0724856 0)
(0.92 5.35372e-14 0)
(0.92 5.30381e-14 0)
(0.92 -4.8566e-14 0)
(0.92 -7.67013e-14 0)
(0.92 1.50109e-13 0)
(0.92 2.81054e-14 0)
(0.921683 0.0264114 0)
(0.92 2.75896e-15 0)
(0.92 5.48732e-15 0)
(0.92 1.67476e-13 0)
(0.918149 0.0318615 0)
(0.92 -1.33437e-13 0)
(0.92568 -0.0476778 0)
(0.925136 0.0281639 0)
(0.92 -6.65303e-14 0)
(0.82009 0.0611474 0)
(0.92 -4.23183e-14 0)
(0.92 -2.88219e-14 0)
(0.92 -1.65971e-13 0)
(0.92614 -0.0513265 0)
(0.92 -3.62313e-14 0)
(0.92 -8.34175e-14 0)
(0.92 -2.32429e-15 0)
(0.92 9.26125e-14 0)
(0.926216 0.0261819 0)
(0.920717 0.00590669 0)
(0.92 -1.57475e-13 0)
(0.920756 0.00571917 0)
(0.92 7.28189e-14 0)
(0.92 -6.30837e-14 0)
(0.92 2.51133e-14 0)
(0.92 1.748e-13 0)
(0.92 -1.75697e-14 0)
(0.92 9.93956e-14 0)
(0.92 1.14843e-13 0)
(0.92 4.63542e-14 0)
(0.92 -6.80346e-14 0)
(0.92 6.28112e-14 0)
(0.92 -1.91479e-14 0)
(0.924943 -0.0686604 0)
(0.925256 -0.0679692 0)
(0.919578 0.0142405 0)
(0.919264 0.0140674 0)
(0.92 1.3831e-13 0)
(0.919536 0.0149886 0)
(0.921104 0.0262267 0)
(0.92 -1.77506e-13 0)
(0.92 -2.06421e-13 0)
(0.92 -2.32635e-14 0)
(0.925131 0.0455235 0)
(0.92 1.83705e-14 0)
(0.92 1.37193e-13 0)
(0.92 -1.5905e-14 0)
(0.92 -9.53217e-14 0)
(0.92 -1.74282e-13 0)
(0.92 4.38653e-14 0)
(0.92 -2.51868e-13 0)
(0.92 -7.99938e-14 0)
(0.92 -1.89403e-13 0)
(0.92 9.82882e-14 0)
(0.92 1.57328e-13 0)
(0.92 -1.49176e-15 0)
(0.92 -1.40377e-13 0)
(0.92 -8.83567e-14 0)
(0.925739 -0.0149123 0)
(0.92 2.39488e-13 0)
(0.92 6.84106e-14 0)
(0.92 -8.18274e-14 0)
(0.92 -4.43055e-15 0)
(0.92 -1.14854e-13 0)
(0.924774 0.0295587 0)
(0.92 -1.58583e-14 0)
(0.925473 -0.0419676 0)
(0.92 1.14017e-14 0)
(0.925238 0.0482587 0)
(0.92 -1.21072e-13 0)
(0.92 9.91764e-14 0)
(0.920902 0.0626329 0)
(0.927795 -0.0180765 0)
(0.92 -5.47783e-14 0)
(0.92 1.10427e-13 0)
(0.92 3.15998e-14 0)
(0.92 1.07889e-13 0)
(0.92 -1.57072e-13 0)
(0.92 -1.04201e-13 0)
(0.92 1.82551e-15 0)
(0.92 -4.30568e-14 0)
(0.92 -5.22003e-14 0)
(0.92 4.75654e-15 0)
(0.92 4.55174e-14 0)
(0.920547 0.0744057 0)
(0.92 2.77829e-14 0)
(0.92 -1.39331e-13 0)
(0.92 9.1367e-14 0)
(0.92 1.48091e-14 0)
(0.923903 0.0455114 0)
(0.926741 -0.0407927 0)
(0.92 2.68928e-14 0)
(0.92 1.2606e-14 0)
(0.920666 0.00858827 0)
(0.92 4.43441e-14 0)
(0.92 1.87891e-13 0)
(0.920838 0.00811407 0)
(0.92 9.07914e-14 0)
(0.92 -7.098e-14 0)
(0.92 -5.18165e-15 0)
(0.92 6.65226e-14 0)
(0.92 6.25188e-14 0)
(0.92 -1.57751e-13 0)
(0.925215 -0.0163061 0)
(0.92 1.1914e-13 0)
(0.92 6.08496e-14 0)
(0.92 1.46196e-13 0)
(0.92665 0.0158276 0)
(0.92 -1.66744e-13 0)
(0.92 -6.31346e-14 0)
(0.92 -7.69083e-14 0)
(0.92 -5.99573e-14 0)
(0.92 1.22535e-13 0)
(0.920991 -0.0828966 0)
(0.92 -2.46055e-13 0)
(0.923446 -0.0656655 0)
(0.92 1.99845e-13 0)
(0.921538 -0.0792899 0)
(0.92 -1.19399e-13 0)
(0.91908 0.0134778 0)
(0.919259 0.0136528 0)
(0.926333 0.0158118 0)
(0.92 2.46601e-14 0)
(0.92 -1.33828e-13 0)
(0.92 7.21084e-14 0)
(0.920778 0.00275522 0)
(0.92 -7.01879e-14 0)
(0.925438 -0.066318 0)
(0.92 -5.56485e-14 0)
(0.924366 0.0280642 0)
(0.926318 -0.0415671 0)
(0.92 7.24291e-15 0)
(0.92 3.33685e-14 0)
(0.92 5.76752e-14 0)
(0.92 -2.03924e-13 0)
(0.92 7.37568e-14 0)
(0.92 -8.57503e-14 0)
(0.92 -9.07554e-14 0)
(0.923648 -0.0854789 0)
(0.92 2.50047e-13 0)
(0.92 -6.00836e-12 0)
(0.92 -6.96955e-14 0)
(0.92 -2.17899e-13 0)
(0.926568 -0.00149042 0)
(0.92 -2.95101e-14 0)
(0.92 -9.82053e-14 0)
(0.918262 0.0313822 0)
(0.92 5.9413e-14 0)
(0.926248 -0.00151962 0)
(0.924777 0.027518 0)
(0.921713 0.0721213 0)
(0.92 4.92878e-15 0)
(0.92 -9.9267e-14 0)
(0.91105 0.076629 0)
(0.92 -2.28299e-14 0)
(0.92 -8.28952e-14 0)
(0.92 1.14786e-13 0)
(0.92 7.17665e-14 0)
(0.92 1.54098e-13 0)
(0.92 -1.49336e-13 0)
(0.92 7.90637e-14 0)
(0.92 -6.89447e-14 0)
(0.92 -4.495e-14 0)
(0.92 -5.23115e-14 0)
(0.921481 0.0255247 0)
(0.92 -7.15809e-14 0)
(0.920562 0.0111374 0)
(0.920896 0.0104452 0)
(0.92 -6.32027e-15 0)
(0.92 2.79173e-14 0)
(0.92 1.11865e-13 0)
(0.92 3.97891e-14 0)
(0.92 5.54831e-14 0)
(0.92 6.40836e-14 0)
(0.911982 0.0763256 0)
(0.92 -1.67071e-13 0)
(0.92 9.22692e-14 0)
(0.92 -2.28108e-14 0)
(0.92 1.42491e-13 0)
(0.92 2.16761e-14 0)
(0.92 1.55491e-13 0)
(0.92 -5.37999e-14 0)
(0.92 -1.55146e-13 0)
(0.92 1.0499e-14 0)
(0.92 -4.73852e-14 0)
(0.92 -6.58364e-14 0)
(0.92 -9.9747e-14 0)
(0.92 -3.00167e-16 0)
(0.92 2.37668e-14 0)
(0.92 1.43538e-13 0)
(0.92 1.12394e-13 0)
(0.92 -1.21191e-13 0)
(0.92 -5.57789e-14 0)
(0.92 1.29576e-13 0)
(0.92 2.27929e-14 0)
(0.92 -4.74588e-14 0)
(0.92 -8.93739e-14 0)
(0.92 1.19099e-13 0)
(0.919067 0.0132411 0)
(0.92 -5.97979e-14 0)
(0.92 -6.7053e-14 0)
(0.92 3.32652e-14 0)
(0.920375 0.0624004 0)
(0.92 1.95753e-14 0)
(0.92 -1.93216e-13 0)
(0.92 1.1194e-13 0)
(0.92 1.06423e-13 0)
(0.921442 0.0261835 0)
(0.92 4.51264e-15 0)
(0.92 -7.41083e-14 0)
(0.92 -3.64436e-14 0)
(0.92 -5.15281e-14 0)
(0.92 -1.39242e-13 0)
(0.92 -1.41109e-13 0)
(0.92 4.82467e-14 0)
(0.92 -1.42341e-14 0)
(0.920526 0.00181248 0)
(0.92572 -0.0193017 0)
(0.92 -1.95856e-14 0)
(0.92 -1.53567e-14 0)
(0.92 -1.42087e-13 0)
(0.92 1.54834e-14 0)
(0.92 -2.41161e-13 0)
(0.92 -2.35945e-13 0)
(0.92665 -0.0347281 0)
(0.92 -8.92909e-14 0)
(0.91901 0.065842 0)
(0.92 1.53481e-13 0)
(0.92 2.06195e-13 0)
(0.92 -1.35911e-13 0)
(0.919466 0.0126863 0)
(0.92 3.50842e-14 0)
(0.92 -4.80396e-14 0)
(0.92 1.80471e-14 0)
(0.92 -1.2059e-13 0)
(0.918762 0.0657997 0)
(0.92 -1.31286e-13 0)
(0.92 1.02804e-13 0)
(0.92 -5.00149e-14 0)
(0.920364 0.0630276 0)
(0.92 -9.50613e-14 0)
(0.92 2.16756e-13 0)
(0.92 1.85153e-16 0)
(0.92 1.15204e-13 0)
(0.92 7.50629e-14 0)
(0.92 -1.39534e-14 0)
(0.92 3.55798e-14 0)
(0.92 7.76835e-14 0)
(0.92 -6.18657e-14 0)
(0.85285 0.0731149 0)
(0.92 -1.19683e-14 0)
(0.924929 0.0468175 0)
(0.920152 0.0136689 0)
(0.906839 0.0753459 0)
(0.921086 0.0125051 0)
(0.92 2.04649e-14 0)
(0.92 1.21227e-13 0)
(0.92 2.03076e-14 0)
(0.92 -8.66682e-14 0)
(0.92 -3.3931e-14 0)
(0.92 -1.34974e-13 0)
(0.92 -6.88906e-15 0)
(0.92 -2.00924e-14 0)
(0.92 8.65154e-14 0)
(0.924983 0.0475844 0)
(0.92 -7.32852e-14 0)
(0.92 -4.08615e-14 0)
(0.92 -1.68992e-13 0)
(0.924501 0.0429403 0)
(0.92 -2.19646e-13 0)
(0.92 -6.51648e-14 0)
(0.92 -2.69918e-13 0)
(0.926467 0.00117374 0)
(0.92 -2.50102e-14 0)
(0.92 -3.62293e-14 0)
(0.92 1.86576e-13 0)
(0.92 -1.75079e-13 0)
(0.92 1.06229e-13 0)
(0.923016 0.000312498 0)
(0.92 1.2809e-13 0)
(0.923649 0.0478572 0)
(0.923997 0.0470561 0)
(0.92 1.67547e-14 0)
(0.926097 0.00109127 0)
(0.92 3.12369e-14 0)
(0.92 -5.77737e-14 0)
(0.92 3.73477e-14 0)
(0.926149 -0.0402897 0)
(0.926151 0.0131142 0)
(0.92 6.43464e-14 0)
(0.92 2.24507e-13 0)
(0.92 -2.22978e-14 0)
(0.92 -1.26916e-13 0)
(0.92 -1.11882e-13 0)
(0.924733 -0.0390251 0)
(0.92 9.35458e-14 0)
(0.92 -3.97375e-14 0)
(0.922838 0.000338691 0)
(0.92 1.17023e-13 0)
(0.925967 0.0129057 0)
(0.92 -3.14976e-14 0)
(0.915783 -0.0786149 0)
(0.92 8.03034e-14 0)
(0.92 5.69367e-14 0)
(0.92 -2.382e-13 0)
(0.918264 0.0303097 0)
(0.92 1.01533e-13 0)
(0.908389 0.0750798 0)
(0.92 -6.14863e-14 0)
(0.92 9.86206e-14 0)
(0.92 -5.68778e-14 0)
(0.92 1.10814e-13 0)
(0.92 1.75572e-13 0)
(0.92 -5.85486e-14 0)
(0.92 -7.53848e-14 0)
(0.92 1.35508e-13 0)
(0.926584 0.0112912 0)
(0.92 5.64455e-14 0)
(0.92 8.06981e-14 0)
(0.92 2.89966e-14 0)
(0.924504 0.0434052 0)
(0.92 7.43812e-14 0)
(0.92 1.82478e-13 0)
(0.92 1.38361e-13 0)
(0.92 1.45818e-13 0)
(0.923686 -0.0682316 0)
(0.92 2.18465e-14 0)
(0.92 1.94829e-13 0)
(0.92 2.6228e-13 0)
(0.926289 0.011127 0)
(0.92 -1.26279e-14 0)
(0.92125 0.0613629 0)
(0.92 -7.72897e-14 0)
(0.92 -8.12052e-15 0)
(0.92 2.56886e-14 0)
(0.92 1.22335e-13 0)
(0.92 1.19924e-14 0)
(0.92 -3.44544e-14 0)
(0.92 -1.45727e-13 0)
(0.92654 0.00387357 0)
(0.92 -1.02519e-13 0)
(0.92 -2.41785e-13 0)
(0.92 -5.90524e-16 0)
(0.92 2.41049e-13 0)
(0.92 -2.04084e-14 0)
(0.92 1.34158e-13 0)
(0.92 -1.13207e-13 0)
(0.92 7.88585e-14 0)
(0.92 1.33967e-13 0)
(0.92 1.29657e-13 0)
(0.92 -3.95178e-14 0)
(0.92 1.76294e-15 0)
(0.92 -1.02028e-13 0)
(0.926637 0.00936261 0)
(0.92 1.48946e-13 0)
(0.921487 0.0237729 0)
(0.92 5.99361e-15 0)
(0.92 1.23676e-13 0)
(0.92 6.63635e-14 0)
(0.919219 0.0117881 0)
(0.92 -4.23503e-14 0)
(0.92 1.26291e-13 0)
(0.926206 0.00385433 0)
(0.92 -2.23507e-14 0)
(0.92 6.0207e-14 0)
(0.92 1.47216e-13 0)
(0.925626 -0.0428649 0)
(0.92 7.15792e-14 0)
(0.92 1.9205e-13 0)
(0.92 -6.76006e-15 0)
(0.92 6.18473e-14 0)
(0.921117 -0.0677727 0)
(0.920348 0.00118466 0)
(0.92 -1.0573e-14 0)
(0.92 6.20609e-14 0)
(0.92 -6.80527e-14 0)
(0.924302 0.0436724 0)
(0.921661 0.0583431 0)
(0.904431 0.0754611 0)
(0.92 1.39016e-14 0)
(0.92 3.13123e-15 0)
(0.92 5.64429e-14 0)
(0.92 2.40024e-14 0)
(0.92 -2.74318e-14 0)
(0.926176 0.00933571 0)
(0.92 6.3253e-14 0)
(0.92 -8.3592e-14 0)
(0.92 -1.30846e-13 0)
(0.922186 -0.0833407 0)
(0.92 -4.33613e-14 0)
(0.92 -3.21758e-14 0)
(0.92 -9.97763e-14 0)
(0.92 7.76608e-14 0)
(0.916337 -0.0764218 0)
(0.926514 0.00671156 0)
(0.92 2.97678e-14 0)
(0.924717 0.0527689 0)
(0.92 7.52325e-14 0)
(0.92 1.04991e-13 0)
(0.925581 -0.0169105 0)
(0.92 -4.33796e-14 0)
(0.92 2.1201e-13 0)
(0.92 -8.87367e-15 0)
(0.92 2.11146e-14 0)
(0.92 6.88505e-14 0)
(0.92 6.71522e-14 0)
(0.92 3.13869e-08 0)
(0.920256 0.000794318 0)
(0.92 5.3337e-15 0)
(0.925292 0.0255248 0)
(0.919511 0.0108115 0)
(0.925077 0.0311718 0)
(0.926121 0.00663107 0)
(0.92 1.00047e-13 0)
(0.921685 -0.0756093 0)
(0.92 -6.24221e-15 0)
(0.92 -1.02111e-14 0)
(0.92 -1.10442e-13 0)
(0.923368 -0.0759954 0)
(0.92 6.92885e-14 0)
(0.92 1.96239e-13 0)
(0.92 1.60984e-13 0)
(0.92 1.70728e-14 0)
(0.92 1.76722e-13 0)
(0.92 -3.72939e-14 0)
(0.923861 -0.0647048 0)
(0.92 1.78415e-13 0)
(0.92 1.14966e-13 0)
(0.92 1.21531e-13 0)
(0.92 7.71953e-14 0)
(0.925052 0.0443149 0)
(0.92 1.62581e-14 0)
(0.92 -6.34813e-14 0)
(0.92 1.74253e-13 0)
(0.925384 0.0428444 0)
(0.92 -9.27761e-14 0)
(0.92 4.77665e-14 0)
(0.92 8.0916e-14 0)
(0.92 6.87484e-14 0)
(0.921595 0.0250005 0)
(0.92 -2.05754e-13 0)
(0.92484 0.0315095 0)
(0.921134 0.0607491 0)
(0.92 6.93658e-14 0)
(0.92 4.00623e-14 0)
(0.92 1.16053e-14 0)
(0.92 -1.01735e-13 0)
(0.92 -1.64233e-15 0)
(0.92 -6.39023e-14 0)
(0.92 -1.13924e-13 0)
(0.921465 0.0582941 0)
(0.926028 -0.0159904 0)
(0.924559 0.0526615 0)
(0.921104 0.0628714 0)
(0.92 -8.70947e-14 0)
(0.92 4.80421e-14 0)
(0.92 7.35881e-14 0)
(0.905709 0.0749843 0)
(0.927506 -0.0162196 0)
(0.92 8.2452e-14 0)
(0.92 2.5696e-13 0)
(0.92 1.11358e-13 0)
(0.924899 0.0340064 0)
(0.92 5.61476e-14 0)
(0.92 -1.54874e-14 0)
(0.92 -4.91017e-14 0)
(0.92 3.15397e-14 0)
(0.92 -2.78394e-15 0)
(0.927746 -0.0423032 0)
(0.92 -4.2648e-15 0)
(0.92 1.92356e-14 0)
(0.92 -2.39028e-13 0)
(0.92 -2.46155e-13 0)
(0.92 3.16268e-14 0)
(0.92 -1.41118e-13 0)
(0.926704 0.0246593 0)
(0.92 2.03533e-13 0)
(0.92 -2.40032e-13 0)
(0.92 -1.35076e-13 0)
(0.92 -3.30892e-14 0)
(0.92 5.57259e-14 0)
(0.92 1.65034e-13 0)
(0.92 6.86647e-14 0)
(0.92 -1.12206e-13 0)
(0.92 -2.68026e-13 0)
(0.92487 0.045986 0)
(0.92 4.49719e-14 0)
(0.92 -6.2394e-14 0)
(0.92 3.42959e-14 0)
(0.92 -3.77138e-14 0)
(0.919316 0.019153 0)
(0.921173 0.0170489 0)
(0.92 -5.44906e-14 0)
(0.92 5.74094e-14 0)
(0.92 -1.63255e-13 0)
(0.92 3.23141e-14 0)
(0.92 1.28176e-13 0)
(0.921627 0.0226054 0)
(0.92 -5.25283e-14 0)
(0.92 7.24476e-14 0)
(0.92 1.99085e-13 0)
(0.92 2.62923e-14 0)
(0.918975 0.062682 0)
(0.92 5.09208e-14 0)
(0.92 1.55357e-14 0)
(0.92 2.76381e-14 0)
(0.918982 0.0194789 0)
(0.92 2.15401e-15 0)
(0.92442 0.0344038 0)
(0.925813 -0.0482091 0)
(0.92 -5.19337e-14 0)
(0.921733 -0.0669746 0)
(0.92 1.29011e-13 0)
(0.91942 0.00991184 0)
(0.92 1.56748e-13 0)
(0.92 5.31372e-14 0)
(0.92 -2.22162e-13 0)
(0.92 -9.73542e-14 0)
(0.92 9.09852e-14 0)
(0.92 3.51131e-14 0)
(0.92 3.37732e-14 0)
(0.92 1.56196e-14 0)
(0.92 6.28125e-14 0)
(0.92 -1.79858e-13 0)
(0.92 1.74263e-13 0)
(0.92 1.30412e-13 0)
(0.926467 -0.0188402 0)
(0.92 -1.34419e-15 0)
(0.92 -1.86828e-13 0)
(0.928467 -0.0346421 0)
(0.92 6.41516e-14 0)
(0.92 -1.11667e-13 0)
(0.919923 0.00464403 0)
(0.92 -9.90237e-14 0)
(0.92 -1.17611e-13 0)
(0.92 -5.52317e-14 0)
(0.92 -5.85184e-14 0)
(0.92 -3.92411e-14 0)
(0.92 6.57698e-14 0)
(0.92 -1.04522e-13 0)
(0.92 -3.07329e-14 0)
(0.92 1.04255e-13 0)
(0.92 1.21023e-13 0)
(0.919657 0.00880263 0)
(0.92 8.53874e-14 0)
(0.92 -4.81335e-14 0)
(0.92 -3.53268e-15 0)
(0.92716 -0.0483024 0)
(0.92 1.541e-13 0)
(0.92 5.47381e-14 0)
(0.926452 -0.0384862 0)
(0.92 1.38141e-13 0)
(0.92 1.46779e-13 0)
(0.92 -5.93047e-14 0)
(0.919427 -0.081716 0)
(0.92 3.83776e-14 0)
(0.92 1.29e-13 0)
(0.92 6.70755e-14 0)
(0.92 8.88196e-14 0)
(0.918922 -0.0780813 0)
(0.92 1.62975e-13 0)
(0.92 -1.09886e-13 0)
(0.92 4.47755e-14 0)
(0.92 2.67751e-14 0)
(0.92 -1.76999e-13 0)
(0.91536 -0.0741911 0)
(0.924214 0.0303714 0)
(0.92 3.25901e-14 0)
(0.919495 0.0212709 0)
(0.92 -1.19097e-14 0)
(0.92 1.61971e-14 0)
(0.920711 0.018715 0)
(0.92 1.63919e-13 0)
(0.92 4.26332e-14 0)
(0.92 1.01423e-13 0)
(0.92 -1.57915e-14 0)
(0.92 -2.8358e-14 0)
(0.921812 0.0218475 0)
(0.92 6.6163e-14 0)
(0.92 1.06087e-14 0)
(0.92 1.46452e-13 0)
(0.92 4.97489e-14 0)
(0.919994 -0.0788198 0)
(0.92 -1.24854e-13 0)
(0.92 1.74399e-14 0)
(0.92 2.71817e-15 0)
(0.92 -2.75381e-14 0)
(0.92 3.66087e-14 0)
(0.92 -3.30271e-14 0)
(0.918163 0.0275949 0)
(0.92 9.6424e-14 0)
(0.92 -4.14796e-14 0)
(0.92 1.03534e-13 0)
(0.92 -4.37029e-15 0)
(0.92 -1.49208e-13 0)
(0.92 1.97875e-13 0)
(0.92 -6.35932e-14 0)
(0.92 6.89565e-14 0)
(0.92 -8.87871e-14 0)
(0.92 -1.23649e-13 0)
(0.92 -2.088e-13 0)
(0.924146 0.0462374 0)
(0.924067 0.0451649 0)
(0.92 1.2349e-14 0)
(0.921825 0.0501324 0)
(0.92 -3.04144e-14 0)
(0.92 9.24014e-14 0)
(0.908243 -0.0849263 0)
(0.92 1.44133e-13 0)
(0.92 -8.74922e-14 0)
(0.92 -3.59038e-14 0)
(0.92 5.26749e-14 0)
(0.92 1.06471e-08 0)
(0.92 3.69764e-14 0)
(0.92 9.9174e-15 0)
(0.92 5.49093e-16 0)
(0.92 1.38575e-15 0)
(0.92 -1.22827e-14 0)
(0.924999 -0.0760934 0)
(0.92 5.13516e-14 0)
(0.92 -9.28485e-14 0)
(0.92 6.32388e-14 0)
(0.92 -9.22936e-15 0)
(0.925353 0.0276612 0)
(0.92 -1.37275e-13 0)
(0.92 5.94606e-14 0)
(0.92 -7.13484e-14 0)
(0.92 4.80968e-14 0)
(0.92 -8.53421e-14 0)
(0.921476 0.0206732 0)
(0.92 -6.31832e-14 0)
(0.92 3.55361e-14 0)
(0.92 -3.01157e-14 0)
(0.92 1.06689e-13 0)
(0.92 1.4775e-13 0)
(0.92 -6.23044e-14 0)
(0.92 -4.6783e-14 0)
(0.92 -7.26205e-15 0)
(0.927702 -0.0160062 0)
(0.92 -7.2106e-14 0)
(0.924907 0.0400032 0)
(0.92 -5.10742e-14 0)
(0.92 -1.05813e-14 0)
(0.922615 0.0478756 0)
(0.92 -1.4691e-13 0)
(0.92 -1.02729e-13 0)
(0.923302 -0.0849919 0)
(0.918865 0.0706288 0)
(0.925514 0.0280672 0)
(0.922332 -0.0856399 0)
(0.92 3.29146e-14 0)
(0.92311 -0.0639192 0)
(0.92 -1.79132e-13 0)
(0.92413 -0.0556728 0)
(0.919956 -0.0801017 0)
(0.919539 -0.0793537 0)
(0.92 -2.58958e-14 0)
(0.92 -2.16332e-14 0)
(0.92 1.2355e-13 0)
(0.92 9.72036e-14 0)
(0.920116 0.000347321 0)
(0.926707 -0.0328999 0)
(0.917509 -0.0759987 0)
(0.92 -4.56118e-14 0)
(0.92 7.64912e-14 0)
(0.92 -3.24444e-13 0)
(0.92 2.46498e-14 0)
(0.921666 -0.0697312 0)
(0.92 -9.59398e-15 0)
(0.858522 0.0736913 0)
(0.92 2.88768e-14 0)
(0.919998 -0.000281067 0)
(0.92 -1.4812e-13 0)
(0.92 5.86036e-14 0)
(0.92 4.72541e-10 0)
(0.92 -9.10447e-14 0)
(0.92 -3.85652e-14 0)
(0.920203 0.00062123 0)
(0.92 -8.5948e-14 0)
(0.92 -1.0089e-13 0)
(0.92 6.61651e-14 0)
(0.92 -2.14642e-14 0)
(0.919575 0.069938 0)
(0.916336 -0.0169246 0)
(0.92 -4.60276e-14 0)
(0.92 9.22345e-08 0)
(0.92 -1.10884e-14 0)
(0.92 6.67131e-08 0)
(0.92 -2.69238e-14 0)
(0.92 3.83475e-15 0)
(0.92 1.4247e-14 0)
(0.924171 -0.053164 0)
(0.92 -4.90672e-14 0)
(0.92 2.71543e-14 0)
(0.92 5.10497e-14 0)
(0.922995 0.047287 0)
(0.918728 -0.0754175 0)
(0.92 1.35514e-13 0)
(0.92 -4.52602e-11 0)
(0.92 -2.21845e-13 0)
(0.922492 0.0458888 0)
(0.924915 0.0408137 0)
(0.920538 0.00232093 0)
(0.92 2.03975e-13 0)
(0.92 -1.71224e-13 0)
(0.92 2.35088e-14 0)
(0.92 2.2806e-13 0)
(0.92 5.65312e-14 0)
(0.92 -3.62244e-14 0)
(0.92 -1.10242e-14 0)
(0.92 -1.59148e-15 0)
(0.920682 0.00301865 0)
(0.92 4.56628e-14 0)
(0.924437 0.0410728 0)
(0.92 -8.39714e-14 0)
(0.92 2.40636e-13 0)
(0.92 4.19713e-15 0)
(0.92 3.42168e-14 0)
(0.92 7.03514e-14 0)
(0.92 -3.63521e-13 0)
(0.92 -1.10853e-13 0)
(0.92 -7.07356e-14 0)
(0.92 1.78827e-13 0)
(0.92 -9.70539e-14 0)
(0.92 -1.30097e-13 0)
(0.92 -1.2623e-14 0)
(0.919667 0.00775174 0)
(0.919758 0.00716051 0)
(0.92 -1.06498e-13 0)
(0.921584 0.019338 0)
(0.92 4.7966e-14 0)
(0.92 -1.97067e-15 0)
(0.925185 0.0422661 0)
(0.92 1.12052e-14 0)
(0.92 -3.84847e-14 0)
(0.92 6.13804e-14 0)
(0.924197 0.0440711 0)
(0.924572 -0.0616098 0)
(0.92 -3.8259e-14 0)
(0.924143 0.0504472 0)
(0.92 -2.05486e-14 0)
(0.92 8.79557e-14 0)
(0.92 -2.09994e-14 0)
(0.926256 -0.01939 0)
(0.92 -6.69467e-14 0)
(0.92 -1.39164e-13 0)
(0.92 -1.2316e-13 0)
(0.92 -8.92769e-14 0)
(0.92 -3.37123e-14 0)
(0.92 -9.8346e-14 0)
(0.923106 0.0452037 0)
(0.92 -2.50675e-13 0)
(0.92 1.21299e-13 0)
(0.92 -2.49146e-13 0)
(0.92 -2.20461e-13 0)
(0.92 -2.66605e-13 0)
(0.92 7.58574e-14 0)
(0.92 2.83816e-14 0)
(0.92 -4.20022e-14 0)
(0.92 -6.08997e-14 0)
(0.92 -1.33342e-13 0)
(0.92 -7.68989e-14 0)
(0.92 3.58727e-14 0)
(0.92 -1.11668e-13 0)
(0.92 4.93404e-14 0)