/*--------------------------------*- C++ -*----------------------------------*\
  =========                 |
  \\      /  F ield         | OpenFOAM: The Open Source CFD Toolbox
   \\    /   O peration     | Website:  https://openfoam.org
    \\  /    A nd           | Version:  12
     \\/     M anipulation  |
\*---------------------------------------------------------------------------*/
FoamFile
{
    format      ascii;
    class       volScalarField;
    location    "13.1";
    object      p;
}
// * * * * * * * * * * * * * * * * * * * * * * * * * * * * * * * * * * * * * //

dimensions      [1 -1 -2 0 0 0 0];

internalField   nonuniform List<scalar> 
9801
(
0.608696
0.610928
0.614378
0.622116
0.635168
0.64369
0.64697
0.648761
0.649549
0.649751
0.650688
0.65245
0.65495
0.658043
0.663671
0.67535
0.686956
0.69249
0.695182
0.696821
0.697267
0.697835
0.699448
0.701941
0.704991
0.709297
0.718741
0.732834
0.741707
0.745672
0.748119
0.748201
0.747536
0.748775
0.751177
0.75441
0.758661
0.767363
0.783969
0.796102
0.8011
0.803855
0.803248
0.801282
0.801924
0.804684
0.808453
0.812985
0.821832
0.840831
0.855645
0.862091
0.865674
0.86509
0.861588
0.861496
0.864576
0.868539
0.87363
0.883367
0.906034
0.924988
0.934256
0.939591
0.938865
0.930892
0.928707
0.931934
0.937839
0.945158
0.95903
0.98856
1.01073
1.02227
1.02954
1.0285
1.01479
1.00882
1.01321
1.02246
1.03588
1.07009
1.11136
1.13401
1.14765
1.15733
1.15083
1.12929
1.12209
1.13325
1.15654
1.21665
1.29098
1.34576
1.39733
1.44983
1.44763
2.26094
9.49849
0.614722
0.617569
0.621172
0.6298
0.640178
0.647325
0.651933
0.655222
0.657193
0.656032
0.656068
0.65819
0.661089
0.664268
0.66993
0.681111
0.690741
0.696696
0.700693
0.70373
0.703791
0.702541
0.704186
0.707206
0.710613
0.714702
0.724055
0.736765
0.745054
0.75013
0.753968
0.75522
0.752107
0.752466
0.755438
0.759291
0.763501
0.771199
0.786511
0.79852
0.804905
0.809298
0.810732
0.805788
0.804796
0.807981
0.812335
0.816973
0.824478
0.841868
0.857682
0.865797
0.87088
0.872855
0.865922
0.863015
0.866358
0.871119
0.876565
0.88537
0.907465
0.927001
0.937086
0.943394
0.945645
0.935719
0.929606
0.932876
0.939623
0.947073
0.961154
0.990648
1.01361
1.02535
1.03359
1.03566
1.02041
1.00996
1.01478
1.02494
1.03886
1.07108
1.10817
1.13079
1.14599
1.16056
1.16203
1.1359
1.12407
1.13874
1.16182
1.20522
1.26641
1.31628
1.36305
1.40458
1.38216
2.16306
9.64613
0.617319
0.620475
0.624137
0.632638
0.642633
0.64909
0.653578
0.657074
0.659562
0.659372
0.659201
0.661083
0.663926
0.667111
0.672337
0.683198
0.692628
0.698418
0.702646
0.706117
0.707339
0.706075
0.707176
0.709868
0.713166
0.716996
0.725771
0.73859
0.746785
0.751999
0.756194
0.758464
0.756009
0.755889
0.758552
0.762222
0.7662
0.772812
0.787443
0.799486
0.806169
0.81104
0.813788
0.81033
0.808981
0.81174
0.815642
0.81995
0.826081
0.841797
0.858006
0.866813
0.872517
0.876066
0.871236
0.866991
0.869197
0.873796
0.879421
0.887356
0.907224
0.926964
0.937668
0.94447
0.948683
0.941859
0.933623
0.934998
0.941325
0.948849
0.961294
0.988763
1.01167
1.02454
1.03367
1.0398
1.0288
1.01478
1.01669
1.02652
1.03861
1.06336
1.10249
1.13169
1.14998
1.16507
1.17168
1.14884
1.13049
1.13894
1.16188
1.19508
1.252
1.30502
1.3505
1.39334
1.376
2.15165
9.65495
0.620671
0.62395
0.627779
0.63631
0.645909
0.652014
0.656262
0.659756
0.662833
0.664055
0.663289
0.66445
0.66698
0.670195
0.675395
0.686291
0.695931
0.701644
0.705809
0.709459
0.711796
0.71005
0.709949
0.712203
0.715563
0.719785
0.728996
0.74203
0.750167
0.755229
0.759426
0.762509
0.760314
0.758928
0.760915
0.764339
0.768444
0.775153
0.789945
0.802436
0.809261
0.814235
0.818219
0.816281
0.812514
0.813644
0.816931
0.82133
0.827398
0.842895
0.860416
0.869984
0.876008
0.880869
0.878509
0.871025
0.870859
0.874714
0.880305
0.888069
0.906801
0.928144
0.940298
0.947627
0.953369
0.950478
0.938612
0.936573
0.942102
0.949627
0.960268
0.985667
1.01183
1.02686
1.03683
1.04526
1.04118
1.02312
1.0181
1.02624
1.03796
1.05607
1.09326
1.12779
1.14837
1.16353
1.17604
1.16659
1.14358
1.1391
1.15671
1.1831
1.22447
1.2753
1.3182
1.35902
1.36476
2.18888
9.68738
0.623569
0.626866
0.630704
0.639751
0.64912
0.654899
0.659048
0.66256
0.665771
0.6676
0.666643
0.66736
0.669705
0.67282
0.678276
0.689767
0.699318
0.704781
0.70881
0.712414
0.714693
0.712811
0.712584
0.714893
0.718196
0.722558
0.732663
0.745805
0.753562
0.758345
0.762369
0.765259
0.762931
0.761524
0.763703
0.767171
0.771242
0.778104
0.793023
0.805535
0.812285
0.817102
0.821105
0.819811
0.81489
0.815628
0.819312
0.82406
0.830392
0.845475
0.862964
0.872718
0.878797
0.883707
0.88367
0.874912
0.8724
0.875996
0.881735
0.889332
0.906539
0.928917
0.942335
0.950134
0.956297
0.958239
0.946611
0.938681
0.942032
0.949333
0.958637
0.97977
1.00938
1.02765
1.03827
1.04727
1.0515
1.03569
1.02189
1.02431
1.03566
1.04993
1.07892
1.11883
1.14661
1.16476
1.1804
1.18543
1.16479
1.14865
1.15212
1.17311
1.20394
1.25045
1.29146
1.32524
1.34165
2.22131
9.71344
0.626897
0.630249
0.63388
0.643339
0.652918
0.658444
0.662347
0.665707
0.668811
0.670434
0.669418
0.670179
0.67261
0.67573
0.681278
0.693511
0.703324
0.708553
0.712349
0.715726
0.717468
0.715247
0.714912
0.717272
0.720698
0.725126
0.735654
0.749466
0.757312
0.761964
0.765852
0.768563
0.766147
0.763668
0.765515
0.769189
0.773549
0.780575
0.795595
0.808423
0.815307
0.820142
0.824269
0.824508
0.818753
0.817517
0.820813
0.825601
0.832017
0.846625
0.864543
0.874871
0.881198
0.886427
0.889401
0.882274
0.875248
0.876849
0.882313
0.889449
0.904512
0.92834
0.944185
0.952635
0.959118
0.964475
0.957948
0.944475
0.942517
0.948718
0.957159
0.972652
1.00328
1.02843
1.04168
1.05096
1.05856
1.05097
1.03125
1.02581
1.03333
1.0454
1.06441
1.10157
1.1372
1.16052
1.17837
1.19341
1.18881
1.16626
1.15664
1.16483
1.18589
1.22037
1.26206
1.29456
1.31234
2.25698
9.74171
0.629372
0.632804
0.636631
0.646465
0.656869
0.662449
0.666111
0.669267
0.672176
0.673273
0.671511
0.672021
0.67452
0.677856
0.683643
0.696426
0.707219
0.712616
0.716228
0.71933
0.721197
0.718824
0.716874
0.718721
0.722117
0.726692
0.737037
0.752014
0.761017
0.765905
0.769661
0.772766
0.772021
0.76761
0.76701
0.770071
0.774433
0.781594
0.796772
0.81097
0.818659
0.823774
0.828192
0.830987
0.825744
0.820587
0.821699
0.825834
0.831624
0.845038
0.864853
0.877208
0.884157
0.889653
0.894414
0.89137
0.881124
0.878903
0.883121
0.88927
0.900089
0.923995
0.944969
0.955457
0.962198
0.968433
0.967923
0.953488
0.946533
0.949809
0.957143
0.966975
0.990976
1.02355
1.04299
1.05407
1.0632
1.06617
1.04872
1.03337
1.03263
1.04185
1.05487
1.08108
1.12065
1.15214
1.17371
1.19119
1.20196
1.19058
1.17105
1.16542
1.17537
1.19674
1.23273
1.26788
1.28754
2.28365
9.77248
0.631656
0.634845
0.638414
0.648157
0.660121
0.666599
0.670383
0.67347
0.676234
0.677372
0.675107
0.674607
0.676705
0.679794
0.684891
0.697417
0.709663
0.716068
0.720075
0.723383
0.726088
0.724754
0.721157
0.721524
0.724295
0.728007
0.73617
0.751924
0.763207
0.76917
0.773428
0.777214
0.778992
0.773789
0.770589
0.771944
0.775479
0.780787
0.794657
0.811735
0.821379
0.827076
0.831792
0.836017
0.834165
0.825656
0.823649
0.826641
0.831442
0.841318
0.862455
0.879193
0.887592
0.893332
0.898586
0.899902
0.88926
0.882845
0.884557
0.889758
0.896711
0.915032
0.94211
0.957686
0.965775
0.972401
0.976787
0.966938
0.953684
0.95152
0.956633
0.964524
0.978212
1.01045
1.04024
1.05624
1.06684
1.07565
1.07133
1.04794
1.03708
1.04062
1.05127
1.06625
1.09764
1.13507
1.16233
1.18253
1.20018
1.20726
1.19494
1.17611
1.17121
1.18024
1.20135
1.2374
1.2632
2.31439
9.80304
0.634714
0.637464
0.6405
0.64869
0.661607
0.669376
0.673704
0.676993
0.679818
0.681549
0.679472
0.678183
0.67987
0.682711
0.686713
0.697349
0.710467
0.717934
0.722617
0.726345
0.729613
0.730632
0.726445
0.725367
0.727402
0.730577
0.735867
0.749952
0.76379
0.771219
0.776172
0.780322
0.783781
0.781395
0.775099
0.774858
0.777613
0.781675
0.791255
0.810338
0.823513
0.830287
0.835177
0.83955
0.840654
0.832095
0.827083
0.828664
0.832992
0.839196
0.856684
0.879063
0.890848
0.897196
0.902396
0.906003
0.899033
0.888138
0.88681
0.890559
0.896338
0.906608
0.933294
0.957534
0.969318
0.976655
0.982964
0.981076
0.964292
0.954735
0.956116
0.962945
0.971761
0.992913
1.02953
1.0549
1.0684
1.07825
1.085
1.07327
1.05117
1.04447
1.04945
1.06012
1.07787
1.11243
1.14711
1.17207
1.19119
1.20764
1.21024
1.1971
1.17803
1.17134
1.17811
1.20186
1.23434
2.34185
9.8332
0.63814
0.640593
0.643395
0.649867
0.662625
0.671564
0.676364
0.679852
0.682858
0.685285
0.684124
0.682091
0.683344
0.685966
0.689305
0.697583
0.711186
0.719865
0.724978
0.728936
0.732438
0.735044
0.732216
0.729254
0.73053
0.73344
0.737452
0.748374
0.764174
0.773359
0.778759
0.783033
0.786897
0.787734
0.780721
0.777993
0.780084
0.78389
0.790132
0.807229
0.824534
0.833055
0.838281
0.842712
0.84571
0.839748
0.831678
0.831763
0.835382
0.840324
0.850609
0.874382
0.892109
0.900356
0.905803
0.910548
0.909358
0.896522
0.890231
0.892109
0.89734
0.903946
0.921317
0.951846
0.97084
0.98015
0.986848
0.991836
0.981564
0.963352
0.958862
0.963025
0.970653
0.980662
1.00805
1.04426
1.06564
1.078
1.08806
1.09377
1.07778
1.05584
1.05116
1.05769
1.06925
1.08998
1.12518
1.1563
1.17909
1.19724
1.2111
1.21123
1.19661
1.17554
1.16622
1.17193
1.19784
2.35838
9.86369
0.641784
0.643967
0.646602
0.651531
0.663466
0.673608
0.678921
0.682648
0.68581
0.688631
0.68875
0.686164
0.686681
0.689012
0.692046
0.698014
0.711628
0.722182
0.727803
0.731915
0.735476
0.7386
0.737544
0.733116
0.733346
0.736031
0.739663
0.74767
0.764167
0.775671
0.781615
0.78596
0.789786
0.792141
0.786713
0.781639
0.782992
0.786482
0.79108
0.803314
0.823582
0.835218
0.841103
0.845646
0.849633
0.848065
0.838428
0.835379
0.837781
0.842145
0.848069
0.865684
0.890049
0.902522
0.909022
0.914271
0.917751
0.909106
0.896558
0.89488
0.898598
0.904401
0.91289
0.937846
0.966639
0.980923
0.988826
0.995539
0.998636
0.983146
0.967316
0.965116
0.969179
0.976632
0.989528
1.02276
1.05744
1.07695
1.0887
1.09824
1.09973
1.08101
1.06193
1.05907
1.06601
1.07819
1.10205
1.13705
1.16502
1.18501
1.20127
1.21154
1.20982
1.19344
1.16977
1.15522
1.15787
2.34743
9.89572
0.645558
0.647351
0.649785
0.653368
0.663608
0.675556
0.681762
0.685672
0.68893
0.691907
0.69314
0.690315
0.689714
0.69167
0.694607
0.698922
0.711166
0.724376
0.731002
0.735167
0.738729
0.741991
0.742338
0.737331
0.73625
0.738542
0.741968
0.747515
0.762799
0.77765
0.784704
0.789046
0.792829
0.795962
0.793056
0.7864
0.786134
0.789118
0.793118
0.80019
0.819462
0.83646
0.844205
0.848959
0.853174
0.855431
0.847405
0.839684
0.839934
0.843416
0.848275
0.857577
0.882362
0.903087
0.912442
0.918184
0.92311
0.922609
0.908235
0.899408
0.899868
0.904079
0.910182
0.922534
0.953802
0.979469
0.991646
0.999666
1.00675
1.00505
0.98355
0.969751
0.970026
0.975985
0.984198
0.999613
1.03546
1.06747
1.08477
1.09606
1.10579
1.107
1.08686
1.06824
1.06616
1.07356
1.08655
1.11346
1.14699
1.17171
1.18978
1.20436
1.21119
1.20688
1.18767
1.15858
1.13304
2.30915
9.92555
0.649313
0.650453
0.652641
0.655587
0.663126
0.676827
0.68492
0.689077
0.692376
0.695354
0.697298
0.694707
0.692728
0.69418
0.69694
0.700411
0.709595
0.725398
0.734307
0.738731
0.742256
0.745505
0.74695
0.742285
0.739485
0.741134
0.744246
0.748239
0.759504
0.77773
0.787578
0.792488
0.796308
0.799832
0.799867
0.792615
0.789566
0.791363
0.794882
0.799457
0.81268
0.834698
0.8467
0.852524
0.856894
0.860876
0.858113
0.846632
0.842801
0.845034
0.849315
0.85474
0.870407
0.898158
0.913968
0.921207
0.926586
0.931126
0.925309
0.908619
0.902179
0.903906
0.909151
0.916082
0.935179
0.970327
0.992234
1.00212
1.00861
1.01414
1.00911
0.987319
0.976145
0.976934
0.982284
0.990584
1.00972
1.04764
1.07743
1.09396
1.10528
1.1136
1.11156
1.09144
1.0741
1.07237
1.07965
1.09365
1.12339
1.15595
1.17826
1.19384
1.20561
1.20906
1.20244
1.17409
1.1302
2.2523
9.9554
0.652919
0.653244
0.655195
0.658008
0.663034
0.67653
0.68769
0.692801
0.696038
0.698913
0.701241
0.699695
0.696266
0.696823
0.699264
0.702385
0.708088
0.723722
0.736735
0.74258
0.746083
0.74923
0.751494
0.748217
0.743419
0.74381
0.74647
0.749934
0.75634
0.774264
0.789408
0.796126
0.800173
0.803787
0.806156
0.800545
0.793669
0.793617
0.796442
0.80042
0.807313
0.82783
0.847332
0.855983
0.861006
0.86525
0.867512
0.858085
0.848208
0.847394
0.850149
0.854787
0.862158
0.885556
0.911765
0.923952
0.930748
0.936419
0.939249
0.925631
0.909442
0.906701
0.910385
0.916189
0.923575
0.947496
0.982105
1.00018
1.00949
1.01748
1.02378
1.01423
0.990566
0.980876
0.983254
0.99009
0.999147
1.02044
1.05763
1.08463
1.09995
1.11118
1.11945
1.11703
1.09615
1.07872
1.0769
1.08417
1.09916
1.13104
1.16246
1.18263
1.19632
1.20411
1.20599
1.19116
1.14838
2.20065
9.98688
0.656742
0.656152
0.657801
0.660491
0.664009
0.674673
0.688803
0.695813
0.699552
0.702539
0.705237
0.705462
0.701022
0.699803
0.701719
0.704616
0.708363
0.719883
0.736857
0.745321
0.749679
0.752965
0.755866
0.755238
0.748929
0.746891
0.748834
0.75196
0.755909
0.767994
0.788143
0.798714
0.803834
0.80763
0.81109
0.809884
0.800515
0.796748
0.798477
0.801851
0.8062
0.818161
0.842802
0.857756
0.864353
0.868972
0.873181
0.871563
0.857851
0.850538
0.851589
0.855447
0.860572
0.872133
0.901192
0.923277
0.932538
0.938219
0.943497
0.944557
0.928386
0.914736
0.912977
0.91548
0.920797
0.930171
0.959929
0.994179
1.01095
1.01937
1.02591
1.03044
1.01923
0.997494
0.989208
0.990939
0.996657
1.00578
1.03038
1.06714
1.09197
1.10656
1.11761
1.1248
1.12118
1.10012
1.08237
1.07976
1.08641
1.10239
1.13612
1.16676
1.18496
1.19593
1.201
1.19796
1.17487
2.17376
10.0198
0.661108
0.659491
0.660539
0.662988
0.665882
0.672812
0.687925
0.69793
0.702762
0.706075
0.70899
0.710946
0.707416
0.703559
0.704449
0.707062
0.710248
0.716815
0.733789
0.746784
0.75264
0.756423
0.759723
0.761848
0.756932
0.75117
0.751458
0.75409
0.757444
0.763376
0.781943
0.799455
0.806994
0.811374
0.815117
0.817706
0.811082
0.801988
0.800918
0.803289
0.807094
0.812854
0.831831
0.855805
0.867092
0.873112
0.877679
0.881087
0.873243
0.858673
0.854967
0.85722
0.861448
0.866846
0.882823
0.91381
0.932549
0.941282
0.947729
0.953382
0.950439
0.93006
0.91746
0.9173
0.921657
0.9276
0.937701
0.969371
1.00187
1.01712
1.02637
1.03466
1.03941
1.02568
1.00235
0.993742
0.99646
1.00346
1.01383
1.04048
1.0755
1.09823
1.11222
1.12313
1.13008
1.12577
1.10277
1.08402
1.08093
1.08687
1.10337
1.13828
1.168
1.18427
1.19322
1.19473
1.19345
2.17921
10.0556
0.666017
0.663549
0.663418
0.665499
0.668199
0.672503
0.685481
0.698942
0.70529
0.709084
0.712212
0.715056
0.714687
0.709034
0.70777
0.709792
0.712702
0.716476
0.728511
0.745996
0.754781
0.759413
0.763037
0.766331
0.765973
0.758047
0.754791
0.756372
0.759332
0.763057
0.773854
0.795978
0.809022
0.814831
0.818822
0.822556
0.82231
0.811016
0.804397
0.805447
0.808754
0.812928
0.821446
0.846044
0.866597
0.875088
0.88025
0.884824
0.887313
0.875602
0.86225
0.859931
0.861998
0.866216
0.872784
0.894896
0.926612
0.94278
0.950029
0.954901
0.959951
0.955857
0.935376
0.92429
0.923536
0.926307
0.932016
0.94472
0.98045
1.013
1.02774
1.03561
1.04188
1.04461
1.03088
1.00923
1.00102
1.00294
1.00923
1.02049
1.0504
1.08463
1.10548
1.11811
1.12807
1.13423
1.12927
1.10512
1.08496
1.08081
1.08572
1.10244
1.13829
1.16711
1.18219
1.18652
1.20095
2.21358
10.0969
0.670847
0.668538
0.666578
0.668209
0.670781
0.673913
0.68264
0.698253
0.70729
0.711841
0.715276
0.71839
0.720598
0.71646
0.71199
0.712667
0.715075
0.718122
0.724529
0.74209
0.756088
0.762282
0.766229
0.769691
0.772458
0.767667
0.759721
0.75897
0.761419
0.764764
0.76978
0.787005
0.80818
0.817712
0.822646
0.826383
0.829596
0.824145
0.811944
0.808846
0.810786
0.814086
0.818538
0.831285
0.858756
0.875927
0.883588
0.889071
0.893839
0.893045
0.876429
0.864684
0.864256
0.867731
0.87237
0.879445
0.90494
0.935427
0.949696
0.95775
0.964399
0.969502
0.961012
0.93781
0.927023
0.928259
0.933536
0.940061
0.952934
0.988451
1.0186
1.03206
1.04044
1.04831
1.0523
1.0377
1.0146
1.00578
1.00811
1.01521
1.02802
1.0592
1.09138
1.11062
1.1231
1.13304
1.13943
1.13328
1.10654
1.08467
1.07959
1.08334
1.10038
1.13658
1.16446
1.17566
1.19759
2.26751
10.1427
0.67506
0.674618
0.670574
0.671243
0.673474
0.676189
0.680986
0.695337
0.708647
0.714714
0.718435
0.721659
0.724649
0.724045
0.717439
0.715616
0.717455
0.720374
0.724147
0.736077
0.755031
0.7647
0.769396
0.77298
0.776386
0.776817
0.76771
0.76262
0.763856
0.766827
0.770304
0.778081
0.800575
0.818321
0.825553
0.830021
0.833886
0.835788
0.825514
0.814404
0.812944
0.815293
0.818967
0.824358
0.842906
0.870916
0.88498
0.891203
0.89566
0.900251
0.89786
0.880219
0.870343
0.869771
0.872081
0.876655
0.886039
0.916587
0.946728
0.95974
0.966047
0.970586
0.975061
0.966453
0.944815
0.935625
0.935872
0.938885
0.944604
0.959452
0.996987
1.0269
1.04048
1.04836
1.05495
1.05769
1.04409
1.02179
1.01212
1.01296
1.01864
1.03211
1.06611
1.09894
1.11781
1.12913
1.13772
1.14303
1.13627
1.10826
1.08403
1.0774
1.07989
1.09708
1.13367
1.157
1.18631
2.32858
10.1877
0.678781
0.680934
0.675652
0.674354
0.675964
0.678538
0.681765
0.691258
0.70813
0.717334
0.721705
0.724948
0.727951
0.729839
0.72454
0.719415
0.720135
0.722789
0.725933
0.731598
0.749349
0.765667
0.772549
0.776436
0.779892
0.782899
0.778583
0.768791
0.76672
0.768605
0.771665
0.775679
0.78842
0.813341
0.827587
0.833928
0.838155
0.841943
0.840515
0.825907
0.817185
0.817609
0.820724
0.824614
0.830882
0.853788
0.880635
0.892746
0.899295
0.904718
0.909088
0.901891
0.881632
0.872942
0.874401
0.87881
0.883661
0.893189
0.924352
0.952431
0.964612
0.97261
0.979454
0.983744
0.972767
0.949685
0.93919
0.940119
0.945229
0.951821
0.966941
1.0033
1.03145
1.04468
1.0537
1.06168
1.06528
1.05061
1.02564
1.01446
1.01559
1.02222
1.03736
1.07226
1.10413
1.122
1.13315
1.14171
1.14662
1.13915
1.1097
1.08244
1.07357
1.07469
1.0932
1.12632
1.16459
2.38751
10.2228
0.682274
0.686151
0.681856
0.6779
0.678673
0.681076
0.68392
0.688706
0.703851
0.718489
0.724757
0.728257
0.731353
0.7342
0.732696
0.725181
0.723275
0.725111
0.727945
0.731317
0.741234
0.762445
0.77483
0.780166
0.783637
0.786931
0.788111
0.778625
0.770587
0.770673
0.773531
0.777005
0.781989
0.80021
0.824613
0.835751
0.841267
0.845323
0.848983
0.844534
0.828859
0.822178
0.822731
0.825317
0.829538
0.838275
0.865667
0.891025
0.901548
0.906797
0.910767
0.914976
0.90701
0.887764
0.880498
0.880583
0.882948
0.887738
0.899811
0.934231
0.962656
0.974358
0.980357
0.985095
0.989447
0.980073
0.95776
0.947339
0.94701
0.950087
0.9559
0.973296
1.01231
1.04044
1.05286
1.06032
1.06671
1.06976
1.05618
1.03141
1.01967
1.01955
1.02474
1.03937
1.07567
1.10875
1.12681
1.13711
1.14449
1.14844
1.14087
1.11114
1.08024
1.06772
1.06851
1.086
1.13329
2.42864
10.2477
0.685658
0.690156
0.688869
0.683124
0.681806
0.683542
0.686094
0.689047
0.697663
0.716261
0.727173
0.73197
0.735143
0.738074
0.739731
0.733452
0.727194
0.72741
0.729879
0.733019
0.737436
0.753006
0.773808
0.783117
0.787533
0.790737
0.793885
0.791214
0.778978
0.774301
0.775807
0.778761
0.782226
0.788934
0.811853
0.83424
0.843757
0.849258
0.853752
0.856903
0.847304
0.830198
0.825327
0.827742
0.831708
0.835898
0.845526
0.874643
0.897975
0.907722
0.914245
0.919816
0.923303
0.911543
0.890578
0.883121
0.885136
0.889801
0.894997
0.906584
0.940026
0.966743
0.978362
0.986305
0.993143
0.997408
0.987078
0.963297
0.951049
0.951147
0.956328
0.963317
0.98135
1.01844
1.04387
1.05585
1.06469
1.07253
1.0766
1.06245
1.03565
1.02205
1.0215
1.02693
1.04153
1.07741
1.11079
1.1288
1.13887
1.14573
1.14907
1.14182
1.11268
1.07824
1.06116
1.05767
1.0946
2.43514
10.265
0.688831
0.693851
0.69537
0.690752
0.685604
0.685849
0.687999
0.69081
0.694975
0.709366
0.727308
0.735099
0.738838
0.741787
0.744548
0.743071
0.73387
0.730501
0.732152
0.735074
0.738199
0.744334
0.764827
0.783355
0.790826
0.794905
0.79817
0.800641
0.793041
0.781022
0.77845
0.780363
0.783491
0.787377
0.797129
0.823497
0.843225
0.851117
0.85567
0.859471
0.862083
0.851002
0.835619
0.832125
0.833339
0.836195
0.840727
0.853286
0.884959
0.907537
0.916519
0.921188
0.925178
0.928815
0.917925
0.898218
0.891449
0.891666
0.893942
0.898731
0.912327
0.948538
0.976222
0.987413
0.993271
0.998113
1.00275
0.994903
0.971897
0.959407
0.958211
0.960742
0.966378
0.986115
1.02552
1.05198
1.06382
1.07108
1.07778
1.08204
1.06951
1.042
1.02641
1.02432
1.0282
1.04063
1.07678
1.1118
1.13026
1.13987
1.1461
1.1487
1.14194
1.11369
1.07674
1.05146
1.05503
2.40075
10.2788
0.692025
0.697414
0.699723
0.699054
0.691577
0.688821
0.690413
0.693127
0.696083
0.702649
0.721577
0.736216
0.742182
0.745492
0.748501
0.750762
0.744815
0.736005
0.734926
0.736843
0.739668
0.743176
0.752767
0.776503
0.792175
0.798611
0.802467
0.805792
0.806491
0.794194
0.783443
0.782829
0.785793
0.789283
0.793194
0.805223
0.833122
0.850655
0.857978
0.86311
0.867741
0.868852
0.853836
0.8382
0.835509
0.838559
0.842678
0.847087
0.859872
0.891467
0.912487
0.921522
0.928273
0.933903
0.936895
0.924072
0.902631
0.894269
0.89576
0.900397
0.905965
0.918995
0.953179
0.979159
0.990664
0.998781
1.00563
1.01027
1.0022
0.977946
0.962601
0.96066
0.965058
0.972212
0.992582
1.03024
1.05503
1.06731
1.077
1.08479
1.089
1.07515
1.04517
1.02728
1.02441
1.02853
1.0405
1.0761
1.11191
1.13073
1.13996
1.14539
1.14718
1.14055
1.11341
1.06793
1.03869
2.32883
10.2953
0.693957
0.700437
0.70291
0.705211
0.700998
0.693997
0.69348
0.695478
0.698078
0.701291
0.711875
0.732974
0.744372
0.74929
0.752424
0.755386
0.755647
0.745565
0.738527
0.739007
0.741792
0.745014
0.748908
0.762186
0.786747
0.799811
0.805643
0.809655
0.813039
0.811386
0.797158
0.788719
0.788756
0.790865
0.794113
0.798685
0.814272
0.842877
0.858805
0.86534
0.869213
0.87294
0.874152
0.859438
0.845258
0.842773
0.843841
0.846711
0.851446
0.867013
0.900612
0.921933
0.930218
0.934658
0.938674
0.942436
0.932032
0.911245
0.902884
0.902764
0.904802
0.909382
0.923457
0.960073
0.98796
0.999332
1.00516
1.01014
1.01543
1.01024
0.986253
0.969981
0.967001
0.969097
0.97464
0.994738
1.03522
1.06337
1.07563
1.08251
1.08815
1.0921
1.08051
1.05105
1.03153
1.02713
1.02971
1.03988
1.07413
1.11043
1.12966
1.13861
1.14349
1.14412
1.13803
1.10442
1.0538
2.245
10.3233
0.695044
0.703606
0.706277
0.709212
0.710065
0.702443
0.697147
0.697785
0.700167
0.702969
0.707398
0.722999
0.74314
0.751913
0.756056
0.758989
0.761891
0.758913
0.746997
0.742813
0.744322
0.746983
0.749923
0.754392
0.77171
0.795933
0.807402
0.813044
0.817259
0.8207
0.816292
0.799728
0.791988
0.793162
0.796596
0.800049
0.804482
0.821726
0.850227
0.86469
0.871348
0.876732
0.881345
0.880934
0.863639
0.848349
0.845922
0.849074
0.853446
0.858104
0.872917
0.905355
0.925415
0.93433
0.941199
0.946858
0.950195
0.93966
0.917415
0.906161
0.906163
0.91045
0.916181
0.92966
0.963993
0.990271
1.00212
1.01066
1.01757
1.02254
1.01709
0.992524
0.973548
0.969224
0.972588
0.979135
0.998397
1.03701
1.06384
1.07629
1.08552
1.09354
1.09851
1.08843
1.05764
1.03444
1.02772
1.02951
1.03753
1.07026
1.10779
1.12753
1.13628
1.14025
1.14127
1.12933
1.09628
2.19144
10.3618
0.694384
0.706702
0.709655
0.712578
0.715227
0.712859
0.703655
0.701093
0.702768
0.705398
0.708203
0.714127
0.733626
0.751719
0.759078
0.763028
0.766105
0.768399
0.760975
0.749264
0.74672
0.748456
0.751398
0.754834
0.760797
0.781411
0.804324
0.814242
0.819194
0.8231
0.826414
0.821133
0.805233
0.798713
0.799103
0.800973
0.804445
0.809975
0.830361
0.859058
0.872969
0.878864
0.882298
0.886332
0.887161
0.870998
0.856463
0.853756
0.854503
0.857006
0.86178
0.878555
0.913109
0.934413
0.942695
0.947114
0.951296
0.955958
0.948585
0.926213
0.914422
0.913184
0.914973
0.919317
0.932897
0.969942
0.998997
1.01083
1.01682
1.02169
1.02742
1.02475
1.0007
0.980255
0.974839
0.97598
0.980406
0.997049
1.03801
1.07064
1.08558
1.09296
1.09903
1.10285
1.09363
1.06239
1.03588
1.02697
1.02801
1.03529
1.06663
1.10472
1.12518
1.13329
1.13728
1.13379
1.13132
2.18883
10.4047
0.690484
0.708356
0.71281
0.715866
0.718715
0.720738
0.714288
0.706424
0.70586
0.707618
0.710015
0.713137
0.721623
0.744164
0.760195
0.766585
0.770126
0.773071
0.773873
0.7625
0.752059
0.751294
0.753912
0.7571
0.760316
0.766927
0.790032
0.811873
0.82098
0.826087
0.830526
0.833765
0.825757
0.807982
0.801551
0.803306
0.806925
0.810599
0.815763
0.836533
0.864527
0.877607
0.884374
0.890033
0.894665
0.894161
0.876667
0.860015
0.856211
0.858901
0.863208
0.868206
0.883737
0.916549
0.937031
0.946295
0.953455
0.959119
0.963121
0.955946
0.933078
0.91823
0.916175
0.919993
0.925654
0.938955
0.973404
1.00051
1.01311
1.02209
1.0293
1.0348
1.03161
1.00705
0.983964
0.976601
0.97881
0.984604
1.00038
1.03894
1.07199
1.08749
1.09556
1.1014
1.10457
1.09755
1.06795
1.03875
1.02751
1.02705
1.03254
1.06224
1.10032
1.1207
1.12987
1.12904
1.14851
2.22425
10.4489
0.684065
0.706975
0.715482
0.719485
0.722346
0.725149
0.724843
0.714939
0.709221
0.709925
0.712446
0.715252
0.718854
0.730244
0.753661
0.767378
0.773293
0.777191
0.780355
0.779025
0.765603
0.757179
0.75698
0.758784
0.761732
0.765412
0.774234
0.799323
0.81958
0.827795
0.832171
0.835364
0.838389
0.831034
0.814728
0.809099
0.80951
0.811238
0.814662
0.820817
0.843972
0.872902
0.886227
0.891824
0.89509
0.899083
0.900473
0.884972
0.868256
0.86397
0.86461
0.866914
0.871509
0.887965
0.923225
0.945764
0.954531
0.959007
0.963176
0.968237
0.964489
0.942237
0.926408
0.923319
0.924444
0.928255
0.940536
0.977117
1.00876
1.02227
1.02865
1.03337
1.03903
1.03914
1.01692
0.992257
0.983446
0.983105
0.986065
0.997773
1.03553
1.07137
1.08824
1.09646
1.103
1.10767
1.10354
1.07426
1.04117
1.02652
1.02467
1.02855
1.05649
1.09446
1.11642
1.12132
1.15124
2.28705
10.4957
0.67982
0.698549
0.715655
0.722574
0.725938
0.728559
0.731076
0.72706
0.716228
0.713431
0.715114
0.717691
0.720368
0.724131
0.73824
0.762294
0.774919
0.780632
0.78457
0.787669
0.784069
0.768286
0.760267
0.761198
0.764477
0.767897
0.77123
0.780422
0.806478
0.825511
0.833208
0.838365
0.842995
0.845954
0.836484
0.818439
0.811808
0.813377
0.817017
0.820817
0.826432
0.84878
0.876784
0.889694
0.896579
0.902396
0.907085
0.907925
0.892599
0.873483
0.866975
0.868703
0.872902
0.877912
0.89244
0.925357
0.94721
0.957343
0.964909
0.970893
0.975461
0.971804
0.949544
0.930533
0.925607
0.928439
0.933789
0.945605
0.979173
1.00927
1.02342
1.03304
1.04107
1.04676
1.04646
1.02422
0.996215
0.983766
0.983209
0.987523
0.998633
1.03378
1.07238
1.09254
1.10113
1.10641
1.10978
1.10674
1.07914
1.04261
1.02428
1.02093
1.0242
1.05126
1.08919
1.10664
1.14512
2.36005
10.5415
0.680535
0.688244
0.707928
0.723266
0.729434
0.732649
0.735328
0.736818
0.728491
0.71895
0.717721
0.719455
0.722051
0.725148
0.73005
0.746875
0.770243
0.781329
0.786368
0.790129
0.793091
0.788821
0.77401
0.767501
0.76778
0.769289
0.772064
0.776011
0.787448
0.814525
0.833098
0.840612
0.844635
0.847584
0.850729
0.84314
0.826009
0.819611
0.819709
0.821024
0.824347
0.830613
0.854497
0.884279
0.898227
0.904044
0.90748
0.911714
0.914715
0.902508
0.882614
0.875184
0.874768
0.876226
0.88043
0.895336
0.930763
0.955886
0.965829
0.970736
0.974876
0.98017
0.979747
0.959065
0.938738
0.932709
0.932957
0.936005
0.945407
0.979158
1.01546
1.03274
1.04006
1.04461
1.04961
1.05219
1.03403
1.00472
0.990359
0.987995
0.990381
0.998985
1.03178
1.07141
1.09264
1.10184
1.10718
1.11026
1.10817
1.0836
1.04504
1.0226
1.01704
1.01909
1.04693
1.07849
1.12658
2.43108
10.5769
0.682375
0.686601
0.695209
0.716788
0.73083
0.736469
0.739382
0.742002
0.741914
0.730525
0.722247
0.722272
0.724898
0.72791
0.730817
0.735415
0.753932
0.777047
0.787495
0.792597
0.796663
0.799793
0.79416
0.777662
0.770239
0.771368
0.774626
0.778101
0.781714
0.792857
0.819964
0.837798
0.845278
0.850698
0.855404
0.858459
0.84983
0.830961
0.822299
0.822952
0.826365
0.830453
0.836153
0.857973
0.886879
0.901016
0.908522
0.914688
0.919466
0.92199
0.910123
0.888054
0.877749
0.878059
0.882029
0.88726
0.900548
0.932707
0.956761
0.967999
0.97635
0.982806
0.987783
0.987124
0.966747
0.943383
0.93468
0.93601
0.940783
0.949756
0.979307
1.01432
1.03203
1.04197
1.05074
1.05688
1.05912
1.04195
1.01064
0.992881
0.989289
0.991824
0.997811
1.02712
1.06872
1.09178
1.10131
1.10675
1.11058
1.11007
1.08823
1.04768
1.02021
1.01162
1.01423
1.03766
1.09618
2.48275
10.6003
0.684832
0.688407
0.691424
0.701864
0.72418
0.737334
0.74321
0.746853
0.749761
0.747277
0.734192
0.72777
0.728111
0.72968
0.732081
0.735326
0.741328
0.761651
0.783868
0.793757
0.798564
0.802
0.804639
0.799219
0.784149
0.777706
0.778004
0.779465
0.782159
0.786101
0.798531
0.826567
0.845187
0.852759
0.856761
0.860057
0.863866
0.858175
0.839669
0.830539
0.829688
0.830699
0.833671
0.839414
0.862006
0.893655
0.909398
0.915541
0.918787
0.922945
0.927216
0.919616
0.898223
0.88734
0.885645
0.88645
0.889986
0.90185
0.935851
0.964845
0.977078
0.982669
0.986605
0.991834
0.994299
0.977201
0.952494
0.942401
0.941082
0.942857
0.948856
0.975685
1.01693
1.04067
1.05003
1.05529
1.05956
1.06252
1.04948
1.01788
0.996206
0.99006
0.99185
0.997643
1.02398
1.06623
1.09216
1.10284
1.1075
1.11027
1.1097
1.09169
1.05144
1.0183
1.00577
1.0029
1.057
2.49871
10.6144
0.687832
0.69022
0.692169
0.695456
0.708196
0.732045
0.745012
0.7506
0.75417
0.756802
0.752427
0.737924
0.731096
0.731914
0.734753
0.737735
0.740678
0.746405
0.767525
0.789524
0.799093
0.804288
0.808695
0.811871
0.806048
0.789298
0.780943
0.781389
0.784455
0.787812
0.791379
0.802589
0.83037
0.849115
0.857258
0.863302
0.867971
0.871421
0.865647
0.846003
0.833703
0.832456
0.835543
0.839838
0.845128
0.864814
0.894874
0.910497
0.918819
0.926059
0.931319
0.935014
0.927437
0.904483
0.889754
0.887536
0.890904
0.89605
0.906454
0.936588
0.964668
0.978062
0.98724
0.994671
0.999994
1.00183
0.985398
0.958003
0.943971
0.942767
0.946729
0.953462
0.976207
1.01532
1.03955
1.05033
1.05814
1.06456
1.0683
1.05734
1.02557
1.00148
0.993339
0.993409
0.997592
1.02073
1.06292
1.09001
1.10111
1.1063
1.10927
1.10871
1.0939
1.05484
1.01785
0.994344
1.01483
2.46634
10.6194
0.690449
0.691053
0.693333
0.696413
0.700922
0.716567
0.739866
0.751388
0.756676
0.760458
0.763015
0.757652
0.743518
0.737652
0.737865
0.739086
0.741478
0.745008
0.752098
0.774196
0.79619
0.806029
0.810824
0.814166
0.817022
0.812946
0.7971
0.788476
0.787802
0.788778
0.79125
0.795204
0.807887
0.837364
0.857432
0.865157
0.86898