/*--------------------------------*- C++ -*----------------------------------*\
  =========                 |
  \\      /  F ield         | OpenFOAM: The Open Source CFD Toolbox
   \\    /   O peration     | Website:  https://openfoam.org
    \\  /    A nd           | Version:  12
     \\/     M anipulation  |
\*---------------------------------------------------------------------------*/
FoamFile
{
    format      ascii;
    class       surfaceScalarField;
    location    "13.1";
    object      phi;
}
// * * * * * * * * * * * * * * * * * * * * * * * * * * * * * * * * * * * * * //

dimensions      [1 0 -1 0 0 0 0];

internalField   nonuniform List<scalar> 
19404
(
-0.000121285
2.20583e-07
-0.000121184
1.29451e-07
-0.000121377
5.28914e-08
-0.000123161
3.0334e-08
-0.000125666
1.84017e-07
-0.000126484
4.34697e-07
-0.000126525
4.95472e-07
-0.000126255
3.98726e-07
-0.000125564
2.5503e-07
-0.000124897
2.60361e-07
-0.00012454
3.30015e-07
-0.000124369
2.88925e-07
-0.000124282
2.0198e-07
-0.000124293
8.71564e-08
-0.000125209
4.75881e-08
-0.000127723
1.22251e-07
-0.00012925
3.61353e-07
-0.000129576
4.80897e-07
-0.000129499
4.4226e-07
-0.000128981
2.92267e-07
-0.000128193
2.259e-07
-0.000127719
3.05565e-07
-0.000127505
3.11355e-07
-0.000127414
2.53297e-07
-0.000127372
1.49844e-07
-0.00012768
4.51023e-08
-0.000129713
9.57849e-08
-0.000132031
2.64007e-07
-0.000132809
4.49965e-07
-0.000132883
4.63701e-07
-0.000132549
3.51671e-07
-0.000131337
1.73032e-07
-0.000130509
2.43257e-07
-0.000130199
3.12765e-07
-0.000130106
2.77541e-07
-0.000130054
1.66014e-07
-0.00013017
4.15684e-08
-0.000132
4.58557e-08
-0.000135029
2.27573e-07
-0.000136202
4.84972e-07
-0.000136328
5.00707e-07
-0.000135973
3.91228e-07
-0.000134316
1.28886e-07
-0.000133066
1.69645e-07
-0.000132609
2.66935e-07
-0.00013247
2.60158e-07
-0.000132466
1.65564e-07
-0.000132533
3.17759e-08
-0.000134249
-6.91404e-09
-0.000137827
2.34823e-07
-0.000139321
5.05386e-07
-0.000139507
5.09069e-07
-0.000139151
3.55638e-07
-0.000137176
6.17417e-08
-0.000135394
2.4342e-08
-0.000134637
1.77734e-07
-0.000134421
2.67262e-07
-0.000134368
1.94968e-07
-0.000134449
8.44342e-08
-0.0001362
2.38185e-09
-0.0001403
2.04897e-07
-0.000142253
3.35345e-07
-0.000142627
4.53536e-07
-0.000142433
3.38212e-07
-0.000139919
6.3906e-08
-0.000136888
-6.92052e-08
-0.000135634
3.49746e-08
-0.000135354
1.76159e-07
-0.000135374
1.19643e-07
-0.000135556
-6.4652e-08
-0.000138243
-5.31769e-08
-0.000142894
-4.26042e-08
-0.000144956
4.23827e-07
-0.000145385
5.35372e-07
-0.000145168
3.92628e-07
-0.000141751
3.17084e-08
-0.000136994
-2.11477e-07
-0.000134728
-2.48881e-07
-0.000134428
-1.38844e-07
-0.000134503
-2.50687e-07
-0.000135904
-1.01035e-07
-0.000142428
5.79493e-08
-0.00014644
-1.77107e-08
-0.000147382
2.32654e-07
-0.00014756
4.84987e-07
-0.000146347
4.9541e-07
-0.000140172
-1.1869e-07
-0.00013277
-7.63878e-07
-0.000129488
-9.62325e-07
-0.000129517
-3.57365e-07
-0.000131325
-9.68356e-07
-0.000140102
-1.42535e-06
-0.00014586
-1.06821e-06
-0.000147607
-6.67886e-07
-0.000147988
-1.03937e-06
-0.000144284
-1.26202e-06
-0.000131096
-3.55111e-06
-0.000108979
-2.15124e-05
1.68004e-05
-0.000129838
3.13744e-07
-0.000129726
2.66018e-07
-0.000130084
1.79677e-07
-0.000132027
2.2548e-07
-0.000133532
3.03028e-07
-0.000134059
4.24831e-07
-0.000134102
5.24529e-07
-0.000134001
5.38988e-07
-0.000133462
4.7997e-07
-0.000132212
4.22712e-07
-0.000131586
4.13437e-07
-0.000131313
3.57775e-07
-0.000131179
2.99713e-07
-0.000131165
2.1633e-07
-0.000132235
1.87271e-07
-0.000134313
2.96862e-07
-0.0001353
4.26173e-07
-0.000135542
5.28879e-07
-0.000135502
5.48953e-07
-0.000135286
4.96952e-07
-0.000134073
4.01472e-07
-0.000133101
3.51918e-07
-0.000132706
3.46491e-07
-0.000132542
3.22768e-07
-0.000132458
2.4808e-07
-0.000132742
1.82909e-07
-0.000134742
2.57123e-07
-0.000136484
3.8648e-07
-0.000137043
5.11238e-07
-0.000137116
5.61442e-07
-0.000137026
5.15832e-07
-0.000135948
4.0642e-07
-0.0001344
3.45752e-07
-0.000133796
3.23012e-07
-0.000133585
3.05205e-07
-0.000133515
2.38115e-07
-0.000133583
1.50348e-07
-0.000135116
1.34004e-07
-0.000137696
3.16355e-07
-0.000138702
5.44648e-07
-0.000138875
6.19477e-07
-0.000138825
5.94074e-07
-0.000137651
4.64574e-07
-0.000135619
3.69492e-07
-0.000134805
2.66051e-07
-0.000134542
2.53933e-07
-0.000134469
1.9784e-07
-0.000134491
9.55903e-08
-0.000135775
5.03847e-08
-0.000138986
2.60756e-07
-0.000140486
5.75903e-07
-0.000140762
6.8704e-07
-0.000140744
6.22647e-07
-0.000139508
4.68162e-07
-0.000136852
3.12184e-07
-0.000135692
1.51016e-07
-0.000135309
1.73889e-07
-0.000135179
1.75366e-07
-0.000135224
1.36972e-07
-0.000136715
3.80371e-08
-0.000140717
2.30312e-07
-0.000142573
4.67643e-07
-0.000142909
6.23915e-07
-0.00014291
6.22755e-07
-0.000141442
4.68479e-07
-0.000137752
3.10308e-07
-0.000136031
5.45681e-08
-0.000135586
1.01254e-08
-0.00013553
1.07325e-08
-0.000135707
-1.005e-07
-0.000138452
-1.3114e-07
-0.000143149
1.24967e-07
-0.000144943
5.08594e-07
-0.000145245
7.24775e-07
-0.000145239
7.11449e-07
-0.000142965
5.19708e-07
-0.000137548
1.57282e-07
-0.000135099
-3.09785e-07
-0.000134586
-4.53718e-07
-0.000134628
-5.38414e-07
-0.000135914
-6.73672e-07
-0.000141199
-3.52533e-07
-0.00014512
7.42287e-08
-0.000146405
4.98213e-07
-0.000146682
6.15737e-07
-0.000146495
5.4169e-07
-0.000141592
2.66657e-07
-0.000133439
-6.68478e-07
-0.000129842
-1.50068e-06
-0.00012935
-1.66232e-06
-0.000129952
-2.15775e-06
-0.000135301
-2.84602e-06
-0.000139999
-2.38914e-06
-0.000141389
-2.39112e-06
-0.000141776
-3.12238e-06
-0.000137996
-3.8996e-06
-0.000125916
-7.17046e-06
-0.000118567
-2.67481e-05
2.48679e-05
-0.000129304
3.89759e-07
-0.000129175
3.801e-07
-0.000129525
3.23188e-07
-0.000131357
4.01721e-07
-0.00013277
4.96712e-07
-0.000133305
5.32152e-07
-0.000133415
5.6857e-07
-0.000133317
6.1701e-07
-0.000132899
6.04309e-07
-0.000131805
5.80712e-07
-0.000131097
4.895e-07
-0.000130783
4.20376e-07
-0.000130622
3.79608e-07
-0.000130582
3.60436e-07
-0.000131481
3.3178e-07
-0.000133512
4.84023e-07
-0.00013454
5.8339e-07
-0.000134854
6.13835e-07
-0.000134864
6.13708e-07
-0.000134692
5.80897e-07
-0.000133715
5.24657e-07
-0.000132677
4.51966e-07
-0.000132181
3.89335e-07
-0.000131932
3.83358e-07
-0.000131848
3.99074e-07
-0.000132013
3.47177e-07
-0.000133923
4.24594e-07
-0.000135763
5.73476e-07
-0.000136368
5.99241e-07
-0.000136486
6.13445e-07
-0.000136422
5.86101e-07
-0.000135573
5.20992e-07
-0.000134046
4.60598e-07
-0.000133389
3.7357e-07
-0.000133102
3.46089e-07
-0.000132987
3.42795e-07
-0.000132978
3.10082e-07
-0.000134223
2.96734e-07
-0.000136841
4.81212e-07
-0.000137967
6.49296e-07
-0.000138209
6.79532e-07
-0.000138186
6.84287e-07
-0.000137322
6.06401e-07
-0.00013538
4.8879e-07
-0.000134528
2.98548e-07
-0.00013418
2.54147e-07
-0.000133993
2.49027e-07
-0.000133972
2.66463e-07
-0.00013484
2.37437e-07
-0.000137987
4.24115e-07
-0.000139704
6.61404e-07
-0.00014007
7.68025e-07
-0.000140096
7.78327e-07
-0.00013926
6.57578e-07
-0.000136637
4.9062e-07
-0.000135229
1.73037e-07
-0.000134728
1.00529e-07
-0.000134587
1.23633e-07
-0.000134609
1.71902e-07
-0.00013576
1.57009e-07
-0.000139563
3.65587e-07
-0.00014163
6.54926e-07
-0.000142106
8.16836e-07
-0.000142142
8.25998e-07
-0.000141235
7.12626e-07
-0.000137609
5.11335e-07
-0.00013532
6.38451e-08
-0.00013466
-1.48107e-07
-0.000134534
-1.77336e-07
-0.00013465
-2.0686e-07
-0.00013687
-1.94452e-07
-0.000141315
1.50344e-07
-0.000143363
6.22083e-07
-0.000143883
8.91922e-07
-0.000143929
9.07286e-07
-0.000142641
8.10713e-07
-0.00013728
4.13186e-07
-0.000133888
-3.75334e-07
-0.000133142
-8.72913e-07
-0.00013314
-9.51742e-07
-0.000133606
-1.05293e-06
-0.000137593
-9.1994e-07
-0.00014252
-1.1083e-07
-0.000144526
5.24102e-07
-0.000144959
7.17605e-07
-0.000144974
6.57242e-07
-0.000141433
5.62215e-07
-0.00013303
-1.87309e-07
-0.00012805
-1.79214e-06
-0.000127069
-2.99066e-06
-0.000127093
-3.54211e-06
-0.000130113
-4.09546e-06
-0.000135153
-3.96729e-06
-0.000137092
-4.31228e-06
-0.000137635
-5.54496e-06
-0.000135268
-6.72214e-06
-0.00012616
-9.27932e-06
-0.000120326
-2.82617e-05
3.07741e-05
-0.000128278
4.80653e-07
-0.000128169
5.11309e-07
-0.000128583
4.59154e-07
-0.000130309
5.49361e-07
-0.000131542
6.61977e-07
-0.00013202
6.96734e-07
-0.000132178
7.02722e-07
-0.000132127
6.91044e-07
-0.000131938
6.63007e-07
-0.000131001
6.30235e-07
-0.000130123
6.06689e-07
-0.000129713
5.28553e-07
-0.000129544
5.03093e-07
-0.000129492
4.7769e-07
-0.00013037
4.94608e-07
-0.000132375
6.179e-07
-0.0001334
7.37944e-07
-0.000133711
7.28554e-07
-0.000133742
6.8831e-07
-0.000133659
6.35591e-07
-0.000132948
5.90018e-07
-0.000131597
5.76042e-07
-0.000130995
5.3121e-07
-0.000130753
5.07514e-07
-0.000130661
4.93294e-07
-0.000130924
4.88173e-07
-0.00013289
5.60442e-07
-0.000134671
6.90836e-07
-0.000135262
7.22672e-07
-0.000135396
7.09193e-07
-0.000135351
6.35645e-07
-0.000134769
5.85526e-07
-0.000133074
5.89149e-07
-0.000132255
5.20258e-07
-0.000131905
4.52887e-07
-0.000131775
4.44559e-07
-0.000131783
4.19003e-07
-0.000132991
4.40066e-07
-0.000135637
5.88833e-07
-0.000136809
7.20632e-07
-0.000137109
7.63063e-07
-0.000137119
7.39916e-07
-0.000136742
6.71606e-07
-0.000134723
6.11231e-07
-0.000133385
4.53701e-07
-0.000132857
3.64948e-07
-0.000132657
3.48983e-07
-0.000132625
3.5321e-07
-0.000133336
3.36335e-07
-0.000136482
4.76462e-07
-0.000138459
7.14745e-07
-0.000138955
8.2538e-07
-0.000138988
8.36969e-07
-0.000138689
7.55448e-07
-0.000136131
6.57019e-07
-0.000133967
3.93819e-07
-0.000133255
1.37042e-07
-0.000133039
1.05156e-07
-0.000133029
1.32828e-07
-0.000133914
1.73193e-07
-0.000137575
3.85439e-07
-0.000140006
7.36049e-07
-0.000140656
9.46374e-07
-0.000140731
9.67211e-07
-0.000140462
8.84106e-07
-0.000137219
6.79669e-07
-0.000133903
2.17473e-07
-0.000132859
-2.78427e-07
-0.000132638
-3.72498e-07
-0.000132679
-3.88295e-07
-0.000134043
-3.74176e-07
-0.000138444
8.13427e-09
-0.000141088
6.47667e-07
-0.000141811
9.72665e-07
-0.000141947
1.02736e-06
-0.000141567
8.93821e-07
-0.000137215
6.20772e-07
-0.000132296
-3.64455e-07
-0.00013069
-1.09441e-06
-0.000130536
-1.42207e-06
-0.000130666
-1.51103e-06
-0.000132942
-1.56581e-06
-0.000138056
-9.60295e-07
-0.000140711
6.40071e-08
-0.000141364
6.24381e-07
-0.00014156
7.18546e-07
-0.000140261
5.87342e-07
-0.000133523
8.67195e-08
-0.000126761
-1.88245e-06
-0.000124034
-3.80271e-06
-0.000123719
-5.01278e-06
-0.00012427
-5.55493e-06
-0.000127702
-5.90808e-06
-0.000130105
-6.36831e-06
-0.000130603
-7.95683e-06
-0.000129766
-9.27877e-06
-0.000126147
-1.03618e-05
-0.000122141
-2.54199e-05
3.40988e-05
-0.000127081
6.01101e-07
-0.000126958
6.39019e-07
-0.000127429
5.63126e-07
-0.00012924
6.94313e-07
-0.000130355
8.28706e-07
-0.000130743
8.47523e-07
-0.000130855
8.23308e-07
-0.000130812
7.71441e-07
-0.000130676
7.19027e-07
-0.000129926
6.73011e-07
-0.000128897
6.94054e-07
-0.000128452
6.73141e-07
-0.000128252
6.28061e-07
-0.0001282
5.96338e-07
-0.000129167
6.00001e-07
-0.000131276
7.68463e-07
-0.000132188
8.66097e-07
-0.000132444
8.73824e-07
-0.000132467
8.04087e-07
-0.000132385
7.19509e-07
-0.000131659
6.54179e-07
-0.000130243
6.76312e-07
-0.000129629
6.29598e-07
-0.00012939
6.06204e-07
-0.000129302
5.76668e-07
-0.000129626
5.60957e-07
-0.000131778
6.70905e-07
-0.000133502
8.44439e-07
-0.00013401
9.09409e-07
-0.000134091
8.7018e-07
-0.000134065
7.90073e-07
-0.000133459
7.05511e-07
-0.000131697
6.7748e-07
-0.000130824
5.52038e-07
-0.000130486
4.86034e-07
-0.000130356
4.98298e-07
-0.000130367
4.91083e-07
-0.000131578
5.16766e-07
-0.00013424
7.04124e-07
-0.000135421
8.66223e-07
-0.000135704
9.3332e-07
-0.000135742
9.20643e-07
-0.000135483
8.26904e-07
-0.000133462
7.46501e-07
-0.000131787
5.31897e-07
-0.000131243
3.29971e-07
-0.000131081
3.06341e-07
-0.000131071
3.09282e-07
-0.000131761
3.21137e-07
-0.000134766
5.04645e-07
-0.000136765
7.99316e-07
-0.000137304
9.6855e-07
-0.000137398
1.01019e-06
-0.000137305
9.86375e-07
-0.00013528
8.54793e-07
-0.000132389
5.63206e-07
-0.000131432
1.70037e-07
-0.000131186
-1.49659e-08
-0.000131175
-9.93771e-09
-0.000131794
1.94379e-08
-0.00013513
2.38488e-07
-0.000137855
7.24391e-07
-0.000138651
1.04835e-06
-0.000138831
1.13482e-06
-0.000138812
1.08378e-06
-0.000136946
9.33185e-07
-0.000132729
4.10217e-07
-0.000130781
-2.10726e-07
-0.000130397
-5.57253e-07
-0.000130383
-6.4845e-07
-0.000130966
-6.80529e-07
-0.000134767
-4.11756e-07
-0.000138268
4.06149e-07
-0.000139335
1.00403e-06
-0.000139541
1.14453e-06
-0.00013957
1.01799e-06
-0.00013745
8.15296e-07
-0.000131642
1.13525e-08
-0.000128355
-1.16622e-06
-0.000127851
-1.77444e-06
-0.000127875
-2.13202e-06
-0.000128637
-2.26738e-06
-0.000132895
-1.99053e-06
-0.000136949
-8.94641e-07
-0.000138345
6.73138e-08
-0.000138609
4.27941e-07
-0.000138522
4.4696e-07
-0.000134781
1.91935e-07
-0.000127585
-1.41446e-06
-0.000122481
-3.82623e-06
-0.000121267
-5.43525e-06
-0.000121271
-6.82265e-06
-0.000123163
-7.47561e-06
-0.000126595
-8.0073e-06
-0.000127963
-9.50373e-06
-0.000127887
-1.13047e-05
-0.000127228
-1.21045e-05
-0.000122749
-2.24926e-05
3.65629e-05
-0.000125968
6.75744e-07
-0.000125834
7.37972e-07
-0.000126297
6.68944e-07
-0.00012824
8.23083e-07
-0.000129342
1.00514e-06
-0.000129662
1.0358e-06
-0.000129721
9.73914e-07
-0.000129655
8.84819e-07
-0.000129498
8.01493e-07
-0.00012873
7.42856e-07
-0.00012768
7.44421e-07
-0.000127195
7.00218e-07
-0.000126997
6.84214e-07
-0.000126927
6.57724e-07
-0.000127983
6.75518e-07
-0.000130265
8.82677e-07
-0.000131197
1.04533e-06
-0.000131369
1.04912e-06
-0.00013134
9.67559e-07
-0.000131232
8.93923e-07
-0.000130423
8.11905e-07
-0.000128933
7.44661e-07
-0.000128271
6.41754e-07
-0.000128008
5.74073e-07
-0.000127924
5.63295e-07
-0.000128262
5.59845e-07
-0.000130562
7.10908e-07
-0.000132403
9.86046e-07
-0.000132889
1.12974e-06
-0.000132948
1.09889e-06
-0.000132898
1.02133e-06
-0.000132336
9.33458e-07
-0.000130466
7.93117e-07
-0.000129387
5.85568e-07
-0.000129021
4.60784e-07
-0.00012889
4.12413e-07
-0.000128914
4.4878e-07
-0.000130107
5.14907e-07
-0.000132827
8.02132e-07
-0.00013409
1.06165e-06
-0.000134386
1.16069e-06
-0.000134409
1.14994e-06
-0.000134282
1.07864e-06
-0.000132654
9.3039e-07
-0.000130418
5.57598e-07
-0.000129685
3.00886e-07
-0.000129459
1.7425e-07
-0.000129427
1.75724e-07
-0.000130047
2.39652e-07
-0.000132911
4.93273e-07
-0.000135068
9.16743e-07
-0.00013572
1.19384e-06
-0.000135874
1.24243e-06
-0.000135863
1.20166e-06
-0.000134839
1.07054e-06
-0.000131535
6.879e-07
-0.000129705
2.49754e-07
-0.000129361
-6.10163e-08
-0.000129318
-1.90972e-07
-0.000129669
-2.16948e-07
-0.000132518
-3.51493e-08
-0.00013579
6.08226e-07
-0.00013689
1.14696e-06
-0.000137134
1.33183e-06
-0.000137172
1.28857e-06
-0.000136573
1.14484e-06
-0.00013266
7.93501e-07
-0.000129257
-1.51158e-07
-0.000128395
-5.77787e-07
-0.000128353
-8.89781e-07
-0.000128509
-1.02814e-06
-0.000130948
-9.5364e-07
-0.000135473
-1.9857e-07
-0.00013748
8.29832e-07
-0.000137855
1.2485e-06
-0.000137961
1.26275e-06
-0.000137286
1.10378e-06
-0.000132457
6.38258e-07
-0.000127682
-9.07186e-07
-0.000125893
-1.88028e-06
-0.000125712
-2.59328e-06
-0.000125849
-2.84369e-06
-0.000127986
-2.92846e-06
-0.000132671
-2.26597e-06
-0.000135369
-1.04321e-06
-0.000136244
-3.02998e-07
-0.000136453
-1.06851e-07
-0.000135601
-3.92364e-08
-0.00013019
-8.52941e-07
-0.000123976
-2.93206e-06
-0.00012031
-5.5216e-06
-0.000119698
-7.1475e-06
-0.000120093
-8.80009e-06
-0.00012312
-9.38261e-06
-0.000125898
-1.05246e-05
-0.000126922
-1.23997e-05
-0.0001274
-1.33673e-05
-0.000123325
-1.99308e-05
3.84922e-05
-0.000124965
7.25751e-07
-0.000124826
7.65604e-07
-0.000125307
7.26373e-07
-0.000127432
8.91477e-07
-0.000128682
1.16316e-06
-0.000128939
1.22044e-06
-0.000128947
1.16922e-06
-0.00012888
1.08676e-06
-0.000128696
9.63682e-07
-0.000127759
8.89217e-07
-0.000126537
8.13763e-07
-0.000126041
7.31646e-07
-0.000125842
6.87072e-07
-0.000125805
6.52752e-07
-0.00012685
6.55291e-07
-0.000129353
9.0378e-07
-0.000130437
1.1665e-06
-0.000130599
1.23176e-06
-0.000130563
1.20519e-06
-0.00013043
1.13873e-06
-0.000129761
1.05529e-06
-0.000127987
8.51213e-07
-0.000127053
7.30525e-07
-0.000126773
5.8462e-07
-0.00012668
5.24859e-07
-0.000126967
4.73561e-07
-0.000129177
6.1486e-07
-0.000131377
1.03304e-06
-0.000132009
1.29474e-06
-0.000132093
1.33639e-06
-0.000132047
1.29763e-06
-0.000131768
1.21109e-06
-0.00013013
1.01679e-06
-0.000128298
6.03291e-07
-0.000127685
4.83322e-07
-0.000127517
3.78451e-07
-0.000127525
3.32833e-07
-0.000128633
4.09824e-07
-0.000131429
7.50108e-07
-0.000132957
1.18243e-06
-0.000133374
1.36927e-06
-0.000133454
1.37576e-06
-0.000133418
1.27347e-06
-0.000132623
1.13935e-06
-0.000129983
7.78772e-07
-0.000128384
3.70221e-07
-0.000127997
1.94314e-07
-0.000127929
1.32046e-07
-0.00012827
1.12176e-07
-0.00013093
3.28443e-07
-0.000133618
9.07835e-07
-0.000134499
1.33609e-06
-0.000134732
1.46802e-06
-0.000134769
1.3806e-06
-0.00013447
1.22977e-06
-0.000131669
9.7312e-07
-0.000128846
2.52706e-07
-0.000127957
-7.1885e-08
-0.000127847
-2.4492e-07
-0.000127919
-3.57562e-07
-0.000129706
-3.34579e-07
-0.000133684
2.45444e-07
-0.000135595
1.12752e-06
-0.00013598
1.49898e-06
-0.000136052
1.53394e-06
-0.000135905
1.34208e-06
-0.000133255
1.08975e-06
-0.000129106
2.28793e-07
-0.000127276
-6.0217e-07
-0.000126926
-1.11154e-06
-0.000126979
-1.23516e-06
-0.000127715
-1.32469e-06
-0.000131956
-9.79621e-07
-0.000135656
2.67749e-07
-0.000136733
1.17406e-06
-0.000136894
1.41278e-06
-0.000136886
1.36285e-06
-0.000134602
1.18242e-06
-0.00012896
5.88359e-08
-0.000125367
-1.79257e-06
-0.000124257
-2.68208e-06
-0.000124291
-3.22519e-06
-0.000124769
-3.54938e-06
-0.000128244
-3.53478e-06
-0.00013239
-2.5319e-06
-0.000134457
-1.39909e-06
-0.000135174
-8.40468e-07
-0.000135322
-7.52095e-07
-0.000133396
-6.53304e-07
-0.000127594
-2.06271e-06
-0.000122266
-4.59456e-06
-0.000119383
-7.31531e-06
-0.000119208
-8.93951e-06
-0.000120329
-1.05762e-05
-0.00012406
-1.13607e-05
-0.000126251
-1.3107e-05
-0.000127478
-1.41263e-05
-0.000123408
-1.80873e-05
4.04224e-05
-0.00012413
7.94297e-07
-0.000123989
8.11851e-07
-0.000124312
7.39393e-07
-0.000126552
8.76782e-07
-0.000128148
1.20734e-06
-0.000128537
1.36338e-06
-0.000128539
1.32629e-06
-0.000128433
1.25729e-06
-0.000128245
1.1616e-06
-0.000127329
1.06171e-06
-0.000125844
9.21224e-07
-0.00012522
8.47828e-07
-0.000124996
7.46948e-07
-0.000124915
6.84818e-07
-0.000125695
6.21645e-07
-0.000128268
8.31552e-07
-0.000129668
1.19264e-06
-0.000130014
1.37435e-06
-0.000130033
1.3781e-06
-0.000129944
1.32114e-06
-0.000129576
1.24546e-06
-0.000127919
1.12882e-06
-0.000126455
7.55642e-07
-0.00012598
6.83315e-07
-0.000125828
5.7323e-07
-0.000125867
5.02445e-07
-0.000127577
5.44453e-07
-0.000130187
9.36481e-07
-0.000131196
1.34856e-06
-0.000131431
1.4836e-06
-0.00013143
1.44288e-06
-0.000131342
1.36663e-06
-0.000130377
1.26238e-06
-0.000128105
9.19789e-07
-0.000126887
4.83703e-07
-0.000126556
4.3672e-07
-0.000126496
3.90088e-07
-0.000127033
3.46932e-07
-0.000129867
5.66793e-07
-0.000132
1.13437e-06
-0.00013261
1.44916e-06
-0.000132746
1.49598e-06
-0.000132741
1.39119e-06
-0.000132505
1.26896e-06
-0.000130244
1.10548e-06
-0.000127838
5.19929e-07
-0.000126955
3.26188e-07
-0.000126805
1.93382e-07
-0.000126871
1.10542e-07
-0.000128713
1.21561e-07
-0.000132223
6.36507e-07
-0.00013373
1.32909e-06
-0.000134055
1.59186e-06
-0.000134103
1.50916e-06
-0.000134061
1.37195e-06
-0.00013235
1.19307e-06
-0.000128927
6.78791e-07
-0.00012724
-7.58974e-08
-0.000126818
-2.76593e-07
-0.000126799
-3.75305e-07
-0.000127288
-4.78872e-07
-0.00013095
-2.48596e-07
-0.000134352
7.63652e-07
-0.000135303
1.51823e-06
-0.000135423
1.68154e-06
-0.000135461
1.55773e-06
-0.000134404
1.33166e-06
-0.000130188
8.20603e-07
-0.000127119
-4.17743e-07
-0.000126001
-1.12907e-06
-0.000125807
-1.43672e-06
-0.000125904
-1.54219e-06
-0.000127935
-1.59473e-06
-0.000132917
-8.29102e-07
-0.000135599
6.26727e-07
-0.000136302
1.33591e-06
-0.000136427
1.45417e-06
-0.000136094
1.34125e-06
-0.000131908
1.01154e-06
-0.00012642
-5.83305e-07
-0.000123898
-2.52412e-06
-0.000123395
-3.31592e-06
-0.000123426
-3.95973e-06
-0.000124545
-4.24761e-06
-0.000128504
-3.98469e-06
-0.000131746
-2.86875e-06
-0.000133254
-1.93757e-06
-0.000133886
-1.64479e-06
-0.000133856
-1.59419e-06
-0.000131557
-1.84483e-06
-0.000126095
-3.61347e-06
-0.000121222
-6.323e-06
-0.000118722
-9.17116e-06
-0.000118753
-1.06907e-05
-0.000121137
-1.24549e-05
-0.000124719
-1.38503e-05
-0.000126812
-1.49693e-05
-0.0001241
-1.57381e-05
4.18524e-05
-0.000123745
8.86133e-07
-0.000123581
8.97455e-07
-0.00012368
8.08997e-07
-0.000125619
8.57181e-07
-0.000127589
1.18098e-06
-0.000128138
1.39712e-06
-0.000128198
1.41348e-06
-0.000128112
1.38483e-06
-0.00012796
1.33087e-06
-0.000127299
1.23964e-06
-0.000125738
1.10018e-06
-0.00012492
9.24416e-07
-0.000124647
8.34599e-07
-0.000124524
7.55068e-07
-0.000124905
6.76604e-07
-0.000127222
8.22535e-07
-0.00012891
1.19754e-06
-0.000129391
1.41395e-06
-0.000129482
1.43973e-06
-0.000129437
1.42367e-06
-0.000129304
1.3741e-06
-0.000128181
1.27517e-06
-0.000126412
1.00872e-06
-0.000125674
7.59611e-07
-0.000125431
6.81232e-07
-0.000125359
6.23849e-07
-0.000126186
5.86724e-07
-0.000128942
8.37901e-07
-0.000130427
1.31059e-06
-0.000130823
1.49391e-06
-0.000130927
1.50963e-06
-0.000130891
1.43556e-06
-0.000130582
1.37994e-06
-0.00012841
1.22232e-06
-0.000126663
7.302e-07
-0.000126056
5.56568e-07
-0.000125902
4.82706e-07
-0.000125965
4.1041e-07
-0.000128017
4.43524e-07
-0.000131033
9.42586e-07
-0.0001321
1.4404e-06
-0.000132323
1.56541e-06
-0.00013235
1.51983e-06
-0.000132282
1.42997e-06
-0.000130817
1.30487e-06
-0.000127851
9.21971e-07
-0.000126491
3.65183e-07
-0.000126143
2.37246e-07
-0.000126134
1.26351e-07
-0.000126767
3.07063e-08
-0.000130372
2.37476e-07
-0.000133055
1.10079e-06
-0.000133697
1.63071e-06
-0.000133796
1.67333e-06
-0.000133802
1.58425e-06
-0.000133076
1.43598e-06
-0.000129647
1.12814e-06
-0.000127123
2.47459e-07
-0.000126202
-2.78988e-07
-0.000126001
-4.47412e-07
-0.000126083
-5.12073e-07
-0.000127815
-5.86794e-07
-0.000132396
7.70386e-09
-0.000134695
1.2087e-06
-0.000135196
1.75069e-06
-0.000135254
1.71538e-06
-0.000135077
1.57479e-06
-0.000132267
1.49535e-06
-0.000127737
3.62082e-07
-0.000125564
-9.97142e-07
-0.000124984
-1.4878e-06
-0.000125012
-1.78663e-06
-0.000125398
-1.97381e-06
-0.000129099
-1.90655e-06
-0.000133763
-5.74225e-07
-0.000135612
8.56482e-07
-0.000136001
1.38854e-06
-0.000136088
1.45312e-06
-0.000134984
1.27862e-06
-0.000129804
7.35469e-07
-0.000125152
-1.3786e-06
-0.000123124
-3.25733e-06
-0.000122737
-4.0253e-06
-0.000122841
-4.55812e-06
-0.000124664
-4.87185e-06
-0.000128637
-4.42399e-06
-0.000131312
-3.35197e-06
-0.000132627
-2.72706e-06
-0.000133069
-2.68615e-06
-0.000132731
-2.64856e-06
-0.000130064
-3.62471e-06
-0.000124967
-5.32868e-06
-0.000120245
-8.35309e-06
-0.000117874
-1.10854e-05
-0.000118517
-1.24521e-05
-0.000122291
-1.48563e-05
-0.000125264
-1.63508e-05
-0.000125221
-1.3057e-05
4.26982e-05
-0.000123659
1.01146e-06
-0.000123478
9.95448e-07
-0.000123436
8.79159e-07
-0.000124868
8.61912e-07
-0.000127054
1.15532e-06
-0.000127793
1.4238e-06
-0.000127947
1.51442e-06
-0.000127899
1.49004e-06
-0.000127767
1.44214e-06
-0.000127362
1.36539e-06
-0.000125863
1.25446e-06
-0.000124914
1.05641e-06
-0.000124563
9.32392e-07
-0.000124423
8.62434e-07
-0.000124498
7.59496e-07
-0.000126321
8.26452e-07
-0.000128286
1.17973e-06
-0.000128968
1.48616e-06
-0.00012916
1.53015e-06
-0.00012915
1.50123e-06
-0.000129069
1.45686e-06
-0.000128516
1.35781e-06
-0.000126619
1.21118e-06
-0.000125595
9.13879e-07
-0.000125228
7.98789e-07
-0.000125111
7.38437e-07
-0.000125358
6.61091e-07
-0.000127752
7.89134e-07
-0.000129823
1.25737e-06
-0.000130456
1.53064e-06
-0.000130616
1.59423e-06
-0.000130625
1.53534e-06
-0.000130508
1.44609e-06
-0.000129091
1.37566e-06
-0.000126688
1.04608e-06
-0.000125792
6.72956e-07
-0.000125547
5.72786e-07
-0.000125513
4.71009e-07
-0.000126453
3.91321e-07
-0.000129836
6.84924e-07
-0.000131655
1.37111e-06
-0.000132041
1.64783e-06
-0.00013211
1.67385e-06
-0.000132074
1.59255e-06
-0.000131379
1.48699e-06
-0.000128385
1.24914e-06
-0.000126502
6.17347e-07
-0.000125932
2.58294e-07
-0.000125798
1.04925e-07
-0.000125867
3.0712e-09
-0.000127954
-9.83116e-09
-0.000131872
6.50873e-07
-0.000133351
1.57109e-06
-0.000133588
1.83318e-06
-0.000133623
1.84908e-06
-0.000133496
1.7086e-06
-0.000131141
1.51975e-06
-0.000127539
7.38019e-07
-0.000125997
-1.44859e-07
-0.000125582
-4.83e-07
-0.000125562
-6.36196e-07
-0.000125864
-7.57811e-07
-0.00012937
-6.81535e-07
-0.000133517
4.65928e-07
-0.000134853
1.62264e-06
-0.000135073
1.87483e-06
-0.000135145
1.91933e-06
-0.000134302
1.78117e-06
-0.000129776
1.36507e-06
-0.000126031
-2.75739e-07
-0.000124716
-1.48932e-06
-0.000124473
-2.01304e-06
-0.000124504
-2.21511e-06
-0.000125375
-2.37355e-06
-0.000130037
-1.99761e-06
-0.00013388
-3.65886e-07
-0.000135164
9.24936e-07
-0.000135472
1.33045e-06
-0.000135543
1.32345e-06
-0.00013396
1.02473e-06
-0.000128302
2.31359e-07
-0.000124045
-2.02356e-06
-0.000122447
-3.89669e-06
-0.000122245
-4.606e-06
-0.000122461
-5.23487e-06
-0.000124854
-5.50277e-06
-0.000128478
-4.8943e-06
-0.000130663
-4.02717e-06
-0.000131839
-3.71391e-06
-0.000132053
-3.88623e-06
-0.000131542
-3.81922e-06
-0.000128853
-5.1839e-06
-0.000124052
-7.24842e-06
-0.00011929
-1.03929e-05
-0.000117333
-1.2861e-05
-0.000119217
-1.46227e-05
-0.000123161
-1.82117e-05
-0.000126609
-1.15577e-05
4.28791e-05
-0.000123656
1.11591e-06
-0.000123449
1.09546e-06
-0.000123341
9.7149e-07
-0.000124247
9.0568e-07
-0.00012655
1.13938e-06
-0.000127553
1.49619e-06
-0.00012778
1.62611e-06
-0.000127775
1.59811e-06
-0.000127681
1.55631e-06
-0.000127445
1.46875e-06
-0.000126191
1.37331e-06
-0.000124979
1.1766e-06
-0.000124503
1.01576e-06
-0.000124296
9.48702e-07
-0.000124235
8.68469e-07
-0.000125423
8.33582e-07
-0.000127829
1.16229e-06
-0.000128758
1.53647e-06
-0.000129016
1.65835e-06
-0.000129064
1.62484e-06
-0.000128986
1.54541e-06
-0.000128728
1.46035e-06
-0.000127004
1.34514e-06
-0.000125533
1.07732e-06
-0.000125051
9.03028e-07
-0.000124894
8.08978e-07
-0.000124903
7.22146e-07
-0.000126619
7.30812e-07
-0.000129301
1.15015e-06
-0.000130249
1.61303e-06
-0.000130445
1.70475e-06
-0.000130471
1.68409e-06
-0.000130418
1.59546e-06
-0.000129606
1.49805e-06
-0.000127021
1.30168e-06
-0.000125728
8.48256e-07
-0.000125384
6.39778e-07
-0.000125303
4.98784e-07
-0.000125516
3.73259e-07
-0.000128236
4.80128e-07
-0.000131065
1.17042e-06
-0.000131825
1.73989e-06
-0.000131939
1.84007e-06
-0.00013194
1.78836e-06
-0.00013175
1.68327e-06
-0.000129562
1.54896e-06
-0.000126842
9.14824e-07
-0.000125862
3.30472e-07
-0.000125537
9.42379e-08
-0.000125496
2.06072e-09
-0.000126015
-7.53835e-08
-0.000129739
1.35013e-07
-0.000132712
1.22765e-06
-0.000133422
1.9359e-06
-0.000133496
1.97967e-06
-0.000133502
1.9149e-06
-0.000132735
1.82491e-06
-0.000128976
1.37135e-06
-0.000126261
2.31995e-07
-0.000125401
-5.04372e-07
-0.000125173
-8.41823e-07
-0.000125199
-8.75746e-07
-0.000126227
-1.00123e-06
-0.0001309
-4.90065e-07
-0.000133937
1.04733e-06
-0.00013469
1.93114e-06
-0.000134788
2.06479e-06
-0.0001348
1.97282e-06
-0.000133218
1.81052e-06
-0.00012829
9.36883e-07
-0.000125293
-8.28477e-07
-0.000124095
-2.00205e-06
-0.000123829
-2.24716e-06
-0.000123907
-2.52296e-06
-0.000125625
-2.75152e-06
-0.000130737
-2.11861e-06
-0.000134031
-2.64839e-07
-0.000135055
8.11347e-07
-0.000135222
1.10681e-06
-0.000135116
1.09528e-06
-0.000132657
7.9937e-07
-0.000127119
-3.72434e-07
-0.00012334
-2.79868e-06
-0.000121875
-4.61322e-06
-0.000121771
-5.29295e-06
-0.000122179
-5.97894e-06
-0.000125096
-6.10161e-06
-0.000128432
-5.41922e-06
-0.000130296
-4.77651e-06
-0.00013115
-4.71945e-06
-0.000131317
-5.0164e-06
-0.000130554
-5.20093e-06
-0.000127978
-6.86462e-06
-0.000123433
-9.18239e-06
-0.000118693
-1.20618e-05
-0.000116757
-1.42637e-05
-0.000120889
-1.85375e-05
-0.000127801
-1.08404e-05
4.25763e-05
-0.000123747
1.19814e-06
-0.000123467
1.16969e-06
-0.000123336
1.08608e-06
-0.000123673
9.71448e-07
-0.000125984
1.13369e-06
-0.000127409
1.56173e-06
-0.000127718
1.7566e-06
-0.000127759
1.74094e-06
-0.000127681
1.6844e-06
-0.000127515
1.57424e-06
-0.000126581
1.49261e-06
-0.000125083
1.30212e-06
-0.000124435
1.09734e-06
-0.000124176
1.01431e-06
-0.000124055
9.23874e-07
-0.000124581
8.55603e-07
-0.000127206
1.06838e-06
-0.000128683
1.58758e-06
-0.000129002
1.81608e-06
-0.000129038
1.76886e-06
-0.000128995
1.70105e-06
-0.000128824
1.57912e-06
-0.000127455
1.49072e-06
-0.00012558
1.2261e-06
-0.000124907
9.53743e-07
-0.000124683
8.44163e-07
-0.000124626
7.56816e-07
-0.00012548
6.54802e-07
-0.000128581
9.74982e-07
-0.000130116
1.63932e-06
-0.000130398
1.83341e-06
-0.000130426
1.87171e-06
-0.000130384
1.78927e-06
-0.000129995
1.66389e-06
-0.000127703
1.50717e-06
-0.000125876
1.02619e-06
-0.000125296
6.47124e-07
-0.000125102
5.03503e-07
-0.000125096
4.1485e-07
-0.000126368
3.54266e-07
-0.000129985
8.11624e-07
-0.000131608
1.70393e-06
-0.000131895
1.9892e-06
-0.000131927
2.02623e-06
-0.000131893
1.90998e-06
-0.000130876
1.79425e-06
-0.000127712
1.34999e-06
-0.000125907
5.26978e-07
-0.000125303
1.02348e-07
-0.000125126
-4.93796e-08
-0.000125159
-1.23179e-07
-0.000126951
-1.66787e-07
-0.000131262
5.00064e-07
-0.000133165
1.73226e-06
-0.000133543
2.13828e-06
-0.00013358
2.17439e-06
-0.000133495
2.05166e-06
-0.000131327
1.92895e-06
-0.000127352
9.98752e-07
-0.000125481
-2.6542e-07
-0.000124787
-8.29418e-07
-0.000124553
-1.03912e-06
-0.000124668
-1.07235e-06
-0.00012694
-1.14533e-06
-0.000131894
-2.51619e-07
-0.000134152
1.41221e-06
-0.00013473
2.0971e-06
-0.00013486
2.04683e-06
-0.000134777
1.90608e-06
-0.000131909
1.92324e-06
-0.000126704
6.82118e-07
-0.000124227
-1.32404e-06
-0.00012352
-2.28319e-06
-0.000123403
-2.74734e-06
-0.000123524
-2.94347e-06
-0.000125874
-3.08438e-06
-0.000130921
-2.16613e-06
-0.000133587
-3.62306e-07
-0.000134367
5.72697e-07
-0.000134491
7.88487e-07
-0.000134379
7.93633e-07
-0.000131738
1.31914e-07
-0.000126196
-1.02393e-06
-0.000122645
-3.49645e-06
-0.000121305
-5.33572e-06
-0.000121337
-6.00488e-06
-0.000122005
-6.76545e-06
-0.000125295