/*--------------------------------*- C++ -*----------------------------------*\
  =========                 |
  \\      /  F ield         | OpenFOAM: The Open Source CFD Toolbox
   \\    /   O peration     | Website:  https://openfoam.org
    \\  /    A nd           | Version:  12
     \\/     M anipulation  |
\*---------------------------------------------------------------------------*/
FoamFile
{
    format      ascii;
    class       volScalarField;
    location    "13.1";
    object      T;
}
// * * * * * * * * * * * * * * * * * * * * * * * * * * * * * * * * * * * * * //

dimensions      [0 0 0 1 0 0 0];

internalField   nonuniform List<scalar> 
9801
(
0.836904
0.838491
0.839525
0.840096
0.840069
0.84075
0.841846
0.843647
0.847094
0.850299
0.852319
0.853766
0.854999
0.856101
0.856948
0.856693
0.857025
0.858034
0.859365
0.861846
0.865728
0.868505
0.870231
0.871603
0.872803
0.873942
0.87384
0.873523
0.874323
0.87553
0.877301
0.881062
0.884945
0.887229
0.888718
0.889982
0.891143
0.890722
0.88998
0.890751
0.891973
0.893607
0.897142
0.901843
0.904681
0.906468
0.907872
0.90903
0.908466
0.90699
0.907474
0.908812
0.910487
0.914068
0.919643
0.923371
0.92559
0.927115
0.928374
0.927531
0.924725
0.92461
0.926122
0.928181
0.932516
0.939441
0.944086
0.946673
0.948576
0.950056
0.94829
0.943916
0.943429
0.945329
0.948283
0.955219
0.963714
0.96873
0.971612
0.973867
0.97532
0.971311
0.965616
0.96588
0.969048
0.975389
0.987824
0.997752
1.0034
1.00805
1.01201
1.01125
1.0033
0.998937
1.00358
1.01817
1.045
1.19243
1.56476
0.841041
0.842686
0.843479
0.84377
0.843707
0.844285
0.84525
0.8469
0.85066
0.854247
0.856375
0.857821
0.858989
0.859993
0.860602
0.860234
0.8604
0.861211
0.862358
0.864811
0.86915
0.872256
0.874118
0.8755
0.876671
0.877617
0.87721
0.876702
0.877307
0.878362
0.879993
0.884017
0.888326
0.890782
0.892338
0.893609
0.894667
0.894209
0.893248
0.893681
0.894674
0.896067
0.899528
0.904654
0.90785
0.909786
0.911236
0.912441
0.912008
0.910302
0.910403
0.911414
0.91283
0.916127
0.921992
0.926109
0.92852
0.930154
0.931518
0.930991
0.928202
0.927759
0.928986
0.930688
0.934547
0.941592
0.946604
0.94936
0.951365
0.952951
0.95172
0.947573
0.946792
0.948512
0.950925
0.956689
0.965415
0.971049
0.974382
0.976963
0.979162
0.976212
0.970251
0.969853
0.972685
0.977434
0.98812
0.998548
1.00496
1.01008
1.01507
1.01595
1.00981
1.00482
1.00592
1.0159
1.03672
1.18615
1.58441
0.84534
0.847043
0.847718
0.847743
0.847659
0.848283
0.849247
0.850852
0.854839
0.858716
0.860876
0.862298
0.863449
0.86444
0.864912
0.864221
0.864281
0.865059
0.866175
0.868704
0.873484
0.87692
0.878832
0.880183
0.881323
0.882089
0.881231
0.880591
0.881192
0.882261
0.88395
0.88821
0.892822
0.895388
0.896985
0.898288
0.899372
0.898871
0.897445
0.897705
0.898693
0.900094
0.903491
0.908991
0.912537
0.914575
0.916083
0.917391
0.917225
0.915072
0.914692
0.915631
0.917066
0.92002
0.926133
0.930871
0.933481
0.935229
0.936765
0.936735
0.93391
0.93299
0.93406
0.935691
0.938611
0.945553
0.95154
0.954716
0.956929
0.958767
0.958574
0.954814
0.953382
0.95478
0.957089
0.961209
0.970481
0.97782
0.981669
0.984457
0.986937
0.985623
0.979777
0.978225
0.980825
0.984969
0.993334
1.00603
1.01484
1.02057
1.02614
1.02895
1.02499
1.02209
1.02289
1.03121
1.04602
1.19508
1.60517
0.850849
0.852582
0.8532
0.853035
0.853024
0.853727
0.854736
0.856286
0.860305
0.864372
0.866558
0.867991
0.869179
0.870223
0.870532
0.86971
0.869848
0.87073
0.871904
0.874424
0.879405
0.882905
0.88474
0.88607
0.887234
0.887892
0.886907
0.886406
0.887147
0.888318
0.890028
0.894297
0.899085
0.901688
0.903292
0.904626
0.905723
0.905174
0.903639
0.903903
0.905088
0.906599
0.909793
0.915574
0.919477
0.921527
0.923018
0.924311
0.92419
0.921795
0.921308
0.922511
0.924187
0.926906
0.933141
0.938581
0.941295
0.943037
0.944584
0.944871
0.941988
0.940596
0.941804
0.943759
0.946305
0.952791
0.959996
0.963729
0.966113
0.96812
0.96885
0.965311
0.962636
0.963831
0.966412
0.969739
0.977837
0.986952
0.991884
0.995029
0.997908
0.9988
0.993865
0.990106
0.991847
0.996179
1.00215
1.01357
1.02475
1.03195
1.03802
1.04358
1.04265
1.03861
1.03663
1.04179
1.04937
1.20418
1.62283
0.857031
0.858824
0.859481
0.85927
0.859196
0.859877
0.8609
0.86231
0.866107
0.870566
0.872937
0.874412
0.875643
0.876718
0.876969
0.876247
0.876431
0.877342
0.878514
0.88067
0.885602
0.889475
0.891438
0.892823
0.894031
0.894735
0.893974
0.893501
0.894188
0.895338
0.896781
0.900406
0.905642
0.90867
0.91042
0.91184
0.91305
0.912887
0.911486
0.911554
0.912624
0.91404
0.91642
0.922034
0.926711
0.929076
0.930685
0.932112
0.932524
0.930485
0.929661
0.930717
0.932356
0.934511
0.939891
0.946108
0.949396
0.95139
0.95314
0.954195
0.952028
0.94973
0.950554
0.952497
0.954811
0.959917
0.967869
0.972686
0.97541
0.977636
0.97939
0.977347
0.973256
0.972972
0.975406
0.978496
0.984362
0.99465
1.00188
1.00573
1.00891
1.01141
1.00876
1.00313
1.00184
1.00524
1.01033
1.01896
1.03099
1.04014
1.047
1.05361
1.05648
1.05338
1.04925
1.04873
1.04815
1.20765
1.63319
0.863446
0.865237
0.865938
0.865755
0.865615
0.86627
0.867304
0.868614
0.872037
0.876891
0.879555
0.881063
0.882268
0.883298
0.883619
0.883045
0.883221
0.884109
0.885259
0.886988
0.891583
0.89604
0.898298
0.899767
0.900996
0.901877
0.901444
0.90078
0.901283
0.902356
0.903671
0.906438
0.911962
0.915734
0.917766
0.919292
0.920614
0.92097
0.919467
0.918992
0.919849
0.921207
0.923085
0.928094
0.933667
0.936639
0.938508
0.940085
0.941124
0.939559
0.937689
0.938187
0.93972
0.941635
0.945922
0.952783
0.957006
0.95936
0.961305
0.963031
0.962348
0.959009
0.95827
0.959767
0.961905
0.965583
0.973604
0.98024
0.983574
0.985912
0.988098
0.988123
0.983568
0.981186
0.982495
0.985325
0.989214
0.998036
1.00764
1.01331
1.01705
1.02023
1.02057
1.01496
1.0109
1.01157
1.01563
1.02132
1.03113
1.04129
1.04895
1.05546
1.06126
1.06195
1.05827
1.05317
1.0458
1.20551
1.63873
0.869438
0.871233
0.87197
0.871838
0.871541
0.872147
0.8732
0.874473
0.877404
0.882318
0.885379
0.887082
0.88835
0.889456
0.890049
0.889431
0.889367
0.890179
0.891326
0.892828
0.89673
0.901464
0.904184
0.905907
0.907284
0.908479
0.908543
0.90737
0.907412
0.908391
0.909705
0.91197
0.917154
0.921488
0.923899
0.925613
0.927073
0.92804
0.926719
0.925226
0.925719
0.927061
0.928855
0.933193
0.939173
0.942658
0.944708
0.946374
0.947859
0.947506
0.94488
0.944214
0.945401
0.94716
0.950308
0.957185
0.9627
0.965436
0.96739
0.96922
0.970102
0.967113
0.964756
0.965201
0.967019
0.969565
0.975935
0.984449
0.989421
0.99211
0.99432
0.995725
0.992477
0.988087
0.98739
0.989488
0.992525
0.998141
1.00865
1.01698
1.02159
1.02504
1.02764
1.02543
1.01934
1.01698
1.0185
1.02256
1.02923
1.0394
1.04809
1.0549
1.06072
1.06451
1.06348
1.05806
1.04591
1.20057
1.6419
0.874395
0.876286
0.877158
0.877291
0.876815
0.877241
0.878222
0.87946
0.882131
0.88679
0.889971
0.891843
0.893259
0.894491
0.895438
0.895041
0.894532
0.895137
0.896247
0.89772
0.901229
0.90586
0.908706
0.910575
0.912104
0.913467
0.914236
0.912953
0.91226
0.913029
0.914328
0.916448
0.921382
0.926061
0.928603
0.930334
0.931807
0.933127
0.932683
0.930481
0.930262
0.931433
0.933073
0.936694
0.94303
0.947236
0.949405
0.951056
0.952612
0.953318
0.950823
0.949054
0.94953
0.951057
0.953268
0.959075
0.966204
0.970089
0.97222
0.974005
0.975465
0.973551
0.969772
0.968908
0.970254
0.972447
0.976522
0.98545
0.992748
0.996406
0.998739
1.00067
0.999654
0.994179
0.991503
0.992296
0.99485
0.998081
1.00574
1.0164
1.02319
1.02726
1.03067
1.03272
1.02884
1.02274
1.02129
1.02343
1.02772
1.03517
1.04464
1.05205
1.05816
1.0632
1.0649
1.06185
1.051
1.19562
1.64403
0.878264
0.880266
0.881268
0.881826
0.881275
0.88147
0.882353
0.883522
0.885925
0.890472
0.893773
0.895729
0.897205
0.898468
0.899601
0.899582
0.898676
0.89898
0.899981
0.901329
0.904562
0.909495
0.912581
0.914439
0.91592
0.91726
0.918311
0.917314
0.916072
0.91655
0.917754
0.919527
0.924136
0.929534
0.932359
0.934041
0.935445
0.936784
0.936979
0.934726
0.933916
0.934738
0.936181
0.938645
0.944768
0.950273
0.952995
0.954698
0.956231
0.957414
0.955682
0.952808
0.952497
0.9537
0.955478
0.959353
0.967375
0.973029
0.975796
0.977605
0.979111
0.978448
0.97408
0.971908
0.972656
0.974652
0.977173
0.983717
0.993232
0.99861
1.00139
1.00353
1.00489
1.00159
0.99627
0.994916
0.996121
0.998696
1.00263
1.01207
1.02226
1.0283
1.03214
1.03527
1.03601
1.03106
1.02574
1.02493
1.02732
1.03193
1.04005
1.04871
1.05512
1.0603
1.06362
1.0635
1.05641
1.19347
1.64611
0.881547
0.88358
0.884628
0.885425
0.884878
0.884851
0.885653
0.886765
0.888765
0.893331
0.897052
0.89907
0.900535
0.901797
0.902943
0.903183
0.902015
0.902004
0.902884
0.904119
0.906739
0.912061
0.915819
0.917732
0.919151
0.92042
0.921503
0.92081
0.919183
0.919348
0.920429
0.921884
0.925424
0.931509
0.935237
0.937062
0.938453
0.939748
0.940348
0.938308
0.936807
0.937265
0.938537
0.940221
0.944833
0.951726
0.955559
0.957512
0.959021
0.960369
0.959724
0.956206
0.954972
0.955818
0.957435
0.959706
0.966291
0.974067
0.977929
0.980002
0.981585
0.982444
0.979254
0.975413
0.97499
0.976284
0.978293
0.981444
0.990231
0.998909
1.00312
1.00582
1.00809
1.00858
1.00289
0.998032
0.997686
0.999494
1.00224
1.00701
1.0172
1.02647
1.03186
1.03545
1.03845
1.03885
1.0336
1.02851
1.028
1.03069
1.03558
1.04401
1.05186
1.05761
1.06176
1.06342
1.06069
1.1941
1.64823
0.884321
0.88632
0.887353
0.888238
0.887754
0.887483
0.888168
0.889232
0.890818
0.895103
0.899574
0.901794
0.90323
0.904451
0.905563
0.906003
0.904757
0.904402
0.905154
0.906315
0.908192
0.913249
0.91804
0.920293
0.921679
0.922912
0.924006
0.923738
0.921895
0.921665
0.922551
0.923846
0.926038
0.931884
0.93706
0.939459
0.94086
0.942103
0.943044
0.941695
0.939388
0.93929
0.940334
0.941794
0.94449
0.951472
0.957091
0.959677
0.961268
0.96266
0.963161
0.960114
0.957542
0.957766
0.95909
0.960749
0.964241
0.972796
0.979006
0.98182
0.983661
0.985308
0.984987
0.98015
0.977236
0.977376
0.978894
0.981028
0.985721
0.996185
1.00383
1.00735
1.00964
1.01165
1.011
1.00481
1.00081
1.00076
1.00246
1.00531
1.01115
1.0217
1.03019
1.03534
1.03892
1.04154
1.04104
1.03571
1.03097
1.03054
1.03324
1.03842
1.04709
1.05447
1.05938
1.06204
1.06338
1.19798
1.65053
0.886682
0.888615
0.889628
0.890559
0.890173
0.889647
0.890197
0.891201
0.892464
0.895843
0.901145
0.90404
0.905492
0.906678
0.907759
0.908393
0.90726
0.906454
0.907016
0.908079
0.909445
0.913236
0.919188
0.922401
0.92393
0.925102
0.926184
0.926436
0.924607
0.923681
0.924297
0.925446
0.926904
0.931096
0.937681
0.941218
0.942964
0.944256
0.945432
0.945185
0.942355
0.941227
0.94192
0.943213
0.944824
0.949683
0.957248
0.961215
0.963204
0.964693
0.965997
0.964776
0.960886
0.95962
0.960224
0.961648
0.963585
0.96942
0.978508
0.98341
0.985916
0.987742
0.989192
0.986575
0.980948
0.979084
0.979786
0.981558
0.983917
0.990212
1.00114
1.00759
1.01077
1.01346
1.01572
1.01384
1.00662
1.00296
1.00339
1.00553
1.00867
1.01538
1.02566
1.0333
1.0381
1.04157
1.04389
1.04304
1.03749
1.03282
1.03242
1.03482
1.0401
1.0489
1.05591
1.05992
1.06415
1.20421
1.65304
0.888818
0.890689
0.891682
0.892635
0.89246
0.891663
0.891987
0.892879
0.893988
0.896144
0.901593
0.905741
0.907591
0.908769
0.909826
0.910641
0.909891
0.90852
0.908716
0.909646
0.91084
0.913081
0.919043
0.923743
0.925872
0.927169
0.9283
0.929091
0.92775
0.925872
0.925966
0.926913
0.928145
0.930352
0.936787
0.942278
0.944764
0.946272
0.947572
0.948405
0.94626
0.94363
0.9435
0.944401
0.945758
0.948209
0.955531
0.962081
0.964987
0.966721
0.96817
0.968855
0.965487
0.961824
0.961442
0.962524
0.964172
0.966884
0.975115
0.983585
0.98732
0.989342
0.991033
0.9921
0.9881
0.982721
0.981355
0.981984
0.983774
0.986563
0.994901
1.00612
1.0121
1.01495
1.01713
1.0185
1.01546
1.00883
1.00592
1.00646
1.00856
1.01195
1.01959
1.02948
1.03633
1.04072
1.04397
1.04584
1.04459
1.03887
1.03402
1.03337
1.03528
1.04077
1.04989
1.05646
1.06337
1.21201
1.65584
0.890753
0.892713
0.893696
0.894683
0.894846
0.893791
0.893674
0.894396
0.895438
0.896855
0.901237
0.90672
0.909377
0.910774
0.911857
0.91281
0.912734
0.910936
0.910464
0.911199
0.912303
0.913697
0.918025
0.924235
0.9274
0.929035
0.930285
0.931415
0.931279
0.928768
0.927778
0.928349
0.929412
0.93078
0.935048
0.942287
0.946191
0.948114
0.949518
0.950806
0.950485
0.946899
0.945186
0.945654
0.946827
0.9484
0.952857
0.961322
0.966343
0.968703
0.970293
0.971669
0.970925
0.966089
0.963558
0.963775
0.964993
0.966759
0.970767
0.980579
0.987781
0.990985
0.993219
0.995063
0.995083
0.988992
0.983967
0.98347
0.984842
0.986919
0.990082
0.999308
1.00977
1.01473
1.01734
1.01984
1.0216
1.01824
1.01136
1.00861
1.00932
1.01164
1.01533
1.02354
1.03281
1.03898
1.04305
1.04603
1.04763
1.04598
1.03981
1.03457
1.03345
1.03477
1.04106
1.05025
1.06004
1.2205
1.65864
0.89233
0.894719
0.895722
0.896744
0.897299
0.896234
0.895425
0.895916
0.89689
0.898065
0.900891
0.906885
0.910708
0.91251
0.913745
0.914814
0.915484
0.914025
0.91252
0.912826
0.913776
0.914939
0.917326
0.923665
0.928457
0.930653
0.93208
0.933331
0.934241
0.932506
0.929993
0.92984
0.930703
0.931933
0.934167
0.940913
0.947035
0.949731
0.951316
0.952646
0.953596
0.9512
0.947631
0.947187
0.948172
0.949551
0.951556
0.958261
0.966324
0.969984
0.971935
0.97345
0.974745
0.9725
0.967223
0.965414
0.965891
0.967301
0.969316
0.975205
0.985899
0.99202
0.99456
0.996152
0.997727
0.997214
0.991036
0.986979
0.986669
0.987579
0.9894
0.99304
1.00316
1.01324
1.01825
1.02094
1.02319
1.02416
1.02048
1.01416
1.01146
1.01198
1.0141
1.01815
1.02717
1.03609
1.04168
1.04519
1.04775
1.04909
1.04721
1.04065
1.03451
1.03255
1.0338
1.04115
1.0539
1.22763
1.66074
0.893456
0.896575
0.897668
0.898725
0.899582
0.899085
0.897543
0.897572
0.898418
0.899508
0.90121
0.906385
0.911559
0.913991
0.915436
0.916616
0.91767
0.917432
0.915167
0.914578
0.915269
0.916347
0.917773
0.922431
0.928879
0.932088
0.933762
0.935067
0.936276
0.936198
0.933057
0.931616
0.932201
0.933332
0.934703
0.938833
0.946582
0.950959
0.952968
0.954339
0.955635
0.955591
0.951723
0.949398
0.949591
0.950552
0.952006
0.955166
0.963803
0.970663
0.973635
0.975544
0.977087
0.977724
0.973353
0.968375
0.967533
0.968545
0.970081
0.972191
0.979319
0.989691
0.99479
0.997451
0.999709
1.00151
0.999816
0.992763
0.988799
0.988769
0.990234
0.992332
0.996195
1.00636
1.01599
1.02066
1.02331
1.02572
1.02707
1.02326
1.01643
1.01348
1.01405
1.0163
1.02085
1.03032
1.03877
1.04382
1.04701
1.04938
1.05054
1.04833
1.04121
1.03368
1.03093
1.03214
1.04488
1.2318
1.66181
0.894086
0.898108
0.8994
0.900554
0.901555
0.901912
0.900231
0.899437
0.900023
0.901022
0.902261
0.905761
0.911879
0.915326
0.917035
0.9183
0.919439
0.920212
0.918471
0.916613
0.916858
0.917827
0.919021
0.921546
0.928202
0.933153
0.935344
0.936738
0.93798
0.938932
0.937019
0.934078
0.933867
0.934768
0.935955
0.937804
0.944206
0.951293
0.954417
0.956137
0.957491
0.958699
0.957003
0.952482
0.951008
0.951636
0.952945
0.95461
0.959485
0.969009
0.974515
0.976792
0.978292
0.979841
0.980145
0.974975
0.970694
0.970092
0.970714
0.972167
0.974758
0.983456
0.99398
0.998811
1.00094
1.00249
1.00402
1.00223
0.995435
0.991782
0.991581
0.992572
0.994451
0.998862
1.00983
1.01918
1.02368
1.0262
1.0283
1.029
1.02516
1.01872
1.01564
1.0159
1.0179
1.02282
1.03285
1.04122
1.04586
1.0486
1.05066
1.05151
1.04916
1.04124
1.03247
1.02796
1.0331
1.23029
1.66177
0.894333
0.899426
0.900974
0.902238
0.903295
0.904175
0.90328
0.901582
0.901713
0.902608
0.903725
0.905733
0.91142
0.916352
0.918579
0.919935
0.92111
0.922219
0.921887
0.919267
0.918603
0.919327
0.920409
0.921776
0.926431
0.933364
0.936754
0.938434
0.939724
0.94095
0.940963
0.937606
0.935758
0.936088
0.937055
0.938359
0.941527
0.949615
0.955438
0.957978
0.95955
0.960843
0.961405
0.957653
0.953683
0.953226
0.954104
0.955399
0.957228
0.963736
0.973164
0.977715
0.980041
0.981862
0.983371
0.982382
0.976016
0.972085
0.972047
0.973292
0.974872
0.977562
0.986816
0.996639
1.00089
1.00344
1.00576
1.00741
1.00478
0.997385
0.993557
0.99363
0.995203
0.997417
1.0021
1.01271
1.02127
1.02543
1.02797
1.03026
1.03141
1.02755
1.02053
1.01703
1.01716
1.01913
1.0244
1.03477
1.04294
1.04714
1.04967
1.05159
1.05211
1.04945
1.04052
1.02953
1.02458
1.22302
1.66067
0.894234
0.900454
0.902476
0.903821
0.904918
0.905969
0.906145
0.9042
0.903579
0.904272
0.905302
0.906519
0.910266
0.916593
0.919954
0.921589
0.922848
0.924009
0.924731
0.922641
0.920594
0.920756
0.921652
0.922815
0.925073
0.931963
0.93774
0.940172
0.941546
0.942769
0.943791
0.942002
0.938293
0.937496
0.938291
0.939489
0.940953
0.945887
0.954488
0.958998
0.961039
0.962485
0.963871
0.963745
0.958892
0.955538
0.955326
0.956108
0.957466
0.959926
0.968217
0.977363
0.981289
0.983075
0.984339
0.9859
0.984629
0.978231
0.974884
0.974609
0.975252
0.976768
0.980006
0.990414
1.0004
1.00458
1.00658
1.00813
1.0095
1.00712
1.0003
0.996746
0.996569
0.997473
0.999339
1.00467
1.01577
1.02396
1.02797
1.03042
1.03249
1.03333
1.02954
1.02237
1.01844
1.01821
1.01996
1.02542
1.03615
1.04412
1.04796
1.05036
1.05215
1.05231
1.04909
1.03699
1.02378
1.21167
1.65951
0.893907
0.900821
0.90383
0.905408
0.906602
0.907716
0.908578
0.907294
0.905678
0.905872
0.906684
0.907721
0.909602
0.915606
0.921027
0.923378
0.924665
0.92579
0.92683
0.926201
0.923126
0.922232
0.922919
0.924027
0.925313
0.92931
0.937149
0.941472
0.943405
0.944592
0.945773
0.946103
0.942552
0.9397
0.939682
0.940487
0.941653
0.94354
0.950416
0.958666
0.962368
0.964388
0.965945
0.967232
0.965565
0.95969
0.957015
0.957434
0.958679
0.96002
0.962702
0.971831
0.980219
0.98368
0.985938
0.987822
0.989217
0.986685
0.979597
0.976216
0.976497
0.977914
0.979596
0.982809
0.993002
1.00223
1.0061
1.00855
1.01084
1.0124
1.00989
1.00274
0.998526
0.998194
0.999614
1.00191
1.00757
1.01833
1.02593
1.02975
1.03232
1.03461
1.03577
1.0316
1.02363
1.0193
1.01899
1.02068
1.02621
1.03694
1.04463
1.04828
1.05075
1.05231
1.05236
1.04609
1.03153
1.20139
1.65909
0.893838
0.900153
0.904968
0.907184
0.90843
0.909548
0.9106
0.910419
0.908046
0.907309
0.907937
0.90898
0.910218
0.913888
0.920913
0.924742
0.926425
0.927544
0.92861
0.929219
0.926711
0.924214
0.92432
0.925269
0.926402
0.927993
0.934029
0.94155
0.944811
0.946494
0.947667
0.948798
0.947843
0.94328
0.941155
0.941475
0.942481
0.943784
0.946564
0.955081
0.962486
0.965477
0.967076
0.968387
0.969707
0.96746
0.961701
0.9596
0.959745
0.960537
0.961987
0.965505
0.975717
0.983967
0.987164
0.988739
0.990008
0.991476
0.989081
0.982384
0.979409
0.979255
0.979829
0.981289
0.98494
0.995877
1.00547
1.00943
1.01141
1.01306
1.01451
1.01262
1.00569
1.00127
1.00058
1.00139
1.00337
1.00969
1.02103
1.02866
1.03235
1.03461
1.03654
1.03735
1.03327
1.02507
1.02028
1.01969
1.02121
1.02652
1.03708
1.04454
1.04832
1.05092
1.05234
1.05062
1.04275
1.19654
1.65974
0.8946
0.898883
0.905273
0.908779
0.910276
0.91138
0.91241
0.913033
0.911045
0.909106
0.909357
0.910328
0.911435
0.913029
0.918741
0.925201
0.927952
0.929332
0.930422
0.931459
0.930888
0.927362
0.925979
0.92644
0.927396
0.92858
0.931086
0.938893
0.945423
0.94812
0.949644
0.95079
0.951672
0.94891
0.944108
0.942961
0.94374
0.944912
0.946174
0.94959
0.958942
0.965524
0.968236
0.970129
0.971735
0.97268
0.968954
0.962868
0.961029
0.961779
0.963111
0.964528
0.968141
0.97841
0.985934
0.98903
0.99136
0.993289
0.994545
0.991506
0.984338
0.980791
0.98087
0.982193
0.983952
0.987565
0.998035
1.00698
1.01084
1.01334
1.01558
1.01709
1.01508
1.00777
1.00267
1.00175
1.00302
1.00542
1.01207
1.02307
1.03025
1.03377
1.0362
1.03832
1.03933
1.03508
1.02631
1.02104
1.02017
1.02144
1.02634
1.03657
1.04411
1.04814
1.05104
1.05158
1.05067
1.19835
1.66163
0.89588
0.898384
0.903921
0.909595
0.911942
0.913134
0.914197
0.915164
0.914602
0.911808
0.911021
0.911623
0.912558
0.913651
0.916275
0.923668
0.928925
0.931044
0.932223
0.9333
0.934108
0.931845
0.92828
0.927728
0.928581
0.929749
0.930979
0.934627
0.943348
0.948732
0.950962
0.952429
0.95362
0.954163
0.95029
0.945978
0.945287
0.945853
0.946876
0.94834
0.952971
0.962864
0.968913
0.971307
0.972656
0.973932
0.974985
0.971146
0.965424
0.963834
0.964007
0.964755
0.966276
0.970654
0.981697
0.989481
0.992446
0.993952
0.995242
0.996662
0.99428
0.987371
0.983913
0.983577
0.984089
0.98549
0.989379
1.00064
1.01007
1.01391
1.01578
1.01731
1.01889
1.01759
1.01045
1.00506
1.00386
1.00456
1.0065
1.0131
1.02457
1.03224
1.03598
1.0382
1.03993
1.04075
1.03687
1.02774
1.0217
1.02046
1.02135
1.02568
1.03566
1.04344
1.04829
1.05007
1.0551
1.20537
1.66437
0.897123
0.899048
0.901807
0.908932
0.913091
0.914909
0.916011
0.917033
0.91767
0.915584
0.912987
0.912868
0.913718
0.914795
0.916048
0.920295
0.928126
0.932161
0.933942
0.935042
0.936145
0.93632
0.932569
0.929843
0.929958
0.930827
0.931871
0.933242
0.938386
0.947274
0.951822
0.953909
0.95544
0.956739
0.956584
0.951377
0.947288
0.947052
0.948146
0.949351
0.950767
0.955896
0.965872
0.971273
0.973678
0.975609
0.977204
0.977717
0.972932
0.966803
0.965124
0.965914
0.967305
0.968832
0.973047
0.983699
0.990935
0.993993
0.996329
0.998242
0.999489
0.996893
0.989664
0.985353
0.984948
0.986191
0.988031
0.992027
1.00264
1.01124
1.01502
1.01758
1.01978
1.02131
1.01981
1.01247
1.00644
1.0048
1.0057
1.00783
1.01423
1.02552
1.03326
1.03715
1.03968
1.04152
1.04226
1.03835
1.0289
1.02216
1.0204
1.02082
1.02453
1.03447
1.04312
1.04731
1.05643
1.21539
1.66749
0.898217
0.900091
0.901273
0.906454
0.913258
0.916256
0.917703
0.918723
0.9197
0.919606
0.916398
0.914635
0.915013
0.915945
0.916986
0.918498
0.924446
0.932005
0.93525
0.936855
0.937959
0.939021
0.937999
0.933429
0.931418
0.931754
0.932767
0.933936
0.935729
0.942326
0.950827
0.954633
0.956388
0.957692
0.959007
0.958668
0.953301
0.949828
0.949602
0.950117
0.951181
0.952876
0.959082
0.969309
0.974596
0.97669
0.977864
0.979207
0.980041
0.975568
0.969689
0.968078
0.968188
0.968855
0.970375
0.97511
0.986514
0.994299
0.997211
0.998667
0.999902
1.00143
0.999806
0.992781
0.988352
0.987669
0.988128
0.989436
0.993464
1.00479
1.0141
1.01793
1.01977
1.02127
1.02302
1.02236
1.01518
1.00854
1.00654
1.00692
1.00855
1.01442
1.02621
1.03488
1.03903
1.04114
1.0424
1.04291
1.03952
1.03018
1.02256
1.01986
1.01979
1.02312
1.03364
1.04174
1.05476
1.22599
1.67039
0.899494
0.901313
0.902147
0.904368
0.911118
0.916716
0.918995
0.920275
0.921358
0.922346
0.921173
0.917551
0.916513
0.917023
0.917939
0.919052
0.921336
0.928834
0.935617
0.938326
0.939755
0.940824
0.941716
0.93917
0.934408
0.933236
0.933971
0.935093
0.936195
0.938153
0.945689
0.953782
0.957192
0.959063
0.960663
0.961978
0.960718
0.954603
0.951138
0.951235
0.952397
0.953631
0.95521
0.961581
0.971539
0.976373
0.978707
0.980684
0.982256
0.982703
0.977832
0.971409
0.969281
0.969915
0.971283
0.972924
0.977324
0.988061
0.995325
0.998423
1.00075
1.00266
1.00402
1.00239
0.995321
0.989979
0.988843
0.989839
0.991639
0.995728
1.00635
1.01496
1.01888
1.02159
1.02381
1.02544
1.02456
1.01717
1.00996
1.00748
1.00795
1.00965
1.01509
1.02645
1.03519
1.03946
1.04168
1.04295
1.04358
1.0408
1.03174
1.02297
1.019
1.01816
1.02187
1.03214
1.04897
1.23553
1.67247
0.901143
0.902475
0.903229
0.904339
0.907826
0.91551
0.919968
0.921844
0.922973
0.924024
0.924713
0.922058
0.918631
0.918276
0.919128
0.920227
0.921391
0.924463
0.932826
0.93867
0.941044
0.942535
0.943689
0.944184
0.940537
0.936292
0.935555
0.936066
0.936952
0.938142
0.940765
0.949238
0.956918
0.960038
0.961621
0.962756
0.964107
0.962945
0.957003
0.953928
0.953742
0.954175
0.955247
0.957117
0.964297
0.974633
0.979623
0.981574
0.982709
0.984078
0.985034
0.980899
0.974479
0.972335
0.972302
0.972845
0.974255
0.978881
0.990333
0.998397
1.00145
1.00294
1.00421
1.00584
1.00524
0.998468
0.992738
0.991302
0.991565
0.992756
0.996502
1.00773
1.01768
1.02193
1.02387
1.02527
1.02692
1.02688
1.02011
1.01231
1.00922
1.00911
1.01015
1.0145
1.02608
1.03592
1.04057
1.04251
1.04351
1.04411
1.04198
1.03333
1.02314
1.01734
1.01621
1.01991
1.03962
1.2419
1.67353
0.903255
0.903504
0.904322
0.905355
0.906863
0.912106
0.919552
0.922881
0.924423
0.925447
0.926503
0.926601
0.922783
0.920284
0.920497
0.921332
0.92227
0.923483
0.927599
0.936501
0.941698
0.943927
0.945426
0.946611
0.94667
0.941908
0.9376
0.937128
0.938103
0.939267
0.940396
0.943161
0.952106
0.959338
0.962249
0.96416
0.965801
0.967027
0.965092
0.958597
0.955112
0.955203
0.956355
0.957665
0.9594
0.966313
0.976226
0.980947
0.983343
0.985391
0.986975
0.987676
0.983535
0.976587
0.973519
0.973712
0.974992
0.976667
0.980978
0.991589
0.999193
1.00248
1.00492
1.00686
1.00834
1.00762
1.00097
0.994414
0.992317
0.992963
0.994609
0.998304
1.00871
1.01815
1.02251
1.02531
1.02763
1.02922
1.02899
1.02216
1.01369
1.0098
1.00951
1.01069
1.0149
1.02612
1.03629
1.04108
1.04283
1.04368
1.04419
1.04258
1.03479
1.02321
1.01553
1.01237
1.02705
1.2419
1.67309
0.906225
0.905036
0.905593
0.906579
0.907573
0.90956
0.916293
0.922984
0.925671
0.927076
0.928099
0.929125
0.928013
0.923537
0.921772
0.922176
0.923165
0.92427
0.925789
0.931014
0.939837
0.944382
0.946339
0.947742
0.948907
0.948801
0.943944
0.940077
0.939626
0.940058
0.940955
0.942267
0.945796
0.955317
0.96244
0.965239
0.966629
0.967673
0.969013
0.967603
0.961358
0.958058
0.957776
0.958115
0.959109
0.960972
0.968449
0.979041
0.984162
0.986148
0.987272
0.988562
0.989825
0.986769
0.979748
0.976499
0.976208
0.976646
0.97791
0.982067
0.993384
1.00208
1.00548
1.00708
1.00829
1.00992
1.01018
1.00416
0.997144
0.994704
0.994613
0.995539
0.998454
1.00889
1.02016
1.02548
1.0276
1.02887
1.03023
1.03074
1.02517
1.01633
1.01161
1.01066
1.01127
1.0143
1.02539
1.03622
1.04091
1.04247
1.04354
1.04424
1.04319
1.03588
1.02282
1.01266
1.01461
1.23477
1.67101
0.910126
0.907356
0.907051
0.907739
0.908652
0.90974
0.912547
0.920374
0.926276
0.928554
0.929746
0.930713
0.93153
0.928883
0.924456
0.923585
0.924353
0.925431
0.92646
0.927945
0.933955
0.942803
0.94697
0.948888
0.950387
0.95164
0.951109
0.94544
0.941304
0.941047
0.942094
0.943316
0.944567
0.948007
0.957575
0.96431
0.967016
0.968961
0.970569
0.971772
0.970027
0.963418
0.959306
0.959003
0.96006
0.961464
0.963254
0.97013
0.980196
0.985148
0.987621
0.989713
0.991326
0.992327
0.989474
0.982167
0.977819
0.977376
0.978521
0.980193
0.984128
0.994446
1.0026
1.00628
1.00886
1.01089
1.01242
1.0125
1.00665
0.998914
0.995584
0.995664
0.997103
0.999956
1.00931
1.02012
1.02546
1.02826
1.03061
1.0323
1.03275
1.02733
1.01782
1.01204
1.01056
1.01123
1.01421
1.02484
1.03567
1.04044
1.04214
1.04354
1.04437
1.0436
1.03616
1.01974
1.01018
1.22166
1.66876
0.913754
0.911003
0.908751
0.909036
0.90997
0.910996
0.912146
0.91563
0.923898
0.929049
0.931183
0.932465
0.933512
0.933813
0.929948
0.926217
0.925738
0.926285
0.927212
0.928388
0.930343
0.937289
0.945764
0.949517
0.951185
0.952297
0.953415
0.953112
0.947803
0.944069
0.943666
0.944067
0.944923
0.946304
0.950301
0.960301
0.967281
0.969937
0.971216
0.97224
0.973608
0.972771
0.966513
0.962345
0.961714
0.961945
0.96278
0.964538
0.971646
0.982638
0.988269
0.99039
0.99152
0.992717
0.994143
0.992548
0.985444
0.980817
0.979998
0.980289
0.981364
0.984738
0.995479
1.00522
1.0093
1.01107
1.0122
1.01376
1.01472
1.01002
1.00193
0.998135
0.99752
0.998079
0.999919
1.00837
1.02094
1.02792
1.03046
1.03179
1.03301
1.03388
1.03001
1.02045
1.01345
1.01125
1.01145
1.0136
1.02358
1.03484
1.03988
1.04186
1.04361
1.0443
1.04347
1.03269
1.01666
1.20774
1.66747
0.916175
0.915931
0.911973
0.910818
0.911332
0.912176
0.913017
0.914148
0.918407
0.927049
0.931891
0.933983
0.935276
0.936329
0.93612
0.931237
0.927508
0.92737
0.928435
0.929654
0.930724
0.932552
0.939892
0.948093
0.951528
0.953324
0.954883
0.956206
0.955492
0.949644
0.94538
0.945003
0.946024
0.947287
0.948557
0.952178
0.961891
0.968597
0.97135
0.973373
0.974996
0.97627
0.975337
0.969046
0.963858
0.962779
0.963648
0.965019
0.966855
0.973171
0.983449
0.988932
0.991516
0.993684
0.995336
0.996589
0.995202
0.988192
0.982461
0.981033
0.981878
0.983426
0.98656
0.996103
1.00534
1.00967
1.01244
1.01475
1.01636
1.0171
1.01268
1.00407
0.999049
0.998181
0.999229
1.00124
1.00852
1.02044
1.02741
1.03047
1.03291
1.03483
1.0357
1.03199
1.02183
1.01375
1.011
1.0112
1.01338
1.02271
1.0337
1.0389
1.04141
1.04338
1.04436
1.04061
1.03097
1.19964
1.66756
0.918313
0.919562
0.917095
0.913183
0.912346
0.912857
0.913777
0.914817
0.916294
0.921325
0.929875
0.934368
0.936396
0.937825
0.938961
0.93839
0.933431
0.930286
0.930123
0.930582
0.93134
0.932467
0.934752
0.942623
0.950717
0.954137
0.955724
0.956726
0.958001
0.957826
0.952488
0.948372
0.947759
0.948006
0.948698
0.95001
0.953951
0.964149
0.971484
0.974245
0.975558
0.97654
0.977962
0.978013
0.972424
0.967001
0.965675
0.965795
0.96642
0.967938
0.974029
0.985253
0.991808
0.994288
0.995526
0.996708
0.998243
0.998064
0.991694
0.985492
0.983681
0.983596
0.984318
0.98667
0.996075
1.00735
1.01282
1.01496
1.01614
1.01751
1.01888
1.01599
1.0074
1.00166
1.00009
1.00017
1.00134
1.00727
1.02031
1.02935
1.03276
1.03428
1.03543
1.03614
1.03379
1.02423
1.01497
1.01157
1.01137
1.01282
1.02105
1.03202
1.03786
1.04095
1.04325
1.04311
1.04178
1.20044
1.66914
0.920469
0.92174
0.921802
0.917699
0.914275
0.914087
0.91491
0.915912
0.916832
0.918183
0.923758
0.932627
0.937044
0.939006
0.940449
0.941607
0.940815
0.935424
0.93168
0.931442
0.932402
0.93352
0.934547
0.936601
0.944607
0.952577
0.955854
0.957794
0.959476
0.96083
0.960425
0.95482
0.94983
0.948832
0.94968
0.950924
0.952237
0.955682
0.965325
0.972389
0.975358
0.9775
0.979231
0.980606
0.980639
0.975339
0.968961
0.966722
0.967189
0.968462
0.970172
0.975342
0.985688
0.992144
0.995151
0.99758
0.9994
1.00081
1.00059
0.994482
0.987239
0.984437
0.984742
0.986116
0.988486
0.99656
1.00723
1.01279
1.01575
1.01823
1.01999
1.02114
1.01856
1.00977
1.00272
1.0005
1.00104
1.00265
1.0077
1.01965
1.02858
1.03225
1.03461
1.03656
1.03749
1.03543
1.02576
1.01553
1.01133
1.01094
1.01215
1.01938
1.03014
1.03669
1.0409
1.04205
1.04846
1.20742
1.67185
0.921939
0.923549
0.924376
0.923607
0.918923
0.916217
0.916116
0.916564
0.917469
0.918644
0.920487
0.926869
0.935457
0.939539
0.941383
0.942689
0.943694
0.942989
0.937921
0.934356
0.933907
0.934184
0.934903
0.936089
0.938637
0.947116
0.955306
0.958727
0.960281
0.961263
0.962569
0.962886
0.958015
0.952912
0.951694
0.951795
0.952261
0.953484
0.956967
0.967037
0.975141