/*--------------------------------*- C++ -*----------------------------------*\
  =========                 |
  \\      /  F ield         | OpenFOAM: The Open Source CFD Toolbox
   \\    /   O peration     | Website:  https://openfoam.org
    \\  /    A nd           | Version:  12
     \\/     M anipulation  |
\*---------------------------------------------------------------------------*/
FoamFile
{
    format      ascii;
    class       volScalarField;
    location    "2.3";
    object      p;
}
// * * * * * * * * * * * * * * * * * * * * * * * * * * * * * * * * * * * * * //

dimensions      [1 -1 -2 0 0 0 0];

internalField   nonuniform List<scalar> 
22702
(
1
1
0.868255
1
1.05979
1
1.47259
1
1
0.666143
1.47139
1.47308
1
1.47432
0.885823
1
1
1
1.47111
1
1.4774
1
1.4684
0.665622
1.46825
0.666552
1
1.47879
0.634901
0.669727
1
1.47271
1
1
1
1.43545
1.4648
1.46876
1
1
0.668457
1
1.22978
1
1.47786
1
1
1
1
0.65426
1
0.657659
1
1.47147
1
1.47147
1
1
1
1
0.655711
1
1
0.638041
1
0.642222
1
1
1
0.674687
1
1.47516
1.28404
1
1.47026
1.49256
0.651181
1.47509
0.657496
1
1.47114
0.660432
1.46991
1.4695
1
1
1
1
0.924947
0.671829
1.46743
1
1
0.640319
1
1.47784
0.639566
1
1
1
1
1.2311
1.47153
0.673243
1
1
1.11059
1
0.660586
1
1.47513
1.47288
1
1
0.62307
0.622761
0.669839
1
1
1
1
1
0.908742
1
1.40057
1.04502
1.47356
1
1.47286
1.47147
1.47131
1.47034
1
0.675124
1
0.629783
1
1
1
1
1.47292
1
1
1
1
1.46483
1
1.02861
1
1
1
1
0.653467
1
1.01144
1
0.65828
1
1
1
1.46714
1
1.47302
0.639321
0.664157
1.47504
1.47726
1
1.07343
1.26363
1
1.46934
0.657384
1.44087
1
1
1
1
1.47703
1.38956
1
1.47312
0.645953
1.46988
1
0.651322
1
0.659608
0.66552
0.999778
1
1
1.47308
1
1
1.47026
1
1.47129
1.47248
0.668883
1
1
0.659358
1.47126
1
1
1
1.47122
1
0.675348
1
1
1.4718
1.47132
1.47345
1
1.00004
1
1
1
1.46038
1
0.658069
1.4909
1.47032
1.46576
1
1
1
0.6502
1.47332
1.22558
1
1.46859
0.646154
0.659356
1.4683
1.47011
1
1.47554
0.660316
1.4135
1
1
1
1
1.4719
1
1.27952
1.04262
1
1
1.47081
0.637069
0.752379
1
1.46797
0.699287
1.47797
1
1
1
1
1
1
1
0.659121
0.760547
0.652533
1.47142
1
1
1
1
1.41129
1
0.66069
1
0.643184
0.658742
1.46956
0.648238
1.46577
1
1
1
0.997645
0.649604
0.668074
0.999999
1
0.643054
1
1.47246
0.67385
1
1
1.47008
0.662554
1
1.47507
0.662514
1.47074
1
0.643316
0.997687
1
1
1
0.652329
1
1
0.999999
1.00001
1.01386
1.28542
1
0.644824
1
1
1
1
1
1
1
1.4701
1
1.47166
1
1
1
0.664551
1
1.46621
0.644403
1
1.38958
1
1
1.47067
1
1
1
1.45562
1
1
1.46172
1.47071
1
1.09174
1
1
0.628764
1
1
1
0.64026
1
1
1
1
0.630909
1
1
1
1
1
0.668906
1.00007
1.47554
1
0.999994
1.47715
1.47669
1
1
0.674317
0.815404
1.47288
1
1
1
1.47057
0.674326
1
1.47342
1
1
0.69805
0.700621
1
0.654441
0.652614
1
1
1
1
1
1
1
1.47315
1.11483
1.45533
0.666899
0.910354
1.47268
1
1.46539
1.47291
0.625759
0.771687
1
0.678252
1
1.47873
1
1
1
1
1.47112
1
1
1
1
1
1
1
1.1697
1.46694
1
1.47109
1
1
0.658379
1
1
1
1
1.4713
1.35576
1
1
0.648762
1.47204
1.47164
1
1.47176
1.47075
1.47099
1
0.837919
1
1.47088
0.991871
1.47125
1
0.643455
0.998839
1.46968
1
1
1
1
0.661967
1.4706
1.42724
1
1.46509
1.47055
1.47246
1
1.21331
1.47652
1
1
1.31985
1.0677
1.47143
0.924878
1.47136
1
1.47125
1.47224
1.47143
1.4729
1
1.46202
0.909445
0.874296
1
0.999999
1
1
1.47533
1
1
1
1
1
1.47024
1
1
0.996049
1.47152
1.40027
1
1.38847
1.00004
1
1
1.47489
1
0.997252
1.00506
1
1.47286
1
1.47524
1
1
1.34542
1
1.47519
1.00002
1
1.4718
1
1.47126
1
1
1
1.47077
1
1.47795
1.00001
1.47164
1.47
1.4708
1.47074
1
1.47258
1.46315
1
0.670246
1.44137
1.33699
1
1.47034
1
0.633541
0.658046
1
1
1
1
1
0.644596
1
1.4715
1.11723
1.47434
1
1
1
1
1
1.47191
1
1.47131
1.27848
0.783395
1
1.00001
1.13487
1.11676
1
1
1.16806
1
0.655674
1.47113
1.47156
1
1
1
1.46956
1
1.00003
1.463
1.47063
0.953138
1
1
0.655942
1.42759
1
1
1
1
1
1.47147
1.47301
1
1.47117
1.47744
1.47077
1
1
1
1
0.67348
1.47261
1
1
1.42781
1.46993
1
1.44248
1.46751
1
1
1
1
1
1.47301
1
1
1
1
1.47165
1
1.46864
0.663816
1
0.64258
1
1
1
0.996848
0.661894
0.999028
1
1
1
1.06091
1
1
0.869829
1
1
1
1
1
1
1
0.999997
0.935376
0.999999
1
0.997607
1
0.660329
1
1
1
1
1.34886
1
1
1
1
0.641929
1
1
1.44312
1.47156
1
1
1
0.877577
1
1
1
1
1
1
0.951369
1.01336
1.46244
1
1
1
1.47001
0.894058
1
1
1
1.47031
1.47667
1
1.00001
1
1
1
1
1
1
1
0.658972
1
1
1.47041
0.676174
1
1.47004
1
0.65438
1
1
0.655536
1
1
1
1
1
1
1
1.46215
1.47049
1
1
1
1
1.42908
1
1.13933
0.661871
1
1
1
1
1
1
1
1.03518
1
1
1.25241
1
1
1
1.38806
1
1
1
1
0.669199
1
1
0.639137
0.668554
1
1
1.47064
1
0.991373
1
1
1
1.32187
0.641135
1
0.637611
1
0.768402
1
1
1
1.47367
1
1
1.47109
1
1
1
1.47116
1
1
1.47154
1
1
0.627623
1
1.13636
1
1
1.47293
1.47144
1.30893
1.41899
1
0.63611
1
1
1.44945
1
0.666906
1
1
1
1.47255
1
1
1
1
1.27921
1
1.44322
1.47293
0.664094
1
1
0.668321
0.660059
1
1
1
1.32675
1.35443
1
1
1
1
1
1
1
1.19862
1.46941
1.01164
1
1.46953
0.6735
1
1
1
1.25429
1
1.09064
1
1.42861
1.46962
1
0.647987
1
1.47072
1
1
1.4705
1.44128
1
1.47551
1
0.625277
1
1
1
1.46677
1.46201
1.41234
1
1.47364
1.47109
1
1.47337
1
1.46942
1
0.693822
0.968327
0.665774
1
1
1
1
1
1.47225
1
1.47147
1
1
1
1.44756
1
0.659729
1.47103
1
0.677088
0.671289
0.659308
1
1.22222
1.03428
1.47317
1.47081
1
0.999999
1
1
1.47156
1
1
1.4716
1.47129
1
1.15788
0.999672
1
0.996864
1.4695
0.84952
1
0.829765
0.65868
0.656221
0.906356
1.47458
1.46463
1.09321
1.47187
1.47105
1
1
1.4736
1.47167
1.47104
1.47018
1
1.47207
0.675921
1.46919
1.47233
1.47013
1.47695
0.86741
0.892915
0.92801
1.47137
0.960875
1.47211
1
1
1.47331
1.47078
1
0.679364
1.47188
1.47144
1
1.47035
1.47156
1
1.47104
0.65714
1.47196
1.47125
1.47151
1.4767
1
1
1
1.47123
1.30205
0.660666
1.47121
0.654111
1.47125
1
1
1
1
1.4687
1.47177
1
1
1.47177
0.651927
1.47268
0.657104
1
1.46846
1
0.66171
1.47408
0.720029
1
1.47087
1.475
1.47347
1
1
1.2288
1.47387
0.661952
1.47128
1
1.47195
0.876406
1.47318
0.653152
1
1.46937
0.69434
1.4734
0.655485
1
1.47274
1
1.46736
1
1.26525
1.45295
1.36666
0.618741
1
1.47076
1
1.47221
1
1.47172
1
1
1.47108
0.97665
1.47393
0.648095
1.41498
1
1.33107
1
1.4733
1.47159
1.47331
1
1.42224
1.47234
1.43517
1.28618
1.47004
1
1.30783
1
1.47072
1
1.05949
1
1.43573
1
1.47202
1.44862
1.44827
1
1.46357
0.656188
1
0.651449
1
1
1
1.47356
1
1.47219
1
1
1
1.47303
1.45782
1.40264
1.46968
1.47128
0.647025
1.47453
1.46986
1
1.4125
1.47157
1.46399
1
1.46962
1.47241
1
1.47352
1.4702
1.47141
1.47392
1
1
1
1.47283
0.630563
1
1.47163
1
1
0.654893
1
1
1.47126
1.47025
1
1.47135
1.47414
1.46679
0.974415
1.47164
1
1.47213
1.47182
1.37252
1
1
1
1.47234
1.47097
1.47196
0.935523
1
1.48586
1.47089
1.4694
1
1.47104
1.47165
1.47157
1.48458
1
1.47102
1.46977
1.41579
1.46965
1.48194
1
1.46689
1.46584
1.47193
1.47134
1.47105
0.656824
1.47142
1.46949
1
1.47203
1.47162
1.47122
1.47113
1
1.47199
1.47147
1
1.47134
1.39217
1
1
1
1.4704
1.47442
1
1
1.24824
1
1.4616
1
1
1.4714
1.47583
1.4706
1.47097
1
1
1
1.33372
1
1.47126
1
1
1.474
1.47123
1
1.47161
0.677112
1.47081
1.47365
0.737426
1
0.651658
1.41582
1.47672
1.46976
1.47024
0.628189
1.47134
1.47381
0.626808
0.638129
1
1.47343
1.47258
1
1
1.47141
1
1.47688
1
1.40831
1
1.20817
1.47127
1.47503
1.32693
1.42174
1.47219
1.47297
1.43979
1
0.670832
1.47598
1.47188
1.47736
1.00001
1
1
1.47712
1
1.47144
1.4717
0.739109
1
1.4709
0.999944
1
1.00003
1.00005
1.4724
1.46857
0.998449
1
1
1.47238
1.47363
1.47135
1.47672
1.46972
0.657915
1.41791
1
1.46845
1.47049
1.47184
1.47199
1
1.47143
1.4582
1.47267
1
1.47108
1.4711
0.860009
1.47137
1.47094
1
1.47203
0.827281
1.47048
0.861084
1.47133
1
1.4714
1.47977
1.47156
1.47166
1.47117
1.47773
1.47195
1.46978
1
0.912867
1.47048
1.47135
0.835845
1.47166
0.981157
1.28892
1.47077
1.47222
1.46998
1
1.47415
1.30349
1.46866
0.922895
1.47358
1.47228
1
0.868725
1
1.4742
1
1.3196
1
1.44404
0.880707
1
1.47724
1.46257
1
1.47186
1.47322
1.46086
1.47538
1.47718
1
1.47039
1
1
1
0.903386
1.47156
1.47201
1.47722
1.47161
1.47329
1.47829
1.47264
1.47222
0.907161
1.03137
1
1
1.47485
1.47172
1.47192
1.47132
1.00003
1.23561
1
1.47412
1.42366
1
1
0.762044
1.4718
1
1
0.681973
1.47171
1
1.46903
1.47096
1.47188
1.45239
1.47096
1
0.630929
1.11114
1.47257
1.47127
1
1.4703
1.4713
1.2401
1.01063
1.10162
1
1.46745
1.47205
1
1
0.612696
1
1
1.47152
1.47165
1.4736
1.47241
1.47114
1.46947
1.47212
1.46901
1.47134
1
0.995844
1.47015
1.4726
0.9968
1.47174
1.47136
0.62029
0.665454
1.46837
1.47573
1
1
1.00117
1.47089
1.47317
1.47156
1
1.47157
1
0.859093
1.47739
1.48041
1
1.21146
1.4708
1
1.47125
1
1.4711
1.30037
1.47444
1
1.46993
1.47988
0.614438
1.47168
1
1.46935
1.4694
1
0.633363
1.4747
1.40935
0.997921
1.45646
1.47152
1
0.994562
1.46923
0.998549
1.47139
1
1
1.4713
1
1.4722
1.47159
0.996442
1.37081
1
1.47134
1
1
1
1
1.47113
1
1
1.46588
1
1.47257
1
1.29367
1.46783
1.47151
1
1
0.986013
1
1.47027
1.47169
1.46899
1.47177
1.47206
1.47145
1.47186
1
1.47102
1.46974
1
1.47112
1.47131
1
1.47301
0.925226
1.05849
1.47115
1.47146
1.4718
1
1.47145
1
1.47115
1.47132
1
1.46942
1
1
1
1
1.47166
0.632448
0.99791
1
1.47107
1.47607
1
1.47162
1
1.0052
0.668767
1.47119
0.999606
1
1.47333
0.998392
1.47257
1
0.999769
1
1.47356
1.47162
1.47068
1.47245
0.660729
1.47018
1.46959
1.4698
1.10983
1
1
1.20106
1.47136
0.638192
0.660024
1
1.46993
1.47149
1.46857
1
1
1.46862
1.47081
0.999884
1
1.33596
0.675897
1
1.0824
1.46995
1.4569
0.998254
1.47092
1.48694
1
0.99865
1
1.47467
1.47017
1.18182
1
1.44143
1
1.00163
1.47351
0.670568
1.47049
1.47201
0.996959
0.99991
1.39763
1
0.999683
1
1.47241
1
1.00001
0.674565
1.472
1.00001
1
1
1
1.46673
1.26162
1
1
0.664022
1.47071
1.26374
1
1
1
1.44714
1.45801
1.47237
1
1
1.47802
1
1.47192
1.47085
1
1
1.47357
1.47071
1.45532
1
1
1.47359
1.47383
1
1
1
1.47385
1
1
1
1.47163
1.47653
1.47367
1
1.4669
1.00003
0.732387
1.47106
1.47206
1
1.47215
1.44007
1.47346
1
1
1.47549
1
1.25006
1.46872
1
0.614636
1
1.47311
1
1
1.46917
1
1
1
1.15007
1.46878
0.711722
1.00001
1.47298
1
1
1.47275
1
1.47544
1
1
1.47287
1.4725
1
1.00005
1
1
1
1
1
1
1.47597
1.4718
1
1.46919
0.661387
1.48032
1
1.47014
1.47988
1.47305
1.4716
1.47735
1
1
1.46991
1
1.27635
1.47615
1.47119
1
1.47336
1.464
1
1.41815
1
1.47006
1.29714
1.46925
0.997358
1.45601
1.42125
1.47306
1.47298
1.03721
1.47201
1.47372
1
1.47145
1
1.47177
1
1
1
1
0.99607
1.47106
1.47148
1.38559
1
1.47362
1
1
1
0.627268
1
1.4575
1
1.42713
1.46258
1
1
1
1.42952
1.47366
1
1
1.47171
0.65885
1.0679
1
1.47558
1.47123
1.42863
1.45747
1.47148
1
1.46881
1
1
1
1
1.46997
1.47267
1
1.46007
1.05155
1.4722
1.43737
1
1
1.43931
1
1
0.645751
1.32301
1
1
1.46892
1
1.47445
1.4254
1
1.42731
0.658024
1.47272
1.47016
1.47341
1
0.647409
1
1
1
1.47202
1.39421
1
1.47016
1.47101
1
1.47222
1
1
1
1
1.47137
0.999345
1
1.47351
1
1
1.47181
1.47327
1
1.47183
1.08344
1.00002
1
1.47207
1
1.47208
1
1.01424
1.47125
1
1.47213
1
1
1.13597
1.47017
1
1
1
1
1
0.996585
0.656032
0.65063
1.01993
1
1.01828
1
1.02353
1
1.47128
1
1.29643
1
1.47317
1
1
1
1.47263
1
1.37252
1.4701
1
1.23965
1.47092
1
1
1.47409
1.47003
1
1
1.05157
0.619157
1
1.47355
1
1
1
1
1.07866
1.47131
1
1
1
0.655645
1
1.47279
1.47049
1.48249
1
1
1
1
1.23098
1.48053
1
1
1
1.47149
1.46966
1.05248
1
1
1
1.47433
1.46844
1
0.615674
1.47097
1.47044
1.4725
1.46789
1.47624
1
1
1.47286
1.46911
1.47154
0.645108
1.04128
1.47085
1
1
1
1
1
1.47088
0.657939
1
1
1.47161
1.21021
1
1.47031
1
1
1
0.652887
1
1
1.12007
1.47077
1.47157
1
1.47634
1.47897
1
1.07378
1
1.47266
1
1.46691
0.662664
1
1
1
1
1.47255
1.00007
1
1
1
1.4533
1
1
1
1
1.47051
0.651947
1.36906
1.47558
1
1.4724
1
1
1
0.997125
1
1.47347
1
0.808632
1
1
1.00003
1.47219
0.669529
1
1.46945
1
1.47333
1.46409
0.665304
1
1
1.44675
1
1
0.61101
1
1.46815
1
1.44808
0.99936
1.47312
1
1
1
1
1.46964
1
1
1.46772
1
1
1
1
1
1
1
1
1.30851
1
1.1513
1.4697
1
1
1
0.65079
1
1
1
1
1.47108
1.47172
1.05613
1
1
1.47278
1
1
1.47007
1
1.00002
1
1
1
1.00001
1.47034
0.787253
1.47145
1.47315
0.996794
1
1
1
1.27268
1
1
1.47334
1.47193
1
1
1
1
0.677754
1
1
1
1.29433
1
1.47273
1.47383
1
1.47274
1
1
1
1.2482
1
1.47169
1
1.47001
1
1
0.996298
1.47296
1
1
1
1
1
1.47574
1.00002
1
0.648645
1.47299
0.6245
1
1.47183
1
0.996255
1
1.47208
1.4709
1
1.47836
0.876211
1.47177
1.47782
1.00003
1
1
0.662235
1
1
1
1.47097
1.27023
1.47686
1
1
1
1
0.996901
1.47379
1
0.666544
1
1
1
1
1
1
1
1.47708
1.46998
1.47156
1
1
0.99695
1
0.982925
1
1
1
0.658563
0.971717
1
0.66081
0.652079
1
1.47326
1.47195
1
1.47522
1.47145
0.663029
1.30649
1
1
1
0.66732
1.4704
1
0.662787
1
1.47936
1.07312
1
1
1
1
1.46624
1.47096
1
1
1.47221
1
1
1.47119
1.47058
1
1.42379
1.47287
1.47059
0.9644
1.47003
1.0083
0.662287
1.35837
1.47286
1
1
1
0.696727
1
0.65715
1.46855
0.962916
1.46805
0.94119
1
1.47476
1.21473
1
1
1.47127
1
1.18952
1.46894
1
1
1.46844
1.4585
0.657536
1.27929
0.999892
1
1.27579
1
1.47504
0.944492
1.47131
1.47742
1
1
1
1
1.46833
1
1
1.47057
0.999645
1.47126
1.37518
1.4622
0.657834
1
1
1
1
1.4712
1.00004
1.47231
1
1.47045
1.47396
1.05798
1.46771
1.14132
1.4722
1
1.31914
0.679358
1.46344
1.47112
1.36735
1.07256
1.47036
1.47384
1.47203
1.46989
1
0.916909
1.06896
1
1.47267
1.22242
1.47215
1.00003
1
1
0.673327
1.46196
1.47008
1.38361
1
1.18168
1
1.48671
1.47742
1
1.47348
1.47023
1
1
1
1.47359
1
1.18102
1.48069
1.32023
1
1.47077
1
1
1
1
1
1
1
1
1
1
0.679487
1
1.44426
0.667906
1.27189
0.998535
1.46541
1
1.23702
1.00001
1.29587
1.39574
1
1.00179
1.47435
0.910937
1
1.47548
1.46498
0.945668
1
1.47198
1.47089
1.47265
1
1.47093
1.46921
1.47078
1
1.21224
1
1.00006
1.47149
1
1.47083
1.06832
1.47367
1
1
1.476
1.48587
0.65899
1
1.4715
1.35071
1.47069
1
1
1.47057
1.47202
0.99828
1
1.42884
0.997039
1.47265
1.00006
1
1
1
1
1.21218
1
1.37436
1.47051
1.34638
1.46844
1
1.00317
1
1
1.47072
1
1.47179
1
1
1
1
0.999999
1
1.05604
1.2357
1
1
0.663504
1
1.46828
0.708094
1.47423
1
1.2405
0.999748
1.47097
1.29856
0.652354
1.24983
1.00003
1.47131
1.47043
1
1.27738
1.4676
1.47032
0.998366
1.48047
1.4676
0.658846
1
1
0.997887
1
1.46956
1
0.6682
1.46854
1
1
1.40664
1
1.4711
1
1.47145
1
0.686196
1
1
1.47338
1.47455
1.47345
1
1.46375
1.4719
1.47376
1
1
1.46312
0.999999
0.742055
1
1
1
1.473
1
1.47156
1.30513
1.46319
1
1.47381
0.999395
1
1
1
1
1
1
0.723263
1
1
1.47089
1
1.47736
1.4602
1
0.655807
0.661087
1
1.47347
1.07618
0.657779
0.63006
1
1.47295
1
1.46861
0.656247
1.00119
1
1
0.999513
1
1
1
0.999915
1.18961
1.47258
1
1
1.47193
1.27791
1
1.42078
1.48141
1.47271
1.19085
1.46363
1
1.48077
1
1.47399
1
1.46651
1.47213
0.996944
1.46928
1.48172
1
1
1
1
1
0.914242
1.47091
1.00004
1.00003
0.670425
0.99999
0.618758
0.658358
1
1.47031
1.46998
1.47187
1
1.47161
1
0.661032
1
1
1.47203
0.839058
1.4699
1
1.47198
1
0.981885
1.47189
1
1
1
1.46847
1
1.47011
0.65839
1
1
1.27142
1
1
1.24747
1
1
1.47295
1
1
1
1
1
1.46522
1.47098
1
1.47063
1.4722
0.655125
1.21534
1.4709
1
1
1.42323
0.998936
1
1
1.47217
1.47457
1.29529
1
1.47172
0.661859
1.41573
0.999425
1
1.47019
1.00003
1.47067
1.40621
1.35446
1
1
1.47124
0.737055
0.678091
1
1.47145
1
1.47385
1
1.27782
1
1
1.47009
1.30019
0.665866
1
0.998384
1
1
1.02581
1.18794
1.47163
1
1.47772
1
1
1
1
1
1
1.06792
0.658782
1
1
1.03318
1
1
1
1
1
1.47423
1
1
1.47164
1.47081
1.3409
1
1
1
0.834558
1.47148
1.32101
1
1
1
1
1.47069
1
1
1
1.47381
1
1
1.33728
1.49236
1.03489
0.761033
1.47641
1.32776
1.47334
1
1.23159
1
1
1
0.672873
1.00314
0.688667
1
0.690353
0.640451
1
0.653721
1
1
1
1.20584
1
1.47244
1.47434
1.00071
1.21518
1.39553
0.681799
0.783624
0.869012
1
1.47344
1.47096
1.47411
1.47234
1.40052
0.873657
1
1.40326
1
1.44983
1
1
0.996519
1.00961
1
1
1
1.47021
1
0.660588
1
1.47258
0.650776
1
1
1.4723
1
1.47113
0.999465
1
1
1.47243
1.42395
1
1.47793
1
1
1.01439
1
1.20587
1
1
0.655109
1
1
1.47737
0.999999
1.472
1
1.00003
0.645177
1
1
0.6679
1.00089
1
1.47298
0.613081
1.48057
0.672482
1.47116
1
1
1
1
1
1
1
1
1
1
1
1.45141
1
1.47274
1.47091
0.658828
1
1
1
1
1
1
1.45705
1
1
0.663496
1
1
1.47268
1
1
1.17714
1.3931
0.657372
0.640904
0.730995
0.748852
1
0.996631
0.686773
1.00026
1.44181
0.996849
1
1
1.46971
1
1
1
0.762529
1.00001
1.16668
1
1
1.18951
1.47214
1
0.694799
1
1
1
0.996547
1
1.47218
1.47166
1
0.67248
1
1.24857
0.658898
1
0.867933
1
0.996682
0.641195
1
1
1
0.9959
0.683737
1
0.696968
0.998447
1.24071
1.41419
0.664565
0.663217
1
0.990255
1
0.998641
1
1.47165
1.4725
1
1.01162
1.47043
1.4727
1
1
1.47158
1
1
1.00004
1
1.47995
1
1
1.01865
1
0.998567
0.730398
1
1
1
1
1
1.46768
1.03472
1.00005
1
1
1
1
1
1.00003
1
0.659668
1.09688
0.998638
1.47727
1.47134
1
1.01442
1.47111
1.4043
1
1
0.676314
1.46857
1
1.47095
1
1.47384
1.32053
0.655551
1
0.658586
1.42289
0.999696
1
0.656768
0.679854
1
1
1.39306
1
0.999998
0.648338
1
1
1
1.14977
1
0.658933
1.47029
1
1
1
1
1.47326
1
1
1.48161
1.4202
1
1
1
1.47639
0.657865
1
1.47073
1.47203
1
1.37454
0.999999
1.00003
1
1
1.43536
1.01402
1
0.651157
1.25084
1
1
0.997291
1
1
1.46024
1
1
1.00003
1
1.47084
1
1
1
1
1
1
1.00001
1.20587
1
1.47448
1
1
1.47348
1
1
1
1.47355
1.47299
1.04383
1
0.997642
1
1
1
1
1.4709
1
1
1.47156
0.659974
1
1
1
1
1
1
1.37887
1
1
1.47535
1.47322
1
1
1
1.47097
1.47089
1
0.999702
1.47365
1
1
1
1.00002
0.674469
1.02887
0.99633
0.99577
1
1
0.687285
1.47327
1
0.674415
1
1.47418
1.45215
0.659389
0.999397
1.47166
1.47121
1.47225
1
1
0.92298
1.41483
1.39484
0.682139
1
1
1
1.48158
1.47163
0.648987
0.997264
1
1.47191
0.647255
1
1.45171
0.659843
0.976257
1.00639
1
1.45824
1
1
1
1
1
1
1.00011
1.43891
1
1
1.47012
1
1
1
1.47082
1
0.655973
1
1
1
1.16124
1
1
1
1
1
0.786903
1
0.653642
1
1.47096
1.00007
0.866964
0.869127
1.00002
1.00414
1.23633
1
1
0.661169
1.47044
1.47087
1.471
1
0.651838
0.653975
1
1.47108
1
1
1
1
1
1.00003
1
0.663965
1.3033
1
1
0.64951
0.981821
1.00001
1
1
1
0.642639
1
0.703021
1
1
1.47874
1
1
0.66248
1
1.47189
1
0.686658
1
0.657213
1
1.00797
1.46763
1.4781
1
1
1.47354
1
1
1.10168
0.996893
1
0.998255
1
1.47431
1
0.672788
1.00002
1.46996
0.998874
1
1
0.774449
1
0.999038
0.661151
1.47111
1.1585
1
1.00001
0.909443
1
1
1
0.774515
1
1
1
1.47131
1
0.657619
0.999999
1
1
1
0.642278
1.47131
1.42812
0.659681
1
1.47911
1
1
1.47294
1.47219
1.39523
0.656062
0.997765
0.999278
1
1.47126
1
1
1
1
1.47362
1.00004
1
1
1.46753
1
1
1.47051
0.645122
1
1
1
0.652842
1
0.999999
0.999999
0.998609
1
1
1
1
1.37041
1
1.47094
1.4707
1.47882
1.47214
1.46959
1.47171
1
1.47309
1
1.47123
1.47793
1
0.998853
0.666157
1.40128
0.999904
1
1
1
1
1.00072
1
1.07508
1
1
1
0.844324
1.47056
1.474
1.47771
1.40597
0.999877
1
1.02312
1.47051
0.997876
1.05756
0.997277
0.660038
1
1.00002
1
1
1
1
1
1.47293
0.655206
1.47337
1.47138
0.995167
0.651882
1
1
1
1.47052
0.647226
1.41517
0.641041
1.47082
1.4787
0.653933
1.4669
1.02373
1
1.47545
0.811776
1
0.998748
0.652601
1
0.632635
1
1.47181
1.46951
0.747233
1
1.47328
0.665005
1
0.66052
1
1.47189
1
1
1.46174
1
0.832425
1
0.999647
0.639299
1.46385
0.999496
1
0.65272
1
1
1
1
1.24921
1
1.47045
1
1
1.48298
1
1
1.47113
1
0.641638
1
0.669678
1.00001
1
1
1
1
1.45124
1.26854
1.47207
1
1.47344
1.43867
0.642816
0.691123
1
1
1.46958
1
0.632133
1
0.983795
1
1
1.47073
1
1.46251
0.660029
1.47469
1
0.674096
1
1
1.47852
1.47295
1
1.00004
1
1.46266
1
1
0.629463
0.999403
0.663094
1
1
1
1.4756
1.47474
1.47111
1
1
0.679234
1
1.48793
1
1
1
1.43362
1.47016
1.47212
0.650067
1.47455
1.47175
0.65867
1.4711
1.00004
0.675554
1.01429
1
1
1.47057
0.649526
1.29549
0.650523
1.47198
0.997292
0.654847
1.47298
1
1
1
1
1.47509
1.47236
0.657837
1
1.00002
0.660122
1.00003
1
0.692512
0.679029
1.32497
1.47455
0.998444
1.47174
1
1.48234
0.820613
0.660989
1.47153
1.48584
1
1.47359
1
1
1.47148
1
1.35773
1.47116
1
1
1
1
1.47001
1.46732
1.47967
1
1
1.4774
1.47333
1.47296
1
1.46995
1
1
1
1
1
0.656985
0.83842
0.69355
1
1
1.47101
1
1
1.47327
0.656058
1
1.47088
1.46572
1.45296
0.659398
1
0.65633
1
1.00003
1.47089
1.22146
1.47081
1.43045
1
0.673598
1
1.48074
1.3304
0.672828
1
1
1
0.81592
1
1
1.47546
1
0.66929
1.47125
1
1
1
1
1
1.37714
1.10273
1
1.47062
1
1.4767
1
0.997414
1
1.47138
1.47133
1.47366
1.47563
0.999583
1.47091
1
1.47166
1.47364
1.39459
1
1
0.661809
1.47369
1
1
1.47733
1.47345
1.47951
1
1.47201
1
1
1.00003
1.47274
1.47828
1.12697
1.09746
1.47158
1.4738
0.682741
1
1
1
1
1.00001
1.16335
1
1
1.39468
0.669367
0.999971
1
1.47127
0.999912
0.999822
1.06805
1.43189
1.47227
0.898401
1
0.653506
1
1.00311
1.47073
1.47451
1.46275
0.999075
1
1
0.659391
1
1
1.47084
1.04881
1
1
1
1
1
1
1
0.999944
1.47214
1.00002
1
1
1
1
1.29823
1
1.21323
1
1
1.47194
1.47684
0.65236
0.998781
1
1
1
0.658635
1.47097
1.473
1
1
1
1
1
1
1
1
1.47257
1.46482
0.64922
1.04945
0.662538
1
0.655659
1
1.47161
1.1359
1
1
0.694013
1
1.4524
0.821304
0.996365
0.654301
1
1
1.47081
1.00004
0.997014
0.632841
1.47379
1.47456
1
1
1
1
1.43959
1
1
1.47182
0.999011
1.47291
1.00004
1
1
0.629198
1
1
1.47076
0.653963
0.793187
0.665423
1.47157
0.999314
1
1.4833
0.676976
0.681359
1.01544
1
1
1.47197
1.00004
1.20814
1
1
1.47068
0.654222
1
1
1.00014
1.4721
1.00015
1.45118
1
1.00003
1
1
0.728397
1
0.805171
1.00002
1
1.47661
0.63568
1
0.765662
0.790079
1
1
1.47151
1
1
1
1.47029
1.47372
1.00006
1.45843
1.47272
0.787777
1.47152
1.44939
1
1
1.46793
0.999999
1
1
1
1
1.47758
1.47047
1
1
1
1.47151
1.00023
1
0.660808
0.741826
1
1.00003
1.17335
1
1
0.898356
0.655041
1
1
1
1.47646
1.4314
1.47196
1
1
1
1
0.637712
1
1.46014
1
1.46711
0.638032
1.47578
1
1
1
0.674849
1
1.47357
1.00003
1
0.678571
1.16783
1
0.999677
1.47553
0.6481
0.692209
1
1.4726
0.654671
0.659001
1
0.670947
1
1
1
1
0.654093
1
1
1
1
1.4714
1
1.35868
0.651998
1
1
1
0.654619
1.47169
1
1
0.996708
1.46248
1
1.47163
1.47224
1
1
0.733543
0.681963
1
1
0.668453
1.13786
1.21238
1
1
1.4712
0.997373
1
0.997872
1.47045
1
1
1
1
1
1
1.47025
1
1.16637
1.14893
0.686444
1.41901
1
1.47435
1.4723
1
1
1
0.906598
0.6373
1
1.22332
0.999682
1.43277
1
1
1
0.999999
1
1.0084
1.2065
1.47643
1.47224
1
1.47271
1
0.646768
1
0.997396
0.999776
1
0.640207
1
0.642331
1.00002
1.47563
1.47254
0.67068
1.47756
0.671912
0.996147
1.36967
0.633858
1.34263
1
1
0.998423
1
1
1
1.00007
1
0.614818
1
1
1
1
0.999593
1.47219
0.78578
1
1
1
1.03836
1
1
1
1.27609
0.764234
1
1
1
1.05283
1.47339
1
0.648751
1
1.47419
0.896848
0.689319
1
0.6593
1
1
1.44501
0.998273
1.42144
1
1.0088
1
1
1.47275
1
1
1
1
1.09447
1
1.47126
1.47869
1.47127
0.64535
1.47266
0.997071
1.38544
1
1
0.645248
1
1
0.671543
1.47508
1
1
0.999952
1
1
1
0.634953
0.648431
1
1.46874
1
1.21546
1.47139
0.658499
1.38369
1
1
0.70605
1
1
1.47143
1.47396
1.16469
1
1
1.00209
1.47039
0.644426
0.654723
1.47278
1.47146
1.32324
1.18078
1
0.89344
1
1
1
1.43864
1.47067
1.46886
1
1
1.47272
0.697513
1.42073
0.635593
1
0.658703
1
0.652487
1.47166
0.647194
1
0.97264
0.703002
1
1
1
0.822242
1.43537
1.46986
1.47149
1.47071
1
1
1.47219
1
1
1.47043
1
0.662899
1
0.634978
1
1.47171
1
1
1.02261
1.358
1
0.999033
0.681945
1.47107
1.00001
0.652059
1.08889
1
1
1.35446
1.47232
1.47193
1
1.47289
1.12793
1
1.02376
1.47178
1
1
1
1
1.47151
1
0.667769
1.47027
0.665631
0.649299
0.82976
1.47175
1.16262
1.4824
1
1.46841
0.997499
1.00003
1.47198
1.47392
1
1.47214
1
1.46929
1
1.47087
1
1.00004
0.99997
1.47301
0.652119
0.665581
0.997931
0.999999
1
1
0.633889
1
1.30769
1
0.653366
1
1.18813
1.47134
1.47752
1
1
1.00003
0.999442
1
1.47109
1.47183
1
1.19529
1.47193
0.847696
1.4728
1.00055
0.668123
1.09911
0.658993
1
1
1.07749
1.4718
1
1
1.03783
0.998533
1
0.666038
1
0.791413
1
1.47014
1
1
0.649266
1.10364
1.06311
0.998499
1.47035
1.47125
0.777478
0.998068
0.653857
0.663879
0.65724
1
1
1
0.999088
0.721646
0.647468
1
1.47199
0.999756
1.47159
1.47047
1.47181
1.47429
1
0.635865
1.47073
0.676575
1
1.47373
1.47942
0.996537
0.820886
1.47343
1.32879
1
0.665142
1
1
1.47537
1
1.02785
1.47233
1
0.680711
0.631831
1
1
0.663967
0.627599
1.47013
1.00004
1
0.651816
0.67732
1.47884
1.44902
1.43843
1.46973
1.13219
0.980007
1.1904
1.47043
1.37789
1
1.23063
1
0.608942
0.849638
1
0.643996
1.4716
1.02297
1.47286
1
1.47113
1.47169
1
1.47282
1.47191
0.658653
1.47414
1
1.47352
1
0.740327
0.657988
1.47131
1
1
1
0.656682
1.47037
1.47318
1
0.658713
1
1
0.63218
1.00005
0.639738
1.47089
1
0.803227
0.649814
1
1
1.26577
1
1
1
1.07866
0.657233
1
1.00001
1
1.47617
0.6617
1
1.47255
0.650519
0.650977
1
1
1.46794
1
1.47774
1.00001
1.47179
0.657491
1
1
0.671282
0.801869
0.641209
1
1
1
1
1.47848
0.656183
1
0.658093
1
1.47793
1
1
0.924123
1
1
0.80216
0.999695
1.00005
1
0.66544
0.664489
1
1
1
1
0.781039
1.47082
1.47109
1
0.655279
0.642148
0.887669
0.658252
1
0.83141
1
0.62842
0.978247
1
1
0.65462
1
1.46796
1.45766
0.654087
1
1
1
1.47242
1
1.04683
0.827834
1.14547
0.652224
1.18387
0.663204
1
1
0.691278
0.903707
1
1.0419
1
1
0.657684
1
0.938075
1.04527
0.658193
1
1.37762
0.727399
0.87928
1
1
1
0.662531
1
0.654718
0.670917
1
0.867062
0.656968
1.06518
0.729166
0.62601
1.47197
1
1.47242
1.25639
0.73501
1.47174
0.662853
0.999052
1.47233
0.999999
1
1.47074
1
0.732893
1
1.06351
1
1
1.47152
1
0.786664
0.816567
1.47064
0.936233
1
0.779668
1.47216
1.47067
0.906169
1
1.471
1.1211
0.853066
1
1.01122
1
0.659985
1.19762
0.752764
0.731726
1
1
0.651172
1.47416
0.958745
0.660933
0.645293
0.844579
1
1.01524
1.47221
1.47138
1
1
0.999999
0.658234
1.21602
0.999996
1.46509
1.42338
0.668865
1.00001
1.0977
0.87946
1.28449
1.42425
1
1.0384
1
1.00005
0.673102
0.846173
1
1
0.812952
0.668253
1.03974
1
1.00002
0.634765
1.21298
1
1.45528
1
1.03479
1.26303
1
1.45969
1
1
1.4708
1
0.649532
1.47246
0.683992
1.12309
1
0.65223
0.999918
1
1.00003
1
0.799626
1.02622
0.654042
1.34563
1.4711
0.629553
1
1
1
1
1
0.965496
0.664937
1.05251
0.658998
0.649679
1.07101
1
0.999799
1.1141
1
1
0.645752
0.993623
1
1
1.13157
1
1.47143
1
1.47284
1.09442
1.02651
0.658011
1
1
0.650176
1
1
1
1
1.48142
1.04334
0.998024
1
0.642242
1.05295
0.999999
1
1.30669
1
0.694897
1.46802
1
1.00001
1
1.46981
0.685053
0.867138
0.679993
1.35269
1.47579
1
1
1.47147
1
0.660039
1
1
1
1
1
0.782213
1
1.4694
1
1
1.15567
1.47164
0.651678
0.861336
1
1.47149
1
1
1
1
1
1.47167
1.47273
0.617257
1.47112
0.640845
1
1
1.47174
1
1.47405
1.00686
1.02695
1.05964
1.47086
1.07455
1.32036
0.647145
1
0.645289
0.990739
1
1.47197
1
1
0.648646
1.47515
1
1.47175
1
1
1
1
1
1.00001
0.672124
1.47073
0.851066
1.47166
1
0.667717
0.652322
0.712111
1.46862
1.47257
0.96855
1
0.802326
1
1.1848
1
1.46824
0.650169
0.666527
0.859697
1
1.47233
1
1.07023
0.666336
1
1.47164
1.4002
0.998828
1
1.47192
0.656348
1.47027
1.47216
1.47759
0.654776
1.0945
1
1
0.647908
1
0.81924
0.841745
1
1.00002
1.47058
1
1.4791
1.08077
1
1.04134
1.47911
1
0.675044
1
0.774729
1
1
1.38931
1
0.799673
1
0.656196
1.03769
0.935383
0.678776
1.47191
1.38134
1.47119
0.657506
0.702993
0.995655
0.999999
1
0.673452
1.44361
0.659052
0.999969
1
1.47131
1.47286
0.905313
1
0.656541
0.693298
1.3113
0.97096
0.650488
0.999999
0.665285
1.11741
0.65204
1
1.00006
0.798901
1.46986
1.47194
0.817512
0.999579
1
1
0.744364
1
0.657302
1
0.642932
0.652997
1
1
1.00003
0.65191
1.47208
1
1
1.00007
1.00004
0.66058
1.47178
1.47075
1
0.654652
1.47128
1
1.0989
1
1
1.47601
0.654201
1
1
0.647618
0.745652
0.653502
0.631679
1
0.677699
0.997097
1.08453
0.65688
1
1
1.13166
1
1.41517
1
1
1.32327
0.665651
1
0.678927
1.13115
1.47142
1
1
0.658657
0.656415
0.648517
0.715489
0.640866
1.3489
0.999409
1
1
1
1
1.47289
0.650901
1
0.934157
0.999687
0.998763
0.999946
0.73455
1.12495
1
1.47199
1.47162
1
1
1.45365
1.00004
0.999999
1.47111
0.652732
1.47051
0.999999
0.649173
1.47177
1.00005
1
0.823037
1
0.65027
1
1.47022
1
1
1.47555
1
1
1.47616
1
1
1
1.46955
1
0.728594
0.70177
1
0.630876
1.47284
1
1
0.972644
1
1.47173
1.26743
1.37547
1
1
0.674082
1
0.631598
1.46953
1.47105
1.47184
1
1.47083
0.65273
1
0.636122
1.3779
1.42742
1.47196
1.47013
0.765663
0.648674
1
1.2983
1.47195
1.47031
1.47126
0.754637
1.16319
1
1.35585
0.735533
1
1.00002
1
1.00002
0.894814
1
1.4731
1
1
1
1
1
1
1.00006
1.46735
1
1.47423
1.34372
0.660502
1.47117
1.02532
1.2298
1
1.47027
1
0.658533
1
1
1
1
1.40207
1
0.642269
1.46808
0.643093
1.4714
1.37601
1.23604
1
1.08854
1.21649
0.995522
0.652134
0.79317
1.00002
0.999999
0.92453
1
0.627602
1.47165
0.627034
0.920053
0.866659
1
1
1
1.01197
1
1
0.618854
0.996314
1.4696
1
1.47149
1
0.653103
1
1
1.4712
1.46978
0.644075
1
1.47193
1
0.825827
0.636213
1.46996
1.42078
1
1.07976
1.47182
0.998642
1
1.19488
1.41155
1.46861
0.99614
1
0.999998
1.39906
1
1
1
1.47196
0.998468
1
1
1.47168
1
1
0.664178
1
1
1
1.47039
1
1
0.864529
1.13839
1.42904
0.771351
1
1.47111
1
1.16386
1
1.46922
0.997193
1.47078
1
0.652993
1
1.31648
1
1
1.43844
1.00001
1.47233
1
1.47678
0.686085
0.659712
1.47051
1
1.39384
1
1.47158
1
1
1.00005
1.47204
1.47419
1.12271
1.47178
0.995954
0.652379
1.47228
0.859682
1
1.46643
1
1.47336
1
1.47391
1.47271
0.996204
0.655717
1
1.47139
1
1.03056
1
1
0.997954
0.745149
1.41872
1
1.41747
1
0.875056
0.649867
1.46942
1.47289
0.714281
1
1.46983
1.46839
1.46909
0.688787
1.47212
0.665394
1.47058
1.47105
1
1
1.47117
1
1
1
1
0.654971
1
1
1.47077
1.47131
1
1.47155
1
1.46882
1.47165
1
1.39287
1
0.634357
1.47027
1.34715
1.12723
0.647164
1.47222
1
1
0.651088
1
1
1.47142
1
1
0.802395
1
1.47184
1.00008
1.47846
0.656215
1.47117
1
1.47185
1.45279
0.899829
1
1.46407
0.768247
1.47061
1.32901
1.47124
1.4752
0.997418
1.47259
1.47233
1.47079
1.47155
1.00026
1
0.663834
1
1.46953
0.825049
1.4303
1
1.4631
1
1
1
1
1
1.46921
0.639707
0.674654
1.47375
1.47126
1
1
1
1
1
1.46784
1.44616
1.47128
1.02067
1
1
1
1.00003
1.47098
1.47153
1
1.46907
1.47157
0.649123
1.32657
1
1.47061
1.47622
1.4727
0.998134
1.472
1.47047
1
1.42377
1
1
1
1
1
1
1.47181
1.47079
1.43767
1.47061
0.649204
0.702199
1.47222
1.47089
1
0.628
0.943099
1
1.21821
0.644571
1
0.999446
0.998245
0.658213
1
1.47152
1
1
1
1.47091
0.938783
1
1.47262
1.47069
1
1.47
1
1
1.47145
1
0.656295
1
1.47421
1
1
0.650464
1
1.47296
1
0.633371
0.689733
1
1.45927
1
0.643591
0.880494
1
1.47143
1
1
1
1.4762
1
0.659583
1.06588
1.4708
1.47467
1.47258
1.0452
1.4735
1.4719
1
1.00002
1
1
1.00001
1.47072
1
0.999299
1.4693
1
0.643087
1
1.47116
1.21633
1.06741
1.21722
1.06694
1.47906
0.7077
1.47131
1
0.658201
0.997093
1.47161
0.920727
1.47075
1.47204
1.46821
1
1.47188
1.4706
1.47127
1
1.00003
1
1
1.47028
1.32792
1
1
0.664285
0.996496
1
1.47131
1
1.47174
1.47114
1.4753
0.904231
1.47156
1.47094
1.00722
1.21928
1.47139
1.47229
1
1.43401
0.841837
1.44324
0.993684
1.47142
1
1.4712
1.4736
1
0.655226
0.931112
0.726384
1
1.07858
0.996772
1.47462
1
1
0.996515
1
1.22103
1.44662
1
1
1.47202
1
1
1.33533
1.46007
1.45219
1.47331
1.47196
1
1.47291
0.756663
1.4714
1
0.997103
0.642139
1
1
0.760623
1
1.14083
1
1.47383
1
1.46284
1.29475
0.655883
1
1
1
1
1
1.47054
1.01124
1
1.46986
1
1.4721
1.4723
0.999999
1
0.959785