/*--------------------------------*- C++ -*----------------------------------*\
  =========                 |
  \\      /  F ield         | OpenFOAM: The Open Source CFD Toolbox
   \\    /   O peration     | Website:  https://openfoam.org
    \\  /    A nd           | Version:  12
     \\/     M anipulation  |
\*---------------------------------------------------------------------------*/
FoamFile
{
    format      ascii;
    class       volScalarField;
    location    "2.3";
    object      T;
}
// * * * * * * * * * * * * * * * * * * * * * * * * * * * * * * * * * * * * * //

dimensions      [0 0 0 1 0 0 0];

internalField   nonuniform List<scalar> 
45568
(
1.42914
1.17786
1.35884
1.2201
1.05176
1.18319
1.24597
1
0.975509
1.26771
0.920188
1.48506
1.29818
1
0.975844
0.781538
1
1
1.10094
1.25586
1
1.3601
1.27746
1
1
1.18724
1
1
0.797796
1.27516
1.07336
1
1
1.22985
1.0524
1.03941
1.05457
1
1.31123
1
1
0.783743
1
1.48378
1
1.595
0.780386
1.52266
1.05428
1
1.40617
1.37531
1
1.28043
0.908713
1.35433
1.46518
1.42433
1.2949
1.06036
1
1.29481
1
1
0.865928
1.10769
1
1.10335
1.03103
1.53638
1.01414
0.883378
1.40821
1.33577
1.46853
1
1
1.20515
1.05947
1
1.39053
1.21044
0.879239
1.40603
1.30081
1.00001
1.45271
1.1564
1.15352
0.97397
1.05155
1
1.0476
1.52934
1
1
1.53465
1.3348
1.11789
1.28289
1.02953
1.30518
1.13472
1
1
1
1
1.35741
1
1.51855
1
0.99233
1.07037
1
1.52332
1
1
1.13718
1.45906
1.31362
1
1.36421
1.35424
1.35734
1
1.36439
1.44503
1.14987
1.39441
1
1.46358
1.47879
1.44162
1
0.782382
1
1
1
1.30251
1.30957
1
1.26103
1.29628
1
0.760991
1
1
1
1
1
1.21925
1
0.818227
1.12212
0.808157
1
1
1.11359
0.774113
0.867078
0.767868
1
1.39449
0.786769
0.903122
0.978698
1.03928
1
0.882325
1
0.781819
1
1.17434
1
1.46736
0.775926
0.770376
1.14513
1.45135
1.47205
1.46578
1.2842
0.78285
0.778675
1.19081
1.0305
1
1
1.04616
0.785321
0.783723
1.24744
1.04462
1.1868
1.33747
1.02929
0.78429
1.05188
0.77542
0.781862
1.10851
1.21183
1.35974
1.65545
1.59816
1.3947
1.03772
1.25938
1.07731
1.43262
1.11086
1
1.12407
1
1.36074
0.782876
0.779948
1
1.32208
1.36458
1.29692
1.04752
1.04644
1.22827
1.46053
1.09065
0.782063
0.779642
1
1.05266
0.957534
1.30233
0.827724
1.46927
1.24501
0.921344
0.981905
1.16304
1
0.898256
0.758546
1.16577
1.46093
1.00001
1.17391
1.11055
1.36184
1.17661
1.12737
1.11334
1
1.12828
1.12733
1.44915
0.781222
1.14821
0.780778
0.778462
0.778406
1.13255
1
1.14913
1.21563
1
1.43164
1.149
1.21024
1.23322
1.42308
0.782171
1.18056
0.779773
1
1.44938
1.66086
1.08968
1
1.22582
1
1
1
1.67155
1
0.901858
1.46951
1.32091
1.13276
1.1105
1.24482
1.13522
1.10863
1.4675
1.4654
1.26049
1
1
1.42311
1.31723
1.23165
1.0669
1.1739
1.09096
1
1.36303
1.24805
1.07441
1.11971
1.46883
1
1.28011
1.36073
1
1.38436
0.972094
0.9787
1.34344
1.30206
1.17551
0.847338
1.23633
1.35922
0.908188
1.35886
1
1
1.25799
1.0529
1.27064
1.27337
1
1
0.828865
0.849536
1.21975
1
1.38885
1.79272
1.03479
1.44872
1.45885
1.67436
1.14008
1.36041
1.22128
1
1
1
1.03665
1
1
1.07854
1.31413
1
0.936066
1.28368
1.38196
1
1
1.29924
1.39072
1.68484
0.930788
1.2193
1.09613
1.08426
1.08742
1
1.33497
1.08177
1.49001
1.44546
1.39137
0.926307
1
1.08409
1.11332
1
1.36577
1.3858
1.00282
0.916295
0.915487
1
1.41918
0.783524
1
1.07364
1.09484
1
1.2039
1.31996
1
0.954715
1
0.790031
1
1.53492
1
1
1.15433
1
1
1.07586
1
1
0.892018
1
1
1.24611
1
1
1
0.894333
1
0.974371
1.25985
1
1.37337
1.28479
1.47655
1.04265
1
1
1
0.969441
1
1.33752
1.32455
0.915979
1
1.13307
1
1
1
1
1.09198
1.06937
1
1
1.27546
0.784963
1.28047
1
1.33432
1.18627
1.03849
1
1
1.49262
1.30343
1.15359
1.23928
0.999997
1.0022
1.17672
1
1.09474
1.45851
1.25462
1.31327
1
1
0.931681
1
1
0.920986
1.38328
0.928824
0.791138
0.783469
1.09823
1.22884
1
0.734838
1
1.44806
1.37978
1.44481
1.45336
1.24701
1.38646
0.953903
1.00263
1.04268
1
1.37132
1.30609
1
1.07225
1.45094
1
1
1.09285
1
0.771472
1.23639
0.766384
1
1.31078
1.35227
1
1.22301
1.12976
1
1
1.24555
1.36536
1.40246
1.25435
1
1.24361
1.09828
1.03041
1
0.852031
1
1
0.797717
1
1
1
1
1.12336
1.25356
0.935442
1
1
0.998481
1.14084
1
1
1.35863
1.25143
1.34821
1.08274
1
1.16559
0.78713
1
1.1868
1
1.37501
1
1.07599
1.32765
1
1
0.941119
1.15092
1
1
1
0.785753
0.784582
1
1.69124
1
1
1.10008
1
1.36476
0.788082
1.09433
1.21187
1.25126
1
1
1.28972
1
1
1
1.0124
0.975994
1
1.29846
1.13281
0.952942
1.48424
1
0.759746
1.04466
1.29881
0.739807
1.12243
1.14238
1.27225
1.5048
1.04941
0.989394
1.05274
1.07025
1
1.43508
1.14367
1
1.43
1.07705
1.16652
1.03103
0.908888
0.781834
0.93542
1
1
1.34584
0.781803
0.779233
1.40618
1.05881
1.47066
1
1.23317
1
0.961364
1.03808
1.10251
1.41939
1.10874
1.09015
1
1.05917
1
1.59346
1.36972
1.02729
1.53687
0.780902
1
1.17817
0.917429
1
1.33868
1.14084
1.28793
0.964048
1.35914
0.883463
1.25689
1
1.30784
1.69028
1.1137
1.08216
0.782688
1
1.62657
1
1.37241
1
1
0.948732
0.886008
1.40658
1
1.09827
1.14915
1.70211
1.38676
1.21835
1.33658
0.935266
1.09539
1.19433
1.19255
1.08452
1.69916
1.30489
1.09952
0.999999
1.08195
1
1.07419
1.01635
1.41455
1.21216
1.45508
0.995026
1
1.63054
1
1.07105
1.03203
1.05599
1.17323
1.0029
1.18555
1
1
1.38322
1.20416
0.782005
1.32816
0.909175
1
1.4234
0.77964
1.18409
1.13418
1.13093
1.14712
1.49803
1
1
1
1.2318
1
1.2533
1
1
1
1.00001
0.909001
1.19864
1.1349
1
1
0.982404
1.19376
1.00188
1.0023
1.33805
1.25751
1.13945
0.902187
0.895791
1.49457
1.38595
0.998263
1.27075
1
1
1.05523
0.916205
1.27215
1.1681
1.04523
1.04994
1.16571
1.45733
1.36509
1.34857
1.17474
1.14826
0.905013
1.09176
1
1.05047
1.18328
1.46164
1.18512
0.999993
1.34986
1.09897
1.38996
1
1.3745
1.37071
1
1.0605
1.10918
1
1.26096
1.1744
1.51066
1.05935
1
1
1.07735
0.935401
1.31291
1.13092
1.1687
1.16267
1.23179
1.3588
1.34802
1.0155
0.7609
0.982358
1.22659
1.16589
1.04937
1.08987
1.05075
1.30449
1.18243
1.06295
1.28652
1.37294
1.32319
1.12579
1.59055
1.18037
1.09872
1.06163
1.4069
1.04847
0.900774
1.04613
1.14257
1.35012
1.4603
0.857088
1.3749
0.871197
1.42906
0.884285
1.24884
1.37192
1.0577
0.924447
1.15615
1.13016
1.08392
1
0.991488
1
1.04355
1.14642
0.9144
1
1.21085
1
1.6681
1.05997
1.35262
1.44349
1.36137
1.18831
1.17437
1.40912
1.20341
1.34801
1.13354
1
1.09509
1
1.36484
1
1
0.891852
1.17349
1.34408
1.3879
1.06371
1.18158
1.19344
1.04982
1.34008
1.40035
1.14771
1
1.33178
1.38921
1.12968
0.956175
0.958096
1
0.771138
1.24698
0.777998
1.36256
1.15849
1
1.11079
1.18338
0.88012
1.20193
1
1.11454
1.09684
1.14675
1.20611
1.23199
1.12038
1.05825
1.44968
1.25326
1.2333
1.22371
1.03574
1.35527
1.09174
1.14245
1.27119
1.13832
1.44031
1.39377
1
1
1.40478
1
1.04658
1.34545
1.00001
1.11178
0.766724
1.18893
1.08389
0.772007
1.23575
1.37119
1.12377
1.44286
1.6745
1.11436
1.11735
1.12652
1
0.964277
1.18403
1.11571
1.37747
1.0837
1.08857
1.11024
1
1.10901
1.37266
0.934215
1.03577
0.980037
1.09604
0.961733
1
1.03274
1.09432
0.899248
1.00772
1.06278
0.77528
0.77898
0.977578
1.11617
1.25695
0.954528
1
1.09181
1.32028
0.978469
1.32803
1
1.17128
0.9602
0.771228
1.18052
1.11276
1.34152
1
1
1.20239
1
1.0388
1.27881
1.13335
0.781233
0.783753
0.989367
1.35297
1
0.735278
1.07236
1.34596
0.960177
1.11871
1.0451
1
1.07069
0.994493
1.08232
1.01623
1
1.022
0.994246
0.7584
1.01867
1.37219
1
1.18889
0.999999
1
1
0.997967
1.377
1.18784
1
1
1.21035
1.04129
1.037
1.33801
1.33411
1.31659
1.15189
1.15134
0.788386
1
1
1.08016
1.20503
0.783443
0.785482
1.11549
1.30708
1.09266
1.29768
1.05515
1
1
1.30727
1
0.763539
1.14337
1
0.953017
1.30042
1
1.17729
1.21998
1.16916
1.17153
0.969574
1
1.63053
0.784229
1.40339
0.958027
1.31745
1
1.02707
1
1
0.950781
0.955321
1.58163
1.37269
1.21776
1
1.20918
1.11043
1.10565
1.07294
0.780973
0.785861
1.24611
1.13127
0.783346
1.2227
0.997629
1.21781
0.777777
1.13903
1.07237
1
1.04537
1.31565
1.09548
1.10992
1.28355
1.10403
1.10083
0.779258
0.986439
1.14464
1.00824
1.37989
1.06803
1.09232
1.11369
0.938832
0.781785
1.1787
1.06403
1
1
1.17118
1.26111
1.18762
1
1.08154
1.18028
1.38544
1.4259
1.29978
1.28396
1
1.14217
0.987083
1.13207
1.26885
1
1.00988
1.1113
0.979873
1.24613
1.24531
1
1.28297
1.04004
1.39813
1.34628
1.03914
1.081
0.920968
1.03079
1.06157
1
0.999996
1.24426
1.10814
1.06183
1.0755
1.2956
1.18465
1.07111
1.31722
1.28767
1.09497
1
1.28175
1.12343
1.07633
1.15115
1.14626
1.05843
1.12217
0.971337
1
0.856493
0.94378
1.3902
1
1.10451
0.779245
1.44088
1.33121
1.21314
1.30423
1.04183
1.07231
1.3259
1.03969
1.33137
1.15288
1.10055
1
1
1.09819
1.39461
1
1.47197
1.33937
1.02692
1.09013
1
1.33904
1.02679
1.05646
1.04055
1.2024
1
1.12638
1
1.34558
1
0.965197
1.13933
1.26682
1.07311
1.13959
0.997826
1
1.03497
1.02307
0.781511
1.35934
1.23497
1.0534
1.49383
1.05059
1
1.07748
0.778912
1.0809
1.32515
1.17863
1.36114
1.29645
1.08538
1.08767
0.781178
0.963993
1
1.223
1.17903
1.09776
1.21446
1.28778
1.09375
0.999976
1.1909
1.16932
1.10525
1.10808
1.23598
1
1.17546
1.12058
1.11977
1.05813
1.3876
1
1.38005
1
1
1.37267
1.17724
0.939836
1.13465
1.13127
1
1
1.28987
1.26059
1.09802
1
1.07581
1.01345
1.01996
1.04115
0.963681
1.04372
1.04791
1.03415
1
0.979403
1.24757
1.35959
0.971688
0.779824
1.2498
0.950758
0.781671
1
1.06979
1.41768
1.05908
1.24799
1.06274
1
1.37332
1
1.25504
1.06165
1.15385
1.2394
1
0.995241
1.15208
1.00538
1.36111
1.14535
0.939224
1.20253
1.24007
1.35912
1
1.15962
1.16206
1.17416
1.17229
1.18132
1.18041
1.09824
0.940368
1
1.19262
1
1.18978
1.33999
1.28333
1.21793
1.29552
0.796203
1.13461
1.27721
1.29185
1.19887
1.19803
1.36122
1.08273
1.11686
0.778757
0.764811
1.20813
1.20553
1.22487
1
1
1.23875
1.05446
1.06542
1.12962
1.25046
1.36042
1.22434
1
1
0.930512
1.14639
1
1
0.90571
1
1.23848
1.23692
1.24861
1.24732
1.16521
1.13052
1.07355
1.36838
1.18242
1.11129
1.28046
1.27227
1.3622
1.18424
1.11197
0.779016
1.17739
1.05364
1
1.02659
1.07311
0.781665
1.34952
0.847841
0.781298
1.2281
1.35991
1
0.995982
1
1.25698
1.12666
1.34979
1.27589
0.944449
0.923831
1.32202
1.08327
1.36127
1.40241
1.35747
1.17792
1.36366
0.774406
1.35998
1.18073
0.937728
1.34824
1.34867
1.09944
1.35833
1.00016
1.23755
1.36132
1.12861
1.23645
1.35881
1.23177
1.4617
0.868417
1.36036
0.934365
1.12499
1.46915
1.11325
1.36035
1.08931
0.999983
1.36267
1.13664
1.21377
1
1.18044
1.13756
1.09611
1.32046
1.24442
1.12741
1.11919
1.06453
1
1.32637
1.02901
1.12633
1.36113
1.35954
1.45348
1.34967
0.954428
1.39473
1.36165
0.936973
1.34466
1.16295
1.40489
1.31771
1.16626
1.16824
1.35803
1
1
1.17414
1.09413
1.08824
1.36787
1.26344
0.88838
1.03916
1.47916
1.10739
1.24564
1.22401
1
1.34984
1.26164
1.3496
1.35014
1.1903
1.59191
1.00168
1.3476
1.13774
1.10581
1.34891
1
1
1.00001
1.3972
1
1
1
1.40331
1
1.21326
1.059
1.05729
1.36891
1.05976
0.945614
1.25419
0.782715
1.0318
1.40164
0.990428
0.988556
1.05713
1.24324
1.31698
1.01859
1.17011
1.15245
1
1.31896
0.98923
1.11532
1.18768
1
1
1.11325
1.18879
1.41266
1.04007
1.26872
0.928355
1.10325
1
1.40115
0.898705
1
1
1.41767
1.20889
0.970836
0.968911
1.09855
1.31581
1.12249
1.06542
1.24456
1
1
1.08997
1.23264
1.00538
1.12564
1
1.13107
0.943385
1.14409
1.42659
1.14904
1.19117
1.43542
1.14393
1.34187
1.24925
1.33968
1.05422
1
1.35568
1.36221
0.999999
1
1.28641
1.3596
0.780985
1.49776
1.09468
1.09422
1.32666
1.20242
1.19474
1.2479
1.26968
1.41968
1.15644
1
1.19949
1.05673
1.35931
1.35575
1.25743
1.35225
1.68244
1.12011
1
1.3581
1.22026
1
1.10067
0.774279
1.18878
1.23688
0.95359
1.23988
1.10094
1.29122
1.34967
0.956192
1.06014
1.36014
1.20922
1.0358
1.03452
0.740677
1
1.34006
1.14801
0.92712
1.08151
1.34858
0.773087
1.69366
1.07495
1.3496
1.10913
1.29583
0.948367
1.34856
0.994872
0.999998
1.23114
1.15369
0.725146
1.06776
1.26708
1.23272
1.12417
1.13431
1
1.15928
1.12004
1.15077
1.34821
1
1.34671
1.06188
1.38433
1.16455
1.28759
0.963088
1.20186
1
1
1.38645
1.04671
1.02403
1.15873
1.25854
1.15614
1.30731
1.43359
1.19866
1
1
1.19925
1.10754
0.900425
1.15927
1.08653
1.37527
1
1.13566
1.33595
1.36993
1.36737
1.13341
1.25001
1.48689
1
1
1.01374
1.05204
1.13789
1
1.17936
0.985369
1
1
1.0001
1.00709
1.1823
1.18861
1.37242
1
1
1.57044
1
1
1.09653
1
1.22583
1.1347
1
1.3468
1.09817
1
1
1
0.961742
1.14474
1.23121
1.32699
1
0.897954
1.33065
1.38579
1.36537
1.00001
1
0.987781
0.957103
1.15006
1.15738
1.47218
1.13075
1.11059
1.15892
0.863756
0.999812
1.29978
1
1.28388
1.36803
0.970868
1.37288
1.34992
1.34981
1.30785
1.34481
1.41931
1.06351
1
1.02524
1.13697
1.30055
1.35154
0.99547
1.16545
1.3629
1.34756
0.798692
1
1.06742
1.22205
0.928864
1.0565
1
1.26514
1.53169
1.05026
1
1.13879
1.07943
1
1.28821
1.00001
0.788006
0.889051
1.05788
1.1117
1.05659
1.30905
1
1.10868
1.05392
1.17246
0.954163
1.37777
1.30943
1.25087
0.968446
1.30976
1.36004
1.14249
0.999306
1.11155
0.99474
1.36211
1
0.749197
1.1311
0.961258
1
1.3028
1.34766
1.11707
1.1152
1.21621
1
1.17834
1.34531
1.40407
1.3604
1.05789
1.19068
1.27798
1.36262
1.08802
1.14729
1.44522
1.43525
1.39517
1.06619
1.36134
1.06555
1.41906
1.34877
1
1
1.36341
0.937887
1.06301
0.921345
0.922285
1
1.3039
1
1.19384
1
1.17353
1
1.3137
1.16439
1.28957
0.870625
1
1
0.993795
1
0.995922
1.21301
0.999419
1.6333
1.27847
1
1.02318
1.34812
1.02624
1
1.09898
1
1.06619
1
0.925666
1.35892
1.36257
1.25384
1.11135
1
1.07583
1.07149
0.999998
1
1.07586
1.09802
1
1.00658
1.34926
1.10601
1.07361
1.2713
1.34945
1.34331
1.05784
1
0.967006
1.12877
1
1.123
1.36182
1.34984
0.969027
1.07177
1.05576
1.36396
1.08947
1.19498
1.04064
1.25506
1.44515
1.45823
0.999999
1.2376
1.35933
1
1.08707
1.10027
1.16004
1.17197
0.929286
1.31709
1.41355
1.30496
0.873808
1.09938
0.930706
1.31037
1.19202
1.03745
1.41706
1.31139
1
1
1.26636
0.960278
1
1.25768
1.42746
1.14802
0.867029
1
0.885059
1
1
1
1.24755
1.21726
1
1.065
1.05448
1.24335
0.976923
1.44087
1.24448
1.3778
0.999991
1.41412
1.17545
1
0.970236
1
1.01759
1.17822
0.979087
1.48581
1.22396
1.37485
0.910282
1.21488
1.20344
1.07401
1.21675
1.21649
1.17593
1.21655
1.20417
1.35125
1.20981
1.05692
1.06579
1
1.37318
1.34522
1.09128
1.06866
1.34684
1.19388
1.20034
1.35176
1.36462
0.937619
1.36895
1
1.14003
1.00001
1.06654
1.04505
1.1956
1.19918
0.780325
1.39166
1.44844
1.35756
1.10117
1
1.08002
1.19184
1.34983
1.43756
1
1.38978
1.35799
1.3856
1.13402
1.68466
1.22475
1
1.35088
1.09083
1.30463
1.23062
1.11969
1.35138
1
1.35224
1
0.926592
1.00002
1
0.936454
1.11148
1
1.38436
1.33156
1.4644
1.41176
1.68237
1.00002
1.16258
1.20741
0.999999
0.866277
0.94464
1.23689
1.20945
1.34984
1.45641
1.36024
1.22064
1.20809
1.00044
0.897971
1.24073
0.935711
1.25742
1.16465
1.51436
1.06426
0.937595
1.15266
1.16895
1.07998
1
1.0007
1.52396
0.98676
1.08652
1.00003
1
1.17757
0.939486
1.15595
1.29538
1.39762
1.05748
1
1.04899
1.30352
0.797502
1.74842
1.0883
1.03992
1.00018
1.17522
1.60788
0.933602
1.16562
1.04086
0.966851
1.16762
1.16804
1.55904
1
1.35889
0.955344
0.960744
1.10459
1.35012
1.44859
1.44077
1
1.25964
1
1
1
1.24179
1
1.13293
1.13715
1.02954
1.21266
0.958487
1.13981
0.94934
1.17454
1
0.943393
0.99655
1
1.00471
1.03847
1
1
1
1.37497
1.54153
1.13241
1.27508
1.13126
1.25616
1.35346
1
1.39571
1
1.27087
1.46213
1.09935
1.35138
1.19091
1.34999
1.10367
1.10079
1.04752
1
1.35029
1
1.39535
1
1
1
0.947098
1.35892
1
1
1.31072
1.22427
0.943002
0.932894
1.25014
1.31745
0.929529
1.04419
1
1.05417
1
1.03133
1.34808
1.03406
0.877937
1.43141
1.25182
1.20243
1.41226
1.1974
0.780277
1.36098
1.36161
1.19481
1.20744
1
1.19779
1.36306
1.61853
0.888239
1.22053
1.00733
1
1.19902
1.6871
1.25532
1.34483
1.37035
1.19858
1.01013
1
1.20586
1
1.35702
1
1.30542
1.24837
1
1.34445
1.1932
1.12307
1.34888
1.30541
1.36224
1
0.993088
1.00078
1.02777
1.25668
1.08835
1.08783
1.35922
1.35813
1.20137
1.24311
1.13387
1.20449
1.36832
1.3611
1
1
1.21713
1
1.35101
1.2433
0.915712
0.851173
1
1
1.21882
0.937724
0.999418
1.15116
1.17274
1.21329
1.0573
0.9198
1.36064
1.37045
1
0.953511
1.1559
1.32646
1.24156
1.11388
1.35947
0.984808
1.04199
1.24285
1.01672
1.36774
0.940331
1.36023
1.29355
1.31169
1.10531
1.35719
1.35914
1
1.35989
1.03579
0.944867
1.33096
1.34807
1.25105
1.24998
1.18908
1.16725
1.24917
1.36716
1.34313
1.34963
0.787348
1.34647
1.20699
0.908027
1.08344
1.07454
0.97329
1.05423
1.46164
0.873918
1
1.1374
1.06778
1.0658
0.904994
1.05752
1.18157
1.18935
1.35774
1.13757
1.23809
1.23558
0.968502
1.1818
1.36267
1
1.0756
0.961284
0.949814
1
1.37155
0.955905
1.07154
1.06804
1.39165
1.37564
1.40219
1.00011
1.08398
1.08121
1.35207
0.97083
1.2839
0.9508
1.36103
1.08927
1.08717
1.36213
1.11308
1.10356
0.89969
0.978181
1.36101
1.1779
0.8798
1.19444
1.36293
1
1
1.09933
1.10232
0.772991
1.36115
0.910002
0.950554
1.59789
1.08546
1.2373
1.23302
1.05679
1.05758
1.36246
1.13517
1.1314
1.39236
0.998021
1.07086
1.29732
1.06356
1.14181
1.08968
1.31902
1.13432
1
0.999998
1
1
1.3993
1.06427
1.09428
1.25321
1
1.30009
1
1.34803
1
1.1279
1.12666
1.34526
1
1.34905
1.39348
0.998011
1.15571
1.08191
1.23024
1.22097
0.862958
0.956327
1.17623
1
1
0.952996
1.14503
0.8984
1
0.989901
0.958475
1.56449
1.12977
1.16294
1.28546
1.0843
1
0.959499
1.122
0.99055
1.46514
1.33869
1.32825
1.33708
1.1196
1.00011
1.17918
1.14769
1.06506
0.972812
1
1.14223
1
1
1.08662
0.969826
1.00451
1.18699
1
1.12351
1.18221
1.13192
1.26437
1
1
1
1.25412
1.06986
1.06085
1.01067
1
0.914041
1.20197
0.900552
1.08724
1.28643
1.21914
0.856938
1.21213
1.10963
1.00167
1.44463
0.9444
1.17932
1.06016
1.1469
0.92122
1.04076
1.27165
1.06617
1.34734
1.16643
1.30058
1.40965
1.00441
1
1.16457
1.34773
1
1.18819
1
1.21807
1.21496
1.04778
1.3406
1
0.960573
1.24105
1.11248
1
0.905352
0.939595
0.889261
0.949437
0.949726
0.999987
1
0.963147
1.01827
0.95496
0.844856
1.39171
1.18874
1.02423
1
1
1.47648
1.19395
1.18571
1.19285
1.25589
1.25171
1.3346
1
1.22386
1.18328
1.10017
0.953172
0.964587
1
1.40625
1
1.30449
0.905676
1
0.995817
1.18164
1.34689
1
1.35148
1.21351
1.17662
1.19866
1.35117
0.999993
1.17644
1.34357
0.996309
1.18258
0.999999
1.22119
1.1114
0.99426
1.15408
1.2363
1
0.909824
1
1
1
1.3491
1
0.912949
0.911241
1.12071
1.2528
1.41269
1.167
0.910296
1.07434
1
1.11918
1.34882
1.34883
0.915325
1.33995
0.916965
1.42788
1.22288
1.34971
1.14223
1.04564
1.1663
1.34883
1.15946
0.999999
1.1329
1.34675
1.47555
0.928978
1.13271
1.13408
1.05936
1
1.19919
1.34869
0.932559
0.930301
1
1
1.31947
1
1.00009
1.04408
1.05517
1
1
1.36287
1.15058
0.946387
1
1.18389
1
1.20068
1.20233
1
1.20323
1.19619
1.15349
0.94599
1.00005
1.334
1.15948
1
1
1.2125
0.997634
1.15129
1
1.14316
1.21705
1.14518
1.01895
1.09238
1.10157
1.08957
1.11633
1.05707
1.39576
1.41662
0.917101
1.05495
1.14155
1.34514
0.949409
1.21486
1.10144
1.09779
1.09671
1.2152
0.907113
1.0714
1.42886
1.00021
1.34985
1.21794
1.36294
0.991756
1.22086
1
1.18677
1.12648
1.25334
1
1.22887
1.37518
0.998459
1.48137
1
1.12085
1.10697
1.1767
1.24063
1.36728
1
1.30912
1.162
1
1.21949
0.97951
1.13743
1.00001
1.2514
1
1.2178
1.13867
1.24011
1.26385
1
0.985833
0.979466
1.33852
1.24151
0.78505
1.42713
1.60197
1.37441
1.34887
1.33555
1
1.00001
1.18557
1.29441
1.25266
1.21537
0.996102
0.994783
1.03222
1.17795
1.34795
1.34735
1.21873
1.00049
1.14259
1.00005
1.34708
1.30797
1.14333
1.00092
1.16752
1.05846
1.08996
1.22413
1.05682
0.997478
1.23973
1.21741
1.71182
1.24698
1.34927
1.20552
1.25612
1.34897
1.14808
1.29582
1.21038
1.18829
1.31683
0.977536
1.50349
1.21701
1.03894
1.2212
1.34729
1.22799
1.21741
0.923614
0.933699
1.43334
0.967488
1.12925
1.09334
0.923467
1.14873
0.99996
1.1792
0.934898
0.909385
1.17747
1.0045
1.14904
1
1.09423
1
1.19478
1
0.991679
1.4902
0.98476
1
0.925958
0.892072
1.04687
0.885781
0.997087
1.10016
1.41323
0.863673
1.0689
1.24833
1.03942
1
1
1.38153
0.889188
1.71509
0.859943
0.963156
1
1
0.987888
1.4106
1.14668
1.08065
1.3352
1.01516
1.5142
1.06812
1.06588
1.0706
1.34878
1.3334
0.933535
1.00263
1.27631
0.999999
1.28343
0.979058
1
1
1.1503
1.00001
1.32391
1.31191
1.08097
1
1.08257
1
1
1
0.999998
1.36111
1
1.11306
0.971695
1.09595
1.11384
1
0.930377
1.34441
1.13324
1.30958
0.975646
1.30606
1.34992
1.57586
0.997205
1
1.15745
0.927689
1.27862
1.01831
1
1
1.25798
1
1.50158
1.71102
1.34531
1.34802
1.14184
1
1
1
1.37791
1.29427
1.44867
1.41418
1
1.18768
1.04122
1.23918
1.52143
1.3732
0.981782
1
1.04735
1.1328
1.34976
0.961216
1.17606
1.07331
1.22113
1.13327
1.35386
1
1.00432
0.957934
1.34979
1.01145
1.15318
0.989206
1.3106
1
1.00657
1.00108
1.46014
1.31951
1
1
1.02133
1
1.37591
1
1
1.13067
1.03351
1.1122
1.35436
1.19172
1.51401
1.19281
1.37854
1
1.08227
1
1
1.02248
1.52742
1
1.20012
1.0172
1.06385
1.30342
0.999908
1
1
0.771008
1.20743
1.17148
1
1.06356
1.06184
1.23051
1.19913
1.17197
1
1.35132
1.17724
1
1.00755
1.10107
1.18573
1
1.35172
1.10219
1
1.07879
1
1.05156
1.34989
1.04744
1.0011
1.25044
1.35034
0.9618
1.16376
1.2389
1.17226
1
1.18151
1
1.23349
0.981675
1.10625
0.912348
1.32693
1.27308
1.06725
1
0.983127
0.961201
1
1.00002
1.03254
1.41781
1
1
1.42374
1
1
1
1.07408
0.889536
1.029
1
1.36986
1
1.00003
0.959254
1.17271
1.23603
1.67781
1
1
1.00001
1.26634
1.05613
1.08316
1.12884
1.25403
1
1.14181
1
1
1.36645
1.10785
1.47348
1
1.31716
1
0.968125
1.00021
1.28129
1
1.34755
1.15322
1.10405
1
1
1
0.990585
1.13785
1
1.34914
1.05629
0.988555
0.980314
1.18236
1
1
0.999644
0.968148
1.13895
1
1.34874
1
1
1
1.40365
0.999999
1.20093
1.34525
1.21593
1.05659
1
1.24972
1.05483
1.36404
1.07062
0.878753
1.17588
1.40002
1.07726
1.34977
1.45343
1.3837
1
1.47043
0.994136
1.19786
1.12545
1
1.34882
1.39269
1
1.0551
1.37998
1
1.28564
0.899156
1.28499
1.04801
1
0.999581
1
1
1.00002
1.19198
0.92223
0.902368
1.04994
1.19302
1.36619
0.992213
1.16538
0.911843
1
1.51134
1
1.43373
1.0323
1.4386
1
1
1
1
0.995764
1.50905
1
1.04031
1
1
1
1.35156
1.22143
1.34361
0.909494
1.41693
1
1.55257
1.14135
1.03592
1.34985
0.932993
1.31271
1.18131
1.06011
1
1.30685
1.16448
0.90621
0.910456
1.3257
1
1.42315
0.955571
1.38749
1.00005
1.67633
1.11737
1.23802
1.42845
1.34996
0.76265
1.39616
1
0.908948
1
1
1.2702
1.0844
1.16636
0.97311
1
1.42005
1.68154
1
1
1.13284
1.13356
1.3137
0.999897
1.00361
1.22952
1.35085
1
1.31952
1.11884
1
1.38295
0.994635
1
1.08411
0.911459
0.997986
1.21586
1.12602
1.44888
1
1.01111
1.3517
1.0001
1.13264
1
1.21546
1.34979
0.961408
1
1.43605
1.31165
1.15304
1.67302
0.998621
1
0.908723
1
1.35047
1.1061
1.096
0.987724
1.40794
1.02111
1.02965
1
1
1.18353
1
1.34661
1.10214
0.955791
1.20315
1
0.907092
1
1.21893
1.39397
1.17657
1.09796
0.768989
1.34983
1.19846
1
1
1.17796
1.1853
1
1.17118
1.49097
1.07706
1.13569
1
1
1
0.991076
1.37113
1.21516
1.05336
1.11118
0.916149
1.05734
0.933827
1
1
1
0.918501
0.98316
0.997039
1.34908
0.996145
0.991157
0.933373
1
1.18462
1.14484
1
1
1
0.887728
1.24774
1.29107
1.01769
1.30961
1.13988
1.28851
1.12411
1.68397
1
1
1
1.34757
1.15836
1
1.37761
1
1.28038
1.05312
1.35174
1.34926
1.35123
1.29954
1
1.35094
1.35525
1.31539
1
1.2708
1
1
0.889406
1.33651
1
1
1.09639
1.17439
0.937293
0.966519
1.34362
1.17768
1
1
1
1.2649
1
0.935029
0.984565
1.42328
1.28511
1.16162
1.34947
1.22278
1.24414
1
1
1.14598
1.34426
1
1.13497
1.21919
1.23272
1.348
1.25586
1.25314
0.999186
1.11629
1.14624
1.10501
1.18431
1.36357
1.04848
1.06685
1.34956
1.34964
1.17373
1.18837
1
1
1.34977
1.29754
1.0011
1.07414
1.35421
1.09344
1.2844
1.00001
1.13009
1.3689
1.34955
1
1.16161
1.16765
1.25384
1.11097
1.34914
1.69964
1.34915
1.63846
1.35038
1.09647
0.910461
0.886812
1.34953
1
1.18145
1.2747
1.35157
1.03814
1
1.35028
0.962868
0.756053
0.908546
1
0.963611
1.08824
1.34953
1.2562
1.13014
1.10116
1.3517
1
0.931828
0.906888
0.976782
1.14747
1
1.16398
1.22783
1
1.34962
1.32431
1.50954
1.14381
1.15271
1.17096
0.999996
0.90749
1
1.43723
1.34944
1.06308
1.03404
1.13985
0.912944
1.25846
1.0896
1.35137
1
1.07996
1
1.23311
0.884006
0.98677
1.22923
1.14135
1
1.1626
1.14363
1.15291
1
1
0.960915
1.31511
1.34112
1
1
1.13746
1
1.19567
1.34078
0.997644
1
1.10103
1
0.901284
1.13825
1.35348
1.1092
1.19872
1
1.12968
1.20559
1.18569
1.19662
1
1.0882
1.35148
1
1.05394
1.14104
0.980769
1.19694
1.1299
1.18276
1.35033
1.17852
1
1
1.00002
1.19865
1
1.20682
1.16005
1
1
1
1.00006
1.34752
1.0602
0.742069
1.34776
0.980274
1.62161
1.1587
0.952974
0.963891
1.08452
1.18693
1
1.15002
1.34912
1.03076
0.910396
1.34844
1.26095
1
1.17491
1.44023
1.3463
1
1.19054
1.19091
1.19007
1.14205
1.18606
1.14238
1.38465
1.35056
1.1218
1.25793
1.46152
1.35098
1.02505
1.40668
1
1.08399
1.2363
1
1
1
0.931158
1
1
1.16873
1
1
1.34982
1
1.15
1.34987
1
1
0.998436
1
1.38454
1.34962
1.18185
0.961445
1.35006
1.23445
0.94213
1
1
1.25159
1.20681
1
0.974119
1.0911
1.16769
0.968256
0.968531
1.12623
0.963153
1
1.06358
1.34959
1.34959
0.963053
0.96305
1.34997
1
1
0.94016
1
1.14932
1
1.35005
1.17395
1.17288
1
1
1.11802
1.35812
0.937714
1.34937
1.00033
1.34265
1.22025
1
1.14858
1
1.35797
1
1.00871
0.959952
1
1
1
1.29637
1.25497
1
1
1.1322
1
1.32416
1.13579
1
1.18292
0.940619
0.968409
0.999999
1
1.34875
1.35974
1.18336
1
1.13102
1.3619
0.928568
1.34961
1.23539
1.35424
1
1.07448
1
1.69708
1.20081
1.34974
1.29693
1.3484
0.972173
1
1
0.936459
0.999999
1
1.35057
0.958953
0.952624
1.25675
1
1.00063
1
1.33567
1.25295
1
1
1.24972
1
1.13244
0.865217
1.1468
0.93133
1.41697
1.67348
1.05524
1.34489
1.07159
1
0.965791
1
1.38614
1.34894
0.940311
1
1
1.34638
1.23776
1.00969
1
0.746965
1.28986
1.2015
1.00196
1.3437
1.29105
1
1.04846
1.26071
0.971449
1.42959
1.29783
1
1
1.00132
1.17736
0.925963
1.34915
1.35161
1.05605
1.02156
1.0775
1.34997
1.29547
1.05604
1.25825
1
1.00033
1
0.999997
0.889833
0.771536
1.23545
1.11673
1
1.34999
1.24805
1.1383
1.11187
1.13017
1
1.24711
0.911123
1
1
0.930159
1.34951
0.908961
1
1
1
1
0.989823
0.950634
1.35324
1.26821
1.24876
1
0.999999
1.34915
1.34691
1.12155
1.07408
1.21239
1
1.37902
1
1
1.00008
1
0.913135
1.41505
1
1.21757
1
1.35146
1.24497
1.20524
1.00075
1.00007
1
0.760367
1.04977
1
0.931945
1.34778
1
1.21606
1.21334
1.44893
1
1.34163
1
1.00003
1.05144
1.05286
0.997471
1.2478
1
0.99259
0.999037
1.35143
1.32578
1
1.35153
1.02566
1
0.754127
1.33168
0.984874
0.888604
0.907567
1
1.24235
1
1
1
1.34851
1.46812
1
0.999666
1.05597
1.40661
0.929695
1
0.91876
1.34954
1
0.998501
0.90978
1.2764
1
1.26154
1.12393
1
1
1
1
1.37748
1.15524
0.91067
0.999823
1.44333
1.10279
1.35467
1.43804
1
1
1
1.05577
1
1.3435
1.26672
1.36655
1.24184
0.764832
0.83336
1.11495
0.915027
0.760223
1
1.49783
1.56439
1.306
1
1
1.23975
1.35086
1.03288
1.3314
1.09816
1.32404
1.30381
1.35545
1.3712
1.04422
1.12572
1
1
1
1.34176
0.995932
1
1.13754
0.988113
0.97515
1.30596
1
1.34114
0.96905
1.48024
1
1
0.843377
1.05395
0.936285
1
1.3493
1.38183
0.919565
1.3494
1.23289
1.29896
1.35132
1.3492
1
1
1
1
0.795358
1
1.14968
1.01114
0.754144
1.34934
0.984886
1.1724
1.29912
1.06532
1.13686
1
1.02138
1
0.879711
1.35011
1.35866
1.53112
0.919948
1
1
1
0.909957
1.4045
1
1
1
1
1.35946
1
1
0.766651
1
1
1
1
0.863969
1
1.44437
1.24564
1.04224
1
1
1
0.98714
1.188
1
1
1.41061
1.12929
1
0.757651
0.747503
1
1
1
0.945324
1.43179
1.15562
1.00642
1
1
1
1.11123
0.977826
1.109
1.34962
1.34853
1
1
1.38541
1
1.11253
1.35186
0.990637
1.35067
1.34833
1.11426
1.3525
1.46822
1
0.952498
0.812859
1
0.980161
1
1.3493
1.06408
1
0.910281
0.754071
1
1
1
0.996422
1.00194
1.34765
1
1
1
0.990798
1
1.06075
1
1
0.745462
1
1
1
1.45081
1.22785
1
0.741774
1.11654
0.756855
1
1.35211
1.35412
1.49543
1.01703
1.26527
1.12095
1.01584
0.906445
0.996728
0.768374
1.19983
1.45007
1.35016
0.765422
1.39588
1
1
1
1.4063
1.34485
1
1
0.950247
1.26272
1.04166
1.29837
1.11889
1.1381
1.30525
1
0.779473
1.34996
1.06786
1.27712
0.938729
1.34525
0.991248
1.35456
1.31325
1
1.35277
1
1.34891
1.39011
1.13647
1.07711
1.25156
1
1.34847
1
1
1
0.988921
1
1.34944
1
0.873067
1
0.906897
1
0.861123
1
1.29547
1
1
1
1.00004
1.50368
1
1.07695
1.35003
1.35402
1
1.38139
1
1
1.24751
1.34801
1.67435
0.765666
0.745902
1
1.19738
1
1.43623
0.90579
1.34921
0.768738
1.33383
1.25042
1.16206
1.34985
1.28447
1.00024
1.00676
1.24386
1.00478
0.745188
0.96621
1
1
1.45678
0.970732
1
1.32416
0.7431
1
1
1
1.37702
1.61522
1.35035
1.07472
1
1.3482
1.2317
0.997943
1.35174
0.992804
1.01367
1.01096
1.04076
1
1.17974
1.00076
1.17978
0.993272
1
1
1.00004
1.34955
1
1.34945
1.02152
0.949001
0.77059
1.23304
1.01577
0.760685
1.00064
1
1.05207
1.05339
1.46106
1.05819
1
1.34934
1.24811
1.25167
1.20174
1.01747
0.907975
1.35585
1
1
1.0593
1.18287
1.07906
1.68704
1
1
0.998084
0.767825
1.19423
1
1.3488
1.08044
1.34924
1
1.51116
1
1
0.752866
1
1
1.35005
1
1
1
1.11661
1
1.07907
1.27445
1.16846
1.29191
1.1438
1.3029
1.34874
1.35233
1.45603
1.0128
1.16203
1.25117
1.23573
1
1.25047
1.02813
1.34361
1.34967
1.18434
1.05491
1.14375
0.76555
0.980879
1.34969
1
0.753887
1.08273
1.00044
1
1
1
0.750373
1.28646
0.975208
1
1.21792
1.23703
1.32039
1
1.15171
1.23067
1.35006
1.06122
1.16147
1.22274
1.2425
1.28884
1.35524
1.40175
1.21165
0.774676
1.23696
1
1
1.34939
1
0.959825
1
1
1.34554
1.34955
0.911376
1
1
1.23689
1.00507
0.946551
1
1.01788
1.20819
1
1.01983
1.01267
0.970625
1.30266
1.25981
1
1
1
1.01326
1.34947
1.395
0.936323
1.33402
1.27638
1.25041
0.959082
0.746877
1
0.965853
1.17463
0.993453
0.767351
1.50279
1.29483
1
1.10963
1.28005
0.861738
1.34807
0.88861
1.34948
1.11738
0.742004
1
1.34927
0.756128
1.24039
1.3706
1.01908
1
1.5203
1.07521
1.14909
1
1
1.35412
1.01489
0.947829
1.3442
1.24768
1.44556
1.152
1.13005
1.01468
1.32726
1
0.951919
1.34974
1
1
0.918411
1.25146
1.34503
1
0.745414
1.15105
0.897045
1
1.35136
0.999325
1
1.30688
0.837253
1.10468
0.812942
1.28253
1
1
1
1
1
1.69482
1
1.18502
1
1.25427
0.745061
0.741985
1.45015
1.10166
0.757286
1.2593
1.15069
1.1492
1
0.999986
1.14852
1.02196
1.26673
1
1.34892
0.903192
0.753546
0.795249
1
1
1.02356
1.141
1.30394
0.779223
0.943475
1.14435
1
1.35065
0.756493
1
1.34995
1.17951
1
1
1.28772
1
1.34779
1
0.768065
1
1
1.18478
0.986812
1
0.995452
1.34854
1
1
1.03504
1
1
1.30697
0.96914
1.31444
1
1.08773
1.0031
1.34882
1.35028
1
1.35409
1.34817
1.14717
1
1
1.12185
1.43096
0.755166
0.99582
1.12997
1.05956
1.34885
0.992269
0.752796
0.979253
1
1
1.13573
1.37095
1.67731
1.05424
0.895669
1.58958
0.761623
0.773577
1
0.995672
0.7571
1.34835
1.30315
1.05553
1
1
1.26261
1
1.28965
0.983497
1
1
0.749814
1.0219
1
1.35062
1
1.15585
0.757027
1
1.12355
1
1
0.908408
1.34915
0.911238
1.34746
0.746637
1.34938
1.35818
1.18338
1.1372
1.34862
1
0.949155
1
0.942862
1.02703
1
0.995937
1.17135
0.746057
0.989024
1.35203
1.06702
0.879585
1
0.757429
1.21055
0.772462
1.14988
1.3527
0.993026
1.15006
1.03359
0.991433
0.74383
0.985875
1.34976
1
1.34901
0.742979
1.00001
0.983422
1.37123
1.07027
1.35354
1.12209
1.57945
1.17392