/*--------------------------------*- C++ -*----------------------------------*\
  =========                 |
  \\      /  F ield         | OpenFOAM: The Open Source CFD Toolbox
   \\    /   O peration     | Website:  https://openfoam.org
    \\  /    A nd           | Version:  12
     \\/     M anipulation  |
\*---------------------------------------------------------------------------*/
FoamFile
{
    format      ascii;
    class       volScalarField;
    location    "4.8";
    object      rho;
}
// * * * * * * * * * * * * * * * * * * * * * * * * * * * * * * * * * * * * * //

dimensions      [1 -3 0 0 0 0 0];

internalField   nonuniform List<scalar> 
9801
(
1.07071
1.07197
1.07457
1.08031
1.09047
1.09901
1.10325
1.10572
1.10725
1.10776
1.10864
1.1103
1.11278
1.11622
1.12485
1.13636
1.1427
1.14575
1.14748
1.14863
1.14952
1.15088
1.15316
1.15638
1.16268
1.17488
1.18334
1.18687
1.18904
1.19059
1.19182
1.19336
1.19564
1.19885
1.20433
1.21628
1.22629
1.23077
1.23303
1.23443
1.23539
1.23692
1.23955
1.24316
1.24829
1.26101
1.27257
1.27753
1.28026
1.28078
1.28098
1.28255
1.28528
1.28918
1.29463
1.30779
1.32267
1.32901
1.33219
1.33193
1.33108
1.33127
1.33427
1.33887
1.34465
1.35961
1.37767
1.38616
1.3908
1.38898
1.38443
1.38508
1.38858
1.39405
1.40238
1.42174
1.44333
1.45416
1.4604
1.45957
1.4502
1.44842
1.45329
1.46276
1.47888
1.51338
1.53995
1.55494
1.56595
1.56741
1.55452
1.55008
1.56588
1.59621
1.66032
1.73392
1.80066
2.40202
5.438
1.075
1.07703
1.07993
1.0862
1.09647
1.10396
1.10837
1.11152
1.11317
1.11186
1.11235
1.11474
1.1178
1.12187
1.1309
1.14061
1.14669
1.15064
1.15332
1.15285
1.15231
1.1544
1.15756
1.16124
1.16819
1.17902
1.1868
1.19147
1.19482
1.19516
1.19375
1.19547
1.19874
1.2026
1.20849
1.21971
1.22922
1.2347
1.23845
1.23947
1.23734
1.2386
1.242
1.24614
1.25134
1.26295
1.27445
1.28074
1.28487
1.28549
1.2825
1.28366
1.28731
1.29193
1.29721
1.30906
1.3236
1.33115
1.33583
1.33656
1.3316
1.33104
1.33534
1.3407
1.3461
1.35996
1.37809
1.38748
1.3933
1.39402
1.38565
1.38385
1.38819
1.39435
1.40236
1.42214
1.44385
1.45544
1.46251
1.46409
1.45222
1.4466
1.45354
1.46251
1.47899
1.50879
1.53307
1.54858
1.56248
1.57093
1.5583
1.54996
1.56238
1.58782
1.63228
1.68606
1.72966
2.31248
5.42338
1.07481
1.07705
1.08016
1.08648
1.09686
1.10408
1.1083
1.11148
1.11325
1.11223
1.11246
1.11471
1.11783
1.12215
1.13124
1.14061
1.14633
1.15032
1.15315
1.15302
1.15237
1.15429
1.15748
1.1613
1.16843
1.17915
1.18661
1.19134
1.19484
1.19556
1.19403
1.19517
1.19824
1.20214
1.208
1.21931
1.22888
1.23452
1.23859
1.24022
1.23803
1.23861
1.24162
1.24552
1.25034
1.26151
1.27336
1.28004
1.2845
1.28602
1.28343
1.28396
1.28735
1.29185
1.29691
1.30774
1.32185
1.32958
1.33451
1.33642
1.33187
1.33023
1.33411
1.33971
1.34552
1.35829
1.37551
1.38513
1.39109
1.39368
1.38662
1.38233
1.38537
1.3915
1.39919
1.41678
1.43827
1.45064
1.4583
1.46306
1.45408
1.44441
1.44812
1.45752
1.47013
1.49539
1.52364
1.54327
1.5577
1.56876
1.55943
1.54792
1.55583
1.57872
1.61291
1.65807
1.68724
2.27714
5.37496
1.07559
1.07792
1.08106
1.08766
1.09787
1.10478
1.10888
1.112
1.11414
1.11369
1.11334
1.11515
1.11809
1.12267
1.13189
1.14093
1.14653
1.15049
1.15363
1.15459
1.15344
1.15451
1.1573
1.1611
1.16861
1.17907
1.18621
1.19086
1.19452
1.19639
1.19481
1.19506
1.19768
1.20142
1.20768
1.21912
1.22834
1.23383
1.23794
1.24027
1.23802
1.23752
1.24003
1.24381
1.24912
1.26065
1.27254
1.27929
1.28385
1.28652
1.28365
1.28191
1.28423
1.28835
1.29365
1.30489
1.31925
1.32739
1.33258
1.33619
1.33255
1.32809
1.33021
1.33515
1.34095
1.35317
1.37067
1.38123
1.38761
1.39221
1.38795
1.37968
1.38028
1.38581
1.39307
1.4079
1.43045
1.44511
1.45361
1.46029
1.45686
1.44327
1.44132
1.4492
1.45975
1.47906
1.50751
1.5292
1.54449
1.55808
1.55969
1.54536
1.54237
1.5585
1.58431
1.62281
1.64563
2.26496
5.33857
1.07633
1.07873
1.08165
1.08804
1.09786
1.10451
1.10867
1.11184
1.11433
1.11471
1.11404
1.11546
1.11813
1.12242
1.13157
1.14049
1.14616
1.1502
1.15354
1.1554
1.15406
1.15444
1.15689
1.16038
1.16775
1.17796
1.1849
1.18961
1.19339
1.19601
1.19488
1.19471
1.19713
1.2006
1.20675
1.21802
1.22675
1.23202
1.23604
1.23872
1.2369
1.23607
1.23852
1.24229
1.24791
1.25961
1.27093
1.27739
1.28176
1.28485
1.28258
1.27921
1.28091
1.28495
1.2904
1.30202
1.31654
1.32492
1.33025
1.3346
1.33343
1.32612
1.32581
1.32997
1.33555
1.34681
1.36514
1.37716
1.38387
1.38901
1.38923
1.37973
1.37593
1.37995
1.38645
1.39727
1.41927
1.43791
1.44798
1.45534
1.45864
1.44679
1.4377
1.44117
1.45053
1.46465
1.49049
1.51619
1.53448
1.54932
1.56056
1.55182
1.54141
1.54478
1.56175
1.59208
1.6136
2.26082
5.32029
1.07774
1.07996
1.08253
1.08812
1.09751
1.10408
1.10827
1.11156
1.1143
1.11547
1.11491
1.11613
1.11873
1.12267
1.13162
1.14044
1.14579
1.1497
1.15301
1.15504
1.15394
1.15428
1.15673
1.16019
1.16767
1.17813
1.18482
1.18916
1.19271
1.19541
1.19449
1.19384
1.19601
1.19945
1.20536
1.21685
1.22591
1.23121
1.23524
1.23847
1.23756
1.2351
1.2366
1.23996
1.2451
1.25652
1.26844
1.2753
1.27996
1.28382
1.2839
1.27894
1.27844
1.28186
1.28671
1.29749
1.31312
1.32255
1.32808
1.33273
1.33435
1.32717
1.32321
1.32615
1.33104
1.33977
1.35836
1.37392
1.38188
1.38733
1.39061
1.38327
1.37492
1.3756
1.38114
1.38888
1.40673
1.43056
1.44495
1.45339
1.45988
1.45547
1.4407
1.43781
1.44491
1.45531
1.47466
1.50163
1.52288
1.53926
1.55416
1.56049
1.54935
1.54208
1.5483
1.56611
1.58669
2.25823
5.31173
1.07927
1.0811
1.08337
1.08813
1.09726
1.10408
1.10828
1.11158
1.11443
1.11595
1.11547
1.1166
1.11925
1.12315
1.13205
1.14105
1.14612
1.14968
1.15273
1.15463
1.15367
1.15392
1.15643
1.15994
1.1673
1.17861
1.18564
1.18979
1.19313
1.19571
1.19466
1.19283
1.19451
1.19793
1.20349
1.21544
1.22597
1.23174
1.23576
1.23916
1.23961
1.23564
1.23509
1.23795
1.24233
1.25256
1.26627
1.2744
1.27939
1.28357
1.28599
1.28115
1.27805
1.28024
1.2844
1.29232
1.30873
1.32102
1.32748
1.33231
1.3356
1.33056
1.32418
1.32495
1.32919
1.33498
1.34972
1.36997
1.38145
1.38762
1.39222
1.38923
1.37782
1.3744
1.37821
1.38461
1.39572
1.41961
1.44041
1.4517
1.4595
1.46379
1.45267
1.44104
1.44228
1.45053
1.4631
1.487
1.5115
1.52988
1.54512
1.55921
1.56027
1.54865
1.54145
1.54803
1.56186
2.24832
5.30437
1.08079
1.08229
1.08439
1.08851
1.09768
1.1053
1.10954
1.11275
1.11552
1.11715
1.1166
1.11736
1.11982
1.12335
1.13173
1.14179
1.14737
1.15087
1.15379
1.15589
1.15511
1.15459
1.15663
1.15987
1.16615
1.17798
1.18631
1.19084
1.19424
1.19702
1.19667
1.19392
1.19454
1.19763
1.2023
1.2134
1.22572
1.23245
1.23667
1.24011
1.24167
1.23766
1.23541
1.23741
1.24131
1.24906
1.26406
1.27482
1.28052
1.28471
1.28794
1.28491
1.27974
1.28002
1.28352
1.28882
1.30249
1.31936
1.32829
1.33352
1.33773
1.33628
1.32816
1.32573
1.32842
1.33321
1.34179
1.36243
1.38009
1.38853
1.39394
1.39636
1.38633
1.37719
1.37775
1.38318
1.39018
1.40629
1.43171
1.4487
1.45857
1.46623
1.4672
1.45229
1.44408
1.44835
1.45767
1.47364
1.49848
1.51946
1.53597
1.55039
1.56114
1.55927
1.54691
1.53784
1.53779
2.22988
5.29792
1.08246
1.08371
1.08572
1.08924
1.09793
1.10695
1.1117
1.11482
1.11745
1.11919
1.11871
1.11903
1.12109
1.12404
1.13067
1.14173
1.14877
1.15283
1.15595
1.15839
1.15783
1.15661
1.15797
1.16069
1.1651
1.17607
1.18641
1.19197
1.19578
1.19904
1.2
1.19676
1.19647
1.19894
1.20261
1.21098
1.2246
1.23301
1.23769
1.24135
1.24402
1.24127
1.23761
1.23883
1.24226
1.24766
1.26127
1.2752
1.28219
1.28664
1.29027
1.28942
1.28293
1.28129
1.28371
1.28815
1.29689
1.31567
1.32943
1.3359
1.34037
1.34195
1.33453
1.32813
1.32859
1.33243
1.33806
1.35231
1.37525
1.38874
1.39543
1.40058
1.39889
1.38608
1.38046
1.38282
1.38867
1.39736
1.41882
1.44257
1.45661
1.46557
1.47233
1.46875
1.45394
1.44959
1.45543
1.46548
1.48464
1.50869
1.52707
1.54148
1.55419
1.56038
1.55553
1.54064
1.5225
2.20427
5.29236
1.08479
1.08577
1.08763
1.09064
1.09806
1.10808
1.11386
1.11735
1.12012
1.1222
1.12189
1.12151
1.12311
1.1257
1.13047
1.14131
1.15004
1.15485
1.15828
1.16109
1.16167
1.15949
1.15989
1.16219
1.16553
1.17429
1.1864
1.19339
1.19771
1.20127
1.20355
1.20101
1.19931
1.20102
1.20396
1.20922
1.22238
1.23358
1.23929
1.2433
1.24668
1.24596
1.24143
1.2415
1.24437
1.24819
1.25738
1.2737
1.28338
1.28842
1.29238
1.29403
1.28813
1.28395
1.28544
1.28923
1.2946
1.30921
1.32818
1.33781
1.34291
1.34649
1.3432
1.33309
1.33021
1.33282
1.33773
1.34531
1.36566
1.38652
1.39674
1.40282
1.40754
1.40039
1.38678
1.38429
1.38849
1.39504
1.40646
1.43076
1.45121
1.463
1.47152
1.47757
1.47171
1.4574
1.45517
1.46178
1.47299
1.49435
1.51626
1.53227
1.54497
1.55504
1.55755
1.54768
1.52371
2.17577
5.28694
1.08789
1.08837
1.08993
1.09256
1.09847
1.10881
1.11562
1.1197
1.12282
1.12544
1.126
1.12469
1.1256
1.128
1.13176
1.14132
1.15125
1.15677
1.16044
1.16343
1.16522
1.16311
1.16232
1.16445
1.16763
1.17422
1.18676
1.19531
1.20008
1.20367
1.20658
1.20568
1.20244
1.20293
1.20562
1.20953
1.22001
1.23403
1.24162
1.24607
1.24975
1.25117
1.24671
1.24452
1.24606
1.24913
1.25438
1.26929
1.28384
1.29077
1.29513
1.29865
1.2958
1.28893
1.28826
1.29095
1.29495
1.30262
1.32222
1.33781
1.34471
1.34922
1.35168
1.34352
1.33491
1.33488
1.33849
1.34376
1.35492
1.37869
1.39596
1.40425
1.40975
1.41194
1.40103
1.39001
1.38987
1.39455
1.4014
1.41645
1.44149
1.4592
1.46987
1.47815
1.48221
1.47343
1.46078
1.46036
1.46721
1.47966
1.50218
1.52227
1.53605
1.54614
1.55264
1.55108
1.53386
2.15647
5.28137
1.09163
1.09126
1.09227
1.0947
1.09946
1.10977
1.11768
1.12223
1.1256
1.12851
1.12999
1.12827
1.12842
1.13063
1.13382
1.14175
1.15251
1.15873
1.16265
1.16587
1.16838
1.16722
1.1657
1.16747
1.17048
1.17507
1.18646
1.19708
1.20242
1.206
1.20912
1.20981
1.20591
1.20531
1.20788
1.21142
1.21844
1.23346
1.24391
1.24907
1.2527
1.25537
1.25225
1.24711
1.24724
1.25
1.2541
1.26424
1.28237
1.29311
1.29854
1.30253
1.30361
1.29604
1.29109
1.29197
1.2951
1.29975
1.31276
1.33438
1.34654
1.3524
1.35699
1.35604
1.34416
1.33826
1.33982
1.3438
1.34945
1.36441
1.38883
1.40295
1.40989
1.41568
1.41659
1.40292
1.39384
1.3953
1.40085
1.40849
1.42663
1.45019
1.46532
1.47513
1.48316
1.48636
1.47593
1.46408
1.46432
1.47103
1.48467
1.50748
1.5257
1.53712
1.54466
1.54731
1.54317
2.14895
5.27414
1.09523
1.09412
1.09466
1.09705
1.10114
1.11117
1.12024
1.12514
1.1286
1.13159
1.13351
1.13189
1.13135
1.13316
1.13588
1.14172
1.15333
1.16123
1.16557
1.16896
1.17189
1.17189
1.16979
1.17067
1.17308
1.17615
1.1843
1.19738
1.20466
1.20865
1.21205
1.21411
1.21081
1.20872
1.21061
1.21379
1.21795
1.22987
1.24438
1.2514
1.25529
1.25842
1.25803
1.25165
1.24961
1.25202
1.25578
1.26136
1.27731
1.29386
1.30154
1.30591
1.30894
1.30486
1.2956
1.29344
1.29596
1.30003
1.30674
1.32559
1.34543
1.35465
1.35991
1.36382
1.35815
1.34547
1.34172
1.34404
1.34841
1.35524
1.37531
1.39884
1.41075
1.41721
1.42193
1.41922
1.40555
1.39896
1.40111
1.40654
1.41521
1.43607
1.45798
1.47146
1.48062
1.48796
1.48949
1.47801
1.46697
1.46731
1.47354
1.48787
1.51045
1.52665
1.53578
1.5395
1.54629
2.15437
5.26591
1.09818
1.09697
1.0974
1.09975
1.10324
1.11249
1.12296
1.12837
1.13183
1.13475
1.13685
1.13545
1.13403
1.13525
1.13772
1.14185
1.15319
1.16394
1.16922
1.17272
1.17575
1.17683
1.17392
1.17287
1.17426
1.17704
1.18231
1.19588
1.20685
1.21219
1.21578
1.21882
1.2175
1.21343
1.21342
1.21534
1.21826
1.225
1.24131
1.25265
1.25806
1.26183
1.26446
1.25981
1.25451
1.25521
1.25788
1.26135
1.26953
1.289
1.30195
1.30773
1.31176
1.31369
1.30532
1.29804
1.29865
1.30183
1.306
1.31477
1.33691
1.35344
1.36072
1.36557
1.3687
1.35948
1.34758
1.34611
1.34975
1.35482
1.36329
1.38574
1.40616
1.41601
1.42216
1.42721
1.42314
1.40852
1.40305
1.40619
1.41225
1.42272
1.44467
1.46434
1.4764
1.48512
1.49215
1.49317
1.48053
1.46929
1.4692
1.4747
1.48915
1.51061
1.52509
1.53084
1.54224
2.1704
5.25779
1.1012
1.10028
1.10045
1.1026
1.10543
1.11282
1.12486
1.13173
1.13523
1.1381
1.14033
1.13919
1.13663
1.13726
1.13963
1.14296
1.15213
1.16566
1.17284
1.17646
1.17936
1.18107
1.17772
1.17464
1.17571
1.17844
1.1823
1.19325
1.20807
1.21558
1.21961
1.22286
1.22384
1.21843
1.21503
1.21592
1.2187
1.22304
1.23589
1.25299
1.26134
1.26593
1.26944
1.26894
1.26114
1.25774
1.25848
1.26104
1.26532
1.27917
1.29956
1.30984
1.31535
1.31938
1.31806
1.30727
1.30217
1.30298
1.30573
1.31021
1.32313
1.3465
1.36025
1.36665
1.37141
1.3733
1.36267
1.353
1.35267
1.35562
1.36027
1.37093
1.39493
1.41315
1.42208
1.428
1.43164
1.42623
1.41306
1.40866
1.41163
1.41744
1.42927
1.45209
1.47044
1.48161
1.48984
1.49604
1.49614
1.48284
1.47083
1.4698
1.47439
1.48856
1.50885
1.51977
1.53417
2.1912
5.24878
1.10463
1.10376
1.10325
1.10513
1.1077
1.11272
1.12504
1.1345
1.13895
1.14176
1.14404
1.14337
1.1398
1.13967
1.14191
1.14494
1.15114
1.16502
1.17493
1.17968
1.18269
1.18485
1.18273
1.17805
1.1781
1.18067
1.18401
1.19076
1.20631
1.21748
1.2227
1.22599
1.22825
1.22456
1.21822
1.21799
1.22073
1.22424
1.23156
1.24968
1.26344
1.26937
1.27306
1.27522
1.26919
1.26062
1.25945
1.26187
1.26561
1.27254
1.29211
1.31033
1.31818
1.32281
1.32598
1.32009
1.30797
1.30437
1.3065
1.31024
1.31565
1.3325
1.35555
1.36753
1.37373
1.37893
1.3787
1.3653
1.35598
1.35629
1.36019
1.3655
1.37822
1.40238
1.41862
1.42682
1.43313
1.43768
1.43108
1.41691
1.41261
1.4159
1.42203
1.43552
1.45851
1.4756
1.48595
1.49373
1.49951
1.4991
1.485
1.47145
1.46914
1.47251
1.48685
1.50337
1.52143
2.21184
5.23857
1.10822
1.10753
1.10606
1.10768
1.11016
1.11371
1.12373
1.13575
1.14165
1.14493
1.14735
1.14802
1.14443
1.14294
1.14467
1.14734
1.1511
1.16204
1.17516
1.18161
1.18539
1.18846
1.18904
1.18382
1.18166
1.1834
1.1862
1.18989
1.20134
1.21682
1.22423
1.22832
1.23168
1.23188
1.22468
1.22175
1.22376
1.2269
1.23058
1.24177
1.26064
1.27038
1.27507
1.27843
1.27835
1.26842
1.26276
1.26447
1.26829
1.27233
1.28157
1.30331
1.31794
1.32434
1.32866
1.3306
1.32147
1.31028
1.30858
1.31136
1.31563
1.32296
1.34378
1.36524
1.37519
1.38033
1.38403
1.38147
1.36722
1.35965
1.3609
1.3652
1.37094
1.38697
1.41194
1.42669
1.43384
1.43915
1.44182
1.43368
1.42049
1.41693
1.42027
1.42639
1.44079
1.46384
1.48025
1.48995
1.49711
1.50199
1.50127
1.48701
1.4714
1.46705
1.46983
1.48175
1.50459
2.22595
5.22726
1.11179
1.11268
1.10998
1.11079
1.11304
1.11584
1.12235
1.13508
1.14329
1.1474
1.15023
1.15229
1.1505
1.14719
1.14757
1.14964
1.15245
1.15907
1.17364
1.18354
1.18831
1.19151
1.19377
1.19069
1.1857
1.18561
1.18769
1.19083
1.19707
1.21306
1.22581
1.23155
1.23519
1.23786
1.2338
1.2271
1.22653
1.22831
1.23111
1.23597
1.25185
1.2695
1.27745
1.28215
1.28529
1.28159
1.27125
1.26862
1.27034
1.27319
1.2772
1.28955
1.31199
1.32456
1.33034
1.33484
1.33571
1.32378
1.31425
1.31477
1.31862
1.32265
1.33
1.35164
1.37051
1.37868
1.38378
1.38812
1.38461
1.37082
1.36514
1.3678
1.37274
1.37853
1.39513
1.41791
1.43039
1.43723
1.44283
1.44607
1.43818
1.42513
1.42143
1.42449
1.43045
1.44503
1.46757
1.48335
1.49256
1.4991
1.50345
1.50294
1.48923
1.47104
1.46378
1.4637
1.48442
2.22487
5.21471
1.11493
1.11825
1.11558
1.11469
1.11624
1.11859
1.12205
1.13236
1.14363
1.14916
1.15254
1.1553
1.15644
1.15257
1.15077
1.15248
1.15525
1.15914
1.17027
1.1838
1.19034
1.19384
1.19652
1.19688
1.19102
1.18838
1.19022
1.1933
1.19708
1.20752
1.22474
1.2341
1.23857
1.24155
1.24174
1.23379
1.2286
1.22949
1.23243
1.23601
1.24394
1.26384
1.27899
1.2853
1.28929
1.29119
1.283
1.27283
1.27106
1.27348
1.27715
1.28247
1.29928
1.32092
1.33164
1.33679
1.34083
1.33975
1.32756
1.32024
1.32023
1.32211
1.32616
1.33561
1.35906
1.37681
1.38492
1.39005
1.39423
1.38976
1.37697
1.37207
1.37325
1.37658
1.38242
1.40045
1.42289
1.43537
1.44251
1.44814
1.45128
1.4436
1.43037
1.42593
1.42828
1.43348
1.44724
1.46954
1.48534
1.49436
1.50038
1.50407
1.50363
1.49111
1.47157
1.45741
1.46391
2.20671
5.20282
1.11778
1.12228
1.122
1.11923
1.11922
1.12092
1.12337
1.12955
1.14251
1.15089
1.15502
1.15803
1.16057
1.15912
1.15546
1.15605
1.15835
1.16098
1.16642
1.18047
1.19106
1.1959
1.19919
1.20191
1.19914
1.19352
1.19376
1.19637
1.19942
1.20374
1.21764
1.23319
1.23992
1.2436
1.24652
1.24377
1.23471
1.23253
1.23513
1.23881
1.24262
1.25303
1.27369
1.28556
1.29098
1.29439
1.29474
1.28394
1.27549
1.27583
1.2794
1.28358
1.2897
1.30865
1.32843
1.33736
1.34219
1.34632
1.34388
1.32992
1.32254
1.32362
1.32738
1.33225
1.34407
1.36795
1.38417
1.39186
1.39677
1.40012
1.39448
1.3803
1.37421
1.37611
1.38061
1.38771
1.40698
1.42896
1.44108
1.44805
1.45352
1.45662
1.44929
1.43489
1.42913
1.431
1.43586
1.44856
1.47045
1.48656
1.49545
1.5008
1.5037
1.5029
1.49229
1.46855
1.45481
2.17099
5.19259
1.12036
1.1254
1.12706
1.1246
1.12246
1.12361
1.12586
1.12911
1.13953
1.15186
1.1578
1.16114
1.16403
1.16544
1.16163
1.15968
1.16065
1.16265
1.16567
1.17486
1.1904
1.19871
1.20286
1.20592
1.20702
1.20117
1.19786
1.19878
1.2007
1.20349
1.20969
1.22704
1.2408
1.24689
1.25073
1.25298
1.24675
1.23927
1.23904
1.24111
1.24364
1.24738
1.26058
1.28093
1.29114
1.29631
1.30039
1.29965
1.2883
1.28203
1.28278
1.28532
1.28882
1.29622
1.31707
1.33477
1.34252
1.34699
1.3502
1.34707
1.33457
1.32905
1.33096
1.33507
1.33983
1.35164
1.3744
1.38877
1.39563
1.40014
1.4031
1.39855
1.38574
1.38033
1.38231
1.38692
1.39411
1.4132
1.43414
1.44579
1.45251
1.45756
1.46012
1.45359
1.4396
1.43285
1.43378
1.43783
1.4491
1.47051
1.48686
1.49549
1.50008
1.502
1.50134
1.48877
1.4656
2.13408
5.18362
1.12308
1.12864
1.131
1.13057
1.12666
1.12636
1.12803
1.13044
1.13641
1.15077
1.16034
1.16469
1.16764
1.17015
1.16831
1.16323
1.16269
1.16472
1.16745
1.17199
1.18591
1.20017
1.20634
1.20952
1.21218
1.20994
1.20254
1.2004
1.20206
1.20485
1.20839
1.21844
1.23795
1.24948
1.25449
1.25792
1.25822
1.24899
1.24215
1.24175
1.24379
1.24693
1.25223
1.26961
1.28963
1.29883
1.30338
1.30734
1.30441
1.29168
1.28562
1.28671
1.28989
1.29354
1.30177
1.32316
1.33979
1.34734
1.35291
1.35707
1.35345
1.3407
1.33534
1.33638
1.33881
1.3432
1.3558
1.37817
1.39195
1.39898
1.40469
1.40923
1.40576
1.39283
1.38668
1.38759
1.39111
1.39734
1.41577
1.4368
1.44849
1.45508
1.46043
1.46452
1.4599
1.44532
1.4366
1.43631
1.43933
1.44846
1.46908
1.48589
1.49443
1.49809
1.49986
1.49684
1.48909
2.1175
5.17486
1.12629
1.1324
1.13481
1.13594
1.1315
1.1289
1.12996
1.13229
1.13575
1.14702
1.16139
1.16805
1.17123
1.17396
1.17484
1.16922
1.1659
1.16707
1.16953
1.1723
1.17912
1.19616
1.20757
1.21265
1.21571
1.21757
1.2115
1.20469
1.20455
1.20708
1.21027
1.21433
1.22767
1.24687
1.25614
1.26084
1.26378
1.26175
1.25066
1.245
1.2459
1.24902
1.2527
1.25941
1.27933
1.29739
1.30537
1.30984
1.31297
1.30817
1.29528
1.29018
1.29112
1.29399
1.2981
1.3088
1.33235
1.34837
1.35506
1.35928
1.36269
1.35808
1.34424
1.33785
1.33894
1.34249
1.34734
1.36203
1.38612
1.40032
1.40663
1.4113
1.41544
1.41154
1.39752
1.38964
1.39001
1.39385
1.39985
1.41769
1.44033
1.4535
1.46045
1.46555
1.46891
1.46565
1.4511
1.43971
1.43754
1.43987
1.44688
1.46659
1.48405
1.49242
1.49606
1.49468
1.50237
2.12078
5.16469
1.12892
1.13618
1.13848
1.1403
1.13703
1.13224
1.13233
1.13441
1.13706
1.14305
1.15871
1.1701
1.17512
1.178
1.18041
1.17761
1.17095
1.16965
1.17088
1.17306
1.17633
1.18731
1.20579
1.21532
1.22
1.22302
1.22257
1.21362
1.20906
1.20997
1.2121
1.21459
1.21935
1.23623
1.25436
1.26221
1.26698
1.27018
1.26603
1.25453
1.25084
1.25243
1.25511
1.25818
1.26563
1.28668
1.30302
1.3099
1.31443
1.31787
1.31246
1.29909
1.29428
1.29649
1.30052
1.30482
1.31596
1.33862
1.35255
1.35881
1.36324
1.36649
1.36205
1.34879
1.34298
1.34485
1.34924
1.35462
1.36916
1.39184
1.4047
1.41129
1.41602
1.41914
1.41592
1.4023
1.39387
1.39416
1.39807
1.40442
1.42154
1.44394
1.4573
1.4642
1.46902
1.47205
1.46987
1.45605
1.44237
1.43829
1.43967
1.44523
1.46355
1.48093
1.48985
1.49069
1.50449
2.1399
5.15489
1.13019
1.13964
1.14201
1.14429
1.14342
1.13742
1.13538
1.13671
1.13902
1.14233
1.15304
1.16994
1.17823
1.182
1.18459
1.18501
1.17754
1.17177
1.17213
1.17455
1.17761
1.18269
1.19888
1.21617
1.22353
1.22733
1.22983
1.22513
1.21483
1.21133
1.21236
1.21506
1.21862
1.22619
1.24654
1.26301
1.2698
1.27393
1.27672
1.26941
1.25767
1.25434
1.25536
1.25789
1.26185
1.27208
1.29453
1.30967
1.31613
1.32043
1.32365
1.31699
1.30462
1.30142
1.30275
1.30494
1.30906
1.32107
1.34343
1.35708
1.36347
1.36852
1.37262
1.36853
1.35569
1.35043
1.35157
1.35417
1.35855
1.37247
1.39451
1.40766
1.41419
1.41916
1.42377
1.42248
1.40979
1.40093
1.40034
1.40311
1.40781
1.42278
1.44518
1.45916
1.46621
1.47082
1.47418
1.47357
1.46137
1.44588
1.43928
1.4393
1.44302
1.45943
1.47687
1.48341
1.50087
2.1671
5.14414
1.12911
1.14217
1.14561
1.1481
1.14943
1.14459
1.13917
1.1393
1.1415
1.1442
1.14945
1.16468
1.17888
1.18496
1.18797
1.18984
1.18643
1.17733
1.17515
1.17736
1.18053
1.18402
1.19126
1.20979
1.22379
1.22985
1.23324
1.23444
1.22631
1.21637
1.21508
1.21766
1.22111
1.22509
1.23501
1.25627
1.26988
1.27588
1.27942
1.28111
1.27189
1.26003
1.25787
1.26031
1.26375
1.26815
1.28048
1.30297
1.31635
1.32233
1.32615
1.32846
1.32094
1.30793
1.30404
1.30631
1.30982
1.31449
1.3278
1.35057
1.36443
1.37056
1.37475
1.37819
1.37396
1.3603
1.35322
1.35393
1.35755
1.36228
1.37552
1.39852
1.41347
1.42067
1.42576
1.43025
1.42951
1.41703
1.40556
1.40312
1.40582
1.41012
1.42228
1.44475
1.4605
1.46811
1.4727
1.47624
1.47763
1.46772
1.44972
1.43964
1.43812
1.44024
1.45496
1.4688
1.49038
2.19308
5.13094
1.12578
1.1434
1.1488
1.15171
1.1537
1.15227
1.14533
1.14321
1.14492
1.1474
1.1501
1.15706
1.17377
1.18517
1.19004
1.19319
1.19487
1.18847
1.18156
1.18175
1.18406
1.18667
1.18946
1.19803
1.2175
1.22947
1.23463
1.23839
1.23915
1.22976
1.22211
1.22229
1.2247
1.22755
1.23089
1.24163
1.26233
1.27415
1.27923
1.2831
1.28488
1.27591
1.26598
1.26499
1.26754
1.27079
1.27495
1.28733
1.30847
1.32032
1.32558
1.32925
1.33156
1.32546
1.31399
1.31082
1.31314
1.31691
1.32156
1.3341
1.35571
1.36832
1.37435
1.37846
1.38127
1.37854
1.36614
1.35875
1.35932
1.36288
1.36786
1.38077
1.40316
1.41804
1.42541
1.43003
1.43337
1.43362
1.42311
1.41067
1.40678
1.40869
1.41272
1.42334
1.44492
1.46213
1.47072
1.47519
1.47817
1.4795
1.4725
1.45401
1.43993
1.43579
1.43738
1.44732
1.4738
2.2097
5.1155
1.12231
1.13991
1.14962
1.15382
1.1565
1.15859
1.155
1.14923
1.1487
1.15003
1.15181
1.15477
1.16409
1.18193
1.19222
1.19673
1.1996
1.19951
1.19087
1.18568
1.18579
1.1873
1.18989
1.19381
1.20578
1.22578
1.23667
1.24131
1.24483
1.24416
1.23329
1.2266
1.22647
1.22797
1.23059
1.23489
1.24799
1.26887
1.28038
1.28551
1.28976
1.29101
1.28108
1.27154
1.27045
1.27212
1.27446
1.27863
1.29166
1.31257
1.32427
1.33011
1.33507
1.3383
1.33244
1.32082
1.31734
1.31893
1.32124
1.32519
1.33709
1.35812
1.37105
1.37728
1.38227
1.38673
1.38592
1.37434
1.36634
1.36626
1.36883
1.37256
1.38268
1.40379
1.41927
1.42687
1.43201
1.43669
1.43913
1.43088
1.41786
1.41249
1.41321
1.41614
1.42376
1.44352
1.46172
1.47102
1.47573
1.47898
1.48066
1.4762
1.45902
1.44109
1.43333
1.43056
1.45392
2.20639
5.09846
1.1215
1.13159
1.14785
1.15626
1.16012
1.16279
1.16377
1.15759
1.15244
1.1524
1.15435
1.15671
1.16042
1.1721
1.1898
1.19866
1.20276
1.20518
1.20295
1.19328
1.18903
1.18999
1.19259
1.19561
1.20008
1.21424
1.23338
1.24281
1.24744
1.2502
1.24819
1.23675
1.23016
1.2304
1.23305
1.23635
1.24102
1.25567
1.27623
1.28687
1.29191
1.29541
1.29624
1.28578
1.27534
1.27364
1.27605
1.27937
1.28405
1.29863
1.32016
1.33184
1.33708
1.34078
1.34369
1.33798
1.3254
1.32038
1.3217
1.325
1.32929
1.34132
1.36334
1.3779
1.38438
1.38873
1.39313
1.39294
1.38161
1.37148
1.36927
1.37152
1.37515
1.38324
1.40402
1.4227
1.43223
1.43761
1.44218
1.4451
1.43956
1.42538
1.41669
1.4157
1.4182
1.42308
1.43983
1.46008
1.47127
1.47642
1.47931
1.48087
1.47888
1.46442
1.44397
1.42899
1.43606
2.18204
5.08204
1.12298
1.12772
1.14094
1.15651
1.16326
1.16632
1.16869
1.16747
1.15947
1.15616
1.15721
1.15927
1.16137
1.16505
1.179
1.19669
1.20479
1.20911
1.21172
1.20754
1.19755
1.19481
1.19627
1.1985
1.201
1.20514
1.2204
1.23884
1.24732
1.25205
1.25565
1.25377
1.24219
1.23631
1.237
1.23935
1.24219
1.24635
1.26113
1.28098
1.29061
1.29537
1.29916
1.30048
1.29098
1.28094
1.27971
1.28248
1.28605
1.29051
1.30402
1.32433
1.33511
1.3404
1.34439
1.34735
1.34322
1.33137
1.326
1.32744
1.33122
1.33573
1.34639
1.36746
1.38191
1.389
1.39363
1.39691
1.39776
1.3883
1.37676
1.37339
1.3756
1.37968
1.38726
1.40631
1.42584
1.43642
1.442
1.44606
1.44886
1.44547
1.43177
1.42035
1.41754
1.41947
1.42359
1.43782
1.45837
1.4712
1.47704
1.47959
1.48057
1.47929
1.46894
1.44435
1.43179
2.13953
5.06799
1.12557
1.12864
1.13398
1.15018
1.16392
1.16968
1.17269
1.1748
1.17047
1.16233
1.16016
1.16074
1.16231
1.16493
1.17011
1.18735
1.20494
1.21238
1.21631
1.2185
1.21208
1.20191
1.19905
1.19943
1.2008
1.20373
1.20929
1.22712
1.24601
1.25453
1.25895
1.26257
1.25949
1.24708
1.24083
1.24062
1.24187
1.24479
1.24996
1.26622
1.28636
1.29636
1.30141
1.30582
1.30719
1.29752
1.28739
1.28588
1.2874
1.28973
1.29404
1.30728
1.32767
1.33931
1.34503
1.34992
1.35376
1.35075
1.33895
1.33313
1.33392
1.33603
1.33951
1.34846
1.36874
1.38412
1.39143
1.39616
1.40062
1.40324
1.39624
1.38483
1.38069
1.38181
1.38462
1.38961
1.40586
1.42629
1.43788
1.44375
1.44807
1.4516
1.45033
1.43906
1.42656
1.4218
1.42211
1.42453
1.43489
1.45532
1.46983
1.47625
1.47871
1.47925
1.47868
1.46833
1.44914
2.10198
5.05617
1.12872
1.13054
1.13302
1.14087
1.15955
1.17177
1.17668
1.17944
1.18029
1.17223
1.16395
1.16274
1.16449
1.16698
1.16997
1.17714
1.19701
1.21265
1.21912
1.22277
1.22403
1.21559
1.20438
1.20147
1.20306
1.20573
1.20908
1.21625
1.23631
1.25369
1.26101
1.26493
1.2678
1.26403
1.25023
1.24345
1.24414
1.24692
1.25032
1.25605
1.27383
1.29389
1.30335
1.30785
1.31118
1.31232
1.30216
1.29063
1.28846
1.29103
1.29452
1.29914
1.31275
1.33396
1.34639
1.35191
1.35567
1.35912
1.35696
1.34436
1.33623
1.33604
1.33918
1.34317
1.35114
1.37082
1.38847
1.39728
1.40214
1.40658
1.40959
1.40482
1.39208
1.38461
1.38434
1.38736
1.39149
1.40414
1.42554
1.43975
1.44656
1.45086
1.45484
1.45648
1.4479
1.43275
1.42434
1.42325
1.42501
1.43154
1.45044
1.467
1.47452
1.47676
1.47786
1.4752
1.47607
2.09197
5.0444
1.13168
1.13298
1.13514
1.13864
1.14976
1.16883
1.17898
1.18337
1.18579
1.18416
1.1732
1.16694
1.16739
1.16961
1.17229
1.17552
1.18458
1.2051
1.21851
1.22402
1.22765
1.22839
1.21871
1.20832
1.20696
1.20922
1.21225
1.21572
1.2234
1.24287
1.25808
1.26428
1.26792
1.27063
1.2672
1.2551
1.24967
1.25076
1.25367
1.25725
1.26313
1.27983
1.2982
1.30659
1.31087
1.31388
1.31505
1.30705
1.29678
1.29494
1.29763
1.3014
1.30624
1.31811
1.33788
1.34974
1.35542
1.35928
1.36183
1.36111
1.35108
1.34249
1.34165
1.34467
1.34878
1.35614
1.37408
1.39223
1.40175
1.40672
1.41012
1.41289
1.41071
1.39897
1.38986
1.38831
1.39088
1.39487
1.40527
1.4258
1.44227
1.45033
1.4545
1.45765
1.4592
1.45381
1.43899
1.42738
1.42396
1.42475
1.42899
1.44537
1.46354
1.47258
1.47603
1.47395
1.48725
2.1023
5.03194
1.13651
1.1364
1.13855
1.14087
1.14457
1.15755
1.17631
1.18527
1.18942
1.19164
1.1875
1.1758
1.1714
1.17238
1.17445
1.17672
1.18025
1.19136
1.21234
1.2244
1.22935
1.23282
1.23362
1.22338
1.21386
1.213
1.21483
1.2168
1.22
1.22806
1.24793
1.2628
1.2692
1.27324
1.27669
1.27336
1.26128
1.25585
1.25673
1.25879
1.26157
1.26689
1.2831
1.3013
1.31019
1.31498
1.31941
1.32178
1.31479
1.30433
1.30192
1.30385
1.30613
1.3097
1.31955
1.33884
1.35191
1.35814
1.36307
1.36751
1.36887
1.36063
1.35103
1.34911
1.35128
1.35416
1.35874
1.37334
1.39191
1.40251
1.40815
1.41247
1.41672
1.41775
1.40838
1.39801
1.3949
1.3962
1.39896
1.40567
1.42378
1.44138
1.45052
1.45514
1.45875
1.46169
1.45967
1.44636
1.43183
1.42549
1.42469
1.42691
1.44049
1.45907
1.46974
1.47114
1.48813
2.12821
5.01961
1.1439
1.14027
1.14131
1.143
1.14534
1.14987
1.16479
1.18288
1.19113
1.19507
1.19714
1.1915
1.17986
1.1757
1.17669
1.17925
1.18199
1.18615
1.19898
1.21898
1.22972
1.23461
1.23781
1.23805
1.2282
1.2184
1.21671
1.21892
1.22176
1.2254
1.23435
1.25416
1.26866
1.27503
1.27871
1.28153
1.27864
1.26632
1.25972
1.26025
1.26315
1.26654
1.27195
1.28814
1.30706
1.31681
1.32144
1.32471
1.32724
1.32153
1.30993
1.30525
1.30656
1.30969
1.31354
1.32245
1.34219
1.3579
1.36522
1.36942
1.37322
1.37583
1.36889
1.35734
1.35249
1.35334
1.35644
1.36045
1.37227
1.39288
1.4071
1.41414
1.41879
1.42315
1.42511
1.41809
1.40538
1.39872
1.39839
1.40081
1.40476
1.41912
1.43971
1.45223
1.45797
1.4615
1.46459
1.46509
1.45448
1.43681
1.4266
1.42429
1.42525
1.43503
1.45383
1.4628
1.48351
2.15893
5.00582
1.15357
1.14453
1.14387
1.14592
1.14817
1.15048
1.15474
1.17064
1.18883
1.19669
1.20056
1.20263
1.19624
1.18457
1.18116
1.18267
1.1851
1.18762
1.19124
1.20394
1.22359
1.234
1.23869
1.24247
1.24327
1.23341
1.22392
1.22289
1.22506
1.22779
1.23109
1.23895
1.25768
1.27157
1.27769
1.28154
1.28476
1.28343
1.27282
1.26624
1.26665
1.26941
1.27279
1.2776
1.29156
1.31001
1.31982
1.32479
1.32848
1.33112
1.32776
1.31696
1.31118
1.31192
1.31525
1.31926
1.32653
1.34426
1.36056
1.36901
1.37396
1.37722
1.37962
1.3759
1.3644
1.35731
1.35743
1.36084
1.36531
1.37531
1.39487
1.41081
1.41875
1.42309
1.42632
1.4285
1.42438
1.41151
1.40216
1.40058
1.40307
1.40703
1.41906
1.43968
1.45432
1.46091
1.46402
1.46631
1.46719
1.46013
1.44218
1.4278
1.42316
1.4231
1.43144
1.44586
1.47112
2.18214
4.98931
1.16425
1.15555
1.14934
1.14945
1.15052
1.15195
1.15446
1.15991
1.17725
1.19473
1.20226
1.20603
1.20788
1.20148
1.19052
1.18689
1.18732
1.18851
1.19092
1.19534
1.20951
1.22933
1.2398
1.24454
1.24782
1.2486
1.23985
1.23046
1.2286
1.22953
1.23094
1.23416
1.24183
1.26045
1.27554
1.28283
1.28762
1.29163
1.29106
1.28066
1.2731
1.27257
1.27405
1.27629
1.28053
1.29304
1.31216
1.32353
1.32912
1.3339
1.33759
1.33594
1.32535
1.31832
1.31818
1.32
1.32273
1.3281
1.34392
1.36184
1.3714
1.3764
1.38084
1.38475
1.38396
1.37366
1.36547
1.36463
1.36677
1.36971
1.37582
1.39308
1.41028
1.41925
1.42421
1.42806
1.43161
1.43083
1.42032
1.41017
1.40701
1.40782
1.41005
1.41712
1.43624
1.45268
1.46031
1.46395
1.46653
1.46818
1.46457
1.44909
1.43149
1.42289
1.42169
1.42509
1.45368
2.18908
4.96998
1.17079
1.1711
1.15887
1.15252
1.15255
1.15464
1.15685
1.15927
1.16448
1.18264
1.20034
1.20771
1.21161
1.21401
1.20774
1.19538
1.1904
1.19127
1.19371
1.19654
1.20081
1.21429
1.23398
1.2445
1.24959
1.25328
1.2547
1.24583
1.23462
1.23153
1.23313
1.23581
1.23923
1.24656
1.26551
1.2821
1.28965
1.29375
1.29702
1.29723
1.28669
1.27679
1.27513
1.27755
1.2808
1.28511
1.29695
1.31718
1.33014
1.33591
1.33947
1.3426
1.34258
1.33209
1.32223
1.3205