/*--------------------------------*- C++ -*----------------------------------*\
  =========                 |
  \\      /  F ield         | OpenFOAM: The Open Source CFD Toolbox
   \\    /   O peration     | Website:  https://openfoam.org
    \\  /    A nd           | Version:  12
     \\/     M anipulation  |
\*---------------------------------------------------------------------------*/
FoamFile
{
    format      ascii;
    class       volScalarField;
    location    "9.4";
    object      p;
}
// * * * * * * * * * * * * * * * * * * * * * * * * * * * * * * * * * * * * * //

dimensions      [1 -1 -2 0 0 0 0];

internalField   nonuniform List<scalar> 
9801
(
0.637776
0.643946
0.653968
0.661167
0.665912
0.669838
0.673243
0.675996
0.675973
0.675803
0.677988
0.681295
0.68784
0.698183
0.706176
0.711324
0.715456
0.71925
0.722337
0.722154
0.7219
0.724181
0.727746
0.734323
0.745494
0.754571
0.760427
0.764891
0.768977
0.772029
0.770901
0.770983
0.773749
0.777785
0.78469
0.797053
0.807217
0.81345
0.818106
0.822664
0.824271
0.821348
0.822367
0.826192
0.830885
0.840418
0.855439
0.866204
0.872806
0.87776
0.881874
0.87942
0.875432
0.878034
0.882952
0.889391
0.903724
0.921634
0.933042
0.940231
0.94624
0.949206
0.942
0.937433
0.941024
0.94766
0.958681
0.980643
1.00147
1.0132
1.02099
1.02814
1.02704
1.01341
1.0107
1.01753
1.02853
1.05307
1.08489
1.10543
1.1183
1.12869
1.13494
1.11977
1.10451
1.11067
1.12646
1.15959
1.21236
1.25208
1.27913
1.30446
1.32436
1.31826
1.31028
1.33033
1.3949
2.50506
8.30846
0.64375
0.650529
0.661487
0.66877
0.673115
0.676485
0.679295
0.681353
0.681434
0.681892
0.68416
0.687284
0.693844
0.70518
0.713486
0.718549
0.722408
0.72571
0.728034
0.727451
0.727388
0.729655
0.733015
0.739537
0.751851
0.761525
0.76738
0.771696
0.775422
0.777831
0.776348
0.776115
0.778579
0.782232
0.789001
0.802541
0.813463
0.819883
0.824614
0.828846
0.830316
0.827374
0.827738
0.83089
0.835051
0.843819
0.859647
0.871262
0.878174
0.883315
0.887615
0.886202
0.882156
0.883761
0.887925
0.89337
0.906377
0.925054
0.937268
0.944856
0.950932
0.954615
0.948591
0.943444
0.946163
0.952125
0.961356
0.982823
1.0045
1.01656
1.0246
1.03193
1.0324
1.01996
1.01614
1.0221
1.03144
1.05143
1.08332
1.10589
1.12004
1.13154
1.14103
1.12948
1.11205
1.11526
1.12918
1.15393
1.20094
1.24126
1.26971
1.29626
1.31826
1.31353
1.29852
1.30499
1.3208
2.36402
8.4038
0.646695
0.655056
0.665463
0.671208
0.674966
0.678082
0.680774
0.682729
0.683253
0.684539
0.687153
0.690322
0.696855
0.708584
0.716676
0.721307
0.724834
0.727823
0.729656
0.728959
0.729489
0.732058
0.735524
0.742143
0.75502
0.764798
0.770343
0.774396
0.777891
0.77986
0.777877
0.777618
0.780205
0.783957
0.79089
0.805115
0.816535
0.822975
0.827666
0.831797
0.833396
0.829798
0.829258
0.832198
0.836369
0.844517
0.860749
0.873531
0.880886
0.886253
0.891053
0.891745
0.886641
0.886297
0.889771
0.89475
0.905667
0.925055
0.938843
0.946993
0.953278
0.958097
0.954457
0.947778
0.949102
0.954428
0.961778
0.979272
1.00313
1.01728
1.02604
1.03381
1.03719
1.02665
1.02033
1.02459
1.03318
1.04671
1.07833
1.10687
1.12287
1.13458
1.14492
1.13885
1.11887
1.1173
1.13039
1.14871
1.18735
1.2348
1.26887
1.2962
1.32189
1.32185
1.30708
1.31178
1.31198
2.29668
8.40611
0.650296
0.658093
0.668048
0.674229
0.678143
0.681363
0.684189
0.686181
0.686825
0.688324
0.690927
0.694018
0.700049
0.711534
0.719631
0.724332
0.727957
0.731072
0.732948
0.732352
0.733107
0.735757
0.739175
0.745306
0.758
0.767842
0.773335
0.777409
0.78098
0.78301
0.781006
0.780803
0.783535
0.787352
0.793885
0.808196
0.820167
0.82662
0.831217
0.835179
0.83666
0.832737
0.831871
0.834986
0.839434
0.846699
0.862997
0.87752
0.885325
0.890695
0.89542
0.896511
0.889766
0.887827
0.891271
0.896547
0.905855
0.925895
0.942369
0.951227
0.957531
0.962778
0.961122
0.951874
0.950804
0.95592
0.963014
0.976855
1.00306
1.02071
1.03021
1.03807
1.04378
1.03597
1.02409
1.02563
1.03418
1.04509
1.07036
1.10395
1.12375
1.13615
1.14737
1.14979
1.13113
1.12103
1.13036
1.14735
1.17331
1.21694
1.25486
1.28438
1.31263
1.32536
1.31382
1.3069
1.28533
2.24338
8.43271
0.653343
0.660516
0.670855
0.67758
0.681713
0.685071
0.688026
0.690317
0.690835
0.691723
0.693977
0.696932
0.702167
0.713558
0.722609
0.727671
0.731403
0.734617
0.736895
0.736443
0.736652
0.738915
0.742101
0.746965
0.758936
0.77026
0.776409
0.780661
0.784318
0.786701
0.785059
0.784447
0.786925
0.790576
0.795806
0.808795
0.822073
0.829207
0.833929
0.837871
0.839924
0.836797
0.835688
0.838618
0.842949
0.848945
0.863638
0.879319
0.887631
0.892987
0.897512
0.89934
0.893454
0.890844
0.894159
0.899508
0.907282
0.925603
0.944066
0.953854
0.960328
0.965853
0.967006
0.95725
0.953024
0.957279
0.964275
0.974967
0.999525
1.02149
1.03267
1.04075
1.0479
1.04567
1.03108
1.02665
1.03361
1.04368
1.0609
1.09544
1.12328
1.1389
1.1511
1.16019
1.14913
1.13037
1.1293
1.14339
1.16337
1.19937
1.24116
1.27388
1.30139
1.32562
1.32584
1.31192
1.27209
2.20256
8.45687
0.656197
0.662807
0.673468
0.680934
0.685364
0.688873
0.691955
0.694532
0.69485
0.694938
0.696853
0.699743
0.704384
0.715417
0.725541
0.731173
0.735132
0.738493
0.741217
0.740912
0.740258
0.742097
0.74516
0.749265
0.759814
0.772575
0.779702
0.784258
0.788018
0.79102
0.789992
0.78835
0.790182
0.79361
0.798085
0.809153
0.823655
0.831984
0.837158
0.84141
0.844765
0.842917
0.839872
0.841637
0.845601
0.850764
0.863183
0.879949
0.889555
0.895453
0.900496
0.904275
0.900521
0.895235
0.897005
0.901939
0.908368
0.923817
0.944397
0.956034
0.962923
0.968814
0.972955
0.965795
0.957275
0.958786
0.965209
0.973654
0.993669
1.02053
1.03582
1.04459
1.05201
1.05484
1.04158
1.03133
1.03386
1.04279
1.0546
1.0815
1.1167
1.13875
1.15309
1.16533
1.16713
1.14642
1.13421
1.14011
1.15635
1.18111
1.21952
1.25439
1.28283
1.30833
1.3246
1.31933
1.27935
2.16061
8.48179
0.658973
0.66528
0.676334
0.684526
0.689127
0.692662
0.695771
0.698314
0.698238
0.697787
0.699567
0.702483
0.707089
0.717941
0.728472
0.73435
0.738433
0.741904
0.744858
0.744822
0.743408
0.744912
0.747948
0.752059
0.761805
0.774853
0.782498
0.787253
0.791183
0.794634
0.79476
0.791972
0.792824
0.795993
0.800284
0.809861
0.824895
0.834356
0.839979
0.844572
0.84877
0.849416
0.844597
0.84391
0.847071
0.851726
0.861616
0.879509
0.891496
0.898267
0.903729
0.908712
0.908547
0.901138
0.899779
0.903465
0.90885
0.919557
0.941567
0.957456
0.965549
0.971727
0.977367
0.97465
0.963873
0.961927
0.966803
0.973751
0.986069
1.01353
1.0363
1.04793
1.0559
1.06223
1.05561
1.03986
1.03585
1.04195
1.05168
1.0681
1.10248
1.13378
1.15238
1.16586
1.1767
1.16949
1.14811
1.14267
1.15163
1.16866
1.19848
1.2357
1.26545
1.2891
1.30895
1.31487
1.28798
2.1391
8.50569
0.661749
0.66759
0.679013
0.688161
0.692959
0.696436
0.699421
0.70175
0.701393
0.700614
0.702311
0.70524
0.709605
0.720311
0.731574
0.737777
0.741866
0.745267
0.748284
0.748782
0.746727
0.747582
0.750495
0.75441
0.763397
0.777009
0.785477
0.790559
0.794603
0.798245
0.79965
0.796138
0.795352
0.798065
0.80207
0.809949
0.825719
0.837325
0.843639
0.848331
0.852584
0.854797
0.849643
0.846356
0.848424
0.852755
0.860147
0.878001
0.894394
0.902852
0.908371
0.913299
0.915411
0.90807
0.903014
0.904502
0.909226
0.916423
0.93577
0.957924
0.96931
0.976118
0.982234
0.983932
0.973333
0.966353
0.967801
0.97366
0.98166
1.00182
1.03205
1.05013
1.06005
1.06789
1.07032
1.0541
1.04144
1.04258
1.05083
1.06125
1.08392
1.12021
1.14646
1.16316
1.17678
1.18542
1.17332
1.15301
1.15101
1.16191
1.18067
1.21352
1.24702
1.27198
1.29053
1.30255
1.29519
2.13478
8.52643
0.664753
0.669974
0.68113
0.691279
0.696403
0.699879
0.70277
0.705076
0.704974
0.704015
0.70545
0.708245
0.712016
0.721592
0.73401
0.740971
0.745216
0.7487
0.751855
0.753126
0.75078
0.750745
0.753229
0.756734
0.763958
0.778207
0.788349
0.793846
0.798005
0.801773
0.804231
0.801016
0.798675
0.800545
0.804236
0.810106
0.825078
0.839788
0.847266
0.852109
0.856355
0.859458
0.855307
0.849861
0.850772
0.854757
0.860241
0.874686
0.895175
0.906414
0.912442
0.917265
0.920505
0.914962
0.906548
0.906428
0.91041
0.916231
0.929034
0.954601
0.972114
0.980606
0.986839
0.990887
0.983818
0.971402
0.969222
0.973632
0.980556
0.991812
1.02057
1.04824
1.06226
1.07101
1.07821
1.07411
1.05483
1.0467
1.05006
1.05862
1.07112
1.10056
1.13554
1.15859
1.17431
1.18757
1.19162
1.17583
1.15853
1.15894
1.17055
1.19164
1.22616
1.25562
1.27483
1.28713
1.2948
2.14802
8.54607
0.667975
0.672677
0.682691
0.693814
0.699513
0.7031
0.706021
0.708534
0.70905
0.707933
0.709044
0.711599
0.714781
0.722027
0.735249
0.743805
0.74852
0.752197
0.755522
0.757561
0.755329
0.754362
0.756342
0.75947
0.764546
0.777901
0.790649
0.79713
0.801427
0.805201
0.808271
0.806284
0.802552
0.803674
0.806908
0.811289
0.822828
0.840448
0.850273
0.855563
0.859838
0.863474
0.861426
0.854686
0.854291
0.857604
0.862193
0.870986
0.891827
0.907656
0.914959
0.919954
0.924087
0.922584
0.912845
0.909755
0.91294
0.918366
0.925664
0.946302
0.970928
0.983336
0.990182
0.995544
0.996032
0.982328
0.973721
0.975253
0.981171
0.988366
1.00496
1.0379
1.06085
1.07257
1.08115
1.08766
1.07702
1.05664
1.05206
1.05782
1.06751
1.08323
1.11613
1.14739
1.16758
1.18247
1.19502
1.19692
1.17912
1.16342
1.16497
1.17657
1.19974
1.2338
1.2591
1.27302
1.28716
2.1745
8.5657
0.671397
0.675613
0.683685
0.695457
0.702104
0.706129
0.709339
0.712198
0.713692
0.712407
0.712717
0.714859
0.717674
0.722427
0.73494
0.746017
0.751734
0.755699
0.759166
0.761943
0.760564
0.758168
0.759425
0.762266
0.766002
0.776273
0.791539
0.800032
0.804815
0.808709
0.812188
0.811972
0.807265
0.806993
0.809735
0.813418
0.820427
0.83812
0.852206
0.858904
0.863407
0.867434
0.868217
0.861525
0.858604
0.860686
0.864476
0.869663
0.884912
0.90618
0.917067
0.922944
0.927952
0.930843
0.923389
0.916129
0.916888
0.920573
0.925815
0.936224
0.962373
0.982886
0.992354
0.998862
1.00443
0.999971
0.984277
0.979145
0.981699
0.987618
0.996036
1.01966
1.05308
1.07232
1.0826
1.09063
1.09407
1.07928
1.06208
1.0602
1.06627
1.0762
1.09565
1.12967
1.15753
1.17601
1.1903
1.20135
1.20032
1.18154
1.16677
1.16819
1.17902
1.20429
1.23698
1.25701
1.2761
2.2097
8.58715
0.674862
0.678642
0.684369
0.69637
0.704596
0.709229
0.712744
0.715822
0.718297
0.717498
0.716352
0.717734
0.720367
0.723936
0.734047
0.747577
0.754883
0.759196
0.762741
0.765878
0.765985
0.762386
0.762452
0.764954
0.76831
0.775037
0.790759
0.802443
0.808199
0.812249
0.815885
0.817641
0.813079
0.810473
0.812246
0.815605
0.820164
0.833542
0.852157
0.861728
0.867045
0.871361
0.874579
0.870132
0.863365
0.863089
0.865922
0.870258
0.878601
0.900457
0.9185
0.926904
0.932281
0.937091
0.935804
0.924494
0.919513
0.920825
0.925272
0.931519
0.949123
0.978306
0.994967
1.00311
1.00965
1.01355
1.00093
0.985349
0.983233
0.987822
0.994739
1.00509
1.03372
1.06494
1.08109
1.09076
1.09942
1.10227
1.08389
1.06753
1.06717
1.07443
1.08509
1.10778
1.14088
1.16572
1.18292
1.19687
1.20655
1.20346
1.1828
1.16774
1.16837
1.17792
1.20516
1.23362
1.25876
2.25007
8.60869
0.678204
0.681577
0.685424
0.696592
0.707063
0.712498
0.716209
0.719403
0.722262
0.722445
0.71984
0.720494
0.723038
0.726319
0.733706
0.748233
0.757677
0.76255
0.766177
0.769394
0.7709
0.767221
0.76567
0.767688
0.770898
0.775408
0.788448
0.803789
0.811355
0.815753
0.819447
0.822489
0.819849
0.814445
0.814699
0.817703
0.821681
0.82964
0.849015
0.863699
0.870498
0.875061
0.879098
0.879005
0.870023
0.865953
0.867968
0.871948
0.87716
0.892004
0.916608
0.930142
0.936783
0.941785
0.944785
0.935876
0.923803
0.922195
0.925888
0.931506
0.940188
0.965538
0.992719
1.00529
1.012
1.01727
1.01885
1.0033
0.9903
0.98974
0.994137
1.00113
1.01443
1.04765
1.07716
1.09204
1.10112
1.10841
1.1071
1.08778
1.07384
1.07431
1.08161
1.09314
1.11947
1.15183
1.1744
1.18996
1.20276
1.21038
1.20518
1.18275
1.16623
1.16533
1.17455
1.20188
1.23467
2.28613
8.62675
0.68128
0.684328
0.68731
0.696478
0.709008
0.715764
0.719652
0.722871
0.725787
0.726879
0.72396
0.723678
0.725945
0.729016
0.734094
0.747593
0.759812
0.765691
0.769456
0.772687
0.775114
0.772707
0.769447
0.770651
0.77366
0.777321
0.785735
0.802969
0.813909
0.819178
0.82298
0.826454
0.826778
0.820168
0.81787
0.820203
0.823848
0.828521
0.84259
0.862935
0.873214
0.878584
0.882767
0.885897
0.879972
0.871224
0.870771
0.873987
0.878506
0.885908
0.907906
0.929649
0.939152
0.944711
0.949305
0.949205
0.935571
0.927631
0.929178
0.93333
0.938578
0.949538
0.979185
1.00266
1.01309
1.02059
1.02734
1.0255
1.00588
0.994688
0.995809
1.0014
1.00886
1.02484
1.05965
1.08586
1.09885
1.10797
1.11603
1.11386
1.09278
1.07928
1.08063
1.08852
1.10191
1.13075
1.16119
1.18152
1.19589
1.20756
1.21361
1.20607
1.18174
1.1625
1.15992
1.16798
1.20434
2.30866
8.63984
0.68437
0.687046
0.689664
0.696235
0.70979
0.71864
0.723039
0.726341
0.72929
0.731168
0.728724
0.727229
0.728994
0.731877
0.735567
0.745794
0.760667
0.768442
0.772628
0.77595
0.778934
0.778767
0.774348
0.774006
0.776502
0.779793
0.78449
0.79903
0.814967
0.82235
0.826595
0.830308
0.832978
0.828308
0.822483
0.822958
0.825861
0.8297
0.837135
0.857574
0.874313
0.881633
0.886331
0.890555
0.890875
0.880368
0.874689
0.876273
0.87998
0.884746
0.896189
0.922172
0.939802
0.947759
0.953357
0.958028
0.95431
0.939194
0.932965
0.93403
0.937851
0.943768
0.96022
0.993033
1.01393
1.02332
1.02987
1.03506
1.02984
1.01048
1.0014
1.00276
1.00769
1.01519
1.03535
1.07107
1.09506
1.10749
1.11642
1.12276
1.11823
1.09818
1.08594
1.08699
1.09419
1.10881
1.13997
1.16944
1.18815
1.20091
1.21103
1.21523
1.20624
1.18046
1.15766
1.14844
1.16854
2.30073
8.65025
0.68753
0.689734
0.692243
0.696735
0.709198
0.72091
0.726451
0.729874
0.732838
0.735277
0.733985
0.731158
0.732093
0.734702
0.737858
0.744022
0.759165
0.770513
0.775803
0.779418
0.782714
0.784803
0.780944
0.777884
0.779117
0.781857
0.785383
0.794253
0.81319
0.824957
0.830485
0.834322
0.837842
0.837329
0.829123
0.826024
0.82796
0.831432
0.835936
0.849117
0.871773
0.884226
0.89033
0.894613
0.898231
0.893089
0.881729
0.879151
0.881459
0.88541
0.890889
0.907904
0.935406
0.9503
0.957505
0.963086
0.966946
0.95699
0.94041
0.93622
0.939373
0.944649
0.951362
0.971666
1.00408
1.02185
1.03053
1.03765
1.04345
1.03533
1.01459
1.0063
1.00889
1.01529
1.02362
1.04556
1.0798
1.10139
1.1132
1.12242
1.12978
1.1254
1.10354
1.09032
1.09114
1.09845
1.11455
1.14689
1.17527
1.19264
1.20446
1.21309
1.21554
1.20548
1.17821
1.14864
1.1392
2.26364
8.66047
0.690997
0.692584
0.69502
0.698415
0.707671
0.721839
0.729375
0.733266
0.736276
0.739019
0.73965
0.736117
0.735453
0.737465
0.74029
0.743939
0.755279
0.771083
0.778993
0.783187
0.786674
0.789835
0.788727
0.782639
0.781613
0.783884
0.787227
0.792168
0.807767
0.825682
0.83375
0.838155
0.841788
0.844378
0.838521
0.830709
0.830638
0.83372
0.837525
0.843514
0.86289
0.8837
0.892803
0.898084
0.902445
0.904672
0.894644
0.884311
0.883494
0.886401
0.890796
0.898102
0.92138
0.947335
0.958996
0.964983
0.96961
0.972607
0.960867
0.945806
0.943111
0.945612
0.950478
0.958259
0.982876
1.01486
1.03116
1.03914
1.04498
1.04988
1.04171
1.02202
1.01432
1.01581
1.02083
1.02943
1.05505
1.08957
1.1101
1.1213
1.12992
1.13558
1.12988
1.10858
1.09509
1.09498
1.10141
1.11785
1.15126
1.17956
1.19603
1.20653
1.2132
1.21398
1.2031
1.16842
1.13268
2.20191
8.67218
0.69518
0.695801
0.698009
0.700899
0.706423
0.720349
0.731175
0.736243
0.739657
0.742703
0.745095
0.742689
0.739374
0.74008
0.742437
0.745505
0.751987
0.768829
0.781388
0.787076
0.790623
0.793869
0.795525
0.789508
0.785051
0.786438
0.789607
0.793255
0.801595
0.821722
0.835498
0.84154
0.84543
0.849028
0.848856
0.83929
0.834608
0.836039
0.839135
0.843188
0.852639
0.876553
0.894063
0.901797
0.9068
0.911019
0.909238
0.894822
0.88759
0.889041
0.892785
0.897131
0.905736
0.932673
0.956398
0.96663
0.97327
0.979161
0.980497
0.963875
0.949116
0.947659
0.951655
0.957259
0.965297
0.991473
1.02217
1.03719
1.04601
1.05362
1.0584
1.04761
1.02607
1.01802
1.02086
1.02751
1.03772
1.06508
1.09747
1.11593
1.12661
1.13545
1.14232
1.13665
1.11303
1.09796
1.09723
1.10332
1.11981
1.15366
1.18172
1.19726
1.20654
1.21126
1.21143
1.19374
1.15308
2.14373
8.68796
0.700264
0.699424
0.700953
0.703427
0.706646
0.716884
0.731656
0.739225
0.74323
0.746502
0.749511
0.749768
0.744474
0.742921
0.744813
0.747759
0.751706
0.764017
0.781454
0.789823
0.794109
0.797478
0.800457
0.798292
0.790813
0.789712
0.7921
0.795338
0.799492
0.813275
0.834108
0.844194
0.849241
0.852941
0.856086
0.851326
0.840792
0.83857
0.841018
0.844693
0.849272
0.863513
0.889148
0.903241
0.909683
0.914383
0.918309
0.913283
0.898617
0.893344
0.894331
0.897403
0.902226
0.914825
0.945328
0.966826
0.975811
0.981139
0.985677
0.985731
0.968973
0.95586
0.954467
0.957121
0.962131
0.971731
1.00243
1.03337
1.04712
1.05413
1.05966
1.06345
1.05301
1.03309
1.02572
1.02754
1.03299
1.04347
1.07338
1.10582
1.12374
1.13392
1.14206
1.14752
1.14109
1.11743
1.10126
1.09947
1.10457
1.12031
1.15416
1.18206
1.19682
1.20454
1.20841
1.20401
1.18607
2.11711
8.70781
0.705838
0.703183
0.703373
0.70557
0.708438
0.714494
0.729897
0.741554
0.746874
0.750242
0.753241
0.755333
0.751162
0.746677
0.747561
0.750231
0.753426
0.75997
0.777549
0.791383
0.797428
0.801098
0.8044
0.806128
0.799466
0.793794
0.794528
0.797375
0.800876
0.807096
0.826416
0.844809
0.852599
0.856926
0.860556
0.8621
0.852314
0.843623
0.843679
0.846605
0.85028
0.855635
0.874546
0.899849
0.911983
0.918368
0.923415
0.926548
0.916149
0.900262
0.896723
0.899742
0.904085
0.909028
0.923665
0.954845
0.973741
0.982101
0.988752
0.994516
0.992417
0.972925
0.959716
0.959378
0.964124
0.969965
0.980109
1.01088
1.03873
1.05103
1.05895
1.06643
1.0712
1.06001
1.03864
1.03004
1.03218
1.03855
1.05033
1.0807
1.11164
1.12856
1.13857
1.14699
1.15353
1.1475
1.12227
1.10397
1.10091
1.10497
1.11923
1.1527
1.1805
1.19437
1.20167
1.20148
1.20703
2.12597
8.73061
0.710775
0.707582
0.706307
0.708427
0.711229
0.71496
0.726378
0.742071
0.74965
0.753542
0.756585
0.759322
0.758404
0.752091
0.750789
0.752852
0.755803
0.759568
0.770969
0.790067
0.799946
0.804652
0.807994
0.811111
0.80938
0.800308
0.79766
0.799805
0.803147
0.80678
0.816091
0.838806
0.853976
0.860499
0.864668
0.868321
0.866705
0.854031
0.847709
0.848638
0.851574
0.855559
0.862871
0.886455
0.910073
0.920245
0.925619
0.92977
0.932081
0.920634
0.906526
0.903801
0.905309
0.908829
0.914457
0.933542
0.965688
0.983362
0.990884
0.995683
1.00012
0.998218
0.980196
0.968149
0.967146
0.969388
0.97412
0.985967
1.0195
1.0476
1.06004
1.06721
1.07336
1.07732
1.06712
1.04598
1.03661
1.03739
1.04236
1.05349
1.08559
1.11816
1.1358
1.14565
1.15334
1.15852
1.15294
1.12716
1.10604
1.10098
1.10408
1.11669
1.14978
1.17726
1.19153
1.19415
1.21395
2.16316
8.75666
0.714926
0.713536
0.710391
0.711774
0.714317
0.717195
0.723303
0.739279
0.751406
0.756676
0.759887
0.762722
0.764453
0.759612
0.754955
0.755793
0.758497
0.761629
0.76688
0.783342
0.800241
0.807442
0.811408
0.814811
0.817206
0.810838
0.802933
0.802699
0.805126
0.808338
0.812558
0.826461
0.850285
0.862787
0.868693
0.872748
0.875952
0.869632
0.855494
0.851597
0.854096
0.857889
0.861872
0.870348
0.896476
0.9182
0.927387
0.933331
0.93854
0.939713
0.924089
0.90923
0.907484
0.911144
0.915898
0.921571
0.941217
0.972256
0.988459
0.996492
1.00325
1.00867
1.00562
0.985685
0.971706
0.970642
0.975138
0.981248
0.994363
1.02725
1.05315
1.06507
1.07317
1.08058
1.0851
1.07406
1.05096
1.03993
1.04088
1.04672
1.05892
1.09044
1.12248
1.14012
1.15015
1.1578
1.16291
1.15776
1.13146
1.10744
1.10027
1.10214
1.1135
1.14576
1.17319
1.18362
1.21099
2.21715
8.78417
0.718843
0.720755
0.715849
0.715284
0.717189
0.719814
0.723061
0.733481
0.750479
0.758961
0.76303
0.766168
0.769106
0.768574
0.761599
0.759493
0.761283
0.76404
0.76713
0.775008
0.795293
0.809223
0.815139
0.818717
0.82204
0.821881
0.811751
0.806111
0.807239
0.810393
0.813952
0.819297
0.837653
0.860293
0.870503
0.875871
0.879888
0.882299
0.873187
0.860606
0.858269
0.85993
0.862934
0.867257
0.878829
0.907317
0.92736
0.935618
0.94029
0.944191
0.945009
0.929916
0.916739
0.914966
0.916641
0.920434
0.92682
0.949786
0.981797
0.997591
1.00443
1.00891
1.01363
1.01233
0.993727
0.980021
0.978429
0.981084
0.986229
1.00045
1.03519
1.06173
1.07348
1.08014
1.08578
1.09053
1.08186
1.05886
1.04669
1.04628
1.05034
1.06022
1.09145
1.12561
1.14436
1.15424
1.16122
1.16588
1.16173
1.13595
1.10882
1.09886
1.09933
1.10917
1.14137
1.16375
1.19852
2.27479
8.80696
0.722658
0.726766
0.722893
0.71909
0.71986
0.722153
0.72483
0.729437
0.744745
0.759987
0.766594
0.770157
0.773226
0.775644
0.771134
0.764321
0.763853
0.765969
0.768947
0.772889
0.785287
0.806637
0.817637
0.822614
0.825901
0.828928
0.82474
0.813465
0.810655
0.812805
0.816064
0.819541
0.826079
0.847901
0.869062
0.878234
0.883554
0.887833
0.888995
0.876169
0.863445
0.862142
0.865409
0.869275
0.873558
0.88634
0.915513
0.933722
0.941557
0.947665
0.952838
0.95208
0.933938
0.919839
0.918679
0.922561
0.927587
0.933979
0.956608
0.986732
1.00144
1.00948
1.01639
1.02186
1.01974
0.999848
0.984296
0.982082
0.986034
0.992211
1.00679
1.03997
1.06497
1.07687
1.08572
1.09318
1.09814
1.08909
1.06407
1.04936
1.04814
1.0529
1.0631
1.0931
1.12758
1.14695
1.15687
1.16354
1.16799
1.16543
1.14083
1.10998
1.09625
1.09476
1.10496
1.13242
1.17552
2.32331
8.81945
0.726313
0.731148
0.730817
0.724922
0.723027
0.724442
0.726858
0.729824
0.737785
0.756755
0.768915
0.774043
0.777124
0.78006
0.780517
0.772241
0.767439
0.768609
0.771444
0.774538
0.779264
0.795737
0.816258
0.825478
0.83016
0.833553
0.835538
0.826875
0.816743
0.815605
0.817777
0.82098
0.824917
0.833744
0.858045
0.877309
0.885377
0.890149
0.893997
0.894431
0.881287
0.870284
0.869052
0.870631
0.873844
0.878787
0.895113
0.925456
0.942692
0.949739
0.953938
0.957683
0.957249
0.940925
0.928197
0.926536
0.928145
0.931758
0.938697
0.964119
0.995726
1.0107
1.01738
1.022
1.02687
1.02631
1.00756
0.991497
0.988419
0.990841
0.995756
1.00956
1.04498
1.07322
1.08563
1.09237
1.09781
1.10296
1.0967
1.07237
1.05622
1.05355
1.0568
1.06484
1.09249
1.12777
1.14851
1.15894
1.16548
1.16952
1.16775
1.1453
1.11141
1.09228
1.08938
1.09629
1.14499
2.34943
8.82669
0.729841
0.735004
0.73704
0.733355
0.72736
0.72714
0.72934
0.73215
0.735905
0.748311
0.767414
0.776479
0.780763
0.783825
0.786718
0.783653
0.77436
0.772248
0.773975
0.776526
0.779643
0.785992
0.806363
0.825452
0.833487
0.837834
0.841055
0.84116
0.829079
0.820174
0.82037
0.823512
0.82701
0.830732
0.840864
0.866734
0.884685
0.892327
0.897545
0.902075
0.901245
0.8849
0.873016
0.872771
0.876385
0.880604
0.885361
0.90211
0.931578
0.947344
0.954694
0.96085
0.965901
0.964821
0.947068
0.932202
0.929865
0.933495
0.938528
0.945897
0.970302
0.999865
1.0142
1.02227
1.02922
1.03493
1.03386
1.01418
0.996309
0.9924
0.996007
1.00185
1.01545
1.04848
1.07528
1.088
1.09717
1.10515
1.11073
1.10517
1.07986
1.06047
1.05594
1.05885
1.06544
1.0907
1.1275
1.14987
1.16036
1.16627
1.16975
1.1683
1.14893
1.11341
1.08955
1.07701
1.10835
2.33682
8.82704
0.732936
0.738833
0.741386
0.741982
0.734896
0.730993
0.73213
0.734485
0.737094
0.742025
0.75906
0.776695
0.784073
0.787993
0.791117
0.793023
0.785486
0.776909
0.776315
0.778743
0.781885
0.785383
0.793936
0.816483
0.833367
0.840585
0.845159
0.848609
0.846555
0.833208
0.826182
0.826479
0.828476
0.831773
0.83623
0.849414
0.876215
0.892722
0.899669
0.903832
0.907249
0.906333
0.891282
0.880913
0.880114
0.881662
0.884968
0.89037
0.909655
0.939965
0.95584
0.962468
0.966504
0.970703
0.971586
0.955965
0.94094
0.937963
0.939278
0.942707
0.949841
0.97585
1.00779
1.02313
1.03002
1.03471
1.03999
1.041
1.02339
1.00481
0.999796
1.00122
1.00533
1.01661
1.05061
1.0824
1.0973
1.10463
1.11044
1.11517
1.11071
1.0864
1.06504
1.05866
1.06063
1.06677
1.09004
1.12639
1.14954
1.16008
1.16562
1.16877
1.16765
1.15121
1.11591
1.08161
1.08066
2.28513
8.82476
0.734881
0.74272
0.7453
0.747757
0.744812
0.736618
0.734765
0.73634
0.738936
0.742132
0.75001
0.77051
0.785624
0.791736
0.795119
0.79811
0.797627
0.786781
0.780723
0.781643
0.784333
0.787311
0.79084
0.801435
0.825714
0.841452
0.848248
0.85272
0.856013
0.851653
0.836159
0.829257
0.830833
0.834498
0.838266
0.842391
0.856529
0.883559
0.898674
0.905357
0.910743
0.915264
0.913277
0.895851
0.883949
0.883583
0.887207
0.891613
0.896816
0.915322
0.944491
0.959673
0.967312
0.973686
0.978747
0.979122
0.963068
0.94566
0.941099
0.944065
0.949021
0.956511
0.980641
1.01073
1.02609
1.03494
1.04255
1.04839
1.04919
1.03138
1.01007
1.00287
1.00522
1.01071
1.0216
1.05241
1.08355
1.09876
1.10707
1.11387
1.1197
1.11769
1.0954
1.07185
1.06286
1.06327
1.06739
1.08676
1.12311
1.14776
1.15887
1.1643
1.16717
1.16575
1.15211
1.11084
1.07895
2.20488
8.83034
0.735162
0.746336
0.748928
0.751393
0.752552
0.745427
0.738794
0.739201
0.741812
0.744793
0.748349
0.758809
0.780478
0.793335
0.798939
0.802252
0.805086
0.801073
0.789144
0.785187
0.786401
0.788932
0.792237
0.796676
0.810118
0.834629
0.848512
0.854548
0.858773
0.861696
0.856317
0.842053
0.83675
0.837594
0.839629
0.842933
0.847892
0.864788
0.892163
0.906596
0.912728
0.916338
0.919736
0.918807
0.903406
0.89233
0.891153
0.892583
0.895714
0.901202
0.921838
0.95279
0.968467
0.974899
0.978744
0.982927
0.985459
0.972204
0.954325
0.949027
0.949848
0.952955
0.959435
0.984166
1.0182
1.0356
1.04307
1.04781
1.0526
1.05533
1.04136
1.01952
1.01078
1.01055
1.01334
1.0211
1.05034
1.08593
1.10484
1.11362
1.12
1.12578
1.12569
1.10457
1.07686
1.06409
1.06312
1.06682
1.08326
1.11925
1.1458
1.15747
1.16262
1.16449
1.16364
1.14544
1.11017
2.13846
8.84601
0.731247
0.747878
0.751761
0.754486
0.75715
0.756304
0.747354
0.743792
0.745218
0.747655
0.750236
0.753961
0.766976
0.789403
0.800994
0.806227
0.809423
0.811537
0.803819
0.791767
0.789439
0.791904
0.795278
0.798531
0.802543
0.81736
0.842074
0.855008
0.860931
0.865434
0.868855
0.862522
0.846506
0.840173
0.841911
0.845611
0.84943
0.853954
0.87095
0.897668
0.911118
0.917635
0.923193
0.927732
0.926338
0.909663
0.896205
0.894474
0.897845
0.902331
0.908045
0.927362
0.95629
0.971216
0.978903
0.985422
0.990681
0.9929
0.97966
0.959665
0.952189
0.954144
0.959014
0.966231
0.988695
1.02036
1.03745
1.0464
1.05401
1.0601
1.063
1.04971
1.0253
1.01304
1.01278
1.0175
1.02565
1.05138
1.0875
1.10907
1.11877
1.12461
1.12913
1.12891
1.11072
1.08192
1.06631
1.0636
1.06617
1.07994
1.11507
1.14275
1.15504
1.1596
1.16194
1.15656
1.15052
2.11852
8.86699
0.722984
0.74574
0.754355
0.758588
0.761468
0.764086
0.759884
0.750427
0.748225
0.749743
0.752323
0.755139
0.759722
0.775599
0.797466
0.807967
0.813182
0.816787
0.817867
0.807298
0.796989
0.795983
0.797658
0.800039
0.803381
0.808437
0.825509
0.849638
0.861767
0.867356
0.871132
0.874019
0.868612
0.854079
0.848285
0.848789
0.85047
0.853648
0.858839
0.877817
0.905188
0.919033
0.924992
0.928588
0.932687
0.933518
0.918735
0.905057
0.902514
0.903498
0.906268
0.911694
0.931923
0.963034
0.979636
0.986524
0.990586
0.995055
0.999151
0.989248
0.9689
0.960678
0.960746
0.963131
0.968544
0.989108
1.02414
1.04515
1.0539
1.05875
1.06344
1.06823
1.0601
1.03603
1.02192
1.01957
1.02136
1.02635
1.04809
1.08616
1.10987
1.11982
1.12574
1.13062
1.1325
1.11826
1.08839
1.06882
1.06398
1.0654
1.07601
1.10948
1.13836
1.15121
1.15687
1.1542
1.17284
2.13947
8.88914
0.717581
0.735546
0.754335
0.76227
0.766007
0.76886
0.770308
0.762108
0.753596
0.752915
0.75493
0.757553
0.760297
0.765264
0.783378
0.805318
0.815343
0.820362
0.823846
0.823891
0.811598
0.800782
0.799895
0.802827
0.806266
0.809382
0.813857
0.831604
0.855811
0.867355
0.873104
0.877969
0.881578
0.875746
0.859241
0.851463
0.852478
0.855987
0.859748
0.864385
0.882326
0.909304
0.923024
0.930177
0.936109
0.940743
0.941018
0.925454
0.909058
0.905233
0.908022
0.912421
0.918276
0.936355
0.965387
0.981861
0.990564
0.997884
1.00333
1.00673
0.996796
0.974707
0.963613
0.96388
0.968272
0.974395
0.991599
1.02369
1.0449
1.05578
1.065
1.0719
1.07629
1.06878
1.04308
1.02466
1.02047
1.02342
1.02905
1.04743
1.08387
1.11003
1.12193
1.12864
1.13402
1.13708
1.12623
1.09493
1.07063
1.06308
1.06354
1.07152
1.10328
1.13266
1.14752
1.14871
1.17887
2.19088
8.91553
0.718443
0.725862
0.74579
0.762818
0.769726
0.773368
0.776185
0.775571
0.764571
0.75782
0.757811
0.75961
0.762159
0.765342
0.771628
0.791548
0.812391
0.821577
0.826473
0.83025
0.829986
0.817662
0.808061
0.807064
0.808143
0.810201
0.813608
0.819504
0.839467
0.86351
0.874702
0.879801
0.883
0.88619
0.882714
0.867579
0.859587
0.859153
0.860301
0.863284
0.868534
0.88851
0.917486
0.931773
0.937663
0.941038
0.944533
0.946586
0.93435
0.918176
0.913594
0.91437
0.916769
0.921545
0.939113
0.971478
0.991032
0.998883
1.00316
1.00696
1.01147
1.00566
0.984614
0.97243
0.970749
0.972269
0.976345
0.9904
1.02554
1.05329
1.06509
1.07102
1.07527
1.07939
1.07605
1.05343
1.03293
1.02646
1.02701
1.03065
1.04406
1.0805
1.11193
1.12627
1.13243
1.13638
1.13852
1.13095
1.10118
1.07269
1.06178
1.06084
1.06689
1.09635
1.12687
1.13794
1.17615
2.25573
8.94158
0.720898
0.725214
0.733801
0.755414
0.770879
0.777304
0.780871
0.78351
0.780042
0.767163
0.761652
0.762674
0.76533
0.768081
0.771056
0.777164
0.798522
0.819524
0.828546
0.833208
0.837111
0.836875
0.82303
0.811081
0.809826
0.81268
0.816156
0.819667
0.825161
0.845273
0.868688
0.879231
0.884983
0.889951
0.893803
0.890109
0.872801
0.86226
0.862256
0.86557
0.869685
0.875149
0.894068
0.921085
0.934568
0.941382
0.947226
0.951966
0.954106
0.94243
0.923982
0.916853
0.918393
0.922617
0.928216
0.943659
0.973416
0.992255
1.00147
1.00884
1.01484
1.01923
1.01424
0.992602
0.976636
0.973709
0.977213
0.982712
0.994682
1.02551
1.05237
1.06524
1.07359
1.08093
1.0862
1.08461
1.06246
1.0382
1.02873
1.02937
1.03374
1.04565
1.07898
1.11092
1.12603
1.13256
1.13685
1.13968
1.13493
1.10744
1.07515
1.06005
1.05751
1.06207
1.09088
1.11499
1.16166
2.32012
8.96005
0.724109
0.728007
0.731154
0.741286
0.763991
0.778477
0.784612
0.788221
0.790483
0.783945
0.771129
0.767205
0.767975
0.769668
0.772536
0.776222
0.784221
0.807008
0.826634
0.834716
0.839058
0.84202
0.841331
0.828799
0.818366
0.817156
0.818559
0.820636
0.8241
0.830587
0.852334
0.876141
0.886715
0.891514
0.894403
0.89773
0.896264
0.881052
0.870826
0.869901
0.871251
0.873996
0.879158
0.898421
0.927265
0.942456
0.948752
0.952334
0.955939
0.959777
0.952097
0.933732
0.925586
0.92533
0.926984
0.931048
0.944698
0.976525
1.00009
1.00998