/*--------------------------------*- C++ -*----------------------------------*\
  =========                 |
  \\      /  F ield         | OpenFOAM: The Open Source CFD Toolbox
   \\    /   O peration     | Website:  https://openfoam.org
    \\  /    A nd           | Version:  12
     \\/     M anipulation  |
\*---------------------------------------------------------------------------*/
FoamFile
{
    format      ascii;
    class       surfaceScalarField;
    location    "9.4";
    object      phi;
}
// * * * * * * * * * * * * * * * * * * * * * * * * * * * * * * * * * * * * * //

dimensions      [1 0 -1 0 0 0 0];

internalField   nonuniform List<scalar> 
19404
(
-0.000120174
2.43124e-07
-0.000120007
2.86177e-07
-0.000119919
1.92432e-07
-0.000120068
1.19161e-07
-0.000121331
1.0399e-07
-0.000123072
1.99254e-07
-0.000123844
3.38169e-07
-0.000123998
3.54497e-07
-0.0001239
2.87343e-07
-0.000123594
1.9019e-07
-0.00012317
2.44946e-07
-0.000122866
3.28651e-07
-0.000122707
3.12023e-07
-0.000122614
2.34899e-07
-0.000122688
1.44092e-07
-0.000123843
1.27426e-07
-0.000125784
2.22364e-07
-0.000126703
3.49284e-07
-0.000126907
3.67858e-07
-0.000126798
2.70193e-07
-0.000126403
1.6804e-07
-0.000125898
2.22101e-07
-0.000125571
3.34096e-07
-0.000125424
3.23409e-07
-0.000125354
2.444e-07
-0.000125403
1.22315e-07
-0.000126654
1.20602e-07
-0.000128784
2.2435e-07
-0.000129732
3.6347e-07
-0.000129891
3.75626e-07
-0.0001297
2.70679e-07
-0.000129031
1.13116e-07
-0.000128425
2.22629e-07
-0.000128096
3.4176e-07
-0.000127979
3.30412e-07
-0.000127924
2.37596e-07
-0.000128023
1.23267e-07
-0.000129617
1.2586e-07
-0.000131904
2.4173e-07
-0.000132751
3.7499e-07
-0.00013283
3.29651e-07
-0.000132479
1.936e-07
-0.000131507
1.72363e-08
-0.000130696
2.12426e-07
-0.000130296
3.4193e-07
-0.000130182
3.36693e-07
-0.000130185
2.39325e-07
-0.000130382
1.04084e-07
-0.000132638
9.11412e-08
-0.000135195
2.74968e-07
-0.000135932
3.90919e-07
-0.000135876
3.36206e-07
-0.000134992
1.05361e-07
-0.000133459
-7.11223e-08
-0.000132505
1.41626e-07
-0.000132094
2.59451e-07
-0.000131993
3.23864e-07
-0.000132011
2.00034e-07
-0.000132599
7.00193e-08
-0.000135871
1.24975e-07
-0.000138363
3.29432e-07
-0.000138879
3.74552e-07
-0.000138756
3.18501e-07
-0.000136932
4.8772e-08
-0.000134552
-1.41487e-07
-0.000133445
4.01604e-08
-0.00013312
1.92739e-07
-0.000133113
2.09194e-07
-0.000133248
2.46509e-08
-0.000135275
1.78907e-08
-0.00013924
7.54754e-08
-0.000141046
1.55194e-07
-0.000141352
5.64031e-07
-0.000141065
2.74058e-07
-0.000137839
6.33187e-08
-0.000134278
-7.63221e-08
-0.000132963
-1.04279e-07
-0.000132814
7.71961e-08
-0.000132891
-2.02268e-07
-0.000134435
-8.57284e-08
-0.000139865
1.8495e-07
-0.000142976
1.53943e-07
-0.000143642
2.79518e-07
-0.0001436
4.39702e-07
-0.000141186
5.16747e-07
-0.000135168
-3.56909e-07
-0.000130618
-7.56666e-07
-0.000129464
1.32853e-07
-0.00012955
-9.42456e-07
-0.000133092
-7.02308e-07
-0.00014044
-9.697e-07
-0.000143677
-5.22992e-07
-0.000144511
4.58872e-09
-0.000144566
-1.40582e-07
-0.000140763
-2.73594e-07
-0.000132737
-2.23696e-07
-0.000122534
-3.57549e-06
-0.000115028
-1.95452e-05
1.37569e-05
-0.000128559
2.67588e-07
-0.000128328
3.60242e-07
-0.000128202
2.79132e-07
-0.000128414
2.22838e-07
-0.000130101
2.91952e-07
-0.000131474
3.91586e-07
-0.000131876
4.35526e-07
-0.000131915
4.68929e-07
-0.000131808
4.21803e-07
-0.000131341
3.35824e-07
-0.00013035
3.35232e-07
-0.000129768
3.42764e-07
-0.000129513
3.46149e-07
-0.000129407
3.2786e-07
-0.000129476
2.61315e-07
-0.000130881
2.80967e-07
-0.000132597
3.93949e-07
-0.000133173
4.56027e-07
-0.000133244
4.68818e-07
-0.000133185
4.295e-07
-0.000132659
3.29272e-07
-0.000131468
2.9679e-07
-0.000130863
3.29087e-07
-0.000130628
3.41989e-07
-0.000130524
3.02895e-07
-0.000130582
2.43897e-07
-0.000131861
2.46884e-07
-0.000133774
3.63356e-07
-0.000134477
4.76763e-07
-0.000134584
5.00983e-07
-0.000134528
4.41626e-07
-0.000133795
3.24628e-07
-0.000132394
2.90738e-07
-0.000131777
3.07913e-07
-0.000131558
3.25489e-07
-0.000131491
2.91395e-07
-0.000131574
2.30052e-07
-0.000133028
2.27719e-07
-0.000135214
3.66836e-07
-0.000135949
5.04212e-07
-0.00013604
4.92156e-07
-0.000135961
4.05539e-07
-0.000134739
2.78783e-07
-0.000133137
2.49486e-07
-0.000132527
2.71472e-07
-0.000132343
3.07295e-07
-0.000132306
2.75754e-07
-0.000132477
1.81393e-07
-0.000134498
1.89863e-07
-0.000136885
3.67358e-07
-0.000137589
5.163e-07
-0.000137651
5.35827e-07
-0.000137438
3.89938e-07
-0.000135447
2.45772e-07
-0.000133761
1.54527e-07
-0.000133216
1.82904e-07
-0.000133029
2.59099e-07
-0.000133028
2.45865e-07
-0.000133485
1.39418e-07
-0.000136553
1.69197e-07
-0.000138882
3.93228e-07
-0.000139419
5.08451e-07
-0.000139445
5.24354e-07
-0.000138655
4.03851e-07
-0.000135613
2.27179e-07
-0.000133932
4.80088e-08
-0.000133487
4.22994e-08
-0.000133385
1.09176e-07
-0.000133493
3.89837e-08
-0.000135458
-4.36484e-08
-0.000139586
1.44437e-07
-0.000141182
4.60178e-07
-0.000141427
6.38581e-07
-0.000141337
6.3332e-07
-0.000138882
4.7331e-07
-0.000134792
1.85025e-07
-0.00013322
-2.35955e-07
-0.000132939
-3.08024e-07
-0.000133036
-3.67078e-07
-0.000134558
-4.91239e-07
-0.000139257
-1.25793e-07
-0.00014204
2.4471e-07
-0.000142881
5.57876e-07
-0.000143045
6.41543e-07
-0.000142243
6.28174e-07
-0.000136294
7.92618e-08
-0.00013097
-6.97678e-07
-0.000129697
-1.17179e-06
-0.000129674
-1.18928e-06
-0.000131294
-1.59624e-06
-0.000136636
-1.85161e-06
-0.00013974
-1.24009e-06
-0.000140592
-8.82926e-07
-0.000140683
-1.20562e-06
-0.000136724
-1.71249e-06
-0.000127688
-2.46308e-06
-0.000117548
-6.8345e-06
-0.000123493
-2.36023e-05
1.97657e-05
-0.000128032
3.22613e-07
-0.000127762
4.20104e-07
-0.000127635
3.54183e-07
-0.000127846
3.34832e-07
-0.000129507
4.27368e-07
-0.000130872
5.52324e-07
-0.00013129
5.75973e-07
-0.000131336
5.70529e-07
-0.000131229
5.24861e-07
-0.000130847
4.8975e-07
-0.000129838
4.49132e-07
-0.000129234
4.35139e-07
-0.000128948
3.86688e-07
-0.000128832
3.98288e-07
-0.000128886
3.54029e-07
-0.000130269
4.04604e-07
-0.000131982
5.27491e-07
-0.000132583
5.91852e-07
-0.000132687
5.78349e-07
-0.000132609
5.3773e-07
-0.000132165
4.76644e-07
-0.000131027
4.43317e-07
-0.000130382
3.8453e-07
-0.000130089
3.54004e-07
-0.000129986
3.70631e-07
-0.000129996
3.41277e-07
-0.00013119
3.73407e-07
-0.000133153
5.24906e-07
-0.000133881
5.94428e-07
-0.000134018
6.06975e-07
-0.000133972
5.61807e-07
-0.000133357
4.87095e-07
-0.000132004
4.27048e-07
-0.000131365
3.40239e-07
-0.000131094
3.23799e-07
-0.000130999
3.41567e-07
-0.000131025
3.31756e-07
-0.00013233
3.42951e-07
-0.000134578
5.03612e-07
-0.000135376
6.32637e-07
-0.000135497
6.19602e-07
-0.000135424
5.65001e-07
-0.00013429
4.78924e-07
-0.000132768
3.72126e-07
-0.000132204
2.68835e-07
-0.000131976
2.60369e-07
-0.000131883
2.75607e-07
-0.000131974
2.82431e-07
-0.000133718
3.16577e-07
-0.000136205
5.09989e-07
-0.000137013
6.47672e-07
-0.000137108
6.74104e-07
-0.000136959
5.99998e-07
-0.000135133
4.85093e-07
-0.000133328
2.92772e-07
-0.000132704
1.58532e-07
-0.000132502
1.47124e-07
-0.00013249
1.80768e-07
-0.000132869
1.8992e-07
-0.000135672
2.54972e-07
-0.000138112
5.02215e-07
-0.000138764
6.60099e-07
-0.000138845
7.19728e-07
-0.000138349
6.3402e-07
-0.000135473
4.94451e-07
-0.000133351
1.62585e-07
-0.000132732
-6.16475e-08
-0.000132579
-8.47432e-08
-0.000132651
-6.56833e-08
-0.000134253
-6.70339e-08
-0.000138136
2.00901e-07
-0.000140027
5.62597e-07
-0.000140459
7.96547e-07
-0.000140496
8.34184e-07
-0.000138913
7.14067e-07
-0.000134521
2.77869e-07
-0.000132189
-3.18476e-07
-0.000131722
-6.0918e-07
-0.000131748
-6.36825e-07
-0.000132504
-7.2798e-07
-0.000136462
-5.08385e-07
-0.000140006
1.79315e-07
-0.000141332
6.50912e-07
-0.000141611
7.4891e-07
-0.000141342
6.8501e-07
-0.000136402
4.47513e-07
-0.000130062
-5.71871e-07
-0.000127821
-1.63699e-06
-0.000127721
-2.21352e-06
-0.000128146
-2.50255e-06
-0.000132102
-2.75398e-06
-0.000136099
-2.26752e-06
-0.000137459
-2.00148e-06
-0.000137754
-2.58635e-06
-0.000135313
-3.21734e-06
-0.000127328
-4.29988e-06
-0.000117632
-9.6557e-06
-0.000125151
-2.33995e-05
2.40091e-05
-0.000127041
4.12668e-07
-0.000126768
5.28934e-07
-0.000126646
4.38786e-07
-0.000126891
3.96002e-07
-0.000128554
5.03237e-07
-0.000129875
6.60868e-07
-0.000130279
7.15237e-07
-0.000130326
6.93569e-07
-0.000130247
6.59088e-07
-0.000129927
6.1103e-07
-0.000128914
6.0767e-07
-0.000128194
5.58151e-07
-0.000127913
4.96268e-07
-0.000127787
4.52517e-07
-0.000127923
4.20108e-07
-0.000129339
4.66384e-07
-0.000131004
6.40019e-07
-0.000131577
7.06392e-07
-0.000131681
6.93359e-07
-0.00013163
6.61897e-07
-0.000131326
6.19001e-07
-0.000130128
5.83682e-07
-0.000129332
5.19499e-07
-0.000129023
4.61099e-07
-0.000128898
4.23222e-07
-0.000128975
4.06725e-07
-0.000130217
4.50938e-07
-0.000132144
6.22322e-07
-0.000132898
7.15664e-07
-0.000133054
7.22013e-07
-0.000133014
6.57188e-07
-0.000132591
6.18026e-07
-0.000131127
5.80317e-07
-0.000130315
4.82739e-07
-0.000129993
4.04495e-07
-0.000129891
3.88904e-07
-0.000129948
3.67256e-07
-0.00013126
4.20138e-07
-0.000133543
5.95324e-07
-0.000134394
7.25121e-07
-0.000134557
7.51421e-07
-0.000134523
7.02642e-07
-0.00013368
6.42094e-07
-0.000131932
5.46544e-07
-0.000131144
3.66129e-07
-0.000130828
3.05216e-07
-0.000130739
3.09589e-07
-0.000130815
3.12069e-07
-0.000132427
3.64535e-07
-0.000135027
5.79039e-07
-0.000135976
7.6434e-07
-0.000136142
8.061e-07
-0.000136086
7.56208e-07
-0.000134686
6.74029e-07
-0.000132362
4.9608e-07
-0.000131486
2.36496e-07
-0.000131209
9.04794e-08
-0.000131175
9.96415e-08
-0.000131491
1.18113e-07
-0.000134058
2.77804e-07
-0.000136672
5.8796e-07
-0.000137504
8.08831e-07
-0.000137637
8.9488e-07
-0.000137519
8.26278e-07
-0.000135216
6.97209e-07
-0.000132249
3.07545e-07
-0.000131246
-7.86972e-08
-0.000131
-2.53334e-07
-0.000131039
-2.17553e-07
-0.000132056
-2.23832e-07
-0.000135785
8.41565e-08
-0.000138181
6.15466e-07
-0.000138838
9.08942e-07
-0.000138923
9.5307e-07
-0.00013846
8.38705e-07
-0.000134377
4.69736e-07
-0.000130641
-2.43069e-07
-0.000129675
-7.77476e-07
-0.000129605
-1.00066e-06
-0.000129826
-1.07619e-06
-0.000132633
-1.03189e-06
-0.000136808
-3.75587e-07
-0.000138486
3.84748e-07
-0.000138884
7.72512e-07
-0.000138935
7.69407e-07
-0.000136586
6.35923e-07
-0.000129925
-2.85682e-07
-0.000125833
-1.75323e-06
-0.000125086
-3.0536e-06
-0.000125091
-3.58858e-06
-0.000126649
-3.90933e-06
-0.000130061
-3.76472e-06
-0.000131871
-3.57379e-06
-0.000132202
-4.27545e-06
-0.000131546
-4.95024e-06
-0.000127285
-5.58465e-06
-0.00012076
-9.89504e-06
-0.000125003
-2.13087e-05
2.71033e-05
-0.000125943
5.20235e-07
-0.000125629
6.31832e-07
-0.00012548
5.29978e-07
-0.00012573
4.68256e-07
-0.000127455
5.70072e-07
-0.000128784
7.6211e-07
-0.000129168
8.34682e-07
-0.000129211
8.21455e-07
-0.000129129
8.07542e-07
-0.000128875
7.5034e-07
-0.000127911
7.18514e-07
-0.000127102
6.73646e-07
-0.000126765
5.93398e-07
-0.000126632
5.46322e-07
-0.00012671
4.6644e-07
-0.000128188
5.27358e-07
-0.000129838
7.17928e-07
-0.000130426
8.36422e-07
-0.000130546
8.30739e-07
-0.000130501
8.02405e-07
-0.000130261
7.40107e-07
-0.000129156
7.05181e-07
-0.00012819
6.4729e-07
-0.000127827
5.73673e-07
-0.000127692
5.145e-07
-0.000127719
4.62126e-07
-0.00012897
4.87906e-07
-0.000130959
6.91185e-07
-0.00013174
8.2917e-07
-0.000131889
8.39949e-07
-0.000131881
8.1274e-07
-0.000131585
7.57642e-07
-0.000130147
6.99399e-07
-0.000129125
5.96155e-07
-0.000128767
4.69654e-07
-0.000128642
4.45649e-07
-0.000128672
4.22108e-07
-0.000129866
4.5196e-07
-0.000132165
6.64361e-07
-0.000133137
8.30681e-07
-0.000133341
8.86864e-07
-0.000133347
8.76548e-07
-0.000132854
8.00713e-07
-0.000130928
6.79525e-07
-0.000129806
4.78294e-07
-0.000129428
3.10115e-07
-0.00012933
3.13233e-07
-0.000129407
3.11626e-07
-0.000130873
3.69651e-07
-0.000133463
6.19906e-07
-0.000134537
8.69678e-07
-0.000134775
9.52154e-07
-0.000134781
9.43844e-07
-0.000134058
8.84114e-07
-0.000131459
6.46732e-07
-0.000130065
2.99162e-07
-0.000129703
5.73033e-08
-0.000129621
1.4054e-08
-0.000129832
3.32695e-08
-0.000131989
1.88878e-07
-0.000134769
5.92986e-07
-0.000135821
9.47683e-07
-0.000136066
1.05212e-06
-0.000136093
1.00903e-06
-0.000134988
8.7477e-07
-0.000131502
4.614e-07
-0.000129594
-3.14093e-08
-0.000129203
-3.1969e-07
-0.00012916
-4.14015e-07
-0.000129624
-4.39463e-07
-0.000132797
-2.32147e-07
-0.000135867
4.4855e-07
-0.000136798
9.65844e-07
-0.000136966
1.0875e-06
-0.000136948
9.76911e-07
-0.000134567
7.68393e-07
-0.000129822
-8.20494e-08
-0.000127645
-7.85111e-07
-0.000127432
-1.29801e-06
-0.000127488
-1.51991e-06
-0.000128691
-1.59161e-06
-0.000132852
-1.18872e-06
-0.000135722
-1.69522e-07
-0.000136535
4.78514e-07
-0.000136705
6.77437e-07
-0.000136193
6.07092e-07
-0.000131318
2.54162e-07
-0.000125414
-1.54952e-06
-0.000122924
-3.19083e-06
-0.000122848
-4.2782e-06
-0.000123321
-4.93183e-06
-0.000126198
-5.15192e-06
-0.000128716
-5.03767e-06
-0.000129823
-5.60355e-06
-0.000130102
-6.75265e-06
-0.000128562
-7.56579e-06
-0.000123937
-9.96421e-06
-0.000124525
-1.91824e-05
2.95646e-05
-0.000125014
6.27859e-07
-0.00012466
7.47198e-07
-0.000124502
6.38428e-07
-0.000124676
5.6033e-07
-0.000126374
6.2275e-07
-0.000127763
8.43952e-07
-0.000128167
9.52321e-07
-0.000128229
9.49547e-07
-0.000128145
9.2709e-07
-0.000127952
8.68558e-07
-0.000127142
8.06588e-07
-0.000126199
7.55805e-07
-0.000125794
6.93915e-07
-0.000125618
6.38642e-07
-0.000125624
5.70815e-07
-0.000126964
5.901e-07
-0.000128749
7.98051e-07
-0.000129372
9.42383e-07
-0.0001295
9.54624e-07
-0.000129467
9.39697e-07
-0.000129312
8.67959e-07
-0.000128396
8.17915e-07
-0.000127244
7.28963e-07
-0.000126779
6.52997e-07
-0.000126607
5.92382e-07
-0.000126582
5.47484e-07
-0.000127679
5.52088e-07
-0.000129762
7.38546e-07
-0.000130636
9.37997e-07
-0.000130838
9.79875e-07
-0.000130831
9.65261e-07
-0.000130663
9.04691e-07
-0.00012943
8.1417e-07
-0.000128072
6.61614e-07
-0.000127612
5.46199e-07
-0.000127445
4.69336e-07
-0.000127439
4.56858e-07
-0.000128463
4.73679e-07
-0.000130787
7.0976e-07
-0.000131906
9.36271e-07
-0.000132204
1.03116e-06
-0.000132235
1.03705e-06
-0.000132087
9.74894e-07
-0.000130467
8.33345e-07
-0.000128612
5.77877e-07
-0.000128073
3.7319e-07
-0.000127925
2.86098e-07
-0.00012797
2.5117e-07
-0.000129266
3.27268e-07
-0.000131892
6.21406e-07
-0.000133131
9.53869e-07
-0.000133498
1.11707e-06
-0.00013357
1.1126e-06
-0.000133404
1.01459e-06
-0.000131387
8.23931e-07
-0.000128934
3.22082e-07
-0.000128185
1.16265e-07
-0.000128043
-2.8464e-09
-0.000128119
-5.16499e-08
-0.000129715
1.58689e-08
-0.000132904
4.42076e-07
-0.000134363
9.88229e-07
-0.000134715
1.18772e-06
-0.00013478
1.17909e-06
-0.000134501
9.89926e-07
-0.000131599
7.42294e-07
-0.000128457
6.8094e-09
-0.000127553
-3.05389e-07
-0.000127485
-5.30186e-07
-0.000127609
-6.58691e-07
-0.000129661
-6.35465e-07
-0.000133588
1.26546e-08
-0.000135284
8.43917e-07
-0.00013559
1.18374e-06
-0.000135663
1.18136e-06
-0.00013479
1.02291e-06
-0.00013037
5.39349e-07
-0.000126818
-7.86966e-07
-0.000125738
-1.47598e-06
-0.00012572
-1.85785e-06
-0.000125971
-2.01602e-06
-0.000128741
-1.98897e-06
-0.000132688
-1.18753e-06
-0.000134453
-1.92733e-07
-0.000134925
2.66172e-07
-0.00013506
3.3646e-07
-0.000133285
4.54876e-07
-0.000127262
-7.05166e-07
-0.000122779
-2.77502e-06
-0.000121392
-4.3969e-06
-0.000121452
-5.60887e-06
-0.000122843
-6.22122e-06
-0.000125758
-6.3626e-06
-0.000127465
-6.63887e-06
-0.000128048
-7.91006e-06
-0.000127872
-9.21415e-06
-0.000126333
-1.02246e-05
-0.000124306
-1.69267e-05
3.16044e-05
-0.00012435
7.33577e-07
-0.000123937
8.47276e-07
-0.000123777
7.54839e-07
-0.000123827
6.55885e-07
-0.000125403
7.07796e-07
-0.000126918
9.20353e-07
-0.000127377
1.06306e-06
-0.000127469
1.07588e-06
-0.000127393
1.02568e-06
-0.000127237
9.74433e-07
-0.000126568
8.98609e-07
-0.000125509
8.3913e-07
-0.00012502
7.74928e-07
-0.000124837
7.36229e-07
-0.000124809
6.67155e-07
-0.000125975
6.60589e-07
-0.00012785
8.64786e-07
-0.00012855
1.05457e-06
-0.000128709
1.08323e-06
-0.00012867
1.05174e-06
-0.000128563
1.00643e-06
-0.000127805
9.13905e-07
-0.000126479
8.25127e-07
-0.000125919
7.19676e-07
-0.00012573
6.55909e-07
-0.000125696
5.98558e-07
-0.000126651
5.81052e-07
-0.000128773
7.98347e-07
-0.000129737
1.04759e-06
-0.000129991
1.13144e-06
-0.000130007
1.1057e-06
-0.000129922
1.04652e-06
-0.000129082
9.45795e-07
-0.000127351
7.44447e-07
-0.000126597
6.16479e-07
-0.000126397
5.16184e-07
-0.000126372
4.59924e-07
-0.000127286
4.62932e-07
-0.000129635
7.01366e-07
-0.0001309
1.03805e-06
-0.000131261
1.1999e-06
-0.000131329
1.17751e-06
-0.000131286
1.11266e-06
-0.000130416
1.00462e-06
-0.000128118
7.2181e-07
-0.00012703
4.93703e-07
-0.000126806
3.22238e-07
-0.000126802
2.48949e-07
-0.000127698
2.15401e-07
-0.000130461
5.17282e-07
-0.000132065
1.00861e-06
-0.000132488
1.25283e-06
-0.000132597
1.25848e-06
-0.000132597
1.14831e-06
-0.000131532
9.84054e-07
-0.000128607
6.35001e-07
-0.000127094
2.39784e-07
-0.000126814
1.88455e-08
-0.000126821
-7.7874e-08
-0.000127605
-1.70324e-07
-0.000130963
1.12723e-07
-0.000133271
8.49219e-07
-0.000133832
1.28722e-06
-0.000133897
1.34537e-06
-0.000133868
1.20903e-06
-0.000131979
9.95961e-07
-0.000128372
4.31397e-07
-0.00012665
-3.00295e-07
-0.000126297
-6.71426e-07
-0.000126337
-7.93456e-07
-0.000127017
-8.95726e-07
-0.00013073
-6.12109e-07
-0.000133853
4.16451e-07
-0.000134713
1.14419e-06
-0.000134822
1.31939e-06
-0.000134742
1.25928e-06
-0.000132131
1.04211e-06
-0.000127458
-2.54033e-08
-0.000124977
-1.46796e-06
-0.000124504
-1.94229e-06
-0.000124537
-2.32158e-06
-0.000125498
-2.55398e-06
-0.000129319
-2.29386e-06
-0.000132483
-1.228e-06
-0.000133716
-3.87793e-07
-0.000134075
-7.24723e-08
-0.000133972
-4.91061e-09
-0.000130798
-3.50959e-07
-0.000125026
-1.79493e-06
-0.000121607
-4.09607e-06
-0.000120828
-5.67029e-06
-0.000121013
-6.81816e-06
-0.000123256
-7.41575e-06
-0.000126028
-7.5541e-06
-0.000127336
-8.49233e-06
-0.000127497
-9.96579e-06
-0.000127366
-1.07221e-05
-0.000124061
-1.50243e-05
3.37427e-05
-0.000123988
8.32314e-07
-0.00012352
9.34814e-07
-0.000123326
8.43733e-07
-0.000123308
7.59851e-07
-0.000124614
7.71563e-07
-0.000126297
1.00407e-06
-0.000126863
1.15317e-06
-0.00012698
1.1698e-06
-0.000126939
1.13474e-06
-0.0001268
1.07589e-06
-0.000126256
1.01605e-06
-0.000125074
9.52403e-07
-0.000124482
8.62265e-07
-0.000124274
8.17317e-07
-0.000124197
7.26642e-07
-0.000125141
7.08397e-07
-0.000127117
9.08941e-07
-0.000127952
1.16527e-06
-0.000128161
1.21527e-06
-0.000128166
1.18577e-06
-0.000128063
1.12632e-06
-0.000127595
1.05805e-06
-0.000126122
9.31682e-07
-0.000125323
8.08123e-07
-0.000125067
7.05444e-07
-0.000124998
6.41264e-07
-0.000125706
5.90382e-07
-0.00012791
8.07176e-07
-0.000129074
1.13853e-06
-0.000129396
1.27232e-06
-0.000129458
1.24486e-06
-0.00012941
1.17975e-06
-0.000129018
1.10133e-06
-0.000127216
9.44e-07
-0.000126003
6.5629e-07
-0.000125677
5.7136e-07
-0.000125621
5.07907e-07
-0.000126107
4.40392e-07
-0.000128512
6.20147e-07
-0.000130158
1.07286e-06
-0.00013063
1.32752e-06
-0.000130762
1.33291e-06
-0.000130751
1.24262e-06
-0.000130367
1.1389e-06
-0.000128203
9.56357e-07
-0.000126564
5.29249e-07
-0.000126071
3.67915e-07
-0.000126015
2.83915e-07
-0.000126298
2.02114e-07
-0.000128811
3.14644e-07
-0.00013124
9.12382e-07
-0.00013196
1.34638e-06
-0.0001321
1.41235e-06
-0.000132107
1.31654e-06
-0.000131598
1.19485e-06
-0.000128838
9.38393e-07
-0.000126746
3.44391e-07
-0.000126082
1.3888e-08
-0.000126044
-1.28491e-07
-0.000126191
-2.3446e-07
-0.000128529
-2.14041e-07
-0.000132032
4.73501e-07
-0.000133233
1.2591e-06
-0.000133419
1.50444e-06
-0.00013345
1.46223e-06
-0.000132704
1.29217e-06
-0.000129214
8.97628e-07
-0.000126541
-8.15354e-08
-0.000125609
-6.84678e-07
-0.000125454
-9.75334e-07
-0.000125561
-1.05738e-06
-0.000127442
-1.11847e-06
-0.000131721
-4.32055e-07
-0.000133851
7.61848e-07
-0.000134379
1.32545e-06
-0.000134468
1.3717e-06
-0.000133884
1.23894e-06
-0.000129517
9.10549e-07
-0.000125463
-6.24524e-07
-0.000123956
-1.97907e-06
-0.000123801
-2.50088e-06
-0.000123917
-2.84787e-06
-0.000125815
-3.03132e-06
-0.000129643
-2.46026e-06
-0.000131923
-1.37242e-06
-0.000132842
-7.6458e-07
-0.000133083
-5.85231e-07
-0.00013272
-3.95135e-07
-0.000129015
-1.3505e-06
-0.000123752
-2.92849e-06
-0.000120865
-5.39049e-06
-0.000120438
-6.94211e-06
-0.000120924
-8.25455e-06
-0.000123777
-8.65151e-06
-0.000126301
-9.11934e-06
-0.000127381
-1.04196e-05
-0.000127951
-1.12327e-05
-0.000124293
-1.3089e-05
3.56555e-05
-0.000123832
9.22811e-07
-0.000123299
1.01989e-06
-0.000123096
9.39283e-07
-0.000123014
8.38882e-07
-0.000124065
8.17769e-07
-0.00012591
1.05142e-06
-0.000126593
1.24232e-06
-0.000126737
1.28066e-06
-0.000126716
1.25583e-06
-0.000126602
1.19599e-06
-0.000126178
1.13774e-06
-0.000124927
1.05867e-06
-0.000124217
9.60141e-07
-0.000123953
8.78445e-07
-0.000123857
7.89633e-07
-0.000124473
7.34699e-07
-0.000126567
9.33537e-07
-0.000127621
1.24719e-06
-0.000127872
1.34847e-06
-0.000127898
1.33195e-06
-0.000127837
1.27611e-06
-0.000127534
1.18371e-06
-0.000126135
1.06881e-06
-0.000125058
8.78333e-07
-0.000124716
7.8543e-07
-0.000124609
6.93243e-07
-0.000124904
6.11891e-07
-0.000127044
7.58818e-07
-0.000128653
1.17262e-06
-0.000129081
1.37127e-06
-0.000129182
1.40656e-06
-0.000129151
1.31984e-06
-0.00012896
1.24364e-06
-0.000127403
1.11017e-06
-0.000125844
8.20161e-07
-0.000125293
6.58217e-07
-0.000125158
5.42033e-07
-0.000125245
4.63203e-07
-0.000127175
5.15174e-07
-0.000129558
1.00313e-06
-0.000130321
1.407e-06
-0.000130472
1.48224e-06
-0.000130488
1.40698e-06
-0.000130358
1.29717e-06
-0.00012865
1.1644e-06
-0.000126506
7.63895e-07
-0.000125682
3.9893e-07
-0.000125475
2.81952e-07
-0.000125505
2.1438e-07
-0.000126926
1.74458e-07
-0.000130204
6.16621e-07
-0.000131592
1.34268e-06
-0.000131831
1.55023e-06
-0.000131883
1.54386e-06
-0.000131727
1.41004e-06
-0.000129633
1.2296e-06
-0.000126898
6.41581e-07
-0.000125837
5.09089e-08
-0.000125542
-2.30855e-07
-0.00012553
-2.87581e-07
-0.00012626
-3.47465e-07
-0.00012996
-5.04107e-08
-0.000132551
9.7456e-07
-0.000133136
1.57566e-06
-0.000133186
1.60778e-06
-0.000133106
1.53803e-06
-0.000130988
1.36255e-06
-0.000127165
5.32405e-07
-0.000125326
-5.83069e-07
-0.000124889
-9.85732e-07
-0.00012489
-1.25156e-06
-0.000125266
-1.38098e-06
-0.000128635
-1.26591e-06
-0.000132484
-8.88698e-08
-0.000133834
1.02578e-06
-0.000134098
1.40354e-06
-0.000134141
1.42546e-06
-0.000132605
1.30558e-06
-0.0001277
5.34882e-07
-0.000124476
-1.29707e-06
-0.000123367
-2.53496e-06
-0.000123318
-3.00759e-06
-0.000123623
-3.30371e-06
-0.000126362
-3.43763e-06
-0.00012981
-2.64653e-06
-0.000131618
-1.69913e-06
-0.000132345
-1.28112e-06
-0.000132546
-1.26398e-06
-0.000131651
-1.2207e-06
-0.000127581
-2.34183e-06
-0.00012278
-4.28306e-06
-0.000120225
-6.86789e-06
-0.00012012
-8.36293e-06
-0.000121095
-9.75528e-06
-0.000124523
-1.00792e-05
-0.000126737
-1.10937e-05
-0.000128041
-1.18143e-05
-0.000124652
-1.08326e-05
3.72766e-05
-0.000123805
1.01758e-06
-0.000123194
1.09226e-06
-0.000122953
1.01387e-06
-0.00012285
9.19839e-07
-0.000123604
8.64321e-07
-0.000125606
1.04817e-06
-0.000126476
1.32966e-06
-0.000126643
1.40562e-06
-0.00012661
1.38428e-06
-0.0001265
1.33287e-06
-0.000126168
1.25978e-06
-0.000124989
1.17434e-06
-0.000124127
1.03546e-06
-0.00012381
9.57925e-07
-0.000123686
8.63174e-07
-0.00012394
7.74025e-07
-0.000125935
8.97106e-07
-0.000127382
1.29118e-06
-0.000127752
1.47567e-06
-0.000127792
1.4686e-06
-0.00012773
1.42104e-06
-0.000127539
1.32033e-06
-0.000126343
1.2192e-06
-0.00012502
1.01357e-06
-0.000124509
8.49234e-07
-0.000124349
7.64129e-07
-0.000124383
6.70875e-07
-0.000126009
6.76887e-07
-0.000128223
1.10443e-06
-0.000128932
1.45201e-06
-0.000129065
1.55398e-06
-0.000129059
1.48861e-06
-0.000128936
1.38311e-06
-0.000127834
1.29203e-06
-0.000125899
1.00855e-06
-0.000125089
7.05091e-07
-0.000124838
6.0531e-07
-0.000124811
5.13936e-07
-0.00012579
4.41787e-07
-0.000128703
7.75422e-07
-0.000130081
1.40913e-06
-0.000130344
1.5814e-06
-0.000130379
1.59548e-06
-0.000130319
1.47749e-06
-0.000129254
1.3573e-06
-0.00012675
1.04166e-06
-0.000125567
5.38174e-07
-0.000125203
3.43019e-07
-0.000125154
2.15702e-07
-0.000125511
1.2427e-07
-0.000128499
2.81342e-07
-0.000131051
1.10014e-06
-0.000131682
1.65829e-06
-0.000131747
1.7253e-06
-0.000131743
1.62459e-06
-0.000130794
1.49826e-06
-0.000127722
1.05944e-06
-0.000125873
2.54026e-07
-0.000125198
-1.95883e-07
-0.000125056
-3.4892e-07
-0.000125148
-4.08657e-07
-0.000127213
-4.31302e-07
-0.000131189
2.79093e-07
-0.000132831
1.38339e-06
-0.000133185
1.76685e-06
-0.000133208
1.71958e-06
-0.000132655
1.61693e-06
-0.000128953
1.35701e-06
-0.000125764
1.33995e-08
-0.000124651
-9.74366e-07
-0.000124393
-1.44422e-06
-0.000124449
-1.51492e-06
-0.000125384
-1.64649e-06
-0.0001296
-1.23763e-06
-0.000132635
1.9724e-07
-0.000133547
1.15496e-06
-0.000133728
1.41345e-06
-0.000133727
1.34123e-06
-0.000131417
9.88883e-07
-0.000126321
1.10709e-07
-0.000123633
-1.8606e-06
-0.000122903
-3.017e-06
-0.000122955
-3.54769e-06
-0.000123627
-3.8569e-06
-0.000126753
-3.78935e-06
-0.000129585
-2.91324e-06
-0.000130987
-2.16267e-06
-0.000131608
-1.96942e-06
-0.00013171
-2.0484e-06
-0.000130545
-2.19654e-06
-0.000126492
-3.49226e-06
-0.000121975
-5.70663e-06
-0.000119561
-8.41744e-06
-0.000119667
-9.81447e-06
-0.000121599
-1.125e-05
-0.000125084
-1.20343e-05
-0.000127257
-1.27517e-05
-0.000125244
-8.49023e-06
3.81877e-05
-0.00012388
1.12565e-06
-0.000123181
1.15489e-06
-0.000122908
1.06986e-06
-0.000122782
9.89115e-07
-0.000123184
8.93833e-07
-0.000125231
1.04494e-06
-0.000126357
1.37068e-06
-0.000126591
1.52064e-06
-0.000126592
1.52875e-06
-0.000126492
1.47264e-06
-0.000126258
1.38864e-06
-0.000125201
1.29309e-06
-0.000124148
1.11833e-06
-0.000123715
1.00899e-06
-0.000123548
9.39929e-07
-0.000123555
8.5496e-07
-0.000125149
8.71545e-07
-0.000127094
1.23649e-06
-0.000127669
1.53749e-06
-0.000127776
1.61531e-06
-0.000127717
1.54846e-06
-0.000127606
1.47546e-06
-0.000126721
1.37092e-06
-0.000125119
1.17881e-06
-0.000124431
9.21388e-07
-0.00012419
8.29789e-07
-0.000124121
7.44734e-07
-0.000124935
6.58534e-07
-0.000127536
9.33187e-07
-0.000128774
1.48515e-06
-0.000128989
1.64488e-06
-0.000129005
1.65565e-06
-0.00012895
1.55563e-06
-0.000128315
1.45165e-06
-0.00012624
1.24087e-06
-0.000125056
8.36125e-07
-0.000124681
6.50566e-07
-0.00012459
5.53246e-07
-0.000124814
4.41632e-07
-0.000127352
5.71903e-07
-0.000129687
1.22801e-06
-0.000130267
1.68596e-06
-0.00013033
1.75773e-06
-0.000130316
1.68483e-06
-0.000129884
1.57276e-06
-0.000127493
1.34834e-06
-0.00012565
7.44195e-07
-0.000125059
3.62234e-07
-0.000124852
2.0337e-07
-0.000124877
1.33109e-07
-0.000126341
9.61753e-08
-0.000129938
6.07581e-07
-0.000131485
1.57444e-06
-0.000131728
1.83448e-06
-0.000131754
1.85011e-06
-0.000131558
1.73417e-06
-0.000129233
1.5655e-06
-0.000126202
7.28842e-07
-0.00012504
-7.572e-08
-0.000124734
-3.48058e-07
-0.000124717
-5.15578e-07
-0.000125167
-6.06997e-07
-0.000128724
-4.45529e-07
-0.000132035
7.80908e-07
-0.000132915
1.71208e-06
-0.000133031
1.88649e-06
-0.000133033
1.8951e-06
-0.00013171
1.74015e-06
-0.000127569
1.04653e-06
-0.000124981
-4.42922e-07
-0.000124057
-1.35424e-06
-0.000123857
-1.57922e-06
-0.000123962
-1.77593e-06
-0.000125895
-1.92885e-06
-0.000130451
-1.20115e-06
-0.000132883
3.43133e-07
-0.000133515
1.11942e-06
-0.000133601
1.24851e-06
-0.000133274
1.172e-06
-0.000130063
8.54952e-07
-0.000125378
-5.30868e-07
-0.000123138
-2.47381e-06
-0.000122555
-3.5501e-06
-0.000122596
-3.98578e-06
-0.000123701
-4.33649e-06
-0.000126973
-4.12354e-06
-0.000129382
-3.24595e-06
-0.000130536
-2.75819e-06
-0.000131036
-2.76531e-06
-0.000131023
-2.9143e-06
-0.000129656
-3.39933e-06
-0.000125719
-4.75344e-06
-0.000121226
-7.30226e-06
-0.000118916
-9.93002e-06
-0.000119353
-1.12629e-05
-0.000122537
-1.2922e-05
-0.00012552
-1.40126e-05
-0.000126036
-5.92707e-06
3.83221e-05
-0.000124061
1.24361e-06
-0.000123247
1.21629e-06
-0.000122939
1.13059e-06
-0.000122777
1.03703e-06
-0.000122881
9.45538e-07
-0.000124665
1.02991e-06
-0.000126202
1.38188e-06
-0.000126594
1.6314e-06
-0.000126631
1.66541e-06
-0.000126535
1.59274e-06
-0.00012637
1.5163e-06
-0.000125533
1.41968e-06
-0.000124266
1.24592e-06
-0.000123704
1.08577e-06
-0.000123464
9.94564e-07
-0.00012338
9.32691e-07
-0.000124265
8.64076e-07
-0.000126663
1.13771e-06
-0.000127652
1.58379e-06
-0.000127803
1.72151e-06
-0.000127789
1.70862e-06
-0.000127678
1.61413e-06
-0.000127148
1.52746e-06
-0.000125414
1.34861e-06
-0.000124433
1.03752e-06
-0.000124093
8.74293e-07
-0.000123991
8.12923e-07
-0.000124163
7.05444e-07
-0.000126456
8.05555e-07
-0.00012849
1.37587e-06
-0.000128981
1.71463e-06
-0.000129032
1.80716e-06
-0.000128997
1.73092e-06
-0.000128721
1.60748e-06
-0.000126896
1.46841e-06
-0.000125194
1.0351e-06
-0.000124612
6.86777e-07
-0.000124418
5.917e-07
-0.000124405
5.07286e-07
-0.00012565
4.5645e-07
-0.000128827
8.89751e-07
-0.00013014
1.68128e-06
-0.000130359
1.87457e-06
-0.00013037
1.90147e-06
-0.000130271
1.78802e-06
-0.0001287
1.64469e-06
-0.000126124
1.08667e-06
-0.000125033
4.64086e-07
-0.000124658
2.13766e-07
-0.00012459
1.17272e-07
-0.000124845
2.72847e-08
-0.000127835
1.54462e-07
-0.000130864
1.09276e-06
-0.000131735
1.8797e-06
-0.000131862
1.98952e-06
-0.000131865
1.99721e-06
-0.000130926
1.90547e-06
-0.000127464
1.43203e-06
-0.000125288
2.97185e-07
-0.000124606
-3.44876e-07
-0.000124362
-6.50956e-07
-0.000124391
-6.82995e-07
-0.000125624
-7.46973e-07
-0.000129903
-2.59448e-07
-0.000132311
1.16963e-06
-0.000132931
1.94418e-06
-0.000133044
1.97639e-06
-0.000132989
1.82496e-06
-0.000130567
1.84447e-06
-0.000126121
7.72111e-07
-0.000124103
-8.63164e-07
-0.000123624
-1.57697e-06
-0.000123569
-1.98049e-06
-0.000123763
-2.09671e-06
-0.000126478
-2.15424e-06
-0.000130739
-1.1225e-06
-0.000132537
3.55696e-07
-0.00013299
9.99372e-07
-0.00013309
1.04905e-06
-0.000132698
9.44493e-07
-0.000129113
4.14308e-07
-0.000124546
-1.02254e-06
-0.000122535
-3.03587e-06
-0.000122146
-3.98871e-06
-0.00012225
-4.55127e-06
-0.000123867
-4.88095e-06
-0.000127039
-4.47274e-06
-0.000129074
-3.68648e-06
-0.000130138
-3.39899e-06