/*--------------------------------*- C++ -*----------------------------------*\
  =========                 |
  \\      /  F ield         | OpenFOAM: The Open Source CFD Toolbox
   \\    /   O peration     | Website:  https://openfoam.org
    \\  /    A nd           | Version:  12
     \\/     M anipulation  |
\*---------------------------------------------------------------------------*/
FoamFile
{
    format      ascii;
    class       volScalarField;
    location    "9.4";
    object      rho;
}
// * * * * * * * * * * * * * * * * * * * * * * * * * * * * * * * * * * * * * //

dimensions      [1 -3 0 0 0 0 0];

internalField   nonuniform List<scalar> 
9801
(
1.05901
1.06597
1.07799
1.08652
1.09218
1.09685
1.10087
1.10408
1.10405
1.10388
1.10648
1.11039
1.11803
1.13007
1.13937
1.14537
1.15017
1.15457
1.15814
1.15794
1.15767
1.16032
1.16443
1.17195
1.18471
1.19512
1.20184
1.20695
1.21163
1.21512
1.21389
1.214
1.21714
1.2217
1.22948
1.24337
1.25482
1.26187
1.26716
1.27233
1.27419
1.27107
1.27223
1.27651
1.28174
1.29225
1.30874
1.32059
1.3279
1.33345
1.33807
1.33556
1.33142
1.3344
1.33989
1.34697
1.36246
1.3817
1.39401
1.40184
1.40849
1.41184
1.40447
1.39992
1.40399
1.41125
1.42309
1.44633
1.4683
1.48081
1.48927
1.49716
1.49627
1.48263
1.48017
1.48762
1.49934
1.52511
1.55825
1.57965
1.59318
1.60433
1.61119
1.59657
1.5819
1.58864
1.60513
1.63933
1.69336
1.73395
1.76095
1.78608
1.80773
1.80496
1.80032
1.82344
1.88907
2.96168
7.53622
1.06441
1.07216
1.08523
1.09375
1.09887
1.10284
1.10617
1.10861
1.10875
1.10932
1.11201
1.11567
1.1233
1.13641
1.14599
1.15185
1.15633
1.16017
1.16291
1.16229
1.16226
1.1649
1.16878
1.17625
1.19025
1.20123
1.20788
1.21278
1.21705
1.21982
1.21823
1.21802
1.22085
1.22502
1.23267
1.24785
1.26005
1.26723
1.27254
1.27731
1.279
1.27585
1.27631
1.27987
1.28454
1.29427
1.31166
1.32439
1.33199
1.33768
1.34248
1.34103
1.3368
1.33862
1.34326
1.3493
1.36346
1.3836
1.39675
1.40496
1.41161
1.41566
1.40944
1.40418
1.40722
1.41376
1.42374
1.44657
1.46949
1.48227
1.4909
1.49885
1.49953
1.48692
1.4832
1.48963
1.49962
1.52061
1.55376
1.57715
1.59186
1.60398
1.61404
1.60268
1.58563
1.58921
1.60376
1.62918
1.67712
1.7183
1.7469
1.77299
1.79541
1.79223
1.78085
1.78935
1.80308
2.81229
7.54124
1.06426
1.07388
1.08624
1.0929
1.09728
1.10093
1.1041
1.10647
1.10716
1.10871
1.11174
1.1154
1.12296
1.13645
1.14573
1.15104
1.1551
1.1586
1.16079
1.16009
1.16074
1.16373
1.16772
1.17529
1.18984
1.20084
1.20707
1.21163
1.21561
1.21788
1.21577
1.21556
1.21855
1.22284
1.23067
1.24652
1.25915
1.26626
1.27147
1.27608
1.27788
1.274
1.27347
1.27679
1.28148
1.29053
1.30834
1.32226
1.33026
1.33612
1.34137
1.34214
1.3367
1.33636
1.34019
1.34568
1.35761
1.37852
1.39329
1.40203
1.40878
1.41393
1.41008
1.40305
1.40449
1.41023
1.41815
1.43682
1.46198
1.47681
1.486
1.49415
1.49767
1.48673
1.4802
1.48472
1.49375
1.50786
1.54044
1.56964
1.58593
1.59787
1.60839
1.60221
1.58217
1.58066
1.59397
1.61224
1.65086
1.69844
1.73243
1.75887
1.78289
1.78242
1.76901
1.77421
1.77188
2.72002
7.46768
1.06437
1.07323
1.08494
1.09214
1.09667
1.10039
1.10366
1.106
1.1068
1.10858
1.11159
1.11514
1.12206
1.13522
1.14448
1.14983
1.15395
1.15751
1.15968
1.15904
1.15994
1.16298
1.16687
1.17381
1.18809
1.19912
1.20525
1.2098
1.21379
1.21607
1.21389
1.2137
1.21679
1.22108
1.22835
1.24416
1.25733
1.26442
1.26947
1.27382
1.27544
1.27117
1.27025
1.27369
1.27855
1.28647
1.30415
1.31985
1.32829
1.33411
1.33921
1.34039
1.33314
1.33106
1.33475
1.34037
1.3503
1.37163
1.38912
1.39851
1.40517
1.41066
1.40891
1.39911
1.39789
1.40322
1.4106
1.42507
1.45238
1.47062
1.48035
1.48833
1.4941
1.48604
1.47371
1.47517
1.48384
1.49488
1.52053
1.5544
1.57407
1.58629
1.59734
1.59964
1.58086
1.57068
1.57962
1.59599
1.62102
1.66359
1.70067
1.72897
1.75484
1.76576
1.75408
1.74777
1.72637
2.65016
7.42932
1.06342
1.07148
1.08352
1.09126
1.09601
1.09987
1.10325
1.10587
1.10646
1.10749
1.11009
1.11346
1.11941
1.13236
1.14262
1.14834
1.15255
1.15617
1.15872
1.15822
1.15846
1.16101
1.16458
1.17001
1.18336
1.19596
1.20278
1.20748
1.21151
1.21412
1.21231
1.21164
1.21438
1.21838
1.22409
1.2383
1.25279
1.26055
1.26566
1.2699
1.27211
1.26873
1.26753
1.27067
1.27531
1.28171
1.29744
1.31421
1.32308
1.32877
1.33356
1.3355
1.32926
1.32647
1.3299
1.33548
1.3436
1.36281
1.3821
1.39228
1.39898
1.40466
1.40581
1.39561
1.39116
1.39545
1.4026
1.41354
1.43875
1.4611
1.47235
1.48044
1.48755
1.48522
1.47033
1.46575
1.47259
1.48254
1.49967
1.53419
1.56169
1.57692
1.58877
1.59752
1.58636
1.56764
1.5665
1.57985
1.59878
1.63343
1.67407
1.70552
1.73101
1.75312
1.75314
1.74049
1.70324
2.60252
7.41672
1.06219
1.06947
1.08182
1.09035
1.09541
1.09942
1.10292
1.10582
1.10616
1.10624
1.10839
1.11164
1.11687
1.12931
1.14069
1.14699
1.15142
1.15516
1.15818
1.15784
1.1571
1.15912
1.1625
1.16702
1.17867
1.19276
1.20059
1.20557
1.20966
1.21293
1.21181
1.21001
1.21196
1.21565
1.22046
1.23244
1.24814
1.25709
1.2626
1.26713
1.27072
1.26877
1.26549
1.26733
1.27152
1.27697
1.29016
1.30793
1.31801
1.32415
1.32943
1.3334
1.32949
1.32391
1.32571
1.33079
1.33742
1.35349
1.3748
1.38674
1.39377
1.39978
1.40401
1.39664
1.38784
1.38936
1.39582
1.40434
1.42469
1.45195
1.46725
1.47602
1.48339
1.48614
1.47261
1.46225
1.46477
1.47352
1.48514
1.51188
1.54697
1.56872
1.58246
1.59422
1.59581
1.57524
1.56322
1.56898
1.5845
1.60839
1.64578
1.67954
1.70627
1.72998
1.74574
1.74182
1.70525
2.56085
7.4212
1.06125
1.06808
1.08083
1.09013
1.09534
1.09934
1.10284
1.10568
1.10558
1.10506
1.10704
1.11029
1.11544
1.1276
1.13937
1.14591
1.15045
1.15429
1.15753
1.15746
1.15587
1.15751
1.16082
1.16531
1.17603
1.19034
1.19867
1.20386
1.20814
1.21187
1.21196
1.20887
1.20977
1.21313
1.21773
1.22805
1.24423
1.25435
1.26036
1.26527
1.26973
1.27037
1.26517
1.26443
1.26774
1.27264
1.2831
1.30198
1.31451
1.32157
1.3273
1.33249
1.33226
1.32442
1.32302
1.32683
1.33239
1.34348
1.36629
1.3826
1.39089
1.39725
1.40298
1.40012
1.38895
1.38697
1.39193
1.39895
1.4114
1.43936
1.46246
1.47401
1.48192
1.48817
1.48137
1.46537
1.46143
1.46758
1.4772
1.49349
1.52769
1.55873
1.577
1.59009
1.60064
1.59349
1.57237
1.5671
1.57594
1.5924
1.62136
1.6575
1.68597
1.708
1.72709
1.73383
1.71
2.54003
7.43105
1.06095
1.06722
1.08036
1.09068
1.09606
1.09995
1.10329
1.10588
1.10547
1.10458
1.10649
1.10977
1.11467
1.12661
1.13913
1.146
1.15051
1.15425
1.15753
1.15803
1.15573
1.15667
1.15988
1.16419
1.17404
1.1889
1.1981
1.20363
1.20802
1.21192
1.21337
1.20947
1.20861
1.21156
1.21589
1.22436
1.24128
1.25366
1.26041
1.26543
1.26993
1.27223
1.26668
1.26318
1.26539
1.26998
1.27776
1.29656
1.31373
1.32257
1.32835
1.33345
1.33561
1.32786
1.32258
1.32419
1.32911
1.33655
1.35657
1.37954
1.39116
1.39814
1.40435
1.40601
1.39504
1.38787
1.38942
1.39539
1.40349
1.42392
1.45471
1.473
1.48277
1.49056
1.49297
1.47665
1.46387
1.4651
1.47341
1.48381
1.50627
1.54213
1.56817
1.58467
1.59812
1.60648
1.59465
1.57481
1.573
1.58374
1.60202
1.63411
1.66666
1.69027
1.70734
1.71904
1.71383
2.53467
7.44053
1.06164
1.0672
1.08003
1.09144
1.0972
1.10108
1.10431
1.10686
1.10673
1.10563
1.10724
1.11038
1.1146
1.12529
1.13905
1.14672
1.15139
1.15521
1.15866
1.16003
1.15742
1.15738
1.16014
1.16401
1.17195
1.1875
1.19848
1.20442
1.2089
1.21295
1.21559
1.21207
1.20951
1.21156
1.21558
1.22192
1.23801
1.25369
1.26163
1.26679
1.2713
1.27458
1.27015
1.26434
1.26533
1.26957
1.27537
1.29062
1.31223
1.32391
1.33013
1.33512
1.33848
1.3327
1.32394
1.32386
1.32806
1.33414
1.3474
1.37385
1.39187
1.40038
1.40674
1.41087
1.40365
1.39092
1.38871
1.39327
1.40038
1.4118
1.44083
1.46888
1.48303
1.49171
1.49889
1.49481
1.47549
1.46732
1.47082
1.47947
1.49195
1.52112
1.55549
1.57814
1.59361
1.60676
1.61078
1.59557
1.57879
1.57933
1.59063
1.61128
1.64506
1.67339
1.69102
1.70213
1.7103
2.54439
7.44893
1.06338
1.06832
1.07982
1.09231
1.09873
1.10276
1.10603
1.10884
1.10941
1.10815
1.10938
1.11222
1.11575
1.12383
1.13851
1.14795
1.15314
1.15718
1.16084
1.16308
1.16063
1.15956
1.16173
1.16515
1.17073
1.18534
1.19917
1.20617
1.21081
1.21488
1.21819
1.21606
1.21202
1.21321
1.2167
1.22145
1.23388
1.25279
1.26322
1.26884
1.27337
1.27721
1.27503
1.26786
1.26741
1.27091
1.27579
1.28513
1.30715
1.32377
1.33127
1.33643
1.34072
1.33916
1.32904
1.32582
1.32917
1.33489
1.34252
1.36378
1.3892
1.40185
1.40872
1.41417
1.41467
1.40071
1.39191
1.39353
1.39968
1.40709
1.42382
1.45697
1.48021
1.49197
1.50037
1.50682
1.49636
1.47609
1.47155
1.47744
1.48717
1.5028
1.53536
1.56591
1.58558
1.60026
1.61272
1.6146
1.59745
1.58225
1.58382
1.595
1.61781
1.65097
1.6747
1.68702
1.69999
2.56553
7.45661
1.06601
1.07041
1.07965
1.09286
1.10034
1.10486
1.10847
1.11168
1.11335
1.11193
1.11227
1.11466
1.11778
1.12305
1.13693
1.14916
1.15546
1.15982
1.16365
1.16672
1.16522
1.16261
1.16399
1.1671
1.17117
1.18239
1.199
1.20817
1.21333
1.21754
1.2213
1.22109
1.21604
1.21576
1.2187
1.22265
1.23019
1.24917
1.26422
1.2713
1.27606
1.28031
1.28114
1.27407
1.27097
1.27316
1.27716
1.28266
1.29865
1.32105
1.33242
1.33851
1.34371
1.34672
1.33901
1.33147
1.33225
1.3361
1.34158
1.35236
1.37921
1.40031
1.40986
1.41645
1.42211
1.41764
1.40174
1.39653
1.3992
1.40532
1.4139
1.43773
1.47119
1.49053
1.50081
1.50876
1.51217
1.49759
1.48052
1.47868
1.48487
1.49473
1.51403
1.54757
1.57471
1.59262
1.60668
1.61756
1.61656
1.59838
1.5841
1.58551
1.59606
1.62101
1.65236
1.67042
1.68702
2.59402
7.46528
1.06913
1.07304
1.07961
1.09308
1.1023
1.10749
1.11143
1.11489
1.11767
1.1168
1.11553
1.11708
1.12001
1.12396
1.13515
1.15007
1.1581
1.16286
1.16677
1.17024
1.17037
1.16646
1.16654
1.16929
1.17294
1.18026
1.19735
1.20997
1.21618
1.22056
1.2245
1.22641
1.22154
1.21876
1.22068
1.22428
1.22916
1.24342
1.26331
1.27342
1.27905
1.28362
1.28702
1.28236
1.27524
1.27496
1.27795
1.28252
1.29127
1.3141
1.33301
1.34171
1.34733
1.35234
1.35104
1.33937
1.33422
1.33558
1.34024
1.34666
1.36465
1.39453
1.4116
1.41981
1.42647
1.43048
1.41781
1.40206
1.39991
1.40462
1.4117
1.42208
1.45085
1.48208
1.49835
1.50794
1.51634
1.51914
1.50111
1.48492
1.48459
1.49192
1.50241
1.52487
1.55734
1.58145
1.5981
1.61184
1.62127
1.61823
1.59817
1.58371
1.58447
1.59396
1.6207
1.64711
1.66864
2.62674
7.47429
1.07235
1.07579
1.08023
1.09275
1.10448
1.11055
1.11471
1.11829
1.12149
1.1217
1.11883
1.11956
1.1224
1.12603
1.1342
1.1502
1.16056
1.16592
1.16991
1.17345
1.17511
1.17112
1.16944
1.17165
1.17516
1.18006
1.19419
1.2108
1.21892
1.22368
1.22768
1.23096
1.22815
1.22239
1.22267
1.22589
1.23014
1.23864
1.25921
1.27479
1.28193
1.28677
1.29104
1.29096
1.28155
1.27729
1.27941
1.2836
1.28912
1.30458
1.33025
1.34434
1.35118
1.35637
1.35948
1.35032
1.33786
1.33619
1.34002
1.34584
1.35474
1.3807
1.40847
1.4213
1.42811
1.43343
1.43501
1.41937
1.4062
1.40562
1.41014
1.41724
1.43061
1.4639
1.49325
1.50809
1.51712
1.52427
1.523
1.50398
1.49011
1.49064
1.49795
1.50926
1.53523
1.56681
1.58863
1.60374
1.61638
1.6238
1.61861
1.5968
1.58111
1.58056
1.58989
1.61591
1.64444
2.65557
7.4821
1.0754
1.0784
1.08187
1.09214
1.10614
1.11369
1.11804
1.12164
1.12489
1.12611
1.12289
1.12258
1.1251
1.1285
1.13411
1.14899
1.16237
1.1688
1.17292
1.17647
1.17912
1.17652
1.17299
1.17431
1.17759
1.18157
1.19071
1.20934
1.2211
1.22675
1.23084
1.23458
1.23493
1.22788
1.22542
1.22792
1.23181
1.23681
1.25171
1.2733
1.28412
1.28976
1.29418
1.29748
1.29129
1.28212
1.28166
1.28505
1.28981
1.29759
1.3205
1.34315
1.35292
1.35859
1.36328
1.36316
1.34914
1.34092
1.34251
1.34685
1.35237
1.36357
1.39387
1.41789
1.42847
1.43587
1.44261
1.44077
1.42107
1.40973
1.41086
1.41661
1.42413
1.44008
1.47487
1.50093
1.51396
1.52301
1.53079
1.52858
1.50784
1.49448
1.49592
1.5038
1.51699
1.54526
1.57478
1.59442
1.60848
1.62002
1.62578
1.61826
1.59465
1.57665
1.57465
1.58244
1.61482
2.67307
7.48893
1.07849
1.081
1.08404
1.0914
1.10655
1.11639
1.12131
1.12499
1.12827
1.13035
1.12766
1.12601
1.12797
1.13115
1.13522
1.14648
1.16279
1.17124
1.17581
1.17944
1.18269
1.18252
1.17774
1.17738
1.1801
1.18369
1.1888
1.20448
1.22166
1.22954
1.23409
1.23805
1.24089
1.23591
1.22969
1.2302
1.23329
1.23739
1.24531
1.26692
1.28463
1.29227
1.29722
1.30164
1.30198
1.29101
1.28507
1.28675
1.29065
1.29569
1.30759
1.33457
1.35284
1.36091
1.36659
1.37134
1.36753
1.35204
1.34569
1.34683
1.35086
1.35698
1.37382
1.40721
1.42834
1.43781
1.44434
1.44947
1.44423
1.42479
1.41559
1.41698
1.42206
1.42963
1.44982
1.48534
1.50905
1.52138
1.53021
1.53641
1.53197
1.51225
1.50019
1.50139
1.50855
1.52291
1.5533
1.58177
1.59993
1.61252
1.62242
1.62627
1.61723
1.59255
1.57146
1.56277
1.58045
2.66542
7.49705
1.08163
1.08355
1.08645
1.09148
1.1054
1.11842
1.12457
1.12838
1.13167
1.13437
1.13296
1.12984
1.13088
1.13375
1.13722
1.14399
1.16057
1.17295
1.17869
1.18261
1.1862
1.18847
1.18431
1.18102
1.18237
1.18536
1.18919
1.19878
1.21914
1.23174
1.2376
1.24168
1.2454
1.24485
1.23611
1.23281
1.23488
1.23858
1.24341
1.25733
1.28126
1.29437
1.30071
1.30519
1.30896
1.30361
1.29177
1.28908
1.29151
1.29566
1.30138
1.31893
1.34737
1.36273
1.37003
1.37571
1.37968
1.36958
1.35267
1.3484
1.3517
1.35722
1.36408
1.38464
1.41747
1.43553
1.44422
1.45115
1.4569
1.44883
1.42808
1.41973
1.42237
1.42894
1.43726
1.45918
1.49313
1.51439
1.52615
1.53536
1.54247
1.5381
1.51665
1.50375
1.50472
1.51197
1.52773
1.55912
1.58654
1.60356
1.61523
1.62343
1.62546
1.61543
1.58996
1.56241
1.5525
2.63437
7.50865
1.08505
1.08629
1.08907
1.09286
1.1032
1.11896
1.12728
1.1316
1.13494
1.13798
1.13868
1.13479
1.13406
1.13627
1.13936
1.14336
1.15575
1.17301
1.18156
1.18611
1.1899
1.19334
1.19216
1.18561
1.18452
1.18699
1.19062
1.19598
1.21271
1.23192
1.24046
1.24511
1.24895
1.25168
1.24546
1.23717
1.2371
1.24039
1.24445
1.25083
1.27125
1.29318
1.30268
1.30815
1.3127
1.31501
1.30459
1.29381
1.29295
1.29598
1.30057
1.3081
1.33213
1.3589
1.37089
1.37701
1.38178
1.38486
1.37296
1.35759
1.35483
1.35742
1.36245
1.37034
1.39531
1.42754
1.44393
1.45193
1.45773
1.4626
1.45449
1.43479
1.42705
1.42861
1.43376
1.44236
1.46789
1.50204
1.52226
1.53334
1.54185
1.54734
1.54171
1.52088
1.50782
1.50785
1.51417
1.53015
1.56251
1.59
1.60625
1.61648
1.6225
1.62286
1.61243
1.58071
1.54648
2.58266
7.52242
1.08919
1.08944
1.09192
1.09515
1.10131
1.11679
1.12878
1.13437
1.13815
1.14152
1.14415
1.14151
1.13786
1.13863
1.1412
1.14455
1.15164
1.16998
1.18362
1.18976
1.19361
1.19714
1.19895
1.19249
1.1877
1.18921
1.19263
1.19657
1.20554
1.22706
1.24175
1.24809
1.2522
1.25599
1.2558
1.24569
1.24074
1.24227
1.24558
1.24993
1.2599
1.28502
1.30341
1.31143
1.3166
1.32097
1.31912
1.30414
1.29656
1.29804
1.30191
1.30651
1.31538
1.34311
1.36761
1.37817
1.38489
1.3909
1.39229
1.37543
1.36035
1.35884
1.36292
1.36872
1.37681
1.40319
1.43412
1.44935
1.45817
1.46565
1.47036
1.45968
1.43825
1.43019
1.43312
1.43984
1.45
1.47725
1.50917
1.52729
1.53786
1.54662
1.55323
1.54758
1.5246
1.51004
1.50943
1.51535
1.53127
1.56409
1.59156
1.60692
1.61563
1.61955
1.61942
1.60348
1.56603
2.53369
7.53787
1.0943
1.09305
1.09475
1.0975
1.10109
1.11245
1.12883
1.13716
1.14159
1.1452
1.1485
1.14878
1.14297
1.14125
1.14331
1.14652
1.15084
1.16423
1.1832
1.19222
1.19686
1.20052
1.20375
1.20144
1.1934
1.19222
1.1948
1.19828
1.20276
1.21746
1.2397
1.25039
1.25567
1.25957
1.2629
1.25788
1.24677
1.24444
1.24705
1.25096
1.25585
1.27079
1.29766
1.31239
1.31903
1.32388
1.32791
1.32269
1.30746
1.30194
1.30297
1.30618
1.31122
1.32426
1.35568
1.37774
1.38695
1.39238
1.39696
1.397
1.38001
1.36661
1.36517
1.36791
1.37302
1.38274
1.41375
1.44478
1.45859
1.46563
1.47112
1.47489
1.46457
1.44473
1.43736
1.43928
1.44477
1.45515
1.48482
1.51675
1.53435
1.54435
1.55231
1.55756
1.55127
1.52835
1.51273
1.511
1.51587
1.53101
1.56399
1.59151
1.60594
1.61267
1.61573
1.61165
1.59669
2.51148
7.55317
1.09996
1.0968
1.09701
1.09945
1.10265
1.10938
1.12642
1.13929
1.14513
1.14883
1.15212
1.1544
1.14983
1.1449
1.14586
1.14876
1.15224
1.15939
1.17846
1.19347
1.19996
1.20394
1.20751
1.20937
1.20223
1.19614
1.19693
1.19998
1.20373
1.2104
1.23097
1.25054
1.25874
1.26329
1.26711
1.26874
1.25846
1.2493
1.24938
1.25249
1.2564
1.26207
1.28183
1.30829
1.32092
1.32746
1.33262
1.33583
1.32509
1.30864
1.30497
1.30811
1.31268
1.31788
1.33292
1.3649
1.38433
1.39285
1.39948
1.40526
1.40315
1.38344
1.36999
1.36962
1.37452
1.38051
1.3907
1.42169
1.44967
1.4621
1.47002
1.47734
1.48201
1.47095
1.44972
1.44116
1.44337
1.44973
1.46142
1.49148
1.52189
1.53844
1.54824
1.5565
1.5628
1.55693
1.53259
1.51482
1.51177
1.51554
1.52928
1.56222
1.58971
1.60287
1.60879
1.60772
1.61495
2.51935
7.56674
1.10495
1.10129
1.09987
1.10223
1.10534
1.1095
1.12213
1.13945
1.14775
1.15201
1.15534
1.15831
1.1573
1.15039
1.14896
1.15121
1.15443
1.15855
1.17092
1.19162
1.20228
1.20733
1.21092
1.21426
1.21241
1.20269
1.19984
1.20213
1.20571
1.20963
1.21954
1.24367
1.25977
1.26661
1.27099
1.27484
1.27315
1.25984
1.2532
1.25419
1.2573
1.26154
1.26919
1.2938
1.3184
1.32892
1.33442
1.33867
1.34103
1.32925
1.3147
1.31191
1.31351
1.31722
1.32303
1.34266
1.37553
1.39349
1.40113
1.40598
1.41042
1.4085
1.3903
1.37805
1.37704
1.37937
1.38422
1.39621
1.42994
1.45804
1.47051
1.47767
1.48368
1.48754
1.47742
1.45649
1.44721
1.44807
1.45302
1.46397
1.49574
1.52776
1.54498
1.55453
1.56202
1.56706
1.56173
1.53689
1.51626
1.51113
1.514
1.52634
1.5592
1.58613
1.59899
1.60027
1.6193
2.55082
7.57997
1.10911
1.10753
1.10403
1.10557
1.1084
1.1116
1.11837
1.13597
1.1493
1.15503
1.15853
1.16161
1.16348
1.1582
1.15312
1.15404
1.15699
1.16041
1.16614
1.18395
1.20222
1.20993
1.21417
1.2178
1.22035
1.21354
1.20507
1.20482
1.20743
1.21087
1.21541
1.23017
1.25544
1.26864
1.27481
1.27906
1.28241
1.2758
1.26097
1.25687
1.2595
1.26349
1.26773
1.27658
1.30375
1.32634
1.33583
1.34187
1.34722
1.34843
1.33242
1.31713
1.31534
1.31914
1.32412
1.32997
1.35001
1.38168
1.39823
1.40637
1.41308
1.41849
1.41543
1.39537
1.38124
1.38018
1.38485
1.39108
1.40425
1.43725
1.46312
1.47506
1.48308
1.49028
1.49471
1.48384
1.46098
1.45004
1.45103
1.45683
1.46893
1.50009
1.53152
1.54862
1.55829
1.56579
1.57083
1.56598
1.54058
1.51699
1.50979
1.51153
1.52298
1.55512
1.58132
1.59005
1.61442
2.59591
7.59288
1.11302
1.11518
1.10973
1.10912
1.11124
1.11415
1.11776
1.12924
1.14792
1.15718
1.16158
1.16498
1.16816
1.16758
1.16
1.15772
1.15968
1.1627
1.16608
1.17463
1.19651
1.21149
1.21778
1.22158
1.2251
1.22492
1.21412
1.2081
1.20932
1.2127
1.21653
1.22223
1.24167
1.26562
1.27635
1.28194
1.28613
1.28864
1.27912
1.26593
1.26348
1.26523
1.2684
1.27295
1.28499
1.31459
1.33532
1.34383
1.34865
1.35265
1.35349
1.33805
1.3245
1.32267
1.32443
1.32837
1.3349
1.35839
1.39093
1.40691
1.41383
1.41832
1.42306
1.42177
1.4031
1.38929
1.38771
1.39048
1.39572
1.40999
1.44474
1.47112
1.48279
1.48938
1.49494
1.49956
1.491
1.46834
1.45635
1.45601
1.46001
1.46973
1.50064
1.53413
1.55221
1.56168
1.56862
1.57331
1.56945
1.54441
1.51766
1.50783
1.50844
1.51867
1.55043
1.57093
1.60101
2.6435
7.60246
1.11681
1.1215
1.1172
1.11302
1.11388
1.11642
1.11939
1.12448
1.14126
1.15795
1.1651
1.16896
1.17228
1.17489
1.17001
1.16265
1.16216
1.16448
1.16773
1.17204
1.1854
1.20836
1.22011
1.22537
1.22885
1.23205
1.22759
1.2156
1.21261
1.21493
1.21842
1.22216
1.22911
1.25215
1.27446
1.28407
1.28958
1.29402
1.29522
1.28185
1.26853
1.26716
1.27057
1.27464
1.27916
1.29243
1.32264
1.34152
1.3496
1.35581
1.36109
1.36033
1.34179
1.32731
1.32611
1.33012
1.33534
1.34185
1.36487
1.39547
1.41044
1.41856
1.42542
1.43089
1.4288
1.40892
1.39327
1.39104
1.3951
1.4013
1.41587
1.44906
1.4739
1.4857
1.49442
1.50172
1.50662
1.49777
1.47314
1.45857
1.45737
1.46211
1.47222
1.50191
1.53559
1.55418
1.56373
1.57048
1.57504
1.57263
1.54853
1.5181
1.50486
1.50389
1.5145
1.54076
1.57849
2.68302
7.60693
1.1204
1.12603
1.12563
1.11916
1.11708
1.11866
1.12133
1.12462
1.13335
1.15408
1.16732
1.17284
1.17617
1.17935
1.17985
1.17092
1.16575
1.16704
1.17013
1.1735
1.17862
1.1963
1.21831
1.22811
1.23302
1.23662
1.23872
1.22954
1.21878
1.21759
1.21992
1.22335
1.22757
1.23689
1.2625
1.28274
1.29115
1.29608
1.30006
1.3005
1.28682
1.27532
1.27403
1.2757
1.27909
1.28425
1.3012
1.33259
1.35034
1.35759
1.3619
1.3657
1.36525
1.34859
1.33552
1.33381
1.33549
1.33921
1.3463
1.37219
1.4042
1.41931
1.42606
1.43071
1.43559
1.43505
1.41629
1.40012
1.397
1.39951
1.40447
1.41829
1.45365
1.48164
1.49387
1.50054
1.50593
1.51097
1.50484
1.48092
1.46497
1.46238
1.46563
1.47361
1.50095
1.5353
1.55519
1.56536
1.5721
1.57619
1.57442
1.55218
1.51887
1.50085
1.49873
1.50558
1.5493
2.70371
7.6104
1.1238
1.12999
1.13219
1.12815
1.12158
1.12135
1.12378
1.12688
1.13103
1.14456
1.16539
1.1752
1.1798
1.18311
1.18624
1.18295
1.17295
1.17069
1.17258
1.17535
1.17873
1.18556
1.20737
1.22776
1.23627
1.24083
1.24424
1.24435
1.23158
1.22214
1.22236
1.2257
1.22943
1.23341
1.24409
1.27126
1.29009
1.29804
1.3034
1.30808
1.30721
1.29024
1.27785
1.2776
1.28137
1.28583
1.29082
1.30815
1.33855
1.35483
1.36237
1.36857
1.37366
1.37256
1.35449
1.33927
1.33687
1.34063
1.34583
1.35333
1.3781
1.40804
1.42256
1.4307
1.43758
1.44323
1.44216
1.42252
1.40456
1.40063
1.40435
1.41023
1.42383
1.4568
1.48331
1.49584
1.50486
1.5127
1.5182
1.51274
1.48789
1.46878
1.46438
1.46734
1.47392
1.4988
1.53454
1.55606
1.5665
1.57265
1.57601
1.57438
1.55496
1.52051
1.49836
1.48657
1.51475
2.6926
7.61367
1.12673
1.13392
1.13669
1.13735
1.1296
1.12533
1.12659
1.12918
1.13204
1.13745
1.15598
1.17515
1.1831
1.18731
1.1907
1.19276
1.18467
1.17546
1.17483
1.17745
1.18084
1.18463
1.19378
1.21785
1.23584
1.24346
1.24826
1.25191
1.24975
1.23567
1.22823
1.22856
1.23069
1.2342
1.23892
1.25277
1.28086
1.2981
1.30531
1.30961
1.31312
1.31217
1.29657
1.2858
1.28498
1.28663
1.29012
1.29573
1.31569
1.34688
1.36312
1.36989
1.37398
1.37821
1.3791
1.36322
1.34789
1.34485
1.34623
1.34978
1.35707
1.38348
1.41571
1.43111
1.43802
1.44269
1.44794
1.44893
1.43135
1.41277
1.40774
1.40925
1.41341
1.42469
1.45857
1.48996
1.5046
1.51184
1.51761
1.52224
1.51784
1.49396
1.47293
1.46677
1.46884
1.47497
1.49776
1.53295
1.55541
1.56611
1.57178
1.57453
1.57304
1.5565
1.52318
1.49086
1.48908
2.65001
7.62011
1.12842
1.13791
1.14073
1.14342
1.14022
1.13126
1.12924
1.13096
1.13381
1.13732
1.14589
1.16815
1.18451
1.19109
1.19473
1.19797
1.19746
1.18583
1.17931
1.1803
1.18319
1.1864
1.1902
1.20151
1.22737
1.24409
1.25127
1.25596
1.25943
1.25485
1.23852
1.23122
1.23289
1.23676
1.24076
1.24513
1.25994
1.2882
1.30399
1.31092
1.31644
1.3211
1.31906
1.30106
1.28872
1.28835
1.29213
1.29677
1.30216
1.32119
1.35115
1.36674
1.37453
1.38093
1.38601
1.3864
1.37016
1.35245
1.34779
1.35087
1.35598
1.36358
1.38799
1.41832
1.43379
1.44264
1.45014
1.45593
1.45674
1.43905
1.41775
1.41052
1.41295
1.41848
1.42939
1.46005
1.49076
1.50572
1.51395
1.52071
1.52635
1.52432
1.50244
1.47937
1.47072
1.47122
1.47526
1.49407
1.5293
1.55352
1.56489
1.57016
1.5723
1.57036
1.55702
1.51909
1.48857
2.58354
7.63222
1.12837
1.14162
1.14447
1.14716
1.14844
1.14067
1.13341
1.13386
1.13671
1.13996
1.14386
1.15521
1.1787
1.19258
1.19859
1.20215
1.2052
1.2009
1.18811
1.18385
1.18515
1.18786
1.19141
1.19617
1.21049
1.23655
1.25128
1.25765
1.26208
1.26515
1.2595
1.24449
1.23887
1.23976
1.24191
1.24542
1.25063
1.26832
1.29689
1.31188
1.31824
1.32198
1.32548
1.32453
1.30866
1.29719
1.29597
1.29747
1.30073
1.30639
1.32764
1.35935
1.37532
1.38188
1.38578
1.39002
1.39258
1.37916
1.36102
1.35563
1.35649
1.35969
1.36629
1.39131
1.42553
1.44291
1.45035
1.45509
1.45987
1.46256
1.44866
1.42691
1.41819
1.41803
1.42088
1.42858
1.45764
1.49277
1.51136
1.52004
1.52636
1.53195
1.53178
1.51108
1.48408
1.4717
1.4708
1.47433
1.49015
1.52521
1.55162
1.56346
1.56801
1.56888
1.56754
1.55118
1.51937
2.5283
7.64914
1.12406
1.14309
1.14736
1.15032
1.15323
1.1523
1.14254
1.13865
1.1402
1.14285
1.14567
1.14975
1.16385
1.18811
1.20058
1.20618
1.20959
1.21183
1.20358
1.19066
1.18814
1.19078
1.19439
1.19789
1.20221
1.21797
1.24419
1.2579
1.26413
1.26882
1.2724
1.26575
1.24892
1.24222
1.24404
1.24794
1.25199
1.25677
1.27451
1.30235
1.31636
1.32311
1.3288
1.33346
1.33203
1.31487
1.30095
1.29914
1.30264
1.30732
1.31322
1.33303
1.36265
1.37791
1.38575
1.39229
1.39756
1.3998
1.38646
1.36622
1.3586
1.36062
1.36562
1.37293
1.39558
1.4274
1.4445
1.45343
1.46098
1.46703
1.46989
1.45671
1.43243
1.42019
1.41999
1.42473
1.43288
1.45845
1.49404
1.51521
1.52479
1.53054
1.53484
1.53457
1.51684
1.48887
1.47367
1.47096
1.47326
1.48644
1.521
1.54878
1.5609
1.56436
1.56562
1.56007
1.55754
2.51246
7.66526
1.11537
1.14048
1.15001
1.15457
1.15771
1.16054
1.15596
1.14567
1.14326
1.14492
1.14773
1.15082
1.15582
1.17298
1.19657
1.20783
1.21337
1.21718
1.21831
1.20703
1.19599
1.19491
1.19671
1.19927
1.20288
1.2083
1.22644
1.25198
1.26478
1.27064
1.27455
1.27754
1.27186
1.25662
1.25051
1.25105
1.25284
1.25622
1.26167
1.2815
1.30996
1.32427
1.33043
1.33413
1.33831
1.33914
1.32395
1.30984
1.30721
1.30825
1.31115
1.31676
1.33753
1.36931
1.38617
1.39314
1.39724
1.40176
1.40588
1.39587
1.37532
1.36698
1.36708
1.36954
1.37505
1.39579
1.43093
1.45184
1.46056
1.46542
1.4701
1.47478
1.46668
1.44281
1.42884
1.42659
1.42843
1.43335
1.45487
1.49247
1.51578
1.52553
1.53128
1.53596
1.53774
1.52399
1.49512
1.47592
1.47092
1.47204
1.48224
1.51563
1.54467
1.5568
1.56096
1.55703
1.57672
2.5307
7.6772
1.10967
1.129
1.14982
1.15839
1.16242
1.1655
1.16705
1.15816
1.14891
1.14818
1.15038
1.15325
1.15626
1.16166
1.18119
1.20476
1.21546
1.22077
1.22443
1.22445
1.21137
1.19983
1.19889
1.20204
1.20574
1.20912
1.21392
1.23271
1.25827
1.27042
1.2764
1.28141
1.28515
1.27906
1.26181
1.25365
1.25473
1.25844
1.26244
1.26731
1.28599
1.314
1.32821
1.33556
1.34157
1.34627
1.34655
1.33061
1.31375
1.30981
1.31272
1.31731
1.32334
1.34185
1.37145
1.38821
1.39703
1.40435
1.40979
1.4132
1.40323
1.38099
1.36974
1.37004
1.37454
1.38073
1.39805
1.43021
1.45135
1.46216
1.47131
1.47811
1.48243
1.47501
1.44963
1.43137
1.42725
1.43019
1.43578
1.45399
1.49002
1.51574
1.52732
1.53375
1.53897
1.54199
1.53164
1.50137
1.47739
1.46954
1.4698
1.47772
1.50981
1.53905
1.55236
1.55177
1.58032
2.57405
7.68924
1.11059
1.11821
1.14031
1.1588
1.16628
1.17017
1.17321
1.17254
1.16064
1.15334
1.15334
1.15531
1.15809
1.16157
1.16835
1.18976
1.21208
1.22185
1.227
1.23099
1.2307
1.21763
1.20743
1.20639
1.20758
1.2098
1.21347
1.21973
1.24083
1.26612
1.27782
1.28313
1.28645
1.28975
1.28613
1.27036
1.26202
1.26159
1.26282
1.26598
1.27147
1.29225
1.32224
1.33692
1.34295
1.34639
1.34994
1.35204
1.33953
1.32296
1.31825
1.31907
1.32159
1.3265
1.34447
1.37742
1.39718
1.40509
1.4094
1.41326
1.41778
1.41192
1.39077
1.37847
1.37678
1.37837
1.38251
1.39664
1.43185
1.45943
1.47112
1.47701
1.48124
1.48528
1.48198
1.45969
1.43942
1.43302
1.43356
1.43713
1.45038
1.48649
1.51741
1.53126
1.5371
1.54101
1.54324
1.53613
1.50726
1.47896
1.46781
1.46687
1.47325
1.5032
1.53272
1.54185
1.57592
2.62794
7.70015
1.11318
1.11739
1.12702
1.15053
1.16734
1.17426
1.17808
1.18093
1.17719
1.1633
1.15735
1.15846
1.16134
1.16432
1.16756
1.17412
1.19701
1.21944
1.22903
1.23395
1.23806
1.23783
1.2232
1.21053
1.20921
1.21226
1.21596
1.21972
1.22554
1.24671
1.27131
1.28236
1.28834
1.29348
1.29748
1.29366
1.27568
1.26468
1.26469
1.26818
1.27251
1.27821
1.2978
1.32572
1.3396
1.34659
1.3525
1.35731
1.3595
1.34761
1.32875
1.32142
1.32303
1.32741
1.33316
1.34889
1.37913
1.39822
1.40753
1.41492
1.4209
1.42529
1.42031
1.39864
1.38254
1.37959
1.38318
1.38873
1.40074
1.4316
1.45834
1.47108
1.47935
1.48658
1.49178
1.49024
1.46847
1.44447
1.43502
1.43564
1.43996
1.45182
1.4849
1.51623
1.53068
1.53687
1.54127
1.54429
1.5399
1.51307
1.48082
1.4657
1.46356
1.46876
1.49774
1.52008
1.56091
2.68077
7.70659
1.11666
1.12032
1.12394
1.13496
1.15968
1.17537
1.18197
1.18583
1.18826
1.18125
1.16745
1.1632
1.16403
1.16586
1.16895
1.17294
1.18152
1.2059
1.22681
1.23539
1.24
1.24314
1.24242
1.2292
1.21814
1.21685
1.21834
1.22055
1.22423
1.23107
1.25397
1.27891
1.28995
1.29496
1.29798
1.30143
1.29992
1.28414
1.27349
1.27252
1.27394
1.27682
1.28218
1.30213
1.33187
1.34743
1.35387
1.35753
1.3612
1.36511
1.35728
1.33855
1.33021
1.32996
1.33169
1.33586
1.34978
1.3821
1.40587
1.41581
1.42092
1.42469
1.42969
1.42931
1.41078
1.39335
1.38836
1.38817
1.39062
1.39887
1.42839
1.462
1.47889
1.48602
1.4905
1.49467
1.49608
1.47958
1.45448
1.44218
1.44042
1.44219
1.44871
1.47816
1.51278
1.53008
1.53731
1.54172
1.54476
1.54292
1.51966
1.48409
1.46414
1.45984
1.4646
1.4861
1.53553
2.71826
7.70856
1.12115
1.12366
1.12616
1.12989
1.14247
1.16784
1.18238
1.18877
1.19282
1.19517
1.18592
1.17053
1.16664
1.16898
1.17244
1.17578
1.17937
1.18777
1.21241
1.23209
1.23997
1.24473
1.24908
1.2499
1.23672
1.22296
1.22034
1.22308
1.22688
1.23069
1.23687
1.25885
1.28287
1.2935
1.2995
1.3047
1.30892
1.3074
1.29084
1.27756
1.27565
1.27868
1.28295
1.28875
1.30618
1.3338
1.34937
1.35726
1.36382
1.36907
1.37267
1.36559
1.34508
1.3333
1.33292
1.33685
1.3422
1.35414
1.3825
1.40578
1.41728
1.42587
1.4331
1.43816
1.43814
1.41998
1.39775
1.38921
1.39058
1.39523
1.40324
1.42799
1.46066
1.4784
1.48768
1.49585
1.50168
1.50374
1.4888
1.46025
1.44275
1.43907
1.44167
1.44802
1.4738
1.50967
1.52964
1.53815
1.54275
1.54538
1.54453
1.52538
1.48847
1.4625
1.45538
1.45367
1.5034
2.72748
7.709
1.12657
1.12657
1.12842
1.13105
1.13505
1.14846
1.17352
1.18734
1.19302
1.19691
1.19944
1.19096
1.17779
1.17506
1.17633
1.17783
1.18037
1.18437
1.19432
1.21914
1.23824
1.24634
1.25065
1.25369
1.255
1.24494
1.23197
1.22888
1.22978
1.23148
1.23492
1.24163
1.26471
1.28995
1.30119
1.30621
1.30913
1.31269
1.31385
1.30054
1.28696
1.28404
1.28513
1.2875
1.29209
1.30792
1.33787
1.35693
1.36489
1.36906
1.37266
1.37715
1.3745
1.35577
1.34298
1.34094
1.34214
1.34543
1.35411
1.3819
1.41159
1.42618
1.43269
1.43651
1.44067
1.44358
1.43074
1.40844
1.39836
1.39703
1.3987
1.40356
1.42358
1.46081
1.48504
1.49473
1.49967
1.50296
1.50512
1.49543
1.46836
1.44848
1.44275
1.44351
1.44789
1.46959
1.50617
1.52896
1.53847
1.54263
1.54443
1.54329
1.52869
1.4934
1.46376
1.44507
1.46952
2.70237
7.70814
1.13338
1.12884
1.13046
1.13289
1.13481
1.13844
1.15281
1.1788
1.19347
1.19985
1.20449
1.20714
1.19798
1.18295
1.17848
1.18046
1.18372
1.18688
1.19041
1.19901
1.22334
1.24266
1.25077
1.25593
1.26055
1.26295
1.25312
1.23729
1.23183
1.23365
1.23723
1.24121
1.24743
1.26852
1.2927
1.30396
1.31028
1.31588
1.32043
1.32171
1.30902
1.29265
1.28719
1.28916
1.29321
1.29813
1.3106
1.33813
1.3578
1.36737
1.37493
1.38064