/*--------------------------------*- C++ -*----------------------------------*\
  =========                 |
  \\      /  F ield         | OpenFOAM: The Open Source CFD Toolbox
   \\    /   O peration     | Website:  https://openfoam.org
    \\  /    A nd           | Version:  12
     \\/     M anipulation  |
\*---------------------------------------------------------------------------*/
FoamFile
{
    format      ascii;
    class       volScalarField;
    location    "9.4";
    object      T;
}
// * * * * * * * * * * * * * * * * * * * * * * * * * * * * * * * * * * * * * //

dimensions      [0 0 0 1 0 0 0];

internalField   nonuniform List<scalar> 
9801
(
0.835327
0.835771
0.836585
0.837843
0.840186
0.844054
0.846868
0.848324
0.849228
0.849865
0.850358
0.850792
0.851446
0.852261
0.853407
0.855581
0.859514
0.862609
0.864158
0.86509
0.865736
0.866086
0.866497
0.867166
0.868011
0.869117
0.871403
0.875571
0.87879
0.880321
0.881203
0.881626
0.881821
0.882247
0.882943
0.883884
0.885111
0.887691
0.892263
0.895469
0.896893
0.897651
0.897816
0.897848
0.898122
0.898934
0.899988
0.901295
0.90458
0.909935
0.913015
0.91427
0.914792
0.914352
0.914128
0.914533
0.915502
0.916642
0.918317
0.923046
0.929005
0.931773
0.933048
0.93314
0.931333
0.930815
0.931563
0.932802
0.934591
0.937771
0.944475
0.949955
0.952333
0.953722
0.953026
0.949599
0.948834
0.950077
0.952181
0.955487
0.963416
0.971605
0.975827
0.978188
0.97881
0.975248
0.971424
0.971552
0.974734
0.980318
0.993351
1.00506
1.01323
1.02046
1.02401
1.0234
1.01792
1.13802
1.51505
0.838422
0.839173
0.840127
0.841445
0.844281
0.847951
0.850244
0.851728
0.852833
0.853554
0.85347
0.853625
0.85442
0.855463
0.856675
0.859062
0.862975
0.865665
0.867259
0.868439
0.869202
0.868845
0.868936
0.869792
0.870898
0.872123
0.87438
0.878434
0.881419
0.8831
0.884311
0.884943
0.884206
0.884293
0.885218
0.886444
0.887775
0.890182
0.894641
0.897861
0.899516
0.900675
0.90088
0.899649
0.899764
0.900878
0.902237
0.90368
0.906702
0.911766
0.91504
0.916722
0.91784
0.917273
0.915609
0.915926
0.917201
0.918592
0.920279
0.924673
0.930545
0.933586
0.935276
0.936245
0.934151
0.932244
0.932966
0.93451
0.93637
0.939432
0.946292
0.951821
0.9545
0.956174
0.956168
0.952362
0.950799
0.952253
0.954474
0.957826
0.965607
0.973232
0.977395
0.98008
0.982455
0.980274
0.974572
0.974796
0.978272
0.983528
0.993588
1.00411
1.01249
1.02035
1.02471
1.02305
1.01228
1.13415
1.53192
0.842037
0.842779
0.843739
0.845072
0.847966
0.851709
0.853926
0.855356
0.85651
0.857352
0.857308
0.857285
0.857933
0.858963
0.860202
0.862622
0.866601
0.869251
0.870821
0.872066
0.872962
0.87272
0.872627
0.873322
0.874397
0.875643
0.877817
0.881866
0.884836
0.886539
0.887867
0.888724
0.888133
0.888019
0.888793
0.889966
0.891282
0.893518
0.89794
0.901204
0.902968
0.904326
0.904799
0.903634
0.903623
0.904608
0.905921
0.907352
0.910039
0.914981
0.918364
0.920233
0.92165
0.921574
0.919809
0.919795
0.920945
0.92246
0.924229
0.92824
0.933925
0.937133
0.93908
0.940459
0.939305
0.936976
0.937211
0.938697
0.940659
0.943496
0.949877
0.955585
0.958595
0.960716
0.961845
0.959089
0.956639
0.957545
0.959837
0.962744
0.96914
0.97752
0.983157
0.986758
0.989758
0.989411
0.98362
0.982035
0.985755
0.990918
0.999206
1.01056
1.02001
1.02865
1.03593
1.03623
1.02514
1.14256
1.54776
0.84645
0.847118
0.848033
0.849411
0.85241
0.856149
0.858387
0.859804
0.860949
0.861889
0.86195
0.861756
0.862313
0.863305
0.864614
0.8672
0.871166
0.873831
0.875417
0.876653
0.877652
0.877584
0.877231
0.877757
0.878761
0.880074
0.882416
0.886548
0.889602
0.891343
0.892681
0.893703
0.893278
0.89281
0.893382
0.894461
0.895838
0.898225
0.902784
0.906214
0.908052
0.909465
0.91026
0.909251
0.908843
0.909553
0.910711
0.912176
0.914889
0.920062
0.923772
0.92576
0.927275
0.927781
0.925979
0.925406
0.926364
0.927806
0.929687
0.933668
0.939524
0.943115
0.945263
0.946929
0.946815
0.944113
0.943498
0.944837
0.946871
0.949557
0.955593
0.96215
0.965828
0.968282
0.970314
0.96901
0.965146
0.964831
0.967102
0.970012
0.975144
0.98411
0.991155
0.995319
0.9985
1.00025
0.996426
0.992755
0.994607
0.999859
1.00647
1.01646
1.02618
1.03489
1.04334
1.04709
1.03984
1.15036
1.5618
0.851083
0.851716
0.85261
0.85396
0.857047
0.860845
0.863116
0.864567
0.865721
0.866683
0.866904
0.866648
0.867149
0.868115
0.86937
0.872019
0.876077
0.878792
0.880426
0.881681
0.882727
0.882896
0.882395
0.882825
0.88382
0.885093
0.887466
0.891753
0.894946
0.896753
0.898095
0.899169
0.898991
0.89832
0.89884
0.899945
0.901288
0.903616
0.908198
0.91183
0.913814
0.915265
0.916313
0.915578
0.914677
0.915306
0.916548
0.918074
0.920728
0.925856
0.92984
0.932034
0.933636
0.934655
0.933268
0.93187
0.932564
0.934038
0.935937
0.93963
0.945624
0.949758
0.952189
0.953999
0.954992
0.952769
0.950704
0.951452
0.953448
0.955912
0.961119
0.968564
0.97317
0.975849
0.978084
0.978653
0.974805
0.972487
0.973934
0.976902
0.980842
0.988763
0.997449
1.00302
1.00674
1.00999
1.0093
1.00429
1.00271
1.0061
1.01177
1.02016
1.03013
1.0386
1.046
1.05159
1.0469
1.1558
1.56985
0.856001
0.856555
0.857435
0.85872
0.861743
0.865689
0.868053
0.869553
0.870751
0.871782
0.872227
0.871929
0.872278
0.873187
0.874359
0.876796
0.881003
0.883892
0.885601
0.886907
0.888041
0.888483
0.887908
0.888155
0.889108
0.890334
0.892502
0.896856
0.900274
0.902201
0.903599
0.90478
0.904974
0.904016
0.904247
0.905302
0.906654
0.908861
0.913406
0.917288
0.919492
0.921072
0.922384
0.922363
0.920754
0.920699
0.921849
0.923431
0.926044
0.931163
0.935499
0.937957
0.939729
0.941213
0.941001
0.938688
0.938182
0.939405
0.941234
0.944379
0.950549
0.955656
0.958442
0.960352
0.961985
0.961214
0.95791
0.957151
0.958804
0.961064
0.965011
0.972708
0.978901
0.982222
0.984545
0.986256
0.983969
0.979988
0.979505
0.981834
0.984979
0.99059
0.999777
1.00688
1.01152
1.01532
1.01764
1.01458
1.01014
1.01022
1.01407
1.01988
1.02876
1.03743
1.04433
1.04964
1.04934
1.16078
1.57416
0.860693
0.861169
0.861991
0.863168
0.865946
0.870077
0.8726
0.874122
0.875329
0.876413
0.877072
0.876767
0.876943
0.877809
0.878978
0.881221
0.885459
0.888547
0.890305
0.891621
0.892785
0.893452
0.892858
0.892828
0.893714
0.894972
0.897076
0.901379
0.904983
0.907003
0.908442
0.909689
0.910358
0.909353
0.908904
0.909746
0.91109
0.913254
0.917769
0.921946
0.924304
0.925934
0.927336
0.92813
0.926626
0.925533
0.926252
0.927693
0.92997
0.935004
0.940004
0.942732
0.944502
0.946051
0.946916
0.944779
0.943063
0.943636
0.945301
0.947714
0.953318
0.959676
0.963229
0.9652
0.966878
0.967263
0.964116
0.962152
0.962931
0.9649
0.967507
0.973693
0.981543
0.986144
0.98887
0.991066
0.991242
0.987018
0.984284
0.984894
0.987472
0.991086
0.998631
1.00752
1.01357
1.01766
1.02111
1.02194
1.01757
1.01444
1.0155
1.01926
1.02549
1.03419
1.04117
1.04607
1.04863
1.1653
1.57694
0.864945
0.865349
0.866112
0.86722
0.869612
0.873786
0.876566
0.878201
0.879452
0.880565
0.881362
0.881038
0.880972
0.881742
0.882863
0.884861
0.889074
0.892434
0.894306
0.895666
0.896854
0.897763
0.897309
0.896846
0.897513
0.898672
0.90051
0.904731
0.908716
0.910914
0.912417
0.913707
0.914757
0.914124
0.913022
0.913413
0.914574
0.916289
0.920485
0.925314
0.92804
0.929743
0.931172
0.932364
0.931537
0.929769
0.929848
0.931019
0.932687
0.936774
0.942727
0.94632
0.94824
0.949768
0.950986
0.94967
0.947187
0.947053
0.948395
0.950213
0.954013
0.961139
0.96608
0.96857
0.970308
0.971544
0.969608
0.966433
0.965963
0.967341
0.969413
0.973075
0.981136
0.987955
0.991588
0.994129
0.996042
0.993984
0.988911
0.987594
0.989095
0.991848
0.996302
1.00496
1.01281
1.0179
1.02163
1.02475
1.0247
1.02009
1.01744
1.01883
1.02252
1.02907
1.03699
1.04285
1.04702
1.1704
1.57931
0.86858
0.868883
0.869595
0.87066
0.872692
0.876834
0.8799
0.881631
0.88292
0.884036
0.884915
0.884652
0.88438
0.885028
0.886082
0.887742
0.891734
0.895518
0.897568
0.898977
0.900188
0.901222
0.901031
0.900247
0.900642
0.901665
0.903102
0.906775
0.911401
0.914002
0.91558
0.916886
0.918047
0.917923
0.916442
0.916416
0.917347
0.91869
0.921836
0.927309
0.93084
0.932717
0.934166
0.935475
0.935412
0.933255
0.93272
0.933547
0.934958
0.937549
0.943615
0.948539
0.951
0.952608
0.953992
0.953684
0.950848
0.949863
0.950716
0.952248
0.954385
0.960298
0.967204
0.970755
0.97278
0.974436
0.974434
0.970706
0.968481
0.968917
0.970686
0.972961
0.97851
0.987361
0.99288
0.995819
0.998053
0.999175
0.995407
0.991136
0.990783
0.992527
0.995338
1.00092
1.0098
1.01685
1.02153
1.02505
1.02752
1.02644
1.02195
1.01957
1.02102
1.02455
1.0317
1.03903
1.04478
1.17568
1.58148
0.871511
0.871711
0.872351
0.873376
0.87509
0.879139
0.882571
0.884384
0.88566
0.886761
0.887682
0.887604
0.887161
0.887672
0.888659
0.889994
0.893447
0.897761
0.900145
0.901611
0.902821
0.903899
0.904036
0.903006
0.903111
0.90401
0.905222
0.907921
0.912973
0.916294
0.918034
0.919348
0.920527
0.920906
0.919345
0.918772
0.919484
0.920685
0.92271
0.927932
0.93262
0.934967
0.936462
0.937772
0.938341
0.936352
0.934988
0.935518
0.936752
0.93842
0.943016
0.949385
0.952839
0.954699
0.956179
0.956994
0.954697
0.952378
0.952431
0.953569
0.955211
0.958627
0.96637
0.972026
0.974773
0.976625
0.978037
0.975841
0.971572
0.97061
0.971679
0.973616
0.976314
0.983581
0.992001
0.996442
0.999133
1.0015
1.00205
0.997051
0.9932
0.993464
0.995574
0.998753
1.00526
1.01363
1.0198
1.02412
1.02756
1.02955
1.02798
1.02337
1.021
1.02204
1.02561
1.03325
1.04102
1.18141
1.5835
0.873882
0.873989
0.874549
0.875538
0.87695
0.88064
0.884502
0.886529
0.887843
0.888948
0.889922
0.890082
0.88945
0.889741
0.89062
0.89175
0.894378
0.899099
0.902071
0.90367
0.904908
0.906014
0.906518
0.905421
0.905069
0.9058
0.906915
0.908728
0.913451
0.91776
0.919902
0.921285
0.922489
0.923297
0.922065
0.920772
0.921198
0.922276
0.923707
0.927588
0.933392
0.936605
0.938311
0.939649
0.94068
0.939498
0.93725
0.937163
0.938163
0.93956
0.94212
0.94869
0.953986
0.956475
0.958057
0.959376
0.958699
0.955211
0.953908
0.954642
0.956136
0.958081
0.963596
0.971594
0.975874
0.978067
0.979725
0.980534
0.976987
0.97323
0.972843
0.973998
0.975962
0.979631
0.98837
0.99615
1.00013
1.00261
1.00458
1.00382
0.99865
0.995717
0.996329
0.998515
1.00209
1.00933
1.01711
1.02256
1.02647
1.02972
1.03113
1.02922
1.02426
1.02127
1.02188
1.02594
1.03531
1.18587
1.58501
0.875917
0.875962
0.8764
0.877337
0.878496
0.881501
0.885814
0.888259
0.889669
0.8908
0.891812
0.892261
0.891508
0.891455
0.892195
0.893245
0.895087
0.899684
0.903533
0.905418
0.906685
0.907795
0.908592
0.907759
0.906861
0.907346
0.908366
0.909681
0.913243
0.918517
0.92142
0.922973
0.924201
0.925253
0.924754
0.922881
0.922746
0.923652
0.924891
0.92714
0.932983
0.937712
0.939943
0.941339
0.942556
0.942602
0.940014
0.938797
0.939371
0.940589
0.942175
0.94667
0.953832
0.957797
0.959841
0.961292
0.962126
0.959395
0.956245
0.956046
0.957096
0.958647
0.961236
0.968571
0.975789
0.979194
0.981374
0.983206
0.98296
0.977825
0.974676
0.974989
0.976591
0.978774
0.983422
0.992636
0.99941
1.00279
1.00522
1.00737
1.00625
1.00072
0.998069
0.998923
1.00133
1.00547
1.01315
1.02023
1.02507
1.02865
1.03157
1.03256
1.03006
1.02431
1.02047
1.02065
1.02774
1.18742
1.58575
0.877827
0.877846
0.87806
0.878899
0.879911
0.882067
0.886568
0.889698
0.891314
0.892501
0.893534
0.894232
0.89353
0.893033
0.893625
0.894634
0.895999
0.899747
0.904448
0.906888
0.908281
0.909428
0.910427
0.910183
0.908792
0.908826
0.909689
0.91083
0.913042
0.918452
0.922539
0.924499
0.92581
0.926973
0.927355
0.925422
0.924387
0.924958
0.926053
0.927469
0.931627
0.93792
0.941224
0.942933
0.944247
0.94525
0.943567
0.940856
0.940634
0.941606
0.942983
0.945216
0.951767
0.95815
0.961025
0.962735
0.964165
0.964217
0.960388
0.957903
0.958031
0.959171
0.960906
0.964806
0.973493
0.979731
0.98253
0.98432
0.985843
0.984702
0.979516
0.977164
0.977639
0.979119
0.981388
0.987167
0.996518
1.00268
1.00595
1.00835
1.00989
1.00786
1.00271
1.00051
1.00141
1.00387
1.00868
1.01671
1.02322
1.02742
1.03051
1.03297
1.03348
1.03039
1.02376
1.01871
1.0194
1.18473
1.58582
0.879678
0.879773
0.879612
0.880308
0.881267
0.882781
0.886899
0.890914
0.892874
0.894101
0.89514
0.895994
0.895648
0.894748
0.8951
0.896022
0.897151
0.899648
0.904748
0.908136
0.909812
0.911025
0.912113
0.912532
0.911037
0.910358
0.910976
0.91203
0.913448
0.917667
0.923138
0.925904
0.927393
0.928594
0.929551
0.928428
0.926352
0.926278
0.927174
0.928406
0.930595
0.936738
0.942086
0.94454
0.945998
0.947236
0.947227
0.944064
0.942348
0.942757
0.943864
0.945331
0.948932
0.956733
0.961896
0.964313
0.966004
0.967387
0.965764
0.961083
0.959491
0.960217
0.961647
0.963489
0.968638
0.977603
0.98274
0.985287
0.987449
0.989061
0.986595
0.980994
0.979102
0.979991
0.981789
0.984357
0.990844
0.999812
1.00527
1.00822
1.01057
1.01223
1.01006
1.00472
1.00257
1.00353
1.0061
1.01153
1.01964
1.02552
1.0292
1.0321
1.03406
1.03395
1.03006
1.02147
1.01514
1.17797
1.58551
0.88144
0.881796
0.881179
0.881723
0.882651
0.883833
0.886978
0.891682
0.894252
0.895623
0.896708
0.897685
0.897927
0.896814
0.896679
0.897397
0.898403
0.899931
0.904424
0.909051
0.911289
0.912608
0.91373
0.914605
0.913657
0.91213
0.912326
0.91326
0.914435
0.916892
0.922771
0.926956
0.928909
0.930191
0.931351
0.931514
0.929052
0.927843
0.928396
0.929474
0.930816
0.934637
0.941645
0.945616
0.947515
0.948852
0.950002
0.948555
0.945007
0.9441
0.944811
0.946078
0.947865
0.953372
0.961275
0.965258
0.967168
0.96861
0.96972
0.967145
0.962828
0.961801
0.96239
0.963733
0.965922
0.972682
0.98174
0.98635
0.988524
0.990151
0.991229
0.988269
0.983188
0.981705
0.982494
0.984159
0.986954
0.994394
1.00303
1.008
1.01086
1.01316
1.0143
1.01175
1.00658
1.00439
1.00521
1.00775
1.01373
1.02188
1.02732
1.03062
1.03327
1.03456
1.03404
1.02751
1.01664
1.16945
1.58518
0.883121
0.883929
0.882985
0.883245
0.884068
0.885089
0.887085
0.891841
0.895416
0.897139
0.898324
0.899371
0.900123
0.899225
0.898318
0.898719
0.899647
0.900827
0.903857
0.909371
0.912597
0.914177
0.915321
0.916355
0.91638
0.914434
0.913842
0.914534
0.915604
0.916987
0.92137
0.927338
0.930289
0.931821
0.93303
0.934003
0.932566
0.929993
0.929715
0.930521
0.931699
0.933514
0.939336
0.945879
0.948914
0.950669
0.951981
0.952517
0.949239
0.946203
0.94612
0.94712
0.948432
0.950618
0.95765
0.964927
0.968198
0.970213
0.971909
0.972482
0.968201
0.964035
0.963621
0.964792
0.966332
0.968711
0.976264
0.984668
0.988488
0.990723
0.992868
0.994015
0.990248
0.985022
0.983742
0.984834
0.986782
0.989973
0.99769
1.00562
1.01012
1.01289
1.01519
1.01647
1.01366
1.00805
1.00569
1.00644
1.00896
1.01525
1.02332
1.02841
1.03156
1.03383
1.0348
1.03233
1.02349
1.16315
1.58529
0.884818
0.8861
0.885106
0.884843
0.885447
0.886371
0.887653
0.891502
0.896265
0.898646
0.899951
0.90104
0.902013
0.901796
0.900246
0.900167
0.900984
0.902053
0.903762
0.908743
0.913434
0.915599
0.916879
0.917997
0.918814
0.917429
0.915694
0.915854
0.916748
0.917885
0.920132
0.926334
0.931231
0.933403
0.934694
0.935863
0.936078
0.933177
0.931331
0.931684
0.932707
0.933969
0.936791
0.944097
0.949552
0.951886
0.953416
0.95472
0.954451
0.950408
0.94807
0.948194
0.949098
0.950526
0.953753
0.962084
0.968592
0.971363
0.972958
0.974306
0.97444
0.969975
0.966468
0.96614
0.966867
0.968311
0.971258
0.979843
0.98804
0.991709
0.993678
0.995325
0.995975
0.992252
0.987517
0.986336
0.987124
0.988831
0.992435
1.00081
1.00834
1.01249
1.01511
1.01725
1.01822
1.01517
1.00939
1.00684
1.00741
1.00976
1.01616
1.02412
1.02903
1.03203
1.03407
1.03392
1.03066
1.16153
1.58611
0.886544
0.888101
0.887443
0.886492
0.886797
0.887646
0.888706
0.891158
0.896441
0.899903
0.901538
0.902668
0.903693
0.904199
0.902715
0.90184
0.902358
0.903302
0.904442
0.907571
0.913466
0.91685
0.918484
0.919649
0.920716
0.92059
0.918138
0.917281
0.917918
0.918989
0.920269
0.924159
0.930948
0.93461
0.936367
0.937546
0.938605
0.93731
0.933929
0.933106
0.933812
0.934908
0.936267
0.940512
0.948361
0.952783
0.95491
0.956474
0.957717
0.955911
0.951098
0.949514
0.95029
0.951575
0.95299
0.956864
0.965642
0.971292
0.973819
0.975793
0.977428
0.97671
0.971185
0.96776
0.967881
0.969228
0.970889
0.974109
0.982837
0.990266
0.993526
0.995692
0.997792
0.998534
0.994327
0.989205
0.987937
0.989024
0.991087
0.995178
1.0036
1.01053
1.01441
1.01697
1.01909
1.02017
1.01677
1.01047
1.00771
1.00814
1.01028
1.01652
1.02432
1.02916
1.03223
1.03332
1.03504
1.16432
1.58766
0.888201
0.889877
0.889802
0.888454
0.888261
0.888965
0.889938
0.891379
0.895815
0.900663
0.902955
0.904229
0.905308
0.906235
0.905607
0.903825
0.903717
0.904467
0.905504
0.907142
0.912298
0.91759
0.919961
0.92124
0.922326
0.923107
0.921383
0.91916
0.919214
0.920131
0.921236
0.922889
0.928581
0.934871
0.937646
0.939188
0.940368
0.94096
0.938107
0.935155
0.934965
0.935816
0.936977
0.938728
0.94465
0.952219
0.95575
0.957483
0.958784
0.959782
0.95728
0.952987
0.951957
0.95243
0.953473
0.955106
0.960262
0.969424
0.974599
0.976767
0.978133
0.979382
0.978488
0.973321
0.970432
0.970439
0.971302
0.972851
0.976656
0.98604
0.993281
0.996397
0.998243
0.999785
1.00022
0.996298
0.991479
0.990173
0.990912
0.992689
0.997123
1.00601
1.01288
1.01663
1.01904
1.02091
1.02167
1.01813
1.01157
1.00844
1.00862
1.01037
1.01639
1.02407
1.02922
1.03149
1.03662
1.17093
1.58974
0.889763
0.891513
0.891974
0.890811
0.889862
0.890277
0.891162
0.892253
0.895009
0.900644
0.904112
0.905762
0.906882
0.907898
0.908262
0.906325
0.905207
0.905703
0.906687
0.907836
0.91073
0.917026
0.920959
0.922736
0.923876
0.924953
0.924874
0.922039
0.920757
0.921216
0.922167
0.923322
0.925966
0.93306
0.938367
0.940652
0.94205
0.943198
0.942755
0.938683
0.936566
0.936974
0.93807
0.939245
0.941333
0.948389
0.955354
0.958366
0.960174
0.96172
0.962365
0.958407
0.954063
0.95349
0.954568
0.955903
0.957541
0.963234
0.972079
0.976487
0.978664
0.98063
0.982141
0.980632
0.97494
0.97193
0.972209
0.973606
0.975396
0.979455
0.988538
0.995008
0.997866
0.99991
1.00189
1.00251
0.998292
0.99303
0.991467
0.992394
0.994414
0.999245
1.00808
1.01468
1.01829
1.02064
1.02242
1.02314
1.01951
1.0126
1.00894
1.00872
1.01002
1.01582
1.02369
1.02832
1.03618
1.17906
1.59193
0.891195
0.893066
0.893787
0.893319
0.891698
0.891658
0.892451
0.893464
0.894986
0.899621
0.904711
0.907061
0.908326
0.909382
0.910266
0.909338
0.907211
0.907084
0.907888
0.908926
0.910314
0.914938
0.921114
0.923997
0.92547
0.926567
0.927452
0.925836
0.922831
0.922392
0.923221
0.924355
0.925634
0.929588
0.937134
0.941391
0.943344
0.944695
0.945723
0.944198
0.940059
0.938679
0.939103
0.940009
0.941284
0.944244
0.952221
0.958529
0.961166
0.962648
0.963828
0.964146
0.960123
0.956456
0.955982
0.95651
0.957657
0.959649
0.966455
0.975283
0.979493
0.981362
0.982699
0.983922
0.982618
0.977375
0.974637
0.974654
0.975497
0.977075
0.981688
0.991267
0.997639
1.0004
1.00216
1.00377
1.00442
1.00058
0.99531
0.99353
0.994042
0.995716
1.00046
1.00952
1.01635
1.01999
1.02214
1.02363
1.02424
1.02086
1.0137
1.00921
1.00837
1.00917
1.01529
1.0225
1.03288
1.18713
1.59376
0.892512
0.894524
0.895256
0.895577
0.894088
0.893298
0.893827
0.894743
0.895782
0.898326
0.904167
0.907993
0.909739
0.910841
0.911839
0.912179
0.910024
0.908689
0.9091
0.910016
0.911091
0.913199
0.919353
0.924643
0.926882
0.928111
0.92917
0.929436
0.926385
0.924191
0.924444
0.925406
0.926504
0.927964
0.933267
0.940674
0.94424
0.946071
0.947465
0.948291
0.945372
0.941033
0.940195
0.941129
0.942351
0.943603
0.946961
0.955317
0.960949
0.963349
0.965149
0.966704
0.966524
0.961469
0.957637
0.957484
0.958691
0.960132
0.962172
0.969061
0.977256
0.981008
0.983108
0.985061
0.986476
0.984832
0.979191
0.976062
0.976187
0.977568
0.979481
0.984317
0.993301
0.999102
1.00191
1.00422
1.00616
1.00684
1.00269
0.996784
0.994616
0.995189
0.996913
1.00154
1.01055
1.0175
1.02115
1.02322
1.02459
1.0252
1.0222
1.01484
1.00918
1.00741
1.00813
1.01395
1.02686
1.19322
1.59481
0.893297
0.895731
0.896605
0.897529
0.897076
0.895382
0.895244
0.895935
0.896888
0.898184
0.902391
0.908178
0.910909
0.912262
0.913284
0.914209
0.913435
0.910922
0.910462
0.911179
0.912196
0.913313
0.916437
0.923369
0.927667
0.929574
0.930734
0.93176
0.930893
0.927247
0.925901
0.926387
0.927348
0.928503
0.930495
0.937048
0.943851
0.946801
0.948377
0.949609
0.950137
0.946848
0.943187
0.942655
0.943176
0.944138
0.945589
0.949959
0.958638
0.963887
0.96607
0.967369
0.968516
0.968335
0.963713
0.96039
0.960106
0.960677
0.961852
0.964133
0.971776
0.980097
0.983817
0.985559
0.986843
0.98815
0.987046
0.981779
0.978694
0.978534
0.979369
0.980981
0.986125
0.995765
1.00188
1.00455
1.00625
1.00774
1.00831
1.00448
0.998676
0.996229
0.996486
0.997883
1.00208
1.0112
1.01851
1.02219
1.02404
1.02524
1.02582
1.02334
1.01598
1.00878
1.00595
1.00598
1.01856
1.19561
1.59508
0.893882
0.897095
0.898055
0.8991
0.899701
0.898102
0.896813
0.89719
0.898103
0.899112
0.901001
0.906584
0.911465
0.913578
0.914745
0.915791
0.916435
0.914337
0.912306
0.91242
0.913192
0.914163
0.915494
0.919915
0.926992
0.930569
0.932275
0.933357
0.934193
0.932016
0.928316
0.927619
0.928442
0.929575
0.930686
0.933036
0.940361
0.946582
0.949219
0.950855
0.952233
0.952393
0.94807
0.944344
0.944121
0.945211
0.946455
0.947853
0.952521
0.961115
0.965773
0.967917
0.969743
0.971201
0.970608
0.96543
0.961729
0.961535
0.962712
0.964192
0.966522
0.973923
0.981604
0.98508
0.987225
0.989168
0.99058
0.989321
0.983806
0.980203
0.979981
0.981253
0.983141
0.988161
0.997243
1.0029
1.00557
1.00753
1.00941
1.01048
1.00681
1.00044
0.997466
0.997537
0.998823
1.00269
1.01158
1.01903
1.02267
1.0244
1.0256
1.02617
1.02429
1.01701
1.00856
1.00342
1.0087
1.19243
1.59423
0.893832
0.898404
0.899534
0.900583
0.901546
0.901296
0.899156
0.898695
0.899323
0.900201
0.901163
0.903975
0.91052
0.914558
0.916309
0.917393
0.918403
0.918129
0.915068
0.913752
0.914222
0.915203
0.916249
0.917835
0.923398
0.930164
0.933224
0.934866
0.936012
0.936433
0.933211
0.930081
0.929825
0.930484
0.93144
0.932675
0.93584
0.943678
0.949332
0.951696
0.953081
0.954198
0.954137
0.949988
0.946855
0.946601
0.947121
0.948138
0.949786
0.95543
0.964153
0.968629
0.970482
0.971647
0.972762
0.972492
0.967914
0.964479
0.964073
0.964598
0.965739
0.968198
0.97627
0.984325
0.98782
0.98951
0.990789
0.992183
0.991598
0.98644
0.982641
0.982014
0.9825
0.983924
0.988904
0.998476
1.00497
1.00799
1.00979
1.01137
1.0122
1.00906
1.00269
0.999037
0.998609
0.99955
1.00269
1.01147
1.01927
1.02289
1.02455
1.02582
1.02646
1.02494
1.01769
1.0066
1.00289
1.18318
1.59259
0.892833
0.899191
0.901022
0.902142
0.903158
0.903965
0.902499
0.900479
0.900369
0.90102
0.901963
0.903272
0.907668
0.914313
0.9175
0.918959
0.919956
0.920837
0.919281
0.916148
0.915572
0.916221
0.917134
0.918142
0.920143
0.926824
0.933224
0.935948
0.937486
0.938584
0.938474
0.934422
0.931451
0.931478
0.932519
0.933621
0.934799
0.938287
0.946407
0.951579
0.95379
0.955449
0.956864
0.956453
0.951528
0.948095
0.94807
0.949207
0.950481
0.952052
0.957725
0.96595
0.969963
0.972002
0.973809
0.975282
0.974912
0.970016
0.965946
0.965377
0.96646
0.967958
0.97057
0.978145
0.985491
0.988896
0.991098
0.993019
0.994493
0.99376
0.988217
0.983633
0.98274
0.983777
0.985548
0.990463
0.999907
1.00652
1.00952
1.01136
1.01311
1.0142
1.01125
1.00423
0.99981
0.99902
0.999951
1.00294
1.0114
1.01925
1.02291
1.02461
1.02598
1.02646
1.02513
1.01586
1.00465
1.17141
1.59149
0.891453
0.898858
0.902228
0.903763
0.904791
0.905773
0.905806
0.903046
0.901637
0.902057
0.902972
0.903966
0.905709
0.911477
0.9176
0.920249
0.921645
0.922681
0.923132
0.920203
0.91739
0.91717
0.917898
0.918928
0.920113
0.922866
0.930227
0.93593
0.938313
0.939828
0.940958
0.940377
0.936172
0.933737
0.933736
0.934294
0.935274
0.936689
0.941089
0.949382
0.954246
0.956299
0.957523
0.958631
0.958365
0.953939
0.950876
0.950584
0.950993
0.951965
0.953751
0.960025
0.968449
0.972624
0.974428
0.975587
0.97685
0.977106
0.97278
0.968676
0.967891
0.968341
0.969389
0.971837
0.979759
0.987823
0.9915
0.99323
0.994406
0.995945
0.996027
0.991027
0.986324
0.98515
0.985614
0.986958
0.991279
1.00063
1.00788
1.01122
1.01291
1.01425
1.01516
1.01308
1.00644
1.00133
0.999985
1.00054
1.00289
1.01084
1.01876
1.02252
1.02446
1.02584
1.02643
1.0233
1.0145
1.16335
1.59128
0.891039
0.89675
0.902633
0.90512
0.906329
0.907281
0.908082
0.906613
0.903747
0.903344
0.904
0.904891
0.90592
0.908343
0.91526
0.920789
0.923067
0.924317
0.925287
0.924883
0.920938
0.918735
0.919005
0.919973
0.921026
0.922157
0.925395
0.933259
0.938544
0.940782
0.942263
0.943448
0.942377
0.937439
0.93487
0.93522
0.936337
0.937481
0.938771
0.943375
0.951655
0.95609
0.958131
0.959848
0.96123
0.960706
0.955626
0.951975
0.951745
0.952804
0.954136
0.95597
0.961945
0.969911
0.973877
0.976008
0.977851
0.979293
0.979378
0.974899
0.970145
0.969011
0.969911
0.971383
0.973906
0.98115
0.988647
0.99237
0.994871
0.997018
0.998577
0.998528
0.993489
0.987996
0.986197
0.986686
0.987948
0.991482
1.00052
1.0081
1.01157
1.01362
1.01553
1.01687
1.01536
1.00842
1.00227
1.00033
1.00075
1.00271
1.00991
1.01782
1.02192
1.02411
1.02572
1.02553
1.02383
1.1623
1.59204
0.891834
0.89454
0.900974
0.905753
0.907713
0.908767
0.909679
0.909912
0.907098
0.904936
0.905055
0.905887
0.906886
0.908054
0.911395
0.918815
0.923551
0.925596
0.926863
0.92777
0.926325
0.922178
0.920684
0.921013
0.921733
0.922785
0.924192
0.928362
0.936306
0.940979
0.942956
0.94425
0.94523
0.94405
0.939546
0.937435
0.937511
0.938057
0.93905
0.940645
0.946121
0.954487
0.958767
0.960547
0.961595
0.962545
0.962383
0.958088
0.954717
0.954291
0.954768
0.95574
0.957524
0.963894
0.972433
0.976571
0.978311
0.979374
0.980575
0.981233
0.977601
0.972871
0.971504
0.97178
0.972756
0.974843
0.982253
0.990999
0.995367
0.997358
0.998738
1.00005
1.00037
0.995836
0.98981
0.987357
0.98759
0.988865
0.99191
1.00051
1.00926
1.01358
1.01546
1.01688
1.0178
1.01667
1.01032
1.00345
1.00082
1.00087
1.0023
1.0086
1.01662
1.02123
1.0241
1.02477
1.02923
1.16669
1.59375
0.893012
0.894469
0.897685
0.90456
0.908493
0.910166
0.911105
0.912004
0.91131
0.907856
0.906561
0.907046
0.907948
0.908925
0.910199
0.914278
0.921888
0.926192
0.92811
0.929344
0.930065
0.927704
0.923288
0.922081
0.922819
0.923955
0.925035
0.926315
0.930853
0.938828
0.943085
0.94497
0.946449
0.947658
0.946193
0.941033
0.938568
0.938963
0.940119
0.941331
0.942832
0.948285
0.956209
0.960034
0.961914
0.9636
0.964973
0.964819
0.960395
0.956384
0.95564
0.956582
0.95791
0.959651
0.96553
0.973466
0.977418
0.979535
0.981418
0.982918
0.983541
0.980036
0.974763
0.972783
0.973313
0.9747
0.976789
0.983203
0.991573
0.995968
0.998262
1.00002
1.00162
1.00225
0.998224
0.992089
0.989235
0.989279
0.990421
0.992943
1.00058
1.00928
1.01377
1.01597
1.01755
1.01867
1.01816
1.01222
1.00462
1.00115
1.00077
1.00168
1.00721
1.01524
1.0208
1.02298
1.03109
1.17525
1.59601
0.894236
0.895356
0.896493
0.900742
0.907606
0.911046
0.912628
0.913615
0.914373
0.912387
0.908988
0.908338
0.90893
0.909815
0.910797
0.912295
0.917125
0.924619
0.928495
0.930287
0.931564
0.932145
0.929269
0.925354
0.924575
0.92502
0.925717
0.926761
0.928371
0.933677
0.941486
0.945452
0.947186
0.948262
0.949169
0.948004
0.94351
0.941369
0.941426
0.941915
0.942873
0.944547
0.950443
0.958484
0.962528
0.964274
0.965365
0.96654
0.967059
0.963397
0.959205
0.958142
0.958309
0.959085
0.960784
0.966889
0.975524
0.98001
0.981918
0.983101
0.984392
0.985522
0.983043
0.977735
0.975348
0.975009
0.975407
0.977016
0.983101
0.992458
0.997962
1.00042
1.00193
1.00346
1.0045
1.00152
0.99503
0.991305
0.990672
0.991255
0.992812
0.99944
1.00901
1.0146
1.01716
1.01852
1.01931
1.01918
1.01419
1.00603
1.0015
1.00048
1.00082
1.00545
1.01403
1.01915
1.03048
1.18501
1.59827
0.89554
0.896176
0.896937
0.898423
0.903656
0.910559
0.913709
0.915157
0.916121
0.916536
0.913524
0.910502
0.910249
0.910988
0.911934
0.912839
0.914233
0.919512
0.927106
0.930811
0.932547
0.933835
0.93436
0.931105
0.926829
0.925938
0.926772
0.927906
0.928961
0.93037
0.935788
0.943436
0.947068
0.948848
0.950421
0.951645
0.950395
0.945364
0.94258
0.942716
0.94378
0.945016
0.946629
0.95201
0.959687
0.963684
0.965798
0.967618
0.969062
0.969495
0.965548
0.960447
0.958996
0.959737
0.961068
0.962967
0.968399
0.976287
0.98072
0.983156
0.985263
0.986882
0.987902
0.985348
0.979191
0.975766
0.975615
0.976784
0.978584
0.983899
0.993038
0.999231
1.00228
1.00404
1.00546
1.00649
1.00385
0.996788
0.992007
0.990983
0.991843
0.993532
0.999442
1.00886
1.01499
1.01778
1.01912
1.01984
1.01994
1.01594
1.00759
1.00173
0.999689
0.999523
1.00417
1.01193
1.02625
1.19391
1.59985
0.896686
0.896992
0.897839
0.898814
0.90062
0.906681
0.9133
0.916241
0.917769
0.918844
0.918753
0.915013
0.912427
0.912274
0.912712
0.913472
0.914545
0.916376
0.922295
0.929532
0.932918
0.934553
0.935788
0.936262
0.933163
0.929362
0.928567
0.928845
0.929398
0.930441
0.932223
0.938299
0.945901
0.949518
0.951118
0.952129
0.953066
0.952447
0.948133
0.945386
0.94517
0.945569
0.946422
0.94798
0.95344
0.961697
0.966163
0.968058
0.969088
0.970191
0.971126
0.968225
0.963458
0.961837
0.961971
0.96262
0.96404
0.968936
0.977654
0.983166
0.985523
0.986732
0.987838
0.989175
0.987906
0.982263
0.978627
0.977928
0.97834
0.979554
0.983789
0.993218
1.00042
1.00358
1.00518
1.00631
1.00733
1.00609
0.999893
0.994637
0.993016
0.993125
0.994088
0.998625
1.00817
1.0152
1.01832
1.01951
1.02008
1.02031
1.01748
1.00946
1.00211
0.998617
0.998207
1.00206
1.01876
1.19977
1.60069
0.898472
0.897965
0.898723
0.89965
0.900639
0.902807
0.909688
0.916193
0.918948
0.920386
0.921353
0.920626
0.916186
0.913556
0.913665
0.914591
0.915583
0.916576
0.918308
0.924585
0.931771
0.935006
0.936649
0.938031
0.938631
0.935195
0.930639
0.92956
0.930315
0.931429
0.932562
0.934265
0.940224
0.94752
0.950877
0.952646
0.954241
0.955491
0.954962
0.950331
0.946735
0.946264
0.947183
0.948376
0.949852
0.954636
0.96253
0.966922
0.96925
0.971244
0.972727
0.973534
0.970763
0.965376
0.962915
0.963197
0.96438
0.965933
0.969828
0.977791
0.983263
0.986151
0.988662
0.990548
0.991865
0.990838
0.985031
0.980166
0.978898
0.979576
0.980922
0.984208
0.99252
1.00003
1.00373
1.00597
1.00799
1.00928
1.0087
1.00277
0.996204
0.993477
0.993437
0.994344
0.997971
1.00731
1.01494
1.01828
1.01947
1.02013
1.02057
1.01885
1.01154
1.00251
0.997391
0.995174
1.00881
1.1995
1.60017
0.901485
0.899329
0.8997
0.900536