/*--------------------------------*- C++ -*----------------------------------*\
  =========                 |
  \\      /  F ield         | OpenFOAM: The Open Source CFD Toolbox
   \\    /   O peration     | Website:  https://openfoam.org
    \\  /    A nd           | Version:  12
     \\/     M anipulation  |
\*---------------------------------------------------------------------------*/
FoamFile
{
    format      ascii;
    class       surfaceScalarField;
    location    "0.775";
    object      phi;
}
// * * * * * * * * * * * * * * * * * * * * * * * * * * * * * * * * * * * * * //

dimensions      [1 0 -1 0 0 0 0];

internalField   nonuniform List<scalar> 
69079
(
-0.000157575
9.10491e-05
6.65255e-05
0.000127268
7.44034e-18
-0.000127268
-0.000134528
0.000134514
0.000128736
-1.46833e-06
-0.000132967
-1.58976e-06
-0.000133011
7.91994e-05
-0.000146755
6.75559e-05
1.81071e-07
0.000142358
-0.000118976
0.000130024
-0.000130024
1.90277e-17
0.000129367
6.56883e-07
-9.80687e-05
-5.95058e-05
-0.000117652
0.000125577
-8.62128e-06
-0.000127564
0.000124821
2.74345e-06
-0.00012692
-6.44003e-07
3.5111e-06
-0.000112319
0.000108808
0.000129393
-2.57601e-08
0.000128749
6.44003e-07
-0.000129238
0.000127538
1.70017e-06
-0.000127822
-1.41681e-06
0.000129148
-0.000128427
-7.21283e-07
0.000128144
1.00464e-06
0.000128004
-0.000130424
2.3729e-06
-0.000139066
1.33437e-05
0.000125722
0.000149254
-9.7927e-05
-5.1327e-05
0.000123223
-1.55462e-05
-0.000107677
-0.000128749
-1.27512e-06
0.000128723
2.57601e-08
2.96241e-07
-1.28801e-08
0.000152317
-0.000120892
0.000121077
-0.000126081
5.14423e-06
0.000122219
-0.000132446
1.02268e-05
0.000142647
-2.04278e-05
0.000127422
7.21283e-07
-3.99282e-07
-0.000128672
2.38281e-05
0.000104844
0.000127216
-0.000127216
6.49166e-18
2.96241e-07
-5.27171e-06
0.000112749
-0.000105298
-1.13988e-05
-0.000127667
0.000103797
1.9362e-05
-0.000123331
-0.000136384
1.66625e-05
0.000126328
-0.000126328
1.8567e-18
-6.11802e-06
-0.000121008
0.00014779
-2.64227e-05
0.000126121
1.41681e-06
-1.0948e-06
-7.45111e-05
0.000142299
-6.77877e-05
0.000123764
-0.000123764
7.30481e-18
0.000141925
-1.81609e-05
0.000120274
2.16514e-05
0.000141165
-2.08914e-05
0.000121469
-3.66338e-06
-0.000118242
-0.000146846
0.000122654
-2.89276e-05
-0.000131976
0.000133187
-1.22282e-06
-0.000131888
5.68583e-05
7.52147e-05
0.000122837
-0.000122837
-1.99358e-17
0.000140715
-1.78775e-05
0.000121171
4.43746e-08
-0.000121312
-7.03935e-05
-4.40715e-05
0.00011421
7.62885e-05
5.11724e-05
-0.000127461
0.000136797
-7.08041e-05
-6.60922e-05
-1.4387e-05
-0.000114285
5.00648e-05
-0.000124576
-0.00010722
0.000110731
0.000124177
6.44003e-07
-2.15097e-06
0.000148333
-0.00014833
-1.53707e-05
-0.000116081
-0.00012948
1.07904e-05
-5.08504e-05
0.00013005
0.000118329
2.23855e-05
0.000139723
-2.13938e-05
0.000124863
-1.50761e-05
-0.000109792
0.000130281
-0.000127628
-2.67379e-06
9.49904e-05
5.42637e-05
0.000114195
-0.000117453
3.25865e-06
-2.75633e-06
0.000116951
-0.000123172
1.13344e-05
0.000111837
0.000122219
2.04278e-05
-1.54561e-06
0.000117028
-0.00013922
2.21923e-05
0.000102966
1.82717e-05
0.000130526
-1.34983e-05
-7.90835e-05
-4.88411e-05
0.000127925
-0.000119643
0.000121176
-1.53272e-06
0.000116062
-0.000131454
1.53917e-05
0.000117015
-9.53124e-07
-4.74085e-05
-2.40644e-05
-6.33698e-06
-0.000102332
0.000108669
-7.06728e-05
0.000138937
-6.82643e-05
0.000139158
-3.52527e-05
-0.000129535
9.89188e-06
0.000120274
2.08914e-05
6.93591e-05
5.25892e-05
-0.000121948
-2.56313e-06
-0.000118393
-1.11412e-05
3.12985e-07
-0.000105998
0.000105685
0.000124692
-3.69918e-06
6.78907e-05
5.99309e-05
-0.000127822
5.42637e-05
-0.000124936
-0.000119437
1.04328e-06
0.000128698
-0.000128698
0.000130021
-8.77407e-06
2.09037e-05
-0.00013647
0.000115538
4.30065e-05
-0.00012209
-0.000127536
-1.03726e-05
0.000113898
-0.000132806
1.89079e-05
0.000116461
-2.56313e-06
7.12712e-06
0.000109653
-0.000117194
-7.74787e-06
9.67079e-05
-0.000105707
0.000118329
2.13938e-05
-2.08914e-05
-0.000104951
0.000105263
7.50907e-06
-0.000120995
0.000113486
-7.08363e-05
2.31681e-05
-7.74581e-06
0.00011246
-0.000105543
4.50601e-05
-0.000115818
-0.000110452
-3.57738e-06
0.000113949
0.000119845
-0.000123143
2.94262e-06
-0.000123584
0.000106557
1.70274e-05
-4.04015e-06
-0.000129027
0.000113757
1.67698e-05
-5.28082e-06
0.000119037
-0.000132909
0.000132909
-0.000113694
3.24861e-06
-3.61028e-05
0.000112391
0.00014855
-8.84139e-05
-5.96985e-05
-0.000133213
5.31793e-05
8.00461e-05
0.000122695
-5.92482e-07
-0.000122103
0.000111966
-0.000130655
1.8689e-05
0.000115676
-3.70945e-06
0.000123925
-1.70017e-06
0.000113151
-0.000111451
0.000115714
6.98099e-06
7.79758e-05
-0.000123726
4.57499e-05
0.000112803
-0.000136142
2.33387e-05
0.00013506
-2.22567e-05
-1.62876e-06
0.000121016
-7.74477e-05
0.000146176
-6.87279e-05
-9.64845e-05
-2.09687e-05
0.000108862
-0.000129354
2.04922e-05
0.000113267
-4.40498e-06
0.000119228
-0.000127728
8.495e-06
-0.000121729
2.52449e-05
-3.10651e-05
-0.000102171
0.00011149
-0.000134532
2.30424e-05
-1.99641e-05
-0.000107052
0.000102874
8.53561e-05
-9.16931e-05
-0.000105642
0.000112336
0.000136174
-0.000136587
0.000115405
3.09121e-07
-2.07369e-05
0.000120297
-0.000127717
7.33855e-06
-0.0001257
3.85698e-06
7.13393e-05
7.73116e-05
-0.000128981
2.04664e-05
0.000108514
0.000109532
-0.00013318
2.36478e-05
-0.000111079
0.0001326
-2.30682e-05
-0.000125438
-1.94645e-06
0.000104662
-4.77653e-05
-4.07654e-05
0.000118741
-1.86503e-05
0.000141874
0.00011149
2.35705e-05
-0.000111593
0.000109893
-2.30424e-05
0.000115608
-0.000115621
6.9694e-05
-0.000121472
5.17778e-05
0.000108231
-0.000132059
2.38281e-05
0.000131608
-2.33773e-05
-1.924e-05
-0.00011119
0.000116036
5.74634e-06
-0.00012085
-2.18067e-05
-0.000114682
1.44325e-05
-9.90086e-05
8.97226e-05
-8.00501e-05
0.000126792
-4.76919e-05
-0.000115611
4.17314e-06
0.000111438
5.96365e-06
0.000118891
-0.000107718
9.94523e-05
0.000112692
0.000123739
-3.37789e-06
0.000106917
-0.000131067
2.41501e-05
-2.58889e-05
7.08403e-07
-0.000112623
0.000111915
0.000110485
6.53019e-06
-2.26946e-05
5.21574e-05
9.11945e-05
0.000110665
4.89442e-07
-0.000111155
1.14632e-06
0.000109519
8.72071e-06
0.000121429
-4.74372e-05
-6.04976e-05
0.000107935
-0.000143479
8.59903e-05
5.75169e-05
7.39959e-05
-0.000121433
3.73521e-07
0.000112494
-0.000112868
-0.000112533
0.000112907
8.59602e-05
-0.000105874
-0.000118999
0.000123752
-4.75274e-06
0.000101662
-0.000122038
2.03762e-05
0.000110034
-8.37203e-06
-1.01997e-05
-9.90038e-05
0.000109204
6.70149e-05
4.77592e-05
-0.000114774
0.000108231
2.43691e-05
-2.38281e-05
1.68857e-05
-0.000117955
0.00010107
-0.000113281
-6.10505e-06
0.0001203
3.62813e-06
0.00010496
-0.000130024
2.50646e-05
0.000129135
-2.41759e-05
7.52581e-05
-0.000120329
4.50712e-05
0.000113757
-0.000106248
0.000117993
-0.000121556
0.000108752
7.72074e-06
-3.99314e-07
0.000121575
3.35313e-05
-0.000113855
-0.00011717
-1.82897e-06
0.000123535
-4.21357e-06
-7.07245e-05
-4.36935e-05
0.000114485
0.000103646
-0.000128582
2.49358e-05
0.000129085
-1.66325e-05
-0.000131748
-2.70095e-05
9.59813e-05
-7.72146e-05
0.000106917
2.46911e-05
-2.41501e-05
-7.33272e-05
-5.35666e-05
0.000128404
0.000128131
-0.000126392
-1.73881e-06
-1.4928e-05
0.00012844
-0.000113512
9.96529e-05
-0.000119823
2.01702e-05
0.000109094
-9.44108e-06
0.000106243
-0.000106904
4.74863e-07
-4.67546e-06
-0.000118909
-0.000132033
2.02474e-05
0.000111786
-2.36864e-05
-0.000108347
-1.65895e-05
-0.00011632
-4.73986e-05
0.000116758
-0.000146111
7.8388e-05
6.77233e-05
-0.000122142
0.000105719
1.64221e-05
0.000105714
4.57317e-07
0.000115403
-0.000109583
-5.86309e-06
-0.000138641
0.000122051
-0.000119359
-7.72803e-08
-0.000117453
0.000119372
-1.91913e-06
-7.14972e-05
-7.46141e-05
6.97841e-05
-0.000124885
5.51009e-05
-6.70026e-07
-0.000126959
-4.22466e-06
-0.000124756
0.000121178
-6.73767e-07
-0.000122811
5.3581e-06
0.000101688
-0.00012777
2.60821e-05
-2.76663e-05
0.000112302
3.29909e-06
9.79399e-05
-0.000117865
1.99254e-05
-0.000125439
2.62753e-06
0.000108231
-1.02912e-05
0.000107523
8.93875e-06
-2.25014e-05
0.000126466
-0.000121315
-5.01866e-06
-9.22001e-06
0.000113992
-0.000104825
0.00012522
-0.00012522
-0.000156441
7.35451e-05
8.2896e-05
-6.36778e-05
0.000118271
-5.51984e-05
-0.000111324
-3.89539e-06
0.000115133
-0.000125072
-2.7677e-06
-7.35349e-05
-4.53699e-05
0.000118694
6.89211e-05
4.26587e-05
-0.00011158
8.4336e-05
-9.45357e-05
3.97994e-06
0.000119604
-0.000123584
0.000103646
2.54896e-05
9.97302e-05
-0.000126418
2.66875e-05
-2.49358e-05
-0.000132497
0.000117569
-0.000118857
0.000118857
8.10026e-05
4.77979e-05
0.000125207
-2.54767e-05
-2.09816e-05
-0.000117659
0.000102119
7.4086e-05
-0.000121679
4.75931e-05
-4.32116e-06
-0.000166772
0.000111779
-1.16297e-06
0.000117756
-0.000116622
9.57374e-05
-0.000116075
2.03376e-05
0.000107329
-1.1592e-05
0.000128027
-0.000129097
-0.000107703
0.000111683
-7.67557e-05
-6.67262e-05
-7.21487e-05
0.000119394
-4.71899e-05
-0.000125822
2.85512e-06
0.000121286
-0.000125602
4.27578e-06
-6.45935e-05
0.000131608
0.000123291
1.25333e-06
0.00012291
4.72792e-07
-0.000147871
7.35029e-05
7.50984e-05
3.6296e-05
0.000106003
0.000122809
3.46656e-07
7.3323e-05
-0.000106864
3.36589e-05
0.000124099
4.34058e-06
0.00010971
-3.64382e-05
3.62072e-05
9.84165e-05
-0.000124627
2.62109e-05
0.000117974
0.000124228
-2.58116e-05
0.000130939
-2.17097e-05
-0.00010881
-0.000109265
-1.50583e-06
0.000110729
-0.000140341
8.15951e-05
5.87459e-05
0.000105397
1.02783e-05
-2.23726e-05
-4.30194e-05
0.000118278
0.00013037
-0.000130388
-0.000107381
0.00010787
0.000112572
-0.000111425
-7.29068e-05
0.00012341
-5.04443e-05
-2.09945e-06
-0.000121072
9.71156e-05
-0.000123636
2.652e-05
-0.00011565
0.000118522
-2.87225e-06
0.000123236
-2.61207e-05
-0.000126315
0.000126308
0.00011949
3.35642e-06
2.85937e-06
-0.000114607
0.000111747
-0.000161786
0.000103101
-0.000102999
-8.68836e-06
0.000111529
-0.000120506
4.85578e-06
-0.000106041
-4.07138e-05
0.000100761
-0.000116307
0.000134532
-1.30112e-05
0.000121833
-4.94952e-07
-0.000118316
-2.18961e-06
0.00012182
-0.00012182
9.58018e-05
-0.000122644
2.6842e-05
0.000122257
-2.64556e-05
9.18734e-05
-0.000111722
1.98482e-05
0.000104702
-1.28285e-05
-7.05054e-05
-6.98356e-05
-0.000124473
4.70251e-05
-0.000116732
-1.58425e-06
6.60026e-05
7.07988e-05
0.00012151
5.29593e-06
0.000104135
9.13196e-06
-2.22825e-05
-0.000117105
0.00010742
9.6858e-06
0.000132046
-0.000128004
-0.000102899
0.000114233
0.000106595
-0.000114126
7.72329e-06
0.000112919
-4.66258e-06
-0.000108257
9.45009e-05
-0.000121665
2.7164e-05
0.000121266
-2.67647e-05
-4.21178e-06
-0.00011793
-0.000118686
0.000123636
-4.76186e-06
7.21283e-07
-0.000116333
0.000110666
-1.89709e-05
-5.52683e-05
0.000123159
2.40004e-07
-0.000134294
2.19747e-05
-0.000112064
-1.26876e-05
0.000114323
-5.2293e-06
-0.000109094
9.84165e-05
2.67905e-05
0.000119604
-4.99102e-05
-2.62109e-05
-0.000121034
0.000109893
1.11412e-05
5.68019e-06
-0.000116417
-0.000154818
9.04051e-05
6.44131e-05
-0.000114568
3.79961e-06
0.000110768
-7.01705e-05
-8.46477e-05
4.2633e-06
0.000108708
-0.000112971
-0.000115199
5.33234e-06
0.000109867
-7.99851e-06
-0.000107201
-0.000119836
0.000111837
9.31872e-05
-0.00012066
2.74731e-05
-0.000115508
2.96241e-06
0.000112546
0.000115199
-4.93306e-06
-0.000110266
-3.92842e-06
0.00011462
-0.000110691
0.000111271
0.000120274
-2.70867e-05
0.000116449
-5.04898e-06
-0.0001114
0.000120133
-7.57733e-07
-0.000128424
-1.29573e-05
-0.00011954
-5.13914e-06
0.000116191
-0.000111052
6.72081e-05
4.47195e-05
-0.000111928
-0.000118587
4.78625e-05
-6.07747e-05
-6.77682e-05
-0.000134325
3.13612e-05
9.71156e-05
2.71125e-05
7.8607e-06
-0.000151004
-2.652e-05
5.66722e-06
0.000107252
-0.000108437
8.05003e-06
0.000100387
9.18863e-05
-0.000119681
2.77951e-05
-5.92024e-06
0.000121533
0.000115315
-4.55954e-06
-0.000110756
-0.000119511
-6.15336e-06
0.000119269
-2.7383e-05
-7.25232e-05
0.000118748
-4.63366e-05
0.000128041
-1.14632e-05
-0.000116577
0.00017946
-3.24353e-05
-0.000121508
0.0001184
2.90013e-06
0.000121768
-0.000121981
-0.000124408
7.36739e-06
0.000117041
3.00594e-07
0.000112164
-0.000112377
-6.56754e-05
0.000118265
8.72881e-05
-0.000106995
1.97065e-05
-1.52242e-05
0.000102512
1.0363e-05
0.000119952
1.08883e-06
0.000111886
-0.000112872
-1.11541e-05
9.93052e-05
-8.81511e-05
0.000135601
-8.01783e-05
-5.54229e-05
2.53737e-06
-0.00011498
0.000112443
2.46009e-06
-0.000119192
0.000118329
-0.000118329
-0.000111451
0.000112868
-1.41681e-06
0.000112146
-0.000115555
3.40465e-06
-0.000102989
0.000103697
-4.64929e-06
0.000116478
-0.000111853
-2.75197e-06
-0.000112431
0.000115286
5.85943e-05
6.93223e-05
-0.000127904
-1.27512e-06
0.000120647
-0.000116667
-1.49409e-06
0.000118162
-0.000121228
-1.37731e-07
0.000111828
-0.000114452
0.000105372
3.35654e-05
9.05725e-05
-0.000118677
2.81043e-05
-5.06444e-05
-5.66593e-05
0.000107304
9.58018e-05
2.74345e-05
-0.000134558
8.39135e-05
0.000115016
-4.09302e-05
-3.1466e-05
-2.6842e-05
-0.000141745
8.08867e-05
6.08582e-05
-6.74316e-05
0.000127067
-5.96812e-05
6.48987e-05
6.23807e-05
-0.000127279
-7.11494e-05
0.000121214
-0.000117131
0.000111374
5.75738e-06
-0.000118097
9.66004e-07
-0.000115049
2.6181e-06
0.000112711
2.08807e-06
7.92756e-05
-0.000108978
-3.09121e-06
0.000112069
-0.000101649
9.04952e-05
8.28388e-05
-0.000142922
0.000110498
-0.000119271
-3.98926e-06
0.000113708
-0.000109749
4.62626e-05
-0.000118248
-7.48073e-05
-6.69376e-05
-7.89041e-07
0.000113566
-0.000112686
-0.000121487
-6.31635e-06
-0.000144179
8.36817e-05
-2.92377e-06
-0.000121485
0.000125727
-0.000125414
-0.000100387
0.000120854
-0.000115239
0.000114062
-4.90209e-06
0.000116886
-0.00011189
-2.45623e-05
-9.42948e-05
7.20745e-05
-0.000142935
-3.45057e-05
0.000115508
-0.000111366
-1.98297e-06
0.000113246
3.49108e-06
8.96254e-05
-0.000111893
-3.80985e-07
-0.000113109
0.000113341
9.45009e-05
2.77565e-05
0.000112988
-1.04258e-06
-0.000111741
0.000114697
-6.18242e-07
-0.000114079
8.92167e-07
0.000112127
0.00011243
-0.000111545
-2.7164e-05
-0.000112868
-2.64041e-06
4.07832e-07
0.00011185
-0.000124022
0.000128195
-0.000112791
0.000113628
-8.37203e-07
-5.90922e-07
0.000112535
0.000110163
4.4565e-06
-0.000113138
3.47761e-07
-6.24354e-05
-4.87889e-05
0.000111184
-0.000135295
2.9297e-05
9.42034e-05
-0.000112722
-3.07546e-06
8.78162e-05
-0.000118329
3.05128e-05
0.000125908
-0.000121321
-4.56111e-06
-1.9047e-06
0.000123114
0.000116384
-2.8568e-05
4.27074e-05
-0.000116318
8.84215e-05
-0.000104006
1.55849e-05
-1.67569e-05
0.000105178
-0.000117415
0.000108154
9.26076e-06
0.000107149
-9.46684e-06
-0.000116925
0.00012133
-6.13992e-05
-4.03691e-05
9.35585e-05
-0.000116899
0.000112675
-3.27268e-06
-0.000111985
-7.21378e-05
-7.50345e-05
-9.57386e-05
1.08728e-06
9.30875e-05
-0.000113771
0.000110488
3.70379e-07
0.000113555
-0.000113829
-5.54166e-06
-0.000107097
0.000112614
-1.37305e-07
0.00011366
-0.000113521
0.000136825
-6.68861e-05
-6.99387e-05
5.84754e-06
0.000108476
9.31872e-05
2.80785e-05
-0.000119695
7.85027e-06
0.000111844
-0.000116912
4.91033e-06
-2.74731e-05
8.70305e-05
-0.00011592
2.889e-05
-3.27926e-05
8.72881e-05
-0.000102706
1.54174e-05
-0.000108667
9.93297e-05
-0.000109455
-5.11338e-06
-1.74267e-05
0.000104715
4.89966e-06
5.15073e-05
8.40938e-05
0.000122592
-0.000120055
0.000115792
-1.0948e-06
-0.000115375
5.09344e-05
0.000112277
3.62615e-07
-0.000112664
-0.000154327
0.000130671
0.000106466
-8.95807e-05
1.08192e-06
-0.000108463
-7.45828e-07
-0.000112116
0.000113051
-3.10409e-06
0.000121626
6.60489e-05
6.18114e-05
-0.00012786
7.76943e-05
6.67295e-05
-0.000144567
-9.9377e-05
-2.32527e-06
0.00010874
2.65437e-06
-0.00011509
0.000112462
7.48331e-06
0.000117737
-0.000117852
0.000115182
-0.000112469
0.000116436
-0.000118033
1.59713e-06
2.53204e-06
0.000112826
-4.36334e-06
0.000116656
-0.000112158
0.000116663
-0.000113934
-0.000123095
-7.12461e-05
0.000128496
-5.59114e-05
-7.05747e-05
0.000129752
-5.90743e-05
-0.000138293
3.7906e-05
0.000112414
-0.000113197
4.14832e-06
-0.000116134
0.000112078
-1.29445e-05
0.000124511
-0.000111567
0.000127319
-7.95601e-05
9.18863e-05
2.83876e-05
-0.000110704
3.43897e-06
0.000107265
8.03071e-05
-0.000135215
5.49077e-05
0.000119811
5.92834e-06
-0.000116667
-0.000137456
7.9895e-05
5.75609e-05
-2.77951e-05
0.000110446
-0.000107587
-0.000116655
-1.30089e-06
-0.000109659
0.000113155
-3.49565e-06
2.73315e-06
-0.000112393
-0.00011931
0.000107851
1.18431e-05
-0.000116548
0.000116666
-1.18507e-07
-0.00011488
-1.66795e-06
8.56266e-05
-0.000116577
3.09508e-05
-0.000121034
-1.32793e-07
0.000114658
-2.90316e-05
-0.000125173
8.10345e-05
-0.000118727
0.000114335
4.08116e-06
-0.000118644
-3.28464e-07
-0.000117449
0.000114165
3.10164e-06
-0.000114427
-3.26105e-06
-0.000117955
-0.000113852
0.000114739
-9.46261e-07
-0.000117221
8.82283e-06
0.000108399
0.000114255
-0.000113601
-9.8428e-05
1.43523e-08
-0.000117067
4.44362e-06
0.000112623
-0.000110073
-3.00105e-06
0.000113074
9.09074e-05
-1.74035e-06
0.000111096
-0.000109448
-0.000112971
-2.44721e-06
0.000115418
-0.000114542
2.40857e-06
0.000112134
-6.73884e-05
-8.90527e-05
4.02204e-06
0.000119823
-5.0039e-05
0.000117353
4.62923e-06
0.000110137
1.71305e-06
-0.00011185
9.01604e-07
0.00011301
-0.000113911
-0.000109785
0.000118329
-4.94079e-05
0.000116461
-5.51266e-06
-0.000110949
-0.000115663
1.70017e-06
0.000113963
9.05725e-05
2.86968e-05
-0.000114003
5.66722e-07
0.000113436
0.000108862
1.88049e-06
-0.000110743
-2.81043e-05
0.000119312
-1.86755e-06
-0.000112881
-8.6349e-07
0.000113751
6.99387e-06
1.98258e-06
-0.000114906
-0.000111368
0.000113356
2.0202e-06
-0.000113409
-0.000110123
8.46813e-05
0.000115431
-3.77385e-06
-0.000111657
8.4725e-05
-0.000114323
2.95984e-05
-3.31404e-05
0.000123367
-0.000123418
-0.000116928
0.000116133
1.47435e-06
-0.000114066
2.17673e-06
0.000111889
-6.81226e-05
-7.60567e-05
-0.000111521
9.64492e-05
0.00011471
-0.000114001
-7.08403e-07
-0.000113774
4.27744e-06
-0.000119701
4.68219e-05
-0.0001131
6.52584e-07
-0.000110531
0.000109161
-1.50419e-06
0.000110241
-0.000108607
-0.000115869
4.28906e-06
0.00011158
0.000127583
-0.000139033
0.000121098
-0.000115251
0.00011149
-0.000116539
-7.91883e-05
8.79715e-05
-1.01475e-06
0.000115135
-3.42336e-06
-0.000111687
0.000113035
-0.000118174
0.000115096
0.000118792
-0.000118479
-0.000119275
0.000115849
3.3944e-06
-0.000113951
-5.36824e-06
-0.000121873
0.000115875
5.96365e-06
-0.000116511
-5.38501e-06
-0.000122097
0.00011593
6.17872e-06
-0.000116524
-5.55607e-06
-0.000122247
0.000115945
6.28815e-06
-0.000116589
-5.69402e-06
0.000139363
-9.6698e-05
-3.33101e-06
-0.000109857
0.000113225
-0.00012245
0.000116032
6.37683e-06
-0.00012846
7.06742e-05
5.78412e-05
-0.000116661
-5.80744e-06
-0.000122523
0.000116153
6.43226e-06
0.000115998
0.000123597
-0.000108656
-1.49409e-05
9.07013e-05
1.32407e-05
-0.000103942
-0.00011669
-5.79964e-06
0.000116822
-0.000122596
0.000116177
6.39628e-06
0.000119359
5.15202e-06
-0.000116832
-5.81171e-06
-0.000135919
3.09688e-05
-0.000110623
-1.15792e-06
0.000112038
-0.000122667
0.000116277
6.37946e-06
-6.78779e-05
-5.24604e-05
0.000120338
-0.00011688
-5.76374e-06
0.000100648
-0.000103086
2.51232e-06
4.30194e-06
-0.000110859
0.000106557
-0.000122624
0.000116337
6.32403e-06
-0.000112301
-5.79602e-06
-0.000116927
-5.69427e-06
1.05616e-06
-0.000113357
-0.000106972
-9.59152e-06
5.3478e-05
-0.000121356
-0.00011563
-5.21883e-06
0.00010183
-1.11284e-05
-0.000110987
0.000116114
-5.12626e-06
-0.00011328
2.29265e-06
-0.000122675
0.000116413
6.26598e-06
-0.000117035
-5.64614e-06
-4.7785e-06
0.000112404
-0.000107626
-1.84155e-06
0.000112543
-0.00011065
-0.000122101
0.000115898
6.19714e-06
-0.000117126
-4.96799e-06
0.000116896
-0.000119101
2.66952e-06
-2.62753e-06
0.000124447
-0.000123095
-0.000122656
0.000116648
6.01823e-06
8.53819e-05
-0.00011592
3.05386e-05
-0.000117195
-5.44618e-06
3.14273e-06
-0.000110743
0.0001076
9.6536e-05
1.34983e-05
-0.000122553
0.000116687
5.8882e-06
0.00011532
-7.82952e-06
-0.000107793
-0.000117268
-5.26545e-06
0.000113911
-2.85293e-05
-2.1793e-05
2.67905e-06
-0.000110717
0.000108038
0.000112546
-0.000115611
3.06545e-06
-1.28801e-08
0.000112559
-0.000122463
0.000116734
5.72281e-06
-0.000117338
-5.1298e-06
-0.000176834
9.79544e-05
2.1507e-05
3.81249e-06
-0.00011091
0.000107098
4.59818e-06
-0.000111786
0.000107188
-0.000121814
0.00011625
5.58801e-06
2.34457e-06
-0.000112809
0.000110583
-0.000117404
-4.36611e-06
-7.15129e-06
0.000117247
-0.00011632
-3.51625e-06
-0.000121701
0.000116349
5.31881e-06
-0.000117576
-4.10791e-06
-0.000114066
0.000114735
-6.69763e-07
-0.000113847
0.000115998
-2.15097e-06
-4.37922e-07
5.65403e-05
-0.000122937
-3.22001e-07
-0.000113525
-0.000110147
0.000114355
0.000117105
-0.000117335
1.26971e-07
-6.2695e-05
-6.34089e-05
0.000114285
-0.000122044
0.000117034
5.02585e-06
7.08403e-07
0.000111541
-0.00011225
-0.000117628
-4.36373e-06
-3.73521e-07
-0.00011185
0.000112224
-4.43074e-06
0.000111103
-0.000106673
5.27765e-06
-0.000115279
-0.000110713
0.000116077
-0.000121913
0.000117191
4.81819e-06
-0.000117651
-4.15312e-06
-0.000114679
1.7816e-06
0.000112692
-0.000110355
-5.3805e-06
0.000115894
-0.000121094
0.000116515
4.57963e-06
-0.000114661
-0.000117784
-3.40243e-06
-0.000118149
0.000120068
-1.91913e-06
-1.30523e-06
-0.000120344
-0.000121335
0.000117176
4.21378e-06
-0.000117767
-3.57345e-06
-0.000114877
2.25401e-06
-3.92938e-06
-0.000121292
0.000117318
4.03847e-06
-0.000117894
-3.33812e-06
-4.85122e-05
-6.71253e-05
6.44003e-08
0.000112147
-0.000112211
-0.000113061
0.000113125
0.000111941
-0.000110859
-0.000121065
0.000117301
3.73518e-06
-0.000114459
1.79614e-06
0.0001125
-0.000117958
-3.13615e-06
1.31902e-06
0.000109807
-0.000110109
-0.000149355
0.000128127
-0.000115608
2.53061e-06
0.000113156
-8.34165e-06
-0.000120799
0.000117329
3.4428e-06
-0.000117925
-2.86254e-06
0.000113694
3.38399e-06
-0.000120569
0.00011747
3.24585e-06
-0.00011792
-2.57504e-06
5.5473e-07
-0.00011926
0.00010875
-0.000116827
0.000118632
-1.80912e-06
-9.92863e-05
-5.31099e-05
0.000123582
-7.23881e-06
8.32051e-05
-0.000113499
3.02939e-05
5.8089e-06
-0.00012303
0.000104274
-2.27171e-06
-0.000101971
-3.28699e-05
-0.000113209
6.39757e-06
0.000106803
-5.57269e-06
-0.000119223
-6.72983e-05
-6.35888e-05
0.000130887
-0.00011901
0.000115839
3.13517e-06
-0.000117471
6.4286e-07
-4.88764e-06
8.66827e-05
2.97014e-05
0.000112301
-0.000111593
-0.000116769
0.000117449
-6.80098e-07
0.000111928
9.45267e-05
3.07833e-06
-9.7605e-05
-1.03016e-07
-2.92377e-05
0.000102384
-7.85683e-06
0.000118042
5.40774e-07
-6.69749e-07
-1.658e-06
0.000114357
-4.70789e-06
-0.000109434
0.00011802
-1.58425e-06
-1.59856e-06
0.000119853
6.04101e-05
7.17718e-05
-0.000133566
7.82205e-05
5.53456e-05
-8.55107e-05
-5.27824e-05
-1.45673e-05
0.00011717
2.98456e-08
-0.000114094
-0.000119836
-0.00013145
7.07842e-05
-0.000110047
0.000110949
0.000110978
-0.000111635
-9.24458e-07
-0.000111624
-1.52279e-06
0.000113193
0.000128367
-5.0789e-05
-0.000111845
-7.55855e-07
0.000112594
6.65254e-06
-0.000114579
0.000107798
-0.000112675
1.2236e-06
-0.000118709
4.61668e-05
0.000113119
-9.36814e-05
-3.59192e-06
0.000113154
-0.000109508
-2.93047e-06
-0.000111205
0.000114214
7.24632e-05
-0.0001237
5.12368e-05
0.000108592
-0.00011337
0.000115959
-0.000102615
-0.000151147
8.93489e-05
6.17985e-05
-0.000112235
-1.10672e-06
0.000113282
7.35254e-07
-0.000112277
-0.000132738
6.50706e-05
9.85581e-05
6.16954e-06
-0.000104728
0.000107703
-9.14484e-06
-5.70586e-06
2.18186e-06
-0.000120686
8.23035e-06
2.13318e-06
-0.000113932
0.000114278
-0.000115557
1.41377e-06
0.000111839
-0.000110693
4.52679e-05
-0.000144491
0.000113506
-1.6306e-06
-0.000115939
0.000118324
-2.24901e-06
0.000120157
-0.000123896
-0.000116938
-1.0948e-06
1.05114e-06
-0.000113302
-6.5732e-05
0.000101057
-3.50297e-05
1.07545e-06
-0.000113735
0.000112956
9.25432e-05
1.31763e-05
-0.000105719
0.000111936
-0.000112164
8.10928e-05
-0.000112971
3.18781e-05
0.000103646
-1.11026e-05
-1.02838e-06
-0.000110208
0.000110481
-0.000111243
0.000109052
-0.000111878
0.000110704
-2.96112e-05
-4.26729e-06
-0.0001124
0.000114557
-0.000114356
0.00011036
-6.69763e-05
0.000130733
-6.37562e-05
-0.000121422
0.000117327
4.10181e-06
-5.52545e-06
0.00010935
-0.000112698
-6.86378e-05
-6.88181e-05
0.000112195
-0.000118082
-3.98813e-06
0.000109461
0.000113783
-7.71582e-05
-6.85446e-05
0.000124745
-5.62579e-05
0.000112134
-0.000118381
-1.32648e-06
0.000166289
-9.19603e-06
-0.00010027
3.46256e-05
-1.30162e-06
0.000102021
4.76562e-07
0.000117852
-0.000121433
5.6801e-06
0.000114465
-0.000120145
-0.000121093
0.000117637
3.48227e-06
-4.83791e-06
-0.000116973
2.99629e-06
-3.3866e-06
0.000108787
-0.00010548
-0.000116899
9.48487e-05
1.42453e-05
-0.000120835
0.000117668
3.17806e-06
-0.000135649
2.84288e-05
0.000108303
-0.000111788
-4.54277e-06
-2.17286e-05
0.000113644
-7.65341e-08
6.39831e-07
-0.00011323
0.000112926
0.000117427
-5.02193e-05
-0.000114168
-7.84722e-07
-0.000108814
0.000109177
0.000106962
-2.42191e-06
0.00011384
6.206e-06
-0.000114348
0.000108864
-0.000120346
0.000117968
2.43742e-06
-0.000109725
7.47043e-07
0.00010948
-3.78051e-06
0.000125413
-8.27543e-05
-0.000109725
-5.15202e-06
0.000110044
-0.000110979
0.000112915
7.31242e-07
0.000117453
-2.13809e-06
7.86713e-05
-0.000109287
3.06159e-05
5.50639e-06
0.000108412
-0.000114213
-0.000113127
0.000111315
0.000128686
-0.00011974
0.00010939
-3.07189e-05
4.30129e-06
-0.000114698
0.000109967
-5.55548e-06
0.000115382
-0.000109949
7.61044e-06
0.000106601
-0.000114316
-0.000107911
0.000115424
0.000140779
-0.000111451
-2.93279e-05
6.96367e-06
-0.000111114
0.000103859
-0.000125407
0.000129032
-1.21505e-06
0.000110044
-0.000103433
5.04254e-05
9.03536e-05
0.000114351
8.0118e-07
4.50295e-06
-0.000114194
0.000109729
5.21824e-06
-0.000114419
0.000109686
9.41532e-06
0.000104367
-0.000113782
1.0304e-06
0.000111837
-0.000113572
-0.000119797
0.000105243
-0.000109922
0.000115561
1.33865e-06
2.0587e-06
0.000110124
-0.000112276
9.96935e-05
-0.000143832
0.000111374
-0.000118368
1.46833e-06
5.15511e-06
0.000116461
-2.70481e-07
2.97704e-06
-0.000112699
0.000108
-0.000113293
-2.24e-06
0.00010538
-0.000116008
-0.000111915
0.000106685
8.49439e-05
2.97143e-05
-0.000114916
0.000114156
7.59923e-07
0.000118677
-0.000117011
-1.58e-06
0.000117556
1.26591e-06
-2.93794e-05
0.000111295
2.23672e-06
0.000118715
-0.000117248
-1.4356e-06
-0.000118198
0.000117572
7.39188e-07
0.000117528
9.97042e-07
1.02139e-05
0.000107767
-0.000117981
-9.84551e-05
0.000108669
1.18754e-05
-0.000110331
-0.000108721
0.000104058
-0.000116964
-1.0482e-06
-1.63921e-06
8.90527e-05
-0.000102796
1.3743e-05
-2.74083e-07
0.00011728
0.000108572
-0.000110353
0.000114209
9.41145e-05
-5.06186e-06
-0.000116078
-8.0745e-05
0.000102706
-2.19605e-05
0.000121704
-8.55235e-06
0.000111915
-0.000102499
7.75121e-05
-0.000108283
3.07704e-05
0.000108502
-3.09894e-05
9.20245e-05
-9.79328e-05
0.000118633
-6.4138e-06
-1.14113e-06
-0.000108098
0.000113582
-3.8877e-06
-0.000105613
9.79668e-05
-0.000106726
4.98649e-06
-0.000113039
-0.000115422
5.86223e-07
-1.51023e-06
0.000113677
-0.000109177
0.000111473
4.9073e-06
0.000104753
-0.000109661
0.000109274
5.00807e-06
-0.000115565
-0.000104161
-7.03129e-06
-2.37396e-06
-8.24033e-05
-0.000117426
1.76633e-06
7.08403e-07
0.000110884
-0.000111593
-0.000113539
-3.93239e-06
0.000119694
-0.000119694
3.91046e-06
-6.91401e-05
-8.20073e-05
-0.000113797
-1.08321e-06
-0.000119668
-6.41424e-07
-5.67237e-05
-7.68424e-05
5.62268e-06
-0.000121479
-0.000106748
-0.000166921
-3.46575e-06
0.000107841
-0.000113667
3.32305e-06
-0.000104481
-2.19975e-06
0.000110627
0.000104159
2.93743e-06
-0.000106321
-0.000120082
0.000119778
-8.01859e-05
8.088e-05
-1.22583e-06
1.3099e-05
-9.3844e-05
-0.000117556
7.22359e-06
-0.00011916
2.22362e-06
-0.000119064
2.20885e-06
-0.000119024
2.16856e-06
-0.000119259
2.2323e-06
-2.91176e-06
-0.000118484
1.37817e-06
-0.000121179
5.86256e-05
-2.88675e-06
-0.000118747
2.05772e-06
-2.87683e-06
0.000115005
-2.85263e-06
0.000112877
-0.00011776
4.90194e-06
-0.000119253
2.15316e-06
-2.74867e-06
-0.000139787
7.82978e-05
6.14894e-05
-0.000118592
1.94826e-06
-2.81799e-06
-2.61323e-06
-0.000112314
0.000115444
-3.12985e-06
-0.000119215
2.04206e-06
0.00011468
-0.000123277
8.49814e-06
-0.000118367
1.73958e-06
-2.46378e-06
-1.86526e-06
-0.000118048
1.51229e-06
0.000117702
-0.00011453
-3.14546e-06
-0.000119188
1.93624e-06
-2.20908e-06
-4.57242e-06
-0.000117723
1.18555e-06
-2.52759e-06
-0.000117299
-8.50083e-07
-0.00011913
1.7993e-06
-1.91323e-06
-0.00012634
5.93642e-05
0.000105372
-0.000110305
7.48717e-05
-0.000107098
3.22259e-05
-2.42079e-06
2.42145e-06
0.000114697
-2.20249e-06
-0.000112778
-3.60641e-07
-0.000118991
1.62597e-06
0.0001121
-0.000110074
2.94953e-06
-0.000112675
3.22001e-06
-1.1592e-06
-2.2411e-06
-3.68498e-05
3.21296e-06
0.000109595
-0.000109119
-0.000118914
1.3947e-06
1.70017e-06
-0.000108915
-9.6958e-07
0.000109806
-1.21957e-06
-0.000118636
1.11578e-06
-9.126e-07
0.000132124
-0.000118526
9.27151e-07
-1.49367e-06
-0.000118556
7.18124e-07
1.32665e-06
-0.000115328
1.0098e-05
-0.000108025
-1.32464e-06
5.4869e-06
-0.000110949
0.000105462
-0.000118141
3.48168e-07
0.000124241
-6.44003e-07
-0.000105333
0.00011082
-0.00011404
-8.75843e-07
-1.5242e-07
-1.63132e-06
-0.00011177
0.00011357
-0.000109001
-1.23979e-06
0.000111534
-0.000117938
1.41755e-07
-6.76564e-07
-0.000117853
-9.45072e-08
9.41918e-05
1.40393e-05
-4.68961e-07
-0.000111043
-2.31016e-06
0.000113076
-0.000117526
-3.75251e-07
0.000113435
0.000116515
-2.19348e-06
-2.17286e-05
-1.86504e-07
-1.22205e-06
-0.000117437
-0.000115313
0.000114951
-4.73666e-07
-0.000117202
-6.66522e-07
-0.000117542
0.000117514
4.28398e-08
-0.000117122
-5.20924e-07
1.55591e-05
-0.000106518
9.09589e-05
1.0832e-07
-0.000117222
-1.07266e-07
3.39375e-07
-5.54873e-05
-7.56574e-05
0.000131145
-2.37569e-06
-0.000107967
0.000111357
0.000103237
-0.000101813
3.72274e-06
-0.000117196
2.57601e-07
0.000109165
-0.000110413
-5.02322e-06
0.000111786
-0.000106763
2.08002e-06
-0.000109763
-1.89652e-06
0.000111855
1.69808e-06
0.000111271
-0.000113672
-7.0544e-05
0.000136593
-0.000107291
-0.000143148
0.000149865
-2.52446e-06
4.17314e-06
0.000109583
-2.05439e-06
0.000113239
-0.00011261
-3.24925e-07
0.000112676
-0.000112417