/*--------------------------------*- C++ -*----------------------------------*\
  =========                 |
  \\      /  F ield         | OpenFOAM: The Open Source CFD Toolbox
   \\    /   O peration     | Website:  https://openfoam.org
    \\  /    A nd           | Version:  12
     \\/     M anipulation  |
\*---------------------------------------------------------------------------*/
FoamFile
{
    format      ascii;
    class       volScalarField;
    location    "4.6";
    object      p;
}
// * * * * * * * * * * * * * * * * * * * * * * * * * * * * * * * * * * * * * //

dimensions      [1 -1 -2 0 0 0 0];

internalField   nonuniform List<scalar> 
9801
(
0.668762
0.671175
0.67701
0.684955
0.690725
0.693814
0.695579
0.696245
0.696693
0.697685
0.69961
0.702166
0.706578
0.714985
0.723717
0.728204
0.730584
0.731888
0.731883
0.73235
0.733916
0.736181
0.73963
0.74714
0.757656
0.764005
0.767109
0.768826
0.769363
0.769495
0.77064
0.772836
0.775718
0.781855
0.793141
0.801092
0.804955
0.807269
0.808383
0.80919
0.81022
0.812259
0.815166
0.820783
0.832487
0.841596
0.845524
0.847508
0.84875
0.849514
0.850865
0.853357
0.856594
0.862508
0.876318
0.886963
0.891567
0.893103
0.892165
0.8922
0.894113
0.896082
0.900158
0.907746
0.924107
0.937288
0.943057
0.945078
0.941609
0.939478
0.940973
0.944679
0.949796
0.959768
0.980538
0.996149
1.00377
1.00777
1.00178
0.994736
0.99636
1.00206
1.01085
1.03023
1.06108
1.08078
1.09171
1.09812
1.09109
1.07926
1.08082
1.09555
1.12592
1.18335
1.23566
1.28944
1.33189
1.87402
5.61942
0.673419
0.676143
0.682215
0.690594
0.695958
0.699386
0.701808
0.70275
0.701948
0.702801
0.705025
0.707674
0.712027
0.720606
0.728068
0.732564
0.735702
0.73754
0.736496
0.736787
0.739008
0.741795
0.745414
0.753185
0.76215
0.767856
0.771596
0.774082
0.77315
0.772469
0.77454
0.777614
0.781076
0.787924
0.798222
0.805293
0.809644
0.812622
0.811962
0.810675
0.812415
0.815613
0.819339
0.825485
0.836755
0.845701
0.850461
0.853636
0.852933
0.850491
0.852094
0.855696
0.859744
0.865868
0.878725
0.889746
0.895605
0.898943
0.897188
0.893581
0.895301
0.898323
0.90291
0.90988
0.925355
0.939028
0.94598
0.950056
0.947285
0.940639
0.941402
0.946061
0.951523
0.961109
0.982111
0.998652
1.00652
1.01182
1.00763
0.996668
0.996804
1.00372
1.01274
1.03222
1.05991
1.07815
1.08991
1.10104
1.10062
1.08437
1.084
1.09968
1.12393
1.16712
1.20856
1.25089
1.27754
1.80611
5.65702
0.675377
0.678206
0.68397
0.692371
0.697772
0.70124
0.703844
0.705439
0.705109
0.70565
0.707653
0.710264
0.714419
0.722745
0.72989
0.734205
0.737448
0.739706
0.739447
0.739723
0.741778
0.744588
0.748132
0.755612
0.764291
0.769658
0.773416
0.776122
0.775656
0.775032
0.777059
0.780194
0.783798
0.790576
0.800864
0.807727
0.812059
0.815171
0.814579
0.812856
0.814355
0.817574
0.821469
0.827564
0.839121
0.848284
0.85332
0.856857
0.856325
0.85309
0.854076
0.857368
0.861454
0.867313
0.879972
0.891619
0.897947
0.901772
0.901337
0.89718
0.897549
0.90033
0.905236
0.912039
0.926309
0.940045
0.947505
0.952147
0.95186
0.944757
0.943297
0.947397
0.953037
0.961886
0.981497
0.998231
1.00744
1.01385
1.01365
1.00254
0.998985
1.00486
1.01351
1.02819
1.0547
1.0777
1.09281
1.10493
1.10934
1.0933
1.08704
1.10078
1.12253
1.15796
1.19917
1.2378
1.26155
1.79705
5.64775
0.678401
0.681435
0.687033
0.695291
0.700678
0.704152
0.706844
0.708943
0.708929
0.70891
0.710621
0.713201
0.717571
0.725897
0.732911
0.737145
0.740331
0.742916
0.743273
0.742867
0.744377
0.747048
0.75079
0.758523
0.767251
0.772581
0.776212
0.779058
0.779361
0.778199
0.779525
0.782307
0.786019
0.793215
0.80363
0.810508
0.814735
0.817946
0.818221
0.815898
0.816668
0.819515
0.823441
0.830035
0.841901
0.851119
0.85615
0.859724
0.86008
0.856169
0.856014
0.858893
0.863099
0.869465
0.882354
0.894342
0.900926
0.904949
0.906378
0.901387
0.899178
0.90108
0.905786
0.912752
0.926933
0.941553
0.949814
0.955035
0.957851
0.950737
0.945467
0.948111
0.953617
0.961702
0.979736
0.998973
1.00976
1.01685
1.02122
1.012
1.00235
1.00514
1.01345
1.02476
1.04804
1.07407
1.09108
1.10349
1.11366
1.10637
1.09296
1.09759
1.11648
1.14252
1.17969
1.21544
1.23512
1.80835
5.63585
0.681455
0.684752
0.690359
0.698455
0.703503
0.706763
0.709393
0.711532
0.71165
0.711599
0.713287
0.715804
0.720277
0.729123
0.736272
0.740434
0.74351
0.746015
0.746376
0.745201
0.746377
0.748915
0.752716
0.760934
0.770227
0.775792
0.779437
0.782366
0.783342
0.781438
0.781906
0.784332
0.78776
0.794766
0.805487
0.812844
0.817308
0.82076
0.822375
0.819958
0.819757
0.822238
0.825746
0.831871
0.843359
0.852571
0.857825
0.861651
0.863693
0.860355
0.859033
0.861671
0.865747
0.87203
0.884537
0.896222
0.90283
0.906939
0.909881
0.906006
0.901246
0.902408
0.906952
0.91372
0.927636
0.943385
0.952305
0.957716
0.962003
0.958077
0.949415
0.94915
0.954024
0.960963
0.975602
0.997357
1.01114
1.01888
1.02518
1.02253
1.00941
1.00595
1.01252
1.02211
1.03969
1.06698
1.08837
1.10319
1.11596
1.12046
1.10612
1.09973
1.10995
1.13092
1.16147
1.19387
1.21128
1.81917
5.62757
0.684152
0.687364
0.692838
0.701557
0.706835
0.710028
0.712617
0.714735
0.714891
0.714564
0.716037
0.718466
0.722597
0.73166
0.739456
0.743772
0.746802
0.749227
0.749769
0.748335
0.749109
0.751506
0.754916
0.762901
0.772938
0.778939
0.78269
0.785585
0.786977
0.785013
0.784601
0.786724
0.789925
0.796355
0.807352
0.815241
0.819972
0.823653
0.826307
0.824498
0.82269
0.824436
0.82766
0.833039
0.844304
0.854186
0.859954
0.864219
0.867645
0.866233
0.862596
0.863716
0.867284
0.872552
0.884293
0.89705
0.904276
0.908777
0.91284
0.912278
0.905812
0.904497
0.90839
0.9139
0.925413
0.943207
0.95448
0.960404
0.965297
0.965443
0.955855
0.95146
0.95464
0.960609
0.970687
0.992325
1.01156
1.02187
1.02889
1.03221
1.02089
1.01087
1.01283
1.0211
1.03282
1.05632
1.08139
1.0989
1.11283
1.1253
1.12315
1.10885
1.10776
1.1195
1.14102
1.17136
1.1896
1.83181
5.62345
0.686524
0.689188
0.693813
0.703272
0.709872
0.713506
0.716202
0.718442
0.719059
0.718154
0.718951
0.721099
0.724469
0.732752
0.74128
0.746065
0.74932
0.751956
0.753469
0.752418
0.75258
0.754744
0.75782
0.764731
0.774682
0.780931
0.784838
0.787844
0.789952
0.788764
0.787587
0.78941
0.792508
0.798196
0.809234
0.817691
0.822631
0.826371
0.829429
0.828724
0.825426
0.826141
0.829209
0.834085
0.845308
0.856802
0.863242
0.867577
0.871213
0.871819
0.866718
0.865302
0.868099
0.872525
0.882499
0.897726
0.906995
0.911981
0.916286
0.91833
0.912104
0.907981
0.9102
0.914687
0.921934
0.939468
0.955473
0.963388
0.96862
0.971632
0.964349
0.956021
0.956176
0.961293
0.967951
0.983504
1.00729
1.02237
1.03083
1.03738
1.03554
1.02112
1.01602
1.0205
1.02924
1.04529
1.07129
1.09275
1.10852
1.12203
1.13122
1.12416
1.1122
1.11365
1.12497
1.14874
1.16937
1.83893
5.61673
0.68945
0.691575
0.695049
0.704008
0.712209
0.716625
0.719588
0.722022
0.723321
0.722171
0.72225
0.724044
0.726764
0.7336
0.742593
0.748116
0.751799
0.754805
0.757165
0.756749
0.756296
0.758016
0.760746
0.766414
0.776166
0.782818
0.786908
0.790224
0.793044
0.792967
0.791142
0.792287
0.795193
0.800061
0.81075
0.820095
0.825291
0.829048
0.832228
0.832764
0.829017
0.828479
0.83121
0.835336
0.845285
0.858776
0.866365
0.870783
0.874326
0.875874
0.870951
0.867531
0.869121
0.873132
0.880184
0.896461
0.909802
0.916009
0.920335
0.923673
0.919396
0.912363
0.911748
0.915215
0.920231
0.932799
0.95358
0.965981
0.972274
0.976863
0.974917
0.963805
0.959511
0.962009
0.96762
0.975984
0.997243
1.01932
1.03152
1.03939
1.04504
1.03755
1.02313
1.02166
1.02821
1.0382
1.05844
1.08296
1.10125
1.1158
1.1291
1.13492
1.12546
1.11404
1.1153
1.12605
1.14713
1.84184
5.60749
0.692784
0.69466
0.697537
0.705473
0.714157
0.719091
0.72235
0.724976
0.726822
0.726074
0.725485
0.726936
0.72937
0.735056
0.744398
0.750595
0.754583
0.757802
0.760489
0.760736
0.759604
0.760696
0.763085
0.767427
0.777217
0.785188
0.789728
0.793194
0.796237
0.797009
0.794789
0.795296
0.797806
0.801509
0.810783
0.821944
0.828003
0.831794
0.835006
0.836531
0.833185
0.831785
0.833857
0.837381
0.844371
0.858604
0.868556
0.873481
0.876993
0.879289
0.875787
0.870996
0.871747
0.875248
0.880211
0.893197
0.91057
0.91934
0.924008
0.927527
0.925981
0.917045
0.913854
0.916216
0.920711
0.928017
0.947417
0.966312
0.975282
0.980777
0.98415
0.975827
0.964878
0.96365
0.967471
0.973456
0.985989
1.01111
1.02993
1.04012
1.04746
1.05042
1.03858
1.02732
1.02865
1.03587
1.04779
1.0708
1.09305
1.10919
1.12236
1.13409
1.13612
1.12507
1.11221
1.11111
1.12275
1.83211
5.59686
0.696141
0.698033
0.70068
0.707826
0.716386
0.721524
0.724927
0.727649
0.729798
0.729505
0.728467
0.729682
0.732064
0.736962
0.746654
0.753655
0.757716
0.760853
0.763562
0.764342
0.762541
0.762936
0.765185
0.768731
0.77787
0.787734
0.793007
0.79651
0.799537
0.801004
0.798655
0.798052
0.799927
0.802967
0.809529
0.822187
0.830511
0.834913
0.838273
0.840661
0.838214
0.835608
0.836875
0.839743
0.843869
0.85546
0.86903
0.875779
0.879827
0.883278
0.882271
0.876518
0.875873
0.878709
0.882383
0.889098
0.906323
0.920002
0.926223
0.930305
0.932369
0.92508
0.918016
0.918586
0.922515
0.9275
0.939167
0.961591
0.976107
0.983145
0.988205
0.988597
0.975474
0.967364
0.968927
0.974125
0.980975
0.998227
1.02291
1.03805
1.04691
1.05398
1.05519
1.04134
1.03229
1.03538
1.04342
1.05797
1.08132
1.10068
1.1152
1.12734
1.13639
1.1358
1.12315
1.10774
1.10217
1.80955
5.58685
0.699105
0.701038
0.70352
0.710266
0.719123
0.72437
0.727784
0.730535
0.732805
0.73266
0.731231
0.732248
0.734575
0.738719
0.748565
0.756789
0.760967
0.763992
0.766621
0.767639
0.765463
0.765316
0.767404
0.77049
0.777944
0.789522
0.796204
0.799829
0.802765
0.804829
0.802813
0.80067
0.801906
0.804698
0.809141
0.820872
0.832354
0.838076
0.841708
0.844769
0.844309
0.840134
0.839477
0.841331
0.844505
0.851612
0.867221
0.878002
0.883446
0.887283
0.88941
0.884362
0.88022
0.88082
0.883294
0.887235
0.898413
0.917343
0.927854
0.933314
0.93742
0.936327
0.926667
0.923084
0.925039
0.928742
0.934156
0.950541
0.972279
0.983422
0.989402
0.994119
0.991337
0.977967
0.97303
0.975662
0.980884
0.989107
1.01001
1.03255
1.04558
1.05397
1.06039
1.05836
1.04435
1.038
1.04204
1.05049
1.06725
1.09018
1.1074
1.12014
1.13077
1.13649
1.1337
1.1167
1.09487
1.77748
5.57775
0.701706
0.703562
0.705888
0.711906
0.72183
0.727722
0.731093
0.733765
0.735973
0.735757
0.733949
0.734719
0.736931
0.740235
0.749206
0.759225
0.764211
0.767248
0.769845
0.771186
0.769045
0.768187
0.769932
0.77257
0.777523
0.789361
0.798391
0.80282
0.80594
0.808514
0.807613
0.804108
0.804394
0.806846
0.810169
0.81866
0.832759
0.840773
0.844997
0.848261
0.849954
0.845439
0.84196
0.843162
0.846068
0.8505
0.863512
0.879217
0.886769
0.891145
0.894445
0.892521
0.884685
0.881996
0.883557
0.887176
0.893335
0.910799
0.928567
0.936609
0.941628
0.944744
0.938819
0.928745
0.926669
0.92875
0.93289
0.940475
0.961571
0.981453
0.990847
0.996879
1.00158
0.994874
0.980963
0.977914
0.981522
0.987283
0.997451
1.02027
1.04026
1.05167
1.05971
1.06597
1.06279
1.04836
1.04307
1.04751
1.05633
1.07489
1.0967
1.11213
1.1234
1.13189
1.13497
1.12723
1.10354
1.74691
5.56878
0.704201
0.705945
0.708247
0.713226
0.723798
0.731265
0.734668
0.737145
0.739158
0.73892
0.736767
0.737138
0.739178
0.741956
0.748909
0.760455
0.767168
0.770679
0.773428
0.775341
0.773602
0.771445
0.772263
0.774447
0.777756
0.787622
0.79957
0.805668
0.809258
0.81226
0.813156
0.809021
0.807378
0.809083
0.811922
0.816965
0.830679
0.842411
0.847879
0.851396
0.854258
0.852028
0.846052
0.845645
0.848277
0.851724
0.859141
0.876452
0.888501
0.893991
0.897595
0.899176
0.892187
0.885355
0.885541
0.888851
0.893322
0.903343
0.924575
0.938647
0.944951
0.949144
0.950066
0.939299
0.930147
0.929851
0.933278
0.938249
0.949735
0.974136
0.991414
0.999176
1.00425
1.00661
0.996652
0.984621
0.983262
0.987141
0.993095
1.00606
1.03022
1.04818
1.05866
1.06648
1.07126
1.06587
1.05195
1.04752
1.05193
1.06068
1.08039
1.10144
1.11527
1.12457
1.13047
1.12999
1.1185
1.73099
5.55929
0.707098
0.708722
0.710949
0.714891
0.724598
0.733521
0.737875
0.740426
0.742364
0.742489
0.740051
0.739759
0.741539
0.744105
0.749071
0.760721
0.769614
0.77401
0.776874
0.779181
0.778422
0.774627
0.774219
0.776277
0.779292
0.78631
0.799875
0.808331
0.812644
0.815772
0.818017
0.814895
0.810736
0.811163
0.813614
0.817102
0.827069
0.842388
0.85035
0.854518
0.857816
0.858784
0.852575
0.84926
0.850672
0.853337
0.857107
0.869197
0.886882
0.895594
0.900363
0.904056
0.903012
0.893518
0.890171
0.892225
0.895507
0.899803
0.913529
0.934756
0.94532
0.950569
0.954823
0.953638
0.940651
0.934326
0.936343
0.940654
0.945606
0.959641
0.983931
0.997622
1.00428
1.00975
1.0116
0.999531
0.988702
0.988673
0.993407
1.00019
1.01572
1.03891
1.0545
1.06401
1.07157
1.07619
1.06969
1.0553
1.05099
1.05506
1.06373
1.08382
1.1039
1.11606
1.1235
1.1258
1.1279
1.73075
5.54955
0.710846
0.711978
0.713979
0.716821
0.724306
0.734317
0.739791
0.742963
0.745394
0.7467
0.744427
0.74296
0.744343
0.746776
0.750457
0.760273
0.771139
0.776579
0.779751
0.782149
0.782623
0.778606
0.777064
0.778937
0.781785
0.786487
0.798757
0.810139
0.815545
0.818862
0.821526
0.820671
0.814965
0.813629
0.815739
0.818822
0.824462
0.839667
0.852191
0.857833
0.861284
0.864046
0.860695
0.85376
0.852459
0.854217
0.857341
0.863421
0.881006
0.896899
0.903903
0.908425
0.911315
0.905528
0.896204
0.894442
0.895912
0.898977
0.904731
0.923611
0.94332
0.952146
0.957414
0.961796
0.957914
0.945206
0.940911
0.942338
0.945577
0.951146
0.968815
0.992095
1.00435
1.0109
1.01589
1.01592
1.00399
0.99489
0.995225
0.99944
1.00629
1.024
1.04654
1.06075
1.06965
1.07679
1.08032
1.07289
1.05853
1.05389
1.05728
1.06536
1.0853
1.10411
1.11502
1.11868
1.12919
1.74496
5.54027
0.715213
0.715449
0.716858
0.71899
0.723622
0.734099
0.741501
0.745388
0.748179
0.750357
0.749571
0.747014
0.747674
0.749827
0.752512
0.759203
0.770985
0.77813
0.78188
0.784706
0.786606
0.783994
0.781156
0.782281
0.784754
0.787806
0.796071
0.809775
0.817308
0.82124
0.824369
0.825927
0.821044
0.817246
0.818354
0.821116
0.824572
0.834604
0.851373
0.860208
0.864568
0.867744
0.868299
0.860437
0.855224
0.856168
0.859176
0.863017
0.87339
0.893818
0.906232
0.911827
0.915761
0.916497
0.905636
0.897108
0.896975
0.89977
0.903774
0.912675
0.935191
0.952501
0.960165
0.965007
0.96857
0.960704
0.947178
0.943597
0.946239
0.950533
0.957424
0.977719
0.99944
1.01022
1.01667
1.02238
1.02183
1.00806
0.998751
0.999511
1.00435
1.01224
1.0317
1.0531
1.06602
1.07438
1.0812
1.08482
1.07697
1.06158
1.05584
1.05835
1.06554
1.08469
1.1023
1.11019
1.1248
1.7686
5.53149
0.719549
0.718788
0.719426
0.721475
0.724614
0.733487
0.742971
0.747777
0.75073
0.753162
0.754249
0.75177
0.751157
0.752689
0.754915
0.758631
0.769351
0.779471
0.784378
0.787528
0.79018
0.78994
0.785981
0.785404
0.787024
0.789516
0.793982
0.806951
0.818723
0.824149
0.827528
0.830369
0.828549
0.822366
0.821365
0.823324
0.826172
0.830962
0.846006
0.860955
0.86743
0.871125
0.873818
0.869907
0.861033
0.859705
0.862332
0.865546
0.869587
0.883374
0.902921
0.912063
0.916636
0.920102
0.918844
0.906785
0.900807
0.902535
0.906507
0.910905
0.922188
0.945218
0.959586
0.966249
0.970206
0.972039
0.962704
0.950566
0.948577
0.951711
0.956489
0.965449
0.988048
1.00795
1.01744
1.02291
1.02676
1.02476
1.01155
1.00343
1.00447
1.00918
1.01785
1.0384
1.05924
1.07152
1.07933
1.08542
1.08838
1.08036
1.06406
1.05674
1.05816
1.06427
1.08285
1.09691
1.11527
1.79517
5.52123
0.723407
0.722788
0.722783
0.724644
0.726939
0.732717
0.743353
0.749825
0.753172
0.755782
0.757953
0.756915
0.754585
0.755263
0.757373
0.760087
0.767395
0.779866
0.78691
0.790478
0.793119
0.794719
0.791136
0.788011
0.789107
0.791687
0.79485
0.803263
0.818282
0.826762
0.830903
0.83381
0.834951
0.828973
0.82452
0.825308
0.827941
0.831179
0.839125
0.857215
0.869187
0.874422
0.87776
0.879006
0.871244
0.864701
0.864713
0.866473
0.869349
0.874726
0.892362
0.910606
0.918746
0.923743
0.927488
0.923307
0.91099
0.907418
0.909306
0.912136
0.916225
0.929353
0.951767
0.964325
0.970194
0.975135
0.977416
0.967001
0.956249
0.955594
0.959209
0.963823
0.972585
0.994763
1.0125
1.02076
1.02648
1.03167
1.03016
1.01655
1.00852
1.00958
1.01417
1.02303
1.04356
1.06358
1.0753
1.08271
1.08835
1.09118
1.08381
1.06641
1.05672
1.05636
1.06205
1.07768
1.10029
1.81534
5.50767
0.727369
0.72753
0.726378
0.727622
0.729541
0.732524
0.742071
0.751472
0.755929
0.758836
0.761369
0.762195
0.759072
0.758381
0.760064
0.762468
0.76623
0.777397
0.788115
0.792983
0.795878
0.798432
0.79759
0.792641
0.792103
0.794308
0.797155
0.801151
0.813494
0.827111
0.833165
0.836461
0.839187
0.837353
0.830075
0.828251
0.830226
0.833228
0.836844
0.848183
0.866849
0.87656
0.881243
0.884292
0.882848
0.872508
0.866897
0.867721
0.870552
0.874278
0.882361
0.903387
0.919896
0.92677
0.930832
0.933796
0.926286
0.914133
0.910694
0.912472
0.915876
0.920965
0.937664
0.960438
0.972209
0.977699
0.982321
0.983223
0.971614
0.961671
0.960676
0.962995
0.967214
0.977697
1.00135
1.01878
1.02747
1.03322
1.03749
1.0354
1.02245
1.01404
1.01423
1.0182
1.02605
1.04635
1.06663
1.07836
1.08548
1.09074
1.09347
1.08721
1.06888
1.05544
1.0534
1.05659
1.0815
1.82282
5.49051
0.73132
0.732412
0.729314
0.729299
0.730885
0.733391
0.740267
0.7524
0.759251
0.762468
0.765052
0.767042
0.764834
0.76205
0.762622
0.764395
0.766776
0.773295
0.787073
0.795391
0.799427
0.802243
0.804061
0.800027
0.796431
0.797195
0.799209
0.801661
0.8074
0.823144
0.834708
0.839883
0.843013
0.845036
0.839545
0.833226
0.83308
0.835121
0.837814
0.842209
0.857343
0.875244
0.883161
0.887447
0.890093
0.886066
0.874802
0.871351
0.873769
0.877474
0.881142
0.890522
0.91215
0.925822
0.931731
0.935644
0.937796
0.928924
0.917279
0.915302
0.91842
0.922835
0.928734
0.946752
0.96774
0.978006
0.983738
0.987821
0.987466
0.974925
0.964851
0.964358
0.968167
0.973254
0.985222
1.00833
1.02451
1.03269
1.03841
1.04323
1.04171
1.02779
1.01774
1.01731
1.02124
1.02893
1.04846
1.06915
1.08114
1.08791
1.09256
1.09468
1.08963
1.07142
1.05439
1.04556
1.06068
1.81012
5.471
0.734922
0.736926
0.732704
0.731486
0.732913
0.735164
0.739195
0.751004
0.761508
0.766131
0.768769
0.7711
0.771019
0.766341
0.764614
0.765783
0.768056
0.771629
0.783193
0.796791
0.802942
0.806153
0.808739
0.808016
0.801729
0.799259
0.800306
0.802664
0.805927
0.815897
0.833475
0.842766
0.847073
0.850041
0.849704
0.840995
0.836074
0.83668
0.839131
0.84218
0.848326
0.866645
0.882666
0.88946
0.893801
0.896624
0.890719
0.880249
0.878174
0.879675
0.881874
0.885441
0.896997
0.918635
0.930904
0.936433
0.940899
0.9432
0.933895
0.924024
0.923325
0.925741
0.928807
0.934423
0.952936
0.972641
0.98199
0.987064
0.991628
0.992063
0.981154
0.972126
0.971527
0.974293
0.979177
0.991493
1.01433
1.02997
1.03789
1.0433
1.04709
1.04576
1.03302
1.0226
1.02134
1.0246
1.0314
1.05009
1.07073
1.08269
1.08899
1.09304
1.09458
1.09059
1.07395
1.05093
1.04558
1.77564
5.45175
0.73843
0.741403
0.737829
0.734672
0.735292
0.737265
0.739911
0.747892
0.761613
0.768847
0.772165
0.774594
0.776173
0.772303
0.767638
0.767868
0.769996
0.772709
0.779087
0.794457
0.804921
0.809403
0.812094
0.813995
0.809392
0.802885
0.802454
0.804709
0.807597
0.811952
0.826251
0.842783
0.850041
0.853723
0.85622
0.852355
0.842461
0.839484
0.841086
0.843891
0.847054
0.855099
0.875775
0.890394
0.896501
0.900474
0.902661
0.893739
0.882678
0.880292
0.882261
0.885419
0.889882
0.904999
0.926961
0.93856
0.943699
0.948146
0.94917
0.938178
0.928012
0.926204
0.928229
0.931773
0.938715
0.958929
0.978361
0.987662
0.993483
0.998457
0.998975
0.98753
0.976971
0.975641
0.978573
0.98309
0.995211
1.01786
1.03334
1.041
1.04653
1.05179
1.05228
1.03958
1.02759
1.02513
1.02775
1.03297
1.04993
1.07065
1.08269
1.08879
1.09238
1.09343
1.09061
1.07181
1.04903
1.73049
5.43517
0.741766
0.745688
0.744381
0.739208
0.737975
0.739356
0.741559
0.745825
0.758665
0.770146
0.775128
0.777857
0.780185
0.779342
0.772898
0.77084
0.772298
0.774632
0.777804
0.788294
0.804043
0.811697
0.815545
0.818264
0.818177
0.81019
0.806188
0.807345
0.809752
0.812411
0.818322
0.836033
0.850493
0.856636
0.860312
0.861965
0.854599
0.845368
0.843873
0.845521
0.848233
0.852001
0.863522
0.884826
0.896713
0.901947
0.905306
0.906175
0.896251
0.885943
0.884762
0.887661
0.891615
0.897041
0.913864
0.93454
0.944438
0.949355
0.952601
0.952905
0.941423
0.931193
0.93026
0.933559
0.937876
0.946132
0.967439
0.986024
0.994564
0.999349
1.00313
1.00359
0.992027
0.980803
0.979034
0.982179
0.986808
0.998715
1.02208
1.03915
1.04735
1.05258
1.05673
1.05702
1.04561
1.03204
1.02775
1.02953
1.03404
1.04884
1.0696
1.08228
1.08816
1.09088
1.09187
1.0867
1.07195
1.7021
5.42064
0.744555
0.749014
0.749709
0.745027
0.741119
0.741751
0.743815
0.746535
0.754707
0.769366
0.777337
0.781075
0.783523
0.784937
0.779993
0.774646
0.774633
0.7764
0.77889
0.783855
0.798841
0.81305
0.818911
0.822244
0.82444
0.820028
0.811521
0.809646
0.810924
0.813403
0.816818
0.826065
0.845846
0.858109
0.863379
0.866908
0.866971
0.856298
0.847694
0.84754
0.850365
0.853556
0.857545
0.870731
0.891203
0.901587
0.906559
0.910859
0.911714
0.900982
0.892184
0.892137
0.894674
0.897701
0.90279
0.919998
0.939046
0.94768
0.952342
0.956542
0.9573
0.946541
0.937824
0.937899
0.941172
0.945003
0.952689
0.972551
0.989606
0.997418
1.00234
1.00674
1.00754
0.996976
0.985907
0.984228
0.987721
0.992595
1.00382
1.02574
1.04236
1.05061
1.05589
1.06006
1.06063
1.05095
1.03685
1.03076
1.03132
1.03471
1.04752
1.06768
1.0807
1.08636
1.08906
1.0873
1.09081
1.70029
5.40753
0.74596
0.751169
0.752932
0.751597
0.746211
0.745159
0.746786
0.749048
0.752979
0.765186
0.778005
0.783515
0.786395
0.788419
0.787114
0.779961
0.777422
0.778984
0.781534
0.784465
0.792294
0.809535
0.820844
0.825671
0.828273
0.828605
0.820035
0.813016
0.813237
0.815818
0.818761
0.822737
0.835118
0.854362
0.864351
0.869088
0.872469
0.87077
0.85921
0.852776
0.853149
0.855044
0.857946
0.862766
0.879269
0.899525
0.909017
0.913314
0.916872
0.916522
0.904731
0.896321
0.895486
0.897571
0.901064
0.907527
0.926447
0.945391
0.954243
0.958966
0.963435
0.963509
0.952385
0.943436
0.942454
0.944408
0.947911
0.955667
0.976267
0.993855
1.00228
1.00735
1.01223
1.01417
1.00467
0.993596
0.991147
0.993014
0.996415
1.00477
1.02588
1.04395
1.05296
1.05815
1.06246
1.06495
1.05794
1.04276
1.03395
1.03305
1.03512
1.04435
1.06396
1.07749
1.08398
1.08401
1.09717
1.71692
5.39514
0.74694
0.753523
0.755753
0.757285
0.753265
0.749576
0.750152
0.752012
0.75422
0.760051
0.774369
0.784254
0.788418
0.790998
0.792871
0.788459
0.782424
0.782551
0.784759
0.787252
0.79021
0.799996
0.817431
0.826477
0.830644
0.833281
0.8319
0.822125
0.817886
0.819265
0.821785
0.824484
0.828401
0.842356
0.860988
0.869832
0.874131
0.87756
0.875312
0.862851
0.856463
0.857591
0.860851
0.864634
0.870328
0.88749
0.905628
0.913714
0.918192
0.921108
0.920043
0.908097
0.900015
0.900118
0.903363
0.907456
0.914859
0.934081
0.951897
0.960193
0.964688
0.967932
0.968027
0.956967
0.94688
0.94566
0.948832
0.953125
0.961269
0.981634
0.999959
1.00903
1.01393
1.01805
1.0202
1.0118
0.998529
0.993554
0.99527
0.999294
1.00722
1.02672
1.04621
1.05669
1.06224
1.06622
1.06856
1.06422
1.04852
1.03609
1.03292
1.03423
1.0411
1.0591
1.07378
1.07859
1.09626
1.74662
5.38309
0.747468
0.756313
0.758577
0.760845
0.760101
0.754785
0.753329
0.754449
0.756246
0.758804
0.767078
0.782483
0.790837
0.794545
0.797018
0.797108
0.79012
0.786507
0.787245
0.788803
0.791065
0.794851
0.807555
0.824931
0.833122
0.837141
0.839813
0.83579
0.825636
0.822561
0.82365
0.825616
0.828589
0.833725
0.849641
0.867021
0.875022
0.879052
0.882041
0.879249
0.868061
0.863613
0.865009
0.867296
0.869887
0.875051
0.89234
0.909448
0.917088
0.921423
0.925439
0.92508
0.914139
0.907449
0.908033
0.910802
0.914079
0.920224
0.938244
0.955072
0.962733
0.967152
0.971132
0.972333
0.963485
0.954274
0.952961
0.95555
0.959467
0.966628
0.985527
1.0037
1.0127
1.01791
1.02156
1.02372
1.01814
1.0056
0.999602
1.00032
1.00349
1.00989
1.02748
1.04753
1.05894
1.06474
1.06851
1.0707
1.06825
1.05419
1.03901
1.0331
1.03292
1.03736
1.05448
1.06659
1.08881
1.77893
5.36865
0.74611
0.758204
0.761124
0.763533
0.765294
0.761936
0.757308
0.757017
0.758632
0.760764
0.764105
0.775407
0.790548
0.79745
0.800505
0.802557
0.800204
0.792323
0.789731
0.791114
0.793489
0.796105
0.800839
0.816187
0.832497
0.839703
0.843332
0.84502
0.839092
0.828848
0.826386
0.828336
0.83115
0.833883
0.838659
0.855302
0.872505
0.880199
0.884437
0.887984
0.884578
0.872839
0.867331
0.867618
0.869852
0.872925
0.879299
0.897862
0.915336
0.9236
0.928056
0.932282
0.931391
0.920316
0.912804
0.911954
0.913355
0.916416
0.922873
0.941227
0.95901
0.967817
0.973189
0.978058
0.980069
0.97196
0.961129
0.958068
0.959645
0.962601
0.968333
0.985806
1.00487
1.01491
1.02049
1.0256
1.02969
1.02696
1.01425
1.00571
1.00481
1.00718
1.01135
1.02568
1.04675
1.05954
1.06555
1.06933
1.07257
1.0727
1.06073
1.04258
1.03286
1.03077
1.03388
1.04657
1.07353
1.80176
5.34991
0.742223
0.758322
0.764236
0.767168
0.76949
0.769839
0.763864
0.760548
0.76123
0.763036
0.765057
0.768965
0.782956
0.79727
0.80344
0.806713
0.808666
0.803727
0.795784
0.794614
0.796282
0.798479
0.800833
0.805962
0.822959
0.838134
0.844441
0.848433
0.850475
0.843902
0.834557
0.832548
0.833301
0.83482
0.837768
0.844192
0.862621
0.878951
0.886075
0.889863
0.892523
0.88921
0.877472
0.871519
0.872027
0.874928
0.878556
0.885504
0.904447
0.921545
0.929406
0.933758
0.937162
0.936705
0.92536
0.916257
0.915101
0.917793
0.921562
0.928091
0.946833
0.965821
0.97503
0.979693
0.983291
0.985699
0.978536
0.965623
0.960591
0.96207
0.965746
0.971211
0.987561
1.00936
1.0217
1.02731
1.03152
1.03532
1.03411
1.02151
1.00993
1.0069
1.00897
1.01272
1.024
1.0454
1.06105
1.06831
1.07195
1.07425
1.07481
1.06637
1.04718
1.03242
1.02787
1.02731
1.05427
1.80408
5.32642
0.738998
0.753949
0.766241
0.77122
0.773695
0.775691
0.772641
0.765649
0.763867
0.764587
0.766124
0.768435
0.774084
0.791259
0.804989
0.81057
0.813804
0.814818
0.806951
0.799552
0.798535
0.799233
0.800954
0.803879
0.811021
0.830519
0.845178
0.851025
0.854682
0.856529
0.848114
0.837139
0.834944
0.837042
0.839769
0.842866
0.849595
0.868394
0.88375
0.890209
0.894846
0.898366
0.89513
0.883146
0.877652
0.878637
0.881165
0.884129
0.890586
0.909132
0.925379
0.932652
0.937103
0.941054
0.941288
0.931192
0.922389
0.921642
0.924262
0.927828
0.933978
0.951147
0.969367
0.978231
0.983153
0.987044
0.989285
0.984186
0.971799
0.966069
0.967507
0.971451
0.976913
0.991162
1.01209
1.02477
1.03116
1.03542
1.03802
1.03775
1.02745
1.01484
1.01056
1.0119
1.01516
1.02458
1.04494
1.06138
1.06916
1.07273
1.07479
1.07536
1.07008
1.0522
1.03395
1.02263
1.03476
1.78303
5.30004
0.739596
0.747165
0.763606
0.773527
0.777539
0.779749
0.780613
0.773789
0.767029
0.766266
0.767878
0.770146
0.773092
0.781669
0.800546
0.812388
0.817348
0.82014
0.819482
0.80917
0.801513
0.801057
0.80304
0.805545
0.808949
0.81888
0.839265
0.851546
0.856706
0.859922
0.860696
0.851322
0.841883
0.840535
0.84166
0.843585
0.847051
0.855774
0.876269
0.891101
0.897175
0.900741
0.903807
0.899925
0.887435
0.881684
0.882039
0.884231
0.887621
0.89494
0.914148
0.93064
0.93828
0.942709
0.947042
0.947823
0.937744
0.928185
0.926686
0.928503
0.931301
0.936578
0.952792
0.971786
0.981739
0.986915
0.991606
0.995298
0.992117
0.980338
0.973803
0.974077
0.976342
0.979897
0.990403
1.01098
1.02552
1.0323
1.03658
1.04069
1.043
1.03595
1.02302
1.01651
1.01626
1.01825
1.02346
1.04113
1.05919
1.06819
1.07196
1.07404
1.07525
1.07267
1.05819
1.03348
1.02724
1.73728
5.27469
0.741409
0.744977
0.755206
0.771792
0.779991
0.7836
0.785721
0.784133
0.774473
0.769656
0.770348
0.772441
0.774832
0.778075
0.788955
0.808067
0.818072
0.822546
0.825428
0.823428
0.812018
0.805845
0.806366
0.808529
0.811074
0.814573
0.825813
0.845305
0.855816
0.860344
0.863919
0.865259
0.855217
0.844936
0.843751
0.846318
0.849501
0.853517
0.862843
0.882538
0.895719
0.901479
0.905113
0.907526
0.903763
0.89138
0.885631
0.886707
0.889816
0.893781
0.901446
0.920187
0.936375
0.944045
0.948318
0.951425
0.952437
0.943402
0.932564
0.929937
0.932262
0.935882
0.94122
0.956375
0.976347
0.987913
0.993344
0.997004
1.00045
0.999431
0.987764
0.977854
0.975995
0.978673
0.982657
0.991191
1.01053
1.02826
1.03728
1.04198
1.04595
1.04869
1.0446
1.03065
1.01994
1.01724
1.01888
1.02242
1.03628
1.05571
1.06711
1.07193
1.07415
1.07486
1.07409
1.05976
1.03833
1.69051
5.25388
0.743382
0.745885
0.749865
0.763499
0.779624
0.786597
0.789807
0.791637
0.786407
0.77635
0.773759
0.774738
0.776414
0.778788
0.782814
0.796595
0.815411
0.82417
0.828019
0.831023
0.827992
0.815929
0.810651
0.811105
0.81262
0.814996
0.819188
0.832497
0.851585
0.861293
0.865567
0.868312
0.86827
0.859031
0.851101
0.850814
0.852815
0.855039
0.858354
0.867717
0.886744
0.899136
0.904374
0.908019
0.911467
0.908709
0.897877
0.893032
0.894251
0.897055
0.900183
0.90618
0.922881
0.938545
0.946119
0.950548
0.954353
0.956369
0.950092
0.940162
0.937155
0.938996
0.942508
0.947011
0.958969
0.97821
0.990319
0.996475
1.00078
1.00357
1.00422
0.995915
0.985326
0.982073
0.983774
0.987264
0.994044
1.0112
1.02993
1.04029
1.04543
1.04873
1.05079
1.04918
1.03761
1.02466
1.01953
1.01968
1.02214
1.03287
1.05244
1.066
1.07189
1.0737
1.07455
1.07123
1.06627
1.67229
5.23642
0.746388
0.748735
0.750979
0.756089
0.77176
0.786234
0.792339
0.795411
0.796073
0.788271
0.778786
0.777129
0.779014
0.781553
0.784214
0.788991
0.804668
0.821888
0.829336
0.833027
0.835359
0.831581
0.819411
0.814182
0.815251
0.817915
0.820882
0.825396
0.838877
0.856443
0.865008
0.869024
0.872406
0.873517
0.864565
0.855776
0.854469
0.856809
0.859762
0.86333
0.872272
0.89087
0.903998
0.910034
0.913627
0.917236
0.915235
0.904501
0.898505
0.898415
0.900083
0.902783
0.90828
0.924035
0.941183
0.950378
0.955607
0.960362
0.963607
0.959023
0.948227
0.943394
0.943915
0.945668
0.949081
0.958276
0.977298
0.991639
0.998772
1.00395
1.00871
1.01152
1.00591
0.994265
0.988597
0.988835
0.990974
0.994842
1.00814
1.02813
1.04019
1.04581
1.04986
1.05358
1.05492
1.04599
1.03101
1.023
1.02164
1.02263
1.02933
1.04801
1.06336
1.06989
1.07248
1.07064
1.082
1.68005
5.22027
0.750832
0.751865
0.753667
0.755724
0.761085
0.777628
0.791124
0.796602
0.799903
0.800569
0.791898
0.783743
0.783143
0.784915
0.787026
0.789354
0.794028
0.810009
0.825884
0.832494