/*--------------------------------*- C++ -*----------------------------------*\
  =========                 |
  \\      /  F ield         | OpenFOAM: The Open Source CFD Toolbox
   \\    /   O peration     | Website:  https://openfoam.org
    \\  /    A nd           | Version:  12
     \\/     M anipulation  |
\*---------------------------------------------------------------------------*/
FoamFile
{
    format      ascii;
    class       volScalarField;
    location    "17.5";
    object      p;
}
// * * * * * * * * * * * * * * * * * * * * * * * * * * * * * * * * * * * * * //

dimensions      [1 -1 -2 0 0 0 0];

internalField   nonuniform List<scalar> 
9801
(
0.613417
0.621784
0.63769
0.646851
0.649807
0.651416
0.652186
0.652567
0.652778
0.653671
0.655692
0.658339
0.662013
0.671083
0.687432
0.697172
0.701025
0.703485
0.704718
0.703602
0.703076
0.704295
0.706613
0.709665
0.714034
0.725998
0.742649
0.751486
0.755635
0.758476
0.759379
0.757827
0.7576
0.759338
0.762039
0.765573
0.772251
0.788733
0.803905
0.811576
0.815858
0.818674
0.81753
0.815598
0.816003
0.81854
0.822269
0.827337
0.841575
0.863421
0.875711
0.881541
0.884909
0.882555
0.878956
0.879009
0.882122
0.886278
0.891804
0.904251
0.930495
0.949708
0.959177
0.965078
0.964512
0.953792
0.949427
0.952301
0.95858
0.96645
0.981069
1.01457
1.04202
1.05647
1.06515
1.06721
1.05272
1.03951
1.0397
1.04822
1.06059
1.09067
1.14338
1.17642
1.19439
1.20816
1.21382
1.19422
1.16965
1.16914
1.18727
1.22768
1.31722
1.40103
1.46763
1.54224
1.56679
2.49629
12.1737
0.620138
0.630047
0.641869
0.64998
0.655027
0.658493
0.660766
0.659192
0.657476
0.659007
0.661796
0.664908
0.669203
0.679699
0.691918
0.6999
0.705125
0.708962
0.711157
0.708502
0.707239
0.709244
0.712397
0.715908
0.721123
0.733956
0.746935
0.754682
0.759778
0.763678
0.764441
0.760348
0.76023
0.763088
0.766833
0.770954
0.778427
0.795311
0.808867
0.816067
0.820854
0.824358
0.820688
0.815945
0.817413
0.821563
0.826296
0.831649
0.845633
0.867069
0.879639
0.886311
0.891206
0.890298
0.880944
0.879055
0.883142
0.888384
0.894346
0.906435
0.932851
0.952168
0.962268
0.96889
0.971016
0.959154
0.951079
0.953795
0.960939
0.969045
0.983944
1.01704
1.0441
1.05791
1.06711
1.07349
1.06182
1.0422
1.04175
1.05152
1.06488
1.09195
1.13777
1.17096
1.19094
1.20812
1.22207
1.20588
1.17523
1.17333
1.1953
1.22752
1.29223
1.36249
1.4206
1.48186
1.48812
2.39065
12.3752
0.62299
0.63348
0.644671
0.6518
0.656753
0.660456
0.662968
0.661964
0.66005
0.66141
0.664267
0.667656
0.672415
0.683345
0.694971
0.702004
0.706956
0.710874
0.713209
0.710798
0.709458
0.711508
0.714879
0.718717
0.724373
0.737512
0.749941
0.756947
0.76185
0.765861
0.76671
0.762308
0.761917
0.764768
0.768787
0.773329
0.781383
0.798788
0.812211
0.819105
0.823932
0.8273
0.822887
0.817651
0.819019
0.823262
0.82829
0.833921
0.84775
0.869266
0.882043
0.889018
0.894328
0.894703
0.8852
0.881331
0.884418
0.889776
0.896068
0.907148
0.932337
0.95248
0.963227
0.970461
0.974874
0.966384
0.955911
0.95635
0.96272
0.970712
0.983502
1.01355
1.04105
1.05673
1.06768
1.07702
1.07156
1.04985
1.04472
1.0536
1.06598
1.08542
1.12749
1.17004
1.19542
1.21309
1.22852
1.22013
1.18922
1.17829
1.19529
1.22474
1.27374
1.34436
1.40292
1.46119
1.47325
2.39576
12.3972
0.627088
0.638064
0.648141
0.654446
0.658981
0.662633
0.665726
0.666358
0.664299
0.665258
0.667936
0.671397
0.676787
0.687897
0.69862
0.704968
0.709385
0.713086
0.715913
0.71429
0.712952
0.714922
0.718236
0.722243
0.728566
0.741798
0.753661
0.760236
0.764777
0.76871
0.769806
0.765129
0.76441
0.767218
0.771381
0.776505
0.785804
0.803173
0.816013
0.822569
0.827189
0.830372
0.826029
0.820194
0.821162
0.825192
0.830398
0.836906
0.851182
0.872299
0.885208
0.892281
0.897685
0.899744
0.890627
0.883833
0.885705
0.890724
0.89731
0.908114
0.932606
0.95499
0.96701
0.974628
0.980497
0.976092
0.961175
0.95771
0.96327
0.971367
0.9821
1.0088
1.04043
1.05894
1.07059
1.08048
1.0824
1.06229
1.04852
1.05331
1.06557
1.08096
1.11397
1.16063
1.19141
1.21053
1.2275
1.23328
1.21017
1.1896
1.19185
1.21643
1.25013
1.30555
1.36307
1.41509
1.4383
2.46297
12.4498
0.630712
0.64246
0.65128
0.656805
0.660999
0.664582
0.667852
0.669357
0.66785
0.668733
0.671275
0.674469
0.679846
0.691463
0.701892
0.707844
0.712001
0.715549
0.718436
0.717214
0.715823
0.717699
0.72085
0.724626
0.73102
0.744806
0.756858
0.763331
0.76773
0.77156
0.772836
0.768258
0.767444
0.770357
0.774345
0.778971
0.787681
0.804628
0.817691
0.824559
0.829314
0.833197
0.831183
0.824603
0.824763
0.828624
0.833372
0.839035
0.851756
0.872254
0.885827
0.893378
0.899042
0.903187
0.897403
0.888071
0.888343
0.893177
0.899583
0.908924
0.931138
0.955065
0.968365
0.976444
0.982857
0.984091
0.969537
0.959522
0.962811
0.97085
0.980627
1.00174
1.03618
1.05915
1.07187
1.08219
1.0905
1.0793
1.05665
1.05148
1.06203
1.07649
1.09949
1.14411
1.18532
1.21073
1.22963
1.2447
1.23569
1.21034
1.19795
1.20687
1.23396
1.27474
1.32892
1.37439
1.39645
2.50905
12.4956
0.634459
0.646936
0.655271
0.660272
0.664023
0.667356
0.670487
0.671892
0.671296
0.67259
0.675139
0.678163
0.682787
0.694586
0.70564
0.711614
0.715669
0.719108
0.721939
0.720692
0.718879
0.720677
0.723817
0.727461
0.733109
0.747069
0.760225
0.767009
0.771411
0.775178
0.777061
0.772799
0.770883
0.773328
0.777086
0.781333
0.788311
0.80462
0.819262
0.827184
0.832499
0.837008
0.838429
0.831651
0.828224
0.830659
0.834868
0.839952
0.850146
0.871089
0.887065
0.895805
0.902077
0.907445
0.906827
0.895466
0.890604
0.894158
0.900437
0.908662
0.927823
0.953906
0.969501
0.97826
0.985224
0.990855
0.982696
0.9665
0.963337
0.970027
0.979178
0.994506
1.0277
1.05861
1.07495
1.08553
1.09515
1.09389
1.07068
1.05666
1.05954
1.07186
1.088
1.12103
1.16747
1.20154
1.22478
1.24474
1.25391
1.23646
1.21455
1.20887
1.22007
1.24636
1.28982
1.33571
1.35908
2.55008
12.5384
0.637338
0.650234
0.658829
0.663752
0.667369
0.670631
0.67368
0.674506
0.673621
0.675054
0.677786
0.681064
0.685677
0.6971
0.708717
0.714954
0.719086
0.722632
0.725751
0.724795
0.721619
0.722699
0.725833
0.72975
0.735069
0.748052
0.762427
0.770063
0.774756
0.778677
0.781802
0.779376
0.774816
0.77528
0.778476
0.782615
0.788548
0.803562
0.820259
0.829689
0.835732
0.840737
0.844766
0.841002
0.83292
0.831773
0.83518
0.840265
0.848633
0.869027
0.888265
0.898375
0.905006
0.910738
0.914331
0.905272
0.895236
0.895187
0.900575
0.907654
0.921893
0.949556
0.970347
0.98069
0.987898
0.994829
0.99459
0.977595
0.968284
0.971082
0.978855
0.988982
1.01295
1.05078
1.07537
1.08868
1.09903
1.10618
1.09286
1.06981
1.06189
1.06778
1.08069
1.10095
1.1414
1.18506
1.21592
1.23831
1.25764
1.25879
1.23948
1.22109
1.21801
1.22922
1.25542
1.29958
1.32773
2.5769
12.583
0.63973
0.653408
0.66288
0.667806
0.671315
0.674531
0.67755
0.678356
0.676041
0.676454
0.679019
0.682566
0.687645
0.699293
0.712241
0.718981
0.723063
0.726585
0.729872
0.730329
0.726091
0.724978
0.727318
0.730931
0.735945
0.747888
0.76397
0.773274
0.778518
0.782714
0.786568
0.786997
0.780574
0.777682
0.77947
0.783223
0.788516
0.801966
0.821248
0.832669
0.839124
0.844263
0.84899
0.849428
0.839021
0.833664
0.835666
0.840371
0.847399
0.865469
0.888948
0.901882
0.908818
0.914495
0.91962
0.916171
0.902478
0.897862
0.900879
0.906853
0.915569
0.939327
0.96831
0.983734
0.992143
0.999385
1.00465
0.993674
0.976978
0.972818
0.977518
0.985987
0.99946
1.03348
1.07016
1.09037
1.10291
1.11337
1.11562
1.09197
1.07129
1.06902
1.07759
1.09132
1.11539
1.15775
1.19634
1.22409
1.24593
1.2636
1.26256
1.24495
1.22629
1.22127
1.22955
1.25841
1.29339
2.60484
12.6274
0.640839
0.654349
0.6666
0.672421
0.675957
0.679106
0.682015
0.68314
0.680024
0.678855
0.680641
0.68366
0.687831
0.698579
0.714171
0.723052
0.727619
0.731135
0.734428
0.73597
0.73152
0.728462
0.729444
0.732365
0.736292
0.745871
0.763884
0.776143
0.782377
0.786825
0.79082
0.793377
0.78759
0.781004
0.780802
0.784078
0.788698
0.799584
0.821088
0.836143
0.843374
0.848324
0.852808
0.85484
0.846251
0.837596
0.837393
0.841381
0.84682
0.859648
0.885809
0.904216
0.912904
0.918817
0.92425
0.925589
0.912753
0.902146
0.901714
0.906336
0.91285
0.927209
0.959777
0.984944
0.997005
1.00484
1.01163
1.0094
0.989139
0.976135
0.976298
0.983279
0.992644
1.01299
1.05406
1.0867
1.10397
1.11547
1.12499
1.12077
1.09497
1.07854
1.07831
1.08692
1.10088
1.12874
1.17073
1.20591
1.23189
1.25327
1.26669
1.26393
1.24745
1.22556
1.21572
1.2239
1.25151
2.62161
12.6757
0.642421
0.652624
0.668217
0.676838
0.680784
0.683773
0.686536
0.687982
0.684917
0.68232
0.683234
0.685751
0.689011
0.696282
0.713134
0.72572
0.731672
0.73555
0.738875
0.741286
0.738181
0.732644
0.732236
0.734542
0.737989
0.744314
0.761667
0.777896
0.785719
0.790459
0.794431
0.797758
0.794879
0.785622
0.783671
0.786147
0.790306
0.797504
0.817578
0.837444
0.846795
0.852118
0.856521
0.859869
0.854604
0.843317
0.840594
0.843337
0.848156
0.855357
0.877149
0.903113
0.915956
0.92277
0.928361
0.932725
0.925456
0.909097
0.904037
0.906758
0.912831
0.921134
0.945809
0.980802
0.999749
1.00911
1.01614
1.02112
1.00838
0.985946
0.979127
0.982604
0.99062
1.00067
1.02705
1.07027
1.0991
1.11482
1.12678
1.13653
1.12869
1.10014
1.08449
1.08565
1.09536
1.11062
1.14146
1.18146
1.21323
1.23728
1.25739
1.26659
1.26262
1.2444
1.21879
1.20371
1.20334
2.6134
12.7252
0.644957
0.651721
0.667241
0.679379
0.684857
0.688286
0.691052
0.693008
0.690871
0.68651
0.686355
0.688469
0.691468
0.696138
0.71039
0.726469
0.734345
0.738843
0.742391
0.745455
0.745182
0.738224
0.735521
0.737215
0.740433
0.744921
0.758447
0.777852
0.788168
0.793516
0.797592
0.801187
0.801442
0.792462
0.787488
0.789102
0.79277
0.797558
0.811315
0.835022
0.848564
0.854988
0.859749
0.86399
0.863825
0.852102
0.844858
0.845783
0.84987
0.855283
0.867799
0.896622
0.917049
0.92606
0.931918
0.93691
0.936662
0.92062
0.908591
0.90887
0.914274
0.921061
0.93349
0.966589
0.996388
1.00989
1.01774
1.02452
1.02653
1.00818
0.988998
0.984893
0.988309
0.996273
1.00846
1.042
1.08597
1.113
1.12782
1.13896
1.14476
1.13187
1.10532
1.09177
1.09366
1.10372
1.12069
1.15459
1.19249
1.22039
1.24095
1.2578
1.26329
1.25758
1.23647
1.20566
1.17348
2.57776
12.7808
0.647802
0.652815
0.665502
0.680182
0.687318
0.691411
0.69457
0.697248
0.697466
0.692132
0.689938
0.691582
0.694377
0.697937
0.708153
0.725606
0.735883
0.741145
0.74505
0.748467
0.750594
0.745297
0.739636
0.740368
0.74324
0.746912
0.755705
0.775615
0.789614
0.796099
0.800476
0.804306
0.8069
0.800894
0.792707
0.792436
0.795404
0.799499
0.806903
0.828624
0.848579
0.857532
0.862815
0.86729
0.870644
0.863634
0.851213
0.848978
0.852185
0.857053
0.863545
0.884391
0.913081
0.927383
0.934395
0.939776
0.944194
0.937511
0.919985
0.914155
0.91653
0.921939
0.928767
0.946119
0.982829
1.00811
1.02008
1.02815
1.03554
1.03377
1.0096
0.991912
0.99038
0.996136
1.00495
1.01806
1.05416
1.09623
1.12029
1.13414
1.14544
1.15162
1.13864
1.11224
1.09929
1.10161
1.11204
1.13091
1.16641
1.20117
1.22534
1.24336
1.25647
1.25891
1.25027
1.21956
1.16977
2.51817
12.8358
0.650832
0.655127
0.664507
0.679878
0.688777
0.693527
0.697083
0.700163
0.70248
0.699219
0.694465
0.695008
0.697513
0.700628
0.7073
0.723905
0.736915
0.743234
0.747502
0.751123
0.754259
0.752565
0.745147
0.74376
0.746109
0.749502
0.75479
0.771344
0.78958
0.798249
0.803234
0.807317
0.810969
0.809619
0.799759
0.796073
0.798112
0.80178
0.806428
0.820078
0.844783
0.85893
0.865581
0.870415
0.874828
0.875088
0.862445
0.854343
0.855111
0.85871
0.86362
0.873202
0.901139
0.925647
0.93647
0.943018
0.948674
0.951788
0.938743
0.922247
0.918618
0.921267
0.927047
0.934831
0.959267
0.998012
1.01981
1.02993
1.03734
1.04499
1.0409
1.01545
1.00028
0.998713
1.00238
1.01008
1.02519
1.06408
1.10492
1.12868
1.14304
1.15443
1.158
1.14462
1.11964
1.10657
1.1082
1.11808
1.13837
1.17546
1.20822
1.22964
1.2449
1.25301
1.25408
1.23566
1.18568
2.45996
12.8894
0.654062
0.657895
0.664363
0.679216
0.689916
0.695415
0.699344
0.702698
0.705726
0.705708
0.700029
0.698665
0.700637
0.703565
0.707989
0.721778
0.737606
0.745483
0.750108
0.753859
0.757269
0.758558
0.751845
0.747577
0.748995
0.752132
0.756007
0.766724
0.787454
0.799977
0.805946
0.810285
0.814222
0.816595
0.80927
0.801187
0.801036
0.803926
0.807848
0.814516
0.836111
0.858281
0.868159
0.87381
0.878648
0.882853
0.877068
0.862711
0.85804
0.85954
0.863648
0.8692
0.885391
0.917522
0.937709
0.946941
0.953346
0.959124
0.958456
0.939415
0.924978
0.922958
0.926
0.931586
0.940821
0.971814
1.01013
1.02975
1.04109
1.05029
1.05717
1.04728
1.01863
1.00303
1.00241
1.00815
1.01688
1.03325
1.07328
1.11264
1.13535
1.1498
1.16124
1.16463
1.15065
1.12472
1.11058
1.11146
1.12091
1.14281
1.18133
1.21271
1.23222
1.24452
1.24955
1.24404
1.21112
2.42353
12.9404
0.657258
0.660677
0.665023
0.678305
0.691176
0.697644
0.701851
0.705351
0.708524
0.710455
0.70597
0.702389
0.703619
0.706412
0.709927
0.71967
0.737322
0.747723
0.752895
0.756758
0.760237
0.763075
0.759352
0.752393
0.752033
0.754648
0.758106
0.763857
0.782103
0.800375
0.808615
0.813468
0.817618
0.821468
0.819904
0.809132
0.804471
0.805499
0.808794
0.813337
0.825925
0.853095
0.870208
0.877644
0.882684
0.887255
0.888738
0.875541
0.862722
0.861125
0.864181
0.869086
0.876186
0.900222
0.932687
0.948652
0.956128
0.962063
0.967916
0.963488
0.940953
0.927627
0.925805
0.929013
0.935194
0.948447
0.987344
1.02579
1.04348
1.05224
1.05889
1.06374
1.05172
1.02403
1.00994
1.00953
1.01477
1.02365
1.0427
1.08463
1.12157
1.14252
1.156
1.16634
1.16815
1.1537
1.12725
1.11237
1.11242
1.12128
1.1451
1.18551
1.21581
1.23262
1.24098
1.24172
1.23249
2.4212
12.9904
0.660299
0.663326
0.666582
0.677108
0.692195
0.700215
0.704646
0.708195
0.711395
0.714121
0.711787
0.706542
0.706681
0.709165
0.712311
0.71815
0.73482
0.749278
0.755822
0.759917
0.763481
0.766837
0.766811
0.758954
0.755513
0.756977
0.759965
0.763881
0.775246
0.797732
0.810995
0.817082
0.821397
0.825377
0.827952
0.819455
0.808748
0.807488
0.810183
0.81433
0.820602
0.841716
0.868268
0.88055
0.886543
0.891016
0.895346
0.891744
0.874415
0.865635
0.865769
0.869072
0.874256
0.884386
0.915849
0.945919
0.959139
0.96665
0.973008
0.97739
0.965096
0.939652
0.929531
0.931399
0.93735
0.94403
0.957509
0.997472
1.03292
1.0485
1.0579
1.0664
1.07241
1.05847
1.02965
1.01594
1.01651
1.02304
1.03288
1.05376
1.09454
1.12754
1.14655
1.15955
1.16926
1.17117
1.15567
1.1282
1.11284
1.11205
1.1203
1.1458
1.187
1.21494
1.22898
1.23282
1.24357
2.45229
13.0471
0.663269
0.665937
0.668753
0.675871
0.691869
0.702682
0.707716
0.711318
0.714532
0.717533
0.717481
0.711625
0.709869
0.711668
0.714522
0.718248
0.730172
0.748963
0.758587
0.763337
0.767024
0.770474
0.772973
0.767377
0.75979
0.759198
0.761605
0.765222
0.771169
0.790564
0.811497
0.820573
0.825303
0.8291
0.832662
0.830593
0.81724
0.811135
0.812549
0.81602
0.820366
0.829853
0.857522
0.880035
0.889123
0.894645
0.899384
0.903073
0.893587
0.874896
0.868351
0.869644
0.873832
0.87961
0.895043
0.931961
0.958104
0.968402
0.973777
0.978518
0.982679
0.969112
0.946338
0.938657
0.938925
0.942181
0.948372
0.964229
1.00633
1.042
1.0585
1.06753
1.07483
1.07841
1.06507
1.03932
1.02589
1.02531
1.03031
1.03907
1.06209
1.10275
1.13315
1.15062
1.16272
1.17182
1.1745
1.15902
1.12966
1.11253
1.11068
1.11761
1.1443
1.18501
1.21119
1.22094
1.24189
2.51362
13.1164
0.66649
0.668543
0.671126
0.675396
0.689199
0.704204
0.711016
0.714818
0.718065
0.721101
0.722863
0.717913
0.71335
0.714
0.716498
0.719742
0.726304
0.74508
0.760421
0.766885
0.770734
0.774173
0.777449
0.776246
0.766282
0.762226
0.763922
0.767119
0.771024
0.78141
0.806164
0.822086
0.828514
0.832637
0.83664
0.839575
0.831242
0.818393
0.815602
0.817206
0.820745
0.825702
0.841189
0.87228
0.890742
0.898721
0.904206
0.908987
0.910217
0.893815
0.87634
0.873284
0.876728
0.881437
0.88683
0.904103
0.941239
0.964229
0.97457
0.982375
0.988981
0.991907
0.974742
0.950734
0.942136
0.943758
0.948815
0.955243
0.969905
1.01082
1.04632
1.06291
1.07297
1.08201
1.08775
1.07547
1.04759
1.03142
1.02958
1.03512
1.04459
1.06944
1.1094
1.1379
1.15499
1.16786
1.1773
1.18016
1.16226
1.12956
1.10994
1.10689
1.11253
1.14025
1.18076
1.2031
1.23166
2.58845
13.1902
0.669925
0.670999
0.673453
0.676634
0.685425
0.703389
0.713893
0.718533
0.721765
0.724749
0.727414
0.725176
0.718046
0.716667
0.71875
0.721761
0.725467
0.737727
0.758891
0.769651
0.774469
0.778004
0.781398
0.783628
0.776433
0.767488
0.766694
0.768898
0.772215
0.776946
0.794115
0.819606
0.831569
0.837138
0.841102
0.844951
0.844682
0.83041
0.819526
0.818866
0.821914
0.826321
0.832373
0.854084
0.884869
0.899539
0.905869
0.91051
0.91561
0.916127
0.897672
0.882624
0.880148
0.881521
0.885196
0.891308
0.912627
0.952163
0.975482
0.984934
0.990446
0.996494
1.00026
0.98323
0.959076
0.95032
0.949631
0.952188
0.958416
0.974966
1.01817
1.05553
1.07302
1.08221
1.0897
1.09331
1.08197
1.0548
1.03696
1.03388
1.03829
1.0474
1.0756
1.11774
1.14641
1.16266
1.17348
1.18122
1.18261
1.16307
1.1276
1.10516
1.10051
1.10522
1.13621
1.17346
1.21199
2.66365
13.2582
0.673832
0.673671
0.675998
0.678973
0.683465
0.698513
0.7148
0.721759
0.725381
0.728498
0.731479
0.732453
0.725369
0.720427
0.721247
0.723726
0.72677
0.732262
0.751375
0.770356
0.778059
0.782104
0.785528
0.788827
0.78774
0.776153
0.769979
0.770752
0.773512
0.777253
0.784504
0.808435
0.831361
0.84076
0.84566
0.849197
0.852618
0.847475
0.830693
0.823687
0.824738
0.827546
0.831589
0.838679
0.865059
0.894346
0.907456
0.914476
0.920184
0.925185
0.922126
0.900615
0.885689
0.883713
0.886667
0.890861
0.896844
0.919095
0.958559
0.980915
0.991976
1.00069
1.00749
1.00943
0.988845
0.962197
0.952313
0.953856
0.959442
0.966784
0.982675
1.02427
1.06026
1.07707
1.08682
1.09516
1.0997
1.08758
1.05799
1.03921
1.03629
1.04148
1.05245
1.08298
1.12484
1.15179
1.16659
1.17655
1.18322
1.18274
1.16228
1.12506
1.09963
1.09276
1.09854
1.13044
1.1807
2.7234
13.3079
0.679075
0.67696
0.678723
0.681376
0.684256
0.692068
0.711515
0.723941
0.729152
0.732441
0.735527
0.738207
0.734889
0.726109
0.723896
0.725506
0.728322
0.731834
0.74176
0.765477
0.780278
0.786193
0.789668
0.792981
0.795627
0.788804
0.776268
0.773445
0.775658
0.779018
0.782933
0.793346
0.821249
0.840752
0.848465
0.853387
0.85738
0.860376
0.850992
0.833843
0.828044
0.82879
0.831546
0.835953
0.845749
0.876748
0.905141
0.916881
0.922547
0.926919
0.932158
0.928841
0.906603
0.892356
0.889501
0.890164
0.894172
0.900937
0.927262
0.969931
0.993112
1.0022
1.00731
1.01214
1.01471
0.996694
0.971488
0.962208
0.962294
0.965425
0.971522
0.988724
1.03218
1.0674
1.08318
1.09192
1.09883
1.10266
1.09288
1.06512
1.04602
1.04205
1.04536
1.05479
1.08605
1.1284
1.15468
1.1683
1.1771
1.18322
1.18252
1.16247
1.12399
1.09415
1.08483
1.08843
1.13788
2.75396
13.3441
0.686308
0.681207
0.681223
0.68315
0.685895
0.689741
0.703871
0.723558
0.732259
0.73635
0.739414
0.742311
0.743366
0.735034
0.727744
0.727913
0.730566
0.733737
0.737806
0.75335
0.77756
0.788596
0.793538
0.796911
0.800291
0.801003
0.789168
0.779235
0.778539
0.780459
0.783492
0.787821
0.802872
0.832821
0.849866
0.857204
0.862329
0.866706
0.868307
0.853811
0.836282
0.831725
0.833707
0.837319
0.841682
0.852527
0.885547
0.91226
0.923516
0.930956
0.936937
0.941646
0.934723
0.909435
0.894063
0.892766
0.896823
0.902338
0.908679
0.933057
0.973765
0.995523
1.00574
1.01411
1.02101
1.02331
1.00532
0.978584
0.966455
0.966433
0.971651
0.978842
0.996095
1.03712
1.06917
1.08456
1.09521
1.10465
1.11016
1.10071
1.07103
1.04906
1.04297
1.04585
1.05451
1.08572
1.1286
1.15518
1.16903
1.17812
1.18394
1.18318
1.16352
1.12292
1.08924
1.0705
1.08663
2.73603
13.3715
0.694055
0.687118
0.683844
0.68542
0.688081
0.691066
0.697461
0.717159
0.733262
0.739534
0.742976
0.746059
0.748968
0.746675
0.735756
0.731681
0.733053
0.735628
0.738641
0.744346
0.765862
0.788002
0.796754
0.801219
0.804651
0.807989
0.805186
0.79011
0.781901
0.782074
0.784814
0.788404
0.793599
0.813579
0.843613
0.858064
0.864229
0.868632
0.872964
0.874414
0.858458
0.841737
0.837776
0.838492
0.841326
0.846057
0.859877
0.896178
0.922996
0.933395
0.938374
0.942369
0.947422
0.941623
0.916983
0.903278
0.901386
0.902235
0.905619
0.912327
0.938466
0.981587
1.00564
1.01514
1.02067
1.02619
1.03013
1.01571
0.988798
0.975497
0.973744
0.975967
0.981556
0.999956
1.04333
1.07747
1.09339
1.102
1.10957
1.11524
1.10761
1.07684
1.05126
1.04309
1.04511
1.0529
1.08374
1.12867
1.1572
1.17144
1.17955
1.1837
1.18162
1.16228
1.12058
1.07635
1.05311
2.67151
13.3941
0.700278
0.69638
0.688484
0.688297
0.690489
0.693206
0.696331
0.706953
0.729341
0.741615
0.746801
0.750081
0.753167
0.755456
0.748518
0.737696
0.735541
0.73733
0.740191
0.743648
0.752646
0.778456
0.797502
0.80497
0.809134
0.812481
0.815438
0.80796
0.791464
0.785889
0.787273
0.790161
0.79365
0.79953
0.823292
0.852516
0.865554
0.871951
0.877154
0.881727
0.880761
0.861464
0.844165
0.840933
0.843788
0.848086
0.852636
0.866115
0.9021
0.927367
0.938028
0.945657
0.951738
0.956351
0.948857
0.923352
0.906896
0.90411
0.90737
0.912517
0.918824
0.941948
0.983393
1.00731
1.01866
1.02773
1.0349
1.03855
1.02484
0.996111
0.978849
0.975805
0.979814
0.986857
1.00591
1.04848
1.08092
1.09657
1.1073
1.11646
1.12232
1.11296
1.07935
1.05202
1.04308
1.04437
1.05202
1.08271
1.12891
1.15805
1.17141
1.1784
1.18116
1.1774
1.15807
1.10734
1.05177
2.57522
13.4302
0.704544
0.706326
0.696771
0.692056
0.692791
0.694945
0.697798
0.702201
0.718929
0.740583
0.74969
0.753933
0.757011
0.760078
0.760514
0.749138
0.740037
0.739769
0.742383
0.745531
0.749126
0.761673
0.789605
0.805769
0.812337
0.816703
0.820327
0.822344
0.811065
0.795096
0.790825
0.791947
0.794573
0.798453
0.806197
0.833783
0.862032
0.873845
0.879303
0.882878
0.887374
0.886902
0.867298
0.851312
0.848336
0.849083
0.851793
0.856587
0.872191
0.910566
0.937505
0.94779
0.952747
0.956967
0.962321
0.957939
0.933234
0.916105
0.912277
0.912344
0.915035
0.921263
0.94576
0.990781
1.01774
1.02815
1.03405
1.03954
1.04415
1.03399
1.00479
0.985822
0.981678
0.983349
0.988754
1.00832
1.05446
1.09025
1.10631
1.11439
1.12106
1.12504
1.11645
1.08455
1.05534
1.04467
1.04475
1.05114
1.08056
1.12695
1.15598
1.1684
1.17453
1.17628
1.17252
1.14486
1.08826
2.48756
13.4854
0.708028
0.712487
0.707769
0.697856
0.695481
0.697317
0.700136
0.703151
0.709914
0.731635
0.749851
0.756785
0.760565
0.763684
0.766751
0.76408
0.750348
0.744067
0.744789
0.746979
0.749981
0.754376
0.771745
0.799971
0.813991
0.820266
0.824803
0.828716
0.829396
0.8138
0.797653
0.794507
0.797103
0.800699
0.804402
0.812569
0.841833
0.868734
0.879657
0.886035
0.89139
0.895876
0.89335
0.871776
0.854439
0.851239
0.854144
0.858558
0.863165
0.876959
0.913815
0.940083
0.951578
0.959829
0.966282
0.971141
0.966232
0.941072
0.920165
0.914219
0.91662
0.921882
0.928567
0.950685
0.993178
1.01902
1.03051
1.03923
1.04633
1.05075
1.04088
1.01128
0.989529
0.983868
0.986933
0.993908
1.01375
1.0579
1.09182
1.10708
1.11615
1.12425
1.13002
1.12322
1.09063
1.05853
1.04511
1.04391
1.04869
1.07548
1.12189
1.15136
1.16401
1.16937
1.17174
1.16292
1.1377
2.44655
13.5529
0.710889
0.715914
0.71682
0.708467
0.700416
0.700274
0.702468
0.705194
0.708405
0.718821
0.743495
0.75838
0.76421
0.767659
0.770739
0.773262
0.7661
0.751496
0.747106
0.748758
0.75186
0.755249
0.760753
0.78229
0.809371
0.821247
0.826531
0.830511
0.834319
0.834687
0.818319
0.803669
0.801173
0.802376
0.804994
0.809066
0.81934
0.85108
0.877821
0.888393
0.893287
0.896642
0.901417
0.900406
0.879618
0.862774
0.859217
0.859442
0.861533
0.866156
0.881183
0.920692
0.950211
0.961507
0.966735
0.970574
0.976003
0.974893
0.951623
0.929602
0.923231
0.923295
0.925496
0.93113
0.953563
0.998975
1.02741
1.03836
1.04398
1.04947
1.05534
1.05002
1.02097
0.997404
0.990517
0.990837
0.994917
1.01177
1.05641
1.09451
1.11297
1.12181
1.12828
1.13308
1.12885
1.09773
1.06124
1.04387
1.04093
1.04458
1.06912
1.11595
1.14713
1.16031
1.1664
1.16344
1.16909
2.46497
13.6238
0.713635
0.719179
0.72177
0.720543
0.709317
0.703871
0.704721
0.707156
0.710048
0.714223
0.72954
0.754557
0.766552
0.771622
0.774516
0.777553
0.778824
0.766806
0.753689
0.751949
0.754369
0.757457
0.760719
0.766948
0.791214
0.817112
0.827954
0.833479
0.838135
0.842208
0.840533
0.821568
0.806545
0.80456
0.807488
0.811304
0.815174
0.825003
0.85669
0.882367
0.89288
0.899781
0.905386
0.909961
0.907757
0.886054
0.866554
0.861439
0.863717
0.868185
0.872989
0.885688
0.922723
0.951538
0.963792
0.972156
0.978793
0.983948
0.982738
0.960956
0.936051
0.925876
0.926511
0.931256
0.937764
0.958357
1.00018
1.02705
1.03971
1.04982
1.05738
1.06251
1.05696
1.02792
1.00084
0.990515
0.990909
0.996164
1.01178
1.05458
1.09425
1.11376
1.12422
1.13261
1.13768
1.13388
1.10268
1.06243
1.04178
1.03727
1.03995
1.06319
1.11081
1.14272
1.15702
1.15711
1.18276
2.52278
13.6953
0.715867
0.722549
0.725082
0.727623
0.722283
0.710721
0.707927
0.709754
0.712636
0.715582
0.720525
0.739758
0.763547
0.773479
0.778337
0.781602
0.78478
0.783956
0.769296
0.758357
0.757372
0.759167
0.762024
0.765626
0.773544
0.800299
0.825138
0.835154
0.839984
0.843303
0.847335
0.846275
0.827783
0.813971
0.811827
0.812633
0.81498
0.819088
0.830523
0.864173
0.891364
0.902058
0.906909
0.910343
0.915238
0.915564
0.895527
0.875488
0.869972
0.869804
0.871207
0.875442
0.888551
0.92784
0.960463
0.973333
0.978954
0.982791
0.988259
0.990641
0.972457
0.945776
0.934579
0.933186
0.934704
0.939464
0.959366
1.0046
1.03631
1.04897
1.05533
1.06084
1.06699
1.06536
1.03714
1.00667
0.994548
0.993104
0.996579
1.00913
1.05198
1.09734
1.12022
1.12972
1.13555
1.13915
1.1358
1.10604
1.06328
1.03944
1.0335
1.03516
1.05853
1.1055
1.13747
1.14625
1.18217
2.60458
13.7687
0.716504
0.725632
0.728282
0.731361
0.732954
0.723701
0.713849
0.713077
0.715013
0.717404
0.720319
0.726585
0.749443
0.771798
0.780898
0.78575
0.789136
0.79243
0.789365
0.771962
0.761592
0.761542
0.7646
0.767801
0.771077
0.779325
0.807461
0.831297
0.840795
0.846419
0.851349
0.855434
0.852732
0.832564
0.817131
0.814612
0.81734
0.821248
0.825169
0.835121
0.867528
0.894276
0.905558
0.913068
0.918939
0.923659
0.923412
0.903874
0.880838
0.872153
0.873064
0.877219
0.882333
0.893401
0.928966
0.960658
0.974583
0.983427
0.990608
0.996069
0.998057
0.982008
0.953539
0.937557
0.935152
0.938963
0.945084
0.96347
1.00578
1.03609
1.05024
1.0609
1.06887
1.07455
1.07194
1.04297
1.00995
0.995494
0.994289
0.998646
1.01089
1.05128
1.09669
1.11965
1.12953
1.13556
1.1393
1.13704
1.10936
1.06505
1.03775
1.02997
1.03057
1.05307
1.09928
1.12448
1.17045
2.69545
13.8386
0.714033
0.728796
0.732262
0.735232
0.738155
0.737288
0.724537
0.716706
0.716788
0.719234
0.722125
0.725334
0.733383
0.758459
0.779232
0.787536
0.792302
0.795908
0.799221
0.795039
0.777344
0.768249
0.767818
0.769118
0.771855
0.775664
0.785781
0.81554
0.839328
0.848756
0.853284
0.856468
0.860752
0.85974
0.840466
0.825271
0.822228
0.822478
0.82425
0.828213
0.839149
0.873486
0.903231
0.915032
0.920133
0.923344
0.928148
0.930768
0.914784
0.890629
0.881227
0.880271
0.881067
0.884621
0.895057
0.931674
0.968429
0.984207
0.990679
0.994785
1.00017
1.00474
0.993046
0.963197
0.945439
0.941552
0.942202
0.946111
0.962598
1.00812
1.04539
1.0606
1.0673
1.07184
1.07741
1.07828
1.05279
1.0181
1.00153
0.998593
1.00077
1.00857
1.04602
1.09396
1.11911
1.12946
1.13515
1.13885
1.13851
1.11481
1.06856
1.0355
1.02442
1.02352
1.04703
1.08686
1.14506
2.78153
13.8938
0.705977
0.730086
0.735973
0.739171
0.741763
0.744397
0.739823
0.725699
0.720517
0.72173
0.724292
0.726906
0.730076
0.739428
0.766365
0.786462
0.794527
0.799419
0.803629
0.806956
0.800518
0.780793
0.770983
0.77134
0.774387
0.777678
0.781074
0.790806
0.820831
0.844083
0.853466
0.859714
0.864816
0.869021
0.867024
0.846993
0.828899
0.824341
0.826477
0.830428
0.834557
0.843574
0.875413
0.90468
0.91725
0.925135
0.931425
0.936317
0.938466
0.924342
0.898424
0.884354
0.882606
0.886055
0.891113
0.900444
0.932894
0.968261
0.984883
0.994483
1.00229
1.00796
1.01153
1.00121
0.970834
0.948752
0.942889
0.945502
0.951117
0.966144
1.00813
1.04391
1.05985
1.07026
1.07904
1.08493
1.08524
1.06063
1.02371
1.00292
0.997743
1.00029
1.00804
1.04221
1.09048
1.1178
1.12964
1.1364
1.1403
1.13974
1.1178
1.07054
1.03203
1.01649
1.01615
1.03672
1.10727
2.84176
13.9319
0.695285
0.723021
0.737151
0.742825
0.74597
0.748724
0.750661
0.742013
0.728608
0.72499
0.725918
0.728085
0.731262
0.735091
0.746466
0.774441
0.793547
0.801003
0.805145
0.808255
0.811604
0.806106
0.78726
0.778287
0.777659
0.778692
0.781299
0.785205
0.796409
0.82793
0.852453
0.862044
0.866555
0.869571
0.873985
0.87448
0.85631
0.837612
0.832513
0.832361
0.833426
0.837041
0.846173
0.879323
0.912677
0.926768
0.93246
0.935715
0.940274
0.9447
0.935589
0.909152
0.893642
0.890615
0.890989
0.893733
0.901522
0.933827
0.974849
0.994599
1.00211
1.00618
1.01126
1.01655
1.01074
0.980882
0.95706
0.949951
0.949415
0.952165
0.963323
1.00494
1.04904
1.06962
1.07752
1.08237
1.08738
1.09027
1.07117
1.03244
1.00765
1.00034
1.00072
1.00595
1.03707
1.0876
1.11857
1.13086
1.13571
1.13828
1.13707
1.11834
1.07259
1.02949
1.00915
1.00149
1.05896
2.856
13.9571
0.691625
0.706041
0.730582
0.744081
0.749876
0.753072
0.755804
0.756849
0.744981
0.730952
0.728216
0.730522
0.733885
0.736966
0.740343
0.752132
0.780833
0.799192
0.80646
0.811298
0.815755
0.819026
0.811899
0.791324
0.780729
0.780716
0.783781
0.787439
0.791025
0.800827
0.831411
0.855674
0.865696
0.872307
0.877652
0.881955
0.882096
0.864541
0.84284
0.834554
0.835351
0.839032
0.843541
0.851088
0.880302
0.91291
0.927787
0.936232
0.943227
0.948337
0.952007
0.944757
0.918691
0.898385
0.892638
0.894899
0.899631
0.907311
0.935264
0.973941
0.993898
1.00434
1.01303
1.01912
1.02371
1.01855
0.989418
0.961593
0.950874
0.951233
0.955836
0.965766
1.00224
1.04572
1.06714
1.0783
1.08775
1.09403
1.09641
1.07784
1.03728
1.00904
0.999629
0.999883
1.00469
1.03306
1.08388
1.11525
1.12715
1.1326
1.13579
1.13431
1.11737
1.07363
1.02823
0.996825
1.00971
2.81007
13.9709
0.693069
0.698009
0.711465
0.736875
0.750387
0.756322
0.760163
0.763293
0.763283
0.749669
0.737111
0.735093
0.736232
0.738123
0.741139
0.745153
0.758378
0.787579
0.806055
0.813302
0.817141
0.819953
0.823532
0.818573
0.799221
0.788954
0.787943
0.788638
0.79081
0.794578
0.80509
0.836857
0.863666
0.874359
0.879012
0.881817
0.886072
0.888788
0.875172
0.852572
0.843434
0.842456
0.842909
0.845715
0.852675