/*--------------------------------*- C++ -*----------------------------------*\
  =========                 |
  \\      /  F ield         | OpenFOAM: The Open Source CFD Toolbox
   \\    /   O peration     | Website:  https://openfoam.org
    \\  /    A nd           | Version:  12
     \\/     M anipulation  |
\*---------------------------------------------------------------------------*/
FoamFile
{
    format      ascii;
    class       volScalarField;
    location    "6.62";
    object      rho;
}
// * * * * * * * * * * * * * * * * * * * * * * * * * * * * * * * * * * * * * //

dimensions      [1 -3 0 0 0 0 0];

internalField   nonuniform List<scalar> 
22702
(
1.40001
1.40001
1.2712
1.40001
1.45712
1.40001
1.83645
1.40001
1.40001
1.01815
1.83707
1.83946
1.40001
1.84157
1.28582
1.40001
1.40001
1.40001
1.83764
1.40001
1.84217
1.40001
1.84052
1.01187
1.84298
1.04392
1.40001
1.8424
1.01592
1.01951
1.40001
1.8418
1.40001
1.40001
1.40001
1.8089
1.84303
1.84053
1.40001
1.40001
1.02962
1.40001
1.62006
1.40001
1.84096
1.40001
1.40001
1.40001
1.40001
1.01657
1.40001
1.00703
1.40001
1.83696
1.40001
1.84198
1.40001
1.40001
1.40001
1.40001
1.05963
1.40001
1.40001
1.01598
1.40001
1.02933
1.40001
1.40001
1.40001
1.03204
1.40001
1.84228
1.67044
1.40001
1.84109
1.86081
1.0253
1.83927
1.02129
1.40001
1.83848
1.03513
1.83964
1.83873
1.40001
1.40001
1.40001
1.40001
1.32987
1.02318
1.8386
1.40001
1.40001
0.991799
1.40001
1.84206
0.990905
1.40001
1.40001
1.40001
1.40001
1.61991
1.83874
1.04307
1.40001
1.40001
1.508
1.40001
1.03475
1.40001
1.84036
1.83839
1.40001
1.40001
1.02671
1.03412
1.02044
1.40001
1.40001
1.40001
1.40001
1.40001
1.30894
1.40001
1.78044
1.44279
1.8401
1.40001
1.8401
1.83841
1.84228
1.83779
1.40001
1.05766
1.40001
1.02966
1.40001
1.40001
1.40001
1.40001
1.83864
1.40001
1.40001
1.40001
1.40001
1.83791
1.40001
1.4278
1.40001
1.40001
1.40001
1.40001
1.02574
1.40001
1.41146
1.40001
1.02148
1.40001
1.40001
1.40001
1.83793
1.40001
1.84184
1.03617
1.05437
1.84381
1.84366
1.40001
1.47042
1.65229
1.40001
1.83731
1.02069
1.81006
1.40001
1.40001
1.40001
1.40001
1.84135
1.77126
1.40001
1.83994
1.01701
1.84026
1.40001
1.0438
1.40001
1.01309
1.04375
1.39979
1.40001
1.40001
1.84083
1.40001
1.40001
1.84106
1.40001
1.84081
1.83976
1.03864
1.40001
1.40001
1.02782
1.84199
1.40001
1.40001
1.40001
1.84172
1.40001
1.03714
1.40001
1.40001
1.84165
1.84194
1.84077
1.40001
1.40005
1.40001
1.40001
1.40001
1.84166
1.40001
1.02824
1.85724
1.84227
1.84219
1.40001
1.40001
1.40001
1.01138
1.8407
1.61214
1.40001
1.84357
1.0343
1.03549
1.84354
1.84204
1.40001
1.83955
1.01456
1.79159
1.40001
1.40001
1.40001
1.40001
1.84185
1.40001
1.65767
1.44258
1.40001
1.40001
1.84164
1.02828
1.17769
1.40001
1.84295
1.03285
1.84136
1.40001
1.40001
1.40001
1.40001
1.40001
1.40001
1.40001
1.0241
1.16694
1.03677
1.84194
1.40001
1.40001
1.40001
1.40001
1.78563
1.40001
1.02162
1.40001
1.00415
1.0251
1.84144
1.02012
1.84202
1.40001
1.40001
1.40001
1.39767
1.04282
1.01385
1.4
1.40001
1.00348
1.40001
1.83882
1.02253
1.40001
1.40001
1.83794
1.01942
1.40001
1.83885
1.05452
1.84149
1.40001
1.00881
1.39773
1.40001
1.40001
1.40001
1.00899
1.40001
1.40001
1.40001
1.40002
1.40682
1.67153
1.40001
1.06481
1.40001
1.40001
1.40001
1.40001
1.40001
1.40001
1.40001
1.83807
1.40001
1.84
1.40001
1.40001
1.40001
1.0457
1.40001
1.83829
1.03667
1.40001
1.76653
1.40001
1.40001
1.83834
1.40001
1.40001
1.40001
1.82669
1.40001
1.40001
1.83514
1.8358
1.40001
1.49325
1.40001
1.40001
1.0289
1.40001
1.40001
1.40001
1.00041
1.40001
1.40001
1.40001
1.40001
1.04664
1.40001
1.40001
1.40001
1.40001
1.40001
1.00821
1.40007
1.84224
1.40001
1.4
1.84329
1.84431
1.40001
1.40001
1.03765
1.20506
1.84024
1.40001
1.40001
1.40001
1.84142
1.02946
1.40001
1.84176
1.40001
1.40001
1.09747
1.08152
1.40001
1.04466
1.04679
1.40001
1.40001
1.40001
1.40001
1.40001
1.40001
1.40001
1.83898
1.50837
1.8242
1.00808
1.30161
1.83923
1.40001
1.83898
1.84049
1.03204
1.17926
1.40001
1.03494
1.40001
1.85184
1.40001
1.40001
1.40001
1.40001
1.84201
1.40001
1.40001
1.40001
1.40001
1.40001
1.40001
1.40001
1.55553
1.83867
1.40001
1.84167
1.40001
1.40001
1.02916
1.40001
1.40001
1.40001
1.40001
1.84154
1.73837
1.40001
1.40001
1.0415
1.84231
1.84174
1.40001
1.84167
1.84085
1.84203
1.40001
1.22112
1.40001
1.84095
1.38228
1.84177
1.40001
1.0352
1.39888
1.83705
1.40001
1.40001
1.40001
1.40001
1.03388
1.8407
1.79861
1.40001
1.8406
1.84131
1.84005
1.40001
1.6047
1.84247
1.40001
1.40001
1.70831
1.46738
1.84169
1.33103
1.84176
1.40001
1.84167
1.84192
1.84175
1.84249
1.40001
1.81778
1.30282
1.27006
1.40001
1.4
1.40001
1.40001
1.84873
1.40001
1.40001
1.40001
1.40001
1.40001
1.83702
1.40001
1.40001
1.39616
1.84172
1.78545
1.40001
1.77408
1.40005
1.40001
1.40001
1.84308
1.40001
1.39696
1.4043
1.40001
1.84204
1.40001
1.84126
1.40001
1.40001
1.72624
1.40001
1.84112
1.40003
1.40001
1.84228
1.40001
1.84155
1.40001
1.40001
1.40001
1.84166
1.40001
1.84387
1.40001
1.84203
1.83599
1.84146
1.8388
1.40001
1.83641
1.84077
1.40001
1.03369
1.81468
1.71701
1.40001
1.84196
1.40001
1.02503
1.05666
1.40001
1.40001
1.40001
1.40001
1.40001
0.992156
1.40001
1.84162
1.51475
1.8431
1.40001
1.40001
1.40001
1.40001
1.40001
1.84205
1.40001
1.84201
1.66209
1.17251
1.40001
1.40001
1.52701
1.51035
1.40001
1.40001
1.56502
1.40001
1.02178
1.84249
1.84221
1.40001
1.40001
1.40001
1.83528
1.40001
1.40003
1.84118
1.84057
1.34921
1.40001
1.40001
1.01517
1.80174
1.40001
1.40001
1.40001
1.40001
1.40001
1.84158
1.8369
1.40001
1.84281
1.84631
1.84139
1.40001
1.40001
1.40001
1.40001
1.02662
1.83979
1.40001
1.40001
1.80266
1.84019
1.40001
1.81619
1.83877
1.40001
1.40001
1.40001
1.40001
1.40001
1.84219
1.40001
1.40001
1.40001
1.40001
1.84727
1.40001
1.82984
1.03549
1.40001
1.0327
1.40001
1.40001
1.40001
1.39684
1.03563
1.39902
1.40001
1.40001
1.40001
1.45864
1.40001
1.40001
1.26733
1.40001
1.40001
1.40001
1.40001
1.40001
1.40001
1.40001
1.4
1.33536
1.4
1.40001
1.39758
1.40001
1.02748
1.40001
1.40001
1.40001
1.40001
1.73029
1.40001
1.40001
1.40001
1.40001
1.04436
1.40001
1.40001
1.81595
1.83926
1.4
1.40001
1.40001
1.2769
1.40001
1.40001
1.40001
1.40001
1.40001
1.40001
1.35222
1.40777
1.84154
1.40001
1.40001
1.40001
1.84243
1.29598
1.40001
1.40001
1.40001
1.83967
1.84211
1.40001
1.40001
1.40001
1.40001
1.40001
1.40001
1.40001
1.40001
1.40001
1.04625
1.40001
1.40001
1.83843
1.0373
1.40001
1.83859
1.40001
1.03177
1.40001
1.40001
1.04262
1.40001
1.40001
1.40001
1.40001
1.40001
1.40001
1.40001
1.83281
1.84041
1.40001
1.40001
1.40001
1.40001
1.80392
1.40001
1.53992
1.04525
1.40001
1.40001
1.40001
1.40001
1.40001
1.40001
1.40001
1.43683
1.40001
1.40001
1.63828
1.40001
1.40001
1.40001
1.76018
1.40001
1.40001
1.40001
1.40001
1.03506
1.40001
1.40001
1.04079
1.0347
1.40001
1.40001
1.84115
1.40001
1.35589
1.40001
1.40001
1.40001
1.70934
1.02661
1.40001
1.01681
1.40001
1.17121
1.40001
1.40001
1.40001
1.84269
1.40001
1.40001
1.84094
1.40001
1.40001
1.40001
1.84115
1.40001
1.40001
1.84134
1.40001
1.40001
1.03087
1.40001
1.53581
1.40001
1.40001
1.83889
1.83911
1.69597
1.79574
1.40001
1.03466
1.40001
1.40001
1.82276
1.40001
1.03621
1.40001
1.40001
1.40001
1.84266
1.40001
1.40001
1.40001
1.40001
1.66578
1.40001
1.81551
1.83914
0.999721
1.40001
1.40001
1.05801
1.05514
1.40001
1.40001
1.40001
1.71408
1.73376
1.40001
1.40001
1.40001
1.40001
1.40001
1.40001
1.40001
1.58871
1.83722
1.40501
1.40001
1.83699
1.06126
1.40001
1.40001
1.40001
1.63778
1.40001
1.48968
1.40001
1.80362
1.84001
1.40001
1.0369
1.40001
1.84034
1.40001
1.40001
1.84101
1.81519
1.40001
1.83952
1.40001
1.01984
1.40001
1.40001
1.40001
1.84874
1.83284
1.78873
1.40001
1.84307
1.84332
1.40001
1.84373
1.40001
1.84006
1.40001
1.03248
1.36583
1.04168
1.40001
1.40001
1.40001
1.40001
1.40001
1.84212
1.40001
1.8419
1.40001
1.40001
1.40001
1.82025
1.40001
1.00938
1.84186
1.40001
1.02655
1.04476
1.02667
1.40001
1.61787
1.43659
1.84308
1.84325
1.40001
1.4
1.40001
1.40001
1.84147
1.40001
1.40001
1.84174
1.84326
1.40001
1.55209
1.39979
1.40001
1.39688
1.83889
1.2304
1.40001
1.21027
1.02423
1.02309
1.31342
1.84239
1.83591
1.47966
1.84192
1.84223
1.40001
1.40001
1.83813
1.84001
1.84126
1.83732
1.40001
1.84202
1.01834
1.84087
1.84118
1.84139
1.84045
1.25972
1.29498
1.33122
1.84111
1.35758
1.84269
1.40001
1.40001
1.84355
1.84172
1.40001
1.03598
1.84202
1.84164
1.40001
1.84206
1.84141
1.40001
1.84128
1.04209
1.83906
1.8373
1.83774
1.84761
1.40001
1.40001
1.40001
1.8413
1.68883
1.06545
1.84106
1.03515
1.84099
1.40001
1.40001
1.40001
1.40001
1.83952
1.84165
1.40001
1.40001
1.84239
1.04139
1.84122
1.025
1.40001
1.83867
1.40001
1.0209
1.84227
1.12898
1.40001
1.84279
1.84415
1.84197
1.40001
1.40001
1.61783
1.84338
1.04223
1.8416
1.40001
1.84169
1.26999
1.83987
1.04568
1.40001
1.84437
1.05004
1.84352
1.03494
1.40001
1.84168
1.40001
1.84013
1.40001
1.65415
1.82508
1.74823
1.04713
1.40001
1.84087
1.40001
1.84192
1.40001
1.84193
1.40001
1.40001
1.84158
1.37232
1.84404
1.01935
1.79193
1.40001
1.709
1.40001
1.84192
1.84172
1.84254
1.40001
1.79831
1.84213
1.80935
1.6732
1.84614
1.40001
1.69465
1.40001
1.84041
1.40001
1.46046
1.40001
1.81108
1.40001
1.84178
1.82164
1.8209
1.40001
1.83815
1.0549
1.40001
1.03577
1.40001
1.40001
1.40001
1.8406
1.40001
1.84245
1.40001
1.40001
1.40001
1.84403
1.82986
1.76261
1.83935
1.84293
1.03176
1.84661
1.83901
1.40001
1.78074
1.84182
1.83869
1.40001
1.8376
1.84177
1.40001
1.84489
1.84164
1.84164
1.8422
1.40001
1.40001
1.40001
1.84196
1.03568
1.40001
1.84217
1.40001
1.40001
1.05774
1.40001
1.40001
1.84081
1.8409
1.40001
1.84153
1.84639
1.83912
1.36988
1.84148
1.40001
1.84151
1.84109
1.75904
1.40001
1.40001
1.40001
1.84087
1.84167
1.84166
1.33607
1.40001
1.8516
1.84138
1.84059
1.40001
1.84165
1.84056
1.8413
1.85142
1.40001
1.84154
1.8384
1.786
1.84408
1.84983
1.40001
1.83909
1.83639
1.84134
1.83885
1.84485
1.05488
1.84078
1.84258
1.40001
1.84162
1.84118
1.84132
1.84133
1.40001
1.84227
1.84163
1.40001
1.84179
1.7723
1.40001
1.40001
1.40001
1.83837
1.84985
1.40001
1.40001
1.63582
1.40001
1.84184
1.40001
1.40001
1.84181
1.84369
1.84192
1.84283
1.40001
1.40001
1.40001
1.71406
1.40001
1.84128
1.40001
1.40001
1.83891
1.83729
1.40001
1.84201
1.00502
1.84128
1.83795
1.0977
1.40001
1.02888
1.78595
1.84101
1.83982
1.8397
1.03353
1.84101
1.84444
1.03873
1.0372
1.40001
1.84122
1.84003
1.40001
1.40001
1.84161
1.40001
1.84517
1.40001
1.78521
1.40001
1.59958
1.8402
1.8435
1.70819
1.81067
1.84055
1.84317
1.82017
1.40001
1.04811
1.8409
1.84243
1.84689
1.40002
1.40001
1.40001
1.8446
1.40001
1.8432
1.84204
1.14074
1.40001
1.84113
1.39995
1.40001
1.40004
1.40005
1.84204
1.83989
1.39846
1.40001
1.40001
1.84208
1.84351
1.84224
1.84781
1.83988
1.06457
1.79451
1.40001
1.83832
1.84235
1.84202
1.84359
1.40001
1.84154
1.8297
1.84294
1.40001
1.8417
1.83953
1.24236
1.8415
1.84148
1.40001
1.84196
1.23241
1.84095
1.2413
1.84186
1.40001
1.84186
1.84373
1.84166
1.84201
1.84182
1.84356
1.84248
1.84026
1.40001
1.30824
1.84087
1.84172
1.24534
1.8417
1.3755
1.68899
1.84095
1.84201
1.84212
1.40001
1.84414
1.69012
1.84209
1.32292
1.84372
1.84447
1.40001
1.27219
1.40001
1.84059
1.40001
1.70508
1.40001
1.81055
1.27591
1.40001
1.84581
1.83848
1.40001
1.83939
1.84337
1.84761
1.83987
1.84701
1.40001
1.83785
1.40001
1.40001
1.40001
1.3014
1.84259
1.84316
1.84487
1.842
1.84965
1.84434
1.83695
1.84227
1.29043
1.43091
1.40001
1.40001
1.84508
1.84209
1.84153
1.84212
1.40003
1.63048
1.40001
1.84499
1.79223
1.40001
1.40001
1.12066
1.84101
1.40001
1.40001
1.01811
1.84181
1.40001
1.83748
1.84116
1.84026
1.825
1.84188
1.40001
1.04983
1.50806
1.84201
1.84183
1.40001
1.84223
1.84063
1.63135
1.40959
1.49847
1.40001
1.83995
1.84228
1.40001
1.40001
1.04546
1.40001
1.40001
1.84185
1.84218
1.8395
1.84213
1.84264
1.83747
1.84217
1.84047
1.842
1.40001
1.3958
1.84126
1.84191
1.39684
1.84203
1.84061
1.05841
0.994805
1.84329
1.84417
1.40001
1.40001
1.40091
1.84111
1.83942
1.84206
1.40001
1.84148
1.40001
1.25742
1.84724
1.84545
1.40001
1.60084
1.84233
1.40001
1.83878
1.40001
1.84141
1.69027
1.84048
1.40001
1.84318
1.84813
1.0455
1.84177
1.40001
1.841
1.83775
1.40001
1.057
1.84296
1.783
1.39752
1.82313
1.84087
1.40001
1.38612
1.83588
1.39802
1.84139
1.40001
1.40001
1.8399
1.40001
1.83984
1.84114
1.39654
1.74597
1.40001
1.84065
1.40001
1.40001
1.40001
1.40001
1.84215
1.40001
1.40001
1.83843
1.40001
1.84204
1.40001
1.68157
1.83801
1.84366
1.40001
1.40001
1.38518
1.40001
1.84181
1.84134
1.84218
1.84157
1.84114
1.84128
1.84119
1.40001
1.84127
1.84148
1.40001
1.84102
1.84154
1.40001
1.8401
1.31224
1.45733
1.8412
1.84139
1.84128
1.40001
1.84149
1.40001
1.8415
1.84129
1.40001
1.8423
1.40001
1.40001
1.40001
1.40001
1.84213
1.05947
1.39791
1.40001
1.84227
1.84993
1.40001
1.84151
1.40001
1.40524
1.02142
1.84193
1.3996
1.40001
1.84266
1.39842
1.84176
1.40001
1.39978
1.40001
1.84209
1.8427
1.84186
1.84131
1.04242
1.84098
1.84096
1.84176
1.5093
1.40001
1.40001
1.58933
1.84257
1.04136
1.02778
1.40001
1.84054
1.8428
1.84077
1.40001
1.40001
1.84253
1.8413
1.39989
1.40001
1.72861
1.00947
1.40001
1.47856
1.83758
1.83794
1.39824
1.84213
1.85225
1.40001
1.39879
1.40001
1.8414
1.83891
1.57773
1.40001
1.81197
1.40001
1.4017
1.84246
1.03953
1.84126
1.84093
1.39702
1.39992
1.789
1.40001
1.39969
1.40001
1.84221
1.40001
1.40002
1.00869
1.84087
1.40001
1.40001
1.40001
1.40001
1.84705
1.64996
1.40001
1.40001
1.03884
1.84196
1.6513
1.40001
1.40001
1.40001
1.82117
1.82227
1.84576
1.40001
1.40001
1.84853
1.40001
1.84264
1.84133
1.40001
1.40001
1.8436
1.84242
1.82401
1.40001
1.40001
1.84382
1.84271
1.40001
1.40001
1.40001
1.84259
1.40001
1.40001
1.40001
1.84263
1.84378
1.8427
1.40001
1.84873
1.40004
1.07577
1.84174
1.84203
1.40001
1.83939
1.82992
1.83889
1.40001
1.40001
1.84513
1.40001
1.64086
1.83984
1.40001
1.05741
1.40001
1.84356
1.40001
1.40001
1.83882
1.40001
1.40001
1.40001
1.54383
1.83985
1.05738
1.40002
1.84271
1.40001
1.40001
1.84178
1.40001
1.8465
1.40001
1.40001
1.84225
1.84222
1.40001
1.40006
1.40001
1.40001
1.40001
1.40001
1.40001
1.40001
1.84249
1.84111
1.40001
1.83749
1.03075
1.8487
1.40001
1.8421
1.84971
1.84179
1.8502
1.83892
1.40001
1.40001
1.84241
1.40001
1.66532
1.84781
1.8427
1.40001
1.84019
1.84405
1.40001
1.79185
1.40001
1.84179
1.68657
1.84215
1.39735
1.83223
1.79439
1.84182
1.84223
1.43624
1.8418
1.84291
1.40001
1.84175
1.40001
1.84046
1.40001
1.40001
1.40001
1.40001
1.39618
1.8422
1.84204
1.75584
1.40001
1.84354
1.40001
1.40001
1.40001
1.01412
1.40001
1.8296
1.40001
1.80326
1.83469
1.40001
1.40001
1.40001
1.80612
1.83885
1.40001
1.40001
1.83943
1.04537
1.46031
1.40001
1.84823
1.84168
1.80324
1.82668
1.84171
1.40001
1.84248
1.40001
1.40001
1.40001
1.40001
1.84365
1.84419
1.40001
1.83501
1.44615
1.84215
1.81282
1.40001
1.40001
1.81427
1.40001
1.40001
1.03048
1.71341
1.40001
1.40001
1.84134
1.40001
1.84395
1.80407
1.40001
1.80499
1.0488
1.84238
1.84152
1.84264
1.40001
1.03367
1.40001
1.40001
1.40001
1.84244
1.76856
1.40001
1.83763
1.84276
1.4
1.84193
1.40001
1.40001
1.40001
1.40001
1.84243
1.39933
1.40001
1.84355
1.40001
1.40001
1.844
1.84188
1.40001
1.8426
1.48297
1.40003
1.40001
1.84302
1.40001
1.84334
1.40001
1.41453
1.84196
1.40001
1.84255
1.40001
1.40001
1.53493
1.84156
1.40001
1.40001
1.40001
1.40001
1.40001
1.39653
1.01609
1.04878
1.42031
1.40001
1.41504
1.40001
1.4275
1.40001
1.84198
1.40001
1.67303
1.40001
1.8419
1.40001
1.40001
1.40001
1.8421
1.40001
1.75083
1.84304
1.40001
1.63126
1.84014
1.40001
1.40001
1.84099
1.8409
1.40001
1.40001
1.45171
1.05228
1.40001
1.84307
1.40001
1.40001
1.40001
1.40001
1.47328
1.84346
1.40001
1.40001
1.40001
1.02447
1.40001
1.84193
1.84251
1.84411
1.40001
1.40001
1.40001
1.40001
1.62314
1.84577
1.40001
1.40001
1.40001
1.84308
1.84158
1.45163
1.40001
1.40001
1.40001
1.84348
1.84174
1.40001
1.05326
1.84426
1.84165
1.84158
1.84201
1.84061
1.40001
1.40001
1.8482
1.84108
1.84209
1.02239
1.44052
1.8415
1.40001
1.40001
1.40001
1.40001
1.40001
1.84221
1.03641
1.40001
1.40001
1.84222
1.60135
1.40001
1.84843
1.40001
1.40001
1.40001
1.04967
1.40001
1.40001
1.51731
1.84409
1.84137
1.40001
1.83923
1.84076
1.40001
1.46323
1.40001
1.84049
1.40001
1.83903
1.04557
1.40001
1.40001
1.40001
1.40001
1.84199
1.40007
1.40001
1.40001
1.40001
1.83015
1.40001
1.40001
1.40001
1.40001
1.84165
1.05111
1.74593
1.8466
1.40001
1.84115
1.40001
1.40001
1.40001
1.39708
1.40001
1.84457
1.40001
1.19037
1.40001
1.40001
1.40004
1.8407
1.02846
1.40001
1.84143
1.40001
1.8391
1.84162
1.02081
1.40001
1.40001
1.82236
1.40001
1.40001
1.0174
1.40001
1.84088
1.40001
1.82292
1.39938
1.8424
1.40001
1.40001
1.40001
1.40001
1.83679
1.40001
1.40001
1.84178
1.40001
1.40001
1.40001
1.40001
1.40001
1.40001
1.40001
1.40001
1.69292
1.40001
1.54176
1.84051
1.40001
1.40001
1.40001
1.0412
1.40001
1.40001
1.40001
1.40001
1.84297
1.84168
1.45402
1.40001
1.40001
1.84278
1.40001
1.40001
1.84108
1.40001
1.40002
1.40001
1.40001
1.40001
1.40002
1.84417
1.16006
1.84162
1.84369
1.39686
1.40001
1.40001
1.40001
1.66254
1.40001
1.40001
1.8419
1.8425
1.40001
1.40001
1.40001
1.40001
1.02369
1.40001
1.40001
1.40001
1.67846
1.40001
1.8424
1.84288
1.40001
1.84314
1.40001
1.40001
1.40001
1.63947
1.40001
1.83801
1.40001
1.84169
1.40001
1.40001
1.39598
1.84163
1.40001
1.40001
1.40001
1.40001
1.40001
1.84043
1.40003
1.40001
1.02713
1.83914
1.02093
1.40001
1.84153
1.40001
1.39591
1.40001
1.84153
1.84835
1.40001
1.83426
1.26561
1.84156
1.84752
1.40004
1.40001
1.40001
1.03014
1.40001
1.40001
1.40001
1.84227
1.65536
1.84167
1.40001
1.40001
1.40001
1.40001
1.39671
1.84271
1.40001
1.04922
1.40001
1.40001
1.40001
1.40001
1.40001
1.40001
1.40001
1.847
1.83961
1.83851
1.40001
1.40001
1.39684
1.40001
1.38686
1.40001
1.40001
1.40001
1.03633
1.37736
1.40001
1.03066
1.04563
1.40001
1.84262
1.84167
1.40001
1.84413
1.84216
1.04091
1.69406
1.40001
1.40001
1.40001
1.0503
1.84258
1.40001
1.0474
1.40001
1.84895
1.46994
1.40001
1.40001
1.40001
1.40001
1.84187
1.8395
1.40001
1.40001
1.84191
1.40001
1.40001
1.83635
1.84181
1.40001
1.81978
1.84121
1.84085
1.35214
1.84093
1.40908
1.04533
1.73784
1.84122
1.40001
1.40001
1.40001
1.03211
1.40001
1.01508
1.84391
1.36572
1.84151
1.33451
1.40001
1.84272
1.60088
1.40001
1.40001
1.83836
1.40001
1.58168
1.84019
1.40001
1.40001
1.83914
1.83684
1.02516
1.65723
1.3999
1.40001
1.6686
1.40001
1.84789
1.3259
1.84254
1.84291
1.40001
1.40001
1.40001
1.40001
1.82681
1.40001
1.40001
1.83999
1.39965
1.84225
1.75022
1.84298
1.03135
1.40001
1.40001
1.40001
1.40001
1.84237
1.40005
1.84259
1.40001
1.84162
1.84095
1.45554
1.83974
1.53957
1.84175
1.40001
1.70408
1.05582
1.84301
1.84216
1.76555
1.46871
1.84041
1.84164
1.84244
1.84033
1.40001
1.32415
1.46692
1.40001
1.84228
1.61413
1.84152
1.40004
1.40001
1.40001
1.10391
1.84614
1.84148
1.76228
1.40001
1.57606
1.40001
1.84639
1.84762
1.40001
1.84347
1.84205
1.40001
1.40001
1.40001
1.84327
1.40001
1.58007
1.84101
1.70607
1.40001
1.84084
1.40001
1.40001
1.40001
1.40001
1.40001
1.40001
1.40001
1.40001
1.40001
1.40001
1.05545
1.40001
1.82356
1.04867
1.6597
1.3986
1.84124
1.40001
1.62733
1.40002
1.68355
1.77446
1.40001
1.40231
1.84959
1.3129
1.40001
1.84487
1.84091
1.31997
1.40001
1.84368
1.84208
1.8415
1.40001
1.84174
1.84336
1.84047
1.40001
1.60423
1.40001
1.40006
1.84216
1.40001
1.84117
1.46615
1.84416
1.40001
1.40001
1.84083
1.84567
1.10669
1.40001
1.84205
1.73086
1.84042
1.40001
1.40001
1.84157
1.84027
1.39822
1.40001
1.78526
1.39688
1.84159
1.40008
1.40001
1.40001
1.40001
1.40001
1.60302
1.40001
1.74101
1.84444
1.7275
1.84013
1.40001
1.40278
1.40001
1.40001
1.83868
1.40001
1.84228
1.40001
1.40001
1.40001
1.40001
1.4
1.40001
1.45784
1.62505
1.40001
1.40001
1.05425
1.40001
1.84023
1.03299
1.84549
1.40001
1.62324
1.39977
1.84091
1.68152
1.05033
1.6439
1.40004
1.84377
1.83973
1.40001
1.66401
1.84653
1.84149
1.39841
1.83656
1.82962
1.03926
1.40001
1.40001
1.39792
1.40001
1.83903
1.40001
1.06112
1.83966
1.40001
1.40001
1.79157
1.40001
1.84419
1.40001
1.8427
1.40001
1.07034
1.40001
1.40001
1.84368
1.84065
1.8394
1.40001
1.84046
1.84193
1.84749
1.40001
1.40001
1.83408
1.4
1.13947
1.40001
1.40001
1.40001
1.84214
1.40001
1.84135
1.68992
1.84126
1.40001
1.84158
1.39939
1.40001
1.40001
1.40001
1.40001
1.40001
1.40001
1.11473
1.40001
1.40001
1.84176
1.40001
1.84707
1.84496
1.40001
1.03898
1.03079
1.40001
1.84366
1.47445
1.04854
0.99999
1.40001
1.84311
1.40001
1.84566
1.01644
1.40134
1.40001
1.40001
1.39952
1.40001
1.40001
1.40001
1.39992
1.58316
1.84155
1.40001
1.40001
1.84179
1.66489
1.40001
1.80933
1.84104
1.84238
1.58218
1.83638
1.40001
1.84171
1.40001
1.84231
1.40001
1.83829
1.843
1.39681
1.84325
1.8464
1.40001
1.40001
1.40001
1.40001
1.40001
1.31802
1.84078
1.40005
1.40003
1.03301
1.39999
1.04576
1.01759
1.40001
1.84081
1.84009
1.842
1.40001
1.84385
1.40001
1.03365
1.40001
1.40001
1.84343
1.21386
1.8404
1.40001
1.84385
1.40001
1.37665
1.84144
1.40001
1.40001
1.40001
1.8424
1.40001
1.84204
1.02581
1.40001
1.40001
1.65698
1.40001
1.40001
1.64574
1.40001
1.40001
1.84227
1.40001
1.40001
1.40001
1.40001
1.40001
1.8436
1.84154
1.40001
1.84162
1.8419
1.02499
1.60401
1.8401
1.40001
1.40001
1.79756
1.39898
1.40001
1.40001
1.84088
1.84351
1.69003
1.40001
1.84144
1.03307
1.80964
1.39969
1.40001
1.84066
1.40004
1.84102
1.75681
1.73464
1.40001
1.40001
1.84224
1.10772
1.03916
1.40001
1.84155
1.40001
1.84247
1.40001
1.66181
1.40001
1.40001
1.84047
1.68443
1.04919
1.40001
1.39856
1.40001
1.40001
1.4261
1.58689
1.84191
1.40001
1.84676
1.40001
1.40001
1.40001
1.40001
1.40001
1.40001
1.46646
1.05659
1.40001
1.40001
1.44167
1.40001
1.40001
1.40001
1.40001
1.40001
1.84267
1.40001
1.40001
1.8439
1.84025
1.71135
1.40001
1.40001
1.40001
1.22779
1.84227
1.70653
1.40001
1.40001
1.40001
1.40001
1.84212
1.40001
1.40001
1.40001
1.83963
1.40001
1.40001
1.71792
1.85737
1.4381
1.1525
1.84201
1.71146
1.84033
1.40001
1.61966
1.40001
1.40001
1.40001
1.01983
1.40264
1.0289
1.40001
1.01158
1.00575
1.40001
1.0332
1.40001
1.40001
1.40001
1.5912
1.40001
1.84232
1.84308
1.40173
1.60546
1.77231
1.04333
1.13859
1.29603
1.40001
1.8416
1.8414
1.84156
1.84183
1.77877
1.27062
1.40001
1.7804
1.40001
1.82939
1.40001
1.40001
1.39663
1.40954
1.40001
1.40001
1.40001
1.84186
1.40001
1.06055
1.40001
1.84277
1.02906
1.40001
1.40001
1.84177
1.40001
1.84147
1.39999
1.40001
1.40001
1.84221
1.78967
1.40001
1.8485
1.40001
1.40001
1.41446
1.40001
1.59435
1.40001
1.40001
1.02327
1.40001
1.40001
1.84069
1.4
1.84173
1.40001
1.40004
1.03012
1.40001
1.40001
1.0315
1.40082
1.40001
1.84197
1.04951
1.83974
1.0442
1.84246
1.40001
1.40001
1.40001
1.40001
1.40001
1.40001
1.40001
1.40001
1.40001
1.40001
1.40001
1.82394
1.40001
1.84346
1.83891
1.04865
1.40001
1.40001
1.40001
1.40001
1.40001
1.40001
1.82924
1.40001
1.40001
1.03007
1.40001
1.40001
1.8419
1.40001
1.40001
1.57111
1.77067
1.0541
1.03401
1.05855
1.13592
1.40001
1.3965
1.03066
1.40026
1.80591
1.39688
1.40001
1.40001
1.84032
1.40001
1.40001
1.40001
1.1523
1.40002
1.56216
1.40001
1.40001
1.58229
1.84116
1.40001
1.03236
1.40001
1.40001
1.40001
1.39675
1.40001
1.84326
1.8414
1.40001
1.03782
1.40001
1.64071
1.04158
1.40001
1.30266
1.40001
1.39618
1.00238
1.40001
1.40001
1.40001
1.39583
1.01762
1.40001
1.00757
1.3984
1.63151
1.79715
1.0332
1.04207
1.40001
1.39107
1.40001
1.39866
1.40001
1.84101
1.84128
1.40001
1.41048
1.84149
1.84188
1.40001
1.40001
1.84168
1.40001
1.40001
1.40005
1.40001
1.84494
1.40001
1.40001
1.41853
1.40001
1.39856
1.04841
1.40001
1.40001
1.40001
1.40001
1.40001
1.83953
1.44011
1.40006
1.40001
1.40001
1.40001
1.40001
1.40001
1.40004
1.40001
1.03112
1.49436
1.39859
1.83424
1.83919
1.40001
1.41587
1.84183
1.77909
1.40001
1.40001
1.02302
1.84025
1.40001
1.83905
1.40001
1.84072
1.69928
1.02282
1.40001
1.04137
1.80958
1.39969
1.40001
1.05592
1.02404
1.40001
1.40001
1.77151
1.40001
1.4
1.02157
1.40001
1.40001
1.40001
1.54417
1.40001
1.04581
1.84291
1.40001
1.40001
1.40001
1.40001
1.84216
1.40001
1.40001
1.8473
1.79445
1.40001
1.40001
1.40001
1.84707
1.02343
1.40001
1.8418
1.84157
1.40001
1.75439
1.4
1.40003
1.40001
1.40001
1.80739
1.39701
1.40001
1.03083
1.63325
1.40001
1.40001
1.39748
1.40001
1.40001
1.84427
1.40001
1.40001
1.40004
1.40001
1.84194
1.40001
1.40001
1.40001
1.40001
1.40001
1.40001
1.40001
1.59417
1.40001
1.84291
1.40001
1.40001
1.843
1.40001
1.40001
1.40001
1.84173
1.84495
1.4453
1.40001
1.39749
1.40001
1.40001
1.40001
1.40001
1.83882
1.40001
1.40001
1.84171
1.03342
1.40001
1.40001
1.40001
1.40001
1.40001
1.40001
1.75813
1.40001
1.40001
1.84496
1.84157
1.40001
1.40001
1.40001
1.84196
1.84103
1.40001
1.39972
1.84567
1.40001
1.40001
1.40001
1.40002
1.04243
1.42772
1.3959
1.39608
1.40001
1.40001
1.0104
1.84152
1.40001
1.03041
1.40001
1.84462
1.82297
1.05261
1.39942
1.84257
1.84213
1.84172
1.40001
1.40001
1.32445
1.80398
1.76474
1.03026
1.40001
1.40001
1.40001
1.84214
1.84154
1.03355
1.39724
1.40001
1.84064
1.05272
1.40001
1.82736
1.03657
1.36012
1.40637
1.40001
1.84429
1.40001
1.40001
1.40001
1.40001
1.40001
1.40001
1.40011
1.81082
1.40001
1.40001
1.84237
1.40001
1.40001
1.40001
1.84152
1.40001
1.03232
1.40001
1.40001
1.40001
1.55635
1.40001
1.40001
1.40001
1.40001
1.40001
1.18024
1.40001
1.04347
1.40001
1.84075
1.40007
1.25918
1.2696
1.40002
1.40489
1.63137
1.40001
1.40001
1.01383
1.83985
1.84128
1.84199
1.40001
1.03497
1.01927
1.40001
1.84089
1.40001
1.40001
1.40001
1.40001
1.40001
1.40004
1.40001
1.03816
1.68746
1.40001
1.40001
1.05414
1.37483
1.40001
1.40001
1.40001
1.40001
1.00435
1.40001
1.08005
1.40001
1.40001
1.84944
1.40001
1.40001
1.04077
1.40001
1.84222
1.40001
1.04266
1.40001
1.03591
1.40001
1.40791
1.8421
1.84891
1.40001
1.40001
1.84128
1.40001
1.40001
1.49868
1.39697
1.40001
1.39824
1.40001
1.84545
1.40001
1.02865
1.40002
1.83679
1.39883
1.40001
1.40001
1.20506
1.40001
1.39897
1.03659
1.84227
1.56011
1.40001
1.40001
1.30445
1.40001
1.40001
1.40001
1.18237
1.40001
1.40001
1.40001
1.84202
1.40001
1.01901
1.4
1.40001
1.40001
1.40001
1.02145
1.84163
1.81384
1.04001
1.40001
1.838
1.40001
1.40001
1.84098
1.83981
1.7733
1.02882
1.39763
1.3993
1.40001
1.84056
1.40001
1.40001
1.40001
1.40001
1.84079
1.40004
1.40001
1.40001
1.84002
1.40001
1.40001
1.84274
1.03613
1.40001
1.40001
1.40001
1.03379
1.40001
1.4
1.4
1.39859
1.40001
1.40001
1.40001
1.40001
1.73906
1.40001
1.83954
1.84028
1.84611
1.84165
1.84018
1.84236
1.40001
1.84289
1.40001
1.84176
1.84165
1.40001
1.39886
1.03519
1.77897
1.39992
1.40001
1.40001
1.40001
1.40001
1.37868
1.40001
1.47353
1.40001
1.40001
1.40001
1.227
1.84266
1.84082
1.84478
1.78044
1.39987
1.40001
1.42304
1.84109
1.39799
1.454
1.39721
1.01929
1.40001
1.40003
1.40001
1.40001
1.40001
1.40001
1.40001
1.84386
1.04015
1.8437
1.84101
1.39509
1.05104
1.40001
1.40001
1.40001
1.84172
1.05591
1.78853
1.03219
1.84138
1.84507
1.03666
1.84117
1.42381
1.40001
1.84638
1.20677
1.40001
1.39872
1.05974
1.40001
1.03983
1.40001
1.8427
1.84162
1.13779
1.40001
1.8416
1.02084
1.40001
1.03439
1.40001
1.84191
1.40001
1.40001
1.83844
1.40001
1.23058
1.40001
1.39966
1.03595
1.84706
1.39949
1.40001
1.06228
1.40001
1.40001
1.40001
1.40001
1.63983
1.40001
1.84133
1.40001
1.40001
1.84981
1.40001
1.40001
1.84211
1.40001
1.03328
1.40001
1.03296
1.40002
1.40001
1.40001
1.40001
1.40001
1.82178
1.65876
1.84214
1.40001
1.84182
1.8107
1.00624
1.03881
1.40001
1.40001
1.84178
1.40001
1.03665
1.40001
1.37438
1.40001
1.40001
1.84237
1.40001
1.84031
1.05408
1.85094
1.40001
1.04127
1.40001
1.40001
1.84431
1.83976
1.40001
1.40005
1.40001
1.84569
1.40001
1.40001
1.0176
1.39945
1.04179
1.40001
1.40001
1.40001
1.84348
1.8502
1.83935
1.40001
1.40001
1.03372
1.40001
1.83895
1.40001
1.40001
1.40001
1.83344
1.84152
1.84192
1.05199
1.8453
1.84192
1.06735
1.84009
1.40005
1.07126
1.40695
1.40001
1.40001
1.84312
1.05225
1.68112
1.0497
1.84188
1.39731
1.03685
1.84323
1.40001
1.40001
1.40001
1.40001
1.84213
1.84027
1.03198
1.40001
1.40003
1.03647
1.40004
1.40001
1.00589
1.04012
1.70926
1.84152
1.39851
1.84178
1.40001
1.84893
1.2045
1.04783
1.84115
1.84881
1.40001
1.84348
1.40001
1.40001
1.84134
1.40001
1.73747
1.83986
1.40001
1.40001
1.40001
1.40001
1.84164
1.83634
1.84061
1.40001
1.40001
1.8425
1.83816
1.84222
1.40001
1.84122
1.40001
1.40001
1.40001
1.40001
1.40001
1.03189
1.23607
1.03159
1.40001
1.40001
1.84059
1.40001
1.40001
1.84239
1.04866
1.40001
1.84125
1.83689
1.82665
1.01223
1.40001
1.04212
1.40001
1.40003
1.84036
1.61522
1.83816
1.80286
1.40001
1.02495
1.40001
1.84413
1.71324
1.03104
1.40001
1.40001
1.40001
1.2058
1.40001
1.40001
1.8449
1.40001
1.0328
1.84176
1.40001
1.40001
1.40001
1.40001
1.40001
1.75705
1.49954
1.40001
1.83954
1.40001
1.84175
1.40001
1.39766
1.40001
1.84096
1.84589
1.84065
1.84633
1.3996
1.83864
1.40001
1.84218
1.84065
1.77347
1.40001
1.40001
1.0372
1.8429
1.40001
1.40001
1.84742
1.84342
1.84106
1.40001
1.84049
1.40001
1.40001
1.40004
1.84555
1.84013
1.52661
1.49782
1.84178
1.84209
1.11425
1.40001
1.40001
1.40001
1.40001
1.40001
1.55999
1.40001
1.40001
1.76521
1.03574
1.39998
1.40001
1.84219
1.39991
1.39984
1.46587
1.81731
1.84265
1.32705
1.40001
1.04968
1.40001
1.39414
1.84207
1.84431
1.845
1.39905
1.40001
1.40001
1.02212
1.40001
1.40001
1.84117
1.44693
1.40001
1.40001
1.40001
1.40001
1.40001
1.40001
1.40001
1.39995
1.8404
1.40002
1.40001
1.40001
1.40001
1.40001
1.68646
1.40001
1.61388
1.40001
1.40001
1.84209
1.84431
1.04616
1.39877
1.40001
1.4
1.40001
1.0307
1.83949
1.84091
1.40001
1.40001
1.40001
1.40001
1.40001
1.40001
1.40001
1.40001
1.84291
1.8346
1.0308
1.44919
1.03937
1.40001
1.03415
1.40001
1.84197
1.51703
1.40001
1.40001
1.09964
1.40001
1.82653
1.20746
1.39706
1.04458
1.40001
1.40001
1.83987
1.40005
1.3973
1.02046
1.84186
1.84126
1.40001
1.40001
1.40001
1.40001
1.81268
1.40001
1.40001
1.84188
1.399
1.84206
1.40007
1.40001
1.40001
1.06561
1.40001
1.40001
1.8411
1.04077
1.18101
1.02716
1.84275
1.39934
1.40001
1.8419
1.0318
1.03432
1.40967
1.40001
1.40001
1.83948
1.40004
1.59981
1.40001
1.40001
1.83915
1.03678
1.40001
1.40001
1.40015
1.84145
1.40015
1.83388
1.40001
1.40004
1.40001
1.40001
1.10301
1.40001
1.17315
1.40003
1.40001
1.84004
1.06583
1.40001
1.19834
1.17774
1.40001
1.40001
1.84067
1.40001
1.40001
1.40001
1.84185
1.84191
1.40006
1.82789
1.83882
1.19444
1.84124
1.81475
1.40001
1.40001
1.84574
1.4
1.40001
1.40001
1.40001
1.40001
1.84895
1.84154
1.40001
1.40001
1.40001
1.84064
1.40021
1.40001
1.04717