/*--------------------------------*- C++ -*----------------------------------*\
  =========                 |
  \\      /  F ield         | OpenFOAM: The Open Source CFD Toolbox
   \\    /   O peration     | Website:  https://openfoam.org
    \\  /    A nd           | Version:  12
     \\/     M anipulation  |
\*---------------------------------------------------------------------------*/
FoamFile
{
    format      ascii;
    class       surfaceScalarField;
    location    "8.93";
    object      phi;
}
// * * * * * * * * * * * * * * * * * * * * * * * * * * * * * * * * * * * * * //

dimensions      [1 0 -1 0 0 0 0];

internalField   nonuniform List<scalar> 
33852
(
0.000251329
2.24281e-05
-0.000273757
-0.000246121
1.32441e-05
0.000232877
-0.000175712
-7.24932e-05
0.000248651
0.000304053
-0.000163969
-0.000140085
0.000291379
-4.26924e-05
-0.000249164
2.72441e-05
-0.000260681
0.000233437
0.000316216
1.4857e-05
-0.000331095
0.000304277
-9.59564e-05
-0.000208321
0.000286413
-3.50841e-05
0.000194864
1.69643e-06
-0.000202613
0.000289661
-0.00036666
7.69951e-05
0.000361004
-4.59309e-05
-4.39602e-05
0.000263285
-0.000219325
-4.39166e-05
0.000318187
-0.000274367
6.15775e-05
-0.000236505
0.000252057
1.2236e-05
-0.000264293
0.000264853
-1.2796e-05
-0.000278433
3.23121e-05
0.000340896
-5.11925e-05
0.000158593
0.000112308
-0.000270901
-2.4345e-05
0.00030336
-0.000279196
0.000271377
-0.000276165
4.78802e-06
-1.7647e-05
0.000275024
-0.000257186
-0.000223855
1.38825e-05
0.000204003
-0.000154541
-0.000183738
0.000338221
-0.000142674
-6.72792e-05
0.000226392
3.72401e-05
0.000267037
-6.12507e-05
-0.000263068
0.000324498
-0.000209644
1.61358e-06
0.000208396
-0.00020902
-1.89754e-05
0.000142045
0.000137388
-0.000279433
0.000340426
1.92107e-05
0.000142618
0.000128347
-0.000270965
-0.000101136
0.000259729
-0.000250489
-3.78001e-06
0.000254269
0.000330797
-5.96704e-05
-0.000271194
-0.000357221
0.000203717
-0.000227144
0.000209625
0.000231645
3.32081e-05
-5.65602e-06
0.000237301
-8.51167e-06
0.000201456
-0.000232625
0.000259869
0.000314989
-5.71898e-05
-0.000258665
-0.000309093
5.51042e-05
0.000253989
0.000240177
-0.000301164
0.000273589
-0.000306321
3.27321e-05
-0.000180237
-5.49362e-05
0.000235173
0.000272133
-0.000272133
0.000148429
-0.000297473
0.000149045
-0.000209709
0.000217836
-7.49342e-06
-0.000268241
0.000237301
3.09401e-05
-0.000202004
0.000245401
-4.72246e-05
-9.16164e-05
-0.000217477
-0.000114545
-0.000252126
-0.000280169
0.000266113
1.40561e-05
0.000328268
1.18412e-05
-0.000250433
7.01963e-05
0.000117908
0.000145909
-0.000263817
1.34681e-05
-0.000267457
0.000253989
-0.000134569
0.000282997
-0.000153118
-5.07202e-05
0.000206093
-0.000274681
0.000245113
2.95681e-05
0.000237553
-0.000268437
3.08841e-05
-0.000186609
-2.36616e-05
0.000151665
0.000115565
-0.00026723
-0.00018527
-2.75614e-05
0.000217649
0.000263985
2.24281e-05
0.000275941
-2.35201e-06
0.000265329
-0.000250741
-1.45881e-05
0.000219312
-6.30194e-05
-0.000156682
-1.82001e-06
0.000239373
0.000366907
-0.000313119
-5.3947e-05
-2.82151e-05
0.000303592
-0.000275042
-0.000101584
0.000219493
0.000342473
2.42127e-05
-0.000372196
0.000353796
1.82903e-05
-0.000206393
2.17706e-05
0.000309456
-0.000322379
1.2347e-05
-0.000207401
0.000271079
-6.37875e-05
-4.45202e-06
1.71811e-05
-0.00031924
0.000302286
0.000234903
-0.000200405
-3.53883e-05
0.000269254
-0.000339075
6.99453e-05
0.000333067
-6.33934e-05
-0.000268941
0.000236573
3.23681e-05
-0.000129388
-0.000132609
0.000261997
-1.86761e-05
-0.000249565
-1.022e-05
-0.000258721
2.28315e-05
0.000211539
-0.000234954
3.14624e-05
-0.000217973
0.000183806
-2.49343e-05
0.000327346
-0.000302775
-0.000279329
0.000273701
5.62802e-06
0.000156129
-0.000296857
0.000140729
-6.06643e-05
-0.000156533
0.000210722
0.000143277
0.0001218
-0.000265077
-0.000250455
0.000225936
-0.000219674
0.000153655
-0.000168813
0.000327181
-0.000158369
0.000185389
7.16523e-05
-0.000257041
0.000255193
2.07481e-05
-0.000192277
0.000148317
5.01813e-05
0.000265171
0.00030729
-0.000289918
9.01629e-05
-0.000225829
0.000135241
0.000117096
-0.000281065
-9.29418e-07
0.000243489
-0.000243095
0.000166489
0.000122836
-0.000289325
0.000143091
8.95486e-05
-3.92002e-06
0.000259113
0.000303373
5.43949e-06
-0.000323976
0.000314917
9.03901e-06
-3.99002e-05
0.000236293
-0.000196393
4.08802e-06
-0.000284257
-2.47854e-05
0.000169267
-0.000138895
-0.00016096
0.000140568
0.000203917
-0.000176266
-0.000269921
0.000264965
4.95602e-06
2.64041e-05
0.000174721
-0.000201125
2.87841e-05
-0.000257265
0.000228481
0.000276137
-0.000262669
0.000115108
0.000212073
0.000215005
-0.00019277
-0.000175813
0.000202217
1.36944e-05
0.000282748
-0.00029673
0.000269336
2.1481e-05
0.000271839
-0.000284351
1.241e-05
3.86402e-06
0.000267513
-1.81881e-05
0.000289747
0.00033099
9.9019e-06
0.000213993
-0.00025787
0.000316251
-0.000316257
-6.63603e-06
-0.000272693
2.80561e-05
0.000194021
0.000187993
3.98722e-05
-0.000227865
-5.59106e-05
0.000224905
-0.000167955
0.000153609
-0.000270285
0.000116676
0.000279441
-0.000329701
5.02602e-05
-6.38122e-05
0.000249201
-0.000166909
0.000315897
-0.000148989
-0.000313943
-1.01514e-05
-0.000214929
0.000175029
2.78601e-05
-0.000278349
0.000276221
-1.88441e-05
-0.000248613
1.71527e-05
-0.000302324
0.000285191
0.000344989
-0.000158593
-0.000186397
-1.69166e-05
-0.000240736
0.000257367
-0.000266617
-3.30401e-06
0.000224001
2.45841e-05
-0.000248585
0.000284509
-0.000128381
0.000140197
0.000138853
-0.000279049
-0.000198225
-1.0816e-05
0.000258169
-0.000115551
0.000225607
-0.000242543
-6.38122e-05
0.000251805
-0.000207633
0.000249481
-5.60002e-07
-0.000248921
0.000255109
-0.000237441
-0.000324538
0.000299245
-3.08841e-05
0.000203169
-0.000172285
0.0002921
1.29912e-06
-0.000293391
8.08572e-05
0.000138295
-0.000218975
4.71831e-05
-0.000198909
-0.000289501
-4.63183e-06
0.000293932
-1.5377e-06
-0.000288005
0.000146973
-0.000273925
0.000126952
-0.000264057
0.00022078
-0.000294288
0.000266202
0.000279441
-0.000311846
-1.23451e-05
0.000325429
0.000110422
0.000160694
-2.13593e-05
0.000352033
0.000140141
0.000139833
-0.000279973
0.000245029
-0.000250349
5.32002e-06
-0.000210953
0.000180069
0.000279133
-5.43202e-06
0.000350493
-3.269e-05
-0.000302263
0.000304058
-1.68083e-06
0.000270985
-0.000270985
-0.000364523
0.000225872
0.000138671
-0.000207631
1.96792e-05
1.68204e-05
0.000275157
-0.000278461
3.30401e-06
-5.23553e-06
0.000174312
-0.000165835
-0.000197345
0.000254801
-5.74562e-05
-0.000206074
4.26449e-06
-0.000242933
0.000165472
8.66716e-05
-0.000180264
0.000261403
-8.11407e-05
0.000256285
-0.000287113
3.08281e-05
-0.000249229
5.18842e-05
-2.35213e-05
0.000275672
-0.000252184
-0.000253547
1.35801e-06
0.000252189
0.000231281
-7.28003e-06
-0.000294147
7.60848e-06
0.000286979
-0.000266085
0.000266085
-0.000284126
-5.49439e-05
-0.000170553
-0.000193986
-0.000171364
0.000218285
-4.46201e-05
-1.232e-05
-0.000239177
0.000251497
3.10801e-06
0.000210113
-0.000213221
-0.000187083
-2.28885e-05
0.000210424
7.59744e-06
0.000294515
-0.000302002
-0.000236153
-1.34401e-05
0.000249593
1.50361e-05
-0.000251189
-0.000241025
0.000256061
-0.000301448
0.000309101
0.000256117
7.16803e-06
-0.000174823
-3.27559e-05
0.00020581
-0.000145237
-0.000134765
-0.000244329
0.000240549
0.000298576
-4.17386e-07
-0.000298163
-0.000298842
5.98986e-07
0.000298235
1.91068e-05
0.000181217
0.000163773
7.70043e-05
-0.000257269
-0.000159242
0.000310908
0.000250721
-0.000108677
-0.000235145
-1.83681e-05
0.000253513
-0.000204503
-0.000126743
0.000331264
-6.10402e-06
-0.000229125
0.000235229
-2.24143e-05
-0.000185063
-0.000286577
-8.56998e-05
6.24991e-06
-0.000300204
-0.000212491
0.000328084
-0.000115185
0.000281597
0.000288205
-5.16322e-05
0.000271993
-1.57081e-05
-0.000187818
-1.43077e-05
0.00020151
0.000297677
3.43563e-07
-0.000297983
-0.00026957
-3.27145e-05
-0.000218821
0.000247605
-2.52095e-05
0.000310695
-0.000285475
0.000183843
7.87644e-06
-0.000189033
-3.49266e-05
0.000219333
-0.000301304
0.000276079
0.000292752
5.63689e-06
-0.000298362
0.000157445
0.00011886
-0.000276305
0.000288614
3.8522e-06
-0.000293698
-0.000231507
0.000110065
0.000121176
-0.000281859
0.000295704
0.000302513
-0.000156857
-0.000145657
0.000207005
-0.000203897
-0.000232009
-0.000121156
-0.000155009
-4.11803e-06
-0.00029418
0.000298336
-1.0136e-05
0.000276249
0.000291017
-2.02816e-05
-0.000270571
-0.000262881
2.91126e-05
0.000233901
0.000271433
-0.000267569
0.000249621
2.95121e-05
0.000314973
-9.70722e-06
-0.000304995
5.04258e-05
0.00016
-0.00021026
-0.000100461
0.000200349
-9.61912e-05
0.000252617
-2.91201e-05
-0.000223497
6.78169e-07
0.00029186
-0.00018076
-3.15302e-05
0.000210068
-2.34314e-06
0.000290486
-9.33244e-05
0.000246933
-0.000255417
-5.26402e-06
0.000121184
0.000181329
1.34121e-05
0.000241557
-0.000254969
0.000236097
1.34961e-05
-0.000249593
0.000249509
-0.000242929
0.000256425
6.31826e-05
-0.000201387
0.000138586
-0.000209879
0.000113736
-0.000209222
0.000297288
1.41921e-06
-0.000298667
0.000253849
2.22881e-05
0.000268493
-0.000216441
-5.20522e-05
0.000225518
-0.000246849
2.13305e-05
0.000257909
1.40841e-05
5.75848e-05
0.000295863
0.000267186
-3.89594e-05
-0.000228226
0.000174575
1.274e-05
0.000240297
-0.000253037
0.000195294
-0.000114558
-7.92669e-05
-0.000207043
2.17385e-05
-1.31085e-06
-0.000297918
0.000299117
0.000215885
-0.000164614
-5.1419e-05
0.000344288
-4.12747e-05
0.000275969
-0.000135829
2.31561e-05
0.000238337
-0.000261493
-0.000231141
0.000254297
-2.6666e-05
-0.000229724
0.000256418
0.000158585
-0.000160362
-7.36698e-05
-0.000161977
-0.000261723
4.14346e-05
0.000220288
-3.17521e-05
-0.00022997
7.30613e-06
0.000261717
-3.25193e-05
-0.000229198
1.6827e-05
0.000123093
-0.000185801
0.000308785
-0.000171397
0.000262319
-3.57923e-05
-0.000226526
-0.000319059
0.000174561
-0.000104856
-0.000228453
-6.90203e-05
-1.39983e-06
-0.0002975
0.000298347
-2.77108e-05
0.00018475
-0.000156689
0.000308223
6.91763e-06
0.000250097
-0.000248249
-1.84801e-06
-0.000175848
6.17243e-05
0.00026025
-3.07081e-05
-0.000229537
0.000197345
-0.000250769
5.34242e-05
0.000254205
-0.000231206
-2.29992e-05
-0.000252337
0.000240017
0.000141936
0.000100666
-0.000101864
-0.000170269
0.000132496
-0.000261885
-0.000290249
0.000242201
4.80483e-05
0.000216808
3.12481e-05
-0.000248056
-0.000238875
-9.34968e-06
0.000247298
0.000326929
-2.32299e-05
0.000263996
-3.42721e-05
-0.000229724
0.000145693
-0.000230007
9.33426e-05
3.63259e-05
-0.000265637
0.000229311
-0.000253905
0.000121296
0.000249817
-5.24722e-05
0.000294673
-0.000154253
-0.000140421
0.000122248
-0.000289157
1.53441e-05
0.000237665
-0.000253009
-0.000262031
3.54705e-05
0.00022656
-2.78152e-06
-3.77917e-05
-0.000224239
0.000248584
-0.000272019
-0.000264649
3.44737e-05
0.000230175
0.000193257
0.000101416
-0.000149941
0.000290137
-0.000173177
-3.86888e-05
0.000210821
-1.81721e-05
0.000263201
-0.000292882
0.000310103
0.000115853
0.000102665
0.000261325
-0.000261325
0.00030645
-1.87747e-05
-0.000289687
5.32002e-07
0.000248949
0.000254857
1.65761e-05
0.000309979
-0.000276653
-3.32603e-05
-2.26336e-05
0.000266577
-0.000243943
3.00077e-05
-0.000260519
0.000230511
-0.000252139
0.000229506
0.00032717
3.11501e-05
-0.000260598
0.000229447
0.000276809
-3.16961e-05
-7.50829e-06
-0.000291154
0.000299054
0.000271016
3.88679e-05
0.000230245
-0.000266617
3.63721e-05
0.00020046
-0.000201229
-0.000258301
0.000238533
1.97681e-05
0.000169762
-0.000257245
8.74835e-05
-0.000211677
0.000163241
-0.000249145
8.59043e-05
-0.000266169
0.000224813
4.13562e-05
0.000253073
-2.78797e-05
-0.000225194
0.000178163
4.37241e-05
-0.000234837
-2.29601e-05
0.000257797
-0.000236377
-2.28761e-05
0.000259253
-1.94265e-05
0.000255969
-0.000236542
-0.000259345
0.000239919
-3.40153e-05
0.000184926
-0.000235929
-2.24001e-05
0.000258329
-0.00025484
0.000229192
2.56481e-05
2.94001e-06
0.000211289
-0.000214229
-0.000267031
3.79849e-05
0.000229046
0.000270677
4.48002e-06
4.12118e-05
0.000153189
-0.000199819
-3.31196e-05
0.000249929
-2.10426e-05
0.000218597
9.73004e-05
0.000248199
-0.00021695
0.000277841
-0.00027944
0.000277492
-0.000282273
-1.84997e-05
0.000258601
-0.000240101
-0.000261644
0.000243145
3.03594e-05
-0.000201277
-2.94331e-05
-0.000210162
0.000235697
0.000314883
-0.000287768
-2.7519e-05
0.000261297
-3.11081e-05
-0.000230189
3.28739e-05
-0.000262362
0.000229488
-0.000229853
0.000259645
-2.97921e-05
0.000325989
-1.77263e-05
0.000140986
-0.00020468
0.000256929
-0.000109956
-0.000286462
0.000287738
0.000241977
-6.41202e-06
-0.000235565
0.000228537
-0.000175045
-3.76073e-05
0.000211884
2.85164e-05
-0.000208362
-0.000239989
0.000260317
-2.03281e-05
-0.000101924
0.000191795
-8.54642e-05
3.08936e-05
-0.00020312
0.000240169
-0.000263424
2.32552e-05
-0.000115584
0.000258861
-0.000243993
0.000265721
-2.17281e-05
-0.000238953
0.000232541
0.000258626
-0.000245105
-1.35213e-05
0.000264349
-2.46681e-05
-0.000246317
-0.000273672
-1.06379e-05
0.000297926
-5.36146e-05
-9.44329e-06
0.000290162
-0.000279852
-0.000164794
0.000200205
0.000232727
1.78238e-05
-0.00025008
0.00032877
-0.000328834
0.000260955
-0.000245018
-1.59377e-05
-0.000301805
-6.91358e-07
0.00030453
9.7661e-06
3.71943e-05
0.000170766
-0.000203715
0.000217581
-3.65062e-05
-0.000181195
0.000278054
-0.000255789
-2.22648e-05
-0.000212393
3.16404e-05
3.15421e-05
-0.000261891
0.000230348
0.000284903
-0.000292243
2.44721e-05
-0.000259617
-0.000257965
1.87881e-05
0.000266057
-1.64361e-05
0.000151173
-0.000267625
0.000116452
0.00029908
-4.41355e-06
0.000238617
-7.53763e-05
2.12521e-05
0.000177045
-0.000198297
-0.000183877
0.000205129
-0.000236275
0.000257219
-2.09441e-05
0.000261462
-3.31689e-05
-0.000228293
-0.000197009
-5.21362e-05
0.000251581
-1.48401e-06
8.58979e-06
-0.000264797
0.000255348
-0.000342409
0.000235979
0.000106321
0.000266371
-0.000236811
-2.95597e-05
0.000306866
-0.000314688
7.81738e-06
-2.57041e-05
-0.000229097
0.000254801
0.000261493
-7.64403e-06
1.00146e-05
-0.000210354
0.000262411
-3.19033e-05
-0.000230508
-6.90483e-05
-0.000260653
-0.000194685
0.000248025
-5.33402e-05
-0.000266533
0.000249985
1.65481e-05
-0.000318055
1.67158e-05
-1.71976e-05
0.000296256
-0.000279598
-0.000276221
1.65481e-05
0.000249537
-0.000165311
6.42303e-05
0.000273502
1.4859e-05
-0.000288312
-0.000316013
0.000307799
8.21875e-06
3.46641e-05
-0.000263649
0.000228985
-1.74564e-05
0.000281374
-0.000315245
1.63968e-05
-0.000176541
-7.42283e-05
-0.000235268
0.000200447
-2.16721e-05
-0.000216469
0.000238141
-0.000314975
0.000295969
1.89196e-05
-0.000132935
0.000273972
-0.000141597
-8.37702e-06
3.31521e-05
-0.000263453
0.000230301
-0.000203463
2.51577e-05
0.000181452
0.000221543
0.000282118
-0.000282134
1.76392e-07
-0.000236993
-2.20921e-05
0.000224813
-0.000202721
0.000139273
0.000143753
-0.000278517
0.000199027
-5.66489e-05
0.000308239
-1.06216e-05
0.000209376
-0.000268871
2.92853e-05
0.00022306
-0.000252345
-0.000322471
0.000138364
0.00029668
2.93063e-05
1.95143e-05
-0.000224355
-2.77845e-05
-0.000136648
-0.000132867
-0.000326403
0.00011391
0.000242873
2.56201e-05
0.000218765
-0.000224869
1.08686e-05
-0.000287686
0.000277017
-0.000243091
0.000270901
-2.71427e-05
0.000281313
-0.000281754
0.000288472
-7.70687e-05
-8.84859e-06
0.000290157
-1.87881e-05
0.000247101
-0.000228313
0.000281395
-0.000290265
-5.64937e-06
-0.000283949
0.000289616
0.000281989
-0.000269558
0.000284423
0.000226314
2.67597e-05
-0.000311364
0.000317419
-8.70607e-06
0.000252459
-2.13992e-05
0.000224651
2.36467e-05
-0.000268913
0.000246057
-2.05381e-05
-0.000259401
3.02849e-05
0.000229116
0.000178305
7.64963e-05
1.02761e-05
0.000281363
-0.00029009
-0.000238141
-2.88401e-05
0.000266981
2.51441e-05
-0.000263285
0.000284117
-0.000162317
-0.000232177
0.000261129
-2.89521e-05
-0.000234697
0.000260709
-2.60121e-05
1.53125e-06
0.000280067
2.45001e-05
-0.000259197
2.38001e-05
-0.000255977
0.000274301
-0.000242843
-3.1393e-05
0.000317757
-9.9536e-06
-0.000308164
-1.98886e-06
-0.000255753
1.1816e-05
0.000243937
-1.61331e-05
-0.000261185
0.000228065
-0.000245337
0.000270145
-2.48081e-05
-0.000263229
1.49801e-05
-2.36072e-05
0.000286125
-0.00026264
2.13641e-05
-0.000266701
-0.000241665
-2.13332e-05
3.2598e-05
-9.0432e-05
0.000260194
0.000280875
-0.000286454
5.05122e-05
0.000237693
0.00028226
-0.000281703
-0.000243181
-2.39401e-05
0.000267121
-0.000260894
7.34723e-06
-0.000295384
1.94373e-05
0.000276353
-0.000268717
2.55361e-05
-8.26106e-06
0.000290583
-0.000268326
0.000243549
2.47772e-05
-0.000232513
0.000210841
0.000279968
-0.000288406
-6.16002e-07
0.000260289
-0.000259673
-0.000301868
-1.60729e-05
-0.000264573
2.35481e-05
-0.00024417
-2.41556e-05
-3.43281e-05
-0.000298126
0.000294218
0.000286674
-0.000158327
0.000295431
-0.000289662
2.30153e-05
4.94821e-06
0.000262599
-0.000255358
-7.18452e-06
0.000307473
-2.02273e-05
-0.000287152
5.96362e-05
-0.000246765
-2.19521e-05
-0.00035628
0.000241687
0.000285858
-0.000282077
2.33801e-05
-0.000192468
-1.6288e-05
-0.000306501
2.56115e-05
0.000280777
-0.000197225
0.000310714
-0.00011391
0.000259841
-0.000238533
-2.13081e-05
-0.000291563
2.94001e-05
0.000222097
-0.000251497
-0.000168667
0.000143536
-0.000170621
0.000251441
-0.000238029
-1.34121e-05
-0.000263873
3.40201e-05
-2.23161e-05
-0.000269837
0.000251469
0.000230427
3.12901e-05
-4.6692e-05
0.000202668
0.000232619
-0.000260499
-1.73963e-05
-3.31991e-06
0.000247878
-0.000244227
-0.000293296
-0.000237049
0.000265189
-2.81401e-05
0.000230096
3.22225e-05
-0.000268521
2.55921e-05
-0.000239905
-2.86161e-05
0.000228954
-0.000260706
-0.000282543
4.73202e-05
-0.000242005
0.000294739
-0.000284221
-0.000289088
1.31823e-05
0.000274781
-4.29206e-06
0.000219676
0.000228551
-0.00026107
0.000296885
-0.0001309
-0.000165985
0.000240968
-0.000261622
0.000269631
-0.000226213
-1.76681e-05
-0.000165508
0.000307629
-0.000142728
2.49649e-05
0.000222662
-0.000247627
-0.000193617
0.0001958
-0.000283716
0.000282395
6.96426e-06
-0.000290672
-0.000302485
0.000146693
0.000155793
0.000259995
-0.000239359
-2.06361e-05
-0.000215741
0.000193649
0.0002622
4.18969e-07
0.000257293
0.000232526
2.16797e-05
-0.000295442
-6.11212e-05
1.02823e-05
0.000232514
-0.000248859
1.79096e-05
-0.000230917
-2.37161e-05
0.000254633
-0.000242295
0.000263191
-2.08965e-05
8.3098e-05
0.000134814
2.01892e-05
-0.000305872
0.000285776
0.000256565
-1.80041e-05
-0.000238561
0.000243881
-0.000254017
1.0136e-05
-0.000226745
0.000207957
0.000223131
-0.000258923
-0.000244693
4.76842e-05
1.59373e-05
-0.00013765
-0.000218676
1.57921e-05
0.000245701
0.000280382
0.000293263
0.000305945
1.737e-06
0.000249817
-0.000220417
2.51749e-05
0.000225009
-0.000250184
-0.000243178
0.000268865
-2.56873e-05
2.28201e-05
-0.000262725
-0.000110501
0.000295173
9.11176e-06
2.08181e-05
0.000261675
-0.000235103
-2.65721e-05
1.31766e-05
-0.000303954
0.000290817
0.00032177
-3.09758e-05
-0.000290785
0.000249733
1.63241e-05
0.000306296
-0.000293176
-0.000230344
-0.000112316
9.63204e-06
0.000250657
-4.9129e-05
-0.00020239
0.000251519
2.20333e-05
0.000246832
-0.000241686
-2.29629e-05
0.000260737
-2.24001e-05
0.000287897
-0.000268023
2.63369e-05
2.68241e-05
-0.000257965
0.000210617
-0.000207677
2.58161e-05
-0.000262865
0.000280894
0.000121744
-0.000256173
0.000134429
1.95068e-05
3.84271e-05
0.000163242
-0.000201418
-0.000239485
-2.85377e-05
3.98033e-05
0.000161849
-0.000201328
-0.000246691
0.000271066
-2.43747e-05
0.000209866
-0.000248826
1.98857e-05
1.73757e-05
-0.000174135
-3.04497e-05
0.0002267
-0.000257414
-2.88401e-05
0.000244245
-0.000215405
-2.16161e-05
0.000242985
-0.000221369
0.000201657
-0.000250786
-0.000273543
-0.000232905
-2.55081e-05
0.000258413
0.000241234
2.98318e-05
-0.000208951
-2.37136e-05
0.000235289
-2.18821e-05
-0.000224967
-0.000239345
6.28042e-05
0.000259004
-0.000229718
4.75106e-05
-0.000249901
-3.43393e-05
0.000257694
-0.000223354
0.000205675
-0.000240014
0.000261689
-1.1956e-05
-6.06764e-05
-0.000229572
-0.000226473
-1.70007e-05
0.000242182
0.000247109
5.3175e-05
0.000212448
-0.000265623
-0.000261094
0.000177353
-0.000231757
5.44042e-05
6.3963e-05
0.000135407
0.000259457
-0.000240915
-2.47224e-05
-0.000265385
0.000227165
3.82201e-05
-2.87813e-05
-0.000222158
0.00025094
-0.000284009
0.000264161
0.000234501
3.61761e-05
2.18821e-05
0.000234087
-0.000307217
0.000151089
0.000156129
0.000173277
-5.27841e-05
0.000254045
-0.000115192
2.56901e-05
0.000217446
-0.000243136
-0.000286393
0.000286087
9.22e-06
0.000257377
-0.000245953
0.000208937
3.70161e-05
0.000254832
0.000243011
-1.99947e-05
-0.000246815
-2.02161e-05
-0.000263019
2.0724e-05
-0.000269215
2.24001e-05
2.79601e-05
0.000220024
-0.000247984
0.000242481
-0.000274597
1.32721e-05
0.000248115
-1.36818e-05
1.27715e-05
-0.000251835
-0.000328588
0.000123955
-0.000233135
-2.62109e-05
-0.000252113
0.000252113
0.000259782
-0.000144217
-1.85837e-05
-0.000277745
0.000296719
0.000276037
0.000258749
-0.000135913
0.000224113
2.39205e-05
0.00023468
7.82189e-05
-0.000341042
3.79116e-05
0.000258962
1.76364e-05
-0.000248843
-3.00917e-05
0.000207453
-3.01001e-05
0.000259701
2.95429e-05
0.000218353
-0.000247896
-3.05014e-05
-4.09782e-05
-0.000217818
0.000258797
-0.000233423
-2.14173e-05
3.71324e-05
-0.000198537
0.000161419
-3.30877e-05
0.000221671
-0.000255943
-0.00028192
-8.47108e-06
0.000290439
-0.000199679
0.000166165
0.000166349
8.16763e-05
1.27243e-05
-0.000294746
0.000235075
2.59446e-05
-0.000261019
-0.000197131
-1.2233e-06
0.000232743
-0.000264287
3.15449e-05
-8.42803e-06
-0.000217029
0.000225457
-0.000161741
0.000199255
-0.000249985
-3.46025e-05
0.000256274
0.000218076
-0.000252679
-0.000246289
0.000272245
-2.59561e-05
0.000253547
2.78321e-05
-0.000232062
-2.95821e-05
-0.000298339
0.000316551
-1.82035e-05
2.34159e-05
0.000212462
-0.000250254
-0.000267233
2.09441e-05
-2.12801e-05
-0.000245953
-3.61481e-05
0.00024861
-0.000290039
-1.37488e-05
0.00022082
-0.000256968
0.00024782
-0.000249853
1.97704e-06
2.80002e-06
0.000181413
-0.000184213
0.000255294
0.000234529
2.67681e-05
-2.62361e-05
0.000245001
-0.000218765
3.36001e-05
0.000216609
-0.000250209
0.000244861
2.73841e-05
0.000306545
-0.000143949
-0.000162597
1.58028e-05
0.000239883
-0.000253939
0.000271013
-0.000113568
0.000225569
-0.000256677
-0.000241123
0.00010476
-0.000265469
7.16803e-06
-0.000241635
-2.75801e-05
-0.000241361
-2.48081e-05
0.0003109
-2.74337e-05
-7.67483e-05
0.000243097
-1.1452e-05
-0.000215601
0.000224281
-8.68003e-06
0.000255193
-7.68883e-05
3.42941e-05
-0.000197938
0.000162832
-0.000265245
-1.40001e-07
-4.14962e-05
3.94443e-05
0.00016029
-0.000195573
0.000198987
-0.000164936
0.000257041
-7.05603e-06
0.000251151
-0.000218277
-1.8274e-05
-2.1128e-05
0.000271525
-9.50374e-05
-0.000183804
-1.42801e-05
-0.000191913
0.000206193
0.000258665
-1.53553e-05
-0.00024331
1.98101e-05
0.000238855
-0.000279628
-8.00718e-06
3.68162e-05
-0.00019323
0.000154356
1.36921e-05
0.000247997
-0.000158411
0.000193548
-1.95189e-05
0.000248711
3.42024e-05
0.000184385
-0.000219829
-4.17202e-06
-2.49389e-05
0.000265108
-0.000231955
-3.14693e-05
0.000296945
-0.000281602
-1.54953e-05
1.63717e-05
-0.000237659
0.000221288
-0.00010514
0.000226885
1.92773e-05
-0.000305124
0.000285808
2.52001e-05
-2.79441e-05
2.69165e-05
0.000308791
-0.000289519
0.000238891
1.97345e-05
2.15601e-06
0.000231617
-0.000233773
-0.000310388
2.56083e-05
0.000284667
-0.000162177
-0.000144145
0.000209178
-0.000250156
-0.000160667
0.000241924
1.90317e-05
0.000257187
-4.13534e-05
0.000250531
0.000214498
-0.000255851
0.000318588
-0.000318907
-1.07725e-05
0.000287715
-0.000276634
-0.000303149
1.96445e-05
0.000283495
4.20842e-05
-0.000286413
-3.9139e-05
0.000252483
2.62921e-05
-2.20967e-05
0.000307403
-0.000285217
2.43321e-05
3.94532e-05
0.000160045
-0.000200258
0.000249294
-0.000219751
2.83277e-05
-0.000261633
4.36802e-06
-1.99726e-05
0.000306665
-0.00028665
-0.000250987
-0.000266673
3.07441e-05
0.000252141
-0.000236741
-1.54001e-05
1.2264e-05
0.000239877
-0.000276258
-1.31107e-05
0.000255697
-7.01039e-06
0.000313715
-1.18075e-05
0.000298838
-0.000287198
-4.72823e-05
0.000247437
-0.000235621
0.000257601
-1.99361e-05
0.000131848
8.94905e-05
-0.000211015
0.000236677
3.03493e-05
0.000226759
-0.000258662
3.71393e-05
0.000272141
-0.000289212
1.68404e-05
0.000251273
-0.000239093
-1.31321e-05
0.000252225
-2.91201e-05
-0.000257265
2.56481e-05
0.000231617
-0.000228005
-2.92601e-05
0.000259765
-0.000233571
-2.61941e-05
0.000258721
-0.000267808
2.53506e-06
0.000289563
1.26366e-06
-0.000290408
0.000247005
-0.000231012
-1.85921e-05
0.000308672
-0.000300694
-7.98923e-06
0.000246221
-9.87595e-05
-0.000266897
2.56761e-05
0.000241221
-3.48881e-05
-0.000232009
-0.000266393
2.51161e-05
0.000241277
-1.21621e-05
-0.000266921
0.000279643
-3.45241e-05
-0.000231869
-0.000261687
1.91784e-05
-0.000266281
2.43881e-05
0.000241893
-0.000284095
-2.15951e-05
-0.00030631
2.76361e-05
0.000278669
-3.34041e-05
-0.000232877
-0.00017258
-0.000258133
2.94001e-05
0.000228733
0.000307889
-0.000307814
-0.000195805
0.000209049
-3.29281e-05
-0.000225205
0.00019752
-0.000279284
8.17149e-05
0.000283833
2.23652e-05
-0.000301953
1.76961e-05
0.000285788
-0.000281081
-4.76324e-06
-0.000257125
0.000231617
2.55081e-05
0.000172048
2.84067e-05
-0.000200106
-0.000266953
2.81681e-05
0.000238785
-0.000227361
-2.97641e-05
-3.67361e-05
-0.000230217
0.000276978
0.000297434
1.91137e-05
-0.000276101
-3.18685e-05
0.000308013
-0.000258679
-1.10318e-05
0.00029767
-0.000287047
1.50175e-05
-0.000301831
0.000286838
-0.000230609
-0.000307357
0.000287407
0.000263005
-2.5556e-05
-0.00028075
1.36081e-05
0.000164832
0.000228403
1.86594e-05
-0.000249669
-0.000203232
0.000164332
0.000236738
1.31517e-05
-0.00024989
-0.00025833
2.66093e-05
0.000231721
-1.09228e-05
0.000247661
5.74002e-06
0.000246877
-3.19817e-05
-0.000226348
0.000299205
-0.000285447
-1.37725e-05
0.000228024
-0.000226666
0.000289597
0.000237685
1.98521e-05
-0.000257537
-1.24236e-05
0.000250108
0.000246636
1.50389e-05
-0.000305448
1.53918e-05
0.00024448
2.18905e-05
3.16309e-05
-0.000198537
-0.000287412
-1.77572e-05
-0.000182869
0.000295177
-0.00015594
0.000189066
-3.39471e-05
3.16743e-05
-0.000201316
0.000166832
-0.000167782
0.000259149
-0.000239236
-1.99137e-05
0.000262494
-0.000274046
-0.000240831
0.000231669
-2.18501e-05
0.000301093
-0.000279229
0.000307942
-0.000292923
0.000242117
1.77241e-05
-0.000224975
0.00024443
-1.94545e-05
1.61001e-05
-0.000241075
-7.00003e-06
0.000260989
-0.000297135
4.88323e-06
0.000292279
-0.000174497
0.000160217
-1.74105e-05
-6.26844e-06
-0.000290848
-1.6796e-05
-0.000285014
4.28402e-06
-0.000298943
0.000135678
-0.000257465
2.37515e-05
0.00023371
0.000238197
1.32441e-05
-3.08071e-05
-0.000226658
-3.31124e-05
-0.00029197
2.02279e-05
-0.000229977
0.000208441
0.000254969
-0.000233465
-2.15041e-05
-0.00019996
0.000219407
-0.000184571
-7.34225e-06
0.000206354
0.000133226
0.000132423
3.98164e-06
0.000271293
0.000280007
-0.000305543
2.96932e-06
0.000244311
-1.98183e-05
0.000298668
-0.000278893
-0.000302156
0.000287418
1.47841e-05
-0.000258301
0.000230077
2.82241e-05
-2.64041e-05
-0.000231897
0.000302208
-0.000302103
0.000267405
-2.00468e-05
0.000304412
-0.000284467
0.000286161
-6.51574e-07
-0.000256873
0.000256873
-0.000268192
0.000295857
-0.00014372
-6.58251e-05
-6.73025e-06
0.000295395
-0.00028833
-0.000297479
0.000290564
0.000291985
-0.000279141
0.000290591
-0.000305458
1.46929e-05
3.52434e-05
-0.000237911
0.000216584
2.23732e-05
-1.45559e-05
-0.00024789
0.000230398
-1.44829e-05
0.000298075
-0.000283773
0.000263481
-1.96001e-05
0.000254224
-0.000235464
-1.87601e-05
-3.09843e-05
-0.000273679
0.000304733
1.4459e-05
-0.000297327
0.000282985
-1.45881e-05
0.000233465
-0.000218877
0.000213273
-0.0002954
0.000283242
-1.92184e-05
0.000304566
-0.000285346
0.00025102
-2.69081e-05
0.000297386
-0.000270447
-0.00029572
0.000268851
1.07156e-05
0.000244749
-0.000255465
0.000305213
-0.000311978
6.82044e-06
1.81254e-05
1.50518e-05
0.00028631
-0.000301318
6.29792e-06
0.000283709
2.37315e-06
-0.000318616
-0.000290149
0.000304598
-0.000242481
0.000243657
8.45603e-06
-0.0002264
0.000242772
-0.000293352
0.000274117
0.000284939
-0.000142128
-8.08129e-05
0.000294322
1.44765e-05
3.20318e-05
-0.000201072
0.000170493
-0.000274581
0.000257293
-0.000219535
0.00024982
0.000243411
1.92865e-05
-0.000262697
0.000236019
2.31309e-05
-0.000301492
0.000283083
0.000312272
-1.79361e-05
0.000237945
-0.000257069
1.91241e-05
-0.000222494
0.000247459
0.000294268
1.8027e-05
-0.000170067
-1.4552e-05
0.000298133
-0.000283599
-0.000141362
-0.000266415
0.000159993
0.000106423
-0.000309067
0.000295346
1.36648e-05
-0.000258699
0.000241826
1.68729e-05
-0.000154611
0.000152569
-0.000306451
0.000288625
1.78465e-05
-0.000213261
0.000173664
-9.69084e-06
0.000253101
2.05059e-05
1.75672e-05
-0.000304322
0.000286723
-0.000300746
-7.21239e-06
0.000307877
-0.000249229
0.000220109
-0.000201153
-8.52603e-05
-0.000273295
0.000251825
0.000303981
-0.000286423
-0.000190771
1.79098e-05
1.50698e-05
0.000284497
-0.000299569
-8.80603e-05
0.000239233
-0.000303754
1.93954e-05
0.000284439
-0.00021123
-2.89511e-06
-0.000297948
-0.000167144
2.05297e-05
0.000302853
-0.000288397
-1.44145e-05
-0.000175213
-0.000299117
-0.000175194
-2.29508e-05
0.000243528
0.000289548
1.71476e-05
0.000252869
5.76202e-05
-0.000284828
-0.000247213
-0.000271102
-2.34578e-05
-0.000274682
0.000300311
-0.000262839
0.000282306
-0.000162543
-4.14593e-05
0.000205637
0.000197569
1.56521e-05
-0.000213221
-1.25434e-05
-0.000285751
0.000298304
1.83597e-05
1.84371e-05
-0.000305516
0.000286784
0.000253345
-1.71361e-05
-0.000236209
1.89359e-05
-0.000304796
0.000285893
2.03561e-05
0.000232989
0.000216385
-2.46121e-05
-0.000191773
1.58336e-05
0.000282446
-0.000298301
-0.000250935
0.000117503
-0.000303801
1.86638e-05
0.000285124
0.000222203
-5.19162e-05
-0.000296858
1.58308e-05
0.000280816
0.000255837
-2.19801e-05
-0.000233857
-0.000302931
0.000106425
0.000234529
1.70521e-05
-0.000251581
0.000279941
1.68197e-05
0.000304182
-0.000285228
1.77233e-05
-0.000299597
0.000233512
1.84916e-05
-0.000252004
-1.90636e-05
-1.42298e-05
0.00029804
-0.000284067
-0.00028045
0.000299979
-0.000278287
0.000292394
-0.000304593
1.23085e-05
0.000249741
-1.62291e-05
1.16728e-05
0.000250041
-1.55121e-05
0.000298567
-0.000282781
3.95922e-05