/*--------------------------------*- C++ -*----------------------------------*\
  =========                 |
  \\      /  F ield         | OpenFOAM: The Open Source CFD Toolbox
   \\    /   O peration     | Website:  https://openfoam.org
    \\  /    A nd           | Version:  12
     \\/     M anipulation  |
\*---------------------------------------------------------------------------*/
FoamFile
{
    format      ascii;
    class       volScalarField;
    location    "4.79";
    object      p;
}
// * * * * * * * * * * * * * * * * * * * * * * * * * * * * * * * * * * * * * //

dimensions      [1 -1 -2 0 0 0 0];

internalField   nonuniform List<scalar> 
22702
(
1
1
0.857547
1
1.06045
1
1.47031
1
1
0.656983
1.47163
1.47443
1
1.47217
0.88219
1
1
1
1.47111
1
1.47214
1
1.47312
0.646475
1.47081
0.706856
1
1.47132
0.656437
0.647112
1
1.47664
1
1
1
1.43737
1.46761
1.4736
1
1
0.686413
1
1.21736
1
1.47036
1
1
1
1
0.648081
1
0.644386
1
1.47176
1
1.47672
1
1
1
1
0.706348
1
1
0.657924
1
0.641875
1
1
1
0.664164
1
1.47156
1.27169
1
1.47114
1.49174
0.640078
1.47271
0.65307
1
1.47104
0.660689
1.47108
1.47032
1
1
1
1
0.921691
0.655431
1.47654
1
1
0.640501
1
1.47248
0.638888
1
1
1
1
1.21441
1.4711
0.699772
1
1
1.11567
1
0.657395
1
1.47326
1.47203
1
1
0.675197
0.684567
0.653518
1
1
1
1
1
0.905415
1
1.39812
1.05121
1.47231
1
1.47297
1.47071
1.47077
1.47192
1
0.682296
1
0.647822
1
1
1
1
1.47165
1
1
1
1
1.47109
1
1.02698
1
1
1
1
0.649161
1
1.0102
1
0.655739
1
1
1
1.47494
1
1.47067
0.642432
0.697421
1.46911
1.47106
1
1.08136
1.25467
1
1.46727
0.651923
1.43852
1
1
1
1
1.47164
1.3706
1
1.47118
0.659882
1.47172
1
0.669326
1
0.644141
0.697202
0.999785
1
1
1.47236
1
1
1.46989
1
1.47203
1.47167
0.661077
1
1
0.66326
1.47054
1
1
1
1.47075
1
0.658289
1
1
1.47188
1.47208
1.47235
1
1.00004
1
1
1
1.47278
1
0.656105
1.48257
1.47055
1.47045
1
1
1
0.645413
1.47308
1.23609
1
1.47228
0.655395
0.657581
1.47269
1.47079
1
1.47123
0.627751
1.41255
1
1
1
1
1.47195
1
1.27525
1.03986
1
1
1.47096
0.631719
0.768006
1
1.46845
0.674004
1.47564
1
1
1
1
1
1
1
0.650395
0.768039
0.654955
1.47113
1
1
1
1
1.41972
1
0.650984
1
0.63898
0.660761
1.46972
0.647127
1.47219
1
1
1
0.997598
0.667657
0.626267
1
1
0.636775
1
1.47137
0.691813
1
1
1.47145
0.628322
1
1.47143
0.684685
1.47156
1
0.646334
0.997689
1
1
1
0.656371
1
1
1
1.00002
1.00569
1.28123
1
0.672115
1
1
1
1
1
1
1
1.47199
1
1.47241
1
1
1
0.662665
1
1.47202
0.650727
1
1.37393
1
1
1.4704
1
1
1
1.46589
1
1
1.46657
1.47218
1
1.09831
1
1
0.64468
1
1
1
0.633342
1
1
1
1
0.68391
1
1
1
1
1
0.627998
1.00006
1.47133
1
1
1.47115
1.4683
1
1
0.664877
0.823624
1.47152
1
1
1
1.47149
0.668489
1
1.47042
1
1
0.715789
0.696718
1
0.672091
0.665141
1
1
1
1
1
1
1
1.47121
1.10409
1.45662
0.624572
0.90438
1.46984
1
1.46983
1.47275
0.649585
0.781994
1
0.657561
1
1.48386
1
1
1
1
1.47061
1
1
1
1
1
1
1
1.17071
1.47484
1
1.47145
1
1
0.662455
1
1
1
1
1.47098
1.35654
1
1
0.671558
1.47091
1.47149
1
1.4719
1.46991
1.47203
1
0.843668
1
1.47116
0.990625
1.47203
1
0.65132
0.99883
1.46857
1
1
1
1
0.655286
1.4718
1.42838
1
1.47477
1.47154
1.47106
1
1.2127
1.47065
1
1
1.32125
1.06938
1.47138
0.928951
1.47132
1
1.47157
1.47176
1.47178
1.47152
1
1.46928
0.898445
0.87257
1
0.999999
1
1
1.47126
1
1
1
1
1
1.47159
1
1
0.996313
1.47138
1.40717
1
1.37801
1.00004
1
1
1.47274
1
0.997562
1.00493
1
1.4725
1
1.47331
1
1
1.34812
1
1.47368
1.00002
1
1.46864
1
1.47085
1
1
1
1.47095
1
1.47772
1.00001
1.47136
1.46767
1.47099
1.47095
1
1.47197
1.4623
1
0.652452
1.43966
1.33747
1
1.47058
1
0.637136
0.686888
1
1
1
1
1
0.633602
1
1.47122
1.11054
1.47261
1
1
1
1
1
1.47152
1
1.47211
1.27786
0.793495
1
1.00001
1.13594
1.11487
1
1
1.15075
1
0.659454
1.47054
1.47153
1
1
1
1.46896
1
1.00003
1.46779
1.47166
0.955099
1
1
0.651463
1.42642
1
1
1
1
1
1.47136
1.47097
1
1.46917
1.47711
1.47107
1
1
1
1
0.695726
1.47314
1
1
1.4295
1.4697
1
1.44556
1.47478
1
1
1
1
1
1.47246
1
1
1
1
1.47115
1
1.47206
0.646781
1
0.65475
1
1
1
0.996809
0.645997
0.998965
1
1
1
1.06687
1
1
0.874634
1
1
1
1
1
1
1
0.999997
0.924374
0.999999
1
0.997665
1
0.655445
1
1
1
1
1.34819
1
1
1
1
0.665718
1
1
1.44245
1.47247
1
1
1
0.885113
1
1
1
1
1
1
0.954511
1.00376
1.47178
1
1
1
1.4696
0.893781
1
1
1
1.47495
1.46483
1
1.00001
1
1
1
1
1
1
1
0.662254
1
1
1.47204
0.656604
1
1.47013
1
0.654407
1
1
0.660747
1
1
1
1
1
1
1
1.46071
1.46912
1
1
1
1
1.43166
1
1.1425
0.667646
1
1
1
1
1
1
1
1.03726
1
1
1.23886
1
1
1
1.38538
1
1
1
1
0.66226
1
1
0.651845
0.660936
1
1
1.47125
1
0.971496
1
1
1
1.32541
0.651369
1
0.640697
1
0.784696
1
1
1
1.47109
1
1
1.47171
1
1
1
1.47156
1
1
1.47169
1
1
0.652075
1
1.13885
1
1
1.47061
1.47002
1.3062
1.4164
1
0.649081
1
1
1.44895
1
0.657967
1
1
1
1.47291
1
1
1
1
1.28012
1
1.42903
1.47675
0.63624
1
1
0.704785
0.710333
1
1
1
1.33206
1.35402
1
1
1
1
1
1
1
1.19532
1.46887
1.01078
1
1.46581
0.690867
1
1
1
1.25332
1
1.08826
1
1.42863
1.46486
1
0.652897
1
1.47408
1
1
1.4721
1.43992
1
1.47402
1
0.627106
1
1
1
1.46795
1.46106
1.41141
1
1.47541
1.47136
1
1.47327
1
1.47275
1
0.676436
0.976845
0.658
1
1
1
1
1
1.47099
1
1.47069
1
1
1
1.44951
1
0.646058
1.47171
1
0.68011
0.668798
0.648031
1
1.21798
1.03275
1.47946
1.47156
1
0.999999
1
1
1.47124
1
1
1.4713
1.47129
1
1.15293
0.99984
1
0.996838
1.47415
0.838253
1
0.820673
0.664615
0.656575
0.93418
1.47264
1.46816
1.08659
1.46962
1.47096
1
1
1.4689
1.47237
1.47123
1.47283
1
1.46598
0.657527
1.4704
1.47444
1.46962
1.47668
0.871067
0.892973
0.921804
1.47161
0.956751
1.47222
1
1
1.47573
1.4699
1
0.657475
1.47226
1.47107
1
1.47035
1.47158
1
1.4711
0.672441
1.47365
1.46872
1.47145
1.4796
1
1
1
1.47117
1.29867
0.667215
1.47144
0.650721
1.47127
1
1
1
1
1.47144
1.47205
1
1
1.47215
0.659142
1.47242
0.656318
1
1.46822
1
0.659216
1.47331
0.746098
1
1.47161
1.4737
1.47183
1
1
1.22499
1.4735
0.656312
1.47083
1
1.46945
0.875717
1.46854
0.665363
1
1.47075
0.673323
1.47654
0.66275
1
1.47286
1
1.47383
1
1.26268
1.45244
1.36637
0.648163
1
1.47213
1
1.4684
1
1.47148
1
1
1.47294
0.987859
1.47472
0.630529
1.42112
1
1.32849
1
1.47338
1.47138
1.47116
1
1.41824
1.47381
1.43063
1.2824
1.46237
1
1.30483
1
1.47425
1
1.06124
1
1.43449
1
1.46741
1.44789
1.44844
1
1.47945
0.696802
1
0.646624
1
1
1
1.47448
1
1.47159
1
1
1
1.47326
1.47639
1.40316
1.47566
1.47143
0.653143
1.47569
1.47167
1
1.42309
1.47221
1.47259
1
1.46873
1.47684
1
1.47432
1.47023
1.47048
1.47363
1
1
1
1.47535
0.66435
1
1.47137
1
1
0.691668
1
1
1.47077
1.47104
1
1.47135
1.48262
1.47128
0.979267
1.47224
1
1.47226
1.47117
1.37504
1
1
1
1.4743
1.47034
1.47107
0.944531
1
1.48254
1.47135
1.47266
1
1.4721
1.47393
1.471
1.47917
1
1.47094
1.46959
1.40703
1.4714
1.47661
1
1.47214
1.46541
1.47115
1.47398
1.47292
0.67842
1.4724
1.46986
1
1.47079
1.47066
1.47053
1.4711
1
1.47145
1.4714
1
1.47136
1.39045
1
1
1
1.47062
1.47936
1
1
1.25283
1
1.47213
1
1
1.47087
1.47313
1.47252
1.47109
1
1
1
1.33359
1
1.4659
1
1
1.47151
1.46828
1
1.47211
0.649887
1.4711
1.47227
0.725157
1
0.662087
1.41079
1.47698
1.47836
1.47838
0.635891
1.47392
1.47306
0.641196
0.654315
1
1.46613
1.47289
1
1
1.47162
1
1.47701
1
1.41022
1
1.20591
1.47266
1.47371
1.33482
1.41936
1.47453
1.47553
1.42233
1
0.698798
1.47868
1.47111
1.47908
1.00001
1
1
1.48047
1
1.47041
1.47383
0.74767
1
1.47159
0.999942
1
1.00003
1.00004
1.47153
1.46738
0.998485
1
1
1.47087
1.47368
1.47371
1.46915
1.47498
0.690769
1.42274
1
1.46613
1.47211
1.47151
1.46287
1
1.47121
1.46115
1.47353
1
1.47102
1.47027
0.867388
1.47108
1.47145
1
1.47127
0.843457
1.47097
0.866374
1.4712
1
1.47117
1.47987
1.47103
1.47174
1.4716
1.46613
1.47248
1.46982
1
0.925908
1.47175
1.47083
0.845987
1.472
0.977859
1.28724
1.47121
1.47058
1.46855
1
1.4745
1.30218
1.47019
0.923601
1.47452
1.47327
1
0.870279
1
1.45045
1
1.31708
1
1.4419
0.876324
1
1.48293
1.46791
1
1.47604
1.48007
1.467
1.47178
1.48133
1
1.47046
1
1
1
0.896098
1.47094
1.47104
1.47233
1.47221
1.47747
1.47269
1.45918
1.47155
0.896356
1.03345
1
1
1.47904
1.47131
1.47211
1.47225
1.00003
1.23797
1
1.47442
1.41841
1
1
0.738085
1.47094
1
1
0.676377
1.47096
1
1.46888
1.47163
1.47476
1.45011
1.4715
1
0.669487
1.1111
1.47143
1.47137
1
1.47065
1.47073
1.2439
1.01029
1.10475
1
1.47496
1.4724
1
1
0.632874
1
1
1.47186
1.47185
1.47324
1.474
1.47403
1.47114
1.46882
1.47417
1.4716
1
0.995917
1.47292
1.47482
0.996688
1.47173
1.47043
0.659422
0.643164
1.47055
1.47659
1
1
1.00164
1.47154
1.47453
1.47132
1
1.47164
1
0.853291
1.47954
1.4797
1
1.214
1.47073
1
1.46997
1
1.4709
1.30377
1.47463
1
1.47017
1.4759
0.638528
1.47169
1
1.46989
1.46987
1
0.664836
1.47514
1.36932
0.997774
1.44972
1.4706
1
0.996072
1.4766
0.997964
1.47008
1
1
1.47392
1
1.47359
1.4711
0.996538
1.36826
1
1.47046
1
1
1
1
1.47196
1
1
1.47057
1
1.47092
1
1.30797
1.46773
1.47043
1
1
1.00012
1
1.46997
1.47147
1.47059
1.47118
1.47073
1.46977
1.47056
1
1.47105
1.46651
1
1.47058
1.471
1
1.47338
0.922417
1.05805
1.47137
1.47153
1.47035
1
1.47146
1
1.47236
1.47136
1
1.4666
1
1
1
1
1.47094
0.664066
0.997904
1
1.47161
1.46909
1
1.47151
1
1.00483
0.657769
1.47149
0.999587
1
1.47853
0.998301
1.46775
1
0.99975
1
1.47616
1.46927
1.47728
1.4739
0.642997
1.47207
1.46984
1.47225
1.11446
1
1
1.19539
1.47407
0.659545
0.639272
1
1.4723
1.47126
1.47785
1
1
1.47454
1.46882
0.999881
1
1.32127
0.646696
1
1.07892
1.46873
1.4718
0.998228
1.47081
1.48368
1
0.998637
1
1.473
1.47377
1.18432
1
1.46101
1
1.00176
1.47195
0.684608
1.47414
1.47116
0.996925
0.999913
1.40142
1
0.9997
1
1.4721
1
1.00001
0.659245
1.47021
1.00001
1
1
1
1.46689
1.26203
1
1
0.659101
1.47265
1.25684
1
1
1
1.45106
1.45817
1.47178
1
1
1.47261
1
1.47243
1.47058
1
1
1.4696
1.47039
1.44837
1
1
1.46612
1.47237
1
1
1
1.47167
1
1
1
1.47219
1.47932
1.47429
1
1.46871
1.00003
0.702599
1.47399
1.47256
1
1.47225
1.44857
1.47371
1
1
1.47335
1
1.25969
1.46737
1
0.639537
1
1.48117
1
1
1.46892
1
1
1
1.14938
1.46768
0.681438
1.00001
1.47617
1
1
1.47177
1
1.47356
1
1
1.47179
1.47216
1
1.00005
1
1
1
1
1
1
1.47356
1.4703
1
1.46993
0.664003
1.48013
1
1.47094
1.46935
1.47206
1.46748
1.47539
1
1
1.4714
1
1.28622
1.47581
1.47115
1
1.47579
1.46451
1
1.43001
1
1.47094
1.29665
1.47
0.997538
1.44054
1.43324
1.47342
1.47266
1.03835
1.4721
1.47493
1
1.47148
1
1.4715
1
1
1
1
0.996126
1.47094
1.4707
1.39087
1
1.47337
1
1
1
0.649574
1
1.4613
1
1.41812
1.45465
1
1
1
1.43888
1.4714
1
1
1.47312
0.647589
1.07909
1
1.47402
1.47156
1.42481
1.4611
1.47047
1
1.47151
1
1
1
1
1.47076
1.47189
1
1.46127
1.04754
1.46957
1.43521
1
1
1.43332
1
1
0.652992
1.32
1
1
1.4654
1
1.47547
1.42906
1
1.42571
0.65264
1.47311
1.46937
1.47418
1
0.655653
1
1
1
1.4718
1.38356
1
1.48004
1.47094
1
1.47201
1
1
1
1
1.47073
0.999301
1
1.47923
1
1
1.47051
1.47119
1
1.46962
1.08484
1.00002
1
1.47049
1
1.47098
1
1.01554
1.47142
1
1.47178
1
1
1.13708
1.46749
1
1
1
1
1
0.996638
0.657286
0.675722
1.01973
1
1.02407
1
1.0252
1
1.47168
1
1.29044
1
1.47337
1
1
1
1.47345
1
1.37288
1.47036
1
1.24525
1.47266
1
1
1.47379
1.46914
1
1
1.04377
0.641795
1
1.47332
1
1
1
1
1.07825
1.47039
1
1
1
0.650048
1
1.47262
1.47049
1.48401
1
1
1
1
1.23447
1.47786
1
1
1
1.47098
1.47285
1.04386
1
1
1
1.47289
1.47162
1
0.644674
1.47048
1.47071
1.47226
1.46733
1.47613
1
1
1.47008
1.47017
1.47156
0.654587
1.04114
1.46972
1
1
1
1
1
1.47078
0.640488
1
1
1.47204
1.21236
1
1.46961
1
1
1
0.660822
1
1
1.12098
1.4707
1.4663
1
1.47475
1.47806
1
1.0766
1
1.46799
1
1.47174
0.644872
1
1
1
1
1.47262
1.00007
1
1
1
1.45077
1
1
1
1
1.47122
0.660139
1.3635
1.47425
1
1.46784
1
1
1
0.997113
1
1.47009
1
0.808393
1
1
1.00003
1.46617
0.658319
1
1.46835
1
1.46985
1.47059
0.649652
1
1
1.44721
1
1
0.630016
1
1.4673
1
1.44845
0.999293
1.47234
1
1
1
1
1.4665
1
1
1.47112
1
1
1
1
1
1
1
1
1.30317
1
1.14931
1.47129
1
1
1
0.661095
1
1
1
1
1.48064
1.47123
1.04742
1
1
1.47711
1
1
1.46735
1
1.00002
1
1
1
1.00001
1.46968
0.78611
1.47273
1.4798
0.996951
1
1
1
1.27014
1
1
1.47172
1.47399
1
1
1
1
0.660502
1
1
1
1.28936
1
1.47145
1.47512
1
1.47491
1
1
1
1.24849
1
1.47197
1
1.4699
1
1
0.996434
1.4727
1
1
1
1
1
1.4751
1.00002
1
0.655338
1.474
0.635521
1
1.47412
1
0.996134
1
1.47281
1.46792
1
1.47608
0.898264
1.46932
1.4717
1.00003
1
1
0.668252
1
1
1
1.47129
1.26433
1.4858
1
1
1
1
0.996986
1.47367
1
0.654323
1
1
1
1
1
1
1
1.47376
1.47405
1.47335
1
1
0.996927
1
0.978645
1
1
1
0.667927
0.977082
1
0.668127
0.661163
1
1.47417
1.47223
1
1.47497
1.47271
0.664196
1.31575
1
1
1
0.655605
1.47033
1
0.667155
1
1.47196
1.08485
1
1
1
1
1.47147
1.47047
1
1
1.47246
1
1
1.46799
1.47254
1
1.42798
1.46702
1.47165
0.957698
1.47165
1.00833
0.660174
1.3588
1.46583
1
1
1
0.677372
1
0.65949
1.46867
0.958203
1.47126
0.950981
1
1.46932
1.20437
1
1
1.47156
1
1.18681
1.47128
1
1
1.46375
1.47823
0.664381
1.28028
0.999894
1
1.28169
1
1.47235
0.94539
1.48257
1.46345
1
1
1
1
1.47465
1
1
1.47416
0.999641
1.46744
1.38975
1.46779
0.663811
1
1
1
1
1.47071
1.00004
1.47117
1
1.47153
1.47259
1.05752
1.47713
1.13655
1.47317
1
1.32265
0.703092
1.46649
1.47177
1.36215
1.08007
1.47141
1.4694
1.47122
1.47302
1
0.92483
1.06627
1
1.47221
1.22012
1.46829
1.00003
1
1
0.673107
1.47359
1.47228
1.37927
1
1.17748
1
1.48344
1.47421
1
1.4725
1.47173
1
1
1
1.47336
1
1.17836
1.48385
1.32247
1
1.47127
1
1
1
1
1
1
1
1
1
1
0.658794
1
1.44337
0.684219
1.26956
0.998557
1.4784
1
1.24349
1.00001
1.30881
1.39673
1
1.00083
1.46527
0.908788
1
1.47533
1.45727
0.937805
1
1.47246
1.46715
1.47444
1
1.4722
1.46913
1.46653
1
1.21629
1
1.00006
1.46938
1
1.47192
1.06857
1.47273
1
1
1.47579
1.4828
0.681202
1
1.47695
1.35197
1.47263
1
1
1.47212
1.47317
0.998257
1
1.4316
0.996928
1.47312
1.00006
1
1
1
1
1.21259
1
1.36
1.46975
1.35091
1.47262
1
1.00408
1
1
1.46924
1
1.47249
1
1
1
1
0.999999
1
1.05267
1.23868
1
1
0.683811
1
1.46803
0.671864
1.46892
1
1.22667
0.999752
1.47038
1.29806
0.675959
1.25225
1.00003
1.47164
1.47475
1
1.28198
1.46962
1.47334
0.998389
1.48096
1.45937
0.679086
1
1
0.997321
1
1.46848
1
0.671847
1.46949
1
1
1.40951
1
1.46954
1
1.47029
1
0.707025
1
1
1.47217
1.46059
1.46733
1
1.47026
1.47106
1.46445
1
1
1.46795
0.999999
0.75726
1
1
1
1.47273
1
1.47126
1.30282
1.47337
1
1.47112
0.999376
1
1
1
1
1
1
0.737164
1
1
1.4731
1
1.4708
1.46473
1
0.647202
0.660924
1
1.4735
1.0802
0.649149
0.632295
1
1.47193
1
1.46844
0.632415
1.00113
1
1
0.999523
1
1
1
0.999914
1.18849
1.47361
1
1
1.47275
1.26643
1
1.41718
1.46977
1.47393
1.18999
1.47117
1
1.4718
1
1.47297
1
1.46894
1.46994
0.99717
1.47014
1.47066
1
1
1
1
1
0.923006
1.47123
1.00004
1.00003
0.685203
0.999978
0.644803
0.626622
1
1.46869
1.47355
1.46776
1
1.4711
1
0.664632
1
1
1.47327
0.834787
1.46878
1
1.47339
1
0.975521
1.47685
1
1
1
1.46915
1
1.47076
0.6632
1
1
1.26519
1
1
1.24798
1
1
1.47189
1
1
1
1
1
1.46178
1.46927
1
1.47071
1.47404
0.648098
1.20715
1.46776
1
1
1.42232
0.998969
1
1
1.47161
1.47052
1.29464
1
1.47281
0.653752
1.41251
0.999687
1
1.46958
1.00003
1.47369
1.40338
1.35764
1
1
1.473
0.708393
0.676766
1
1.47173
1
1.47284
1
1.27289
1
1
1.47039
1.29836
0.670999
1
0.998229
1
1
1.02594
1.18576
1.47271
1
1.4688
1
1
1
1
1
1
1.06644
0.663124
1
1
1.0319
1
1
1
1
1
1.47429
1
1
1.47141
1.47111
1.34731
1
1
1
0.837992
1.4697
1.3237
1
1
1
1
1.47221
1
1
1
1.47476
1
1
1.33638
1.48273
1.03348
0.752728
1.47755
1.32933
1.47586
1
1.23458
1
1
1
0.65939
1.00251
0.684908
1
0.667325
0.633707
1
0.667274
1
1
1
1.20363
1
1.47396
1.47398
1.00065
1.22031
1.37424
0.676747
0.770394
0.89862
1
1.46941
1.469
1.47099
1.47282
1.40415
0.890816
1
1.40481
1
1.46143
1
1
0.996418
1.00945
1
1
1
1.47164
1
0.682228
1
1.4731
0.655182
1
1
1.4725
1
1.47017
0.999079
1
1
1.47356
1.42096
1
1.48791
1
1
1.01486
1
1.21123
1
1
0.654978
1
1
1.4737
0.999998
1.47641
1
1.00003
0.655655
1
1
0.66963
1.00089
1
1.47055
0.628519
1.4795
0.659465
1.47635
1
1
1
1
0.999999
1
1
1
1
1
1
1.44573
1
1.48006
1.46993
0.648029
1
1
1
1
1
1
1.46067
1
1
0.661838
1
1
1.47085
1
1
1.16894
1.39091
0.660371
0.652718
0.722544
0.762223
1
0.996593
0.683423
1.00032
1.45805
0.99689
1
1
1.46693
1
1
1
0.778492
1.00001
1.1599
1
1
1.18965
1.47178
1
0.696638
1
1
1
0.996612
1.00001
1.46864
1.4719
1
0.657337
1
1.24684
0.653791
1
0.89437
1
0.996268
0.642528
1
1
1
0.996075
0.663063
1
0.673239
0.998401
1.24327
1.41229
0.654047
0.660886
1
0.989914
1
0.998636
1
1.47399
1.47016
1
1.01188
1.46646
1.46613
1
1
1.47123
1
1
1.00004
1
1.47861
1
1
1.01858
1
0.998614
0.695862
1
1
1
1
1
1.46684
1.0324
1.00005
1
1
1
1
1
1.00003
1
0.642291
1.10073
0.998628
1.46781
1.46753
1
1.01311
1.46636
1.42246
1
1
0.621485
1.47163
1
1.47069
1
1.4723
1.31198
0.644095
1
0.653599
1.41365
0.999688
1
0.66242
0.618025
1
1
1.39596
1
0.999998
0.636233
1
1
1
1.14975
1
0.652468
1.46936
1
1
1
1
1.47313
1
1
1.47743
1.42083
1
1
1
1.48607
0.651575
1
1.47111
1.47169
1
1.3738
0.999999
1.00003
1
1
1.44127
1.01356
1
0.652703
1.2537
1
1
0.997771
1
1
1.46282
1
1
1.00003
1
1.47075
1
1
1
1
1
1
1.00001
1.20345
1
1.47465
1
1
1.47335
1
1
1
1.47022
1.46816
1.04607
1
0.997637
1
1
1
1
1.47231
1
1
1.47274
0.662145
1
1
1
1
1
1
1.37872
1
1
1.46254
1.47272
1
1
1
1.47058
1.47139
1
0.999705
1.47307
1
1
1
1.00002
0.679265
1.02873
0.99638
0.996071
1
1
0.682232
1.47345
1
0.607724
1
1.47016
1.45104
0.658572
0.999395
1.47366
1.47064
1.47331
1
1
0.93266
1.41549
1.38654
0.616465
1
1
1
1.47276
1.47107
0.666193
0.997362
1
1.4717
0.672847
1
1.45091
0.657332
0.971077
1.00676
1
1.46389
1
1
1
1
1
1
1.00012
1.43952
1
1
1.47491
1
1
1
1.4701
1
0.641993
1
1
1
1.1671
1
1
1
1
1
0.801313
1
0.667793
1
1.47113
1.00007
0.875442
0.879781
1.00002
1.00432
1.24221
1
1
0.652742
1.4699
1.47054
1.46994
1
0.65675
0.657757
1
1.46963
1
1
1
1
1
1.00003
1
0.654939
1.29574
1
1
0.661646
0.983944
1.00001
1
1
1
0.650185
1
0.723876
1
1
1.47765
1
1
0.655353
1
1.47288
1
0.673798
1
0.654553
1
1.00784
1.47411
1.4812
1
1
1.47093
1
1
1.10366
0.996712
1
0.998198
1
1.47309
1
0.658355
1.00002
1.47307
0.999036
1
1
0.804399
1
0.999011
0.659385
1.47318
1.16875
1
1.00001
0.905103
1
1
1
0.799856
1
1
1
1.47221
1
0.642368
0.999999
1
1
1
0.658464
1.47337
1.43114
0.663271
1
1.46322
1
1
1.46764
1.47136
1.39226
0.64735
0.997738
0.99931
1
1.47038
1
1
1
1
1.47355
1.00004
1
1
1.46517
1
1
1.47059
0.656901
1
1
1
0.663018
1
0.999999
0.999999
0.998674
1
1
1
1
1.34877
1
1.47417
1.47043
1.48497
1.46927
1.47251
1.47016
1
1.47298
1
1.47043
1.47149
1
0.998868
0.657298
1.40006
0.999892
1
1
1
1
0.995987
1
1.0719
1
1
1
0.848648
1.47054
1.47276
1.48384
1.40848
0.999875
1
1.02139
1.4697
0.997906
1.05378
0.997182
0.650682
1
1.00002
1
1
1
1
1
1.4748
0.64322
1.47532
1.47043
0.995436
0.695494
1
1
1
1.47304
0.687559
1.41516
0.654218
1.47087
1.47016
0.656528
1.46798
1.02335
1
1.47428
0.797493
1
0.998708
0.690193
1
0.644566
1
1.47045
1.47118
0.755639
1
1.47222
0.649589
1
0.665894
1
1.47369
1
1
1.45797
1
0.832783
1
0.999662
0.648927
1.45892
0.999489
1
0.688937
1
1
1
1
1.2435
1
1.47543
1
1
1.47695
1
1
1.4713
1
0.65391
1
0.667468
1.00001
1
1
1
1
1.45007
1.27974
1.47275
1
1.47215
1.43664
0.642233
0.698352
1
1
1.46573
1
0.651487
1
0.981865
1
1
1.47176
1
1.46634
0.687947
1.47827
1
0.689178
1
1
1.47441
1.4687
1
1.00004
1
1.45986
1
1
0.657204
0.999344
0.673874
1
1
1
1.47387
1.46808
1.4721
1
1
0.624737
1
1.46738
1
1
1
1.44987
1.4694
1.47171
0.640962
1.47238
1.4716
0.6867
1.47223
1.00004
0.685166
1.01404
1
1
1.47074
0.638976
1.2964
0.653638
1.47182
0.997387
0.659438
1.47386
1
1
1
1
1.46831
1.47079
0.652958
1
1.00002
0.66192
1.00004
1
0.661839
0.674203
1.33319
1.47112
0.998424
1.47256
1
1.48791
0.825788
0.664185
1.47067
1.48551
1
1.47286
1
1
1.46997
1
1.35793
1.47287
1
1
1
1
1.46932
1.46546
1.47289
1
1
1.47889
1.46958
1.47444
1
1.46975
1
1
1
1
1
0.648667
0.819988
0.694263
1
1
1.47053
1
1
1.47533
0.668234
1
1.46989
1.46515
1.44842
0.643091
1
0.617819
1
1.00003
1.47117
1.20851
1.47091
1.43056
1
0.613063
1
1.46812
1.33398
0.661514
1
1
1
0.790719
1
1
1.47613
1
0.66075
1.47128
1
1
1
1
1
1.37442
1.10174
1
1.4703
1
1.46942
1
0.9978
1
1.47292
1.46914
1.47352
1.47548
0.999566
1.47138
1
1.47186
1.47264
1.39297
1
1
0.668902
1.47548
1
1
1.47834
1.4743
1.47444
1
1.47374
1
1
1.00003
1.46969
1.4682
1.12896
1.10027
1.47002
1.46747
0.724944
1
1
1
1
1.00002
1.16217
1
1
1.40343
0.673024
0.999968
1
1.47304
0.999911
0.999783
1.07091
1.4133
1.47718
0.907588
1
0.676411
1
1.0016
1.47186
1.47433
1.48111
0.998983
1
1
0.654005
1
1
1.47262
1.04893
1
1
1
1
1
1
1
0.999934
1.4711
1.00002
1
1
1
1
1.30968
1
1.21404
1
1
1.47262
1.47843
0.669874
0.998791
1
1
1
0.659275
1.47186
1.4688
1
1
1
1
1
1
1
1
1.47455
1.47241
0.661724
1.04992
0.658509
1
0.671384
1
1.47396
1.12084
1
1
0.729714
1
1.44944
0.814002
0.996494
0.666025
1
1
1.46872
1.00004
0.997125
0.649285
1.47375
1.481
1
1
1
1
1.43841
1
1
1.46917
0.998971
1.46965
1.00002
1
1
0.657994
1
1
1.47031
0.666091
0.784338
0.651363
1.47274
0.999296
1
1.47109
0.656709
0.661669
1.01423
1
1
1.47234
1.00004
1.21383
1
1
1.47175
0.661557
1
1
1.00013
1.47
1.00013
1.45667
1
1.00003
1
1
0.744381
1
0.787559
1.00002
1
1.47604
0.673117
1
0.778701
0.81185
1
1
1.47269
1
1
1
1.47046
1.46632
1.00005
1.45277
1.47242
0.769479
1.47176
1.45114
1
1
1.46585
0.999999
1
1
1
1
1.47733
1.47111
1
1
1
1.47274
1.0002
1
0.662926
0.740288
1
1.00003
1.17612
1
1
0.890674
0.652177
1
1
1
1.47798
1.43233
1.47159
1
1
1
1
0.672278
1
1.46268
1
1.47459
0.656401
1.4724
1
1
1
0.615785
1
1.47056
1.00003
1
0.661798
1.17102
1
0.999662
1.46943
0.644912
0.687689
1
1.47259
0.654961
0.6669
1
0.700592
1
1
1
1
0.611703
1
1
1
1
1.46937
1
1.35711
0.693637
1
1
1
0.65956
1.47135
1
1
0.99687
1.45971
1
1.47547
1.47179
1
1
0.72845
0.657187
1
1
0.656979
1.14191
1.21778
1
1
1.47054
0.997365
1
0.997562
1.47098
1
1
1
1
1
1
1.47268
1
1.15532
1.15624
0.716594
1.41521
1
1.46737
1.47107
1
1
1
0.894218
0.638387
1
1.22249
0.999661
1.3967
1
1
1
0.999999
1
1.00674
1.21143
1.47179
1.47005
1
1.47161
1
0.637611
1
0.997672
0.999771
1
0.654885
1
0.653112
1.00002
1.47547
1.47204
0.656359
1.47987
0.628177
0.996036
1.35422
0.654709
1.33479
1
1
0.998438
1
1
1
1.00006
1
0.639586
1
1
1
1
0.999591
1.47499
0.816019
1
1
1
1.03573
1
1
1
1.25668
0.745663
1
1
1
1.04952
1.47609
1
0.683254
1
1.47364
0.891134
0.671771
1
0.653218
1
1
1.445
0.998227
1.43245
1
1.00864
1
1
1.47158
1
1
1
1
1.08857
1
1.47159
1.47323
1.47573
0.671054
1.47204
0.997112
1.38084
1
1
0.649618
1
1
0.656766
1.47623
1
1
0.999961
1
1
1
0.656924
0.678288
1
1.46737
1
1.22284
1.47127
0.668346
1.38376
1
1
0.683922
1
1
1.47161
1.47159
1.17308
1
1
1.00197
1.47024
0.671972
0.65711
1.47465
1.47249
1.33012
1.18038
1
0.896987
1
1
1
1.44135
1.46831
1.46897
1
1
1.47433
0.694275
1.42131
0.641519
1
0.653566
1
0.656697
1.47124
0.63573
1
0.986463
0.693963
1
1
1
0.860416
1.44582
1.47189
1.46991
1.4681
1
1
1.47333
1
1
1.47194
1
0.608913
1
0.654342
1
1.47392
1
1
1.02233
1.35823
1
0.998804
0.651492
1.46856
1.00001
0.700537
1.08932
1
1
1.35629
1.4726
1.47138
1
1.47241
1.11638
1
1.02401
1.47248
1
1
1
1
1.47171
1
0.691512
1.47043
0.665765
0.687603
0.826205
1.47462
1.16238
1.47311
1
1.46744
0.997439
1.00003
1.47186
1.47238
1
1.46926
1
1.4695
1
1.46992
1
1.00004
1.00002
1.4732
0.650622
0.655083
0.997971
0.999999
1
1
0.633143
1
1.30717
1
0.669124
1
1.17371
1.47562
1.46873
1
1
1.00003
0.999376
1
1.4717
1.46965
1
1.19401
1.46869
0.830043
1.46815
1.00062
0.649246
1.09793
0.62078
1
1
1.07432
1.47122
1
1
1.03694
0.998673
1
0.697757
1
0.773552
1
1.47214
1
1
0.648613
1.10444
1.06339
0.998491
1.47063
1.47167
0.767526
0.998074
0.656422
0.609998
0.657314
1
1
1
0.999103
0.754583
0.661832
1
1.47258
0.999733
1.47211
1.46994
1.47181
1.4694
1
0.654426
1.46687
0.658188
1
1.47517
1.47919
0.996641
0.808462
1.47156
1.33302
1
0.65364
1
1
1.47801
1
1.02775
1.47303
1
0.699094
0.636679
1
1
0.642935
0.620501
1.47207
1.00002
1
0.685647
0.653256
1.47842
1.45128
1.43942
1.47308
1.12485
0.987266
1.18465
1.47344
1.37923
1
1.23022
1
0.63171
0.877401
1
0.669322
1.47108
1.02277
1.47261
1
1.47029
1.47168
1
1.47126
1.47199
0.645137
1.47659
1
1.47352
1
0.744875
0.650537
1.47409
1
1
1
0.670429
1.46701
1.47193
1
0.652886
1
1
0.656132
1.00004
0.652487
1.47092
1
0.828424
0.621285
1
1
1.26623
1
1
1
1.08112
0.656478
1
1.00001
1
1.4718
0.666576
1
1.47299
0.709467
0.626275
1
1
1.47465
1
1.47886
1.00001
1.47244
0.662568
1
1
0.651445
0.791738
0.663343
1
1
1
1
1.47584
0.651472
1
0.673908
1
1.46737
1
1
0.927009
1
1
0.842458
0.999675
1.00005
1
0.66111
0.648765
1
1
1
1
0.794697
1.4688
1.47084
1
0.6675
0.634562
0.905472
0.649634
1
0.824501
1
0.635668
0.98883
1
1
0.654948
1
1.46717
1.46186
0.65653
1
1
1
1.47346
1
1.0388
0.840126
1.14246
0.657013
1.18275
0.649472
1
1
0.725119
0.908018
1
1.03676
1
1
0.622171
1
0.939598
1.04081
0.670304
1
1.37515
0.766029
0.878059
1
1
1
0.660891
1
0.671842
0.658492
1
0.856229
0.661113
1.07011
0.773292
0.650038
1.47079
1
1.47206
1.26169
0.714976
1.47246
0.681374
0.999022
1.47285
0.999999
1
1.46679
1
0.734284
1
1.07187
1
1
1.47155
1
0.750657
0.829608
1.47162
0.936043
1
0.767606
1.47299
1.47227
0.904841
1
1.47265
1.12616
0.842875
1
1.0042
1
0.641732
1.1939
0.764557
0.732652
1
1
0.666684
1.47455
0.966229
0.667172
0.658132
0.869535
1
1.00521
1.47088
1.47161
1
1
0.999999
0.651594
1.21167
1
1.46517
1.42725
0.655445
1.00001
1.09681
0.86794
1.27235
1.3984
1
1.02674
1
1.00005
0.678574
0.84451
1
1
0.828251
0.68246
1.0354
1
1.00002
0.680322
1.20746
1
1.46511
1
1.03432
1.26262
1
1.4681
1
1
1.46876
1
0.642044
1.47196
0.717508
1.12234
1
0.654106
0.999912
1
1.00003
1
0.79413
1.0275
0.647721
1.3424
1.47107
0.648163
1
1
1
1
1
0.964734
0.6212
1.04853
0.658814
0.661426
1.08039
1
0.999798
1.11997
1
1
0.646007
0.989088
1
1
1.11443
1
1.47206
1
1.47222
1.09557
1.01806
0.663283
1
1
0.7022
1
1
1
1
1.47446
1.04176
0.998049
1
0.631755
1.04901
0.999999
1
1.30349
1
0.685011
1.46974
1
1.00001
1
1.4705
0.66626
0.881145
0.667505
1.35213
1.47098
1
1
1.47154
1
0.628166
1
1
1
1
1
0.764758
1
1.46895
1
1
1.14608
1.47188
0.653646
0.856962
1
1.47119
1
1
1
1
1
1.47376
1.47206
0.621006
1.47162
0.64463
1
1
1.47146
1
1.47443
1.00417
1.02885
1.06924
1.46994
1.07227
1.31819
0.65824
1
0.653799
0.980297
1
1.47295
1
1
0.651757
1.48015
1
1.47201
1
1
1
1
1
1.00001
0.66458
1.47089
0.842434
1.47108
1
0.65696
0.640887
0.709557
1.47786
1.47165
0.969185
1
0.767935
1
1.17851
1
1.47177
0.632745
0.652861
0.841966
1
1.47081
1
1.08331
0.688011
1
1.47226
1.40559
0.998974
1
1.47237
0.65235
1.47599
1.4726
1.47683
0.666034
1.08588
1
1
0.634118
1
0.789671
0.829219
1
1.00002
1.47147
1
1.46819
1.08608
1
1.03663
1.47826
1
0.670554
1
0.764957
1
1
1.38765
1
0.799503
1
0.66276
1.03523
0.953583
0.646932
1.47346
1.37718
1.47202
0.656721
0.719439
0.99557
0.999999
1
0.685937
1.44406
0.644175
0.999966
1
1.47041
1.47136
0.910768
1
0.647225
0.733367
1.3078
0.970134
0.638715
0.999999
0.652126
1.10984
0.647187
1
1.00006
0.811213
1.47233
1.4712
0.846496
0.999614
1
1
0.747079
1
0.647217
1
0.623044
0.643622
1
1
1.00003
0.649981
1.47179
1
1
1.00007
1.00004
0.648407
1.47451
1.47144
1
0.648195
1.47447
1
1.09779
1
1
1.47002
0.641427
1
1
0.649546
0.760964
0.647848
0.644621
1
0.711472
0.997016
1.08933
0.648229
1
1
1.12991
1
1.41653
1
1
1.32772
0.689124
1
0.658642
1.11889
1.46903
1
1
0.673334
0.654986
0.65544
0.74802
0.675878
1.35102
0.999409
1
1
1
1
1.47258
0.701935
1
0.913775
0.999691
0.998816
0.999937
0.762535
1.12541
1
1.47128
1.47315
1
1
1.44665
1.00004
0.999999
1.47169
0.669366
1.46413
0.999999
0.632685
1.47102
1.00006
1
0.821953
1
0.653102
1
1.47106
1
1
1.47499
1
1
1.47795
1
1
1
1.47173
1
0.758345
0.713549
1
0.644741
1.472
1
1
0.967853
1
1.47048
1.26939
1.37566
1
1
0.660174
1
0.653298
1.46989
1.47291
1.46978
1
1.47076
0.657576
1
0.652942
1.37638
1.43034
1.47349
1.47385
0.782979
0.651785
1
1.30788
1.47095
1.47269
1.47136
0.73003
1.16147
1
1.35525
0.752849
1
1.00002
1
1.00002
0.875704
1
1.47415
1
1
1
1
1
1
1.00006
1.47049
1
1.4773
1.34929
0.652899
1.47073
1.03571
1.23531
1
1.47058
1
0.663664
1
1
1
1
1.40125
1
0.632583
1.46879
0.635467
1.47044
1.37406
1.24083
1
1.08762
1.21113
0.995345
0.658958
0.764687
1.00002
0.999999
0.921128
1
0.683249
1.47117
0.659086
0.934613
0.856469
1
1
1
1.01441
1
1
0.631396
0.996362
1.46864
1
1.47073
1
0.653796
1
1
1.47135
1.47119
0.634556
1
1.47169
1
0.807962
0.643974
1.47258
1.42002
1
1.07864
1.47166
0.998697
1
1.19495
1.41277
1.47044
0.996077
1
0.999998
1.39731
1
1
1
1.47188
0.998505
1
1
1.4703
1
1
0.653902
1
1
1
1.47142
1
1
0.841397
1.13745
1.42776
0.750376
1
1.47083
1
1.16446
1
1.46779
0.997332
1.47173
1
0.655827
1
1.31419
1
1
1.43872
1.00001
1.47078
1
1.47773
0.698789
0.663752
1.47063
1
1.39698
1
1.47324
1
1
1.00004
1.47289
1.4619
1.11368
1.47195
0.995613
0.635212
1.47284
0.871361
1
1.45717
1
1.47202
1
1.47389
1.47381
0.996558
0.657935
1
1.47116
1
1.03775
1
1
0.997931
0.768329
1.41844
1
1.41833
1
0.852468
0.657669
1.47094
1.47075
0.718066
1
1.46909
1.469
1.46791
0.682633
1.47041
0.698926
1.47256
1.46926
1
1
1.47201
1
1
1
1
0.642391
1
1
1.47276
1.47096
1
1.47455
1
1.47002
1.4744
1
1.38928
1
0.633673
1.47127
1.35199
1.12584
0.632082
1.47233
1
1
0.65938
1
1
1.47162
1
1
0.781679
1
1.47007
1.00009
1.47037
0.64699
1.47048
1
1.472
1.4536
0.892268
1
1.47085
0.743026
1.47049
1.33301
1.47209
1.4726
0.997429
1.46828
1.47082
1.47142
1.47029
1.00111
1
0.618359
1
1.46998
0.825301
1.42874
1
1.463
1
1
1
1
1
1.4688
0.650398
0.687034
1.4696
1.4721
1
1
1
1
1
1.46806
1.43782
1.47242
1.00493
1
1
1
1.00003
1.47037
1.47157
1
1.47128
1.47424
0.659858
1.3305
1
1.46904
1.47916
1.46814
0.997934
1.47184
1.47133
1
1.42262
1
1
1
1
1
1
1.47203
1.4714
1.43869
1.47085
0.644406
0.708701
1.47124
1.47165
1
0.652065
0.951461
1
1.21788
0.66288
1
0.999453
0.998281
0.65596
1
1.47479
1
1
1
1.4712
0.941066
1
1.47149
1.47155
1
1.47352
1
1
1.47097
1
0.65073
1
1.47668
1
1
0.659211
1
1.47194
1
0.641752
0.682024
1
1.44104
1
0.63451
0.880196
1
1.47087
1
1
1
1.47869
1
0.656998
1.06772
1.4739
1.47198
1.47205
1.03875
1.47357
1.47247
1
1.00002
1
1
1.00001
1.4712
1
0.999292
1.46689
1
0.633522
1
1.47267
1.21028
1.04754
1.20968
1.06324
1.48011
0.707548
1.47062
1
0.650606
0.997357
1.47224
0.941595
1.4712
1.47008
1.46664
1
1.47331
1.47109
1.47062
1
1.00003
1
1
1.47333
1.3336
1
1
0.664367
0.996672
1
1.47568
1
1.47154
1.47177
1.47646
0.897803
1.47335
1.47263
1.0061
1.21405
1.47291
1.46936
1
1.43924
0.814255
1.46074
0.981479
1.47037
1
1.47149
1.47238
1
0.66724
0.934115
0.71333
1
1.08066
0.996863
1.47278
1
1
0.997322
1
1.23188
1.44161
1
1
1.47263
1
1
1.33729
1.4699
1.4528
1.46954
1.47376
1
1.47352
0.720733
1.47006
1
0.991296
0.656192
1
1
0.768127
1
1.14329
1
1.47343
1
1.46257
1.29224
0.653301
1
1
1
1
1
1.471
1.01129
1
1.46953
1
1.4694
1.4714
0.999999
1
0.973694
0.999841