/*--------------------------------*- C++ -*----------------------------------*\
  =========                 |
  \\      /  F ield         | OpenFOAM: The Open Source CFD Toolbox
   \\    /   O peration     | Website:  https://openfoam.org
    \\  /    A nd           | Version:  12
     \\/     M anipulation  |
\*---------------------------------------------------------------------------*/
FoamFile
{
    format      ascii;
    class       volScalarField;
    location    "29.3";
    object      p;
}
// * * * * * * * * * * * * * * * * * * * * * * * * * * * * * * * * * * * * * //

dimensions      [1 -1 -2 0 0 0 0];

internalField   nonuniform List<scalar> 
9801
(
0.649188
0.676174
0.677332
0.671779
0.66062
0.657144
0.659899
0.66523
0.680648
0.717908
0.747244
0.75573
0.756645
0.751473
0.731681
0.69595
0.681232
0.685915
0.699898
0.728759
0.755466
0.765447
0.769273
0.771177
0.771854
0.775355
0.779461
0.782919
0.785661
0.784257
0.776895
0.780504
0.78717
0.789183
0.786676
0.787194
0.789758
0.795288
0.814163
0.846562
0.872699
0.885831
0.892207
0.896546
0.895658
0.881798
0.86791
0.861093
0.860536
0.86293
0.86719
0.874936
0.902505
0.951917
0.981548
0.993821
1.00134
1.00712
0.99978
0.969171
0.951961
0.950462
0.955622
0.962302
0.971918
1.0072
1.05552
1.08308
1.09753
1.10672
1.11361
1.10517
1.08004
1.06599
1.06877
1.07786
1.09182
1.13147
1.18346
1.21265
1.2284
1.23915
1.24949
1.23967
1.20246
1.18956
1.20082
1.22477
1.28635
1.38971
1.45752
1.5008
1.54128
1.5772
1.59062
1.58777
1.54667
3.72437
28.3108
0.628677
0.663484
0.67572
0.679583
0.679593
0.675476
0.674737
0.678901
0.685588
0.697272
0.725083
0.744842
0.751406
0.751901
0.747269
0.739516
0.727183
0.711491
0.706405
0.711338
0.723792
0.745978
0.759128
0.764462
0.768749
0.778004
0.793171
0.801557
0.806245
0.80917
0.808516
0.794452
0.778604
0.774713
0.777859
0.782805
0.787721
0.794076
0.814567
0.853318
0.879258
0.890774
0.897717
0.903399
0.905239
0.888769
0.864838
0.858402
0.860876
0.865405
0.870674
0.878133
0.907703
0.957082
0.985581
0.998117
1.0063
1.01246
1.00321
0.970394
0.95007
0.949159
0.955597
0.963459
0.974502
1.00985
1.05728
1.08271
1.09574
1.10492
1.11268
1.10962
1.0827
1.06857
1.07039
1.07939
1.09171
1.1224
1.17215
1.20484
1.22509
1.24184
1.25643
1.24867
1.21197
1.19824
1.21242
1.23677
1.27683
1.35209
1.42275
1.47359
1.52043
1.5587
1.56677
1.5503
1.45891
3.43573
28.5894
0.640068
0.650993
0.66866
0.67742
0.680859
0.684382
0.69146
0.700105
0.705508
0.708215
0.711878
0.716935
0.723591
0.727973
0.730924
0.736255
0.745993
0.751093
0.742498
0.730208
0.731176
0.735701
0.74098
0.746964
0.753563
0.765342
0.786971
0.804829
0.814958
0.820584
0.824607
0.816989
0.784438
0.770219
0.771673
0.777714
0.786235
0.796255
0.815712
0.855299
0.884542
0.8971
0.903827
0.907026
0.90486
0.88737
0.862683
0.856019
0.859767
0.865409
0.871587
0.879644
0.908563
0.955943
0.982938
0.994699
1.00266
1.00792
0.996222
0.963312
0.945191
0.944932
0.951496
0.959447
0.971239
1.00666
1.05175
1.07709
1.09117
1.10188
1.11153
1.11347
1.08665
1.06468
1.06206
1.06935
1.08075
1.10554
1.15843
1.19973
1.22388
1.24232
1.25926
1.26381
1.23143
1.20772
1.2119
1.23428
1.26388
1.32148
1.40936
1.47324
1.52147
1.56517
1.57844
1.56474
1.47386
3.27717
28.573
0.661402
0.653559
0.654489
0.664739
0.68346
0.69916
0.709662
0.716286
0.721098
0.715118
0.692535
0.681908
0.685105
0.701718
0.727649
0.750786
0.764963
0.772539
0.775758
0.768741
0.749816
0.729308
0.721264
0.724196
0.733955
0.754343
0.789711
0.815146
0.825264
0.831202
0.834095
0.819951
0.788475
0.775724
0.777162
0.783216
0.792942
0.805035
0.822561
0.855354
0.885268
0.897839
0.902519
0.90311
0.901289
0.891401
0.870943
0.860377
0.862565
0.867824
0.87442
0.883611
0.909428
0.953768
0.981251
0.993236
1.001
1.00517
0.993261
0.962303
0.945561
0.946167
0.953038
0.961203
0.973033
1.00609
1.0493
1.07423
1.08797
1.09834
1.10814
1.11192
1.08719
1.05879
1.05318
1.06074
1.0726
1.09239
1.14419
1.19721
1.22857
1.25111
1.27124
1.28432
1.25907
1.22163
1.20725
1.22031
1.24934
1.28966
1.36164
1.43454
1.48941
1.53927
1.56947
1.56669
1.49484
3.2788
28.6195
0.67383
0.659214
0.657653
0.667101
0.688904
0.710058
0.720112
0.727127
0.724162
0.696586
0.67549
0.670887
0.672534
0.683147
0.724435
0.763577
0.777573
0.784215
0.789225
0.787541
0.758281
0.7286
0.722722
0.724708
0.730567
0.747667
0.787134
0.818047
0.828255
0.831117
0.824472
0.810654
0.798143
0.792747
0.794518
0.80136
0.813986
0.825091
0.834663
0.850753
0.873627
0.887255
0.892615
0.895448
0.899053
0.901023
0.888568
0.87223
0.869175
0.873192
0.879035
0.886174
0.904214
0.942582
0.972137
0.985852
0.993687
0.997145
0.988786
0.963355
0.947172
0.947336
0.953575
0.961243
0.970807
0.997286
1.03814
1.06389
1.0785
1.08998
1.10098
1.10881
1.09184
1.05836
1.04643
1.05204
1.06374
1.08093
1.12837
1.19485
1.23652
1.26165
1.28255
1.29649
1.27878
1.2403
1.21597
1.21258
1.233
1.26651
1.31904
1.39435
1.46271
1.51981
1.56751
1.58562
1.51833
3.29068
28.7267
0.672058
0.668084
0.672086
0.684922
0.701389
0.714431
0.722786
0.722346
0.697677
0.675597
0.6705
0.672111
0.675138
0.687232
0.727135
0.766175
0.782851
0.789398
0.793906
0.786398
0.757721
0.739455
0.735483
0.737766
0.742123
0.751461
0.778849
0.805788
0.816974
0.818464
0.815166
0.814985
0.815166
0.815983
0.820754
0.830145
0.838462
0.843725
0.842483
0.840257
0.848131
0.869693
0.886151
0.896735
0.904528
0.910829
0.909822
0.890767
0.879375
0.879333
0.883679
0.889265
0.898784
0.927516
0.958491
0.975087
0.984001
0.988735
0.986906
0.970699
0.952906
0.949839
0.955453
0.962893
0.970772
0.988353
1.02606
1.05493
1.07043
1.08234
1.09398
1.10478
1.09846
1.06426
1.04188
1.04196
1.0535
1.06995
1.11105
1.1851
1.23976
1.26882
1.29064
1.30671
1.29554
1.26039
1.23412
1.22509
1.23068
1.24973
1.28332
1.3394
1.41231
1.47714
1.52842
1.5609
1.5394
3.36149
28.8903
0.674156
0.680648
0.695856
0.708384
0.71501
0.719817
0.718962
0.693193
0.670414
0.66651
0.669457
0.674125
0.682827
0.70968
0.748674
0.77095
0.782673
0.789805
0.791215
0.773969
0.757503
0.751941
0.751549
0.75384
0.75733
0.762534
0.77528
0.790281
0.799853
0.805726
0.813499
0.823477
0.836194
0.846165
0.851147
0.85382
0.854079
0.846353
0.833195
0.83
0.834803
0.85704
0.886133
0.902619
0.911648
0.918053
0.922613
0.909383
0.889588
0.88538
0.888978
0.894484
0.901412
0.92048
0.946055
0.962407
0.972628
0.979443
0.984526
0.98192
0.966234
0.956154
0.958229
0.964748
0.972701
0.983391
1.01374
1.04962
1.06859
1.07964
1.08992
1.10013
1.10104
1.07619
1.05036
1.04395
1.05083
1.06378
1.09276
1.16208
1.22941
1.26563
1.28897
1.30529
1.30634
1.28846
1.26217
1.24298
1.23476
1.24053
1.25928
1.29543
1.36072
1.43532
1.4882
1.52152
1.53023
3.45293
29.0888
0.68175
0.70865
0.721171
0.726736
0.728993
0.7255
0.697861
0.664813
0.656718
0.659223
0.664485
0.672521
0.69214
0.739816
0.772886
0.783557
0.789185
0.791431
0.776203
0.756499
0.753016
0.756729
0.760747
0.763448
0.766395
0.768671
0.771981
0.780776
0.789621
0.803225
0.823394
0.846807
0.861337
0.868962
0.869906
0.863038
0.848087
0.831414
0.82488
0.826896
0.832204
0.853441
0.890173
0.910503
0.919613
0.925481
0.929949
0.920673
0.897849
0.890825
0.894358
0.900528
0.907885
0.922345
0.942555
0.955841
0.964344
0.97217
0.980032
0.986343
0.981924
0.967881
0.964101
0.968836
0.976647
0.985542
1.0043
1.04384
1.07376
1.08756
1.09722
1.1063
1.10987
1.09036
1.06344
1.05381
1.05813
1.06882
1.08574
1.13229
1.19752
1.24538
1.27461
1.29441
1.3085
1.31447
1.30296
1.27821
1.25528
1.24246
1.24617
1.26553
1.31062
1.38643
1.44672
1.48166
1.5008
3.53951
29.201
0.689708
0.732673
0.740829
0.744809
0.744685
0.72052
0.67613
0.657076
0.65631
0.65916
0.664004
0.674355
0.710568
0.760327
0.783891
0.792632
0.795321
0.785935
0.765893
0.752671
0.75034
0.753591
0.759413
0.764432
0.765091
0.764699
0.767666
0.77853
0.79804
0.822771
0.850323
0.867688
0.876325
0.882086
0.880076
0.853882
0.826991
0.819461
0.822029
0.827401
0.83461
0.857597
0.896566
0.917236
0.925222
0.930217
0.932337
0.924198
0.906102
0.897593
0.89959
0.905858
0.913897
0.923847
0.942307
0.958151
0.966869
0.974309
0.982664
0.989786
0.99471
0.985285
0.976589
0.977329
0.983666
0.993617
1.00449
1.03299
1.07515
1.09922
1.11071
1.1189
1.12386
1.11427
1.08767
1.07137
1.07188
1.08122
1.09546
1.1182
1.1587
1.20747
1.24898
1.27955
1.30128
1.31694
1.32328
1.31621
1.29348
1.2652
1.24805
1.25208
1.27376
1.32507
1.3893
1.43106
1.45599
3.62523
29.2644
0.695589
0.740262
0.748351
0.751579
0.737951
0.696557
0.66884
0.6622
0.662774
0.666047
0.676644
0.7029
0.735825
0.765308
0.784252
0.789456
0.78421
0.772681
0.765143
0.758973
0.754828
0.755789
0.757529
0.756571
0.755496
0.757906
0.763166
0.777426
0.814061
0.85554
0.876452
0.884384
0.889042
0.890883
0.875319
0.838194
0.816274
0.813501
0.817928
0.825047
0.837047
0.862785
0.899215
0.918847
0.925588
0.92816
0.929006
0.927184
0.915949
0.907356
0.908375
0.913933
0.918784
0.923621
0.934731
0.957152
0.972616
0.980795
0.988342
0.997814
1.00643
1.01136
1.00152
0.996707
1.00055
1.00487
1.01093
1.02245
1.06072
1.10214
1.12142
1.13207
1.14131
1.14247
1.11955
1.0967
1.09169
1.09824
1.11065
1.12507
1.13862
1.15942
1.19716
1.23864
1.27312
1.29942
1.31769
1.32675
1.32377
1.30243
1.27076
1.25408
1.25853
1.27676
1.32051
1.36743
1.39817
3.69817
29.3675
0.706648
0.741001
0.748219
0.742086
0.7089
0.682958
0.67379
0.671461
0.674484
0.690013
0.717157
0.735292
0.745027
0.755802
0.764425
0.7675
0.766589
0.768443
0.773187
0.774303
0.766972
0.76116
0.755782
0.750475
0.750687
0.754577
0.760002
0.773288
0.82489
0.872422
0.889649
0.89633
0.89923
0.889088
0.863121
0.836873
0.820653
0.81774
0.821585
0.828032
0.838259
0.861649
0.894388
0.913739
0.921415
0.924682
0.92982
0.935514
0.933293
0.923846
0.920638
0.920335
0.919003
0.919882
0.924821
0.943978
0.970814
0.98589
0.996503
1.01104
1.02703
1.03936
1.03861
1.02003
1.00852
1.00623
1.00883
1.01492
1.03405
1.08486
1.12272
1.13903
1.14907
1.15769
1.1542
1.13854
1.12707
1.12565
1.12955
1.13144
1.13014
1.13625
1.15043
1.182
1.2284
1.27101
1.30066
1.32134
1.33106
1.32281
1.29875
1.26924
1.25409
1.25509
1.2684
1.30358
1.339
3.74508
29.4699
0.715983
0.732988
0.731659
0.706373
0.684638
0.679225
0.680983
0.685681
0.707224
0.73367
0.744454
0.74738
0.744591
0.736968
0.735844
0.741565
0.751324
0.766338
0.777078
0.782652
0.783634
0.772299
0.758887
0.751843
0.752733
0.757262
0.765144
0.784663
0.827004
0.872341
0.890987
0.895788
0.889129
0.876902
0.863747
0.844621
0.830212
0.828492
0.833325
0.838963
0.843105
0.852361
0.880104
0.903665
0.915309
0.924965
0.936036
0.945377
0.951492
0.944527
0.930706
0.921224
0.914952
0.912495
0.915263
0.925681
0.956685
0.987674
1.01146
1.03331
1.05134
1.06271
1.06768
1.04759
1.01804
1.00331
0.999771
1.00462
1.01459
1.04897
1.10377
1.13587
1.15172
1.16474
1.1777
1.18099
1.17199
1.16076
1.15068
1.13973
1.12854
1.12274
1.12838
1.14229
1.17843
1.23133
1.27555
1.30651
1.32842
1.33279
1.31451
1.29012
1.26267
1.24257
1.23929
1.24623
1.28447
3.77087
29.5434
0.717999
0.719104
0.69733
0.681016
0.679255
0.682466
0.690846
0.719713
0.748954
0.761292
0.762897
0.747918
0.724755
0.714759
0.715902
0.72774
0.750114
0.769373
0.782213
0.791077
0.79705
0.793051
0.771196
0.761708
0.763521
0.768356
0.777782
0.790905
0.814258
0.848821
0.869068
0.874375
0.874457
0.876407
0.87488
0.863357
0.850196
0.845001
0.844054
0.842417
0.842263
0.845703
0.860866
0.893475
0.916711
0.932678
0.946181
0.956229
0.96329
0.964522
0.946237
0.922943
0.907941
0.903358
0.906855
0.915528
0.9381
0.983516
1.0267
1.05764
1.0737
1.08183
1.08564
1.07095
1.02899
1.00061
0.993459
0.996142
1.00384
1.0177
1.05955
1.11393
1.15025
1.17231
1.18701
1.20032
1.20895
1.20359
1.18254
1.15533
1.13099
1.11711
1.11525
1.12485
1.14678
1.19777
1.25479
1.29193
1.31467
1.32826
1.31967
1.30507
1.28406
1.25338
1.22656
1.21285
1.22103
3.79307
29.6169
0.710722
0.688493
0.675756
0.675293
0.680015
0.697557
0.732178
0.756937
0.766484
0.769663
0.759309
0.726504
0.704506
0.700873
0.704548
0.723162
0.756251
0.781621
0.796746
0.80567
0.811724
0.80937
0.786687
0.77366
0.77412
0.778626
0.786087
0.792585
0.799814
0.81658
0.844192
0.862803
0.873256
0.881511
0.887418
0.886289
0.871743
0.856409
0.846826
0.840046
0.83892
0.842646
0.85066
0.880562
0.920639
0.945113
0.958316
0.966101
0.972071
0.976036
0.963588
0.925262
0.902289
0.898413
0.902951
0.910684
0.927287
0.974268
1.03701
1.07163
1.08789
1.09674
1.10064
1.08822
1.0447
1.00618
0.994215
0.995294
0.999903
1.0067
1.02054
1.06175
1.11742
1.16175
1.19111
1.20961
1.22227
1.22719
1.21824
1.18811
1.14703
1.11843
1.11094
1.11687
1.13348
1.17235
1.23225
1.27654
1.29993
1.31532
1.31824
1.31168
1.30397
1.2828
1.24531
1.20662
1.16503
3.78154
29.7329
0.687703
0.668905
0.668954
0.675884
0.699841
0.744764
0.773209
0.782599
0.783187
0.764755
0.723536
0.697902
0.69324
0.695986
0.702522
0.727801
0.774557
0.803415
0.814275
0.820005
0.821983
0.815656
0.797626
0.783753
0.781991
0.785522
0.790401
0.792902
0.792706
0.796733
0.816736
0.851819
0.87451
0.886406
0.892645
0.895918
0.890415
0.866208
0.844411
0.835416
0.836383
0.841755
0.849103
0.870511
0.92071
0.953951
0.966069
0.972651
0.976496
0.97422
0.958306
0.927562
0.904423
0.900696
0.906218
0.916238
0.931106
0.962729
1.02876
1.07499
1.08907
1.09322
1.09235
1.08864
1.07039
1.03094
1.005
0.998255
0.999993
1.0044
1.01076
1.02615
1.06268
1.12282
1.17818
1.20715
1.22076
1.22731
1.22793
1.2181
1.18147
1.13911
1.11909
1.1211
1.13541
1.15706
1.19807
1.25207
1.28619
1.30241
1.31155
1.31462
1.31424
1.30887
1.27798
1.22251
1.14571
3.72272
29.8574
0.668094
0.667033
0.673047
0.698536
0.752641
0.783638
0.793198
0.796486
0.78817
0.737322
0.693389
0.683107
0.684617
0.689081
0.700552
0.743695
0.799629
0.821029
0.828749
0.831176
0.826749
0.81401
0.799389
0.789831
0.787184
0.789775
0.793267
0.792511
0.79124
0.793888
0.802327
0.835574
0.871167
0.886292
0.892349
0.895689
0.895673
0.879058
0.850024
0.839054
0.839666
0.844682
0.852668
0.86977
0.91403
0.954732
0.968911
0.973959
0.968319
0.95685
0.947489
0.935683
0.920506
0.916308
0.924094
0.937482
0.949919
0.959965
0.989613
1.04239
1.0717
1.08269
1.0896
1.0953
1.09429
1.06944
1.03173
1.00999
1.00481
1.00789
1.01456
1.02385
1.03504
1.06025
1.11914
1.1767
1.20418
1.21584
1.2193
1.22129
1.21385
1.17987
1.14543
1.13384
1.1393
1.15148
1.16972
1.21246
1.26019
1.28742
1.30268
1.31334
1.31554
1.31491
1.30193
1.2467
1.14881
3.64404
29.9693
0.656129
0.664379
0.693247
0.756384
0.794843
0.804564
0.807502
0.800915
0.759965
0.709159
0.68701
0.683982
0.686087
0.691461
0.714784
0.766322
0.807904
0.826865
0.833545
0.83047
0.816432
0.808282
0.80459
0.800623
0.797855
0.798333
0.799232
0.796598
0.793269
0.793966
0.797681
0.816655
0.858383
0.880144
0.887236
0.892028
0.896716
0.89274
0.866287
0.849371
0.84892
0.854032
0.861007
0.870679
0.89801
0.936163
0.95248
0.952502
0.943187
0.93875
0.941629
0.94958
0.953752
0.949289
0.94897
0.953367
0.954915
0.95536
0.959747
0.982155
1.03539
1.07255
1.0884
1.09673
1.10366
1.09897
1.06843
1.03433
1.018
1.01604
1.02008
1.02525
1.0329
1.0415
1.05882
1.1134
1.16809
1.19488
1.20689
1.21436
1.21908
1.21138
1.18261
1.15665
1.14766
1.15335
1.16554
1.18137
1.22044
1.26083
1.28382
1.29753
1.30563
1.30843
1.3045
1.26397
1.17041
3.56652
30.0633
0.649109
0.659303
0.723326
0.792309
0.812855
0.819153
0.820452
0.787973
0.729566
0.700648
0.69172
0.690244
0.695657
0.71959
0.749568
0.774786
0.799715
0.814519
0.816183
0.80652
0.800473
0.803504
0.81367
0.821667
0.822144
0.815578
0.808429
0.800446
0.792347
0.788309
0.789295
0.798525
0.837333
0.870838
0.884806
0.893404
0.900145
0.904223
0.8887
0.864121
0.858325
0.861634
0.86759
0.874075
0.882933
0.899721
0.918638
0.928406
0.932602
0.936478
0.948791
0.970996
0.988557
0.992588
0.979357
0.963162
0.950514
0.942662
0.942595
0.94835
0.97644
1.03751
1.07821
1.09438
1.10322
1.10344
1.08917
1.06492
1.04037
1.02697
1.02495
1.02914
1.03463
1.03791
1.04133
1.05437
1.10584
1.15962
1.18699
1.20115
1.21244
1.2175
1.21032
1.1874
1.16891
1.16316
1.16551
1.1741
1.18708
1.21616
1.24842
1.27036
1.28688
1.29374
1.29702
1.2725
1.21001
3.50852
30.1492
0.645966
0.682695
0.751012
0.795163
0.814602
0.818588
0.796765
0.754481
0.724627
0.707041
0.702516
0.70857
0.733728
0.756996
0.764961
0.768748
0.770193
0.774012
0.784163
0.79088
0.79608
0.809088
0.828984
0.84299
0.848474
0.841173
0.819206
0.796424
0.781234
0.777808
0.78046
0.788691
0.821108
0.864849
0.887801
0.899706
0.906267
0.911121
0.904462
0.877431
0.865016
0.866242
0.871616
0.876546
0.87325
0.867359
0.874583
0.897893
0.92165
0.943695
0.97423
1.00052
1.01231
1.0165
1.00438
0.970139
0.940259
0.930395
0.932466
0.937607
0.945922
0.982572
1.04208
1.0752
1.08836
1.09375
1.09059
1.0867
1.07836
1.06413
1.0527
1.04744
1.04207
1.03021
1.0248
1.0311
1.05314
1.11018
1.15974
1.18512
1.19888
1.20993
1.21416
1.21297
1.20336
1.19243
1.18012
1.17115
1.16699
1.17385
1.1968
1.23113
1.2617
1.27778
1.28266
1.27409
1.25636
3.50238
30.2391
0.668637
0.713818
0.74843
0.777479
0.787271
0.777228
0.752681
0.737912
0.732029
0.727187
0.730861
0.74926
0.768828
0.775793
0.774359
0.753253
0.735805
0.736159
0.75422
0.780865
0.803482
0.829348
0.849617
0.859122
0.863959
0.862249
0.831671
0.786212
0.772052
0.772844
0.777509
0.786991
0.813953
0.866054
0.896266
0.906124
0.911021
0.911689
0.905955
0.891068
0.877052
0.874766
0.877795
0.876313
0.860428
0.853757
0.858169
0.871942
0.906619
0.960891
1.00728
1.02676
1.03284
1.03152
1.0161
0.97457
0.940855
0.931595
0.933733
0.938418
0.944789
0.958104
0.987737
1.03018
1.06304
1.08187
1.09203
1.09888
1.10694
1.10795
1.09618
1.0742
1.04718
1.02739
1.02169
1.02629
1.03652
1.06135
1.11266
1.15587
1.18008
1.19531
1.21131
1.22672
1.23055
1.22832
1.21223
1.17931
1.15345
1.14462
1.15145
1.17464
1.22087
1.25615
1.26762
1.26531
1.28131
3.57088
30.3719
0.696129
0.71777
0.729799
0.737031
0.740015
0.742693
0.745174
0.746968
0.747289
0.756596
0.772093
0.7819
0.785372
0.78449
0.761808
0.730663
0.72076
0.722759
0.731617
0.766595
0.820286
0.854832
0.867112
0.871754
0.873023
0.864045
0.824835
0.786862
0.774867
0.776075
0.782375
0.797971
0.826358
0.865083
0.895795
0.906401
0.906149
0.903189
0.905763
0.907718
0.89985
0.891302
0.884581
0.868303
0.851298
0.847971
0.852157
0.861261
0.891555
0.968829
1.0179
1.03324
1.04001
1.04182
1.02647
0.991975
0.958377
0.943718
0.942547
0.946067
0.951075
0.958726
0.965997
0.978453
1.01104
1.05377
1.08682
1.10749
1.12263
1.13366
1.13914
1.12763
1.08743
1.04609
1.02787
1.0265
1.03486
1.04564
1.063
1.10409
1.1482
1.17907
1.20665
1.23189
1.24266
1.24574
1.24504
1.21302
1.16185
1.13165
1.12301
1.12793
1.15756
1.21213
1.2425
1.25125
1.28453
3.68731
30.5597
0.71206
0.716674
0.702269
0.690083
0.693499
0.714084
0.739899
0.760268
0.781583
0.798082
0.803979
0.802687
0.794158
0.766579
0.734479
0.721542
0.721298
0.724771
0.731443
0.763812
0.832217
0.864667
0.874028
0.876525
0.865055
0.840444
0.818082
0.799094
0.790369
0.794434
0.810479
0.826826
0.834072
0.846998
0.872495
0.889336
0.894849
0.899528
0.911095
0.920068
0.92268
0.912672
0.890342
0.864504
0.851041
0.85136
0.859512
0.874883
0.902895
0.952965
1.00648
1.02564
1.02918
1.02234
1.01544
1.01099
0.996799
0.976079
0.962904
0.959074
0.960425
0.962424
0.960685
0.959283
0.966496
0.994352
1.05303
1.10465
1.13246
1.1488
1.15766
1.15998
1.14064
1.09015
1.05088
1.03781
1.03803
1.0402
1.04478
1.05878
1.10151
1.15727
1.2017
1.22875
1.24373
1.24837
1.25269
1.24312
1.19152
1.13751
1.1111
1.10459
1.10859
1.15289
1.20498
1.22653
1.27091
3.79998
30.7767
0.721286
0.702727
0.676122
0.669424
0.673228
0.688801
0.728218
0.780943
0.814839
0.826009
0.828554
0.81854
0.786002
0.742487
0.723009
0.721373
0.724375
0.7316
0.754925
0.795364
0.836086
0.862395
0.870694
0.8595
0.836605
0.827582
0.825326
0.821117
0.821576
0.82867
0.837985
0.842179
0.835398
0.828431
0.834649
0.862163
0.889773
0.908361
0.922335
0.930584
0.934398
0.929897
0.900079
0.870095
0.863033
0.870405
0.88492
0.900865
0.911051
0.922837
0.953892
0.988617
1.00598
1.01361
1.02108
1.0262
1.02837
1.02081
1.00211
0.983774
0.974021
0.968321
0.960117
0.952557
0.953267
0.960782
0.997968
1.08169
1.1374
1.1585
1.16692
1.1662
1.15885
1.13344
1.09027
1.05837
1.04551
1.04346
1.04427
1.04967
1.06425
1.11841
1.18432
1.22118
1.23785
1.24388
1.24727
1.24571
1.21336
1.16013
1.11267
1.0914
1.08872
1.10377
1.15949
1.19437
1.25041
3.88617
30.9909
0.720082
0.67898
0.661785
0.66049
0.663679
0.674563
0.719964
0.792613
0.825103
0.833966
0.838078
0.8261
0.775272
0.739342
0.727669
0.726485
0.736015
0.766582
0.790903
0.804073
0.821285
0.834501
0.833737
0.824188
0.82051
0.826716
0.841291
0.857068
0.863635
0.860132
0.853204
0.839109
0.820902
0.814886
0.818431
0.834025
0.875113
0.914408
0.932594
0.939814
0.942954
0.940315
0.92195
0.898527
0.891817
0.896639
0.904451
0.90934
0.907826
0.905094
0.90814
0.931353
0.977485
1.01248
1.0274
1.03597
1.04409
1.04943
1.04718
1.0277
0.998324
0.97517
0.959948
0.95289
0.953923
0.96207
0.980576
1.03951
1.11911
1.15393
1.16322
1.16193
1.15658
1.1411
1.11687
1.09171
1.07473
1.06709
1.0663
1.06843
1.07299
1.08671
1.14197
1.19814
1.22429
1.23524
1.23929
1.23978
1.21603
1.18195
1.13835
1.09768
1.08031
1.07889
1.11765
1.15832
1.22373
3.92714
31.1437
0.722174
0.671543
0.661798
0.662645
0.665933
0.676665
0.719029
0.788685
0.824078
0.833253
0.827998
0.799802
0.771215
0.75026
0.743075
0.750745
0.77925
0.801446
0.808563
0.806082
0.789807
0.782802
0.7936
0.810131
0.825283
0.846628
0.873982
0.890445
0.894067
0.883313
0.856108
0.823371
0.809631
0.809333
0.813691
0.820781
0.849611
0.906122
0.933866
0.940349
0.940985
0.941952
0.947185
0.947492
0.936634
0.925746
0.917797
0.906911
0.893816
0.889856
0.892395
0.897559
0.924147
0.984822
1.02558
1.04131
1.05034
1.05893
1.06587
1.0647
1.03887
0.996597
0.970094
0.961791
0.96436
0.980081
1.00072
1.02144
1.06666
1.11438
1.13348
1.13637
1.13537
1.13122
1.12559
1.12731
1.12594
1.11255
1.09515
1.07815
1.06922
1.07173
1.09043
1.15215
1.20133
1.22223
1.22651
1.2251
1.21021
1.19048
1.17099
1.13642
1.09804
1.07952
1.08804
1.1196
1.19572
3.9355
31.189
0.712541
0.678402
0.66918
0.671221
0.682767
0.702807
0.725104
0.762126
0.792926
0.800503
0.792491
0.78139
0.77839
0.776885
0.781773
0.795426
0.806221
0.810517
0.807349
0.780634
0.755511
0.751604
0.761051
0.792125
0.840606
0.886268
0.910573
0.917348
0.914167
0.892055
0.845392
0.815293
0.808897
0.811204
0.815868
0.824645
0.840543
0.878997
0.92086
0.936369
0.941625
0.95213
0.971005
0.981285
0.979151
0.959775
0.929154
0.900467
0.887689
0.887612
0.8917
0.896127
0.905895
0.937914
0.992194
1.03092
1.04984
1.06139
1.06513
1.06377
1.06313
1.04307
1.00748
0.989588
0.989959
0.999964
1.00934
1.01545
1.02237
1.04538
1.08214
1.1043
1.11576
1.1259
1.14237
1.15924
1.16229
1.15647
1.1321
1.09089
1.06321
1.05651
1.063
1.09529
1.16015
1.19783
1.20998
1.21143
1.20527
1.19206
1.18574
1.17786
1.14346
1.10459
1.08003
1.07849
1.15917
3.9541
31.1308
0.712313
0.693058
0.689214
0.695269
0.708352
0.716195
0.720152
0.724325
0.745501
0.771355
0.781599
0.78596
0.79328
0.812095
0.826806
0.829576
0.825163
0.810343
0.777202
0.745879
0.737254
0.739741
0.747186
0.769974
0.847669
0.913655
0.929767
0.934864
0.927951
0.891017
0.841586
0.818838
0.814337
0.817785
0.829713
0.843578
0.853816
0.86372
0.883778
0.91466
0.941004
0.966552
0.988023
0.999662
1.00426
0.995335
0.954027
0.911132
0.894108
0.893714
0.898059
0.904553
0.914867
0.922497
0.934475
0.974908
1.02047
1.04643
1.0593
1.0674
1.07317
1.07869
1.06966
1.04191
1.02093
1.01153
1.00896
1.00333
0.994297
0.999921
1.02746
1.0669
1.09763
1.12835
1.16143
1.17794
1.18118
1.17775
1.16572
1.11785
1.07001
1.05419
1.05441
1.0632
1.09895
1.15487
1.18657
1.19744
1.19926
1.19476
1.19235
1.1957
1.19228
1.16286
1.11284
1.06317
1.0843
3.98446
31.0551
0.719822
0.714227
0.718118
0.722993
0.724432
0.720783
0.706489
0.70226
0.709973
0.741051
0.776113
0.802525
0.828004
0.844457
0.849692
0.847767
0.838841
0.804071
0.75552
0.734331
0.731808
0.734517
0.741933
0.783069
0.86599
0.914695
0.930541
0.933547
0.912728
0.872531
0.84521
0.831487
0.829765
0.838627
0.850901
0.85857
0.863161
0.859844
0.861257
0.87453
0.914611
0.963555
0.991024
0.999513
1.00308
1.00533
0.989796
0.950735
0.922611
0.913853
0.913359
0.915223
0.917873
0.91613
0.912373
0.9199
0.953774
1.01172
1.05409
1.07353
1.08388
1.09704
1.10637
1.10207
1.06654
1.02805
1.0028
0.987108
0.980984
0.984114
0.993762
1.02168
1.06887
1.12043
1.15778
1.17651
1.18395
1.18425
1.18141
1.15292
1.09769
1.06647
1.05817
1.05906
1.06548
1.09642
1.14111
1.17174
1.18592
1.19092
1.19612
1.20973
1.21911
1.21584
1.17832
1.0903
1.02231
3.94018
31.0102
0.740155
0.741403
0.741441
0.74166
0.736111
0.715461
0.699875
0.698521
0.701397
0.711377
0.755572
0.813065
0.847366
0.861446
0.865615
0.860677
0.830304
0.785942
0.753462
0.739003
0.737608
0.744722
0.769371
0.810752
0.856004
0.893463
0.90728
0.899621
0.878114
0.863125
0.855127
0.853242
0.858612
0.866498
0.871571
0.873654
0.867149
0.856533
0.851297
0.852872
0.863822
0.91245
0.966758
0.990804
1.00317
1.01133
1.01422
0.995342
0.962405
0.937099
0.923341
0.917024
0.913924
0.911952
0.906716
0.903494
0.908324
0.933723
1.00097
1.06198
1.09356
1.11054
1.1188
1.12122
1.10784
1.05833
1.00978
0.99039
0.985627
0.987985
0.997609
1.01016
1.03213
1.08633
1.13776
1.16035
1.16919
1.17378
1.1802
1.17014
1.13047
1.09074
1.0684
1.06303
1.06493
1.073
1.09236
1.12162
1.15687
1.18056
1.20091
1.21944
1.23427
1.2372
1.22161
1.1383
1.02143
3.83679
31.0184
0.765818
0.76761
0.756121
0.747095
0.732496
0.715241
0.704735
0.70305
0.706835
0.715662
0.737699
0.800711
0.848678
0.861922
0.864298
0.85496
0.826614
0.789748
0.762993
0.754765
0.759703
0.77624
0.800061
0.820163
0.83693
0.850287
0.85631
0.856754
0.858737
0.862665
0.872116
0.886358
0.895217
0.898229
0.897822
0.89076
0.871121
0.851312
0.84074
0.839596
0.842567
0.85517
0.914986
0.980745
1.00742
1.01591
1.01898
1.01259
0.996996
0.972295
0.947708
0.931669
0.922808
0.91731
0.909685
0.898829
0.894574
0.89846
0.923589
1.013
1.08723
1.11041
1.11677
1.11323
1.09385
1.06467
1.03628
1.01632
1.00864
1.00846
1.01348
1.01614
1.01998
1.03734
1.08805
1.1284
1.15033
1.16352
1.17119
1.16853
1.14646
1.11952
1.09372
1.07545
1.06775
1.06662
1.06911
1.07086
1.10531
1.16273
1.19731
1.21822
1.23423
1.23668
1.23315
1.18632
1.08983
3.7136
31.1048
0.791151
0.795289
0.769068
0.744813
0.729203
0.720276
0.716149
0.718014
0.724462
0.731059
0.737108
0.764674
0.817899
0.839096
0.840791
0.837163
0.831151
0.812301
0.793737
0.787537
0.790599
0.798684
0.807997
0.815772
0.817995
0.810861
0.808998
0.817426
0.834385
0.85714
0.88541
0.914477
0.928321
0.930721
0.926859
0.910546
0.872845
0.840471
0.83031
0.83209
0.836096
0.844922
0.873072
0.932381
0.984089
1.00436
1.00941
0.999828
0.987801
0.989872
0.989196
0.972856
0.952224
0.933352
0.913266
0.897403
0.892409
0.895474
0.904014
0.94857
1.04093
1.089
1.09828
1.08649
1.07655
1.07047
1.0667
1.06244
1.04919
1.03392
1.02232
1.01037
1.00408
1.00863
1.03495
1.09163
1.13399
1.15537
1.16388
1.16285
1.1472
1.13317
1.12101
1.10323
1.0829
1.06698
1.05435
1.04344
1.04767
1.10629
1.17247
1.20334
1.21861
1.22041
1.2223
1.20156
1.18232
3.64685
31.2556
0.811639
0.820269
0.785118
0.750634
0.734521
0.728658
0.729725
0.734819
0.737928
0.739144
0.737894
0.739955
0.767459
0.812327
0.830642
0.837978
0.844052
0.844538
0.829568
0.815732
0.810549
0.809677
0.809207
0.803782
0.793465
0.786706
0.787718
0.794869
0.807818
0.838536
0.89129
0.930498
0.94875
0.954812
0.955292
0.938596
0.88225
0.84113
0.832633
0.834822
0.840309
0.860249
0.887581
0.899938
0.915927
0.946237
0.969709
0.980379
0.988701
1.00264
1.01378
1.01908
1.00385
0.960755
0.918028
0.896425
0.890374
0.895383
0.913875
0.93707
0.97754
1.0313
1.05411
1.05714
1.06222
1.07315
1.09125
1.09642
1.08889
1.06734
1.03249
1.00164
0.991585
0.993528
1.00305
1.04467
1.10439
1.13478
1.14546
1.14759
1.13786
1.1321
1.13388
1.13542
1.12
1.09098
1.05436
1.0252
1.01883
1.03682
1.10446
1.16755
1.19533
1.19982
1.2024
1.19703
1.2208
3.68994
31.452
0.819127
0.828053
0.801794
0.766367
0.746348
0.741342
0.74224
0.744465
0.743222
0.736191
0.732761
0.735025
0.742809
0.778063
0.827009
0.849802
0.858608
0.86356
0.858478
0.838364
0.824768
0.817469
0.809811
0.800333
0.790929
0.782311
0.781682
0.787364
0.797498
0.818666
0.878421
0.933287
0.950429
0.955248
0.950978
0.930524
0.897075
0.863081
0.85053
0.853363
0.867124
0.891009
0.899686
0.889061
0.869546
0.87
0.901615
0.957616
0.99787
1.02072
1.0364
1.04606
1.0473
1.00656
0.939739
0.906924
0.900789
0.914568
0.935485
0.944881
0.950408
0.960003
0.986139
1.01574
1.04306
1.0775
1.10595
1.11652
1.11554
1.10457
1.06247
1.01072
0.990547
0.991226
0.998393
1.01444
1.05562
1.09213
1.11328
1.1267
1.13244
1.13345
1.13778
1.14608
1.14788
1.13009
1.07719
1.02724
1.01087
1.01267
1.03204
1.10154
1.16316
1.18479
1.1884
1.18511
1.22321
3.78514
31.691
0.818729
0.828263
0.813816
0.788662
0.764068
0.753657
0.746919
0.737821
0.733142
0.732822
0.734577
0.738173
0.745284
0.762446
0.804977
0.847965
0.862543
0.866944
0.867526
0.857919
0.838789
0.828318
0.824109
0.81572
0.801133
0.791894
0.792655
0.79681
0.80114
0.807005
0.838784
0.898495
0.928707
0.935765
0.934669
0.924819
0.917325
0.90899
0.900857
0.89958
0.904775
0.909133
0.90231
0.869244
0.844914
0.841189
0.847274
0.892899
0.979231
1.02841
1.04648
1.05533
1.0507
1.02844
0.985091
0.949003
0.939459
0.949332
0.956111
0.95425
0.932949
0.919681
0.92929
0.959879
1.00997
1.07267
1.11259
1.13059
1.13462
1.13158
1.10676
1.051
1.01357
1.00349
1.00564
1.01162
1.02416
1.04242
1.06749
1.1014
1.12224
1.13132
1.13955
1.14754
1.15481
1.15622
1.12097
1.05517
1.01939
1.01431
1.01494
1.03722
1.1112
1.15835
1.16279
1.15514
1.20938
3.91208
31.9068
0.807497
0.817216
0.80816
0.799253
0.785384
0.754587
0.738584
0.735245
0.735348
0.737377
0.744306
0.758799
0.772368
0.780904
0.790493
0.818146
0.844094
0.849985
0.848432
0.847358
0.851998
0.854675
0.853453
0.846052
0.825423
0.808367
0.803078
0.80297
0.804199
0.806303
0.810816
0.835918
0.880402
0.911624
0.924885
0.931966
0.940897
0.954652
0.964381
0.964097
0.950131
0.921571
0.885036
0.853209
0.838695
0.837215
0.840462
0.855271
0.924127
1.0114
1.04418
1.05289
1.04426
1.03119
1.02334
1.00979
0.995984
0.985132
0.972612
0.947942
0.918296
0.905637
0.907271
0.918453
0.957726
1.04558
1.11119
1.13206
1.13765
1.13777
1.12808
1.09628
1.0542
1.02644
1.01641
1.01493
1.01532
1.01719
1.02528
1.0546
1.09672
1.12085
1.13423
1.1447
1.15272
1.15746