/*--------------------------------*- C++ -*----------------------------------*\
  =========                 |
  \\      /  F ield         | OpenFOAM: The Open Source CFD Toolbox
   \\    /   O peration     | Website:  https://openfoam.org
    \\  /    A nd           | Version:  12
     \\/     M anipulation  |
\*---------------------------------------------------------------------------*/
FoamFile
{
    format      ascii;
    class       surfaceScalarField;
    location    "21";
    object      phi;
}
// * * * * * * * * * * * * * * * * * * * * * * * * * * * * * * * * * * * * * //

dimensions      [1 0 -1 0 0 0 0];

internalField   nonuniform List<scalar> 
19404
(
-0.0001266
-2.90028e-07
-0.000130306
-8.9064e-07
-0.000132685
-1.8634e-07
-0.000133001
7.0762e-08
-0.000132809
1.83215e-07
-0.000131993
6.2357e-07
-0.00013055
9.31292e-07
-0.000128946
8.64404e-07
-0.000128124
6.96313e-07
-0.000127963
5.28487e-07
-0.000128044
-1.33789e-07
-0.000129808
-6.77377e-07
-0.000133611
-6.57715e-07
-0.000136351
-6.50463e-08
-0.000137111
4.58508e-07
-0.000136913
4.78521e-07
-0.000135253
1.14365e-06
-0.000132409
1.13038e-06
-0.000131097
7.50843e-07
-0.000130756
6.84368e-07
-0.000130619
6.83348e-07
-0.000130722
-1.37713e-08
-0.000133143
-1.23337e-06
-0.000137727
-1.03496e-06
-0.000139966
-1.19565e-07
-0.000140398
4.10518e-07
-0.000140313
3.55743e-07
-0.000138538
8.93109e-07
-0.000135092
1.39961e-06
-0.00013382
1.02511e-06
-0.000133573
8.43822e-07
-0.000133497
6.73464e-07
-0.000133466
6.08127e-07
-0.000134969
-5.68497e-07
-0.000140326
-1.48357e-06
-0.000143167
-9.06101e-07
-0.000143803
-3.05846e-07
-0.000143873
-5.0296e-08
-0.000143008
1.96917e-07
-0.000139278
1.12848e-06
-0.000136985
1.3734e-06
-0.000136685
1.09506e-06
-0.000136625
8.04996e-07
-0.000136631
5.46964e-07
-0.00013731
3.57318e-07
-0.000141719
-3.71376e-07
-0.000145432
-6.06162e-07
-0.00014648
-3.29067e-07
-0.000146675
-2.58278e-07
-0.000146483
-3.05561e-07
-0.000144278
-1.46417e-07
-0.000140932
5.68573e-07
-0.000139505
8.11404e-07
-0.000139217
8.52929e-07
-0.00013919
6.63585e-07
-0.00013929
3.73798e-07
-0.000141883
1.73219e-07
-0.000147345
-3.07442e-09
-0.000149819
1.10592e-07
-0.000150431
2.52367e-07
-0.000150448
2.12045e-07
-0.000149092
-4.75738e-08
-0.000144915
-1.69212e-07
-0.000141649
-8.46253e-10
-0.000140546
3.76279e-07
-0.000140413
3.5862e-07
-0.000140474
1.79307e-07
-0.00014157
1.55214e-08
-0.000147263
-5.36789e-08
-0.000151996
4.6851e-08
-0.000153556
4.36864e-07
-0.000153907
4.57947e-07
-0.00015366
3.23516e-07
-0.000149987
-4.11292e-08
-0.000143415
-2.7355e-07
-0.000140048
-1.42761e-07
-0.00013939
4.83333e-07
-0.000139439
-4.38567e-07
-0.000140774
-8.28805e-08
-0.000148602
-1.73802e-07
-0.000154335
-1.51882e-07
-0.000155924
1.5199e-07
-0.000156305
4.34686e-07
-0.000156212
4.68209e-07
-0.000153237
4.71764e-07
-0.000143622
-6.35959e-07
-0.000135932
1.02147e-07
-0.000133751
-5.22528e-07
-0.000133783
-7.18769e-07
-0.000138241
-1.4464e-06
-0.000150096
-1.79662e-06
-0.000156158
-1.14627e-06
-0.000157746
-1.52851e-07
-0.000158084
-2.52778e-07
-0.000154634
-6.61824e-07
-0.000143529
-6.22852e-07
-0.000124768
-4.99366e-06
-0.000111421
-3.07896e-05
1.76655e-05
-0.00013621
4.91941e-07
-0.000136101
-1.0045e-06
-0.00013655
-1.52691e-06
-0.000137081
-1.41462e-06
-0.000137012
-2.65858e-07
-0.000136386
5.3563e-07
-0.000135778
1.1707e-06
-0.000135606
1.51034e-06
-0.000136381
1.85212e-06
-0.000138855
1.65594e-06
-0.000139882
1.09347e-06
-0.000139957
1.13273e-07
-0.000139902
-7.81019e-07
-0.000140194
-1.04388e-06
-0.000140242
-9.05669e-07
-0.000139194
-7.91329e-08
-0.000137836
7.99326e-07
-0.000137055
1.42788e-06
-0.000136454
1.53737e-06
-0.000136399
1.69437e-06
-0.000137342
1.42124e-06
-0.000140136
9.07199e-07
-0.000141203
-2.74189e-07
-0.000141789
-1.0875e-06
-0.00014261
-9.62814e-07
-0.000142953
-7.61999e-07
-0.00014246
-1.18632e-08
-0.000140246
7.5739e-07
-0.00013867
1.62778e-06
-0.000137682
1.62969e-06
-0.000137365
1.55525e-06
-0.000137345
1.23926e-06
-0.000138845
8.75441e-07
-0.000142223
1.58516e-07
-0.000144074
-9.99325e-07
-0.000145051
-1.3673e-06
-0.000145356
-8.70112e-07
-0.000145269
-5.16343e-07
-0.000143587
1.00339e-07
-0.000140805
1.13305e-06
-0.000139463
1.67128e-06
-0.000138845
1.47467e-06
-0.000138696
1.21116e-06
-0.000138715
9.17173e-07
-0.000140472
4.44919e-07
-0.000145136
-9.48616e-08
-0.000147429
-4.47196e-07
-0.000147963
-3.79581e-07
-0.000148049
-3.02552e-07
-0.00014776
-2.56929e-07
-0.000144653
1.0928e-07
-0.000141429
6.03144e-07
-0.000140298
8.79947e-07
-0.000140006
9.54648e-07
-0.000139996
8.13064e-07
-0.000140118
5.44633e-07
-0.000142842
3.33872e-07
-0.000147986
1.35073e-07
-0.000150133
1.57236e-07
-0.000150573
2.83924e-07
-0.000150625
3.5361e-07
-0.000149947
2.71031e-07
-0.000145475
2.94433e-07
-0.00014188
2.17268e-07
-0.000140752
2.67793e-07
-0.000140542
3.3994e-07
-0.000140608
2.25206e-07
-0.000141718
2.75142e-08
-0.000147584
7.11367e-09
-0.000152097
3.15977e-07
-0.000153443
5.55708e-07
-0.00015374
6.73677e-07
-0.000153698
5.91369e-07
-0.000150686
4.35849e-07
-0.000143783
1.10587e-07
-0.000140308
-2.42403e-07
-0.000139532
-3.5128e-07
-0.00013956
-3.3997e-07
-0.000140451
-6.50831e-07
-0.000146633
-6.00069e-07
-0.000152723
-9.34189e-08
-0.00015497
4.26431e-07
-0.000155542
5.79407e-07
-0.000155719
4.90096e-07
-0.000153641
4.67341e-07
-0.000143944
-2.60053e-07
-0.000136422
-1.09741e-06
-0.00013398
-1.72509e-06
-0.000133923
-2.13592e-06
-0.000135342
-2.84816e-06
-0.000143232
-3.44182e-06
-0.000149274
-2.47138e-06
-0.000151011
-1.66438e-06
-0.000151344
-2.14512e-06
-0.000147663
-3.03941e-06
-0.000136092
-4.12424e-06
-0.000117801
-1.02276e-05
-0.000118969
-4.33601e-05
2.95052e-05
-0.000137629
6.86717e-07
-0.000136902
-6.18939e-08
-0.000136292
-1.33493e-06
-0.000135583
-1.4987e-06
-0.000134792
-2.93714e-07
-0.000134243
7.0457e-07
-0.000134004
1.38333e-06
-0.000134065
1.76006e-06
-0.000136269
1.98772e-06
-0.000139193
1.61148e-06
-0.000139961
1.06208e-06
-0.000140012
5.06221e-07
-0.000139818
-2.09638e-07
-0.000139716
-9.0208e-07
-0.000138869
-8.68876e-07
-0.000136947
2.1092e-07
-0.000135869
7.93795e-07
-0.000135509
1.25894e-06
-0.000135478
1.67014e-06
-0.000135799
1.77603e-06
-0.000138724
1.29879e-06
-0.000140776
8.57173e-07
-0.000141325
4.02293e-07
-0.000141655
-9.11328e-08
-0.000141796
-9.27746e-07
-0.00014164
-7.9364e-07
-0.00014006
3.27704e-07
-0.000138295
1.00449e-06
-0.000137402
1.19117e-06
-0.00013709
1.45419e-06
-0.000137037
1.55102e-06
-0.000137373
9.9283e-07
-0.000140262
4.57752e-07
-0.000143074
1.69833e-07
-0.000144027
-1.80556e-07
-0.000144307
-4.02783e-07
-0.00014438
-4.32942e-07
-0.00014356
1.4105e-07
-0.000140928
9.50562e-07
-0.000139476
1.0029e-06
-0.000138739
1.03557e-06
-0.000138429
1.09559e-06
-0.000138416
1.00875e-06
-0.000138557
6.58247e-07
-0.000140924
4.73683e-08
-0.000145072
-4.34689e-08
-0.000146763
-9.45877e-09
-0.000147082
2.32749e-07
-0.000147104
4.97524e-07
-0.000146083
7.16467e-07
-0.000142451
9.95101e-07
-0.000140207
7.92258e-07
-0.000139635
5.73384e-07
-0.000139495
4.47838e-07
-0.00013949
3.39487e-07
-0.00013969
2.1783e-07
-0.000142498
1.43895e-07
-0.000147246
1.18406e-07
-0.00014913
3.48396e-07
-0.000149553
6.2083e-07
-0.00014961
8.262e-07
-0.000148799
8.57725e-07
-0.000144236
8.48603e-07
-0.000140662
5.14516e-07
-0.000139687
1.29327e-07
-0.0001395
-5.48092e-09
-0.000139557
-1.24832e-07
-0.000140478
-2.83465e-07
-0.000145788
-2.23329e-07
-0.000150235
1.92757e-07
-0.000151609
7.0565e-07
-0.000151875
9.34009e-07
-0.000151904
9.97509e-07
-0.000149629
9.9487e-07
-0.000142778
5.84868e-07
-0.000138864
-2.04844e-07
-0.000137843
-7.73034e-07
-0.00013775
-9.67333e-07
-0.000138028
-1.09912e-06
-0.000142238
-1.19358e-06
-0.000149535
-4.39242e-07
-0.000152633
4.67234e-07
-0.00015319
7.88347e-07
-0.000153354
8.32387e-07
-0.000151838
7.78594e-07
-0.000143472
3.53834e-07
-0.000134947
-9.67972e-07
-0.000131054
-2.8566e-06
-0.00013036
-3.85702e-06
-0.000130518
-4.39915e-06
-0.000135173
-5.11633e-06
-0.000142549
-4.57419e-06
-0.000145374
-3.81823e-06
-0.000145761
-4.53969e-06
-0.000143592
-5.75129e-06
-0.000134178
-7.48794e-06
-0.000118308
-1.44024e-05
-0.00012247
-4.59345e-05
3.71322e-05
-0.000139323
5.84379e-07
-0.000138652
3.711e-07
-0.000134635
-3.99501e-07
-0.000130861
3.40959e-07
-0.000130156
5.82856e-07
-0.000130229
5.08669e-07
-0.000130886
6.57287e-07
-0.000132643
1.02307e-06
-0.000137203
1.5815e-06
-0.000140408
1.00845e-06
-0.000140919
8.75361e-07
-0.000140881
5.80636e-07
-0.000140695
1.38071e-07
-0.00013854
-7.84028e-09
-0.000134115
7.94644e-07
-0.000132694
9.1584e-07
-0.000132533
6.625e-07
-0.000132875
5.28584e-07
-0.000133849
6.60626e-07
-0.000135956
1.0592e-06
-0.000139664
1.17813e-06
-0.000141871
8.52206e-07
-0.000142072
5.92901e-07
-0.00014198
4.24222e-07
-0.000141145
4.96741e-07
-0.000138149
7.74804e-07
-0.000135925
1.04865e-06
-0.000135494
7.15182e-07
-0.000135495
4.9031e-07
-0.000136
4.39341e-07
-0.000136663
5.89522e-07
-0.000137819
6.62414e-07
-0.000140725
4.14255e-07
-0.000142743
3.82959e-07
-0.000142903
6.56743e-07
-0.000142822
9.97124e-07
-0.000142204
1.26782e-06
-0.000140294
1.3453e-06
-0.000138165
1.21477e-06
-0.00013764
5.31879e-07
-0.000137652
2.51682e-07
-0.000137814
1.06519e-07
-0.000138079
1.22348e-07
-0.000138582
1.52993e-07
-0.000140681
9.18446e-08
-0.000143304
3.39703e-07
-0.000144326
9.54533e-07
-0.000144588
1.48937e-06
-0.000144541
1.6649e-06
-0.000143952
1.57607e-06
-0.000140971
1.26347e-06
-0.000138697
5.76545e-07
-0.000138242
5.10994e-08
-0.00013823
-2.13626e-07
-0.000138251
-3.32917e-07
-0.000138582
-3.37489e-07
-0.000141031
-1.02551e-07
-0.000144785
4.00536e-07
-0.000146505
1.02031e-06
-0.000147066
1.40213e-06
-0.000147168
1.4964e-06
-0.000146789
1.42389e-06
-0.000143028
1.18036e-06
-0.000138863
5.80662e-07
-0.000137591
-2.47882e-07
-0.000137362
-5.87671e-07
-0.000137379
-6.76206e-07
-0.000137899
-7.57898e-07
-0.000142187
-5.37378e-07
-0.000146788
1.94552e-07
-0.000148349
9.35114e-07
-0.000148755
1.29423e-06
-0.000148828
1.41144e-06
-0.000147775
1.34564e-06
-0.000142032
9.43862e-07
-0.000136621
-2.24739e-07
-0.000134952
-1.34319e-06
-0.000134753
-1.68425e-06
-0.000134811
-1.78501e-06
-0.00013667
-1.89895e-06
-0.000143305
-1.34389e-06
-0.000147397
4.27008e-08
-0.000148374
9.54491e-07
-0.000148582
1.21071e-06
-0.000148256
1.03508e-06
-0.000143335
6.86019e-07
-0.000134251
-8.48441e-07
-0.000128037
-3.23429e-06
-0.000125881
-5.11015e-06
-0.000125779
-6.40807e-06
-0.000126812
-7.02125e-06
-0.000131756
-7.19379e-06
-0.000135022
-6.71031e-06
-0.000135721
-7.50899e-06
-0.000135247
-9.01273e-06
-0.000130645
-1.03807e-05
-0.00012196
-1.52182e-05
-0.000121676
-4.30547e-05
4.34665e-05
-0.000139386
5.18579e-07
-0.000137945
5.63499e-07
-0.000131605
1.46205e-06
-0.000128313
1.60211e-06
-0.000127957
1.10108e-06
-0.000127869
7.02783e-07
-0.000128203
3.6929e-07
-0.000131074
-2.84161e-08
-0.000137247
3.27857e-07
-0.000140413
7.00241e-07
-0.000140814
7.08224e-07
-0.000140698
7.38521e-07
-0.000139752
1.06578e-06
-0.000135697
1.75778e-06
-0.000131966
1.88873e-06
-0.000130921
1.0867e-06
-0.000130774
6.83345e-07
-0.000130773
2.04498e-07
-0.000131695
-2.97417e-07
-0.000135116
-2.66146e-07
-0.000139189
5.08545e-07
-0.000140611
8.71539e-07
-0.000140706
1.22252e-06
-0.000140467
1.57812e-06
-0.000139221
1.90522e-06
-0.000136588
1.98418e-06
-0.000134512
1.35402e-06
-0.000133894
5.80371e-07
-0.000133847
3.25832e-08
-0.000134034
-3.60343e-07
-0.000134979
-5.90665e-07
-0.000136642
-2.78028e-07
-0.000138788
4.08581e-07
-0.000140117
1.08038e-06
-0.000140433
1.79274e-06
-0.000140349
2.29652e-06
-0.000140235
2.36119e-06
-0.000139676
1.93206e-06
-0.00013761
1.30651e-06
-0.000136377
3.14446e-07
-0.000136224
-4.47798e-07
-0.000136205
-6.63135e-07
-0.000136219
-6.50769e-07
-0.000136391
-2.98955e-07
-0.000137567
2.46274e-07
-0.000139849
1.0481e-06
-0.000141397
1.88631e-06
-0.000142198
2.27855e-06
-0.000142519
2.13393e-06
-0.000142499
1.74698e-06
-0.000141061
1.37425e-06
-0.000137978
4.8532e-07
-0.000136756
-4.46304e-07
-0.000136271
-7.80898e-07
-0.000135895
-7.00158e-07
-0.000135832
-3.99191e-07
-0.000136923
-1.33626e-07
-0.000140698
5.99944e-07
-0.000143292
1.48197e-06
-0.000144264
1.84855e-06
-0.000144533
1.80312e-06
-0.000144543
1.60662e-06
-0.00014278
1.35679e-06
-0.000137898
5.83236e-07
-0.000135284
-4.33872e-07
-0.000134656
-1.08526e-06
-0.000134442
-1.133e-06
-0.000134524
-1.02271e-06
-0.00013683
-8.53954e-07
-0.000141947
2.19756e-08
-0.000144435
1.09069e-06
-0.00014516
1.58667e-06
-0.000145367
1.6084e-06
-0.000145312
1.40938e-06
-0.000142069
1.11951e-06
-0.000135285
-1.58886e-07
-0.000131868
-1.42465e-06
-0.000131294
-2.32974e-06
-0.000131199
-2.59202e-06
-0.000131563
-2.62499e-06
-0.000135914
-2.38021e-06
-0.000141823
-9.90765e-07
-0.000144034
4.95901e-07
-0.000144434
1.08262e-06
-0.000144604
1.10522e-06
-0.000142609
8.18134e-07
-0.000135154
-1.80009e-07
-0.000127313
-2.99437e-06
-0.000122848
-5.31676e-06
-0.000122007
-7.28285e-06
-0.000122076
-8.79398e-06
-0.000124763
-9.35007e-06
-0.00012895
-9.42573e-06
-0.000131016
-1.00888e-05
-0.000131563
-1.21975e-05
-0.000130245
-1.39672e-05
-0.000125902
-1.58345e-05
-0.000120477
-3.9539e-05
4.97645e-05
-0.000137656
7.99029e-07
-0.000134533
1.67877e-06
-0.000130044
2.5284e-06
-0.000128338
2.00878e-06
-0.000127926
1.42174e-06
-0.000127784
8.27242e-07
-0.000127823
2.50078e-07
-0.000129318
-3.67577e-07
-0.000134753
-7.89865e-07
-0.000137961
-5.23005e-08
-0.000138337
8.03393e-07
-0.000138009
1.55039e-06
-0.000136542
2.40428e-06
-0.000134421
2.67945e-06
-0.000132226
2.07704e-06
-0.000131015
1.28397e-06
-0.000130636
6.07613e-07
-0.000130502
3.00897e-08
-0.000130517
-6.2797e-07
-0.000131852
-9.28142e-07
-0.000135449
-5.95787e-07
-0.000137481
8.97859e-07
-0.00013785
1.93777e-06
-0.000137698
2.56948e-06
-0.000137308
2.8182e-06
-0.00013645
2.41248e-06
-0.000134833
1.6712e-06
-0.000133562
5.72205e-07
-0.000133012
-1.37094e-07
-0.000132919
-6.98377e-07
-0.000132876
-9.75287e-07
-0.000133053
-6.11919e-07
-0.000134365
1.8072e-07
-0.000136464
1.35501e-06
-0.000137773
2.412e-06
-0.00013848
2.85718e-06
-0.000138972
2.59896e-06
-0.000139017
1.95977e-06
-0.000138345
1.44437e-06
-0.000136314
5.47612e-07
-0.000135028
-5.72248e-07
-0.0001341
-9.11302e-07
-0.000133146
-5.54107e-07
-0.000132725
1.23367e-08
-0.000132943
3.86468e-07
-0.000135573
9.52506e-07
-0.000138851
1.904e-06
-0.000140527
2.32466e-06
-0.000141147
2.11585e-06
-0.000141234
1.66044e-06
-0.000140959
1.26771e-06
-0.000138264
6.41386e-07
-0.000135202
-5.03803e-07
-0.000133484
-7.35709e-07
-0.000132602
-5.03118e-07
-0.00013234
-1.64362e-07
-0.00013263
1.72583e-08
-0.000136183
3.74732e-07
-0.000140359
1.21677e-06
-0.000142013
1.76619e-06
-0.000142495
1.77285e-06
-0.000142554
1.56927e-06
-0.000142242
1.31377e-06
-0.000138392
8.43334e-07
-0.0001338
-4.25565e-07
-0.000131891
-9.03703e-07
-0.000131321
-1.17507e-06
-0.000131231
-1.09832e-06
-0.000131963
-1.00395e-06
-0.000136838
-5.19084e-07
-0.000141143
7.02402e-07
-0.000142541
1.52542e-06
-0.000142868
1.6296e-06
-0.000142969
1.41457e-06
-0.000141971
1.10102e-06
-0.000136019
3.25856e-07
-0.0001305
-1.47309e-06
-0.000128207
-2.64085e-06
-0.00012778
-3.19285e-06
-0.000127799
-3.28271e-06
-0.000129414
-3.31827e-06
-0.000135441
-2.69946e-06
-0.000139859
-9.8781e-07
-0.000141303
2.13156e-07
-0.000141618
5.46196e-07
-0.000141418
5.0651e-07
-0.00013731
2.5008e-07
-0.000129449
-1.89304e-06
-0.000123217
-4.80591e-06
-0.000119825
-7.34628e-06
-0.000119479
-9.11099e-06
-0.000120008
-1.10447e-05
-0.000123611
-1.1578e-05
-0.00012698
-1.20592e-05
-0.000128234
-1.40396e-05
-0.00012811
-1.64943e-05
-0.000127599
-1.73341e-05
-0.000121005
-3.58923e-05
5.3519e-05
-0.000133678
1.22176e-06
-0.000132201
2.44125e-06
-0.000130502
2.76165e-06
-0.000129134
2.3828e-06
-0.000128623
1.66322e-06
-0.000128432
8.21103e-07
-0.000128557
9.562e-08
-0.000129251
-4.56149e-07
-0.000131009
-8.54433e-07
-0.000133024
-1.98203e-07
-0.000134063
9.9167e-07
-0.000134264
2.16418e-06
-0.000134218
2.60734e-06
-0.000134105
2.59293e-06
-0.000133287
2.34683e-06
-0.000131793
1.59623e-06
-0.000131068
6.17904e-07
-0.000130704
-1.36372e-07
-0.000130429
-6.81654e-07
-0.000129962
-5.07659e-07
-0.00013008
-1.03897e-08
-0.000132248
6.47442e-07
-0.000134643
1.9319e-06
-0.000135923
2.61481e-06
-0.000136314
2.63716e-06
-0.000136356
2.20364e-06
-0.000135938
1.70651e-06
-0.000134447
1.09472e-06
-0.000133221
1.7872e-08
-0.000131929
-6.37295e-07
-0.000130263
-3.5338e-07
-0.000129528
2.49826e-07
-0.000129551
5.5629e-07
-0.000131597
9.23424e-07
-0.000135302
1.8063e-06
-0.000137642
2.36153e-06
-0.000138505
2.27107e-06
-0.000138705
1.79167e-06
-0.000138607
1.36412e-06
-0.000137063
8.68052e-07
-0.000134091
4.2402e-08
-0.00013124
-1.48387e-07
-0.000129761
3.5268e-07
-0.000129403
5.57748e-07
-0.000129415
6.14513e-07
-0.000131237
7.25652e-07
-0.000136432
1.2007e-06
-0.000139474
1.57713e-06
-0.000140228
1.56404e-06
-0.000140308
1.32645e-06
-0.000140295
1.07634e-06
-0.000138807
8.89467e-07
-0.000133933
3.58043e-07
-0.000130607
2.10014e-07
-0.000129673
1.00218e-07
-0.000129512
-4.39728e-09
-0.000129677
-4.65047e-08
-0.000132169
8.69996e-09
-0.000137585
5.37224e-07
-0.000140282
1.28851e-06
-0.000140951
1.50542e-06
-0.00014103
1.39442e-06
-0.000141043
1.23104e-06
-0.000139231
1.10724e-06
-0.000133585
5.28803e-07
-0.000129771
-5.91318e-07
-0.000128752
-8.05283e-07
-0.000128641
-1.13312e-06
-0.000128809
-1.25173e-06
-0.000131794
-1.1839e-06
-0.000137894
-3.31155e-07
-0.000140838
9.74166e-07
-0.000141559
1.47432e-06
-0.000141689
1.42674e-06
-0.000141587
1.21079e-06
-0.000138075
8.52121e-07
-0.000131208
-4.01313e-07
-0.000126713
-2.46904e-06
-0.000125103
-3.06617e-06
-0.000125152
-3.76303e-06
-0.000125469
-4.26241e-06
-0.000129199
-4.34457e-06
-0.000135504
-3.26326e-06
-0.000138973
-1.5014e-06
-0.000140034
-5.12476e-07
-0.000140301
-2.37832e-07
-0.000139134
1.08049e-08
-0.000133308
-9.16816e-07
-0.000126096
-3.4345e-06
-0.000120993
-6.65085e-06
-0.000118457
-9.3464e-06
-0.000118328
-1.12074e-05
-0.000119645
-1.31658e-05
-0.000123884
-1.37037e-05
-0.000126701
-1.50826e-05
-0.000127645
-1.75883e-05
-0.000128157
-1.87185e-05
-0.000121299
-3.40752e-05
5.54571e-05
-0.000129629
1.4765e-06
-0.000129948
1.97386e-06
-0.000130175
2.11851e-06
-0.000130163
2.17561e-06
-0.00013012
1.37375e-06
-0.000129926
7.74131e-07
-0.000129615
3.74056e-07
-0.00012945
-1.50612e-07
-0.000128943
3.17729e-07
-0.000128653
8.6379e-07
-0.000129115
1.51468e-06
-0.000130916
1.8922e-06
-0.000132955
1.93878e-06
-0.0001337
1.93078e-06
-0.000133574
1.80745e-06
-0.00013315
1.4274e-06
-0.000132306
6.48787e-07
-0.000131172
2.99995e-07
-0.000129114
7.38813e-08
-0.000127568
7.22892e-07
-0.000127257
1.04733e-06
-0.00012764
1.11119e-06
-0.000131011
1.35594e-06
-0.000134916
1.63395e-06
-0.00013645
1.85653e-06
-0.000136514
1.71481e-06
-0.000136409
1.48525e-06
-0.000135731
1.09751e-06
-0.000133385
6.90222e-07
-0.000129864
3.31164e-07
-0.000127688
8.89688e-07
-0.000127148
1.03744e-06
-0.000127062
1.03891e-06
-0.000127788
1.08091e-06
-0.00013308
9.94586e-07
-0.000137711
9.5876e-07
-0.000138532
1.38369e-06
-0.000138485
1.26402e-06
-0.000138422
1.07043e-06
-0.000137633
9.52389e-07
-0.000132824
9.85442e-07
-0.000128641
1.34203e-06
-0.00012771
1.09412e-06
-0.000127596
8.39512e-07
-0.000127687
6.1601e-07
-0.000129092
4.2575e-07
-0.000134504
4.69564e-07
-0.000138693
6.84326e-07
-0.000139581
9.65824e-07
-0.000139598
9.96266e-07
-0.000139545
9.98222e-07
-0.000138445
1.27118e-06
-0.00013332
1.70356e-06
-0.000128947
1.00617e-06
-0.000127773
5.70454e-07
-0.000127801
1.43943e-07
-0.000127921
-2.54937e-07
-0.000129601
-6.35524e-07
-0.000135126
-3.01644e-07
-0.000138971
6.62134e-07
-0.000139876
1.25167e-06
-0.000139986
1.39656e-06
-0.000139997
1.42015e-06
-0.00013916
1.51009e-06
-0.000134097
1.44997e-06
-0.000129223
1.50372e-07
-0.00012731
-7.48795e-07
-0.00012715
-1.25063e-06
-0.000127202
-1.65986e-06
-0.000128323
-1.92982e-06
-0.000133989
-1.6732e-06
-0.00013914
-1.27022e-07
-0.000140654
1.16991e-06
-0.000140869
1.5262e-06
-0.00014095
1.57771e-06
-0.000139607
1.52505e-06
-0.000133038
1.17571e-06
-0.000127069
-1.18399e-06
-0.000124446
-3.02878e-06
-0.000123832
-3.97106e-06
-0.000123832
-5.00152e-06
-0.000124743
-5.3903e-06
-0.00012959
-5.34448e-06
-0.000134778
-3.92453e-06
-0.000137247
-2.23992e-06
-0.000138082
-1.36687e-06
-0.000138253
-1.07957e-06
-0.000136418
-7.32946e-07
-0.000130823
-2.42922e-06
-0.000124372
-5.00726e-06
-0.000119837
-8.52204e-06
-0.000117744
-1.15251e-05
-0.000117769
-1.3499e-05
-0.000120118
-1.52601e-05
-0.000124543
-1.61612e-05
-0.00012679
-1.83448e-05
-0.000128164
-1.95356e-05
-0.000121787
-3.25149e-05
5.67367e-05
-0.00012747
1.77301e-06
-0.000128171
1.57886e-06
-0.000129854
1.34395e-06
-0.000131161
8.3722e-07
-0.000131074
6.39808e-07
-0.000130876
5.94649e-07
-0.000129948
5.21967e-07
-0.000128166
1.15234e-06
-0.000127147
1.59813e-06
-0.000126916
2.03007e-06
-0.000127492
2.24939e-06
-0.000129868
1.70098e-06
-0.000131899
1.55287e-06
-0.000133159
1.24736e-06
-0.000133748
8.30384e-07
-0.000133637
5.93298e-07
-0.000133112
6.25236e-07
-0.000130264
6.98883e-07
-0.000127107
1.31062e-06
-0.000125986
1.69774e-06
-0.00012587
1.70458e-06
-0.000126201
1.56289e-06
-0.000129751
1.1808e-06
-0.000134141
1.11478e-06
-0.000135937
8.35029e-07
-0.000136281
9.75325e-07
-0.000136231
9.6816e-07
-0.000135942
8.96335e-07
-0.000132332
1.05265e-06
-0.000127737
1.68021e-06
-0.000126583
1.77058e-06
-0.000126449
1.49333e-06
-0.000126448
1.28052e-06
-0.000127377
1.11907e-06
-0.000132207
5.22376e-07
-0.000136597
2.20639e-07
-0.000137706
6.21339e-07
-0.000137748
7.85876e-07
-0.000137629
9.30086e-07
-0.000136286
1.54995e-06
-0.000131564
2.19923e-06
-0.00012795
1.89186e-06
-0.000127073
1.22766e-06
-0.000127001
8.40389e-07
-0.000127041
4.69154e-07
-0.000128479
-2.01298e-07
-0.000133638
-3.70348e-07
-0.000137536
1.39525e-07
-0.000138398
7.29525e-07
-0.000138466
1.17125e-06
-0.000138102
1.74235e-06
-0.000136933
2.29714e-06
-0.000133427
2.2984e-06
-0.000129225
1.57405e-06
-0.000127659
6.97976e-07
-0.000127424
-4.96833e-09
-0.000127448
-6.62141e-07
-0.000128153
-1.21571e-06
-0.000132477
-1.13373e-06
-0.00013724
-5.55398e-09
-0.000138708
1.19433e-06
-0.000138935
1.74506e-06
-0.000138883
2.07849e-06
-0.000138461
2.15271e-06
-0.000135513
1.86591e-06
-0.000130046
9.26657e-07
-0.000127321
-6.58048e-07
-0.000126616
-1.57305e-06
-0.000126575
-2.4044e-06
-0.000126725
-2.52068e-06
-0.000129416
-2.65281e-06
-0.000135663
-1.51153e-06
-0.000138962
5.38589e-07
-0.000139626
1.61565e-06
-0.000139719
2.02313e-06
-0.000139586
2.18727e-06
-0.000137034
1.93326e-06
-0.000130455
5.41574e-07
-0.00012583
-2.19969e-06
-0.000123583
-4.17508e-06
-0.000123079
-5.1308e-06
-0.000123135
-6.04034e-06
-0.000124627
-6.47613e-06
-0.000129518
-6.12824e-06
-0.000133651
-4.43231e-06
-0.000135619
-2.97336e-06
-0.000136444
-2.31502e-06
-0.00013643
-2.13786e-06
-0.000134269
-2.2126e-06
-0.00012943
-4.28015e-06
-0.000123557
-7.08122e-06
-0.000119159
-1.07999e-05
-0.000117001
-1.39495e-05
-0.000117324
-1.58879e-05
-0.000121008
-1.7576e-05
-0.0001251
-1.92144e-05
-0.000127375
-2.05653e-05
-0.000122497
-3.04132e-05
5.78829e-05
-0.000127658
1.89163e-06
-0.000129253
1.19889e-06
-0.000130772
4.50872e-07
-0.000131062
-6.95758e-08
-0.000130927
-1.1877e-08
-0.000130125
4.17743e-07
-0.000127726
1.42444e-06
-0.000126302
2.03272e-06
-0.000125968
2.40092e-06
-0.000126187
2.75703e-06
-0.000128089
2.32531e-06
-0.000130966
1.70638e-06
-0.000132861
1.07116e-06
-0.0001336
6.92737e-07
-0.000133584
3.29822e-07
-0.000133428
2.33832e-07
-0.000131375
6.6906e-07
-0.000127619
1.71765e-06
-0.000126164
1.97593e-06
-0.000125867
1.94728e-06
-0.000125803
1.90266e-06
-0.00012649
1.76227e-06
-0.000131021
1.16868e-06
-0.000134494
7.10231e-07
-0.000135406
5.72893e-07
-0.00013558
6.34099e-07
-0.00013556
7.33481e-07
-0.000134543
1.12894e-06
-0.000130034
2.14951e-06
-0.000126848
2.11084e-06
-0.000126176
1.83747e-06
-0.000126116
1.52617e-06
-0.000126155
1.18867e-06
-0.000128189
4.93143e-07
-0.000132846
-1.07875e-07
-0.000135892
2.97553e-07
-0.000136582
5.70151e-07
-0.000136616
1.06225e-06
-0.000135905
1.93531e-06
-0.000134224
2.58965e-06
-0.000131355
2.5501e-06
-0.000128293
1.99693e-06
-0.000127381
1.2475e-06
-0.000127287
4.09547e-07
-0.00012752
-5.21488e-07
-0.000128513
-9.00972e-07
-0.000132185
-7.4723e-07
-0.000135531
1.02441e-07
-0.000136488
1.18507e-06
-0.000136577
2.12086e-06
-0.000136263
2.73325e-06
-0.000135991
2.7643e-06
-0.00013449
2.36936e-06
-0.000130781
1.64375e-06
-0.000128702
4.17338e-07
-0.000128169
-5.75535e-07
-0.000127903
-1.36615e-06
-0.000127929
-1.24817e-06
-0.000129061
-1.41926e-06
-0.000133963
-7.26498e-07
-0.000136974
1.12785e-06
-0.000137631
2.13945e-06
-0.000137785
2.60372e-06
-0.00013783
2.35711e-06
-0.000137346
2.13844e-06
-0.000133132
1.53619e-06
-0.000128849
-2.36889e-07
-0.000126877
-1.82947e-06
-0.000126064
-2.63988e-06
-0.000125847
-2.73047e-06
-0.000126098
-2.8664e-06
-0.000129801
-2.74822e-06
-0.0001355
-1.0782e-06
-0.000138116
1.09004e-06
-0.000138938
2.08167e-06
-0.000139122
2.25693e-06
-0.000139028
1.99708e-06
-0.000135717
1.47523e-06
-0.000129091
-1.56083e-07
-0.000124918
-3.17647e-06
-0.000122973
-5.21836e-06
-0.000122412
-6.17787e-06
-0.000122481
-6.84589e-06
-0.000124047
-7.11876e-06
-0.000128536
-6.57489e-06
-0.000132096
-5.07461e-06
-0.000133994
-3.945e-06
-0.000134838
-3.69628e-06
-0.000134719
-3.72634e-06
-0.000132832
-4.24025e-06
-0.000128625
-6.45075e-06
-0.000122912
-9.36879e-06
-0.000118227
-1.33147e-05
-0.000116081
-1.62133e-05
-0.000117059
-1.78521e-05
-0.000121889
-2.03968e-05
-0.000125321
-2.22786e-05
-0.000124029
-2.76276e-05
5.83885e-05
-0.00013004
1.82138e-06
-0.000130833
1.09998e-06
-0.000130863
1.94093e-07
-0.000130716
-2.9526e-07
-0.000129273
4.14266e-08
-0.000126458
1.15985e-06
-0.000125161
1.73661e-06
-0.000124839
2.03376e-06
-0.000124868
2.3108e-06
-0.000126785
2.56466e-06
-0.000130962
2.16802e-06
-0.000133152
1.63617e-06
-0.000133733
1.16529e-06
-0.00013371
6.32037e-07
-0.00013359
1.93555e-07
-0.000131884
6.31803e-07
-0.000127494
1.73512e-06
-0.000125424
1.93464e-06
-0.000125087
1.91183e-06
-0.000125055
1.75636e-06
-0.000125326
1.47853e-06
-0.000127893
1.48727e-06
-0.000132718
5.14246e-07
-0.000134798
7.97245e-07
-0.000135137
7.86007e-07
-0.000135125
9.35473e-07
-0.000134413
1.54109e-06
-0.000131823
2.47336e-06
-0.000128728
2.56429e-06
-0.000126777
2.02666e-06
-0.000126327
1.70698e-06
-0.000126317
1.10711e-06
-0.000126821
4.40013e-08
-0.000128726
-6.19257e-07
-0.000132573
-1.50045e-07
-0.000134498
5.74303e-07
-0.000134889
1.40977e-06
-0.000134529
2.41406e-06
-0.00013399
3.08093e-06
-0.000133568
3.02577e-06
-0.000132062
2.62515e-06
-0.000129993
1.70863e-06
-0.000129039
5.9361e-07
-0.000128716
-4.50421e-07
-0.00012834
-1.11678e-06
-0.000128314
-8.2179e-07
-0.000129078
-6.17428e-07
-0.00013231
3.16722e-07
-0.000134277
1.82187e-06
-0.000134992
2.78294e-06
-0.000135674
3.12083e-06
-0.000135956
2.68725e-06
-0.000135866
2.30156e-06
-0.000133833
1.71416e-06
-0.000130589
4.1506e-07
-0.000128712
-8.71713e-07
-0.00012763
-1.47014e-06
-0.000126839
-1.31908e-06
-0.000126878
-1.07038e-06
-0.000129026
-9.24724e-07
-0.000134177
2.6672e-07
-0.000136839
1.99e-06
-0.000137742
2.68696e-06
-0.000138022
2.493e-06
-0.000138044
2.15908e-06
-0.000136687
1.89531e-06
-0.000131477
9.0509e-07
-0.000127463
-1.16148e-06
-0.000125432
-2.57577e-06
-0.000124568
-2.82642e-06
-0.000124548
-3.0758e-06
-0.000125114
-3.25065e-06
-0.000130085
-2.95833e-06
-0.000135818
-7.60308e-07
-0.000138351
1.3023e-06
-0.000138935
1.96484e-06
-0.000139065
1.90784e-06
-0.00013859
1.60447e-06
-0.000134596
9.67217e-07
-0.00012832
-1.09682e-06
-0.000124135
-3.96985e-06
-0.000121935
-6.01645e-06
-0.000121212
-6.80156e-06
-0.000121312
-7.22215e-06
-0.000123313
-7.75095e-06
-0.00012788
-7.28225e-06
-0.000131351
-6.07649e-06
-0.000133275
-5.4476e-06
-0.00013392
-5.55736e-06
-0.000133622
-5.63598e-06
-0.000131673
-6.51878e-06
-0.000127735
-8.55851e-06
-0.000121955
-1.16698e-05
-0.00011697
-1.55956e-05
-0.000115429
-1.80066e-05
-0.000118052
-1.94573e-05
-0.000122867
-2.47166e-05
-0.000126402
-2.5006e-05
5.82921e-05
-0.000132556
1.88681e-06
-0.000132388
1.44526e-06
-0.000131919
6.9406e-07
-0.000129508
7.45529e-08
-0.000125137
1.15552e-06
-0.000123234
1.61387e-06
-0.000122923
1.69644e-06
-0.000122905
1.64336e-06
-0.000123758
1.57541e-06
-0.000128363
1.65296e-06
-0.000133657
1.35989e-06
-0.000134794
1.28003e-06
-0.000134686
1.33587e-06
-0.000134416
1.39085e-06
-0.00013286
1.14678e-06
-0.000128661
2.12673e-06
-0.000125682
2.45073e-06
-0.000124756
1.89536e-06
-0.000124575
1.77886e-06
-0.000124519
1.45063e-06
-0.000125323
6.39392e-07
-0.000128848
-3.88274e-07
-0.000132893
2.87458e-07
-0.000134473
7.72107e-07
-0.000134622
1.41917e-06
-0.00013404
2.34171e-06
-0.000132565
3.16459e-06
-0.000131035
3.17629e-06
-0.000128962
2.50108e-06
-0.000127936
1.90787e-06
-0.000127764
1.02797e-06
-0.000128202
-1.05939e-08
-0.000128108
-8.42499e-07
-0.00012813
-6.50901e-07
-0.000129687
-2.35625e-07
-0.000131766
1.05925e-06
-0.000132529
2.3763e-06
-0.000132856
3.4052e-06
-0.000133524
3.13134e-06
-0.000133819
2.9229e-06
-0.000133829
2.24131e-06
-0.000132742
1.50062e-06
-0.000130961
3.14959e-07
-0.000129587
-7.34996e-07
-0.000128116
-1.08082e-06
-0.000126769
-4.3578e-07
-0.000126545
9.73852e-08
-0.000127902
4.08123e-07
-0.000131946
1.44346e-06
-0.000134499
2.78091e-06
-0.000135935
3.04461e-06
-0.000136717
2.50492e-06
-0.000136806
2.0481e-06
-0.000136387
1.67761e-06
-0.000132976
9.85296e-07
-0.000129255
-2.9843e-07
-0.000126709
-1.1619e-06
-0.000125435
-9.35331e-07
-0.000125226
-8.89767e-07
-0.000125554
-9.76894e-07
-0.000129975
-7.91746e-07
-0.000135611
7.41052e-07
-0.000137769
2.28646e-06
-0.000138259
2.48041e-06
-0.000138365
2.19976e-06
-0.00013826
2.08231e-06
-0.000135143
1.89128e-06
-0.000129032
5.02618e-07
-0.000125544
-1.68694e-06
-0.000124001
-2.815e-06
-0.000123426
-3.30452e-06
-0.00012346
-3.5009e-06
-0.000124425
-3.73201e-06
-0.000130359
-3.24013e-06
-0.000135874
-1.12352e-06
-0.000137938
8.35337e-07
-0.000138466
1.43583e-06
-0.000138624
1.2559e-06
-0.000138045
1.06308e-06
-0.000133505
5.63717e-07
-0.000126663
-1.28085e-06
-0.000122449
-4.25364e-06
-0.000120717
-6.31982e-06