/*--------------------------------*- C++ -*----------------------------------*\
  =========                 |
  \\      /  F ield         | OpenFOAM: The Open Source CFD Toolbox
   \\    /   O peration     | Website:  https://openfoam.org
    \\  /    A nd           | Version:  12
     \\/     M anipulation  |
\*---------------------------------------------------------------------------*/
FoamFile
{
    format      ascii;
    class       volScalarField;
    location    "21";
    object      T;
}
// * * * * * * * * * * * * * * * * * * * * * * * * * * * * * * * * * * * * * //

dimensions      [0 0 0 1 0 0 0];

internalField   nonuniform List<scalar> 
9801
(
0.80534
0.805136
0.808077
0.816269
0.825465
0.830178
0.832267
0.8326
0.828094
0.821659
0.820458
0.821156
0.824752
0.832322
0.839642
0.84351
0.845442
0.845986
0.842629
0.836583
0.833441
0.833758
0.836248
0.844148
0.853045
0.858186
0.860793
0.862542
0.861968
0.8554
0.848927
0.847728
0.848384
0.850397
0.858303
0.868922
0.874859
0.877503
0.87923
0.879841
0.875155
0.867636
0.865072
0.865641
0.866669
0.869695
0.878618
0.888492
0.893348
0.895577
0.896978
0.897057
0.891726
0.885028
0.883851
0.884775
0.886508
0.890708
0.90018
0.908455
0.912455
0.914587
0.916229
0.91632
0.910322
0.904475
0.904293
0.905735
0.908399
0.915769
0.926128
0.932381
0.935465
0.937559
0.939318
0.937034
0.928951
0.925609
0.927043
0.929937
0.937274
0.94962
0.958538
0.963439
0.966418
0.968699
0.968224
0.95869
0.951301
0.952527
0.957324
0.968456
0.989121
1.00776
1.0224
1.03284
1.02504
1.11331
1.55419
0.813759
0.815297
0.818712
0.822434
0.826166
0.829079
0.829536
0.828164
0.82757
0.827972
0.828574
0.831261
0.8352
0.839149
0.842613
0.844838
0.845031
0.842203
0.839537
0.838969
0.839517
0.841167
0.846612
0.852513
0.857479
0.860767
0.862693
0.862269
0.858139
0.854969
0.854169
0.854136
0.855084
0.859279
0.866449
0.873053
0.876998
0.879177
0.880063
0.877572
0.873767
0.871923
0.871423
0.872156
0.873652
0.877537
0.885147
0.891808
0.895264
0.89699
0.897519
0.895821
0.892249
0.889889
0.889822
0.891168
0.893174
0.897326
0.905556
0.9119
0.915033
0.916686
0.917676
0.91669
0.912104
0.908809
0.909206
0.910974
0.913605
0.920337
0.930063
0.935896
0.938827
0.940774
0.942132
0.939868
0.933304
0.930649
0.932087
0.934907
0.940601
0.952385
0.962026
0.967454
0.970995
0.973876
0.974767
0.967067
0.959826
0.960118
0.965219
0.973485
0.989439
1.00512
1.01924
1.02962
1.02238
1.11559
1.57899
0.826943
0.82824
0.827944
0.828176
0.82639
0.824465
0.825229
0.828235
0.832688
0.838801
0.843404
0.845176
0.845765
0.846713
0.84721
0.843697
0.840666
0.840879
0.84248
0.844205
0.848519
0.855505
0.860209
0.862311
0.863891
0.86566
0.863891
0.859256
0.858619
0.85966
0.860821
0.862652
0.866698
0.87262
0.87731
0.87953
0.880658
0.880896
0.879244
0.878188
0.878476
0.879347
0.880916
0.882465
0.884253
0.888284
0.893834
0.896502
0.897804
0.898359
0.898913
0.899291
0.898421
0.898894
0.899868
0.901119
0.902887
0.90652
0.913042
0.916979
0.918915
0.920186
0.921584
0.922397
0.920057
0.91882
0.919744
0.921761
0.924279
0.929651
0.937664
0.942582
0.945251
0.947297
0.949256
0.949412
0.945041
0.942561
0.943783
0.946852
0.951043
0.961574
0.973457
0.980198
0.984348
0.987756
0.989758
0.984992
0.978526
0.9776
0.982442
0.989827
1.00266
1.01977
1.03551
1.04909
1.04787
1.14441
1.61091
0.842468
0.843951
0.841966
0.835305
0.826483
0.824005
0.825121
0.829091
0.839109
0.850898
0.857901
0.86067
0.861759
0.860759
0.852703
0.843849
0.842331
0.8433
0.846304
0.852041
0.860315
0.869089
0.874
0.87581
0.876053
0.87185
0.865094
0.863048
0.863735
0.866182
0.870026
0.874001
0.878994
0.884685
0.887276
0.887708
0.886688
0.8853
0.885201
0.885773
0.887809
0.890128
0.892176
0.894081
0.895941
0.898682
0.901339
0.902658
0.903891
0.906022
0.908395
0.910272
0.911537
0.911694
0.912635
0.913686
0.914892
0.916407
0.920033
0.924568
0.927896
0.930813
0.933455
0.935786
0.935911
0.934047
0.934206
0.935502
0.93744
0.940351
0.947446
0.954593
0.958852
0.962126
0.965103
0.967643
0.965221
0.960611
0.960218
0.962979
0.96687
0.973715
0.986533
0.996415
1.00228
1.00671
1.01047
1.00926
1.00326
1.00011
1.00249
1.0095
1.01826
1.03263
1.04798
1.0614
1.06556
1.18202
1.64493
0.854614
0.857461
0.854886
0.841257
0.831347
0.829834
0.830199
0.832222
0.842051
0.859638
0.868177
0.871549
0.872964
0.868335
0.856844
0.85094
0.850439
0.851245
0.853133
0.85862
0.870325
0.880042
0.884091
0.884562
0.881776
0.876904
0.873922
0.873314
0.87408
0.875918
0.879749
0.885038
0.890071
0.893339
0.894686
0.894681
0.894754
0.896004
0.897784
0.899042
0.899847
0.90213
0.904496
0.905576
0.905452
0.905953
0.908583
0.912623
0.916053
0.9195
0.922629
0.9251
0.926679
0.926076
0.925341
0.924617
0.924657
0.925996
0.929783
0.937179
0.942769
0.946658
0.94986
0.952511
0.953659
0.950653
0.948076
0.947717
0.949257
0.951919
0.958308
0.968541
0.975456
0.979849
0.983264
0.98626
0.986012
0.979504
0.97541
0.976626
0.980387
0.985608
0.997177
1.01116
1.01995
1.0253
1.02987
1.03177
1.02701
1.0217
1.01981
1.02315
1.0304
1.04073
1.05469
1.06631
1.07088
1.20588
1.66846
0.86383
0.864962
0.856329
0.845302
0.840583
0.839931
0.84083
0.843754
0.853251
0.867474
0.875945
0.878168
0.876503
0.870245
0.864896
0.86244
0.862553
0.864462
0.868425
0.872936
0.87863
0.885333
0.88836
0.888647
0.88744
0.887153
0.887823
0.888448
0.889665
0.89137
0.893054
0.894742
0.895475
0.896843
0.900549
0.904448
0.907596
0.910724
0.913315
0.915374
0.915861
0.915239
0.91436
0.912796
0.912423
0.9137
0.917481
0.925266
0.931621
0.935766
0.938645
0.941178
0.942809
0.93991
0.934846
0.933228
0.934268
0.936438
0.940538
0.949864
0.958219
0.962976
0.96607
0.968574
0.969858
0.965519
0.959074
0.957625
0.959606
0.962701
0.968378
0.979942
0.989992
0.995204
0.998458
1.00129
1.00208
0.995692
0.988816
0.986844
0.989641
0.994271
1.00246
1.01678
1.02867
1.03604
1.04154
1.04576
1.04448
1.03826
1.03353
1.03272
1.03577
1.04231
1.05354
1.06555
1.0713
1.22053
1.682
0.866274
0.863954
0.858069
0.854521
0.853195
0.853948
0.857031
0.861754
0.866732
0.873133
0.877927
0.879492
0.878821
0.878043
0.877589
0.87749
0.878778
0.881015
0.883128
0.885141
0.885422
0.885595
0.889288
0.894251
0.897205
0.900071
0.902895
0.904951
0.905567
0.905273
0.904187
0.900429
0.898547
0.899656
0.904427
0.913191
0.920537
0.925285
0.92804
0.930046
0.930675
0.927035
0.920529
0.917849
0.918686
0.920784
0.924923
0.935237
0.945507
0.950468
0.953148
0.955332
0.955351
0.949077
0.941685
0.939834
0.941288
0.943858
0.948684
0.959087
0.970157
0.975586
0.978238
0.98019
0.980489
0.975769
0.968534
0.965475
0.966505
0.969618
0.97491
0.986083
0.998317
1.00492
1.00838
1.01081
1.01174
1.00735
0.999495
0.995886
0.996464
0.999898
1.00526
1.01588
1.03003
1.0403
1.0465
1.05107
1.05346
1.05045
1.04536
1.04166
1.04113
1.04325
1.04974
1.06192
1.07024
1.22946
1.68997
0.864929
0.865313
0.865852
0.866575
0.867945
0.870958
0.873587
0.875341
0.877429
0.876896
0.876124
0.87816
0.882188
0.886502
0.890215
0.8934
0.895
0.895066
0.894289
0.891252
0.887001
0.886265
0.888052
0.895152
0.90563
0.912396
0.915872
0.917924
0.919038
0.917346
0.909806
0.903689
0.902964
0.904001
0.906708
0.91733
0.930398
0.936198
0.938966
0.941177
0.941416
0.934269
0.925469
0.923548
0.924588
0.926335
0.929708
0.940659
0.953888
0.959541
0.961915
0.962689
0.960532
0.954961
0.949384
0.947243
0.948041
0.950066
0.95406
0.964433
0.975906
0.981477
0.984003
0.98523
0.985235
0.982946
0.977101
0.973107
0.973317
0.975649
0.979245
0.986742
0.999309
1.00837
1.01242
1.01491
1.01672
1.01628
1.01039
1.00498
1.0039
1.00559
1.00911
1.01411
1.02478
1.03677
1.04517
1.0509
1.05536
1.05765
1.05637
1.05236
1.04774
1.04536
1.04643
1.05444
1.06577
1.23718
1.69551
0.861271
0.863717
0.867858
0.874801
0.881462
0.884745
0.88677
0.886575
0.882132
0.876714
0.875506
0.876486
0.881327
0.891354
0.900412
0.903825
0.905797
0.90649
0.90229
0.893442
0.889754
0.889862
0.890884
0.896397
0.909907
0.920133
0.9237
0.926089
0.927162
0.922549
0.912385
0.908289
0.908702
0.909903
0.912207
0.921233
0.936015
0.943008
0.945612
0.946838
0.944231
0.937071
0.931455
0.929918
0.930925
0.932839
0.937082
0.94641
0.956694
0.96188
0.963689
0.963471
0.962438
0.960577
0.95639
0.95412
0.955031
0.957617
0.960861
0.965926
0.975637
0.982257
0.984957
0.986401
0.987657
0.988715
0.986321
0.982142
0.981159
0.982502
0.984274
0.986663
0.993756
1.00569
1.01326
1.01724
1.0202
1.02293
1.02239
1.01643
1.012
1.01087
1.01169
1.01441
1.01904
1.02891
1.04044
1.04924
1.0556
1.06045
1.06241
1.06155
1.05699
1.0498
1.04564
1.04756
1.05665
1.24283
1.69912
0.863233
0.866249
0.872321
0.882759
0.88826
0.891017
0.89207
0.888901
0.8815
0.878271
0.878236
0.879797
0.886536
0.898625
0.906042
0.909357
0.911554
0.910584
0.901446
0.894375
0.893743
0.894829
0.896948
0.904506
0.91752
0.924997
0.928642
0.93076
0.929718
0.921651
0.91547
0.91385
0.9144
0.915845
0.919776
0.929709
0.939442
0.944654
0.946596
0.945932
0.943184
0.940231
0.937457
0.936776
0.938213
0.941256
0.945074
0.949909
0.956046
0.960156
0.962088
0.963037
0.964332
0.965765
0.964645
0.962548
0.962681
0.964084
0.965245
0.966855
0.971215
0.980098
0.985727
0.988714
0.99112
0.99348
0.99509
0.991705
0.987308
0.985824
0.985783
0.986898
0.989608
0.998014
1.01096
1.01895
1.02372
1.02778
1.03072
1.02969
1.02241
1.01649
1.01432
1.01489
1.01752
1.02279
1.03323
1.04469
1.05344
1.05961
1.06412
1.06509
1.06341
1.05755
1.04851
1.04383
1.04418
1.24468
1.70152
0.86919
0.874617
0.882981
0.888932
0.892017
0.893684
0.891184
0.884777
0.882016
0.882079
0.88316
0.888209
0.898605
0.905797
0.90967
0.912397
0.913141
0.906988
0.900433
0.898674
0.899079
0.90016
0.90395
0.915391
0.923809
0.928175
0.930479
0.930558
0.925315
0.920606
0.918837
0.919069
0.920315
0.923704
0.929733
0.936103
0.9409
0.943383
0.944117
0.943783
0.944156
0.944061
0.943586
0.944271
0.946088
0.948418
0.949601
0.95038
0.952764
0.957884
0.961538
0.964221
0.967191
0.970118
0.972368
0.971499
0.968524
0.967008
0.966114
0.965872
0.967666
0.97452
0.985098
0.991634
0.995853
0.99902
1.0013
1.00119
0.995097
0.989297
0.986639
0.986311
0.988394
0.992132
1.00294
1.01752
1.02652
1.03091
1.03412
1.03626
1.03381
1.02545
1.01868
1.0167
1.01812
1.02154
1.02798
1.03944
1.05022
1.05708
1.0618
1.06524
1.0652
1.06302
1.05565
1.04563
1.03711
1.24196
1.70311
0.880673
0.888058
0.890937
0.892828
0.893835
0.890152
0.884647
0.88317
0.884119
0.885769
0.890957
0.902352
0.909666
0.912293
0.914134
0.914817
0.908361
0.901583
0.900494
0.901578
0.90281
0.905571
0.915114
0.924545
0.929013
0.930461
0.930041
0.925747
0.922294
0.921224
0.921888
0.923833
0.928019
0.932535
0.935288
0.937736
0.939773
0.940776
0.941066
0.942612
0.945566
0.948158
0.950527
0.951502
0.951581
0.951121
0.949596
0.948357
0.949352
0.95433
0.961957
0.967655
0.972273
0.975747
0.978067
0.97901
0.97489
0.968774
0.96515
0.964937
0.966794
0.970756
0.981744
0.993721
1.00024
1.00371
1.00602
1.00761
1.0039
0.994524
0.98857
0.987472
0.988654
0.990969
0.995858
1.00981
1.02456
1.03182
1.03541
1.03819
1.03918
1.03509
1.02715
1.02184
1.02091
1.02258
1.02651
1.03417
1.04536
1.05364
1.05873
1.06284
1.06536
1.06517
1.06179
1.05135
1.03797
1.23484
1.70414
0.894369
0.898626
0.898663
0.89683
0.891049
0.883021
0.880375
0.881309
0.883707
0.888441
0.900314
0.91326
0.917798
0.919228
0.919354
0.9126
0.902582
0.899627
0.900245
0.901736
0.905675
0.914472
0.92271
0.927812
0.93004
0.929579
0.925585
0.923407
0.923951
0.924593
0.926612
0.931029
0.934863
0.936957
0.936574
0.935378
0.935505
0.937983
0.941737
0.945465
0.949736
0.95426
0.95712
0.95848
0.956355
0.951266
0.946978
0.946364
0.947973
0.951941
0.962103
0.972406
0.978359
0.981192
0.983085
0.984206
0.980343
0.970384
0.965124
0.964935
0.966608
0.969291
0.977729
0.993081
1.00272
1.00633
1.00846
1.01011
1.00978
1.00234
0.99348
0.99054
0.991237
0.993536
0.996896
1.00267
1.01573
1.02808
1.03419
1.03728
1.03952
1.04039
1.03777
1.03189
1.02734
1.02616
1.02743
1.03104
1.03842
1.04852
1.05549
1.0601
1.06408
1.06581
1.06562
1.05823
1.04373
1.22712
1.70498
0.90344
0.907305
0.907729
0.902823
0.88829
0.880134
0.879654
0.88082
0.882878
0.89048
0.906627
0.916275
0.92013
0.921347
0.917154
0.908313
0.902988
0.901449
0.902452
0.90722
0.914953
0.920512
0.923878
0.926541
0.926814
0.92525
0.924705
0.92562
0.927526
0.931628
0.935285
0.937424
0.938541
0.93726
0.93334
0.930908
0.931655
0.935744
0.943926
0.951802
0.957511
0.960692
0.962545
0.963652
0.96002
0.949982
0.945043
0.945208
0.946926
0.950563
0.961872
0.975784
0.982393
0.985277
0.987024
0.987202
0.982446
0.973435
0.967672
0.96711
0.968656
0.971532
0.976224
0.987049
1.00014
1.00612
1.00839
1.00917
1.0096
1.0093
1.00392
0.998268
0.996992
0.998201
0.999967
1.00193
1.00572
1.01672
1.02853
1.0353
1.03925
1.04244
1.04462
1.04354
1.03768
1.03159
1.02893
1.02968
1.03288
1.04045
1.05028
1.05717
1.06218
1.06568
1.06697
1.06349
1.05199
1.2218
1.70596
0.905805
0.909373
0.909372
0.899763
0.887154
0.88197
0.881581
0.883301
0.890066
0.899885
0.908701
0.915575
0.917892
0.915966
0.911151
0.908341
0.907673
0.908287
0.911845
0.916801
0.920025
0.921812
0.92147
0.91906
0.919006
0.921789
0.926314
0.931695
0.937274
0.941241
0.943373
0.944105
0.941499
0.933774
0.928198
0.927761
0.929487
0.933789
0.945862
0.958719
0.964766
0.966951
0.968002
0.96688
0.959424
0.950032
0.946424
0.946754
0.948199
0.951243
0.960546
0.975908
0.984161
0.986943
0.987085
0.985131
0.983297
0.979321
0.974241
0.972994
0.974662
0.977372
0.979437
0.981743
0.989965
1.00095
1.00677
1.00951
1.012
1.01457
1.01562
1.01058
1.00484
1.00239
1.00157
1.00133
1.00307
1.00711
1.01824
1.03088
1.03887
1.04375
1.04721
1.04883
1.04737
1.04018
1.03256
1.02951
1.03057
1.03382
1.04174
1.05215
1.05937
1.06433
1.06669
1.06588
1.05963
1.22061
1.70739
0.905172
0.907285
0.902628
0.894831
0.89019
0.888203
0.889458
0.894849
0.901367
0.904494
0.906478
0.907961
0.908683
0.910119
0.911502
0.912872
0.915774
0.920421
0.923089
0.924079
0.923923
0.92022
0.914019
0.912212
0.913857
0.918755
0.929074
0.940415
0.946963
0.94954
0.950632
0.949931
0.942641
0.930619
0.926355
0.92683
0.928373
0.932034
0.946196
0.962237
0.967775
0.969953
0.970911
0.96744
0.959755
0.952671
0.949706
0.95051
0.953787
0.958684
0.963447
0.970819
0.979308
0.982914
0.98396
0.984616
0.986089
0.987154
0.98512
0.981522
0.980276
0.980306
0.980091
0.979764
0.981523
0.989555
1.00239
1.01082
1.01553
1.01931
1.0222
1.02292
1.01679
1.00837
1.00329
1.00183
1.00263
1.00479
1.00986
1.02262
1.03568
1.04312
1.04701
1.04978
1.05042
1.04781
1.04014
1.03274
1.03016
1.03113
1.03458
1.04348
1.05412
1.06094
1.06512
1.06606
1.06459
1.22401
1.70954
0.898147
0.898673
0.895999
0.896014
0.896524
0.89834
0.902359
0.905735
0.907611
0.907814
0.902283
0.898119
0.898804
0.903771
0.911949
0.920318
0.927596
0.931246
0.932367
0.93143
0.925889
0.915022
0.909069
0.908803
0.91018
0.914705
0.93006
0.946395
0.952841
0.955242
0.956247
0.952887
0.940544
0.931351
0.928441
0.928854
0.930896
0.937309
0.949281
0.961658
0.96796
0.969576
0.966912
0.96373
0.962328
0.959874
0.958214
0.958947
0.961173
0.963248
0.964131
0.964462
0.967868
0.976416
0.982942
0.987089
0.991086
0.99458
0.996165
0.992778
0.986831
0.982375
0.978874
0.97746
0.978499
0.981336
0.991486
1.00749
1.01786
1.02258
1.02537
1.02735
1.02653
1.01838
1.00855
1.00396
1.00378
1.00571
1.00874
1.0154
1.02863
1.03941
1.04491
1.04813
1.05025
1.05051
1.04738
1.04019
1.0339
1.03179
1.03258
1.03565
1.04466
1.05447
1.06086
1.0636
1.06768
1.23232
1.7125
0.889738
0.889564
0.892158
0.896315
0.90456
0.911274
0.913841
0.914043
0.912395
0.90555
0.896881
0.894731
0.895709
0.898925
0.910123
0.927042
0.935445
0.938151
0.939613
0.938072
0.926802
0.913205
0.909625
0.910032
0.91127
0.915535
0.931515
0.948525
0.954769
0.956951
0.955805
0.94836
0.94078
0.935299
0.933733
0.935371
0.940361
0.945788
0.949383
0.954691
0.960339
0.962872
0.963592
0.964725
0.966374
0.969154
0.970548
0.968697
0.966542
0.964615
0.961214
0.95953
0.960922
0.967483
0.980097
0.990806
0.997685
1.00151
1.00362
1.00334
0.995861
0.985171
0.979046
0.977789
0.97894
0.98089
0.984774
0.99802
1.01526
1.02316
1.02618
1.02744
1.02712
1.02514
1.01809
1.01093
1.00866
1.00992
1.01263
1.01536
1.02047
1.03144
1.04006
1.04472
1.04772
1.05
1.05134
1.04978
1.04329
1.03653
1.03328
1.03321
1.03503
1.04341
1.05337
1.05923
1.06792
1.24336
1.71614
0.883937
0.886174
0.891089
0.901807
0.913609
0.918478
0.920484
0.920963
0.914235
0.900429
0.894759
0.894843
0.896083
0.899444
0.914065
0.93202
0.938276
0.940576
0.941451
0.936182
0.923502
0.915382
0.912613
0.913223
0.916488
0.925073
0.936425
0.946631
0.951749
0.952062
0.947977
0.944683
0.943819
0.943182
0.943844
0.946056
0.948516
0.949975
0.948875
0.946789
0.948437
0.955494
0.962716
0.968327
0.974177
0.977995
0.979664
0.978125
0.971721
0.9634
0.95783
0.956776
0.958077
0.960901
0.972767
0.991196
1.00078
1.00409
1.00609
1.00715
1.00388
0.992764
0.982987
0.980381
0.981437
0.984748
0.989436
0.99412
1.00343
1.01518
1.02124
1.02388
1.02575
1.02736
1.02787
1.02453
1.01927
1.016
1.01474
1.01476
1.0164
1.02129
1.03193
1.04038
1.04569
1.05004
1.05361
1.05546
1.05374
1.04575
1.03702
1.03205
1.03105
1.03227
1.04188
1.05274
1.06639
1.25505
1.72007
0.882664
0.886428
0.896158
0.911747
0.919203
0.921599
0.923162
0.921614
0.909581
0.899117
0.896742
0.897004
0.898271
0.90491
0.921461
0.93361
0.9388
0.940575
0.937476
0.929271
0.923462
0.919918
0.91954
0.922307
0.928769
0.933463
0.936024
0.93947
0.942335
0.943853
0.944658
0.946104
0.948686
0.953197
0.956126
0.956447
0.954512
0.949865
0.943566
0.941428
0.942697
0.948025
0.960626
0.973895
0.981672
0.984786
0.986262
0.984929
0.975908
0.964127
0.95867
0.958201
0.959429
0.96199
0.968721
0.984627
0.999022
1.00418
1.00561
1.00381
1.00209
1.00029
0.994738
0.990131
0.989482
0.990876
0.99249
0.993276
0.99427
1.00017
1.01206
1.02073
1.02566
1.02995
1.0337
1.03547
1.03229
1.02397
1.01678
1.01375
1.01369
1.01562
1.02197
1.03415
1.04457
1.05089
1.05449
1.05651
1.05711
1.0542
1.04576
1.03568
1.02931
1.02765
1.02998
1.0423
1.0614
1.26538
1.72314
0.884899
0.890291
0.90566
0.917402
0.921285
0.92331
0.923303
0.914478
0.904845
0.900994
0.900165
0.901247
0.906146
0.916011
0.925844
0.932599
0.935127
0.933502
0.928293
0.925859
0.925971
0.926912
0.929753
0.934002
0.936823
0.937574
0.933962
0.930385
0.931367
0.937133
0.944352
0.951376
0.958376
0.962383
0.964031
0.963743
0.958427
0.94654
0.940025
0.939436
0.940714
0.943762
0.956933
0.976319
0.984578
0.987263
0.988887
0.987924
0.980473
0.968535
0.962125
0.961721
0.964364
0.97005
0.974497
0.978249
0.986971
0.995976
0.999955
1.00169
1.00373
1.00612
1.00788
1.00491
0.99943
0.99577
0.993147
0.990516
0.990071
0.992117
0.999011
1.01327
1.02552
1.03242
1.03582
1.03796
1.03845
1.03378
1.02308
1.01513
1.01326
1.01423
1.01647
1.02467
1.03916
1.04944
1.05406
1.05588
1.05674
1.05656
1.05323
1.0448
1.03426
1.02684
1.025
1.02957
1.0516
1.27115
1.72454
0.887916
0.900783
0.915366
0.921799
0.923696
0.923814
0.91644
0.907264
0.903693
0.903658
0.905198
0.91102
0.91791
0.921692
0.924961
0.927462
0.9275
0.926289
0.926277
0.927888
0.931339
0.936864
0.940471
0.941943
0.941473
0.935607
0.927641
0.925306
0.926449
0.93133
0.944693
0.959234
0.966753
0.969213
0.969878
0.96736
0.95659
0.944794
0.940594
0.94078
0.942068
0.945903
0.956666
0.973824
0.984291
0.987327
0.986345
0.98225
0.979848
0.976752
0.972443
0.971404
0.973181
0.975355
0.976328
0.975011
0.974809
0.980706
0.992527
1.00182
1.0077
1.01265
1.01582
1.01693
1.01228
1.00258
0.994005
0.989995
0.989805
0.99138
0.993766
1.00263
1.02055
1.03159
1.03565
1.03776
1.03856
1.03746
1.03151
1.02208
1.01685
1.01643
1.01823
1.02131
1.02871
1.04157
1.05
1.05312
1.05418
1.0549
1.05522
1.05355
1.04634
1.0345
1.02591
1.02241
1.0362
1.27103
1.72396
0.892752
0.910075
0.918934
0.922655
0.923245
0.918224
0.910697
0.907335
0.906597
0.908299
0.914634
0.921037
0.923826
0.924219
0.920641
0.917961
0.919156
0.923208
0.928346
0.935043
0.941814
0.945461
0.946987
0.946748
0.940581
0.929621
0.924887
0.924957
0.926438
0.929311
0.943559
0.963263
0.970075
0.972337
0.973221
0.968398
0.956504
0.946968
0.943362
0.944058
0.948592
0.955941
0.960877
0.965943
0.974111
0.979113
0.980477
0.981494
0.983054
0.985276
0.986913
0.984887
0.981406
0.978214
0.973864
0.969985
0.96964
0.97173
0.979649
0.996309
1.00995
1.01622
1.01899
1.02072
1.02032
1.01285
0.999627
0.992426
0.991372
0.992955
0.996607
1.00219
1.01151
1.02439
1.03152
1.03413
1.03502
1.03565
1.03635
1.03407
1.02803
1.02326
1.02101
1.02037
1.02134
1.02711
1.0393
1.04792
1.05161
1.05366
1.05591
1.05773
1.05648
1.04797
1.0336
1.02209
1.01975
1.26457
1.72167
0.900278
0.910686
0.916862
0.918855
0.916933
0.913294
0.911787
0.911707
0.913673
0.918366
0.922536
0.924615
0.925025
0.920248
0.913874
0.912537
0.914176
0.920521
0.933304
0.945337
0.950636
0.952236
0.952074
0.947641
0.935714
0.926563
0.924632
0.925424
0.9271
0.93345
0.948104
0.96268
0.969974
0.971844
0.968461
0.963089
0.959207
0.954295
0.952422
0.954207
0.958216
0.960876
0.961339
0.959109
0.959104
0.965725
0.975745
0.983317
0.98964
0.994814
0.99733
0.996908
0.99062
0.98028
0.971596
0.968344
0.968789
0.970417
0.973398
0.985077
1.00577
1.01625
1.01945
1.02014
1.018
1.01463
1.00926
1.00205
0.998957
0.999692
1.00191
1.00382
1.0055
1.01091
1.02167
1.02899
1.03264
1.03562
1.03933
1.04217
1.04111
1.03352
1.02488
1.01958
1.0181
1.01881
1.02476
1.0382
1.04866
1.05376
1.05653
1.0589
1.05948
1.05734
1.04706
1.02787
1.01235
1.25364
1.71914
0.904364
0.907035
0.908304
0.908671
0.910618
0.913241
0.916773
0.921479
0.925111
0.926894
0.927619
0.926682
0.920318
0.913046
0.910673
0.911444
0.913143
0.918314
0.936305
0.951016
0.955615
0.957254
0.957086
0.948604
0.935096
0.928041
0.926596
0.928173
0.934333
0.94179
0.947628
0.955159
0.961194
0.963193
0.963219
0.963864
0.96426
0.965396
0.96602
0.965316
0.964439
0.962349
0.956424
0.952542
0.952765
0.955807
0.966334
0.983038
0.995132
1.00066
1.0031
1.00391
1.00029
0.986777
0.974094
0.97011
0.970473
0.973124
0.978678
0.984999
0.994119
1.00638
1.01273
1.01458
1.01542
1.01657
1.01758
1.01647
1.01198
1.00787
1.00545
1.0034
1.00172
1.00289
1.00876
1.02115
1.03133
1.03796
1.04267
1.04559
1.04715
1.04467
1.03412
1.0225
1.01702
1.01649
1.01792
1.02475
1.04011
1.0515
1.05553
1.05732
1.05878
1.05893
1.05548
1.03955
1.01829
1.24072
1.71748
0.904715
0.90258
0.899419
0.900569
0.905242
0.914055
0.92414
0.93152
0.934335
0.934781
0.932758
0.925903
0.915282
0.909605
0.9093
0.91054
0.912623
0.920552
0.93786
0.951418
0.95628
0.957078
0.952963
0.946163
0.939349
0.934499
0.934453
0.93782
0.942419
0.944501
0.945236
0.944473
0.946643
0.954056
0.961273
0.966861
0.973014
0.976904
0.977793
0.975305
0.969151
0.959344
0.95145
0.949404
0.950338
0.952253
0.957602
0.976895
0.995623
1.00196
1.00394
1.00278
0.997969
0.991889
0.983917
0.978647
0.978316
0.980781
0.983493
0.985238
0.986361
0.989867
0.99982
1.00911
1.01474
1.01913
1.02345
1.02594
1.0252
1.01871
1.00984
1.0029
1
1
1.0019
1.00965
1.02561
1.03817
1.04361
1.04586
1.04749
1.04762
1.04349
1.03198
1.02154
1.01755
1.01738
1.01946
1.02706
1.04149
1.05068
1.0538
1.05585
1.05704
1.05697
1.04906
1.03356
1.23201
1.71733
0.902466
0.895951
0.894505
0.895371
0.898496
0.910108
0.927202
0.936553
0.939969
0.941338
0.940055
0.928615
0.915547
0.911034
0.911036
0.91315
0.919104
0.92594
0.934039
0.944037
0.949247
0.950062
0.949442
0.948913
0.947886
0.946711
0.945768
0.945739
0.946134
0.94441
0.939258
0.937412
0.938824
0.944229
0.956738
0.971168
0.98041
0.984434
0.986008
0.984449
0.974573
0.959985
0.952468
0.950918
0.951969
0.955486
0.962437
0.971553
0.985354
0.995123
0.997956
0.997874
0.997619
0.997603
0.996733
0.993335
0.98953
0.987467
0.986145
0.983686
0.981248
0.981705
0.985886
0.998136
1.01208
1.02145
1.02622
1.02876
1.03024
1.02864
1.01883
1.00671
1.0009
1.00034
1.00188
1.00478
1.01496
1.03173
1.04086
1.04375
1.04465
1.04447
1.04457
1.0428
1.03481
1.02594
1.0214
1.02042
1.0209
1.02605
1.03835
1.04691
1.05106
1.05435
1.05675
1.05493
1.04746
1.22988
1.71887
0.902643
0.894298
0.894376
0.895517
0.897134
0.905058
0.925947
0.937913
0.941149
0.941925
0.938182
0.929967
0.921111
0.917164
0.917895
0.921453
0.925607
0.927422
0.928798
0.93103
0.937933
0.945298
0.949911
0.954087
0.957367
0.958456
0.956397
0.952267
0.946923
0.939679
0.934927
0.934375
0.935674
0.938458
0.949462
0.97044
0.982228
0.986025
0.987629
0.986418
0.9786
0.966444
0.958562
0.957
0.958962
0.963337
0.966783
0.968525
0.971081
0.978661
0.988288
0.994483
0.998464
1.00277
1.00614
1.00703
1.00325
0.996055
0.988578
0.982438
0.97954
0.979719
0.98132
0.986216
1.00291
1.01955
1.02641
1.02892
1.03027
1.02964
1.026
1.01651
1.00788
1.00498
1.00576
1.00792
1.0104
1.01737
1.02981
1.03765
1.04084
1.04278
1.04532
1.04763
1.0476
1.04031
1.02889
1.02119
1.01885
1.01886
1.02229
1.03393
1.04429
1.05081
1.05584
1.05719
1.05815
1.23523
1.72186
0.905102
0.896811
0.896317
0.8977
0.900845
0.908133
0.920711
0.932907
0.937034
0.93714
0.935846
0.934556
0.931632
0.928044
0.926431
0.926891
0.927982
0.927274
0.924293
0.924201
0.927499
0.937798
0.950536
0.959177
0.964163
0.966024
0.965665
0.959981
0.949292
0.940224
0.936253
0.935934
0.937092
0.939997
0.946716
0.961323
0.976741
0.982746
0.983828
0.982316
0.980391
0.977416
0.972179
0.968479
0.967519
0.968114
0.968692
0.9665
0.964382
0.965777
0.973288
0.987077
0.999276
1.00673
1.01093
1.01323
1.01382
1.00836
0.995941
0.985017
0.980754
0.980809
0.982555
0.986268
0.994107
1.00981
1.02174
1.02593
1.02696
1.02671
1.02691
1.02656
1.02151
1.01476
1.01091
1.00922
1.00838
1.00904
1.01409
1.02644
1.03675
1.04265
1.04669
1.05018
1.05216
1.05174
1.04323
1.02896
1.01929
1.01637
1.0162
1.01908
1.03168
1.04478
1.05347
1.05651
1.06391
1.24442
1.72554
0.908435
0.902061
0.901556
0.903744
0.907123
0.910087
0.913676
0.921583
0.930768
0.935276
0.937315
0.939264
0.940358
0.938989
0.935043
0.931272
0.9278
0.923971
0.921788
0.922092
0.923535
0.928712
0.944814
0.960038
0.966006
0.96842
0.969752
0.968183
0.957064
0.944631
0.940036
0.940217
0.942665
0.946626
0.949231
0.952205
0.960926
0.972334
0.978662
0.981215
0.983224
0.985876
0.986501
0.982622
0.97676
0.972184
0.968093
0.963837
0.961495
0.96198
0.963965
0.97274
0.992252
1.00681
1.01205
1.01419
1.01513
1.01365
1.00601
0.994056
0.987091
0.985944
0.98779
0.99057
0.99272
0.997192
1.00872
1.01876
1.02335
1.02557
1.02816
1.03116
1.03261
1.02895
1.02019
1.01213
1.00739
1.00623
1.00692
1.01149
1.02463
1.03824
1.04648
1.05061
1.05247
1.05311
1.05195
1.04221
1.02709
1.01797
1.01488
1.01433
1.01782
1.0319
1.04588
1.05253
1.06581
1.25561
1.72923
0.912606
0.908844
0.908678
0.910102
0.911448
0.911698
0.911355
0.912887
0.920573
0.932644
0.939579
0.942753
0.944726
0.945576
0.943582
0.937354
0.929562
0.924273
0.922758
0.923273
0.924467
0.926431
0.934753
0.953558
0.964522
0.967496
0.968202
0.966982
0.964154
0.95654
0.949537
0.947403
0.948054
0.949446
0.950541
0.950112
0.950473
0.955991
0.969136
0.980436
0.986925
0.991247
0.99402
0.994767
0.990535
0.981165
0.971073
0.964368
0.962328
0.962915
0.964487
0.967843
0.979012
0.998076
1.00867
1.0118
1.01222
1.01123
1.01033
1.00718
1.00053
0.995548
0.993708
0.993281
0.992692
0.992502
0.994999
1.00516
1.01751
1.02509
1.02964
1.0335
1.0365
1.03791
1.03386
1.02161
1.01034
1.00569
1.00519
1.00629
1.01067
1.02657
1.0422
1.04906
1.05141
1.05207
1.05137
1.04893
1.04074
1.02813
1.0194
1.01543
1.01391
1.01689
1.0312
1.04279
1.06264
1.26756
1.73227
0.917652
0.914969
0.914781
0.915271
0.914968
0.913
0.911571
0.912152
0.913907
0.923124
0.937168
0.944267
0.947318
0.948801
0.949625
0.946096
0.935333
0.927316
0.925242
0.925905
0.927324
0.929094
0.931514
0.940142
0.955977
0.96459
0.967162
0.968416
0.969719
0.968695
0.962358
0.955488
0.951976
0.950525
0.949665
0.948182
0.947373
0.948523
0.953798
0.969936
0.985686
0.993068
0.995978
0.99776
0.99869
0.994131
0.980099
0.969346
0.96602
0.966466
0.968799
0.971957
0.974956
0.981926
0.995727
1.00526
1.00909
1.01079
1.01248
1.01447
1.01448
1.00954
1.00249
0.996782
0.992423
0.990129
0.99025
0.992863
1.00373
1.01917
1.02946
1.0349
1.03765
1.03927
1.03945
1.03347
1.01967
1.00957
1.00655
1.00698
1.00918
1.01431
1.02809
1.04147
1.0475
1.04935
1.04975
1.04977
1.04915
1.04322
1.03124
1.02068
1.01408
1.01129
1.01433
1.02761
1.05431
1.27903
1.73443
0.92324
0.92198
0.920239
0.919058
0.917344
0.914719
0.912724
0.912336
0.913263
0.915976
0.92888
0.943191
0.948404
0.95065
0.952215
0.952061
0.945025
0.934235
0.929213
0.928747
0.929587
0.930863
0.932439
0.934652
0.941478
0.955683
0.965812
0.970269
0.972131
0.973413
0.973347
0.968141
0.960419
0.954708
0.950637
0.947979
0.947472
0.948453
0.949949
0.955509
0.974703
0.990994
0.996442
0.998266
0.998043
0.995479
0.99103
0.982017
0.974949
0.972758
0.973238
0.974517
0.975194
0.975587
0.978963
0.99091
1.00357
1.0108
1.01487
1.01807
1.0204
1.02099
1.01583
1.00488
0.994935
0.990375
0.989967
0.991165
0.993768
1.00659
1.02527
1.03433
1.0371
1.03794
1.03738
1.03668
1.03263
1.02195
1.01353
1.01069
1.01043
1.01091
1.01338
1.02554
1.03915
1.04604
1.04872
1.04983
1.05047
1.05056
1.04607
1.0343
1.02072
1.0105
1.00747
1.0099
1.04129
1.28738
1.73542
0.928645
0.929599
0.926987
0.92316
0.919498
0.915662
0.912775
0.912406
0.913309
0.914681
0.920181
0.937482
0.948817
0.95202
0.953316
0.953967
0.952781
0.944551
0.93523
0.931916
0.932021
0.933535
0.935271
0.9357
0.936346
0.940256
0.954141
0.966859
0.972558
0.97598
0.978181
0.978754
0.974156
0.963741
0.954093
0.949456
0.948903
0.950026
0.952195
0.955334
0.961517
0.977234
0.990357
0.994913
0.996043
0.996773
0.997606
0.995975
0.989495
0.982864
0.979116
0.977092
0.975129
0.973548
0.973795
0.976601
0.988648
1.00498
1.01495
1.01946
1.0217
1.02327
1.02334
1.0168
1.00358
0.994606
0.992084
0.992819
0.994934
0.999027
1.0109
1.02566
1.03265
1.03498
1.03638
1.03755
1.03819
1.03575
1.02729
1.01835
1.01282
1.01045
1.01048
1.01194
1.02183
1.0364
1.04531
1.04898
1.05023
1.0512
1.05164
1.04819
1.03609
1.0189
1.00691
1.00099
1.02202
1.28868
1.73455
0.933972
0.935863
0.934579
0.928786
0.92115
0.915033
0.912717
0.913069
0.91419
0.916272
0.919537
0.927762
0.942882
0.950465
0.952509
0.952636
0.953109
0.953519
0.948324
0.941139
0.938204
0.937791
0.937263
0.935482
0.93453
0.935447
0.939468
0.95492
0.970672
0.977351
0.979847
0.981592
0.982452
0.977239
0.963943
0.955096
0.952798
0.953406
0.955118
0.957078
0.958814
0.96224
0.973271
0.986534
0.994096
0.997494
0.999265
1.00101
1.00216
0.998553