/*--------------------------------*- C++ -*----------------------------------*\
  =========                 |
  \\      /  F ield         | OpenFOAM: The Open Source CFD Toolbox
   \\    /   O peration     | Website:  https://openfoam.org
    \\  /    A nd           | Version:  12
     \\/     M anipulation  |
\*---------------------------------------------------------------------------*/
FoamFile
{
    format      ascii;
    class       volScalarField;
    location    "21";
    object      T;
}
// * * * * * * * * * * * * * * * * * * * * * * * * * * * * * * * * * * * * * //

dimensions      [0 0 0 1 0 0 0];

internalField   nonuniform List<scalar> 
9801
(
0.804735
0.810048
0.816061
0.818179
0.819099
0.819157
0.818126
0.816771
0.816171
0.816423
0.817601
0.820867
0.826936
0.832588
0.835093
0.835812
0.834738
0.83173
0.830118
0.830375
0.831053
0.832169
0.836208
0.843706
0.849478
0.851417
0.852162
0.851622
0.847674
0.845315
0.84549
0.84622
0.847239
0.849645
0.85767
0.865081
0.868059
0.869211
0.869593
0.866861
0.863176
0.862652
0.863272
0.864336
0.865959
0.87136
0.879138
0.88306
0.884804
0.885916
0.885736
0.882698
0.880816
0.881054
0.88189
0.883168
0.88636
0.894222
0.900714
0.903582
0.905054
0.905707
0.903466
0.900063
0.899003
0.899707
0.901177
0.903508
0.910457
0.919591
0.924346
0.926653
0.927959
0.927611
0.922505
0.918698
0.918844
0.920906
0.923846
0.932657
0.944408
0.95073
0.954049
0.956084
0.956853
0.951864
0.944103
0.942952
0.946088
0.952455
0.968518
0.984508
0.995467
1.00472
1.00953
1.00842
0.994464
1.11556
1.53994
0.810437
0.810863
0.81346
0.81741
0.819499
0.820419
0.820694
0.82112
0.822002
0.825245
0.827367
0.827873
0.828781
0.830954
0.834123
0.835443
0.83518
0.835426
0.835425
0.835673
0.836745
0.840502
0.843001
0.844783
0.847671
0.850909
0.852688
0.851926
0.850642
0.850047
0.850184
0.850958
0.852931
0.857667
0.861381
0.864781
0.867502
0.869347
0.869742
0.867714
0.866356
0.866362
0.867025
0.868184
0.87045
0.876825
0.882523
0.885434
0.887105
0.888254
0.887133
0.883763
0.882838
0.883558
0.884789
0.886217
0.889479
0.89709
0.903064
0.905986
0.907696
0.908726
0.906441
0.902022
0.901203
0.90226
0.903965
0.906292
0.913297
0.922434
0.927401
0.92993
0.931667
0.93175
0.926224
0.921872
0.92256
0.924694
0.927707
0.935469
0.946452
0.9533
0.957265
0.960269
0.962543
0.957325
0.949669
0.948541
0.952517
0.958023
0.9694
0.983396
0.994575
1.00478
1.01067
1.00931
0.991333
1.11171
1.56037
0.81902
0.81963
0.819064
0.81964
0.820367
0.821034
0.821583
0.822363
0.825055
0.830939
0.834621
0.836031
0.836507
0.837255
0.838059
0.837064
0.836499
0.837153
0.838209
0.839559
0.843344
0.848564
0.851136
0.852197
0.853214
0.854563
0.854809
0.853221
0.853041
0.853933
0.855194
0.856826
0.860796
0.866726
0.869991
0.871029
0.872157
0.87303
0.871351
0.869826
0.87018
0.871249
0.872714
0.874424
0.877948
0.884645
0.889467
0.89144
0.892641
0.893078
0.890579
0.887777
0.887891
0.889212
0.890933
0.892824
0.896595
0.904148
0.909514
0.91207
0.913718
0.914746
0.912526
0.9084
0.907761
0.909234
0.911329
0.913864
0.920551
0.929435
0.93443
0.937184
0.939317
0.940257
0.9356
0.930994
0.931313
0.933862
0.936936
0.942902
0.954612
0.963776
0.968639
0.972057
0.974584
0.971186
0.96347
0.96143
0.965309
0.971468
0.980384
0.99523
1.00857
1.01989
1.0292
1.03067
1.01437
1.12856
1.58758
0.829506
0.831825
0.829026
0.822782
0.820576
0.821495
0.823995
0.827358
0.833171
0.840309
0.84411
0.846116
0.847535
0.84693
0.841738
0.838491
0.838991
0.840757
0.843794
0.847643
0.853218
0.858664
0.861263
0.862501
0.862489
0.859818
0.856817
0.856921
0.858428
0.860734
0.863616
0.866531
0.870957
0.876073
0.878418
0.879127
0.879007
0.877852
0.876185
0.876369
0.878125
0.880236
0.882545
0.88485
0.888188
0.893446
0.896693
0.89821
0.899197
0.900016
0.898879
0.896893
0.897469
0.899309
0.901346
0.903584
0.907499
0.913944
0.918791
0.921391
0.923222
0.924722
0.923737
0.919886
0.91904
0.920743
0.923146
0.925823
0.931744
0.940675
0.946335
0.949533
0.951956
0.953689
0.951213
0.945948
0.945061
0.947629
0.951081
0.955731
0.966095
0.977142
0.983366
0.987347
0.990818
0.991171
0.984958
0.980342
0.981452
0.987968
0.995684
1.00758
1.02129
1.03325
1.044
1.0491
1.04052
1.15385
1.61658
0.838837
0.841174
0.834829
0.828125
0.826871
0.827248
0.828667
0.833041
0.842296
0.850076
0.853665
0.855565
0.856107
0.852682
0.847487
0.845769
0.84627
0.847517
0.850185
0.855837
0.863305
0.868263
0.870111
0.870701
0.870124
0.86796
0.865585
0.865472
0.866874
0.869111
0.87232
0.876368
0.880651
0.884105
0.885853
0.886739
0.887604
0.888429
0.8876
0.887049
0.888534
0.890661
0.892777
0.894699
0.89705
0.901017
0.904849
0.907477
0.909537
0.911373
0.912292
0.91028
0.909629
0.911093
0.912752
0.914451
0.916943
0.922762
0.929028
0.932765
0.93522
0.937303
0.938407
0.935171
0.932398
0.933242
0.935525
0.938091
0.94226
0.950984
0.95839
0.962477
0.965377
0.968119
0.968708
0.963398
0.959604
0.960833
0.964352
0.968471
0.975961
0.988327
0.997535
1.00274
1.00687
1.00982
1.00668
1.00029
0.997649
1.00053
1.00735
1.01636
1.02919
1.04125
1.05105
1.05775
1.05367
1.17224
1.63693
0.846678
0.846389
0.840171
0.837253
0.837156
0.837831
0.838936
0.841487
0.849303
0.857675
0.861117
0.862134
0.861025
0.859289
0.857708
0.856834
0.857398
0.858516
0.860097
0.863167
0.869361
0.874736
0.877253
0.878344
0.878886
0.879158
0.878516
0.877777
0.878261
0.879769
0.881748
0.883662
0.886333
0.890544
0.894216
0.896722
0.898906
0.900878
0.902151
0.901167
0.90053
0.901073
0.901658
0.902311
0.903785
0.907878
0.914415
0.919172
0.922088
0.924247
0.926128
0.925554
0.922828
0.921735
0.921968
0.923268
0.925266
0.930321
0.938823
0.944462
0.9476
0.94994
0.952108
0.951023
0.946296
0.944386
0.94543
0.9477
0.950745
0.958065
0.96799
0.97397
0.977372
0.980196
0.982447
0.979508
0.973544
0.971649
0.973774
0.977371
0.982347
0.992923
1.00467
1.01222
1.01753
1.02184
1.02278
1.01728
1.01171
1.01022
1.01332
1.01956
1.0288
1.04057
1.05003
1.05673
1.05784
1.18704
1.64926
0.851577
0.851395
0.849768
0.848612
0.848666
0.849519
0.851026
0.853336
0.857242
0.861967
0.865527
0.867293
0.868319
0.869492
0.870205
0.869452
0.869391
0.870464
0.871985
0.872718
0.873489
0.876927
0.882475
0.886337
0.888857
0.890588
0.891788
0.891279
0.890644
0.890708
0.890009
0.889416
0.890345
0.893963
0.90109
0.90704
0.910479
0.912682
0.914578
0.914942
0.912519
0.909758
0.908051
0.908372
0.909829
0.912912
0.921032
0.928992
0.933149
0.935584
0.937627
0.938483
0.93475
0.929961
0.928897
0.930218
0.932394
0.936371
0.945419
0.953217
0.957178
0.959669
0.96187
0.962815
0.958273
0.953322
0.952413
0.954325
0.957019
0.96209
0.97267
0.98154
0.986264
0.989195
0.991838
0.99203
0.985697
0.980394
0.979351
0.981879
0.985837
0.993007
1.0055
1.01635
1.02291
1.02752
1.0311
1.02948
1.02332
1.0188
1.01828
1.02119
1.02706
1.03689
1.04712
1.0542
1.05762
1.19692
1.65661
0.853527
0.855518
0.857411
0.858617
0.859882
0.861148
0.86244
0.864073
0.864373
0.864434
0.865817
0.8692
0.873959
0.877356
0.87918
0.880199
0.880806
0.881026
0.880253
0.878018
0.877674
0.878912
0.88393
0.891888
0.89711
0.899531
0.901202
0.902309
0.901432
0.898201
0.894841
0.894303
0.895229
0.897044
0.903844
0.914098
0.919383
0.921759
0.923693
0.924885
0.921907
0.915148
0.913131
0.914042
0.915772
0.918715
0.926342
0.936116
0.941285
0.943773
0.945622
0.946371
0.942454
0.936044
0.934156
0.935226
0.937277
0.940992
0.949563
0.958908
0.963787
0.966235
0.968141
0.969394
0.966474
0.960127
0.95792
0.958906
0.961449
0.965093
0.973691
0.984973
0.991336
0.994817
0.997446
0.99903
0.995196
0.98757
0.98461
0.985518
0.988612
0.992789
1.00184
1.0143
1.02327
1.02897
1.03314
1.03571
1.03364
1.02809
1.02396
1.0236
1.02612
1.03187
1.04188
1.05081
1.05639
1.2049
1.66178
0.855411
0.858
0.861481
0.865563
0.868089
0.869986
0.870519
0.868968
0.867386
0.867507
0.868646
0.873158
0.87838
0.88244
0.885527
0.887886
0.889321
0.887797
0.883275
0.881381
0.881952
0.883274
0.887895
0.896355
0.902428
0.905562
0.907683
0.909517
0.90815
0.901686
0.898954
0.899486
0.900723
0.902824
0.909131
0.918699
0.924464
0.927205
0.928854
0.928954
0.924843
0.919466
0.918167
0.919136
0.920704
0.923678
0.931746
0.940842
0.945583
0.947773
0.948821
0.94864
0.946217
0.941672
0.939431
0.940269
0.942186
0.944911
0.951411
0.961118
0.966842
0.969458
0.971191
0.972433
0.971869
0.966807
0.962945
0.963044
0.965233
0.967977
0.972791
0.983429
0.992606
0.99708
0.999819
1.00208
1.0027
0.997293
0.99139
0.989879
0.990947
0.993959
0.998572
1.00838
1.01991
1.02802
1.03337
1.03741
1.03911
1.03722
1.03254
1.02822
1.0271
1.02902
1.0349
1.04526
1.05359
1.21222
1.66569
0.859994
0.863621
0.867991
0.87116
0.873308
0.874224
0.872161
0.869625
0.869697
0.870948
0.874599
0.880142
0.88542
0.888881
0.891048
0.892934
0.892833
0.887999
0.885297
0.885667
0.886925
0.888734
0.894592
0.903019
0.907442
0.909926
0.911912
0.912674
0.908706
0.903689
0.902765
0.903704
0.905039
0.908382
0.916632
0.924098
0.927931
0.929715
0.930029
0.928679
0.926261
0.923378
0.922365
0.923688
0.926145
0.929449
0.934956
0.942166
0.946163
0.947913
0.948664
0.949523
0.949991
0.947368
0.945209
0.945835
0.94761
0.949298
0.951725
0.959271
0.967095
0.970638
0.972705
0.974674
0.97651
0.974491
0.969502
0.967723
0.968204
0.969853
0.972204
0.97794
0.989535
0.99761
1.00173
1.00483
1.00748
1.00752
1.00075
0.99519
0.994151
0.995533
0.998471
1.00307
1.01269
1.02339
1.0312
1.03657
1.04058
1.04213
1.04083
1.03616
1.03066
1.02819
1.02943
1.03659
1.0481
1.21976
1.66888
0.867355
0.871695
0.873536
0.875091
0.875414
0.871995
0.870193
0.870855
0.872354
0.875507
0.882577
0.888857
0.891943
0.893749
0.895316
0.89548
0.89051
0.887078
0.887112
0.888214
0.889868
0.893673
0.902287
0.908986
0.91192
0.913457
0.913948
0.911529
0.907974
0.905849
0.905884
0.90727
0.909821
0.914257
0.920451
0.926204
0.928519
0.929032
0.928857
0.929309
0.929346
0.928075
0.928137
0.929743
0.931732
0.932986
0.934708
0.939844
0.945043
0.947642
0.949627
0.951849
0.953852
0.954292
0.951442
0.949959
0.950002
0.950747
0.951997
0.955197
0.964386
0.971769
0.97558
0.978107
0.980151
0.981332
0.977168
0.971749
0.969861
0.970139
0.971991
0.974863
0.982787
0.995349
1.00332
1.00739
1.01024
1.01265
1.01162
1.0048
0.999427
0.997944
0.99887
1.00157
1.00672
1.01679
1.02718
1.03463
1.03976
1.04356
1.04451
1.04298
1.0376
1.03048
1.02705
1.0289
1.03956
1.22535
1.67144
0.87554
0.878418
0.878784
0.877865
0.872762
0.869229
0.86922
0.870472
0.872922
0.879364
0.889574
0.895439
0.897483
0.898423
0.89792
0.893505
0.888748
0.887759
0.888537
0.889912
0.892317
0.898676
0.906688
0.911777
0.91379
0.91409
0.912505
0.911182
0.909987
0.909098
0.910329
0.912894
0.915757
0.917296
0.919813
0.924169
0.926803
0.928046
0.929745
0.931881
0.933922
0.935005
0.934111
0.933726
0.933524
0.933084
0.933258
0.935711
0.942932
0.949289
0.953185
0.956176
0.95849
0.960119
0.958361
0.953798
0.951173
0.95033
0.951372
0.953444
0.959669
0.971141
0.978265
0.981627
0.983845
0.98577
0.98519
0.978346
0.972872
0.971649
0.972456
0.974703
0.978096
0.987596
1.00052
1.00796
1.01192
1.01519
1.01769
1.01598
1.00796
1.00174
1.00034
1.00191
1.0051
1.01109
1.02168
1.0314
1.03778
1.04203
1.04519
1.04553
1.04357
1.0372
1.02879
1.02527
1.02832
1.22634
1.67297
0.881482
0.884833
0.884151
0.878634
0.871337
0.869926
0.870636
0.871677
0.873833
0.881749
0.892853
0.898021
0.900143
0.901021
0.898011
0.893
0.890515
0.890062
0.891553
0.894659
0.898759
0.902481
0.907294
0.910853
0.912017
0.911816
0.912324
0.913789
0.914666
0.914995
0.915863
0.917467
0.918078
0.917242
0.917011
0.919303
0.925041
0.930004
0.933599
0.936973
0.939545
0.941263
0.940558
0.936883
0.933017
0.931221
0.932003
0.934006
0.94004
0.950607
0.957756
0.961273
0.963066
0.964616
0.964385
0.958251
0.952037
0.950237
0.951108
0.953194
0.956889
0.967307
0.978775
0.984035
0.98661
0.988789
0.990415
0.987466
0.979351
0.974699
0.973878
0.974848
0.976977
0.981288
0.993042
1.00628
1.0133
1.01668
1.01918
1.0203
1.01738
1.01014
1.00504
1.00411
1.00562
1.00906
1.01582
1.02641
1.03468
1.03966
1.04326
1.04579
1.04595
1.04352
1.03569
1.0264
1.02042
1.22251
1.67356
0.883608
0.886978
0.884965
0.87778
0.87339
0.872352
0.873415
0.875756
0.880303
0.886623
0.893501
0.897684
0.898825
0.897615
0.896529
0.896225
0.89529
0.896063
0.898164
0.900816
0.902661
0.903074
0.903084
0.905539
0.90971
0.912891
0.915594
0.918489
0.921111
0.922531
0.922099
0.920285
0.917168
0.914837
0.915118
0.917002
0.922967
0.932616
0.939376
0.942759
0.944557
0.945941
0.945861
0.939437
0.932175
0.9307
0.931789
0.933585
0.938021
0.950238
0.960213
0.964007
0.966139
0.967525
0.967344
0.962814
0.955251
0.952322
0.952855
0.954628
0.957151
0.9626
0.974818
0.984177
0.988018
0.990059
0.991783
0.993034
0.988945
0.980706
0.976983
0.977334
0.979422
0.982
0.986104
0.997237
1.00893
1.01492
1.01803
1.02051
1.02223
1.02033
1.01434
1.00952
1.00821
1.00929
1.01244
1.01935
1.02945
1.03656
1.04088
1.04447
1.0466
1.04669
1.04297
1.03176
1.01883
1.21432
1.67353
0.883598
0.884987
0.881601
0.879405
0.877943
0.878302
0.880192
0.883588
0.886146
0.887732
0.889969
0.892868
0.894701
0.895661
0.897403
0.90035
0.903051
0.90446
0.90473
0.904635
0.903012
0.899859
0.89941
0.901076
0.906979
0.91493
0.920956
0.924729
0.926664
0.928026
0.927954
0.922295
0.91507
0.913434
0.914379
0.916122
0.921139
0.933576
0.942839
0.946381
0.94815
0.94907
0.947066
0.9406
0.934566
0.932924
0.933875
0.936031
0.939818
0.947682
0.959014
0.964654
0.966738
0.966758
0.966619
0.966379
0.962348
0.957819
0.957307
0.958853
0.960716
0.962283
0.967148
0.978949
0.986902
0.990032
0.991985
0.994173
0.996193
0.992471
0.985296
0.982456
0.982315
0.983033
0.984837
0.988356
0.998791
1.01054
1.01722
1.02102
1.02401
1.02608
1.02506
1.01895
1.01281
1.0104
1.01118
1.01406
1.02149
1.03155
1.03829
1.04263
1.0462
1.04777
1.04722
1.03912
1.02324
1.20508
1.67336
0.880427
0.881242
0.881839
0.882867
0.884362
0.885982
0.887621
0.889153
0.889628
0.886805
0.885516
0.887201
0.891966
0.8972
0.901906
0.906463
0.909169
0.910725
0.911059
0.907261
0.900334
0.897829
0.898396
0.900022
0.904877
0.916388
0.925702
0.929214
0.93088
0.93183
0.930701
0.922918
0.916455
0.915333
0.916207
0.917792
0.922034
0.933433
0.943774
0.947744
0.948938
0.947869
0.946568
0.944191
0.939899
0.93827
0.939497
0.942032
0.943841
0.945534
0.952239
0.96068
0.964387
0.966309
0.968141
0.970165
0.971315
0.967155
0.962758
0.961684
0.961689
0.962086
0.963588
0.969074
0.981131
0.989384
0.993607
0.997233
0.999857
1.00146
0.997241
0.98929
0.984896
0.983805
0.984275
0.986007
0.990132
1.00124
1.01333
1.02066
1.02492
1.028
1.0294
1.0278
1.02087
1.0137
1.01101
1.01203
1.01517
1.02326
1.03373
1.04038
1.04462
1.04739
1.04829
1.04436
1.03199
1.19871
1.67361
0.878029
0.880236
0.883447
0.887881
0.890855
0.892435
0.893205
0.892862
0.888546
0.884611
0.884385
0.885634
0.889744
0.899666
0.908127
0.911648
0.913264
0.914503
0.914447
0.907387
0.900166
0.899104
0.899894
0.901283
0.905585
0.918488
0.927974
0.931271
0.932919
0.932899
0.928908
0.924052
0.919888
0.919038
0.92037
0.923275
0.926836
0.931854
0.939811
0.944368
0.945747
0.94635
0.947865
0.949308
0.948439
0.945607
0.944724
0.944902
0.944654
0.944386
0.945858
0.953083
0.962727
0.968178
0.972038
0.97507
0.977098
0.976937
0.970778
0.964687
0.96179
0.960914
0.961809
0.963889
0.971082
0.985641
0.995733
0.999746
1.0021
1.00444
1.00561
1.00047
0.991181
0.98596
0.985174
0.986583
0.988867
0.993566
1.00578
1.01772
1.02399
1.02726
1.02975
1.03064
1.02847
1.02131
1.01432
1.01197
1.01288
1.01639
1.02531
1.03561
1.0417
1.04557
1.04757
1.04649
1.04032
1.19742
1.67478
0.877046
0.88272
0.888238
0.892623
0.894869
0.896274
0.896896
0.892601
0.886237
0.884803
0.88563
0.886993
0.890919
0.902919
0.911803
0.914801
0.916268
0.916836
0.912804
0.90597
0.902095
0.901432
0.902398
0.904628
0.910487
0.920078
0.928108
0.93135
0.931808
0.929944
0.928883
0.92745
0.925661
0.925302
0.926578
0.928451
0.929478
0.929845
0.932353
0.93971
0.945357
0.948761
0.951595
0.954171
0.955718
0.954152
0.949519
0.94561
0.943008
0.942656
0.94399
0.947323
0.957973
0.969703
0.975802
0.978999
0.981029
0.98253
0.980029
0.970475
0.963658
0.962033
0.962775
0.964449
0.967015
0.975553
0.990922
0.999691
1.00324
1.00545
1.00706
1.00715
1.00097
0.992487
0.988761
0.989012
0.990916
0.993717
0.998671
1.00987
1.01969
1.02482
1.02792
1.03025
1.03135
1.02941
1.02257
1.01598
1.01367
1.01433
1.01741
1.02618
1.03577
1.04152
1.04531
1.04654
1.04608
1.20166
1.67699
0.878531
0.888037
0.893502
0.896099
0.897533
0.89871
0.897514
0.89087
0.886833
0.886644
0.887555
0.888975
0.894929
0.906725
0.913724
0.916461
0.917748
0.915832
0.911479
0.907646
0.90534
0.905819
0.907827
0.911155
0.914242
0.918466
0.923975
0.927269
0.928424
0.929273
0.930944
0.932631
0.933371
0.93198
0.930909
0.930085
0.928426
0.927937
0.929324
0.934529
0.944938
0.952521
0.956726
0.958904
0.960271
0.960459
0.955193
0.947096
0.943348
0.94315
0.944383
0.946293
0.951986
0.966636
0.97699
0.980729
0.982424
0.983068
0.983128
0.979431
0.97056
0.965917
0.965861
0.967567
0.969981
0.972696
0.979924
0.993099
1.00105
1.00417
1.006
1.00765
1.00843
1.00452
0.997858
0.994231
0.993694
0.994522
0.996339
1.00074
1.01136
1.02062
1.02574
1.02904
1.03164
1.03356
1.0325
1.02506
1.01742
1.01431
1.01459
1.01677
1.02524
1.03498
1.04159
1.04451
1.04961
1.21059
1.68026
0.880575
0.892342
0.897605
0.89928
0.900192
0.8997
0.895671
0.890485
0.888466
0.888807
0.890072
0.892722
0.899001
0.907945
0.913709
0.915531
0.915029
0.913599
0.912916
0.911418
0.911005
0.91192
0.913677
0.915342
0.916046
0.9158
0.917124
0.922481
0.928212
0.932175
0.935305
0.937748
0.939286
0.938712
0.93473
0.929942
0.926981
0.92686
0.928229
0.930981
0.940895
0.953359
0.959016
0.961389
0.963009
0.963702
0.960887
0.952225
0.946218
0.945482
0.946979
0.949584
0.952496
0.958757
0.970993
0.978244
0.980848
0.982282
0.983473
0.984762
0.982246
0.975187
0.971377
0.971
0.971639
0.972581
0.974426
0.980268
0.992841
1.00176
1.00594
1.00885
1.01169
1.01326
1.01032
1.00279
0.997138
0.995036
0.99538
0.997133
1.00215
1.01329
1.02253
1.02814
1.03232
1.03515
1.03637
1.03441
1.02605
1.01737
1.01346
1.01335
1.0151
1.02402
1.03507
1.04163
1.05111
1.22131
1.68411
0.880807
0.893918
0.899758
0.901818
0.902895
0.901391
0.89604
0.892113
0.891197
0.89233
0.894472
0.897245
0.900241
0.905144
0.91015
0.91274
0.913852
0.915012
0.916024
0.917342
0.918043
0.917778
0.917426
0.916639
0.914533
0.913381
0.914175
0.917937
0.927276
0.935433
0.939964
0.942177
0.943561
0.943954
0.939504
0.931788
0.928274
0.92831
0.929569
0.931428
0.936198
0.948943
0.958533
0.961682
0.962757
0.962915
0.963452
0.961018
0.954408
0.950949
0.950981
0.952061
0.953243
0.954677
0.959668
0.971264
0.979399
0.983088
0.98562
0.988052
0.989651
0.987519
0.980237
0.974858
0.972744
0.972297
0.97273
0.974444
0.980325
0.993811
1.00469
1.00998
1.01272
1.01498
1.01634
1.01373
1.00509
0.997898
0.995534
0.99631
0.998458
1.0042
1.01609
1.02608
1.03162
1.03453
1.03634
1.03723
1.03481
1.02615
1.017
1.01239
1.01155
1.01341
1.02408
1.03543
1.04933
1.23185
1.68766
0.881532
0.893638
0.899739
0.901487
0.901759
0.900772
0.898887
0.896335
0.895714
0.896577
0.898067
0.899502
0.900572
0.901307
0.904239
0.91019
0.914975
0.918291
0.920995
0.922865
0.92395
0.923432
0.920582
0.916334
0.912969
0.912225
0.913218
0.915339
0.923516
0.936138
0.942578
0.945404
0.947033
0.947908
0.94493
0.936655
0.931768
0.931523
0.932759
0.934194
0.93559
0.940745
0.952612
0.960001
0.96265
0.964584
0.966073
0.967208
0.964534
0.957771
0.953994
0.952983
0.952724
0.953059
0.954631
0.960098
0.972945
0.983152
0.987891
0.990288
0.99245
0.994165
0.991942
0.983463
0.97644
0.973552
0.973504
0.974727
0.976776
0.982513
0.996598
1.00797
1.01281
1.01537
1.01737
1.01801
1.01456
1.00581
0.999163
0.997298
0.997965
1.00018
1.00654
1.01875
1.0282
1.03301
1.03555
1.03697
1.03754
1.03479
1.02659
1.01712
1.01147
1.00971
1.01236
1.02412
1.04261
1.2409
1.68995
0.88212
0.890536
0.8976
0.900597
0.901767
0.902606
0.902975
0.901971
0.900659
0.900379
0.900649
0.900548
0.899676
0.89947
0.900574
0.905135
0.914142
0.921085
0.925086
0.92706
0.928273
0.928577
0.925112
0.917605
0.913056
0.912561
0.913571
0.915033
0.919566
0.933708
0.94372
0.946825
0.948205
0.948416
0.948186
0.944556
0.937756
0.934914
0.934789
0.935132
0.936239
0.937923
0.94383
0.955915
0.963897
0.966978
0.968747
0.970375
0.971328
0.967513
0.960058
0.955619
0.953996
0.954117
0.955195
0.957084
0.962069
0.975488
0.986531
0.991261
0.993617
0.995492
0.996945
0.994572
0.98555
0.978038
0.975569
0.975881
0.977262
0.979553
0.986378
1.00052
1.01031
1.01428
1.01623
1.01755
1.01831
1.01593
1.00834
1.00197
0.999689
0.999946
1.00165
1.00751
1.01976
1.02931
1.03386
1.03591
1.03714
1.03798
1.03601
1.02818
1.01767
1.01002
1.00776
1.01047
1.03103
1.2468
1.69085
0.884094
0.887221
0.892838
0.898822
0.902197
0.903986
0.905447
0.906862
0.907409
0.906199
0.904364
0.902062
0.899746
0.89891
0.899531
0.901304
0.909286
0.921361
0.927612
0.930415
0.931969
0.932855
0.929705
0.920315
0.914434
0.913946
0.914999
0.91678
0.920262
0.929005
0.94113
0.946676
0.948385
0.949574
0.95058
0.950309
0.945161
0.938524
0.936118
0.936373
0.93755
0.939289
0.941111
0.94641
0.958502
0.966153
0.969208
0.971021
0.972841
0.97437
0.971618
0.963837
0.958612
0.956961
0.956963
0.957695
0.959168
0.963814
0.97769
0.989132
0.993593
0.995651
0.997356
0.998722
0.996401
0.987457
0.980525
0.978751
0.979869
0.982155
0.98424
0.989186
1.00115
1.01025
1.01452
1.01694
1.01894
1.02076
1.01955
1.01197
1.00441
1.0009
1.0005
1.00183
1.00724
1.01964
1.02957
1.03435
1.0366
1.03807
1.03912
1.03776
1.03021
1.01754
1.00787
1.00338
1.01465
1.24718
1.69027
0.886716
0.886567
0.887025
0.892366
0.900202
0.90519
0.908668
0.911316
0.913059
0.913499
0.910373
0.904309
0.899623
0.898448
0.89903
0.900174
0.9048
0.918949
0.929025
0.932335
0.934102
0.935166
0.933209
0.924414
0.917733
0.916764
0.918027
0.920368
0.923092
0.926172
0.934016
0.943963
0.948416
0.950034
0.950038
0.950553
0.951373
0.947629
0.94217
0.940558
0.941078
0.941364
0.94095
0.941683
0.946493
0.959062
0.968064
0.972364
0.975669
0.977826
0.979323
0.976354
0.966907
0.959958
0.957799
0.958041
0.959292
0.961134
0.966256
0.980418
0.991577
0.995895
0.99774
0.998813
0.999835
0.998999
0.992649
0.98651
0.984127
0.983459
0.983284
0.984606
0.989508
1.00165
1.01145
1.01654
1.01965
1.02198
1.02386
1.02304
1.01489
1.00583
1.00128
1.00044
1.00146
1.00651
1.01945
1.03029
1.03532
1.03759
1.0393
1.04004
1.03858
1.03063
1.01588
1.00335
1.0006
1.24065
1.68802
0.888113
0.884801
0.885004
0.886979
0.895856
0.907081
0.91306
0.9158
0.917322
0.918089
0.915399
0.905534
0.899262
0.898822
0.899732
0.901392
0.905126
0.91624
0.928881
0.933548
0.935007
0.934024
0.9318
0.929222
0.924344
0.921892
0.922446
0.924349
0.926404
0.927337
0.928283
0.933213
0.942471
0.947512
0.950222
0.953078
0.955872
0.957381
0.953856
0.94759
0.943964
0.94121
0.939349
0.9396
0.941012
0.947191
0.963119
0.974393
0.978269
0.98014
0.981681
0.98221
0.977626
0.966891
0.960648
0.959692
0.96091
0.963224
0.965764
0.969718
0.98106
0.991482
0.996245
0.99877
1.0015
1.00378
1.00412
0.998504
0.990223
0.984873
0.983105
0.983289
0.98472
0.990004
1.003
1.01396
1.01957
1.02265
1.02483
1.02636
1.02525
1.01663
1.00622
1.00097
1.00003
1.00104
1.0063
1.02014
1.03172
1.03626
1.03792
1.0394
1.03977
1.03827
1.02912
1.01052
0.996555
1.22835
1.68558
0.887316
0.884572
0.885492
0.886928
0.892509
0.907125
0.915897
0.918508
0.919871
0.920194
0.915292
0.906274
0.90129
0.900905
0.902356
0.906099
0.910871
0.915771
0.923715
0.929679
0.931182
0.930844
0.931289
0.933003
0.934016
0.931744
0.929335
0.928831
0.928389
0.926321
0.924362
0.9251
0.931644
0.943685
0.952485
0.958228
0.961636
0.963477
0.963797
0.957222
0.946314
0.940182
0.939007
0.939877
0.941396
0.94437
0.953288
0.969463
0.978062
0.980841
0.981467
0.980369
0.980021
0.977962
0.971218
0.966698
0.965995
0.966491
0.966524
0.966816
0.969161
0.979163
0.991737
0.999103
1.00272
1.00497
1.00687
1.00761
1.00208
0.991735
0.985221
0.983411
0.983976
0.985585
0.991639
1.00617
1.01767
1.02268
1.02484
1.0265
1.02758
1.02577
1.01708
1.00687
1.00158
1.00049
1.00146
1.00696
1.02064
1.03124
1.03507
1.03702
1.03905
1.03948
1.03724
1.02328
1.00398
1.21464
1.68411
0.88728
0.885706
0.886759
0.888829
0.895238
0.907676
0.916486
0.919495
0.919735
0.916417
0.913362
0.910129
0.907144
0.907241
0.909731
0.913319
0.915161
0.915367
0.915111
0.918736
0.925407
0.929911
0.93399
0.938258
0.941589
0.94239
0.938609
0.933016
0.927388
0.922687
0.921399
0.922199
0.924236
0.934623
0.952228
0.961257
0.964325
0.966096
0.967046
0.964632
0.953918
0.943315
0.940797
0.941702
0.945057
0.949548
0.952623
0.957732
0.9681
0.975139
0.977821
0.979437
0.981835
0.984425
0.984895
0.97929
0.972624
0.96867
0.965993
0.964782
0.965629
0.968321
0.979433
0.994397
1.00228
1.00557
1.00761
1.0091
1.00901
1.00271
0.992141
0.98616
0.985245
0.986515
0.98875
0.994693
1.00826
1.01888
1.02309
1.0248
1.02616
1.02761
1.02747
1.02022
1.00938
1.00308
1.00151
1.00198
1.00631
1.01919
1.02951
1.0338
1.03656
1.03875
1.03939
1.03327
1.01902
1.20559
1.68405
0.888708
0.887794
0.890022
0.89487
0.89939
0.905297
0.911908
0.914591
0.914077
0.913205
0.914458
0.915983
0.91726
0.916594
0.916091
0.916428
0.915124
0.910921
0.908791
0.91
0.917266
0.929568
0.939372
0.94534
0.947878
0.949142
0.947085
0.93706
0.926307
0.921745
0.921564
0.922713
0.924891
0.930842
0.945915
0.96018
0.964979
0.966201
0.964013
0.961383
0.959473
0.954377
0.949746
0.949288
0.950847
0.952344
0.952307
0.951362
0.953536
0.963458
0.974401
0.98129
0.986031
0.98962
0.991667
0.991688
0.984445
0.973354
0.966605
0.965195
0.966157
0.967773
0.971174
0.983649
0.99856
1.00511
1.00743
1.00848
1.00905
1.0092
1.00429
0.99521
0.989922
0.988611
0.988839
0.990031
0.994635
1.00749
1.01807
1.02275
1.02562
1.0285
1.03021
1.03004
1.02294
1.0108
1.00288
1.00065
1.00122
1.00489
1.01696
1.02756
1.03296
1.03671
1.03914
1.03789
1.03155
1.20428
1.68558
0.892436
0.893456
0.897264
0.900305
0.901449
0.901708
0.902392
0.906746
0.911319
0.91485
0.918912
0.92346
0.926085
0.926208
0.922455
0.916833
0.910109
0.906205
0.905992
0.907235
0.910543
0.925452
0.942156
0.948422
0.950749
0.952045
0.951152
0.942902
0.929415
0.923575
0.923431
0.925798
0.931737
0.93701
0.941138
0.949217
0.956922
0.959613
0.960436
0.961694
0.963714
0.966218
0.965187
0.960107
0.955877
0.952561
0.948746
0.946961
0.947749
0.950855
0.963346
0.979669
0.988308
0.991484
0.993277
0.994285
0.992646
0.983752
0.972665
0.968293
0.96845
0.970435
0.973487
0.977076
0.986434
0.998341
1.00421
1.00655
1.008
1.00963
1.01143
1.00913
1.0006
0.993369
0.989912
0.989282
0.990339
0.994118
1.00642
1.01899
1.02518
1.02781
1.02975
1.03133
1.03167
1.02484
1.01135
1.00244
0.999948
1.00031
1.00332
1.01499
1.0266
1.03314
1.03749
1.0384
1.04017
1.20972
1.68836
0.899347
0.899417
0.90076
0.901621
0.899835
0.896389
0.895964
0.898738
0.907743
0.918524
0.926665
0.930751
0.932407
0.932786
0.928199
0.916157
0.907215
0.905206
0.906004
0.907523
0.911057
0.921851
0.939888
0.948878
0.951248
0.950009
0.945436
0.941784
0.937183
0.932382
0.932018
0.934813
0.937724
0.939003
0.938158
0.936958
0.940856
0.950612
0.958927
0.964995
0.970886
0.974422
0.975939
0.973151
0.963439
0.952988
0.94739
0.946489
0.947638
0.949496
0.954568
0.970602
0.986192
0.991451
0.99309
0.992167
0.990353
0.989126
0.984896
0.978311
0.975038
0.97469
0.974988
0.97528
0.976815
0.984274
0.996396
1.00371
1.00764
1.01152
1.01444
1.01616
1.01395
1.00433
0.994755
0.990207
0.989207
0.989822
0.993166
1.00561
1.01902
1.02568
1.02911
1.03149
1.03258
1.03234
1.02495
1.0114
1.00226
0.99951
0.999517
1.00226
1.01384
1.02567
1.03343
1.03629
1.04453
1.21987
1.69172
0.907607
0.90674
0.903253
0.89897
0.894606
0.893126
0.893935
0.895669
0.902698
0.919868
0.930978
0.934746
0.936355
0.936793
0.931992
0.918358
0.908625
0.906766
0.907763
0.912541
0.919938
0.925487
0.931672
0.939709
0.943136
0.943161
0.943283
0.944342
0.945888
0.947353
0.94577
0.943273
0.940889
0.936661
0.931699
0.930396
0.931822
0.937996
0.953377
0.968202
0.975499
0.978575
0.98015
0.980014
0.973606
0.958873
0.949669
0.948162
0.949452
0.953603
0.95916
0.964677
0.974368
0.98376
0.987517
0.988654
0.989908
0.991634
0.99356
0.992574
0.986317
0.979966
0.975971
0.973936
0.973464
0.974925
0.982502
0.997287
1.00798
1.01282
1.01536
1.01724
1.01849
1.01586
1.00481
0.9938
0.989153
0.988869
0.990145
0.993317
1.00615
1.02103
1.0283
1.03101
1.03216
1.03232
1.03186
1.02535
1.01249
1.00338
0.999934
0.999044
1.00071
1.01187
1.02469
1.03119
1.0455
1.23196
1.69524
0.913849
0.914143
0.905973
0.896282
0.892005
0.891998
0.893158
0.895092
0.901591
0.918181
0.931417
0.935546
0.936257
0.932433
0.926794
0.921848
0.916176
0.914593
0.917084
0.921856
0.924608
0.925274
0.923623
0.923556
0.929608
0.937791
0.944033
0.950625
0.956365
0.958912
0.958306
0.952335
0.941923
0.932162
0.928046
0.928106
0.929556
0.932488
0.943266
0.964961
0.976393
0.979476
0.979727
0.976222
0.971515
0.966595
0.959897
0.956766
0.957683
0.960124
0.961916
0.96255
0.962623
0.967345
0.977795
0.986019
0.991078
0.995142
0.998506
1.0005
0.999216
0.990779
0.980535
0.974451
0.97305
0.973899
0.97558
0.983724
1.00061
1.01135
1.01525
1.01708
1.01784
1.01769
1.01525
1.00543
0.9956
0.99198
0.992045
0.993682
0.996181
1.00599
1.01957
1.0269
1.02991
1.03122
1.03179
1.03203
1.0274
1.01518
1.00454
0.999053
0.996951
0.997937
1.01
1.02202
1.04271
1.2445
1.69852
0.917954
0.919637
0.910547
0.897609
0.893278
0.89345
0.895446
0.901122
0.907355
0.91404
0.923355
0.928349
0.928667
0.927396
0.927212
0.927571
0.928523
0.928588
0.927839
0.927522
0.926014
0.919943
0.915589
0.915653
0.918646
0.928929
0.94513
0.957723
0.963534
0.965645
0.966109
0.962159
0.947232
0.932882
0.929008
0.929326
0.932002
0.938855
0.946836
0.955722
0.966841
0.971932
0.972291
0.971553
0.972234
0.973308
0.974333
0.97235
0.968604
0.965527
0.962517
0.958227
0.956092
0.957193
0.963289
0.977822
0.990828
0.998064
1.00155
1.00345
1.00411
1.00165
0.990383
0.978639
0.974306
0.974348
0.975984
0.978852
0.987235
1.00241
1.01159
1.01481
1.01605
1.01721
1.01828
1.01734
1.01009
1.00122
0.996258
0.994147
0.993274
0.994273
1.00251
1.01681
1.02572
1.02977
1.03201
1.03314
1.03332
1.02938
1.01749
1.00491
0.996962
0.993663
0.995075
1.00769
1.03502
1.25528
1.70069
0.91816
0.917851
0.911481
0.904168
0.899592
0.899913
0.90316
0.907039
0.908579
0.909632
0.910216
0.914563
0.921174
0.92594
0.930633
0.936614