/*--------------------------------*- C++ -*----------------------------------*\
  =========                 |
  \\      /  F ield         | OpenFOAM: The Open Source CFD Toolbox
   \\    /   O peration     | Website:  https://openfoam.org
    \\  /    A nd           | Version:  12
     \\/     M anipulation  |
\*---------------------------------------------------------------------------*/
FoamFile
{
    format      ascii;
    class       surfaceScalarField;
    location    "1.44";
    object      phi;
}
// * * * * * * * * * * * * * * * * * * * * * * * * * * * * * * * * * * * * * //

dimensions      [1 0 -1 0 0 0 0];

internalField   nonuniform List<scalar> 
33852
(
0.000251329
2.24281e-05
-0.000273757
-0.000246121
1.32441e-05
0.000232877
-0.000166159
-6.5214e-05
0.000234618
0.000304053
-0.000163969
-0.000140085
0.000287476
-4.29357e-05
-0.000240255
2.72441e-05
-0.000260681
0.000233437
0.000314781
1.4675e-05
-0.000329469
0.000304277
-9.59564e-05
-0.000208321
0.000286413
-3.50841e-05
0.00018766
2.06895e-06
-0.000190161
0.000289436
-0.000366378
7.69553e-05
0.000360607
-4.56053e-05
-4.39602e-05
0.000263285
-0.000219325
-4.39569e-05
0.000318096
-0.000274131
5.66402e-05
-0.000223168
0.000252057
1.2236e-05
-0.000264293
0.000264853
-1.2796e-05
-0.000278433
3.23121e-05
0.000340557
-5.11175e-05
0.000158593
0.000112308
-0.000270901
-2.43661e-05
0.000303507
-0.000279018
0.000271377
-0.000276165
4.78802e-06
-1.76444e-05
0.000275086
-0.00025662
-0.000221978
1.44295e-05
0.000208048
-0.000154692
-0.00018326
0.000336762
-0.000148682
-6.99684e-05
0.000218829
3.72401e-05
0.000267037
-6.13852e-05
-0.000263089
0.000325653
-0.000209902
1.75252e-06
0.000207854
-0.000203558
-1.91388e-05
0.000142045
0.000137388
-0.000279433
0.000341809
1.93101e-05
0.000142618
0.000128347
-0.000270965
-0.000101136
0.000259729
-0.000250489
-3.78001e-06
0.000254269
0.000330799
-5.95002e-05
-0.000271245
-0.000358927
0.000204124
-0.000226642
0.00020953
0.000231645
3.32081e-05
-5.65602e-06
0.000237301
-8.12625e-06
0.000203607
-0.000232625
0.000259869
0.00031432
-5.58114e-05
-0.000255176
-0.000309093
5.51042e-05
0.000253989
0.000241181
-0.000300711
0.000273589
-0.000306321
3.27321e-05
-0.000180237
-5.49362e-05
0.000235173
0.000272133
-0.000272133
0.000148429
-0.000297473
0.000149045
-0.000210273
0.000219242
-7.2338e-06
-0.000268241
0.000237301
3.09401e-05
-0.00020134
0.000247928
-4.77339e-05
-9.16164e-05
-0.000217477
-0.000114457
-0.00025192
-0.000280169
0.000266113
1.40561e-05
0.00033004
1.19048e-05
-0.000250433
7.01963e-05
0.000117908
0.000145909
-0.000263817
1.34681e-05
-0.000267457
0.000253989
-0.000134569
0.000282997
-0.00015083
-4.99151e-05
0.000211972
-0.000274681
0.000245113
2.95681e-05
0.000237553
-0.000268437
3.08841e-05
-0.000185875
-2.35273e-05
0.000151665
0.000115565
-0.00026723
-0.000192104
-2.83365e-05
0.000217653
0.000263985
2.24281e-05
0.000275941
-2.35201e-06
0.000265329
-0.000250741
-1.45881e-05
0.000218272
-6.29193e-05
-0.000156044
-1.82001e-06
0.000239373
0.000367473
-0.000313711
-5.39795e-05
-2.83821e-05
0.000306897
-0.000275361
-0.000101584
0.000219493
0.000342203
2.41935e-05
-0.000373278
0.000353878
1.83308e-05
-0.000214945
2.26418e-05
0.000308993
-0.000320959
1.2288e-05
-0.000207514
0.000271209
-6.43373e-05
-4.45202e-06
1.70683e-05
-0.000318932
0.00030176
0.000234579
-0.000198917
-3.54185e-05
0.000269621
-0.000339739
7.00292e-05
0.000333061
-6.3413e-05
-0.000268941
0.000236573
3.23681e-05
-0.000129388
-0.000132609
0.000261997
-1.86761e-05
-0.000249565
-1.022e-05
-0.000258721
2.33548e-05
0.000200157
-0.000221727
3.01403e-05
-0.000211898
0.000180832
-2.49242e-05
0.000325691
-0.00030164
-0.000279329
0.000273701
5.62802e-06
0.000156129
-0.000296857
0.000140729
-6.00516e-05
-0.000153939
0.00020837
0.000143277
0.0001218
-0.000265077
-0.000250341
0.00022597
-0.000215353
0.000151202
-0.000168813
0.000327181
-0.000158369
0.000185389
7.16523e-05
-0.000257041
0.000255193
2.07481e-05
-0.000192277
0.000148317
5.09233e-05
0.000267875
0.000306579
-0.000289592
9.49255e-05
-0.000240339
0.000135241
0.000117096
-0.000281065
-1.82142e-06
0.000247733
-0.000249203
0.000166489
0.000122836
-0.000289325
0.000144984
9.00242e-05
-3.92002e-06
0.000259113
0.000303916
5.41841e-06
-0.000324275
0.000315315
8.93826e-06
-3.99002e-05
0.000236293
-0.000196393
4.08802e-06
-0.000284257
-2.45345e-05
0.000154019
-0.000131119
-0.000148247
0.000122186
0.000196967
-0.000167262
-0.000269921
0.000264965
4.95602e-06
2.64041e-05
0.000174721
-0.000201125
2.87841e-05
-0.000257265
0.000228481
0.000276137
-0.000262669
0.000115108
0.000212073
0.000204289
-0.000181362
-0.000175813
0.000202217
1.37694e-05
0.000282911
-0.000296852
0.000275086
2.15152e-05
0.000271558
-0.000284226
1.23448e-05
3.86402e-06
0.000267513
-1.81614e-05
0.000289103
0.000330779
9.87864e-06
0.000213906
-0.000257642
0.00031642
-0.000316651
-6.63603e-06
-0.000272693
2.74419e-05
0.000193732
0.000187993
3.98722e-05
-0.000227865
-5.66812e-05
0.000228318
-0.000171123
0.000153609
-0.000270285
0.000116676
0.000279441
-0.000329701
5.02602e-05
-6.38122e-05
0.000249201
-0.000166909
0.000315897
-0.000148989
-0.00031412
-1.00542e-05
-0.000214929
0.000175029
2.78601e-05
-0.000278349
0.000276221
-1.88441e-05
-0.000248613
1.70744e-05
-0.000301749
0.000284563
0.000344989
-0.000158593
-0.000186397
-1.67269e-05
-0.000240218
0.000257607
-0.000266617
-3.30401e-06
0.000224001
2.45841e-05
-0.000248585
0.000284509
-0.000128381
0.000140197
0.000138853
-0.000279049
-0.000197995
-1.07954e-05
0.000258169
-0.000115551
0.0002259
-0.000242555
-6.38122e-05
0.000251805
-0.000208289
0.000249481
-5.60002e-07
-0.000248921
0.000255109
-0.000237441
-0.000323386
0.000298058
-3.08841e-05
0.000203169
-0.000172285
0.000292457
1.3512e-06
-0.000293451
7.72393e-05
0.000132871
-0.000205714
4.51958e-05
-0.000192866
-0.000290171
-4.7745e-06
0.000294399
-1.47221e-06
-0.000288709
0.000146973
-0.000273925
0.000126952
-0.000257053
0.000220636
-0.000291679
0.000266693
0.000279441
-0.000312966
-1.24789e-05
0.000325053
0.000110436
0.000160836
-2.13474e-05
0.000352172
0.000140141
0.000139833
-0.000279973
0.000245029
-0.000250349
5.32002e-06
-0.000210953
0.000180069
0.000279133
-5.43202e-06
0.000350655
-3.2577e-05
-0.00030201
0.000305008
-2.03849e-06
0.000270985
-0.000270985
-0.000364527
0.000225804
0.000138719
-0.000204565
1.95922e-05
1.69563e-05
0.000275157
-0.000278461
3.30401e-06
-5.37119e-06
0.000171673
-0.000168435
-0.000197345
0.000254801
-5.74562e-05
-0.000205667
4.68175e-06
-0.000239712
0.000158166
8.17776e-05
-0.000180264
0.000261398
-8.11331e-05
0.000256285
-0.000287113
3.08281e-05
-0.000249229
5.18842e-05
-2.35301e-05
0.000276162
-0.000252154
-0.000253547
1.35801e-06
0.000252189
0.000231281
-7.28003e-06
-0.000294434
7.57092e-06
0.000286867
-0.000266085
0.000266085
-0.000284685
-5.51718e-05
-0.00017069
-0.000193895
-0.0001719
0.000216441
-4.46838e-05
-1.232e-05
-0.000239177
0.000251497
3.10801e-06
0.000210113
-0.000213221
-0.000184568
-2.27079e-05
0.000207425
7.59245e-06
0.000294572
-0.000302158
-0.000236153
-1.34401e-05
0.000249593
1.50361e-05
-0.000251189
-0.000241025
0.000256061
-0.000301374
0.000308985
0.000256117
7.16803e-06
-0.000169545
-3.24629e-05
0.000205523
-0.000145237
-0.000134765
-0.000244329
0.000240549
0.00029868
-4.37176e-07
-0.000298231
-0.000298926
5.85722e-07
0.000298285
1.92488e-05
0.000181217
0.000163773
7.70045e-05
-0.000257269
-0.000159242
0.000310908
0.000250721
-0.000108677
-0.000235145
-1.83681e-05
0.000253513
-0.000204604
-0.000126832
0.000331418
-6.10402e-06
-0.000229125
0.000235229
-2.18444e-05
-0.000182797
-0.000287685
-8.62473e-05
6.32739e-06
-0.000300731
-0.00021278
0.000328563
-0.000115427
0.000281597
0.000288205
-5.16322e-05
0.000271993
-1.57081e-05
-0.000187668
-1.40618e-05
0.000200986
0.000297523
5.07381e-07
-0.000297865
-0.000269059
-3.33222e-05
-0.000218821
0.000247605
-2.52658e-05
0.000310606
-0.000285331
0.00017689
8.08346e-06
-0.000185254
-3.37935e-05
0.00021404
-0.000301234
0.000275997
0.000293341
5.73073e-06
-0.000298558
0.000157445
0.00011886
-0.000276305
0.000288798
5.25358e-06
-0.000294541
-0.000256361
0.000113898
0.000127209
-0.000281966
0.00029558
0.000302513
-0.000156857
-0.000145657
0.000207005
-0.000203897
-0.000232009
-0.000121156
-0.000155009
-4.06407e-06
-0.000294095
0.000298116
-1.0136e-05
0.000276249
0.000288144
-1.96745e-05
-0.00027053
-0.000262816
2.91331e-05
0.000233873
0.000271433
-0.000267569
0.000249621
2.95121e-05
0.000314947
-9.75234e-06
-0.000305199
4.97268e-05
0.000155213
-0.000206975
-0.000104604
0.000210226
-0.000100865
0.000252617
-2.91201e-05
-0.000223497
8.57392e-07
0.000292405
-0.000179483
-3.23308e-05
0.000216897
-2.50544e-06
0.00029061
-9.33244e-05
0.000246933
-0.000255417
-5.26402e-06
0.000121184
0.000181329
1.34121e-05
0.000241557
-0.000254969
0.000236097
1.34961e-05
-0.000249593
0.000249509
-0.000242929
0.000256425
6.36722e-05
-0.000203297
0.000139935
-0.00020683
0.0001172
-0.000199869
0.000297264
1.37653e-06
-0.000298628
0.000253849
2.22881e-05
0.000268493
-0.000216441
-5.20522e-05
0.000225518
-0.000246849
2.13305e-05
0.000257909
1.40841e-05
5.86286e-05
0.000293893
0.000267186
-3.89594e-05
-0.000228226
0.00017449
1.274e-05
0.000240297
-0.000253037
0.000195503
-0.000115094
-8.04515e-05
-0.000206381
2.16274e-05
-1.26921e-06
-0.000297909
0.000299407
0.000222347
-0.000169156
-5.28747e-05
0.00034481
-4.12635e-05
0.000275969
-0.000135829
2.31561e-05
0.000238337
-0.000261493
-0.000231141
0.000254297
-2.6694e-05
-0.000229732
0.000256411
0.000156879
-0.000163526
-8.08823e-05
-0.000178518
-0.000261723
4.14346e-05
0.000220288
-3.17521e-05
-0.00022997
7.51502e-06
0.000261717
-3.25193e-05
-0.000229198
1.68255e-05
0.000126336
-0.000195237
0.000308785
-0.000171397
0.000262319
-3.57923e-05
-0.000226526
-0.000319033
0.000185996
-9.93138e-05
-0.000228453
-6.90203e-05
-7.03858e-07
-0.000299504
0.000299894
-2.71249e-05
0.000179557
-0.000149899
0.000308088
6.85108e-06
0.000250097
-0.000248249
-1.84801e-06
-0.000176457
6.13799e-05
0.000260253
-3.0742e-05
-0.000229515
0.000197345
-0.000250769
5.34242e-05
0.000254206
-0.000231206
-2.29991e-05
-0.000252337
0.000240017
0.00014488
0.000101933
-0.000101864
-0.000170269
0.000132496
-0.000261885
-0.000290249
0.000242201
4.80481e-05
0.000216808
3.12471e-05
-0.000248056
-0.000236997
-9.96633e-06
0.000245541
0.000330439
-2.26159e-05
0.000263996
-3.42721e-05
-0.000229724
0.000137624
-0.000246078
9.07914e-05
3.63259e-05
-0.000265637
0.000229311
-0.000253905
0.000121296
0.000249817
-5.24722e-05
0.000294673
-0.000154253
-0.000140421
0.000122248
-0.000289157
1.53441e-05
0.000237665
-0.000253009
-0.000262031
3.54705e-05
0.00022656
-2.75554e-06
-3.77917e-05
-0.000224239
0.000249088
-0.000272249
-0.000264649
3.44737e-05
0.000230175
0.000193257
0.000101416
-0.000149941
0.000290137
-0.000173668
-3.8794e-05
0.000212505
-1.81721e-05
0.000263201
-0.000292398
0.00030946
0.000117852
0.000104137
0.000261325
-0.000261325
0.000315665
-2.31478e-05
-0.000288651
5.32002e-07
0.000248949
0.000254857
1.65761e-05
0.000309855
-0.000276767
-3.32173e-05
-2.26336e-05
0.000266577
-0.000243943
3.00077e-05
-0.000260519
0.000230511
-0.000252139
0.000229506
0.000325862
3.11501e-05
-0.000260598
0.000229447
0.000276809
-3.16961e-05
-5.58907e-06
-0.000295905
0.000301793
0.000270627
3.86657e-05
0.000230245
-0.000266617
3.63721e-05
0.000204409
-0.000206674
-0.000258301
0.000238533
1.97681e-05
0.000169762
-0.000257245
8.74835e-05
-0.000211072
0.000163241
-0.000249145
8.59043e-05
-0.000266169
0.000224813
4.13562e-05
0.000253073
-2.78797e-05
-0.000225194
0.000173697
4.42495e-05
-0.000234837
-2.29601e-05
0.000257797
-0.000236377
-2.28761e-05
0.000259253
-1.94265e-05
0.000255969
-0.000236542
-0.000259345
0.000239919
-3.09162e-05
0.000161669
-0.000235929
-2.24001e-05
0.000258329
-0.00025484
0.000229192
2.56481e-05
2.94001e-06
0.000211289
-0.000214229
-0.000267031
3.79849e-05
0.000229046
0.000270677
4.48002e-06
4.08714e-05
0.000155835
-0.000197013
-3.31196e-05
0.000249927
-2.11502e-05
0.000218597
9.73004e-05
0.000248202
-0.000216956
0.000278493
-0.000280003
0.000278112
-0.000283117
-1.84997e-05
0.000258601
-0.000240101
-0.000261644
0.000243145
3.03972e-05
-0.000202607
-2.94921e-05
-0.000221586
0.00024661
0.000314849
-0.000287159
-2.73814e-05
0.000261297
-3.11081e-05
-0.000230189
3.28739e-05
-0.000262362
0.000229488
-0.000229853
0.000259645
-2.97921e-05
0.000325771
-1.76949e-05
0.000141697
-0.00020538
0.000256929
-0.000109956
-0.000286572
0.000288092
0.000241977
-6.41202e-06
-0.000235565
0.000228537
-0.000180085
-3.77052e-05
0.000219309
2.89907e-05
-0.000209593
-0.000239989
0.000260317
-2.03281e-05
-0.000103954
0.000190053
-8.60752e-05
3.12803e-05
-0.000204083
0.000240169
-0.000263424
2.32552e-05
-0.000115584
0.000258861
-0.000243993
0.000265721
-2.17281e-05
-0.000238953
0.000232541
0.000258626
-0.000245105
-1.35213e-05
0.000264349
-2.46681e-05
-0.000246317
-0.000273557
-1.05826e-05
0.000293616
-5.36532e-05
-8.06587e-06
0.000291868
-0.000284827
-0.000158497
0.000198273
0.000226681
1.76222e-05
-0.000246925
0.000329149
-0.000328858
0.000260955
-0.000245018
-1.59377e-05
-0.000301927
-6.658e-07
0.000305763
9.74274e-06
3.68249e-05
0.000165382
-0.000203841
0.000228828
-3.85468e-05
-0.000191338
0.000278054
-0.000255789
-2.22648e-05
-0.000204786
3.11698e-05
3.15421e-05
-0.000261891
0.000230348
0.000285254
-0.000290987
2.44721e-05
-0.000259617
-0.000257965
1.87881e-05
0.000266057
-1.64361e-05
0.000151173
-0.000267625
0.000116452
0.000299008
-4.44296e-06
0.000238617
-7.53763e-05
2.12521e-05
0.000177045
-0.000198297
-0.000183877
0.000205129
-0.000236275
0.000257219
-2.09441e-05
0.000261462
-3.31689e-05
-0.000228293
-0.000197009
-5.21362e-05
0.000251581
-1.48401e-06
9.20722e-06
-0.000263471
0.000254544
-0.000341308
0.000235161
0.00010598
0.000266371
-0.000236811
-2.95597e-05
0.000306915
-0.000314679
7.78983e-06
-2.57041e-05
-0.000229097
0.000254801
0.000261493
-7.64403e-06
9.75812e-06
-0.000208582
0.000262411
-3.19033e-05
-0.000230508
-6.90483e-05
-0.000260653
-0.000194685
0.000248025
-5.33402e-05
-0.000266533
0.000249985
1.65481e-05
-0.000318053
1.66917e-05
-1.73706e-05
0.000298243
-0.000279976
-0.000276221
1.65481e-05
0.000249537
-0.000168439
6.48089e-05
0.000273982
1.47873e-05
-0.000288765
-0.000316136
0.000307892
8.22475e-06
3.46641e-05
-0.000263649
0.000228985
-1.74585e-05
0.000281543
-0.00031533
1.63902e-05
-0.000176541
-7.42283e-05
-0.000251474
0.000212379
-2.16721e-05
-0.000216469
0.000238141
-0.000314709
0.000295791
1.88982e-05
-0.000135302
0.000283238
-0.00014329
-8.39812e-06
3.31521e-05
-0.000263453
0.000230301
-0.000196846
2.42846e-05
0.00017474
0.000221508
0.000280152
-0.000281004
2.52288e-07
-0.000236993
-2.20921e-05
0.000224813
-0.000202721
0.000139273
0.000143753
-0.000278517
0.000202195
-5.73262e-05
0.000308126
-1.05571e-05
0.000209289
-0.000268697
2.92853e-05
0.00022306
-0.000252345
-0.00032132
0.000137842
0.000296514
2.92344e-05
1.94189e-05
-0.000224355
-2.77845e-05
-0.000137332
-0.000132825
-0.000326819
0.000114019
0.000242873
2.56201e-05
0.000218765
-0.000224869
1.0435e-05
-0.000286423
0.000274816
-0.000242892
0.00027017
-2.71789e-05
0.000281469
-0.000281879
0.000288826
-7.60669e-05
-8.86291e-06
0.000290341
-1.87881e-05
0.000247101
-0.000228313
0.000281555
-0.000290411
-5.62255e-06
-0.000283944
0.000289647
0.000282121
-0.000269905
0.000284757
0.000226314
2.67597e-05
-0.000310966
0.000318228
-7.42314e-06
0.000248248
-2.16361e-05
0.000226067
2.42988e-05
-0.000268913
0.000246057
-2.05381e-05
-0.000259401
3.02849e-05
0.000229116
0.000178305
7.64963e-05
9.24359e-06
0.000280815
-0.000291073
-0.000238141
-2.88401e-05
0.000266981
2.51441e-05
-0.000263285
0.000284117
-0.000162317
-0.000232177
0.000261129
-2.89521e-05
-0.000234697
0.000260709
-2.60121e-05
1.34939e-06
0.000278532
2.45001e-05
-0.000259197
2.38001e-05
-0.000255977
0.000274352
-0.000242992
-3.13346e-05
0.000317881
-1.00171e-05
-0.000304051
-3.90607e-06
-0.000255753
1.1816e-05
0.000243937
-1.73386e-05
-0.000261185
0.000228065
-0.000245337
0.000270145
-2.48081e-05
-0.000263229
1.49801e-05
-2.36075e-05
0.000286208
-0.000262557
2.13641e-05
-0.000266701
-0.000241551
-2.13536e-05
3.26942e-05
-9.0432e-05
0.000260194
0.000280784
-0.000286392
5.05122e-05
0.000237693
0.00028199
-0.000281492
-0.000243181
-2.39401e-05
0.000267121
-0.000260894
7.34723e-06
-0.000293213
1.90221e-05
0.000275772
-0.000268717
2.55361e-05
-8.27733e-06
0.000290053
-0.000268326
0.000243549
2.47773e-05
-0.000232513
0.000210841
0.000280471
-0.000289355
-6.16002e-07
0.000260289
-0.000259673
-0.000301907
-1.6144e-05
-0.000264573
2.35481e-05
-0.00024417
-2.41555e-05
-3.43281e-05
-0.000298104
0.000293999
0.000286674
-0.000158327
0.000295667
-0.000289242
2.30152e-05
4.89625e-06
0.000262685
-0.000255799
-7.21372e-06
0.000307563
-2.02211e-05
-0.000287347
5.95698e-05
-0.000246765
-2.19521e-05
-0.000356175
0.000241624
0.000285404
-0.000280959
2.33801e-05
-0.000188822
-1.58017e-05
-0.000307589
2.59432e-05
0.000282011
-0.000197785
0.000309071
-0.000114316
0.000259841
-0.000238533
-2.13081e-05
-0.000291785
2.94001e-05
0.000222097
-0.000251497
-0.000166311
0.000138458
-0.000163052
0.000251441
-0.000238029
-1.34121e-05
-0.000263873
3.40201e-05
-2.23161e-05
-0.000269837
0.000251469
0.000230427
3.12901e-05
-4.62338e-05
0.00019996
0.000232619
-0.000260499
-1.7398e-05
-3.28944e-06
0.000246093
-0.000243353
-0.000293328
-0.000237049
0.000265189
-2.81401e-05
0.000230096
3.22225e-05
-0.000268521
2.55921e-05
-0.000239905
-2.86161e-05
0.000228954
-0.000260706
-0.000282532
4.73202e-05
-0.000242005
0.000293355
-0.000283741
-0.000288957
1.32191e-05
0.000274929
-3.8247e-06
0.000219852
0.000228551
-0.00026107
0.000296885
-0.0001309
-0.000165985
0.000241718
-0.000261791
0.000271189
-0.000226213
-1.76681e-05
-0.000161326
0.000301956
-0.00014054
2.49649e-05
0.000222662
-0.000247627
-0.000192687
0.000192871
-0.000283757
0.00028255
6.9705e-06
-0.000290734
-0.000302485
0.000146693
0.000155793
0.000259995
-0.000239359
-2.06361e-05
-0.000215741
0.000193649
0.00026172
3.73463e-07
0.000257293
0.000232526
2.16797e-05
-0.0002959
-6.26217e-05
1.04866e-05
0.000234885
-0.000252287
1.75142e-05
-0.000230917
-2.37161e-05
0.000254633
-0.000242295
0.000263191
-2.08965e-05
8.3728e-05
0.000135815
2.04096e-05
-0.000305924
0.000286872
0.000256565
-1.80041e-05
-0.000238561
0.000243881
-0.000254017
1.0136e-05
-0.000226745
0.000207957
0.000223131
-0.000258923
-0.000244693
4.76842e-05
1.59629e-05
-0.000137651
-0.000218645
1.57921e-05
0.000245701
0.000280399
0.000293921
0.00030585
1.71454e-06
0.000249817
-0.000220417
2.51749e-05
0.000225009
-0.000250184
-0.000243178
0.000268865
-2.56873e-05
2.28201e-05
-0.000262725
-0.000113316
0.000296818
9.15879e-06
2.08181e-05
0.000261675
-0.000235103
-2.65721e-05
1.33691e-05
-0.000305566
0.000292091
0.000321762
-3.08416e-05
-0.000290928
0.000249733
1.63241e-05
0.000306059
-0.000293797
-0.000229599
-0.000112045
9.63204e-06
0.000250657
-4.9129e-05
-0.00020239
0.000251519
2.20333e-05
0.000246832
-0.000241686
-2.29629e-05
0.000260737
-2.24001e-05
0.000287781
-0.000268023
2.63369e-05
2.68241e-05
-0.000257965
0.000210617
-0.000207677
2.58161e-05
-0.000262865
0.000279751
0.000121744
-0.000256173
0.000134429
1.90976e-05
3.75024e-05
0.000157796
-0.000194554
-0.000239485
-2.85377e-05
4.00246e-05
0.00016223
-0.00020306
-0.000246691
0.000271066
-2.43747e-05
0.000209866
-0.000248826
1.98857e-05
1.73137e-05
-0.00017343
-3.04486e-05
0.00022668
-0.000257412
-2.88401e-05
0.000244245
-0.000215405
-2.16161e-05
0.000242985
-0.000221369
0.000201657
-0.000250786
-0.000273648
-0.000232905
-2.55081e-05
0.000258413
0.000241234
2.98318e-05
-0.000212264
-2.3336e-05
0.000236521
-2.18821e-05
-0.000224967
-0.000239345
6.28042e-05
0.000259004
-0.000229718
4.75106e-05
-0.000249901
-3.43393e-05
0.000257694
-0.000223354
0.000205675
-0.000240014
0.000261689
-1.1956e-05
-6.06764e-05
-0.000229572
-0.000225019
-1.76495e-05
0.00024135
0.000247109
5.3175e-05
0.000212448
-0.000265623
-0.000261099
0.000177353
-0.000231757
5.44042e-05
6.42705e-05
0.000136594
0.000259457
-0.000240915
-2.47224e-05
-0.000265385
0.000227165
3.82201e-05
-2.87813e-05
-0.000222158
0.00025094
-0.000283536
0.000264161
0.000234501
3.61761e-05
2.18821e-05
0.000234087
-0.000307217
0.000151089
0.000156129
0.000167736
-5.30651e-05
0.000254045
-0.000115192
2.56901e-05
0.000217446
-0.000243136
-0.000286289
0.000287553
9.27258e-06
0.000257377
-0.000245953
0.000208937
3.70161e-05
0.000254832
0.000245745
-1.92624e-05
-0.000246815
-2.02161e-05
-0.000263019
2.0724e-05
-0.000269215
2.24001e-05
2.79601e-05
0.000220024
-0.000247984
0.000242481
-0.000274597
1.32721e-05
0.000249106
-1.41784e-05
1.27416e-05
-0.000251688
-0.000328708
0.000124006
-0.000233135
-2.62109e-05
-0.000252113
0.000252113
0.000259782
-0.000144217
-1.82783e-05
-0.000279474
0.000297748
0.000263828
0.000258749
-0.000135913
0.000224113
2.39205e-05
0.00023468
7.81155e-05
-0.000340236
3.81492e-05
0.000258962
1.76363e-05
-0.000248843
-3.00917e-05
0.000207453
-3.01001e-05
0.000259701
2.95429e-05
0.000218353
-0.000247896
-3.05014e-05
-4.09782e-05
-0.000217818
0.000258797
-0.000233423
-2.14173e-05
3.7789e-05
-0.000201299
0.000162482
-3.30877e-05
0.000221671
-0.000255943
-0.000281844
-8.60421e-06
0.00029041
-0.000193476
0.000165163
0.000166349
8.16763e-05
1.2644e-05
-0.000294494
0.000235075
2.59446e-05
-0.000261019
-0.000196761
-1.27049e-06
0.000232743
-0.000264287
3.15449e-05
-8.42803e-06
-0.000217029
0.000225457
-0.000163513
0.000199681
-0.000249985
-3.46025e-05
0.000256274
0.000218076
-0.000252679
-0.000246289
0.000272245
-2.59561e-05
0.000253547
2.78321e-05
-0.000232062
-2.95821e-05
-0.000298083
0.000315117
-1.79682e-05
2.30967e-05
0.000212462
-0.000250254
-0.000267233
2.09441e-05
-2.12801e-05
-0.000245953
-3.61481e-05
0.00024861
-0.000290762
-1.40444e-05
0.00022082
-0.000256968
0.000246276
-0.00024995
1.52409e-06
2.80002e-06
0.000181413
-0.000184213
0.000255294
0.000234529
2.67681e-05
-2.62361e-05
0.000245001
-0.000218765
3.36001e-05
0.000216609
-0.000250209
0.000244861
2.73841e-05
0.000306545
-0.000143949
-0.000162597
1.57147e-05
0.000241009
-0.000255899
0.000271013
-0.000113568
0.000225569
-0.000256677
-0.000241173
0.000104823
-0.000265469
7.16803e-06
-0.000241635
-2.75801e-05
-0.000241361
-2.48081e-05
0.000310586
-2.75668e-05
-7.67483e-05
0.000243097
-1.1452e-05
-0.000215601
0.000224281
-8.68003e-06
0.000255193
-7.68883e-05
3.39867e-05
-0.000190874
0.000163404
-0.000265245
-1.40001e-07
-4.14962e-05
3.98927e-05
0.000161259
-0.000200903
0.000198788
-0.000158501
0.000257041
-7.05603e-06
0.000251151
-0.000218277
-1.82425e-05
-2.1128e-05
0.0002793
-9.49046e-05
-0.000182914
-1.42801e-05
-0.000191913
0.000206193
0.000258665
-1.53553e-05
-0.00024331
1.98101e-05
0.000238855
-0.000280526
-8.26777e-06
3.69073e-05
-0.000192507
0.000156873
1.36921e-05
0.000247997
-0.000159797
0.00019806
-1.95189e-05
0.000248711
3.24912e-05
0.000185907
-0.000220718
-4.17202e-06
-2.49389e-05
0.000265108
-0.000231955
-3.14693e-05
0.000297176
-0.000281465
-1.53914e-05
1.63717e-05
-0.000237659
0.000221288
-0.00010514
0.000226885
1.93204e-05
-0.000305066
0.000285871
2.52001e-05
-2.79441e-05
2.69165e-05
0.000308792
-0.000289472
0.000238891
1.97345e-05
2.15601e-06
0.000231617
-0.000233773
-0.000310303
2.56349e-05
0.000284784
-0.000162177
-0.000144145
0.000209178
-0.000250156
-0.000160693
0.000241924
1.90317e-05
0.000256511
-4.13534e-05
0.000250531
0.000214498
-0.000255851
0.000319132
-0.000318632
-1.08355e-05
0.000287057
-0.000275277
-0.00030019
1.92018e-05
0.000282947
4.20842e-05
-0.000286413
-3.83033e-05
0.000252483
2.62921e-05
-2.21954e-05
0.000306766
-0.000285928
2.43321e-05
3.89281e-05
0.000159541
-0.000198038
0.000249294
-0.000219751
2.83277e-05
-0.000261633
4.36802e-06
-1.99821e-05
0.000306647
-0.0002866
-0.000250987
-0.000266673
3.07441e-05
0.000252141
-0.000236741
-1.54001e-05
1.2264e-05
0.000239877
-0.0002763
-1.31174e-05
0.000255697
-5.46714e-06
0.000320069
-1.22377e-05
0.000297551
-0.000285525
-4.66917e-05
0.000247437
-0.000235621
0.000257601
-1.99361e-05
0.00013598
9.03252e-05
-0.000223715
0.000231384
3.03493e-05
0.000226759
-0.000258662
3.71393e-05
0.00027259
-0.000289293
1.73867e-05
0.000251273
-0.000239093
-1.31321e-05
0.000252225
-2.91201e-05
-0.000257265
2.56481e-05
0.000231617
-0.000228005
-2.92601e-05
0.000259765
-0.000233571
-2.61941e-05
0.000258721
-0.000266793
2.52003e-06
0.000289744
1.31945e-06
-0.000290905
0.000247877
-0.00023235
-1.85921e-05
0.000308859
-0.00030084
-8.04379e-06
0.000245812
-9.95712e-05
-0.000266897
2.56761e-05
0.000241221
-3.48881e-05
-0.000232009
-0.000266393
2.51161e-05
0.000241277
-1.21526e-05
-0.000268027
0.000280555
-3.45241e-05
-0.000231869
-0.000261695
1.91858e-05
-0.000266281
2.43881e-05
0.000241893
-0.000283241
-2.14822e-05
-0.000305097
2.71708e-05
0.000277987
-3.34041e-05
-0.000232877
-0.000165663
-0.000258133
2.94001e-05
0.000228733
0.000309268
-0.000309256
-0.000195805
0.000209049
-3.29281e-05
-0.000225205
0.000197302
-0.000278775
8.15073e-05
0.000282396
2.1861e-05
-0.000301953
1.76961e-05
0.000285457
-0.000280837
-4.84345e-06
-0.000257125
0.000231617
2.55081e-05
0.000164972
2.76993e-05
-0.000200612
-0.000266953
2.81681e-05
0.000238785
-0.000227361
-2.97641e-05
-3.67361e-05
-0.000230217
0.000275718
0.000296319
1.8574e-05
-0.000275747
-3.11619e-05
0.000306379
-0.000258679
-1.09849e-05
0.000298115
-0.000286649
1.50086e-05
-0.000301839
0.000286826
-0.000230609
-0.000307464
0.000287478
0.000263005
-2.51321e-05
-0.000280542
1.36081e-05
0.000172787
0.000231035
1.90329e-05
-0.000249154
-0.000201697
0.000163123
0.000236738
1.31517e-05
-0.00024989
-0.00025833
2.66093e-05
0.000231721
-1.09228e-05
0.000247661
5.74002e-06
0.000246877
-3.19817e-05
-0.000226348
0.000299594
-0.000285732
-1.38436e-05
0.000228024
-0.000226666
0.000289831
0.000237685
1.98521e-05
-0.000257537
-1.24236e-05
0.000250108
0.000246636
1.50389e-05
-0.000305113
1.53866e-05
0.00024448
2.18905e-05
3.23627e-05
-0.000198977
-0.000287289
-1.77202e-05
-0.000182869
0.000295177
-0.000148785
0.000181469
-3.28518e-05
3.01998e-05
-0.000196574
0.000165998
-0.000161626
0.000259149
-0.000239236
-1.99137e-05
0.000262412
-0.000274958
-0.000241255
0.000231111
-2.18342e-05
0.000300503
-0.000279246
0.000307792
-0.000292879
0.000242117
1.77241e-05
-0.000224975
0.00024443
-1.94545e-05
1.61001e-05
-0.000241075
-7.00003e-06
0.000260989
-0.000297195
4.89449e-06
0.000292314
-0.000174497
0.000160217
-1.74105e-05
-6.30082e-06
-0.000290887
-1.6808e-05
-0.000285065
4.28402e-06
-0.000297924
0.000133163
-0.000257446
2.37494e-05
0.000233655
0.000238197
1.32441e-05
-3.08187e-05
-0.000226648
-3.31325e-05
-0.000291506
2.15268e-05
-0.000223912
0.00020431
0.000254969
-0.000233465
-2.15041e-05
-0.000196476
0.000219081
-0.000185553
-7.34703e-06
0.000203081
0.000137338
0.000137864
4.10081e-06
0.000271865
0.000279443
-0.000305438
3.3789e-06
0.000242748
-1.99608e-05
0.00029974
-0.000279533
-0.000302337
0.000287633
1.47416e-05
-0.000258301
0.000230077
2.82241e-05
-2.64041e-05
-0.000231897
0.000302576
-0.00030245
0.000267896
-1.98101e-05
0.000303639
-0.000283495
0.000285834
-4.85483e-07
-0.000256873
0.000256873
-0.000267638
0.000295172
-0.000144918
-6.67091e-05
-7.13251e-06
0.000295483
-0.000288864
-0.000297275
0.00029019
0.000292615
-0.000279665
0.000291688
-0.00030644
1.51353e-05
3.48156e-05
-0.000241171
0.00021457
2.28131e-05
-1.45052e-05
-0.000247107
0.000229404
-1.43343e-05
0.000298327
-0.000283589
0.000263481
-1.96001e-05
0.000254224
-0.000235464
-1.87601e-05
-3.07972e-05
-0.000273286
0.000303963
1.44723e-05
-0.000297512
0.000283026
-1.45881e-05
0.000233465
-0.000218877
0.000211873
-0.000295265
0.000283271
-1.92565e-05
0.000304675
-0.000285446
0.00025102
-2.69458e-05
0.000297088
-0.000270654
-0.000295486
0.000268453
1.07156e-05
0.000244749
-0.000255465
0.000305283
-0.000312115
6.82729e-06
1.79213e-05
1.46465e-05
0.000287251
-0.000302172
6.30115e-06
0.000283791
2.30548e-06
-0.000319098
-0.000289351
0.000304548
-0.000242481
0.000243657
8.45603e-06
-0.0002264
0.000242772
-0.0002934
0.000274138
0.000285207
-0.000162297
-8.82593e-05
0.000294271
1.45316e-05
3.121e-05
-0.000198163
0.000167398
-0.00027452
0.000257293
-0.000219535
0.00024982
0.000243411
1.92865e-05
-0.000262697
0.000236019
2.31309e-05
-0.000300884
0.000282276
0.000312335
-1.79788e-05
0.000237945
-0.000257069
1.91241e-05
-0.000222494
0.000247459
0.000294355
1.80694e-05
-0.00016779
-1.45376e-05
0.000298357
-0.000283928
-0.00014298
-0.000266415
0.000159993
0.000106423
-0.000308035
0.000295346
1.33893e-05
-0.000258699
0.000241826
1.68729e-05
-0.000145606
0.000148188
-0.000306355
0.000288485
1.78273e-05
-0.000215024
0.000179745
-9.69084e-06
0.000253101
2.04876e-05
1.75984e-05
-0.000304135
0.000286581
-0.000300084
-7.29729e-06
0.000307349
-0.000249229
0.000220109
-0.000201153
-8.52603e-05
-0.000271879
0.000252254
0.00030396
-0.000286306
-0.000189846
1.77888e-05
1.51531e-05
0.000284493
-0.000299603
-8.80603e-05
0.000239233
-0.000304275
1.95955e-05
0.000284049
-0.000205584
-2.86481e-06
-0.000297717
-0.000169401
2.05297e-05
0.000302474
-0.000287979
-1.46658e-05
-0.000172341
-0.00029862
-0.000174857
-2.2428e-05
0.000243528
0.000289516
1.71538e-05
0.000252869
5.74713e-05
-0.000284096
-0.000247213
-0.000267179
-2.20554e-05
-0.000275113
0.000300838
-0.000261252
0.00028238
-0.000165684
-4.10193e-05
0.000202626
0.000197569
1.56521e-05
-0.000213221
-1.25018e-05
-0.000285642
0.000298036
1.83597e-05
1.86568e-05
-0.000305649
0.000287124
0.000253345
-1.71361e-05
-0.000236209
1.89006e-05
-0.000304357
0.000285421
2.03561e-05
0.000232989
0.000216385
-2.46121e-05
-0.000191773
1.58302e-05
0.000282274
-0.000298071
-0.000243357
0.000117613
-0.000303916
1.86709e-05
0.000285263
0.000211667
-4.89902e-05
-0.000297109
1.42751e-05
0.000286968
0.000255837
-2.19801e-05
-0.000233857
-0.000304894
0.000106924
0.000234529
1.70521e-05
-0.000251581
0.000280076
1.71403e-05
0.000303642
-0.000284796
1.81941e-05
-0.000299517
0.000233512
1.84916e-05
-0.000252004
-1.80604e-05
-1.41547e-05
0.000297944
-0.000283755
-0.000279576
0.000300402
-0.000278266
0.000289198
-0.000301436
1.10998e-05
0.000249741
-1.62291e-05
1.14859e-05
0.000250041
-1.55121e-05
0.000298281
-0.000282464
3.95922e-05