/*--------------------------------*- C++ -*----------------------------------*\
  =========                 |
  \\      /  F ield         | OpenFOAM: The Open Source CFD Toolbox
   \\    /   O peration     | Website:  https://openfoam.org
    \\  /    A nd           | Version:  12
     \\/     M anipulation  |
\*---------------------------------------------------------------------------*/
FoamFile
{
    format      ascii;
    class       volVectorField;
    location    "17";
    object      U;
}
// * * * * * * * * * * * * * * * * * * * * * * * * * * * * * * * * * * * * * //

dimensions      [0 1 -1 0 0 0 0];

internalField   nonuniform List<vector> 
9801
(
(1.17293 -0.0654476 0)
(1.17016 -0.062859 0)
(1.16573 -0.0603504 0)
(1.16081 -0.0568638 0)
(1.15651 -0.0539098 0)
(1.15311 -0.0515601 0)
(1.14983 -0.0498336 0)
(1.14683 -0.0480499 0)
(1.1465 -0.0458354 0)
(1.15222 -0.0434111 0)
(1.15718 -0.0408288 0)
(1.15711 -0.0383973 0)
(1.15451 -0.0363269 0)
(1.15029 -0.0344281 0)
(1.14412 -0.0321317 0)
(1.13813 -0.0294013 0)
(1.13407 -0.0266902 0)
(1.13058 -0.0246319 0)
(1.12717 -0.0231498 0)
(1.12411 -0.0216217 0)
(1.12489 -0.0196293 0)
(1.13207 -0.0174951 0)
(1.13623 -0.0151617 0)
(1.13519 -0.0131548 0)
(1.13179 -0.0116417 0)
(1.12627 -0.0100058 0)
(1.11806 -0.0080655 0)
(1.11195 -0.00550869 0)
(1.10781 -0.0030896 0)
(1.10421 -0.00149949 0)
(1.10054 -0.000454223 0)
(1.09754 0.000848926 0)
(1.10087 0.00268861 0)
(1.1084 0.00475915 0)
(1.11004 0.00651328 0)
(1.10744 0.00791762 0)
(1.10288 0.00887218 0)
(1.09466 0.00996539 0)
(1.08529 0.0115678 0)
(1.07915 0.0139074 0)
(1.07476 0.0158256 0)
(1.07073 0.0170461 0)
(1.06664 0.0176458 0)
(1.06485 0.0188028 0)
(1.07245 0.0202925 0)
(1.07871 0.0221618 0)
(1.07773 0.0235637 0)
(1.07353 0.0242556 0)
(1.06626 0.0249813 0)
(1.05392 0.0256232 0)
(1.0439 0.0270569 0)
(1.03741 0.0287132 0)
(1.0324 0.0299788 0)
(1.0277 0.0306607 0)
(1.02382 0.0312656 0)
(1.02847 0.0324446 0)
(1.038 0.0339501 0)
(1.03944 0.0349113 0)
(1.03572 0.0355142 0)
(1.02937 0.0359298 0)
(1.01509 0.0361788 0)
(0.999497 0.0367205 0)
(0.989714 0.0383279 0)
(0.983154 0.0400185 0)
(0.977835 0.0411984 0)
(0.973039 0.0418313 0)
(0.97508 0.0428436 0)
(0.985998 0.0439387 0)
(0.98928 0.043928 0)
(0.986074 0.0442291 0)
(0.980477 0.0452314 0)
(0.967131 0.0475838 0)
(0.944487 0.0492902 0)
(0.927866 0.0518928 0)
(0.917952 0.0541237 0)
(0.910844 0.055191 0)
(0.904916 0.0549329 0)
(0.910204 0.0540291 0)
(0.924339 0.0539483 0)
(0.925844 0.0559751 0)
(0.919947 0.0584139 0)
(0.911401 0.0609323 0)
(0.895757 0.0633413 0)
(0.865987 0.0644823 0)
(0.837533 0.0651662 0)
(0.821193 0.0642649 0)
(0.810759 0.0627786 0)
(0.808234 0.0588666 0)
(0.824607 0.056659 0)
(0.830724 0.0587642 0)
(0.823055 0.063085 0)
(0.810417 0.0655128 0)
(0.790353 0.0654919 0)
(0.751337 0.0622444 0)
(0.698308 0.056695 0)
(0.644134 0.0514073 0)
(0.593512 0.00499284 0)
(0.182187 -0.0858455 0)
(-0.980303 -0.058677 0)
(1.24725 -0.118098 0)
(1.24171 -0.115671 0)
(1.23643 -0.112402 0)
(1.22773 -0.108762 0)
(1.22102 -0.105665 0)
(1.21596 -0.103099 0)
(1.21178 -0.101088 0)
(1.20806 -0.0992803 0)
(1.20767 -0.0966419 0)
(1.21344 -0.0937953 0)
(1.21496 -0.0907043 0)
(1.21235 -0.0875475 0)
(1.20844 -0.0849521 0)
(1.20422 -0.0828874 0)
(1.1973 -0.0801875 0)
(1.1876 -0.0769191 0)
(1.18097 -0.0740867 0)
(1.17595 -0.0717609 0)
(1.17174 -0.0700165 0)
(1.16802 -0.0684102 0)
(1.1684 -0.065936 0)
(1.1743 -0.0630215 0)
(1.17522 -0.0597864 0)
(1.17223 -0.056829 0)
(1.16812 -0.0546372 0)
(1.16358 -0.052761 0)
(1.15401 -0.0501345 0)
(1.14398 -0.0470455 0)
(1.13751 -0.0443392 0)
(1.13252 -0.0421945 0)
(1.1282 -0.0406285 0)
(1.12459 -0.0390332 0)
(1.12687 -0.0363193 0)
(1.13282 -0.0330169 0)
(1.13275 -0.0300991 0)
(1.12929 -0.0277653 0)
(1.12501 -0.0262965 0)
(1.11863 -0.024735 0)
(1.1062 -0.0223263 0)
(1.09645 -0.0193541 0)
(1.09023 -0.0169027 0)
(1.08525 -0.0150959 0)
(1.08082 -0.0138566 0)
(1.07852 -0.0121425 0)
(1.08475 -0.00926602 0)
(1.08918 -0.00577853 0)
(1.08715 -0.0030125 0)
(1.08297 -0.00127872 0)
(1.07805 -0.000131696 0)
(1.06646 0.00122732 0)
(1.0529 0.00358284 0)
(1.0444 0.00632172 0)
(1.03843 0.00846183 0)
(1.03328 0.00986491 0)
(1.02902 0.0107871 0)
(1.03237 0.0129088 0)
(1.04049 0.016388 0)
(1.04103 0.0193808 0)
(1.03713 0.0215898 0)
(1.03213 0.0227161 0)
(1.02206 0.0235328 0)
(1.0051 0.0241481 0)
(0.992838 0.0260928 0)
(0.98523 0.0281319 0)
(0.979333 0.0293697 0)
(0.974076 0.0300571 0)
(0.975823 0.0323278 0)
(0.986588 0.035663 0)
(0.988963 0.0398786 0)
(0.98499 0.0426516 0)
(0.979597 0.0435655 0)
(0.970048 0.0441737 0)
(0.949334 0.0429419 0)
(0.930707 0.0423056 0)
(0.919958 0.0431644 0)
(0.912375 0.0437542 0)
(0.905996 0.0444185 0)
(0.909418 0.0470336 0)
(0.920032 0.0519242 0)
(0.922119 0.0576087 0)
(0.917548 0.061539 0)
(0.910299 0.0625146 0)
(0.898166 0.0609529 0)
(0.869828 0.0558336 0)
(0.840492 0.0524557 0)
(0.823235 0.0513592 0)
(0.812487 0.0500747 0)
(0.805719 0.0500187 0)
(0.812786 0.0561952 0)
(0.819608 0.0679106 0)
(0.814361 0.0740019 0)
(0.802453 0.074316 0)
(0.784134 0.0717968 0)
(0.746242 0.0650108 0)
(0.692641 0.0569021 0)
(0.635988 0.0525472 0)
(0.588897 0.00646165 0)
(0.170915 -0.0849137 0)
(-0.996166 -0.0802476 0)
(1.24278 -0.114552 0)
(1.23701 -0.112004 0)
(1.23196 -0.108933 0)
(1.22366 -0.106056 0)
(1.21691 -0.103458 0)
(1.21165 -0.100749 0)
(1.20728 -0.0982165 0)
(1.2035 -0.0960788 0)
(1.203 -0.0932348 0)
(1.20843 -0.0900132 0)
(1.21016 -0.0871743 0)
(1.20795 -0.0844482 0)
(1.20422 -0.0817554 0)
(1.1998 -0.0793126 0)
(1.19335 -0.0767428 0)
(1.18405 -0.0746393 0)
(1.17738 -0.0725894 0)
(1.1721 -0.0702405 0)
(1.16765 -0.0680083 0)
(1.1638 -0.0660904 0)
(1.16384 -0.0633362 0)
(1.16955 -0.06003 0)
(1.17094 -0.0570265 0)
(1.16839 -0.0542627 0)
(1.16437 -0.0517826 0)
(1.15973 -0.0495412 0)
(1.15075 -0.0473424 0)
(1.14103 -0.0456966 0)
(1.13454 -0.0437431 0)
(1.12925 -0.0414029 0)
(1.1247 -0.0391987 0)
(1.12092 -0.0372404 0)
(1.12284 -0.0342067 0)
(1.12911 -0.0306412 0)
(1.12949 -0.0276976 0)
(1.12622 -0.0252467 0)
(1.12187 -0.0234333 0)
(1.11547 -0.021583 0)
(1.10347 -0.0203075 0)
(1.0943 -0.0190839 0)
(1.08816 -0.0174703 0)
(1.08285 -0.0154417 0)
(1.07818 -0.0135969 0)
(1.0754 -0.0113841 0)
(1.08116 -0.00774325 0)
(1.08615 -0.00382648 0)
(1.08464 -0.000827899 0)
(1.0806 0.00136101 0)
(1.07563 0.00305303 0)
(1.06448 0.0041688 0)
(1.05121 0.00431574 0)
(1.04298 0.00528941 0)
(1.0366 0.00699882 0)
(1.03117 0.00889271 0)
(1.02668 0.0105709 0)
(1.029 0.0136386 0)
(1.03737 0.0180947 0)
(1.0388 0.0215853 0)
(1.03533 0.0241776 0)
(1.03036 0.0256372 0)
(1.02133 0.0266164 0)
(1.00415 0.025156 0)
(0.990724 0.0248373 0)
(0.982471 0.0262404 0)
(0.976261 0.0281712 0)
(0.970974 0.0296642 0)
(0.971571 0.0327619 0)
(0.981771 0.0382813 0)
(0.98536 0.0431383 0)
(0.982117 0.0462446 0)
(0.976754 0.0475532 0)
(0.968727 0.0479141 0)
(0.948949 0.0442944 0)
(0.927571 0.0405063 0)
(0.915426 0.0401402 0)
(0.907415 0.0413817 0)
(0.900661 0.0424864 0)
(0.900533 0.0464855 0)
(0.910678 0.0547227 0)
(0.915199 0.0590721 0)
(0.911689 0.0593925 0)
(0.905048 0.0587944 0)
(0.895014 0.0589393 0)
(0.869078 0.0555788 0)
(0.837778 0.0490525 0)
(0.817747 0.0460147 0)
(0.80573 0.0457014 0)
(0.796184 0.0453455 0)
(0.795693 0.0475143 0)
(0.803989 0.0527727 0)
(0.802916 0.0551473 0)
(0.792704 0.0553622 0)
(0.777523 0.0540915 0)
(0.744674 0.0475705 0)
(0.696732 0.0370296 0)
(0.641489 0.0254755 0)
(0.602479 -0.0388182 0)
(0.16307 -0.0942815 0)
(-1.00154 -0.0719276 0)
(1.23362 -0.112893 0)
(1.22787 -0.110437 0)
(1.22321 -0.107675 0)
(1.21503 -0.104856 0)
(1.20811 -0.102286 0)
(1.20311 -0.0997167 0)
(1.19885 -0.0971466 0)
(1.19515 -0.0947506 0)
(1.19476 -0.0917073 0)
(1.19981 -0.088428 0)
(1.20141 -0.0855173 0)
(1.19942 -0.0829283 0)
(1.196 -0.0805038 0)
(1.19173 -0.0783522 0)
(1.18617 -0.0761932 0)
(1.17676 -0.0741845 0)
(1.16974 -0.0720793 0)
(1.16469 -0.0696508 0)
(1.16035 -0.0671504 0)
(1.15658 -0.064832 0)
(1.1564 -0.0617955 0)
(1.16169 -0.0584334 0)
(1.16319 -0.0556257 0)
(1.16098 -0.0532149 0)
(1.15729 -0.0510025 0)
(1.15292 -0.049141 0)
(1.14499 -0.0472008 0)
(1.13452 -0.04552 0)
(1.12794 -0.0434456 0)
(1.12291 -0.041016 0)
(1.11849 -0.0385954 0)
(1.11479 -0.0362747 0)
(1.11633 -0.0330516 0)
(1.12253 -0.0295855 0)
(1.12327 -0.0269347 0)
(1.12029 -0.0248237 0)
(1.1161 -0.0231846 0)
(1.11047 -0.0215836 0)
(1.09865 -0.0204022 0)
(1.08871 -0.0191392 0)
(1.0826 -0.0172925 0)
(1.07747 -0.0150016 0)
(1.07292 -0.0127947 0)
(1.06995 -0.0102346 0)
(1.07479 -0.00630882 0)
(1.08018 -0.00257033 0)
(1.07932 -1.61489e-05 0)
(1.07563 0.0019776 0)
(1.07104 0.00328188 0)
(1.06157 0.00413227 0)
(1.04723 0.00379968 0)
(1.0378 0.00482961 0)
(1.03147 0.00679578 0)
(1.02605 0.00905508 0)
(1.02146 0.0111806 0)
(1.02256 0.0146562 0)
(1.03091 0.0191617 0)
(1.03335 0.0221214 0)
(1.03036 0.0240316 0)
(1.0256 0.0250691 0)
(1.01873 0.0258849 0)
(1.00207 0.0247587 0)
(0.985848 0.0241956 0)
(0.97654 0.0256554 0)
(0.970094 0.0276109 0)
(0.964461 0.0290517 0)
(0.96291 0.031614 0)
(0.972119 0.0369687 0)
(0.9775 0.0413312 0)
(0.975353 0.0434886 0)
(0.970383 0.0447035 0)
(0.963959 0.0454847 0)
(0.947759 0.0442202 0)
(0.923187 0.0396769 0)
(0.907737 0.0381067 0)
(0.898857 0.0393193 0)
(0.891893 0.0403882 0)
(0.888209 0.0425207 0)
(0.896472 0.0494286 0)
(0.903497 0.0565712 0)
(0.901117 0.0602313 0)
(0.894931 0.0620485 0)
(0.887083 0.0625901 0)
(0.869102 0.0593601 0)
(0.837126 0.047716 0)
(0.811799 0.0386869 0)
(0.79646 0.0364031 0)
(0.785999 0.036441 0)
(0.778914 0.0374987 0)
(0.78135 0.0455999 0)
(0.781304 0.0552619 0)
(0.773267 0.0583237 0)
(0.761122 0.0566934 0)
(0.737435 0.0492125 0)
(0.700579 0.0304763 0)
(0.653896 0.0101224 0)
(0.629144 -0.0574014 0)
(0.156369 -0.0910153 0)
(-1.0102 -0.0679205 0)
(1.22482 -0.108594 0)
(1.21908 -0.106285 0)
(1.21466 -0.103819 0)
(1.20652 -0.101069 0)
(1.19907 -0.0985464 0)
(1.19411 -0.096158 0)
(1.18996 -0.0937574 0)
(1.18639 -0.0913103 0)
(1.1864 -0.087911 0)
(1.19151 -0.0844746 0)
(1.19308 -0.0818017 0)
(1.1911 -0.079433 0)
(1.18778 -0.0772324 0)
(1.18367 -0.0752899 0)
(1.17872 -0.0732284 0)
(1.1695 -0.0709034 0)
(1.16177 -0.0688631 0)
(1.15671 -0.0668149 0)
(1.15241 -0.0646957 0)
(1.14866 -0.0624936 0)
(1.14853 -0.059068 0)
(1.15401 -0.0551625 0)
(1.1557 -0.0523977 0)
(1.15353 -0.0502763 0)
(1.14997 -0.0483794 0)
(1.14578 -0.0467042 0)
(1.13888 -0.0446669 0)
(1.128 -0.0428503 0)
(1.12075 -0.0410949 0)
(1.11567 -0.0392207 0)
(1.11123 -0.0372926 0)
(1.10746 -0.0352207 0)
(1.10859 -0.0316425 0)
(1.11504 -0.0274066 0)
(1.11632 -0.0244752 0)
(1.11363 -0.0223815 0)
(1.10967 -0.0206783 0)
(1.10488 -0.0190866 0)
(1.09416 -0.0179301 0)
(1.08279 -0.0171614 0)
(1.07579 -0.0156141 0)
(1.07042 -0.0136899 0)
(1.06581 -0.0118621 0)
(1.06243 -0.00967084 0)
(1.06645 -0.00530994 0)
(1.07271 -0.000872294 0)
(1.07263 0.00174904 0)
(1.06931 0.00354445 0)
(1.06497 0.00470835 0)
(1.05795 0.0056806 0)
(1.04326 0.0048604 0)
(1.03129 0.00502531 0)
(1.02414 0.00677947 0)
(1.0186 0.00886065 0)
(1.01387 0.010697 0)
(1.01354 0.0140585 0)
(1.02185 0.019473 0)
(1.0256 0.023536 0)
(1.02318 0.0260077 0)
(1.01876 0.027566 0)
(1.01341 0.0286119 0)
(1.00007 0.0274493 0)
(0.980831 0.0233233 0)
(0.969217 0.0228905 0)
(0.962195 0.0247788 0)
(0.956265 0.0267507 0)
(0.952593 0.0294499 0)
(0.959415 0.0356388 0)
(0.966783 0.0420989 0)
(0.965943 0.0452769 0)
(0.961516 0.0470903 0)
(0.955931 0.0478741 0)
(0.945538 0.0474984 0)
(0.921953 0.0411212 0)
(0.901141 0.0353727 0)
(0.890123 0.0349772 0)
(0.88271 0.0362274 0)
(0.876585 0.0378984 0)
(0.879314 0.0440189 0)
(0.888942 0.0543399 0)
(0.889929 0.0598519 0)
(0.88448 0.0609458 0)
(0.877345 0.0604098 0)
(0.865859 0.0584815 0)
(0.839513 0.0495326 0)
(0.808709 0.0375264 0)
(0.788669 0.0294067 0)
(0.776812 0.0274655 0)
(0.767736 0.0273656 0)
(0.765638 0.0307099 0)
(0.767551 0.0381909 0)
(0.763143 0.0418331 0)
(0.753834 0.0402173 0)
(0.740554 0.0362058 0)
(0.715046 0.025395 0)
(0.676466 0.010165 0)
(0.650326 -0.0480763 0)
(0.152049 -0.0897196 0)
(-1.01634 -0.0638396 0)
(1.21705 -0.105714 0)
(1.21142 -0.103327 0)
(1.20723 -0.100977 0)
(1.19935 -0.0984048 0)
(1.19125 -0.0961079 0)
(1.18601 -0.0939962 0)
(1.18181 -0.0918864 0)
(1.17818 -0.0897899 0)
(1.17821 -0.0862609 0)
(1.18394 -0.0820586 0)
(1.18583 -0.0792123 0)
(1.18383 -0.0771236 0)
(1.18052 -0.0752368 0)
(1.17654 -0.0735067 0)
(1.17197 -0.0716191 0)
(1.16316 -0.0692236 0)
(1.15471 -0.067072 0)
(1.14924 -0.0650318 0)
(1.14479 -0.062939 0)
(1.14095 -0.0610254 0)
(1.14039 -0.0578369 0)
(1.14658 -0.0534429 0)
(1.14895 -0.0503348 0)
(1.14686 -0.0482411 0)
(1.14337 -0.046498 0)
(1.13933 -0.044971 0)
(1.13327 -0.0432393 0)
(1.12233 -0.0418032 0)
(1.11399 -0.0401947 0)
(1.10847 -0.0382037 0)
(1.10391 -0.0360646 0)
(1.1 -0.0341413 0)
(1.10025 -0.0308071 0)
(1.1073 -0.0261957 0)
(1.10951 -0.022923 0)
(1.10711 -0.0208602 0)
(1.10331 -0.0193645 0)
(1.09903 -0.0181236 0)
(1.09005 -0.0174665 0)
(1.07727 -0.0178326 0)
(1.06881 -0.0162952 0)
(1.06299 -0.0136077 0)
(1.05825 -0.0109167 0)
(1.05452 -0.00853971 0)
(1.05747 -0.00464007 0)
(1.06486 -0.000214437 0)
(1.06575 0.00267524 0)
(1.06275 0.0046713 0)
(1.05859 0.00601513 0)
(1.05327 0.00695303 0)
(1.04005 0.00579414 0)
(1.02507 0.0039421 0)
(1.0165 0.00534344 0)
(1.01066 0.00795425 0)
(1.00576 0.0103728 0)
(1.00395 0.0137375 0)
(1.01161 0.0194088 0)
(1.01709 0.023998 0)
(1.01547 0.0264397 0)
(1.01137 0.0281511 0)
(1.00664 0.0291342 0)
(0.997769 0.029153 0)
(0.978249 0.0253076 0)
(0.96228 0.0218486 0)
(0.954041 0.0222375 0)
(0.948007 0.0238554 0)
(0.943079 0.0260443 0)
(0.946233 0.0318764 0)
(0.955692 0.0407268 0)
(0.95726 0.0453923 0)
(0.95336 0.0468089 0)
(0.948041 0.0471557 0)
(0.941166 0.0472311 0)
(0.923008 0.0433552 0)
(0.898523 0.0362896 0)
(0.883362 0.0322383 0)
(0.874477 0.0323778 0)
(0.867624 0.0333666 0)
(0.864521 0.0367333 0)
(0.872612 0.0470121 0)
(0.878763 0.0571941 0)
(0.876081 0.0611888 0)
(0.869472 0.0619125 0)
(0.861209 0.0616723 0)
(0.843405 0.0560122 0)
(0.813073 0.0414248 0)
(0.787592 0.0293521 0)
(0.771401 0.0214859 0)
(0.761756 0.0188321 0)
(0.754998 0.0188593 0)
(0.755124 0.0238406 0)
(0.753965 0.0290061 0)
(0.747913 0.0290591 0)
(0.739503 0.0247756 0)
(0.725667 0.0174146 0)
(0.701453 0.00583734 0)
(0.678462 -0.0379401 0)
(0.148442 -0.0878231 0)
(-1.02145 -0.0586967 0)
(1.21065 -0.102877 0)
(1.20513 -0.100668 0)
(1.20114 -0.0984294 0)
(1.19374 -0.0961189 0)
(1.18507 -0.0938509 0)
(1.17951 -0.0914984 0)
(1.17519 -0.0891647 0)
(1.17149 -0.0871654 0)
(1.17076 -0.0841018 0)
(1.17708 -0.0797331 0)
(1.1799 -0.07655 0)
(1.178 -0.0745022 0)
(1.1747 -0.0727889 0)
(1.17083 -0.0711827 0)
(1.16643 -0.0694737 0)
(1.15782 -0.0676106 0)
(1.1485 -0.0657507 0)
(1.14264 -0.0634472 0)
(1.13808 -0.060956 0)
(1.13426 -0.0587407 0)
(1.13312 -0.0557823 0)
(1.13946 -0.0516349 0)
(1.14289 -0.0483125 0)
(1.14116 -0.0460906 0)
(1.13781 -0.0443501 0)
(1.13388 -0.0428841 0)
(1.1287 -0.0414896 0)
(1.11776 -0.0411135 0)
(1.10782 -0.040192 0)
(1.10192 -0.0377844 0)
(1.09728 -0.0350535 0)
(1.09335 -0.0326297 0)
(1.0928 -0.0293982 0)
(1.0997 -0.0250517 0)
(1.10302 -0.021576 0)
(1.10123 -0.0191762 0)
(1.09776 -0.0172346 0)
(1.09368 -0.0157367 0)
(1.0872 -0.0147056 0)
(1.07356 -0.0157584 0)
(1.06228 -0.0158952 0)
(1.05606 -0.0137969 0)
(1.05127 -0.0111939 0)
(1.0474 -0.00843695 0)
(1.0492 -0.00422265 0)
(1.05705 0.000707931 0)
(1.05907 0.00376022 0)
(1.05651 0.00560839 0)
(1.05263 0.00715931 0)
(1.04816 0.00840263 0)
(1.03858 0.00863874 0)
(1.02171 0.00625124 0)
(1.00997 0.00516104 0)
(1.00364 0.00642558 0)
(0.998558 0.00824715 0)
(0.995333 0.0111366 0)
(1.001 0.0176054 0)
(1.00866 0.0245859 0)
(1.00862 0.0279384 0)
(1.00499 0.0295013 0)
(1.00049 0.030553 0)
(0.994598 0.0310985 0)
(0.978745 0.0280084 0)
(0.959264 0.0231564 0)
(0.947741 0.0213177 0)
(0.940982 0.0221131 0)
(0.935439 0.0233315 0)
(0.933823 0.0268944 0)
(0.943058 0.0366535 0)
(0.949439 0.0452373 0)
(0.947394 0.0480823 0)
(0.942316 0.0484079 0)
(0.936595 0.0481783 0)
(0.924882 0.0460979 0)
(0.901291 0.0376193 0)
(0.880775 0.0309158 0)
(0.869063 0.0282847 0)
(0.861597 0.0284644 0)
(0.855467 0.0294978 0)
(0.8571 0.0354779 0)
(0.866718 0.0473576 0)
(0.869277 0.0554713 0)
(0.864587 0.058751 0)
(0.857387 0.0594281 0)
(0.846742 0.0585877 0)
(0.823999 0.0493796 0)
(0.795121 0.0321334 0)
(0.773693 0.0197846 0)
(0.759678 0.0127479 0)
(0.751255 0.0101845 0)
(0.747219 0.0106467 0)
(0.748371 0.0150163 0)
(0.746409 0.0164603 0)
(0.741417 0.0121824 0)
(0.733652 0.00575859 0)
(0.719151 -0.00251078 0)
(0.700917 -0.0267156 0)
(0.149468 -0.084659 0)
(-1.02644 -0.0548081 0)
(1.20585 -0.0992398 0)
(1.20063 -0.0967535 0)
(1.19669 -0.0946306 0)
(1.18986 -0.0927761 0)
(1.1803 -0.0912428 0)
(1.17391 -0.0894635 0)
(1.1695 -0.0872866 0)
(1.1658 -0.0852105 0)
(1.1644 -0.0821648 0)
(1.17055 -0.0775663 0)
(1.17465 -0.0739729 0)
(1.17328 -0.0716931 0)
(1.17013 -0.0698569 0)
(1.16631 -0.0682661 0)
(1.16206 -0.0667619 0)
(1.15392 -0.0654555 0)
(1.14339 -0.0643652 0)
(1.13673 -0.0624393 0)
(1.13223 -0.0599787 0)
(1.12845 -0.0575362 0)
(1.12696 -0.0542374 0)
(1.13292 -0.0496042 0)
(1.1374 -0.0459026 0)
(1.13629 -0.0435716 0)
(1.13317 -0.0417497 0)
(1.12933 -0.0402283 0)
(1.12493 -0.0388758 0)
(1.11548 -0.038265 0)
(1.10343 -0.0382875 0)
(1.09607 -0.0371319 0)
(1.09134 -0.0350916 0)
(1.08736 -0.0327853 0)
(1.0862 -0.0292122 0)
(1.09267 -0.0238983 0)
(1.09711 -0.0197743 0)
(1.09592 -0.0173602 0)
(1.09271 -0.0155133 0)
(1.08871 -0.0140182 0)
(1.0839 -0.0127721 0)
(1.07234 -0.0130971 0)
(1.05832 -0.0140666 0)
(1.05026 -0.0136464 0)
(1.0453 -0.0123721 0)
(1.0411 -0.0105741 0)
(1.04131 -0.00645823 0)
(1.04932 0.000461432 0)
(1.05318 0.00534477 0)
(1.05129 0.00768648 0)
(1.04757 0.00912172 0)
(1.0432 0.0100824 0)
(1.03661 0.0106895 0)
(1.02119 0.0083461 0)
(1.00644 0.00629193 0)
(0.998074 0.00621792 0)
(0.992666 0.00735915 0)
(0.988161 0.00894813 0)
(0.989969 0.0140139 0)
(0.999815 0.0233132 0)
(1.00302 0.0289628 0)
(1.00011 0.0307045 0)
(0.995596 0.0311352 0)
(0.990695 0.0313605 0)
(0.980116 0.0303101 0)
(0.959776 0.0245712 0)
(0.944655 0.0212764 0)
(0.936049 0.0208526 0)
(0.930132 0.0217407 0)
(0.925359 0.0232061 0)
(0.92902 0.0297635 0)
(0.939816 0.0410885 0)
(0.942157 0.0475865 0)
(0.938304 0.0495427 0)
(0.932924 0.049998 0)
(0.925658 0.0498684 0)
(0.907432 0.0435863 0)
(0.883252 0.0324385 0)
(0.867438 0.0266354 0)
(0.857949 0.0242459 0)
(0.850803 0.0240362 0)
(0.845904 0.0259667 0)
(0.851135 0.0359297 0)
(0.858763 0.04896 0)
(0.858367 0.0558432 0)
(0.852786 0.05862 0)
(0.8453 0.0589685 0)
(0.832853 0.0554006 0)
(0.809141 0.0418916 0)
(0.782558 0.0236217 0)
(0.763277 0.0114406 0)
(0.750954 0.00446775 0)
(0.743602 0.00190374 0)
(0.741832 0.00317554 0)
(0.743122 0.00716447 0)
(0.741749 0.00536676 0)
(0.738363 -0.00332944 0)
(0.730719 -0.0109737 0)
(0.718413 -0.0236056 0)
(0.15368 -0.0811574 0)
(-1.0305 -0.0510282 0)
(1.20151 -0.0968538 0)
(1.1963 -0.0943856 0)
(1.1924 -0.0922715 0)
(1.18674 -0.0902645 0)
(1.1771 -0.0884991 0)
(1.1697 -0.0867324 0)
(1.16508 -0.0849418 0)
(1.16123 -0.0833665 0)
(1.15892 -0.081121 0)
(1.16446 -0.0766793 0)
(1.16979 -0.0723573 0)
(1.16904 -0.0696214 0)
(1.166 -0.0676583 0)
(1.1623 -0.0658725 0)
(1.15819 -0.0641957 0)
(1.15177 -0.062614 0)
(1.14067 -0.0617325 0)
(1.13244 -0.0603982 0)
(1.12751 -0.0587984 0)
(1.12341 -0.05725 0)
(1.12109 -0.0546718 0)
(1.12653 -0.0493794 0)
(1.1323 -0.0444006 0)
(1.13194 -0.0415458 0)
(1.12899 -0.0396564 0)
(1.12525 -0.0380526 0)
(1.12112 -0.0366456 0)
(1.11409 -0.0356751 0)
(1.10149 -0.0361621 0)
(1.09204 -0.0355099 0)
(1.08658 -0.0341695 0)
(1.08229 -0.0328092 0)
(1.07979 -0.0303181 0)
(1.0854 -0.0243634 0)
(1.09163 -0.0185521 0)
(1.09139 -0.0155405 0)
(1.08839 -0.0137136 0)
(1.08454 -0.0121885 0)
(1.0803 -0.0109709 0)
(1.07156 -0.0105493 0)
(1.05687 -0.012416 0)
(1.04677 -0.0126308 0)
(1.0407 -0.011615 0)
(1.03613 -0.0104845 0)
(1.03356 -0.00816265 0)
(1.0402 -0.00124547 0)
(1.04727 0.00597434 0)
(1.04689 0.00912385 0)
(1.04343 0.0105724 0)
(1.0392 0.0117154 0)
(1.03432 0.0125912 0)
(1.02223 0.0111557 0)
(1.00542 0.0072314 0)
(0.994755 0.00629795 0)
(0.988143 0.00700278 0)
(0.98323 0.00804127 0)
(0.980647 0.0105575 0)
(0.988742 0.0190473 0)
(0.996869 0.0279755 0)
(0.996259 0.0316265 0)
(0.992185 0.0327366 0)
(0.987507 0.0330903 0)
(0.980542 0.0330188 0)
(0.963405 0.0283803 0)
(0.9445 0.0219575 0)
(0.933492 0.019921 0)
(0.926454 0.0197762 0)
(0.920809 0.0204551 0)
(0.917734 0.0230915 0)
(0.926333 0.0337705 0)
(0.934948 0.0451644 0)
(0.934344 0.050108 0)
(0.929669 0.0514612 0)
(0.923995 0.0514991 0)
(0.914004 0.0493945 0)
(0.892295 0.0378312 0)
(0.870538 0.0257384 0)
(0.856592 0.0211209 0)
(0.847679 0.0201659 0)
(0.841141 0.0204122 0)
(0.838502 0.0233721 0)
(0.84572 0.0349407 0)
(0.851205 0.0465623 0)
(0.849511 0.0515969 0)
(0.843667 0.0533349 0)
(0.835328 0.0534793 0)
(0.820668 0.0489561 0)
(0.797064 0.0340826 0)
(0.772729 0.0152409 0)
(0.754804 0.00282964 0)
(0.743875 -0.00415061 0)
(0.737696 -0.00655059 0)
(0.738384 -0.0042515 0)
(0.741348 -0.00210432 0)
(0.741989 -0.00888303 0)
(0.738758 -0.0172133 0)
(0.731228 -0.0233591 0)
(0.159207 -0.0763991 0)
(-1.03409 -0.047977 0)
(1.19828 -0.0943855 0)
(1.19353 -0.0914687 0)
(1.18975 -0.0893221 0)
(1.18483 -0.0874356 0)
(1.17545 -0.0857159 0)
(1.1673 -0.0841682 0)
(1.1623 -0.0824435 0)
(1.15829 -0.0808704 0)
(1.15524 -0.0789021 0)
(1.15916 -0.0747972 0)
(1.16547 -0.0701493 0)
(1.16554 -0.0671772 0)
(1.1628 -0.0649627 0)
(1.15927 -0.0630554 0)
(1.15526 -0.0613958 0)
(1.15002 -0.0598587 0)
(1.13933 -0.0592234 0)
(1.1299 -0.0584698 0)
(1.12426 -0.0570183 0)
(1.11994 -0.0554281 0)
(1.11651 -0.0536369 0)
(1.11965 -0.049086 0)
(1.12709 -0.043014 0)
(1.12816 -0.0395573 0)
(1.1256 -0.0375101 0)
(1.12208 -0.0358233 0)
(1.11806 -0.0344206 0)
(1.11272 -0.0332358 0)
(1.10065 -0.0337241 0)
(1.08966 -0.0341757 0)
(1.08315 -0.0330748 0)
(1.07846 -0.0315062 0)
(1.07467 -0.0299474 0)
(1.07713 -0.0252804 0)
(1.08556 -0.0178187 0)
(1.08748 -0.0136379 0)
(1.08497 -0.0117487 0)
(1.08131 -0.0104139 0)
(1.0772 -0.00933829 0)
(1.07113 -0.00861562 0)
(1.05707 -0.0105259 0)
(1.04466 -0.0122222 0)
(1.03745 -0.0115309 0)
(1.03228 -0.0101712 0)
(1.02811 -0.0088526 0)
(1.03012 -0.0040636 0)
(1.03982 0.00493012 0)
(1.04274 0.0103201 0)
(1.04022 0.0123289 0)
(1.03625 0.0133681 0)
(1.03186 0.0141399 0)
(1.0239 0.0139299 0)
(1.00666 0.009609 0)
(0.99299 0.00652966 0)
(0.985263 0.0066165 0)
(0.979725 0.00753609 0)
(0.975192 0.00850461 0)
(0.97684 0.0132701 0)
(0.987841 0.0245729 0)
(0.991866 0.031666 0)
(0.989248 0.0339893 0)
(0.984885 0.0348397 0)
(0.979886 0.0353184 0)
(0.968716 0.0328924 0)
(0.948271 0.0243629 0)
(0.932994 0.0185239 0)
(0.923806 0.0175636 0)
(0.917036 0.0183611 0)
(0.911613 0.0194491 0)
(0.911921 0.0247728 0)
(0.923269 0.0387773 0)
(0.928892 0.0485786 0)
(0.926607 0.0520398 0)
(0.921591 0.0527125 0)
(0.915622 0.0525016 0)
(0.902602 0.0484951 0)
(0.878046 0.0347586 0)
(0.85839 0.0237724 0)
(0.846729 0.0194024 0)
(0.839053 0.0172148 0)
(0.832683 0.0168461 0)
(0.831624 0.0209732 0)
(0.838924 0.0337278 0)
(0.842381 0.0444821 0)
(0.839413 0.0490684 0)
(0.832965 0.0501123 0)
(0.824395 0.0486306 0)
(0.809891 0.0416206 0)
(0.787377 0.0258624 0)
(0.76423 0.00707601 0)
(0.74753 -0.00606107 0)
(0.738065 -0.0134313 0)
(0.733543 -0.0152492 0)
(0.737305 -0.0115098 0)
(0.74304 -0.0128847 0)
(0.744784 -0.021359 0)
(0.740564 -0.0250837 0)
(0.166105 -0.0703611 0)
(-1.03723 -0.0448822 0)
(1.19565 -0.0919738 0)
(1.19123 -0.0890072 0)
(1.18757 -0.0868946 0)
(1.18312 -0.0850854 0)
(1.17416 -0.08343 0)
(1.16517 -0.0820845 0)
(1.15987 -0.0805736 0)
(1.15572 -0.0791022 0)
(1.15217 -0.0775286 0)
(1.15388 -0.0737596 0)
(1.16084 -0.0684459 0)
(1.16207 -0.0649887 0)
(1.15977 -0.0626724 0)
(1.15646 -0.0606771 0)
(1.15259 -0.0590037 0)
(1.14819 -0.0575221 0)
(1.13861 -0.0568491 0)
(1.12792 -0.0567548 0)
(1.12159 -0.0556916 0)
(1.11702 -0.0541998 0)
(1.11309 -0.0528177 0)
(1.1129 -0.0494803 0)
(1.12099 -0.0427629 0)
(1.12439 -0.038056 0)
(1.12256 -0.0357127 0)
(1.11923 -0.0340373 0)
(1.11531 -0.0326188 0)
(1.11092 -0.0313697 0)
(1.10094 -0.0313607 0)
(1.08805 -0.0326369 0)
(1.08029 -0.0321145 0)
(1.07517 -0.0306425 0)
(1.07097 -0.02923 0)
(1.06954 -0.0263618 0)
(1.07781 -0.018989 0)
(1.0832 -0.0128603 0)
(1.08187 -0.0102542 0)
(1.07845 -0.00883785 0)
(1.07445 -0.00772886 0)
(1.06985 -0.00678649 0)
(1.05858 -0.00784211 0)
(1.04371 -0.0107213 0)
(1.03486 -0.0111244 0)
(1.02914 -0.010005 0)
(1.02453 -0.00872798 0)
(1.02205 -0.00646835 0)
(1.03002 0.00165513 0)
(1.03761 0.00998351 0)
(1.03702 0.01346 0)
(1.03344 0.014881 0)
(1.02926 0.01569 0)
(1.02402 0.0162154 0)
(1.0104 0.0131966 0)
(0.993256 0.00771425 0)
(0.983341 0.00600188 0)
(0.976913 0.00657059 0)
(0.971689 0.00773666 0)
(0.968088 0.0096828 0)
(0.975015 0.0184351 0)
(0.985094 0.03006 0)
(0.985884 0.035142 0)
(0.982236 0.0365032 0)
(0.97738 0.0366771 0)
(0.971234 0.0365452 0)
(0.955926 0.0303269 0)
(0.935619 0.0203416 0)
(0.922482 0.0162684 0)
(0.914393 0.0159921 0)
(0.908457 0.0165313 0)
(0.903675 0.017876 0)
(0.908268 0.0259563 0)
(0.920083 0.0411558 0)
(0.923136 0.048948 0)
(0.919441 0.0512091 0)
(0.913766 0.0523856 0)
(0.906471 0.05324 0)
(0.891021 0.0470945 0)
(0.867428 0.0303482 0)
(0.849783 0.0184409 0)
(0.838228 0.0143722 0)
(0.830604 0.0132436 0)
(0.824668 0.013369 0)
(0.825166 0.018597 0)
(0.832212 0.0308074 0)
(0.834531 0.0393266 0)
(0.831143 0.0424232 0)
(0.824576 0.0431266 0)
(0.815407 0.0410085 0)
(0.800962 0.0332289 0)
(0.779507 0.0169845 0)
(0.757536 -0.00256533 0)
(0.742122 -0.0166041 0)
(0.734192 -0.0234205 0)
(0.73204 -0.0243728 0)
(0.740301 -0.0222898 0)
(0.748138 -0.026773 0)
(0.747393 -0.0292992 0)
(0.173907 -0.0616536 0)
(-1.04052 -0.042168 0)
(1.19246 -0.0895079 0)
(1.18824 -0.0864816 0)
(1.1847 -0.0845002 0)
(1.18054 -0.0828611 0)
(1.17266 -0.0812983 0)
(1.16301 -0.0802588 0)
(1.15708 -0.0789083 0)
(1.15269 -0.0774297 0)
(1.1489 -0.0760471 0)
(1.14832 -0.0729804 0)
(1.15547 -0.066949 0)
(1.1586 -0.0625442 0)
(1.15682 -0.0601903 0)
(1.15366 -0.0583527 0)
(1.14994 -0.0567547 0)
(1.14588 -0.0553899 0)
(1.13834 -0.0545948 0)
(1.12659 -0.0549974 0)
(1.11887 -0.0542774 0)
(1.11392 -0.0528082 0)
(1.10989 -0.051404 0)
(1.10738 -0.0492106 0)
(1.11367 -0.0432206 0)
(1.12004 -0.0370352 0)
(1.11942 -0.0340772 0)
(1.11632 -0.0323463 0)
(1.11259 -0.0308877 0)
(1.10849 -0.0296398 0)
(1.10139 -0.0289776 0)
(1.08775 -0.0304953 0)
(1.07785 -0.0308841 0)
(1.07213 -0.0297738 0)
(1.06773 -0.02842 0)
(1.06428 -0.0266672 0)
(1.06877 -0.0209408 0)
(1.07762 -0.0129118 0)
(1.07863 -0.00892878 0)
(1.07567 -0.00721702 0)
(1.07186 -0.00603025 0)
(1.06769 -0.0050663 0)
(1.0602 -0.00500669 0)
(1.04479 -0.00837106 0)
(1.03302 -0.0104705 0)
(1.02638 -0.0100553 0)
(1.02128 -0.00871349 0)
(1.01703 -0.00729935 0)
(1.01896 -0.00222142 0)
(1.02984 0.00842422 0)
(1.03334 0.0145027 0)
(1.03082 0.0163769 0)
(1.02677 0.0172501 0)
(1.02247 0.0176697 0)
(1.01448 0.0166291 0)
(0.996899 0.0104331 0)
(0.98261 0.00582745 0)
(0.974404 0.00543863 0)
(0.968434 0.00664934 0)
(0.963626 0.00785677 0)
(0.962807 0.01172 0)
(0.973913 0.0239813 0)
(0.98091 0.033946 0)
(0.979698 0.037476 0)
(0.975699 0.0387949 0)
(0.970877 0.0392369 0)
(0.962268 0.0383731 0)
(0.942314 0.0290871 0)
(0.923743 0.0188624 0)
(0.913372 0.0150328 0)
(0.90632 0.0140336 0)
(0.900332 0.0141982 0)
(0.896237 0.0164907 0)
(0.903487 0.0287606 0)
(0.913949 0.0454636 0)
(0.914863 0.0531179 0)
(0.911049 0.0546037 0)
(0.905922 0.0538696 0)
(0.898717 0.0524754 0)
(0.881616 0.0438949 0)
(0.857287 0.0272938 0)
(0.84039 0.0164377 0)
(0.829748 0.0118967 0)
(0.822736 0.00999596 0)
(0.817234 0.00999817 0)
(0.819062 0.0162085 0)
(0.825335 0.0278671 0)
(0.826399 0.0349359 0)
(0.822706 0.0369083 0)
(0.816313 0.0369128 0)
(0.807439 0.0333694 0)
(0.79398 0.0245818 0)
(0.773651 0.00715062 0)
(0.753019 -0.0136622 0)
(0.739002 -0.0278858 0)
(0.73237 -0.0336316 0)
(0.733909 -0.0346754 0)
(0.746241 -0.0357252 0)
(0.749952 -0.0360772 0)
(0.181759 -0.0502269 0)
(-1.04367 -0.0393025 0)
(1.18925 -0.0867984 0)
(1.18532 -0.0837441 0)
(1.18199 -0.0820084 0)
(1.17793 -0.0805529 0)
(1.17131 -0.0792002 0)
(1.16122 -0.0785847 0)
(1.15436 -0.0774221 0)
(1.14962 -0.0758351 0)
(1.14567 -0.0743063 0)
(1.14315 -0.0720995 0)
(1.14885 -0.0663869 0)
(1.15459 -0.0607183 0)
(1.15385 -0.0579265 0)
(1.1509 -0.0561555 0)
(1.14736 -0.0546054 0)
(1.1434 -0.0532786 0)
(1.13784 -0.0522272 0)
(1.12614 -0.0527105 0)
(1.11657 -0.0526865 0)
(1.11108 -0.0514879 0)
(1.10681 -0.0500822 0)
(1.10326 -0.048638 0)
(1.10579 -0.0441278 0)
(1.11443 -0.0367399 0)
(1.11615 -0.0325048 0)
(1.11354 -0.0305169 0)
(1.11 -0.0290414 0)
(1.10604 -0.0278012 0)
(1.10098 -0.0267824 0)
(1.08869 -0.0278829 0)
(1.07637 -0.0294383 0)
(1.0696 -0.0289729 0)
(1.06478 -0.027723 0)
(1.06074 -0.0265827 0)
(1.06028 -0.0232772 0)
(1.06978 -0.0145234 0)
(1.07471 -0.00806136 0)
(1.07299 -0.00554736 0)
(1.06943 -0.0042755 0)
(1.06544 -0.00335888 0)
(1.0606 -0.00277219 0)
(1.04799 -0.00534263 0)
(1.03286 -0.00948513 0)
(1.02392 -0.0101029 0)
(1.01809 -0.00884863 0)
(1.01346 -0.0074517 0)
(1.01068 -0.00513677 0)
(1.0188 0.00363674 0)
(1.02805 0.0136314 0)
(1.02823 0.0175874 0)
(1.02466 0.0185946 0)
(1.02041 0.0190972 0)
(1.01548 0.0196003 0)
(1.00279 0.0160821 0)
(0.984274 0.00870943 0)
(0.972778 0.00585557 0)
(0.966093 0.00586267 0)
(0.960689 0.00656498 0)
(0.956129 0.00771577 0)
(0.959477 0.0144542 0)
(0.971858 0.0290114 0)
(0.9756 0.0371416 0)
(0.972884 0.0396126 0)
(0.968388 0.0405354 0)
(0.963503 0.0408953 0)
(0.953143 0.0371882 0)
(0.932404 0.0240275 0)
(0.915586 0.0140418 0)
(0.904962 0.0114536 0)
(0.89746 0.0118936 0)
(0.891968 0.0124663 0)
(0.889525 0.0150982 0)
(0.89957 0.0283253 0)
(0.909464 0.0434498 0)
(0.909704 0.0491098 0)
(0.904753 0.0508409 0)
(0.898611 0.0518377 0)
(0.889538 0.0514066 0)
(0.871414 0.0415911 0)
(0.848682 0.0238728 0)
(0.832713 0.0123476 0)
(0.822113 0.00785355 0)
(0.815267 0.00625476 0)
(0.810488 0.00663052 0)
(0.813738 0.0137145 0)
(0.819489 0.0240295 0)
(0.819829 0.0291414 0)
(0.816105 0.0300719 0)
(0.809991 0.0297336 0)
(0.801643 0.0255079 0)
(0.789371 0.0157074 0)
(0.770389 -0.0035762 0)
(0.750745 -0.0252801 0)
(0.737451 -0.0385329 0)
(0.73224 -0.0438749 0)
(0.739471 -0.0481064 0)
(0.747407 -0.0466151 0)