/*--------------------------------*- C++ -*----------------------------------*\
  =========                 |
  \\      /  F ield         | OpenFOAM: The Open Source CFD Toolbox
   \\    /   O peration     | Website:  https://openfoam.org
    \\  /    A nd           | Version:  12
     \\/     M anipulation  |
\*---------------------------------------------------------------------------*/
FoamFile
{
    format      ascii;
    class       volScalarField;
    location    "5.1";
    object      p;
}
// * * * * * * * * * * * * * * * * * * * * * * * * * * * * * * * * * * * * * //

dimensions      [1 -1 -2 0 0 0 0];

internalField   nonuniform List<scalar> 
22702
(
1
1
0.865966
1
1.06123
1
1.47164
1
1
0.65808
1.47141
1.47135
1
1.47172
0.889296
1
1
1
1.47135
1
1.47202
1
1.47178
0.658658
1.4709
0.658061
1
1.47103
0.657763
0.658255
1
1.47119
1
1
1
1.43524
1.47316
1.4717
1
1
0.657825
1
1.22985
1
1.47033
1
1
1
1
0.65837
1
0.659316
1
1.47154
1
1.47126
1
1
1
1
0.657505
1
1
0.657873
1
0.658365
1
1
1
0.657274
1
1.47163
1.28412
1
1.47146
1.49677
0.657949
1.47165
0.657655
1
1.4715
0.660645
1.47148
1.47148
1
1
1
1
0.931989
0.657586
1.473
1
1
0.65761
1
1.47222
0.65754
1
1
1
1
1.22905
1.47164
0.658636
1
1
1.11065
1
0.659482
1
1.47174
1.47137
1
1
0.647591
0.651054
0.657807
1
1
1
1
1
0.913279
1
1.40143
1.03706
1.47158
1
1.47172
1.47123
1.47183
1.4717
1
0.657207
1
0.657691
1
1
1
1
1.47125
1
1
1
1
1.47152
1
1.02619
1
1
1
1
0.659418
1
1.01048
1
0.657619
1
1
1
1.4718
1
1.47203
0.647987
0.65756
1.47164
1.4717
1
1.07974
1.26661
1
1.47123
0.657673
1.43631
1
1
1
1
1.47147
1.38651
1
1.47146
0.657791
1.47124
1
0.657817
1
0.658328
0.657035
0.999779
1
1
1.4707
1
1
1.47148
1
1.47162
1.4715
0.66545
1
1
0.658295
1.47149
1
1
1
1.47148
1
0.657216
1
1
1.47126
1.47149
1.47172
1
1.00004
1
1
1
1.47158
1
0.657298
1.48846
1.47151
1.47213
1
1
1
0.647304
1.4716
1.22519
1
1.47328
0.65818
0.658161
1.4734
1.4721
1
1.47107
0.647585
1.41419
1
1
1
1
1.47153
1
1.27583
1.04319
1
1
1.47137
0.657323
0.772405
1
1.47097
0.657233
1.47193
1
1
1
1
1
1
1
0.657304
0.770274
0.657972
1.47117
1
1
1
1
1.41837
1
0.657007
1
0.639441
0.65783
1.471
0.657836
1.47191
1
1
1
0.997597
0.657743
0.648091
0.999999
1
0.637115
1
1.47115
0.657677
1
1
1.47156
0.650586
1
1.47523
0.657955
1.47147
1
0.645241
0.997704
1
1
1
0.658928
1
1
0.999999
1.00001
1.00902
1.28548
1
0.666117
1
1
1
1
1
1
1
1.4718
1
1.4722
1
1
1
0.65861
1
1.47142
0.657627
1
1.36208
1
1
1.47268
1
1
1
1.4616
1
1
1.46236
1.4721
1
1.09269
1
1
0.657715
1
1
1
0.657844
1
1
1
1
0.654783
1
1
1
1
1
0.65868
1.00007
1.47187
1
0.999989
1.47169
1.47166
1
1
0.669293
0.818746
1.47158
1
1
1
1.47135
0.657247
1
1.47193
1
1
0.708503
0.704664
1
0.657342
0.659015
1
1
1
1
1
1
1
1.47148
1.11492
1.45737
0.659675
0.907354
1.47108
1
1.47144
1.47144
0.658081
0.781456
1
0.657382
1
1.48961
1
1
1
1
1.47153
1
1
1
1
1
1
1
1.16553
1.47172
1
1.47132
1
1
0.66063
1
1
1
1
1.4715
1.35635
1
1
0.657498
1.47154
1.47145
1
1.47136
1.47151
1.47147
1
0.834928
1
1.47127
0.986402
1.47146
1
0.657318
0.998836
1.47136
1
1
1
1
0.659436
1.47103
1.42608
1
1.47056
1.47141
1.47156
1
1.21699
1.47125
1
1
1.32226
1.0643
1.47112
0.933231
1.47117
1
1.47129
1.47136
1.47133
1.47163
1
1.45055
0.911043
0.885664
1
0.999999
1
1
1.47544
1
1
1
1
1
1.4713
1
1
0.996116
1.4715
1.40457
1
1.38974
1.00004
1
1
1.47174
1
0.997215
1.00466
1
1.47179
1
1.47223
1
1
1.34767
1
1.47189
1.00002
1
1.4708
1
1.47152
1
1
1
1.47154
1
1.47458
1.00001
1.47148
1.47139
1.47144
1.47148
1
1.47176
1.4655
1
0.658201
1.4408
1.33584
1
1.47158
1
0.657592
0.657788
1
1
1
1
1
0.657206
1
1.47134
1.11982
1.47173
1
1
1
1
1
1.47125
1
1.4715
1.27642
0.785269
1
1.00001
1.13168
1.11627
1
1
1.16825
1
0.657583
1.47135
1.47153
1
1
1
1.47148
1
1.00003
1.47465
1.47113
0.950087
1
1
0.657414
1.42723
1
1
1
1
1
1.47152
1.47172
1
1.47079
1.47433
1.47147
1
1
1
1
0.657153
1.47132
1
1
1.42723
1.47014
1
1.44291
1.47177
1
1
1
1
1
1.47175
1
1
1
1
1.4749
1
1.46805
0.657274
1
0.658445
1
1
1
0.996973
0.657748
0.999034
1
1
1
1.06304
1
1
0.870667
1
1
1
1
1
1
1
0.999997
0.929511
0.999999
1
0.99759
1
0.658229
1
1
1
1
1.34896
1
1
1
1
0.656843
1
1
1.44305
1.47127
0.999999
1
1
0.887836
1
1
1
1
1
1
0.953829
1.00774
1.47135
1
1
1
1.47267
0.898433
1
1
1
1.47158
1.46906
1
1.00001
1
1
1
1
1
1
1
0.659507
1
1
1.47112
0.656677
1
1.47062
1
0.658637
1
1
0.657903
1
1
1
1
1
1
1
1.4621
1.47052
1
1
1
1
1.42849
1
1.14578
0.657434
1
1
1
1
1
1
1
1.03626
1
1
1.23628
1
1
1
1.38857
1
1
1
1
0.657228
1
1
0.647316
0.657597
1
1
1.4713
1
0.997939
1
1
1
1.32534
0.647909
1
0.645857
1
0.787329
1
1
1
1.47181
1
1
1.47161
1
1
1
1.47164
1
1
1.47128
1
1
0.658089
1
1.14375
1
1
1.47127
1.47122
1.31045
1.41999
1
0.657898
1
1
1.44989
1
0.656963
1
1
1
1.47181
1
1
1
1
1.27779
1
1.45206
1.47016
0.657695
1
1
0.658228
0.658075
1
1
1
1.33147
1.35454
1
1
1
1
1
1
1
1.19425
1.47116
1.00444
1
1.46571
0.657274
1
1
1
1.25459
1
1.09011
1
1.42905
1.46937
1
0.657125
1
1.47135
1
1
1.47169
1.44138
1
1.47406
1
0.657971
1
1
1
1.4755
1.4618
1.41266
1
1.47034
1.47148
1
1.47235
1
1.46943
1
0.657624
0.975076
0.654945
1
1
1
1
1
1.47137
1
1.47133
1
1
1
1.44745
1
0.65784
1.47166
1
0.656201
0.676287
0.659106
1
1.2275
1.04096
1.47312
1.4716
1
0.999999
1
1
1.47144
1
1
1.47137
1.47139
1
1.15793
0.999973
1
0.996735
1.47176
0.853337
1
0.823653
0.658909
0.658039
0.933671
1.47177
1.46462
1.08635
1.47177
1.47177
1
1
1.47145
1.47125
1.47153
1.47034
1
1.47157
0.657148
1.47471
1.47075
1.47279
1.4742
0.86731
0.896042
0.926731
1.47143
0.958952
1.4712
1
1
1.47344
1.47134
1
0.656719
1.46985
1.47147
1
1.47154
1.47153
1
1.47141
0.65652
1.47508
1.47138
1.47138
1.47498
1
1
1
1.47134
1.3012
0.671
1.47154
0.6514
1.47135
1
1
1
1
1.47233
1.47171
1
1
1.47151
0.653553
1.47179
0.65753
1
1.46797
1
0.657997
1.47301
0.739775
1
1.47163
1.47429
1.47216
1
1
1.21211
1.4735
0.657097
1.47145
1
1.47151
0.879638
1.47153
0.659979
1
1.47051
0.688776
1.47343
0.658503
1
1.47176
1
1.47168
1
1.26941
1.4531
1.36752
0.647522
1
1.47102
1
1.47169
1
1.47167
1
1
1.47194
0.982014
1.47432
0.657872
1.43504
1
1.33187
1
1.47157
1.47153
1.47135
1
1.4219
1.47169
1.43552
1.28356
1.4672
1
1.30683
1
1.47202
1
1.06316
1
1.43561
1
1.47152
1.44853
1.44799
1
1.46162
0.657078
1
0.657193
1
1
1
1.47139
1
1.47206
1
1
1
1.47238
1.45842
1.39077
1.47371
1.47289
0.658658
1.47395
1.47093
1
1.40744
1.4715
1.44696
1
1.47129
1.47149
1
1.47777
1.47173
1.47139
1.47287
1
1
1
1.47161
0.653456
1
1.47155
1
1
0.657948
1
1
1.47148
1.4711
1
1.47146
1.47446
1.47135
0.977095
1.47126
1
1.47127
1.47155
1.37768
1
1
1
1.47335
1.47144
1.47154
0.94166
1
1.47893
1.47163
1.47103
1
1.47162
1.47217
1.47146
1.48008
1
1.47183
1.47064
1.40711
1.47071
1.47888
1
1.47588
1.46589
1.47159
1.47416
1.47065
0.656983
1.47178
1.4714
1
1.47157
1.47161
1.47141
1.47165
1
1.47162
1.47152
1
1.47131
1.39291
1
1
1
1.4729
1.47047
1
1
1.25199
1
1.47183
1
1
1.47174
1.47333
1.47114
1.47165
1
1
1
1.32731
1
1.4709
1
1
1.47161
1.47134
1
1.47156
0.649939
1.47146
1.47403
0.724404
1
0.648376
1.4078
1.47426
1.47059
1.47056
0.657666
1.47189
1.47253
0.657919
0.65009
1
1.4709
1.47159
1
1
1.47139
1
1.46982
1
1.41115
1
1.21434
1.47139
1.47416
1.32527
1.43177
1.47129
1.47252
1.43894
1
0.657267
1.47022
1.47161
1.4771
1.00001
1
1
1.47295
1
1.4713
1.47122
0.76264
1
1.47142
0.999932
1
1.00003
1.00004
1.47154
1.47101
0.998467
1
1
1.47172
1.47356
1.47155
1.47169
1.47298
0.664653
1.40001
1
1.46787
1.47105
1.47137
1.46896
1
1.47149
1.45816
1.47277
1
1.47155
1.47234
0.86709
1.47135
1.47172
1
1.47164
0.841467
1.47137
0.861695
1.47167
1
1.47159
1.48185
1.47149
1.47173
1.47148
1.47026
1.47213
1.47171
1
0.924273
1.47128
1.47145
0.84144
1.47156
0.98132
1.28943
1.47112
1.47151
1.4737
1
1.47429
1.3049
1.47041
0.919348
1.47378
1.48097
1
0.872549
1
1.47428
1
1.32047
1
1.44131
0.877511
1
1.47436
1.46791
1
1.47111
1.47344
1.46906
1.46455
1.46576
1
1.47143
1
1
1
0.89895
1.47161
1.47197
1.47473
1.47157
1.47029
1.47409
1.47272
1.47204
0.89991
1.03179
1
1
1.48376
1.47176
1.47152
1.47144
1.00003
1.23916
1
1.47725
1.4075
1
1
0.742078
1.47159
1
1
0.656635
1.47152
1
1.47097
1.4714
1.47124
1.45279
1.4715
1
0.651268
1.11272
1.47197
1.47159
1
1.47155
1.47149
1.23048
1.00926
1.10347
1
1.4717
1.47177
1
1
0.657252
1
1
1.47152
1.47163
1.47328
1.47165
1.47135
1.47595
1.47189
1.47321
1.47121
1
0.996147
1.47193
1.47158
0.997007
1.47156
1.47148
0.659668
0.657491
1.47235
1.47626
1
1
1.00149
1.47155
1.47289
1.47156
1
1.47156
1
0.854824
1.47781
1.4724
1
1.2091
1.47171
1
1.47242
1
1.47183
1.31133
1.47344
1
1.47093
1.47821
0.657098
1.47135
1
1.47144
1.47126
1
0.660153
1.4698
1.38689
0.997667
1.46142
1.47158
1
0.996562
1.4744
0.99805
1.47141
1
1
1.4734
1
1.47397
1.47148
0.996454
1.36849
1
1.47143
1
1
1
1
1.47146
1
1
1.46436
1
1.47168
1
1.29611
1.47179
1.47179
1
1
0.994936
1
1.47142
1.47151
1.47178
1.47158
1.47203
1.47128
1.47124
1
1.47165
1.47197
1
1.47108
1.47183
1
1.47263
0.925527
1.05812
1.47163
1.4717
1.47114
1
1.47144
1
1.47126
1.47156
1
1.47179
1
1
1
1
1.47183
0.652425
0.997864
1
1.47164
1.47353
1
1.47139
1
1.00514
0.657277
1.47143
0.999595
1
1.4721
0.998291
1.47155
1
0.999768
1
1.4721
1.4763
1.47095
1.47169
0.65712
1.47102
1.47021
1.47188
1.11296
1
1
1.19686
1.47136
0.649847
0.658055
1
1.47154
1.4713
1.47026
1
1
1.47042
1.47079
0.999877
1
1.34451
0.648396
1
1.08022
1.47142
1.46505
0.998261
1.47165
1.47988
1
0.999076
1
1.47201
1.47176
1.18496
1
1.45029
1
1.0021
1.4722
0.65772
1.47109
1.47177
0.996991
0.999912
1.4077
1
0.999692
1
1.47248
1
1.00001
0.649072
1.47128
1.00001
1
1
1
1.47316
1.26248
1
1
0.656879
1.47145
1.26358
1
1
1
1.4486
1.46536
1.47238
1
1
1.47119
1
1.47167
1.4712
1
1
1.47343
1.47161
1.44867
1
1
1.47359
1.47277
1
1
1
1.47277
1
1
1
1.47124
1.47084
1.47439
1
1.47172
1.00003
0.702636
1.47126
1.47118
1
1.4751
1.4433
1.47145
1
1
1.47515
1
1.24652
1.47098
1
0.659585
1
1.47367
1
1
1.46964
1
1
1
1.14032
1.47074
0.691299
1.00001
1.47292
1
1
1.4717
1
1.47543
1
1
1.47161
1.47143
1
1.00005
1
1
1
1
1
1
1.47635
1.47131
1
1.47111
0.657918
1.47756
1
1.47111
1.47542
1.47156
1.47665
1.47241
1
1
1.46978
1
1.2892
1.47612
1.47149
1
1.47422
1.46961
1
1.42447
1
1.47109
1.3016
1.47012
0.997482
1.45735
1.42715
1.4726
1.47226
1.03735
1.47144
1.4751
1
1.47152
1
1.47152
1
1
1
1
0.996279
1.47161
1.47134
1.39568
1
1.4745
1
1
1
0.647128
1
1.45983
1
1.42737
1.45261
1
1
1
1.43628
1.47171
1
1
1.47224
0.657974
1.07636
1
1.47582
1.47139
1.42876
1.45919
1.47147
1
1.47034
1
1
1
1
1.47024
1.47188
1
1.46271
1.0534
1.47143
1.43889
1
1
1.44023
1
1
0.657418
1.32413
1
1
1.4772
1
1.47541
1.42821
1
1.42688
0.657028
1.47161
1.4717
1.47223
1
0.658571
1
1
1
1.4713
1.39844
1
1.466
1.47153
1
1.47156
1
1
1
1
1.47163
0.999348
1
1.4736
1
1
1.47412
1.47143
1
1.47562
1.08869
1.00002
1
1.4718
1
1.47188
1
1.01341
1.47124
1
1.47144
1
1
1.13826
1.47137
1
1
1
1
1
0.996087
0.657715
0.657668
1.02091
1
1.0274
1
1.02814
1
1.47119
1
1.2794
1
1.47161
1
1
1
1.47165
1
1.3866
1.47093
1
1.24281
1.47196
1
1
1.47149
1.4715
1
1
1.04895
0.649319
1
1.47253
1
1
1
1
1.07743
1.4713
1
1
1
0.657898
1
1.47163
1.47113
1.47532
1
1
1
1
1.22993
1.4732
1
1
1
1.47322
1.47143
1.05002
1
1
1
1.47178
1.47129
1
0.657545
1.47107
1.47168
1.47094
1.47064
1.47512
1
1
1.47035
1.47171
1.47143
0.657103
1.04033
1.47161
1
1
1
1
1
1.4716
0.657787
1
1
1.47137
1.20759
1
1.47035
1
1
1
0.657551
1
1
1.12215
1.47099
1.47142
1
1.47126
1.47481
1
1.07339
1
1.47224
1
1.47135
0.659137
1
1
1
1
1.47153
1.00007
1
1
1
1.45607
1
1
1
1
1.47108
0.657298
1.368
1.47437
1
1.47204
1
1
1
0.99711
1
1.47576
1
0.808211
1
1
1.00004
1.47164
0.65721
1
1.47229
1
1.47214
1.47133
0.657941
1
1
1.45203
1
1
0.658704
1
1.46958
1
1.44964
0.999325
1.47092
1
1
1
1
1.47124
1
1
1.47147
1
1
1
1
1
1
1
1
1.30524
1
1.14994
1.47084
1
1
1
0.657479
1
1
1
1
1.47137
1.47142
1.05448
1
1
1.47287
1
1
1.47146
1
1.00002
1
1
1
1.00001
1.47117
0.789255
1.47155
1.47363
0.997174
1
1
1
1.27372
1
1
1.47239
1.47161
1
1
1
1
0.657738
1
1
1
1.29576
1
1.47146
1.4752
1
1.47302
1
1
1
1.25083
1
1.47144
1
1.47132
1
1
0.996257
1.47142
1
1
1
1
1
1.47278
1.00002
1
0.656885
1.47066
0.65776
1
1.47377
1
0.995995
1
1.47279
1.47321
1
1.47218
0.872299
1.47158
1.47246
1.00003
1
1
0.65725
1
1
1
1.47159
1.26928
1.47487
1
1
1
1
0.996836
1.47105
1
0.659326
1
1
1
1
1
1
1
1.4787
1.46997
1.47639
1
1
0.996912
1
0.97656
1
1
1
0.65728
0.974563
1
0.660899
0.657729
1
1.47219
1.47155
1
1.47001
1.47132
0.657746
1.31534
1
1
1
0.65976
1.47129
1
0.658125
1
1.47692
1.07992
1
1
1
1
1.47129
1.47158
1
1
1.47145
1
1
1.47183
1.47177
1
1.42787
1.47151
1.47189
0.963912
1.47288
1.00892
0.657553
1.35902
1.47208
1
1
1
0.657045
1
0.657703
1.47096
0.962379
1.47161
0.95456
1
1.47073
1.21107
1
1
1.47252
1
1.18775
1.47072
1
1
1.46855
1.47734
0.656889
1.28502
0.999896
1
1.28085
1
1.47333
0.94437
1.48116
1.47721
1
1
1
1
1.46355
1
1
1.47022
0.999641
1.47136
1.38409
1.47082
0.659694
1
1
1
1
1.47144
1.00004
1.47153
1
1.47208
1.47236
1.05867
1.47658
1.13846
1.47179
1
1.31959
0.682318
1.47196
1.47127
1.37431
1.0798
1.47156
1.47153
1.47127
1.47127
1
0.926503
1.06712
1
1.47163
1.22178
1.4716
1.00003
1
1
0.693689
1.47656
1.47162
1.38029
1
1.17425
1
1.47094
1.46977
1
1.47113
1.47141
1
1
1
1.47114
1
1.18413
1.47486
1.32157
1
1.47084
1
1
1
1
1
1
1
1
1
1
0.679399
1
1.43782
0.65701
1.27259
0.998577
1.47455
1
1.24131
1.00001
1.29837
1.39609
1
1.0023
1.47342
0.918083
1
1.47104
1.45507
0.942997
1
1.47149
1.47134
1.47396
1
1.47134
1.47165
1.47097
1
1.21074
1
1.00006
1.47144
1
1.47217
1.06719
1.47205
1
1
1.47441
1.47105
0.690347
1
1.47173
1.35103
1.47055
1
1
1.47166
1.47434
0.998243
1
1.43145
0.996872
1.4716
1.00005
1
1
1
1
1.20905
1
1.35656
1.47136
1.34964
1.47043
1
1.00317
1
1
1.47186
1
1.47162
1
1
1
1
0.999999
1
1.05551
1.23897
1
1
0.657091
1
1.47236
0.68398
1.47296
1
1.24013
0.99975
1.4715
1.29627
0.66994
1.25402
1.00003
1.4717
1.47374
1
1.27975
1.47151
1.47052
0.998416
1.47696
1.45795
0.653044
1
1
0.997329
1
1.4696
1
0.676042
1.47033
1
1
1.41565
1
1.47181
1
1.47115
1
0.685223
1
1
1.47179
1.47853
1.47322
1
1.46978
1.47164
1.466
1
1
1.46692
0.999999
0.737878
1
1
1
1.47194
1
1.47141
1.30298
1.46964
1
1.47159
0.999377
1
1
1
1
1
1
0.714886
1
1
1.47136
1
1.47306
1.4763
1
0.66316
0.657181
1
1.47321
1.07383
0.656651
0.635029
1
1.47076
1
1.47073
0.658387
1.00147
1
1
0.999506
1
1
1
0.999915
1.1877
1.47163
1
1
1.47268
1.27372
1
1.41851
1.47084
1.47178
1.1888
1.47038
1
1.4715
1
1.45684
1
1.4722
1.47267
0.996881
1.47134
1.47591
1
1
1
1
1
0.917541
1.47164
1.00004
1.00003
0.657809
0.999985
0.657334
0.651658
1
1.47137
1.47195
1.47149
1
1.47118
1
0.660033
1
1
1.46987
0.826181
1.47221
1
1.4716
1
0.98048
1.47179
1
1
1
1.47059
1
1.47218
0.657189
1
1
1.27026
1
1
1.2532
1
1
1.47164
1
1
1
1
1
1.47201
1.47128
1
1.47137
1.47052
0.659215
1.21146
1.46986
1
1
1.42286
0.99902
1
1
1.47159
1.47116
1.3165
1
1.47142
0.665158
1.44412
0.999534
1
1.47104
1.00003
1.46978
1.38578
1.35748
1
1
1.47139
0.714567
0.657646
1
1.47152
1
1.47122
1
1.27599
1
1
1.47042
1.29855
0.659547
1
0.998277
1
1
1.02546
1.18768
1.47142
1
1.47089
1
1
1
1
1
1
1.06736
0.657942
1
1
1.03436
1
1
1
1
1
1.47269
1
1
1.47109
1.47146
1.33908
1
1
1
0.830243
1.47316
1.32396
1
1
1
1
1.47149
1
1
1
1.47191
1
1
1.33633
1.48773
1.03924
0.75482
1.47408
1.3293
1.4701
1
1.23193
1
1
1
0.65786
1.00263
0.658133
1
0.658275
0.643609
1
0.659298
1
1
1
1.20473
1
1.47161
1.4725
1.00123
1.2207
1.40077
0.657133
0.770013
0.88523
1
1.47157
1.47154
1.4716
1.47157
1.4039
0.870722
1
1.40535
1
1.44996
1
1
0.996545
1.01104
1
1
1
1.47148
1
0.656932
1
1.4727
0.656772
1
1
1.47154
1
1.47152
0.999048
1
1
1.47245
1.42657
1
1.48695
1
1
1.01494
1
1.20633
1
1
0.658876
1
1
1.47059
0.999999
1.47091
1
1.00003
0.657118
1
1
0.65719
1.00089
1
1.47235
0.657451
1.47543
0.659211
1.47162
1
1
1
1
1
1
1
1
1
1
1
1.4517
1
1.47353
1.47108
0.657898
1
1
1
1
1
1
1.458
1
1
0.659913
1
1
1.47195
1
1
1.1732
1.39176
0.657152
0.657554
0.702548
0.748726
1
0.996623
0.657865
1.00029
1.43685
0.996896
1
1
1.4714
1
1
1
0.77183
1.00001
1.16471
1
1
1.18881
1.47146
1
0.659145
1
1
1
0.996736
1.00001
1.47292
1.47145
1
0.659112
1
1.25118
0.657628
1
0.888322
1
0.99576
0.642217
1
1
1
0.996095
0.657489
1
0.659621
0.998403
1.24382
1.42183
0.657211
0.657261
1
0.991068
1
0.998633
1
1.47223
1.47133
1
1.01525
1.47131
1.47153
1
1
1.47147
1
1
1.00004
1
1.47554
1
1
1.01844
1
0.998595
0.701818
1
1
1
1
1
1.46983
1.03374
1.00005
1
1
1
1
1
1.00003
1
0.659439
1.09841
0.998609
1.45173
1.47114
1
1.01687
1.47129
1.40796
1
1
0.654724
1.47136
1
1.47096
1
1.47212
1.30917
0.657757
1
0.657925
1.43141
0.99968
1
0.657733
0.659029
1
1
1.39559
1
0.999998
0.651768
1
1
1
1.14772
1
0.658088
1.47012
1
1
1
1
1.47185
1
1
1.4753
1.42148
1
1
1
1.47077
0.655494
1
1.47127
1.47162
1
1.37419
0.999999
1.00003
1
1
1.43335
1.01607
1
0.65678
1.24588
1
1
0.99769
1
1
1.47039
1
1
1.00003
1
1.47114
1
1
1
1
1
1
1.00001
1.20233
1
1.46999
1
1
1.47303
1
1
1
1.47163
1.47549
1.04664
1
0.997622
1
1
1
1
1.47137
1
1
1.47173
0.656254
1
1
1
1
1
1
1.37852
1
1
1.47332
1.47196
1
1
1
1.47113
1.47174
1
0.999658
1.47463
1
1
1
1.00002
0.657778
1.03065
0.996248
0.996164
1
1
0.652595
1.47141
1
0.658598
1
1.47342
1.45136
0.657201
0.999411
1.4716
1.47092
1.47115
1
1
0.921063
1.41879
1.3903
0.65931
1
1
1
1.47033
1.47165
0.657235
0.997321
1
1.47155
0.657015
1
1.47006
0.659411
0.970589
1.00676
1
1.47525
1
1
1
1
1
1
1.00011
1.43835
1
1
1.47245
1
1
1
1.47142
1
0.659029
1
1
1
1.15544
1
1
1
1
1
0.789378
1
0.65757
1
1.47128
1.00006
0.86211
0.870131
1.00002
1.00361
1.24321
1
1
0.657976
1.47128
1.47129
1.47154
1
0.651457
0.655119
1
1.47158
1
1
1
1
1
1.00003
1
0.659049
1.29833
1
1
0.657174
0.982544
1.00001
1
1
1
0.641987
1
0.692623
1
1
1.47665
1
1
0.658728
1
1.4717
1
0.6572
1
0.659903
1
1.00756
1.47078
1.48486
1
1
1.47179
1
1
1.09799
0.996766
1
0.998122
1
1.474
1
0.657574
1.00002
1.47014
0.998882
1
1
0.796204
1
0.99902
0.65642
1.46993
1.16703
1
1.00001
0.90451
1
1
1
0.79295
1
1
1
1.47146
1
0.658324
0.999999
1
1
1
0.651921
1.47156
1.44382
0.658139
1
1.47449
1
1
1.47171
1.47215
1.39416
0.651405
0.997746
0.999239
1
1.47145
1
1
1
1
1.47306
1.00004
1
1
1.46988
1
1
1.47178
0.659623
1
1
1
0.659486
1
0.999999
0.999999
0.998645
1
1
1
1
1.37397
1
1.47109
1.47152
1.48116
1.4717
1.4719
1.4716
1
1.47111
1
1.47147
1.47162
1
0.998858
0.659361
1.4005
0.999887
1
1
1
1
0.994735
1
1.07069
1
1
1
0.847283
1.4718
1.47225
1.47492
1.40653
0.999876
1
1.02257
1.47157
0.997917
1.05813
0.997029
0.65799
1
1.00002
1
1
1
1
1
1.47204
0.657481
1.47196
1.47151
0.994879
0.65725
1
1
1
1.47069
0.65764
1.41467
0.650067
1.47132
1.47551
0.660583
1.47222
1.02494
1
1.47464
0.802885
1
0.99874
0.657943
1
0.658356
1
1.47168
1.47143
0.753118
1
1.47249
0.658197
1
0.66133
1
1.47176
1
1
1.4612
1
0.832634
1
0.999695
0.65844
1.4687
0.999486
1
0.657415
1
1
1
1
1.25441
1
1.47072
1
1
1.48907
1
1
1.47103
1
0.657349
1
0.65695
1.00001
1
1
1
1
1.4504
1.27431
1.47147
1
1.47128
1.43731
0.641844
0.658682
1
1
1.47062
1
0.658189
1
0.981921
1
1
1.47149
1
1.47065
0.657942
1.48979
1
0.657855
1
1
1.47452
1.46973
1
1.00004
1
1.47147
1
1
0.652029
0.999367
0.657892
1
1
1
1.47331
1.46937
1.47112
1
1
0.65897
1
1.47061
1
1
1
1.44937
1.47164
1.47174
0.658111
1.47373
1.4715
0.66653
1.47152
1.00004
0.668846
1.01409
1
1
1.47146
0.657272
1.29468
0.6572
1.47149
0.997441
0.65562
1.47369
1
1
1
1
1.47124
1.47211
0.660995
1
1.00002
0.658376
1.00004
1
0.65303
0.657671
1.32605
1.47116
0.998483
1.47172
1
1.46641
0.818234
0.656753
1.47154
1.48027
1
1.47167
1
1
1.4714
1
1.36111
1.47123
1
1
1
1
1.47163
1.466
1.47281
1
1
1.47056
1.47162
1.47119
1
1.4715
1
1
1
1
1
0.657708
0.838999
0.657986
1
1
1.47197
1
1
1.4721
0.650375
1
1.47131
1.46617
1.44978
0.649594
1
0.65764
1
1.00003
1.47151
1.22645
1.47172
1.42971
1
0.658886
1
1.47379
1.33388
0.657919
1
1
1
0.802873
1
1
1.48011
1
0.658271
1.47155
1
1
1
1
1
1.37522
1.10573
1
1.47164
1
1.47012
1
0.997431
1
1.47164
1.47506
1.47234
1.47571
0.999584
1.47135
1
1.47145
1.47218
1.39702
1
1
0.657653
1.47133
1
1
1.47445
1.47139
1.46984
1
1.47179
1
1
1.00003
1.47494
1.4718
1.13407
1.10157
1.4718
1.4706
0.697348
1
1
1
1
1.00002
1.16547
1
1
1.38345
0.657653
0.999968
1
1.4716
0.999892
0.999809
1.06534
1.42255
1.4711
0.909605
1
0.657397
1
0.995267
1.47182
1.47445
1.47031
0.999011
1
1
0.656886
1
1
1.47179
1.04893
1
1
1
1
1
1
1
0.999939
1.47226
1.00002
1
1
1
1
1.29068
1
1.21803
1
1
1.47145
1.47674
0.6569
0.998796
1
1
1
0.660956
1.47139
1.47169
1
1
1
1
1
1
1
1
1.47105
1.47297
0.657039
1.05059
0.659317
1
0.656256
1
1.47147
1.12654
1
1
0.717187
1
1.45033
0.808577
0.996888
0.656917
1
1
1.47082
1.00004
0.997257
0.642196
1.47116
1.47943
1
1
1
1
1.43946
1
1
1.4713
0.998958
1.4723
1.00008
1
1
0.658331
1
1
1.47223
0.656859
0.779146
0.657789
1.47149
0.999307
1
1.47094
0.657114
0.657583
1.01696
1
1
1.47128
1.00004
1.2058
1
1
1.47142
0.660066
1
1
1.00013
1.47222
1.00014
1.4596
1
1.00003
1
1
0.728816
1
0.790575
1.00002
1
1.47311
0.658273
1
0.787046
0.796447
1
1
1.47193
1
1
1
1.47218
1.47192
1.00005
1.46919
1.47124
0.78747
1.47156
1.4467
1
1
1.47137
0.999999
1
1
1
1
1.47334
1.47142
1
1
1
1.47207
1.00021
1
0.658963
0.722141
1
1.00003
1.16728
1
1
0.896493
0.657248
1
1
1
1.4765
1.43122
1.47158
1
1
1
1
0.657157
1
1.45584
1
1.47054
0.658345
1.47123
1
1
1
0.65879
1
1.47235
1.00003
1
0.657144
1.16801
1
0.999655
1.46775
0.646814
0.657942
1
1.47123
0.646612
0.658415
1
0.658216
1.00001
1
1
1
0.657689
1
1
1
1
1.47006
1
1.35785
0.657601
1
1
1
0.657525
1.47162
1
1
0.996613
1.45941
1
1.47181
1.4715
1
1
0.721326
0.657494
1
1
0.657396
1.1411
1.21355
1
1
1.47244
0.99739
1
0.997566
1.47198
1
1
1
1
1
1
1.47258
1
1.16169
1.15198
0.696184
1.41528
1
1.47119
1.47207
1
1
1
0.910588
0.657329
1
1.22308
0.999652
1.41365
1
1
1
0.999999
1
1.00597
1.20727
1.47275
1.47226
1
1.47141
1
0.659275
1
0.997581
0.999774
1
0.651036
1
0.657757
1.00002
1.47505
1.47108
0.656508
1.47707
0.65931
0.996188
1.35389
0.659492
1.33502
1
1
0.998398
1
1
1
1.00006
1
0.657809
1
1
1
1
0.99959
1.4716
0.804258
1
1
1
1.0374
1
1
1
1.25528
0.754611
1
1
1
1.04508
1.47129
1
0.657926
1
1.47331
0.893258
0.657801
1
0.654557
1
1
1.44496
0.998228
1.44662
1
1.00877
1
1
1.47124
1
1
1
1
1.09025
1
1.4717
1.47318
1.47117
0.657317
1.47136
0.997041
1.38259
1
1
0.650309
1
1
0.658055
1.47281
1
1
0.999961
1
1
1
0.643522
0.657975
1
1.47117
1
1.21645
1.47143
0.659783
1.39567
1
1
0.668441
1
1
1.47152
1.4714
1.16814
1
1
1.00194
1.47109
0.657689
0.657495
1.47093
1.47134
1.31882
1.18275
1
0.898611
1
1
1
1.44876
1.47692
1.47274
1
1
1.47098
0.657648
1.42845
0.637877
1
0.658215
1
0.658085
1.47108
0.642483
1
0.983668
0.685589
1
1
1
0.844415
1.44098
1.4715
1.47195
1.47132
1
1
1.47119
1
1
1.47164
1
0.658199
1
0.658251
1
1.47177
1
1
1.02232
1.35824
1
0.999013
0.657493
1.47172
1.00001
0.657718
1.08987
1
1
1.36396
1.47077
1.47201
1
1.47109
1.12229
1
1.02424
1.47142
1
1
1
1
1.47147
1
0.653703
1.47188
0.660067
0.657638
0.823409
1.47113
1.15876
1.47152
1
1.47114
0.99749
1.00003
1.47166
1.47136
1
1.47138
1
1.47131
1
1.47093
1
1.00004
1.00001
1.47369
0.654804
0.657816
0.997884
0.999999
1
1
0.657683
1
1.30731
1
0.648433
1
1.17685
1.47172
1.47071
1
1
1.00003
0.999356
1
1.47166
1.47135
1
1.19288
1.47181
0.845152
1.47168
1.00033
0.65054
1.09862
0.658143
1
1
1.07679
1.47168
1
1
1.04479
0.998577
1
0.659187
1
0.784412
1
1.47189
1
1
0.657761
1.10382
1.06128
0.998504
1.47093
1.47151
0.777046
0.998081
0.655714
0.657699
0.657179
1
1
1
0.999065
0.723948
0.657971
1
1.47143
0.999745
1.4715
1.47209
1.47118
1.47148
1
0.658372
1.47144
0.657211
1
1.47202
1.4755
0.99669
0.813664
1.47147
1.33123
1
0.658676
1
1
1.47153
1
1.02729
1.47148
1
0.65767
0.657768
1
1
0.647069
0.647721
1.47157
1.00005
1
0.648746
0.647764
1.47068
1.4534
1.43911
1.47157
1.127
0.981644
1.18712
1.47366
1.36287
1
1.23469
1
0.648128
0.861301
1
0.657709
1.47181
1.02247
1.47295
1
1.47137
1.47129
1
1.47075
1.47158
0.65741
1.47507
1
1.48235
1
0.746239
0.656972
1.47077
1
1
1
0.657528
1.47122
1.47266
1
0.659052
1
1
0.657829
1.00004
0.643762
1.47203
1
0.822366
0.649363
1
1
1.26566
1
1
1
1.07948
0.65753
1
1.00001
1
1.47089
0.659559
1
1.47172
0.657607
0.657981
1
1
1.47588
1
1.47294
1.00001
1.47139
0.660312
1
1
0.65787
0.807811
0.657987
1
1
1
1
1.47271
0.650361
1
0.658335
1
1.47721
1
1
0.927898
1
1
0.822991
0.999684
1.00005
1
0.659835
0.658428
1
1
1
1
0.799789
1.46966
1.47182
1
0.657109
0.657396
0.906438
0.659022
1
0.823469
1
0.658159
0.981919
1
1
0.65772
1
1.47041
1.45411
0.657439
1
1
1
1.46672
1
1.04554
0.834954
1.14878
0.658268
1.18412
0.655968
1
1
0.717843
0.903944
1
1.04352
1
1
0.658195
1
0.940925
1.04654
0.65932
1
1.38159
0.756888
0.878806
1
1
1
0.657062
1
0.657917
0.65747
1
0.853544
0.657238
1.06358
0.747725
0.650216
1.4715
1
1.47153
1.25771
0.720962
1.47147
0.657289
0.999016
1.47153
0.999999
1
1.4706
1
0.718928
1
1.06432
1
1
1.47156
1
0.771136
0.812528
1.47173
0.93722
1
0.758902
1.47173
1.4718
0.901824
1
1.47144
1.12395
0.853568
1
1.01607
1
0.659185
1.20071
0.77315
0.745964
1
1
0.658147
1.47198
0.966842
0.657649
0.654113
0.863447
1
1.01418
1.47161
1.47187
1
1
0.999999
0.658527
1.21759
0.999996
1.47009
1.43472
0.654232
1
1.09462
0.877344
1.2701
1.40218
1
1.04084
1
1.00005
0.648452
0.847675
1
1
0.810133
0.650068
1.03791
1
1.00001
0.648975
1.21002
1
1.47099
1
1.04135
1.25051
1
1.46815
1
1
1.47232
1
0.649976
1.4711
0.699508
1.12241
1
0.658496
0.999914
1
1.00003
1
0.790429
1.02724
0.658025
1.35246
1.47168
0.639364
1
1
1
1
1
0.966258
0.657956
1.04294
0.658231
0.657567
1.07857
1
0.999802
1.12101
1
1
0.656169
0.986504
1
1
1.12971
1
1.472
1
1.47087
1.08892
1.02429
0.657931
1
1
0.658227
1
1
1
1
1.47135
1.04382
0.998054
1
0.644306
1.05297
0.999999
1
1.30476
1
0.657525
1.47183
1
1.00001
1
1.47247
0.657176
0.875955
0.650206
1.35294
1.47088
1
1
1.47152
1
0.647794
1
1
1
1
1
0.773182
1
1.47234
1
1
1.15866
1.47227
0.667458
0.867158
1
1.47169
1
1
1
1
1
1.47175
1.47096
0.647278
1.4716
0.641455
1
1
1.47172
1
1.47107
1.00289
1.02812
1.06141
1.47213
1.07247
1.31695
0.645176
1
0.64594
0.982767
1
1.47145
1
1
0.651305
1.47248
1
1.47111
1
1
1
1
1
1.00001
0.656851
1.4717
0.851621
1.47112
1
0.658947
0.663907
0.712445
1.47826
1.47176
0.96875
1
0.793281
1
1.17491
1
1.47142
0.645053
0.659449
0.843019
1
1.47123
1
1.08048
0.680057
1
1.47113
1.42663
0.998865
1
1.47183
0.657774
1.47484
1.47124
1.47575
0.65707
1.08448
1
1
0.64112
1
0.806824
0.828592
1
1.00002
1.47188
1
1.47658
1.08453
1
1.03926
1.47372
1
0.657507
1
0.774791
1
1
1.38671
1
0.801044
1
0.658528
1.03802
0.951943
0.649177
1.47081
1.38353
1.47142
0.657256
0.697053
0.995788
0.999999
1
0.68727
1.44387
0.657428
0.999968
1
1.4718
1.47153
0.902498
1
0.657548
0.711749
1.31133
0.975885
0.643744
0.999999
0.658525
1.11717
0.659705
1
1.00006
0.815292
1.47149
1.47078
0.840212
0.999596
1
1
0.718958
1
0.653623
1
0.655201
0.658316
1
1
1.00003
0.659274
1.47153
1
1
1.00007
1.00004
0.658296
1.47085
1.47172
0.999999
0.658471
1.4714
1
1.09582
1
1
1.47029
0.649859
1
1
0.657775
0.749457
0.658522
0.657825
1
0.701253
0.997206
1.0984
0.645652
1
1
1.13115
1
1.41576
1
1
1.32824
0.685779
1
0.657512
1.12671
1.47169
1
1
0.655343
0.658681
0.642125
0.726676
0.659437
1.3499
0.999402
1
1
1
1
1.471
0.657969
1
0.929648
0.999675
0.998779
0.999939
0.765499
1.12733
1
1.47171
1.47142
1
1
1.45104
1.00004
0.999999
1.47153
0.657769
1.47019
0.999999
0.643426
1.47172
1.00005
1
0.828547
1
0.646775
1
1.47132
1
1
1.47518
1
1
1.47319
1
1
1
1.4716
1
0.752992
0.725284
1
0.637094
1.47181
1
1
0.973503
1
1.47413
1.2685
1.37645
1
1
0.668237
1
0.657869
1.47179
1.47172
1.47154
1
1.4718
0.658113
1
0.659832
1.37687
1.42985
1.47216
1.47192
0.762058
0.64783
1
1.3106
1.47173
1.47166
1.47164
0.748375
1.16726
1
1.35442
0.754296
1
1.00002
1
1.00002
0.895208
1
1.47181
1
1
1
1
1
1
1.00006
1.46909
1
1.47584
1.34672
0.657762
1.47212
1.02306
1.2311
1
1.47144
1
0.66052
1
1
1
1
1.40105
1
0.642032
1.47077
0.63784
1.47155
1.37439
1.2415
1
1.08794
1.21634
0.995688
0.65743
0.774164
1.00002
0.999999
0.918018
1
0.649651
1.47167
0.648084
0.922677
0.852177
1
1
1
1.01298
1
1
0.657457
0.996485
1.47148
1
1.47185
1
0.655035
1
1
1.47163
1.47034
0.644287
1
1.47134
1
0.812236
0.653958
1.47173
1.42144
1
1.08005
1.47197
0.998664
1
1.19091
1.41207
1.4723
0.996013
1
0.999998
1.39887
1
1
1
1.47159
0.998505
1
1
1.4713
1
1
0.658662
1
1
1
1.47186
1
1
0.85537
1.14188
1.42773
0.773442
1
1.47158
1
1.15951
1
1.47119
0.997226
1.47181
1
0.657947
1
1.33152
1
1
1.43892
1.00001
1.4713
1
1.47146
0.688823
0.660171
1.47112
1
1.39681
1
1.47212
1
1
1.00005
1.47253
1.473
1.11906
1.47109
0.99581
0.658255
1.47119
0.86434
1
1.46838
1
1.47175
1
1.47372
1.47238
0.996435
0.655552
1
1.47139
1
1.02434
1
1
0.997962
0.755454
1.41916
1
1.4242
1
0.869654
0.645719
1.47032
1.47178
0.698048
1
1.47087
1.47099
1.4711
0.685281
1.47107
0.672115
1.47183
1.46792
1
1
1.47151
1
1
1
1
0.657725
1
1
1.4717
1.47142
1
1.47157
1
1.47111
1.47159
1
1.39099
1
0.638941
1.47153
1.3458
1.12961
0.638466
1.47155
1
1
0.650423
1
1
1.47149
1
1
0.783376
1
1.47151
1.00009
1.47124
0.646244
1.4716
1
1.47198
1.45278
0.898674
1
1.47255
0.766728
1.47304
1.32691
1.47131
1.47151
0.997218
1.47166
1.47116
1.47173
1.47167
1.00043
1
0.657757
1
1.47154
0.830402
1.42917
1
1.4626
1
1
1
1
1
1.46874
0.645569
0.65754
1.47226
1.47127
1
1
1
1
1
1.4679
1.42922
1.47182
1.01198
1
1
1
1.00003
1.47017
1.47134
1
1.47114
1.47125
0.657958
1.32719
1
1.47173
1.47552
1.4681
0.997864
1.47189
1.47081
1
1.43093
1
1
1
1
1
1
1.47149
1.47159
1.43807
1.47173
0.648712
0.690587
1.47165
1.47183
1
0.650963
0.938473
1
1.22182
0.651114
1
0.999458
0.998275
0.658449
1
1.47168
1
1
1
1.47128
0.94289
1
1.47173
1.47114
1
1.47169
1
1
1.47156
1
0.655568
1
1.47186
1
1
0.65802
1
1.47121
1
0.639399
0.651835
1
1.45558
1
0.635033
0.879666
1
1.47179
1
1
1
1.476
1
0.658147
1.06424
1.47168
1.47311
1.47177
1.04322
1.47331
1.47144
1
1.00002
1
1
1.00001
1.47158
1
0.999308
1.47075
1
0.640983
1
1.47134
1.2151
1.0548
1.21475
1.06269
1.47608
0.701138
1.47173
1
0.659141
0.997133
1.47159
0.933682
1.47168
1.47143
1.45569
1
1.47152
1.47158
1.4717
1
1.00004
1
1
1.47174
1.33293
1
1
0.658782
0.996649
1
1.47155
1
1.47156
1.47172
1.47299
0.900076
1.47147
1.47208
1.00457
1.22674
1.47165
1.47162
1
1.43426
0.836112
1.46115
0.983231
1.47193
1
1.47139
1.47103
1
0.658874
0.928757
0.702801
1
1.08199
0.996793
1.47159
1
1
0.996764
1
1.23019
1.44013
1
1
1.47123
1
1
1.33262
1.47171
1.45194
1.47168
1.4709
1
1.47247
0.731351
1.47151
1
0.987385
0.657896
1
1
0.749142
1
1.14351
1
1.47329
1
1.46234
1.2934
0.65787
1
1
1
1
1
1.47157
1.01149
1
1.47168
1
1.47157
1.47162