/*--------------------------------*- C++ -*----------------------------------*\
  =========                 |
  \\      /  F ield         | OpenFOAM: The Open Source CFD Toolbox
   \\    /   O peration     | Website:  https://openfoam.org
    \\  /    A nd           | Version:  12
     \\/     M anipulation  |
\*---------------------------------------------------------------------------*/
FoamFile
{
    format      ascii;
    class       surfaceScalarField;
    location    "2.4";
    object      phi;
}
// * * * * * * * * * * * * * * * * * * * * * * * * * * * * * * * * * * * * * //

dimensions      [1 0 -1 0 0 0 0];

internalField   nonuniform List<scalar> 
69079
(
-0.000202204
0.000117078
8.51052e-05
0.000166001
-4.41541e-17
-0.000166001
-0.000179374
0.000179374
0.000167917
-1.91521e-06
-0.000176703
-2.67121e-06
-0.000176703
9.57298e-05
-0.000182995
8.71532e-05
8.14785e-06
0.000147549
-0.000152894
0.000169597
-0.000169597
-3.0046e-17
0.00016874
8.56803e-07
-0.000126005
-7.6009e-05
-0.000146139
0.00015702
-1.04377e-05
-0.000166388
0.000162809
3.57841e-06
-0.000165548
-8.40003e-07
4.5797e-06
-0.000146503
0.000141924
0.000168773
-3.36001e-08
0.000167933
8.40003e-07
-0.000168572
0.000166354
2.21761e-06
-0.000166724
-1.84801e-06
0.000168454
-0.000167513
-9.40804e-07
0.000167144
1.31041e-06
0.000170117
-0.00017257
2.45281e-06
-0.00018139
1.74049e-05
0.000163985
0.000188762
-0.000123946
-6.42369e-05
0.000157031
-2.41133e-05
-0.000133107
-0.000167933
-1.66321e-06
0.0001679
3.36001e-08
3.86402e-07
-1.68001e-08
0.000158983
-0.00014894
0.00015732
-0.000164356
6.92409e-06
0.000159416
-0.000172755
1.33393e-05
0.000186061
-2.66449e-05
0.000166203
9.40804e-07
-5.20802e-07
-0.000167833
3.10801e-05
0.000136753
0.000165934
-0.000165934
1.83501e-17
3.86402e-07
-3.60278e-06
0.000149773
-0.000147775
-1.48681e-05
-0.000166522
0.000136155
2.55677e-05
-0.000161382
-0.000166195
2.04299e-05
0.000164775
-0.000164775
5.28549e-18
-7.98003e-06
-0.000133789
0.000163028
-2.86248e-05
0.000164506
1.84801e-06
-1.42801e-06
-9.71884e-05
0.000185607
-8.84187e-05
0.000161432
-0.000161432
-5.2706e-14
0.00018512
-2.36881e-05
0.000156879
2.82409e-05
0.000184129
-2.72497e-05
0.000159634
-4.73762e-06
-0.000154897
-0.000139172
0.000167187
-3.43067e-05
-0.000175846
0.00018013
-4.28412e-06
-0.000163526
7.02967e-05
9.33445e-05
0.000160222
-0.000160222
1.25116e-10
0.000183541
-2.3319e-05
0.000160888
-2.20038e-07
-0.000160674
-8.28028e-05
-6.21272e-05
0.000144425
9.95068e-05
6.67467e-05
-0.000166253
0.000184311
-9.35314e-05
-9.07351e-05
-1.87657e-05
-0.000149067
6.53019e-05
-0.00016249
-0.000139852
0.000144432
0.000161969
8.40003e-07
-2.80561e-06
0.00019604
-0.00019604
-1.89205e-05
-0.000144514
-0.00014594
1.2269e-05
-6.69365e-05
0.000162308
0.000154337
2.92047e-05
0.000182248
-2.79105e-05
0.00017143
-1.99095e-05
-0.000151123
0.000169966
-0.000166472
-3.49441e-06
0.000120629
6.84866e-05
0.000157013
-0.000158126
5.49072e-07
-3.15931e-06
0.000159871
-0.000160659
1.47841e-05
0.000145875
0.000159416
2.66449e-05
-2.01601e-06
0.000152406
-0.000181606
2.91922e-05
0.00013603
2.36041e-05
0.000170537
-1.80975e-05
-9.38868e-05
-6.6325e-05
0.000160602
-0.000156056
0.000158055
-1.99921e-06
0.000158335
-0.000179874
2.15819e-05
0.000160199
-1.79345e-06
-0.00010804
-5.32069e-05
-8.26563e-06
-0.000133477
0.000141742
-9.2182e-05
0.000181222
-8.90403e-05
0.000182542
-4.63985e-05
-0.000168958
1.29025e-05
0.000156879
2.72497e-05
9.04684e-05
6.85947e-05
-0.000159063
-3.34316e-06
-0.000154426
-1.45321e-05
4.08242e-07
-0.000138258
0.00013785
0.000165194
-4.31698e-06
8.85531e-05
7.81707e-05
-0.000166724
7.07787e-05
-0.000162961
-0.000155787
1.36081e-06
0.000167866
-0.000167866
0.000168803
-1.15255e-05
2.64266e-05
-0.00018218
0.000155753
5.77993e-05
-0.000151327
-0.000153583
-1.23919e-05
0.000155504
-0.000181479
2.59318e-05
0.000159059
-3.57332e-06
8.66401e-06
0.000133871
-0.00014254
-1.24841e-05
0.000146423
-0.000141994
0.000154318
2.79277e-05
-2.72974e-05
-0.000136892
0.0001373
9.79444e-06
-0.00015782
0.000148025
-0.000147378
4.27289e-05
-9.7271e-06
0.000146466
-0.000136604
6.22146e-05
-0.000145285
-0.00014962
-5.54864e-06
0.000155163
0.000149108
-0.000152782
3.7764e-06
-0.000161197
0.000138987
2.22097e-05
-5.77922e-06
-0.000170924
0.000146119
2.38516e-05
-1.52423e-05
0.00016088
-0.00017336
0.00017336
-0.000155332
5.70652e-06
-4.70906e-05
0.000146597
0.0001833
-0.000109276
-7.39055e-05
-0.000180629
7.3703e-05
0.000106927
0.000167118
-7.07898e-07
-0.000166594
0.00015268
-0.000178335
2.5647e-05
0.000157924
-5.22591e-06
0.000164338
-5.3338e-06
0.000144587
-0.000138365
0.000158193
8.92195e-06
0.000101708
-0.000161381
5.96738e-05
0.000154709
-0.000186105
3.14474e-05
0.000184699
-2.9987e-05
-2.06368e-06
0.000151119
-0.000101019
0.000190664
-8.96451e-05
-0.000137623
-2.09094e-05
0.000148263
-0.000176461
2.81485e-05
0.000154407
-6.20249e-06
0.000154716
-0.000165984
1.11871e-05
-0.00016382
2.6133e-05
-4.3928e-05
-0.000136701
0.000152974
-0.000184043
3.11515e-05
-2.68507e-05
-0.000150785
0.000143937
0.000111334
-0.0001196
-0.000128639
0.000137454
0.000178383
-0.000178383
0.000157245
8.94406e-07
-2.88202e-05
0.000155342
-0.000164868
9.45809e-06
-0.000150902
4.42906e-06
8.79326e-05
9.5136e-05
-0.000168236
2.66953e-05
0.000141541
0.00015017
-0.000182129
3.20242e-05
-0.00014942
0.000181359
-3.11373e-05
-0.000151104
-2.47846e-06
0.000129624
-5.92541e-05
-5.31722e-05
0.00015488
-1.91759e-05
0.000175731
0.000152019
3.27119e-05
-0.000141459
0.000137242
-3.19358e-05
0.000157693
-0.000157704
9.09052e-05
-0.000158441
6.75363e-05
0.000148236
-0.000180519
3.2328e-05
0.000179895
-3.16102e-05
-2.51161e-05
-0.000147454
0.000151061
4.78355e-06
-0.000155699
-2.84929e-05
-0.000153687
1.77012e-05
-0.000134482
0.00011466
-0.000108293
0.000168612
-6.75793e-05
-0.000150797
5.44322e-06
0.000145354
8.2659e-06
0.000158663
-0.000140087
0.000130426
0.000150881
0.000159591
-4.19397e-06
0.000146272
-0.000179118
3.28809e-05
-3.52079e-05
9.24004e-07
-0.0001469
0.000145976
0.000150731
9.5414e-06
-3.13308e-05
5.93319e-05
0.00010499
0.000144346
6.38402e-07
-0.000144985
1.49521e-06
0.000142851
1.13904e-05
0.000158576
-6.18746e-05
-7.89099e-05
0.000140785
-0.000183545
0.000108504
7.59246e-05
9.65164e-05
-0.000158391
4.87202e-07
0.000146732
-0.000147219
-0.000146782
0.000147269
0.00012938
-0.000150618
-0.000155216
0.000161415
-6.19922e-06
0.000136868
-0.000164601
2.779e-05
0.00014839
-1.15395e-05
-1.3304e-05
-0.000129135
0.000142439
8.74107e-05
6.22946e-05
-0.000149705
0.000147638
3.37708e-05
-3.28403e-05
2.20249e-05
-0.000153855
0.00013183
-0.000145069
-7.2898e-06
0.000155125
4.51108e-06
0.000143338
-0.000177587
3.42812e-05
0.000176415
-3.30497e-05
9.81628e-05
-0.000156951
5.87885e-05
0.000148378
-0.000138584
0.000159928
-0.000165483
0.000140365
1.07432e-05
-5.20802e-07
0.000158576
4.64953e-05
-0.000154754
-0.00015283
-2.38561e-06
0.000160175
-5.60126e-06
-9.38811e-05
-4.82788e-05
0.000142584
0.000141637
-0.000175667
3.39896e-05
0.000170924
-2.23945e-05
-0.000173645
-3.67821e-05
0.000120283
-0.000104714
0.000145879
3.40643e-05
-3.31776e-05
-9.24216e-05
-7.20233e-05
0.000164246
0.000167127
-0.000164859
-2.26801e-06
-1.94713e-05
0.00016753
-0.000148059
0.000133717
-0.000160876
2.73009e-05
0.00014661
-1.28416e-05
0.000140022
-0.000140526
5.22491e-07
-6.09842e-06
-0.000155098
-0.000172217
2.64097e-05
0.000145808
-3.08953e-05
-0.000141322
-2.16385e-05
-0.000151721
-6.18242e-05
0.000152293
-0.00019058
0.000102245
8.83347e-05
-0.000159315
0.000137895
2.14201e-05
0.000139133
8.62034e-07
0.000152466
-0.000144671
-7.79859e-06
-0.000180836
0.000159197
-0.000155686
-1.008e-07
-0.0001532
0.000155703
-2.50321e-06
-9.32572e-05
-9.73228e-05
9.10228e-05
-0.000162893
7.18707e-05
-8.73603e-07
-0.000165598
-5.51042e-06
-0.000162725
0.000155594
-5.18807e-07
-0.000160189
6.98883e-06
0.000138927
-0.000174335
3.54442e-05
-3.75072e-05
0.000147853
4.57064e-06
0.000130583
-0.000157733
2.7015e-05
-0.000163616
3.42721e-06
0.000144517
-1.4105e-05
0.000146813
1.22419e-05
-3.07314e-05
0.000158062
-0.000152112
-6.17879e-06
-1.29024e-05
0.000147833
-0.000134446
0.00016333
-0.00016333
-0.000197471
9.38596e-05
0.000103553
-7.99458e-05
0.000152976
-7.27342e-05
-0.000138551
-4.66956e-06
0.00014351
-0.000162312
-3.61e-06
-9.2145e-05
-5.77579e-05
0.000153591
8.98972e-05
5.56418e-05
-0.000145539
0.000110003
-0.000123307
5.19122e-06
0.000156005
-0.000161197
0.000141603
3.4817e-05
0.000135885
-0.000172198
3.63006e-05
-3.40719e-05
-0.000172822
0.000153351
-0.000155031
0.000155031
0.000105656
6.2345e-05
0.000170482
-3.45924e-05
-2.73673e-05
-0.000153469
0.000136202
9.6634e-05
-0.000158712
6.20779e-05
-1.69031e-06
-0.000158401
0.000153058
-1.33839e-06
0.000147684
-0.000146191
0.000126978
-0.000154372
2.74181e-05
0.000142844
-1.57889e-05
0.000166993
-0.000168387
-0.000140482
0.000145673
-0.000102699
-8.06554e-05
-8.21453e-05
0.000147664
-6.73753e-05
-0.000156054
3.39158e-06
0.000157216
-0.000162845
5.68479e-06
-8.42523e-05
0.000171663
0.000163696
1.49666e-06
0.000162692
1.01908e-06
-0.000185132
8.66695e-05
9.87472e-05
4.73426e-05
0.000138265
0.000162421
2.7092e-07
9.54522e-05
-0.000139875
4.44173e-05
0.000161869
5.66162e-06
0.00014329
-4.78214e-05
4.77141e-05
0.000134046
-0.000169589
3.55311e-05
0.000159922
0.000168973
-3.493e-05
0.000162243
-2.70624e-05
-0.000134876
-0.000147537
-3.75044e-06
0.000151283
-0.000183054
0.000106428
7.66251e-05
0.000143672
1.42706e-05
-3.06763e-05
-5.61122e-05
0.000154275
0.000169246
-0.00016925
-0.000140062
0.000140701
0.000146833
-0.000145337
-0.000100084
0.000154522
-6.7008e-05
-2.73841e-06
-0.000157921
0.00013211
-0.000168018
3.58768e-05
-0.000150848
0.000154594
-3.74641e-06
0.000167354
-3.52512e-05
-0.000157583
0.000157453
0.000157575
4.81835e-06
3.72961e-06
-0.000149487
0.000145757
-0.000146373
0.000136476
-0.000127243
-1.05491e-05
0.000137405
-0.000157181
6.33362e-06
-0.000135287
-4.78196e-05
0.000123421
-0.000147861
0.000171056
-2.10896e-05
0.000157826
-6.69651e-07
-0.000154325
-2.85601e-06
0.000158895
-0.000158895
0.000130201
-0.00016654
3.62948e-05
0.000165843
-3.56775e-05
0.000120682
-0.000147221
2.65958e-05
0.000138084
-1.73052e-05
-9.19636e-05
-9.109e-05
-0.000162356
6.1337e-05
-0.000152259
-2.06641e-06
8.69692e-05
9.58714e-05
0.000151255
6.54789e-06
0.000141741
1.26354e-05
-3.04535e-05
-0.000152746
0.000140113
1.26336e-05
0.000173645
-0.000166993
-0.000134216
0.000149
0.000143755
-0.000157055
1.3284e-05
0.000147286
-6.08162e-06
-0.000141205
0.000128337
-0.000164914
3.65942e-05
0.000164272
-3.59617e-05
-5.49362e-06
-0.000153821
-0.000148375
0.000153969
-5.76547e-06
9.40804e-07
-0.000151738
0.00017
-2.76341e-05
-7.20891e-05
0.000160642
4.28336e-07
-0.000175166
2.86626e-05
-0.000136224
-1.52692e-05
0.000149117
-6.82083e-06
-0.000142297
0.000133898
3.65818e-05
0.000156005
-6.51003e-05
-3.57378e-05
-0.00015787
0.000143338
1.45321e-05
6.97244e-06
-0.000143674
-0.000201937
0.00011792
8.40171e-05
-0.000149437
4.95602e-06
0.000144481
-9.15268e-05
-0.00011041
5.56082e-06
0.000141793
-0.000147353
-0.00015026
6.95523e-06
0.000143305
-1.04328e-05
-0.000139827
-0.000156308
0.000145875
0.000126429
-0.000163353
3.69589e-05
-0.000150663
3.86402e-06
0.000146799
0.00015026
-6.43443e-06
-0.000143825
-5.12402e-06
0.000149504
-0.00014438
0.000145136
0.000162812
-3.63272e-05
0.000151889
-6.58563e-06
-0.000145304
0.00015871
-1.15686e-06
-0.000159614
-1.69009e-05
-0.000155921
-6.70323e-06
0.000151553
-0.00014485
8.76627e-05
5.83298e-05
-0.000145993
-0.000148852
5.51323e-05
-7.81953e-05
-8.95334e-05
-0.000166007
3.85843e-05
0.000131814
3.70987e-05
1.26738e-05
-0.000155436
-3.62272e-05
7.39203e-06
0.000139894
-0.00014144
1.05e-05
0.00013094
0.000124651
-0.000161976
3.73211e-05
-7.80733e-06
0.000165492
0.000150411
-5.94722e-06
-0.000144464
-0.000154731
-8.04885e-06
0.000161107
-3.66488e-05
-9.91955e-05
0.000155138
-5.69411e-05
0.000167009
-1.49521e-05
-0.000152057
0.000185742
-3.76632e-05
-0.000156314
0.000152316
4.01561e-06
0.000156514
-0.000156514
-0.000162272
9.60964e-06
0.000152662
4.61194e-07
0.000144831
-0.00014609
-8.56635e-05
0.000154258
0.000113175
-0.000139289
2.62698e-05
-2.0303e-05
0.000133689
1.40513e-05
0.000156459
-5.64471e-06
0.000149537
-0.000143892
-1.45489e-05
0.000129529
-0.00011498
0.000176871
-0.00010458
-7.22907e-05
3.30961e-06
-0.000149974
0.000146665
3.20881e-06
-0.000155468
0.000154342
-0.000154342
-0.000145371
0.000147219
-1.84801e-06
0.00015125
-0.00015675
5.49144e-06
-0.000134333
0.000135257
9.17125e-07
0.000150416
-0.000151251
2.40241e-06
-0.000149873
0.000147471
7.70618e-05
9.40046e-05
-0.000170652
-1.66321e-06
0.000157366
-0.000152175
-1.94881e-06
0.000154124
-0.000151782
-1.82449e-07
0.000149017
-0.000146614
0.000137441
4.3781e-05
0.000122423
-0.000160082
3.77353e-05
-6.60579e-05
-7.39035e-05
0.000139961
0.000129956
3.7444e-05
-0.00017551
0.000109452
0.000150021
-5.33872e-05
-4.20543e-05
-3.65876e-05
-0.000184885
0.000105504
7.93803e-05
-9.17577e-05
0.000161732
-8.38293e-05
8.46505e-05
8.13661e-05
-0.000166017
-9.28036e-05
0.000158105
-0.00015278
0.00014527
7.50963e-06
-0.00015404
1.26e-06
-0.000149525
4.48536e-06
0.000145164
7.83633e-06
0.000157463
-0.000142145
-4.03202e-06
0.000146177
-0.000132586
0.000118037
0.000103186
-0.000141783
0.000136518
-0.000147422
5.20802e-07
0.000145405
-0.000145925
6.49191e-05
-0.000147427
-9.75748e-05
-8.73099e-05
-1.80226e-06
0.000147271
-0.000145672
-0.000157007
-7.95308e-06
-0.00018806
0.00010915
-3.81361e-06
-0.000158458
0.000156043
-0.000156064
-0.00013094
0.000157635
-0.000144462
0.000143363
-4.89079e-06
0.000151682
-0.000147885
-3.20377e-05
-0.000122993
9.77178e-05
-0.000191081
-4.50074e-05
0.000150663
-0.000148934
1.00071e-07
0.00014874
6.94261e-06
0.000115689
-0.000126803
6.66879e-06
-0.000151133
0.000144465
0.000127912
3.7882e-05
0.000146627
-2.54749e-06
-0.000144145
0.000149605
-8.06403e-07
-0.000148798
2.19347e-06
0.000144006
0.000145394
-0.00014359
-3.70272e-05
-0.000147219
-3.44401e-06
1.55936e-06
0.000143661
-0.000161768
0.000167211
-0.000147118
0.00014821
-1.092e-06
5.56082e-06
0.000143456
0.000143691
5.81282e-06
-0.000147572
4.53602e-07
-7.68138e-05
-6.21439e-05
0.000137587
-0.000176471
3.82134e-05
0.000123408
-0.000120896
-3.67038e-06
0.000118523
-0.000159332
4.07591e-05
0.000156811
-0.000151232
-5.59322e-06
-2.6776e-06
0.000158174
0.000156347
-3.80101e-05
5.39905e-05
-0.000146397
0.000113488
-0.000134182
2.06621e-05
-2.20203e-05
0.000135573
-0.000153149
0.00014107
1.20792e-05
0.00013976
-1.2348e-05
-0.000152511
0.000158257
-8.00859e-05
-5.32847e-05
0.000126988
-0.000152477
0.000146967
-3.89714e-06
-0.000140448
-9.46198e-05
-9.04006e-05
-0.000118588
1.4134e-06
0.000117681
-0.000142748
0.000138952
-3.27046e-07
0.000146701
-0.000146827
-1.55593e-05
-0.000130164
0.000145701
-8.91204e-07
0.000146879
-0.000145943
0.000178467
-8.72427e-05
-9.12244e-05
7.62723e-06
0.00014149
0.000125897
3.83461e-05
-0.000154966
3.24374e-06
0.000151924
-0.000144167
5.99182e-06
-3.74475e-05
0.000117078
-0.000155565
3.85799e-05
-4.36667e-05
0.00011186
-0.000132478
2.0411e-05
-0.00014052
0.000128244
-0.000142767
-6.66963e-06
-2.28794e-05
0.000134245
6.56201e-06
6.71835e-05
0.000109688
0.000159903
-0.000156593
0.000151033
-1.42801e-06
-0.000147265
6.7575e-05
0.000149319
-5.02322e-06
-0.000144296
-0.0001527
0.000174935
0.000138869
-0.000116844
1.41121e-06
-0.000141473
5.29426e-06
-0.000151718
0.0001467
-4.04882e-06
0.000158643
8.61507e-05
8.06235e-05
-0.000166774
0.000103261
9.07468e-05
-0.000194903
-0.000126898
-7.93947e-06
0.000132038
-3.0694e-06
-0.000149107
0.000152722
9.76084e-06
0.000153569
-0.000153721
0.000149703
-0.000152648
0.000151873
-0.000153956
2.08321e-06
-3.40277e-06
0.000153178
1.93633e-06
0.000150815
-0.000152366
0.000150984
-0.000154558
-0.000160558
-8.94748e-05
0.00016542
-7.56728e-05
-9.58472e-05
0.000170581
-7.47844e-05
-0.000180382
4.94426e-05
0.000144916
-0.000147405
-1.83825e-06
-0.00015031
0.000152122
-1.68841e-05
0.000162406
-0.000145522
0.000166069
-0.000103774
0.000124101
3.87617e-05
-0.000144397
4.48562e-06
0.000139911
0.000101843
-0.000170466
6.88554e-05
0.000149602
7.31872e-06
-0.000152175
-0.00017929
0.000104211
7.50795e-05
-3.7838e-05
0.000144061
-0.000140331
-0.000152158
-1.69681e-06
-0.000143034
0.000147594
-4.55954e-06
3.56497e-06
-0.000146599
-0.000137538
0.00012384
1.3701e-05
-0.000152019
0.000152173
-1.54561e-07
-0.000149843
-2.17561e-06
0.0001148
-0.000156087
4.12499e-05
-0.0001512
-2.84848e-07
0.000153394
-3.85602e-05
-0.000160669
9.82147e-05
-0.000154191
0.000149603
4.5881e-06
-0.000154796
6.04802e-07
-0.000149798
0.00014988
-8.23203e-08
-0.000150193
3.94802e-07
-0.000153855
-0.000152225
0.000147303
4.92242e-06
-0.000152897
1.1508e-05
0.000141389
0.000146991
-0.000147573
-0.000118048
-4.49122e-08
-0.000152696
5.79602e-06
0.0001469
-0.000143573
-3.91442e-06
0.000147488
0.000118575
3.29281e-06
0.000141994
-0.000145287
-0.000147353
-3.19201e-06
0.000150545
-0.000149403
3.14161e-06
0.000146261
-8.5582e-05
-0.000111647
5.43143e-06
0.000156291
-6.52683e-05
0.000151564
6.14316e-06
0.000143657
2.23441e-06
-0.000145892
1.176e-06
0.000147404
-0.00014858
-0.000136094
0.000154342
-6.44451e-05
0.000151906
-7.19043e-06
-0.000144716
-0.000150865
2.21761e-06
0.000148647
0.000121873
3.91345e-05
-0.000148699
7.39203e-07
0.00014796
0.000141994
2.45281e-06
-0.000144447
-3.81838e-05
0.000154154
-2.59162e-06
-0.000147127
-3.91396e-06
0.000150961
9.12244e-06
5.47638e-06
-0.000152573
-0.000145246
0.000150744
5.66146e-06
-0.000150817
-0.00014896
0.000149478
0.000150562
-4.92242e-06
-0.00014564
0.00011368
-0.000153023
3.94106e-05
-4.39983e-05
0.000159912
-0.000159923
-0.000161843
0.000164489
-1.64415e-06
-0.000148781
2.83921e-06
0.000145942
-8.88555e-05
-9.92044e-05
-0.000152147
0.000132948
0.000149621
-0.000148697
-9.24004e-07
-0.000155345
7.81059e-06
-0.000166168
6.11721e-05
-0.000144783
-5.09042e-06
-0.000151153
0.000147393
5.32516e-06
0.000140064
-0.000145388
-0.000151133
5.59442e-06
0.000145539
0.00016562
-0.000180807
0.000157954
-0.000150327
0.000145421
-0.000152007
-0.000154198
0.000165984
-2.63648e-06
0.000149305
-5.48472e-06
-0.000143839
0.000147437
-0.000154141
0.000150125
0.000152582
-0.000152615
-0.000151422
0.000152039
-6.16562e-07
-0.000149877
-1.54561e-06
-0.000154243
0.000152058
2.18472e-06
-0.000152847
-1.39617e-06
-0.000157224
0.000152789
4.166e-06
-0.000153003
-4.38444e-06
-0.000166131
0.000152768
1.33652e-05
-0.000153533
-1.26105e-05
0.00017264
-0.000112269
1.75937e-06
-0.00014896
0.000147031
-0.000166098
0.000152853
1.32283e-05
-0.000169224
9.39299e-05
7.43056e-05
-0.000153706
-1.23835e-05
-0.00016585
0.000152865
1.29655e-05
0.000151301
0.000156572
-0.00013546
-2.00705e-05
0.000114617
1.73612e-05
-0.000132452
-0.000153736
-1.21374e-05
0.000152377
-0.000165622
0.000152962
1.26619e-05
0.000155686
6.72003e-06
-0.000153823
-1.17993e-05
-0.000177286
4.03941e-05
-0.000149958
4.84039e-06
0.000145575
-0.000165468
0.000153021
1.2436e-05
-8.85363e-05
-6.84267e-05
0.000156963
-0.000153879
-1.15989e-05
0.000134738
-0.000138727
3.98499e-06
5.61122e-06
-0.000144598
0.000138987
-0.000165212
0.000153018
1.21688e-05
-0.00014648
-7.56003e-06
-0.000153925
-1.13016e-05
1.37761e-06
-0.000147857
-0.000127108
-1.11782e-05
6.97539e-05
-0.00015829
-0.000145061
-6.39836e-06
0.000128585
-1.44298e-05
-0.000144766
0.000151453
-6.68643e-06
-0.000147757
2.99041e-06
-0.000164989
0.000153011
1.19847e-05
-0.000153855
-1.11198e-05
-6.23282e-06
0.000146614
-0.000140381
1.27455e-06
0.000146605
-0.000148209
-0.000163808
0.000152142
1.16968e-05
-0.000153843
-9.96313e-06
0.000148812
-0.000152583
3.85727e-06
-3.42721e-06
0.000162322
-0.000160558
-0.000164133
0.000152932
1.11548e-05
0.000114148
-0.000154567
4.04695e-05
-0.00015378
-1.03411e-05
4.09922e-06
-0.000144447
0.000140348
0.000129741
1.86037e-05
-0.000163628
0.000152887
1.0806e-05
0.000143615
-9.4077e-06
-0.000134657
-0.000153668
-9.91443e-06
0.000151874
-3.76277e-05
-2.96028e-05
3.49441e-06
-0.000144413
0.000140919
0.000146799
-0.000150797
3.99842e-06
-1.68001e-08
0.000146816
-0.000163168
0.000152667
1.03943e-05
-0.000153711
-9.60344e-06
-0.000156034
0.000125785
2.06423e-05
4.97282e-06
-0.000144665
0.000139693
5.99762e-06
-0.000145808
0.00013981
-0.000162101
0.000152049
1.00934e-05
2.69004e-06
-0.000142295
0.000139314
-0.00015361
-8.42675e-06
-8.67274e-06
0.000144845
-0.000151721
-4.58642e-06
-0.000161415
0.000151919
9.55956e-06
-0.000153413
-7.95055e-06
-0.000148781
0.000149655
-8.73603e-07
-0.000148496
0.000151301
-2.80561e-06
-5.71202e-07
7.48792e-05
-0.000164926
-4.20002e-07
-0.000148076
-0.000149984
0.000148004
0.000153637
-0.000151955
-1.35382e-06
-8.1732e-05
-8.26224e-05
0.000149067
-0.000161519
0.000152665
9.00771e-06
9.24004e-07
0.000145489
-0.000146413
-0.00015329
-8.12751e-06
-4.87202e-07
-0.000145892
0.000146379
-5.77922e-06
0.000144917
-0.000139138
-6.33514e-07
-0.000149199
-0.00015085
0.000150237
-0.00016104
0.000152424
8.57337e-06
-0.000153449
-7.77226e-06
-0.000147906
2.99519e-06
0.000145105
-0.000150368
7.06832e-07
0.000150042
-0.000159886
0.000151747
8.19092e-06
-0.000148112
-0.000153296
-6.53414e-06
-0.000154107
0.00015661
-2.50321e-06
-1.84459e-06
-0.000154376
-0.000159603
0.00015225
7.42011e-06
-0.000153043
-6.56685e-06
-0.00014984
2.94001e-06
-4.77675e-06
-0.000159706
0.000152544
7.15541e-06
-0.000153276
-6.31161e-06
-6.77148e-05
-9.0007e-05
8.40003e-08
0.000146278
-0.000146362
-0.000147471
0.000147555
0.000146009
-0.000144598
-0.000158236
0.000151784
6.51042e-06
-0.000148466
-3.51971e-06
0.000151284
-0.000152725
-5.73082e-06
1.45332e-05
0.000128573
-0.00014028
-0.000149923
0.000159311
-0.000150077
4.63116e-06
0.000146015
-1.01201e-05
-0.000158891
0.000152573
6.3332e-06
-0.000153155
-5.46962e-06
0.000147595
6.14925e-06
-0.000157236
0.000151584
5.67888e-06
-0.000152568
-4.93685e-06
5.14444e-07
-0.000149076
0.000135126
-0.00015238
0.000154739
-2.35873e-06
-0.000108726
-6.49599e-05
0.000167974
-1.15812e-05
0.000111095
-0.000151135
4.00114e-05
7.57683e-06
-0.000160474
0.000129304
-2.74324e-06
-0.000126401
-4.33109e-05
-0.000141314
7.6282e-06
0.000133508
-4.64852e-06
-0.000149595
-8.52376e-05
-7.97289e-05
0.000165653
-0.000151127
0.000151995
-8.68563e-07
-0.000153223
8.43363e-07
-1.24656e-06
0.000116028
4.02543e-05
0.00014648
-0.000145556
-0.000152308
0.000153195
-8.87043e-07
0.000145993
0.000123296
4.01522e-06
-0.000127311
-1.34401e-07
-3.95241e-05
0.000133544
-1.0248e-05
0.000153879
8.60163e-07
-9.17284e-07
-1.94956e-06
0.000142248
-5.33613e-06
-0.000136948
0.000153939
-2.06641e-06
-2.07613e-06
0.000154329
7.91782e-05
9.41374e-05
-0.000170395
0.000100096
6.99005e-05
-0.000111536
-6.88467e-05
-1.90009e-05
0.00015283
-6.19922e-06
-0.000146026
-0.000156308
-0.000172992
9.37303e-05
-0.00014354
0.000144716
0.000142923
-0.000144567
4.53602e-06
-0.000145398
-4.77515e-06
0.000150085
0.0001701
-6.98682e-05
-0.000145604
-3.86293e-06
0.000149381
7.79009e-06
-0.000143666
0.000135244
-0.000146967
1.59601e-06
-0.000150937
5.23627e-05
0.000148433
-0.000122858
-7.70109e-06
0.000150724
-0.00014303
-1.03656e-05
-0.000142011
0.000152377
9.45172e-05
-0.000161348
6.68307e-05
0.000141641
-0.000147874
0.000151251
-0.000133846
-0.000197149
0.000116542
8.06067e-05
-0.000146271
-4.33625e-06
0.000150504
3.8739e-06
-0.00014941
-0.000174815
8.39747e-05
0.000123171
8.24617e-06
-0.000131343
0.000135253
-1.16233e-05
-7.44243e-06
2.68902e-06
-0.000157417
1.07352e-05
5.67975e-06
-0.000151462
0.000147534
-0.000151497
3.43265e-06
0.000142246
-0.000147891
5.45889e-05
-0.000162838
0.000144273
5.26709e-06
-0.000155098
0.000151369
3.72963e-06
0.000154691
-0.000159233
-0.000152528
-1.42801e-06
4.33238e-06
-0.0001508
-8.15368e-05
0.000125172
-4.35166e-05
2.62311e-06
-0.00014812
0.000145363
0.000120708
1.71865e-05
-0.000137895
0.000143908
-0.000144737
0.000107991
-0.00015022
4.21098e-05
0.00013519
-1.44817e-05
-7.79523e-06
-0.000141734
0.000143286
-0.000143799
0.00013892
-0.000149285
0.000146852
-3.89059e-05
-1.22819e-05
-0.000123421
0.000135595
-0.000146396
0.000146917
-8.73603e-05
0.000170521
-8.31603e-05
-0.000162934
0.000154056
8.87756e-06
-1.0785e-05
0.000148058
-0.0001465
-8.95275e-05
-8.97627e-05
0.00012398
-0.000136869
-1.30003e-05
0.000137947
0.00014829
-0.000100761
-9.37219e-05
0.00016778
-7.46797e-05
0.000146261
-0.000159905
4.99564e-06
0.0001632
-4.93442e-06
-0.000124361
4.29331e-05
-2.03856e-06
0.000136772
6.21602e-07
0.000153721
-0.000158391
7.40883e-06
0.000149302
-0.000156711
-0.000161184
0.000153717
7.31989e-06
-9.15556e-06
-0.000148504
-1.37257e-06
2.7551e-06
0.000138434
-0.000141188
-0.000152477
0.00012706
1.93732e-05
-0.000160537
0.000153689
6.77756e-06
-0.000176933
3.70811e-05
0.00014519
-0.000142436
-8.58741e-06
-2.92644e-05
0.00014574
6.41371e-07
1.62246e-06
-0.000147042
0.000145096
0.000153166
-6.55035e-05
-0.000146997
-1.96209e-06
-0.000142036
0.000141444
0.00013227
-2.89712e-06
0.000147442
7.43587e-06
-0.000142278
0.000135307
-0.000158956
0.000153492
5.40103e-06
-0.00014312
9.74404e-07
0.000142801
-7.16624e-06
0.000163582
-0.00010794
-0.00014312
-6.72003e-06
0.000149397
-0.000144296
0.000151602
-4.60838e-06
0.0001532
-2.78881e-06
0.000104745
-0.000144869
4.02154e-05
6.19709e-06
0.000136562
-0.000142545
-0.000146562
0.000147306
0.000159526
-0.000149717
0.00014496
-4.01188e-05
4.7474e-06
-0.000143637
0.00013899
-6.39054e-06
0.000143897
-0.000137084
9.14199e-06
0.000132983
-0.000141975
-0.000134013
0.00014352
0.000183625
-0.000145371
-3.82537e-05
1.06008e-05
-0.000145337
0.000134737
-0.000161502
0.000155871
-5.9552e-06
0.000145069
-0.000134468
6.57723e-05
0.000117852
0.000147425
1.99744e-06
4.65021e-06
-0.000143963
0.000139275
5.67898e-06
-0.000143909
0.000138078
1.22808e-05
0.000136131
-0.000148412
1.34401e-06
0.000145875
-0.000147839
-0.000156257
0.000143121
-0.000142071
0.000156124
-5.14453e-06
-4.65807e-06
0.000145255
-0.000145277
0.00014123
-0.000139301
0.000148915
-0.000154393
1.91521e-06
2.3527e-07
0.000151906
-3.52801e-07
-2.27733e-06
-0.000146643
0.000147365
-0.000146285
-1.26207e-06
0.000123254
-0.000135811
-0.000145976
0.000139155
0.000113439
4.00557e-05
-0.00014989
0.000148899
9.91204e-07
0.000155483
-0.000151771
-3.6373e-06
0.000152102
3.04584e-06
-3.94951e-05
0.00014821
-2.80561e-06
0.000153572
-0.000150605
-3.00911e-06
-0.000153985
0.000151371
2.18335e-06
0.000151342
2.49024e-06
1.33225e-05
0.000140566
-0.000153889
-0.00012842
0.000141742
1.54897e-05
-0.000143909
-0.000141809
0.000135728
-0.00015134
-2.7028e-06
-9.01427e-06
0.000116156
-0.000134081
1.79257e-05
-6.69066e-07
0.000149581
0.000144481
-0.000138461
0.000143308
0.000122758
-6.60243e-06
-0.000144418
-0.000102004
0.000130525
-2.8499e-05
0.000152816
-8.09182e-06
0.000145976
-0.000133695
0.000103009
-0.000143299
4.03172e-05
0.000143466
-4.04013e-05
0.000110296
-0.000126004
0.000160346
-9.1057e-06
3.49105e-06
-0.000136925
0.00014229
-4.02187e-06
-0.000152693
0.000143136
-0.000152049
5.4016e-06
-0.000142426
-0.000148471
-1.72201e-06
1.13232e-06
0.000147222
-0.000127469
0.000144475
6.40082e-06
0.000136635
-0.000143036
0.000142532
-6.69608e-07
-0.000149929
-0.000130555
-8.69801e-06
-3.39471e-06
-0.000143247
-0.000151004
1.14348e-06
9.24004e-07
0.000144632
-0.000145556
-0.000148094
-5.12906e-06
0.000156123
-0.000156123
5.1005e-06
-9.01828e-05
-0.000106966
-0.00014843
-1.41289e-06
-0.000163146
-8.36643e-07
-7.29272e-05
-9.78787e-05
6.93728e-06
-0.000151453
-0.000134096
-0.000166794
-2.27803e-06
0.000123241
-0.000141221
1.43728e-05
-0.000128232
-1.37927e-05
0.000142876
0.000129076
1.26798e-05
-0.000138453
-0.000149775
0.000149878
-0.000148414
0.000158661
-1.10566e-06
1.73931e-05
-0.000119388
-0.000140878
1.52912e-05
-0.000160844
6.90196e-06
-0.000161028
7.14715e-06
-0.000161061
7.23521e-06
-0.000160661
6.80196e-06
-7.82914e-06
-0.000154544
1.79761e-06
-0.000157989
7.50685e-05
-8.06477e-06
-0.00016117
7.40448e-06
-7.67106e-06
0.000148209
-8.20886e-06
0.000147375
-0.000156916
9.55555e-06
-0.000160418
6.53087e-06
-8.33928e-06
-0.000182331
0.000102128
8.02035e-05
-0.000161207
7.50234e-06
-7.43149e-06
-8.46455e-06
-0.000146497
0.000150579
-4.08242e-06
-0.00015988
6.11969e-06
0.000151769
-0.000163726
1.19541e-05
-0.000161869
8.28254e-06
-9.14893e-06
-5.80623e-06
-0.000148956
-4.03762e-06
0.000159091
-0.000150064
-9.01954e-06
-0.00015937
5.72397e-06
3.10657e-06
-5.96402e-06
-0.000148911
-3.93629e-06
-6.48857e-06
-0.000152998
-1.1088e-06
-0.000159182
5.42838e-06
3.12818e-06
-0.000164792
7.74315e-05
0.000137441
-0.000143876
9.9101e-05
-0.000141386
4.21794e-05
-6.24689e-06
3.15841e-06
0.000149605
-2.87281e-06
-0.000147101
-4.70402e-07
-0.000158533
5.01441e-06
0.00014934
-0.000143598
3.84721e-06
-0.000146967
4.20002e-06
-1.51201e-06
-5.8321e-06
-4.81139e-05
1.29845e-05
0.000130577
-0.000141677
-0.000157932
4.54527e-06
2.21761e-06
-0.000138169
-1.51735e-06
0.000139834
-4.31959e-06
-0.000157293
3.97628e-06
-3.74611e-06
0.000164358
-0.000157212
3.67936e-06
-4.48572e-06
-0.000156414
3.16948e-06
1.73041e-06
-0.000150428
1.24377e-05
-0.000136064
-3.95921e-06
7.15683e-06
-0.000144716
0.000137559
-0.00015568
2.52771e-06
0.00015664
4.68901e-07
-0.000137391
0.000144548
-0.000148748
-1.1424e-06
-2.32719e-06
-1.84155e-06
-0.000140715
0.000142536
-0.000128554
-1.20539e-05
0.000143447
-0.000155232
2.1616e-06
-2.87116e-06
-0.000154826
1.66385e-06
0.000125254
1.92358e-05
-2.49655e-06
-0.000128742
-1.376e-05
0.000138925
-0.000153931
1.2878e-06
0.000147958
0.000151378
-4.36505e-06
-2.92671e-05
-1.93571e-06
-1.69281e-06
-0.000150868
-0.000147848
0.000147829
3.56002e-07
-0.000153996
8.5966e-07
-0.000152849
0.000151666
1.45987e-06
-0.000150759
-2.10537e-06
1.99213e-05
-0.000132564
0.000112567
-1.6788e-06
-0.000152885
1.41596e-06
-1.11217e-06
-7.03812e-05
-9.66796e-05
0.000166869
-1.20292e-05
-0.000127228
0.000142625
0.000131463
-0.000140696
8.46847e-06
-0.000152864
3.36001e-07
0.000130549
-0.000139592
-6.55203e-06
0.000145808
-0.000139256
1.18126e-05
-0.000137016
-1.17929e-05
0.000142952
1.14459e-05
0.000129336
-0.000143473
-9.2014e-05
0.000178165
-0.000145455
-0.000144702
0.000146215
-5.89655e-06
5.44322e-06
0.000142935
4.52079e-06
0.000145245
-0.000149642
3.80791e-06
0.000146642
-0.000150378
0.000151887
-0.000165575