/*--------------------------------*- C++ -*----------------------------------*\
  =========                 |
  \\      /  F ield         | OpenFOAM: The Open Source CFD Toolbox
   \\    /   O peration     | Website:  https://openfoam.org
    \\  /    A nd           | Version:  12
     \\/     M anipulation  |
\*---------------------------------------------------------------------------*/
FoamFile
{
    format      ascii;
    class       volScalarField;
    location    "1.62";
    object      p;
}
// * * * * * * * * * * * * * * * * * * * * * * * * * * * * * * * * * * * * * //

dimensions      [1 -1 -2 0 0 0 0];

internalField   nonuniform List<scalar> 
22702
(
1
1
0.873866
1
1.05714
1
1.4712
1
1
0.642601
1.47357
1.4709
1
1.472
0.883932
1
1
1
1.47276
1
1.47351
1
1.47458
0.657911
1.46367
0.664895
1
1.47296
0.643631
0.670383
1
1.47063
1
1
1
1.44008
1.46323
1.47458
1
1
0.611655
1
1.22536
1
1.47286
1
1
1
1
0.656054
1
0.659397
1
1.47336
1
1.47155
1
1
1
1
0.652372
1
1
0.653003
1
0.652508
1
1
1
0.617801
1
1.46956
1.27635
1
1.46943
1.49212
0.647497
1.466
0.658499
1
1.47151
0.661592
1.4773
1.4757
1
1
1
1
0.927881
0.618756
1.47506
1
1
0.691822
1
1.47282
0.691022
1
1
1
1
1.23028
1.47112
0.663902
1
1
1.11039
1
0.659879
1
1.46599
1.47103
1
1
0.667623
0.674094
0.630438
1
1
1
1
1
0.907139
1
1.3935
1.04113
1.46747
1
1.46954
1.47154
1.47033
1.47209
1
0.60726
1
0.701033
1
1
1
1
1.47024
1
1
1
1
1.46975
1
1.02556
1
1
1
1
0.656898
1
1.01023
1
0.658565
1
1
1
1.47441
1
1.47049
0.650157
0.642002
1.46887
1.46964
1
1.07487
1.25833
1
1.47434
0.658741
1.43887
1
1
1
1
1.47441
1.36956
1
1.47107
0.670163
1.47313
1
0.659267
1
0.664121
0.655461
0.999771
1
1
1.47084
1
1
1.47031
1
1.47621
1.471
0.665415
1
1
0.658358
1.47112
1
1
1
1.4712
1
0.674429
1
1
1.47145
1.47165
1.47137
1
1.00004
1
1
1
1.46776
1
0.674634
1.48502
1.47063
1.46683
1
1
1
0.647856
1.47223
1.2339
1
1.47605
0.672368
0.677526
1.47701
1.47473
1
1.47992
0.642239
1.4091
1
1
1
1
1.47129
1
1.26806
1.04193
1
1
1.47065
0.691814
0.787377
1
1.47454
0.654035
1.47149
1
1
1
1
1
1
1
0.656694
0.77497
0.683845
1.47141
1
1
1
1
1.41749
1
0.657817
1
0.637118
0.657484
1.47219
0.656006
1.47362
1
1
1
0.997511
0.654894
0.633668
0.999999
1
0.637727
1
1.47058
0.656917
1
1
1.47217
0.634676
1
1.46765
0.656021
1.47055
1
0.646121
0.997733
1
1
1
0.650172
1
1
1
1.00001
1.01239
1.28677
1
0.700481
1
1
1
1
1
1
1
1.47231
1
1.46956
1
1
1
0.660533
1
1.4711
0.659158
1
1.39872
1
1
1.47106
1
1
1
1.46531
1
1
1.46763
1.47183
1
1.09694
1
1
0.703078
1
1
1
0.695806
1
1
1
1
0.696481
1
1
1
1
1
0.639833
1.00006
1.46954
1
0.99999
1.46937
1.46897
1
1
0.667847
0.823569
1.47157
1
1
1
1.47031
0.621768
1
1.46988
1
1
0.717218
0.715924
1
0.65312
0.661432
1
1
1
1
1
1
1
1.46646
1.11439
1.43745
0.645168
0.909729
1.46857
1
1.46869
1.47242
0.675679
0.796942
1
0.682913
1
1.4836
1
1
1
1
1.47093
1
1
1
1
1
1
1
1.16034
1.47518
1
1.4715
1
1
0.659662
1
1
1
1
1.47135
1.35478
1
1
0.647276
1.47123
1.47154
1
1.47155
1.47043
1.47156
1
0.831418
1
1.47144
0.991072
1.47158
1
0.689617
0.998813
1.47143
1
1
1
1
0.658768
1.47237
1.42991
1
1.46849
1.47043
1.47104
1
1.21559
1.47636
1
1
1.32505
1.06666
1.47135
0.939695
1.47142
1
1.47167
1.47179
1.47168
1.47187
1
1.4571
0.912499
0.888449
1
0.999999
1
1
1.46956
1
1
1
1
1
1.46963
1
1
0.996062
1.47152
1.42799
1
1.386
1.00004
1
1
1.47289
1
0.997249
1.00435
1
1.47183
1
1.47064
1
1
1.34379
1
1.47047
1.00002
1
1.47074
1
1.47135
1
1
1
1.47081
1
1.47037
1.00001
1.47105
1.46615
1.471
1.46954
1
1.4737
1.47909
1
0.672426
1.44044
1.34091
1
1.47057
1
0.700503
0.662347
1
1
1
1
1
0.676688
1
1.47143
1.12059
1.4726
1
1
1
1
1
1.4718
1
1.47773
1.27409
0.795958
1
1.00001
1.13454
1.11509
1
1
1.1708
1
0.658173
1.47154
1.4714
1
1
1
1.46415
1
1.00003
1.46545
1.47233
0.946601
1
1
0.65618
1.42569
1
1
1
1
1
1.47146
1.47103
1
1.47163
1.46882
1.47075
1
1
1
1
0.653107
1.47244
1
1
1.42931
1.46926
1
1.44463
1.47469
1
1
1
1
1
1.47162
1
1
1
1
1.47271
1
1.46608
0.674526
1
0.650015
1
1
1
0.996942
0.663347
0.999061
1
1
1
1.0647
1
1
0.871052
1
1
1
1
1
1
1
0.999997
0.931244
0.999999
1
0.997493
1
0.6585
1
1
1
1
1.34673
1
1
1
1
0.664076
1
1
1.44297
1.47282
1
1
1
0.890869
1
1
1
1
1
1
0.946807
1.01284
1.47248
1
1
1
1.47104
0.899923
1
1
1
1.47489
1.46714
1
1.00001
1
1
1
1
1
1
1
0.665317
1
1
1.47223
0.678916
1
1.4706
1
0.657913
1
1
0.665056
1
1
1
1
1
1
1
1.46094
1.46916
1
1
1
1
1.43181
1
1.14293
0.666926
1
1
1
1
1
1
1
1.04014
1
1
1.24837
1
1
1
1.38066
1
1
1
1
0.669014
1
1
0.648047
0.675473
1
1
1.47062
1
0.980128
1
1
1
1.32654
0.653222
1
0.648256
1
0.790234
1
1
1
1.46919
1
1
1.47144
1
1
1
1.4718
1
1
1.47223
1
1
0.678442
1
1.13932
1
1
1.46907
1.47068
1.31036
1.41669
1
0.68696
1
1
1.45049
1
0.649124
1
1
1
1.47211
1
1
1
1
1.27848
1
1.44349
1.47161
0.647377
1
1
0.67033
0.673279
1
1
1
1.33309
1.35226
1
1
1
1
1
1
1
1.19659
1.47314
1.01332
1
1.46181
0.620342
1
1
1
1.2495
1
1.0886
1
1.42869
1.46819
1
0.690793
1
1.47321
1
1
1.47204
1.4402
1
1.47639
1
0.675239
1
1
1
1.47855
1.46144
1.41212
1
1.47226
1.47029
1
1.47279
1
1.4686
1
0.655046
0.969634
0.653572
1
1
1
1
1
1.47182
1
1.47121
1
1
1
1.44918
1
0.657249
1.47076
1
0.663791
0.685177
0.661406
1
1.22652
1.03736
1.47247
1.47054
1
0.999999
1
1
1.47149
1
1
1.47147
1.47067
1
1.16449
0.9999
1
0.996786
1.47145
0.847944
1
0.822223
0.657304
0.659818
0.963504
1.47235
1.46531
1.08377
1.47193
1.47154
1
1
1.46562
1.47166
1.47277
1.47522
1
1.47039
0.644802
1.47312
1.47334
1.46951
1.47464
0.870117
0.898324
0.925881
1.47217
0.950489
1.47145
1
1
1.47241
1.4699
1
0.682918
1.47011
1.47196
1
1.47135
1.47114
1
1.47121
0.665738
1.4713
1.46745
1.47082
1.47836
1
1
1
1.47189
1.30355
0.692792
1.47201
0.648488
1.47192
1
1
1
1
1.4712
1.47241
1
1
1.47193
0.653595
1.47025
0.658052
1
1.4686
1
0.644924
1.47359
0.737135
1
1.47067
1.47466
1.46911
1
1
1.22807
1.47401
0.658748
1.47102
1
1.46938
0.87373
1.47056
0.664494
1
1.47059
0.698061
1.47223
0.659265
1
1.47207
1
1.47496
1
1.25812
1.45263
1.36494
0.649592
1
1.47207
1
1.47053
1
1.4718
1
1
1.47322
0.990288
1.47448
0.673734
1.43344
1
1.32815
1
1.47088
1.47172
1.46968
1
1.4184
1.4729
1.43324
1.27826
1.47003
1
1.31118
1
1.47206
1
1.05691
1
1.43581
1
1.47071
1.44971
1.44872
1
1.44801
0.65812
1
0.673201
1
1
1
1.46649
1
1.47217
1
1
1
1.4728
1.44028
1.37001
1.46976
1.47241
0.648762
1.47979
1.47754
1
1.39506
1.47166
1.43583
1
1.47431
1.47182
1
1.47569
1.47349
1.47163
1.47324
1
1
1
1.47299
0.686341
1
1.47257
1
1
0.660461
1
1
1.47055
1.47139
1
1.47155
1.46598
1.47017
0.971313
1.47143
1
1.47145
1.47123
1.3979
1
1
1
1.47059
1.47101
1.4724
0.944719
1
1.48343
1.47144
1.47073
1
1.47138
1.47041
1.47161
1.48125
1
1.47104
1.46834
1.41058
1.47045
1.47815
1
1.47433
1.46615
1.47244
1.47291
1.47265
0.652357
1.47237
1.46876
1
1.47102
1.47226
1.4717
1.4706
1
1.47244
1.4704
1
1.47209
1.39409
1
1
1
1.47011
1.48078
1
1
1.24919
1
1.46868
1
1
1.47193
1.47062
1.47192
1.47099
1
1
1
1.33576
1
1.47008
1
1
1.46671
1.46752
1
1.47218
0.64733
1.47097
1.46986
0.724045
1
0.645802
1.41194
1.47539
1.4724
1.47025
0.662614
1.47286
1.47331
0.661848
0.652911
1
1.47261
1.47189
1
1
1.47306
1
1.47452
1
1.40874
1
1.21377
1.47137
1.47461
1.33559
1.41752
1.47262
1.47343
1.45038
1
0.630468
1.4659
1.47143
1.47845
1.00001
1
1
1.47663
1
1.47168
1.47157
0.768796
1
1.4721
0.999945
1
1.00003
1.00005
1.47167
1.46874
0.998452
1
1
1.4719
1.47408
1.47195
1.47288
1.47143
0.671262
1.394
1
1.4675
1.47196
1.47209
1.47223
1
1.47156
1.46022
1.47343
1
1.47246
1.47212
0.855728
1.47147
1.47222
1
1.47266
0.836018
1.47035
0.850385
1.47147
1
1.47014
1.47924
1.47171
1.47198
1.47013
1.46814
1.47258
1.46898
1
0.92631
1.47141
1.47145
0.842839
1.47077
0.979168
1.28171
1.47179
1.4692
1.47081
1
1.47453
1.30515
1.46965
0.919373
1.47434
1.47249
1
0.873203
1
1.47754
1
1.31798
1
1.44096
0.871876
1
1.47383
1.46636
1
1.47122
1.47284
1.46541
1.47394
1.47824
1
1.47251
1
1
1
0.898205
1.47152
1.4712
1.476
1.47172
1.47941
1.47426
1.47712
1.47213
0.89725
1.03086
1
1
1.47811
1.47232
1.47146
1.47182
1.00003
1.24779
1
1.47636
1.40839
1
1
0.737699
1.47189
1
1
0.653646
1.47169
1
1.47786
1.47169
1.47334
1.4517
1.47021
1
0.650271
1.11264
1.47185
1.46998
1
1.46857
1.47081
1.23932
1.00819
1.09631
1
1.47568
1.47157
1
1
0.660789
1
1
1.47198
1.47254
1.47274
1.47271
1.47291
1.46979
1.4722
1.4645
1.47164
1
0.99573
1.47116
1.47317
0.996751
1.47226
1.47103
0.655714
0.63862
1.4661
1.47829
1
1
1.00124
1.47238
1.47341
1.47118
1
1.47153
1
0.851953
1.47898
1.48161
1
1.21645
1.4715
1
1.47161
1
1.47096
1.31997
1.47379
1
1.46977
1.46149
0.657779
1.47304
1
1.46983
1.47318
1
0.655523
1.47505
1.41575
0.997357
1.47208
1.47196
1
0.997524
1.47201
0.997682
1.4711
1
1
1.46938
1
1.46954
1.47154
0.99648
1.38206
1
1.47125
1
1
1
1
1.47146
1
1
1.4628
1
1.47172
1
1.29436
1.46961
1.47026
1
1
0.997844
1
1.47251
1.4722
1.47037
1.47099
1.47224
1.47243
1.47092
1
1.47106
1.46876
1
1.47164
1.47003
1
1.47329
0.927736
1.05861
1.47188
1.4714
1.47246
1
1.47064
1
1.47213
1.47166
1
1.46979
1
1
1
1
1.47156
0.655126
0.997878
1
1.4707
1.48187
1
1.47146
1
1.00494
0.6345
1.47162
0.999592
1
1.4739
0.998368
1.47191
1
0.999745
1
1.47388
1.47054
1.47129
1.47191
0.667215
1.47083
1.47479
1.47368
1.11762
1
1
1.19704
1.47155
0.647889
0.669234
1
1.46931
1.47146
1.47117
1
1
1.47482
1.47004
0.999883
1
1.3616
0.652264
1
1.07778
1.47233
1.4746
0.998206
1.47118
1.4847
1
0.998921
1
1.47414
1.47168
1.18773
1
1.43198
1
1.00303
1.47235
0.611611
1.47104
1.47172
0.996866
0.999909
1.41064
1
0.999684
1
1.47287
1
1.00001
0.644756
1.4704
1.00001
1
1
1
1.47987
1.25586
1
1
0.651274
1.4711
1.25842
1
1
1
1.44899
1.46189
1.47072
1
1
1.48013
1
1.47188
1.47121
1
1
1.47366
1.47145
1.45103
1
1
1.47376
1.47336
1
1
1
1.47368
1
1
1
1.47077
1.47663
1.47541
1
1.47844
1.00003
0.705554
1.47153
1.47139
1
1.47199
1.47023
1.46476
1
1
1.47613
1
1.25911
1.46878
1
0.659911
1
1.47291
1
1
1.46965
1
1
1
1.1392
1.46937
0.694648
1.00001
1.47024
1
1
1.47069
1
1.47606
1
1
1.47374
1.4721
1
1.00005
1
1
1
1
1
1
1.47741
1.47001
1
1.47756
0.654826
1.4802
1
1.47141
1.4688
1.4733
1.4728
1.47517
1
1
1.46698
1
1.274
1.47547
1.47149
1
1.47156
1.47087
1
1.42193
1
1.47159
1.30028
1.46663
0.997464
1.47646
1.42967
1.47068
1.47263
1.03662
1.47178
1.4741
1
1.47101
1
1.47223
1
1
1
1
0.996477
1.4709
1.47204
1.37903
1
1.47483
1
1
1
0.661012
1
1.46078
1
1.42495
1.46404
1
1
1
1.43505
1.46689
1
1
1.47255
0.668669
1.08318
1
1.47621
1.47148
1.42797
1.45727
1.47133
1
1.46947
1
1
1
1
1.46973
1.47146
1
1.45116
1.05754
1.46972
1.43741
1
1
1.43869
1
1
0.680266
1.33055
1
1
1.48487
1
1.47418
1.4309
1
1.43082
0.667349
1.47255
1.47121
1.47222
1
0.671686
1
1
1
1.47183
1.37864
1
1.47337
1.47118
1
1.4703
1
1
1
1
1.47135
0.999369
1
1.47374
1
1
1.47361
1.47016
1
1.47136
1.082
1.00002
1
1.4734
1
1.47225
1
1.01601
1.47145
1
1.47271
1
1
1.145
1.47455
1
1
1
1
1
0.996618
0.653529
0.651072
1.02113
1
1.01996
1
1.02323
1
1.47145
1
1.28192
1
1.47318
1
1
1
1.47233
1
1.37779
1.46966
1
1.24727
1.47023
1
1
1.46744
1.47246
1
1
1.04878
0.650579
1
1.4738
1
1
1
1
1.07724
1.4716
1
1
1
0.664268
1
1.47373
1.47128
1.48391
1
1
1
1
1.23498
1.47656
1
1
1
1.47223
1.4716
1.05205
1
1
1
1.47305
1.47406
1
0.656902
1.47118
1.46786
1.4722
1.47296
1.47582
1
1
1.47452
1.47526
1.47155
0.657273
1.0425
1.47109
1
1
1
1
1
1.47098
0.669233
1
1
1.47145
1.2084
1
1.47316
1
1
1
0.672545
1
1
1.11783
1.47149
1.47037
1
1.47818
1.47055
1
1.08312
1
1.47503
1
1.47125
0.671986
1
1
1
1
1.4703
1.00006
1
1
1
1.45297
1
1
1
1
1.47238
0.671508
1.36757
1.47431
1
1.47046
1
1
1
0.997075
1
1.46875
1
0.80231
1
1
1.00004
1.47327
0.642993
1
1.46918
1
1.46582
1.47417
0.643097
1
1
1.44439
1
1
0.672022
1
1.47402
1
1.4497
0.99931
1.47007
1
1
1
1
1.47357
1
1
1.47257
1
1
1
1
1
1
1
1
1.30313
1
1.14106
1.4706
1
1
1
0.663475
1
1
1
1
1.47088
1.47223
1.0562
1
1
1.47139
1
1
1.47503
1
1.00002
1
1
1
1.00001
1.46991
0.78029
1.46715
1.47308
0.996986
1
1
1
1.27635
1
1
1.47227
1.47107
1
1
1
1
0.6321
1
1
1
1.28933
1
1.47325
1.47561
1
1.47315
1
1
1
1.24693
1
1.47157
1
1.4738
1
1
0.996459
1.46894
1
1
1
1
1
1.4705
1.00002
1
0.675086
1.47663
0.672622
1
1.47124
1
0.996048
1
1.47324
1.46779
1
1.47868
0.878564
1.47425
1.47595
1.00003
1
1
0.652329
1
1
1
1.47084
1.26482
1.46719
1
1
1
1
0.996828
1.47458
1
0.672877
1
1
1
1
1
1
1
1.47517
1.47487
1.46968
1
1
0.996909
1
0.984075
1
1
1
0.628561
0.978073
1
0.651978
0.667742
1
1.47745
1.47151
1
1.47429
1.4721
0.66236
1.32151
1
1
1
0.6734
1.47151
1
0.66855
1
1.47333
1.07683
1
1
1
1
1.47362
1.46827
1
1
1.47715
1
1
1.47274
1.47066
1
1.42466
1.47273
1.47305
0.957971
1.46956
1.00838
0.666428
1.35801
1.47314
1
1
1
0.629648
1
0.653517
1.47067
0.959917
1.47302
0.946926
1
1.4703
1.21963
1
1
1.4699
1
1.18915
1.47341
1
1
1.46499
1.48274
0.652179
1.272
0.999897
1
1.28835
1
1.4789
0.935865
1.47923
1.48167
1
1
1
1
1.44304
1
1
1.47511
0.999645
1.47219
1.36337
1.47861
0.661901
1
1
1
1
1.47247
1.00004
1.47317
1
1.47164
1.47323
1.0568
1.467
1.14198
1.47223
1
1.31683
0.688561
1.48374
1.47173
1.36863
1.07881
1.46843
1.46806
1.47215
1.47136
1
0.906197
1.06664
1
1.47187
1.22734
1.47091
1.00003
1
1
0.696459
1.47338
1.47006
1.37959
1
1.17434
1
1.4652
1.47081
1
1.47296
1.47104
1
1
1
1.47449
1
1.182
1.46384
1.32444
1
1.46898
1
1
1
1
1
1
1
1
1
1
0.669622
1
1.45564
0.649431
1.27245
0.998562
1.46472
1
1.24709
1.00001
1.29628
1.40053
1
1.00186
1.47113
0.90957
1
1.47768
1.46373
0.932018
1
1.47148
1.47317
1.47319
1
1.47197
1.4724
1.47086
1
1.20813
1
1.00006
1.47165
1
1.47095
1.0677
1.47557
1
1
1.47548
1.46566
0.70224
1
1.47226
1.34955
1.4717
1
1
1.47195
1.47225
0.998238
1
1.4184
0.996995
1.47114
1.00007
1
1
1
1
1.21143
1
1.35305
1.46987
1.3482
1.47361
1
1.0038
1
1
1.47332
1
1.46934
1
1
1
1
0.999999
1
1.05585
1.24168
1
1
0.652325
1
1.46914
0.670584
1.46854
1
1.23112
0.999742
1.47218
1.30219
0.678515
1.25646
1.00003
1.47053
1.4726
1
1.27849
1.46902
1.47324
0.998395
1.47988
1.45213
0.654516
1
1
0.997211
1
1.4742
1
0.684916
1.47079
1
1
1.41381
1
1.47056
1
1.47071
1
0.692381
1
1
1.47067
1.47241
1.48483
1
1.47318
1.47138
1.47384
1
1
1.45613
0.999999
0.749265
1
1
1
1.47105
1
1.47095
1.29978
1.46852
1
1.46502
0.999371
1
1
1
1
1
1
0.719703
1
1
1.46926
1
1.47
1.48388
1
0.66962
0.656425
1
1.47363
1.07611
0.667947
0.640485
1
1.47313
1
1.46984
0.6606
1.00109
1
1
0.999513
1
1
1
0.999918
1.18502
1.4699
1
1
1.47195
1.2742
1
1.43088
1.47337
1.47032
1.18497
1.47599
1
1.46902
1
1.4685
1
1.46838
1.47236
0.997231
1.47077
1.4826
1
1
1
1
1
0.917642
1.46932
1.00004
1.00003
0.614976
0.999981
0.645459
0.646252
1
1.47202
1.47158
1.47112
1
1.4715
1
0.66316
1
1
1.47484
0.822975
1.47
1
1.4731
1
0.973618
1.47092
1
1
1
1.47156
1
1.47325
0.654249
1
1
1.26731
1
1
1.2532
1
1
1.47119
1
1
1
1
1
1.48223
1.47179
1
1.47144
1.47421
0.646532
1.21473
1.4777
1
1
1.4232
0.998878
1
1
1.47224
1.47709
1.3061
1
1.46942
0.671977
1.45563
0.999614
1
1.4698
1.00003
1.46734
1.38455
1.35508
1
1
1.47394
0.724886
0.636521
1
1.4717
1
1.47242
1
1.28392
1
1
1.47286
1.29594
0.669968
1
0.998375
1
1
1.02497
1.1824
1.47412
1
1.47182
1
1
1
1
1
1
1.06609
0.671244
1
1
1.03028
1
1
1
1
1
1.47206
1
1
1.47159
1.47245
1.33357
1
1
1
0.821518
1.47593
1.32407
1
1
1
1
1.47395
1
1
1
1.47603
1
1
1.33624
1.48061
1.03987
0.755471
1.46561
1.32902
1.47282
1
1.23263
1
1
1
0.640059
1.00213
0.61406
1
0.659387
0.644533
1
0.640445
1
1
1
1.1985
1
1.4692
1.47161
1.00078
1.224
1.41158
0.625822
0.754128
0.893165
1
1.47035
1.47623
1.46928
1.47248
1.40185
0.87051
1
1.40372
1
1.46316
1
1
0.996514
1.00933
1
1
1
1.47174
1
0.646843
1
1.47324
0.675531
1
1
1.47243
1
1.47222
0.999903
1
1
1.46942
1.41354
1
1.48468
1
1
1.01457
1
1.20235
1
1
0.641729
1
1
1.46594
0.999999
1.46641
1
1.00003
0.663416
1
1
0.641828
1.00089
1
1.47494
0.676499
1.47665
0.659673
1.47303
1
1
1
1
1
1
1
1
1
1
1
1.44956
1
1.47196
1.47302
0.669516
1
1
1
1
1
1
1.45898
1
1
0.660712
1
1
1.47584
1
1
1.1774
1.39272
0.669064
0.665609
0.706914
0.750759
1
0.996544
0.614613
1.00038
1.43603
0.996844
1
1
1.47506
1
1
1
0.762946
1.00001
1.1652
1
1
1.18099
1.47189
1
0.660792
1
1
1
0.99663
1
1.47062
1.47151
1
0.653389
1
1.24592
0.661392
1
0.89617
1
0.996348
0.63796
1
1
1
0.996152
0.628339
1
0.657338
0.998377
1.24121
1.42688
0.669272
0.665146
1
0.989968
1
0.998646
1
1.46952
1.47045
1
1.01697
1.47319
1.47074
1
1
1.47175
1
1
1.00005
1
1.46861
1
1
1.01744
1
0.99856
0.691067
1
1
1
1
1
1.47855
1.02774
1.00006
1
1
1
1
1
1.00003
1
0.662708
1.09553
0.998609
1.45957
1.46498
1
1.01241
1.47206
1.41062
1
1
0.633152
1.47081
1
1.47266
1
1.47065
1.32884
0.661253
1
0.661043
1.45137
0.999682
1
0.671478
0.638013
1
1
1.39744
1
0.999998
0.647135
1
1
1
1.1456
1
0.666253
1.47008
1
1
1
1
1.47123
1
1
1.46809
1.42118
1
1
1
1.4732
0.654029
1
1.47036
1.47152
1
1.37566
0.999999
1.00003
1
1
1.44252
1.01756
1
0.666904
1.26208
1
1
0.997229
1
1
1.487
1
1
1.00003
1
1.46988
1
1
1
1
1
1
1.00002
1.20462
1
1.46527
1
1
1.47304
1
1
1
1.46889
1.48244
1.04728
1
0.997664
1
1
1
1
1.47196
1
1
1.47206
0.660119
1
1
1
1
1
1
1.37992
1
1
1.47316
1.47204
1
1
1
1.47081
1.47401
1
0.999686
1.46878
1
1
1
1.00002
0.65812
1.03096
0.996419
0.996145
1
1
0.655703
1.4726
1
0.639839
1
1.46915
1.45124
0.669154
0.999395
1.47193
1.47045
1.47142
1
1
0.926593
1.45041
1.38745
0.635321
1
1
1
1.47073
1.47208
0.635055
0.99726
1
1.47223
0.671483
1
1.4633
0.661174
0.971988
1.00687
1
1.48109
1
1
1
1
1
1
1.00011
1.44126
1
1
1.47784
1
1
1
1.47134
1
0.664017
1
1
1
1.15615
1
1
1
1
1
0.791003
1
0.669452
1
1.46998
1.00007
0.872634
0.881644
1.00002
1.00432
1.24295
1
1
0.653293
1.47114
1.46999
1.47156
1
0.652351
0.643181
1
1.47365
1
1
1
1
1
1.00003
1
0.660047
1.29915
1
1
0.669853
0.979494
1.00001
1
1
1
0.637985
1
0.707449
1
1
1.46683
1
1
0.666949
1
1.47197
1
0.620608
1
0.661187
1
1.00829
1.472
1.48036
1
1
1.47111
1
1
1.0935
0.996909
1
0.998272
1
1.47368
1
0.642687
1.00002
1.47311
0.998995
1
1
0.799233
1
0.999062
0.658191
1.47439
1.16508
1
1.00001
0.908375
1
1
1
0.793057
1
1
1
1.47168
1
0.662518
0.999999
1
1
1
0.651408
1.47168
1.43881
0.659286
1
1.47418
1
1
1.46928
1.47167
1.3944
0.655918
0.997746
0.999276
1
1.47077
1
1
1
1
1.4732
1.00004
1
1
1.46605
1
1
1.47149
0.654217
1
1
1
0.660037
1
0.999999
0.999999
0.998648
1
1
1
1
1.38175
1
1.4738
1.47178
1.48393
1.47101
1.47238
1.47266
1
1.47324
1
1.47112
1.47053
1
0.998889
0.651219
1.40331
0.999916
1
1
1
1
0.994655
1
1.07413
1
1
1
0.836616
1.47145
1.47234
1.4742
1.40888
0.999881
1
1.02289
1.47159
0.99791
1.05777
0.997458
0.687354
1
1.00003
1
1
1
1
1
1.46916
0.667433
1.46946
1.47064
0.995317
0.663565
1
1
1
1.47285
0.677305
1.41383
0.655083
1.47103
1.47498
0.661917
1.47697
1.02289
1
1.47352
0.807442
1
0.998783
0.664761
1
0.693167
1
1.47276
1.46955
0.761094
1
1.47306
0.684053
1
0.658728
1
1.47169
1
1
1.46146
1
0.834025
1
0.999638
0.690269
1.47692
0.999484
1
0.647064
1
1
1
1
1.24333
1
1.46985
1
1
1.47801
1
1
1.46984
1
0.680104
1
0.663613
1.00001
1
1
1
1
1.45078
1.27389
1.47193
1
1.4674
1.43646
0.638168
0.65822
1
1
1.47141
1
0.682136
1
0.979911
1
1
1.47368
1
1.47851
0.656872
1.48472
1
0.654094
1
1
1.47536
1.4655
1
1.00004
1
1.48425
1
1
0.664729
0.999386
0.63343
1
1
1
1.47627
1.47432
1.4719
1
1
0.635052
1
1.48423
1
1
1
1.44958
1.46731
1.47126
0.671123
1.47423
1.47209
0.666223
1.47113
1.00004
0.667796
1.01378
1
1
1.47094
0.667425
1.29972
0.662724
1.47202
0.997518
0.656177
1.47232
1
1
1
1
1.46852
1.47136
0.658488
1
1.00002
0.661961
1.00004
1
0.655267
0.645004
1.33267
1.47441
0.998432
1.47164
1
1.46276
0.818678
0.66239
1.47198
1.48568
1
1.47354
1
1
1.47138
1
1.3554
1.47156
1
1
1
1
1.472
1.46867
1.46486
1
1
1.46322
1.466
1.47108
1
1.47218
1
1
1
1
1
0.657793
0.836942
0.655942
1
1
1.47346
1
1
1.47341
0.656097
1
1.471
1.46971
1.45194
0.640838
1
0.6637
1
1.00003
1.47192
1.22541
1.47173
1.42909
1
0.642163
1
1.47925
1.33567
0.645827
1
1
1
0.807129
1
1
1.47603
1
0.664812
1.47164
1
1
1
1
1
1.37977
1.10021
1
1.47206
1
1.47615
1
0.997192
1
1.47059
1.46947
1.46813
1.47435
0.999592
1.47124
1
1.47147
1.47331
1.39462
1
1
0.634045
1.47019
1
1
1.47813
1.473
1.46577
1
1.46939
1
1
1.00003
1.47113
1.47639
1.13242
1.10069
1.47095
1.47219
0.712057
1
1
1
1
1.00001
1.16583
1
1
1.40176
0.633078
0.999971
1
1.47173
0.999916
0.999825
1.06431
1.41922
1.47032
0.91128
1
0.655189
1
0.994752
1.47143
1.47566
1.46199
0.999094
1
1
0.647082
1
1
1.47154
1.0515
1
1
1
1
1
1
1
0.999938
1.47059
1.00002
1
1
1
1
1.31243
1
1.21393
1
1
1.47222
1.4765
0.656914
0.998804
1
1
1
0.656982
1.47224
1.47502
1
1
1
1
1
1
1
1
1.47157
1.46842
0.633371
1.05155
0.660538
1
0.645623
1
1.47134
1.1214
1
1
0.73291
1
1.4531
0.799538
0.99622
0.652301
1
1
1.46971
1.00004
0.996927
0.648479
1.47151
1.47964
1
1
1
1
1.43994
1
1
1.47208
0.999014
1.47299
1.00003
1
1
0.667011
1
1
1.47198
0.660606
0.770504
0.667733
1.47142
0.999316
1
1.48606
0.667445
0.663432
1.02041
1
1
1.47219
1.00004
1.21491
1
1
1.4717
0.66327
1
1
1.00013
1.47415
1.0001
1.45905
1
1.00003
1
1
0.727915
1
0.80347
1.00002
1
1.46894
0.666977
1
0.781084
0.798569
1
1
1.47115
1
1
1
1.4729
1.4732
1.00005
1.45274
1.47174
0.780496
1.47182
1.46104
1
1
1.46423
0.999999
1
1
1
1
1.47826
1.47086
1
1
1
1.47199
1.00022
1
0.669826
0.707081
1
1.00003
1.17325
1
1
0.900911
0.643044
1
1
1
1.47615
1.43037
1.47242
1
1
1
1
0.678636
1
1.47121
1
1.45295
0.655284
1.4789
1
1
1
0.639609
1
1.4733
1.00003
1
0.645544
1.16702
1
0.999678
1.47091
0.641367
0.655075
1
1.47121
0.648144
0.668194
1
0.663902
1
1
1
1
0.657299
1
1
1
1
1.47027
1
1.35651
0.668428
1
1
1
0.66332
1.47205
1
1
0.996725
1.45683
1
1.47415
1.47075
1
1
0.718166
0.669416
1
1
0.648739
1.13405
1.21526
1
1
1.47045
0.997376
1
0.997403
1.47139
1
1
1
1
1
1
1.4725
1
1.15565
1.14486
0.703143
1.41416
1
1.47276
1.47188
1
1
1
0.907641
0.686273
1
1.22362
0.999692
1.4156
1
1
1
0.999999
1
1.00708
1.2056
1.47385
1.46971
1
1.47307
1
0.664057
1
0.997429
0.999767
1
0.643195
1
0.659859
1.00002
1.47572
1.47127
0.64783
1.47807
0.6516
0.996224
1.36328
0.660874
1.34565
1
1
0.998408
1
1
1
1.00006
1
0.681751
1
1
1
1
0.999592
1.4721
0.817187
1
1
1
1.03908
1
1
1
1.27729
0.747519
1
1
1
1.04912
1.47019
1
0.671245
1
1.47951
0.900617
0.648946
1
0.651168
1
1
1.44562
0.998223
1.43382
1
1.00896
1
1
1.47237
1
1
1
1
1.09057
1
1.47039
1.46689
1.47071
0.674306
1.47285
0.997042
1.38689
1
1
0.640584
1
1
0.632896
1.47682
1
1
0.999956
1
1
1
0.645316
0.670754
1
1.47413
1
1.21668
1.47128
0.654541
1.39061
1
1
0.667091
1
1
1.47219
1.46986
1.1686
1
1
1.00275
1.47262
0.67903
0.632699
1.47332
1.47189
1.33191
1.18829
1
0.906259
1
1
1
1.44885
1.47342
1.47266
1
1
1.47331
0.658541
1.41857
0.640301
1
0.656124
1
0.648961
1.4715
0.647251
1
0.991101
0.690019
1
1
1
0.844738
1.42173
1.47144
1.47014
1.47114
1
1
1.4724
1
1
1.47069
1
0.646382
1
0.65726
1
1.47844
1
1
1.02859
1.35649
1
0.999279
0.660784
1.47245
1.00001
0.666668
1.0869
1
1
1.35713
1.47272
1.47183
1
1.46885
1.11659
1
1.02514
1.47225
1
1
1
1
1.47143
1
0.669388
1.47037
0.673705
0.660849
0.827937
1.46929
1.15816
1.46904
1
1.47406
0.997328
1.00003
1.47181
1.47123
1
1.46922
1
1.47231
1
1.47265
1
1.00004
0.99998
1.47147
0.643105
0.657656
0.997973
0.999999
1
1
0.658002
1
1.30709
1
0.643143
1
1.18206
1.47292
1.47627
1
1
1.00003
0.999394
1
1.47117
1.47217
1
1.19424
1.47209
0.854048
1.472
1.00022
0.64202
1.09485
0.651214
1
1
1.07723
1.47242
1
1
1.04686
0.998552
1
0.66818
1
0.790833
1
1.47355
1
1
0.671536
1.10662
1.05989
0.998494
1.47058
1.47165
0.778024
0.998052
0.647097
0.648782
0.647519
1
1
1
0.999052
0.743646
0.652863
1
1.47235
0.999745
1.47196
1.47062
1.47096
1.47048
1
0.653953
1.47026
0.660755
1
1.47013
1.47353
0.996726
0.810534
1.46874
1.33874
1
0.658766
1
1
1.47857
1
1.02629
1.47218
1
0.660833
0.652813
1
1
0.644366
0.645225
1.47192
1.00004
1
0.650799
0.641318
1.47609
1.45287
1.43951
1.47366
1.12229
0.986111
1.19481
1.47721
1.357
1
1.22745
1
0.652039
0.859808
1
0.635196
1.47055
1.0221
1.47184
1
1.47115
1.47179
1
1.4697
1.4728
0.65744
1.47301
1
1.47461
1
0.754528
0.64823
1.47186
1
1
1
0.643364
1.47087
1.48056
1
0.647673
1
1
0.659456
1.00004
0.649958
1.47248
1
0.827892
0.644048
1
1
1.26642
1
1
1
1.07755
0.647244
1
1.00001
1
1.47464
0.672627
1
1.47229
0.676314
0.661387
1
1
1.4748
1
1.46695
1.00001
1.47131
0.661953
1
1
0.672423
0.814182
0.655821
1
1
1
1
1.4726
0.640455
1
0.655984
1
1.47037
1
1
0.930527
1
1
0.829653
0.999684
1.00005
1
0.676252
0.657479
1
1
1
1
0.800302
1.47263
1.47127
1
0.659595
0.661447
0.908922
0.650459
1
0.830569
1
0.664288
0.98618
1
1
0.661128
1
1.47533
1.44882
0.644703
1
1
1
1.47535
1
1.04341
0.834756
1.14059
0.660595
1.18695
0.658391
1
1
0.732363
0.907834
1
1.04417
1
1
0.659142
1
0.935583
1.04098
0.664229
1
1.38463
0.758999
0.876867
1
1
1
0.669475
1
0.644443
0.655314
1
0.84918
0.650254
1.06378
0.761887
0.656569
1.47167
1
1.47123
1.24352
0.733156
1.47187
0.638136
0.999046
1.47192
0.999999
1
1.4704
1
0.719313
1
1.06213
1
1
1.47151
1
0.75493
0.816007
1.47146
0.933409
1
0.754211
1.47209
1.47392
0.908141
1
1.47137
1.11524
0.847201
1
1.01638
1
0.6619
1.19745
0.773177
0.750006
1
1
0.645082
1.47227
0.958016
0.660239
0.630149
0.861563
1
1.01452
1.46982
1.47245
1
1
0.999999
0.649126
1.2201
1
1.47726
1.41604
0.648422
1.00002
1.09725
0.877633
1.2748
1.40277
1
1.04138
1
1.00006
0.645234
0.843047
1
1
0.807558
0.651905
1.03848
1
1.00002
0.66968
1.20904
1
1.47033
1
1.03869
1.25241
1
1.46622
1
1
1.47361
1
0.661353
1.47156
0.7182
1.12252
1
0.650834
0.999913
1
1.00003
1
0.798065
1.02678
0.660237
1.35042
1.47088
0.635506
1
1
1
1
1
0.962981
0.646655
1.04439
0.660956
0.659132
1.07028
1
0.999801
1.11705
1
1
0.663275
0.990553
1
1
1.12874
1
1.47379
1
1.47111
1.09608
1.02313
0.642076
1
1
0.673513
1
1
1
1
1.46426
1.04423
0.99805
1
0.644127
1.05108
0.999999
1
1.30603
1
0.657974
1.47035
1
1.00001
1
1.47179
0.659554
0.871573
0.647393
1.35569
1.47665
1
1
1.47179
1
0.641502
1
1
1
1
1
0.76037
1
1.47197
1
1
1.16004
1.47341
0.657146
0.866633
1
1.47334
1
1
1
1
1
1.47175
1.47112
0.647538
1.47186
0.645195
1
1
1.47171
1
1.47194
1.00882
1.02996
1.06333
1.47046
1.06778
1.31983
0.645748
1
0.642019
0.987754
1
1.47209
1
1
0.656728
1.46966
1
1.4711
1
1
1
1
1
1.00001
0.629205
1.47226
0.848957
1.47133
1
0.651759
0.660375
0.729269
1.46352
1.47357
0.964107
1
0.780909
1
1.1817
1
1.47168
0.660009
0.672186
0.84755
1
1.47285
1
1.06921
0.685876
1
1.47293
1.4111
0.998884
1
1.47171
0.652139
1.46988
1.4724
1.47351
0.668851
1.08149
1
1
0.638254
1
0.807022
0.830688
1
1.00002
1.47118
1
1.47037
1.08211
1
1.03799
1.47876
1
0.648451
1
0.777106
1
1
1.39313
1
0.812718
1
0.660114
1.03804
0.952087
0.64169
1.47008
1.38219
1.46963
0.660532
0.700914
0.996088
0.999999
1
0.697864
1.44465
0.657765
0.999968
1
1.47114
1.47106
0.909411
1
0.652443
0.731378
1.30304
0.971931
0.644861
0.999999
0.671857
1.11354
0.656211
1
1.00006
0.810151
1.473
1.46973
0.840998
0.999606
1
1
0.732714
1
0.653399
1
0.651383
0.649898
1
1
1.00004
0.658953
1.47183
1
1
1.00006
1.00004
0.673552
1.47185
1.47161
1
0.660443
1.46872
1
1.09674
1
1
1.47303
0.652683
1
1
0.680699
0.753088
0.657007
0.661087
1
0.712079
0.997141
1.08755
0.657644
1
1
1.1276
1
1.41671
1
1
1.31181
0.693442
1
0.66961
1.13018
1.46997
1
1
0.654511
0.662502
0.641647
0.737093
0.672206
1.36138
0.99939
1
1
1
1
1.47089
0.674763
1
0.927024
0.999694
0.998123
0.999943
0.763656
1.13337
1
1.47136
1.47259
1
1
1.44906
1.00004
0.999999
1.47097
0.644004
1.4688
0.999999
0.650827
1.47187
1.00005
1
0.831593
1
0.643368
1
1.47187
1
1
1.47615
1
1
1.47259
1
1
1
1.46633
1
0.759907
0.734802
1
0.638041
1.47297
1
1
0.970421
1
1.47278
1.2683
1.38078
1
1
0.684936
1
0.664701
1.47727
1.47468
1.47094
1
1.47172
0.644704
1
0.667862
1.37675
1.42394
1.47451
1.47261
0.770151
0.650601
1
1.32098
1.47187
1.47086
1.47112
0.742827
1.17137
1
1.35453
0.767234
1
1.00002
1
1.00002
0.884398
1
1.47595
1
1
1
1
1
1
1.00006
1.47126
1
1.47561
1.34927
0.659332
1.47182
1.03183
1.2269
1
1.47024
1
0.660884
1
1
1
1
1.3995
1
0.638277
1.47272
0.631727
1.47157
1.37508
1.24225
1
1.08623
1.21398
0.995888
0.683346
0.757799
1.00002
0.999999
0.911851
1
0.661913
1.47246
0.654291
0.929182
0.851079
1
1
1
1.01544
1
1
0.690668
0.996351
1.46712
1
1.47041
1
0.656997
1
1
1.47201
1.47323
0.644685
1
1.47084
1
0.80907
0.659854
1.46869
1.42182
1
1.07645
1.47173
0.998648
1
1.18758
1.41211
1.4692
0.996157
1
0.999998
1.39763
1
1
1
1.47152
0.998499
1
1
1.47222
1
1
0.658311
1
1
1
1.46845
1
1
0.837544
1.13687
1.42894
0.758102
1
1.47139
1
1.15947
1
1.47235
0.997232
1.47118
1
0.652715
1
1.30803
1
1
1.43839
1.00001
1.47116
1
1.47581
0.695632
0.663629
1.47228
1
1.41054
1
1.46982
1
1
1.00005
1.47036
1.46885
1.11455
1.47242
0.995777
0.666776
1.47191
0.863387
1
1.46058
1
1.47215
1
1.4741
1.47054
0.996171
0.652755
1
1.47149
1
1.03391
1
1
0.997945
0.747818
1.41885
1
1.43422
1
0.858643
0.643702
1.47314
1.4725
0.696207
1
1.47231
1.47365
1.47265
0.699844
1.47141
0.695051
1.47057
1.47379
1
1
1.47191
1
1
1
1
0.665639
1
1
1.47023
1.47157
1
1.46997
1
1.47357
1.46859
1
1.39123
1
0.644743
1.46959
1.34752
1.12803
0.633344
1.47113
1
1
0.650048
1
1
1.47137
1
1
0.780278
1
1.472
1.00008
1.47656
0.638025
1.4698
1
1.47229
1.45248
0.887712
1
1.47635
0.756674
1.46952
1.32753
1.47187
1.47383
0.997411
1.47155
1.47299
1.47088
1.47208
1.0012
1
0.64998
1
1.4664
0.831944
1.43039
1
1.46269
1
1
1
1
1
1.46889
0.638711
0.657227
1.47359
1.47143
1
1
1
1
1
1.46764
1.43502
1.47165
1.01959
1
1
1
1.00003
1.47011
1.47136
1
1.47274
1.47303
0.667777
1.33386
1
1.47022
1.47639
1.46055
0.997809
1.47229
1.47183
1
1.44216
1
1
1
1
1
1
1.47205
1.47106
1.43694
1.47153
0.640613
0.70233
1.47183
1.47132
1
0.65305
0.949585
1
1.22406
0.655057
1
0.999456
0.998244
0.658882
1
1.47125
1
1
1
1.47144
0.938749
1
1.47214
1.47125
1
1.47212
1
1
1.47118
1
0.65891
1
1.47614
1
1
0.65311
1
1.46842
1
0.645488
0.645297
1
1.45569
1
0.637016
0.887606
1
1.47188
1
1
1
1.47632
1
0.631604
1.06566
1.47499
1.47495
1.4718
1.05087
1.47381
1.4718
1
1.00002
1
1
1.00001
1.47196
1
0.999284
1.48008
1
0.65013
1
1.4723
1.21094
1.05524
1.21403
1.06182
1.47873
0.71732
1.47167
1
0.660355
0.997079
1.47164
0.932441
1.47149
1.47091
1.45469
1
1.47659
1.472
1.47122
1
1.00004
1
1
1.47213
1.33213
1
1
0.671603
0.996528
1
1.47249
1
1.47168
1.47123
1.475
0.902705
1.47198
1.47272
1.00932
1.236
1.47584
1.47096
1
1.43554
0.818005
1.44286
0.986725
1.47219
1
1.47163
1.4719
1
0.642487
0.933629
0.689724
1
1.08245
0.996562
1.46666
1
1
0.996369
1
1.22518
1.4506
1
1
1.47195
1
1
1.33682
1.4764
1.45229
1.47253
1.4717
1
1.47303
0.722417
1.47203
1
0.990397
0.652267
1
1
0.751448
1
1.14271
1
1.47453
1
1.46235
1.29159
0.653029
1
1
1
1
1
1.47126
1.01182
1
1.47735
1
1.47098
1.47011
0.999999
1
0.968119
0.999842