/*--------------------------------*- C++ -*----------------------------------*\
  =========                 |
  \\      /  F ield         | OpenFOAM: The Open Source CFD Toolbox
   \\    /   O peration     | Website:  https://openfoam.org
    \\  /    A nd           | Version:  12
     \\/     M anipulation  |
\*---------------------------------------------------------------------------*/
FoamFile
{
    format      ascii;
    class       volScalarField;
    location    "5.05";
    object      rho;
}
// * * * * * * * * * * * * * * * * * * * * * * * * * * * * * * * * * * * * * //

dimensions      [1 -3 0 0 0 0 0];

internalField   nonuniform List<scalar> 
22702
(
1.40001
1.40001
1.2528
1.40001
1.44712
1.40001
1.83888
1.40001
1.40001
1.0737
1.83918
1.83692
1.40001
1.8462
1.27245
1.40001
1.40001
1.40001
1.83906
1.40001
1.8424
1.40001
1.84289
1.01289
1.83245
0.992471
1.40001
1.84159
1.05336
1.02496
1.40001
1.83537
1.40001
1.40001
1.40001
1.81011
1.83384
1.84264
1.40001
1.40001
1.06617
1.40001
1.61949
1.40001
1.84013
1.40001
1.40001
1.40001
1.40001
1.02004
1.40001
1.0185
1.40001
1.83892
1.40001
1.83523
1.40001
1.40001
1.40001
1.40001
0.972028
1.40001
1.40001
1.04994
1.40001
1.01084
1.40001
1.40001
1.40001
1.05843
1.40001
1.84068
1.67123
1.40001
1.8406
1.86044
1.00607
1.83346
1.02178
1.40001
1.83485
1.02597
1.84619
1.84671
1.40001
1.40001
1.40001
1.40001
1.3119
1.0727
1.83857
1.40001
1.40001
1.06639
1.40001
1.84267
1.07222
1.40001
1.40001
1.40001
1.40001
1.62042
1.83617
1.03564
1.40001
1.40001
1.50939
1.40001
1.02895
1.40001
1.83186
1.8404
1.40001
1.40001
0.992577
0.990884
1.07447
1.40001
1.40001
1.40001
1.40001
1.40001
1.30042
1.40001
1.77845
1.44318
1.83717
1.40001
1.83657
1.83763
1.84477
1.8416
1.40001
1.02583
1.40001
1.02318
1.40001
1.40001
1.40001
1.40001
1.83752
1.40001
1.40001
1.40001
1.40001
1.84236
1.40001
1.42527
1.40001
1.40001
1.40001
1.40001
1.02524
1.40001
1.40993
1.40001
1.02034
1.40001
1.40001
1.40001
1.83788
1.40001
1.84139
0.995609
0.975523
1.83947
1.84068
1.40001
1.47391
1.65202
1.40001
1.8432
1.02289
1.81066
1.40001
1.40001
1.40001
1.40001
1.84119
1.76737
1.40001
1.83867
1.03532
1.8393
1.40001
1.04517
1.40001
1.02336
0.998966
1.39978
1.40001
1.40001
1.84002
1.40001
1.40001
1.84206
1.40001
1.84295
1.83884
1.03253
1.40001
1.40001
1.02592
1.84157
1.40001
1.40001
1.40001
1.84157
1.40001
1.06042
1.40001
1.40001
1.84181
1.84206
1.83694
1.40001
1.40005
1.40001
1.40001
1.40001
1.84216
1.40001
1.01438
1.85341
1.84208
1.83261
1.40001
1.40001
1.40001
1.01334
1.84384
1.6137
1.40001
1.84288
1.03282
1.04555
1.84327
1.84445
1.40001
1.83722
1.06736
1.79096
1.40001
1.40001
1.40001
1.40001
1.84194
1.40001
1.66288
1.44233
1.40001
1.40001
1.84238
1.05245
1.16117
1.40001
1.8415
1.06557
1.83933
1.40001
1.40001
1.40001
1.40001
1.40001
1.40001
1.40001
1.02689
1.15347
1.05019
1.84165
1.40001
1.40001
1.40001
1.40001
1.79226
1.40001
1.0258
1.40001
1.00501
1.02799
1.84212
1.00144
1.84212
1.40001
1.40001
1.40001
1.39761
1.04389
1.07012
1.4
1.40001
1.00316
1.40001
1.83725
1.05682
1.40001
1.40001
1.83629
1.03632
1.40001
1.84495
0.974807
1.84237
1.40001
1.01128
1.39769
1.40001
1.40001
1.40001
1.0182
1.40001
1.40001
1.4
1.40002
1.40889
1.67339
1.40001
1.03373
1.40001
1.40001
1.40001
1.40001
1.40001
1.40001
1.40001
1.84035
1.40001
1.84065
1.40001
1.40001
1.40001
1.04943
1.40001
1.84309
1.0204
1.40001
1.7688
1.40001
1.40001
1.83833
1.40001
1.40001
1.40001
1.82997
1.40001
1.40001
1.83255
1.83817
1.40001
1.49918
1.40001
1.40001
1.02664
1.40001
1.40001
1.40001
1.05689
1.40001
1.40001
1.40001
1.40001
1.00547
1.40001
1.40001
1.40001
1.40001
1.40001
1.0863
1.40008
1.84083
1.40001
1.39999
1.84022
1.83954
1.40001
1.40001
1.04241
1.21752
1.83716
1.40001
1.40001
1.40001
1.8421
1.05707
1.40001
1.84115
1.40001
1.40001
1.08081
1.0691
1.40001
1.03831
1.04868
1.40001
1.40001
1.40001
1.40001
1.40001
1.40001
1.40001
1.83791
1.50422
1.83258
1.08586
1.31241
1.83513
1.40001
1.84025
1.83948
1.02446
1.1811
1.40001
1.06882
1.40001
1.84841
1.40001
1.40001
1.40001
1.40001
1.84184
1.40001
1.40001
1.40001
1.40001
1.40001
1.40001
1.40001
1.56332
1.84032
1.40001
1.84181
1.40001
1.40001
1.02417
1.40001
1.40001
1.40001
1.40001
1.84164
1.73786
1.40001
1.40001
1.03444
1.84218
1.84179
1.40001
1.84193
1.84214
1.8419
1.40001
1.23934
1.40001
1.84024
1.39846
1.84198
1.40001
1.06079
1.39885
1.83709
1.40001
1.40001
1.40001
1.40001
1.03505
1.84356
1.80183
1.40001
1.83316
1.84117
1.8365
1.40001
1.61377
1.83953
1.40001
1.40001
1.70396
1.46057
1.84164
1.32259
1.84174
1.40001
1.84215
1.84244
1.84214
1.84188
1.40001
1.81733
1.31069
1.26357
1.40001
1.4
1.40001
1.40001
1.84694
1.40001
1.40001
1.40001
1.40001
1.40001
1.83731
1.40001
1.40001
1.39616
1.84176
1.78321
1.40001
1.77183
1.40005
1.40001
1.40001
1.84148
1.40001
1.39732
1.40417
1.40001
1.84216
1.40001
1.84129
1.40001
1.40001
1.73078
1.40001
1.84158
1.40003
1.40001
1.83849
1.40001
1.84167
1.40001
1.40001
1.40001
1.84207
1.40001
1.84486
1.40001
1.84186
1.83731
1.84175
1.84296
1.40001
1.83893
1.83607
1.40001
1.03632
1.81418
1.71959
1.40001
1.84211
1.40001
1.04167
0.972694
1.40001
1.40001
1.40001
1.40001
1.40001
1.0797
1.40001
1.84169
1.51145
1.84145
1.40001
1.40001
1.40001
1.40001
1.40001
1.84236
1.40001
1.84029
1.6656
1.18184
1.40001
1.40001
1.52978
1.51217
1.40001
1.40001
1.55844
1.40001
1.02259
1.84055
1.84074
1.40001
1.40001
1.40001
1.83906
1.40001
1.40003
1.83603
1.84426
1.35249
1.40001
1.40001
1.01901
1.80177
1.40001
1.40001
1.40001
1.40001
1.40001
1.84171
1.83767
1.40001
1.8391
1.84657
1.84194
1.40001
1.40001
1.40001
1.40001
1.03963
1.83936
1.40001
1.40001
1.80334
1.84096
1.40001
1.81715
1.838
1.40001
1.40001
1.40001
1.40001
1.40001
1.84176
1.40001
1.40001
1.40001
1.40001
1.84845
1.40001
1.82773
1.05161
1.40001
1.01285
1.40001
1.40001
1.40001
1.39707
1.03374
1.39901
1.40001
1.40001
1.40001
1.4602
1.40001
1.40001
1.27162
1.40001
1.40001
1.40001
1.40001
1.40001
1.40001
1.40001
1.4
1.3319
1.4
1.40001
1.3976
1.40001
1.03517
1.40001
1.40001
1.40001
1.40001
1.73119
1.40001
1.40001
1.40001
1.40001
1.05206
1.40001
1.40001
1.81657
1.83987
1.4
1.40001
1.40001
1.26444
1.40001
1.40001
1.40001
1.40001
1.40001
1.40001
1.35399
1.41305
1.84239
1.40001
1.40001
1.40001
1.84508
1.28325
1.40001
1.40001
1.40001
1.84265
1.83766
1.40001
1.40001
1.40001
1.40001
1.40001
1.40001
1.40001
1.40001
1.40001
1.04883
1.40001
1.40001
1.83821
1.06457
1.40001
1.83882
1.40001
1.02881
1.40001
1.40001
1.04501
1.40001
1.40001
1.40001
1.40001
1.40001
1.40001
1.40001
1.83311
1.84081
1.40001
1.40001
1.40001
1.40001
1.80398
1.40001
1.53419
1.03987
1.40001
1.40001
1.40001
1.40001
1.40001
1.40001
1.40001
1.43395
1.40001
1.40001
1.62678
1.40001
1.40001
1.40001
1.76635
1.40001
1.40001
1.40001
1.40001
1.05067
1.40001
1.40001
1.04332
1.05629
1.40001
1.40001
1.84032
1.40001
1.36623
1.40001
1.40001
1.40001
1.70794
1.01266
1.40001
1.00378
1.40001
1.15357
1.40001
1.40001
1.40001
1.84161
1.40001
1.40001
1.84111
1.40001
1.40001
1.40001
1.84125
1.40001
1.40001
1.84151
1.40001
1.40001
1.02976
1.40001
1.52843
1.40001
1.40001
1.83664
1.8361
1.69349
1.79492
1.40001
1.0583
1.40001
1.40001
1.82218
1.40001
1.04626
1.40001
1.40001
1.40001
1.84221
1.40001
1.40001
1.40001
1.40001
1.66627
1.40001
1.83014
1.83784
1.07234
1.40001
1.40001
1.0006
0.990096
1.40001
1.40001
1.40001
1.71021
1.73745
1.40001
1.40001
1.40001
1.40001
1.40001
1.40001
1.40001
1.59055
1.84582
1.40979
1.40001
1.83624
1.00783
1.40001
1.40001
1.40001
1.64285
1.40001
1.48822
1.40001
1.80305
1.84011
1.40001
1.0597
1.40001
1.83802
1.40001
1.40001
1.84219
1.81646
1.40001
1.84349
1.40001
1.04474
1.40001
1.40001
1.40001
1.84776
1.83259
1.78842
1.40001
1.84107
1.84221
1.40001
1.84297
1.40001
1.84017
1.40001
1.05693
1.36278
1.0491
1.40001
1.40001
1.40001
1.40001
1.40001
1.84225
1.40001
1.84253
1.40001
1.40001
1.40001
1.82079
1.40001
0.998897
1.84105
1.40001
1.05681
1.03188
1.01912
1.40001
1.61262
1.42524
1.84304
1.84178
1.40001
1.4
1.40001
1.40001
1.84162
1.40001
1.40001
1.84165
1.84244
1.40001
1.54889
1.40007
1.40001
1.39679
1.83578
1.25233
1.40001
1.23097
1.02433
1.02253
1.33263
1.84269
1.83581
1.48986
1.84268
1.84161
1.40001
1.40001
1.83554
1.83902
1.84098
1.84099
1.40001
1.84214
1.00686
1.84491
1.83946
1.84073
1.84601
1.2559
1.29871
1.33318
1.84065
1.35261
1.84137
1.40001
1.40001
1.84357
1.84186
1.40001
1.07047
1.83969
1.84149
1.40001
1.84112
1.84091
1.40001
1.8418
1.05677
1.84673
1.83969
1.84153
1.84581
1.40001
1.40001
1.40001
1.84097
1.68695
1.07072
1.84163
1.04966
1.8403
1.40001
1.40001
1.40001
1.40001
1.84052
1.84229
1.40001
1.40001
1.84232
1.05071
1.84264
1.03135
1.40001
1.83833
1.40001
1.06562
1.8433
1.11419
1.40001
1.84124
1.84417
1.8418
1.40001
1.40001
1.61604
1.84345
1.03259
1.84178
1.40001
1.8404
1.27482
1.84035
1.04103
1.40001
1.84013
1.04774
1.84362
1.03371
1.40001
1.84214
1.40001
1.84127
1.40001
1.65507
1.82525
1.7486
1.02505
1.40001
1.84183
1.40001
1.84149
1.40001
1.84183
1.40001
1.40001
1.84018
1.38171
1.84431
1.06112
1.79275
1.40001
1.71236
1.40001
1.84034
1.84169
1.83956
1.40001
1.79787
1.84133
1.80934
1.67278
1.83734
1.40001
1.69192
1.40001
1.84043
1.40001
1.46119
1.40001
1.80896
1.40001
1.84024
1.82115
1.82099
1.40001
1.83081
0.977263
1.40001
1.04658
1.40001
1.40001
1.40001
1.83068
1.40001
1.84243
1.40001
1.40001
1.40001
1.84329
1.8299
1.77268
1.84199
1.84651
1.01321
1.84034
1.84448
1.40001
1.77154
1.84151
1.82538
1.40001
1.8427
1.83499
1.40001
1.84698
1.8421
1.84062
1.84321
1.40001
1.40001
1.40001
1.84196
1.0252
1.40001
1.84218
1.40001
1.40001
0.964752
1.40001
1.40001
1.84158
1.84149
1.40001
1.84161
1.84983
1.84197
1.36444
1.84212
1.40001
1.84196
1.84219
1.75503
1.40001
1.40001
1.40001
1.84289
1.84171
1.84167
1.33183
1.40001
1.84877
1.84203
1.84112
1.40001
1.84203
1.84078
1.84126
1.84857
1.40001
1.84229
1.84018
1.78288
1.84012
1.84665
1.40001
1.84803
1.83685
1.84175
1.84217
1.83991
0.99964
1.84259
1.84234
1.40001
1.84055
1.84177
1.84226
1.84087
1.40001
1.84291
1.84115
1.40001
1.84193
1.77001
1.40001
1.40001
1.40001
1.84224
1.84073
1.40001
1.40001
1.63732
1.40001
1.84221
1.40001
1.40001
1.84111
1.84254
1.8416
1.84202
1.40001
1.40001
1.40001
1.7129
1.40001
1.84089
1.40001
1.40001
1.83462
1.84015
1.40001
1.84197
1.0241
1.84179
1.84565
1.12251
1.40001
1.02226
1.78382
1.84581
1.83976
1.84017
1.04038
1.84117
1.8444
1.03127
1.04309
1.40001
1.8409
1.84099
1.40001
1.40001
1.8419
1.40001
1.83683
1.40001
1.78727
1.40001
1.5989
1.84056
1.84413
1.71133
1.80152
1.83707
1.84376
1.82216
1.40001
0.994825
1.83974
1.84151
1.84742
1.40002
1.40001
1.40001
1.84015
1.40001
1.84108
1.84081
1.12166
1.40001
1.84233
1.39994
1.40001
1.40003
1.40005
1.84165
1.84138
1.39851
1.40001
1.40001
1.84168
1.84342
1.84216
1.84648
1.8407
1.05312
1.78349
1.40001
1.83818
1.84151
1.84131
1.84368
1.40001
1.8417
1.83015
1.84263
1.40001
1.84134
1.84134
1.25346
1.84165
1.84179
1.40001
1.8413
1.23824
1.84197
1.23861
1.84195
1.40001
1.8419
1.84085
1.84175
1.84184
1.84144
1.83854
1.84218
1.83995
1.40001
1.32415
1.84192
1.84131
1.24007
1.84117
1.38612
1.66704
1.84178
1.84002
1.84396
1.40001
1.8442
1.69664
1.83971
1.31574
1.8436
1.8481
1.40001
1.26906
1.40001
1.84565
1.40001
1.70466
1.40001
1.82223
1.2714
1.40001
1.845
1.83484
1.40001
1.83917
1.84336
1.83926
1.83068
1.83125
1.40001
1.83899
1.40001
1.40001
1.40001
1.29342
1.84146
1.8437
1.84833
1.84186
1.84256
1.84932
1.84643
1.84234
1.2952
1.43132
1.40001
1.40001
1.84172
1.84222
1.84204
1.8416
1.40003
1.62867
1.40001
1.84702
1.78925
1.40001
1.40001
1.13271
1.84206
1.40001
1.40001
1.02492
1.84173
1.40001
1.84658
1.84261
1.83699
1.82597
1.84172
1.40001
1.02816
1.50568
1.84027
1.84201
1.40001
1.84075
1.84156
1.61413
1.40924
1.49995
1.40001
1.84179
1.84115
1.40001
1.40001
1.04084
1.40001
1.40001
1.84182
1.84219
1.84405
1.84242
1.8425
1.83875
1.84285
1.84422
1.84228
1.40001
1.3964
1.84196
1.84154
1.39692
1.84191
1.84208
1.02973
1.07586
1.84118
1.85023
1.40001
1.40001
1.40097
1.84098
1.84277
1.84179
1.40001
1.84155
1.40001
1.24377
1.8479
1.8437
1.40001
1.60177
1.84149
1.40001
1.83846
1.40001
1.8424
1.69035
1.84125
1.40001
1.841
1.84849
1.03502
1.84143
1.40001
1.84249
1.84616
1.40001
1.03128
1.83712
1.76966
1.39766
1.83219
1.8419
1.40001
1.39882
1.83987
1.39828
1.84261
1.40001
1.40001
1.84133
1.40001
1.8415
1.84144
1.39656
1.75146
1.40001
1.84138
1.40001
1.40001
1.40001
1.40001
1.84163
1.40001
1.40001
1.83382
1.40001
1.84057
1.40001
1.68169
1.84168
1.8439
1.40001
1.40001
1.39901
1.40001
1.84254
1.84144
1.84106
1.84048
1.84093
1.84165
1.84081
1.40001
1.8414
1.84376
1.40001
1.84121
1.8422
1.40001
1.84275
1.326
1.45772
1.84145
1.84053
1.84056
1.40001
1.84054
1.40001
1.84171
1.84124
1.40001
1.84133
1.40001
1.40001
1.40001
1.40001
1.84302
1.02659
1.39793
1.40001
1.84109
1.84415
1.40001
1.84196
1.40001
1.40541
1.01306
1.84143
1.39959
1.40001
1.8431
1.39832
1.84064
1.40001
1.3998
1.40001
1.84076
1.84532
1.84382
1.84087
1.03947
1.83956
1.84084
1.84112
1.51161
1.40001
1.40001
1.5931
1.84259
1.02211
1.03794
1.40001
1.84215
1.84247
1.843
1.40001
1.40001
1.84307
1.84171
1.39988
1.40001
1.72685
1.03364
1.40001
1.48099
1.83816
1.83372
1.39827
1.84194
1.84986
1.40001
1.39935
1.40001
1.84496
1.83665
1.58434
1.40001
1.80811
1.40001
1.40185
1.84397
1.05792
1.8408
1.84164
1.39698
1.39991
1.79052
1.40001
1.3997
1.40001
1.84374
1.40001
1.40002
1.01998
1.84146
1.40001
1.40001
1.40001
1.40001
1.84543
1.65261
1.40001
1.40001
1.05102
1.84185
1.65393
1.40001
1.40001
1.40001
1.82124
1.82574
1.84235
1.40001
1.40001
1.84537
1.40001
1.84155
1.84173
1.40001
1.40001
1.84343
1.8419
1.82069
1.40001
1.40001
1.84357
1.84247
1.40001
1.40001
1.40001
1.84315
1.40001
1.40001
1.40001
1.84156
1.84046
1.8432
1.40001
1.84548
1.40004
1.08622
1.84076
1.84097
1.40001
1.83927
1.81796
1.83033
1.40001
1.40001
1.84535
1.40001
1.63619
1.841
1.40001
1.03589
1.40001
1.84327
1.40001
1.40001
1.83788
1.40001
1.40001
1.40001
1.53838
1.84172
1.07328
1.40002
1.84309
1.40001
1.40001
1.84288
1.40001
1.84579
1.40001
1.40001
1.84262
1.84163
1.40001
1.40006
1.40001
1.40001
1.40001
1.40001
1.40001
1.40001
1.84632
1.84104
1.40001
1.84676
1.02881
1.848
1.40001
1.84076
1.84797
1.84112
1.84985
1.83846
1.40001
1.40001
1.83793
1.40001
1.66274
1.84597
1.84212
1.40001
1.84261
1.84386
1.40001
1.78822
1.40001
1.84105
1.68338
1.83918
1.39773
1.82685
1.80154
1.84218
1.84263
1.43973
1.84142
1.84333
1.40001
1.8422
1.40001
1.84151
1.40001
1.40001
1.40001
1.40001
1.3958
1.8419
1.84111
1.76253
1.40001
1.84546
1.40001
1.40001
1.40001
1.02469
1.40001
1.83001
1.40001
1.80177
1.82711
1.40001
1.40001
1.40001
1.80551
1.83493
1.40001
1.40001
1.84065
1.04891
1.47763
1.40001
1.84617
1.84155
1.80253
1.82857
1.84144
1.40001
1.83989
1.40001
1.40001
1.40001
1.40001
1.84145
1.84354
1.40001
1.83583
1.44608
1.84183
1.81187
1.40001
1.40001
1.81316
1.40001
1.40001
1.04732
1.72393
1.40001
1.40001
1.84443
1.40001
1.84414
1.80255
1.40001
1.80257
1.04668
1.84142
1.84244
1.8418
1.40001
1.04086
1.40001
1.40001
1.40001
1.8414
1.77576
1.40001
1.83667
1.84185
1.40001
1.84107
1.40001
1.40001
1.40001
1.40001
1.8419
1.39935
1.40001
1.84332
1.40001
1.40001
1.84069
1.84147
1.40001
1.84366
1.49084
1.40002
1.40001
1.84341
1.40001
1.8434
1.40001
1.41512
1.84171
1.40001
1.84199
1.40001
1.40001
1.52971
1.84428
1.40001
1.40001
1.40001
1.40001
1.40001
1.39644
1.00789
1.02825
1.41995
1.40001
1.42217
1.40001
1.42131
1.40001
1.84197
1.40001
1.66363
1.40001
1.84151
1.40001
1.40001
1.40001
1.84117
1.40001
1.76491
1.84127
1.40001
1.6294
1.84061
1.40001
1.40001
1.83161
1.84233
1.40001
1.40001
1.44022
1.02388
1.40001
1.8439
1.40001
1.40001
1.40001
1.40001
1.47627
1.84102
1.40001
1.40001
1.40001
1.05924
1.40001
1.84267
1.84174
1.84356
1.40001
1.40001
1.40001
1.40001
1.61382
1.84206
1.40001
1.40001
1.40001
1.8411
1.84154
1.44147
1.40001
1.40001
1.40001
1.84118
1.84158
1.40001
1.03489
1.84144
1.84276
1.84348
1.839
1.84304
1.40001
1.40001
1.84604
1.84442
1.84194
1.05278
1.44063
1.84219
1.40001
1.40001
1.40001
1.40001
1.40001
1.84202
1.04172
1.40001
1.40001
1.84175
1.60254
1.40001
1.84623
1.40001
1.40001
1.40001
1.05912
1.40001
1.40001
1.51165
1.84141
1.84281
1.40001
1.84557
1.84131
1.40001
1.47371
1.40001
1.83805
1.40001
1.84289
1.05066
1.40001
1.40001
1.40001
1.40001
1.84053
1.40007
1.40001
1.40001
1.40001
1.8284
1.40001
1.40001
1.40001
1.40001
1.84161
1.06042
1.74716
1.8458
1.40001
1.84321
1.40001
1.40001
1.40001
1.39714
1.40001
1.84357
1.40001
1.19637
1.40001
1.40001
1.40004
1.84341
1.03837
1.40001
1.84188
1.40001
1.84351
1.8408
1.05431
1.40001
1.40001
1.82297
1.40001
1.40001
1.04341
1.40001
1.84523
1.40001
1.82214
1.39934
1.8413
1.40001
1.40001
1.40001
1.40001
1.8443
1.40001
1.40001
1.84139
1.40001
1.40001
1.40001
1.40001
1.40001
1.40001
1.40001
1.40001
1.69309
1.40001
1.54785
1.84149
1.40001
1.40001
1.40001
1.0394
1.40001
1.40001
1.40001
1.40001
1.84667
1.84165
1.44525
1.40001
1.40001
1.84281
1.40001
1.40001
1.84437
1.40001
1.40002
1.40001
1.40001
1.40001
1.40002
1.8427
1.16211
1.84147
1.84328
1.3971
1.40001
1.40001
1.40001
1.65995
1.40001
1.40001
1.84388
1.84245
1.40001
1.40001
1.40001
1.40001
1.0328
1.40001
1.40001
1.40001
1.67811
1.40001
1.84074
1.84343
1.40001
1.84337
1.40001
1.40001
1.40001
1.64225
1.40001
1.84133
1.40001
1.84142
1.40001
1.40001
1.39614
1.84159
1.40001
1.40001
1.40001
1.40001
1.40001
1.84203
1.40003
1.40001
1.04628
1.83886
1.03227
1.40001
1.83906
1.40001
1.39551
1.40001
1.84185
1.84707
1.40001
1.84232
1.27286
1.84181
1.84376
1.40004
1.40001
1.40001
1.02428
1.40001
1.40001
1.40001
1.84199
1.65671
1.84317
1.40001
1.40001
1.40001
1.40001
1.39685
1.84089
1.40001
1.04906
1.40001
1.40001
1.40001
1.40001
1.40001
1.40001
1.40001
1.84629
1.83885
1.84618
1.40001
1.40001
1.397
1.40001
1.37166
1.40001
1.40001
1.40001
1.0162
1.3698
1.40001
1.04373
1.0414
1.40001
1.84174
1.8421
1.40001
1.83747
1.84181
1.03631
1.69304
1.40001
1.40001
1.40001
1.04989
1.84226
1.40001
1.04269
1.40001
1.85086
1.48134
1.40001
1.40001
1.40001
1.40001
1.84133
1.84131
1.40001
1.40001
1.84103
1.40001
1.40001
1.83893
1.84262
1.40001
1.80426
1.84291
1.83794
1.35827
1.83966
1.40902
1.04413
1.73994
1.84347
1.40001
1.40001
1.40001
1.04036
1.40001
1.01131
1.84158
1.35862
1.84115
1.35006
1.40001
1.84176
1.59514
1.40001
1.40001
1.84233
1.40001
1.58163
1.84105
1.40001
1.40001
1.83612
1.84703
1.03052
1.65981
1.3999
1.40001
1.66871
1.40001
1.84112
1.34165
1.8497
1.8459
1.40001
1.40001
1.40001
1.40001
1.82738
1.40001
1.40001
1.83891
1.39964
1.84355
1.75027
1.8436
1.03091
1.40001
1.40001
1.40001
1.40001
1.84322
1.40005
1.84204
1.40001
1.84253
1.84425
1.45805
1.83841
1.52952
1.8423
1.40001
1.70585
1.07285
1.84486
1.84238
1.74855
1.47807
1.84149
1.84181
1.84036
1.8392
1.40001
1.30909
1.46756
1.40001
1.8425
1.60962
1.84217
1.40004
1.40001
1.40001
1.07502
1.83976
1.84094
1.76233
1.40001
1.57301
1.40001
1.84493
1.8447
1.40001
1.84109
1.84101
1.40001
1.40001
1.40001
1.84029
1.40001
1.57351
1.84411
1.70568
1.40001
1.84095
1.40001
1.40001
1.40001
1.40001
1.40001
1.40001
1.40001
1.40001
1.40001
1.40001
1.07261
1.40001
1.8092
1.00211
1.66008
1.39855
1.84212
1.40001
1.62795
1.40002
1.6852
1.77721
1.40001
1.40219
1.84985
1.30402
1.40001
1.84828
1.82535
1.33573
1.40001
1.84392
1.84379
1.84236
1.40001
1.84145
1.84373
1.84369
1.40001
1.6009
1.40001
1.40006
1.84319
1.40001
1.84238
1.46638
1.84334
1.40001
1.40001
1.84368
1.84845
1.06672
1.40001
1.84063
1.73365
1.84082
1.40001
1.40001
1.83869
1.84153
1.39829
1.40001
1.78725
1.3969
1.84271
1.40009
1.40001
1.40001
1.40001
1.40001
1.60509
1.40001
1.74146
1.84147
1.7297
1.84003
1.40001
1.4031
1.40001
1.40001
1.83827
1.40001
1.84382
1.40001
1.40001
1.40001
1.40001
1.4
1.40001
1.45675
1.62513
1.40001
1.40001
1.00979
1.40001
1.8438
1.07892
1.8469
1.40001
1.63142
1.39976
1.84048
1.68106
1.05329
1.64578
1.40004
1.84183
1.8436
1.40001
1.66506
1.8395
1.84337
1.39841
1.84732
1.82903
1.03196
1.40001
1.40001
1.39745
1.40001
1.83796
1.40001
1.06554
1.83858
1.40001
1.40001
1.78932
1.40001
1.84216
1.40001
1.84233
1.40001
1.0804
1.40001
1.40001
1.84511
1.84706
1.84615
1.40001
1.84332
1.84162
1.84299
1.40001
1.40001
1.82768
1.4
1.12876
1.40001
1.40001
1.40001
1.84316
1.40001
1.84207
1.69032
1.84297
1.40001
1.84141
1.39939
1.40001
1.40001
1.40001
1.40001
1.40001
1.40001
1.11312
1.40001
1.40001
1.84196
1.40001
1.84456
1.83813
1.40001
1.03841
1.03207
1.40001
1.84387
1.47161
1.04467
1.01197
1.40001
1.83966
1.40001
1.84103
1.05586
1.40149
1.40001
1.40001
1.39951
1.40001
1.40001
1.40001
1.39991
1.58152
1.84224
1.40001
1.40001
1.84175
1.6644
1.40001
1.79552
1.84204
1.83917
1.58298
1.83173
1.40001
1.8415
1.40001
1.83049
1.40001
1.84464
1.84448
1.39668
1.83978
1.84035
1.40001
1.40001
1.40001
1.40001
1.40001
1.30097
1.8404
1.40005
1.40003
1.03362
1.39998
1.00531
1.06728
1.40001
1.84343
1.84134
1.84279
1.40001
1.84118
1.40001
1.03458
1.40001
1.40001
1.83877
1.20885
1.84299
1.40001
1.84421
1.40001
1.38795
1.84009
1.40001
1.40001
1.40001
1.84177
1.40001
1.84141
1.02998
1.40001
1.40001
1.65866
1.40001
1.40001
1.64447
1.40001
1.40001
1.84152
1.40001
1.40001
1.40001
1.40001
1.40001
1.84352
1.84033
1.40001
1.84012
1.84184
1.03083
1.59756
1.84443
1.40001
1.40001
1.79878
1.39902
1.40001
1.40001
1.84141
1.84299
1.69107
1.40001
1.84059
1.05388
1.81422
1.3997
1.40001
1.84015
1.40004
1.84297
1.76024
1.73648
1.40001
1.40001
1.84216
1.10001
1.01579
1.40001
1.84196
1.40001
1.84373
1.40001
1.6624
1.40001
1.40001
1.84081
1.68595
1.04263
1.40001
1.39823
1.40001
1.40001
1.4259
1.5808
1.84208
1.40001
1.84558
1.40001
1.40001
1.40001
1.40001
1.40001
1.40001
1.4655
1.04728
1.40001
1.40001
1.43014
1.40001
1.40001
1.40001
1.40001
1.40001
1.84246
1.40001
1.40001
1.84137
1.84337
1.72518
1.40001
1.40001
1.40001
1.2284
1.84772
1.70641
1.40001
1.40001
1.40001
1.40001
1.8431
1.40001
1.40001
1.40001
1.84744
1.40001
1.40001
1.71875
1.85099
1.43538
1.13494
1.84279
1.71203
1.83917
1.40001
1.62366
1.40001
1.40001
1.40001
1.08208
1.40249
1.06373
1.40001
1.05599
1.01961
1.40001
1.02302
1.40001
1.40001
1.40001
1.59158
1.40001
1.8396
1.84162
1.40116
1.60938
1.77623
1.01621
1.16365
1.28494
1.40001
1.84141
1.83833
1.8413
1.84115
1.78168
1.27204
1.40001
1.78253
1.40001
1.82132
1.40001
1.40001
1.39642
1.40987
1.40001
1.40001
1.40001
1.84015
1.40001
1.00715
1.40001
1.84261
1.02111
1.40001
1.40001
1.84089
1.40001
1.84117
1.39994
1.40001
1.40001
1.84264
1.79468
1.40001
1.85394
1.40001
1.40001
1.41528
1.40001
1.58739
1.40001
1.40001
1.02699
1.40001
1.40001
1.84286
1.4
1.8445
1.40001
1.40004
1.00944
1.40001
1.40001
1.00472
1.40082
1.40001
1.83958
1.01454
1.84772
1.04697
1.84214
1.40001
1.40001
1.40001
1.40001
1.40001
1.40001
1.40001
1.40001
1.40001
1.40001
1.40001
1.82476
1.40001
1.84339
1.84019
1.0412
1.40001
1.40001
1.40001
1.40001
1.40001
1.40001
1.82978
1.40001
1.40001
1.03639
1.40001
1.40001
1.83967
1.40001
1.40001
1.57073
1.77036
1.07265
1.03308
1.09594
1.13246
1.40001
1.39666
1.03311
1.40027
1.80171
1.39683
1.40001
1.40001
1.84502
1.40001
1.40001
1.40001
1.16878
1.40002
1.56071
1.40001
1.40001
1.5805
1.84166
1.40001
1.03547
1.40001
1.40001
1.40001
1.39635
1.40001
1.83945
1.84076
1.40001
1.03692
1.40001
1.64326
1.03356
1.40001
1.28215
1.40001
1.3963
1.01357
1.40001
1.40001
1.40001
1.39556
1.04286
1.40001
1.05316
1.39843
1.63483
1.79761
1.04736
1.05852
1.40001
1.39066
1.40001
1.39864
1.40001
1.84191
1.8433
1.40001
1.41215
1.84418
1.84112
1.40001
1.40001
1.84084
1.40001
1.40001
1.40005
1.40001
1.8387
1.40001
1.40001
1.41856
1.40001
1.39857
1.09332
1.40001
1.40001
1.40001
1.40001
1.40001
1.84662
1.43166
1.40005
1.40001
1.40001
1.40001
1.40001
1.40001
1.40004
1.40001
1.04453
1.49801
1.39862
1.82318
1.82986
1.40001
1.41566
1.8437
1.79433
1.40001
1.40001
1.084
1.84252
1.40001
1.84027
1.40001
1.84063
1.69778
1.03479
1.40001
1.03432
1.82717
1.39968
1.40001
1.04565
1.09299
1.40001
1.40001
1.77189
1.40001
1.4
1.02666
1.40001
1.40001
1.40001
1.546
1.40001
1.04153
1.84214
1.40001
1.40001
1.40001
1.40001
1.84214
1.40001
1.40001
1.83968
1.79593
1.40001
1.40001
1.40001
1.84747
1.04247
1.40001
1.8406
1.8416
1.40001
1.75458
1.4
1.40003
1.40001
1.40001
1.80655
1.4153
1.40001
1.01045
1.63425
1.40001
1.40001
1.39752
1.40001
1.40001
1.84357
1.40001
1.40001
1.40004
1.40001
1.8415
1.40001
1.40001
1.40001
1.40001
1.40001
1.40001
1.40001
1.59876
1.40001
1.84456
1.40001
1.40001
1.84382
1.40001
1.40001
1.40001
1.84099
1.84044
1.44591
1.40001
1.3976
1.40001
1.40001
1.40001
1.40001
1.84177
1.40001
1.40001
1.84164
1.0289
1.40001
1.40001
1.40001
1.40001
1.40001
1.40001
1.75757
1.40001
1.40001
1.845
1.84201
1.40001
1.40001
1.40001
1.84065
1.83968
1.40001
1.39968
1.83535
1.40001
1.40001
1.40001
1.40002
1.00954
1.42978
1.39615
1.39617
1.40001
1.40001
1.03523
1.84147
1.40001
1.09837
1.40001
1.83986
1.82386
1.06733
1.39941
1.84214
1.84127
1.84104
1.40001
1.40001
1.31941
1.80159
1.76282
1.10245
1.40001
1.40001
1.40001
1.84072
1.84082
1.02129
1.39732
1.40001
1.84168
1.01114
1.40001
1.82684
1.03849
1.36872
1.40736
1.40001
1.8382
1.40001
1.40001
1.40001
1.40001
1.40001
1.40001
1.40011
1.81243
1.40001
1.40001
1.84428
1.40001
1.40001
1.40001
1.84159
1.40001
1.04499
1.40001
1.40001
1.40001
1.55337
1.40001
1.40001
1.40001
1.40001
1.40001
1.18153
1.40001
1.01336
1.40001
1.84067
1.40008
1.26122
1.26594
1.40002
1.40539
1.63143
1.40001
1.40001
1.00041
1.84185
1.84049
1.84162
1.40001
1.03747
1.03718
1.40001
1.84335
1.40001
1.40001
1.40001
1.40001
1.40001
1.40004
1.40001
1.03776
1.68377
1.40001
1.40001
1.0688
1.37754
1.40001
1.40001
1.40001
1.40001
1.01623
1.40001
1.07325
1.40001
1.40001
1.84383
1.40001
1.40001
1.04686
1.40001
1.84132
1.40001
1.01489
1.40001
1.03919
1.40001
1.40801
1.84452
1.85052
1.40001
1.40001
1.83999
1.40001
1.40001
1.50006
1.39673
1.40001
1.39814
1.40001
1.84445
1.40001
1.02641
1.40002
1.83972
1.39875
1.40001
1.40001
1.19262
1.40001
1.39909
1.04582
1.83829
1.56345
1.40001
1.40001
1.30275
1.40001
1.40001
1.40001
1.18862
1.40001
1.40001
1.40001
1.8414
1.40001
1.03359
1.4
1.40001
1.40001
1.40001
1.02054
1.84091
1.82109
1.04886
1.40001
1.83996
1.40001
1.40001
1.84158
1.83968
1.7725
1.02965
1.39776
1.39926
1.40001
1.84219
1.40001
1.40001
1.40001
1.40001
1.84166
1.40005
1.40001
1.40001
1.83729
1.40001
1.40001
1.841
1.03071
1.40001
1.40001
1.40001
1.02525
1.40001
1.4
1.4
1.39866
1.40001
1.40001
1.40001
1.40001
1.74773
1.40001
1.83939
1.83976
1.8507
1.84103
1.84204
1.8426
1.40001
1.84134
1.40001
1.84218
1.84191
1.40001
1.39882
1.03162
1.77867
1.39991
1.40001
1.40001
1.40001
1.40001
1.39402
1.40001
1.47023
1.40001
1.40001
1.40001
1.23065
1.84113
1.84364
1.84407
1.7762
1.39988
1.40001
1.42224
1.84318
1.3979
1.45077
1.39716
1.06971
1.40001
1.40003
1.40001
1.40001
1.40001
1.40001
1.40001
1.84225
1.04531
1.84207
1.84133
1.39551
0.975703
1.40001
1.40001
1.40001
1.84109
0.993806
1.78937
1.0208
1.84173
1.84485
1.03811
1.83917
1.42493
1.40001
1.8453
1.18368
1.40001
1.39866
1.00057
1.40001
1.04699
1.40001
1.84247
1.84022
1.15829
1.40001
1.84117
1.06911
1.40001
1.03518
1.40001
1.84064
1.40001
1.40001
1.83258
1.40001
1.22596
1.40001
1.3997
1.05048
1.83982
1.39949
1.40001
0.994111
1.40001
1.40001
1.40001
1.40001
1.64021
1.40001
1.84235
1.40001
1.40001
1.8469
1.40001
1.40001
1.8414
1.40001
1.02488
1.40001
1.05708
1.40002
1.40001
1.40001
1.40001
1.40001
1.82248
1.65875
1.84206
1.40001
1.84207
1.81119
1.02153
1.02077
1.40001
1.40001
1.84165
1.40001
1.01953
1.40001
1.37452
1.40001
1.40001
1.84353
1.40001
1.84644
1.00398
1.85132
1.40001
1.01811
1.40001
1.40001
1.84471
1.83932
1.40001
1.40005
1.40001
1.84133
1.40001
1.40001
1.01544
1.39939
0.993815
1.40001
1.40001
1.40001
1.8436
1.83874
1.84045
1.40001
1.40001
1.08666
1.40001
1.84641
1.40001
1.40001
1.40001
1.82346
1.84264
1.84076
1.01692
1.84478
1.84175
1.055
1.84031
1.40005
1.0702
1.40805
1.40001
1.40001
1.84272
1.00194
1.67639
0.992221
1.84178
1.39752
1.03924
1.84261
1.40001
1.40001
1.40001
1.40001
1.84154
1.84002
1.03966
1.40001
1.40003
1.03511
1.40004
1.40001
1.05459
1.01233
1.70722
1.84345
1.39847
1.84069
1.40001
1.84779
1.21743
1.0436
1.84165
1.85327
1.40001
1.84162
1.40001
1.40001
1.84262
1.40001
1.7385
1.84032
1.40001
1.40001
1.40001
1.40001
1.84153
1.83687
1.84103
1.40001
1.40001
1.84184
1.83613
1.84036
1.40001
1.8411
1.40001
1.40001
1.40001
1.40001
1.40001
1.02605
1.22905
1.03143
1.40001
1.40001
1.84154
1.40001
1.40001
1.84239
1.03056
1.40001
1.84187
1.83733
1.82465
1.00959
1.40001
1.08932
1.40001
1.40003
1.84091
1.60758
1.83942
1.80449
1.40001
1.10064
1.40001
1.84025
1.71706
1.04365
1.40001
1.40001
1.40001
1.19056
1.40001
1.40001
1.85097
1.40001
1.04772
1.84177
1.40001
1.40001
1.40001
1.40001
1.40001
1.75336
1.49951
1.40001
1.83989
1.40001
1.84085
1.40001
1.39751
1.40001
1.84173
1.84746
1.84371
1.84514
1.39959
1.83861
1.40001
1.84159
1.8439
1.77443
1.40001
1.40001
1.02558
1.83763
1.40001
1.40001
1.84418
1.8414
1.84477
1.40001
1.84006
1.40001
1.40001
1.40003
1.84565
1.8445
1.53226
1.49714
1.84245
1.84296
1.06477
1.40001
1.40001
1.40001
1.40001
1.40002
1.55841
1.40001
1.40001
1.77705
1.00018
1.39998
1.40001
1.84145
1.3999
1.39982
1.46812
1.81242
1.83607
1.30201
1.40001
0.992068
1.40001
1.3958
1.84101
1.84421
1.84489
1.39899
1.40001
1.40001
1.02098
1.40001
1.40001
1.84106
1.44973
1.40001
1.40001
1.40001
1.40001
1.40001
1.40001
1.40001
1.39995
1.83971
1.40002
1.40001
1.40001
1.40001
1.40001
1.67659
1.40001
1.61296
1.40001
1.40001
1.84189
1.84506
1.03727
1.39877
1.40001
1.4
1.40001
1.03636
1.83884
1.84141
1.40001
1.40001
1.40001
1.40001
1.40001
1.40001
1.40001
1.40001
1.84119
1.83886
1.00887
1.44991
1.0358
1.40001
1.03698
1.40001
1.84228
1.52822
1.40001
1.40001
1.08645
1.40001
1.82485
1.18925
1.39668
1.03017
1.40001
1.40001
1.83877
1.40005
1.39728
1.01492
1.83967
1.84355
1.40001
1.40001
1.40001
1.40001
1.81336
1.40001
1.40001
1.84184
1.399
1.83958
1.4001
1.40001
1.40001
0.997494
1.40001
1.40001
1.84195
1.02766
1.16551
1.03086
1.8421
1.39937
1.40001
1.84323
1.0456
1.04923
1.41452
1.40001
1.40001
1.84218
1.40005
1.59569
1.40001
1.40001
1.84028
1.03763
1.40001
1.40001
1.40014
1.83909
1.40012
1.82632
1.40001
1.40004
1.40001
1.40001
1.10455
1.40001
1.16674
1.40003
1.40001
1.84177
1.00219
1.40001
1.17344
1.20035
1.40001
1.40001
1.84214
1.40001
1.40001
1.40001
1.8417
1.84182
1.40006
1.83606
1.84092
1.17428
1.84186
1.82468
1.40001
1.40001
1.84044
1.4
1.40001
1.40001
1.40001
1.40001
1.84591
1.84284
1.40001
1.40001