/*--------------------------------*- C++ -*----------------------------------*\
  =========                 |
  \\      /  F ield         | OpenFOAM: The Open Source CFD Toolbox
   \\    /   O peration     | Website:  https://openfoam.org
    \\  /    A nd           | Version:  12
     \\/     M anipulation  |
\*---------------------------------------------------------------------------*/
FoamFile
{
    format      ascii;
    class       volVectorField;
    location    "9.89";
    object      U;
}
// * * * * * * * * * * * * * * * * * * * * * * * * * * * * * * * * * * * * * //

dimensions      [0 1 -1 0 0 0 0];

internalField   nonuniform List<vector> 
22702
(
(2 -1.11488e-13 0)
(2 -1.23561e-13 0)
(2.04483 -0.0880262 0)
(2 -1.13641e-09 0)
(1.97584 0.0349935 0)
(2 8.53931e-14 0)
(1.82945 0.229057 0)
(2 -1.68787e-13 0)
(2 -2.09462e-13 0)
(2.13133 -0.264659 0)
(1.82968 0.229016 0)
(1.82895 0.228865 0)
(2 1.69649e-15 0)
(1.83147 0.229186 0)
(2.04087 -0.0763355 0)
(2 -2.43362e-13 0)
(2 -1.29286e-13 0)
(2 -3.95005e-14 0)
(1.82934 0.228642 0)
(2 1.26356e-14 0)
(1.83158 0.229023 0)
(2 -7.91706e-14 0)
(1.82935 0.228419 0)
(2.10051 -0.258254 0)
(1.83196 0.229316 0)
(2.10535 -0.269579 0)
(2 -1.4932e-13 0)
(1.82843 0.228946 0)
(2.11126 -0.268688 0)
(2.10903 -0.264941 0)
(2 7.41796e-15 0)
(1.8287 0.228945 0)
(2 5.81955e-14 0)
(2 2.45619e-14 0)
(2 2.12529e-14 0)
(1.84444 0.214133 0)
(1.83158 0.230495 0)
(1.82912 0.228843 0)
(2 -1.17706e-13 0)
(2 -1.23836e-13 0)
(2.15001 -0.257609 0)
(2 -3.36027e-14 0)
(1.91656 0.124856 0)
(2 -2.20653e-13 0)
(1.82826 0.228463 0)
(2 -2.02401e-13 0)
(2 3.78811e-14 0)
(2 -1.50924e-13 0)
(2 -9.1256e-14 0)
(2.10579 -0.261539 0)
(2 1.38905e-14 0)
(2.10202 -0.261209 0)
(2 -2.84121e-13 0)
(1.83011 0.229152 0)
(2 9.36838e-14 0)
(1.82938 0.229128 0)
(2 1.24187e-14 0)
(2 1.29759e-09 0)
(2 -5.7559e-14 0)
(2 -1.30445e-13 0)
(2.11412 -0.275208 0)
(2 -6.42844e-14 0)
(2 -2.99465e-13 0)
(2.11825 -0.265629 0)
(2 -1.39233e-14 0)
(2.08375 -0.262821 0)
(2 -3.13547e-13 0)
(2 -2.04906e-13 0)
(2 1.1292e-13 0)
(2.13946 -0.257958 0)
(2 -2.56558e-13 0)
(1.8314 0.229153 0)
(1.89541 0.152958 0)
(2 9.92826e-10 0)
(1.8317 0.229128 0)
(1.82372 0.238781 0)
(2.08396 -0.261563 0)
(1.82847 0.228456 0)
(2.10148 -0.25967 0)
(2 -3.30448e-13 0)
(1.83045 0.229153 0)
(2.11315 -0.261252 0)
(1.83047 0.228656 0)
(1.83127 0.228893 0)
(2 6.66152e-15 0)
(2 9.91479e-07 0)
(2 -4.45619e-14 0)
(2 5.72114e-14 0)
(2.02562 -0.0463583 0)
(2.14084 -0.259965 0)
(1.82949 0.228251 0)
(2 -7.51612e-14 0)
(2 -6.67425e-11 0)
(2.11928 -0.265378 0)
(2 6.84074e-15 0)
(1.83157 0.229066 0)
(2.12106 -0.262281 0)
(2 2.59047e-08 0)
(2 -3.89571e-14 0)
(2 -3.85081e-13 0)
(2 -7.41158e-14 0)
(1.91677 0.127247 0)
(1.83022 0.229074 0)
(2.10435 -0.26913 0)
(2 -7.05706e-10 0)
(2 -8.62836e-10 0)
(1.95888 0.0639183 0)
(2 9.85531e-09 0)
(2.10986 -0.260571 0)
(2 -2.86426e-13 0)
(1.82778 0.228495 0)
(1.82951 0.228885 0)
(2 4.58287e-09 0)
(2 1.30036e-13 0)
(2.10474 -0.284084 0)
(2.10305 -0.277091 0)
(2.13493 -0.263398 0)
(2 1.01754e-13 0)
(2 -1.65535e-07 0)
(2 -4.70819e-14 0)
(2 -9.76014e-14 0)
(2 1.18695e-07 0)
(2.03422 -0.0634121 0)
(2 -1.06932e-07 0)
(1.85599 0.20135 0)
(1.98155 0.0251035 0)
(1.82968 0.228469 0)
(2 -1.28388e-13 0)
(1.82927 0.228686 0)
(1.82928 0.228873 0)
(1.83144 0.229205 0)
(1.83056 0.228859 0)
(2 -8.26668e-14 0)
(2.1422 -0.260086 0)
(2 4.55052e-14 0)
(2.11505 -0.26756 0)
(2 -5.96362e-14 0)
(2 5.21342e-14 0)
(2 4.68742e-14 0)
(2 -4.44166e-14 0)
(1.82958 0.228941 0)
(2 3.21679e-09 0)
(2 1.55903e-13 0)
(2 -7.99888e-14 0)
(2 1.46418e-14 0)
(1.83165 0.229158 0)
(2 -1.01973e-14 0)
(1.99308 0.0139507 0)
(2 1.48675e-13 0)
(2 -1.72146e-13 0)
(2 -6.86358e-11 0)
(2 7.91839e-14 0)
(2.11704 -0.264544 0)
(2 3.69785e-15 0)
(1.9954 0.00779882 0)
(2 3.57254e-14 0)
(2.10674 -0.262449 0)
(2 -2.84285e-14 0)
(2 1.16354e-13 0)
(2 -1.10451e-13 0)
(1.82916 0.228527 0)
(2 -1.08578e-14 0)
(1.8305 0.228466 0)
(2.13355 -0.265561 0)
(2.11134 -0.273461 0)
(1.8313 0.229263 0)
(1.83049 0.228731 0)
(2 1.97191e-14 0)
(1.96893 0.0415612 0)
(1.90399 0.140563 0)
(2 7.50779e-14 0)
(1.83188 0.228714 0)
(2.09611 -0.262465 0)
(1.8438 0.214998 0)
(2 2.50239e-15 0)
(2 -7.81135e-14 0)
(2 -2.09653e-14 0)
(2 -5.99268e-14 0)
(1.83146 0.229049 0)
(1.86987 0.189022 0)
(2 -2.00222e-13 0)
(1.83013 0.228927 0)
(2.12098 -0.265115 0)
(1.83098 0.228723 0)
(2 3.35508e-14 0)
(2.12405 -0.265439 0)
(2 -9.11772e-14 0)
(2.10721 -0.264244 0)
(2.10534 -0.272284 0)
(2.00009 -0.000157087 0)
(2 -1.91543e-13 0)
(2 -1.19079e-13 0)
(1.82968 0.228449 0)
(2 1.04452e-13 0)
(2 -2.43392e-13 0)
(1.83188 0.228956 0)
(2 -5.71694e-14 0)
(1.82851 0.228916 0)
(1.82998 0.22864 0)
(2.09821 -0.271379 0)
(2 6.80812e-15 0)
(2 3.94953e-14 0)
(2.11389 -0.265009 0)
(1.83186 0.229049 0)
(2 -1.49718e-13 0)
(2 -1.23979e-14 0)
(2 7.79422e-14 0)
(1.83182 0.229005 0)
(2 1.91488e-14 0)
(2.13141 -0.262099 0)
(2 -6.14321e-11 0)
(2 8.33099e-14 0)
(1.83142 0.228896 0)
(1.83149 0.229068 0)
(1.82788 0.228608 0)
(2 4.30781e-14 0)
(1.99999 2.58215e-05 0)
(2 -2.92499e-14 0)
(2 -9.29046e-15 0)
(2 -2.4647e-13 0)
(1.8316 0.228884 0)
(2 1.1822e-13 0)
(2.11301 -0.261748 0)
(1.82548 0.235512 0)
(1.83183 0.229071 0)
(1.83175 0.229334 0)
(2 1.92763e-07 0)
(2 -7.07227e-15 0)
(2 -2.31058e-13 0)
(2.11089 -0.271081 0)
(1.83184 0.228611 0)
(1.91876 0.132553 0)
(2 -2.05615e-14 0)
(1.83107 0.22956 0)
(2.10922 -0.262155 0)
(2.1246 -0.266073 0)
(1.83109 0.229621 0)
(1.83121 0.227432 0)
(2 -2.89023e-14 0)
(1.82898 0.234118 0)
(2.10982 -0.283946 0)
(1.85048 0.207235 0)
(2 -2.30526e-13 0)
(2 3.20653e-15 0)
(2 -1.93344e-13 0)
(2 -1.29418e-13 0)
(1.8318 0.228932 0)
(2 4.17047e-14 0)
(1.90392 0.137571 0)
(1.98299 0.0293967 0)
(2 -1.9569e-13 0)
(2 -4.14642e-14 0)
(1.8318 0.228844 0)
(2.11795 -0.2617 0)
(2.07644 -0.161382 0)
(2 -6.03155e-14 0)
(1.83154 0.228957 0)
(2.13241 -0.261001 0)
(1.82832 0.232142 0)
(2 5.58931e-14 0)
(2 1.11791e-13 0)
(2 -2.84991e-13 0)
(2 -6.04684e-14 0)
(2 3.71634e-14 0)
(2 5.16608e-14 0)
(2 -1.84408e-14 0)
(2.09919 -0.263454 0)
(2.07279 -0.168961 0)
(2.12531 -0.263605 0)
(1.83131 0.229054 0)
(2 -5.00887e-14 0)
(2 2.5274e-13 0)
(2 -1.66047e-07 0)
(2 -2.17754e-13 0)
(1.84904 0.21198 0)
(2 -1.72787e-07 0)
(2.09765 -0.261639 0)
(2 -1.71919e-13 0)
(2.11238 -0.280195 0)
(2.10707 -0.263233 0)
(1.83184 0.229195 0)
(2.07904 -0.256926 0)
(1.8315 0.22903 0)
(2 -3.46656e-14 0)
(2 -6.82955e-14 0)
(2 -2.98716e-14 0)
(2.00079 -0.00168518 0)
(2.1204 -0.264366 0)
(2.12981 -0.270396 0)
(2 -3.13669e-07 0)
(2 -1.37715e-07 0)
(2.1154 -0.282121 0)
(2 2.38846e-09 0)
(1.8292 0.228819 0)
(2.11601 -0.270115 0)
(2 2.97479e-14 0)
(2 -3.38471e-11 0)
(1.83064 0.229114 0)
(2.14459 -0.263676 0)
(2 -7.20774e-14 0)
(1.83125 0.228139 0)
(2.1064 -0.269979 0)
(1.83176 0.22878 0)
(2 -2.09832e-13 0)
(2.11122 -0.284185 0)
(2.00086 -0.00151413 0)
(2 3.84506e-14 0)
(2 2.83002e-06 0)
(2 -4.15717e-14 0)
(2.10128 -0.260747 0)
(2 -2.31354e-13 0)
(2 -1.8365e-07 0)
(2 -5.62089e-07 0)
(1.99999 8.60551e-06 0)
(1.99532 0.0100556 0)
(1.8935 0.152735 0)
(2 -2.52116e-11 0)
(2.09591 -0.258797 0)
(2 -1.5841e-11 0)
(2 1.8187e-06 0)
(2 -2.69987e-14 0)
(2 -1.56349e-13 0)
(2 -3.58377e-14 0)
(2 -1.71718e-14 0)
(2 -8.48467e-13 0)
(1.8305 0.229065 0)
(2 1.07046e-13 0)
(1.82978 0.22783 0)
(2 9.68657e-14 0)
(2 -1.26482e-13 0)
(2 4.49729e-14 0)
(2.12631 -0.261423 0)
(2 -8.77219e-14 0)
(1.83138 0.228928 0)
(2.0814 -0.25518 0)
(2 -5.21533e-14 0)
(1.87083 0.179767 0)
(2 -7.73093e-14 0)
(2 -1.81916e-13 0)
(1.82954 0.229505 0)
(2 1.59425e-14 0)
(2 -9.83155e-09 0)
(2 -1.38011e-14 0)
(1.82941 0.227295 0)
(2 5.37455e-10 0)
(2 -9.12821e-15 0)
(1.83032 0.228173 0)
(1.8304 0.229638 0)
(2 -8.40109e-15 0)
(1.96225 0.0591577 0)
(2 1.16137e-13 0)
(2 -5.18141e-15 0)
(2.11368 -0.267236 0)
(2 -1.79459e-13 0)
(2 -4.65817e-15 0)
(2 1.67502e-13 0)
(2.11403 -0.26782 0)
(2 -7.74394e-14 0)
(2 -1.54104e-13 0)
(2 1.16147e-13 0)
(2 -3.90971e-14 0)
(2.09894 -0.267899 0)
(2 -4.42773e-14 0)
(2 -3.88743e-14 0)
(2 -2.37737e-13 0)
(2 9.22071e-15 0)
(2 -2.4152e-14 0)
(2.12049 -0.257319 0)
(1.99998 3.89335e-05 0)
(1.83079 0.228806 0)
(2 -1.01682e-14 0)
(1.99998 -1.0861e-05 0)
(1.83096 0.229089 0)
(1.83089 0.229208 0)
(2 -1.31468e-13 0)
(2 -8.45155e-14 0)
(2.10049 -0.276832 0)
(2.06228 -0.121679 0)
(1.82872 0.228543 0)
(2 1.15763e-13 0)
(2 -1.36208e-13 0)
(2 1.15804e-13 0)
(1.83183 0.228666 0)
(2.13857 -0.26224 0)
(2 -4.36005e-14 0)
(1.83072 0.228679 0)
(2 -2.10882e-13 0)
(2 -2.6374e-13 0)
(2.08799 -0.220017 0)
(2.08883 -0.222626 0)
(2 -2.30871e-13 0)
(2.11688 -0.263376 0)
(2.12344 -0.262526 0)
(2 -4.03688e-14 0)
(2 5.17391e-14 0)
(2 -6.39658e-14 0)
(2 -1.32862e-13 0)
(2 -9.48443e-11 0)
(2 -1.34243e-13 0)
(2 -1.15094e-13 0)
(1.83081 0.228521 0)
(1.95752 0.0642856 0)
(1.83875 0.214352 0)
(2.12331 -0.258006 0)
(2.03265 -0.0602325 0)
(1.82976 0.228929 0)
(2 -4.3972e-13 0)
(1.83187 0.22921 0)
(1.82841 0.228505 0)
(2.1078 -0.264666 0)
(2.07715 -0.15396 0)
(2 5.90781e-13 0)
(2.13605 -0.261671 0)
(2 -1.20734e-13 0)
(1.82108 0.235097 0)
(2 -3.09374e-13 0)
(2 3.03925e-14 0)
(2 2.86226e-14 0)
(2 2.90913e-14 0)
(1.83182 0.22899 0)
(2 -2.32229e-13 0)
(2 -4.8422e-14 0)
(2 -9.63975e-14 0)
(2 1.54371e-09 0)
(2 -3.57323e-14 0)
(2 -2.25251e-13 0)
(2 -1.90026e-13 0)
(1.93649 0.0941768 0)
(1.82861 0.228226 0)
(2 7.54291e-15 0)
(1.83141 0.229031 0)
(2 -2.05658e-13 0)
(2 1.86113e-15 0)
(2.11135 -0.2607 0)
(2 -1.55192e-13 0)
(2 3.28488e-14 0)
(2 -2.806e-13 0)
(2 -1.33695e-13 0)
(1.83189 0.229034 0)
(1.87131 0.182812 0)
(2 -3.37307e-14 0)
(2 -1.8316e-13 0)
(2.11402 -0.262996 0)
(1.83188 0.228942 0)
(1.83169 0.228989 0)
(2 1.3078e-13 0)
(1.83147 0.228928 0)
(1.83191 0.228924 0)
(1.83147 0.229042 0)
(2 1.99101e-14 0)
(2.05831 -0.117651 0)
(2 -1.65857e-13 0)
(1.83189 0.228885 0)
(1.99895 -0.014795 0)
(1.83149 0.229008 0)
(2 -7.80541e-14 0)
(2.12872 -0.262082 0)
(2.00037 -0.000629076 0)
(1.83101 0.228948 0)
(2 -2.40465e-14 0)
(2 9.19323e-14 0)
(2 -5.34855e-11 0)
(2 -1.9914e-11 0)
(2.10624 -0.260082 0)
(1.83183 0.229126 0)
(1.84631 0.212203 0)
(2 2.10169e-14 0)
(1.83261 0.228447 0)
(1.83184 0.228699 0)
(1.82925 0.228897 0)
(2 -1.39142e-13 0)
(1.92009 0.12653 0)
(1.83153 0.22874 0)
(2 1.77416e-14 0)
(2 1.41318e-13 0)
(1.88324 0.166535 0)
(1.97824 0.0385374 0)
(1.83144 0.228949 0)
(2.02363 -0.0478563 0)
(1.83154 0.229033 0)
(2 -1.0027e-13 0)
(1.8316 0.229094 0)
(1.83115 0.229075 0)
(1.83154 0.229099 0)
(1.8318 0.228953 0)
(2 1.3685e-13 0)
(1.83462 0.233308 0)
(2.02783 -0.0531721 0)
(2.03203 -0.0722458 0)
(2 -6.72009e-14 0)
(2 -3.99125e-07 0)
(2 -3.5093e-14 0)
(2 -9.25514e-14 0)
(1.83123 0.227289 0)
(2 7.88393e-14 0)
(2 6.90947e-14 0)
(2 3.85644e-14 0)
(2 -1.72866e-13 0)
(2 6.96267e-14 0)
(1.82968 0.228753 0)
(2 3.57666e-14 0)
(2 -1.25136e-13 0)
(2.00156 -0.00250407 0)
(1.83186 0.229076 0)
(1.85058 0.218693 0)
(2 -1.97962e-13 0)
(1.8694 0.186355 0)
(1.99998 2.84683e-05 0)
(2 4.97101e-14 0)
(2 -2.24971e-13 0)
(1.83127 0.228769 0)
(2 3.98366e-14 0)
(2.00252 -0.00296377 0)
(1.99776 0.004606 0)
(2 1.16203e-14 0)
(1.83124 0.228877 0)
(2 1.65327e-14 0)
(1.83211 0.228324 0)
(2 -1.54457e-13 0)
(2 1.78239e-14 0)
(1.8764 0.177501 0)
(2 -1.14267e-13 0)
(1.83215 0.228406 0)
(1.99999 1.26609e-05 0)
(2 -6.94734e-14 0)
(1.83142 0.229372 0)
(2 -2.75087e-13 0)
(1.83191 0.229044 0)
(2 5.5867e-14 0)
(2 3.11695e-06 0)
(2 -2.2003e-14 0)
(1.83185 0.228946 0)
(2 6.43184e-14 0)
(1.83144 0.227088 0)
(2 4.48236e-06 0)
(1.83177 0.22897 0)
(1.83085 0.228789 0)
(1.83176 0.228966 0)
(1.83129 0.228804 0)
(2 -5.06035e-15 0)
(1.83068 0.229169 0)
(1.83446 0.231502 0)
(2 4.39696e-14 0)
(2.11621 -0.270532 0)
(1.84202 0.217182 0)
(1.87801 0.173136 0)
(2 1.78742e-13 0)
(1.83184 0.228994 0)
(2 1.13256e-14 0)
(2.11527 -0.263387 0)
(2.10218 -0.268831 0)
(2 3.5539e-14 0)
(2 2.25179e-14 0)
(2 5.55058e-15 0)
(2 -1.74528e-13 0)
(2 1.99744e-09 0)
(2.12215 -0.260048 0)
(2 2.87948e-14 0)
(1.83142 0.22895 0)
(1.95651 0.0734223 0)
(1.83154 0.228942 0)
(2 -3.06967e-13 0)
(2 8.11651e-11 0)
(2 -4.89443e-14 0)
(2 -1.93548e-14 0)
(2 -5.53741e-08 0)
(1.83114 0.229112 0)
(2 -2.30838e-13 0)
(1.82906 0.229343 0)
(1.89872 0.147958 0)
(2.07754 -0.158365 0)
(2 1.33537e-09 0)
(1.99999 6.37135e-06 0)
(1.9485 0.0778995 0)
(1.95614 0.0701358 0)
(2 -1.20427e-13 0)
(2 -9.18268e-15 0)
(1.93537 0.0909294 0)
(2 1.78991e-13 0)
(2.10576 -0.261519 0)
(1.83163 0.229111 0)
(1.8315 0.228982 0)
(2 -7.0495e-11 0)
(2 -5.43629e-14 0)
(2 1.97601e-13 0)
(1.83019 0.228533 0)
(2 -2.48154e-13 0)
(1.99999 1.58586e-05 0)
(1.8311 0.230278 0)
(1.83196 0.228988 0)
(2.00899 -0.0354557 0)
(2 4.79232e-14 0)
(2 1.53729e-10 0)
(2.09985 -0.261535 0)
(1.84714 0.2108 0)
(2 -1.63271e-13 0)
(2 -4.48095e-14 0)
(2 2.08058e-14 0)
(2 -2.87416e-11 0)
(2 -2.19137e-13 0)
(1.83188 0.229048 0)
(1.83092 0.229268 0)
(2 -3.91711e-14 0)
(1.83168 0.229151 0)
(1.83159 0.227437 0)
(1.83167 0.228946 0)
(2 -2.03364e-13 0)
(2 6.44766e-14 0)
(2 -5.9843e-11 0)
(2 -6.15842e-14 0)
(2.11193 -0.273584 0)
(1.82934 0.228602 0)
(2 -4.39946e-11 0)
(2 3.61129e-14 0)
(1.84672 0.212331 0)
(1.83228 0.228239 0)
(2 5.61091e-14 0)
(1.84165 0.217745 0)
(1.8292 0.228414 0)
(2 -3.06672e-13 0)
(2 -2.16051e-07 0)
(2 8.45495e-11 0)
(2 9.58456e-14 0)
(2 -1.46055e-13 0)
(1.83132 0.228893 0)
(2 -1.84692e-14 0)
(2 -1.14445e-13 0)
(2 -1.96455e-13 0)
(2 -2.10889e-13 0)
(1.83185 0.228918 0)
(2 -8.67779e-14 0)
(1.82831 0.231154 0)
(2.12772 -0.263401 0)
(2 -8.62617e-14 0)
(2.10189 -0.267216 0)
(2 2.89121e-14 0)
(2 -1.48397e-07 0)
(2 2.63518e-14 0)
(2.00125 -0.00169298 0)
(2.11822 -0.266221 0)
(2.00034 -0.00056495 0)
(2 9.15961e-14 0)
(2 -7.55024e-14 0)
(2 -1.18079e-07 0)
(1.97732 0.0347677 0)
(2 -6.17182e-14 0)
(2 -5.15249e-14 0)
(2.04718 -0.0895582 0)
(2 -2.18589e-07 0)
(2 5.38943e-14 0)
(2 4.17259e-14 0)
(2 -2.17134e-07 0)
(2 3.77693e-07 0)
(2 -1.44953e-07 0)
(2 8.50162e-15 0)
(2 -1.65343e-06 0)
(2.0286 -0.0464945 0)
(2 -4.50443e-07 0)
(2 -3.99319e-08 0)
(2.0009 -0.0013402 0)
(2 -4.98617e-14 0)
(2.10447 -0.262081 0)
(2 -2.8814e-11 0)
(2 -4.21795e-12 0)
(2 -4.45198e-11 0)
(2 1.91072e-13 0)
(1.87435 0.179417 0)
(2 -1.13622e-13 0)
(2 4.24823e-14 0)
(2 1.89999e-13 0)
(2 -1.70292e-07 0)
(2.10986 -0.254614 0)
(2 1.11556e-13 0)
(2 1.64242e-09 0)
(1.84072 0.218357 0)
(1.83071 0.228787 0)
(2 -2.96651e-07 0)
(2 7.06477e-14 0)
(2 -1.10531e-07 0)
(2.02576 -0.0750891 0)
(2 -9.47131e-14 0)
(2 4.75264e-10 0)
(2 -4.62373e-15 0)
(2 2.95369e-14 0)
(2 3.13016e-14 0)
(2 1.79798e-14 0)
(2.01088 -0.0278713 0)
(1.99437 0.0113146 0)
(1.83164 0.229057 0)
(2 4.10822e-14 0)
(2 -1.20848e-13 0)
(2 -4.0449e-14 0)
(1.83222 0.227775 0)
(2.04118 -0.0712816 0)
(2 -5.0012e-09 0)
(2 -2.13866e-13 0)
(2 -1.2271e-13 0)
(1.8285 0.228603 0)
(1.83045 0.227693 0)
(2 -2.82777e-08 0)
(2 4.72101e-06 0)
(2 3.77517e-09 0)
(2 -1.22228e-13 0)
(2 1.24093e-09 0)
(2 1.48346e-13 0)
(2 -3.38042e-11 0)
(2 -7.77046e-14 0)
(2 -7.73022e-14 0)
(2.12165 -0.258343 0)
(2 -1.76468e-14 0)
(2 -1.46874e-11 0)
(1.83016 0.228182 0)
(2.13304 -0.261688 0)
(2 -2.05462e-13 0)
(1.83004 0.227103 0)
(2 6.39506e-11 0)
(2.12181 -0.267267 0)
(2 -6.1776e-14 0)
(2 3.64228e-14 0)
(2.11534 -0.260036 0)
(2 -9.92601e-14 0)
(2 -1.11954e-11 0)
(2 -5.07619e-12 0)
(2 -1.61083e-14 0)
(2 -2.81037e-12 0)
(2 -5.36249e-14 0)
(2 -6.80361e-14 0)
(1.8347 0.224916 0)
(1.83213 0.228319 0)
(2 1.73678e-13 0)
(2 -1.59433e-13 0)
(2 -7.81726e-14 0)
(2 1.65824e-13 0)
(1.84579 0.212712 0)
(2 2.46822e-13 0)
(1.94662 0.0768626 0)
(2.12016 -0.271283 0)
(2 -3.11639e-08 0)
(2 1.76661e-13 0)
(2 1.86587e-13 0)
(2 -2.63251e-13 0)
(2 9.05482e-14 0)
(2 -8.0754e-14 0)
(2 5.71357e-14 0)
(1.98427 0.0162958 0)
(2 -2.57677e-14 0)
(2 3.50039e-14 0)
(1.90602 0.12163 0)
(2 -1.03282e-14 0)
(2 -3.08554e-15 0)
(2 7.67018e-14 0)
(1.86015 0.194976 0)
(2 -1.93793e-13 0)
(2 2.61373e-14 0)
(2 -9.31362e-14 0)
(2 -1.1017e-13 0)
(2.13467 -0.265297 0)
(2 5.23713e-12 0)
(2 1.31431e-13 0)
(2.12525 -0.27126 0)
(2.13537 -0.262903 0)
(2 -2.18283e-13 0)
(2 -1.08733e-13 0)
(1.83185 0.228735 0)
(2 -2.72523e-14 0)
(1.99274 -0.0329909 0)
(2 3.72909e-14 0)
(2 -7.65604e-14 0)
(2 -6.86011e-14 0)
(1.88247 0.166091 0)
(2.10802 -0.27489 0)
(2 4.46869e-14 0)
(2.11515 -0.283092 0)
(2 7.59132e-15 0)
(2.06191 -0.150706 0)
(2 -1.24635e-13 0)
(2 1.792e-14 0)
(2 1.05956e-15 0)
(1.83028 0.229279 0)
(2 -4.24585e-08 0)
(2 -1.86473e-13 0)
(1.83153 0.22877 0)
(2 -3.14888e-13 0)
(2 -2.28534e-11 0)
(2 1.67835e-09 0)
(1.83146 0.228797 0)
(2 2.29637e-10 0)
(2 1.60088e-15 0)
(1.83183 0.229069 0)
(2 -3.96393e-13 0)
(2 -1.90188e-13 0)
(2.10829 -0.265813 0)
(2 -1.67374e-11 0)
(1.9471 0.0761497 0)
(2 -1.89855e-13 0)
(2 -3.7104e-14 0)
(1.82988 0.229008 0)
(1.82954 0.228922 0)
(1.8882 0.161909 0)
(1.8491 0.209796 0)
(2 4.0583e-14 0)
(2.12929 -0.263617 0)
(2 -6.26383e-14 0)
(2 -1.56679e-13 0)
(1.83891 0.22056 0)
(2 8.10168e-14 0)
(2.12746 -0.264415 0)
(2 6.92232e-15 0)
(2 5.6437e-14 0)
(2 -4.03587e-14 0)
(1.83164 0.229225 0)
(2 -5.44307e-14 0)
(2 -2.08048e-14 0)
(2 -1.76936e-13 0)
(2 -1.21901e-13 0)
(1.8964 0.149825 0)
(2 3.4935e-14 0)
(1.84579 0.206891 0)
(1.82958 0.229949 0)
(2.1263 -0.265092 0)
(2 -1.58379e-13 0)
(2 -5.36303e-14 0)
(2.09951 -0.269039 0)
(2.09927 -0.266374 0)
(2 -1.00604e-13 0)
(2 -1.22399e-13 0)
(2 -6.46732e-12 0)
(1.88107 0.16912 0)
(1.87347 0.179939 0)
(2 1.87957e-13 0)
(2 9.28455e-14 0)
(2 1.97072e-13 0)
(2 1.27331e-13 0)
(2 1.31105e-13 0)
(2 -7.51632e-14 0)
(2 1.20857e-13 0)
(1.92469 0.113775 0)
(1.83158 0.228643 0)
(1.99122 0.00717786 0)
(2 -1.08096e-13 0)
(1.83386 0.226808 0)
(2.13386 -0.265577 0)
(2 -6.4397e-14 0)
(2 -3.67973e-14 0)
(2 9.20713e-14 0)
(1.90822 0.135652 0)
(2 9.52261e-14 0)
(1.96636 0.0525582 0)
(2 -3.50966e-14 0)
(1.84623 0.212016 0)
(1.83226 0.227994 0)
(2 2.99872e-14 0)
(2.12788 -0.262862 0)
(2 3.93712e-14 0)
(1.8307 0.228864 0)
(2 7.02877e-15 0)
(2 8.2925e-14 0)
(1.83118 0.22879 0)
(1.84208 0.217452 0)
(2 8.19682e-14 0)
(1.82646 0.230816 0)
(2 -3.7502e-14 0)
(2.10765 -0.26439 0)
(2 -1.18106e-13 0)
(2 3.3588e-14 0)
(2 -8.53561e-14 0)
(1.82827 0.230812 0)
(1.835 0.225006 0)
(1.85217 0.205507 0)
(2 -1.78277e-13 0)
(1.82931 0.230841 0)
(1.83171 0.228978 0)
(2 -4.21472e-14 0)
(1.83149 0.22947 0)
(2 -9.48667e-09 0)
(1.83227 0.228014 0)
(2 -4.77943e-14 0)
(2.13223 -0.264095 0)
(2.00565 -0.023846 0)
(2.12872 -0.27009 0)
(2 -3.42628e-11 0)
(2 -2.29705e-11 0)
(2 -3.32465e-11 0)
(2 -5.20799e-14 0)
(2 -1.50566e-11 0)
(1.83193 0.22896 0)
(2 1.22088e-13 0)
(1.83193 0.22884 0)
(2 -4.22682e-11 0)
(2 -9.90868e-11 0)
(2 -6.35485e-14 0)
(1.83995 0.219936 0)
(2 -5.6822e-14 0)
(2.08494 -0.259043 0)
(1.83148 0.228824 0)
(2 -1.1152e-13 0)
(2.14566 -0.275014 0)
(2.09503 -0.24209 0)
(2.10314 -0.265277 0)
(2 -3.38111e-14 0)
(1.91706 0.124178 0)
(1.98711 0.0190698 0)
(1.83083 0.229496 0)
(1.83152 0.228908 0)
(2 1.2962e-13 0)
(2 -3.83279e-07 0)
(2 -9.52861e-08 0)
(2 -1.77444e-13 0)
(1.83171 0.228876 0)
(2 1.15819e-14 0)
(2 2.09984e-14 0)
(1.83171 0.228897 0)
(1.83178 0.229061 0)
(2 -2.21906e-13 0)
(1.9389 0.092948 0)
(1.9999 0.000749219 0)
(2 -8.55983e-14 0)
(2.00121 -0.00199883 0)
(1.82947 0.228506 0)
(2.05642 -0.103533 0)
(2 -1.25149e-07 0)
(2.06803 -0.125805 0)
(2.1048 -0.262481 0)
(2.10742 -0.26119 0)
(1.97972 -0.0547997 0)
(1.82956 0.228404 0)
(1.83396 0.226389 0)
(1.96349 0.0570105 0)
(1.83158 0.229046 0)
(1.83156 0.229167 0)
(2 1.26893e-13 0)
(2 7.88091e-14 0)
(1.82987 0.228702 0)
(1.82976 0.228619 0)
(1.83138 0.22864 0)
(1.82894 0.228478 0)
(2 -2.07962e-13 0)
(1.83131 0.228855 0)
(2.10578 -0.262478 0)
(1.83135 0.227938 0)
(1.82986 0.229326 0)
(1.82998 0.227864 0)
(1.83167 0.22941 0)
(2.04078 -0.0922061 0)
(2.03435 -0.0659177 0)
(2.02609 -0.0453727 0)
(1.8318 0.229092 0)
(2.0178 -0.0293267 0)
(1.83071 0.229078 0)
(2 1.12322e-13 0)
(2 4.71434e-14 0)
(1.83073 0.229632 0)
(1.83131 0.229434 0)
(2 -2.49315e-14 0)
(2.13544 -0.261349 0)
(1.82969 0.22956 0)
(1.83183 0.229028 0)
(2 -1.02846e-13 0)
(1.83215 0.228801 0)
(1.83193 0.228993 0)
(2 3.49257e-14 0)
(1.83182 0.228948 0)
(2.13705 -0.27243 0)
(1.83153 0.229192 0)
(1.83087 0.228529 0)
(1.83031 0.228831 0)
(1.82983 0.231765 0)
(2 -2.33558e-13 0)
(2 -1.28186e-13 0)
(2 -1.00895e-07 0)
(1.83191 0.228952 0)
(1.89167 0.158252 0)
(2.09589 -0.258244 0)
(1.83157 0.228809 0)
(2.12585 -0.269062 0)
(1.83192 0.228909 0)
(2 2.55208e-15 0)
(2 6.81694e-15 0)
(2 -3.48909e-14 0)
(2 -5.48537e-14 0)
(1.83179 0.228367 0)
(1.83158 0.228975 0)
(2 8.1669e-14 0)
(2 1.26182e-13 0)
(1.83159 0.228998 0)
(2.12866 -0.27095 0)
(1.83121 0.228588 0)
(2.10378 -0.262789 0)
(2 3.11222e-14 0)
(1.83292 0.227698 0)
(2 -1.15859e-14 0)
(2.13153 -0.269923 0)
(1.83084 0.229437 0)
(2.07819 -0.19022 0)
(2 8.42062e-14 0)
(1.83146 0.228747 0)
(1.83025 0.229924 0)
(1.83172 0.229578 0)
(2 -5.20139e-14 0)
(2 1.18164e-14 0)
(1.92188 0.111269 0)
(1.83055 0.229737 0)
(2.11791 -0.266589 0)
(1.83201 0.228949 0)
(2 -1.25147e-14 0)
(1.83194 0.229432 0)
(2.04655 -0.0827527 0)
(1.8318 0.229547 0)
(2.11759 -0.265362 0)
(2 -6.49574e-14 0)
(1.83173 0.229181 0)
(2.09022 -0.236322 0)
(1.83078 0.229637 0)
(2.12135 -0.267254 0)
(2 1.30898e-13 0)
(1.83151 0.229203 0)
(2 -1.05749e-14 0)
(1.82919 0.228544 0)
(2 5.16814e-14 0)
(1.90167 0.143401 0)
(1.8377 0.221985 0)
(1.86796 0.187933 0)
(2.12409 -0.27895 0)
(2 -2.22361e-14 0)
(1.83136 0.228968 0)
(2 -2.74636e-14 0)
(1.83152 0.229491 0)
(2 -1.18086e-07 0)
(1.83164 0.228989 0)
(2 -2.38334e-07 0)
(2 -5.22583e-14 0)
(1.83082 0.229075 0)
(2.00911 -0.0167847 0)
(1.83053 0.230253 0)
(2.11145 -0.264228 0)
(1.8558 0.201978 0)
(2 1.03356e-13 0)
(1.87759 0.172622 0)
(2 -1.18386e-13 0)
(1.83093 0.229682 0)
(1.83174 0.22897 0)
(1.83031 0.229246 0)
(2 2.61858e-13 0)
(1.84804 0.210413 0)
(1.83062 0.228599 0)
(1.84443 0.214227 0)
(1.89557 0.153096 0)
(1.82731 0.233273 0)
(2 1.8911e-13 0)
(1.88764 0.164651 0)
(2 -7.46664e-14 0)
(1.83083 0.229069 0)
(2 -8.50377e-14 0)
(1.97632 0.0336405 0)
(2 -2.85554e-14 0)
(1.84401 0.215028 0)
(2 1.45609e-13 0)
(1.83183 0.229583 0)
(1.83939 0.220307 0)
(1.83984 0.219887 0)
(2 1.94214e-13 0)
(1.83501 0.230724 0)
(2.1026 -0.266448 0)
(2 2.72164e-13 0)
(2.12858 -0.265603 0)
(2 -1.67238e-13 0)
(2 -2.48678e-14 0)
(2 -7.17815e-15 0)
(1.8278 0.228504 0)
(2 5.45361e-14 0)
(1.83159 0.229293 0)
(2 -8.16386e-15 0)
(2 3.66383e-14 0)
(2 1.10661e-13 0)
(1.83129 0.229432 0)
(1.8314 0.232605 0)
(1.86723 0.190494 0)
(1.83094 0.228257 0)
(1.83183 0.227424 0)
(2.0989 -0.266593 0)
(1.83109 0.232451 0)
(1.83104 0.228721 0)
(2 1.12847e-14 0)
(1.8458 0.213091 0)
(1.8316 0.228851 0)
(1.84264 0.215318 0)
(2 -9.86981e-14 0)
(1.83189 0.228803 0)
(1.82928 0.228609 0)
(2 -1.33501e-13 0)
(1.83007 0.231969 0)
(1.83149 0.228903 0)
(1.83094 0.22855 0)
(1.83101 0.229456 0)
(2 -1.62384e-13 0)
(2 -8.45456e-14 0)
(2 -1.32549e-13 0)
(1.8314 0.229358 0)
(2.09924 -0.275958 0)
(2 -2.65688e-14 0)
(1.83156 0.228924 0)
(2 -7.33494e-14 0)
(2 1.87743e-14 0)
(2.1106 -0.275615 0)
(2 1.25035e-13 0)
(2 7.02771e-14 0)
(1.83141 0.228849 0)
(1.83196 0.228888 0)
(2 1.47905e-13 0)
(1.83184 0.228882 0)
(1.83072 0.23264 0)
(1.8317 0.229124 0)
(2.00204 -0.0232197 0)
(1.8312 0.228879 0)
(2 -1.38253e-14 0)
(1.83117 0.228952 0)
(1.83153 0.229136 0)
(1.87695 0.181878 0)
(2 -7.10535e-14 0)
(2 -1.4706e-14 0)
(2 -1.02619e-13 0)
(1.83145 0.227903 0)
(1.83171 0.229288 0)
(1.83152 0.229159 0)
(2.01893 -0.040853 0)
(2 -1.05267e-13 0)
(1.8258 0.231018 0)
(1.83182 0.229191 0)
(1.83117 0.228556 0)
(2 2.47487e-14 0)
(1.83179 0.229186 0)
(1.83072 0.228944 0)
(1.83129 0.228884 0)
(1.82787 0.231902 0)
(2 1.88442e-14 0)
(1.83192 0.22868 0)
(1.83226 0.226749 0)
(1.84988 0.202026 0)
(1.8316 0.228518 0)
(1.82883 0.23183 0)
(2 -1.50314e-13 0)
(1.83112 0.228877 0)
(1.83364 0.226721 0)
(1.83148 0.229145 0)
(1.83195 0.228089 0)
(1.8316 0.229294 0)
(2.1044 -0.267693 0)
(1.8311 0.228725 0)
(1.83177 0.228483 0)
(2 -1.22371e-13 0)
(1.83157 0.229227 0)
(1.83135 0.228975 0)
(1.83159 0.228897 0)
(1.83191 0.22886 0)
(2 -4.38975e-08 0)
(1.83134 0.22922 0)
(1.83166 0.229372 0)
(2 -1.74212e-07 0)
(1.83185 0.229048 0)
(1.85897 0.197903 0)
(2 -3.34831e-14 0)
(2 -5.42309e-15 0)
(2 4.22749e-10 0)
(1.83226 0.228288 0)
(1.82987 0.231843 0)
(2 5.49488e-14 0)
(2 -5.58825e-14 0)
(1.90927 0.132449 0)
(2 -2.65388e-13 0)
(1.83172 0.228859 0)
(2 1.23957e-13 0)
(2 3.55146e-14 0)
(1.83171 0.229187 0)
(1.83095 0.229599 0)
(1.8318 0.229211 0)
(1.83162 0.229133 0)
(2 -3.97427e-14 0)
(2 2.17832e-13 0)
(2 -7.09206e-14 0)
(1.8811 0.164477 0)
(2 3.60006e-14 0)
(1.83189 0.228495 0)
(2 -2.05509e-13 0)
(2 -1.81274e-13 0)
(1.82983 0.22864 0)
(1.83062 0.22886 0)
(2 6.20115e-14 0)
(1.83162 0.228808 0)
(2.12037 -0.274798 0)
(1.83173 0.22896 0)
(1.83152 0.228983 0)
(2.08267 -0.212029 0)
(2 -6.25193e-14 0)
(2.12102 -0.276196 0)
(1.84704 0.203389 0)
(1.8313 0.228895 0)
(1.83178 0.228382 0)
(1.83211 0.228697 0)
(2.11409 -0.265561 0)
(1.83047 0.228769 0)
(1.83119 0.229676 0)
(2.11251 -0.263952 0)
(2.12057 -0.269827 0)
(2 -2.53039e-07 0)
(1.8314 0.229548 0)
(1.83133 0.229382 0)
(2 -8.7971e-14 0)
(2 -7.2295e-15 0)
(1.83133 0.228823 0)
(2 -1.82096e-13 0)
(1.82884 0.231307 0)
(2 2.42098e-06 0)
(1.85274 0.204923 0)
(2 1.02524e-13 0)
(1.9191 0.119466 0)
(1.83135 0.229214 0)
(1.83031 0.229785 0)
(1.87887 0.169038 0)
(1.83864 0.213791 0)
(1.82874 0.228633 0)
(1.82993 0.229038 0)
(1.8514 0.210615 0)
(2 -8.1701e-14 0)
(2.1214 -0.269387 0)
(1.83088 0.229268 0)
(1.83186 0.229166 0)
(1.82802 0.230347 0)
(2 6.82382e-06 0)
(2 2.97264e-10 0)
(2 1.46772e-09 0)
(1.82862 0.231182 0)
(2 -5.16186e-14 0)
(1.83206 0.229019 0)
(1.83167 0.228914 0)
(2.07193 -0.181725 0)
(2 -3.69213e-14 0)
(1.83158 0.228756 0)
(2.00002 -4.48935e-05 0)
(2 1.80927e-13 0)
(1.99999 1.90297e-05 0)
(1.99998 2.62708e-05 0)
(1.83163 0.229046 0)
(1.83241 0.228964 0)
(2.00053 -0.00092093 0)
(2 -1.20159e-14 0)
(2 3.99139e-14 0)
(1.83137 0.229427 0)
(1.83059 0.230152 0)
(1.83142 0.228579 0)
(1.83147 0.229783 0)
(1.83075 0.229804 0)
(2.11679 -0.25839 0)
(1.86776 0.189953 0)
(2 2.06679e-13 0)
(1.83293 0.227416 0)
(1.83186 0.229174 0)
(1.83204 0.229055 0)
(1.83492 0.224684 0)
(2 2.57287e-14 0)
(1.8319 0.228945 0)
(1.83641 0.223813 0)
(1.83115 0.229709 0)
(2 -2.36376e-13 0)
(1.83096 0.228801 0)
(1.83092 0.228164 0)
(2.0497 -0.103068 0)
(1.83206 0.229024 0)
(1.83084 0.228533 0)
(2 -1.05291e-14 0)
(1.83152 0.229171 0)
(2.04924 -0.125468 0)
(1.83148 0.229336 0)
(2.05278 -0.0930915 0)
(1.83188 0.228992 0)
(2 -1.34488e-07 0)
(1.83128 0.228923 0)
(1.8241 0.23179 0)
(1.83179 0.228922 0)
(1.83167 0.228992 0)
(1.83143 0.228811 0)
(1.83041 0.228744 0)
(1.83157 0.229248 0)
(1.83045 0.228222 0)
(2 -2.62417e-13 0)
(2.0261 -0.0512343 0)
(1.83142 0.229139 0)
(1.8319 0.229008 0)
(2.04399 -0.115949 0)
(1.83137 0.228914 0)
(2.00853 -0.0139355 0)
(1.8886 0.148968 0)
(1.83162 0.22921 0)
(1.83165 0.229132 0)
(1.83051 0.227279 0)
(2 1.29148e-13 0)
(1.83055 0.230359 0)
(1.88672 0.169512 0)
(1.8321 0.228445 0)
(2.02446 -0.055551 0)
(1.83067 0.230083 0)
(1.82484 0.230532 0)
(2 4.30152e-14 0)
(2.03825 -0.0821504 0)
(2 -3.28324e-09 0)
(1.83105 0.226263 0)
(2 -1.31075e-13 0)
(1.88483 0.165326 0)
(2 3.0454e-09 0)
(1.8392 0.229058 0)
(2.04543 -0.0842131 0)
(2 3.2478e-14 0)
(1.83009 0.230713 0)
(1.83902 0.225853 0)
(2 1.79962e-14 0)
(1.82935 0.229553 0)
(1.83074 0.229665 0)
(1.83295 0.23058 0)
(1.83344 0.233145 0)
(1.82768 0.230979 0)
(2 -1.79518e-13 0)
(1.83138 0.229113 0)
(2 -1.79017e-14 0)
(2 1.9248e-14 0)
(2 5.62986e-14 0)
(2.03718 -0.0640914 0)
(1.83177 0.229095 0)
(1.83144 0.228908 0)
(1.83068 0.229088 0)
(1.83154 0.228839 0)
(1.82689 0.232472 0)
(1.83004 0.229229 0)
(1.82968 0.231704 0)
(1.83163 0.229266 0)
(2.03305 -0.0574814 0)
(1.98709 0.0236019 0)
(2 3.52965e-09 0)
(2 -3.42629e-14 0)
(1.82255 0.232148 0)
(1.83175 0.229015 0)
(1.83164 0.22896 0)
(1.83174 0.229013 0)
(1.99999 1.65761e-05 0)
(1.91579 0.13027 0)
(2 -1.6594e-07 0)
(1.83013 0.23122 0)
(1.84776 0.214485 0)
(2 -3.50346e-12 0)
(2 -6.15641e-11 0)
(2.09731 -0.186452 0)
(1.83144 0.229163 0)
(2 1.23285e-13 0)
(2 -5.0634e-14 0)
(2.13954 -0.268984 0)
(1.83147 0.228983 0)
(2 7.57411e-14 0)
(1.83181 0.228876 0)
(1.83159 0.228827 0)
(1.82892 0.228445 0)
(1.83813 0.221685 0)
(1.83132 0.228901 0)
(2 -1.19766e-10 0)
(2.12519 -0.275847 0)
(1.96043 0.0641605 0)
(1.83075 0.228754 0)
(1.83123 0.228955 0)
(2 -1.4671e-13 0)
(1.83248 0.228403 0)
(1.83143 0.228844 0)
(1.91744 0.121375 0)
(1.99868 0.00615664 0)
(1.96714 0.0588458 0)
(2 -1.62302e-14 0)
(1.82912 0.228657 0)
(1.83137 0.22881 0)
(2 -1.18031e-07 0)
(2 -2.12579e-10 0)
(2.11492 -0.266401 0)
(2 -2.35826e-10 0)
(2 1.64851e-15 0)
(1.83173 0.228865 0)
(1.83167 0.228887 0)
(1.83112 0.229822 0)
(1.83147 0.229018 0)
(1.83151 0.228698 0)
(1.82748 0.228544 0)
(1.83151 0.229128 0)
(1.82991 0.230188 0)
(1.83122 0.229121 0)
(2 -2.81332e-14 0)
(2.00156 -0.00236552 0)
(1.83138 0.228997 0)
(1.83143 0.229326 0)
(2.00121 -0.00153572 0)
(1.83147 0.22889 0)
(1.83146 0.228955 0)
(2.11785 -0.263027 0)
(2.13145 -0.261205 0)
(1.83188 0.227797 0)
(1.82736 0.231381 0)
(2 -8.36789e-14 0)
(2 2.93183e-13 0)
(1.99906 0.00233626 0)
(1.8316 0.228719 0)
(1.83153 0.230123 0)
(1.83159 0.228981 0)
(2 1.02688e-09 0)
(1.83146 0.228821 0)
(2 -8.43939e-15 0)
(2.0533 -0.0977427 0)
(1.82827 0.231234 0)
(1.82892 0.234235 0)
(2 -1.17967e-13 0)
(1.92634 0.118432 0)
(1.83151 0.229247 0)
(2 -2.37623e-14 0)
(1.82849 0.227666 0)
(2 -1.03812e-10 0)
(1.83193 0.228785 0)
(1.89468 0.155092 0)
(1.83127 0.229354 0)
(2 1.30343e-11 0)
(1.83168 0.228465 0)
(1.83385 0.228785 0)
(2.11392 -0.266857 0)
(1.83137 0.228917 0)
(2 -1.18264e-07 0)
(1.83131 0.227577 0)
(1.83143 0.228515 0)
(2 7.18426e-09 0)
(2.11646 -0.259809 0)
(1.83157 0.229642 0)
(1.86453 0.187697 0)
(2.00062 -0.00110817 0)
(1.83059 0.231451 0)
(1.83134 0.229037 0)
(2 -5.44225e-12 0)
(2.00026 -0.00418276 0)
(1.83188 0.229252 0)
(2.00135 -0.00185699 0)
(1.83133 0.228961 0)
(2 -3.46817e-12 0)
(2 -7.32816e-14 0)
(1.83126 0.228571 0)
(2 -1.14699e-13 0)
(1.83149 0.227807 0)
(1.83139 0.228882 0)
(2.00129 -0.00232343 0)
(1.87683 0.175076 0)
(2 3.2569e-09 0)
(1.83135 0.228841 0)
(2 -4.34266e-10 0)
(2 -8.2864e-13 0)
(2 1.04896e-11 0)
(2 6.11491e-12 0)
(1.83181 0.229011 0)
(2 7.02593e-09 0)
(2 7.70761e-14 0)
(1.83543 0.227721 0)
(2 4.81899e-15 0)
(1.83139 0.229538 0)
(2 3.27213e-10 0)
(1.89048 0.158761 0)
(1.83303 0.227539 0)
(1.83135 0.228755 0)