/*--------------------------------*- C++ -*----------------------------------*\
  =========                 |
  \\      /  F ield         | OpenFOAM: The Open Source CFD Toolbox
   \\    /   O peration     | Website:  https://openfoam.org
    \\  /    A nd           | Version:  12
     \\/     M anipulation  |
\*---------------------------------------------------------------------------*/
FoamFile
{
    format      ascii;
    class       volScalarField;
    location    "2.7";
    object      T;
}
// * * * * * * * * * * * * * * * * * * * * * * * * * * * * * * * * * * * * * //

dimensions      [0 0 0 1 0 0 0];

internalField   nonuniform List<scalar> 
22702
(
1
1
0.962637
1
1.01838
1
1.12055
1
1
0.890482
1.12062
1.12068
1
1.11846
0.968638
1
1
1
1.12041
1
1.11866
1
1.11908
0.897358
1.11885
0.888575
1
1.11977
0.897265
0.896562
1
1.12056
1
1
1
1.11061
1.11863
1.11925
1
1
0.890281
1
1.06284
1
1.11977
1
1
1
1
0.898348
1
0.89681
1
1.12059
1
1.12067
1
1
1
1
0.88879
1
1
0.896937
1
0.896679
1
1
1
0.889218
1
1.11868
1.07576
1
1.11867
1.12531
0.896823
1.11964
0.89927
1
1.12091
0.897735
1.1198
1.11968
1
1
1
1
0.981424
0.889342
1.12097
1
1
0.88943
1
1.11871
0.889299
1
1
1
1
1.06258
1.1207
0.888892
1
1
1.03194
1
0.897737
1
1.11982
1.12055
1
1
0.884697
0.886365
0.889532
1
1
1
1
1
0.976022
1
1.10337
1.01294
1.1196
1
1.11974
1.12053
1.11845
1.12101
1
0.889208
1
0.889632
1
1
1
1
1.12063
1
1
1
1
1.11875
1
1.00752
1
1
1
1
0.897169
1
1.003
1
0.900308
1
1
1
1.12061
1
1.11872
0.884625
0.888862
1.11881
1.11877
1
1.02354
1.07131
1
1.12064
0.899504
1.11086
1
1
1
1
1.1185
1.10109
1
1.1206
0.897556
1.12059
1
0.898471
1
0.897931
0.888455
0.999938
1
1
1.11978
1
1
1.11855
1
1.11979
1.12057
0.899124
1
1
0.896662
1.11851
1
1
1
1.11852
1
0.891045
1
1
1.11854
1.11855
1.1197
1
1.00001
1
1
1
1.11856
1
0.896856
1.12365
1.11854
1.11845
1
1
1
0.893238
1.1185
1.05823
1
1.11893
0.8947
0.893674
1.11893
1.11867
1
1.11809
0.884657
1.10629
1
1
1
1
1.11856
1
1.07378
1.01231
1
1
1.11853
0.889008
0.930178
1
1.11841
0.889701
1.11862
1
1
1
1
1
1
1
0.89668
0.928958
0.891891
1.11851
1
1
1
1
1.10849
1
0.898518
1
0.890067
0.897973
1.11844
0.896818
1.11864
1
1
1
0.999345
0.897867
0.884738
1
1
0.888078
1
1.1204
0.888508
1
1
1.12095
0.885726
1
1.11885
0.888998
1.11854
1
0.893145
0.999343
1
1
1
0.897191
1
1
1
1
1.00395
1.07617
1
0.890891
1
1
1
1
1
1
1
1.12097
1
1.1207
1
1
1
0.889031
1
1.11874
0.896807
1
1.09684
1
1
1.121
1
1
1
1.11848
1
1
1.11574
1.12099
1
1.02698
1
1
0.88956
1
1
1
0.889469
1
1
1
1
0.888258
1
1
1
1
1
0.888836
1.00002
1.1187
1
0.999994
1.11871
1.11893
1
1
0.901296
0.945302
1.12067
1
1
1
1.1185
0.889226
1
1.11871
1
1
0.909053
0.906052
1
0.897383
0.889035
1
1
1
1
1
1
1
1.1197
1.03312
1.11567
0.889005
0.972288
1.12082
1
1.11871
1.12055
0.889578
0.933857
1
0.889623
1
1.12467
1
1
1
1
1.11854
1
1
1
1
1
1
1
1.0466
1.12009
1
1.11854
1
1
0.898748
1
1
1
1
1.11852
1.09283
1
1
0.897904
1.11859
1.11855
1
1.11855
1.11857
1.11855
1
0.951743
1
1.11854
0.998921
1.11856
1
0.889851
0.999681
1.12065
1
1
1
1
0.896356
1.11841
1.1084
1
1.11867
1.11852
1.12052
1
1.05951
1.11869
1
1
1.0852
1.01787
1.11851
0.98251
1.11852
1
1.11854
1.1185
1.11854
1.11862
1
1.11586
0.973139
0.968471
1
1
1
1
1.11934
1
1
1
1
1
1.12056
1
1
0.998881
1.11854
1.10304
1
1.09996
1.00001
1
1
1.11868
1
0.999192
1.00134
1
1.11857
1
1.11874
1
1
1.09068
1
1.11869
1.00001
1
1.11853
1
1.11852
1
1
1
1.11856
1
1.11922
1
1.11854
1.1206
1.11855
1.11958
1
1.12087
1.1166
1
0.89753
1.11191
1.08772
1
1.11855
1
0.889216
0.888995
1
1
1
1
1
0.888988
1
1.11855
1.03482
1.11865
1
1
1
1
1
1.11848
1
1.1186
1.07407
0.934539
1
1
1.03743
1.0326
1
1
1.04729
1
0.900595
1.11851
1.11854
1
1
1
1.12055
1
1.00001
1.11831
1.11844
0.987906
1
1
0.898367
1.10889
1
1
1
1
1
1.11853
1.12091
1
1.11848
1.11912
1.11855
1
1
1
1
0.888477
1.12064
1
1
1.10889
1.11826
1
1.1123
1.12008
1
1
1
1
1
1.11857
1
1
1
1
1.11875
1
1.11801
0.889297
1
0.889044
1
1
1
0.999138
0.896665
0.999726
1
1
1
1.01808
1
1
0.963813
1
1
1
1
1
1
1
0.999999
0.979646
1
1
0.999304
1
0.896154
1
1
1
1
1.09123
1
1
1
1
0.897827
1
1
1.11231
1.1205
1
1
1
0.968495
1
1
1
1
1
1
0.988618
1.00438
1.11863
1
1
1
1.11873
0.971143
1
1
1
1.11971
1.11917
1
1
1
1
1
1
1
1
1
0.889606
1
1
1.11984
0.890211
1
1.11955
1
0.897569
1
1
0.889438
1
1
1
1
1
1
1
1.1165
1.11833
1
1
1
1
1.10916
1
1.04121
0.896796
1
1
1
1
1
1
1
1.01254
1
1
1.0652
1
1
1
1.09909
1
1
1
1
0.888987
1
1
0.88493
0.889151
1
1
1.1185
1
1.00897
1
1
1
1.0857
0.885086
1
0.884
1
0.93388
1
1
1
1.11884
1
1
1.11857
1
1
1
1.11858
1
1
1.11857
1
1
0.889767
1
1.04073
1
1
1.12088
1.12077
1.08207
1.1072
1
0.889466
1
1
1.11381
1
0.888679
1
1
1
1.11865
1
1
1
1
1.07446
1
1.11044
1.11881
0.889293
1
1
0.888901
0.888788
1
1
1
1.08708
1.09237
1
1
1
1
1
1
1
1.05441
1.12048
1.00239
1
1.11729
0.889131
1
1
1
1.06846
1
1.02497
1
1.10925
1.11805
1
0.890173
1
1.12081
1
1
1.11868
1.11192
1
1.12166
1
0.895627
1
1
1
1.11906
1.11645
1.10567
1
1.11902
1.11858
1
1.11877
1
1.11807
1
0.889384
0.995306
0.88762
1
1
1
1
1
1.11853
1
1.11852
1
1
1
1.11329
1
0.89769
1.11859
1
0.897157
0.894971
0.889022
1
1.06199
1.01297
1.11893
1.11859
1
1
1
1
1.11858
1
1
1.11856
1.11859
1
1.04474
1
1
0.999077
1.12053
0.957311
1
0.945774
0.900783
0.899965
0.994683
1.11897
1.11702
1.0261
1.11863
1.11864
1
1
1.12072
1.11992
1.11851
1.12081
1
1.11855
0.896044
1.11933
1.11886
1.11974
1.11924
0.962043
0.971827
0.979784
1.11858
0.990069
1.11851
1
1
1.11897
1.11855
1
0.889808
1.11882
1.11861
1
1.11857
1.11857
1
1.11855
0.897171
1.11929
1.1206
1.12089
1.11962
1
1
1
1.11859
1.07996
0.89258
1.11857
0.88679
1.11859
1
1
1
1
1.11881
1.11861
1
1
1.11858
0.887153
1.11868
0.897076
1
1.11777
1
0.891485
1.11888
0.918722
1
1.11858
1.11914
1.11873
1
1
1.06193
1.11896
0.897609
1.11855
1
1.11858
0.964901
1.11869
0.88969
1
1.11835
0.899399
1.11897
0.896191
1
1.11862
1
1.11934
1
1.07242
1.11459
1.09537
0.884701
1
1.11864
1
1.11859
1
1.11858
1
1
1.11868
0.997186
1.11918
0.894522
1.1061
1
1.08598
1
1.11877
1.11858
1.11875
1
1.10763
1.11864
1.11064
1.07592
1.11614
1
1.08134
1
1.11877
1
1.01922
1
1.1107
1
1.11859
1.1135
1.11345
1
1.11744
0.888562
1
0.889032
1
1
1
1.12049
1
1.11869
1
1
1
1.11878
1.11712
1.09903
1.11921
1.11942
0.889476
1.11852
1.12074
1
1.10492
1.11858
1.11436
1
1.12075
1.12083
1
1.12001
1.11862
1.1186
1.11886
1
1
1
1.1186
0.887893
1
1.11859
1
1
0.888972
1
1
1.11858
1.11846
1
1.11855
1.1202
1.11868
0.995145
1.11856
1
1.11856
1.1186
1.0971
1
1
1
1.11909
1.11863
1.1186
0.986293
1
1.1206
1.11869
1.11851
1
1.11869
1.11874
1.11856
1.12075
1
1.11856
1.1183
1.10532
1.11839
1.12036
1
1.11974
1.11735
1.11861
1.11926
1.11847
0.888753
1.1187
1.11837
1
1.11863
1.11861
1.11854
1.11854
1
1.11862
1.11864
1
1.11858
1.10125
1
1
1
1.11858
1.11947
1
1
1.06786
1
1.11847
1
1
1.11863
1.11893
1.11857
1.11862
1
1
1
1.08746
1
1.11855
1
1
1.12071
1.12075
1
1.1186
0.885334
1.11855
1.11901
0.911978
1
0.885176
1.10559
1.11911
1.11865
1.11872
0.888905
1.11866
1.11883
0.889158
0.886178
1
1.1186
1.11857
1
1
1.11856
1
1.11844
1
1.10522
1
1.05902
1.11854
1.1191
1.08774
1.1082
1.12059
1.11888
1.11189
1
0.888787
1.1189
1.11852
1.11983
1
1
1
1.11964
1
1.1185
1.11854
0.925002
1
1.11853
0.999982
1
1.00001
1.00001
1.11852
1.11853
0.999565
1
1
1.11859
1.11898
1.11853
1.119
1.11898
0.891507
1.102
1
1.11775
1.11857
1.11854
1.11794
1
1.11856
1.11564
1.11882
1
1.11866
1.11875
0.958349
1.11853
1.11871
1
1.11851
0.953271
1.11861
0.958593
1.11858
1
1.11861
1.12351
1.11858
1.11861
1.1186
1.1192
1.11868
1.11942
1
0.981562
1.11865
1.1185
0.954524
1.1186
0.996644
1.07786
1.11861
1.11867
1.11895
1
1.11916
1.07997
1.11835
0.976404
1.11905
1.12162
1
0.96176
1
1.11747
1
1.08459
1
1.11542
0.961762
1
1.11898
1.11899
1
1.1189
1.11897
1.11927
1.1182
1.11945
1
1.12065
1
1
1
0.971527
1.11855
1.11856
1.11873
1.1186
1.11914
1.11874
1.119
1.11869
0.971666
1.00895
1
1
1.12391
1.11864
1.11855
1.11853
1.00001
1.06387
1
1.11988
1.10547
1
1
0.920191
1.11861
1
1
0.89708
1.11855
1
1.12069
1.11854
1.12076
1.11444
1.1186
1
0.886799
1.03158
1.11868
1.11861
1
1.1185
1.11857
1.06395
1.00254
1.0283
1
1.11953
1.11858
1
1
0.888766
1
1
1.11858
1.11861
1.11881
1.11854
1.11851
1.12086
1.11865
1.11886
1.11848
1
0.998924
1.11877
1.11859
0.999137
1.11858
1.11858
0.889563
0.889303
1.11837
1.11925
1
1
1.00034
1.11852
1.11877
1.11855
1
1.11859
1
0.958257
1.12002
1.11936
1
1.05852
1.11865
1
1.12011
1
1.11855
1.083
1.11893
1
1.11842
1.12017
0.888755
1.11856
1
1.11861
1.12017
1
0.889753
1.11852
1.09983
0.999326
1.11587
1.11861
1
1.0008
1.11931
0.999359
1.11857
1
1
1.11887
1
1.11914
1.11856
0.999004
1.09538
1
1.11857
1
1
1
1
1.11852
1
1
1.11729
1
1.11861
1
1.07913
1.11806
1.11852
1
1
1.00161
1
1.11857
1.11855
1.11872
1.11862
1.11876
1.11848
1.11863
1
1.11853
1.11861
1
1.11856
1.11858
1
1.11886
0.980266
1.0171
1.11854
1.11858
1.11856
1
1.11863
1
1.11848
1.11855
1
1.1185
1
1
1
1
1.11862
0.887582
0.999393
1
1.11858
1.11817
1
1.11853
1
1.00138
0.892081
1.1186
0.999883
1
1.11846
0.999514
1.11859
1
0.999935
1
1.11868
1.11975
1.11836
1.11914
0.894373
1.11868
1.11828
1.11867
1.03175
1
1
1.05467
1.11851
0.88631
0.893166
1
1.11869
1.11857
1.11823
1
1
1.11821
1.11842
0.999965
1
1.08891
0.885419
1
1.02342
1.12054
1.11759
0.999505
1.11854
1.12094
1
0.99972
1
1.11845
1.12025
1.05132
1
1.11244
1
1.00047
1.11874
0.889703
1.11853
1.11857
0.99914
0.999975
1.105
1
0.999911
1
1.11887
1
1
0.885194
1.1186
1
1
1
1
1.11852
1.07073
1
1
0.888607
1.11856
1.07108
1
1
1
1.11355
1.11869
1.11959
1
1
1.11836
1
1.11858
1.1186
1
1
1.11897
1.1186
1.11431
1
1
1.11901
1.11894
1
1
1
1.11891
1
1
1
1.11853
1.11928
1.11917
1
1.11842
1.00001
0.907433
1.11855
1.11854
1
1.12057
1.11457
1.12061
1
1
1.11944
1
1.06783
1.11853
1
0.889577
1
1.11905
1
1
1.11805
1
1
1
1.03984
1.11848
0.900233
1
1.11891
1
1
1.11872
1
1.11944
1
1
1.11861
1.11855
1
1.00002
1
1
1
1
1
1
1.11945
1.11859
1
1.12058
0.890244
1.11997
1
1.11844
1.11872
1.11861
1.11922
1.12185
1
1
1.1181
1
1.07862
1.11958
1.11861
1
1.11914
1.11783
1
1.10642
1
1.11843
1.08019
1.11821
0.999289
1.1173
1.11012
1.11881
1.11871
1.01071
1.11856
1.1193
1
1.11856
1
1.11856
1
1
1
1
0.998918
1.11854
1.11853
1.10298
1
1.11927
1
1
1
0.884601
1
1.11609
1
1.10891
1.11555
1
1
1
1.11028
1.12062
1
1
1.11887
0.890232
1.02194
1
1.11954
1.11851
1.1091
1.11592
1.1185
1
1.11834
1
1
1
1
1.1183
1.11869
1
1.11678
1.01573
1.11855
1.11141
1
1
1.11172
1
1
0.892299
1.08549
1
1
1.119
1
1.11939
1.10909
1
1.10879
0.89052
1.11862
1.11851
1.11872
1
0.896057
1
1
1
1.11854
1.10143
1
1.11817
1.11855
1
1.11863
1
1
1
1
1.11854
0.999815
1
1.11902
1
1
1.11737
1.1185
1
1.11959
1.02402
1.00001
1
1.11867
1
1.1187
1
1.00371
1.11857
1
1.11856
1
1
1.03924
1.1187
1
1
1
1
1
0.998948
0.889892
0.888992
1.00575
1
1.00947
1
1.00941
1
1.11856
1
1.0738
1
1.11861
1
1
1
1.11863
1
1.09714
1.11841
1
1.06603
1.11865
1
1
1.12024
1.11848
1
1
1.01495
0.885383
1
1.11883
1
1
1
1
1.02206
1.11851
1
1
1
0.891726
1
1.11861
1.11847
1.12075
1
1
1
1
1.0619
1.1196
1
1
1
1.11908
1.11851
1.01494
1
1
1
1.11869
1.11853
1
0.88906
1.11848
1.11861
1.11838
1.11843
1.11922
1
1
1.11818
1.1186
1.11857
0.895006
1.01143
1.11862
1
1
1
1
1
1.11854
0.891334
1
1
1.11855
1.05748
1
1.11834
1
1
1
0.89216
1
1
1.0338
1.11847
1.11854
1
1.11841
1.1194
1
1.02179
1
1.11875
1
1.1187
0.890253
1
1
1
1
1.11862
1.00002
1
1
1
1.11457
1
1
1
1
1.11844
0.891011
1.09531
1.11922
1
1.11861
1
1
1
0.999176
1
1.11926
1
0.944534
1
1
1.00001
1.11867
0.89154
1
1.11835
1
1.11909
1.11856
0.892201
1
1
1.11401
1
1
0.897352
1
1.11838
1
1.11384
0.999804
1.11835
1
1
1
1
1.1203
1
1
1.11863
1
1
1
1
1
1
1
1
1.08088
1
1.0403
1.11849
1
1
1
0.890237
1
1
1
1
1.11825
1.11854
1.016
1
1
1.11889
1
1
1.11873
1
1
1
1
1
1
1.11842
0.934148
1.11854
1.11903
0.999188
1
1
1
1.07334
1
1
1.11877
1.11859
1
1
1
1
0.89142
1
1
1
1.07805
1
1.11857
1.11933
1
1.11886
1
1
1
1.06765
1
1.12071
1
1.11854
1
1
0.998946
1.1185
1
1
1
1
1
1.11899
1.00001
1
0.894051
1.11849
0.895068
1
1.11913
1
0.998853
1
1.11883
1.11844
1
1.11896
0.967401
1.11856
1.11766
1.00001
1
1
0.890623
1
1
1
1.11854
1.07199
1.11905
1
1
1
1
0.999092
1.11888
1
0.890256
1
1
1
1
1
1
1
1.12027
1.11845
1.11934
1
1
0.999117
1
0.99413
1
1
1
0.889837
0.994051
1
0.888041
0.890976
1
1.11872
1.11857
1
1.11858
1.11851
0.890262
1.0862
1
1
1
0.890165
1.11853
1
0.889713
1
1.11892
1.02308
1
1
1
1
1.11863
1.11991
1
1
1.1185
1
1
1.12012
1.11863
1
1.10892
1.11857
1.12012
0.990177
1.1189
1.00251
0.890374
1.09346
1.11859
1
1
1
0.889868
1
0.890151
1.11874
0.990032
1.11856
0.98785
1
1.11833
1.05742
1
1
1.11856
1
1.0524
1.11826
1
1
1.11869
1.11992
0.889951
1.07228
0.99997
1
1.07489
1
1.11887
0.985882
1.12127
1.11873
1
1
1
1
1.11494
1
1
1.11845
0.999897
1.11868
1.09904
1.11886
0.893435
1
1
1
1
1.11868
1.00001
1.11859
1
1.11883
1.11857
1.01651
1.11934
1.03941
1.11867
1
1.08432
0.896936
1.11893
1.11849
1.09542
1.02284
1.11958
1.11856
1.11848
1.11871
1
0.978127
1.01858
1
1.11853
1.05986
1.11863
1.00001
1
1
0.901858
1.11831
1.11942
1.09851
1
1.04914
1
1.11908
1.11925
1
1.11869
1.11911
1
1
1
1.11892
1
1.05028
1.11925
1.08502
1
1.11844
1
1
1
1
1
1
1
1
1
1
0.896652
1
1.11128
0.888752
1.07307
0.999589
1.11822
1
1.06572
1
1.07946
1.10159
1
1.00053
1.11927
0.975981
1
1.11917
1.11472
0.985081
1
1.11835
1.11868
1.11908
1
1.1185
1.11856
1.11908
1
1.05831
1
1.00002
1.11866
1
1.11881
1.01916
1.11889
1
1
1.11905
1.11901
0.901357
1
1.1187
1.09158
1.11837
1
1
1.11991
1.11917
0.999499
1
1.10961
0.999113
1.1186
1.00001
1
1
1
1
1.05787
1
1.09166
1.11837
1.09109
1.11828
1
1.00076
1
1
1.11995
1
1.11916
1
1
1
1
1
1
1.01542
1.0648
1
1
0.890997
1
1.11827
0.898472
1.11883
1
1.0642
0.999929
1.1187
1.07871
0.897632
1.06863
1.00001
1.11862
1.11922
1
1.07477
1.11845
1.1187
0.999545
1.11991
1.11559
0.888005
1
1
0.999158
1
1.1179
1
0.899562
1.1183
1
1
1.10592
1
1.11843
1
1.11848
1
0.897284
1
1
1.11885
1.11952
1.1186
1
1.11883
1.11859
1.11762
1
1
1.11851
1
0.92282
1
1
1
1.11867
1
1.11854
1.08037
1.11884
1
1.11854
0.999822
1
1
1
1
1
1
0.911883
1
1
1.11857
1
1.11855
1.1181
1
0.892135
0.890827
1
1.11894
1.02128
0.891157
0.885493
1
1.11851
1
1.11826
0.889
1.00042
1
1
0.999859
1
1
1
0.999975
1.05273
1.11863
1
1
1.11881
1.07297
1
1.10684
1.11865
1.11871
1.05307
1.11648
1
1.11858
1
1.11559
1
1.11801
1.11877
0.999144
1.1187
1.11859
1
1
1
1
1
0.976242
1.12007
1.00001
1.00001
0.89229
0.999994
0.889763
0.886221
1
1.11869
1.11871
1.11865
1
1.1185
1
0.892239
1
1
1.11868
0.950763
1.11836
1
1.1187
1
0.996376
1.11869
1
1
1
1.11851
1
1.11874
0.89024
1
1
1.07239
1
1
1.06843
1
1
1.11862
1
1
1
1
1
1.11907
1.11846
1
1.11877
1.11877
0.889464
1.05776
1.11892
1
1
1.10788
0.999718
1
1
1.11854
1.11889
1.08062
1
1.1187
0.893701
1.11213
0.999841
1
1.11831
1.00001
1.11886
1.09969
1.09286
1
1
1.11853
0.911656
0.891694
1
1.11857
1
1.11847
1
1.074
1
1
1.11837
1.07922
0.890215
1
0.999549
1
1
1.00739
1.05215
1.11855
1
1.11885
1
1
1
1
1
1
1.01918
0.889964
1
1
1.01179
1
1
1
1
1
1.11884
1
1
1.1185
1.11852
1.08923
1
1
1
0.953013
1.11936
1.08555
1
1
1
1
1.1187
1
1
1
1.11875
1
1
1.08836
1.1228
1.01326
0.925478
1.1182
1.08672
1.11876
1
1.06322
1
1
1
0.888391
1.00058
0.895442
1
0.88904
0.884263
1
0.888887
1
1
1
1.05658
1
1.1187
1.11881
1.00038
1.06113
1.10141
0.890252
0.929474
0.966179
1
1.11851
1.11987
1.11851
1.1186
1.10344
0.965292
1
1.10405
1
1.11558
1
1
0.998988
1.00302
1
1
1
1.11898
1
0.890314
1
1.1188
0.895211
1
1
1.11859
1
1.11854
0.999841
1
1
1.1188
1.10745
1
1.12278
1
1
1.00425
1
1.05712
1
1
0.889097
1
1
1.11877
1
1.11881
1
1.00001
0.892539
1
1
0.89637
1.00031
1
1.11954
0.889547
1.11954
0.889564
1.1187
1
1
1
1
1
1
1
1
1
1
1
1.11419
1
1.11905
1.12
0.889735
1
1
1
1
1
1
1.11565
1
1
0.892091
1
1
1.1198
1
1
1.04745
1.10093
0.890051
0.888722
0.906068
0.922308
1
0.999029
0.895183
1.00014
1.11287
0.99912
1
1
1.11872
1
1
1
0.931131
1
1.04484
1
1
1.05209
1.1186
1
0.889449
1
1
1
0.999061
1
1.11838
1.11857
1
0.889513
1
1.06785
0.889965
1
0.966038
1
0.998708
0.883296
1
1
1
0.998887
0.890542
1
0.889531
0.999545
1.066
1.10833
0.888773
0.89236
1
0.997425
1
0.999611
1
1.11838
1.11868
1
1.00726
1.11868
1.11845
1
1
1.11856
1
1
1.00001
1
1.12003
1
1
1.00521
1
0.999594
0.904036
1
1
1
1
1
1.11839
1.01171
1.00001
1
1
1
1
1
1.00001
1
0.889833
1.03066
0.999601
1.11537
1.11898
1
1.00477
1.11867
1.10433
1
1
0.887324
1.11867
1
1.11969
1
1.11883
1.08144
0.89004
1
0.889959
1.11327
0.999908
1
0.890115
0.888735
1
1
1.10156
1
1
0.887211
1
1
1
1.04158
1
0.889944
1.11826
1
1
1
1
1.11865
1
1
1.11832
1.10754
1
1
1
1.1192
0.887536
1
1.11862
1.1186
1
1.09692
1
1.00001
1
1
1.11057
1.00714
1
0.894382
1.06643
1
1
0.999263
1
1
1.11867
1
1
1.00001
1
1.11899
1
1
1
1
1
1
1
1.05605
1
1.11862
1
1
1.11892
1
1
1
1.11847
1.11832
1.01302
1
0.999326
1
1
1
1
1.1202
1
1
1.11861
0.890385
1
1
1
1
1
1
1.09788
1
1
1.11835
1.11891
1
1
1
1.11872
1.1183
1
0.999912
1.11808
1
1
1
1.00001
0.893795
1.00844
0.998925
0.998896
1
1
0.887604
1.11881
1
0.889159
1
1.1188
1.11418
0.890506
0.999831
1.11858
1.1188
1.11856
1
1
0.980144
1.10948
1.09962
0.889094
1
1
1
1.11877
1.11864
0.888026
0.999224
1
1.11857
0.891191
1
1.11622
0.890691
0.992816
1.00196
1
1.11878
1
1
1
1
1
1
1.00003
1.11114
1
1
1.11825
1
1
1
1.11854
1
0.88992
1
1
1
1.04437
1
1
1
1
1
0.935945
1
0.892641
1
1.11851
1.00002
0.960516
0.962896
1
1.00094
1.06567
1
1
0.889857
1.11846
1.11853
1.11856
1
0.886526
0.889049
1
1.11857
1
1
1
1
1
1.00001
1
0.894197
1.07913
1
1
0.890011
0.997259
1
1
1
1
0.882933
1
0.90289
1
1
1.11991
1
1
0.889641
1
1.11856
1
0.889969
1
0.890881
1
1.00216
1.11877
1.12251
1
1
1.12008
1
1
1.03046
0.99908
1
0.999468
1
1.11908
1
0.894398
1
1.12069
0.999716
1
1
0.938682
1
0.999721
0.888314
1.11868
1.04721
1
1
0.97305
1
1
1
0.93858
1
1
1
1.1186
1
0.890681
1
1
1
1
0.888636
1.11856
1.11163
0.889146
1
1.11974
1
1
1.11856
1.11962
1.10152
0.889305
0.99936
0.99978
1
1.11857
1
1
1
1
1.11882
1.00001
1
1
1.11874
1
1
1.1186
0.889561
1
1
1
0.893207
1
1
1
0.999617
1
1
1
1
1.09283
1
1.11982
1.11875
1.12126
1.11863
1.1189
1.11859
1
1.11868
1
1.1185
1.11861
1
0.999672
0.889645
1.103
0.999967
1
1
1
1
1.00181
1
1.01979
1
1
1
0.955724
1.11861
1.1186
1.11936
1.1059
0.999964
1
1.00663
1.1189
0.999402
1.01685
0.999143
0.889438
1
1.00001
1
1
1
1
1
1.11864
0.890204
1.11862
1.1186
0.99848
0.888512
1
1
1
1.1184
0.888808
1.10603
0.88746
1.1185
1.11939
0.891851
1.11833
1.00711
1
1.11927
0.939462
1
0.999648
0.889067
1
0.889823
1
1.11861
1.11855
0.928458
1
1.11942
0.889709
1
0.890653
1
1.11864
1
1
1.11666
1
0.952199
1
0.999912
0.890332
1.11702
0.999852
1
0.889157
1
1
1
1
1.0696
1
1.11843
1
1
1.12293
1
1
1.11858
1
0.891652
1
0.894439
1
1
1
1
1
1.11393
1.07338
1.11855
1
1.11855
1.11105
0.88342
0.889287
1
1
1.11824
1
0.890671
1
0.997084
1
1
1.1187
1
1.11882
0.889108
1.12045
1
0.889059
1
1
1.11896
1.11819
1
1.00001
1
1.11929
1
1
0.886862
0.999816
0.891323
1
1
1
1.11894
1.11764
1.11956
1
1
0.888876
1
1.11926
1
1
1
1.11634
1.11861
1.11865
0.889141
1.11904
1.11854
0.892131
1.11954
1.00001
0.894359
1.00523
1
1
1.11849
0.888847
1.07841
0.888644
1.11855
0.999257
0.888125
1.11904
1
1
1
1
1.11843
1.11985
0.890766
1
1.00001
0.890857
1.00001
1
0.887712
0.893219
1.08575
1.11849
0.999565
1.11859
1
1.11929
0.946738
0.890539
1.11859
1.12176
1
1.11862
1
1
1.11856
1
1.09344
1.11968
1
1
1
1
1.11859
1.11733
1.1183
1
1
1.11821
1.12051
1.11888
1
1.11857
1
1
1
1
1
0.88973
0.954644
0.888976
1
1
1.11874
1
1
1.11882
0.885284
1
1.11852
1.11738
1.11398
0.884598
1
0.889133
1
1.00001
1.11972
1.05879
1.12008
1.10936
1
0.889245
1
1.1182
1.08766
0.892973
1
1
1
0.94067
1
1
1.12151
1
0.894156
1.11856
1
1
1
1
1
1.0974
1.029
1
1.11869
1
1.1188
1
0.999269
1
1.11875
1.11884
1.11862
1.11946
0.999879
1.11992
1
1.11854
1.11853
1.10191
1
1
0.889668
1.1197
1
1
1.11933
1.11857
1.11891
1
1.11866
1
1
1.00001
1.11895
1.11868
1.03696
1.02858
1.11862
1.11861
0.904607
1
1
1
1
1.00001
1.04522
1
1
1.09996
0.893575
0.999989
1
1.11853
0.99997
0.999944
1.01984
1.10748
1.12022
0.975089
1
0.889712
1
1.00187
1.11861
1.11921
1.11709
0.999718
1
1
0.889753
1
1
1.11861
1.01395
1
1
1
1
1
1
1
0.999982
1.11956
1
1
1
1
1
1.07824
1
1.0593
1
1
1.11854
1.11986
0.892876
0.999655
1
1
1
0.890595
1.11967
1.11857
1
1
1
1
1
1
1
1
1.11874
1.11837
0.890819
1.01443
0.893902
1
0.889557
1
1.11875
1.03491
1
1
0.909506
1
1.11407
0.944155
0.999084
0.888011
1
1
1.1194
1.00001
0.999176
0.884248
1.11967
1.12085
1
1
1
1
1.11145
1
1
1.1185
0.999699
1.11913
1.00002
1
1
0.888991
1
1
1.11885
0.888977
0.933905
0.89465
1.11857
0.999802
1
1.11916
0.88884
0.88929
1.00591
1
1
1.12
1.00001
1.05635
1
1
1.12004
0.892371
1
1
1.00004
1.11939
1.00004
1.11596
1
1.00001
1
1
0.9146
1
0.936924
1
1
1.11908
0.888942
1
0.934255
0.938979
1
1
1.11882
1
1
1
1.11875
1.11844
1.00001
1.11678
1.12015
0.934524
1.11854
1.11233
1
1
1.11797
1
1
1
1
1
1.11957
1.11849
1
1
1
1.11884
1.00006
1
0.890434
0.912853
1
1.00001
1.04678
1
1
0.971513
0.893997
1
1
1
1.11981
1.10973
1.11858
1
1
1
1
0.889976
1
1.1166
1
1.11775
0.888991
1.11856
1
1
1
0.889122
1
1.11914
1.00001
1
0.891254
1.04673
1
0.999903
1.11936
0.886261
0.889082
1
1.1196
0.885015
0.890115
1
0.889039
1
1
1
1
0.888831
1
1
1
1
1.11943
1
1.09338
0.888934
1
1
1
0.89003
1.11862
1
1
0.999045
1.11639
1
1.11853
1.11927
1
1
0.916321
0.88895
1
1
0.890688
1.04034
1.05799
1
1
1.11951
0.999242
1
0.999281
1.12033
1
1
1
1
1
1
1.11879
1
1.04474
1.04152
0.902273
1.10619
1
1.11842
1.1186
1
1
1
0.975663
0.89056
1
1.06519
0.999903
1.10371
1
1
1
1
1
1.0017
1.05678
1.11882
1.11871
1
1.11858
1
0.897658
1
0.999288
0.999935
1
0.887182
1
0.893675
1.00001
1.11936
1.1199
0.888401
1.11989
0.889077
0.998879
1.09315
0.889492
1.08678
1
1
0.999543
1
1
1
1.00002
1
0.889584
1
1
1
1
0.999884
1.11868
0.941292
1
1
1
1.0107
1
1
1
1.07
0.924853
1
1
1
1.01624
1.12002
1
0.888665
1
1.11895
0.971616
0.889368
1
0.890628
1
1
1.11275
0.999493
1.11148
1
1.00253
1
1
1.11857
1
1
1
1
1.02665
1
1.11863
1.11891
1.11956
0.889253
1.1186
0.99916
1.09906
1
1
0.885719
1
1
0.890466
1.11923
1
1
0.999988
1
1
1
0.88373
0.888951
1
1.1201
1
1.05973
1.11853
0.889059
1.10315
1
1
0.893145
1
1
1.11859
1.11864
1.04657
1
1
1.00046
1.11937
0.889112
0.891535
1.11967
1.11851
1.08359
1.05061
1
0.971467
1
1
1
1.11422
1.11962
1.11881
1
1
1.1187
0.888832
1.10802
0.885314
1
0.894948
1
0.889334
1.11849
0.886692
1
0.997241
0.898921
1
1
1
0.955581
1.11072
1.11859
1.11897
1.11958
1
1
1.12001
1
1
1.11868
1
0.889127
1
0.889219
1
1.12007
1
1
1.0084
1.09323
1
0.999682
0.888678
1.11861
1
0.888529
1.02525
1
1
1.09399
1.11862
1.11865
1
1.11828
1.03536
1
1.00681
1.11853
1
1
1
1
1.11855
1
0.887947
1.11892
0.889048
0.888895
0.950406
1.11828
1.0454
1.11849
1
1.11973
0.999277
1.00001
1.11853
1.11997
1
1.11927
1
1.11854
1
1.11959
1
1.00001
1.00001
1.119
0.887767
0.894504
0.999405
1
1
1
0.889005
1
1.0811
1
0.886084
1
1.05097
1.11851
1.11802
1
1
1.00001
0.999822
1
1.1197
1.11849
1
1.05358
1.11872
0.954309
1.11855
1.00008
0.886896
1.02828
0.889097
1
1
1.02217
1.12048
1
1
1.01376
0.999584
1
0.888623
1
0.934082
1
1.11828
1
1
0.888889
1.0311
1.0187
0.999574
1.11848
1.11853
0.931361
0.999449
0.88846
0.889026
0.888748
1
1
1
0.999734
0.913692
0.895317
1
1.11853
0.999927
1.11855
1.11871
1.12007
1.11863
1
0.889248
1.11859
0.891248
1
1.11865
1.11929
0.999052
0.945118
1.11861
1.08703
1
0.889297
1
1
1.11907
1
1.00775
1.11867
1
0.888827
0.889535
1
1
0.884382
0.884694
1.11858
1.00001
1
0.885352
0.884945
1.11883
1.11544
1.11148
1.11986
1.03557
0.995679
1.05148
1.12031
1.09481
1
1.06449
1
0.884898
0.960014
1
0.889098
1.11862
1.00639
1.1189
1
1.11849
1.11949
1
1.11863
1.1186
0.88989
1.11931
1
1.12185
1
0.922865
0.889318
1.11861
1
1
1
0.88987
1.11857
1.11881
1
0.892678
1
1
0.890444
1.00001
0.883372
1.11998
1
0.94688
0.885635
1
1
1.07109
1
1
1
1.02203
0.889932
1
1
1
1.11868
0.890087
1
1.11857
0.888646
0.88878
1
1
1.11977
1
1.11842
1
1.11857
0.894495
1
1
0.889203
0.942318
0.889118
1
1
1
1
1.11844
0.886561
1
0.889818
1
1.11947
1
1
0.981309
1
1
0.94636
0.99991
1.00001
1
0.889631
0.893466
1
1
1
1
0.937243
1.11818
1.1196
1
0.889925
0.888709
0.974226
0.893852
1
0.949036
1
0.888965
0.996373
1
1
0.892816
1
1.11824
1.11478
0.889902
1
1
1
1.11828
1
1.01437
0.952258
1.04106
0.893486
1.05001
0.888531
1
1
0.911092
0.974919
1
1.0138
1
1
0.889195
1
0.982832
1.01483
0.889613
1
1.09732
0.925084
0.966884
1
1
1
0.89409
1
0.889851
0.889935
1
0.957528
0.88931
1.01964
0.921495
0.884912
1.11853
1
1.11857
1.06813
0.911611
1.11855
0.889149
0.99972
1.11955
1
1
1.11842
1
0.913942
1
1.0198
1
1
1.11861
1
0.930447
0.946751
1.1206
0.982452
1
0.926537
1.11855
1.11957
0.974306
1
1.11853
1.03465
0.954799
1
1.00612
1
0.894004
1.05452
0.930782
0.921149
1
1
0.895911
1.11866
0.991595
0.891058
0.887492
0.961317
1
1.00645
1.11953
1.11867
1
1
1
0.890873
1.06
0.999999
1.11843
1.10975
0.887708
1
1.02795
0.965826
1.07235
1.10373
1
1.01355
1
1.00002
0.884973
0.954768
1
1
0.94481
0.885277
1.01197
1
1
0.884897
1.05743
1
1.11917
1
1.01315
1.06808
1
1.11785
1
1
1.11867
1
0.884976
1.11959
0.904631
1.03499
1
0.892706
0.999976
1
1.00001
1
0.936132
1.00774
0.891176
1.09125
1.12004
0.883163
1
1
1
1
1
0.991826
0.889107
1.01588
0.890929
0.889773
1.02368
1
0.999944
1.03338
1
1
0.887747
0.998635
1
1
1.03697
1
1.11967
1
1.11943
1.02669
1.00811
0.890544
1
1
0.888817
1
1
1
1
1.11853
1.01253
0.999448
1
0.885205
1.01484
1
1
1.08073
1
0.888713
1.11841
1
1
1
1.11889
0.888967
0.964671
0.885812
1.09224
1.11855
1
1
1.11861
1
0.884744
1
1
1
1
1
0.931213
1
1.1188
1
1
1.04504
1.11954
0.892265
0.962808
1
1.11856
1
1
1
1
1
1.1186
1.11962
0.884702
1.11854
0.883477
1
1
1.11857
1
1.11974
1.00296
1.00777
1.01867
1.11873
1.0207
1.08375
0.884931
1
0.88484
0.996383
1
1.11853
1
1
0.88544
1.11888
1
1.11953
1
1
1
1
1
1
0.890656
1.11961
0.956096
1.11852
1
0.889627
0.891185
0.911962
1.11963
1.1187
0.991741
1
0.937869
1
1.05109
1
1.11868
0.883371
0.890098
0.955808
1
1.11857
1
1.02313
0.895452
1
1.12017
1.10985
0.999679
1
1.11857
0.889114
1.11889
1.11849
1.11945
0.892101
1.02577
1
1
0.884536
1
0.942064
0.95025
1
1.00001
1.11867
1
1.11963
1.02613
1
1.01262
1.1201
1
0.889328
1
0.929913
1
1
1.09912
1
0.937738
1
0.896117
1.01069
0.987278
0.885615
1.11839
1.09898
1.11971
0.891616
0.902291
0.998772
1
1
0.898441
1.11245
0.889574
0.999991
1
1.11862
1.11915
0.972805
1
0.889218
0.909841
1.08245
0.992502
0.884641
1
0.888601
1.03411
0.893414
1
1.00002
0.945888
1.11994
1.11865
0.953939
0.999885
1
1
0.910852
1
0.88968
1
0.887743
0.889888
1
1
1.00001
0.894217
1.11858
1
1
1.00002
1.00001
0.890668
1.11867
1.1186
1
0.890867
1.12017
1
1.02824
1
1
1.11846
0.888788
1
1
0.888877
0.921081
0.89058
0.889132
1
0.905287
0.999184
1.02744
0.883748
1
1
1.03648
1
1.10615
1
1
1.08525
0.899936
1
0.888923
1.03528
1.11864
1
1
0.894761
0.889034
0.883529
0.916983
0.889029
1.09175
0.999829
1
1
1
1
1.11883
0.888448
1
0.982739
0.999909
0.999648
0.999982
0.927292
1.03552
1
1.11858
1.11863
1
1
1.11461
1.00001
1
1.11859
0.892286
1.11813
1
0.883107
1.11866
1.00002
1
0.948333
1
0.885604
1
1.1193
1
1
1.11938
1
1
1.11926
1
1
1
1.12028
1
0.921945
0.912506
1
0.885172
1.11872
1
1
0.992779
1
1.11919
1.07187
1.0973
1
1
0.894224
1
0.8887
1.1186
1.11988
1.11877
1
1.11975
0.889755
1
0.889417
1.09734
1.10924
1.11932
1.11883
0.928304
0.886915
1
1.07841
1.11933
1.11941
1.11856
0.923293
1.04658
1
1.09269
0.923533
1
1
1
1.00001
0.968379
1
1.11917
1
1
1
1
1
1
1.00002
1.11807
1
1.1195
1.0908
0.889852
1.12011
1.01061
1.06356
1
1.11845
1
0.889351
1
1
1
1
1.10293
1
0.884219
1.11831
0.882449
1.11859
1.09685
1.06519
1
1.02503
1.05966
0.998742
0.889197
0.93146
1.00001
1
0.978042
1
0.886135
1.11923
0.88505
0.981399
0.958346
1
1
1
1.00357
1
1
0.889339
0.998962
1.11989
1
1.11862
1
0.890087
1
1
1.11855
1.11838
0.885607
1
1.11914
1
0.941818
0.88645
1.119
1.1076
1
1.02234
1.11859
0.99962
1
1.0534
1.10557
1.11845
0.998854
1
0.999999
1.10243
1
1
1
1.11858
0.999569
1
1
1.1186
1
1
0.893216
1
1
1
1.11911
1
1
0.958206
1.04024
1.10882
0.930908
1
1.11858
1
1.045
1
1.11914
0.999215
1.11862
1
0.889926
1
1.0874
1
1
1.11142
1
1.11858
1
1.11879
0.899509
0.891905
1.11923
1
1.1026
1
1.11938
1
1
1.00001
1.11862
1.11845
1.03522
1.11854
0.99878
0.889073
1.1187
0.961711
1
1.11876
1
1.11865
1
1.11906
1.11954
0.998927
0.888576
1
1.11858
1
1.01187
1
1
0.99942
0.926
1.1071
1
1.1094
1
0.963127
0.885802
1.11842
1.11866
0.904067
1
1.11865
1.11953
1.11886
0.899828
1.1185
0.893351
1.11906
1.11752
1
1
1.11858
1
1
1
1
0.890117
1
1
1.11947
1.11858
1
1.11864
1
1.12026
1.11989
1
1.10057
1
0.885231
1.11845
1.09094
1.03543
0.883587
1.11857
1
1
0.887129
1
1
1.11854
1
1
0.935159
1
1.11863
1.00003
1.11868
0.885577
1.11988
1
1.11863
1.11446
0.968697
1
1.11848
0.928363
1.11874
1.08661
1.11855
1.11855
0.999211
1.11996
1.11856
1.11862
1.11861
1.00015
1
0.889128
1
1.11978
0.949245
1.10923
1
1.11663
1
1
1
1
1
1.11797
0.885701
0.888688
1.11899
1.11848
1
1
1
1
1
1.11778
1.10999
1.11862
1.00713
1
1
1
1.00001
1.11827
1.11853
1
1.11918
1.11958
0.893525
1.08597
1
1.11857
1.11958
1.1178
0.999408
1.11864
1.11857
1
1.10908
1
1
1
1
1
1
1.11863
1.12023
1.1112
1.11861
0.887051
0.904998
1.11859
1.11862
1
0.886829
0.985712
1
1.06085
0.886528
1
0.999843
0.999509
0.890449
1
1.1187
1
1
1
1.1193
0.986952
1
1.11857
1.1185
1
1.11881
1
1
1.11857
1
0.888482
1
1.11904
1
1
0.893449
1
1.11854
1
0.886988
0.887132
1
1.11695
1
0.884139
0.964728
1
1.11865
1
1
1
1.11966
1
0.89069
1.01841
1.11907
1.1189
1.11863
1.01376
1.11895
1.11852
1
1
1
1
1
1.11852
1
0.9998
1.11849
1
0.883623
1
1.1185
1.05945
1.01907
1.05902
1.01831
1.12008
0.905305
1.11858
1
0.890747
0.999187
1.11857
0.984975
1.11859
1.11859
1.11629
1
1.11918
1.11854
1.11857
1
1.00001
1
1
1.11915
1.08709
1
1
0.888444
0.999036
1
1.11869
1
1.11856
1.11869
1.11901
0.974788
1.11865
1.11874
1.00401
1.06163
1.11957
1.11864
1
1.1105
0.949909
1.11687
0.996602
1.11872
1
1.11852
1.11869
1
0.893242
0.982212
0.905502
1
1.02445
0.999076
1.11917
1
1
0.999042
1
1.06309
1.11276
1
1
1.1185
1
1
1.08777
1.11861
1.1143
1.11863
1.11863
1
1.11887
0.916232
1.11883
1
0.999124
0.892156
1
1
0.92315
1
1.04028
1
1.11896
1
1.11656
1.07833
0.890108
1
1
1
1
1
1.11863
1.00325
1
1.11931
1
1.11862
1.1186
1
1
0.991581
0.999955
0.884356
0.884347
0.914611
1.02604
1
0.999551
0.891997
1.00001
1
1.11857
0.983619
1.11138
1.10138
1
1
1
1
1
1.11861
1.11869
1
1.11867
1
1.11991
1.08266
0.998857
1
1
1
1.07151
1
0.987932
1
1.11875
1
1
1.11852
1
1
1
1
1
1.1188
0.883358
0.998855
1.10753
1.11855
1
1.11856
1
1
1
1
0.900431
1
1.11868
1.11857
1.11859
1.12005
0.987127
1
1.10219
1.03089
1.11962
1.11924
1.02374
1.11952