/*--------------------------------*- C++ -*----------------------------------*\
  =========                 |
  \\      /  F ield         | OpenFOAM: The Open Source CFD Toolbox
   \\    /   O peration     | Website:  https://openfoam.org
    \\  /    A nd           | Version:  12
     \\/     M anipulation  |
\*---------------------------------------------------------------------------*/
FoamFile
{
    format      ascii;
    class       volScalarField;
    location    "7.325";
    object      rho;
}
// * * * * * * * * * * * * * * * * * * * * * * * * * * * * * * * * * * * * * //

dimensions      [1 -3 0 0 0 0 0];

internalField   nonuniform List<scalar> 
46253
(
1.32059
1.49638
1.59546
1.4993
1.59214
1.58919
1.36356
1.3134
1.49016
1.48842
1.31956
1.12938
1.45893
1.46071
0.48457
1.48285
1.47956
1.47551
1.47535
1.48025
1.4822
1.58015
0.555447
1.34525
1.31245
1.49821
1.47872
1.47845
1.49672
1.31195
1.38895
1.4398
1.43765
1.4793
1.4798
0.801335
1.4672
1.46666
1.2888
1.03947
1.30861
1.13072
1.44566
1.44398
1.07511
1.47135
1.47232
0.515569
1.44049
1.44247
1.439
1.43776
1.55457
1.30124
1.59939
1.19447
1.42164
1.41912
1.47985
1.29658
0.876502
1.2959
0.802158
0.841521
0.508612
1.45276
1.45072
1.5728
1.19696
1.08149
1.37236
1.41623
1.41614
1.30443
1.55621
1.33865
1.39847
1.40009
0.538011
1.43836
1.43839
1.41335
1.55913
1.41011
1.34714
1.55926
1.37692
1.37477
1.27884
0.795816
0.569723
1.30027
1.55906
1.43179
0.74777
1.42853
1.55807
0.486205
1.47967
0.893727
0.76505
1.55694
1.55879
1.38521
1.60144
1.34155
1.13494
1.34982
1.34791
1.15285
1.29147
1.41699
1.41819
0.435786
0.531317
1.27854
1.09891
1.30663
1.60398
1.19936
0.590737
1.58686
1.40344
1.40021
1.53063
1.61308
0.912982
1.174
1.61324
1.39539
1.33042
1.32799
1.58375
1.31007
1.39232
0.937124
1.38147
1.38063
1.19607
0.865302
1.39616
1.31581
1.31774
1.38117
1.39493
1.60817
1.38066
1.38078
1.28773
0.768299
1.1513
1.54927
1.38721
1.38341
1.35761
1.08914
1.17323
0.571236
1.36576
1.59714
1.36604
1.1347
1.19289
0.939774
1.34699
1.37937
1.31267
1.38079
1.72341
0.776715
1.35789
1.35708
1.5753
1.31725
1.59679
1.08068
1.31894
1.5503
1.31424
1.10108
1.60021
1.35735
1.35276
1.35292
1.616
1.37083
1.36858
1.07237
1.60409
1.61032
1.55403
1.70026
1.30197
1.67838
1.92323
1.97341
1.29096
1.55052
1.25252
1.25781
0.490818
0.808567
1.36279
1.36106
0.915191
1.09515
1.35248
1.3385
1.33832
0.811156
0.491978
1.60436
1.32017
1.55953
1.31833
1.55408
1.37827
1.32901
1.33351
1.57797
1.5639
1.33374
1.07912
1.3549
1.35477
1.31579
1.54598
1.54406
1.22483
1.23135
1.4482
0.992619
1.33806
1.1411
1.53478
0.770114
1.76071
0.551615
1.446
1.45332
1.53642
1.55201
1.54423
1.76518
0.944266
1.55669
0.564071
1.34931
1.54475
1.31737
1.31615
1.45116
1.21447
1.54977
1.21771
1.34339
1.34092
1.21349
1.31717
1.55387
1.32259
1.28307
1.1462
1.38164
1.29911
0.582967
0.431461
0.53095
1.33671
1.31304
1.33675
1.54235
1.50412
14.1228
1.31218
1.54072
1.60133
0.72826
1.3006
1.23135
1.20195
1.20372
1.55687
1.56137
0.498946
1.30462
1.2883
1.20138
1.36902
0.857232
1.47504
1.4762
1.30268
0.523475
1.46806
1.41775
1.54789
1.41717
1.31489
1.30251
1.59551
1.30123
1.17772
1.58682
1.65262
1.3225
1.31984
0.80071
1.379
1.61785
1.61602
1.325
1.17157
1.29985
1.5564
1.30017
1.19318
1.46551
0.863817
1.30063
1.17275
1.55838
1.34304
1.30967
1.27688
1.36317
1.56052
1.55339
1.29306
1.29048
1.15908
1.16502
1.66099
0.932836
1.563
1.2945
1.20891
1.31643
1.31542
0.674415
1.55234
1.55323
0.459604
1.60843
1.56497
1.27607
1.27494
1.03391
1.19822
1.5502
1.2711
0.863819
1.09726
0.990667
1.13825
1.54487
1.30769
0.796036
1.30549
0.89675
1.13827
1.56829
1.55611
1.5756
1.68505
1.55424
1.55634
1.5541
1.27671
1.54454
1.54096
1.53646
1.53981
1.27835
1.56111
1.45806
1.19524
1.53789
1.54596
0.772074
1.32827
1.27943
1.17484
1.29974
1.30599
1.30082
1.5662
0.380095
1.27036
1.63598
1.605
1.37213
1.26579
1.29492
1.58383
1.30801
1.33211
1.33173
1.55672
1.27657
0.77891
1.34799
1.34974
1.45546
1.53685
1.51925
1.61479
1.16919
0.425815
1.56623
1.56033
1.80407
1.57712
1.61626
1.2713
1.52048
1.29939
1.54792
1.57265
1.21563
1.52181
0.588681
1.25354
1.57
1.29694
1.5835
0.699161
1.25234
1.29648
1.64353
1.32313
0.82858
0.703187
1.95948
1.95514
1.24463
1.29437
1.62664
1.69881
1.3017
1.17396
1.5237
1.29263
1.63696
1.24826
1.35878
1.71288
1.55865
1.20105
0.563871
1.23297
1.28077
1.02875
1.29874
8.39281
1.51313
1.29877
1.51602
1.28321
1.25817
1.55671
1.2597
1.26026
1.27911
1.54572
1.26047
1.55173
1.59573
1.52064
1.53736
1.59889
1.31345
1.38601
1.29846
1.17814
1.25703
1.22356
1.3422
1.25559
1.30378
1.34438
1.34029
0.786531
1.54045
1.54996
0.903816
1.61699
0.601761
1.23578
1.3149
1.11482
1.23757
1.25801
1.30502
1.25271
6.71069
1.54607
1.27379
1.26603
1.14741
1.27416
1.22754
1.22536
1.32696
1.31669
1.5573
1.33832
1.38455
1.11378
0.458005
1.55793
1.28814
1.5192
1.30567
1.29743
0.90828
1.63681
1.25983
1.55616
0.957761
1.29255
1.55325
1.27421
1.55355
1.55804
1.27575
1.55223
1.27272
1.27715
1.27437
0.882915
1.30491
1.3101
0.551373
1.2577
1.26519
1.57893
0.868323
1.27522
0.657221
1.3182
1.22054
1.57194
1.61887
1.27525
0.888679
0.919165
1.51442
1.51682
1.09672
1.5142
1.51331
1.23935
1.22475
1.23885
1.30568
1.50413
1.50424
1.49617
1.49754
1.55237
1.52372
1.5555
1.25662
1.11764
1.70548
1.91051
0.853223
1.51269
1.62996
1.86261
1.31704
1.37768
0.958432
1.36092
1.73062
1.66288
1.17606
0.612358
1.73511
1.58683
1.25872
1.5723
1.68064
1.25545
1.35815
1.40103
1.55982
1.40404
1.40393
1.40687
1.33058
1.62783
1.2174
1.21565
1.3719
1.32918
1.59026
1.71223
1.30249
1.56986
1.59193
1.32169
1.51943
1.59347
1.52073
1.53774
1.38076
1.38286
1.54863
1.55984
1.31753
1.26065
1.54636
1.57987
1.33423
1.49384
1.49552
1.48072
1.48357
1.4775
1.47765
1.47323
1.47425
1.06957
1.24773
1.46513
1.27957
1.46765
1.45776
1.54542
1.31241
1.34671
1.45856
1.55638
1.45663
1.57284
1.45714
1.10675
1.25542
1.44069
1.56559
1.44421
1.53307
1.54559
1.43907
1.96195
1.43824
1.97552
1.1007
1.56772
1.2277
1.35559
1.71076
1.68399
1.4253
1.42984
1.56109
1.26706
1.42327
1.42082
1.33392
1.55503
1.5502
1.41038
1.21411
1.41269
1.54813
1.25925
1.40697
1.1746
1.40819
1.21191
1.26116
1.54956
1.72646
1.72174
1.39672
1.3987
1.29947
1.55121
1.55038
1.39077
1.24266
1.39165
1.17136
1.55393
1.37745
1.3782
1.58318
1.61713
1.58703
1.29704
1.60969
1.26605
1.29886
1.39288
1.54873
1.35955
1.67746
1.36189
1.65891
1.56659
1.26847
1.26983
1.3542
1.35413
1.2471
1.2762
1.35308
1.27758
1.354
1.55636
1.33257
1.33667
1.33786
1.60924
1.20577
1.33062
1.33165
1.69144
1.57619
1.56526
1.69194
1.31893
1.24489
1.32061
1.47706
1.33061
1.25732
1.1513
1.3184
1.31845
1.29867
1.30691
1.30977
1.19713
1.19726
1.50887
1.30584
1.60626
1.2023
1.0464
1.15749
1.20175
1.17949
1.32877
1.32145
1.49546
1.51143
1.49598
1.24267
1.6737
1.51684
1.66829
0.384009
1.51736
1.23176
0.356493
1.50678
1.50593
1.21907
1.20889
1.55304
1.33284
1.06892
1.34966
0.574773
0.898473
1.56602
1.52361
1.13271
1.28031
1.63448
1.24747
1.51997
1.3943
1.29114
1.3956
1.17985
1.79089
1.29712
1.30896
1.40479
1.52336
0.653365
1.55978
0.400887
1.5667
1.39877
1.39607
1.2795
1.34421
1.34012
1.53741
1.22876
1.5686
1.54795
1.39807
1.29719
1.51948
1.32061
1.51733
1.52096
1.33091
1.3413
1.54897
1.40118
1.1744
1.25686
0.619613
1.25133
1.18923
0.58833
1.52225
1.26085
1.25906
1.52324
1.18399
1.53797
1.52252
0.844296
1.42323
1.42314
1.24674
1.62504
1.53178
1.53203
1.31199
1.28816
1.62915
1.26765
1.30684
1.17616
1.52681
1.5599
1.55761
0.530725
1.38663
1.38824
1.49618
1.52551
0.843214
1.23915
1.37321
1.39522
1.5265
1.37414
1.24258
1.25422
1.25013
0.759289
1.24611
1.27743
1.15662
1.24522
1.17539
1.34838
1.62226
1.623
1.35023
0.567032
1.60825
1.2541
1.24686
1.60349
1.18005
1.20935
1.26633
1.19986
1.20777
1.18374
1.18888
1.19054
1.16889
1.16736
1.52076
1.54179
1.33625
1.54165
1.5183
1.26217
1.21822
1.19441
1.54711
1.78462
1.2803
1.55358
1.26991
1.27948
1.5144
1.51437
1.35118
1.51586
0.582171
1.5182
1.54571
1.24997
1.27592
1.33406
1.52714
1.54126
1.22869
1.56582
1.27935
1.27853
1.22077
1.52434
1.27499
1.26606
1.27424
1.57041
1.57409
1.57664
1.56412
1.26808
1.27136
1.7736
1.32819
1.52115
1.18758
1.70575
1.19246
1.35615
1.3414
1.55057
1.18796
1.18635
1.30673
1.57116
1.49652
1.19275
1.3088
1.31184
1.19313
1.49991
1.50151
1.25783
1.4781
1.54532
1.54769
1.2729
1.10019
1.32431
1.25829
1.60323
1.51409
1.5456
1.51627
1.57063
1.51159
1.64135
1.51269
1.33847
1.19558
1.17873
1.30455
1.48628
1.50225
1.50705
1.21558
1.3502
1.35637
1.53375
1.43894
1.44872
1.45909
1.43541
1.43933
0.642244
1.31356
1.45282
1.45991
1.43673
1.25148
1.45805
1.41139
1.42066
1.46276
1.63371
1.4703
1.42221
1.47165
1.58303
1.41697
1.47724
1.4758
1.47653
1.4198
1.47857
1.48355
1.40847
1.47871
1.71341
1.488
1.40869
1.55095
1.40229
1.49073
0.936852
1.5469
1.16115
1.40434
1.58225
1.8833
1.61333
1.39357
1.40717
1.60756
1.61276
1.96542
1.3941
1.15936
1.48586
1.38173
1.55571
1.28224
1.38332
1.36619
1.36902
1.19583
1.35542
1.35684
1.35529
1.57286
1.35286
1.35423
1.56659
1.34123
1.31342
1.56684
1.56729
1.344
1.23033
1.46895
1.33409
1.33427
1.32428
1.21825
1.327
1.48942
1.31843
1.56904
1.2948
1.21825
1.31722
1.33453
1.30669
1.2489
1.31406
1.28673
1.28948
1.33281
1.31555
1.30146
1.3029
1.34109
1.4681
1.55307
1.54775
1.46743
1.54047
1.47137
1.46175
1.47471
0.880876
1.60844
1.34557
0.608477
1.16736
1.21899
1.37107
1.37708
1.5465
1.31257
1.40635
1.40893
1.33448
1.32391
1.39794
1.40767
1.40249
1.40145
1.31159
1.19656
1.27656
1.26035
1.54537
1.27381
1.20816
1.17793
1.32059
0.752247
1.44101
1.4038
1.12543
0.797464
1.1695
1.30621
1.29437
1.16818
0.86613
1.48222
1.55774
1.25482
1.31516
1.30802
1.3921
1.33475
1.33261
1.10284
1.20566
1.2992
1.20352
1.29322
1.32435
1.13261
1.20275
1.46313
1.28155
1.40889
1.29768
1.56808
1.40883
1.45937
1.25825
1.30737
1.55502
1.567
1.52127
1.26365
1.52194
1.58077
1.50975
1.48029
1.30981
1.17306
0.606236
1.34497
1.49424
1.26441
1.25707
1.61064
0.687915
1.55757
1.17446
1.48311
1.17572
1.27699
1.27695
1.6057
1.40926
1.26905
1.51646
1.18913
1.49966
1.32116
1.14195
1.16844
1.2191
1.52466
1.53401
1.27242
1.2199
1.28175
1.26119
1.26539
1.26615
1.53327
1.13743
1.28315
1.24958
1.24747
1.16979
1.32422
1.51441
1.25995
1.14061
1.27674
1.15404
1.27684
1.40392
7.67478
1.65401
1.65745
1.21707
1.27082
1.60816
1.24494
1.27189
1.33595
1.32857
1.1916
1.24571
1.46958
1.33351
1.43277
1.53914
1.57412
1.27178
1.44587
1.60991
1.65412
1.51508
1.2606
1.63332
1.26273
1.0962
1.28906
1.19185
1.54885
1.51574
1.19042
0.59983
1.49844
1.25117
1.49085
1.50007
1.51325
1.40819
1.49269
1.25559
1.15921
1.42486
1.58706
1.31736
1.47763
1.45833
1.27822
0.382287
1.42125
1.48069
1.47077
1.53101
1.26698
1.53052
1.53223
1.53576
1.20703
1.47093
1.53227
1.44435
1.4182
0.621947
1.52936
1.33488
1.4547
1.35805
1.34925
1.47045
1.20086
1.16787
1.48036
1.45287
1.45661
1.35127
1.36715
1.9054
1.41039
1.19915
1.41192
1.39557
1.49542
1.44446
1.50105
1.61004
1.61177
1.44284
1.475
1.56893
1.24086
1.28733
1.47551
1.24586
1.4469
1.27721
1.26206
1.48281
1.29877
1.52808
1.27378
1.52393
1.48182
1.57531
1.68664
1.911
1.29544
1.45766
1.4677
1.47318
1.73068
1.64224
1.54782
1.29637
1.48553
1.51408
1.30822
1.58302
1.45705
1.49701
1.30993
1.23018
1.4653
1.46323
1.46289
1.41836
1.46422
1.54446
1.71559
1.41886
1.44259
1.40432
1.44825
1.46392
1.19765
1.09849
1.63048
1.44865
1.50055
0.789398
1.44586
1.57304
1.48295
1.48228
1.26697
1.46108
1.54548
1.67544
1.43174
1.43879
1.20263
1.4306
1.5446
1.42689
1.39443
1.58529
1.42306
1.54706
1.13199
1.12936
1.21084
1.43324
1.18738
1.24553
1.54668
1.42882
1.14337
1.16412
1.39511
1.40092
1.1538
1.40219
1.39554
1.32836
1.39751
1.39905
1.33726
1.423
1.41888
1.2697
1.37128
1.39638
1.40063
1.41575
1.39767
1.33367
1.40246
0.819846
1.19593
1.40122
1.40826
1.37199
1.19616
1.27652
1.39902
1.39689
1.17987
1.39985
1.11611
1.39599
1.23182
1.5828
1.44949
1.1722
1.17671
1.26093
1.40046
1.40223
1.36161
1.9461
1.35302
1.45042
1.55417
1.56303
1.52202
1.54835
1.54668
1.34921
1.14388
1.55047
1.38259
1.3767
1.38142
1.58179
1.19037
1.42536
1.40117
1.39998
1.41845
1.37915
1.35517
1.44383
1.43346
1.1541
1.4505
1.36571
1.42082
1.36746
1.36604
1.57507
1.15083
1.66464
1.29956
1.56561
1.4957
1.32174
1.36725
1.40684
1.36595
1.40765
1.26643
1.33536
1.39579
1.29298
1.20548
1.4378
1.65598
1.3431
1.34367
1.66499
1.48238
1.5812
1.58848
1.58008
1.58597
1.51491
1.22351
1.57595
1.34027
1.48546
1.19145
1.44697
1.48202
1.18845
1.33729
1.16788
1.53815
1.48742
1.34447
1.16288
1.51313
1.26088
1.45707
1.54415
1.55136
1.48097
1.50899
1.22022
1.2149
1.41469
1.6241
1.51721
1.51492
1.30845
1.25746
1.42147
1.50057
1.56476
1.73141
1.5242
1.37296
1.58273
1.3346
1.3334
1.35853
1.48222
1.31678
1.32227
1.55992
1.2892
1.32736
1.37209
1.44418
1.50471
1.47537
1.52396
1.50084
1.44964
1.3144
1.36811
1.45812
1.48398
1.47515
1.47802
1.41975
1.51693
1.55741
1.38551
1.16692
1.43795
1.18928
1.59188
1.46378
1.43969
1.53362
1.30171
1.4795
1.53428
1.29456
1.29946
1.30285
1.75136
1.50796
1.19251
1.44018
1.47833
1.19581
1.09602
1.16033
1.39963
1.13082
1.4874
1.27284
1.27723
1.20129
1.5239
1.29395
1.48068
1.47591
1.14593
1.42224
1.3066
1.23043
1.5206
1.52188
1.19988
1.1934
1.34787
1.52606
1.28878
1.35786
1.27409
1.28316
1.28006
1.12597
1.28061
1.41304
1.46807
1.41639
1.49265
1.29439
1.28197
1.32559
1.31396
1.48691
1.23279
1.38919
1.51654
1.24305
1.36722
1.17678
1.48098
1.20758
1.26564
1.29589
1.48045
1.46809
1.26108
1.18449
1.54465
1.29446
1.2633
1.4283
1.44863
1.53303
1.15947
1.58193
1.30861
1.23044
1.29049
1.1518
1.471
1.58616
1.47277
1.11742
1.26511
1.55375
1.47527
1.35636
1.42888
1.38571
1.36195
1.476
1.22235
1.12662
1.43267
1.39033
1.46133
1.23695
1.25177
0.822416
1.25419
1.64703
1.2586
1.47803
1.23852
1.18324
1.45641
1.39869
1.57849
1.47248
1.36594
1.30125
1.54194
1.40498
1.36497
1.41736
1.6152
1.36547
1.5906
1.21475
1.48495
1.2343
1.55317
1.35438
1.24091
1.61985
1.41448
1.36101
1.35404
1.52007
1.34337
1.21347
1.23867
0.61675
0.595218
1.34316
1.46352
1.5138
1.45651
1.26259
1.41875
1.42299
1.49002
1.36566
1.15528
1.57828
1.10647
1.51054
1.14278
0.558482
1.42815
1.50824
1.47701
1.33676
1.20776
1.13749
1.133
1.42934
1.23785
1.22404
1.20196
1.42829
1.45532
1.45574
1.19112
1.27807
1.33381
1.39718
1.39613
1.30449
1.31225
1.45818
1.51091
1.43122
1.51367
1.21619
1.45055
1.51166
1.18238
1.61775
1.22466
1.14961
1.32951
1.20029
1.61198
1.61229
1.44864
1.44841
1.16234
1.26376
1.63434
1.62667
1.26823
1.41964
1.17319
1.54576
1.5241
1.29359
1.21712
1.19849
1.48351
1.25827
1.1098
1.28931
1.18303
1.53995
1.11016
1.16375
1.14233
1.17706
1.41978
1.39468
1.56389
1.32101
1.26192
1.31876
1.26047
1.31795
1.31931
1.3179
1.27989
1.33442
1.54507
1.34211
1.50842
0.834711
1.2569
1.25133
1.27413
1.25393
1.48377
1.29217
1.50756
1.5929
1.27179
1.30598
1.1261
1.14639
1.18413
1.12477
1.38489
1.43228
1.30552
1.13019
1.45787
1.14064
1.51559
1.18773
1.54541
1.3066
1.42646
1.12874
1.51445
1.18595
1.25938
0.48708
1.58307
1.25591
1.29364
1.48309
1.5545
1.50283
1.29259
1.56367
1.28714
1.14208
1.13415
1.21415
1.11301
1.2887
1.38392
1.54631
1.13263
1.21984
1.54969
1.17223
1.46762
1.40206
1.2477
1.257
1.54971
1.62455
1.41333
1.26073
1.3817
1.13637
1.13795
1.51359
1.20707
1.44159
1.63413
1.26192
4.6551
4.55336
1.41605
1.25633
1.36817
1.26388
1.50652
1.46708
1.41865
1.21962
1.43202
1.22379
1.45121
1.12947
1.44544
1.47712
1.46331
1.20366
1.38884
1.41327
1.22027
1.45572
1.4587
1.46523
1.22343
1.18939
1.13926
1.23974
1.40206
1.18038
1.47923
1.41556
1.46006
1.23625
0.887281
1.42596
1.43877
1.34945
1.46112
1.26163
1.46071
1.60706
1.55069
1.48291
1.48095
1.55002
1.44718
1.43265
1.47504
1.42753
1.41296
1.59327
1.3736
1.4835
1.58513
1.31899
1.39952
1.40294
1.50506
1.48602
1.33498
1.17852
1.23661
1.4153
1.41158
1.41732
1.31709
1.38012
1.46694
1.53344
1.50683
1.54888
1.56324
1.29323
1.23275
1.39479
1.42487
1.29714
1.23253
1.22262
1.33548
1.24803
1.30107
1.38166
1.40487
1.40223
1.25161
1.39663
1.25681
1.64412
1.48899
1.40301
1.38664
1.53993
1.67038
1.42274
1.40279
1.24248
1.3063
1.40568
1.38175
1.64805
1.20606
1.54009
1.33636
1.40757
1.40784
1.29311
1.20535
1.23938
1.25392
1.3821
1.26454
1.38301
1.23677
1.54377
1.29093
1.26797
1.20646
1.3687
1.4808
1.33178
1.70315
1.60117
1.39659
1.36997
1.29805
1.33995
1.50905
1.29384
1.17013
1.47206
1.60133
1.29685
1.45001
1.62323
1.37325
1.27482
1.16817
1.36718
1.38361
1.29665
1.34523
1.34581
1.34393
1.19985
1.47644
1.13034
1.20303
1.34832
1.33815
1.47554
1.13379
1.35114
1.27474
1.29362
1.3418
1.27728
1.10478
0.943267
1.41991
1.47111
1.10698
1.41025
1.53775
1.47679
1.50779
1.40474
1.42106
1.40974
1.54413
1.45365
1.31585
1.45565
1.29289
1.41591
1.45664
1.48304
0.700079
1.1773
1.48577
1.42219
1.40023
1.39786
1.29398
1.53104
1.33164
1.3537
1.40651
1.1998
1.19929
1.42213
1.34828
1.293
1.45086
1.33294
1.31332
1.36346
1.57602
1.33334
1.31787
1.45134
1.29733
1.14506
1.3097
1.34872
1.33331
1.48754
1.32266
1.41717
1.29011
1.44418
1.31277
1.32007
1.3506
1.5854
1.35004
1.65756
1.53833
1.44853
1.29797
1.3504
1.31841
1.34553
1.29115
1.41463
1.43112
1.49393
1.51668
1.41346
1.27508
1.23638
1.433
1.36985
1.4925
1.37716
1.35101
1.24445
1.29117
1.49907
1.36616
1.39098
1.43455
1.30107
1.27224
1.2981
1.42614
1.49131
1.46975
1.34711
1.42829
1.26208
1.49196
1.58161
1.55745
1.30018
1.54582
1.54206
1.30853
1.18767
1.37458
1.26966
1.43438
1.48097
1.48265
1.53094
1.32825
1.47905
1.23911
1.49797
1.25322
1.27907
1.40057
1.10754
1.26022
1.18853
1.41831
1.17975
1.24956
1.40088
1.14982
1.24231
1.41817
1.39322
1.48067
1.41203
1.25748
1.51053
1.91486
1.3561
1.50755
1.37413
0.51377
1.3897
1.25899
1.24659
1.37208
1.35283
1.40202
1.15286
1.538
1.43751
1.42168
1.5062
1.39051
1.40453
1.43675
1.41425
1.2162
1.50395
1.37423
1.24369
1.31662
1.34245
1.39635
1.3453
1.41234
1.39997
1.46594
1.4182
1.39639
1.24256
1.42123
1.26956
1.22412
1.30919
1.53901
1.40154
1.29959
1.17044
1.25585
1.33925
1.31451
1.32484
1.34662
1.14861
1.36271
1.34539
1.16368
0.781132
1.39748
1.37372
1.26434
1.38465
1.27305
1.38774
1.53118
1.23442
1.19133
1.56286
1.53264
1.52058
1.55301
1.39013
1.44567
1.22537
1.44598
1.25398
1.54636
1.23566
1.17388
1.39511
1.40139
1.19501
1.36018
1.35835
1.37962
1.24514
1.51526
1.50287
1.29133
1.41665
0.800706
1.51636
1.18553
1.39853
1.21668
1.39202
1.24468
1.38288
1.51507
1.41556
1.40958
1.41659
1.40278
1.41042
1.24473
1.49501
1.17649
1.23797
1.51756
1.39173
1.28735
1.40541
1.44028
1.40797
1.19548
1.23199
1.41831
1.45848
1.41583
1.42507
1.41357
1.7897
1.40815
1.38149
1.42102
1.35849
1.78069
1.50343
1.40699
1.21952
1.23759
1.12347
1.42842
1.49798
1.36739
1.50755
1.42919
1.15292
1.21176
1.42936
1.42892
1.30902
1.12986
1.36929
1.42744
1.15059
1.13925
1.12135
1.15217
1.46613
1.22053
1.40719
1.15803
1.54484
1.29505
1.38881
1.21563
1.21797
1.25804
1.43405
1.51443
1.23475
1.21895
1.40774
1.2201
1.1978
1.33685
1.1615
1.43186
1.20911
1.39958
1.19724
1.30353
1.40468
1.39624
1.41314
1.39309
1.43043
1.37822
1.38309
1.34079
1.18443
1.17108
1.39241
1.17193
1.35226
1.56597
1.22264
1.60087
1.25462
1.35499
1.62605
1.61677
1.24141
1.43705
1.54736
1.18624
1.39619
1.51522
1.25982
1.49606
1.12428
0.77874
1.37634
1.17351
1.34197
1.16645
1.21375
1.34308
1.21351
1.29987
1.29937
1.60113
1.31912
1.55052
1.33317
1.39709
1.44603
1.30843
1.39337
1.43491
1.33552
1.43659
1.59964
1.38395
1.12609
1.32732
1.42111
1.44566
1.27735
1.30895
1.32783
1.32416
1.38113
1.42447
1.38749
1.53035
1.1748
1.50941
1.37846
1.13406
1.49846
1.32222
1.41357
1.36823
1.46418
1.13285
1.32448
1.42209
1.26168
1.5194
1.21608
1.21815
1.4158
1.45255
1.5188
1.31466
1.43455
1.43616
1.44711
0.614091
1.41801
1.31632
1.30076
1.17757
1.45811
0.472111
0.81143
1.45578
1.30315
1.45831
1.40251
1.45832
1.3053
1.53571
1.22319
1.34757
1.34533
1.29976
1.19091
1.35796
1.35268
1.46698
1.29944
1.44421
1.4078
1.54226
1.49924
1.533
1.17575
1.29294
1.84268
1.17924
1.36219
1.45805
1.36873
1.29206
1.38845
1.24989
1.29565
1.43149
1.17308
1.30163
1.46912
1.21294
1.27851
1.56094
1.34985
1.28894
1.13533
1.35266
1.39074
1.38739
1.46009
1.21198
1.4762
1.4726
1.51424
1.24516
1.45871
1.28431
1.51488
1.56787
1.20582
1.50167
1.46817
1.40993
1.28522
1.43997
1.51803
1.29973
1.29816
1.19672
1.38616
1.22752
1.35029
1.27884
1.45851
1.18152
1.46365
1.53769
1.26035
1.18651
1.22839
1.39058
1.28129
1.53131
1.33151
1.11591
1.29111
1.47879
1.39857
1.40848
1.48051
1.29112
1.51862
1.33595
1.2222
1.41843
1.63755
1.33941
1.51066
1.26729
1.40802
1.46541
1.4349
1.52628
1.55116
1.43389
1.21559
1.26883
1.43258
1.12722
1.24433
1.4073
1.37388
1.15084
1.50705
1.54402
1.52144
1.11787
1.24213
1.26708
1.26705
1.19641
1.52567
1.53596
1.48063
1.3703
1.54039
1.52116
1.23927
1.19588
1.39457
1.48122
1.2385
1.23824
1.24265
1.25519
1.38801
1.17104
1.51584
1.23615
1.24464
1.25763
1.17124
1.4254
1.24802
1.29904
1.53272
1.28606
1.5647
1.52407
1.51835
1.17134
1.30386
1.34739
1.25663
1.51471
1.17144
0.340805
1.53289
1.25425
1.52045
1.50808
1.4035
1.26253
1.55831
1.34929
1.23938
1.26215
1.51944
1.51593
1.57364
1.5364
1.2781
1.49995
1.15596
1.21644
1.46868
1.37824
1.21719
1.49919
1.273
1.51213
1.47373
1.52238
1.27723
1.24357
1.24291
1.47823
1.36859
1.28024
1.40933
1.5397
1.53967
1.40627
1.14646
1.45944
1.21265
1.28531
1.4764
1.80617
1.52483
1.68864
1.527
1.20288
1.89919
1.27619
1.28033
1.45084
1.4192
1.29503
1.4792
1.20023
1.1144
0.858297
1.20421
1.38563
1.52054
1.49903
1.41663
1.43071
1.54635
1.45027
1.46563
1.40662
1.40844
1.27244
1.29387
1.40791
1.43121
1.72367
1.45262
1.18968
1.41536
1.43485
1.40905
1.29503
1.54616
1.28988
1.72776
1.31578
1.42904
1.28706
1.54498
1.17908
1.4515
1.54068
1.32289
1.11312
1.41294
1.48657
1.53629
1.31636
1.54468
1.17429
1.21189
1.3137
1.11914
1.43962
1.45113
1.54125
1.41667
1.2377
1.50958
1.16436
1.41783
1.37825
1.3106
1.29019
1.30948
1.32042
1.43026
1.29148
1.28698
1.5415
1.93064
1.20119
1.40696
1.40095
1.45961
1.3166
1.40735
1.41956
1.49577
1.31436
1.51718
1.22931
1.32926
1.40187
1.45796
1.30946
1.23684
1.19458
1.43348
1.41272
1.42015
1.32599
1.30434
1.37749
1.37473
1.18467
1.21415
1.3934
1.22683
1.19027
1.54123
1.26222
1.49467
1.53014
1.45341
1.33528
1.40177
1.22257
1.50823
1.52956
1.21817
1.3958
1.55053
1.38918
1.49522
1.34134
1.26537
1.53597
1.57184
1.49475
1.33436
1.50096
1.28865
1.42136
1.53867
1.39741
1.31652
1.34043
1.82262
1.11617
1.5484
1.44084
1.31005
1.61346
1.34991
1.31107
1.45088
1.34193
1.24786
1.20628
1.44819
1.37207
1.38736
1.32753
1.34579
1.34013
1.4497
1.25485
1.3979
1.20839
1.54916
1.41987
1.50863
1.51345
1.17419
1.35316
1.35524
1.45176
1.18498
1.19667
1.5374
1.33506
1.38149
1.2017
1.30081
1.25722
1.37881
1.33166
1.21129
1.6166
1.22656
1.35166
1.50289
1.54684
1.61343
1.35308
1.2122
1.35939
1.23923
1.29161
1.54394
1.3599
1.36939
1.32191
1.36353
1.22357
1.53809
1.51514
1.45033
1.35949
1.35719
1.21317
1.32017
1.49001
1.54524
1.23515
1.35892
1.16886
1.37374
1.34414
1.19262
1.19649
1.1906
1.55696
1.35915
1.1988
1.41155
1.50529
1.31383
1.37131
1.40057
1.54841
1.37306
1.53102
1.45192
1.41773
1.23206
1.46709
1.33828
1.36873
1.2546
1.31832
1.338
1.43578
1.53949
1.37426
1.12771
1.3757
1.36481
1.3707
1.54593
1.34551
1.37081
1.32927
1.12772
1.1685
1.53789
1.47166
1.33636
1.52461
1.49634
1.4273
1.20988
1.31615
1.45231
1.2519
1.34029
1.32562
1.2282
1.43936
1.46932
1.28755
1.3762
1.41132
1.52997
1.40857
1.34031
1.33079
1.31839
1.41928
1.40954
1.48793
1.37944
1.47379
1.40811
1.3386
1.38611
1.5454
1.37328
1.32674
1.33847
1.30885
1.54425
1.37723
1.17524
1.50224
1.53237
1.32052
1.29969
1.34968
1.53216
1.48974
1.28086
1.56015
1.31163
1.38783
1.29815
1.54717
1.5474
1.34678
1.30118
1.53668
1.38636
1.53217
1.28702
1.38442
1.20041
1.54273
1.29926
1.54071
1.28308
1.45415
1.5059
1.34993
1.39589
1.28914
1.27186
1.58035
1.5162
1.52739
1.35786
1.39207
1.26643
1.284
1.41096
1.26607
1.39395
1.40793
1.20026
1.42113
1.50827
1.59371
1.40495
1.40715
1.19918
1.58584
1.35534
1.42052
1.53807
1.27502
1.22621
1.39814
1.2267
1.40781
1.51799
1.24914
1.38922
1.38261
1.26253
1.2656
1.35345
1.35134
1.41054
1.29688
1.37361
1.59515
1.52837
1.40622
1.17404
1.24752
1.47879
1.3504
1.29831
1.17227
1.15371
1.61003
1.25596
1.40404
1.31647
1.36956
1.41292
1.63737
1.35059
1.22208
1.36424
1.4032
1.24234
1.52494
1.54011
1.40314
1.23471
1.31492
1.53846
1.40334
1.67886
1.89899
1.35246
1.40286
0.609615
1.23435
1.46024
1.36237
1.65791
1.25493
1.36624
1.40555
1.2025
1.60063
1.22196
1.35013
1.16783
1.42073
1.44734
1.49601
1.37317
1.59844
1.41555
1.33251
1.39716
1.51922
1.5471
1.22274
1.3215
1.21122
1.4573
1.37206
1.40346
1.41047
1.6293
1.44077
1.32622
1.54811
1.3583
1.22553
1.18343
1.223
1.35008
1.59628
1.16829
1.54211
1.42091
1.29322
1.48248
1.52165
1.39629
1.36309
1.36362
1.32946
1.12454
1.49259
1.54234
1.28297
1.33388
1.39023
1.24236
1.47894
1.38014
1.41881
1.40564
1.42511
1.62488
1.3881
1.50068
1.42397
1.53587
1.51194
1.34931
1.559
1.4164
1.31065
1.6313
1.56584
1.398
1.3962
1.41275
1.48714
1.29356
1.57488
1.40518
1.42711
1.70223
1.41898
1.50017
1.48866
1.3262
1.39512
1.1592
1.38688
1.87285
1.40671
1.41982
1.58584
1.44725
1.41915
1.85678
1.15647
1.41844
1.43635
1.1576
1.6157
1.53315
1.17313
1.43226
1.53375
1.50516
1.43741
1.40444
1.44045
1.42595
1.12404
1.43621
1.29559
1.31274
1.24348
1.18158
1.18183
1.21347
1.40404
1.2441
1.14318
1.25696
1.50512
1.51718
1.42006
1.30961
1.57499
1.50325
1.21452
1.55293
1.44025
1.33638
1.38817
1.60554
1.41189
1.43752
1.34827
1.1449
1.40942
1.49652
1.43814
1.33271
1.5078
1.10567
1.40859
1.3497
1.36574
1.41711
1.35235
1.42367
1.1303
1.12791
1.25135
1.12808
1.43701
1.43193
1.61985
1.40674
1.79483
1.46945
1.19372
1.4851
1.46872
1.81874
1.3847
1.4054
1.17123
1.35288
1.42206
1.38472
1.1266
1.53164
1.39709
1.17861
1.46209
1.3899
1.31855
1.45253
1.53255
1.49654
1.49901
1.38443
1.36017
1.41971
1.45796
1.38551
1.41466
1.45527
1.20771
1.47432
1.35038
1.48659
1.31611
1.39971
1.16802
1.49562
1.54268
1.12743
1.53157
1.32714
1.20852
1.10973
1.2479
1.21734
1.28299
1.37589
0.819127
1.38953
1.60692
0.81325
1.42885
1.42832
1.22914
1.46085
1.14235
1.32346
1.43019
1.52085
1.19576
1.11072
1.29578
1.54176
1.17127
1.42614
1.33316
1.2161
1.36898
1.21394
1.41992
1.21492
1.60538
1.37529
1.37352
1.12211
1.47175
1.3444
1.36166
1.16723
1.17122
0.704001
1.50747
1.41969
1.333
1.46358
1.17305
1.66969
1.59618
1.33492
0.748069
1.60847
1.35278
1.40195
1.17339
1.20857
1.12072
1.34484
1.33432
1.43084
1.82182
1.60936
1.41208
1.21965
1.21776
1.19825
1.3651
1.54899
1.3584
1.12615
1.21346
1.15952
1.22622
1.11115
1.62681
1.39734
1.35368
1.35512
1.4323
1.18905
1.61405
1.58996
1.51212
1.35715
1.44369
1.35199
1.36826
1.35323
1.20752
1.62037
1.62704
1.24453
1.23547
1.4411
1.62565
1.22072
1.24143
1.45048
1.51016
1.20092
1.38024
1.36028
1.12919
1.17566
1.35595
1.42421
1.80873
1.39882
1.3555
1.4486
1.39416
1.21083
1.3695
1.12773
1.24502
1.35198
1.39982
1.1332
1.2636
1.46555
1.37444
1.57073
1.40912
1.58092
1.44685
1.3696
1.13235
1.46731
1.21992
1.43982
1.34274
1.66226
1.42179
1.15156
1.50522
1.12726
1.13173
1.26027
1.27849
1.37048
1.51457
1.45216
1.43489
1.35393
1.36063
1.16631
1.39549
0.60126
1.37176
1.27113
1.28447
1.17709
1.17309
1.52457
1.13235
1.37763
1.20467
1.47699
1.35466
1.14218
0.574029
1.39532
1.40807
1.37686
1.36755
1.40281
1.23642
1.14374
1.46764
1.36043
1.47237
1.25537
1.29495
1.39034
1.28833
1.20158
1.52425
1.14125
1.30059
1.49909
1.34337
1.52344
1.22237
1.20563
1.49721
1.37599
1.37563
1.55491
1.29943
1.55791
1.27937
1.45305
1.29086
1.39377
1.49314
1.12444
1.55482
1.29706
1.54063
1.32227
1.50988
1.34549
1.43663
1.36292
1.37879
1.20783
1.41376
1.26812
1.20863
1.18421
1.48907
1.1505
1.46744
1.22626
1.37812
1.34207
1.32473
1.46689
1.11161
1.44898
1.40283
1.47527
1.38438
1.44048
1.29478
1.35098
1.28944
1.47204
1.3148
1.5217
1.1498
1.52416
1.45023
1.36732
1.2212
1.60802
1.37876
1.37461
1.43815
1.47791
1.42826
1.53921
1.43799
1.34605
1.16961
1.31453
1.15934
1.35381
1.4699
1.50009
1.61987
1.14024
1.29895
1.41564
1.43051
1.43537
1.12655
1.22487
1.43207
1.33709
1.48111
1.37944
1.1993
1.44326
1.49779
1.15822
1.17165
1.11804
1.35417
1.33411
1.48072
1.47436
1.17163
1.4018
1.41555
1.30136
1.39899
1.4194
1.31315
1.11269
1.49303
1.45405
1.45251
1.4706
1.35606
1.22406
1.50435
1.38233
1.51951
1.33131
1.48822
1.38175
1.29244
1.51585
1.42292
1.40249
1.40371
1.33083
1.2935
1.39769
1.3531
1.45698
1.28123
1.35611
1.35332
1.45681
1.36965
1.34141
1.37165
1.51399
1.42013
1.33698
1.32185
1.49711
1.32718
1.35655
1.33747
1.45553
1.2365
1.38676
1.11516
1.36561
1.33114
1.49617
1.36961
1.3827
1.72091
1.40217
1.23823
1.34174
1.17325
1.34766
1.46399
1.17443
1.38536
1.37771
1.35157
1.31301
1.39562
1.40275
1.35552
1.35983
1.59372
1.48242
1.38966
1.51639
1.38479
1.30243
1.37733
1.41434
1.5183
1.4603
1.37565
1.42797
1.35387
1.4966
1.35192
1.36691
1.17003
1.33705
1.6407
1.34003
1.37092
1.35033
1.57592
1.42047
1.2993
1.36201
1.37958
1.33069
1.40485
1.12519
1.38948
1.42185
1.58833
1.49514
1.46088
1.43783
1.3849
1.3903
1.38479
1.39389
1.40905
1.30544
1.31108
1.29966
1.19412
1.16949
1.37155
1.40304
1.39873
1.39534
1.40173
1.17038
1.41966
1.29789
1.31361
1.36023
1.4026
1.82896
1.30919
1.34648
1.33014
1.46909
1.41751
1.39056
1.31612
1.29569
1.46803
1.40943
1.26521
1.37572
1.568
1.30518
1.23739
1.3805
1.11708
1.30211
1.6078
1.41
1.35814
1.3839
1.35554
1.45285
1.32767
1.4615
1.38222
1.42237
1.39422
1.51118
1.33625
1.1936
1.39684
1.37986
1.68391
1.37467
1.43587
1.29586
1.52266
1.317
1.50674
1.7045
1.38875
1.33972
1.42313
1.68067
1.21889
1.40726
1.39883
1.3864
1.29666
1.18364
1.38274
1.41581
1.40111
1.40075
1.60428
1.38032
1.31891
1.39909
1.49436
1.52503
1.58892
1.30717
1.26416
1.47124
1.46572
1.39755
1.47016
1.33659
1.46388
1.5633
1.52179
1.17893
1.1907
1.38692
1.46595
1.18897
1.38574
1.35118
1.43187
1.5569
1.29593
1.42394
1.55783
1.40769
1.19022
1.40622
1.31235
1.6753
1.44692
1.40664
1.18769
1.22814
1.50924
1.43107
1.42183
1.3159
1.35757
1.34248
1.38661
1.19101
1.36238
0.647101
1.39812
1.35558
1.38496
1.43697
1.38818
1.38889
1.1957
1.20653
1.47995
1.3593
1.47577
1.41249
1.4342
1.0844
1.38643
1.38564
1.39259
1.55803
1.18853
1.50912
1.41611
1.44816
1.29214
1.39126
1.45454
1.38684
1.44714
1.3292
1.53803
1.5451
1.23049
1.39406
1.12552
1.39512
1.46363
1.45664
1.51662
1.3682
1.38996
1.4878
1.51628
1.21952
1.71332
1.4473
1.18432
1.3373
1.22114
1.52929
1.08542
1.16988
1.3933
1.36771
1.49694
1.49455
1.46297
1.32259
1.36893
1.39654
1.40634
1.44062
1.42256
1.46199
1.39612
1.35688
1.11225
1.12413
1.43311
1.44397
1.4895
1.61163